/*--------------------------------*- C++ -*----------------------------------*\
  =========                 |
  \\      /  F ield         | OpenFOAM: The Open Source CFD Toolbox
   \\    /   O peration     | Website:  https://openfoam.org
    \\  /    A nd           | Version:  9
     \\/     M anipulation  |
\*---------------------------------------------------------------------------*/
FoamFile
{
    format      ascii;
    class       volScalarField;
    location    "4.9";
    object      k;
}
// * * * * * * * * * * * * * * * * * * * * * * * * * * * * * * * * * * * * * //

dimensions      [0 2 -2 0 0 0 0];

internalField   nonuniform List<scalar> 
2268
(
0.00033095
0.000793875
0.00114347
0.00141264
0.00163092
0.00181313
0.00196894
0.00210514
0.00222643
0.00233597
0.00243631
0.00252696
0.00260707
0.00267481
0.00272296
0.00272805
0.00261786
0.00236943
0.00209762
0.0019232
0.00171805
0.00131619
0.000479852
0.000707396
0.00185119
0.00258546
0.0031583
0.00362605
0.00401758
0.00435194
0.00464278
0.00489943
0.00512757
0.0053303
0.00550824
0.00565871
0.00577486
0.00584066
0.00581871
0.00563252
0.00521291
0.00474192
0.00436748
0.00389928
0.00296936
0.00120241
0.000996119
0.00246571
0.00337253
0.00408119
0.00466301
0.00515158
0.00556892
0.00593088
0.00624856
0.00652912
0.00677668
0.00699206
0.00717171
0.00730686
0.00737937
0.00735271
0.00716517
0.00677076
0.00629363
0.00582931
0.00520281
0.0040447
0.00170971
0.00123905
0.00295177
0.0039731
0.00476811
0.00542289
0.00597417
0.00644544
0.00685366
0.00721095
0.00752536
0.00780173
0.00804108
0.00823962
0.00838814
0.00846892
0.00845012
0.00828496
0.00794033
0.00749401
0.00699561
0.006299
0.00502292
0.00218949
0.00144767
0.00337282
0.00448649
0.00534693
0.00605622
0.00665436
0.00716605
0.00760908
0.00799631
0.00833649
0.00863501
0.00889323
0.0091076
0.00926929
0.00936236
0.00936058
0.00922943
0.00894208
0.00854224
0.00804674
0.00732908
0.00598834
0.00272133
0.00163242
0.00375138
0.00494669
0.0058619
0.00661557
0.00725145
0.00779554
0.00826649
0.00867789
0.00903916
0.00935628
0.00963106
0.00986048
0.0100367
0.0101461
0.0101678
0.0100763
0.00984913
0.0095053
0.00904093
0.00834376
0.00700301
0.00334686
0.00180045
0.00409918
0.00536986
0.00633398
0.00712601
0.00779373
0.00836474
0.00885872
0.00929019
0.00966931
0.0100027
0.0102928
0.0105374
0.0107298
0.0108589
0.0109083
0.0108587
0.0106912
0.010409
0.00999672
0.00936009
0.00811542
0.00424148
0.00195832
0.00442423
0.0057659
0.00677559
0.00760227
0.00829774
0.00889146
0.00940447
0.00985257
0.0102469
0.0105948
0.0108994
0.0111594
0.0113695
0.0115207
0.0116
0.0115927
0.0114826
0.0112638
0.0109174
0.0103753
0.00935684
0.00610276
0.000410572
0.0013238
0.00181543
0.0020457
0.00213793
0.00215564
0.00214162
0.00213113
0.00215987
0.00216028
0.00195164
0.00169551
0.00143504
0.00164296
0.00200322
0.00194463
0.00165192
0.00120573
0.000859338
0.000992737
0.00284669
0.00382881
0.00433361
0.0045602
0.00463044
0.00462443
0.00460176
0.00458185
0.00447986
0.0041429
0.0036618
0.00320982
0.00352321
0.00392167
0.00372432
0.00314332
0.00229618
0.00131887
0.00148285
0.00373796
0.00492459
0.0055343
0.00581223
0.00590309
0.00589975
0.00586106
0.00580076
0.00563905
0.0052684
0.00477908
0.00437226
0.00459113
0.00478387
0.00448654
0.00379101
0.00283455
0.00156483
0.00196247
0.0045491
0.00582091
0.00645875
0.0067456
0.00683556
0.00682367
0.00676451
0.00666663
0.00646083
0.00607663
0.00561284
0.00528572
0.0053969
0.00540626
0.00499135
0.00419096
0.00314609
0.00170715
0.00248374
0.00537668
0.00666734
0.00728485
0.00755183
0.00762451
0.00759413
0.00750949
0.0073744
0.00713256
0.00674655
0.00632483
0.00605616
0.00607023
0.00593409
0.0053951
0.00447405
0.003312
0.00176547
0.00314151
0.00625782
0.00750837
0.00806773
0.00829325
0.00833608
0.00827883
0.00816337
0.00799164
0.00772042
0.00734098
0.00696138
0.00671886
0.0066434
0.00640101
0.00574153
0.00468221
0.00336037
0.0017397
0.00410129
0.00723133
0.00835921
0.00882721
0.00899512
0.00899903
0.00890855
0.00875868
0.00855153
0.00825638
0.00788407
0.00753233
0.00728728
0.00713482
0.00681087
0.00604038
0.00483351
0.00331374
0.00163371
0.00572461
0.00832532
0.00921769
0.00956859
0.00966815
0.00962724
0.00950007
0.00931392
0.00907239
0.00875652
0.00838641
0.00804192
0.00777322
0.00755261
0.0071599
0.00629078
0.00493696
0.00321589
0.00153355
0.00218534
0.00489478
0.00634526
0.00742547
0.00830436
0.00903963
0.00966393
0.0102011
0.01067
0.0110841
0.0114522
0.0117783
0.0120627
0.0123021
0.0124908
0.0126201
0.0126784
0.0126527
0.0125315
0.0122974
0.0119228
0.0113206
0.0101573
0.00245236
0.0054608
0.00706104
0.00824387
0.0091943
0.00997584
0.010627
0.0111785
0.0116597
0.0120897
0.0124786
0.0128311
0.0131487
0.0134308
0.0136737
0.0138699
0.0140071
0.0140746
0.0140627
0.0139624
0.0137692
0.0134702
0.0130166
0.00269283
0.00596784
0.00774898
0.00906265
0.0100979
0.01092
0.0115739
0.0121059
0.0125739
0.0130042
0.0134045
0.0137776
0.0141255
0.0144493
0.0147467
0.0150075
0.0152127
0.0153527
0.0154235
0.0154232
0.0153542
0.0152202
0.0150253
0.00295582
0.00644318
0.00846748
0.00996558
0.0111048
0.0119552
0.0125698
0.0130204
0.0134423
0.0138558
0.0142561
0.0146419
0.015013
0.0153744
0.0157269
0.0160534
0.0163101
0.0165024
0.0166279
0.0166979
0.0167191
0.0166905
0.0166636
0.00339868
0.0070318
0.00920974
0.0107577
0.0117014
0.0126033
0.0132879
0.013755
0.0141859
0.0146182
0.0150415
0.015444
0.0158232
0.0162057
0.0166122
0.0170134
0.0173191
0.0175469
0.0177068
0.0178279
0.0179194
0.0179486
0.0179964
0.00350877
0.00714447
0.00931945
0.0107737
0.0118414
0.0127963
0.0136435
0.0141887
0.0146731
0.0151666
0.015654
0.0161101
0.0165295
0.0169626
0.0174702
0.0180016
0.0182846
0.0184898
0.0186188
0.0187437
0.0188835
0.018835
0.0187942
0.0031409
0.00693495
0.00921561
0.0107475
0.0118887
0.0128918
0.0138219
0.0144679
0.0150311
0.0155737
0.0160949
0.0165824
0.0170345
0.0174772
0.0179351
0.0183985
0.0187297
0.0188956
0.0190082
0.0191121
0.019221
0.0193057
0.019392
0.00301822
0.00671557
0.00903896
0.0106447
0.0119176
0.0130116
0.0139157
0.014662
0.0153162
0.0159079
0.0164454
0.016932
0.0173711
0.0177808
0.0181729
0.0185499
0.0188671
0.0190761
0.0192409
0.0194015
0.0195412
0.0196225
0.019561
0.00306502
0.00680341
0.00904473
0.0106578
0.0119764
0.0130887
0.0140119
0.0148122
0.0155203
0.0161531
0.0167153
0.0172119
0.0176504
0.0180444
0.0184031
0.0187294
0.01901
0.0192377
0.0194301
0.0195974
0.0197049
0.0196974
0.0195797
0.00315478
0.00700829
0.00919062
0.0107841
0.0120925
0.0132017
0.0141434
0.0149658
0.0156955
0.0163461
0.0169226
0.017429
0.0178719
0.0182604
0.018604
0.0189072
0.0191676
0.0193846
0.0195626
0.0196974
0.0197636
0.0197361
0.0196312
0.00325887
0.00723198
0.00939706
0.0109732
0.012261
0.0133543
0.0142962
0.0151229
0.0158565
0.0165095
0.0170879
0.0175961
0.0180395
0.0184265
0.0187655
0.0190611
0.0193135
0.0195211
0.0196819
0.0197906
0.0198351
0.0198071
0.0197125
0.00337342
0.00746333
0.00962558
0.0111862
0.0124525
0.0135275
0.0144595
0.0152798
0.0160078
0.0166551
0.0172284
0.017733
0.0181752
0.0185627
0.018902
0.019197
0.0194474
0.0196505
0.0198024
0.0198988
0.0199347
0.0199075
0.0198177
0.00349856
0.0076854
0.00984917
0.0113966
0.0126448
0.0137027
0.0146215
0.0154312
0.0161498
0.0167884
0.0173546
0.0178549
0.0182962
0.0186849
0.0190262
0.0193226
0.0195731
0.0197751
0.0199244
0.0200176
0.0200524
0.0200275
0.0199427
0.00362443
0.00788421
0.0100527
0.0115898
0.012823
0.013866
0.0147719
0.0155703
0.0162792
0.0169097
0.0174702
0.0179679
0.0184092
0.0187998
0.0191435
0.0194418
0.0196938
0.0198969
0.0200476
0.0201432
0.0201819
0.0201628
0.0200861
0.00373296
0.00805332
0.0102275
0.0117567
0.012978
0.0140087
0.0149033
0.0156921
0.016393
0.0170177
0.0175751
0.0180723
0.0185153
0.0189087
0.0192557
0.0195571
0.0198122
0.0200188
0.0201743
0.0202762
0.0203231
0.0203143
0.0202502
0.00382134
0.00818903
0.0103692
0.0118929
0.0131052
0.0141263
0.0150124
0.015794
0.0164898
0.0171118
0.0176689
0.0181681
0.0186148
0.0190129
0.019365
0.0196718
0.0199326
0.0201458
0.0203095
0.0204216
0.0204809
0.0204867
0.0204393
0.0038923
0.00829153
0.0104769
0.011997
0.013203
0.0142176
0.0150981
0.0158759
0.0165698
0.0171923
0.0177522
0.0182563
0.0187093
0.0191149
0.019475
0.0197903
0.0200605
0.0202843
0.0204601
0.0205865
0.0206622
0.0206864
0.0206593
0.00394596
0.00836246
0.0105514
0.0120696
0.0132719
0.0142831
0.0151615
0.0159388
0.0166344
0.017261
0.0178272
0.0183394
0.0188021
0.0192186
0.0195905
0.0199185
0.0202024
0.0204412
0.0206336
0.0207784
0.0208743
0.0209205
0.0209166
0.003983
0.00840401
0.0105947
0.0121121
0.0133134
0.0143245
0.0152042
0.015985
0.0166862
0.0173206
0.0178969
0.0184211
0.0188975
0.019329
0.0197171
0.0200624
0.0203647
0.0206233
0.0208369
0.0210043
0.0211243
0.0211957
0.0212179
0.00400406
0.00841841
0.0106091
0.0121268
0.0133296
0.0143439
0.0152288
0.0160168
0.0167278
0.0173742
0.0179648
0.0185054
0.019
0.0194511
0.0198603
0.0202279
0.0205538
0.0208371
0.0210767
0.0212711
0.021419
0.021519
0.0215702
0.00401003
0.00840785
0.0105969
0.0121161
0.013323
0.0143438
0.0152376
0.0160372
0.0167622
0.0174252
0.0180347
0.0185964
0.0191141
0.0195901
0.0200256
0.020421
0.0207758
0.0210891
0.0213595
0.0215855
0.0217654
0.0218976
0.0219808
0.00400107
0.00837432
0.0105607
0.0120828
0.0132963
0.014327
0.0152337
0.0160491
0.0167926
0.017477
0.0181104
0.0186984
0.0192445
0.0197509
0.0202185
0.0206473
0.0210368
0.0213856
0.0216922
0.0219547
0.0221712
0.0223397
0.0224585
0.00397841
0.00832013
0.0105032
0.0120296
0.0132524
0.0142963
0.0152199
0.0160554
0.0168223
0.017533
0.0181956
0.0188154
0.0193958
0.0199386
0.0204444
0.0209129
0.0213433
0.0217338
0.0220825
0.0223871
0.0226453
0.0228546
0.0230131
0.00394402
0.00824813
0.0104273
0.0119596
0.0131943
0.0142549
0.0151994
0.0160595
0.0168547
0.0175969
0.0182943
0.0189519
0.0195728
0.0201585
0.0207093
0.0212245
0.0217027
0.0221419
0.0225393
0.0228924
0.0231981
0.0234537
0.0236567
0.00389952
0.00816116
0.0103361
0.0118757
0.013125
0.0142058
0.0151753
0.0160647
0.0168931
0.0176725
0.0184106
0.0191124
0.0197807
0.0204166
0.02102
0.0215897
0.0221238
0.0226194
0.0230734
0.0234823
0.0238424
0.0241506
0.0244038
0.00384641
0.00806186
0.0102324
0.011781
0.0130478
0.0141523
0.0151509
0.0160743
0.0169413
0.0177637
0.018549
0.019302
0.0200252
0.0207195
0.0213842
0.0220176
0.0226168
0.0231782
0.0236978
0.0241712
0.0245939
0.0249621
0.0252721
0.00378599
0.00795254
0.0101189
0.0116785
0.0129656
0.0140976
0.0151296
0.0160919
0.017003
0.0178746
0.0187141
0.0195261
0.020313
0.0210751
0.0218112
0.0225188
0.0231941
0.0238324
0.0244285
0.0249768
0.0254718
0.0259086
0.026283
0.00371882
0.00783483
0.00999801
0.0115709
0.0128815
0.0140447
0.0151146
0.0161209
0.017082
0.0180095
0.0189109
0.0197907
0.0206511
0.021492
0.0223115
0.0231061
0.0238708
0.0245994
0.0252851
0.0259206
0.0264992
0.0270149
0.0274626
0.0036429
0.00770906
0.00987156
0.0114608
0.0127982
0.0139967
0.015109
0.0161647
0.017182
0.0181728
0.0191447
0.0201023
0.0210476
0.0219803
0.0228976
0.0237947
0.024665
0.0255003
0.0262914
0.0270292
0.0277049
0.0283111
0.0288418
0.00355668
0.0075754
0.00974108
0.0113502
0.0127183
0.0139561
0.0151156
0.0162263
0.0173066
0.0183686
0.0194206
0.0204675
0.0215113
0.0225513
0.0235839
0.0246025
0.0255982
0.0265603
0.0274764
0.0283345
0.0291232
0.0298334
0.030458
0.00347348
0.00743442
0.00960793
0.011241
0.0126436
0.013925
0.0151367
0.0163083
0.0174587
0.0186009
0.0197437
0.020893
0.0220512
0.0232172
0.0243863
0.0255498
0.0266958
0.0278096
0.0288748
0.029875
0.0307956
0.031625
0.032355
0.00339187
0.00729131
0.00947452
0.0111349
0.012576
0.0139054
0.0151745
0.0164131
0.0176411
0.0188727
0.0201184
0.0213852
0.0226763
0.0239906
0.0253221
0.0266595
0.0279865
0.0292833
0.0305273
0.0316963
0.0327711
0.0337369
0.0345845
0.00330887
0.00714872
0.00934215
0.0110325
0.0125161
0.0138981
0.0152298
0.0165417
0.0178551
0.0191862
0.0205477
0.0219488
0.0233943
0.0248833
0.0264085
0.0279553
0.0295018
0.0310206
0.0324809
0.0338519
0.0351074
0.0362288
0.0372062
0.00322339
0.00700495
0.00920945
0.0109331
0.0124634
0.0139031
0.0153028
0.016694
0.0181004
0.0195411
0.0210321
0.0225859
0.0242097
0.0259039
0.0276601
0.0294596
0.0312735
0.0330641
0.0347883
0.0364027
0.0378713
0.03917
0.0402888
0.0031317
0.00685333
0.00907167
0.0108339
0.0124168
0.0139195
0.0153923
0.0168684
0.0183746
0.0199342
0.0215679
0.023293
0.0251209
0.0270543
0.0290845
0.0311888
0.0333296
0.0354555
0.0375057
0.0394178
0.0411395
0.0426397
0.0439101
0.00302706
0.00668348
0.00892177
0.0107313
0.0123745
0.013946
0.0154963
0.0170613
0.0186721
0.0203578
0.0221457
0.0240595
0.0261168
0.0283248
0.0306764
0.0331462
0.0356872
0.0382309
0.0406913
0.0429746
0.0450016
0.0467306
0.0481592
0.00289879
0.00648163
0.00875156
0.010622
0.0123354
0.0139814
0.0156117
0.0172667
0.0189837
0.0207991
0.0227483
0.0248639
0.027172
0.0296877
0.0324092
0.0353118
0.0383423
0.0414135
0.0444034
0.0471649
0.0495672
0.0515539
0.0531395
0.00273399
0.00623336
0.00855486
0.010506
0.012301
0.0140252
0.0157345
0.0174763
0.0192959
0.0212386
0.0233494
0.0256716
0.0282431
0.0310909
0.0342246
0.0376293
0.0412552
0.0450021
0.0487007
0.052109
0.0549827
0.057251
0.058974
0.00262609
0.00594812
0.00833565
0.0103897
0.0122761
0.0140776
0.0158592
0.0176786
0.0195908
0.0216505
0.0239132
0.0264345
0.0292662
0.0324523
0.036023
0.0399887
0.0443263
0.0489484
0.053641
0.0579926
0.0614652
0.0640099
0.06581
0.00445583
0.0058334
0.00812117
0.0102861
0.0122675
0.0141373
0.0159772
0.0178586
0.0198462
0.0220038
0.0243969
0.0270929
0.0301589
0.03366
0.037657
0.0422075
0.0473582
0.0531048
0.0592604
0.0651599
0.0693639
0.0720832
0.0738168
0.0187647
0.00708564
0.00793509
0.0101954
0.0122752
0.0141968
0.0160749
0.0179974
0.0200375
0.0222656
0.0247548
0.0275823
0.0308291
0.0345811
0.0389353
0.0440155
0.0499936
0.0570898
0.0654387
0.0743868
0.0792534
0.0817794
0.08316
0.0840701
0.0145513
0.00799446
0.0101309
0.0122894
0.0142383
0.0161328
0.0180745
0.0201411
0.0224061
0.0249465
0.0278451
0.0311914
0.0350853
0.0396508
0.0450701
0.051654
0.0599828
0.0712087
0.0877994
0.0919759
0.0933509
0.0939296
0.00753792
0.0063981
0.00607041
0.00642265
0.0125183
0.0122091
0.0120115
0.0119516
0.0148115
0.0146505
0.0144902
0.0143459
0.0164942
0.0163344
0.0161536
0.0159822
0.0179235
0.0177552
0.0174816
0.0172257
0.0187181
0.0185255
0.0183276
0.0181207
0.0191775
0.0190687
0.0189461
0.0187084
0.0193789
0.0192642
0.0191274
0.018956
0.0194442
0.0193514
0.0192476
0.0191286
0.0195114
0.0194249
0.0193285
0.0192201
0.019597
0.019511
0.0194138
0.0193059
0.0197056
0.0196211
0.0195249
0.0194178
0.0198359
0.019755
0.0196623
0.0195584
0.0199875
0.0199122
0.0198252
0.019727
0.0201626
0.0200948
0.0200154
0.0199247
0.0203655
0.0203066
0.0202364
0.0201549
0.0206014
0.020553
0.0204932
0.0204223
0.0208766
0.0208398
0.0207916
0.0207322
0.0211976
0.0211734
0.0211378
0.0210908
0.0215713
0.0215607
0.0215386
0.0215051
0.0220053
0.0220096
0.0220021
0.021983
0.0225086
0.022529
0.0225375
0.0225338
0.0230914
0.0231296
0.0231553
0.0231685
0.0237663
0.023824
0.0238688
0.0239005
0.0245483
0.0246278
0.0246937
0.0247457
0.0254558
0.0255596
0.0256488
0.0257234
0.0265107
0.0266416
0.0267569
0.0268564
0.0277396
0.0279008
0.028045
0.028172
0.029174
0.0293689
0.0295451
0.0297024
0.0308516
0.0310836
0.0312947
0.0314849
0.032816
0.0330886
0.0333374
0.0335626
0.0351186
0.0354345
0.0357232
0.035985
0.0378182
0.0381793
0.0385088
0.0388074
0.0409813
0.0413881
0.0417577
0.0420916
0.0446829
0.0451336
0.0455402
0.0459054
0.0490074
0.0494967
0.0499339
0.0503229
0.0540501
0.0545677
0.0550239
0.055425
0.0599201
0.0604475
0.0609042
0.0612994
0.0667413
0.0672475
0.0676762
0.0680402
0.074647
0.0750842
0.0754449
0.0757443
0.0837597
0.0840639
0.0843077
0.0845054
0.0941504
0.0942577
0.0943412
0.0944076
0.0088
0.0100453
0.0105267
0.010689
0.01068
0.0105671
0.0103808
0.0101375
0.00984315
0.00949621
0.00911776
0.00875594
0.00842804
0.00809954
0.00759446
0.00660642
0.00506981
0.00313701
0.00139982
0.0120473
0.0121815
0.0122028
0.0121296
0.01197
0.0117541
0.0114875
0.0111706
0.0108084
0.0104099
0.00999025
0.00956879
0.00914883
0.00868988
0.00805844
0.00701904
0.00546914
0.00355657
0.00144646
0.0141383
0.013898
0.0136835
0.0134658
0.0131729
0.0128695
0.0125334
0.0121508
0.0117241
0.0112646
0.0107897
0.0103064
0.00980399
0.00923913
0.00852337
0.00751913
0.00613476
0.00439245
0.00179473
0.0157522
0.0153443
0.0150165
0.0147597
0.0143028
0.013944
0.0135525
0.013099
0.0126062
0.0120839
0.0115533
0.0110169
0.0104487
0.00979907
0.00905746
0.00816827
0.00700511
0.00544152
0.00236868
0.0168681
0.0164606
0.0161056
0.0158331
0.0153084
0.0149946
0.0145021
0.0139151
0.0133413
0.0127669
0.0121881
0.0116291
0.0110455
0.0103262
0.0095815
0.00879147
0.00773548
0.00630832
0.00332621
0.0178231
0.0174701
0.0170878
0.0167158
0.0161655
0.0157375
0.0151769
0.0145108
0.0138576
0.0132176
0.0125818
0.0119562
0.0113138
0.0106068
0.00987239
0.00906437
0.00797983
0.00658078
0.00344024
0.0183748
0.0179812
0.017654
0.0173969
0.0167814
0.0163228
0.0157421
0.0150282
0.0143072
0.0136058
0.0129221
0.01225
0.0115598
0.0108233
0.0100534
0.00913625
0.00795945
0.0062036
0.00300559
0.0186694
0.0182783
0.0179234
0.0176104
0.017127
0.0166359
0.0160599
0.0153913
0.0146503
0.0139105
0.013195
0.0124874
0.0117571
0.0109752
0.0101296
0.00914045
0.00795859
0.00609068
0.00286625
0.018895
0.0185178
0.0181225
0.0177161
0.0172436
0.016738
0.0161919
0.0155737
0.0148596
0.0141095
0.0133677
0.0126305
0.0118758
0.0110637
0.0101322
0.00903385
0.00774938
0.00600716
0.00292505
0.0190158
0.0186663
0.0182635
0.0178159
0.0173233
0.0168044
0.0162594
0.0156636
0.0149698
0.0142176
0.0134574
0.012691
0.0119136
0.011061
0.0100522
0.008854
0.00747111
0.00575433
0.00277572
0.0191097
0.0187749
0.0183779
0.0179254
0.0174328
0.0169076
0.016352
0.0157533
0.0150649
0.0143164
0.0135328
0.0127187
0.0118809
0.0109547
0.00987387
0.0086059
0.00713716
0.005371
0.00250172
0.0192236
0.0188953
0.0185084
0.0180672
0.0175837
0.017059
0.0164943
0.0158834
0.0151988
0.014447
0.0136371
0.0127801
0.0118676
0.0108492
0.00968229
0.00832622
0.00673016
0.00484715
0.00222691
0.0193691
0.0190488
0.0186741
0.0182473
0.0177738
0.0172527
0.0166844
0.0160666
0.0153831
0.0146279
0.0138098
0.0129281
0.0119634
0.0108782
0.00963294
0.00817958
0.00645356
0.00445312
0.00200064
0.0195469
0.0192391
0.0188787
0.0184667
0.0180042
0.0174896
0.0169237
0.0163053
0.0156254
0.0148786
0.0140668
0.0131816
0.0122011
0.0110935
0.00982275
0.0083453
0.0066094
0.00462131
0.00214637
0.0197571
0.0194663
0.0191225
0.0187268
0.0182781
0.0177747
0.0172171
0.0166049
0.0159341
0.0152001
0.0144006
0.0135268
0.0125594
0.0114738
0.010241
0.00882369
0.00717591
0.00522838
0.00251868
0.0200023
0.0197318
0.0194072
0.0190296
0.0185976
0.0181095
0.0175649
0.0169643
0.0163057
0.0155857
0.0148006
0.0139436
0.0130018
0.0119578
0.0107903
0.00946721
0.0079291
0.00600644
0.00292331
0.0202867
0.0200392
0.0197362
0.0193784
0.0189651
0.0184945
0.017966
0.0173798
0.0167351
0.0160291
0.0152586
0.0144186
0.0135009
0.0124939
0.0113813
0.0101327
0.0086742
0.00677309
0.00329805
0.0206154
0.020393
0.0201135
0.0197773
0.019384
0.018932
0.0184208
0.0178502
0.0172195
0.0165267
0.015769
0.0149424
0.0140411
0.0130557
0.0119709
0.0107525
0.00930993
0.00734112
0.00361524
0.0209943
0.020799
0.0205445
0.0202314
0.0198589
0.0194263
0.0189325
0.0183773
0.0177598
0.017078
0.0163296
0.0155108
0.0146158
0.0136353
0.0125515
0.0113236
0.00984338
0.00778091
0.0037901
0.0214303
0.0212638
0.021036
0.020747
0.0203964
0.0199832
0.0195066
0.018966
0.0183597
0.0176862
0.0169426
0.0161248
0.0152263
0.014236
0.0131322
0.0118675
0.010322
0.00814351
0.00390397
0.0219315
0.0217956
0.021596
0.0213325
0.0210044
0.020611
0.0201511
0.0196234
0.0190263
0.0183578
0.0176144
0.0167911
0.0158801
0.0148677
0.0137286
0.0124088
0.0107808
0.00847502
0.00400291
0.0225075
0.0224044
0.0222348
0.021998
0.0216934
0.0213198
0.0208757
0.0203598
0.0197698
0.019103
0.0183552
0.0175204
0.016589
0.0155451
0.0143591
0.0129715
0.0112457
0.00879585
0.00412825
0.0231696
0.0231018
0.0229642
0.0227557
0.0224753
0.0221218
0.0216934
0.0211881
0.0206031
0.0199351
0.0191788
0.0183271
0.0173688
0.0162858
0.015045
0.0135817
0.0117508
0.00914508
0.00429065
0.0239314
0.0239019
0.0237985
0.0236201
0.0233653
0.0230325
0.0226197
0.0221241
0.0215425
0.0208706
0.0201021
0.0192287
0.0182381
0.0171102
0.0158096
0.0142673
0.0123335
0.00958553
0.00450846
0.0248094
0.0248215
0.0247552
0.024609
0.0243813
0.0240701
0.023673
0.0231868
0.0226072
0.0219291
0.0211454
0.0202465
0.0192186
0.0180402
0.016675
0.0150543
0.013025
0.0101651
0.00479756
0.0258232
0.0258809
0.0258547
0.0257431
0.0255443
0.025256
0.0248752
0.0243984
0.0238203
0.0231347
0.0223332
0.0214048
0.0203345
0.0190995
0.0176631
0.0159571
0.0138345
0.0108727
0.0051504
0.0269961
0.0271036
0.0271209
0.0270465
0.0268786
0.0266149
0.0262518
0.025785
0.0252083
0.0245142
0.0236928
0.0227315
0.0216136
0.0203151
0.0187982
0.0169948
0.0147572
0.0116501
0.00557512
0.0283557
0.0285173
0.0285815
0.0285471
0.0284126
0.0281753
0.0278316
0.0273759
0.0268013
0.0260985
0.0252558
0.0242587
0.023088
0.0217179
0.0201087
0.0181904
0.0158097
0.0125038
0.0060255
0.029934
0.0301539
0.0302683
0.0302766
0.0301777
0.029969
0.0296465
0.0292039
0.0286329
0.0279223
0.0270581
0.0260229
0.0247947
0.0233443
0.0216288
0.0195738
0.0170161
0.0134556
0.0064845
0.0317682
0.0320499
0.0322171
0.0322703
0.032209
0.032031
0.0317321
0.0313052
0.0307404
0.0300243
0.02914
0.0280663
0.0267768
0.0252376
0.0234003
0.0211834
0.0184098
0.014534
0.00696416
0.0339006
0.0342466
0.034468
0.0345672
0.0345448
0.0343995
0.0341268
0.0337189
0.0331642
0.0324468
0.0315461
0.0304359
0.0290841
0.0274493
0.0254751
0.0230693
0.020037
0.0157822
0.00750685
0.0363792
0.0367898
0.037065
0.0372098
0.0372267
0.0371154
0.0368716
0.0364869
0.0359479
0.0352358
0.0343255
0.0331848
0.0317735
0.0300402
0.0279163
0.0252947
0.0219577
0.0172517
0.00813773
0.0392573
0.0397299
0.0400558
0.0402437
0.0402987
0.040222
0.0400099
0.0396533
0.0391373
0.0384398
0.0375308
0.0363709
0.0349095
0.0330818
0.0308015
0.0279397
0.0242476
0.0190004
0.00884694
0.0425935
0.0431214
0.0434917
0.0437177
0.0438079
0.0437652
0.043587
0.0432641
0.0427799
0.0421095
0.0412176
0.0400567
0.0385639
0.0366568
0.0342248
0.0311069
0.0270099
0.0211175
0.00969029
0.0464516
0.0470234
0.0474276
0.0476836
0.0478036
0.0477931
0.0476506
0.0473669
0.0469248
0.0462967
0.0454428
0.0443074
0.0428139
0.0408586
0.038299
0.0349278
0.0303867
0.02374
0.0107906
0.0509005
0.0514985
0.0519219
0.0521966
0.0523389
0.052357
0.0522505
0.0520114
0.0516221
0.0510538
0.0502634
0.0491883
0.047739
0.0457884
0.0431544
0.0395659
0.0345664
0.0270481
0.0122351
0.0560142
0.0566143
0.0570374
0.0573162
0.0574711
0.0575121
0.0574408
0.0572502
0.0569237
0.056433
0.0557342
0.0547611
0.0534149
0.0515472
0.0489326
0.0452177
0.0397979
0.0312926
0.0141229
0.0618721
0.062443
0.0628423
0.0631082
0.0632635
0.0633202
0.063281
0.0631405
0.0628844
0.0624869
0.0619069
0.0610801
0.0599056
0.0582232
0.0557711
0.0521047
0.0464124
0.0368626
0.0166557
0.0685587
0.0690629
0.069412
0.0696461
0.0697888
0.0698519
0.0698392
0.0697471
0.0695644
0.0692703
0.0688301
0.0681883
0.0672538
0.0658726
0.0637722
0.0604404
0.0548292
0.0443994
0.0202963
0.0761628
0.0765596
0.0768316
0.0770155
0.0771318
0.0771909
0.0771965
0.0771468
0.0770342
0.0768445
0.076553
0.0761193
0.0754748
0.0744973
0.0729519
0.0703422
0.06548
0.0549248
0.0256353
0.0847768
0.0850286
0.0852003
0.0853178
0.0853948
0.0854384
0.0854515
0.0854335
0.0853805
0.0852849
0.0851336
0.0849049
0.0845614
0.0840344
0.0831828
0.0816692
0.0785097
0.0698405
0.034036
0.0944976
0.0945801
0.0946366
0.0946758
0.0947026
0.0947193
0.0947268
0.0947254
0.094714
0.0946908
0.0946529
0.0945951
0.0945097
0.094383
0.0941878
0.0938502
0.0930658
0.0897301
0.047134
)
;

boundaryField
{
    leftWall
    {
        type            kqRWallFunction;
        value           nonuniform List<scalar> 
50
(
0.00033095
0.000707396
0.000996119
0.00123905
0.00144767
0.00163242
0.00180045
0.00195832
0.00218534
0.00245236
0.00269283
0.00295582
0.00339868
0.00350877
0.0031409
0.00301822
0.00306502
0.00315478
0.00325887
0.00337342
0.00349856
0.00362443
0.00373296
0.00382134
0.0038923
0.00394596
0.003983
0.00400406
0.00401003
0.00400107
0.00397841
0.00394402
0.00389952
0.00384641
0.00378599
0.00371882
0.0036429
0.00355668
0.00347348
0.00339187
0.00330887
0.00322339
0.0031317
0.00302706
0.00289879
0.00273399
0.00262609
0.00445583
0.0187647
0.0840701
)
;
    }
    rightWall
    {
        type            kqRWallFunction;
        value           nonuniform List<scalar> 
50
(
0.000859338
0.00131887
0.00156483
0.00170715
0.00176547
0.0017397
0.00163371
0.00153355
0.00139982
0.00144646
0.00179473
0.00236868
0.00332621
0.00344024
0.00300559
0.00286625
0.00292505
0.00277572
0.00250172
0.00222691
0.00200064
0.00214637
0.00251868
0.00292331
0.00329805
0.00361524
0.0037901
0.00390397
0.00400291
0.00412825
0.00429065
0.00450846
0.00479756
0.0051504
0.00557512
0.0060255
0.0064845
0.00696416
0.00750685
0.00813773
0.00884694
0.00969029
0.0107906
0.0122351
0.0141229
0.0166557
0.0202963
0.0256353
0.034036
0.047134
)
;
    }
    lowerWall
    {
        type            kqRWallFunction;
        value           nonuniform List<scalar> 
62
(
0.00033095
0.000793875
0.00114347
0.00141264
0.00163092
0.00181313
0.00196894
0.00210514
0.00222643
0.00233597
0.00243631
0.00252696
0.00260707
0.00267481
0.00272296
0.00272805
0.00261786
0.00236943
0.00209762
0.0019232
0.00171805
0.00131619
0.000479852
0.000479852
0.00120241
0.00170971
0.00218949
0.00272133
0.00334686
0.00424148
0.00610276
0.00753792
0.0063981
0.00607041
0.00642265
0.000410572
0.000992737
0.00148285
0.00196247
0.00248374
0.00314151
0.00410129
0.00572461
0.000410572
0.0013238
0.00181543
0.0020457
0.00213793
0.00215564
0.00214162
0.00213113
0.00215987
0.00216028
0.00195164
0.00169551
0.00143504
0.00164296
0.00200322
0.00194463
0.00165192
0.00120573
0.000859338
)
;
    }
    atmosphere
    {
        type            inletOutlet;
        inletValue      uniform 0.1;
        value           nonuniform List<scalar> 
46
(
0.1
0.0145513
0.00799446
0.0101309
0.0122894
0.0142383
0.0161328
0.0180745
0.0201411
0.0224061
0.0249465
0.0278451
0.0311914
0.0350853
0.0396508
0.0450701
0.051654
0.0599828
0.0712087
0.1
0.1
0.1
0.1
0.1
0.1
0.1
0.1
0.1
0.1
0.1
0.1
0.1
0.1
0.1
0.1
0.1
0.1
0.1
0.1
0.1
0.1
0.1
0.1
0.1
0.1
0.047134
)
;
    }
    defaultFaces
    {
        type            empty;
    }
}


// ************************************************************************* //
