/*--------------------------------*- C++ -*----------------------------------*\
  =========                 |
  \\      /  F ield         | OpenFOAM: The Open Source CFD Toolbox
   \\    /   O peration     | Website:  https://openfoam.org
    \\  /    A nd           | Version:  9
     \\/     M anipulation  |
\*---------------------------------------------------------------------------*/
FoamFile
{
    format      ascii;
    class       volVectorField;
    location    "4.9";
    object      U;
}
// * * * * * * * * * * * * * * * * * * * * * * * * * * * * * * * * * * * * * //

dimensions      [0 1 -1 0 0 0 0];

internalField   nonuniform List<vector> 
2268
(
(0.00112925 -0.000517266 0)
(0.00306651 -0.000393182 0)
(0.00431978 -0.000284836 0)
(0.00539249 -0.000226086 0)
(0.00622316 -0.000169413 0)
(0.00681834 -0.000109734 0)
(0.00722546 -6.47514e-05 0)
(0.00752172 -5.21969e-05 0)
(0.00781738 -7.49457e-05 0)
(0.00821369 -0.00012411 0)
(0.00880346 -0.000213981 0)
(0.00967912 -0.000333888 0)
(0.0109491 -0.000508027 0)
(0.0127701 -0.000768665 0)
(0.0153911 -0.00111508 0)
(0.0187059 -0.00142407 0)
(0.0223769 -0.000687784 0)
(0.0205888 0.00258703 0)
(0.00788642 0.0048323 0)
(-0.00673475 0.00347061 0)
(-0.0126252 8.39625e-05 0)
(-0.00925091 -0.00240653 0)
(-0.00273627 -0.00147823 0)
(0.000958035 -0.0014846 0)
(0.00267205 -0.00113133 0)
(0.00387462 -0.000867371 0)
(0.00490283 -0.000680891 0)
(0.00569252 -0.000515997 0)
(0.00627863 -0.00036502 0)
(0.0067067 -0.000258541 0)
(0.00705368 -0.000225358 0)
(0.00741463 -0.000265105 0)
(0.00785458 -0.000362528 0)
(0.00842517 -0.00052136 0)
(0.00918372 -0.000743864 0)
(0.0101862 -0.00105592 0)
(0.0114822 -0.00148904 0)
(0.0131148 -0.0020093 0)
(0.0148878 -0.00227305 0)
(0.0163164 -0.000601992 0)
(0.0148313 0.00513785 0)
(0.00758217 0.00897354 0)
(-0.00127413 0.00698412 0)
(-0.00586459 0.0013685 0)
(-0.00627032 -0.00317976 0)
(-0.00417114 -0.00419241 0)
(0.000841326 -0.00224855 0)
(0.00241934 -0.00175678 0)
(0.00358029 -0.00137993 0)
(0.00460159 -0.00108737 0)
(0.00540466 -0.000828332 0)
(0.00602287 -0.000598129 0)
(0.00649572 -0.00044203 0)
(0.00689708 -0.000397401 0)
(0.00730836 -0.000457114 0)
(0.00777042 -0.000593458 0)
(0.00830643 -0.000805775 0)
(0.00894408 -0.0010992 0)
(0.00969789 -0.00149057 0)
(0.0105447 -0.00199417 0)
(0.0114153 -0.00253861 0)
(0.0120727 -0.00266141 0)
(0.0122269 -0.000453724 0)
(0.0110086 0.00660351 0)
(0.00766525 0.0113192 0)
(0.00308545 0.00936136 0)
(-0.000625333 0.00275661 0)
(-0.00255846 -0.00304624 0)
(-0.00275478 -0.00615694 0)
(0.000759898 -0.00299703 0)
(0.00222744 -0.00237835 0)
(0.00335782 -0.00190525 0)
(0.0043922 -0.00152057 0)
(0.00523543 -0.00117409 0)
(0.00590717 -0.000868079 0)
(0.00643743 -0.000662279 0)
(0.00689735 -0.000601993 0)
(0.00735802 -0.000670947 0)
(0.00783819 -0.000825218 0)
(0.00833562 -0.00106074 0)
(0.00885435 -0.00138036 0)
(0.0093772 -0.00178629 0)
(0.00983126 -0.00226657 0)
(0.0100805 -0.00271194 0)
(0.00985739 -0.00260455 0)
(0.00907153 -0.0001074 0)
(0.0083957 0.00726348 0)
(0.00781128 0.0122637 0)
(0.00625924 0.0108142 0)
(0.00402414 0.00401101 0)
(0.00167407 -0.00226778 0)
(-0.000137778 -0.00669901 0)
(0.000706818 -0.00367862 0)
(0.00207899 -0.0029698 0)
(0.00319255 -0.00242895 0)
(0.00426002 -0.00197194 0)
(0.00516536 -0.00154683 0)
(0.00590777 -0.00116739 0)
(0.00650581 -0.000911172 0)
(0.00702929 -0.000832819 0)
(0.00754263 -0.000902079 0)
(0.00804255 -0.0010539 0)
(0.00850226 -0.00128233 0)
(0.00890854 -0.00158695 0)
(0.00922451 -0.00195136 0)
(0.00934994 -0.00233286 0)
(0.00912432 -0.00259152 0)
(0.00830263 -0.00220126 0)
(0.00689638 0.000387434 0)
(0.00664348 0.0071869 0)
(0.00786204 0.0121589 0)
(0.00860111 0.0112419 0)
(0.00796726 0.00490008 0)
(0.00559339 -0.000960784 0)
(0.00238829 -0.00551014 0)
(0.000673542 -0.00431978 0)
(0.00197051 -0.00353849 0)
(0.00308684 -0.00295771 0)
(0.00421 -0.00244875 0)
(0.0051986 -0.00195333 0)
(0.00602738 -0.00150042 0)
(0.00670288 -0.00119106 0)
(0.00729575 -0.00109092 0)
(0.00786665 -0.00115053 0)
(0.00838999 -0.00127861 0)
(0.00881572 -0.00147012 0)
(0.00912051 -0.00172327 0)
(0.00926075 -0.00200233 0)
(0.00913013 -0.00223569 0)
(0.00858318 -0.00226941 0)
(0.00746884 -0.00161157 0)
(0.00589266 0.000940501 0)
(0.00579675 0.00669694 0)
(0.00798493 0.0112886 0)
(0.010387 0.0107724 0)
(0.0108543 0.0055062 0)
(0.0085399 0.000725422 0)
(0.00433227 -0.0029243 0)
(0.000640567 -0.00493108 0)
(0.00190221 -0.00409954 0)
(0.00304819 -0.00350542 0)
(0.0042513 -0.00296412 0)
(0.00534287 -0.00240438 0)
(0.00627214 -0.00187459 0)
(0.00703427 -0.00150675 0)
(0.00770237 -0.00138007 0)
(0.00833482 -0.00142003 0)
(0.00888415 -0.00150234 0)
(0.00927975 -0.00162822 0)
(0.00949544 -0.00179945 0)
(0.00949255 -0.00196324 0)
(0.0091759 -0.00202516 0)
(0.00843997 -0.00184017 0)
(0.00724993 -0.000986437 0)
(0.00584226 0.00140971 0)
(0.00588856 0.00609728 0)
(0.0083839 0.00997112 0)
(0.0115326 0.0097786 0)
(0.0126274 0.00591394 0)
(0.0108141 0.00251915 0)
(0.00606901 -0.000443295 0)
(0.000600812 -0.00560081 0)
(0.00187473 -0.00467526 0)
(0.0030853 -0.0040973 0)
(0.00438952 -0.00354186 0)
(0.00559918 -0.00292107 0)
(0.00663994 -0.00230723 0)
(0.00749713 -0.00187234 0)
(0.00824542 -0.00171237 0)
(0.00893985 -0.00172158 0)
(0.00951328 -0.0017313 0)
(0.00987998 -0.00176043 0)
(0.010017 -0.00182251 0)
(0.00989936 -0.00185222 0)
(0.00945529 -0.00173746 0)
(0.00863037 -0.00136555 0)
(0.00749236 -0.000405317 0)
(0.00638057 0.00174406 0)
(0.00664203 0.00546824 0)
(0.00910893 0.00854663 0)
(0.012302 0.0086099 0)
(0.0137422 0.00604924 0)
(0.0125626 0.00418364 0)
(0.00852378 0.00591529 0)
(-0.0123015 0.00302251 0)
(-0.00641988 -0.00329449 0)
(0.0033359 -0.00301437 0)
(0.0103225 -0.00189289 0)
(0.0144837 -0.000884301 0)
(0.016122 -0.000230984 0)
(0.0160645 0.000181633 0)
(0.0154651 9.78043e-05 0)
(0.016462 -0.00109716 0)
(0.0231548 -0.00254105 0)
(0.0285617 -0.000262175 0)
(0.0256448 0.00328604 0)
(0.00101032 0.00879748 0)
(-0.0314517 0.0036211 0)
(-0.01651 -0.00798356 0)
(0.0114063 -0.0086108 0)
(0.0350008 -0.00518256 0)
(0.0423001 0.00222069 0)
(0.0250067 0.00847689 0)
(-0.00204833 0.00518127 0)
(0.000529844 -0.00430779 0)
(0.00511673 -0.00473621 0)
(0.00878471 -0.00329057 0)
(0.0113134 -0.00168843 0)
(0.0124236 -0.000468045 0)
(0.0125234 0.000187439 0)
(0.0124859 -0.000193403 0)
(0.0135103 -0.00229384 0)
(0.0171548 -0.00413909 0)
(0.0190664 0.00039913 0)
(0.015027 0.00806611 0)
(-0.000914659 0.0164804 0)
(-0.0124724 0.00553447 0)
(-0.000120325 -0.0133741 0)
(0.0149937 -0.0156568 0)
(0.0299342 -0.00929757 0)
(0.034621 0.00408261 0)
(0.0309091 0.0201419 0)
(0.00331596 0.0039547 0)
(0.00356611 -0.00525518 0)
(0.00569618 -0.00581656 0)
(0.00752403 -0.00420305 0)
(0.00893309 -0.00224061 0)
(0.00947875 -0.000626813 0)
(0.00935677 0.000192601 0)
(0.00913152 -0.000338024 0)
(0.00936748 -0.00290269 0)
(0.0107562 -0.00488878 0)
(0.0106663 0.00149278 0)
(0.00545119 0.0114701 0)
(-0.00182683 0.0189934 0)
(-0.000679147 0.00371101 0)
(0.00746749 -0.0174389 0)
(0.0158462 -0.0206031 0)
(0.0256826 -0.012622 0)
(0.0269475 0.00451177 0)
(0.0283823 0.0322611 0)
(0.00352962 0.00219267 0)
(0.00438151 -0.00583589 0)
(0.00549065 -0.00637267 0)
(0.00616914 -0.00468218 0)
(0.00674159 -0.00250159 0)
(0.00678564 -0.000611722 0)
(0.00632586 0.00034866 0)
(0.00565706 -0.000207425 0)
(0.00499232 -0.00290288 0)
(0.00423245 -0.00480986 0)
(0.00296531 0.00266376 0)
(-0.000464187 0.013325 0)
(-0.00102252 0.0184499 0)
(0.00559624 0.00124713 0)
(0.0110027 -0.0197842 0)
(0.0151643 -0.0238565 0)
(0.0214735 -0.0145096 0)
(0.0204571 0.00485369 0)
(0.0247529 0.0426245 0)
(0.00250876 0.000682459 0)
(0.0043159 -0.00645034 0)
(0.00479637 -0.00657666 0)
(0.00461507 -0.00480659 0)
(0.00451278 -0.00251234 0)
(0.00410327 -0.000426856 0)
(0.00328336 0.000681124 0)
(0.00217098 0.000213394 0)
(0.000742543 -0.00231734 0)
(-0.00183589 -0.00401202 0)
(-0.00364804 0.00327182 0)
(-0.00396178 0.0134365 0)
(0.000259704 0.0160725 0)
(0.00870024 -0.00139216 0)
(0.0118533 -0.0208757 0)
(0.012801 -0.0257344 0)
(0.0166152 -0.0153059 0)
(0.0134555 0.00486525 0)
(0.0209396 0.0505967 0)
(0.00286597 -0.000440976 0)
(0.00424746 -0.00697903 0)
(0.0038406 -0.00645657 0)
(0.00284971 -0.00462422 0)
(0.00215931 -0.00230353 0)
(0.00136265 -8.17158e-05 0)
(0.000252068 0.00117273 0)
(-0.00117074 0.000865203 0)
(-0.00311755 -0.00132541 0)
(-0.00659742 -0.00272628 0)
(-0.00871947 0.00333733 0)
(-0.00670952 0.0120077 0)
(0.000885998 0.0125842 0)
(0.00933197 -0.00367761 0)
(0.0102722 -0.0209119 0)
(0.00843084 -0.0264449 0)
(0.0105853 -0.0152957 0)
(0.00541417 0.00452698 0)
(0.0158866 0.0562336 0)
(0.0059011 -0.00169685 0)
(0.00443423 -0.00696067 0)
(0.0027236 -0.00591271 0)
(0.000887203 -0.00414872 0)
(-0.000355645 -0.00190424 0)
(-0.00146061 0.00038913 0)
(-0.00272406 0.00176726 0)
(-0.00426785 0.00163846 0)
(-0.00641632 -0.000180674 0)
(-0.00987965 -0.00133465 0)
(-0.0118202 0.00313464 0)
(-0.00850417 0.00959236 0)
(0.00035186 0.00878527 0)
(0.00758304 -0.00525703 0)
(0.00664371 -0.0200878 0)
(0.00232923 -0.0260785 0)
(0.00286808 -0.0145233 0)
(-0.0048596 0.00369473 0)
(0.00630745 0.0594827 0)
(0.0104939 -0.00643006 0)
(0.00432902 -0.00592972 0)
(0.00144191 -0.00478426 0)
(-0.00124657 -0.003322 0)
(-0.00304799 -0.00130719 0)
(-0.00439288 0.000936557 0)
(-0.00563474 0.00236749 0)
(-0.00706611 0.002416 0)
(-0.0091045 0.000933082 0)
(-0.0120582 -0.000172608 0)
(-0.0133678 0.00273122 0)
(-0.00963111 0.00690032 0)
(-0.00137605 0.00534289 0)
(0.00417544 -0.0061416 0)
(0.00182751 -0.0184859 0)
(-0.00466985 -0.0244744 0)
(-0.00675459 -0.0130129 0)
(-0.0162695 0.004764 0)
(-0.00796735 0.0574409 0)
(0.000618659 -0.00618933 0)
(0.00194822 -0.00561225 0)
(0.00326697 -0.00513814 0)
(0.00474517 -0.00458625 0)
(0.00614763 -0.00387396 0)
(0.00737263 -0.00311554 0)
(0.00839298 -0.00255802 0)
(0.00927411 -0.00232834 0)
(0.010056 -0.00226523 0)
(0.0106505 -0.00210423 0)
(0.0109654 -0.0019256 0)
(0.0109879 -0.00177585 0)
(0.0107211 -0.00157899 0)
(0.0101459 -0.0011931 0)
(0.00929255 -0.000583698 0)
(0.00834664 0.000413287 0)
(0.00771315 0.00205083 0)
(0.00827304 0.00443059 0)
(0.0104875 0.00637933 0)
(0.0133452 0.00670076 0)
(0.0151931 0.00570729 0)
(0.0155878 0.00539011 0)
(0.016331 0.00716389 0)
(0.000318026 -0.00811205 0)
(0.00214081 -0.00684656 0)
(0.00375387 -0.00630565 0)
(0.00545822 -0.00572204 0)
(0.00705011 -0.00493467 0)
(0.0085237 -0.00404992 0)
(0.0098471 -0.003338 0)
(0.0109566 -0.00296498 0)
(0.0117772 -0.00270715 0)
(0.0122738 -0.00231751 0)
(0.0124587 -0.00192458 0)
(0.0123164 -0.00157812 0)
(0.0118661 -0.00120148 0)
(0.0112276 -0.000665021 0)
(0.010526 -4.70432e-05 0)
(0.00990622 0.000654524 0)
(0.00969342 0.00152486 0)
(0.0104193 0.00258852 0)
(0.012277 0.00345465 0)
(0.0146101 0.00372199 0)
(0.0163657 0.00350598 0)
(0.0172035 0.00331638 0)
(0.0179685 0.00309476 0)
(0.00144359 -0.00645524 0)
(0.00373434 -0.00714502 0)
(0.00498943 -0.00710886 0)
(0.00613914 -0.00677729 0)
(0.00714598 -0.00599543 0)
(0.00883629 -0.00495418 0)
(0.0111159 -0.00411283 0)
(0.0129973 -0.00367099 0)
(0.0141241 -0.00318911 0)
(0.0147066 -0.0025474 0)
(0.0149507 -0.00191292 0)
(0.0148291 -0.00131224 0)
(0.0143465 -0.00068437 0)
(0.013704 1.43527e-05 0)
(0.0131806 0.000663666 0)
(0.0129465 0.00111563 0)
(0.0130124 0.00153865 0)
(0.0135852 0.00191806 0)
(0.0149951 0.00233344 0)
(0.016912 0.00274508 0)
(0.0184523 0.00326706 0)
(0.0190279 0.00394514 0)
(0.0183864 0.00483959 0)
(0.00655051 -0.0152017 0)
(0.00476979 -0.00973559 0)
(0.00504624 -0.00918505 0)
(0.00406098 -0.00817669 0)
(0.00129534 -0.006967 0)
(0.00272406 -0.00672562 0)
(0.0084212 -0.00587318 0)
(0.011878 -0.00461294 0)
(0.0129898 -0.00367553 0)
(0.0138104 -0.00281794 0)
(0.0143311 -0.00182079 0)
(0.0143914 -0.000960805 0)
(0.0142843 -5.46002e-05 0)
(0.0140831 0.000534579 0)
(0.0143724 0.00116899 0)
(0.0162045 0.000933917 0)
(0.0177275 0.00181793 0)
(0.0170298 0.00195324 0)
(0.0161323 0.00175415 0)
(0.0165095 0.00197107 0)
(0.0176875 0.00302693 0)
(0.018959 0.00407889 0)
(0.0153943 0.0067281 0)
(-0.00802015 -0.0209202 0)
(-0.00544548 -0.00928504 0)
(-0.012439 -0.00814831 0)
(-0.0309405 -0.00121496 0)
(-0.0454493 -0.00299103 0)
(-0.0358575 -0.0206323 0)
(-0.0230466 -0.020009 0)
(-0.0125048 -0.0120517 0)
(-0.00497918 -0.0080824 0)
(0.000995133 -0.00610049 0)
(0.00686661 -0.00352492 0)
(0.0126892 -0.00183243 0)
(0.0176434 -0.000222644 0)
(0.0210614 0.000177538 0)
(0.0232187 -0.00134231 0)
(0.023677 -0.00399503 0)
(0.0246421 0.000142384 0)
(0.0254611 0.00362516 0)
(0.023097 0.00147584 0)
(0.0185619 -0.000594871 0)
(0.0135605 -0.000752468 0)
(0.00939312 0.00407736 0)
(-0.00238813 0.0262892 0)
(-0.0148101 -0.00116019 0)
(-0.0106938 -0.00576059 0)
(-0.00965773 0.0090813 0)
(-0.012161 0.0194367 0)
(-0.00449875 0.00182065 0)
(0.000104927 -0.0262861 0)
(-0.00611962 -0.0243692 0)
(-0.00873459 -0.0167796 0)
(-0.00684618 -0.0133035 0)
(-0.00313094 -0.0121476 0)
(0.00164279 -0.0107439 0)
(0.00702626 -0.00959982 0)
(0.0118959 -0.00654242 0)
(0.0147175 -0.00304414 0)
(0.0130817 -0.000555211 0)
(0.00139978 0.00153155 0)
(-0.00761217 -0.000700672 0)
(-0.00542736 0.00335864 0)
(-0.00186667 0.00542605 0)
(-0.00180114 0.0101969 0)
(-0.00942881 0.0116999 0)
(-0.0220484 0.0158931 0)
(-0.0233846 0.028218 0)
(-0.00332168 0.00862796 0)
(-0.0052455 -0.0130643 0)
(-0.00275909 0.00152758 0)
(0.00574356 0.00658485 0)
(0.0160906 -0.0136166 0)
(0.0159569 -0.0234653 0)
(0.00481257 -0.0158366 0)
(-0.0030961 -0.0141155 0)
(-0.00668345 -0.0144383 0)
(-0.00879199 -0.0151864 0)
(-0.0093723 -0.0146871 0)
(-0.00966329 -0.0134945 0)
(-0.0106941 -0.00896252 0)
(-0.0127419 -0.00222143 0)
(-0.0163393 0.00709449 0)
(-0.0208361 0.0155849 0)
(-0.0254017 0.00445975 0)
(-0.0290093 0.000917587 0)
(-0.0292882 0.00261569 0)
(-0.0297926 0.0110639 0)
(-0.0315254 0.0189925 0)
(-0.0305172 0.0198269 0)
(-0.0157082 0.0133545 0)
(0.00840763 0.00514987 0)
(0.00371821 -0.0107061 0)
(0.000990299 -0.00336286 0)
(0.00662178 -0.00272288 0)
(0.00765791 -0.0144262 0)
(0.000436722 -0.0141323 0)
(-0.00517366 -0.00642531 0)
(-0.008055 -0.00745839 0)
(-0.011562 -0.00947185 0)
(-0.0152652 -0.0116605 0)
(-0.0188471 -0.0120494 0)
(-0.0223147 -0.0103083 0)
(-0.0256271 -0.00547725 0)
(-0.0286114 0.00186073 0)
(-0.0307107 0.0100632 0)
(-0.0314077 0.0148471 0)
(-0.03306 0.0103156 0)
(-0.0353977 0.00343088 0)
(-0.035653 0.00354486 0)
(-0.0336273 0.00890596 0)
(-0.0285321 0.0144283 0)
(-0.0195795 0.00846885 0)
(-0.00876012 -0.00171637 0)
(0.00560312 -0.00224462 0)
(0.00473849 -0.0051625 0)
(0.00289999 -0.00261134 0)
(0.00428895 -0.00346196 0)
(0.00216859 -0.00777472 0)
(-0.00357157 -0.00768865 0)
(-0.00774888 -0.00469945 0)
(-0.0103896 -0.00457168 0)
(-0.0135665 -0.00569043 0)
(-0.0173031 -0.00710382 0)
(-0.0214185 -0.00731925 0)
(-0.0255185 -0.00577436 0)
(-0.0291025 -0.00190915 0)
(-0.0315803 0.00390102 0)
(-0.0322017 0.0100691 0)
(-0.0307082 0.0132428 0)
(-0.0290242 0.0108972 0)
(-0.0293017 0.00470642 0)
(-0.029908 0.00226041 0)
(-0.0275287 0.00438806 0)
(-0.0210084 0.00562238 0)
(-0.0135619 1.99206e-05 0)
(-0.00998647 -0.00597081 0)
(0.002484 -0.00621472 0)
(0.00295148 -0.00511511 0)
(0.00225768 -0.00259506 0)
(0.00201066 -0.00232657 0)
(-0.000401515 -0.00368689 0)
(-0.00455017 -0.00336874 0)
(-0.0079773 -0.00187243 0)
(-0.0106234 -0.00168597 0)
(-0.0135218 -0.00239252 0)
(-0.0168511 -0.00325788 0)
(-0.0205212 -0.00327715 0)
(-0.0241916 -0.0020054 0)
(-0.0273069 0.000902771 0)
(-0.0291311 0.00509276 0)
(-0.0290056 0.0091295 0)
(-0.0270288 0.0108425 0)
(-0.024652 0.00900426 0)
(-0.0234291 0.00475422 0)
(-0.0229029 0.00144923 0)
(-0.0210459 0.000566722 0)
(-0.0171659 -0.000488439 0)
(-0.0137345 -0.00361689 0)
(-0.0135593 -0.00543199 0)
(0.00119959 -0.00806848 0)
(0.00117607 -0.00474381 0)
(0.000545804 -0.00209332 0)
(-0.000265833 -0.000931524 0)
(-0.00230313 -0.000722434 0)
(-0.0052376 -9.30939e-05 0)
(-0.00794897 0.000819183 0)
(-0.0103259 0.000973567 0)
(-0.0128087 0.000483591 0)
(-0.0155672 -4.98103e-05 0)
(-0.0185623 4.76789e-05 0)
(-0.0215203 0.00107009 0)
(-0.0239422 0.00308324 0)
(-0.0251758 0.00572984 0)
(-0.0248227 0.00799459 0)
(-0.0231354 0.00860678 0)
(-0.0211086 0.00693454 0)
(-0.0197514 0.00366676 0)
(-0.0189487 0.000400929 0)
(-0.017728 -0.00163442 0)
(-0.0158681 -0.00306338 0)
(-0.0146783 -0.00440288 0)
(-0.0153565 -0.00420596 0)
(0.000247728 -0.00860697 0)
(-0.000388857 -0.00417814 0)
(-0.00128128 -0.00127177 0)
(-0.00236246 0.000467451 0)
(-0.00404496 0.00146528 0)
(-0.00615855 0.00233424 0)
(-0.0082322 0.00305277 0)
(-0.010182 0.00319966 0)
(-0.0122048 0.0028456 0)
(-0.0144307 0.00254049 0)
(-0.016798 0.00267672 0)
(-0.0190284 0.00340998 0)
(-0.0207201 0.00462158 0)
(-0.0214786 0.00603881 0)
(-0.0211197 0.00704812 0)
(-0.0198744 0.00693138 0)
(-0.0183878 0.00535734 0)
(-0.0173055 0.00267713 0)
(-0.0166989 -0.00036913 0)
(-0.0161827 -0.00258826 0)
(-0.0156577 -0.00384502 0)
(-0.0156462 -0.00417797 0)
(-0.0165482 -0.00312143 0)
(-0.000585217 -0.00796206 0)
(-0.00173288 -0.00316162 0)
(-0.00293918 -0.000153638 0)
(-0.00420504 0.00183443 0)
(-0.00567423 0.00317054 0)
(-0.0072905 0.00415033 0)
(-0.00887478 0.00479796 0)
(-0.01041 0.00495965 0)
(-0.0120341 0.00474352 0)
(-0.0137961 0.00457318 0)
(-0.0155756 0.00465823 0)
(-0.0171409 0.00504064 0)
(-0.0182415 0.00560197 0)
(-0.0186727 0.00615976 0)
(-0.0183598 0.00634585 0)
(-0.0174829 0.00576711 0)
(-0.0164504 0.00425723 0)
(-0.015688 0.00199697 0)
(-0.0154156 -0.000642789 0)
(-0.0155087 -0.00268054 0)
(-0.0158049 -0.00367902 0)
(-0.0164374 -0.0034937 0)
(-0.0173736 -0.00217415 0)
(-0.0012158 -0.00637646 0)
(-0.00283253 -0.00169694 0)
(-0.00434471 0.00122138 0)
(-0.00576723 0.00321607 0)
(-0.00715277 0.00460925 0)
(-0.00850068 0.00557903 0)
(-0.00977048 0.00616752 0)
(-0.0109967 0.00634606 0)
(-0.0122724 0.00623939 0)
(-0.0135983 0.00609826 0)
(-0.0148572 0.00605366 0)
(-0.0158975 0.00610732 0)
(-0.0165791 0.00618984 0)
(-0.0167966 0.00617094 0)
(-0.0165358 0.00583664 0)
(-0.0159335 0.00498015 0)
(-0.0152536 0.00353072 0)
(-0.014787 0.00161213 0)
(-0.0147729 -0.000505763 0)
(-0.01522 -0.00221527 0)
(-0.015959 -0.00297522 0)
(-0.0168623 -0.00258702 0)
(-0.0177082 -0.00140513 0)
(-0.00166367 -0.00408122 0)
(-0.00368502 0.000170347 0)
(-0.00547646 0.00283611 0)
(-0.00704535 0.00465736 0)
(-0.00842517 0.00593319 0)
(-0.00964714 0.00679472 0)
(-0.010735 0.00729143 0)
(-0.0117401 0.00744871 0)
(-0.0127206 0.00736602 0)
(-0.0136728 0.00718244 0)
(-0.0145256 0.00698353 0)
(-0.0151879 0.00677618 0)
(-0.0155823 0.00651666 0)
(-0.0156636 0.00612108 0)
(-0.015449 0.00547166 0)
(-0.0150458 0.00446889 0)
(-0.0146339 0.00309959 0)
(-0.0144132 0.00147286 0)
(-0.0145509 -0.000182458 0)
(-0.015105 -0.00150212 0)
(-0.0159547 -0.00206109 0)
(-0.0168384 -0.00171429 0)
(-0.017532 -0.000800326 0)
(-0.00197538 -0.00126405 0)
(-0.00431169 0.00238278 0)
(-0.00633428 0.00465436 0)
(-0.00803192 0.00617882 0)
(-0.00944174 0.00722591 0)
(-0.0106122 0.00790297 0)
(-0.0115938 0.00825938 0)
(-0.0124408 0.00833363 0)
(-0.0131987 0.00819454 0)
(-0.0138736 0.00792531 0)
(-0.0144325 0.00758056 0)
(-0.0148296 0.00717058 0)
(-0.01503 0.00667178 0)
(-0.0150238 0.00603743 0)
(-0.0148426 0.00520979 0)
(-0.0145717 0.00415144 0)
(-0.0143368 0.00288269 0)
(-0.0142732 0.0015031 0)
(-0.0144893 0.000192475 0)
(-0.0150133 -0.000798258 0)
(-0.0157404 -0.00121701 0)
(-0.0164639 -0.000995902 0)
(-0.0170064 -0.000329628 0)
(-0.00218137 0.00191515 0)
(-0.00473908 0.00485567 0)
(-0.0069318 0.00663475 0)
(-0.0087294 0.00777803 0)
(-0.0101753 0.00852252 0)
(-0.0113261 0.00895689 0)
(-0.0122427 0.00912462 0)
(-0.0129802 0.0090607 0)
(-0.0135811 0.00881166 0)
(-0.0140628 0.00842872 0)
(-0.0144193 0.0079473 0)
(-0.0146369 0.00737849 0)
(-0.0147084 0.00671347 0)
(-0.0146442 0.00593178 0)
(-0.0144812 0.00501233 0)
(-0.0142865 0.00395254 0)
(-0.0141484 0.00278904 0)
(-0.0141551 0.0016091 0)
(-0.0143693 0.000548374 0)
(-0.0147939 -0.000225231 0)
(-0.0153446 -0.000567671 0)
(-0.0158746 -0.000451151 0)
(-0.0162549 7.35415e-06 0)
(-0.002314 0.00532962 0)
(-0.00500301 0.00749831 0)
(-0.00729725 0.00872549 0)
(-0.00915487 0.00943464 0)
(-0.010623 0.00982859 0)
(-0.0117604 0.00997894 0)
(-0.0126321 0.00992012 0)
(-0.013293 0.0096787 0)
(-0.0137861 0.00928513 0)
(-0.0141378 0.00877106 0)
(-0.01436 0.00815995 0)
(-0.0144595 0.00746268 0)
(-0.0144466 0.00667991 0)
(-0.0143424 0.00580792 0)
(-0.0141838 0.00484669 0)
(-0.0140234 0.00381148 0)
(-0.0139226 0.00274393 0)
(-0.0139371 0.00171683 0)
(-0.0140995 0.000829412 0)
(-0.0143993 0.000190937 0)
(-0.0147715 -0.000116373 0)
(-0.0151146 -8.4806e-05 0)
(-0.015338 0.000207764 0)
(-0.00238889 0.00888003 0)
(-0.00512918 0.0102275 0)
(-0.00746015 0.0108698 0)
(-0.00933273 0.0111159 0)
(-0.0107973 0.0111321 0)
(-0.0119135 0.0109735 0)
(-0.0127462 0.0106639 0)
(-0.0133501 0.0102206 0)
(-0.0137686 0.00966209 0)
(-0.014034 0.00900744 0)
(-0.0141691 0.00827223 0)
(-0.0141927 0.00746647 0)
(-0.0141251 0.00659607 0)
(-0.0139923 0.00566671 0)
(-0.0138284 0.00468926 0)
(-0.0136744 0.00368641 0)
(-0.0135729 0.00269815 0)
(-0.0135582 0.00178274 0)
(-0.013645 0.00101118 0)
(-0.0138181 0.000453628 0)
(-0.0140281 0.000156307 0)
(-0.0142053 0.000116513 0)
(-0.0142867 0.000278602 0)
(-0.0024015 0.012477 0)
(-0.00513008 0.0129726 0)
(-0.00744276 0.0130128 0)
(-0.00928573 0.0127837 0)
(-0.0107174 0.0124123 0)
(-0.0117974 0.0119345 0)
(-0.0125894 0.0113631 0)
(-0.0131461 0.0107062 0)
(-0.0135107 0.00997323 0)
(-0.0137184 0.00917461 0)
(-0.0137975 0.00832033 0)
(-0.0137734 0.00741891 0)
(-0.0136708 0.00647841 0)
(-0.013517 0.00550886 0)
(-0.0133424 0.0045255 0)
(-0.013179 0.00355239 0)
(-0.0130562 0.00262455 0)
(-0.0129949 0.00178709 0)
(-0.0130003 0.00108989 0)
(-0.0130567 0.000577519 0)
(-0.0131272 0.000274872 0)
(-0.0131634 0.000173952 0)
(-0.0131219 0.000232939 0)
(-0.00236277 0.0160411 0)
(-0.00501955 0.0156741 0)
(-0.00726018 0.0151025 0)
(-0.00903145 0.0144011 0)
(-0.0104025 0.0136463 0)
(-0.0114308 0.0128518 0)
(-0.0121767 0.0120184 0)
(-0.0126901 0.0111464 0)
(-0.013013 0.0102376 0)
(-0.0131809 0.00929622 0)
(-0.0132244 0.00832794 0)
(-0.0131709 0.00733925 0)
(-0.0130467 0.00633827 0)
(-0.0128781 0.00533605 0)
(-0.0126913 0.00434837 0)
(-0.0125115 0.00339731 0)
(-0.0123593 0.00251173 0)
(-0.0122475 0.0017255 0)
(-0.0121763 0.00107305 0)
(-0.0121318 0.000582079 0)
(-0.0120867 0.000264761 0)
(-0.0120072 0.000110541 0)
(-0.011863 8.66445e-05 0)
(-0.0022506 0.0194889 0)
(-0.00478573 0.0182781 0)
(-0.0069138 0.0170953 0)
(-0.00858297 0.0159379 0)
(-0.00987217 0.0148145 0)
(-0.0108353 0.0137147 0)
(-0.0115291 0.0126278 0)
(-0.0120003 0.0115464 0)
(-0.0122884 0.0104665 0)
(-0.0124279 0.00938723 0)
(-0.0124487 0.00831045 0)
(-0.0123784 0.00724043 0)
(-0.0122422 0.00618401 0)
(-0.0120643 0.0051513 0)
(-0.011867 0.00415641 0)
(-0.0116702 0.00321796 0)
(-0.0114888 0.00235852 0)
(-0.0113304 0.00160278 0)
(-0.0111935 0.000973859 0)
(-0.0110664 0.000488283 0)
(-0.010929 0.000150455 0)
(-0.0107573 -5.12511e-05 0)
(-0.0105302 -0.000143488 0)
(-0.00208035 0.0227285 0)
(-0.00443438 0.0207293 0)
(-0.00641344 0.0189613 0)
(-0.00795891 0.0173724 0)
(-0.00914893 0.0159014 0)
(-0.0100354 0.0145141 0)
(-0.0106715 0.0131883 0)
(-0.0111002 0.0119091 0)
(-0.0113578 0.0106671 0)
(-0.0114761 0.00945728 0)
(-0.0114833 0.00827822 0)
(-0.0114049 0.00713168 0)
(-0.0112643 0.00602253 0)
(-0.0110827 0.00495885 0)
(-0.010879 0.00395209 0)
(-0.0106689 0.00301684 0)
(-0.0104633 0.00216996 0)
(-0.0102671 0.00142874 0)
(-0.010078 0.000808053 0)
(-0.00988684 0.000316851 0)
(-0.00967868 -4.52904e-05 0)
(-0.00943655 -0.000290346 0)
(-0.00914557 -0.000440687 0)
(-0.00188441 0.0256899 0)
(-0.00400398 0.0229724 0)
(-0.00579276 0.0206723 0)
(-0.00718774 0.0186839 0)
(-0.00826003 0.0168927 0)
(-0.00905875 0.0152418 0)
(-0.00963178 0.0136967 0)
(-0.0100172 0.0122355 0)
(-0.0102471 0.0108439 0)
(-0.0103494 0.00951308 0)
(-0.0103495 0.00823876 0)
(-0.01027 0.00702024 0)
(-0.0101315 0.00586011 0)
(-0.00995223 0.00476403 0)
(-0.0097478 0.00374044 0)
(-0.0095306 0.0028 0)
(-0.00930882 0.00195459 0)
(-0.00908568 0.00121565 0)
(-0.008859 0.000592004 0)
(-0.00862157 8.73922e-05 0)
(-0.00836248 -0.000301709 0)
(-0.00806953 -0.000587283 0)
(-0.00773215 -0.000788635 0)
(-0.00166766 0.0283335 0)
(-0.00352044 0.0249651 0)
(-0.00508312 0.0221938 0)
(-0.00629781 0.0198482 0)
(-0.00723308 0.0177735 0)
(-0.0079336 0.0158897 0)
(-0.00843921 0.0141504 0)
(-0.00878107 0.0125267 0)
(-0.00898557 0.0110005 0)
(-0.00907632 0.00955986 0)
(-0.00907474 0.00819815 0)
(-0.00900016 0.00691239 0)
(-0.0088699 0.00570296 0)
(-0.00869913 0.00457303 0)
(-0.00850054 0.00352815 0)
(-0.00828384 0.00257545 0)
(-0.00805523 0.00172265 0)
(-0.00781688 0.000976629 0)
(-0.00756695 0.000341725 0)
(-0.00729994 -0.000181963 0)
(-0.00700779 -0.000600013 0)
(-0.00668168 -0.000924275 0)
(-0.00631404 -0.00117184 0)
(-0.00143866 0.0306311 0)
(-0.00299988 0.0266771 0)
(-0.00430497 0.0234918 0)
(-0.00531181 0.0208409 0)
(-0.00609321 0.0185299 0)
(-0.0066879 0.0164516 0)
(-0.00712381 0.0145475 0)
(-0.0074228 0.012784 0)
(-0.00760466 0.0111401 0)
(-0.00768789 0.0096023 0)
(-0.00768963 0.00816187 0)
(-0.00762552 0.00681408 0)
(-0.00750951 0.00555732 0)
(-0.00735371 0.00439256 0)
(-0.00716808 0.00332279 0)
(-0.0069601 0.00235214 0)
(-0.00673441 0.00148501 0)
(-0.00649254 0.000724727 0)
(-0.00623296 7.23386e-05 0)
(-0.00595155 -0.000474667 0)
(-0.00564236 -0.000923264 0)
(-0.00529895 -0.00128515 0)
(-0.0049158 -0.0015758 0)
(-0.0012064 0.0325619 0)
(-0.00245483 0.0280819 0)
(-0.0034736 0.0245336 0)
(-0.00424797 0.0216393 0)
(-0.00486346 0.0191522 0)
(-0.00534951 0.0169245 0)
(-0.00571638 0.0148885 0)
(-0.00597467 0.0130096 0)
(-0.00613711 0.0112665 0)
(-0.00621692 0.00964492 0)
(-0.00622684 0.00813515 0)
(-0.00617864 0.00673107 0)
(-0.00608283 0.00542949 0)
(-0.00594851 0.00422957 0)
(-0.00578311 0.00313222 0)
(-0.00559214 0.00213922 0)
(-0.00537897 0.00125235 0)
(-0.00514464 0.000472326 0)
(-0.00488796 -0.000202268 0)
(-0.00460583 -0.000775823 0)
(-0.00429387 -0.0012563 0)
(-0.00394731 -0.00165529 0)
(-0.00356209 -0.00198706 0)
(-0.000973373 0.0341174 0)
(-0.00188592 0.0291587 0)
(-0.00259557 0.025289 0)
(-0.00312103 0.0222255 0)
(-0.00356756 0.0196374 0)
(-0.00394817 0.0173098 0)
(-0.00424919 0.0151758 0)
(-0.00446978 0.0132066 0)
(-0.00461626 0.0113833 0)
(-0.00469685 0.00969223 0)
(-0.00471982 0.00812314 0)
(-0.00469295 0.00666908 0)
(-0.00462329 0.00532574 0)
(-0.00451695 0.00409101 0)
(-0.00437894 0.00296424 0)
(-0.00421301 0.00194554 0)
(-0.00402142 0.00103479 0)
(-0.00380484 0.000230801 0)
(-0.00356235 -0.000469587 0)
(-0.00329167 -0.00107216 0)
(-0.00298956 -0.00158563 0)
(-0.00265247 -0.00202152 0)
(-0.00227732 -0.00239327 0)
(-0.000673874 0.0352709 0)
(-0.00122585 0.0298937 0)
(-0.00164764 0.0257618 0)
(-0.00195169 0.0226035 0)
(-0.00224071 0.0199882 0)
(-0.00251833 0.0176106 0)
(-0.00275566 0.0154121 0)
(-0.00294097 0.0133781 0)
(-0.00307492 0.0114944 0)
(-0.00316064 0.00974878 0)
(-0.00320174 0.00813102 0)
(-0.00320182 0.00663383 0)
(-0.00316432 0.00525233 0)
(-0.00309238 0.00398367 0)
(-0.0029887 0.00282636 0)
(-0.00285537 0.00177944 0)
(-0.00269369 0.000841624 0)
(-0.00250399 1.04328e-05 0)
(-0.00228565 -0.000718503 0)
(-0.00203708 -0.00135198 0)
(-0.0017559 -0.0018993 0)
(-0.00143943 -0.00237206 0)
(-0.00108523 -0.00278315 0)
(-0.00021669 0.0359272 0)
(-0.000411726 0.0302886 0)
(-0.000608516 0.0260055 0)
(-0.000749733 0.0228135 0)
(-0.0009112 0.0202139 0)
(-0.00109083 0.017829 0)
(-0.00126507 0.0155987 0)
(-0.00141759 0.0135266 0)
(-0.00154325 0.0116038 0)
(-0.00163942 0.0098195 0)
(-0.0017045 0.00816435 0)
(-0.00173762 0.00663127 0)
(-0.00173853 0.00521551 0)
(-0.00170738 0.00391419 0)
(-0.00164465 0.00272564 0)
(-0.00155088 0.00164856 0)
(-0.00142653 0.000681145 0)
(-0.00127174 -0.000179772 0)
(-0.00108617 -0.000939351 0)
(-0.000868833 -0.0016051 0)
(-0.000618119 -0.00218689 0)
(-0.000331983 -0.00269651 0)
(-8.36028e-06 -0.00314658 0)
(0.000349615 0.0358622 0)
(0.00050798 0.0303828 0)
(0.000502862 0.0260763 0)
(0.000486461 0.0229067 0)
(0.000419734 0.0203364 0)
(0.000322524 0.0179695 0)
(0.000204842 0.0157392 0)
(7.79607e-05 0.0136571 0)
(-4.7186e-05 0.0117173 0)
(-0.00016153 0.00991078 0)
(-0.000257967 0.00822963 0)
(-0.000331112 0.00666788 0)
(-0.000377036 0.00522172 0)
(-0.000393057 0.00388902 0)
(-0.00037753 0.00266868 0)
(-0.000329631 0.00155977 0)
(-0.000249113 0.000560589 0)
(-0.000136014 -0.000332142 0)
(9.63217e-06 -0.00112395 0)
(0.000188121 -0.00182289 0)
(0.000400369 -0.00243944 0)
(0.000647917 -0.0029858 0)
(0.000932658 -0.00347465 0)
(0.000901726 0.0350576 0)
(0.00144938 0.0301536 0)
(0.00165158 0.0259948 0)
(0.00174488 0.0229107 0)
(0.00175824 0.0203783 0)
(0.00172532 0.0180457 0)
(0.00164581 0.0158456 0)
(0.0015287 0.0137805 0)
(0.0013908 0.0118448 0)
(0.00124723 0.0100315 0)
(0.00111014 0.00833484 0)
(0.000989032 0.00675088 0)
(0.000891129 0.00527761 0)
(0.000821655 0.00391444 0)
(0.000784123 0.00266156 0)
(0.000780561 0.00151908 0)
(0.000811781 0.000486078 0)
(0.000877696 -0.000440315 0)
(0.000977735 -0.00126561 0)
(0.00111137 -0.00199827 0)
(0.00127874 -0.00264952 0)
(0.00148094 -0.00323231 0)
(0.00171991 -0.00375972 0)
(0.00135218 0.0335855 0)
(0.00232278 0.0295471 0)
(0.00278421 0.0257413 0)
(0.00301633 0.0228177 0)
(0.00311093 0.0203522 0)
(0.00311825 0.018082 0)
(0.00304782 0.01594 0)
(0.00291716 0.013915 0)
(0.00274872 0.0120009 0)
(0.00256232 0.0101932 0)
(0.00237403 0.00848929 0)
(0.00219656 0.00688803 0)
(0.00203974 0.00538987 0)
(0.00191085 0.0039964 0)
(0.00181496 0.00270973 0)
(0.00175513 0.00153163 0)
(0.00173261 0.000462554 0)
(0.00174716 -0.000499377 0)
(0.00179746 -0.00135925 0)
(0.00188191 -0.00212582 0)
(0.00199963 -0.00281131 0)
(0.00215131 -0.00342993 0)
(0.0023391 -0.00399562 0)
(0.00173514 0.0315237 0)
(0.00313997 0.0285478 0)
(0.00389708 0.0252651 0)
(0.00429891 0.0226033 0)
(0.00446571 0.0202744 0)
(0.00448172 0.0181094 0)
(0.00438936 0.0160504 0)
(0.00422039 0.0140826 0)
(0.00400276 0.0122022 0)
(0.00375974 0.0104085 0)
(0.00351 0.00870266 0)
(0.00326837 0.00708695 0)
(0.0030464 0.00556477 0)
(0.00285286 0.00414027 0)
(0.00269406 0.00281789 0)