/*--------------------------------*- C++ -*----------------------------------*\
  =========                 |
  \\      /  F ield         | OpenFOAM: The Open Source CFD Toolbox
   \\    /   O peration     | Website:  https://openfoam.org
    \\  /    A nd           | Version:  9
     \\/     M anipulation  |
\*---------------------------------------------------------------------------*/
FoamFile
{
    format      ascii;
    class       surfaceScalarField;
    location    "21";
    object      phi;
}
// * * * * * * * * * * * * * * * * * * * * * * * * * * * * * * * * * * * * * //

dimensions      [0 3 -1 0 0 0 0];

internalField   nonuniform List<scalar> 
1300
(
11.2529
1.87548
-4.19994
11.2529
-4.97575
1.87548
-4.23168
4.23168
-1.18809
1.18809
5.7123
5.54056
-2.3703
2.3703
-2.8167
2.8167
-2.86041
2.86041
-1.06194
1.06194
-1.02826
1.02826
0.693304
-0.693304
-3.4085
3.4085
-1.45666
1.45666
-2.89881
2.89881
6.1281
-6.1281
-3.25796
3.25796
-0.744144
0.744144
-4.26321
15.5161
6.98965
6.98965
-2.37151
2.37151
-1.25398
1.25398
1.41034
-1.41034
9.10476
-9.10476
-4.90482
-5.91989
1.90115
-13.9907
-3.0746
-3.0746
-2.7054
2.7054
-0.829928
1.04555
3.47675
-3.47675
-0.758199
0.758199
-4.31825
0.0865622
-4.31825
4.01464
0.217048
4.01464
-1.32939
0.141303
-1.32939
4.67317
-4.67317
1.07637
0.11172
1.07637
3.92808
-3.92808
-5.71006
11.4224
5.5428
-5.32064
20.8367
-5.93222
11.4728
-3.91554
3.91554
-2.28685
-0.083446
-2.28685
2.37154
-0.00124237
2.37154
-4.00916
4.00916
-2.60519
-0.211511
-2.60519
2.91876
-0.102059
2.91876
3.66616
-3.66616
-2.91641
0.0559961
-2.91641
2.70874
0.151665
2.70874
0.771042
1.10443
-2.64652
3.69207
-1.10443
0.0424987
1.02614
0.0357986
1.02614
-1.01454
-0.0137261
-1.01454
1.04984
-0.021582
1.04984
0.730526
-0.0372219
0.730526
-0.754928
0.0616243
-0.754928
-8.58136
-8.98453
-3.53619
0.127688
-3.53619
-1.47462
0.0179667
-1.47462
1.49287
-0.0362178
1.49287
-2.53558
2.53558
-3.23947
0.340651
-3.23947
4.80636
1.32174
4.80636
5.04612
6.20674
16.299
-16.299
10.1709
-2.97411
-0.283847
-2.97411
-3.42761
-5.67715
3.42761
-0.169657
-0.805963
0.0618184
-0.805963
5.62659
1.36306
5.62659
2.58659
0.122157
-2.58659
0.215082
4.62514
-4.62514
1.42353
0.947975
1.42353
-1.19153
1.19153
1.12338
-0.0735328
-1.12338
-0.130605
1.38601
0.0243319
1.38601
-1.40975
-0.000595738
-1.40975
7.32078
-13.2407
-7.80331
3.21679
0.191706
-3.21679
0.142197
3.56347
-0.086718
3.56347
-3.30975
3.30975
-3.61095
0.134196
-3.61095
-0.683067
-0.0751314
-0.683067
0.843314
-0.0851155
0.843314
-4.56779
0.249542
-4.56779
-3.67897
0.4395
3.67897
0.335669
1.25308
-1.25308
-1.43716
0.107772
-1.43716
-4.65275
0.0849676
4.65275
0.0204107
-4.76823
0.0950636
-4.76823
-3.7125
0.101549
3.7125
0.215588
4.58934
1.03725
-4.58934
0.661255
-5.36948
11.5762
-5.88338
11.4262
-3.53128
-0.384261
-3.53128
4.10713
-0.191595
4.10713
2.56155
0.337268
-2.56155
0.274694
2.49852
-0.126978
2.49852
-3.95557
-0.0535905
-3.95557
3.81005
0.19911
3.81005
2.5393
-0.0407843
-2.5393
-0.0658825
2.8962
0.0225547
2.8962
3.67205
-0.00589463
3.67205
-3.53925
-0.126907
-3.53925
3.17908
-3.17908
3.08074
0.098334
-3.08074
0.164336
-5.07402
5.07343
-0.00799942
-5.06602
1.01814
1.01814
0.76968
-0.0391541
0.76968
-0.861787
0.106858
-0.861787
8.33434
-16.1376
8.80415
-17.3855
7.52726
-21.5179
8.07916
-17.0637
3.82514
-3.82514
3.75636
0.0687846
-3.75636
0.220172
-1.4564
-0.0182213
-1.4564
-2.2969
-0.238681
-2.2969
2.87002
-0.334437
2.87002
-3.74212
3.74212
-4.1248
0.382673
4.1248
0.681562
2.96006
-0.0638594
-2.96006
-0.0140472
0.924612
0.151756
-0.924612
0.118649
4.862
-0.236854
4.862
-4.0845
-0.540647
-4.0845
-1.47524
0.018834
1.47524
-0.0517046
-1.25894
0.067412
-1.25894
-5.0745
0.00847757
-5.0387
-1.40127
-1.40127
1.30414
4.9962
-3.58553
0.0462774
3.58553
-0.0220622
3.52709
0.215028
-3.52709
0.217343
-3.26336
0.0842836
3.26336
0.0463917
-0.660506
-0.0225613
-0.660506
-1.03667
1.03667
-0.919147
-0.117526
0.919147
-0.0758325
1.40918
-0.156098
1.40918
1.47107
0.0218025
-1.47107
0.0339078
-5.00824
0.240012
-5.00824
4.11665
-0.00951337
4.11665
-3.94857
-0.135923
3.94857
-0.276519
-0.0037229
5.07715
-1.01441
-0.000120315
1.01441
-5.10148
5.10136
-0.66584
0.00533349
0.66584
0.10384
1.02965
0.161879
-1.02965
0.167865
3.8493
-0.0392491
-3.8493
0.0241515
-2.01414
-0.282767
-2.01414
-3.19902
-0.332252
3.19902
-0.329004
-5.11518
-0.0779398
5.19312
-5.13676
1.33688
0.0491263
-1.33688
5.15049
-1.14607
-0.107017
1.14607
-0.109393
1.60855
-0.199369
1.60855
5.11862
-0.256624
-5.11862
0.11038
-4.13192
0.176357
4.13192
-0.0152768
-1.78074
-0.233391
1.78074
-0.172193
-13.1281
14.4911
7.70866
-6.28795
-6.95272
-11.9651
4.4471
7.12912
14.618
-11.7759
-9.74199
-11.6337
2.86006
-2.6922
-3.72886
3.69164
23.5807
-23.4857
-18.3992
19.0808
20.777
-20.5614
5.70884
5.71352
15.7973
-15.8808
-20.9702
20.586
15.3638
-15.5753
22.0965
-22.15
-25.8355
25.7962
-16.0938
16.1498
-20.2937
20.1668
-21.0563
20.7798
-8.31886
-9.06665
16.4905
-16.3628
20.0312
-20.315
-19.3217
19.6624
10.0475
4.4436
11.0848
-6.24673
11.9556
-5.22604
12.9347
8.32438
-16.6432
7.81326
-14.766
9.0755
10.9557
-8.90584
-3.05925
-17.9697
17.883
-17.2572
17.3036
24.0916
-24.005
-6.17283
11.8863
-5.25335
12.3825
-11.409
-6.99022
10.0873
4.53072
8.96488
7.52558
-9.15658
-2.47714
-24.794
24.5374
-25.6572
25.1166
0.100058
2.42602
-2.52607
1.35404
-0.862531
3.28855
1.99753
2.10439
2.4527
-2.29082
0.239499
-2.76557
-2.89618
-5.34369
5.45146
5.16091
-5.04919
16.5341
7.04668
16.5545
-16.7432
-6.74248
-16.5032
11.3637
7.71704
11.7464
12.0616
8.71536
12.1632
10.359
-10.3317
-0.0273455
-11.4776
21.8367
1.55466
-18.4679
-13.9371
8.81506
6.98227
8.81381
-9.85475
-6.02602
-9.58005
-11.0566
-9.91367
-11.3888
12.3658
8.2202
12.1742
-15.3603
15.345
9.26774
6.09606
9.16568
-8.94448
-6.63082
-9.01037
27.4851
-6.65858
-20.8265
-13.2062
-12.6293
13.0071
9.0894
14.3461
11.4501
14.3703
8.90729
18.5778
-17.9967
5.36736
-9.94747
-6.14632
-9.78313
9.25887
6.89091
9.41054
-11.7665
-8.52719
-11.7202
-11.9864
-9.06998
11.9923
8.17451
-12.5333
-13.1239
12.6692
8.11059
7.8513
-17.5933
9.21239
-18.279
-10.9552
-5.40754
-10.7351
10.8084
6.6474
-17.4558
-5.83488
23.6601
-12.7044
20.6009
-10.9121
-9.4029
-10.9262
-14.7596
-4.56218
-14.3201
-8.01772
7.73495
-8.85599
8.52155
26.9089
-16.2393
-10.6695
-12.3783
-8.18305
11.7171
-0.632322
-12.8358
12.8084
-0.880203
12.0545
16.4981
15.8658
-10.8803
-6.37688
-10.663
10.2704
7.03319
10.3547
16.0718
8.01979
16.2889
-16.7975
-7.20752
-16.548
4.84854
-4.92367
5.71501
-5.69618
15.5769
9.53969
-15.3401
-9.45399
22.9331
-10.7757
-12.1574
-5.12019
5.21638
-0.0961926
-1.83164
-0.477603
0.266541
-1.93132
-1.79754
1.86969
0.234697
5.45108
3.65354
-2.41436
2.48177
2.77876
2.70523
-0.190951
2.50177
-2.49644
18.9184
-11.4451
-7.47336
13.9567
-13.8717
-2.59129
-19.3196
16.7283
2.68275
3.00615
-2.94433
-3.95042
-1.39327
-3.91651
2.95437
2.20654
3.10613
2.10815
3.3433
-8.10893
1.56459
6.54434
-6.00078
-3.48461
-13.3476
-6.27379
19.6214
16.6737
7.86368
-16.7841
0.280932
5.29512
-5.33134
-1.59514
-11.7525
8.35559
-9.95073
-15.221
-6.45946
21.6805
-9.58083
-1.08215
9.3658
2.38062
-10.8772
-7.09252
10.743
1.42017
-12.0645
23.9708
-11.9064
-18.4413
8.51581
13.3209
16.2329
-17.8628
9.31883
8.54395
-4.54192
7.40813
1.40569
7.28115
-19.8801
13.8541
11.2815
8.38088
-11.6188
2.03874
-17.8414
25.1582
-22.2747
-2.88352
12.8125
12.3457
13.5807
13.3282
-7.80866
21.3893
-3.61577
-18.6589
21.4572
-13.0763
15.7782
-28.8545
-29.1064
10.4475
-17.9933
22.1024
-4.10903
-5.21269
-10.1476
23.206
-2.01702
-21.189
10.1572
-13.9285
-11.8251
25.7536
-20.587
18.4559
-6.26797
-12.188
-12.6994
-9.45062
12.5231
2.82198
-25.8493
31.2166
-7.27145
7.80578
1.3599
7.82833
10.6155
-15.9683
5.35281
9.97151
-16.2395
6.76863
-22.737
-12.1664
24.1765
-12.0101
-17.574
-15.8048
-1.76914
4.85947
26.3572
-16.3096
12.1008
4.20875
8.46204
1.89265
-8.56037
-1.22276
0.968523
16.0876
-17.0561
10.3791
10.5012
11.7063
4.38135
10.77
7.11298
-10.748
-0.972246
-14.7923
5.72231
-6.61778
-14.5732
20.2955
-16.2677
1.69451
-10.3032
-13.9911
24.2943
-16.4495
11.4257
12.5451
18.4589
-19.615
5.6239
-9.74663
-9.86839
10.6438
-17.2616
7.49759
12.7979
15.6082
2.48425
12.7575
11.419
-19.4049
1.12582
18.9446
-16.4675
3.90145
10.4688
-16.0023
0.197445
-10.5376
2.64296
-15.3474
-14.8128
16.5163
-21.0785
-12.3381
13.5321
2.75674
-13.8678
-0.45228
-4.97031
-3.04741
-5.2037
-3.29054
-5.56545
-11.0992
-1.93082
-9.16838
5.80413
-6.7132
-4.6756
7.04221
1.47934
-4.94757
4.84055
-5.59642
5.39706
-0.210191
13.0186
15.6556
7.47253
-8.4767
15.9492
-15.5928
23.6126
-29.7204
14.1275
15.9518
-23.1594
-13.7685
2.70564
2.1429
2.62052
13.4778
-14.4349
0.957156
-13.3014
17.6368
-4.33536
-19.62
6.31863
-6.14226
5.18822
0.526787
5.17
1.41692
6.84701
-8.26393
-4.27926
-4.33096
-9.1621
-13.8591
23.0212
4.73796
-13.106
8.36809
-12.0653
16.8033
0.0801867
-13.1862
16.988
-10.141
17.5148
-11.9851
5.52967
12.7921
22.3483
-9.55628
16.247
-6.70734
7.06604
-16.6223
-6.79304
-11.289
18.1799
-13.0053
14.6998
-1.12373
15.8235
-13.7788
3.00313
-2.07251
8.4287
8.64379
16.8089
-12.4276
11.9708
-18.6781
-4.65152
-16.1939
-3.39596
1.02868
-13.839
12.8103
12.0658
-11.0372
-3.24553
8.99825
-5.75272
5.68999
-2.85107
-2.83892
-1.84893
-3.07474
1.87149
0.63028
6.32027
0.490193
-3.34126
-2.00625
-1.90241
10.3796
8.53888
-3.83562
3.73942
3.56908
-0.562931
0.959379
2.14675
4.59157
-3.63219
0.678928
3.91264
-2.2654
3.82945
1.46568
-3.85125
-0.0652578
-3.40902
11.7646
3.13532
-5.34186
1.70967
2.37826
-13.8233
19.7438
-11.4202
-8.32359
22.1221
3.05807
-14.4783
16.2615
-13.5787
8.0996
-14.3734
-6.37868
-19.9574
-12.9107
-10.7115
19.0796
-12.3097
20.1734
3.85855
-20.4543
24.3129
-12.7425
6.283
-9.44712
10.9128
-4.06081
-5.3863
11.2693
10.4111
-11.0551
-0.69738
0.214251
8.42402
-8.20977
-1.52672
-7.52749
-16.4088
17.829
-8.25579
17.5746
7.69344
-7.63393
25.2085
6.56505
-14.199
-11.8763
-12.9584
-5.65503
10.5778
-1.79765
-7.21272
-13.9856
7.25351
0.0276434
-19.0292
22.0231
-2.99394
-12.0469
-1.8072
14.6197
-18.08
1.84053
-11.3114
10.7118
12.1175
12.1451
-20.8824
-0.30661
-12.6622
3.18118
-15.8434
15.5268
-6.81283
17.2603
-16.0559
11.3803
-14.5765
14.3768
-1.46659
14.7512
-9.39838
6.07533
-15.526
-12.704
14.4568
-8.36074
15.8167
-10.1214
25.9381
-17.3928
14.411
11.5271
-2.72307
-8.20309
-13.9723
11.2493
0.438618
8.26695
17.837
-10.7241
16.8648
8.92398
-18.6706
-8.33761
-25.8597
7.18909
-13.3146
-7.35646
14.5456
11.1024
12.9951
4.67716
-11.7723
17.7954
-19.5646
-5.78535
-9.02745
14.5861
-3.33686
10.1642
-19.1916
-5.18324
13.1152
-0.179252
-12.936
3.12408
-15.4622
5.11825
-20.5805
15.9603
-16.4125
1.77471
-7.91697
-3.17285
-3.28225
-2.17914
-3.41728
-7.5858
5.40665
-1.26717
3.57338
-12.5437
12.3645
-5.09304
10.4997
-4.07
-1.1337
4.24219
1.15486
11.6546
3.03427
-16.8028
-9.26772
14.6382
-5.37048
1.11184
-10.8047
3.8335
8.09395
14.0281
-24.8222
1.66286
-15.1399
-4.078
6.2209
4.92025
16.9861
2.55116
6.56346
-0.342564
9.11462
2.27796
2.20213
-11.2348
12.1919
1.5755
15.703
-1.88326
7.41294
3.28674
3.30471
2.02663
5.72337
2.92042
8.7265
0.462569
-3.86839
2.06917
-3.97158
-1.27209
-4.01073
-0.319093
3.7277
-4.04679
10.5065
-1.96765
5.13605
-1.88683
-4.93829
6.82512
-9.36018
-5.50122
-1.58858
-5.61184
7.32151
6.15277
-5.73294
-3.62725
2.39489
-15.3056
11.9785
-12.6759
-2.26476
22.0481
-9.46577
1.25601
-3.18278
-6.27149
-7.66476
7.73001
24.19
1.01859
12.2836
18.8476
11.755
1.03097
11.9981
-16.1072
-10.7388
-16.4138
-0.886928
13.7328
5.63381
20.7234
17.1609
13.8241
-5.36755
-24.9321
20.7448
-8.55285
16.4094
-3.47345
-17.107
14.6287
8.98397
-17.3854
0.972847
-16.1342
-24.687
-0.339218
12.7037
-11.3153
10.1816
7.13424
2.03414
-2.43026
-0.851985
2.54779
-0.345661
8.76896
-0.187478
-8.20363
8.39111
-3.54022
2.26813
-0.432974
4.1724
6.39214
4.42449
-3.77914
-7.82594
-8.82403
-4.99932
-17.1476
2.47379
-8.62656
5.68799
-3.41987
2.84907
4.97125
10.1073
-1.60074
-9.43642
7.35345
-4.50438
5.60292
)
;

boundaryField
{
    wall-4
    {
        type            calculated;
        value           uniform 0;
    }
    velocity-inlet-5
    {
        type            calculated;
        value           uniform -11.2529;
    }
    velocity-inlet-6
    {
        type            calculated;
        value           uniform -1.87548;
    }
    pressure-outlet-7
    {
        type            calculated;
        value           nonuniform List<scalar> 8(4.19994 4.97575 10.8247 12.0895 17.5659 15.1241 17.1385 15.6064);
    }
    wall-8
    {
        type            calculated;
        value           uniform 0;
    }
    frontAndBackPlanes
    {
        type            empty;
        value           nonuniform List<scalar> 0();
    }
}


// ************************************************************************* //
