/*--------------------------------*- C++ -*----------------------------------*\
  =========                 |
  \\      /  F ield         | OpenFOAM: The Open Source CFD Toolbox
   \\    /   O peration     | Website:  https://openfoam.org
    \\  /    A nd           | Version:  9
     \\/     M anipulation  |
\*---------------------------------------------------------------------------*/
FoamFile
{
    format      ascii;
    class       volScalarField;
    location    "2.43";
    object      p_rgh;
}
// * * * * * * * * * * * * * * * * * * * * * * * * * * * * * * * * * * * * * //

dimensions      [1 -1 -2 0 0 0 0];

internalField   nonuniform List<scalar> 
2268
(
771.999
771.42
771.363
771.78
772.655
773.915
775.46
777.176
778.944
780.643
782.16
783.387
784.232
784.608
784.43
783.598
781.87
778.64
775.804
773.688
770.487
766.596
763.352
772.146
771.637
771.641
772.126
773.048
774.345
775.923
777.667
779.453
781.154
782.648
783.823
784.585
784.843
784.499
783.478
781.587
777.893
774.878
772.099
769.258
765.877
763.121
772.209
771.791
771.858
772.441
773.442
774.805
776.44
778.233
780.054
781.768
783.247
784.378
785.061
785.207
784.724
783.562
781.596
777.249
773.849
769.759
768.227
764.89
762.025
772.186
771.797
771.895
772.581
773.686
775.144
776.866
778.735
780.615
782.366
783.858
784.972
785.61
785.685
785.124
783.895
782.089
778.007
773.03
769.729
767.544
763.841
760.532
772.049
771.636
771.734
772.516
773.742
775.322
777.16
779.135
781.102
782.921
784.46
785.593
786.222
786.268
785.67
784.407
782.601
780.375
776.85
772.786
767.624
762.996
758.752
771.767
771.298
771.385
772.261
773.627
775.354
777.337
779.448
781.532
783.451
785.07
786.258
786.91
786.954
786.339
785.051
783.172
780.964
777.678
773.097
767.875
762.741
757.041
771.312
770.779
770.863
771.847
773.375
775.275
777.43
779.704
781.932
783.978
785.709
786.982
787.681
787.742
787.122
785.807
783.828
781.353
777.911
773.401
768.487
763.14
754.237
770.668
770.096
770.215
771.333
773.061
775.167
777.52
779.977
782.361
784.55
786.415
787.789
788.544
788.623
787.998
786.644
784.562
781.873
778.297
773.838
769.247
763.694
749.753
751.193
752.053
751.301
748.572
745.405
742.688
740.477
738.422
739.411
741.307
742.684
744.49
743.888
746.031
749.033
751.894
753.375
754.708
756.088
750.94
751.196
750.314
747.671
744.89
742.27
740.082
738.65
740.973
742.94
743.504
744.729
744.069
746.105
748.508
751.162
753.888
755.856
757.554
750.754
750.97
749.322
746.652
744.16
741.966
740.358
738.588
742.589
743.83
744.319
745.791
744.148
746.059
748.553
752.656
755.211
756.676
757.832
751.043
750.27
748.608
745.953
743.631
741.892
740.744
738.104
741.384
743.936
744.955
747.269
745.335
746.147
755.119
754.951
747.823
754.085
758.151
752.145
750.783
748.139
745.299
743.122
741.924
741.347
726.216
714.675
736.005
745.351
748.043
751.019
753.951
756.347
756.228
734.246
733.728
738.242
751.893
750.064
747.465
744.502
742.468
741.992
735.834
708.145
710.74
709.831
728.687
748.649
751.745
754.201
757.171
761.969
765.563
734.109
733.614
751.665
748.682
746.332
743.507
741.513
741.846
738.058
706.333
708.406
708.13
727.088
749.333
751.121
753.706
757.847
763.808
771.511
761.168
734.096
752.305
747.238
745.08
742.405
739.703
738.594
743.649
735.345
709.988
726.907
752.109
749.458
749.98
752.659
757.041
765.502
773.485
780.365
766.573
769.386
768.733
768.946
770.317
772.439
774.939
777.658
780.454
783.108
785.556
787.678
789.248
790.097
790.188
789.518
788.096
785.841
782.873
779.127
774.667
769.946
764.484
757.496
751.83
750.79
750.229
752.478
756.963
763.242
770.954
779.381
783.283
786.516
789.466
791.745
793.012
793.219
792.355
791.124
788.375
784.167
777.681
767.008
749.368
728.145
716.754
290.607
273.559
271.651
282.248
298.025
315.564
336.413
359.505
387.979
416.157
444.051
469.43
486.95
496.761
499.356
492.762
475.452
451.491
418.135
367.496
303.531
248.254
226.071
4.92994
5.97118
6.18465
4.00077
2.00279
2.05875
2.34782
3.42439
6.69857
10.5332
13.7462
14.521
15.3314
17.3727
18.5885
18.5929
16.7603
12.7006
4.92543
1.60109
1.11632
1.2194
1.71274
4.01067
6.00208
5.89999
3.26784
1.98992
2.06002
2.23849
2.41875
5.03593
9.74519
11.0058
7.30909
7.59983
7.71009
7.65503
12.2557
22.5941
22.1814
12.7647
4.91066
1.14324
1.19145
1.36468
3.88143
6.27104
6.28154
4.00987
1.89385
1.94326
8.04471
10.4564
10.5126
9.48734
9.41365
14.8427
19.4021
19.4667
19.1976
16.9212
13.4578
11.745
5.28133
1.3314
1.02224
1.07094
3.07213
3.0781
6.36427
6.38246
6.46198
3.18866
6.64118
10.7588
10.6883
10.6917
10.6874
8.79601
4.5883
12.9223
19.0997
8.8606
1.61784
1.65757
1.4409
0.877792
0.889577
0.905591
0.882432
6.34242
2.72283
5.04451
4.35064
5.55297
6.48
6.39038
4.07052
1.04407
2.40713
4.14573
3.15844
0.358555
-0.0578054
-0.0261694
0.119092
4.5085
5.84711
5.88715
2.96447
0.800522
0.785355
0.662705
4.0829
3.18507
3.10546
1.59015
1.04229
3.51063
1.23173
-0.0100236
-0.0134403
-0.0314787
-0.0557942
-0.0682452
-0.0558259
-0.0559952
-0.0420453
0.0493574
2.71416
4.89002
5.23322
5.86263
5.92905
5.90944
1.90482
-0.00603854
2.74723
1.98607
0.359349
0.0236775
-0.00665374
-0.0266832
-0.0287687
-0.033422
-0.0460054
-0.0562325
-0.0575815
-0.0538707
-0.0538784
-0.0387233
-0.0341637
-0.0704514
-0.0785196
-0.0754527
0.4685
1.27797
0.531854
0.0900358
0.00908893
0.549192
0.164505
-0.0144726
-0.0135433
-0.0235785
-0.0287033
-0.0323479
-0.0359327
-0.043734
-0.0505759
-0.0528577
-0.0523048
-0.0530949
-0.051544
-0.0457118
-0.0509667
-0.0562837
-0.057556
-0.0496632
-0.0396368
-0.0165461
0.00404727
0.00883633
-0.0484708
-0.0543767
-0.0362294
-0.0290138
-0.030305
-0.0319715
-0.0347129
-0.0376662
-0.042573
-0.0472299
-0.049789
-0.0507057
-0.0517314
-0.0523699
-0.0531221
-0.0544668
-0.0540667
-0.0471219
-0.0387884
-0.0299897
-0.0167304
-0.0038905
0.00366324
-0.0372964
-0.0451163
-0.0392643
-0.0346476
-0.0334089
-0.0341485
-0.0366395
-0.0389086
-0.0420885
-0.0451873
-0.0473326
-0.0485883
-0.0495599
-0.0501146
-0.0504902
-0.0510196
-0.0492137
-0.0446369
-0.0378067
-0.0287502
-0.018109
-0.007933
8.79213e-05
-0.03034
-0.0389805
-0.0387403
-0.0365605
-0.0350267
-0.0353258
-0.0373693
-0.039139
-0.0412705
-0.0433876
-0.0450302
-0.0461361
-0.0468694
-0.0471409
-0.0469513
-0.0461452
-0.0437099
-0.0394164
-0.0335428
-0.0262023
-0.0178283
-0.00955934
-0.00226553
-0.0282345
-0.0360164
-0.0376748
-0.0369674
-0.0361196
-0.0360138
-0.0371675
-0.0385792
-0.0400225
-0.0414801
-0.0426701
-0.0434836
-0.0439164
-0.0438759
-0.0432725
-0.0418746
-0.0392675
-0.0353128
-0.0301548
-0.0239885
-0.0171622
-0.0103104
-0.00391416
-0.0284033
-0.0344542
-0.0362566
-0.0362749
-0.0361208
-0.0362143
-0.0365623
-0.0374312
-0.0384019
-0.0393842
-0.0401875
-0.0406959
-0.040843
-0.040532
-0.0396479
-0.0380274
-0.0354578
-0.031873
-0.027369
-0.0221222
-0.0164061
-0.010605
-0.00501993
-0.0290761
-0.0331717
-0.0345939
-0.0348403
-0.0348544
-0.0349688
-0.0352857
-0.0358
-0.0364428
-0.0370792
-0.0375716
-0.0378148
-0.0377259
-0.0372128
-0.0361737
-0.0344936
-0.0320579
-0.0288384
-0.0249091
-0.0204105
-0.0155458
-0.0105705
-0.00569499
-0.0293292
-0.0317883
-0.030423
-0.0328336
-0.0330538
-0.0331793
-0.0334165
-0.0337699
-0.0341879
-0.034577
-0.0348359
-0.0348741
-0.0346125
-0.0339699
-0.0328641
-0.0312146
-0.0289572
-0.0260836
-0.0226529
-0.0187743
-0.0145973
-0.0103041
-0.00605078
-0.0286943
-0.0303429
-0.0276849
-0.0282162
-0.0307604
-0.0309821
-0.0311734
-0.0314246
-0.0316939
-0.0319138
-0.0320077
-0.0319018
-0.0315282
-0.0308193
-0.0297108
-0.0281463
-0.0260883
-0.0235386
-0.0205452
-0.0171922
-0.0135913
-0.00987804
-0.00617165
-0.027558
-0.0282391
-0.0252045
-0.0253585
-0.0281298
-0.0284945
-0.0286614
-0.0288511
-0.0290269
-0.0291374
-0.0291238
-0.0289278
-0.028494
-0.0277687
-0.0267024
-0.0252554
-0.0234052
-0.0211581
-0.0185528
-0.0156545
-0.0125476
-0.00933576
-0.0061122
-0.0261512
-0.0259822
-0.0225707
-0.0235812
-0.025596
-0.0258325
-0.0259833
-0.026136
-0.0262561
-0.0263017
-0.0262269
-0.0259854
-0.0255336
-0.0248293
-0.0238355
-0.022524
-0.0208813
-0.0189152
-0.0166566
-0.0141562
-0.0114784
-0.00870435
-0.00590834
-0.0245726
-0.0237021
-0.0214702
-0.0228098
-0.0229994
-0.0231097
-0.0232387
-0.0233645
-0.0234516
-0.0234631
-0.0233614
-0.0231094
-0.0226719
-0.0220162
-0.0211143
-0.0199464
-0.0185049
-0.0167975
-0.0148489
-0.0126987
-0.0103965
-0.00800707
-0.00559031
-0.0228245
-0.0215254
-0.0207478
-0.0204419
-0.0203791
-0.0204251
-0.0205197
-0.0206187
-0.0206837
-0.0206799
-0.0205745
-0.020336
-0.0199355
-0.0193465
-0.0185476
-0.0175249
-0.0162742
-0.0148031
-0.0131313
-0.0112898
-0.00931768
-0.00726689
-0.00518623
-0.0209561
-0.0194755
-0.0185372
-0.0180564
-0.0178771
-0.017852
-0.0179008
-0.01797
-0.0180175
-0.0180086
-0.0179129
-0.0177025
-0.0173519
-0.0168391
-0.0161473
-0.015266
-0.0141934
-0.0129362
-0.0115105
-0.00994102
-0.00825844
-0.0065052
-0.00472125
-0.0190505
-0.0175228
-0.0164523
-0.0158285
-0.0155383
-0.0154367
-0.0154345
-0.0154723
-0.0155047
-0.0154964
-0.0154177
-0.0152423
-0.0149469
-0.0145127
-0.0139256
-0.0131775
-0.0122678
-0.0112023
-0.00999407
-0.00866295
-0.00723361
-0.00574101
-0.0042182
-0.0171759
-0.0156423
-0.0144927
-0.0137648
-0.0133808
-0.0132081
-0.0131564
-0.0131639
-0.0131837
-0.013179
-0.0131201
-0.0129811
-0.0127403
-0.0123811
-0.0118915
-0.0112649
-0.0105011
-0.00960512
-0.00858754
-0.00746461
-0.00625637
-0.00499202
-0.0036992
-0.0153833
-0.0138597
-0.0126719
-0.0118739
-0.0114181
-0.0111866
-0.0110921
-0.011073
-0.0110819
-0.0110814
-0.0110411
-0.0109355
-0.0107442
-0.0104522
-0.0100494
-0.00953017
-0.00889456
-0.00814676
-0.00729542
-0.00635398
-0.00533893
-0.00427489
-0.00318509
-0.0137151
-0.0122107
-0.0110076
-0.0101672
-0.00966279
-0.00938807
-0.00925978
-0.00921832
-0.00921702
-0.00921851
-0.00919235
-0.00911372
-0.00896354
-0.00872845
-0.0083998
-0.00797301
-0.00744802
-0.00682839
-0.00612123
-0.00533769
-0.00449142
-0.00360324
-0.00269258
-0.0122003
-0.0107209
-0.00951709
-0.00865645
-0.00812458
-0.0078218
-0.00766868
-0.00760836
-0.00759588
-0.00759489
-0.00757595
-0.00751561
-0.00739643
-0.00720672
-0.00693915
-0.00658982
-0.00615869
-0.00564869
-0.00506567
-0.0044189
-0.00371958
-0.00298528
-0.00223206
-0.0108527
-0.00940571
-0.00821252
-0.00734931
-0.00680686
-0.00648818
-0.00631698
-0.00623951
-0.00621333
-0.0062041
-0.0061844
-0.00613291
-0.00603416
-0.00587812
-0.00565859
-0.00537225
-0.0050191
-0.00460157
-0.00412448
-0.00359548
-0.0030236
-0.00242345
-0.00180807
-0.00967231
-0.00826566
-0.00709467
-0.00624358
-0.0057031
-0.00537683
-0.00519153
-0.00509692
-0.00505367
-0.00503027
-0.00500207
-0.00495036
-0.00486185
-0.00472808
-0.00454392
-0.00430668
-0.00401655
-0.00367576
-0.00328837
-0.00286055
-0.00239921
-0.00191615
-0.00142156
-0.00864685
-0.00728689
-0.00615123
-0.00532514
-0.00479568
-0.00446709
-0.00426975
-0.00415725
-0.00409379
-0.00405118
-0.0040079
-0.003948
-0.00386035
-0.00373808
-0.00357717
-0.00337578
-0.00313473
-0.00285652
-0.00254487
-0.0022045
-0.00183995
-0.00146
-0.00107194
-0.00775569
-0.00644845
-0.00536146
-0.00457117
-0.00405907
-0.00373164
-0.00352372
-0.00339298
-0.00330734
-0.00324204
-0.0031787
-0.00310402
-0.00300892
-0.00288811
-0.00273892
-0.00256084
-0.00235594
-0.0021278
-0.00188044
-0.00161699
-0.00133886
-0.00105119
-0.000758167
-0.00697427
-0.00572913
-0.00470217
-0.00395542
-0.003465
-0.00314155
-0.00292487
-0.00277667
-0.00266845
-0.00257872
-0.00249196
-0.00239722
-0.00228735
-0.00215866
-0.00201017
-0.00184329
-0.00166229
-0.00147308
-0.00128116
-0.00108769
-0.000889238
-0.000686149
-0.000479112
-0.00627659
-0.00510733
-0.00414889
-0.00345089
-0.00298565
-0.00266935
-0.0024468
-0.0022834
-0.00215385
-0.00203955
-0.00192739
-0.00180844
-0.00167724
-0.00153179
-0.00137306
-0.00120505
-0.00103551
-0.000874653
-0.000732157
-0.000606291
-0.00048507
-0.000362096
-0.000234254
-0.00563557
-0.00455683
-0.00367333
-0.00302892
-0.0025936
-0.00228932
-0.00206559
-0.001891
-0.00174303
-0.00160544
-0.00146708
-0.00132063
-0.00116211
-0.000991055
-0.000810546
-0.000627782
-0.0004554
-0.00031137
-0.000215834
-0.000162264
-0.00012173
-7.80984e-05
-2.47604e-05
-0.00502241
-0.00404463
-0.00324175
-0.00265831
-0.00226104
-0.00197669
-0.00175892
-0.00157915
-0.00141725
-0.00125896
-0.00109469
-0.000918364
-0.000727058
-0.000521457
-0.00030636
-9.22472e-05
0.000101766
0.000244381
0.000290328
0.000254831
0.000202648
0.000163496
0.000145273
-0.0044056
-0.0035324
-0.00281618
-0.00230551
-0.00195903
-0.00170606
-0.00150402
-0.00132712
-0.00115752
-0.000982824
-0.000794795
-0.000588219
-0.000360603
-0.000112708
0.000150371
0.000416151
0.000658132
0.000823107
0.000809556
0.00064962
0.00048304
0.000354734
0.000267721
-0.003748
-0.00297622
-0.00235494
-0.00193524
-0.00165765
-0.00145108
-0.00127696
-0.00111288
-0.000943715
-0.000759218
-0.000552541
-0.00031904
-5.57764e-05
0.000238082
0.000559255
0.00089569
0.00121955
0.00145648
0.0013601
0.00100503
0.000694638
0.000475484
0.000328293
-0.00300324
-0.00232457
-0.00182457
-0.00153436
-0.00135628
-0.00121626
-0.00108269
-0.00093878
-0.000773386
-0.000579073
-0.000350738
-8.46194e-05
0.000222896
0.000575018
0.000968895
0.00138847
0.00183765
0.00233549
0.00208722
0.0013052
0.000781973
0.000484785
0.000303026
-0.00201605
-0.00155671
-0.00128061
-0.00120691
-0.00117511
-0.00111948
-0.00102603
-0.000888361
-0.000701374
-0.000461457
-0.00016591
0.000186845
0.000600031
0.00107826
0.00161695
0.00219386
0.00288984
0.00427315
0.00371575
0.00167879
0.000720378
0.000354263
0.000172958
-0.00150671
-0.0011164
-0.000986415
-0.00102734
-0.00106262
-0.00104111
-0.000957959
-0.000812807
-0.000605444
-0.000336382
-5.69949e-06
0.00039033
0.000860735
0.00142254
0.00211712
0.00310488
0.00481499
0.00710294
0.00653726
0.00219667
0.000688722
0.000216121
1.84489e-05
760.015
759.16
758.284
756.937
720.549
719.649
714.067
708.547
229.589
227.724
218.342
213.949
2.12331
2.26024
2.29266
2.21
4.73078
9.27481
9.28495
5.84109
9.71689
9.73646
9.68713
8.98424
10.2797
10.1989
3.78806
0.356103
9.37172
4.14037
0.141571
0.181159
0.0155655
0.041577
0.0575006
0.0674869
0.0134801
0.0231454
0.0385692
0.0490622
0.0216643
0.0322859
0.0381048
0.0433132
0.0117045
0.0251168
0.0316579
0.0356064
0.00582706
0.00933485
0.0130126
0.0209329
0.00278791
0.00590085
0.00886548
0.0116599
0.000526058
0.00330339
0.00597274
0.00850492
-0.00109214
0.00139411
0.0038056
0.00610244
-0.00221287
1.06687e-05
0.00218491
0.00426463
-0.00296745
-0.000983507
0.000971591
0.00284845
-0.00344897
-0.00168504
6.62415e-05
0.00175362
-0.00371816
-0.00215754
-0.000597225
0.000911937
-0.00381439
-0.00244262
-0.00106239
0.000277607
-0.00376875
-0.00257113
-0.00136011
-0.000180742
-0.00360981
-0.00257091
-0.00151731
-0.000489277
-0.00336332
-0.00246757
-0.00155878
-0.000671718
-0.00305392
-0.00228642
-0.00150912
-0.000751494
-0.00270658
-0.00205324
-0.00139359
-0.000752671
-0.00234478
-0.0017923
-0.00123631
-0.000698546
-0.00198707
-0.00152298
-0.00105721
-0.000609153
-0.0016452
-0.00125823
-0.000870532
-0.00049984
-0.00132526
-0.00100564
-0.000685642
-0.000381628
-0.00103014
-0.000769653
-0.000508702
-0.000262391
-0.000761272
-0.000553047
-0.000343937
-0.000147806
-0.000519325
-0.000357574
-0.000194251
-4.19661e-05
-0.000304586
-0.000184381
-6.17345e-05
5.20381e-05
-0.000117715
-3.48349e-05
5.14761e-05
0.000131249
3.90593e-05
8.82927e-05
0.000142062
0.000191796
0.000160762
0.000179771
0.000204655
0.000228221
0.000239156
0.000231695
0.000231842
0.000233604
0.000262897
0.00023437
0.000215244
0.000200565
0.000217083
0.00017718
0.000147049
0.000122854
8.29914e-05
4.43148e-05
1.6167e-05
-6.22305e-06
-6.51051e-05
-0.000103328
-0.000133435
-0.00015787
748.961
745.065
743.077
719.881
675.294
660.4
693.414
726.993
729.614
728.456
714.755
697.371
681.854
681.443
726.002
768.645
776.258
783.565
786.717
697.058
676.247
627.746
587.239
581.703
616.061
646.735
657.54
628.702
597.892
577.806
548.296
546.196
600.283
641.481
681.71
734.683
774.625
784.097
217.253
244.652
325.051
410.738
450.808
455.819
449.053
458.882
494.758
521.105
536.43
540.583
538.322
516.9
457.252
398.331
418.222
462.619
496.559
1.8427
6.91471
7.43039
7.53302
16.0363
22.2376
23.4732
27.2954
34.5885
40.2483
42.2177
42.8637
37.7432
21.6549
22.39
18.4423
14.4711
15.9538
23.7118
2.31841
2.15867
2.09256
2.05519
1.99045
1.89554
1.83682
1.82283
1.80901
1.83252
1.85409
1.90512
2.00687
2.24602
2.08776
1.88882
1.61008
1.56349
1.5807
4.74752
2.08696
2.3663
2.78146
3.05087
3.09779
3.03835
3.60027
3.59204
3.62512
3.26894
3.6867
4.3029
4.35261
4.39291
3.98828
1.57235
1.56111
1.58274
1.85633
4.01533
4.01198
3.96489
3.90176
2.25253
0.662151
0.613429
0.495787
1.68422
1.37546
1.23046
1.71849
2.43204
2.94513
3.88601
3.94583
3.76114
3.71236
0.530131
2.10651
2.12961
1.72848
1.40103
0.395165
0.485482
0.230157
0.167471
0.0658611
0.0657369
0.0644907
0.060778
0.0621973
0.14023
1.22167
2.7252
2.73959
2.81179
0.0711272
0.0480947
0.043178
0.0436841
0.0466661
0.0597685
0.0662332
0.0694557
0.0680503
0.0668527
0.065965
0.0606615
0.0558709
0.0592265
0.0947028
0.167568
0.467465
0.964115
1.19972
0.053407
0.0457005
0.042961
0.0428924
0.0455725
0.052525
0.0580055
0.0674985
0.101832
0.111085
0.108475
0.0696225
0.0775023
0.111595
0.161713
0.117842
0.0483241
0.0187722
0.0167316
0.0501752
0.0472965
0.0396218
0.0395397
0.042226
0.0468772
0.050648
0.0783871
0.109519
0.107571
0.0767984
0.0747718
0.209139
0.206726
0.199196
0.188687
0.0741008
-0.000218924
-0.00217851
0.0414743
0.0445119
0.0448462
0.0359509
0.0384588
0.0419809
0.0451701
0.0500101
0.0623018
0.0591211
0.0416748
0.0391694
0.059857
0.186018
0.204684
0.197861
0.169169
0.00731699
0.00487869
0.0316038
0.0394688
0.0428226
0.036561
0.0344881
0.037812
0.0405062
0.0407961
0.0398558
0.0390746
0.0379943
0.0357828
0.0319323
0.0269882
0.0300097
0.0535888
0.0613624
0.0292085
0.013324
0.0159975
0.023157
0.0321261
0.0312517
0.0305865
0.0332558
0.0359352
0.0367512
0.0360949
0.0356646
0.0347498
0.0330578
0.030491
0.0275896
0.0249655
0.0227992
0.0229699
0.0267242
0.0205547
0.0124672
0.0168278
0.0205827
0.0239781
0.0272843
0.029351
0.0311034
0.0323384
0.0331608
0.0323763
0.0315932
0.0303144
0.0285225
0.0266982
0.0252777
0.0303907
0.0521642
0.0633628
0.0562132
0.00971699
0.0139321
0.0176161
0.0208707
0.0236865
0.0259034
0.0275697
0.0290073
0.0299156
0.0296621
0.0284238
0.0273796
0.0259407
0.0243465
0.0230936
0.0551351
0.159597
0.159247
0.157562
0.00754752
0.0115063
0.0150002
0.0180584
0.0206535
0.022754
0.0243434
0.0260211
0.0266943
0.0266634
0.0252882
0.0243455
0.0229983
0.0213466
0.0193984
0.0429436
0.139348
0.158594
0.158592
0.00581392
0.00946391
0.0127104
0.0155473
0.0179469
0.0198826
0.0213273
0.0224558
0.0235592
0.0234572
0.0222875
0.0214013
0.0200915
0.0183842
0.016203
0.0132748
0.00988313
0.0468703
0.132248
0.00441713
0.00773901
0.0107117
0.0133112
0.0155077
0.0172787
0.0186043
0.0194748
0.0198989
0.0200772
0.0198494
0.0188355
0.0174487
0.0158232
0.013781
0.0113192
0.00876377
0.0064827
0.00668957
0.00329078
0.00628279
0.00897327
0.0113302
0.0133223
0.0149295
0.0161355
0.0169332
0.0173275
0.0173495
0.017325
0.0165805
0.0151974
0.0136683
0.0119245
0.00999958
0.00823845
0.00783451
0.0565814
0.00238844
0.00505876
0.00746926
0.00958624
0.0113779
0.0128255
0.013915
0.01464
0.0150031
0.015017
0.0148892
0.0144059
0.0131687
0.0118322
0.0103934
0.00890306
0.00767523
0.00832439
0.112639
0.00167738
0.00403893
0.00617881
0.00806337
0.009662
0.0109568
0.0119348
0.0125901
0.0129241
0.0129435
0.01266
0.0121112
0.0113064
0.0102608
0.00909095
0.00792078
0.00696561
0.00614522
0.116281
0.00113148
0.00320097
0.00508353
0.00674667
0.0081616
0.00931122
0.0101835
0.0107728
0.0110798
0.0111113
0.010881
0.010412
0.00973804
0.00890754
0.00798687
0.00708964
0.00637991
0.00599055
0.1203
0.000727849
0.00252466
0.00416573
0.0056205
0.00686215
0.00787463
0.00864671
0.009173
0.00945419
0.0094974
0.00931771
0.00893979
0.00839965
0.00774763
0.00705354
0.00641471
0.00597619
0.00594345
0.12374
0.000444422
0.00198959
0.00340664
0.00466727
0.00574665
0.00662999
0.00730694
0.00777256
0.00802784
0.0080805
0.00794668
0.0076524
0.00723542
0.00674838
0.0062632
0.00587866
0.00574768
0.00608688
0.0884144
0.000258744
0.00157436
0.0027859
0.00386734
0.00479591
0.00555822
0.00614492
0.00655173
0.00678016
0.00683858
0.00674388
0.00652285
0.00621434
0.00587283
0.00557346
0.00542315
0.0055936
0.00632026
0.0912001
0.000148684
0.00125743
0.00228252
0.00320019
0.00398978
0.00463939
0.00514077
0.00549046
0.0056906
0.00575008
0.00568612
0.00552558
0.00530729
0.00508572
0.0049361
0.00496738
0.00536077
0.00816579
0.113621
9.42035e-05
0.00101872
0.00187641
0.00264584
0.00330848
0.00385395
0.00427515
0.0045695
0.00473975
0.00479512
0.00475273
0.00463888
0.00449135
0.00436257
0.00432343
0.0044743
0.00498814
0.0134143
0.116977
7.86522e-05
0.000840699
0.00154947
0.0021859
0.00273363
0.00318367
0.0035301
0.00377115
0.00391006
0.00395616
0.00392623
0.00384581
0.00375134
0.00369259
0.00373411
0.00396078
0.00452102
0.0132977
0.120145
8.89069e-05
0.00070867
0.00128595
0.0018041
0.00224874
0.00261218
0.00288952
0.00307965
0.00318609
0.0032181
0.00319209
0.00313317
0.00307731
0.00307337
0.00318265
0.0034811
0.00410251
0.00574779
0.123022
0.000114834
0.0006106
0.0010726
0.00148643
0.00183951
0.00212521
0.00233941
0.00248137
0.00255456
0.00256798
0.00253774
0.00248909
0.0024593
0.0025004
0.00268047
0.00309188
0.00389631
0.00528804
0.0567144
0.000148692
0.000536843
0.000898489
0.00122121
0.00149391
0.00171072
0.00186794
0.0019648
0.00200433
0.00199488
0.00195194
0.00190104
0.00188166
0.00195234
0.00219757
0.00274922
0.00383333
0.00562227
0.0117066
0.0001846
0.000479785
0.000754803
0.000998831
0.00120194
0.00135865
0.0014653
0.00152061
0.00152664
0.00149035
0.00142575
0.00135728
0.00132501
0.00139168
0.00165453
0.00227575
0.00352321
0.00552438
0.101427
0.000217939
0.000433267
0.000634258
0.00081127
0.000955177
0.00106055
0.0011234
0.0011415
0.00111533
0.00104951
0.000955012
0.000852791
0.000779618
0.000796374
0.00100131
0.00156218
0.0027559
0.00470843
0.11575
0.000244547
0.000391817
0.000530383
0.000651359
0.000746096
0.000808974
0.000835392
0.000821873
0.000766766
0.000671378
0.000541901
0.000392945
0.000253641
0.000176897
0.000253333
0.000643722
0.00163875
0.00348885
0.117442
0.000259857
0.0003499
0.000436857
0.000512194
0.000567504
0.000596868
0.000595012
0.000557068
0.000478942
0.000357881
0.000193768
-7.94114e-06
-0.000230243
-0.000434507
-0.000545043
-0.000410741
0.000296961
0.00203189
0.118525
0.000258406
0.000301563
0.000347187
0.000386793
0.000412129
0.000417074
0.00039582
0.000342282
0.000249972
0.000111834
-7.95646e-05
-0.000330211
-0.000639912
-0.000992138
-0.00133646
-0.00153379
-0.00120688
0.000400519
0.0914443
0.000233932
0.000240552
0.000254776
0.000268087
0.000272515
0.000262029
0.000230642
0.000171541
7.64192e-05
-6.55393e-05
-0.000269054
-0.000552694
-0.000937161
-0.0014365
-0.00204309
-0.00265867
-0.00285689
-0.00141187
0.0716856
0.000180058
0.00016101
0.000153604
0.000149549
0.000141535
0.000124116
9.17026e-05
3.75321e-05
-4.73679e-05
-0.000175933
-0.000368324
-0.000654279
-0.00107612
-0.00168678
-0.00256109
-0.00374099
-0.0047142
-0.00364479
0.0509672
9.14792e-05
5.87206e-05
3.94592e-05
2.64644e-05
1.38042e-05
-2.79606e-06
-2.78179e-05
-6.6934e-05
-0.000128057
-0.00022342
-0.000373913
-0.000613666
-0.00099853
-0.00162047
-0.00267304
-0.00445722
-0.00671606
-0.00659658
0.0480901
-3.45217e-05
-6.86208e-05
-9.0926e-05
-0.000105708
-0.00011657
-0.00012605
-0.00013692
-0.00015279
-0.000178747
-0.000222972
-0.000300628
-0.000439047
-0.000689337
-0.00115642
-0.00203797
-0.00418995
-0.00905944
-0.01116
0.0419787
-0.000189571
-0.000225138
-0.000249852
-0.000265683
-0.000273686
-0.00027477
-0.000270228
-0.000261826
-0.00025196
-0.000244291
-0.000246095
-0.000274478
-0.000372083
-0.000637492
-0.00113585
-0.00370929
-0.0146736
-0.016963
0.0157747
)
;

boundaryField
{
    leftWall
    {
        type            fixedFluxPressure;
        gradient        uniform 0;
        value           nonuniform List<scalar> 
50
(
771.999
772.146
772.209
772.186
772.049
771.767
771.312
770.668
769.386
751.83
290.607
4.92994
4.01067
3.88143
3.0781
2.72283
3.18507
2.74723
0.549192
-0.0484708
-0.0372964
-0.03034
-0.0282345
-0.0284033
-0.0290761
-0.0293292
-0.0286943
-0.027558
-0.0261512
-0.0245726
-0.0228245
-0.0209561
-0.0190505
-0.0171759
-0.0153833
-0.0137151
-0.0122003
-0.0108527
-0.00967231
-0.00864685
-0.00775569
-0.00697427
-0.00627659
-0.00563557
-0.00502241
-0.0044056
-0.003748
-0.00300324
-0.00201605
-0.00150671
)
;
    }
    rightWall
    {
        type            fixedFluxPressure;
        gradient        uniform 0;
        value           nonuniform List<scalar> 
50
(
756.088
757.554
757.832
758.151
738.242
733.614
734.096
766.573
786.717
784.097
496.559
23.7118
1.5807
1.58274
3.71236
2.81179
1.19972
0.0167316
-0.00217851
0.00487869
0.013324
0.0205547
0.0562132
0.157562
0.158592
0.132248
0.00668957
0.0565814
0.112639
0.116281
0.1203
0.12374
0.0884144
0.0912001
0.113621
0.116977
0.120145
0.123022
0.0567144
0.0117066
0.101427
0.11575
0.117442
0.118525
0.0914443
0.0716856
0.0509672
0.0480901
0.0419787
0.0157747
)
;
    }
    lowerWall
    {
        type            fixedFluxPressure;
        gradient        uniform 0;
        value           nonuniform List<scalar> 
62
(
771.999
771.42
771.363
771.78
772.655
773.915
775.46
777.176
778.944
780.643
782.16
783.387
784.232
784.608
784.43
783.598
781.87
778.64
775.804
773.688
770.487
766.596
763.352
763.352
763.121
762.025
760.532
758.752
757.041
754.237
749.753
760.015
759.16
758.284
756.937
751.193
750.94
750.754
751.043
752.145
751.893
751.665
752.305
751.193
752.053
751.301
748.572
745.405
742.688
740.477
738.422
739.411
741.307
742.684
744.49
743.888
746.031
749.033
751.894
753.375
754.708
756.088
)
;
    }
    atmosphere
    {
        type            totalPressure;
        rho             rho;
        psi             none;
        gamma           1;
        p0              uniform 0;
        value           nonuniform List<scalar> 
46
(
0
0
0
0
0
0
0
0
0
0
0
0
0
0
0
0
0
0
-9.26323e-06
-2.55699e-05
-5.76185e-05
-0.000100752
-0.000149316
-0.000185141
-0.000208028
-0.00022999
-0.000250771
-0.000283822
-0.000322108
-0.000351117
-0.000369873
-0.000378189
-0.000376591
-0.00036618
-0.000348466
-0.000325173
-0.000298044
-0.00026867
-0.000238324
-0.000207734
-0.000176535
-0.000141806
-9.44366e-05
-2.96621e-05
0
0
)
;
    }
    defaultFaces
    {
        type            empty;
    }
}


// ************************************************************************* //
