/*--------------------------------*- C++ -*----------------------------------*\
  =========                 |
  \\      /  F ield         | OpenFOAM: The Open Source CFD Toolbox
   \\    /   O peration     | Website:  https://openfoam.org
    \\  /    A nd           | Version:  9
     \\/     M anipulation  |
\*---------------------------------------------------------------------------*/
FoamFile
{
    format      ascii;
    class       volVectorField;
    location    "9.1";
    object      U;
}
// * * * * * * * * * * * * * * * * * * * * * * * * * * * * * * * * * * * * * //

dimensions      [0 1 -1 0 0 0 0];

internalField   nonuniform List<vector> 
918
(
(2.47628 -0.138939 0)
(0.108704 0.722546 0)
(0.179025 1.15688 0)
(2.31834 0.153729 0)
(-0.0547214 1.2518 -1.22239e-19)
(-0.0924034 0.643931 -5.36214e-18)
(0.524964 0.847288 -3.14767e-19)
(0.294125 0.164008 -3.02648e-20)
(3.00616 -0.0195875 0)
(-0.0116271 0.502197 0)
(-0.019925 0.639001 0)
(0.611821 0.00547838 0)
(0.0107054 0.439105 0)
(-0.00290745 0.421735 0)
(0.0155558 0.349284 -1.32671e-18)
(-0.00305691 0.744835 -9.38277e-20)
(0.333532 0.078717 2.17397e-18)
(0.078888 0.664389 -2.35209e-19)
(1.529 0.128572 0)
(-0.0286279 0.746928 0)
(0.208074 0.167719 -1.28565e-18)
(3.08302 -0.397411 0)
(2.92442 -0.506025 0)
(1.86111 -0.181129 0)
(0.525713 0.0395899 0)
(-0.0251428 0.521442 0)
(-0.00135394 0.494037 1.88239e-18)
(-0.0194383 1.52025 0)
(0.0948239 3.04673 0)
(0.179354 1.879 0)
(-0.0258572 3.07529 0)
(0.0302059 1.60679 9.39858e-20)
(0.0239646 0.673779 0)
(-0.147425 0.775094 -2.05027e-22)
(-0.193914 1.0291 4.46144e-18)
(-0.0415772 1.04471 0)
(0.74323 -0.00615035 0)
(0.169356 0.258679 6.72815e-19)
(0.981169 1.50088 6.89719e-19)
(0.64109 0.777371 -5.46987e-19)
(0.792646 1.57401 6.63457e-20)
(0.415376 0.856962 -3.42213e-19)
(0.592592 0.328711 2.9765e-20)
(0.31832 0.164057 0)
(0.940968 0.554495 0)
(0.571786 0.326705 1.33779e-19)
(0.277395 0.174612 -1.37277e-19)
(0.871147 -0.0555555 0)
(3.02784 -0.00176062 0)
(3.00685 0.0178372 0)
(3.20085 -0.417794 0)
(3.04288 -0.0742724 0)
(3.03116 -0.0388805 0)
(0.0158551 0.900525 -1.14754e-18)
(-0.0526839 1.02052 0)
(0.00314272 0.480166 0)
(-0.0346403 1.03862 0)
(-0.0148314 0.515443 0)
(-0.00293297 0.84633 0)
(-0.0524351 1.19912 0)
(-0.0123048 0.588352 0)
(-0.031309 1.26476 0)
(-0.00919971 0.678919 0)
(0.785827 0.0112139 0)
(1.18101 -0.00299915 0)
(0.623052 0.0117483 0)
(1.14196 0.0163353 0)
(0.578682 0.00765372 0)
(0.225406 0.921982 1.9784e-18)
(0.0985379 1.2081 0)
(0.176302 1.06604 0)
(0.0331901 0.755774 2.22097e-23)
(0.0372233 0.498055 -2.95886e-18)
(0.0194616 0.747943 0)
(0.00595416 0.422033 0)
(-0.000720614 0.734578 4.57154e-24)
(0.000696066 0.414835 0)
(-0.0170163 0.743293 0)
(-0.0130194 0.428122 0)
(0.0545049 0.670305 0)
(0.0524569 0.475455 0)
(0.0113779 0.63337 1.25438e-18)
(0.00250976 0.348432 0)
(-0.0358531 4.57922 0)
(0.0104642 1.40943 9.31517e-20)
(-0.00883517 0.758641 -1.19205e-19)
(0.676397 0.160007 -7.58386e-19)
(0.341037 0.0681917 -7.35422e-19)
(0.688171 0.180662 -2.27772e-18)
(0.340361 0.102097 -1.46709e-18)
(0.0792997 0.62987 0)
(0.181886 1.34454 1.97409e-19)
(0.181657 0.748252 -3.15082e-19)
(2.06066 0.260789 0)
(1.10732 0.11837 0)
(3.03313 0.103862 0)
(3.10395 0.446031 0)
(2.83929 0.377378 -1.01473e-17)
(2.57813 0.36129 7.78606e-18)
(-0.0663325 1.37682 0)
(-0.00816046 0.690243 0)
(-0.0110723 2.06426 0)
(-0.0555727 1.47035 0)
(-0.0502833 0.740078 0)
(0.467359 0.318051 4.06905e-19)
(0.239957 0.175228 0)
(2.29593 -0.266495 0)
(1.32357 -0.119334 0)
(1.09715 0.0107023 0)
(1.03796 0.0173667 0)
(0.552642 0.00936026 0)
(1.00741 0.0552776 0)
(0.846738 0.0711255 0)
(0.354816 0.0288474 3.38546e-18)
(-0.00551414 0.451252 1.7979e-18)
(-0.0273068 0.785012 0)
(-0.048291 0.848758 0)
(-0.0154602 0.461051 0)
(0.000128795 0.839722 1.83636e-18)
(6.85165e-05 0.487525 0)
(-0.00547952 0.845554 -5.65117e-18)
(-0.00488647 0.496761 1.90655e-18)
(0.0740015 3.73203 0)
(0.0693997 4.13322 0)
(-0.0126802 1.36987 -2.1221e-21)
(-0.0107225 1.33088 0)
(-0.00783228 0.722775 0)
(1.40723 0.0344605 0)
(0.758592 0.0151307 0)
(0.710993 0.0141052 0)
(1.41403 -0.0330961 0)
(0.772486 -0.00892394 0)
(0.338921 0.504513 -8.44773e-19)
(0.164552 0.244232 0)
(0.341983 0.535458 9.46948e-20)
(0.171694 0.282241 0)
(1.22015 1.36828 1.76206e-19)
(0.763476 0.729784 -4.12917e-19)
(0.41334 1.44464 0)
(0.607507 1.54483 0)
(0.304402 0.826347 0)
(0.151602 0.369467 -4.47271e-19)
(0.649452 0.299984 0)
(0.334672 0.143787 4.03404e-19)
(1.39755 1.28344 0)
(1.55147 1.14343 0)
(0.85551 0.650932 4.81934e-19)
(1.69517 0.932105 0)
(1.04492 0.429617 2.2554e-20)
(1.47143 0.00783496 0)
(1.5 -0.029428 0)
(0.801199 -0.00454413 0)
(1.95004 -0.199903 0)
(1.65018 -0.148323 0)
(1.05188 -0.0890446 0)
(3.06127 0.164803 0)
(3.03105 0.0687261 0)
(3.01022 0.0531202 0)
(0.0295563 1.60436 6.08719e-19)
(0.015049 0.833139 0)
(0.0142247 1.68409 1.08194e-18)
(0.00100391 0.93008 -9.73995e-19)
(0.0627552 1.1923 1.98165e-19)
(0.0464642 1.03439 0)
(0.0382899 0.554198 0)
(-0.0330632 1.07541 0)
(-0.00940434 0.556528 0)
(0.0147351 1.57414 -4.47366e-21)
(-0.01858 0.847969 0)
(-0.0521289 1.53666 -2.28337e-19)
(-0.0155499 0.796951 4.41899e-19)
(-0.00541982 1.10869 0)
(0.00941428 1.12879 0)
(-0.00153205 0.576211 0)
(0.00460282 1.28498 0)
(-0.000883595 0.677757 0)
(1.45901 -0.00454141 0)
(0.783757 0.00754237 0)
(1.43328 0.0324426 0)
(0.758458 -0.00081192 0)
(0.678089 0.00489812 0)
(1.26822 0.0158766 0)
(1.21082 0.0465625 0)
(0.663358 0.0149643 0)
(-0.00580168 1.42077 -1.72054e-20)
(0.000183945 1.37708 0)
(0.0048199 0.732923 0)
(0.00172862 0.417221 0)
(0.300669 0.86519 0)
(0.267205 0.419589 -2.89629e-19)
(0.000344398 0.63922 0)
(-0.00808088 0.368195 0)
(0.0341459 4.38778 0)
(-0.0180411 4.58368 0)
(0.0103289 4.54349 0)
(-0.0555955 3.2632 2.11866e-20)
(-0.0324367 4.46618 0)
(-0.0281883 4.04814 0)
(0.00455161 0.790941 1.1104e-20)
(0.0135949 1.50492 1.66622e-19)
(-0.0328952 1.44864 1.22475e-19)
(-0.00700908 0.796626 0)
(0.700745 0.110316 1.16354e-18)
(0.342481 0.0450145 -1.14031e-18)
(0.151205 1.15556 0)
(0.102425 0.585802 -2.71001e-19)
(0.119671 1.25412 -8.79149e-19)
(0.051936 0.698742 8.74652e-19)
(0.809969 0.023886 0)
(1.55786 0.0473896 0)
(1.71035 0.127502 0)
(0.920309 0.0444178 0)
(0.00641681 1.30125 0)
(0.0263756 1.31025 0)
(0.00399117 0.693796 0)
(0.519103 0.33942 1.21995e-18)
(0.468648 0.334002 -1.40576e-18)
(0.25233 0.176866 0)
(1.90971 0.149182 1.16175e-19)
(1.12022 0.0908931 0)
(1.7044 0.116243 0)
(0.874673 0.0220012 0)
(0.709239 0.0863294 0)
(0.725362 0.0468106 -5.44466e-18)
(0.359782 0.0325623 2.0137e-18)
(0.00893618 0.806939 1.71576e-18)
(0.002158 0.462381 4.08029e-20)
(-0.0108779 1.40842 -3.6172e-20)
(0.0061361 1.38675 1.37971e-18)
(-0.0149833 0.848955 6.3597e-20)
(-0.0119261 0.524486 -2.55477e-22)
(-0.107514 1.00068 -1.17621e-18)
(-0.0529602 1.3532 8.42103e-19)
(-0.0175323 1.35275 -1.37152e-18)
(1.41717 -0.0174614 0)
(1.43811 0.0196625 0)
(0.767122 -0.000550663 0)
(1.45387 0.0251039 0)
(1.36555 0.0460088 0)
(0.762607 0.0201234 0)
(1.30521 -0.00266118 0)
(1.32192 -0.00635031 0)
(0.69711 -0.00136165 0)
(0.319982 0.497677 -9.23926e-19)
(0.169472 0.255067 0)
(0.163964 0.322566 1.38432e-19)
(0.322963 0.61397 1.13421e-18)
(0.322618 0.576612 -6.71576e-19)
(0.164165 0.296214 1.31253e-18)
(0.288805 0.748296 2.20281e-18)
(0.153505 0.39657 3.97266e-19)
(0.679965 0.228586 1.5542e-18)
(0.668183 0.271895 4.03487e-19)
(0.33885 0.123408 7.57637e-19)
(1.87983 0.69898 -6.15963e-19)
(1.14297 0.327994 -7.17227e-19)
(-0.0364409 1.68319 4.6602e-19)
(-0.0128792 0.913121 0)
(1.58822 0.0226485 0)
(1.50971 0.0637636 0)
(0.845359 0.0260011 0)
(-0.00356107 1.38473 0)
(0.00506804 0.72958 2.52348e-18)
(0.00464903 0.731253 0)
(0.00206923 0.415099 -2.46992e-18)
(-0.0102861 1.38627 6.02613e-19)
(-0.00947873 1.4225 0)
(0.353657 0.51326 2.60368e-19)
(0.378417 0.574867 -8.70902e-19)
(0.180606 0.271208 7.88126e-19)
(-0.0257434 0.766849 -1.68544e-18)
(-0.0255438 0.689886 0)
(-0.0152824 0.412546 0)
(0.0282348 1.49777 -1.28201e-20)
(0.0302903 1.52376 -3.68397e-19)
(0.0162512 0.796265 -1.56036e-20)
(0.216655 1.0677 8.96036e-19)
(0.121459 0.522048 -5.96248e-19)
(0.0089201 1.4953 7.33392e-19)
(0.0537779 1.36871 -8.19005e-19)
(0.0249747 0.769833 3.588e-20)
(0.0073746 1.36612 -3.85523e-18)
(-0.00033872 1.39327 4.46457e-18)
(0.00375436 0.829757 1.75381e-18)
(-0.0139026 0.805008 -1.74736e-18)
(-0.00432714 0.481367 -1.75952e-18)
(-0.010681 1.41684 -4.55335e-18)
(-0.0152627 1.40031 4.64373e-18)
(0.299305 0.704837 0)
(0.313163 0.663081 -2.31256e-18)
(0.158803 0.346673 1.00112e-18)
(0.290984 0.826178 1.1956e-18)
(0.143352 0.443613 -1.84482e-18)
(2.02353 0.313581 4.20635e-19)
(2.01189 0.533992 0)
(1.19681 0.215684 -4.0785e-19)
(-0.0721488 1.60081 -4.86264e-21)
(-0.0175329 1.66229 0)
(-0.0172277 0.904737 0)
(0.230442 0.970729 -3.25062e-19)
(0.25464 0.896086 -7.12259e-19)
(0.131577 0.478712 1.33534e-18)
(3.16432 -0.443009 0)
(3.34724 -0.414834 1.8166e-18)
(0.079379 3.63567 0)
(0.054332 3.01285 0)
(3.15928 0.249766 1.41697e-20)
(3.12361 0.506147 3.71947e-18)
(0.036842 3.32228 -2.84388e-20)
(0.0162595 2.58218 0)
(-0.0393343 1.19726 1.57785e-18)
(0.207047 1.353 0)
(3.39808 1.58746 -3.32118e-19)
(3.17489 0.272156 -2.96203e-20)
(3.14733 -0.119298 0)
(3.10046 -0.000587777 3.55591e-22)
(0.0359409 2.66096 0)
(0.139648 3.28946 0)
(-0.0697188 2.67986 0)
(-0.036436 3.4003 3.2036e-19)
(-0.033174 3.4545 2.01502e-19)
(2.65234 0.0433195 -1.33731e-20)
(3.03643 0.0276969 0)
(3.13762 0.0816238 0)
(-0.0284134 4.54355 0)
(-0.0384748 2.96688 0)
(-0.0721749 3.12194 0)
(0.640729 3.12256 2.76268e-19)
(3.33871 -0.422711 0)
(3.01104 -0.345997 0)
(3.1699 -0.0532662 2.28197e-18)
(3.29268 -0.328877 -2.74774e-18)
(3.10381 -0.125902 0)
(-0.0375046 4.49364 0)
(0.0277933 4.05095 0)
(0.0266567 4.31597 0)
(-0.0265789 3.28731 0)
(-0.0103574 3.0469 0)
(-0.0363079 2.64967 0)
(2.97051 -0.00445654 0)
(2.85472 0.0472607 -1.8017e-20)
(2.19346 2.99739 -3.39733e-19)
(3.15693 0.0442356 -2.28301e-18)
(3.19039 0.278003 2.7749e-18)
(3.0828 0.117205 0)
(3.39572 0.328395 2.0918e-18)
(3.35713 0.48415 -2.71208e-18)
(3.07143 0.41826 0)
(-0.0415544 3.22375 0)
(0.0185513 3.16277 8.68778e-20)
(-0.0224721 2.48787 -6.16128e-20)
(3.65804 0.539047 2.28906e-18)
(3.43769 0.199439 0)
(-0.146261 1.27192 -2.19769e-18)
(-0.0553034 0.880902 -1.371e-19)
(-0.0730532 1.34259 3.03009e-18)
(-0.0281591 1.27479 -9.12628e-19)
(0.00593698 1.0951 0)
(-0.0266553 1.23906 7.04736e-19)
(-0.112591 1.38783 2.17791e-18)
(-0.0569837 1.3408 -1.33277e-18)
(-0.0773334 1.32042 0)
(1.37504 0.632408 0)
(1.26184 0.727833 0)
(3.48238 1.98479 9.76559e-19)
(2.9787 1.89464 -1.22146e-18)
(3.76823 1.66585 0)
(3.31705 1.13163 0)
(3.34999 0.279838 -3.92551e-18)
(2.89997 0.172634 4.85061e-18)
(3.35036 -0.156296 0)
(2.85297 -0.076703 0)
(3.43643 0.0423004 0)
(3.59387 0.144289 0)
(3.28683 0.119494 0)
(3.55051 0.297937 0)
(3.40851 0.292679 0)
(3.32761 0.21766 0)
(0.0777361 2.87988 0)
(0.0222057 2.17808 0)
(0.110992 3.12031 0)
(0.0924054 2.27619 0)
(0.19236 3.58146 0)
(0.130935 2.68547 -5.61243e-19)
(0.0363044 3.58882 0)
(0.00183492 3.00048 4.07377e-19)
(-0.0351753 3.15528 -5.22039e-19)
(-0.071376 2.96837 0)
(-0.0359389 2.37637 0)
(-0.090964 3.05548 0)
(-0.0590636 2.18438 0)
(-0.143448 4.66194 -2.50666e-19)
(-0.0908954 3.82283 2.82521e-19)
(-0.0861222 3.70268 3.15323e-19)
(-0.0559273 2.92384 0)
(-0.112031 3.68205 -4.64578e-19)
(-0.0412585 3.09058 -2.97924e-19)
(-0.115316 4.6878 1.9602e-19)
(-0.11655 4.3428 -3.5708e-19)
(-0.0929392 4.22848 -3.86682e-19)
(3.04826 0.0807173 3.36649e-18)
(2.30315 0.0300671 -4.23989e-18)
(2.9131 0.12359 -3.33628e-18)
(2.23763 0.0684068 4.16811e-18)
(3.35975 0.0231608 0)
(2.63497 -0.00381592 0)
(3.43726 0.0844828 0)
(3.30797 0.0150667 0)
(2.69254 0.00727276 0)
(3.65221 0.228525 0)
(3.41721 0.0894465 0)
(2.83863 0.0537465 0)
(-0.00019751 4.18349 -1.20942e-20)
(-0.0330068 4.54867 0)
(-0.0359374 4.41044 0)
(-0.0652195 3.37179 8.91996e-20)
(-0.0346984 2.66776 -3.51473e-21)
(-0.0699459 4.59855 1.1727e-19)
(-0.0805429 4.45195 -1.18501e-19)
(-0.0746813 4.05029 0)
(-0.0490311 3.98904 0)
(-0.0208928 4.09141 0)
(-0.071574 3.44178 0)
(-0.0424753 2.4978 0)
(0.922562 3.66822 -6.30809e-19)
(0.910035 2.86152 -1.85325e-19)
(0.435033 2.09789 -2.29732e-19)
(0.252233 2.33483 7.00915e-19)
(0.981964 4.19251 2.65725e-19)
(3.43245 -0.168181 0)
(3.32178 -0.25699 0)
(2.88251 -0.189765 0)
(3.4703 -0.0650344 0)
(3.34581 -0.148232 0)
(3.44889 -0.261417 0)
(3.51942 -0.284013 0)
(3.57931 -0.281717 0)
(3.22787 0.0914672 3.62703e-18)
(2.55851 0.0636988 -4.58629e-18)
(3.1015 0.104297 -3.57043e-18)
(2.51587 0.0552293 4.4426e-18)
(2.18173 3.36547 0)
(1.70337 2.91583 -4.65016e-19)
(2.50426 3.29131 -4.19812e-19)
(2.3124 2.48405 5.57909e-19)
(0.81401 1.27534 2.75251e-18)
(1.50852 0.216229 1.35277e-18)
(3.6868 0.293345 0)
(3.84854 0.555569 -1.8651e-18)
(3.26192 0.237521 -8.30177e-20)
(3.74053 0.41805 0)
(0.280346 1.33358 1.82374e-18)
(0.00653326 1.21189 -2.92037e-18)
(0.0847649 0.777174 1.64126e-18)
(0.309113 0.483972 -7.59659e-19)
(0.207886 1.41729 8.83945e-19)
(0.0644309 1.25265 0)
(0.0671218 1.10668 -1.1491e-18)
(0.223996 1.46794 -4.15519e-18)
(0.367565 1.5943 0)
(0.00836166 1.28998 1.21157e-19)
(-0.0100059 1.45727 -1.35751e-18)
(-0.0413865 1.303 1.97353e-18)
(-0.0579792 1.41761 0)
(-0.0208646 1.38196 0)
(0.71568 1.10367 0)
(2.502 2.49904 -1.07459e-18)
(2.58052 2.12984 4.07713e-19)
(2.72133 2.82554 0)
(3.13309 3.00581 -4.00974e-19)
(3.09295 2.36068 2.78876e-20)
(0.866786 0.638453 -1.84829e-18)
(1.65179 0.726819 -1.69006e-20)
(1.31053 0.480204 8.8114e-19)
(1.3673 0.898542 6.02894e-20)
(1.01254 0.681181 -2.40145e-18)
(1.55927 0.758389 0)
(2.09886 1.14909 1.47196e-18)
(2.13745 1.06102 0)
(1.50764 0.840019 0)
(1.13874 0.588323 0)
(3.36848 2.15798 1.01302e-18)
(3.89521 0.740576 -1.88207e-18)
(3.78753 1.18709 0)
(3.47563 0.740302 0)
(1.47097 0.381753 1.34612e-18)
(3.28392 1.84319 -8.57876e-19)
(2.90286 1.67522 1.55694e-18)
(3.75251 1.3566 -1.84589e-18)
(3.10024 0.113243 2.46943e-18)
(3.16982 0.179921 -2.58465e-18)
(2.66392 0.0911004 0)
(3.30419 -0.0412002 0)
(3.1994 -0.0852628 -2.3728e-18)
(2.6295 -0.0326302 2.35192e-18)
(3.95733 0.0893455 0)
(3.76251 0.142652 0)
(3.69383 0.154356 0)
(3.58881 0.203759 0)
(3.8327 0.0574161 0)
(3.72607 0.051053 0)
(-0.0519035 2.61852 0)
(-0.0472004 2.12151 0)
(0.323715 4.00791 -4.23063e-19)
(0.644101 3.36865 -1.66401e-19)
(0.251349 3.08751 -3.72078e-19)
(0.336634 2.59984 5.96103e-19)
(0.428732 4.01901 0)
(0.424171 4.62666 -5.18846e-19)
(0.337815 4.68347 0)
(0.867797 4.35401 -3.82253e-19)
(0.644436 3.82027 9.74278e-19)
(0.55001 4.61301 4.55012e-19)
(0.701698 4.18002 -1.95024e-19)
(0.562025 4.31102 1.56901e-19)
(0.864301 4.60571 -6.7608e-19)
(0.704554 4.6146 0)
(0.807678 4.54768 5.13451e-19)
(-0.0278354 4.49741 -1.84168e-19)
(-0.0344067 3.59492 0)
(0.0705919 4.23379 5.54802e-19)
(-0.0309805 4.32373 0)
(-0.0172562 3.42857 -4.53022e-19)
(-0.0227154 2.88357 0)
(-0.135367 4.33487 -2.99001e-19)
(-0.142465 4.62894 0)
(-0.086539 3.8739 0)
(-0.0766597 3.83726 3.36217e-19)
(-0.0649516 3.79628 1.09218e-20)
(-0.0491764 3.64194 6.3247e-19)
(-0.0459309 2.88973 4.12085e-21)
(-0.139886 4.62809 1.84791e-19)
(-0.133651 4.67049 1.05772e-19)
(-0.0282545 2.80917 0)
(-0.00712956 2.31511 0)
(-0.082644 4.71752 4.98422e-19)
(-0.0940468 4.32558 4.41056e-19)
(-0.123127 4.55974 -5.74335e-19)
(-0.0262239 4.70331 0)
(-0.0722446 4.39962 -3.19296e-19)
(-0.108397 4.01923 1.32212e-19)
(-0.0836287 4.11699 -4.21967e-20)
(-0.0938773 4.64214 -2.24459e-19)
(-0.0935225 4.14722 -7.00015e-20)
(-0.0946571 4.10094 3.11065e-19)
(2.87989 0.0582404 -2.36896e-18)
(2.8711 0.045458 2.27848e-18)
(2.34801 0.0326924 0)
(3.53262 0.175575 3.05531e-18)
(2.73709 0.117325 -3.31551e-18)
(2.28934 0.0580577 3.62308e-18)
(3.70549 0.312831 -4.03099e-19)
(3.20571 -0.0503166 0)
(3.16613 -0.0162118 2.24384e-18)
(2.68549 -0.0134927 -2.22612e-18)
(3.86229 0.112367 -1.25698e-19)
(3.7602 0.0939755 1.08214e-18)
(4.14644 0.159056 0)
(4.21863 0.166041 -3.76377e-19)
(4.01935 0.132353 0)
(3.70737 0.144294 0)
(4.03324 0.0900201 0)
(3.71548 0.0830162 0)
(4.18209 0.102889 7.85357e-19)
(4.13702 0.0696192 -1.75284e-18)
(4.13304 0.103825 -8.50981e-19)
(4.18056 0.105736 -9.24051e-19)
(4.20019 0.213996 1.78101e-18)
(3.83592 0.178898 0)
(4.03483 0.285588 0)
(-0.0656704 4.4438 -1.38459e-19)
(-0.0139548 4.52715 -1.19151e-20)
(-0.0542735 4.55813 0)
(-0.0434412 4.05103 1.40951e-19)
(-0.0360789 4.08235 2.27789e-20)
(-0.042424 3.94173 -2.22181e-20)
(-0.0809653 3.39709 2.63439e-19)
(-0.140201 3.87015 -1.46619e-20)
(-0.10691 4.00293 7.5665e-20)
(-0.0706872 3.27377 -1.32919e-19)
(-0.0248126 2.80856 1.59281e-19)
(-0.0738856 4.45216 5.37517e-21)
(-0.0861624 4.58931 1.7585e-19)
(1.18849 4.32176 3.59222e-19)
(1.10198 4.48206 7.3704e-19)
(1.69267 3.4294 4.49601e-19)
(1.27781 3.54479 1.78153e-19)
(1.26711 2.87745 0)
(0.552404 2.36928 2.76858e-19)
(0.468738 1.78593 3.33009e-19)
(0.343305 2.60508 1.51893e-20)
(0.485138 3.21228 -1.16768e-18)
(0.623938 3.17451 8.81437e-19)
(0.433584 2.4484 0)
(0.295516 2.00934 -5.6056e-19)
(0.244476 3.08798 1.40121e-18)
(0.264706 2.74639 -3.21153e-20)
(0.152675 2.30288 -1.75628e-18)
(0.615366 1.47101 1.47896e-18)
(0.592833 1.6742 0)
(3.58355 -0.0759174 8.66301e-20)
(3.61842 -0.254761 -7.27619e-20)
(3.72099 -0.218683 -1.26955e-18)
(3.75904 -0.12716 1.28546e-18)
(3.67605 -0.0499896 0)
(2.37993 3.81668 0)
(2.55223 3.85725 0)
(2.8272 3.5609 0)
(2.67132 3.5942 0)
(0.894857 1.46446 -4.09728e-21)
(0.643134 1.09275 0)
(1.73141 3.461 1.51314e-20)
(1.41438 3.51439 0)
(1.35021 3.03916 -1.29501e-18)
(1.43054 2.97113 8.31281e-19)
(1.8627 0.314458 0)
(1.49689 0.268249 3.5514e-19)
(2.47873 0.352492 2.2067e-18)
(1.85256 0.280359 -7.92086e-19)
(1.47732 0.110887 -2.51077e-18)
(4.22772 0.760231 -2.58306e-18)
(3.8612 0.970101 -3.51663e-20)
(3.34721 0.831217 2.07811e-18)
(3.88737 0.722187 1.82288e-18)
(3.17473 0.453054 -3.06109e-18)
(2.96817 0.444566 3.76979e-19)
(3.25301 0.673812 -8.23613e-19)
(3.04064 0.667111 0)
(3.78624 0.539423 1.54465e-18)
(4.09212 0.604418 0)
(4.08759 0.745043 0)
(4.00898 0.398386 8.2823e-19)
(4.26332 0.615613 -3.03345e-20)
(4.19697 0.688273 -4.54633e-19)
(4.12978 0.617638 0)
(3.63159 0.117034 1.7229e-18)
(4.18644 0.166345 2.15027e-18)
(4.09478 0.13658 -1.68405e-18)
(4.13907 0.220443 -1.44701e-18)
(3.76021 0.219281 -2.16254e-18)
(3.34943 0.359633 0)
(3.4327 0.283695 0)
(2.60329 0.182351 -1.27117e-18)
(2.15716 0.114704 4.7913e-19)
(4.04182 0.330012 1.94701e-18)
(4.26144 0.410027 -2.35865e-18)
(4.26783 0.464179 2.07868e-18)
(4.15189 0.464975 0)
(4.23539 0.315832 0)
(4.24722 0.303944 -9.82786e-19)
(4.20541 0.29418 -1.60195e-18)
(2.23054 3.51989 6.23481e-19)
(1.96464 3.30001 -6.87907e-19)
(1.50176 2.45376 -1.04223e-18)
(1.24524 2.09078 2.69607e-19)
(0.928531 1.44923 -2.65802e-18)
(0.833955 1.27739 9.30923e-19)
(0.631364 0.950577 -2.01878e-21)
(1.16936 1.87165 -1.14982e-18)
(1.19646 1.97361 1.71633e-18)
(1.02445 1.78161 5.11178e-19)
(0.825993 1.35321 -5.17885e-19)
(0.667755 1.12794 0)
(2.48999 2.65123 -1.16049e-19)
(0.780718 1.19337 8.70025e-19)
(1.00371 0.95515 1.1723e-18)
(0.823909 0.864541 1.35862e-18)
(1.16432 0.803326 1.35918e-18)
(1.56567 1.11431 -2.29858e-18)
(1.47923 1.14448 1.86276e-18)
(1.07925 0.825533 -6.86349e-19)
(0.879973 0.613901 1.51518e-18)
(1.70305 0.514934 -7.85617e-19)
(1.64701 0.540326 0)
(1.31634 0.432131 5.01007e-21)
(2.59288 1.55875 7.83261e-19)
(2.186 1.32628 -2.83758e-18)
(1.79001 1.25407 1.08967e-20)
(1.76405 1.15307 0)
(2.87911 2.6024 8.78705e-19)
(3.3938 2.70599 1.04409e-18)
(3.21149 2.89784 -1.20335e-18)
(3.48821 2.71064 -4.32166e-19)
(3.40952 2.54665 -1.37179e-19)
(3.43838 2.73764 1.41089e-19)
(3.63902 2.2256 -1.68778e-18)
(3.64373 2.44836 4.05464e-19)
(3.71233 2.38085 0)
(3.71307 2.1445 -5.85524e-19)
(4.02859 1.04577 5.84991e-19)
(4.22599 0.963327 1.01161e-18)
(4.25603 0.933065 1.01926e-18)
(4.02159 1.29471 -1.15724e-18)
(4.04605 1.3134 0)
(4.09379 1.1993 0)
(3.37823 1.22841 -1.43384e-20)
(2.5045 0.684471 0)
(2.79995 0.751382 9.37778e-19)
(3.29289 0.876137 -2.56174e-20)
(3.76738 1.50994 5.13674e-18)
(3.57006 1.74072 1.31895e-18)
(3.49677 1.53011 -1.34881e-18)
(3.09806 1.3795 1.44603e-18)
(2.83993 1.39197 8.30125e-19)
(2.41074 1.19443 -8.04007e-19)
(3.67065 -0.0872565 1.98997e-18)
(3.89436 -0.0308069 0)
(3.85858 -0.0683501 1.34542e-18)
(3.74224 -0.061088 -2.99561e-18)
(3.9804 0.0346688 1.46549e-18)
(3.90502 0.110756 -3.09032e-18)
(3.74085 0.125186 0)
(3.55799 0.171821 -6.29999e-19)
(3.81235 0.121355 1.60899e-18)
(3.69255 0.189898 -8.24435e-19)
(3.60117 0.169654 5.92068e-19)
(-0.0925937 2.72841 0)
(-0.0682602 3.5039 0)
(-0.0480331 2.58518 0)
(-0.0310724 2.09349 0)
(0.0164018 3.97341 6.96124e-19)
(0.11008 3.76741 -1.81868e-19)
(0.274368 4.60832 -2.35216e-19)
(0.214788 4.45157 2.47779e-19)
(-0.0617483 4.30342 -5.13384e-19)
(-0.0269217 4.3314 3.85395e-19)
(0.0606052 3.91378 2.0539e-20)
(-0.015977 3.62343 -4.79122e-19)
(-0.0345055 3.39996 -6.42999e-20)
(-0.0666991 3.7396 -5.87001e-20)
(0.119829 4.41902 -5.92612e-19)
(0.147384 4.24169 0)
(0.237673 4.58275 2.98251e-19)
(0.2305 4.65695 2.55835e-19)
(0.553973 4.40684 -2.28148e-19)
(0.383859 3.77876 0)
(0.433332 3.63231 -1.11953e-18)
(0.53219 3.99451 7.9339e-19)
(0.439452 4.5184 -6.19789e-19)
(0.33166 4.38901 3.33428e-19)
(0.268119 4.1276 0)
(-0.0720835 4.68396 -5.6613e-19)
(-0.104032 4.4229 -6.51391e-19)
(-0.11211 4.64053 0)
(-0.0570266 4.27703 -6.08978e-21)
(-0.0537836 4.56041 2.8005e-19)
(-0.143282 3.96644 4.65114e-20)
(-0.0705972 3.61946 -6.83563e-19)
(-0.119223 4.01878 1.82786e-19)
(-0.174749 4.5237 2.42313e-19)
(-0.114564 4.35652 0)
(-0.0867004 4.00214 0)
(-0.0867481 3.09136 2.11569e-19)
(-0.0601756 3.79618 -6.59076e-20)
(-0.0864201 3.77328 0)
(-0.0882521 2.87795 1.67289e-19)
(-0.0465475 2.37608 -3.23604e-19)
(3.7566 0.0281737 0)
(3.72703 0.00354428 -2.03903e-19)
(4.17648 0.0601068 -1.4441e-18)
(4.08341 0.0389564 0)
(3.8686 0.0114856 0)
(4.1486 0.0310139 -1.21708e-20)
(4.09935 0.0298466 2.38518e-18)
(4.00211 0.0737448 2.85275e-18)
(3.76052 0.113023 0)
(3.56414 0.104823 0)
(4.01654 0.0844801 1.42163e-18)
(3.71029 0.1084 0)
(3.48118 0.122914 0)
(-0.0902908 4.58345 0)
(-0.102442 4.59032 1.05647e-20)
(-0.0804566 4.62084 6.61388e-20)
(-0.0679113 3.96135 0)
(-0.112091 4.50962 1.14245e-19)
(-0.0714298 4.30148 -6.59239e-20)
(-0.0633838 4.07243 0)
(1.36761 4.18533 0)
(1.15223 4.52881 -1.31419e-18)
(1.17065 4.45107 0)
(1.51136 4.43578 1.50673e-18)
(1.53909 4.07754 0)
(1.44493 4.32203 -6.17838e-19)
(1.04294 2.32861 -3.4306e-20)
(0.7378 1.71413 -1.76327e-18)
(0.616375 1.28127 2.15159e-18)
(0.726897 1.90097 4.00585e-19)
(0.993378 2.50298 0)
(1.06122 2.45959 0)
(0.740633 1.7548 0)
(0.55013 1.38411 -1.4087e-18)
(1.19166 3.80936 -9.89016e-19)
(1.13409 3.06027 -2.37035e-19)
(1.32481 3.46288 1.93862e-19)
(0.604661 2.09527 0)
(0.632516 2.00364 0)
(0.472025 1.62184 -3.95966e-19)
(0.96445 2.78851 0)
(2.64483 3.53976 0)
(2.40347 3.04811 -1.46416e-18)
(2.55477 3.04703 -8.63958e-20)
(2.41898 3.4227 0)
(2.31221 3.19756 2.23569e-18)
(3.23035 3.04383 -3.93889e-19)
(3.06245 3.26442 0)
(3.05009 3.09289 6.39154e-19)
(2.81888 3.37733 0)
(2.84399 3.18192 0)
(1.25955 2.10048 -9.40166e-19)
(1.46765 2.50598 -7.05831e-19)
(1.78843 3.06641 1.21587e-18)
(1.7294 3.04817 -3.65637e-19)
(1.10675 1.90803 0)
(1.24499 2.29953 4.75279e-19)
(0.752563 1.35226 -7.23335e-19)
(0.608923 1.09602 -4.39464e-22)
(1.9275 3.73235 0)
(2.1789 3.7546 -5.4524e-19)
(2.28891 3.95376 0)
(2.3643 0.529767 0)
(1.6938 0.350482 0)
(1.2788 0.287789 0)
(2.297 0.562125 -1.47637e-18)
(1.72033 0.416881 8.24874e-19)
(2.19799 0.124276 -9.89955e-19)
(2.68296 0.287771 0)
(2.5252 0.293717 4.15865e-19)
(1.82549 0.132778 1.64266e-18)
(1.57683 0.0795939 -1.04281e-18)
(0.784857 1.62609 8.67525e-19)
(1.01141 1.90224 0)
(0.568319 1.50136 1.58067e-18)
(0.56145 1.67045 -1.4426e-18)
(0.810433 1.88182 -1.00299e-18)
(2.135 2.5328 1.34913e-18)
(2.15334 2.78129 0)
(1.6798 1.76596 -2.79669e-19)
(2.0983 2.06786 1.75872e-18)
(1.45807 1.37576 -4.28874e-19)
(1.69071 1.39303 4.56085e-19)
(2.21025 1.5762 1.03381e-18)
(2.53558 1.72103 0)
(2.36234 1.91817 0)
(2.11006 1.67876 0)
(3.89488 2.03384 3.91003e-19)
(3.73822 1.85762 -1.27112e-18)
(3.78162 1.99139 1.05438e-18)
(3.87031 1.73594 -1.0148e-18)
(4.09662 1.63509 0)
(4.04918 1.79713 -3.0089e-19)
(2.92121 1.17919 -1.91283e-18)
(3.04017 1.16889 -2.42896e-18)
(2.43272 1.07431 1.46868e-18)
(2.24142 0.966417 -1.43445e-18)
(2.55663 0.864603 -1.18774e-18)
(2.27613 0.804142 1.4606e-18)
(4.00802 0.0305346 -1.53279e-18)
(4.05224 0.0371131 3.13797e-18)
(3.76622 -0.0682923 1.90598e-18)
(3.78923 -0.0763014 -2.29286e-18)
(3.95697 0.00631896 0)
(4.05446 0.0184015 -3.73953e-18)
(0.0559657 4.69878 1.08423e-19)
(0.0258668 4.67829 0)
(0.14927 4.67478 9.69085e-19)
(0.17007 4.69518 -8.81789e-19)
(0.186753 4.67396 4.38334e-19)
(0.0799198 4.62299 0)
(-0.121144 4.68331 0)
(-0.123781 4.4044 -6.39011e-20)
(-0.119966 4.3649 5.73123e-20)
(-0.124724 4.46963 7.80234e-21)
(-0.117177 4.6179 -1.04295e-19)
(-0.100353 4.60785 5.626e-20)
(1.84035 4.00398 -1.65413e-18)
(1.77546 4.01456 1.7524e-18)
(1.6229 4.35909 -8.65671e-19)
(1.64987 4.26266 7.66932e-20)
(2.19122 4.02011 0)
(1.79591 4.16162 -6.534e-19)
(1.92395 3.90734 6.33598e-19)
(1.75703 4.32145 8.4558e-19)
(2.00896 4.17076 0)
(2.16701 4.05199 0)
(1.12276 3.66858 1.50358e-18)
(0.827764 2.87159 2.03751e-18)
(0.953285 3.05126 -1.3993e-18)
(0.746696 3.02863 -2.33566e-19)
(0.886479 3.76517 4.69161e-19)
(0.712786 3.40804 -1.14073e-18)
(0.777056 1.52988 -1.22782e-18)
(0.776031 1.37922 0)
(0.627493 1.16595 -1.34951e-18)
(1.1479 2.15022 0)
(1.12599 2.23605 0)
(1.43271 2.27557 -1.10322e-18)
(1.12244 2.10005 -1.04764e-18)
(1.07592 2.11634 1.11207e-18)
(1.11976 1.59266 0)
(1.50752 1.84918 -6.0803e-19)
(1.7085 2.20946 -8.61044e-19)
(1.48896 2.16635 0)
(0.933435 1.88423 7.22805e-19)
(0.847952 1.73606 0)
(2.9372 2.30662 -1.8564e-18)
(3.30268 2.45318 2.62166e-18)
(3.28105 2.18465 -2.60495e-18)
(2.67598 2.0613 -2.32685e-19)
(2.78606 1.97212 -9.80228e-19)
(1.32544 2.2823 8.05169e-19)
(1.37852 2.34192 -1.37356e-18)
(1.52402 2.42128 1.81057e-18)
(1.85182 2.6435 -1.17647e-18)
(1.93367 3.01481 -1.57869e-18)
(1.62304 2.5845 -1.19315e-19)
(1.68892 2.72542 1.38417e-18)
(1.86866 2.7818 9.75181e-20)
(2.05854 3.06947 6.55337e-19)
)
;

boundaryField
{
    wall-4
    {
        type            noSlip;
    }
    velocity-inlet-5
    {
        type            fixedValue;
        value           uniform (3 0 0);
    }
    velocity-inlet-6
    {
        type            fixedValue;
        value           uniform (0 1 0);
    }
    pressure-outlet-7
    {
        type            zeroGradient;
    }
    wall-8
    {
        type            noSlip;
    }
    frontAndBackPlanes
    {
        type            empty;
    }
}


// ************************************************************************* //
