/*--------------------------------*- C++ -*----------------------------------*\
  =========                 |
  \\      /  F ield         | OpenFOAM: The Open Source CFD Toolbox
   \\    /   O peration     | Website:  https://openfoam.org
    \\  /    A nd           | Version:  9
     \\/     M anipulation  |
\*---------------------------------------------------------------------------*/
FoamFile
{
    format      ascii;
    class       surfaceScalarField;
    location    "2.97";
    object      phi;
}
// * * * * * * * * * * * * * * * * * * * * * * * * * * * * * * * * * * * * * //

dimensions      [0 3 -1 0 0 0 0];

internalField   nonuniform List<scalar> 
4432
(
-1.73046e-07
1.73046e-07
6.73281e-09
-1.79783e-07
3.27415e-07
-3.20678e-07
6.94055e-07
-3.66643e-07
1.07219e-06
-3.78136e-07
1.43603e-06
-3.6385e-07
1.76837e-06
-3.32342e-07
2.05881e-06
-2.90439e-07
2.29975e-06
-2.40944e-07
2.48631e-06
-1.86559e-07
2.61927e-06
-1.32966e-07
2.70554e-06
-8.62711e-08
2.75755e-06
-5.20118e-08
2.7958e-06
-3.82563e-08
2.84715e-06
-5.13502e-08
2.93888e-06
-9.17222e-08
3.03701e-06
-9.81269e-08
2.52599e-06
5.1102e-07
1.48952e-06
1.03647e-06
6.13073e-07
8.76442e-07
2.8318e-07
3.29892e-07
1.79565e-07
1.03615e-07
1.79572e-07
1.98709e-08
1.53181e-07
2.03142e-07
-3.63062e-07
4.93994e-07
-6.11531e-07
8.40183e-07
-7.12839e-07
1.20397e-06
-7.41926e-07
1.55886e-06
-7.18752e-07
1.88686e-06
-6.60342e-07
2.17627e-06
-5.79854e-07
2.41834e-06
-4.83014e-07
2.60696e-06
-3.75187e-07
2.74122e-06
-2.67221e-07
2.82553e-06
-1.70581e-07
2.86718e-06
-9.36686e-08
2.87566e-06
-4.67322e-08
2.85861e-06
-3.4302e-08
2.8111e-06
-4.42086e-08
2.67315e-06
3.98217e-08
2.30634e-06
8.77825e-07
1.78324e-06
1.55957e-06
1.14443e-06
1.51524e-06
6.41471e-07
8.32861e-07
3.14446e-07
4.30639e-07
4.94014e-07
1.33092e-07
2.00921e-08
3.35255e-07
-5.65231e-07
6.06858e-07
-8.83133e-07
9.26298e-07
-1.03229e-06
1.26457e-06
-1.0802e-06
1.5974e-06
-1.05159e-06
1.90774e-06
-9.70681e-07
2.18421e-06
-8.56331e-07
2.41765e-06
-7.16447e-07
2.60092e-06
-5.58456e-07
2.73164e-06
-3.97933e-07
2.8119e-06
-2.50841e-07
2.84493e-06
-1.26703e-07
2.83318e-06
-3.49811e-08
2.77446e-06
2.44254e-08
2.64901e-06
8.12458e-08
2.41305e-06
2.75778e-07
2.16951e-06
1.12136e-06
1.8446e-06
1.88448e-06
1.43609e-06
1.92374e-06
9.49763e-07
1.31919e-06
4.6298e-07
9.17413e-07
9.56988e-07
1.94761e-07
-1.74667e-07
4.22462e-07
-7.92936e-07
6.83421e-07
-1.14409e-06
9.79344e-07
-1.32821e-06
1.29209e-06
-1.39295e-06
1.60095e-06
-1.36045e-06
1.89086e-06
-1.26059e-06
2.15174e-06
-1.11721e-06
2.37441e-06
-9.39119e-07
2.55081e-06
-7.34849e-07
2.67733e-06
-5.24455e-07
2.75422e-06
-3.27735e-07
2.78134e-06
-1.53827e-07
2.75747e-06
-1.11081e-08
2.67559e-06
1.06306e-07
2.5163e-06
2.4054e-07
2.26144e-06
5.30629e-07
2.07375e-06
1.30905e-06
1.89224e-06
2.06599e-06
1.63105e-06
2.18493e-06
1.17842e-06
1.77183e-06
6.18447e-07
1.47738e-06
1.57544e-06
2.29548e-07
-4.04214e-07
4.7388e-07
-1.03727e-06
7.2602e-07
-1.39623e-06
1.001e-06
-1.60319e-06
1.28951e-06
-1.68146e-06
1.57433e-06
-1.64527e-06
1.843e-06
-1.52926e-06
2.08746e-06
-1.36166e-06
2.29889e-06
-1.15055e-06
2.46828e-06
-9.04245e-07
2.59113e-06
-6.47308e-07
2.66642e-06
-4.03031e-07
2.69147e-06
-1.78879e-07
2.66289e-06
1.7469e-08
2.57388e-06
1.95319e-07
2.41164e-06
4.02787e-07
2.18364e-06
7.58624e-07
2.0244e-06
1.4683e-06
1.92864e-06
2.16175e-06
1.74864e-06
2.36494e-06
1.3448e-06
2.17568e-06
7.60012e-07
2.06217e-06
2.33546e-06
2.47915e-07
-6.52127e-07
4.95914e-07
-1.28527e-06
7.35603e-07
-1.63592e-06
9.89959e-07
-1.85755e-06
1.25511e-06
-1.9466e-06
1.51614e-06
-1.9063e-06
1.76336e-06
-1.77648e-06
1.99131e-06
-1.58961e-06
2.19177e-06
-1.351e-06
2.35477e-06
-1.06725e-06
2.47522e-06
-7.67757e-07
2.55146e-06
-4.79271e-07
2.57874e-06
-2.06159e-07
2.55282e-06
4.33877e-08
2.46944e-06
2.78703e-07
2.32406e-06
5.48162e-07
2.13713e-06
9.45554e-07
2.01096e-06
1.59448e-06
1.95053e-06
2.22218e-06
1.81868e-06
2.4968e-06
1.4856e-06
2.50876e-06
9.08116e-07
2.63965e-06
3.24357e-06
2.56639e-07
-9.08765e-07
4.93791e-07
-1.52241e-06
7.14283e-07
-1.8564e-06
9.46267e-07
-2.08952e-06
1.18797e-06
-2.1883e-06
1.42516e-06
-2.14349e-06
1.6508e-06
-2.00211e-06
1.86243e-06
-1.80124e-06
2.05254e-06
-1.54111e-06
2.21016e-06
-1.22486e-06
2.32989e-06
-8.87488e-07
2.40998e-06
-5.59354e-07
2.44391e-06
-2.4009e-07
2.42721e-06
6.00883e-08
2.3588e-06
3.47109e-07
2.24087e-06
6.66092e-07
2.09775e-06
1.08867e-06
2.00542e-06
1.68682e-06
1.96758e-06
2.26001e-06
1.8827e-06
2.58168e-06
1.64084e-06
2.75062e-06
1.10042e-06
3.18006e-06
4.34399e-06
2.60599e-07
-1.16936e-06
4.74049e-07
-1.73586e-06
6.66466e-07
-2.04882e-06
8.72643e-07
-2.2957e-06
1.0899e-06
-2.40556e-06
1.30272e-06
-2.35631e-06
1.50648e-06
-2.20588e-06
1.70211e-06
-1.99687e-06
1.88268e-06
-1.72168e-06
2.03598e-06
-1.37817e-06
2.15674e-06
-1.00824e-06
2.24357e-06
-6.46189e-07
2.28824e-06
-2.84755e-07
2.2861e-06
6.22229e-08
2.23914e-06
3.94067e-07
2.15395e-06
7.51287e-07
2.05403e-06
1.18859e-06
1.99553e-06
1.74532e-06
1.98436e-06
2.27119e-06
1.9554e-06
2.61065e-06
1.83697e-06
2.86904e-06
1.49082e-06
3.5262e-06
5.8348e-06
1.74151e-06
-1.74151e-06
3.64774e-06
-1.90623e-06
4.87512e-06
-1.22738e-06
5.49995e-06
-6.24833e-07
5.68384e-06
-1.83885e-07
5.4604e-06
2.23442e-07
4.62357e-06
8.36822e-07
3.02585e-06
1.59773e-06
1.38019e-06
1.64566e-06
7.7695e-07
6.03237e-07
4.98827e-07
2.78133e-07
-6.05916e-07
1.10475e-06
-1.3186e-06
7.12676e-07
-6.09129e-07
-7.0947e-07
1.40336e-06
-2.01248e-06
3.01291e-06
-1.60956e-06
2.88775e-06
1.25166e-07
1.25583e-06
1.63193e-06
1.25583e-06
2.13364e-06
-3.87515e-06
3.32572e-06
-3.09832e-06
4.01593e-06
-1.91759e-06
4.35871e-06
-9.6762e-07
4.46537e-06
-2.90547e-07
4.28794e-06
4.00878e-07
3.55853e-06
1.56623e-06
2.38102e-06
2.77523e-06
1.26483e-06
2.76187e-06
5.77459e-07
1.29059e-06
1.36189e-07
7.19397e-07
-3.66681e-07
1.60762e-06
-6.32338e-07
9.78337e-07
-2.09926e-07
-1.13189e-06
9.32476e-07
-3.15488e-06
2.09171e-06
-2.76879e-06
2.14772e-06
6.91592e-08
1.23342e-06
2.54623e-06
2.48925e-06
1.98469e-06
-5.85984e-06
2.84415e-06
-3.95778e-06
3.30244e-06
-2.37588e-06
3.51488e-06
-1.18006e-06
3.57315e-06
-3.48815e-07
3.39281e-06
5.81222e-07
2.76345e-06
2.19559e-06
1.91657e-06
3.6221e-06
1.14836e-06
3.53008e-06
4.95809e-07
1.94315e-06
8.77545e-08
1.12745e-06
-8.69811e-08
1.78236e-06
-1.71175e-07
1.06253e-06
1.27244e-08
-1.31579e-06
4.78912e-07
-3.62106e-06
1.35198e-06
-3.64186e-06
1.72597e-06
-3.04821e-07
1.09776e-06
3.17445e-06
3.58702e-06
1.56878e-06
-7.42862e-06
2.26581e-06
-4.65482e-06
2.63305e-06
-2.74312e-06
2.78885e-06
-1.33586e-06
2.83684e-06
-3.96806e-07
2.70922e-06
7.08843e-07
2.21337e-06
2.69144e-06
1.62651e-06
4.20894e-06
1.09672e-06
4.05988e-06
5.26026e-07
2.51384e-06
1.82099e-07
1.47138e-06
2.00812e-07
1.76364e-06
2.26226e-07
1.03712e-06
1.3081e-07
-1.22039e-06
8.35289e-08
-3.57377e-06
5.89087e-07
-4.14741e-06
1.41211e-06
-1.12784e-06
1.19443e-06
3.39213e-06
4.78144e-06
1.0783e-06
-8.50692e-06
1.6907e-06
-5.26723e-06
2.01597e-06
-3.06838e-06
2.13688e-06
-1.45677e-06
2.19383e-06
-4.53753e-07
2.15395e-06
7.48721e-07
1.82048e-06
3.02492e-06
1.44954e-06
4.57988e-06
1.11294e-06
4.39648e-06
6.67548e-07
2.95924e-06
4.11448e-07
1.72747e-06
5.26375e-07
1.64871e-06
5.59821e-07
1.00367e-06
2.29691e-07
-8.90261e-07
-2.25074e-07
-3.119e-06
-1.68037e-07
-4.20445e-06
8.19956e-07
-2.11583e-06
1.49772e-06
2.71437e-06
6.27917e-06
6.44585e-07
-9.15151e-06
1.20469e-06
-5.82733e-06
1.4768e-06
-3.34049e-06
1.55312e-06
-1.53309e-06
1.61441e-06
-5.1505e-07
1.67893e-06
6.84198e-07
1.53064e-06
3.17322e-06
1.36849e-06
4.74203e-06
1.21217e-06
4.5528e-06
9.19914e-07
3.2515e-06
7.70075e-07
1.87731e-06
8.91558e-07
1.52723e-06
8.5346e-07
1.04177e-06
3.73232e-07
-4.10036e-07
-3.37929e-07
-2.40784e-06
-7.37693e-07
-3.80468e-06
-1.32449e-07
-2.72107e-06
1.30478e-06
1.27714e-06
7.58395e-06
4.31262e-07
-9.58277e-06
8.67101e-07
-6.26318e-06
1.03608e-06
-3.50948e-06
1.04117e-06
-1.53818e-06
1.07454e-06
-5.48423e-07
1.22762e-06
5.31112e-07
1.28041e-06
3.12044e-06
1.40402e-06
4.61842e-06
1.40881e-06
4.54802e-06
1.24728e-06
3.41303e-06
1.2301e-06
1.89449e-06
1.29197e-06
1.46535e-06
1.16801e-06
1.16574e-06
5.97685e-07
1.60285e-07
-2.69045e-07
-1.5411e-06
-9.71704e-07
-3.10202e-06
-1.02154e-06
-2.67122e-06
7.36856e-08
1.81914e-07
7.65764e-06
7.43663e-07
-1.03264e-05
7.19655e-07
-6.23917e-06
7.00392e-07
-3.49022e-06
6.0894e-07
-1.44672e-06
5.93981e-07
-5.33456e-07
7.49508e-07
3.75588e-07
1.06155e-06
2.8084e-06
1.4767e-06
4.20326e-06
1.64928e-06
4.37544e-06
1.68617e-06
3.37614e-06
1.71326e-06
1.86739e-06
1.69956e-06
1.47905e-06
1.51769e-06
1.3476e-06
9.17712e-07
7.60264e-07
-8.34946e-09
-6.15043e-07
-9.11173e-07
-2.1992e-06
-1.53576e-06
-2.04664e-06
-1.46723e-06
1.13388e-07
6.19041e-06
5.88922e-07
-1.75828e-06
9.11375e-07
-2.05831e-06
1.18964e-06
-2.32708e-06
1.52908e-06
-2.63514e-06
1.90746e-06
-2.78394e-06
2.27596e-06
-2.7248e-06
2.6344e-06
-2.56432e-06
2.99944e-06
-2.36191e-06
3.3567e-06
-2.07894e-06
3.67149e-06
-1.69296e-06
3.93479e-06
-1.27155e-06
4.15275e-06
-8.64148e-07
4.29425e-06
-4.2626e-07
4.34903e-06
7.4404e-09
4.33432e-06
4.0877e-07
4.26958e-06
8.16027e-07
4.19545e-06
1.26272e-06
4.18568e-06
1.75509e-06
4.26525e-06
2.19162e-06
4.41277e-06
2.46311e-06
4.69333e-06
2.58848e-06
5.51797e-06
2.70156e-06
2.86524e-06
8.48754e-06
4.77052e-07
-2.23533e-06
6.13033e-07
-2.19429e-06
7.47713e-07
-2.46176e-06
9.54178e-07
-2.84162e-06
1.20035e-06
-3.03013e-06
1.45843e-06
-2.98289e-06
1.73742e-06
-2.84332e-06
2.04485e-06
-2.66935e-06
2.36992e-06
-2.40401e-06
2.67902e-06
-2.00206e-06
2.96942e-06
-1.56195e-06
3.2394e-06
-1.13412e-06
3.4556e-06
-6.42455e-07
3.59159e-06
-1.28552e-07
3.70212e-06
2.98243e-07
3.78919e-06
7.28963e-07
3.88574e-06
1.16617e-06
4.02156e-06
1.61928e-06
4.21556e-06
1.99761e-06
4.48136e-06
2.1973e-06
4.89688e-06
2.17294e-06
5.58618e-06
2.01227e-06
1.65328e-06
6.79816e-06
-3.14361e-07
-1.92096e-06
1.16724e-07
-2.62536e-06
3.55049e-07
-2.70006e-06
1.16038e-07
-2.60257e-06
-7.23353e-08
-2.84172e-06
1.2139e-07
-3.17658e-06
5.30886e-07
-3.25279e-06
8.54247e-07
-2.99269e-06
1.12135e-06
-2.6711e-06
1.54481e-06
-2.42553e-06
1.97665e-06
-1.99379e-06
2.30102e-06
-1.45851e-06
2.62156e-06
-9.63016e-07
2.91409e-06
-4.21094e-07
3.13298e-06
7.93407e-08
3.3422e-06
5.19743e-07
3.58365e-06
9.24708e-07
3.87404e-06
1.3289e-06
4.24753e-06
1.62411e-06
4.65786e-06
1.78697e-06
5.08428e-06
1.74651e-06
5.61253e-06
1.48401e-06
9.69957e-07
6.29585e-06
-5.48326e-06
3.56227e-06
1.67149e-06
-9.78009e-06
3.03177e-06
-4.06041e-06
2.77305e-07
1.51869e-07
-2.5039e-06
-6.0533e-08
-1.81914e-06
-3.86137e-06
-2.33204e-07
-4.83878e-06
1.37277e-07
-3.3632e-06
-6.50002e-07
-1.88382e-06
4.23323e-07
-3.49886e-06
1.33358e-06
-2.90405e-06
1.3014e-06
-1.42632e-06
1.81503e-06
-1.47664e-06
2.22436e-06
-8.30409e-07
2.58714e-06
-2.8342e-07
2.97526e-06
1.31635e-07
3.32245e-06
5.77522e-07
3.70941e-06
9.41942e-07
4.58811e-06
7.4541e-07
5.63808e-06
7.37007e-07
5.95664e-06
1.42796e-06
5.97256e-06
1.46809e-06
3.27798e-07
6.61469e-06
-2.35096e-06
5.9133e-06
7.87123e-06
-2.00022e-05
1.20647e-05
-8.254e-06
-1.18704e-06
1.34035e-05
-1.48223e-05
1.35745e-05
-1.28087e-05
-5.87508e-06
-7.56371e-06
-1.00838e-05
-4.26673e-06
-6.66025e-06
-4.55492e-06
-1.59572e-06
-1.02058e-06
-7.03323e-06
2.07028e-06
-5.99494e-06
4.17052e-06
-3.52659e-06
5.45635e-06
-2.76247e-06
6.36294e-06
-1.73698e-06
7.71778e-06
-1.63825e-06
9.33855e-06
-1.48912e-06
9.25348e-06
6.62591e-07
7.70541e-06
2.48998e-06
8.66257e-06
-2.11786e-07
1.10587e-05
-1.6591e-06
9.93093e-06
2.55566e-06
3.81119e-06
7.58788e-06
-6.61997e-07
4.80107e-06
7.16385e-06
-1.25058e-06
4.49124e-06
-1.73296e-05
6.24799e-06
-1.00107e-05
4.33017e-06
1.53213e-05
5.36774e-07
1.73679e-05
-8.68538e-07
-4.46977e-06
6.42008e-07
-1.15943e-05
2.9487e-06
-8.96697e-06
4.58706e-06
-3.23411e-06
3.92198e-06
-6.36813e-06
4.28044e-06
-6.35341e-06
5.498e-06
-4.74418e-06
6.24632e-06
-3.51083e-06
7.80339e-06
-3.2941e-06
9.97963e-06
-3.81454e-06
1.285e-05
-4.35949e-06
1.54974e-05
-1.98481e-06
1.46164e-05
3.37093e-06
1.36246e-05
7.79989e-07
1.41483e-05
-2.18275e-06
1.13484e-05
5.35561e-06
4.07395e-06
1.48624e-05
-1.8666e-06
5.27866e-06
5.48282e-06
-6.73343e-06
-1.79809e-06
-1.00488e-05
-2.85705e-06
-8.95167e-06
6.58241e-06
5.88174e-06
1.5462e-05
8.48811e-06
1.21068e-05
-1.11455e-06
9.59768e-06
-9.08528e-06
8.79104e-06
-8.16036e-06
9.7051e-06
-4.14823e-06
6.79855e-06
-3.46162e-06
5.0625e-06
-4.61737e-06
4.50684e-06
-4.18854e-06
4.26021e-06
-3.26421e-06
5.07386e-06
-4.10774e-06
6.73341e-06
-5.47407e-06
8.48689e-06
-6.11296e-06
1.21028e-05
-5.60059e-06
1.71198e-05
-1.64603e-06
1.72803e-05
6.19574e-07
1.37517e-05
1.34581e-06
9.88258e-06
9.22492e-06
1.08097e-05
1.39351e-05
5.65123e-08
8.88654e-06
3.85103e-06
-1.05845e-05
-2.38411e-06
-3.81384e-06
-2.41466e-06
-8.9211e-06
7.06319e-06
-3.59617e-06
1.73247e-05
-1.77339e-06
1.92929e-05
-3.08283e-06
1.39988e-05
-3.79117e-06
9.87761e-06
-4.03908e-06
8.22685e-06
-2.49739e-06
7.11e-06
-2.34474e-06
5.05685e-06
-2.56418e-06
2.9367e-06
-2.06834e-06
1.40128e-06
-1.72876e-06
1.08625e-06
-3.79269e-06
1.54659e-06
-5.93437e-06
2.303e-06
-6.86935e-06
4.59604e-06
-7.89358e-06
8.904e-06
-5.95387e-06
1.27724e-05
-3.24873e-06
1.41775e-05
-5.9522e-08
1.46734e-05
8.72929e-06
1.6121e-05
1.24876e-05
5.63527e-06
1.05422e-05
2.06995e-06
-1.26544e-05
3.86569e-06
-5.6097e-06
2.41071e-06
-7.46617e-06
6.58759e-06
-7.77304e-06
1.17101e-05
-6.8959e-06
1.21497e-05
-3.52241e-06
1.03274e-05
-1.96882e-06
7.70924e-06
-1.42084e-06
6.05679e-06
-8.44883e-07
4.46304e-06
-7.50924e-07
2.75398e-06
-8.55027e-07
1.4279e-06
-7.42121e-07
8.83143e-07
-1.18388e-06
2.49315e-07
-3.15882e-06
-6.50267e-07
-5.03475e-06
-7.50046e-07
-6.76951e-06
-3.00766e-07
-8.34278e-06
1.17243e-06
-7.42698e-06
4.06306e-06
-6.13927e-06
6.67421e-06
-2.67071e-06
9.80864e-06
5.59504e-06
1.07496e-05
1.15468e-05
9.3254e-06
7.05969e-06
1.71511e-06
-1.43694e-05
4.35072e-06
-8.24543e-06
4.69796e-06
-7.81347e-06
4.59921e-06
-7.67426e-06
4.02615e-06
-6.3228e-06
3.98533e-06
-3.48154e-06
3.35732e-06
-1.34077e-06
2.26006e-06
-3.2355e-07
1.24477e-06
1.70408e-07
2.48443e-07
2.45396e-07
-6.81826e-07
7.52353e-08
-1.19877e-06
-2.25197e-07
-1.30087e-06
-1.08182e-06
-1.64434e-06
-2.81545e-06
-1.99022e-06
-4.68895e-06
-2.38045e-06
-6.37933e-06
-3.24789e-06
-7.47536e-06
-3.7018e-06
-6.97308e-06
-3.33945e-06
-6.5016e-06
-2.5563e-06
-3.45399e-06
-3.38477e-07
3.37714e-06
1.55197e-06
9.6563e-06
9.80716e-06
1.0701e-06
-1.05532e-07
-1.42638e-05
8.07901e-07
-9.15896e-06
4.78526e-07
-7.48416e-06
-6.03229e-07
-6.5925e-06
-1.85546e-06
-5.07053e-06
-2.55249e-06
-2.78448e-06
-2.97425e-06
-9.18993e-07
-3.46689e-06
1.69093e-07
-3.97687e-06
6.80358e-07
-4.46209e-06
7.30588e-07
-4.85419e-06
4.673e-07
-4.99599e-06
-8.34451e-08
-4.97884e-06
-1.09906e-06
-5.14052e-06
-2.65392e-06
-5.52133e-06
-4.30823e-06
-6.17384e-06
-5.72686e-06
-7.09327e-06
-6.55603e-06
-7.66882e-06
-6.39764e-06
-8.75165e-06
-5.41875e-06
-9.55493e-06
-2.65073e-06
-8.52311e-06
2.34528e-06
-6.03983e-06
7.17294e-06
8.54126e-06
-4.7741e-06
-1.97247e-06
-1.22913e-05
-2.76785e-06
-8.3636e-06
-3.82539e-06
-6.42663e-06
-5.28509e-06
-5.13278e-06
-6.69268e-06
-3.66285e-06
-7.56876e-06
-1.9083e-06
-8.0437e-06
-4.43978e-07
-8.36677e-06
4.9223e-07
-8.61219e-06
9.25818e-07
-8.80135e-06
9.19813e-07
-8.89812e-06
5.64164e-07
-8.86789e-06
-1.13602e-07
-8.8044e-06
-1.16254e-06
-8.92909e-06
-2.52926e-06
-9.31412e-06
-3.92319e-06
-9.98324e-06
-5.0576e-06
-1.08915e-05
-5.64771e-06
-1.18702e-05
-5.41902e-06
-1.29668e-05
-4.32213e-06
-1.36927e-05
-1.92478e-06
-1.30865e-05
1.73909e-06
-1.10724e-05
5.15904e-06
6.75876e-06
-9.28976e-06
-3.34869e-06
-8.94266e-06
-5.39953e-06
-6.3127e-06
-7.1327e-06
-4.69343e-06
-8.80227e-06
-3.46312e-06
-1.02366e-05
-2.2284e-06
-1.11982e-05
-9.46644e-07
-1.17582e-05
1.16138e-07
-1.20647e-05
7.98897e-07
-1.22148e-05
1.07598e-06
-1.22635e-05
9.68527e-07
-1.22275e-05
5.28239e-07
-1.21313e-05
-2.09693e-07
-1.2073e-05
-1.22075e-06
-1.21943e-05
-2.40804e-06
-1.256e-05
-3.5575e-06
-1.31798e-05
-4.4377e-06
-1.40032e-05
-4.8243e-06
-1.48942e-05
-4.52795e-06
-1.57462e-05
-3.47014e-06
-1.61566e-05
-1.51436e-06
-1.55477e-05
1.13012e-06
-1.39967e-05
3.60813e-06
5.06564e-06
-1.23036e-05
-4.12945e-06
-4.8133e-06
-6.95546e-06
-3.48666e-06
-9.16441e-06
-2.4845e-06
-1.10121e-05
-1.61544e-06
-1.24861e-05
-7.54247e-07
-1.35151e-05
8.23228e-08
-1.41488e-05
7.49947e-07
-1.44921e-05
1.14222e-06
-1.46334e-05
1.2172e-06
-1.46424e-05
9.77437e-07
-1.45693e-05
4.5524e-07
-1.44706e-05
-3.08371e-07
-1.44333e-05
-1.25804e-06
-1.45526e-05
-2.28889e-06
-1.48752e-05
-3.23505e-06
-1.53964e-05
-3.91655e-06
-1.60546e-05
-4.166e-06
-1.67259e-05
-3.85662e-06
-1.72595e-05
-2.93645e-06
-1.73686e-05
-1.40521e-06
-1.67613e-05
5.22927e-07
-1.55005e-05
2.34742e-06
3.59178e-06
-1.40266e-05
-4.41932e-06
-3.93988e-07
-7.61974e-06
-2.86239e-07
-1.00939e-05
-1.03655e-08
-1.20586e-05
3.49321e-07
-1.35745e-05
7.61597e-07
-1.46513e-05
1.15916e-06
-1.53441e-05
1.44275e-06
-1.57344e-05
1.53253e-06
-1.59045e-05
1.38717e-06
-1.59284e-05
1.00126e-06
-1.58711e-05
3.97868e-07
-1.57985e-05
-3.80998e-07
-1.57843e-05
-1.27217e-06
-1.58943e-05
-2.17892e-06
-1.61574e-05
-2.97203e-06
-1.65581e-05
-3.51588e-06
-1.70333e-05
-3.69085e-06
-1.7474e-05
-3.41582e-06
-1.77408e-05
-2.66958e-06
-1.76476e-05
-1.49839e-06
-1.70472e-05
-7.7323e-08
-1.59916e-05
1.29193e-06
2.33368e-06
-1.47335e-05
-4.34967e-06
3.95576e-06
-7.62661e-06
2.99073e-06
-1.01783e-05
2.54134e-06
-1.21765e-05
2.34763e-06
-1.37022e-05
2.28736e-06
-1.47991e-05
2.25616e-06
-1.55267e-05
2.17035e-06
-1.59574e-05
1.96321e-06
-1.6167e-05
1.59664e-06
-1.6228e-05
1.06221e-06
-1.62079e-05
3.7764e-07
-1.61707e-05
-4.18157e-07
-1.61771e-05
-1.26576e-06
-1.62727e-05
-2.08316e-06
-1.64735e-05
-2.77122e-06
-1.67588e-05
-3.23051e-06
-1.70711e-05
-3.37842e-06
-1.73211e-05
-3.16576e-06
-1.73995e-05
-2.59119e-06
-1.71882e-05
-1.70961e-06
-1.66142e-05
-6.51259e-07
-1.57175e-05
3.95301e-07
1.26543e-06
-1.46492e-05
-4.03676e-06
7.9926e-06
-7.17885e-06
6.13289e-06
-9.65846e-06
5.02105e-06
-1.16036e-05
4.29288e-06
-1.30883e-05
3.77219e-06
-1.41682e-05
3.33613e-06
-1.49026e-05
2.9048e-06
-1.53576e-05
2.41813e-06
-1.56018e-05
1.84083e-06
-1.57028e-05
1.16308e-06
-1.57235e-05
3.98284e-07
-1.57213e-05
-4.20369e-07
-1.57447e-05
-1.24231e-06
-1.58259e-05
-2.00186e-06
-1.59722e-05
-2.62476e-06
-1.61627e-05
-3.03993e-06
-1.63489e-05
-3.192e-06
-1.64616e-05
-3.05298e-06
-1.64213e-05
-2.63137e-06
-1.61541e-05
-1.9768e-06
-1.56222e-05
-1.18299e-06
-1.48561e-05
-3.70785e-07
3.56295e-07
-1.39469e-05
-3.57011e-06
1.15627e-05
-6.43282e-06
8.99568e-06
-8.72814e-06
7.31645e-06
-1.05422e-05
6.10704e-06
-1.19343e-05
5.16433e-06
-1.29592e-05
4.36118e-06
-1.3672e-05
3.61756e-06
-1.41312e-05
2.87738e-06
-1.43979e-05
2.10746e-06
-1.45318e-05
1.29688e-06
-1.45884e-05
4.54871e-07
-1.46166e-05
-3.92301e-07
-1.46544e-05
-1.2045e-06
-1.47246e-05
-1.93157e-06
-1.48299e-05
-2.51936e-06
-1.49513e-05
-2.91841e-06
-1.50504e-05
-3.0928e-06
-1.50753e-05
-3.028e-06
-1.49702e-05
-2.7363e-06
-1.46885e-05
-2.25848e-06
-1.421e-05
-1.66139e-06
-1.3556e-05
-1.02478e-06
-4.17077e-07
-1.27826e-05
-3.02031e-06
1.4583e-05
-5.50824e-06
1.14837e-05
-7.53622e-06
9.34448e-06
-9.1563e-06
7.72715e-06
-1.0412e-05
6.42004e-06
-1.13491e-05
5.29835e-06
-1.20145e-05
4.28302e-06
-1.24584e-05
3.32133e-06
-1.27329e-05
2.38193e-06
-1.2889e-05
1.45286e-06
-1.29734e-05
5.39268e-07
-1.30262e-05
-3.39631e-07
-1.30768e-05
-1.1539e-06
-1.31415e-05
-1.86688e-06
-1.32204e-05
-2.44043e-06
-1.32975e-05
-2.84121e-06
-1.33434e-05
-3.0469e-06
-1.332e-05
-3.05134e-06
-1.31887e-05
-2.86756e-06
-1.29193e-05
-2.52787e-06
-1.25004e-05
-2.08027e-06
-1.19459e-05
-1.57921e-06
-1.072e-06
-1.1291e-05
-2.43156e-06
1.70146e-05
-4.4887e-06
1.35409e-05
-6.19322e-06
1.1049e-05
-7.57514e-06
9.10908e-06
-8.66214e-06
7.50702e-06
-9.48628e-06
6.12248e-06
-1.0084e-05
4.88078e-06
-1.04959e-05
3.73325e-06
-1.07646e-05
2.65059e-06
-1.09318e-05
1.62007e-06
-1.10357e-05
6.43091e-07
-1.11077e-05
-2.67611e-07
-1.11705e-05
-1.09115e-06
-1.12353e-05
-1.8021e-06
-1.1301e-05
-2.37471e-06
-1.13547e-05
-2.78751e-06
-1.1374e-05
-3.02761e-06
-1.13313e-05
-3.09399e-06
-1.11997e-05
-2.99916e-06
-1.09591e-05
-2.76849e-06
-1.06022e-05
-2.43707e-06
-1.0138e-05
-2.04342e-06
-1.62173e-06
-9.58828e-06
-1.82686e-06
1.88416e-05
-3.42636e-06
1.51406e-05
-4.77866e-06
1.24014e-05
-5.89816e-06
1.02286e-05
-6.79684e-06
8.40568e-06
-7.4919e-06
6.8175e-06
-8.00796e-06
5.39681e-06
-8.37537e-06
4.10066e-06
-8.62721e-06
2.90245e-06
-8.79629e-06
1.78916e-06
-8.91228e-06
7.59108e-07
-8.99933e-06
-1.80543e-07
-9.07399e-06
-1.01647e-06
-9.14387e-06
-1.7322e-06
-9.20712e-06
-2.31143e-06
-9.25329e-06
-2.74132e-06
-9.26542e-06
-3.01546e-06
-9.22341e-06
-3.13599e-06
-9.10813e-06
-3.11444e-06
-8.90566e-06
-2.97095e-06
-8.61092e-06
-2.73181e-06
-8.22905e-06
-2.42528e-06
-2.07709e-06
-7.77369e-06
-1.21038e-06
2.0052e-05
-2.35327e-06
1.62835e-05
-3.34772e-06
1.33959e-05
-4.19897e-06
1.10798e-05
-4.90382e-06
9.11049e-06
-5.46307e-06
7.3767e-06
-5.88998e-06
5.82367e-06
-6.20507e-06
4.41572e-06
-6.43238e-06
3.12977e-06
-6.5963e-06
1.95312e-06
-6.71885e-06
8.81706e-07
-6.8176e-06
-8.17404e-08
-6.90406e-06
-9.29947e-07
-6.98285e-06
-1.65336e-06
-7.05154e-06
-2.2427e-06
-7.1015e-06
-2.69132e-06
-7.11971e-06
-2.99722e-06
-7.09122e-06
-3.16446e-06
-7.00209e-06
-3.20355e-06
-6.84225e-06
-3.13078e-06
-6.60765e-06
-2.96641e-06
-6.30099e-06
-2.73194e-06
-2.44746e-06
-5.93062e-06
-5.6035e-07
2.06124e-05
-1.27685e-06
1.70001e-05
-1.94039e-06
1.40595e-05
-2.53662e-06
1.16761e-05
-3.05337e-06
9.6272e-06
-3.47808e-06
7.80135e-06
-3.814e-06
6.15953e-06
-4.07304e-06
4.67473e-06
-4.27115e-06
3.32788e-06
-4.42512e-06
2.10711e-06
-4.55015e-06
1.00678e-06
-4.65805e-06
2.62165e-08
-4.75606e-06
-8.31877e-07
-4.84624e-06
-1.56313e-06
-4.92555e-06
-2.16334e-06
-4.98662e-06
-2.63021e-06
-5.01913e-06
-2.96469e-06
-5.01164e-06
-3.17194e-06
-4.95367e-06
-3.26152e-06
-4.83754e-06
-3.24691e-06
-4.65976e-06
-3.14419e-06
-4.42139e-06
-2.97031e-06
-2.74144e-06
-4.12742e-06
1.40018e-07
2.04724e-05
-2.01104e-07
1.73412e-05
-5.8892e-07
1.44472e-05
-9.61708e-07
1.20488e-05
-1.30416e-06
9.9696e-06
-1.60087e-06
8.098e-06
-1.84789e-06
6.40648e-06
-2.05018e-06
4.87698e-06
-2.21671e-06
3.4944e-06
-2.3576e-06
2.24801e-06
-2.48206e-06
1.13127e-06
-2.59692e-06
1.41114e-07
-2.70572e-06
-7.23041e-07
-2.80831e-06
-1.46051e-06
-2.90097e-06
-2.07065e-06
-2.9771e-06
-2.55406e-06
-3.02819e-06
-2.91359e-06
-3.04519e-06
-3.15494e-06
-3.01988e-06
-3.28684e-06
-2.94614e-06
-3.32065e-06
-2.82081e-06
-3.26953e-06
-2.64388e-06
-3.14724e-06
-2.96717e-06
-2.41815e-06
8.27862e-07
1.96446e-05
7.95031e-07
1.73739e-05
6.57976e-07
1.45843e-05
4.7877e-07
1.2228e-05
2.92971e-07
1.01554e-05
1.15633e-07
8.2753e-06
-4.64983e-08
6.56858e-06
-1.9293e-07
5.02339e-06
-3.26741e-07
3.6282e-06
-4.52277e-07
2.37356e-06
-5.73531e-07
1.25254e-06
-6.93012e-07
2.60606e-07
-8.11052e-07
-6.04996e-07
-9.25548e-07
-1.34601e-06
-1.0321e-06
-1.9641e-06
-1.12447e-06
-2.46169e-06
-1.19538e-06
-2.8427e-06
-1.23735e-06
-3.11298e-06
-1.24371e-06
-3.2805e-06
-1.20936e-06
-3.35501e-06
-1.13135e-06
-3.34755e-06
-1.00899e-06
-3.2696e-06
-3.13253e-06
-8.43631e-07
1.30261e-06
1.83419e-05
1.63774e-06
1.70387e-05
1.73307e-06
1.44889e-05
1.73336e-06
1.22276e-05
1.69295e-06
1.01957e-05
1.62772e-06
8.34052e-06
1.54672e-06
6.64957e-06
1.45508e-06
5.11505e-06
1.35491e-06
3.72839e-06
1.24694e-06
2.48154e-06
1.13174e-06
1.36776e-06
1.01056e-06
3.81798e-07
8.85824e-07
-4.80272e-07
7.61378e-07
-1.22158e-06
6.42329e-07
-1.84507e-06
5.3474e-07
-2.35413e-06
4.45132e-07
-2.75311e-06
3.79882e-07
-3.04776e-06
3.4463e-07
-3.24527e-06
3.43757e-07
-3.35415e-06
3.80055e-07
-3.38385e-06
4.54682e-07
-3.34422e-06
-3.24508e-06
5.67236e-07
1.56464e-06
1.67772e-05
2.23811e-06
1.63652e-05
2.57214e-06
1.41548e-05
2.75643e-06
1.20433e-05
2.85849e-06
1.00937e-05
2.90145e-06
8.29758e-06
2.89949e-06
6.65157e-06
2.86251e-06
5.15207e-06
2.79752e-06
3.79343e-06
2.70985e-06
2.56926e-06
2.60412e-06
1.47351e-06
2.48489e-06
5.01044e-07
2.35702e-06
-3.52408e-07
2.22588e-06
-1.09045e-06
2.09725e-06
-1.71646e-06
1.97719e-06
-2.23408e-06
1.87169e-06
-2.64764e-06
1.78639e-06
-2.96248e-06
1.72617e-06
-3.18507e-06
1.69493e-06
-3.32291e-06
1.69535e-06
-3.38427e-06
1.72889e-06
-3.37775e-06
-3.31203e-06
1.79584e-06
1.62195e-06
1.51552e-05
2.57469e-06
1.54124e-05
3.15018e-06
1.35792e-05
3.52292e-06
1.16706e-05
3.7669e-06
9.84971e-06
3.91662e-06
8.1479e-06
3.99305e-06
6.5752e-06
4.01148e-06
5.13372e-06
3.98377e-06
3.82122e-06
3.9196e-06
2.6335e-06
3.82725e-06
1.56591e-06
3.71422e-06
6.14109e-07
3.5875e-06
-2.25675e-07
3.4538e-06
-9.56742e-07
3.31955e-06
-1.58221e-06
3.19086e-06
-2.10539e-06
3.07337e-06
-2.53015e-06
2.97215e-06
-2.86126e-06
2.89153e-06
-3.10446e-06
2.83505e-06
-3.26643e-06
2.80532e-06
-3.35454e-06
2.80407e-06
-3.37649e-06
-3.34006e-06
2.83211e-06
1.55345e-06
1.36017e-05
2.70271e-06
1.4263e-05
3.48887e-06
1.27931e-05
4.03754e-06
1.11219e-05
4.41826e-06
9.46903e-06
4.67158e-06
7.89465e-06
4.82491e-06
6.42195e-06
4.89897e-06
5.05975e-06
4.9103e-06
3.80998e-06
4.87258e-06
2.6713e-06
4.79739e-06
1.64116e-06
4.69479e-06
7.16752e-07
4.57364e-06
-1.045e-07
4.44183e-06
-8.24907e-07
4.30635e-06
-1.44671e-06
4.17336e-06
-1.97238e-06
4.04822e-06
-2.405e-06
3.93554e-06
-2.74857e-06
3.83921e-06
-3.00812e-06
3.7625e-06
-3.1897e-06
3.70799e-06
-3.30003e-06
3.67767e-06
-3.34616e-06
-3.33522e-06
3.67284e-06
1.44153e-06
1.21602e-05
2.70032e-06
1.30042e-05
3.64353e-06
1.18498e-05
4.33777e-06
1.04277e-05
4.83808e-06
8.96877e-06
5.18504e-06
7.54777e-06
5.40972e-06
6.19736e-06
5.53698e-06
4.93258e-06
5.58725e-06
3.7598e-06
5.57754e-06
2.68109e-06
5.5222e-06
1.69656e-06
5.43344e-06
8.0556e-07
5.32167e-06
7.305e-09
5.19575e-06
-6.98959e-07
5.06315e-06
-1.31407e-06
4.93003e-06
-1.83923e-06
4.80145e-06
-2.2764e-06
4.68158e-06
-2.62867e-06
4.5739e-06
-2.90043e-06
4.48146e-06
-3.09724e-06
4.40689e-06
-3.22545e-06
4.35247e-06
-3.29173e-06
-3.30273e-06
4.31999e-06
1.33917e-06
1.0821e-05
2.63915e-06
1.17042e-05
3.6791e-06
1.08099e-05
4.47657e-06
9.63025e-06
5.06867e-06
8.37673e-06
5.49135e-06
7.12515e-06
5.77619e-06
5.9126e-06
5.95017e-06
4.75867e-06
6.03619e-06
3.67385e-06
6.0536e-06
2.66374e-06
6.01879e-06
1.73142e-06
5.94559e-06
8.78802e-07
5.8456e-06
1.07319e-07
5.72846e-06
-5.81783e-07
5.60193e-06
-1.1875e-06
5.4721e-06
-1.70937e-06
5.34365e-06
-2.14793e-06
5.22021e-06
-2.5052e-06
5.10481e-06
-2.78502e-06
5.00033e-06
-2.99274e-06
4.90952e-06
-3.13464e-06
4.83505e-06
-3.21725e-06
-3.24693e-06
4.77924e-06
1.2686e-06
9.55235e-06
2.56732e-06
1.04055e-05
3.65101e-06
9.72626e-06
4.5072e-06
8.7741e-06
5.15783e-06
7.72616e-06
5.63268e-06
6.65036e-06
5.96155e-06
5.58379e-06
6.1716e-06
4.54867e-06
6.28667e-06
3.55883e-06
6.32731e-06
2.62314e-06
6.31109e-06
1.74768e-06
6.25288e-06
9.37039e-07
6.1651e-06
1.95113e-07
6.0579e-06
-4.74559e-07
5.93921e-06
-1.06878e-06
5.81491e-06
-1.58503e-06
5.6891e-06
-2.02209e-06
5.5647e-06
-2.38078e-06
5.4442e-06
-2.6645e-06
5.33029e-06
-2.87881e-06
5.22598e-06
-3.03033e-06
5.13447e-06
-3.12573e-06
-3.17118e-06
5.05873e-06
1.23223e-06
8.32014e-06
2.50945e-06
9.12837e-06
3.59825e-06
8.63752e-06
4.47426e-06
7.89815e-06
5.15052e-06
7.04995e-06
5.65188e-06
6.14905e-06
6.00567e-06
5.23004e-06
6.23796e-06
4.31641e-06
6.3723e-06
3.42453e-06
6.42934e-06
2.56612e-06
6.42703e-06
1.75001e-06
6.3807e-06
9.83377e-07
6.30323e-06
2.72584e-07
6.20508e-06
-3.76397e-07
6.09422e-06
-9.579e-07
5.97615e-06
-1.46695e-06
5.8542e-06
-1.90012e-06
5.73023e-06
-2.25681e-06
5.60598e-06
-2.54024e-06
5.48401e-06
-2.75682e-06
5.36778e-06
-2.91409e-06
5.2612e-06
-3.01914e-06
-3.07801e-06
5.16803e-06
1.224e-06
7.09617e-06
2.47542e-06
7.87702e-06
3.54584e-06
7.56716e-06
4.41186e-06
7.03218e-06
5.08485e-06
6.377e-06
5.58791e-06
5.64602e-06
5.94664e-06
4.87132e-06
6.18564e-06
4.07744e-06
6.32728e-06
3.2829e-06
6.39155e-06
2.50186e-06
6.39604e-06
1.74552e-06
6.35604e-06
1.02336e-06
6.28461e-06
3.44012e-07
6.19237e-06
-2.84158e-07
6.08731e-06
-8.5283e-07
5.9745e-06
-1.35413e-06
5.85619e-06
-1.78181e-06
5.73271e-06
-2.13332e-06
5.60468e-06
-2.41221e-06
5.47465e-06
-2.62679e-06
5.34686e-06
-2.78629e-06
5.22624e-06
-2.89851e-06
-2.96924e-06
5.11746e-06
1.23765e-06
5.85857e-06
2.47063e-06
6.64409e-06
3.51166e-06
6.52617e-06
4.34622e-06
6.19765e-06
4.99168e-06
5.73157e-06
5.4738e-06
5.16392e-06
5.81813e-06
4.52699e-06
6.04792e-06
3.84765e-06
6.18394e-06
3.14688e-06
6.24482e-06
2.44097e-06
6.24722e-06
1.74311e-06
6.20596e-06
1.0646e-06
6.13403e-06
4.15929e-07
6.04225e-06
-1.92392e-07
5.93878e-06
-7.49364e-07
5.82839e-06
-1.24374e-06
5.71205e-06
-1.66546e-06
5.58773e-06
-2.00901e-06
5.4544e-06
-2.27889e-06
5.31491e-06
-2.48729e-06
5.17483e-06
-2.64621e-06
5.04053e-06
-2.7642e-06
-2.84638e-06
4.91768e-06
1.27209e-06
4.58651e-06
2.50365e-06
5.41257e-06
3.51195e-06
5.51789e-06
4.29837e-06
5.41124e-06
4.89511e-06
5.13483e-06
5.33584e-06
4.72319e-06
5.64796e-06
4.21486e-06
5.85353e-06
3.64208e-06
5.97127e-06
3.02913e-06
6.01783e-06
2.39439e-06
6.00837e-06
1.75256e-06
5.95679e-06
1.11615e-06
5.87583e-06
4.96863e-07
5.77668e-06
-9.32584e-08
5.66812e-06
-6.40817e-07
5.55519e-06
-1.13081e-06
5.43764e-06
-1.54793e-06
5.30977e-06
-1.88115e-06
5.16803e-06
-2.13715e-06
5.01628e-06
-2.33554e-06
4.8624e-06
-2.49235e-06
4.71461e-06
-2.61641e-06
-2.71126e-06
4.57949e-06
1.33197e-06
3.25456e-06
2.58616e-06
4.15839e-06
3.56097e-06
4.54308e-06
4.28315e-06
4.68906e-06
4.8112e-06
4.60677e-06
5.19233e-06
4.34204e-06
5.45701e-06
3.95016e-06
5.62571e-06
3.47337e-06
5.71432e-06
2.9405e-06
5.73673e-06
2.37197e-06
5.70587e-06
1.78339e-06
5.63425e-06
1.18775e-06
5.53411e-06
5.96972e-07
5.41721e-06
2.36183e-08
5.29382e-06
-5.17443e-07
5.17061e-06
-1.00761e-06
5.04701e-06
-1.42434e-06
4.91143e-06
-1.74559e-06
4.75631e-06
-1.98205e-06
4.58825e-06
-2.16748e-06
4.4189e-06
-2.32301e-06
4.25853e-06
-2.45606e-06
-2.56682e-06
4.11408e-06
1.42481e-06
1.82975e-06
2.7255e-06
2.85766e-06
3.66336e-06
3.6052e-06
4.30248e-06
4.04992e-06
4.74312e-06
4.1661e-06
5.0507e-06
4.03444e-06
5.25788e-06
3.74296e-06
5.38181e-06
3.34941e-06
5.43429e-06
2.888e-06
5.42553e-06
2.38071e-06
5.3655e-06
1.8434e-06
5.2646e-06