/*--------------------------------*- C++ -*----------------------------------*\
  =========                 |
  \\      /  F ield         | OpenFOAM: The Open Source CFD Toolbox
   \\    /   O peration     | Website:  https://openfoam.org
    \\  /    A nd           | Version:  9
     \\/     M anipulation  |
\*---------------------------------------------------------------------------*/
FoamFile
{
    format      ascii;
    class       surfaceScalarField;
    location    "2.99";
    object      phi;
}
// * * * * * * * * * * * * * * * * * * * * * * * * * * * * * * * * * * * * * //

dimensions      [0 3 -1 0 0 0 0];

internalField   nonuniform List<scalar> 
4432
(
-2.76126e-07
2.76126e-07
-1.88112e-07
-8.80175e-08
4.6904e-08
-2.35014e-07
3.33597e-07
-2.86699e-07
6.42534e-07
-3.08937e-07
9.4738e-07
-3.04851e-07
1.2318e-06
-2.84419e-07
1.48656e-06
-2.54769e-07
1.70493e-06
-2.18367e-07
1.8823e-06
-1.77372e-07
2.01942e-06
-1.37114e-07
2.12267e-06
-1.03257e-07
2.20286e-06
-8.01877e-08
2.27841e-06
-7.55422e-08
2.37375e-06
-9.53416e-08
2.51506e-06
-1.41312e-07
2.67029e-06
-1.5523e-07
2.23473e-06
4.35553e-07
1.23424e-06
1.00049e-06
3.82699e-07
8.51541e-07
8.24769e-08
3.00223e-07
6.07577e-08
2.17192e-08
6.07555e-08
-7.83411e-08
3.54469e-07
1.37946e-08
-1.80162e-07
2.16313e-07
-4.37531e-07
4.79377e-07
-5.4977e-07
7.66825e-07
-5.96386e-07
1.05508e-06
-5.93109e-07
1.32825e-06
-5.57596e-07
1.57637e-06
-5.02891e-07
1.79183e-06
-4.33822e-07
1.96905e-06
-3.54593e-07
2.10703e-06
-2.75094e-07
2.20931e-06
-2.05546e-07
2.28152e-06
-1.52386e-07
2.33091e-06
-1.24939e-07
2.36316e-06
-1.27587e-07
2.37226e-06
-1.50417e-07
2.29314e-06
-7.61167e-08
1.9861e-06
7.42582e-07
1.52031e-06
1.46628e-06
9.28205e-07
1.44364e-06
4.76274e-07
7.52158e-07
2.09681e-07
2.88308e-07
2.7044e-07
3.80708e-08
3.164e-07
1.46218e-07
-2.88317e-07
3.27208e-07
-6.18519e-07
5.60326e-07
-7.82893e-07
8.18397e-07
-8.54455e-07
1.0805e-06
-8.55213e-07
1.33223e-06
-8.09326e-07
1.5643e-06
-7.34962e-07
1.76892e-06
-6.38446e-07
1.93968e-06
-5.25361e-07
2.07421e-06
-4.09621e-07
2.17368e-06
-3.0502e-07
2.23947e-06
-2.1818e-07
2.27196e-06
-1.57428e-07
2.26643e-06
-1.22062e-07
2.19984e-06
-8.38317e-08
2.02872e-06
9.50081e-08
1.84576e-06
9.25534e-07
1.58712e-06
1.72493e-06
1.23797e-06
1.7928e-06
8.11104e-07
1.17904e-06
3.80522e-07
7.18892e-07
6.5097e-07
1.0082e-07
2.15583e-07
2.31349e-07
-4.1885e-07
3.98498e-07
-7.85664e-07
6.04703e-07
-9.89099e-07
8.33935e-07
-1.08368e-06
1.0688e-06
-1.09008e-06
1.29717e-06
-1.03769e-06
1.51125e-06
-9.49038e-07
1.70345e-06
-8.3065e-07
1.86658e-06
-6.88489e-07
1.99717e-06
-5.40214e-07
2.0946e-06
-4.02456e-07
2.15679e-06
-2.8037e-07
2.17983e-06
-1.80466e-07
2.15416e-06
-9.63855e-08
2.05818e-06
1.21416e-08
1.87086e-06
2.82328e-07
1.74842e-06
1.04798e-06
1.6386e-06
1.83476e-06
1.44828e-06
1.98312e-06
1.06242e-06
1.56491e-06
5.58205e-07
1.22311e-06
1.20918e-06
1.35508e-07
8.00796e-08
2.79472e-07
-5.62817e-07
4.33957e-07
-9.40145e-07
6.15639e-07
-1.17078e-06
8.17394e-07
-1.28543e-06
1.02524e-06
-1.29793e-06
1.22976e-06
-1.24221e-06
1.42533e-06
-1.1446e-06
1.60486e-06
-1.01017e-06
1.76035e-06
-8.43972e-07
1.88757e-06
-6.6743e-07
1.98473e-06
-4.99614e-07
2.04705e-06
-3.42688e-07
2.06827e-06
-2.0169e-07
2.03873e-06
-6.68415e-08
1.94313e-06
1.0773e-07
1.78641e-06
4.39051e-07
1.69836e-06
1.13603e-06
1.6803e-06
1.85281e-06
1.5803e-06
2.08312e-06
1.24845e-06
1.89675e-06
7.20777e-07
1.75077e-06
1.92995e-06
1.52519e-07
-7.24355e-08
2.97249e-07
-7.07549e-07
4.3575e-07
-1.07864e-06
5.93334e-07
-1.32836e-06
7.68541e-07
-1.46063e-06
9.49748e-07
-1.47913e-06
1.1304e-06
-1.42285e-06
1.30754e-06
-1.32174e-06
1.47474e-06
-1.17737e-06
1.62318e-06
-9.92407e-07
1.74819e-06
-7.92436e-07
1.84748e-06
-5.989e-07
1.91412e-06
-4.09325e-07
1.94083e-06
-2.28406e-07
1.92006e-06
-4.6073e-08
1.84459e-06
1.83202e-07
1.73318e-06
5.50454e-07
1.68483e-06
1.18437e-06
1.70911e-06
1.82852e-06
1.66359e-06
2.12863e-06
1.40821e-06
2.15212e-06
8.90443e-07
2.26853e-06
2.82038e-06
1.58298e-07
-2.30729e-07
2.9062e-07
-8.39873e-07
4.07354e-07
-1.19537e-06
5.39469e-07
-1.46048e-06
6.88188e-07
-1.60935e-06
8.42851e-07
-1.63379e-06
9.99652e-07
-1.57965e-06
1.15866e-06
-1.48075e-06
1.31418e-06
-1.33289e-06
1.45644e-06
-1.13467e-06
1.58067e-06
-9.16671e-07
1.68467e-06
-7.02904e-07
1.75974e-06
-4.84403e-07
1.79825e-06
-2.6692e-07
1.79548e-06
-4.32975e-08
1.75057e-06
2.28112e-07
1.68746e-06
6.1357e-07
1.67993e-06
1.1919e-06
1.73358e-06
1.77487e-06
1.7418e-06
2.1204e-06
1.58523e-06
2.30869e-06
1.10864e-06
2.74512e-06
3.92902e-06
1.57536e-07
-3.88262e-07
2.67457e-07
-9.49797e-07
3.54893e-07
-1.2828e-06
4.5854e-07
-1.56412e-06
5.79958e-07
-1.73076e-06
7.07757e-07
-1.76159e-06
8.40641e-07
-1.71254e-06
9.81965e-07
-1.62208e-06
1.1266e-06
-1.47753e-06
1.26357e-06
-1.27164e-06
1.38838e-06
-1.04148e-06
1.49949e-06
-8.14018e-07
1.58659e-06
-5.71501e-07
1.64183e-06
-3.22161e-07
1.66336e-06
-6.48223e-08
1.65376e-06
2.37713e-07
1.63816e-06
6.29164e-07
1.67117e-06
1.15889e-06
1.75887e-06
1.68717e-06
1.83136e-06
2.0479e-06
1.80894e-06
2.33111e-06
1.53385e-06
3.0202e-06
5.46287e-06
1.77875e-06
-1.77875e-06
3.77215e-06
-1.9934e-06
5.10046e-06
-1.32831e-06
5.82499e-06
-7.24539e-07
6.08496e-06
-2.5997e-07
5.90358e-06
1.81388e-07
5.10258e-06
8.00982e-07
3.54673e-06
1.55585e-06
1.92285e-06
1.62388e-06
1.32609e-06
5.96747e-07
1.04613e-06
2.7996e-07
-1.12791e-07
1.15892e-06
-8.99835e-07
7.87046e-07
-2.41165e-07
-6.58673e-07
1.72717e-06
-1.96834e-06
3.26219e-06
-1.53501e-06
3.02919e-06
2.33004e-07
1.29889e-06
1.73031e-06
1.29888e-06
2.17792e-06
-3.95667e-06
3.48868e-06
-3.30416e-06
4.29558e-06
-2.13521e-06
4.73661e-06
-1.16557e-06
4.91399e-06
-4.37367e-07
4.78756e-06
3.07832e-07
4.10606e-06
1.48246e-06
2.95912e-06
2.70279e-06
1.85306e-06
2.72993e-06
1.15035e-06
1.29947e-06
6.74344e-07
7.55961e-07
1.22597e-07
1.71066e-06
-1.99614e-07
1.10926e-06
1.7019e-07
-1.02847e-06
1.25061e-06
-3.04875e-06
2.34642e-06
-2.63081e-06
2.32546e-06
2.53963e-07
1.3052e-06
2.75059e-06
2.60408e-06
2.04703e-06
-6.0037e-06
3.04594e-06
-4.30308e-06
3.62735e-06
-2.71661e-06
3.93385e-06
-1.47206e-06
4.05773e-06
-5.61257e-07
3.92472e-06
4.40852e-07
3.33368e-06
2.07351e-06
2.50314e-06
3.53334e-06
1.7353e-06
3.49777e-06
1.06098e-06
1.9738e-06
6.06748e-07
1.21019e-06
3.89843e-07
1.92757e-06
2.67894e-07
1.23121e-06
3.96143e-07
-1.15672e-06
7.93648e-07
-3.44626e-06
1.60571e-06
-3.44288e-06
1.915e-06
-5.53294e-08
1.18332e-06
3.48228e-06
3.78739e-06
1.65999e-06
-7.66369e-06
2.51459e-06
-5.15768e-06
3.00485e-06
-3.20687e-06
3.24856e-06
-1.71576e-06
3.35539e-06
-6.68084e-07
3.26789e-06
5.28357e-07
2.79929e-06
2.54211e-06
2.2181e-06
4.11454e-06
1.68163e-06
4.03423e-06
1.08549e-06
2.56994e-06
6.91977e-07
1.60371e-06
6.79322e-07
1.94022e-06
6.65615e-07
1.24492e-06
5.21854e-07
-1.01296e-06
3.91587e-07
-3.31599e-06
8.43434e-07
-3.89472e-06
1.6052e-06
-8.17104e-07
1.2975e-06
3.78999e-06
5.08488e-06
1.21503e-06
-8.87872e-06
1.99757e-06
-5.94021e-06
2.4398e-06
-3.64911e-06
2.63939e-06
-1.91535e-06
2.74628e-06
-7.74972e-07
2.73767e-06
5.36965e-07
2.41962e-06
2.86016e-06
2.04379e-06
4.49038e-06
1.69415e-06
4.38386e-06
1.21999e-06
3.04411e-06
9.18623e-07
1.90507e-06
9.93702e-07
1.86514e-06
9.92364e-07
1.24626e-06
6.11844e-07
-6.32442e-07
1.07701e-07
-2.81185e-06
1.08312e-07
-3.89533e-06
1.02752e-06
-1.73632e-06
1.61177e-06
3.20576e-06
6.69665e-06
8.51676e-07
-9.73039e-06
1.58279e-06
-6.67132e-06
1.95812e-06
-4.02445e-06
2.09986e-06
-2.05709e-06
2.20114e-06
-8.7626e-07
2.28718e-06
4.50925e-07
2.14173e-06
3.0056e-06
1.96339e-06
4.66872e-06
1.78546e-06
4.56179e-06
1.46259e-06
3.36698e-06
1.27009e-06
2.09758e-06
1.3491e-06
1.78613e-06
1.27401e-06
1.32135e-06
7.46088e-07
-1.04521e-07
-1.70446e-08
-2.04871e-06
-4.76288e-07
-3.43608e-06
9.07404e-08
-2.30335e-06
1.47286e-06
1.82365e-06
8.16951e-06
7.55976e-07
-1.04864e-05
1.33265e-06
-7.248e-06
1.5782e-06
-4.27001e-06
1.63169e-06
-2.11058e-06
1.69476e-06
-9.39325e-07
1.86392e-06
2.81774e-07
1.90274e-06
2.96677e-06
1.99352e-06
4.57795e-06
1.96934e-06
4.58596e-06
1.77473e-06
3.5616e-06
1.71608e-06
2.15623e-06
1.73835e-06
1.76386e-06
1.5747e-06
1.485e-06
9.56945e-07
5.13224e-07
4.06526e-08
-1.13243e-06
-7.28341e-07
-2.66708e-06
-8.17263e-07
-2.21443e-06
3.07787e-07
6.986e-07
8.4773e-06
1.25933e-06
-1.17457e-05
1.28641e-06
-7.27507e-06
1.30341e-06
-4.28701e-06
1.23919e-06
-2.04636e-06
1.24204e-06
-9.42178e-07
1.41311e-06
1.10709e-07
1.69513e-06
2.68476e-06
2.06386e-06
4.20922e-06
2.19937e-06
4.45045e-06
2.194e-06
3.56697e-06
2.18807e-06
2.16216e-06
2.13409e-06
1.81783e-06
1.90892e-06
1.71017e-06
1.25809e-06
1.16406e-06
2.70781e-07
-1.45124e-07
-6.94375e-07
-1.70193e-06
-1.36858e-06
-1.54023e-06
-1.33437e-06
6.6439e-07
7.14293e-06
3.87023e-07
-7.75286e-07
4.81398e-07
-1.04417e-06
5.27972e-07
-1.32938e-06
6.39916e-07
-1.67607e-06
8.05566e-07
-1.89642e-06
9.8598e-07
-1.94201e-06
1.18795e-06
-1.91451e-06
1.43257e-06
-1.8667e-06
1.70907e-06
-1.75404e-06
1.98531e-06
-1.54789e-06
2.25411e-06
-1.31029e-06
2.52227e-06
-1.08217e-06
2.75598e-06
-8.05208e-07
2.9398e-06
-5.05971e-07
3.07816e-06
-2.03174e-07
3.1782e-06
1.37688e-07
3.29631e-06
5.11056e-07
3.50227e-06
9.52937e-07
3.81854e-06
1.3709e-06
4.21567e-06
1.65076e-06
4.75134e-06
1.79544e-06
5.84545e-06
1.92609e-06
2.1316e-06
9.17672e-06
2.38261e-07
-1.01355e-06
1.75999e-07
-9.81913e-07
1.07373e-07
-1.26075e-06
9.43989e-08
-1.66309e-06
1.29185e-07
-1.9312e-06
1.97928e-07
-2.01075e-06
3.19286e-07
-2.03587e-06
5.05334e-07
-2.05275e-06
7.48221e-07
-1.99693e-06
1.01565e-06
-1.81532e-06
1.30357e-06
-1.5982e-06
1.61268e-06
-1.39128e-06
1.91253e-06
-1.10506e-06
2.19254e-06
-7.85988e-07
2.45319e-06
-4.63816e-07
2.68717e-06
-9.62958e-08
2.98771e-06
2.10513e-07
3.36148e-06
5.79162e-07
3.8246e-06
9.07774e-07
4.38569e-06
1.08967e-06
5.11739e-06
1.06374e-06
6.13798e-06
9.05513e-07
5.19118e-07
7.75047e-06
-7.0236e-07
-3.11181e-07
-3.4573e-07
-1.33854e-06
-2.77669e-07
-1.32882e-06
-7.09341e-07
-1.23143e-06
-1.11801e-06
-1.52255e-06
-1.09432e-06
-2.03446e-06
-8.34902e-07
-2.2953e-06
-6.23793e-07
-2.26387e-06
-4.14159e-07
-2.20657e-06
-2.43631e-08
-2.20512e-06
4.12828e-07
-2.03539e-06
7.70982e-07
-1.74943e-06
1.15132e-06
-1.48539e-06
1.54188e-06
-1.17653e-06
1.92045e-06
-8.42369e-07
2.31014e-06
-4.85971e-07
2.74005e-06
-2.1939e-07
3.26094e-06
5.82767e-08
3.91015e-06
2.58561e-07
4.64058e-06
3.59242e-07
5.42899e-06
2.75336e-07
6.28738e-06
4.71175e-08
-4.73442e-07
7.27994e-06
-6.29472e-06
5.98357e-06
8.90445e-07
-8.52354e-06
2.51267e-06
-2.951e-06
-4.88984e-07
1.77016e-06
-3.55405e-06
1.54251e-06
-2.90374e-06
-2.68481e-06
-1.38464e-06
-3.81447e-06
-1.14254e-06
-2.50599e-06
-2.00087e-06
-1.34824e-06
-8.90848e-07
-3.31515e-06
3.56489e-08
-2.96191e-06
7.72498e-08
-1.79105e-06
5.20481e-07
-1.92865e-06
9.58943e-07
-1.61504e-06
1.40365e-06
-1.28711e-06
1.9531e-06
-1.03546e-06
2.57137e-06
-8.377e-07
3.14525e-06
-5.15628e-07
4.23248e-06
-8.28684e-07
5.59474e-06
-1.00302e-06
6.38294e-06
-5.12863e-07
6.72922e-06
-2.99133e-07
-1.36019e-06
7.61597e-06
-2.66002e-06
8.64338e-06
7.06229e-06
-1.82457e-05
1.15627e-05
-7.45139e-06
-1.60037e-06
1.49332e-05
-1.52877e-05
1.523e-05
-1.34402e-05
-4.53224e-06
-8.51292e-06
-8.74172e-06
-5.33624e-06
-5.68265e-06
-5.53533e-06
-1.14911e-06
-2.06919e-06
-6.78126e-06
9.39979e-07
-5.97108e-06
2.91622e-06
-3.76729e-06
4.21355e-06
-3.226e-06
5.03618e-06
-2.43768e-06
6.33664e-06
-2.58757e-06
8.03882e-06
-2.73765e-06
8.53432e-06
-1.33319e-06
7.15447e-06
8.64224e-07
8.06154e-06
-1.73573e-06
1.0657e-05
-3.59843e-06
1.04144e-05
-2.70322e-07
4.74086e-06
5.37444e-06
-1.92066e-06
5.30134e-06
7.73092e-06
9.12391e-07
4.48573e-06
-1.50005e-05
5.59747e-06
-8.56325e-06
3.54855e-06
1.6982e-05
-1.70741e-07
1.8949e-05
-1.7303e-06
-2.97276e-06
-2.46213e-07
-1.02258e-05
2.06822e-06
-7.99711e-06
3.6971e-06
-2.77801e-06
2.99296e-06
-6.07712e-06
3.30862e-06
-6.28673e-06
4.4909e-06
-4.94958e-06
5.07688e-06
-3.81199e-06
6.56114e-06
-3.92194e-06
8.69556e-06
-4.722e-06
1.15968e-05
-5.63893e-06
1.46327e-05
-4.36905e-06
1.42463e-05
1.25062e-06
1.3071e-05
-5.60483e-07
1.37984e-05
-4.32585e-06
1.17165e-05
1.81162e-06
4.47473e-06
1.26163e-05
-2.98646e-06
5.5406e-06
5.66705e-06
-4.75462e-06
-2.20038e-06
-7.13306e-06
-3.81619e-06
-6.94743e-06
5.50452e-06
7.6614e-06
1.45112e-05
9.9424e-06
1.17424e-05
-2.04004e-07
8.97567e-06
-7.45912e-06
8.28155e-06
-7.30298e-06
9.18491e-06
-3.68136e-06
6.16806e-06
-3.06029e-06
4.35923e-06
-4.47791e-06
3.88536e-06
-4.47571e-06
3.5741e-06
-3.50074e-06
4.35472e-06
-4.70259e-06
5.98829e-06
-6.35557e-06
7.73851e-06
-7.38914e-06
1.10138e-05
-7.64433e-06
1.63192e-05
-4.05485e-06
1.7011e-05
-1.25215e-06
1.39228e-05
-1.23758e-06
9.78725e-06
5.94736e-06
1.07677e-05
1.16355e-05
-1.35978e-06
9.14101e-06
3.33613e-06
-8.0907e-06
-3.05657e-06
-7.40453e-07
-3.3448e-06
-6.65924e-06
6.15714e-06
-1.8406e-06
1.65757e-05
-4.76213e-07
1.91527e-05
-2.78104e-06
1.39621e-05
-2.26856e-06
9.81708e-06
-3.15807e-06
8.17141e-06
-2.0357e-06
7.01352e-06
-1.90237e-06
4.92101e-06
-2.38538e-06
2.87139e-06
-2.42609e-06
1.62901e-06
-2.2584e-06
1.31647e-06
-4.39009e-06
1.68456e-06
-6.72366e-06
2.31109e-06
-8.01564e-06
4.23543e-06
-9.56871e-06
8.15797e-06
-7.97754e-06
1.23031e-05
-5.39743e-06
1.40265e-05
-2.961e-06
1.42408e-05
5.73327e-06
1.56921e-05
1.01843e-05
4.08406e-06
1.02482e-05
1.70802e-06
-9.79873e-06
3.67137e-06
-2.7038e-06
2.49424e-06
-5.48204e-06
6.66311e-06
-6.00955e-06
1.19731e-05
-5.78622e-06
1.22617e-05
-3.06968e-06
1.07838e-05
-7.90734e-07
8.21744e-06
-5.91681e-07
6.55148e-06
-3.69717e-07
5.07202e-06
-4.22847e-07
3.50048e-06
-8.13845e-07
2.18941e-06
-1.11508e-06
1.72212e-06
-1.79117e-06
1.16112e-06
-3.8291e-06
2.32162e-07
-5.79467e-06
-3.80193e-08
-7.74536e-06
8.06098e-08
-9.68725e-06
1.25648e-06
-9.15339e-06
4.13848e-06
-8.27942e-06
6.53218e-06
-5.35468e-06
9.33292e-06
2.9325e-06
1.02536e-05
9.26359e-06
7.7041e-06
6.63338e-06
1.87472e-06
-1.16736e-05
4.92057e-06
-5.74965e-06
5.34962e-06
-5.91105e-06
5.4852e-06
-6.14514e-06
4.955e-06
-5.25605e-06
4.67613e-06
-2.79084e-06
4.31376e-06
-4.28349e-07
3.34354e-06
3.7861e-07
2.37203e-06
6.01922e-07
1.48546e-06
4.63906e-07
6.42355e-07
2.94309e-08
1.07291e-07
-5.79898e-07
-6.63709e-08
-1.61743e-06
-4.4168e-07
-3.4537e-06
-8.14494e-07
-5.42177e-06
-1.2762e-06
-7.2836e-06
-2.27669e-06
-8.68671e-06
-2.9007e-06
-8.5292e-06
-2.73414e-06
-8.44589e-06
-2.37066e-06
-5.71801e-06
-4.72366e-07
1.03434e-06
1.20558e-06
7.58586e-06
8.18284e-06
7.27222e-07
3.22264e-07
-1.19959e-05
1.65236e-06
-7.07972e-06
1.54673e-06
-5.80544e-06
6.07387e-07
-5.20578e-06
-5.91209e-07
-4.05744e-06
-1.36014e-06
-2.02191e-06
-1.62736e-06
-1.6111e-07
-1.99422e-06
7.455e-07
-2.42598e-06
1.03375e-06
-2.83369e-06
8.71705e-07
-3.18431e-06
3.80131e-07
-3.36309e-06
-4.01099e-07
-3.39978e-06
-1.58073e-06
-3.60713e-06
-3.2463e-06
-4.01877e-06
-5.01009e-06
-4.71565e-06
-6.58674e-06
-5.75411e-06
-7.64839e-06
-6.51257e-06
-7.77071e-06
-7.86168e-06
-7.09678e-06
-9.04099e-06
-4.53869e-06
-8.36609e-06
3.59387e-07
-6.14836e-06
5.36798e-06
7.03429e-06
-4.99995e-06
-1.51085e-06
-1.04849e-05
-1.90051e-06
-6.69003e-06
-2.70411e-06
-5.00184e-06
-3.96371e-06
-3.94621e-06
-5.28726e-06
-2.73395e-06
-6.12978e-06
-1.17945e-06
-6.47868e-06
1.8776e-07
-6.68972e-06
9.56522e-07
-6.85724e-06
1.20127e-06
-6.99174e-06
1.00621e-06
-7.07121e-06
4.59566e-07
-7.07351e-06
-3.98929e-07
-7.06353e-06
-1.59083e-06
-7.23976e-06
-3.07008e-06
-7.67317e-06
-4.57662e-06
-8.4071e-06
-5.85284e-06
-9.42842e-06
-6.62722e-06
-1.05854e-05
-6.61374e-06
-1.19457e-05
-5.73658e-06
-1.29875e-05
-3.49683e-06
-1.27307e-05
1.02644e-07
-1.09998e-05
3.63712e-06
5.43197e-06
-9.39747e-06
-2.91296e-06
-7.57189e-06
-4.59502e-06
-5.00796e-06
-6.05842e-06
-3.53838e-06
-7.52627e-06
-2.47834e-06
-8.83111e-06
-1.42911e-06
-9.70282e-06
-3.07743e-07
-1.01448e-05
6.2972e-07
-1.03545e-05
1.16628e-06
-1.04362e-05
1.28303e-06
-1.04451e-05
1.01526e-06
-1.04033e-05
4.17828e-07
-1.03365e-05
-4.658e-07
-1.03274e-05
-1.60001e-06
-1.05038e-05
-2.89362e-06
-1.09305e-05
-4.14989e-06
-1.16295e-05
-5.15372e-06
-1.25696e-05
-5.6872e-06
-1.36307e-05
-5.55256e-06
-1.47161e-05
-4.65126e-06
-1.54071e-05
-2.80585e-06
-1.51069e-05
-1.97439e-07
-1.38183e-05
2.34857e-06
3.93729e-06
-1.23236e-05
-3.75337e-06
-3.81849e-06
-6.25511e-06
-2.50617e-06
-8.20669e-06
-1.5867e-06
-9.85342e-06
-8.31528e-07
-1.11797e-05
-1.02747e-07
-1.20933e-05
6.05926e-07
-1.262e-05
1.15657e-06
-1.28765e-05
1.42279e-06
-1.29587e-05
1.36536e-06
-1.29369e-05
9.93665e-07
-1.28628e-05
3.438e-07
-1.27903e-05
-5.38218e-07
-1.27975e-05
-1.59282e-06
-1.2972e-05
-2.7191e-06
-1.33608e-05
-3.76096e-06
-1.39673e-05
-4.54711e-06
-1.47419e-05
-4.91252e-06
-1.55708e-05
-4.72361e-06
-1.63085e-05
-3.9135e-06
-1.66574e-05
-2.45693e-06
-1.63057e-05
-5.49118e-07
-1.52774e-05
1.32023e-06
2.65436e-06
-1.39944e-05
-4.11099e-06
2.92475e-07
-7.03736e-06
4.20264e-07
-9.27966e-06
6.55614e-07
-1.10561e-05
9.44931e-07
-1.24243e-05
1.26558e-06
-1.33835e-05
1.56517e-06
-1.39775e-05
1.75062e-06
-1.42916e-05
1.7369e-06
-1.4411e-05
1.48478e-06
-1.441e-05
9.92737e-07
-1.43529e-05
2.86805e-07
-1.4303e-05
-5.88122e-07
-1.43285e-05
-1.56733e-06
-1.44911e-05
-2.55662e-06
-1.482e-05
-3.432e-06
-1.5305e-05
-4.06212e-06
-1.589e-05
-4.32751e-06
-1.64719e-05
-4.14155e-06
-1.6913e-05
-3.47236e-06
-1.70188e-05
-2.35112e-06
-1.66274e-05
-9.40436e-07
-1.57676e-05
4.60444e-07
1.5673e-06
-1.46805e-05
-4.10621e-06
4.39865e-06
-7.15523e-06
3.46932e-06
-9.51074e-06
3.01109e-06
-1.13435e-05
2.7777e-06
-1.27337e-05
2.65582e-06
-1.37213e-05
2.55276e-06
-1.43609e-05
2.39015e-06
-1.47255e-05
2.10157e-06
-1.48918e-05
1.65108e-06
-1.4932e-05
1.03293e-06
-1.49122e-05
2.66992e-07
-1.48942e-05
-6.06124e-07
-1.49352e-05
-1.52636e-06
-1.50789e-05
-2.4131e-06
-1.53412e-05
-3.16977e-06
-1.57048e-05
-3.69866e-06
-1.61161e-05
-3.91625e-06
-1.64886e-05
-3.76904e-06
-1.67126e-05
-3.24825e-06
-1.66642e-05
-2.3995e-06
-1.62588e-05
-1.34583e-06
-1.55239e-05
-2.74356e-07
6.45165e-07
-1.46017e-05
-3.85105e-06
8.24974e-06
-6.81349e-06
6.43176e-06
-9.13121e-06
5.32883e-06
-1.09362e-05
4.58277e-06
-1.23038e-05
4.02339e-06
-1.32882e-05
3.53713e-06
-1.39468e-05
3.0488e-06
-1.43457e-05
2.50043e-06
-1.45535e-05
1.85887e-06
-1.46369e-05
1.11632e-06
-1.46577e-05
2.87795e-07
-1.46715e-05
-5.92378e-07
-1.47246e-05
-1.47323e-06
-1.48481e-05
-2.28966e-06
-1.50494e-05
-2.96842e-06
-1.53094e-05
-3.43876e-06
-1.55817e-05
-3.644e-06
-1.57979e-05
-3.55279e-06
-1.58776e-05
-3.16855e-06
-1.57419e-05
-2.53512e-06
-1.53458e-05
-1.74194e-06
-1.47111e-05
-9.08958e-07
-1.42918e-07
-1.3923e-05
-3.43343e-06
1.16832e-05
-6.15915e-06
9.15748e-06
-8.32647e-06
7.49622e-06
-1.00268e-05
6.28318e-06
-1.1322e-05
5.31867e-06
-1.22673e-05
4.48247e-06
-1.2917e-05
3.69855e-06
-1.33299e-05
2.91325e-06
-1.35664e-05
2.09534e-06
-1.36857e-05
1.23555e-06
-1.37423e-05
3.44364e-07
-1.37835e-05
-5.5109e-07
-1.38464e-05
-1.41026e-06
-1.3953e-05
-2.18302e-06
-1.4106e-05
-2.81538e-06
-1.42872e-05
-3.25749e-06
-1.44591e-05
-3.47204e-06
-1.45699e-05
-3.44193e-06
-1.45625e-05
-3.17594e-06
-1.43863e-05
-2.71117e-06
-1.40164e-05
-2.11186e-06
-1.3468e-05
-1.45725e-06
-8.17798e-07
-1.27931e-05
-2.92403e-06
1.46073e-05
-5.31132e-06
1.15448e-05
-7.24245e-06
9.42742e-06
-8.77393e-06
7.81477e-06
-9.95281e-06
6.49766e-06
-1.0826e-05
5.35579e-06
-1.14408e-05
4.31335e-06
-1.18474e-05
3.31981e-06
-1.20976e-05
2.34548e-06
-1.22419e-05
1.37975e-06
-1.23263e-05
4.28782e-07
-1.239e-05
-4.87455e-07
-1.24616e-05
-1.33854e-06
-1.2557e-05
-2.08755e-06
-1.26763e-05
-2.69601e-06
-1.28038e-05
-3.12989e-06
-1.29102e-05
-3.36556e-06
-1.29572e-05
-3.39488e-06
-1.29046e-05
-3.22845e-06
-1.27196e-05
-2.89616e-06
-1.2387e-05
-2.44438e-06
-1.19169e-05
-1.92726e-06
-1.39351e-06
-1.13412e-05
-2.36778e-06
1.6975e-05
-4.35487e-06
1.35319e-05
-5.98948e-06
1.10621e-05
-7.30555e-06
9.13091e-06
-8.33403e-06
7.52622e-06
-9.10878e-06
6.13062e-06
-9.6671e-06
4.87172e-06
-1.00499e-05
3.70255e-06
-1.02996e-05
2.59514e-06
-1.04577e-05
1.53784e-06
-1.0562e-05
5.32922e-07
-1.06432e-05
-4.06216e-07
-1.07236e-05
-1.25815e-06
-1.08141e-05
-1.997e-06
-1.09136e-05
-2.59648e-06
-1.10091e-05
-3.03432e-06
-1.10782e-05
-3.29647e-06
-1.10926e-05
-3.38038e-06
-1.10242e-05
-3.29682e-06
-1.08507e-05
-3.06956e-06
-1.05624e-05
-2.73264e-06
-1.01653e-05
-2.32441e-06
-1.88003e-06
-9.67872e-06
-1.78957e-06
1.87645e-05
-3.344e-06
1.50863e-05
-4.64896e-06
1.2367e-05
-5.72166e-06
1.02036e-05
-6.57751e-06
8.38212e-06
-7.23575e-06
6.78892e-06
-7.72216e-06
5.35817e-06
-8.0676e-06
4.04799e-06
-8.30527e-06
2.83278e-06
-8.46785e-06
1.70037e-06
-8.58477e-06
6.49781e-07
-8.67984e-06
-3.11184e-07
-8.76937e-06
-1.16865e-06
-8.86075e-06
-1.90562e-06
-8.95206e-06
-2.50516e-06
-9.0327e-06
-2.95365e-06
-9.08547e-06
-3.24369e-06
-9.08962e-06
-3.37621e-06
-9.02492e-06
-3.3615e-06
-8.87586e-06
-3.2186e-06
-8.6354e-06
-2.97309e-06
-8.30664e-06
-2.65315e-06
-2.28522e-06
-7.90142e-06
-1.19728e-06
1.99618e-05
-2.31439e-06
1.62035e-05
-3.27809e-06
1.33307e-05
-4.09781e-06
1.10233e-05
-4.77234e-06
9.05666e-06
-5.30514e-06
7.32175e-06
-5.71059e-06
5.76363e-06
-6.0098e-06
4.3472e-06
-6.22709e-06
3.05005e-06
-6.38684e-06
1.86009e-06
-6.51099e-06
7.73901e-07
-6.61695e-06
-2.05241e-07
-6.71611e-06
-1.0695e-06
-6.81295e-06
-1.80879e-06
-6.90493e-06
-2.41319e-06
-6.98326e-06
-2.87532e-06
-7.03457e-06
-3.19237e-06
-7.04333e-06
-3.36744e-06
-6.99469e-06
-3.41013e-06
-6.87733e-06
-3.33594e-06
-6.68573e-06
-3.16467e-06
-6.42107e-06
-2.91779e-06
-2.61591e-06
-6.09036e-06
-5.72843e-07
2.05347e-05
-1.27642e-06
1.69071e-05
-1.92e-06
1.39743e-05
-2.49468e-06
1.1598e-05
-2.99078e-06
9.55275e-06
-3.39722e-06
7.72818e-06
-3.71832e-06
6.08472e-06
-3.96656e-06
4.59543e-06
-4.15815e-06
3.24164e-06
-4.31002e-06
2.01195e-06
-4.43736e-06
9.01245e-07
-4.55196e-06
-9.06195e-08
-4.66099e-06
-9.60458e-07
-4.76644e-06
-1.70332e-06
-4.86517e-06
-2.31444e-06
-4.94961e-06
-2.79086e-06
-5.00913e-06
-3.13284e-06
-5.03176e-06
-3.3448e-06
-5.00626e-06
-3.43561e-06
-4.92399e-06
-3.41819e-06
-4.78034e-06
-3.3083e-06
-4.57521e-06
-3.12289e-06
-2.87853e-06
-4.31256e-06
9.9969e-08
2.04348e-05
-2.3348e-07
1.72406e-05
-6.07273e-07
1.43481e-05
-9.64762e-07
1.19555e-05
-1.29349e-06
9.88144e-06
-1.57827e-06
8.01292e-06
-1.81577e-06
6.32219e-06
-2.01138e-06
4.79103e-06
-2.17433e-06
3.40459e-06
-2.31489e-06
2.15254e-06
-2.44237e-06
1.02875e-06
-2.56361e-06
3.06596e-08
-2.68216e-06
-8.41867e-07
-2.79781e-06
-1.58762e-06
-2.90679e-06
-2.20542e-06
-3.0023e-06
-2.69532e-06
-3.07555e-06
-3.05957e-06
-3.11701e-06
-3.30331e-06
-3.11788e-06
-3.43473e-06
-3.07126e-06
-3.46479e-06
-2.97313e-06
-3.40642e-06
-2.82259e-06
-3.27341e-06
-3.07948e-06
-2.62163e-06
7.81476e-07
1.96534e-05
7.4424e-07
1.72778e-05
6.14134e-07
1.44782e-05
4.444e-07
1.21252e-05
2.67026e-07
1.00588e-05
9.65679e-08
8.18332e-06
-6.03249e-08
6.47904e-06
-2.03466e-07
4.93414e-06
-3.36154e-07
3.53728e-06
-4.62908e-07
2.27931e-06
-5.87846e-07
1.15373e-06
-7.13542e-07
1.56399e-07
-8.40378e-07
-7.14983e-07
-9.6624e-07
-1.46171e-06
-1.08666e-06
-2.08496e-06
-1.19527e-06
-2.58669e-06
-1.2845e-06
-2.97033e-06
-1.34652e-06
-3.24128e-06
-1.37415e-06
-3.4071e-06
-1.36169e-06
-3.47725e-06
-1.30551e-06
-3.4626e-06
-1.20423e-06
-3.3747e-06
-3.22517e-06
-1.05856e-06
1.26355e-06
1.83898e-05
1.58388e-06
1.69575e-05
1.6788e-06
1.43833e-05
1.68181e-06
1.21222e-05
1.64433e-06
1.00962e-05
1.58152e-06
8.24606e-06
1.50208e-06
6.55842e-06
1.41084e-06
5.02535e-06
1.30969e-06
3.63843e-06
1.19915e-06
2.38987e-06
1.07962e-06
1.27328e-06
9.52248e-07
2.838e-07
8.194e-07
-5.82107e-07
6.84882e-07
-1.32716e-06
5.53844e-07
-1.95391e-06
4.32474e-07
-2.46532e-06
3.27508e-07
-2.86537e-06
2.45637e-07
-3.15942e-06
1.92898e-07
-3.35438e-06
1.74152e-07
-3.45853e-06
1.92744e-07
-3.48122e-06
2.50364e-07
-3.43236e-06
-3.32199e-06
3.47141e-07
1.54285e-06
1.6847e-05
2.19623e-06
1.6304e-05
2.52069e-06
1.40588e-05
2.69998e-06
1.19428e-05
2.79945e-06
9.99665e-06
2.84056e-06
8.20488e-06
2.8368e-06
6.56214e-06
2.79763e-06
5.06449e-06
2.72977e-06
3.70629e-06
2.63828e-06
2.48136e-06
2.52759e-06
1.38397e-06
2.40209e-06
4.09299e-07
2.26656e-06
-4.46572e-07
2.12629e-06
-1.1869e-06
1.9871e-06
-1.81473e-06
1.85512e-06
-2.33337e-06
1.73654e-06
-2.74683e-06
1.63723e-06
-3.06016e-06
1.56243e-06
-3.27962e-06
1.51638e-06
-3.41254e-06
1.50223e-06
-3.46713e-06
1.52188e-06
-3.45206e-06
-3.3762e-06
1.57603e-06
1.61823e-06
1.52287e-05
2.55008e-06
1.53721e-05
3.1093e-06
1.34995e-05
3.47087e-06
1.15812e-05
3.70709e-06
9.76038e-06
3.85096e-06
8.06097e-06
3.9225e-06
6.49057e-06
3.93641e-06
5.05056e-06
3.90413e-06
3.73856e-06
3.835e-06
2.55049e-06
3.73706e-06
1.48191e-06
3.61759e-06
5.28751e-07
3.48347e-06
-3.12471e-07
3.34132e-06
-1.04478e-06
3.19755e-06
-1.67101e-06
3.05835e-06
-2.19422e-06
2.92949e-06
-2.61803e-06
2.81625e-06
-2.94699e-06
2.72324e-06
-3.18667e-06
2.65429e-06
-3.34366e-06
2.61238e-06
-3.42529e-06
2.59959e-06
-3.43933e-06
-3.39377e-06
2.61709e-06
1.56065e-06
1.3668e-05
2.69262e-06
1.42401e-05
3.46055e-06
1.27316e-05
3.99441e-06
1.10473e-05
4.36369e-06
9.39107e-06
4.60802e-06
7.81663e-06
4.75395e-06
6.34464e-06
4.82155e-06
4.98297e-06
4.82687e-06
3.73324e-06
4.7832e-06
2.59416e-06
4.70183e-06
1.56327e-06
4.59258e-06
6.37976e-07
4.46416e-06
-1.84082e-07
4.32434e-06
-9.05005e-07
4.1801e-06
-1.52682e-06
4.03764e-06
-2.05181e-06
3.90242e-06
-2.48288e-06
3.77922e-06
-2.82385e-06
3.67216e-06
-3.07968e-06
3.58475e-06
-3.25631e-06
3.51988e-06
-3.36048e-06
3.47981e-06
-3.39932e-06
-3.38014e-06
3.46614e-06
1.45231e-06
1.22157e-05
2.69914e-06
1.29933e-05
3.62553e-06
1.18051e-05
4.30418e-06
1.03686e-05
4.7914e-06
8.90384e-06
5.12756e-06
7.48048e-06
5.34318e-06
6.12903e-06
5.46261e-06
4.86356e-06
5.50579e-06
3.69009e-06
5.48934e-06
2.61061e-06
5.42733e-06
1.62528e-06
5.3317e-06
7.33585e-07
5.21271e-06
-6.51183e-08
5.0791e-06
-7.71432e-07
4.93828e-06
-1.38605e-06
4.79646e-06
-1.91004e-06
4.65878e-06
-2.34525e-06
4.52952e-06
-2.69465e-06
4.41238e-06
-2.96258e-06
4.3106e-06
-3.15457e-06
4.22706e-06
-3.27698e-06
4.16428e-06
-3.33657e-06
-3.34016e-06
4.12427e-06
1.34913e-06
1.08665e-05
2.64167e-06
1.17007e-05
3.66795e-06
1.07788e-05
4.45116e-06
9.58543e-06
5.03029e-06
8.32473e-06
5.44169e-06
7.06911e-06
5.71676e-06
5.854e-06
5.88216e-06
4.6982e-06
5.96041e-06
3.61186e-06
5.97056e-06
2.60048e-06
5.92871e-06
1.66714e-06
5.84848e-06
8.13815e-07
5.74131e-06
4.20428e-08
5.6167e-06
-6.46842e-07
5.48237e-06
-1.25175e-06
5.34443e-06
-1.77214e-06
5.20763e-06
-2.20847e-06
5.07569e-06
-2.56274e-06
4.95183e-06
-2.83874e-06
4.83907e-06
-3.04182e-06
4.7404e-06
-3.17831e-06
4.65866e-06
-3.25483e-06
-3.27786e-06
4.59638e-06
1.2762e-06
9.59031e-06
2.5705e-06
1.04064e-05
3.64393e-06
9.70541e-06
4.48824e-06
8.74114e-06
5.12719e-06
7.68581e-06
5.59126e-06
6.60508e-06
5.91039e-06
5.53491e-06
6.11165e-06
4.49699e-06
6.21866e-06
3.50489e-06
6.25176e-06
2.56741e-06
6.22829e-06
1.69062e-06
6.16296e-06
8.79155e-07
6.06805e-06
1.36962e-07
5.95358e-06
-5.32375e-07
5.82745e-06
-1.12562e-06
5.69552e-06
-1.64021e-06
5.56197e-06
-2.07492e-06
5.4298e-06
-2.43058e-06
5.30166e-06
-2.71058e-06
5.18036e-06
-2.92052e-06
5.06913e-06
-3.06706e-06
4.97127e-06
-3.15695e-06
-3.19648e-06
4.88993e-06
1.23756e-06
8.35276e-06
2.5123e-06
9.1317e-06
3.59387e-06
8.62386e-06
4.46057e-06
7.87447e-06
5.12689e-06
7.01952e-06
5.61847e-06
6.11354e-06
5.963e-06
5.19043e-06
6.18665e-06
4.27339e-06
6.3129e-06
3.37868e-06
6.36232e-06
2.51802e-06
6.3527e-06
1.70026e-06
6.29925e-06
9.32619e-07
6.21475e-06
2.21482e-07
6.10955e-06
-4.27156e-07
5.99157e-06
-1.00762e-06
5.86633e-06
-1.51495e-06
5.73718e-06
-1.94576e-06
5.6061e-06
-2.29948e-06
5.47494e-06
-2.57939e-06
5.34638e-06
-2.79194e-06
5.22405e-06
-2.94469e-06
5.11197e-06
-3.04482e-06
-3.09846e-06
5.01399e-06
1.2278e-06
7.12497e-06
2.47829e-06
7.88124e-06
3.54403e-06
7.55814e-06
4.40299e-06
7.01554e-06
5.06768e-06
6.35486e-06
5.56201e-06
5.61924e-06
5.9121e-06
4.84038e-06
6.14275e-06
4.04277e-06
6.27644e-06
3.24502e-06
6.33313e-06
2.46135e-06
6.33035e-06
1.70305e-06
6.28334e-06
9.79651e-07
6.20504e-06
2.99803e-07
6.10602e-06
-3.28111e-07
5.99421e-06
-8.95786e-07
5.87467e-06
-1.39539e-06
5.74971e-06
-1.82077e-06
5.61974e-06
-2.16948e-06
5.48551e-06
-2.44513e-06
5.34969e-06
-2.65608e-06
5.21662e-06
-2.81158e-06
5.09132e-06
-2.91947e-06
-2.98562e-06
4.97852e-06
1.24077e-06
5.88422e-06
2.47442e-06
6.6476e-06
3.5128e-06
6.51979e-06
4.34204e-06
6.18631e-06
4.98047e-06
5.71645e-06
5.4547e-06
5.14503e-06
5.79091e-06
4.50419e-06
6.01266e-06
3.82104e-06
6.1409e-06
3.11679e-06
6.19432e-06
2.40794e-06
6.18959e-06
1.70779e-06
6.1415e-06
1.02775e-06
6.06298e-06
3.7835e-07
5.96477e-06
-2.29884e-07
5.85499e-06
-7.85981e-07
5.73838e-06
-1.27876e-06
5.61596e-06
-1.69833e-06
5.48582e-06
-2.03931e-06
5.34706e-06
-2.30634e-06
5.20261e-06
-2.5116e-06
5.05814e-06
-2.66708e-06
4.92002e-06
-2.78132e-06
-2.85953e-06
4.79395e-06
1.27493e-06
4.6093e-06
2.50859e-06
5.41396e-06
3.51583e-06
5.51256e-06
4.29826e-06
5.40388e-06
4.88892e-06
5.12579e-06
5.32238e-06
4.71155e-06
5.62676e-06
4.19981e-06
5.82454e-06
3.62326e-06
5.93469e-06
3.00664e-06
5.97398e-06
2.36864e-06
5.95761e-06
1.72416e-06
5.89951e-06
1.08586e-06
5.81236e-06
4.65509e-07
5.70726e-06
-1.24776e-07
5.59295e-06
-6.71663e-07
5.47442e-06
-1.16023e-06
5.35148e-06
-1.57538e-06
5.21855e-06
-1.90638e-06
5.07225e-06
-2.16002e-06
4.91648e-06
-2.35583e-06
4.75919e-06
-2.50977e-06
4.60852e-06
-2.63065e-06
-2.72204e-06
4.47104e-06
1.33354e-06
3.27576e-06
2.59024e-06
4.15725e-06
3.56548e-06
4.53731e-06
4.28513e-06
4.68421e-06
4.80809e-06
4.6028e-06
5.18255e-06
4.33707e-06
5.43987e-06
3.94246e-06
5.60106e-06
3.46205e-06
5.68234e-06
2.92534e-06
5.69777e-06
2.35319e-06
5.66039e-06
1.76152e-06
5.58271e-06
1.16351e-06
5.47698e-06
5.71239e-07
5.35478e-06
-2.58829e-09
5.2264e-06
-5.43291e-07
5.09839e-06
-1.03222e-06
4.97022e-06
-1.44722e-06
4.83049e-06
-1.76666e-06
4.67185e-06
-2.00137e-06
4.50088e-06
-2.18488e-06
4.3292e-06
-2.3381e-06
4.16698e-06
-2.46844e-06
-2.57613e-06
4.02105e-06
1.42219e-06
1.85357e-06
2.72386e-06
2.85555e-06
3.66383e-06
3.5973e-06
4.30267e-06
4.04533e-06
4.73977e-06
4.16566e-06
5.04161e-06
4.03519e-06
5.24205e-06
3.74198e-06
5.359e-06
3.34507e-06
5.40463e-06
2.87967e-06
5.38941e-06