/*--------------------------------*- C++ -*----------------------------------*\
  =========                 |
  \\      /  F ield         | OpenFOAM: The Open Source CFD Toolbox
   \\    /   O peration     | Website:  https://openfoam.org
    \\  /    A nd           | Version:  9
     \\/     M anipulation  |
\*---------------------------------------------------------------------------*/
FoamFile
{
    format      ascii;
    class       volScalarField;
    location    "105";
    object      k;
}
// * * * * * * * * * * * * * * * * * * * * * * * * * * * * * * * * * * * * * //

dimensions      [0 2 -2 0 0 0 0];

internalField   nonuniform List<scalar> 
12225
(
0.362827
0.344003
0.327734
0.309837
0.295372
0.283523
0.275459
0.270309
0.270351
0.271924
0.276071
0.280788
0.289961
0.295944
0.307119
0.313062
0.326167
0.328387
0.440278
0.468736
0.461615
0.448376
0.450358
0.458338
0.474435
0.498829
0.524317
0.552555
0.580841
0.606821
0.634331
0.654874
0.681255
0.6946
0.72327
0.727871
0.390413
0.417854
0.420242
0.416827
0.411637
0.407806
0.408011
0.410053
0.414524
0.421518
0.430781
0.439889
0.451421
0.461492
0.473468
0.484424
0.495054
0.509026
0.377046
0.387166
0.391467
0.391342
0.39026
0.387884
0.385659
0.384084
0.38288
0.382906
0.383376
0.38442
0.386358
0.388564
0.391113
0.394566
0.397115
0.40207
0.374435
0.376092
0.378428
0.378665
0.378275
0.3772
0.375488
0.373736
0.372009
0.370453
0.369258
0.368117
0.367394
0.366846
0.366483
0.366474
0.36655
0.367051
0.37378
0.372703
0.372659
0.372365
0.371773
0.370816
0.369553
0.36808
0.366569
0.364973
0.363523
0.362062
0.360749
0.359537
0.358399
0.357458
0.356489
0.355892
0.373775
0.371739
0.370388
0.369283
0.368235
0.367113
0.365914
0.364584
0.363235
0.361804
0.360415
0.359018
0.357667
0.356375
0.35511
0.353962
0.352795
0.351825
0.373819
0.371559
0.369635
0.367976
0.3665
0.365106
0.363774
0.362427
0.361104
0.359762
0.358443
0.357136
0.355852
0.35461
0.353386
0.352235
0.351085
0.350047
0.373832
0.371553
0.369449
0.367525
0.365776
0.364153
0.362643
0.361197
0.359814
0.358469
0.357163
0.355895
0.354657
0.353462
0.352293
0.35118
0.350082
0.349062
0.373831
0.37156
0.369418
0.367405
0.365528
0.363772
0.362132
0.360583
0.359119
0.357724
0.356389
0.355111
0.353879
0.352699
0.351557
0.350468
0.349407
0.348411
0.373829
0.37156
0.369413
0.367378
0.365458
0.363645
0.361936
0.360322
0.358796
0.35735
0.355975
0.354667
0.353418
0.352227
0.351085
0.349999
0.348951
0.347963
0.373828
0.371558
0.369409
0.367371
0.365439
0.363608
0.361875
0.360233
0.358676
0.357199
0.355797
0.354464
0.353196
0.351989
0.350836
0.349742
0.348691
0.347699
0.373827
0.371557
0.369405
0.367365
0.36543
0.363593
0.361851
0.360196
0.358625
0.357132
0.355714
0.354365
0.353082
0.351861
0.350698
0.349592
0.348535
0.347533
0.373827
0.371555
0.369401
0.36736
0.365422
0.363583
0.361837
0.360178
0.3586
0.3571
0.355673
0.354316
0.353024
0.351794
0.350622
0.349507
0.348443
0.347431
0.373826
0.371553
0.369398
0.367355
0.365416
0.363575
0.361826
0.360165
0.358585
0.357082
0.355652
0.35429
0.352994
0.351759
0.350583
0.349462
0.348393
0.347376
0.373826
0.371552
0.369396
0.367351
0.36541
0.363568
0.361817
0.360154
0.358572
0.357068
0.355636
0.354273
0.352974
0.351737
0.350558
0.349435
0.348363
0.347342
0.373825
0.371551
0.369394
0.367348
0.365406
0.363562
0.361811
0.360146
0.358563
0.357057
0.355623
0.354258
0.352959
0.35172
0.35054
0.349414
0.348341
0.347317
0.373825
0.371551
0.369393
0.367346
0.365403
0.363559
0.361806
0.36014
0.358556
0.357048
0.355614
0.354248
0.352947
0.351707
0.350525
0.349398
0.348324
0.347298
0.373825
0.37155
0.369393
0.367346
0.365403
0.363557
0.361804
0.360138
0.358553
0.357045
0.35561
0.354243
0.352941
0.3517
0.350518
0.34939
0.348314
0.347287
0.373825
0.371551
0.369394
0.367346
0.365404
0.363559
0.361807
0.36014
0.358556
0.357048
0.355613
0.354246
0.352944
0.351703
0.350521
0.349392
0.348317
0.34729
0.373825
0.371552
0.369395
0.367349
0.365407
0.363563
0.361811
0.360146
0.358563
0.357056
0.355622
0.354257
0.352957
0.351718
0.350537
0.349411
0.348337
0.347312
0.373826
0.371552
0.369397
0.367352
0.365412
0.363571
0.361822
0.360162
0.358584
0.357084
0.355657
0.3543
0.353008
0.351777
0.350605
0.349486
0.348421
0.347402
0.373826
0.371554
0.369399
0.36736
0.365429
0.363603
0.361876
0.360241
0.358692
0.357221
0.355824
0.354495
0.353229
0.35202
0.350868
0.349765
0.348714
0.347704
0.373828
0.371551
0.369412
0.367417
0.365556
0.36382
0.36219
0.360652
0.35919
0.357794
0.356457
0.355173
0.353938
0.352747
0.351603
0.350498
0.349439
0.348413
0.373823
0.371554
0.369605
0.367893
0.366339
0.364892
0.363495
0.362123
0.360762
0.359414
0.358082
0.356771
0.35549
0.35424
0.353031
0.351858
0.350737
0.349649
0.373781
0.37199
0.371113
0.370265
0.369361
0.368312
0.367049
0.36563
0.364121
0.362576
0.361031
0.359523
0.358075
0.356684
0.355383
0.354143
0.353012
0.351926
0.374297
0.375564
0.377778
0.377858
0.377291
0.375886
0.373835
0.371642
0.369506
0.367483
0.365664
0.364085
0.36271
0.361535
0.36061
0.359818
0.359289
0.3588
0.378732
0.394394
0.398294
0.396566
0.392559
0.387608
0.383642
0.380455
0.378266
0.37685
0.376495
0.376748
0.377396
0.378693
0.380435
0.382414
0.384814
0.387124
0.408344
0.427538
0.422424
0.41105
0.402226
0.397922
0.398554
0.401113
0.405979
0.413029
0.420982
0.429812
0.438811
0.448166
0.457271
0.466517
0.475273
0.484133
0.366033
0.353411
0.341988
0.330209
0.318983
0.308381
0.299409
0.291674
0.285403
0.280332
0.27668
0.273864
0.272304
0.271177
0.271168
0.271511
0.272138
0.273372
0.0110231
0.0325861
0.0491327
0.0638194
0.0771485
0.0892882
0.099926
0.108479
0.114207
0.116289
0.113329
0.114431
0.119636
0.124632
0.125516
0.117497
0.0940264
0.101948
0.114473
0.123724
0.141369
0.151702
0.168296
0.181547
0.196162
0.211408
0.227375
0.243867
0.260862
0.278195
0.295854
0.313684
0.331696
0.349747
0.367866
0.385927
0.40398
0.421909
0.439784
0.457497
0.475131
0.492586
0.509952
0.527138
0.544238
0.561165
0.578012
0.594693
0.611299
0.627746
0.644123
0.660346
0.6765
0.692499
0.708422
0.724183
0.739858
0.75536
0.770758
0.785967
0.801049
0.815924
0.830642
0.845127
0.859422
0.873459
0.887271
0.9008
0.914067
0.927026
0.939688
0.95202
0.964023
0.975679
0.986979
0.997921
1.00849
1.01869
1.02852
1.03798
1.04706
1.05581
1.06417
1.07222
1.07991
1.08733
1.09444
1.10138
1.10817
1.11487
1.12127
1.1278
1.13421
1.14062
1.14711
1.15357
1.1601
1.16674
1.17339
1.18012
1.18689
1.19363
1.20025
1.20651
1.21193
1.21543
1.21373
1.21949
1.23362
1.23236
1.23698
1.25119
1.24911
1.26207
1.25763
1.26086
1.27371
1.27269
1.27149
1.27353
1.27542
1.27598
1.27722
1.28048
1.27665
1.27858
1.2732
1.2683
1.2619
1.25459
1.24616
1.23664
1.22579
1.21376
1.20047
1.18599
1.1703
1.15348
1.13542
1.11629
1.09611
1.07494
1.05286
1.03002
1.00648
0.982201
0.957637
0.933274
0.907544
0.883833
0.866855
0.85115
0.835427
0.819599
0.803705
0.787823
0.772027
0.756219
0.740402
0.724724
0.709431
0.694663
0.679782
0.665119
0.650852
0.637009
0.623561
0.610536
0.597958
0.585818
0.574115
0.562831
0.551944
0.541366
0.531199
0.520764
0.511491
0.498939
0.490694
0.461165
0.0256659
0.0601935
0.0829605
0.100436
0.115457
0.128852
0.140917
0.151703
0.161255
0.170086
0.18011
0.191032
0.202486
0.213847
0.224566
0.234489
0.244953
0.261096
0.280267
0.301725
0.326511
0.352691
0.378688
0.404175
0.430688
0.458305
0.486922
0.516398
0.54664
0.577527
0.608974
0.640865
0.673123
0.705647
0.738377
0.771229
0.804163
0.837114
0.87006
0.902952
0.935785
0.968522
1.00117
1.03371
1.06615
1.09847
1.13069
1.1628
1.19482
1.22673
1.25854
1.29025
1.32186
1.35336
1.38475
1.41602
1.44716
1.47814
1.50897
1.5396
1.57003
1.60022
1.63016
1.65979
1.68909
1.71803
1.74656
1.77465
1.80227
1.82935
1.85588
1.88181
1.9071
1.9317
1.9556
1.97876
2.00114
2.02272
2.04349
2.06344
2.08255
2.10082
2.11824
2.13482
2.15057
2.16554
2.17973
2.19323
2.20612
2.21856
2.23048
2.24195
2.25306
2.26388
2.27449
2.28491
2.29516
2.30533
2.31547
2.32559
2.33575
2.34594
2.35616
2.36634
2.37643
2.38631
2.39606
2.4068
2.41734
2.42632
2.43691
2.44648
2.45423
2.46363
2.47136
2.48062
2.48907
2.49612
2.50278
2.50922
2.5121
2.52121
2.52263
2.52805
2.52939
2.52945
2.52939
2.52665
2.5222
2.51598
2.50792
2.49809
2.48595
2.4714
2.45438
2.43485
2.41278
2.38819
2.36109
2.33153
2.29962
2.26553
2.2294
2.19138
2.15167
2.11043
2.06777
2.02423
1.97994
1.93462
1.88934
1.84384
1.79814
1.75249
1.70709
1.66214
1.61777
1.57368
1.5298
1.48682
1.44494
1.40414
1.36414
1.32519
1.28751
1.2511
1.21587
1.18188
1.14919
1.11775
1.08756
1.05859
1.03078
1.00406
0.978416
0.953537
0.930178
0.905542
0.887929
0.841956
0.0458303
0.0916836
0.119169
0.140068
0.158122
0.174638
0.190255
0.205401
0.220504
0.236103
0.252751
0.270299
0.288673
0.307799
0.327689
0.348523
0.370757
0.395
0.421106
0.449037
0.47881
0.510065
0.542602
0.576095
0.610614
0.646183
0.682724
0.720131
0.758311
0.797159
0.836581
0.876475
0.916753
0.95732
0.998107
1.03904
1.08008
1.12117
1.16227
1.20335
1.24439
1.28537
1.32629
1.36712
1.40788
1.44854
1.48912
1.52961
1.57001
1.61033
1.65056
1.6907
1.73075
1.7707
1.81055
1.85029
1.8899
1.92937
1.96868
2.00781
2.04673
2.08541
2.12383
2.16194
2.19971
2.23709
2.27404
2.31052
2.34648
2.38187
2.41664
2.45074
2.48411
2.51672
2.54851
2.57945
2.60947
2.63856
2.66666
2.69376
2.71983
2.74485
2.7688
2.79168
2.8135
2.83427
2.85403
2.87283
2.89074
2.90782
2.92406
2.93953
2.95431
2.96843
2.98195
2.9949
3.00732
3.01928
3.03082
3.04199
3.05282
3.06335
3.07358
3.08352
3.09315
3.10247
3.11155
3.12057
3.12932
3.13791
3.14665
3.15456
3.16241
3.17021
3.17787
3.18567
3.19235
3.19856
3.20441
3.20965
3.21349
3.21821
3.2196
3.22065
3.22019
3.2183
3.21505
3.20961
3.20207
3.1923
3.18014
3.16545
3.14798
3.12758
3.10417
3.07767
3.04805
3.01532
2.97952
2.94072
2.89905
2.85467
2.80775
2.75847
2.70703
2.65363
2.59849
2.54207
2.48499
2.42736
2.36951
2.31146
2.25336
2.19542
2.1379
2.08099
2.02487
1.96954
1.91511
1.86182
1.80986
1.75922
1.70934
1.6607
1.6136
1.56804
1.52381
1.48108
1.43994
1.40031
1.36221
1.32562
1.29049
1.25676
1.22443
1.19332
1.16396
1.13469
1.11242
1.07285
0.0682251
0.123698
0.156359
0.181083
0.202407
0.222037
0.240862
0.259467
0.278328
0.297861
0.318384
0.340018
0.362817
0.386795
0.411975
0.438421
0.466255
0.495611
0.526556
0.559156
0.593442
0.629345
0.666721
0.705368
0.745168
0.786033
0.827889
0.870649
0.914223
0.958513
1.00342
1.04886
1.09473
1.14095
1.18746
1.23418
1.28107
1.32809
1.37518
1.42233
1.4695
1.51668
1.56385
1.61099
1.6581
1.70517
1.7522
1.79919
1.84613
1.89301
1.93986
1.98664
2.03338
2.08005
2.12666
2.1732
2.21964
2.26599
2.31221
2.35828
2.40419
2.4499
2.49537
2.54057
2.58545
2.62998
2.67409
2.71774
2.76087
2.80343
2.84536
2.88658
2.92705
2.9667
3.00546
3.04328
3.08011
3.11587
3.15052
3.18402
3.21631
3.24737
3.27717
3.30567
3.33289
3.35881
3.38346
3.40686
3.42904
3.45006
3.46992
3.48867
3.50637
3.52306
3.53877
3.55355
3.56744
3.58052
3.59282
3.6044
3.61532
3.6256
3.63529
3.6444
3.65296
3.661
3.66859
3.67582
3.68272
3.68934
3.6956
3.70133
3.70685
3.71211
3.71724
3.72198
3.72568
3.72879
3.7317
3.7339
3.7346
3.73432
3.73281
3.7304
3.72644
3.72088
3.71356
3.70411
3.69239
3.67821
3.66139
3.64174
3.61905
3.59317
3.56398
3.5314
3.49539
3.45595
3.41311
3.36697
3.31765
3.2653
3.21012
3.15229
3.09208
3.02979
2.96579
2.90054
2.83455
2.76808
2.70138
2.63459
2.56788
2.50149
2.43566
2.37061
2.30652
2.24349
2.18166
2.12118
2.0622
2.00476
1.94872
1.89423
1.84146
1.79038
1.74052
1.69232
1.64586
1.60102
1.55785
1.51635
1.47648
1.43821
1.40155
1.36643
1.33323
1.30118
1.27472
1.24002
0.0912085
0.155271
0.193248
0.221939
0.246563
0.269148
0.290769
0.312114
0.333693
0.355913
0.379091
0.403445
0.429108
0.45615
0.484608
0.51451
0.5459
0.578828
0.613349
0.649504
0.687308
0.726718
0.767634
0.809926
0.853482
0.898201
0.943995
0.990767
1.03842
1.08687
1.13601
1.18575
1.23602
1.28674
1.33784
1.38927
1.44097
1.4929
1.54501
1.59726
1.64963
1.70209
1.75463
1.80722
1.85985
1.91252
1.96521
2.01791
2.07064
2.12337
2.17612
2.22887
2.28163
2.3344
2.38715
2.4399
2.49261
2.54529
2.59792
2.65047
2.70291
2.75522
2.80735
2.85928
2.91095
2.96232
3.01333
3.06391
3.11401
3.16356
3.21249
3.26072
3.30819
3.3548
3.40049
3.44517
3.48876
3.5312
3.57241
3.61231
3.65085
3.68797
3.72362
3.75775
3.79034
3.82137
3.85084
3.87875
3.90511
3.92994
3.95327
3.97512
3.99554
4.01455
4.0322
4.04854
4.06361
4.07748
4.0902
4.10185
4.11246
4.12211
4.13082
4.13866
4.14565
4.15184
4.15731
4.16218
4.16651
4.17023
4.17328
4.17576
4.17778
4.17939
4.18076
4.18149
4.18095
4.17939
4.17763
4.17504
4.17132
4.16666
4.16077
4.15367
4.14505
4.13476
4.12259
4.10831
4.09171
4.07257
4.05069
4.02588
3.99792
3.96666
3.93196
3.89373
3.8519
3.80647
3.75747
3.70498
3.64912
3.59004
3.52796
3.46313
3.39588
3.32658
3.25563
3.18347
3.11054
3.03716
2.96356
2.88997
2.81658
2.74364
2.67139
2.60005
2.52981
2.46081
2.39321
2.32715
2.26273
2.20002
2.13899
2.07973
2.0223
1.96676
1.91294
1.86096
1.81086
1.76231
1.71551
1.67049
1.62716
1.58557
1.54572
1.50766
1.47164
1.43745
1.40787
1.37226
0.1137
0.185407
0.228492
0.261066
0.288877
0.314226
0.338335
0.361979
0.385717
0.409986
0.435129
0.461409
0.489015
0.518069
0.548645
0.58079
0.61454
0.649922
0.686962
0.725671
0.766041
0.808029
0.851561
0.896543
0.942878
0.99047
1.03922
1.08905
1.13985
1.19155
1.24404
1.29726
1.35112
1.40556
1.46051
1.51592
1.57171
1.62786
1.68431
1.74102
1.79796
1.85511
1.91242
1.96989
2.0275
2.08523
2.14307
2.20102
2.25907
2.31721
2.37544
2.43377
2.49218
2.55067
2.60925
2.6679
2.72661
2.78537
2.84417
2.90298
2.96178
3.02054
3.07923
3.13779
3.19618
3.25435
3.31224
3.36977
3.42689
3.48351
3.53954
3.5949
3.64951
3.70325
3.75605
3.80779
3.85839
3.90774
3.95574
4.0023
4.04734
4.09077
4.13252
4.17251
4.21071
4.24706
4.28154
4.31412
4.3448
4.37359
4.40048
4.42551
4.44868
4.47005
4.48963
4.50749
4.52366
4.53823
4.55124
4.56278
4.57289
4.58165
4.58912
4.59535
4.60041
4.60428
4.6071
4.60904
4.61024
4.61042
4.60942
4.60776
4.6054
4.60234
4.5986
4.59397
4.58832
4.58182
4.57458
4.56642
4.55722
4.54697
4.5355
4.52272
4.50844
4.4925
4.47468
4.4548
4.43263
4.40796
4.38059
4.35029
4.31687
4.28017
4.24001
4.19631
4.14898
4.09799
4.04335
3.98515
3.9235
3.85858
3.79065
3.72
3.64699
3.572
3.49544
3.41771
3.33924
3.26032
3.18125
3.10224
3.02354
2.9454
2.86804
2.79169
2.71656
2.6428
2.57057
2.50001
2.43122
2.36428
2.2992
2.23603
2.17482
2.1156
2.05833
2.00307
1.94984
1.89851
1.84911
1.80154
1.75565
1.71158
1.66933
1.62901
1.59083
1.55484
1.52279
1.4866
0.134995
0.213268
0.261039
0.297235
0.328026
0.35593
0.382284
0.407934
0.433487
0.45941
0.48608
0.513793
0.542781
0.57321
0.605197
0.638818
0.674122
0.711136
0.749875
0.790333
0.83249
0.876302
0.921708
0.968629
1.01698
1.06668
1.11764
1.16977
1.22298
1.2772
1.33235
1.38835
1.44513
1.50262
1.56077
1.61951
1.67878
1.73854
1.79873
1.85933
1.92028
1.98156
2.04313
2.10498
2.16708
2.22941
2.29196
2.35472
2.41769
2.48085
2.54421
2.60777
2.67151
2.73545
2.79957
2.86388
2.92836
2.99301
3.0578
3.12273
3.18776
3.25288
3.31803
3.38318
3.44827
3.51326
3.57806
3.64262
3.70684
3.77064
3.83393
3.8966
3.95855
4.01966
4.07981
4.13889
4.19677
4.25333
4.30845
4.362
4.41388
4.46396
4.51216
4.55836
4.6025
4.64449
4.6843
4.72186
4.75715
4.79015
4.82086
4.84928
4.87542
4.8993
4.92096
4.94045
4.95781
4.97312
4.98643
4.99783
5.00738
5.01516
5.02122
5.02564
5.02857
5.02978
5.02949
5.02801
5.02534
5.02134
5.01609
5.00973
5.00232
4.99388
4.98444
4.97394
4.96236
4.94978
4.93622
4.92162
4.90595
4.88913
4.87109
4.85171
4.83086
4.80838
4.7841
4.75785
4.72943
4.69863
4.66524
4.62906
4.58989
4.54754
4.50186
4.45272
4.40002
4.34372
4.28383
4.22042
4.15362
4.08364
4.01076
3.93527
3.85755
3.77795
3.69688
3.61471
3.53183
3.44854
3.36514
3.28188
3.199
3.11675
3.03538
2.95509
2.87608
2.79855
2.72264
2.64849
2.5762
2.50585
2.43749
2.37114
2.30686
2.24467
2.18455
2.12654
2.07067
2.01689
1.96518
1.91548
1.8677
1.82185
1.7778
1.73576
1.69591
1.65842
1.62434
1.58747
0.154529
0.238258
0.290158
0.32961
0.36311
0.393343
0.421731
0.449175
0.476316
0.503648
0.531574
0.560419
0.590446
0.621855
0.6548
0.689386
0.725681
0.763725
0.803533
0.845101
0.888405
0.933405
0.980047
1.02826
1.07799
1.12914
1.18164
1.23541
1.29039
1.34648
1.40363
1.46177
1.52083
1.58074
1.64145
1.7029
1.76503
1.8278
1.89115
1.95505
2.01945
2.08432
2.14962
2.21532
2.28141
2.34787
2.41467
2.4818
2.54927
2.61706
2.68516
2.75359
2.82233
2.89139
2.96077
3.03046
3.10046
3.17076
3.24136
3.31222
3.38334
3.45467
3.52619
3.59785
3.6696
3.74138
3.81311
3.88472
3.95611
4.0272
4.09786
4.16799
4.23745
4.30613
4.37387
4.44054
4.50599
4.57007
4.63262
4.69351
4.75257
4.80968
4.86468
4.91747
4.96793
5.01595
5.06146
5.10436
5.14462
5.18219
5.21705
5.24917
5.27856
5.30524
5.32923
5.35056
5.3693
5.38551
5.39925
5.4106
5.41965
5.42647
5.43113
5.43358
5.43402
5.4324
5.42902
5.42391
5.41713
5.40871
5.39869
5.38718
5.37425
5.35994
5.3443
5.32736
5.30915
5.28971
5.26908
5.24727
5.22426
5.20003
5.17452
5.14767
5.11937
5.08951
5.05796
5.02457
4.98917
4.95158
4.91161
4.86905
4.82373
4.77545
4.72405
4.66939
4.61137
4.54994
4.4851
4.41693
4.34559
4.27127
4.19424
4.1148
4.03328
3.95004
3.86545
3.77985
3.69359
3.60698
3.52031
3.43384
3.34782
3.26249
3.17809
3.09482
3.01288
2.93247
2.85373
2.77681
2.70182
2.62882
2.55788
2.48903
2.42231
2.35775
2.29534
2.23511
2.17708
2.12125
2.06759
2.01606
1.96661
1.91923
1.87388
1.83059
1.78946
1.75072
1.71499
1.67739
0.171896
0.260006
0.31542
0.357704
0.3936
0.425917
0.456138
0.485198
0.513763
0.542344
0.571359
0.601152
0.632006
0.664148
0.697755
0.732958
0.769846
0.808474
0.84887
0.891037
0.934959
0.980604
1.02793
1.07687
1.12738
1.17939
1.23284
1.28765
1.34377
1.40112
1.45965
1.51929
1.58
1.6417
1.70434
1.76788
1.83225
1.89741
1.96332
2.02992
2.09718
2.16505
2.23352
2.30254
2.37209
2.44215
2.5127
2.58373
2.65523
2.7272
2.79963
2.87252
2.94588
3.01971
3.094
3.16875
3.24397
3.31965
3.39579
3.47235
3.54934
3.62671
3.70444
3.78247
3.86076
3.93924
4.01784
4.09647
4.17503
4.25342
4.33152
4.40919
4.48629
4.56268
4.63819
4.71265
4.7859
4.85775
4.92803
4.99654
5.06312
5.12759
5.18977
5.24952
5.30667
5.3611
5.41269
5.46133
5.50695
5.54946
5.58883
5.62502
5.65802
5.68781
5.71444
5.73791
5.75829
5.77563
5.79
5.80149
5.81019
5.81614
5.81925
5.81983
5.81794
5.81363
5.80702
5.7982
5.78723
5.7742
5.75917
5.74224
5.72348
5.70296
5.68075
5.65692
5.63153
5.60465
5.57634
5.54664
5.51557
5.48317
5.4494
5.41427
5.37771
5.33965
5.30002
5.2587
5.21557
5.17048
5.12328
5.07379
5.02183
4.96723
4.90984
4.84952
4.78617
4.71974
4.65024
4.57774
4.50239
4.42437
4.34391
4.26131
4.17685
4.09087
4.00368
3.91561
3.82697
3.73804
3.6491
3.56043
3.47226
3.38484
3.29836
3.21305
3.12909
3.04666
2.96593
2.88704
2.8101
2.73518
2.66234
2.59163
2.52308
2.45673
2.39259
2.33065
2.27095
2.2135
2.15827
2.10525
2.0544
2.00572
1.95921
1.91491
1.87286
1.83313
1.79606
1.75774
0.186841
0.278336
0.336636
0.381305
0.419258
0.453396
0.48524
0.515747
0.545593
0.575299
0.605286
0.635907
0.667454
0.700168
0.734242
0.769825
0.807023
0.845909
0.886525
0.928888
0.972994
1.01882
1.06635
1.11552
1.16629
1.21862
1.27246
1.32774
1.38441
1.44242
1.50173
1.56227
1.624
1.68686
1.75081
1.8158
1.88179
1.94872
2.01655
2.08524
2.15475
2.22504
2.29608
2.36784
2.44029
2.51341
2.58719
2.6616
2.73664
2.81231
2.8886
2.96552
3.04307
3.12124
3.20005
3.2795
3.35959
3.44031
3.52167
3.60364
3.68622
3.76937
3.85306
3.93726
4.02189
4.10691
4.19224
4.27777
4.36342
4.44905
4.53455
4.61976
4.70453
4.78869
4.87206
4.95444
5.03564
5.11544
5.19365
5.27003
5.34438
5.41649
5.48616
5.55318
5.61736
5.67855
5.73659
5.79133
5.84267
5.8905
5.93476
5.97538
6.01233
6.04559
6.07518
6.10111
6.12343
6.14218
6.15745
6.16931
6.17786
6.18302
6.18497
6.18386
6.17978
6.1728
6.16301
6.15051
6.13539
6.11772
6.0976
6.07511
6.05036
6.02342
5.99439
5.96337
5.93043
5.89568
5.85919
5.82106
5.78135
5.74013
5.69742
5.65328
5.60769
5.56066
5.51216
5.46213
5.41051
5.35721
5.3021
5.24505
5.18592
5.12457
5.06086
4.99471
4.92599
4.85466
4.78073
4.70426
4.62536
4.5442
4.46099
4.37595
4.28935
4.20147
4.1126
4.02299
3.93293
3.84266
3.75244
3.66256
3.57324
3.48469
3.3971
3.31067
3.22557
3.14199
3.0601
2.98005
2.90192
2.8258
2.75175
2.67982
2.61006
2.5425
2.47715
2.41402
2.35313
2.2945
2.23811
2.18396
2.13203
2.08233
2.03487
1.9897
1.94686
1.90638
1.86824
1.82932
0.199221
0.293206
0.35379
0.400396
0.440058
0.475737
0.508979
0.540752
0.571735
0.602445
0.633303
0.664656
0.696799
0.729975
0.764384
0.800183
0.837493
0.8764
0.916961
0.959207
1.00315
1.04878
1.0961
1.14506
1.19564
1.24781
1.30152
1.35674
1.41344
1.47155
1.53106
1.59191
1.65407
1.71749
1.78213
1.84796
1.91494
1.98302
2.05216
2.12232
2.19348
2.26559
2.33862
2.41254
2.48732
2.56295
2.6394
2.71667
2.79473
2.8736
2.95326
3.03373
3.11501
3.1971
3.28
3.36372
3.44827
3.53365
3.61986
3.70687
3.7947
3.8833
3.97265
4.06271
4.15342
4.24472
4.33653
4.42876
4.52129
4.61401
4.70677
4.79941
4.89177
4.98365
5.07486
5.16517
5.25436
5.3422
5.42844
5.51283
5.59512
5.67507
5.75242
5.82696
5.89844
5.96666
6.03144
6.09259
6.14997
6.20344
6.25291
6.29829
6.33953
6.37659
6.40947
6.43816
6.46272
6.48318
6.49962
6.5121
6.5207
6.52541
6.52644
6.52388
6.5178
6.50831
6.49549
6.47944
6.46026
6.43803
6.41285
6.38481
6.35403
6.32059
6.28461
6.2462
6.20548
6.16255
6.11755
6.07058
6.02176
5.97118
5.91896
5.86517
5.8099
5.75319
5.69508
5.63561
5.57476
5.51251
5.44881
5.38358
5.31672
5.24816
5.17781
5.10563
5.03146
4.95528
4.87709
4.79694
4.71491
4.63112
4.54573
4.45895
4.37097
4.28202
4.19233
4.10211
4.01159
3.92095
3.83042
3.74033
3.65085
3.56215
3.47442
3.38781
3.30249
3.21863
3.13643
3.05602
2.97749
2.90092
2.82635
2.75386
2.68351
2.61532
2.54933
2.48553
2.42394
2.36458
2.30744
2.25254
2.19988
2.14945
2.1013
2.05545
2.01197
1.97086
1.93189
1.89252
0.208984
0.304679
0.366984
0.415096
0.456115
0.493045
0.527444
0.560284
0.59224
0.623822
0.65544
0.687433
0.720085
0.753636
0.788283
0.824185
0.86147
0.900231
0.940538
0.982435
1.02595
1.07109
1.11786
1.16626
1.21626
1.26785
1.32101
1.37571
1.43194
1.48967
1.54886
1.60949
1.67153
1.73494
1.79971
1.8658
1.93319
2.00183
2.0717
2.14276
2.21499
2.28834
2.3628
2.43833
2.5149
2.5925
2.6711
2.75069
2.83126
2.91282
2.99538
3.07892
3.16346
3.249
3.33554
3.4231
3.51168
3.60128
3.69191
3.78356
3.87622
3.96987
4.06449
4.16004
4.25645
4.35368
4.45164
4.55023
4.64935
4.74886
4.84862
4.94846
5.04819
5.14761
5.24649
5.34461
5.4417
5.53751
5.63176
5.72416
5.81442
5.90227
5.98742
6.06959
6.14851
6.22395
6.29565
6.36342
6.42707
6.48643
6.54137
6.59178
6.63757
6.6787
6.71514
6.74688
6.77394
6.79638
6.81424
6.8276
6.83652
6.84109
6.84142
6.83763
6.82978
6.81799
6.80234
6.78293
6.75985
6.7332
6.70307
6.66956
6.63279
6.59287
6.54991
6.50404
6.45541
6.40413
6.35037
6.29427
6.23598
6.17565
6.11344
6.04949
5.98395
5.91693
5.84856
5.77895
5.70818
5.6363
5.56337
5.48937
5.41426
5.33804
5.26066
5.18196
5.10195
5.0207
4.93822
4.85453
4.76967
4.68372
4.59678
4.50899
4.42048
4.3314
4.2419
4.15213
4.06226
3.97238
3.88266
3.79339
3.70477
3.61694
3.53004
3.44421
3.35959
3.27633
3.19469
3.11477
3.03664
2.96036
2.88601
2.81364
2.74334
2.67514
2.60907
2.54513
2.48334
2.42372
2.36628
2.31103
2.25799
2.20717
2.1586
2.11232
2.06837
2.02676
1.98716
1.9475
0.216169
0.312897
0.376406
0.425614
0.467644
0.505523
0.540823
0.57451
0.607253
0.639552
0.671803
0.70433
0.737403
0.771249
0.806057
0.841982
0.879149
0.917656
0.957578
0.998972
1.04188
1.08632
1.13231
1.17987
1.229
1.27969
1.33195
1.38576
1.44113
1.49806
1.55654
1.6165
1.67794
1.74087
1.80527
1.87112
1.9384
2.0071
2.07719
2.14864
2.22143
2.29552
2.3709
2.44754
2.52542
2.6045
2.68478
2.76622
2.8488
2.93258
3.01756
3.10373
3.19109
3.27963
3.36935
3.46028
3.55243
3.6458
3.74039
3.83621
3.93325
4.03149
4.13091
4.23147
4.33312
4.43581
4.53945
4.64396
4.74921
4.85509
4.96143
5.06805
5.17478
5.28138
5.38762
5.49324
5.59797
5.70151
5.80356
5.9038
6.00191
6.09756
6.19043
6.2802
6.36656
6.44923
6.52793
6.6024
6.67243
6.7378
6.79836
6.85395
6.90448
6.94986
6.99006
7.02504
7.05483
7.07945
7.09896
7.11342
7.12291
7.12753
7.1274
7.12262
7.11322
7.09935
7.08108
7.0585
7.03171
7.0008
6.96586
6.92701
6.88435
6.83801
6.7881
6.73477
6.67816
6.61845
6.55578
6.49036
6.42235
6.35195
6.27937
6.20483
6.12853
6.05068
5.97148
5.89116
5.80988
5.72778
5.64487
5.56102
5.47663
5.39183
5.30676
5.22152
5.1362
5.05047
4.96428
4.87764
4.79055
4.70303
4.61513
4.52692
4.43849
4.34989
4.26124
4.1726
4.08406
3.99568
3.90758
3.82028
3.73371
3.64791
3.563
3.47908
3.39624
3.31461
3.23443
3.15586
3.07895
3.00377
2.93037
2.85882
2.78924
2.72166
2.6561
2.59259
2.53112
2.47172
2.41443
2.35926
2.30622
2.25535
2.20667
2.16022
2.11603
2.07408
2.03405
1.9943
0.22083
0.318038
0.38229
0.432207
0.474911
0.51344
0.549371
0.583668
0.616992
0.64983
0.682566
0.715507
0.748907
0.782973
0.81788
0.853773
0.890769
0.928967
0.968443
1.00926
1.05147
1.0951
1.14018
1.18676
1.23484
1.28446
1.33558
1.38824
1.44246
1.49828
1.55574
1.61474
1.67531
1.73743
1.80113
1.8664
1.93322
2.00159
2.0715
2.14292
2.21584
2.29025
2.36611
2.44342
2.52216
2.6023
2.68382
2.76671
2.85094
2.93659
3.02362
3.11202
3.20179
3.29291
3.38536
3.47921
3.57445
3.6711
3.76917
3.86864
3.96953
4.07181
4.17547
4.28047
4.38677
4.49432
4.60304
4.71284
4.82361
4.93522
5.04753
5.16035
5.27347
5.38669
5.49973
5.61234
5.7242
5.83502
5.94445
6.05215
6.15775
6.26089
6.36122
6.45836
6.55197
6.64172
6.72728
6.80837
6.88471
6.95607
7.02225
7.08306
7.13837
7.18809
7.23212
7.27046
7.30308
7.33001
7.35129
7.367
7.37721
7.38202
7.3816
7.37603
7.36528
7.3495
7.32879
7.30322
7.27288
7.23786
7.19826
7.15418
7.10574
7.05304
6.99624
6.93546
6.87087
6.80266
6.731
6.65612
6.57822
6.49753
6.41432
6.32885
6.24146
6.15239
6.06191
5.96996
5.87707
5.78367
5.69007
5.59704
5.50422
5.41174
5.31983
5.2288
5.13783
5.0473
4.95726
4.86767
4.77851
4.68976
4.60139
4.51341
4.4258
4.33856
4.25169
4.1652
4.07908
3.9933
3.90778
3.82307
3.7391
3.65591
3.57357
3.49217
3.41174
3.33238
3.25465
3.17841
3.10368
3.0305
2.95892
2.88896
2.82079
2.75449
2.69007
2.62755
2.56694
2.50827
2.45159
2.39693
2.34431
2.29376
2.24529
2.19896
2.15477
2.11268
2.07245
2.03285
0.223353
0.320421
0.384947
0.435194
0.478238
0.517117
0.553409
0.588072
0.621753
0.654917
0.687973
0.721206
0.754842
0.789066
0.824034
0.859875
0.896698
0.934594
0.97364
1.01391
1.05546
1.09829
1.14246
1.18801
1.23501
1.28354
1.33354
1.38505
1.43809
1.49268
1.54883
1.60658
1.66595
1.72699
1.78971
1.85413
1.92024
1.98805
2.05755
2.12874
2.20161
2.27614
2.35233
2.43014
2.50957
2.5906
2.67319
2.75734
2.843
2.93019
3.01891
3.10916
3.20096
3.29427
3.38909
3.48545
3.58331
3.68274
3.78373
3.8863
3.99043
4.09611
4.20333
4.31205
4.42225
4.53388
4.64686
4.76113
4.87657
4.99307
5.11047
5.22861
5.34728
5.46626
5.58528
5.70406
5.82229
5.93964
6.05575
6.17023
6.28271
6.39277
6.50002
6.60406
6.70448
6.80091
6.893
6.9804
7.0628
7.13993
7.21154
7.27743
7.33741
7.39136
7.43918
7.48083
7.51626
7.5455
7.56859
7.58557
7.59654
7.60158
7.60095
7.5947
7.58271
7.56515
7.54211
7.51366
7.47988
7.44086
7.39669
7.34746
7.29329
7.2343
7.17063
7.10242
7.02985
6.9531
6.8724
6.78799
6.70009
6.60899
6.51498
6.41815
6.31891
6.21776
6.11511
6.01199
5.90858
5.80513
5.70236
5.59956
5.49749
5.39648
5.29684
5.1987
5.10198
5.00677
4.91308
4.82089
4.73011
4.64066
4.55247
4.46543
4.37946
4.29445
4.2103
4.12693
4.04424
3.96216
3.88065
3.79984
3.71974
3.64039
3.56181
3.48407
3.40718
3.33113
3.25642
3.18302
3.11097
3.04031
2.97107
2.90328
2.83729
2.77301
2.71042
2.64956
2.59042
2.533
2.47743
2.42373
2.37194
2.32208
2.27418
2.22826
2.18433
2.14236
2.10223
2.06303
0.223282
0.319977
0.384431
0.434675
0.477746
0.516685
0.553073
0.587871
0.621724
0.65509
0.688384
0.721847
0.755682
0.790056
0.825104
0.86094
0.897659
0.935344
0.97407
1.01391
1.05495
1.09717
1.14061
1.18534
1.23138
1.27876
1.32753
1.37779
1.42959
1.483
1.53803
1.59472
1.6531
1.71322
1.77511
1.83878
1.90427
1.97159
2.04074
2.11173
2.18455
2.2592
2.33567
2.41395
2.494
2.57582
2.65938
2.74466
2.83163
2.92028
3.0106
3.1026
3.1963
3.29162
3.38851
3.487
3.58707
3.68877
3.79215
3.89719
4.0039
4.11225
4.22225
4.33385
4.44705
4.5618
4.67805
4.79573
4.91477
5.03505
5.15643
5.27877
5.40186
5.52548
5.64938
5.77327
5.89683
6.01972
6.14156
6.26195
6.38046
6.49666
6.61011
6.72036
6.82698
6.92954
7.02764
7.1209
7.20895
7.29148
7.36821
7.43888
7.50328
7.56125
7.61267
7.65744
7.69554
7.72695
7.7517
7.76984
7.78143
7.78659
7.78569
7.77871
7.76542
7.74603
7.72059
7.68918
7.65187
7.60874
7.55988
7.50538
7.44535
7.37991
7.30921
7.23338
7.15262
7.06712
6.97705
6.88252
6.78393
6.68162
6.576
6.46792
6.35764
6.2455
6.13196
6.01803
5.90327
5.7886
5.67463
5.56163
5.45009
5.34046
5.23309
5.12821
5.02592
4.9263
4.82936
4.73504
4.64322
4.55378
4.46653
4.38131
4.2979
4.2161
4.13571
4.05654
3.97839
3.90111
3.82459
3.74881
3.67372
3.59932
3.5256
3.4526
3.38032
3.30883
3.23832
3.16887
3.10053
3.03335
2.96736
2.90255
2.83923
2.7774
2.71709
2.6583
2.60106
2.5454
2.49147
2.43925
2.38875
2.34
2.29302
2.24783
2.20445
2.16297
2.12326
2.08473
0.222292
0.317764
0.381622
0.431468
0.474257
0.513008
0.5493
0.584092
0.61802
0.65153
0.684971
0.718601
0.752619
0.787177
0.822399
0.858382
0.895209
0.932953
0.971667
1.0114
1.05219
1.09408
1.13718
1.18153
1.22715
1.2741
1.32244
1.37223
1.42355
1.47646
1.531
1.58724
1.64523
1.705
1.76661
1.83008
1.89546
1.96277
2.03203
2.10324
2.17641
2.25153
2.3286
2.4076
2.4885
2.57128
2.65591
2.74236
2.8306
2.92059
3.01231
3.10575
3.20087
3.29762
3.39601
3.49602
3.59766
3.70092
3.80582
3.91236
4.02055
4.13038
4.24184
4.35493
4.46964
4.58593
4.7038
4.82318
4.94402
5.06625
5.18975
5.31439
5.44
5.56637
5.69326
5.8204
5.94746
6.07411
6.19996
6.32458
6.44754
6.56836
6.68657
6.80168
6.91323
7.02073
7.12374
7.22182
7.31457
7.40164
7.48269
7.55742
7.62559
7.687
7.74148
7.78893
7.82927
7.86248
7.88856
7.90755
7.91952
7.92454
7.92323
7.9154
7.90073
7.87941
7.85151
7.81709
7.77622
7.72896
7.67539
7.6156
7.54969
7.47772
7.39984
7.31622
7.22704
7.13257
7.03311
6.9291
6.82072
6.70837
6.59246
6.47387
6.35235
6.22873
6.10363
5.97781
5.8517
5.72603
5.60149
5.47863
5.35803
5.24023
5.12567
5.01467
4.90744
4.80409
4.70463
4.60898
4.51699
4.42845
4.3431
4.26066
4.18084
4.1033
4.02774
3.95384
3.88131
3.8099
3.73942
3.66972
3.60071
3.53231
3.46449
3.39724
3.33056
3.26449
3.19913
3.13457
3.07085
3.00803
2.94614
2.88526
2.8255