/*--------------------------------*- C++ -*----------------------------------*\
  =========                 |
  \\      /  F ield         | OpenFOAM: The Open Source CFD Toolbox
   \\    /   O peration     | Website:  https://openfoam.org
    \\  /    A nd           | Version:  9
     \\/     M anipulation  |
\*---------------------------------------------------------------------------*/
FoamFile
{
    format      ascii;
    class       volScalarField;
    location    "105";
    object      p;
}
// * * * * * * * * * * * * * * * * * * * * * * * * * * * * * * * * * * * * * //

dimensions      [0 2 -2 0 0 0 0];

internalField   nonuniform List<scalar> 
12225
(
-2.14744
-4.33528
-5.43479
-5.7548
-5.93521
-6.1031
-6.23321
-6.32644
-6.40047
-6.4644
-6.51985
-6.56851
-6.60952
-6.64287
-6.66705
-6.67005
-6.66937
-6.52942
-5.30986
-6.07845
-6.23854
-6.14563
-6.13226
-6.19901
-6.2751
-6.33893
-6.39602
-6.45008
-6.50025
-6.54513
-6.58461
-6.61746
-6.6437
-6.65339
-6.66681
-6.62684
-5.71052
-5.69612
-5.82308
-5.90082
-5.99491
-6.114
-6.21975
-6.30274
-6.3721
-6.43423
-6.49008
-6.53929
-6.58266
-6.61938
-6.65058
-6.67051
-6.69842
-6.71384
-5.58915
-5.53233
-5.77348
-5.93122
-6.03215
-6.13728
-6.23355
-6.3118
-6.37821
-6.43825
-6.49285
-6.54165
-6.58538
-6.62371
-6.65823
-6.6872
-6.72531
-6.77173
-5.57926
-5.60345
-5.83106
-5.97203
-6.05484
-6.14584
-6.2357
-6.31171
-6.37706
-6.43646
-6.49096
-6.54033
-6.58532
-6.62613
-6.66467
-6.70165
-6.74777
-6.80777
-5.63743
-5.68604
-5.85986
-5.98316
-6.0639
-6.15073
-6.23749
-6.31239
-6.37733
-6.43648
-6.4911
-6.54116
-6.58744
-6.63062
-6.67271
-6.71562
-6.76692
-6.83177
-5.69783
-5.74179
-5.87652
-5.99226
-6.07529
-6.15848
-6.2412
-6.31438
-6.37864
-6.43742
-6.49206
-6.54272
-6.5902
-6.63547
-6.68049
-6.72751
-6.78174
-6.84705
-5.75141
-5.78883
-5.89837
-6.00612
-6.08846
-6.16718
-6.24551
-6.3167
-6.38018
-6.43855
-6.49315
-6.54437
-6.59293
-6.63995
-6.68721
-6.7368
-6.79217
-6.85564
-5.80121
-5.83417
-5.9247
-6.02217
-6.10166
-6.17624
-6.25045
-6.31948
-6.38201
-6.43986
-6.49435
-6.54596
-6.59538
-6.64371
-6.69247
-6.74334
-6.79851
-6.85904
-5.84838
-5.87748
-5.95265
-6.03943
-6.11511
-6.18598
-6.2563
-6.32292
-6.38425
-6.44145
-6.49567
-6.54746
-6.59743
-6.64656
-6.69608
-6.74721
-6.80125
-6.85846
-5.89283
-5.9182
-5.9811
-6.0579
-6.12914
-6.19642
-6.26302
-6.32706
-6.38697
-6.44335
-6.49713
-6.54884
-6.59902
-6.64845
-6.69807
-6.74871
-6.80106
-6.85492
-5.93102
-5.95325
-6.00719
-6.07572
-6.14248
-6.20643
-6.2698
-6.33141
-6.38985
-6.44531
-6.4985
-6.54991
-6.59995
-6.64923
-6.69845
-6.74815
-6.79868
-6.84962
-5.96632
-5.98592
-6.03254
-6.0937
-6.15592
-6.2166
-6.27691
-6.33612
-6.39299
-6.4474
-6.49985
-6.55073
-6.60038
-6.64922
-6.69771
-6.74619
-6.79477
-6.84302
-6.00336
-6.02046
-6.06033
-6.11419
-6.17136
-6.22835
-6.28535
-6.34186
-6.39683
-6.44991
-6.50131
-6.55135
-6.60026
-6.64826
-6.6956
-6.74243
-6.78876
-6.83414
-6.0409
-6.05562
-6.08954
-6.13656
-6.18842
-6.2414
-6.29492
-6.34848
-6.40124
-6.45264
-6.50267
-6.55146
-6.59917
-6.64588
-6.69167
-6.73647
-6.78028
-6.82276
-6.07699
-6.08959
-6.11851
-6.1595
-6.20616
-6.25504
-6.30504
-6.35555
-6.4058
-6.45523
-6.50353
-6.55068
-6.59673
-6.64172
-6.68554
-6.72811
-6.76926
-6.80889
-6.10872
-6.1196
-6.14462
-6.18069
-6.22278
-6.26782
-6.31451
-6.36204
-6.40971
-6.45691
-6.50323
-6.54843
-6.59248
-6.63536
-6.67698
-6.71712
-6.75566
-6.7925
-6.13172
-6.14141
-6.16379
-6.19646
-6.23519
-6.27723
-6.32123
-6.36626
-6.41158
-6.45661
-6.50089
-6.54405
-6.58598
-6.62662
-6.66593
-6.70367
-6.73973
-6.77402
-6.13904
-6.14827
-6.16966
-6.20103
-6.23842
-6.27911
-6.3217
-6.36527
-6.40907
-6.45249
-6.4951
-6.53648
-6.5765
-6.61511
-6.65228
-6.68783
-6.72167
-6.75377
-6.1233
-6.13315
-6.15593
-6.18921
-6.22848
-6.27051
-6.31394
-6.35794
-6.40188
-6.44508
-6.48719
-6.5278
-6.56691
-6.60437
-6.6403
-6.67444
-6.70687
-6.73753
-6.09668
-6.10755
-6.13299
-6.17018
-6.21317
-6.25799
-6.30344
-6.34908
-6.3941
-6.43793
-6.48016
-6.52073
-6.5595
-6.59657
-6.63179
-6.66524
-6.69677
-6.72671
-6.06162
-6.07351
-6.10302
-6.14675
-6.1952
-6.24343
-6.29154
-6.33957
-6.38643
-6.43132
-6.47411
-6.51489
-6.55371
-6.59058
-6.62547
-6.65841
-6.68945
-6.71883
-6.02118
-6.03314
-6.06774
-6.12113
-6.17683
-6.22899
-6.28008
-6.33075
-6.37951
-6.42558
-6.46913
-6.51037
-6.54944
-6.58627
-6.62101
-6.65364
-6.68441
-6.71346
-5.97756
-5.98859
-6.03049
-6.095
-6.15732
-6.21418
-6.26997
-6.32398
-6.3744
-6.42132
-6.46547
-6.50713
-6.54634
-6.58316
-6.61768
-6.65012
-6.68062
-6.70945
-5.93071
-5.93622
-5.99901
-6.07729
-6.13934
-6.19774
-6.25904
-6.31754
-6.37016
-6.41822
-6.46319
-6.50538
-6.54479
-6.58158
-6.61596
-6.64821
-6.6785
-6.70721
-5.88748
-5.85109
-5.96074
-6.07182
-6.13416
-6.18953
-6.25187
-6.31175
-6.36505
-6.41373
-6.45935
-6.50204
-6.54171
-6.57861
-6.61302
-6.64527
-6.67555
-6.70417
-5.9016
-5.74266
-5.87169
-6.02587
-6.11613
-6.18757
-6.25657
-6.3176
-6.37046
-6.41869
-6.46384
-6.50598
-6.54501
-6.58128
-6.6151
-6.6468
-6.67664
-6.70495
-6.02433
-5.84437
-5.85872
-5.93092
-6.01943
-6.11874
-6.20951
-6.28338
-6.34512
-6.40018
-6.45038
-6.49601
-6.53754
-6.5756
-6.61068
-6.6433
-6.67394
-6.70337
-5.73164
-6.32324
-6.41226
-6.28809
-6.23385
-6.2611
-6.30816
-6.3515
-6.39308
-6.43517
-6.47653
-6.51572
-6.55242
-6.58672
-6.61865
-6.64845
-6.67641
-6.70442
-2.74339
-4.50621
-5.51102
-5.81027
-5.95953
-6.10322
-6.21733
-6.2984
-6.36265
-6.4194
-6.4705
-6.51638
-6.55781
-6.59561
-6.63025
-6.66163
-6.68969
-6.71273
-8.02305
-8.02169
-8.02083
-8.02305
-8.0268
-8.03124
-8.03635
-8.04181
-8.04708
-8.05163
-8.05595
-8.06097
-8.06723
-8.07469
-8.08276
-8.09176
-8.1039
-8.11963
-8.13848
-8.15833
-8.17369
-8.18558
-8.2035
-8.22751
-8.25345
-8.2816
-8.31193
-8.34419
-8.37825
-8.41376
-8.45051
-8.48806
-8.52615
-8.56433
-8.60233
-8.63973
-8.67628
-8.7116
-8.7455
-8.77768
-8.80798
-8.83616
-8.86215
-8.88573
-8.90686
-8.92539
-8.94126
-8.95438
-8.96469
-8.9721
-8.97659
-8.97808
-8.97655
-8.97194
-8.9642
-8.95331
-8.93922
-8.92191
-8.90131
-8.87745
-8.85027
-8.81983
-8.78603
-8.74901
-8.70865
-8.66514
-8.61837
-8.56856
-8.51563
-8.45985
-8.40116
-8.33985
-8.27585
-8.20952
-8.14081
-8.07013
-7.9974
-7.92301
-7.84688
-7.76952
-7.69079
-7.61115
-7.5304
-7.44909
-7.36693
-7.28449
-7.20153
-7.11836
-7.03456
-6.95003
-6.86511
-6.77964
-6.69341
-6.60605
-6.51727
-6.42666
-6.33388
-6.23842
-6.13985
-6.03758
-5.93109
-5.81976
-5.70288
-5.57961
-5.44881
-5.30938
-5.15997
-4.99949
-4.82665
-4.64045
-4.43943
-4.22261
-3.98895
-3.73759
-3.46724
-3.17712
-2.86609
-2.5335
-2.17876
-1.80172
-1.40219
-0.980192
-0.535498
-0.0684795
0.420285
0.929599
1.45809
2.00388
2.56504
3.13921
3.72394
4.31645
4.91389
5.51325
6.11151
6.70563
7.29262
7.86956
8.43375
8.98268
9.51409
10.026
10.5168
10.9851
11.43
11.8509
12.2477
12.6206
12.9702
13.2971
13.6015
13.8838
14.1443
14.3839
14.6035
14.8041
14.9868
15.1528
15.3031
15.4388
15.561
15.6708
15.7691
15.8569
15.9351
16.0046
16.0662
16.1208
16.169
16.2118
16.2499
16.2843
16.3159
16.3462
16.3769
16.411
16.4549
16.5167
16.6254
16.7685
-8.02037
-8.0199
-8.01948
-8.02147
-8.02432
-8.02707
-8.02972
-8.03236
-8.03474
-8.03678
-8.03902
-8.04211
-8.04631
-8.05158
-8.05745
-8.06454
-8.0732
-8.0824
-8.09145
-8.10016
-8.11068
-8.13003
-8.15667
-8.18167
-8.20745
-8.23534
-8.2655
-8.29774
-8.33192
-8.36772
-8.40485
-8.44291
-8.48157
-8.5204
-8.55906
-8.59713
-8.63432
-8.67027
-8.70476
-8.7375
-8.76833
-8.79704
-8.82351
-8.8476
-8.86921
-8.88824
-8.90461
-8.91826
-8.9291
-8.93708
-8.94215
-8.94425
-8.94334
-8.93938
-8.9323
-8.92207
-8.90865
-8.892
-8.87208
-8.84887
-8.82234
-8.79249
-8.75929
-8.72279
-8.68295
-8.63986
-8.59349
-8.54398
-8.49131
-8.43566
-8.37705
-8.31568
-8.2516
-8.18502
-8.11604
-8.04493
-7.97172
-7.8967
-7.81994
-7.74178
-7.66225
-7.58166
-7.50007
-7.41779
-7.33477
-7.25134
-7.16752
-7.08347
-6.99886
-6.91392
-6.82872
-6.74325
-6.65723
-6.57037
-6.48237
-6.39287
-6.3015
-6.20775
-6.11114
-6.01105
-5.90696
-5.79816
-5.68396
-5.5633
-5.43527
-5.29864
-5.1524
-4.99539
-4.82651
-4.64445
-4.4483
-4.23694
-4.00917
-3.76388
-3.50013
-3.21682
-2.91303
-2.58788
-2.24081
-1.87161
-1.4801
-1.06606
-0.629415
-0.170269
0.310775
0.812641
1.33396
1.87309
2.42815
2.9969
3.57693
4.16556
4.75996
5.35716
5.95414
6.54782
7.13518
7.71328
8.27933
8.83073
9.36519
9.88063
10.3754
10.848
11.2975
11.7232
12.1248
12.5024
12.8561
13.1865
13.4945
13.7805
14.0451
14.2888
14.5127
14.7176
14.9046
15.0747
15.2291
15.3689
15.495
15.6085
15.7104
15.8017
15.8832
15.9558
16.0204
16.0777
16.1287
16.1741
16.2147
16.2514
16.2853
16.3178
16.3507
16.3868
16.4315
16.4897
16.587
16.7059
-8.01193
-8.0136
-8.01524
-8.01815
-8.02093
-8.02282
-8.02395
-8.02457
-8.02478
-8.0248
-8.02511
-8.02625
-8.02846
-8.03175
-8.036
-8.04161
-8.04901
-8.05791
-8.06785
-8.0786
-8.09089
-8.10694
-8.12753
-8.15048
-8.17589
-8.20389
-8.23428
-8.26672
-8.30095
-8.33659
-8.37334
-8.41081
-8.44867
-8.48655
-8.52414
-8.56111
-8.5972
-8.63212
-8.66566
-8.69758
-8.72771
-8.75587
-8.78192
-8.80573
-8.82718
-8.84618
-8.86262
-8.87643
-8.88753
-8.89584
-8.90131
-8.90387
-8.90346
-8.90004
-8.89354
-8.88392
-8.87113
-8.85512
-8.83584
-8.81329
-8.7874
-8.75818
-8.7256
-8.68967
-8.65039
-8.60779
-8.56188
-8.51275
-8.46043
-8.40502
-8.3466
-8.2853
-8.22123
-8.15455
-8.08541
-8.014
-7.94046
-7.865
-7.78778
-7.70903
-7.6289
-7.54762
-7.46537
-7.38236
-7.29868
-7.21456
-7.13013
-7.04541
-6.96037
-6.87504
-6.78969
-6.70427
-6.61849
-6.53224
-6.44513
-6.35696
-6.26723
-6.17561
-6.08145
-5.98427
-5.88342
-5.77822
-5.6679
-5.55138
-5.42776
-5.29578
-5.15456
-5.00282
-4.83963
-4.66367
-4.47406
-4.26958
-4.04921
-3.81161
-3.55592
-3.28089
-2.98565
-2.66937
-2.33151
-1.97165
-1.58967
-1.18515
-0.758018
-0.30833
0.163288
0.655895
1.16821
1.69879
2.24579
2.80713
3.38045
3.96319
4.55256
5.14564
5.73943
6.33087
6.91692
7.49462
8.06114
8.6139
9.15053
9.669
10.1675
10.6448
11.0998
11.5318
11.9403
12.3253
12.687
13.0257
13.3418
13.6358
13.9082
14.1596
14.3908
14.6028
14.7967
14.9734
15.134
15.2796
15.4113
15.5301
15.6369
15.7328
15.8187
15.8955
15.9639
16.0249
16.0793
16.1278
16.1715
16.2111
16.2477
16.2826
16.3178
16.3557
16.4007
16.4555
16.5387
16.6207
-7.99586
-8.00059
-8.00575
-8.01071
-8.01445
-8.01664
-8.01759
-8.01764
-8.01705
-8.01613
-8.01538
-8.01529
-8.01623
-8.01837
-8.02179
-8.02672
-8.03352
-8.04229
-8.05303
-8.06571
-8.08053
-8.09794
-8.11824
-8.14115
-8.16657
-8.19431
-8.22422
-8.256
-8.28942
-8.32413
-8.35988
-8.3963
-8.4331
-8.46994
-8.50652
-8.54252
-8.57769
-8.61177
-8.64452
-8.67573
-8.70523
-8.73284
-8.75841
-8.78182
-8.80295
-8.82169
-8.83795
-8.85164
-8.86267
-8.87098
-8.87649
-8.87915
-8.87887
-8.8756
-8.86929
-8.85987
-8.84729
-8.8315
-8.81244
-8.7901
-8.76442
-8.73539
-8.70298
-8.66719
-8.62802
-8.5855
-8.53963
-8.49049
-8.43812
-8.3826
-8.32401
-8.26249
-8.19815
-8.13114
-8.06162
-7.98977
-7.91576
-7.8398
-7.76207
-7.68279
-7.60215
-7.52036
-7.43763
-7.35416
-7.27011
-7.18566
-7.10097
-7.01611
-6.93097
-6.84583
-6.76073
-6.67564
-6.59045
-6.50492
-6.41885
-6.33192
-6.24381
-6.15404
-6.06214
-5.96754
-5.8696
-5.76763
-5.66075
-5.54798
-5.42827
-5.30056
-5.16381
-5.01693
-4.85882
-4.68836
-4.50443
-4.30591
-4.09166
-3.86048
-3.61133
-3.34303
-3.05464
-2.74544
-2.41486
-2.06244
-1.68788
-1.29071
-0.870814
-0.428339
0.0361176
0.521666
1.02713
1.55115
2.09195
2.64756
3.21567
3.79376
4.37911
4.96883
5.55994
6.14938
6.73409
7.31114
7.87767
8.43114
8.96917
9.48977
9.99122
10.4722
10.9316
11.3687
11.7829
12.174
12.5421
12.8873
13.21
13.5104
13.7891
14.0467
14.284
14.502
14.7015
14.8837
15.0496
15.2003
15.3367
15.46
15.5711
15.671
15.7606
15.8408
15.9125
15.9766
16.0339
16.0851
16.1312
16.1731
16.2118
16.2486
16.2851
16.3234
16.367
16.4163
16.4837
16.5337
-7.97418
-7.98225
-7.99194
-7.99989
-8.00542
-8.00875
-8.01044
-8.01095
-8.01072
-8.01012
-8.00964
-8.00971
-8.01078
-8.0131
-8.01692
-8.02241
-8.02981
-8.03926
-8.05086
-8.06468
-8.08087
-8.09953
-8.12069
-8.14423
-8.17007
-8.19802
-8.22791
-8.25949
-8.29252
-8.32669
-8.36173
-8.39732
-8.43318
-8.46899
-8.5045
-8.53942
-8.57352
-8.60654
-8.6383
-8.66857
-8.69721
-8.72402
-8.74889
-8.77167
-8.79225
-8.81051
-8.82636
-8.83971
-8.85046
-8.85854
-8.86386
-8.86636
-8.86595
-8.86257
-8.85615
-8.84664
-8.83395
-8.81804
-8.79886
-8.77636
-8.75049
-8.72123
-8.68856
-8.65247
-8.61296
-8.57004
-8.52373
-8.4741
-8.42118
-8.36507
-8.30586
-8.24367
-8.17861
-8.11086
-8.04058
-7.96795
-7.89316
-7.81643
-7.73798
-7.65801
-7.57676
-7.49444
-7.41128
-7.32749
-7.24325
-7.15874
-7.07415
-6.98952
-6.90496
-6.82036
-6.7362
-6.65211
-6.56816
-6.48403
-6.39966
-6.31462
-6.2287
-6.14136
-6.05221
-5.96064
-5.86601
-5.76763
-5.66449
-5.55578
-5.44024
-5.31706
-5.18495
-5.04308
-4.89003
-4.72498
-4.54646
-4.35354
-4.14479
-3.91931
-3.67578
-3.4133
-3.13066
-2.82734
-2.50254
-2.15592
-1.78686
-1.39507
-0.980242
-0.542747
-0.0830074
0.398005
0.899284
1.4194
1.95672
2.50924
3.07472
3.65064
4.23431
4.82283
5.41321
6.00237
6.58727
7.16493
7.73255
8.28754
8.82762
9.35073
9.8552
10.3396
10.8028
11.2439
11.6625
12.0582
12.4309
12.7808
13.1082
13.4132
13.6965
13.9586
14.2004
14.4227
14.6265
14.8128
14.9827
15.1371
15.2773
15.404
15.5184
15.6213
15.7138
15.7967
15.8709
15.9373
15.9966
16.0498
16.0977
16.1412
16.1812
16.2189
16.2556
16.293
16.3336
16.3763
16.4291
16.4535
-7.95091
-7.96215
-7.97672
-7.98803
-7.99584
-8.00096
-8.00409
-8.00583
-8.00672
-8.0072
-8.00777
-8.00886
-8.0109
-8.0142
-8.01905
-8.02566
-8.03423
-8.04486
-8.05768
-8.07271
-8.09005
-8.10969
-8.13165
-8.15579
-8.18204
-8.21019
-8.24007
-8.27144
-8.30406
-8.33765
-8.37197
-8.40671
-8.44163
-8.47645
-8.51093
-8.54479
-8.57785
-8.60986
-8.64064
-8.66999
-8.69776
-8.72378
-8.74791
-8.77003
-8.79001
-8.80773
-8.82311
-8.83602
-8.84639
-8.85412
-8.85913
-8.86133
-8.86063
-8.85697
-8.85027
-8.84045
-8.82743
-8.81117
-8.79159
-8.76865
-8.7423
-8.71251
-8.67924
-8.6425
-8.60227
-8.55857
-8.51142
-8.46089
-8.40702
-8.34991
-8.28965
-8.22637
-8.1602
-8.09132
-8.01989
-7.94613
-7.87024
-7.79245
-7.71299
-7.6321
-7.55004
-7.46703
-7.38333
-7.29917
-7.21476
-7.13027
-7.04592
-6.96182
-6.87782
-6.79444
-6.71141
-6.6289
-6.54666
-6.46462
-6.38251
-6.30009
-6.21699
-6.1328
-6.04704
-5.95914
-5.86846
-5.77418
-5.67543
-5.57119
-5.46046
-5.34216
-5.21526
-5.07862
-4.93107
-4.77145
-4.59859
-4.41128
-4.20826
-3.98833
-3.7504
-3.49342
-3.21636
-2.91843
-2.59891
-2.2573
-1.893
-1.5056
-1.09492
-0.661232
-0.205006
0.272899
0.77146
1.2893
1.82479
2.37594
2.94052
3.51601
4.0997
4.68867
5.2799
5.87029
6.4568
7.03643
7.60641
8.16412
8.70727
9.23374
9.7418
10.23
10.6971
11.1423
11.5649
11.9647
12.3414
12.6952
13.0263
13.3351
13.622
13.8877
14.133
14.3587
14.5659
14.7554
14.9284
15.0859
15.2289
15.3585
15.4755
15.581
15.6758
15.7609
15.837
15.9052
15.9662
16.0208
16.0699
16.1144
16.155
16.1929
16.2291
16.2647
16.3013
16.3369
16.377
16.381
-7.92978
-7.94378
-7.96271
-7.97712
-7.98726
-7.99442
-7.99938
-8.00279
-8.00524
-8.00724
-8.00928
-8.0118
-8.01522
-8.01987
-8.02606
-8.03398
-8.04386
-8.05577
-8.06983
-8.08605
-8.10448
-8.12506
-8.14777
-8.17247
-8.19907
-8.22737
-8.2572
-8.28833
-8.32055
-8.3536
-8.38726
-8.42125
-8.45534
-8.48928
-8.52284
-8.55578
-8.58791
-8.61901
-8.64891
-8.67742
-8.7044
-8.72967
-8.75311
-8.77459
-8.79398
-8.81117
-8.82604
-8.8385
-8.84844
-8.85576
-8.86037
-8.86217
-8.86109
-8.85702
-8.84988
-8.8396
-8.82608
-8.80927
-8.78908
-8.76548
-8.73839
-8.70779
-8.67364
-8.63594
-8.59467
-8.54986
-8.50153
-8.44974
-8.39456
-8.33607
-8.2744
-8.20966
-8.14202
-8.07166
-7.99877
-7.92357
-7.84628
-7.76716
-7.68646
-7.60444
-7.52139
-7.43755
-7.35322
-7.26862
-7.18399
-7.09955
-7.01551
-6.93192
-6.84897
-6.76663
-6.68518
-6.60454
-6.52441
-6.44486
-6.36548
-6.28617
-6.20641
-6.1259
-6.04409
-5.96039
-5.87418
-5.7845
-5.6906
-5.5913
-5.48581
-5.37277
-5.25134
-5.12015
-4.97832
-4.82432
-4.65724
-4.47562
-4.27841
-4.06405
-3.83168
-3.58004
-3.30834
-3.0155
-2.70096
-2.36389
-2.00387
-1.6203
-1.2132
-0.782624
-0.32919
0.146441
0.643142
1.15965
1.69427
2.24506
2.80975
3.38581
3.97051
4.5609
5.15393
5.7465
6.33553
6.91807
7.49126
8.05252
8.5994
9.12983
9.64193
10.1342
10.6055
11.0548
11.4815
11.8851
12.2656
12.6231
12.9577
13.2698
13.5599
13.8287
14.0769
14.3055
14.5154
14.7076
14.8832
15.0431
15.1885
15.3204
15.4396
15.5472
15.644
15.7309
15.8088
15.8785
15.9408
15.9965
16.0465
16.0915
16.1324
16.1699
16.2049
16.2381
16.2705
16.2989
16.328
16.3155
-7.91359
-7.92981
-7.9521
-7.96898
-7.98116
-7.99029
-7.99712
-8.0023
-8.00646
-8.01013
-8.01381
-8.01791
-8.02287
-8.02898
-8.03657
-8.04584
-8.05698
-8.07008
-8.08524
-8.10247
-8.1218
-8.14313
-8.16644
-8.19159
-8.21846
-8.24686
-8.27663
-8.30755
-8.33943
-8.37201
-8.4051
-8.43843
-8.47181
-8.50498
-8.53775
-8.56989
-8.60123
-8.63154
-8.66069
-8.68848
-8.71477
-8.73939
-8.76224
-8.78315
-8.80202
-8.81871
-8.83313
-8.84515
-8.85466
-8.86157
-8.86576
-8.86713
-8.86559
-8.86104
-8.85338
-8.84252
-8.82836
-8.81085
-8.78988
-8.76541
-8.73737
-8.70573
-8.67045
-8.63152
-8.58892
-8.5427
-8.49287
-8.4395
-8.38266
-8.32247
-8.25903
-8.19251
-8.12307
-8.05091
-7.97624
-7.89931
-7.82037
-7.73969
-7.65754
-7.57423
-7.49005
-7.40529
-7.32025
-7.23519
-7.15036
-7.06602
-6.98236
-6.89953
-6.81754
-6.73676
-6.65709
-6.5785
-6.50092
-6.42413
-6.34798
-6.27212
-6.19622
-6.11983
-6.04244
-5.96345
-5.88207
-5.79753
-5.70882
-5.61498
-5.5149
-5.40754
-5.29173
-5.16638
-5.03031
-4.88226
-4.72096
-4.54517
-4.35357
-4.14483
-3.91782
-3.67146
-3.40479
-3.11683
-2.8068
-2.47392
-2.11761
-1.73742
-1.33328
-0.905283
-0.453949
0.0200391
0.515613
1.03148
1.56595
2.11708
2.68258
3.25989
3.84625
4.43871
5.03417
5.62956
6.22177
6.80781
7.38478
7.95003
8.50106
9.03571
9.55209
10.0487
10.5241
10.9775
11.4082
11.8157
12.1998
12.5607
12.8985
13.2136
13.5066
13.7781
14.029
14.2601
14.4724
14.6669
14.8447
15.0067
15.1541
15.2879
15.409
15.5183
15.6168
15.7053
15.7847
15.8557
15.9191
15.9758
16.0264
16.0717
16.1125
16.1493
16.1828
16.2132
16.2411
16.2626
16.2821
16.2563
-7.90409
-7.92178
-7.94619
-7.96472
-7.97846
-7.98923
-7.99773
-8.00454
-8.01032
-8.01559
-8.02086
-8.0265
-8.03294
-8.04047
-8.04938
-8.05987
-8.07213
-8.08625
-8.10233
-8.12036
-8.14036
-8.16224
-8.18597
-8.21139
-8.2384
-8.26681
-8.29647
-8.32716
-8.3587
-8.39086
-8.42345
-8.45622
-8.48899
-8.52153
-8.55365
-8.58514
-8.61582
-8.64551
-8.67405
-8.70126
-8.72701
-8.75113
-8.77349
-8.79396
-8.81241
-8.82871
-8.84274
-8.85438
-8.86352
-8.87004
-8.87383
-8.87477
-8.87275
-8.86767
-8.85941
-8.84789
-8.83299
-8.81464
-8.79274
-8.76724
-8.73805
-8.70516
-8.6685
-8.62809
-8.5839
-8.53598
-8.48434
-8.42908
-8.37028
-8.30805
-8.24253
-8.17389
-8.10233
-8.02806
-7.95133
-7.8724
-7.79156
-7.70909
-7.62532
-7.54056
-7.45513
-7.36937
-7.28358
-7.19806
-7.11308
-7.02892
-6.94579
-6.86382
-6.78325
-6.70397
-6.62644
-6.55026
-6.4755
-6.40188
-6.32931
-6.25733
-6.18569
-6.11387
-6.04134
-5.96748
-5.89139
-5.81238
-5.72924
-5.64119
-5.54688
-5.44552
-5.33566
-5.21645
-5.08635
-4.94438
-4.78893
-4.61902
-4.43299
-4.2298
-4.00802
-3.7668
-3.5049
-3.22154
-2.91561
-2.58651
-2.23343
-1.85617
-1.45442
-1.02847
-0.578641
-0.105741
0.389295
0.90506
1.43994
1.99192
2.55873
3.13778
3.72631
4.32135
4.91982
5.51858
6.11451
6.70452
7.28571
7.85526
8.41071
8.94976
9.47055
9.97142
10.4511
10.9086
11.3431
11.7542
12.1418
12.5059
12.8468
13.1647
13.4604
13.7344
13.9876
14.221
14.4353
14.6318
14.8115
14.9754
15.1245
15.2599
15.3826
15.4934
15.5933
15.6831
15.7637
15.8359
15.9003
15.9577
16.0088
16.0543
16.0947
16.1305
16.1623
16.1898
16.2132
16.2283
16.2395
16.2029
-7.90184
-7.9202
-7.94546
-7.96479
-7.97951
-7.99145
-8.00123
-8.00938
-8.01652
-8.02317
-8.02981
-8.03681
-8.04455
-8.05329
-8.06333
-8.07485
-8.08803
-8.10295
-8.11972
-8.13832
-8.15877
-8.181
-8.20494
-8.23048
-8.25749
-8.28581
-8.31528
-8.34571
-8.37691
-8.40868
-8.44082
-8.47312
-8.50539
-8.53742
-8.56903
-8.60001
-8.63022
-8.65944
-8.68755
-8.71434
-8.73971
-8.76348
-8.78552
-8.80568
-8.82384
-8.83985
-8.85361
-8.86496
-8.8738
-8.87998
-8.8834
-8.88392
-8.88141
-8.87577
-8.86687
-8.85461
-8.83887
-8.81956
-8.79659
-8.76988
-8.73937
-8.70501
-8.66675
-8.6246
-8.57856
-8.52865
-8.47492
-8.41747
-8.35638
-8.2918
-8.22388
-8.15282
-8.07884
-8.00217
-7.9231
-7.84192
-7.75893
-7.67448
-7.5889
-7.50256
-7.41579
-7.32896
-7.2424
-7.15645
-7.07139
-6.98751
-6.90506
-6.82423
-6.74499
-6.66787
-6.59253
-6.51916
-6.44751
-6.3775
-6.30881
-6.24116
-6.17415
-6.10731
-6.04007
-5.97166
-5.90132
-5.82805
-5.75094
-5.66889
-5.58086
-5.48568
-5.3822
-5.26917
-5.14535
-5.00942
-4.86003
-4.69586
-4.51549
-4.31763
-4.10107
-3.86472
-3.60746
-3.3283
-3.02621
-2.70043
-2.35029
-1.97549
-1.57583
-1.1515
-0.702847
-0.230621
0.264197
0.780215
1.3158
1.86897
2.43746
3.01868
3.60986
4.208
4.80998
5.4126
6.01268
6.60706
7.19274
7.76687
8.32689
8.87048
9.3957
9.90089
10.3847
10.8461
11.2844
11.6991
12.09
12.4572
12.8008
13.1214
13.4195
13.6959
13.9512
14.1866
14.4028
14.6011
14.7825
14.9479
15.0986
15.2354
15.3594
15.4715
15.5726
15.6636
15.7453
15.8184
15.8837
15.9417
15.9932
16.0386
16.0785
16.1133
16.1432
16.1678
16.1868
16.196
16.2
16.1546
-7.90651
-7.92481
-7.94975
-7.9691
-7.98419
-7.99677
-8.00736
-8.01643
-8.02458
-8.03228
-8.03999
-8.04804
-8.05679
-8.06649
-8.07741
-8.0897
-8.10355
-8.11903
-8.13625
-8.15519
-8.17588
-8.19824
-8.22223
-8.24772
-8.27461
-8.30273
-8.33196
-8.36208
-8.39295
-8.42435
-8.45611
-8.48801
-8.51989
-8.55153
-8.58277
-8.61341
-8.64329
-8.67222
-8.70006
-8.72662
-8.75178
-8.77535
-8.79723
-8.81723
-8.83524
-8.85111
-8.8647
-8.87586
-8.88447
-8.89038
-8.89346
-8.89357
-8.89058
-8.88435
-8.87475
-8.86167
-8.84498
-8.82459
-8.8004
-8.77232
-8.74027
-8.70423
-8.66414
-8.62001
-8.57183
-8.51966
-8.46354
-8.40359
-8.33991
-8.27268
-8.20206
-8.12828
-8.05158
-7.97225
-7.89058
-7.80691
-7.72158
-7.63497
-7.54744
-7.4594
-7.37122
-7.28329
-7.19598
-7.10965
-7.02461
-6.94116
-6.85957
-6.77997
-6.70264
-6.62754
-6.55492
-6.48465
-6.41648
-6.35037
-6.28595
-6.22298
-6.16099
-6.09946
-6.03783
-5.97519
-5.91087
-5.84367
-5.77289
-5.69716
-5.61565
-5.52686
-5.4299
-5.32318
-5.20572
-5.07585
-4.93252
-4.77403
-4.59925
-4.40662
-4.19516
-3.9635
-3.71072
-3.43549
-3.13703
-2.81431
-2.46694
-2.0944
-1.69672
-1.27385
-0.826257
-0.354538
0.140218
0.656738
1.19333
1.74809
2.31868
2.90253
3.49681
4.0985
4.7044
5.31128
5.91581
6.51483
7.1052
7.68407
8.24874
8.79692
9.32656
9.83603
10.3239
10.7892
11.231
11.6491
12.0431
12.4132
12.7596
13.0826
13.383
13.6614
13.9188
14.1559
14.3739
14.5738
14.7567
14.9236
15.0756
15.2137
15.3388
15.4521
15.5543
15.6462
15.7289
15.8028
15.8688
15.9273
15.979
16.0243
16.0637
16.0973
16.1252
16.1469
16.1619
16.1656
16.1634
16.1109
-7.91721
-7.93482
-7.9585
-7.97717
-7.99207
-8.00471
-8.0156
-8.02514
-8.03387
-8.04223
-8.05064
-8.0594
-8.06884
-8.07918
-8.09068
-8.10346
-8.11772
-8.13351
-8.15095
-8.17
-8.19072
-8.21303
-8.2369
-8.2622
-8.28886
-8.3167
-8.34562
-8.37541
-8.40594
-8.437
-8.46843
-8.50001
-8.53159
-8.56296
-8.59397
-8.6244
-8.65412
-8.68292
-8.71067
-8.73717
-8.76229
-8.78585
-8.80771
-8.82772
-8.84572
-8.86155
-8.87508
-8.88614
-8.89459
-8.90027
-8.90304
-8.90275
-8.89925
-8.89239
-8.88202
-8.86803
-8.85028
-8.82867
-8.80308
-8.77344
-8.73967
-8.70171
-8.65954
-8.61316
-8.56258
-8.50786
-8.44906
-8.38632
-8.31975
-8.24956
-8.17595
-8.09917
-8.01949
-7.93724
-7.85274
-7.76638
-7.67853
-7.58961
-7.50003
-7.41021
-7.32059
-7.23158
-7.14358
-7.05696
-6.97206
-6.88921
-6.80867
-6.73064
-6.65523
-6.58276
-6.51309
-6.44615
-6.38185
-6.31994
-6.26017
-6.20218
-6.14551
-6.08963
-6.0338
-5.97728
-5.9191
-5.85838
-5.79402
-5.72496
-5.64996
-5.56784
-5.47732
-5.37711
-5.26587
-5.14222
-5.00475
-4.85206
-4.68274
-4.49546
-4.289
-4.06212
-3.81367
-3.54244
-3.24747
-2.92791
-2.58325
-2.21304
-1.81718
-1.39566
-0.948887
-0.47746
0.0175835
0.534948
1.07296
1.62968
2.20278
2.78966
3.38741
3.99298
4.60309
5.21444
5.82364
6.42742
7.02259
7.60622
8.17557
8.72828
9.26229
9.7759
10.2677
10.7367
11.182
11.6033
12.0003
12.3731
12.7219
13.0473
13.3497
13.6301
13.8892
14.1281
14.3476
14.549
14.7332
14.9015
15.0547
15.194
15.3202
15.4345
15.5377
15.6306
15.714
15.7887
15.8553
15.9142
15.966
16.0111
16.0498
16.0822
16.1082
16.1271
16.1383
16.1373
16.1296
16.0713
-7.93273
-7.94914
-7.97088
-7.98831
-8.00246
-8.01466
-8.02534
-8.03488
-8.04375
-8.05235
-8.06106
-8.07014
-8.07992
-8.09056
-8.10232
-8.11531
-8.12971
-8.14556
-8.16297
-8.18194
-8.2025
-8.22459
-8.24819
-8.27318
-8.2995
-8.32699
-8.35555
-8.38498
-8.41517
-8.44591
-8.47706
-8.5084
-8.53978
-8.57099
-8.60189
-8.63226
-8.66197
-8.69079
-8.71861
-8.7452
-8.77044
-8.79413
-8.81613
-8.83626
-8.85437
-8.87027
-8.88383
-8.89485
-8.90319
-8.90867
-8.91113
-8.91041
-8.90634
-8.89878
-8.88755
-8.87253
-8.85357
-8.83057
-8.8034
-8.77199
-8.73625
-8.69614
-8.65163
-8.60273
-8.54946
-8.49189
-8.4301
-8.36426
-8.2945
-8.22104
-8.14413
-8.06405
-7.9811
-7.89565
-7.80807
-7.71878
-7.62821
-7.53682
-7.44505
-7.35338
-7.26227
-7.17216
-7.0835
-6.99666
-6.91204
-6.82995
-6.75067
-6.67441
-6.60141
-6.5316
-6.46527
-6.40205
-6.34192
-6.28459
-6.22982
-6.17719
-6.12617
-6.07626
-6.02656
-5.97645
-5.92477
-5.87081
-5.81318
-5.75101
-5.68275
-5.60747
-5.52357
-5.43003
-5.32516
-5.20786
-5.0764
-4.9296
-4.76581
-4.58395
-4.38251
-4.16043
-3.91624
-3.64897
-3.3574
-3.04095
-2.69881
-2.33077
-1.93645
-1.51605
-1.06976
-0.598323
-0.102636
0.415905
0.95568
1.51469
2.09063
2.68081
3.2823
3.89194
4.50644
5.12236
5.7363
6.34483
6.94479
7.53309
8.10704
8.66415
9.2024
9.72
10.2156
10.688
11.1367
11.5609
11.9607
12.336
12.6872
13.0147
13.3191
13.6012
13.862
14.1024
14.3234
14.5261
14.7116
14.8811
15.0355
15.1758
15.3031
15.4184
15.5224
15.6162
15.7004
15.7758
15.8429
15.9021
15.954
15.9988
16.0367
16.0679
16.092
16.1083
16.116
16.1107
16.0983
16.0353
-7.95178
-7.96667
-7.98604
-8.00177
-8.01473
-8.026
-8.03601
-8.04508
-8.05363
-8.06202
-8.07059
-8.0796
-8.08932
-8.09991
-8.11161
-8.12449
-8.13874
-8.1544
-8.17157
-8.19024
-8.21046
-8.23217
-8.25536
-8.27993
-8.30582
-8.33289
-8.36104
-8.3901
-8.41994
-8.45038
-8.48127
-8.51241
-8.54366
-8.57481
-8.60571
-8.63614
-8.66595
-8.69494
-8.72295
-8.74978
-8.77527
-8.79921
-8.82146
-8.8418
-8.86009
-8.87612
-8.88973
-8.90073
-8.90894
-8.91418
-8.91627
-8.91503
-8.91029
-8.90188
-8.88963
-8.8734
-8.85304
-8.82843
-8.79944
-8.76599
-8.72802
-8.68546
-8.63829
-8.58653
-8.53022
-8.46944
-8.40431
-8.33498
-8.26165
-8.18455
-8.10398
-8.02023
-7.93369
-7.84473
-7.75379
-7.66135
-7.56785
-7.47383
-7.37976
-7.28617
-7.19355
-7.1024
-7.01315
-6.92627
-6.84212
-6.76103
-6.68334
-6.60921
-6.53874
-6.47233
-6.40961
-6.35062
-6.29511
-6.24288
-6.19357
-6.14674
-6.10189
-6.05828
-6.01525
-5.97184
-5.92722
-5.88025
-5.82983
-5.77467
-5.71356
-5.64519
-5.56826
-5.48137
-5.38313
-5.2721
-5.1468
-5.00578
-4.84764
-4.67105
-4.47465
-4.25714
-4.01716
-3.75358
-3.46533
-3.15169
-2.81194
-2.44571
-2.05272
-1.63306
-1.18698
-0.715176
-0.218563
0.301477
0.843287
1.40484
1.98379
2.5774
3.1827
3.79644
4.41528
5.03572
5.65425
6.26742
6.87195
7.46474
8.04301
8.6043
9.1465
9.66784
10.1669
10.6426
11.0943
11.5213
11.9237
12.3013
12.6546
12.984
13.2903
13.5741
13.8364
14.0782
14.3006
14.5045
14.6913
14.8618
15.0173
15.1587
15.287
15.4032
15.5082
15.6028
15.6878
15.7638
15.8313
15.8907
15.9426
15.9871
16.0243
16.0543
16.0766
16.0905
16.095
16.0859
16.0693
16.0025
-7.97317
-7.98637
-8.00315
-8.01687
-8.02825
-8.03817
-8.04704
-8.05516
-8.06291
-8.07062
-8.07861
-8.0871
-8.09635
-8.10651
-8.11777
-8.13023
-8.14402
-8.15921
-8.17587
-8.19402
-8.2137
-8.23486
-8.25749
-8.28151
-8.30686
-8.33341
-8.36108
-8.38972
-8.4192
-8.44934
-8.48
-8.51099
-8.54216
-8.57331
-8.60426
-8.63482
-8.66482
-8.69405
-8.72233
-8.74946
-8.77526
-8.79951
-8.82204
-8.84262
-8.8611
-8.87724
-8.89087
-8.90178
-8.90978
-8.91468
-8.91627
-8.91437
-8.90879
-8.89935
-8.88588
-8.86821
-8.84618
-8.81967
-8.78856
-8.75276
-8.71219
-8.66683
-8.61664
-8.56167
-8.50195
-8.4376
-8.36874
-8.29557
-8.21831
-8.13724
-8.05267
-7.96498
-7.87457
-7.78189
-7.68743
-7.59167
-7.49518
-7.39847
-7.30214
-7.20669
-7.11272
-7.0207
-6.93116
-6.84452
-6.76118
-6.68151
-6.60581
-6.53424
-6.46708
-6.40425
-6.34583
-6.29157
-6.24122
-6.19456
-6.15121
-6.11064
-6.07233
-6.03545
-5.9994
-5.96308
-5.92577
-5.88607
-5.84302
-5.79503
-5.74115
-5.67976
-5.6098
-5.52955
-5.43789
-5.33304
-5.21378
-5.07842
-4.9258
-4.75429
-4.56275
-4.34951
-4.11351
-3.85331
-3.56816
-3.25701
-2.9194
-2.55466
-2.16274
-1.74351
-1.29739
-0.824937
-0.327227
0.194458
0.738371
1.30249
1.88438
2.48132
3.09025
3.70793
4.33089
4.95558
5.5784
6.19587
6.80458
7.40143
7.9836
8.54863
9.09435
9.61903
10.1212
10.5998
11.0542
11.4837
11.8883
12.2681
12.6234
12.9546
13.2625
13.5478
13.8116
14.0547
14.2784
14.4836
14.6715
14.8432
14.9997
15.1422
15.2715
15.3887
15.4946
15.59
15.6757
15.7522
15.8201
15.8798
15.9316
15.9758
16.0124
16.0412
16.0619
16.0735
16.0751
16.0627
16.0425
15.9728
-7.99683
-8.0083
-8.02247
-8.03396
-8.04335
-8.05144
-8.05864
-8.06524
-8.07162
-8.07808
-8.08493
-8.09238
-8.10065
-8.10989
-8.12026
-8.13184
-8.14478
-8.1591
-8.17491
-8.19218
-8.211
-8.23129
-8.25309
-8.2763
-8.30089
-8.32674
-8.35377
-8.38185
-8.41086
-8.44062
-8.471
-8.5018
-8.53287
-8.56399
-8.59501
-8.6257
-8.65591
-8.68537
-8.71394
-8.74135
-8.76745
-8.79196
-8.81473
-8.83549
-8.85407
-8.87022
-8.88376
-8.89446
-8.90211
-8.9065
-8.90742
-8.90466
-8.89803
-8.88733
-8.87237
-8.853
-8.82902
-8.80034
-8.76679
-8.72833
-8.68485
-8.63635
-8.58281
-8.52427
-8.4608
-8.39253
-8.31962
-8.2423
-8.16082
-8.07551
-7.98672
-7.89488
-7.80044
-7.70393
-7.60584
-7.50677
-7.4073
-7.30801
-7.20955
-7.11249
-7.01743
-6.9249
-6.83545
-6.74949
-6.66746
-6.5898
-6.51665
-6.4483
-6.38483
-6.32638
-6.27278
-6.22375
-6.17912
-6.13855
-6.1016
-6.06776
-6.03631
-6.0066
-5.97772
-5.94888
-5.91895
-5.8868
-5.85102
-5.8104
-5.76357
-5.70925
-5.646
-5.57242
-5.48702
-5.3883
-5.27477
-5.145
-4.99756
-4.83102
-4.64392
-4.43481
-4.20237
-3.94541
-3.66297
-3.35417
-3.01836
-2.655
-2.26391
-1.84506
-1.3988
-0.92577
-0.427033
0.0961191
0.641968
1.20842
1.79302
2.393
3.00527
3.62651
4.25318
4.88164
5.50826
6.12944
6.74179
7.34213
7.92767
8.49588
9.04466
9.57219
10.0771
10.5583