/*--------------------------------*- C++ -*----------------------------------*\
  =========                 |
  \\      /  F ield         | OpenFOAM: The Open Source CFD Toolbox
   \\    /   O peration     | Website:  https://openfoam.org
    \\  /    A nd           | Version:  9
     \\/     M anipulation  |
\*---------------------------------------------------------------------------*/
FoamFile
{
    format      ascii;
    class       volScalarField::Internal;
    location    "105";
    object      tmp<kEpsilon:G>;
}
// * * * * * * * * * * * * * * * * * * * * * * * * * * * * * * * * * * * * * //

dimensions      [0 2 -3 0 0 0 0];

value           nonuniform List<scalar> 
12225
(
0
0
0
0
0
0
0
0
0
0
0
0
0
0
0
0
0
0
947.551
499.242
262.4
277.605
379.982
495.396
605.16
716.335
802.838
890.671
951.26
1012.75
1051.96
1093.04
1123.03
1149.72
1212.09
1184.05
85.4671
123.067
55.5152
17.222
5.17742
4.38636
8.78703
16.6751
26.6034
38.4007
50.9259
64.1615
77.7284
90.7162
104.974
116.5
134.307
138.96
5.03512
1.74192
0.640858
0.703375
0.46652
0.186177
0.0280385
0.191496
0.796201
1.89464
3.47537
5.48046
7.96358
10.657
14.002
17.2663
21.7819
25.217
0.224627
0.131564
0.146891
0.311519
0.422116
0.401076
0.283211
0.147034
0.0512302
0.0217219
0.0768564
0.227055
0.488806
0.853399
1.37886
2.00468
2.85876
3.64415
0.177516
0.188142
0.262508
0.316693
0.317958
0.311282
0.282072
0.229472
0.17113
0.114417
0.0664846
0.0327496
0.0199619
0.0344095
0.0864046
0.182051
0.328923
0.504259
0.126888
0.210971
0.228972
0.209874
0.207891
0.22459
0.230595
0.217168
0.195031
0.168016
0.138703
0.108284
0.0806963
0.0596096
0.0505565
0.0626177
0.101902
0.172698
0.0977447
0.148491
0.158168
0.154552
0.163815
0.182657
0.193046
0.190468
0.182132
0.170705
0.156807
0.140513
0.124208
0.110479
0.103936
0.111743
0.141447
0.195115
0.0744194
0.104396
0.120958
0.128312
0.138791
0.153187
0.162619
0.163989
0.161478
0.157274
0.151582
0.144654
0.137967
0.1339
0.136088
0.149583
0.180128
0.226168
0.0564793
0.0774554
0.0964653
0.107196
0.116913
0.128672
0.137669
0.141242
0.141722
0.14109
0.139813
0.138216
0.137613
0.139873
0.147791
0.164317
0.193053
0.230386
0.0427312
0.0584311
0.0765939
0.0886067
0.0983457
0.108851
0.117506
0.122259
0.124458
0.125806
0.126994
0.128448
0.131246
0.136812
0.147046
0.163441
0.187803
0.216267
0.0327917
0.0452748
0.0618958
0.0745
0.0843923
0.094099
0.102343
0.107663
0.110866
0.113353
0.115884
0.118928
0.12333
0.130122
0.140506
0.155116
0.174737
0.195924
0.0248858
0.0349642
0.0499304
0.0627311
0.0727967
0.0820134
0.0899612
0.0956636
0.0995854
0.10283
0.106146
0.11001
0.115038
0.121927
0.131367
0.143525
0.158644
0.174016
0.0178828
0.0259623
0.0390797
0.0515104
0.0616345
0.0705329
0.0782457
0.0842263
0.0887246
0.0925376
0.0963369
0.100558
0.105618
0.111921
0.119782
0.129117
0.13992
0.150242
0.0119205
0.0184755
0.0298356
0.0415218
0.0514815
0.0600998
0.0675851
0.0736945
0.0785622
0.082722
0.0867034
0.0908686
0.0954899
0.100755
0.106752
0.113306
0.120376
0.126679
0.00709836
0.0125046
0.0222945
0.033039
0.0426279
0.0509469
0.0581717
0.0642284
0.0691988
0.073421
0.0772656
0.0810093
0.084836
0.0888263
0.0929698
0.0971023
0.101227
0.104618
0.00350509
0.00808434
0.0165951
0.0263851
0.0354685
0.0434275
0.0503272
0.0561471
0.0609439
0.0649346
0.0683645
0.0714311
0.0742776
0.0769639
0.0794703
0.0816898
0.0836498
0.0850637
0.00126038
0.00530733
0.0129138
0.0219081
0.0304332
0.03793
0.0443778
0.0497583
0.0541101
0.0575887
0.0603735
0.062613
0.0644351
0.0659196
0.0670795
0.0678765
0.0683227
0.0684575
0.00066844
0.00451774
0.0117652
0.0203814
0.0285005
0.0355295
0.0414475
0.0462393
0.0499301
0.0526648
0.0546213
0.0559487
0.056775
0.0572031
0.0572804
0.0570325
0.0564303
0.0557751
0.00200417
0.00610622
0.013804
0.0226932
0.0306775
0.0373332
0.042794
0.0470363
0.0500528
0.0520177
0.0531663
0.0536816
0.053703
0.0533413
0.0526586
0.0517135
0.0504492
0.0493009
0.00467247
0.00943918
0.018261
0.0277834
0.0356158
0.0418279
0.0468521
0.0505989
0.0529987
0.0542949
0.054794
0.054699
0.0541427
0.0532344
0.0520471
0.0506639
0.0490127
0.0475861
0.00865502
0.0148807
0.025392
0.0354777
0.0431347
0.0490226
0.0536035
0.0566361
0.0581714
0.0586905
0.0585776
0.0579816
0.0569785
0.0556646
0.0541174
0.0524361
0.0505273
0.0489218
0.013921
0.0239547
0.0363383
0.0446827
0.0512293
0.0576515
0.0628281
0.0654398
0.0659111
0.0654018
0.0644813
0.063219
0.0616243
0.0597985
0.0578058
0.0557541
0.0535191
0.051606
0.0214025
0.0424193
0.0595296
0.0608126
0.0601445
0.0642426
0.0701944
0.0739676
0.0750892
0.0748828
0.0738769
0.0720843
0.0695784
0.0666198
0.0633532
0.0599804
0.0563747
0.0531551
0.0432611
0.0760768
0.093962
0.10518
0.0977331
0.0907392
0.0881533
0.0867767
0.0851468
0.083121
0.0799597
0.075234
0.0691098
0.0622336
0.0550336
0.0480385
0.0413562
0.0356623
0.0804394
0.213077
0.0681456
0.0790343
0.167978
0.215459
0.214697
0.189707
0.1584
0.127595
0.0982951
0.0718085
0.0498151
0.0340631
0.0256436
0.0253642
0.0332962
0.04937
0.660161
0.124969
0.315734
0.505479
0.372909
0.295255
0.229109
0.141267
0.0602299
0.0115009
0.0107542
0.0687903
0.190415
0.376997
0.623615
0.928311
1.27715
1.66779
31.8785
71.0699
43.2504
18.2752
7.07051
2.67352
1.11541
1.00905
1.81883
3.28808
5.26188
7.63949
10.2822
13.1643
16.1385
19.2353
22.2549
25.3009
455.411
257.651
100.985
70.5548
91.6271
128.061
168.011
205.841
241.242
273.911
303.031
329.709
353.047
374.473
393.048
410.551
425.991
441.107
0
0
0
0
0
0
0
0
0
0
0
0
0
0
0
0
0
0
0
0
0
0
0
0
0
0
0
0
0
0
0
0
0
0
2.32973
2.95966
3.71451
4.54868
5.37101
6.11806
7.50116
9.04525
10.8909
12.9501
15.2502
17.7861
20.5577
23.5511
26.7595
30.1616
33.7476
37.493
41.3879
45.4071
49.5431
53.772
58.0899
62.4755
66.9285
71.43
75.9832
80.5712
85.2003
89.8549
94.5422
99.2478
103.979
108.723
113.487
118.257
123.041
127.825
132.617
137.401
142.184
146.951
151.708
156.439
161.149
165.824
170.467
175.064
179.617
184.116
188.559
192.939
197.255
201.502
205.677
209.781
213.809
217.765
221.647
225.463
229.208
232.894
236.52
240.101
243.635
247.143
250.618
254.085
257.534
260.991
264.447
267.944
271.527
275.295
278.92
282.718
286.638
290.623
294.779
298.999
303.278
307.7
312.173
316.699
321.273
325.837
330.37
334.806
339.042
342.904
346.029
347.516
350.733
355.891
356.526
358.607
362.937
363.24
364.273
363.104
362.498
361.425
360.837
356.553
354.627
349.206
344.109
338.609
332.972
324.86
316.061
306.339
295.767
284.394
272.246
259.361
245.8
231.648
216.979
201.89
186.472
170.815
155.025
139.209
123.464
107.895
92.5995
77.6682
63.1757
49.2323
35.9454
23.4883
12.4903
7.98982
15.9544
26.353
36.6658
46.5112
55.7856
64.464
72.5229
79.9598
86.7985
93.0817
98.8689
104.098
108.822
113.092
116.951
120.422
123.531
126.31
128.782
130.971
132.893
134.561
135.981
137.124
138.02
138.408
138.645
137.058
136.091
122.992
0
0.0763383
0.0363602
0.00889812
0.100874
0.32448
0.665418
1.08132
1.47574
1.84609
2.09679
2.64268
3.27114
3.91719
4.71754
5.68536
6.70704
7.66551
8.4623
9.10545
10.3665
12.6928
13.9298
14.3078
14.5905
14.7683
14.7763
14.6119
14.2901
13.8321
13.2625
12.6081
11.8956
11.1498
10.393
9.64455
8.92027
8.23157
7.58707
6.99154
6.44809
5.95696
5.51783
5.12836
4.78678
4.48993
4.23552
4.02021
3.84187
3.69726
3.58462
3.50137
3.44619
3.41671
3.41181
3.42943
3.4688
3.52814
3.60689
3.70336
3.81697
3.94632
4.09092
4.2491
4.42013
4.60249
4.79529
4.99709
5.20693
5.42374
5.64652
5.87421
6.10579
6.34051
6.57793
6.81778
7.05954
7.30314
7.54896
7.79786
8.05025
8.30701
8.56891
8.8378
9.11486
9.40288
9.7021
10.0113
10.3313
10.6733
11.0522
11.4491
11.8769
12.3482
12.8591
13.4172
14.0233
14.6795
15.3996
16.1834
17.033
17.9564
18.955
20.0347
21.1956
22.4351
23.7396
25.0726
26.3922
27.6205
28.8083
30.2011
31.3611
32.8855
34.4352
35.9262
37.7954
39.7412
41.9435
44.2659
46.8577
49.2658
52.2261
54.9607
58.1881
61.5949
65.0651
68.6356
72.2932
76.011
79.7763
83.5458
87.2701
90.9141
94.4409
97.8047
100.972
103.906
106.569
108.933
110.986
112.713
114.113
115.208
116.066
116.642
116.715
116.263
114.676
111.361
107.057
102.475
97.7809
93.1477
88.6636
84.3761
80.3106
76.4808
72.8963
69.5552
66.4649
63.589
60.9227
58.4634
56.2005
54.1097
52.181
50.4097
48.7837
47.2933
45.9315
44.6906
43.5621
42.5635
41.6878
41.1122
40.9314
42.6217
46.7023
67.7485
0
0.124652
0.291593
0.418111
0.701147
1.1331
1.71412
2.42699
3.22294
4.07754
4.97889
6.12831
7.34267
8.54946
9.76426
10.9952
12.1743
13.1554
13.852
14.3308
14.861
15.6083
16.2526
16.4898
16.416
16.2515
16.0243
15.7429
15.427
15.0967
14.7709
14.4639
14.1876
13.9496
13.7562
13.6097
13.5118
13.4613
13.4578
13.4985
13.582
13.7053
13.867
14.0641
14.2953
14.5577
14.8503
15.1705
15.5177
15.8897
16.2858
16.7044
17.1458
17.6089
18.0938
18.5994
19.1264
19.6743
20.2439
20.8345
21.4473
22.0825
22.7413
23.4235
24.1302
24.8614
25.618
26.4
27.2082
28.0432
28.9057
29.7963
30.7154
31.6635
32.6416
33.6508
34.6914
35.7636
36.8677
38.0045
39.174
40.3756
41.6087
42.873
44.1674
45.4922
46.8528
48.2468
49.6528
51.0634
52.5045
53.9796
55.4729
56.9725
58.4739
59.9764
61.4746
62.9522
64.4004
65.813
67.1843
68.5108
69.7949
71.0357
72.2353
73.3964
74.5329
75.7273
77.0873
78.4661
80.0287
81.9544
83.8863
85.9857
88.0854
90.2814
92.9143
95.7453
98.8146
102.084
105.624
109.136
113.148
117.235
121.714
126.322
131.058
135.873
140.717
145.514
150.21
154.712
158.941
162.806
166.232
169.134
171.45
173.117
174.095
174.356
173.9
172.735
170.945
168.531
165.356
161.17
155.703
149.139
142.152
135.563
129.408
123.292
117.117
110.966
104.922
99.0468
93.3908
87.9879
82.8622
78.0321
73.5111
69.2653
65.3005
61.6151
58.1987
55.0286
52.097
49.3932
46.9003
44.6063
42.5024
40.58
38.8346
37.2872
35.9642
35.0664
34.737
36.4031
39.4556
48.4994
0
0.559325
1.07613
1.4536
1.91586
2.47922
3.15941
3.95532
4.8455
5.81757
6.913
8.19069
9.56225
10.9251
12.2043
13.3435
14.2884
14.9981
15.4785
15.7962
16.0905
16.4553
16.7912
17.0186
17.1411
17.1926
17.1994
17.1843
17.1648
17.154
17.1641
17.2032
17.2801
17.3958
17.5542
17.7562
18.0029
18.2943
18.6306
19.0112
19.4358
19.9034
20.4134
20.9646
21.556
22.1864
22.8546
23.5595
24.3002
25.0757
25.8855
26.7293
27.6076
28.5207
29.4696
30.4547
31.4778
32.54
33.6432
34.789
35.9796
37.2169
38.5034
39.8408
41.2311
42.6756
44.1762
45.7338
47.3497
49.0247
50.7595
52.5544
54.409
56.3227
58.2951
60.3256
62.4124
64.5527
66.7436
68.9826
71.2654
73.587
75.9428
78.3286
80.7391
83.1706
85.6212
88.0814
90.5265
92.9448
95.3514
97.7494
100.124
102.461
104.751
106.991
109.175
111.289
113.325
115.276
117.144
118.933
120.661
122.335
123.973
125.59
127.219
128.911
130.71
132.531
134.407
136.489
138.615
140.895
143.241
145.744
148.583
151.649
155.013
158.639
162.454
166.405
170.821
175.428
180.365
185.453
190.657
195.919
201.157
206.28
211.208
215.829
220.035
223.717
226.776
229.113
230.652
231.327
231.097
229.942
227.887
224.964
221.101
216.102
209.832
202.503
194.481
185.996
177.241
168.522
159.961
151.488
143.099
134.862
126.852
119.125
111.725
104.685
98.0292
91.7661
85.9061
80.4353
75.3631
70.66
66.3101
62.2793
58.558
55.1331
51.9815
49.089
46.4456
44.0407
41.8759
39.9822
38.4116
37.3796
37.1008
38.6884
42.5849
50.3123
0
1.25964
2.25179
3.00047
3.65791
4.30819
5.00255
5.75732
6.57213
7.44726
8.40251
9.45884
10.5801
11.6966
12.7364
13.6432
14.381
14.9382
15.332
15.6082
15.8352
16.0662
16.2913
16.4895
16.6671
16.8394
17.0178
17.2106
17.426
17.672
17.9551
18.2816
18.6567
19.0851
19.5699
20.1133
20.7167
21.3806
22.1052
22.8897
23.7333
24.6346
25.592
26.6039
27.6686
28.7845
29.9501
31.1642
32.4259
33.7348
35.091
36.4949
37.948
39.4521
41.0095
42.6228
44.2953
46.0307
47.8327
49.7055
51.6533
53.6808
55.7922
57.9917
60.2832
62.67
65.1553
67.7415
70.4305
73.2237
76.1216
79.1239
82.2292
85.4352
88.739
92.1366
95.623
99.1911
102.833
106.541
110.305
114.113
117.953
121.815
125.685
129.554
133.409
137.234
141.006
144.701
148.317
151.856
155.305
158.648
161.87
164.965
167.926
170.744
173.408
175.916
178.272
180.49
182.592
184.595
186.513
188.359
190.156
191.935
193.711
195.462
197.196
198.987
200.788
202.699
204.739
206.982
209.415
212.024
214.908
218.013
221.364
224.985
228.98
233.24
237.788
242.511
247.367
252.304
257.215
262.013
266.586
270.829
274.609
277.814
280.317
282.018
282.812
282.634
281.431
279.194
275.837
271.244
265.247
257.908
249.487
240.21
230.295
219.963
209.426
198.905
188.479
178.162
167.992
158.047
148.401
139.115
130.236
121.801
113.831
106.341
99.3318
92.7892
86.7072
81.0742
75.8779
71.0872
66.6801
62.6333
58.916
55.5084
52.4047
49.5957
47.0905
44.9295
43.1866
42.0814
41.8589
43.372
47.1656
53.6324
0
2.01967
3.51048
4.6813
5.53397
6.24184
6.90008
7.54482
8.19385
8.85844
9.55085
10.2791
11.0301
11.7706
12.461
13.0677
13.5701
13.9635
14.2595
14.4841
14.6723
14.8551
15.047
15.2545
15.4852
15.7471
16.048
16.3948
16.7941
17.2525
17.7761
18.3707
19.0407
19.7893
20.619
21.5315
22.5275
23.6068
24.7684
26.0108
27.3316
28.7284
30.1983
31.7386
33.3468
35.0204
36.7576
38.557
40.4179
42.3404
44.3251
46.374
48.4896
50.6756
52.9362
55.2765
57.7023
60.2199
62.836
65.5578
68.3927
71.3481
74.4315
77.6499
81.0099
84.5174
88.1776
91.9949
95.9723
100.112
104.414
108.878
113.501
118.279
123.205
128.272
133.469
138.785
144.205
149.713
155.292
160.921
166.58
172.247
177.903
183.524
189.089
194.576
199.952
205.185
210.263
215.172
219.902
224.433
228.747
232.831
236.678
240.279
243.62
246.705
249.536
252.139
254.531
256.73
258.746
260.587
262.274
263.826
265.252
266.569
267.803
268.985
270.116
271.287
272.53
273.9
275.413
277.075
278.92
280.972
283.276
285.9
288.877
292.147
295.691
299.436
303.347
307.363
311.393
315.339
319.087
322.515
325.495
327.89
329.57
330.414
330.305
329.158
326.852
323.252
318.188
311.612
303.655
294.494
284.337
273.401
261.896
250.025
237.984
225.946
213.989
202.161
190.527
179.169
168.164
157.579
147.462
137.853
128.774
120.239
112.246
104.785
97.8484
91.4229
85.4813
80.0079
74.9874
70.3896
66.1847
62.3467
58.8625
55.7199
52.9386
50.5675
48.6951
47.5313
47.3184
48.6986
52.0437
57.3075
0
2.67622
4.58068
6.11773
7.13623
7.88317
8.48883
9.00599
9.46718
9.89501
10.3054
10.7085
11.1049
11.4864
11.8392
12.1508
12.4136
12.6275
12.8008
12.9491
13.093
13.2527
13.4437
13.6771
13.9621
14.307
14.7196
15.2071
15.7767
16.4347
17.1871
18.0392
18.9955
20.059
21.2321
22.5159
23.9102
25.4139
27.0248
28.7399
30.5556
32.468
34.473
36.5666
38.7451
41.0054
43.3452
45.7629
48.258
50.8312
53.4842
56.2201
59.0432
61.9591
64.9747
68.0977
71.3369
74.7019
78.2031
81.851
85.6569
89.6319
93.7871
98.133
102.68
107.436
112.411
117.61
123.038
128.699
134.593
140.719
147.072
153.645
160.43
167.413
174.579
181.909
189.381
196.969
204.647
212.385
220.151
227.911
235.635
243.287
250.835
258.246
265.475
272.484
279.242
285.731
291.931
297.818
303.37
308.57
313.406
317.863
321.933
325.612
328.917
331.867
334.48
336.764
338.745
340.403
341.779
342.896
343.8
344.455
344.912
345.207
345.387
345.509
345.626
345.79
346.015
346.312
346.727
347.308
348.156
349.33
350.847
352.661
354.76
357.085
359.62
362.297
365.051
367.765
370.338
372.634
374.531
375.858
376.485
376.26
375.008
372.559
368.717
363.337
356.433
348.09
338.452
327.688
315.999
303.586
290.653
277.388
263.978
250.573
237.264
224.114
211.203
198.614
186.43
174.716
163.525
152.894
142.849
133.401
124.549
116.285
108.598
101.468
94.8758
88.7997
83.2238
78.1341
73.4938
69.2704
65.4488
62.0233
59.013
56.466
54.4773
53.2387
52.9649
54.1312
56.8778
60.9692
0
3.13818
5.28951
7.06366
8.18813
8.95036
9.50006
9.90055
10.1949
10.4156
10.5857
10.7217
10.8347
10.9308
11.013
11.083
11.1434
11.1991
11.2581
11.3317
11.4335
11.5775
11.7765
12.0416
12.3824
12.8078
13.3261
13.9454
14.6735
15.5176
16.4843
17.5793
18.8073
20.1715
21.6742
23.3156
25.0952
27.0107
29.0588
31.2353
33.5354
35.9536
38.4848
41.1237
43.8658
46.7074
49.6457
52.6792
55.808
59.0332
62.3578
65.7864
69.3255
72.9829
76.7682
80.6924
84.7678
89.0077
93.4261
98.038
102.859
107.904
113.188
118.727
124.534
130.622
137.002
143.685
150.676
157.981
165.6
173.533
181.772
190.309
199.131
208.219
217.552
227.103
236.841
246.732
256.736
266.812
276.916
287.002
297.024
306.934
316.687
326.236
335.521
344.496
353.116
361.354
369.18
376.563
383.475
389.895
395.806
401.186
406.03
410.333
414.12
417.401
420.199
422.495
424.337
425.745
426.75
427.332
427.537
427.385
426.919
426.187
425.24
424.133
422.908
421.618
420.295
418.966
417.691
416.549
415.651
415.058
414.785
414.815
415.133
415.714
416.537
417.558
418.717
419.905
421.006
421.879
422.4
422.372
421.631
419.978
417.16
412.975
407.328
400.198
391.621
381.685
370.524
358.303
345.214
331.451
317.207
302.661
287.99
273.338
258.804
244.468
230.414
216.729
203.496
190.78
178.635
167.097
156.192
145.932
136.317
127.337
118.978
111.222
104.044
97.426
91.3505
85.802
80.7613
76.1866
72.0582
68.3709
65.146
62.435
60.3275
58.9831
58.5765
59.4534
61.5393
64.5669
0
3.36657
5.56679
7.42291
8.574
9.31801
9.80797
10.1115
10.2776
10.3455
10.3438
10.2944
10.215
10.1199
10.0209
9.9282
9.85089
9.79791
9.77858
9.80285
9.88138
10.0251
10.2448
10.5507
10.9524
11.4594
12.0809
12.8259
13.703
14.7206
15.8859
17.2055
18.6845
20.3265
22.1334
24.1055
26.2416
28.5387
30.9927
33.5984
36.35
39.241
42.2654
45.417
48.6909
52.0828
55.59
59.2114
62.9475
66.8007
70.7751
74.8773
79.1157
83.5011
88.0461
92.7651
97.674
102.79
108.132
113.718
119.569
125.704
132.145
138.909
146.016
153.482
161.322
169.551
178.176
187.204
196.637
206.474
216.707
227.323
238.307
249.633
261.274
273.195
285.355
297.708
310.203
322.786
335.398
347.979
360.467
372.8
384.918
396.753
408.243
419.319
429.929
440.034
449.591
458.562
466.915
474.624
481.662
488.01
493.656
498.607
502.882
506.488
509.428
511.737
513.447
514.575
515.119
515.112
514.592
513.588
512.149
510.325
508.177
505.753
503.093
500.246
497.258
494.182
491.092
488.096
485.292
482.75
480.492
478.53
476.852
475.46
474.33
473.419
472.671
472.026
471.328
470.466
469.283
467.562
465.062
461.539
456.825
450.802
443.4
434.609
424.452
413.015
400.421
386.835
372.433
357.406
341.932
326.192
310.348
294.546
278.889
263.471
248.379
233.703
219.521
205.904
192.9
180.546
168.868
157.878
147.574
137.948
128.982
120.658
112.95
105.84
99.3095
93.341
87.9255
83.0206
78.6028
74.668
71.2367
68.3567
66.1081
64.6248
64.0262
64.5569
65.9747
68.0694
0
3.37467
5.43847
7.22514
8.32049
9.0064
9.42761
9.65133
9.72857
9.70148
9.60132
9.45245
9.27512
9.08678
8.90272
8.73648
8.6002
8.50492
8.46093
8.47817
8.56647
8.73564
8.99561
9.35636
9.82793
10.4204
11.1441
12.009
13.0249
14.2012
15.5463
17.0675
18.7707
20.66
22.7375
25.0036
27.4567
30.0938
32.9103
35.9004
39.0578
42.3757
45.8473
49.4663
53.2275
57.1267
61.1616
65.3318
69.6387
74.0858
78.6789
83.4265
88.3394
93.4313
98.7178
104.217
109.948
115.933
122.194
128.754
135.639
142.873
150.481
158.487
166.914
175.784
185.116
194.926
205.226
216.025
227.327
239.128
251.419
264.187
277.41
291.057
305.095
319.478
334.155
349.069
364.156
379.347
394.567
409.741
424.791
439.639
454.204
468.409
482.175
495.416
508.074
520.088
531.412
542.001
551.817
560.827
568.996
576.312
582.758
588.353
593.105
597.013
600.115
602.434
603.99
604.8
604.894
604.309
603.072
601.232
598.835
595.937
592.603
588.875
584.787
580.391
575.74
570.92
566.018
561.149
556.398
551.803
547.419
543.291
539.436
535.869
532.57
529.515
526.679
523.978
521.267
518.403
515.163
511.339
506.736
501.181
494.536
486.683
477.555
467.132
455.433
442.534
428.553
413.645
397.98
381.737
365.093
348.217
331.271
314.392
297.695
281.278
265.233
249.648
234.601
220.161
206.376
193.282
180.903
169.25
158.321
148.105
138.586
129.743
121.553
113.994
107.047
100.694
94.9264
89.7061
85.0092
80.8323
77.1936
74.1348
71.7227
70.0609
69.2236
69.3746
70.1494
71.444
0
3.20332
4.98754
6.58173
7.54913
8.13773
8.47666
8.63064
8.65025
8.57759
8.44381
8.27274
8.08373
7.89331
7.71598
7.56474
7.45139
7.38675
7.38098
7.44376
7.58465
7.81337
8.13993
8.57472
9.1286
9.81281
10.6388
11.6182
12.7621
14.0812
15.5852
17.2827
19.1806
21.2837
23.5949
26.1151
28.8431
31.7759
34.9092
38.2373
41.754
45.4525
49.3263
53.3693
57.5765
61.9444
66.4715
71.1583
76.0074
81.0239
86.2151
91.5915
97.1664
102.956
108.979
115.257
121.812
128.67
135.857
143.402
151.334
159.681
168.473
177.74
187.507
197.803
208.649
220.066
232.069
244.669
257.87
271.668
286.054
301.009
316.509
332.517
348.989
365.873
383.106
400.617
418.329
436.157
454.011
471.798
489.424
506.791
523.806
540.375
556.396
571.781
586.448
600.332
613.378
625.535
636.757
647.004
656.246
664.463
671.656
677.837
683.015
687.197
690.417
692.692
694.055
694.543
694.186
693.027
691.098
688.45
685.131
681.2
676.72
671.727
666.25
660.337
654.065
647.53
640.849
634.12
627.42
620.805
614.355
608.108
602.1
596.343
590.848
585.604
580.554
575.574
570.556
565.338
559.774
553.699
546.953
539.366
530.795
521.115
510.263
498.205
484.956
470.587
455.218
438.991
422.073
404.632
386.844
368.868
350.865
332.964
315.291
297.944
281.017
264.594
248.753
233.56
219.06
205.292
192.277
180.021
168.52
157.766
147.741
138.424
129.792
121.821
114.493
107.785
101.689
96.1665
91.1988
86.7826
82.9324
79.6823
77.0835
75.2122
74.0997
73.8562
74.032
74.6507
0
2.90766
4.32232
5.64168
6.42858
6.88674
7.12974
7.21764
7.20053
7.1187
7.00152
6.87015
6.74056
6.62539
6.53517
6.47921
6.46611
6.50417
6.60164
6.76701
7.00924
7.33794
7.76352
8.29723
8.95105
9.73771
10.6704
11.7626
13.0272
14.4767
16.1224
17.9747
20.0418
22.3302
24.8439
27.5849
30.5531
33.7465
37.1616
40.7935
44.6369
48.6858
52.9347
57.3783
62.0126
66.8353
71.8457
77.0458
82.4394
88.0332
93.8362
99.8606
106.122
112.637
119.429
126.521
133.939
141.712
149.869
158.442
167.464
176.968
186.987
197.555
208.703
220.461
232.856
245.912
259.646
274.072
289.195
305.012
321.512
338.671
356.459
374.835
393.745
413.127
432.906
452.998
473.311
493.742
514.186
534.533
554.67
574.482
593.859
612.69
630.858
648.263
664.808
680.423
695.043
708.613
721.084
732.41
742.568
751.539
759.339
765.973
771.464
775.802
779.027
781.155
782.253
782.363
781.525
779.78
777.168
773.738
769.542
764.644
759.095
752.922
746.157
738.846
731.089
722.989
714.67
706.217
697.699
689.214
680.815
672.535
664.405
656.448
648.664
641.038
633.527
626.096
618.643
611.042
603.149
594.802
585.832
576.095
565.484
553.893
541.251
527.521
512.704
496.896
480.174
462.675
444.551
425.967
407.09
388.08
369.089
350.242
331.661
313.448
295.7
278.502
261.929
246.044
230.888
216.511
202.924
190.121
178.102
166.858
156.371
146.623
137.587
129.24
121.562
114.529
108.124
102.315
97.0859
92.4343
88.3698
84.9176
82.1136
80.0085
78.5998
77.9601
77.5898
77.6432
0
2.54524
3.55393
4.55914
5.13607
5.44326
5.57883
5.60117
5.55966
5.49286
5.42768
5.38161
5.36568
5.38676
5.44929
5.55664
5.71203
5.91919
6.18282
6.50887
6.90474
7.37944
7.94353
8.609
9.38901
10.2981
11.3516
12.5651
13.9538
15.5326
17.3157
19.315
21.5413
24.0031
26.7067
29.6561
32.8532
36.2978
39.988
43.9209
48.0927
52.4995
57.1372
62.0024
67.0927
72.4069
77.9455
83.7118
89.7099
95.9495
102.44
109.196
116.232
123.568
131.228
139.235
147.62
156.412
165.643
175.348
185.563
196.322
207.663
219.622
232.233
245.53
259.542
274.296
289.811
306.1
323.171
341.02
359.631
378.976
399.022
419.719
441.007
462.814
485.053
507.626
530.425
553.333
576.227
598.979
621.46
643.539
665.089
685.979
706.089
725.293
743.493
760.613
776.585
791.346
804.841
817.032
827.893
837.429
845.649
852.572
858.213
862.546
865.636
867.5
868.247
867.915
866.551
864.195
860.894
856.698
851.661
845.845
839.289
832.012
824.045
815.452
806.331
796.804
786.965
776.89
766.63
756.253
745.815
735.396
725.033
714.775
704.649
694.646
684.73
674.821
664.831
654.701
644.31
633.561
622.392
610.667
598.201
584.868
570.578
555.277
538.961
521.689
503.587
484.79
465.445
445.714
425.757
405.731
385.781
366.031
346.618
327.625
309.143
291.256
274.032
257.531
241.789
226.855
212.746
199.449
186.962
175.276
164.373
154.237
144.839
136.153
128.155
120.826
114.135
108.058
102.582
97.7024
93.4242
89.7635
86.7421
84.3891
82.6752
81.6497
80.7895
80.3733
0
2.16923
2.7802
3.47065
3.83085
3.97999
4.00422
3.96275
3.90576
3.87101
3.88303
3.95526
4.09313
4.29688
4.56375
4.88995
5.27201
5.7078
6.19717
6.74233
7.3481
8.02203
8.77423
9.61712
10.5651
11.6346
12.8427
14.2079
15.7482
17.4817
19.4263
21.5965
24.0066
26.6682
29.5904
32.7803
36.2429
39.9808
43.9953
48.286
52.8515
57.6905
62.8016
68.1835
73.8359
79.7592
85.9554
92.4289
99.1842
106.233
113.583
121.249
129.246
137.592
146.311
155.425
164.967
174.966
185.456
196.471
208.046
220.219
233.028
246.509
260.699
275.634
291.344
307.855
325.19
343.361
362.375
382.226
402.897
424.357
446.566
469.469
492.997
517.07
541.59
566.445
591.512
616.66
641.748
666.633
691.172
715.22
738.637
761.28
783.014
803.703
823.247
841.561
858.57
874.21
888.423
901.181
912.465
922.296
930.687
937.664
943.229
947.342
950.111
951.55
951.812
950.919
948.926
945.875
941.813
936.791
930.866
924.084
916.469
908.043
898.832
888.924
878.411
867.413
856.005
844.252
832.211
819.95
807.559
795.102
782.622
770.157
757.633
745.139
732.668
720.252
707.891
695.48
682.991
670.225
657.15
643.356
628.904
613.697
597.647
580.693
562.779
544.102
524.69
504.67
484.189
463.4
442.459
421.515
400.708
380.165
359.985
340.277
321.132
302.625
284.822
267.777
251.515
236.124
221.594
207.879
194.993
182.925
171.657
161.173
151.445
142.448
134.17
126.568
119.618
113.299
107.596
102.503
98.0168
94.1476
90.9043
88.299
86.2831
84.8923
83.5979
82.7936
0
1.81444
2.07207
2.47681
2.63436
2.63347
2.55368
2.45795
2.39884
2.41403
2.52612
2.74444
3.06884
3.49278
4.00627
4.59824
5.25834
5.97824
6.75243
7.57871
8.45875
9.3983
10.4063
11.4954
12.6808
13.9813
15.4158
17.0058
18.7726
20.7374
22.9208
25.3424
28.0209
30.9726
34.2111
37.7478
41.5916
45.7498
50.2275
55.0288
60.1562
65.6117
71.3968
77.5127
83.9608
90.743
97.8616
105.32
113.124
121.279
129.794
138.679
147.95
157.621
167.714
178.249
189.256
200.757
212.788
225.379
238.565
252.379
266.858
282.038
297.953
314.642
332.134
350.456
369.631
389.673
410.587
432.368
454.995
478.431
502.634
527.537
553.074
579.152
605.664
632.487
659.482
686.503
713.393
739.998
766.161
791.724
816.528
840.43
863.277
884.946
905.328
924.332
941.887
957.92
972.383
985.247
996.52
1006.22
1014.39
1021.04
1026.18
1029.73
1031.89
1032.65
1032.19
1030.53
1027.72
1023.81
1018.85
1012.88
1005.95
998.105
989.345
979.691
969.192
957.934
946.025
933.568
920.628
907.254
893.503
879.436
865.057
850.463
835.74
820.895
806.137
791.383
776.768
762.341
747.86
733.285
718.503
703.506
688.235
672.433
656.186
639.28
621.622
603.151
583.862
563.832
543.162
521.981
500.434
478.669
456.836
435.07
413.506
392.257
371.437
351.139
331.449
312.437
294.163
276.676
259.994
244.189
229.278
215.21
201.99
189.605
178.029
167.267
157.277
148.035
139.516
131.681
124.502
117.965
112.053
106.759
102.075
98.0036
94.5419
91.6902
89.3848
87.6571
85.9812
84.859
0
1.50461
1.46208
1.62566
1.60696
1.47611
1.31266
1.18585
1.15154
1.24756
1.49406
1.8962
2.44846
3.13826
3.94936
4.86448
5.86748
6.94472
8.08598
9.28526
10.5411
11.8577
13.2421
14.7071
16.2685
17.9459
19.7614
21.7404
23.9087
26.2926
28.9176
31.8089
34.9903
38.4832
42.3066
46.4773
51.0099
55.9169
61.209
66.8951
72.9827
79.4771
86.3817
93.7002
101.434
109.586
118.155
127.145
136.554
146.387
156.646
167.337
178.467
190.046
202.086
214.602
227.609
241.13
255.192
269.823
285.049
300.899
317.405
334.59
352.498
371.157
390.597
410.842
431.91
453.818
476.571
500.163
524.567
549.754
575.666
602.251
629.421
657.092
685.145
713.443
741.838
770.165
798.26
825.955
853.073
879.447
904.918
929.324
952.53
974.407
994.844
1013.76
1031.09
1046.75
1060.7
1072.93
1083.46
1092.33
1099.58
1105.24
1109.29
1111.68
1112.64
1112.18
1110.48
1107.55
1103.46
1098.25
1091.97
1084.65
1076.34
1067.06
1056.81
1045.62
1033.56
1020.72
1007.19
993.024
978.273
962.996
947.259
931.127
914.756
898.173
881.458
864.875
848.191
831.592
814.938
798.35
781.824
765.204
748.683
732.018
715.121
697.814
680.024
661.641
642.572
622.774
602.242
581.06
559.32
537.154
514.702
492.108
469.511
447.042
424.824
402.968
381.578
360.751
340.568
321.1
302.4
284.518
267.479
251.326
236.07
221.688
208.17
195.5
183.648
172.623
162.384
152.905
144.17
136.127
128.752
122.028
115.933
110.458
105.585
101.315
97.6388
94.5442
91.9628
89.9262
87.9131
86.5357
0
1.26318
1.00896
1.00166
0.85933
0.646479
0.44814
0.340555
0.381726
0.607951
1.0358
1.66651
2.49046
3.49135
4.64948
5.94445
7.35724
8.87173
10.4754
12.1602
13.9235
15.7677
17.7021
19.7394
21.8973
24.1975
26.6664
29.333
32.2273
35.3798
38.8217
42.5839
46.6963
51.1863
56.0787
61.3956
67.157
73.3801
80.0811
87.2725
94.965
103.165
111.88
121.11
130.854
141.11
151.873
163.135
174.891
187.131
199.85
213.038
226.695
240.818
255.406
270.462
285.991
302.006
318.526
335.566
353.142
371.276
389.972
409.275
429.195
449.771
471.022
492.97
515.635
539.037
563.187
588.082
613.702
640.01
666.959
694.49
722.532
750.989
779.744
808.654
837.558
866.285
894.663
922.506
949.642
975.894
1001.1
1025.11
1047.78
1068.98
1088.63
1106.63
1122.92
1137.42
1150.11
1160.99
1170.08
1177.44
1183.14
1187.19
1189.59
1190.27
1189.57
1187.43
1184.05
1179.44
1173.68
1166.8
1158.83
1149.81
1139.77
1128.71
1116.62
1103.54
1089.56
1074.77
1059.26
1043.11
1026.37
1009.08
991.317
973.249
954.9
936.373
917.787
899.038
880.285
861.658
843.049
824.768
806.614
788.518
770.423
752.235
733.868
715.192
696.132
676.566
656.408
635.615
614.193
592.203
569.741
546.934
523.917
500.824
477.784
454.916
432.335
410.143
388.445
367.332
346.885
327.171
308.244
290.147
272.907
256.557
241.105
226.532
212.836
200.001
187.997
176.812
166.42
156.794
147.907
139.719
132.195
125.32
119.073
113.444
108.413
103.972
100.102
96.7917
93.9659
91.6568
89.3495
87.7834
0
1.08369
0.721033
0.628847
0.434659
0.209763
0.0477625
0.028885
0.209674
0.62267
1.28119
2.18472
3.32315
4.6805
6.23844
7.97949
9.8878
11.9505
14.1563
16.4995
18.9806
21.6054
24.3862
27.3356
30.4756
33.8314
37.4342
41.3176
45.5156
50.0623
54.9923
60.3406
66.1406
72.4217
79.211
86.5342
94.4141
102.869
111.915
121.562
131.817
142.681
154.155
166.234
178.908
192.164
205.985
220.35
235.238
250.626
266.484
282.798
299.544
316.707
334.267
352.212
370.535
389.239
408.328
427.804
447.671
467.927
488.581
509.647
531.15
553.114
575.558
598.503
621.981
646.016
670.634
695.838
721.601