/*--------------------------------*- C++ -*----------------------------------*\
  =========                 |
  \\      /  F ield         | OpenFOAM: The Open Source CFD Toolbox
   \\    /   O peration     | Website:  https://openfoam.org
    \\  /    A nd           | Version:  9
     \\/     M anipulation  |
\*---------------------------------------------------------------------------*/
FoamFile
{
    format      ascii;
    class       volScalarField;
    location    "2.22";
    object      k;
}
// * * * * * * * * * * * * * * * * * * * * * * * * * * * * * * * * * * * * * //

dimensions      [0 2 -2 0 0 0 0];

internalField   nonuniform List<scalar> 
2268
(
0.00145258
0.0040161
0.00634862
0.00827033
0.0099007
0.0113223
0.0125778
0.0137037
0.0147256
0.015652
0.0164887
0.0172369
0.0178942
0.0184502
0.0188773
0.0191212
0.0190874
0.0185897
0.0174842
0.015977
0.0136698
0.00993826
0.00411194
0.00314425
0.00958494
0.0144098
0.0184793
0.0219889
0.0250635
0.0277975
0.0302594
0.0324924
0.0345225
0.0363619
0.0380118
0.0394661
0.0407012
0.0416567
0.0422169
0.0421894
0.04124
0.0390716
0.0359756
0.0312843
0.023338
0.00982629
0.0045805
0.0130356
0.0190142
0.0240412
0.028403
0.0322446
0.0356733
0.0387711
0.0415902
0.0441624
0.0465045
0.0486185
0.0504958
0.0521048
0.0533677
0.0541406
0.0541993
0.053226
0.050931
0.0472839
0.0415723
0.0319779
0.0139487
0.00595269
0.0159849
0.0227726
0.0284346
0.033353
0.0376959
0.0415845
0.0451095
0.0483283
0.0512756
0.0539712
0.0564189
0.0586101
0.0605093
0.0620267
0.0629993
0.0631891
0.0622969
0.0600451
0.0562394
0.0501218
0.0396435
0.0178362
0.00728724
0.0187745
0.0262684
0.0324378
0.0377819
0.0425039
0.046743
0.0505988
0.054132
0.0573782
0.0603592
0.0630825
0.065542
0.0677013
0.069461
0.0706406
0.0709914
0.0702309
0.0681009
0.0643367
0.0581261
0.0470984
0.02183
0.00859364
0.0215345
0.0296992
0.0363136
0.0420098
0.0470388
0.0515645
0.0556958
0.0594948
0.0629964
0.0662241
0.0691907
0.0718958
0.074306
0.0763118
0.077712
0.0782453
0.0776449
0.0756814
0.072077
0.0659819
0.0546951
0.0265678
0.00990598
0.0243368
0.0331627
0.0401845
0.0461827
0.0514692
0.0562397
0.0606126
0.0646475
0.068377
0.0718262
0.0750152
0.0779546
0.0806173
0.0828823
0.084519
0.0852477
0.0848177
0.0830397
0.0796642
0.0738586
0.0627601
0.0336368
0.0112732
0.0272372
0.0367214
0.0441205
0.0503795
0.0558852
0.0608724
0.0654665
0.069719
0.0736574
0.0773099
0.0807057
0.0838738
0.0867987
0.0893434
0.0912329
0.0921587
0.091889
0.0902869
0.0871624
0.0817807
0.0715724
0.0462027
0.00378285
0.00891974
0.0125645
0.0141694
0.0145751
0.014273
0.0130059
0.010957
0.00902563
0.00867178
0.00883073
0.00870561
0.00831905
0.00815627
0.00835287
0.00794427
0.00646627
0.00431998
0.00236967
0.00817539
0.0202331
0.0269843
0.0300958
0.0308945
0.030184
0.027981
0.0238405
0.0205482
0.0196562
0.0195774
0.019128
0.0182499
0.0178148
0.0176129
0.0165896
0.0139614
0.00994385
0.00429552
0.0106341
0.0267597
0.034591
0.0381664
0.0389979
0.0380098
0.0353908
0.0310697
0.0275326
0.0261862
0.0255811
0.0247382
0.0236368
0.0229106
0.0222956
0.0208053
0.0176931
0.0129793
0.00566322
0.0127861
0.032215
0.0405856
0.0441736
0.0448195
0.0435447
0.0406503
0.0364103
0.0329256
0.0312297
0.0301975
0.0290315
0.0277053
0.0266838
0.0256604
0.0237428
0.0202974
0.015165
0.00668609
0.0150984
0.0375759
0.0460592
0.0493329
0.0496275
0.0480406
0.0449631
0.0409424
0.0375922
0.0355934
0.0342136
0.0327788
0.0312237
0.0298889
0.0284413
0.0260838
0.0223097
0.0168248
0.00748292
0.0181536
0.0433051
0.0513517
0.0540241
0.0538457
0.051953
0.0487717
0.0450301
0.0418635
0.0396113
0.0379178
0.0362496
0.0344763
0.0328234
0.0309477
0.0281254
0.0239367
0.018051
0.00815844
0.0234653
0.0495709
0.0565627
0.0584035
0.0576768
0.0554788
0.0522708
0.0488385
0.0458746
0.0434456
0.0414644
0.0395843
0.0376141
0.035664
0.0333872
0.0301058
0.0253886
0.0189587
0.00866901
0.0347262
0.0565171
0.0616897
0.0625386
0.061234
0.058751
0.0555819
0.0524448
0.0496728
0.0471613
0.0449539
0.0428857
0.0407388
0.0385256
0.0358962
0.0321923
0.0268939
0.0197582
0.00903695
0.0134727
0.0319615
0.0424787
0.0504276
0.0570402
0.0628444
0.0681462
0.0730723
0.0776487
0.0818926
0.0858381
0.089535
0.0930561
0.0964169
0.0994443
0.101753
0.102967
0.102892
0.101498
0.0987068
0.0938688
0.0849743
0.0670941
0.0168638
0.0393415
0.0512079
0.0596966
0.0665744
0.07265
0.0783566
0.0837545
0.0887513
0.0933486
0.0975992
0.10161
0.105585
0.109656
0.11354
0.116464
0.117873
0.117714
0.116219
0.113599
0.109585
0.103092
0.0934846
0.0213662
0.0483937
0.0612008
0.0697832
0.0765876
0.0828145
0.0890823
0.0951459
0.100578
0.105447
0.109869
0.11402
0.118389
0.123444
0.128684
0.13225
0.133357
0.132437
0.130204
0.127301
0.123723
0.118479
0.111372
0.0299592
0.060273
0.0726247
0.0805092
0.0867526
0.0930503
0.100493
0.107685
0.113398
0.118331
0.122682
0.126625
0.131152
0.137751
0.145598
0.149548
0.149253
0.146717
0.14299
0.139441
0.136805
0.132883
0.12661
0.043092
0.0710849
0.0814313
0.0886439
0.0944695
0.10078
0.108903
0.115542
0.120402
0.125437
0.130484
0.134549
0.139217
0.146892
0.15612
0.160681
0.161061
0.158338
0.153973
0.149316
0.145998
0.145327
0.141926
0.042548
0.0731482
0.0863585
0.0932754
0.0982077
0.103217
0.109006
0.114776
0.120137
0.125478
0.130792
0.135793
0.141303
0.148087
0.154839
0.159615
0.161779
0.161211
0.158699
0.155555
0.152929
0.151955
0.150951
0.0390477
0.0741223
0.0923549
0.0982041
0.101226
0.104649
0.108993
0.11385
0.119459
0.125251
0.130602
0.135838
0.141591
0.147558
0.153136
0.158241
0.161
0.161248
0.159638
0.157599
0.156364
0.155112
0.15148
0.0350653
0.0691436
0.0945482
0.101411
0.103202
0.104984
0.108206
0.112417
0.1176
0.123231
0.129035
0.135009
0.1408
0.145992
0.15073
0.156116
0.160805
0.161462
0.158066
0.156409
0.156975
0.158239
0.154124
0.0318532
0.0663099
0.0899493
0.0980471
0.101477
0.103602
0.106462
0.11026
0.114806
0.119909
0.125541
0.131649
0.137334
0.141962
0.146012
0.150618
0.155106
0.156007
0.153624
0.15258
0.153107
0.153227
0.150268
0.0307677
0.0662381
0.0836865
0.0923054
0.0970914
0.100438
0.103694
0.107349
0.111469
0.11606
0.121145
0.126631
0.131933
0.136379
0.140083
0.143702
0.146856
0.147967
0.147276
0.146726
0.146566
0.145463
0.142476
0.033148
0.0637374
0.0780581
0.0865251
0.091963
0.0960886
0.099822
0.10357
0.107501
0.111715
0.116273
0.121112
0.125867
0.130045
0.133513
0.136504
0.138812
0.139702
0.139412
0.138938
0.137976
0.136051
0.132588
0.0323023
0.0599484
0.0727847
0.0809192
0.0866724
0.091241
0.0952793
0.0991223
0.10295
0.106883
0.110994
0.115254
0.119444
0.12323
0.12641
0.128967
0.130736
0.131348
0.130905
0.130022
0.128676
0.126452
0.123159
0.0299354
0.055575
0.067675
0.0755759
0.0814404
0.0862043
0.0903742
0.0942343
0.0979536
0.101646
0.10538
0.109145
0.112809
0.116153
0.118984
0.121188
0.122614
0.123054
0.122543
0.121428
0.119895
0.117794
0.115044
0.0269869
0.0510078
0.0626858
0.0704293
0.0762947
0.0811004
0.0852793
0.0890831
0.0926673
0.0961339
0.0995408
0.102887
0.10609
0.109007
0.11148
0.113383
0.114586
0.11496
0.114519
0.113462
0.112011
0.11019
0.107996
0.0239371
0.0464124
0.0578069
0.0654277
0.071239
0.0760033
0.0801189
0.0838189
0.0872481
0.0904978
0.0936177
0.0966111
0.0994275
0.10197
0.104124
0.105779
0.106835
0.107213
0.106917
0.106074
0.104882
0.103418
0.101717
0.0213096
0.0418799
0.0530951
0.0606016
0.0663222
0.0709987
0.0750115
0.0785817
0.081847
0.0848917
0.0877606
0.0904609
0.0929617
0.0951992
0.0970919
0.0985574
0.0995247
0.0999418
0.099822
0.0992505
0.0983829
0.0972922
0.0960254
0.0191566
0.0378952
0.0487081
0.0560331
0.0616228
0.066183
0.0700718
0.073499
0.0765998
0.0794548
0.0821064
0.084566
0.0868161
0.0888172
0.0905119
0.0918412
0.0927603
0.093244
0.0933066
0.0930099
0.0924644
0.0917276
0.0908413
0.0173706
0.0345747
0.0448264
0.0518707
0.0572668
0.0616634
0.0653997
0.0686754
0.0716162
0.0742986
0.0767644
0.079028
0.0810818
0.0829013
0.0844509
0.0856944
0.0866044
0.0871699
0.0874045
0.0873623
0.0871093
0.0866878
0.0861297
0.0159028
0.0318399
0.0414567
0.0481531
0.0533095
0.0575142
0.0610806
0.0641963
0.0669792
0.0695022
0.0718064
0.0739095
0.0758114
0.0774989
0.0789517
0.080149
0.081076
0.0817296
0.0821219
0.0823019
0.0823016
0.0821504
0.0818702
0.0146885
0.0295465
0.0385317
0.0448555
0.0497511
0.0537503
0.0571408
0.0600971
0.0627299
0.065109
0.0672752
0.0692489
0.0710355
0.0726303
0.074023
0.075203
0.0761638
0.0769065
0.077443
0.0778079
0.0780187
0.078093
0.078044
0.0136531
0.0275553
0.0359545
0.0419148
0.0465522
0.0503494
0.0535705
0.0563778
0.0588753
0.06113
0.0631825
0.0650554
0.0667579
0.0682911
0.0696513
0.0708343
0.0718381
0.0726661
0.0733287
0.0738473
0.0742315
0.0744905
0.0746308
0.0127302
0.0257594
0.033631
0.0392563
0.0436549
0.0472676
0.0503375
0.0530154
0.0553996
0.0575542
0.0595194
0.0613189
0.062965
0.0644622
0.0658111
0.067011
0.0680624
0.0689689
0.0697392
0.0703846
0.0709092
0.0713171
0.07161
0.0118705
0.0240858
0.0314871
0.036814
0.0410028
0.044458
0.0474034
0.0499794
0.0522783
0.054361
0.0562672
0.058021
0.0596362
0.0611195
0.0624739
0.0637005
0.0648007
0.0657773
0.0666386
0.067387
0.068024
0.0685498
0.0689635
0.0110437
0.0224934
0.0294764
0.0345437
0.0385566
0.0418865
0.0447396
0.0472457
0.0494909
0.0515327
0.0534091
0.0551441
0.0567519
0.0582404
0.0596136
0.0608737
0.0620222
0.0630614
0.063997
0.0648277
0.0655526
0.0661698
0.0666767
0.010239
0.0209723
0.0275845
0.0324311
0.0363035
0.0395425
0.0423372
0.0448069
0.0470308
0.0490622
0.0509368
0.0526775
0.0542984
0.0558077
0.05721
0.0585076
0.0597021
0.0607955
0.061791
0.0626858
0.0634775
0.0641632
0.0647395
0.00946439
0.0195441
0.025831
0.0304946
0.0342613
0.037443
0.040212
0.0426765
0.0449085
0.0469564
0.048853
0.0506195
0.0522694
0.0538108
0.0552484
0.0565848
0.0578215
0.0589602
0.0600026
0.0609455
0.0617859
0.0625205
0.0631458
0.00874544
0.0182574
0.0242652
0.0287823
0.0324757
0.0356299
0.0384009
0.0408857
0.0431487
0.0452333
0.0471688
0.0489747
0.0506636
0.0522433
0.0537185
0.055092
0.0563655
0.0575406
0.0586182
0.0595952
0.0604687
0.0612357
0.0618927
0.00812061
0.0171768
0.0229557
0.0273609
0.0310089
0.0341592
0.0369521
0.0394741
0.0417822
0.0439146
0.0458977
0.0477491
0.0494805
0.0510994
0.0526107
0.0540173
0.0553212
0.056524
0.0576264
0.0586257
0.0595195
0.060305
0.0609796
0.00763148
0.0163667
0.0219724
0.0262983
0.0299232
0.0330852
0.0359107
0.0384769
0.0408341
0.0430165
0.0450476
0.0469436
0.0487154
0.0503705
0.0519137
0.053348
0.0546758
0.0558987
0.0570174
0.0580297
0.0589336
0.059727
0.0604079
0.00731056
0.015874
0.0213676
0.0256451
0.0292634
0.0324446
0.0353045
0.0379129
0.0403151
0.042542
0.0446153
0.04655
0.0483567
0.0500425
0.0516124
0.0530695
0.0544159
0.0556535
0.0567826
0.0578015
0.0587085
0.0595021
0.0601812
0.0071724
0.0157191
0.0211642
0.0254219
0.0290449
0.0322466
0.0351362
0.0377785
0.0402159
0.0424774
0.0445835
0.0465489
0.0483838
0.0500953
0.051688
0.0531649
0.0545278
0.055778
0.0569152
0.0579379
0.0588445
0.0596342
0.0603062
0.00721312
0.0158964
0.0213543
0.0256176
0.0292527
0.0324721
0.0353827
0.0380476
0.0405081
0.0427927
0.0449219
0.0469103
0.0487683
0.0505028
0.052118
0.0536161
0.0549979
0.0562636
0.0574116
0.0584398
0.0593465
0.0601313
0.0607943
0.00741636
0.0163806
0.0219059
0.0261961
0.0298473
0.0330793
0.0360007
0.038676
0.0411474
0.0434444
0.0455884
0.0475948
0.0494744
0.0512339
0.0528769
0.0544041
0.0558144
0.0571055
0.0582732
0.0593141
0.0602259
0.0610085
0.0616631
0.00775955
0.0171327
0.0227702
0.0271036
0.0307726
0.0340102
0.0369319
0.0396059
0.0420772
0.044378
0.0465316
0.048555
0.0504598
0.052253
0.0539371
0.0555106
0.0569685
0.0583043
0.0595092
0.0605766
0.0615035
0.06229
0.0629393
0.00821642
0.0181031
0.023887
0.0282745
0.0319596
0.0351952
0.0381066
0.0407685
0.043231
0.0455296
0.0476912
0.0497351
0.0516751
0.053519
0.0552681
0.0569177
0.0584565
0.0598699
0.0611404
0.0622564
0.063213
0.0640123
0.0646608
0.00875627
0.0192316
0.0251845
0.0296315
0.0333289
0.036554
0.0394453
0.0420863
0.044533
0.0468265
0.0489978
0.0510709
0.0530628
0.054984
0.0568358
0.058609
0.0602825
0.0618256
0.0632055
0.0644013
0.0654067
0.0662282
0.0668797
0.00934222
0.0204455
0.026579
0.0310861
0.0347904
0.0379971
0.0408601
0.0434731
0.0458998
0.0481875
0.0503737
0.0524883
0.0545553
0.0565909
0.0585996
0.0605685
0.0624608
0.0642165
0.0657706
0.0670866
0.0681607
0.069011
0.0696651
0.00993063
0.0216603
0.0279753
0.0325399
0.0362457
0.0394277
0.0422567
0.0448374
0.047242
0.0495255
0.0517328
0.0539035
0.0560724
0.0582686
0.0605074
0.0627776
0.0650217
0.0671245
0.0689463
0.0704285
0.0715837
0.0724582
0.0731047
0.0104727
0.0227813
0.0292699
0.033888
0.0375917
0.0407458
0.0435386
0.0460858
0.0484684
0.0507495
0.0529837
0.0552227
0.057519
0.0599248
0.0624835
0.0652044
0.0680147
0.070699
0.0729179
0.0746009
0.0758232
0.076693
0.0773046
0.0109184
0.0237109
0.0303588
0.0350261
0.0387267
0.0418539
0.0446122
0.0471279
0.0494903
0.0517705
0.0540332
0.0563452
0.0587826
0.0614355
0.0644041
0.0677689
0.0714974
0.0752289
0.0779987
0.0798547
0.0810663
0.0818603
0.0823859
0.0112255
0.0243601
0.0311478
0.0358587
0.0395574
0.0426624
0.0453922
0.0478821
0.0502278
0.0525073
0.0547941
0.0571696
0.0597363
0.0626333
0.0660541
0.0702491
0.0754427
0.0813539
0.084717
0.0865185
0.0875203
0.0881105
0.088476
0.0113536
0.0247002
0.0315692
0.0363049
0.0400018
0.0430933
0.0458063
0.0482809
0.0506166
0.0528951
0.0551953
0.0576081
0.0602545
0.0633148
0.06708
0.0720607
0.0792455
0.0907936
0.0938783
0.0949129
0.0953491
0.0955714
0.0956995
0.0444426
0.0402744
0.0419245
0.0477244
0.0858531
0.0825067
0.0806879
0.0799867
0.105648
0.10232
0.0993984
0.0968719
0.120779
0.116994
0.11325
0.109691
0.135281
0.130507
0.125399
0.120583
0.143807
0.138531
0.133665
0.128821
0.146592
0.142683
0.137721
0.132525
0.14721
0.142326
0.136991
0.131893
0.144349
0.139547
0.134271
0.12936
0.137952
0.133927
0.129286
0.124872
0.128415
0.12528
0.121982
0.118804
0.11984
0.117566
0.115238
0.11293
0.112558
0.110889
0.109176
0.107449
0.10613
0.104882
0.103597
0.102287
0.100311
0.0993708
0.0983995
0.0974031
0.0949839
0.0942814
0.093552
0.0927981
0.0900965
0.0895858
0.0890494
0.0884878
0.0856314
0.0852799
0.0849023
0.0844982
0.0815774
0.0813591
0.0811136
0.0808404
0.0779216
0.0778141
0.0776787
0.0775145
0.074648
0.0746319
0.0745875
0.0745136
0.0717401
0.0717984
0.0718282
0.0718283
0.069183
0.0693008
0.06939
0.0694496
0.0669654
0.0671294
0.0672649
0.0673711
0.0650798
0.0652783
0.0654487
0.0655901
0.0635225
0.0637454
0.0639405
0.064107
0.0622928
0.0625314
0.0627425
0.0629253
0.0613924
0.0616394
0.061859
0.0620508
0.0608248
0.0610743
0.0612966
0.0614911
0.0605957
0.0608433
0.0610636
0.0612564
0.0607141
0.0609567
0.0611718
0.0613594
0.0611932
0.061429
0.061637
0.0618173
0.0620526
0.0622808
0.0624809
0.0626528
0.06332
0.0635409
0.0637329
0.0638963
0.0650341
0.0652482
0.0654324
0.0655873
0.0672463
0.0674537
0.06763
0.0677766
0.070023
0.0702224
0.0703897
0.070527
0.0734468
0.0736341
0.0737892
0.0739147
0.0776161
0.0777835
0.0779202
0.0780294
0.0826428
0.0827783
0.0828874
0.0829736
0.0886478
0.0887368
0.0888077
0.0888633
0.0957577
0.0957874
0.0958109
0.0958291
0.0599119
0.0673666
0.069258
0.0685715
0.0664622
0.0636354
0.0606001
0.0578374
0.0553197
0.0528261
0.0504278
0.0481226
0.0457035
0.0430504
0.039845
0.0355239
0.0293917
0.0210913
0.00944893
0.0797352
0.0795975
0.0782832
0.0759386
0.0730422
0.0699833
0.0670869
0.0645397
0.0622634
0.0600564
0.0578397
0.055494
0.0528289
0.0495995
0.0457382
0.0408737
0.0341013
0.0245781
0.0106156
0.0936101
0.0899519
0.0864396
0.0829365
0.0795577
0.0763498
0.0734184
0.0708737
0.0687504
0.0669005
0.065039
0.0628206
0.0600007
0.0563507
0.0518975
0.0465331
0.0396703
0.0301947
0.0145347
0.104785
0.099063
0.0941234
0.0897654
0.0859478
0.0825663
0.0794694
0.0767113
0.0745706
0.0731009
0.0717157
0.0697148
0.066742
0.0627364
0.0578838
0.052205
0.0456705
0.0365246
0.0165141
0.114392
0.107485
0.101398
0.0962209
0.0920425
0.0884748
0.0850276
0.0818948
0.0797509
0.0788816
0.0780272
0.0759943
0.0724631
0.067745
0.0624842
0.0569479
0.0503447
0.0409005
0.0205239
0.121908
0.114274
0.107586
0.101953
0.0974682
0.0932667
0.088981
0.0853263
0.0831121
0.0821877
0.0807208
0.0778602
0.0736622
0.0685651
0.0633085
0.0578732
0.0509837
0.0419547
0.0239982
0.125132
0.117283
0.111122
0.105811
0.100936
0.096113
0.0914629
0.0874854
0.0846473
0.0824882
0.0797898
0.0762363
0.0719792
0.0673248
0.0623593
0.0566675
0.0498183
0.0409713
0.0234094
0.124716
0.11708
0.11137
0.106678
0.101779
0.0968897
0.0922959
0.088512
0.0854868
0.0824496
0.0788676
0.0747377
0.0701604
0.0653245
0.0598037
0.0536763
0.0471464
0.0382494
0.0208729
0.122486
0.115272
0.109808
0.105185
0.100443
0.0959818
0.0921761
0.0890025
0.085913
0.0822195
0.077665
0.072623
0.067229
0.0616057
0.0557861
0.0501533
0.0441647
0.0356554
0.0187325
0.118763
0.112305
0.107117
0.102495
0.0979969
0.09387
0.0904489
0.0874851
0.0841674
0.0799695
0.0748173
0.0692039
0.0633553
0.0574894
0.0518998
0.0466979
0.0412877
0.0333371
0.0169158
0.114116
0.108589
0.103774
0.0993774
0.0952281
0.0913402
0.087776
0.0843514
0.080638
0.0762668
0.0711946
0.0656682
0.0598827
0.0540528
0.0484252
0.0430509
0.0376189
0.0303441
0.0151865
0.109331
0.104708
0.100455
0.0964896
0.0926762
0.0889318
0.0852172
0.0814584
0.0774894
0.073116
0.0682522
0.0629426
0.0572635
0.051354
0.0453568
0.0393376
0.0332046
0.026184
0.0131964
0.104651
0.100857
0.0972209
0.0937155
0.0902342
0.0866773
0.0829908
0.0791565
0.0751374
0.070844
0.0661689
0.0610313
0.0554107
0.0493629
0.0429516
0.0362175
0.0292067
0.0217553
0.0109237
0.100106
0.0970386
0.0939872
0.0909331
0.0877961
0.0844915
0.0809794
0.077266
0.0733579
0.0692085
0.064708
0.0597268
0.0541887
0.0480904
0.0414452
0.0342518
0.0266026
0.0186096
0.00873895
0.0957099
0.0932569
0.0907292
0.088102
0.0853158
0.0823103
0.0790618
0.0755818
0.0718811
0.0679252
0.0636155
0.0588226
0.0534527
0.0474656
0.040838
0.0335502
0.0257196
0.0176063
0.00777142
0.0914976
0.0895557
0.0874849
0.0852525
0.0828132
0.080127
0.0771806
0.0739822
0.0705351
0.0668071
0.062717
0.0581573
0.0530405
0.0473132
0.0409339
0.0338699
0.026211
0.0181465
0.00842919
0.087505
0.0859954
0.0843193
0.0824431
0.0803356
0.0779666
0.0753278
0.0724209
0.0692419
0.0657603
0.0619124
0.0576171
0.0528057
0.0474317
0.0414575
0.0348464
0.0276066
0.0196028
0.00955825
0.0837759
0.0826208
0.0812832
0.0797313
0.0779309
0.075862
0.0735175
0.0708932
0.0679798
0.0647494
0.0611539
0.0571355
0.0526469
0.0476593
0.0421538
0.0361028
0.029423
0.0215913
0.0107862
0.0803347
0.0794734
0.0784215
0.0771503
0.075631
0.0738425
0.0717698
0.0694111
0.0667526
0.0637698
0.0604269
0.0566844
0.0525138
0.0479035
0.042854
0.0373492
0.0312504
0.0238057
0.0119329
0.0771895
0.0765732
0.0757629
0.0747331
0.0734585
0.0719191
0.0701002
0.0679904
0.0655715
0.0628281
0.0597329
0.0562586
0.0523906
0.0481292
0.0434837
0.0384379
0.0328208
0.0257863
0.0128847
0.0743388
0.0739266
0.0733203
0.0724969
0.0714341
0.0701125
0.0685167
0.0666326
0.0644442
0.061933
0.0590774
0.0558587
0.0522747
0.0483282
0.0440251
0.0393313
0.0340283
0.0271799
0.0135998
0.071777
0.0715335
0.0710978
0.0704496
0.0695686
0.0684364
0.0670367
0.0653547
0.0633747
0.0610799
0.0584536
0.0554827
0.0521634
0.0484977
0.0444802
0.0400504
0.0349469
0.0281382
0.0140453
0.0694982
0.0693919
0.0690971
0.0685956
0.0678689
0.0668995
0.0656713
0.064169
0.0623774
0.0602815
0.0578673
0.0551242
0.0520471
0.0486315
0.0448563
0.0406314
0.035651
0.0288259
0.0144104
0.0674984
0.0675013
0.0673203
0.0669391
0.0663411
0.0655098
0.0644295
0.0630851
0.0614619
0.0595458
0.0573242
0.0547869
0.0519255
0.0487271
0.0451534
0.0410886
0.0361934
0.0293491
0.0147293
0.065777
0.065864
0.0657719
0.0654868
0.0649934
0.0642766
0.0633213
0.0621127
0.0606367
0.0588797
0.056829
0.0544731
0.0517992
0.048785
0.0453772
0.0414391
0.0366083
0.0297458
0.0149569
0.0643368
0.0644851
0.0644596
0.0642479
0.0638367
0.0632118
0.062359
0.0612641
0.0599131
0.0582923
0.0563886
0.0541879
0.0516724
0.0488111
0.0455376
0.0416991
0.0369165
0.0300316
0.0151005
0.0631833
0.0633729
0.0633938
0.0632352
0.062885
0.0623306
0.0615584
0.0605549
0.0593059
0.0577977
0.0560154
0.0539426
0.0515561
0.0488171
0.0456487
0.0418856
0.037136
0.0302234
0.0151776
0.0623243
0.0625382
0.0625878
0.0624638
0.0621558
0.061652
0.0609397
0.0600056
0.0588358
0.0574155
0.0557287
0.0537556
0.0514687
0.048822
0.0457303
0.042019
0.0372866
0.0303417
0.0152128
0.06177
0.0619938
0.0620571
0.0619521
0.0616695
0.0611985
0.0605271
0.0596421
0.0585293
0.0571732
0.0555559
0.0536548
0.051438
0.0488539
0.0458105
0.0421263
0.0373936
0.030412
0.0152229
0.0615325
0.0617548
0.0618199
0.061721
0.06145
0.0609968
0.0603498
0.0594958
0.0584202
0.0571062
0.0555341
0.0536785
0.0515035
0.0489529
0.0459292
0.0422458
0.0374908
0.0304597
0.0152141
0.061627
0.0618394
0.0618972
0.0617948
0.0615248
0.0610777
0.0604422
0.0596047
0.0585499
0.0572595
0.0557117
0.053878
0.051719
0.0491741
0.0461414
0.0424302
0.0376247
0.0305138
0.0151891
0.0620725
0.0622696
0.0623142
0.0622018
0.0619259
0.0614774
0.0608447
0.060014
0.0589687
0.0576887
0.0561495
0.0543195
0.0521549
0.0495908
0.046521
0.0427508
0.0378591
0.0306201
0.0151205
0.0628938
0.0630726
0.0631009
0.0629756
0.0626908
0.0622376
0.0616045
0.0607766
0.0597361
0.0584607
0.0569226
0.0550858
0.0529016
0.0502991
0.0471661
0.0433023
0.0382791
0.0308464
0.015017
0.0641225
0.0642823
0.064294
0.0641561
0.0638632
0.0634071
0.0627758
0.0619538
0.0609215
0.0596541
0.0581202
0.0562782
0.0540722
0.0514226
0.0482072
0.044215
0.0390061
0.0313076
0.0150835
0.0657991
0.0659406
0.0659378
0.0657904
0.0654943
0.0650417
0.0644205
0.0636146
0.0626031
0.0613585
0.0598453
0.0580154
0.0558035
0.0531168
0.0498166
0.0456728
0.040225
0.0321759
0.0154738
0.067974
0.0680991
0.0680852
0.0679342
0.0676431
0.0672049
0.0666077
0.0658356
0.0648665
0.0636714
0.0622106
0.0604296
0.0582515
0.055566
0.0522087
0.0479168
0.0421922
0.033677
0.0162053
0.0707094
0.0708196
0.0707992
0.0706522
0.070377
0.0699675
0.0694131
0.0686982
0.0678015
0.0666931
0.0653314
0.0636563
0.0615798
0.0589703
0.055628
0.0512366
0.0452337
0.0361183
0.0173859
0.0740794
0.0741753
0.0741531
0.0740186
0.0737716
0.0734075
0.0729172
0.0722869
0.0714973
0.0705203
0.0693151
0.0678201
0.0659396
0.0635224
0.0603247
0.0559467
0.049679
0.0397909
0.0192354
0.0781709
0.0782515
0.0782316
0.078118
0.0779117
0.0776096
0.0772049
0.0766868
0.0760393
0.0752391
0.0742505
0.0730166
0.0714436
0.0693709
0.0665154
0.0623634
0.055958
0.0450953
0.02213
0.0830843
0.0831468
0.0831319
0.0830462
0.0828916
0.0826662
0.0823658
0.081983
0.0815071
0.0809215
0.0802
0.0792987
0.0781396
0.076577
0.0743218
0.0707662
0.0645562
0.0524032
0.0261112
0.0889342
0.0889742
0.0889654
0.0889126
0.0888174
0.0886792
0.0884961
0.0882644
0.0879785
0.0876298
0.0872041
0.0866766
0.0859999
0.0850764
0.0836809
0.0812285
0.0759834
0.0616982
0.0312554
0.0958522
0.0958646
0.0958609
0.0958426
0.0958106
0.0957648
0.0957048
0.0956298
0.0955386
0.0954293
0.0952987
0.095141
0.094945
0.0946842
0.094282
0.0934415
0.0906388
0.0713463
0.0367114
)
;

boundaryField
{
    leftWall
    {
        type            kqRWallFunction;
        value           nonuniform List<scalar> 
50
(
0.00145258
0.00314425
0.0045805
0.00595269
0.00728724
0.00859364
0.00990598
0.0112732
0.0134727
0.0168638
0.0213662
0.0299592
0.043092
0.042548
0.0390477
0.0350653
0.0318532
0.0307677
0.033148
0.0323023
0.0299354
0.0269869
0.0239371
0.0213096
0.0191566
0.0173706
0.0159028
0.0146885
0.0136531
0.0127302
0.0118705
0.0110437
0.010239
0.00946439
0.00874544
0.00812061
0.00763148
0.00731056
0.0071724
0.00721312
0.00741636
0.00775955
0.00821642
0.00875627
0.00934222
0.00993063
0.0104727
0.0109184
0.0112255
0.0113536
)
;
    }
    rightWall
    {
        type            kqRWallFunction;
        value           nonuniform List<scalar> 
50
(
0.00236967
0.00429552
0.00566322
0.00668609
0.00748292
0.00815844
0.00866901
0.00903695
0.00944893
0.0106156
0.0145347
0.0165141
0.0205239
0.0239982
0.0234094
0.0208729
0.0187325
0.0169158
0.0151865
0.0131964
0.0109237
0.00873895
0.00777142
0.00842919
0.00955825
0.0107862
0.0119329
0.0128847
0.0135998
0.0140453
0.0144104
0.0147293
0.0149569
0.0151005
0.0151776
0.0152128
0.0152229
0.0152141
0.0151891
0.0151205
0.015017
0.0150835
0.0154738
0.0162053
0.0173859
0.0192354
0.02213
0.0261112
0.0312554
0.0367114
)
;
    }
    lowerWall
    {
        type            kqRWallFunction;
        value           nonuniform List<scalar> 
62
(
0.00145258
0.0040161
0.00634862
0.00827033
0.0099007
0.0113223
0.0125778
0.0137037
0.0147256
0.015652
0.0164887
0.0172369
0.0178942
0.0184502
0.0188773
0.0191212
0.0190874
0.0185897
0.0174842
0.015977
0.0136698
0.00993826
0.00411194
0.00411194
0.00982629
0.0139487
0.0178362
0.02183
0.0265678
0.0336368
0.0462027
0.0444426
0.0402744
0.0419245
0.0477244
0.00378285
0.00817539
0.0106341
0.0127861
0.0150984
0.0181536
0.0234653
0.0347262
0.00378285
0.00891974
0.0125645
0.0141694
0.0145751
0.014273
0.0130059
0.010957
0.00902563
0.00867178
0.00883073
0.00870561
0.00831905
0.00815627
0.00835287
0.00794427
0.00646627
0.00431998
0.00236967
)
;
    }
    atmosphere
    {
        type            inletOutlet;
        inletValue      uniform 0.1;
        value           nonuniform List<scalar> 
46
(
0.0113536
0.0247002
0.0315692
0.0363049
0.0400018
0.0430933
0.0458063
0.0482809
0.0506166
0.0528951
0.0551953
0.0576081
0.0602545
0.0633148
0.06708
0.0720607
0.0792455
0.1
0.1
0.1
0.1
0.1
0.1
0.1
0.1
0.1
0.1
0.1
0.1
0.1
0.1
0.1
0.1
0.1
0.1
0.1
0.1
0.1
0.1
0.1
0.1
0.1
0.1
0.1
0.0713463
0.0367114
)
;
    }
    defaultFaces
    {
        type            empty;
    }
}


// ************************************************************************* //
