/*--------------------------------*- C++ -*----------------------------------*\
  =========                 |
  \\      /  F ield         | OpenFOAM: The Open Source CFD Toolbox
   \\    /   O peration     | Website:  https://openfoam.org
    \\  /    A nd           | Version:  9
     \\/     M anipulation  |
\*---------------------------------------------------------------------------*/
FoamFile
{
    format      ascii;
    class       volVectorField;
    location    "220";
    object      U;
}
// * * * * * * * * * * * * * * * * * * * * * * * * * * * * * * * * * * * * * //

dimensions      [0 1 -1 0 0 0 0];

internalField   nonuniform List<vector> 
12225
(
(9.85697 -0.886445 0)
(9.66664 -0.740746 0)
(9.45571 -0.429481 0)
(9.22452 -0.222213 0)
(9.00649 -0.106457 0)
(8.81437 -0.0458683 0)
(8.64747 -0.0151741 0)
(8.50528 0.000450728 0)
(8.38361 0.00838616 0)
(8.28084 0.0122795 0)
(8.19241 0.0139916 0)
(8.11622 0.0149973 0)
(8.04943 0.0153828 0)
(7.99037 0.0156073 0)
(7.93705 0.0155671 0)
(7.89042 0.0157912 0)
(7.83636 0.0163021 0)
(7.82661 0.0105029 0)
(10.0545 0.227567 0)
(10.121 0.326912 0)
(10.1196 0.261572 0)
(10.0856 0.186542 0)
(10.0434 0.13467 0)
(9.99672 0.101116 0)
(9.944 0.0792881 0)
(9.88525 0.0645684 0)
(9.82389 0.0542632 0)
(9.76137 0.0466773 0)
(9.6999 0.0409139 0)
(9.64007 0.0363696 0)
(9.58277 0.0327168 0)
(9.52837 0.0298653 0)
(9.47649 0.0274162 0)
(9.42899 0.0265629 0)
(9.38115 0.0238831 0)
(9.34738 0.0330535 0)
(10.0035 0.0579189 0)
(10.0303 0.0560086 0)
(10.0561 0.0337819 0)
(10.0703 0.032899 0)
(10.077 0.0406489 0)
(10.0778 0.046547 0)
(10.0725 0.0493621 0)
(10.0614 0.0503085 0)
(10.0461 0.0502086 0)
(10.0277 0.0494982 0)
(10.0072 0.0484595 0)
(9.98498 0.0473026 0)
(9.96184 0.0461293 0)
(9.93819 0.0450824 0)
(9.91426 0.0440584 0)
(9.89088 0.0437264 0)
(9.86752 0.0428545 0)
(9.84572 0.0451672 0)
(9.99779 0.0110543 0)
(10.011 0.0266104 0)
(10.035 0.0371537 0)
(10.0525 0.0480894 0)
(10.0644 0.0554568 0)
(10.0734 0.0581899 0)
(10.0795 0.0583609 0)
(10.0824 0.0576211 0)
(10.0828 0.0565755 0)
(10.0812 0.0553847 0)
(10.0781 0.0541203 0)
(10.0738 0.052902 0)
(10.0684 0.0517284 0)
(10.0623 0.0507087 0)
(10.0555 0.0497489 0)
(10.0486 0.0492635 0)
(10.0415 0.0485591 0)
(10.0345 0.048991 0)
(9.99935 0.00719897 0)
(10.009 0.0316574 0)
(10.0275 0.0439261 0)
(10.0418 0.0499276 0)
(10.0528 0.0536175 0)
(10.0629 0.0552433 0)
(10.0716 0.055525 0)
(10.0783 0.0552381 0)
(10.0834 0.0546989 0)
(10.0873 0.0540013 0)
(10.0901 0.0532014 0)
(10.092 0.0523961 0)
(10.0931 0.0516042 0)
(10.0938 0.0509048 0)
(10.0939 0.0502594 0)
(10.0939 0.0498667 0)
(10.0937 0.0494051 0)
(10.0937 0.0492855 0)
(10.0003 0.00917946 0)
(10.0083 0.0311735 0)
(10.0227 0.0409481 0)
(10.035 0.0453984 0)
(10.045 0.0490443 0)
(10.0548 0.0513807 0)
(10.0637 0.0523637 0)
(10.0714 0.0525999 0)
(10.0779 0.0524703 0)
(10.0834 0.0521137 0)
(10.0883 0.0516076 0)
(10.0924 0.0510414 0)
(10.0961 0.0504536 0)
(10.0993 0.0499012 0)
(10.1021 0.0493746 0)
(10.1048 0.0489562 0)
(10.1075 0.0484959 0)
(10.1102 0.0480327 0)
(10.0005 0.00894609 0)
(10.0071 0.0270895 0)
(10.0191 0.0364179 0)
(10.0302 0.0413963 0)
(10.0396 0.0454207 0)
(10.0487 0.0480872 0)
(10.0573 0.0493579 0)
(10.0649 0.0498301 0)
(10.0717 0.0499069 0)
(10.0778 0.0497354 0)
(10.0833 0.0493946 0)
(10.0884 0.0489635 0)
(10.093 0.0484876 0)
(10.0972 0.048007 0)
(10.1013 0.0475228 0)
(10.1051 0.0470589 0)
(10.1089 0.0465314 0)
(10.1128 0.0458716 0)
(10.0004 0.00791747 0)
(10.006 0.0233839 0)
(10.0161 0.0327408 0)
(10.0263 0.0381075 0)
(10.0351 0.0421033 0)
(10.0436 0.0447872 0)
(10.0517 0.0461993 0)
(10.0592 0.0468346 0)
(10.0659 0.0470592 0)
(10.0721 0.0470188 0)
(10.0779 0.0467932 0)
(10.0832 0.0464536 0)
(10.0882 0.0460475 0)
(10.0929 0.0456045 0)
(10.0974 0.0451279 0)
(10.1018 0.0446149 0)
(10.1061 0.0440089 0)
(10.1103 0.0432301 0)
(10.0004 0.00696199 0)
(10.0051 0.0204324 0)
(10.0137 0.0294596 0)
(10.0229 0.034868 0)
(10.0312 0.0387194 0)
(10.0391 0.0413815 0)
(10.0468 0.0429141 0)
(10.054 0.0436888 0)
(10.0606 0.0440298 0)
(10.0667 0.0440881 0)
(10.0725 0.0439455 0)
(10.0779 0.0436685 0)
(10.083 0.0433033 0)
(10.0879 0.0428743 0)
(10.0926 0.0423846 0)
(10.0971 0.0418224 0)
(10.1016 0.0411446 0)
(10.106 0.0402921 0)
(10.0004 0.00613131 0)
(10.0043 0.0178677 0)
(10.0116 0.0262826 0)
(10.0199 0.0315889 0)
(10.0276 0.035314 0)
(10.0351 0.0379402 0)
(10.0424 0.039552 0)
(10.0493 0.0404293 0)
(10.0557 0.0408566 0)
(10.0617 0.0409876 0)
(10.0674 0.0409047 0)
(10.0728 0.0406704 0)
(10.0779 0.0403278 0)
(10.0828 0.0398996 0)
(10.0875 0.0393887 0)
(10.0921 0.0387831 0)
(10.0965 0.0380502 0)
(10.1009 0.0371562 0)
(10.0003 0.0053715 0)
(10.0037 0.0155589 0)
(10.0099 0.0232451 0)
(10.0173 0.0283537 0)
(10.0245 0.0319366 0)
(10.0315 0.0344859 0)
(10.0384 0.0361225 0)
(10.045 0.0370633 0)
(10.0512 0.0375507 0)
(10.057 0.0377333 0)
(10.0626 0.0376929 0)
(10.0679 0.0374873 0)
(10.0729 0.0371572 0)
(10.0778 0.036724 0)
(10.0825 0.0361925 0)
(10.087 0.0355539 0)
(10.0914 0.0347859 0)
(10.0956 0.033875 0)
(10.0003 0.00470637 0)
(10.0032 0.0136179 0)
(10.0086 0.0205988 0)
(10.0152 0.025442 0)
(10.0219 0.0288587 0)
(10.0285 0.0313022 0)
(10.035 0.0329193 0)
(10.0414 0.0338861 0)
(10.0474 0.0344064 0)
(10.0531 0.0346191 0)
(10.0585 0.034604 0)
(10.0637 0.034415 0)
(10.0687 0.0340905 0)
(10.0734 0.0336517 0)
(10.078 0.0331055 0)
(10.0824 0.0324477 0)
(10.0867 0.0316639 0)
(10.0908 0.0307568 0)
(10.0003 0.00409161 0)
(10.0028 0.0118492 0)
(10.0075 0.0180999 0)
(10.0134 0.0226015 0)
(10.0197 0.0258176 0)
(10.0259 0.0281298 0)
(10.032 0.0296947 0)
(10.0381 0.0306602 0)
(10.0439 0.0311949 0)
(10.0494 0.0314242 0)
(10.0547 0.0314243 0)
(10.0598 0.0312459 0)
(10.0646 0.0309249 0)
(10.0693 0.0304826 0)
(10.0738 0.0299281 0)
(10.0781 0.029262 0)
(10.0822 0.0284765 0)
(10.0862 0.0275864 0)
(10.0002 0.00345657 0)
(10.0024 0.0100107 0)
(10.0064 0.0154193 0)
(10.0117 0.0194544 0)
(10.0174 0.0223861 0)
(10.0232 0.0245071 0)
(10.029 0.0259691 0)
(10.0347 0.0268953 0)
(10.0403 0.0274193 0)
(10.0456 0.0276482 0)
(10.0507 0.0276523 0)
(10.0557 0.0274782 0)
(10.0604 0.0271589 0)
(10.0649 0.0267155 0)
(10.0693 0.0261595 0)
(10.0735 0.0254961 0)
(10.0775 0.0247237 0)
(10.0813 0.0238656 0)
(10.0002 0.00279719 0)
(10.002 0.00810106 0)
(10.0055 0.0125673 0)
(10.0101 0.0160059 0)
(10.0153 0.0185512 0)
(10.0206 0.0204054 0)
(10.026 0.0217001 0)
(10.0314 0.0225352 0)
(10.0367 0.0230116 0)
(10.0418 0.0232151 0)
(10.0468 0.0232065 0)
(10.0515 0.0230274 0)
(10.0561 0.0227071 0)
(10.0605 0.022266 0)
(10.0647 0.0217174 0)
(10.0687 0.0210704 0)
(10.0726 0.0203279 0)
(10.0762 0.0195183 0)
(10.0002 0.00211277 0)
(10.0017 0.00612225 0)
(10.0047 0.00955228 0)
(10.0087 0.0122607 0)
(10.0134 0.0143003 0)
(10.0183 0.0157949 0)
(10.0233 0.0168433 0)
(10.0283 0.0175211 0)
(10.0333 0.0178998 0)
(10.0382 0.0180428 0)
(10.0429 0.0179983 0)
(10.0475 0.0178005 0)
(10.0519 0.0174746 0)
(10.0561 0.0170389 0)
(10.0601 0.0165072 0)
(10.064 0.0158903 0)
(10.0677 0.0151943 0)
(10.0712 0.0144484 0)
(10.0002 0.0014003 0)
(10.0015 0.00406009 0)
(10.0041 0.0063578 0)
(10.0076 0.00820165 0)
(10.0118 0.00960477 0)
(10.0163 0.0106314 0)
(10.0209 0.011342 0)
(10.0256 0.0117854 0)
(10.0303 0.0120064 0)
(10.035 0.0120457 0)
(10.0395 0.0119362 0)
(10.0439 0.0117026 0)
(10.0481 0.011364 0)
(10.0521 0.0109351 0)
(10.056 0.010428 0)
(10.0597 0.00985323 0)
(10.0632 0.00921711 0)
(10.0666 0.0085473 0)
(10.0001 0.000643354 0)
(10.0013 0.00186258 0)
(10.0036 0.00291156 0)
(10.0069 0.00374851 0)
(10.0107 0.00437376 0)
(10.0148 0.00480965 0)
(10.0192 0.00507902 0)
(10.0237 0.00520166 0)
(10.0281 0.00519683 0)
(10.0325 0.00508267 0)
(10.0368 0.00487456 0)
(10.041 0.00458501 0)
(10.0451 0.00422438 0)
(10.0489 0.00380167 0)
(10.0526 0.00332486 0)
(10.0562 0.00280174 0)
(10.0595 0.00223702 0)
(10.0628 0.00165405 0)
(10.0001 -0.000201235 0)
(10.0012 -0.00059243 0)
(10.0035 -0.000959883 0)
(10.0066 -0.00129138 0)
(10.0102 -0.00158625 0)
(10.0143 -0.00185862 0)
(10.0185 -0.00212629 0)
(10.0228 -0.00240146 0)
(10.0271 -0.00269146 0)
(10.0314 -0.00300198 0)
(10.0356 -0.00333732 0)
(10.0396 -0.00369993 0)
(10.0435 -0.00409043 0)
(10.0472 -0.00450818 0)
(10.0508 -0.00495156 0)
(10.0542 -0.00541781 0)
(10.0575 -0.00590568 0)
(10.0606 -0.00639845 0)
(10.0001 -0.00100924 0)
(10.0013 -0.00294836 0)
(10.0037 -0.00468156 0)
(10.007 -0.00612689 0)
(10.0108 -0.00728098 0)
(10.015 -0.00820368 0)
(10.0193 -0.00895636 0)
(10.0237 -0.00958099 0)
(10.0281 -0.0101119 0)
(10.0323 -0.0105805 0)
(10.0365 -0.0110116 0)
(10.0405 -0.0114219 0)
(10.0443 -0.0118224 0)
(10.048 -0.0122204 0)
(10.0516 -0.0126209 0)
(10.0549 -0.013026 0)
(10.0581 -0.0134381 0)
(10.0611 -0.0138463 0)
(10.0002 -0.00170606 0)
(10.0015 -0.00500599 0)
(10.0041 -0.00793405 0)
(10.0078 -0.0102874 0)
(10.012 -0.0120869 0)
(10.0165 -0.0134826 0)
(10.021 -0.0145807 0)
(10.0255 -0.015438 0)
(10.03 -0.0161114 0)
(10.0344 -0.0166594 0)
(10.0386 -0.0171264 0)
(10.0426 -0.017541 0)
(10.0465 -0.0179223 0)
(10.0502 -0.0182839 0)
(10.0537 -0.0186351 0)
(10.057 -0.0189813 0)
(10.0602 -0.0193266 0)
(10.0632 -0.0196642 0)
(10.0002 -0.00236784 0)
(10.0017 -0.00703928 0)
(10.0047 -0.011184 0)
(10.009 -0.0143557 0)
(10.0137 -0.0166542 0)
(10.0185 -0.0183901 0)
(10.0234 -0.019723 0)
(10.0282 -0.020724 0)
(10.0329 -0.0214743 0)
(10.0374 -0.0220551 0)
(10.0416 -0.0225228 0)
(10.0457 -0.022914 0)
(10.0496 -0.023255 0)
(10.0533 -0.0235655 0)
(10.0568 -0.0238582 0)
(10.0602 -0.024141 0)
(10.0633 -0.0244191 0)
(10.0663 -0.0246884 0)
(10.0002 -0.00298725 0)
(10.0018 -0.00909834 0)
(10.0054 -0.0144561 0)
(10.0105 -0.0183476 0)
(10.0159 -0.0210939 0)
(10.0211 -0.0231183 0)
(10.0263 -0.024576 0)
(10.0314 -0.025592 0)
(10.0363 -0.0263206 0)
(10.0409 -0.0268717 0)
(10.0453 -0.0273017 0)
(10.0495 -0.0276462 0)
(10.0534 -0.0279345 0)
(10.0571 -0.0281889 0)
(10.0607 -0.0284236 0)
(10.064 -0.0286469 0)
(10.0671 -0.0288643 0)
(10.0701 -0.0290734 0)
(10.0001 -0.00353328 0)
(10.0018 -0.0115525 0)
(10.0063 -0.0178913 0)
(10.0123 -0.0219914 0)
(10.0183 -0.0250608 0)
(10.024 -0.0274724 0)
(10.0297 -0.0291126 0)
(10.0351 -0.0301245 0)
(10.0401 -0.0307787 0)
(10.0449 -0.0312399 0)
(10.0494 -0.0315758 0)
(10.0536 -0.0318267 0)
(10.0576 -0.0320267 0)
(10.0614 -0.0321994 0)
(10.0649 -0.0323585 0)
(10.0682 -0.0325111 0)
(10.0713 -0.0326609 0)
(10.0743 -0.0328044 0)
(9.99991 -0.00338192 0)
(10.0016 -0.0149693 0)
(10.0073 -0.0227294 0)
(10.0142 -0.0262433 0)
(10.0206 -0.0288324 0)
(10.0268 -0.0311997 0)
(10.0331 -0.0329229 0)
(10.039 -0.0340125 0)
(10.0444 -0.0347138 0)
(10.0494 -0.0351789 0)
(10.0541 -0.0354783 0)
(10.0584 -0.0356661 0)
(10.0623 -0.0357885 0)
(10.066 -0.0358762 0)
(10.0694 -0.0359475 0)
(10.0726 -0.0360121 0)
(10.0755 -0.0360748 0)
(10.0783 -0.0361343 0)
(9.9986 -0.000398943 0)
(9.99909 -0.0157574 0)
(10.0075 -0.0274322 0)
(10.0166 -0.0324949 0)
(10.0238 -0.0348729 0)
(10.0306 -0.0362302 0)
(10.0376 -0.0369833 0)
(10.0441 -0.0374513 0)
(10.0499 -0.037801 0)
(10.055 -0.0380492 0)
(10.0595 -0.0381951 0)
(10.0636 -0.0382639 0)
(10.0672 -0.0382854 0)
(10.0703 -0.038281 0)
(10.0731 -0.0382659 0)
(10.0755 -0.0382483 0)
(10.0777 -0.0382321 0)
(10.0795 -0.0382155 0)
(9.99488 0.001335 0)
(9.99288 -0.00809326 0)
(10.006 -0.0203532 0)
(10.0202 -0.0322792 0)
(10.0307 -0.0404822 0)
(10.0392 -0.0441545 0)
(10.0467 -0.0450676 0)
(10.0529 -0.0449237 0)
(10.0578 -0.0444575 0)
(10.0616 -0.0438625 0)
(10.0646 -0.0432184 0)
(10.0668 -0.0425822 0)
(10.0682 -0.0419881 0)
(10.0691 -0.0414444 0)
(10.0694 -0.0409607 0)
(10.0693 -0.0405335 0)
(10.0688 -0.04016 0)
(10.068 -0.0398146 0)
(9.99473 -0.0305617 0)
(9.99925 -0.0228724 0)
(10.0147 -0.00263664 0)
(10.0304 -0.00191135 0)
(10.0434 -0.0116614 0)
(10.0533 -0.0209256 0)
(10.0594 -0.027283 0)
(10.0619 -0.0315112 0)
(10.0615 -0.0342864 0)
(10.0591 -0.0359831 0)
(10.055 -0.0369152 0)
(10.0497 -0.037349 0)
(10.0435 -0.0374749 0)
(10.0365 -0.0374125 0)
(10.0289 -0.0372524 0)
(10.021 -0.0370497 0)
(10.0128 -0.0368692 0)
(10.0046 -0.0366798 0)
(10.0273 -0.182758 0)
(10.0763 -0.288314 0)
(10.0871 -0.247756 0)
(10.0777 -0.186521 0)
(10.0664 -0.140298 0)
(10.0537 -0.108224 0)
(10.0365 -0.085884 0)
(10.0145 -0.0704242 0)
(9.98938 -0.0596554 0)
(9.96234 -0.0518816 0)
(9.93437 -0.0460595 0)
(9.90605 -0.0415621 0)
(9.87787 -0.0380062 0)
(9.85016 -0.0351312 0)
(9.82317 -0.032765 0)
(9.797 -0.0308442 0)
(9.77191 -0.0293276 0)
(9.74791 -0.0285083 0)
(9.93574 0.689319 0)
(9.86861 0.609605 0)
(9.76453 0.380623 0)
(9.62664 0.217441 0)
(9.48589 0.119266 0)
(9.3572 0.0631855 0)
(9.24267 0.0315739 0)
(9.14112 0.0136141 0)
(9.05144 0.00326098 0)
(8.97246 -0.00280032 0)
(8.90255 -0.00635587 0)
(8.84038 -0.0084752 0)
(8.78468 -0.00972598 0)
(8.73457 -0.0104723 0)
(8.68914 -0.0109754 0)
(8.64779 -0.0112446 0)
(8.6096 -0.0114516 0)
(8.57426 -0.012112 0)
(0.00618718 -0.0144934 -8.31993e-19)
(0.0190112 -0.0191142 6.26004e-19)
(0.0282409 -0.0135383 0)
(0.032369 -0.00481781 0)
(0.0306277 0.00351642 0)
(0.0239934 0.00995407 -2.88298e-19)
(0.0136971 0.014298 0)
(0.000752619 0.0169566 0)
(-0.0140536 0.0184831 0)
(-0.0302318 0.0193712 0)
(-0.0474864 0.0199498 1.55179e-19)
(-0.0656256 0.0203869 0)
(-0.084542 0.0207526 0)
(-0.104167 0.0210624 0)
(-0.124448 0.0213125 0)
(-0.145338 0.0215023 9.62508e-20)
(-0.166791 0.0216512 0)
(-0.188762 0.0218059 0)
(-0.211229 0.0220321 0)
(-0.234198 0.0224236 0)
(-0.257718 0.0231317 0)
(-0.281881 0.0242438 0)
(-0.30679 0.0256738 0)
(-0.332489 0.0272779 6.54595e-20)
(-0.359066 0.028895 -6.43257e-20)
(-0.386773 0.0301556 6.35206e-20)
(-0.415856 0.0306534 6.2863e-20)
(-0.446222 0.0304151 0)
(-0.477294 0.0242737 0)
(-0.508397 0.0112886 -5.81185e-20)
(-0.536911 0.00582332 -5.5474e-20)
(-0.564077 0.00880769 0)
(-0.594394 0.0193545 0)
(-0.626277 0.0444874 -4.66889e-20)
(-0.663255 0.0685861 0)
(-0.705137 0.0792903 0)
(-0.747508 0.0849938 4.45334e-20)
(-0.787052 0.102414 0)
(-0.827337 0.0773951 6.0089e-20)
(-0.866576 0.0288146 1.28555e-19)
(-0.897538 0.0304363 0)
(-0.933408 0.0324207 0)
(-0.971147 0.0337996 0)
(-1.01003 0.0343145 0)
(-1.04938 0.0344493 0)
(-1.08896 0.0343823 1.06627e-19)
(-1.12863 0.0342138 1.03766e-19)
(-1.16831 0.0339835 1.01084e-19)
(-1.20796 0.0337166 0)
(-1.24754 0.0334261 -9.61927e-20)
(-1.28702 0.0331196 0)
(-1.32639 0.0328019 9.18444e-20)
(-1.36563 0.0324751 8.98454e-20)
(-1.40473 0.0321407 0)
(-1.44367 0.031798 0)
(-1.48245 0.0314472 0)
(-1.52103 0.031087 8.2804e-20)
(-1.55941 0.0307169 0)
(-1.59757 0.030335 0)
(-1.63549 0.0299407 0)
(-1.67313 0.0295323 0)
(-1.71049 0.0291092 0)
(-1.74753 0.0286698 0)
(-1.78423 0.0282135 0)
(-1.82055 0.0277389 0)
(-1.85647 0.0272457 -7.08297e-20)
(-1.89195 0.026733 0)
(-1.92696 0.0262006 0)
(-1.96147 0.0256479 6.76064e-20)
(-1.99544 0.025075 6.65896e-20)
(-2.02884 0.0244814 0)
(-2.06163 0.0238674 -6.46275e-20)
(-2.09376 0.0232328 6.36775e-20)
(-2.12521 0.0225779 0)
(-2.15594 0.021903 -6.18287e-20)
(-2.1859 0.0212084 0)
(-2.21506 0.0204952 0)
(-2.24339 0.0197639 5.91541e-20)
(-2.27083 0.0190151 0)
(-2.29736 0.0182491 -5.74156e-20)
(-2.32293 0.0174672 0)
(-2.3475 0.0166696 5.56968e-20)
(-2.37105 0.0158571 5.48408e-20)
(-2.39352 0.0150296 5.39849e-20)
(-2.41489 0.0141878 1.06256e-19)
(-2.43511 0.0133306 -1.04537e-19)
(-2.45415 0.0124569 0)
(-2.47195 0.0115608 0)
(-2.48847 0.0106344 0)
(-2.50367 0.00966359 -9.75662e-20)
(-2.51749 0.00863228 -9.57864e-20)
(-2.52991 0.00753264 9.39863e-20)
(-2.54084 0.00636884 0)
(-2.55023 0.00515807 -9.03221e-20)
(-2.55799 0.00392593 -8.84603e-20)
(-2.56402 0.00270825 -8.658e-20)
(-2.56819 0.0015516 0)
(-2.57041 0.000513299 0)
(-2.57101 -0.000411767 0)
(-2.5701 -0.00128776 -7.86604e-20)
(-2.56767 -0.00215247 0)
(-2.56372 -0.00301528 0)
(-2.55823 -0.00387912 7.22061e-20)
(-2.55119 -0.00474506 0)
(-2.54257 -0.00561161 0)
(-2.53234 -0.0064798 6.52435e-20)
(-2.52049 -0.00734758 0)
(-2.507 -0.00821695 0)
(-2.49186 -0.00908591 -5.76861e-20)
(-2.47503 -0.00995689 -5.50178e-20)
(-2.45652 -0.0108275 0)
(-2.4363 -0.0117003 4.94333e-20)
(-2.41437 -0.0125725 0)
(-2.39072 -0.0134464 -4.34876e-20)
(-2.36533 -0.0143193 0)
(-2.3382 -0.0151936 -3.71403e-20)
(-2.30934 -0.0160668 -3.38019e-20)
(-2.27872 -0.0169408 0)
(-2.24636 -0.017813 0)
(-2.21227 -0.0186846 0)
(-2.17645 -0.0195536 0)
(-2.13891 -0.0204209 0)
(-2.09966 -0.0212848 0)
(-2.05871 -0.0221467 0)
(-2.01607 -0.0230052 -2.23358e-21)
(-1.97177 -0.0238626 -2.4461e-21)
(-1.92583 -0.0247214 0)
(-1.87826 -0.0255682 0)
(-1.8291 -0.0263988 0)
(-1.77839 -0.0272266 0)
(-1.72617 -0.0280516 -5.81004e-20)
(-1.67247 -0.028868 0)
(-1.61737 -0.0296711 8.28756e-20)
(-1.56089 -0.0304599 -9.61433e-20)
(-1.50312 -0.0312352 0)
(-1.4441 -0.0319933 0)
(-1.38391 -0.0327362 0)
(-1.32262 -0.033459 1.55988e-19)
(-1.26031 -0.0341625 1.72867e-19)
(-1.19706 -0.0348395 0)
(-1.13294 -0.0354874 2.09309e-19)
(-1.06801 -0.036099 2.29002e-19)
(-1.00238 -0.0366718 -2.49773e-19)
(-0.936127 -0.0372036 0)
(-0.869362 -0.0376934 0)
(-0.802185 -0.0381396 -3.19367e-19)
(-0.734699 -0.038541 0)
(-0.667006 -0.0388961 0)
(-0.599212 -0.0392045 0)
(-0.531421 -0.0394649 0)
(-0.463737 -0.0396785 4.66055e-19)
(-0.396264 -0.0398436 5.01265e-19)
(-0.3291 -0.0399637 0)
(-0.262352 -0.04004 5.79104e-19)
(-0.196106 -0.0400776 0)
(-0.130438 -0.0400894 0)
(-0.0654855 -0.0400514 7.18702e-19)
(-0.00104997 -0.0396139 0)
(0.0629215 -0.0385163 7.44001e-19)
(0.126099 -0.0371121 0)
(0.188213 -0.035685 0)
(0.249181 -0.034301 6.94702e-19)
(0.308954 -0.0329699 0)
(0.367517 -0.0316912 6.68521e-19)
(0.424862 -0.0304616 0)
(0.480988 -0.0292774 0)
(0.535897 -0.0281358 0)
(0.589596 -0.0270344 -6.2623e-19)
(0.64209 -0.0259701 0)
(0.693386 -0.0249389 6.08558e-19)
(0.743483 -0.0239336 0)
(0.792366 -0.0229443 0)
(0.839991 -0.0219533 0)
(0.886246 -0.0209316 0)
(0.930959 -0.0198196 0)
(0.973492 -0.0185035 0)
(1.01358 -0.0167097 0)
(1.04602 -0.0137315 -1.1157e-18)
(1.07693 -0.00778479 0)
(1.05062 0.00854756 0)
(0.00456477 -0.0383763 1.85818e-18)
(0.00853372 -0.0311694 -8.84775e-19)
(0.00661809 -0.0148001 0)
(0.00160134 0.00132283 2.7166e-19)
(-0.00591277 0.0155608 0)
(-0.0158491 0.0272112 1.01722e-19)
(-0.0280911 0.036172 -1.84864e-19)
(-0.042477 0.0427752 -1.69891e-19)
(-0.058767 0.0475573 0)
(-0.0766844 0.0510645 -1.45769e-19)
(-0.0959828 0.0537387 -6.79892e-20)
(-0.116469 0.0558875 0)
(-0.138003 0.057703 0)
(-0.160489 0.0592946 0)
(-0.18387 0.0607198 0)
(-0.208121 0.0620099 -5.11586e-20)
(-0.233238 0.0631876 0)
(-0.259235 0.0642795 9.38911e-20)
(-0.286147 0.0653219 0)
(-0.314023 0.0663644 0)
(-0.342908 0.0674714 -8.50324e-20)
(-0.372837 0.0687125 0)
(-0.403833 0.0701432 8.12397e-20)
(-0.43593 0.0718068 -3.99781e-20)
(-0.469205 0.0737112 3.94919e-20)
(-0.503648 0.0757902 -3.91498e-20)
(-0.539078 0.0779234 -3.88901e-20)
(-0.574884 0.0799405 0)
(-0.611493 0.0812658 0)
(-0.649703 0.0817555 3.68849e-20)
(-0.688961 0.0826416 -3.55747e-20)
(-0.72991 0.0835494 0)
(-0.771111 0.0843258 0)
(-0.810939 0.0860537 3.18916e-20)
(-0.849524 0.0873047 0)
(-0.887648 0.0863789 0)
(-0.925936 0.0846605 -3.17782e-20)
(-0.964002 0.0838387 0)
(-1.00401 0.0840475 3.24877e-20)
(-1.04579 0.0851854 -6.48216e-20)
(-1.08855 0.0872269 0)
(-1.12817 0.0883371 0)
(-1.16617 0.0886861 -1.20372e-19)
(-1.20337 0.0885263 -1.17799e-19)
(-1.24011 0.0880279 -1.15355e-19)
(-1.27653 0.0873264 5.63551e-20)
(-1.31269 0.0865003 -5.55713e-20)
(-1.3486 0.0855976 -1.63246e-19)
(-1.38428 0.0846457 1.06726e-19)
(-1.41972 0.0836616 5.25607e-20)
(-1.45492 0.082654 0)
(-1.48988 0.0816286 -5.07724e-20)
(-1.52459 0.0805869 4.96334e-20)
(-1.55904 0.0795299 0)
(-1.59321 0.0784558 0)
(-1.62711 0.0773636 0)
(-1.6607 0.0762503 -4.68838e-20)
(-1.69398 0.0751143 0)
(-1.72692 0.0739522 9.07349e-20)
(-1.75952 0.0727622 0)
(-1.79174 0.0715413 8.81564e-20)
(-1.82356 0.070288 0)
(-1.85497 0.0689997 -8.57145e-20)
(-1.88593 0.067675 0)
(-1.91642 0.066312 8.33866e-20)
(-1.94642 0.0649097 -4.10012e-20)
(-1.97589 0.0634671 0)
(-2.00481 0.0619836 -8.00637e-20)
(-2.03315 0.0604588 -3.96155e-20)
(-2.06088 0.0588926 -3.90835e-20)
(-2.08797 0.0572849 0)
(-2.11439 0.0556363 -3.78176e-20)
(-2.14011 0.053947 -3.75198e-20)
(-2.16509 0.0522176 0)
(-2.18932 0.050449 3.64947e-20)
(-2.21275 0.0486422 -7.17814e-20)
(-2.23535 0.0467987 0)
(-2.2571 0.0449199 -3.49662e-20)
(-2.27796 0.0430073 0)
(-2.2979 0.041062 1.01679e-19)
(-2.31689 0.0390857 0)
(-2.3349 0.0370794 -9.8603e-20)
(-2.3519 0.0350444 -3.23914e-20)
(-2.36785 0.0329805 3.17513e-20)
(-2.38273 0.0308895 6.24621e-20)
(-2.39651 0.0287716 -6.14105e-20)
(-2.40915 0.0266299 0)
(-2.42063 0.0244661 0)
(-2.43092 0.0222833 0)
(-2.43999 0.0200796 1.71419e-19)
(-2.44782 0.0178479 5.60281e-20)
(-2.4544 0.015578 -5.4864e-20)
(-2.45971 0.0132598 0)
(-2.46374 0.0108881 -5.24827e-20)
(-2.46654 0.00846648 5.126e-20)
(-2.46814 0.00601995 5.00248e-20)
(-2.46864 0.00360335 0)
(-2.46814 0.00129288 0)
(-2.46639 -0.000906522 0)
(-2.46323 -0.00305134 4.4782e-20)
(-2.4586 -0.00517522 0)
(-2.45248 -0.00728946 -8.41975e-20)
(-2.44483 -0.00939777 -1.21952e-19)
(-2.43564 -0.0115003 7.84916e-20)
(-2.42489 -0.0135946 0)
(-2.41254 -0.0156795 3.64284e-20)
(-2.39859 -0.0177518 0)
(-2.383 -0.0198115 6.6402e-20)
(-2.36576 -0.0218558 -3.18021e-20)
(-2.34686 -0.0238854 -3.01971e-20)
(-2.32629 -0.0258971 0)
(-2.30402 -0.0278914 -7.97338e-20)
(-2.28004 -0.0298645 4.98665e-20)
(-2.25436 -0.0318165 2.29135e-20)
(-2.22695 -0.0337429 0)
(-2.19781 -0.0356437 1.92536e-20)
(-2.16695 -0.0375145 5.27088e-20)
(-2.13435 -0.0393548 0)
(-2.10001 -0.0411607 2.76038e-20)
(-2.06395 -0.0429315 2.36062e-20)
(-2.02618 -0.0446636 1.95206e-20)
(-1.9867 -0.0463555 0)
(-1.94552 -0.0480018 0)
(-1.90266 -0.0496007 0)
(-1.85814 -0.0511478 -1.56138e-21)
(-1.81197 -0.0526448 1.61077e-21)
(-1.76417 -0.0540914 0)
(-1.71478 -0.0554889 1.17535e-20)
(-1.66383 -0.0568301 1.66337e-20)
(-1.61135 -0.0581012 0)
(-1.55739 -0.0592976 2.78104e-20)
(-1.50199 -0.0604309 6.3894e-20)
(-1.44521 -0.0614992 -3.84241e-20)
(-1.3871 -0.0624912 -4.15461e-20)
(-1.32772 -0.0634054 0)
(-1.26714 -0.0642392 0)
(-1.20543 -0.0649938 0)
(-1.14267 -0.0656667 -6.70292e-20)
(-1.07894 -0.0662579 7.0433e-20)
(-1.01432 -0.0667627 1.55884e-19)
(-0.948887 -0.0671748 -8.56274e-20)
(-0.882724 -0.0674893 8.92287e-20)
(-0.815921 -0.0677011 9.86218e-20)
(-0.74858 -0.0678121 0)
(-0.680804 -0.0678208 0)
(-0.6127 -0.067731 -1.15972e-19)
(-0.544373 -0.0675417 0)
(-0.475932 -0.0672571 0)
(-0.407484 -0.0668775 2.77465e-19)
(-0.339138 -0.066407 0)
(-0.270999 -0.0658484 1.51842e-19)
(-0.203172 -0.0652056 -1.62382e-19)
(-0.135754 -0.064477 0)
(-0.0688473 -0.0636723 1.74435e-19)
(-0.0024734 -0.0628201 0)
(0.0633116 -0.0619403 0)
(0.128364 -0.0610315 -1.89765e-19)
(0.192517 -0.0599538 3.81689e-19)
(0.255572 -0.0585362 -1.94763e-19)
(0.317505 -0.0568851 0)
(0.378366 -0.0551668 0)
(0.438153 -0.0534508 1.99597e-19)
(0.496834 -0.0517582 0)
(0.554393 -0.0500982 2.03965e-19)
(0.610821 -0.0484736 0)
(0.666118 -0.0468873 0)
(0.720288 -0.0453405 0)
(0.77334 -0.0438344 2.12976e-19)
(0.825284 -0.0423674 0)
(0.876132 -0.0409353 -2.15553e-19)
(0.925886 -0.0395283 0)
(0.974537 -0.0381297 0)
(1.02205 -0.0367073 4.35384e-19)
(1.06833 -0.0352037 -4.36949e-19)
(1.11321 -0.0335024 0)
(1.15622 -0.031385 0)
(1.19702 -0.0282864 0)
(1.23269 -0.0231479 1.33279e-18)
(1.26637 -0.0123679 0)
(1.27967 0.011965 -9.17911e-19)
(-0.00173336 -0.0418817 -9.38616e-22)
(-0.00634453 -0.0207856 8.43658e-19)
(-0.0144377 0.00121505 0)
(-0.0246627 0.020858 -3.38427e-19)
(-0.0363277 0.0380122 0)
(-0.0491802 0.0526517 0)
(-0.0633051 0.0647983 2.65828e-23)
(-0.0788289 0.0746256 1.0536e-19)
(-0.0958023 0.0824635 9.9237e-20)
(-0.114194 0.0887204 9.40668e-20)
(-0.133923 0.0937986 0)
(-0.154891 0.09804 0)
(-0.177006 0.101706 -8.17215e-20)
(-0.200198 0.10498 -1.56854e-19)
(-0.22442 0.107987 1.50936e-19)
(-0.249652 0.110813 0)
(-0.275888 0.113523 1.40862e-19)
(-0.303139 0.116175 -6.82969e-20)
(-0.331419 0.118831 0)
(-0.360741 0.121557 1.29449e-19)
(-0.391103 0.124423 6.32183e-20)
(-0.422471 0.127486 -1.23945e-19)
(-0.454778 0.130766 -6.0807e-20)
(-0.487934 0.134243 0)
(-0.521823 0.137842 1.17871e-19)
(-0.556291 0.141389 1.15926e-19)
(-0.591163 0.144583 0)
(-0.626273 0.147086 1.11292e-19)
(-0.661755 0.148489 0)
(-0.697952 0.148779 1.05002e-19)
(-0.734828 0.149046 5.09862e-20)
(-0.772147 0.14984 0)
(-0.809224 0.151042 0)
(-0.845313 0.153244 0)
(-0.879966 0.155376 0)
(-0.913385 0.155755 0)
(-0.946265 0.154789 0)
(-0.978966 0.153466 8.92406e-20)
(-1.01209 0.150426 -1.32e-19)
(-1.04626 0.146606 0)
(-1.08092 0.144383 0)
(-1.11498 0.142816 0)
(-1.14841 0.141417 1.94263e-22)
(-1.18134 0.139988 7.97792e-20)
(-1.21392 0.138481 1.56374e-19)
(-1.24622 0.136905 -1.53501e-19)
(-1.27831 0.135276 -7.52922e-20)
(-1.31021 0.133609 7.41421e-20)
(-1.34194 0.131915 -1.66029e-22)
(-1.37351 0.1302 7.15005e-20)
(-1.40491 0.128468 0)
(-1.43613 0.126719 6.92113e-20)
(-1.46718 0.124951 -1.67449e-22)
(-1.49803 0.123163 0)
(-1.52869 0.121351 0)
(-1.55913 0.11951 -6.50898e-20)
(-1.58933 0.117638 0)
(-1.6193 0.115729 0)
(-1.64899 0.113781 6.21492e-20)
(-1.6784 0.111788 1.22876e-19)
(-1.70751 0.109748 -6.07446e-20)
(-1.73628 0.107658 0)
(-1.7647 0.105514 5.90842e-20)
(-1.79275 0.103315 0)
(-1.8204 0.101057 5.71774e-20)
(-1.84761 0.098741 5.67059e-20)
(-1.87437 0.0963641 -1.11577e-19)
(-1.90065 0.0939261 -5.48876e-20)
(-1.92642 0.0914265 0)
(-1.95164 0.0888655 1.0709e-19)
(-1.9763 0.0862433 0)
(-2.00035 0.0835606 1.56376e-19)
(-2.02377 0.0808183 1.02713e-19)
(-2.04653 0.0780175 1.01268e-19)
(-2.06859 0.0751598 -9.98258e-20)
(-2.08993 0.0722469 1.47688e-19)
(-2.11052 0.0692809 0)
(-2.13032 0.0662639 0)
(-2.1493 0.0631982 -9.40494e-20)
(-2.16743 0.0600858 -1.3898e-19)
(-2.18468 0.0569292 0)
(-2.20102 0.0537303 4.4906e-20)
(-2.21642 0.0504915 0)
(-2.23084 0.047214 -1.30078e-19)
(-2.24427 0.0439003 -1.15987e-22)
(-2.25666 0.0405518 1.02508e-22)
(-2.268 0.0371713 8.20926e-20)
(-2.27825 0.0337612 0)
(-2.28739 0.0303247 -7.89477e-20)
(-2.29539 0.0268635 -4.8069e-23)
(-2.30224 0.023379 0)
(-2.30792 0.0198739 0)
(-2.31243 0.0163549 0)
(-2.31576 0.0128334 7.07068e-20)
(-2.3179 0.00932751 0)
(-2.31884 0.00585782 0)
(-2.31856 0.00243561 0)
(-2.31699 -0.000960057 0)
(-2.31409 -0.00435326 0)
(-2.30979 -0.00774351 5.98744e-20)
(-2.30406 -0.0111272 0)
(-2.29689 -0.0145031 5.58763e-20)
(-2.28824 -0.0178701 5.38873e-20)
(-2.27808 -0.0212252 -5.18681e-20)
(-2.2664 -0.0245656 0)
(-2.25317 -0.0278872 -4.77369e-20)
(-2.23837 -0.0311875 0)
(-2.22198 -0.0344633 -4.34771e-20)
(-2.20399 -0.037713 4.12974e-20)
(-2.18438 -0.0409336 1.17809e-19)
(-2.16313 -0.0441233 0)
(-2.14023 -0.0472787 1.04285e-19)
(-2.11566 -0.0503974 3.28988e-20)
(-2.08943 -0.0534754 0)
(-2.06151 -0.0565094 5.57057e-20)
(-2.03191 -0.0594952 5.08811e-20)
(-2.00062 -0.0624288 -6.85628e-20)
(-1.96764 -0.0653059 0)
(-1.93296 -0.0681226 -1.75273e-20)
(-1.8966 -0.0708751 -1.49406e-20)
(-1.85857 -0.073559 -3.79088e-20)
(-1.81886 -0.0761696 0)
(-1.77751 -0.0787008 0)
(-1.73451 -0.0811475 0)
(-1.68989 -0.083505 -2.51829e-21)
(-1.64367 -0.0857717 0)
(-1.59587 -0.0879471 0)
(-1.54652 -0.0900297 -7.22676e-21)
(-1.49566 -0.0920111 -1.01866e-20)
(-1.44333 -0.0938783 0)
(-1.38956 -0.0956216 0)
(-1.33441 -0.0972485 -3.86394e-20)
(-1.27792 -0.098756 0)
(-1.22016 -0.100133 5.1222e-20)
(-1.16119 -0.101373 5.61343e-20)
(-1.10107 -0.102476 0)
(-1.03988 -0.103438 0)
(-0.977695 -0.104259 -7.57175e-20)
(-0.914602 -0.104935 -1.63356e-21)
(-0.850678 -0.105461 -1.66358e-21)
(-0.786004 -0.105829 0)
(-0.720667 -0.106032 -2.07291e-19)
(-0.654759 -0.106067 0)
(-0.588381 -0.105933 0)
(-0.521635 -0.105631 0)
(-0.454627 -0.105165 1.32521e-19)
(-0.387463 -0.104535 0)
(-0.320251 -0.103747 -2.89785e-19)
(-0.253096 -0.102805 -1.53844e-19)
(-0.186105 -0.101714 0)
(-0.119378 -0.100478 -1.68094e-19)
(-0.0530193 -0.0991087 0)
(0.0129099 -0.0976263 0)
(0.078307 -0.0960459 -5.53846e-19)
(0.143052 -0.0943584 3.76545e-19)
(0.207042 -0.0925592 0)
(0.270199 -0.0906682 3.92701e-19)
(0.332442 -0.0886944 -2.01914e-19)
(0.393693 -0.0866091 0)
(0.453927 -0.0844138 0)
(0.513143 -0.0821556 0)
(0.571318 -0.0798794 -6.47394e-19)
(0.628424 -0.0776084 0)
(0.684443 -0.0753573 -2.23418e-19)
(0.73937 -0.0731348 0)
(0.793207 -0.0709483 0)
(0.845963 -0.0688028 0)
(0.897652 -0.0667018 0)
(0.94829 -0.0646454 0)
(0.997892 -0.0626283 0)
(1.04647 -0.060638 -4.81367e-19)
(1.09402 -0.0586494 0)
(1.14052 -0.0566158 -2.45494e-19)
(1.18589 -0.0544516 7.39679e-19)
(1.22999 -0.0519943 0)
(1.27248 -0.048934 0)
(1.31316 -0.0446034 -5.01987e-19)
(1.35018 -0.0376912 -5.0723e-19)
(1.38662 -0.0252762 5.11776e-19)
(1.41233 0.000156307 5.25108e-19)
(-0.00745234 -0.027605 -2.80248e-18)
(-0.0175836 0.00157085 -1.00785e-18)
(-0.029532 0.0263532 -3.63936e-19)
(-0.0433539 0.0476972 -1.30468e-19)
(-0.0580603 0.066366 0)
(-0.0733348 0.082655 1.89199e-19)
(-0.0893083 0.0966946 -8.64976e-20)
(-0.106167 0.108626 0)
(-0.124044 0.11867 -7.64414e-20)
(-0.143014 0.127118 0)
(-0.1631 0.134287 1.39544e-19)
(-0.184288 0.140477 0)
(-0.206545 0.145947 6.46001e-20)
(-0.229833 0.150904 1.24785e-19)
(-0.254119 0.155502 -1.20777e-19)
(-0.279375 0.159857 0)
(-0.305578 0.164052 -1.13797e-19)
(-0.332704 0.168155 0)
(-0.360723 0.172216 0)
(-0.38959 0.176276 -1.05392e-19)
(-0.419236 0.180359 0)
(-0.449562 0.184467 -1.29381e-22)
(-0.480438 0.188561 0)
(-0.511721 0.192552 0)
(-0.543259 0.196289 1.49467e-22)
(-0.574918 0.199579 -9.30586e-20)
(-0.606598 0.202209 -9.11297e-20)
(-0.638267 0.203996 -8.88492e-20)
(-0.67 0.204854 0)
(-0.701905 0.204949 -1.68247e-19)
(-0.733978 0.204801 0)
(-0.766018 0.204778 -7.94994e-20)
(-0.797768 0.204984 0)
(-0.828955 0.205491 0)
(-0.859294 0.205804 7.41985e-20)
(-0.88889 0.205304 0)
(-0.918116 0.203962 -7.12941e-20)
(-0.947222 0.201934 5.11215e-23)
(-0.97644 0.199112 1.37187e-19)
(-1.00601 0.195923 -1.34481e-19)
(-1.03583 0.193065 0)
(-1.06563 0.190527 0)
(-1.09526 0.188182 -6.33795e-20)
(-1.1247 0.185923 0)
(-1.15396 0.183692 -6.12365e-20)
(-1.18307 0.181464 6.01598e-20)
(-1.21206 0.179229 5.91253e-20)
(-1.24093 0.176985 0)
(-1.26968 0.174729 -5.71746e-20)
(-1.29833 0.172459 -5.62535e-20)
(-1.32687 0.170172 1.10587e-19)
(-1.35529 0.167865 -5.45078e-20)
(-1.38358 0.165532 -5.36785e-20)
(-1.41173 0.16317 0)
(-1.43973 0.160771 0)
(-1.46756 0.158331 5.134e-20)
(-1.49521 0.155845 0)