/*--------------------------------*- C++ -*----------------------------------*\
  =========                 |
  \\      /  F ield         | OpenFOAM: The Open Source CFD Toolbox
   \\    /   O peration     | Website:  https://openfoam.org
    \\  /    A nd           | Version:  9
     \\/     M anipulation  |
\*---------------------------------------------------------------------------*/
FoamFile
{
    format      ascii;
    class       volScalarField;
    location    "5.5";
    object      p;
}
// * * * * * * * * * * * * * * * * * * * * * * * * * * * * * * * * * * * * * //

dimensions      [0 2 -2 0 0 0 0];

internalField   nonuniform List<scalar> 
918
(
24.1244
24.2608
1.0641
23.5349
1.02629
23.7772
3.95772
14.5334
19.8949
3.43364
3.01598
15.112
21.3202
17.5613
13.6852
1.06673
14.8456
2.7024
19.1064
1.37945
13.7217
21.1029
22.192
19.9401
14.8504
15.0223
19.2825
1.28002
0.117486
0.350639
0.96484
0.454791
0.256028
22.3141
22.9908
22.9291
16.177
10.8618
4.3507
4.59928
3.65762
3.42349
14.5745
14.6826
6.70911
14.5053
14.4947
17.3039
19.7624
19.9054
20.202
19.9893
20.3763
6.15933
3.31275
3.14191
3.45223
3.51773
3.23087
3.14055
3.16435
2.8827
2.724
14.6332
15.203
15.2636
14.9944
14.9472
23.1368
22.3799
22.7146
21.821
21.9664
20.8963
20.5107
17.9371
18.2896
17.1629
16.7817
13.4617
13.4048
13.9241
14.1629
0.155066
1.24695
1.40067
14.8514
14.8836
14.8852
14.8923
8.64559
2.70494
2.718
18.547
18.123
21.1306
21.3973
20.8441
20.6585
1.57649
1.6574
1.1788
1.19158
0.971095
14.0381
14.199
19.8914
19.0591
14.8878
14.7821
14.8492
12.2535
14.6459
14.729
16.0088
16.4603
15.6415
16.085
18.8525
18.4344
19.719
20.1563
0.445332
0.168787
0.842306
0.455849
0.669218
16.0504
15.8538
16.2711
16.336
16.5622
10.8619
10.7767
10.8457
10.7651
4.97783
5.3018
2.81079
3.16796
2.98549
10.308
14.7059
14.7512
5.65767
6.36168
6.01811
7.19777
7.58848
16.6736
17.1067
16.8478
18.3884
17.5947
17.9423
20.4627
19.9534
20.2532
6.56382
6.85168
5.8091
5.46731
2.73868
3.00968
2.92789
3.53961
3.51808
3.4736
3.63061
2.96286
2.81695
3.44232
3.28074
3.36361
2.52936
2.36407
14.3781
14.1742
14.8951
15.0757
15.7897
15.6566
15.3793
15.5386
19.7058
20.1093
20.1427
19.7586
12.1028
10.558
14.4241
14.6932
0.314851
0.270368
0.150981
0.43285
0.40021
0.173781
2.19337
2.00415
1.58484
1.84871
14.8498
14.8154
8.88661
9.11198
8.4733
8.20381
16.9598
17.1102
17.7446
17.3438
2.2124
1.84102
2.02491
14.3795
14.2317
14.3571
11.7092
11.1531
12.7386
13.0384
14.7941
14.8
14.8086
16.3668
16.6849
20.5072
20.7778
20.6047
20.9905
22.0533
21.7046
21.3198
15.2764
15.6578
15.5094
16.7744
16.4156
16.6305
15.8746
16.1602
16.0227
10.8019
10.8471
10.5701
10.6487
10.7058
10.6506
10.2343
10.1056
14.8492
14.7905
14.8255
8.09985
8.57538
5.10236
4.79063
13.3281
13.9781
13.6513
19.3355
18.6578
19.3908
19.0199
18.57
18.8935
10.8546
10.8029
10.8442
15.606
14.9515
15.2987
2.6728
2.28199
2.4524
9.3141
9.41202
7.23438
7.89971
7.55964
16.986
17.3265
18.0065
17.1184
17.5859
18.0932
17.8713
10.3887
10.5255
10.439
10.084
9.9707
10.5127
9.13294
9.72757
3.8846
4.51194
4.21745
9.58246
9.83783
9.67896
19.2857
19.8201
0.805651
1.27294
20.2442
19.9669
0.212158
0.374466
14.9396
13.1686
8.10108
17.8414
17.2925
19.6218
3.63442
6.33892
3.17915
3.62712
2.87387
15.2988
14.9746
14.0782
0.508463
1.3761
1.75169
3.386
19.0662
18.3923
19.5042
19.8258
19.879
0.71208
0.945869
0.593675
1.35847
1.094
1.30894
16.2344
16.3003
5.04158
19.5098
19.8128
19.8313
18.3031
19.2577
18.3151
1.0675
0.759075
0.849829
10.8768
12.8702
14.9045
14.4505
14.6539
14.676
14.4273
15.5574
15.239
15.1922
15.672
14.701
14.5432
8.54794
7.21963
8.92617
8.5955
17.7436
17.3316
17.1554
16.903
18.7369
18.2621
19.1128
18.4987
18.9604
19.2484
3.54208
3.66666
3.51376
3.08457
6.43079
6.91875
5.7751
5.85264
4.51535
2.91298
2.9346
3.15443
3.10378
3.30328
2.91369
3.21378
2.86771
2.51762
2.50211
3.25807
2.98522
2.93296
15.272
15.251
15.0257
15.0584
15.0729
15.2061
14.2735
14.6779
14.3414
13.1568
13.7416
13.3053
0.822569
0.689944
0.57506
1.46095
1.51762
1.19192
0.916449
1.24056
1.19248
0.92858
1.62685
1.63595
3.7261
3.2049
9.21752
8.32971
7.32276
17.4616
18.2599
17.4311
18.6656
19.0826
19.1896
18.811
18.3032
16.3721
16.3727
16.0394
16.0018
5.48637
4.40033
5.73643
5.36837
10.9546
14.8449
12.6089
11.5729
11.8757
14.0839
14.6194
14.2573
14.4809
13.9927
13.4634
14.2194
13.7153
13.8304
13.5493
16.4031
16.8776
16.4841
15.9042
15.9249
11.0487
12.4458
6.31933
6.45371
7.98521
7.38046
14.2144
14.6518
14.6548
14.2741
14.4734
14.4801
14.2698
14.4172
14.5632
14.4884
12.3309
10.9428
9.87498
9.8372
14.8439
12.884
13.4911
12.9977
16.7625
17.2818
16.8954
16.3161
16.7936
16.2755
16.2885
16.4835
17.8525
17.5987
17.3746
17.7611
3.62534
3.55886
4.19941
3.71498
3.60945
3.31056
4.01864
5.23358
4.89195
7.09489
7.63584
5.08643
4.08671
4.35737
5.34993
5.99133
6.00129
4.34024
4.76271
5.20504
4.74538
5.46229
4.99797
3.12884
3.40071
3.32601
3.2858
3.66488
4.15056
3.6908
2.77748
2.94951
2.67147
2.50428
3.89541
3.52383
3.5332
4.06676
1.32239
1.50602
1.6237
2.63775
2.13851
2.22365
15.8612
15.5207
15.6559
14.9064
15.0053
14.9616
14.553
15.9277
15.6565
15.7626
14.4413
14.5507
14.3468
14.6224
15.0363
15.3076
16.1192
15.8392
15.1235
15.2824
14.9379
14.8602
14.19
13.6886
13.5883
1.21522
0.896517
1.07842
1.0365
0.711946
0.891029
2.34752
1.76503
2.15507
1.88124
2.11543
1.54339
1.43208
4.86423
5.65751
4.63614
4.00109
3.68432
9.26975
9.39575
8.50527
8.2275
8.55129
8.79434
8.73809
7.4224
7.88726
7.70356
10.3623
10.0069
18.2414
18.1868
17.86
17.7012
17.9247
6.49084
8.18352
7.50548
8.50696
10.6602
10.9815
9.69743
9.09744
9.8471
9.89024
14.7995
14.8916
14.3677
14.786
14.82
12.5731
13.4905
14.0892
13.8836
14.4727
14.5596
13.7551
14.2557
14.1138
13.4472
13.4592
12.903
13.1534
12.7143
12.5412
14.7799
14.6613
14.9335
14.4849
14.8247
14.3984
14.681
14.7715
15.0092
14.1217
13.5318
13.5406
13.9432
13.7054
14.0359
14.1948
9.71466
10.3288
10.8157
11.3765
11.0914
10.8511
10.7009
11.0326
11.0287
11.2863
11.2027
11.027
11.9835
14.1104
14.3868
14.5512
14.3092
14.3122
14.0196
14.3164
14.2417
14.6721
14.7511
14.8157
13.7061
13.9562
14.142
14.0394
12.131
10.6889
10.4893
10.1553
8.36935
8.76609
11.5965
10.5472
9.6217
9.71923
12.8934
11.5416
12.3396
12.6681
11.3942
11.0516
13.5813
14.4228
14.6157
14.2771
12.6548
12.7497
13.1948
13.6424
13.8345
14.3373
16.5335
17.0933
17.1744
16.9023
16.763
16.8542
16.5957
16.7028
17.1792
17.2997
17.1292
3.38139
3.47797
3.4758
3.38989
3.6711
3.51869
4.50081
4.5006
3.65835
3.82682
3.85478
3.89922
3.48761
3.48622
5.16426
5.41825
5.69044
5.24653
6.58924
7.12671
7.67326
7.41886
6.18465
6.2104
6.50084
3.88712
3.82742
3.61411
4.02401
4.11701
2.96459
2.63313
2.41752
2.92084
3.04846
2.34283
1.99364
2.08552
2.516
2.3739
2.10791
15.666
15.4491
15.4512
15.2408
15.299
15.6787
15.888
15.6898
15.8169
15.8736
15.4933
15.3781
15.5562
1.95732
1.64308
1.76631
1.82907
1.77681
1.69583
1.84041
7.98501
6.83557
7.23841
6.47582
4.77744
5.2571
10.0009
10.3943
10.4407
10.1252
9.92311
10.2461
10.1465
10.1411
8.63973
9.69492
9.24036
9.64564
9.69516
9.76083
9.45001
9.53491
11.0218
11.0797
9.9099
10.5523
9.88498
8.59694
8.7675
9.63382
10.5397
10.8377
10.6949
10.3701
10.1579
10.5722
10.5845
10.6974
10.6848
9.1651
9.12964
8.7368
14.6676
14.666
14.7968
14.7299
14.894
14.7107
14.5157
14.7934
14.8771
14.652
11.5507
11.6245
11.8961
12.7089
12.7892
12.4923
11.7788
13.6524
13.2573
14.0277
13.9656
13.9696
13.5662
13.3461
13.6886
10.7393
12.0751
11.6087
11.9005
10.7764
10.06
13.8472
13.8898
14.0095
14.3153
14.2307
14.7972
16.5006
16.3666
16.4189
16.4639
16.0676
16.0998
4.54565
4.24773
4.96027
4.9389
4.5194
4.22662
2.47828
2.23139
2.03552
1.90613
2.07491
2.18376
8.60745
8.58127
6.82312
7.77755
6.49308
5.54432
5.43608
6.5083
7.62504
7.71859
8.85505
9.54509
9.12725
8.96516
8.29791
8.61381
10.5618
10.6591
10.5582
10.8705
10.428
12.2279
11.7958
12.1682
13.8533
13.5318
12.8824
12.7594
12.7984
13.4275
12.4555
11.7036
12.3818
13.0693
13.042
11.5975
11.3378
11.7865
11.7144
10.6249
11.1622
10.9157
11.2661
10.947
)
;

boundaryField
{
    wall-4
    {
        type            zeroGradient;
    }
    velocity-inlet-5
    {
        type            zeroGradient;
    }
    velocity-inlet-6
    {
        type            zeroGradient;
    }
    pressure-outlet-7
    {
        type            fixedValue;
        value           uniform 0;
    }
    wall-8
    {
        type            zeroGradient;
    }
    frontAndBackPlanes
    {
        type            empty;
    }
}


// ************************************************************************* //
