/*--------------------------------*- C++ -*----------------------------------*\
  =========                 |
  \\      /  F ield         | OpenFOAM: The Open Source CFD Toolbox
   \\    /   O peration     | Website:  https://openfoam.org
    \\  /    A nd           | Version:  9
     \\/     M anipulation  |
\*---------------------------------------------------------------------------*/
FoamFile
{
    format      ascii;
    class       volScalarField;
    location    "8.6";
    object      p;
}
// * * * * * * * * * * * * * * * * * * * * * * * * * * * * * * * * * * * * * //

dimensions      [0 2 -2 0 0 0 0];

internalField   nonuniform List<scalar> 
918
(
23.5415
23.8204
1.01982
22.9569
1.00886
23.3369
3.52264
14.0037
19.3139
3.06349
2.76499
14.4883
20.8799
17.1212
13.2444
0.952675
14.2373
2.38643
18.5298
1.42001
13.2454
20.5202
21.609
19.3568
14.238
14.6002
18.8422
1.24579
0.114522
0.309658
0.964311
0.428513
0.183363
21.8738
22.5504
22.4888
15.5707
10.5385
3.8626
4.07578
3.23061
3.02998
14.0412
14.14
6.1286
13.987
13.985
16.7173
19.1818
19.3252
19.6195
19.4079
19.7945
5.99224
2.92644
2.746
3.03642
3.10484
3.02312
2.85036
2.83401
2.63349
2.48769
13.9743
14.5602
14.6117
14.3558
14.3081
22.6965
21.9395
22.2743
21.3806
21.526
20.456
20.0704
17.4969
17.8494
16.7229
16.3419
13.029
12.9822
13.4721
13.7162
0.151221
1.1051
1.25116
14.2401
14.2692
14.2862
14.3026
8.3496
2.35799
2.36776
17.9702
17.5465
20.5523
20.8193
20.2663
20.0807
1.58097
1.60602
1.19481
1.22027
0.989436
13.5689
13.7211
19.3081
18.4752
14.2549
14.166
14.2315
11.6229
14.0322
14.1132
15.5674
16.0208
15.2062
15.646
18.4122
17.9942
19.2787
19.716
0.428207
0.166156
0.723891
0.356532
0.552943
15.4393
15.2353
15.6789
15.7369
15.9678
10.5409
10.4627
10.5188
10.4371
4.42795
4.74218
2.4515
2.78738
2.61946
9.98377
14.1542
14.1947
5.08833
5.78168
5.45062
6.59722
6.96944
16.0839
16.5198
16.259
17.8042
17.0093
17.3575
19.884
19.3736
19.6739
6.38651
6.63816
5.63198
5.28121
2.38856
2.62699
2.56763
3.13779
3.11954
3.25355
3.39774
2.74201
2.59633
3.05537
2.9332
2.98851
2.3126
2.17289
13.7013
13.4908
14.234
14.4122
15.1645
15.0177
14.7274
14.894
19.2655
19.6689
19.7024
19.3183
11.7327
10.2617
13.9735
14.2455
0.313063
0.266401
0.140597
0.387015
0.399176
0.157144
2.04067
1.85002
1.43228
1.70155
14.2278
14.1817
8.59095
8.81562
8.18244
7.92321
16.3831
16.5339
17.1684
16.7679
2.07733
1.77074
1.91193
13.8776
13.7511
13.8604
11.0695
10.5179
12.0916
12.3586
14.1525
14.1768
14.1808
15.9261
16.2444
20.0668
20.3375
20.1644
20.5501
21.613
21.2642
20.8794
14.6202
15.0256
14.8659
16.1966
15.8301
16.0494
15.2569
15.5619
15.419
10.4916
10.5375
10.247
10.3257
10.3786
10.3244
9.91361
9.78403
14.2709
14.2318
14.2531
7.48189
7.96649
4.90581
4.58257
12.6485
13.3108
12.9918
18.8952
18.2176
18.9505
18.5797
18.1297
18.4532
10.5467
10.5014
10.5384
15.1638
14.5056
14.8551
2.47351
2.10825
2.27722
9.01385
9.10905
7.0087
7.63718
7.30097
16.5458
16.8862
17.5663
16.6781
17.1457
17.6529
17.431
10.0615
10.1999
10.1139
9.76384
9.65295
9.89457
8.53219
9.12847
3.66117
4.30687
4.00846
9.27893
9.5221
9.36562
18.7026
19.2373
0.804216
1.24048
19.6656
19.389
0.156555
0.269406
14.4988
12.7649
7.4933
17.2666
16.7041
19.0411
3.29364
6.14432
2.92751
3.43424
2.72388
14.6845
14.3375
13.4385
0.476792
1.26795
1.7493
3.02947
18.4831
17.8082
18.9231
19.2436
19.2977
0.69994
0.948936
0.590858
1.32011
1.08745
1.31975
15.6284
15.7159
4.56054
18.9297
19.2336
19.2516
17.727
18.6801
17.7375
0.951042
0.656724
0.73535
10.2348
12.2462
14.4608
14.0112
14.2107
14.2329
13.9843
15.1156
14.7907
14.7502
15.2325
14.1651
14.0343
7.93083
6.62029
8.28118
7.93199
17.1681
16.7557
16.5672
16.3136
18.1562
17.6819
18.5325
17.9202
18.3821
18.6692
3.09739
3.26473
3.13216
2.66328
6.19542
6.66126
5.54319
5.668
4.31011
2.60109
2.66895
2.86931
2.73753
3.0229
2.73718
3.00313
2.63986
2.36052
2.3573
3.00245
2.80563
2.68402
14.6585
14.6012
14.4051
14.4477
14.4394
14.5521
13.6285
14.0265
13.657
12.5134
13.077
12.6122
0.814986
0.662604
0.540877
1.34744
1.38196
1.14581
0.876286
1.22449
1.20753
0.884725
1.5826
1.54167
3.31687
2.82541
8.91792
8.03718
6.97082
16.8744
17.6755
16.8453
18.0843
18.5013
18.6071
18.2278
17.7197
15.7958
15.7918
15.4519
15.4037
4.97527
3.9495
5.1847
4.78818
10.6227
14.2198
11.9631
10.9421
11.2324
13.5158
14.1772
13.82
13.996
13.541
13.0468
13.7684
13.285
13.3905
13.1439
15.9626
16.4374
16.0439
15.4642
15.4846
10.7288
12.1119
5.72061
5.86537
7.41718
6.74902
13.7429
14.1205
14.1053
13.7678
13.9686
13.9448
13.7862
13.9456
14.0611
13.9592
11.9063
10.2916
9.2193
9.21664
14.2578
12.45
13.0517
12.5047
16.1878
16.7059
16.3197
15.7225
16.2058
15.6786
15.7002
15.9084
17.2724
17.0211
16.7921
17.1791
3.20777
3.15197
3.78107
3.28934
3.18203
2.95564
3.61621
4.85862
4.52221
6.78882
7.32458
4.69274
3.5751
3.93317
4.93621
5.6242
5.61971
4.05957
4.55591
4.98597
4.508
5.26631
4.78194
2.83464
3.1297
2.98718
2.96457
3.45129
3.93661
3.44795
2.5683
2.70592
2.408
2.26854
3.62784
3.1508
3.1855
3.77584
1.16323
1.36623
1.48203
2.48014
1.96286
2.0238
15.2497
14.8931
15.0271
14.3174
14.3896
14.3382
13.9575
15.3171
15.0415
15.1399
13.7957
13.8827
13.6987
13.9903
14.3896
14.6875
15.5229
15.2411
14.4911
14.6417
14.2949
14.2191
13.5563
12.9955
12.9371
1.12783
0.83455
1.0062
0.948141
0.630459
0.821902
2.20836
1.60835
2.01449
1.7435
1.97794
1.48167
1.35421
4.40549
5.19729
4.15168
3.55353
3.25772
8.97456
9.09012
8.22202
7.92361
8.26038
8.49546
8.4447
7.18017
7.6166
7.43
10.0417
9.68918
17.6587
17.6031
17.2749
17.1156
17.3415
5.95318
7.76214
6.98119
8.07175
10.3363
10.6485
9.38978
8.78548
9.55364
9.60884
14.1992
14.2836
13.7139
14.1849
14.21
11.9567
12.9803
13.5952
13.3878
13.9363
14.0272
13.1325
13.6926
13.568
12.8538
12.9113
12.2411
12.5634
12.0943
11.9083
14.1316
14.0286
14.2957
13.8512
14.2234
13.8182
14.1153
14.1322
14.4113
13.5014
12.9263
12.9522
13.3689
13.0654
13.4081
13.5648
9.37472
10.0291
10.5073
11.0589
10.7692
10.5365
10.3948
10.7127
10.6978
10.963
10.8817
10.7177
11.6476
13.6584
13.9349
14.0696
13.8202
13.8518
13.551
13.8419
13.7625
14.0988
14.1954
14.2438
13.2735
13.4745
13.6823
13.5618
11.7643
10.1878
10.0453
9.63086
7.75986
8.21443
11.1132
10.0318
9.07499
9.14506
12.3021
10.941
11.7487
12.1424
10.8158
10.4458
13.085
13.9044
14.1127
13.8062
12.1618
12.2828
12.735
13.1922
13.3909
13.8747
15.9351
16.5077
16.5864
16.3115
16.1723
16.2699
16.0183
16.1231
16.5973
16.7231
16.554
3.02487
3.13122
3.07544
3.00103
3.23111
3.03679
4.09324
4.08654
3.29005
3.4639
3.48001
3.57252
3.08601
3.11206
4.89944
5.13422
5.40669
4.92369
6.25428
6.87174
7.43684
7.14254
5.86607
5.93067
6.2396
3.61059
3.60071
3.3409
3.78521
3.85208
2.7249
2.36516
2.15796
2.69282
2.78735
2.16766
1.86966
1.93366
2.41337
2.18838
1.93016
15.0511
14.8119
14.8321
14.613
14.6674
15.0582
15.2775
15.084
15.2199
15.2702
14.8754
14.7591
14.9312
1.85241
1.52898
1.67758
1.67446
1.6745
1.61239
1.78467
7.6667
6.49312
6.86776
6.08958
4.30298
4.794
9.6623
10.0816
10.1238
9.81524
9.60468
9.96423
9.83067
9.82023
8.33485
9.40578
8.94201
9.34293
9.37863
9.44372
9.14967
9.16312
10.6714
10.7018
9.56104
10.2157
9.44736
8.09178
8.25138
9.2156
10.1612
10.5307
10.3743
10.0699
9.84766
10.2479
10.2839
10.3667
10.3539
8.83355
8.77328
8.36322
14.1137
14.0482
14.1938
14.1783
14.3223
14.0904
13.9253
14.2098
14.2715
14.0463
11.2186
11.2885
11.5428
12.3282
12.3917
12.1904
11.4493
13.2737
12.8975
13.6006
13.5339
13.5659
13.1437
12.9609
13.2689
10.2017
11.5616
11.0907
11.3663
10.2013
9.46756
13.359
13.4016
13.4999
13.789
13.7175
14.3092
15.9036
15.7723
15.8219
15.8657
15.4766
15.512
4.26269
3.9318
4.64642
4.608
4.17291
3.87751
2.34427
2.04855
1.86752
1.74065
1.93981
2.00823
8.24632
8.25885
6.42953
7.4341
6.0335
5.09885
4.96512
6.08073
7.23791
7.31529
8.5696
9.26522
8.82827
8.65609
7.98485
8.31217
10.2439
10.3381
10.2372
10.5618
10.0987
11.8765
11.4527
11.8132
13.4653
13.1518
12.5315
12.4169
12.4133
13.0278
12.0436
11.2647
11.9743
12.6654
12.6234
11.264
11.0111
11.4461
11.4013
10.3032
10.8445
10.6006
10.9488
10.6381
)
;

boundaryField
{
    wall-4
    {
        type            zeroGradient;
    }
    velocity-inlet-5
    {
        type            zeroGradient;
    }
    velocity-inlet-6
    {
        type            zeroGradient;
    }
    pressure-outlet-7
    {
        type            fixedValue;
        value           uniform 0;
    }
    wall-8
    {
        type            zeroGradient;
    }
    frontAndBackPlanes
    {
        type            empty;
    }
}


// ************************************************************************* //
