/*--------------------------------*- C++ -*----------------------------------*\
  =========                 |
  \\      /  F ield         | OpenFOAM: The Open Source CFD Toolbox
   \\    /   O peration     | Website:  https://openfoam.org
    \\  /    A nd           | Version:  9
     \\/     M anipulation  |
\*---------------------------------------------------------------------------*/
FoamFile
{
    format      ascii;
    class       volVectorField;
    location    "11.2";
    object      U;
}
// * * * * * * * * * * * * * * * * * * * * * * * * * * * * * * * * * * * * * //

dimensions      [0 1 -1 0 0 0 0];

internalField   nonuniform List<vector> 
918
(
(2.47629 -0.138941 0)
(0.108704 0.722546 0)
(0.176754 1.12948 0)
(2.31834 0.153729 0)
(-0.0561403 1.2366 -1.20663e-19)
(-0.0924034 0.643931 -5.33791e-18)
(0.521748 0.839801 -3.06003e-19)
(0.284107 0.1582 -3.00423e-20)
(3.00616 -0.0195725 0)
(-0.0100225 0.489168 0)
(-0.0191435 0.614339 0)
(0.607573 0.00643357 0)
(0.0107054 0.439105 0)
(-0.00289633 0.421714 0)
(0.0146515 0.345445 -1.31602e-18)
(-0.00479348 0.744931 -9.21299e-20)
(0.320509 0.0757325 2.15768e-18)
(0.0782165 0.649323 -2.29698e-19)
(1.52891 0.128604 0)
(-0.0292054 0.724025 0)
(0.201626 0.162809 -1.27533e-18)
(3.08302 -0.39739 0)
(2.92444 -0.506 0)
(1.86114 -0.181113 0)
(0.515967 0.0399088 0)
(-0.0252532 0.521501 0)
(-0.00135357 0.494037 1.87236e-18)
(-0.0225965 1.48535 0)
(0.0824923 3.00967 0)
(0.174341 1.83949 0)
(-0.0340533 3.07 0)
(0.0284687 1.59239 9.27711e-20)
(0.022798 0.66683 0)
(-0.147425 0.775094 -2.04053e-22)
(-0.193914 1.0291 4.44128e-18)
(-0.0415772 1.04471 0)
(0.743943 -0.00608398 0)
(0.166235 0.253994 6.69303e-19)
(0.976854 1.49243 6.71779e-19)
(0.638386 0.772477 -5.31533e-19)
(0.787809 1.5591 6.44053e-20)
(0.411732 0.845805 -3.32434e-19)
(0.572418 0.317446 2.95461e-20)
(0.307229 0.158503 0)
(0.943831 0.555669 0)
(0.55283 0.315328 1.32786e-19)
(0.26787 0.168702 -1.36258e-19)
(0.871394 -0.0555152 0)
(3.02784 -0.00172919 0)
(3.00685 0.0178533 0)
(3.20085 -0.41776 0)
(3.04288 -0.0742384 0)
(3.03116 -0.0388582 0)
(0.0167816 0.903594 -1.14293e-18)
(-0.0535305 0.995235 0)
(0.00271156 0.46611 0)
(-0.0311395 1.00829 0)
(-0.0129637 0.497964 0)
(-0.00262523 0.854805 0)
(-0.0531162 1.15502 0)
(-0.0127427 0.564218 0)
(-0.0289364 1.21557 0)
(-0.0079977 0.651568 0)
(0.78804 0.0112865 0)
(1.17362 -0.00193707 0)
(0.62006 0.0122114 0)
(1.13118 0.0174274 0)
(0.572565 0.00838971 0)
(0.225406 0.921982 1.96905e-18)
(0.0985378 1.2081 0)
(0.176302 1.06604 0)
(0.0331901 0.755774 2.21009e-23)
(0.0372233 0.498055 -2.94488e-18)
(0.0194616 0.747943 0)
(0.00595418 0.422033 0)
(-0.000709268 0.734565 4.54436e-24)
(0.000698953 0.41483 0)
(-0.0169736 0.743242 0)
(-0.012983 0.428058 0)
(0.0524126 0.661287 0)
(0.0508573 0.467937 0)
(0.00987904 0.628161 1.24427e-18)
(0.00171714 0.346784 0)
(-0.0611924 4.62391 0)
(0.00838359 1.41365 9.14659e-20)
(-0.00987403 0.762191 -1.17579e-19)
(0.651989 0.155017 -7.52714e-19)
(0.328618 0.066372 -7.30033e-19)
(0.662942 0.173933 -2.26071e-18)
(0.326831 0.0980247 -1.45629e-18)
(0.0792529 0.629176 0)
(0.177814 1.31979 1.91792e-19)
(0.178499 0.73306 -3.06047e-19)
(2.06046 0.260878 0)
(1.10716 0.118415 0)
(3.03313 0.103876 0)
(3.10393 0.446047 0)
(2.83923 0.377424 -1.01178e-17)
(2.57812 0.361301 7.7636e-18)
(-0.0706487 1.33375 0)
(-0.0107619 0.662118 0)
(-0.0150309 2.0147 0)
(-0.055325 1.42821 0)
(-0.0505979 0.719854 0)
(0.454577 0.307368 4.03665e-19)
(0.232952 0.169454 0)
(2.29602 -0.266439 0)
(1.32366 -0.119301 0)
(1.08307 0.0120381 0)
(1.0207 0.0181565 0)
(0.544487 0.0102502 0)
(1.01146 0.0554447 0)
(0.829722 0.0707504 0)
(0.347034 0.0287434 3.36343e-18)
(-0.00548199 0.451403 1.78566e-18)
(-0.0271838 0.784842 0)
(-0.0478536 0.848199 0)
(-0.0153773 0.460776 0)
(0.000130461 0.839723 1.82612e-18)
(7.05158e-05 0.487527 0)
(-0.00547923 0.845554 -5.62061e-18)
(-0.0048864 0.496761 1.8964e-18)
(0.0581529 3.69331 0)
(0.0490049 4.11883 0)
(-0.0152284 1.36707 -2.07073e-21)
(-0.0132768 1.32257 0)
(-0.00913165 0.71948 0)
(1.40877 0.0346647 0)
(0.759615 0.0152704 0)
(0.710147 0.0141981 0)
(1.41517 -0.0329811 0)
(0.773045 -0.0088318 0)
(0.33264 0.495429 -8.40365e-19)
(0.161588 0.239724 0)
(0.335824 0.52586 9.4202e-20)
(0.168713 0.277169 0)
(1.21891 1.3628 1.71293e-19)
(0.763809 0.72783 -4.02248e-19)
(0.408885 1.42087 0)
(0.601265 1.52495 0)
(0.300844 0.813355 0)
(0.149947 0.364841 -4.45608e-19)
(0.627898 0.289751 0)
(0.323261 0.138591 4.00484e-19)
(1.40038 1.28218 0)
(1.5566 1.14594 0)
(0.857833 0.651405 4.71072e-19)
(1.70173 0.935357 0)
(1.04872 0.430683 2.2689e-20)
(1.47227 0.00799326 0)
(1.50055 -0.0293298 0)
(0.801579 -0.00447846 0)
(1.95025 -0.199835 0)
(1.65053 -0.148247 0)
(1.05203 -0.0890038 0)
(3.06126 0.164831 0)
(3.03105 0.0687607 0)
(3.01022 0.0531423 0)
(0.0317815 1.60954 6.06463e-19)
(0.0159748 0.833412 0)
(0.0152933 1.69227 1.07678e-18)
(0.00156373 0.934779 -9.68517e-19)
(0.0632014 1.16578 1.93497e-19)
(0.0469089 1.00759 0)
(0.0386394 0.539246 0)
(-0.030648 1.03871 0)
(-0.00813493 0.536282 0)
(0.0159115 1.59014 -4.43522e-21)
(-0.018537 0.85441 0)
(-0.0534789 1.55385 -2.26129e-19)
(-0.0161026 0.804963 4.37756e-19)
(-0.0034718 1.06761 0)
(0.00986668 1.08498 0)
(-0.000775513 0.552951 0)
(0.00701497 1.23207 0)
(-0.000517888 0.647387 0)
(1.4631 -0.00450151 0)
(0.786086 0.00764051 0)
(1.43675 0.032717 0)
(0.760051 -0.00073553 0)
(0.676531 0.00518836 0)
(1.2645 0.0164093 0)
(1.20562 0.0471525 0)
(0.661188 0.0153804 0)
(-0.00580113 1.42077 -1.71127e-20)
(0.000184124 1.37708 0)
(0.00482001 0.732923 0)
(0.00172876 0.417221 0)
(0.294016 0.849746 0)
(0.261612 0.411245 -2.88222e-19)
(-0.00083792 0.637426 0)
(-0.00845725 0.36789 0)
(0.0121774 4.39236 0)
(-0.0428893 4.62501 0)
(-0.0149111 4.5718 0)
(-0.0671372 3.26956 2.06072e-20)
(-0.0555618 4.51207 0)
(-0.0464839 4.07623 0)
(0.00372952 0.797898 1.09451e-20)
(0.0126849 1.51845 1.65292e-19)
(-0.0346169 1.4582 1.20812e-19)
(-0.00793777 0.80252 0)
(0.677929 0.107184 1.15495e-18)
(0.331269 0.0442607 -1.13194e-18)
(0.151189 1.15404 0)
(0.10241 0.584753 -2.70317e-19)
(0.119304 1.2528 -8.76456e-19)
(0.0518287 0.697805 8.71975e-19)
(0.809533 0.0239886 0)
(1.55724 0.0475566 0)
(1.70998 0.127587 0)
(0.920047 0.0444778 0)
(0.0064085 1.24824 0)
(0.0241006 1.25981 0)
(0.00353944 0.664492 0)
(0.501377 0.327675 1.2109e-18)
(0.453522 0.322068 -1.39543e-18)
(0.243789 0.170654 0)
(1.91716 0.149508 1.15229e-19)
(1.12437 0.0913199 0)
(1.7111 0.116917 0)
(0.877686 0.0219812 0)
(0.68899 0.0859101 0)
(0.708315 0.0463126 -5.4088e-18)
(0.350806 0.032501 2e-18)
(0.00902718 0.807089 1.70467e-18)
(0.00218579 0.462437 4.08085e-20)
(-0.0108778 1.40842 -3.59853e-20)
(0.00613612 1.38675 1.37275e-18)
(-0.0149832 0.848955 6.32688e-20)
(-0.0119261 0.524486 -2.54185e-22)
(-0.107514 1.00068 -1.17052e-18)
(-0.0529602 1.3532 8.38029e-19)
(-0.0175323 1.35275 -1.36461e-18)
(1.41989 -0.017367 0)
(1.44026 0.0199712 0)
(0.768524 -0.00039417 0)
(1.4529 0.0252651 0)
(1.3642 0.0461369 0)
(0.762 0.0202299 0)
(1.30254 -0.00234493 0)
(1.32006 -0.00605797 0)
(0.695937 -0.00113461 0)
(0.314192 0.488245 -9.19341e-19)
(0.166283 0.250107 0)
(0.161917 0.317909 1.37818e-19)
(0.318909 0.604639 1.12902e-18)
(0.317405 0.566732 -6.68412e-19)
(0.1617 0.29109 1.30614e-18)
(0.286452 0.740239 2.19487e-18)
(0.152396 0.39246 3.95977e-19)
(0.655371 0.219565 1.54271e-18)
(0.645647 0.261705 4.00673e-19)
(0.326153 0.118367 7.52113e-19)
(1.88827 0.700807 -6.05321e-19)
(1.14842 0.329429 -7.06582e-19)
(-0.036652 1.69318 4.63194e-19)
(-0.012582 0.918536 0)
(1.59394 0.0223486 0)
(1.51491 0.0643819 0)
(0.848574 0.0261372 0)
(-0.00356001 1.38473 0)
(0.00507087 0.729577 2.50924e-18)
(0.00464965 0.731252 0)
(0.00206995 0.415098 -2.45597e-18)
(-0.0102811 1.38627 5.99117e-19)
(-0.00947596 1.4225 0)
(0.346922 0.503218 2.59064e-19)
(0.370988 0.563148 -8.66574e-19)
(0.177087 0.265711 7.8425e-19)
(-0.0257197 0.767109 -1.67399e-18)
(-0.0258365 0.689773 0)
(-0.0153575 0.412703 0)
(0.0285573 1.51455 -1.26664e-20)
(0.0294464 1.54034 -3.65148e-19)
(0.0163494 0.804142 -1.55327e-20)
(0.216723 1.06541 8.93824e-19)
(0.121514 0.520293 -5.9479e-19)
(0.00967534 1.49647 7.30748e-19)
(0.0539904 1.36766 -8.16184e-19)
(0.0254479 0.769115 3.5875e-20)
(0.00743513 1.36613 -3.83128e-18)
(-0.000283988 1.39327 4.43684e-18)
(0.00376282 0.829766 1.74331e-18)
(-0.0138708 0.805046 -1.73632e-18)
(-0.00431929 0.481381 -1.74898e-18)
(-0.0106677 1.41685 -4.52643e-18)
(-0.0152427 1.40031 4.61622e-18)
(0.295779 0.696275 0)
(0.309332 0.654419 -2.30244e-18)
(0.156841 0.34212 9.96794e-19)
(0.28919 0.81924 1.19194e-18)
(0.142553 0.440012 -1.83911e-18)
(2.0324 0.315958 4.16445e-19)
(2.02135 0.536782 0)
(1.20227 0.216899 -4.03096e-19)
(-0.0733343 1.61451 -4.809e-21)
(-0.0164567 1.6746 0)
(-0.01683 0.911601 0)
(0.230597 0.966801 -3.24236e-19)
(0.253833 0.890282 -7.10369e-19)
(0.131344 0.475734 1.33161e-18)
(3.16438 -0.442933 0)
(3.34726 -0.414751 1.81102e-18)
(0.0637955 3.59756 0)
(0.0470297 2.9487 0)
(3.15927 0.24985 1.41822e-20)
(3.12357 0.506231 3.70839e-18)
(0.0265036 3.33419 -2.76603e-20)
(0.0110775 2.58136 0)
(-0.0404101 1.19668 1.56639e-18)
(0.19996 1.33684 0)
(3.42051 1.59708 -3.27216e-19)
(3.17454 0.272393 -2.96145e-20)
(3.14792 -0.118969 0)
(3.10047 -0.000484993 3.65409e-22)
(0.0370947 2.61642 0)
(0.144723 3.30692 0)
(-0.0643577 2.60803 0)
(-0.0321201 3.44018 3.16971e-19)
(-0.0333438 3.50187 2.00085e-19)
(2.64088 0.0470508 -1.35808e-20)
(3.04221 0.0293535 0)
(3.14787 0.0836195 0)
(-0.0520232 4.58429 0)
(-0.046923 2.99184 0)
(-0.0778132 3.05381 0)
(0.639004 3.09031 2.70656e-19)
(3.33879 -0.422571 0)
(3.01124 -0.345894 0)
(3.1699 -0.0531379 2.2749e-18)
(3.29269 -0.328778 -2.73931e-18)
(3.10381 -0.125832 0)
(-0.0607075 4.51973 0)
(0.011742 4.02681 0)
(0.00587396 4.31739 0)
(-0.0336719 3.2192 0)
(-0.0163166 2.98289 0)
(-0.0384263 2.57057 0)
(2.9725 -0.00380555 0)
(2.85225 0.0480442 -1.8038e-20)
(2.20329 3.00055 -3.30949e-19)
(3.15694 0.0443582 -2.27596e-18)
(3.19038 0.278102 2.76658e-18)
(3.0828 0.11728 0)
(3.39554 0.328696 2.08491e-18)
(3.35703 0.484272 -2.70376e-18)
(3.07125 0.418355 0)
(-0.0522775 3.24938 0)
(0.00916557 3.17699 8.53186e-20)
(-0.0285784 2.49192 -6.04295e-20)
(3.67819 0.543416 2.26855e-18)
(3.45346 0.201993 0)
(-0.14887 1.27166 -2.18176e-18)
(-0.0585659 0.881536 -1.36066e-19)
(-0.0784114 1.33996 3.00768e-18)
(-0.0313964 1.2728 -9.06098e-19)
(0.00301233 1.09202 0)
(-0.0266764 1.23926 6.99778e-19)
(-0.113734 1.38786 2.16217e-18)
(-0.057951 1.34068 -1.32342e-18)
(-0.0770769 1.32053 0)
(1.33313 0.61417 0)
(1.22255 0.705863 0)
(3.50766 1.99762 9.614e-19)
(2.99542 1.90286 -1.2014e-18)
(3.79651 1.67882 0)
(3.33453 1.13688 0)
(3.34962 0.280212 -3.91224e-18)
(2.89933 0.172912 4.834e-18)
(3.35097 -0.155859 0)
(2.85396 -0.0764008 0)
(3.43643 0.0427081 0)
(3.59383 0.144722 0)
(3.28683 0.119708 0)
(3.55041 0.298302 0)
(3.40846 0.292893 0)
(3.32757 0.217894 0)
(0.0850679 2.82805 0)
(0.0282109 2.12291 0)
(0.113537 3.07485 0)
(0.0900727 2.22848 0)
(0.19799 3.60239 0)
(0.134032 2.69244 -5.59017e-19)
(0.0394429 3.6103 0)
(0.00352021 3.01519 4.05147e-19)
(-0.0319907 3.17919 -5.1733e-19)
(-0.068573 2.88681 0)
(-0.0315611 2.29245 0)
(-0.0839522 2.98256 0)
(-0.0578517 2.11552 0)
(-0.13009 4.70793 -2.47093e-19)
(-0.0908792 3.87401 2.79437e-19)
(-0.0835527 3.74766 3.11105e-19)
(-0.055489 2.96095 0)
(-0.114501 3.73175 -4.60691e-19)
(-0.0432881 3.13599 -2.95875e-19)
(-0.104791 4.73695 1.93447e-19)
(-0.112997 4.40043 -3.53189e-19)
(-0.0859502 4.27994 -3.81464e-19)
(3.0383 0.0857766 3.35346e-18)
(2.2949 0.0314938 -4.22346e-18)
(2.9 0.13015 -3.32253e-18)
(2.21955 0.0722232 4.15023e-18)
(3.3646 0.0253761 0)
(2.63904 -0.00332058 0)
(3.44662 0.0872204 0)
(3.31471 0.0168656 0)
(2.69917 0.00789488 0)
(3.66765 0.231939 0)
(3.42886 0.0913349 0)
(2.84913 0.0539342 0)
(-0.0199179 4.22332 -1.20382e-20)
(-0.0555409 4.59603 0)
(-0.0590437 4.45699 0)
(-0.0767545 3.40646 8.81955e-20)
(-0.038771 2.69417 -3.47368e-21)
(-0.0896416 4.63746 1.15896e-19)
(-0.100243 4.47005 -1.17111e-19)
(-0.0868298 4.0248 0)
(-0.0629932 3.95963 0)
(-0.0327626 4.0703 0)
(-0.0785323 3.37392 0)
(-0.0460532 2.41646 0)
(0.925356 3.63873 -6.18224e-19)
(0.905585 2.83097 -1.80464e-19)
(0.435868 2.09392 -2.29154e-19)
(0.252194 2.33404 6.98737e-19)
(1.00057 4.21236 2.64154e-19)
(3.4328 -0.167765 0)
(3.32198 -0.256745 0)
(2.88293 -0.189628 0)
(3.47031 -0.064648 0)
(3.34581 -0.148027 0)
(3.44891 -0.261197 0)
(3.51946 -0.283783 0)
(3.57941 -0.281393 0)
(3.22573 0.0925813 3.61405e-18)
(2.5566 0.0641717 -4.56999e-18)
(3.09863 0.105649 -3.55746e-18)
(2.51191 0.0560981 4.42638e-18)
(2.19792 3.36964 0)
(1.70485 2.90499 -4.54512e-19)
(2.52505 3.30371 -4.10447e-19)
(2.32034 2.48494 5.45382e-19)
(0.800193 1.25226 2.73724e-18)
(1.47023 0.216093 1.34374e-18)
(3.70519 0.295986 0)
(3.87104 0.560449 -1.84858e-18)
(3.27549 0.238355 -8.23408e-20)
(3.73495 0.428411 0)
(0.260945 1.32401 1.80984e-18)
(-0.00396949 1.20735 -2.8982e-18)
(0.0728115 0.773782 1.62787e-18)
(0.293938 0.474961 -7.53745e-19)
(0.199055 1.40241 8.77405e-19)
(0.0582493 1.24565 0)
(0.0629738 1.09746 -1.14061e-18)
(0.209722 1.45678 -4.12346e-18)
(0.351127 1.57776 0)
(0.00849546 1.29008 1.20367e-19)
(-0.00988142 1.45728 -1.34881e-18)
(-0.0412231 1.30292 1.96088e-18)
(-0.0577524 1.41764 0)
(-0.0207051 1.3821 0)
(0.702492 1.0823 0)
(2.49475 2.48521 -1.06936e-18)
(2.59205 2.13359 3.99888e-19)
(2.74252 2.83804 0)
(3.1676 3.02477 -3.96265e-19)
(3.11511 2.37302 2.79947e-20)
(0.837998 0.615717 -1.83474e-18)
(1.60532 0.708038 -1.65421e-20)
(1.27114 0.464024 8.75182e-19)
(1.32499 0.872586 5.98468e-20)
(0.978124 0.658745 -2.3837e-18)
(1.5141 0.73583 0)
(2.05126 1.12507 1.46213e-18)
(2.09107 1.03853 0)
(1.46341 0.815876 0)
(1.10157 0.568813 0)
(3.3844 2.16946 1.00772e-18)
(3.91917 0.745736 -1.86493e-18)
(3.81172 1.19568 0)
(3.49353 0.74376 0)
(1.42708 0.371141 1.33618e-18)
(3.28515 1.84409 -8.53348e-19)
(2.8815 1.66637 1.54905e-18)
(3.76603 1.3643 -1.83562e-18)
(3.09892 0.114122 2.46068e-18)
(3.16911 0.180436 -2.57575e-18)
(2.66273 0.0914122 0)
(3.3059 -0.040334 0)
(3.20051 -0.0847428 -2.36379e-18)
(2.63106 -0.032368 2.34297e-18)
(3.9568 0.0915345 0)
(3.76089 0.144407 0)
(3.69375 0.154933 0)
(3.58852 0.20432 0)
(3.83266 0.0583376 0)
(3.7261 0.0517283 0)
(-0.0470542 2.56118 0)
(-0.0427969 2.06307 0)
(0.330382 3.98664 -4.15646e-19)
(0.644498 3.32763 -1.62792e-19)
(0.249357 3.04066 -3.64144e-19)
(0.335362 2.55495 5.8332e-19)
(0.433376 4.00326 0)
(0.435448 4.64788 -5.12457e-19)
(0.349836 4.70497 0)
(0.884922 4.37793 -3.79985e-19)
(0.657147 3.84036 9.7016e-19)
(0.56287 4.62876 4.49244e-19)
(0.711107 4.17434 -1.90553e-19)
(0.570904 4.30512 1.53291e-19)
(0.880704 4.62285 -6.67299e-19)
(0.715769 4.63865 0)
(0.824666 4.5673 5.07264e-19)
(-0.0172498 4.5371 -1.81969e-19)
(-0.0301615 3.62268 0)
(0.0780719 4.26578 5.49945e-19)
(-0.0236819 4.36063 0)
(-0.0143866 3.44952 -4.50536e-19)
(-0.021271 2.90038 0)
(-0.122947 4.32638 -2.92653e-19)
(-0.129399 4.65881 0)
(-0.0724342 3.84203 0)
(-0.0615545 3.78625 3.29146e-19)
(-0.0593344 3.83915 1.04499e-20)
(-0.0447354 3.67507 6.26489e-19)
(-0.0445951 2.91562 4.07528e-21)
(-0.136154 4.67163 1.81907e-19)
(-0.127169 4.70983 1.04098e-19)
(-0.0260911 2.72328 0)
(-0.0050171 2.23201 0)
(-0.0673291 4.75546 4.90323e-19)
(-0.0749719 4.32036 4.30629e-19)
(-0.107174 4.57611 -5.61817e-19)
(-0.0109871 4.73232 0)
(-0.0887603 4.45387 -3.13163e-19)
(-0.124232 4.06884 1.29338e-19)
(-0.0948084 4.16899 -4.16521e-20)
(-0.0930831 4.6871 -2.20952e-19)
(-0.100696 4.19854 -6.90233e-20)
(-0.097636 4.15052 3.08001e-19)
(2.87496 0.0599642 -2.36025e-18)
(2.86393 0.0481761 2.26967e-18)
(2.34241 0.0338798 0)
(3.52076 0.186106 3.04183e-18)
(2.71642 0.123736 -3.30036e-18)
(2.26705 0.0624218 3.60528e-18)
(3.69493 0.326426 -4.01075e-19)
(3.20799 -0.0494612 0)
(3.16934 -0.0149437 2.23454e-18)
(2.68824 -0.0129726 -2.21692e-18)
(3.87227 0.116832 -1.25101e-19)
(3.76718 0.0980577 1.07712e-18)
(4.15556 0.16636 0)
(4.22589 0.174033 -3.74645e-19)
(4.01678 0.140201 0)
(3.70036 0.151471 0)
(4.03281 0.0929718 0)
(3.71342 0.0855444 0)
(4.18446 0.108975 7.84366e-19)
(4.13792 0.0752491 -1.74563e-18)
(4.13802 0.109325 -8.47046e-19)
(4.18435 0.111635 -9.23268e-19)
(4.21121 0.221099 1.77201e-18)
(3.84752 0.183041 0)
(4.05149 0.291542 0)
(-0.0834111 4.49782 -1.36691e-19)
(-0.034699 4.57637 -1.17334e-20)
(-0.0730869 4.60514 0)
(-0.0598342 4.09852 1.39151e-19)
(-0.053576 4.12437 2.25569e-20)
(-0.0583094 3.98271 -2.18836e-20)
(-0.086164 3.4444 2.61722e-19)
(-0.151578 3.91888 -1.45402e-20)
(-0.115329 4.05577 7.50778e-20)
(-0.0783937 3.31404 -1.32247e-19)
(-0.0278589 2.84387 1.58411e-19)
(-0.0876299 4.45952 5.22778e-21)
(-0.10317 4.62305 1.72521e-19)
(1.20746 4.32168 3.52086e-19)
(1.12239 4.49555 7.28245e-19)
(1.70079 3.42217 4.39457e-19)
(1.28049 3.52417 1.73479e-19)
(1.26286 2.85544 0)
(0.554261 2.365 2.7602e-19)
(0.469741 1.78005 3.32163e-19)
(0.343978 2.60613 1.5334e-20)
(0.488258 3.21784 -1.16255e-18)
(0.629962 3.17856 8.78869e-19)
(0.435291 2.44695 0)
(0.296 2.00696 -5.59016e-19)
(0.249351 3.09965 1.39595e-18)
(0.267261 2.75082 -3.22367e-20)
(0.153984 2.30306 -1.75028e-18)
(0.609589 1.45433 1.47256e-18)
(0.590666 1.66163 0)
(3.58361 -0.0754887 8.634e-20)
(3.61853 -0.254395 -7.25183e-20)
(3.7212 -0.218149 -1.26517e-18)
(3.75917 -0.126522 1.28102e-18)
(3.67612 -0.0493524 0)
(2.40929 3.83319 0)
(2.58687 3.87877 0)
(2.85775 3.58404 0)
(2.70706 3.61389 0)
(0.881461 1.43898 -3.6798e-21)
(0.632193 1.07332 0)
(1.73544 3.44271 1.50625e-20)
(1.42729 3.50831 0)
(1.35118 3.01814 -1.28968e-18)
(1.43213 2.95216 8.27949e-19)
(1.82066 0.31095 0)
(1.45729 0.263802 3.52577e-19)
(2.43912 0.355606 2.19205e-18)
(1.81189 0.282782 -7.86176e-19)
(1.44509 0.11148 -2.49504e-18)
(4.25513 0.771537 -2.56413e-18)
(3.86929 0.979599 -3.59423e-20)
(3.32997 0.835196 2.06736e-18)
(3.8924 0.731435 1.81239e-18)
(3.14907 0.458588 -3.04353e-18)
(2.93848 0.446681 3.74897e-19)
(3.22636 0.676179 -8.18601e-19)
(3.00898 0.673955 0)
(3.7781 0.551381 1.53627e-18)
(4.10429 0.614736 0)
(4.09998 0.75831 0)
(4.03107 0.404813 8.23108e-19)
(4.2876 0.626393 -3.04833e-20)
(4.22854 0.697957 -4.52218e-19)
(4.15734 0.625992 0)
(3.62292 0.125881 1.71553e-18)
(4.1905 0.176263 2.14079e-18)
(4.09367 0.145864 -1.67683e-18)
(4.14044 0.232274 -1.44058e-18)
(3.75371 0.231087 -2.15304e-18)
(3.32478 0.368993 0)
(3.41753 0.2948 0)
(2.57536 0.187591 -1.26466e-18)
(2.12665 0.11739 4.7641e-19)
(4.04305 0.342531 1.93723e-18)
(4.28093 0.4199 -2.34484e-18)
(4.28562 0.475382 2.06701e-18)
(4.16184 0.478205 0)
(4.25163 0.325305 0)
(4.26135 0.313943 -9.77756e-19)
(4.21407 0.306091 -1.59396e-18)
(2.243 3.51454 6.20562e-19)
(1.96672 3.28072 -6.84922e-19)
(1.48636 2.41857 -1.03669e-18)
(1.22502 2.05392 2.68125e-19)
(0.913075 1.42257 -2.64327e-18)
(0.819135 1.25327 9.26199e-19)
(0.620057 0.932665 -1.89951e-21)
(1.15045 1.83813 -1.14348e-18)
(1.17851 1.9391 1.70696e-18)
(1.00613 1.7489 5.08416e-19)
(0.810827 1.32724 -5.15076e-19)
(0.654984 1.10597 0)
(2.48407 2.63815 -1.15522e-19)
(0.747876 1.17115 8.63553e-19)
(0.970284 0.925734 1.16378e-18)
(0.793474 0.841505 1.34805e-18)
(1.12732 0.776712 1.34921e-18)
(1.52279 1.08249 -2.28291e-18)
(1.43753 1.11157 1.84992e-18)
(1.04432 0.798037 -6.81265e-19)
(0.850892 0.59233 1.50406e-18)
(1.65694 0.500369 -7.79889e-19)
(1.60272 0.522033 0)
(1.27527 0.417672 4.9222e-21)
(2.56305 1.53984 7.78454e-19)
(2.14162 1.30027 -2.81967e-18)
(1.74593 1.22255 1.01167e-20)
(1.71897 1.12498 0)
(2.88587 2.60447 8.74487e-19)
(3.42598 2.72769 1.03701e-18)
(3.23988 2.91416 -1.19536e-18)
(3.52254 2.73395 -4.28575e-19)
(3.4419 2.56443 -1.35434e-19)
(3.47322 2.75791 1.39258e-19)
(3.66781 2.24347 -1.67872e-18)
(3.67695 2.46852 4.0221e-19)
(3.74733 2.40172 0)
(3.74697 2.16112 -5.80421e-19)
(4.05006 1.05659 5.80666e-19)
(4.25749 0.973523 1.00262e-18)
(4.28652 0.945742 1.01146e-18)
(4.0499 1.30897 -1.1496e-18)
(4.07848 1.32607 0)
(4.12616 1.21039 0)
(3.36377 1.23015 -1.46537e-20)
(2.46406 0.672346 0)
(2.76497 0.744612 9.31902e-19)
(3.27367 0.877966 -2.57411e-20)
(3.78277 1.52027 5.10719e-18)
(3.58328 1.75058 1.3114e-18)
(3.50273 1.53436 -1.34182e-18)
(3.07946 1.37394 1.43867e-18)
(2.81123 1.38069 8.25655e-19)
(2.36614 1.17504 -7.99659e-19)
(3.67154 -0.0863409 1.98244e-18)
(3.89458 -0.029785 0)
(3.85881 -0.0673558 1.34054e-18)
(3.74264 -0.0601761 -2.98444e-18)
(3.98054 0.0362035 1.4602e-18)
(3.90472 0.112295 -3.07921e-18)
(3.74032 0.126829 0)
(3.557 0.172769 -6.27769e-19)
(3.81215 0.122275 1.60334e-18)
(3.69222 0.190747 -8.21567e-19)
(3.60068 0.17047 5.89979e-19)
(-0.0874219 2.65927 0)
(-0.0591071 3.45162 0)
(-0.0400475 2.52137 0)
(-0.0263808 2.0301 0)
(0.0251677 3.95378 6.8128e-19)
(0.119476 3.73834 -1.76916e-19)
(0.285606 4.62414 -2.31648e-19)
(0.223686 4.44967 2.44245e-19)
(-0.0472014 4.30005 -5.03692e-19)
(-0.012223 4.32946 3.78183e-19)
(0.0735302 3.88872 2.17049e-20)
(-0.00605384 3.58789 -4.72127e-19)
(-0.0248204 3.35335 -6.3105e-20)
(-0.0549834 3.7057 -5.75044e-20)
(0.127625 4.45332 -5.8738e-19)
(0.154405 4.27413 0)
(0.245964 4.61498 2.96233e-19)
(0.237141 4.68405 2.5356e-19)
(0.56563 4.43519 -2.26346e-19)
(0.391918 3.80062 0)
(0.441544 3.6512 -1.11568e-18)
(0.542873 4.01843 7.90603e-19)
(0.449707 4.54801 -6.15255e-19)
(0.340949 4.42206 3.31115e-19)
(0.275922 4.15779 0)
(-0.0583939 4.72493 -5.57431e-19)
(-0.0939059 4.47511 -6.43901e-19)
(-0.0986601 4.69186 0)
(-0.0470751 4.31984 -6.11258e-21)
(-0.0420321 4.60326 2.76043e-19)
(-0.137165 3.92936 4.53967e-20)
(-0.068742 3.5603 -6.65299e-19)
(-0.116198 3.98092 1.77451e-19)
(-0.164581 4.52761 2.36282e-19)
(-0.100972 4.34721 0)
(-0.0830232 3.95509 0)
(-0.0903764 3.01539 2.05924e-19)
(-0.0624426 3.73204 -6.42427e-20)
(-0.0882149 3.71176 0)
(-0.0926012 2.79539 1.62308e-19)
(-0.0493292 2.29656 -3.14322e-19)
(3.75921 0.0303535 0)
(3.72986 0.0057026 -2.03049e-19)
(4.17875 0.0644559 -1.4382e-18)
(4.08715 0.0429215 0)
(3.87316 0.0146957 0)
(4.1495 0.0344074 -1.23786e-20)
(4.10011 0.0326591 2.37598e-18)
(4.0011 0.0774733 2.84182e-18)
(3.75793 0.11639 0)
(3.56073 0.107969 0)
(4.01495 0.0901904 1.41567e-18)
(3.70639 0.113187 0)
(3.476 0.126653 0)
(-0.10026 4.63755 0)
(-0.11832 4.62909 1.0655e-20)
(-0.0947039 4.6687 6.46292e-20)
(-0.0748186 3.9142 0)
(-0.125996 4.53111 1.12195e-19)
(-0.083148 4.28863 -6.46028e-20)
(-0.0700783 4.02498 0)
(1.39328 4.20092 0)
(1.17429 4.55054 -1.30151e-18)
(1.19328 4.47336 0)
(1.53857 4.45344 1.49085e-18)
(1.55675 4.07654 0)
(1.46441 4.33174 -6.10136e-19)
(1.03728 2.3042 -3.41528e-20)
(0.731133 1.69478 -1.75566e-18)
(0.609541 1.26531 2.14199e-18)
(0.725056 1.88604 3.99142e-19)
(0.993651 2.48585 0)
(1.05944 2.44077 0)
(0.736737 1.7372 0)
(0.546689 1.37031 -1.40358e-18)
(1.20741 3.81294 -9.85683e-19)
(1.14059 3.04893 -2.36267e-19)
(1.33595 3.45593 1.93233e-19)
(0.606522 2.08755 0)
(0.632132 1.99202 0)
(0.471419 1.61222 -3.94814e-19)
(0.968893 2.77814 0)
(2.67342 3.55643 0)
(2.4071 3.03833 -1.45681e-18)
(2.56443 3.04489 -8.59338e-20)
(2.43269 3.42161 0)
(2.31472 3.18534 2.22459e-18)
(3.25968 3.064 -3.90583e-19)
(3.09734 3.28629 0)
(3.08275 3.11316 6.32483e-19)
(2.84934 3.39429 0)
(2.87119 3.19417 0)
(1.24524 2.06783 -9.35302e-19)
(1.45339 2.47045 -7.0233e-19)
(1.78563 3.04099 1.20985e-18)
(1.72738 3.02208 -3.63823e-19)
(1.09417 1.87876 0)
(1.23674 2.27049 4.73082e-19)
(0.741626 1.33011 -7.1954e-19)
(0.600178 1.07786 -5.82683e-22)
(1.9452 3.72898 0)
(2.20051 3.75748 -5.42692e-19)
(2.321 3.97115 0)
(2.32122 0.527153 0)
(1.64974 0.34421 0)
(1.23831 0.280417 0)
(2.25082 0.555379 -1.46716e-18)
(1.67367 0.407126 8.19049e-19)
(2.16508 0.127181 -9.84391e-19)
(2.64982 0.293365 0)
(2.48981 0.298194 4.13379e-19)
(1.79067 0.134331 1.63264e-18)
(1.54685 0.0806524 -1.03664e-18)
(0.769572 1.59697 8.62415e-19)
(0.992167 1.86879 0)
(0.555906 1.47556 1.57039e-18)
(0.546335 1.64656 -1.43349e-18)
(0.789312 1.85308 -9.95557e-19)
(2.12059 2.50819 1.34248e-18)
(2.14188 2.75869 0)
(1.64295 1.72949 -2.7789e-19)
(2.06772 2.03707 1.75022e-18)
(1.41706 1.33948 -4.2598e-19)
(1.64853 1.35836 4.53217e-19)
(2.17118 1.54914 1.02764e-18)
(2.50203 1.70015 0)
(2.33256 1.8938 0)
(2.07145 1.6482 0)
(3.93176 2.05195 3.85968e-19)
(3.76059 1.87206 -1.26381e-18)
(3.80985 2.00714 1.0468e-18)
(3.89592 1.75034 -1.00844e-18)
(4.13181 1.64958 0)
(4.08555 1.81317 -2.98255e-19)
(2.89016 1.16979 -1.90128e-18)
(3.01486 1.16453 -2.41525e-18)
(2.38859 1.05758 1.4597e-18)
(2.19404 0.948955 -1.42469e-18)
(2.51437 0.85268 -1.18061e-18)
(2.23055 0.788484 1.45181e-18)
(4.00832 0.0321839 -1.52704e-18)
(4.05263 0.0391138 3.1263e-18)
(3.76724 -0.0670126 1.89871e-18)
(3.79037 -0.0749741 -2.28413e-18)
(3.95854 0.00859987 0)
(4.0555 0.0208282 -3.72516e-18)
(0.0681233 4.73091 1.07133e-19)
(0.0392277 4.70546 0)
(0.158723 4.70436 9.57411e-19)
(0.17945 4.72255 -8.71114e-19)
(0.199023 4.69456 4.31898e-19)
(0.0924397 4.63992 0)
(-0.124267 4.72952 0)
(-0.128596 4.41073 -6.27017e-20)
(-0.126721 4.36021 5.62209e-20)
(-0.134249 4.48418 7.62306e-21)
(-0.12574 4.6686 -1.02372e-19)
(-0.104869 4.65786 5.54679e-20)
(1.86629 4.01503 -1.64526e-18)
(1.80258 4.02547 1.74318e-18)
(1.6511 4.3777 -8.56913e-19)
(1.67697 4.2784 7.62822e-20)
(2.22099 4.03854 0)
(1.81834 4.17316 -6.42491e-19)
(1.94585 3.91357 6.23058e-19)
(1.78608 4.33913 8.37031e-19)
(2.04158 4.19114 0)
(2.19865 4.07129 0)
(1.13734 3.67233 1.49849e-18)
(0.833616 2.86585 2.0315e-18)
(0.960771 3.04517 -1.39508e-18)
(0.751871 3.02553 -2.32875e-19)
(0.897748 3.77327 4.67618e-19)
(0.720402 3.41173 -1.13719e-18)
(0.76888 1.51034 -1.22229e-18)
(0.767758 1.35876 0)
(0.620478 1.14941 -1.34333e-18)
(1.13966 2.12342 0)
(1.11757 2.21028 0)
(1.4068 2.24133 -1.09648e-18)
(1.10114 2.06498 -1.04141e-18)
(1.054 2.08264 1.10503e-18)
(1.08367 1.56088 0)
(1.46968 1.81263 -6.04388e-19)
(1.68067 2.17357 -8.57464e-19)
(1.46139 2.1323 0)
(0.907395 1.85601 7.17522e-19)
(0.82018 1.71153 0)
(2.93808 2.3037 -1.84741e-18)
(3.32342 2.46429 2.60836e-18)
(3.29381 2.19087 -2.59238e-18)
(2.65782 2.04713 -2.31521e-19)
(2.76999 1.96052 -9.75351e-19)
(1.3035 2.24544 8.00361e-19)
(1.3578 2.30409 -1.36606e-18)
(1.50113 2.38523 1.80056e-18)
(1.83592 2.61295 -1.17008e-18)
(1.92692 2.98804 -1.57119e-18)
(1.60629 2.54898 -1.18906e-19)
(1.67494 2.69107 1.37693e-18)
(1.85471 2.75034 9.70056e-20)
(2.05412 3.04768 6.52167e-19)
)
;

boundaryField
{
    wall-4
    {
        type            noSlip;
    }
    velocity-inlet-5
    {
        type            fixedValue;
        value           uniform (3 0 0);
    }
    velocity-inlet-6
    {
        type            fixedValue;
        value           uniform (0 1 0);
    }
    pressure-outlet-7
    {
        type            zeroGradient;
    }
    wall-8
    {
        type            noSlip;
    }
    frontAndBackPlanes
    {
        type            empty;
    }
}


// ************************************************************************* //
