/*--------------------------------*- C++ -*----------------------------------*\
  =========                 |
  \\      /  F ield         | OpenFOAM: The Open Source CFD Toolbox
   \\    /   O peration     | Website:  https://openfoam.org
    \\  /    A nd           | Version:  9
     \\/     M anipulation  |
\*---------------------------------------------------------------------------*/
FoamFile
{
    format      ascii;
    class       surfaceScalarField;
    location    "8.17";
    object      phi;
}
// * * * * * * * * * * * * * * * * * * * * * * * * * * * * * * * * * * * * * //

dimensions      [0 3 -1 0 0 0 0];

internalField   nonuniform List<scalar> 
4432
(
6.09054e-08
-6.09054e-08
1.53296e-07
-9.23906e-08
2.56523e-07
-1.03226e-07
3.62227e-07
-1.05702e-07
4.68892e-07
-1.06664e-07
5.75735e-07
-1.0684e-07
6.8183e-07
-1.06093e-07
7.8555e-07
-1.03716e-07
8.82906e-07
-9.73516e-08
9.70518e-07
-8.76073e-08
1.05091e-06
-8.0388e-08
1.13414e-06
-8.32229e-08
1.23523e-06
-1.01091e-07
1.36254e-06
-1.27301e-07
1.49968e-06
-1.3714e-07
1.57716e-06
-7.74862e-08
1.46294e-06
1.14222e-07
1.11067e-06
3.52269e-07
4.88424e-07
6.22247e-07
-2.84439e-07
7.7286e-07
-6.86703e-07
4.02258e-07
-5.83494e-07
-1.03215e-07
-5.83501e-07
7.54225e-08
-1.36327e-07
1.69248e-07
-1.86215e-07
2.7222e-07
-2.06198e-07
3.79111e-07
-2.12589e-07
4.86618e-07
-2.1417e-07
5.92998e-07
-2.13214e-07
6.97023e-07
-2.10113e-07
7.96783e-07
-2.0347e-07
8.88973e-07
-1.89533e-07
9.70504e-07
-1.69132e-07
1.04217e-06
-1.52053e-07
1.11003e-06
-1.51075e-07
1.18248e-06
-1.73537e-07
1.26274e-06
-2.07554e-07
1.33742e-06
-2.11829e-07
1.36204e-06
-1.02103e-07
1.25555e-06
2.20714e-07
9.64816e-07
6.42997e-07
5.43318e-07
1.04374e-06
6.55075e-08
1.25066e-06
-2.92726e-07
7.60482e-07
-4.24392e-07
2.84387e-08
-1.00789e-06
8.7663e-08
-2.2399e-07
1.83809e-07
-2.8236e-07
2.85378e-07
-3.07767e-07
3.90686e-07
-3.17895e-07
4.96375e-07
-3.19859e-07
6.00296e-07
-3.17133e-07
7.0103e-07
-3.10845e-07
7.96605e-07
-2.99044e-07
8.83679e-07
-2.76605e-07
9.58661e-07
-2.44111e-07
1.02086e-06
-2.14248e-07
1.07358e-06
-2.03794e-07
1.12219e-06
-2.22145e-07
1.16883e-06
-2.54195e-07
1.20526e-06
-2.48253e-07
1.20125e-06
-9.80979e-08
1.09403e-06
3.27937e-07
8.48422e-07
8.88602e-07
5.55215e-07
1.33694e-06
2.76013e-07
1.52986e-06
-3.97148e-08
1.0762e-06
-2.47935e-07
2.36654e-07
-1.25583e-06
9.6048e-08
-3.20038e-07
1.95865e-07
-3.82177e-07
2.97733e-07
-4.09637e-07
4.01995e-07
-4.22157e-07
5.05917e-07
-4.23783e-07
6.07311e-07
-4.18529e-07
7.04756e-07
-4.08294e-07
7.96355e-07
-3.90645e-07
8.78521e-07
-3.58773e-07
9.46862e-07
-3.12454e-07
9.99254e-07
-2.66642e-07
1.03703e-06
-2.41568e-07
1.06394e-06
-2.4906e-07
1.0826e-06
-2.7285e-07
1.091e-06
-2.56653e-07
1.07524e-06
-8.23405e-08
9.82338e-07
4.20844e-07
7.84186e-07
1.08676e-06
5.71309e-07
1.54982e-06
3.99633e-07
1.70154e-06
1.46444e-07
1.32939e-06
-7.8652e-08
4.61751e-07
-1.33448e-06
1.01907e-07
-4.21947e-07
2.05845e-07
-4.86116e-07
3.09346e-07
-5.13142e-07
4.1341e-07
-5.26223e-07
5.1589e-07
-5.26268e-07
6.1477e-07
-5.17413e-07
7.08819e-07
-5.02348e-07
7.96344e-07
-4.78175e-07
8.73518e-07
-4.35952e-07
9.3502e-07
-3.7396e-07
9.77414e-07
-3.09038e-07
1.00048e-06
-2.64638e-07
1.00706e-06
-2.55638e-07
1.00051e-06
-2.66298e-07
9.84223e-07
-2.40369e-07
9.62221e-07
-6.03354e-08
8.96238e-07
4.86831e-07
7.42945e-07
1.24005e-06
5.88108e-07
1.70466e-06
4.7961e-07
1.81004e-06
2.78607e-07
1.5304e-06
8.26142e-08
6.57748e-07
-1.25186e-06
1.06733e-07
-5.28682e-07
2.14735e-07
-5.9412e-07
3.20479e-07
-6.18891e-07
4.24874e-07
-6.30622e-07
5.26066e-07
-6.27464e-07
6.22247e-07
-6.13598e-07
7.125e-07
-5.92607e-07
7.95512e-07
-5.61193e-07
8.67339e-07
-5.07785e-07
9.2179e-07
-4.28415e-07
9.54306e-07
-3.41556e-07
9.63391e-07
-2.73725e-07
9.51182e-07
-2.4343e-07
9.21295e-07
-2.36411e-07
8.80395e-07
-1.99467e-07
8.44742e-07
-2.46796e-08
8.19225e-07
5.12351e-07
7.07878e-07
1.35141e-06
6.04719e-07
1.80782e-06
5.40924e-07
1.87384e-06
3.84249e-07
1.68708e-06
2.56449e-07
7.85556e-07
-9.95403e-07
1.11479e-07
-6.40165e-07
2.23352e-07
-7.05995e-07
3.31295e-07
-7.26838e-07
4.36103e-07
-7.35433e-07
5.35856e-07
-7.2722e-07
6.2887e-07
-7.06617e-07
7.14592e-07
-6.78333e-07
7.92256e-07
-6.38861e-07
8.58064e-07
-5.73596e-07
9.05216e-07
-4.7557e-07
9.28327e-07
-3.6467e-07
9.24839e-07
-2.70238e-07
8.9618e-07
-2.14772e-07
8.45454e-07
-1.85683e-07
7.79708e-07
-1.33719e-07
7.19772e-07
3.52587e-08
7.11625e-07
5.20501e-07
6.76935e-07
1.3861e-06
6.33668e-07
1.85109e-06
5.80945e-07
1.92656e-06
5.19549e-07
1.74848e-06
4.68381e-07
8.36732e-07
-5.27018e-07
1.16851e-07
-7.57018e-07
2.31985e-07
-8.21131e-07
3.41707e-07
-8.36563e-07
4.4658e-07
-8.40307e-07
5.44445e-07
-8.25084e-07
6.33582e-07
-7.95753e-07
7.13713e-07
-7.58462e-07
7.8477e-07
-7.09916e-07
8.43515e-07
-6.32338e-07
8.8303e-07
-5.15082e-07
8.97578e-07
-3.79215e-07
8.83737e-07
-2.56394e-07
8.42156e-07
-1.73188e-07
7.75067e-07
-1.18592e-07
6.88151e-07
-4.68004e-08
6.031e-07
1.20312e-07
5.73578e-07
5.50025e-07
6.25604e-07
1.33407e-06
6.55601e-07
1.8211e-06
6.19554e-07
1.96261e-06
6.91291e-07
1.67675e-06
6.5534e-07
8.72685e-07
1.2832e-07
-1.27936e-06
1.27936e-06
-8.66729e-07
-4.12629e-07
-2.37563e-07
-6.29175e-07
1.72873e-07
-4.1044e-07
4.48753e-07
-2.75886e-07
6.23952e-07
-1.75201e-07
7.20046e-07
-9.61005e-08
8.51195e-07
-1.31147e-07
9.34022e-07
-8.28295e-08
8.14521e-07
1.19501e-07
4.3944e-07
3.75081e-07
-3.19118e-07
7.5856e-07
-1.10765e-06
7.88536e-07
-1.34397e-06
2.36321e-07
-1.27555e-06
-6.84195e-08
-9.89298e-07
-2.8625e-07
-7.11736e-07
-2.77561e-07
-2.23691e-07
-4.88042e-07
-2.23691e-07
-8.64321e-07
2.14367e-06
-4.94238e-07
-7.82714e-07
-1.60317e-07
-9.63108e-07
5.819e-08
-6.28953e-07
1.85961e-07
-4.03668e-07
2.67263e-07
-2.565e-07
3.56886e-07
-1.85731e-07
4.28967e-07
-2.03226e-07
4.03164e-07
-5.70274e-08
2.26185e-07
2.96481e-07
-2.93602e-08
6.30628e-07
-3.72575e-07
1.10178e-06
-7.15311e-07
1.13127e-06
-9.59929e-07
4.80943e-07
-1.02272e-06
-5.62826e-09
-9.51178e-07
-3.57785e-07
-8.96272e-07
-3.32465e-07
-6.12254e-07
-7.72055e-07
-8.35945e-07
-3.44677e-07
2.48833e-06
-1.89486e-07
-9.37904e-07
-8.9755e-08
-1.06285e-06
-1.82037e-08
-7.00505e-07
1.90012e-08
-4.4088e-07
4.66644e-08
-2.8416e-07
8.87316e-08
-2.27801e-07
1.19539e-07
-2.34031e-07
5.8079e-08
4.43389e-09
-1.31877e-07
4.86439e-07
-3.22785e-07
8.21537e-07
-4.31195e-07
1.21019e-06
-5.2863e-07
1.22871e-06
-7.21086e-07
6.73401e-07
-8.30947e-07
1.04234e-07
-8.61135e-07
-3.27596e-07
-9.71259e-07
-2.22342e-07
-8.30314e-07
-9.12998e-07
-1.66626e-06
1.12053e-07
2.37627e-06
4.25871e-08
-8.68435e-07
-5.13515e-08
-9.68911e-07
-9.68986e-08
-6.54954e-07
-1.26691e-07
-4.11091e-07
-1.4854e-07
-2.62306e-07
-1.44177e-07
-2.32164e-07
-1.38461e-07
-2.39742e-07
-1.99892e-07
6.58669e-08
-3.6622e-07
6.52769e-07
-4.99064e-07
9.54382e-07
-5.00741e-07
1.21187e-06
-4.79837e-07
1.20781e-06
-5.91128e-07
7.84693e-07
-6.73553e-07
1.86658e-07
-7.18852e-07
-2.82297e-07
-8.97535e-07
-4.36625e-08
-7.92978e-07
-1.01755e-06
-2.45924e-06
4.47786e-07
1.92849e-06
1.69649e-07
-5.90291e-07
-5.98723e-08
-7.39389e-07
-1.8897e-07
-5.2585e-07
-2.72452e-07
-3.2761e-07
-3.34406e-07
-2.00347e-07
-3.64873e-07
-2.01695e-07
-3.74905e-07
-2.29707e-07
-4.19891e-07
1.10855e-07
-5.42452e-07
7.75332e-07
-6.13569e-07
1.0255e-06
-5.61101e-07
1.1594e-06
-4.92789e-07
1.13949e-06
-5.44334e-07
8.36237e-07
-5.31908e-07
1.74229e-07
-5.18332e-07
-2.95875e-07
-6.60165e-07
9.81668e-08
-5.88148e-07
-1.08957e-06
-3.04739e-06
5.28243e-07
1.40024e-06
1.73054e-07
-2.35093e-07
-1.19787e-07
-4.46545e-07
-2.97894e-07
-3.47736e-07
-4.18938e-07
-2.06566e-07
-5.14255e-07
-1.05025e-07
-5.7654e-07
-1.3941e-07
-5.97422e-07
-2.08822e-07
-6.1203e-07
1.25466e-07
-6.85346e-07
8.48649e-07
-7.00023e-07
1.04018e-06
-6.12313e-07
1.07169e-06
-5.11838e-07
1.03902e-06
-5.17664e-07
8.42061e-07
-4.20367e-07
7.69291e-08
-2.85476e-07
-4.30768e-07
-3.07713e-07
1.204e-07
-3.01854e-07
-1.09543e-06
-3.34925e-06
4.03153e-07
9.97092e-07
7.10186e-08
9.70495e-08
-2.21436e-07
-1.54085e-07
-4.20016e-07
-1.4915e-07
-5.64055e-07
-6.25254e-08
-6.85384e-07
1.63072e-08
-7.77677e-07
-4.71155e-08
-8.14759e-07
-1.71738e-07
-7.94805e-07
1.05514e-07
-7.92542e-07
8.46387e-07
-7.65835e-07
1.01347e-06
-6.50731e-07
9.56583e-07
-5.27161e-07
9.15447e-07
-4.67418e-07
7.82316e-07
-2.88523e-07
-1.01968e-07
-9.63227e-08
-6.22969e-07
6.63989e-09
1.74352e-08
3.24131e-08
-1.12121e-06
-3.31684e-06
1.6725e-07
8.29848e-07
-8.18936e-08
3.46194e-07
-3.45975e-07
1.09998e-07
-5.48487e-07
5.33631e-08
-7.03649e-07
9.26346e-08
-8.42223e-07
1.54882e-07
-9.58464e-07
6.9124e-08
-1.03029e-06
-9.99092e-08
-9.78446e-07
5.36652e-08
-8.81296e-07
7.49236e-07
-8.04088e-07
9.36261e-07
-6.65596e-07
8.1809e-07
-5.29849e-07
7.79699e-07
-3.65589e-07
6.18056e-07
-1.25093e-07
-3.42464e-07
4.93105e-08
-7.97372e-07
2.93404e-07
-2.26658e-07
3.12126e-07
-1.13993e-06
-3.00471e-06
2.68999e-07
-1.02602e-06
5.21485e-07
-1.07361e-06
7.59138e-07
-1.07421e-06
9.80232e-07
-1.0614e-06
1.1799e-06
-1.02475e-06
1.35399e-06
-9.69839e-07
1.50114e-06
-9.05612e-07
1.62445e-06
-8.33223e-07
1.72164e-06
-7.29528e-07
1.7784e-06
-5.71836e-07
1.78543e-06
-3.86246e-07
1.73131e-06
-2.02271e-07
1.6164e-06
-5.82687e-08
1.44026e-06
5.75439e-08
1.21478e-06
1.78685e-07
9.83433e-07
3.51655e-07
8.82389e-07
6.51067e-07
1.06741e-06
1.14905e-06
1.31391e-06
1.5746e-06
1.55569e-06
1.72084e-06
1.79539e-06
1.43705e-06
1.68002e-06
9.88055e-07
7.68879e-07
1.03946e-06
3.05058e-07
-1.33108e-06
5.58097e-07
-1.32665e-06
7.80696e-07
-1.29681e-06
9.9248e-07
-1.27318e-06
1.18426e-06
-1.21653e-06
1.3385e-06
-1.12408e-06
1.44756e-06
-1.01467e-06
1.51096e-06
-8.96625e-07
1.53791e-06
-7.56482e-07
1.54308e-06
-5.76998e-07
1.53366e-06
-3.76833e-07
1.49931e-06
-1.67921e-07
1.41732e-06
2.37196e-08
1.27295e-06
2.01912e-07
1.07036e-06
3.81281e-07
8.48218e-07
5.73793e-07
7.12115e-07
7.87168e-07
8.40737e-07
1.02042e-06
1.15853e-06
1.2568e-06
1.49486e-06
1.38451e-06
1.6006e-06
1.33131e-06
1.32419e-06
1.26447e-06
1.27402e-06
8.19029e-07
1.77278e-07
-1.50835e-06
3.52371e-07
-1.5018e-06
5.66566e-07
-1.51109e-06
7.28764e-07
-1.43546e-06
8.64297e-07
-1.35215e-06
1.00284e-06
-1.2627e-06
1.11086e-06
-1.12277e-06
1.14047e-06
-9.26304e-07
1.10211e-06
-7.18181e-07
1.07001e-06
-5.44944e-07
1.07258e-06
-3.7944e-07
1.1065e-06
-2.01869e-07
1.1028e-06
2.74012e-08
1.01648e-06
2.8822e-07
8.49729e-07
5.48039e-07
6.57605e-07
7.6593e-07
5.00356e-07
9.44439e-07
6.50878e-07
8.69934e-07
9.82506e-07
9.2522e-07
1.32287e-06
1.04421e-06
1.41541e-06
1.23884e-06
1.09953e-06
1.58045e-06
1.73483e-06
6.38832e-07
-7.04441e-07
-8.03921e-07
-1.51592e-08
-2.19066e-06
4.36212e-07
-1.9622e-06
3.81065e-07
-1.38009e-06
7.67376e-08
-1.0476e-06
2.66022e-07
-1.45177e-06
5.97465e-07
-1.45403e-06
8.11279e-07
-1.13996e-06
8.201e-07
-7.26869e-07
8.24467e-07
-5.49205e-07
8.55754e-07
-4.10649e-07
9.02442e-07
-2.48506e-07
9.86491e-07
-5.66216e-08
9.18238e-07
3.56472e-07
6.83087e-07
7.83162e-07
5.86894e-07
8.62079e-07
7.7224e-07
7.59044e-07
9.91338e-07
6.50786e-07
9.29511e-07
9.86987e-07
1.15715e-06
8.16488e-07
1.27118e-06
1.12475e-06
1.20031e-06
1.65122e-06
2.00068e-06
9.34277e-07
-1.68562e-06
8.8147e-07
-1.62539e-06
-2.25124e-06
-2.68748e-06
-9.00244e-07
-4.18561e-06
1.17889e-07
-5.0437e-06
-1.89668e-07
-4.92982e-06
-1.56577e-06
-3.81711e-06
-2.56683e-06
-2.61524e-06
-2.34189e-06
-1.85987e-06
-1.48229e-06
-1.19956e-06
-1.20954e-06
-5.63315e-07
-1.04691e-06
1.57108e-07
-9.68933e-07
1.14472e-06
-1.04422e-06
1.99127e-06
-4.90064e-07
2.42726e-06
3.47185e-07
2.82549e-06
4.63854e-07
2.98529e-06
5.9922e-07
2.74027e-06
8.95779e-07
1.44009e-06
2.28714e-06
5.75821e-07
1.68076e-06
3.1694e-07
1.38373e-06
3.79058e-07
1.58937e-06
2.04585e-06
3.34616e-07
2.75919e-06
-1.87726e-06
2.0552e-06
-1.54698e-06
-2.02447e-08
1.17557e-06
-9.57228e-07
1.0552e-06
-7.58327e-07
-3.8831e-07
-1.61599e-06
-7.07913e-07
-2.32402e-06
-1.85867e-06
-2.56014e-06
-2.10569e-06
-2.30069e-06
-1.74167e-06
-2.096e-06
-1.4142e-06
-1.99813e-06
-1.14478e-06
-1.92591e-06
-1.0412e-06
-1.55499e-06
-1.41522e-06
-7.00805e-07
-1.34434e-06
1.88353e-07
-5.42085e-07
2.6345e-07
3.88622e-07
-4.90344e-07
1.35283e-06
-1.13127e-06
1.53646e-06
-1.29339e-06
2.44897e-06
-2.01877e-06
2.40579e-06
-2.62893e-06
1.99337e-06
-2.85755e-06
1.81712e-06
1.69475e-06
-2.50729e-06
-1.93593e-07
-1.6838e-06
-1.14031e-06
-6.00119e-07
-1.06651e-06
1.10177e-06
-9.91962e-07
9.80622e-07
-1.25135e-06
-1.28968e-07
-1.47951e-06
-4.79813e-07
-2.12908e-06
-1.20915e-06
-2.71064e-06
-1.52417e-06
-3.03592e-06
-1.41642e-06
-3.26424e-06
-1.18589e-06
-3.4905e-06
-9.18508e-07
-3.64874e-06
-8.82922e-07
-3.33343e-06
-1.73048e-06
-2.63377e-06
-2.04395e-06
-1.96172e-06
-1.21408e-06
-1.74283e-06
1.69803e-07
-1.83157e-06
1.44163e-06
-2.35232e-06
2.05726e-06
-2.66906e-06
2.76581e-06
-3.19315e-06
2.93005e-06
-3.66251e-06
2.46294e-06
-3.67663e-06
1.83124e-06
1.73328e-06
-3.71528e-06
-1.30367e-06
-3.80227e-07
-1.90484e-06
1.19937e-09
-1.60284e-06
7.99808e-07
-1.38797e-06
7.65763e-07
-1.68141e-06
1.64464e-07
-1.90569e-06
-2.55519e-07
-2.38424e-06
-7.3058e-07
-2.92715e-06
-9.81223e-07
-3.32003e-06
-1.0235e-06
-3.56817e-06
-9.37699e-07
-3.70161e-06
-7.85007e-07
-3.70036e-06
-8.84098e-07
-3.76204e-06
-1.66872e-06
-3.87575e-06
-1.93016e-06
-3.86437e-06
-1.22537e-06
-3.71818e-06
2.36891e-08
-3.45417e-06
1.17768e-06
-3.47691e-06
2.08004e-06
-3.45366e-06
2.74263e-06
-3.42924e-06
2.90579e-06
-3.53839e-06
2.57236e-06
-3.77754e-06
2.07067e-06
1.76334e-06
-3.80737e-06
-6.77999e-07
2.9796e-07
-1.27277e-06
5.96204e-07
-1.4142e-06
9.41391e-07
-1.49117e-06
8.4284e-07
-1.76711e-06
4.40509e-07
-2.06461e-06
4.20701e-08
-2.4762e-06
-3.1891e-07
-2.91855e-06
-5.3881e-07
-3.24953e-06
-6.92469e-07
-3.45321e-06
-7.33994e-07
-3.53043e-06
-7.07797e-07
-3.56312e-06
-8.51426e-07
-3.94292e-06
-1.28895e-06
-4.46807e-06
-1.40506e-06
-4.78987e-06
-9.03639e-07
-4.72232e-06
-4.39735e-08
-4.45891e-06
9.14091e-07
-4.21714e-06
1.83802e-06
-3.95243e-06
2.4776e-06
-3.73899e-06
2.69203e-06
-3.68497e-06
2.51804e-06
-3.75965e-06
2.14508e-06
1.75755e-06
-3.75417e-06
-6.55532e-07
9.53711e-07
-1.08568e-06
1.02653e-06
-1.26621e-06
1.12208e-06
-1.42886e-06
1.00563e-06
-1.69352e-06
7.053e-07
-2.00665e-06
3.55337e-07
-2.37009e-06
4.46435e-08
-2.7259e-06
-1.82894e-07
-3.012e-06
-4.06301e-07
-3.22832e-06
-5.17643e-07
-3.39396e-06
-5.42169e-07
-3.60388e-06
-6.41545e-07
-4.02206e-06
-8.70845e-07
-4.52491e-06
-9.02306e-07
-4.84463e-06
-5.84023e-07
-4.89304e-06
4.30111e-09
-4.74039e-06
7.61251e-07
-4.45113e-06
1.54849e-06
-4.11689e-06
2.14301e-06
-3.83e-06
2.40472e-06
-3.6624e-06
2.34998e-06
-3.60146e-06
2.08367e-06
1.68817e-06
-3.53256e-06
-4.41633e-07
1.39547e-06
-8.10931e-07
1.39589e-06
-1.05233e-06
1.36354e-06
-1.26526e-06
1.21865e-06
-1.52047e-06
9.60604e-07
-1.82112e-06
6.56088e-07
-2.13834e-06
3.6196e-07
-2.43098e-06
1.09825e-07
-2.70718e-06
-1.30038e-07
-2.9609e-06
-2.6389e-07
-3.21509e-06
-2.87958e-07
-3.49508e-06
-3.61573e-07
-3.89173e-06
-4.74217e-07
-4.32353e-06
-4.70544e-07
-4.61908e-06
-2.88502e-07
-4.68499e-06
7.01858e-08
-4.55557e-06
6.31816e-07
-4.30644e-06
1.29932e-06
-3.99434e-06
1.83082e-06
-3.6913e-06
2.10156e-06
-3.44954e-06
2.10805e-06
-3.27133e-06
1.90531e-06
1.52423e-06
-3.10755e-06
-3.48678e-07
1.74417e-06
-6.41748e-07
1.68893e-06
-8.71518e-07
1.59331e-06
-1.08678e-06
1.43392e-06
-1.32527e-06
1.19912e-06
-1.58999e-06
9.20848e-07
-1.85968e-06
6.31686e-07
-2.11199e-06
3.62167e-07
-2.38459e-06
1.42581e-07
-2.67639e-06
2.79217e-08
-2.95666e-06
-7.67857e-09
-3.25104e-06
-6.71849e-08
-3.59867e-06
-1.26587e-07
-3.95235e-06
-1.16866e-07
-4.2088e-06
-3.20378e-08
-4.29852e-06
1.5994e-07
-4.21684e-06
5.50204e-07
-3.99221e-06
1.0748e-06
-3.71881e-06
1.55752e-06
-3.4218e-06
1.80466e-06
-3.13614e-06
1.82249e-06
-2.87477e-06
1.64407e-06
1.27947e-06
-2.62986e-06
-2.60854e-07
2.00498e-06
-5.00329e-07
1.92833e-06
-7.09061e-07
1.802e-06
-9.10174e-07
1.63501e-06
-1.12505e-06
1.41399e-06
-1.35731e-06
1.1531e-06
-1.58788e-06
8.62239e-07
-1.82156e-06
5.95844e-07
-2.09031e-06
4.11328e-07
-2.38362e-06
3.21222e-07
-2.65398e-06
2.62686e-07
-2.92653e-06
2.05375e-07
-3.2133e-06
1.60201e-07
-3.48707e-06
1.56926e-07
-3.71048e-06
1.91399e-07
-3.83975e-06
2.89263e-07
-3.81642e-06
5.26957e-07
-3.6425e-06
9.00996e-07
-3.40488e-06
1.32005e-06
-3.12083e-06
1.52077e-06
-2.82464e-06
1.52649e-06
-2.53768e-06
1.35729e-06
1.02182e-06
-2.27981e-06
-1.88595e-07
2.19352e-06
-3.81965e-07
2.12166e-06
-5.648e-07
1.98481e-06
-7.44459e-07
1.81465e-06
-9.33863e-07
1.60337e-06
-1.13782e-06
1.35703e-06
-1.34665e-06
1.07105e-06
-1.57787e-06
8.27048e-07
-1.83791e-06
6.71356e-07
-2.10075e-06
5.84058e-07
-2.34629e-06
5.08222e-07
-2.58317e-06
4.42271e-07
-2.81468e-06
3.91733e-07
-3.02631e-06
3.68582e-07
-3.21124e-06
3.76364e-07
-3.34789e-06
4.25964e-07
-3.37977e-06
5.58899e-07
-3.29255e-06
8.13854e-07
-3.08756e-06
1.11516e-06
-2.82785e-06
1.26119e-06
-2.55157e-06
1.25032e-06
-2.28666e-06
1.09251e-06
7.99847e-07
-2.06455e-06
-1.33801e-07
2.32728e-06
-2.85735e-07
2.2736e-06
-4.41652e-07
2.14073e-06
-5.98896e-07
1.9719e-06
-7.64813e-07
1.76928e-06
-9.44594e-07
1.5368e-06
-1.14878e-06
1.27522e-06
-1.37517e-06
1.05343e-06
-1.61658e-06
9.12751e-07
-1.84365e-06
8.11116e-07
-2.0576e-06
7.22163e-07
-2.25972e-06
6.44399e-07
-2.44982e-06
5.81837e-07
-2.62185e-06
5.40626e-07
-2.7696e-06
5.24131e-07
-2.88654e-06
5.42909e-07
-2.95013e-06
6.22517e-07
-2.91454e-06
7.78289e-07
-2.75546e-06
9.56109e-07
-2.53897e-06
1.04473e-06
-2.30408e-06
1.01546e-06
-2.08232e-06
8.70773e-07
6.23037e-07
-1.90549e-06
-9.284e-08
2.42012e-06
-2.11563e-07
2.39238e-06
-3.43481e-07
2.27269e-06
-4.81966e-07
2.11041e-06
-6.29692e-07
1.91702e-06
-7.92511e-07
1.69962e-06
-9.86547e-07
1.46925e-06
-1.20185e-06
1.26873e-06
-1.41363e-06
1.12452e-06
-1.61072e-06
1.0082e-06
-1.79529e-06
9.06713e-07
-1.96801e-06
8.17104e-07
-2.12788e-06
7.41691e-07
-2.27149e-06
6.84217e-07
-2.39579e-06
6.48412e-07
-2.49482e-06
6.41906e-07
-2.55001e-06
6.77683e-07
-2.52939e-06
7.57633e-07
-2.41896e-06
8.45634e-07
-2.25306e-06
8.78791e-07
-2.06772e-06
8.30065e-07
-1.89306e-06
6.96052e-07
4.86788e-07
-1.75687e-06
-6.34736e-08
2.48363e-06
-1.57299e-07
2.4863e-06
-2.72245e-07
2.3877e-06
-3.96018e-07
2.23423e-06
-5.30015e-07
2.05105e-06
-6.7999e-07
1.84962e-06
-8.54631e-07
1.6439e-06
-1.04449e-06
1.45859e-06
-1.22743e-06
1.30745e-06
-1.39901e-06
1.17976e-06
-1.55876e-06
1.06645e-06
-1.7071e-06
9.65419e-07
-1.8431e-06
8.77656e-07
-1.96449e-06
8.05568e-07
-2.06833e-06
7.52205e-07
-2.14866e-06
7.22183e-07
-2.19156e-06
7.20529e-07
-2.17772e-06
7.43726e-07
-2.10016e-06
7.67996e-07
-1.97832e-06
7.56878e-07
-1.83847e-06
6.90131e-07
-1.70563e-06
5.63126e-07
3.83202e-07
-1.60213e-06
-4.63684e-08
2.53006e-06
-1.25786e-07
2.56582e-06
-2.26128e-07
2.48811e-06
-3.3615e-07
2.3443e-06
-4.56784e-07
2.17172e-06
-5.91671e-07
1.98454e-06
-7.43055e-07
1.79531e-06
-9.03563e-07
1.61911e-06
-1.06059e-06
1.46448e-06
-1.20849e-06
1.32766e-06
-1.34628e-06
1.20423e-06
-1.47352e-06
1.09264e-06
-1.5892e-06
9.93308e-07
-1.6914e-06
9.07725e-07
-1.7771e-06
8.37866e-07
-1.84095e-06
7.85975e-07
-1.87347e-06
7.52993e-07
-1.86367e-06
7.33857e-07
-1.8086e-06
7.12843e-07
-1.72019e-06
6.68391e-07
-1.61671e-06
5.86566e-07
-1.51713e-06
4.63473e-07
3.04384e-07
-1.4384e-06
-3.9974e-08
2.5701e-06
-1.13689e-07
2.63962e-06
-1.98883e-07
2.57337e-06
-2.94277e-07
2.43976e-06
-3.99947e-07
2.27744e-06
-5.17141e-07
2.10177e-06
-6.45505e-07
1.9237e-06
-7.79798e-07
1.75343e-06
-9.12155e-07
1.59686e-06
-1.03804e-06
1.45355e-06
-1.15563e-06
1.32182e-06
-1.26387e-06
1.20087e-06
-1.36152e-06
1.09094e-06
-1.44672e-06
9.92896e-07
-1.51666e-06
9.07772e-07
-1.56699e-06
8.36268e-07
-1.59154e-06
7.77494e-07
-1.58433e-06
7.26588e-07
-1.54465e-06
6.73097e-07
-1.48027e-06
6.0395e-07
-1.4038e-06
5.10023e-07
-1.329e-06
3.88601e-07
2.43517e-07
-1.2682e-06
-4.09142e-08
2.61107e-06
-1.08585e-07
2.70737e-06
-1.80994e-07
2.64584e-06
-2.62284e-07
2.52111e-06
-3.52514e-07
2.36773e-06
-4.51708e-07
2.20101e-06
-5.58702e-07
2.03073e-06
-6.6976e-07
1.86452e-06
-7.79839e-07
1.70696e-06
-8.85384e-07
1.55911e-06
-9.84331e-07
1.42077e-06
-1.07525e-06
1.29178e-06
-1.1567e-06
1.17238e-06
-1.22687e-06
1.06305e-06
-1.28331e-06
9.64178e-07
-1.3227e-06
8.75631e-07
-1.34113e-06
7.95883e-07
-1.33549e-06
7.20898e-07
-1.30614e-06
6.43699e-07
-1.25845e-06
5.56202e-07
-1.20111e-06
4.52624e-07
-1.14388e-06
3.31305e-07
1.95099e-07
-1.09553e-06
-4.6316e-08
2.65743e-06
-1.03652e-07
2.76478e-06
-1.65866e-07
2.70812e-06
-2.34685e-07
2.58999e-06
-3.1025e-07
2.44335e-06
-3.92423e-07
2.28324e-06
-4.80113e-07
2.11847e-06
-5.70749e-07
1.95519e-06
-6.60998e-07
1.79723e-06
-7.48095e-07
1.64623e-06
-8.30041e-07
1.50273e-06
-9.05259e-07
1.367e-06
-9.72223e-07
1.23934e-06
-1.02921e-06
1.12002e-06
-1.07415e-06
1.00909e-06
-1.10461e-06
9.06063e-07
-1.11814e-06
8.09373e-07
-1.1132e-06
7.15911e-07
-1.09058e-06
6.21027e-07
-1.05411e-06
5.19673e-07
-1.00982e-06
4.08277e-07
-9.64547e-07
2.85961e-07
1.54911e-07
-9.24431e-07
-5.36538e-08
2.71112e-06
-9.81303e-08
2.80933e-06
-1.51813e-07
2.76187e-06
-2.09245e-07
2.64748e-06
-2.71055e-07
2.50521e-06
-3.37487e-07
2.34972e-06
-4.079e-07
2.18892e-06
-4.80616e-07
2.02794e-06
-5.53369e-07
1.87001e-06
-6.24005e-07
1.71688e-06
-6.90706e-07
1.56943e-06
-7.51893e-07
1.42818e-06
-8.06049e-07
1.29348e-06
-8.51583e-07
1.16553e-06
-8.86777e-07
1.04426e-06
-9.09849e-07
9.291e-07
-9.19255e-07
8.18736e-07
-9.14288e-07
7.10895e-07
-8.95823e-07
6.02505e-07
-8.66636e-07
4.90424e-07
-8.30938e-07
3.72513e-07
-7.93469e-07
2.48421e-07
1.19862e-07
-7.58498e-07
-5.59773e-08
2.76714e-06
-9.49968e-08
2.84843e-06
-1.39548e-07
2.80649e-06
-1.85417e-07
2.69341e-06
-2.33886e-07
2.55374e-06
-2.85689e-07
2.40157e-06
-3.40631e-07
2.2439e-06
-3.97639e-07
2.08497e-06
-4.55097e-07
1.92748e-06
-5.11283e-07
1.77307e-06
-5.64571e-07
1.62272e-06
-6.13448e-07
1.47705e-06
-6.56463e-07
1.33648e-06
-6.92171e-07
1.20122e-06
-7.19139e-07
1.07119e-06
-7.36037e-07
9.4596e-07
-7.41867e-07
8.24521e-07
-7.36331e-07
7.05308e-07
-7.20225e-07
5.86342e-07
-6.95569e-07
4.65706e-07
-6.65308e-07
3.42186e-07
-6.3272e-07
2.15764e-07
8.78105e-08
-6.00743e-07
-5.31414e-08
2.82033e-06
-9.36692e-08
2.88903e-06
-1.28377e-07
2.84126e-06
-1.62143e-07
2.72723e-06
-1.9756e-07
2.5892e-06
-2.35815e-07
2.43986e-06
-2.7699e-07
2.28511e-06
-3.20342e-07
2.12835e-06
-3.64621e-07
1.97178e-06
-4.08373e-07
1.81683e-06
-4.50124e-07
1.66447e-06
-4.88446e-07
1.51537e-06
-5.21971e-07
1.36999e-06
-5.4939e-07
1.22861e-06
-5.69489e-07
1.09126e-06
-5.81237e-07
9.57673e-07
-5.83949e-07
8.27192e-07
-5.77509e-07
6.98821e-07
-5.6257e-07
5.71351e-07
-5.40594e-07
4.43675e-07
-5.1364e-07
3.15174e-07
-4.83968e-07
1.86035e-07
5.73667e-08
-4.53587e-07
-5.02751e-08
2.87065e-06
-9.12101e-08
2.93004e-06
-1.15555e-07
2.86566e-06
-1.37241e-07
2.74897e-06
-1.60367e-07
2.61237e-06
-1.86441e-07
2.46597e-06
-2.15654e-07
2.31435e-06
-2.474e-07
2.16012e-06
-2.80598e-07
2.005e-06
-3.13942e-07
1.85018e-06
-3.46057e-07
1.69659e-06
-3.75591e-07
1.5449e-06
-4.01254e-07
1.39564e-06
-4.21853e-07
1.24919e-06
-4.36333e-07
1.10572e-06
-4.43857e-07
9.65169e-07
-4.43912e-07
8.27214e-07
-4.36443e-07
6.91316e-07
-4.21953e-07
5.56821e-07
-4.01486e-07
4.23167e-07
-3.76483e-07
2.90127e-07
-3.48499e-07
1.58009e-07
2.77209e-08
-3.18897e-07
-5.32769e-08
2.92397e-06
-8.46447e-08
2.96146e-06
-9.76702e-08
2.87873e-06
-1.08153e-07
2.75949e-06
-1.20457e-07
2.62471e-06
-1.36138e-07
2.48168e-06
-1.55394e-07
2.33363e-06
-1.77652e-07
2.1824e-06
-2.01889e-07
2.02925e-06
-2.2686e-07
1.87516e-06
-2.51247e-07
1.72098e-06
-2.73752e-07
1.5674e-06
-2.93153e-07
1.41504e-06
-3.08347e-07
1.26438e-06
-3.18393e-07
1.11576e-06
-3.22578e-07
9.69337e-07
-3.20481e-07
8.25098e-07
-3.12056e-07
6.82868e-07
-2.97663e-07
5.42404e-07
-2.78048e-07
4.03526e-07
-2.54216e-07
2.6627e-07
-2.2724e-07
1.3101e-07
-1.5023e-09
-1.98041e-07
-4.98084e-08
2.97381e-06
-6.79473e-08
2.97963e-06
-7.1596e-08
2.8824e-06
-7.29379e-08
2.76085e-06
-7.64592e-08
2.62825e-06
-8.38187e-08
2.48906e-06
-9.5256e-08
2.34508e-06
-1.10191e-07
2.19735e-06
-1.27591e-07
2.04666e-06
-1.46216e-07
1.8938e-06
-1.64763e-07
1.73953e-06
-1.81969e-07
1.58461e-06
-1.96665e-07
1.42973e-06
-2.07816e-07
1.27553e-06
-2.14569e-07
1.1225e-06
-2.16288e-07
9.7105e-07
-2.12605e-07
8.21408e-07
-2.03457e-07
6.73712e-07
-1.89098e-07
5.28035e-07
-1.70054e-07
3.84473e-07
-1.47035e-07
2.43242e-07
-1.20787e-07
1.04755e-07
-3.03608e-08
-9.19345e-08
-3.39976e-08
3.00783e-06
-4.19066e-08
2.98756e-06
-3.76496e-08
2.87816e-06
-3.1551e-08
2.75477e-06
-2.80253e-08
2.62474e-06
-2.89925e-08
2.49004e-06
-3.4687e-08
2.35079e-06
-4.44237e-08
2.20709e-06
-5.70713e-08
2.05931e-06
-7.13268e-08
1.90806e-06
-8.58694e-08
1.75408e-06
-9.94491e-08
1.59819e-06
-1.10936e-07
1.44122e-06
-1.19353e-07
1.28395e-06
-1.2391e-07
1.12707e-06
-1.2403e-07
9.71172e-07
-1.19375e-07
8.16757e-07
-1.0987e-07
6.6421e-07
-9.56865e-08
5.13854e-07
-7.72067e-08
3.65996e-07
-5.49429e-08
2.20983e-07
-2.94259e-08
7.92433e-08
-5.8693e-08
-1.08612e-09
-1.62863e-08
3.02412e-06
-1.16031e-08
2.98287e-06
9.68511e-10
2.86559e-06
1.47728e-08
2.74096e-06
2.44964e-08
2.61502e-06
2.83679e-08
2.48617e-06
2.65e-08
2.35266e-06
1.99258e-08
2.21367e-06
1.00273e-08
2.06922e-06
-1.75009e-09
1.91984e-06
-1.4032e-08
1.76637e-06
-2.55671e-08
1.60973e-06
-3.52567e-08
1.45092e-06
-4.21745e-08
1.29087e-06
-4.55834e-08
1.13048e-06
-4.49533e-08
9.70551e-07
-3.99749e-08
8.11789e-07
-3.05638e-08
6.54809e-07
-1.68447e-08
5.00146e-07
8.90463e-10
3.48273e-07
2.2254e-08
1.99632e-07
4.68469e-08
5.46642e-08
-8.61897e-08
7.43592e-08
2.10192e-09
3.02202e-06
1.97685e-08
2.9652e-06
4.32978e-08
2.84205e-06
6.53874e-08
2.71887e-06
8.08574e-08
2.59954e-06
8.81713e-08
2.47885e-06
8.82667e-08
2.35256e-06
8.28788e-08
2.21905e-06
7.38168e-08
2.07828e-06
6.27375e-08
1.93092e-06
5.10971e-08
1.77801e-06
4.01502e-08
1.62069e-06
3.09599e-08
1.46012e-06
2.44019e-08
1.29744e-06
2.11614e-08
1.13373e-06
2.17247e-08
9.7e-07
2.63735e-08
8.07153e-07
3.51877e-08
6.46009e-07
4.80642e-08
4.87284e-07
6.4758e-08
3.31595e-07
8.49448e-08
1.79462e-07
1.08302e-07
3.13247e-08
-1.12455e-07
1.34586e-07
1.96749e-08
3.00234e-06
5.1057e-08
2.9338e-06
8.81016e-08
2.80499e-06
1.20268e-07
2.68669e-06
1.41163e-07
2.57863e-06
1.50302e-07
2.4697e-06
1.50349e-07
2.35251e-06
1.44167e-07
2.22523e-06
1.34133e-07
2.08831e-06
1.22137e-07
1.94292e-06
1.09697e-07
1.79045e-06
9.80499e-08
1.63234e-06
8.82086e-08
1.46997e-06
8.09906e-08
1.30467e-06
7.7027e-08
1.13771e-06
7.67606e-08
9.70278e-07
8.04439e-08
8.03483e-07
8.8142e-08
6.38326e-07
9.9752e-08
4.7569e-07
1.15041e-07
3.16322e-07
1.33706e-07
1.60813e-07
1.55453e-07
9.59581e-09
-1.37053e-07
1.8007e-07
3.57331e-08
2.96659e-06
8.45583e-08
2.88495e-06
1.37297e-07
2.75224e-06
1.80641e-07
2.64333e-06
2.05811e-07
2.55345e-06
2.14438e-07
2.46107e-06
2.12125e-07
2.35481e-06
2.03193e-07
2.23416e-06
1.9056e-07
2.10094e-06
1.76266e-07
1.95721e-06
1.6182e-07
1.8049e-06
1.48397e-07
1.64576e-06
1.36934e-07
1.48143e-06
1.28181e-07
1.31343e-06
1.2271e-07
1.14319e-06
1.20922e-07
9.72076e-07
1.23041e-07
8.01376e-07
1.29114e-07
6.32266e-07
1.39023e-07
4.65795e-07
1.52521e-07
3.02838e-07
1.69294e-07
1.44057e-07
1.89035e-07
-1.01298e-08
-1.5954e-07
2.11539e-07
5.89909e-08
2.90759e-06
1.25392e-07
2.81853e-06
1.9401e-07
2.6836e-06
2.48858e-07
2.58846e-06
2.7448e-07
2.52782e-06
2.79363e-07
2.45617e-06
2.7229e-07
2.36188e-06
2.58922e-07
2.24752e-06
2.42425e-07
2.11743e-06
2.248e-07
1.97483e-06
2.07448e-07
1.82225e-06
1.9143e-07
1.66178e-06
1.77585e-07
1.49528e-06
1.66583e-07
1.32443e-06
1.58941e-07
1.15083e-06
1.55023e-07
9.76002e-07
1.5503e-07
8.01378e-07
1.58995e-07
6.28313e-07
1.6678e-07
4.58021e-07
1.7811e-07
2.91521e-07
1.92624e-07
1.29555e-07
2.09976e-07
-2.74686e-08
-1.7949e-07
2.2994e-07
1.00673e-07
2.8069e-06
1.8996e-07
2.72922e-06
2.69835e-07
2.60371e-06
3.20812e-07
2.53747e-06
3.44512e-07
2.5041e-06
3.42123e-07
2.45855e-06
3.28705e-07
2.37528e-06
3.09987e-07
2.26623e-06
2.88948e-07
2.13846e-06
2.67407e-07
1.99637e-06
2.46597e-07
1.84306e-06
2.27442e-07
1.68094e-06
2.10672e-07
1.51205e-06
1.96879e-07
1.33823e-06
1.86527e-07
1.16119e-06
1.79956e-07
9.82579e-07
1.7736e-07
8.03982e-07
1.78766e-07
6.26914e-07
1.8403e-07
4.52767e-07
1.92837e-07
2.82723e-07
2.04759e-07
1.17642e-07
2.19369e-07
-4.20692e-08
-1.96513e-07
2.36402e-07
1.80172e-07
2.62672e-06
2.94636e-07
2.61474e-06
3.68328e-07
2.53e-06
4.00692e-07
2.5051e-06
4.11128e-07
2.49366e-06
3.99765e-07
2.4699e-06
3.79623e-07
2.39542e-06
3.5538e-07
2.29047e-06
3.29627e-07
2.16421e-06
3.03957e-07
2.02204e-06
2.79437e-07
1.86757e-06
2.56851e-07
1.70352e-06
2.3682e-07
1.53208e-06
2.19858e-07
1.35519e-06
2.06384e-07
1.17467e-06
1.96723e-07
9.92243e-07
1.91081e-07
8.09629e-07
1.8951e-07
6.28491e-07
1.91876e-07
4.50406e-07
1.97839e-07
2.76767e-07
2.06881e-07
1.08606e-07
2.18445e-07
-5.36275e-08
-2.10262e-07
2.32202e-07
2.93836e-07
2.33287e-06
4.35394e-07
2.47317e-06
4.84165e-07
2.48122e-06
4.92632e-07
2.49662e-06
4.7581e-07
2.51047e-06
4.53332e-07
2.49237e-06
4.25474e-07
2.42327e-06
3.95235e-07
2.3207e-06
3.6456e-07
2.19488e-06
3.34661e-07
2.05193e-06
3.06353e-07
1.89588e-06
2.80235e-07
1.72964e-06
2.56791e-07
1.55552e-06
2.36439e-07
1.37554e-06
2.19553e-07
1.19155e-06
2.0645e-07
1.00535e-06
1.97366e-07
8.18715e-07
1.92415e-07
6.33445e-07
1.91518e-07
4.51308e-07
1.9434e-07
2.73949e-07
2.00266e-07
1.02684e-07
2.08539e-07
-6.18965e-08
-2.20444e-07
2.18725e-07
4.24861e-07
1.90801e-06
5.91529e-07
2.30649e-06
6.13617e-07
2.45913e-06
5.8612e-07
2.52411e-06
5.44055e-07
2.55253e-06
5.0568e-07
2.53074e-06
4.67521e-07
2.46142e-06
4.30109e-07
2.35811e-06
3.94078e-07
2.23091e-06
3.5988e-07
2.08612e-06
3.27851e-07
1.9279e-06
2.98281e-07
1.7592e-06
2.71453e-07
1.58235e-06
2.4766e-07
1.39934e-06
2.27208e-07
1.21201e-06
2.10404e-07
1.02215e-06
1.97532e-07
8.31589e-07
1.888e-07
6.4218e-07
1.84251e-07
4.55858e-07
1.83636e-07
2.74566e-07
1.8626e-07
1.00062e-07
1.91054e-07
-6.66883e-08
-2.26813e-07
1.97425e-07
5.65341e-07
1.34266e-06
7.46493e-07
2.12533e-06
7.41291e-07
2.46432e-06
6.77657e-07
2.58774e-06
6.11879e-07
2.6183e-06
5.5475e-07
2.58787e-06
5.04573e-07
2.51159e-06
4.59382e-07
2.40329e-06
4.18011e-07
2.27227e-06
3.79794e-07
2.12434e-06
3.44394e-07
1.9633e-06
3.11695e-07
1.7919e-06