/*--------------------------------*- C++ -*----------------------------------*\
  =========                 |
  \\      /  F ield         | OpenFOAM: The Open Source CFD Toolbox
   \\    /   O peration     | Website:  https://openfoam.org
    \\  /    A nd           | Version:  9
     \\/     M anipulation  |
\*---------------------------------------------------------------------------*/
FoamFile
{
    format      ascii;
    class       volVectorField;
    location    "4.01";
    object      U;
}
// * * * * * * * * * * * * * * * * * * * * * * * * * * * * * * * * * * * * * //

dimensions      [0 1 -1 0 0 0 0];

internalField   nonuniform List<vector> 
2268
(
(-0.00142977 0.000748162 0)
(-0.00416882 0.0010122 0)
(-0.00794269 0.00107485 0)
(-0.011642 0.00100248 0)
(-0.0151224 0.000946377 0)
(-0.0184269 0.000884057 0)
(-0.0214533 0.000802495 0)
(-0.0241416 0.000706568 0)
(-0.0264467 0.000599832 0)
(-0.0283207 0.000474649 0)
(-0.0296775 0.000309715 0)
(-0.0303647 7.00514e-05 0)
(-0.0301105 -0.000264336 0)
(-0.0286573 -0.000710198 0)
(-0.0257346 -0.00128895 0)
(-0.0211384 -0.00188071 0)
(-0.0154618 -0.00167722 0)
(-0.0133748 0.00120396 0)
(-0.0208471 0.00404888 0)
(-0.0294474 0.00134567 0)
(-0.0265516 -0.00261282 0)
(-0.0155219 -0.00433105 0)
(-0.00472063 -0.00256747 0)
(-0.00198148 0.00189558 0)
(-0.00500821 0.0024976 0)
(-0.00876057 0.00273226 0)
(-0.0126878 0.00265721 0)
(-0.0164673 0.00252496 0)
(-0.02004 0.00234524 0)
(-0.0232877 0.00211249 0)
(-0.0261379 0.00183933 0)
(-0.0285341 0.0015314 0)
(-0.0304174 0.00117342 0)
(-0.0317049 0.000730404 0)
(-0.0322859 0.000154441 0)
(-0.032047 -0.000585789 0)
(-0.0308506 -0.00150056 0)
(-0.0286429 -0.00255685 0)
(-0.0255695 -0.00344947 0)
(-0.0221809 -0.00282787 0)
(-0.0203442 0.00163565 0)
(-0.0214807 0.0048898 0)
(-0.022686 0.00163259 0)
(-0.0199118 -0.00453093 0)
(-0.0133781 -0.00778164 0)
(-0.0063731 -0.00691599 0)
(-0.0022088 0.00362795 0)
(-0.00552149 0.00417203 0)
(-0.00925887 0.00449586 0)
(-0.0132386 0.00444728 0)
(-0.017109 0.00424888 0)
(-0.0207695 0.00394204 0)
(-0.0240926 0.00353802 0)
(-0.0269966 0.00306092 0)
(-0.0294207 0.00252119 0)
(-0.0313076 0.00189988 0)
(-0.0325886 0.00115547 0)
(-0.0331844 0.000240241 0)
(-0.033025 -0.000873803 0)
(-0.0320747 -0.00216945 0)
(-0.0304212 -0.00354373 0)
(-0.0283678 -0.00458082 0)
(-0.0262274 -0.00382948 0)
(-0.0239623 0.000978811 0)
(-0.0214912 0.00393299 0)
(-0.0189982 0.000797207 0)
(-0.0156521 -0.00635314 0)
(-0.0106185 -0.0106602 0)
(-0.0048378 -0.0110413 0)
(-0.00234331 0.00545576 0)
(-0.00593968 0.00595439 0)
(-0.00977827 0.00632408 0)
(-0.0138214 0.00629212 0)
(-0.0177513 0.0060263 0)
(-0.0214583 0.0055869 0)
(-0.0248122 0.00500223 0)
(-0.0277261 0.00431 0)
(-0.0301405 0.00352829 0)
(-0.0320053 0.00263804 0)
(-0.0332676 0.00159528 0)
(-0.0338742 0.000354773 0)
(-0.0337926 -0.00109579 0)
(-0.0330509 -0.00269773 0)
(-0.0318095 -0.00428075 0)
(-0.0304195 -0.00537624 0)
(-0.0290224 -0.00469785 0)
(-0.0264194 -0.000493575 0)
(-0.0221028 0.00206714 0)
(-0.0174598 -0.000954468 0)
(-0.0129861 -0.00840821 0)
(-0.00812676 -0.0132829 0)
(-0.00243391 -0.0139916 0)
(-0.00242899 0.00737433 0)
(-0.00629905 0.00785158 0)
(-0.0103024 0.00822432 0)
(-0.0144297 0.00818603 0)
(-0.0184125 0.00784296 0)
(-0.0221473 0.00726136 0)
(-0.0255062 0.00648439 0)
(-0.0284019 0.0055654 0)
(-0.0307805 0.00453295 0)
(-0.0326033 0.00337066 0)
(-0.0338337 0.00203537 0)
(-0.0344412 0.000488303 0)
(-0.0344206 -0.00126179 0)
(-0.0338349 -0.00311132 0)
(-0.0328647 -0.0048334 0)
(-0.0318168 -0.00595612 0)
(-0.0307226 -0.0054791 0)
(-0.0280882 -0.00235774 0)
(-0.0230316 -0.000449639 0)
(-0.0171155 -0.00348312 0)
(-0.011948 -0.0106936 0)
(-0.00716216 -0.0158374 0)
(-0.0011319 -0.0157482 0)
(-0.00250849 0.00938714 0)
(-0.00663481 0.00985054 0)
(-0.0108195 0.0101855 0)
(-0.0150369 0.0101104 0)
(-0.0190655 0.00967425 0)
(-0.0228123 0.00893843 0)
(-0.0261548 0.00795727 0)
(-0.0290076 0.00680184 0)
(-0.0313268 0.00551404 0)
(-0.0330876 0.00408194 0)
(-0.0342699 0.00246491 0)
(-0.0348619 0.000632251 0)
(-0.0348763 -0.0013857 0)
(-0.0343896 -0.00344409 0)
(-0.0335708 -0.00527728 0)
(-0.0326439 -0.0064499 0)
(-0.0315409 -0.00625289 0)
(-0.0289433 -0.00421893 0)
(-0.0239068 -0.00320452 0)
(-0.0178105 -0.00627304 0)
(-0.0127216 -0.0129699 0)
(-0.00828339 -0.0184842 0)
(-0.00211511 -0.0173675 0)
(-0.00263046 0.0114685 0)
(-0.00697078 0.0119402 0)
(-0.0113183 0.0122012 0)
(-0.0156125 0.012058 0)
(-0.019672 0.0115101 0)
(-0.0234125 0.0106057 0)
(-0.0267162 0.00940703 0)
(-0.029502 0.00800547 0)
(-0.0317383 0.00645925 0)
(-0.0334166 0.00476174 0)
(-0.034532 0.00287494 0)
(-0.0350883 0.000775869 0)
(-0.0351091 -0.00148653 0)
(-0.0346716 -0.00373334 0)
(-0.0339196 -0.00567764 0)
(-0.0329978 -0.00694318 0)
(-0.0317666 -0.00707549 0)
(-0.0291925 -0.00597446 0)
(-0.0245741 -0.0057949 0)
(-0.0191161 -0.00886653 0)
(-0.0147425 -0.0149823 0)
(-0.0111581 -0.0209809 0)
(-0.00679174 -0.0212339 0)
(-0.00282524 0.0135293 0)
(-0.00732154 0.0141393 0)
(-0.0117753 0.0142885 0)
(-0.0161192 0.0140448 0)
(-0.0201877 0.013364 0)
(-0.0239002 0.0122726 0)
(-0.0271424 0.0108384 0)
(-0.0298383 0.00917648 0)
(-0.0319706 0.007365 0)
(-0.0335465 0.00540296 0)
(-0.0345754 0.00325542 0)
(-0.0350738 0.000905818 0)
(-0.0350745 -0.00158512 0)
(-0.0346507 -0.00401194 0)
(-0.033917 -0.00607998 0)
(-0.0329581 -0.00747894 0)
(-0.0316053 -0.00795546 0)
(-0.0291031 -0.00761019 0)
(-0.0250409 -0.00806162 0)
(-0.0204987 -0.011011 0)
(-0.0171557 -0.016381 0)
(-0.0149985 -0.0224769 0)
(-0.0165702 -0.0284768 0)
(-0.00875516 0.00163292 0)
(0.00186285 -0.00396828 0)
(0.0139717 -0.00353778 0)
(0.0226395 -0.00213057 0)
(0.0276038 -0.00107036 0)
(0.0295689 -0.000174232 0)
(0.0288947 0.000621766 0)
(0.0265649 0.000664735 0)
(0.0254671 -0.000503417 0)
(0.0291727 -0.00213501 0)
(0.0352712 -0.000722718 0)
(0.0304726 0.00447305 0)
(0.00613638 0.00744433 0)
(-0.01127 0.000722783 0)
(0.0065317 -0.00853721 0)
(0.0366835 -0.011092 0)
(0.0687178 -0.00603794 0)
(0.0684866 0.00786356 0)
(0.0173226 0.0103889 0)
(0.000273269 0.00143803 0)
(0.00790322 -0.00669797 0)
(0.0149733 -0.00624696 0)
(0.0205002 -0.00406057 0)
(0.0239943 -0.00206501 0)
(0.0254921 -0.000402622 0)
(0.0255617 0.000877861 0)
(0.0244577 0.00109448 0)
(0.023181 -0.000592936 0)
(0.0240532 -0.00306821 0)
(0.0252271 -2.1938e-05 0)
(0.0214093 0.00877574 0)
(0.00965741 0.0116715 0)
(0.00753724 -0.000505025 0)
(0.0188902 -0.0143649 0)
(0.034147 -0.018154 0)
(0.0494046 -0.010083 0)
(0.0583723 0.0170483 0)
(0.0214746 0.0257974 0)
(0.00579235 -0.00157137 0)
(0.0106988 -0.00907042 0)
(0.0148851 -0.00819259 0)
(0.0185538 -0.00556162 0)
(0.0211749 -0.00292645 0)
(0.0224667 -0.000705977 0)
(0.0227025 0.000978201 0)
(0.0219268 0.00152691 0)
(0.0205723 -0.00022649 0)
(0.0196511 -0.00298966 0)
(0.0184772 0.000884186 0)
(0.0159317 0.0107214 0)
(0.0129958 0.0120578 0)
(0.0163142 -0.00302165 0)
(0.0229626 -0.0180264 0)
(0.0298429 -0.0225978 0)
(0.0374448 -0.0133652 0)
(0.0405963 0.0220843 0)
(0.0170169 0.0399202 0)
(0.00737064 -0.00552227 0)
(0.0111808 -0.0108208 0)
(0.0138958 -0.00952826 0)
(0.0165012 -0.00670932 0)
(0.0186289 -0.00367069 0)
(0.0198876 -0.00101702 0)
(0.0202551 0.00105652 0)
(0.0196475 0.00195826 0)
(0.0182797 0.000377368 0)
(0.0161772 -0.00221975 0)
(0.0139969 0.00170592 0)
(0.0135725 0.0109765 0)
(0.0160178 0.010853 0)
(0.0207744 -0.00497788 0)
(0.0234509 -0.0196085 0)
(0.0250336 -0.0247915 0)
(0.0283424 -0.0145075 0)
(0.0271851 0.0267764 0)
(0.00966215 0.0497395 0)
(0.00676337 -0.00933523 0)
(0.0100893 -0.0122202 0)
(0.0121053 -0.010481 0)
(0.0141628 -0.00762917 0)
(0.0160871 -0.00436155 0)
(0.017459 -0.00138361 0)
(0.0180293 0.00108387 0)
(0.0176548 0.00233615 0)
(0.0164709 0.00111229 0)
(0.0139109 -0.00104077 0)
(0.0113094 0.00221555 0)
(0.0124654 0.00990492 0)
(0.0179458 0.00862967 0)
(0.0224812 -0.00610669 0)
(0.0219621 -0.0196185 0)
(0.0198731 -0.0251904 0)
(0.0202006 -0.0146852 0)
(0.0171511 0.0315095 0)
(0.00294706 0.0551713 0)
(0.00516747 -0.012493 0)
(0.00795936 -0.0133935 0)
(0.00962883 -0.0112425 0)
(0.0114549 -0.00844694 0)
(0.0133942 -0.00506658 0)
(0.0150309 -0.00185615 0)
(0.0159803 0.00100391 0)
(0.0159896 0.00259762 0)
(0.0151644 0.00179796 0)
(0.0128427 0.000164128 0)
(0.0105087 0.00251412 0)
(0.0125037 0.00811892 0)
(0.0186963 0.00618396 0)
(0.0221049 -0.00639807 0)
(0.0192354 -0.018429 0)
(0.0143733 -0.0241991 0)
(0.0115332 -0.0141872 0)
(0.00881194 0.0355211 0)
(-0.000139685 0.0576308 0)
(0.00347601 -0.0147309 0)
(0.00508319 -0.0142759 0)
(0.00657188 -0.0119212 0)
(0.00833955 -0.00926467 0)
(0.0104399 -0.0058568 0)
(0.0124766 -0.00250693 0)
(0.0139996 0.000727921 0)
(0.0145974 0.00267758 0)
(0.0143044 0.00230638 0)
(0.0126299 0.00111678 0)
(0.0110425 0.00257784 0)
(0.0132515 0.00626933 0)
(0.0185812 0.00415406 0)
(0.0204401 -0.00599769 0)
(0.0158238 -0.0162772 0)
(0.00856678 -0.0219772 0)
(0.00222181 -0.0129797 0)
(0.000824587 0.0376367 0)
(-0.000597464 0.0583523 0)
(0.00190476 -0.0159666 0)
(0.00160608 -0.0147929 0)
(0.00303672 -0.0125751 0)
(0.00481546 -0.0101505 0)
(0.0071436 -0.00680966 0)
(0.00966881 -0.00343612 0)
(0.0119229 0.00013795 0)
(0.0133598 0.00245792 0)
(0.0138205 0.00253518 0)
(0.0129951 0.00169431 0)
(0.0122692 0.00241555 0)
(0.0143101 0.00472653 0)
(0.0181592 0.00282418 0)
(0.0183604 -0.0049333 0)
(0.0122535 -0.013219 0)
(0.00276075 -0.0184765 0)
(-0.00727939 -0.0108632 0)
(-0.00753564 0.0370316 0)
(0.000659899 0.0577857 0)
(-0.0029844 0.0182928 0)
(-0.00767916 0.0179576 0)
(-0.0123347 0.0177895 0)
(-0.0167251 0.0173128 0)
(-0.0207748 0.0163777 0)
(-0.0244092 0.0149496 0)
(-0.0275238 0.0131035 0)
(-0.0300541 0.0109942 0)
(-0.032001 0.0087381 0)
(-0.0333917 0.00634487 0)
(-0.0342546 0.00378952 0)
(-0.0346263 0.00106509 0)
(-0.0345592 -0.00176865 0)
(-0.0341254 -0.004475 0)
(-0.0333958 -0.00676613 0)
(-0.0323817 -0.00843218 0)
(-0.0309099 -0.00944217 0)
(-0.0285823 -0.0100136 0)
(-0.025369 -0.01109 0)
(-0.0222006 -0.013579 0)
(-0.0204626 -0.017371 0)
(-0.0212702 -0.0215595 0)
(-0.0298458 -0.0253184 0)
(-0.00329011 0.0219815 0)
(-0.00750254 0.0231865 0)
(-0.0123148 0.0227538 0)
(-0.0167024 0.021819 0)
(-0.0206659 0.0203993 0)
(-0.024099 0.0184101 0)
(-0.0269887 0.0159475 0)
(-0.0293211 0.01321 0)
(-0.0310488 0.0103408 0)
(-0.0321557 0.00735114 0)
(-0.0326925 0.00425451 0)
(-0.0327567 0.00106779 0)
(-0.0325045 -0.00214007 0)
(-0.0320849 -0.00514284 0)
(-0.0314981 -0.00776177 0)
(-0.0306084 -0.00985005 0)
(-0.0291939 -0.0114643 0)
(-0.027065 -0.0127466 0)
(-0.0243971 -0.0141057 0)
(-0.0219275 -0.0158584 0)
(-0.0206187 -0.0177666 0)
(-0.0211363 -0.0193967 0)
(-0.024126 -0.0204217 0)
(-0.00396023 0.0292449 0)
(-0.00554756 0.0279073 0)
(-0.0107985 0.0263002 0)
(-0.0157999 0.0247548 0)
(-0.019903 0.0230336 0)
(-0.0227929 0.0206887 0)
(-0.0252756 0.0177047 0)
(-0.0275129 0.0145727 0)
(-0.0288254 0.0113839 0)
(-0.0291542 0.00802773 0)
(-0.0290032 0.00447798 0)
(-0.0285336 0.000962914 0)
(-0.02803 -0.00232317 0)
(-0.0276645 -0.00530671 0)
(-0.0273055 -0.00809488 0)
(-0.0268969 -0.0104434 0)
(-0.0260042 -0.0124504 0)
(-0.0241583 -0.01401 0)
(-0.0215926 -0.0153642 0)
(-0.0191606 -0.0166768 0)
(-0.0178752 -0.0176347 0)
(-0.0185136 -0.0188247 0)
(-0.0223899 -0.0198607 0)
(-0.012119 0.0267297 0)
(5.62043e-05 0.0273997 0)
(-0.0073741 0.0270949 0)
(-0.016097 0.0257277 0)
(-0.0218884 0.0235293 0)
(-0.0228296 0.0211672 0)
(-0.0247303 0.0186295 0)
(-0.0288079 0.0157321 0)
(-0.0291681 0.0113843 0)
(-0.0261402 0.00821275 0)
(-0.0245866 0.00444012 0)
(-0.0232037 0.000639729 0)
(-0.0225398 -0.00204209 0)
(-0.0221924 -0.00506214 0)
(-0.0203624 -0.00833911 0)
(-0.0205368 -0.00966098 0)
(-0.0216549 -0.0123916 0)
(-0.0204125 -0.0143281 0)
(-0.0178885 -0.0157378 0)
(-0.0147018 -0.017536 0)
(-0.0120873 -0.017373 0)
(-0.0103533 -0.0174355 0)
(-0.0206689 -0.0161889 0)
(-0.0084456 0.0405365 0)
(-0.00161889 0.0310479 0)
(-0.000580977 0.0502956 0)
(-0.0326087 0.0575174 0)
(-0.054134 0.0339653 0)
(-0.0531177 0.0244259 0)
(-0.0498707 0.0266126 0)
(-0.0465589 0.0234902 0)
(-0.0360732 0.00270618 0)
(-0.0256509 0.00160203 0)
(-0.0170398 -0.000511487 0)
(-0.0106092 -0.00362828 0)
(-0.00490985 -0.00471334 0)
(-0.000222152 -0.00883575 0)
(0.00176638 -0.0132835 0)
(0.00477578 -0.0089087 0)
(0.00852897 -0.0168953 0)
(0.0169086 -0.0250698 0)
(0.032069 -0.0286396 0)
(0.0384833 -0.0255589 0)
(0.0381492 -0.0220261 0)
(0.0332709 -0.0114238 0)
(0.00314093 0.0201753 0)
(-0.00860087 0.0433342 0)
(-0.00966404 0.0195726 0)
(0.00371706 0.048804 0)
(-0.00204997 0.0824501 0)
(-0.0156247 0.0406621 0)
(-0.0189756 0.017734 0)
(-0.0155598 0.0176054 0)
(-0.00660077 0.011889 0)
(-0.00137073 -0.00819656 0)
(-0.00180649 -0.00670545 0)
(-0.00174161 -0.0063451 0)
(-0.00127874 -0.00841294 0)
(-3.19255e-05 -0.00891887 0)
(7.32769e-05 -0.010015 0)
(-0.00650185 -0.0115142 0)
(-0.00661239 -0.0153274 0)
(0.000853089 -0.0240357 0)
(0.0078837 -0.0345991 0)
(0.0176233 -0.0384483 0)
(0.0263672 -0.0205625 0)
(0.0218349 -0.0122417 0)
(0.00246609 0.00380806 0)
(0.000364053 0.0415019 0)
(-0.00325038 0.051802 0)
(-0.00884897 0.0174474 0)
(-0.00551952 0.0405091 0)
(0.0101401 0.0786344 0)
(0.0213445 0.0447017 0)
(0.0207803 0.0163598 0)
(0.0225604 0.0121073 0)
(0.0284821 0.00421568 0)
(0.0283467 -0.00637824 0)
(0.0199395 -0.00182062 0)
(0.011408 -0.0019646 0)
(0.00386187 -0.00637608 0)
(-0.00141293 -0.00751366 0)
(-0.00471702 -0.00687527 0)
(-0.00766789 -0.00513442 0)
(-0.00721979 -0.0187731 0)
(-0.00792689 -0.0240505 0)
(-0.0135597 -0.0357702 0)
(-0.0216581 -0.0455545 0)
(-0.0212918 -0.024572 0)
(-0.013103 -0.00664377 0)
(-0.01303 0.0110274 0)
(0.010889 0.0172885 0)
(0.00910635 0.0582335 0)
(0.000632013 0.0195569 0)
(-0.0111163 0.0321953 0)
(0.00993008 0.0574492 0)
(0.031624 0.0372207 0)
(0.0352854 0.0145526 0)
(0.0364788 0.00831599 0)
(0.0367694 0.00337255 0)
(0.0294203 0.00286049 0)
(0.0203205 0.00954558 0)
(0.0143935 0.00847682 0)
(0.0082 0.00264883 0)
(0.0019166 -0.00102971 0)
(-0.00284921 -0.00234577 0)
(-0.00600531 -0.00464767 0)
(-0.010931 -0.015591 0)
(-0.0191338 -0.0186887 0)
(-0.0272743 -0.0284683 0)
(-0.0330804 -0.0390319 0)
(-0.031282 -0.0343271 0)
(-0.0205653 -0.0189518 0)
(-0.00736953 -0.00575377 0)
(0.0156548 -0.0115027 0)
(0.0103276 0.0468188 0)
(0.012558 0.0308842 0)
(0.00819096 0.0285012 0)
(0.0192493 0.0343751 0)
(0.0324492 0.025621 0)
(0.0350226 0.0131977 0)
(0.0325735 0.00873593 0)
(0.0289464 0.0093523 0)
(0.0238104 0.0118254 0)
(0.0191915 0.0140731 0)
(0.0157926 0.0123449 0)
(0.0116787 0.00805326 0)
(0.00688247 0.00423037 0)
(0.0026534 0.00152462 0)
(-0.000606726 -0.00142328 0)
(-0.00479396 -0.00719155 0)
(-0.00950792 -0.0113626 0)
(-0.0138845 -0.0205691 0)
(-0.0200204 -0.0334589 0)
(-0.0227832 -0.0390712 0)
(-0.0168251 -0.03224 0)
(-0.00459787 -0.0212977 0)
(0.00801801 -0.0247987 0)
(0.00866097 0.0318951 0)
(0.0155778 0.0290085 0)
(0.0172824 0.025887 0)
(0.0231777 0.024942 0)
(0.0290719 0.0201644 0)
(0.0297343 0.0146996 0)
(0.0270692 0.0127666 0)
(0.0236126 0.0136863 0)
(0.0202241 0.0154093 0)
(0.0177284 0.0163709 0)
(0.0158547 0.0148988 0)
(0.0133982 0.0116863 0)
(0.0102593 0.00818588 0)
(0.00718484 0.00494317 0)
(0.00469728 0.00149796 0)
(0.00221275 -0.00333786 0)
(1.08128e-05 -0.00870096 0)
(-0.00180518 -0.0171763 0)
(-0.00505022 -0.0284291 0)
(-0.0099774 -0.037616 0)
(-0.0117309 -0.0379234 0)
(-0.00772592 -0.0297389 0)
(-0.00414213 -0.0284857 0)
(0.00653616 0.0203791 0)
(0.0133958 0.0230169 0)
(0.0169496 0.0222975 0)
(0.0204106 0.0213274 0)
(0.0228321 0.0187832 0)
(0.0225708 0.0163341 0)
(0.0205012 0.0156775 0)
(0.0180913 0.0164619 0)
(0.0161158 0.0174805 0)
(0.0148865 0.0177294 0)
(0.0139829 0.0164115 0)
(0.0126959 0.0138136 0)
(0.0109513 0.0106479 0)
(0.00915722 0.0071942 0)
(0.00765395 0.00330996 0)
(0.00630511 -0.00159535 0)
(0.00513064 -0.00751201 0)
(0.00379889 -0.0154033 0)
(0.00107302 -0.0246957 0)
(-0.00331634 -0.0326 0)
(-0.00804736 -0.0358849 0)
(-0.0102747 -0.0313594 0)
(-0.0111863 -0.0271673 0)
(0.00393117 0.0125548 0)
(0.0088442 0.0178781 0)
(0.0119056 0.0191584 0)
(0.0140174 0.0192178 0)
(0.0150348 0.0183343 0)
(0.0146118 0.0174971 0)
(0.0133034 0.0174824 0)
(0.0119476 0.0180742 0)
(0.0110195 0.0185362 0)
(0.0105849 0.0183274 0)
(0.0103477 0.0170551 0)
(0.00993968 0.0147855 0)
(0.00928917 0.0118229 0)
(0.00855171 0.00832952 0)
(0.00787022 0.00426468 0)
(0.00718626 -0.000648138 0)
(0.00636955 -0.0065001 0)
(0.00500089 -0.0135476 0)
(0.0022886 -0.021194 0)
(-0.00201222 -0.0277099 0)
(-0.00710855 -0.0306631 0)
(-0.0112129 -0.0286414 0)
(-0.0141001 -0.0247207 0)
(0.00139105 0.00838157 0)
(0.00395907 0.0147114 0)
(0.00569881 0.0171472 0)
(0.00677624 0.0180925 0)
(0.0071454 0.0182282 0)
(0.00679975 0.0182092 0)
(0.00610103 0.0184363 0)
(0.00551354 0.0187902 0)
(0.00527211 0.018853 0)
(0.00537323 0.0183414 0)
(0.00565296 0.0170252 0)
(0.00590164 0.0148939 0)
(0.00602018 0.012067 0)
(0.00601684 0.00864987 0)
(0.00591407 0.00464007 0)
(0.00562959 -6.44925e-05 0)
(0.00498234 -0.00547788 0)
(0.00361775 -0.0115528 0)
(0.00104269 -0.0177765 0)
(-0.00293127 -0.0230749 0)
(-0.00773319 -0.0256332 0)
(-0.012156 -0.0247624 0)
(-0.0156934 -0.0217203 0)
(-0.000656178 0.00751735 0)
(-0.000234339 0.0135602 0)
(7.7234e-05 0.0163608 0)
(0.000221856 0.017734 0)
(0.00012394 0.0183324 0)
(-0.00019726 0.0186188 0)
(-0.000543612 0.0188342 0)
(-0.000678569 0.0189257 0)
(-0.000499928 0.0186779 0)
(-2.8392e-05 0.0179202 0)
(0.000622171 0.0165098 0)
(0.00129744 0.0144227 0)
(0.00189203 0.0117126 0)
(0.00234853 0.00844267 0)
(0.00261569 0.00463598 0)
(0.00258677 0.000288933 0)
(0.00208333 -0.00453505 0)
(0.000844598 -0.00966964 0)
(-0.00142951 -0.0146878 0)
(-0.00487988 -0.0188752 0)
(-0.0091116 -0.0210853 0)
(-0.0132696 -0.0207673 0)
(-0.0168192 -0.0185069 0)
(-0.00212261 0.00921477 0)
(-0.00342615 0.0141798 0)
(-0.00437789 0.0167132 0)
(-0.00506863 0.018043 0)
(-0.00560431 0.0186696 0)
(-0.00601415 0.0189186 0)
(-0.00622665 0.0189503 0)
(-0.0061471 0.0187495 0)
(-0.00574708 0.0182064 0)
(-0.00507006 0.0172169 0)
(-0.00421411 0.0156927 0)
(-0.00330348 0.0136146 0)
(-0.002447 0.0110098 0)
(-0.00173292 0.00792243 0)
(-0.00124883 0.00439306 0)
(-0.0011119 0.000470519 0)
(-0.00147774 -0.00373997 0)
(-0.00253252 -0.00803834 0)
(-0.00444886 -0.0120692 0)
(-0.00728012 -0.0153145 0)
(-0.0107869 -0.0171217 0)
(-0.0143997 -0.0170775 0)
(-0.017585 -0.0154582 0)
(-0.00308892 0.012729 0)
(-0.00566072 0.0162164 0)
(-0.00761642 0.0180292 0)
(-0.00900133 0.0189473 0)
(-0.00994549 0.0192849 0)
(-0.0105235 0.0192621 0)
(-0.0107499 0.018983 0)
(-0.0106171 0.0184491 0)
(-0.0101464 0.0176033 0)
(-0.00939896 0.0163817 0)
(-0.00846847 0.0147334 0)
(-0.00746552 0.0126446 0)
(-0.00649795 0.0101333 0)
(-0.00566576 0.00723745 0)
(-0.00506954 0.00400757 0)
(-0.00482331 0.000516224 0)
(-0.00505578 -0.00311576 0)
(-0.00589705 -0.00669587 0)
(-0.00744327 -0.0099367 0)
(-0.00969317 -0.0124651 0)
(-0.0124592 -0.0138804 0)
(-0.0153551 -0.013956 0)
(-0.0179689 -0.0128424 0)
(-0.00367685 0.0174322 0)
(-0.00709079 0.0192717 0)
(-0.00977087 0.0200979 0)
(-0.0116884 0.0203548 0)
(-0.0129817 0.0201877 0)
(-0.0137535 0.0197329 0)
(-0.0140722 0.0190521 0)
(-0.0139825 0.0181476 0)
(-0.0135382 0.0169868 0)
(-0.0128134 0.0155304 0)
(-0.0119003 0.0137482 0)
(-0.010902 0.0116327 0)
(-0.00992226 0.00919974 0)
(-0.00906166 0.006485 0)
(-0.00842015 0.00354266 0)
(-0.00810064 0.000452003 0)
(-0.00820562 -0.00266873 0)
(-0.00882372 -0.00565091 0)
(-0.0100035 -0.00827049 0)
(-0.011715 -0.0102651 0)
(-0.0138066 -0.011386 0)
(-0.0160075 -0.0115122 0)
(-0.0180265 -0.0107502 0)
(-0.00397619 0.0228376 0)
(-0.00788297 0.0229844 0)
(-0.0110291 0.0226964 0)
(-0.0133114 0.0221451 0)
(-0.0148668 0.0213418 0)
(-0.0158128 0.0203565 0)
(-0.0162475 0.0192157 0)
(-0.0162453 0.0179147 0)
(-0.0158794 0.0164301 0)
(-0.0152311 0.0147352 0)
(-0.0143913 0.0128112 0)
(-0.0134565 0.010655 0)
(-0.012524 0.00828176 0)
(-0.0116887 0.00572524 0)
(-0.0110427 0.00303806 0)
(-0.0106742 0.000296149 0)
(-0.0106629 -0.00239481 0)
(-0.0110677 -0.00489577 0)
(-0.011909 -0.00703752 0)
(-0.0131461 -0.008639 0)
(-0.0146582 -0.00954622 0)
(-0.0162541 -0.00969696 0)
(-0.017731 -0.00917015 0)
(-0.00405947 0.028573 0)
(-0.00818014 0.0270552 0)
(-0.0115673 0.025616 0)
(-0.0140524 0.024185 0)
(-0.0157687 0.0226804 0)
(-0.0168404 0.0211153 0)
(-0.0173783 0.0194864 0)
(-0.0174716 0.0177781 0)
(-0.0172023 0.0159678 0)
(-0.0166543 0.0140342 0)
(-0.0159151 0.0119634 0)
(-0.0150743 0.00975419 0)
(-0.0142208 0.00742075 0)
(-0.0134404 0.00499334 0)
(-0.0128141 0.00251951 0)
(-0.0124152 6.62821e-05 0)
(-0.0123045 -0.00227765 0)
(-0.0125206 -0.00440255 0)
(-0.0130684 -0.00618404 0)
(-0.0139068 -0.00749905 0)
(-0.0149416 -0.00825314 0)
(-0.0160365 -0.00841712 0)
(-0.0170501 -0.00805159 0)
(-0.00396681 0.0343511 0)
(-0.00808893 0.0312456 0)
(-0.0115279 0.0286689 0)
(-0.0140668 0.0263432 0)
(-0.015843 0.0241227 0)
(-0.0169787 0.0219676 0)
(-0.017587 0.0198483 0)
(-0.017761 0.017737 0)
(-0.0175847 0.0156081 0)
(-0.0171403 0.0134407 0)
(-0.0165095 0.0112219 0)
(-0.0157741 0.00895031 0)
(-0.0150134 0.00663742 0)
(-0.0143027 0.0043088 0)
(-0.0137108 0.00200471 0)
(-0.0132975 -0.000219218 0)
(-0.0131085 -0.00229215 0)
(-0.0131689 -0.00413061 0)
(-0.0134761 -0.00564545 0)
(-0.0139932 -0.00675453 0)
(-0.0146478 -0.00740121 0)
(-0.0153423 -0.00757536 0)
(-0.0159765 -0.00732567 0)
(-0.00374042 0.0399371 0)
(-0.00768699 0.0353625 0)
(-0.011017 0.0316903 0)
(-0.0134816 0.0285015 0)
(-0.0152257 0.0255874 0)
(-0.0163622 0.0228614 0)
(-0.0169998 0.0202703 0)
(-0.0172288 0.0177745 0)
(-0.01713 0.015343 0)
(-0.0167803 0.0129526 0)
(-0.0162542 0.0105891 0)
(-0.0156243 0.008249 0)
(-0.0149599 0.00594006 0)
(-0.0143252 0.00368211 0)
(-0.0137776 0.00150707 0)
(-0.0133646 -0.000541332 0)
(-0.0131205 -0.00240896 0)
(-0.0130615 -0.00403456 0)
(-0.0131818 -0.00535604 0)
(-0.0134503 -0.00632009 0)
(-0.0138121 -0.00689454 0)
(-0.0141964 -0.00708064 0)
(-0.0145313 -0.00691935 0)
(-0.00342847 0.045143 0)
(-0.00703751 0.0392363 0)
(-0.0101197 0.0345443 0)
(-0.0124049 0.0305581 0)
(-0.0140362 0.0270001 0)
(-0.0151149 0.0237442 0)
(-0.0157403 0.0207166 0)
(-0.0159954 0.0178664 0)
(-0.0159539 0.0151563 0)
(-0.0156848 0.0125595 0)
(-0.0152541 0.0100591 0)
(-0.0147244 0.00764833 0)
(-0.0141547 0.00533044 0)
(-0.0135985 0.00311911 0)
(-0.0131024 0.00103784 0)
(-0.0127038 -0.000880942 0)
(-0.0124281 -0.00259777 0)
(-0.0122857 -0.00406946 0)
(-0.0122696 -0.00525441 0)
(-0.0123548 -0.00611972 0)
(-0.0124994 -0.00664939 0)
(-0.0126518 -0.00685176 0)
(-0.0127598 -0.00676263 0)
(-0.00304291 0.0498269 0)
(-0.0061929 0.042722 0)
(-0.00891551 0.0371209 0)
(-0.0109321 0.0324258 0)
(-0.0123807 0.0282949 0)
(-0.0133506 0.0245681 0)
(-0.0139269 0.0211527 0)
(-0.0141812 0.0179877 0)
(-0.0141772 0.0150298 0)
(-0.0139741 0.0122484 0)
(-0.013628 0.00962307 0)
(-0.0131915 0.00714324 0)
(-0.0127132 0.00480761 0)
(-0.0122365 0.00262373 0)
(-0.0117985 0.00060721 0)
(-0.0114278 -0.00121958 0)
(-0.0111429 -0.00282948 0)
(-0.0109503 -0.00419368 0)
(-0.0108432 -0.00528593 0)
(-0.0108012 -0.00608783 0)
(-0.0107929 -0.00659431 0)
(-0.01078 -0.00681828 0)
(-0.0107242 -0.00679205 0)
(-0.00258935 0.0538739 0)
(-0.00519395 0.0457118 0)
(-0.00747029 0.0393279 0)
(-0.00914311 0.0340304 0)
(-0.0103527 0.0294172 0)
(-0.0111738 0.0252932 0)
(-0.0116724 0.0215493 0)
(-0.0119045 0.0181166 0)
(-0.0119216 0.0149472 0)
(-0.0117719 0.0120069 0)
(-0.0115009 0.00927196 0)
(-0.0111511 0.0067283 0)
(-0.0107611 0.00437012 0)
(-0.010365 0.00219937 0)
(-0.00999108 0.000224708 0)
(-0.00966083 -0.00153996 0)
(-0.00938729 -0.00307751 0)
(-0.0091741 -0.00437028 0)
(-0.00901485 -0.00540346 0)
(-0.00889338 -0.00616899 0)
(-0.0087856 -0.00666934 0)
(-0.00866291 -0.00692038 0)
(-0.00849704 -0.006952 0)
(-0.00208125 0.0571873 0)
(-0.00407193 0.0481265 0)
(-0.00583496 0.0410877 0)
(-0.00710546 0.0353124 0)
(-0.00803668 0.0303267 0)
(-0.00868358 0.0258912 0)
(-0.00908569 0.0218855 0)
(-0.00928101 0.0182371 0)
(-0.00930745 0.0148957 0)
(-0.00920173 0.011825 0)
(-0.00899868 0.0089986 0)
(-0.0087306 0.00639917 0)
(-0.00842671 0.00401708 0)
(-0.0081124 0.00184952 0)
(-0.00780842 -0.000100647 0)
(-0.00752997 -0.00182637 0)
(-0.00728577 -0.00331839 0)
(-0.00707734 -0.0045675 0)
(-0.00689873 -0.00556733 0)
(-0.00673697 -0.00631723 0)
(-0.00657353 -0.00682486 0)
(-0.00638681 -0.00710808 0)
(-0.0061557 -0.007195 0)
(-0.00151508 0.0596849 0)
(-0.0028421 0.0499085 0)
(-0.00404936 0.0423394 0)
(-0.00488073 0.0362307 0)
(-0.00551514 0.0310008 0)
(-0.0059773 0.0263466 0)
(-0.00627378 0.0221488 0)
(-0.00642391 0.0183387 0)
(-0.0064524 0.0148668 0)
(-0.0063845 0.0116959 0)
(-0.00624445 0.0087979 0)
(-0.00605479 0.00615296 0)
(-0.00583578 0.00374841 0)
(-0.00560486 0.00157772 0)
(-0.00537603 -0.000360729 0)
(-0.00515917 -0.00206516 0)
(-0.00495942 -0.00353219 0)
(-0.00477665 -0.00475887 0)
(-0.00460537 -0.00574496 0)
(-0.00443506 -0.00649506 0)
(-0.00425127 -0.00702045 0)
(-0.00403756 -0.00734031 0)
(-0.00377796 -0.0074814 0)
(-0.000797042 0.0613082 0)
(-0.00144279 0.0510329 0)
(-0.00212796 0.0430777 0)
(-0.00254042 0.036778 0)
(-0.0028827 0.0314323 0)
(-0.00315642 0.026653 0)
(-0.00334295 0.022333 0)
(-0.00344337 0.0184156 0)
(-0.00346976 0.0148554 0)
(-0.00343604 0.0116154 0)
(-0.00335604 0.0086667 0)
(-0.00324279 0.005988 0)
(-0.00310809 0.00356454 0)
(-0.00296206 0.00138722 0)
(-0.00281269 -0.000548667 0)
(-0.0026653 -0.00224504 0)
(-0.00252204 -0.00370266 0)
(-0.00238152 -0.00492303 0)
(-0.00223864 -0.00591022 0)
(-0.00208478 -0.00667253 0)
(-0.00190859 -0.00722376 0)
(-0.00169734 -0.00758394 0)
(-0.00143886 -0.00777875 0)
(0.00013843 0.0618235 0)
(0.000150361 0.0515147 0)
(-9.2429e-05 0.0433791 0)
(-0.000145715 0.0369946 0)
(-0.000229478 0.0316275 0)
(-0.000319006 0.0268095 0)
(-0.000394024 0.0224349 0)
(-0.000443024 0.0184649 0)
(-0.0004658 0.0148588 0)
(-0.000464793 0.0115811 0)
(-0.000443422 0.00860323 0)
(-0.000405499 0.00590339 0)
(-0.000354823 0.00346598 0)
(-0.000294781 0.00128064 0)
(-0.000227982 -0.000659081 0)
(-0.000155822 -0.00235725 0)
(-7.80166e-05 -0.00381725 0)
(7.79129e-06 -0.00504346 0)
(0.000106304 -0.00604287 0)
(0.000224594 -0.00682634 0)
(0.000371676 -0.00740942 0)
(0.000557491 -0.00781271 0)
(0.000791542 -0.00806108 0)
(0.00112517 0.0609475 0)
(0.00181019 0.0514413 0)
(0.00199365 0.0433009 0)
(0.0022336 0.0369391 0)
(0.00237462 0.0316107 0)
(0.00245314 0.0268208 0)
(0.00248476 0.0224561 0)
(0.00248418 0.018487 0)
(0.00246314 0.0148768 0)
(0.00243064 0.0115925 0)
(0.00239338 0.00860681 0)
(0.00235635 0.0058987 0)
(0.00232325 0.00345305 0)
(0.00229684 0.00125961 0)
(0.00227931 -0.000688383 0)
(0.00227261 -0.00239573 0)
(0.002279 -0.00386699 0)
(0.00230147 -0.00510812 0)
(0.00234422 -0.00612789 0)
(0.00241297 -0.00693891 0)
(0.00251487 -0.00755805 0)
(0.00265784 -0.00800634 0)
(0.00284953 -0.00830806 0)
(0.00199187 0.0588433 0)
(0.00334929 0.0507288 0)
(0.00399904 0.0428482 0)
(0.00451649 0.0366443 0)
(0.00486384 0.0314079 0)
(0.00509356 0.0266997 0)
(0.00521855 0.0224044 0)
(0.00525721 0.0184869 0)
(0.00523218 0.0149125 0)
(0.00516302 0.0116511 0)
(0.00506582 0.00867776 0)
(0.00495366 0.00597374 0)
(0.00483711 0.00352566 0)
(0.00472449 0.00132471 0)
(0.00462221 -0.000634778 0)
(0.0045351 -0.00235695 0)
(0.00446689 -0.00384621 0)
(0.00442084 -0.00510893 0)
(0.00440044 -0.00615479 0)
(0.00441007 -0.00699762 0)
(0.00445536 -0.00765536 0)
(0.00454275 -0.0081496 0)
(0.00467874 -0.00850421 0)
(0.0025886 0.0557423 0)
(0.00460622 0.0493145 0)
(0.00578352 0.0420123 0)
(0.00661551 0.0361006 0)
(0.00717668 0.0310291 0)
(0.00754202 0.0264642 0)
(0.00774115 0.0222941 0)
(0.00780554 0.0184743 0)
(0.00776805 0.0149718 0)
(0.00765744 0.0117598 0)
(0.00749804 0.00881722 0)
(0.00731017 0.00612852 0)
(0.00711059 0.00368331 0)
(0.00691261 0.00147552 0)
(0.00672637 -0.00049811 0)
(0.00655908 -0.00223969 0)
(0.00641553 -0.0037522 0)
(0.00629881 -0.00504135 0)
(0.00621132 -0.00611702 0)
(0.00615599 -0.00699396 0)
(0.00613708 -0.00769133 0)
(0.00616007 -0.00823149 0)
(0.00623091 -0.00863826 0)
(0.00292653 0.0519129 0)
(0.00555479 0.0472295 0)
(0.00728246 0.0407418 0)
(0.00846891 0.0352734 0)
(0.00925029 0.0304779 0)
(0.00973573 0.0261324 0)
(0.00999177 0.0221413 0)
(0.0100687 0.0184606 0)
(0.0100099 0.0150617 0)
(0.0098524 0.0119226 0)
(0.00962803 0.00902684 0)
(0.00936361 0.00636315 0)
(0.00908143 0.00392521 0)
(0.00879932 0.0017108 0)
(0.00853074 -0.000279572 0)
(0.00828492 -0.00204468 0)
(0.0080673 -0.00358478 0)
(0.0078803 -0.00490383 0)
(0.00772474 -0.00601132 0)
(0.00760169 -0.00692292 0)
(0.00751415 -0.00765945 0)
(0.0074671 -0.00824459 0)
(0.00746662 -0.00870251 0)
(0.00311829 0.0475853 0)
(0.00629353 0.0445476 0)
(0.0085262 0.0390244 0)
(0.0100452 0.0341547 0)
(0.0110305 0.0297629 0)
(0.0116226 0.0257182 0)
(0.0119224 0.0219593 0)
(0.0120003 0.0184562 0)
(0.0119115 0.0151893 0)
(0.0117015 0.0121437 0)
(0.0114091 0.00930858 0)
(0.011067 0.00667794 0)
(0.0107025 0.00425047 0)
(0.0103375 0.00202893 0)
(0.00998853 1.87442e-05 0)
(0.00966667 -0.00177413 0)
(0.00937769 -0.00334581 0)
(0.00912283 -0.00469734 0)
(0.00890057 -0.00583717 0)
(0.00870952 -0.00678225 0)
(0.00855135 -0.00755603 0)
(0.00843119 -0.00818442 0)
(0.00835605 -0.00869235 0)
(0.00326811 0.0428822 0)
(0.00690673 0.0413525 0)
(0.00956008 0.036915 0)
(0.0113552 0.0327817 0)
(0.0125069 0.0289057 0)
(0.0131816 0.0252377 0)
(0.0135073 0.0217616 0)
(0.0135726 0.0184716 0)
(0.013444 0.0153621 0)
(0.0131752 0.0124277 0)
(0.0128112 0.0096648 0)
(0.0123899 0.00707352 0)
(0.0119429 0.00465846 0)
(0.0114959 0.0024283 0)
(0.0110683 0.000394457 0)
(0.010673 -0.00143104 0)
(0.010316 -0.0030386 0)
(0.0099971 -0.00442478 0)
(0.00971132 -0.00559619 0)
(0.00945374 -0.00657183 0)
(0.00922469 -0.0073796 0)
(0.00903033 -0.00804893 0)
(0.00887963 -0.00860598 0)
(0.00343712 0.0378414 0)
(0.00744911 0.0377362 0)
(0.0104281 0.0344987 0)
(0.012429 0.0312153 0)
(0.0136945 0.0279444 0)
(0.0144152 0.0247164 0)
(0.0147411 0.0215667 0)
(0.014776 0.01852 0)
(0.014596 0.015589 0)
(0.0142614 0.01278 0)
(0.0138221 0.0100982 0)
(0.0133201 0.00755086 0)
(0.0127903 0.00514907 0)
(0.0122613 0.00290796 0)
(0.0117555 0.000845719 0)
(0.0112881 -0.00101836 0)
(0.0108661 -0.00266712 0)