/*--------------------------------*- C++ -*----------------------------------*\
  =========                 |
  \\      /  F ield         | OpenFOAM: The Open Source CFD Toolbox
   \\    /   O peration     | Website:  https://openfoam.org
    \\  /    A nd           | Version:  9
     \\/     M anipulation  |
\*---------------------------------------------------------------------------*/
FoamFile
{
    format      ascii;
    class       volVectorField;
    location    "240";
    object      U;
}
// * * * * * * * * * * * * * * * * * * * * * * * * * * * * * * * * * * * * * //

dimensions      [0 1 -1 0 0 0 0];

internalField   nonuniform List<vector> 
12225
(
(9.85697 -0.88645 0)
(9.66665 -0.740745 0)
(9.45572 -0.429483 0)
(9.22455 -0.222213 0)
(9.00652 -0.106459 0)
(8.81442 -0.0458717 0)
(8.64755 -0.0151762 0)
(8.50537 0.00044577 0)
(8.38374 0.00838496 0)
(8.281 0.0122694 0)
(8.19262 0.013992 0)
(8.11649 0.0149937 0)
(8.04979 0.0153395 0)
(7.99084 0.0155442 0)
(7.93771 0.0154953 0)
(7.89127 0.015857 0)
(7.83808 0.0153145 0)
(7.828 0.00925446 0)
(10.0545 0.227569 0)
(10.121 0.326909 0)
(10.1196 0.261571 0)
(10.0856 0.186538 0)
(10.0434 0.134666 0)
(9.99674 0.101111 0)
(9.94404 0.0792798 0)
(9.88531 0.064559 0)
(9.82396 0.0542498 0)
(9.76146 0.046661 0)
(9.70002 0.0408889 0)
(9.64023 0.0363356 0)
(9.58296 0.0326788 0)
(9.52864 0.0298094 0)
(9.47685 0.0273158 0)
(9.42944 0.0263889 0)
(9.38179 0.0238081 0)
(9.34806 0.0322965 0)
(10.0035 0.0579185 0)
(10.0303 0.0560068 0)
(10.0561 0.0337788 0)
(10.0703 0.0328951 0)
(10.077 0.0406429 0)
(10.0779 0.0465389 0)
(10.0726 0.0493518 0)
(10.0614 0.0502949 0)
(10.0462 0.0501903 0)
(10.0278 0.0494736 0)
(10.0073 0.0484268 0)
(9.98513 0.0472588 0)
(9.96203 0.0460666 0)
(9.93844 0.0449884 0)
(9.91459 0.0439168 0)
(9.89133 0.0435113 0)
(9.86812 0.0424977 0)
(9.84632 0.0443997 0)
(9.99779 0.0110534 0)
(10.011 0.0266076 0)
(10.035 0.0371496 0)
(10.0525 0.0480837 0)
(10.0644 0.055449 0)
(10.0734 0.0581795 0)
(10.0795 0.058347 0)
(10.0824 0.0576027 0)
(10.0829 0.0565513 0)
(10.0813 0.0553521 0)
(10.0783 0.054077 0)
(10.0739 0.0528429 0)
(10.0686 0.0516452 0)
(10.0625 0.0505889 0)
(10.0558 0.0495747 0)
(10.0489 0.0489931 0)
(10.0419 0.0481177 0)
(10.0349 0.0482603 0)
(9.99935 0.00719786 0)
(10.009 0.0316535 0)
(10.0275 0.0439209 0)
(10.0418 0.0499203 0)
(10.0528 0.0536075 0)
(10.0629 0.05523 0)
(10.0716 0.0555074 0)
(10.0784 0.0552149 0)
(10.0835 0.0546685 0)
(10.0874 0.0539609 0)
(10.0902 0.0531478 0)
(10.0921 0.0523236 0)
(10.0933 0.0515039 0)
(10.094 0.0507632 0)
(10.0942 0.0500575 0)
(10.0942 0.0495683 0)
(10.0941 0.0489582 0)
(10.094 0.0486241 0)
(10.0003 0.00917804 0)
(10.0083 0.0311685 0)
(10.0227 0.0409415 0)
(10.035 0.0453893 0)
(10.0451 0.049032 0)
(10.0548 0.0513644 0)
(10.0638 0.0523423 0)
(10.0714 0.0525719 0)
(10.0779 0.0524337 0)
(10.0835 0.0520656 0)
(10.0884 0.051544 0)
(10.0926 0.0509564 0)
(10.0962 0.0503381 0)
(10.0995 0.0497421 0)
(10.1024 0.0491535 0)
(10.1051 0.0486434 0)
(10.1077 0.048058 0)
(10.1104 0.0474379 0)
(10.0005 0.00894436 0)
(10.0071 0.0270835 0)
(10.0191 0.0364099 0)
(10.0302 0.0413854 0)
(10.0396 0.0454061 0)
(10.0487 0.0480679 0)
(10.0573 0.0493326 0)
(10.065 0.0497972 0)
(10.0718 0.0498641 0)
(10.0779 0.0496796 0)
(10.0834 0.0493216 0)
(10.0885 0.048867 0)
(10.0931 0.048359 0)
(10.0974 0.0478342 0)
(10.1014 0.0472894 0)
(10.1053 0.0467428 0)
(10.1091 0.0461115 0)
(10.1129 0.0453345 0)
(10.0004 0.00791545 0)
(10.006 0.0233767 0)
(10.0161 0.0327313 0)
(10.0263 0.0380947 0)
(10.0351 0.0420861 0)
(10.0436 0.0447647 0)
(10.0518 0.04617 0)
(10.0592 0.0467968 0)
(10.066 0.0470104 0)
(10.0722 0.0469557 0)
(10.0779 0.0467115 0)
(10.0833 0.0463473 0)
(10.0883 0.0459083 0)
(10.093 0.0454219 0)
(10.0976 0.0448885 0)
(10.1019 0.044303 0)
(10.1062 0.0436121 0)
(10.1104 0.0427455 0)
(10.0004 0.00695966 0)
(10.0051 0.020424 0)
(10.0137 0.0294487 0)
(10.0229 0.0348533 0)
(10.0312 0.0386998 0)
(10.0392 0.0413559 0)
(10.0469 0.042881 0)
(10.0541 0.0436462 0)
(10.0607 0.0439753 0)
(10.0668 0.0440184 0)
(10.0726 0.0438562 0)
(10.078 0.043554 0)
(10.0831 0.0431562 0)
(10.088 0.0426859 0)
(10.0927 0.0421444 0)
(10.0972 0.0415201 0)
(10.1017 0.0407738 0)
(10.106 0.039855 0)
(10.0004 0.00612868 0)
(10.0043 0.017858 0)
(10.0116 0.0262701 0)
(10.0199 0.0315722 0)
(10.0277 0.0352919 0)
(10.0351 0.0379115 0)
(10.0424 0.0395152 0)
(10.0493 0.0403823 0)
(10.0558 0.0407969 0)
(10.0618 0.0409119 0)
(10.0675 0.040809 0)
(10.0728 0.0405495 0)
(10.078 0.0401756 0)
(10.0829 0.0397089 0)
(10.0876 0.0391521 0)
(10.0922 0.0384942 0)
(10.0966 0.0377065 0)
(10.1009 0.0367623 0)
(10.0003 0.00536857 0)
(10.0037 0.015548 0)
(10.0099 0.0232311 0)
(10.0173 0.0283351 0)
(10.0245 0.0319121 0)
(10.0315 0.0344543 0)
(10.0384 0.0360821 0)
(10.045 0.0370122 0)
(10.0512 0.0374864 0)
(10.0571 0.0376527 0)
(10.0626 0.0375923 0)
(10.0679 0.0373621 0)
(10.073 0.0370025 0)
(10.0779 0.0365345 0)
(10.0825 0.0359631 0)
(10.087 0.0352811 0)
(10.0914 0.0344695 0)
(10.0956 0.0335206 0)
(10.0003 0.00470319 0)
(10.0032 0.0136062 0)
(10.0086 0.0205837 0)
(10.0152 0.0254221 0)
(10.0219 0.0288325 0)
(10.0286 0.0312686 0)
(10.0351 0.0328766 0)
(10.0414 0.0338323 0)
(10.0474 0.0343392 0)
(10.0531 0.0345357 0)
(10.0585 0.034501 0)
(10.0637 0.0342889 0)
(10.0687 0.0339371 0)
(10.0735 0.0334671 0)
(10.078 0.0328865 0)
(10.0824 0.0321926 0)
(10.0867 0.0313739 0)
(10.0908 0.0304375 0)
(10.0003 0.00408819 0)
(10.0028 0.0118362 0)
(10.0075 0.0180834 0)
(10.0134 0.0225798 0)
(10.0197 0.0257893 0)
(10.0259 0.0280937 0)
(10.0321 0.0296493 0)
(10.0381 0.0306035 0)
(10.0439 0.0311248 0)
(10.0494 0.0313381 0)
(10.0547 0.0313195 0)
(10.0598 0.0311194 0)
(10.0647 0.0307735 0)
(10.0693 0.0303037 0)
(10.0738 0.0297198 0)
(10.0781 0.029024 0)
(10.0822 0.0282106 0)
(10.0862 0.0272979 0)
(10.0002 0.00345292 0)
(10.0024 0.00999659 0)
(10.0064 0.0154015 0)
(10.0117 0.019431 0)
(10.0174 0.022356 0)
(10.0232 0.024469 0)
(10.029 0.0259214 0)
(10.0347 0.0268365 0)
(10.0403 0.0273473 0)
(10.0456 0.027561 0)
(10.0508 0.0275478 0)
(10.0557 0.027354 0)
(10.0604 0.0270129 0)
(10.0649 0.0265462 0)
(10.0693 0.0259661 0)
(10.0735 0.0252792 0)
(10.0774 0.0244855 0)
(10.0812 0.0236108 0)
(10.0002 0.00279332 0)
(10.002 0.00808585 0)
(10.0055 0.0125482 0)
(10.0101 0.0159811 0)
(10.0153 0.0185195 0)
(10.0206 0.0203657 0)
(10.026 0.021651 0)
(10.0314 0.0224753 0)
(10.0367 0.0229393 0)
(10.0418 0.0231288 0)
(10.0468 0.0231047 0)
(10.0515 0.0229085 0)
(10.0561 0.02257 0)
(10.0605 0.0221101 0)
(10.0647 0.0215427 0)
(10.0687 0.020878 0)
(10.0725 0.0201202 0)
(10.0761 0.0192994 0)
(10.0002 0.00210873 0)
(10.0017 0.00610616 0)
(10.0047 0.00953217 0)
(10.0088 0.0122349 0)
(10.0134 0.0142676 0)
(10.0183 0.0157545 0)
(10.0233 0.0167939 0)
(10.0283 0.0174617 0)
(10.0333 0.0178292 0)
(10.0382 0.01796 0)
(10.0429 0.0179022 0)
(10.0475 0.0176904 0)
(10.0519 0.0173499 0)
(10.0561 0.0168999 0)
(10.0601 0.0163544 0)
(10.0639 0.0157253 0)
(10.0676 0.015019 0)
(10.0711 0.0142666 0)
(10.0002 0.00139622 0)
(10.0015 0.00404356 0)
(10.0041 0.00633729 0)
(10.0076 0.00817559 0)
(10.0118 0.00957217 0)
(10.0163 0.0105915 0)
(10.0209 0.0112941 0)
(10.0256 0.0117286 0)
(10.0303 0.01194 0)
(10.035 0.0119691 0)
(10.0395 0.011849 0)
(10.0438 0.0116046 0)
(10.048 0.0112553 0)
(10.0521 0.0108163 0)
(10.0559 0.0103 0)
(10.0596 0.00971745 0)
(10.0631 0.00907544 0)
(10.0664 0.00840275 0)
(10.0001 0.000639397 0)
(10.0013 0.00184632 0)
(10.0036 0.0028915 0)
(10.0069 0.00372329 0)
(10.0107 0.00434263 0)
(10.0148 0.00477214 0)
(10.0192 0.00503461 0)
(10.0237 0.00514992 0)
(10.0281 0.00513745 0)
(10.0325 0.00501544 0)
(10.0368 0.0047995 0)
(10.041 0.00450233 0)
(10.045 0.00413458 0)
(10.0489 0.00370552 0)
(10.0526 0.00322339 0)
(10.0561 0.00269627 0)
(10.0595 0.00212909 0)
(10.0626 0.00154608 0)
(10.0001 -0.00020483 0)
(10.0012 -0.00060748 0)
(10.0034 -0.000978302 0)
(10.0066 -0.00131425 0)
(10.0102 -0.00161408 0)
(10.0143 -0.00189164 0)
(10.0185 -0.00216475 0)
(10.0228 -0.00244549 0)
(10.0271 -0.00274108 0)
(10.0314 -0.00305707 0)
(10.0355 -0.00339764 0)
(10.0396 -0.00376501 0)
(10.0434 -0.00415966 0)
(10.0472 -0.00458075 0)
(10.0508 -0.00502652 0)
(10.0542 -0.00549406 0)
(10.0574 -0.00598202 0)
(10.0605 -0.00647301 0)
(10.0001 -0.00101236 0)
(10.0013 -0.00296148 0)
(10.0037 -0.00469755 0)
(10.007 -0.00614655 0)
(10.0108 -0.00730463 0)
(10.015 -0.00823138 0)
(10.0193 -0.0089882 0)
(10.0237 -0.00961694 0)
(10.028 -0.0101518 0)
(10.0323 -0.0106242 0)
(10.0364 -0.0110588 0)
(10.0405 -0.0114719 0)
(10.0443 -0.0118747 0)
(10.048 -0.0122744 0)
(10.0515 -0.0126757 0)
(10.0548 -0.0130808 0)
(10.058 -0.0134918 0)
(10.061 -0.0138976 0)
(10.0002 -0.00170875 0)
(10.0015 -0.00501734 0)
(10.0041 -0.00794779 0)
(10.0078 -0.0103042 0)
(10.012 -0.0121069 0)
(10.0164 -0.0135059 0)
(10.021 -0.0146072 0)
(10.0255 -0.0154677 0)
(10.03 -0.0161441 0)
(10.0344 -0.0166948 0)
(10.0386 -0.0171642 0)
(10.0426 -0.0175807 0)
(10.0465 -0.0179634 0)
(10.0501 -0.0183258 0)
(10.0536 -0.018677 0)
(10.057 -0.0190226 0)
(10.0601 -0.0193665 0)
(10.0631 -0.0197016 0)
(10.0002 -0.00237011 0)
(10.0016 -0.00704892 0)
(10.0047 -0.0111956 0)
(10.009 -0.0143698 0)
(10.0137 -0.016671 0)
(10.0185 -0.0184094 0)
(10.0234 -0.019745 0)
(10.0282 -0.0207484 0)
(10.0328 -0.021501 0)
(10.0373 -0.0220837 0)
(10.0416 -0.0225531 0)
(10.0457 -0.0229456 0)
(10.0496 -0.0232875 0)
(10.0533 -0.0235982 0)
(10.0568 -0.0238907 0)
(10.0601 -0.0241726 0)
(10.0632 -0.0244493 0)
(10.0662 -0.0247163 0)
(10.0002 -0.00298914 0)
(10.0018 -0.00910636 0)
(10.0054 -0.0144657 0)
(10.0105 -0.0183593 0)
(10.0159 -0.0211078 0)
(10.0211 -0.0231342 0)
(10.0263 -0.0245939 0)
(10.0314 -0.0256119 0)
(10.0363 -0.0263423 0)
(10.0409 -0.0268949 0)
(10.0453 -0.0273261 0)
(10.0494 -0.0276715 0)
(10.0534 -0.0279603 0)
(10.0571 -0.0282147 0)
(10.0606 -0.028449 0)
(10.0639 -0.0286715 0)
(10.0671 -0.0288875 0)
(10.07 -0.0290946 0)
(10.0001 -0.00353482 0)
(10.0018 -0.011559 0)
(10.0062 -0.0178992 0)
(10.0123 -0.022001 0)
(10.0183 -0.025072 0)
(10.024 -0.0274853 0)
(10.0296 -0.029127 0)
(10.035 -0.0301405 0)
(10.0401 -0.0307961 0)
(10.0449 -0.0312585 0)
(10.0494 -0.0315952 0)
(10.0536 -0.0318468 0)
(10.0576 -0.0320471 0)
(10.0613 -0.0322199 0)
(10.0649 -0.0323785 0)
(10.0682 -0.0325304 0)
(10.0713 -0.0326791 0)
(10.0742 -0.0328208 0)
(9.99991 -0.00338314 0)
(10.0016 -0.0149745 0)
(10.0073 -0.0227357 0)
(10.0142 -0.0262509 0)
(10.0206 -0.0288413 0)
(10.0268 -0.0312099 0)
(10.0331 -0.0329343 0)
(10.039 -0.0340252 0)
(10.0444 -0.0347274 0)
(10.0494 -0.0351935 0)
(10.054 -0.0354936 0)
(10.0583 -0.0356819 0)
(10.0623 -0.0358045 0)
(10.066 -0.0358922 0)
(10.0694 -0.0359631 0)
(10.0726 -0.0360271 0)
(10.0755 -0.0360889 0)
(10.0782 -0.036147 0)
(9.9986 -0.000399886 0)
(9.99909 -0.0157614 0)
(10.0075 -0.0274371 0)
(10.0166 -0.0325008 0)
(10.0238 -0.0348798 0)
(10.0306 -0.036238 0)
(10.0376 -0.0369922 0)
(10.0441 -0.037461 0)
(10.0498 -0.0378116 0)
(10.055 -0.0380605 0)
(10.0595 -0.038207 0)
(10.0636 -0.038276 0)
(10.0672 -0.0382977 0)
(10.0703 -0.0382933 0)
(10.0731 -0.0382779 0)
(10.0755 -0.0382599 0)
(10.0776 -0.038243 0)
(10.0795 -0.0382252 0)
(9.99488 0.00133431 0)
(9.99288 -0.00809619 0)
(10.006 -0.0203568 0)
(10.0202 -0.0322835 0)
(10.0306 -0.0404872 0)
(10.0392 -0.0441603 0)
(10.0467 -0.0450741 0)
(10.0529 -0.0449309 0)
(10.0578 -0.0444653 0)
(10.0616 -0.0438708 0)
(10.0646 -0.0432272 0)
(10.0667 -0.0425913 0)
(10.0682 -0.0419973 0)
(10.069 -0.0414535 0)
(10.0693 -0.0409697 0)
(10.0692 -0.0405421 0)
(10.0687 -0.040168 0)
(10.068 -0.0398218 0)
(9.99473 -0.0305622 0)
(9.99925 -0.0228744 0)
(10.0147 -0.00263914 0)
(10.0304 -0.00191441 0)
(10.0434 -0.011665 0)
(10.0533 -0.0209297 0)
(10.0594 -0.0272876 0)
(10.0618 -0.0315163 0)
(10.0615 -0.034292 0)
(10.059 -0.035989 0)
(10.055 -0.0369214 0)
(10.0497 -0.0373554 0)
(10.0434 -0.0374813 0)
(10.0364 -0.0374189 0)
(10.0289 -0.0372587 0)
(10.0209 -0.0370557 0)
(10.0128 -0.0368749 0)
(10.0046 -0.0366849 0)
(10.0273 -0.182759 0)
(10.0763 -0.288315 0)
(10.0871 -0.247757 0)
(10.0777 -0.186522 0)
(10.0663 -0.1403 0)
(10.0537 -0.108226 0)
(10.0365 -0.0858868 0)
(10.0145 -0.0704273 0)
(9.98936 -0.0596588 0)
(9.96231 -0.0518852 0)
(9.93434 -0.0460631 0)
(9.90601 -0.0415658 0)
(9.87783 -0.0380099 0)
(9.85012 -0.0351348 0)
(9.82312 -0.0327684 0)
(9.79695 -0.0308474 0)
(9.77185 -0.0293305 0)
(9.74785 -0.0285107 0)
(9.93574 0.689319 0)
(9.86861 0.609604 0)
(9.76453 0.380622 0)
(9.62663 0.217441 0)
(9.48588 0.119265 0)
(9.35718 0.0631843 0)
(9.24265 0.0315726 0)
(9.1411 0.0136126 0)
(9.0514 0.0032594 0)
(8.97242 -0.00280196 0)
(8.90251 -0.00635751 0)
(8.84032 -0.00847683 0)
(8.78462 -0.00972759 0)
(8.7345 -0.0104738 0)
(8.68907 -0.0109768 0)
(8.64772 -0.0112459 0)
(8.60952 -0.0114526 0)
(8.57417 -0.0121129 0)
(0.00544489 -0.0128675 -7.68973e-19)
(0.0182191 -0.018735 6.53811e-19)
(0.0281202 -0.0145119 0)
(0.0335679 -0.00683157 0)
(0.033579 0.00107645 0)
(0.0286841 0.00756654 -3.26828e-19)
(0.0200807 0.0121642 0)
(0.00874994 0.0151011 0)
(-0.00459031 0.0168505 0)
(-0.0194143 0.0178899 0)
(-0.0353744 0.018573 1.82491e-19)
(-0.052291 0.0191125 0)
(-0.0700531 0.0196074 0)
(-0.0885945 0.0200972 0)
(-0.107868 0.0205935 0)
(-0.127837 0.0211007 1.0694e-19)
(-0.148467 0.0216232 0)
(-0.169719 0.0221672 0)
(-0.191557 0.0227393 0)
(-0.213934 0.0233466 0)
(-0.236811 0.0240026 0)
(-0.260152 0.0247439 0)
(-0.283938 0.0256484 0)
(-0.308106 0.0268582 6.75995e-20)
(-0.332569 0.0285769 -6.54465e-20)
(-0.357238 0.0310604 6.37717e-20)
(-0.382111 0.0347271 6.25904e-20)
(-0.407506 0.0405634 0)
(-0.433867 0.0495095 0)
(-0.461464 0.0621013 -6.88184e-20)
(-0.492595 0.0405971 -8.65675e-20)
(-0.524684 0.00632427 0)
(-0.551102 0.0109733 0)
(-0.584693 0.0162511 -8.59649e-20)
(-0.622177 0.0219727 0)
(-0.661324 0.0161465 0)
(-0.701283 0.0125123 7.40012e-20)
(-0.738243 0.031581 0)
(-0.77974 0.0466997 6.82825e-20)
(-0.823704 0.0423313 1.30244e-19)
(-0.864367 0.0274109 0)
(-0.901509 0.0258992 0)
(-0.938017 0.0341371 0)
(-0.978329 0.0348328 0)
(-1.01826 0.0348898 0)
(-1.05835 0.0347705 1.08938e-19)
(-1.0985 0.0346335 1.05949e-19)
(-1.13871 0.0344333 1.03136e-19)
(-1.1789 0.0341927 0)
(-1.21904 0.0339138 -9.80013e-20)
(-1.25909 0.0336115 0)
(-1.29902 0.0332917 9.34455e-20)
(-1.33883 0.0329591 9.13563e-20)
(-1.37848 0.0326167 0)
(-1.41797 0.0322651 0)
(-1.45727 0.0319051 0)
(-1.49638 0.0315356 8.40307e-20)
(-1.53527 0.0311564 0)
(-1.57393 0.0307658 0)
(-1.61233 0.0303631 0)
(-1.65045 0.0299463 0)
(-1.68827 0.0295148 0)
(-1.72576 0.0290665 0)
(-1.7629 0.0286009 0)
(-1.79965 0.0281162 0)
(-1.83598 0.027612 -7.17186e-20)
(-1.87187 0.0270868 0)
(-1.90726 0.0265404 0)
(-1.94214 0.0259718 6.8441e-20)
(-1.97645 0.025381 6.74106e-20)
(-2.01017 0.0247672 0)
(-2.04325 0.0241305 -6.54269e-20)
(-2.07566 0.0234705 6.44686e-20)
(-2.10735 0.0227876 0)
(-2.13828 0.0220815 -6.26076e-20)
(-2.16841 0.0213528 0)
(-2.1977 0.0206017 0)
(-2.2261 0.0198291 5.99226e-20)
(-2.25358 0.0190349 0)
(-2.28009 0.01822 -5.81803e-20)
(-2.3056 0.0173847 0)
(-2.33005 0.0165298 5.64587e-20)
(-2.35342 0.0156552 5.56012e-20)
(-2.37565 0.0147615 5.47437e-20)
(-2.39671 0.0138482 1.07769e-19)
(-2.41656 0.0129154 -1.06044e-19)
(-2.43517 0.0119619 0)
(-2.45248 0.010987 0)
(-2.46846 0.00998847 0)
(-2.48307 0.00896114 -9.9018e-20)
(-2.49626 0.00789829 -9.72165e-20)
(-2.50798 0.00679012 9.53929e-20)
(-2.51815 0.00562751 0)
(-2.5267 0.00440385 -9.16731e-20)
(-2.53357 0.00312658 -8.97756e-20)
(-2.53868 0.00183872 -8.78533e-20)
(-2.5419 0.00063989 0)
(-2.54319 -0.000379517 0)
(-2.54306 -0.00127873 0)
(-2.54143 -0.00214861 -7.9685e-20)
(-2.53836 -0.00300219 0)
(-2.53382 -0.00384756 0)
(-2.52783 -0.00468518 7.30079e-20)
(-2.52037 -0.00551468 0)
(-2.51145 -0.00633563 0)
(-2.50107 -0.00714669 6.58032e-20)
(-2.48922 -0.00794762 0)
(-2.47591 -0.00873706 0)
(-2.46115 -0.00951492 -5.80164e-20)
(-2.44494 -0.0102799 -5.52819e-20)
(-2.42729 -0.0110319 0)
(-2.4082 -0.0117698 4.95924e-20)
(-2.38769 -0.0124937 0)
(-2.36577 -0.0132026 -4.35945e-20)
(-2.34245 -0.0138965 0)
(-2.31775 -0.0145746 -3.72706e-20)
(-2.29167 -0.0152368 -3.39804e-20)
(-2.26424 -0.0158826 0)
(-2.23547 -0.0165126 0)
(-2.20538 -0.0171277 0)
(-2.174 -0.0177283 0)
(-2.14134 -0.0183138 0)
(-2.10742 -0.0188827 0)
(-2.07225 -0.0194352 0)
(-2.03587 -0.0199704 -4.18178e-21)
(-1.99829 -0.0204911 -3.31967e-23)
(-1.95953 -0.020999 0)
(-1.91961 -0.0214968 0)
(-1.87856 -0.0219711 0)
(-1.8364 -0.0224331 0)
(-1.79315 -0.0228907 -4.6193e-20)
(-1.74882 -0.0233325 0)
(-1.70345 -0.0237578 6.67719e-20)
(-1.65706 -0.0241751 -7.75887e-20)
(-1.60969 -0.0245813 0)
(-1.56135 -0.0249784 0)
(-1.51206 -0.025365 0)
(-1.46185 -0.025747 1.24893e-19)
(-1.41073 -0.0261207 1.37868e-19)
(-1.35875 -0.026492 0)
(-1.30594 -0.0268623 1.65431e-19)
(-1.25231 -0.0272345 1.80098e-19)
(-1.19791 -0.0276104 -1.95418e-19)
(-1.14274 -0.0279905 0)
(-1.08683 -0.0283762 0)
(-1.0302 -0.0287681 -2.45855e-19)
(-0.972867 -0.0291684 0)
(-0.914853 -0.029578 0)
(-0.856177 -0.0299995 0)
(-0.79686 -0.030434 0)
(-0.73692 -0.0308842 3.49338e-19)
(-0.676377 -0.0313511 3.73849e-19)
(-0.615248 -0.0318369 0)
(-0.553553 -0.0323427 4.27796e-19)
(-0.491307 -0.0328714 0)
(-0.42853 -0.0334249 0)
(-0.365238 -0.034005 5.24031e-19)
(-0.301444 -0.0346097 0)
(-0.237166 -0.0352442 6.01536e-19)
(-0.172428 -0.0359222 0)
(-0.107269 -0.0366146 0)
(-0.0418191 -0.0371999 7.43533e-19)
(0.0239712 -0.0371227 0)
(0.0903115 -0.036421 7.35061e-19)
(0.157028 -0.0356713 0)
(0.224015 -0.0349482 0)
(0.291206 -0.0342515 0)
(0.358542 -0.033572 -6.6427e-19)
(0.425952 -0.0329001 0)
(0.493353 -0.0322248 6.36545e-19)
(0.56064 -0.0315346 0)
(0.627681 -0.0308132 0)
(0.694301 -0.0300393 0)
(0.760249 -0.0291786 0)
(0.825201 -0.028169 0)
(0.888371 -0.0268958 0)
(0.949311 -0.0250565 0)
(1.00257 -0.0219985 -1.12699e-18)
(1.05441 -0.0156652 0)
(1.04534 0.00308357 0)
(0.00466737 -0.036313 1.76379e-18)
(0.00984466 -0.0330283 -9.90032e-19)
(0.00871299 -0.0178031 0)
(0.00464922 -0.0025828 3.08206e-19)
(-0.00190317 0.0111721 0)
(-0.0107628 0.0227239 1.17034e-19)
(-0.0218554 0.031826 -2.13318e-19)
(-0.0350528 0.0386784 -1.96366e-19)
(-0.0501503 0.0437291 0)
(-0.0668836 0.047487 -1.68024e-19)
(-0.0850193 0.0503904 -7.80701e-20)
(-0.104376 0.0527565 0)
(-0.124814 0.054785 0)
(-0.146237 0.0565909 0)
(-0.168579 0.058236 0)
(-0.191804 0.0597535 -5.7002e-20)
(-0.215892 0.0611636 0)
(-0.240839 0.0624809 1.03177e-19)
(-0.266656 0.0637185 0)
(-0.293368 0.0648874 0)
(-0.321022 0.0659952 -9.16328e-20)
(-0.349693 0.0670458 0)
(-0.379477 0.0680383 8.66203e-20)
(-0.410499 0.0689736 -4.27218e-20)
(-0.442933 0.0698422 4.23224e-20)
(-0.476991 0.0706256 -4.2365e-20)
(-0.512926 0.0713031 -4.29343e-20)
(-0.550795 0.0719487 0)
(-0.590009 0.072906 0)
(-0.628809 0.0747965 4.83729e-20)
(-0.670791 0.0774016 -5.10119e-20)
(-0.713613 0.080533 0)
(-0.756656 0.0849537 0)
(-0.797185 0.0884004 4.5505e-20)
(-0.835144 0.090499 0)
(-0.873103 0.0912205 0)
(-0.912184 0.0909885 -3.86437e-20)
(-0.951044 0.0912208 0)
(-0.988178 0.0916464 3.59176e-20)
(-1.02507 0.0911475 -6.85074e-20)
(-1.06391 0.0902811 0)
(-1.10379 0.0898906 0)
(-1.14331 0.0899318 -1.25418e-19)
(-1.18132 0.0896897 -1.22556e-19)
(-1.21887 0.0891645 -1.19886e-19)
(-1.25603 0.0884792 5.8546e-20)
(-1.29282 0.0876716 -5.76445e-20)
(-1.32929 0.08678 -1.69263e-19)
(-1.36547 0.085826 1.106e-19)
(-1.40137 0.0848272 5.44232e-20)
(-1.437 0.0837958 0)
(-1.47235 0.0827403 -5.25157e-20)
(-1.50744 0.0816651 5.13333e-20)
(-1.54224 0.0805728 0)
(-1.57676 0.0794632 0)
(-1.61098 0.0783357 0)
(-1.64488 0.0771883 -4.83926e-20)
(-1.67846 0.0760189 0)
(-1.71169 0.0748246 9.36111e-20)
(-1.74455 0.0736032 0)
(-1.77703 0.0723514 9.09035e-20)
(-1.8091 0.0710673 0)
(-1.84074 0.0697479 -8.83491e-20)
(-1.87193 0.0683915 0)
(-1.90263 0.0669957 8.59226e-20)
(-1.93282 0.0655593 -4.22481e-20)
(-1.96247 0.0640805 0)
(-1.99155 0.0625587 -8.24748e-20)
(-2.02003 0.0609927 -4.0802e-20)
(-2.04788 0.0593826 -4.0253e-20)
(-2.07508 0.0577277 0)
(-2.10157 0.0560284 -3.89578e-20)
(-2.12735 0.0542848 -3.86441e-20)
(-2.15236 0.0524977 0)
(-2.17658 0.0506676 3.75927e-20)
(-2.19998 0.048796 -7.39557e-20)
(-2.22252 0.0468838 0)
(-2.24417 0.0449331 -3.60286e-20)
(-2.26489 0.0429448 0)
(-2.28466 0.0409211 1.04804e-19)
(-2.30345 0.0388634 0)
(-2.32121 0.0367739 -1.01663e-19)
(-2.33792 0.034654 -3.33975e-20)
(-2.35355 0.0325064 3.27548e-20)
(-2.36808 0.0303322 6.44473e-20)
(-2.38146 0.0281336 -6.33734e-20)
(-2.39367 0.0259109 0)
(-2.40468 0.0236654 0)
(-2.41448 0.0213968 0)
(-2.42303 0.0191049 1.76928e-19)
(-2.43033 0.0167889 5.78181e-20)
(-2.43635 0.0144478 -5.66196e-20)
(-2.44111 0.0120804 0)
(-2.44461 0.00968245 -5.42051e-20)
(-2.44689 0.00725382 5.29029e-20)
(-2.44801 0.00481584 5.1625e-20)
(-2.44809 0.00244065 0)
(-2.4472 0.000215816 0)
(-2.44496 -0.00188956 0)
(-2.44134 -0.00394778 4.61693e-20)
(-2.43631 -0.00597017 0)
(-2.42985 -0.00796525 -8.68152e-20)
(-2.42196 -0.00993338 -1.25683e-19)
(-2.41263 -0.0118734 8.08903e-20)
(-2.40186 -0.0137836 0)
(-2.38964 -0.0156618 3.75511e-20)
(-2.37598 -0.0175066 0)
(-2.36089 -0.0193156 6.83844e-20)
(-2.34436 -0.0210879 -3.27767e-20)
(-2.32639 -0.0228214 -3.1129e-20)
(-2.30701 -0.0245152 0)
(-2.28621 -0.0261675 -8.22268e-20)
(-2.26401 -0.027778 5.14994e-20)
(-2.24041 -0.0293452 2.36984e-20)
(-2.21543 -0.0308688 0)
(-2.18908 -0.0323478 2.0049e-20)
(-2.16137 -0.0337814 5.51788e-20)
(-2.13233 -0.0351685 0)
(-2.10196 -0.0365098 2.94173e-20)
(-2.07028 -0.0378064 2.55482e-20)
(-2.03731 -0.0390593 2.16262e-20)
(-2.00308 -0.0402683 0)
(-1.96759 -0.0414315 0)
(-1.93087 -0.0425478 0)
(-1.89293 -0.043616 -3.09954e-21)
(-1.8538 -0.0446384 -2.17734e-22)
(-1.8135 -0.0456159 0)
(-1.77204 -0.046552 7.28116e-21)
(-1.72945 -0.0474429 1.16164e-20)
(-1.68574 -0.0482921 0)
(-1.64093 -0.0491042 2.13157e-20)
(-1.59506 -0.0498761 4.9861e-20)
(-1.54813 -0.0505966 -3.03776e-20)
(-1.50018 -0.0512733 -3.31608e-20)
(-1.45123 -0.0519088 0)
(-1.4013 -0.0525088 0)
(-1.35041 -0.05307 0)
(-1.29859 -0.0535939 -5.39948e-20)
(-1.24585 -0.05408 5.69443e-20)
(-1.19223 -0.0545324 1.25727e-19)
(-1.13775 -0.054955 -6.88667e-20)
(-1.08244 -0.0553507 7.19408e-20)
(-1.02632 -0.055723 7.91032e-20)
(-0.969415 -0.056071 0)
(-0.91174 -0.0563967 0)
(-0.853315 -0.0566986 -9.28996e-20)
(-0.794158 -0.0569796 0)
(-0.734288 -0.0572392 0)
(-0.673723 -0.0574802 2.21064e-19)
(-0.612483 -0.0577024 0)
(-0.550583 -0.0579088 1.20947e-19)
(-0.488042 -0.0580993 -1.29076e-19)
(-0.424875 -0.0582765 0)
(-0.3611 -0.0584409 1.38979e-19)
(-0.296734 -0.0585943 0)
(-0.231792 -0.0587393 0)
(-0.166294 -0.0588782 -1.6047e-19)
(-0.100261 -0.0590115 3.31897e-19)
(-0.0337212 -0.059135 -1.7353e-19)
(0.0333238 -0.059228 0)
(0.100869 -0.0592868 0)
(0.168895 -0.0593128 1.79153e-19)
(0.237297 -0.0591429 0)
(0.305881 -0.0587292 1.83509e-19)
(0.374602 -0.0582175 0)
(0.443474 -0.057665 0)
(0.512442 -0.0570787 0)
(0.581442 -0.0564537 1.94271e-19)
(0.650399 -0.0557787 0)
(0.719231 -0.055043 -1.98083e-19)
(0.787835 -0.054229 0)
(0.856084 -0.0533137 0)
(0.923814 -0.0522584 4.04557e-19)
(0.99079 -0.0510019 -4.07847e-19)
(1.0567 -0.0494216 0)
(1.12089 -0.0472923 0)
(1.18281 -0.0440186 0)
(1.23924 -0.0385505 1.26955e-18)
(1.29319 -0.0268723 0)
(1.32181 0.000426476 -8.8789e-19)
(-0.000857133 -0.0422507 -9.20737e-22)
(-0.0043094 -0.024917 9.48931e-19)
(-0.0116942 -0.00370473 0)
(-0.0210446 0.0151746 -3.83114e-19)
(-0.0318612 0.031799 0)
(-0.0438545 0.0461767 0)
(-0.0570727 0.0582894 6.01312e-23)
(-0.0716337 0.0682381 1.19266e-19)
(-0.0876026 0.0762848 1.1225e-19)
(-0.104968 0.0827901 1.06299e-19)
(-0.123664 0.088128 0)
(-0.143604 0.0926263 0)
(-0.1647 0.096539 -9.14993e-20)
(-0.186878 0.100046 -1.74887e-19)
(-0.210088 0.103271 1.67515e-19)
(-0.234297 0.106293 0)
(-0.259489 0.109174 1.54751e-19)
(-0.285662 0.111958 -7.47569e-20)
(-0.312824 0.114688 0)
(-0.340991 0.117405 1.39768e-19)
(-0.370188 0.120151 6.80699e-20)
(-0.40045 0.122971 -1.32267e-19)
(-0.43181 0.125909 -6.48855e-20)
(-0.464286 0.129012 0)
(-0.497873 0.132321 1.25338e-19)
(-0.532528 0.135875 1.24427e-19)
(-0.568132 0.139671 0)
(-0.604427 0.143662 1.24689e-19)
(-0.640965 0.147621 0)
(-0.677356 0.150946 1.25987e-19)
(-0.714129 0.152473 6.26116e-20)
(-0.751377 0.152964 0)
(-0.788539 0.154296 0)
(-0.824821 0.155552 0)
(-0.860186 0.156186 0)
(-0.895142 0.155774 0)
(-0.930037 0.154923 0)
(-0.964463 0.154546 9.75286e-20)
(-0.997865 0.153573 -1.41656e-19)
(-1.03077 0.151172 0)
(-1.06428 0.148088 0)
(-1.09832 0.145748 0)
(-1.13214 0.14409 5.29348e-23)
(-1.16538 0.142368 8.34889e-20)
(-1.19829 0.140638 1.63558e-19)
(-1.23093 0.138909 -1.60398e-19)
(-1.26335 0.137174 -7.86305e-20)
(-1.29555 0.135427 7.73308e-20)
(-1.32756 0.133664 -1.43823e-22)
(-1.35938 0.131885 7.45042e-20)
(-1.39101 0.13009 0)
(-1.42246 0.12828 7.2031e-20)
(-1.45372 0.126453 -1.56634e-22)
(-1.48478 0.124607 0)
(-1.51563 0.122739 0)
(-1.54626 0.120846 -6.76063e-20)
(-1.57666 0.118923 0)
(-1.60681 0.116966 0)
(-1.63669 0.11497 6.44868e-20)
(-1.66628 0.112931 1.27432e-19)
(-1.69557 0.110846 -6.29676e-20)
(-1.72452 0.108711 0)
(-1.75311 0.106521 6.12132e-20)
(-1.78133 0.104275 0)
(-1.80913 0.101969 5.92265e-20)
(-1.83651 0.0996009 5.87115e-20)
(-1.86342 0.0971696 -1.15518e-19)
(-1.88984 0.0946738 -5.68243e-20)
(-1.91574 0.0921123 0)
(-1.94108 0.0894851 1.10829e-19)
(-1.96585 0.0867919 0)
(-1.98999 0.0840332 1.61803e-19)
(-2.01349 0.0812098 1.06277e-19)
(-2.03631 0.0783227 1.04778e-19)
(-2.05842 0.0753735 -1.03284e-19)
(-2.07978 0.0723641 1.52797e-19)
(-2.10036 0.0692965 0)
(-2.12013 0.0661734 0)
(-2.13905 0.0629971 -9.73138e-20)
(-2.15709 0.0597706 -1.43803e-19)
(-2.17422 0.0564967 0)
(-2.19041 0.0531786 4.64638e-20)
(-2.20563 0.0498194 0)
(-2.21984 0.0464227 -1.34621e-19)
(-2.23302 0.0429917 -1.02247e-22)
(-2.24513 0.0395301 8.76308e-23)
(-2.25616 0.036041 8.49796e-20)
(-2.26608 0.0325279 0)
(-2.27485 0.0289941 -8.17307e-20)
(-2.28247 0.0254433 -2.55477e-23)
(-2.28893 0.0218802 0)
(-2.2942 0.0183126 0)
(-2.29829 0.014751 0)
(-2.30119 0.0112103 7.31599e-20)
(-2.30291 0.00771017 0)
(-2.30344 0.00427457 0)
(-2.30277 0.000913735 0)
(-2.30082 -0.00240124 0)
(-2.29755 -0.00569024 0)
(-2.29293 -0.00894444 6.18925e-20)
(-2.28694 -0.0121607 0)
(-2.27957 -0.0153366 5.76965e-20)
(-2.27081 -0.0184687 5.56257e-20)
(-2.26066 -0.0215537 -5.35256e-20)
(-2.24911 -0.0245881 0)
(-2.23615 -0.0275686 -4.9238e-20)
(-2.2218 -0.030492 0)
(-2.20606 -0.0333555 -4.48354e-20)
(-2.18891 -0.0361562 4.25917e-20)
(-2.17038 -0.038892 1.21576e-19)
(-2.15046 -0.0415605 0)
(-2.12917 -0.0441598 1.07764e-19)
(-2.10651 -0.0466884 3.4049e-20)
(-2.0825 -0.0491449 0)
(-2.05714 -0.0515283 5.78957e-20)
(-2.03045 -0.0538374 5.30733e-20)
(-2.00243 -0.0560711 -7.19006e-20)
(-1.97311 -0.0582287 0)
(-1.9425 -0.0603105 -1.87356e-20)
(-1.91061 -0.0623174 -1.62239e-20)
(-1.87746 -0.0642505 -4.19862e-20)
(-1.84307 -0.0661093 0)
(-1.80746 -0.0678926 0)
(-1.77063 -0.0695982 0)
(-1.73262 -0.0712263 -4.3792e-21)
(-1.69343 -0.0727777 0)
(-1.6531 -0.0742551 0)
(-1.61162 -0.0756609 -4.50858e-21)
(-1.56904 -0.0769954 -7.16838e-21)
(-1.52535 -0.0782605 0)
(-1.48058 -0.0794589 0)
(-1.43476 -0.0805873 -3.04424e-20)
(-1.38791 -0.0816389 0)
(-1.34003 -0.0826182 4.13031e-20)
(-1.29116 -0.0835293 4.56163e-20)
(-1.24132 -0.0843757 0)
(-1.19053 -0.0851576 0)
(-1.1388 -0.0858753 -6.2097e-20)
(-1.08617 -0.0865307 -1.19922e-21)
(-1.03266 -0.0871277 -1.21043e-21)
(-0.978289 -0.0876715 0)
(-0.923086 -0.0881661 -1.69958e-19)
(-0.867072 -0.0886147 0)
(-0.810268 -0.0890178 0)
(-0.752691 -0.0893767 0)
(-0.69436 -0.0896913 1.08254e-19)
(-0.635294 -0.0899637 0)
(-0.575511 -0.0901944 -2.36892e-19)
(-0.515031 -0.0903857 -1.25525e-19)
(-0.453872 -0.0905383 0)
(-0.392051 -0.0906547 -1.37201e-19)
(-0.329588 -0.0907357 0)
(-0.266499 -0.0907831 0)
(-0.202804 -0.0907983 -4.62291e-19)
(-0.138521 -0.0907824 3.19304e-19)
(-0.0736678 -0.0907369 0)
(-0.0082699 -0.09066 3.42275e-19)
(0.0576555 -0.0905487 -1.76708e-19)
(0.124078 -0.0904039 0)
(0.19096 -0.0902186 0)
(0.258262 -0.0899782 0)
(0.325941 -0.0896741 -5.684e-19)
(0.393945 -0.0893145 0)
(0.462178 -0.088878 -1.97282e-19)
(0.530579 -0.088346 0)
(0.599103 -0.0877405 0)
(0.667681 -0.0870616 0)
(0.73624 -0.0863026 0)
(0.804702 -0.0854498 0)
(0.872982 -0.0844887 0)
(0.940977 -0.0833947 -4.38023e-19)
(1.00856 -0.0821334 0)
(1.07558 -0.0806476 -2.26257e-19)
(1.14182 -0.0788444 6.84996e-19)
(1.207 -0.0765479 0)
(1.27057 -0.0734313 0)
(1.33212 -0.0687754 -4.73537e-19)
(1.38955 -0.061226 -4.82409e-19)
(1.44575 -0.0472451 4.89447e-19)
(1.4883 -0.0186864 5.06804e-19)
(-0.00627899 -0.0307018 -2.69918e-18)
(-0.0154534 -0.00471753 -1.13402e-18)
(-0.02669 0.0195364 -4.1003e-19)
(-0.0396323 0.0402582 -1.46731e-19)
(-0.0535028 0.0584607 0)
(-0.0679716 0.0744819 2.12951e-19)
(-0.0831352 0.0884364 -9.73586e-20)
(-0.0991607 0.100427 0)
(-0.11618 0.110631 -8.60482e-20)
(-0.134272 0.119299 0)
(-0.153469 0.126719 1.56498e-19)
(-0.173763 0.133171 0)
(-0.195127 0.138898 7.20944e-20)
(-0.217526 0.144095 1.38786e-19)
(-0.240928 0.148908 -1.33825e-19)
(-0.265305 0.153446 0)
(-0.290635 0.157787 -1.25054e-19)
(-0.316901 0.161993 0)
(-0.344082 0.166111 0)
(-0.372157 0.170184 -1.14205e-19)
(-0.401095 0.174246 0)
(-0.430854 0.178328 2.43647e-22)
(-0.461372 0.182452 0)
(-0.492557 0.186626 0)
(-0.524284 0.190824 -2.28084e-22)
(-0.55639 0.194979 -9.89697e-20)
(-0.58869 0.19896 -9.70998e-20)
(-0.620983 0.202575 -9.56782e-20)
(-0.653097 0.20556 0)
(-0.684974 0.207607 -1.8516e-19)
(-0.716751 0.208493 0)
(-0.74853 0.208507 -8.83998e-20)
(-0.780188 0.20827 0)
(-0.811528 0.207784 0)
(-0.842522 0.206959 8.11197e-20)
(-0.873285 0.205786 0)
(-0.903854 0.20443 -7.69181e-20)
(-0.934107 0.203049 -2.75154e-23)
(-0.963932 0.201288 1.46435e-19)
(-0.99353 0.198901 -1.42922e-19)
(-1.02321 0.196165 0)
(-1.05297 0.193531 0)
(-1.08263 0.191073 -6.69142e-20)
(-1.11212 0.188642 0)
(-1.14148 0.186231 -6.43036e-20)
(-1.17072 0.183843 6.31019e-20)
(-1.19985 0.181474 6.19574e-20)
(-1.22887 0.179117 0)
(-1.25779 0.176764 -5.98168e-20)
(-1.28659 0.174409 -5.88114e-20)
(-1.31528 0.172044 1.15575e-19)
(-1.34384 0.169665 -5.69133e-20)
(-1.37228 0.167266 -5.60149e-20)
(-1.40059 0.16484 0)
(-1.42874 0.162384 0)
(-1.45672 0.159889 5.34919e-20)
(-1.48453 0.157351 0)