/*--------------------------------*- C++ -*----------------------------------*\
  =========                 |
  \\      /  F ield         | OpenFOAM: The Open Source CFD Toolbox
   \\    /   O peration     | Website:  https://openfoam.org
    \\  /    A nd           | Version:  9
     \\/     M anipulation  |
\*---------------------------------------------------------------------------*/
FoamFile
{
    format      ascii;
    class       surfaceScalarField;
    location    "6.07";
    object      alphaPhi0.water;
}
// * * * * * * * * * * * * * * * * * * * * * * * * * * * * * * * * * * * * * //

dimensions      [0 3 -1 0 0 0 0];

internalField   nonuniform List<scalar> 
4432
(
-1.71847e-07
1.71847e-07
-2.88623e-07
1.16774e-07
-3.85305e-07
9.66876e-08
-4.73968e-07
8.86619e-08
-5.55976e-07
8.20096e-08
-6.28744e-07
7.27699e-08
-6.85638e-07
5.6894e-08
-7.20794e-07
3.51572e-08
-7.29392e-07
8.59805e-09
-7.10782e-07
-1.86102e-08
-6.62173e-07
-4.86093e-08
-5.73382e-07
-8.8791e-08
-4.27047e-07
-1.46334e-07
-2.05207e-07
-2.2184e-07
9.21785e-08
-2.97385e-07
4.07939e-07
-3.15759e-07
5.24234e-07
-1.16291e-07
8.89701e-08
4.35264e-07
-6.97813e-07
7.88614e-07
-1.48143e-06
7.83259e-07
-1.67566e-06
1.938e-07
-1.00175e-06
-6.7634e-07
-1.00375e-06
-1.47135e-07
3.18988e-07
-2.66565e-07
2.36202e-07
-3.70445e-07
2.00573e-07
-4.62834e-07
1.81052e-07
-5.45283e-07
1.6446e-07
-6.15554e-07
1.43043e-07
-6.69723e-07
1.11064e-07
-7.03466e-07
6.89013e-08
-7.14688e-07
1.98198e-08
-7.02378e-07
-3.09205e-08
-6.64472e-07
-8.65153e-08
-5.94532e-07
-1.5873e-07
-4.81813e-07
-2.59053e-07
-3.17465e-07
-3.86186e-07
-1.0823e-07
-5.06618e-07
1.01727e-07
-5.25709e-07
1.81194e-07
-1.95763e-07
-8.55786e-08
7.02034e-07
-5.77401e-07
1.28178e-06
-1.02026e-06
1.22849e-06
-1.19432e-06
3.67375e-07
-8.80658e-07
-9.90019e-07
-1.88443e-06
-1.32453e-07
4.51445e-07
-2.52431e-07
3.5618e-07
-3.59777e-07
3.07922e-07
-4.55327e-07
2.76604e-07
-5.39772e-07
2.48906e-07
-6.11377e-07
2.14651e-07
-6.67352e-07
1.67039e-07
-7.04482e-07
1.06032e-07
-7.2113e-07
3.64668e-08
-7.17165e-07
-3.48855e-08
-6.9141e-07
-1.12271e-07
-6.40021e-07
-2.1012e-07
-5.56174e-07
-3.429e-07
-4.36435e-07
-5.05924e-07
-2.86765e-07
-6.56282e-07
-1.35215e-07
-6.77253e-07
-6.01084e-08
-2.70822e-07
-2.05479e-07
8.47403e-07
-4.66943e-07
1.54325e-06
-6.95163e-07
1.45679e-06
-8.26263e-07
4.98469e-07
-6.45812e-07
-1.17048e-06
-2.53023e-06
-1.24236e-07
5.75686e-07
-2.43975e-07
4.75918e-07
-3.53698e-07
4.17649e-07
-4.52823e-07
3.75732e-07
-5.40808e-07
3.36891e-07
-6.15988e-07
2.89833e-07
-6.76102e-07
2.27152e-07
-7.18827e-07
1.48758e-07
-7.4278e-07
6.04192e-08
-7.48384e-07
-2.92832e-08
-7.35921e-07
-1.24734e-07
-7.03296e-07
-2.42746e-07
-6.46799e-07
-3.99398e-07
-5.65578e-07
-5.87144e-07
-4.6583e-07
-7.56027e-07
-3.60123e-07
-7.82958e-07
-2.62002e-07
-3.67657e-07
-2.98311e-07
8.80364e-07
-3.91568e-07
1.62103e-06
-4.67253e-07
1.53249e-06
-5.16651e-07
5.47879e-07
-3.65445e-07
-1.3209e-06
-2.8957e-06
-1.20022e-07
6.95712e-07
-2.39603e-07
5.95498e-07
-3.51989e-07
5.30038e-07
-4.55278e-07
4.79025e-07
-5.48093e-07
4.29707e-07
-6.28621e-07
3.70364e-07
-6.94955e-07
2.93488e-07
-7.45046e-07
1.9885e-07
-7.77734e-07
9.31068e-08
-7.94146e-07
-1.28715e-08
-7.95764e-07
-1.23116e-07
-7.82033e-07
-2.56477e-07
-7.50977e-07
-4.30454e-07
-7.03911e-07
-6.34208e-07
-6.48105e-07
-8.11831e-07
-5.913e-07
-8.39762e-07
-4.91733e-07
-4.58302e-07
-3.94479e-07
7.67477e-07
-3.37332e-07
1.54788e-06
-2.84834e-07
1.45183e-06
-1.96832e-07
4.44869e-07
-6.30627e-08
-1.45546e-06
-2.95882e-06
-1.1798e-07
8.13695e-07
-2.38891e-07
7.1641e-07
-3.54856e-07
6.46006e-07
-4.63301e-07
5.87472e-07
-5.62135e-07
5.28542e-07
-6.4942e-07
4.57652e-07
-7.23518e-07
3.67589e-07
-7.82505e-07
2.5784e-07
-8.25137e-07
1.35741e-07
-8.53144e-07
1.51373e-08
-8.69073e-07
-1.07185e-07
-8.73443e-07
-2.52105e-07
-8.65191e-07
-4.38704e-07
-8.46802e-07
-6.52595e-07
-8.2683e-07
-8.31801e-07
-8.11015e-07
-8.55576e-07
-7.52445e-07
-5.10334e-07
-5.30966e-07
5.61008e-07
-3.3397e-07
1.35071e-06
-1.41243e-07
1.25889e-06
9.46773e-08
2.14655e-07
1.92544e-07
-1.55362e-06
-2.76628e-06
-1.16537e-07
9.30234e-07
-2.41616e-07
8.4149e-07
-3.6256e-07
7.66952e-07
-4.7713e-07
7.02045e-07
-5.82911e-07
6.34326e-07
-6.77994e-07
5.52737e-07
-7.61012e-07
4.50611e-07
-8.30049e-07
3.26881e-07
-8.8351e-07
1.89206e-07
-9.23558e-07
5.51876e-08
-9.53459e-07
-7.72814e-08
-9.74364e-07
-2.31198e-07
-9.85343e-07
-4.27723e-07
-9.88814e-07
-6.49122e-07
-9.93191e-07
-8.27422e-07
-1.00194e-06
-8.46814e-07
-9.6863e-07
-5.43648e-07
-6.97982e-07
3.08402e-07
-3.76728e-07
1.02924e-06
-4.19865e-08
9.23974e-07
2.79438e-07
-1.04928e-07
3.31843e-07
-1.60603e-06
-2.43444e-06
-1.20522e-07
1.05076e-06
-2.49045e-07
9.70013e-07
-3.7499e-07
8.92899e-07
-4.96161e-07
8.23217e-07
-6.09461e-07
7.47625e-07
-7.12951e-07
6.56226e-07
-8.05588e-07
5.43245e-07
-8.85464e-07
4.06756e-07
-9.5033e-07
2.5407e-07
-1.00249e-06
1.07344e-07
-1.04548e-06
-3.42958e-08
-1.08071e-06
-1.95964e-07
-1.10685e-06
-4.01585e-07
-1.12508e-06
-6.30894e-07
-1.14151e-06
-8.10989e-07
-1.15568e-06
-8.3264e-07
-1.1144e-06
-5.84932e-07
-8.59702e-07
5.96974e-08
-4.50136e-07
6.39136e-07
-2.88888e-08
5.14789e-07
2.89052e-07
-4.23326e-07
3.06847e-07
-1.62382e-06
-2.12759e-06
-5.25258e-07
5.25253e-07
3.81996e-07
-9.10688e-07
1.16929e-06
-7.9007e-07
1.67833e-06
-5.14134e-07
2.01225e-06
-3.41414e-07
2.24126e-06
-2.31406e-07
2.49844e-06
-2.5922e-07
2.90205e-06
-4.05658e-07
3.45193e-06
-5.51054e-07
3.6635e-06
-2.12744e-07
3.02835e-06
6.53828e-07
1.89651e-06
1.13518e-06
1.59039e-08
1.88214e-06
-1.44208e-06
1.45232e-06
-5.18953e-07
-9.23132e-07
7.50295e-07
-1.26925e-06
1.11016e-06
-3.59867e-07
1.10772e-06
2.25583e-09
1.10395e-06
5.84589e-08
4.66789e-07
6.6968e-07
-1.52172e-06
1.12483e-06
-1.24522e-06
1.45266e-06
-8.41963e-07
1.6961e-06
-5.84854e-07
1.91112e-06
-4.46433e-07
2.14003e-06
-4.89732e-07
2.45972e-06
-7.26608e-07
2.8245e-06
-9.16059e-07
2.9411e-06
-3.30224e-07
2.43321e-06
1.1625e-06
1.48955e-06
2.07755e-06
2.4756e-07
3.12647e-06
-6.46721e-07
2.32746e-06
-1.75685e-07
-1.39365e-06
4.47276e-07
-1.89222e-06
5.50776e-07
-4.63372e-07
7.15368e-07
-1.62341e-07
1.81467e-06
5.71346e-07
-1.04563e-07
8.37063e-07
-1.78436e-06
1.08361e-06
-1.49177e-06
1.3058e-06
-1.06415e-06
1.49019e-06
-7.69308e-07
1.65212e-06
-6.08387e-07
1.82539e-06
-6.63032e-07
2.04773e-06
-9.48985e-07
2.28101e-06
-1.14956e-06
2.30267e-06
-3.52735e-07
1.83402e-06
1.63028e-06
1.10454e-06
2.80617e-06
3.75679e-07
3.85447e-06
-1.03703e-07
2.77234e-06
1.16304e-07
-1.61402e-06
3.40996e-07
-2.11691e-06
1.8862e-07
-3.11004e-07
2.85397e-07
-2.59122e-07
2.10004e-06
7.79199e-07
-8.84485e-07
8.91123e-07
-1.8955e-06
1.02276e-06
-1.62337e-06
1.1777e-06
-1.21907e-06
1.31454e-06
-9.06194e-07
1.4263e-06
-7.20126e-07
1.52758e-06
-7.6457e-07
1.64408e-06
-1.06754e-06
1.77952e-06
-1.28536e-06
1.77096e-06
-3.45231e-07
1.37034e-06
2.03004e-06
8.5338e-07
3.32227e-06
4.17866e-07
4.28912e-06
3.19146e-07
2.84223e-06
3.86898e-07
-1.67292e-06
3.2226e-07
-2.05221e-06
-8.21973e-08
9.34539e-08
-1.29179e-07
-2.11746e-07
1.97085e-06
7.43263e-07
-1.62851e-06
8.44683e-07
-1.99698e-06
9.36588e-07
-1.71538e-06
1.05264e-06
-1.3352e-06
1.15147e-06
-1.00509e-06
1.21342e-06
-7.82388e-07
1.24393e-06
-7.95914e-07
1.25757e-06
-1.08201e-06
1.27353e-06
-1.30428e-06
1.24759e-06
-3.31247e-07
9.86738e-07
2.19667e-06
6.47618e-07
3.53903e-06
4.75958e-07
4.28686e-06
7.08622e-07
2.58266e-06
6.3428e-07
-1.57205e-06
3.36077e-07
-1.75321e-06
-2.54776e-07
6.69172e-07
-4.49724e-07
-1.5101e-08
1.52112e-06
6.16223e-07
-2.24477e-06
7.4577e-07
-2.12654e-06
8.35099e-07
-1.80473e-06
9.2935e-07
-1.42947e-06
9.98868e-07
-1.07463e-06
1.01735e-06
-8.00864e-07
9.83703e-07
-7.62886e-07
8.98386e-07
-9.97261e-07
7.7677e-07
-1.1833e-06
7.2172e-07
-2.96073e-07
6.77022e-07
2.24057e-06
5.45064e-07
3.67062e-06
6.75637e-07
4.15591e-06
1.10477e-06
2.24304e-06
8.19787e-07
-1.27535e-06
3.46121e-07
-1.28354e-06
-2.67367e-07
1.25681e-06
-5.97073e-07
3.15194e-07
9.25623e-07
4.63131e-07
-2.70793e-06
6.37483e-07
-2.30092e-06
7.32424e-07
-1.89969e-06
8.10456e-07
-1.50753e-06
8.5745e-07
-1.12176e-06
8.43191e-07
-7.86712e-07
7.58215e-07
-6.77866e-07
5.91686e-07
-8.30688e-07
3.59921e-07
-9.52191e-07
2.56153e-07
-2.00163e-07
4.20463e-07
2.11706e-06
5.6316e-07
3.52754e-06
9.27257e-07
3.79143e-06
1.34834e-06
1.87609e-06
9.0967e-07
-8.36639e-07
3.47535e-07
-7.27111e-07
-1.2829e-07
1.71919e-06
-5.68811e-07
7.55873e-07
3.56812e-07
3.82761e-07
-3.09067e-06
5.61378e-07
-2.47952e-06
6.40531e-07
-1.97885e-06
6.97055e-07
-1.56408e-06
7.25943e-07
-1.15065e-06
6.91952e-07
-7.52684e-07
5.77535e-07
-5.63503e-07
3.64385e-07
-6.18131e-07
7.54763e-08
-6.63412e-07
-5.80296e-08
-6.69415e-08
2.19394e-07
1.8556e-06
6.04681e-07
3.14188e-06
1.18511e-06
3.34314e-06
1.42647e-06
1.64966e-06
9.20061e-07
-3.30215e-07
3.42439e-07
-1.54457e-07
5.20754e-08
2.00034e-06
-3.48016e-07
1.14643e-06
8.79594e-09
-2.48647e-07
1.29941e-06
-5.47898e-07
1.26926e-06
-8.43879e-07
1.18888e-06
-1.12822e-06
1.10756e-06
-1.39562e-06
1.01503e-06
-1.64393e-06
9.0453e-07
-1.87348e-06
7.72791e-07
-2.08131e-06
6.1458e-07
-2.25811e-06
4.30865e-07
-2.4075e-06
2.56727e-07
-2.53732e-06
9.55157e-08
-2.65174e-06
-8.15403e-08
-2.74475e-06
-3.0858e-07
-2.81302e-06
-5.62626e-07
-2.85411e-06
-7.69896e-07
-2.8579e-06
-8.28849e-07
-2.70874e-06
-7.34055e-07
-2.17151e-06
-4.77385e-07
-1.2539e-06
-2.78274e-07
-3.09855e-07
-4.28839e-07
2.52166e-07
-9.85076e-07
2.1106e-07
-1.58272e-06
-1.77635e-06
-1.40175e-07
-3.1173e-07
1.0915e-06
-6.23097e-07
1.06712e-06
-9.04927e-07
9.94589e-07
-1.17847e-06
9.38124e-07
-1.46265e-06
8.92015e-07
-1.73653e-06
8.19007e-07
-1.99313e-06
7.23284e-07
-2.24247e-06
6.12357e-07
-2.48236e-06
4.81884e-07
-2.69184e-06
3.39644e-07
-2.85817e-06
1.92095e-07
-2.9862e-06
2.91459e-08
-3.1014e-06
-1.68709e-07
-3.20519e-06
-3.96831e-07
-3.25616e-06
-6.11975e-07
-3.20821e-06
-7.62975e-07
-2.96571e-06
-8.6836e-07
-2.40083e-06
-9.44517e-07
-1.55874e-06
-1.02954e-06
-7.20044e-07
-1.1717e-06
-1.7119e-07
-1.4183e-06
5.26098e-08
-1.66584e-06
-1.78771e-06
2.20103e-07
-1.48567e-07
7.69679e-10
-2.45191e-07
1.62502e-08
-3.68975e-07
0
-4.85324e-07
0
-5.75085e-07
1.56529e-08
-6.55712e-07
2.83116e-08
-7.39451e-07
3.86123e-08
-8.25247e-07
5.00374e-08
-9.29489e-07
7.69308e-09
-1.03937e-06
2.45952e-09
-1.13647e-06
0
-1.2127e-06
0
-1.28022e-06
-2.50497e-08
-1.35789e-06
-6.42074e-08
-1.43642e-06
-1.09025e-07
-1.4506e-06
-1.68002e-07
-1.36119e-06
-2.31327e-07
-1.13714e-06
-1.3571e-08
-7.90872e-07
-3.48016e-09
-4.07975e-07
-6.22223e-09
-1.24043e-07
-6.37947e-09
5.14173e-08
-4.47967e-09
-5.25473e-09
2.25398e-07
4.81005e-10
1.57399e-12
3.80203e-10
0
-1.68939e-09
0
-4.4739e-09
0
-5.207e-09
0
-5.60005e-09
0
-6.85239e-09
0
-6.33275e-09
0
-5.74855e-09
0
-5.42771e-09
0
-5.37063e-09
0
-5.20456e-09
0
-4.82225e-09
-1.14774e-09
-4.27377e-09
-3.05954e-09
-3.41659e-09
-5.2563e-09
-1.93794e-09
-7.74357e-09
-1.14072e-09
-1.11857e-08
-7.78745e-10
-1.04579e-08
-7.32314e-10
-3.71685e-09
-3.8854e-10
-6.70901e-09
-7.13427e-11
-6.80462e-09
1.08735e-10
-4.73914e-09
-5.60442e-09
4.0345e-10
-5.49466e-10
4.53426e-10
-7.77816e-10
4.88354e-10
-2.40666e-10
2.64763e-10
-1.75318e-09
1.59187e-09
-4.11681e-09
1.77264e-09
-8.9753e-09
2.2223e-09
-1.36144e-08
3.25275e-09
-1.85635e-08
1.13557e-09
-1.86457e-08
1.96648e-09
-1.74593e-08
6.99552e-10
-1.5085e-08
-1.17392e-10
-1.206e-08
-8.16056e-10
-9.20334e-09
-1.81123e-09
-6.72485e-09
-3.33604e-09
-3.51316e-09
-5.34959e-09
6.91501e-11
-6.14952e-09
3.37044e-10
-7.98346e-09
6.482e-10
-8.43205e-09
6.71509e-11
-7.31647e-10
-5.97851e-10
-3.51034e-09
-8.65096e-10
-1.48739e-09
-3.9052e-10
-5.93659e-09
-6.2682e-09
2.91442e-10
-1.00205e-09
0
-1.46328e-09
5.103e-11
7.44951e-10
8.41261e-10
2.8808e-09
5.5926e-10
3.69866e-10
0
-2.61164e-11
0
-3.57619e-10
0
-4.10351e-10
6.7897e-12
-9.22382e-10
4.14291e-12
-1.32025e-09
2.85884e-13
-1.49316e-09
-3.11652e-15
-1.45087e-09
-1.01109e-12
-1.25433e-09
-1.52903e-13
-1.1112e-09
-1.84296e-13
-1.01507e-09
-5.90333e-11
-8.45622e-10
-4.62425e-10
-1.56589e-09
-9.04513e-10
-2.11749e-09
-2.29297e-09
-2.25891e-09
-7.79616e-10
-2.41626e-09
-1.97718e-10
-2.27515e-09
-1.7803e-09
-3.49113e-09
-5.54025e-09
-3.1031e-09
-3.742e-09
1.61726e-11
6.4194e-14
-1.97088e-12
0
1.14117e-10
5.05326e-13
2.53589e-10
0
1.11388e-11
0
1.76495e-11
0
2.16752e-13
0
-1.43281e-16
0
-5.26527e-15
2.94914e-14
-4.25954e-15
0
-6.61097e-15
-2.85639e-13
-8.27101e-15
-1.2943e-12
-1.19168e-14
-2.91042e-13
-1.80299e-13
-1.461e-14
-5.69505e-11
-2.26115e-12
-2.34376e-10
-1.68339e-10
-4.14597e-10
-6.1105e-10
-7.98382e-10
-5.77408e-10
-3.15596e-10
-9.76571e-11
-6.34245e-10
-4.07671e-11
-1.39333e-09
-1.16352e-09
-1.28463e-09
-1.09847e-09
-1.52354e-10
-6.00044e-10
4.22768e-14
1.01613e-14
1.86733e-14
0
5.76649e-14
0
1.7775e-14
0
2.29011e-13
0
2.71578e-12
0
6.2385e-12
1.7991e-11
4.59207e-13
6.29752e-12
0
2.23022e-14
8.69911e-14
4.18278e-14
-4.95566e-13
8.74409e-13
-1.1839e-12
3.24853e-14
0
1.22192e-13
0
2.82971e-15
-2.9912e-11
-2.2376e-14
-2.07947e-10
-1.20528e-10
-3.53497e-10
-3.48026e-10
-2.12957e-10
-2.45903e-10
-1.98991e-10
-1.21539e-10
-3.70996e-10
-1.35528e-10
-2.35025e-10
-3.80367e-10
-2.81227e-11
-2.50799e-13
-2.22658e-12
-1.71169e-11
2.4342e-15
6.97443e-15
1.52243e-14
9.93661e-14
9.4933e-15
1.92159e-13
0
2.49721e-14
4.84926e-15
3.048e-15
7.86203e-13
0
2.17772e-12
5.66569e-13
5.13112e-13
1.48773e-12
9.14401e-14
2.81736e-14
6.40156e-13
4.78051e-13
-6.43068e-13
2.56754e-12
-2.16326e-12
1.9382e-12
-9.15768e-13
1.24902e-12
-9.18186e-13
9.48005e-15
-4.21509e-11
8.81595e-13
-1.29751e-10
-3.28325e-11
-1.63199e-10
-6.16507e-12
-1.49428e-10
-4.789e-11
-1.95978e-10
-8.57233e-11
-1.87532e-10
-1.23586e-10
-2.36903e-13
-2.97854e-11
-4.22316e-13
-3.63469e-14
-7.72484e-14
-3.29723e-14
7.48349e-16
5.47341e-15
4.41879e-14
2.38268e-13
-2.56509e-15
2.77996e-13
-1.56325e-15
9.65098e-14
-2.75695e-16
1.7577e-15
3.40848e-16
1.93689e-15
5.9001e-15
4.52927e-15
2.44876e-14
1.05602e-13
2.76167e-15
1.53444e-14
3.13919e-14
1.36147e-12
-1.0015e-12
4.06385e-12
-1.78275e-12
3.18286e-12
-7.54374e-13
7.74286e-13
-7.69267e-13
6.31897e-15
-3.3349e-12
0
-3.10059e-14
-6.15945e-13
-6.23126e-12
-2.45278e-14
-3.22884e-11
-2.01995e-12
-5.6635e-11
-1.29908e-11
-9.80896e-12
-1.55311e-11
-8.89686e-14
-9.22605e-14
-7.87941e-14
-3.03841e-14
-7.3954e-14
-1.09567e-13
2.29185e-15
7.24628e-15
4.66657e-15
2.52243e-13
-8.26286e-15
3.07275e-13
-2.91352e-16
9.89542e-14
-2.44953e-16
1.70809e-15
-6.29716e-17
1.75216e-15
4.90909e-17
4.38837e-15
1.33125e-15
1.03292e-13
3.34087e-14
3.68041e-12
-1.70098e-13
3.3082e-12
-1.12625e-12
1.16612e-12
-4.26903e-13
1.5352e-13
-4.32581e-14
0
-6.1785e-14
6.30865e-15
-5.27257e-15
0
-5.84589e-15
-5.00752e-16
-8.32373e-14
-7.69567e-15
-1.23438e-12
-1.17365e-12
-9.98733e-13
-1.33413e-11
-9.21764e-14
-8.75641e-12
-9.62737e-14
-8.35934e-14
-1.03954e-13
-1.93837e-14
-3.43639e-14
-3.7995e-13
-5.21734e-17
2.8404e-15
-8.84648e-15
2.14268e-14
-1.61493e-14
7.28407e-14
-2.63669e-16
1.21369e-14
-2.55321e-16
1.69699e-15
-2.44876e-16
1.73896e-15
-2.0519e-14
8.98211e-14
-1.85411e-13
3.70384e-12
-5.21923e-13
4.36864e-12
-4.76953e-13
3.54745e-12
-1.55963e-13
2.69575e-13
-2.25903e-15
1.17022e-15
-2.58639e-15
3.31505e-16
-1.68712e-15
1.36202e-15
-5.26601e-16
7.03478e-17
0
1.26017e-16
-1.61948e-12
-2.16691e-13
-1.23999e-11
-3.91371e-12
-1.73996e-11
-7.2466e-12
-9.56047e-12
-7.04161e-12
-1.14421e-13
-3.96339e-12
-1.18008e-13
-1.62877e-14
-1.64574e-14
-1.29238e-13
-7.12545e-17
1.30715e-15
-7.92316e-16
2.05434e-14
-6.31265e-16
0
-3.43174e-16
1.13e-16
-3.09815e-17
2.28032e-15
-1.04793e-16
2.07101e-15
-5.35401e-13
5.46975e-13
-7.15853e-13
4.11812e-12
-6.36139e-13
4.52276e-12
-2.66855e-13
1.08997e-12
-1.4686e-15
3.49508e-15
-1.06787e-15
2.11213e-15
-1.22422e-15
1.84577e-15
-9.84201e-17
8.82541e-16
-8.34668e-17
5.90194e-17
0
1.59978e-16
-4.80751e-12
-6.67142e-15
-1.3476e-11
-2.84352e-12
-1.52705e-11
-4.35707e-12
-1.51498e-11
-6.0674e-12
-6.05524e-14
-1.96043e-12
-6.35096e-14
-1.38179e-14
-1.27367e-14
-6.77221e-14
-3.87533e-15
2.05394e-13
-8.49746e-16
3.25668e-13
-8.63638e-17
4.72701e-16
-1.5272e-16
6.36825e-16
0
2.90869e-15
0
1.29119e-14
-2.6536e-13
3.25594e-13
-5.54467e-13
2.44214e-13
-2.7766e-13
3.12835e-13
-3.1691e-15
0
-1.77824e-15
1.41565e-15
-1.33508e-15
2.8e-15
-7.86462e-16
2.44707e-15
-7.66964e-17
4.28772e-16
-8.24958e-17
6.62551e-17
0
5.24543e-17
0
0
-5.03552e-12
-1.88589e-13
-1.20585e-11
-1.5673e-12
-7.82282e-12
-2.22845e-12
-6.67978e-14
-1.6406e-13
-6.36093e-14
-1.74938e-14
-2.13796e-14
-5.55326e-14
-2.74668e-14
5.96812e-13
-4.76271e-16
4.71771e-13
-8.42778e-17
8.45431e-17
-4.2182e-17
6.97623e-16
-4.00727e-17
6.19451e-15
-2.19333e-14
4.08501e-14
-3.27046e-15
0
-5.0598e-15
1.41035e-16
-1.60061e-16
0
-3.05068e-16
0
-1.02547e-15
1.45326e-15
-1.05417e-15
2.29026e-15
-2.5865e-16
1.09035e-15
-6.50339e-17
1.08821e-16
-6.80484e-17
7.13609e-17
-6.98952e-17
4.77324e-17
-5.23439e-16
2.42137e-17
-1.20535e-13
-1.68385e-16
-3.9926e-13
-4.21942e-17
-1.74095e-14
-2.42847e-15
-5.5457e-14
-2.17633e-15
-7.24338e-14
-1.62365e-14
-1.34699e-14
-3.48406e-14
-4.81877e-14
7.24414e-13
-1.00322e-16
5.0054e-13
-9.95996e-17
8.61332e-17
-3.67377e-16
8.31327e-16
-3.478e-15
8.00266e-15
-2.07894e-15
7.98641e-15
-8.55428e-17
0
-2.24562e-17
8.62318e-17
-2.37123e-17
2.82135e-17
-1.47718e-16
4.52076e-17
-3.2938e-16
3.124e-16
-2.40668e-16
2.94488e-16
-4.19909e-17
8.16312e-17
-4.85981e-17
3.04967e-17
-6.06533e-17
6.40703e-17
-6.69536e-17
5.0245e-17
-7.70167e-17
3.04576e-17
-7.38876e-17
7.4634e-18
-8.8097e-17
-1.50302e-17
-2.46949e-15
-3.23482e-17
-1.47759e-14
-7.63099e-17
-4.21345e-14
-2.39303e-15
-4.54551e-15
-1.09476e-14
-5.30232e-14
7.77046e-13
-1.39294e-16
3.77738e-13
-1.4152e-16
8.87649e-17
-7.35617e-16
1.05529e-15
-8.05574e-16
2.8313e-15
-4.84917e-17
4.94702e-16
-2.5107e-17
5.08219e-17
-1.24245e-17
8.91813e-17
-6.54352e-18
2.31802e-17
-2.1257e-17
5.74155e-18
-2.11484e-17
7.48544e-18
-6.15936e-18
2.98324e-18
-6.61666e-18
6.16697e-19
-2.05114e-17
5.02543e-18
-4.05342e-17
3.02841e-17
-6.33499e-17
4.58196e-17
-7.88406e-17
4.20667e-17
-8.1936e-17
2.17639e-17
-7.21072e-17
2.05896e-18
-8.09115e-17
-8.37997e-18
-4.12401e-16
-1.29392e-17
-1.00424e-15
-3.85071e-17
-1.05538e-16
-1.58398e-15
-3.066e-14
8.07557e-13
-8.59887e-17
3.75868e-13
-8.86646e-17
9.14239e-17
-2.25008e-16
4.24611e-16
-9.90494e-17
4.97177e-16
-1.13617e-17
6.58193e-17
-1.27825e-17
2.81307e-17
-4.761e-18
3.55758e-17
-3.12292e-19
3.3027e-18
-2.79631e-19
1.07669e-18
-1.37821e-19
9.17652e-19
-2.31234e-20
3.13584e-19
-7.01791e-20
7.17382e-20
-2.53776e-18
1.29734e-18
-1.49691e-17
3.42054e-18
-3.6519e-17
1.57101e-17
-4.95036e-17
2.30389e-17
-5.4659e-17
1.58376e-17
-5.2946e-17
5.77834e-18
-4.13794e-17
-1.03279e-18
-1.73799e-17
-3.10476e-18
-1.84905e-17
-2.68296e-18
-2.33555e-18
-1.56879e-16
-5.79766e-14
8.65561e-13
-3.6709e-17
5.33607e-13
-3.9535e-17
9.41954e-17
-4.12914e-17
1.1659e-16
-1.57075e-17
1.09034e-16
-3.39854e-18
2.45983e-17
-2.43383e-18
3.32851e-18
-4.16045e-19
1.22331e-18
4.36277e-19
1.75321e-19
6.20303e-19
-1.67721e-18
6.54358e-19
-2.17656e-18
5.63471e-19
-2.07112e-18
2.46615e-19
-1.57593e-18
-2.63648e-19
-5.89337e-19
-1.09134e-18
5.11607e-19
-5.64137e-18
4.71011e-19
-9.27041e-18
1.4176e-18
-1.04012e-17
1.29419e-18
-1.11511e-17
7.02521e-19
-1.04195e-17
9.51765e-20
-6.52985e-18
-1.22152e-19
-3.27412e-18
-2.26704e-19
-2.99876e-19
-2.95543e-18
-6.00401e-14
9.25669e-13
-2.08399e-17
1.01523e-12
-2.38103e-17
9.71137e-17
-1.51669e-17
9.60461e-17
-6.98063e-18
9.26243e-17
-1.69539e-19
2.0054e-17
-7.70256e-20
4.45244e-19
4.91577e-19
3.41546e-20
8.45501e-19
-2.08957e-18
9.82271e-19
-3.33795e-18
9.52235e-19
-3.58321e-18
8.21581e-19
-3.17407e-18
6.0897e-19
-2.45389e-18
3.45427e-19
-1.57995e-18
-7.83508e-21
-7.43747e-19
-7.47582e-20
1.31459e-20
-1.87001e-19
1.46059e-19
-2.43821e-19
1.60809e-19
-2.90878e-19
1.03424e-19
-3.4459e-19
3.48296e-20
-3.62536e-19
5.15262e-21
-3.54686e-19
3.35261e-21
-1.5512e-20
-3.59807e-19
-6.04949e-14
9.86226e-13
-1.15613e-17
9.54874e-13
-1.44978e-17
9.99961e-17
-1.57895e-17
9.7286e-17
-6.52516e-18
1.03704e-16
5.49618e-20
2.01067e-17
3.11399e-19
-2.77871e-19
6.46082e-19
-1.45933e-18
8.5221e-19
-2.82903e-18
9.09989e-19
-3.49298e-18
8.54996e-19
-3.47845e-18
7.38867e-19
-3.01795e-18
5.94325e-19
-2.36562e-18
4.46692e-19
-1.67794e-18
3.06625e-19
-1.06741e-18
2.05696e-19
-5.86389e-19
1.46078e-19
-2.92351e-19
1.05949e-19
-1.39453e-19
7.25774e-20
-5.76844e-20
4.07595e-20
-1.48736e-20
9.90209e-21
4.82982e-21
-1.27834e-21
1.40867e-20
1.45184e-20
-1.94258e-21
-5.97081e-14
1.046e-12
-2.44426e-17
8.95035e-13
-2.72028e-17
1.02705e-16
-2.38673e-17
1.52033e-16
-7.1735e-18
1.96275e-16
-2.26147e-19
2.41393e-17
2.09486e-19
3.93628e-19
4.35712e-19
-1.02576e-18
5.69571e-19
-2.00177e-18
6.03117e-19
-2.46358e-18
5.67739e-19
-2.4506e-18
4.94291e-19
-2.14913e-18
4.06135e-19
-1.71581e-18
3.194e-19
-1.26057e-18
2.4323e-19
-8.54412e-19
1.82337e-19
-5.33175e-19
1.3763e-19
-3.06237e-19
1.04406e-19
-1.61493e-19
7.84479e-20
-7.39068e-20
5.70614e-20
-2.38151e-20
3.88375e-20
1.38482e-21
2.4336e-20
8.89436e-21
1.06229e-20
1.41345e-20
-6.8251e-14
5.07822e-13
-4.55681e-17
6.13702e-14
-4.81016e-17
1.05214e-16
-4.34275e-17
3.94513e-16
-9.91981e-18
3.7826e-16
-1.1819e-18
4.22855e-17
-4.56359e-19
7.39787e-18
3.64897e-20
3.41875e-18
1.78621e-19
-1.8011e-19
2.53206e-19
-8.33946e-19
2.69757e-19
-1.11745e-18
2.50139e-19
-1.11801e-18
2.13131e-19
-9.60527e-19
1.71471e-19
-7.41651e-19
1.32839e-19
-5.23246e-19
1.00443e-19
-3.39555e-19
7.48341e-20
-2.02105e-19
5.53618e-20
-1.08672e-19
4.08315e-20
-5.05184e-20
2.98652e-20
-1.71756e-20
2.13308e-20
1.71798e-22
1.44538e-20
4.27326e-21
5.44876e-21
9.08524e-21
-1.45523e-15
3.20431e-16
-9.28849e-17
3.30213e-16
-8.03338e-17
4.25266e-16
-7.87174e-17
8.64437e-16
-1.51298e-17
5.22486e-16
-3.82526e-18
7.94614e-17
-2.60183e-18
2.8802e-17
-1.63301e-18
2.02525e-17
-7.23651e-19
1.17166e-17
-1.65651e-19
4.90268e-18
5.04939e-20
1.44905e-18
8.36214e-20
-2.36218e-19
8.45668e-20
-3.66363e-19
7.26465e-20
-3.40498e-19
5.75998e-20
-2.6116e-19
4.3627e-20
-1.77374e-19
3.18256e-20
-1.08598e-19
2.26948e-20
-5.8918e-20
1.60436e-20
-2.72907e-20
1.13227e-20
-9.26989e-21
7.95608e-21
-2.62702e-24
5.43904e-21
1.78394e-21
2.30392e-21
3.45057e-21
-1.45696e-17
3.24787e-16
-4.38626e-17
3.33579e-16
-9.15752e-17
8.73667e-16
-8.66484e-17
9.50035e-16
-1.96151e-17
5.59299e-16
-8.01276e-18
1.24505e-16
-6.37706e-18
6.73885e-17
-4.70287e-18
5.28045e-17
-2.72572e-18
3.51575e-17
-1.19663e-18
1.85976e-17
-3.44147e-19
7.51767e-18
-3.28563e-20
2.02291e-18
2.15121e-20
2.85684e-19
2.40366e-20
-1.05268e-19
2.01564e-20
-1.07298e-19
1.54883e-20
-7.91441e-20
1.10254e-20
-5.07132e-20
7.48252e-21
-2.77859e-20
4.95217e-21
-1.26809e-20
3.25127e-21
-4.14397e-21
2.14081e-21
2.4975e-23
1.41162e-21
6.83542e-22
8.41116e-22
8.85566e-22
-1.1674e-17
3.33357e-16
-5.1266e-17
3.48611e-16
-7.79213e-17
9.23533e-16
-5.26901e-17
9.63903e-16
-2.01737e-17
5.39777e-16
-1.18928e-17
1.61283e-16
-1.0032e-17
1.14461e-16
-7.82748e-18
9.34206e-17
-5.05963e-18
6.584e-17
-2.50971e-18
3.90099e-17
-8.81131e-19
1.74973e-17
-1.84648e-19
5.49611e-18
-9.11692e-21
1.01368e-18
6.03826e-21
5.25092e-20
5.59556e-21
-3.66449e-20
4.38049e-21
-3.10911e-20
2.9807e-21
-2.1314e-20
1.86031e-21
-1.18147e-20
1.10001e-21
-5.26855e-21
6.29801e-22
-1.60997e-21
3.53988e-22
3.56034e-23
1.9976e-22
2.50539e-22
2.75875e-22
1.11547e-22
-9.70608e-18
3.39962e-16
-3.69942e-17
3.208e-16
-5.38855e-17
7.33702e-16
-4.3584e-17
7.43715e-16
-1.61073e-17
3.6099e-16
-1.28475e-17
1.76386e-16
-1.13758e-17
1.52596e-16
-9.01621e-18
1.31334e-16
-6.17326e-18
9.5122e-17
-3.26113e-18
6.04214e-17
-1.15986e-18
2.86457e-17
-2.30117e-19
8.89472e-18
-1.61646e-20
1.42502e-18
1.07967e-21
7.70993e-20
1.12573e-21
-1.07243e-20
8.37446e-22
-1.12036e-20
4.78599e-22
-8.29028e-21
2.19055e-22
-4.64163e-21
7.24646e-23
-2.01313e-21
4.24637e-24
-5.61692e-22
-3.53617e-23
2.603e-23
-4.47301e-23
8.9104e-23
8.74527e-23
-4.15785e-23
-5.87228e-18
3.94207e-16
-1.42653e-17
2.55112e-16
-1.80054e-17
3.21672e-16
-1.44054e-17
3.04739e-16
-9.94206e-18
2.19495e-16
-9.44644e-18
1.77102e-16
-8.84624e-18
1.63714e-16
-7.32808e-18
1.52364e-16
-5.05919e-18
1.179e-16
-2.67584e-18
7.65999e-17
-8.79839e-19
3.71029e-17
-1.30546e-19
1.0702e-17
-6.16076e-21
1.44231e-18
9.2669e-23
6.85262e-20
6.61153e-23
-2.84299e-21
-2.33881e-23
-3.89756e-21
-1.13547e-22
-3.07117e-21
-1.5849e-22
-1.72044e-21
-1.54111e-22
-7.16067e-22
-1.23881e-22
-1.76449e-22
-8.85833e-23
1.42301e-23
-5.86939e-23
3.16349e-23
2.82367e-23
-3.80948e-23
-3.7735e-18
8.52797e-16
-5.21183e-18
2.56219e-16
-5.20997e-18
3.21338e-16
-4.72066e-18
3.03919e-16
-4.44565e-18
2.1889e-16
-4.04552e-18
1.72642e-16
-3.68469e-18
1.63448e-16
-2.96975e-18
1.54421e-16
-1.83036e-18
1.282e-16
-7.44405e-19
8.40523e-17
-1.17273e-19
4.01852e-17
1.18097e-20
1.08196e-17
3.33701e-21
1.2489e-18
1.3544e-21
2.8831e-20
-3.68324e-23
-6.64603e-22
-1.22412e-22
-1.34328e-21
-1.6352e-22
-1.09848e-21
-1.54284e-22
-6.05607e-22
-1.1962e-22
-2.38315e-22
-8.19614e-23
-4.99975e-23
-5.18637e-23
6.46578e-24
-3.12079e-23
1.06344e-23
8.69968e-24
-1.82834e-23
-2.50854e-18
3.4499e-15
-2.58562e-18
2.55965e-16
-1.25756e-18
3.19679e-16
1.13364e-19
3.02217e-16
9.65659e-19
2.17707e-16
1.53369e-18
1.67435e-16
2.04262e-18
1.59032e-16
2.61308e-18
1.54413e-16
2.65237e-18
1.2855e-16
1.94814e-18
8.45709e-17
9.30353e-19
4.01292e-17
1.80531e-19
1.00152e-17
7.50489e-21
7.3216e-19
1.32259e-21
6.576e-21
-8.77049e-24
-7.08348e-23
-8.17448e-23
-4.67832e-22
-9.96535e-23
-3.85469e-22
-8.5206e-23
-2.04777e-22
-6.02933e-23
-7.51652e-23
-3.81662e-23
-1.28039e-23
-2.25047e-23
2.54286e-24
-1.26262e-23
3.37577e-24
2.55246e-24
-6.88497e-24
0
7.25262e-15
3.248e-15
4.9189e-13
2.80337e-14
3.4009e-12
3.15408e-14
3.02578e-12
1.71404e-17
4.33556e-13
3.87311e-18
1.77191e-16
7.4368e-18
1.51923e-16
8.35165e-18
1.53129e-16
7.24899e-18
1.26084e-16
4.64653e-18
8.28167e-17
1.81531e-18
3.67755e-17
2.30957e-19
7.1226e-18
4.09219e-21
2.95455e-19
7.11068e-23
1.10557e-21
7.31607e-26
1.98798e-25
-4.27552e-23
-1.68526e-22
-4.84121e-23
-1.33801e-22
-3.83018e-23
-6.71891e-23
-2.51281e-23
-2.26948e-23
-1.48687e-23
-2.92312e-24
-8.23134e-24
8.78127e-25
-4.36342e-24
9.83138e-25
6.7829e-25
-2.23951e-24
3.91484e-15
7.15137e-15
7.02034e-14
1.08028e-12
1.42126e-13
3.33352e-12
1.19422e-13
3.05299e-12
1.17426e-16
1.32776e-12
7.48047e-19
3.01945e-16
1.25277e-17
1.4845e-16
1.37406e-17
1.47265e-16
1.11485e-17
1.1782e-16
6.58916e-18
7.34856e-17
2.04984e-18
2.79062e-17
1.58768e-19
3.79727e-18
1.25982e-21
8.74201e-20
4.56886e-25
1.55623e-22
2.97053e-26
1.19635e-25
-2.02914e-23
-6.25228e-23
-2.0885e-23
-4.60233e-23
-1.52085e-23
-2.14671e-23
-9.21642e-24
-6.58246e-24
-5.08988e-24
-5.7958e-25
-2.62632e-24
2.64075e-25
-1.30713e-24
2.54737e-25
1.59244e-25
-6.21729e-25
4.01251e-15
6.95419e-15
6.05957e-14
8.71177e-13
2.35839e-13
3.16278e-12
2.67951e-13
3.02537e-12
0
9.96254e-13
0
5.00148e-16
1.76301e-17
1.47203e-16
1.82499e-17
1.37423e-16
1.35321e-17
1.03991e-16
6.94073e-18
5.78452e-17
1.56898e-18
1.72373e-17
6.70158e-20
1.47745e-18
2.35276e-22
1.70894e-20
2.0255e-23
1.49479e-23
-2.2641e-24
-7.57102e-24
-9.10185e-24
-2.37178e-23
-8.26825e-24
-1.5623e-23
-5.47315e-24
-6.65949e-24
-3.0284e-24
-1.82951e-24
-1.53693e-24
-9.40661e-26
-7.28759e-25
6.89289e-26
-3.35879e-25
5.76118e-26
3.23158e-26
-1.46361e-25
4.12007e-15
6.65134e-15
7.066e-14
1.3896e-13
3.57349e-13
2.88063e-12
1.68591e-13
1.33224e-12
0
1.67226e-13
0
5.60927e-16
2.20515e-17
1.46899e-16
2.10265e-17
1.25498e-16
1.36305e-17
8.47605e-17
5.6344e-18
3.93409e-17
8.06394e-19
8.12926e-18
1.60987e-20
3.64481e-19
2.21908e-23
1.73076e-21
2.0799e-24
7.12907e-25
-2.21104e-24
-6.52279e-24
-3.83685e-24
-8.95845e-24
-3.02243e-24
-5.17979e-24
-1.78868e-24
-1.98496e-24
-8.88651e-25
-4.82522e-25
-4.06208e-25
-1.13218e-26
-1.75427e-25
1.53321e-26
-7.33688e-26
1.11203e-26
5.52896e-27
-2.88573e-26
2.1598e-15
1.15581e-14
1.87737e-14
0
8.71383e-14
0
3.65218e-14
0
0
2.16361e-16
2.22577e-17
3.79534e-16
2.55551e-17
1.75502e-16
1.95922e-17
1.09946e-16
1.10969e-17
6.06379e-17
3.32194e-18
2.10579e-17
2.45113e-19
2.48594e-18
1.82656e-21
4.52808e-20
8.50739e-25
7.20775e-23
1.1048e-25
1.51009e-26
-1.27515e-24
-3.47946e-24
-1.51096e-24
-3.31299e-24
-1.01908e-24
-1.66154e-24
-5.28374e-25
-5.625e-25
-2.30908e-25
-1.19609e-25
-9.2891e-26
-8.53335e-28
-3.59337e-26
2.85116e-27
-1.33845e-26
1.78739e-27
7.75154e-28
-4.66862e-27
1.26994e-15
1.09404e-14
6.7001e-16
4.55015e-15
4.38109e-16
1.68799e-16
2.08145e-16
7.46452e-17
7.58152e-17
2.92672e-16
6.67494e-17
3.32733e-16
2.93555e-17
1.79051e-16
1.59789e-17
8.44261e-17
6.78601e-18
3.45015e-17
1.20557e-18
7.39395e-18
3.53338e-20
3.80133e-19
7.89195e-23
2.19294e-21
1.2621e-26
1.15818e-24
3.3114e-27
1.00935e-26
-6.19262e-25
-1.62555e-24
-5.60506e-25
-1.20184e-24
-3.17996e-25
-5.14927e-25
-1.40851e-25
-1.50868e-25
-5.26224e-26
-2.76162e-26
-1.81189e-26
-6.55197e-29
-6.13265e-27
4.35464e-28
-1.99211e-27
2.32984e-28
8.61589e-29
-6.02889e-28
1.81691e-15
9.24137e-15
1.23273e-15
7.24894e-15
4.31518e-16
3.2926e-15
2.28208e-16
1.56694e-15
1.24361e-16
8.80801e-16
6.10968e-17
3.7488e-16
2.49794e-17
1.43757e-16
9.78913e-18
4.95166e-17
2.61371e-18
1.27527e-17
2.06444e-19
1.26653e-18
1.84136e-21
2.10537e-20
1.13485e-24
3.46226e-23
1.63805e-25
9.7437e-27
-1.30284e-25
-3.88255e-25
-2.81502e-25
-7.35074e-25
-1.97999e-25
-4.30332e-25
-9.27763e-26
-1.55268e-25
-3.40917e-26
-3.84794e-26
-1.04983e-26
-5.93196e-27
-2.98041e-27
-3.59211e-29
-8.54139e-28
5.37128e-29
-2.35167e-28
2.39082e-29
7.28519e-30
-5.997e-29
1.48872e-15
2.39277e-15
1.92791e-15
4.95359e-15
9.34079e-16
4.10254e-15
4.57934e-16
2.32167e-15
1.8654e-16
1.10125e-15
5.5721e-17
3.91801e-16
1.54659e-17
9.76422e-17
3.64988e-18
1.933e-17
4.59862e-19
2.238e-18
1.17844e-20
7.19196e-20
2.73614e-23
3.1896e-22
6.3609e-27
1.91605e-25
1.94002e-27
6.29078e-27
-1.0397e-25
-3.11141e-25
-1.19704e-25
-3.19858e-25
-6.72474e-26
-1.52893e-25
-2.56848e-26
-4.61054e-26
-7.5996e-27
-9.46088e-27
-1.84729e-27
-1.19525e-27
-4.11168e-28
-1.57984e-29
-9.50145e-29
5.32224e-30
-2.12562e-29
1.86978e-30
4.42421e-31
-4.37738e-30
3.14193e-16
3.92057e-17
1.09144e-15
7.7778e-16
1.06898e-15
2.10313e-15
5.24113e-16
1.89036e-15
1.92415e-16
9.79937e-16