/*--------------------------------*- C++ -*----------------------------------*\
  =========                 |
  \\      /  F ield         | OpenFOAM: The Open Source CFD Toolbox
   \\    /   O peration     | Website:  https://openfoam.org
    \\  /    A nd           | Version:  9
     \\/     M anipulation  |
\*---------------------------------------------------------------------------*/
FoamFile
{
    format      ascii;
    class       volScalarField;
    location    "3.38";
    object      p;
}
// * * * * * * * * * * * * * * * * * * * * * * * * * * * * * * * * * * * * * //

dimensions      [1 -1 -2 0 0 0 0];

internalField   nonuniform List<scalar> 
2268
(
754.893
754.511
753.65
752.275
750.431
748.156
745.499
742.509
739.268
735.835
732.29
728.711
725.169
721.726
718.425
715.277
712.299
709.412
707.057
706.27
706.136
706.187
706.107
696.104
695.711
694.855
693.479
691.636
689.362
686.705
683.723
680.466
677.014
673.443
669.83
666.249
662.764
659.426
656.262
653.366
650.975
649.518
648.161
647.442
647.41
647.453
637.41
637.007
636.152
634.771
632.922
630.64
627.971
624.969
621.691
618.209
614.599
610.943
607.317
603.792
600.431
597.298
594.592
592.979
591.65
590.214
588.925
588.495
588.615
578.827
578.421
577.561
576.17
574.306
572.003
569.308
566.272
562.954
559.424
555.761
552.05
548.373
544.808
541.435
538.351
535.796
534.506
533.364
531.932
530.247
529.493
529.637
520.358
519.953
519.086
517.679
515.79
513.453
510.718
507.634
504.257
500.661
496.93
493.153
489.413
485.8
482.405
479.342
476.819
475.438
474.411
472.923
471.107
470.426
470.628
462.006
461.603
460.729
459.302
457.377
454.994
452.206
449.06
445.607
441.924
438.107
434.247
430.432
426.754
423.315
420.231
417.666
416.01
414.794
413.26
411.604
411.112
411.627
403.774
403.375
402.491
401.04
399.069
396.625
393.773
390.551
387.002
383.213
379.29
375.333
371.424
367.664
364.156
361.012
358.362
356.444
354.919
353.345
351.823
351.467
352.171
345.672
345.272
344.375
342.892
340.86
338.341
335.413
332.103
328.44
324.523
320.48
316.406
312.389
308.527
304.925
301.689
298.931
296.776
294.96
293.289
291.762
291.324
293.179
710.543
712.283
714.691
717.6
720.686
724.088
727.844
731.92
736.157
740.096
743.744
745.862
748.285
751.504
755.4
756.443
755.664
755.963
756.828
651.985
653.337
655.542
658.487
661.689
665.287
669.256
673.485
677.837
681.915
685.38
688.351
691.949
694.768
697.458
698.696
698.52
699.171
699.998
592.89
594.213
596.268
599.219
602.521
606.307
610.474
614.915
619.514
623.749
627.316
631.597
635.359
637.96
639.299
640.72
641.256
641.596
642.69
533.359
534.829
536.974
539.981
543.387
547.329
551.638
556.305
561.175
565.588
569.252
574.846
578.503
580.724
581.357
582.803
584.82
584.218
585.243
473.623
475.417
477.709
480.769
484.233
488.316
492.727
497.52
502.633
507.161
511.246
517.26
521.325
523.028
523.731
525.397
528.283
527.777
527.797
413.66
416.111
418.451
421.526
425.017
429.261
433.73
438.551
443.91
448.617
453.048
458.85
463.249
465.002
466.212
468.133
471.131
471.661
470.249
354.144
356.964
359.197
362.229
365.711
370.205
374.68
379.418
384.933
389.945
394.712
400.283
404.624
406.898
408.723
410.991
413.682
415.213
413.696
292.647
297.711
299.929
302.913
306.258
311.132
316.201
320.762
326.163
331.503
336.832
342.036
346.244
348.935
351.275
353.931
356.763
358.617
358.768
255.037
254.64
253.716
252.178
250.026
247.36
244.297
240.836
236.958
232.789
228.519
224.243
220.023
215.965
212.17
208.742
205.8
203.339
201.058
199.188
197.526
196.306
195.85
132.381
132.089
131.218
129.652
127.275
124.312
121.044
117.362
113.284
109.095
104.936
100.798
96.7582
92.9146
89.3182
86.0252
83.1287
80.7074
78.8624
77.2676
75.9565
75.1414
75.3676
37.1968
37.0804
36.477
35.4695
34.1482
32.5272
30.6381
28.6029
26.5878
24.6313
22.6431
20.6413
18.7857
17.0676
15.4819
14.0814
12.9189
11.8984
11.0261
10.2318
9.54617
9.10021
9.05833
0.789459
0.868258
0.674016
0.477212
0.646875
0.843118
0.676034
0.695818
0.972222
1.10427
1.08885
1.00457
0.955119
0.890523
0.780427
0.658956
0.559385
0.38467
0.177525
-0.0811388
-0.303661
-0.39159
-0.281258
-0.174017
-0.143406
-0.154605
-0.226591
-0.117788
0.0667475
0.149588
0.211527
0.297249
0.384163
0.383693
0.347545
0.30771
0.251184
0.187339
0.122034
0.0104732
-0.137955
-0.299932
-0.459268
-0.551864
-0.576002
-0.542981
-0.58574
-0.624385
-0.56138
-0.609932
-0.628377
-0.606711
-0.537252
-0.515992
-0.592374
-0.646137
-0.679642
-0.668638
-0.681049
-0.713133
-0.70631
-0.703943
-0.776064
-0.835234
-0.862159
-0.87742
-0.864713
-0.844713
-0.820243
-0.955637
-0.985312
-0.972393
-0.960609
-0.99078
-1.04623
-1.10301
-1.14967
-1.19608
-1.24877
-1.26991
-1.27715
-1.2801
-1.27402
-1.26944
-1.25741
-1.2264
-1.18232
-1.12807
-1.09174
-1.07828
-1.08294
-1.09552
-1.31677
-1.33288
-1.33967
-1.2928
-1.29868
-1.33112
-1.36856
-1.40028
-1.40812
-1.40171
-1.40051
-1.40104
-1.39712
-1.39239
-1.38658
-1.3778
-1.36492
-1.35008
-1.33397
-1.29722
-1.28355
-1.29115
-1.31914
-1.57112
-1.56626
-1.56496
-1.54969
-1.54695
-1.55307
-1.54824
-1.53978
-1.53724
-1.5325
-1.52912
-1.5274
-1.52409
-1.51984
-1.51511
-1.5096
-1.50358
-1.4979
-1.49847
-1.49004
-1.48046
-1.47605
-1.48473
-1.69769
-1.69208
-1.69199
-1.69464
-1.69488
-1.68685
-1.67758
-1.67016
-1.66517
-1.66034
-1.6567
-1.654
-1.65095
-1.64733
-1.64318
-1.63892
-1.6347
-1.63194
-1.63422
-1.63775
-1.63511
-1.62722
-1.62145
-1.81244
-1.80972
-1.81094
-1.81172
-1.81158
-1.80798
-1.80223
-1.79639
-1.7916
-1.78724
-1.78367
-1.7806
-1.77743
-1.7741
-1.77065
-1.76725
-1.76418
-1.76219
-1.76245
-1.76259
-1.76023
-1.75654
-1.75366
-1.934
-1.93222
-1.93225
-1.93256
-1.93208
-1.92962
-1.92564
-1.92125
-1.91722
-1.91348
-1.91011
-1.90699
-1.90393
-1.90092
-1.89795
-1.89515
-1.8927
-1.89097
-1.89033
-1.88976
-1.88816
-1.88582
-1.88418
-2.05553
-2.05484
-2.05469
-2.05461
-2.05389
-2.05198
-2.04907
-2.04573
-2.04239
-2.03916
-2.03607
-2.03315
-2.03035
-2.02765
-2.02506
-2.02267
-2.02061
-2.01903
-2.01807
-2.01732
-2.01625
-2.01482
-2.01382
-2.17756
-2.17768
-2.17767
-2.1774
-2.1766
-2.17504
-2.17278
-2.17013
-2.16733
-2.16453
-2.16179
-2.15916
-2.15663
-2.15422
-2.15195
-2.14987
-2.14806
-2.14662
-2.14557
-2.14478
-2.14402
-2.14317
-2.14258
-2.29994
-2.30066
-2.30092
-2.30067
-2.29991
-2.29858
-2.29675
-2.29457
-2.29221
-2.28979
-2.28738
-2.28503
-2.28277
-2.28062
-2.27861
-2.27678
-2.27517
-2.27384
-2.2728
-2.27198
-2.27129
-2.27077
-2.27042
-2.42265
-2.42382
-2.42436
-2.42423
-2.42357
-2.42244
-2.4209
-2.41908
-2.41707
-2.41498
-2.41287
-2.41079
-2.40878
-2.40686
-2.40507
-2.40344
-2.402
-2.40077
-2.39977
-2.39897
-2.39834
-2.39786
-2.39759
-2.54576
-2.54721
-2.54797
-2.54799
-2.54745
-2.5465
-2.54521
-2.54366
-2.54194
-2.54013
-2.53828
-2.53645
-2.53466
-2.53296
-2.53136
-2.52989
-2.52859
-2.52747
-2.52653
-2.52577
-2.52518
-2.52475
-2.52453
-2.66929
-2.67088
-2.67178
-2.67192
-2.67151
-2.67071
-2.66962
-2.6683
-2.66682
-2.66525
-2.66363
-2.66202
-2.66043
-2.65891
-2.65748
-2.65617
-2.65499
-2.65396
-2.65309
-2.65238
-2.65183
-2.65145
-2.65124
-2.79324
-2.79484
-2.79578
-2.796
-2.7957
-2.79504
-2.79411
-2.79298
-2.79171
-2.79034
-2.78892
-2.7875
-2.78609
-2.78474
-2.78347
-2.78228
-2.78122
-2.78028
-2.77948
-2.77882
-2.77831
-2.77796
-2.77777
-2.91755
-2.91905
-2.91996
-2.92021
-2.91999
-2.91945
-2.91866
-2.91769
-2.91658
-2.91539
-2.91415
-2.9129
-2.91165
-2.91045
-2.90931
-2.90825
-2.90729
-2.90644
-2.90571
-2.90511
-2.90464
-2.90431
-2.90413
-3.04215
-3.04347
-3.04428
-3.04453
-3.04437
-3.04391
-3.04324
-3.0424
-3.04144
-3.0404
-3.03932
-3.03821
-3.03712
-3.03605
-3.03504
-3.03409
-3.03323
-3.03246
-3.0318
-3.03125
-3.03082
-3.03052
-3.03035
-3.16696
-3.16806
-3.16872
-3.16893
-3.16879
-3.16841
-3.16783
-3.16711
-3.16628
-3.16537
-3.16443
-3.16346
-3.16249
-3.16155
-3.16065
-3.15981
-3.15904
-3.15835
-3.15775
-3.15726
-3.15687
-3.1566
-3.15644
-3.29189
-3.29275
-3.29323
-3.29338
-3.29325
-3.29292
-3.29242
-3.2918
-3.29108
-3.2903
-3.28948
-3.28863
-3.28778
-3.28696
-3.28616
-3.28542
-3.28473
-3.28412
-3.28359
-3.28315
-3.28281
-3.28256
-3.28243
-3.41689
-3.41749
-3.41778
-3.41785
-3.41773
-3.41744
-3.41701
-3.41648
-3.41586
-3.41519
-3.41447
-3.41374
-3.413
-3.41228
-3.41159
-3.41093
-3.41033
-3.40979
-3.40933
-3.40894
-3.40864
-3.40843
-3.40831
-3.54187
-3.54225
-3.54235
-3.54235
-3.54222
-3.54197
-3.5416
-3.54114
-3.54062
-3.54004
-3.53943
-3.5388
-3.53816
-3.53753
-3.53693
-3.53636
-3.53584
-3.53537
-3.53497
-3.53464
-3.53438
-3.5342
-3.53411
-3.6668
-3.66699
-3.66694
-3.66687
-3.66673
-3.6665
-3.66619
-3.6658
-3.66535
-3.66486
-3.66435
-3.66381
-3.66327
-3.66273
-3.66221
-3.66173
-3.66128
-3.66088
-3.66053
-3.66025
-3.66004
-3.65989
-3.65983
-3.79168
-3.79167
-3.79152
-3.79142
-3.79127
-3.79105
-3.79078
-3.79045
-3.79008
-3.78967
-3.78924
-3.78879
-3.78833
-3.78788
-3.78744
-3.78703
-3.78665
-3.78632
-3.78603
-3.7858
-3.78562
-3.78551
-3.78547
-3.91654
-3.91634
-3.91613
-3.91599
-3.91583
-3.91563
-3.9154
-3.91512
-3.91482
-3.91448
-3.91412
-3.91375
-3.91337
-3.913
-3.91263
-3.91229
-3.91198
-3.9117
-3.91146
-3.91128
-3.91114
-3.91106
-3.91104
-4.04139
-4.04103
-4.04076
-4.04059
-4.04042
-4.04024
-4.04004
-4.03982
-4.03957
-4.0393
-4.03901
-4.03871
-4.0384
-4.03809
-4.03779
-4.03751
-4.03726
-4.03704
-4.03685
-4.03671
-4.03661
-4.03656
-4.03656
-4.16626
-4.16579
-4.16545
-4.16524
-4.16507
-4.16491
-4.16474
-4.16456
-4.16436
-4.16414
-4.16391
-4.16367
-4.16342
-4.16318
-4.16294
-4.16272
-4.16251
-4.16234
-4.1622
-4.16209
-4.16203
-4.162
-4.16202
-4.29115
-4.29061
-4.29022
-4.28997
-4.2898
-4.28965
-4.28951
-4.28936
-4.2892
-4.28903
-4.28884
-4.28865
-4.28846
-4.28826
-4.28808
-4.2879
-4.28775
-4.28762
-4.28752
-4.28745
-4.28741
-4.28741
-4.28745
-4.41607
-4.4155
-4.41507
-4.4148
-4.41461
-4.41447
-4.41434
-4.41422
-4.41409
-4.41396
-4.41381
-4.41366
-4.41351
-4.41336
-4.41322
-4.41308
-4.41297
-4.41288
-4.41281
-4.41278
-4.41277
-4.41279
-4.41285
-4.54103
-4.54044
-4.53999
-4.5397
-4.53951
-4.53937
-4.53925
-4.53914
-4.53904
-4.53894
-4.53882
-4.53871
-4.53859
-4.53847
-4.53836
-4.53826
-4.53818
-4.53813
-4.53809
-4.53809
-4.53811
-4.53815
-4.53822
-4.66601
-4.66541
-4.66495
-4.66466
-4.66447
-4.66434
-4.66423
-4.66414
-4.66405
-4.66397
-4.66388
-4.66379
-4.66369
-4.6636
-4.66351
-4.66344
-4.66339
-4.66336
-4.66336
-4.66338
-4.66343
-4.66349
-4.66357
-4.791
-4.79039
-4.78994
-4.78966
-4.78949
-4.78937
-4.78927
-4.78919
-4.78912
-4.78905
-4.78898
-4.7889
-4.78882
-4.78875
-4.78867
-4.78862
-4.78859
-4.78859
-4.78862
-4.78867
-4.78874
-4.78882
-4.78891
-4.91601
-4.91538
-4.91496
-4.91471
-4.91456
-4.91446
-4.91437
-4.9143
-4.91424
-4.91418
-4.91412
-4.91405
-4.91398
-4.91391
-4.91384
-4.9138
-4.91378
-4.91381
-4.91387
-4.91396
-4.91405
-4.91414
-4.91424
-5.04103
-5.04037
-5.03998
-5.03979
-5.03969
-5.0396
-5.03953
-5.03947
-5.03942
-5.03937
-5.03931
-5.03924
-5.03916
-5.03908
-5.03901
-5.03896
-5.03896
-5.03901
-5.03912
-5.03924
-5.03936
-5.03947
-5.03958
-5.16607
-5.16536
-5.165
-5.1649
-5.16486
-5.16481
-5.16476
-5.16471
-5.16466
-5.1646
-5.16453
-5.16445
-5.16436
-5.16426
-5.16417
-5.16411
-5.16411
-5.1642
-5.16436
-5.16453
-5.16467
-5.1648
-5.16491
-5.29114
-5.29036
-5.29005
-5.29006
-5.29011
-5.2901
-5.29006
-5.29001
-5.28996
-5.28989
-5.28981
-5.28971
-5.28959
-5.28947
-5.28935
-5.28925
-5.28922
-5.28935
-5.28961
-5.28983
-5.29001
-5.29015
-5.29026
-5.41625
-5.41542
-5.41521
-5.41537
-5.41549
-5.41551
-5.41546
-5.41539
-5.41531
-5.41522
-5.41511
-5.41498
-5.41483
-5.41467
-5.41451
-5.41435
-5.41422
-5.41443
-5.41488
-5.4152
-5.41539
-5.41552
-5.41562
-5.5413
-5.54068
-5.54087
-5.54109
-5.54117
-5.54112
-5.541
-5.54085
-5.54069
-5.54052
-5.54034
-5.54014
-5.53992
-5.53969
-5.53946
-5.53919
-5.53871
-5.53906
-5.54012
-5.54062
-5.54083
-5.54093
-5.541
-5.66574
-5.66871
-5.66809
-5.66756
-5.6672
-5.66689
-5.66661
-5.66635
-5.66611
-5.66587
-5.66563
-5.66537
-5.66508
-5.66474
-5.66429
-5.66352
-5.66243
-5.66291
-5.66523
-5.66601
-5.66624
-5.66634
-5.66638
194.718
195.514
197.134
199.032
75.0731
75.4857
76.6673
78.127
9.2546
9.60758
10.1914
10.9328
-0.0541097
0.0999665
0.196189
0.238684
-0.48619
-0.465365
-0.43591
-0.422325
-0.815028
-0.809198
-0.829145
-0.816578
-1.12947
-1.13939
-1.13461
-1.13348
-1.32886
-1.32929
-1.32952
-1.33754
-1.48486
-1.484
-1.48575
-1.49217
-1.62074
-1.62109
-1.62249
-1.62585
-1.75339
-1.75376
-1.75482
-1.7567
-1.88418
-1.88451
-1.88524
-1.88638
-2.01396
-2.01417
-2.01459
-2.01526
-2.14266
-2.14282
-2.14308
-2.14345
-2.27041
-2.2705
-2.2707
-2.271
-2.39763
-2.39772
-2.39789
-2.39812
-2.52456
-2.52464
-2.52478
-2.52497
-2.65126
-2.65132
-2.65144
-2.65159
-2.77777
-2.77782
-2.77791
-2.77804
-2.90412
-2.90416
-2.90423
-2.90433
-3.03033
-3.03036
-3.03042
-3.03051
-3.15642
-3.15644
-3.15649
-3.15657
-3.28241
-3.28243
-3.28247
-3.28254
-3.4083
-3.40832
-3.40836
-3.40842
-3.5341
-3.53412
-3.53416
-3.53421
-3.65983
-3.65985
-3.65988
-3.65993
-3.78548
-3.7855
-3.78554
-3.78559
-3.91106
-3.91109
-3.91113
-3.91118
-4.03659
-4.03662
-4.03666
-4.03671
-4.16207
-4.1621
-4.16214
-4.16219
-4.2875
-4.28754
-4.28758
-4.28763
-4.4129
-4.41294
-4.41299
-4.41304
-4.53828
-4.53832
-4.53837
-4.53842
-4.66364
-4.66368
-4.66373
-4.66379
-4.78898
-4.78903
-4.78908
-4.78913
-4.91432
-4.91437
-4.91442
-4.91447
-5.03965
-5.0397
-5.03975
-5.03979
-5.16499
-5.16504
-5.16508
-5.16512
-5.29033
-5.29037
-5.29041
-5.29045
-5.41568
-5.41571
-5.41574
-5.41577
-5.54104
-5.54106
-5.54108
-5.5411
-5.6664
-5.66641
-5.66642
-5.66642
201.628
204.86
207.11
210.98
216.083
221.627
227.449
232.749
237.517
242.108
246.6
251.17
255.293
258.516
261.488
264.784
268.255
270.996
272.904
80.7672
86.1107
90.9041
95.8193
101.18
106.167
111.588
117.194
121.581
125.146
127.823
131.373
134.977
138.347
141.442
144.501
147.802
151.088
153.413
12.4437
15.6432
18.9973
21.4303
23.4579
25.3246
27.6851
30.4627
32.945
34.9694
36.6867
38.5747
40.5475
42.5317
44.3876
45.8358
47.1072
48.7045
49.9495
0.213081
-0.165138
-0.292745
-0.2902
-0.178415
-0.0654513
-0.140883
-0.100334
0.220478
0.646855
1.06812
1.4698
1.8156
2.18653
2.51819
2.69551
2.77474
2.56728
2.51363
-0.444099
-0.49923
-0.517969
-0.511031
-0.466662
-0.430516
-0.425717
-0.429673
-0.440525
-0.456005
-0.47953
-0.510304
-0.556964
-0.554199
-0.552781
-0.576116
-0.648576
-0.690254
-0.658262
-0.791482
-0.759108
-0.758608
-0.761547
-0.767346
-0.775162
-0.775985
-0.791795
-0.806608
-0.814325
-0.831178
-0.856693
-0.879583
-0.890201
-0.893698
-0.911115
-0.943812
-0.974544
-0.947258
-1.10435
-1.0653
-1.05747
-1.07018
-1.11616
-1.14542
-1.1526
-1.16069
-1.16948
-1.1753
-1.18285
-1.18661
-1.18525
-1.1958
-1.20018
-1.20187
-1.20182
-1.21008
-1.21093
-1.34754
-1.34776
-1.35116
-1.35887
-1.3755
-1.38685
-1.39065
-1.3933
-1.39737
-1.40099
-1.40095
-1.40051
-1.39857
-1.40203
-1.40755
-1.40981
-1.40636
-1.40189
-1.40805
-1.50773
-1.51381
-1.52029
-1.52323
-1.52101
-1.52004
-1.52345
-1.52569
-1.52701
-1.52882
-1.52895
-1.52916
-1.52947
-1.53198
-1.53657
-1.54181
-1.54605
-1.54305
-1.5456
-1.63339
-1.63862
-1.64341
-1.64625
-1.64653
-1.64667
-1.64848
-1.6504
-1.65211
-1.65309
-1.65286
-1.65418
-1.65637
-1.65913
-1.66175
-1.6639
-1.66572
-1.6651
-1.66733
-1.76083
-1.7649
-1.76869
-1.77122
-1.77211
-1.77278
-1.77452
-1.77637
-1.7781
-1.7792
-1.77998
-1.7827
-1.7859
-1.78764
-1.78706
-1.78676
-1.78739
-1.78791
-1.78981
-1.88873
-1.89179
-1.89474
-1.89704
-1.8985
-1.89981
-1.90189
-1.90381
-1.90563
-1.9077
-1.91034
-1.91311
-1.91491
-1.91455
-1.91276
-1.9122
-1.91261
-1.91307
-1.91441
-2.01665
-2.0189
-2.02125
-2.0234
-2.02546
-2.02749
-2.02951
-2.03141
-2.03317
-2.036
-2.03931
-2.04119
-2.04126
-2.04062
-2.03991
-2.04059
-2.0417
-2.04208
-2.04229
-2.1443
-2.14598
-2.14788
-2.14983
-2.15195
-2.15429
-2.15623
-2.15783
-2.15945
-2.162
-2.16473
-2.16623
-2.16685
-2.16765
-2.16876
-2.17
-2.17095
-2.17154
-2.17158
-2.2716
-2.2729
-2.27444
-2.27614
-2.27799
-2.27997
-2.28178
-2.28334
-2.28502
-2.28714
-2.28935
-2.29105
-2.29244
-2.29426
-2.29642
-2.29755
-2.29779
-2.29842
-2.29844
-2.39859
-2.39962
-2.4009
-2.40233
-2.40391
-2.40559
-2.40721
-2.40878
-2.41044
-2.41233
-2.41429
-2.41604
-2.41771
-2.41968
-2.4217
-2.42268
-2.42317
-2.42423
-2.42377
-2.52534
-2.52618
-2.52724
-2.52846
-2.52983
-2.53129
-2.53277
-2.53426
-2.53584
-2.53756
-2.53933
-2.54103
-2.5427
-2.54447
-2.54614
-2.54729
-2.54816
-2.54935
-2.54933
-2.6519
-2.65259
-2.65348
-2.65454
-2.65573
-2.65703
-2.65837
-2.65977
-2.66124
-2.66281
-2.66442
-2.66602
-2.66759
-2.66916
-2.67061
-2.67173
-2.6726
-2.67336
-2.67358
-2.77829
-2.77887
-2.77963
-2.78055
-2.7816
-2.78276
-2.78399
-2.78528
-2.78663
-2.78806
-2.78953
-2.791
-2.79244
-2.79382
-2.79507
-2.79602
-2.79664
-2.79692
-2.79648
-2.90455
-2.90504
-2.9057
-2.90651
-2.90744
-2.90847
-2.90959
-2.91077
-2.91202
-2.91332
-2.91466
-2.91599
-2.91729
-2.91851
-2.91957
-2.92035
-2.92076
-2.92079
-2.92006
-3.0307
-3.03112
-3.03169
-3.03241
-3.03323
-3.03416
-3.03518
-3.03626
-3.0374
-3.03858
-3.0398
-3.041
-3.04216
-3.04323
-3.04415
-3.04482
-3.04515
-3.04513
-3.04452
-3.15674
-3.15711
-3.15761
-3.15825
-3.15899
-3.15983
-3.16074
-3.16173
-3.16276
-3.16384
-3.16493
-3.16601
-3.16705
-3.168
-3.16881
-3.16941
-3.16972
-3.1697
-3.16916
-3.28268
-3.28301
-3.28347
-3.28403
-3.2847
-3.28546
-3.28629
-3.28718
-3.28811
-3.28908
-3.29007
-3.29103
-3.29196
-3.2928
-3.29353
-3.29408
-3.29439
-3.29435
-3.29379
-3.40855
-3.40885
-3.40925
-3.40977
-3.41037
-3.41105
-3.4118
-3.4126
-3.41345
-3.41432
-3.4152
-3.41606
-3.41688
-3.41764
-3.41828
-3.4188
-3.41911
-3.41906
-3.41847
-3.53433
-3.53461
-3.53498
-3.53544
-3.53599
-3.5366
-3.53728
-3.53801
-3.53877
-3.53955
-3.54033
-3.5411
-3.54182
-3.54248
-3.54304
-3.5435
-3.54382
-3.54378
-3.54334
-3.66005
-3.6603
-3.66064
-3.66106
-3.66156
-3.66211
-3.66273
-3.66338
-3.66406
-3.66476
-3.66545
-3.66613
-3.66675
-3.66731
-3.66778
-3.66815
-3.66838
-3.66826
-3.66792
-3.7857
-3.78593
-3.78625
-3.78663
-3.78708
-3.78759
-3.78814
-3.78873
-3.78934
-3.78996
-3.79057
-3.79115
-3.79169
-3.79214
-3.79249
-3.79271
-3.79274
-3.79241
-3.7918
-3.91128
-3.91151
-3.9118
-3.91215
-3.91256
-3.91302
-3.91352
-3.91405
-3.91459
-3.91514
-3.91568
-3.91618
-3.91663
-3.91698
-3.91721
-3.91725
-3.91701
-3.91644
-3.9156
-4.03681
-4.03703
-4.0373
-4.03762
-4.038
-4.03841
-4.03886
-4.03934
-4.03983
-4.04032
-4.04079
-4.04122
-4.04159
-4.04186
-4.04198
-4.04187
-4.04142
-4.04066
-4.03956
-4.1623
-4.1625
-4.16275
-4.16305
-4.1634
-4.16377
-4.16418
-4.16461
-4.16505
-4.16548
-4.1659
-4.16628
-4.16659
-4.16679
-4.16685
-4.16666
-4.16613
-4.16534
-4.16417
-4.28774
-4.28793
-4.28817
-4.28845
-4.28876
-4.2891
-4.28947
-4.28986
-4.29025
-4.29064
-4.29102
-4.29135
-4.29162
-4.29179
-4.29182
-4.29164
-4.29115
-4.29045
-4.28951
-4.41315
-4.41333
-4.41355
-4.41381
-4.41409
-4.4144
-4.41474
-4.41509
-4.41544
-4.4158
-4.41613
-4.41644
-4.41668
-4.41684
-4.41688
-4.41673
-4.41634
-4.41572
-4.41486
-4.53853
-4.5387
-4.53891
-4.53914
-4.5394
-4.53968
-4.53998
-4.5403
-4.54062
-4.54094
-4.54125
-4.54153
-4.54177
-4.54193
-4.54199
-4.5419
-4.5416
-4.54103
-4.54019
-4.66389
-4.66405
-4.66424
-4.66445
-4.66469
-4.66494
-4.66521
-4.66549
-4.66578
-4.66607
-4.66636
-4.66662
-4.66686
-4.66703
-4.66712
-4.66709
-4.66687
-4.66636
-4.66557
-4.78923
-4.78938
-4.78955
-4.78974
-4.78995
-4.79018
-4.79042
-4.79067
-4.79093
-4.79119
-4.79146
-4.79171
-4.79194
-4.79213
-4.79225
-4.79227
-4.79211
-4.79162
-4.79086
-4.91456
-4.9147
-4.91485
-4.91502
-4.9152
-4.9154
-4.91561
-4.91583
-4.91606
-4.9163
-4.91654
-4.91678
-4.91701
-4.91721
-4.91736
-4.91741
-4.91728
-4.91676
-4.91588
-5.03988
-5.04
-5.04014
-5.04028
-5.04044
-5.0406
-5.04078
-5.04097
-5.04118
-5.04139
-5.04161
-5.04183
-5.04206
-5.04227
-5.04245
-5.04255
-5.04243
-5.04185
-5.04089
-5.16519
-5.1653
-5.16541
-5.16553
-5.16566
-5.1658
-5.16595
-5.16611
-5.16628
-5.16646
-5.16665
-5.16686
-5.16708
-5.16731
-5.16753
-5.1677
-5.16765
-5.16708
-5.16609
-5.2905
-5.29059
-5.29068
-5.29078
-5.29088
-5.29099
-5.2911
-5.29123
-5.29136
-5.29151
-5.29167
-5.29185
-5.29206
-5.29231
-5.29258
-5.29286
-5.29295
-5.29245
-5.29154
-5.41581
-5.41588
-5.41594
-5.41601
-5.41608
-5.41616
-5.41624
-5.41633
-5.41643
-5.41654
-5.41666
-5.41681
-5.41699
-5.41722
-5.41756
-5.41804
-5.41839
-5.41799
-5.4173
-5.54112
-5.54116
-5.5412
-5.54124
-5.54128
-5.54133
-5.54138
-5.54143
-5.54149
-5.54155
-5.54163
-5.54172
-5.54184
-5.54204
-5.54247
-5.54347
-5.54422
-5.5438
-5.54367
-5.66643
-5.66645
-5.66646
-5.66648
-5.66649
-5.66651
-5.66652
-5.66653
-5.66655
-5.66657
-5.66659
-5.66662
-5.66669
-5.66685
-5.66741
-5.66954
-5.67004
-5.66938
-5.66977
)
;

boundaryField
{
    leftWall
    {
        type            calculated;
        value           nonuniform List<scalar> 
50
(
754.893
696.104
637.41
578.827
520.358
462.006
403.774
345.672
255.037
132.381
37.1968
0.789459
-0.174017
-0.58574
-0.955637
-1.31677
-1.57112
-1.69769
-1.81244
-1.934
-2.05553
-2.17756
-2.29994
-2.42265
-2.54576
-2.66929
-2.79324
-2.91755
-3.04215
-3.16696
-3.29189
-3.41689
-3.54187
-3.6668
-3.79168
-3.91654
-4.04139
-4.16626
-4.29115
-4.41607
-4.54103
-4.66601
-4.791
-4.91601
-5.04103
-5.16607
-5.29114
-5.41625
-5.5413
-5.66574
)
;
    }
    rightWall
    {
        type            calculated;
        value           nonuniform List<scalar> 
50
(
756.828
699.998
642.69
585.243
527.797
470.249
413.696
358.768
272.904
153.413
49.9495
2.51363
-0.658262
-0.947258
-1.21093
-1.40805
-1.5456
-1.66733
-1.78981
-1.91441
-2.04229
-2.17158
-2.29844
-2.42377
-2.54933
-2.67358
-2.79648
-2.92006
-3.04452
-3.16916
-3.29379
-3.41847
-3.54334
-3.66792
-3.7918
-3.9156
-4.03956
-4.16417
-4.28951
-4.41486
-4.54019
-4.66557
-4.79086
-4.91588
-5.04089
-5.16609
-5.29154
-5.4173
-5.54367
-5.66977
)
;
    }
    lowerWall
    {
        type            calculated;
        value           nonuniform List<scalar> 
62
(
784.322
783.94
783.079
781.704
779.86
777.585
774.929
771.939
768.697
765.264
761.719
758.14
754.599
751.156
747.854
744.707
741.728
738.806
735.937
735.559
735.497
735.444
735.338
706.107
647.453
588.615
529.637
470.628
411.627
352.171
293.179
257.311
258.099
259.705
261.584
710.543
651.985
592.89
533.359
473.623
413.66
354.144
292.647
739.67
741.411
743.819
746.727
749.842
753.244
757
761.236
765.526
769.377
773.024
774.928
776.542
779.761
783.656
784.701
783.948
784.221
785.087
)
;
    }
    atmosphere
    {
        type            calculated;
        value           nonuniform List<scalar> 
46
(
-5.72912
-5.72906
-5.72904
-5.72904
-5.72904
-5.72904
-5.72904
-5.72904
-5.72904
-5.72904
-5.72904
-5.72904
-5.72904
-5.72904
-5.72904
-5.72904
-5.72904
-5.72904
-5.72904
-5.72905
-5.72906
-5.72907
-5.72908
-5.72908
-5.72909
-5.72909
-5.72909
-5.7291
-5.7291
-5.72911
-5.72911
-5.72911
-5.7291
-5.7291
-5.72909
-5.72909
-5.72908
-5.72907
-5.72906
-5.72906
-5.72905
-5.72904
-5.72904
-5.72927
-5.72904
-5.73488
)
;
    }
    defaultFaces
    {
        type            empty;
    }
}


// ************************************************************************* //
