/*--------------------------------*- C++ -*----------------------------------*\
  =========                 |
  \\      /  F ield         | OpenFOAM: The Open Source CFD Toolbox
   \\    /   O peration     | Website:  https://openfoam.org
    \\  /    A nd           | Version:  9
     \\/     M anipulation  |
\*---------------------------------------------------------------------------*/
FoamFile
{
    format      ascii;
    class       volScalarField;
    location    "5.92";
    object      p;
}
// * * * * * * * * * * * * * * * * * * * * * * * * * * * * * * * * * * * * * //

dimensions      [1 -1 -2 0 0 0 0];

internalField   nonuniform List<scalar> 
2268
(
723.073
723.368
723.847
724.516
725.359
726.359
727.498
728.755
730.107
731.528
732.991
734.465
735.919
737.311
738.597
739.735
740.734
741.631
742.556
743.368
744.075
744.809
745.172
664.148
664.43
664.904
665.571
666.417
667.422
668.568
669.832
671.192
672.622
674.094
675.578
677.036
678.428
679.713
680.863
681.923
682.951
684.021
684.874
685.413
686
686.377
605.176
605.454
605.924
606.589
607.438
608.451
609.607
610.883
612.257
613.704
615.194
616.695
618.171
619.581
620.89
622.079
623.197
624.242
625.355
626.242
626.672
627.225
627.619
546.153
546.435
546.907
547.574
548.429
549.453
550.623
551.916
553.311
554.78
556.296
557.825
559.332
560.78
562.137
563.391
564.587
565.597
566.658
567.445
567.894
568.534
568.947
487.081
487.37
487.849
488.523
489.388
490.427
491.616
492.932
494.354
495.853
497.401
498.967
500.517
502.017
503.442
504.786
506.139
507.568
508.46
509.093
509.629
509.942
510.358
427.959
428.258
428.748
429.434
430.313
431.371
432.584
433.93
435.386
436.921
438.507
440.116
441.717
443.281
444.787
446.236
447.749
449.662
450.649
451.273
451.682
451.479
451.847
368.79
369.098
369.603
370.304
371.202
372.283
373.526
374.907
376.404
377.981
379.612
381.269
382.929
384.564
386.157
387.709
389.32
391.427
392.804
393.458
393.507
393.1
393.392
309.573
309.89
310.409
311.128
312.046
313.155
314.434
315.859
317.405
319.034
320.715
322.427
324.152
325.866
327.549
329.192
330.866
332.887
334.585
335.319
335.158
334.836
335.013
741.124
740.893
740.129
738.722
737.147
735.338
733.348
731.211
728.889
726.381
724.008
722.351
720.978
719.136
719.109
718.716
717.76
717.4
717.064
682.839
682.214
681.352
680.008
678.438
676.67
674.673
672.486
670.081
667.585
665.295
663.678
662.551
660.686
659.932
659.571
658.787
658.532
658.351
624.619
623.677
622.64
621.256
619.647
617.841
615.831
613.614
611.171
608.709
606.48
604.979
603.796
602.097
601.059
600.616
599.871
599.715
599.657
566.244
565.236
564.027
562.569
560.904
559.052
557.01
554.799
552.417
549.967
547.564
546.152
544.911
543.967
542.39
541.84
540.949
540.938
541.019
507.743
506.758
505.447
503.919
502.198
500.301
498.266
496.093
493.8
491.535
489.421
487.898
486.978
486.654
483.832
483.181
482.13
482.249
482.378
449.316
448.266
446.88
445.294
443.519
441.575
439.537
437.415
435.265
433.495
432.337
430.663
429.766
428.867
425.36
424.607
423.732
423.63
423.696
390.977
389.789
388.325
386.694
384.866
382.86
380.801
378.734
376.74
375.41
375.06
373.597
372.428
370.436
366.955
366.03
365.457
364.888
364.879
332.857
331.283
329.791
328.131
326.242
324.144
322.042
320.03
318.193
317.067
317.12
316.184
314.541
311.585
308.453
307.368
307.04
305.978
305.912
216.911
217.226
217.763
218.512
219.468
220.628
221.974
223.483
225.127
226.85
228.62
230.428
232.271
234.125
235.954
237.724
239.46
241.272
242.844
243.724
243.927
243.96
244.103
93.3088
93.6419
94.1688
94.8615
95.6861
96.7006
97.9178
99.2953
100.806
102.447
104.2
106.013
107.84
109.662
111.465
113.287
115.108
116.915
118.483
119.537
120.126
120.489
120.749
16.2218
16.4355
16.6476
16.9546
17.341
17.7956
18.3216
18.9099
19.5608
20.308
21.1552
22.0575
22.9393
23.7883
24.622
25.5547
26.5367
27.4487
28.2091
28.7821
29.1297
29.3388
29.4923
-0.566168
-0.562842
-0.597995
-0.596184
-0.480978
-0.406082
-0.363246
-0.329678
-0.270147
-0.237114
-0.216535
-0.184629
-0.162041
-0.143406
-0.128968
-0.132669
-0.164353
-0.297299
-0.480739
-0.449644
-0.408306
-0.409213
-0.414713
-0.836238
-0.836474
-0.834362
-0.833178
-0.817289
-0.795414
-0.779219
-0.762135
-0.734624
-0.712683
-0.699205
-0.689576
-0.685321
-0.686386
-0.693644
-0.707763
-0.727074
-0.758983
-0.800543
-0.810552
-0.812824
-0.814502
-0.813927
-1.09636
-1.09666
-1.08867
-1.09113
-1.11906
-1.13236
-1.13853
-1.13853
-1.14049
-1.13627
-1.1303
-1.12559
-1.12283
-1.12099
-1.11905
-1.1137
-1.10277
-1.08651
-1.07136
-1.07872
-1.07176
-1.05802
-1.05622
-1.2676
-1.26895
-1.26957
-1.26824
-1.26907
-1.2687
-1.27107
-1.27436
-1.27711
-1.28048
-1.28327
-1.28543
-1.28624
-1.28604
-1.28372
-1.27862
-1.27465
-1.2733
-1.26906
-1.26535
-1.25937
-1.25921
-1.26412
-1.39741
-1.39766
-1.39991
-1.40099
-1.39842
-1.39792
-1.39892
-1.40113
-1.40352
-1.40596
-1.40807
-1.40983
-1.41091
-1.41116
-1.41042
-1.40909
-1.40935
-1.41065
-1.40863
-1.40592
-1.40926
-1.41523
-1.41461
-1.52402
-1.52417
-1.52562
-1.52622
-1.52553
-1.52557
-1.52649
-1.52798
-1.5297
-1.53156
-1.53329
-1.5348
-1.53592
-1.53668
-1.53744
-1.5391
-1.54081
-1.54147
-1.53983
-1.53966
-1.54294
-1.54365
-1.54226
-1.65051
-1.65072
-1.65154
-1.65204
-1.65208
-1.65242
-1.65323
-1.65437
-1.65569
-1.65718
-1.65869
-1.66006
-1.66118
-1.66215
-1.66347
-1.66576
-1.66759
-1.66797
-1.66777
-1.66815
-1.66887
-1.66823
-1.66745
-1.77679
-1.77704
-1.77756
-1.77802
-1.77833
-1.77879
-1.77951
-1.78044
-1.78154
-1.7828
-1.78414
-1.78536
-1.78639
-1.78738
-1.7886
-1.79013
-1.79136
-1.79195
-1.7923
-1.79271
-1.79282
-1.79254
-1.79206
-1.90291
-1.90319
-1.9036
-1.90401
-1.90441
-1.90491
-1.90557
-1.90637
-1.90733
-1.90843
-1.90956
-1.91057
-1.91151
-1.91246
-1.9135
-1.91465
-1.91561
-1.91616
-1.91655
-1.91685
-1.91698
-1.91691
-1.91664
-2.02892
-2.0292
-2.02957
-2.02996
-2.03037
-2.03087
-2.03149
-2.03223
-2.03309
-2.03401
-2.03491
-2.03578
-2.03663
-2.03749
-2.0384
-2.03932
-2.04016
-2.04081
-2.04125
-2.0415
-2.04157
-2.04147
-2.04128
-2.15484
-2.15512
-2.15547
-2.15584
-2.15624
-2.15672
-2.15729
-2.15799
-2.15872
-2.15948
-2.16022
-2.16098
-2.16174
-2.16251
-2.16329
-2.16408
-2.16483
-2.16553
-2.16602
-2.16627
-2.16631
-2.16612
-2.16595
-2.28069
-2.28097
-2.2813
-2.28165
-2.28203
-2.28247
-2.28299
-2.28359
-2.28422
-2.28486
-2.28551
-2.28618
-2.28685
-2.28752
-2.2882
-2.28887
-2.28951
-2.29011
-2.2906
-2.29086
-2.29085
-2.29074
-2.29062
-2.40648
-2.40676
-2.40706
-2.40739
-2.40774
-2.40814
-2.4086
-2.40911
-2.40965
-2.41021
-2.41078
-2.41137
-2.41196
-2.41255
-2.41313
-2.4137
-2.41423
-2.41472
-2.4151
-2.41534
-2.41541
-2.41539
-2.41533
-2.53221
-2.53248
-2.53276
-2.53307
-2.53339
-2.53375
-2.53415
-2.53459
-2.53506
-2.53555
-2.53605
-2.53657
-2.53708
-2.53759
-2.5381
-2.53858
-2.53903
-2.53943
-2.53975
-2.53997
-2.54007
-2.5401
-2.54008
-2.65788
-2.65813
-2.65841
-2.65869
-2.65898
-2.6593
-2.65966
-2.66004
-2.66045
-2.66088
-2.66132
-2.66177
-2.66222
-2.66266
-2.6631
-2.66351
-2.6639
-2.66423
-2.66451
-2.66471
-2.66483
-2.66488
-2.66489
-2.7835
-2.78374
-2.78399
-2.78425
-2.78452
-2.78481
-2.78512
-2.78546
-2.78582
-2.78619
-2.78658
-2.78697
-2.78737
-2.78775
-2.78813
-2.78849
-2.78882
-2.78911
-2.78935
-2.78953
-2.78965
-2.78972
-2.78975
-2.90907
-2.90929
-2.90953
-2.90977
-2.91001
-2.91027
-2.91055
-2.91085
-2.91116
-2.91149
-2.91183
-2.91217
-2.91252
-2.91286
-2.91319
-2.9135
-2.91379
-2.91404
-2.91425
-2.91442
-2.91454
-2.91461
-2.91464
-3.0346
-3.03481
-3.03503
-3.03525
-3.03547
-3.0357
-3.03594
-3.0362
-3.03648
-3.03677
-3.03707
-3.03737
-3.03768
-3.03798
-3.03826
-3.03854
-3.03879
-3.03901
-3.03919
-3.03934
-3.03945
-3.03953
-3.03956
-3.1601
-3.1603
-3.1605
-3.16069
-3.16089
-3.16109
-3.16131
-3.16154
-3.16179
-3.16204
-3.1623
-3.16257
-3.16284
-3.1631
-3.16335
-3.16359
-3.16381
-3.164
-3.16417
-3.1643
-3.1644
-3.16447
-3.16451
-3.28558
-3.28576
-3.28594
-3.28611
-3.28628
-3.28646
-3.28665
-3.28685
-3.28707
-3.28729
-3.28753
-3.28776
-3.28799
-3.28822
-3.28844
-3.28865
-3.28884
-3.28902
-3.28916
-3.28928
-3.28938
-3.28944
-3.28948
-3.41101
-3.41118
-3.41134
-3.41149
-3.41164
-3.4118
-3.41197
-3.41215
-3.41234
-3.41254
-3.41274
-3.41294
-3.41315
-3.41335
-3.41355
-3.41373
-3.4139
-3.41405
-3.41418
-3.41429
-3.41437
-3.41443
-3.41447
-3.53642
-3.53657
-3.53671
-3.53685
-3.53698
-3.53712
-3.53727
-3.53743
-3.53759
-3.53777
-3.53795
-3.53813
-3.53831
-3.53848
-3.53865
-3.53882
-3.53896
-3.5391
-3.53921
-3.53931
-3.53939
-3.53944
-3.53947
-3.66181
-3.66193
-3.66206
-3.66218
-3.6623
-3.66242
-3.66255
-3.66269
-3.66284
-3.66299
-3.66315
-3.66331
-3.66347
-3.66362
-3.66377
-3.66391
-3.66404
-3.66416
-3.66426
-3.66435
-3.66442
-3.66447
-3.6645
-3.78718
-3.78728
-3.78739
-3.78749
-3.78759
-3.7877
-3.78782
-3.78794
-3.78807
-3.78821
-3.78835
-3.78849
-3.78863
-3.78876
-3.78889
-3.78902
-3.78913
-3.78924
-3.78933
-3.7894
-3.78947
-3.78952
-3.78955
-3.91253
-3.91262
-3.9127
-3.91279
-3.91287
-3.91297
-3.91308
-3.91319
-3.9133
-3.91342
-3.91354
-3.91366
-3.91379
-3.9139
-3.91402
-3.91413
-3.91423
-3.91432
-3.9144
-3.91447
-3.91453
-3.91457
-3.91461
-4.03787
-4.03794
-4.038
-4.03806
-4.03814
-4.03823
-4.03832
-4.03842
-4.03852
-4.03863
-4.03873
-4.03884
-4.03895
-4.03905
-4.03915
-4.03925
-4.03934
-4.03942
-4.03949
-4.03955
-4.03961
-4.03965
-4.03968
-4.16321
-4.16325
-4.16327
-4.16332
-4.16339
-4.16347
-4.16356
-4.16364
-4.16373
-4.16383
-4.16392
-4.16402
-4.16411
-4.1642
-4.16429
-4.16437
-4.16445
-4.16452
-4.16459
-4.16464
-4.16469
-4.16473
-4.16476
-4.28853
-4.28854
-4.28854
-4.28857
-4.28864
-4.28871
-4.28879
-4.28886
-4.28894
-4.28903
-4.28911
-4.28919
-4.28927
-4.28935
-4.28943
-4.2895
-4.28957
-4.28963
-4.28969
-4.28974
-4.28979
-4.28982
-4.28985
-4.41384
-4.41384
-4.41383
-4.41385
-4.41389
-4.41395
-4.41401
-4.41408
-4.41415
-4.41422
-4.41429
-4.41436
-4.41444
-4.4145
-4.41457
-4.41463
-4.41469
-4.41475
-4.4148
-4.41485
-4.41489
-4.41492
-4.41495
-4.53914
-4.53911
-4.5391
-4.53912
-4.53915
-4.53919
-4.53924
-4.53929
-4.53935
-4.53942
-4.53948
-4.53954
-4.5396
-4.53966
-4.53972
-4.53977
-4.53982
-4.53987
-4.53992
-4.53996
-4.54
-4.54004
-4.54007
-4.66441
-4.66437
-4.66435
-4.66437
-4.66439
-4.66441
-4.66445
-4.6645
-4.66455
-4.66461
-4.66466
-4.66472
-4.66477
-4.66482
-4.66487
-4.66492
-4.66496
-4.665
-4.66504
-4.66508
-4.66512
-4.66516
-4.66519
-4.78966
-4.78958
-4.78956
-4.78957
-4.78959
-4.78962
-4.78966
-4.78971
-4.78975
-4.7898
-4.78985
-4.78989
-4.78994
-4.78998
-4.79002
-4.79006
-4.7901
-4.79014
-4.79017
-4.79021
-4.79025
-4.79028
-4.79032
-4.91486
-4.91476
-4.91472
-4.91474
-4.91477
-4.91482
-4.91486
-4.91491
-4.91495
-4.91499
-4.91504
-4.91508
-4.91511
-4.91515
-4.91518
-4.91521
-4.91525
-4.91528
-4.91531
-4.91534
-4.91538
-4.91542
-4.91545
-5.04001
-5.03989
-5.03986
-5.0399
-5.03996
-5.04001
-5.04006
-5.04011
-5.04015
-5.04019
-5.04023
-5.04026
-5.04029
-5.04032
-5.04034
-5.04037
-5.04039
-5.04042
-5.04045
-5.04048
-5.04052
-5.04056
-5.0406
-5.16511
-5.16499
-5.16501
-5.16508
-5.16516
-5.16522
-5.16527
-5.16532
-5.16536
-5.16539
-5.16542
-5.16545
-5.16547
-5.16549
-5.16551
-5.16553
-5.16555
-5.16557
-5.16559
-5.16561
-5.16565
-5.1657
-5.16575
-5.29012
-5.29006
-5.29018
-5.29029
-5.29038
-5.29044
-5.2905
-5.29054
-5.29057
-5.2906
-5.29062
-5.29064
-5.29066
-5.29068
-5.29069
-5.2907
-5.29071
-5.29072
-5.29073
-5.29075
-5.2908
-5.29085
-5.29091
-5.41516
-5.41521
-5.41543
-5.41556
-5.41564
-5.4157
-5.41574
-5.41577
-5.41579
-5.41581
-5.41583
-5.41584
-5.41585
-5.41586
-5.41587
-5.41587
-5.41587
-5.41587
-5.41587
-5.41587
-5.41593
-5.41601
-5.41607
-5.54015
-5.54049
-5.54075
-5.54086
-5.54092
-5.54095
-5.54097
-5.54098
-5.54099
-5.541
-5.541
-5.54101
-5.54101
-5.54101
-5.54101
-5.54101
-5.541
-5.54099
-5.54096
-5.54092
-5.54102
-5.54118
-5.54126
-5.66561
-5.66639
-5.66626
-5.66624
-5.66624
-5.66623
-5.66621
-5.66621
-5.6662
-5.6662
-5.6662
-5.6662
-5.66619
-5.66619
-5.66619
-5.66618
-5.66617
-5.66614
-5.66609
-5.66597
-5.66603
-5.66633
-5.66643
244.242
243.971
243.421
242.647
120.678
120.371
119.902
119.333
29.443
29.2724
29.0018
28.6888
-0.440627
-0.473234
-0.520446
-0.549126
-0.826926
-0.834674
-0.837741
-0.83709
-1.05885
-1.05457
-1.04648
-1.04401
-1.2557
-1.25104
-1.24647
-1.24665
-1.41188
-1.41223
-1.41318
-1.41443
-1.54281
-1.54385
-1.54448
-1.54399
-1.66758
-1.66772
-1.66775
-1.66743
-1.79199
-1.79192
-1.79176
-1.79147
-1.91651
-1.91639
-1.91622
-1.91599
-2.04116
-2.04106
-2.04093
-2.04079
-2.16585
-2.16578
-2.1657
-2.16563
-2.29055
-2.2905
-2.29046
-2.29042
-2.41528
-2.41525
-2.41522
-2.41519
-2.54006
-2.54004
-2.54002
-2.53999
-2.66488
-2.66487
-2.66485
-2.66482
-2.78975
-2.78974
-2.78972
-2.78969
-2.91465
-2.91464
-2.91462
-2.91459
-3.03957
-3.03956
-3.03955
-3.03952
-3.16452
-3.16451
-3.1645
-3.16447
-3.28948
-3.28948
-3.28947
-3.28945
-3.41447
-3.41447
-3.41446
-3.41445
-3.53948
-3.53948
-3.53948
-3.53947
-3.66451
-3.66452
-3.66451
-3.6645
-3.78956
-3.78956
-3.78956
-3.78956
-3.91462
-3.91462
-3.91462
-3.91462
-4.03969
-4.0397
-4.0397
-4.0397
-4.16477
-4.16478
-4.16479
-4.16479
-4.28987
-4.28988
-4.28988
-4.28989
-4.41497
-4.41498
-4.41499
-4.415
-4.54009
-4.5401
-4.54011
-4.54012
-4.66521
-4.66522
-4.66523
-4.66524
-4.79034
-4.79035
-4.79037
-4.79038
-4.91548
-4.91549
-4.91551
-4.91552
-5.04062
-5.04064
-5.04065
-5.04067
-5.16578
-5.16579
-5.16581
-5.16582
-5.29093
-5.29095
-5.29097
-5.29098
-5.4161
-5.41612
-5.41613
-5.41615
-5.54128
-5.5413
-5.54131
-5.54131
-5.66645
-5.66646
-5.66647
-5.66647
241.544
239.883
238.36
236.652
234.786
232.787
230.662
228.553
226.682
225.535
225.103
224.154
222.192
219.289
216.715
215.703
215.634
214.299
213.673
118.211
116.348
114.695
113.096
111.487
109.915
108.234
106.354
104.388
102.575
101.111
99.6511
97.9708
96.1148
94.5225
93.5404
93.1036
91.8291
91.2153
28.0824
27.058
26.2315
25.5671
24.9391
24.3522
23.7609
23.056
22.0798
20.8244
19.7898
19.0179
18.3563
17.8064
17.2819
16.6923
16.2496
15.7276
15.4945
-0.564396
-0.579961
-0.594286
-0.582067
-0.480981
-0.482082
-0.523954
-0.536398
-0.54565
-0.55511
-0.589737
-0.618956
-0.627581
-0.620204
-0.607984
-0.604195
-0.614804
-0.596606
-0.594186
-0.832573
-0.828795
-0.82614
-0.822133
-0.795663
-0.778608
-0.782434
-0.78814
-0.797145
-0.809345
-0.822262
-0.832733
-0.840171
-0.844653
-0.84566
-0.844229
-0.842488
-0.841336
-0.841303
-1.04275
-1.04027
-1.04163
-1.04485
-1.05905
-1.06677
-1.06874
-1.07356
-1.07717
-1.08097
-1.08299
-1.08766
-1.09128
-1.0921
-1.09147
-1.09222
-1.09136
-1.08747
-1.08721
-1.2517
-1.25194
-1.2517
-1.24929
-1.26219
-1.27125
-1.27261
-1.27084
-1.26717
-1.2634
-1.26165
-1.26062
-1.26076
-1.261
-1.2611
-1.26142
-1.26073
-1.25977
-1.25887
-1.41576
-1.41531
-1.41318
-1.40998
-1.40961
-1.40447
-1.40027
-1.39635
-1.39257
-1.39002
-1.38824
-1.38739
-1.38813
-1.38886
-1.39003
-1.39057
-1.3914
-1.39198
-1.39015
-1.54225
-1.54062
-1.53889
-1.53752
-1.53452
-1.5305
-1.52677
-1.52327
-1.5213
-1.5199
-1.51815
-1.51674
-1.51623
-1.51614
-1.51693
-1.51751
-1.51807
-1.51797
-1.51679
-1.66648
-1.66485
-1.66306
-1.66148
-1.65939
-1.6568
-1.65408
-1.65238
-1.65247
-1.65187
-1.64999
-1.64773
-1.64523
-1.64395
-1.64384
-1.64421
-1.64465
-1.64446
-1.64386
-1.79079
-1.7893
-1.78767
-1.78627
-1.78487
-1.7835
-1.7825
-1.78273
-1.78265
-1.78107
-1.77917
-1.77726
-1.77475
-1.77299
-1.77159
-1.77095
-1.77114
-1.77092
-1.77067
-1.91551
-1.91447
-1.91331
-1.91214
-1.91093
-1.91025
-1.91077
-1.91115
-1.90984
-1.90784
-1.90656
-1.90549
-1.90396
-1.90225
-1.90031
-1.89857
-1.8975
-1.89713
-1.89732
-2.04054
-2.04025
-2.03963
-2.03869
-2.03777
-2.03705
-2.03717
-2.0367
-2.03535
-2.03421
-2.03362
-2.03252
-2.031
-2.02949
-2.02795
-2.0262
-2.02444
-2.02389
-2.02427
-2.16552
-2.16562
-2.16554
-2.16496
-2.16411
-2.16315
-2.16236
-2.16167
-2.16071
-2.15988
-2.15919
-2.15803
-2.15664
-2.15537
-2.15425
-2.15313
-2.15209
-2.15163
-2.15194
-2.29035
-2.29038
-2.29045
-2.29012
-2.28916
-2.28822
-2.28747
-2.28676
-2.28594
-2.28514
-2.28437
-2.2834
-2.28232
-2.28132
-2.2805
-2.27997
-2.27958
-2.27935
-2.2795
-2.41513
-2.41508
-2.41496
-2.41461
-2.41395
-2.41322
-2.41255
-2.41188
-2.41116
-2.41043
-2.40969
-2.40886
-2.40799
-2.4072
-2.40658
-2.40623
-2.4061
-2.40598
-2.40596
-2.53993
-2.53983
-2.53965
-2.53932
-2.5388
-2.53821
-2.53763
-2.53702
-2.53639
-2.53573
-2.53507
-2.53436
-2.53364
-2.53299
-2.53247
-2.53212
-2.53191
-2.53181
-2.53183
-2.66476
-2.66464
-2.66446
-2.66416
-2.66373
-2.66324
-2.66272
-2.66219
-2.66163
-2.66105
-2.66047
-2.65986
-2.65926
-2.65872
-2.65825
-2.65788
-2.65761
-2.65745
-2.65745
-2.78963
-2.78951
-2.78933
-2.78906
-2.78871
-2.78829
-2.78785
-2.78738
-2.78689
-2.78639
-2.78588
-2.78536
-2.78486
-2.7844
-2.78398
-2.7836
-2.78324
-2.78299
-2.78284
-2.91453
-2.91441
-2.91424
-2.91401
-2.91371
-2.91336
-2.91298
-2.91257
-2.91216
-2.91173
-2.9113
-2.91087
-2.91045
-2.91006
-2.9097
-2.90935
-2.909
-2.90874
-2.90849
-3.03946
-3.03935
-3.0392
-3.03899
-3.03874
-3.03845
-3.03812
-3.03778
-3.03743
-3.03707
-3.03671
-3.03636
-3.03602
-3.03572
-3.03545
-3.0352
-3.03496
-3.03489
-3.03469
-3.16442
-3.16432
-3.16419
-3.16401
-3.1638
-3.16355
-3.16328
-3.16299
-3.1627
-3.1624
-3.16211
-3.16183
-3.16158
-3.16137
-3.1612
-3.16108
-3.16101
-3.16122
-3.16099
-3.28941
-3.28932
-3.2892
-3.28905
-3.28887
-3.28867
-3.28844
-3.2882
-3.28796
-3.28773
-3.2875
-3.28729
-3.28712
-3.28698
-3.28692
-3.28692
-3.28701
-3.28736
-3.2871
-3.41441
-3.41434
-3.41424
-3.41412
-3.41397
-3.4138
-3.41361
-3.41342
-3.41323
-3.41304
-3.41287
-3.41272
-3.41261
-3.41254
-3.41255
-3.41266
-3.41287
-3.41318
-3.41304
-3.53944
-3.53938
-3.5393
-3.5392
-3.53908
-3.53894
-3.53879
-3.53864
-3.53849
-3.53834
-3.53822
-3.53812
-3.53805
-3.53804
-3.53809
-3.53825
-3.53851
-3.53876
-3.53879
-3.66449
-3.66444
-3.66437
-3.66429
-3.66419
-3.66408
-3.66397
-3.66385
-3.66373
-3.66363
-3.66354
-3.66348
-3.66345
-3.66346
-3.66353
-3.66368
-3.66389
-3.66401
-3.66396
-3.78954
-3.78951
-3.78946
-3.7894
-3.78932
-3.78924
-3.78915
-3.78906
-3.78897
-3.7889
-3.78884
-3.7888
-3.78879
-3.78882
-3.78888
-3.78898
-3.78907
-3.78901
-3.78868
-3.91462
-3.91459
-3.91456
-3.91451
-3.91445
-3.91439
-3.91432
-3.91426
-3.9142
-3.91415
-3.91412
-3.9141
-3.91411
-3.91413
-3.91418
-3.91422
-3.91421
-3.91404
-3.91359
-4.0397
-4.03969
-4.03966
-4.03963
-4.03959
-4.03954
-4.0395
-4.03946
-4.03942
-4.03939
-4.03938
-4.03938
-4.03939
-4.03942
-4.03945
-4.03946
-4.0394
-4.03918
-4.03872
-4.16479
-4.16479
-4.16477
-4.16475
-4.16473
-4.1647
-4.16467
-4.16465
-4.16463
-4.16462
-4.16463
-4.16464
-4.16466
-4.16469
-4.16471
-4.1647
-4.16462
-4.16441
-4.16401
-4.2899
-4.2899
-4.2899
-4.28989
-4.28987
-4.28986
-4.28985
-4.28984
-4.28984
-4.28984
-4.28986
-4.28988
-4.28991
-4.28994
-4.28995
-4.28993
-4.28984
-4.28962
-4.28928
-4.41501
-4.41502
-4.41502
-4.41502
-4.41502
-4.41502
-4.41502
-4.41502
-4.41504
-4.41506
-4.41508
-4.41512
-4.41516
-4.41519
-4.41519
-4.41516
-4.41503
-4.41477
-4.41439
-4.54013
-4.54015
-4.54016
-4.54017
-4.54017
-4.54018
-4.54019
-4.54021
-4.54023
-4.54026
-4.5403
-4.54035
-4.54039
-4.54043
-4.54044
-4.54038
-4.54022
-4.53991
-4.53944
-4.66526
-4.66528
-4.6653
-4.66531
-4.66533
-4.66534
-4.66536
-4.66538
-4.66542
-4.66546
-4.66551
-4.66556
-4.66562
-4.66567
-4.66569
-4.66565
-4.66548
-4.66515
-4.66464
-4.7904
-4.79042
-4.79044
-4.79046
-4.79048
-4.7905
-4.79052
-4.79056
-4.79059
-4.79064
-4.79071
-4.79078
-4.79085
-4.79092
-4.79097
-4.79095
-4.79082
-4.7905
-4.79
-4.91554
-4.91557
-4.91559
-4.91561
-4.91563
-4.91566
-4.91569
-4.91572
-4.91577
-4.91582
-4.91589
-4.91598
-4.91607
-4.91617
-4.91626
-4.9163
-4.91621
-4.9159
-4.91537
-5.04069
-5.04072
-5.04074
-5.04076
-5.04079
-5.04081
-5.04084
-5.04088
-5.04093
-5.04099
-5.04107
-5.04116
-5.04128
-5.04141
-5.04155
-5.04166
-5.04166
-5.04136
-5.0408
-5.16584
-5.16587
-5.1659
-5.16592
-5.16594
-5.16596
-5.16599
-5.16603
-5.16608
-5.16614
-5.16622
-5.16632
-5.16646
-5.16663
-5.16684
-5.16705
-5.16716
-5.16689
-5.16627
-5.291
-5.29103
-5.29105
-5.29107
-5.29109
-5.29111
-5.29114
-5.29117
-5.29122
-5.29127
-5.29135
-5.29145
-5.2916
-5.2918
-5.29208
-5.29243
-5.29275
-5.29252
-5.29189
-5.41616
-5.41618
-5.4162
-5.41622
-5.41623
-5.41625
-5.41627
-5.4163
-5.41634
-5.41639
-5.41645
-5.41654
-5.41668
-5.41688
-5.41721
-5.41774
-5.41842
-5.41833
-5.41781
-5.54132
-5.54134
-5.54135
-5.54136
-5.54137
-5.54139
-5.5414
-5.54142
-5.54145
-5.54148
-5.54152
-5.54159
-5.54168
-5.54184
-5.54214
-5.5428
-5.54402
-5.54443
-5.54444
-5.66648
-5.66649
-5.6665
-5.6665
-5.66651
-5.66652
-5.66654
-5.66655
-5.66656
-5.66658
-5.66659
-5.66662
-5.66666
-5.66674
-5.66691
-5.6674
-5.6688
-5.67051
-5.67202
)
;

boundaryField
{
    leftWall
    {
        type            calculated;
        value           nonuniform List<scalar> 
50
(
723.073
664.148
605.176
546.153
487.081
427.959
368.79
309.573
216.911
93.3088
16.2218
-0.566168
-0.836238
-1.09636
-1.2676
-1.39741
-1.52402
-1.65051
-1.77679
-1.90291
-2.02892
-2.15484
-2.28069
-2.40648
-2.53221
-2.65788
-2.7835
-2.90907
-3.0346
-3.1601
-3.28558
-3.41101
-3.53642
-3.66181
-3.78718
-3.91253
-4.03787
-4.16321
-4.28853
-4.41384
-4.53914
-4.66441
-4.78966
-4.91486
-5.04001
-5.16511
-5.29012
-5.41516
-5.54015
-5.66561
)
;
    }
    rightWall
    {
        type            calculated;
        value           nonuniform List<scalar> 
50
(
717.064
658.351
599.657
541.019
482.378
423.696
364.879
305.912
213.673
91.2153
15.4945
-0.594186
-0.841303
-1.08721
-1.25887
-1.39015
-1.51679
-1.64386
-1.77067
-1.89732
-2.02427
-2.15194
-2.2795
-2.40596
-2.53183
-2.65745
-2.78284
-2.90849
-3.03469
-3.16099
-3.2871
-3.41304
-3.53879
-3.66396
-3.78868
-3.91359
-4.03872
-4.16401
-4.28928
-4.41439
-4.53944
-4.66464
-4.79
-4.91537
-5.0408
-5.16627
-5.29189
-5.41781
-5.54444
-5.67202
)
;
    }
    lowerWall
    {
        type            calculated;
        value           nonuniform List<scalar> 
62
(
752.503
752.797
753.277
753.946
754.789
755.788
756.927
758.184
759.536
760.957
762.42
763.895
765.348
766.741
768.026
769.164
770.163
771.06
771.955
772.698
773.405
774.179
774.547
745.172
686.377
627.619
568.947
510.358
451.847
393.392
335.013
306.839
306.568
306.018
305.245
741.124
682.839
624.619
566.244
507.743
449.316
390.977
332.857
770.297
770.147
769.456
768.033
766.402
764.515
762.524
760.387
758.066
755.558
753.31
751.759
750.272
748.362
748.497
748.105
747.149
746.782
746.403
)
;
    }
    atmosphere
    {
        type            calculated;
        value           nonuniform List<scalar> 
46
(
-5.72915
-5.72904
-5.72904
-5.72904
-5.72904
-5.72904
-5.72904
-5.72904
-5.72904
-5.72904
-5.72904
-5.72904
-5.72904
-5.72904
-5.72904
-5.72904
-5.72904
-5.72904
-5.72904
-5.72904
-5.72904
-5.72904
-5.72904
-5.72905
-5.72905
-5.72905
-5.72905
-5.72906
-5.72906
-5.72907
-5.72908
-5.72909
-5.7291
-5.72911
-5.72912
-5.72913
-5.72914
-5.72915
-5.72916
-5.72916
-5.72916
-5.72916
-5.72915
-5.72912
-5.72906
-5.73773
)
;
    }
    defaultFaces
    {
        type            empty;
    }
}


// ************************************************************************* //
