/*--------------------------------*- C++ -*----------------------------------*\
  =========                 |
  \\      /  F ield         | OpenFOAM: The Open Source CFD Toolbox
   \\    /   O peration     | Website:  https://openfoam.org
    \\  /    A nd           | Version:  9
     \\/     M anipulation  |
\*---------------------------------------------------------------------------*/
FoamFile
{
    format      ascii;
    class       surfaceScalarField;
    location    "0.93";
    object      alphaPhi0.water;
}
// * * * * * * * * * * * * * * * * * * * * * * * * * * * * * * * * * * * * * //

dimensions      [0 3 -1 0 0 0 0];

internalField   nonuniform List<scalar> 
4432
(
-1.00193e-06
1.00193e-06
-3.88061e-06
2.87868e-06
-6.96295e-06
3.08234e-06
-1.00133e-05
3.05037e-06
-1.3013e-05
2.99972e-06
-1.58965e-05
2.8834e-06
-1.85863e-05
2.68984e-06
-2.10029e-05
2.41662e-06
-2.30586e-05
2.05566e-06
-2.46457e-05
1.58714e-06
-2.56275e-05
9.81804e-07
-2.58457e-05
2.18171e-07
-2.51929e-05
-6.52772e-07
-2.37182e-05
-1.47471e-06
-2.08985e-05
-2.22039e-06
-1.80636e-05
-2.91296e-06
-1.45057e-05
-3.63594e-06
-1.0223e-05
-4.36067e-06
-5.26339e-06
-5.03772e-06
-1.12636e-08
-5.33014e-06
4.5156e-06
-4.6044e-06
5.37722e-06
-7.92638e-07
5.42276e-06
-2.52268e-06
3.52461e-06
-5.73013e-06
6.08613e-06
-9.07435e-06
6.42656e-06
-1.23563e-05
6.33235e-06
-1.54976e-05
6.14095e-06
-1.84038e-05
5.78959e-06
-2.09928e-05
5.27883e-06
-2.31876e-05
4.61151e-06
-2.4902e-05
3.77004e-06
-2.60384e-05
2.72347e-06
-2.65169e-05
1.46037e-06
-2.63231e-05
2.43384e-08
-2.54894e-05
-1.48652e-06
-2.4005e-05
-2.95909e-06
-2.18574e-05
-4.368e-06
-1.89737e-05
-5.73171e-06
-1.55092e-05
-7.06126e-06
-1.16422e-05
-8.29496e-06
-7.4079e-06
-9.38724e-06
-2.95194e-06
-9.90891e-06
9.80961e-07
-8.58065e-06
3.03776e-06
-2.85897e-06
8.47017e-06
-3.22577e-06
6.75038e-06
-6.36966e-06
9.23001e-06
-9.62573e-06
9.68262e-06
-1.28378e-05
9.54445e-06
-1.58853e-05
9.18843e-06
-1.86823e-05
8.58658e-06
-2.11594e-05
7.75588e-06
-2.32507e-05
6.70282e-06
-2.48804e-05
5.39974e-06
-2.59634e-05
3.80644e-06
-2.64276e-05
1.92464e-06
-2.62401e-05
-1.6321e-07
-2.541e-05
-2.31655e-06
-2.3947e-05
-4.42213e-06
-2.1856e-05
-6.459e-06
-1.91621e-05
-8.42564e-06
-1.59919e-05
-1.02314e-05
-1.25239e-05
-1.1763e-05
-8.86858e-06
-1.30426e-05
-5.10069e-06
-1.36768e-05
-1.57403e-06
-1.21073e-05
8.98574e-07
-5.33158e-06
9.36833e-06
-3.54932e-06
1.02997e-05
-6.71361e-06
1.23943e-05
-9.92228e-06
1.28913e-05
-1.30703e-05
1.26925e-05
-1.60394e-05
1.21575e-05
-1.87559e-05
1.13031e-05
-2.11614e-05
1.01614e-05
-2.31979e-05
8.73926e-06
-2.47953e-05
6.99715e-06
-2.58717e-05
4.88285e-06
-2.63511e-05
2.4041e-06
-2.61894e-05
-3.24962e-07
-2.5383e-05
-3.12296e-06
-2.39478e-05
-5.85731e-06
-2.18947e-05
-8.5121e-06
-1.9268e-05
-1.10524e-05
-1.62519e-05
-1.32475e-05
-1.31106e-05
-1.49043e-05
-9.9723e-06
-1.61809e-05
-6.79605e-06
-1.6853e-05
-3.66108e-06
-1.5242e-05
-9.13019e-07
-8.07881e-06
8.45484e-06
-3.70254e-06
1.40022e-05
-6.92948e-06
1.56213e-05
-1.01181e-05
1.60799e-05
-1.32133e-05
1.57877e-05
-1.61179e-05
1.50621e-05
-1.87721e-05
1.39573e-05
-2.11283e-05
1.25175e-05
-2.31364e-05
1.07475e-05
-2.47318e-05
8.59247e-06
-2.58319e-05
5.98299e-06
-2.63526e-05
2.92474e-06
-2.62361e-05
-4.41369e-07
-2.54699e-05
-3.88923e-06
-2.40679e-05
-7.25925e-06
-2.20344e-05
-1.05457e-05
-1.94172e-05
-1.36695e-05
-1.6465e-05
-1.61997e-05
-1.35542e-05
-1.78151e-05
-1.08425e-05
-1.88926e-05
-8.1664e-06
-1.95291e-05
-5.41268e-06
-1.79956e-05
-2.5612e-06
-1.09302e-05
5.89313e-06
-3.77834e-06
1.77806e-05
-7.06435e-06
1.89073e-05
-1.02373e-05
1.92529e-05
-1.32856e-05
1.88359e-05
-1.61363e-05
1.79128e-05
-1.87432e-05
1.65642e-05
-2.10696e-05
1.4844e-05
-2.30744e-05
1.27523e-05
-2.4698e-05
1.0216e-05
-2.58553e-05
7.14033e-06
-2.64493e-05
3.51875e-06
-2.64055e-05
-4.85216e-07
-2.57005e-05
-4.59418e-06
-2.43429e-05
-8.6169e-06
-2.23136e-05
-1.25749e-05
-1.96427e-05
-1.63403e-05
-1.66516e-05
-1.91908e-05
-1.38703e-05
-2.05964e-05
-1.15146e-05
-2.12483e-05
-9.2826e-06
-2.17611e-05
-6.89647e-06
-2.03822e-05
-4.05438e-06
-1.37727e-05
1.83886e-06
-3.81344e-06
2.1594e-05
-7.13172e-06
2.22255e-05
-1.02804e-05
2.24016e-05
-1.32835e-05
2.1839e-05
-1.60889e-05
2.07183e-05
-1.86628e-05
1.91381e-05
-2.09789e-05
1.716e-05
-2.30059e-05
1.47793e-05
-2.46906e-05
1.19007e-05
-2.5944e-05
8.39373e-06
-2.66516e-05
4.22641e-06
-2.67175e-05
-4.19363e-07
-2.61055e-05
-5.20613e-06
-2.48155e-05
-9.9069e-06
-2.27876e-05
-1.46025e-05
-2.00019e-05
-1.91233e-05
-1.68519e-05
-2.23384e-05
-1.40801e-05
-2.33697e-05
-1.20237e-05
-2.33058e-05
-1.02157e-05
-2.35696e-05
-8.1729e-06
-2.24254e-05
-5.24597e-06
-1.67001e-05
-3.40686e-06
-3.80748e-06
2.54015e-05
-7.12838e-06
2.55464e-05
-1.02389e-05
2.5512e-05
-1.31953e-05
2.47954e-05
-1.59631e-05
2.3486e-05
-1.85178e-05
2.16928e-05
-2.08433e-05
1.94855e-05
-2.29198e-05
1.68557e-05
-2.47023e-05
1.36831e-05
-2.6098e-05
9.7894e-06
-2.69706e-05
5.09899e-06
-2.71971e-05
-1.92849e-07
-2.67238e-05
-5.67939e-06
-2.55441e-05
-1.10866e-05
-2.35431e-05
-1.66022e-05
-2.05605e-05
-2.20555e-05
-1.70393e-05
-2.57962e-05
-1.41237e-05
-2.63129e-05
-1.23354e-05
-2.51034e-05
-1.10007e-05
-2.49099e-05
-9.35232e-06
-2.40734e-05
-6.35657e-06
-1.96957e-05
-9.76317e-06
5.31691e-06
-5.30247e-06
-1.30146e-05
1.82433e-05
-3.59116e-05
2.28667e-05
-5.46946e-05
1.87575e-05
-6.28127e-05
8.70693e-06
-6.01297e-05
-3.85619e-07
-5.28438e-05
-5.68169e-06
-4.31852e-05
-9.55299e-06
-3.16196e-05
-1.17215e-05
-2.25001e-05
-9.04648e-06
-1.97063e-05
-2.72088e-06
-2.12751e-05
1.64186e-06
-2.27314e-05
1.69545e-06
-2.19714e-05
-8.00297e-07
-1.75369e-05
-4.42897e-06
-1.03033e-05
-7.22808e-06
-2.24927e-06
-8.04834e-06
3.97978e-06
-6.22342e-06
3.7961e-06
-1.02334e-05
4.88708e-06
-3.09789e-05
3.88748e-05
-5.04335e-05
4.21887e-05
-5.3103e-05
2.59269e-05
-4.22459e-05
9.39694e-06
-4.10941e-05
-1.62852e-06
-3.62518e-05
-1.06092e-05
-2.99331e-05
-1.79488e-05
-2.55615e-05
-1.82717e-05
-2.30988e-05
-1.37903e-05
-2.11002e-05
-5.40722e-06
-2.13789e-05
1.78745e-06
-2.15032e-05
1.99035e-06
-1.9247e-05
-2.30552e-06
-1.65377e-05
-8.21864e-06
-1.1612e-05
-1.21482e-05
-6.17729e-06
-1.34774e-05
-9.4628e-07
-1.14488e-05
2.87299e-06
-1.87082e-05
2.33291e-05
-3.726e-05
5.68644e-05
-4.98208e-05
5.5027e-05
-3.83768e-05
3.15068e-05
-3.92419e-05
1.01889e-05
-3.83363e-05
-2.62446e-06
-3.47136e-05
-1.43051e-05
-2.88355e-05
-2.42261e-05
-2.23553e-05
-2.53157e-05
-1.64801e-05
-2.03869e-05
-1.75979e-05
-6.66613e-06
-1.93378e-05
1.07942e-06
-1.92e-05
1.57177e-06
-1.65367e-05
-3.95093e-06
-1.30843e-05
-8.06465e-06
-9.84592e-06
-1.48426e-05
-7.36641e-06
-1.60649e-05
-4.4915e-06
-1.46196e-05
-1.71475e-06
-2.21e-05
4.57742e-05
-3.77454e-05
7.28919e-05
-4.74086e-05
6.49601e-05
-4.97271e-05
4.0505e-05
-4.09927e-05
1.1373e-05
-3.85591e-05
-5.13119e-06
-3.85059e-05
-2.42186e-05
-3.26293e-05
-2.96547e-05
-2.42432e-05
-3.32528e-05
-1.58665e-05
-2.66742e-05
-1.25603e-05
-1.10718e-05
-1.28903e-05
2.6869e-07
-1.31524e-05
8.14446e-07
-1.11163e-05
-4.32357e-06
-9.69053e-06
-1.05374e-05
-6.81279e-06
-1.77036e-05
-6.43474e-06
-1.68949e-05
-5.61811e-06
-1.69165e-05
-8.20558e-06
-2.27129e-05
6.8916e-05
-3.5235e-05
8.52208e-05
-4.25277e-05
7.23039e-05
-4.13644e-05
4.1695e-05
-3.70749e-05
1.05935e-05
-3.74897e-05
-4.41046e-06
-3.47963e-05
-2.5188e-05
-3.04927e-05
-3.35102e-05
-2.4747e-05
-3.84822e-05
-1.82873e-05
-3.25494e-05
-1.19577e-05
-1.53229e-05
-1.05637e-05
-1.28909e-06
-9.5591e-06
-3.54058e-07
-8.24932e-06
-5.79721e-06
-8.53783e-06
-1.58035e-05
-6.67627e-06
-1.95214e-05
-6.621e-06
-1.69923e-05
-6.31221e-06
-1.73252e-05
-1.50291e-05
-2.20626e-05
9.09855e-05
-3.11874e-05
9.44065e-05
-3.56792e-05
7.67691e-05
-1.99837e-05
2.64261e-05
-1.31025e-05
3.83896e-06
-1.26286e-05
-7.23722e-07
-2.06022e-05
-5.75374e-06
-2.61288e-05
-2.06128e-05
-2.2673e-05
-4.13535e-05
-1.79202e-05
-3.6666e-05
-1.45544e-05
-1.78105e-05
-9.92103e-06
-4.39854e-06
-8.10592e-06
-2.33303e-06
-8.41298e-06
-9.98314e-06
-5.89621e-06
-1.8356e-05
-4.38319e-06
-2.09811e-05
-4.14785e-06
-1.12374e-05
-4.76147e-06
-8.34265e-06
-1.08436e-05
-2.11496e-05
0.000112255
-2.65862e-05
9.99897e-05
-2.43103e-05
7.46256e-05
-4.72294e-06
7.82734e-06
-2.94769e-06
1.93899e-06
-2.85928e-06
-1.02523e-06
-3.67782e-06
-5.19502e-06
-1.27051e-05
-7.84383e-06
-1.80175e-05
-2.56512e-05
-1.34481e-05
-3.29519e-05
-1.05779e-05
-1.0767e-05
-9.15616e-06
-5.35797e-06
-7.71219e-06
-5.94046e-06
-5.3085e-06
-1.01025e-05
-2.98508e-06
-1.81254e-05
-6.6627e-07
-8.44585e-06
-2.20534e-07
-1.63496e-06
-3.7851e-07
-1.01878e-06
-1.39126e-06
-2.08231e-05
0.000133079
-2.26845e-05
0.000101861
-6.5584e-06
5.9946e-05
-2.3404e-06
5.25203e-06
-2.46147e-06
2.00675e-06
-2.96318e-06
-6.813e-07
-1.77125e-06
-7.6701e-06
-3.08856e-06
-7.56139e-06
-5.91803e-06
-1.7631e-05
-1.9057e-06
-1.77316e-05
-1.45752e-06
-5.38507e-06
-3.62854e-06
-9.44931e-07
-2.8777e-06
-3.54726e-06
-1.36405e-06
-8.41973e-06
6.07507e-08
-8.1117e-06
3.35159e-07
-2.40599e-06
4.60629e-07
-1.76064e-06
3.7731e-07
-9.35651e-07
-1.01433e-06
-7.85311e-06
3.32546e-05
-1.48498e-05
3.25431e-05
-2.13148e-05
3.19771e-05
-2.74336e-05
3.09142e-05
-3.32164e-05
2.92688e-05
-3.86341e-05
2.71105e-05
-4.36802e-05
2.45316e-05
-4.83571e-05
2.15327e-05
-5.26127e-05
1.79387e-05
-5.62466e-05
1.34233e-05
-5.888e-05
7.73253e-06
-6.01475e-05
1.07481e-06
-5.98346e-05
-5.99212e-06
-5.79403e-05
-1.29757e-05
-5.40172e-05
-2.04975e-05
-4.62767e-05
-2.86949e-05
-3.21955e-05
-2.61947e-05
-2.31179e-05
-2.20176e-05
-2.05981e-05
-1.84116e-05
-2.14877e-05
-1.56383e-05
-2.15521e-05
-1.3941e-05
-1.91789e-05
-1.67683e-05
-1.81976e-05
-1.05638e-05
-6.92194e-06
4.01766e-05
-1.34161e-05
3.90373e-05
-1.95096e-05
3.80705e-05
-2.54092e-05
3.68138e-05
-3.11308e-05
3.49905e-05
-3.66514e-05
3.26312e-05
-4.20135e-05
2.98937e-05
-4.73121e-05
2.68313e-05
-5.26173e-05
2.32438e-05
-5.77788e-05
1.85848e-05
-6.23146e-05
1.22683e-05
-6.54989e-05
4.25937e-06
-6.71876e-05
-4.3019e-06
-6.70453e-05
-1.28908e-05
-5.83877e-05
-1.42115e-05
-3.56167e-05
-1.38553e-05
-2.00562e-05
-2.08862e-05
-1.06038e-05
-2.01463e-05
-7.52465e-06
-5.81703e-06
-5.56992e-06
-2.218e-07
-4.79857e-06
-1.35674e-06
-3.03402e-05
-6.45938e-06
-1.12744e-05
-5.3944e-05
-4.84487e-06
4.50214e-05
-1.03973e-05
4.45897e-05
-1.59397e-05
4.36129e-05
-2.16483e-05
4.25224e-05
-2.74547e-05
4.07969e-05
-3.30633e-05
3.82398e-05
-3.85357e-05
2.82945e-05
-4.33679e-05
2.37884e-05
-4.87119e-05
1.99144e-05
-5.50317e-05
1.64263e-05
-6.1825e-05
1.24207e-05
-6.88185e-05
7.18628e-06
-7.18946e-05
1.34814e-06
-4.56593e-05
-1.35212e-06
-2.04897e-05
-3.9247e-06
-1.89384e-05
-1.26933e-05
-1.96785e-05
-2.63709e-05
-7.35559e-06
-1.26428e-05
-1.6773e-07
-2.56054e-07
-4.87062e-07
-5.51665e-08
-1.98321e-06
-3.54127e-08
-4.12151e-05
-1.37469e-06
-2.60466e-06
-7.82922e-05
-1.72589e-06
4.67473e-05
-5.39882e-06
3.50783e-05
-9.17713e-06
2.74949e-05
-1.24648e-05
1.91117e-05
-1.45951e-05
1.09637e-05
-1.51809e-05
4.70193e-06
-1.50027e-05
9.56718e-07
-1.45922e-05
5.16662e-08
-1.49783e-05
3.59348e-08
-1.65372e-05
2.05443e-08
-1.89625e-05
0
-1.94666e-05
1.31017e-07
-1.5697e-05
0
-1.79678e-05
4.2119e-08
-1.64088e-05
-6.45672e-06
-2.36006e-05
-1.25926e-05
-2.85699e-05
-1.8641e-05
-1.34735e-06
-1.59797e-05
-2.00455e-07
-1.55565e-06
-2.85154e-07
-1.23166e-07
-5.06872e-07
3.3602e-08
-2.10953e-05
1.09262e-07
1.92289e-06
-7.44761e-05
5.44371e-07
2.71643e-06
3.39843e-08
1.1699e-07
-7.69955e-07
4.27186e-08
-8.09101e-07
3.3578e-08
-5.05265e-07
2.31607e-08
-2.72556e-07
1.21829e-08
-2.25838e-07
4.82993e-09
-2.13009e-07
3.04077e-09
-2.07575e-07
1.58862e-09
-2.15657e-07
0
-2.83837e-07
0
-2.63028e-07
4.88705e-09
-1.11642e-05
0
-3.7717e-05
1.42867e-06
-3.98381e-05
-2.09345e-06
-3.81845e-05
-1.20042e-05
-3.38502e-05
-2.07332e-05
-1.6741e-05
-2.1486e-05
-6.64036e-07
-5.44073e-06
-3.11832e-07
-6.28069e-07
-4.23133e-07
-4.7742e-08
-6.93713e-07
1.41985e-07
9.84308e-08
-4.42111e-05
-7.52579e-08
1.86017e-09
-7.42381e-09
6.56001e-10
-1.54103e-08
2.58661e-09
-1.73296e-08
2.60578e-09
-1.35387e-08
1.80672e-09
-1.04789e-08
1.01966e-09
-9.2997e-09
4.25993e-10
-8.52661e-09
2.40836e-10
-8.69993e-09
6.31489e-11
-1.15907e-08
1.7129e-10
-1.66476e-08
3.29252e-10
-3.05693e-08
0
-1.36624e-07
0
-1.84538e-06
0
-2.04475e-05
-4.38437e-07
-3.72436e-05
-5.13523e-06
-4.22801e-05
-1.29362e-05
-3.28932e-05
-2.86525e-05
-7.58921e-06
-2.05236e-05
-6.75399e-07
-7.65306e-06
-2.53291e-07
-7.07919e-07
-3.39071e-07
-4.12138e-08
1.37751e-07
-6.01666e-07
-1.8143e-09
1.30626e-10
-2.85011e-09
0
-2.67661e-09
1.12955e-10
-1.94211e-09
1.65516e-10
-1.18597e-09
1.1211e-10
-6.80974e-10
5.96429e-11
-4.80916e-10
2.55131e-11
-3.91881e-10
1.36799e-11
-4.72606e-10
9.31733e-12
-5.58351e-10
2.95557e-11
-1.43992e-09
1.13673e-10
-1.06937e-08
0
-2.33694e-08
3.82483e-10
-3.4744e-08
3.89902e-10
-4.73846e-07
1.08115e-11
-5.52098e-06
-1.12296e-07
-2.78724e-05
-3.66415e-06
-3.8677e-05
-1.79182e-05
-2.98267e-05
-2.80405e-05
-8.91139e-06
-2.03698e-05
-8.35175e-07
-8.67928e-06
-2.50459e-07
-8.49625e-07
-1.53084e-07
-1.83353e-07
-5.03949e-11
8.36432e-12
-1.63226e-10
0
-1.77045e-10
6.48271e-12
-1.16056e-10
8.89278e-12
-6.42665e-11
5.94441e-12
-3.49043e-11
3.11989e-12
-2.35777e-11
1.41165e-12
-2.03601e-11
7.80242e-13
-2.378e-11
9.35374e-13
-3.28453e-11
3.06029e-12
-1.85475e-10
1.21099e-11
-8.09519e-10
1.43486e-11
-9.09851e-10
5.62612e-11
-4.16828e-10
3.62522e-11
-2.39692e-10
5.32296e-12
-1.17459e-07
-2.05414e-09
-3.57981e-06
-2.11204e-07
-2.21121e-05
-2.48348e-06
-3.13742e-05
-1.72879e-05
-2.79382e-05
-2.20423e-05
-1.34674e-05
-1.89526e-05
-1.60033e-06
-1.27136e-05
-1.68126e-06
-2.95886e-07
-1.5017e-12
5.42293e-13
-7.30576e-12
1.59733e-14
-8.02172e-12
3.85791e-13
-5.23356e-12
4.56483e-13
-2.86317e-12
2.9837e-13
-1.57312e-12
1.60037e-13
-1.06931e-12
7.94634e-14
-1.02708e-12
4.9224e-14
-1.17376e-12
7.81886e-14
-1.82999e-12
2.74816e-13
-1.39781e-11
1.16992e-12
-4.97802e-11
2.41498e-12
-4.61625e-11
5.27487e-12
-3.74508e-11
8.88458e-12
-2.17516e-11
0
-2.19149e-09
0
-2.08394e-07
-6.18739e-09
-2.57844e-06
-1.16521e-07
-1.8108e-05
-1.41441e-06
-2.77093e-05
-1.09416e-05
-2.7419e-05
-1.7592e-05
-2.21912e-05
-1.61963e-05
-1.5449e-05
-5.6226e-06
-2.70395e-14
3.59951e-14
-2.32097e-13
9.97165e-15
-2.79485e-13
2.67676e-14
-1.91529e-13
2.56667e-14
-1.08193e-13
1.41542e-14
-6.14247e-14
8.29038e-15
-4.25187e-14
6.06599e-15
-4.6506e-14
5.00748e-15
-5.35823e-14
6.80508e-15
-9.53064e-14
2.01694e-14
-7.72193e-13
9.40491e-14
-2.34129e-12
2.51674e-13
-1.63216e-12
2.46046e-13
-3.8342e-12
6.43324e-13
-2.45665e-11
9.11132e-13
-8.98358e-13
0
-6.12664e-09
-4.47458e-11
-1.199e-07
-2.15862e-09
-1.49059e-06
-4.23055e-08
-1.26976e-05
-4.04248e-07
-2.21369e-05
-5.5072e-06
-2.3871e-05
-1.26847e-05
-1.55643e-05
-2.09588e-05
1.59408e-15
3.01778e-15
-4.10596e-15
2.44703e-15
-6.11067e-15
3.44415e-15
-4.57125e-15
2.84789e-15
-2.7787e-15
5.40737e-16
-1.71722e-15
7.69909e-16
-1.30281e-15
1.43779e-15
-1.52853e-15
1.28127e-15
-1.89436e-15
1.21371e-15
-3.5473e-15
3.56056e-15
-1.99648e-14
7.06398e-15
-3.43284e-14
2.39847e-14
-1.09994e-14
1.46291e-14
-4.38729e-14
2.4251e-15
-7.49827e-13
3.49052e-14
-1.2496e-12
0
-2.75802e-11
3.64596e-15
-2.18672e-09
-1.94074e-14
-4.44229e-08
-1.03177e-12
-4.48636e-07
-1.95365e-11
-5.9562e-06
-3.20125e-10
-1.34579e-05
-3.82482e-09
-3.71901e-08
-1.85869e-05
2.92584e-16
6.86376e-16
1.26351e-16
1.15657e-15
1.68407e-16
1.19616e-15
8.90002e-17
1.05286e-15
4.34208e-17
7.92858e-16
2.19325e-17
6.15565e-16
9.75145e-18
4.65544e-16
7.60645e-18
2.54544e-16
2.95532e-17
1.55531e-16
1.0424e-16
2.70316e-15
1.09135e-15
1.38333e-15
8.1125e-15
6.04597e-15
1.53105e-14
2.87098e-15
1.04444e-14
3.31497e-15
2.548e-14
2.4367e-15
2.55941e-14
8.64528e-16
-6.45784e-15
4.55335e-14
-1.99383e-14
-1.77679e-15
-1.03111e-12
-1.788e-14
-2.10919e-11
-1.81918e-14
-3.40453e-10
-3.57931e-14
-4.16345e-09
-1.67045e-12
-2.77272e-11
-4.13213e-08
3.71199e-17
2.89828e-16
4.77134e-17
3.72961e-16
7.26e-17
3.51739e-16
6.22366e-17
3.18501e-16
4.92852e-17
2.61531e-16
3.77732e-17
1.61596e-16
2.36414e-17
8.79472e-17
1.01948e-17
1.6366e-17
1.80077e-17
1.23277e-16
6.81465e-18
4.19418e-17
3.51648e-16
9.4749e-16
1.20007e-15
5.19755e-15
2.43902e-15
1.1272e-15
1.96512e-15
6.65183e-16
3.87666e-15
1.29615e-15
5.25785e-15
8.71515e-16
8.64629e-15
2.7067e-16
1.33582e-14
1.79892e-14
-1.941e-15
-1.58228e-15
-7.19402e-15
-1.19309e-14
-4.01235e-14
-1.68234e-14
-1.70192e-12
-8.98461e-15
-1.31914e-14
-2.94158e-11
6.85654e-18
4.91625e-17
1.34186e-17
5.95267e-17
1.91424e-17
5.54513e-17
1.89792e-17
4.7622e-17
1.48915e-17
3.29978e-17
1.04047e-17
2.0541e-17
4.45253e-18
7.81869e-18
2.52173e-18
1.07259e-17
-6.96188e-17
-2.54241e-16
-4.10942e-16
-1.26426e-15
-7.45947e-16
-1.90554e-15
-8.87534e-17
-1.87421e-16
2.28717e-16
7.33391e-16
2.19028e-16
4.84096e-16
9.42049e-16
4.1317e-16
9.4222e-16
3.44525e-16
7.83196e-16
2.81247e-16
7.3983e-15
5.0515e-16
5.78979e-15
1.08798e-15
4.42714e-15
-5.97122e-16
-5.88509e-17
-4.71096e-15
-9.81131e-17
-8.6377e-15
-1.33531e-14
2.3947e-17
9.00179e-19
3.75242e-18
2.02226e-18
4.76113e-18
2.84578e-18
4.55746e-18
2.85737e-18
3.75359e-18
2.2807e-18
2.63872e-18
1.52852e-18
1.69799e-18
1.10234e-18
3.31211e-19
-9.60148e-18
-2.92552e-17
-1.34376e-16
-3.53363e-16
-6.03301e-16
-1.35965e-15
-1.28103e-15
-2.45487e-15
-1.27297e-15
-2.06298e-15
-5.74472e-16
-7.85176e-16
-2.56085e-17
-2.94392e-17
1.32883e-16
1.11899e-16
2.57914e-16
1.69713e-16
6.00655e-16
1.56073e-16
1.02813e-15
1.08149e-16
2.30317e-15
1.13164e-16
2.75832e-15
-2.91143e-17
3.33314e-15
-2.78833e-16
3.46855e-15
-4.10311e-16
-1.90307e-15
6.0602e-16
7.38323e-20
1.9463e-19
1.81346e-19
2.6494e-19
2.67265e-19
2.6722e-19
2.73574e-19
2.27992e-19
2.28386e-19
1.70026e-19
1.40648e-19
1.02239e-19
7.99825e-20
2.27603e-19
-1.43114e-17
-3.49778e-17
-1.30403e-16
-2.75082e-16
-5.2217e-16
-9.49975e-16
-1.15577e-15
-1.8068e-15
-1.47094e-15
-1.96708e-15
-1.14303e-15
-1.30134e-15
-5.78865e-16
-5.57523e-16
-2.14165e-16
-1.72632e-16
-5.67897e-18
-3.75617e-18
1.71623e-16
6.06002e-17
3.17264e-16
2.83778e-17
4.23855e-16
2.19448e-17
5.06759e-16
7.41807e-18
5.64311e-16
-3.86255e-17
6.49286e-16
-9.19972e-17
-1.47307e-16
7.33153e-16
4.31481e-21
7.51747e-21
1.21393e-20
1.14912e-20
1.91518e-20
1.25933e-20
2.0501e-20
1.16417e-20
1.76037e-20
9.02177e-21
2.2204e-20
4.67922e-21
-2.03535e-19
-4.96371e-19
-1.17341e-17
-2.44454e-17
-8.89392e-17
-1.59634e-16
-3.32339e-16
-5.15416e-16
-7.4624e-16
-9.99168e-16
-1.06169e-15
-1.22333e-15
-1.01845e-15
-1.00472e-15
-7.09149e-16
-5.94359e-16
-3.91629e-16
-2.75459e-16
-1.65933e-16
-9.59637e-17
-2.4515e-17
-1.12498e-17
3.3123e-17
5.24845e-18
9.03741e-17
1.38567e-17
1.53757e-16
3.15424e-18
1.57281e-16
-2.69517e-18
1.36317e-16
-1.03776e-17
-1.99954e-17
1.1414e-16
1.63667e-22
5.26192e-21
5.28104e-22
7.88315e-21
9.02045e-22
6.0645e-22
1.11899e-21
4.5173e-22
9.533e-22
3.70124e-22
1.22401e-21
3.17498e-21
-2.20376e-19
-4.77419e-19
-6.93231e-18
-1.27691e-17
-4.70765e-17
-7.45159e-17
-1.67735e-16
-2.29339e-16
-3.78032e-16
-4.46952e-16
-5.71703e-16
-5.83284e-16
-6.15591e-16
-5.39337e-16
-5.01798e-16
-3.74465e-16
-3.29163e-16
-2.06535e-16
-1.78088e-16
-9.2035e-17
-7.48324e-17
-3.07822e-17
-2.21208e-17
-6.81547e-18
-7.99937e-19
-1.62959e-19
1.74341e-17
1.14274e-18
2.47833e-17
-2.0357e-20
2.64127e-17
-4.23694e-19
-1.31256e-18
2.77196e-17
-1.07771e-22
-1.8011e-21
-8.22302e-23
-6.83101e-22
3.78152e-23
3.47117e-22
5.11905e-23
3.33881e-22
8.76985e-23
2.57111e-22
-2.04096e-23
-4.83472e-23
-1.34974e-19
-2.6574e-19
-3.2019e-18
-5.33803e-18
-2.01713e-17
-2.8813e-17
-6.94005e-17
-8.54935e-17
-1.56201e-16
-1.66334e-16
-2.44674e-16
-2.2495e-16
-2.82383e-16
-2.23136e-16
-2.52841e-16
-1.70305e-16
-1.83858e-16
-1.04175e-16
-1.11867e-16
-5.22216e-17
-5.72265e-17
-2.12849e-17
-2.44163e-17
-6.83161e-18
-8.12527e-18
-1.52887e-18
-1.38529e-18
-1.311e-19
8.26643e-19
1.91642e-21
1.92505e-18
1.30806e-20
-1.01194e-20
2.77372e-18
-1.64586e-22
-2.58838e-21
-2.63767e-22
-2.05688e-21
-1.9071e-22
-9.38424e-22
-1.38485e-22
-4.89581e-22
-1.26969e-22
-3.46074e-22
-2.69717e-22
-5.91733e-22
-6.03367e-20
-1.09591e-19
-1.19897e-18
-1.83723e-18
-7.14299e-18
-9.34859e-18
-2.39134e-17
-2.69252e-17
-5.35947e-17
-5.2073e-17
-8.56263e-17
-7.1743e-17
-1.0309e-16
-7.41662e-17
-9.78802e-17
-5.99633e-17
-7.60185e-17
-3.91222e-17
-4.96186e-17
-2.10025e-17
-2.7659e-17
-9.31139e-18
-1.3272e-17
-3.3588e-18
-5.43381e-18
-9.2917e-19
-1.8846e-18
-1.67599e-19
-5.47487e-19
-3.0101e-21
-1.20284e-19
7.12038e-21
3.89793e-21
6.62022e-20
-1.0012e-22
-1.48665e-21
-1.75659e-22
-1.29241e-21
-1.47095e-22
-6.81831e-22
-1.19008e-22
-3.95519e-22
-1.10804e-22
-2.83202e-22
-1.84995e-22
-3.79452e-22
-2.12119e-20
-3.59023e-20
-3.71001e-19
-5.27952e-19
-2.11351e-18
-2.56021e-18
-6.91406e-18
-7.18298e-18
-1.5393e-17
-1.37607e-17
-2.48264e-17
-1.90885e-17
-3.06283e-17
-2.01679e-17
-3.01369e-17
-1.68493e-17
-2.43866e-17
-1.14147e-17
-1.66086e-17
-6.36704e-18
-9.68087e-18
-2.93633e-18
-4.88763e-18
-1.10742e-18
-2.1493e-18
-3.26729e-19
-8.29803e-19
-6.53156e-20
-2.83995e-19
-1.71513e-21
-8.65504e-20
1.83811e-21
1.10599e-21
-2.28555e-20
-4.22721e-23
-5.93976e-22
-7.70326e-23
-5.36596e-22
-6.7336e-23
-2.95339e-22
-5.61459e-23
-1.7635e-22
-5.22088e-23
-1.25877e-22
-7.9264e-23
-1.52993e-22
-6.06371e-21
-9.62934e-21
-9.59199e-20
-1.27643e-19
-5.2568e-19
-5.93342e-19
-1.68306e-18
-1.62318e-18
-3.7118e-18
-3.0686e-18
-5.99523e-18
-4.24604e-18
-7.48027e-18
-4.51773e-18
-7.50027e-18
-3.82755e-18
-6.20665e-18
-2.63638e-18
-4.32214e-18
-1.49273e-18
-2.57121e-18
-6.95905e-19
-1.32314e-18
-2.63945e-19
-5.94624e-19
-7.79038e-20
-2.35586e-19
-1.52401e-20
-8.30442e-20
-2.85672e-23
-2.67129e-20
3.4333e-22
1.97353e-22
-7.83624e-21
-1.39774e-23
-1.86232e-22
-2.5885e-23
-1.71169e-22
-2.28818e-23
-9.52857e-23
-1.91841e-23
-5.71708e-23
-1.76684e-23
-4.03591e-23
-2.52108e-23
-4.60024e-23
-1.43516e-21
-2.14848e-21
-2.08608e-20
-2.60801e-20
-1.10274e-19
-1.16478e-19
-3.45336e-19
-3.10313e-19
-7.51679e-19
-5.76222e-19
-1.20707e-18
-7.88492e-19
-1.50667e-18
-8.34231e-19
-1.51839e-18
-7.05354e-19
-1.2651e-18
-4.84925e-19
-8.85646e-19
-2.72938e-19
-5.27697e-19
-1.25489e-19
-2.70785e-19
-4.63614e-20
-1.20911e-19
-1.30285e-20
-4.74259e-20
-2.23513e-21
-1.64683e-20
2.59161e-23
-5.29282e-21
4.94275e-23
2.49328e-23
-1.5748e-21
-3.8046e-24
-4.81873e-23
-7.05759e-24
-4.44155e-23
-6.19855e-24
-2.45786e-23
-5.15259e-24
-1.46158e-23
-4.66765e-24
-1.01357e-23
-6.3267e-24
-1.09514e-23
-2.84302e-22
-4.02583e-22
-3.83235e-21
-4.51552e-21
-1.95431e-20
-1.93699e-20
-5.97179e-20
-5.00953e-20
-1.27682e-19
-9.08333e-20
-2.02333e-19
-1.21816e-19
-2.50096e-19
-1.26596e-19
-2.5015e-19
-1.05194e-19
-2.06841e-19
-7.08811e-20
-1.43265e-19
-3.88184e-20
-8.40136e-20
-1.71467e-20
-4.21558e-20
-5.9548e-21
-1.82793e-20
-1.4979e-21
-6.911e-21
-1.79901e-22
-2.30061e-21
6.37957e-24
-7.20715e-22
5.36346e-24
2.05403e-24
-2.08077e-22
-8.74743e-25
-1.05665e-23
-1.60699e-24
-9.65194e-24
-1.3847e-24
-5.24335e-24
-1.12942e-24
-3.0584e-24
-9.99773e-25
-2.06986e-24
-1.29106e-24
-2.12602e-24
-4.74637e-23
-6.37408e-23
-5.96247e-22
-6.63591e-22
-2.92786e-21
-2.72739e-21
-8.69488e-21
-6.8138e-21
-1.81511e-20
-1.19756e-20
-2.81509e-20
-1.55815e-20
-3.40952e-20
-1.56978e-20
-3.34168e-20
-1.26105e-20
-2.70189e-20
-8.16285e-21
-1.82093e-20
-4.24318e-21
-1.03152e-20
-1.74272e-21
-4.95554e-21
-5.40868e-22
-2.03639e-21
-1.0841e-22
-7.21215e-22
-8.83608e-25
-2.26692e-22
7.71846e-25
-6.78908e-23
4.14891e-25
-1.82625e-26
-1.67169e-23
-1.72441e-25
-1.99487e-24
-3.10691e-25
-1.78686e-24
-2.6002e-25
-9.43221e-25
-2.06297e-25
-5.34905e-25
-1.77309e-25
-3.50982e-25
-2.18001e-25
-3.42401e-25
-6.70799e-24
-8.56255e-24
-7.86761e-23
-8.28508e-23
-3.70744e-22
-3.24894e-22
-1.06416e-21
-7.78901e-22
-2.15301e-21
-1.31498e-21
-3.23699e-21
-1.64027e-21
-3.7966e-21
-1.57788e-21
-3.59503e-21
-1.2022e-21
-2.79547e-21
-7.29577e-22
-1.79815e-21
-3.485e-22
-9.62238e-22
-1.26848e-22
-4.31101e-22
-3.20665e-23
-1.62628e-22
-3.44821e-24
-5.16638e-23
7.52581e-26
-1.53617e-23
5.34713e-26
-4.33375e-24
2.03133e-26
-1.55418e-25
2.77086e-24
-2.94228e-26
-3.27551e-25
-5.15342e-26
-2.84909e-25
-4.15353e-26
-1.44854e-25
-3.18068e-26
-7.9231e-26
-2.63755e-26
-5.00715e-26
-3.07943e-26
-4.62564e-26
-8.04879e-25
-9.78734e-25
-8.81023e-24
-8.79225e-24
-3.96481e-23
-3.27057e-23
-1.09239e-22
-7.46184e-23
-2.12288e-22
-1.19681e-22
-3.05948e-22
-1.41088e-22
-3.42745e-22
-1.27229e-22
-3.08364e-22
-8.97596e-23
-2.26007e-22
-4.94396e-23
-1.3542e-22
-2.06891e-23
-6.64504e-23
-6.1263e-24
-2.67415e-23
-9.74495e-25
-8.79993e-24
4.77719e-27
-2.49875e-24
5.1914e-27
-6.87103e-25
2.17031e-27
-1.71002e-25
-4.53444e-28
-1.54179e-25
1.92911e-24
-4.37259e-27
-4.70962e-26
-7.3837e-27
-3.94177e-26
-5.68835e-27
-1.91521e-26
-4.17456e-27
-1.00288e-26
-3.3189e-27
-6.06378e-27
-3.66541e-27
-5.28192e-27
-8.21431e-26
-9.5395e-26
-8.37269e-25
-7.93204e-25
-3.57627e-24
-2.77843e-24
-9.3792e-24
-5.97179e-24
-1.73211e-23
-8.97884e-24
-2.36093e-23
-9.82949e-24
-2.48445e-23
-8.1181e-24
-2.08015e-23
-5.13624e-24
-1.40002e-23
-2.44865e-24
-7.55819e-24
-8.26672e-25
-3.25414e-24
-1.60973e-25
-1.1051e-24
1.54847e-28
-2.96419e-25
3.91137e-28
-7.76657e-26
1.64697e-28
-1.94892e-26
4.09295e-29
2.44251e-26
-1.50669e-27
-1.80086e-25
1.5365e-24
-5.68428e-28
-5.95851e-27
-9.18099e-28
-4.75746e-27
-6.71508e-28
-2.1935e-27
-4.69121e-28
-1.09193e-27
-3.55327e-28
-6.27462e-28
-3.69458e-28
-5.12689e-28
-7.13819e-27
-7.94206e-27
-6.74969e-26
-6.0837e-26
-2.7161e-25
-1.98892e-25
-6.71333e-25
-3.97852e-25
-1.16318e-24
-5.51706e-25
-1.4752e-24
-5.48678e-25
-1.42817e-24
-4.02497e-25
-1.08314e-24
-2.18155e-25
-6.45751e-25
-8.32198e-26
-2.98771e-25
-1.88171e-26
-1.04712e-25
-3.10447e-28
-2.64539e-26
2.33509e-29
-6.43561e-27
9.54135e-30
-1.50228e-27
2.71848e-30
-2.69971e-28
-2.14387e-29
2.42019e-26
-3.36997e-27
-2.73634e-25
1.67184e-24
-6.48293e-29
-6.6578e-28
-9.93954e-29
-5.03017e-28
-6.85918e-29
-2.1868e-28
-4.53249e-29
-1.02802e-28
-3.25005e-29
-5.57691e-29
-3.16457e-29
-4.24955e-29
-5.2851e-28
-5.65706e-28
-4.61237e-27
-3.96723e-27
-1.73328e-26
-1.19784e-26
-3.99041e-26
-2.19783e-26
-6.3879e-26
-2.75535e-26
-7.38787e-26
-2.42011e-26
-6.40608e-26
-1.51154e-26
-4.24142e-26
-6.53168e-27
-2.12298e-26
-1.6985e-27
-7.7323e-27
-9.93055e-29
-1.86991e-27
1.12119e-30
-4.06986e-28
4.41775e-31
-8.53226e-29
1.17142e-31
-1.70391e-29
-1.40306e-33
2.27107e-28
-3.66084e-29
3.33177e-26
-5.25127e-27
-2.81382e-25
1.90142e-24
-6.49933e-30
-6.59057e-29
-9.3911e-30
-4.67639e-29
-6.07953e-30
-1.90585e-29
-3.77662e-30
-8.40768e-30
-2.5475e-30
-4.27739e-30
-2.30942e-30
-3.02035e-30
-3.33533e-29
-3.45377e-29
-2.66936e-28
-2.20039e-28
-9.2726e-28
-6.0606e-28
-1.96114e-27
-1.00242e-27
-2.8472e-27
-1.10827e-27
-2.92785e-27
-8.28192e-28
-2.19421e-27
-4.13748e-28
-1.20225e-27
-1.24992e-28
-4.62392e-28
-1.26936e-29
-1.10546e-28
4.33475e-32
-2.07725e-29
1.72721e-32
-3.81742e-30
4.18038e-33
-6.8654e-31
8.36165e-34
2.18939e-31
-1.60891e-32
2.8382e-28
-3.7377e-29
3.61463e-26
-4.48131e-27
-1.6349e-25
1.38354e-24
-5.7341e-31
-5.79789e-30
-7.75635e-31
-3.83671e-30
-4.68572e-31
-1.45823e-30
-2.72047e-31
-6.00094e-31
-1.71546e-31
-2.84416e-31
-1.43898e-31
-1.84856e-31
-1.79482e-30
-1.81165e-30
-1.30732e-29
-1.03898e-29
-4.14876e-29
-2.5732e-29
-7.93074e-29
-3.75728e-29
-1.02082e-28
-3.54997e-29
-9.03485e-29
-2.1436e-29
-5.56907e-29
-7.7356e-30
-2.32179e-29
-1.16938e-30
-5.75295e-30
1.2628e-33
-9.13964e-31
6.08904e-34
-1.45634e-31
1.36873e-34
-2.28927e-32
2.42955e-35
-3.49777e-33
3.75276e-36
1.14134e-31
-6.20871e-33
1.84029e-28
-1.64378e-29
1.82384e-26
-1.71219e-27
-5.86816e-26
5.31347e-25
-4.45423e-32
-4.54943e-31
-5.60658e-32
-2.78958e-31
-3.14597e-32
-9.84167e-32
-1.69781e-32
-3.75681e-32
-9.94655e-33
-1.64792e-32
-7.67109e-33
-9.78916e-33
-8.24137e-32
-8.1914e-32
-5.41539e-31
-4.18395e-31
-1.54899e-30
-9.16305e-31
-2.62529e-30
-1.15167e-30
-2.91315e-30
-8.92799e-31
-2.12569e-30
-4.03894e-31
-1.00195e-30
-8.60959e-32
-2.73501e-31
1.44493e-35
-3.71074e-32
2.08865e-35
-5.19584e-33
4.44655e-36
-7.10343e-34
6.95284e-37
-9.32965e-35
9.39971e-38
-1.17356e-35
1.05355e-38
1.90066e-32
-4.20034e-34
4.90328e-29
-2.60915e-30
4.84264e-27
-3.90038e-28
-2.37974e-26
1.55377e-25
-3.04642e-33
-3.19917e-32
-3.55004e-33
-1.80664e-32
-1.84298e-33
-5.89161e-33
-9.19992e-34
-2.07507e-33
-4.97791e-34
-8.3699e-34
-3.50684e-34
-4.51115e-34
-3.23316e-33
-3.20716e-33
-1.89754e-32
-1.4414e-32
-4.81712e-32
-2.7379e-32
-7.07521e-32
-2.87218e-32
-6.53435e-32
-1.73036e-32
-3.70635e-32
-5.19014e-33
-1.18909e-32
-3.35018e-34
-1.55375e-33
6.66665e-37
-1.9405e-34
1.44254e-37
-2.2512e-35
2.05333e-38
-2.48966e-36
2.4579e-39
-2.66586e-37
2.62567e-40
-2.52853e-38
-7.14591e-41
9.19301e-34
-3.27588e-37
5.56949e-30
-1.67211e-31
8.71201e-28
-9.22307e-29
-1.27837e-26
5.5834e-26
-1.834e-34
-2.02898e-33
-1.97104e-34
-1.04897e-33
-9.43887e-35
-3.14954e-34
-4.33989e-35
-1.01837e-34
-2.15681e-35
-3.75333e-35
-1.37891e-35
-1.8219e-35
-1.0861e-34
-1.09412e-34
-5.63024e-34
-4.26895e-34
-1.24643e-33
-6.87842e-34
-1.54398e-33
-5.79951e-34
-1.13476e-33
-2.51822e-34
-4.59914e-34
-3.94594e-35
-8.10432e-35
1.37148e-38
-7.83244e-36
4.8417e-39
-7.47075e-37
6.73852e-40
-7.02546e-38
7.1559e-41
-6.41976e-39
6.57428e-42
-5.65436e-40
5.31485e-43
8.42315e-40
-3.07356e-41
5.66434e-37
-1.86976e-38
2.70725e-31
-2.79231e-33
1.68425e-28
-2.28309e-29
-4.8198e-27
2.42526e-26
-9.72055e-36
-1.17041e-34
-9.61238e-36
-5.50435e-35
-4.23839e-36
-1.51568e-35
-1.7889e-36
-4.47752e-36
-8.12404e-37
-1.49874e-36
-4.68333e-37
-6.50451e-37
-3.13559e-36
-3.27942e-36
-1.41818e-35
-1.0949e-35
-2.68398e-35
-1.45955e-35
-2.71459e-35
-9.44267e-36
-1.49799e-35
-2.64485e-36
-3.81638e-36
-9.569e-38
-3.19628e-37
1.7445e-40
-2.77936e-38
2.4416e-41
-2.28173e-39
2.33132e-42
-1.7564e-40
1.87922e-43
-1.28763e-41
1.35054e-44
-8.79998e-43
3.12697e-46
5.24204e-41
-1.30815e-42
2.62702e-38
-1.30228e-39
3.71143e-33
-1.89156e-34
3.21073e-29
-3.36714e-30
-7.94443e-28
6.47701e-27
-4.54361e-37
-6.20614e-36
-4.13239e-37
-2.63552e-36
-1.67685e-37
-6.62712e-37
-6.48032e-38
-1.78043e-37
-2.6767e-38
-5.38202e-38
-1.38247e-38
-2.07436e-38
-7.82477e-38
-8.72954e-38
-3.04686e-37
-2.45782e-37
-4.82092e-37
-2.63823e-37
-3.83096e-37
-1.23788e-37
-1.47023e-37
-1.8677e-38
-1.90201e-38
3.54822e-42