/*--------------------------------*- C++ -*----------------------------------*\
  =========                 |
  \\      /  F ield         | OpenFOAM: The Open Source CFD Toolbox
   \\    /   O peration     | Website:  https://openfoam.org
    \\  /    A nd           | Version:  9
     \\/     M anipulation  |
\*---------------------------------------------------------------------------*/
FoamFile
{
    format      ascii;
    class       surfaceScalarField;
    location    "0.93";
    object      phi;
}
// * * * * * * * * * * * * * * * * * * * * * * * * * * * * * * * * * * * * * //

dimensions      [0 3 -1 0 0 0 0];

internalField   nonuniform List<scalar> 
4432
(
-9.47858e-07
9.47858e-07
-3.79956e-06
2.8517e-06
-6.87387e-06
3.07432e-06
-9.92363e-06
3.04976e-06
-1.29251e-05
3.00144e-06
-1.58103e-05
2.88525e-06
-1.85006e-05
2.69026e-06
-2.09139e-05
2.41329e-06
-2.29591e-05
2.04522e-06
-2.45249e-05
1.56579e-06
-2.54709e-05
9.46005e-07
-2.56379e-05
1.67022e-07
-2.49292e-05
-7.08689e-07
-2.34043e-05
-1.52496e-06
-2.11394e-05
-2.26487e-06
-1.82032e-05
-2.93625e-06
-1.45526e-05
-3.65058e-06
-1.01947e-05
-4.35787e-06
-5.17319e-06
-5.0215e-06
1.25414e-07
-5.2986e-06
4.70952e-06
-4.5841e-06
5.45356e-06
-7.44044e-07
5.45356e-06
-2.47303e-06
3.42089e-06
-5.66145e-06
6.04012e-06
-9.001e-06
6.41387e-06
-1.22828e-05
6.33158e-06
-1.54247e-05
6.14328e-06
-1.83306e-05
5.79117e-06
-2.09163e-05
5.276e-06
-2.31018e-05
4.59871e-06
-2.47968e-05
3.74026e-06
-2.59016e-05
2.67063e-06
-2.63379e-05
1.38227e-06
-2.6099e-05
-7.18801e-08
-2.52167e-05
-1.59102e-06
-2.36851e-05
-3.05659e-06
-2.15034e-05
-4.44648e-06
-1.86656e-05
-5.77406e-06
-1.52756e-05
-7.04065e-06
-1.14363e-05
-8.19709e-06
-7.22914e-06
-9.22869e-06
-2.80052e-06
-9.72723e-06
1.05332e-06
-8.43794e-06
3.06182e-06
-2.75255e-06
8.51538e-06
-3.18884e-06
6.60973e-06
-6.31804e-06
9.16932e-06
-9.56707e-06
9.66289e-06
-1.27753e-05
9.53982e-06
-1.58203e-05
9.18826e-06
-1.86147e-05
8.58561e-06
-2.1087e-05
7.74824e-06
-2.31679e-05
6.67964e-06
-2.47781e-05
5.35039e-06
-2.583e-05
3.7226e-06
-2.6253e-05
1.80524e-06
-2.60168e-05
-3.08044e-07
-2.51366e-05
-2.4713e-06
-2.36248e-05
-4.56831e-06
-2.14919e-05
-6.5794e-06
-1.87751e-05
-8.49093e-06
-1.56179e-05
-1.01978e-05
-1.22045e-05
-1.16104e-05
-8.63132e-06
-1.28019e-05
-4.94941e-06
-1.34091e-05
-1.51202e-06
-1.18753e-05
9.10233e-07
-5.17481e-06
9.42562e-06
-3.52222e-06
1.01319e-05
-6.67287e-06
1.232e-05
-9.87164e-06
1.28617e-05
-1.30128e-05
1.2681e-05
-1.59773e-05
1.21528e-05
-1.86902e-05
1.12986e-05
-2.10908e-05
1.01488e-05
-2.31175e-05
8.70632e-06
-2.46964e-05
6.92926e-06
-2.57427e-05
4.76898e-06
-2.61809e-05
2.24338e-06
-2.59695e-05
-5.1941e-07
-2.51108e-05
-3.33006e-06
-2.36244e-05
-6.05468e-06
-2.15258e-05
-8.67802e-06
-1.88727e-05
-1.1144e-05
-1.58709e-05
-1.31997e-05
-1.27907e-05
-1.46906e-05
-9.74191e-06
-1.58507e-05
-6.65634e-06
-1.64947e-05
-3.60839e-06
-1.49233e-05
-9.17105e-07
-7.86609e-06
8.50852e-06
-3.68207e-06
1.3814e-05
-6.8951e-06
1.5533e-05
-1.00715e-05
1.6038e-05
-1.31576e-05
1.57671e-05
-1.60564e-05
1.50515e-05
-1.87069e-05
1.3949e-05
-2.1059e-05
1.2501e-05
-2.30591e-05
1.07064e-05
-2.46377e-05
8.50791e-06
-2.57093e-05
5.8405e-06
-2.61887e-05
2.7228e-06
-2.60216e-05
-6.86517e-07
-2.52006e-05
-4.15104e-06
-2.37441e-05
-7.51112e-06
-2.16597e-05
-1.07624e-05
-1.90111e-05
-1.37926e-05
-1.60752e-05
-1.61356e-05
-1.32366e-05
-1.75293e-05
-1.06271e-05
-1.84601e-05
-8.04836e-06
-1.90735e-05
-5.37898e-06
-1.75926e-05
-2.57477e-06
-1.06703e-05
5.93374e-06
-3.76203e-06
1.75761e-05
-7.03325e-06
1.88042e-05
-1.01921e-05
1.91969e-05
-1.32298e-05
1.88048e-05
-1.60741e-05
1.78958e-05
-1.86779e-05
1.65528e-05
-2.1002e-05
1.4825e-05
-2.30011e-05
1.27055e-05
-2.46108e-05
1.01176e-05
-2.57415e-05
6.97127e-06
-2.62946e-05
3.27585e-06
-2.61987e-05
-7.82443e-07
-2.54364e-05
-4.91334e-06
-2.40203e-05
-8.92716e-06
-2.19332e-05
-1.28496e-05
-1.92237e-05
-1.65021e-05
-1.6252e-05
-1.91073e-05
-1.35583e-05
-2.0223e-05
-1.13229e-05
-2.06955e-05
-9.19808e-06
-2.11983e-05
-6.89396e-06
-1.98968e-05
-4.07638e-06
-1.34879e-05
1.85736e-06
-3.79934e-06
2.13754e-05
-7.10163e-06
2.21065e-05
-1.02348e-05
2.23301e-05
-1.32263e-05
2.17963e-05
-1.60252e-05
2.06948e-05
-1.8597e-05
1.91246e-05
-2.0913e-05
1.7141e-05
-2.29379e-05
1.47304e-05
-2.46125e-05
1.17922e-05
-2.58423e-05
8.201e-06
-2.65096e-05
3.94313e-06
-2.65218e-05
-7.702e-07
-2.58496e-05
-5.58553e-06
-2.4497e-05
-1.02798e-05
-2.24028e-05
-1.49437e-05
-1.9571e-05
-1.93338e-05
-1.64449e-05
-2.22334e-05
-1.37792e-05
-2.28887e-05
-1.18652e-05
-2.26095e-05
-1.01763e-05
-2.28872e-05
-8.21964e-06
-2.18534e-05
-5.29745e-06
-1.64101e-05
-3.44009e-06
-3.79394e-06
2.51693e-05
-7.09765e-06
2.54102e-05
-1.01915e-05
2.54239e-05
-1.31356e-05
2.47404e-05
-1.5897e-05
2.34562e-05
-1.84511e-05
2.16787e-05
-2.07796e-05
1.94695e-05
-2.28584e-05
1.68092e-05
-2.46362e-05
1.35701e-05
-2.60124e-05
9.57717e-06
-2.68455e-05
4.77627e-06
-2.7017e-05
-5.98693e-07
-2.64802e-05
-6.12236e-06
-2.52339e-05
-1.15261e-05
-2.31585e-05
-1.70191e-05
-2.01616e-05
-2.23307e-05
-1.67225e-05
-2.56726e-05
-1.39119e-05
-2.56994e-05
-1.22785e-05
-2.42428e-05
-1.10537e-05
-2.41121e-05
-9.48543e-06
-2.34216e-05
-6.47454e-06
-1.9421e-05
-9.91463e-06
5.37789e-06
-5.37789e-06
-1.28274e-05
1.82053e-05
-3.56799e-05
2.28525e-05
-5.45542e-05
1.88742e-05
-6.42889e-05
9.73472e-06
-6.36026e-05
-6.86294e-07
-5.56829e-05
-7.91973e-06
-4.40808e-05
-1.16021e-05
-3.15876e-05
-1.24932e-05
-2.24098e-05
-9.1778e-06
-1.97617e-05
-2.64808e-06
-2.14953e-05
1.73363e-06
-2.32516e-05
1.75627e-06
-2.23926e-05
-8.59006e-07
-1.77414e-05
-4.65125e-06
-1.03509e-05
-7.39043e-06
-2.18716e-06
-8.16377e-06
4.11993e-06
-6.30709e-06
4.11994e-06
-1.00924e-05
4.71455e-06
-3.06492e-05
3.8762e-05
-4.99022e-05
4.21055e-05
-6.03507e-05
2.93227e-05
-6.32448e-05
1.26288e-05
-6.12932e-05
-2.63784e-06
-5.44081e-05
-1.48049e-05
-4.41127e-05
-2.18975e-05
-3.30118e-05
-2.3594e-05
-2.44549e-05
-1.77347e-05
-2.12418e-05
-5.86117e-06
-2.15019e-05
1.99373e-06
-2.18694e-05
2.12374e-06
-2.03165e-05
-2.41193e-06
-1.6756e-05
-8.2117e-06
-1.16782e-05
-1.24682e-05
-6.1776e-06
-1.36644e-05
-9.03039e-07
-1.15817e-05
3.2169e-06
-1.85697e-05
2.32842e-05
-3.68022e-05
5.69946e-05
-4.9773e-05
5.50763e-05
-5.63396e-05
3.58893e-05
-5.89287e-05
1.52179e-05
-5.74014e-05
-4.16518e-06
-5.14398e-05
-2.07664e-05
-4.27124e-05
-3.06249e-05
-3.29353e-05
-3.33711e-05
-2.45466e-05
-2.61234e-05
-2.05694e-05
-9.83832e-06
-2.02191e-05
1.64339e-06
-1.99086e-05
1.81325e-06
-1.80517e-05
-4.26886e-06
-1.48133e-05
-1.14501e-05
-1.10506e-05
-1.62309e-05
-7.91248e-06
-1.68025e-05
-4.74876e-06
-1.47454e-05
-1.53186e-06
-2.20767e-05
4.53609e-05
-3.72955e-05
7.22134e-05
-4.69732e-05
6.47541e-05
-5.26045e-05
4.15206e-05
-5.48685e-05
1.74819e-05
-5.32312e-05
-5.80251e-06
-4.79959e-05
-2.60017e-05
-4.07036e-05
-3.79172e-05
-3.22676e-05
-4.18071e-05
-2.42564e-05
-3.41346e-05
-1.94719e-05
-1.46228e-05
-1.8346e-05
5.17444e-07
-1.75026e-05
9.69882e-07
-1.53009e-05
-6.47053e-06
-1.20513e-05
-1.46997e-05
-9.22286e-06
-1.90594e-05
-7.9702e-06
-1.80552e-05
-6.34515e-06
-1.63704e-05
-7.87701e-06
-2.26865e-05
6.80475e-05
-3.4899e-05
8.44259e-05
-4.22549e-05
7.21099e-05
-4.75494e-05
4.68151e-05
-5.0527e-05
2.04596e-05
-4.91255e-05
-7.20401e-06
-4.422e-05
-3.09073e-05
-3.79085e-05
-4.42287e-05
-3.07137e-05
-4.9002e-05
-2.35321e-05
-4.13162e-05
-1.86537e-05
-1.95012e-05
-1.64625e-05
-1.67375e-06
-1.47645e-05
-7.28125e-07
-1.20629e-05
-9.17216e-06
-8.84876e-06
-1.79138e-05
-6.9861e-06
-2.0922e-05
-6.90911e-06
-1.81321e-05
-6.64484e-06
-1.66347e-05
-1.45219e-05
-2.19391e-05
8.99866e-05
-3.09631e-05
9.34499e-05
-3.60105e-05
7.71573e-05
-4.10234e-05
5.1828e-05
-4.57196e-05
2.51558e-05
-4.46904e-05
-8.23325e-06
-3.95511e-05
-3.60466e-05
-3.41668e-05
-4.9613e-05
-2.84696e-05
-5.46992e-05
-2.23316e-05
-4.74542e-05
-1.75208e-05
-2.43121e-05
-1.45152e-05
-4.6793e-06
-1.1836e-05
-3.40734e-06
-8.88758e-06
-1.21206e-05
-6.11229e-06
-2.06891e-05
-4.63181e-06
-2.24025e-05
-4.94836e-06
-1.78156e-05
-5.76804e-06
-1.5815e-05
-2.02899e-05
-2.0932e-05
0.000110919
-2.65477e-05
9.90655e-05
-2.91402e-05
7.97499e-05
-3.44491e-05
5.71369e-05
-4.15276e-05
3.22343e-05
-4.0178e-05
-9.5828e-06
-3.32448e-05
-4.29798e-05
-2.87135e-05
-5.41443e-05
-2.54764e-05
-5.79363e-05
-2.06989e-05
-5.22317e-05
-1.53473e-05
-2.96637e-05
-1.15675e-05
-8.45918e-06
-8.54827e-06
-6.42652e-06
-5.74556e-06
-1.49233e-05
-3.32344e-06
-2.31112e-05
-1.57271e-06
-2.41533e-05
-8.71855e-07
-1.85164e-05
-1.88788e-06
-1.4799e-05
-2.21778e-05
-2.061e-05
0.000131529
-2.27462e-05
0.000101202
-2.21489e-05
7.91526e-05
-3.10653e-05
6.60532e-05
-3.63691e-05
3.75382e-05
-3.17569e-05
-1.4195e-05
-2.34435e-05
-5.12932e-05
-2.03424e-05
-5.72455e-05
-2.05343e-05
-5.77443e-05
-1.68575e-05
-5.59084e-05
-9.49038e-06
-3.70308e-05
-5.5696e-06
-1.238e-05
-3.63481e-06
-8.36131e-06
-1.52308e-06
-1.7035e-05
8.05462e-07
-2.54398e-05
4.02471e-06
-2.73725e-05
8.24799e-06
-2.27397e-05
6.75296e-06
-1.33039e-05
-1.54248e-05
-7.82379e-06
3.29931e-05
-1.47796e-05
3.2366e-05
-2.12055e-05
3.18499e-05
-2.72964e-05
3.08313e-05
-3.3067e-05
2.92268e-05
-3.84889e-05
2.71006e-05
-4.35533e-05
2.45339e-05
-4.82547e-05
2.15106e-05
-5.25242e-05
1.78396e-05
-5.61369e-05
1.31898e-05
-5.86902e-05
7.32957e-06
-5.98414e-05
5.5257e-07
-5.93754e-05
-6.58837e-06
-5.73379e-05
-1.35637e-05
-5.32511e-05
-2.11059e-05
-4.63805e-05
-2.92013e-05
-3.73698e-05
-3.46833e-05
-2.97488e-05
-3.33203e-05
-2.71962e-05
-2.67954e-05
-2.6606e-05
-2.47023e-05
-2.56425e-05
-2.43851e-05
-2.05518e-05
-2.45116e-05
-1.93774e-05
-1.1089e-05
-6.89546e-06
3.98886e-05
-1.33404e-05
3.88109e-05
-1.93912e-05
3.79007e-05
-2.52616e-05
3.67017e-05
-3.09734e-05
3.49386e-05
-3.65077e-05
3.26349e-05
-4.19066e-05
2.99328e-05
-4.72692e-05
2.68732e-05
-5.26419e-05
2.32123e-05
-5.78349e-05
1.83828e-05
-6.23231e-05
1.18177e-05
-6.5416e-05
3.64548e-06
-6.69329e-05
-5.07139e-06
-6.68884e-05
-1.36082e-05
-6.46445e-05
-2.33498e-05
-5.67968e-05
-3.70491e-05
-4.33036e-05
-4.81765e-05
-3.16655e-05
-4.49584e-05
-3.03512e-05
-2.81097e-05
-3.41846e-05
-2.0869e-05
-4.28537e-05
-1.57159e-05
-4.75234e-05
-1.9842e-05
-1.21646e-05
-5.47363e-05
-4.82445e-06
4.4713e-05
-1.0327e-05
4.43134e-05
-1.58222e-05
4.33959e-05
-2.14922e-05
4.23717e-05
-2.72848e-05
4.07313e-05
-3.31258e-05
3.84758e-05
-3.90438e-05
3.58508e-05
-4.52029e-05
3.30322e-05
-5.18759e-05
2.98854e-05
-5.91221e-05
2.56289e-05
-6.672e-05
1.94156e-05
-7.42463e-05
1.11718e-05
-8.08462e-05
1.52852e-06
-8.54263e-05
-9.0281e-06
-8.6339e-05
-2.24371e-05
-7.97667e-05
-4.36213e-05
-6.51249e-05
-6.28183e-05
-4.79166e-05
-6.21667e-05
-3.98035e-05
-3.62228e-05
-4.71039e-05
-1.35686e-05
-6.13937e-05
-1.42611e-06
-6.99123e-05
-1.13234e-05
-3.22057e-06
-7.88562e-05
-1.75439e-06
4.64674e-05
-5.6311e-06
4.81901e-05
-1.03202e-05
4.8085e-05
-1.57371e-05
4.77885e-05
-2.17148e-05
4.6709e-05
-2.81336e-05
4.48947e-05
-3.47976e-05
4.25147e-05
-4.16592e-05
3.98938e-05
-4.93666e-05
3.75928e-05
-5.87765e-05
3.50387e-05
-7.13412e-05
3.19804e-05
-9.01144e-05
2.9945e-05
-0.000112641
2.40552e-05
-0.000126799
5.12981e-06
-0.000130226
-1.90106e-05
-0.000122248
-5.1599e-05
-0.000108951
-7.61151e-05
-8.68822e-05
-8.42355e-05
-6.0442e-05
-6.2663e-05
-4.54608e-05
-2.85498e-05
-5.50714e-05
8.18473e-06
-6.83695e-05
1.97466e-06
3.31717e-06
-7.49073e-05
1.34222e-06
4.51252e-05
1.80228e-07
4.93521e-05
-4.02877e-06
5.2294e-05
-9.37501e-06
5.31348e-05
-1.58068e-05
5.31408e-05
-2.34085e-05
5.24964e-05
-3.13721e-05
5.04783e-05
-3.84981e-05
4.70199e-05
-4.55531e-05
4.46478e-05
-5.52884e-05
4.4774e-05
-7.77535e-05
5.44455e-05
-0.000122758
7.49498e-05
-0.000155941
5.72381e-05
-0.000160035
9.22396e-06
-0.000157253
-2.17934e-05
-0.000152119
-5.67323e-05
-0.000145691
-8.25437e-05
-0.000133863
-9.60628e-05
-9.9542e-05
-9.69844e-05
-6.31778e-05
-6.49141e-05
-4.54141e-05
-9.57899e-06
-5.77216e-05
1.42821e-05
6.25141e-06
-6.06559e-05
-6.5572e-06
5.16824e-05
-7.04521e-07
4.34995e-05
-3.78977e-06
5.53793e-05
-8.65704e-06
5.80021e-05
-1.45975e-05
5.90812e-05
-2.27411e-05
6.06401e-05
-3.18648e-05
5.9602e-05
-4.12148e-05
5.63699e-05
-5.31303e-05
5.65633e-05
-7.25745e-05
6.42181e-05
-0.000103549
8.54198e-05
-0.00013471
0.000106111
-0.000147306
6.98341e-05
-0.000156367
1.8285e-05
-0.000161074
-1.70858e-05
-0.000163575
-5.42313e-05
-0.00016329
-8.28293e-05
-0.000159911
-9.94412e-05
-0.000150617
-0.000106279
-0.000113605
-0.000101926
-6.25667e-05
-6.0617e-05
-4.0445e-05
-7.83954e-06
1.48049e-05
-4.89985e-05
-6.86904e-06
5.85515e-05
-1.0248e-05
4.68786e-05
-1.40106e-05
5.9142e-05
-1.97219e-05
6.37134e-05
-2.57645e-05
6.51239e-05
-3.06992e-05
6.55748e-05
-3.58188e-05
6.47216e-05
-4.37108e-05
6.42621e-05
-5.50597e-05
6.79121e-05
-6.99515e-05
7.91098e-05
-8.35527e-05
9.90211e-05
-8.98369e-05
0.000112395
-0.00010472
8.47172e-05
-0.000121658
3.52229e-05
-0.000140712
1.96838e-06
-0.000165942
-2.90018e-05
-0.00016931
-7.94609e-05
-0.000168864
-9.98871e-05
-0.000166155
-0.000108988
-0.000158781
-0.0001093
-0.000119156
-0.000100241
-6.32661e-05
-6.37299e-05
-1.62075e-05
-3.22538e-05
-4.96975e-06
6.35213e-05
-1.36102e-05
5.55191e-05
-1.86127e-05
6.41446e-05
-2.25289e-05
6.76296e-05
-2.61615e-05
6.87565e-05
-2.95364e-05
6.89497e-05
-3.3955e-05
6.91402e-05
-4.06969e-05
7.10038e-05
-4.96683e-05
7.68836e-05
-5.92009e-05
8.86424e-05
-6.50009e-05
0.000104821
-6.6409e-05
0.000113803
-7.88315e-05
9.71398e-05
-0.000105364
6.17553e-05
-0.000132399
2.90039e-05
-0.000152314
-9.08735e-06
-0.000165861
-6.5914e-05
-0.000168145
-9.76028e-05
-0.000166816
-0.000110317
-0.000163224
-0.000112893
-0.000155119
-0.000108347
-0.000121723
-9.7126e-05
-7.70629e-05
-6.08673e-05
-3.08637e-06
6.66077e-05
-1.16e-05
6.40329e-05
-1.56608e-05
6.82055e-05
-1.83089e-05
7.02778e-05
-2.07457e-05
7.11933e-05
-2.36025e-05
7.18065e-05
-2.75151e-05
7.3053e-05
-3.27911e-05
7.62798e-05
-3.89303e-05
8.30228e-05
-4.43289e-05
9.40409e-05
-4.66962e-05
0.000107188
-4.72869e-05
0.000114394
-5.51386e-05
0.000104992
-7.38491e-05
8.04658e-05
-9.49422e-05
5.00971e-05
-0.00011549
1.14607e-05
-0.000143049
-3.8355e-05
-0.000159386
-8.12663e-05
-0.000161143
-0.000108559
-0.000158605
-0.000115431
-0.000153115
-0.000113837
-0.00014392
-0.000106321
-9.27833e-05
-0.0001282
-1.14975e-06
6.77576e-05
-6.65053e-06
6.95338e-05
-9.67127e-06
7.12263e-05
-1.16731e-05
7.22797e-05
-1.35568e-05
7.3077e-05
-1.58202e-05
7.40701e-05
-1.87301e-05
7.59629e-05
-2.2185e-05
7.97347e-05
-2.55169e-05
8.63548e-05
-2.74852e-05
9.60092e-05
-2.70229e-05
0.000106726
-2.56875e-05
0.000113058
-2.88454e-05
0.000108149
-3.91681e-05
9.07885e-05
-5.356e-05
6.44891e-05
-7.20243e-05
2.9925e-05
-9.95188e-05
-1.08606e-05
-0.000128991
-5.17944e-05
-0.000148514
-8.90357e-05
-0.000152529
-0.000111415
-0.000148256
-0.00011811
-0.000142372
-0.000112205
-0.000101363
-0.000133793
2.25658e-07
6.7532e-05
-2.19701e-06
7.19566e-05
-3.80075e-06
7.28302e-05
-4.97052e-06
7.34496e-05
-6.11956e-06
7.4226e-05
-7.48921e-06
7.54398e-05
-9.1123e-06
7.7586e-05
-1.07021e-05
8.13245e-05
-1.15757e-05
8.72284e-05
-1.0797e-05
9.52304e-05
-7.8402e-06
0.000103769
-3.97086e-06
0.000109189
-2.68804e-06
0.000106867
-6.48337e-06
9.45839e-05
-1.53222e-05
7.33279e-05
-2.97747e-05
4.43775e-05
-5.10807e-05
1.04454e-05
-7.88333e-05
-2.40418e-05
-0.000110899
-5.69696e-05
-0.000134618
-8.76968e-05
-0.000145811
-0.000106917
-0.000140359
-0.000117657
-0.000109314
-0.000132408
1.10626e-06
6.64258e-05
9.40799e-07
7.21221e-05
8.73226e-07
7.28978e-05
8.20819e-07
7.3502e-05
6.872e-07
7.43597e-05
4.38302e-07
7.56887e-05
1.99699e-07
7.78246e-05
3.36986e-07
8.11873e-05
1.47e-06
8.60954e-05
4.31588e-06
9.23845e-05
9.18773e-06
9.88974e-05
1.51952e-05
0.000103182
1.99679e-05
0.000102094
2.10542e-05
9.34976e-05
1.71924e-05
7.71898e-05
7.42913e-06
5.41407e-05
-8.7483e-06
2.66229e-05
-3.07295e-05
-2.06062e-06
-5.78896e-05
-2.98095e-05
-9.06542e-05
-5.49321e-05
-0.000123069
-7.4502e-05
-0.000144729
-9.59973e-05
-0.000110611
-0.000143432
1.76508e-06
6.46608e-05
3.05793e-06
7.08293e-05
4.2723e-06
7.16835e-05
5.36754e-06
7.24068e-05
6.35433e-06
7.3373e-05
7.30267e-06
7.47405e-05
8.40766e-06
7.67196e-05
1.0039e-05
7.9556e-05
1.27312e-05
8.34031e-05
1.70368e-05
8.80788e-05
2.31764e-05
9.27578e-05
3.05506e-05
9.58074e-05
3.75308e-05
9.51134e-05
4.20577e-05
8.89706e-05
4.24541e-05
7.67935e-05
3.75105e-05
5.90843e-05
2.67305e-05
3.7403e-05
1.0657e-05
1.40128e-05
-9.93923e-06
-9.2133e-06
-3.38795e-05
-3.09918e-05
-5.70624e-05
-5.13191e-05
-7.92301e-05
-7.38296e-05
-9.51318e-05
-9.47094e-05
2.23442e-06
6.24264e-05
4.43468e-06
6.86292e-05
6.60505e-06
6.95131e-05
8.69261e-06
7.03192e-05
1.07238e-05
7.13418e-05
1.27917e-05
7.26726e-05
1.50918e-05
7.44196e-05
1.79473e-05
7.67006e-05
2.17876e-05
7.95627e-05
2.70345e-05
8.2832e-05
3.38612e-05
8.59311e-05
4.18818e-05
8.77867e-05
4.99918e-05
8.70034e-05
5.6619e-05
8.23434e-05
6.02119e-05
7.32006e-05
5.95506e-05
5.97456e-05
5.40528e-05
4.29007e-05
4.39926e-05
2.40731e-05
3.02022e-05
4.57708e-06
1.39637e-05
-1.47534e-05
-3.24281e-06
-3.41125e-05
-2.20916e-05
-5.49808e-05
-7.60036e-05
-4.12197e-05
2.54109e-06
5.98853e-05
5.30572e-06
6.58646e-05
8.13924e-06
6.66796e-05
1.09872e-05
6.74712e-05
1.38694e-05
6.84598e-05
1.68649e-05
6.9677e-05
2.01323e-05
7.11523e-05
2.39218e-05
7.2911e-05
2.85546e-05
7.49297e-05
3.43389e-05
7.70477e-05
4.14087e-05
7.88613e-05
4.95243e-05
7.96711e-05
5.79545e-05
7.85732e-05
6.55785e-05
7.47194e-05
7.11689e-05
6.76102e-05
7.3673e-05
5.72415e-05
7.24734e-05
4.41003e-05
6.75525e-05
2.89941e-05
5.93988e-05
1.27309e-05
4.87551e-05
-4.10962e-06
3.61945e-05
-2.1552e-05
2.11668e-05
-3.99531e-05
-5.8273e-05
3.43595e-06
2.73055e-06
5.71548e-05
5.84196e-06
6.27531e-05
9.10587e-06
6.34157e-05
1.24787e-05
6.40983e-05
1.59754e-05
6.49631e-05
1.96548e-05
6.59976e-05
2.36291e-05
6.7178e-05
2.80716e-05
6.84683e-05
3.32022e-05
6.97991e-05
3.92293e-05
7.10207e-05
4.62457e-05
7.18449e-05
5.41015e-05
7.18152e-05
6.23207e-05
7.0354e-05
7.01388e-05
6.69013e-05
7.66615e-05
6.10875e-05
8.10623e-05
5.28407e-05
8.27661e-05
4.23965e-05
8.15602e-05
3.01999e-05
7.75563e-05
1.67348e-05
7.10614e-05
2.38531e-06
6.21795e-05
-1.267e-05
5.05377e-05
-2.83113e-05
-4.36575e-05
3.59222e-05
2.84097e-06
5.43139e-05
6.15388e-06
5.94402e-05
9.67388e-06
5.98956e-05
1.33698e-05
6.04025e-05
1.72563e-05
6.10765e-05
2.13766e-05
6.18773e-05
2.5804e-05
6.27507e-05
3.06465e-05
6.36258e-05
3.60383e-05
6.44073e-05
4.21044e-05
6.49547e-05
4.88956e-05
6.50538e-05
5.63092e-05
6.44015e-05
6.40333e-05
6.26298e-05
7.15567e-05
5.9378e-05
7.82541e-05
5.43901e-05
8.35102e-05
4.75846e-05
8.68377e-05
3.90689e-05
8.79479e-05
2.90896e-05
8.67383e-05
1.79443e-05
8.3211e-05
5.91259e-06
7.73006e-05
-6.7597e-06
6.87587e-05
-1.97695e-05
-3.24208e-05
5.7522e-05
2.8996e-06
5.14143e-05
6.31299e-06
5.60268e-05
9.96125e-06
5.62474e-05
1.38222e-05
5.65416e-05
1.79116e-05
5.69872e-05
2.22625e-05
5.75265e-05
2.69216e-05
5.80916e-05
3.19496e-05
5.85979e-05
3.74168e-05
5.89402e-05
4.33833e-05
5.89882e-05
4.98619e-05
5.85751e-05
5.67706e-05
5.74928e-05
6.38966e-05
5.55037e-05
7.0896e-05
5.23786e-05
7.73374e-05
4.79486e-05
8.27743e-05
4.21478e-05
8.68171e-05
3.50261e-05
8.9178e-05
2.67287e-05
8.96686e-05
1.74537e-05
8.81591e-05
7.42195e-06
8.45148e-05
-3.11535e-06
7.85607e-05
-1.38154e-05
-2.41209e-05
7.02609e-05
2.92243e-06
4.84918e-05
6.36539e-06
5.25839e-05
1.00492e-05
5.25636e-05
1.39575e-05
5.26334e-05
1.81065e-05
5.28383e-05
2.25229e-05
5.31102e-05
2.72368e-05
5.33777e-05
3.2279e-05
5.35556e-05
3.76777e-05
5.35416e-05
4.34481e-05
5.32178e-05
4.95733e-05
5.24499e-05
5.5978e-05
5.10881e-05
6.25067e-05
4.8975e-05
6.89209e-05
4.59643e-05
7.49204e-05
4.19492e-05
8.01829e-05
3.68852e-05
8.44069e-05
3.0802e-05
8.73397e-05
2.37959e-05
8.87809e-05
1.60125e-05
8.85663e-05
7.63658e-06
8.65469e-05
-1.09605e-06
8.25906e-05
-9.85916e-06
-1.81983e-05
7.66679e-05
2.91859e-06
4.55732e-05
6.34115e-06
4.91613e-05
9.99387e-06
4.8911e-05
1.38648e-05
4.87625e-05
1.79696e-05
4.87335e-05
2.23306e-05
4.87492e-05
2.69682e-05
4.87402e-05
3.18962e-05
4.86276e-05
3.71184e-05
4.83194e-05
4.26231e-05
4.7713e-05
4.83742e-05
4.66988e-05
5.42981e-05
4.51643e-05
6.02723e-05
4.30006e-05
6.61233e-05
4.01133e-05
7.16362e-05
3.64362e-05
7.65761e-05
3.19452e-05
8.07128e-05
2.66653e-05
8.38379e-05
2.06707e-05
8.57712e-05
1.40792e-05
8.63562e-05
7.05154e-06
8.54579e-05
-1.97798e-07
8.29746e-05
-7.37598e-06
-1.41064e-05
7.88827e-05
2.89419e-06
4.2679e-05
6.26067e-06
4.57949e-05
9.83477e-06
4.53369e-05
1.36088e-05
4.49886e-05
1.75975e-05
4.47447e-05
2.18198e-05
4.45269e-05
2.62903e-05
4.42697e-05
3.10141e-05
4.39037e-05
3.59831e-05
4.33505e-05
4.11722e-05
4.25238e-05
4.6536e-05
4.13349e-05
5.20032e-05
3.9697e-05
5.74717e-05
3.7532e-05
6.2808e-05
3.4777e-05
6.78522e-05
3.1392e-05
7.24295e-05
2.73679e-05
7.63635e-05
2.27312e-05
7.94879e-05
1.75463e-05
8.16517e-05
1.19154e-05
8.27216e-05
5.98161e-06
8.2586e-05
-6.2198e-08
8.11677e-05
-5.95769e-06
-1.13895e-05
7.84507e-05
2.85293e-06
3.98261e-05
6.13742e-06
4.25105e-05
9.59931e-06
4.1875e-05
1.32355e-05
4.13524e-05
1.70605e-05
4.09198e-05
2.109e-05
4.04974e-05
2.53351e-05
4.00246e-05
2.97969e-05
3.94419e-05
3.44626e-05
3.86847e-05
3.93031e-05
3.76833e-05
4.42713e-05
3.63666e-05
4.93004e-05
3.46679e-05
5.43031e-05
3.25293e-05
5.91721e-05
2.9908e-05
6.37834e-05
2.67806e-05
6.80032e-05
2.31481e-05
7.16949e-05
1.90395e-05
7.47267e-05
1.45144e-05
7.69769e-05
9.66523e-06
7.83372e-05
4.62139e-06
7.87209e-05
-4.45919e-07
7.80694e-05
-5.30621e-06
-9.69661e-06
7.63765e-05
2.79616e-06
3.703e-05
5.97949e-06
3.93272e-05
9.30585e-06
3.85487e-05
1.27773e-05
3.78809e-05
1.64084e-05
3.72888e-05
2.02126e-05
3.66933e-05
2.41985e-05
3.60387e-05
2.83653e-05
3.52751e-05
3.26999e-05
3.43502e-05
3.7174e-05
3.32092e-05
4.17436e-05
3.1797e-05
4.63491e-05
3.00624e-05
5.09154e-05
2.79629e-05
5.53544e-05
2.5469e-05
5.9567e-05
2.2568e-05
6.34476e-05
1.92675e-05
6.68887e-05
1.55984e-05
6.97861e-05
1.16171e-05
7.20426e-05
7.40871e-06
7.35731e-05
3.0909e-06
7.43086e-05
-1.1815e-06
7.4212e-05
-5.20962e-06
-8.76624e-06
7.32816e-05
2.72379e-06
3.43062e-05
5.79111e-06
3.626e-05
8.96611e-06
3.53737e-05
1.22562e-05
3.45909e-05
1.5676e-05
3.3869e-05
1.92376e-05
3.31316e-05
2.29478e-05
3.23285e-05
2.68052e-05
3.14176e-05
3.07977e-05
3.03576e-05
3.49004e-05
2.91064e-05
3.90751e-05
2.76223e-05
4.32703e-05
2.58671e-05
4.7423e-05
2.38102e-05
5.146e-05
2.1432e-05
5.53007e-05
1.87272e-05
5.88604e-05
1.57078e-05
6.20532e-05
1.24056e-05
6.47958e-05
8.87443e-06
6.70112e-05
5.19331e-06
6.86324e-05
1.46962e-06
6.9608e-05
-2.15712e-06
6.99121e-05
-5.51367e-06
-8.40382e-06
6.95497e-05
2.63538e-06
3.16709e-05
5.57443e-06
3.33209e-05
8.58749e-06
3.23607e-05
1.16866e-05
3.14918e-05
1.48869e-05
3.06687e-05
1.81992e-05
2.98193e-05
2.16291e-05
2.88987e-05
2.5175e-05
2.78716e-05
2.88267e-05
2.67059e-05
3.25633e-05
2.53697e-05
3.63531e-05
2.38325e-05
4.01534e-05
2.20668e-05
4.3912e-05
2.00515e-05
4.7569e-05
1.7775e-05
5.10587e-05
1.52375e-05
5.43125e-05
1.2454e-05
5.72612e-05
9.45687e-06
5.9838e-05
6.29759e-06
6.19814e-05
3.0498e-06
6.36393e-05
-1.8831e-07
6.47731e-05
-3.29086e-06
6.53653e-05
-6.10584e-06
-8.46357e-06
6.5425e-05
2.53105e-06
2.91399e-05
5.33113e-06
3.05209e-05
8.17513e-06
2.95168e-05
1.10786e-05
2.85884e-05
1.40569e-05
2.76903e-05
1.71201e-05
2.67562e-05
2.02727e-05
2.57461e-05
2.35134e-05
2.46309e-05
2.68336e-05
2.33856e-05
3.02168e-05
2.19866e-05
3.36371e-05
2.04121e-05
3.70604e-05
1.86434e-05
4.04445e-05
1.66673e-05
4.37412e-05
1.44783e-05
4.68974e-05
1.20813e-05
4.98577e-05
9.49371e-06
5.25665e-05
6.74808e-06
5.49701e-05
3.89391e-06
5.70198e-05
1.0001e-06
5.86744e-05
-1.84289e-06
5.99052e-05
-4.52172e-06
6.07006e-05
-6.90126e-06
-8.83443e-06
6.10714e-05
2.4119e-06
2.6728e-05
5.06335e-06
2.78695e-05
7.73336e-06
2.68468e-05
1.04396e-05
2.58823e-05
1.31973e-05
2.49326e-05
1.60157e-05
2.39379e-05
1.88986e-05
2.28632e-05
2.1845e-05
2.16845e-05
2.48481e-05
2.03824e-05
2.78949e-05
1.89398e-05
3.09652e-05
1.73417e-05
3.40321e-05
1.55764e-05
3.70626e-05
1.36367e-05
4.00185e-05
1.15224e-05
4.28576e-05
9.24208e-06
4.5536e-05
6.81532e-06
4.80093e-05
4.2748e-06
5.02348e-05
1.66834e-06
5.2174e-05
-9.39104e-07
5.37948e-05
-3.46374e-06
5.50754e-05
-5.80242e-06
5.60084e-05
-7.83422e-06
-9.43051e-06
5.66044e-05
2.28e-06
2.4448e-05
4.77412e-06
2.53754e-05
7.26655e-06
2.43544e-05
9.77552e-06
2.33733e-05
1.2316e-05
2.23921e-05
1.48962e-05
2.13577e-05
1.75195e-05
2.02398e-05
2.01851e-05
1.90187e-05
2.28881e-05
1.76794e-05
2.56182e-05
1.62096e-05
2.836e-05
1.45998e-05
3.10932e-05
1.28431e-05
3.37922e-05
1.09377e-05
3.64275e-05
8.88707e-06
3.89666e-05
6.70305e-06
4.13749e-05
4.40691e-06
4.36181e-05
2.03165e-06
4.56627e-05
-3.76325e-07
4.74787e-05
-2.75514e-06
4.90416e-05
-5.02665e-06
5.03349e-05
-7.09568e-06
5.13536e-05
-8.85298e-06
-1.01846e-05
5.21077e-05
2.13786e-06
2.23102e-05
4.46712e-06
2.30462e-05
6.77918e-06
2.20423e-05
9.09189e-06
2.10605e-05
1.14194e-05
2.00646e-05
1.37689e-05
1.90081e-05
1.61436e-05
1.7865e-05
1.85431e-05
1.66191e-05
2.09638e-05
1.52587e-05
2.33979e-05
1.37754e-05
2.58341e-05
1.21634e-05
2.82571e-05
1.04201e-05
3.06476e-05
8.54707e-06
3.29835e-05
6.55118e-06
3.52401e-05
4.44646e-06
3.73914e-05
2.25564e-06
3.94111e-05
1.19264e-08
4.1274e-05
-2.23924e-06
4.29576e-05
-4.4387e-06
4.44433e-05
-6.51233e-06
4.57191e-05
-8.37151e-06
4.67821e-05
-9.91604e-06
-1.10435e-05
4.7641e-05
1.98789e-06
2.03223e-05
4.14617e-06
2.08879e-05
6.2757e-06
1.99128e-05
8.39346e-06
1.89427e-05
1.05124e-05
1.79456e-05
1.26392e-05
1.68813e-05
1.47765e-05
1.57276e-05
1.69247e-05
1.44709e-05
1.9081e-05
1.31023e-05
2.124e-05
1.16163e-05
2.33934e-05
1.001e-05
2.55299e-05
8.28366e-06
2.76353e-05
6.44165e-06
2.96933e-05
4.49322e-06
3.16857e-05
2.45403e-06
3.35935e-05
3.4777e-07
3.53977e-05
-1.79228e-06
3.70801e-05
-3.92159e-06
3.86242e-05
-5.98287e-06
4.00172e-05
-7.9053e-06
4.12509e-05
-9.60524e-06
4.23242e-05
-1.09894e-05
-1.1964e-05
4.32448e-05
1.83208e-06
1.84902e-05
3.81459e-06
1.89053e-05
5.76002e-06
1.79672e-05
7.68433e-06
1.70184e-05
9.59937e-06
1.60306e-05
1.15111e-05
1.49695e-05
1.34224e-05
1.38163e-05
1.53337e-05
1.25596e-05
1.72434e-05
1.11926e-05
1.91477e-05
9.71194e-06
2.10406e-05
8.11698e-06
2.29139e-05
6.41038e-06
2.47572e-05
4.59839e-06
2.65585e-05
2.69183e-06
2.83051e-05
7.07389e-07
2.99837e-05
-1.33084e-06
3.15811e-05
-3.38974e-06
3.30851e-05
-5.42558e-06
3.44848e-05
-7.38266e-06
3.57723e-05
-9.19279e-06
3.69431e-05
-1.07761e-05
3.79981e-05
-1.20445e-05
-1.29106e-05
3.89446e-05
1.67167e-06
1.68185e-05
3.47479e-06
1.71022e-05
5.23518e-06
1.62068e-05
6.96788e-06
1.52857e-05
8.68374e-06
1.43147e-05
1.03884e-05
1.32649e-05
1.20846e-05
1.21201e-05
1.37732e-05
1.08709e-05
1.54535e-05
9.51227e-06
1.7123e-05
8.04243e-06
1.87772e-05
6.46276e-06
2.04098e-05
4.77773e-06
2.20132e-05
2.99503e-06
2.35786e-05
1.12633e-06
2.50974e-05
-8.11382e-07
2.65606e-05
-2.79414e-06
2.79601e-05
-4.78933e-06
2.92887e-05
-6.75415e-06
3.05403e-05
-8.63439e-06
3.17115e-05
-1.0364e-05
3.28015e-05
-1.18662e-05
3.38136e-05
-1.30566e-05
-1.38525e-05
3.47555e-05
1.50713e-06
1.53114e-05
3.12821e-06
1.54811e-05
4.70343e-06
1.46315e-05
6.24702e-06
1.37421e-05
7.76905e-06
1.27927e-05
9.2748e-06
1.17591e-05
1.07671e-05
1.06278e-05
1.22472e-05
9.39083e-06
1.37149e-05
8.0445e-06
1.51687e-05
6.58861e-06
1.6605e-05
5.02638e-06
1.80187e-05
3.36406e-06
1.94033e-05
1.61037e-06
2.07525e-05
-2.22928e-07
2.20603e-05
-2.11926e-06
2.33216e-05
-4.05545e-06
2.4532e-05
-5.99979e-06
2.56885e-05
-7.91064e-06
2.67893e-05
-9.73533e-06
2.7835e-05
-1.14098e-05
2.88285e-05
-1.28597e-05
2.97756e-05
-1.40038e-05
-1.47629e-05
3.0686e-05
1.33835e-06
1.3973e-05
2.77571e-06
1.40437e-05
4.16689e-06
1.32403e-05
5.52518e-06
1.23838e-05
6.85979e-06
1.1458e-05
8.17559e-06
1.04433e-05
9.47538e-06
9.32798e-06
1.07607e-05
8.10544e-06
1.20322e-05
6.77296e-06
1.32888e-05
5.33197e-06
1.45274e-05
3.78782e-06
1.57426e-05
2.14886e-06
1.69283e-05
4.24586e-07
1.80794e-05
-1.37404e-06
1.9192e-05
-3.2319e-06
2.02636e-05
-5.12716e-06
2.12933e-05
-7.0295e-06
2.22813e-05
-8.89868e-06
2.32296e-05
-1.06836e-05
2.4142e-05
-1.23223e-05
2.5025e-05
-1.37427e-05
2.58877e-05
-1.48666e-05
-1.5617e-05
2.67418e-05
1.16521e-06
1.28078e-05
2.4187e-06
1.27901e-05
3.62904e-06
1.20299e-05
4.80785e-06
1.12049e-05
5.96302e-06
1.03027e-05
7.09873e-06
9.30748e-06
8.21767e-06
8.20904e-06
9.32186e-06
7.00123e-06
1.04126e-05
5.68218e-06
1.14896e-05
4.25504e-06
1.25493e-05
2.72817e-06
1.3585e-05
1.11311e-06
1.45898e-05
-5.80195e-07
1.55588e-05
-2.34312e-06
1.649e-05
-4.16312e-06
1.73833e-05
-6.02047e-06
1.82402e-05
-7.88647e-06
1.90639e-05
-9.72237e-06
1.9859e-05
-1.14788e-05
2.06322e-05
-1.30956e-05
2.13931e-05
-1.45036e-05
2.21537e-05
-1.56272e-05
-1.6392e-05
2.29286e-05
9.88832e-07
1.1819e-05
2.06094e-06
1.17179e-05
3.09671e-06
1.09941e-05
4.10459e-06
1.0197e-05
5.09021e-06
9.31703e-06
6.0566e-06
8.34109e-06
7.00627e-06
7.25941e-06
7.94191e-06
6.06563e-06
8.86605e-06
4.7581e-06
9.77922e-06
3.34194e-06
1.06772e-05
1.83025e-06
1.15504e-05
2.39981e-07
1.23892e-05
-1.419e-06
1.31893e-05
-3.14326e-06
1.39506e-05
-4.92446e-06
1.46755e-05
-6.74531e-06
1.53676e-05
-8.57859e-06
1.6032e-05
-1.03868e-05
1.66752e-05
-1.2122e-05
1.73059e-05
-1.37264e-05
1.79357e-05
-1.51334e-05
1.85792e-05
-1.62707e-05
-1.70666e-05
1.92539e-05
8.12742e-07
1.10062e-05
1.71038e-06
1.08201e-05
2.58213e-06
1.01224e-05
3.43086e-06
9.34824e-06
4.25873e-06
8.48917e-06
5.06721e-06
7.53267e-06
5.8586e-06
6.4681e-06
6.63657e-06
5.28773e-06
7.40558e-06
3.98917e-06
8.16814e-06
2.57947e-06
8.91896e-06
1.0795e-06
9.64278e-06
-4.83793e-07
1.03261e-05
-2.10233e-06
1.09663e-05
-3.78341e-06
1.15664e-05
-5.52457e-06
1.21315e-05
-7.31042e-06
1.26671e-05
-9.1142e-06
1.31791e-05
-1.08989e-05
1.36748e-05
-1.26177e-05
1.41634e-05
-1.4215e-05
1.46573e-05
-1.56273e-05
1.51727e-05
-1.67861e-05
-1.76229e-05
1.57289e-05
6.43559e-07
1.03625e-05
1.38066e-06
1.0083e-05
2.10431e-06
9.39872e-06
2.80903e-06
8.6435e-06
3.49272e-06
7.8055e-06
4.15512e-06
6.87033e-06
4.79815e-06
5.82511e-06
5.42652e-06
4.65941e-06
6.04766e-06
3.36809e-06
6.6681e-06
1.95909e-06
7.28162e-06
4.66042e-07
7.86302e-06
-1.06517e-06
8.39429e-06
-2.63358e-06