/*--------------------------------*- C++ -*----------------------------------*\
  =========                 |
  \\      /  F ield         | OpenFOAM: The Open Source CFD Toolbox
   \\    /   O peration     | Website:  https://openfoam.org
    \\  /    A nd           | Version:  9
     \\/     M anipulation  |
\*---------------------------------------------------------------------------*/
FoamFile
{
    format      ascii;
    class       volVectorField;
    location    "17.1";
    object      U;
}
// * * * * * * * * * * * * * * * * * * * * * * * * * * * * * * * * * * * * * //

dimensions      [0 1 -1 0 0 0 0];

internalField   nonuniform List<vector> 
918
(
(2.47629 -0.138943 0)
(0.108704 0.722546 0)
(0.172947 1.07618 0)
(2.31834 0.153728 0)
(-0.0593093 1.25168 -1.20953e-19)
(-0.0924034 0.643931 -5.31735e-18)
(0.525722 0.843094 -2.974e-19)
(0.274916 0.153142 -2.98911e-20)
(3.00615 -0.0195619 0)
(-0.00848825 0.476227 0)
(-0.0177394 0.592282 0)
(0.605444 0.00673895 0)
(0.0107054 0.439105 0)
(-0.00288439 0.421692 0)
(0.0136198 0.341344 -1.30679e-18)
(-0.00527968 0.760433 -9.18243e-20)
(0.312785 0.0743406 2.15154e-18)
(0.0789049 0.638868 -2.24715e-19)
(1.52885 0.128626 0)
(-0.0277018 0.693996 0)
(0.195185 0.158069 -1.26675e-18)
(3.08302 -0.397375 0)
(2.92445 -0.505982 0)
(1.86116 -0.181101 0)
(0.511758 0.0400935 0)
(-0.0253636 0.52157 0)
(-0.00135319 0.494038 1.86385e-18)
(-0.0238985 1.42322 0)
(0.0726116 2.92321 0)
(0.168671 1.7657 0)
(-0.0412466 3.12714 0)
(0.0260711 1.61712 9.29975e-20)
(0.0224187 0.677692 0)
(-0.147425 0.775094 -2.03227e-22)
(-0.193914 1.0291 4.42417e-18)
(-0.0415772 1.04471 0)
(0.744514 -0.00601338 0)
(0.16204 0.247801 6.66483e-19)
(0.985754 1.50213 6.55868e-19)
(0.644926 0.778343 -5.18201e-19)
(0.792843 1.5632 6.24999e-20)
(0.413516 0.844797 -3.22817e-19)
(0.553698 0.307302 2.93975e-20)
(0.297539 0.153896 0)
(0.958756 0.563697 0)
(0.534218 0.304742 1.32065e-19)
(0.258683 0.163167 -1.35518e-19)
(0.871576 -0.0554824 0)
(3.02784 -0.00170724 0)
(3.00685 0.0178644 0)
(3.20086 -0.417736 0)
(3.04288 -0.0742144 0)
(3.03116 -0.0388423 0)
(0.0182899 0.908933 -1.14651e-18)
(-0.0541307 0.971517 0)
(0.00262467 0.453655 0)
(-0.0289739 0.97953 0)
(-0.011635 0.481077 0)
(-0.00189702 0.868997 0)
(-0.0525771 1.11525 0)
(-0.0128668 0.543515 0)
(-0.0261151 1.16921 0)
(-0.00645412 0.625925 0)
(0.790225 0.0115868 0)
(1.16983 -0.00159613 0)
(0.618427 0.0123555 0)
(1.12629 0.0175911 0)
(0.570026 0.00866077 0)
(0.225406 0.921982 1.96112e-18)
(0.0985379 1.2081 0)
(0.176302 1.06604 0)
(0.0331901 0.755774 2.20087e-23)
(0.0372233 0.498055 -2.93302e-18)
(0.0194616 0.747943 0)
(0.0059542 0.422033 0)
(-0.000697188 0.73455 4.5213e-24)
(0.000702007 0.414825 0)
(-0.0169278 0.743188 0)
(-0.0129437 0.427991 0)
(0.0499257 0.651419 0)
(0.0488725 0.459548 0)
(0.00824763 0.62263 1.23555e-18)
(0.000865982 0.345066 0)
(-0.0771276 4.67827 0)
(0.00803644 1.44398 9.11624e-20)
(-0.0106202 0.778526 -1.17326e-19)
(0.63698 0.152349 -7.50719e-19)
(0.321974 0.0657322 -7.28453e-19)
(0.645811 0.169987 -2.25406e-18)
(0.317966 0.0956948 -1.45129e-18)
(0.0792584 0.623989 0)
(0.176726 1.30551 1.86593e-19)
(0.178143 0.725234 -2.97723e-19)
(2.06033 0.260939 0)
(1.10705 0.118446 0)
(3.03313 0.103886 0)
(3.10392 0.446058 0)
(2.83919 0.377456 -1.01238e-17)
(2.57811 0.361308 7.76814e-18)
(-0.0715559 1.27811 0)
(-0.0116241 0.630652 0)
(-0.0161182 1.93024 0)
(-0.052194 1.36569 0)
(-0.0491443 0.688838 0)
(0.441638 0.296671 4.01018e-19)
(0.226057 0.163819 0)
(2.29609 -0.266398 0)
(1.32371 -0.119276 0)
(1.07693 0.0126254 0)
(1.01272 0.018739 0)
(0.541242 0.0108116 0)
(1.01889 0.0562497 0)
(0.821871 0.0703896 0)
(0.343869 0.0287127 3.36139e-18)
(-0.00544474 0.451569 1.77525e-18)
(-0.0270519 0.784658 0)
(-0.0473871 0.847603 0)
(-0.0152885 0.460481 0)
(0.00013219 0.839725 1.81743e-18)
(7.2638e-05 0.48753 0)
(-0.00547894 0.845554 -5.59467e-18)
(-0.00488635 0.496761 1.88778e-18)
(0.0495409 3.60431 0)
(0.0367444 4.05685 0)
(-0.0165826 1.39471 -2.05462e-21)
(-0.0140529 1.34647 0)
(-0.00998914 0.732807 0)
(1.41004 0.0348612 0)
(0.760454 0.0154207 0)
(0.709577 0.0142578 0)
(1.41608 -0.0328622 0)
(0.773468 -0.00874922 0)
(0.324174 0.483326 -8.36806e-19)
(0.157721 0.234006 0)
(0.327223 0.512608 9.37908e-20)
(0.16449 0.270213 0)
(1.23255 1.37628 1.67109e-19)
(0.773785 0.735544 -3.9362e-19)
(0.408878 1.4119 0)
(0.602311 1.5226 0)
(0.301122 0.80909 0)
(0.146623 0.356394 -4.43851e-19)
(0.608666 0.281284 0)
(0.314006 0.13481 3.9881e-19)
(1.4194 1.29782 0)
(1.57946 1.16193 0)
(0.870433 0.659873 4.62699e-19)
(1.72736 0.948729 0)
(1.0649 0.436918 2.31353e-20)
(1.47291 0.00812367 0)
(1.50095 -0.0292483 0)
(0.801864 -0.00442256 0)
(1.95041 -0.199785 0)
(1.65079 -0.148187 0)
(1.05214 -0.0889731 0)
(3.06126 0.164851 0)
(3.03105 0.0687848 0)
(3.01022 0.0531577 0)
(0.0347422 1.61693 6.08406e-19)
(0.017525 0.833848 0)
(0.0174116 1.70656 1.07985e-18)
(0.00263908 0.944018 -9.70748e-19)
(0.0641623 1.14614 1.89278e-19)
(0.0474805 0.984936 0)
(0.0396643 0.526594 0)
(-0.0290599 1.00491 0)
(-0.007298 0.51765 0)
(0.0169583 1.6155 -4.42391e-21)
(-0.0187514 0.866939 0)
(-0.0542754 1.58155 -2.25153e-19)
(-0.0165275 0.818978 4.3596e-19)
(-0.0023476 1.0308 0)
(0.00977189 1.04652 0)
(-0.000328023 0.532471 0)
(0.00970418 1.18016 0)
(0.000370439 0.617872 0)
(1.46775 -0.00379698 0)
(0.788878 0.00801174 0)
(1.44015 0.0331196 0)
(0.761611 -0.00057668 0)
(0.675496 0.00532941 0)
(1.2622 0.0166557 0)
(1.2027 0.0472933 0)
(0.659839 0.0155393 0)
(-0.00580059 1.42077 -1.7034e-20)
(0.000184303 1.37708 0)
(0.00482011 0.732923 0)
(0.0017289 0.417221 0)
(0.28604 0.831931 0)
(0.254933 0.401525 -2.87362e-19)
(-0.00207921 0.635566 0)
(-0.00885215 0.367598 0)
(0.00289126 4.35826 0)
(-0.0574384 4.65992 0)
(-0.0280348 4.57544 0)
(-0.0759545 3.33323 2.05442e-20)
(-0.0680174 4.58125 0)
(-0.0594399 4.14876 0)
(0.00418321 0.813902 1.07156e-20)
(0.013492 1.55162 1.649e-19)
(-0.0359133 1.49061 1.20547e-19)
(-0.00789395 0.81961 0)
(0.665235 0.105827 1.15285e-18)
(0.326005 0.044181 -1.12982e-18)
(0.150956 1.14384 0)
(0.101928 0.578548 -2.69909e-19)
(0.11952 1.24462 -8.76284e-19)
(0.0523859 0.693533 8.7178e-19)
(0.809234 0.0240561 0)
(1.55682 0.0476674 0)
(1.70973 0.127646 0)
(0.919865 0.0445183 0)
(0.00710425 1.19347 0)
(0.0250622 1.20336 0)
(0.0040108 0.63434 0)
(0.483739 0.316112 1.20416e-18)
(0.438326 0.310192 -1.3875e-18)
(0.235454 0.164643 0)
(1.93324 0.152444 1.15173e-19)
(1.13489 0.0929317 0)
(1.72283 0.118228 0)
(0.883046 0.0225944 0)
(0.67887 0.0857859 0)
(0.700324 0.0460969 -5.40502e-18)
(0.346996 0.0326053 1.99813e-18)
(0.00912783 0.807253 1.69525e-18)
(0.0022167 0.462498 4.08155e-20)
(-0.0108777 1.40842 -3.58269e-20)
(0.00613616 1.38675 1.36685e-18)
(-0.0149832 0.848955 6.29903e-20)
(-0.0119261 0.524486 -2.5309e-22)
(-0.107514 1.00068 -1.16569e-18)
(-0.0529602 1.3532 8.34571e-19)
(-0.0175323 1.35275 -1.35874e-18)
(1.42244 -0.0171154 0)
(1.44214 0.0202817 0)
(0.769733 -0.000200939 0)
(1.45225 0.0253716 0)
(1.36329 0.0462205 0)
(0.761587 0.0202994 0)
(1.30081 -0.00217248 0)
(1.31881 -0.00586935 0)
(0.695142 -0.00100096 0)
(0.306642 0.476167 -9.16183e-19)
(0.162255 0.243981 0)
(0.158363 0.310639 1.37216e-19)
(0.311944 0.590233 1.12423e-18)
(0.309632 0.552496 -6.65526e-19)
(0.157934 0.283834 1.30045e-18)
(0.280917 0.724075 2.1865e-18)
(0.149581 0.384118 3.94586e-19)
(0.637165 0.213498 1.53721e-18)
(0.627167 0.254092 3.9926e-19)
(0.317052 0.115187 7.49196e-19)
(1.91564 0.711592 -5.99842e-19)
(1.16471 0.334837 -7.01911e-19)
(-0.0360231 1.71174 4.64092e-19)
(-0.0120815 0.929207 0)
(1.60279 0.023738 0)
(1.52116 0.0652603 0)
(0.852464 0.0267697 0)
(-0.00355896 1.38473 0)
(0.0050738 0.729574 2.49714e-18)
(0.00465027 0.731252 0)
(0.00207069 0.415097 -2.44414e-18)
(-0.0102759 1.38627 5.96151e-19)
(-0.0094731 1.4225 0)
(0.338433 0.49079 2.58199e-19)
(0.361919 0.549155 -8.63765e-19)
(0.172751 0.259124 7.81801e-19)
(-0.0256873 0.767402 -1.66425e-18)
(-0.0261337 0.689685 0)
(-0.0154325 0.412886 0)
(0.0293541 1.54268 -1.27404e-20)
(0.030446 1.57225 -3.63618e-19)
(0.0173129 0.819015 -1.55274e-20)
(0.21538 1.05345 8.92193e-19)
(0.120689 0.513438 -5.93711e-19)
(0.011592 1.49706 7.31687e-19)
(0.0559842 1.36294 -8.16837e-19)
(0.0268029 0.767013 3.55466e-20)
(0.00750141 1.36614 -3.81095e-18)
(-0.000224816 1.39326 4.4133e-18)
(0.00377185 0.829775 1.7344e-18)
(-0.0138357 0.805087 -1.72695e-18)
(-0.00431068 0.481397 -1.74004e-18)
(-0.0106535 1.41685 -4.50359e-18)
(-0.0152213 1.40032 4.59287e-18)
(0.28894 0.68051 0)
(0.302288 0.639616 -2.2924e-18)
(0.153228 0.334323 9.9243e-19)
(0.283923 0.803129 1.18794e-18)
(0.140125 0.431382 -1.83293e-18)
(2.05369 0.321508 4.15642e-19)
(2.04705 0.545742 0)
(1.21638 0.220292 -4.01667e-19)
(-0.0746028 1.63829 -4.79528e-21)
(-0.0153825 1.69638 0)
(-0.016342 0.924623 0)
(0.228953 0.953005 -3.23529e-19)
(0.250451 0.874506 -7.08585e-19)
(0.129918 0.467468 1.32792e-18)
(3.16442 -0.442878 0)
(3.34728 -0.414691 1.81207e-18)
(0.0570403 3.51627 0)
(0.0455587 2.84346 0)
(3.15926 0.249909 1.4191e-20)
(3.12355 0.506289 3.71063e-18)
(0.0193996 3.39992 -2.75725e-20)
(0.00809845 2.63477 0)
(-0.0415358 1.19607 1.55664e-18)
(0.191643 1.31905 0)
(3.46485 1.61923 -3.24777e-19)
(3.1743 0.272555 -2.96103e-20)
(3.14834 -0.118724 0)
(3.10047 -0.000412133 3.72342e-22)
(0.0415997 2.57802 0)
(0.156107 3.3215 0)
(-0.058241 2.53885 0)
(-0.0277979 3.49098 3.15618e-19)
(-0.0299044 3.56238 1.99152e-19)
(2.63415 0.0486652 -1.36432e-20)
(3.04696 0.0309602 0)
(3.1569 0.0865077 0)
(-0.0602938 4.61493 0)
(-0.0490972 3.05915 0)
(-0.0756546 2.96049 0)
(0.646738 3.08429 2.66709e-19)
(3.33884 -0.42247 0)
(3.01139 -0.345818 0)
(3.1699 -0.0530469 2.27627e-18)
(3.2927 -0.328708 -2.7409e-18)
(3.1038 -0.125782 0)
(-0.0669482 4.52273 0)
(0.00862431 3.96229 0)
(-0.000266186 4.28394 0)
(-0.0311731 3.12297 0)
(-0.0166893 2.88322 0)
(-0.0337882 2.45708 0)
(2.97405 -0.00323459 0)
(2.85061 0.0485711 -1.8049e-20)
(2.23464 3.0311 -3.23076e-19)
(3.15695 0.0444455 -2.27734e-18)
(3.19037 0.278172 2.76824e-18)
(3.0828 0.117332 0)
(3.39541 0.328903 2.08636e-18)
(3.35696 0.484357 -2.70544e-18)
(3.07112 0.418422 0)
(-0.0575263 3.32048 0)
(0.00366376 3.24554 8.53388e-20)
(-0.0316613 2.54813 -6.04178e-20)
(3.70454 0.553642 2.2645e-18)
(3.46915 0.207742 0)
(-0.151668 1.27133 -2.16817e-18)
(-0.0620401 0.882151 -1.35179e-19)
(-0.0841256 1.3371 2.98871e-18)
(-0.0348252 1.27069 -9.00552e-19)
(-9.15044e-05 1.08876 0)
(-0.0266866 1.2395 6.9556e-19)
(-0.114944 1.38788 2.14876e-18)
(-0.0589636 1.34056 -1.31546e-18)
(-0.076795 1.32063 0)
(1.29302 0.598526 0)
(1.18177 0.684409 0)
(3.5501 2.02246 9.53644e-19)
(3.03986 1.92776 -1.19081e-18)
(3.83333 1.70125 0)
(3.37693 1.15307 0)
(3.34937 0.280467 -3.91502e-18)
(2.89889 0.1731 4.83751e-18)
(3.3514 -0.155517 0)
(2.85471 -0.0761625 0)
(3.43642 0.0429946 0)
(3.59381 0.145024 0)
(3.28683 0.119858 0)
(3.55034 0.298553 0)
(3.40842 0.293043 0)
(3.32755 0.218056 0)
(0.0943312 2.78071 0)
(0.0332858 2.0724 0)
(0.122428 3.0378 0)
(0.0908536 2.19315 0)
(0.212583 3.61461 0)
(0.14001 2.69453 -5.59303e-19)
(0.0503032 3.62981 0)
(0.00981363 3.03444 4.05729e-19)
(-0.0276622 3.21477 -5.16727e-19)
(-0.0631877 2.8069 0)
(-0.025498 2.21152 0)
(-0.0767159 2.91032 0)
(-0.0570079 2.05231 0)
(-0.117518 4.7475 -2.45357e-19)
(-0.0861352 3.93521 2.77177e-19)
(-0.0797344 3.80219 3.0881e-19)
(-0.0548672 3.01482 0)
(-0.11017 3.79467 -4.58292e-19)
(-0.04056 3.20303 -2.94701e-19)
(-0.0920532 4.77909 1.92381e-19)
(-0.103455 4.45925 -3.50343e-19)
(-0.0773236 4.33236 -3.78618e-19)
(3.03201 0.0881484 3.35673e-18)
(2.29011 0.0321143 -4.22744e-18)
(2.89215 0.132614 -3.32566e-18)
(2.21051 0.0733865 4.15395e-18)
(3.36818 0.0274787 0)
(2.64265 -0.00272197 0)
(3.4534 0.0909315 0)
(3.31968 0.0190301 0)
(2.70586 0.0090754 0)
(3.67907 0.238761 0)
(3.43785 0.0954852 0)
(2.86213 0.0562026 0)
(-0.0294025 4.30564 -1.20717e-20)
(-0.0638892 4.64399 0)
(-0.0694943 4.52727 0)
(-0.0794405 3.4808 8.7693e-20)
(-0.0391236 2.75772 -3.46078e-21)
(-0.0896282 4.66593 1.14009e-19)
(-0.102363 4.46479 -1.15208e-19)
(-0.0847943 3.97369 0)
(-0.062787 3.8985 0)
(-0.0281872 4.01467 0)
(-0.0758469 3.28058 0)
(-0.044529 2.32279 0)
(0.941172 3.63839 -6.1007e-19)
(0.913411 2.83147 -1.76955e-19)
(0.434298 2.0707 -2.28731e-19)
(0.254226 2.31896 6.98419e-19)
(1.02482 4.21285 2.63766e-19)
(3.43305 -0.167456 0)
(3.32212 -0.256566 0)
(2.88324 -0.189526 0)
(3.47032 -0.0643758 0)
(3.34581 -0.147881 0)
(3.44893 -0.26104 0)
(3.5195 -0.283619 0)
(3.57948 -0.281155 0)
(3.22429 0.0933089 3.61705e-18)
(2.55533 0.0644843 -4.57373e-18)
(3.0967 0.106488 -3.5605e-18)
(2.50937 0.0566187 4.43023e-18)
(2.23013 3.39938 0)
(1.72749 2.9281 -4.46645e-19)
(2.55966 3.33493 -4.03977e-19)
(2.35581 2.51385 5.36838e-19)
(0.780085 1.22091 2.72554e-18)
(1.44843 0.216555 1.34256e-18)
(3.72088 0.303192 0)
(3.89101 0.571132 -1.8452e-18)
(3.29632 0.243159 -8.2293e-20)
(3.72244 0.439142 0)
(0.239707 1.31374 1.79805e-18)
(-0.015205 1.20257 -2.87933e-18)
(0.0602555 0.770367 1.61629e-18)
(0.277878 0.465851 -7.48625e-19)
(0.18899 1.38613 8.71934e-19)
(0.0515903 1.23814 0)
(0.0584271 1.08751 -1.13351e-18)
(0.194073 1.44468 -4.09653e-18)
(0.332276 1.55964 0)
(0.00864376 1.29018 1.19695e-19)
(-0.00974416 1.45729 -1.34142e-18)
(-0.0410455 1.30284 1.95014e-18)
(-0.0574986 1.41766 0)
(-0.0205223 1.38225 0)
(0.685186 1.05563 0)
(2.46782 2.46025 -1.06643e-18)
(2.63204 2.16166 3.95398e-19)
(2.78371 2.87018 0)
(3.20892 3.05636 -3.94318e-19)
(3.15794 2.40201 2.83628e-20)
(0.807498 0.592051 -1.82377e-18)
(1.5602 0.692741 -1.62509e-20)
(1.23581 0.451869 8.72029e-19)
(1.28024 0.8463 5.95255e-20)
(0.942639 0.636077 -2.37048e-18)
(1.4688 0.715835 0)
(1.99697 1.10189 1.45598e-18)
(2.03863 1.0177 0)
(1.41697 0.792768 0)
(1.06527 0.551094 0)
(3.38129 2.17813 1.00762e-18)
(3.94475 0.758562 -1.8623e-18)
(3.84401 1.21259 0)
(3.52864 0.755414 0)
(1.39387 0.365224 1.3321e-18)
(3.26501 1.8422 -8.51264e-19)
(2.84274 1.65555 1.54623e-18)
(3.7587 1.37536 -1.83457e-18)
(3.09803 0.114698 2.46267e-18)
(3.16861 0.18078 -2.57764e-18)
(2.66192 0.09162 0)
(3.30717 -0.0395811 0)
(3.20132 -0.0843055 -2.3653e-18)
(2.6323 -0.032136 2.34447e-18)
(3.95635 0.0930416 0)
(3.7598 0.145533 0)
(3.6937 0.15533 0)
(3.58832 0.204706 0)
(3.83262 0.0589635 0)
(3.7261 0.0522013 0)
(-0.042778 2.50674 0)
(-0.0394222 2.00888 0)
(0.350248 3.97262 -4.10793e-19)
(0.656043 3.31221 -1.60367e-19)
(0.255007 3.01053 -3.58691e-19)
(0.339911 2.53108 5.74602e-19)
(0.451495 3.99777 0)
(0.464154 4.66672 -5.09474e-19)
(0.378344 4.7241 0)
(0.911305 4.38498 -3.79421e-19)
(0.675872 3.83569 9.69361e-19)
(0.59238 4.64494 4.46488e-19)
(0.734341 4.184 -1.87568e-19)
(0.59545 4.31021 1.50893e-19)
(0.911356 4.64701 -6.63258e-19)
(0.743591 4.65921 0)
(0.855473 4.58553 5.04359e-19)
(-0.0012456 4.57652 -1.81059e-19)
(-0.0232029 3.65901 0)
(0.094919 4.29685 5.49066e-19)
(-0.00936412 4.39881 0)
(-0.00721928 3.47511 -4.51172e-19)
(-0.0175435 2.92728 0)
(-0.109758 4.3055 -2.89323e-19)
(-0.116439 4.67735 0)
(-0.0599319 3.80228 0)
(-0.0474402 3.72797 3.25362e-19)
(-0.0534385 3.89072 1.03537e-20)
(-0.0399976 3.71748 6.25476e-19)
(-0.0436879 2.95569 4.06334e-21)
(-0.124757 4.7065 1.80162e-19)
(-0.114219 4.73898 1.03159e-19)
(-0.0201846 2.63662 0)
(-0.000923471 2.14942 0)
(-0.0514087 4.78571 4.85804e-19)
(-0.0573897 4.30288 4.23602e-19)
(-0.0928322 4.58004 -5.53727e-19)
(0.00734823 4.75281 0)
(-0.0867517 4.52022 -3.08709e-19)
(-0.124697 4.14743 1.27369e-19)
(-0.0914817 4.23434 -4.12728e-20)
(-0.0814393 4.7242 -2.18853e-19)
(-0.0938005 4.25885 -6.8477e-20)
(-0.0914607 4.20626 3.06268e-19)
(2.87176 0.0609213 -2.36229e-18)
(2.85937 0.0495595 2.27175e-18)
(2.33897 0.0344925 0)
(3.51117 0.19154 3.04475e-18)
(2.70487 0.126339 -3.30292e-18)
(2.25564 0.0643376 3.60759e-18)
(3.68378 0.334637 -4.01402e-19)
(3.2097 -0.0486182 0)
(3.17185 -0.0136949 2.23587e-18)
(2.69064 -0.0124369 -2.21824e-18)
(3.87814 0.121706 -1.2517e-19)
(3.77132 0.101467 1.07775e-18)
(4.15937 0.172764 0)
(4.22825 0.180413 -3.74921e-19)
(4.01403 0.144744 0)
(3.69543 0.155049 0)
(4.03235 0.0948833 0)
(3.71195 0.0871602 0)
(4.18472 0.113401 7.85058e-19)
(4.13729 0.0787601 -1.74697e-18)
(4.14043 0.113426 -8.4755e-19)
(4.18622 0.116042 -9.23978e-19)
(4.21531 0.228167 1.77307e-18)
(3.85409 0.188067 0)
(4.06041 0.300794 0)
(-0.0817038 4.56437 -1.36055e-19)
(-0.0386577 4.63108 -1.17067e-20)
(-0.0741989 4.65159 0)
(-0.0620915 4.17546 1.38496e-19)
(-0.0599841 4.19938 2.25724e-20)
(-0.0633525 4.0637 -2.19147e-20)
(-0.0842498 3.51345 2.6082e-19)
(-0.149992 3.98987 -1.4498e-20)
(-0.109869 4.12142 7.46873e-20)
(-0.0779469 3.38447 -1.32131e-19)
(-0.0267982 2.90902 1.58234e-19)
(-0.084014 4.43895 5.1956e-21)
(-0.0984275 4.64145 1.71768e-19)
(1.23783 4.34163 3.4776e-19)
(1.15469 4.51778 7.249e-19)
(1.7263 3.44589 4.31887e-19)
(1.29911 3.53639 1.70106e-19)
(1.27587 2.86779 0)
(0.553236 2.33837 2.75413e-19)
(0.467322 1.75668 3.31441e-19)
(0.347322 2.58893 1.52894e-20)
(0.495109 3.19853 -1.16172e-18)
(0.636937 3.15593 8.77797e-19)
(0.436415 2.42467 0)
(0.296285 1.98947 -5.58402e-19)
(0.259653 3.09902 1.3966e-18)
(0.273979 2.7404 -3.17206e-20)
(0.158349 2.29518 -1.75085e-18)
(0.596848 1.42282 1.46627e-18)
(0.581781 1.63101 0)
(3.58364 -0.0751833 8.6395e-20)
(3.6186 -0.254131 -7.25645e-20)
(3.72133 -0.217756 -1.26597e-18)
(3.75926 -0.126069 1.28185e-18)
(3.67616 -0.0489049 0)
(2.44163 3.86065 0)
(2.61844 3.90621 0)
(2.88851 3.61535 0)
(2.73795 3.63667 0)
(0.860532 1.40361 -3.33591e-21)
(0.61605 1.04619 0)
(1.72165 3.40137 1.5029e-20)
(1.42941 3.47989 0)
(1.33742 2.97077 -1.28555e-18)
(1.41828 2.91058 8.25501e-19)
(1.79347 0.310585 0)
(1.43233 0.262229 3.51932e-19)
(2.41395 0.3588 2.1907e-18)
(1.78803 0.284846 -7.85092e-19)
(1.42773 0.112201 -2.4938e-18)
(4.26598 0.787996 -2.56375e-18)
(3.85508 0.993607 -3.66677e-20)
(3.30114 0.843792 2.06664e-18)
(3.87835 0.744161 1.8122e-18)
(3.1257 0.465264 -3.04336e-18)
(2.91298 0.451888 3.74793e-19)
(3.19605 0.682038 -8.18263e-19)
(2.97935 0.682853 0)
(3.76098 0.562989 1.53675e-18)
(4.09721 0.627957 0)
(4.09287 0.774682 0)
(4.04452 0.414715 8.23202e-19)
(4.2963 0.640887 -3.0289e-20)
(4.24789 0.713698 -4.52593e-19)
(4.17499 0.641153 0)
(3.61638 0.129993 1.71718e-18)
(4.19013 0.182852 2.14291e-18)
(4.09102 0.151106 -1.67844e-18)
(4.13704 0.240057 -1.44199e-18)
(3.74657 0.237595 -2.15512e-18)
(3.30501 0.375581 0)
(3.40486 0.301851 0)
(2.55967 0.190476 -1.26536e-18)
(2.11005 0.119028 4.76514e-19)
(4.0379 0.351802 1.93912e-18)
(4.28731 0.431486 -2.34518e-18)
(4.28532 0.488059 2.0677e-18)
(4.15791 0.492081 0)
(4.25632 0.336046 0)
(4.26608 0.321726 -9.80954e-19)
(4.21442 0.315217 -1.59551e-18)
(2.23761 3.49506 6.20292e-19)
(1.95019 3.24343 -6.83656e-19)
(1.45666 2.36855 -1.0329e-18)
(1.19496 2.00677 2.67095e-19)
(0.890257 1.38691 -2.63194e-18)
(0.798839 1.22242 9.23023e-19)
(0.604664 0.90938 -1.9045e-21)
(1.12248 1.7947 -1.13902e-18)
(1.15042 1.89303 1.70035e-18)
(0.980863 1.70854 5.06529e-19)
(0.790774 1.29531 -5.13153e-19)
(0.638936 1.07961 0)
(2.45739 2.61244 -1.15414e-19)
(0.710977 1.14736 8.58111e-19)
(0.933218 0.893924 1.15702e-18)
(0.760084 0.816862 1.33909e-18)
(1.08795 0.749427 1.34178e-18)
(1.47404 1.04838 -2.27132e-18)
(1.39009 1.07573 1.84035e-18)
(1.00675 0.768983 -6.7723e-19)
(0.820566 0.570327 1.49552e-18)
(1.61872 0.491487 -7.77873e-19)
(1.56258 0.509285 0)
(1.24208 0.408048 4.6454e-21)
(2.51807 1.51837 7.75583e-19)
(2.088 1.27315 -2.80875e-18)
(1.69449 1.18845 9.23649e-21)
(1.66786 1.09557 0)
(2.87183 2.59693 8.73404e-19)
(3.44896 2.74778 1.03635e-18)
(3.25875 2.92765 -1.19467e-18)
(3.55364 2.75754 -4.27915e-19)
(3.48029 2.59414 -1.34796e-19)
(3.50996 2.7863 1.38655e-19)
(3.67854 2.26268 -1.67811e-18)
(3.7049 2.48752 4.00665e-19)
(3.78148 2.42892 0)
(3.78157 2.18487 -5.7929e-19)
(4.05047 1.07148 5.80154e-19)
(4.27504 0.990569 1.00155e-18)
(4.30003 0.96427 1.01101e-18)
(4.05648 1.32674 -1.14888e-18)
(4.10158 1.34594 0)
(4.15078 1.23001 0)
(3.33309 1.23518 -1.55033e-20)
(2.4223 0.666935 0)
(2.72642 0.744149 9.303e-19)
(3.24269 0.885191 -2.63702e-20)
(3.77663 1.53278 5.10392e-18)
(3.57477 1.76025 1.31022e-18)
(3.4864 1.53961 -1.33999e-18)
(3.04421 1.37004 1.43673e-18)
(2.76815 1.37063 8.23584e-19)
(2.31373 1.15767 -7.97628e-19)
(3.67214 -0.0856236 1.98366e-18)
(3.89469 -0.0290181 0)
(3.85893 -0.0666297 1.34142e-18)
(3.74288 -0.0594857 -2.98631e-18)
(3.98056 0.037261 1.46125e-18)
(3.90447 0.113315 -3.08142e-18)
(3.73991 0.127917 0)
(3.55632 0.173401 -6.28236e-19)
(3.81199 0.122911 1.6045e-18)
(3.69198 0.191321 -8.2216e-19)
(3.60033 0.171018 5.90423e-19)
(-0.0833029 2.59259 0)
(-0.05226 3.39561 0)
(-0.0344796 2.46019 0)
(-0.0232259 1.97131 0)
(0.0398603 3.9298 6.70524e-19)
(0.134765 3.70942 -1.73138e-19)
(0.310488 4.6351 -2.29512e-19)
(0.245645 4.44633 2.42264e-19)
(-0.0332067 4.28622 -4.97355e-19)
(0.00389472 4.31794 3.73488e-19)
(0.0890931 3.85865 2.23821e-20)
(0.00432044 3.54722 -4.67045e-19)
(-0.0170743 3.30283 -6.22713e-20)
(-0.0455411 3.66498 -5.67234e-20)
(0.147198 4.48365 -5.86394e-19)
(0.173489 4.30098 0)
(0.269619 4.64012 2.96174e-19)
(0.26155 4.70808 2.52921e-19)
(0.59247 4.45194 -2.25829e-19)
(0.408602 3.80342 0)
(0.457968 3.64978 -1.1158e-18)
(0.562029 4.0187 7.90608e-19)
(0.476384 4.56766 -6.14525e-19)
(0.366103 4.44378 3.30609e-19)
(0.297181 4.17394 0)
(-0.0444715 4.76045 -5.52715e-19)
(-0.0829694 4.52913 -6.41077e-19)
(-0.0852321 4.73888 0)
(-0.0362215 4.36565 -6.23335e-21)
(-0.0271679 4.64489 2.74012e-19)
(-0.126055 3.88441 4.47641e-20)
(-0.0610376 3.49493 -6.54701e-19)
(-0.103378 3.93157 1.74668e-19)
(-0.146425 4.51647 2.3242e-19)
(-0.0853807 4.32602 0)
(-0.0682981 3.89547 0)
(-0.0859165 2.91997 2.01602e-19)
(-0.0537107 3.64908 -6.29022e-20)
(-0.0791012 3.63419 0)
(-0.0908993 2.7049 1.5876e-19)
(-0.0481152 2.2116 -3.07587e-19)
(3.76086 0.0321458 0)
(3.7317 0.00754089 -2.03173e-19)
(4.17944 0.0676139 -1.4392e-18)
(4.08893 0.0459678 0)
(3.87603 0.0175058 0)
(4.14972 0.0368032 -1.251e-20)
(4.10028 0.0347301 2.37772e-18)
(4.0002 0.0799507 2.84417e-18)
(3.75607 0.118454 0)
(3.55828 0.109859 0)
(4.01349 0.0936068 1.41672e-18)
(3.70355 0.115862 0)
(3.47248 0.128669 0)
(-0.0913883 4.6906 0)
(-0.116008 4.66064 1.07164e-20)
(-0.087746 4.7107 6.30544e-20)
(-0.0682344 3.84776 0)
(-0.12148 4.5375 1.11204e-19)
(-0.0771904 4.25404 -6.3512e-20)
(-0.0622808 3.95016 0)
(1.41535 4.19755 0)
(1.20612 4.57449 -1.29681e-18)
(1.22324 4.48911 0)
(1.57157 4.47864 1.48386e-18)
(1.58681 4.10057 0)
(1.49568 4.3572 -6.06402e-19)
(1.02014 2.25913 -3.40115e-20)
(0.715872 1.65871 -1.74818e-18)
(0.595938 1.23724 2.13277e-18)
(0.715169 1.85085 3.97662e-19)
(0.98335 2.44361 0)
(1.04553 2.39795 0)
(0.724674 1.70157 0)
(0.537092 1.34175 -1.39827e-18)
(1.21668 3.79228 -9.84205e-19)
(1.13707 3.01002 -2.35784e-19)
(1.33589 3.42398 1.92834e-19)
(0.603995 2.05854 0)
(0.625616 1.95936 0)
(0.466319 1.58523 -3.93643e-19)
(0.964985 2.74114 0)
(2.69187 3.5693 0)
(2.39259 3.01501 -1.45454e-18)
(2.5561 3.0311 -8.58523e-20)
(2.42964 3.40939 0)
(2.29802 3.15787 2.22114e-18)
(3.2814 3.08219 -3.89493e-19)
(3.13236 3.3158 0)
(3.11486 3.14179 6.30081e-19)
(2.87322 3.40939 0)
(2.88783 3.20012 0)
(1.21874 2.01979 -9.31615e-19)
(1.42489 2.41798 -7.0014e-19)
(1.76565 2.99639 1.20665e-18)
(1.70797 2.97561 -3.626e-19)
(1.0708 1.83488 0)
(1.21604 2.2234 4.71608e-19)
(0.723967 1.29774 -7.16336e-19)
(0.586059 1.05105 -6.17701e-22)
(1.94751 3.70764 0)
(2.20775 3.74859 -5.42455e-19)
(2.34368 3.98477 0)
(2.28726 0.529004 0)
(1.61971 0.342161 0)
(1.21098 0.276883 0)
(2.21269 0.554447 -1.46469e-18)
(1.63816 0.402601 8.17e-19)
(2.14728 0.129038 -9.84636e-19)
(2.62867 0.297349 0)
(2.46777 0.301538 4.13283e-19)
(1.77154 0.135696 1.63218e-18)
(1.53159 0.0812695 -1.03651e-18)
(0.749991 1.56245 8.58798e-19)
(0.966207 1.82836 0)
(0.540776 1.44549 1.56243e-18)
(0.527758 1.61937 -1.4266e-18)
(0.762902 1.82011 -9.89469e-19)
(2.08597 2.47054 1.33842e-18)
(2.10982 2.72108 0)
(1.59401 1.68529 -2.7653e-19)
(2.02128 1.9964 1.7455e-18)
(1.36828 1.2984 -4.23802e-19)
(1.59748 1.31884 4.50992e-19)
(2.1192 1.51732 1.02345e-18)
(2.45269 1.67433 0)
(2.28683 1.86111 0)
(2.01998 1.61127 0)
(3.95683 2.07441 3.84327e-19)
(3.76348 1.88696 -1.26267e-18)
(3.8207 2.02433 1.04576e-18)
(3.90349 1.76788 -1.00761e-18)
(4.15694 1.66965 0)
(4.11531 1.83597 -2.9765e-19)
(2.84711 1.16382 -1.89668e-18)
(2.97683 1.16351 -2.41189e-18)
(2.33835 1.04471 1.45598e-18)
(2.14397 0.935679 -1.41964e-18)
(2.4688 0.846708 -1.17779e-18)
(2.1837 0.777948 1.44841e-18)
(4.00844 0.0333485 -1.52812e-18)
(4.05275 0.0405345 3.12861e-18)
(3.7679 -0.065994 1.89995e-18)
(3.79111 -0.0738922 -2.28563e-18)
(3.95945 0.0103777 0)
(4.05599 0.0226751 -3.72788e-18)
(0.087679 4.75855 1.06614e-19)
(0.0586224 4.72644 0)
(0.181947 4.72943 9.52245e-19)
(0.203381 4.74575 -8.66315e-19)
(0.223128 4.70979 4.27992e-19)
(0.114066 4.64947 0)
(-0.112475 4.76636 0)
(-0.117484 4.40536 -6.19779e-20)
(-0.11636 4.33912 5.55561e-20)
(-0.125092 4.48416 7.36664e-21)
(-0.115957 4.7141 -1.01271e-19)
(-0.0931684 4.70235 5.50233e-20)
(1.88232 4.01538 -1.64265e-18)
(1.82198 4.02382 1.73995e-18)
(1.68259 4.40033 -8.53667e-19)
(1.69784 4.28295 7.61323e-20)
(2.25258 4.07217 0)
(1.84984 4.2034 -6.36133e-19)
(1.97704 3.94172 6.16957e-19)
(1.82043 4.36855 8.33869e-19)
(2.07482 4.21376 0)
(2.22777 4.09365 0)
(1.14591 3.64999 1.49616e-18)
(0.833439 2.8331 2.02683e-18)
(0.961459 3.01133 -1.39193e-18)
(0.75298 2.99444 -2.32359e-19)
(0.908372 3.75275 4.66894e-19)
(0.727658 3.38711 -1.13558e-18)
(0.752252 1.47693 -1.21706e-18)
(0.752013 1.32669 0)
(0.60733 1.12282 -1.33763e-18)
(1.11966 2.07867 0)
(1.09699 2.16594 0)
(1.36877 2.19888 -1.09155e-18)
(1.07184 2.02244 -1.03693e-18)
(1.02416 2.04247 1.09972e-18)
(1.03963 1.52472 0)
(1.42066 1.76896 -6.01683e-19)
(1.63856 2.12758 -8.55738e-19)
(1.4213 2.09029 0)
(0.874718 1.82372 7.13228e-19)
(0.786356 1.6838 0)
(2.91644 2.29121 -1.84593e-18)
(3.32525 2.4694 2.60727e-18)
(3.28516 2.19228 -2.59149e-18)
(2.62084 2.02448 -2.31107e-19)
(2.73478 1.94265 -9.738e-19)
(1.27094 2.19922 7.96891e-19)
(1.32556 2.25528 -1.36104e-18)
(1.46482 2.33899 1.79404e-18)
(1.80246 2.56938 -1.16601e-18)
(1.90161 2.94459 -1.56783e-18)
(1.5744 2.50014 -1.18837e-19)
(1.64473 2.64112 1.37235e-18)
(1.82263 2.70421 9.66862e-20)
(2.03059 3.00957 6.50425e-19)
)
;

boundaryField
{
    wall-4
    {
        type            noSlip;
    }
    velocity-inlet-5
    {
        type            fixedValue;
        value           uniform (3 0 0);
    }
    velocity-inlet-6
    {
        type            fixedValue;
        value           uniform (0 1 0);
    }
    pressure-outlet-7
    {
        type            zeroGradient;
    }
    wall-8
    {
        type            noSlip;
    }
    frontAndBackPlanes
    {
        type            empty;
    }
}


// ************************************************************************* //
