/*--------------------------------*- C++ -*----------------------------------*\
  =========                 |
  \\      /  F ield         | OpenFOAM: The Open Source CFD Toolbox
   \\    /   O peration     | Website:  https://openfoam.org
    \\  /    A nd           | Version:  9
     \\/     M anipulation  |
\*---------------------------------------------------------------------------*/
FoamFile
{
    format      ascii;
    class       volScalarField;
    location    "5.67";
    object      p;
}
// * * * * * * * * * * * * * * * * * * * * * * * * * * * * * * * * * * * * * //

dimensions      [1 -1 -2 0 0 0 0];

internalField   nonuniform List<scalar> 
2268
(
748.278
748.015
747.464
746.621
745.509
744.152
742.577
740.813
738.894
736.851
734.723
732.548
730.359
728.18
726.025
723.906
721.884
720.1
718.716
717.618
716.915
716.676
716.431
689.473
689.206
688.655
687.811
686.696
685.336
683.756
681.985
680.056
678.002
675.859
673.665
671.451
669.243
667.064
664.945
662.992
661.347
660.091
659.001
658.124
657.718
657.51
630.73
630.458
629.905
629.055
627.934
626.564
624.973
623.189
621.244
619.171
617.007
614.79
612.551
610.321
608.133
606.032
604.116
602.458
601.215
600.119
599.15
598.696
598.504
572.054
571.778
571.219
570.36
569.226
567.841
566.232
564.428
562.46
560.361
558.17
555.926
553.663
551.42
549.237
547.174
545.34
543.808
542.489
541.196
540.159
539.648
539.46
513.445
513.166
512.599
511.726
510.574
509.167
507.534
505.703
503.706
501.574
499.348
497.071
494.783
492.528
490.359
488.352
486.703
485.622
484.183
482.712
481.617
480.595
480.376
454.906
454.624
454.046
453.156
451.979
450.543
448.879
447.016
444.983
442.809
440.54
438.222
435.903
433.634
431.476
429.518
427.955
427.222
425.902
424.435
422.972
421.546
421.25
396.438
396.15
395.56
394.649
393.442
391.97
390.268
388.366
386.292
384.067
381.743
379.375
377.016
374.725
372.568
370.636
369.085
368.382
367.387
365.885
364.006
362.497
362.045
338.044
337.748
337.141
336.205
334.96
333.443
331.698
329.752
327.631
325.347
322.958
320.53
318.123
315.8
313.626
311.688
310.105
309.232
308.331
306.824
304.86
303.482
302.708
721.288
721.978
722.876
723.972
725.233
726.655
728.191
729.779
731.285
732.578
733.614
735.168
736.997
737.683
740.438
742.312
742.838
743.554
743.856
662.881
663.161
663.982
665.089
666.417
667.918
669.497
671.078
672.515
673.785
674.863
676.543
678.615
679.589
681.324
683.191
683.919
684.797
685.296
604.303
604.372
605.044
606.116
607.454
608.972
610.599
612.204
613.633
614.963
616.083
617.94
619.927
621.455
622.652
624.407
625.145
626.165
626.78
545.366
545.491
546.089
547.136
548.482
550.027
551.677
553.334
554.874
556.37
557.397
559.311
561.685
563.945
564.345
565.952
566.484
567.655
568.406
486.156
486.431
487.053
488.116
489.486
491.068
492.787
494.551
496.243
497.955
499.827
501.641
504.427
506.942
506.227
507.725
507.999
509.305
510.15
426.848
427.228
427.918
429.039
430.453
432.086
433.886
435.772
437.66
439.704
442.906
444.931
447.451
449.489
448.223
449.553
450.096
451.174
451.987
367.445
367.919
368.691
369.905
371.381
373.074
374.948
376.971
379.052
381.464
385.326
388.084
390.399
391.482
390.312
391.452
392.511
393.086
393.825
307.915
308.448
309.384
310.733
312.274
314.028
315.965
318.122
320.448
323.151
327.083
330.555
332.73
333.127
332.381
333.473
334.881
335.029
335.631
246.868
246.556
245.919
244.935
243.617
242.016
240.191
238.17
235.967
233.575
231.063
228.532
226.038
223.648
221.422
219.413
217.708
216.466
215.331
213.895
212.344
211.354
210.847
123.239
122.935
122.306
121.272
119.801
118.014
116.041
113.892
111.578
109.168
106.733
104.311
101.945
99.6709
97.5483
95.6325
93.9569
92.7102
91.4613
90.3204
89.395
88.802
88.5498
31.1785
30.9963
30.6165
30.0153
29.2649
28.3429
27.2485
26.042
24.778
23.5815
22.4345
21.3263
20.2347
19.1703
18.1725
17.2902
16.5502
15.9243
15.3688
14.9326
14.6355
14.4788
14.3987
-0.376056
-0.382031
-0.398834
-0.442613
-0.2827
-0.133569
-0.131391
-0.142085
-0.140365
-0.125897
-0.119587
-0.118147
-0.117886
-0.121804
-0.144004
-0.196021
-0.272287
-0.380437
-0.507073
-0.495437
-0.484815
-0.489262
-0.52335
-0.793245
-0.793783
-0.796851
-0.803015
-0.751816
-0.702846
-0.678083
-0.666838
-0.659681
-0.652525
-0.650922
-0.655233
-0.662825
-0.674185
-0.690617
-0.712969
-0.73288
-0.749756
-0.776607
-0.785566
-0.786526
-0.783328
-0.775404
-1.0881
-1.08824
-1.0906
-1.08857
-1.09928
-1.12331
-1.12445
-1.12089
-1.11769
-1.11668
-1.11547
-1.11569
-1.11759
-1.12073
-1.12176
-1.11766
-1.10435
-1.07872
-1.05227
-1.05344
-1.04734
-1.03184
-1.01594
-1.29068
-1.29093
-1.28991
-1.28458
-1.29523
-1.29085
-1.29284
-1.29407
-1.2932
-1.29106
-1.28818
-1.28452
-1.28034
-1.27533
-1.26897
-1.26003
-1.25143
-1.24859
-1.24599
-1.24015
-1.23308
-1.2308
-1.23682
-1.42487
-1.42507
-1.42481
-1.42309
-1.424
-1.42039
-1.41921
-1.41822
-1.41676
-1.41478
-1.41226
-1.40921
-1.40575
-1.40176
-1.39715
-1.39206
-1.38798
-1.38758
-1.38518
-1.38069
-1.38081
-1.38669
-1.38737
-1.54812
-1.54802
-1.54764
-1.5467
-1.54664
-1.54453
-1.5434
-1.54225
-1.54071
-1.53887
-1.53669
-1.53415
-1.53135
-1.52831
-1.52527
-1.52308
-1.52259
-1.52208
-1.51946
-1.51775
-1.51874
-1.51979
-1.51791
-1.67163
-1.6715
-1.67107
-1.67035
-1.67003
-1.66864
-1.66753
-1.66634
-1.66487
-1.6632
-1.66138
-1.65936
-1.65711
-1.65473
-1.65261
-1.65133
-1.65119
-1.65067
-1.6494
-1.64909
-1.64886
-1.64793
-1.64616
-1.79535
-1.79523
-1.79487
-1.79433
-1.79373
-1.79274
-1.79171
-1.79055
-1.78923
-1.7878
-1.78627
-1.78463
-1.78279
-1.78088
-1.77923
-1.77808
-1.77745
-1.77675
-1.77586
-1.77538
-1.77494
-1.77408
-1.77333
-1.91921
-1.91913
-1.91886
-1.9184
-1.91779
-1.91697
-1.91605
-1.91499
-1.91384
-1.91262
-1.91131
-1.90987
-1.90833
-1.90681
-1.90547
-1.90444
-1.90371
-1.90299
-1.90225
-1.90172
-1.90125
-1.90071
-1.90024
-2.04321
-2.04318
-2.04298
-2.04259
-2.04205
-2.04134
-2.04053
-2.03963
-2.03865
-2.03758
-2.03639
-2.03512
-2.03384
-2.0326
-2.03149
-2.03058
-2.0299
-2.02934
-2.02881
-2.0283
-2.02782
-2.02734
-2.02696
-2.16735
-2.16736
-2.16722
-2.1669
-2.16643
-2.16582
-2.16512
-2.16436
-2.1635
-2.16254
-2.16148
-2.16039
-2.15931
-2.15828
-2.15734
-2.15656
-2.15595
-2.15552
-2.15515
-2.15473
-2.15428
-2.15378
-2.15346
-2.29162
-2.29167
-2.29158
-2.29132
-2.29092
-2.2904
-2.28978
-2.28911
-2.28835
-2.28749
-2.28659
-2.28566
-2.28475
-2.28387
-2.28308
-2.28239
-2.28184
-2.28142
-2.2811
-2.28077
-2.28035
-2.27996
-2.27974
-2.41602
-2.41609
-2.41604
-2.41583
-2.41549
-2.41504
-2.41451
-2.41391
-2.41323
-2.4125
-2.41172
-2.41093
-2.41015
-2.4094
-2.40872
-2.40811
-2.40761
-2.4072
-2.40686
-2.40655
-2.40624
-2.40598
-2.40584
-2.54053
-2.54062
-2.5406
-2.54043
-2.54015
-2.53976
-2.5393
-2.53877
-2.53818
-2.53754
-2.53687
-2.5362
-2.53552
-2.53488
-2.53429
-2.53375
-2.5333
-2.53292
-2.5326
-2.53232
-2.53207
-2.53188
-2.53179
-2.66514
-2.66524
-2.66524
-2.66511
-2.66487
-2.66454
-2.66414
-2.66368
-2.66317
-2.66262
-2.66204
-2.66145
-2.66087
-2.66032
-2.6598
-2.65933
-2.65892
-2.65857
-2.65828
-2.65803
-2.65783
-2.65769
-2.65763
-2.78983
-2.78994
-2.78996
-2.78986
-2.78966
-2.78938
-2.78903
-2.78863
-2.78819
-2.78771
-2.78721
-2.7867
-2.7862
-2.78572
-2.78526
-2.78485
-2.78449
-2.78418
-2.78391
-2.7837
-2.78353
-2.78342
-2.78338
-2.9146
-2.91472
-2.91475
-2.91467
-2.91451
-2.91427
-2.91397
-2.91362
-2.91323
-2.91281
-2.91238
-2.91194
-2.91151
-2.91109
-2.91069
-2.91033
-2.91001
-2.90973
-2.9095
-2.90931
-2.90917
-2.90908
-2.90905
-3.03943
-3.03956
-3.0396
-3.03954
-3.0394
-3.03919
-3.03893
-3.03863
-3.03829
-3.03793
-3.03756
-3.03717
-3.0368
-3.03643
-3.03608
-3.03577
-3.03548
-3.03524
-3.03503
-3.03487
-3.03475
-3.03468
-3.03466
-3.16433
-3.16445
-3.16449
-3.16445
-3.16433
-3.16415
-3.16392
-3.16366
-3.16337
-3.16306
-3.16273
-3.1624
-3.16207
-3.16175
-3.16145
-3.16117
-3.16092
-3.16071
-3.16053
-3.16038
-3.16028
-3.16022
-3.16021
-3.28927
-3.28938
-3.28943
-3.28939
-3.28929
-3.28914
-3.28894
-3.28871
-3.28846
-3.28819
-3.2879
-3.28761
-3.28733
-3.28705
-3.28679
-3.28654
-3.28633
-3.28614
-3.28598
-3.28586
-3.28577
-3.28572
-3.28571
-3.41423
-3.41434
-3.41439
-3.41436
-3.41427
-3.41414
-3.41397
-3.41378
-3.41356
-3.41332
-3.41307
-3.41282
-3.41257
-3.41233
-3.4121
-3.41189
-3.4117
-3.41154
-3.4114
-3.4113
-3.41122
-3.41118
-3.41118
-3.53923
-3.53933
-3.53938
-3.53935
-3.53928
-3.53917
-3.53902
-3.53885
-3.53866
-3.53846
-3.53824
-3.53803
-3.53781
-3.5376
-3.5374
-3.53722
-3.53705
-3.53691
-3.53679
-3.5367
-3.53664
-3.53661
-3.53661
-3.66426
-3.66435
-3.66439
-3.66437
-3.66431
-3.66421
-3.66408
-3.66394
-3.66377
-3.6636
-3.66341
-3.66323
-3.66304
-3.66286
-3.66269
-3.66253
-3.66238
-3.66226
-3.66216
-3.66208
-3.66203
-3.662
-3.66201
-3.78932
-3.78939
-3.78942
-3.7894
-3.78935
-3.78926
-3.78916
-3.78903
-3.78889
-3.78874
-3.78858
-3.78842
-3.78826
-3.7881
-3.78795
-3.78782
-3.78769
-3.78759
-3.7875
-3.78744
-3.78739
-3.78737
-3.78738
-3.9144
-3.91445
-3.91447
-3.91445
-3.9144
-3.91433
-3.91424
-3.91413
-3.91401
-3.91388
-3.91375
-3.91361
-3.91347
-3.91334
-3.91321
-3.91309
-3.91299
-3.91289
-3.91282
-3.91277
-3.91273
-3.91272
-3.91273
-4.0395
-4.03954
-4.03953
-4.0395
-4.03946
-4.0394
-4.03933
-4.03924
-4.03914
-4.03903
-4.03891
-4.03879
-4.03868
-4.03856
-4.03845
-4.03835
-4.03826
-4.03818
-4.03812
-4.03808
-4.03805
-4.03804
-4.03805
-4.16462
-4.16463
-4.1646
-4.16456
-4.16453
-4.16449
-4.16443
-4.16435
-4.16427
-4.16418
-4.16408
-4.16398
-4.16388
-4.16378
-4.16368
-4.1636
-4.16352
-4.16346
-4.16341
-4.16337
-4.16335
-4.16335
-4.16336
-4.28976
-4.28975
-4.2897
-4.28966
-4.28963
-4.28959
-4.28954
-4.28948
-4.2894
-4.28933
-4.28924
-4.28916
-4.28907
-4.28899
-4.28891
-4.28884
-4.28877
-4.28872
-4.28868
-4.28865
-4.28864
-4.28864
-4.28865
-4.4149
-4.41487
-4.41483
-4.41479
-4.41475
-4.41471
-4.41466
-4.4146
-4.41454
-4.41448
-4.41441
-4.41433
-4.41426
-4.41419
-4.41413
-4.41406
-4.41401
-4.41397
-4.41393
-4.41391
-4.41391
-4.41391
-4.41393
-4.54005
-4.54
-4.53995
-4.53992
-4.53988
-4.53983
-4.53978
-4.53974
-4.53969
-4.53963
-4.53957
-4.53951
-4.53945
-4.53939
-4.53934
-4.53929
-4.53924
-4.53921
-4.53918
-4.53917
-4.53916
-4.53917
-4.5392
-4.66519
-4.66511
-4.66506
-4.66503
-4.66499
-4.66495
-4.66491
-4.66487
-4.66483
-4.66479
-4.66474
-4.66469
-4.66464
-4.66459
-4.66454
-4.6645
-4.66447
-4.66444
-4.66442
-4.66441
-4.66441
-4.66443
-4.66445
-4.7903
-4.7902
-4.79014
-4.79011
-4.79008
-4.79006
-4.79003
-4.79001
-4.78998
-4.78995
-4.78991
-4.78987
-4.78983
-4.78979
-4.78975
-4.78971
-4.78968
-4.78966
-4.78965
-4.78964
-4.78965
-4.78967
-4.7897
-4.91539
-4.91526
-4.91519
-4.91518
-4.91517
-4.91517
-4.91516
-4.91515
-4.91513
-4.91511
-4.91508
-4.91505
-4.91502
-4.91498
-4.91495
-4.91492
-4.9149
-4.91488
-4.91487
-4.91487
-4.91488
-4.91491
-4.91494
-5.04044
-5.0403
-5.04024
-5.04025
-5.04028
-5.04029
-5.0403
-5.0403
-5.04029
-5.04028
-5.04026
-5.04024
-5.04021
-5.04018
-5.04015
-5.04013
-5.04011
-5.04009
-5.04008
-5.04009
-5.04011
-5.04014
-5.04018
-5.16544
-5.16531
-5.1653
-5.16535
-5.1654
-5.16543
-5.16545
-5.16546
-5.16546
-5.16546
-5.16544
-5.16542
-5.1654
-5.16538
-5.16536
-5.16533
-5.16531
-5.1653
-5.16529
-5.1653
-5.16532
-5.16536
-5.16541
-5.29036
-5.29029
-5.2904
-5.29049
-5.29056
-5.2906
-5.29063
-5.29064
-5.29065
-5.29065
-5.29064
-5.29062
-5.2906
-5.29058
-5.29056
-5.29054
-5.29052
-5.29051
-5.2905
-5.2905
-5.29054
-5.29059
-5.29064
-5.41532
-5.41536
-5.41558
-5.4157
-5.41576
-5.4158
-5.41583
-5.41584
-5.41584
-5.41584
-5.41583
-5.41582
-5.4158
-5.41579
-5.41577
-5.41575
-5.41573
-5.41571
-5.41569
-5.41568
-5.41573
-5.41582
-5.41588
-5.54021
-5.54057
-5.54084
-5.54094
-5.54099
-5.54101
-5.54102
-5.54102
-5.54101
-5.541
-5.54099
-5.54098
-5.54097
-5.54095
-5.54094
-5.54092
-5.54089
-5.54086
-5.54082
-5.54078
-5.54086
-5.54104
-5.54113
-5.66561
-5.66643
-5.6663
-5.66628
-5.66626
-5.66624
-5.66622
-5.66621
-5.6662
-5.66619
-5.66618
-5.66617
-5.66616
-5.66615
-5.66613
-5.66612
-5.66609
-5.66606
-5.66598
-5.66584
-5.66592
-5.66626
-5.66638
211.07
211.181
211.481
212.055
88.6703
88.8248
89.0917
89.5758
14.3875
14.4303
14.536
14.7305
-0.499002
-0.501237
-0.525765
-0.556365
-0.783731
-0.788906
-0.794649
-0.792905
-1.02378
-1.0234
-1.0158
-1.01114
-1.23312
-1.22972
-1.22598
-1.22495
-1.38498
-1.38618
-1.38915
-1.39085
-1.51748
-1.51781
-1.51882
-1.51968
-1.64581
-1.64589
-1.6462
-1.64652
-1.77316
-1.77315
-1.77323
-1.77336
-1.90014
-1.90012
-1.90015
-1.90023
-2.02689
-2.02689
-2.02694
-2.02704
-2.15342
-2.15345
-2.15352
-2.15363
-2.27973
-2.27976
-2.27984
-2.27996
-2.40584
-2.40588
-2.40596
-2.40606
-2.53181
-2.53185
-2.53192
-2.53201
-2.65766
-2.6577
-2.65776
-2.65784
-2.78341
-2.78345
-2.7835
-2.78357
-2.90908
-2.90911
-2.90916
-2.90922
-3.03469
-3.03472
-3.03476
-3.03481
-3.16024
-3.16026
-3.1603
-3.16035
-3.28574
-3.28577
-3.2858
-3.28585
-3.4112
-3.41123
-3.41126
-3.4113
-3.53663
-3.53666
-3.53669
-3.53673
-3.66203
-3.66205
-3.66208
-3.66212
-3.7874
-3.78742
-3.78745
-3.78749
-3.91275
-3.91277
-3.9128
-3.91283
-4.03808
-4.0381
-4.03812
-4.03815
-4.16339
-4.16341
-4.16343
-4.16346
-4.28868
-4.2887
-4.28872
-4.28874
-4.41396
-4.41397
-4.414
-4.41402
-4.53922
-4.53924
-4.53926
-4.53929
-4.66448
-4.6645
-4.66452
-4.66454
-4.78973
-4.78975
-4.78977
-4.78979
-4.91497
-4.91499
-4.91501
-4.91503
-5.04021
-5.04023
-5.04025
-5.04027
-5.16544
-5.16546
-5.16548
-5.1655
-5.29068
-5.2907
-5.29072
-5.29074
-5.41592
-5.41594
-5.41595
-5.41597
-5.54117
-5.54118
-5.54119
-5.5412
-5.66641
-5.66642
-5.66643
-5.66643
213.955
215.174
216.564
218.196
220.108
222.153
224.308
226.538
228.963
231.853
235.474
238.813
240.925
241.603
241.799
243.05
244.758
244.95
244.975
90.7868
92.0117
93.4898
95.2234
97.2337
99.5629
102.032
104.468
106.84
109.255
111.883
114.509
116.657
118.124
119.281
120.585
122.031
122.246
121.714
15.1924
15.7549
16.4352
17.2664
18.2584
19.4234
20.7489
22.1243
23.3605
24.3142
25.2039
26.3091
27.4526
28.437
29.3006
29.8679
30.3831
30.4573
30.152
-0.585691
-0.589595
-0.586669
-0.583746
-0.471733
-0.457484
-0.490855
-0.508893
-0.517374
-0.527699
-0.549854
-0.570852
-0.586131
-0.560042
-0.489726
-0.488932
-0.54074
-0.548492
-0.523573
-0.79156
-0.792393
-0.792799
-0.798125
-0.775754
-0.758194
-0.758474
-0.760111
-0.762739
-0.767689
-0.773873
-0.779744
-0.786469
-0.795306
-0.802951
-0.805447
-0.813944
-0.817685
-0.804066
-1.00685
-1.00706
-1.00902
-1.01414
-1.03492
-1.04725
-1.05235
-1.05687
-1.05967
-1.05976
-1.05908
-1.06208
-1.06346
-1.06904
-1.07302
-1.07908
-1.08668
-1.08412
-1.07774
-1.22802
-1.22989
-1.23089
-1.22722
-1.24634
-1.2586
-1.26267
-1.26508
-1.26718
-1.26978
-1.27315
-1.276
-1.27672
-1.27245
-1.27428
-1.27787
-1.27641
-1.27759
-1.27635
-1.39308
-1.39408
-1.39507
-1.39342
-1.39472
-1.39121
-1.39187
-1.39221
-1.39266
-1.39459
-1.39751
-1.40141
-1.40669
-1.41023
-1.41183
-1.4118
-1.41189
-1.41447
-1.4174
-1.52017
-1.52049
-1.52114
-1.52187
-1.5211
-1.51959
-1.51918
-1.51898
-1.52054
-1.52281
-1.52515
-1.52821
-1.53155
-1.53389
-1.53567
-1.53663
-1.53719
-1.53871
-1.54057
-1.64688
-1.647
-1.64718
-1.6475
-1.64751
-1.64723
-1.6472
-1.64815
-1.65113
-1.65407
-1.6554
-1.65636
-1.65706
-1.6583
-1.65987
-1.66113
-1.66219
-1.66325
-1.66418
-1.77358
-1.77356
-1.77353
-1.77387
-1.77435
-1.77505
-1.77636
-1.77902
-1.78198
-1.7835
-1.78372
-1.78386
-1.7839
-1.78449
-1.78505
-1.78572
-1.7869
-1.78771
-1.78819
-1.90041
-1.90057
-1.90078
-1.90124
-1.90177
-1.90295
-1.90561
-1.90845
-1.90998
-1.91023
-1.91074
-1.91151
-1.91249
-1.91271
-1.91212
-1.91172
-1.91167
-1.91189
-1.91249
-2.02729
-2.02793
-2.02862
-2.02912
-2.02981
-2.03087
-2.03306
-2.03494
-2.03561
-2.03652
-2.03798
-2.03889
-2.03922
-2.03917
-2.03884
-2.03811
-2.03683
-2.03673
-2.03754
-2.15392
-2.1548
-2.15589
-2.15663
-2.15725
-2.15793
-2.15888
-2.16009
-2.161
-2.16211
-2.16356
-2.16419
-2.16393
-2.16384
-2.16376
-2.16346
-2.16293
-2.16298
-2.16362
-2.28023
-2.28096
-2.282
-2.28288
-2.28325
-2.28368
-2.28445
-2.28538
-2.28622
-2.28711
-2.28805
-2.28857
-2.28866
-2.28873
-2.28883
-2.28903
-2.28937
-2.28969
-2.29007
-2.4063
-2.40687
-2.40759
-2.40826
-2.40874
-2.40925
-2.40992
-2.41067
-2.41139
-2.41212
-2.41283
-2.41329
-2.41352
-2.4137
-2.41395
-2.41434
-2.41496
-2.41542
-2.4156
-2.53221
-2.53266
-2.53321
-2.53375
-2.53423
-2.53473
-2.53532
-2.53596
-2.53658
-2.53719
-2.53776
-2.53818
-2.53846
-2.53871
-2.53899
-2.53935
-2.53979
-2.54017
-2.54037
-2.658
-2.65837
-2.65882
-2.65928
-2.65972
-2.66018
-2.6607
-2.66125
-2.66179
-2.66231
-2.66279
-2.66317
-2.66347
-2.66373
-2.66399
-2.66428
-2.66458
-2.66486
-2.66504
-2.78371
-2.78401
-2.78438
-2.78479
-2.78519
-2.78562
-2.78607
-2.78654
-2.78701
-2.78747
-2.78788
-2.78824
-2.78853
-2.78878
-2.789
-2.78919
-2.78935
-2.78949
-2.78963
-2.90935
-2.9096
-2.90991
-2.91026
-2.91063
-2.91102
-2.91142
-2.91184
-2.91226
-2.91266
-2.91303
-2.91336
-2.91363
-2.91386
-2.91404
-2.91415
-2.91417
-2.91417
-2.91413
-3.03492
-3.03514
-3.03541
-3.03571
-3.03604
-3.03639
-3.03676
-3.03713
-3.03751
-3.03787
-3.03821
-3.03852
-3.03878
-3.039
-3.03916
-3.03924
-3.0392
-3.03916
-3.03899
-3.16045
-3.16064
-3.16087
-3.16114
-3.16144
-3.16175
-3.16208
-3.16243
-3.16277
-3.1631
-3.16342
-3.16371
-3.16397
-3.1642
-3.16438
-3.16449
-3.16452
-3.16463
-3.16449
-3.28594
-3.2861
-3.28631
-3.28655
-3.28682
-3.2871
-3.2874
-3.28771
-3.28803
-3.28834
-3.28864
-3.28893
-3.2892
-3.28944
-3.28966
-3.28985
-3.28999
-3.29032
-3.29016
-3.41138
-3.41153
-3.41172
-3.41194
-3.41218
-3.41244
-3.41271
-3.413
-3.41329
-3.41359
-3.41388
-3.41416
-3.41443
-3.4147
-3.41496
-3.41523
-3.41549
-3.41589
-3.41572
-3.5368
-3.53694
-3.5371
-3.5373
-3.53752
-3.53776
-3.53801
-3.53828
-3.53855
-3.53883
-3.53911
-3.53939
-3.53967
-3.53995
-3.54024
-3.54057
-3.54092
-3.54127
-3.54117
-3.66219
-3.66231
-3.66246
-3.66264
-3.66284
-3.66306
-3.6633
-3.66354
-3.6638
-3.66407
-3.66433
-3.66461
-3.66489
-3.66517
-3.66548
-3.66582
-3.66621
-3.66651
-3.66657
-3.78755
-3.78766
-3.7878
-3.78796
-3.78815
-3.78835
-3.78857
-3.7888
-3.78904
-3.78929
-3.78955
-3.78981
-3.79008
-3.79036
-3.79065
-3.79097
-3.7913
-3.79148
-3.79149
-3.91289
-3.91299
-3.91312
-3.91327
-3.91344
-3.91363
-3.91383
-3.91405
-3.91428
-3.91451
-3.91476
-3.91501
-3.91526
-3.91552
-3.91577
-3.91602
-3.91623
-3.91622
-3.91591
-4.03821
-4.0383
-4.03842
-4.03856
-4.03872
-4.03889
-4.03908
-4.03928
-4.0395
-4.03972
-4.03995
-4.04018
-4.04042
-4.04065
-4.04087
-4.04105
-4.04115
-4.04103
-4.04059
-4.16351
-4.1636
-4.16371
-4.16384
-4.16398
-4.16414
-4.16432
-4.16451
-4.16471
-4.16492
-4.16514
-4.16535
-4.16557
-4.16578
-4.16596
-4.1661
-4.16614
-4.16598
-4.16554
-4.28879
-4.28888
-4.28898
-4.2891
-4.28924
-4.28939
-4.28955
-4.28973
-4.28991
-4.29011
-4.29031
-4.29052
-4.29072
-4.29091
-4.29106
-4.29117
-4.29117
-4.291
-4.29063
-4.41407
-4.41415
-4.41424
-4.41435
-4.41448
-4.41462
-4.41477
-4.41493
-4.41511
-4.4153
-4.41549
-4.41568
-4.41587
-4.41603
-4.41617
-4.41624
-4.4162
-4.41599
-4.41562
-4.53933
-4.53941
-4.53949
-4.5396
-4.53971
-4.53984
-4.53998
-4.54014
-4.5403
-4.54047
-4.54065
-4.54084
-4.54101
-4.54117
-4.54128
-4.54132
-4.54123
-4.54095
-4.54047
-4.66458
-4.66465
-4.66474
-4.66483
-4.66494
-4.66506
-4.66519
-4.66533
-4.66548
-4.66564
-4.66582
-4.66599
-4.66616
-4.66631
-4.66642
-4.66645
-4.66633
-4.66601
-4.66547
-4.78983
-4.7899
-4.78997
-4.79006
-4.79016
-4.79026
-4.79038
-4.79051
-4.79065
-4.79081
-4.79097
-4.79114
-4.79131
-4.79147
-4.7916
-4.79164
-4.79153
-4.7912
-4.79066
-4.91507
-4.91513
-4.9152
-4.91528
-4.91536
-4.91546
-4.91557
-4.91569
-4.91582
-4.91596
-4.91612
-4.91629
-4.91647
-4.91664
-4.91679
-4.91688
-4.91682
-4.9165
-4.91593
-5.0403
-5.04036
-5.04042
-5.04049
-5.04057
-5.04065
-5.04075
-5.04085
-5.04097
-5.04111
-5.04126
-5.04142
-5.04161
-5.04181
-5.042
-5.04216
-5.04218
-5.04187
-5.04126
-5.16554
-5.16559
-5.16564
-5.1657
-5.16576
-5.16584
-5.16592
-5.16601
-5.16612
-5.16623
-5.16637
-5.16654
-5.16673
-5.16696
-5.16721
-5.16747
-5.16761
-5.16732
-5.16667
-5.29077
-5.29081
-5.29085
-5.2909
-5.29095
-5.29101
-5.29108
-5.29116
-5.29125
-5.29135
-5.29147
-5.29162
-5.29182
-5.29206
-5.29239
-5.29279
-5.29314
-5.29291
-5.29224
-5.41599
-5.41603
-5.41606
-5.4161
-5.41614
-5.41618
-5.41623
-5.41629
-5.41636
-5.41644
-5.41654
-5.41667
-5.41684
-5.41708
-5.41745
-5.41803
-5.41877
-5.41868
-5.41813
-5.54122
-5.54124
-5.54126
-5.54129
-5.54131
-5.54134
-5.54138
-5.54142
-5.54146
-5.54152
-5.54158
-5.54167
-5.54179
-5.54197
-5.5423
-5.54302
-5.54433
-5.54477
-5.54479
-5.66644
-5.66645
-5.66647
-5.66648
-5.66649
-5.66651
-5.66653
-5.66655
-5.66657
-5.66659
-5.66662
-5.66665
-5.6667
-5.66679
-5.66698
-5.6675
-5.669
-5.67085
-5.67247
)
;

boundaryField
{
    leftWall
    {
        type            calculated;
        value           nonuniform List<scalar> 
50
(
748.278
689.473
630.73
572.054
513.445
454.906
396.438
338.044
246.868
123.239
31.1785
-0.376056
-0.793245
-1.0881
-1.29068
-1.42487
-1.54812
-1.67163
-1.79535
-1.91921
-2.04321
-2.16735
-2.29162
-2.41602
-2.54053
-2.66514
-2.78983
-2.9146
-3.03943
-3.16433
-3.28927
-3.41423
-3.53923
-3.66426
-3.78932
-3.9144
-4.0395
-4.16462
-4.28976
-4.4149
-4.54005
-4.66519
-4.7903
-4.91539
-5.04044
-5.16544
-5.29036
-5.41532
-5.54021
-5.66561
)
;
    }
    rightWall
    {
        type            calculated;
        value           nonuniform List<scalar> 
50
(
743.856
685.296
626.78
568.406
510.15
451.987
393.825
335.631
244.975
121.714
30.152
-0.523573
-0.804066
-1.07774
-1.27635
-1.4174
-1.54057
-1.66418
-1.78819
-1.91249
-2.03754
-2.16362
-2.29007
-2.4156
-2.54037
-2.66504
-2.78963
-2.91413
-3.03899
-3.16449
-3.29016
-3.41572
-3.54117
-3.66657
-3.79149
-3.91591
-4.04059
-4.16554
-4.29063
-4.41562
-4.54047
-4.66547
-4.79066
-4.91593
-5.04126
-5.16667
-5.29224
-5.41813
-5.54479
-5.67247
)
;
    }
    lowerWall
    {
        type            calculated;
        value           nonuniform List<scalar> 
62
(
777.707
777.445
776.893
776.051
774.939
773.581
772.006
770.243
768.323
766.28
764.153
761.978
759.788
757.609
755.454
753.335
751.313
749.529
748.11
746.943
746.241
746.039
745.795
716.431
657.51
598.504
539.46
480.376
421.25
362.045
302.708
273.66
273.768
274.071
274.652
721.288
662.881
604.303
545.366
486.156
426.848
367.445
307.915
750.442
751.215
752.187
753.277
754.488
755.827
757.362
758.95
760.457
761.755
762.965
764.576
766.29
766.738
769.826
771.7
772.226
772.936
773.17
)
;
    }
    atmosphere
    {
        type            calculated;
        value           nonuniform List<scalar> 
46
(
-5.72915
-5.72904
-5.72904
-5.72904
-5.72904
-5.72904
-5.72904
-5.72904
-5.72904
-5.72904
-5.72904
-5.72904
-5.72904
-5.72904
-5.72904
-5.72904
-5.72904
-5.72904
-5.72904
-5.72904
-5.72904
-5.72904
-5.72904
-5.72905
-5.72905
-5.72905
-5.72905
-5.72906
-5.72907
-5.72907
-5.72908
-5.72909
-5.7291
-5.72911
-5.72912
-5.72913
-5.72915
-5.72915
-5.72916
-5.72917
-5.72917
-5.72916
-5.72915
-5.72912
-5.72906
-5.73833
)
;
    }
    defaultFaces
    {
        type            empty;
    }
}


// ************************************************************************* //
