/*--------------------------------*- C++ -*----------------------------------*\
  =========                 |
  \\      /  F ield         | OpenFOAM: The Open Source CFD Toolbox
   \\    /   O peration     | Website:  https://openfoam.org
    \\  /    A nd           | Version:  9
     \\/     M anipulation  |
\*---------------------------------------------------------------------------*/
FoamFile
{
    format      ascii;
    class       volScalarField;
    location    "9.13";
    object      k;
}
// * * * * * * * * * * * * * * * * * * * * * * * * * * * * * * * * * * * * * //

dimensions      [0 2 -2 0 0 0 0];

internalField   nonuniform List<scalar> 
2268
(
8.92684e-05
0.00023141
0.000342261
0.000429265
0.000500759
0.000560558
0.000610758
0.000652771
0.000687909
0.000717595
0.000743247
0.000766006
0.000785873
0.000800563
0.000804527
0.000788887
0.000747659
0.000693451
0.00061906
0.000537997
0.00045481
0.000322637
0.000150728
0.000196989
0.00053657
0.00076484
0.00094634
0.00109636
0.00122217
0.00132806
0.00141707
0.00149193
0.00155513
0.00160921
0.0016557
0.00169414
0.00172053
0.00172642
0.00169995
0.00163299
0.0015305
0.00138971
0.00122863
0.0010531
0.00076458
0.000341062
0.000282921
0.000717745
0.000998331
0.00122142
0.00140642
0.00156181
0.0016927
0.00180295
0.00189594
0.00197466
0.00204179
0.00209886
0.00214503
0.00217589
0.00218284
0.0021548
0.00208474
0.00197621
0.00182878
0.0016489
0.00142713
0.00107271
0.000484989
0.00035647
0.000863923
0.00117939
0.00142877
0.00163578
0.00180977
0.00195639
0.00208002
0.00218451
0.00227317
0.00234864
0.00241248
0.00246362
0.0024976
0.00250639
0.0024802
0.00241301
0.00230765
0.00216541
0.00198482
0.00174536
0.00135854
0.000630149
0.000420869
0.000993744
0.0013381
0.00160775
0.00183122
0.00201886
0.00217688
0.00231013
0.0024229
0.00251876
0.00260036
0.00266923
0.00272424
0.0027611
0.00277258
0.00275025
0.00268887
0.00259077
0.00245876
0.00228694
0.00204766
0.00164888
0.000789836
0.000479157
0.0011136
0.00148456
0.00177185
0.00200894
0.00220746
0.00237427
0.00251481
0.00263383
0.00273518
0.00282156
0.00289441
0.00295274
0.00299257
0.00300748
0.00299044
0.00293705
0.00284883
0.00272997
0.00257312
0.00234875
0.00196082
0.000989758
0.000533539
0.00122678
0.00162365
0.00192749
0.00217663
0.00238422
0.00255798
0.00270409
0.00282784
0.00293341
0.00302361
0.00309973
0.00316108
0.00320402
0.00322301
0.00321229
0.00316867
0.00309262
0.00298874
0.00285115
0.00265472
0.00230749
0.00129396
0.000585551
0.00133554
0.00175851
0.00207858
0.00233876
0.00255402
0.0027332
0.00288341
0.00301062
0.00311937
0.00321259
0.00329151
0.00335573
0.00340198
0.00342557
0.00342194
0.00338926
0.00332765
0.0032401
0.00312449
0.00296371
0.00268972
0.00186599
0.000219716
0.000472944
0.000658155
0.000736284
0.000772191
0.000789559
0.000786075
0.000773674
0.000744189
0.00070444
0.000644551
0.000560432
0.000508834
0.000504464
0.00046685
0.000397518
0.000298153
0.000198594
0.000105503
0.000426477
0.00101023
0.00136929
0.001542
0.0016254
0.0016636
0.00166729
0.00164209
0.00158626
0.00151099
0.0013931
0.00123801
0.00114589
0.00111601
0.00102795
0.000880681
0.000674534
0.000447846
0.000216549
0.000527375
0.00130322
0.00173058
0.00194432
0.00205103
0.00209923
0.00210578
0.00207578
0.00201061
0.00191953
0.0017928
0.00163724
0.00152288
0.00144893
0.0013306
0.00115292
0.000907734
0.000625093
0.000308415
0.000593548
0.00153559
0.00200389
0.00224019
0.00235799
0.00241015
0.00241694
0.00238373
0.00231344
0.00221572
0.00208772
0.00193804
0.00181048
0.00170374
0.00156221
0.00136803
0.00110464
0.000794003
0.000393772
0.000680933
0.0017519
0.00225291
0.00249692
0.00261665
0.0026682
0.00267331
0.00263756
0.00256441
0.00246405
0.0023376
0.00219314
0.00205615
0.00192543
0.00176459
0.0015583
0.00128695
0.000959597
0.000474726
0.000815957
0.0019961
0.0025017
0.00273713
0.00285086
0.00289811
0.00290011
0.00286226
0.00278779
0.00268694
0.0025631
0.00242217
0.00227759
0.00212884
0.00195208
0.0017349
0.00145724
0.00111913
0.000554864
0.00106964
0.00229678
0.0027591
0.00296965
0.0030709
0.00311105
0.0031089
0.00306926
0.00299469
0.00289474
0.00277377
0.00263478
0.00248372
0.00232066
0.00213079
0.00190325
0.00161655
0.00126572
0.000641491
0.00167684
0.00265996
0.00302375
0.00319725
0.00328161
0.00331278
0.00330582
0.00326461
0.00319098
0.00309302
0.00297471
0.00283637
0.00267964
0.00250464
0.00230327
0.00206463
0.001767
0.00139911
0.000722401
0.000661951
0.00150172
0.00196668
0.00231213
0.00258822
0.00281337
0.0029987
0.0031531
0.0032839
0.00339624
0.00349315
0.00357573
0.00364371
0.00369474
0.00372558
0.00373367
0.00371935
0.0036835
0.0036247
0.0035433
0.00343312
0.00326279
0.00291549
0.000762205
0.00172514
0.00225138
0.00263241
0.00292556
0.00315755
0.00334432
0.00349843
0.00362973
0.00374431
0.00384528
0.00393349
0.00400816
0.0040678
0.00411076
0.00413639
0.00414579
0.00414083
0.00411854
0.00407608
0.00401496
0.00393479
0.00382157
0.000891022
0.00196783
0.00256146
0.00297937
0.00327383
0.0034988
0.003677
0.00382425
0.00395254
0.00406833
0.00417472
0.00427179
0.00435755
0.00442945
0.00448714
0.00453171
0.00456402
0.00458409
0.0045858
0.00457038
0.00454262
0.00451369
0.00449312
0.00108131
0.00222016
0.00291019
0.00337785
0.003621
0.00382533
0.00398844
0.00412405
0.00424803
0.00436606
0.00448203
0.00459495
0.00469866
0.00478809
0.00486388
0.00493017
0.00498564
0.00502576
0.00503444
0.00503323
0.00502519
0.00502228
0.00505055
0.00125211
0.00249165
0.00322656
0.00363347
0.00382778
0.0040596
0.00425029
0.00438241
0.00450344
0.00462941
0.0047573
0.00488673
0.00500622
0.00510207
0.00517715
0.00523456
0.00527916
0.00532542
0.00537894
0.0054167
0.00542215
0.00544869
0.00554301
0.00163147
0.00262594
0.00322786
0.00363637
0.00391438
0.00420247
0.00441418
0.00457056
0.0047036
0.00483842
0.00497676
0.00511719
0.00525242
0.00535684
0.00542347
0.00548119
0.00555479
0.00561892
0.00567827
0.00575881
0.00579104
0.00579728
0.00585874
0.00205704
0.00272104
0.00324749
0.0036661
0.0039789
0.00426668
0.00449584
0.00467826
0.00484397
0.0050034
0.00515871
0.00530941
0.00544611
0.00555488
0.00563402
0.00570462
0.00578032
0.0058494
0.00590189
0.00597001
0.00603226
0.00606659
0.00612075
0.00221937
0.00278417
0.00327089
0.0036824
0.00402424
0.00431638
0.00456357
0.00477601
0.00496787
0.00514787
0.00531956
0.00548182
0.00562384
0.00573874
0.00583101
0.00590989
0.00598457
0.00605595
0.00611828
0.00618428
0.00624866
0.00629261
0.00632692
0.00230134
0.00283445
0.00330717
0.0037157
0.00406897
0.00437453
0.00463974
0.00487325
0.00508513
0.00528262
0.00546996
0.00564578
0.005799
0.00592208
0.0060223
0.00610856
0.00618635
0.00625849
0.00632486
0.00639081
0.00645419
0.00650401
0.00653837
0.00235052
0.00287602
0.00334715
0.00375781
0.00411837
0.00443596
0.00471702
0.00496859
0.00519786
0.00541077
0.00561142
0.0057984
0.00596238
0.00609715
0.00620935
0.00630702
0.00639301
0.00646976
0.00653993
0.00660687
0.00667
0.00672354
0.00676381
0.00237858
0.00290968
0.00338648
0.00380291
0.00417149
0.0045002
0.00479521
0.00506246
0.00530732
0.00553433
0.00574648
0.00594297
0.00611785
0.00626687
0.00639422
0.00650603
0.00660403
0.0066896
0.0067661
0.00683685
0.00690239
0.00696026
0.00700712
0.00239405
0.00293785
0.00342484
0.00384995
0.00422771
0.00456734
0.00487513
0.00515641
0.00541555
0.00565572
0.00587897
0.00608521
0.00627173
0.00643602
0.00657978
0.00670683
0.0068187
0.00691618
0.00700248
0.00708101
0.00715282
0.00721684
0.00727028
0.00240231
0.00296304
0.00346375
0.00389949
0.00428732
0.0046379
0.00495785
0.00525216
0.00552452
0.0057772
0.00601191
0.00622922
0.00642822
0.00660798
0.00676859
0.00691163
0.00703859
0.0071502
0.00724934
0.00733914
0.00742067
0.00749331
0.00755453
0.00240456
0.00298725
0.00350464
0.00395243
0.00435102
0.00471272
0.00504456
0.00535132
0.00563621
0.00590122
0.00614814
0.00637793
0.00659056
0.00678573
0.0069633
0.00712339
0.00726685
0.00739461
0.00750916
0.00761304
0.00770712
0.00779085
0.00786196
0.00239941
0.00301339
0.00354879
0.00400949
0.00441954
0.00479263
0.00513636
0.00545538
0.00575265
0.00603039
0.00629051
0.0065341
0.00676156
0.00697286
0.00716767
0.00734584
0.00750753
0.00765351
0.00778588
0.00790646
0.00801584
0.00811331
0.00819686
0.00239999
0.00304142
0.00359661
0.00407139
0.00449359
0.00487846
0.00523425
0.00556574
0.00587584
0.00616718
0.00644169
0.0067005
0.00694414
0.00717272
0.00738597
0.00758352
0.00776521
0.00793168
0.00808435
0.00822436
0.00835194
0.00846613
0.0085651
0.00239938
0.00307251
0.00364875
0.00413869
0.00457378
0.00497093
0.0053392
0.00568375
0.00600765
0.0063138
0.00660411
0.00687974
0.00714126
0.0073888
0.00762215
0.00784092
0.00804487
0.00823429
0.00840991
0.00857223
0.00872105
0.00885521
0.00897289
0.00240534
0.00310587
0.00370584
0.00421184
0.00466061
0.00507076
0.00545222
0.00581076
0.00614977
0.00647219
0.00677997
0.00707428
0.0073557
0.0076244
0.00788016
0.00812261
0.00835142
0.0085665
0.00876798
0.00895574
0.00912912
0.00928675
0.00942667
0.00240396
0.00314333
0.00376814
0.00429125
0.00475458
0.00517865
0.00557438
0.00594815
0.00630377
0.00664415
0.00697132
0.00728647
0.00759021
0.00788268
0.00816368
0.00843279
0.00868951
0.00893342
0.00916407
0.0093808
0.00958246
0.0097674
0.00993343
0.00240437
0.0031845
0.00383591
0.00437722
0.00485614
0.00529528
0.00570661
0.00609712
0.00647105
0.00683136
0.00718014
0.00751864
0.00784747
0.00816678
0.00847633
0.00877557
0.00906382
0.00934029
0.00960401
0.00985377
0.0100879
0.0103045
0.0105009
0.00240536
0.00322961
0.00390926
0.00446993
0.00496567
0.00542126
0.00584975
0.00625874
0.00665295
0.00703543
0.00740837
0.0077731
0.00813024
0.00847993
0.00882183
0.00915528
0.00947931
0.00979274
0.0100941
0.0103817
0.0106532
0.0109063
0.011138
0.00240315
0.00327894
0.00398812
0.00456955
0.0050835
0.00555711
0.00600451
0.00643397
0.00685069
0.00725792
0.00765795
0.0080522
0.00844135
0.00882549
0.00920418
0.00957656
0.00994137
0.010297
0.0106414
0.0109723
0.0112869
0.0115822
0.0118547
0.00240841
0.0033313
0.00407252
0.00467618
0.00520989
0.00570323
0.00617151
0.00662368
0.0070654
0.00750031
0.00793077
0.00835834
0.00878373
0.00920701
0.00962762
0.0100445
0.0104559
0.0108598
0.0112537
0.0116345
0.0119987
0.0123426
0.0126622
0.00239991
0.00338755
0.00416246
0.00478988
0.00534499
0.00585993
0.00635124
0.0068286
0.00729816
0.00776398
0.00822868
0.00869388
0.00916037
0.00962821
0.0100967
0.0105644
0.0110293
0.0114888
0.0119396
0.0123778
0.0127992
0.0131993
0.0135733
0.00240158
0.00344739
0.00425783
0.00491056
0.00548879
0.00602732
0.00654401
0.0070493
0.0075499
0.00805027
0.0085534
0.00906114
0.00957431
0.0100929
0.0106161
0.0111422
0.0116686
0.0121921
0.0127084
0.013213
0.0137005
0.0141654
0.014602
0.00240235
0.0035108
0.00435835
0.00503792
0.00564106
0.00620532
0.00674991
0.00728612
0.00782128
0.00836033
0.00890663
0.00946231
0.0100284
0.0106049
0.0111907
0.0117838
0.012381
0.0129782
0.0135704
0.0141517
0.0147156
0.0152554
0.0157642
0.00240292
0.00357763
0.00446343
0.0051714
0.00580132
0.00639357
0.00696876
0.00753913
0.00811267
0.00869491
0.00928969
0.00989947
0.0105255
0.0111679
0.0118253
0.0124953
0.0131741
0.0138565
0.0145364
0.0152064
0.0158588
0.0164851
0.0170771
0.00240927
0.00364785
0.00457235
0.00531019
0.00596881
0.0065914
0.00720006
0.00780801
0.00842404
0.00905437
0.00970339
0.0103741
0.0110679
0.0117851
0.0125243
0.0132825
0.0140551
0.014836
0.0156175
0.0163906
0.0171456
0.0178721
0.0185599
0.00240515
0.00371837
0.00468398
0.00545323
0.00614245
0.00679779
0.00744287
0.00809199
0.00875485
0.00943844
0.0101479
0.0108868
0.011657
0.012459
0.0132913
0.0141506
0.0150313
0.0159261
0.0168254
0.0177183
0.0185925
0.0194353
0.0202341
0.00240982
0.00379146
0.00479725
0.0055991
0.00632078
0.00701128
0.00769578
0.00838973
0.00910385
0.00984608
0.0106224
0.0114372
0.0122931
0.0131908
0.0141289
0.0151037
0.0161088
0.0171353
0.0181716
0.0192042
0.0202178
0.0211962
0.0221237
0.00240338
0.00386308
0.00491043
0.00574596
0.00650186
0.0072299
0.00795681
0.00869924
0.00946902
0.0102752
0.011125
0.0120237
0.0129749
0.0139798
0.0150375
0.0161439
0.0172919
0.0184711
0.0196674
0.0208639
0.0220413
0.023179
0.0242569
0.00240956
0.00393451
0.00502125
0.0058913
0.00668321
0.00745117
0.00822338
0.00901773
0.00984735
0.0107226
0.0116521
0.0126426
0.0136988
0.014823
0.016015
0.0172709
0.0185831
0.0199396
0.0213236
0.022714
0.0240859
0.0254125
0.0266673
0.00241104
0.00400041
0.00512617
0.0060319
0.00686179
0.00767209
0.00849231
0.00934166
0.0102347
0.0111836
0.0121985
0.0132879
0.0144585
0.0157142
0.017056
0.018481
0.0199816
0.0215449
0.0231511
0.0247735
0.0263795
0.0279327
0.0293976
0.00240207
0.00405657
0.00522094
0.00616396
0.00703416
0.00788924
0.00875987
0.00966665
0.0106259
0.0116517
0.0127565
0.0139511
0.0152446
0.0166432
0.0181506
0.0197659
0.0214831
0.0232891
0.0251612
0.0270657
0.0289582
0.0307879
0.0325049
0.00241045
0.00409792
0.00529971
0.00628288
0.00719666
0.00809909
0.00902196
0.00998755
0.0110143
0.0121188
0.0133162
0.0146204
0.0160434
0.0175953
0.0192836
0.021112
0.0230784
0.0251717
0.027367
0.0296212
0.0318722
0.0340454
0.0360679
0.00240925
0.00411564
0.0053559
0.00638423
0.00734593
0.00829826
0.00927426
0.0102985
0.0113922
0.012575
0.0138653
0.0152806
0.0168372
0.0185503
0.0204337
0.0224989
0.024752
0.0271882
0.0297827
0.0324805
0.0351916
0.0378012
0.0401972
0.0024091
0.00410044
0.00538308
0.00646486
0.00747987
0.00848404
0.00951243
0.010593
0.0117506
0.0130085
0.0143888
0.0159133
0.0176036
0.019482
0.0215718
0.0238969
0.0264787
0.0293263
0.0324208
0.0356935
0.0390121
0.0421915
0.0450478
0.00241014
0.00403987
0.00537628
0.00652409
0.0075985
0.00865466
0.00973209
0.0108639
0.0120793
0.0134058
0.0148695
0.0164971
0.0183163
0.0203584
0.0226599
0.0252641
0.0282171
0.0315552
0.0352781
0.0393093
0.0434561
0.0474075
0.0508339
0.00240276
0.00392607
0.00533377
0.00656492
0.00770391
0.00880888
0.00992836
0.0111028
0.0123669
0.0137521
0.0152888
0.0170082
0.018945
0.021141
0.0236499
0.0265411
0.0298981
0.0338044
0.0383058
0.0433435
0.0486601
0.0537232
0.0578508
0.00358405
0.00388476
0.00525953
0.00659102
0.00779784
0.00894386
0.0100944
0.0113001
0.012601
0.0140322
0.0156274
0.017422
0.0194576
0.021787
0.0244831
0.0276467
0.0314112
0.0359325
0.0413505
0.0476997
0.0547277
0.0615722
0.066514
0.0172054
0.00531178
0.00517603
0.0065973
0.007876
0.00905138
0.0102198
0.011444
0.0127686
0.0142309
0.0158669
0.0177152
0.0198228
0.0222523
0.0250938
0.0284796
0.0325968
0.0376932
0.0440632
0.0519903
0.0615469
0.0718128
0.0774224
0.0839826
0.0136545
0.00528803
0.00658597
0.0079253
0.00911524
0.0102897
0.0115214
0.0128571
0.014335
0.0159919
0.0178682
0.020014
0.0224976
0.02542
0.0289338
0.0332649
0.0387377
0.0458123
0.0551747
0.0679978
0.0866907
0.0913633
0.00204243
0.0017723
0.001776
0.00202014
0.00369469
0.00363608
0.00362186
0.00365154
0.00447801
0.00446582
0.00445145
0.0044349
0.00508457
0.00509357
0.00508039
0.00503772
0.00565446
0.00566479
0.00558875
0.00550267
0.00593914
0.00599223
0.00593355
0.00584942
0.00618317
0.00619237
0.00615779
0.00610116
0.00635405
0.00635615
0.0063391
0.00631028
0.00655426
0.00655656
0.00654972
0.00653606
0.00678093
0.00678605
0.00678542
0.00677974
0.00702923
0.00703798
0.00704155
0.00704035
0.0072983
0.00731125
0.00731888
0.00732143
0.00758865
0.007606
0.00761812
0.00762489
0.00790297
0.00792489
0.00794176
0.00795331
0.00824642
0.0082738
0.00829618
0.00831329
0.00862532
0.00865941
0.00868843
0.0087121
0.00904609
0.00908831
0.00912527
0.00915671
0.00951537
0.00956727
0.00961366
0.00965427
0.0100404
0.0101037
0.0101612
0.0102125
0.0106292
0.0107059
0.0107763
0.0108402
0.0112911
0.0113832
0.0114687
0.0115472
0.0120364
0.0121465
0.0122494
0.0123447
0.012877
0.0130078
0.0131307
0.0132454
0.0138262
0.0139807
0.0141266
0.0142636
0.0148987
0.0150805
0.0152528
0.0154151
0.0161111
0.0163241
0.0165266
0.0167179
0.0174816
0.0177304
0.0179673
0.0181916
0.0190307
0.0193204
0.0195966
0.0198584
0.020781
0.0211177
0.0214387
0.0217431
0.0227583
0.0231489
0.0235211
0.0238739
0.0249929
0.0254455
0.0258762
0.0262839
0.0275211
0.028045
0.0285426
0.0290125
0.0303887
0.0309949
0.0315686
0.0321084
0.0336561
0.0343567
0.0350164
0.0356338
0.0374051
0.0382129
0.0389678
0.0396689
0.0417481
0.0426747
0.0435313
0.0443179
0.0468377
0.04789
0.0488472
0.0497127
0.0528768
0.0540493
0.0550916
0.0560133
0.0601274
0.061388
0.0624715
0.0634006
0.0689177
0.0701778
0.0712093
0.0720567
0.0796271
0.0806872
0.0814953
0.0821219
0.0925601
0.0930483
0.0933794
0.0936157
0.00283726
0.00321795
0.00342401
0.0035384
0.00359544
0.00361256
0.00359847
0.00355585
0.00348614
0.00339306
0.00327804
0.00313906
0.00297441
0.00278342
0.00256415
0.00230534
0.0019888
0.00158471
0.000806376
0.00374425
0.00385263
0.0039303
0.00397797
0.00399907
0.00399685
0.00397311
0.00392863
0.0038634
0.00377654
0.00366346
0.00352022
0.00334471
0.00313465
0.00288945
0.00259809
0.00224346
0.00177665
0.000867285
0.00440695
0.00439676
0.0043961
0.00439375
0.00438447
0.00436487
0.00433139
0.0042831
0.00421987
0.00413821
0.00402583
0.00387698
0.00369173
0.00346477
0.00319434
0.00287206
0.00247808
0.00195088
0.000937224
0.00494809
0.00488054
0.00482933
0.00478871
0.0047539
0.00471903
0.00467422
0.00461895
0.0045547
0.00447679
0.00436286
0.00420722
0.0040188
0.00377667
0.00348099
0.00313002
0.00269983
0.00212483
0.0011722
0.00537284
0.00527491
0.00521029
0.00515624
0.00510568
0.00506019
0.00500358
0.00493828
0.00486635
0.00477728
0.00465412
0.00450684
0.004329
0.00404468
0.00372264
0.00334294
0.00287887
0.00224259
0.00111652
0.00572702
0.00560622
0.00552811
0.00546642
0.00541682
0.00536577
0.0052963
0.00521799
0.00513515
0.00503984
0.00491158
0.00476666
0.00458499
0.00429469
0.00397349
0.00357698
0.00308611
0.00242629
0.00140437
0.00600679
0.00590344
0.00582808
0.0057563
0.00569211
0.00562676
0.00554162
0.00544656
0.00534851
0.00524502
0.00513394
0.0050297
0.00485116
0.00449706
0.00413726
0.00374012
0.00326563
0.00266929
0.0019298
0.00625491
0.00617437
0.00610065
0.00602485
0.00595
0.00587018
0.00577413
0.0056654
0.00554989
0.0054292
0.00530267
0.00516416
0.00494625
0.0046025
0.00422176
0.00381093
0.00333983
0.00274992
0.00194863
0.0065057
0.00644356
0.0063709
0.00629238
0.00621177
0.00612083
0.0060124
0.00588772
0.0057526
0.00560648
0.00544417
0.00524838
0.00498687
0.00465749
0.00427595
0.00384592
0.00335591
0.00274873
0.00194875
0.00676282
0.00671482
0.00664552
0.00656668
0.00648193
0.00638084
0.00625808
0.00611646
0.00596018
0.00578753
0.00558901
0.00534494
0.00504009
0.00469447
0.00430296
0.0038547
0.00333999
0.0027112
0.00194674
0.00703072
0.00699234
0.00692909
0.0068516
0.00676218
0.00665174
0.00651648
0.00635964
0.00618275
0.00598312
0.00575172
0.00547119
0.00513028
0.0047482
0.00432707
0.0038536
0.00331642
0.00267732
0.00194715
0.00731731
0.00728532
0.00722813
0.00715172
0.00705743
0.00693979
0.00679553
0.00662575
0.00643035
0.00620629
0.00594617
0.00563692
0.00526757
0.00484751
0.00438693
0.00387974
0.00331757
0.00266503
0.0019461
0.00762714
0.00760222
0.00755056
0.00747572
0.00737851
0.00725576
0.0071045
0.00692393
0.00671288
0.00646833
0.00618453
0.00585233
0.00546163
0.00501139
0.00451135
0.00396699
0.00337318
0.00269109
0.00194683
0.00796336
0.007948
0.0079037
0.00783258
0.00773514
0.00760935
0.00745267
0.00726339
0.0070397
0.00677872
0.00647597
0.00612508
0.00571817
0.00524822
0.00471757
0.00413843
0.00350631
0.00276676
0.00194552
0.0083325
0.00832898
0.0082945
0.00822981
0.00813498
0.00800854
0.0078484
0.00765261
0.00741912
0.00714527
0.00682744
0.00646097
0.00604004
0.00555711
0.00500827
0.00440035
0.00372054
0.00289424
0.00191623
0.00874206
0.00875259
0.00873019
0.00867451
0.00858504
0.00846053
0.00829919
0.00809913
0.00785831
0.00757431
0.00724417
0.00686425
0.00643001
0.00593529
0.00537359
0.00474035
0.00400962
0.00308859
0.00191829
0.00919932
0.00922627
0.00921828
0.00917408
0.00909261
0.00897255
0.00881227
0.00860997
0.00836371
0.00807132
0.00773031
0.00733767
0.00688962
0.00638078
0.00580313
0.00514257
0.00436052
0.00334247
0.00195122
0.00971172
0.00975784
0.00976677
0.00973655
0.00966558
0.00955234
0.00939515
0.00919227
0.00894181
0.00864178
0.00828994
0.00788365
0.00741939
0.00689181
0.00629152
0.00559895
0.00476523
0.00364726
0.00195175
0.0102874
0.0103558
0.0103845
0.0103708
0.0103128
0.0102085
0.0100562
0.00985391
0.00959983
0.00929197
0.00892816
0.00850579
0.00802129
0.00746888
0.0068379
0.00610569
0.00521735
0.00401072
0.00195176
0.0109354
0.0110297
0.0110812
0.0110869
0.0110443
0.010951
0.0108049
0.010604
0.0103463
0.0100297
0.0096518
0.00920986
0.00869994
0.00811564
0.00744506
0.00666328
0.00571106
0.00441124
0.00205907
0.0116659
0.0117902
0.0118681
0.0118962
0.0118713
0.0117909
0.0116524
0.0114534
0.0111916
0.0108646
0.0104699
0.0100041
0.00946288
0.00883901
0.00811937
0.00727699
0.00624828
0.00484008
0.00225369
0.0124906
0.0126494
0.0127576
0.0128113
0.0128068
0.0127411
0.0126112
0.0124143
0.0121477
0.0118085
0.0113937
0.0108994
0.0103205
0.00964894
0.00887049
0.00795624
0.00683836
0.00530913
0.00246904
0.0134226
0.0136209
0.0137636
0.0138464
0.0138651
0.013816
0.0136958
0.0135012
0.0132289
0.0128754
0.0124369
0.011909
0.0112857
0.0105581
0.00971051
0.00871248
0.00749117
0.00582198
0.0027124
0.0144766
0.0147199
0.0149019
0.0150175
0.0150622
0.0150319
0.0149225
0.0147303
0.0144513
0.0140813
0.0136157
0.0130491
0.0123744
0.0115821
0.010655
0.00956005
0.00821881
0.006387
0.0029749
0.0156691
0.0159635
0.0161898
0.0163423
0.0164161
0.0164066
0.0163094
0.0161199
0.0158334
0.0154449
0.0149487
0.0143383
0.0136057
0.0127395
0.011721
0.0105142
0.00903438
0.00701474
0.00325703
0.0170184
0.0173706
0.0176467
0.0178404
0.0179466
0.0179603
0.0178766
0.0176904
0.017396
0.0169874
0.0164577
0.0157988
0.0150011
0.0140513
0.0129285
0.0115933
0.00995329
0.00771572
0.00355678
0.0185449
0.0189623
0.0192939
0.0195335
0.0196755
0.019715
0.0196465
0.0194645
0.0191623
0.0187327
0.018167
0.0174554
0.0165858
0.0155426
0.0143019
0.0128202
0.0109957
0.0085059
0.00388189
0.0202715
0.0207619
0.0211553
0.0214454
0.021627
0.0216949
0.0216438
0.0214673
0.0211582
0.0207073
0.0201043
0.0193366
0.0183892
0.0172432
0.015871
0.0142234
0.0121884
0.00941008
0.00425728
0.0222238
0.0227957
0.0232574
0.0236029
0.0238276
0.0239268
0.0238953
0.0237265
0.023412
0.022941
0.0223006
0.0214751
0.0204456
0.0191885
0.0176713
0.0158381
0.0135649
0.010459
0.00470916
0.0244309
0.0250935
0.02563
0.0260356
0.0263068
0.0264401
0.0264308
0.0262722
0.025955
0.0254665
0.0247908
0.023908
0.0227942
0.0214199
0.0197454
0.0177063
0.0151644
0.0116857
0.00525356
0.0269268
0.0276895
0.0283071
0.0287768
0.0290974
0.029267
0.0292825
0.0291373
0.0288213
0.0283199
0.0276134
0.0266772
0.0254806
0.0239859
0.0221437
0.0198781
0.0170329
0.0131249
0.00589486
0.0297516
0.0306236
0.0313276
0.0318642
0.0322356
0.0324431
0.0324856
0.0323574
0.0320479
0.0315403
0.0308111
0.0298294
0.0285562
0.0269428
0.0249264
0.0224145
0.0192268
0.0148199
0.00664476
0.0329544
0.0339435
0.0347367
0.0353404
0.0357621
0.0360076
0.0360786
0.0359713
0.0356748
0.0351703
0.0344301
0.0334162
0.0320793
0.0303564
0.0281659
0.0253914
0.021819
0.0168299
0.00752917
0.036596
0.0377064
0.0385875
0.0392545
0.0397226
0.0400036
0.0401034
0.0400204
0.0397443
0.0392547
0.0385196
0.0374934
0.0361147
0.0343023
0.0319492
0.0289044
0.0249055
0.0192362
0.00858465
0.0407531
0.0419816
0.0429421
0.0436624
0.0441682
0.0444789
0.0446055
0.0445495
0.0443018
0.0438411
0.0431315
0.0421202
0.0407325
0.0388658
0.0363797
0.0330742
0.028615
0.0221521
0.00985985
0.0455214
0.0468521
0.0478722
0.0486274
0.049156
0.0494862
0.0496348
0.049607
0.0493953
0.0489785
0.0483186
0.0473566
0.0460055
0.0441394
0.0415775
0.0380523
0.0331218
0.0257405
0.0114205
0.051017
0.0524142
0.053459
0.0542198
0.054749
0.0550838
0.0552463
0.0552453
0.0550759
0.054718
0.0541338
0.0532612
0.0520045
0.0502172
0.0476747
0.0440242
0.0386657
0.0302511
0.0133911
0.057374
0.0587741
0.0597903
0.0605159
0.0610166
0.0613362
0.0615011
0.0615228
0.061399
0.0611126
0.0606286
0.0598872
0.0587912
0.0571828
0.0548015
0.0512021
0.0455704
0.0360784
0.0159934
0.0647343
0.0660402
0.0669561
0.0675962
0.068034
0.0683158
0.0684688
0.0685059
0.0684271
0.0682194
0.0678542
0.0672802
0.0664098
0.0650921
0.0630568
0.0597917
0.054244
0.0438528
0.0195924
0.0732287
0.0743115
0.0750434
0.0755442
0.0758842
0.076105
0.0762307
0.0762729
0.0762333
0.0761038
0.0758646
0.0754789
0.0748812
0.0739521
0.0724593
0.069908
0.065107
0.0545854
0.0248992
0.0829481
0.0836649
0.0841328
0.0844476
0.0846606
0.0848006
0.084884
0.084919
0.0849076
0.0848461
0.0847244
0.0845233
0.0842074
0.0837102
0.0828925
0.0814188
0.0783045
0.0696862
0.0334151
0.0939092
0.0941493
0.0943022
0.0944043
0.0944736
0.0945199
0.0945489
0.0945634
0.0945644
0.0945514
0.0945223
0.0944729
0.0943962
0.0942792
0.0940954
0.0937717
0.0930026
0.0896719
0.0469957
)
;

boundaryField
{
    leftWall
    {
        type            kqRWallFunction;
        value           nonuniform List<scalar> 
50
(
8.92684e-05
0.000196989
0.000282921
0.00035647
0.000420869
0.000479157
0.000533539
0.000585551
0.000661951
0.000762205
0.000891022
0.00108131
0.00125211
0.00163147
0.00205704
0.00221937
0.00230134
0.00235052
0.00237858
0.00239405
0.00240231
0.00240456
0.00239941
0.00239999
0.00239938
0.00240534
0.00240396
0.00240437
0.00240536
0.00240315
0.00240841
0.00239991
0.00240158
0.00240235
0.00240292
0.00240927
0.00240515
0.00240982
0.00240338
0.00240956
0.00241104
0.00240207
0.00241045
0.00240925
0.0024091
0.00241014
0.00240276
0.00358405
0.0172054
0.0839826
)
;
    }
    rightWall
    {
        type            kqRWallFunction;
        value           nonuniform List<scalar> 
50
(
0.000105503
0.000216549
0.000308415
0.000393772
0.000474726
0.000554864
0.000641491
0.000722401
0.000806376
0.000867285
0.000937224
0.0011722
0.00111652
0.00140437
0.0019298
0.00194863
0.00194875
0.00194674
0.00194715
0.0019461
0.00194683
0.00194552
0.00191623
0.00191829
0.00195122
0.00195175
0.00195176
0.00205907
0.00225369
0.00246904
0.0027124
0.0029749
0.00325703
0.00355678
0.00388189
0.00425728
0.00470916
0.00525356
0.00589486
0.00664476
0.00752917
0.00858465
0.00985985
0.0114205
0.0133911
0.0159934
0.0195924
0.0248992
0.0334151
0.0469957
)
;
    }
    lowerWall
    {
        type            kqRWallFunction;
        value           nonuniform List<scalar> 
62
(
8.92684e-05
0.00023141
0.000342261
0.000429265
0.000500759
0.000560558
0.000610758
0.000652771
0.000687909
0.000717595
0.000743247
0.000766006
0.000785873
0.000800563
0.000804527
0.000788887
0.000747659
0.000693451
0.00061906
0.000537997
0.00045481
0.000322637
0.000150728
0.000150728
0.000341062
0.000484989
0.000630149
0.000789836
0.000989758
0.00129396
0.00186599
0.00204243
0.0017723
0.001776
0.00202014
0.000219716
0.000426477
0.000527375
0.000593548
0.000680933
0.000815957
0.00106964
0.00167684
0.000219716
0.000472944
0.000658155
0.000736284
0.000772191
0.000789559
0.000786075
0.000773674
0.000744189
0.00070444
0.000644551
0.000560432
0.000508834
0.000504464
0.00046685
0.000397518
0.000298153
0.000198594
0.000105503
)
;
    }
    atmosphere
    {
        type            inletOutlet;
        inletValue      uniform 0.1;
        value           nonuniform List<scalar> 
46
(
0.1
0.0136545
0.00528803
0.00658597
0.0079253
0.00911524
0.0102897
0.0115214
0.0128571
0.014335
0.0159919
0.0178682
0.020014
0.0224976
0.02542
0.0289338
0.0332649
0.0387377
0.0458123
0.0551747
0.0679978
0.1
0.1
0.1
0.1
0.1
0.1
0.1
0.1
0.1
0.1
0.1
0.1
0.1
0.1
0.1
0.1
0.1
0.1
0.1
0.1
0.1
0.1
0.1
0.1
0.0469957
)
;
    }
    defaultFaces
    {
        type            empty;
    }
}


// ************************************************************************* //
