/*--------------------------------*- C++ -*----------------------------------*\
  =========                 |
  \\      /  F ield         | OpenFOAM: The Open Source CFD Toolbox
   \\    /   O peration     | Website:  https://openfoam.org
    \\  /    A nd           | Version:  9
     \\/     M anipulation  |
\*---------------------------------------------------------------------------*/
FoamFile
{
    format      ascii;
    class       surfaceScalarField;
    location    "29.35";
    object      phi;
}
// * * * * * * * * * * * * * * * * * * * * * * * * * * * * * * * * * * * * * //

dimensions      [0 3 -1 0 0 0 0];

internalField   nonuniform List<scalar> 
1300
(
11.2529
1.87548
-4.16687
11.2529
-5.00872
1.87548
-4.24247
4.24247
-1.18752
1.18752
5.7123
5.54056
-2.37677
2.37677
-2.81787
2.81787
-2.86016
2.86016
-1.06194
1.06194
-1.02826
1.02826
0.693123
-0.693123
-3.42057
3.42057
-1.45621
1.45621
-2.9087
2.9087
6.1281
-6.1281
-3.24576
3.24576
-0.743776
0.743776
-4.26321
15.5161
6.98965
6.98965
-2.37112
2.37112
-1.25395
1.25395
1.41034
-1.41034
9.05089
-9.05089
-4.88402
-5.88491
1.91806
-14.0645
-3.09066
-3.09066
-2.7054
2.7054
-0.829928
1.04555
3.47681
-3.47681
-0.757172
0.757172
-4.32793
0.0854607
-4.32793
4.02692
0.21555
4.02692
-1.3288
0.14128
-1.3288
4.67806
-4.67806
1.07576
0.111759
1.07576
3.9281
-3.9281
-5.71006
11.4224
5.5428
-5.32064
20.8367
-5.93222
11.4728
-3.90048
3.90048
-2.29397
-0.0828012
-2.29397
2.37823
-0.00145546
2.37823
-4.00391
4.00391
-2.60821
-0.209659
-2.60821
2.91783
-0.0999664
2.91783
3.66641
-3.66641
-2.91622
0.0560578
-2.91622
2.70846
0.151703
2.70846
0.771042
1.10443
-2.64652
3.69207
-1.10443
0.0424987
1.02614
0.0357986
1.02614
-1.01453
-0.0137252
-1.01453
1.04984
-0.0215794
1.04984
0.730144
-0.0370213
0.730144
-0.754864
0.0617416
-0.754864
-8.60567
-8.97581
-3.54467
0.124099
-3.54467
-1.47423
0.018019
-1.47423
1.49236
-0.0361575
1.49236
-2.52575
2.52575
-3.25062
0.341923
-3.25062
4.80635
1.32175
4.80635
5.04612
6.20674
16.299
-16.299
10.1709
-2.96586
-0.279895
-2.96586
-3.41136
-5.63954
3.41136
-0.165602
-0.805518
0.0617424
-0.805518
5.62659
1.36306
5.62659
2.58624
0.122224
-2.58624
0.215122
4.62613
-4.62613
1.42329
0.947826
1.42329
-1.19154
1.19154
1.12336
-0.0735239
-1.12336
-0.130583
1.38601
0.0243318
1.38601
-1.40975
-0.000595767
-1.40975
7.30906
-13.194
-7.76957
3.23065
0.18992
-3.23065
0.139992
3.56356
-0.0867496
3.56356
-3.30969
3.30969
-3.61099
0.13418
-3.61099
-0.682245
-0.0749279
-0.682245
0.842064
-0.0848915
0.842064
-4.57587
0.247938
-4.57587
-3.69064
0.440019
3.69064
0.336277
1.25021
-1.25021
-1.4366
0.107806
-1.4366
-4.65899
0.0831205
4.65899
0.0190703
-4.77205
0.0939962
-4.77205
-3.71253
0.101534
3.71253
0.215576
4.58935
1.03724
-4.58935
0.661248
-5.36948
11.5762
-5.88338
11.4262
-3.51649
-0.383987
-3.51649
4.0917
-0.191224
4.0917
2.57011
0.338583
-2.57012
0.276145
2.50434
-0.126115
2.50434
-3.94661
-0.057301
-3.94661
3.80679
0.197127
3.80679
2.54379
-0.0394529
-2.54379
-0.0644124
2.89257
0.0252636
2.89257
3.67239
-0.00597896
3.67239
-3.53943
-0.126983
-3.53943
3.17896
-3.17896
3.08059
0.0983697
-3.08059
0.164369
-5.07402
5.07343
-0.00799946
-5.06602
1.01814
1.01814
0.768968
-0.0388243
0.768968
-0.861792
0.106927
-0.861792
8.34211
-16.1117
8.78153
-17.3872
7.53547
-21.6
8.11458
-17.0904
3.82918
-3.82918
3.76292
0.0662566
-3.76292
0.218255
-1.45606
-0.0181656
-1.45606
-2.28859
-0.237165
-2.28859
2.8579
-0.33215
2.8579
-3.74209
3.74209
-4.12478
0.382685
4.12478
0.68157
2.95386
-0.0612865
-2.95386
-0.0120068
0.924071
0.151687
-0.924071
0.118553
4.86344
-0.237317
4.86344
-4.08519
-0.54094
-4.08519
-1.47495
0.018891
1.47495
-0.0516617
-1.25895
0.0674033
-1.25895
-5.0745
0.00847756
-5.0387
-1.40127
-1.40127
1.30414
4.9962
-3.58567
0.0462352
3.58567
-0.0221044
3.52705
0.215042
-3.52705
0.21736
-3.26327
0.0843108
3.26327
0.0464173
-0.659764
-0.0224808
-0.659764
-1.03481
1.03481
-0.917683
-0.117125
0.917683
-0.0756186
1.40568
-0.155473
1.40568
1.47055
0.0218107
-1.47055
0.0339499
-5.01119
0.239139
-5.01119
4.10238
-0.0106807
4.10238
-3.94906
-0.136132
3.94906
-0.276661
-0.00372289
5.07715
-1.01441
-0.000120152
1.01441
-5.10148
5.10136
-0.665153
0.00538904
0.665153
0.103816
1.02967
0.161873
-1.02967
0.167879
3.85018
-0.0433915
-3.85018
0.0209982
-2.00757
-0.281016
-2.00757
-3.18541
-0.331086
3.18541
-0.327502
-5.11518
-0.0779365
5.19312
-5.13676
1.33688
0.0491257
-1.33688
5.15049
-1.14371
-0.106496
1.14371
-0.108905
1.60399
-0.198303
1.60399
5.12078
-0.257334
-5.12078
0.109585
-4.12021
0.173592
4.12021
-0.0178205
-1.7753
-0.232275
1.7753
-0.171313
-13.1281
14.4911
7.70865
-6.27809
-6.91588
-11.9176
4.4471
7.12912
14.618
-11.817
-9.78299
-11.677
2.86006
-2.69218
-3.72734
3.69032
23.5913
-23.4973
-18.3992
19.0808
20.777
-20.5615
5.70885
5.71351
15.8474
-15.9302
-20.9028
20.5188
15.3826
-15.5922
22.0577
-22.115
-25.8222
25.7788
-16.0929
16.1489
-20.2944
20.1674
-21.0577
20.781
-8.34909
-9.03811
16.5207
-16.3966
19.9942
-20.2741
-19.3809
19.7228
10.0475
4.44359
11.0848
-6.24673
11.9556
-5.22605
12.9347
8.29557
-16.6447
7.81611
-14.732
9.04324
10.951
-8.87763
-3.03999
-17.9699
17.8832
-17.257
17.3034
24.1229
-24.0374
-6.17283
11.8863
-5.25335
12.3825
-11.409
-6.99019
10.0872
4.53073
8.99372
7.527
-9.18364
-2.49338
-24.7986
24.5413
-25.6598
25.1189
0.100176
2.42594
-2.52611
1.35412
-0.862687
3.28862
1.99737
2.1043
2.45271
-2.29084
0.239464
-2.76558
-2.89616
-5.34052
5.44833
5.15721
-5.04545
16.5463
7.04504
16.5654
-16.7494
-6.74798
-16.5102
11.3637
7.71706
11.7464
12.0617
8.71534
12.1632
10.359
-10.3317
-0.0273083
-11.4777
21.8367
1.55464
-18.4678
-13.9371
8.84397
7.00348
8.84251
-9.88966
-6.04059
-9.61351
-11.0167
-9.8861
-11.3478
12.3218
8.19703
12.1305
-15.32
15.3022
9.27079
6.11177
9.17082
-8.9602
-6.63202
-9.02461
27.4848
-6.67876
-20.806
-13.1857
-12.6364
12.9886
9.06906
14.344
11.4348
14.365
8.91621
18.5686
-17.9853
5.34884
-9.94705
-6.14581
-9.78268
9.25807
6.89085
9.40977
-11.7668
-8.52761
-11.7205
-11.9869
-9.07074
11.9929
8.17449
-12.5344
-13.1254
12.6705
8.11051
7.84389
-17.6269
9.24649
-18.2846
-10.9681
-5.42857
-10.7498
10.7867
6.68165
-17.4684
-5.85797
23.6299
-12.679
20.59
-10.8961
-9.37799
-10.9081
-14.8024
-4.57852
-14.3623
-7.99043
7.70941
-8.82266
8.49051
26.8781
-16.2232
-10.655
-12.3784
-8.18309
11.7171
-0.632343
-12.8358
12.8085
-0.880183
12.0545
16.4981
15.8658
-10.8802
-6.37674
-10.6629
10.2702
7.03321
10.3545
16.1044
8.0185
16.32
-16.8171
-7.22038
-16.5691
4.84124
-4.91617
5.71365
-5.69476
15.5794
9.5395
-15.3421
-9.45658
22.9306
-10.775
-12.1555
-5.11967
5.21419
-0.0945194
-1.83104
-0.476922
0.266854
-1.93097
-1.79637
1.86923
0.235071
5.44926
3.65289
-2.41437
2.48177
2.77875
2.70523
-0.190933
2.49883
-2.49344
18.9024
-11.4325
-7.46992
13.9698
-13.8867
-2.59929
-19.3271
16.7278
2.67866
3.00341
-2.94167
-3.94846
-1.39206
-3.91451
2.95203
2.20518
3.10372
2.10718
3.34114
-8.10352
1.56303
6.54049
-5.99633
-3.48242
-13.3463
-6.26657
19.6128
16.6787
7.8626
-16.7883
0.278058
5.2931
-5.32926
-1.5982
-11.7481
8.34822
-9.94642
-15.2172
-6.46086
21.678
-9.58078
-1.08208
9.36573
2.38065
-10.8773
-7.09265
10.7431
1.42012
-12.0645
23.9707
-11.9062
-18.4413
8.51577
13.3209
16.2328
-17.8628
9.31888
8.54388
-4.54188
7.4281
1.41441
7.30199
-19.9269
13.8863
11.322
8.4008
-11.6606
2.04707
-17.8798
25.1708
-22.2875
-2.88326
12.8208
12.35
13.5505
13.3276
-7.78595
21.3365
-3.61877
-18.6687
21.4986
-13.0978
15.783
-28.8808
-29.1106
10.4419
-17.957
22.0769
-4.1199
-5.20679
-10.1132
23.1638
-2.00663
-21.1572
10.1239
-13.9257
-11.8523
25.778
-20.6044
18.4843
-6.26601
-12.2183
-12.6689
-9.44612
12.4953
2.80691
-25.8748
31.2236
-7.30618
7.80232
1.36851
7.82758
10.6081
-15.9764
5.36833
9.99635
-16.2624
6.76112
-22.7375
-12.1616
24.1962
-12.0347
-17.5901
-15.8
-1.79016
4.87545
26.3482
-16.3103
12.1185
4.19173
8.46174
1.89274
-8.56011
-1.22257
0.968068
16.0865
-17.0545
10.3778
10.5001
11.7044
4.38203
10.7702
7.11295
-10.7481
-0.972411
-14.7928
5.72202
-6.61827
-14.5742
20.2962
-16.2679
1.69371
-10.3032
-13.9906
24.2938
-16.449
11.4255
12.5453
18.4587
-19.615
5.62437
-9.74634
-9.86864
10.6435
-17.2618
7.4983
12.7979
15.6088
2.48337
12.7494
11.4468
-19.4311
1.14647
18.9738
-16.4804
3.89016
10.4748
-16.0087
0.20873
-10.5411
2.66285
-15.3418
-14.8055
16.5296
-21.1081
-12.3512
13.5663
2.75362
-13.9026
-0.459732
-4.95471
-3.03572
-5.18698
-3.27737
-5.5453
-11.0633
-1.92695
-9.13636
5.78246
-6.68792
-4.65984
7.01543
1.47509
-4.93581
4.82931
-5.5807
5.3824
-0.210166
13.0186
15.6556
7.4725
-8.47674
15.9492
-15.6078
23.6263
-29.7249
14.1171
15.949
-23.1694
-13.776
2.70125
2.13999
2.61636
13.4485
-14.4149
0.96641
-13.2795
17.5995
-4.31992
-19.5816
6.30208
-6.13309
5.18673
0.526925
5.16856
1.4164
6.846
-8.2624
-4.27836
-4.33002
-9.16322
-13.8594
23.0226
4.7355
-13.1051
8.36963
-12.0626
16.798
0.0785723
-13.1837
16.9848
-10.1388
17.5117
-11.984
5.52774
12.7918
22.3469
-9.55512
16.2481
-6.70862
7.06784
-16.623
-6.79155
-11.2883
18.1792
-13.0055
14.6992
-1.12462
15.8239
-13.7773
3.00224
-2.07284
8.42723
8.64235
16.8088
-12.4268
11.9697
-18.6783
-4.65323
-16.195
-3.39711
1.01905
-13.826
12.8069
12.0445
-11.0255
-3.24231
8.98461
-5.7423
5.68213
-2.84839
-2.83373
-1.84649
-3.06968
1.86897
0.629861
6.31199
0.489208
-3.3376
-2.00423
-1.90042
10.3746
8.52783
-3.83195
3.73743
3.5651
-0.56169
0.958747
2.14497
4.5873
-3.62855
0.678144
3.90915
-2.26352
3.82777
1.46533
-3.84958
-0.0649263
-3.40816
11.7564
3.13233
-5.33751
1.70896
2.38198
-13.8145
19.7415
-11.4156
-8.32593
22.1235
3.06332
-14.4789
16.2637
-13.5851
8.10334
-14.3699
-6.37558
-19.9607
-12.9156
-10.7096
19.0792
-12.313
20.1756
3.86203
-20.4537
24.3157
-12.7399
6.27903
-9.44323
10.9086
-4.05816
-5.38507
11.2657
10.4123
-11.0536
-0.694502
0.212161
8.41941
-8.20725
-1.52701
-7.52334
-16.4089
17.829
-8.25569
17.5746
7.69355
-7.63403
25.2086
6.56495
-14.199
-11.8763
-12.9584
-5.65509
10.5777
-1.79479
-7.22982
-14.0131
7.26927
0.0327147
-19.075
22.0672
-2.99219
-12.0715
-1.81477
14.6355
-18.0972
1.83485
-11.3361
10.7311
12.1455
12.1782
-20.8451
-0.31203
-12.6481
3.17612
-15.8242
15.5261
-6.80311
17.245
-16.0085
11.3486
-14.5334
14.3617
-1.46251
14.7508
-9.38247
6.05525
-15.5014
-12.6944
14.4686
-8.35687
15.8371
-10.1149
25.9521
-17.4211
14.4011
11.551
-2.71196
-8.19617
-13.9712
11.2592
0.429878
8.25746
17.8373
-10.7244
16.8649
8.92446
-18.6708
-8.33729
-25.8596
7.18882
-13.3144
-7.35658
14.5454
11.1021
12.9949
4.67676
-11.7723
17.7881
-19.5783
-5.75347
-9.05204
14.5752
-3.31596
10.1446
-19.1967
-5.19719
13.1094
-0.191712
-12.9177
3.11378
-15.465
5.12997
-20.595
15.9781
-16.4379
1.76961
-7.9027
-3.1662
-3.27511
-2.17204
-3.40867
-7.56725
5.39521
-1.26517
3.56414
-12.5218
12.3301
-5.07766
10.4729
-4.05808
-1.1289
4.22939
1.15301
11.6259
3.0255
-16.8014
-9.25504
14.6246
-5.36952
1.11953
-10.8005
3.82406
8.09942
14.0241
-24.8272
1.65783
-15.1436
-4.06993
6.20992
4.91468
16.9592
2.54427
6.55235
-0.342432
9.09662
2.27393
2.19831
-11.2179
12.1843
1.58909
15.7062
-1.88296
7.41071
3.2856
3.30362
2.02564
5.72251
2.91985
8.72475
0.462351
-3.86767
2.06787
-3.96829
-1.26973
-4.00711
-0.316799
3.72524
-4.04204
10.4963
-1.96849
5.12679
-1.88183
-4.93351
6.81534
-9.35175
-5.4952
-1.58604
-5.60642
7.31538
6.14996
-5.72933
-3.62242
2.39105
-15.3067
11.9789
-12.6734
-2.26108
22.0546
-9.46155
1.2543
-3.18252
-6.26904
-7.6611
7.72603
24.1899
1.01868
12.2837
18.8477
11.755
1.03068
11.986
-16.1059
-10.7515
-16.4179
-0.891829
13.7437
5.61449
20.7337
17.1655
13.8495
-5.34713
-24.9254
20.7198
-8.53558
16.3999
-3.48225
-17.1127
14.6479
8.97842
-17.4015
0.963662
-16.149
-24.6846
-0.344027
12.6741
-11.2819
10.153
7.11723
2.01913
-2.42569
-0.849419
2.54281
-0.344503
8.75212
-0.188762
-8.19513
8.3839
-3.53648
2.26675
-0.429384
4.16682
6.38596
4.41747
-3.77767
-7.81971
-8.81674
-4.99772
-17.1427
2.47018
-8.62013
5.68114
-3.41439
2.8474
4.96951
10.0963
-1.60163
-9.42385
7.34392
-4.49652
5.59979
)
;

boundaryField
{
    wall-4
    {
        type            calculated;
        value           uniform 0;
    }
    velocity-inlet-5
    {
        type            calculated;
        value           uniform -11.2529;
    }
    velocity-inlet-6
    {
        type            calculated;
        value           uniform -1.87548;
    }
    pressure-outlet-7
    {
        type            calculated;
        value           nonuniform List<scalar> 8(4.16687 5.00871 10.7689 12.1465 17.5815 15.0786 17.1236 15.65);
    }
    wall-8
    {
        type            calculated;
        value           uniform 0;
    }
    frontAndBackPlanes
    {
        type            empty;
        value           nonuniform List<scalar> 0();
    }
}


// ************************************************************************* //
