/*--------------------------------*- C++ -*----------------------------------*\
  =========                 |
  \\      /  F ield         | OpenFOAM: The Open Source CFD Toolbox
   \\    /   O peration     | Website:  https://openfoam.org
    \\  /    A nd           | Version:  9
     \\/     M anipulation  |
\*---------------------------------------------------------------------------*/
FoamFile
{
    format      ascii;
    class       volScalarField;
    location    "3.78";
    object      k;
}
// * * * * * * * * * * * * * * * * * * * * * * * * * * * * * * * * * * * * * //

dimensions      [0 2 -2 0 0 0 0];

internalField   nonuniform List<scalar> 
2268
(
0.00062212
0.0015786
0.00230852
0.00285765
0.00328769
0.00362998
0.00390432
0.00412384
0.00429809
0.00443554
0.00454454
0.00463198
0.0047024
0.00475811
0.00479633
0.00479959
0.00471515
0.00442496
0.00399468
0.00364061
0.00320878
0.00243822
0.000919542
0.00134667
0.00364352
0.00515054
0.00630833
0.00722688
0.00796448
0.00855914
0.00903781
0.00942112
0.00972682
0.00997139
0.0101686
0.0103275
0.0104474
0.0105156
0.0104983
0.0103159
0.00981761
0.00899478
0.00822723
0.00729169
0.00555268
0.00229929
0.00190282
0.00482922
0.00667531
0.00809991
0.00923864
0.0101581
0.0109024
0.0115039
0.0119882
0.0123774
0.0126908
0.0129444
0.0131477
0.0132986
0.0133811
0.0133563
0.0131477
0.0126409
0.0118297
0.0109098
0.00968937
0.00754961
0.00329336
0.00237115
0.00577086
0.00784281
0.00943615
0.0107142
0.0117496
0.01259
0.0132711
0.0138218
0.0142666
0.014627
0.01492
0.0151549
0.0153293
0.0154254
0.0154046
0.0151997
0.0147265
0.0139725
0.013016
0.0116733
0.00932069
0.00421624
0.00277563
0.00659689
0.00885513
0.0105776
0.0119588
0.0130792
0.0139898
0.0147292
0.0153286
0.0158149
0.016211
0.0165346
0.0167953
0.0169907
0.0171026
0.0170951
0.0169115
0.0164887
0.015809
0.0148826
0.0135167
0.0110491
0.00515065
0.00313711
0.00735105
0.00977883
0.0116112
0.013076
0.0142632
0.0152281
0.0160122
0.0166492
0.0171678
0.0175922
0.017941
0.0182241
0.0184397
0.0185706
0.0185846
0.0184347
0.0180726
0.0174785
0.0166264
0.015314
0.0128348
0.00623645
0.00347013
0.00805497
0.0106441
0.012576
0.0141123
0.0153542
0.0163624
0.0171817
0.0178481
0.0183921
0.0188395
0.0192096
0.0195133
0.0197495
0.0199031
0.0199458
0.0198393
0.0195464
0.0190464
0.0183001
0.0171097
0.014783
0.00786098
0.00378299
0.0087224
0.0114683
0.0134934
0.0150926
0.0163802
0.0174234
0.0182705
0.0189599
0.0195241
0.0199901
0.0203787
0.0207019
0.0209598
0.0211397
0.021218
0.0211631
0.0209467
0.0205483
0.0199281
0.0189151
0.0169574
0.0111665
0.000750526
0.00205171
0.00279994
0.00315379
0.00330077
0.003326
0.00327815
0.00322909
0.00323166
0.00328039
0.00310794
0.00282544
0.0028361
0.00320813
0.00351691
0.00334731
0.00259274
0.0017189
0.000855602
0.001676
0.00458759
0.00610953
0.0069069
0.00726907
0.00734813
0.00727207
0.00718821
0.00717149
0.00711085
0.0068226
0.00631557
0.00624838
0.00669704
0.00679246
0.0062966
0.00508
0.00335617
0.00153183
0.00230686
0.00606117
0.00793993
0.00891018
0.00934818
0.00945586
0.00938517
0.00927507
0.00919361
0.00905151
0.00872437
0.00827832
0.00816506
0.00835676
0.00821027
0.00752485
0.00619645
0.00429241
0.00196905
0.00292569
0.00735839
0.00942659
0.0104551
0.0109076
0.0110162
0.0109397
0.0108036
0.0106674
0.0104645
0.0101229
0.00972413
0.00954472
0.00950412
0.00915075
0.00830209
0.00692579
0.00494367
0.00229835
0.00359782
0.00867339
0.0108121
0.0118224
0.0122491
0.0123389
0.0122461
0.012082
0.0118983
0.0116495
0.011296
0.0109119
0.0106521
0.0104204
0.00989383
0.00889547
0.00746165
0.00543346
0.00256336
0.00446367
0.0100981
0.0121774
0.0131055
0.0134766
0.0135336
0.0134164
0.0132219
0.0129949
0.0127076
0.0123357
0.0119342
0.011586
0.0111991
0.0105278
0.00939119
0.0078666
0.00582265
0.00278057
0.00590276
0.0117063
0.0135552
0.0143445
0.0146379
0.0146521
0.0145049
0.0142777
0.0140091
0.0136832
0.0132842
0.0128411
0.0123994
0.0118863
0.0110933
0.00982659
0.00817561
0.00613668
0.00294514
0.00894044
0.0135281
0.0149507
0.0155575
0.015758
0.0157231
0.0155422
0.01528
0.0149694
0.0146025
0.014166
0.0136682
0.0131362
0.0125166
0.0116171
0.0102318
0.00840432
0.00634766
0.00299326
0.00423656
0.00972737
0.0127123
0.0148749
0.0165613
0.0179089
0.0189962
0.0198775
0.0205944
0.0211828
0.0216723
0.0220863
0.0224387
0.0227327
0.0229592
0.0231011
0.0231373
0.0230498
0.0228199
0.0224042
0.0216787
0.0203393
0.0175393
0.0048476
0.0110581
0.0143284
0.016653
0.0184239
0.0198229
0.0209464
0.0218536
0.0225879
0.0231918
0.0237001
0.0241415
0.0245349
0.0248877
0.0251948
0.0254443
0.0256263
0.0257344
0.0257543
0.0256492
0.0253323
0.0246378
0.0233122
0.00563876
0.0124387
0.0159304
0.0184124
0.0202069
0.0216197
0.0227623
0.0236811
0.0244111
0.0250143
0.0255294
0.0259927
0.0264294
0.0268514
0.0272544
0.0276237
0.0279619
0.0282821
0.0285748
0.0288076
0.0288916
0.0286686
0.0278788
0.0068007
0.0137959
0.0174671
0.0202468
0.0218826
0.0232859
0.0244583
0.0253777
0.0260762
0.0266799
0.027189
0.0276638
0.0281429
0.0286469
0.0291649
0.0296514
0.0301341
0.0306744
0.0312551
0.031859
0.0323848
0.032664
0.0321351
0.00740114
0.0146501
0.0187572
0.0217134
0.0233092
0.0248219
0.0261036
0.0269378
0.0276316
0.0282391
0.0286888
0.0291264
0.0296051
0.0301424
0.0307218
0.0312461
0.0318317
0.032552
0.0333278
0.03418
0.0352256
0.0365156
0.0365035
0.00660831
0.0142646
0.0191758
0.0223708
0.0241547
0.0258733
0.0272816
0.0281547
0.0288858
0.0295215
0.0298949
0.0302765
0.0307224
0.0312417
0.0318243
0.0324754
0.0331979
0.0339737
0.0347481
0.0355829
0.0368623
0.0381439
0.0380057
0.00619195
0.0140375
0.0193152
0.0231183
0.0248417
0.0261497
0.0274387
0.028473
0.0294065
0.0301673
0.0306785
0.0311342
0.0316047
0.032138
0.032716
0.0333431
0.0341169
0.0349664
0.0356798
0.0364716
0.0376141
0.0384109
0.0387284
0.00642197
0.0143446
0.0192109
0.0227528
0.0248059
0.0262734
0.0275475
0.0286709
0.029651
0.0304576
0.0311245
0.0316979
0.03223
0.0327806
0.0333567
0.0339518
0.0346369
0.0353462
0.0360247
0.0369273
0.038075
0.0388904
0.0389466
0.00675573
0.0147827
0.0192043
0.0223619
0.024619
0.0263243
0.0277192
0.0289034
0.0299084
0.0307629
0.0314818
0.0320847
0.0326169
0.0331287
0.0336509
0.0342015
0.0347864
0.0353991
0.0360598
0.0368943
0.0379115
0.0385307
0.0383145
0.00690597
0.0150518
0.0193773
0.0224133
0.0246885
0.0264442
0.0278657
0.0290709
0.0301005
0.0309779
0.0317091
0.0323088
0.0328166
0.0332782
0.0337308
0.0341989
0.0346954
0.0352319
0.0358088
0.0364109
0.0370473
0.0374221
0.0372
0.00706748
0.0153412
0.0196238
0.0225874
0.0248148
0.0265463
0.0279509
0.029142
0.0301658
0.0310397
0.0317675
0.0323619
0.0328559
0.03329
0.0337016
0.0341155
0.0345442
0.0349885
0.0354258
0.0358149
0.036134
0.0362799
0.0360924
0.00728362
0.015672
0.019882
0.0227565
0.0249099
0.0265901
0.0279562
0.0291125
0.030108
0.0309608
0.0316771
0.0322685
0.0327605
0.0331868
0.0335784
0.0339558
0.0343258
0.0346805
0.0349928
0.0352307
0.0353743
0.0353872
0.0352022
0.00753702
0.0159522
0.0200762
0.0228544
0.0249319
0.026558
0.0278818
0.0289981
0.0299571
0.0307808
0.0314799
0.0320661
0.0325594
0.0329845
0.0333639
0.0337118
0.0340309
0.0343119
0.0345346
0.0346786
0.0347339
0.034685
0.0344996
0.00770949
0.0161348
0.0201787
0.0228694
0.0248761
0.0264505
0.0277331
0.0288114
0.0297353
0.0305306
0.0312116
0.0317906
0.0322832
0.0327066
0.0330762
0.0334009
0.0336815
0.0339112
0.0340785
0.0341724
0.0341868
0.0341128
0.0339324
0.00779138
0.0162075
0.0201783
0.0227935
0.024739
0.0262681
0.0275151
0.0285619
0.0294574
0.0302296
0.0308952
0.0314671
0.0319577
0.0323793
0.032742
0.0330516
0.0333086
0.0335094
0.0336483
0.0337199
0.0337197
0.0336405
0.0334707
0.00780187
0.0161704
0.0200732
0.0226252
0.0245205
0.0260126
0.0272318
0.0282555
0.0291314
0.0298882
0.0305441
0.031112
0.0316025
0.0320249
0.032386
0.0326901
0.032938
0.0331284
0.0332587
0.0333261
0.0333267
0.0332546
0.0331007
0.00776897
0.0160347
0.0198703
0.0223684
0.0242233
0.0256873
0.026887
0.0278966
0.028762
0.0295123
0.0301658
0.0307355
0.0312309
0.0316594
0.0320264
0.032335
0.0325867
0.0327811
0.0329172
0.0329931
0.0330053
0.0329485
0.0328155
0.00770161
0.0158144
0.0195799
0.0220303
0.0238528
0.0252965
0.0264847
0.0274888
0.028353
0.0291055
0.029765
0.0303438
0.030851
0.031293
0.0316742
0.0319973
0.0322637
0.0324738
0.0326268
0.0327209
0.032753
0.0327183
0.0326112
0.00759361
0.0155194
0.0192114
0.0216183
0.0234149
0.0248455
0.0260298
0.0270364
0.0279077
0.0286713
0.0293451
0.0299413
0.0304682
0.0309318
0.0313359
0.0316827
0.0319736
0.0322089
0.0323877
0.0325081
0.0325672
0.0325609
0.0324844
0.0074437
0.0151575
0.0187729
0.0211398
0.0229164
0.0243404
0.0255277
0.0265441
0.0274306
0.0282133
0.0289097
0.0295315
0.0300864
0.0305799
0.0310153
0.0313945
0.0317185
0.0319872
0.0321995
0.0323533
0.0324459
0.0324736
0.0324325
0.0072547
0.0147356
0.0182721
0.0206024
0.0223641
0.0237875
0.0249844
0.0260178
0.0269267
0.0277364
0.0284633
0.0291186
0.0297096
0.0302411
0.0307158
0.0311354
0.0315002
0.0318097
0.0320625
0.0322562
0.0323882
0.0324552
0.0324539
0.00702974
0.0142608
0.0177167
0.0200136
0.0217655
0.0231943
0.024407
0.025464
0.0264026
0.0272465
0.0280116
0.0287081
0.0293429
0.02992
0.0304417
0.0309092
0.0313221
0.0316792
0.0319788
0.0322185
0.0323955
0.0325067
0.0325494
0.00677186
0.0137401
0.0171147
0.0193815
0.0211289
0.0225688
0.0238037
0.0248909
0.0258659
0.0267512
0.0275617
0.0283069
0.0289928
0.0296231
0.0301992
0.0307216
0.0311894
0.0316007
0.0319535
0.0322449
0.0324721
0.0326323
0.0327229
0.00648437
0.0131808
0.0164744
0.0187153
0.0204635
0.0219207
0.0231839
0.0243079
0.0253261
0.0262597
0.0271227
0.0279237
0.0286682
0.0293588
0.0299966
0.030581
0.0311104
0.0315825
0.0319946
0.0323435
0.0326262
0.0328399
0.032982
0.00617001
0.0125898
0.015805
0.018025
0.0197801
0.0212608
0.0225589
0.0237261
0.0247942
0.025783
0.0267055
0.0275696
0.0283798
0.0291381
0.0298448
0.0304984
0.0310965
0.0316361
0.0321138
0.0325261
0.0328696
0.0331414
0.0333389
0.005829
0.011974
0.0151168
0.0173227
0.0190913
0.0206019
0.0219414
0.0231584
0.024283
0.0253338
0.0263228
0.0272571
0.0281405
0.0289741
0.0297572
0.0304876
0.0311619
0.0317763
0.0323265
0.0328085
0.0332185
0.0335532
0.03381
0.00546285
0.0113409
0.0144219
0.0166222
0.0184114
0.0199587
0.0213459
0.0226192
0.0238068
0.0249264
0.0259889
0.0270008
0.0279649
0.0288817
0.0297496
0.0305652
0.0313241
0.0320214
0.0326519
0.0332107
0.0336934
0.0340964
0.0344168
0.00511217
0.0106983
0.013735
0.01594
0.0177572
0.0193476
0.0207886
0.0221243
0.0233812
0.024576
0.025719
0.0268159
0.027869
0.0288777
0.0298395
0.0307498
0.031603
0.0323927
0.0331125
0.0337564
0.0343191
0.0347964
0.0351853
0.00478485
0.0100888
0.0130849
0.0152997
0.0171501
0.0187881
0.0202878
0.0216907
0.0230222
0.0242984
0.0255288
0.0267186
0.0278693
0.0289797
0.030046
0.0310623
0.0320213
0.0329149
0.0337349
0.0344737
0.0351249
0.0356836
0.0361463
0.00448564
0.00954175
0.0124981
0.0147249
0.016611
0.0183
0.0198617
0.0213359
0.0227469
0.02411
0.0254345
0.0267251
0.027983
0.0292061
0.0303894
0.0315253
0.0326044
0.033616
0.0345497
0.0353957
0.0361458
0.0367941
0.0373371
0.00422588
0.00907985
0.0119979
0.014237
0.0161599
0.0179015
0.0195277
0.021076
0.02257
0.0240249
0.02545
0.0268501
0.028226
0.0295749
0.0308903
0.0321628
0.0333799
0.0345278
0.0355924
0.0365607
0.0374225
0.0381705
0.0388007
0.00401435
0.00871554
0.0116008
0.0138536
0.0158144
0.0176095
0.0193009
0.0209246
0.0225041
0.0240548
0.0255869
0.0271056
0.028612
0.0301023
0.0315688
0.0329995
0.0343779
0.0356856
0.0369033
0.0380136
0.0390028
0.039862
0.0405872
0.00385435
0.00845322
0.0113183
0.0135898
0.0155904
0.017439
0.0191947
0.0208931
0.0225584
0.0242077
0.0258526
0.0274997
0.0291506
0.0308016
0.032443
0.0340597
0.0356302
0.037129
0.0385292
0.0398066
0.0409427
0.0419265
0.0427546
0.00374502
0.00829608
0.0111629
0.0134631
0.015506
0.017406
0.0192216
0.0209902
0.0227387
0.0244869
0.0262492
0.0280346
0.0298463
0.0316809
0.0335273
0.0353667
0.0371704
0.0389025
0.0405247
0.0420019
0.0433087
0.0444319
0.04537
0.00368652
0.00826022
0.0111637
0.0135057
0.0155896
0.0175316
0.0193952
0.0212229
0.0230463
0.0248899
0.0267718
0.0287048
0.0306951
0.0327409
0.0348304
0.0369403
0.0390329
0.0410569
0.0429551
0.0446752
0.0461815
0.0474593
0.0485118
0.00369174
0.00840775
0.0113987
0.0137882
0.0158938
0.0178492
0.0197324
0.0215956
0.023477
0.0254061
0.0274061
0.0294943
0.0316817
0.0339706
0.0363506
0.038794
0.0412521
0.0436509
0.0459015
0.0479217
0.0496609
0.0511058
0.052271
0.0038191
0.00893892
0.0120742
0.014468
0.0165173
0.0184108
0.0202535
0.0221084
0.0240182
0.026015
0.0281257
0.0303731
0.0327752
0.0353419
0.0380689
0.0409284
0.0438591
0.0467537
0.0494688
0.051866
0.0538735
0.0554894
0.0567534
0.00428597
0.0104587
0.0137122
0.0158762
0.0176321
0.0192885
0.0209759
0.0227508
0.0246443
0.0266821
0.0288899
0.0312949
0.0339248
0.036803
0.0399407
0.0433203
0.0468729
0.0504474
0.0538023
0.0566794
0.0589839
0.0607534
0.0620796
0.00582671
0.0145291
0.0174422
0.0186098
0.0194852
0.0205535
0.0218959
0.0234896
0.025311
0.0273569
0.0296418
0.0321949
0.0350557
0.0382699
0.0418791
0.0458998
0.050279
0.054825
0.0591217
0.062611
0.0652081
0.0670677
0.0683824
0.0104136
0.0235142
0.0247012
0.0233152
0.0222612
0.0221978
0.0229492
0.0242527
0.0259494
0.027972
0.0303107
0.0329919
0.0360689
0.0396182
0.0437334
0.0485067
0.0539716
0.0599628
0.0658073
0.0700421
0.0728244
0.0746209
0.0757965
0.0241576
0.0379331
0.0350302
0.0295604
0.0256239
0.0239681
0.0239579
0.0249164
0.0264669
0.0284493
0.0308188
0.0335959
0.036847
0.0406838
0.0452694
0.0508254
0.0576118
0.0657785
0.0746641
0.0795715
0.0821568
0.0835883
0.0844364
0.0840666
0.0550352
0.0440347
0.0345911
0.0282064
0.0252282
0.0246156
0.0253176
0.0267631
0.0287131
0.0310951
0.0339236
0.0372739
0.0412835
0.0461754
0.0523113
0.0603105
0.0713348
0.0878339
0.0920483
0.0934539
0.0940534
0.0943641
0.0118069
0.00989513
0.00966415
0.0108059
0.0217898
0.0209282
0.0203544
0.0200793
0.0268717
0.0261812
0.0255012
0.0248698
0.0310832
0.030358
0.0295424
0.0286672
0.0349785
0.0340874
0.0331217
0.0320057
0.0372541
0.0362073
0.0352687
0.034194
0.0381512
0.0374859
0.0369582
0.0358891
0.0382538
0.0377656
0.0372521
0.0362744
0.0376729
0.037173
0.0365535
0.0358215
0.0366907
0.036268
0.0357824
0.0352829
0.0357098
0.0354033
0.035056
0.0346849
0.0349025
0.0346684
0.0343993
0.0341015
0.0342469
0.0340523
0.0338269
0.0335732
0.0337085
0.0335377
0.0333398
0.0331154
0.0332686
0.0331152
0.0329374
0.0327355
0.0329187
0.0327805
0.0326203
0.0324379
0.0326545
0.0325315
0.0323882
0.0322246
0.0324732
0.0323663
0.0322405
0.0320957
0.032372
0.0322824
0.0321749
0.0320495
0.0323482
0.0322773
0.0321891
0.0320838
0.0324001
0.0323492
0.0322814
0.0321967
0.0325284
0.0324986
0.032452
0.0323887
0.0327367
0.0327292
0.0327047
0.0326633
0.0330327
0.0330484
0.0330469
0.033028
0.0334284
0.0334685
0.0334908
0.0334952
0.0339406
0.0340063
0.0340533
0.0340817
0.0345908
0.0346832
0.0347561
0.0348094
0.0354051
0.0355259
0.0356259
0.0357051
0.0364151
0.036566
0.0366945
0.0368007
0.0376581
0.0378408
0.0379992
0.0381335
0.0391773
0.0393935
0.0395831
0.0397465
0.0410227
0.0412738
0.0414956
0.0416886
0.0432515
0.0435385
0.0437928
0.0440151
0.0459295
0.0462522
0.0465379
0.0467882
0.049132
0.0494881
0.0498023
0.0500769
0.0529448
0.0533286
0.0536652
0.0539579
0.0574651
0.0578659
0.0582141
0.0585145
0.0628005
0.0632005
0.0635436
0.0638365
0.0690661
0.0694384
0.0697529
0.070018
0.0763759
0.0766848
0.0769412
0.0771544
0.0848301
0.0850352
0.0852027
0.0853402
0.0944996
0.0945689
0.0946247
0.0946701
0.0148939
0.0163912
0.0171027
0.0174124
0.0174647
0.0173484
0.0171119
0.0167917
0.0164117
0.0159741
0.0154661
0.0148769
0.0142117
0.0134359
0.0123803
0.0108216
0.00868851
0.00635589
0.0028966
0.0199673
0.019941
0.0199207
0.0198458
0.0196943
0.01946
0.0191363
0.0187258
0.0182408
0.0176933
0.0170797
0.0163855
0.0156029
0.0146913
0.0134964
0.01177
0.00922553
0.00617694
0.00282237
0.0239537
0.0231084
0.022564
0.0221755
0.0218457
0.0215042
0.0210824
0.0205588
0.0199588
0.0192918
0.0185757
0.0178094
0.0169779
0.0160309
0.0148109
0.0130414
0.0103347
0.00687167
0.00343873
0.0272994
0.0259125
0.0249867
0.0243556
0.0238853
0.0234584
0.0229124
0.0222404
0.0215216
0.0207435
0.0199398
0.0191283
0.0183102
0.0174595
0.0163919
0.0146591
0.0120486
0.00875215
0.00468602
0.0301329
0.0283335
0.0271208
0.0263004
0.0257051
0.0251752
0.0244696
0.0236377
0.0227845
0.0219256
0.0210363
0.020125
0.0192146
0.0183234
0.0172516
0.0154203
0.0131838
0.0106349
0.00624983
0.0322669
0.0303134
0.0289651
0.0280186
0.0272121
0.0264183
0.0255487
0.0246122
0.0236763
0.022729
0.0217468
0.0207066
0.0195872
0.0183954
0.0171162
0.0156225
0.0137622
0.0111283
0.00631803
0.0337868
0.0318143
0.0303921
0.0293052
0.0282626
0.0273263
0.0263856
0.0253956
0.0243921
0.0233462
0.0222332
0.0210291
0.0197109
0.0183261
0.0169589
0.0154833
0.0137109
0.0107285
0.00503273
0.0344819
0.0326223
0.0312301
0.0300941
0.028996
0.0280011
0.0270171
0.025959
0.0248675
0.023693
0.0224343
0.0210809
0.019619
0.0181119
0.0166284
0.0149692
0.0129227
0.00977595
0.00455613
0.0346197
0.033094
0.0317783
0.0306024
0.0294195
0.0282882
0.0272193
0.0261138
0.0249545
0.0236868
0.0223299
0.0208863
0.0193436
0.017742
0.0161321
0.0143296
0.0120995
0.00890167
0.00396294
0.0344342
0.0332189
0.0320163
0.0308338
0.0295914
0.0283671
0.0272133
0.0260563
0.0248479
0.0235409
0.0221368
0.0206281
0.0190106
0.0173058
0.0155674
0.013636
0.0112585
0.00796496
0.00337341
0.034031
0.0330208
0.0319433
0.0308074
0.0295955
0.028375
0.0271884
0.0259947
0.0247534
0.0234321
0.0220073
0.0204624
0.0187766
0.0169681
0.0150949
0.0129915
0.0104547
0.0071944
0.00300969
0.0335631
0.0326872
0.0317117
0.0306503
0.0295114
0.0283426
0.0271696
0.0259702
0.0247215
0.0234043
0.0219848
0.0204289
0.0187045
0.0168565
0.0148993
0.0126805
0.0100708
0.00692408
0.00308547
0.0331079
0.0323257
0.031435
0.0304536
0.0293977
0.0282953
0.0271607
0.0259824
0.0247507
0.0234553
0.022059
0.0205185
0.0188202
0.0170087
0.0150615
0.0128693
0.0103457
0.00735053
0.00351466
0.0327016
0.0319936
0.0311777
0.0302728
0.0292953
0.0282609
0.0271765
0.0260372
0.0248393
0.0235762
0.0222175
0.0207284
0.019104
0.0173659
0.0154954
0.0134278
0.0110928
0.00827473
0.00405445
0.0323626
0.0317193
0.0309722
0.0301381
0.0292316
0.0282629
0.027235
0.0261456
0.0249926
0.0237712
0.0224625
0.0210435
0.019508
0.0178625
0.0160931
0.0141596
0.0119763
0.00923165
0.00455241
0.0321008
0.0315165
0.0308335
0.0300656
0.0292247
0.0283185
0.0273492
0.0263149
0.0252136
0.0240421
0.0227898
0.0214425
0.0199928
0.0184384
0.0167635
0.0149252
0.0128115
0.0100324
0.00496357
0.0319213
0.0313924
0.0307698
0.0300642
0.0292851
0.0284386
0.0275266
0.0265477
0.0255001
0.0243814
0.0231857
0.0219039
0.0205282
0.0190492
0.0174456
0.0156653
0.0135737
0.0107323
0.00530812
0.0318257
0.03135
0.0307847
0.0301379
0.029417
0.0286269
0.0277691
0.0268429
0.0258466
0.0247785
0.0236346
0.0224082
0.0210909
0.0196677
0.0181118
0.0163627
0.0142717
0.0113788
0.00561613
0.031813
0.0313891
0.0308785
0.0302872
0.0296208
0.028883
0.0280753
0.0271971
0.0262473
0.0252241
0.0241242
0.0229417
0.0216666
0.0202807
0.0187522
0.0170143
0.0149123
0.0119826
0.00591267
0.0318812
0.031508
0.0310497
0.0305105
0.0298947
0.029205
0.0284425
0.0276071
0.0266976
0.0257121
0.0246474
0.0234975
0.0222496
0.0208847
0.0193666
0.0176225
0.0154946
0.0125105
0.00621979
0.0320288
0.0317055
0.0312972
0.0308071
0.030238
0.0295921
0.0288702
0.0280719
0.0271962
0.0262411
0.0252028
0.0240737
0.0228408
0.0214828
0.0199621
0.0182019
0.0160346
0.0129692
0.00650359
0.0322561
0.0319822
0.0316223
0.0311784
0.0306527
0.0300466
0.0293606
0.0285943
0.0277464
0.0268145
0.0257936
0.0246756
0.0234482
0.0220881
0.0205537
0.0187649
0.0165454
0.0133806
0.00674916
0.0325666
0.0323418
0.0320288
0.0316292
0.0311442
0.0305746
0.0299206
0.0291816
0.0283559
0.0274398
0.0264294
0.0253158
0.0240848
0.0227117
0.0211527
0.0193237
0.0170394
0.0137585
0.00694684
0.0329681
0.0327923
0.0325254
0.0321682
0.0317215
0.0311856
0.0305603
0.0298442
0.0290358
0.0281314
0.0271253
0.0260081
0.0247642
0.0233677
0.0217725
0.0198904
0.017526
0.0141083
0.00706394
0.0334729
0.0333464
0.0331249
0.0328088
0.0323986
0.031894
0.0312947
0.030599
0.0298044
0.0289065
0.0278985
0.0267699
0.0255041
0.0240735
0.0224297
0.0204798
0.0180176
0.0144413
0.00710585
0.0340982
0.0340215
0.0338451
0.0335693
0.0331943
0.0327198
0.0321446
0.0314666
0.0306823
0.0297861
0.0287704
0.0276233
0.0263266
0.0248509
0.0231454
0.0211125
0.0185357
0.0147861
0.00713064
0.0348659
0.0348397
0.0347086
0.0344728
0.0341324
0.0336867
0.0331341
0.0324715
0.0316943
0.0307961
0.0297674
0.0285948
0.0272584
0.0257267
0.0239461
0.0218151
0.0191092
0.0151776
0.00718516
0.035803
0.0358284
0.0357428
0.0355469
0.0352406
0.0348229
0.0342916
0.0336427
0.0328704
0.0319668
0.0309205
0.0297162
0.0283317
0.0267332
0.0248644
0.0226205
0.019772
0.0156528
0.00732496
0.0369416
0.0370195
0.0369799
0.0368237
0.036551
0.0361608
0.0356501
0.035014
0.0342452
0.0333339
0.0322667
0.0310255
0.0295854
0.0279098
0.0259399
0.0235682
0.0205627
0.0162487
0.00760182
0.0383187
0.03845
0.0384563
0.0383397
0.0381005
0.0377376
0.0372475
0.0366242
0.0358588
0.0349392
0.0338492
0.0325676
0.031066
0.0293042
0.0272203
0.0247048
0.0215236
0.0169939
0.00799604
0.0399771
0.0401619
0.0402139
0.0401362
0.0399303
0.039595
0.0391263
0.0385171
0.0377567
0.0368303
0.0357184
0.0343957
0.0328292
0.0309739
0.0287635
0.0260851
0.0227006
0.01791
0.00845798
0.0419648
0.0422023
0.0422988
0.0422593
0.0420864
0.0417794
0.0413339
0.0407418
0.0399903
0.0390616
0.0379323
0.0365719
0.0349412
0.0329883
0.0306399
0.0277761
0.0241502
0.0190315
0.00899367
0.0443359
0.0446237
0.0447622
0.0447592
0.0446189
0.0443413
0.0439221
0.0433519
0.042616
0.0416935
0.0405561
0.0391672
0.0374793
0.0354306
0.0329361
0.0298635
0.0259489
0.0204165
0.00963059
0.0471505
0.0474837
0.04766
0.0476907
0.0475821
0.0473355
0.0469466
0.0464053
0.045695
0.0447915
0.0436616
0.0422612
0.0405325
0.0383994
0.0357592
0.0324571
0.0282002
0.0221477
0.0103964
0.0504746
0.0508449
0.0510524
0.0511125
0.0510342
0.0508201
0.0504666
0.0499631
0.0492915
0.0484249
0.0473251
0.04594
0.0441996
0.0420093
0.0392395
0.0356992
0.0310449
0.0243389
0.0113121
0.0543803
0.0547751
0.0550041
0.0550875
0.055037
0.0548569
0.0545444
0.054089
0.0534721
0.0526646
0.0516246
0.0502928
0.0485861
0.0463882
0.0435334
0.0397742
0.0346819
0.0271673
0.0124684
0.0589454
0.0593468
0.0595845
0.059683
0.0596567
0.0595115
0.0592454
0.058849
0.0583038
0.0575807
0.0566361
0.0554061
0.0537971
0.0516709
0.0488194
0.0449167
0.0393969
0.0309207
0.0140481
0.0642531
0.0646378
0.0648682
0.0649719
0.0649649
0.0648542
0.0646391
0.0643114
0.0638546
0.0632414
0.0624302
0.0613573
0.0599256
0.0579826
0.0552815
0.0514047
0.0455852
0.0360554
0.0162682
0.070391
0.0707315
0.0709365
0.0710342
0.0710405
0.0709626
0.0708009
0.0705491
0.0701939
0.0697125
0.0690691
0.0682077
0.0670387
0.0654129
0.0630687
0.0595157
0.0537491
0.0433145
0.019581
0.077451
0.0777183
0.0778799
0.0779602
0.0779728
0.0779244
0.0778158
0.0776429
0.0773964
0.0770602
0.0766083
0.0759992
0.0751644
0.073984
0.0722293
0.0694183
0.0643936
0.0537878
0.0247486
0.0855295
0.0856986
0.0858012
0.085854
0.0858662
0.0858422
0.085783
0.0856865
0.0855479
0.0853583
0.0851035
0.0847608
0.0842926
0.083631
0.0826384
0.0809859
0.077705
0.0689695
0.0332161
0.0947323
0.0947876
0.0948215
0.0948395
0.0948447
0.0948387
0.0948219
0.094794
0.0947535
0.0946984
0.0946252
0.0945285
0.0944002
0.0942273
0.0939843
0.0936024
0.0927866
0.0894344
0.0467216
)
;

boundaryField
{
    leftWall
    {
        type            kqRWallFunction;
        value           nonuniform List<scalar> 
50
(
0.00062212
0.00134667
0.00190282
0.00237115
0.00277563
0.00313711
0.00347013
0.00378299
0.00423656
0.0048476
0.00563876
0.0068007
0.00740114
0.00660831
0.00619195
0.00642197
0.00675573
0.00690597
0.00706748
0.00728362
0.00753702
0.00770949
0.00779138
0.00780187
0.00776897
0.00770161
0.00759361
0.0074437
0.0072547
0.00702974
0.00677186
0.00648437
0.00617001
0.005829
0.00546285
0.00511217
0.00478485
0.00448564
0.00422588
0.00401435
0.00385435
0.00374502
0.00368652
0.00369174
0.0038191
0.00428597
0.00582671
0.0104136
0.0241576
0.0840666
)
;
    }
    rightWall
    {
        type            kqRWallFunction;
        value           nonuniform List<scalar> 
50
(
0.000855602
0.00153183
0.00196905
0.00229835
0.00256336
0.00278057
0.00294514
0.00299326
0.0028966
0.00282237
0.00343873
0.00468602
0.00624983
0.00631803
0.00503273
0.00455613
0.00396294
0.00337341
0.00300969
0.00308547
0.00351466
0.00405445
0.00455241
0.00496357
0.00530812
0.00561613
0.00591267
0.00621979
0.00650359
0.00674916
0.00694684
0.00706394
0.00710585
0.00713064
0.00718516
0.00732496
0.00760182
0.00799604
0.00845798
0.00899367
0.00963059
0.0103964
0.0113121
0.0124684
0.0140481
0.0162682
0.019581
0.0247486
0.0332161
0.0467216
)
;
    }
    lowerWall
    {
        type            kqRWallFunction;
        value           nonuniform List<scalar> 
62
(
0.00062212
0.0015786
0.00230852
0.00285765
0.00328769
0.00362998
0.00390432
0.00412384
0.00429809
0.00443554
0.00454454
0.00463198
0.0047024
0.00475811
0.00479633
0.00479959
0.00471515
0.00442496
0.00399468
0.00364061
0.00320878
0.00243822
0.000919542
0.000919542
0.00229929
0.00329336
0.00421624
0.00515065
0.00623645
0.00786098
0.0111665
0.0118069
0.00989513
0.00966415
0.0108059
0.000750526
0.001676
0.00230686
0.00292569
0.00359782
0.00446367
0.00590276
0.00894044
0.000750526
0.00205171
0.00279994
0.00315379
0.00330077
0.003326
0.00327815
0.00322909
0.00323166
0.00328039
0.00310794
0.00282544
0.0028361
0.00320813
0.00351691
0.00334731
0.00259274
0.0017189
0.000855602
)
;
    }
    atmosphere
    {
        type            inletOutlet;
        inletValue      uniform 0.1;
        value           nonuniform List<scalar> 
46
(
0.1
0.0550352
0.0440347
0.0345911
0.0282064
0.0252282
0.0246156
0.0253176
0.0267631
0.0287131
0.0310951
0.0339236
0.0372739
0.0412835
0.0461754
0.0523113
0.0603105
0.0713348
0.1
0.1
0.1
0.1
0.1
0.1
0.1
0.1
0.1
0.1
0.1
0.1
0.1
0.1
0.1
0.1
0.1
0.1
0.1
0.1
0.1
0.1
0.1
0.1
0.1
0.1
0.1
0.0467216
)
;
    }
    defaultFaces
    {
        type            empty;
    }
}


// ************************************************************************* //
