/*--------------------------------*- C++ -*----------------------------------*\
  =========                 |
  \\      /  F ield         | OpenFOAM: The Open Source CFD Toolbox
   \\    /   O peration     | Website:  https://openfoam.org
    \\  /    A nd           | Version:  9
     \\/     M anipulation  |
\*---------------------------------------------------------------------------*/
FoamFile
{
    format      ascii;
    class       volScalarField;
    location    "3.78";
    object      p;
}
// * * * * * * * * * * * * * * * * * * * * * * * * * * * * * * * * * * * * * //

dimensions      [1 -1 -2 0 0 0 0];

internalField   nonuniform List<scalar> 
2268
(
701.869
702.204
703.002
704.285
706.004
708.125
710.611
713.421
716.509
719.824
723.31
726.902
730.528
734.105
737.533
740.69
743.456
745.735
747.47
749.616
751.636
753.049
753.453
642.951
643.289
644.076
645.359
647.081
649.21
651.705
654.526
657.626
660.957
664.457
668.061
671.693
675.268
678.689
681.844
684.658
687.156
689.634
691.432
692.964
694.206
694.687
583.934
584.292
585.075
586.361
588.09
590.232
592.743
595.584
598.707
602.063
605.589
609.218
612.873
616.467
619.913
623.119
626.073
629.093
631.987
633.615
634.548
635.391
635.911
524.807
525.181
525.975
527.272
529.015
531.176
533.713
536.582
539.739
543.13
546.696
550.366
554.063
557.706
561.214
564.519
567.656
571.098
574.18
575.833
576.529
576.764
577.238
465.568
465.955
466.767
468.083
469.848
472.036
474.607
477.516
480.716
484.156
487.773
491.5
495.26
498.976
502.573
505.997
509.279
512.825
516.223
518.008
518.447
518.304
518.753
406.215
406.613
407.449
408.789
410.583
412.808
415.422
418.382
421.637
425.138
428.821
432.62
436.462
440.269
443.974
447.52
450.912
454.403
457.848
459.81
460.207
460.01
460.463
346.743
347.154
348.021
349.392
351.223
353.494
356.162
359.182
362.505
366.077
369.839
373.725
377.664
381.581
385.408
389.078
392.567
396.012
399.254
401.328
402.03
402.049
402.27
287.147
287.597
288.498
289.906
291.779
294.102
296.835
299.927
303.328
306.981
310.832
314.816
318.866
322.907
326.866
330.663
334.246
337.678
340.807
342.993
344.111
344.552
344.394
755.077
754.745
753.645
751.769
749.377
746.641
743.691
740.566
737.34
733.716
729.725
725.788
722.846
721.433
721.245
718.507
714.437
711.598
712.22
696.903
696.155
694.965
693.13
690.785
688.135
685.249
682.069
678.663
675.114
671.35
668.501
666.242
664.24
662.096
659.262
656.193
654.765
655.643
638.52
637.583
636.241
634.379
632.058
629.462
626.618
623.441
620.086
616.689
613.598
611.662
609.252
606.46
602.984
600.119
597.791
597.206
598.19
580.053
579.115
577.658
575.73
573.398
570.796
567.949
564.895
561.65
558.39
556.145
554.516
551.841
547.97
544.306
541.548
540.117
538.695
540.083
521.644
520.745
519.182
517.173
514.783
512.142
509.276
506.335
503.204
499.998
498.129
496.839
493.893
489.256
485.812
483.242
482.057
480.66
481.907
463.369
462.422
460.773
458.685
456.204
453.499
450.559
447.613
444.573
441.424
439.526
438.132
435.031
430.529
427.347
425.013
423.657
423.292
423.872
405.243
404.109
402.417
400.261
397.665
394.869
391.789
388.751
385.767
382.685
380.571
378.778
375.689
371.736
368.837
366.801
365.455
365.977
365.925
347.281
345.856
344.135
341.913
339.142
336.223
332.935
329.771
326.879
324.135
321.921
319.579
316.472
312.907
310.269
308.56
307.476
308.272
307.953
193.872
194.351
195.277
196.721
198.659
201.072
203.922
207.15
210.693
214.497
218.508
222.672
226.927
231.194
235.377
239.396
243.125
246.581
249.659
252.084
253.863
255.23
256.111
73.7293
74.0933
74.9288
76.2322
77.8458
79.8399
82.26
85.0312
88.103
91.5049
95.2226
99.1614
103.218
107.327
111.464
115.754
119.745
123.35
126.49
129.09
131.228
132.906
134.066
9.10238
9.1705
9.4511
9.91192
10.546
11.3182
12.2371
13.3385
14.6586
16.1565
17.8303
19.6341
21.5049
23.4098
25.4126
27.5205
29.6977
31.7775
33.6237
35.1428
36.296
37.1593
37.8645
-0.0313937
-0.00196952
-0.00657927
-0.0746306
0.064758
0.170279
0.227065
0.312553
0.544487
0.681527
0.740151
0.764502
0.774291
0.778234
0.722171
0.453985
0.39429
0.455481
0.606727
0.849005
0.841086
0.617336
0.547507
-0.357988
-0.366048
-0.35595
-0.391592
-0.361043
-0.297604
-0.243422
-0.196388
-0.136728
-0.0703086
-0.0260099
0.00573177
0.0265884
0.0397999
0.015356
-0.0394535
-0.0788388
-0.114865
-0.171063
-0.239306
-0.369592
-0.557167
-0.614931
-0.746544
-0.766414
-0.753481
-0.745465
-0.775741
-0.778205
-0.770837
-0.771245
-0.824965
-0.860938
-0.863496
-0.854012
-0.84954
-0.838656
-0.830836
-0.758793
-0.747393
-0.763238
-0.799389
-0.89183
-0.928774
-0.925261
-0.896484
-1.14093
-1.14414
-1.13924
-1.1063
-1.11954
-1.14904
-1.18073
-1.20329
-1.22592
-1.245
-1.26098
-1.27278
-1.27938
-1.28314
-1.28577
-1.27648
-1.26726
-1.24626
-1.20804
-1.17189
-1.17772
-1.14943
-1.12346
-1.36937
-1.36652
-1.36677
-1.36391
-1.36508
-1.36374
-1.36857
-1.37965
-1.38482
-1.38703
-1.39281
-1.39897
-1.40373
-1.40743
-1.41027
-1.41191
-1.40859
-1.39639
-1.37872
-1.35658
-1.34807
-1.33951
-1.3365
-1.49892
-1.49769
-1.49879
-1.50279
-1.5072
-1.51071
-1.51112
-1.51144
-1.51359
-1.51595
-1.51997
-1.52466
-1.52896
-1.53275
-1.53619
-1.53921
-1.54112
-1.54198
-1.54286
-1.53313
-1.52371
-1.52207
-1.53477
-1.62839
-1.62786
-1.62895
-1.63189
-1.63513
-1.63787
-1.63906
-1.64027
-1.64191
-1.64406
-1.6473
-1.65114
-1.65501
-1.65856
-1.66184
-1.66523
-1.66885
-1.67381
-1.6822
-1.68588
-1.68536
-1.68089
-1.68777
-1.75737
-1.75745
-1.75854
-1.76073
-1.76318
-1.76538
-1.76683
-1.76824
-1.7699
-1.77198
-1.77472
-1.77782
-1.78101
-1.78418
-1.78732
-1.79064
-1.79434
-1.79895
-1.805
-1.81054
-1.81281
-1.81067
-1.81018
-1.88584
-1.88633
-1.88741
-1.88917
-1.89105
-1.89285
-1.89435
-1.89583
-1.89751
-1.89946
-1.90176
-1.90429
-1.90701
-1.90981
-1.91269
-1.91572
-1.91902
-1.9228
-1.92708
-1.93061
-1.93225
-1.93193
-1.93162
-2.01373
-2.01455
-2.01569
-2.01712
-2.01866
-2.02019
-2.02162
-2.02307
-2.02466
-2.02642
-2.02839
-2.03058
-2.03293
-2.0354
-2.03796
-2.04064
-2.04349
-2.04654
-2.04974
-2.05238
-2.05385
-2.05412
-2.05393
-2.14117
-2.14222
-2.14343
-2.14468
-2.146
-2.14733
-2.14864
-2.14999
-2.15145
-2.15304
-2.15479
-2.1567
-2.15876
-2.16091
-2.16316
-2.1655
-2.16793
-2.17044
-2.17295
-2.17512
-2.17645
-2.17694
-2.17693
-2.26828
-2.26946
-2.27065
-2.27187
-2.27306
-2.27424
-2.27544
-2.27668
-2.278
-2.27944
-2.28099
-2.28268
-2.28447
-2.28636
-2.28832
-2.29033
-2.29239
-2.29446
-2.29645
-2.29821
-2.29945
-2.30003
-2.3001
-2.39508
-2.39642
-2.39767
-2.3988
-2.39988
-2.40095
-2.40204
-2.40317
-2.40437
-2.40566
-2.40704
-2.40853
-2.4101
-2.41174
-2.41344
-2.41517
-2.41691
-2.41861
-2.42022
-2.42161
-2.42264
-2.42321
-2.42333
-2.52183
-2.5232
-2.52444
-2.52552
-2.52651
-2.52748
-2.52846
-2.52949
-2.53057
-2.53173
-2.53296
-2.53427
-2.53564
-2.53707
-2.53854
-2.54002
-2.54149
-2.54291
-2.54421
-2.54533
-2.54617
-2.54668
-2.54685
-2.64848
-2.64983
-2.65103
-2.65205
-2.65296
-2.65384
-2.65473
-2.65566
-2.65663
-2.65766
-2.65876
-2.65991
-2.66111
-2.66236
-2.66362
-2.66489
-2.66614
-2.66732
-2.66839
-2.66931
-2.67001
-2.67045
-2.67064
-2.77504
-2.77634
-2.77748
-2.77842
-2.77926
-2.78006
-2.78086
-2.7817
-2.78257
-2.78349
-2.78445
-2.78546
-2.78652
-2.7876
-2.78869
-2.78978
-2.79083
-2.79183
-2.79272
-2.79348
-2.79407
-2.79446
-2.79465
-2.90154
-2.90276
-2.90381
-2.90467
-2.90542
-2.90615
-2.90687
-2.90762
-2.90839
-2.90921
-2.91006
-2.91095
-2.91187
-2.91281
-2.91375
-2.91468
-2.91558
-2.91642
-2.91717
-2.91781
-2.91831
-2.91866
-2.91884
-3.02797
-3.02908
-3.03002
-3.03079
-3.03147
-3.03212
-3.03277
-3.03343
-3.03412
-3.03484
-3.03559
-3.03638
-3.03718
-3.03799
-3.03881
-3.03961
-3.04038
-3.04109
-3.04173
-3.04227
-3.0427
-3.043
-3.04318
-3.15433
-3.1553
-3.15612
-3.15681
-3.1574
-3.15798
-3.15856
-3.15915
-3.15976
-3.1604
-3.16106
-3.16174
-3.16245
-3.16315
-3.16386
-3.16455
-3.16521
-3.16582
-3.16636
-3.16683
-3.1672
-3.16747
-3.16763
-3.28062
-3.28144
-3.28213
-3.28271
-3.28323
-3.28374
-3.28425
-3.28477
-3.28531
-3.28587
-3.28646
-3.28706
-3.28767
-3.28829
-3.28891
-3.2895
-3.29007
-3.29059
-3.29106
-3.29147
-3.29179
-3.29203
-3.29219
-3.40682
-3.40748
-3.40803
-3.40851
-3.40896
-3.4094
-3.40985
-3.41031
-3.41079
-3.41129
-3.4118
-3.41233
-3.41287
-3.41341
-3.41394
-3.41446
-3.41495
-3.41541
-3.41582
-3.41617
-3.41646
-3.41667
-3.41682
-3.53292
-3.53342
-3.53382
-3.53421
-3.53459
-3.53497
-3.53536
-3.53577
-3.53619
-3.53663
-3.53709
-3.53756
-3.53803
-3.5385
-3.53897
-3.53942
-3.53985
-3.54025
-3.54061
-3.54092
-3.54118
-3.54138
-3.54152
-3.65891
-3.65927
-3.65952
-3.65981
-3.66013
-3.66046
-3.6608
-3.66116
-3.66154
-3.66193
-3.66233
-3.66275
-3.66317
-3.66358
-3.66399
-3.66439
-3.66477
-3.66512
-3.66544
-3.66572
-3.66595
-3.66614
-3.66627
-3.78479
-3.78501
-3.78515
-3.78535
-3.78561
-3.78588
-3.78618
-3.7865
-3.78683
-3.78718
-3.78754
-3.78791
-3.78828
-3.78865
-3.78901
-3.78937
-3.7897
-3.79002
-3.7903
-3.79055
-3.79077
-3.79094
-3.79107
-3.91056
-3.91065
-3.91069
-3.91083
-3.91103
-3.91125
-3.91151
-3.91178
-3.91208
-3.91239
-3.91271
-3.91304
-3.91338
-3.91371
-3.91403
-3.91435
-3.91465
-3.91493
-3.91519
-3.91542
-3.91562
-3.91579
-3.91592
-4.03622
-4.03618
-4.03616
-4.03625
-4.0364
-4.03658
-4.03679
-4.03704
-4.0373
-4.03758
-4.03787
-4.03817
-4.03847
-4.03877
-4.03906
-4.03934
-4.03961
-4.03987
-4.04011
-4.04032
-4.04051
-4.04067
-4.0408
-4.1618
-4.16164
-4.16156
-4.16161
-4.16171
-4.16186
-4.16205
-4.16226
-4.1625
-4.16275
-4.16302
-4.16329
-4.16356
-4.16383
-4.16409
-4.16435
-4.1646
-4.16483
-4.16505
-4.16525
-4.16542
-4.16558
-4.16571
-4.28733
-4.28706
-4.28692
-4.28692
-4.28699
-4.28712
-4.28728
-4.28748
-4.28769
-4.28792
-4.28816
-4.2884
-4.28865
-4.28889
-4.28913
-4.28937
-4.28959
-4.28981
-4.29001
-4.2902
-4.29037
-4.29051
-4.29064
-4.4128
-4.41246
-4.41226
-4.41221
-4.41226
-4.41237
-4.41251
-4.41269
-4.41288
-4.41309
-4.41331
-4.41353
-4.41375
-4.41397
-4.41419
-4.4144
-4.4146
-4.4148
-4.41499
-4.41517
-4.41533
-4.41548
-4.4156
-4.53824
-4.53785
-4.5376
-4.53752
-4.53754
-4.53763
-4.53775
-4.5379
-4.53808
-4.53827
-4.53846
-4.53866
-4.53886
-4.53906
-4.53925
-4.53944
-4.53963
-4.53982
-4.53999
-4.54016
-4.54032
-4.54047
-4.54059
-4.66366
-4.66322
-4.66295
-4.66284
-4.66284
-4.6629
-4.663
-4.66314
-4.66329
-4.66346
-4.66364
-4.66381
-4.66399
-4.66416
-4.66434
-4.66451
-4.66467
-4.66484
-4.66501
-4.66518
-4.66533
-4.66548
-4.66561
-4.78904
-4.78858
-4.78829
-4.78817
-4.78815
-4.7882
-4.78828
-4.78839
-4.78853
-4.78868
-4.78883
-4.78898
-4.78914
-4.78928
-4.78943
-4.78958
-4.78973
-4.78989
-4.79005
-4.79021
-4.79037
-4.79051
-4.79064
-4.91441
-4.91392
-4.91363
-4.91351
-4.91348
-4.91352
-4.91358
-4.91368
-4.9138
-4.91392
-4.91405
-4.91418
-4.9143
-4.91442
-4.91454
-4.91466
-4.91479
-4.91493
-4.91509
-4.91526
-4.91542
-4.91557
-4.9157
-5.03976
-5.03924
-5.03896
-5.03886
-5.03884
-5.03887
-5.03892
-5.039
-5.03909
-5.0392
-5.0393
-5.0394
-5.03949
-5.03958
-5.03966
-5.03975
-5.03986
-5.03998
-5.04014
-5.04032
-5.04049
-5.04065
-5.04078
-5.16509
-5.16456
-5.16429
-5.16422
-5.16423
-5.16426
-5.1643
-5.16436
-5.16443
-5.16451
-5.16458
-5.16464
-5.1647
-5.16475
-5.16479
-5.16485
-5.16492
-5.16502
-5.16518
-5.16538
-5.16558
-5.16574
-5.16588
-5.29041
-5.28988
-5.28964
-5.28962
-5.28967
-5.2897
-5.28973
-5.28977
-5.28981
-5.28985
-5.28989
-5.28992
-5.28993
-5.28994
-5.28994
-5.28995
-5.28997
-5.29003
-5.29021
-5.29046
-5.29069
-5.29086
-5.291
-5.41568
-5.41523
-5.41506
-5.41511
-5.41518
-5.41521
-5.41522
-5.41522
-5.41523
-5.41523
-5.41522
-5.4152
-5.41517
-5.41513
-5.41509
-5.41504
-5.41499
-5.41497
-5.41518
-5.41557
-5.41584
-5.41602
-5.41615
-5.54077
-5.54071
-5.54071
-5.5408
-5.54086
-5.54085
-5.54079
-5.54072
-5.54065
-5.54058
-5.5405
-5.54041
-5.54031
-5.5402
-5.54008
-5.53996
-5.5398
-5.53954
-5.53984
-5.54065
-5.54106
-5.54123
-5.54133
-5.66611
-5.66732
-5.66691
-5.66676
-5.66667
-5.66655
-5.66641
-5.66626
-5.66611
-5.66597
-5.66582
-5.66567
-5.66551
-5.66533
-5.66512
-5.66483
-5.66431
-5.66351
-5.66392
-5.66565
-5.66623
-5.66641
-5.66648
259.374
259.848
259.895
259.612
135.455
135.835
135.764
135.351
38.4843
38.6645
38.6446
38.4958
0.783219
0.946016
0.995993
0.956218
-0.524643
-0.449193
-0.443366
-0.489093
-0.885678
-0.861942
-0.875444
-0.872591
-1.14299
-1.14563
-1.1603
-1.1608
-1.35872
-1.37725
-1.37845
-1.37555
-1.54987
-1.55283
-1.54909
-1.54772
-1.68724
-1.68476
-1.6817
-1.67997
-1.80891
-1.80769
-1.80611
-1.80513
-1.93075
-1.93006
-1.92931
-1.92867
-2.05338
-2.05296
-2.05249
-2.052
-2.17656
-2.17621
-2.17582
-2.17542
-2.29981
-2.29956
-2.29927
-2.29894
-2.42318
-2.42303
-2.42283
-2.42259
-2.54679
-2.5467
-2.54657
-2.5464
-2.67063
-2.67058
-2.67049
-2.67037
-2.79467
-2.79464
-2.79459
-2.7945
-2.91887
-2.91887
-2.91883
-2.91877
-3.04322
-3.04323
-3.04321
-3.04317
-3.16769
-3.1677
-3.16769
-3.16766
-3.29224
-3.29226
-3.29226
-3.29225
-3.41688
-3.4169
-3.41691
-3.4169
-3.54158
-3.54161
-3.54162
-3.54162
-3.66634
-3.66637
-3.66639
-3.6664
-3.79114
-3.79118
-3.7912
-3.79122
-3.91599
-3.91603
-3.91606
-3.91608
-4.04087
-4.04091
-4.04094
-4.04097
-4.16578
-4.16582
-4.16586
-4.16589
-4.29072
-4.29076
-4.2908
-4.29084
-4.41568
-4.41573
-4.41577
-4.41581
-4.54067
-4.54072
-4.54076
-4.54081
-4.66569
-4.66574
-4.66578
-4.66582
-4.79073
-4.79078
-4.79082
-4.79086
-4.91579
-4.91584
-4.91588
-4.91592
-5.04087
-5.04092
-5.04096
-5.041
-5.16597
-5.16601
-5.16605
-5.16609
-5.29108
-5.29112
-5.29116
-5.29119
-5.41622
-5.41625
-5.41628
-5.41631
-5.54138
-5.5414
-5.54142
-5.54143
-5.66651
-5.66653
-5.66653
-5.66654
256.864
255.175
253.164
251.017
248.735
246.154
243.082
239.763
236.324
233.118
230.121
227.172
224.01
220.825
218.492
217.317
216.792
217.402
217.928
134.214
133.347
132.128
130.648
129.032
126.993
124.54
121.656
117.827
113.58
109.517
105.95
102.73
100.068
98.2184
97.1783
96.6233
96.685
96.8432
38.2037
38.2698
38.079
37.4625
36.4957
35.2838
34.0416
32.4083
30.3125
27.8112
25.4543
23.4154
21.7095
20.3638
19.3025
18.427
18.0753
18.1342
18.1711
0.92788
0.971781
1.00053
0.912233
0.714776
0.459892
0.0732373
-0.281073
-0.329678
-0.313487
-0.304228
-0.310533
-0.324425
-0.344697
-0.374588
-0.349396
-0.36978
-0.439212
-0.471197
-0.557109
-0.603462
-0.623589
-0.61999
-0.586194
-0.538036
-0.535954
-0.537169
-0.545859
-0.556948
-0.569315
-0.585417
-0.602138
-0.625296
-0.654465
-0.662793
-0.668768
-0.671868
-0.672504
-0.86432
-0.850798
-0.8532
-0.852856
-0.860118
-0.877161
-0.882371
-0.888355
-0.890183
-0.892795
-0.895144
-0.894655
-0.893623
-0.900327
-0.913958
-0.914641
-0.919211
-0.933259
-0.937533
-1.14256
-1.12453
-1.12603
-1.13222
-1.1593
-1.19824
-1.20869
-1.21268
-1.2127
-1.21178
-1.21022
-1.2085
-1.20465
-1.19716
-1.18791
-1.18885
-1.18906
-1.18453
-1.17812
-1.38725
-1.39111
-1.39399
-1.39603
-1.40233
-1.40535
-1.40549
-1.40233
-1.39877
-1.39274
-1.38632
-1.38033
-1.3771
-1.37631
-1.37235
-1.37154
-1.36882
-1.36464
-1.36364
-1.55571
-1.56152
-1.5602
-1.55772
-1.54948
-1.53806
-1.53303
-1.52882
-1.52426
-1.51847
-1.51227
-1.50739
-1.50491
-1.50351
-1.50187
-1.50072
-1.49956
-1.50319
-1.50163
-1.68094
-1.68193
-1.68053
-1.67743
-1.67158
-1.66411
-1.65883
-1.65472
-1.65039
-1.64489
-1.64029
-1.63747
-1.6359
-1.63398
-1.63056
-1.62871
-1.62798
-1.62955
-1.62935
-1.80445
-1.80403
-1.80239
-1.79948
-1.79476
-1.7892
-1.78483
-1.78122
-1.77763
-1.7734
-1.77093
-1.76982
-1.76777
-1.76385
-1.75895
-1.75688
-1.75607
-1.75661
-1.75693
-1.92776
-1.9268
-1.92515
-1.92266
-1.91901
-1.91509
-1.91188
-1.90889
-1.90634
-1.90428
-1.90291
-1.90092
-1.89687
-1.89213
-1.88886
-1.88736
-1.88667
-1.88652
-1.88681
-2.05115
-2.05007
-2.04858
-2.04665
-2.04429
-2.04165
-2.03917
-2.0368
-2.03495
-2.03426
-2.03255
-2.02929
-2.02558
-2.02223
-2.02042
-2.01968
-2.01908
-2.01881
-2.01868
-2.17468
-2.17366
-2.1724
-2.17095
-2.16952
-2.16776
-2.16569
-2.16343
-2.16173
-2.16081
-2.15894
-2.15623
-2.15412
-2.1527
-2.15137
-2.15009
-2.14896
-2.14879
-2.14907
-2.29833
-2.29745
-2.29639
-2.29521
-2.29408
-2.29274
-2.29092
-2.28891
-2.28732
-2.2861
-2.28455
-2.28276
-2.28153
-2.28108
-2.27987
-2.27789
-2.27677
-2.27667
-2.27691
-2.42211
-2.42137
-2.42048
-2.41946
-2.41838
-2.41715
-2.41567
-2.41411
-2.41273
-2.41154
-2.41025
-2.40894
-2.408
-2.40734
-2.40625
-2.40492
-2.4041
-2.40394
-2.40363
-2.54604
-2.54542
-2.54466
-2.54379
-2.54283
-2.54174
-2.54051
-2.53924
-2.53807
-2.537
-2.53593
-2.53491
-2.53409
-2.53342
-2.5326
-2.53172
-2.53111
-2.53098
-2.53037
-2.6701
-2.66959
-2.66896
-2.66821
-2.66738
-2.66645
-2.66543
-2.66438
-2.66338
-2.66246
-2.66157
-2.66075
-2.66007
-2.6595
-2.6589
-2.65833
-2.65793
-2.65791
-2.65738
-2.79429
-2.79389
-2.79336
-2.79273
-2.79202
-2.79124
-2.79039
-2.78952
-2.78868
-2.78789
-2.78716
-2.78651
-2.78596
-2.78551
-2.78509
-2.78475
-2.78453
-2.78462
-2.78417
-2.91862
-2.91829
-2.91785
-2.91732
-2.91672
-2.91607
-2.91537
-2.91465
-2.91395
-2.9133
-2.91271
-2.91219
-2.91176
-2.91142
-2.91115
-2.91096
-2.91089
-2.91096
-2.91057
-3.04305
-3.04278
-3.04243
-3.04199
-3.04149
-3.04094
-3.04036
-3.03978
-3.03921
-3.03868
-3.0382
-3.03779
-3.03746
-3.03721
-3.03705
-3.03698
-3.03702
-3.03705
-3.03669
-3.16758
-3.16737
-3.16708
-3.16672
-3.16631
-3.16586
-3.16539
-3.16491
-3.16445
-3.16402
-3.16364
-3.16332
-3.16306
-3.16289
-3.1628
-3.16281
-3.16292
-3.16296
-3.16268
-3.29219
-3.29203
-3.2918
-3.29151
-3.29118
-3.29081
-3.29043
-3.29004
-3.28967
-3.28933
-3.28902
-3.28877
-3.28857
-3.28844
-3.28838
-3.28842
-3.28855
-3.28856
-3.28842
-3.41687
-3.41675
-3.41658
-3.41635
-3.41609
-3.41579
-3.41549
-3.41518
-3.41488
-3.4146
-3.41436
-3.41415
-3.41399
-3.41388
-3.41381
-3.41381
-3.41385
-3.41372
-3.41342
-3.54161
-3.54153
-3.5414
-3.54123
-3.54102
-3.54079
-3.54055
-3.5403
-3.54007
-3.53985
-3.53965
-3.53948
-3.53934
-3.53922
-3.53912
-3.53902
-3.53889
-3.53856
-3.53801
-3.6664
-3.66636
-3.66627
-3.66614
-3.66598
-3.66581
-3.66562
-3.66543
-3.66524
-3.66507
-3.66491
-3.66477
-3.66463
-3.6645
-3.66434
-3.66413
-3.66381
-3.66333
-3.66268
-3.79124
-3.79122
-3.79117
-3.79108
-3.79096
-3.79083
-3.79069
-3.79055
-3.79041
-3.79027
-3.79015
-3.79002
-3.78989
-3.78974
-3.78954
-3.78923
-3.78874
-3.78813
-3.78733
-3.91611
-3.91612
-3.91609
-3.91604
-3.91596
-3.91587
-3.91577
-3.91566
-3.91556
-3.91546
-3.91536
-3.91526
-3.91515
-3.91499
-3.91477
-3.9144
-3.91383
-3.91316
-3.91219
-4.04101
-4.04104
-4.04104
-4.04101
-4.04097
-4.04091
-4.04084
-4.04078
-4.04071
-4.04064
-4.04057
-4.04049
-4.0404
-4.04026
-4.04004
-4.03969
-4.03915
-4.03853
-4.03767
-4.16594
-4.16599
-4.16601
-4.166
-4.16599
-4.16596
-4.16592
-4.16588
-4.16584
-4.16581
-4.16576
-4.16572
-4.16565
-4.16554
-4.16537
-4.16508
-4.16464
-4.16412
-4.16346
-4.2909
-4.29095
-4.29099
-4.29101
-4.29101
-4.29101
-4.291
-4.29099
-4.29097
-4.29096
-4.29095
-4.29093
-4.2909
-4.29084
-4.29072
-4.29051
-4.29018
-4.28973
-4.2891
-4.41587
-4.41594
-4.41599
-4.41603
-4.41605
-4.41606
-4.41607
-4.41608
-4.41609
-4.41611
-4.41612
-4.41614
-4.41614
-4.41612
-4.41607
-4.41594
-4.4157
-4.4153
-4.41466
-4.54087
-4.54095
-4.54101
-4.54106
-4.54109
-4.54112
-4.54115
-4.54118
-4.54121
-4.54124
-4.54128
-4.54133
-4.54137
-4.5414
-4.5414
-4.54135
-4.54121
-4.54085
-4.54021
-4.66589
-4.66598
-4.66604
-4.6661
-4.66614
-4.66618
-4.66622
-4.66626
-4.66631
-4.66636
-4.66642
-4.6665
-4.66657
-4.66664
-4.6667
-4.66672
-4.66666
-4.66634
-4.66577
-4.79093
-4.79102
-4.79109
-4.79115
-4.7912
-4.79124
-4.79129
-4.79134
-4.7914
-4.79146
-4.79154
-4.79164
-4.79174
-4.79186
-4.79196
-4.79203
-4.79198
-4.79163
-4.791
-4.91599
-4.91607
-4.91614
-4.9162
-4.91625
-4.9163
-4.91635
-4.91641
-4.91647
-4.91655
-4.91664
-4.91675
-4.91688
-4.91703
-4.91718
-4.91729
-4.91724
-4.9168
-4.91596
-5.04106
-5.04114
-5.04121
-5.04126
-5.04131
-5.04136
-5.04141
-5.04146
-5.04153
-5.04161
-5.04171
-5.04183
-5.04199
-5.04217
-5.04237
-5.04255
-5.04255
-5.0421
-5.0412
-5.16615
-5.16622
-5.16628
-5.16633
-5.16637
-5.16641
-5.16646
-5.16651
-5.16657
-5.16665
-5.16675
-5.16688
-5.16705
-5.16727
-5.16754
-5.16783
-5.16798
-5.1676
-5.16675
-5.29124
-5.2913
-5.29135
-5.29139
-5.29143
-5.29147
-5.2915
-5.29155
-5.2916
-5.29167
-5.29176
-5.29189
-5.29206
-5.29231
-5.29265
-5.29311
-5.29354
-5.29332
-5.29258
-5.41635
-5.41639
-5.41643
-5.41646
-5.41649
-5.41651
-5.41654
-5.41658
-5.41662
-5.41667
-5.41674
-5.41685
-5.41701
-5.41725
-5.41764
-5.4183
-5.4192
-5.41928
-5.41891
-5.54145
-5.54148
-5.5415
-5.54152
-5.54154
-5.54156
-5.54158
-5.5416
-5.54162
-5.54165
-5.5417
-5.54177
-5.54188
-5.54206
-5.5424
-5.54319
-5.54476
-5.54558
-5.54619
-5.66655
-5.66656
-5.66657
-5.66658
-5.66659
-5.66659
-5.6666
-5.66661
-5.66661
-5.66662
-5.66664
-5.66666
-5.6667
-5.66678
-5.66698
-5.66755
-5.66933
-5.67217
-5.67471
)
;

boundaryField
{
    leftWall
    {
        type            calculated;
        value           nonuniform List<scalar> 
50
(
701.869
642.951
583.934
524.807
465.568
406.215
346.743
287.147
193.872
73.7293
9.10238
-0.0313937
-0.357988
-0.746544
-1.14093
-1.36937
-1.49892
-1.62839
-1.75737
-1.88584
-2.01373
-2.14117
-2.26828
-2.39508
-2.52183
-2.64848
-2.77504
-2.90154
-3.02797
-3.15433
-3.28062
-3.40682
-3.53292
-3.65891
-3.78479
-3.91056
-4.03622
-4.1618
-4.28733
-4.4128
-4.53824
-4.66366
-4.78904
-4.91441
-5.03976
-5.16509
-5.29041
-5.41568
-5.54077
-5.66611
)
;
    }
    rightWall
    {
        type            calculated;
        value           nonuniform List<scalar> 
50
(
712.22
655.643
598.19
540.083
481.907
423.872
365.925
307.953
217.928
96.8432
18.1711
-0.471197
-0.672504
-0.937533
-1.17812
-1.36364
-1.50163
-1.62935
-1.75693
-1.88681
-2.01868
-2.14907
-2.27691
-2.40363
-2.53037
-2.65738
-2.78417
-2.91057
-3.03669
-3.16268
-3.28842
-3.41342
-3.53801
-3.66268
-3.78733
-3.91219
-4.03767
-4.16346
-4.2891
-4.41466
-4.54021
-4.66577
-4.791
-4.91596
-5.0412
-5.16675
-5.29258
-5.41891
-5.54619
-5.67471
)
;
    }
    lowerWall
    {
        type            calculated;
        value           nonuniform List<scalar> 
62
(
731.299
731.633
732.431
733.715
735.433
737.555
740.04
742.85
745.938
749.254
752.739
756.331
759.958
763.534
766.962
770.12
772.885
775.163
776.692
778.964
780.974
782.31
782.714
753.453
694.687
635.911
577.238
518.753
460.463
402.27
344.394
321.971
322.445
322.492
322.209
755.077
696.903
638.52
580.053
521.644
463.369
405.243
347.281
784.204
783.872
782.773
780.899
778.535
775.798
772.848
769.862
766.73
763.01
759.004
754.729
751.115
749.702
750.027
747.302
742.763
739.857
740.478
)
;
    }
    atmosphere
    {
        type            calculated;
        value           nonuniform List<scalar> 
46
(
-5.72908
-5.72904
-5.72904
-5.72904
-5.72904
-5.72904
-5.72904
-5.72904
-5.72904
-5.72904
-5.72904
-5.72904
-5.72904
-5.72904
-5.72904
-5.72904
-5.72904
-5.72904
-5.72904
-5.72904
-5.72905
-5.72905
-5.72906
-5.72907
-5.72907
-5.72907
-5.72908
-5.72908
-5.72909
-5.7291
-5.7291
-5.72911
-5.72911
-5.72911
-5.72911
-5.72911
-5.72911
-5.7291
-5.7291
-5.7291
-5.72909
-5.72909
-5.72908
-5.72906
-5.72904
-5.74122
)
;
    }
    defaultFaces
    {
        type            empty;
    }
}


// ************************************************************************* //
