/*--------------------------------*- C++ -*----------------------------------*\
  =========                 |
  \\      /  F ield         | OpenFOAM: The Open Source CFD Toolbox
   \\    /   O peration     | Website:  https://openfoam.org
    \\  /    A nd           | Version:  9
     \\/     M anipulation  |
\*---------------------------------------------------------------------------*/
FoamFile
{
    format      ascii;
    class       volScalarField;
    location    "8.83";
    object      nut;
}
// * * * * * * * * * * * * * * * * * * * * * * * * * * * * * * * * * * * * * //

dimensions      [0 2 -1 0 0 0 0];

internalField   nonuniform List<scalar> 
2268
(
8.92457e-06
1.05365e-05
1.27971e-05
1.43345e-05
1.54907e-05
1.64023e-05
1.7138e-05
1.77371e-05
1.82261e-05
1.86277e-05
1.89672e-05
1.92654e-05
1.95278e-05
1.97267e-05
1.97877e-05
1.95877e-05
1.90988e-05
1.8339e-05
1.72671e-05
1.59919e-05
1.46823e-05
1.23629e-05
8.53529e-06
2.06342e-05
8.62695e-05
0.000117178
0.000136776
0.000150992
0.000161928
0.00017057
0.00017747
0.000182998
0.000187441
0.000191037
0.000193963
0.000196216
0.000197516
0.000197282
0.000194658
0.00018742
0.000176542
0.000162194
0.000148674
0.000136328
0.000100081
2.71123e-05
2.47376e-05
0.000146622
0.000217871
0.000264105
0.000297745
0.000323641
0.000344128
0.000360515
0.000373661
0.000384215
0.000392723
0.0003996
0.000404891
0.000408038
0.0004078
0.000402345
0.000388064
0.000366584
0.000338847
0.000307162
0.000264929
0.000173605
3.22413e-05
2.77755e-05
0.000189439
0.000298134
0.00037106
0.000424711
0.00046621
0.000499139
0.000525557
0.000546823
0.000563942
0.000577737
0.000588813
0.000597265
0.000602347
0.000602315
0.000594481
0.000574758
0.000544716
0.000505182
0.000453605
0.000375555
0.000232859
3.67281e-05
3.01839e-05
0.000221865
0.000363304
0.000461193
0.000534115
0.000590858
0.000636036
0.000672387
0.000701745
0.000725445
0.00074454
0.000759778
0.000771301
0.000778252
0.000778577
0.000769004
0.00074522
0.000708311
0.000658084
0.00058703
0.000474136
0.000283918
4.12052e-05
3.22085e-05
0.000247791
0.000417541
0.000538261
0.000629313
0.000700613
0.000757586
0.000803556
0.000840794
0.000870936
0.000895222
0.000914511
0.000929003
0.000937791
0.000938664
0.000927966
0.000901346
0.000859073
0.000799584
0.000711195
0.000567135
0.000330849
4.62254e-05
3.39934e-05
0.000269369
0.000463695
0.000605166
0.000713124
0.000798191
0.000866401
0.000921581
0.000966406
0.00100278
0.0010321
0.00105531
0.00107269
0.00108335
0.00108498
0.00107371
0.00104542
0.000999314
0.000932599
0.000830627
0.000661705
0.000382089
5.24286e-05
3.56718e-05
0.000287801
0.000503725
0.000664117
0.000787833
0.000885877
0.000964737
0.00102868
0.00108075
0.00112311
0.00115727
0.00118427
0.00120451
0.00121704
0.0012195
0.00120833
0.00117951
0.00113127
0.00105986
0.000949585
0.000766522
0.000453735
6.21657e-05
1.04602e-05
1.52e-05
1.78152e-05
1.87402e-05
1.91309e-05
1.9293e-05
1.92459e-05
1.91235e-05
1.87572e-05
1.81741e-05
1.73401e-05
1.61574e-05
1.55165e-05
1.54394e-05
1.49777e-05
1.39393e-05
1.21053e-05
9.89785e-06
9.69936e-06
3.35972e-05
0.000118456
0.000159089
0.000178658
0.000187761
0.000191375
0.000192076
0.000190038
0.00018501
0.000178111
0.000165922
0.000149294
0.000144002
0.000150962
0.000146413
0.000133664
0.00011058
7.4433e-05
2.35171e-05
3.69992e-05
0.000206264
0.000304779
0.000356081
0.000380966
0.000391303
0.000393518
0.00038933
0.000378394
0.00036241
0.000341861
0.000316898
0.000304867
0.000305156
0.00029129
0.000260998
0.000207546
0.000125472
2.82613e-05
3.90797e-05
0.000267265
0.000424311
0.000511017
0.000554757
0.000573914
0.000578876
0.000573375
0.000557685
0.000534603
0.000508376
0.000479137
0.000458831
0.000445815
0.000418726
0.00036983
0.000288464
0.000168323
3.20961e-05
4.17576e-05
0.00031248
0.000525615
0.00064662
0.000709305
0.000737829
0.000746207
0.000740235
0.000721174
0.000693202
0.000662633
0.000629626
0.000600505
0.000573036
0.000531551
0.000464962
0.000359812
0.000208964
3.54076e-05
4.61086e-05
0.000355201
0.000618737
0.000769467
0.000848856
0.000885963
0.000897712
0.00089179
0.00087056
0.000839221
0.00080496
0.000767658
0.00072965
0.000688393
0.000632732
0.000549964
0.000424772
0.000247636
3.8405e-05
5.28132e-05
0.000410772
0.000713068
0.000885666
0.000977712
0.00102162
0.00103607
0.00103032
0.00100773
0.00097397
0.000936278
0.000894118
0.000847396
0.000793463
0.000724281
0.000626311
0.000483498
0.000282687
4.11922e-05
6.47323e-05
0.000491957
0.000815547
0.000999432
0.001099
0.00114735
0.00116375
0.00115794
0.00113442
0.00109877
0.00105771
0.00101032
0.000955216
0.000889736
0.000807616
0.000694739
0.000534758
0.000309956
4.38412e-05
3.78867e-05
0.000312264
0.00055766
0.000744972
0.000891745
0.00100911
0.00110406
0.00118143
0.00124483
0.00129672
0.00133872
0.00137189
0.00139678
0.00141222
0.00141634
0.00140612
0.00137794
0.00132902
0.00125452
0.00114073
0.000962261
0.000691571
0.000343473
4.07068e-05
0.000338287
0.000616707
0.000836177
0.00101082
0.00115124
0.00126507
0.00135808
0.00143474
0.00149796
0.0015494
0.00159007
0.00162024
0.00163952
0.00164665
0.0016396
0.00161571
0.00157214
0.0015048
0.00140516
0.00125969
0.0010551
0.000796467
4.41839e-05
0.000356779
0.000667273
0.000918351
0.00111926
0.00127996
0.00140966
0.00151563
0.0016036
0.0016769
0.001737
0.00178455
0.00181997
0.00184343
0.00185438
0.00185193
0.00183474
0.00180097
0.00174771
0.00166982
0.00156196
0.00142234
0.00126479
4.98801e-05
0.000368067
0.000720642
0.00100334
0.00122752
0.00140401
0.00154518
0.00166018
0.0017571
0.00183925
0.00190742
0.00196173
0.00200241
0.00203053
0.002046
0.00204887
0.00203904
0.00201573
0.00197786
0.00192135
0.00184569
0.00175575
0.00166711
5.62172e-05
0.000425159
0.000800973
0.00109271
0.00132252
0.00151011
0.00166388
0.0017892
0.00189524
0.00198627
0.00206296
0.00212485
0.00217103
0.00220406
0.00222436
0.00223248
0.00222902
0.00221379
0.00218923
0.00215192
0.00210115
0.00204487
0.00199388
5.57768e-05
0.000446911
0.000820335
0.00111788
0.00136758
0.00157609
0.00174729
0.00188858
0.00200783
0.00210981
0.00219632
0.00226777
0.00232417
0.00236456
0.00238991
0.00240259
0.00240438
0.00239446
0.0023765
0.00235505
0.00232765
0.00229593
0.00226622
0.000247863
0.000542529
0.000866102
0.00115932
0.00141738
0.0016361
0.00182052
0.00197478
0.00210541
0.00221695
0.00231181
0.00239139
0.00245608
0.00250424
0.00253654
0.00255521
0.00256279
0.00256124
0.00255304
0.00254262
0.00253093
0.00251774
0.0025053
0.00027366
0.000587559
0.000910273
0.00120531
0.00146634
0.00169192
0.00188602
0.00205131
0.00219225
0.00231288
0.0024159
0.00250322
0.00257542
0.00263155
0.0026722
0.00269904
0.00271447
0.00272151
0.00272291
0.00272195
0.00272049
0.00271868
0.00271691
0.000287933
0.000615817
0.000944458
0.00124422
0.00151069
0.00174359
0.00194606
0.00212082
0.0022713
0.00240083
0.00251208
0.00260719
0.00268711
0.00275137
0.00280057
0.00283624
0.00286038
0.00287574
0.00288532
0.00289195
0.00289754
0.00290267
0.00290715
0.000294005
0.000630196
0.000968447
0.00127659
0.00155075
0.0017915
0.00200212
0.00218555
0.00234488
0.00248292
0.00260215
0.00270473
0.00279194
0.0028639
0.00292135
0.00296561
0.00299819
0.00302142
0.00303812
0.00305091
0.00306159
0.00307086
0.00307843
0.000294402
0.00062976
0.00098372
0.00130376
0.00158715
0.00183649
0.00205521
0.00224678
0.00241428
0.00256022
0.00268687
0.00279639
0.00289024
0.00296916
0.00303404
0.00308598
0.00312621
0.00315664
0.00317971
0.00319776
0.00321238
0.00322416
0.00323278
0.00029512
0.000634584
0.000997599
0.00132845
0.00162129
0.00187915
0.00210593
0.00230523
0.0024802
0.00263329
0.00276666
0.00288247
0.00298235
0.00306743
0.00313875
0.00319724
0.00324408
0.00328083
0.00330953
0.00333214
0.00334997
0.00336345
0.00337223
0.000295143
0.000634815
0.00100947
0.00135129
0.00165363
0.00191995
0.00215451
0.00236117
0.00254302
0.00270251
0.00284189
0.00296334
0.0030686
0.00315903
0.00323575
0.00329978
0.00335221
0.00339435
0.00342787
0.00345438
0.00347487
0.00348967
0.00349845
0.00029425
0.000627076
0.00101963
0.0013725
0.00168429
0.00195899
0.00220111
0.00241463
0.00260273
0.00276796
0.00291271
0.00303916
0.00314915
0.00324417
0.0033255
0.00339418
0.00345127
0.00349792
0.00353549
0.00356525
0.00358798
0.00360394
0.00361285
0.000294269
0.000625538
0.00102905
0.00139232
0.00171345
0.0019964
0.00224582
0.00246575
0.00265952
0.0028299
0.00297942
0.0031103
0.00322442
0.0033234
0.00340857
0.00348109
0.00354199
0.00359233
0.00363324
0.00366571
0.00369039
0.00370749
0.00371683
0.000294461
0.000624832
0.00103758
0.00141115
0.00174146
0.00203242
0.00228877
0.00251466
0.00271359
0.00288861
0.00304234
0.00317707
0.00329477
0.00339708
0.00348546
0.0035611
0.00362508
0.00367841
0.00372206
0.00375684
0.00378329
0.00380163
0.00381174
0.000294391
0.00062132
0.00104576
0.00142949
0.00176873
0.00206732
0.00233014
0.0025615
0.00276514
0.00294427
0.00310168
0.00323972
0.00336042
0.00346553
0.00355653
0.00363472
0.00370121
0.00375697
0.00380291
0.00383973
0.0038679
0.00388765
0.00389892
0.000294744
0.000620654
0.00105392
0.00144765
0.00179553
0.00210136
0.00237015
0.00260649
0.00281433
0.00299707
0.00315761
0.00329841
0.00342159
0.00352898
0.00362214
0.00370242
0.00377098
0.00382881
0.00387677
0.00391551
0.00394548
0.00396689
0.00397974
0.000295138
0.000619981
0.00106212
0.00146584
0.00182206
0.00213469
0.00240899
0.00264981
0.00286135
0.00304716
0.00321029
0.00335333
0.0034785
0.00358773
0.00368265
0.00376469
0.00383505
0.00389475
0.00394464
0.00398535
0.00401732
0.00404076
0.00405568
6.94244e-05
0.00060838
0.00107052
0.00148421
0.00184844
0.00216745
0.00244679
0.00269161
0.00290632
0.00309468
0.00325989
0.0034047
0.00353144
0.00364214
0.00373853
0.00382211
0.00389414
0.00395568
0.00400758
0.00405048
0.00408479
0.00411073
0.00412828
6.94502e-05
0.000606162
0.00107926
0.00150273
0.00187468
0.00219969
0.00248364
0.00273197
0.00294936
0.00313978
0.00330662
0.00345278
0.00358073
0.00369263
0.00379032
0.00387536
0.00394909
0.00401261
0.00406677
0.00411221
0.00414935
0.00417835
0.0041992
0.000294992
0.000608616
0.00108822
0.00152138
0.00190079
0.00223143
0.00251957
0.00277097
0.00299058
0.00318262
0.00335069
0.00349787
0.00362679
0.00373973
0.00383866
0.00392523
0.00400084
0.00406662
0.00412345
0.00417196
0.00421252
0.00424528
0.00427016
0.000294883
0.000604749
0.00109747
0.00154017
0.00192675
0.00226268
0.0025546
0.00280865
0.00303007
0.00322337
0.00339236
0.00354032
0.00367007
0.00378403
0.00388429
0.0039726
0.00405043
0.00411892
0.00417898
0.00423119
0.00427591
0.0043132
0.00434293
0.000295647
0.000606268
0.00110712
0.00155904
0.00195253
0.00229339
0.00258873
0.00284504
0.00306794
0.0032622
0.00343189
0.00358052
0.00371109
0.00382619
0.00392802
0.00401844
0.00409896
0.00417077
0.00423474
0.00429144
0.00434114
0.00438385
0.00441931
6.95371e-05
0.000597649
0.00111691
0.00157799
0.00197807
0.00232352
0.00262192
0.00288019
0.00310429
0.00329931
0.00346961
0.00361891
0.00375043
0.00386692
0.00397071
0.00406375
0.00414759
0.00422345
0.00429216
0.00435424
0.00440986
0.00445891
0.00450102
6.95512e-05
0.000596292
0.00112685
0.00159687
0.00200326
0.00235298
0.00265413
0.00291409
0.00313921
0.00333491
0.00350583
0.00365595
0.00378869
0.00390697
0.00401325
0.00410956
0.0041975
0.00427827
0.00435266
0.00442109
0.00448363
0.00454002
0.00458976
0.00029576
0.000600813
0.00113712
0.00161561
0.00202797
0.00238163
0.00268528
0.00294674
0.00317279
0.00336919
0.00354088
0.00369209
0.00382645
0.00394706
0.00405651
0.00415689
0.00424982
0.00433648
0.00441759
0.00449344
0.00456397
0.00462874
0.00468708
6.96171e-05
0.000595311
0.00114739
0.00163407
0.00205201
0.00240931
0.00271523
0.0029781
0.0032051
0.00340234
0.00357507
0.00372777
0.0038643
0.00398792
0.00410132
0.00420667
0.00430561
0.00439925
0.0044882
0.00457262
0.00465226
0.0047265
0.00479443
0.000295062
0.000597386
0.00115783
0.00165209
0.00207513
0.00243574
0.00274377
0.00300804
0.00323613
0.0034345
0.00360867
0.0037634
0.00390275
0.00403015
0.00414842
0.00425977
0.00436581
0.0044676
0.00456562
0.00465983
0.00474977
0.00483458
0.00491311
0.000295213
0.000598436
0.00116809
0.00166926
0.00209692
0.00246057
0.00277066
0.00303645
0.00326589
0.00346576
0.0036419
0.00379929
0.00394222
0.00407428
0.00419841
0.00431686
0.00443122
0.00454242
0.00465079
0.00475609
0.00485758
0.00495412
0.00504429
6.97109e-05
0.000598352
0.00117812
0.0016852
0.00211685
0.00248329
0.00279547
0.00306304
0.00329425
0.00349617
0.00367489
0.00383567
0.003983
0.00412068
0.00425172
0.00437845
0.00450239
0.00462435
0.00474447
0.00486224
0.0049766
0.00508611
0.00518899
0.000295488
0.000602877
0.00118721
0.00169897
0.00213401
0.00250311
0.0028176
0.0030874
0.00332098
0.00352562
0.00370766
0.00387262
0.00402524
0.00416949
0.00430856
0.00444477
0.00457961
0.00471376
0.00484709
0.00497881
0.0051075
0.0052313
0.00534806
0.000295623
0.000604747
0.00119387
0.00170921
0.00214709
0.00251891
0.00283621
0.00310897
0.00334572
0.0035539
0.00374007
0.00391004
0.00406882
0.00422063
0.00436879
0.0045157
0.0046628
0.00481058
0.00495868
0.00510595
0.00525058
0.00539023
0.00552218
0.000295665
0.000604964
0.00119719
0.00171421
0.00215426
0.00252915
0.00285019
0.003127
0.00336799
0.00358066
0.00377183
0.00394762
0.00411339
0.00427364
0.00443191
0.00459066
0.0047513
0.00491417
0.00507866
0.00524328
0.00540575
0.0055631
0.00571191
0.000296088
0.000603468
0.00119392
0.00171049
0.00215257
0.00253164
0.00285804
0.00314056
0.00338718
0.00360545
0.00380248
0.00398483
0.00415828
0.00432772
0.00449692
0.00466848
0.00484381
0.00502315
0.00520573
0.00538977
0.00557245
0.00574996
0.00591779
0.000296106
0.00059657
0.00117923
0.00169273
0.00213757
0.00252335
0.00285795
0.00314859
0.00340263
0.00362772
0.00383143
0.00402091
0.00420252
0.0043816
0.00456225
0.00474728
0.00493816
0.00513523
0.00533774
0.00554375
0.00574984
0.00595096
0.00614089
0.000295709
0.00058264
0.00114507
0.00165208
0.00210269
0.0025003
0.00284783
0.00315004
0.00341371
0.00364689
0.00385796
0.00405489
0.00424481
0.0044336
0.00462578
0.00482444
0.00503135
0.00524721
0.00547171
0.00570305
0.00593713
0.00616701
0.00638356
0.000295831
0.000550043
0.00107222
0.00157319
0.00203879
0.00245804
0.00282586
0.00314424
0.00342004
0.00366248
0.00388129
0.00408565
0.00428358
0.00448166
0.00468488
0.00489673
0.0051196
0.00535505
0.00560385
0.00586493
0.00613365
0.00640029
0.00665063
6.97704e-05
0.00044593
0.000921028
0.00143328
0.00193559
0.00239319
0.00279152
0.00313141
0.00342171
0.00367417
0.00390069
0.00411198
0.00431717
0.00452354
0.00473664
0.00496056
0.00519861
0.00545391
0.00572921
0.00602531
0.00633793
0.00665424
0.00695111
8.59383e-05
0.000245387
0.000659301
0.00121573
0.00178929
0.00230755
0.00274758
0.00311351
0.00341961
0.00368202
0.00391554
0.00413276
0.00434393
0.00455706
0.00477825
0.00501231
0.0052638
0.00553796
0.00584064
0.00617641
0.00654444
0.00693185
0.00730228
0.000187821
0.000116717
0.000353099
0.000942605
0.00161723
0.0022146
0.00270244
0.00309495
0.00341565
0.00368645
0.00392545
0.00414704
0.00436249
0.00458039
0.00480733
0.0050488
0.00531063
0.00560036
0.00592762
0.00630308
0.00673599
0.00722822
0.00774387
0.000413128
0.000137338
0.000165735
0.0007086
0.00147677
0.00214577
0.00267129
0.0030824
0.00341244
0.00368825
0.00393032
0.00415426
0.00437193
0.0045923
0.00482223
0.00506765
0.00533521
0.00563403
0.00597671
0.00638016
0.00686985
0.0074974
0.00839233
6.65256e-05
6.20394e-05
6.24989e-05
6.73283e-05
0.000597958
0.000568434
0.000567056
0.000594101
0.00117241
0.00114497
0.0011434
0.00116835
0.00162436
0.0016087
0.00160569
0.00161734
0.00197299
0.00196724
0.00196585
0.00197027
0.00225239
0.00225157
0.0022543
0.00225787
0.00250147
0.00250135
0.00250251
0.00250388
0.00271755
0.00271854
0.00271938
0.0027197
0.00290997
0.00291137
0.00291194
0.0029114
0.00308191
0.00308309
0.00308301
0.00308148
0.00323581
0.00323637
0.00323547
0.00323297
0.00337437
0.00337418
0.0033724
0.00336892
0.00349976
0.00349892
0.00349642
0.00349214
0.00361367
0.00361243
0.00360945
0.00360467
0.00371756
0.00371619
0.00371305
0.00370806
0.00381278
0.00381157
0.00380855
0.00380366
0.00390066
0.00389989
0.00389729
0.0038928
0.0039826
0.00398256
0.00398067
0.00397689
0.00406008
0.00406106
0.0040602
0.00405745
0.0041347
0.00413702
0.00413751
0.00413612
0.00420816
0.00421217
0.00421436
0.00421468
0.00428223
0.00428829
0.00429255
0.00429495
0.00435872
0.00436722
0.00437393
0.0043788
0.00443945
0.00445079
0.00446035
0.00446807
0.00452618
0.00454077
0.00455359
0.00456454
0.00462059
0.00463885
0.00465531
0.00466988
0.00472426
0.00474659
0.00476709
0.00478562
0.00483861
0.00486542
0.00489031
0.00491316
0.00496496
0.00499661
0.00502626
0.00505375
0.00510444
0.00514131
0.00517605
0.00520846
0.00525807
0.00530054
0.00534067
0.00537829
0.00542676
0.00547519
0.00552104
0.00556409
0.00561126
0.00566605
0.00571794
0.00576668
0.00581226
0.00587388
0.00593216
0.00598684
0.00603056
0.00609958
0.00616467
0.00622552
0.00626757
0.0063447
0.00641703
0.00648425
0.00652615
0.00661221
0.00669216
0.00676569
0.0068118
0.00690762
0.0069952
0.00707438
0.00713437
0.00724043
0.00733464
0.00741736
0.00751146
0.00762642
0.00772334
0.00780439
0.00797657
0.00809116
0.00817878
0.00824625
0.00859395
0.00866902
0.00871567
0.00874653
0.000332582
0.000712874
0.000999294
0.00117937
0.00128224
0.00133377
0.00135145
0.00134504
0.00132015
0.0012818
0.00123513
0.00117907
0.00111119
0.00102869
0.000925556
0.00078948
0.000603348
0.00034523
4.62487e-05
0.000791987
0.00106436
0.00127926
0.00142613
0.00151537
0.00156117
0.00157551
0.0015663
0.00153856
0.00149635
0.00144224
0.00137406
0.00128998
0.0011869
0.00105756
0.000892033
0.000674271
0.000379651
4.78756e-05
0.0012602
0.00142217
0.00156546
0.0016717
0.00173936
0.00177362
0.00178077
0.00176605
0.00173332
0.00168576
0.00162334
0.00154337
0.00144375
0.00132214
0.00116972
0.000977437
0.000731975
0.00040969
4.93373e-05
0.00165978
0.00174927
0.00183756
0.00190707
0.00195196
0.00197229
0.00197007
0.00194804
0.00190875
0.00185445
0.00178433
0.00169329
0.00157831
0.00144101
0.00126989
0.00105525
0.000787266
0.000470188
0.000236338
0.00198801
0.00203717
0.00208776
0.00212703
0.00215061
0.00215638
0.00214355
0.0021127
0.00206481
0.00200093
0.00192126
0.00182151
0.00169696
0.00154535
0.00136123
0.00112897
0.000832469
0.000451158
5.44203e-05
0.0022666
0.00229063
0.00231512
0.00233145
0.00233647
0.00232749
0.00230189
0.00225935
0.00220029
0.00212561
0.0020351
0.00192652
0.00179556
0.00163839
0.00144621
0.00120346
0.000893625
0.000485633
5.80163e-05
0.00250699
0.00251482
0.00252048
0.00251963
0.0025093
0.00248683
0.00244824
0.00239291
0.00232205
0.00223612
0.00213462
0.00201737
0.00187956
0.00171061
0.0015106
0.00126486
0.000960324
0.000597985
0.000294941
0.00271949
0.00271566
0.00270719
0.00269281
0.00266996
0.0026349
0.00258362
0.00251636
0.00243386
0.00233619
0.0022221
0.00209064
0.00193739
0.00175633
0.00154505
0.00129052
0.000972269
0.000565081
0.000295602
0.00290838
0.00289658
0.00287798
0.0028528
0.00281904
0.00277211
0.00270945
0.00263121
0.00253751
0.00242772
0.00229985
0.00215161
0.00197974
0.00178221
0.00155621
0.00129018
0.000963515
0.000553879
0.000295403
0.00307632
0.00305938
0.00303372
0.00300014
0.00295684
0.00289953
0.00282668
0.00273825
0.00263369
0.0025117
0.00236973
0.00220457
0.00201338
0.00179746
0.00155417
0.00127547
0.000945868
0.000547339
6.95697e-05
0.00322601
0.00320549
0.00317491
0.00313484
0.00308356
0.00301771
0.00293623
0.00283869
0.00272401
0.00259037
0.00243493
0.00225407
0.00204495
0.00180948
0.00154821
0.0012561
0.000924435
0.000546184
0.000294534
0.00336025
0.00333713
0.00330291
0.00325784
0.00320032
0.00312789
0.00303954
0.00293441
0.00281102
0.00266719
0.00249992
0.0023056
0.00208117
0.00182739
0.00154676
0.00123819
0.000900349
0.000533632
6.95021e-05
0.00348209
0.00345679
0.00341993
0.00337112
0.00330902
0.00323178
0.00313826
0.00302726
0.00289702
0.00274517
0.0025686
0.00236372
0.00212722
0.00185831
0.00155929
0.00123275
0.000884142
0.000521867
6.94893e-05
0.00359372
0.0035669
0.00352814
0.00347674
0.00341151
0.003331
0.0032339
0.00311879
0.00298374
0.00282628
0.00264328
0.00243116
0.00218637
0.00190676
0.00159295
0.00124892
0.000884272
0.000514045
0.000294201
0.00369673
0.00366911
0.00362924
0.00357635
0.00350933
0.0034269
0.0033277
0.00321013
0.00307221
0.00291144
0.00272475
0.00250862
0.00225934
0.00197391
0.00165108
0.00129295
0.000906527
0.000505219
0.000293186
0.00379247
0.00376484
0.00372473
0.00367139
0.00360377
0.00352065
0.00342063
0.00330207
0.00316295
0.00300081
0.00281268
0.00259513
0.00234445
0.00205715
0.00173043
0.00136285
0.000954489
0.000509522
0.000292313
0.00388227
0.00385543
0.00381599
0.00376319
0.00369603
0.0036133
0.00351359
0.00339523
0.00325623
0.00309416
0.00290614
0.00268883
0.00243845
0.00215099
0.00182214
0.0014466
0.00101757
0.000532183
6.97073e-05
0.00396755
0.00394231
0.00390442
0.00385309
0.00378733
0.00370593
0.00360747
0.00349027
0.00335232
0.00319124
0.00300418
0.00278774
0.00253795
0.00225006
0.00191806
0.00153335
0.00108342
0.000559663
6.99398e-05
0.00404984
0.00402703
0.00399153
0.00394254
0.00387904
0.00379978
0.00370332
0.00358795
0.00345166
0.00329204
0.00310618
0.00289056
0.0026408
0.00235133
0.00201455
0.00161945
0.00115025
0.000593562
6.99351e-05
0.00413082
0.00411125
0.00407898
0.00403313
0.00397264
0.00389621
0.00380234
0.00368928
0.00355496
0.00339692
0.00321212
0.00299681
0.00274618
0.00245379
0.00211074
0.00170431
0.00121667
0.000631968
7.28501e-05
0.00421227
0.00419676
0.00416852
0.00412657
0.00406976
0.00399672
0.00390589
0.00379544
0.00366321
0.00350663
0.00332251
0.00310682
0.00285428
0.00255767
0.00220698
0.00178818
0.00128155
0.000668209
7.61072e-05
0.00429605
0.00428543
0.00426199
0.00422463
0.0041721
0.00410294
0.00401548
0.0039078
0.00377763
0.00362225
0.00343831
0.00322142
0.00296598
0.00266416
0.00230501
0.00187295
0.0013464
0.000704469
7.95318e-05
0.00438403
0.00437913
0.00436122
0.0043291
0.00428139
0.0042165
0.00413267
0.00402783
0.0038996
0.00374507
0.00356076
0.00334206
0.00308288
0.00277487
0.00240619
0.00195994
0.00141248
0.000740382
8.32357e-05
0.00447805
0.00447967
0.00446801
0.00444173
0.00439931
0.00433904
0.00425901
0.00415703
0.0040306
0.00387668
0.0036915
0.00347023
0.00320642
0.00289119
0.00251194
0.00205048
0.00148114
0.000777781
8.7103e-05
0.0045799
0.0045888
0.00458406
0.00456416
0.00452744
0.00447207
0.00439603
0.00429697
0.00417223
0.00401856
0.003832
0.00360744
0.0033381
0.0030146
0.00262362
0.0021458
0.00155344
0.000817475
9.11163e-05
0.00469121
0.00470814
0.00471091
0.00469787
0.00466725
0.00461708
0.00454517
0.00444906
0.00432588
0.00417219
0.00398377
0.00375524
0.00347945
0.00314659
0.00274263
0.00224707
0.00163025
0.000859957
9.52603e-05
0.0048135
0.00483911
0.00484995
0.00484423
0.00482004
0.00477529
0.00470768
0.00461456
0.00449288
0.00433896
0.0041483
0.00391518
0.00363208
0.00328872
0.0028704
0.0023555
0.00171243
0.000905719
9.95184e-05
0.00494812
0.00498302
0.00500239
0.00500434
0.00498685
0.00494774
0.00488459
0.00479458
0.00467443
0.0045202
0.00432704
0.00408884
0.00379765
0.00344265
0.00300846
0.00247238
0.00180084
0.000955034
0.000104085
0.00509625
0.00514095
0.00516923
0.00517911
0.00516853
0.00513526
0.00507676
0.00499005
0.00487161
0.00471715
0.00452144
0.00427787
0.00397793
0.00361021
0.00315856
0.00259917
0.00189649
0.00100816
0.000109263
0.00525894
0.00531384
0.00535126
0.00536924
0.00536572
0.00533844
0.00528481
0.00520169
0.0050853
0.00493097
0.00473294
0.00448398
0.00417488
0.00379346
0.00332272
0.00273767
0.00200071
0.0010658
0.000115235
0.00543711
0.00550248
0.00554915
0.00557523
0.00557879
0.00555762
0.00550912
0.00543002
0.00531625
0.00516269
0.00496295
0.004709
0.0043907
0.00399483
0.00350336
0.00289005
0.00211523
0.00112912
0.000121986
0.00563156
0.00570752
0.00576336
0.0057974
0.00580792
0.0057929
0.0057498
0.00567527
0.00556495
0.0054132
0.00521287
0.00495489
0.00462787
0.00421722
0.00370349
0.00305901
0.00224215
0.00119946
0.000129455
0.00584306
0.00592956
0.00599425
0.00603584
0.00605302
0.0060441
0.00600667
0.00593739
0.00583163
0.0056832
0.00548402
0.00522375
0.00488932
0.00446419
0.00392694
0.00324808
0.00238405
0.0012781
0.000137754
0.00607234
0.00616912
0.00624204
0.00629049
0.00631378
0.00631072
0.00627921
0.00621597
0.00611618
0.00597308
0.00577758
0.00551777
0.00517838
0.00474018
0.00417879
0.00346209
0.00254451
0.00136672
0.000147053
0.00632029
0.00642675
0.00650687
0.00656109
0.00658961
0.00659196
0.0065665
0.00651015
0.006418
0.00628279
0.00609439
0.00583909
0.00549888
0.00505076
0.00446591
0.00370803
0.00272883
0.00146781
0.000157572
0.00658819
0.00670315
0.00678885
0.0068472
0.00687967
0.00688668
0.00686724
0.00681861
0.00673595
0.00661167
0.00643474
0.00618957
0.00585493
0.00540282
0.00479775
0.00399629
0.00294547
0.00158535
0.000169576
0.00687812
0.00699937
0.00708808
0.00714823
0.00718285
0.00719343
0.00717972
0.0071395
0.00706819
0.00695822
0.00679796
0.00657025
0.00625048
0.00580449
0.00518714
0.00434278
0.00320849
0.00172594
0.000183593
0.00719331
0.00731682
0.00740462
0.00746337
0.00749779
0.00751045
0.00750188
0.00747045
0.00741215
0.00731983
0.00718197
0.0069806
0.00668836
0.00626452
0.0056511
0.00477219
0.00354286
0.00190215
0.000200574
0.0075382
0.00765706
0.00773829
0.00779149
0.00782285
0.00783577
0.00783139
0.00780873
0.00776456
0.00769271
0.00758274
0.00741739
0.0071685
0.00679032
0.00621055
0.00532276
0.00399557
0.00214215
0.000221927
0.00791758
0.00802091
0.00808812
0.00813092
0.00815612
0.00816732
0.00816589
0.00815141
0.00812162
0.0080719
0.00799397
0.00787348
0.00768508
0.00738342
0.0068866
0.00605148
0.00465941
0.00251793
0.000250106
0.00833407
0.00840686
0.0084516
0.00847927
0.00849549
0.00850309
0.00850321
0.00849578
0.00847953
0.00845175
0.00840734
0.00833702
0.00822324
0.00803117
0.00768751
0.00703185
0.0057246
0.00324624
0.000289667
0.00878228
0.00880866
0.00882403
0.00883332
0.00883878
0.00884145
0.00884177
0.00883977
0.0088351
0.00882693
0.00881369
0.00879243
0.00875733
0.00869574
0.00857637
0.00830764
0.0075706
0.00520501
0.000343405
)
;

boundaryField
{
    leftWall
    {
        type            nutkWallFunction;
        Cmu             0.09;
        kappa           0.41;
        E               9.8;
        value           nonuniform List<scalar> 
50
(
1.39592e-06
2.32919e-06
2.87777e-06
3.27636e-06
3.58843e-06
3.84835e-06
4.07575e-06
4.28813e-06
4.5671e-06
4.91851e-06
5.34539e-06
3.12918e-07
2.25493e-06
7.68746e-09
0
0
0
0
0
0
0
0
0
0
0
0
0
0
0
0
0
5.35647e-09
0
0
4.85906e-09
0
0
0
0
0
4.61834e-10
6.86276e-10
8.75899e-09
9.1548e-09
1.80094e-09
5.76137e-09
0
2.62526e-06
1.80661e-05
4.87278e-05
)
;
    }
    rightWall
    {
        type            nutkWallFunction;
        Cmu             0.09;
        kappa           0.41;
        E               9.8;
        value           nonuniform List<scalar> 
50
(
1.72489e-06
2.71366e-06
3.33737e-06
3.83188e-06
4.25313e-06
4.63064e-06
4.97887e-06
5.30706e-06
5.60378e-06
5.80268e-06
5.97436e-06
0
1.29632e-06
7.79048e-09
0
4.27891e-09
1.09706e-09
0
0
0
0
0
4.66419e-09
0
0
5.51205e-09
0
4.82269e-07
1.02373e-06
1.60383e-06
2.20694e-06
2.83262e-06
3.47761e-06
4.12959e-06
4.7933e-06
5.51267e-06
6.3306e-06
7.27183e-06
8.3114e-06
9.45214e-06
1.07081e-05
1.21033e-05
1.36663e-05
1.54186e-05
1.74557e-05
1.99034e-05
2.29377e-05
2.68813e-05
3.232e-05
3.95549e-05
)
;
    }
    lowerWall
    {
        type            nutkWallFunction;
        Cmu             0.09;
        kappa           0.41;
        E               9.8;
        value           nonuniform List<scalar> 
62
(
3.00108e-07
9.06488e-07
1.23679e-06
1.45675e-06
1.62004e-06
1.74763e-06
1.84992e-06
1.93281e-06
2.00021e-06
2.05542e-06
2.10199e-06
2.14285e-06
2.17875e-06
2.20592e-06
2.21426e-06
2.18697e-06
2.11988e-06
2.01546e-06
1.86739e-06
1.69009e-06
1.50616e-06
1.1749e-06
6.06413e-07
6.06413e-07
3.19133e-06
3.85413e-06
4.42333e-06
4.98293e-06
5.60277e-06
6.35847e-06
7.52129e-06
8.03276e-06
7.5044e-06
7.55595e-06
8.12233e-06
8.94786e-07
4.023e-06
4.45174e-06
4.71249e-06
5.04895e-06
5.58756e-06
6.40511e-06
7.82563e-06
8.94786e-07
1.5801e-06
1.94465e-06
2.07184e-06
2.12536e-06
2.14768e-06
2.14128e-06
2.12462e-06
2.07448e-06
1.99432e-06
1.87915e-06
1.71448e-06
1.62332e-06
1.61228e-06
1.54745e-06
1.40068e-06
1.1369e-06
8.11486e-07
3.53066e-07
)
;
    }
    atmosphere
    {
        type            calculated;
        value           nonuniform List<scalar> 
46
(
0.009
0.000137338
0.000165735
0.0007086
0.00147677
0.00214577
0.00267129
0.0030824
0.00341244
0.00368825
0.00393032
0.00415426
0.00437193
0.0045923
0.00482223
0.00506765
0.00533521
0.00563403
0.00597671
0.00638016
0.00686985
0.0074974
0.009
0.009
0.009
0.009
0.009
0.009
0.009
0.009
0.009
0.009
0.009
0.009
0.009
0.009
0.009
0.009
0.009
0.009
0.009
0.009
0.009
0.009
0.009
0.000343405
)
;
    }
    defaultFaces
    {
        type            empty;
    }
}


// ************************************************************************* //
