/*--------------------------------*- C++ -*----------------------------------*\
  =========                 |
  \\      /  F ield         | OpenFOAM: The Open Source CFD Toolbox
   \\    /   O peration     | Website:  https://openfoam.org
    \\  /    A nd           | Version:  9
     \\/     M anipulation  |
\*---------------------------------------------------------------------------*/
FoamFile
{
    format      ascii;
    class       volScalarField;
    location    "8.63";
    object      k;
}
// * * * * * * * * * * * * * * * * * * * * * * * * * * * * * * * * * * * * * //

dimensions      [0 2 -2 0 0 0 0];

internalField   nonuniform List<scalar> 
2268
(
9.95133e-05
0.000254983
0.00037557
0.000470056
0.000547681
0.000612787
0.000667848
0.000714487
0.000753887
0.000787468
0.000816995
0.000843576
0.000867141
0.000884826
0.000889798
0.000870647
0.00081797
0.000749193
0.000662535
0.000577028
0.000490822
0.000359716
0.000173476
0.000218934
0.000592663
0.000842273
0.00104084
0.00120492
0.00134281
0.00145948
0.00155831
0.00164186
0.00171274
0.00177388
0.00182697
0.00187116
0.00190126
0.00190655
0.00187186
0.00178661
0.00165864
0.00149506
0.00131959
0.00113335
0.000833523
0.000386375
0.000314118
0.0007936
0.00110095
0.0013456
0.00154848
0.00171911
0.00186341
0.00198559
0.00208901
0.00217681
0.00225207
0.00231642
0.0023686
0.00240296
0.00240868
0.00237164
0.00228287
0.0021493
0.00197813
0.00178063
0.00154242
0.00116746
0.000545621
0.000395622
0.000955096
0.00130092
0.00157478
0.00180219
0.00199358
0.00215542
0.00229245
0.00240855
0.00250719
0.00259144
0.00266286
0.00272002
0.00275736
0.00276495
0.00273056
0.00264665
0.00251903
0.00235444
0.00215569
0.00189817
0.00148664
0.000707872
0.000466962
0.00109806
0.00147555
0.0017717
0.0020173
0.0022239
0.00239852
0.00254637
0.00267174
0.00277835
0.00286926
0.00294602
0.0030072
0.00304761
0.00305854
0.00302984
0.00295505
0.00283866
0.0026871
0.00249834
0.00224236
0.00181989
0.000891316
0.000531492
0.00122991
0.00163623
0.0019513
0.00221158
0.00243009
0.00261456
0.00277071
0.00290324
0.00301607
0.0031123
0.00319351
0.00325843
0.00330237
0.00331793
0.003297
0.00323428
0.00313268
0.00299821
0.00282675
0.00258825
0.00218014
0.00112843
0.000591599
0.00135451
0.00178833
0.00212045
0.00239317
0.00262132
0.00281354
0.00297619
0.00311435
0.0032322
0.00333292
0.00341813
0.0034868
0.00353486
0.00355613
0.00354434
0.00349572
0.00341172
0.00329705
0.00314766
0.0029388
0.0025731
0.00148667
0.000648969
0.00147445
0.00193494
0.00228292
0.00256648
0.00280251
0.00300082
0.00316852
0.00331116
0.00343316
0.00353781
0.00362681
0.00369943
0.00375218
0.00378004
0.00377826
0.0037447
0.00368049
0.00358734
0.00346231
0.00328939
0.00299954
0.0021116
0.000240924
0.000534836
0.0007342
0.000817375
0.000857007
0.000875702
0.000873589
0.000863603
0.000831087
0.000778603
0.00070768
0.000615495
0.000542206
0.000528539
0.000499789
0.000439367
0.000333969
0.00022473
0.000103565
0.000445551
0.00111005
0.00150289
0.00169459
0.00178791
0.0018318
0.00184007
0.00181762
0.00175492
0.00165904
0.00152343
0.00135221
0.00122935
0.00118787
0.00111133
0.000972669
0.000755231
0.000496453
0.000218637
0.00053295
0.0014026
0.00188212
0.00212564
0.00224869
0.00230654
0.00232001
0.00229347
0.00222081
0.00211097
0.00196427
0.00178703
0.00164337
0.00155743
0.00144412
0.00127131
0.00101073
0.000683829
0.000317684
0.000611799
0.0016343
0.00217017
0.00244277
0.00258095
0.00264518
0.00266021
0.00263088
0.0025536
0.00243798
0.00228908
0.0021154
0.00196143
0.00184181
0.0016997
0.00150526
0.00122476
0.000865279
0.000411285
0.000732656
0.0018689
0.00244007
0.00272147
0.00286258
0.00292706
0.0029408
0.00290886
0.00282901
0.00271114
0.00256336
0.00239471
0.00223383
0.0020891
0.00192351
0.00171247
0.00142144
0.00104687
0.000501892
0.000923141
0.00215492
0.00271819
0.00298612
0.00311952
0.00317915
0.00318933
0.0031547
0.0030735
0.00295534
0.00281034
0.00264612
0.00247953
0.00231562
0.00213111
0.00190556
0.00160574
0.00122281
0.000594144
0.00126548
0.00250987
0.00300971
0.00324482
0.00336233
0.0034132
0.00341807
0.00338061
0.0032992
0.00318233
0.0030408
0.00287975
0.00270805
0.00252891
0.00232901
0.00208976
0.00177872
0.00138693
0.000696004
0.00191555
0.00292009
0.00330778
0.0034986
0.0035953
0.0036349
0.00363329
0.0035929
0.0035123
0.00339846
0.00326059
0.00310128
0.00292479
0.00273316
0.0025198
0.00226671
0.00194276
0.00153634
0.000793576
0.000736168
0.00165751
0.00215865
0.00253011
0.00282864
0.00307465
0.00328021
0.00345382
0.00360189
0.0037293
0.00383948
0.00393416
0.00401306
0.00407357
0.0041124
0.00412723
0.00411851
0.00408646
0.00402865
0.0039416
0.00382019
0.00363758
0.00326882
0.000843125
0.00189795
0.00245339
0.00285537
0.00317029
0.00342416
0.00363375
0.00381052
0.0039625
0.00409525
0.00421261
0.0043163
0.00440587
0.00447956
0.00453524
0.00457207
0.00459149
0.00459499
0.00457834
0.00453373
0.00445979
0.00436062
0.00422829
0.00098552
0.00216393
0.00276199
0.00319397
0.00352105
0.00377462
0.00397896
0.00415123
0.00430204
0.00443733
0.00456105
0.00467439
0.00477595
0.00486372
0.00493553
0.00499097
0.00503171
0.00506031
0.00507221
0.00505878
0.00501788
0.00496651
0.00491995
0.00135129
0.00252794
0.00311408
0.00358242
0.00391702
0.0041605
0.00434271
0.00449508
0.00463538
0.00476765
0.00489528
0.00501653
0.00512738
0.00522752
0.00531154
0.00537949
0.00543507
0.0054806
0.00551028
0.00552118
0.00550576
0.00548309
0.0054799
0.00159346
0.00274873
0.00340443
0.00384833
0.00412945
0.0043838
0.00459004
0.00476038
0.00491617
0.00506267
0.00520941
0.00534738
0.00546838
0.00557742
0.00565918
0.00571249
0.00576788
0.00583706
0.00590191
0.0059351
0.00592709
0.00592599
0.00594424
0.00161867
0.0027191
0.00357131
0.00394914
0.0042327
0.00453258
0.00475828
0.0049317
0.00509943
0.00526154
0.0054252
0.00558895
0.00575328
0.00588585
0.00595317
0.00599616
0.00606274
0.00613923
0.00620118
0.00625956
0.00628278
0.00628568
0.00631729
0.00200438
0.00283547
0.00352743
0.00394093
0.00429676
0.00461644
0.00486575
0.0050693
0.00525712
0.0054344
0.00560635
0.00577542
0.00593924
0.00606976
0.00615247
0.00621819
0.00628702
0.00635982
0.00642379
0.00648097
0.00652645
0.00655978
0.00660442
0.00228445
0.00293584
0.0035193
0.00396402
0.00434402
0.00466269
0.00493592
0.00517503
0.00538971
0.00558713
0.00577204
0.00594722
0.00611022
0.00624558
0.00634841
0.00643084
0.00650494
0.00657444
0.00664129
0.00670235
0.00675602
0.00679786
0.00683128
0.00238889
0.00300511
0.00355214
0.00400328
0.0043891
0.00471979
0.00501055
0.00527046
0.00550558
0.00572206
0.00592387
0.0061137
0.00628911
0.00643519
0.00654854
0.00664037
0.0067199
0.0067907
0.00685776
0.0069211
0.00697824
0.00702403
0.00705531
0.00240542
0.00304181
0.00359065
0.00404725
0.00444032
0.00478366
0.00508954
0.00536599
0.00561853
0.00585198
0.00607002
0.00627427
0.00646057
0.00661638
0.00674041
0.00684334
0.00693179
0.00700856
0.00707853
0.00714404
0.00720364
0.00725339
0.00728954
0.00240763
0.00306434
0.00362574
0.00409215
0.00449553
0.0048519
0.00517196
0.00546333
0.00573141
0.00597996
0.00621154
0.00642678
0.00662152
0.00678751
0.00692445
0.00704084
0.00714164
0.00722857
0.00730558
0.00737617
0.00744029
0.00749551
0.00753896
0.00240508
0.00308327
0.00366004
0.00413855
0.00455363
0.00492277
0.0052563
0.00556153
0.0058436
0.00610546
0.00634861
0.00657327
0.00677685
0.00695469
0.00710671
0.00723819
0.00735317
0.0074531
0.00754088
0.00762028
0.00769222
0.00775528
0.00780714
0.0024065
0.00310318
0.00369629
0.00418774
0.0046148
0.00499629
0.00534265
0.00566085
0.00595569
0.00622957
0.00648367
0.00671846
0.00693245
0.00712367
0.00729216
0.00744022
0.00757091
0.00768581
0.00778724
0.00787864
0.00796132
0.0080344
0.00809582
0.00239966
0.00312619
0.00373588
0.00424061
0.00467974
0.00507331
0.00543207
0.00576271
0.00606964
0.00635514
0.00662066
0.00686692
0.00709341
0.00729932
0.00748478
0.00765068
0.00779875
0.00793042
0.00804786
0.00815387
0.00824965
0.00833462
0.00840686
0.00240009
0.00315137
0.00377946
0.00429794
0.00474934
0.00515495
0.00552597
0.00586884
0.00618779
0.00648537
0.00676337
0.00702269
0.00726338
0.00748525
0.0076884
0.00787311
0.00804007
0.00819044
0.00832609
0.00844909
0.00856035
0.00865931
0.00874415
0.00240026
0.00317904
0.00382754
0.00436049
0.00482451
0.00524229
0.00562558
0.00598085
0.00631234
0.00662299
0.0069148
0.00718881
0.00744537
0.00768457
0.00790642
0.00811097
0.00829846
0.0084696
0.00862575
0.00876824
0.00889758
0.00901309
0.00911298
0.0024065
0.0032116
0.00388096
0.00442891
0.00490602
0.00533625
0.00573204
0.00610022
0.00644521
0.00677022
0.00707732
0.0073677
0.00764188
0.00790005
0.0081422
0.00836822
0.00857811
0.00877222
0.00895127
0.00911593
0.00926622
0.00940125
0.00951914
0.00240329
0.00324796
0.00393995
0.00450372
0.00499441
0.00543759
0.00584644
0.00622837
0.0065881
0.00692891
0.00725296
0.00756154
0.0078553
0.00813446
0.00839898
0.00864866
0.0088833
0.00910288
0.00930755
0.00949733
0.00967175
0.00982961
0.00996892
0.00240717
0.0032877
0.00400475
0.00458519
0.00509011
0.00554698
0.00596983
0.00636665
0.00674249
0.00710073
0.00744361
0.00777248
0.00808808
0.00839065
0.00868011
0.00895615
0.00921837
0.00946639
0.00969983
0.00991812
0.0101203
0.0103047
0.0104693
0.00240044
0.00333178
0.00407526
0.00467336
0.00519343
0.005665
0.00610305
0.00651619
0.00690975
0.00728729
0.00765112
0.00800269
0.00834276
0.00867161
0.00898908
0.00929473
0.00958795
0.00986797
0.0101339
0.0103846
0.0106186
0.0108339
0.0110281
0.00240033
0.00338032
0.00415139
0.00476821
0.00530458
0.00579212
0.00624684
0.00667794
0.00709112
0.00749012
0.00787737
0.0082544
0.00862203
0.0089805
0.0093296
0.00966874
0.00999701
0.0103133
0.0106162
0.010904
0.0111746
0.0114257
0.0116543
0.00240113
0.00343379
0.00423293
0.00486975
0.00542374
0.00592873
0.0064018
0.00685278
0.00728776
0.0077107
0.00812421
0.00852991
0.00892866
0.00932069
0.00970569
0.0100829
0.0104511
0.0108087
0.0111538
0.0114841
0.011797
0.0120894
0.012358
0.00240708
0.00348914
0.00431969
0.00497794
0.00555102
0.00607511
0.00656843
0.00704146
0.00750072
0.00795046
0.00839348
0.00883154
0.00926555
0.00969572
0.0101216
0.0105423
0.0109561
0.0113611
0.0117547
0.012134
0.0124957
0.012836
0.0131509
0.00240621
0.00354865
0.0044116
0.00509272
0.00568645
0.00623145
0.00674712
0.00724463
0.00773098
0.00821076
0.00868701
0.00916166
0.00963571
0.0101093
0.010582
0.0110525
0.0115188
0.0119783
0.0124279
0.0128638
0.0132818
0.0136775
0.0140461
0.00240309
0.0036103
0.0045084
0.00521386
0.00582991
0.00639778
0.0069381
0.00746279
0.00797937
0.00849284
0.00900654
0.00952262
0.0100422
0.0105655
0.0110918
0.0116195
0.0121463
0.0126689
0.0131832
0.0136847
0.0141681
0.0146279
0.0150585
0.00240361
0.00367758
0.00460975
0.00534094
0.00598107
0.00657395
0.00714144
0.00769626
0.00824653
0.00879777
0.00935368
0.00991669
0.0104881
0.0110682
0.0116561
0.0122499
0.0128467
0.0134423
0.0140319
0.0146095
0.0151687
0.0157028
0.0162048
0.00240379
0.00374491
0.00471495
0.00547335
0.00613939
0.00675952
0.00735691
0.00794512
0.00853293
0.00912641
0.00972981
0.0103459
0.0109764
0.0116215
0.0122803
0.0129505
0.0136284
0.014309
0.0149861
0.0156523
0.0162997
0.0169199
0.0175044
0.00240964
0.00381682
0.00482323
0.00561026
0.00630411
0.00695385
0.00758399
0.00820903
0.00883854
0.00947925
0.010136
0.0108122
0.0115098
0.0122293
0.0129697
0.0137282
0.0145004
0.0152801
0.0160594
0.0168291
0.0175792
0.0182994
0.0189791
0.00240414
0.00388827
0.00493354
0.00575063
0.0064742
0.00715594
0.0078218
0.0084873
0.00916289
0.00985615
0.0105727
0.0113167
0.0120905
0.0128951
0.0137294
0.0145903
0.0154723
0.0163678
0.0172668
0.0181577
0.0190279
0.0198642
0.0206538
0.00240514
0.00396112
0.00504477
0.00589309
0.00664824
0.00736442
0.00806904
0.00877872
0.00950496
0.0102564
0.0110396
0.0118596
0.0127198
0.0136216
0.014564
0.0155434
0.0165535
0.0175847
0.0186245
0.019658
0.0206691
0.021641
0.0225577
0.00240225
0.00403451
0.00515508
0.00603579
0.00682437
0.00757744
0.00832386
0.00908148
0.00986298
0.0106782
0.0115352
0.0124402
0.0133977
0.01441
0.0154765
0.0165935
0.0177533
0.018944
0.0201501
0.0213523
0.0225297
0.0236606
0.0247246
0.00240564
0.00410454
0.00526224
0.00617633
0.00700021
0.00779264
0.00858388
0.00939307
0.0102343
0.011119
0.0120569
0.013056
0.0141225
0.0152599
0.0164686
0.0177447
0.0190796
0.0204587
0.0218622
0.0232654
0.0246405
0.025959
0.0271946
0.00241232
0.00416878
0.00536318
0.00631177
0.00717289
0.00800717
0.0088461
0.00971021
0.0106153
0.0115747
0.0126003
0.0137025
0.0148898
0.0161679
0.0175386
0.0189987
0.0205385
0.0221408
0.0237804
0.025425
0.0270373
0.0285792
0.0300159
0.00240892
0.00422234
0.00545282
0.00643792
0.00733899
0.00821778
0.00910704
0.0100288
0.011001
0.0120394
0.0131587
0.0143725
0.0156922
0.0171268
0.0186808
0.0203526
0.0221322
0.0239997
0.0259236
0.0278613
0.0297621
0.0315733
0.0332471
0.00241092
0.00425801
0.00552529
0.00655037
0.00749496
0.00842111
0.0093628
0.0103441
0.0113854
0.0125056
0.0137231
0.0150552
0.0165179
0.0181244
0.0198835
0.021797
0.0238564
0.0260399
0.0283087
0.030607
0.0328644
0.0350051
0.0369618
0.00241479
0.00426869
0.00557484
0.00664518
0.00763775
0.00861399
0.00960928
0.0106503
0.0117609
0.0129637
0.0142814
0.0157362
0.0173497
0.0191413
0.0211264
0.0233128
0.0256966
0.0282563
0.0309469
0.0336955
0.0364028
0.0389557
0.0412539
0.00241537
0.00424682
0.00559569
0.00671953
0.00776554
0.0087939
0.00984231
0.0109413
0.0121187
0.0134019
0.0148184
0.0163965
0.0181646
0.0201503
0.0223783
0.0248668
0.0276215
0.030627
0.0338359
0.0371563
0.0404469
0.0435315
0.0462478
0.00240935
0.00418142
0.00558302
0.00677296
0.00787851
0.00895928
0.0100577
0.0112096
0.0124483
0.0138061
0.0153162
0.017013
0.0189332
0.0211145
0.0235946
0.0264071
0.0295757
0.0331017
0.0369464
0.0410045
0.0450784
0.0488792
0.0521152
0.00240565
0.00406456
0.00553552
0.00680874
0.00797902
0.00910912
0.0102506
0.0114472
0.0127382
0.0141609
0.0157541
0.0175588
0.0196202
0.0219879
0.0247153
0.0278582
0.0314685
0.0355825
0.0401954
0.0452146
0.0503851
0.0552202
0.0591045
0.00362328
0.00402408
0.00545861
0.00683102
0.00806915
0.00924078
0.0104144
0.0116441
0.0129751
0.0144494
0.0161104
0.018005
0.0201866
0.0227168
0.0256669
0.0291189
0.0331648
0.0378996
0.0433985
0.049655
0.056429
0.0629384
0.0675929
0.0173252
0.00543453
0.00537395
0.00683496
0.00814482
0.00934617
0.0105383
0.011788
0.0131452
0.014655
0.0163639
0.0183234
0.0205935
0.0232459
0.0263679
0.0300681
0.0344833
0.0397869
0.0461932
0.0539322
0.0630876
0.0728526
0.0781644
0.0839916
0.0137049
0.00548474
0.00682268
0.00819296
0.00940904
0.0106076
0.0118655
0.0132352
0.014763
0.0164967
0.0184904
0.0208077
0.0235261
0.0267431
0.0305845
0.0352203
0.0408912
0.0479642
0.0570527
0.0693065
0.0871615
0.0916292
0.00232666
0.0020283
0.00200364
0.00223638
0.00408673
0.00402082
0.00400204
0.00403121
0.00489154
0.00487177
0.00485295
0.00483851
0.00550859
0.0055015
0.00546719
0.00542816
0.00601324
0.0060324
0.0059871
0.00591682
0.00636676
0.00638632
0.00636488
0.00629774
0.00667204
0.006684
0.00664989
0.00659008
0.00686231
0.00687
0.00685439
0.00682281
0.00707143
0.00707571
0.00706969
0.00705446
0.00730567
0.00731062
0.00730912
0.00730178
0.00755996
0.00756819
0.00757077
0.00756816
0.00783452
0.00784723
0.0078543
0.00785585
0.00812993
0.00814722
0.00815906
0.00816514
0.00844833
0.00847034
0.00848698
0.00849787
0.00879416
0.00882155
0.00884352
0.00885971
0.00917324
0.00920702
0.00923527
0.00925762
0.00959176
0.00963324
0.00966898
0.00969865
0.0100563
0.0101071
0.0101518
0.0101901
0.0105743
0.0106359
0.0106913
0.01074
0.0111537
0.0112283
0.0112963
0.0113572
0.0118041
0.0118938
0.0119764
0.0120516
0.012536
0.0126433
0.012743
0.0128347
0.0133614
0.0134891
0.0136085
0.0137193
0.0142942
0.0144453
0.0145875
0.0147203
0.0153498
0.0155279
0.0156962
0.0158541
0.0165459
0.0167549
0.016953
0.0171397
0.0179025
0.0181469
0.018379
0.0185982
0.0194425
0.0197272
0.019998
0.020254
0.021192
0.0215226
0.0218371
0.0221347
0.0231812
0.0235641
0.023928
0.024272
0.0254457
0.0258877
0.0263071
0.0267028
0.0280273
0.0285361
0.0290174
0.0294703
0.030976
0.0315602
0.0321103
0.0326255
0.034353
0.0350216
0.0356474
0.0362297
0.0382338
0.0389965
0.0397039
0.0403564
0.0427144
0.0435798
0.0443729
0.0450956
0.0479188
0.0488926
0.0497702
0.0505565
0.0540116
0.0550906
0.0560401
0.0568716
0.0612151
0.0623741
0.06336
0.0641965
0.0698293
0.0709925
0.0719349
0.0727004
0.0802321
0.0812187
0.0819629
0.082533
0.0927647
0.0932243
0.0935323
0.0937493
0.00314107
0.00354484
0.00375927
0.00388091
0.00394383
0.00396504
0.00395284
0.00390814
0.00383082
0.00372439
0.00359244
0.00343378
0.00325014
0.00304197
0.00280753
0.00253071
0.00218534
0.00174507
0.000899539
0.00413072
0.00424236
0.00432031
0.00436873
0.00438991
0.00438666
0.00436056
0.00431078
0.00423689
0.00413959
0.00401443
0.00385336
0.00365769
0.00342829
0.00316449
0.00285311
0.00246799
0.00195901
0.000969488
0.00482209
0.00481826
0.00482091
0.00482061
0.00481073
0.00478841
0.00475224
0.00469959
0.00462897
0.00454093
0.00442295
0.00425641
0.00404293
0.00378823
0.00349037
0.00314299
0.00271306
0.00212708
0.000988031
0.00536837
0.00530788
0.00526929
0.00524114
0.00521205
0.00517708
0.00513555
0.00508405
0.0050188
0.00494064
0.00483485
0.00465889
0.00441228
0.00412365
0.0037857
0.00339966
0.00292905
0.0022843
0.00112614
0.00582082
0.00573204
0.00567636
0.00563042
0.00558107
0.00553444
0.0054853
0.00542673
0.00534772
0.00524613
0.00512553
0.00497529
0.00477871
0.00442234
0.00405255
0.00361994
0.00310725
0.00241082
0.00116441
0.00620291
0.00609356
0.00602098
0.00596799
0.00591794
0.00586317
0.00579273
0.00571129
0.00561769
0.00550404
0.00537015
0.0052115
0.00499108
0.00467067
0.00430155
0.00384462
0.00329517
0.00254564
0.00127464
0.00649902
0.00640398
0.00633343
0.00627491
0.00621743
0.00615463
0.00606395
0.00595896
0.00584997
0.00572991
0.00559653
0.00546759
0.00526759
0.00487331
0.00448682
0.00403489
0.00349651
0.00281238
0.0019181
0.00676291
0.00668204
0.0066088
0.00654119
0.00647259
0.0063905
0.00628275
0.00616193
0.00603544
0.00590302
0.0057654
0.00561852
0.00538528
0.0049943
0.00457666
0.00411693
0.00358491
0.00290701
0.00194699
0.00701934
0.00695455
0.0068807
0.00680285
0.0067206
0.00661902
0.00649544
0.00635723
0.0062097
0.00605327
0.00588382
0.00568813
0.00542038
0.00505806
0.00463418
0.00415754
0.0036105
0.00292057
0.0019476
0.00728154
0.00723139
0.00715961
0.00707461
0.00698039
0.00686409
0.0067237
0.00656468
0.00639134
0.00620321
0.00599262
0.00574132
0.00543027
0.00507579
0.00465546
0.00416293
0.00359077
0.00287966
0.00194678
0.00755596
0.00751459
0.00744658
0.00735848
0.007255
0.0071268
0.00697124
0.00679287
0.0065938
0.00637272
0.00612251
0.0058265
0.00547198
0.0050832
0.00464643
0.00413937
0.00354772
0.00282329
0.00194658
0.00784952
0.00781279
0.00774781
0.0076584
0.00754744
0.00741015
0.00724374
0.00704968
0.00682833
0.00657794
0.00629278
0.00596067
0.00556922
0.00513157
0.00465379
0.00411677
0.00350368
0.00277421
0.00194411
0.00816544
0.00813459
0.0080729
0.0079833
0.00786773
0.0077241
0.0075496
0.00734324
0.00710403
0.0068299
0.00651633
0.00615483
0.00573456
0.00525499
0.00472495
0.00414323
0.00350004
0.0027591
0.0019439
0.00850585
0.00848381
0.00842827
0.00834135
0.00822468
0.00807731
0.00789678
0.00768105
0.00742832
0.00713624
0.00680109
0.00641687
0.00597526
0.0054682
0.00489491
0.00426456
0.00358193
0.00280243
0.00194626
0.0088764
0.00886557
0.00881933
0.00873861
0.00862442
0.00847622
0.00829208
0.00806984
0.00780738
0.00750233
0.00715153
0.00675051
0.00629306
0.00577023
0.0051742
0.00450894
0.00378135
0.00292065
0.00192081
0.0092844
0.00928699
0.00925266
0.00918116
0.00907269
0.00892671
0.00874167
0.00851566
0.00824662
0.00793235
0.00757019
0.00715666
0.00668707
0.00615412
0.00554875
0.00486544
0.00409244
0.00313109
0.00190676
0.00973736
0.00975574
0.00973571
0.00967605
0.00957615
0.00943522
0.00925191
0.00902455
0.0087513
0.00843023
0.00805911
0.00763523
0.00715492
0.00661243
0.00599896
0.00530074
0.00448291
0.00342252
0.0019429
0.010243
0.0102799
0.0102767
0.0102313
0.0101426
0.0100092
0.00982991
0.00960312
0.0093272
0.00900042
0.0086209
0.00818638
0.00769374
0.00713791
0.00650971
0.00579005
0.00492961
0.00377693
0.00195494
0.0108097
0.0108683
0.0108846
0.0108562
0.010781
0.0106574
0.010484
0.0102591
0.00998122
0.00964868
0.00925973
0.00881224
0.00830313
0.0077272
0.0070743
0.0063222
0.00541522
0.00418559
0.00197267
0.0114465
0.0115305
0.0115696
0.0115608
0.0115015
0.0113897
0.0112237
0.0110016
0.0107218
0.0103826
0.00998198
0.00951776
0.00898647
0.00838221
0.00769344
0.00689521
0.00592649
0.00460318
0.00215539
0.012164
0.0122775
0.0123429
0.0123566
0.0123157
0.0122177
0.0120603
0.0118415
0.0115593
0.0112117
0.0107965
0.0103109
0.00975091
0.00910951
0.00837353
0.00751529
0.00646821
0.00503039
0.0023468
0.0129739
0.0131215
0.0132171
0.0132566
0.0132366
0.0131542
0.0130066
0.0127913
0.012506
0.012148
0.0117147
0.0112027
0.0106069
0.00991942
0.0091251
0.00819437
0.00705543
0.00548943
0.00255278
0.0138895
0.0140763
0.0142064
0.0142753
0.014279
0.014214
0.0140773
0.0138656
0.013576
0.0132055
0.0127504
0.0122065
0.0115678
0.0108254
0.00996302
0.00894797
0.00770328
0.00599345
0.0027866
0.0149259
0.0151575
0.0153268
0.0154288
0.0154591
0.0154136
0.0152887
0.0150808
0.014786
0.0144005
0.0139198
0.0133387
0.0126504
0.0118445
0.0109031
0.00979108
0.00842586
0.00655348
0.00304863
0.0161004
0.0163828
0.0165962
0.0167353
0.0167951
0.0167713
0.0166595
0.0164554
0.0161544
0.0157518
0.0152421
0.0146188
0.0138738
0.0129951
0.0119632
0.0107401
0.00923724
0.0071793
0.00333504
0.017432
0.0177718
0.0180347
0.018215
0.0183075
0.0183074
0.0182099
0.0180101
0.0177025
0.0172811
0.0167392
0.0160688
0.0152599
0.0142989
0.0131639
0.0118138
0.0101529
0.00788141
0.0036473
0.0189428
0.0193468
0.0196646
0.0198903
0.0200187
0.0200446
0.0199629
0.019768
0.0194537
0.0190124
0.0184358
0.0177137
0.0168341
0.0157809
0.0145293
0.0130343
0.0111915
0.00867227
0.00398339
0.0206573
0.0211327
0.0215109
0.0217862
0.0219534
0.0220076
0.0219435
0.0217548
0.0214341
0.0209725
0.0203594
0.0195823
0.0186259
0.0174709
0.0160888
0.0144293
0.0123775
0.00957143
0.00435383
0.0226036
0.0231577
0.0236017
0.0239303
0.0241392
0.0242239
0.0241791
0.0239981
0.0236725
0.0231913
0.0225416
0.0217074
0.0206696
0.0194042
0.0178778
0.0160331
0.0137433
0.0106086
0.00478765
0.0248138
0.0254538
0.0259684
0.0263536
0.0266064
0.0267234
0.0266998
0.0265286
0.0262003
0.0257019
0.0250172
0.0241262
0.0230046
0.0216224
0.0199389
0.0178884
0.0153294
0.0118204
0.00531379
0.027325
0.0280575
0.0286464
0.0290902
0.0293882
0.0295388
0.0295381
0.0293794
0.0290518
0.0285404
0.0278252
0.0268809
0.0256767
0.0241742
0.0223232
0.0200462
0.0171839
0.0132461
0.00594715
0.0301801
0.0310104
0.0316757
0.0321784
0.0325213
0.0327057
0.0327294
0.0325861
0.0322642
0.0317462
0.0310081
0.0300184
0.0287377
0.0271166
0.0250915
0.0225684
0.0193644
0.01493
0.0066942
0.0334295
0.0343606
0.0351014
0.0356606
0.036046
0.0362629
0.0363118
0.0361872
0.0358771
0.0353617
0.0346124
0.0335905
0.0322461
0.0305156
0.0283166
0.0255315
0.0219442
0.0169306
0.0075768
0.0371325
0.0381634
0.0389748
0.0395841
0.0400067
0.0402528
0.0403264
0.0402239
0.039933
0.0394318
0.0386873
0.037653
0.0362668
0.034447
0.0320858
0.0290314
0.0250194
0.0193289
0.00863124
0.0413593
0.0424826
0.0433534
0.0440017
0.044452
0.0447214
0.0448179
0.0447401
0.0444765
0.0440036
0.0432844
0.0422651
0.0408701
0.0389963
0.0365028
0.0331888
0.0287186
0.0222384
0.00990766
0.0461931
0.0473916
0.0483022
0.0489716
0.0494358
0.0497192
0.0498346
0.0497833
0.0495549
0.0491259
0.0484565
0.0474867
0.0461286
0.044256
0.0416874
0.0381551
0.0332161
0.0258221
0.0114742
0.0517318
0.0529734
0.0538931
0.0545582
0.0550172
0.055302
0.0554298
0.0554049
0.0552189
0.0548491
0.0542558
0.053376
0.0521129
0.0503197
0.0477714
0.0441151
0.0387504
0.0303273
0.0134476
0.0580877
0.0593199
0.0602046
0.0608318
0.0612617
0.061532
0.0616633
0.0616623
0.061523
0.0612258
0.0607337
0.0599859
0.0588844
0.0572709
0.0548847
0.0512805
0.045644
0.0361459
0.0160439
0.0653848
0.0665281
0.0673199
0.067869
0.0682425
0.0684801
0.0686037
0.0686211
0.0685292
0.0683125
0.0679407
0.0673614
0.0664866
0.0651647
0.0631254
0.0598563
0.0543048
0.0439087
0.0196351
0.0737468
0.074694
0.075325
0.0757531
0.0760424
0.076229
0.076332
0.0763595
0.0763102
0.0761741
0.0759301
0.0755407
0.0749397
0.0740076
0.0725117
0.0699573
0.0651532
0.0546277
0.0249332
0.0832748
0.0839036
0.0843073
0.0845764
0.084758
0.084877
0.0849468
0.0849729
0.0849558
0.0848905
0.0847661
0.0845628
0.084245
0.0837458
0.082926
0.0814502
0.078334
0.0697147
0.0334626
0.0940146
0.0942259
0.094358
0.0944455
0.0945048
0.0945446
0.0945694
0.0945812
0.0945805
0.0945664
0.0945364
0.0944864
0.0944089
0.0942912
0.0941066
0.0937818
0.0930115
0.0896801
0.0470126
)
;

boundaryField
{
    leftWall
    {
        type            kqRWallFunction;
        value           nonuniform List<scalar> 
50
(
9.95133e-05
0.000218934
0.000314118
0.000395622
0.000466962
0.000531492
0.000591599
0.000648969
0.000736168
0.000843125
0.00098552
0.00135129
0.00159346
0.00161867
0.00200438
0.00228445
0.00238889
0.00240542
0.00240763
0.00240508
0.0024065
0.00239966
0.00240009
0.00240026
0.0024065
0.00240329
0.00240717
0.00240044
0.00240033
0.00240113
0.00240708
0.00240621
0.00240309
0.00240361
0.00240379
0.00240964
0.00240414
0.00240514
0.00240225
0.00240564
0.00241232
0.00240892
0.00241092
0.00241479
0.00241537
0.00240935
0.00240565
0.00362328
0.0173252
0.0839916
)
;
    }
    rightWall
    {
        type            kqRWallFunction;
        value           nonuniform List<scalar> 
50
(
0.000103565
0.000218637
0.000317684
0.000411285
0.000501892
0.000594144
0.000696004
0.000793576
0.000899539
0.000969488
0.000988031
0.00112614
0.00116441
0.00127464
0.0019181
0.00194699
0.0019476
0.00194678
0.00194658
0.00194411
0.0019439
0.00194626
0.00192081
0.00190676
0.0019429
0.00195494
0.00197267
0.00215539
0.0023468
0.00255278
0.0027866
0.00304863
0.00333504
0.0036473
0.00398339
0.00435383
0.00478765
0.00531379
0.00594715
0.0066942
0.0075768
0.00863124
0.00990766
0.0114742
0.0134476
0.0160439
0.0196351
0.0249332
0.0334626
0.0470126
)
;
    }
    lowerWall
    {
        type            kqRWallFunction;
        value           nonuniform List<scalar> 
62
(
9.95133e-05
0.000254983
0.00037557
0.000470056
0.000547681
0.000612787
0.000667848
0.000714487
0.000753887
0.000787468
0.000816995
0.000843576
0.000867141
0.000884826
0.000889798
0.000870647
0.00081797
0.000749193
0.000662535
0.000577028
0.000490822
0.000359716
0.000173476
0.000173476
0.000386375
0.000545621
0.000707872
0.000891316
0.00112843
0.00148667
0.0021116
0.00232666
0.0020283
0.00200364
0.00223638
0.000240924
0.000445551
0.00053295
0.000611799
0.000732656
0.000923141
0.00126548
0.00191555
0.000240924
0.000534836
0.0007342
0.000817375
0.000857007
0.000875702
0.000873589
0.000863603
0.000831087
0.000778603
0.00070768
0.000615495
0.000542206
0.000528539
0.000499789
0.000439367
0.000333969
0.00022473
0.000103565
)
;
    }
    atmosphere
    {
        type            inletOutlet;
        inletValue      uniform 0.1;
        value           nonuniform List<scalar> 
46
(
0.1
0.0137049
0.00548474
0.00682268
0.00819296
0.00940904
0.0106076
0.0118655
0.0132352
0.014763
0.0164967
0.0184904
0.0208077
0.0235261
0.0267431
0.0305845
0.0352203
0.0408912
0.0479642
0.0570527
0.0693065
0.1
0.1
0.1
0.1
0.1
0.1
0.1
0.1
0.1
0.1
0.1
0.1
0.1
0.1
0.1
0.1
0.1
0.1
0.1
0.1
0.1
0.1
0.1
0.1
0.0470126
)
;
    }
    defaultFaces
    {
        type            empty;
    }
}


// ************************************************************************* //
