/*--------------------------------*- C++ -*----------------------------------*\
  =========                 |
  \\      /  F ield         | OpenFOAM: The Open Source CFD Toolbox
   \\    /   O peration     | Website:  https://openfoam.org
    \\  /    A nd           | Version:  9
     \\/     M anipulation  |
\*---------------------------------------------------------------------------*/
FoamFile
{
    format      ascii;
    class       surfaceScalarField;
    location    "8.63";
    object      phi;
}
// * * * * * * * * * * * * * * * * * * * * * * * * * * * * * * * * * * * * * //

dimensions      [0 3 -1 0 0 0 0];

internalField   nonuniform List<scalar> 
4432
(
2.08241e-08
-2.08241e-08
2.15195e-08
-6.98683e-10
1.43596e-08
7.16155e-09
9.94853e-09
4.40919e-09
1.02546e-08
-3.0471e-10
1.8008e-08
-7.75379e-09
3.38304e-08
-1.58213e-08
5.73459e-08
-2.35152e-08
8.75777e-08
-3.02299e-08
1.22926e-07
-3.53466e-08
1.67866e-07
-4.4937e-08
2.332e-07
-6.53313e-08
3.32124e-07
-9.89196e-08
4.70228e-07
-1.38101e-07
6.26812e-07
-1.56581e-07
7.34411e-07
-1.07595e-07
6.82739e-07
5.16748e-08
4.45013e-07
2.37727e-07
-3.84561e-08
4.83469e-07
-6.08511e-07
5.70054e-07
-8.08677e-07
2.00166e-07
-5.87489e-07
-2.21189e-07
-5.8749e-07
6.3597e-09
-2.71823e-08
7.71757e-09
-2.0612e-09
4.01751e-09
1.08646e-08
2.61948e-10
8.16303e-09
-8.20563e-10
7.80068e-10
2.33143e-09
-1.09049e-08
1.12988e-08
-2.47855e-08
2.69301e-08
-3.91444e-08
4.71078e-08
-5.04027e-08
7.30089e-08
-6.12433e-08
1.06187e-07
-7.81093e-08
1.53511e-07
-1.1265e-07
2.23647e-07
-1.69048e-07
3.17793e-07
-2.32241e-07
4.19241e-07
-2.58023e-07
4.78974e-07
-1.67324e-07
4.24497e-07
1.06153e-07
2.35812e-07
4.26413e-07
-3.25166e-08
7.51797e-07
-3.06542e-07
8.44078e-07
-4.75189e-07
3.68811e-07
-4.71076e-07
-2.25303e-07
-1.05857e-06
-8.16521e-10
-2.63643e-08
8.21807e-11
-2.96407e-09
-8.51381e-10
1.18014e-08
-3.81225e-09
1.11236e-08
-6.14084e-09
3.1114e-09
-5.94411e-09
-1.11001e-08
-1.30623e-09
-2.94199e-08
7.7403e-09
-4.81886e-08
2.08195e-08
-6.34775e-08
3.73105e-08
-7.77302e-08
5.93018e-08
-1.00095e-07
9.07033e-08
-1.44046e-07
1.37445e-07
-2.15784e-07
2.01104e-07
-2.95895e-07
2.70957e-07
-3.27871e-07
3.11875e-07
-2.08239e-07
2.63718e-07
1.54312e-07
1.20958e-07
5.69174e-07
-2.38145e-08
8.96569e-07
-1.39886e-07
9.60149e-07
-2.74738e-07
5.03661e-07
-3.37661e-07
-1.62381e-07
-1.39623e-06
-4.72195e-09
-2.16404e-08
-5.12781e-09
-2.561e-09
-5.32377e-09
1.20012e-08
-7.96135e-09
1.37624e-08
-1.14998e-08
6.6537e-09
-1.39461e-08
-8.65055e-09
-1.34713e-08
-2.98898e-08
-9.6506e-09
-5.20051e-08
-3.01397e-09
-7.01085e-08
5.41767e-09
-8.61566e-08
1.60852e-08
-1.10756e-07
3.24679e-08
-1.60423e-07
5.85316e-08
-2.41842e-07
9.6441e-08
-3.338e-07
1.44305e-07
-3.75732e-07
1.79546e-07
-2.43477e-07
1.47946e-07
1.85911e-07
4.73473e-08
6.69771e-07
-3.01064e-08
9.7402e-07
-5.85988e-08
9.88638e-07
-1.48211e-07
5.93271e-07
-2.16796e-07
-9.37981e-08
-1.61303e-06
-6.94208e-09
-1.4696e-08
-8.70682e-09
-7.97437e-10
-9.17984e-09
1.24793e-08
-1.20447e-08
1.66308e-08
-1.6841e-08
1.14562e-08
-2.17522e-08
-3.73294e-09
-2.49192e-08
-2.67149e-08
-2.57277e-08
-5.11891e-08
-2.4877e-08
-7.09505e-08
-2.38226e-08
-8.72031e-08
-2.30574e-08
-1.11513e-07
-2.14832e-08
-1.6199e-07
-1.50917e-08
-2.48227e-07
-8.43218e-12
-3.48879e-07
2.71884e-08
-4.02926e-07
6.26961e-08
-2.78985e-07
5.59719e-08
1.92633e-07
-7.71127e-09
7.3345e-07
-4.25452e-08
1.00885e-06
-2.74413e-08
9.73528e-07
-7.40788e-08
6.39903e-07
-9.72234e-08
-7.06587e-08
-1.71025e-06
-7.96954e-09
-6.72347e-09
-1.10039e-08
2.23751e-09
-1.2012e-08
1.34941e-08
-1.52773e-08
1.99029e-08
-2.12275e-08
1.74164e-08
-2.83088e-08
3.3592e-09
-3.46039e-08
-2.04071e-08
-3.94214e-08
-4.63591e-08
-4.36403e-08
-6.67186e-08
-4.92509e-08
-8.1581e-08
-5.79751e-08
-1.02778e-07
-6.98736e-08
-1.50084e-07
-8.16684e-08
-2.36426e-07
-8.91294e-08
-3.41415e-07
-8.45666e-08
-4.0749e-07
-5.27966e-08
-3.10759e-07
-2.41682e-08
1.63997e-07
-5.1758e-08
7.6103e-07
-5.42448e-08
1.01133e-06
-2.06676e-08
9.39939e-07
-2.7762e-08
6.46988e-07
4.04565e-08
-1.38885e-07
-1.6698e-06
-8.1179e-09
1.39812e-09
-1.20249e-08
6.14643e-09
-1.3386e-08
1.48617e-08
-1.68359e-08
2.33598e-08
-2.35851e-08
2.41752e-08
-3.24201e-08
1.22048e-08
-4.13069e-08
-1.15079e-08
-4.95271e-08
-3.81263e-08
-5.81143e-08
-5.81185e-08
-6.9444e-08
-7.02396e-08
-8.62433e-08
-8.59683e-08
-1.09806e-07
-1.26513e-07
-1.37788e-07
-2.08438e-07
-1.66776e-07
-3.12424e-07
-1.87781e-07
-3.86485e-07
-1.75477e-07
-3.23066e-07
-1.16057e-07
1.0457e-07
-7.97023e-08
7.24667e-07
-5.36402e-08
9.85255e-07
-2.34848e-08
9.09773e-07
3.15136e-08
5.91981e-07
1.7467e-07
-2.82048e-07
-1.49513e-06
-9.93922e-09
1.13418e-08
-1.19331e-08
8.14335e-09
-1.28989e-08
1.58316e-08
-1.60371e-08
2.65022e-08
-2.2999e-08
3.11424e-08
-3.3098e-08
2.23092e-08
-4.40786e-08
-5.2104e-10
-5.52201e-08
-2.69782e-08
-6.76651e-08
-4.56663e-08
-8.36306e-08
-5.42672e-08
-1.06549e-07
-6.3043e-08
-1.3901e-07
-9.40461e-08
-1.79904e-07
-1.6754e-07
-2.27292e-07
-2.65033e-07
-2.72595e-07
-3.41181e-07
-2.94481e-07
-3.01179e-07
-2.36664e-07
4.67512e-08
-1.17959e-07
6.05959e-07
-4.68307e-08
9.14124e-07
-3.5919e-09
8.66533e-07
1.24903e-07
4.63485e-07
2.20222e-07
-3.77367e-07
-1.27491e-06
-1.27583e-06
1.27583e-06
-9.73051e-07
-3.02781e-07
-2.70165e-07
-7.02896e-07
2.62006e-07
-5.3217e-07
6.3257e-07
-3.70569e-07
9.05307e-07
-2.72735e-07
1.04382e-06
-1.38505e-07
1.16614e-06
-1.22325e-07
1.23075e-06
-6.46056e-08
1.18007e-06
5.069e-08
9.10644e-07
2.69428e-07
1.90012e-07
7.20637e-07
-5.89886e-07
7.79899e-07
-8.29503e-07
2.39618e-07
-8.26411e-07
-3.09304e-09
-7.30298e-07
-9.61131e-08
-6.66263e-07
-6.40364e-08
-3.64695e-07
-3.01568e-07
-3.64696e-07
-8.96952e-07
2.17278e-06
-5.45099e-07
-6.54631e-07
-1.10802e-07
-1.13721e-06
2.28231e-07
-8.71199e-07
4.59747e-07
-6.02087e-07
6.07843e-07
-4.20828e-07
7.41497e-07
-2.72155e-07
8.30591e-07
-2.1141e-07
8.20091e-07
-5.40989e-08
6.76918e-07
1.93874e-07
4.85925e-07
4.60426e-07
1.72192e-07
1.03438e-06
-1.99205e-07
1.1513e-06
-4.55401e-07
4.95816e-07
-5.75291e-07
1.16795e-07
-6.44098e-07
-2.73049e-08
-7.61065e-07
5.29284e-08
-6.57445e-07
-4.05183e-07
-1.02214e-06
-4.09283e-07
2.58205e-06
-1.82341e-07
-8.8157e-07
3.39609e-08
-1.35352e-06
2.12666e-07
-1.0499e-06
3.46012e-07
-7.35437e-07
4.37545e-07
-5.1236e-07
5.24625e-07
-3.5923e-07
5.81274e-07
-2.6805e-07
5.41594e-07
-1.44132e-08
3.68645e-07
3.66833e-07
1.81076e-07
6.48001e-07
7.25262e-08
1.14293e-06
-4.03622e-08
1.26419e-06
-2.32035e-07
6.87491e-07
-3.98667e-07
2.83426e-07
-5.43549e-07
1.17578e-07
-7.54218e-07
2.63595e-07
-7.52657e-07
-4.06741e-07
-1.7748e-06
6.43524e-08
2.51769e-06
1.20467e-07
-9.37681e-07
1.46047e-07
-1.37912e-06
1.94625e-07
-1.09849e-06
2.48736e-07
-7.89553e-07
2.91094e-07
-5.54718e-07
3.39399e-07
-4.07531e-07
3.73349e-07
-3.01993e-07
3.28059e-07
3.08823e-08
1.68257e-07
5.26644e-07
1.204e-08
8.04224e-07
-5.54811e-09
1.16053e-06
7.82056e-09
1.25082e-06
-1.1451e-07
8.09825e-07
-2.5922e-07
4.28137e-07
-4.10329e-07
2.68689e-07
-6.4446e-07
4.97725e-07
-6.21158e-07
-4.3004e-07
-2.39596e-06
4.57367e-07
2.06031e-06
3.39356e-07
-8.19669e-07
2.09322e-07
-1.2491e-06
1.5958e-07
-1.04875e-06
1.50752e-07
-7.80734e-07
1.50723e-07
-5.54692e-07
1.65836e-07
-4.22642e-07
1.84211e-07
-3.20362e-07
1.49544e-07
6.55539e-08
1.81392e-08
6.58058e-07
-9.03155e-08
9.12685e-07
-6.71946e-08
1.13741e-06
-1.05092e-08
1.19414e-06
-7.70435e-08
8.76366e-07
-1.49267e-07
5.00364e-07
-2.38331e-07
3.57757e-07
-4.22737e-07
6.82133e-07
-3.96153e-07
-4.5662e-07
-2.79211e-06
6.26445e-07
1.43385e-06
4.23849e-07
-6.17072e-07
2.10969e-07
-1.03623e-06
9.9304e-08
-9.37098e-07
4.53679e-08
-7.26808e-07
1.03857e-08
-5.19717e-07
-4.24376e-09
-4.08015e-07
3.73086e-09
-3.28334e-07
-1.11985e-08
8.04862e-08
-1.01888e-07
7.48755e-07
-1.62356e-07
9.73159e-07
-1.10146e-07
1.08521e-06
-3.77564e-08
1.12176e-06
-7.85641e-08
9.17182e-07
-8.50595e-08
5.06867e-07
-4.91907e-08
3.21896e-07
-1.17143e-07
7.5009e-07
-1.38598e-07
-4.35159e-07
-2.93071e-06
5.7097e-07
8.62869e-07
3.80476e-07
-4.26578e-07
1.52772e-07
-8.08536e-07
1.25693e-08
-7.96903e-07
-7.00485e-08
-6.44199e-07
-1.3213e-07
-4.57641e-07
-1.74175e-07
-3.65973e-07
-1.78569e-07
-3.23938e-07
-1.63293e-07
6.52141e-08
-2.06595e-07
7.92063e-07
-2.17656e-07
9.84228e-07
-1.40761e-07
1.00833e-06
-6.13231e-08
1.04233e-06
-8.02199e-08
9.36086e-07
-2.3145e-08
4.49799e-07
1.1291e-07
1.85848e-07
1.67408e-07
6.95597e-07
1.38313e-07
-4.06058e-07
-2.79239e-06
4.19516e-07
4.43344e-07
2.55916e-07
-2.62973e-07
4.98671e-08
-6.02487e-07
-9.73181e-08
-6.49718e-07
-1.95252e-07
-5.46263e-07
-2.75777e-07
-3.77114e-07
-3.40263e-07
-3.01483e-07
-3.72518e-07
-2.91678e-07
-3.22341e-07
1.50428e-08
-3.01726e-07
7.71453e-07
-2.55491e-07
9.37998e-07
-1.60012e-07
9.12851e-07
-7.08647e-08
9.53182e-07
-4.52438e-08
9.10468e-07
7.19812e-08
3.32576e-07
2.1602e-07
4.18114e-08
3.97937e-07
5.1368e-07
3.73045e-07
-3.81164e-07
-2.41935e-06
-7.67365e-09
1.90189e-08
-1.5586e-08
1.60587e-08
-2.01384e-08
2.03853e-08
-2.34549e-08
2.9818e-08
-3.59822e-08
4.36682e-08
-5.96137e-08
4.59383e-08
-8.91666e-08
2.90297e-08
-1.23509e-07
7.36236e-09
-1.61673e-07
-7.50324e-09
-2.06429e-07
-9.512e-09
-2.66929e-07
-2.54304e-09
-3.53506e-07
-7.46724e-09
-4.66856e-07
-5.4187e-08
-6.08627e-07
-1.23258e-07
-7.66295e-07
-1.83508e-07
-8.82029e-07
-1.8544e-07
-8.02054e-07
-3.32178e-08
-4.87717e-07
2.91627e-07
-1.41365e-07
5.67779e-07
1.50847e-07
5.74329e-07
3.86756e-07
2.27584e-07
1.94898e-07
-1.85501e-07
-4.19187e-07
-6.6082e-07
2.3468e-08
-4.44398e-09
1.58173e-08
2.37166e-08
1.72144e-08
1.90011e-08
2.34983e-08
2.35501e-08
1.56914e-08
5.14929e-08
-1.70409e-08
7.86887e-08
-6.65749e-08
7.85809e-08
-1.17411e-07
5.82141e-08
-1.69184e-07
4.4283e-08
-2.20409e-07
4.17225e-08
-2.72089e-07
4.91418e-08
-3.3585e-07
5.62949e-08
-4.20576e-07
3.05347e-08
-5.40214e-07
-3.63096e-09
-6.96404e-07
-2.73326e-08
-8.33621e-07
-4.8241e-08
-8.36363e-07
-3.04958e-08
-5.95993e-07
5.12376e-08
-1.64715e-07
1.3648e-07
2.67233e-07
1.42362e-07
4.52359e-07
4.24423e-08
3.00774e-07
-3.39263e-08
-4.3556e-08
-7.48569e-08
5.17741e-08
-5.62085e-08
1.49169e-07
-7.36337e-08
1.77798e-07
-9.53693e-09
1.46071e-07
5.53924e-08
1.34927e-07
6.27645e-08
1.66661e-07
4.70747e-08
1.6517e-07
8.01893e-08
1.25627e-07
9.78592e-08
6.07917e-08
1.09203e-07
1.62498e-09
1.00948e-07
-2.04953e-08
7.12931e-08
-1.01605e-08
4.59573e-08
-4.52379e-08
6.55736e-08
-1.34419e-07
8.54821e-08
-2.80299e-07
1.18448e-07
-4.6373e-07
1.35064e-07
-5.48288e-07
5.39211e-08
-3.71375e-07
-1.25836e-07
3.02226e-08
-2.65281e-07
4.4484e-07
-2.72425e-07
5.66303e-07
-7.91791e-08
3.67968e-07
1.6428e-07
3.6039e-07
-3.60526e-08
-1.37245e-06
1.31625e-06
-7.5817e-08
-1.37046e-06
1.05525e-07
-1.90829e-07
-5.12574e-07
6.7347e-07
-7.36646e-07
2.86816e-07
-1.63938e-07
-5.25648e-07
1.36582e-07
-2.20364e-07
1.39549e-07
9.48563e-08
7.92084e-08
1.69515e-07
3.85473e-09
1.76284e-07
-1.18875e-08
8.70334e-08
1.06356e-07
-7.22727e-08
1.85579e-08
1.53389e-07
-8.89533e-08
1.93022e-07
-1.18071e-07
1.47606e-07
-1.13267e-07
1.30308e-07
-8.01388e-08
2.08567e-08
2.55068e-08
-2.31414e-07
5.6475e-08
-2.96186e-07
2.34936e-07
-4.50841e-07
3.86871e-07
-2.31095e-07
4.10086e-07
1.41083e-07
6.01349e-07
1.69296e-07
-5.13127e-06
6.44778e-06
-4.39151e-06
-2.1104e-06
-4.2009e-06
-3.81513e-07
-6.14452e-06
2.61703e-06
-6.32361e-06
4.65822e-07
-5.34048e-06
-1.50883e-06
-4.23514e-06
-1.32576e-06
-3.47009e-06
-6.70231e-07
-2.77862e-06
-5.21975e-07
-2.22845e-06
-3.73892e-07
-1.62429e-06
-5.17097e-07
-7.68403e-07
-9.28097e-07
-2.28028e-07
-3.86884e-07
3.83639e-07
-4.18517e-07
1.2468e-06
-7.15414e-07
1.85793e-06
-4.8069e-07
1.79032e-06
8.85879e-08
1.31039e-06
2.48641e-07
2.32852e-07
7.81518e-07
-7.37658e-07
5.19879e-07
-9.34584e-07
-3.39704e-08
-5.20781e-07
-2.72545e-07
4.93076e-07
-4.12145e-07
1.08837e-06
5.35959e-06
-9.88935e-07
-3.29072e-08
-1.9951e-06
6.24795e-07
-1.63088e-06
2.25299e-06
-1.43503e-06
2.7011e-07
-2.66278e-06
-2.80932e-07
-3.52705e-06
-4.61369e-07
-3.56417e-06
-6.33e-07
-3.34426e-06
-7.41805e-07
-3.11418e-06
-6.03927e-07
-3.03768e-06
-5.93594e-07
-3.05831e-06
-9.07495e-07
-2.1836e-06
-1.26165e-06
-1.18591e-06
-1.4163e-06
-6.42402e-07
-1.25904e-06
-6.23572e-07
-4.99652e-07
-1.21955e-06
6.84396e-07
-1.78906e-06
8.17927e-07
-1.86094e-06
8.53165e-07
-2.34982e-06
1.00856e-06
-2.87344e-06
4.89521e-07
-2.94328e-06
-2.02734e-07
-2.43035e-08
-2.42558e-06
2.29204e-06
3.06745e-06
5.9041e-07
1.66873e-06
-6.43891e-07
1.85912e-06
-6.59352e-07
2.26853e-06
-1.37812e-06
9.88965e-07
-2.14679e-06
4.87824e-07
-2.75285e-06
1.44743e-07
-3.12551e-06
-2.60291e-07
-3.38158e-06
-4.85715e-07
-3.49844e-06
-4.87051e-07
-3.58511e-06
-5.06895e-07
-3.64011e-06
-8.52466e-07
-3.07761e-06
-1.82414e-06
-2.4132e-06
-2.08073e-06
-2.08059e-06
-1.59169e-06
-1.98812e-06
-5.92166e-07
-1.89706e-06
5.93318e-07
-2.14092e-06
1.06181e-06
-2.44728e-06
1.15953e-06
-2.65024e-06
1.21151e-06
-2.91425e-06
7.53455e-07
-3.21422e-06
9.70539e-08
-9.30368e-08
-3.14565e-06
8.09343e-07
2.25818e-06
1.5099e-07
2.32708e-06
-4.45486e-07
2.45562e-06
-5.61978e-07
2.38505e-06
-1.08903e-06
1.51606e-06
-1.566e-06
9.64824e-07
-1.95137e-06
5.30126e-07
-2.34164e-06
1.29978e-07
-2.63421e-06
-1.9316e-07
-2.77147e-06
-3.49833e-07
-2.7956e-06
-4.82831e-07
-2.74813e-06
-9.00026e-07
-2.81123e-06
-1.76113e-06
-2.90264e-06
-1.98943e-06
-3.02705e-06
-1.46738e-06
-2.97096e-06
-6.48383e-07
-2.6904e-06
3.12631e-07
-2.6058e-06
9.77106e-07
-2.67741e-06
1.23109e-06
-2.7112e-06
1.2453e-06
-2.86156e-06
9.03911e-07
-3.13297e-06
3.68624e-07
-5.42399e-08
-3.17155e-06
-7.00926e-08
2.3283e-06
-2.96433e-07
2.55342e-06
-4.76106e-07
2.63531e-06
-5.2448e-07
2.43344e-06
-8.18791e-07
1.81038e-06
-1.11503e-06
1.26106e-06
-1.39652e-06
8.11596e-07
-1.69025e-06
4.23685e-07
-1.91122e-06
2.77925e-08
-2.02877e-06
-2.32304e-07
-2.06522e-06
-4.46415e-07
-2.14968e-06
-8.15628e-07
-2.54875e-06
-1.36212e-06
-3.00142e-06
-1.53682e-06
-3.25748e-06
-1.2114e-06
-3.2835e-06
-6.22426e-07
-3.10008e-06
1.29138e-07
-2.92829e-06
8.0522e-07
-2.84613e-06
1.14885e-06
-2.81236e-06
1.21141e-06
-2.89428e-06
9.85685e-07
-3.08599e-06
5.60187e-07
4.50425e-08
-3.18546e-06
-2.68979e-07
2.59725e-06
-4.13475e-07
2.69789e-06
-4.56419e-07
2.67825e-06
-4.64975e-07
2.442e-06
-6.19252e-07
1.96466e-06
-8.17257e-07
1.45907e-06
-1.03164e-06
1.02598e-06
-1.24408e-06
6.36108e-07
-1.42346e-06
2.07165e-07
-1.56892e-06
-8.68656e-08
-1.71585e-06
-2.99517e-07
-1.94787e-06
-5.83655e-07
-2.37125e-06
-9.38792e-07
-2.82734e-06
-1.08078e-06
-3.10963e-06
-9.29152e-07
-3.21148e-06
-5.20598e-07
-3.14841e-06
6.60445e-08
-2.99618e-06
6.52963e-07
-2.86899e-06
1.02165e-06
-2.79159e-06
1.134e-06
-2.80322e-06
9.97287e-07
-2.89905e-06
6.55971e-07
1.21189e-07
-2.9753e-06
-2.37659e-07
2.83489e-06
-3.55815e-07
2.81604e-06
-3.81782e-07
2.70422e-06
-3.92505e-07
2.45273e-06
-4.82588e-07
2.05474e-06
-6.33031e-07
1.60952e-06
-7.9976e-07
1.19271e-06
-9.59151e-07
7.95491e-07
-1.13548e-06
3.83472e-07
-1.32495e-06
1.02579e-07
-1.5486e-06
-7.59168e-08
-1.82979e-06
-3.02522e-07
-2.22516e-06
-5.43501e-07
-2.63533e-06
-6.70678e-07
-2.90541e-06
-6.59144e-07
-3.0123e-06
-4.13762e-07
-2.98442e-06
3.81082e-08
-2.87869e-06
5.47196e-07
-2.75193e-06
8.94851e-07
-2.64027e-06
1.02231e-06
-2.57184e-06
9.28817e-07
-2.55033e-06
6.34434e-07
1.20571e-07
-2.54979e-06
-1.6341e-07
2.9983e-06
-2.59178e-07
2.91181e-06
-2.94897e-07
2.73994e-06
-3.23282e-07
2.48112e-06
-3.9602e-07
2.12748e-06
-5.15038e-07
1.72854e-06
-6.46328e-07
1.324e-06
-7.78944e-07
9.28098e-07
-9.62502e-07
5.67012e-07
-1.19136e-06
3.31406e-07
-1.4334e-06
1.66081e-07
-1.71415e-06
-2.18351e-08
-2.05527e-06
-2.02458e-07
-2.40321e-06
-3.22816e-07
-2.65888e-06
-4.03557e-07
-2.78818e-06
-2.84543e-07
-2.78295e-06
3.28085e-08
-2.68868e-06
4.52848e-07
-2.56959e-06
7.75691e-07
-2.43182e-06
8.84479e-07
-2.30028e-06
7.97223e-07
-2.18961e-06
5.23714e-07
5.5052e-08
-2.12417e-06
-9.86575e-08
3.09696e-06
-1.71732e-07
2.9849e-06
-2.14525e-07
2.78275e-06
-2.56239e-07
2.52284e-06
-3.26433e-07
2.19768e-06
-4.27521e-07
1.82963e-06
-5.37839e-07
1.43432e-06
-6.67468e-07
1.05772e-06
-8.59328e-07
7.5886e-07
-1.09272e-06
5.64772e-07
-1.32356e-06
3.96886e-07
-1.57532e-06
2.2988e-07
-1.85285e-06
7.50127e-08
-2.12861e-06
-4.71204e-08
-2.38608e-06
-1.4616e-07
-2.54373e-06
-1.26964e-07
-2.57688e-06
6.58847e-08
-2.5029e-06
3.78803e-07
-2.38556e-06
6.58276e-07
-2.23454e-06
7.33397e-07
-2.07722e-06
6.39838e-07
-1.93914e-06
3.85578e-07
-2.25324e-08
-1.86163e-06
-4.89234e-08
3.1459e-06
-9.97517e-08
3.03575e-06
-1.41587e-07
2.8246e-06
-1.87854e-07
2.56912e-06
-2.55331e-07
2.26517e-06
-3.48645e-07
1.92295e-06
-4.52984e-07
1.53866e-06
-5.96877e-07
1.20161e-06
-7.90891e-07
9.52866e-07
-1.00132e-06
7.75185e-07
-1.2107e-06
6.06237e-07
-1.4263e-06
4.45441e-07
-1.64965e-06
2.98318e-07
-1.87048e-06
1.73652e-07
-2.09545e-06
7.87515e-08
-2.2698e-06
4.73208e-08
-2.34895e-06
1.44966e-07
-2.32232e-06
3.52109e-07
-2.20855e-06
5.44436e-07
-2.06164e-06
5.86425e-07
-1.91105e-06
4.89176e-07
-1.7878e-06
2.62256e-07
-7.80784e-08
-1.73234e-06
-9.51749e-09
3.15542e-06
-4.04685e-08
3.06671e-06
-7.63767e-08
2.86052e-06
-1.20865e-07
2.61362e-06
-1.84201e-07
2.32852e-06
-2.7195e-07
2.01071e-06
-3.90541e-07
1.65725e-06
-5.4399e-07
1.35506e-06
-7.30018e-07
1.13889e-06
-9.14036e-07
9.59191e-07
-1.09738e-06
7.8956e-07
-1.28162e-06
6.29647e-07
-1.46702e-06
4.83678e-07
-1.65101e-06
3.57597e-07
-1.83074e-06
2.58415e-07
-1.99528e-06
2.11795e-07
-2.09903e-06
2.48649e-07
-2.10374e-06
3.56749e-07
-2.01588e-06
4.56492e-07
-1.89279e-06
4.63259e-07
-1.76794e-06
3.64237e-07
-1.67246e-06
1.6669e-07
-1.10986e-07
-1.63966e-06
1.63545e-08
3.13907e-06
4.79478e-09
3.07828e-06
-2.28331e-08
2.88816e-06
-6.40048e-08
2.6548e-06
-1.24042e-07
2.38856e-06
-2.09066e-07
2.09573e-06
-3.37495e-07
1.78568e-06
-4.95427e-07
1.51299e-06
-6.61671e-07
1.30513e-06
-8.23431e-07
1.12094e-06
-9.83445e-07
9.49559e-07
-1.14281e-06
7.88988e-07
-1.30138e-06
6.4221e-07
-1.45774e-06
5.13914e-07
-1.61048e-06
4.11097e-07
-1.74732e-06
3.48564e-07
-1.83942e-06
3.40677e-07
-1.85769e-06
3.74942e-07
-1.80464e-06
4.0336e-07
-1.71603e-06
3.74557e-07
-1.62422e-06
2.72335e-07
-1.55722e-06
9.95972e-08
-1.27966e-07
-1.54037e-06
3.26072e-08
3.10647e-06
3.60414e-08
3.07486e-06
1.44623e-08
2.90975e-06
-2.48471e-08
2.69412e-06
-8.39161e-08
2.44763e-06
-1.68796e-07
2.18061e-06
-2.91039e-07
1.90792e-06
-4.38114e-07
1.66006e-06
-5.83929e-07
1.45094e-06
-7.27209e-07
1.26421e-06
-8.68024e-07
1.09036e-06
-1.00725e-06
9.28193e-07
-1.14459e-06
7.79528e-07
-1.27868e-06
6.4797e-07
-1.40652e-06
5.3889e-07
-1.5182e-06
4.60183e-07
-1.5945e-06
4.16917e-07
-1.61811e-06
3.98488e-07
-1.59061e-06
3.75782e-07
-1.53389e-06
3.17758e-07
-1.47272e-06
2.11072e-07
-1.4297e-06
5.64883e-08
-1.34399e-07
-1.42338e-06
4.38778e-08
3.0626e-06
5.41139e-08
3.06464e-06
3.45297e-08
2.92934e-06
-3.28497e-09
2.73193e-06
-6.05189e-08
2.50486e-06
-1.41604e-07
2.26169e-06
-2.49621e-07
2.01593e-06
-3.75067e-07
1.7855e-06
-5.03162e-07
1.57903e-06
-6.29182e-07
1.39023e-06
-7.53022e-07
1.21419e-06
-8.74712e-07
1.04987e-06
-9.93636e-07
8.98436e-07
-1.10812e-06
7.62429e-07
-1.2146e-06
6.4534e-07
-1.30543e-06
5.5098e-07
-1.36858e-06
4.80019e-07
-1.39427e-06
4.24131e-07
-1.38398e-06
3.65441e-07
-1.35148e-06
2.85204e-07
-1.31431e-06
1.73834e-07
-1.28932e-06
3.1432e-08
-1.34135e-07
-1.28966e-06
4.54857e-08
3.01713e-06
5.46126e-08
3.05551e-06
3.87334e-08
2.94522e-06
5.14309e-09
2.76552e-06
-4.66891e-08
2.55669e-06
-1.18589e-07
2.33358e-06
-2.10349e-07
2.10768e-06
-3.15412e-07
1.89056e-06
-4.24654e-07
1.68826e-06
-5.33758e-07
1.49933e-06
-6.41386e-07
1.32182e-06
-7.46814e-07
1.15529e-06
-8.48996e-07
1.00061e-06
-9.46032e-07
8.59455e-07
-1.03456e-06
7.33849e-07
-1.10891e-06
6.25319e-07
-1.16173e-06
5.32815e-07
-1.18774e-06
4.5012e-07
-1.18845e-06
3.66118e-07
-1.1727e-06
2.69421e-07
-1.15255e-06
1.53655e-07
-1.13983e-06
1.8679e-08
-1.30058e-07
-1.14395e-06
3.9051e-08
2.97808e-06
4.29059e-08
3.05166e-06
3.29332e-08
2.95519e-06
6.03023e-09
2.79242e-06
-3.75174e-08
2.60023e-06
-9.77628e-08
2.39382e-06
-1.73338e-07
2.18325e-06
-2.5966e-07
1.97687e-06
-3.50886e-07
1.77948e-06
-4.43411e-07
1.59184e-06
-5.35345e-07
1.41375e-06
-6.25407e-07
1.24535e-06
-7.12204e-07
1.08741e-06
-7.93774e-07
9.41022e-07
-8.67212e-07
8.07284e-07
-9.28466e-07
6.8657e-07
-9.73041e-07
5.77387e-07
-9.98195e-07
4.75269e-07
-1.00532e-06
3.73236e-07
-1.00024e-06
2.64339e-07
-9.91115e-07
1.44518e-07
-9.86125e-07
1.36807e-08
-1.24519e-07
-9.91683e-07
2.65706e-08
2.95151e-06
3.1147e-08
3.04707e-06
2.51978e-08
2.96113e-06
4.88404e-09
2.81272e-06
-2.96295e-08
2.63473e-06
-7.78462e-08
2.44202e-06
-1.38277e-07
2.24366e-06
-2.0773e-07
2.04631e-06
-2.8233e-07
1.85407e-06
-3.59143e-07
1.66865e-06
-4.3617e-07
1.49077e-06
-5.11845e-07
1.32102e-06
-5.84594e-07
1.16015e-06
-6.52514e-07
1.00894e-06
-7.13197e-07
8.6797e-07
-7.63761e-07
7.37138e-07
-8.01435e-07
6.15066e-07
-8.24815e-07
4.98656e-07
-8.35092e-07
3.8352e-07
-8.36163e-07
2.65417e-07
-8.33485e-07
1.41846e-07
-8.32604e-07
1.28069e-08
-1.19264e-07
-8.37859e-07
1.23789e-08
2.93913e-06
2.23736e-08
3.03706e-06
1.90729e-08
2.96441e-06
4.5415e-09
2.82723e-06
-2.12499e-08
2.6605e-06
-5.80234e-08
2.47878e-06
-1.04708e-07
2.29033e-06
-1.59168e-07
2.10075e-06
-2.18753e-07
1.91364e-06
-2.81118e-07
1.731e-06
-3.44362e-07
1.554e-06
-4.06841e-07
1.3835e-06
-4.66936e-07
1.22025e-06
-5.22882e-07
1.06489e-06
-5.72696e-07
9.17788e-07
-6.14296e-07
7.78744e-07
-6.4592e-07
6.46698e-07
-6.66839e-07
5.19586e-07
-6.77989e-07
3.94681e-07
-6.81984e-07
2.69424e-07
-6.8245e-07
1.42324e-07
-6.83098e-07
1.34687e-08
-1.15545e-07
-6.8681e-07
1.97084e-09
2.93715e-06
1.45367e-08
3.02448e-06
1.40277e-08
2.9649e-06
5.39168e-09
2.83585e-06
-1.1821e-08
2.6777e-06
-3.78412e-08
2.50478e-06
-7.21479e-08
2.32462e-06
-1.13367e-07
2.14195e-06
-1.59632e-07
1.95989e-06
-2.09054e-07
1.78041e-06
-2.599e-07
1.60484e-06
-3.10561e-07
1.43415e-06
-3.59462e-07
1.26914e-06
-4.04994e-07
1.11042e-06
-4.45513e-07
9.58307e-07
-4.79456e-07
8.12692e-07
-5.05637e-07
6.72885e-07
-5.23641e-07
5.37599e-07
-5.34146e-07
4.05196e-07
-5.38889e-07
2.7418e-07
-5.40259e-07
1.43708e-07
-5.4068e-07
1.39022e-08
-1.14134e-07
-5.42081e-07
-3.14953e-09
2.94029e-06
5.49442e-09
3.01581e-06
9.25207e-09
2.96113e-06
7.47054e-09
2.83762e-06
-9.48905e-10
2.6861e-06
-1.68073e-08
2.52062e-06
-4.00066e-08
2.3478e-06
-6.96413e-08
2.17157e-06
-1.0431e-07
1.99454e-06
-1.42436e-07
1.81852e-06
-1.82442e-07
1.64483e-06
-2.22797e-07
1.4745e-06
-2.62007e-07
1.30835e-06
-2.98609e-07
1.14702e-06
-3.31208e-07
9.90904e-07
-3.58577e-07
8.40061e-07
-3.79844e-07
6.94155e-07
-3.9472e-07
5.52481e-07
-4.03652e-07
4.14135e-07
-4.07768e-07
2.78304e-07
-4.08616e-07
1.44565e-07
-4.07775e-07
1.30709e-08
-1.15421e-07
-4.06483e-07
-6.07647e-09
2.94635e-06
-2.04429e-09
3.01176e-06
5.9941e-09
2.95307e-06
1.19483e-08
2.83164e-06
1.2367e-08
2.68566e-06
5.91681e-09
2.52705e-06
-7.50925e-09
2.36121e-06
-2.7229e-08
2.19127e-06
-5.20741e-08
2.01937e-06
-8.06468e-08
1.84708e-06
-1.11483e-07
1.67565e-06
-1.43127e-07
1.50613e-06
-1.7417e-07
1.33938e-06
-2.03275e-07
1.17612e-06
-2.29222e-07
1.01685e-06
-2.50994e-07
8.6183e-07
-2.67891e-07
7.11052e-07
-2.79659e-07
5.6425e-07
-2.86551e-07
4.2103e-07
-2.89275e-07
2.81032e-07
-2.88814e-07
1.44109e-07
-2.86175e-07
1.0437e-08
-1.19453e-07
-2.8214e-07
-9.29699e-09
2.95564e-06
-7.54941e-09
3.00999e-06
7.1075e-09
2.9384e-06
2.10607e-08
2.81767e-06
2.96733e-08
2.67703e-06
3.14422e-08
2.52526e-06
2.62218e-08
2.36641e-06
1.46382e-08
2.20284e-06
-2.2273e-09
2.03622e-06
-2.30641e-08
1.8679e-06
-4.64684e-08
1.69904e-06
-7.10434e-08
1.53069e-06
-9.545e-08
1.36378e-06
-1.18451e-07
1.19911e-06
-1.38954e-07
1.03734e-06
-1.56073e-07
8.78945e-07
-1.69202e-07
7.24177e-07
-1.78082e-07
5.73129e-07
-1.82821e-07
4.25767e-07
-1.83837e-07
2.82048e-07
-1.81741e-07
1.42013e-07
-1.77162e-07
5.85919e-09
-1.26035e-07
-1.70581e-07
-1.31352e-08
2.96876e-06
-4.75876e-09
3.0016e-06
1.65072e-08
2.91712e-06
3.71518e-08
2.79701e-06
5.2474e-08
2.66169e-06
6.08083e-08
2.51692e-06
6.19807e-08
2.36523e-06
5.66208e-08
2.20818e-06
4.58071e-08
2.04702e-06
3.08439e-08
1.88285e-06
1.31072e-08
1.71677e-06
-6.0437e-09
1.54983e-06
-2.53307e-08
1.38305e-06
-4.35894e-08
1.21736e-06
-5.98188e-08
1.05356e-06
-7.32253e-08
8.92344e-07
-8.32468e-08
7.34193e-07
-8.96231e-08
5.795e-07
-9.23553e-08
4.28496e-07
-9.16748e-08
2.81365e-07
-8.79497e-08
1.38286e-07
-8.15636e-08
-5.28892e-10
-1.3479e-07
-7.28124e-08
-9.35841e-09
2.97811e-06
8.28274e-09
2.98395e-06
3.52826e-08
2.8901e-06
6.11391e-08
2.77114e-06
8.14958e-08
2.64132e-06
9.4595e-08
2.5038e-06
1.00245e-07
2.35956e-06
9.91407e-08
2.20927e-06
9.24338e-08
2.05371e-06
8.14722e-08
1.8938e-06
6.76442e-08
1.73059e-06
5.22896e-08
1.56518e-06
3.66482e-08
1.39868e-06
2.18186e-08
1.23218e-06
8.7322e-09
1.06664e-06
-1.87275e-09
9.02941e-07
-9.51779e-09
7.41831e-07
-1.38957e-08
5.83873e-07
-1.49533e-08
4.29549e-07
-1.28092e-08
2.79217e-07
-7.68519e-09
1.33158e-07
1.80481e-10
-8.39837e-09
-1.45228e-07
1.06134e-08
5.52526e-09
2.97257e-06
2.9742e-08
2.95972e-06
6.17971e-08
2.85804e-06
9.22579e-08
2.74067e-06
1.16538e-07
2.61703e-06
1.32828e-07
2.4875e-06
1.41112e-07
2.35127e-06
1.42322e-07
2.20805e-06
1.37802e-07
2.05822e-06
1.29016e-07
1.90257e-06
1.17399e-07
1.74219e-06
1.04287e-07
1.57828e-06
9.08817e-08
1.41208e-06
7.82269e-08
1.24482e-06
6.71894e-08
1.07767e-06
5.84408e-08
9.11682e-07
5.24652e-08
7.478e-07
4.95196e-08
5.86812e-07
4.96919e-08
4.29371e-07
5.29242e-08
2.7598e-07
5.90739e-08
1.27004e-07
6.79825e-08
-1.73117e-08
-1.56792e-07
7.95415e-08
2.10348e-08
2.95153e-06
5.46346e-08
2.9261e-06
9.35243e-08
2.81914e-06
1.29301e-07
2.70488e-06
1.57058e-07
2.58926e-06
1.75221e-07
2.46933e-06
1.84374e-07
2.3421e-06
1.86002e-07
2.20641e-06
1.81816e-07
2.0624e-06
1.73468e-07
1.91091e-06
1.62468e-07
1.75318e-06
1.50151e-07
1.59059e-06
1.3768e-07
1.42454e-06
1.26041e-07
1.25645e-06
1.16039e-07
1.08766e-06
1.08294e-07
9.19421e-07
1.03238e-07
7.5285e-07
1.01114e-07
5.8893e-07
1.02006e-07
4.28474e-07
1.05872e-07
2.72109e-07
1.12595e-07
1.20275e-07
1.22051e-07
-2.67718e-08
-1.68905e-07
1.34158e-07
3.6266e-08
2.91526e-06
8.13052e-08
2.88105e-06
1.29317e-07
2.77112e-06
1.71742e-07
2.66245e-06
2.02764e-07
2.55823e-06
2.21419e-07
2.45066e-06
2.29596e-07
2.33392e-06
2.29751e-07
2.20625e-06
2.24129e-07
2.06801e-06
2.1462e-07
1.92041e-06
2.02801e-07
1.76499e-06
1.89991e-07
1.60339e-06
1.77295e-07
1.43723e-06
1.65634e-07
1.26811e-06
1.55745e-07
1.09755e-06
1.48191e-07
9.26968e-07
1.43356e-07
7.57679e-07
1.41451e-07
5.9083e-07
1.42536e-07
4.27385e-07
1.4655e-07
2.68091e-07
1.53368e-07
1.13453e-07
1.62859e-07
-3.62669e-08
-1.80996e-07
1.74945e-07
5.12699e-08
2.86399e-06
1.10013e-07
2.8223e-06
1.69567e-07
2.71156e-06
2.20053e-07
2.61196e-06
2.53711e-07
2.52457e-06
2.70953e-07
2.43341e-06
2.76041e-07
2.32882e-06
2.72818e-07
2.20947e-06
2.64133e-07
2.07669e-06
2.52075e-07
1.93246e-06
2.38227e-07
1.77883e-06
2.23846e-07
1.61776e-06
2.09953e-07
1.45112e-06
1.97382e-07
1.28067e-06
1.86801e-07
1.10812e-06
1.78712e-07
9.35052e-07
1.73452e-07
7.62935e-07
1.71192e-07
5.93085e-07
1.71954e-07
4.26619e-07
1.75639e-07
2.64402e-07
1.82079e-07
1.07008e-07
1.91109e-07
-4.53005e-08
-1.92525e-07
2.02634e-07
6.91114e-08
2.79487e-06
1.44064e-07
2.74734e-06
2.16114e-07
2.6395e-06
2.75974e-07
2.55209e-06
3.09705e-07
2.49083e-06
3.22796e-07
2.42031e-06
3.22401e-07
2.32921e-06
3.14027e-07
2.21783e-06
3.00955e-07
2.08975e-06
2.8529e-07
1.94812e-06
2.68513e-07
1.79561e-06
2.51752e-07
1.63452e-06
2.35908e-07
1.46695e-06
2.21718e-07
1.29486e-06
2.09773e-07
1.12006e-06
2.00519e-07
9.44301e-07
1.94252e-07
7.69198e-07
1.91107e-07
5.96226e-07
1.91064e-07
4.26658e-07
1.93971e-07
2.61492e-07
1.99594e-07
1.01383e-07
2.07702e-07
-5.34124e-08
-2.02994e-07
2.18168e-07
1.00452e-07
2.69441e-06
1.92356e-07
2.65543e-06
2.77771e-07
2.55407e-06
3.38262e-07
2.49159e-06
3.69414e-07
2.45967e-06
3.74437e-07
2.41529e-06
3.66461e-07
2.33718e-06
3.51758e-07
2.23253e-06
3.33535e-07
2.10797e-06
3.1368e-07
1.96797e-06
2.93459e-07
1.81582e-06
2.73817e-07
1.65416e-06
2.55515e-07
1.48525e-06
2.39185e-07
1.31118e-06
2.25345e-07
1.1339e-06
2.14397e-07
9.55245e-07
2.06609e-07
7.76983e-07
2.02094e-07
6.00738e-07
2.00802e-07
4.27948e-07
2.02521e-07
2.59771e-07
2.06931e-07
9.69698e-08
2.13706e-07
-6.01902e-08
-2.11956e-07
2.22665e-07
1.63356e-07
2.53105e-06
2.76371e-07
2.54241e-06
3.61505e-07
2.46893e-06
4.06594e-07
2.4465e-06
4.27209e-07
2.43905e-06
4.21658e-07
2.42083e-06
4.0547e-07
2.35336e-06
3.84335e-07
2.25366e-06
3.60939e-07
2.13136e-06
3.36838e-07
1.99207e-06
3.13049e-07
1.83961e-06
2.9033e-07
1.67687e-06
2.69301e-07
1.50628e-06
2.50494e-07
1.32999e-06
2.34366e-07
1.15002e-06
2.21288e-07
9.6832e-07
2.11522e-07
7.86746e-07
2.05188e-07
6.07069e-07
2.02229e-07
4.30905e-07
2.0239e-07
2.59609e-07
2.05244e-07
9.41137e-08
2.10326e-07
-6.52748e-08
-2.19012e-07
2.1738e-07
2.65118e-07
2.26593e-06
4.038e-07
2.40372e-06
4.65238e-07
2.40749e-06
4.84951e-07
2.42678e-06
4.8031e-07
2.44368e-06
4.62579e-07
2.43856e-06
4.38338e-07
2.3776e-06
4.11124e-07
2.28087e-06
3.82897e-07
2.15958e-06
3.54804e-07
2.02016e-06
3.27596e-07
1.86681e-06
3.01841e-07
1.70262e-06
2.78021e-07
1.53009e-06
2.56568e-07
1.35144e-06
2.37884e-07
1.1687e-06
2.22321e-07
9.8388e-07
2.10164e-07
7.98901e-07
2.01576e-07
6.15656e-07
1.96538e-07
4.35941e-07
1.94787e-07
2.61358e-07
1.95789e-07
9.31104e-08
1.98871e-07
-6.83589e-08
-2.2381e-07
2.03668e-07
3.93636e-07
1.87229e-06
5.54686e-07
2.24267e-06
5.8335e-07
2.37883e-06
5.67645e-07
2.44248e-06
5.32408e-07
2.47892e-06
4.99741e-07
2.47122e-06
4.66329e-07
2.41101e-06
4.32802e-07
2.31439e-06
3.999e-07
2.19248e-06
3.681e-07
2.05195e-06
3.37754e-07
1.89715e-06
3.09173e-07
1.7312e-06
2.82663e-07
1.5566e-06
2.58545e-07
1.37555e-06
2.37155e-07
1.19009e-06
2.18834e-07
1.0022e-06
2.03903e-07
8.1383e-07
1.92609e-07
6.26948e-07
1.85043e-07
4.43505e-07
1.81011e-07
2.65388e-07
1.79895e-07
9.42252e-08
1.80714e-07
-6.91798e-08
-2.26037e-07
1.8294e-07
5.3126e-07
1.34103e-06
7.05624e-07
2.0683e-06
7.02455e-07
2.38199e-06
6.45886e-07
2.49904e-06
5.8478e-07
2.54002e-06
5.34432e-07
2.52157e-06
4.90217e-07
2.45522e-06
4.49953e-07
2.35465e-06
4.12542e-07
2.22989e-06
3.77429e-07
2.08706e-06