/*--------------------------------*- C++ -*----------------------------------*\
  =========                 |
  \\      /  F ield         | OpenFOAM: The Open Source CFD Toolbox
   \\    /   O peration     | Website:  https://openfoam.org
    \\  /    A nd           | Version:  9
     \\/     M anipulation  |
\*---------------------------------------------------------------------------*/
FoamFile
{
    format      ascii;
    class       volScalarField;
    location    "8.22";
    object      alpha.water;
}
// * * * * * * * * * * * * * * * * * * * * * * * * * * * * * * * * * * * * * //

dimensions      [0 0 0 0 0 0 0];

internalField   nonuniform List<scalar> 
2268
(
1
1
0.999999
0.999998
0.999999
1
0.999999
0.999999
0.999997
0.999998
0.999999
1
1
0.999999
1
0.999999
1
1
0.99891
0.997758
0.998556
0.999995
0.999825
0.999998
0.999999
0.999997
0.999998
1
1
0.999997
0.999997
0.999997
0.999998
0.999999
0.999999
0.999999
0.999999
0.999999
0.999998
0.999998
1
0.998752
0.997758
0.999562
0.999995
0.999992
0.999997
0.999997
0.999997
0.999999
0.999999
1
0.999999
0.999999
0.999999
0.999999
0.999999
0.999999
0.999999
1
0.999999
0.999984
1
1
0.999192
0.997758
0.999811
0.999995
0.999995
0.999998
0.999999
0.999999
1
1
1
0.999999
0.999999
0.999999
0.999999
1
1
1
1
1
0.999935
0.999839
0.999937
0.999918
0.998715
0.999876
0.999995
0.999984
1
1
1
1
1
1
1
1
1
1
1
1
1
1
1
0.999902
0.999083
0.99993
0.999988
0.999986
0.999988
0.998235
0.999883
1
1
1
1
1
1
1
1
1
1
1
1
1
1
1
1
0.997149
0.999885
0.999988
0.999988
0.999988
0.996535
0.999738
1
1
1
1
1
1
1
1
1
1
1
1
1
1
1
1
0.99743
0.985417
0.99062
0.999155
0.989998
0.995297
0.999964
1
1
1
1
1
1
1
1
1
0.999999
0.999999
1
1
1
1
1
0.998297
0.98465
0.98465
0.986605
0.985443
0.995743
0.999969
0.999239
0.999812
0.999331
0.999236
0.999376
0.997999
0.994718
0.994708
0.994958
0.993654
0.992222
0.992222
0.993799
0.998685
0.998685
0.998685
0.998685
0.998684
0.998624
0.995545
0.99991
0.999997
0.999984
0.999992
0.999992
0.999992
0.999939
0.999939
0.999855
0.996497
0.992222
0.992223
0.998621
0.998685
0.998685
0.99867
0.997689
0.997453
0.992267
0.99789
0.999997
0.999988
0.999992
0.999985
0.999968
0.999968
0.999888
0.999904
0.999636
0.995261
0.993632
0.99674
0.998685
0.998685
0.997548
0.995005
0.995005
0.992267
0.998072
0.999997
0.999994
0.999996
0.999946
0.999758
0.999779
0.999427
0.999335
0.99969
0.999682
0.999224
0.998404
0.997902
0.998683
0.997081
0.995029
0.99728
0.992267
0.999117
0.999998
0.999998
0.999995
0.999823
0.999757
0.999762
0.999397
0.998983
0.999512
0.999685
0.999685
0.999317
0.995347
0.996554
0.996148
0.998434
0.998434
0.997873
0.99993
0.999998
0.999992
0.999969
0.999953
0.999938
0.999901
0.999196
0.999541
0.999673
0.999685
0.999685
0.999685
0.99535
0.990955
0.989327
0.998434
0.998434
0.999999
0.999999
0.999997
0.999988
0.999991
0.999996
0.999996
0.999968
0.996581
0.992458
0.999685
0.999685
0.999145
0.993376
0.991482
0.997345
0.988835
0.997802
0.998434
1
0.999999
0.999998
0.999997
0.999997
0.999997
0.999997
0.999967
0.9913
0.98428
0.990904
0.99834
0.997271
0.984255
0.990457
0.997345
0.988867
0.996102
0.998434
1
1
1
1
1
1
1
1
0.999999
0.999999
0.999999
1
1
1
1
1
0.999998
0.997644
0.992571
0.988973
0.996328
0.999932
1
0.955103
0.955622
0.957523
0.959207
0.961395
0.964579
0.968309
0.972159
0.975602
0.977898
0.979522
0.980738
0.98286
0.986026
0.990048
0.995108
0.999998
0.999998
0.999998
0.999999
1
1
1
0.261758
0.263366
0.265481
0.268998
0.273462
0.278514
0.28456
0.291842
0.300733
0.311425
0.323469
0.336166
0.348425
0.359993
0.370957
0.381485
0.393726
0.409948
0.423768
0.432033
0.435063
0.436135
0.438214
0.000410517
0.000410415
0.000410649
0.000410926
0.000410991
0.000411028
0.000411348
0.000412001
0.000412623
0.000413032
0.000413349
0.0004137
0.000414011
0.000436272
0.000616558
0.000895001
0.00125088
0.00120472
0.000869568
0.000911235
0.00102803
0.00114113
0.00115581
0.000490123
0.000814581
0.000904285
0.000882513
0.000975228
0.00155601
0.00194979
0.00218185
0.00226414
0.00236166
0.00241675
0.00242191
0.00242212
0.00236448
0.00204438
0.00193713
0.00169059
0.00121663
0.000685853
0.000707296
0.000735844
0.000715139
0.000540824
0.000416912
0.000266091
0.000130475
0.000138822
0.000187251
2.71109e-08
2.71085e-08
2.71086e-08
2.71085e-08
2.71086e-08
2.71089e-08
2.86195e-08
1.10655e-06
1.05357e-05
6.73436e-05
8.10704e-05
0.000137845
0.000292134
0.000359188
0.000377639
0.000367007
0.000338841
0.000431067
2.32045e-09
2.32133e-09
7.8385e-06
1.74246e-07
8.39424e-08
8.25296e-08
5.56197e-08
2.71085e-08
2.71086e-08
2.71089e-08
2.71112e-08
2.6068e-07
3.52876e-05
6.61838e-05
6.7094e-05
4.96092e-05
1.26264e-05
1.33907e-05
9.63682e-06
7.46412e-06
4.84472e-05
0.000106409
0.000132108
2.32045e-09
2.32046e-09
6.31154e-09
3.66097e-07
1.44069e-06
1.75487e-06
8.22109e-07
1.45847e-07
6.54544e-07
9.06829e-07
1.94642e-07
2.31276e-06
4.5732e-05
6.50878e-05
5.26266e-05
2.0547e-05
1.12362e-05
6.16918e-06
2.04661e-06
6.72473e-09
1.84091e-08
6.94523e-09
3.66977e-08
2.32389e-09
2.32021e-09
2.32023e-09
1.33157e-08
6.49387e-07
1.85949e-06
1.85967e-06
9.33313e-07
1.59633e-06
2.74941e-06
2.02711e-06
1.09565e-06
4.58687e-10
4.61471e-10
8.85464e-10
1.03475e-05
1.17627e-05
3.10646e-06
6.72473e-09
6.69585e-09
6.5864e-09
4.60381e-09
4.53114e-09
2.49706e-09
2.32022e-09
2.32021e-09
2.32031e-09
1.7533e-07
1.65874e-06
1.60957e-06
2.24024e-07
2.36545e-06
2.74941e-06
2.29508e-06
4.55251e-10
4.55924e-10
1.94025e-09
1.1941e-08
4.48931e-07
1.61034e-06
4.68651e-07
6.78769e-09
7.3119e-09
1.41028e-08
1.00024e-08
4.53114e-09
3.20535e-09
2.53664e-08
4.94893e-08
2.32685e-09
9.36242e-09
1.60554e-07
2.4818e-07
9.2557e-08
1.87248e-06
2.74941e-06
9.58581e-07
4.54336e-10
4.53928e-10
6.16481e-08
5.25428e-07
6.3751e-07
1.88469e-07
1.49001e-08
1.48766e-08
2.73411e-08
2.73411e-08
2.27456e-08
5.62408e-09
7.2603e-09
1.05142e-07
1.05217e-07
1.0045e-08
5.10987e-10
5.20519e-10
6.07845e-10
3.89035e-08
1.70649e-06
2.19988e-06
4.54052e-10
4.53887e-10
4.49628e-10
4.71858e-10
2.69849e-06
5.87221e-06
5.2614e-06
3.57329e-07
1.24289e-08
1.24178e-08
2.64653e-08
1.58661e-08
4.49001e-09
7.66495e-09
1.0544e-07
1.05441e-07
1.76178e-08
5.10987e-10
5.10987e-10
2.22854e-07
1.46392e-06
1.60034e-06
4.84817e-07
4.53357e-10
4.52935e-10
4.30629e-10
7.66005e-10
2.90331e-06
5.87199e-06
5.87221e-06
5.52705e-06
4.13332e-07
5.81643e-09
5.83664e-09
6.47245e-09
4.30852e-09
3.22759e-09
5.67353e-08
9.723e-08
1.06611e-08
5.10987e-10
1.80134e-08
1.06857e-06
1.60885e-06
1.37484e-06
3.24793e-10
6.29086e-10
7.64729e-10
4.29942e-10
2.19066e-10
5.02583e-08
2.48433e-06
5.87171e-06
5.34145e-06
5.48769e-08
5.81885e-09
6.20974e-09
1.24677e-08
6.82751e-09
1.14611e-09
1.58843e-09
1.65687e-08
2.38109e-09
5.21484e-10
1.72587e-08
1.11716e-06
1.60885e-06
6.77542e-07
3.24642e-10
7.30051e-10
8.2485e-10
4.664e-10
7.7785e-11
1.95992e-10
7.26869e-08
4.85114e-07
5.30123e-07
4.76828e-08
5.81644e-09
1.36095e-08
1.43113e-08
8.62578e-09
3.27776e-10
3.27785e-10
3.30214e-10
3.62861e-10
6.21668e-10
1.84611e-08
3.98173e-07
6.29113e-07
2.58969e-09
3.24561e-10
8.16133e-10
7.87968e-10
2.53871e-10
6.74687e-11
6.39996e-11
7.61422e-11
8.08582e-11
8.47751e-11
1.57591e-09
1.03018e-08
1.57217e-08
1.35576e-08
1.58234e-09
3.27785e-10
3.27777e-10
6.10601e-10
3.6369e-10
2.87169e-09
1.34587e-08
1.49198e-10
1.43892e-11
3.37103e-11
3.2468e-10
6.08642e-10
4.24343e-10
9.39033e-11
5.23301e-11
6.39998e-11
6.35146e-11
5.81607e-11
5.75703e-11
3.60068e-10
2.20296e-09
3.36242e-09
2.14345e-09
1.12101e-09
1.72245e-07
1.82456e-07
2.83655e-11
4.14507e-10
3.52328e-09
8.06313e-09
1.40597e-11
1.34406e-11
2.36625e-11
1.50476e-10
2.05604e-10
8.9853e-11
1.92437e-11
3.23952e-11
5.45729e-11
6.12091e-11
6.09566e-11
5.54427e-11
4.73029e-11
2.84907e-11
9.63621e-12
5.28442e-11
1.70395e-10
2.74656e-07
2.49948e-07
2.8329e-11
5.17981e-10
2.55565e-09
1.42804e-09
1.54841e-11
1.34394e-11
9.66746e-12
2.22776e-11
2.00017e-11
4.3727e-12
1.18569e-12
1.01191e-11
2.61539e-11
3.44037e-11
3.53383e-11
2.85995e-11
1.643e-11
8.45397e-12
4.25038e-12
2.35791e-12
1.82126e-12
2.74656e-07
1.14849e-07
2.83049e-11
4.26347e-10
1.04373e-09
3.95271e-11
1.364e-11
1.16191e-11
1.79488e-12
5.99306e-13
2.82897e-13
9.00508e-16
-9.15128e-14
6.49988e-13
3.82925e-12
6.24774e-12
6.20454e-12
4.18274e-12
2.21831e-12
1.25111e-12
7.89712e-13
3.35051e-13
2.47158e-13
2.74656e-07
8.91941e-09
2.82946e-11
2.29723e-10
1.9244e-10
5.61373e-12
7.86731e-12
5.90705e-12
1.67203e-15
-4.21981e-13
-6.19678e-13
-7.7698e-13
-7.2325e-13
-3.2061e-13
5.6331e-14
1.66049e-13
1.53491e-13
7.53126e-14
3.33725e-14
1.72776e-14
9.11039e-15
1.8998e-15
9.55401e-16
2.75944e-07
1.79673e-08
2.82928e-11
7.01981e-11
3.13013e-11
3.97618e-12
1.99341e-12
7.7754e-13
-4.72341e-13
-9.28505e-13
-1.07784e-12
-1.10562e-12
-9.64422e-13
-6.8477e-13
-4.07831e-13
-2.51779e-13
-1.85831e-13
-1.54048e-13
-1.25253e-13
-9.59807e-14
-6.80798e-14
-4.50658e-14
-2.78309e-14
2.76482e-07
2.28511e-07
2.82928e-11
2.92324e-11
2.6768e-11
3.92617e-12
1.29507e-13
0
-6.56183e-13
-9.9987e-13
-1.09064e-12
-1.04603e-12
-8.94687e-13
-6.87431e-13
-4.91052e-13
-3.45001e-13
-2.50742e-13
-1.84423e-13
-1.32842e-13
-9.26766e-14
-6.23776e-14
-4.02688e-14
-2.46875e-14
2.76482e-07
2.76481e-07
2.82928e-11
2.98544e-11
3.04762e-11
4.29861e-12
1.46211e-13
-4.08648e-14
-4.69485e-13
-7.2365e-13
-8.02238e-13
-7.66634e-13
-6.57679e-13
-5.1744e-13
-3.83491e-13
-2.74613e-13
-1.93978e-13
-1.33957e-13
-8.96116e-14
-5.82478e-14
-3.72186e-14
-2.33305e-14
-1.41427e-14
2.76482e-07
2.71204e-07
2.82928e-11
4.37692e-11
4.52332e-11
5.95848e-12
8.63891e-13
4.92418e-13
6.26307e-15
-2.14487e-13
-3.54337e-13
-4.05471e-13
-3.82713e-13
-3.16427e-13
-2.39808e-13
-1.71944e-13
-1.18822e-13
-7.85074e-14
-4.95666e-14
-3.01401e-14
-1.8022e-14
-1.07331e-14
-6.35877e-15
2.76482e-07
7.71116e-08
2.82933e-11
9.71987e-11
7.63573e-11
1.05386e-11
3.66664e-12
3.06916e-12
2.12071e-12
1.05133e-12
3.22799e-13
-3.96976e-14
-1.39496e-13
-1.54645e-13
-1.26764e-13
-9.17817e-14
-6.29123e-14
-4.0302e-14
-2.42357e-14
-1.38058e-14
-7.63311e-15
-4.207e-15
-2.36095e-15
7.58403e-08
6.97842e-11
6.97469e-11
1.91415e-10
1.17329e-10
1.96469e-11
1.03955e-11
9.53429e-12
7.55365e-12
4.87428e-12
2.44462e-12
8.24075e-13
9.79838e-14
-4.73756e-14
-5.7368e-14
-4.31869e-14
-2.98497e-14
-1.87476e-14
-1.08271e-14
-5.81425e-15
-2.97105e-15
-1.49679e-15
-7.6607e-16
7.7094e-11
8.19173e-11
1.61054e-10
2.18054e-10
1.34878e-10
3.30902e-11
2.21076e-11
2.06319e-11
1.68757e-11
1.17916e-11
6.42952e-12
2.48388e-12
5.45289e-13
1.22472e-14
-2.12629e-14
-1.82803e-14
-1.29739e-14
-8.05747e-15
-4.49065e-15
-2.28375e-15
-1.08564e-15
-5.05503e-16
-2.39494e-16
7.68071e-11
8.20474e-11
1.92477e-10
2.18268e-10
1.31193e-10
4.71996e-11
3.73334e-11
3.50357e-11
2.87861e-11
2.09111e-11
1.18293e-11
4.54038e-12
9.05955e-13
4.91679e-14
-4.96633e-15
-7.03783e-15
-5.25175e-15
-3.24213e-15
-1.74696e-15
-8.42768e-16
-3.77027e-16
-1.6783e-16
-7.68455e-17
7.68071e-11
7.72874e-11
1.70799e-10
1.77351e-10
1.05597e-10
5.30581e-11
4.95554e-11
4.8672e-11
4.09285e-11
3.01619e-11
1.73422e-11
6.2757e-12
1.01256e-12
4.79945e-14
-3.69842e-16
-2.50916e-15
-2.00944e-15
-1.23398e-15
-6.4191e-16
-2.94823e-16
-1.25207e-16
-5.30056e-17
-2.34082e-17
8.60134e-11
5.88967e-11
8.81723e-11
7.10015e-11
6.21056e-11
5.28617e-11
5.29939e-11
5.42693e-11
4.91299e-11
3.69868e-11
2.10754e-11
6.98343e-12
9.80009e-13
3.44357e-14
2.52058e-17
-8.61092e-16
-7.38045e-16
-4.49103e-16
-2.24688e-16
-9.79793e-17
-3.92745e-17
-1.579e-17
-6.72793e-18
2.22904e-10
5.11875e-11
5.11765e-11
5.11764e-11
5.11763e-11
5.11763e-11
5.24231e-11
5.45435e-11
5.1347e-11
3.9421e-11
2.20097e-11
6.93845e-12
8.03162e-13
1.63206e-14
2.41906e-17
-2.944e-16
-2.64138e-16
-1.57618e-16
-7.52304e-17
-3.08923e-17
-1.15486e-17
-4.37088e-18
-1.76447e-18
4.75866e-10
5.11765e-11
5.11764e-11
5.11763e-11
5.11763e-11
5.11763e-11
5.12498e-11
5.43297e-11
5.12754e-11
3.94293e-11
2.16794e-11
6.23158e-12
5.13647e-13
5.55043e-15
5.28834e-18
-1.02459e-16
-9.31895e-17
-5.36862e-17
-2.41356e-17
-9.18707e-18
-3.13683e-18
-1.09823e-18
-4.12806e-19
4.75634e-10
3.01833e-08
2.98117e-07
6.76598e-07
7.94958e-08
2.17384e-09
5.12345e-11
5.3026e-11
5.02324e-11
3.82141e-11
1.96941e-11
4.60725e-12
2.46966e-13
1.42574e-15
5.33058e-19
-3.67157e-17
-3.26241e-17
-1.77787e-17
-7.39638e-18
-2.55256e-18
-7.77376e-19
-2.47083e-19
-8.46288e-20
4.75835e-10
1.20102e-07
8.25015e-07
8.25261e-07
7.26577e-07
3.42329e-08
4.94296e-11
4.9423e-11
4.7332e-11
3.45113e-11
1.54934e-11
2.65243e-12
8.46067e-14
2.47154e-16
2.62688e-20
-1.36466e-17
-1.13499e-17
-5.71062e-18
-2.15165e-18
-6.55916e-19
-1.72984e-19
-4.86206e-20
-1.48551e-20
4.76136e-10
9.71875e-08
8.25261e-07
8.25261e-07
7.07813e-07
2.84689e-08
4.66273e-11
4.66189e-11
4.27542e-11
2.81444e-11
1.01054e-11
1.12561e-12
1.86007e-14
2.31805e-17
-2.574e-19
-5.29505e-18
-3.91518e-18
-1.77269e-18
-5.90706e-19
-1.54604e-19
-3.40824e-20
-8.18716e-21
-2.17529e-21
5.6631e-10
1.77403e-08
4.19712e-07
7.22471e-07
2.06145e-07
4.96794e-09
4.71118e-11
4.529e-11
3.63071e-11
1.99313e-11
5.13804e-12
3.18074e-13
2.24149e-15
1.0532e-18
-9.31424e-19
-2.10622e-18
-1.33398e-18
-5.31166e-19
-1.52817e-19
-3.33427e-20
-5.90508e-21
-1.15851e-21
-2.58323e-22
1.86829e-09
1.63368e-09
3.00231e-09
5.17569e-08
2.11995e-09
1.82376e-10
6.47173e-11
4.43565e-11
2.76338e-11
1.14103e-11
1.80259e-12
5.02467e-14
1.22238e-16
1.71004e-20
-6.59627e-19
-8.35385e-19
-4.48662e-19
-1.54206e-19
-3.74505e-20
-6.61882e-21
-9.01059e-22
-1.35702e-22
-2.40896e-23
2.00936e-09
1.56363e-09
6.08183e-10
2.31926e-10
1.32991e-10
1.32906e-10
8.29409e-11
4.0911e-11
1.78026e-11
4.65348e-12
3.54669e-13
3.46704e-15
2.46952e-18
4.31567e-23
-3.59274e-19
-3.29053e-19
-1.49651e-19
-4.38115e-20
-8.82261e-21
-1.23361e-21
-1.23925e-22
-1.3185e-23
-1.70764e-24
4.62802e-10
1.2294e-09
9.34945e-10
4.67047e-10
2.63956e-10
1.69358e-10
8.29629e-11
3.14602e-11
8.57233e-12
1.09267e-12
2.93877e-14
7.97247e-17
1.60585e-20
-6.42339e-20
-1.81436e-19
-1.29206e-19
-4.98969e-20
-1.23698e-20
-2.04571e-21
-2.23035e-22
-1.60239e-23
-1.08802e-24
-8.85897e-26
-1.20193e-26
4.14578e-10
8.49543e-10
6.90341e-10
4.4126e-10
2.11468e-10
7.71376e-11
1.93487e-11
2.58365e-12
1.10182e-13
7.46524e-16
5.1973e-19
2.18826e-23
-6.04924e-20
-8.7652e-20
-5.07199e-20
-1.67784e-20
-3.53582e-21
-4.81302e-22
-4.08127e-23
-2.04844e-24
-7.92249e-26
-3.16969e-27
-2.6423e-27
3.2416e-11
3.94605e-10
5.15611e-10
3.79396e-10
1.82611e-10
5.08891e-11
6.40028e-12
2.77797e-13
2.67927e-15
3.72547e-18
9.09641e-22
-1.09553e-20
-4.07752e-20
-4.10145e-20
-1.99498e-20
-5.73999e-21
-1.04478e-21
-1.19671e-22
-8.12933e-24
-2.97785e-25
-5.40541e-27
-6.07931e-29
1
1
1
1
1
1
1
1
0.440008
0.439571
0.437995
0.435409
0.00108077
0.00107628
0.00111086
0.00102509
0.000370012
0.000390344
0.000506638
0.000527316
0.000264108
0.000139726
0.000239909
0.000444763
0.000143583
0.000103522
0.000109762
0.000127141
8.51906e-07
3.51111e-06
1.50947e-06
2.20894e-07
4.84364e-09
3.24859e-08
1.35881e-07
4.47963e-07
4.53114e-09
9.00064e-07
1.44725e-05
2.1017e-05
2.53173e-06
2.01627e-05
2.10164e-05
2.10174e-05
9.6768e-08
2.80198e-06
1.79961e-05
2.10175e-05
4.30852e-09
1.13256e-08
1.47492e-07
6.85168e-07
8.86597e-09
1.33541e-08
5.65684e-09
2.15288e-09
2.70265e-08
3.73698e-08
3.73711e-08
3.73405e-08
2.10921e-09
4.34045e-09
1.06793e-08
3.75966e-08
8.32814e-10
9.1629e-11
4.11305e-12
4.93455e-11
1.05471e-10
7.10574e-12
3.06642e-13
1.86999e-13
6.05451e-13
3.87042e-13
3.68625e-13
1.88368e-13
2.3878e-13
2.34673e-13
1.85582e-13
1.1114e-13
3.0592e-15
4.32183e-15
2.46471e-15
8.20922e-16
-1.59269e-14
-1.26188e-14
-1.00281e-14
-7.95626e-15
-1.43724e-14
-1.13951e-14
-9.12474e-15
-7.35108e-15
-8.11766e-15
-6.19615e-15
-4.80921e-15
-3.79932e-15
-3.67111e-15
-2.70996e-15
-1.99841e-15
-1.48939e-15
-1.40888e-15
-1.02677e-15
-7.37673e-16
-5.1461e-16
-4.87293e-16
-3.45119e-16
-2.45723e-16
-1.68801e-16
-1.59398e-16
-1.09079e-16
-7.47924e-17
-5.05241e-17
-5.04e-17
-3.33812e-17
-2.19857e-17
-1.43293e-17
-1.49509e-17
-9.60426e-18
-6.10959e-18
-3.83243e-18
-4.15453e-18
-2.56772e-18
-1.56829e-18
-9.4258e-19
-1.04237e-18
-6.1437e-19
-3.57438e-19
-2.04443e-19
-2.30895e-19
-1.28515e-19
-7.0499e-20
-3.79752e-20
-4.42235e-20
-2.29515e-20
-1.17184e-20
-5.86567e-21
-7.13782e-21
-3.40042e-21
-1.59013e-21
-7.27429e-22
-9.4157e-22
-4.0349e-22
-1.69267e-22
-6.92751e-23
-9.78585e-23
-3.6681e-23
-1.342e-23
-4.77425e-24
-7.64451e-24
-2.40438e-24
-7.36181e-25
-2.18437e-25
-4.20771e-25
-1.03561e-25
-2.48202e-26
-5.75515e-27
-1.46303e-26
-2.46475e-27
-4.08604e-28
-6.59311e-29
-2.56008e-28
-2.17101e-29
-1.87465e-30
-1.62553e-31
-1.03387e-30
-1.67527e-32
-2.7551e-34
-4.85278e-36
1
1
1
1
0.999099
0.996258
0.995963
0.99724
0.997033
0.983834
0.977642
0.977641
0.977661
0.984027
0.99733
0.997345
0.993885
0.993541
0.997693
1
0.997312
0.993811
0.989677
0.985461
0.981325
0.97679
0.974428
0.981149
0.985065
0.985068
0.984319
0.981835
0.978411
0.971076
0.96433
0.962911
0.955219
0.950285
0.42996
0.421645
0.41375
0.406679
0.399796
0.392842
0.384365
0.373157
0.359548
0.350783
0.341927
0.331327
0.321307
0.310296
0.299476
0.294006
0.29193
0.291766
0.292215
0.000877117
0.000924929
0.00118143
0.00113759
0.00102154
0.000722768
0.000489957
0.000368562
0.000317913
0.000260807
0.000260272
0.000260004
0.000259812
0.000260004
0.000260251
0.000260563
0.000260709
0.000260868
0.000261029
0.000455262
0.000578504
0.00103286
0.00101292
0.000981569
0.000998065
0.00101727
0.00102053
0.00102054
0.00102043
0.000929232
0.000641807
0.000259472
0.000619406
0.000740174
0.000740191
0.000740187
0.00074019
0.000645477
0.000455416
0.000370398
0.000356703
0.000363814
0.000333419
0.000266174
0.000210937
0.000179925
0.000155876
8.44376e-05
5.70862e-06
5.70904e-06
0.000136849
0.000141388
0.000166194
0.000211986
0.000217264
0.000231101
0.000296957
0.00010748
8.04875e-05
1.42423e-05
2.20706e-08
5.15581e-07
9.49429e-07
2.89107e-06
2.90864e-06
2.93242e-06
2.94706e-06
9.1196e-06
1.09929e-05
2.44098e-05
2.70873e-06
5.17752e-07
5.17746e-07
5.17745e-07
5.17746e-07
5.17746e-07
1.30279e-07
1.52201e-08
7.95736e-09
2.12406e-08
7.45781e-07
2.26646e-05
3.73726e-05
2.97183e-05
2.14234e-05
3.29564e-05
5.07242e-05
5.07237e-05
4.60795e-05
7.55229e-06
5.17767e-07
5.17745e-07
5.17745e-07
5.17745e-07
5.17746e-07
6.80089e-07
7.95736e-09
7.94967e-09
7.95736e-09
1.37858e-05
4.77336e-05
4.77372e-05
4.65993e-05
4.65265e-05
4.33323e-05
4.98305e-05
5.07242e-05
4.70936e-05
6.35437e-06
5.46231e-07
5.17743e-07
5.17744e-07
5.17745e-07
5.17745e-07
2.10166e-05
5.87299e-06
7.95012e-09
7.95012e-09
1.26618e-05
3.12612e-05
1.28126e-05
1.1735e-07
1.16108e-07
1.14169e-07
4.77464e-06
2.00019e-05
2.93879e-05
1.57127e-05
3.20056e-06
5.17743e-07
5.17743e-07
5.17753e-07
5.17932e-07
2.10164e-05
2.10159e-05
1.19315e-05
1.23493e-06
1.09281e-06
2.09234e-09
2.09237e-09
3.34725e-07
7.44378e-07
1.13849e-07
6.79039e-08
1.3206e-06
1.15852e-05
1.61802e-05
2.8798e-06
5.17743e-07
5.17743e-07
5.19269e-07
5.19269e-07
2.10169e-05
2.10097e-05
2.00707e-05
2.61897e-06
2.09156e-09
2.09101e-09
2.45352e-07
8.75587e-07
8.75592e-07
2.57384e-07
6.54659e-08
2.75761e-06
5.86596e-06
1.40195e-05
5.74642e-07
5.17743e-07
5.17742e-07
5.17744e-07
5.17745e-07
5.31377e-06
9.68355e-06
2.12331e-06
2.09089e-09
2.08997e-09
8.48759e-09
6.37016e-08
8.39813e-08
3.76779e-08
2.5079e-10
2.50789e-10
2.55846e-10
1.94891e-06
9.3277e-06
9.3297e-06
5.35203e-06
5.17742e-07
5.17742e-07
5.17743e-07
2.13319e-09
2.10886e-09
2.09807e-09
2.09664e-09
4.01803e-09
5.01238e-09
2.50617e-10
2.50599e-10
2.50617e-10
2.50617e-10
2.50893e-10
2.59558e-10
3.27983e-06
8.51887e-06
9.32629e-06
9.32097e-06
3.08523e-06
5.1774e-07
5.17742e-07
4.57617e-08
5.8906e-08
3.4762e-08
1.65965e-09
1.39712e-09
1.30478e-09
7.5712e-10
3.23882e-10
2.51361e-10
6.18972e-10
8.2201e-10
6.51625e-10
5.03302e-11
2.86187e-09
1.98865e-06
1.48994e-06
2.68986e-06
5.93059e-06
7.39984e-06
1.71747e-07
2.43607e-07
2.43607e-07
9.09846e-08
6.76287e-09
2.5246e-10
3.93048e-10
1.08155e-09
2.0016e-09
7.37869e-10
7.5597e-10
5.01216e-10
5.03302e-11
5.03302e-11
5.06875e-11
1.02482e-07
8.36176e-06
1.25799e-05
1.25805e-05
9.14287e-08
2.43607e-07
2.43591e-07
2.43575e-07
1.44274e-07
2.5246e-10
4.01079e-09
3.20233e-08
4.03921e-08
8.28922e-09
4.73629e-11
4.73576e-11
5.19081e-11
5.09449e-11
5.20817e-11
7.63897e-07
1.03468e-05
1.25802e-05
8.88634e-06
3.50501e-14
4.454e-08
2.12135e-07
2.43507e-07
1.94974e-07
1.25289e-09
9.1497e-09
6.47115e-08
6.47129e-08
5.40639e-08
1.8501e-10
4.73521e-11
7.25586e-11
7.30184e-11
1.11494e-10
3.36244e-08
1.15224e-06
2.27053e-06
1.11534e-12
3.49987e-14
-3.2919e-33
2.12507e-11
3.42883e-08
2.02424e-08
3.21988e-09
1.29135e-08
6.26862e-08
6.47079e-08
6.4309e-08
1.30727e-08
4.73534e-11
4.73521e-11
5.36856e-11
3.52058e-10
2.50292e-09
1.11177e-12
1.11177e-12
1.11177e-12
4.60574e-14
-2.10709e-17
-8.37057e-17
-9.86076e-35
2.36681e-19
2.91426e-16
8.16989e-10
1.26461e-08
3.42267e-08
1.82085e-08
1.24345e-09
4.76778e-11
4.8308e-11
1.95696e-11
5.46061e-12
1.11181e-12
1.11177e-12
1.11177e-12
1.11177e-12
-3.31418e-16
-6.46748e-16
-4.93849e-16
-5.16895e-17
6.65615e-16
6.65723e-16
6.70449e-16
6.84449e-16
7.14499e-16
7.76368e-16
8.72334e-16
1.33659e-11
6.05042e-11
6.44821e-12
1.72488e-12
1.24992e-12
1.14184e-12
1.11177e-12
1.11178e-12
-6.31693e-15
-3.32509e-15
-1.62206e-15
-1.77995e-16
2.3167e-15
1.69381e-14
3.58284e-14
7.05788e-14
1.30152e-13
1.71338e-13
2.20843e-13
6.30891e-13
1.23281e-12
6.80822e-13
3.7525e-13
7.27799e-13
1.38725e-12
1.11178e-12
1.29502e-07
-5.90034e-15
-3.41046e-15
-1.93056e-15
-1.03707e-15
-4.60693e-16
0
1.14838e-15
2.87723e-14
1.23423e-13
1.72053e-13
1.97038e-13
4.38279e-13
5.80977e-13
1.93436e-13
8.55571e-14
5.2313e-13
1.84945e-12
1.11181e-12
1.82122e-06
-3.01894e-15
-1.78471e-15
-1.0456e-15
-6.06373e-16
-3.44758e-16
-1.87532e-16
-8.59589e-17
-1.79374e-18
6.1497e-16
5.32434e-15
1.02313e-14
2.02737e-14
6.6122e-14
2.72844e-14
2.68034e-14
4.70194e-13
2.21099e-12
1.11256e-12
2.17328e-06
-1.12642e-15
-6.51323e-16
-3.75983e-16
-2.16567e-16
-1.24426e-16
-7.21601e-17
-4.12159e-17
-2.11761e-17
-3.8609e-18
1.17952e-17
7.68917e-17
2.43456e-16
7.00325e-16
2.28838e-15
1.3332e-14
4.62063e-13
2.33901e-12
1.11285e-12
2.1733e-06
-3.42752e-16
-1.9081e-16
-1.05723e-16
-5.89646e-17
-3.34113e-17
-1.91146e-17
-1.07937e-17
-5.68963e-18
-2.15416e-18
9.66543e-19
1.30216e-17
6.36614e-17
3.20145e-16
1.59077e-15
1.19849e-14
4.64392e-13
2.34953e-12
1.11305e-12
2.17317e-06
-9.17879e-17
-4.81452e-17
-2.57426e-17
-1.4007e-17
-7.67438e-18
-4.12463e-18
-2.00818e-18
-6.01048e-19
4.44721e-20
2.56636e-18
1.24383e-17
5.79578e-17
2.95191e-16
1.50226e-15
1.18852e-14
4.50628e-13
2.34985e-12
1.11336e-12
1.44196e-06
-2.39424e-17
-1.14257e-17
-5.60382e-18
-2.8108e-18
-1.38121e-18
-5.08106e-19
6.1722e-20
1.40038e-18
8.41026e-18
2.8368e-17
6.36093e-17
1.2137e-16
3.655e-16
1.79593e-15
1.99741e-14
4.49394e-13
2.51028e-12
1.13858e-12
1.13858e-12
-6.11688e-18
-2.60022e-18
-1.12943e-18
-4.9211e-19
-1.01856e-19
4.19817e-19
4.32814e-18
2.39095e-17
9.30349e-17
2.70091e-16
5.72218e-16
1.10922e-15
3.04302e-15
1.49129e-14
1.05994e-13
6.41367e-13
3.10436e-12
1.14134e-12
1.14053e-12
-1.51504e-18
-5.84041e-19
-2.24703e-19
-7.15597e-20
2.23022e-19
4.30419e-18
3.03292e-17
1.48545e-16
5.65697e-16
1.76696e-15
4.95111e-15
1.74792e-14
6.96228e-14
2.72384e-13
7.99367e-13
2.03523e-12
4.20603e-12
1.14192e-12
1.07425e-06
-3.47223e-19
-1.23209e-19
-4.21985e-20
6.45685e-21
9.68748e-19
1.48283e-17
1.37017e-16
7.392e-16
3.32547e-15
1.45667e-14
7.84545e-14
4.19348e-13
1.47648e-12
3.64159e-12
5.259e-12
7.17144e-12
7.36691e-12
1.14569e-12
2.32161e-06
-6.98303e-20
-2.28425e-20
-6.54589e-21
4.55709e-20
1.77158e-18
3.7412e-17
4.89302e-16
3.58975e-15
2.41319e-14
1.57223e-13
1.02911e-12
4.73095e-12
1.28758e-11
2.23922e-11
2.272e-11
2.12715e-11
1.85254e-11
1.14785e-12
2.32166e-06
-1.18732e-20
-3.53987e-21
-4.58698e-22
5.22689e-20
2.56445e-18
6.84808e-17
1.25316e-15
1.50635e-14
1.42002e-13
1.01669e-12
5.65406e-12
2.06672e-11
4.56281e-11
6.22056e-11
6.00106e-11
4.86361e-11
4.85686e-11
1.15065e-12
2.30524e-06
-1.65053e-21
-4.3944e-22
2.36257e-22
5.27115e-20
2.97305e-18
9.23638e-17
2.22046e-15
4.27036e-14
4.57851e-13
3.1022e-12
1.41416e-11
4.3656e-11
8.27772e-11
9.60705e-11
1.0095e-10
9.32083e-11
1.10293e-10
1.1602e-12
2.3052e-06
-1.80536e-22
-4.13735e-23
1.94427e-22
3.80734e-20
3.01856e-18
1.00392e-16
2.85728e-15
7.62872e-14
8.30365e-13
5.2039e-12
2.05711e-11
5.75288e-11
9.82915e-11
1.05862e-10
1.19504e-10
2.30072e-10
2.95172e-10
1.18454e-12
2.30501e-06
-1.47953e-23
-2.59819e-24
7.80796e-23
1.74682e-20
2.16179e-18
9.11235e-17
3.00691e-15
9.43858e-14
1.00811e-12
6.00344e-12
2.2294e-11
5.93304e-11
9.71121e-11
9.15139e-11
1.0683e-10
1.32826e-09
1.50477e-09
1.25648e-12
1.5704e-06
-8.50109e-25
-4.36557e-26
2.86944e-23
6.63927e-21
9.01555e-19
4.45442e-17
2.2532e-15
9.53155e-14
9.99893e-13
5.61367e-12
1.82334e-11
3.63738e-11
6.7728e-11
3.98096e-11
2.37457e-11
4.38764e-09
4.89602e-09
1.63181e-12
3.8495e-07
-3.10469e-26
2.21931e-26
7.07998e-24
2.05421e-21
2.89861e-19
1.33312e-17
7.9128e-16
5.56897e-14
5.4214e-13
2.61951e-12
6.95391e-12
1.09865e-11
2.09834e-11
7.13125e-12
6.36562e-12
6.24469e-09
6.45433e-09
2.9889e-12
5.34453e-07
-6.11247e-28
3.44717e-27
1.05241e-24
4.20392e-22
6.91374e-20
3.01233e-18
1.62472e-16
1.44753e-14
1.32204e-13
5.7991e-13
1.35723e-12
2.06518e-12
3.54981e-12
1.92007e-13
6.2576e-12
4.41057e-09
6.03547e-09
2.02564e-09
8.45117e-07
-4.64552e-30
2.73563e-28
8.26096e-26
4.87954e-23
9.48679e-21
4.47503e-19
2.14147e-17
2.0422e-15
1.75817e-14
7.13002e-14
1.52588e-13
2.28754e-13
3.53283e-13
1.01549e-15
5.33637e-11
6.22128e-10
1.9612e-09
6.16014e-15
8.45082e-07
-6.13424e-33
1.63026e-32
1.46841e-27
2.67759e-24
5.43794e-22
2.89614e-20
1.44679e-18
1.3332e-16
1.07736e-15
4.04008e-15
8.10473e-15
1.20184e-14
1.61003e-14
1.01534e-15
6.30865e-12
1.86368e-17
2.22131e-11
5.29106e-25
8.27148e-07
-3.98526e-38
-3.52556e-40
2.30618e-35
4.0777e-30
9.31189e-27
2.82141e-24
6.31236e-22
5.92371e-20
3.49312e-19
1.1949e-18
2.30882e-18
3.18249e-18
1.35228e-18
3.14053e-20
7.21325e-15
1.85873e-17
3.85186e-37
0
7.44784e-07
)
;

boundaryField
{
    leftWall
    {
        type            zeroGradient;
    }
    rightWall
    {
        type            zeroGradient;
    }
    lowerWall
    {
        type            zeroGradient;
    }
    atmosphere
    {
        type            inletOutlet;
        inletValue      uniform 0;
        value           nonuniform List<scalar> 
46
(
0
3.2416e-11
3.94605e-10
5.15611e-10
3.79396e-10
1.82611e-10
5.08891e-11
6.40028e-12
2.77797e-13
2.67927e-15
3.72547e-18
9.09641e-22
-1.09553e-20
-4.07752e-20
-4.10145e-20
-1.99498e-20
-5.73999e-21
-1.04478e-21
-1.19671e-22
-8.12933e-24
-2.97785e-25
0
0
0
0
0
0
0
0
0
0
0
0
0
0
0
0
0
0
0
0
0
0
0
0
7.44784e-07
)
;
    }
    defaultFaces
    {
        type            empty;
    }
}


// ************************************************************************* //
