/*--------------------------------*- C++ -*----------------------------------*\
  =========                 |
  \\      /  F ield         | OpenFOAM: The Open Source CFD Toolbox
   \\    /   O peration     | Website:  https://openfoam.org
    \\  /    A nd           | Version:  9
     \\/     M anipulation  |
\*---------------------------------------------------------------------------*/
FoamFile
{
    format      ascii;
    class       surfaceScalarField;
    location    "33.85";
    object      phi;
}
// * * * * * * * * * * * * * * * * * * * * * * * * * * * * * * * * * * * * * //

dimensions      [0 3 -1 0 0 0 0];

internalField   nonuniform List<scalar> 
1300
(
11.2529
1.87548
-4.16687
11.2529
-5.00982
1.87548
-4.243
4.243
-1.18749
1.18749
5.7123
5.54056
-2.37765
2.37765
-2.81944
2.81944
-2.86016
2.86016
-1.06194
1.06194
-1.02826
1.02826
0.693114
-0.693114
-3.41927
3.41927
-1.45619
1.45619
-2.90949
2.90949
6.1281
-6.1281
-3.2471
3.2471
-0.743759
0.743759
-4.26321
15.5161
6.98965
6.98965
-2.3711
2.3711
-1.25394
1.25394
1.41034
-1.41034
9.05232
-9.05232
-4.88545
-5.88404
1.91954
-14.0654
-3.09029
-3.09029
-2.7054
2.7054
-0.829928
1.04555
3.47682
-3.47682
-0.757126
0.757126
-4.32838
0.085378
-4.32838
4.02758
0.215422
4.02758
-1.32877
0.14128
-1.32877
4.67826
-4.67826
1.07573
0.111761
1.07573
3.9281
-3.9281
-5.71006
11.4224
5.5428
-5.32064
20.8367
-5.93222
11.4728
-3.89897
3.89897
-2.29474
-0.0829079
-2.29474
2.3793
-0.00164898
2.3793
-4.00165
4.00165
-2.60957
-0.209871
-2.60957
2.9196
-0.100162
2.9196
3.66642
-3.66642
-2.91622
0.0560601
-2.91622
2.70845
0.151705
2.70845
0.771042
1.10443
-2.64652
3.69207
-1.10443
0.0424987
1.02614
0.0357986
1.02614
-1.01453
-0.0137252
-1.01453
1.04984
-0.0215793
1.04984
0.730126
-0.0370126
0.730126
-0.754861
0.0617469
-0.754861
-8.60855
-8.97204
-3.54299
0.123719
-3.54299
-1.47421
0.0180213
-1.47421
1.49234
-0.0361548
1.49234
-2.52517
2.52517
-3.25136
0.341879
-3.25136
4.80635
1.32175
4.80635
5.04612
6.20674
16.299
-16.299
10.1709
-2.96747
-0.279624
-2.96747
-3.41257
-5.63975
3.41257
-0.165468
-0.805498
0.0617394
-0.805498
5.62659
1.36306
5.62659
2.58622
0.122227
-2.58622
0.215123
4.62616
-4.62616
1.42328
0.947821
1.42328
-1.19154
1.19154
1.12336
-0.0735236
-1.12336
-0.130582
1.38601
0.0243318
1.38601
-1.40975
-0.000595736
-1.40975
7.3122
-13.1962
-7.76754
3.22977
0.189499
-3.22977
0.139489
3.56357
-0.0867508
3.56357
-3.30969
3.30969
-3.61099
0.134179
-3.61099
-0.682207
-0.074919
-0.682207
0.842008
-0.0848817
0.842008
-4.57622
0.247842
-4.57622
-3.69134
0.439972
3.69134
0.336245
1.25008
-1.25008
-1.43658
0.107807
-1.43658
-4.65925
0.0830286
4.65925
0.0190064
-4.77221
0.0939489
-4.77221
-3.71253
0.101533
3.71253
0.215575
4.58935
1.03724
-4.58935
0.661247
-5.36948
11.5762
-5.88338
11.4262
-3.51527
-0.3837
-3.51527
4.08982
-0.190849
4.08982
2.57094
0.338549
-2.57094
0.276198
2.50556
-0.126268
2.50556
-3.94444
-0.057217
-3.94444
3.80451
0.197143
3.80451
2.54513
-0.039562
-2.54513
-0.0644456
2.89433
0.0252709
2.89433
3.67241
-0.00598217
3.67241
-3.53944
-0.126986
-3.53944
3.17896
-3.17896
3.08059
0.0983711
-3.08059
0.16437
-5.07402
5.07343
-0.00799943
-5.06602
1.01814
1.01814
0.768937
-0.0388103
0.768937
-0.861791
0.106931
-0.861791
8.34564
-16.1132
8.77811
-17.3867
7.53214
-21.5975
8.11652
-17.0886
3.82712
-3.82712
3.76099
0.0661325
-3.76099
0.217998
-1.45605
-0.0181631
-1.45605
-2.28813
-0.237039
-2.28813
2.85711
-0.331942
2.85711
-3.74209
3.74209
-4.12478
0.382686
4.12478
0.68157
2.95551
-0.0611749
-2.95551
-0.0119643
0.924047
0.151685
-0.924047
0.118549
4.8635
-0.237335
4.8635
-4.08521
-0.540952
-4.08521
-1.47494
0.0188934
1.47494
-0.0516599
-1.25895
0.067403
-1.25895
-5.0745
0.00847758
-5.0387
-1.40127
-1.40127
1.30414
4.9962
-3.58567
0.0462336
3.58567
-0.022106
3.52705
0.215042
-3.52705
0.217361
-3.26327
0.0843118
3.26327
0.0464183
-0.65973
-0.0224771
-0.65973
-1.03472
1.03472
-0.917617
-0.117107
0.917617
-0.0756091
1.40552
-0.155444
1.40552
1.47053
0.0218115
-1.47053
0.0339518
-5.01131
0.239102
-5.01131
4.10034
-0.0105169
4.10034
-3.94907
-0.13614
3.94907
-0.276667
-0.00372296
5.07715
-1.01441
-0.000120147
1.01441
-5.10148
5.10136
-0.665122
0.00539169
0.665122
0.103815
1.02967
0.161873
-1.02967
0.16788
3.84804
-0.0435331
-3.84804
0.0209188
-2.00724
-0.280895
-2.00724
-3.1844
-0.330877
3.1844
-0.327283
-5.11518
-0.0779364
5.19312
-5.13676
1.33688
0.0491256
-1.33688
5.15049
-1.14361
-0.106472
1.14361
-0.108883
1.60378
-0.198252
1.60378
5.12086
-0.257362
-5.12086
0.109553
-4.11797
0.173535
4.11797
-0.0176298
-1.77504
-0.232199
1.77504
-0.171263
-13.1281
14.4911
7.70865
-6.28142
-6.91482
-11.9212
4.4471
7.12912
14.618
-11.8139
-9.78366
-11.6744
2.86006
-2.69218
-3.72727
3.69026
23.5918
-23.4978
-18.3992
19.0808
20.777
-20.5615
5.70885
5.71351
15.8526
-15.9356
-20.8967
20.513
15.3904
-15.6002
22.0484
-22.1056
-25.8112
25.7677
-16.0928
16.1489
-20.2944
20.1674
-21.0577
20.7811
-8.3535
-9.03316
16.5137
-16.3899
20.0032
-20.2828
-19.3848
19.7266
10.0475
4.44359
11.0848
-6.24673
11.9556
-5.22605
12.9347
8.29345
-16.647
7.81972
-14.7345
9.04711
10.9561
-8.88164
-3.03953
-17.9699
17.8832
-17.257
17.3034
24.1243
-24.0389
-6.17283
11.8863
-5.25335
12.3825
-11.409
-6.99019
10.0872
4.53073
8.99049
7.52316
-9.17999
-2.4944
-24.7988
24.5414
-25.6599
25.119
0.100182
2.42593
-2.52611
1.35413
-0.862695
3.28863
1.99736
2.10429
2.45271
-2.29084
0.239462
-2.76558
-2.89616
-5.3404
5.4482
5.15706
-5.0453
16.5468
7.04496
16.5658
-16.7496
-6.7482
-16.5105
11.3637
7.71706
11.7464
12.0617
8.71534
12.1632
10.359
-10.3317
-0.0273069
-11.4777
21.8367
1.55464
-18.4678
-13.9371
8.84773
7.00492
8.84608
-9.89277
-6.04279
-9.61657
-11.0137
-9.88302
-11.3446
12.3172
8.19581
12.1263
-15.3138
15.2962
9.27624
6.11412
9.17608
-8.96478
-6.63546
-9.02922
27.4811
-6.67747
-20.8036
-13.1791
-12.6322
12.9819
9.06649
14.3365
11.4312
14.3575
8.9139
18.5672
-17.9804
5.34823
-9.94703
-6.14579
-9.78266
9.25804
6.89085
9.40974
-11.7668
-8.52762
-11.7206
-11.987
-9.07077
11.9929
8.17449
-12.5344
-13.1255
12.6706
8.11051
7.83984
-17.6235
9.24873
-18.2819
-10.9625
-5.42747
-10.7445
10.7848
6.68445
-17.4692
-5.86216
23.6362
-12.6801
20.5967
-10.902
-9.38087
-10.9139
-14.8047
-4.58001
-14.3648
-7.98893
7.70804
-8.82056
8.48862
26.8761
-16.2216
-10.6545
-12.3784
-8.18309
11.7171
-0.632344
-12.8358
12.8085
-0.880182
12.0545
16.4981
15.8658
-10.8802
-6.37674
-10.6629
10.2702
7.03322
10.3545
16.1059
8.01831
16.3214
-16.8179
-7.22101
-16.57
4.84092
-4.91584
5.7136
-5.69471
15.5795
9.5395
-15.3421
-9.45667
22.9305
-10.775
-12.1555
-5.11964
5.21409
-0.0944462
-1.83102
-0.47689
0.266869
-1.93095
-1.79632
1.86921
0.235088
5.44918
3.65286
-2.41437
2.48177
2.77875
2.70523
-0.190933
2.4987
-2.49331
18.9017
-11.432
-7.4698
13.9704
-13.8873
-2.59966
-19.3274
16.7277
2.67846
3.0033
-2.94156
-3.94838
-1.39201
-3.91443
2.95193
2.20513
3.10362
2.10715
3.34106
-8.1033
1.56296
6.54034
-5.99616
-3.48234
-13.3462
-6.26627
19.6125
16.6789
7.86256
-16.7884
0.277941
5.29302
-5.32918
-1.59833
-11.7479
8.34792
-9.94626
-15.217
-6.46092
21.6779
-9.58077
-1.08208
9.36573
2.38065
-10.8773
-7.09265
10.7431
1.42012
-12.0645
23.9707
-11.9062
-18.4413
8.51577
13.3209
16.2328
-17.8628
9.31888
8.54388
-4.54188
7.43152
1.41456
7.30525
-19.9306
13.8878
11.3251
8.40156
-11.6636
2.04705
-17.8835
25.172
-22.2876
-2.88431
12.8228
12.3491
13.5481
13.328
-7.78476
21.3328
-3.61776
-18.6699
21.5013
-13.0997
15.7824
-28.8821
-29.1104
10.4405
-17.9548
22.0729
-4.11811
-5.20459
-10.1092
23.1594
-2.00657
-21.1528
10.1198
-13.9282
-11.8557
25.7839
-20.6057
18.4911
-6.2689
-12.2222
-12.6632
-9.44242
12.4897
2.80654
-25.8731
31.2213
-7.30592
7.80687
1.36921
7.83214
10.6091
-15.9757
5.36659
9.99655
-16.2654
6.76341
-22.7391
-12.1577
24.1922
-12.0345
-17.5851
-15.7943
-1.79088
4.87467
26.3466
-16.3058
12.1152
4.19067
8.46173
1.89274
-8.5601
-1.22256
0.968051
16.0864
-17.0545
10.3778
10.5
11.7044
4.38205
10.7702
7.11295
-10.7481
-0.972417
-14.7928
5.722
-6.61829
-14.5742
20.2962
-16.2679
1.69368
-10.3032
-13.9906
24.2938
-16.449
11.4255
12.5453
18.4587
-19.615
5.62439
-9.74633
-9.86865
10.6435
-17.2618
7.49833
12.7979
15.6088
2.48334
12.7465
11.4456
-19.431
1.1491
18.9688
-16.4744
3.88818
10.4693
-16.0033
0.209068
-10.5354
2.66481
-15.345
-14.8044
16.5297
-21.1098
-12.3524
13.5681
2.75327
-13.9043
-0.460429
-4.95392
-3.03502
-5.18611
-3.27642
-5.54414
-11.0612
-1.92686
-9.13431
5.78118
-6.68625
-4.65831
7.01353
1.47509
-4.93528
4.8288
-5.57997
5.38171
-0.210165
13.0186
15.6556
7.4725
-8.47674
15.9492
-15.6086
23.6269
-29.725
14.1165
15.9488
-23.1698
-13.7763
2.70106
2.13987
2.61618
13.4472
-14.4141
0.966912
-13.2785
17.5975
-4.31896
-19.5799
6.30131
-6.1327
5.18667
0.526931
5.16851
1.41638
6.84596
-8.26234
-4.27833
-4.32999
-9.16326
-13.8594
23.0227
4.7354
-13.1051
8.36969
-12.0624
16.7978
0.0785091
-13.1836
16.9847
-10.1387
17.5116
-11.9839
5.52767
12.7918
22.3469
-9.55507
16.2482
-6.70866
7.06791
-16.623
-6.79149
-11.2883
18.1791
-13.0055
14.6992
-1.12466
15.8239
-13.7772
3.00221
-2.07285
8.42717
8.6423
16.8088
-12.4267
11.9697
-18.6783
-4.6533
-16.195
-3.39715
1.01859
-13.8254
12.8068
12.0436
-11.025
-3.24217
8.98403
-5.74185
5.68179
-2.84828
-2.83351
-1.84638
-3.06946
1.86886
0.629844
6.31164
0.489166
-3.33745
-2.00414
-1.90033
10.3744
8.52738
-3.8318
3.73735
3.56493
-0.561636
0.958722
2.1449
4.58713
-3.6284
0.678111
3.90901
-2.26345
3.82771
1.46531
-3.84952
-0.0649125
-3.40813
11.7561
3.13221
-5.33734
1.70894
2.38215
-13.8141
19.7414
-11.4154
-8.32604
22.1236
3.06355
-14.4789
16.2638
-13.5853
8.10349
-14.3698
-6.37544
-19.9608
-12.9158
-10.7095
19.0792
-12.3132
20.1757
3.86216
-20.4537
24.3158
-12.7398
6.27887
-9.44308
10.9084
-4.05806
-5.38502
11.2656
10.4123
-11.0535
-0.694385
0.212076
8.41923
-8.20716
-1.52702
-7.52318
-16.4089
17.829
-8.25569
17.5746
7.69356
-7.63403
25.2086
6.56495
-14.199
-11.8763
-12.9584
-5.6551
10.5777
-1.79585
-7.23338
-14.0181
7.27294
0.0323143
-19.0796
22.0732
-2.99366
-12.0747
-1.81311
14.6359
-18.1014
1.836
-11.338
10.7352
12.1498
12.1821
-20.8418
-0.310955
-12.646
3.17678
-15.8228
15.5259
-6.80296
17.2435
-16.005
11.3467
-14.5299
14.3592
-1.46363
14.7486
-9.382
6.05499
-15.4974
-12.6909
14.4739
-8.35982
15.8431
-10.1181
25.9613
-17.4241
14.4075
11.5538
-2.71312
-8.2008
-13.9777
11.2646
0.429837
8.26198
17.8373
-10.7244
16.8649
8.92448
-18.6708
-8.33728
-25.8596
7.18881
-13.3144
-7.35658
14.5454
11.1021
12.9948
4.67675
-11.7723
17.7854
-19.5763
-5.75094
-9.05349
14.5807
-3.31618
10.1451
-19.1986
-5.19987
13.1092
-0.192717
-12.9165
3.11238
-15.4648
5.13094
-20.5957
15.9788
-16.4392
1.76937
-7.90207
-3.16591
-3.27479
-2.17169
-3.40828
-7.56639
5.3947
-1.26509
3.56372
-12.5207
12.3279
-5.07684
10.4715
-4.05751
-1.12861
4.22877
1.15294
11.6245
3.02508
-16.8014
-9.25449
14.624
-5.3695
1.11988
-10.8003
3.82364
8.09966
14.0239
-24.8273
1.65759
-15.1438
-4.06958
6.20945
4.91445
16.958
2.54395
6.55187
-0.342427
9.09583
2.27375
2.19814
-11.217
12.1839
1.58983
15.7063
-1.88295
7.41062
3.28556
3.30358
2.0256
5.72247
2.91982
8.72468
0.462343
-3.86764
2.06782
-3.96815
-1.26963
-4.00696
-0.316702
3.72514
-4.04184
10.4959
-1.96853
5.12641
-1.88162
-4.93332
6.81494
-9.35142
-5.49495
-1.58594
-5.6062
7.31514
6.14985
-5.7292
-3.62222
2.39089
-15.3067
11.9789
-12.6733
-2.26093
22.0549
-9.46139
1.25423
-3.18252
-6.26895
-7.66096
7.72587
24.1899
1.01868
12.2837
18.8477
11.755
1.03067
11.9876
-16.1058
-10.7515
-16.4167
-0.890817
13.7451
5.61449
20.7321
17.1682
13.8521
-5.3465
-24.9228
20.7184
-8.53445
16.3994
-3.48293
-17.1128
14.6489
8.97797
-17.4022
0.962923
-16.1498
-24.6843
-0.344423
12.6724
-11.2801
10.1515
7.11643
2.01788
-2.42548
-0.849304
2.54259
-0.344451
8.75138
-0.188816
-8.19479
8.3836
-3.53632
2.26669
-0.429232
4.16659
6.38571
4.41718
-3.77761
-7.81945
-8.81644
-4.99766
-17.1425
2.47003
-8.61988
5.68085
-3.41416
2.84734
4.96945
10.0959
-1.60167
-9.42331
7.34352
-4.49619
5.59967
)
;

boundaryField
{
    wall-4
    {
        type            calculated;
        value           uniform 0;
    }
    velocity-inlet-5
    {
        type            calculated;
        value           uniform -11.2529;
    }
    velocity-inlet-6
    {
        type            calculated;
        value           uniform -1.87548;
    }
    pressure-outlet-7
    {
        type            calculated;
        value           nonuniform List<scalar> 8(4.16687 5.00982 10.7695 12.1459 17.5806 15.0797 17.1237 15.6487);
    }
    wall-8
    {
        type            calculated;
        value           uniform 0;
    }
    frontAndBackPlanes
    {
        type            empty;
        value           nonuniform List<scalar> 0();
    }
}


// ************************************************************************* //
