/*--------------------------------*- C++ -*----------------------------------*\
  =========                 |
  \\      /  F ield         | OpenFOAM: The Open Source CFD Toolbox
   \\    /   O peration     | Website:  https://openfoam.org
    \\  /    A nd           | Version:  9
     \\/     M anipulation  |
\*---------------------------------------------------------------------------*/
FoamFile
{
    format      ascii;
    class       volScalarField;
    location    "4.89";
    object      nut;
}
// * * * * * * * * * * * * * * * * * * * * * * * * * * * * * * * * * * * * * //

dimensions      [0 2 -1 0 0 0 0];

internalField   nonuniform List<scalar> 
2268
(
1.66623e-05
1.90005e-05
2.28034e-05
2.53452e-05
2.72328e-05
2.87136e-05
2.99216e-05
3.09386e-05
3.18163e-05
3.25885e-05
3.32806e-05
3.38938e-05
3.44264e-05
3.48701e-05
3.51818e-05
3.52143e-05
3.44954e-05
3.28104e-05
3.08711e-05
2.95713e-05
2.7951e-05
2.44696e-05
1.47753e-05
3.79537e-05
0.000149089
0.000198842
0.000230366
0.00025334
0.000271277
0.000286021
0.000298697
0.000309918
0.00031984
0.000328264
0.000335318
0.000341069
0.000345231
0.000347137
0.000345342
0.000336819
0.000310607
0.000284968
0.000273017
0.000258723
0.000196002
4.94869e-05
4.50372e-05
0.000250838
0.000362364
0.000433955
0.000486272
0.000527254
0.000560983
0.000589865
0.000615231
0.000637548
0.00065669
0.000672709
0.000685543
0.000694584
0.000698511
0.000694561
0.000676888
0.00063342
0.000585984
0.000548054
0.000487553
0.000335632
5.90069e-05
5.02291e-05
0.000323638
0.00049231
0.00060324
0.000684927
0.000749142
0.000801977
0.000846999
0.000886203
0.000920428
0.000949779
0.000974253
0.000993564
0.0010068
0.00101214
0.001006
0.000981498
0.000928329
0.00086396
0.000794159
0.000679247
0.000444024
6.67601e-05
5.4293e-05
0.000379015
0.000597873
0.000745318
0.00085485
0.000941267
0.00101236
0.00107268
0.00112485
0.00117006
0.0012087
0.00124075
0.00126574
0.00128252
0.00128894
0.00128102
0.00125197
0.00119304
0.00111485
0.00101438
0.000846983
0.000534095
7.44147e-05
5.76531e-05
0.000423286
0.000685736
0.000866428
0.00100185
0.00110909
0.00119732
0.00127196
0.00133615
0.00139146
0.00143853
0.00147737
0.0015074
0.00152733
0.00153482
0.00152582
0.00149405
0.00143171
0.00134265
0.00121636
0.00100298
0.000616835
8.25361e-05
6.05473e-05
0.000460035
0.000760443
0.000971198
0.00113047
0.00125706
0.00136125
0.00144919
0.00152451
0.00158912
0.00164388
0.00168888
0.00172351
0.00174638
0.00175516
0.00174592
0.00171288
0.00164894
0.00155249
0.00140735
0.00115837
0.000704509
9.29267e-05
6.31427e-05
0.000491405
0.00082518
0.00106313
0.0012443
0.00138876
0.00150771
0.00160795
0.00169355
0.00176674
0.00182857
0.00187924
0.00191815
0.00194393
0.00195434
0.00194569
0.00191272
0.00184884
0.00174887
0.00159353
0.00132594
0.000821827
0.000111506
1.36363e-05
2.45392e-05
2.87367e-05
3.0503e-05
3.11829e-05
3.13118e-05
3.12082e-05
3.11319e-05
3.13395e-05
3.13407e-05
2.97949e-05
2.7777e-05
2.55582e-05
2.733e-05
3.01667e-05
2.97308e-05
2.74127e-05
2.3431e-05
2.77596e-05
4.99667e-05
0.000191654
0.000257431
0.000288587
0.000301454
0.00030509
0.000304546
0.000303328
0.000300931
0.000293184
0.000270862
0.000229238
0.000195027
0.000227597
0.000261788
0.000249575
0.00021049
0.000141729
5.76033e-05
6.10962e-05
0.000316123
0.000475897
0.000561125
0.000600196
0.00061375
0.000615031
0.000611487
0.00060451
0.00058616
0.000539582
0.000468068
0.000417978
0.000462922
0.000497559
0.000464888
0.000381286
0.000249458
6.27359e-05
7.02967e-05
0.000398182
0.000642136
0.000785831
0.000857358
0.00088571
0.000891579
0.000886514
0.000873931
0.000845246
0.00078291
0.000698425
0.000645437
0.000679117
0.00069173
0.000631714
0.000507027
0.000322552
6.55166e-05
7.91099e-05
0.000460598
0.00077655
0.000974576
0.00107838
0.00112291
0.00113476
0.00112905
0.00111075
0.00107315
0.00100246
0.000914309
0.000858984
0.000869656
0.000850675
0.000759285
0.000595569
0.000365242
6.66118e-05
8.89989e-05
0.000516066
0.000897469
0.00114202
0.00127362
0.0013328
0.00135045
0.0013443
0.00132083
0.00127596
0.00120135
0.00111288
0.00105158
0.00103382
0.000981772
0.000857081
0.000654839
0.000382584
6.61012e-05
0.000101732
0.000577938
0.00102016
0.00129984
0.00145179
0.00152211
0.00154422
0.00153732
0.00150944
0.00145875
0.00138172
0.00129276
0.00122204
0.00117513
0.00109079
0.000932331
0.000691315
0.00037736
6.40355e-05
0.000120178
0.000672219
0.00115898
0.00145638
0.00161911
0.00169601
0.00172061
0.0017124
0.00168046
0.00162497
0.00154546
0.00145429
0.00137175
0.00129721
0.00118228
0.000990485
0.000710755
0.000352964
6.20345e-05
6.67097e-05
0.000533564
0.000913626
0.00119035
0.00140333
0.00157399
0.0017146
0.00183283
0.00193346
0.00201917
0.00209134
0.00215029
0.00219555
0.00222596
0.00223957
0.00223327
0.00220253
0.00214116
0.00204149
0.00188485
0.00163008
0.0012146
0.00062726
7.06685e-05
0.000578371
0.00100901
0.00132958
0.00157872
0.00177884
0.0019434
0.00208138
0.00219877
0.00229893
0.00238339
0.00245259
0.00250636
0.00254395
0.00256394
0.00256397
0.00254044
0.00248874
0.00240282
0.00227103
0.00207281
0.00178277
0.00139486
7.40554e-05
0.000609299
0.00108651
0.00144692
0.00172779
0.00195258
0.00213599
0.00228929
0.00242055
0.00253348
0.00262927
0.00270832
0.00277076
0.00281641
0.00284437
0.00285283
0.0028389
0.00280009
0.00273313
0.00263261
0.00249109
0.00230371
0.00208182
7.75714e-05
0.000627095
0.0011551
0.0015521
0.00185984
0.00210424
0.00230097
0.00246519
0.0026087
0.00273377
0.00284055
0.00292932
0.00300055
0.00305472
0.00309168
0.00310993
0.00310586
0.0030797
0.00303038
0.00295664
0.00285747
0.00273561
0.00260581
8.3176e-05
0.000679248
0.00123331
0.00164807
0.00196257
0.0022199
0.00243098
0.00260954
0.0027676
0.00290663
0.00302589
0.00312488
0.00320459
0.0032669
0.00331286
0.0033409
0.00334697
0.00333234
0.0032977
0.00324314
0.00317064
0.00308482
0.00299794
8.44594e-05
0.000679553
0.00123101
0.00164928
0.00198287
0.0022677
0.00251035
0.00271383
0.00289299
0.00305009
0.00318477
0.00329636
0.00338585
0.00345636
0.00351082
0.00354846
0.00356181
0.0035557
0.00353055
0.00348787
0.00343263
0.00336689
0.0033041
7.99153e-05
0.000647752
0.00119835
0.00163344
0.00198911
0.00229804
0.00256811
0.00279913
0.00299993
0.00317381
0.00332173
0.00344439
0.0035429
0.00361975
0.00367771
0.00371842
0.00374137
0.00374303
0.00372718
0.00369548
0.00365362
0.00360953
0.00357039
7.84107e-05
0.000601947
0.00117362
0.00163082
0.00201362
0.00234723
0.00263534
0.00288375
0.00309961
0.00328574
0.00344364
0.00357464
0.00368018
0.00376272
0.0038246
0.00386935
0.00389932
0.00391213
0.00390888
0.00389148
0.00386451
0.0038348
0.00380385
7.90245e-05
0.00061773
0.00118792
0.00165872
0.00205908
0.0024073
0.00270739
0.00296741
0.00319345
0.00338866
0.00355482
0.00369352
0.00380644
0.00389592
0.00396427
0.00401523
0.00405167
0.00407406
0.00408211
0.00407691
0.00406098
0.00403874
0.00401103
8.01588e-05
0.000649971
0.0012273
0.00170923
0.00212027
0.00247675
0.00278461
0.00305203
0.00328482
0.00348657
0.00365941
0.00380506
0.00392532
0.00402204
0.00409787
0.00415621
0.00419978
0.00422981
0.0042465
0.00425039
0.00424281
0.00422614
0.00420283
8.14586e-05
0.000680306
0.00127513
0.00177022
0.00219052
0.00255231
0.00286531
0.00313772
0.0033754
0.0035821
0.0037603
0.00391192
0.00403863
0.00414242
0.00422589
0.00429187
0.00434276
0.00437991
0.00440379
0.0044148
0.00441387
0.00440273
0.00438353
8.28711e-05
0.000708212
0.00132355
0.00183322
0.00226243
0.0026298
0.00294734
0.00322381
0.00346536
0.00367611
0.00385879
0.0040155
0.00414813
0.00425872
0.00434953
0.00442294
0.00448096
0.00452488
0.00455529
0.00457261
0.00457758
0.00457151
0.00455615
8.43814e-05
0.000731953
0.00136741
0.00189212
0.00233155
0.00270581
0.0030285
0.00330917
0.00355447
0.00376893
0.00395568
0.00411711
0.00425529
0.00437221
0.00446988
0.00455027
0.00461504
0.00466535
0.00470184
0.00472499
0.00473541
0.00473415
0.00472262
8.58872e-05
0.000749443
0.00140457
0.00194475
0.00239543
0.00277782
0.00310664
0.0033922
0.00364169
0.0038601
0.004051
0.00421709
0.00436057
0.00448342
0.00458744
0.00467431
0.0047454
0.00480174
0.00484395
0.00487258
0.00488818
0.00489159
0.00488397
8.71685e-05
0.000762941
0.00143561
0.00199069
0.00245298
0.00284432
0.00318016
0.00347141
0.00372576
0.00394866
0.00414407
0.00431496
0.00446367
0.00459217
0.00470214
0.00479505
0.00487208
0.00493411
0.00498177
0.00501563
0.00503621
0.00504422
0.00504057
8.82002e-05
0.000773584
0.00146145
0.00203029
0.00250399
0.00290461
0.00324808
0.00354571
0.00380561
0.00403362
0.00423399
0.00440994
0.00456392
0.00469792
0.00481356
0.00491217
0.0049948
0.00506226
0.00511515
0.00515404
0.00517944
0.00519197
0.00519231
8.9018e-05
0.000781841
0.00148275
0.00206405
0.00254863
0.00295855
0.00330997
0.0036145
0.00388054
0.00411418
0.00431995
0.00450122
0.00466056
0.0048
0.00492111
0.00502515
0.00511312
0.00518577
0.00524367
0.00528742
0.00531749
0.0053344
0.00533871
8.96291e-05
0.000787978
0.00149997
0.00209246
0.00258726
0.0030063
0.00336581
0.00367756
0.00395014
0.00418984
0.00440133
0.00458814
0.00475292
0.00489773
0.00502414
0.00513339
0.00522644
0.00530403
0.00536675
0.00541514
0.00544969
0.00547085
0.00547905
9.00473e-05
0.000792225
0.00151354
0.00211602
0.00262035
0.0030482
0.00341578
0.00373491
0.00401427
0.00426028
0.00447771
0.00467018
0.00484041
0.00499049
0.00512202
0.00523624
0.0053341
0.00541636
0.00548362
0.00553641
0.00557522
0.00560043
0.0056124
9.02833e-05
0.000794818
0.00152386
0.00213521
0.00264837
0.00308467
0.00346018
0.00378669
0.00407293
0.00432534
0.00454879
0.00474692
0.00492251
0.00507769
0.00521409
0.00533298
0.00543533
0.00552193
0.00559342
0.00565032
0.00569311
0.00572215
0.00573774
9.03482e-05
0.000795977
0.00153132
0.00215048
0.00267179
0.00311612
0.00349932
0.00383312
0.00412616
0.00438494
0.00461431
0.00481795
0.0049987
0.00515872
0.00529967
0.00542286
0.00552932
0.00561988
0.00569522
0.00575589
0.00580235
0.00583497
0.00585399
9.02445e-05
0.000795891
0.00153626
0.0021623
0.00269108
0.00314296
0.00353354
0.00387437
0.00417403
0.00443895
0.00467401
0.0048829
0.00506848
0.00523295
0.00537804
0.0055051
0.00561524
0.00570933
0.00578811
0.00585217
0.00590199
0.00593793
0.00596021
8.99854e-05
0.000794728
0.00153905
0.00217108
0.00270667
0.00316559
0.00356312
0.0039106
0.00421653
0.00448725
0.00472762
0.00494135
0.00513132
0.00529978
0.00544851
0.00557896
0.00569229
0.00578946
0.00587127
0.00593835
0.00599123
0.00603026
0.00605568
8.95923e-05
0.000792704
0.00154004
0.00217725
0.00271895
0.00318432
0.00358827
0.00394193
0.00425363
0.00452966
0.00477485
0.00499289
0.00518671
0.00535862
0.00551046
0.00564378
0.00575982
0.00585963
0.00594408
0.00601388
0.00606958
0.00611156
0.00614004
8.90817e-05
0.000790032
0.00153958
0.00218118
0.00272828
0.00319943
0.00360916
0.00396837
0.00428524
0.00456599
0.00481538
0.00503715
0.00523423
0.00540901
0.00556343
0.00569911
0.00581742
0.00591949
0.00600629
0.00607859
0.00613698
0.00618188
0.0062135
8.84688e-05
0.000786892
0.00153795
0.00218318
0.0027349
0.00321106
0.00362584
0.00398989
0.00431124
0.00459602
0.00484897
0.00507383
0.00527359
0.00545069
0.00560719
0.00574482
0.00586504
0.00596912
0.00605811
0.00613285
0.00619399
0.00624194
0.00627691
8.77669e-05
0.000783428
0.00153537
0.00218341
0.0027389
0.00321924
0.00363824
0.00400634
0.00433144
0.00461957
0.00487545
0.00510282
0.00530472
0.0054837
0.0056419
0.00578117
0.00590313
0.00600913
0.00610034
0.00617767
0.00624181
0.00629316
0.0063319
8.69801e-05
0.000779719
0.00153187
0.00218185
0.0027402
0.00322379
0.00364616
0.00401754
0.00434568
0.00463654
0.0048948
0.00512421
0.00532787
0.00550841
0.0056681
0.00580893
0.00593264
0.00604073
0.00613445
0.00621479
0.00628243
0.00633777
0.00638092
8.60824e-05
0.000775635
0.0015272
0.00217817
0.00273839
0.00322433
0.00364925
0.0040232
0.0043538
0.00464693
0.0049072
0.00513838
0.00534362
0.00552563
0.00568683
0.00582937
0.00595513
0.00606575
0.00616257
0.00624664
0.0063186
0.00637876
0.00642717
8.50526e-05
0.000770549
0.00152049
0.00217156
0.00273276
0.00322023
0.00364701
0.00402302
0.00435574
0.00465091
0.0049131
0.00514604
0.00535292
0.00553658
0.00569958
0.00584425
0.00597267
0.0060866
0.00618747
0.00627632
0.00635371
0.00641982
0.00647453
8.40496e-05
0.000762139
0.00151006
0.00216072
0.00272225
0.00321062
0.00363886
0.00401673
0.00435154
0.00464889
0.00491321
0.00514819
0.00535707
0.00554282
0.00570818
0.00585573
0.00598775
0.00610614
0.0062124
0.00630747
0.00639175
0.00646519
0.00652742
8.30527e-05
0.000752008
0.00149616
0.00214521
0.00270613
0.00319486
0.00362437
0.00400424
0.0043415
0.0046415
0.0049085
0.00514611
0.00535762
0.00554615
0.00571471
0.00586618
0.0060031
0.00612754
0.00624095
0.00634411
0.00643709
0.00651946
0.00659054
8.20272e-05
0.0007413
0.00147913
0.00212443
0.0026835
0.00317218
0.00360317
0.00398563
0.00432617
0.00462972
0.00490028
0.00514134
0.00535628
0.00554846
0.00572128
0.00587801
0.00602155
0.00615407
0.00627693
0.00639052
0.00649435
0.00658746
0.00666873
8.09581e-05
0.000729624
0.00145801
0.00209696
0.00265293
0.00314152
0.00357478
0.00396107
0.00430623
0.00461461
0.00488986
0.00513538
0.00535467
0.00555149
0.0057298
0.00589346
0.00604577
0.00618903
0.00632424
0.0064511
0.00656831
0.00667409
0.00676679
7.97966e-05
0.000715491
0.00143034
0.00206014
0.00261219
0.00310145
0.00353865
0.00393073
0.0042824
0.00459725
0.00487849
0.00512949
0.00535405
0.00555656
0.00574178
0.00591441
0.00607827
0.00623565
0.00638686
0.00653048
0.00666392
0.0067843
0.00688937
7.84512e-05
0.000696746
0.00139212
0.0020097
0.00255795
0.00305005
0.00349411
0.00389488
0.0042555
0.00457865
0.00486719
0.00512459
0.00535523
0.00556444
0.0057582
0.00594233
0.0061213
0.00629717
0.00646905
0.00663369
0.00678654
0.00692326
0.00704105
7.67708e-05
0.000669604
0.00133594
0.00193835
0.00248516
0.00298474
0.00344049
0.00385392
0.00422638
0.00455973
0.00485669
0.00512116
0.00535845
0.00557532
0.00577945
0.00597817
0.00617677
0.00637683
0.00657549
0.00676653
0.00694232
0.00709661
0.0072264
7.45573e-05
0.000624304
0.00124612
0.00183336
0.00238653
0.00290263
0.00337746
0.00380866
0.00419607
0.00454129
0.0048474
0.0051192
0.00536341
0.00558877
0.00580519
0.00602207
0.00624582
0.00647746
0.00671131
0.00693614
0.00713892
0.00731088
0.0074501
7.30726e-05
0.000529627
0.00108994
0.00167467
0.00225343
0.00280188
0.0033061
0.00376085
0.00416602
0.00452414
0.00483952
0.00511839
0.00536939
0.00560369
0.00583401
0.00607248
0.00632744
0.00660007
0.0068816
0.00715231
0.00738686
0.00757409
0.00771692
9.51627e-05
0.000332436
0.000824459
0.00144229
0.00208193
0.00268549
0.00323079
0.00371402
0.00413837
0.00450925
0.00483314
0.00511823
0.00537533
0.00561826
0.00586292
0.00612491
0.00641611
0.00674072
0.00708988
0.00743153
0.00770243
0.00789622
0.00803101
0.000195275
0.000157342
0.000485667
0.00114965
0.00188844
0.0025684
0.00316196
0.0036743
0.00411624
0.00449785
0.00482845
0.00511823
0.00538003
0.00563005
0.00588716
0.00617078
0.0064984
0.00688365
0.00733194
0.00781197
0.00811323
0.0082883
0.00839389
0.000413324
0.000146396
0.000251045
0.000894662
0.0017336
0.00248526
0.00311748
0.00365027
0.00410343
0.00449142
0.00482579
0.00511813
0.00538253
0.00563662
0.00590114
0.00619836
0.00655146
0.00698929
0.0075654
0.00841041
0.00866207
0.00875524
0.00879929
0.000124573
0.000114828
0.000111877
0.000115058
0.00106783
0.00100045
0.000983432
0.00100842
0.00193071
0.00186881
0.00184082
0.00184573
0.00252224
0.00248048
0.00245385
0.00244406
0.00295018
0.00292475
0.00290149
0.00288479
0.00327433
0.00325634
0.00323944
0.00322489
0.0035438
0.00352918
0.00351519
0.00350019
0.00377863
0.00376269
0.00374749
0.00373427
0.00398836
0.00397369
0.00395954
0.00394675
0.00418241
0.00416879
0.00415491
0.00414129
0.00436493
0.004352
0.00433822
0.00432377
0.00453928
0.00452702
0.00451342
0.00449857
0.00470762
0.0046962
0.00468304
0.0046682
0.00487105
0.00486067
0.00484823
0.00483376
0.00502992
0.00502076
0.00500927
0.00499546
0.00518406
0.00517624
0.00516587
0.00515296
0.00533295
0.00532656
0.00531744
0.00530561
0.0054758
0.00547089
0.00546312
0.00545248
0.00561165
0.00560825
0.00560187
0.00559252
0.00573944
0.00573754
0.00573259
0.00572458
0.00585809
0.00585768
0.00585417
0.00584754
0.00596664
0.0059677
0.00596564
0.00596044
0.0060644
0.00606694
0.00606635
0.00606261
0.00615109
0.00615514
0.00615609
0.0061539
0.00622697
0.00623264
0.00623523
0.00623472
0.00629303
0.00630047
0.00630488
0.00630624
0.00635103
0.00636047
0.00636695
0.00637043
0.00640352
0.00641528
0.00642413
0.00643004
0.00645385
0.00646829
0.00647989
0.00648858
0.006506
0.00652355
0.00653829
0.00655013
0.00656442
0.00658553
0.00660379
0.00661914
0.00663382
0.00665889
0.00668102
0.00670015
0.00671894
0.00674828
0.00677451
0.00679758
0.00682437
0.00685812
0.0068885
0.00691545
0.00695439
0.00699246
0.00702674
0.00705724
0.007113
0.00715488
0.00719244
0.00722579
0.00730387
0.0073485
0.00738818
0.00742318
0.00753035
0.00757589
0.00761585
0.0076507
0.00779526
0.00783881
0.00787634
0.00790857
0.00810011
0.00813749
0.00816899
0.00819553
0.00844342
0.00846934
0.00849063
0.00850819
0.0088177
0.00882698
0.00883441
0.00884043
0.000471464
0.000984437
0.0014183
0.00170564
0.00187004
0.00195075
0.00197626
0.00196504
0.00192676
0.00186445
0.00178022
0.00168234
0.00157902
0.00146268
0.00130008
0.00106183
0.000733598
0.000334128
5.92763e-05
0.00122199
0.00155044
0.00184598
0.00206103
0.00219312
0.00225915
0.00227587
0.00225619
0.00220822
0.0021358
0.00204128
0.00192801
0.00179685
0.00163831
0.00143199
0.00115757
0.000805263
0.000393215
6.0277e-05
0.00191514
0.00208537
0.00226378
0.00240664
0.00249685
0.00254036
0.0025432
0.0025125
0.00245369
0.00236973
0.00226237
0.00213201
0.00197614
0.00178737
0.00155406
0.00126251
0.000906104
0.000487397
6.71092e-05
0.00245715
0.00253529
0.0026357
0.00272423
0.0027756
0.0027971
0.00278427
0.00274063
0.00267007
0.0025739
0.00245337
0.00230736
0.00213156
0.00192036
0.00167044
0.00137276
0.00101349
0.000575206
7.70656e-05
0.00287175
0.00290587
0.00295774
0.00300439
0.00302651
0.00303122
0.00300002
0.00293971
0.00285635
0.00274894
0.00261686
0.00245962
0.00227197
0.00204667
0.0017878
0.00149206
0.00113639
0.000669216
9.14294e-05
0.00320751
0.00321983
0.00323876
0.00324856
0.00324767
0.0032299
0.0031822
0.00310804
0.00301146
0.00289133
0.00274626
0.00257504
0.00237422
0.00214015
0.00187179
0.00156078
0.00118295
0.000688824
9.29968e-05
0.0034832
0.00348108
0.00347965
0.0034695
0.00344377
0.00340569
0.00334346
0.00325664
0.00314761
0.00301472
0.00285645
0.00267156
0.00245801
0.00221369
0.00193298
0.00159745
0.0011786
0.000629891
8.69789e-05
0.00371824
0.00370375
0.00368656
0.00366047
0.00361837
0.00356144
0.00348603
0.00339019
0.00326996
0.00312465
0.00295319
0.00275472
0.00252831
0.00227157
0.00197664
0.0016233
0.00118621
0.000627195
8.49389e-05
0.00392792
0.00390274
0.00387203
0.00383081
0.00377464
0.00370353
0.00361716
0.003512
0.00338184
0.0032239
0.00303807
0.00282426
0.00258281
0.00231133
0.00200007
0.00163189
0.00118499
0.000641485
8.57205e-05
0.00411894
0.00408528
0.00404423
0.00399161
0.00392423
0.00384171
0.00374432
0.00362868
0.00348717
0.00331519
0.00311356
0.00288328
0.00262492
0.00233427
0.00200202
0.00161531
0.00116047
0.000628851
8.34848e-05
0.00429865
0.00425844
0.00420955
0.00414852
0.00407249
0.00398049
0.00387258
0.00374566
0.00359134
0.00340511
0.00318743
0.00293891
0.00265978
0.00234517
0.00198618
0.00157373
0.00110589
0.000587591
7.92856e-05
0.00447177
0.00442688
0.0043722
0.00430469
0.0042216
0.00412156
0.00400406
0.00386585
0.00369911
0.00349984
0.00326776
0.00300202
0.00270025
0.00235688
0.0019644
0.00151677
0.00101847
0.00050343
7.48194e-05
0.00464067
0.00459274
0.0045338
0.00446123
0.00437232
0.00426547
0.00413957
0.00399119
0.00381392
0.00360417
0.0033603
0.00307938
0.00275688
0.002387
0.00196319
0.00148081
0.000951024
0.00043948
7.09093e-05
0.00480628
0.00475666
0.00469475
0.00461829
0.00452476
0.00441234
0.00427953
0.00412303
0.00393767
0.00372
0.00346691
0.00317399
0.0028361
0.00244799
0.00200484
0.00150397
0.000960155
0.000443545
7.34184e-05
0.00496862
0.00491843
0.00485467
0.00477545
0.00467848
0.00456187
0.00442382
0.00426129
0.00407005
0.00384648
0.00358671
0.00328596
0.00293943
0.00254321
0.00209407
0.00159116
0.00104551
0.000502931
7.95248e-05
0.00512725
0.00507736
0.00501276
0.00493184
0.0048326
0.00471312
0.00457142
0.00440469
0.00420931
0.00398159
0.00371749
0.00341252
0.00306258
0.00266469
0.00221697
0.00171898
0.00117383
0.000593134
8.56744e-05
0.00528137
0.0052325
0.00516795
0.00508631
0.00498583
0.00486462
0.00472062
0.00455118
0.00435305
0.00412262
0.00385596
0.00354894
0.00319786
0.00279998
0.00235333
0.00185606
0.00130437
0.000688845
9.09999e-05
0.00542999
0.00538271
0.00531896
0.00523747
0.00513664
0.00501466
0.00486944
0.00469847
0.00449868
0.00426657
0.00399836
0.00369004
0.00333783
0.00293833
0.00248807
0.00198193
0.00140852
0.000742983
9.52917e-05
0.00557198
0.00552676
0.00546441
0.00538378
0.00528338
0.00516144
0.00501591
0.0048443
0.00464367
0.00441058
0.00414124
0.0038315
0.00347705
0.00307327
0.00261458
0.00209237
0.00149005
0.000784709
9.75785e-05
0.00570613
0.00566333
0.0056029
0.00552374
0.00542444
0.00530327
0.00515816
0.00498668
0.00478584
0.00455223
0.00428189
0.00397033
0.00361239
0.00320206
0.00273161
0.0021899
0.00155897
0.000818493
9.90345e-05
0.0058313
0.00579123
0.00573316
0.00565601
0.00555841
0.00543865
0.00529465
0.0051239
0.00492344
0.00468971
0.00441852
0.00410482
0.00374257
0.00332428
0.00284026
0.00227748
0.00161826
0.000845652
0.000100279
0.00594651
0.00590946
0.00585416
0.00577953
0.0056842
0.00556644
0.00542414
0.00525478
0.00505527
0.00482189
0.00455009
0.00423431
0.00386754
0.00344089
0.00294278
0.00235812
0.00166847
0.000862133
0.000101828
0.00605113
0.00601739
0.00596526
0.00589365
0.00580115
0.005686
0.00554606
0.0053787
0.00518074
0.00494823
0.00467631
0.00435884
0.00398799
0.00355359
0.00304225
0.00243661
0.00171637
0.000873877
0.000103802
0.00614503
0.00611495
0.00606644
0.00599836
0.00590927
0.00579736
0.00566041
0.0054957
0.0052999
0.00506888
0.00479744
0.00447893
0.00410493
0.00366422
0.00314193
0.00251847
0.00177145
0.000894901
0.00010639
0.00622871
0.00620273
0.00615835
0.00609438
0.0060093
0.00590126
0.00576794
0.00560652
0.00541349
0.00518458
0.00491431
0.00459568
0.00421961
0.00377416
0.00324355
0.00260719
0.00183981
0.000934869
0.000109735
0.00630343
0.00628208
0.00624241
0.00618316
0.00610275
0.00599922
0.00587016
0.0057127
0.00552319
0.0052971
0.00502871
0.00471068
0.00433345
0.00388448
0.00334716
0.00269996
0.00191745
0.000987762
0.000113689
0.00637125
0.00635515
0.00632084
0.00626698
0.00619188
0.00609356
0.00596951
0.0058167
0.00563134
0.00540871
0.00514281
0.00482599
0.00444826
0.00399646
0.00345307
0.00279507
0.00199444
0.00103445
0.000118273
0.00643502
0.00642489
0.00639662
0.00634883
0.00627978
0.00618736
0.006069
0.00592152
0.00574094
0.00552234
0.00525946
0.00494428
0.00456639
0.00411199
0.00356254
0.00289317
0.00207242
0.00107812
0.000122957
0.00649828
0.00649486
0.00647336
0.00643233
0.00636998
0.00628414
0.00617213
0.00603063
0.00585548
0.00564149
0.00538208
0.00506885
0.00469089
0.00423372
0.00367777
0.00299626
0.00215423
0.00112397
0.000127557
0.00656513
0.00656914
0.00655504
0.00652135
0.00646629
0.00638764
0.00628264
0.0061478
0.00597876
0.00577
0.00551456
0.00520354
0.00482544
0.00436505
0.00380172
0.00310687
0.00224214
0.00117391
0.000132193
0.00663997
0.00665197
0.00664573
0.00661984
0.00657253
0.0065016
0.00640421
0.00627675
0.00611459
0.00591184
0.00566102
0.00535259
0.0049743
0.00451004
0.00393803
0.00322798
0.00233823
0.00122888
0.000137247
0.00672719
0.00674751
0.00674935
0.00673145
0.00669217
0.00662937
0.00654019
0.00642088
0.00626653
0.0060708
0.00582558
0.00552047
0.00514218
0.00467343
0.00409111
0.00336321
0.002445
0.00129018
0.000142898
0.00683096
0.00685956
0.00686934
0.00685933
0.00682813
0.00677372
0.0066933
0.00658298
0.00643759
0.00625028
0.00601213
0.00571165
0.00533412
0.0048606
0.00426624
0.00351712
0.00256575
0.00135992
0.000148993
0.00695496
0.00699129
0.00700844
0.00700586
0.00698251
0.00693659
0.0068654
0.00676501
0.00662998
0.00645294
0.00622404
0.00593041
0.0055554
0.00507771
0.00446987
0.0036955
0.00270452
0.00143972
0.000155927
0.0071022
0.00714513
0.00716857
0.00717257
0.00715653
0.00711898
0.00705741
0.00696793
0.00684492
0.00668051
0.00646391
0.00618059
0.00581145
0.00533176
0.00471006
0.00390612
0.00286681
0.00153128
0.000164533
0.00727491
0.00732263
0.00735075
0.00736005
0.00735047
0.00732095
0.00726925
0.00719164
0.00708249
0.00693358
0.00673325
0.00646529
0.00610758
0.00563077
0.0049972
0.00415999
0.00306131
0.00163874
0.000175195
0.00747446
0.0075244
0.00755506
0.00756801
0.00756376
0.00754169
0.00749992
0.00743503
0.00734158
0.00721136
0.00703218
0.00678636
0.00644859
0.0059837
0.00534483
0.00447344
0.00330217
0.00176898
0.000188222
0.00770128
0.00775016
0.00778077
0.00779543
0.00779513
0.00777968
0.00774762
0.00769602
0.00761993
0.00751157
0.00735893
0.00714362
0.00683776
0.00639982
0.00577047
0.00487141
0.00361392
0.00193369
0.000204404
0.00795474
0.00799868
0.0080264
0.00804067
0.0080428
0.00803294
0.00801007
0.00797186
0.0079142
0.00783036
0.00770945
0.00753391
0.00727515
0.00688683
0.0062955
0.00539255
0.00404319
0.00215869
0.00022564
0.00823296
0.00826787
0.00828991
0.00830177
0.00830481
0.00829933
0.00828474
0.00825941
0.00822034
0.00816245
0.00807714
0.00794979
0.0077548
0.00744633
0.00694149
0.00609501
0.0046846
0.00251814
0.000253585
0.00853256
0.00855483
0.00856886
0.00857667
0.00857924
0.00857688
0.0085693
0.00855562
0.00853409
0.00850169
0.00845312
0.00837894
0.00826145
0.00806548
0.00771702
0.00705378
0.0057321
0.00323188
0.000292193
0.00884868
0.00885612
0.00886082
0.00886351
0.00886455
0.00886405
0.00886196
0.00885802
0.00885171
0.0088421
0.00882757
0.00880511
0.00876881
0.00870593
0.00858492
0.00831349
0.00757094
0.00519644
0.000343846
)
;

boundaryField
{
    leftWall
    {
        type            nutkWallFunction;
        Cmu             0.09;
        kappa           0.41;
        E               9.8;
        value           nonuniform List<scalar> 
50
(
3.04263e-06
4.58079e-06
5.45991e-06
6.09365e-06
6.58431e-06
6.98678e-06
7.33127e-06
7.6381e-06
8.05933e-06
8.52269e-06
8.92143e-06
9.01697e-06
8.61808e-06
8.42032e-06
5.92455e-06
1.42036e-06
1.52409e-06
1.70635e-06
1.91558e-06
2.14421e-06
2.38656e-06
2.63114e-06
2.84014e-06
3.00818e-06
3.14027e-06
3.23917e-06
3.30599e-06
3.34341e-06
3.35322e-06
3.33372e-06
3.29058e-06
3.22654e-06
3.14347e-06
3.0438e-06
2.9296e-06
2.80148e-06
2.65515e-06
2.48728e-06
2.32408e-06
2.16128e-06
1.99365e-06
1.8188e-06
1.62867e-06
1.40815e-06
1.13219e-06
7.6756e-07
5.22282e-07
4.10242e-06
1.91392e-05
4.87533e-05
)
;
    }
    rightWall
    {
        type            nutkWallFunction;
        Cmu             0.09;
        kappa           0.41;
        E               9.8;
        value           nonuniform List<scalar> 
50
(
5.64627e-06
6.98499e-06
7.5932e-06
7.91917e-06
8.045e-06
7.9806e-06
7.73427e-06
7.4972e-06
7.17225e-06
7.29534e-06
8.09985e-06
9.18313e-06
8.36995e-06
8.63671e-06
7.15287e-06
3.72067e-06
2.61229e-06
2.24405e-06
1.56645e-06
8.33816e-07
3.49661e-07
7.65562e-07
1.76683e-06
2.7647e-06
3.54326e-06
4.13666e-06
4.5026e-06
4.73363e-06
4.92999e-06
5.17242e-06
5.48269e-06
5.97427e-06
6.53644e-06
7.14772e-06
7.85266e-06
8.57139e-06
9.23268e-06
9.90651e-06
1.06803e-05
1.15217e-05
1.2378e-05
1.34086e-05
1.4704e-05
1.62694e-05
1.81572e-05
2.0476e-05
2.34808e-05
2.73822e-05
3.26801e-05
3.96225e-05
)
;
    }
    lowerWall
    {
        type            nutkWallFunction;
        Cmu             0.09;
        kappa           0.41;
        E               9.8;
        value           nonuniform List<scalar> 
62
(
1.16251e-06
2.10963e-06
2.62401e-06
2.96149e-06
3.2093e-06
3.40221e-06
3.55864e-06
3.68959e-06
3.80203e-06
3.90059e-06
3.98875e-06
4.06668e-06
4.13414e-06
4.19016e-06
4.22939e-06
4.23336e-06
4.14222e-06
3.92643e-06
3.6781e-06
3.51261e-06
3.30265e-06
2.8462e-06
1.52206e-06
1.52206e-06
6.00406e-06
7.14849e-06
8.0629e-06
8.95264e-06
9.88992e-06
1.10758e-05
1.3159e-05
1.46009e-05
1.35371e-05
1.32145e-05
1.35637e-05
1.3534e-06
6.06567e-06
7.40401e-06
8.48888e-06
9.51435e-06
1.06523e-05
1.20978e-05
1.41466e-05
1.3534e-06
2.85538e-06
3.40512e-06
3.6334e-06
3.72087e-06
3.73745e-06
3.72395e-06
3.71422e-06
3.74069e-06
3.74048e-06
3.5424e-06
3.28149e-06
2.9917e-06
3.22125e-06
3.58736e-06
3.53252e-06
3.23337e-06
2.71035e-06
2.21923e-06
)
;
    }
    atmosphere
    {
        type            calculated;
        value           nonuniform List<scalar> 
46
(
0.009
0.000146396
0.000251045
0.000894662
0.0017336
0.00248526
0.00311748
0.00365027
0.00410343
0.00449142
0.00482579
0.00511813
0.00538253
0.00563662
0.00590114
0.00619836
0.00655146
0.00698929
0.0075654
0.009
0.009
0.009
0.009
0.009
0.009
0.009
0.009
0.009
0.009
0.009
0.009
0.009
0.009
0.009
0.009
0.009
0.009
0.009
0.009
0.009
0.009
0.009
0.009
0.009
0.009
0.000343846
)
;
    }
    defaultFaces
    {
        type            empty;
    }
}


// ************************************************************************* //
