/*--------------------------------*- C++ -*----------------------------------*\
  =========                 |
  \\      /  F ield         | OpenFOAM: The Open Source CFD Toolbox
   \\    /   O peration     | Website:  https://openfoam.org
    \\  /    A nd           | Version:  9
     \\/     M anipulation  |
\*---------------------------------------------------------------------------*/
FoamFile
{
    format      ascii;
    class       volScalarField;
    location    "1.87";
    object      p;
}
// * * * * * * * * * * * * * * * * * * * * * * * * * * * * * * * * * * * * * //

dimensions      [1 -1 -2 0 0 0 0];

internalField   nonuniform List<scalar> 
2268
(
711.071
711.153
712.036
713.343
714.841
716.466
718.167
719.903
721.631
723.305
724.886
726.345
727.672
728.878
730.01
731.146
732.401
733.913
735.598
738.382
742.166
745.154
747.167
652.261
652.146
652.831
654.036
655.492
657.12
658.852
660.634
662.417
664.152
665.797
667.329
668.746
670.075
671.383
672.778
674.407
676.724
679.733
682.379
684.587
686.002
688.04
593.322
593.35
593.786
594.84
596.202
597.795
599.531
601.344
603.175
604.966
606.678
608.288
609.8
611.255
612.735
614.37
616.318
619.118
622.985
625.457
626.491
626.598
629.073
534.27
534.473
534.818
535.736
537.013
538.561
540.288
542.121
543.99
545.831
547.6
549.274
550.863
552.404
553.984
555.742
557.823
560.633
564.595
567.041
567.493
567.202
570.494
475.121
475.487
475.826
476.655
477.872
479.387
481.108
482.962
484.87
486.759
488.577
490.304
491.943
493.525
495.126
496.877
498.901
501.458
504.852
507.13
507.49
508.052
512.494
415.876
416.364
416.744
417.533
418.721
420.223
421.953
423.837
425.793
427.734
429.602
431.372
433.045
434.636
436.197
437.843
439.667
441.831
444.462
446.223
446.625
448.553
454.66
356.54
357.108
357.55
358.338
359.528
361.041
362.794
364.72
366.735
368.736
370.653
372.46
374.155
375.728
377.203
378.679
380.183
381.865
383.725
384.79
384.72
387.896
395.957
297.131
297.744
298.246
299.058
300.279
301.818
303.599
305.573
307.655
309.72
311.674
313.503
315.202
316.722
318.039
319.267
320.317
321.442
322.494
322.573
321.253
323.807
341.475
640.643
640.495
658.81
675.261
686.642
693.934
697.895
701.024
709.02
723.698
742.62
761.387
777.632
791.016
800.934
810.481
818.205
823.077
828.467
581.447
577.668
594.184
610.124
622.392
631.196
638.006
643.019
651.926
667.489
686.516
704.778
720.953
735.397
746.075
754.912
762.485
765.922
771.145
520.914
516.989
532.672
547.204
559.609
569.545
578.703
588.362
598.61
613.767
630.555
648.087
664.213
679.347
690.807
699.583
706.46
708.9
714.383
460.22
458.328
473.886
487.362
499.352
509.758
519.904
532.186
545.533
560.802
575.123
591.25
607.262
622.764
635.103
643.861
649.802
651.667
657.868
400.183
402.133
416.98
429.364
440.638
451.217
461.931
474.481
490.973
507.136
521.704
534.665
550.14
565.592
578.775
587.997
593.201
595.492
603.441
340.002
347.734
361.291
372.197
382.566
393.214
404.373
416.471
434.452
452.173
466.52
478.019
492.864
508.045
521.724
532.303
539.57
542.798
551.916
276.326
294.634
306.674
315.368
324.597
335.397
347.223
358.423
375.494
394.702
409.437
420.914
435.433
450.354
464.359
476.933
488.524
492.23
501.602
205.432
240.397
250.966
257.368
265.509
276.951
290.931
301.647
318.318
335.626
351.104
363.974
377.981
392.548
407.112
422.124
434.942
439.379
449.186
204.224
204.772
205.304
206.186
207.513
209.141
210.989
213.06
215.283
217.464
219.464
221.302
222.992
224.383
225.304
225.782
226.13
226.331
226.126
224.348
220.138
214.166
205.666
81.9476
82.5026
83.0543
84.0876
85.5725
87.2586
89.0641
91.0619
93.2701
95.4551
97.3803
99.1235
100.767
102.083
102.727
102.574
101.875
100.676
98.7142
95.7625
91.297
84.6812
76.6895
11.64
11.9096
12.1307
12.5383
13.246
14.2741
15.389
16.3791
17.3361
18.4407
19.6056
20.6074
21.3115
22.0053
23.0418
23.8749
24.0531
23.4388
22.1394
20.3379
18.1029
15.2581
12.7901
-0.538056
-0.478181
-0.419757
-0.486193
-0.479001
-0.175483
0.207987
0.318493
0.156845
0.149419
0.421255
0.616923
0.441562
0.308979
1.02733
2.03236
2.44896
2.05499
1.17263
0.393457
-0.0233643
0.11931
1.52907
-0.643526
-0.646952
-0.622359
-0.582947
-0.509033
-0.374552
-0.231234
-0.0310932
0.0893138
0.148699
0.224737
0.315188
0.420503
0.582371
0.906198
1.2366
1.65098
1.86115
1.74488
1.55275
1.50899
1.70032
2.22528
-0.869186
-0.910025
-0.912435
-0.869096
-0.810894
-0.779511
-0.74793
-0.606602
-0.360781
-0.234966
-0.247964
-0.274383
-0.249858
-0.176903
0.0130228
0.120855
0.311706
0.480483
0.512527
0.364314
0.328875
0.773191
1.46251
-1.08561
-1.13414
-1.14694
-1.14221
-1.13613
-1.17055
-1.1737
-1.13102
-1.01279
-0.882413
-0.846713
-0.892393
-0.9765
-0.988905
-0.962022
-0.778955
-0.643524
-0.591652
-0.68988
-0.838845
-0.80704
-0.497983
0.0194339
-1.26103
-1.2896
-1.29544
-1.30959
-1.32994
-1.35078
-1.35651
-1.36711
-1.38968
-1.37394
-1.34287
-1.35546
-1.37847
-1.36819
-1.39275
-1.38115
-1.31463
-1.29138
-1.31276
-1.268
-1.22538
-1.181
-1.11914
-1.41366
-1.42766
-1.43324
-1.44726
-1.46427
-1.48167
-1.49389
-1.50847
-1.52761
-1.54562
-1.55924
-1.5544
-1.53013
-1.50871
-1.51465
-1.51367
-1.51045
-1.50482
-1.47601
-1.43811
-1.41643
-1.4353
-1.47962
-1.55754
-1.56288
-1.56959
-1.5816
-1.5949
-1.60874
-1.62104
-1.63461
-1.64986
-1.66244
-1.66874
-1.66532
-1.6531
-1.64163
-1.6411
-1.63998
-1.63554
-1.62481
-1.60347
-1.57931
-1.56757
-1.57863
-1.60169
-1.69789
-1.70018
-1.70599
-1.71538
-1.72583
-1.73682
-1.74749
-1.75851
-1.76968
-1.77858
-1.78289
-1.78135
-1.77532
-1.76934
-1.76656
-1.76298
-1.75697
-1.74701
-1.73286
-1.72009
-1.71451
-1.71993
-1.73305
-1.83579
-1.83688
-1.84132
-1.8483
-1.85641
-1.86518
-1.87398
-1.88274
-1.891
-1.89747
-1.90098
-1.90092
-1.89811
-1.89462
-1.89152
-1.88737
-1.88155
-1.87373
-1.86455
-1.85705
-1.85395
-1.85655
-1.86283
-1.97123
-1.97188
-1.97507
-1.98015
-1.98637
-1.99328
-2.00035
-2.00731
-2.01367
-2.01868
-2.02169
-2.02241
-2.02124
-2.01909
-2.01643
-2.01279
-2.00798
-2.00214
-1.996
-1.99118
-1.98907
-1.99012
-1.9931
-2.1047
-2.10514
-2.10735
-2.11104
-2.11575
-2.1211
-2.12669
-2.13219
-2.13722
-2.14126
-2.1439
-2.14499
-2.14469
-2.14341
-2.1414
-2.13855
-2.13488
-2.13064
-2.12641
-2.12313
-2.12151
-2.12173
-2.12301
-2.23669
-2.23698
-2.23844
-2.24109
-2.24462
-2.24871
-2.25307
-2.2574
-2.2614
-2.26471
-2.26704
-2.26828
-2.26848
-2.26782
-2.26645
-2.26438
-2.26172
-2.25872
-2.2558
-2.25351
-2.25225
-2.25209
-2.25261
-2.3675
-2.36765
-2.36856
-2.3704
-2.37299
-2.37609
-2.37946
-2.38286
-2.38605
-2.38878
-2.39083
-2.3921
-2.39259
-2.39238
-2.39155
-2.39017
-2.38834
-2.38629
-2.3843
-2.38273
-2.38181
-2.38159
-2.38188
-2.49732
-2.49736
-2.49782
-2.49905
-2.50091
-2.50322
-2.50581
-2.50848
-2.51104
-2.51329
-2.51509
-2.51633
-2.51699
-2.5171
-2.51671
-2.51589
-2.51473
-2.51341
-2.51212
-2.5111
-2.51051
-2.51039
-2.5107
-2.6263
-2.62624
-2.62634
-2.62709
-2.62839
-2.63011
-2.63209
-2.63419
-2.63625
-2.63812
-2.63969
-2.64088
-2.64164
-2.64198
-2.64194
-2.64156
-2.64093
-2.64017
-2.63943
-2.63886
-2.63858
-2.63864
-2.63906
-2.75457
-2.7544
-2.7542
-2.75458
-2.75547
-2.75673
-2.75825
-2.75992
-2.7616
-2.76318
-2.76456
-2.76569
-2.76651
-2.76702
-2.76725
-2.76722
-2.767
-2.76668
-2.76637
-2.76617
-2.76618
-2.76645
-2.76702
-2.88223
-2.88192
-2.88147
-2.88158
-2.88216
-2.88309
-2.88428
-2.88562
-2.88702
-2.88838
-2.88963
-2.8907
-2.89156
-2.8922
-2.89263
-2.89288
-2.89298
-2.89301
-2.89304
-2.89315
-2.89342
-2.8939
-2.89464
-3.00936
-3.00887
-3.00822
-3.00814
-3.00851
-3.00921
-3.01017
-3.01128
-3.01248
-3.01368
-3.01483
-3.01586
-3.01676
-3.0175
-3.01809
-3.01855
-3.0189
-3.01921
-3.01951
-3.01989
-3.02038
-3.02105
-3.02194
-3.13608
-3.13533
-3.13454
-3.13433
-3.13456
-3.13512
-3.13592
-3.13689
-3.13795
-3.13905
-3.14013
-3.14115
-3.14208
-3.1429
-3.14362
-3.14424
-3.1448
-3.14532
-3.14585
-3.14643
-3.14711
-3.14794
-3.14896
-3.26248
-3.26145
-3.26054
-3.26025
-3.26041
-3.26087
-3.26158
-3.26246
-3.26344
-3.26448
-3.26552
-3.26653
-3.26749
-3.26838
-3.2692
-3.26996
-3.27067
-3.27137
-3.27207
-3.27282
-3.27366
-3.27462
-3.27573
-3.38869
-3.38737
-3.38639
-3.38603
-3.38614
-3.38655
-3.3872
-3.38803
-3.38896
-3.38996
-3.39099
-3.39201
-3.393
-3.39394
-3.39485
-3.39571
-3.39654
-3.39736
-3.3982
-3.39909
-3.40004
-3.4011
-3.4023
-3.51485
-3.51328
-3.51222
-3.51181
-3.51187
-3.51224
-3.51286
-3.51365
-3.51455
-3.51554
-3.51655
-3.51758
-3.51859
-3.51958
-3.52055
-3.52149
-3.52241
-3.52333
-3.52427
-3.52525
-3.5263
-3.52744
-3.52869
-3.64105
-3.63931
-3.63818
-3.6377
-3.63769
-3.63803
-3.63861
-3.63937
-3.64026
-3.64122
-3.64223
-3.64326
-3.64429
-3.64531
-3.64631
-3.6473
-3.64829
-3.64928
-3.65029
-3.65134
-3.65245
-3.65364
-3.65493
-3.76735
-3.76554
-3.76434
-3.76377
-3.7637
-3.76399
-3.76453
-3.76525
-3.76611
-3.76705
-3.76804
-3.76906
-3.77009
-3.77112
-3.77215
-3.77317
-3.77419
-3.77523
-3.77628
-3.77737
-3.77852
-3.77974
-3.78104
-3.89377
-3.89197
-3.89071
-3.89006
-3.88992
-3.89015
-3.89063
-3.89131
-3.89212
-3.89303
-3.89399
-3.89499
-3.89601
-3.89703
-3.89806
-3.89909
-3.90013
-3.90118
-3.90225
-3.90336
-3.90453
-3.90575
-3.90705
-4.0203
-4.01855
-4.01727
-4.01656
-4.01635
-4.01651
-4.01694
-4.01756
-4.01831
-4.01917
-4.02009
-4.02105
-4.02204
-4.02303
-4.02404
-4.02506
-4.02609
-4.02714
-4.02822
-4.02933
-4.03048
-4.03169
-4.03297
-4.14692
-4.14524
-4.14397
-4.14322
-4.14296
-4.14306
-4.14342
-4.14397
-4.14467
-4.14546
-4.14632
-4.14723
-4.14817
-4.14913
-4.15011
-4.15109
-4.1521
-4.15313
-4.15418
-4.15527
-4.1564
-4.15758
-4.15882
-4.27361
-4.27202
-4.27078
-4.27002
-4.26972
-4.26976
-4.27006
-4.27054
-4.27116
-4.27188
-4.27268
-4.27352
-4.2744
-4.27531
-4.27623
-4.27718
-4.27814
-4.27913
-4.28014
-4.28119
-4.28229
-4.28343
-4.28462
-4.40035
-4.39885
-4.39765
-4.3969
-4.39658
-4.39657
-4.39681
-4.39722
-4.39777
-4.39841
-4.39913
-4.39991
-4.40072
-4.40156
-4.40242
-4.40331
-4.40422
-4.40515
-4.40611
-4.40711
-4.40815
-4.40923
-4.41037
-4.52711
-4.52571
-4.52457
-4.52384
-4.52351
-4.52346
-4.52364
-4.52399
-4.52446
-4.52503
-4.52567
-4.52636
-4.52709
-4.52786
-4.52865
-4.52947
-4.53032
-4.53119
-4.53209
-4.53302
-4.53399
-4.53501
-4.53607
-4.65388
-4.65259
-4.65152
-4.65082
-4.65048
-4.65041
-4.65054
-4.65082
-4.65121
-4.6517
-4.65225
-4.65286
-4.65352
-4.65421
-4.65492
-4.65567
-4.65644
-4.65724
-4.65806
-4.65893
-4.65982
-4.66076
-4.66174
-4.78063
-4.77946
-4.77848
-4.77783
-4.7775
-4.7774
-4.77748
-4.7777
-4.77801
-4.77841
-4.77888
-4.7794
-4.77997
-4.78058
-4.78122
-4.78188
-4.78258
-4.78329
-4.78404
-4.78482
-4.78564
-4.78649
-4.78738
-4.90735
-4.90633
-4.90545
-4.90485
-4.90453
-4.90442
-4.90445
-4.9046
-4.90484
-4.90514
-4.90551
-4.90594
-4.90643
-4.90696
-4.90752
-4.90811
-4.90872
-4.90936
-4.91002
-4.91071
-4.91144
-4.91219
-4.91299
-5.03404
-5.03317
-5.0324
-5.03188
-5.03158
-5.03145
-5.03144
-5.03152
-5.03167
-5.03187
-5.03214
-5.03248
-5.03289
-5.03335
-5.03383
-5.03434
-5.03487
-5.03542
-5.036
-5.0366
-5.03723
-5.03789
-5.03858
-5.16068
-5.15997
-5.15934
-5.15889
-5.15862
-5.15848
-5.15843
-5.15844
-5.15848
-5.15857
-5.15872
-5.15897
-5.15933
-5.15972
-5.16014
-5.16058
-5.16103
-5.16149
-5.16198
-5.16248
-5.16301
-5.16357
-5.16415
-5.28725
-5.28672
-5.28623
-5.28586
-5.28562
-5.28548
-5.28539
-5.28532
-5.28527
-5.28523
-5.28523
-5.2854
-5.28573
-5.28609
-5.28645
-5.28681
-5.28718
-5.28756
-5.28796
-5.28837
-5.2888
-5.28925
-5.28972
-5.41372
-5.41339
-5.41304
-5.41276
-5.41258
-5.41244
-5.41231
-5.41217
-5.41201
-5.41179
-5.41157
-5.41168
-5.41208
-5.41244
-5.41275
-5.41305
-5.41334
-5.41363
-5.41393
-5.41425
-5.41457
-5.41492
-5.41527
-5.54007
-5.53994
-5.53977
-5.53964
-5.53953
-5.53941
-5.53924
-5.53902
-5.53869
-5.53816
-5.53743
-5.53753
-5.53832
-5.53879
-5.53906
-5.53928
-5.53949
-5.5397
-5.53991
-5.54012
-5.54035
-5.54058
-5.54082
-5.66628
-5.66632
-5.66636
-5.66638
-5.66635
-5.66626
-5.6661
-5.66583
-5.66541
-5.66462
-5.66316
-5.6629
-5.66467
-5.66531
-5.66555
-5.6657
-5.66581
-5.66592
-5.66603
-5.66614
-5.66626
-5.66637
-5.66648
186.331
180.007
176.253
169.931
64.3321
56.842
51.9414
48.6295
10.7986
8.94082
6.4314
5.04075
3.3132
4.54126
5.30374
5.39293
2.73789
3.14456
3.6804
4.17651
1.52289
1.77956
2.29621
2.65454
0.293415
0.474348
0.648861
0.647846
-0.553484
-0.340139
-0.350538
-0.604796
-1.45317
-1.41456
-1.41061
-1.42775
-1.60627
-1.60873
-1.60652
-1.60103
-1.73556
-1.73615
-1.73412
-1.73161
-1.86496
-1.86516
-1.86384
-1.86238
-1.9943
-1.99432
-1.99371
-1.99306
-2.12347
-2.12359
-2.12353
-2.12345
-2.25297
-2.25318
-2.25339
-2.25365
-2.38225
-2.38257
-2.38294
-2.3834
-2.51115
-2.51154
-2.51204
-2.51262
-2.63961
-2.64009
-2.64067
-2.64134
-2.76768
-2.76823
-2.76888
-2.7696
-2.89539
-2.89599
-2.89669
-2.89746
-3.02278
-3.02342
-3.02416
-3.02495
-3.14987
-3.15055
-3.15131
-3.15211
-3.2767
-3.2774
-3.27817
-3.27898
-3.4033
-3.40402
-3.40479
-3.40559
-3.52971
-3.53043
-3.5312
-3.53199
-3.65596
-3.65667
-3.65743
-3.65821
-3.78207
-3.78277
-3.78351
-3.78427
-3.90806
-3.90875
-3.90947
-3.9102
-4.03396
-4.03463
-4.03532
-4.03603
-4.15978
-4.16042
-4.16109
-4.16176
-4.28554
-4.28615
-4.28678
-4.28742
-4.41124
-4.41181
-4.4124
-4.413
-4.53688
-4.53742
-4.53797
-4.53853
-4.66249
-4.66298
-4.66349
-4.66401
-4.78806
-4.78851
-4.78897
-4.78943
-4.91359
-4.91399
-4.9144
-4.91482
-5.0391
-5.03945
-5.03981
-5.04017
-5.1646
-5.16489
-5.16519
-5.16549
-5.29007
-5.29031
-5.29055
-5.2908
-5.41554
-5.41572
-5.4159
-5.41608
-5.54099
-5.5411
-5.54122
-5.54134
-5.66655
-5.66659
-5.66664
-5.66669
146.582
151.125
157.665
165.167
175.612
191.497
210.662
232.239
251.859
267.693
281.266
294.686
306.883
319.03
328.936
338.943
349.879
352.124
361.278
42.0222
34.8802
38.6357
52.796
73.7655
98.1912
119.359
142.397
163.423
180.15
194.377
208.704
222.3
233.007
237.378
239.321
245.114
238.002
242.217
5.27925
6.13387
7.90868
14.9337
26.8388
40.0037
51.8742
62.8402
74.302
86.9799
101.61
117.701
135.199
149.595
156.242
155.614
161.135
152.686
158.374
5.20199
5.26311
5.62582
6.46227
9.75213
12.9032
15.2276
17.6545
21.4859
26.7998
33.3992
42.0231
55.0584
71.3409
83.0146
87.065
97.2723
98.8327
101.753
4.6795
4.91934
5.08652
5.11024
4.55194
3.80023
5.22085
6.11149
7.12917
8.48903
8.73898
8.22059
11.6746
20.54
30.5631
36.3499
45.3702
51.4258
52.492
3.10262
3.86257
3.85712
2.73036
2.12297
1.99351
1.94374
1.81018
2.00615
2.73443
3.14705
2.61452
2.87221
4.738
7.60627
10.218
13.0178
15.6409
16.5809
0.528435
1.03012
1.47937
1.3232
1.21591
0.958095
0.673348
0.531571
0.379211
0.453125
0.770551
1.2547
1.43077
1.62021
2.16781
2.14005
1.53267
0.993983
2.05563
-0.967195
-1.02492
-0.792384
-0.195001
0.0222029
0.0738404
-0.0681384
-0.194052
-0.255652
-0.0831341
0.138874
0.379205
0.50059
0.356302
0.0585023
-0.28295
-0.507146
-0.598787
-0.538874
-1.46849
-1.50975
-1.51962
-1.40076
-1.2051
-0.994171
-0.992377
-1.03588
-0.985375
-0.85965
-0.715633
-0.597055
-0.523229
-0.611545
-0.867258
-1.33102
-1.61639
-1.65035
-1.60798
-1.59179
-1.58032
-1.57336
-1.5933
-1.62628
-1.63009
-1.62335
-1.57703
-1.52669
-1.53178
-1.49487
-1.46285
-1.47034
-1.47758
-1.56573
-1.74544
-1.85232
-1.88394
-1.86556
-1.72772
-1.72236
-1.71914
-1.71977
-1.72989
-1.7377
-1.74779
-1.75249
-1.76329
-1.80412
-1.83747
-1.87811
-1.91368
-1.93208
-1.96344
-1.96281
-1.97474
-1.98834
-1.98149
-1.86088
-1.85947
-1.85975
-1.86257
-1.87011
-1.87757
-1.88417
-1.89052
-1.90251
-1.92951
-1.95308
-1.97789
-2.00192
-2.02655
-2.04961
-2.06956
-2.07877
-2.08838
-2.08837
-1.99246
-1.99225
-1.99376
-1.99767
-2.00415
-2.01098
-2.01838
-2.02681
-2.03957
-2.06053
-2.08252
-2.10541
-2.12671
-2.14507
-2.16124
-2.17526
-2.18415
-2.19197
-2.19445
-2.12361
-2.12421
-2.12621
-2.13001
-2.13587
-2.14271
-2.15076
-2.16044
-2.1735
-2.19229
-2.2138
-2.2327
-2.24802
-2.26157
-2.27516
-2.28652
-2.29433
-2.30017
-2.30203
-2.25434
-2.25567
-2.258
-2.26169
-2.26704
-2.27376
-2.2818
-2.29157
-2.30411
-2.32056
-2.33783
-2.35201
-2.36365
-2.37558
-2.38808
-2.39838
-2.40493
-2.40857
-2.41031
-2.38441
-2.3863
-2.38896
-2.39266
-2.39766
-2.40395
-2.41154
-2.42067
-2.43177
-2.44462
-2.4578
-2.46971
-2.48018
-2.49021
-2.50001
-2.50853
-2.51382
-2.51632
-2.51953
-2.51379
-2.51596
-2.51894
-2.52273
-2.52746
-2.5332
-2.54018
-2.54839
-2.55787
-2.56837
-2.57908
-2.58902
-2.59796
-2.60627
-2.61392
-2.62023
-2.62443
-2.62725
-2.63098
-2.6426
-2.64485
-2.6479
-2.65173
-2.65619
-2.66156
-2.66794
-2.67528
-2.68348
-2.6923
-2.70118
-2.70954
-2.71715
-2.72408
-2.73022
-2.7352
-2.73868
-2.74124
-2.74434
-2.77093
-2.77321
-2.77618
-2.77983
-2.78414
-2.7892
-2.79505
-2.80162
-2.80879
-2.81633
-2.82386
-2.83101
-2.83758
-2.84352
-2.84868
-2.85284
-2.85583
-2.8579
-2.85979
-2.89883
-2.90112
-2.904
-2.90749
-2.91159
-2.91631
-2.92165
-2.92756
-2.93388
-2.94043
-2.94695
-2.95319
-2.959
-2.96426
-2.96888
-2.9727
-2.97574
-2.97807
-2.97902
-3.02634
-3.02862
-3.03141
-3.03474
-3.03859
-3.04298
-3.04786
-3.05318
-3.05881
-3.06459
-3.07033
-3.07587
-3.08109
-3.0859
-3.09022
-3.09402
-3.09742
-3.10103
-3.10105
-3.15352
-3.15576
-3.15846
-3.16162
-3.16523
-3.16929
-3.17375
-3.17855
-3.1836
-3.18876
-3.19388
-3.19885
-3.20358
-3.208
-3.21209
-3.21582
-3.21929
-3.22362
-3.22271
-3.28039
-3.28259
-3.28518
-3.28817
-3.29155
-3.29529
-3.29937
-3.30372
-3.30827
-3.3129
-3.3175
-3.32198
-3.32625
-3.33028
-3.33404
-3.33753
-3.34064
-3.34408
-3.34394
-3.40699
-3.40914
-3.41163
-3.41445
-3.4176
-3.42105
-3.42478
-3.42873
-3.43283
-3.43699
-3.44113
-3.44515
-3.44899
-3.45259
-3.45592
-3.45892
-3.46144
-3.4635
-3.46364
-3.53337
-3.53546
-3.53783
-3.54049
-3.54342
-3.54661
-3.55002
-3.5536
-3.5573
-3.56104
-3.56474
-3.56833
-3.57174
-3.5749
-3.57774
-3.58016
-3.58193
-3.58277
-3.58183
-3.65955
-3.66158
-3.66384
-3.66634
-3.66906
-3.672
-3.67511
-3.67836
-3.68169
-3.68504
-3.68835
-3.69153
-3.69452
-3.69724
-3.6996
-3.70145
-3.70256
-3.7026
-3.70091
-3.78557
-3.78753
-3.78967
-3.79202
-3.79455
-3.79724
-3.80008
-3.80303
-3.80603
-3.80902
-3.81196
-3.81476
-3.81735
-3.81965
-3.82155
-3.82292
-3.82352
-3.82301
-3.82116
-3.91146
-3.91333
-3.91537
-3.91756
-3.91991
-3.92238
-3.92497
-3.92763
-3.93032
-3.93299
-3.93558
-3.93802
-3.94024
-3.94215
-3.94365
-3.94459
-3.94474
-3.94379
-3.94173
-4.03723
-4.03902
-4.04094
-4.04299
-4.04516
-4.04743
-4.04979
-4.05219
-4.0546
-4.05697
-4.05924
-4.06135
-4.06322
-4.06478
-4.06592
-4.06649
-4.06625
-4.06487
-4.06268
-4.16291
-4.16461
-4.16641
-4.16832
-4.17033
-4.17241
-4.17455
-4.17671
-4.17887
-4.18096
-4.18294
-4.18475
-4.18632
-4.18757
-4.1884
-4.18867
-4.18814
-4.18644
-4.18412
-4.28851
-4.29011
-4.2918
-4.29357
-4.29542
-4.29733
-4.29927
-4.30122
-4.30314
-4.30498
-4.30671
-4.30825
-4.30954
-4.31052
-4.3111
-4.31115
-4.31046
-4.3087
-4.30611
-4.41403
-4.41553
-4.4171
-4.41875
-4.42044
-4.42219
-4.42395
-4.4257
-4.42742
-4.42905
-4.43054
-4.43184
-4.43289
-4.43364
-4.43399
-4.43387
-4.43311
-4.43145
-4.42862
-4.53949
-4.54088
-4.54234
-4.54385
-4.54541
-4.547
-4.5486
-4.55018
-4.55171
-4.55315
-4.55445
-4.55554
-4.55637
-4.5569
-4.55705
-4.55674
-4.5558
-4.55404
-4.55155
-4.66488
-4.66617
-4.6675
-4.66889
-4.67031
-4.67176
-4.67321
-4.67464
-4.67602
-4.6773
-4.67843
-4.67934
-4.67998
-4.68031
-4.68024
-4.6797
-4.67845
-4.67628
-4.67363
-4.79023
-4.79139
-4.79261
-4.79386
-4.79515
-4.79646
-4.79778
-4.79909
-4.80034
-4.8015
-4.8025
-4.80327
-4.80374
-4.80389
-4.80365
-4.80289
-4.80136
-4.79883
-4.7955
-4.91553
-4.91657
-4.91765
-4.91877
-4.91993
-4.92111
-4.92231
-4.9235
-4.92466
-4.92575
-4.92667
-4.92733
-4.92767
-4.92767
-4.92731
-4.92646
-4.92486
-4.92228
-4.91889
-5.04079
-5.0417
-5.04264
-5.04362
-5.04464
-5.04569
-5.04677
-5.04787
-5.04897
-5.05003
-5.05095
-5.05155
-5.05176
-5.05166
-5.05125
-5.05044
-5.04895
-5.04641
-5.04303
-5.16602
-5.16678
-5.16758
-5.16841
-5.16928
-5.17019
-5.17115
-5.17216
-5.17323
-5.17434
-5.17535
-5.17593
-5.17601
-5.17581
-5.17541
-5.17473
-5.1735
-5.17099
-5.16752
-5.29122
-5.29183
-5.29246
-5.29313
-5.29383
-5.29459
-5.29541
-5.29632
-5.29738
-5.2986
-5.29988
-5.30051
-5.30036
-5.30005
-5.29968
-5.29924
-5.29846
-5.29603
-5.29272
-5.41639
-5.41683
-5.4173
-5.41778
-5.4183
-5.41886
-5.41949
-5.42026
-5.42125
-5.42269
-5.42476
-5.42571
-5.42499
-5.42441
-5.42407
-5.42394
-5.42387
-5.42155
-5.41856
-5.54154
-5.54181
-5.54209
-5.54238
-5.54268
-5.54301
-5.5434
-5.54392
-5.5448
-5.54678
-5.55133
-5.55315
-5.55078
-5.5495
-5.54913
-5.54949
-5.55086
-5.54996
-5.55303
-5.66676
-5.66685
-5.66693
-5.667
-5.66708
-5.66717
-5.66733
-5.66766
-5.66854
-5.67168
-5.68107
-5.6817
-5.67673
-5.6744
-5.67409
-5.67504
-5.67753
-5.67946
-5.68728
)
;

boundaryField
{
    leftWall
    {
        type            calculated;
        value           nonuniform List<scalar> 
50
(
711.071
652.261
593.322
534.27
475.121
415.876
356.54
297.131
204.224
81.9476
11.64
-0.538056
-0.643526
-0.869186
-1.08561
-1.26103
-1.41366
-1.55754
-1.69789
-1.83579
-1.97123
-2.1047
-2.23669
-2.3675
-2.49732
-2.6263
-2.75457
-2.88223
-3.00936
-3.13608
-3.26248
-3.38869
-3.51485
-3.64105
-3.76735
-3.89377
-4.0203
-4.14692
-4.27361
-4.40035
-4.52711
-4.65388
-4.78063
-4.90735
-5.03404
-5.16068
-5.28725
-5.41372
-5.54007
-5.66628
)
;
    }
    rightWall
    {
        type            calculated;
        value           nonuniform List<scalar> 
50
(
828.467
771.145
714.383
657.868
603.441
551.916
501.602
449.186
361.278
242.217
158.374
101.753
52.492
16.5809
2.05563
-0.538874
-1.60798
-1.86556
-1.98149
-2.08837
-2.19445
-2.30203
-2.41031
-2.51953
-2.63098
-2.74434
-2.85979
-2.97902
-3.10105
-3.22271
-3.34394
-3.46364
-3.58183
-3.70091
-3.82116
-3.94173
-4.06268
-4.18412
-4.30611
-4.42862
-4.55155
-4.67363
-4.7955
-4.91889
-5.04303
-5.16752
-5.29272
-5.41856
-5.55303
-5.68728
)
;
    }
    lowerWall
    {
        type            calculated;
        value           nonuniform List<scalar> 
62
(
740.5
740.583
741.465
742.773
744.271
745.896
747.596
749.332
751.06
752.734
754.315
755.774
757.101
758.308
759.439
760.576
761.831
763.152
764.368
767.252
771.446
774.197
776.21
747.167
688.04
629.073
570.494
512.494
454.66
395.957
341.475
248.918
242.569
238.764
232.357
640.643
581.447
520.914
460.22
400.183
340.002
276.326
205.432
669.962
669.732
687.757
704.207
715.587
722.75
726.682
729.883
738.003
752.757
771.79
790.75
806.995
819.652
829.194
839.016
846.532
851.404
856.795
)
;
    }
    atmosphere
    {
        type            calculated;
        value           nonuniform List<scalar> 
46
(
-5.72904
-5.72904
-5.72904
-5.72904
-5.72904
-5.72904
-5.72904
-5.72904
-5.72904
-5.72904
-5.72904
-5.72904
-5.72904
-5.72906
-5.72908
-5.72911
-5.72915
-5.7292
-5.72925
-5.7293
-5.72934
-5.72939
-5.72943
-5.72945
-5.72946
-5.72946
-5.72947
-5.72946
-5.72944
-5.72941
-5.72936
-5.72931
-5.72924
-5.72918
-5.72913
-5.72908
-5.72905
-5.72904
-5.72904
-5.72904
-5.72904
-5.72981
-5.73009
-5.72986
-5.72904
-5.78921
)
;
    }
    defaultFaces
    {
        type            empty;
    }
}


// ************************************************************************* //
