/*--------------------------------*- C++ -*----------------------------------*\
  =========                 |
  \\      /  F ield         | OpenFOAM: The Open Source CFD Toolbox
   \\    /   O peration     | Website:  https://openfoam.org
    \\  /    A nd           | Version:  9
     \\/     M anipulation  |
\*---------------------------------------------------------------------------*/
FoamFile
{
    format      ascii;
    class       volScalarField;
    location    "0.01";
    object      epsilon;
}
// * * * * * * * * * * * * * * * * * * * * * * * * * * * * * * * * * * * * * //

dimensions      [0 2 -3 0 0 0 0];

internalField   nonuniform List<scalar> 
2268
(
2.16935
2.69396
2.70224
2.70478
2.70674
2.70892
2.7115
2.71474
2.71921
2.72636
2.74142
2.75006
2.79032
2.84551
2.76103
2.74197
2.73216
2.7252
2.71976
2.71487
2.70924
2.69479
2.63535
1.56221
0.819912
0.740401
0.732293
0.731466
0.731195
0.730832
0.730242
0.729239
0.72754
0.723848
0.714488
0.725514
0.8649
0.833489
0.787278
0.767644
0.75979
0.756054
0.755229
0.762729
0.838322
1.55403
1.58032
0.423537
0.309519
0.295403
0.293675
0.29339
0.293208
0.29296
0.292583
0.29205
0.290853
0.287558
0.291614
0.331402
0.330312
0.317089
0.309301
0.305718
0.304142
0.304989
0.318192
0.428183
1.58165
1.58668
0.323887
0.191568
0.173248
0.170652
0.170291
0.170198
0.170114
0.17
0.169871
0.169463
0.168197
0.169944
0.181543
0.183772
0.18037
0.177362
0.175773
0.17524
0.17725
0.194468
0.322704
1.58982
1.58887
0.294638
0.15175
0.130584
0.127299
0.126838
0.126771
0.126749
0.12673
0.126723
0.126556
0.126016
0.126979
0.131212
0.132283
0.131474
0.130243
0.1295
0.129466
0.13225
0.152141
0.290965
1.59301
1.5896
0.285668
0.136916
0.113893
0.110123
0.109577
0.109512
0.109514
0.109527
0.109552
0.109476
0.109236
0.109926
0.111979
0.111951
0.11176
0.111251
0.110904
0.111127
0.114343
0.135667
0.279866
1.59485
1.58992
0.282942
0.131372
0.107267
0.103195
0.10259
0.102521
0.102529
0.10255
0.102577
0.102541
0.102442
0.103042
0.104341
0.103727
0.103587
0.103379
0.103226
0.103559
0.106835
0.128
0.271362
1.59806
1.59012
0.28211
0.129419
0.104778
0.100545
0.0999044
0.0998297
0.0998358
0.0998555
0.0998765
0.0998617
0.0998258
0.10039
0.101408
0.100557
0.100336
0.100248
0.100182
0.100513
0.10341
0.121968
0.249946
1.62387
2.63986
2.69364
2.70208
2.70291
2.70295
2.70285
2.70267
2.7024
2.70209
2.70174
2.70139
2.70102
2.70066
2.70031
2.69995
2.69958
2.69875
2.69365
2.12513
1.4274
0.805529
0.743995
0.739181
0.739128
0.739456
0.739774
0.739952
0.740049
0.740086
0.740095
0.740083
0.74006
0.740034
0.740028
0.740366
0.745356
0.806027
1.43571
1.4518
0.398771
0.306633
0.297082
0.296287
0.296371
0.296511
0.296595
0.296642
0.296664
0.296673
0.296673
0.296668
0.296667
0.296734
0.297611
0.306902
0.396685
1.4525
1.45823
0.295279
0.185955
0.172948
0.171502
0.171426
0.171476
0.171512
0.171533
0.171543
0.171547
0.171547
0.171546
0.171556
0.171695
0.173128
0.185678
0.291997
1.45796
1.46043
0.264579
0.144723
0.129382
0.127453
0.127274
0.127282
0.127298
0.127308
0.127312
0.127314
0.127314
0.127315
0.127333
0.127539
0.129427
0.144267
0.260626
1.45984
1.46148
0.254564
0.128805
0.112152
0.109938
0.109699
0.109687
0.109693
0.109697
0.109699
0.1097
0.1097
0.109702
0.109727
0.109984
0.1122
0.128572
0.250806
1.4604
1.46408
0.247771
0.121739
0.105075
0.10282
0.102561
0.10254
0.10254
0.102542
0.102543
0.102543
0.102543
0.102545
0.102575
0.102866
0.105288
0.122583
0.247825
1.46057
1.48993
0.23009
0.116731
0.102039
0.100042
0.0998049
0.0997812
0.0997796
0.0997798
0.0997798
0.0997797
0.0997798
0.0997826
0.0998151
0.100126
0.10266
0.120431
0.246978
1.46063
1.59039
0.281695
0.128539
0.103573
0.0992284
0.098561
0.0984804
0.0984841
0.0985017
0.0985183
0.0985216
0.0985199
0.0990317
0.0998701
0.098949
0.0986273
0.0986003
0.0985744
0.0987733
0.10042
0.109976
0.158206
0.415571
1.59071
0.281452
0.128345
0.10335
0.0989907
0.098318
0.0982343
0.0982343
0.0982476
0.0982619
0.0982663
0.0982744
0.0987597
0.0995584
0.0986461
0.0982808
0.0982691
0.0982473
0.0982972
0.0988195
0.101764
0.114653
0.160772
1.59102
0.28119
0.12825
0.103299
0.0989498
0.0982782
0.0981924
0.098189
0.0981977
0.0982076
0.0982119
0.098238
0.0987572
0.0995996
0.0986338
0.0982167
0.0982041
0.0981887
0.0981884
0.0983063
0.0989994
0.10188
0.110539
1.59131
0.280909
0.128162
0.103266
0.0989313
0.098262
0.0981749
0.0981687
0.0981738
0.0981799
0.0981857
0.0982309
0.0987962
0.0996563
0.0986336
0.0981961
0.0981793
0.0981701
0.098162
0.0981793
0.0983106
0.098846
0.100338
1.59156
0.280632
0.128077
0.103237
0.0989167
0.09825
0.0981622
0.0981544
0.098157
0.098161
0.0981684
0.0982295
0.098839
0.0996973
0.0986222
0.0981848
0.0981644
0.0981594
0.0981533
0.0981528
0.0981736
0.0982617
0.0984933
1.59179
0.280367
0.127998
0.10321
0.0989043
0.0982405
0.0981525
0.0981436
0.0981448
0.0981475
0.0981565
0.0982302
0.098881
0.0997246
0.0986036
0.0981766
0.0981537
0.0981512
0.0981478
0.0981458
0.0981487
0.0981642
0.0982032
1.592
0.280119
0.127924
0.103186
0.0988938
0.0982329
0.098145
0.0981355
0.0981359
0.0981379
0.098148
0.0982319
0.0989218
0.0997418
0.0985812
0.09817
0.0981455
0.0981443
0.0981428
0.0981416
0.098142
0.0981466
0.0981584
1.59218
0.279889
0.127856
0.103165
0.0988849
0.0982269
0.0981392
0.0981294
0.0981293
0.098131
0.098142
0.0982342
0.0989616
0.0997533
0.0985579
0.0981644
0.098139
0.0981386
0.0981383
0.0981378
0.0981381
0.0981408
0.0981482
1.59235
0.279679
0.127794
0.103146
0.0988775
0.0982221
0.0981348
0.0981248
0.0981244
0.0981259
0.0981377
0.098237
0.0990009
0.0997626
0.0985355
0.0981596
0.0981339
0.0981341
0.0981345
0.0981346
0.0981349
0.0981371
0.0981435
1.59249
0.279487
0.127739
0.10313
0.0988713
0.0982183
0.0981314
0.0981214
0.0981208
0.0981222
0.0981346
0.0982402
0.0990402
0.0997725
0.0985154
0.0981557
0.09813
0.0981306
0.0981315
0.098132
0.0981324
0.0981344
0.0981403
1.59261
0.279314
0.127689
0.103115
0.098866
0.0982153
0.0981288
0.0981188
0.0981181
0.0981194
0.0981324
0.0982438
0.0990801
0.0997859
0.0984987
0.0981527
0.0981271
0.0981281
0.0981295
0.0981301
0.0981306
0.0981324
0.0981379
1.59272
0.279159
0.127645
0.103102
0.0988616
0.0982129
0.0981269
0.0981169
0.0981161
0.0981174
0.0981309
0.0982478
0.0991215
0.0998067
0.0984866
0.0981506
0.0981255
0.0981268
0.0981285
0.0981292
0.0981295
0.0981312
0.0981363
1.59281
0.279024
0.127606
0.10309
0.0988579
0.0982111
0.0981254
0.0981155
0.0981147
0.098116
0.0981299
0.0982526
0.0991663
0.099841
0.0984809
0.0981501
0.0981252
0.098127
0.0981287
0.0981292
0.0981292
0.0981305
0.0981353
1.59289
0.278914
0.127573
0.103081
0.0988547
0.0982096
0.0981244
0.0981145
0.0981137
0.098115
0.0981296
0.0982588
0.0992184
0.0999036
0.0984861
0.0981522
0.0981273
0.0981291
0.0981304
0.0981303
0.0981297
0.0981305
0.0981347
1.59296
0.278846
0.12755
0.103073
0.0988523
0.0982087
0.0981238
0.0981141
0.0981134
0.0981148
0.0981303
0.0982686
0.0992857
0.100028
0.0985113
0.0981602
0.0981337
0.0981343
0.0981342
0.0981328
0.0981311
0.098131
0.0981345
1.59303
0.278868
0.127543
0.103069
0.0988514
0.0982091
0.0981247
0.0981152
0.0981147
0.0981165
0.0981344
0.0982903
0.0994015
0.100207
0.0985577
0.0981806
0.098149
0.098145
0.0981411
0.0981369
0.0981333
0.098132
0.0981345
1.59311
0.279001
0.127555
0.103072
0.0988559
0.0982149
0.098131
0.0981219
0.0981219
0.0981255
0.0981511
0.0983556
0.0997586
0.100356
0.0985858
0.0982245
0.0981818
0.0981646
0.0981521
0.0981428
0.0981363
0.0981332
0.0981345
1.59328
0.278973
0.127584
0.103106
0.0988926
0.0982529
0.09817
0.0981623
0.0981645
0.098174
0.0982203
0.0984953
0.100264
0.101143
0.09869
0.0983164
0.0982425
0.0981957
0.0981673
0.0981502
0.0981398
0.0981345
0.0981344
1.59151
0.279902
0.127682
0.103101
0.0988805
0.0982442
0.0981675
0.0981717
0.098201
0.0982762
0.09844
0.098753
0.0991871
0.0998581
0.0988508
0.0985454
0.0983521
0.098239
0.0981849
0.0981577
0.0981429
0.0981355
0.0981339
1.59645
0.28565
0.128251
0.103276
0.0990392
0.0984301
0.0983974
0.0984769
0.0986528
0.0990358
0.0996811
0.0998156
0.101041
0.0990452
0.0991299
0.098833
0.0984476
0.098271
0.0981967
0.0981623
0.0981445
0.0981355
0.0981327
1.59882
0.27887
0.127538
0.103136
0.0989728
0.0983816
0.0983726
0.0985005
0.0987694
0.0991672
0.0993759
0.0997564
0.0999078
0.0995286
0.0992413
0.0987291
0.0984061
0.0982597
0.0981937
0.0981611
0.0981436
0.0981343
0.0981309
1.59538
0.278484
0.127473
0.103145
0.0989961
0.0984005
0.0983708
0.0984534
0.0986379
0.0989941
0.0994139
0.0994089
0.0993242
0.0992213
0.0988481
0.0985141
0.0983248
0.0982305
0.0981822
0.0981559
0.0981407
0.0981321
0.0981285
1.59469
0.278459
0.127411
0.103067
0.0988974
0.0982787
0.0982185
0.0982475
0.0983187
0.0984519
0.0986388
0.0987731
0.0988121
0.0987087
0.0985148
0.0983555
0.0982576
0.0982014
0.0981688
0.0981491
0.0981369
0.0981294
0.0981259
1.59421
0.278479
0.127411
0.103059
0.0988833
0.0982587
0.0981903
0.0982039
0.0982409
0.0983027
0.098388
0.0984625
0.0984772
0.0984197
0.0983347
0.098262
0.0982113
0.0981781
0.0981565
0.0981423
0.0981328
0.0981265
0.0981234
1.59378
0.278499
0.127418
0.103059
0.09888
0.0982522
0.0981791
0.0981845
0.0982052
0.0982356
0.0982726
0.0983027
0.0983058
0.09828
0.0982428
0.0982079
0.0981806
0.0981606
0.0981463
0.0981362
0.0981289
0.0981238
0.098121
1.59341
0.278521
0.127423
0.103058
0.0988753
0.0982449
0.0981683
0.098168
0.0981793
0.0981945
0.0982108
0.0982225
0.0982228
0.098211
0.0981935
0.0981756
0.0981601
0.0981477
0.0981382
0.098131
0.0981255
0.0981214
0.098119
1.59306
0.278543
0.127429
0.103056
0.0988701
0.0982377
0.0981585
0.0981546
0.0981607
0.0981685
0.098176
0.0981808
0.0981803
0.0981744
0.0981653
0.0981555
0.0981463
0.0981384
0.098132
0.0981268
0.0981227
0.0981193
0.0981173
1.59275
0.278566
0.127434
0.103054
0.0988653
0.0982313
0.0981505
0.0981443
0.0981474
0.0981516
0.0981552
0.0981573
0.0981567
0.0981534
0.0981483
0.0981425
0.0981368
0.0981317
0.0981272
0.0981234
0.0981203
0.0981176
0.0981159
1.59246
0.27859
0.12744
0.103052
0.0988611
0.0982259
0.098144
0.0981365
0.0981379
0.0981402
0.0981421
0.098143
0.0981425
0.0981405
0.0981375
0.0981339
0.0981302
0.0981267
0.0981235
0.0981208
0.0981184
0.0981162
0.0981148
1.59219
0.278615
0.127446
0.103051
0.0988575
0.0982215
0.0981388
0.0981305
0.098131
0.0981324
0.0981334
0.0981338
0.0981334
0.0981322
0.0981303
0.098128
0.0981255
0.0981231
0.0981208
0.0981187
0.0981168
0.098115
0.0981139
1.59196
0.278639
0.127452
0.10305
0.0988546
0.0982179
0.0981347
0.0981259
0.0981259
0.0981268
0.0981274
0.0981277
0.0981274
0.0981266
0.0981254
0.0981238
0.0981221
0.0981203
0.0981186
0.0981171
0.0981156
0.0981141
0.0981131
1.59174
0.278662
0.127458
0.103049
0.0988523
0.098215
0.0981316
0.0981225
0.0981222
0.0981228
0.0981232
0.0981234
0.0981232
0.0981227
0.0981219
0.0981208
0.0981196
0.0981183
0.098117
0.0981158
0.0981146
0.0981134
0.0981126
1.59155
0.278685
0.127464
0.103049
0.0988505
0.0982127
0.098129
0.0981198
0.0981194
0.0981198
0.0981202
0.0981203
0.0981203
0.0981199
0.0981194
0.0981186
0.0981177
0.0981167
0.0981157
0.0981148
0.0981138
0.0981128
0.0981121
1.59138
0.278707
0.12747
0.10305
0.0988491
0.0982109
0.0981271
0.0981177
0.0981172
0.0981176
0.0981179
0.0981181
0.0981181
0.0981179
0.0981175
0.098117
0.0981163
0.0981155
0.0981148
0.098114
0.0981132
0.0981123
0.0981118
1.59123
0.278728
0.127476
0.10305
0.098848
0.0982094
0.0981256
0.0981162
0.0981156
0.0981159
0.0981162
0.0981164
0.0981165
0.0981164
0.0981161
0.0981157
0.0981152
0.0981146
0.098114
0.0981133
0.0981127
0.0981119
0.0981115
1.5911
0.278749
0.127481
0.103051
0.0988472
0.0982083
0.0981244
0.0981149
0.0981143
0.0981147
0.098115
0.0981152
0.0981153
0.0981152
0.0981151
0.0981148
0.0981144
0.0981139
0.0981134
0.0981129
0.0981123
0.0981116
0.0981113
1.59099
0.278768
0.127487
0.103051
0.0988466
0.0982075
0.0981235
0.098114
0.0981134
0.0981137
0.098114
0.0981143
0.0981144
0.0981144
0.0981143
0.098114
0.0981137
0.0981134
0.0981129
0.0981125
0.098112
0.0981114
0.0981111
1.5909
0.278786
0.127491
0.103051
0.0988462
0.098207
0.098123
0.0981135
0.0981129
0.0981131
0.0981135
0.0981137
0.0981139
0.0981139
0.0981138
0.0981136
0.0981134
0.0981131
0.0981127
0.0981123
0.0981118
0.0981113
0.098111
1.59083
0.278788
0.127479
0.103047
0.0988456
0.0982075
0.0981237
0.0981142
0.0981136
0.0981139
0.0981142
0.0981144
0.0981146
0.0981146
0.0981146
0.0981144
0.0981142
0.0981139
0.0981135
0.0981128
0.0981118
0.0981112
0.0981109
1.59082
0.278536
0.127318
0.103004
0.0988442
0.0982157
0.0981336
0.0981243
0.0981237
0.0981239
0.0981242
0.0981244
0.0981246
0.0981246
0.0981245
0.0981243
0.0981241
0.0981236
0.0981226
0.0981197
0.0981134
0.0981113
0.0981109
1.59321
0.274484
0.125905
0.102723
0.0988559
0.0982843
0.098211
0.0982028
0.0982021
0.0982022
0.0982023
0.0982023
0.0982022
0.098202
0.0982018
0.0982014
0.0982009
0.0981998
0.098196
0.0981798
0.0981248
0.0981126
0.0981108
1.73252
0.224965
0.116484
0.1014
0.0990698
0.098748
0.0987088
0.0987044
0.0987039
0.0987037
0.0987035
0.0987032
0.0987028
0.0987023
0.0987018
0.0987011
0.0987003
0.0986984
0.0986888
0.0986263
0.0981767
0.0981173
0.0981106
1.62807
1.59252
1.59038
1.61311
0.256849
0.276108
0.274545
0.253399
0.121898
0.125316
0.12514
0.121538
0.101956
0.1025
0.102472
0.101892
0.0987138
0.0987866
0.0987758
0.0986882
0.0982321
0.0982369
0.0982285
0.0982118
0.098163
0.0981594
0.0981515
0.0981439
0.0981497
0.0981453
0.0981378
0.0981315
0.0981444
0.0981401
0.098133
0.0981271
0.0981411
0.0981369
0.0981301
0.0981245
0.0981387
0.0981347
0.0981281
0.0981227
0.0981369
0.0981331
0.0981267
0.0981215
0.0981357
0.0981319
0.0981257
0.0981206
0.0981349
0.0981311
0.098125
0.0981199
0.0981343
0.0981304
0.0981245
0.0981195
0.0981338
0.09813
0.0981241
0.0981192
0.0981334
0.0981295
0.0981238
0.0981191
0.0981328
0.098129
0.0981236
0.0981191
0.0981319
0.0981283
0.0981233
0.098119
0.0981305
0.0981273
0.0981228
0.098119
0.0981287
0.0981261
0.0981223
0.0981189
0.0981267
0.0981247
0.0981217
0.0981187
0.0981245
0.0981233
0.098121
0.0981185
0.0981225
0.0981219
0.0981203
0.0981182
0.0981206
0.0981206
0.0981196
0.0981179
0.098119
0.0981195
0.098119
0.0981176
0.0981176
0.0981186
0.0981184
0.0981173
0.0981165
0.0981178
0.0981179
0.098117
0.0981156
0.0981172
0.0981175
0.0981167
0.0981149
0.0981166
0.0981171
0.0981164
0.0981144
0.0981162
0.0981168
0.0981161
0.0981139
0.0981158
0.0981165
0.0981159
0.0981136
0.0981155
0.0981162
0.0981156
0.0981133
0.0981153
0.098116
0.0981154
0.0981131
0.0981151
0.0981158
0.0981152
0.0981129
0.098115
0.0981157
0.0981151
0.0981128
0.0981148
0.0981156
0.0981149
0.0981127
0.0981147
0.0981155
0.0981148
0.0981126
0.0981147
0.0981154
0.0981148
0.0981125
0.0981146
0.0981153
0.0981146
0.0981123
0.0981142
0.0981149
0.0981142
0.0981115
0.0981131
0.0981136
0.0981129
0.386483
0.150133
0.107279
0.0997007
0.0985536
0.0984063
0.0983888
0.0983864
0.0983857
0.0983853
0.0983851
0.0983851
0.0983883
0.0984232
0.0987492
0.101367
0.119455
0.246685
1.46069
0.154568
0.111989
0.10085
0.098577
0.0982066
0.0981539
0.0981458
0.0981439
0.0981431
0.0981426
0.0981423
0.0981423
0.0981456
0.0981811
0.0985114
0.10115
0.119305
0.246652
1.46075
0.109387
0.10122
0.098767
0.0982335
0.0981387
0.098122
0.098118
0.0981163
0.0981154
0.0981148
0.0981144
0.0981144
0.0981176
0.0981533
0.0984842
0.101126
0.11929
0.246653
1.46082
0.10013
0.0987139
0.0982568
0.0981482
0.0981244
0.0981179
0.0981151
0.0981135
0.0981126
0.0981119
0.0981115
0.0981114
0.0981147
0.0981503
0.0984814
0.101123
0.119289
0.246657
1.46088
0.0984455
0.0982309
0.0981526
0.098129
0.0981209
0.098117
0.0981147
0.0981132
0.0981123
0.0981116
0.0981111
0.0981111
0.0981143
0.09815
0.098481
0.101123
0.11929
0.246661
1.46093
0.0981775
0.0981472
0.0981316
0.0981238
0.0981193
0.0981164
0.0981144
0.0981131
0.0981121
0.0981115
0.098111
0.098111
0.0981142
0.0981499
0.0984809
0.101123
0.11929
0.246666
1.46099
0.0981353
0.0981308
0.0981256
0.0981213
0.0981181
0.0981157
0.0981141
0.0981128
0.098112
0.0981113
0.0981109
0.0981108
0.0981141
0.0981497
0.0984808
0.101123
0.119291
0.246672
1.46104
0.098126
0.0981254
0.0981226
0.0981196
0.098117
0.0981151
0.0981136
0.0981125
0.0981117
0.0981111
0.0981107
0.0981107
0.0981139
0.0981496
0.0984807
0.101123
0.119292
0.246677
1.46109
0.0981221
0.0981223
0.0981205
0.0981182
0.0981161
0.0981145
0.0981132
0.0981122
0.0981115
0.0981109
0.0981105
0.0981105
0.0981138
0.0981495
0.0984807
0.101123
0.119294
0.246684
1.46113
0.0981197
0.0981202
0.0981189
0.098117
0.0981153
0.0981139
0.0981128
0.0981119
0.0981112
0.0981107
0.0981103
0.0981104
0.0981136
0.0981493
0.0984806
0.101123
0.119295
0.24669
1.46118
0.098118
0.0981186
0.0981177
0.0981161
0.0981146
0.0981133
0.0981123
0.0981116
0.0981109
0.0981105
0.0981101
0.0981102
0.0981135
0.0981492
0.0984805
0.101124
0.119296
0.246696
1.46121
0.0981168
0.0981174
0.0981167
0.0981153
0.098114
0.0981129
0.098112
0.0981112
0.0981107
0.0981103
0.09811
0.09811
0.0981133
0.0981491
0.0984804
0.101124
0.119297
0.246703
1.46125
0.0981159
0.0981165
0.0981159
0.0981146
0.0981134
0.0981124
0.0981116
0.0981109
0.0981104
0.0981101
0.0981098
0.0981099
0.0981132
0.0981489
0.0984803
0.101124
0.119299
0.24671
1.46128
0.0981153
0.0981158
0.0981152
0.0981141
0.098113
0.098112
0.0981113
0.0981107
0.0981102
0.0981099
0.0981096
0.0981097
0.098113
0.0981488
0.0984803
0.101124
0.1193
0.246716
1.46131
0.0981149
0.0981152
0.0981147
0.0981136
0.0981125
0.0981117
0.098111
0.0981104
0.09811
0.0981097
0.0981095
0.0981096
0.0981129
0.0981487
0.0984802
0.101124
0.119302
0.246723
1.46133
0.0981146
0.0981148
0.0981142
0.0981132
0.0981122
0.0981114
0.0981107
0.0981102
0.0981098
0.0981095
0.0981093
0.0981095
0.0981128
0.0981486
0.0984802
0.101125
0.119303
0.246729
1.46135
0.0981144
0.0981144
0.0981138
0.0981128
0.0981118
0.0981111
0.0981105
0.09811
0.0981097
0.0981094
0.0981092
0.0981093
0.0981127
0.0981485
0.0984801
0.101125
0.119304
0.246736
1.46136
0.0981144
0.0981141
0.0981134
0.0981124
0.0981116
0.0981108
0.0981103
0.0981099
0.0981095
0.0981093
0.0981091
0.0981093
0.0981126
0.0981485
0.0984801
0.101125
0.119306
0.246741
1.46138
0.0981144
0.0981138
0.0981131
0.0981121
0.0981113
0.0981106
0.0981101
0.0981097
0.0981094
0.0981092
0.098109
0.0981092
0.0981125
0.0981484
0.0984801
0.101125
0.119307
0.246747
1.46138
0.0981144
0.0981136
0.0981128
0.0981118
0.098111
0.0981104
0.0981099
0.0981096
0.0981093
0.0981091
0.0981089
0.0981091
0.0981125
0.0981484
0.0984801
0.101126
0.119308
0.246752
1.46139
0.0981144
0.0981133
0.0981125
0.0981116
0.0981108
0.0981102
0.0981098
0.0981095
0.0981092
0.098109
0.0981089
0.0981091
0.0981125
0.0981484
0.0984802
0.101126
0.119309
0.246756
1.46139
0.0981143
0.098113
0.0981122
0.0981113
0.0981106
0.0981101
0.0981097
0.0981094
0.0981091
0.0981089
0.0981088
0.098109
0.0981124
0.0981484
0.0984802
0.101126
0.119311
0.246761
1.46139
0.0981143
0.0981128
0.0981119
0.0981111
0.0981104
0.09811
0.0981096
0.0981093
0.0981091
0.0981089
0.0981088
0.098109
0.0981124
0.0981484
0.0984804
0.101127
0.119314
0.246773
1.46139
0.0981141
0.0981125
0.0981116
0.0981108
0.0981103
0.0981098
0.0981095
0.0981092
0.098109
0.0981089
0.0981088
0.098109
0.0981124
0.0981484
0.0984805
0.101128
0.119318
0.246791
1.46139
0.098114
0.0981122
0.0981113
0.0981106
0.0981101
0.0981097
0.0981094
0.0981092
0.098109
0.0981088
0.0981088
0.098109
0.0981124
0.0981484
0.0984807
0.101129
0.119322
0.246808
1.46138
0.0981138
0.098112
0.0981111
0.0981105
0.09811
0.0981096
0.0981093
0.0981091
0.0981089
0.0981088
0.0981087
0.098109
0.0981124
0.0981485
0.0984809
0.10113
0.119326
0.246821
1.46138
0.0981136
0.0981117
0.0981109
0.0981103
0.0981098
0.0981095
0.0981093
0.098109
0.0981089
0.0981088
0.0981087
0.098109
0.0981124
0.0981485
0.098481
0.10113
0.119328
0.246832
1.46137
0.0981134
0.0981115
0.0981107
0.0981101
0.0981097
0.0981094
0.0981092
0.098109
0.0981089
0.0981088
0.0981087
0.098109
0.0981124
0.0981485
0.0984811
0.101131
0.119331
0.246841
1.46136
0.0981131
0.0981113
0.0981105
0.09811
0.0981096
0.0981093
0.0981091
0.098109
0.0981088
0.0981087
0.0981087
0.0981089
0.0981124
0.0981485
0.0984812
0.101131
0.119332
0.246847
1.46135
0.0981129
0.0981111
0.0981103
0.0981099
0.0981095
0.0981093
0.0981091
0.0981089
0.0981088
0.0981087
0.0981087
0.0981089
0.0981124
0.0981485
0.0984812
0.101131
0.119333
0.24685
1.46134
0.0981127
0.0981109
0.0981102
0.0981097
0.0981094
0.0981092
0.098109
0.0981089
0.0981088
0.0981087
0.0981087
0.0981089
0.0981124
0.0981485
0.0984812
0.101131
0.119334
0.246852
1.46133
0.0981125
0.0981107
0.09811
0.0981096
0.0981094
0.0981091
0.098109
0.0981089
0.0981088
0.0981087
0.0981086
0.0981089
0.0981124
0.0981485
0.0984812
0.101131
0.119333
0.246851
1.46132
0.0981123
0.0981105
0.0981099
0.0981095
0.0981093
0.0981091
0.0981089
0.0981088
0.0981087
0.0981087
0.0981086
0.0981089
0.0981124
0.0981485
0.0984812
0.101131
0.119333
0.246848
1.46131
0.0981121
0.0981104
0.0981098
0.0981095
0.0981092
0.0981091
0.0981089
0.0981088
0.0981087
0.0981087
0.0981086
0.0981089
0.0981124
0.0981485
0.0984811
0.101131
0.119332
0.246844
1.4613
0.0981119
0.0981103
0.0981097
0.0981094
0.0981092
0.098109
0.0981089
0.0981088
0.0981087
0.0981086
0.0981086
0.0981089
0.0981124
0.0981485
0.098481
0.101131
0.11933
0.246837
1.46129
0.0981118
0.0981102
0.0981096
0.0981093
0.0981091
0.098109
0.0981089
0.0981088
0.0981087
0.0981086
0.0981086
0.0981089
0.0981124
0.0981484
0.098481
0.10113
0.119328
0.24683
1.46128
0.0981117
0.0981101
0.0981096
0.0981093
0.0981091
0.098109
0.0981089
0.0981088
0.0981087
0.0981086
0.0981086
0.0981089
0.0981124
0.0981484
0.0984808
0.10113
0.119326
0.246821
1.46127
0.0981116
0.09811
0.0981095
0.0981093
0.0981091
0.098109
0.0981088
0.0981088
0.0981087
0.0981086
0.0981086
0.0981089
0.0981123
0.0981484
0.0984807
0.101129
0.119324
0.246811
1.46126
0.0981115
0.09811
0.0981095
0.0981092
0.0981091
0.0981089
0.0981088
0.0981088
0.0981087
0.0981086
0.0981086
0.0981089
0.0981123
0.0981483
0.0984806
0.101128
0.119321
0.2468
1.46126
0.0981114
0.0981099
0.0981094
0.0981092
0.098109
0.0981089
0.0981088
0.0981087
0.0981087
0.0981086
0.0981086
0.0981089
0.0981123
0.0981483
0.0984805
0.101128
0.119318
0.24679
1.46126
0.0981111
0.0981097
0.0981093
0.0981091
0.098109
0.0981088
0.0981088
0.0981087
0.0981086
0.0981086
0.0981086
0.0981088
0.0981123
0.0981483
0.0984803
0.101127
0.119316
0.246779
1.46125
0.0981103
0.0981093
0.0981089
0.0981088
0.0981087
0.0981087
0.0981086
0.0981086
0.0981085
0.0981085
0.0981085
0.0981088
0.0981122
0.0981482
0.0984802
0.101127
0.119313
0.246768
1.46125
)
;

boundaryField
{
    leftWall
    {
        type            epsilonWallFunction;
        value           nonuniform List<scalar> 
50
(
2.16935
1.56221
1.58032
1.58668
1.58887
1.5896
1.58992
1.59012
1.59039
1.59071
1.59102
1.59131
1.59156
1.59179
1.592
1.59218
1.59235
1.59249
1.59261
1.59272
1.59281
1.59289
1.59296
1.59303
1.59311
1.59328
1.59151
1.59645
1.59882
1.59538
1.59469
1.59421
1.59378
1.59341
1.59306
1.59275
1.59246
1.59219
1.59196
1.59174
1.59155
1.59138
1.59123
1.5911
1.59099
1.5909
1.59083
1.59082
1.59321
1.73252
)
;
    }
    rightWall
    {
        type            epsilonWallFunction;
        value           nonuniform List<scalar> 
50
(
2.12513
1.43571
1.4525
1.45796
1.45984
1.4604
1.46057
1.46063
1.46069
1.46075
1.46082
1.46088
1.46093
1.46099
1.46104
1.46109
1.46113
1.46118
1.46121
1.46125
1.46128
1.46131
1.46133
1.46135
1.46136
1.46138
1.46138
1.46139
1.46139
1.46139
1.46139
1.46139
1.46138
1.46138
1.46137
1.46136
1.46135
1.46134
1.46133
1.46132
1.46131
1.4613
1.46129
1.46128
1.46127
1.46126
1.46126
1.46126
1.46125
1.46125
)
;
    }
    lowerWall
    {
        type            epsilonWallFunction;
        value           nonuniform List<scalar> 
62
(
2.16935
2.69396
2.70224
2.70478
2.70674
2.70892
2.7115
2.71474
2.71921
2.72636
2.74142
2.75006
2.79032
2.84551
2.76103
2.74197
2.73216
2.7252
2.71976
2.71487
2.70924
2.69479
2.63535
2.63535
1.55403
1.58165
1.58982
1.59301
1.59485
1.59806
1.62387
1.62807
1.59252
1.59038
1.61311
2.63986
1.4274
1.4518
1.45823
1.46043
1.46148
1.46408
1.48993
2.63986
2.69364
2.70208
2.70291
2.70295
2.70285
2.70267
2.7024
2.70209
2.70174
2.70139
2.70102
2.70066
2.70031
2.69995
2.69958
2.69875
2.69365
2.12513
)
;
    }
    atmosphere
    {
        type            inletOutlet;
        inletValue      uniform 0.1;
        value           nonuniform List<scalar> 
46
(
0.1
0.1
0.1
0.1
0.1
0.1
0.1
0.1
0.1
0.1
0.1
0.1
0.1
0.1
0.1
0.1
0.1
0.1
0.1
0.1
0.0981767
0.0981173
0.0981106
0.0981115
0.0981131
0.0981136
0.0981129
0.0981103
0.0981093
0.0981089
0.0981088
0.0981087
0.0981087
0.0981086
0.0981086
0.0981085
0.0981085
0.0981085
0.0981088
0.0981122
0.0981482
0.0984802
0.101127
0.119313
0.246768
1.46125
)
;
    }
    defaultFaces
    {
        type            empty;
    }
}


// ************************************************************************* //
