/*--------------------------------*- C++ -*----------------------------------*\
  =========                 |
  \\      /  F ield         | OpenFOAM: The Open Source CFD Toolbox
   \\    /   O peration     | Website:  https://openfoam.org
    \\  /    A nd           | Version:  9
     \\/     M anipulation  |
\*---------------------------------------------------------------------------*/
FoamFile
{
    format      ascii;
    class       surfaceScalarField;
    location    "10";
    object      phi;
}
// * * * * * * * * * * * * * * * * * * * * * * * * * * * * * * * * * * * * * //

dimensions      [0 3 -1 0 0 0 0];

internalField   nonuniform List<scalar> 
24170
(
3.12844e-06
5.9386e-08
3.03875e-06
8.72603e-08
2.96615e-06
7.131e-08
2.90805e-06
5.75779e-08
2.85707e-06
4.97267e-08
2.81344e-06
4.28881e-08
2.77654e-06
3.5901e-08
2.74557e-06
3.00505e-08
2.71776e-06
2.71169e-08
2.69013e-06
2.71878e-08
2.65983e-06
2.9888e-08
2.62635e-06
3.37327e-08
2.58551e-06
4.0883e-08
2.53011e-06
5.58731e-08
2.43959e-06
9.09542e-08
2.26457e-06
1.7704e-07
1.88897e-06
3.80059e-07
7.79623e-07
1.11378e-06
3.44991e-06
2.59727e-08
3.45358e-06
7.93295e-08
3.44844e-06
7.29256e-08
3.43499e-06
6.85907e-08
3.40944e-06
7.26374e-08
3.37668e-06
7.39288e-08
3.34416e-06
6.64626e-08
3.31482e-06
5.74145e-08
3.28866e-06
5.13153e-08
3.2654e-06
4.82418e-08
3.2437e-06
4.93796e-08
3.22142e-06
5.37467e-08
3.19585e-06
6.42032e-08
3.1638e-06
8.55381e-08
3.12304e-06
1.29671e-07
3.06221e-06
2.366e-07
3.03293e-06
4.10432e-07
9.35276e-07
2.87739e-06
3.66897e-06
1.91794e-08
3.67895e-06
6.90339e-08
3.68491e-06
6.72479e-08
3.68595e-06
6.79316e-08
3.67965e-06
7.89243e-08
3.66868e-06
8.4908e-08
3.65545e-06
7.95299e-08
3.64112e-06
7.16868e-08
3.62634e-06
6.61451e-08
3.61155e-06
6.33715e-08
3.59693e-06
6.43739e-08
3.58131e-06
7.01295e-08
3.5625e-06
8.37323e-08
3.53781e-06
1.11097e-07
3.50558e-06
1.62967e-07
3.47578e-06
2.68045e-07
3.48691e-06
4.01609e-07
7.66367e-07
3.6556e-06
3.92849e-06
1.55066e-08
3.93613e-06
5.86051e-08
3.94084e-06
6.02214e-08
3.94166e-06
6.53225e-08
3.93993e-06
7.8901e-08
3.93747e-06
8.59531e-08
3.93389e-06
8.14911e-08
3.92898e-06
7.49357e-08
3.92302e-06
7.03738e-08
3.91608e-06
6.85082e-08
3.9082e-06
7.04639e-08
3.89875e-06
7.78795e-08
3.88668e-06
9.42358e-08
3.87134e-06
1.25117e-07
3.854e-06
1.79509e-07
3.84974e-06
2.72181e-07
3.87053e-06
3.81549e-07
6.0359e-07
4.03363e-06
4.20999e-06
1.23536e-08
4.21581e-06
5.29826e-08
4.21904e-06
5.76457e-08
4.21851e-06
6.65214e-08
4.21734e-06
8.04162e-08
4.21765e-06
8.5931e-08
4.21814e-06
8.11071e-08
4.2181e-06
7.5209e-08
4.2174e-06
7.12811e-08
4.2159e-06
7.04543e-08
4.21332e-06
7.34691e-08
4.20913e-06
8.27167e-08
4.20309e-06
1.00942e-07
4.19622e-06
1.32779e-07
4.1926e-06
1.84146e-07
4.20445e-06
2.61588e-07
4.23987e-06
3.47541e-07
4.74426e-07
4.36836e-06
4.51134e-06
9.7242e-09
4.51609e-06
4.58743e-08
4.51867e-06
5.33132e-08
4.51785e-06
6.58213e-08
4.51651e-06
8.0376e-08
4.51741e-06
8.37047e-08
4.51946e-06
7.76939e-08
4.52186e-06
7.13525e-08
4.52426e-06
6.75152e-08
4.52628e-06
6.69969e-08
4.52768e-06
7.08725e-08
4.52783e-06
8.14314e-08
4.52718e-06
1.00787e-07
4.52753e-06
1.31941e-07
4.53393e-06
1.77759e-07
4.55628e-06
2.39707e-07
4.60105e-06
3.03438e-07
3.75586e-07
4.7013e-06
4.8342e-06
7.95363e-09
4.83804e-06
4.25794e-08
4.84046e-06
5.17318e-08
4.84029e-06
6.66778e-08
4.83897e-06
8.21528e-08
4.83961e-06
8.33035e-08
4.842e-06
7.55256e-08
4.84557e-06
6.79157e-08
4.84979e-06
6.35498e-08
4.85418e-06
6.28614e-08
4.85846e-06
6.69907e-08
4.86234e-06
7.80056e-08
4.86654e-06
9.71364e-08
4.87316e-06
1.25964e-07
4.88684e-06
1.64925e-07
4.91525e-06
2.12236e-07
4.96368e-06
2.56735e-07
2.93533e-07
5.04292e-06
5.18072e-06
6.62004e-09
5.18336e-06
3.79084e-08
5.18572e-06
4.76972e-08
5.18668e-06
6.42574e-08
5.18583e-06
8.15938e-08
5.18601e-06
8.19324e-08
5.18813e-06
7.21417e-08
5.19207e-06
6.29447e-08
5.19721e-06
5.72977e-08
5.20324e-06
5.6021e-08
5.20979e-06
5.97071e-08
5.21696e-06
7.03087e-08
5.22547e-06
8.82823e-08
5.23751e-06
1.13897e-07
5.25674e-06
1.45837e-07
5.28853e-06
1.81186e-07
5.33498e-06
2.09222e-07
2.27872e-07
5.40057e-06
5.55228e-06
5.42964e-09
5.55375e-06
3.7077e-08
5.55606e-06
4.6205e-08
5.55829e-06
6.26027e-08
5.5584e-06
8.18172e-08
5.55826e-06
8.22345e-08
5.55988e-06
7.06308e-08
5.56363e-06
5.92947e-08
5.56918e-06
5.18936e-08
5.57627e-06
4.91646e-08
5.58464e-06
5.1717e-08
5.59459e-06
6.07541e-08
5.60697e-06
7.63313e-08
5.62356e-06
9.77394e-08
5.64711e-06
1.22817e-07
5.68047e-06
1.48085e-07
5.72436e-06
1.65676e-07
1.71205e-07
5.77751e-06
5.95102e-06
4.09422e-09
5.9511e-06
3.46132e-08
5.95328e-06
4.18729e-08
5.95661e-06
5.72847e-08
5.95799e-06
7.86402e-08
5.95807e-06
8.05648e-08
5.95929e-06
6.80844e-08
5.96256e-06
5.47904e-08
5.96802e-06
4.55416e-08
5.97563e-06
4.08192e-08
5.98541e-06
4.14506e-08
5.99768e-06
4.7944e-08
6.0134e-06
6.05959e-08
6.03365e-06
7.73318e-08
6.06036e-06
9.62749e-08
6.09478e-06
1.13974e-07
6.13496e-06
1.23817e-07
1.25368e-07
6.17952e-06
6.37877e-06
1.69049e-09
6.37753e-06
3.62945e-08
6.37941e-06
4.01301e-08
6.38325e-06
5.32859e-08
6.38596e-06
7.55064e-08
6.38695e-06
7.90765e-08
6.38815e-06
6.6298e-08
6.39112e-06
5.1388e-08
6.39639e-06
3.98181e-08
6.40438e-06
3.2764e-08
6.41497e-06
3.06196e-08
6.42894e-06
3.43306e-08
6.44696e-06
4.24566e-08
6.46982e-06
5.48991e-08
6.4984e-06
6.78577e-08
6.53246e-06
8.00316e-08
6.57012e-06
8.60857e-08
8.51041e-08
6.60785e-06
5.74415e-06
-1.42088e-09
5.74269e-06
3.60381e-08
5.74313e-06
3.8085e-08
5.74554e-06
4.95012e-08
5.74816e-06
7.14684e-08
5.74984e-06
7.63271e-08
5.75137e-06
6.37225e-08
5.75417e-06
4.79161e-08
5.75895e-06
3.47236e-08
5.76601e-06
2.56392e-08
5.77547e-06
2.1423e-08
5.78777e-06
2.1507e-08
5.8042e-06
2.74356e-08
5.82399e-06
3.47393e-08
5.84839e-06
4.44432e-08
5.87605e-06
5.21932e-08
5.90511e-06
5.57411e-08
5.46272e-08
5.93399e-06
7.00217e-06
-6.02142e-09
6.9992e-06
3.83943e-08
6.99937e-06
3.7093e-08
7.00321e-06
4.44809e-08
7.0084e-06
6.52341e-08
7.01229e-06
7.11185e-08
7.015e-06
6.00637e-08
7.01803e-06
4.39774e-08
7.02273e-06
2.96255e-08
7.02977e-06
1.83478e-08
7.03927e-06
1.08119e-08
7.05357e-06
8.07626e-09
7.0717e-06
8.40443e-09
7.0955e-06
1.24649e-08
7.12295e-06
1.62215e-08
7.15461e-06
2.08944e-08
7.18677e-06
2.1713e-08
2.18138e-08
7.21854e-06
8.53463e-06
-9.63196e-09
8.53127e-06
4.07187e-08
8.53058e-06
3.74615e-08
8.53551e-06
3.94001e-08
8.54374e-06
5.62895e-08
8.55135e-06
6.3352e-08
8.55665e-06
5.38969e-08
8.5613e-06
3.95159e-08
8.5663e-06
2.42616e-08
8.57286e-06
1.16507e-08
8.58221e-06
3.70217e-10
8.59611e-06
-6.4669e-09
8.61582e-06
-1.09622e-08
8.64054e-06
-1.25641e-08
8.6709e-06
-1.35782e-08
8.70449e-06
-1.36668e-08
8.74094e-06
-1.51365e-08
-1.62394e-08
8.77635e-06
1.04008e-05
-1.17851e-08
1.04e-05
4.15631e-08
1.03991e-05
3.83553e-08
1.04043e-05
3.40938e-08
1.04153e-05
4.60499e-08
1.0426e-05
5.22306e-08
1.04354e-05
4.57672e-08
1.04425e-05
3.19892e-08
1.04501e-05
1.85118e-08
1.04562e-05
3.10737e-09
1.04664e-05
-9.03854e-09
1.04788e-05
-2.1508e-08
1.04986e-05
-2.94732e-08
1.05223e-05
-3.76702e-08
1.05533e-05
-4.32852e-08
1.05878e-05
-4.91879e-08
1.06266e-05
-5.36803e-08
-5.72983e-08
1.06676e-05
1.26767e-05
-1.1444e-08
1.26796e-05
3.80999e-08
1.26804e-05
3.79859e-08
1.26858e-05
2.94607e-08
1.26972e-05
3.45977e-08
1.27108e-05
3.9867e-08
1.27222e-05
3.39287e-08
1.27341e-05
2.2295e-08
1.2743e-05
7.84591e-09
1.27543e-05
-6.35898e-09
1.27631e-05
-2.19064e-08
1.27789e-05
-3.52777e-08
1.27951e-05
-4.87678e-08
1.28202e-05
-6.01098e-08
1.28469e-05
-7.20226e-08
1.28822e-05
-8.15504e-08
1.29174e-05
-9.09075e-08
-9.75973e-08
1.29608e-05
1.54509e-05
-9.4842e-09
1.54583e-05
3.15278e-08
1.5463e-05
3.34277e-08
1.54686e-05
2.38923e-08
1.54798e-05
2.31025e-08
1.54947e-05
2.45623e-08
1.55099e-05
1.86798e-08
1.55243e-05
7.6651e-09
1.55382e-05
-5.77446e-09
1.55505e-05
-2.01751e-08
1.55639e-05
-3.54822e-08
1.55782e-05
-5.08973e-08
1.55962e-05
-6.6302e-08
1.56168e-05
-8.14004e-08
1.56423e-05
-9.63871e-08
1.56708e-05
-1.10208e-07
1.57046e-05
-1.22993e-07
-1.34462e-07
1.57408e-05
1.8835e-05
-6.398e-09
1.88447e-05
2.17492e-08
1.88534e-05
2.40745e-08
1.88594e-05
1.66233e-08
1.887e-05
1.11473e-08
1.88857e-05
7.09477e-09
1.89037e-05
-3.23479e-10
1.89203e-05
-1.07374e-08
1.89372e-05
-2.28655e-08
1.89513e-05
-3.63071e-08
1.89668e-05
-5.06352e-08
1.89799e-05
-6.58133e-08
1.89959e-05
-8.14675e-08
1.90109e-05
-9.78385e-08
1.90305e-05
-1.1442e-07
1.90498e-05
-1.30697e-07
1.90756e-05
-1.46485e-07
-1.60957e-07
1.91006e-05
2.29631e-05
-6.20863e-09
2.29732e-05
1.01299e-08
2.29853e-05
1.0482e-08
2.29922e-05
7.33164e-09
2.30018e-05
-5.63851e-10
2.30154e-05
-9.26822e-09
2.30325e-05
-1.95549e-08
2.3048e-05
-2.84615e-08
2.3064e-05
-4.00135e-08
2.30767e-05
-5.0823e-08
2.30898e-05
-6.38604e-08
2.3099e-05
-7.6551e-08
2.31096e-05
-9.13453e-08
2.3117e-05
-1.06448e-07
2.31269e-05
-1.22998e-07
2.31349e-05
-1.39909e-07
2.31488e-05
-1.5814e-07
-1.73593e-07
2.31595e-05
1.68101e-05
-5.97781e-09
1.68166e-05
1.28787e-09
1.68256e-05
3.1982e-10
1.68297e-05
-1.58781e-09
1.68386e-05
-8.73665e-09
1.68436e-05
-2.18554e-08
1.68572e-05
-2.99652e-08
1.68611e-05
-4.08467e-08
1.68736e-05
-4.74846e-08
1.68746e-05
-5.88066e-08
1.68832e-05
-6.72953e-08
1.68814e-05
-7.95684e-08
1.68855e-05
-9.07385e-08
1.6881e-05
-1.0516e-07
1.68814e-05
-1.19608e-07
1.68764e-05
-1.37225e-07
1.68776e-05
-1.55674e-07
-1.72348e-07
1.68743e-05
1.46334e-05
-5.31774e-09
1.46397e-05
-6.76887e-09
1.46467e-05
-8.91468e-09
1.46529e-05
-9.46694e-09
1.46586e-05
-1.93944e-08
1.46674e-05
-3.16336e-08
1.46716e-05
-4.15184e-08
1.46795e-05
-4.69002e-08
1.46799e-05
-5.40731e-08
1.46835e-05
-5.98006e-08
1.46803e-05
-6.75589e-08
1.46791e-05
-7.53463e-08
1.46721e-05
-8.54888e-08
1.46666e-05
-9.70049e-08
1.46572e-05
-1.11138e-07
1.46503e-05
-1.27804e-07
1.46407e-05
-1.47187e-07
-1.64021e-07
1.4635e-05
1.27394e-05
-4.87624e-09
1.27448e-05
-1.26911e-08
1.27504e-05
-1.61775e-08
1.27561e-05
-1.72037e-08
1.27629e-05
-2.88113e-08
1.27692e-05
-4.14979e-08
1.27742e-05
-4.85983e-08
1.27762e-05
-5.29449e-08
1.27767e-05
-5.61966e-08
1.27748e-05
-6.01206e-08
1.27705e-05
-6.48013e-08
1.27651e-05
-6.99844e-08
1.2757e-05
-7.81911e-08
1.27488e-05
-8.77791e-08
1.27383e-05
-1.00965e-07
1.27279e-05
-1.16364e-07
1.27161e-05
-1.35014e-07
-1.51342e-07
1.27034e-05
1.10906e-05
-4.64715e-09
1.10948e-05
-1.74081e-08
1.11e-05
-2.16157e-08
1.11057e-05
-2.37655e-08
1.11123e-05
-3.65597e-08
1.1117e-05
-4.90676e-08
1.11198e-05
-5.34717e-08
1.11204e-05
-5.56087e-08
1.11195e-05
-5.72458e-08
1.11164e-05
-5.92821e-08
1.11127e-05
-6.17032e-08
1.1106e-05
-6.58905e-08
1.10995e-05
-7.14429e-08
1.10896e-05
-8.02764e-08
1.10806e-05
-9.05627e-08
1.10674e-05
-1.04646e-07
1.10541e-05
-1.20126e-07
-1.34584e-07
1.10363e-05
9.65472e-06
-4.16167e-09
9.65895e-06
-2.14999e-08
9.66414e-06
-2.68386e-08
9.66964e-06
-2.96567e-08
9.67472e-06
-4.27715e-08
9.67812e-06
-5.27029e-08
9.67934e-06
-5.58616e-08
9.67916e-06
-5.67325e-08
9.67826e-06
-5.71159e-08
9.67572e-06
-5.84378e-08
9.67234e-06
-5.94613e-08
9.66756e-06
-6.22519e-08
9.66114e-06
-6.67273e-08
9.65351e-06
-7.32999e-08
9.64372e-06
-8.20263e-08
9.63178e-06
-9.28643e-08
9.61658e-06
-1.0547e-07
-1.16378e-07
9.59811e-06
8.40432e-06
-3.13727e-09
8.40925e-06
-2.62773e-08
8.41471e-06
-3.20472e-08
8.41919e-06
-3.47156e-08
8.423e-06
-4.65276e-08
8.42471e-06
-5.54646e-08
8.42549e-06
-5.70251e-08
8.42562e-06
-5.71366e-08
8.42508e-06
-5.71708e-08
8.42379e-06
-5.67932e-08
8.42103e-06
-5.75377e-08
8.41748e-06
-5.93245e-08
8.41208e-06
-6.25931e-08
8.40503e-06
-6.71552e-08
8.39578e-06
-7.33857e-08
8.38376e-06
-8.14951e-08
8.36821e-06
-9.083e-08
-9.84505e-08
8.35005e-06
7.31499e-06
-8.22275e-10
7.32114e-06
-3.22471e-08
7.32685e-06
-3.80474e-08
7.33048e-06
-3.81589e-08
7.33356e-06
-5.0367e-08
7.3353e-06
-5.69614e-08
7.33614e-06
-5.80374e-08
7.33649e-06
-5.75794e-08
7.33642e-06
-5.67233e-08
7.33474e-06
-5.57444e-08
7.33192e-06
-5.45164e-08
7.3282e-06
-5.62762e-08
7.32269e-06
-5.74349e-08
7.31505e-06
-5.99652e-08
7.30508e-06
-6.3854e-08
7.29248e-06
-6.90398e-08
7.27649e-06
-7.56336e-08
-8.09834e-08
7.25821e-06
6.36543e-06
3.82211e-09
6.37383e-06
-4.05758e-08
6.38072e-06
-4.44821e-08
6.38414e-06
-4.50786e-08
6.3886e-06
-5.26244e-08
6.39032e-06
-5.86883e-08
6.39068e-06
-5.82485e-08
6.38988e-06
-5.6516e-08
6.38784e-06
-5.44488e-08
6.38412e-06
-5.12332e-08
6.37798e-06
-5.05068e-08
6.37233e-06
-4.93726e-08
6.36427e-06
-4.95878e-08
6.3542e-06
-5.01586e-08
6.34211e-06
-5.18461e-08
6.32768e-06
-5.47983e-08
6.31081e-06
-5.89879e-08
-6.36057e-08
6.29236e-06
5.54253e-06
6.75602e-09
5.55379e-06
-5.15324e-08
5.56179e-06
-5.37617e-08
5.56715e-06
-5.26508e-08
5.57129e-06
-5.54309e-08
5.57046e-06
-5.6784e-08
5.56626e-06
-5.36659e-08
5.55959e-06
-4.94038e-08
5.55111e-06
-4.51172e-08
5.54025e-06
-4.16183e-08
5.52845e-06
-3.91467e-08
5.51697e-06
-3.73852e-08
5.50441e-06
-3.63841e-08
5.49038e-06
-3.61708e-08
5.47513e-06
-3.65953e-08
5.4584e-06
-3.79943e-08
5.43971e-06
-4.09702e-08
-4.5464e-08
5.42109e-06
4.85622e-06
-2.18311e-08
4.86561e-06
-6.08397e-08
4.86731e-06
-5.68259e-08
4.86447e-06
-5.23576e-08
4.85564e-06
-4.50643e-08
4.83909e-06
-3.89552e-08
4.81865e-06
-3.26634e-08
4.79657e-06
-2.66875e-08
4.77448e-06
-2.26205e-08
4.75266e-06
-2.06666e-08
4.73213e-06
-1.93425e-08
4.71373e-06
-1.80981e-08
4.69613e-06
-1.80788e-08
4.67854e-06
-1.84964e-08
4.66091e-06
-1.89194e-08
4.64287e-06
-2.00814e-08
4.62374e-06
-2.22312e-08
-2.67347e-08
4.60422e-06
4.18085e-06
4.11992e-06
4.06282e-06
4.01061e-06
3.96569e-06
3.9268e-06
3.89421e-06
3.86761e-06
3.84488e-06
3.82405e-06
3.80485e-06
3.7869e-06
3.76884e-06
3.75035e-06
3.73143e-06
3.71126e-06
3.68884e-06
3.66212e-06
-9.20783e-08
9.04229e-08
-2.42217e-07
1.46633e-07
-4.24545e-07
1.82395e-07
-6.34317e-07
2.06402e-07
-8.44657e-07
2.10272e-07
-1.04387e-06
1.96135e-07
-1.22189e-06
1.78502e-07
-1.3778e-06
1.54285e-07
-1.50482e-06
1.27337e-07
-1.60504e-06
9.98678e-08
-1.67866e-06
7.35631e-08
-1.72749e-06
4.95563e-08
-1.7566e-06
2.84335e-08
-1.76571e-06
1.06735e-08
-1.76341e-06
-3.87697e-09
-1.74539e-06
-1.57489e-08
-1.72257e-06
-2.58937e-08
-1.68506e-06
-3.43014e-08
-1.64656e-06
-4.18169e-08
-1.59347e-06
-4.82451e-08
-1.54311e-06
-5.42209e-08
-1.4768e-06
-5.89652e-08
-1.41634e-06
-6.34395e-08
-1.33925e-06
-6.65935e-08
-1.27074e-06
-7.03185e-08
-1.18455e-06
-7.31047e-08
-1.11119e-06
-7.58826e-08
-1.01964e-06
-7.61954e-08
-9.44459e-07
-7.77003e-08
-8.4931e-07
-7.89873e-08
-7.71222e-07
-8.37131e-08
-6.6896e-07
-8.64513e-08
-5.86064e-07
-9.14406e-08
-4.75519e-07
-9.53342e-08
-3.84356e-07
-1.05399e-07
-2.57861e-07
-1.14389e-07
-1.51388e-07
-1.20845e-07
-2.0578e-08
-1.20798e-07
8.80376e-08
-1.20485e-07
2.15022e-07
-1.17624e-07
3.21736e-07
-1.16041e-07
4.43332e-07
-1.12758e-07
5.46211e-07
-1.10614e-07
6.60798e-07
-1.06564e-07
7.57674e-07
-1.03985e-07
8.64812e-07
-1.00143e-07
9.55689e-07
-9.70827e-08
1.05561e-06
-9.35068e-08
1.14232e-06
-9.18966e-08
1.23714e-06
-8.84575e-08
1.32063e-06
-8.70276e-08
1.41183e-06
-8.46277e-08
1.49448e-06
-8.43734e-08
1.58429e-06
-8.40462e-08
1.66743e-06
-8.50661e-08
1.75695e-06
-8.50498e-08
1.84038e-06
-8.48941e-08
1.92766e-06
-8.39336e-08
2.00907e-06
-8.32948e-08
2.09346e-06
-8.19494e-08
2.17294e-06
-8.09592e-08
2.25385e-06
-7.91157e-08
2.32963e-06
-7.75871e-08
2.40616e-06
-7.53472e-08
2.47802e-06
-7.3482e-08
2.54983e-06
-7.07661e-08
2.6177e-06
-6.91e-08
2.68659e-06
-6.78312e-08
2.75086e-06
-6.51599e-08
2.81481e-06
-6.29797e-08
2.87654e-06
-6.24719e-08
2.93705e-06
-5.96866e-08
2.99421e-06
-5.78481e-08
3.05215e-06
-5.72389e-08
3.10684e-06
-5.5219e-08
3.16003e-06
-5.24929e-08
3.21107e-06
-5.13035e-08
3.26215e-06
-5.05168e-08
3.3108e-06
-4.90752e-08
3.3585e-06
-4.74205e-08
3.40411e-06
-4.60919e-08
3.44843e-06
-4.42825e-08
3.49122e-06
-4.34461e-08
3.53363e-06
-4.25675e-08
3.57392e-06
-4.09126e-08
3.61338e-06
-3.97169e-08
3.65121e-06
-3.8457e-08
3.68739e-06
-3.67222e-08
3.72234e-06
-3.59067e-08
3.75629e-06
-3.52128e-08
3.78957e-06
-3.43462e-08
3.82174e-06
-3.2988e-08
3.85284e-06
-3.17317e-08
3.88301e-06
-3.07911e-08
3.91205e-06
-2.96409e-08
3.94015e-06
-2.87366e-08
3.9668e-06
-2.72637e-08
3.9924e-06
-2.62662e-08
4.01779e-06
-2.60111e-08
4.04286e-06
-2.57207e-08
4.06687e-06
-2.4629e-08
4.08926e-06
-2.30591e-08
4.11113e-06
-2.24792e-08
4.13251e-06
-2.20466e-08
4.15334e-06
-2.13723e-08
4.1732e-06
-2.043e-08
4.19214e-06
-1.93317e-08
4.20993e-06
-1.81998e-08
4.22728e-06
-1.75983e-08
4.24357e-06
-1.65705e-08
4.25886e-06
-1.54371e-08
4.27353e-06
-1.48586e-08
4.28752e-06
-1.40637e-08
4.3005e-06
-1.3106e-08
4.312e-06
-1.15263e-08
4.32322e-06
-1.13031e-08
4.33483e-06
-1.16117e-08
4.34531e-06
-1.04992e-08
4.35496e-06
-9.6291e-09
4.36475e-06
-9.78656e-09
4.37384e-06
-9.11932e-09
4.3821e-06
-8.35412e-09
4.38977e-06
-7.77526e-09
4.39642e-06
-6.81212e-09
4.40286e-06
-6.56184e-09
4.40878e-06
-6.07126e-09
4.41432e-06
-5.65452e-09
4.4205e-06
-6.33786e-09
4.42555e-06
-5.16663e-09
4.42937e-06
-3.96431e-09
4.43305e-06
-3.78361e-09
4.4363e-06
-3.38971e-09
4.43899e-06
-2.7776e-09
4.44122e-06
-2.34853e-09
4.4428e-06
-1.64291e-09
4.44341e-06
-7.01406e-10
4.44345e-06
-8.90623e-11
4.44217e-06
1.23017e-09
4.44011e-06
2.06451e-09
4.43692e-06
3.20111e-09
4.43262e-06
4.3225e-09
4.42863e-06
3.98303e-09
4.42465e-06
3.96395e-09
4.42049e-06
4.10422e-09
4.4164e-06
4.02961e-09
4.41258e-06
3.71785e-09
4.40837e-06
4.12861e-09
4.40385e-06
4.39114e-09
4.39886e-06
4.8744e-09
4.39301e-06
5.68852e-09
4.38707e-06
5.80436e-09
4.38049e-06
6.39677e-09
4.37316e-06
7.1768e-09
4.36535e-06
7.60323e-09
4.3568e-06
8.38058e-09
4.34818e-06
8.39602e-09
4.33944e-06
8.55776e-09
4.3303e-06
8.92249e-09
4.32118e-06
8.9554e-09
4.31126e-06
9.72146e-09
4.30096e-06
1.01533e-08
4.29009e-06
1.06889e-08
4.27836e-06
1.15923e-08
4.26542e-06
1.27892e-08
4.25188e-06
1.34329e-08
4.23804e-06
1.36997e-08
4.22325e-06
1.46937e-08
4.20631e-06
1.68025e-08
4.18696e-06
1.92452e-08
4.16597e-06
2.08307e-08
4.14266e-06
2.31666e-08
4.11533e-06
2.71259e-08
4.08351e-06
3.16441e-08
4.04537e-06
3.79012e-08
3.99644e-06
4.87426e-08
3.93238e-06
6.38349e-08
3.84445e-06
8.77617e-08
3.72017e-06
1.24099e-07
3.52397e-06
1.96066e-07
2.6976e-07
3.25418e-06
-2.25866e-07
3.16028e-07
-4.50044e-07
3.68785e-07
-6.57449e-07
3.89939e-07
-8.41304e-07
3.88087e-07
-9.92655e-07
3.6162e-07
-1.11383e-06
3.15625e-07
-1.20075e-06
2.6543e-07
-1.26223e-06
2.14834e-07
-1.30153e-06
1.66712e-07
-1.32462e-06
1.22732e-07
-1.33469e-06
8.35953e-08
-1.33409e-06
4.93329e-08
-1.32542e-06
1.95495e-08
-1.30748e-06
-6.51094e-09
-1.28228e-06
-2.96048e-08
-1.24697e-06
-5.01168e-08
-1.20552e-06
-6.8364e-08
-1.15431e-06
-8.45047e-08
-1.09847e-06
-9.88412e-08
-1.03334e-06
-1.1158e-07
-9.65509e-07
-1.23102e-07
-8.88889e-07
-1.33329e-07
-8.10282e-07
-1.42405e-07
-7.22896e-07
-1.50312e-07
-6.35427e-07
-1.57726e-07
-5.39958e-07
-1.64694e-07
-4.43702e-07
-1.71697e-07
-3.37262e-07
-1.78383e-07
-2.29469e-07
-1.84751e-07
-1.15279e-07
-1.9023e-07
-2.94903e-09
-1.95577e-07
1.13113e-07
-2.00359e-07
2.26262e-07
-2.04529e-07
3.40448e-07
-2.08215e-07
4.46646e-07
-2.12303e-07
5.49126e-07
-2.15863e-07
6.4542e-07
-2.18162e-07
7.44294e-07
-2.18536e-07
8.40703e-07
-2.17727e-07
9.40307e-07
-2.15838e-07
1.03737e-06
-2.13647e-07
1.13684e-06
-2.10741e-07
1.23328e-06
-2.07486e-07
1.33153e-06
-2.03462e-07
1.42611e-06
-1.99136e-07
1.52109e-06
-1.94048e-07
1.61209e-06
-1.88734e-07
1.70345e-06
-1.83711e-07
1.79079e-06
-1.79799e-07
1.87961e-06
-1.7603e-07
1.96609e-06
-1.73557e-07
2.05435e-06
-1.71059e-07
2.13921e-06
-1.68878e-07
2.22402e-06
-1.6726e-07
2.30567e-06
-1.66421e-07
2.38836e-06
-1.6621e-07
2.4696e-06
-1.659e-07
2.5518e-06
-1.65042e-07
2.632e-06
-1.63431e-07
2.71202e-06
-1.61042e-07
2.78953e-06
-1.58436e-07
2.86612e-06
-1.55082e-07
2.93996e-06
-1.51584e-07
3.01276e-06
-1.47774e-07
3.08302e-06
-1.43945e-07
3.15262e-06
-1.40008e-07
3.21981e-06
-1.36376e-07
3.28525e-06
-1.32896e-07
3.3493e-06
-1.29226e-07
3.41225e-06
-1.25616e-07
3.47221e-06
-1.22491e-07
3.53172e-06
-1.18976e-07
3.58943e-06
-1.15669e-07
3.64507e-06
-1.1274e-07
3.69935e-06
-1.09563e-07
3.75325e-06
-1.06184e-07
3.80528e-06
-1.03338e-07
3.85562e-06
-1.00753e-07
3.90459e-06
-9.8156e-08
3.95267e-06
-9.55061e-08
3.99932e-06
-9.29529e-08
4.04512e-06
-9.02574e-08
4.08925e-06
-8.79e-08
4.13205e-06
-8.56189e-08
4.17394e-06
-8.31638e-08
4.21469e-06
-8.07674e-08
4.25418e-06
-7.83071e-08
4.29282e-06
-7.58131e-08
4.32972e-06
-7.36131e-08
4.36505e-06
-7.15472e-08
4.39946e-06
-6.96204e-08
4.43339e-06
-6.75638e-08
4.46659e-06
-6.54616e-08
4.49881e-06
-6.35026e-08
4.53011e-06
-6.14482e-08
4.5602e-06
-5.93372e-08
4.58969e-06
-5.72907e-08
4.61848e-06
-5.55933e-08
4.64592e-06
-5.40004e-08
4.67207e-06
-5.24143e-08
4.69753e-06
-5.06468e-08
4.7226e-06
-4.86605e-08
4.74657e-06
-4.70245e-08
4.76954e-06
-4.55381e-08
4.79173e-06
-4.40814e-08
4.81336e-06
-4.24876e-08
4.83414e-06
-4.05124e-08
4.8543e-06
-3.8649e-08
4.87345e-06
-3.70213e-08
4.89186e-06
-3.51819e-08
4.90965e-06
-3.34033e-08
4.92648e-06
-3.18068e-08
4.94258e-06
-3.02729e-08
4.95812e-06
-2.871e-08
4.97346e-06
-2.69332e-08
4.98786e-06
-2.57384e-08
5.00107e-06
-2.48487e-08
5.01416e-06
-2.35839e-08
5.02689e-06
-2.23468e-08
5.03854e-06
-2.14366e-08
5.04963e-06
-2.02504e-08
5.06007e-06
-1.88813e-08
5.06978e-06
-1.76108e-08
5.07931e-06
-1.64699e-08
5.08825e-06
-1.56387e-08
5.09672e-06
-1.46737e-08
5.10471e-06
-1.37724e-08
5.11146e-06
-1.32089e-08
5.11792e-06
-1.17596e-08
5.12428e-06
-1.04514e-08
5.1302e-06
-9.82255e-09
5.13574e-06
-9.04916e-09
5.14054e-06
-7.67564e-09
5.14448e-06
-6.38933e-09
5.14812e-06
-5.36527e-09
5.15163e-06
-4.28687e-09
5.15487e-06
-3.39017e-09
5.15811e-06
-2.0367e-09
5.16102e-06
-8.40879e-10
5.16387e-06
3.81864e-10
5.16672e-06
1.49971e-09
5.16886e-06
1.84592e-09
5.17049e-06
2.31531e-09
5.17166e-06
2.87346e-09
5.17202e-06
3.59461e-09
5.17122e-06
4.41184e-09
5.17014e-06
5.09922e-09
5.16897e-06
5.41043e-09
5.16753e-06
6.15815e-09
5.16591e-06
7.13037e-09
5.16396e-06
7.57174e-09
5.16177e-06
8.36798e-09
5.15907e-06
9.67067e-09
5.15567e-06
1.07611e-08
5.15198e-06
1.18282e-08
5.14765e-06
1.24685e-08
5.14248e-06
1.34747e-08
5.13696e-06
1.41774e-08
5.13082e-06
1.48614e-08
5.12445e-06
1.5838e-08
5.11789e-06
1.65004e-08
5.11089e-06
1.74607e-08
5.10336e-06
1.8929e-08
5.09549e-06
2.04627e-08
5.08684e-06
2.19073e-08
5.07668e-06
2.3672e-08
5.06608e-06
2.51381e-08
5.0549e-06
2.78047e-08
5.0431e-06
3.08741e-08
5.03002e-06
3.3694e-08
5.01488e-06
3.80802e-08
4.99761e-06
4.41108e-08
4.97848e-06
5.04812e-08
4.95731e-06
5.87376e-08
4.9329e-06
7.28419e-08
4.90384e-06
9.25447e-08
4.86791e-06
1.23383e-07
4.82288e-06
1.68804e-07
4.76121e-06
2.5748e-07
3.77057e-07
4.65381e-06
-2.0549e-07
5.21746e-07
-3.9533e-07
5.57289e-07
-5.5044e-07
5.45191e-07
-6.73812e-07
5.10088e-07
-7.67377e-07
4.55135e-07
-8.42639e-07
3.8966e-07
-9.00101e-07
3.22877e-07
-9.44586e-07
2.58574e-07
-9.76482e-07
1.98522e-07
-9.97384e-07
1.43449e-07
-1.00732e-06
9.34802e-08
-1.00614e-06
4.84335e-08
-9.94527e-07
7.85252e-09
-9.71813e-07
-2.86433e-08
-9.40169e-07
-6.14821e-08
-8.98556e-07
-9.10051e-08
-8.49915e-07
-1.17527e-07
-7.92345e-07
-1.41286e-07
-7.2929e-07
-1.62582e-07
-6.58266e-07
-1.81661e-07
-5.83262e-07
-1.98764e-07
-5.01214e-07
-2.14149e-07
-4.1593e-07
-2.28202e-07
-3.23523e-07
-2.41155e-07
-2.28332e-07
-2.53084e-07
-1.27715e-07
-2.63761e-07
-2.61929e-08
-2.73205e-07
7.85804e-08
-2.81504e-07
1.8277e-07
-2.88735e-07
2.8896e-07
-2.94964e-07
3.93901e-07
-3.00339e-07
4.99692e-07
-3.04879e-07
6.03815e-07
-3.08548e-07
7.08151e-07
-3.11466e-07
8.09564e-07
-3.13744e-07
9.10027e-07
-3.15279e-07
1.00775e-06
-3.15871e-07
1.10574e-06
-3.15393e-07
1.20211e-06
-3.13956e-07
1.29919e-06
-3.1171e-07
1.39467e-06
-3.08895e-07
1.49059e-06
-3.05508e-07
1.58487e-06
-3.01588e-07
1.67944e-06
-2.97078e-07
1.77234e-06
-2.92061e-07
1.86554e-06
-2.86601e-07
1.95742e-06
-2.80796e-07
2.04916e-06
-2.74969e-07
2.13867e-06
-2.69472e-07
2.22737e-06
-2.64266e-07
2.31342e-06
-2.59591e-07
2.39846e-06
-2.55401e-07
2.48155e-06
-2.51744e-07
2.56399e-06
-2.49008e-07
2.64483e-06
-2.47006e-07
2.72487e-06
-2.4555e-07
2.80326e-06
-2.43974e-07
2.88067e-06
-2.41812e-07
2.95646e-06
-2.3891e-07
3.03117e-06
-2.35119e-07
3.10407e-06
-2.30975e-07
3.17571e-06
-2.26177e-07
3.24543e-06
-2.21017e-07
3.31385e-06
-2.15764e-07
3.38061e-06
-2.10448e-07
3.44611e-06
-2.05126e-07
3.50991e-06
-1.99932e-07
3.57219e-06
-1.94834e-07
3.63298e-06
-1.8983e-07
3.69249e-06
-1.84908e-07
3.75023e-06
-1.8015e-07
3.80674e-06
-1.75391e-07
3.86186e-06
-1.70795e-07
3.9155e-06
-1.66356e-07
3.96784e-06
-1.61924e-07
4.01922e-06
-1.57536e-07
4.06928e-06
-1.53409e-07
4.11799e-06
-1.49482e-07
4.16538e-06
-1.4563e-07
4.21158e-06
-1.4179e-07
4.25652e-06
-1.38034e-07
4.3004e-06
-1.34301e-07
4.34303e-06
-1.3074e-07
4.38446e-06
-1.27264e-07
4.42483e-06
-1.23764e-07
4.46407e-06
-1.20235e-07
4.50221e-06
-1.16683e-07
4.53933e-06
-1.13277e-07
4.57512e-06
-1.10018e-07
4.60963e-06
-1.06855e-07
4.64317e-06
-1.03862e-07
4.67601e-06
-1.00872e-07
4.70798e-06
-9.78592e-08
4.73908e-06
-9.49604e-08
4.76931e-06
-9.20943e-08
4.79871e-06
-8.91265e-08
4.82731e-06
-8.63395e-08
4.85501e-06
-8.37102e-08
4.88169e-06
-8.11336e-08
4.90734e-06
-7.84926e-08
4.9321e-06
-7.58711e-08
4.95628e-06
-7.32627e-08
4.97951e-06
-7.0731e-08
5.00188e-06
-6.83164e-08
5.02336e-06
-6.59999e-08
5.04416e-06
-6.36211e-08
5.06426e-06
-6.09451e-08
5.08368e-06
-5.82979e-08
5.10236e-06
-5.59316e-08
5.12047e-06
-5.34331e-08
5.13787e-06
-5.09579e-08
5.15468e-06
-4.87004e-08
5.17076e-06
-4.64495e-08
5.18612e-06
-4.41002e-08
5.20106e-06
-4.19294e-08
5.21541e-06
-4.00956e-08
5.22883e-06
-3.8286e-08
5.2417e-06
-3.64319e-08
5.25392e-06
-3.45615e-08
5.26533e-06
-3.28468e-08
5.27623e-06
-3.12026e-08
5.28674e-06
-2.94654e-08
5.29679e-06
-2.77859e-08
5.30636e-06
-2.61598e-08
5.3153e-06
-2.47061e-08
5.32361e-06
-2.30995e-08
5.33138e-06
-2.1665e-08
5.33857e-06
-2.04948e-08
5.34542e-06
-1.87255e-08
5.35184e-06
-1.69694e-08
5.35751e-06
-1.56016e-08
5.36272e-06
-1.43333e-08
5.36773e-06
-1.27814e-08
5.37238e-06
-1.10973e-08
5.37645e-06
-9.50989e-09
5.38011e-06
-7.99709e-09
5.38332e-06
-6.64428e-09
5.3862e-06
-4.93008e-09
5.38861e-06
-3.23477e-09
5.39084e-06
-1.82707e-09
5.39297e-06
-6.00562e-10
5.39446e-06
3.68827e-10
5.39542e-06
1.33148e-09
5.39627e-06
1.99463e-09
5.39707e-06
2.73143e-09
5.39713e-06
4.29107e-09
5.39665e-06
5.48937e-09
5.39573e-06
6.24368e-09
5.39429e-06
7.48913e-09
5.39236e-06
8.9528e-09
5.39014e-06
9.67706e-09
5.38814e-06
1.02482e-08
5.38584e-06
1.18391e-08
5.38286e-06
1.3618e-08
5.37979e-06
1.47593e-08
5.3763e-06
1.58335e-08
5.37245e-06
1.71926e-08
5.36823e-06
1.82872e-08
5.3631e-06
1.98779e-08
5.35769e-06
2.1139e-08
5.35193e-06
2.21618e-08
5.34573e-06
2.35681e-08
5.33928e-06
2.53023e-08
5.33233e-06
2.73299e-08
5.32466e-06
2.95137e-08
5.31605e-06
3.22116e-08
5.30654e-06
3.45932e-08
5.29627e-06
3.80095e-08
5.28504e-06
4.2048e-08
5.27277e-06
4.59002e-08
5.25939e-06
5.13858e-08
5.24419e-06
5.92247e-08
5.22646e-06
6.81257e-08
5.20543e-06
7.96851e-08
5.18118e-06
9.70023e-08
5.153e-06
1.2066e-07
5.11892e-06
1.57397e-07
5.07741e-06
2.10227e-07
5.03414e-06
3.00645e-07
4.30245e-07
4.98087e-06
-1.55794e-07
6.77926e-07
-2.95017e-07
6.95773e-07
-4.07069e-07
6.57483e-07
-4.97417e-07
5.99356e-07
-5.70405e-07
5.28165e-07
-6.3297e-07
4.5133e-07
-6.84447e-07
3.74238e-07
-7.26086e-07
2.99648e-07
-7.5651e-07
2.28925e-07
-7.75932e-07
1.62703e-07
-7.83734e-07
1.01266e-07
-7.79649e-07
4.46117e-08
-7.64489e-07
-7.31432e-09
-7.37992e-07
-5.45572e-08
-7.02183e-07
-9.73748e-08
-6.56382e-07
-1.36064e-07
-6.03216e-07
-1.70952e-07
-5.41427e-07
-2.02331e-07
-4.73992e-07
-2.30507e-07
-3.98956e-07
-2.55866e-07
-3.19514e-07
-2.78792e-07
-2.33342e-07
-2.9951e-07
-1.44008e-07
-3.18034e-07
-4.97924e-08
-3.34464e-07
4.56796e-08
-3.48979e-07
1.4457e-07
-3.61659e-07
2.43708e-07
-3.72572e-07
3.45174e-07
-3.81858e-07
4.461e-07
-3.89666e-07
5.48457e-07
-3.96164e-07
6.49736e-07
-4.01478e-07
7.51769e-07
-4.05721e-07
8.52372e-07
-4.0894e-07
9.53289e-07
-4.11215e-07
1.0524e-06
-4.1259e-07
1.15141e-06
-4.13097e-07
1.24858e-06
-4.127e-07
1.34582e-06
-4.114e-07
1.44153e-06
-4.09259e-07
1.53742e-06
-4.06366e-07
1.63176e-06
-4.02831e-07
1.72608e-06
-3.98704e-07
1.81882e-06
-3.94038e-07
1.91146e-06
-3.88838e-07
2.00263e-06
-3.83147e-07
2.09366e-06
-3.77064e-07
2.1834e-06
-3.70675e-07
2.27289e-06
-3.64115e-07
2.36074e-06
-3.57554e-07
2.44779e-06
-3.51088e-07
2.53291e-06
-3.44872e-07
2.61681e-06
-3.39034e-07
2.69873e-06
-3.3369e-07
2.77902e-06
-3.29026e-07
2.85714e-06
-3.25057e-07
2.93356e-06
-3.21633e-07
3.00803e-06
-3.18258e-07
3.08107e-06
-3.14436e-07
3.15248e-06
-3.10008e-07
3.22266e-06
-3.04784e-07
3.29121e-06
-2.99108e-07
3.35871e-06
-2.93126e-07
3.42495e-06
-2.86815e-07
3.49006e-06
-2.8036e-07
3.55386e-06
-2.73825e-07
3.61647e-06
-2.67267e-07
3.67768e-06
-2.60771e-07
3.73756e-06
-2.54352e-07
3.79604e-06
-2.48052e-07
3.8532e-06
-2.41857e-07
3.90897e-06
-2.35813e-07
3.9635e-06
-2.29854e-07
4.01672e-06
-2.24025e-07
4.06867e-06
-2.18324e-07
4.1194e-06
-2.12707e-07
4.16899e-06
-2.07167e-07
4.21731e-06
-2.01794e-07
4.26434e-06
-1.96581e-07
4.31009e-06
-1.91477e-07
4.35468e-06
-1.86489e-07
4.3981e-06
-1.81582e-07
4.44039e-06
-1.76734e-07
4.48148e-06
-1.71988e-07
4.52138e-06
-1.67339e-07
4.56018e-06
-1.62731e-07
4.59793e-06
-1.58165e-07
4.63469e-06
-1.53623e-07
4.67036e-06
-1.49207e-07
4.70483e-06
-1.45017e-07
4.7382e-06
-1.40871e-07
4.77063e-06
-1.36841e-07
4.80221e-06
-1.32851e-07
4.83294e-06
-1.28903e-07
4.86278e-06
-1.25112e-07
4.89175e-06
-1.2137e-07
4.91989e-06
-1.17593e-07
4.94719e-06
-1.13972e-07
4.97357e-06
-1.10443e-07
4.99906e-06
-1.0698e-07
5.02366e-06
-1.03446e-07
5.04743e-06
-9.99906e-08
5.07047e-06
-9.66673e-08
5.09272e-06
-9.33375e-08
5.11406e-06
-9.00132e-08
5.13454e-06
-8.67974e-08
5.15422e-06
-8.36062e-08
5.17335e-06
-8.03209e-08
5.19184e-06
-7.7003e-08
5.20962e-06
-7.38911e-08
5.22676e-06
-7.07163e-08
5.24328e-06
-6.75864e-08
5.25915e-06
-6.46558e-08
5.27435e-06
-6.17231e-08
5.28898e-06
-5.87713e-08
5.30304e-06
-5.60199e-08
5.31645e-06
-5.35233e-08
5.32917e-06
-5.10146e-08
5.34129e-06
-4.85347e-08
5.3528e-06
-4.60653e-08
5.36369e-06
-4.37549e-08
5.37403e-06
-4.16088e-08
5.38386e-06
-3.93807e-08
5.3932e-06
-3.72409e-08
5.40202e-06
-3.50943e-08
5.41032e-06
-3.3127e-08
5.41814e-06
-3.10319e-08