/*--------------------------------*- C++ -*----------------------------------*\
  =========                 |
  \\      /  F ield         | OpenFOAM: The Open Source CFD Toolbox
   \\    /   O peration     | Website:  https://openfoam.org
    \\  /    A nd           | Version:  9
     \\/     M anipulation  |
\*---------------------------------------------------------------------------*/
FoamFile
{
    format      ascii;
    class       volScalarField;
    location    "7";
    object      p;
}
// * * * * * * * * * * * * * * * * * * * * * * * * * * * * * * * * * * * * * //

dimensions      [0 2 -2 0 0 0 0];

internalField   nonuniform List<scalar> 
918
(
23.7318
23.9944
1.03472
23.1454
1.01876
23.5109
3.69082
14.204
19.5034
3.20207
2.86929
14.7002
21.0539
17.2951
13.4176
0.995685
14.4591
2.49494
18.7178
1.40717
13.4343
20.7104
21.7993
19.5472
14.455
14.7659
19.0162
1.2611
0.113582
0.324201
0.965859
0.441099
0.213495
22.0478
22.7244
22.6628
15.7659
10.6461
4.05089
4.27606
3.39718
3.18174
14.2417
14.3431
6.3481
14.1848
14.1806
16.9087
19.3712
19.5145
19.8096
19.5976
19.9843
6.05207
3.07094
2.88734
3.19658
3.26331
3.0942
2.96721
2.96264
2.73947
2.58989
14.1907
14.7753
14.8251
14.5757
14.5292
22.8705
22.1135
22.4483
21.5546
21.7
20.63
20.2444
17.6709
18.0234
16.8968
16.5157
13.1981
13.1461
13.6508
13.8928
0.153862
1.15861
1.30607
14.4628
14.4925
14.5053
14.5185
8.45353
2.47787
2.49238
18.1583
17.7344
20.7409
21.0078
20.4547
20.2692
1.58459
1.63531
1.18894
1.21141
0.984509
13.753
13.9078
19.4986
18.6659
14.4759
14.3835
14.4478
11.8492
14.2506
14.3333
15.742
16.1944
15.3778
15.8194
18.5862
18.1682
19.4527
19.89
0.434761
0.166222
0.769719
0.397845
0.598854
15.635
15.4331
15.8673
15.9311
16.1612
10.6482
10.5684
10.6263
10.5444
4.63787
4.95602
2.58216
2.93425
2.75681
10.0862
14.3596
14.4005
5.30527
5.99836
5.66596
6.82362
7.20202
16.2764
16.7113
16.4511
17.9949
17.2004
17.5484
20.0727
19.5627
19.8628
6.45116
6.71855
5.69335
5.3447
2.51048
2.75988
2.69264
3.2927
3.2729
3.32671
3.47532
2.81856
2.67321
3.20406
3.06673
3.13231
2.40758
2.25981
13.9248
13.7197
14.4475
14.6245
15.3603
15.2182
14.9374
15.0986
19.4395
19.8429
19.8764
19.4923
11.8713
10.3655
14.1522
14.4229
0.313716
0.267293
0.144914
0.404089
0.400144
0.165598
2.09585
1.90577
1.4879
1.75409
14.4537
14.4118
8.6934
8.91672
8.28601
8.02442
16.5704
16.7214
17.3562
16.9554
2.14372
1.81056
1.96928
14.0712
13.938
14.0527
11.3011
10.748
12.3219
12.5977
14.386
14.401
14.4075
16.1003
16.4185
20.2408
20.5115
20.3384
20.7242
21.787
21.4382
21.0535
14.8287
15.2259
15.0706
16.3838
16.0177
16.2367
15.4499
15.7512
15.6092
10.5968
10.6438
10.3496
10.4284
10.4844
10.4293
10.0148
9.88591
14.4825
14.4374
14.463
7.71271
8.1942
4.97078
4.65123
12.8855
13.5381
13.2197
19.0692
18.3916
19.1245
18.7537
18.3037
18.6272
10.653
10.6067
10.6449
15.3388
14.6822
15.0307
2.54478
2.17221
2.3416
9.11501
9.20975
7.09377
7.73328
7.39673
16.7198
17.0602
17.7403
16.8522
17.3197
17.8269
17.605
10.1648
10.3029
10.2168
9.86543
9.75441
10.118
8.75703
9.3488
3.73453
4.37306
4.07681
9.37861
9.62372
9.46745
18.8929
19.4275
0.804403
1.2551
19.8543
19.5775
0.177867
0.314207
14.673
12.9209
7.72056
17.454
16.8961
19.2305
3.41398
6.21965
3.02647
3.49945
2.77581
14.8879
14.5482
13.6567
0.488257
1.30552
1.75621
3.14549
18.6734
17.9989
19.1126
19.4335
19.4873
0.702924
0.947548
0.589955
1.34171
1.09475
1.32098
15.8245
15.9022
4.73944
19.1189
19.4224
19.4407
17.9148
18.8685
17.9258
0.99308
0.696388
0.776147
10.4588
12.4676
14.6364
14.1851
14.3862
14.4081
14.1592
15.2903
14.9684
14.9249
15.4061
14.3638
14.227
8.15822
6.84651
8.52173
8.17846
17.3558
16.9432
16.7591
16.5062
18.3455
17.871
18.7218
18.1088
18.5706
18.8581
3.26433
3.4152
3.26391
2.80587
6.2865
6.75951
5.62978
5.73419
4.37964
2.72553
2.77845
2.97729
2.87708
3.12766
2.79969
3.07595
2.72016
2.41457
2.40986
3.10088
2.86965
2.77256
14.8577
14.8085
14.6111
14.6558
14.6456
14.7606
13.8439
14.2398
13.8829
12.7377
13.3027
12.8522
0.816576
0.67192
0.554381
1.38771
1.4304
1.16391
0.892783
1.23257
1.20049
0.903972
1.60621
1.58938
3.46324
2.96357
9.01864
8.14144
7.0987
17.066
17.8663
17.0364
18.2739
18.6909
18.7971
18.418
17.91
15.9811
15.9783
15.6389
15.5921
5.16459
4.12182
5.38611
5.00546
10.7371
14.4461
12.1896
11.1656
11.4668
13.7152
14.3523
13.9926
14.1902
13.7202
13.2093
13.9468
13.4539
13.564
13.3022
16.1367
16.6114
16.2179
15.6382
15.6586
10.8414
12.2335
5.94728
6.08474
7.6256
6.98502
13.9273
14.3162
14.3066
13.9597
14.1621
14.1434
13.9666
14.1193
14.2495
14.1569
12.0544
10.5269
9.45699
9.44618
14.4723
12.6029
13.2088
12.6775
16.3741
16.8933
16.5065
15.9166
16.3983
15.8728
15.8895
16.0941
17.4614
17.2093
16.9817
17.3688
3.36863
3.30828
3.933
3.43577
3.32388
3.08404
3.75187
4.9886
4.65346
6.89639
7.43377
4.82812
3.75612
4.0789
5.08644
5.75089
5.75646
4.16226
4.62749
5.06561
4.59344
5.33502
4.85719
2.94545
3.23101
3.11433
3.08905
3.52481
4.00954
3.53079
2.64571
2.79814
2.51736
2.37231
3.72756
3.29598
3.32148
3.8872
1.2241
1.41715
1.5325
2.54341
2.02717
2.09505
15.4413
15.0901
15.2228
14.5209
14.6001
14.5537
14.1635
15.5141
15.2393
15.3387
14.0081
14.0986
13.9144
14.2002
14.5982
14.8891
15.713
15.43
14.6951
14.8491
14.5025
14.428
13.7723
13.2313
13.1605
1.159
0.858021
1.03273
0.982078
0.661621
0.847502
2.25694
1.66496
2.0666
1.79075
2.02542
1.51286
1.38824
4.56699
5.36473
4.33943
3.72138
3.41942
9.07269
9.19046
8.32125
8.02894
8.35933
8.59756
8.54605
7.27102
7.71466
7.52992
10.144
9.79008
17.8486
17.7934
17.4658
17.3063
17.5315
6.14726
7.91179
7.17517
8.23433
10.4453
10.7604
9.48896
8.88383
9.6497
9.69658
14.4169
14.5041
13.9504
14.4007
14.4284
12.1772
13.1579
13.7684
13.5597
14.1258
14.2162
13.3577
13.8938
13.7603
13.0648
13.1052
12.4728
12.7708
12.3123
12.1326
14.3489
14.2394
14.5078
14.0651
14.4271
14.0236
14.3129
14.3556
14.6215
13.7153
13.1379
13.1574
13.5686
13.2877
13.622
13.7776
9.48687
10.1289
10.6131
11.1723
10.8807
10.6456
10.499
10.8256
10.8124
11.0785
10.9957
10.8272
11.7687
13.8368
14.1127
14.2617
14.0084
14.0288
13.732
14.0269
13.9479
14.3081
14.3989
14.4528
13.4308
13.6539
13.8572
13.7415
11.8963
10.3654
10.2023
9.81494
7.9854
8.41545
11.283
10.2142
9.27074
9.35067
12.5101
11.1657
11.9648
12.3242
11.0202
10.6655
13.2624
14.0911
14.2935
13.972
12.3341
12.4451
12.8957
13.3522
13.5502
14.0434
16.1289
16.698
16.7775
16.5036
16.3637
16.4591
16.2053
16.3109
16.7863
16.9108
16.7412
3.16107
3.26428
3.22994
3.14955
3.3977
3.22232
4.24362
4.24268
3.43234
3.60486
3.62338
3.69911
3.24101
3.25569
4.99707
5.2403
5.51169
5.04195
6.37903
6.96559
7.5229
7.24391
5.98526
6.03786
6.33671
3.71488
3.67974
3.44034
3.86972
3.94958
2.81576
2.46586
2.25673
2.79083
2.89105
2.25687
1.92976
2.00236
2.46989
2.27679
2.01285
15.2492
15.0151
15.0314
14.8147
14.8686
15.2555
15.4719
15.2764
15.4093
15.4609
15.0738
14.9567
15.1288
1.89316
1.57499
1.71484
1.73811
1.7156
1.65387
1.81428
7.76847
6.61382
6.99355
6.2262
4.47875
4.95919
9.76962
10.1806
10.2245
9.91262
9.70403
10.0548
9.93068
9.92139
8.43568
9.49526
9.03709
9.44115
9.47986
9.54583
9.24525
9.2935
10.797
10.839
9.68229
10.3347
9.60272
8.27627
8.43939
9.36228
10.2946
10.6329
10.4827
10.1697
9.9503
10.3556
10.3814
10.4758
10.462
8.94133
8.88871
8.49091
14.3135
14.2733
14.4129
14.3785
14.5308
14.3099
14.1347
14.4178
14.4875
14.2609
11.3394
11.4114
11.6743
12.4738
12.545
12.3008
11.5696
13.4204
13.0333
13.767
13.7003
13.7168
13.2992
13.104
13.4287
10.3929
11.7408
11.2726
11.5546
10.409
9.68529
13.534
13.5762
13.6848
13.9816
13.903
14.4867
16.0965
15.9641
16.0155
16.0599
15.6699
15.7039
4.36862
4.05122
4.76502
4.73153
4.29982
4.00752
2.39807
2.11955
1.93322
1.80684
1.99325
2.07599
8.3655
8.3626
6.56762
7.54943
6.19556
5.26071
5.1446
6.22884
7.36603
7.4518
8.66217
9.35626
8.9245
8.75968
8.09157
8.4139
10.3452
10.4413
10.3397
10.6623
10.2058
12.0087
11.5794
11.9465
13.6177
13.2999
12.6662
12.5469
12.5616
13.1846
12.1921
11.4216
12.1185
12.8127
12.7749
11.3864
11.1285
11.5714
11.5151
10.414
10.9572
10.7103
11.0618
10.7462
)
;

boundaryField
{
    wall-4
    {
        type            zeroGradient;
    }
    velocity-inlet-5
    {
        type            zeroGradient;
    }
    velocity-inlet-6
    {
        type            zeroGradient;
    }
    pressure-outlet-7
    {
        type            fixedValue;
        value           uniform 0;
    }
    wall-8
    {
        type            zeroGradient;
    }
    frontAndBackPlanes
    {
        type            empty;
    }
}


// ************************************************************************* //
