# vtk DataFile Version 2.0
track0
ASCII
DATASET POLYDATA
POINTS 12030 float
-0.0205 0.001 1e-05
-0.02052 0.000999985 1e-05
-0.02054 0.000999974 1e-05
-0.02056 0.000999965 1e-05
-0.02058 0.000999959 1e-05
-0.0206 0.000999956 1e-05
-0.0205 0.00367778 1e-05
-0.02052 0.00367778 1e-05
-0.02054 0.00367777 1e-05
-0.02056 0.00367777 1e-05
-0.02058 0.00367777 1e-05
-0.0206 0.00367777 1e-05
-0.0205 0.00635556 1e-05
-0.02052 0.00635555 1e-05
-0.02054 0.00635555 1e-05
-0.02056 0.00635555 1e-05
-0.02058 0.00635555 1e-05
-0.0206 0.00635555 1e-05
-0.0205 0.00903333 1e-05
-0.02052 0.00903333 1e-05
-0.02054 0.00903333 1e-05
-0.02056 0.00903333 1e-05
-0.02058 0.00903333 1e-05
-0.0206 0.00903333 1e-05
-0.0205 0.0117111 1e-05
-0.02052 0.0117111 1e-05
-0.02054 0.0117111 1e-05
-0.02056 0.0117111 1e-05
-0.02058 0.0117111 1e-05
-0.0206 0.0117111 1e-05
-0.0205 0.0143889 1e-05
-0.02052 0.0143889 1e-05
-0.02054 0.0143889 1e-05
-0.02056 0.0143889 1e-05
-0.02058 0.0143889 1e-05
-0.0206 0.0143889 1e-05
-0.0205 0.0170667 1e-05
-0.02052 0.0170667 1e-05
-0.02054 0.0170667 1e-05
-0.02056 0.0170667 1e-05
-0.02058 0.0170667 1e-05
-0.0206 0.0170667 1e-05
-0.0205 0.0197444 1e-05
-0.02052 0.0197444 1e-05
-0.02054 0.0197444 1e-05
-0.02056 0.0197444 1e-05
-0.02058 0.0197444 1e-05
-0.0206 0.0197444 1e-05
-0.0205 0.0224222 1e-05
-0.02052 0.0224222 1e-05
-0.02054 0.0224222 1e-05
-0.02056 0.0224222 1e-05
-0.02058 0.0224222 1e-05
-0.0206 0.0224222 1e-05
-0.0205 0.0251 1e-05
-0.02052 0.0250998 1e-05
-0.02054 0.0250997 1e-05
-0.02056 0.0250995 1e-05
-0.02058 0.0250995 1e-05
-0.0206 0.0250994 1e-05
-0.0205 0.001 1e-05
-0.0202034 0.00100022 1e-05
-0.0199069 0.00100067 1e-05
-0.0196103 0.00100133 1e-05
-0.0193137 0.00100219 1e-05
-0.0190172 0.00100326 1e-05
-0.0187132 0.00100467 1e-05
-0.0184093 0.00100589 1e-05
-0.0181054 0.00100711 1e-05
-0.0178015 0.00100833 1e-05
-0.0174976 0.00100954 1e-05
-0.0172058 0.00101084 1e-05
-0.016914 0.00101194 1e-05
-0.0166222 0.00101304 1e-05
-0.0163305 0.00101414 1e-05
-0.0160387 0.00101523 1e-05
-0.0157586 0.00101637 1e-05
-0.0154784 0.00101745 1e-05
-0.0151983 0.00101857 1e-05
-0.0149182 0.00101972 1e-05
-0.0146381 0.00102091 1e-05
-0.0143752 0.00102209 1e-05
-0.0141122 0.00102328 1e-05
-0.0138493 0.00102449 1e-05
-0.0135864 0.00102574 1e-05
-0.0133643 0.00102682 1e-05
-0.0133502 0.00102689 1e-05
-0.013336 0.00102696 1e-05
-0.0133218 0.00102703 1e-05
-0.0133076 0.0010271 1e-05
-0.0132934 0.00102717 1e-05
-0.0130353 0.00102846 1e-05
-0.0127771 0.00102976 1e-05
-0.0125189 0.00103108 1e-05
-0.0122607 0.00103242 1e-05
-0.0120025 0.00103377 1e-05
-0.0117547 0.00103508 1e-05
-0.0115068 0.0010364 1e-05
-0.0112589 0.00103772 1e-05
-0.0110111 0.00103905 1e-05
-0.0107632 0.00104038 1e-05
-0.0105252 0.00104166 1e-05
-0.0102873 0.00104294 1e-05
-0.0100493 0.00104422 1e-05
-0.00981133 0.0010455 1e-05
-0.00957337 0.00104678 1e-05
-0.00934491 0.00104801 1e-05
-0.00911645 0.00104923 1e-05
-0.00888799 0.00105045 1e-05
-0.00865954 0.00105167 1e-05
-0.00843108 0.00105289 1e-05
-0.00821175 0.00105405 1e-05
-0.00799242 0.00105521 1e-05
-0.00777309 0.00105637 1e-05
-0.00755376 0.00105752 1e-05
-0.00733443 0.00105868 1e-05
-0.00712387 0.00105977 1e-05
-0.0069133 0.00106087 1e-05
-0.00670273 0.00106196 1e-05
-0.00649216 0.00106305 1e-05
-0.0062816 0.00106413 1e-05
-0.00607944 0.00106516 1e-05
-0.00587729 0.0010662 1e-05
-0.00567514 0.00106723 1e-05
-0.00547298 0.00106825 1e-05
-0.00527083 0.00106927 1e-05
-0.00507675 0.00107025 1e-05
-0.00488267 0.00107122 1e-05
-0.0046886 0.00107219 1e-05
-0.00449452 0.00107316 1e-05
-0.00430044 0.00107413 1e-05
-0.00411412 0.00107505 1e-05
-0.0039278 0.00107597 1e-05
-0.00374147 0.00107689 1e-05
-0.00355515 0.0010778 1e-05
-0.00336883 0.00107872 1e-05
-0.00318995 0.00107959 1e-05
-0.00301107 0.00108047 1e-05
-0.00283219 0.00108134 1e-05
-0.00265331 0.00108222 1e-05
-0.00247443 0.00108309 1e-05
-0.0023027 0.00108393 1e-05
-0.00213097 0.00108477 1e-05
-0.00195924 0.00108561 1e-05
-0.0017875 0.00108646 1e-05
-0.00161577 0.00108731 1e-05
-0.0014509 0.00108811 1e-05
-0.00128603 0.00108893 1e-05
-0.00112116 0.00108975 1e-05
-0.00095629 0.00109058 1e-05
-0.000791418 0.00109142 1e-05
-0.000633135 0.00109223 1e-05
-0.000474851 0.00109305 1e-05
-0.000316568 0.00109388 1e-05
-0.000158284 0.00109471 1e-05
0 0.00109555 1e-05
0.000105677 0.00109612 1e-05
0.000211355 0.00109668 1e-05
0.000317032 0.00109725 1e-05
0.00042271 0.00109782 1e-05
0.000528387 0.00109838 1e-05
0.000634886 0.00109895 1e-05
0.000741385 0.00109951 1e-05
0.000847885 0.00110007 1e-05
0.000954384 0.00110063 1e-05
0.00106088 0.00110118 1e-05
0.00116821 0.00110172 1e-05
0.00127554 0.00110226 1e-05
0.00138286 0.0011028 1e-05
0.00149019 0.00110332 1e-05
0.00159752 0.00110383 1e-05
0.00170568 0.00110434 1e-05
0.00181384 0.00110485 1e-05
0.001922 0.00110534 1e-05
0.00203016 0.00110582 1e-05
0.00213833 0.00110629 1e-05
0.00224733 0.00110675 1e-05
0.00235633 0.00110721 1e-05
0.00246533 0.00110766 1e-05
0.00257434 0.0011081 1e-05
0.00268334 0.00110852 1e-05
0.00279319 0.00110894 1e-05
0.00290304 0.00110935 1e-05
0.00301289 0.00110976 1e-05
0.00312274 0.00111016 1e-05
0.00323259 0.00111054 1e-05
0.00334329 0.00111092 1e-05
0.003454 0.00111129 1e-05
0.0035647 0.00111166 1e-05
0.0036754 0.00111201 1e-05
0.00378611 0.00111236 1e-05
0.00389767 0.00111269 1e-05
0.00400924 0.00111303 1e-05
0.0041208 0.00111335 1e-05
0.00423237 0.00111367 1e-05
0.00434393 0.00111397 1e-05
0.00445636 0.00111427 1e-05
0.00456879 0.00111456 1e-05
0.00468123 0.00111484 1e-05
0.00479366 0.00111512 1e-05
0.00490609 0.00111538 1e-05
0.0050194 0.00111564 1e-05
0.0051327 0.00111589 1e-05
0.00524601 0.00111613 1e-05
0.00535932 0.00111637 1e-05
0.00547262 0.00111659 1e-05
0.00558681 0.00111681 1e-05
0.005701 0.00111702 1e-05
0.00581518 0.00111722 1e-05
0.00592937 0.00111741 1e-05
0.00604356 0.0011176 1e-05
0.00615863 0.00111777 1e-05
0.00627371 0.00111795 1e-05
0.00638878 0.00111811 1e-05
0.00650386 0.00111826 1e-05
0.00661893 0.00111841 1e-05
0.0067349 0.00111854 1e-05
0.00685087 0.00111867 1e-05
0.00696684 0.0011188 1e-05
0.00708281 0.00111891 1e-05
0.00719878 0.00111901 1e-05
0.00731565 0.00111911 1e-05
0.00743252 0.0011192 1e-05
0.00754939 0.00111928 1e-05
0.00766626 0.00111935 1e-05
0.00778313 0.00111942 1e-05
0.00784573 0.00111945 1e-05
0.00790833 0.00111947 1e-05
0.00797093 0.0011195 1e-05
0.00803353 0.00111952 1e-05
0.00809414 0.00111954 1e-05
0.00814972 0.00111956 1e-05
0.0082053 0.00111957 1e-05
0.00826088 0.00111958 1e-05
0.00831645 0.00111959 1e-05
0.00837203 0.0011196 1e-05
0.00849073 0.00111961 1e-05
0.00860942 0.00111961 1e-05
0.00872812 0.00111961 1e-05
0.00884682 0.0011196 1e-05
0.00896551 0.00111957 1e-05
0.00908513 0.00111954 1e-05
0.00920475 0.0011195 1e-05
0.00932437 0.00111945 1e-05
0.00944398 0.00111939 1e-05
0.0095636 0.00111932 1e-05
0.00968415 0.00111924 1e-05
0.0098047 0.00111915 1e-05
0.00992525 0.00111906 1e-05
0.0100458 0.00111895 1e-05
0.0101663 0.00111884 1e-05
0.0102878 0.0011187 1e-05
0.0104093 0.00111857 1e-05
0.0105308 0.00111842 1e-05
0.0106523 0.00111827 1e-05
0.0107738 0.00111811 1e-05
0.0108962 0.00111792 1e-05
0.0110186 0.00111774 1e-05
0.0111411 0.00111755 1e-05
0.0112635 0.00111734 1e-05
0.0113859 0.00111713 1e-05
0.0115093 0.0011169 1e-05
0.0116327 0.00111666 1e-05
0.0117561 0.00111642 1e-05
0.0118795 0.00111616 1e-05
0.0120028 0.0011159 1e-05
0.0121272 0.00111561 1e-05
0.0122515 0.00111532 1e-05
0.0123759 0.00111502 1e-05
0.0125002 0.00111472 1e-05
0.0126245 0.0011144 1e-05
0.0127498 0.00111406 1e-05
0.0128752 0.00111372 1e-05
0.0130005 0.00111336 1e-05
0.0131258 0.001113 1e-05
0.0132511 0.00111263 1e-05
0.0133774 0.00111223 1e-05
0.0135036 0.00111183 1e-05
0.0136299 0.00111142 1e-05
0.0137562 0.001111 1e-05
0.0138825 0.00111057 1e-05
0.0140098 0.00111012 1e-05
0.014137 0.00110967 1e-05
0.0142643 0.0011092 1e-05
0.0143915 0.00110872 1e-05
0.0145188 0.00110823 1e-05
0.0146471 0.00110772 1e-05
0.0147753 0.00110721 1e-05
0.0149036 0.00110668 1e-05
0.0150318 0.00110614 1e-05
0.0151601 0.0011056 1e-05
0.0152893 0.00110503 1e-05
0.0154186 0.00110446 1e-05
0.0155478 0.00110387 1e-05
0.0156771 0.00110327 1e-05
0.0158063 0.00110266 1e-05
0.0159366 0.00110204 1e-05
0.0160668 0.0011014 1e-05
0.0161971 0.00110075 1e-05
0.0163273 0.00110009 1e-05
0.0164576 0.00109942 1e-05
0.0165889 0.00109874 1e-05
0.0167201 0.00109804 1e-05
0.0168514 0.00109733 1e-05
0.0169827 0.00109661 1e-05
0.0171139 0.00109587 1e-05
0.0172462 0.00109513 1e-05
0.0173785 0.00109437 1e-05
0.0175108 0.0010936 1e-05
0.0176431 0.00109281 1e-05
0.0177754 0.00109202 1e-05
0.0179087 0.00109121 1e-05
0.018042 0.00109039 1e-05
0.0181753 0.00108955 1e-05
0.0183087 0.0010887 1e-05
0.018442 0.00108784 1e-05
0.0185763 0.00108698 1e-05
0.0187107 0.00108609 1e-05
0.018845 0.00108518 1e-05
0.0189794 0.00108426 1e-05
0.0191137 0.00108334 1e-05
0.0192491 0.00108242 1e-05
0.0193845 0.00108147 1e-05
0.0195199 0.00108049 1e-05
0.0196553 0.0010795 1e-05
0.0197907 0.00107852 1e-05
0.0199272 0.00107753 1e-05
0.0200636 0.00107651 1e-05
0.0202001 0.00107547 1e-05
0.0203365 0.00107441 1e-05
0.020473 0.00107336 1e-05
0.0206105 0.00107231 1e-05
0.020748 0.00107123 1e-05
0.0208855 0.00107012 1e-05
0.021023 0.00106899 1e-05
0.0211606 0.00106788 1e-05
0.0212991 0.00106676 1e-05
0.0214377 0.00106561 1e-05
0.0215763 0.00106443 1e-05
0.0217149 0.00106324 1e-05
0.0218535 0.00106206 1e-05
0.0219931 0.00106087 1e-05
0.0221328 0.00105966 1e-05
0.0222724 0.00105841 1e-05
0.0224121 0.00105715 1e-05
0.0225517 0.0010559 1e-05
0.0226925 0.00105464 1e-05
0.0228332 0.00105336 1e-05
0.022974 0.00105204 1e-05
0.0231147 0.00105071 1e-05
0.0232555 0.00104939 1e-05
0.0233973 0.00104807 1e-05
0.0235391 0.00104671 1e-05
0.023681 0.00104533 1e-05
0.0238228 0.00104393 1e-05
0.0239647 0.00104253 1e-05
0.0241076 0.00104114 1e-05
0.0242505 0.00103971 1e-05
0.0243935 0.00103825 1e-05
0.0245364 0.00103678 1e-05
0.0246794 0.00103532 1e-05
0.0248234 0.00103385 1e-05
0.0249675 0.00103235 1e-05
0.0251115 0.00103082 1e-05
0.0252556 0.00102928 1e-05
[...]
POINT_DATA 12030
 FIELD attributes 1
U 3 12030 float
10.0004 	0.00734863 	0 10.0004 	0.0058789 	0 10.0003 	0.00440918 	0 10.0002 	0.00293945 	0 10.0001 	0.00146972 	0 10 	0 	0
10.0001 	0.000880196 	0 10 	0.000704157 	0 10 	0.000528118 	0 10 	0.000352079 	0 10 	0.000176039 	0 10 	0 	0
10.0001 	0.000469032 	0 10.0001 	0.000375037 	0 10.0001 	0.000281043 	0 10 	0.000187048 	0 10 	9.30525e-05 	0 10 	0 	0
10 	0.000269852 	0 10 	0.000215882 	0 10 	0.000161911 	0 10 	0.000107941 	0 10 	5.39705e-05 	0 10 	0 	0
10 	8.42217e-05 	0 10 	6.73773e-05 	0 10 	5.0533e-05 	0 10 	3.36887e-05 	0 10 	1.68443e-05 	0 10 	0 	0
10 	-2.27408e-05 	0 10 	-1.81927e-05 	0 10 	-1.36445e-05 	0 10 	-9.09633e-06 	0 10 	-4.54817e-06 	0 10 	0 	0
10 	-0.000213579 	0 10 	-0.000170863 	0 10 	-0.000128148 	0 10 	-8.54317e-05 	0 10 	-4.27159e-05 	0 10 	0 	0
10 	-0.000375958 	0 10 	-0.000300766 	0 10 	-0.000225575 	0 10 	-0.000150383 	0 10 	-7.51916e-05 	0 10 	0 	0
9.99999 	-0.000425439 	0 9.99999 	-0.000340351 	0 9.99999 	-0.000255264 	0 10 	-0.000170176 	0 10 	-8.50878e-05 	0 10 	0 	0
9.17387 	0.0871274 	0 9.1308 	0.0697019 	0 9.08741 	0.0522761 	0 9.04368 	0.0348502 	0 8.99963 	0.017424 	0 8.95524 	0 	0
10.0004 	0.00734863 	0 10.0024 	0.015208 	0 10.0045 	0.0222311 	0 10.0065 	0.0292096 	0 10.0086 	0.0361439 	0 10.0135 	0.046337 	0 10.0164 	0.0402191 	0 10.0208 	0.0401716 	0 10.0252 	0.0401243 	0 10.0297 	0.0400771 	0 10.0356 	0.0445377 	0 10.0385 	0.0379024 	0 10.0424 	0.0378614 	0 10.0464 	0.0378203 	0 10.0504 	0.0377792 	0 10.0545 	0.0408818 	0 10.0566 	0.0388077 	0 10.0591 	0.0401199 	0 10.0615 	0.0414336 	0 10.0639 	0.0427491 	0 10.0661 	0.0452087 	0 10.0676 	0.0453222 	0 10.0689 	0.0465254 	0 10.0702 	0.0477297 	0 10.0716 	0.0489352 	0 10.0727 	0.049954 	0 10.0727 	0.0500195 	0 10.0728 	0.0500851 	0 10.0729 	0.0501506 	0 10.073 	0.0502161 	0 10.073 	0.0502718 	0 10.0736 	0.0509031 	0 10.0741 	0.0515281 	0 10.0746 	0.0521536 	0 10.0751 	0.0527796 	0 10.0756 	0.0532413 	0 10.0754 	0.0535428 	0 10.0751 	0.0537385 	0 10.0747 	0.0539344 	0 10.0743 	0.0541304 	0 10.0738 	0.0540878 	0 10.0733 	0.0542405 	0 10.0722 	0.0542245 	0 10.0711 	0.0542084 	0 10.07 	0.0541924 	0 10.0684 	0.0539071 	0 10.068 	0.0539977 	0 10.0664 	0.0538742 	0 10.0647 	0.0537506 	0 10.0631 	0.053627 	0 10.0605 	0.0532175 	0 10.0605 	0.0532856 	0 10.0584 	0.0531048 	0 10.0563 	0.0529238 	0 10.0543 	0.0527428 	0 10.0507 	0.0522638 	0 10.0513 	0.0523365 	0 10.0489 	0.0521352 	0 10.0466 	0.0519338 	0 10.0442 	0.0517324 	0 10.0395 	0.0512259 	0 10.041 	0.0513275 	0 10.0384 	0.0511304 	0 10.0358 	0.0509333 	0 10.0332 	0.0507362 	0 10.0274 	0.050222 	0 10.0298 	0.0503644 	0 10.0271 	0.0501951 	0 10.0244 	0.0500257 	0 10.0217 	0.0498563 	0 10.0147 	0.0493658 	0 10.0183 	0.049569 	0 10.0154 	0.0494383 	0 10.0126 	0.0493077 	0 10.0098 	0.049177 	0 10.0016 	0.0487102 	0 10.0064 	0.0489909 	0 10.0035 	0.0489664 	0 10.0007 	0.0489419 	0 9.99782 	0.0489173 	0 9.98842 	0.048578 	0 9.99456 	0.0490069 	0 9.99174 	0.0490748 	0 9.98891 	0.0491426 	0 9.98609 	0.0492105 	0 9.97546 	0.0489028 	0 9.98305 	0.0494606 	0 9.98038 	0.049865 	0 9.97772 	0.0502694 	0 9.97506 	0.050674 	0 9.96335 	0.0507783 	0 9.97266 	0.0516288 	6.34201e-22 9.9709 	0.0521114 	4.39641e-21 9.96915 	0.0525941 	8.15824e-21 9.96739 	0.0530769 	1.19197e-20 9.95546 	0.0529875 	1.00044e-20 9.96633 	0.0534951 	7.10468e-20 9.96502 	0.0534728 	6.60641e-20 9.96372 	0.0534505 	6.10812e-20 9.96241 	0.0534283 	5.60982e-20 9.95032 	0.0528573 	-1.15075e-20 9.96127 	0.0527494 	-3.11801e-20 9.95999 	0.0522874 	-3.4613e-20 9.95872 	0.0518253 	-3.80442e-20 9.95744 	0.0513631 	-4.14735e-20 9.94535 	0.0506263 	-1.57849e-20 9.95584 	0.0502152 	-1.39557e-20 9.95415 	0.0493738 	-9.66758e-21 9.95246 	0.0485322 	-5.37995e-21 9.95077 	0.0476906 	-1.09281e-21 9.93851 	0.0466723 	5.53251e-21 9.94856 	0.0462755 	-3.79236e-21 9.94646 	0.0452829 	-1.7803e-20 9.94436 	0.0442901 	-3.18154e-20 9.94225 	0.0432971 	-4.58297e-20 9.92975 	0.0419949 	-6.59412e-20 9.93931 	0.0417624 	-9.54963e-20 9.93676 	0.0408415 	-8.62126e-20 9.93421 	0.0399202 	-7.69224e-20 9.93165 	0.0389988 	-6.76257e-20 9.91892 	0.0375825 	-2.22546e-20 9.92787 	0.0374736 	2.91164e-20 9.92486 	0.036644 	3.93269e-20 9.92184 	0.0358141 	4.95294e-20 9.91882 	0.034984 	5.9724e-20 9.90591 	0.0335573 	2.75962e-20 9.91417 	0.0334549 	-4.06149e-20 9.91068 	0.0326554 	-4.52628e-20 9.90719 	0.0318557 	-4.98984e-20 9.9037 	0.0310556 	-5.45218e-20 9.8907 	0.0296661 	-1.97296e-22 9.89814 	0.0295205 	5.15215e-20 9.89415 	0.0287363 	4.44683e-20 9.89016 	0.0279518 	3.7403e-20 9.88616 	0.0271671 	3.03256e-20 9.87313 	0.0258522 	-2.07401e-20 9.87959 	0.0256527 	-6.54937e-20 9.87507 	0.0248823 	-8.2337e-20 9.87054 	0.0241116 	-9.91757e-20 9.86601 	0.0233406 	-1.1601e-19 9.85306 	0.0221142 	-1.01541e-19 9.85832 	0.0218647 	-1.20159e-19 9.85326 	0.0211106 	-1.10763e-19 9.84819 	0.0203562 	-1.01363e-19 9.84312 	0.0196014 	-9.19598e-20 9.83042 	0.0184659 	-6.16633e-20 9.83419 	0.0181741 	-5.23662e-20 9.8286 	0.0174377 	-3.83468e-20 9.823 	0.0167011 	-2.43289e-20 9.81739 	0.0159641 	-1.03124e-20 9.80519 	0.0149136 	2.0356e-21 9.80717 	0.0145688 	0 9.80105 	0.0138431 	0 9.79493 	0.013117 	0 9.7888 	0.0123906 	0 9.77744 	0.0114199 	0 9.77721 	0.0110042 	-1.17177e-20 9.77059 	0.010285 	-2.61216e-20 9.76397 	0.0095655 	-4.05269e-20 9.75733 	0.00884559 	-5.49336e-20 9.74719 	0.00796196 	-7.04108e-20 9.74432 	0.00745332 	-7.65733e-20 9.73721 	0.00674003 	-7.71112e-20 9.73009 	0.00602632 	-7.76447e-20 9.72296 	0.0053122 	-7.81738e-20 9.71448 	0.00453444 	-7.66093e-20 9.71206 	0.00423656 	-6.18574e-20 9.70803 	0.00385996 	-5.00829e-20 9.704 	0.00348323 	-3.83108e-20 9.69996 	0.00310637 	-2.65409e-20 9.69606 	0.00274137 	-1.51476e-20 9.69243 	0.00240457 	-4.68901e-21 9.6888 	0.00206767 	5.76778e-21 9.68517 	0.00173066 	1.62228e-20 9.68153 	0.00139354 	2.6676e-20 9.6749 	0.000920259 	3.94443e-20 9.66953 	0.000331166 	4.02076e-20 9.6614 	-0.000379379 	4.10383e-20 9.65327 	-0.00109046 	4.18671e-20 9.64513 	-0.00180208 	4.26941e-20 9.62779 	-0.00290864 	4.45255e-20 9.6276 	-0.00327154 	3.52346e-20 9.61904 	-0.00398126 	2.5942e-20 9.61047 	-0.00469157 	1.66484e-20 9.60189 	-0.00540247 	7.35374e-21 9.57832 	-0.00671395 	-5.98309e-22 9.58297 	-0.00690262 	-6.97784e-21 9.57402 	-0.00761363 	-1.58756e-20 9.56505 	-0.00832528 	-2.47723e-20 9.55607 	-0.00903757 	-3.3668e-20 9.52683 	-0.0104964 	-4.25728e-20 9.53587 	-0.0105653 	-4.35972e-20 9.52655 	-0.0112789 	-4.91688e-20 9.51721 	-0.0119932 	-5.47376e-20 9.50786 	-0.0127081 	-6.03036e-20 9.47363 	-0.014252 	-7.32149e-20 9.4865 	-0.0142563 	-1.07157e-19 9.47685 	-0.0149736 	-9.98844e-20 9.46717 	-0.0156916 	-9.26236e-20 9.45748 	-0.0164103 	-8.53742e-20 9.41899 	-0.0179779 	-3.12444e-20 9.43511 	-0.0179735 	-2.05684e-20 9.42515 	-0.0186958 	-1.45574e-20 9.41517 	-0.0194189 	-8.5456e-21 9.40517 	-0.0201427 	-2.53314e-21 9.36319 	-0.0216748 	0 9.38195 	-0.0217178 	0 9.37171 	-0.0224458 	0 9.36145 	-0.0231747 	0 9.35118 	-0.0239044 	0 9.30648 	-0.025341 	0 9.32729 	-0.0254858 	1.65434e-21 9.31681 	-0.0262193 	7.25088e-21 9.3063 	-0.0269537 	1.28467e-20 9.29578 	-0.027689 	1.84418e-20 9.24911 	-0.0289723 	3.14555e-20 9.27141 	-0.0292665 	1.14795e-19 9.26071 	-0.0300043 	1.17067e-19 9.24998 	-0.0307431 	1.19352e-19 9.23924 	-0.0314828 	1.21651e-19 9.19128 	-0.0325615 	3.16045e-20 9.21456 	-0.0330446 	1.74387e-20 9.20367 	-0.0337859 	1.23769e-20 9.19275 	-0.0345281 	7.31429e-21 9.18182 	-0.0352713 	2.25084e-21 9.13318 	-0.0361038 	1.2598e-20 9.15588 	-0.0368101 	7.95621e-20 9.14594 	-0.0375529 	8.27831e-20 9.13486 	-0.038298 	8.38285e-20 9.12037 	-0.0390265 	7.73956e-20 9.075 	-0.0395971 	2.87559e-21 9.09441 	-0.040522 	-7.63374e-20 9.08776 	-0.0412952 	-9.47444e-20 9.07654 	-0.0420427 	-1.0252e-19 9.05882 	-0.0427041 	-9.77562e-20 9.0169 	-0.043041 	-4.61041e-20 9.03327 	-0.0441587 	-1.36015e-19 9.02936 	-0.0450064 	-1.6147e-19 9.01803 	-0.0457559 	-1.63361e-19 8.99775 	-0.0463042 	-1.32944e-19 8.95901 	-0.0464349 	-3.56555e-20 8.97262 	-0.0477188 	-1.86264e-20 8.97095 	-0.0486783 	-8.61309e-21 8.95952 	-0.0494307 	-3.0808e-21 8.93728 	-0.0498304 	0 8.90149 	-0.0497861 	0 8.91258 	-0.0512164 	0 8.91271 	-0.0523196 	0 8.90121 	-0.0530753 	0 8.87754 	-0.0532951 	1.43224e-21 8.84444 	-0.053099 	3.97558e-21 8.85327 	-0.0546491 	1.55602e-21 8.85481 	-0.055917 	0 8.84325 	-0.0566746 	0 8.81861 	-0.0566927 	1.74648e-21 8.78798 	-0.0563717 	4.29337e-21 8.79478 	-0.0580207 	1.8738e-21 8.7974 	-0.0594707 	1.13001e-21 8.78581 	-0.0602319 	6.14342e-21 8.76059 	-0.0600357 	1.86066e-20 8.73219 	-0.0596161 	3.28069e-20 8.73718 	-0.0613484 	1.29539e-19 8.74061 	-0.0629942 	2.17739e-19 8.72901 	-0.0637575 	2.20562e-19 8.70353 	-0.0633327 	1.29951e-19 8.67716 	-0.06283 	3.32363e-20 8.68054 	-0.0646157 	1.92573e-20 8.68386 	-0.0664033 	5.2795e-21 8.67206 	-0.0671244 	1.6939e-22 8.6475 	-0.0665684 	2.62386e-21 8.62294 	-0.0660121 	5.0782e-21 8.62491 	-0.0678453 	2.75634e-21 8.62681 	-0.0696805 	4.35264e-22 8.61546 	-0.0703706 	1.85144e-21 8.59253 	-0.0697675 	-1.08745e-21 8.56961 	-0.069164 	-4.02558e-21 8.57034 	-0.0710302 	-3.75218e-20 8.57101 	-0.0728983 	-7.10216e-20 8.56015 	-0.0735575 	-7.20677e-20 8.53868 	-0.072922 	-4.1431e-20 8.51722 	-0.072286 	-1.07927e-20 8.51687 	-0.0741752 	6.56403e-20 8.51646 	-0.0760663 	1.42068e-19 8.50612 	-0.0766983 	1.48616e-19 8.48595 	-0.076048 	8.48505e-20 8.46579 	-0.0753971 	2.10843e-20 8.4645 	-0.0772993 	1.22114e-20 8.46315 	-0.0792033 	3.33514e-21 8.45335 	-0.0798094 	1.90835e-22 8.43433 	-0.0791548 	3.7837e-21 8.41533 	-0.0784998 	7.37777e-21 8.41322 	-0.0803932 	3.01147e-21 8.41104 	-0.0822883 	-1.35952e-21 8.40179 	-0.0828701 	-1.57497e-20 8.38381 	-0.0822346 	-5.44126e-20 8.36585 	-0.0815987 	-9.30771e-20 8.36301 	-0.0834797 	-1.94097e-19 8.3601 	-0.0853625 	-2.95112e-19 8.3514 	-0.0859244 	-2.82881e-19 8.33436 	-0.0853175 	-1.67065e-19 8.31734 	-0.0847103 	-5.12494e-20 8.31385 	-0.086576 	4.4609e-20 8.31002 	-0.088369 	1.35083e-19 8.30146 	-0.0888879 	1.33097e-19 8.28597 	-0.0884161 	6.98007e-20 8.2698 	-0.0878436 	2.94806e-22 8.26573 	-0.0896931 	-6.86676e-20 8.26072 	-0.0912719 	-1.24834e-19 8.25226 	-0.091805 	-1.31797e-19 8.23861 	-0.0915409 	-8.88088e-20 8.22321 	-0.0910067 	-2.89026e-20 8.21862 	-0.0928399 	-2.03418e-20 8.21266 	-0.0942109 	-1.18529e-20 8.20431 	-0.0947593 	-3.4889e-21 8.19225 	-0.0947005 	9.26435e-21 8.17754 	-0.0942069 	2.51602e-20 8.1725 	-0.0960241 	8.20113e-21 8.16579 	-0.0971947 	-2.305e-21 8.15753 	-0.0977595 	-6.76803e-21 8.14685 	-0.0979023 	-4.58481e-21 8.13277 	-0.0974509 	6.95018e-21 8.12732 	-0.0992532 	-5.98698e-21 8.12003 	-0.100231 	-1.34834e-20 8.11187 	-0.100814 	-1.83652e-20 8.10238 	-0.101154 	-2.61252e-20 8.08887 	-0.100745 	-4.27607e-20 8.08305 	-0.102534 	4.08136e-20 8.07534 	-0.103328 	5.57839e-20 8.06725 	-0.103929 	5.73819e-20 8.05879 	-0.104461 	5.37973e-20 8.0458 	-0.104097 	-1.77242e-20 8.03964 	-0.105872 	5.26307e-20 8.03164 	-0.106492 	5.47306e-20 8.02361 	-0.107112 	5.68202e-20 8.01556 	-0.107732 	5.88996e-20 8.00352 	-0.107513 	6.72451e-21 7.99682 	-0.109089 	-3.51499e-22 7.98888 	-0.109729 	-2.44572e-22 7.98091 	-0.110369 	-1.37661e-22 7.97292 	-0.11101 	-3.07674e-23 7.962 	-0.110998 	1.08843e-20 7.9549 	-0.112384 	0 7.947 	-0.113045 	0 7.93908 	-0.113707 	0 7.93114 	-0.114368 	0 7.9212 	-0.11456 	8.12343e-21 7.9138 	-0.115764 	0 7.90594 	-0.116447 	0 7.89806 	-0.11713 	0 7.89016 	-0.117813 	0 7.88106 	-0.118202 	0 7.87346 	-0.119233 	0 7.86564 	-0.119938 	0 7.85779 	-0.120643 	0 7.84992 	-0.121349 	0 7.84155 	-0.121931 	-2.18007e-21 7.83576 	-0.122615 	0 7.8299 	-0.123163 	0 7.82402 	-0.12371 	0 7.81813 	-0.124258 	0 7.81244 	-0.124786 	0 7.81039 	-0.124972 	0 7.80833 	-0.125157 	0 7.80626 	-0.125343 	0 7.8042 	-0.125529 	0 7.80237 	-0.125668 	0 7.79429 	-0.126465 	0 7.78626 	-0.12722 	0 7.77821 	-0.127976 	0 7.77013 	-0.128731 	0 7.76318 	-0.12926 	0 7.75475 	-0.130247 	-5.38097e-21 7.74673 	-0.131028 	-1.26625e-20 7.73868 	-0.131808 	-1.99426e-20 7.73059 	-0.13259 	-2.72211e-20 7.72456 	-0.132968 	-3.4513e-20 7.71577 	-0.134141 	-3.04672e-20 7.70774 	-0.134946 	-2.988e-20 7.69968 	-0.135753 	-2.92897e-20 7.69159 	-0.136559 	-2.86963e-20 7.68646 	-0.136794 	-3.31744e-20 7.6773 	-0.138148 	-2.52171e-20 7.66926 	-0.13898 	-1.72354e-20 7.66118 	-0.139814 	-9.25216e-21 7.65308 	-0.140647 	-1.26727e-21 7.64883 	-0.140747 	0 7.63928 	-0.142279 	-3.03582e-22 7.63122 	-0.14314 	-3.86677e-21 7.62313 	-0.144002 	-7.42911e-21 7.61522 	-0.144824 	-1.09909e-20 7.6116 	-0.144836 	-1.45569e-20 7.6019 	-0.146441 	-4.04236e-20 7.59358 	-0.147433 	-5.68635e-20 7.58545 	-0.148324 	-7.17406e-20 7.57845 	-0.149001 	-7.95841e-20 7.57474 	-0.149062 	-6.72703e-20 7.56503 	-0.150677 	-4.82503e-20 7.55628 	-0.151857 	-3.57195e-20 7.54812 	-0.152777 	-2.70792e-20 7.54201 	-0.153315 	-3.10323e-20 7.5382 	-0.153426 	-4.90195e-20 7.52846 	-0.155052 	-5.92646e-20 7.51929 	-0.156416 	-6.02602e-20 7.51108 	-0.157365 	-4.66077e-20 7.50584 	-0.15777 	-2.53815e-20 7.50193 	-0.15793 	-7.71384e-22 7.49215 	-0.159568 	2.21556e-21 7.48255 	-0.161112 	4.21515e-21 7.47429 	-0.162092 	3.35409e-22 7.4699 	-0.162368 	0 7.46588 	-0.162578 	0 7.45606 	-0.16423 	0 7.44618 	-0.165882 	0 7.43828 	-0.166855 	0 7.43415 	-0.167113 	0 7.43 	-0.167372 	0 7.42014 	-0.169038 	0 7.41022 	-0.170705 	0 7.4028 	-0.1717 	-8.25002e-21 7.39854 	-0.172006 	-2.1202e-20 7.39427 	-0.172312 	-3.41533e-20 7.38435 	-0.173994 	-1.98867e-20 7.37438 	-0.175676 	-5.61421e-21 7.36742 	-0.176694 	1.12207e-21 7.36303 	-0.177046 	4.07553e-21 7.35862 	-0.177399 	7.02882e-21 7.34865 	-0.179098 	3.06747e-20 7.33862 	-0.180797 	5.43191e-20 7.33211 	-0.181838 	5.57403e-20 7.32758 	-0.182237 	4.48632e-20 7.32303 	-0.182636 	3.39836e-20 7.31299 	-0.184352 	1.6176e-20 7.30327 	-0.186004 	6.88935e-22 7.29707 	-0.187039 	7.39952e-21 7.29214 	-0.187579 	1.41037e-20 7.28745 	-0.188024 	2.08077e-20 7.27734 	-0.189758 	6.64811e-20 7.26852 	-0.191262 	9.56656e-20 7.2622 	-0.192328 	9.3705e-20 7.2567 	-0.193073 	6.76913e-20 7.25185 	-0.193562 	2.26294e-20 7.24166 	-0.195316 	1.66607e-20 7.23373 	-0.196675 	1.45357e-20 7.22728 	-0.197772 	1.49478e-20 7.2212 	-0.198718 	1.70027e-20 7.21619 	-0.199251 	2.34793e-20 7.20593 	-0.201024 	6.76278e-20 7.19887 	-0.202241 	7.19005e-20 7.19229 	-0.203371 	6.9889e-20 7.18566 	-0.2045 	6.78658e-20 7.18045 	-0.205091 	2.53711e-20 7.17059 	-0.206803 	1.96247e-20 7.16391 	-0.207964 	1.37251e-20 7.15718 	-0.209126 	7.82748e-21 7.15042 	-0.210288 	1.93193e-21 7.1446 	-0.211087 	0 7.13564 	-0.212653 	0 7.12882 	-0.213847 	0 7.12195 	-0.215041 	0 7.11504 	-0.216236 	0 7.10861 	-0.217239 	0 7.10054 	-0.21866 	0 7.09357 	-0.219885 	0 7.08656 	-0.22111 	0 7.0795 	-0.222335 	0 7.07246 	-0.223539 	4.46575e-22 7.07145 	-0.223716 	5.35745e-22 7.07057 	-0.223872 	1.28814e-21 7.06969 	-0.224028 	2.04056e-21 7.06881 	-0.224184 	2.79301e-21 7.06794 	-0.224339 	3.53971e-21 7.06153 	-0.225437 	8.22055e-21 7.05508 	-0.226535 	1.28997e-20 7.0486 	-0.227634 	1.75772e-20 7.04208 	-0.228732 	2.22531e-20 7.03672 	-0.229692 	2.6144e-20 7.02861 	-0.231112 	2.07135e-20 7.02111 	-0.232397 	2.37892e-20 7.01357 	-0.233682 	2.68496e-20 7.00598 	-0.234967 	2.98947e-20 7.00092 	-0.235959 	4.82351e-20 6.99186 	-0.237561 	2.51488e-20 6.98421 	-0.23888 	1.68402e-20 6.97651 	-0.240199 	8.51618e-21 6.96876 	-0.241518 	1.76624e-22 6.96494 	-0.242389 	2.03615e-20 6.95492 	-0.244172 	1.68876e-20 6.9471 	-0.245529 	1.57574e-20 6.93923 	-0.246884 	1.46348e-20 6.93221 	-0.248139 	1.52496e-20 6.92876 	-0.248992 	2.29288e-20 6.91859 	-0.250802 	1.49042e-20 6.90977 	-0.25235 	1.14028e-20 6.90175 	-0.253741 	1.06012e-20 6.89602 	-0.254873 	1.56076e-20 6.89241 	-0.255768 	2.5936e-20 6.88208 	-0.257605 	3.57504e-20 6.87224 	-0.25934 	4.21091e-20 6.86405 	-0.260766 	3.79e-20 6.85964 	-0.261774 	2.23001e-20 6.85585 	-0.26271 	4.73205e-21 6.84536 	-0.264573 	2.49406e-21 6.83481 	-0.266436 	2.57648e-22 6.82698 	-0.267863 	0 6.82305 	-0.26884 	0 6.81909 	-0.269817 	0 6.80844 	-0.271708 	0 6.79772 	-0.273599 	0 6.79035 	-0.275057 	-2.69626e-21 6.78625 	-0.27608 	-9.08186e-21 6.78211 	-0.277102 	-1.54645e-20 6.7713 	-0.279026 	-7.28218e-21 6.76042 	-0.280948 	9.07468e-22 6.75351 	-0.282441 	4.371e-21 6.74924 	-0.283515 	9.03956e-21 6.74493 	-0.284589 	1.37103e-20 6.73396 	-0.28655 	9.82014e-21 6.72403 	-0.288395 	7.04875e-21 6.71734 	-0.289893 	7.61829e-21 6.71203 	-0.291159 	1.62167e-20 6.70755 	-0.292283 	2.97237e-20 6.69642 	-0.294279 	1.54448e-20 6.68795 	-0.295994 	6.07666e-21 6.68111 	-0.297536 	-2.72234e-22 6.67464 	-0.299011 	-5.83177e-21 6.66999 	-0.300192 	-7.91454e-21 6.65871 	-0.30223 	-4.06148e-20 6.65174 	-0.303817 	-4.51837e-20 6.64474 	-0.305402 	-4.9624e-20 6.63768 	-0.306986 	-5.4052e-20 6.63225 	-0.308311 	-3.63741e-20 6.62249 	-0.310214 	-5.11404e-20 6.61539 	-0.311841 	-4.73118e-20 6.60823 	-0.313467 	-4.34732e-20 6.60102 	-0.315093 	-3.96247e-20 6.59438 	-0.316627 	-2.94414e-20 6.58924 	-0.317689 	-3.34905e-20 6.58508 	-0.318652 	-2.98828e-20 6.5809 	-0.319616 	-2.62707e-20 6.57671 	-0.320579 	-2.26542e-20 6.57265 	-0.321506 	-1.91709e-20 6.5693 	-0.322221 	-1.64105e-20 6.56593 	-0.322936 	-1.36474e-20 6.56256 	-0.323652 	-1.08817e-20 6.55917 	-0.324367 	-8.11332e-21 6.55626 	-0.325013 	-1.0551e-20 6.54822 	-0.326808 	-7.5699e-21 6.54034 	-0.328544 	-5.33548e-21 6.53239 	-0.330279 	-3.09984e-21 6.52439 	-0.332013 	-8.62974e-22 6.518 	-0.33353 	0 6.5092 	-0.33555 	0 6.50113 	-0.337385 	0 6.493 	-0.339219 	0 6.48496 	-0.341032 	0 6.47943 	-0.342529 	0 6.47014 	-0.344721 	0 6.46155 	-0.346734 	-1.15045e-21 6.4532 	-0.348674 	-2.76539e-21 6.44618 	-0.350439 	-4.32396e-21 6.44045 	-0.352038 	-5.82878e-21 6.43095 	-0.35433 	1.03602e-20 6.42153 	-0.356584 	2.44686e-20 6.41294 	-0.358617 	2.63573e-20 6.40695 	-0.360317 	7.40258e-21 6.40097 	-0.362007 	-1.20927e-20 6.39123 	-0.364388 	-7.23032e-21 6.3814 	-0.366767 	-2.36931e-21 6.37332 	-0.368849 	1.61384e-21 6.36715 	-0.370628 	4.49442e-21 6.36091 	-0.372407 	7.37341e-21 6.35092 	-0.374866 	3.73668e-21 6.34085 	-0.377324 	9.68294e-23 6.33324 	-0.379475 	3.46802e-21 6.32673 	-0.381378 	1.13936e-20 6.32021 	-0.383268 	1.95628e-20 6.30992 	-0.385821 	2.4056e-20 6.30077 	-0.388233 	2.31535e-20 6.29305 	-0.390471 	1.55974e-20 6.28558 	-0.392638 	6.25579e-21 6.27878 	-0.394645 	-7.10032e-21 6.2682 	-0.397303 	4.41662e-21 6.26017 	-0.399663 	2.61906e-21 6.25216 	-0.402011 	3.38236e-22 6.24406 	-0.404357 	-1.95873e-21 6.23658 	-0.406561 	-1.38637e-20 6.2276 	-0.409016 	-9.24917e-21 6.21991 	-0.411321 	-3.88323e-21 6.21215 	-0.413625 	1.48247e-21 6.20432 	-0.415928 	6.84793e-21 6.19698 	-0.418062 	1.18245e-20 6.19633 	-0.418258 	1.22868e-20 6.19568 	-0.418455 	1.27491e-20 6.19503 	-0.418652 	1.32114e-20 6.19438 	-0.418848 	1.36737e-20 6.19374 	-0.419032 	1.40027e-20 6.18576 	-0.421642 	1.70089e-20 6.17766 	-0.424238 	1.90909e-20 6.16947 	-0.426832 	2.11889e-20 6.16119 	-0.429424 	2.33029e-20 6.15303 	-0.431839 	1.24382e-20 6.1452 	-0.43474 	9.16803e-21 6.13677 	-0.43748 	5.96534e-21 6.12824 	-0.440218 	2.75992e-21 6.11967 	-0.442912 	-8.12651e-22 6.11129 	-0.445356 	-6.63606e-21 6.10329 	-0.44845 	-2.13634e-21 6.09483 	-0.451437 	0 6.08595 	-0.454327 	0 6.07718 	-0.457017 	-4.19712e-21 6.0684 	-0.459627 	-1.00961e-20 6.06003 	-0.462873 	-5.59053e-21 6.05154 	-0.466116 	-1.09137e-21 6.04252 	-0.469133 	3.33801e-21 6.03341 	-0.471918 	1.11504e-20 6.0242 	-0.474701 	1.89688e-20 6.01542 	-0.478107 	3.19478e-20 6.00653 	-0.481509 	4.49292e-20 5.99773 	-0.484677 	4.6064e-20 5.98819 	-0.487647 	3.56603e-20 5.9785 	-0.490607 	2.4716e-20 5.96928 	-0.494175 	2.62786e-20 5.96004 	-0.497611 	2.40505e-20 5.95078 	-0.500933 	1.85999e-20 5.94132 	-0.504235 	1.26536e-20 5.93112 	-0.507379 	2.19708e-21 5.92145 	-0.511077 	-1.21724e-20 5.91178 	-0.514587 	-1.52919e-20 5.90198 	-0.518093 	-1.83897e-20 5.89205 	-0.521595 	-2.14657e-20 5.88185 	-0.525063 	-2.12569e-20 5.87975 	-0.525859 	-1.8435e-20 5.87765 	-0.526625 	-1.93605e-20 5.87555 	-0.52739 	-2.02876e-20 5.87344 	-0.528155 