# vtk DataFile Version 2.0
track0
ASCII
DATASET POLYDATA
POINTS 12030 float
-0.0205 0.001 1e-05
-0.02052 0.000999985 1e-05
-0.02054 0.000999974 1e-05
-0.02056 0.000999965 1e-05
-0.02058 0.000999959 1e-05
-0.0206 0.000999956 1e-05
-0.0205 0.00367778 1e-05
-0.02052 0.00367778 1e-05
-0.02054 0.00367777 1e-05
-0.02056 0.00367777 1e-05
-0.02058 0.00367777 1e-05
-0.0206 0.00367777 1e-05
-0.0205 0.00635556 1e-05
-0.02052 0.00635555 1e-05
-0.02054 0.00635555 1e-05
-0.02056 0.00635555 1e-05
-0.02058 0.00635555 1e-05
-0.0206 0.00635555 1e-05
-0.0205 0.00903333 1e-05
-0.02052 0.00903333 1e-05
-0.02054 0.00903333 1e-05
-0.02056 0.00903333 1e-05
-0.02058 0.00903333 1e-05
-0.0206 0.00903333 1e-05
-0.0205 0.0117111 1e-05
-0.02052 0.0117111 1e-05
-0.02054 0.0117111 1e-05
-0.02056 0.0117111 1e-05
-0.02058 0.0117111 1e-05
-0.0206 0.0117111 1e-05
-0.0205 0.0143889 1e-05
-0.02052 0.0143889 1e-05
-0.02054 0.0143889 1e-05
-0.02056 0.0143889 1e-05
-0.02058 0.0143889 1e-05
-0.0206 0.0143889 1e-05
-0.0205 0.0170667 1e-05
-0.02052 0.0170667 1e-05
-0.02054 0.0170667 1e-05
-0.02056 0.0170667 1e-05
-0.02058 0.0170667 1e-05
-0.0206 0.0170667 1e-05
-0.0205 0.0197444 1e-05
-0.02052 0.0197444 1e-05
-0.02054 0.0197444 1e-05
-0.02056 0.0197444 1e-05
-0.02058 0.0197444 1e-05
-0.0206 0.0197444 1e-05
-0.0205 0.0224222 1e-05
-0.02052 0.0224222 1e-05
-0.02054 0.0224222 1e-05
-0.02056 0.0224222 1e-05
-0.02058 0.0224222 1e-05
-0.0206 0.0224222 1e-05
-0.0205 0.0251 1e-05
-0.02052 0.0250998 1e-05
-0.02054 0.0250997 1e-05
-0.02056 0.0250995 1e-05
-0.02058 0.0250995 1e-05
-0.0206 0.0250994 1e-05
-0.0205 0.001 1e-05
-0.0202034 0.00100022 1e-05
-0.0199069 0.00100067 1e-05
-0.0196103 0.00100133 1e-05
-0.0193137 0.00100219 1e-05
-0.0190172 0.00100326 1e-05
-0.0187132 0.00100467 1e-05
-0.0184093 0.00100589 1e-05
-0.0181054 0.00100711 1e-05
-0.0178015 0.00100833 1e-05
-0.0174976 0.00100954 1e-05
-0.0172058 0.00101084 1e-05
-0.016914 0.00101194 1e-05
-0.0166222 0.00101304 1e-05
-0.0163305 0.00101414 1e-05
-0.0160387 0.00101523 1e-05
-0.0157586 0.00101637 1e-05
-0.0154784 0.00101745 1e-05
-0.0151983 0.00101857 1e-05
-0.0149182 0.00101972 1e-05
-0.0146381 0.00102091 1e-05
-0.0143752 0.00102209 1e-05
-0.0141122 0.00102328 1e-05
-0.0138493 0.00102449 1e-05
-0.0135864 0.00102574 1e-05
-0.0133643 0.00102682 1e-05
-0.0133502 0.00102689 1e-05
-0.013336 0.00102696 1e-05
-0.0133218 0.00102703 1e-05
-0.0133076 0.0010271 1e-05
-0.0132934 0.00102717 1e-05
-0.0130353 0.00102846 1e-05
-0.0127771 0.00102976 1e-05
-0.0125189 0.00103108 1e-05
-0.0122607 0.00103242 1e-05
-0.0120025 0.00103377 1e-05
-0.0117547 0.00103508 1e-05
-0.0115068 0.0010364 1e-05
-0.0112589 0.00103772 1e-05
-0.0110111 0.00103905 1e-05
-0.0107632 0.00104038 1e-05
-0.0105252 0.00104166 1e-05
-0.0102873 0.00104294 1e-05
-0.0100493 0.00104422 1e-05
-0.00981133 0.0010455 1e-05
-0.00957337 0.00104678 1e-05
-0.00934491 0.00104801 1e-05
-0.00911645 0.00104923 1e-05
-0.00888799 0.00105045 1e-05
-0.00865954 0.00105167 1e-05
-0.00843108 0.00105289 1e-05
-0.00821175 0.00105405 1e-05
-0.00799242 0.00105521 1e-05
-0.00777309 0.00105637 1e-05
-0.00755376 0.00105752 1e-05
-0.00733443 0.00105868 1e-05
-0.00712387 0.00105977 1e-05
-0.0069133 0.00106087 1e-05
-0.00670273 0.00106196 1e-05
-0.00649216 0.00106305 1e-05
-0.0062816 0.00106413 1e-05
-0.00607944 0.00106516 1e-05
-0.00587729 0.0010662 1e-05
-0.00567514 0.00106723 1e-05
-0.00547298 0.00106825 1e-05
-0.00527083 0.00106927 1e-05
-0.00507675 0.00107025 1e-05
-0.00488267 0.00107122 1e-05
-0.0046886 0.00107219 1e-05
-0.00449452 0.00107316 1e-05
-0.00430044 0.00107413 1e-05
-0.00411412 0.00107505 1e-05
-0.0039278 0.00107597 1e-05
-0.00374147 0.00107689 1e-05
-0.00355515 0.0010778 1e-05
-0.00336883 0.00107872 1e-05
-0.00318995 0.00107959 1e-05
-0.00301107 0.00108047 1e-05
-0.00283219 0.00108134 1e-05
-0.00265331 0.00108222 1e-05
-0.00247443 0.00108309 1e-05
-0.0023027 0.00108393 1e-05
-0.00213097 0.00108477 1e-05
-0.00195924 0.00108561 1e-05
-0.0017875 0.00108646 1e-05
-0.00161577 0.00108731 1e-05
-0.0014509 0.00108811 1e-05
-0.00128603 0.00108893 1e-05
-0.00112116 0.00108975 1e-05
-0.00095629 0.00109058 1e-05
-0.000791418 0.00109142 1e-05
-0.000633135 0.00109223 1e-05
-0.000474851 0.00109305 1e-05
-0.000316568 0.00109388 1e-05
-0.000158284 0.00109471 1e-05
0 0.00109555 1e-05
0.000105677 0.00109612 1e-05
0.000211355 0.00109668 1e-05
0.000317032 0.00109725 1e-05
0.00042271 0.00109782 1e-05
0.000528387 0.00109838 1e-05
0.000634886 0.00109895 1e-05
0.000741385 0.00109951 1e-05
0.000847885 0.00110007 1e-05
0.000954384 0.00110063 1e-05
0.00106088 0.00110118 1e-05
0.00116821 0.00110172 1e-05
0.00127554 0.00110226 1e-05
0.00138286 0.0011028 1e-05
0.00149019 0.00110332 1e-05
0.00159752 0.00110383 1e-05
0.00170568 0.00110434 1e-05
0.00181384 0.00110485 1e-05
0.001922 0.00110534 1e-05
0.00203016 0.00110582 1e-05
0.00213833 0.00110629 1e-05
0.00224733 0.00110675 1e-05
0.00235633 0.00110721 1e-05
0.00246533 0.00110766 1e-05
0.00257434 0.0011081 1e-05
0.00268334 0.00110852 1e-05
0.00279319 0.00110894 1e-05
0.00290304 0.00110935 1e-05
0.00301289 0.00110976 1e-05
0.00312274 0.00111016 1e-05
0.00323259 0.00111054 1e-05
0.00334329 0.00111092 1e-05
0.003454 0.00111129 1e-05
0.0035647 0.00111166 1e-05
0.0036754 0.00111201 1e-05
0.00378611 0.00111236 1e-05
0.00389767 0.00111269 1e-05
0.00400924 0.00111303 1e-05
0.0041208 0.00111335 1e-05
0.00423237 0.00111367 1e-05
0.00434393 0.00111397 1e-05
0.00445636 0.00111427 1e-05
0.00456879 0.00111456 1e-05
0.00468123 0.00111484 1e-05
0.00479366 0.00111512 1e-05
0.00490609 0.00111538 1e-05
0.0050194 0.00111564 1e-05
0.0051327 0.00111589 1e-05
0.00524601 0.00111613 1e-05
0.00535932 0.00111637 1e-05
0.00547262 0.00111659 1e-05
0.00558681 0.00111681 1e-05
0.005701 0.00111702 1e-05
0.00581518 0.00111722 1e-05
0.00592937 0.00111741 1e-05
0.00604356 0.0011176 1e-05
0.00615863 0.00111777 1e-05
0.00627371 0.00111795 1e-05
0.00638878 0.00111811 1e-05
0.00650386 0.00111826 1e-05
0.00661893 0.00111841 1e-05
0.0067349 0.00111854 1e-05
0.00685087 0.00111867 1e-05
0.00696684 0.0011188 1e-05
0.00708281 0.00111891 1e-05
0.00719878 0.00111901 1e-05
0.00731565 0.00111911 1e-05
0.00743252 0.0011192 1e-05
0.00754939 0.00111928 1e-05
0.00766626 0.00111935 1e-05
0.00778313 0.00111942 1e-05
0.00784573 0.00111945 1e-05
0.00790833 0.00111947 1e-05
0.00797093 0.0011195 1e-05
0.00803353 0.00111952 1e-05
0.00809414 0.00111954 1e-05
0.00814972 0.00111956 1e-05
0.0082053 0.00111957 1e-05
0.00826088 0.00111958 1e-05
0.00831645 0.00111959 1e-05
0.00837203 0.0011196 1e-05
0.00849073 0.00111961 1e-05
0.00860942 0.00111961 1e-05
0.00872812 0.00111961 1e-05
0.00884682 0.0011196 1e-05
0.00896551 0.00111957 1e-05
0.00908513 0.00111954 1e-05
0.00920475 0.0011195 1e-05
0.00932437 0.00111945 1e-05
0.00944398 0.00111939 1e-05
0.0095636 0.00111932 1e-05
0.00968415 0.00111924 1e-05
0.0098047 0.00111915 1e-05
0.00992525 0.00111906 1e-05
0.0100458 0.00111895 1e-05
0.0101663 0.00111884 1e-05
0.0102878 0.0011187 1e-05
0.0104093 0.00111857 1e-05
0.0105308 0.00111842 1e-05
0.0106523 0.00111827 1e-05
0.0107738 0.00111811 1e-05
0.0108962 0.00111792 1e-05
0.0110186 0.00111774 1e-05
0.0111411 0.00111755 1e-05
0.0112635 0.00111734 1e-05
0.0113859 0.00111713 1e-05
0.0115093 0.0011169 1e-05
0.0116327 0.00111666 1e-05
0.0117561 0.00111642 1e-05
0.0118795 0.00111616 1e-05
0.0120028 0.0011159 1e-05
0.0121272 0.00111561 1e-05
0.0122515 0.00111532 1e-05
0.0123759 0.00111502 1e-05
0.0125002 0.00111472 1e-05
0.0126245 0.0011144 1e-05
0.0127498 0.00111406 1e-05
0.0128752 0.00111372 1e-05
0.0130005 0.00111336 1e-05
0.0131258 0.001113 1e-05
0.0132511 0.00111263 1e-05
0.0133774 0.00111223 1e-05
0.0135036 0.00111183 1e-05
0.0136299 0.00111142 1e-05
0.0137562 0.001111 1e-05
0.0138825 0.00111057 1e-05
0.0140098 0.00111012 1e-05
0.014137 0.00110967 1e-05
0.0142643 0.0011092 1e-05
0.0143915 0.00110872 1e-05
0.0145188 0.00110823 1e-05
0.0146471 0.00110772 1e-05
0.0147753 0.00110721 1e-05
0.0149036 0.00110668 1e-05
0.0150318 0.00110614 1e-05
0.0151601 0.0011056 1e-05
0.0152893 0.00110503 1e-05
0.0154186 0.00110446 1e-05
0.0155478 0.00110387 1e-05
0.0156771 0.00110327 1e-05
0.0158063 0.00110266 1e-05
0.0159366 0.00110204 1e-05
0.0160668 0.0011014 1e-05
0.0161971 0.00110075 1e-05
0.0163273 0.00110009 1e-05
0.0164576 0.00109942 1e-05
0.0165889 0.00109874 1e-05
0.0167201 0.00109804 1e-05
0.0168514 0.00109733 1e-05
0.0169827 0.00109661 1e-05
0.0171139 0.00109587 1e-05
0.0172462 0.00109513 1e-05
0.0173785 0.00109437 1e-05
0.0175108 0.0010936 1e-05
0.0176431 0.00109281 1e-05
0.0177754 0.00109202 1e-05
0.0179087 0.00109121 1e-05
0.018042 0.00109039 1e-05
0.0181753 0.00108955 1e-05
0.0183087 0.0010887 1e-05
0.018442 0.00108784 1e-05
0.0185763 0.00108698 1e-05
0.0187107 0.00108609 1e-05
0.018845 0.00108518 1e-05
0.0189794 0.00108426 1e-05
0.0191137 0.00108334 1e-05
0.0192491 0.00108242 1e-05
0.0193845 0.00108147 1e-05
0.0195199 0.00108049 1e-05
0.0196553 0.0010795 1e-05
0.0197907 0.00107852 1e-05
0.0199272 0.00107753 1e-05
0.0200636 0.00107651 1e-05
0.0202001 0.00107547 1e-05
0.0203365 0.00107441 1e-05
0.020473 0.00107336 1e-05
0.0206105 0.00107231 1e-05
0.020748 0.00107123 1e-05
0.0208855 0.00107012 1e-05
0.021023 0.00106899 1e-05
0.0211606 0.00106788 1e-05
0.0212991 0.00106676 1e-05
0.0214377 0.00106561 1e-05
0.0215763 0.00106443 1e-05
0.0217149 0.00106324 1e-05
0.0218535 0.00106206 1e-05
0.0219931 0.00106087 1e-05
0.0221328 0.00105966 1e-05
0.0222724 0.00105841 1e-05
0.0224121 0.00105715 1e-05
0.0225517 0.0010559 1e-05
0.0226925 0.00105464 1e-05
0.0228332 0.00105336 1e-05
0.022974 0.00105204 1e-05
0.0231147 0.00105071 1e-05
0.0232555 0.00104939 1e-05
0.0233973 0.00104807 1e-05
0.0235391 0.00104671 1e-05
0.023681 0.00104533 1e-05
0.0238228 0.00104393 1e-05
0.0239647 0.00104253 1e-05
0.0241076 0.00104114 1e-05
0.0242505 0.00103971 1e-05
0.0243935 0.00103825 1e-05
0.0245364 0.00103678 1e-05
0.0246794 0.00103532 1e-05
0.0248234 0.00103385 1e-05
0.0249675 0.00103235 1e-05
0.0251115 0.00103082 1e-05
0.0252556 0.00102928 1e-05
[...]
POINT_DATA 12030
 FIELD attributes 3
age 1 12030 float
0 -2e-05 -4e-05 -6e-05 -8e-05 -0.0001
0 -2e-05 -4e-05 -6e-05 -8e-05 -0.0001
0 -2e-05 -4e-05 -6e-05 -8e-05 -0.0001
0 -2e-05 -4e-05 -6e-05 -8e-05 -0.0001
0 -2e-05 -4e-05 -6e-05 -8e-05 -0.0001
0 -2e-05 -4e-05 -6e-05 -8e-05 -0.0001
0 -2e-05 -4e-05 -6e-05 -8e-05 -0.0001
0 -2e-05 -4e-05 -6e-05 -8e-05 -0.0001
0 -2e-05 -4e-05 -6e-05 -8e-05 -0.0001
0 -2.00009e-05 -4.00018e-05 -6.00027e-05 -8.00036e-05 -0.000100002
0 0.000296567 0.000593135 0.000889702 0.00118627 0.00148284 0.00178676 0.00209069 0.00239461 0.00269853 0.00300245 0.00329423 0.00358601 0.00387779 0.00416957 0.00446135 0.00474147 0.00502159 0.00530171 0.00558183 0.00586196 0.00612489 0.00638782 0.00665076 0.00691369 0.00713571 0.00714989 0.00716407 0.00717825 0.00719243 0.00720661 0.0074648 0.00772298 0.00798117 0.00823935 0.00849754 0.00874541 0.00899328 0.00924116 0.00948903 0.0097369 0.00997487 0.0102128 0.0104508 0.0106888 0.0109267 0.0111552 0.0113837 0.0116121 0.0118406 0.012069 0.0122884 0.0125077 0.012727 0.0129464 0.0131657 0.0133763 0.0135868 0.0137974 0.014008 0.0142186 0.0144207 0.0146229 0.014825 0.0150272 0.0152293 0.0154234 0.0156175 0.0158116 0.0160057 0.0161997 0.0163861 0.0165724 0.0167587 0.016945 0.0171314 0.0173102 0.0174891 0.017668 0.0178469 0.0180258 0.0181975 0.0183692 0.018541 0.0187127 0.0188844 0.0190493 0.0192142 0.0193791 0.0195439 0.0197088 0.0198671 0.0200254 0.0201837 0.0203419 0.0205002 0.0206059 0.0207116 0.0208173 0.0209229 0.0210286 0.0211351 0.0212416 0.0213481 0.0214546 0.0215611 0.0216685 0.0217758 0.0218831 0.0219904 0.0220978 0.0222059 0.0223141 0.0224223 0.0225304 0.0226386 0.0227476 0.0228566 0.0229656 0.0230746 0.0231836 0.0232935 0.0234033 0.0235132 0.023623 0.0237329 0.0238436 0.0239543 0.024065 0.0241757 0.0242864 0.0243979 0.0245095 0.0246211 0.0247326 0.0248442 0.0249566 0.0250691 0.0251815 0.0252939 0.0254064 0.0255197 0.025633 0.0257463 0.0258596 0.0259729 0.0260871 0.0262013 0.0263155 0.0264296 0.0265438 0.0266589 0.026774 0.0268891 0.0270041 0.0271192 0.0272352 0.0273511 0.0274671 0.0275831 0.0276991 0.0278159 0.0279328 0.0280497 0.0281665 0.0282834 0.028346 0.0284086 0.0284712 0.0285338 0.0285944 0.02865 0.0287056 0.0287612 0.0288167 0.0288723 0.028991 0.0291097 0.0292284 0.0293471 0.0294658 0.0295854 0.029705 0.0298246 0.0299443 0.0300639 0.0301844 0.030305 0.0304255 0.0305461 0.0306666 0.0307881 0.0309096 0.0310311 0.0311526 0.031274 0.0313965 0.0315189 0.0316413 0.0317638 0.0318862 0.0320096 0.032133 0.0322563 0.0323797 0.0325031 0.0326275 0.0327518 0.0328761 0.0330005 0.0331248 0.0332501 0.0333754 0.0335007 0.0336261 0.0337514 0.0338776 0.0340039 0.0341302 0.0342565 0.0343828 0.03451 0.0346373 0.0347646 0.0348918 0.0350191 0.0351474 0.0352756 0.0354039 0.0355321 0.0356604 0.0357896 0.0359189 0.0360481 0.0361774 0.0363066 0.0364369 0.0365671 0.0366974 0.0368277 0.0369579 0.0370892 0.0372205 0.0373517 0.037483 0.0376143 0.0377466 0.0378788 0.0380111 0.0381434 0.0382757 0.038409 0.0385424 0.0386757 0.038809 0.0389423 0.0390767 0.039211 0.0393454 0.0394797 0.0396141 0.0397495 0.0398849 0.0400203 0.0401557 0.0402911 0.0404276 0.040564 0.0407005 0.0408369 0.0409734 0.0411109 0.0412484 0.0413859 0.0415235 0.041661 0.0417996 0.0419381 0.0420767 0.0422153 0.0423539 0.0424936 0.0426332 0.0427729 0.0429126 0.0430522 0.043193 0.0433337 0.0434745 0.0436152 0.043756 0.0438978 0.0440397 0.0441815 0.0443233 0.0444652 0.0446081 0.0447511 0.044894 0.045037 0.0451799 0.045324 0.0454681 0.0456121 0.0457562 0.0459002 0.0460454 0.0461906 0.0463358 0.046481 0.0466261 0.0467725 0.0469188 0.0470651 0.0472114 0.0473577 0.0475051 0.0476526 0.0478 0.0479475 0.0480949 0.0482435 0.0483921 0.0485407 0.0486893 0.0488379 0.0489877 0.0491374 0.0492872 0.0494369 0.0495867 0.0497376 0.0498885 0.0500394 0.0501904 0.0503413 0.0504934 0.0506455 0.0507975 0.0509496 0.0511017 0.051255 0.0514083 0.0515616 0.0517148 0.0518681 0.0520226 0.052177 0.0523315 0.052486 0.0526405 0.0527961 0.0529518 0.0531075 0.0532631 0.0534188 0.0535368 0.0536547 0.0537727 0.0538906 0.0540042 0.054044 0.0540838 0.0541236 0.0541634 0.0542032 0.0543613 0.0545194 0.0546775 0.0548356 0.0549937 0.0551531 0.0553124 0.0554717 0.0556311 0.0557904 0.055951 0.0561115 0.0562721 0.0564327 0.0565933 0.0567551 0.0569169 0.0570787 0.0572406 0.0574024 0.0575655 0.0577286 0.0578916 0.0580547 0.0582178 0.0583822 0.0585465 0.0587109 0.0588752 0.0590396 0.0592052 0.0593709 0.0595365 0.0597021 0.0598678 0.0600347 0.0602016 0.0603685 0.0605354 0.0607024 0.0608706 0.0610388 0.061207 0.0613753 0.0615435 0.061713 0.0618826 0.0620521 0.0622216 0.0623912 0.062562 0.0627329 0.0629037 0.0630746 0.0632455 0.0634177 0.0635898 0.063762 0.0639342 0.0641064 0.0642799 0.0644535 0.064627 0.0648005 0.0649741 0.0651489 0.0653238 0.0654987 0.0656736 0.0658485 0.0660247 0.066201 0.0663772 0.0665534 0.0667297 0.0669073 0.0670849 0.0672626 0.0674402 0.0676178 0.0677968 0.0679758 0.0681548 0.0683338 0.0685128 0.0686932 0.0688736 0.069054 0.0692344 0.0694149 0.0695967 0.0697785 0.0699603 0.0701421 0.0703239 0.0705071 0.0706904 0.0708736 0.0710568 0.0712401 0.071263 0.071286 0.0713089 0.0713319 0.0713546 0.0715164 0.0716781 0.0718399 0.0720016 0.0721634 0.0723495 0.0725356 0.0727217 0.0729078 0.0730939 0.0732814 0.073469 0.0736565 0.0738441 0.0740317 0.0742207 0.0744097 0.0745987 0.0747877 0.0749768 0.0751673 0.0753578 0.0755483 0.0757388 0.0759293 0.0761213 0.0763132 0.0765052 0.0766972 0.0768892 0.0770827 0.0772762 0.0774697 0.0776632 0.0778567 0.0780517 0.0782467 0.0784417 0.0786367 0.0788317 0.0790282 0.0792248 0.0794213 0.0796178 0.0798144 0.0800124 0.0802105 0.0804086 0.0806066 0.0808047 0.0810043 0.081204 0.0814036 0.0816032 0.0818028 0.082004 0.0822052 0.0824064 0.0826076 0.0828088 0.0830115 0.0832143 0.0834171 0.0836198 0.0838226 0.0839401 0.0840576 0.0841751 0.0842925 0.0844056 0.0844933 0.0845811 0.0846689 0.0847566 0.0848444 0.0850503 0.0852563 0.0854623 0.0856682 0.0858742 0.0860818 0.0862893 0.0864969 0.0867045 0.0869121 0.0871213 0.0873305 0.0875397 0.0877489 0.0879582 0.088169 0.0883799 0.0885907 0.0888016 0.0890125 0.089225 0.0894375 0.08965 0.0898625 0.0900751 0.0902893 0.0905035 0.0907177 0.0909319 0.0911461 0.091362 0.0915779 0.0917938 0.0920097 0.0922256 0.0924432 0.0926608 0.0928784 0.093096 0.0933136 0.0935184 0.0937231 0.0939278 0.0941325 0.0943224 0.09434 0.0943576 0.0943751 0.0943927 0.0944103 0.0946313 0.0948524 0.0950734 0.0952945 0.0955156 0.0957384 0.0959613 0.0961841 0.0964069 0.0966298 0.0968544 0.097079 0.0973036 0.0975281 0.0977528 0.0979792 0.0982056 0.098432 0.0986584 0.0988849 0.099113 0.0993412 0.0995694 0.0997976 0.100026 0.100256 0.100486 0.100716 0.100946 0.101176 0.101408 0.10164 0.101872 0.102104 0.102336 0.102384 0.102432 0.102481 0.102529 0.102577 0.102762 0.102948 0.103133 0.103319 0.103505 0.10374 0.103976 0.104212 0.104447 0.104683 0.104921 0.105159 0.105396 0.105634 0.105872 0.106111 0.106351 0.10659 0.10683 0.107069 0.107311 0.107553 0.107794 0.108036 0.108277 0.108513 0.108749 0.108985 0.109221 0.109434 0.109446 0.109459 0.109471 0.109483 0.109495 0.109741 0.109987 0.110232 0.110478 0.110724 0.110971 0.111219 0.111467 0.111714 0.111962 0.112212 0.112462 0.112712 0.112961 0.113212 0.113464 0.113715 0.113967 0.114219 0.114472 0.114618 0.114765 0.114912 0.115058 0.115196 0.115305 0.115415 0.115524 0.115634 0.115743 0.116 0.116256 0.116512 0.116769 0.117026 0.117284 0.117543 0.117802 0.118061 0.11832 0.118581 0.118842 0.119103 0.119364 0.119626 0.119728 0.11983 0.119932 0.120035 0.120132 0.120295 0.120457 0.12062 0.120782 0.120945 0.121211 0.121477 0.121743 0.122009 0.122276 0.122545 0.122813 0.123082 0.12335 0.12362 0.12379 0.12396 0.12413 0.1243 0.124458 0.124562 0.124666 0.12477 0.124874 0.124978 0.125252 0.125526 0.1258 0.126074 0.126349 0.126626 0.126903 0.12718 0.127457 0.127735 0.127857 0.127979 0.128101 0.128222 0.128338 0.128498 0.128657 0.128817 0.128976 0.129137 0.129419 0.129702 0.129985 0.130268 0.130553 0.130827 0.131102 0.131376 0.131651 0.131899 0.131916 0.131933 0.131951 0.131968 0.131985 0.132275 0.132564 0.132853 0.133143 0.133434 0.133727 0.134019 0.134312 0.134604 0.134899 0.134968 0.135036 0.135105 0.135173 0.135241 0.135469 0.135697 0.135925 0.136153 0.136382 0.136681 0.136981 0.13728 0.137579 0.137881 0.137996 0.138111 0.138226 0.138341 0.138453 0.138642 0.13883 0.139019 0.139208 0.139397 0.139703 0.140009 0.140315 0.140621 0.140929 0.141068 0.141206 0.141344 0.141483 0.141618 0.14179 0.141962 0.142133 0.142305 0.142477 0.14279 0.143102 0.143414 0.143726 0.14404 0.144196 0.144351 0.144507 0.144663 0.144818 0.144977 0.145137 0.145296 0.145456 0.145615 0.145933 0.146251 0.146568 0.146886 0.147203 0.147341 0.147478 0.147616 0.147753 0.147891 0.148073 0.148256 0.148438 0.14862 0.148802 0.149124 0.149446 0.149768 0.15009 0.150411 0.15053 0.15065 0.15077 0.15089 0.151011 0.151214 0.151418 0.151621 0.151824 0.152027 0.152352 0.152677 0.153003 0.153328 0.153651 0.153774 0.153896 0.154019 0.154142 0.154267 0.15447 0.154673 0.154876 0.155079 0.155281 0.155609 0.155937 0.156265 0.156592 0.156918 0.157087 0.157257 0.157427 0.157597 0.157775 0.157932 0.158089 0.158246 0.158403 0.158559 0.158889 0.159219 0.159549 0.159879 0.160206 0.1605 0.160793 0.161087 0.16138 0.161706 0.161737 0.161768 0.161798 0.161829 0.161859 0.162192 0.162524 0.162856 0.163188 0.163518 0.163851 0.164185 0.164518 0.164852 0.165183 0.165415 0.165646 0.165878 0.16611 0.166367 0.166465 0.166562 0.16666 0.166757 0.166855 0.167191 0.167527 0.167864 0.1682 0.168534 0.168872 0.16921 0.169548 0.169886 0.170222 0.170562 0.170901 0.171241 0.171581 0.171919 0.172012 0.172105 0.172198 0.172291 0.172389 0.172636 0.172884 0.173131 0.173378 0.173625 0.173968 0.174312 0.174656 0.174999 0.175341 0.175687 0.176033 0.176378 0.176724 0.177069 0.177416 0.177764 0.178112 0.17846 0.178807 0.179157 0.179507 0.179857 0.180207 0.180557 0.18073 0.180903 0.181077 0.18125 0.181441 0.181616 0.181792 0.181968 0.182143 0.182319 0.182674 0.183029 0.183384 0.183739 0.184094 0.184451 0.184809 0.185166 0.185524 0.185881 0.186241 0.186601 0.186961 0.187321 0.187681 0.188044 0.188407 0.188769 0.189132 0.189495 0.18986 0.190226 0.190591 0.190957 0.191322 0.19169 0.192058 0.192426 0.192795 0.193163 0.193534 0.193905 0.194276 0.194647 0.195017 0.195391 0.195765 0.196139 0.196513 0.196886 0.197263 0.19764 0.198016 0.198393 0.198769 0.199149 0.199528 0.199908 0.200287 0.200667 0.200764 0.200862 0.200959 0.201057 0.201159 0.201443 0.201727 0.202011 0.202295 0.202579 0.202964 0.20335 0.203735 0.204121 0.204506 0.204894 0.205283 0.205671 0.206059 0.206448 0.206839 0.20723 0.207622 0.208013 0.208404 0.208799 0.209193 0.209588 0.209982 0.210376 0.210774 0.211171 0.211569 0.211966 0.212363 0.212764 0.213164 0.213565 0.213965 0.214366 0.21477 0.215173 0.215577 0.21598 0.216384 0.216791 0.217198 0.217604 0.218011 0.218418 0.218828 0.219237 0.219647 0.220057 0.220467 0.22088 0.221293 0.221706 0.222119 0.222532 0.222949 0.223365 0.223781 0.224197 0.224614 0.225033 0.225453 0.225872 0.226291 0.226711 0.227134 0.227556 0.227979 0.228402 0.228824 0.229234 0.229643 0.230052 0.230462 0.230871 0.231297 0.231722 0.232147 0.232573 0.232998 0.23344 0.233882 0.234324 0.234766 0.235208 0.235667 0.236126 0.236586 0.237045 0.237504 0.237613 0.237721 0.237829 0.237938 0.23805 0.238418 0.238786 0.239154 0.239522 0.23989 0.240386 0.240882 0.241378 0.241874 0.24237 0.242885 0.2434 0.243915 0.24443 0.244946 0.245481 0.246016 0.246551 0.247087 0.247622 0.248178 0.248735 0.249291 0.249847 0.250403 0.250981 0.251559 0.252137 0.252715 0.253293 0.253894 0.254494 0.255095 0.255695 0.256296 0.25692 0.257544 0.258168 0.258792 0.259416 0.259781 0.260146 0.260511 0.260877 0.261281 0.261556 0.261832 0.262107 0.262382 0.262658 0.263331 0.264005 0.264679 0.265352 0.266026 0.266726 0.267426 0.268126 0.268826 0.269527 0.270254 0.270981 0.271709 0.272436 0.273164 0.273919 0.274675 0.275431 0.276187 0.276943 0.277728 0.278514 0.279299 0.280084 0.28087 0.281686 0.282502 0.283318 0.284134 0.28495 0.285798 0.286646 0.287494 0.288342 0.28919 0.290071 0.290952 0.291833 0.292714 0.293595 0.294511 0.295426 0.296342 0.297257 0.298173 0.298983 0.299794 0.300605 0.301415 0.30248 0.30257 0.302659 0.302749 0.302839 0.302929 0.303917 0.304905 0.305894 0.306882 0.30787 0.308896 0.309922 0.310949 0.311975 0.313