/*--------------------------------*- C++ -*----------------------------------*\
  =========                 |
  \\      /  F ield         | OpenFOAM: The Open Source CFD Toolbox
   \\    /   O peration     | Website:  https://openfoam.org
    \\  /    A nd           | Version:  9
     \\/     M anipulation  |
\*---------------------------------------------------------------------------*/
FoamFile
{
    format      ascii;
    class       volScalarField;
    location    "2.61";
    object      nut;
}
// * * * * * * * * * * * * * * * * * * * * * * * * * * * * * * * * * * * * * //

dimensions      [0 2 -1 0 0 0 0];

internalField   nonuniform List<scalar> 
2268
(
3.29244e-05
4.0911e-05
4.97625e-05
5.57391e-05
6.01721e-05
6.35991e-05
6.62939e-05
6.84385e-05
7.01644e-05
7.15643e-05
7.27125e-05
7.36837e-05
7.44134e-05
7.48942e-05
7.50873e-05
7.48561e-05
7.37254e-05
7.1785e-05
6.96493e-05
6.69125e-05
6.17138e-05
5.12569e-05
3.20653e-05
7.93727e-05
0.000349505
0.000458094
0.000525168
0.000573832
0.000611343
0.000640957
0.000664788
0.000684383
0.000700858
0.000714904
0.000724864
0.000731661
0.000735356
0.000735332
0.000730254
0.000717752
0.000696522
0.000662816
0.000609953
0.000525237
0.000383308
0.000101457
9.69511e-05
0.000605342
0.000863897
0.00101958
0.00112873
0.00121046
0.00127343
0.00132289
0.00136251
0.00139482
0.00142123
0.00144028
0.00145246
0.00145737
0.00145342
0.00143751
0.00140458
0.00135014
0.00126653
0.00113836
0.000939649
0.000631348
0.000117363
0.00011024
0.000790201
0.00119436
0.00144035
0.00161032
0.00173536
0.00183003
0.00190297
0.00196007
0.00200532
0.00204096
0.00206614
0.00208096
0.0020844
0.00207389
0.00204483
0.00199019
0.001902
0.00176792
0.00156459
0.00125645
0.000799612
0.000128928
0.000120863
0.000930866
0.00146471
0.00179592
0.00202368
0.00218947
0.00231347
0.00240763
0.00247995
0.0025359
0.00257853
0.00260766
0.00262319
0.00262365
0.00260572
0.0025637
0.00248906
0.00237083
0.00219193
0.00192216
0.0015166
0.000927106
0.00013953
0.000129855
0.00104272
0.00168902
0.00209811
0.00237947
0.00258307
0.00273409
0.0028475
0.00293331
0.00299839
0.00304651
0.00307827
0.00309357
0.00309067
0.00306578
0.00301249
0.00292123
0.00277869
0.00256385
0.00224051
0.00175304
0.00103889
0.00015277
0.00013775
0.00113452
0.00187756
0.00235666
0.00268709
0.00292551
0.00310138
0.00323237
0.00333031
0.00340344
0.00345614
0.0034899
0.00350474
0.00349889
0.00346835
0.00340636
0.00330275
0.00314276
0.00290287
0.00254269
0.00199519
0.00116815
0.000172785
0.000144886
0.00121147
0.0020377
0.00257924
0.00295425
0.0032246
0.00342338
0.00357053
0.00367949
0.00375983
0.00381672
0.0038523
0.00386695
0.00385905
0.00382462
0.00375688
0.00364551
0.00347529
0.00322212
0.00284494
0.00227084
0.00136564
0.000211828
2.87343e-05
5.05438e-05
5.87855e-05
6.20549e-05
6.31467e-05
6.31592e-05
6.1858e-05
5.83906e-05
5.41717e-05
5.2528e-05
5.36156e-05
5.36203e-05
5.22712e-05
5.23097e-05
5.31465e-05
5.16241e-05
4.55781e-05
3.57992e-05
3.46129e-05
0.000111682
0.00038602
0.00051966
0.000574385
0.00059335
0.000594655
0.000573137
0.000510452
0.000462229
0.000472616
0.000506001
0.000515041
0.000486266
0.00049366
0.000497876
0.000476427
0.000415512
0.000297108
8.13637e-05
0.000135067
0.000640898
0.000959774
0.00110363
0.00115697
0.00116422
0.00112684
0.00102925
0.000949645
0.000956531
0.00100002
0.0010107
0.000973913
0.000969495
0.000958178
0.000897394
0.000757487
0.000511066
9.43588e-05
0.000155136
0.000836963
0.00131513
0.00154688
0.00163993
0.00165803
0.00161558
0.00150703
0.00141443
0.00140745
0.00144039
0.00144357
0.00140083
0.00137426
0.00133141
0.00122332
0.00101246
0.000662784
0.000103806
0.000174538
0.00102083
0.00162696
0.00193047
0.00205792
0.0020885
0.00204781
0.00194094
0.001845
0.00182112
0.00183408
0.00182289
0.0017699
0.00171696
0.00163622
0.00147883
0.00120377
0.000769889
0.000111445
0.00019569
0.00120781
0.00191994
0.00227666
0.00242919
0.00247061
0.00243491
0.00233528
0.00223999
0.00219957
0.00218933
0.00215956
0.00209189
0.00201142
0.00189263
0.00168778
0.00135048
0.00083825
0.000117194
0.000222668
0.00139839
0.00220729
0.00259934
0.00276716
0.00281587
0.00278542
0.00269434
0.00260082
0.00254529
0.00251176
0.00246144
0.00237628
0.00226906
0.00211523
0.00186766
0.00147157
0.000878436
0.000123171
0.000261381
0.00164167
0.00250884
0.00290938
0.00308114
0.00313233
0.00310555
0.00302197
0.00292963
0.00286063
0.00280534
0.00273398
0.00263041
0.00249839
0.002314
0.00203022
0.00158433
0.000917151
0.000130852
0.000155174
0.0013143
0.0022523
0.00288038
0.00331869
0.00363519
0.0038674
0.00403824
0.00416327
0.00425371
0.0043158
0.0043534
0.00436777
0.00435779
0.00431982
0.00424752
0.00413104
0.00395587
0.00370004
0.00332921
0.00279107
0.0020268
0.00106
0.000165891
0.00141728
0.0024639
0.00318282
0.0036908
0.00405978
0.00433098
0.00453001
0.00467453
0.00477748
0.00484723
0.0048898
0.00490784
0.00490117
0.00486717
0.00480103
0.00469519
0.00453917
0.00431984
0.00402202
0.00362823
0.00312226
0.00253003
0.000175344
0.00148842
0.00261726
0.00341256
0.00398006
0.00439392
0.00469847
0.00492152
0.00508274
0.00519683
0.00527466
0.00532437
0.00534954
0.00535064
0.00532624
0.00527386
0.0051887
0.0050642
0.00489511
0.00468111
0.00442256
0.00412119
0.0038125
0.000184624
0.00151981
0.0027201
0.00359291
0.0042155
0.0046673
0.00499896
0.00524133
0.00541633
0.00554032
0.00562629
0.00568492
0.00571953
0.00573038
0.00571768
0.00568185
0.00562072
0.00552918
0.00540637
0.00526078
0.00509931
0.00492065
0.00476653
0.000206503
0.00155874
0.00280518
0.00375612
0.00442855
0.0049042
0.00525357
0.00550876
0.00569378
0.00582628
0.00592179
0.00599128
0.00603538
0.00605465
0.00605176
0.00602994
0.00598916
0.0059215
0.0058301
0.00573202
0.00563672
0.00552138
0.00545566
0.000224743
0.00163013
0.00292863
0.00390126
0.00458175
0.00507867
0.00545129
0.0057236
0.00592072
0.00606349
0.00616802
0.00624557
0.00629607
0.00632262
0.00633162
0.00632255
0.00629314
0.00623222
0.00615056
0.00606642
0.00597499
0.00593558
0.0059129
0.000231482
0.00169237
0.00296276
0.00390055
0.00460252
0.00514487
0.00556501
0.00587482
0.00609674
0.00625522
0.0063709
0.00645547
0.006509
0.00653895
0.00655082
0.00655164
0.00652895
0.00647028
0.00639604
0.00632915
0.00627171
0.00625632
0.00624637
0.000222863
0.00158744
0.00283848
0.00379696
0.00455531
0.00514948
0.00562246
0.00597778
0.00623073
0.0064054
0.00653079
0.00662125
0.00667131
0.00669275
0.00670202
0.00669877
0.00667821
0.00663132
0.00657731
0.00653417
0.00650332
0.00648641
0.00647471
0.000205377
0.00120475
0.00253315
0.00361079
0.00446838
0.0051422
0.00567026
0.00606379
0.00633639
0.00651372
0.00663119
0.00671296
0.00675819
0.00678204
0.00679705
0.00679626
0.00677888
0.00674265
0.0067
0.00666295
0.00663601
0.00662267
0.0066025
0.000186507
0.00100525
0.00230763
0.00348386
0.00443535
0.00517128
0.00572549
0.00611445
0.00638514
0.00656059
0.00667327
0.0067507
0.00680202
0.00683777
0.00686137
0.00686926
0.00686066
0.00683504
0.0068006
0.00676731
0.00673887
0.00672045
0.00670439
0.000177158
0.0011367
0.0024157
0.00355679
0.00449832
0.00521501
0.00573562
0.00611207
0.00637831
0.00655794
0.00667821
0.00676267
0.00682417
0.00687086
0.00690458
0.00692403
0.00692872
0.00691883
0.00689887
0.00687596
0.00685407
0.00683501
0.00682511
0.000188765
0.00142835
0.00264287
0.00368
0.00454162
0.00521173
0.005712
0.00608026
0.00634542
0.00653156
0.00666209
0.00675696
0.00682922
0.00688639
0.00693116
0.00696391
0.00698457
0.00699339
0.0069925
0.00698568
0.00697638
0.00696672
0.00696079
0.00020408
0.00154942
0.00276976
0.00375313
0.00455403
0.00518632
0.00566977
0.00603171
0.0062977
0.00649066
0.00663135
0.00673714
0.00682035
0.00688844
0.00694508
0.00699182
0.00702889
0.00705623
0.00707445
0.00708505
0.00708999
0.00709114
0.00709005
0.000209277
0.00158802
0.00282156
0.00377887
0.00454107
0.00514478
0.00561349
0.0059704
0.00623823
0.00643804
0.00658851
0.00670519
0.0067996
0.00687916
0.00694809
0.0070086
0.00706111
0.00710528
0.00714072
0.00716752
0.00718629
0.00719791
0.00720286
0.000208909
0.00158429
0.00282059
0.00376364
0.00450218
0.00508584
0.00554315
0.0058967
0.00616733
0.00637427
0.00653451
0.00666221
0.00676818
0.0068597
0.00694097
0.00701468
0.00708135
0.00714043
0.007191
0.00723232
0.00726405
0.00728621
0.00729855
0.000205694
0.00155424
0.00278142
0.0037134
0.00443704
0.00500761
0.00545748
0.00580986
0.00608456
0.00629932
0.00646975
0.00660892
0.00672693
0.00683076
0.00692453
0.00701103
0.00709087
0.00716343
0.00722755
0.00728204
0.00732599
0.00735873
0.00737953
0.000200776
0.0015071
0.00271361
0.00363332
0.00434648
0.00490904
0.00535527
0.00570899
0.0059894
0.00621312
0.00639462
0.00654601
0.00667674
0.00679343
0.00690006
0.00699929
0.00709183
0.00717709
0.00725382
0.00732062
0.00737622
0.00741953
0.00744944
0.000194675
0.00144855
0.00262368
0.00352777
0.00423211
0.00479009
0.00523598
0.00559362
0.00588168
0.00611588
0.00630971
0.00647444
0.00661887
0.00674925
0.00686935
0.00698166
0.00708691
0.0071846
0.00727348
0.00735208
0.00741894
0.00747267
0.00751196
0.000187571
0.00138182
0.00251605
0.00340042
0.00409608
0.0046517
0.00509995
0.005464
0.00576182
0.00600831
0.00621608
0.00639557
0.00655498
0.00670015
0.00683462
0.00696064
0.00707896
0.00718915
0.00729004
0.00738013
0.00745787
0.00752176
0.00757033
0.000179448
0.00130756
0.00239324
0.00325438
0.00394108
0.00449584
0.00494866
0.0053214
0.00563113
0.00589186
0.00611535
0.00631126
0.00648715
0.00664841
0.00679832
0.00693887
0.0070708
0.00719374
0.0073066
0.00740793
0.00749619
0.00756982
0.00762732
0.000170494
0.00122203
0.002256
0.00309274
0.00377062
0.00432571
0.00478487
0.00516835
0.00549208
0.00576897
0.00600997
0.006224
0.00641793
0.00659662
0.00676308
0.00691901
0.00706511
0.00720105
0.00732587
0.0074382
0.0075365
0.00761931
0.00768519
0.000161926
0.00111935
0.00210567
0.00291986
0.00358966
0.00414593
0.00461265
0.0050083
0.0053476
0.00564253
0.00590298
0.00613691
0.00635046
0.00654794
0.006732
0.00690407
0.00706477
0.00721381
0.00735034
0.00747314
0.00758085
0.00767211
0.00774559
0.000153686
0.00102759
0.00195898
0.00274677
0.00340675
0.00396381
0.0044386
0.00484754
0.00520382
0.00551819
0.0057994
0.00605446
0.0062887
0.00650585
0.00670815
0.00689674
0.00707214
0.00723413
0.00738196
0.00751462
0.00763094
0.00772976
0.00780991
0.00014587
0.000954748
0.00182984
0.00258702
0.00323402
0.00379008
0.00427222
0.00469442
0.00506804
0.00540236
0.0057049
0.00598159
0.00623691
0.00647393
0.00669447
0.0068994
0.00708912
0.00726347
0.00742187
0.00756352
0.0076875
0.00779287
0.00787872
0.000138728
0.000901243
0.0017246
0.00244961
0.00308122
0.00363435
0.00412259
0.0045573
0.00494784
0.00530182
0.0056254
0.00592336
0.00619928
0.00645556
0.00669359
0.00691394
0.00711698
0.0073026
0.00747042
0.00761987
0.00775032
0.0078611
0.00795156
0.000132405
0.000863496
0.00164377
0.0023389
0.00295496
0.00350428
0.00399761
0.00444388
0.00485036
0.00522297
0.00556643
0.00588436
0.00617944
0.00645342
0.00670729
0.00694141
0.00715611
0.00735138
0.00752703
0.00768277
0.00781827
0.00793316
0.00802706
0.00012689
0.000837283
0.00158522
0.00225615
0.00285914
0.00340536
0.00390351
0.00436041
0.00478148
0.00517099
0.00553229
0.00586795
0.00617979
0.00646901
0.00673626
0.00698177
0.00720585
0.00740863
0.00759014
0.00775039
0.00788932
0.0080069
0.00810301
0.000122105
0.000819866
0.00154682
0.00220136
0.00279578
0.00334098
0.00384433
0.00431104
0.00474494
0.00514896
0.00552529
0.00587557
0.00620096
0.0065022
0.00677972
0.00703366
0.00726439
0.00747218
0.00765731
0.00782007
0.00796072
0.00807949
0.00817655
0.000118009
0.000810342
0.00152754
0.00217428
0.00276556
0.00331247
0.00382159
0.00429707
0.00474163
0.00515719
0.00554509
0.00590629
0.00624147
0.00655106
0.00683534
0.00709446
0.00732885
0.00753898
0.00772537
0.0078886
0.00802922
0.00814773
0.00824456
0.000114643
0.000808841
0.00152695
0.00217419
0.00276754
0.00331859
0.00383372
0.00431654
0.00476916
0.00519291
0.00558861
0.00595681
0.00629787
0.00661204
0.00689952
0.00716055
0.00739563
0.00760546
0.00779083
0.00795257
0.00809154
0.00820847
0.00830401
0.000112109
0.000815347
0.00154391
0.00219872
0.00279829
0.00335508
0.00387583
0.00436415
0.00482204
0.00525062
0.00565048
0.00602196
0.00636524
0.00668048
0.00696789
0.0072278
0.00746086
0.00766799
0.00785028
0.00800884
0.00814477
0.00825905
0.00835246
0.000110499
0.000828786
0.00157529
0.00224288
0.00285136
0.00341454
0.00394003
0.00443196
0.00489257
0.00532305
0.00572398
0.00609559
0.00643802
0.00675139
0.00703596
0.0072922
0.00752095
0.00772341
0.00790096
0.00805502
0.00818691
0.00829779
0.00838858
0.000109829
0.000846928
0.00161577
0.00229912
0.00291785
0.00348746
0.0040168
0.00451082
0.00497224
0.00540249
0.00580222
0.00617167
0.00651095
0.00682021
0.00709982
0.00735043
0.00757315
0.0077695
0.00794119
0.00808994
0.00821729
0.00832448
0.00841248
0.00011001
0.00086712
0.00165915
0.00235899
0.00298825
0.00356411
0.00409676
0.00459205
0.00505325
0.00548206
0.00587924
0.00624508
0.0065797
0.00688336
0.00715659
0.00740032
0.00761595
0.0078054
0.00797077
0.00811406
0.00823693
0.00834064
0.00842609
0.000110863
0.000887117
0.00170004
0.00241521
0.00305455
0.00363651
0.00417241
0.00466886
0.0051296
0.00555657
0.00595064
0.00631217
0.00664136
0.00693863
0.00720477
0.00744105
0.00764929
0.00783186
0.00799125
0.00812969
0.00824885
0.0083498
0.00843327
0.000112164
0.000905291
0.00173489
0.00246299
0.00311147
0.00369945
0.00423888
0.00473687
0.00519745
0.00562275
0.00601372
0.00637081
0.00669438
0.0069851
0.00724413
0.00747321
0.00767464
0.00785128
0.00800603
0.00814121
0.00825817
0.00835756
0.00843981
0.000113669
0.000920233
0.00176162
0.00249988
0.00315648
0.00375044
0.00429383
0.00479393
0.00525492
0.005679
0.00606721
0.00642013
0.00673837
0.00702295
0.00727554
0.0074985
0.00769475
0.0078677
0.00802051
0.00815524
0.0082723
0.00837155
0.00845317
0.000115133
0.000929961
0.00177822
0.00252448
0.00318872
0.00378889
0.00433674
0.00483954
0.00530151
0.0057249
0.00611085
0.00646013
0.00677366
0.00705298
0.00730043
0.00751927
0.00771333
0.00788666
0.00804231
0.00818106
0.00830111
0.00840131
0.00848209
0.000116351
0.000928338
0.00177739
0.00253281
0.00320703
0.00381492
0.00436806
0.0048741
0.0053375
0.00576067
0.0061449
0.00649121
0.00680092
0.00707616
0.00732024
0.00753778
0.0077344
0.00791522
0.00808226
0.00823177
0.00835741
0.00845798
0.00853585
0.00011899
0.000876445
0.00172156
0.00250709
0.00320607
0.00382797
0.00438847
0.00489835
0.00536348
0.00578678
0.00616981
0.00651388
0.00682073
0.00709319
0.00733577
0.0075553
0.00776104
0.00796178
0.00815761
0.00832695
0.00845747
0.00855348
0.00862302
0.000170253
0.00060627
0.0014805
0.0023963
0.00317282
0.00382637
0.00439869
0.00491321
0.00538014
0.00580374
0.00618602
0.00652856
0.0068335
0.0071043
0.00734673
0.00757068
0.00779236
0.00803374
0.00830339
0.00849793
0.00862035
0.00869817
0.00874942
0.000413022
0.000275594
0.000996513
0.00217401
0.00310908
0.00381402
0.00440096
0.00491984
0.00538816
0.00581202
0.00619392
0.00653567
0.0068396
0.00710954
0.00735213
0.0075798
0.00781771
0.00812066
0.00861733
0.00879236
0.00886134
0.00889542
0.0089152
0.000240778
0.00022796
0.000230654
0.000248294
0.00208288
0.00199705
0.00199284
0.00208537
0.00363164
0.00356949
0.00356201
0.00361652
0.00467414
0.00462834
0.00460366
0.0046067
0.00539938
0.00535846
0.00531459
0.00527739
0.00587085
0.00583585
0.00579284
0.00574913
0.0062078
0.00617819
0.00613699
0.00609152
0.00642477
0.00638984
0.00635265
0.00632264
0.00656237
0.00653878
0.00651952
0.00650459
0.00668635
0.0066778
0.00667032
0.0066631
0.00681996
0.00681763
0.00681423
0.00680903
0.00695849
0.00695665
0.00695284
0.00694637
0.00708805
0.00708541
0.00708028
0.00707213
0.00720231
0.00719982
0.00719444
0.00718574
0.00730105
0.00729994
0.00729558
0.00728764
0.00738644
0.00738772
0.00738548
0.00737943
0.00746167
0.00746604
0.00746667
0.00746333
0.00752997
0.0075378
0.00754174
0.00754156
0.00759424
0.00760566
0.00761305
0.00761621
0.00765698
0.00767193
0.00768274
0.00768921
0.00772027
0.00773857
0.00775262
0.00776224
0.00778565
0.00780708
0.00782413
0.00783666
0.00785436
0.00787859
0.00789831
0.00791341
0.00792689
0.00795348
0.00797546
0.00799275
0.00800274
0.00803123
0.00805503
0.00807409
0.00808048
0.00811039
0.00813557
0.00815597
0.00815788
0.00818873
0.00821483
0.00823618
0.00823212
0.00826344
0.00829005
0.00831196
0.00830012
0.00833148
0.00835823
0.00838036
0.00835895
0.00839
0.00841657
0.00843867
0.00840634
0.00843683
0.008463
0.00848488
0.00844112
0.0084709
0.00849656
0.00851812
0.00846364
0.00849269
0.00851782
0.00853906
0.008476
0.00850441
0.00852909
0.00855007
0.00848222
0.00851013
0.00853446
0.00855525
0.00848806
0.00851557
0.00853959
0.00856018
0.00850072
0.00852775
0.00855131
0.00857149
0.0085283
0.00855436
0.00857693
0.00859619
0.00857896
0.00860294
0.00862348
0.00864085
0.00865972
0.00867975
0.00869664
0.00871074
0.00877491
0.00878851
0.00879978
0.00880906
0.00892446
0.0089293
0.00893325
0.00893646
0.00127641
0.00234387
0.00302858
0.00338616
0.00354599
0.00359332
0.00356798
0.00349209
0.00339918
0.00331109
0.00322454
0.00312153
0.00298961
0.00282241
0.00259488
0.00226077
0.00175516
0.00100558
0.00014268
0.00265495
0.00330598
0.00374676
0.00399496
0.00410793
0.00413271
0.00409628
0.00401584
0.00391287
0.00380185
0.00368328
0.00354721
0.00338416
0.00318242
0.00291641
0.00254135
0.00199537
0.00118406
0.000158299
0.00382081
0.00414488
0.00439355
0.00454574
0.0046094
0.00460362
0.00454648
0.00445293
0.00433538
0.00420131
0.00405613
0.00389458
0.00370576
0.00347185
0.0031676
0.00275213
0.00216323
0.00129295
0.000173139
0.00466291
0.00480419
0.00493228
0.00501926
0.00504422
0.0050082
0.00492601
0.00481334
0.00467742
0.00451869
0.00434784
0.00416334
0.00394983
0.00368051
0.00333495
0.00287835
0.00225293
0.00134969
0.000180554
0.0052416
0.00528468
0.00535164
0.00539772
0.00539307
0.00533071
0.00522604
0.00509498
0.00494113
0.00476221
0.00456358
0.00434799
0.00410056
0.00379031
0.00339634
0.00289433
0.00223728
0.00131849
0.000187561
0.00569221
0.00568513
0.00569798
0.00569637
0.005656
0.00556921
0.00544913
0.00530814
0.00514
0.00494043
0.00471542
0.00445818
0.00415142
0.00377615
0.00331771
0.00276089
0.00208066
0.00121405
0.000177756
0.00603654
0.00600902
0.00598633
0.00594717
0.00587614
0.00576573
0.00562504
0.00546474
0.00527804
0.00505973
0.00481001
0.00451998
0.00416498
0.00372488
0.00319144
0.0025695
0.00186303
0.00102903
0.000168048
0.00628909
0.00625752
0.00621826
0.00615439
0.00605894
0.0059275
0.00576692
0.0055849
0.00537784
0.00514087
0.00486713
0.00454812
0.00416477
0.00369821
0.00313655
0.00248636
0.00174818
0.000917467
0.000157809
0.00648555
0.00645272
0.00640099
0.00632094
0.00620759
0.00606023
0.00588425
0.00568372
0.00545697
0.00519914
0.00490327
0.00456138
0.00416112
0.00369144
0.00314599
0.00251361
0.00178907
0.000966688
0.00015472
0.00664923
0.00661214
0.0065502
0.00645849
0.00633343
0.00617472
0.00598589
0.00576953
0.00552404
0.00524483
0.00492612
0.00456172
0.00414268
0.00366085
0.00311745
0.0025104
0.00183849
0.00106707
0.000158581
0.00679449
0.00675092
0.00668101
0.0065807
0.00644703
0.00627948
0.00607988
0.0058493
0.00558583
0.00528529
0.00494263
0.00455238
0.00410774
0.00360159
0.00303772
0.00241962
0.001755
0.00101879
0.000153394
0.00692791
0.00687804
0.00680172
0.00669482
0.00655468
0.00638045
0.00617197
0.00592907
0.00564934
0.00532881
0.00496252
0.00454444
0.00406788
0.0035282
0.00292671
0.00227068
0.00158419
0.000881184
0.000136954
0.00705062
0.00699661
0.00691587
0.00680455
0.00666011
0.00648115
0.0062664
0.00601401
0.00572124
0.00538399
0.00499699
0.00455365
0.00404608
0.00346901
0.00282313
0.00211952
0.00139635
0.000716915
0.00012395
0.0071633
0.0071077
0.00702508
0.00691192
0.00676565
0.00658432
0.00636597
0.00610801
0.00580702
0.00545865
0.00505745
0.00459639
0.00406775
0.00346544
0.00278984
0.00205647
0.00131212
0.000642077
0.000116847
0.00726649
0.00721214
0.00713038
0.00701804
0.00687254
0.00669159
0.00647278
0.00621322
0.00590936
0.00555684
0.00515039
0.00468363
0.00414959
0.00354273
0.00286333
0.00212556
0.00136677
0.000662076
0.000120597
0.00736148
0.00731091
0.00723247
0.00712335
0.00698102
0.00680308
0.006587
0.00632985
0.00602824
0.0056782
0.0052751
0.0048136
0.00428809
0.00369394
0.00302987
0.00230054
0.00152235
0.000743593
0.000130279
0.0074499
0.007405
0.00733179
0.00722776
0.00709056
0.00691784
0.00670713
0.00645567
0.00616038
0.00581777
0.00542392
0.0049744
0.00446449
0.0038895
0.00324487
0.00252445
0.0017245
0.000863339
0.000139855
0.00753343
0.00749539
0.00742864
0.00733098
0.00720027
0.00703431
0.0068308
0.0065872
0.00630075
0.00596833
0.00558646
0.00515109
0.00465737
0.00409924
0.00346794
0.00274917
0.00192351
0.000986215
0.000147798
0.0076137
0.00758305
0.00752339
0.00743279
0.0073093
0.00715095
0.00695559
0.00672091
0.00644431
0.0061229
0.00575323
0.00533103
0.00485053
0.00430352
0.00367735
0.00295159
0.00209747
0.00109498
0.000154109
0.00769228
0.00766904
0.00761659
0.0075332
0.00741715
0.00726661
0.00707962
0.00685395
0.00658709
0.00627607
0.00591725
0.00550567
0.00503396
0.00449197
0.00386402
0.00312616
0.00224616
0.00119769
0.000159411
0.00777059
0.00775443
0.0077089
0.00763249
0.00752365
0.00738068
0.0072017
0.00698451
0.00672643
0.00642441
0.00607431
0.00567034
0.00520404
0.00466294
0.00402855
0.00327406
0.0023643
0.00127052
0.000164282
0.00784981
0.00784008
0.00780094
0.00773102
0.00762888
0.0074929
0.00732124
0.00711167
0.00686144
0.00656704
0.00622376
0.00582489
0.00536071
0.00481697
0.00417295
0.00339946
0.00245862
0.00131925
0.000167877
0.00793076
0.00792669
0.00789326
0.0078292
0.00773316
0.00760354
0.00743848
0.00723564
0.00699205
0.00670379
0.00636549
0.00596955
0.00550507
0.00495631
0.00430082
0.00350758
0.00253685
0.00135655
0.000170202
0.00801365
0.00801445
0.007986
0.00792714
0.00783655
0.00771263
0.00755343
0.00735645
0.00711844
0.00683503
0.00650021
0.00610555
0.00563908
0.00508384
0.00441602
0.00360322
0.00260444
0.00138759
0.000171503
0.00809789
0.00810277
0.00807859
0.0080243
0.00793857
0.00781977
0.00766581
0.007474
0.00724075
0.00696124
0.00662885
0.00623438
0.00576492
0.00520249
0.00452219
0.00369049
0.00266543
0.00141509
0.000172307
0.00818203
0.00819022
0.00816969
0.00811943
0.0080381
0.00792399
0.00777488
0.0075878
0.00735884
0.00708271
0.0067522
0.00635738
0.00588456
0.00531485
0.00462242
0.00377275
0.00272289
0.00144065
0.000173318
0.00826386
0.0082747
0.00825729
0.00821064
0.00813341
0.00802378
0.00787934
0.00769688
0.00747212
0.0071993
0.00687063
0.00647553
0.00599954
0.00542297
0.00471912
0.00385252
0.00277899
0.00146569
0.000174556
0.00834071
0.0083536
0.00833889
0.0082956
0.00822233
0.00811718
0.00797752
0.00779988
0.0075796
0.00731047
0.00698414
0.00658935
0.00611091
0.00552833
0.00481405
0.00393152
0.00283524
0.00149132
0.000175823
0.00840969
0.00842417
0.00841186
0.0083718
0.00830254
0.00820204
0.0080675
0.00789518
0.00768005
0.00741542
0.00709237
0.00669897
0.00621929
0.00563195
0.00490842
0.00401098
0.00289262
0.00151805
0.000177066
0.00846819
0.00848392
0.00847384
0.008437
0.00837191
0.00827642
0.00814755
0.00798129
0.00777226
0.0075133
0.00719489
0.00680443
0.00632512
0.00573463
0.00500328
0.00409198
0.00295205
0.00154674
0.000178029
0.00851433
0.0085311
0.0085232
0.00848967
0.00842901
0.00833898
0.00821647
0.0080572
0.00785546
0.00760362
0.00729157
0.00690594
0.00642902
0.00583735
0.00509991
0.00417597
0.00301502
0.00157893
0.000178536
0.00854739
0.00856513
0.00855942
0.00852937
0.00847345
0.00838941
0.00827402
0.0081228
0.00792972
0.0076867
0.00738301
0.00700445
0.00653227
0.00594173
0.00520019
0.00426498
0.00308329
0.00161503
0.000179542
0.00856814
0.00858687
0.00858345
0.00855705
0.00850623
0.00842873
0.00832127
0.00817925
0.00799635
0.00776408
0.00747104
0.00710212
0.00663738
0.00605053
0.00530701
0.00436177
0.00315884
0.00165468
0.000182141
0.00857904
0.00859883
0.00859778
0.00857521
0.00852982
0.00845942
0.00836076
0.00822918
0.00805816
0.0078388
0.00755907
0.00720283
0.00674867
0.00616836
0.00542496
0.00447043
0.00324496
0.00170044
0.000186205
0.00858418
0.00860503
0.00860637
0.00858776
0.00854807
0.00848532
0.00839637
0.00827658
0.00811934
0.00791546
0.00765224
0.00731242
0.0068728
0.00630256
0.00556143
0.00459753
0.00334677
0.00175635
0.000191424
0.00858901
0.00861074
0.00861433
0.00859966
0.0085659
0.00851132
0.008433
0.00832647
0.00818518
0.00799978
0.00775706
0.00743858
0.00701896
0.00646386
0.00572804
0.00475382
0.00347196
0.00182606
0.000198096
0.00859983
0.00862192
0.00862738
0.00861649
0.00858876
0.0085428
0.00847602
0.00838428
0.00826131
0.00809789
0.0078806
0.00758999
0.0071983
0.00666655
0.00594197
0.00495701
0.00363352
0.00191348
0.000206761
0.00862317
0.00864465
0.00865131
0.00864382
0.00862208
0.00858505
0.0085306
0.00845508
0.00835281
0.00821516
0.00802904
0.00777466
0.00742225
0.00692749
0.00622669
0.00523481
0.00385468
0.00202568
0.000218518
0.00866504
0.00868446
0.00869135
0.00868671
0.00867072
0.00864274
0.00860112
0.00854293
0.00846341
0.00835506
0.00820609
0.0079977
0.00769967
0.00726326
0.0066114
0.00562991
0.0041787
0.00217996
0.000233461
0.0087302
0.00874582
0.00875184
0.00874934
0.0087387
0.00871957
0.00869085
0.00865045
0.00859485
0.00851835
0.00841157
0.00825877
0.00803269
0.00768477
0.00712729
0.00620614
0.00468741
0.00239909
0.000252158
0.00882172
0.00883184
0.00883593
0.00883487
0.00882899
0.00881819
0.00880187
0.00877883
0.008747
0.00870294
0.0086408
0.00855025
0.00841202
0.00818775
0.00779566
0.00705234
0.00555631
0.00271009
0.000274101
0.00894082
0.00894429
0.00894573
0.0089455
0.00894372
0.00894039
0.00893534
0.00892821
0.00891837
0.00890477
0.00888555
0.00885736
0.00881357
0.00873945
0.00859628
0.00825882
0.00722191
0.00309365
0.000295734
)
;

boundaryField
{
    leftWall
    {
        type            nutkWallFunction;
        Cmu             0.09;
        kappa           0.41;
        E               9.8;
        value           nonuniform List<scalar> 
50
(
6.21736e-06
9.52728e-06
1.15322e-05
1.30172e-05
1.41913e-05
1.51768e-05
1.60369e-05
1.68122e-05
1.79269e-05
1.90803e-05
2.01035e-05
2.11927e-05
2.51439e-05
2.73212e-05
2.8144e-05
2.70777e-05
2.50081e-05
2.21928e-05
1.82175e-05
1.83371e-05
2.05402e-05
2.12627e-05
2.11957e-05
2.07224e-05
2.00048e-05
1.91149e-05
1.80756e-05
1.68818e-05
1.55678e-05
1.43093e-05
1.30872e-05
1.1922e-05
1.08523e-05
9.89949e-06
9.0627e-06
8.33143e-06
7.70136e-06
7.18109e-06
6.78845e-06
6.5396e-06
6.43794e-06
6.46954e-06
6.60639e-06
6.81285e-06
7.0507e-06
7.28176e-06
7.47409e-06
7.85984e-06
1.52185e-05
4.87078e-05
)
;
    }
    rightWall
    {
        type            nutkWallFunction;
        Cmu             0.09;
        kappa           0.41;
        E               9.8;
        value           nonuniform List<scalar> 
50
(
7.04616e-06
9.77758e-06
1.12542e-05
1.23114e-05
1.31585e-05
1.37885e-05
1.44418e-05
1.52773e-05
1.65681e-05
1.82611e-05
1.98711e-05
2.13917e-05
2.17422e-05
2.0481e-05
2.03327e-05
1.86297e-05
1.54834e-05
1.38544e-05
1.31252e-05
1.06892e-05
8.7055e-06
7.57047e-06
8.50316e-06
1.00239e-05
1.13789e-05
1.22067e-05
1.33923e-05
1.42278e-05
1.49399e-05
1.54718e-05
1.5789e-05
1.5826e-05
1.59923e-05
1.62001e-05
1.63791e-05
1.65624e-05
1.67426e-05
1.67732e-05
1.6753e-05
1.69905e-05
1.74391e-05
1.80234e-05
1.87726e-05
1.97151e-05
2.09038e-05
2.25612e-05
2.46334e-05
2.72289e-05
3.02544e-05
3.31933e-05
)
;
    }
    lowerWall
    {
        type            nutkWallFunction;
        Cmu             0.09;
        kappa           0.41;
        E               9.8;
        value           nonuniform List<scalar> 
62
(
2.81266e-06
4.95355e-06
6.04307e-06
6.76525e-06
7.29542e-06
7.70237e-06
8.02064e-06
8.27283e-06
8.47504e-06
8.63848e-06
8.77167e-06
8.88448e-06
8.96943e-06
9.02544e-06
9.04811e-06
9.02163e-06
8.89162e-06
8.66545e-06
8.41874e-06
8.09991e-06
7.48794e-06
6.23372e-06
3.83668e-06
3.83668e-06
1.20544e-05
1.38265e-05
1.50981e-05
1.62611e-05
1.76951e-05
1.98431e-05
2.39299e-05
2.68827e-05
2.56021e-05
2.58942e-05
2.76987e-05
3.40997e-06
1.31896e-05
1.57593e-05
1.79312e-05
2.00075e-05
2.2243e-05
2.50592e-05
2.9031e-05
3.40997e-06
6.14326e-06
7.13414e-06
7.52253e-06
7.65113e-06
7.65183e-06
7.49653e-06
7.08389e-06
6.57712e-06
6.37089e-06
6.5014e-06
6.505e-06
6.34122e-06
6.34348e-06
6.4416e-06
6.25864e-06
5.52131e-06
4.30903e-06
2.88058e-06
)
;
    }
    atmosphere
    {
        type            calculated;
        value           nonuniform List<scalar> 
46
(
0.009
0.000275594
0.000996513
0.00217401
0.00310908
0.00381402
0.00440096
0.00491984
0.00538816
0.00581202
0.00619392
0.00653567
0.0068396
0.00710954
0.00735213
0.0075798
0.00781771
0.00812066
0.009
0.009
0.009
0.009
0.009
0.009
0.009
0.009
0.009
0.009
0.009
0.009
0.009
0.009
0.009
0.009
0.009
0.009
0.009
0.009
0.009
0.009
0.009
0.009
0.009
0.009
0.00309365
0.000295734
)
;
    }
    defaultFaces
    {
        type            empty;
    }
}


// ************************************************************************* //
