/*--------------------------------*- C++ -*----------------------------------*\
  =========                 |
  \\      /  F ield         | OpenFOAM: The Open Source CFD Toolbox
   \\    /   O peration     | Website:  https://openfoam.org
    \\  /    A nd           | Version:  9
     \\/     M anipulation  |
\*---------------------------------------------------------------------------*/
FoamFile
{
    format      ascii;
    class       volScalarField;
    location    "2.61";
    object      p_rgh;
}
// * * * * * * * * * * * * * * * * * * * * * * * * * * * * * * * * * * * * * //

dimensions      [1 -1 -2 0 0 0 0];

internalField   nonuniform List<scalar> 
2268
(
830.341
829.035
827.042
823.717
820.082
815.854
811.166
806.119
800.799
795.29
789.666
784.003
778.367
772.81
767.351
761.967
756.372
750.791
746.801
744.559
742.251
740.439
740.135
830.564
829.293
827.449
824.28
820.588
816.306
811.545
806.408
800.987
795.365
789.625
783.84
778.079
772.394
766.816
761.39
755.367
750.154
746.144
743.456
741.759
740.498
740.413
831.041
829.736
827.912
824.89
821.181
816.844
811.996
806.748
801.199
795.44
789.556
783.629
777.733
771.93
766.276
760.893
754.745
749.315
745.322
741.721
741.458
740.291
740.362
831.756
830.378
828.498
825.539
821.81
817.408
812.465
807.096
801.411
795.507
789.478
783.41
777.387
771.49
765.802
760.487
755.584
749.69
745.444
744.219
741.284
739.943
739.841
832.715
831.211
829.22
826.255
822.483
818.004
812.953
807.457
801.63
795.581
789.406
783.197
777.052
771.068
765.348
760.042
755.607
751.885
748.035
744.093
741.061
739.505
739.182
833.913
832.244
830.103
827.083
823.239
818.66
813.488
807.852
801.874
795.672
789.347
782.991
776.715
770.636
764.863
759.534
754.946
751.005
747.184
743.542
740.788
739.133
738.348
835.339
833.485
831.171
828.053
824.104
819.401
814.085
808.292
802.149
795.785
789.299
782.783
776.362
770.171
764.319
758.933
754.216
750.129
746.344
742.922
740.425
738.986
737.313
837.002
834.946
832.441
829.186
825.1
820.241
814.753
808.779
802.451
795.908
789.243
782.548
775.963
769.645
763.7
758.241
753.419
749.235
745.496
742.232
739.851
738.315
735.844
719.148
720.021
720.768
721.071
721.845
723.301
725.505
728.095
732.41
737.675
742.317
746.115
747.76
751.322
754.94
757.31
757.571
757.21
757.374
718.899
719.306
720.378
720.894
722.001
723.573
725.673
728.743
733.681
739.007
743.1
746.27
748.086
751.273
754.224
756.256
758.336
757.988
758.693
718.568
719.243
719.835
720.458
721.833
723.645
726.025
729.258
734.814
740.389
743.994
747.3
748.184
751.234
755.255
758.351
758.132
758.541
758.728
719.347
719.568
719.236
720.002
721.604
723.696
726.345
729.271
735.861
740.685
744.739
749.16
748.071
751.898
760.72
759.497
746.389
753.712
758.793
719.324
718.899
718.905
719.401
721.213
723.704
726.629
729.596
734.259
740.457
745.244
750.941
754.54
758.881
761.783
760.753
740.517
735.788
745.151
718.349
717.596
717.862
718.541
720.609
723.719
722.931
699.974
701.574
724.259
742.61
751.762
757.651
760.642
762.925
766.816
772.09
735.649
732.771
717.683
716.27
716.647
717.409
719.697
723.678
718.22
691.705
697.294
700.952
708.949
752.64
758.061
761.061
763.962
768.537
773.866
765.682
732.821
717.763
715.27
715.563
716.035
717.652
720.532
727.276
703.211
695.373
699.534
737.146
754.794
758.595
761.385
764.731
770.196
775.567
779.638
757.418
839.997
837.629
834.814
831.289
826.929
821.763
815.946
809.635
802.973
796.119
789.148
782.133
775.247
768.695
762.572
756.966
751.982
747.699
744.05
740.98
738.541
736.406
733.489
845.172
842.626
839.416
835.409
830.484
824.69
818.259
811.363
804.126
796.832
788.77
779.131
767.85
755.33
741.724
727.388
713.111
699.694
687.071
675.132
665.659
663.314
661.045
773.725
759.19
738.369
716.57
691.626
662.585
628.844
589.444
544.911
500.097
457.384
405.677
356.925
313.577
275.28
242.918
215.661
195.439
182.018
176.399
174.472
167.462
149.266
186.342
164.475
144.832
122.493
99.3803
77.2761
57.3338
42.2422
29.5006
18.1843
5.1047
3.65378
3.58255
3.34652
3.05242
3.0267
2.97717
2.75496
2.3393
1.58941
1.02333
1.52377
2.52014
4.53908
5.19616
4.22433
2.17246
2.35573
3.28598
3.88738
4.56327
9.70813
12.4183
9.2256
9.84547
10.4543
9.44439
6.97491
14.1809
14.1264
13.891
13.2473
4.0803
0.936639
1.93698
8.40897
3.88231
6.53437
2.17998
2.16035
2.22286
5.21738
10.488
10.3587
8.80211
10.7316
15.9285
15.9093
15.784
15.5795
14.0804
4.61084
6.06055
4.38179
1.45212
1.93628
0.748165
2.3755
8.89331
3.81896
7.02922
3.58416
2.10053
2.121
9.03173
10.7852
10.6662
10.5665
8.64192
5.06072
7.13264
6.66367
2.12948
2.25576
2.45351
1.79876
1.01711
0.64316
0.588123
0.589933
0.861506
2.79289
3.75448
7.23398
7.33174
6.95016
7.49265
9.26427
7.46068
3.90221
4.01978
3.0017
0.436311
0.0372328
0.059986
0.250754
2.43948
3.01879
3.06167
3.09185
1.64535
0.542663
0.509863
0.402982
0.0948103
5.27487
6.73779
6.78219
5.26829
6.09397
5.57191
0.896641
-0.01741
-0.0258639
-0.0173914
0.00437289
0.0115647
0.0205437
0.0917041
0.321002
0.687502
1.5147
2.88859
3.3607
3.38055
2.8986
0.0986694
0.0730413
2.50751
2.87095
2.22516
0.845598
0.927546
0.304919
-0.0537576
-0.0404249
-0.0343864
-0.0233347
-0.00758357
0.00807009
0.017496
0.0205093
0.0123735
0.0110736
0.00671063
0.0010722
0.0719135
0.180662
0.122577
0.0780631
0.0662978
0.318124
0.440463
0.078593
-0.0936127
-0.0939142
-0.08402
-0.0641309
-0.048751
-0.0382231
-0.0272875
-0.0152963
-0.00517318
0.00586592
0.0119965
0.0115603
0.00763739
0.00746948
0.00853944
0.0134196
0.0228805
0.0380494
0.0536625
0.0671719
-0.107472
-0.113888
-0.105339
-0.095953
-0.0891415
-0.0792816
-0.0647604
-0.0514337
-0.0407122
-0.030618
-0.0207916
-0.012638
-0.00587174
-0.000781262
0.00214542
0.00491734
0.00711268
0.00958868
0.0142581
0.0220573
0.0320649
0.041166
0.0509805
-0.0956203
-0.100623
-0.0965165
-0.0895839
-0.0825527
-0.0735748
-0.0624441
-0.0517263
-0.0421443
-0.0331482
-0.0247069
-0.0173472
-0.0110256
-0.00587187
-0.00191116
0.00157611
0.0048575
0.00858846
0.0135673
0.0199905
0.0274117
0.0342219
0.0385804
-0.081868
-0.0874783
-0.0863035
-0.081361
-0.0747024
-0.0680999
-0.0594782
-0.0507759
-0.0425043
-0.034631
-0.0272456
-0.0205841
-0.0146599
-0.00950758
-0.00507361
-0.00097977
0.00301868
0.00727435
0.0121421
0.0176779
0.0235512
0.0289013
0.0329002
-0.0709413
-0.0765209
-0.0769324
-0.0729742
-0.0680482
-0.0623544
-0.0562135
-0.0490491
-0.0419871
-0.0351513
-0.0286563
-0.0226333
-0.0171123
-0.0120908
-0.00750053
-0.00314771
0.00113283
0.00553283
0.010198
0.0151059
0.02002
0.024482
0.0280991
-0.0625435
-0.0677277
-0.0688529
-0.065878
-0.0620593
-0.0573935
-0.0527726
-0.0468275
-0.0408171
-0.0348931
-0.0291676
-0.0237301
-0.0186125
-0.0138101
-0.00927495
-0.00490594
-0.000606535
0.00371663
0.00811302
0.012534
0.0168164
0.0207063
0.0239971
-0.0563577
-0.0607518
-0.0619967
-0.0602632
-0.0569014
-0.0535586
-0.0492183
-0.0442927
-0.0391678
-0.0340269
-0.0289713
-0.0240718
-0.019361
-0.0148421
-0.0104899
-0.00625552
-0.00209148
0.00203891
0.00613956
0.0101577
0.0139805
0.0174571
0.0204686
-0.0516933
-0.0551289
-0.0560987
-0.0550751
-0.0527272
-0.0495407
-0.0456994
-0.0415539
-0.0371655
-0.032693
-0.0282242
-0.0238198
-0.0195132
-0.0153163
-0.0112229
-0.00721445
-0.00327491
0.000600984
0.00439611
0.00806093
0.011515
0.0146609
0.0174246
-0.0479215
-0.0503249
-0.0509049
-0.0500032
-0.0480759
-0.045415
-0.0422232
-0.0386775
-0.0349038
-0.031004
-0.0270533
-0.0231054
-0.0191942
-0.0153385
-0.0115451
-0.00781425
-0.00414837
-0.000558783
0.00292872
0.00626997
0.00940501
0.0122657
0.0148015
-0.0445709
-0.0457234
-0.0447149
-0.0451945
-0.0436664
-0.0414341
-0.0387375
-0.0357102
-0.0324545
-0.0290507
-0.0255623
-0.0220367
-0.0185078
-0.0149988
-0.0115248
-0.00809708
-0.00472852
-0.00143845
0.00174474
0.00478243
0.007628
0.01023
0.0125512
-0.0412261
-0.0416797
-0.0389869
-0.0384007
-0.0392537
-0.0375767
-0.0352814
-0.0326895
-0.0298768
-0.0269083
-0.0238365
-0.0207033
-0.0175411
-0.0143753
-0.0112259
-0.00811
-0.00504611
-0.00205685
0.000829678
0.00357992
0.00615614
0.00851711
0.0106337
-0.0377935
-0.0378701
-0.0346475
-0.0338562
-0.0348782
-0.0338374
-0.0318758
-0.0296531
-0.0272252
-0.0246424
-0.0219485
-0.0191799
-0.0163669
-0.0135348
-0.0107058
-0.0078999
-0.00513798
-0.00244345
0.000157167
0.00263458
0.00495745
0.00709117
0.00901178
-0.034498
-0.0342063
-0.0305484
-0.0297797
-0.0312095
-0.0302314
-0.0285514
-0.0266453
-0.0245534
-0.0223144
-0.0199639
-0.0175331
-0.0150492
-0.0125365
-0.0100173
-0.00751236
-0.00504313
-0.00263247
-0.000304818
0.00191421
0.00399794
0.0059164
0.00764907
-0.0313763
-0.0306314
-0.0278831
-0.0283166
-0.02796
-0.0267939
-0.02535
-0.0237155
-0.0219174
-0.0199844
-0.0179447
-0.0158244
-0.0136473
-0.0114357
-0.00921064
-0.00699241
-0.0048019
-0.00266067
-0.000591009
0.00138462
0.00324308
0.00495788
0.006511
-0.0284179
-0.0273477
-0.0264034
-0.025587
-0.0246551
-0.0235669
-0.0223171
-0.0209132
-0.0193705
-0.0177084
-0.0159481
-0.0141104
-0.0122156
-0.0102834
-0.00833284
-0.00638319
-0.00445387
-0.00256489
-0.000736432
0.00101167
0.00265915
0.00418229
0.00556507
-0.0256168
-0.0243845
-0.0233637
-0.0224674
-0.0215682
-0.0205863
-0.0194931
-0.0182829
-0.0169602
-0.0155357
-0.0140237
-0.0124401
-0.0108014
-0.00912431
-0.0074259
-0.00572368
-0.00403539
-0.00237939
-0.00077389
0.000763547
0.00221502
0.00355923
0.00478189
-0.0229898
-0.0217015
-0.0206072
-0.0196595
-0.0187779
-0.017875
-0.0169077
-0.015859
-0.014724
-0.0135055
-0.0122114
-0.0108529
-0.00944279
-0.00799511
-0.00652451
-0.00504653
-0.00357739
-0.00213372
-0.000731933
0.000612416
0.00188349
0.00306216
0.00413571
-0.0205498
-0.019262
-0.018123
-0.0171456
-0.0162807
-0.0154417
-0.0145778
-0.013664
-0.0126877
-0.0116455
-0.0105396
-0.00937724
-0.00816787
-0.00692282
-0.00565458
-0.00437682
-0.00310415
-0.00185159
-0.000633879
0.000535187
0.00164164
0.0026684
0.00360423
-0.0183037
-0.0170368
-0.0158892
-0.0149068
-0.0140656
-0.0132841
-0.012508
-0.0117072
-0.0108643
-0.00997072
-0.00902491
-0.0080304
-0.0069941
-0.005925
-0.00483363
-0.00373198
-0.00263317
-0.00155072
-0.000497837
0.000513294
0.00147047
0.00235858
0.00316789
-0.0162579
-0.0150235
-0.0138908
-0.0129245
-0.012117
-0.0113909
-0.0106915
-0.00998603
-0.00925414
-0.00848434
-0.00767228
-0.00681901
-0.00592936
-0.00501051
-0.00407137
-0.00312254
-0.00217584
-0.00124347
-0.000337285
0.000532108
0.00135426
0.00211607
0.00280937
-0.0144098
-0.0132141
-0.0121117
-0.0111786
-0.010414
-0.00974334
-0.00911209
-0.00848719
-0.0078472
-0.00717924
-0.00647736
-0.00574104
-0.00497366
-0.00418109
-0.0033711
-0.00255324
-0.00173835
-0.000937624
-0.000161683
0.000580429
0.00128018
0.00192666
0.00251341
-0.0127464
-0.0115923
-0.0105324
-0.00964594
-0.00893181
-0.00831631
-0.00774643
-0.00719004
-0.00662603
-0.00604127
-0.00542916
-0.00478836
-0.00412139
-0.00343333
-0.00273128
-0.00202427
-0.00132264
-0.000636951
2.31188e-05
0.000650212
0.00123812
0.0017785
0.00226688
-0.0112475
-0.0101374
-0.00913044
-0.00830102
-0.00764249
-0.00708162
-0.00656763
-0.0060702
-0.00556938
-0.00505255
-0.00451311
-0.00394941
-0.00336361
-0.0027605
-0.00214706
-0.00153242
-0.000927079
-0.000341679
0.000214608
0.000736358
0.00122052
0.00166202
0.00205874
-0.00988811
-0.00882706
-0.00788241
-0.00711755
-0.00651779
-0.00601076
-0.00554849
-0.00510282
-0.00465534
-0.00419431
-0.00371348
-0.00321126
-0.00268978
-0.00215401
-0.00161139
-0.00107187
-0.000547054
-4.87483e-05
0.000413358
0.000836296
0.00122185
0.00156936
0.00187952
-0.0086385
-0.00763727
-0.00676362
-0.00606914
-0.00553044
-0.00507684
-0.00466353
-0.0042646
-0.0038632
-0.00344855
-0.00301492
-0.00256096
-0.00208901
-0.00160453
-0.00111594
-0.000634843
-0.000175188
0.000248261
0.000622935
0.000949324
0.00123761
0.00149336
0.0017204
-0.00746283
-0.00653882
-0.00574622
-0.0051287
-0.00465436
-0.00425511
-0.00388971
-0.0035345
-0.0031741
-0.00279869
-0.00240309
-0.00198621
-0.00155068
-0.00110253
-0.000651544
-0.000211749
0.000199137
0.000560399
0.000850739
0.00107611
0.00126307
0.00142617
0.00157205
-0.00631535
-0.00549458
-0.00479818
-0.00426843
-0.00386466
-0.00352291
-0.00320634
-0.00289375
-0.00257119
-0.00222985
-0.00186508
-0.00147598
-0.00106524
-0.000639261
-0.000209021
0.000208701
0.000590843
0.000905814
0.00110981
0.00121821
0.00129189
0.00135792
0.00142358
-0.00513341
-0.00446085
-0.00388723
-0.00346229
-0.0031381
-0.00285896
-0.00259403
-0.00232477
-0.00203887
-0.00172867
-0.00139009
-0.0010222
-0.000627245
-0.000211046
0.000215532
0.000634078
0.00101456
0.0013068
0.0014152
0.00137295
0.00131243
0.00127466
0.00126166
-0.00382297
-0.00338578
-0.00298767
-0.00268999
-0.00245361
-0.0022428
-0.00203386
-0.00181051
-0.00156237
-0.00128329
-0.000969858
-0.00062094
-0.000237499
0.000176883
0.00061353
0.00105485
0.001468
0.00178681
0.00177767
0.00151764
0.00129493
0.00115171
0.00106818
-0.00233502
-0.00221654
-0.00209027
-0.00194838
-0.00181026
-0.00167724
-0.00152979
-0.00135322
-0.00114021
-0.000886933
-0.00059117
-0.000251866
0.000131722
0.000558935
0.00102034
0.00149046
0.00197548
0.00251439
0.0023251
0.00162822
0.00117885
0.000943961
0.000815988
-0.000175319
-0.000827729
-0.00118313
-0.00127737
-0.00128534
-0.00125146
-0.00116382
-0.00101675
-0.000810607
-0.000545748
-0.0002218
0.000161311
0.000605966
0.00111357
0.00166992
0.0022311
0.00286718
0.00426678
0.00374937
0.0018201
0.00093355
0.000619626
0.000483919
0.00100287
-0.00141023
-0.000977781
-0.000892998
-0.000912311
-0.000907586
-0.000838273
-0.000700549
-0.000498663
-0.000235588
8.92337e-05
0.000482003
0.000954199
0.00152541
0.00223963
0.00325887
0.00497193
0.00707679
0.00645324
0.00220246
0.000750763
0.000315581
0.000150327
728.228
725.727
723.773
721.959
656.006
643.589
626.75
605.368
132.904
124.039
117.521
113.87
2.86786
3.07268
3.21248
2.81488
8.58601
8.5397
6.91049
3.73202
8.9676
8.07179
4.69585
4.69893
5.66769
0.544802
0.196776
0.736029
0.0885146
0.0959933
0.104545
0.144622
0.0715922
0.0771618
0.0807085
0.0791822
0.0788441
0.0800167
0.0802191
0.0704886
0.0696104
0.0704399
0.0708611
0.0708267
0.0614797
0.0625222
0.0628119
0.0636784
0.0407324
0.0418495
0.0429119
0.0487441
0.0350005
0.0361438
0.0370938
0.037861
0.0301166
0.0312664
0.0322722
0.0331395
0.0259272
0.0270578
0.0280748
0.0289738
0.0223041
0.0233978
0.0243987
0.0252951
0.0191583
0.0202037
0.0211711
0.0220445
0.0164272
0.0174165
0.01834
0.019178
0.0140644
0.0149924
0.0158649
0.0166594
0.0120324
0.0128956
0.0137119
0.0144574
0.0102953
0.0110917
0.0118486
0.0125411
0.00881781
0.00954643
0.0102423
0.0108796
0.00756676
0.00822798
0.00886208
0.00944335
0.00651133
0.0071067
0.00767978
0.00820537
0.00562353
0.00615557
0.00666942
0.00714071
0.00487872
0.00535055
0.00580765
0.00622673
0.00425512
0.0046702
0.00507342
0.00544276
0.00373328
0.00409516
0.00444758
0.00476989
0.00329565
0.00360792
0.00391271
0.00419084
0.00292658
0.00319275
0.00345309
0.00368995
0.00261239
0.00283579
0.00305474
0.00325322
0.00234137
0.00252496
0.00270536
0.00286822
0.00210327
0.00224959
0.00239399
0.00252379
0.00188848
0.0019997
0.00211039
0.00220957
0.00168701
0.00176512
0.00184433
0.00191538
0.00148766
0.0015348
0.00158508
0.0016308
0.00127762
0.00129667
0.00132137
0.00134529
0.00104238
0.00103817
0.00104214
0.0010489
0.000764568
0.000746406
0.000737403
0.000733397
0.000424392
0.000405249
0.000396236
0.000392051
8.85996e-05
6.44537e-05
4.81624e-05
3.68886e-05
716.786
714.182
707.813
673.165
646.586
651.851
699.87
714.795
721.052
732.213
742.433
745.967
748.783
738.48
740.188
772.793
777.686
781.7
783.346
568.074
529.914
520.146
538.535
577.366
616.212
635.523
648.448
629.086
616.448
605.477
590.437
590.068
614.944
667
709.595
746.457
775.859
779.492
112.912
142.403
195.977
244.527
269.318
276.833
292.673
347.746
420.394
472.72
500.68
513.931
515.63
528.09
515.972
468.694
440.767
431.529
438.133
1.76544
1.38869
1.08623
1.04321
1.01088
0.974867
0.902846
0.812699
0.728757
2.26404
21.377
49.1039
72.0495
67.5497
50.5408
37.6603
25.1797
15.3339
19.6696
1.35191
1.26763
1.45678
2.06469
2.15689
1.84378
1.48966
1.69285
1.69846
1.66576
1.47805
1.42687
1.42481
1.52895
1.64933
1.69002
1.68541
1.68366
1.67783
2.72067
1.70308
3.03586
3.15455
3.11174
3.06633
2.96344
2.91309
2.88845
2.67478
2.36656
3.23168
3.80909
3.88423
3.94236
2.95929
1.69841
1.70824
1.6761
2.4358
3.09989
3.03688
2.64773
2.19838
1.25016
0.481867
0.49804
0.319745
0.985563
0.803222
0.690572
1.25743
2.45602
3.34186
3.57129
3.63504
3.65043
3.64629
0.819611
1.40533
0.619048
0.0688513
0.0662934
0.0706995
0.294577
0.14507
0.108302
0.0615145
0.0572676
0.0519711
0.0458401
0.0417342
0.261799
2.0212
2.97926
2.75452
2.57183
0.0702082
0.0628384
0.0628243
0.0637351
0.0618735
0.0625788
0.063853
0.0639347
0.0621215
0.0643836
0.053784
0.0458261
0.0395047
0.035546
0.0697338
0.0181513
0.00817087
0.336526
0.516304
0.0655127
0.0600301
0.0586568
0.0582461
0.0572643
0.0571656
0.0588349
0.0894785
0.102883
0.098055
0.0911857
0.0494589
0.0725834
0.114947
0.145738
0.0960667
0.00980885
-0.0071958
-0.00843676
0.0701401
0.0614758
0.0540644
0.0535075
0.0527424
0.0521125
0.0633754
0.102721
0.099466
0.0751264
0.0484426
0.142321
0.192694
0.186264
0.178773
0.171157
0.0835805
-0.00218991
-0.00280737
0.0639893
0.0633891
0.052261
0.0489706
0.0482974
0.0478089
0.0484586
0.0486773
0.0473228
0.0370753
0.0326685
0.0292341
0.0838988
0.155409
0.156301
0.151638
0.100107
0.00368951
0.00260398
0.0556217
0.0565419
0.0465493
0.0445402
0.0442433
0.0437343
0.0420092
0.0392489
0.0365916
0.0335621
0.0298113
0.0251126
0.0195532
0.014435
0.0109442
0.00875682
0.0142687
0.011407
0.00771601
0.038876
0.0396749
0.0404661
0.0407788
0.0400209
0.0393786
0.0382474
0.0359465
0.0336142
0.0308884
0.0277086
0.0238328
0.0197465
0.0162001
0.0140454
0.0152977
0.0236791
0.029404
0.0169109
0.0343629
0.0354438
0.0360957
0.0363516
0.0361747
0.0354445
0.0344052
0.0333733
0.0311963
0.0283002
0.0255072
0.0223176
0.0190258
0.0161642
0.0173815
0.0858037
0.132555
0.131467
0.117244
0.0302798
0.0315111
0.0322822
0.0326173
0.0325193
0.0319878
0.0314186
0.0304297
0.0286682
0.0260433
0.0232955
0.0205262
0.017615
0.014777
0.0199785
0.119941
0.134392
0.133439
0.133325
0.0266157
0.0279139
0.0287561
0.0291682
0.0291646
0.0287534
0.0282062
0.0275602
0.026009
0.0238293
0.0211046
0.0186255
0.0159458
0.0131296
0.0100239
0.0146801
0.0508662
0.0577046
0.108163
0.0233403
0.0246515
0.0255299
0.025997
0.026068
0.0257538
0.0250627
0.0241866
0.0232755
0.0212448
0.0190243
0.0167978
0.014348
0.0117317
0.00890747
0.00593772
0.00363882
0.0021371
0.00305341
0.0204249
0.0217132
0.0225988
0.0230983
0.0232252
0.0229921
0.0224119
0.0215021
0.0202884
0.0189039
0.0173633
0.0152987
0.0129102
0.0105817
0.00816533
0.00580028
0.00414436
0.00604766
0.0814312
0.0178422
0.0190831
0.0199543
0.0204676
0.0206345
0.020468
0.0199825
0.0191959
0.0181308
0.0168553
0.0155837
0.0138361
0.0116903
0.00958973
0.00753884
0.00562598
0.00423489
0.00672723
0.103976
0.0155659
0.0167427
0.0175832
0.0180956
0.0182891
0.0181765
0.0177726
0.0170948
0.0161641
0.0150063
0.0137792
0.0123777
0.0105369
0.00873322
0.00700915
0.00543127
0.00423396
0.00374903
0.108196
0.0135689
0.0146704
0.0154685
0.0159684
0.0161777
0.0161083
0.0157746
0.0151938
0.0143865
0.0133766
0.0121917
0.0108693
0.00945938
0.00800289
0.00657737
0.00529668
0.00432918
0.00388318
0.112728
0.0118234
0.0128425
0.0135899
0.0140688
0.014285
0.0142496
0.0139765
0.0134824
0.0127875
0.0119161
0.0108975
0.009769
0.0085761
0.00737486
0.00623617
0.00525622
0.00458719
0.00448175
0.105837
0.0103024
0.0112351
0.0119264
0.0123779
0.0125938
0.0125845
0.0123631
0.0119457
0.0113521
0.0106068
0.00973976
0.00878875
0.00780078
0.00683468
0.00596695
0.00530227
0.0050121
0.00534152
0.0458129
0.0089804
0.00982521
0.010457
0.0108762
0.0110861
0.0110957
0.0109176
0.0105669
0.0100633
0.00943067
0.00869921
0.007907
0.00710208
0.00634605
0.00572119
0.00534612
0.0054154
0.00616938
0.0683826
0.00783386
0.00859115
0.00916166
0.0095452
0.00974396
0.00976606
0.00962299
0.00932936
0.00890382
0.00836982
0.00775696
0.00710276
0.00645481
0.0058744
0.00544344
0.00528073
0.00557933
0.00760206
0.0983536
0.00684106
0.00751264
0.00802146
0.00836695
0.00855041
0.00857901
0.00846332
0.00821704
0.00785785
0.00740825
0.00689678
0.00635956
0.0058422
0.00540271
0.00511631
0.0050881
0.00549182
0.0105983
0.101413
0.0059819
0.00657072
0.00701857
0.00732458
0.00748936
0.0075192
0.00742371
0.00721556
0.00691137
0.00653242
0.0061059
0.00566618
0.0052563
0.00492998
0.0047533
0.00481111
0.00524786
0.0108137
0.10429
0.00523787
0.00574775
0.00613624
0.00640226
0.00654585
0.00657246
0.00649071
0.00631219
0.00605229
0.00573106
0.00537432
0.00501494
0.0046941
0.00446255
0.0043796
0.00451448
0.00498801
0.00641694
0.106883
0.00459198
0.00502738
0.0053589
0.00558526
0.00570605
0.00572587
0.00565229
0.00549571
0.00527026
0.00499467
0.00469361
0.00439917
0.00415248
0.00400521
0.00401902
0.00426969
0.00488897
0.00607367
0.0539617
0.00402879
0.00439458
0.00467216
0.00486001
0.00495731
0.00496777
0.00489779
0.00475646
0.00455647
0.00431511
0.00405595
0.00381081
0.00362237
0.00354739
0.0036607
0.00407058
0.00495942
0.00647711
0.00836348
0.00353434
0.00383566
0.00406284
0.00421412
0.00428817
0.00428773
0.00421792
0.00408629
0.00390376
0.00368582
0.00345442
0.00324057
0.00308804
0.00305843
0.00324003
0.00377284
0.00488094
0.00665032
0.0585997
0.00309613
0.00333823
0.00351903
0.00363635
0.00368831
0.00367658
0.00360477
0.00347864
0.00330693
0.00310263
0.00288502
0.00268264
0.0025377
0.00251216
0.00269807
0.00324381
0.00437788
0.00614864
0.101731
0.00270287
0.0028911
0.00302988
0.00311652
0.00314845
0.00312612
0.00305154
0.00292839
0.00276278
0.0025644
0.00234853
0.00213911
0.00197358
0.00190949
0.00203438
0.00248923
0.00349731
0.00515938
0.103183
0.00234418
0.00248396
0.00258547
0.00264528
0.00266001
0.00262887
0.0025522
0.00243145
0.00226972
0.00207269
0.00185034
0.0016199
0.00141098
0.00127298
0.00128521
0.00158029
0.00239542
0.00396286
0.104514
0.00201016
0.00210715
0.00217648
0.00221379
0.00221485
0.00217767
0.00210098
0.00198405
0.00182686
0.00163061
0.0013989
0.00114026
0.000873252
0.000634896
0.000492368
0.000572237
0.00114796
0.00262364
0.098162
0.00169109
0.00175143
0.00179405
0.00181358
0.00180496
0.0017652
0.00169176
0.00158196
0.00143288
0.00124126
0.00100368
0.000718269
0.000389038
3.47217e-05
-0.000296999
-0.00048494
-0.000205983
0.00119065
0.0701821
0.00137745
0.00140799
0.00142973
0.00143636
0.00142224
0.00138378
0.0013176
0.0012197
0.00108491
0.00090613
0.000673094
0.000372663
-9.09601e-06
-0.000479241
-0.00102367
-0.00154601
-0.00168181
-0.000419624
0.0647544
0.00106048
0.00106916
0.00107618
0.00107478
0.00105928
0.00102603
0.000971468
0.000891109
0.000778703
0.000624816
0.000414035
0.0001231
-0.000280813
-0.000838658
-0.00159424
-0.00256765
-0.00333428
-0.00239104
0.0441531
0.000733461
0.000729954
0.000729026
0.000724522
0.000711607
0.000687319
0.000648697
0.000591849
0.000511042
0.000396985
0.000233094
-8.40789e-06
-0.000372851
-0.000933808
-0.00183166
-0.00330601
-0.00514924
-0.00492512
0.0348346
0.000391907
0.00038601
0.000383129
0.000379543
0.000372366
0.000359996
0.000340788
0.000312445
0.000271416
0.000211516
0.000120523
-2.45064e-05
-0.000266358
-0.000690109
-0.00144852
-0.00319737
-0.00741527
-0.00874276
0.0299792
2.56474e-05
1.19254e-05
2.9968e-06
-3.15625e-06
-7.30555e-06
-9.79543e-06
-1.11141e-05
-1.20453e-05
-1.389e-05
-1.90932e-05
-3.31943e-05
-7.00702e-05
-0.000164445
-0.000396484
-0.00083408
-0.00288074
-0.0110218
-0.012964
0.0121907
)
;

boundaryField
{
    leftWall
    {
        type            fixedFluxPressure;
        gradient        uniform 0;
        value           nonuniform List<scalar> 
50
(
830.341
830.564
831.041
831.756
832.715
833.913
835.339
837.002
839.997
845.172
773.725
186.342
4.53908
3.88231
3.81896
3.75448
5.27487
2.50751
0.318124
-0.107472
-0.0956203
-0.081868
-0.0709413
-0.0625435
-0.0563577
-0.0516933
-0.0479215
-0.0445709
-0.0412261
-0.0377935
-0.034498
-0.0313763
-0.0284179
-0.0256168
-0.0229898
-0.0205498
-0.0183037
-0.0162579
-0.0144098
-0.0127464
-0.0112475
-0.00988811
-0.0086385
-0.00746283
-0.00631535
-0.00513341
-0.00382297
-0.00233502
-0.000175319
0.00100287
)
;
    }
    rightWall
    {
        type            fixedFluxPressure;
        gradient        uniform 0;
        value           nonuniform List<scalar> 
50
(
757.374
758.693
758.728
758.793
745.151
732.771
732.821
757.418
783.346
779.492
438.133
19.6696
1.67783
1.6761
3.64629
2.57183
0.516304
-0.00843676
-0.00280737
0.00260398
0.00771601
0.0169109
0.117244
0.133325
0.108163
0.00305341
0.0814312
0.103976
0.108196
0.112728
0.105837
0.0458129
0.0683826
0.0983536
0.101413
0.10429
0.106883
0.0539617
0.00836348
0.0585997
0.101731
0.103183
0.104514
0.098162
0.0701821
0.0647544
0.0441531
0.0348346
0.0299792
0.0121907
)
;
    }
    lowerWall
    {
        type            fixedFluxPressure;
        gradient        uniform 0;
        value           nonuniform List<scalar> 
62
(
830.341
829.035
827.042
823.717
820.082
815.854
811.166
806.119
800.799
795.29
789.666
784.003
778.367
772.81
767.351
761.967
756.372
750.791
746.801
744.559
742.251
740.439
740.135
740.135
740.413
740.362
739.841
739.182
738.348
737.313
735.844
728.228
725.727
723.773
721.959
719.148
718.899
718.568
719.347
719.324
718.349
717.683
717.763
719.148
720.021
720.768
721.071
721.845
723.301
725.505
728.095
732.41
737.675
742.317
746.115
747.76
751.322
754.94
757.31
757.571
757.21
757.374
)
;
    }
    atmosphere
    {
        type            totalPressure;
        rho             rho;
        psi             none;
        gamma           1;
        p0              uniform 0;
        value           nonuniform List<scalar> 
46
(
-0.000115269
0
0
0
0
0
0
0
0
0
0
0
0
0
0
0
0
0
-5.74605e-06
-1.54671e-05
-3.54327e-05
-6.25875e-05
-9.3301e-05
-0.000116025
-0.000130493
-0.000144278
-0.000157206
-0.000177628
-0.000201459
-0.000219976
-0.000232692
-0.000239475
-0.000240493
-0.000236156
-0.00022703
-0.000213758
-0.000196984
-0.000177289
-0.00015514
-0.000130806
-0.000104128
-7.39843e-05
-3.77445e-05
-2.86234e-06
0
0
)
;
    }
    defaultFaces
    {
        type            empty;
    }
}


// ************************************************************************* //
