/*--------------------------------*- C++ -*----------------------------------*\
  =========                 |
  \\      /  F ield         | OpenFOAM: The Open Source CFD Toolbox
   \\    /   O peration     | Website:  https://openfoam.org
    \\  /    A nd           | Version:  9
     \\/     M anipulation  |
\*---------------------------------------------------------------------------*/
FoamFile
{
    format      ascii;
    class       surfaceScalarField;
    location    "6.61";
    object      alphaPhi0.water;
}
// * * * * * * * * * * * * * * * * * * * * * * * * * * * * * * * * * * * * * //

dimensions      [0 3 -1 0 0 0 0];

internalField   nonuniform List<scalar> 
4432
(
1.53086e-07
-1.53086e-07
3.46168e-07
-1.93079e-07
5.43527e-07
-1.97362e-07
7.29603e-07
-1.86072e-07
9.00576e-07
-1.70974e-07
1.05724e-06
-1.56657e-07
1.20287e-06
-1.45636e-07
1.34043e-06
-1.37557e-07
1.4699e-06
-1.29462e-07
1.58894e-06
-1.19037e-07
1.69841e-06
-1.09471e-07
1.80805e-06
-1.09639e-07
1.93469e-06
-1.26631e-07
2.09179e-06
-1.57105e-07
2.26955e-06
-1.77761e-07
2.39539e-06
-1.25842e-07
2.26122e-06
1.34174e-07
1.646e-06
6.15217e-07
6.89864e-07
9.54546e-07
-3.61681e-07
1.05027e-06
-9.34603e-07
5.7279e-07
-6.84468e-07
-2.50971e-07
-6.85423e-07
1.72076e-07
-3.25164e-07
3.61228e-07
-3.82224e-07
5.54072e-07
-3.90208e-07
7.40991e-07
-3.72983e-07
9.16089e-07
-3.46071e-07
1.0784e-06
-3.18967e-07
1.22925e-06
-2.96484e-07
1.3696e-06
-2.77895e-07
1.49868e-06
-2.58543e-07
1.61368e-06
-2.34035e-07
1.71427e-06
-2.10051e-07
1.80562e-06
-2.0099e-07
1.89656e-06
-2.17577e-07
1.9919e-06
-2.52448e-07
2.08121e-06
-2.67068e-07
2.11762e-06
-1.62261e-07
1.98391e-06
2.67855e-07
1.51664e-06
1.08249e-06
8.11067e-07
1.65923e-06
8.56291e-08
1.77812e-06
-4.53439e-07
1.1129e-06
-5.39288e-07
-1.65128e-07
-1.2247e-06
1.86767e-07
-5.11932e-07
3.76406e-07
-5.71858e-07
5.66321e-07
-5.80125e-07
7.52311e-07
-5.58969e-07
9.28401e-07
-5.22161e-07
1.09254e-06
-4.83106e-07
1.2448e-06
-4.48744e-07
1.38512e-06
-4.18217e-07
1.5119e-06
-3.85321e-07
1.62138e-06
-3.43519e-07
1.71138e-06
-3.0005e-07
1.78392e-06
-2.73528e-07
1.84367e-06
-2.77333e-07
1.89217e-06
-3.00954e-07
1.92206e-06
-2.96959e-07
1.90684e-06
-1.47094e-07
1.76835e-06
4.06104e-07
1.39313e-06
1.45771e-06
8.88588e-07
2.16388e-06
3.91679e-07
2.27695e-06
-9.67164e-08
1.60138e-06
-3.10643e-07
4.87931e-08
-1.53536e-06
1.9567e-07
-7.07606e-07
3.89623e-07
-7.65806e-07
5.80805e-07
-7.71311e-07
7.67728e-07
-7.45889e-07
9.45176e-07
-6.9961e-07
1.11073e-06
-6.48662e-07
1.26371e-06
-6.01726e-07
1.40339e-06
-5.57896e-07
1.52748e-06
-5.09414e-07
1.63098e-06
-4.47026e-07
1.70977e-06
-3.78846e-07
1.76348e-06
-3.27239e-07
1.79434e-06
-3.08194e-07
1.80247e-06
-3.09088e-07
1.78432e-06
-2.78814e-07
1.73356e-06
-9.65938e-08
1.62015e-06
5.17258e-07
1.32892e-06
1.74896e-06
9.69513e-07
2.52331e-06
6.0962e-07
2.63687e-06
1.93689e-07
2.01733e-06
-4.40082e-08
2.86224e-07
-1.57937e-06
2.01519e-07
-9.09128e-07
4.01521e-07
-9.65804e-07
5.96909e-07
-9.66702e-07
7.86615e-07
-9.35593e-07
9.66176e-07
-8.79172e-07
1.1332e-06
-8.15685e-07
1.28657e-06
-7.55102e-07
1.42516e-06
-6.96485e-07
1.54622e-06
-6.3048e-07
1.6434e-06
-5.44208e-07
1.71069e-06
-4.46143e-07
1.74589e-06
-3.62444e-07
1.74979e-06
-3.12097e-07
1.72166e-06
-2.8096e-07
1.66032e-06
-2.17473e-07
1.57131e-06
-7.58389e-09
1.47766e-06
6.0397e-07
1.28214e-06
1.9013e-06
1.04931e-06
2.71798e-06
7.8848e-07
2.89773e-06
4.71513e-07
2.3225e-06
2.31272e-07
5.27719e-07
-1.34808e-06
2.06681e-07
-1.11581e-06
4.1345e-07
-1.17257e-06
6.14492e-07
-1.16775e-06
8.08093e-07
-1.12919e-06
9.90264e-07
-1.06134e-06
1.15874e-06
-9.84164e-07
1.31214e-06
-9.08496e-07
1.44907e-06
-8.33415e-07
1.56665e-06
-7.48062e-07
1.65724e-06
-6.348e-07
1.71316e-06
-5.02068e-07
1.7309e-06
-3.80181e-07
1.71054e-06
-2.91738e-07
1.65061e-06
-2.2103e-07
1.54993e-06
-1.16801e-07
1.41935e-06
1.22993e-07
1.30293e-06
7.08173e-07
1.22048e-06
1.98095e-06
1.10226e-06
2.83373e-06
9.39411e-07
3.0173e-06
7.88552e-07
2.43879e-06
5.41014e-07
7.88201e-07
-8.0706e-07
2.12448e-07
-1.32826e-06
4.26142e-07
-1.38626e-06
6.3305e-07
-1.37465e-06
8.30815e-07
-1.32695e-06
1.01566e-06
-1.24618e-06
1.18537e-06
-1.15387e-06
1.33823e-06
-1.06135e-06
1.47271e-06
-9.67899e-07
1.58612e-06
-8.61468e-07
1.66984e-06
-7.18512e-07
1.7149e-06
-5.47127e-07
1.71701e-06
-3.82283e-07
1.67625e-06
-2.50976e-07
1.5906e-06
-1.35384e-07
1.45906e-06
1.47398e-08
1.29391e-06
2.88139e-07
1.14927e-06
8.5282e-07
1.15626e-06
1.97714e-06
1.13969e-06
2.84821e-06
1.10539e-06
3.04962e-06
1.1254e-06
2.46036e-06
8.28377e-07
1.09453e-06
2.13119e-08
2.19529e-07
-1.54779e-06
4.39024e-07
-1.60575e-06
6.51242e-07
-1.58687e-06
8.52745e-07
-1.52845e-06
1.03991e-06
-1.43334e-06
1.21045e-06
-1.32441e-06
1.36205e-06
-1.21295e-06
1.49302e-06
-1.09886e-06
1.60125e-06
-9.69696e-07
1.67767e-06
-7.94927e-07
1.71266e-06
-5.82113e-07
1.70164e-06
-3.71263e-07
1.64548e-06
-1.94813e-07
1.5419e-06
-3.18097e-08
1.39157e-06
1.65076e-07
1.20837e-06
4.71337e-07
1.04992e-06
1.01126e-06
1.0708e-06
1.95297e-06
1.1577e-06
2.78399e-06
1.25496e-06
2.95034e-06
1.33511e-06
2.42003e-06
1.01229e-06
1.41747e-06
1.0336e-06
-1.27016e-06
1.26834e-06
-7.972e-07
-4.78343e-07
-2.71329e-07
-5.28078e-07
5.76369e-08
-3.29746e-07
2.7556e-07
-2.19256e-07
3.85743e-07
-1.11377e-07
5.52142e-07
-1.67805e-07
8.74293e-07
-3.23558e-07
1.30436e-06
-4.32978e-07
1.40683e-06
-1.03327e-07
7.60284e-07
6.45966e-07
-1.53652e-07
9.19242e-07
-1.50401e-06
1.35566e-06
-2.62707e-06
1.11508e-06
-2.09473e-06
-5.32465e-07
-9.82766e-07
-1.11209e-06
-2.91498e-07
-6.91391e-07
3.33074e-07
-6.24366e-07
3.32475e-07
-6.35922e-07
1.90245e-06
-4.07974e-07
-7.06665e-07
-2.35541e-07
-7.00516e-07
-1.20209e-07
-4.45083e-07
-4.62321e-08
-2.93238e-07
4.22644e-08
-1.99879e-07
1.78987e-07
-3.04598e-07
4.20922e-07
-5.66517e-07
6.8985e-07
-7.01879e-07
7.14612e-07
-1.28061e-07
2.7151e-07
1.09349e-06
-4.51019e-07
1.64558e-06
-1.36246e-06
2.2729e-06
-2.05731e-06
1.80645e-06
-1.80292e-06
-7.86978e-07
-1.15208e-06
-1.76304e-06
-6.9318e-07
-1.15042e-06
-3.5214e-08
-1.28246e-06
2.9694e-07
-7.89393e-08
1.97957e-06
-1.71613e-07
-6.14889e-07
-2.32143e-07
-6.40108e-07
-2.51651e-07
-4.25592e-07
-2.57183e-07
-2.87711e-07
-2.27913e-07
-2.29158e-07
-1.48494e-07
-3.84025e-07
7.1196e-09
-7.22139e-07
1.8878e-07
-8.83339e-07
1.67105e-07
-1.06443e-07
-1.87137e-07
1.44767e-06
-6.99365e-07
2.15773e-06
-1.23214e-06
2.80727e-06
-1.67816e-06
2.25306e-06
-1.54015e-06
-9.2639e-07
-1.14137e-06
-2.16195e-06
-9.34556e-07
-1.35735e-06
-4.35114e-07
-1.78202e-06
-1.37724e-07
2.23852e-07
1.77021e-06
-7.49744e-08
-3.15633e-07
-2.77363e-07
-4.3773e-07
-3.88768e-07
-3.14204e-07
-4.56214e-07
-2.20286e-07
-4.84948e-07
-2.00357e-07
-4.70521e-07
-3.98236e-07
-3.89296e-07
-8.03267e-07
-2.65654e-07
-1.00629e-06
-2.87913e-07
-8.46926e-08
-5.75985e-07
1.73567e-06
-9.12366e-07
2.49404e-06
-1.18764e-06
3.08247e-06
-1.45612e-06
2.52147e-06
-1.27696e-06
-1.1063e-06
-1.03489e-06
-2.40414e-06
-1.08666e-06
-1.3057e-06
-8.01272e-07
-2.05719e-06
-9.39002e-07
2.44326e-07
1.52602e-06
-1.03734e-07
3.24312e-08
-3.73863e-07
-1.67595e-07
-5.44277e-07
-1.43801e-07
-6.61097e-07
-1.03465e-07
-7.448e-07
-1.162e-07
-7.95954e-07
-3.47304e-07
-7.95536e-07
-8.03908e-07
-7.29051e-07
-1.0707e-06
-7.04846e-07
-1.11075e-07
-9.21592e-07
1.95234e-06
-1.10833e-06
2.6807e-06
-1.19068e-06
3.16491e-06
-1.23559e-06
2.47046e-06
-9.7858e-07
-1.36367e-06
-8.60076e-07
-2.52324e-06
-1.10252e-06
-1.06024e-06
-9.85671e-07
-2.17405e-06
-1.92468e-06
1.25602e-07
1.40042e-06
-2.15778e-07
3.73813e-07
-5.10599e-07
1.2723e-07
-7.17061e-07
6.26613e-08
-8.71776e-07
5.12468e-08
-1.00437e-06
1.65565e-08
-1.119e-06
-2.32721e-07
-1.20091e-06
-7.22548e-07
-1.21272e-06
-1.05865e-06
-1.11838e-06
-1.82901e-07
-1.20014e-06
1.94341e-06
-1.27917e-06
2.68267e-06
-1.20995e-06
3.04425e-06
-9.13643e-07
2.16156e-06
-6.72053e-07
-1.62542e-06
-6.47081e-07
-2.54208e-06
-9.23234e-07
-7.78905e-07
-9.39989e-07
-2.16542e-06
-2.8749e-06
-1.69441e-08
1.41737e-06
-3.70209e-07
7.27081e-07
-6.72009e-07
4.2903e-07
-9.00234e-07
2.90924e-07
-1.08294e-06
2.33933e-07
-1.25422e-06
1.87812e-07
-1.42506e-06
-6.18954e-08
-1.58724e-06
-5.60386e-07
-1.69338e-06
-9.52301e-07
-1.56792e-06
-2.56336e-07
-1.416e-06
1.79103e-06
-1.34506e-06
2.59326e-06
-1.10454e-06
2.80334e-06
-5.66898e-07
1.61172e-06
-4.07614e-07
-1.78451e-06
-4.58558e-07
-2.48776e-06
-5.9932e-07
-6.44568e-07
-7.08459e-07
-2.05622e-06
-3.58329e-06
-2.0065e-07
1.61802e-06
-5.44982e-07
1.07141e-06
-8.42687e-07
7.26732e-07
-1.08604e-06
5.34274e-07
-1.28815e-06
4.36048e-07
-1.48604e-06
3.85699e-07
-1.69643e-06
1.48466e-07
-1.91997e-06
-3.37209e-07
-2.10891e-06
-7.63708e-07
-1.99001e-06
-2.95507e-07
-1.64725e-06
1.44779e-06
-1.3816e-06
2.32716e-06
-9.72504e-07
2.39376e-06
-2.93572e-07
9.33423e-07
-2.13574e-07
-1.86432e-06
-2.95013e-07
-2.40658e-06
-2.65248e-07
-6.80753e-07
-3.42542e-07
-1.98507e-06
-3.92577e-06
4.82163e-07
-2.02996e-06
9.66638e-07
-2.09022e-06
1.43518e-06
-2.05541e-06
1.87425e-06
-1.96751e-06
2.27835e-06
-1.83743e-06
2.64285e-06
-1.6889e-06
2.95892e-06
-1.52902e-06
3.21986e-06
-1.35979e-06
3.42908e-06
-1.17891e-06
3.56543e-06
-9.31259e-07
3.60983e-06
-6.26506e-07
3.55197e-06
-3.134e-07
3.39845e-06
-4.12896e-08
3.15033e-06
2.16306e-07
2.80948e-06
5.05929e-07
2.41802e-06
8.62795e-07
2.10903e-06
1.32024e-06
2.15127e-06
1.91073e-06
2.51137e-06
2.4402e-06
2.90029e-06
2.61454e-06
2.97911e-06
2.34428e-06
2.47239e-06
1.92419e-06
1.7742e-06
1.73179e-06
4.483e-07
-1.81398e-06
9.23847e-07
-1.88807e-06
1.38924e-06
-1.86397e-06
1.82434e-06
-1.78253e-06
2.2264e-06
-1.66707e-06
2.5918e-06
-1.53618e-06
2.90259e-06
-1.38186e-06
3.13753e-06
-1.20144e-06
3.28799e-06
-1.00537e-06
3.3593e-06
-7.6857e-07
3.37169e-06
-4.95921e-07
3.31976e-06
-2.05213e-07
3.1943e-06
6.9177e-08
2.97525e-06
3.3369e-07
2.68703e-06
6.05043e-07
2.38971e-06
8.88415e-07
2.17984e-06
1.188e-06
2.18562e-06
1.49756e-06
2.41758e-06
2.18109e-06
2.62191e-06
2.40912e-06
2.48655e-06
2.47968e-06
1.92036e-06
1.93504e-06
1.95107e-06
1.18128e-06
1.70443e-07
-1.22174e-08
2.59404e-07
-1.00535e-08
3.48143e-07
-6.97974e-09
4.66609e-07
-1.10541e-08
6.04928e-07
-1.66471e-08
7.38414e-07
-1.73118e-08
8.50533e-07
-1.60672e-08
9.33512e-07
-1.59531e-08
9.74838e-07
-1.37156e-08
9.97639e-07
-7.69288e-09
1.02244e-06
-2.82055e-09
1.04436e-06
-4.92581e-10
1.03188e-06
1.30985e-09
9.81934e-07
0
9.13328e-07
0
8.45705e-07
0
8.09806e-07
0
8.201e-07
0
8.86136e-07
0
9.22453e-07
3.64182e-10
8.1658e-07
6.91438e-11
6.09404e-07
0
0
3.50842e-07
8.76621e-10
-8.67376e-09
9.39492e-10
-5.73996e-09
1.50416e-10
-1.8628e-09
2.41369e-10
-6.76858e-09
6.8467e-10
-1.26696e-08
1.04294e-09
-1.31707e-08
1.2326e-09
-1.16671e-08
1.45059e-09
-1.15019e-08
1.58461e-09
-9.10598e-09
1.61041e-09
-6.06256e-09
1.63216e-09
-4.08222e-09
1.64664e-09
-1.75102e-09
1.7223e-09
0
2.1636e-09
0
3.09019e-09
0
3.80347e-09
0
4.60609e-09
0
5.35435e-09
0
2.93853e-09
0
3.04772e-09
1.26065e-12
3.07168e-09
5.46757e-13
2.79207e-09
0
0
2.03177e-09
-3.06755e-09
-3.67508e-09
-2.377e-09
-4.49858e-09
0
5.44315e-11
-1.1127e-09
-4.17611e-09
-1.77509e-09
-1.06762e-09
-2.73307e-09
-1.29598e-11
-3.2675e-09
-1.38764e-13
-3.79823e-09
-4.94848e-13
-4.05569e-09
-1.28276e-10
-3.2471e-09
-3.10917e-09
-1.54724e-09
-2.94036e-09
1.43798e-09
-2.40296e-09
4.09434e-09
-3.18676e-10
6.45955e-09
-3.19241e-11
3.37307e-09
4.27236e-10
3.13247e-09
2.03187e-09
2.59269e-09
1.83301e-09
1.7882e-09
9.15286e-10
6.80424e-10
4.52651e-10
-2.39505e-10
6.32781e-10
-7.01679e-10
3.95221e-10
-5.19039e-10
2.84857e-10
5.1353e-10
-4.61388e-10
-7.64243e-10
-1.21577e-13
-7.47659e-10
-1.58138e-10
5.89418e-10
-8.23602e-10
1.02955e-09
-1.2012e-09
-6.47054e-17
-3.79244e-11
-3.71856e-14
-1.28739e-11
-4.90892e-14
-7.9215e-14
-3.90485e-13
-1.32245e-13
-1.2863e-10
-4.20454e-14
-1.62133e-10
-8.48002e-13
-4.22995e-10
-2.33384e-12
-3.89113e-10
-8.61339e-13
-3.30868e-10
-4.05514e-13
-3.57006e-10
0
-4.82035e-10
0
-4.10014e-10
0
-7.90201e-10
0
-1.69849e-09
0
-1.2499e-09
2.82186e-10
-1.67147e-09
0
-2.6551e-09
2.67441e-11
-3.66596e-09
3.17458e-10
0
-2.87712e-09
-1.21341e-13
-5.89996e-16
-1.58255e-10
-4.8927e-15
-3.09693e-11
-3.08446e-14
-4.36665e-11
-3.36213e-14
-3.1334e-11
-4.46383e-12
-4.32869e-12
-3.387e-12
-1.94481e-13
-4.16249e-12
-6.1873e-14
-1.03286e-12
-7.07619e-14
-3.93338e-14
-8.12621e-14
-8.43741e-13
-8.50264e-14
-2.3361e-12
-9.77235e-14
-8.46949e-13
-4.87533e-13
-6.51407e-15
-2.31872e-12
0
-2.24385e-10
0
-4.10527e-10
5.62208e-13
-2.48617e-10
1.58829e-13
-2.97046e-10
8.3992e-11
-4.6408e-10
0
-5.68503e-10
0
-3.43262e-10
0
-5.14185e-10
0
1.10575e-10
-2.1098e-09
-2.36921e-16
-7.06884e-16
-1.06252e-15
-4.42091e-15
-2.12114e-15
-3.02708e-14
-1.53936e-14
-2.09477e-14
-4.4741e-12
-6.2129e-15
-7.84647e-12
-1.84512e-12
-4.48876e-12
-2.93788e-12
-1.21052e-12
-2.23989e-12
-1.22356e-12
-3.25255e-14
-5.65114e-12
-1.14139e-12
-7.82585e-12
-2.8605e-12
-1.04614e-13
-4.3413e-13
-1.14839e-13
1.51844e-14
-1.17173e-10
2.43906e-12
-6.04649e-10
1.17927e-11
-5.30282e-10
1.70786e-11
-2.80569e-10
2.57343e-11
-2.63858e-10
6.25902e-12
-3.38854e-10
0
-9.68429e-11
5.59945e-12
-3.46886e-12
8.40302e-12
-1.29629e-11
8.26637e-15
0
-3.33567e-10
1.42636e-16
-8.09641e-16
-7.17938e-15
-1.83701e-15
-1.80347e-14
-4.28612e-14
0
-8.70553e-15
-7.86238e-15
-4.82018e-16
-8.4283e-12
-2.616e-13
-6.34084e-12
-4.42739e-13
-2.37512e-12
-7.91821e-13
-2.39161e-12
-2.37335e-14
-1.50476e-11
-8.87262e-13
-1.59118e-11
-1.4343e-12
-4.67681e-12
1.66108e-13
-5.1166e-12
4.39214e-14
-7.91592e-11
2.24228e-12
-2.16776e-10
0
-1.95163e-10
2.23054e-13
-1.77654e-10
0
-2.57701e-10
2.45111e-11
-1.53415e-10
2.14752e-11
-8.45169e-12
0
-1.95718e-13
1.13626e-13
-1.56422e-13
1.2934e-14
0
-4.03765e-13
-7.74399e-16
-7.77704e-16
-4.69637e-14
-4.10763e-14
-8.4373e-14
-4.45843e-14
0
-1.565e-14
-3.94795e-16
-8.73665e-17
-1.71909e-12
-1.26754e-16
-1.17199e-12
-4.60181e-16
0
-1.34116e-14
-2.78233e-13
-3.45557e-15
-1.52893e-11
-4.00667e-13
-1.61337e-11
-2.79288e-14
-1.13747e-11
7.25837e-13
-3.08515e-12
2.73936e-13
-4.5526e-12
0
-1.75403e-13
0
-3.63473e-13
0
-1.36717e-11
0
-3.19386e-11
0
-8.99318e-12
0
-1.78706e-13
7.89967e-13
-1.39243e-13
4.75697e-14
-1.44918e-13
8.00694e-14
8.9583e-14
-2.35268e-13
-1.74526e-14
-1.20209e-16
-5.79355e-14
5.69521e-15
-1.02183e-13
5.95433e-15
-1.00671e-15
5.13073e-15
-1.25597e-15
1.61752e-16
-1.47899e-15
9.61237e-17
-1.95638e-15
1.70701e-17
-3.75319e-14
2.21618e-14
-8.79223e-13
1.03824e-13
-8.4922e-12
3.12688e-13
-8.63941e-12
6.81273e-13
-1.23357e-12
2.37833e-13
-5.9761e-14
0
-7.38044e-14
0
-6.82703e-14
0
-4.96806e-13
1.31247e-14
-1.68005e-12
9.51771e-13
-1.02724e-12
1.74545e-12
-1.24536e-13
4.24359e-12
-7.81209e-14
7.16992e-13
-1.06537e-13
4.95443e-14
-2.38375e-13
9.55525e-14
7.31124e-14
-1.29378e-13
-5.31881e-15
4.3093e-16
-6.06402e-14
1.00212e-14
-8.64589e-14
3.78818e-14
-1.14201e-15
9.97346e-15
-1.37077e-15
3.90365e-16
-1.67615e-15
4.01359e-16
-3.88779e-14
3.72166e-14
-3.08532e-12
4.35525e-13
-5.51809e-12
1.01079e-12
-6.99592e-12
4.48638e-13
-2.47287e-13
3.83341e-13
-8.84095e-15
7.54343e-16
-8.11429e-15
6.3654e-16
-2.64715e-15
1.14399e-15
0
8.30534e-17
0
6.02653e-15
-2.57468e-11
3.64456e-12
-3.09262e-11
7.02325e-12
-2.5704e-11
8.53904e-12
-1.08005e-13
8.61758e-12
-1.18454e-13
3.35989e-14
-8.2323e-14
3.30932e-14
1.03532e-14
-4.7152e-14
-1.43319e-15
5.14172e-16
-2.12138e-14
3.55149e-15
-1.57779e-14
0
-1.37644e-15
3.28297e-16
-1.57623e-15
5.90023e-16
-2.14127e-15
9.63223e-16
-3.7901e-12
3.9404e-13
-4.52223e-12
1.55573e-12
-4.58275e-12
1.46122e-12
-3.8605e-13
5.254e-13
-4.96892e-15
1.23403e-15
-3.93668e-15
1.08307e-15
-3.96033e-15
1.18143e-15
0
6.19862e-16
-2.28452e-16
1.20426e-16
-2.02815e-12
3.73954e-14
-2.71516e-11
2.95812e-12
-2.67595e-11
6.73387e-12
-2.57306e-11
7.60801e-12
-1.62024e-11
6.62151e-12
-1.26941e-13
8.29431e-13
-6.82157e-14
2.04578e-14
2.38988e-14
-3.57748e-14
-2.60345e-17
1.30053e-14
-6.16192e-17
3.61263e-15
-9.94064e-17
1.26343e-16
-5.83744e-16
1.96027e-16
-4.9451e-17
9.03319e-16
0
1.66505e-15
-3.6822e-12
2.57085e-13
-3.85297e-12
2.11457e-12
-2.5112e-12
8.22255e-13
-5.2078e-15
3.84233e-14
-6.01171e-15
1.01213e-15
-3.84669e-15
1.43616e-15
-1.60784e-15
1.46679e-15
-2.46437e-16
3.72111e-16
-2.50985e-16
8.02781e-17
0
7.14077e-17
-2.98811e-12
0
-1.67403e-11
5.71915e-13
-2.14487e-11
3.4011e-12
-8.48735e-13
0
-7.64373e-14
1.14776e-14
-5.61598e-14
2.18701e-14
3.37691e-14
-5.26332e-14
-2.22232e-14
1.25744e-13
-2.4147e-16
2.85716e-13
-1.48375e-16
4.15308e-17
-6.33932e-17
2.77801e-16
0
2.19348e-15
-6.75907e-14
2.34478e-14
-3.64699e-13
6.51626e-15
-4.75278e-13
2.26288e-16
-4.00924e-14
1.46154e-16
-2.39144e-15
8.57291e-18
-3.54231e-15
1.13918e-15
-2.72588e-15
1.81164e-15
-8.00234e-16
1.06616e-15
-2.10028e-16
1.15222e-16
-2.04723e-16
8.29672e-17
-1.90063e-16
7.74426e-17
-1.77051e-14
6.06495e-17
-5.52946e-13
0
-3.4858e-14
0
-2.82045e-14
0
-7.26728e-14
1.02004e-14
-6.09686e-14
3.22672e-14
2.04722e-14
-1.62906e-14
-5.27627e-14
3.80329e-13
-1.9375e-16
2.95385e-13
-1.92587e-16
4.82613e-17
-5.67489e-16
5.26937e-16
-1.17253e-14
5.62072e-15
-1.39332e-14
1.09305e-14
-5.52718e-16
3.26329e-16
-2.78415e-16
2.65227e-18
-1.33377e-16
1.60169e-18
-9.66387e-16
1.25076e-16
-1.82635e-15
6.35536e-16
-1.25236e-15
7.03495e-16
-1.87911e-16
1.79376e-16
-1.68587e-16
5.0748e-17
-1.77744e-16
8.0871e-17
-1.80675e-16
8.03626e-17
-2.06504e-16
7.65212e-17
-4.05814e-16
3.94463e-17
-3.73161e-16
6.31555e-18
-3.30919e-15
5.13325e-17
-3.5463e-14
4.00366e-15
-4.2996e-14
8.29536e-15
3.53419e-15
-3.07915e-15
-8.7821e-14
4.68055e-13
-2.97011e-16
2.55003e-13
-2.95731e-16
5.44801e-17
-1.34763e-15
8.00787e-16
-4.58454e-15
3.82877e-15
-3.42455e-16
2.0161e-15
-4.30947e-17
3.28562e-17
-2.09744e-17
4.04903e-17
-3.31865e-17
1.63146e-17
-2.76863e-16
2.84571e-17
-2.91109e-16
6.1635e-17
-1.04323e-16
3.58328e-17
-5.1332e-17
6.67804e-18
-9.17782e-17
1.4098e-17
-1.36542e-16
5.50163e-17
-1.73802e-16
7.95512e-17
-1.73577e-16
8.69651e-17
-1.50456e-16
7.54744e-17
-1.47361e-16
5.99958e-17
-4.3334e-16
4.27684e-17
-8.0443e-16
7.39249e-18
-9.96449e-16
0
0
-3.03078e-15
-4.40024e-14
5.12115e-13
-2.50916e-16
2.02035e-13
-2.49094e-16
5.99261e-17
-9.85118e-16
6.98662e-16
-6.61956e-16
1.16621e-15
-3.31026e-17
7.19718e-17
-3.12296e-17
3.75608e-17
-9.36802e-18
4.48996e-17
-5.52533e-18
6.34278e-18
-1.19215e-17
5.52506e-19
-8.15409e-18
5.70247e-19
-1.26442e-18
5.14168e-18
-2.33699e-18
1.08934e-18
-2.35664e-17
1.13911e-18
-6.95896e-17
1.40449e-17
-1.1239e-16
3.8528e-17
-1.19406e-16
5.31917e-17
-1.1296e-16
5.22184e-17
-8.77857e-17
4.17215e-17
-4.80538e-17
2.09723e-17
-1.76594e-17
6.50404e-18
-2.78643e-17
2.72554e-18
3.17725e-18
-3.58579e-16
-6.92743e-14
5.81581e-13
-1.29733e-16
2.05357e-13
-1.2745e-16
6.48228e-17
-2.08343e-16
2.33452e-16
-3.77411e-17
1.7545e-16
-1.245e-17
1.68779e-17
-1.39766e-17
1.37459e-17
-2.29777e-18
1.22709e-17
-4.03778e-20
1.78435e-18
-2.48908e-20
3.64942e-20
3.90485e-19
1.91212e-20
7.08067e-19
-4.1777e-19
-1.64414e-19
-6.89743e-19
-1.07396e-18
1.46098e-19
-1.18097e-17
3.37622e-18
-2.73185e-17
3.33406e-18
-2.92469e-17
5.83467e-18
-2.76925e-17
5.53736e-18
-2.2438e-17
4.53921e-18
-1.47651e-17
3.39672e-18
-7.17594e-18
2.24625e-18
-3.85064e-18
9.82153e-19
1.89892e-19
-2.35715e-18
-6.80474e-14
6.49843e-13
-4.77819e-17
3.80084e-13
-4.52557e-17
6.94389e-17
-3.55929e-17
7.52643e-17
-1.00274e-17
6.70288e-17
-2.6722e-18
1.22246e-17
-1.8456e-18
7.77598e-19
3.7909e-19
2.46067e-18
1.24704e-18
-6.46038e-19
1.58738e-18
-1.8965e-18
1.7504e-18
-2.17419e-18
1.59481e-18
-2.17354e-18
1.02446e-18
-1.80243e-18
1.31147e-19
-1.05533e-18
-4.94917e-19
-1.2308e-19
-1.04499e-18
4.22524e-19
-1.091e-18
8.38369e-19
-1.00053e-18
7.73345e-19
-8.70439e-19
6.06743e-19
-7.42477e-19
4.74727e-19
-5.58464e-19
3.50924e-19
-4.00028e-19
2.39009e-20
2.02156e-20
-3.44156e-19
-6.62065e-14
7.16122e-13
-3.21645e-17
7.65526e-13
-2.94782e-17
7.37761e-17
-1.96601e-17
7.22252e-17
-7.60033e-18
6.90474e-17
-1.57639e-19
1.23455e-17
1.51415e-19
3.10616e-20
9.68813e-19
-3.3382e-19
1.54301e-18
-1.89253e-18
1.79602e-18
-2.69961e-18
1.80533e-18
-2.83701e-18
1.61998e-18
-2.5891e-18
1.28346e-18
-2.11608e-18
8.82954e-19
-1.52849e-18
5.16788e-19
-9.5786e-19
2.90321e-19
-5.09588e-19
1.87435e-19
-2.5944e-19
1.29706e-19
-1.51242e-19
7.64599e-20
-9.39995e-20
3.07385e-20
-4.92592e-20
-2.42173e-22
-1.72189e-20
-4.79818e-22
1.12524e-22
3.61823e-22
-1.27949e-21
-6.32618e-14
7.79456e-13
-3.17564e-17
7.02357e-13
-2.85528e-17
7.77152e-17
-2.06909e-17
8.25999e-17
-7.24238e-18
9.21282e-17
3.50703e-20
1.33788e-17
3.65648e-19
-1.00511e-19
8.61572e-19
-9.19386e-19
1.20547e-18
-1.92742e-18
1.34425e-18
-2.42368e-18
1.31776e-18
-2.44674e-18
1.17894e-18
-2.18194e-18
9.74053e-19
-1.78053e-18
7.50476e-19
-1.3426e-18
5.44571e-19
-9.42921e-19
3.88687e-19
-6.21939e-19
2.78271e-19
-4.01796e-19
1.96871e-19
-2.58807e-19
1.3434e-19
-1.6324e-19
8.66021e-20
-9.77594e-20
5.17494e-20
-5.36962e-20
2.87541e-20
-2.57844e-20
-1.01532e-20
1.48508e-20
-5.59586e-14
8.35487e-13
-3.81988e-17
4.25173e-13
-3.44596e-17
8.11815e-17
-3.11611e-17
1.57311e-16
-8.17182e-18
1.77326e-16
-5.48056e-19
1.93542e-17
7.56084e-20
1.59206e-18
3.6919e-19
-2.1781e-19
6.04272e-19
-9.49891e-19
7.18686e-19
-1.40191e-18
7.27647e-19
-1.51359e-18
6.64412e-19
-1.39725e-18
5.60852e-19
-1.16593e-18
4.44091e-19
-8.99732e-19
3.33729e-19
-6.50303e-19
2.41504e-19
-4.44618e-19
1.69535e-19
-2.91199e-19
1.15713e-19
-1.83563e-19
7.70536e-20
-1.11135e-19
4.98941e-20
-6.43092e-20
3.1061e-20
-3.4863e-20
1.81934e-20
-1.68903e-20
-6.5247e-21
9.90649e-21
-4.26509e-14
3.18726e-13
-7.03403e-17
6.80283e-16
-6.607e-17
8.42333e-17
-5.5059e-17
4.21414e-16
-1.1524e-17
3.07851e-16
-2.32385e-18
3.74626e-17
-1.47108e-18
1.06938e-17
-7.94367e-19
6.86397e-18
-1.53453e-19
3.48237e-18
1.66159e-19
1.19558e-18
2.59509e-19
-4.08842e-19
2.80109e-19
-5.83608e-19
2.54417e-19
-5.76991e-19
2.08709e-19
-4.80164e-19
1.59489e-19
-3.6034e-19
1.15376e-19
-2.51018e-19
7.92134e-20
-1.64572e-19
5.20663e-20
-1.01469e-19
3.31762e-20
-5.90217e-20
2.07171e-20
-3.24644e-20
1.26246e-20
-1.67228e-20
7.35404e-21
-7.66505e-21
-2.65971e-21
3.94156e-21
-4.08743e-16
2.59274e-16
-3.82621e-17
2.81943e-16
-8.73764e-17
4.11748e-16
-8.56963e-17
7.19143e-16
-1.67805e-17
4.12838e-16
-6.04856e-18
7.0372e-17
-5.00556e-18
3.32849e-17
-3.80746e-18
2.60587e-17
-2.26769e-18
1.70638e-17
-9.32496e-19
8.86563e-18
-1.9427e-19
3.2637e-18
5.7299e-20
8.00249e-19
8.61987e-20
-1.40888e-19
7.99787e-20
-1.9475e-19
6.33381e-20
-1.6583e-19
4.63305e-20
-1.2013e-19
3.12364e-20
-7.99141e-20
1.97106e-20
-4.85292e-20
1.18301e-20
-2.7142e-20
6.90141e-21
-1.40366e-20
3.9331e-21
-6.6858e-21
2.17861e-21
-2.76376e-21
-7.724e-22
1.11815e-21
-1.32004e-17
2.69827e-16
-4.74105e-17
2.90136e-16
-8.41248e-17
7.11241e-16
-8.14138e-17
7.49931e-16
-2.07065e-17
4.35326e-16
-1.09803e-17
1.10102e-16
-9.87264e-18
6.96275e-17
-8.23631e-18
5.74801e-17
-5.5931e-18
4.08028e-17
-2.92086e-18
2.38692e-17
-1.08772e-18
1.07716e-17
-2.07006e-19
3.45033e-18
1.40582e-20
5.99269e-19
2.50725e-20
-3.90457e-20
2.13622e-20
-6.4207e-20
1.60857e-20
-5.03292e-20
1.06737e-20
-3.47027e-20
6.42429e-21
-2.09048e-20
3.57848e-21
-1.12473e-20
1.88924e-21
-5.43959e-21
9.50006e-22
-2.34732e-21
4.58446e-22
-8.2869e-22
-1.42904e-22
2.05576e-22
-1.03294e-17
2.79046e-16
-4.41521e-17
2.97548e-16
-6.84741e-17
7.313e-16
-4.63241e-17
7.61274e-16
-2.04755e-17
3.98758e-16
-1.48078e-17
1.41422e-16
-1.38411e-17
1.11018e-16
-1.18836e-17
9.43124e-17
-8.72663e-18
6.88496e-17
-4.97778e-18
4.36652e-17
-1.97655e-18
2.09518e-17
-4.60575e-19
6.85535e-18
-3.21134e-20
1.24506e-18
6.4117e-21
6.71993e-20
6.20495e-21
-2.11731e-20
4.8617e-21
-1.90367e-20
3.15937e-21
-1.38387e-20
1.79141e-21
-8.30855e-21
9.03918e-22
-4.31072e-21
4.10755e-22
-1.94796e-21
1.63269e-22
-7.51778e-22
5.1693e-23
-2.13237e-22
-2.20363e-24
5.67921e-24
-8.00177e-18
2.85938e-16
-2.97525e-17
2.61146e-16
-4.1794e-17
5.27546e-16
-3.45141e-17
5.05144e-16
-1.55451e-17
2.57523e-16
-1.46069e-17
1.51191e-16
-1.44941e-17
1.38383e-16
-1.28336e-17
1.25316e-16
-9.87561e-18
9.46448e-17
-5.94021e-18
6.24149e-17
-2.35662e-18
3.08883e-17
-4.66138e-19
9.59279e-18
-2.98867e-20
1.37011e-18
1.27765e-21
7.17883e-20
1.56317e-21
-5.83692e-21
1.26168e-21
-6.75589e-21
7.83558e-22
-5.19702e-21
4.0002e-22
-3.10536e-21
1.67634e-22
-1.5467e-21
5.31833e-23
-6.48803e-22
6.06167e-24
-2.20913e-22
-1.72055e-23
-4.63538e-23
3.73898e-24
-2.1982e-23
-4.50409e-18
3.45287e-16
-9.8327e-18
2.0591e-16
-1.15796e-17
2.40666e-16
-1.04081e-17
2.18521e-16
-9.36772e-18
1.75795e-16
-1.00274e-17
1.51989e-16
-1.06929e-17
1.42842e-16
-1.0458e-17
1.37242e-16
-8.37401e-18
1.12514e-16
-5.18774e-18
7.50531e-17
-1.94274e-18
3.7165e-17
-3.13156e-19
1.04224e-17
-1.47656e-20
1.3594e-18
1.4632e-22
4.59656e-20
3.27053e-22
-1.05389e-21
2.58677e-22
-2.31964e-21
1.4029e-22
-1.87037e-21
5.25588e-23
-1.10176e-21
7.77134e-24
-5.22072e-22
-1.57649e-23
-2.02034e-22
-2.16553e-23
-6.03508e-23
-1.834e-23
-7.7235e-24
2.20988e-24
-1.31306e-23
-2.88398e-18
8.34719e-16
-3.94056e-18
2.06845e-16
-3.92417e-18
2.40527e-16
-3.73924e-18
2.18214e-16
-3.95342e-18
1.75888e-16
-4.39782e-18
1.48108e-16
-5.09498e-18
1.43286e-16
-5.40173e-18
1.38137e-16
-4.67307e-18
1.17222e-16
-2.94816e-18
7.90882e-17
-1.03344e-18
3.82487e-17
-1.37174e-19
1.04085e-17
-3.35338e-21
1.01327e-18
5.06143e-24
1.4513e-20
4.38633e-23
-8.00357e-23
2.55653e-23
-7.89269e-22
2.53505e-24
-6.55484e-22
-1.57637e-23
-3.74674e-22
-2.18123e-23
-1.67398e-22
-1.90045e-23
-5.95844e-23
-1.36598e-23
-1.52243e-23
-8.81021e-24
-2.67496e-25
9.10401e-25
-5.34733e-24
-1.65021e-18
3.66179e-15
-1.3668e-18
2.06439e-16
-2.81588e-20
2.39067e-16
1.07937e-18
2.16985e-16
1.33666e-18
1.75509e-16
1.11804e-18
1.47798e-16
6.77511e-19
1.38135e-16
2.17171e-19
1.38701e-16
-1.68584e-19
1.17654e-16
-2.45562e-19
7.94127e-17
-9.84972e-20
3.81452e-17
-7.69195e-21
8.93552e-18
-2.63497e-23
5.19018e-19
4.44362e-23
2.99577e-21
-4.06063e-26
-2.03339e-24
-1.1956e-23
-2.73678e-22
-1.88899e-23
-2.26254e-22
-1.88057e-23
-1.23531e-22
-1.44889e-23
-5.15339e-23
-9.53053e-24
-1.66673e-23
-5.74747e-24
-3.47618e-24
-3.27854e-24
1.30513e-25
3.00656e-25
-1.80725e-24
2.03562e-16
3.93992e-15
1.23029e-14
4.72574e-13
5.65214e-14
2.85543e-12
4.79808e-14
2.56705e-12
1.81876e-17
7.25066e-13
1.94804e-18
1.61827e-16
5.7121e-18
1.32088e-16
5.70951e-18
1.36592e-16
4.32092e-18
1.14875e-16
2.40584e-18
7.63042e-17
7.94709e-19
3.31448e-17
7.93498e-20
5.83455e-18
9.51389e-22
1.95304e-19
5.68026e-25
5.39102e-22
2.65212e-26
2.82389e-25
-1.08303e-23
-9.76721e-23
-1.25568e-23
-7.74809e-23
-9.94739e-24
-3.96998e-23
-6.41585e-24
-1.52603e-23
-3.66906e-24
-4.42075e-24
-1.96961e-24
-6.99108e-25
-1.02551e-24
6.5137e-26
8.22579e-26
-5.14091e-25
5.64952e-16
3.85948e-15
7.99146e-14
7.88583e-13
1.70829e-13
2.76621e-12
1.5016e-13
2.58944e-12
1.68918e-15
1.28028e-12
0
1.05462e-15
1.04436e-17
1.32009e-16
1.06018e-17
1.30757e-16
7.98199e-18
1.06529e-16
4.23939e-18
6.5928e-17
1.12693e-18
2.38364e-17
6.76505e-20
2.85921e-18
3.70041e-22
5.26543e-20
8.92854e-26
7.1465e-23
6.4394e-27
4.9013e-26
-6.05619e-24
-3.60604e-23
-6.00891e-24
-2.63375e-23
-4.1432e-24
-1.24288e-23
-2.34515e-24
-4.33371e-24
-1.18809e-24
-1.09965e-24
-5.71131e-25
-1.17259e-25
-2.71274e-25
2.04136e-26
1.87323e-26
-1.23249e-25
6.50965e-16
3.69067e-15
6.83415e-14
5.74205e-13
2.58922e-13
2.57734e-12
2.76113e-13
2.57396e-12
2.20467e-15
8.97794e-13
0
5.86398e-16
1.5152e-17
1.32195e-16
1.45811e-17
1.22449e-16
1.01215e-17
9.3132e-17
4.63848e-18
5.03462e-17
8.74773e-19
1.3788e-17
2.78897e-20
9.87529e-19
6.60032e-23
8.5828e-21
5.19239e-24
5.40077e-24
-8.23856e-25
-4.74258e-24
-2.92254e-24
-1.36777e-23
-2.47091e-24
-8.82989e-24
-1.49408e-24
-3.76258e-24
-7.4286e-25
-1.16871e-24
-3.30529e-25
-2.53766e-25
-1.4175e-25
-1.49605e-26
-6.06514e-26
4.83802e-27
3.51217e-27
-2.47012e-26
7.42799e-16
3.42652e-15
1.73291e-13
4.16507e-14
3.29448e-13
7.93644e-13
1.80491e-13
7.56877e-13
0
4.04181e-14
0
4.50741e-16
1.87362e-17
1.33076e-16
1.67348e-17
1.12779e-16
1.00956e-17
7.42991e-17
3.66038e-18
3.25388e-17
4.16964e-19
5.87503e-18
5.82224e-21
2.03902e-19
5.05929e-24
6.64511e-22
4.44516e-25
1.82542e-25
-8.05586e-25
-3.90343e-24
-1.28001e-24
-5.17439e-24
-9.14082e-25
-2.89375e-24
-4.79311e-25
-1.0915e-24
-2.06424e-25
-2.96216e-25
-7.90992e-26
-5.38558e-26
-2.97866e-26
-1.04582e-27
-1.13034e-26
8.98689e-28
5.31375e-28
-4.06371e-27
1.38762e-15
6.83672e-15
5.01094e-15
7.92096e-16
3.38658e-14
0
2.31715e-14
0
0
0
3.09936e-17
3.4118e-16
2.26942e-17
1.72823e-16
1.52898e-17
9.98597e-17
7.80723e-18
5.10972e-17
1.97814e-18
1.59261e-17
1.08871e-19
1.52875e-18
5.24524e-22
1.97265e-20
1.43688e-25
2.01442e-23
1.79132e-26
8.73176e-26
-4.772e-25
-2.08006e-24
-5.18922e-25
-1.92853e-24
-3.10441e-25
-9.23717e-25
-1.38471e-25
-3.02091e-25
-5.04313e-26
-7.00212e-26
-1.61833e-26
-1.04393e-26
-5.21708e-27
1.22326e-29
-1.71987e-27
1.30851e-28
6.31206e-29
-5.34725e-28
1.52132e-15
7.16926e-15
7.85716e-16
4.66168e-15
2.89144e-16
5.52685e-16
1.28266e-16
2.61288e-16
7.96699e-17
3.42394e-16
7.15045e-17
3.3976e-16
2.61829e-17
1.78228e-16
1.20744e-17
7.62435e-17
4.3469e-18
2.71625e-17
6.11034e-19
4.80884e-18
1.23466e-20
1.82341e-19
1.66475e-23
6.89594e-22
1.53632e-24
2.34867e-25
-1.29114e-26
-5.82615e-26
-2.41903e-25
-9.93592e-25
-1.9894e-25
-7.11424e-25
-9.84734e-26
-2.88409e-25
-3.64876e-26
-8.00681e-26
-1.08922e-26
-1.54515e-26
-2.81895e-27
-1.84647e-27
-7.50461e-28
4.78637e-30
-2.08319e-28
1.47193e-29
5.67491e-30
-5.44124e-29
1.80011e-15
3.9576e-15
1.42666e-15
5.27851e-15
5.52186e-16
3.25642e-15
2.63253e-16
1.74738e-15
1.3969e-16
9.70114e-16
6.23335e-17
4.13323e-16
2.19134e-17
1.50051e-16
6.89318e-18
4.38848e-17
1.42425e-18
8.9188e-18
8.05782e-20
6.45158e-19
4.57694e-22
7.09574e-21
1.683e-25
7.47444e-24
2.50799e-26
1.51975e-27
-6.1791e-26
-2.67189e-25
-1.14533e-25
-4.58615e-25
-7.3303e-26
-2.61109e-25
-2.97089e-26
-8.8886e-26
-8.92693e-27
-2.05606e-26
-2.10757e-27
-3.21827e-27
-4.19287e-28
-3.00238e-28
-8.72898e-29
6.39863e-31
-1.94778e-29
1.25594e-30
3.6699e-31
-4.09157e-30
8.75707e-16
2.22149e-16
1.63236e-15
2.40123e-15
9.82162e-16
3.33482e-15
4.96133e-16
2.24309e-15
1.97787e-16
1.14882e-15
5.81905e-17
4.34773e-16
1.36583e-17
1.07147e-16
2.30139e-18
1.68273e-17
1.92901e-19
1.30551e-18
3.13187e-21
2.57626e-20
4.43486e-24