/*--------------------------------*- C++ -*----------------------------------*\
  =========                 |
  \\      /  F ield         | OpenFOAM: The Open Source CFD Toolbox
   \\    /   O peration     | Website:  https://openfoam.org
    \\  /    A nd           | Version:  9
     \\/     M anipulation  |
\*---------------------------------------------------------------------------*/
FoamFile
{
    format      ascii;
    class       volScalarField;
    location    "6.61";
    object      p_rgh;
}
// * * * * * * * * * * * * * * * * * * * * * * * * * * * * * * * * * * * * * //

dimensions      [1 -1 -2 0 0 0 0];

internalField   nonuniform List<scalar> 
2268
(
755.014
755.233
755.549
755.96
756.451
757.011
757.628
758.29
758.983
759.695
760.41
761.117
761.8
762.439
763.015
763.516
763.971
764.427
764.897
765.299
765.742
766.277
766.578
754.962
755.168
755.479
755.887
756.38
756.943
757.564
758.23
758.929
759.647
760.369
761.081
761.764
762.402
762.98
763.497
764.012
764.575
765.158
765.509
765.997
766.34
766.648
754.88
755.08
755.387
755.792
756.287
756.855
757.483
758.157
758.865
759.593
760.327
761.05
761.744
762.393
762.989
763.536
764.097
764.703
765.4
765.929
766.148
766.401
766.728
754.766
754.97
755.28
755.685
756.183
756.757
757.394
758.079
758.801
759.544
760.293
761.033
761.746
762.42
763.047
763.635
764.036
764.758
765.459
766.02
766.194
766.441
766.873
754.622
754.836
755.152
755.563
756.068
756.652
757.301
758.001
758.739
759.5
760.269
761.029
761.769
762.476
763.147
763.795
763.956
762.723
764.67
766.006
765.155
766.426
767.084
754.448
754.674
755.003
755.424
755.939
756.536
757.201
757.919
758.678
759.461
760.251
761.036
761.807
762.554
763.278
763.998
764.412
759.477
759.8
760.948
761.296
766.126
767.351
754.244
754.484
754.829
755.264
755.793
756.407
757.091
757.831
758.617
759.424
760.237
761.049
761.855
762.646
763.427
764.223
765.166
761.44
759.614
759.943
761.681
767.001
767.623
754.012
754.264
754.624
755.075
755.622
756.255
756.963
757.732
758.55
759.387
760.227
761.068
761.913
762.751
763.59
764.454
765.467
766.414
759.7
759.724
766.345
767.681
768.145
765.914
766.162
766.046
765.627
765
764.144
763.31
762.386
761.336
760.168
759.232
758.832
758.319
757.764
757.722
757.75
757.477
757.267
757.017
765.904
766.294
766.122
765.71
765.138
764.485
763.65
762.688
761.608
760.515
759.612
759.206
758.548
757.797
757.561
757.536
757.342
757.168
757.023
765.909
766.342
766.209
765.739
765.157
764.481
763.66
762.69
761.566
760.486
759.843
759.429
759.061
758.123
757.355
757.437
757.238
757.142
756.531
766.635
766.85
766.363
765.819
765.216
764.514
763.649
762.661
761.464
760.069
759.819
759.462
759.089
758.115
756.996
757.446
757.154
756.964
756.464
767.706
767.124
766.538
765.94
765.3
764.552
763.601
762.673
761.759
759.666
759.706
759.444
758.961
754.13
756.195
757.391
756.105
756.318
756.409
767.815
767.284
766.684
766.059
765.39
764.631
763.804
762.943
762.045
758.688
753.404
758.382
755.969
747.249
756.699
756.97
753.099
757.027
757.059
767.967
767.433
766.818
766.178
765.497
764.738
763.951
763.149
762.374
757.51
746.485
745.651
745.32
746.608
758.559
757.629
751.805
757.395
757.477
768.163
767.566
766.963
766.342
765.653
764.84
764.035
763.132
762.363
758.493
746.007
745.181
744.811
754.844
758.836
757.9
751.239
756.678
757.356
753.599
753.86
754.246
754.727
755.304
755.975
756.728
757.555
758.44
759.333
760.217
761.104
762.017
762.94
763.862
764.808
765.869
767.146
768.071
768.077
768.567
768.274
768.439
731.17
731.343
732.425
734.185
736.473
738.811
741.176
743.787
746.849
748.764
749.568
750.118
751.797
754.078
756.199
758.601
762.4
767.124
768.459
769.015
769.198
767.223
766.233
245.492
247.96
250.88
253.376
256.001
258.986
262.266
265.58
269.13
273.946
280.02
286.354
291.7
296.319
301.035
306.075
310.917
316.446
324.954
328.449
327.948
329.128
333.561
0.798553
0.799755
0.758237
0.816565
0.887166
0.941891
0.984983
1.034
1.07027
1.09305
1.10936
1.11986
1.12732
1.19144
1.39576
1.68208
2.06489
1.98573
1.24826
1.29122
1.33892
1.35573
1.2676
1.25681
1.25643
0.759728
1.52037
2.51756
2.95964
3.25161
3.69664
3.93687
4.02555
4.14739
4.18532
4.1873
4.18504
4.03686
3.23875
2.79056
2.25716
1.13093
1.31033
1.33445
1.31435
1.11337
0.610015
0.667824
0.686118
0.571492
0.0183883
0.0113073
0.00685285
0.0033694
0.00242072
0.0489302
0.115581
0.225689
0.239529
0.221966
0.255981
0.313303
0.330427
0.628474
0.778718
0.631123
0.807125
0.901779
0.720998
0.00812344
0.00719741
0.120491
0.06037
0.0378396
0.0142437
0.00577811
0.00417203
0.00312941
0.00226931
0.00132002
0.000446464
0.000956528
0.00261441
0.0216493
0.10565
0.133233
0.0749639
0.116942
0.173917
0.193564
0.116756
0.404846
0.00628695
0.00567534
0.00469584
0.00442543
0.00577379
0.00869595
0.00866556
0.0055969
0.00275687
0.0026417
0.00340996
0.00183082
0.000718872
0.00457749
0.0993461
0.130347
0.120385
0.0457547
0.0733791
0.0922696
0.00827046
0.00297079
0.0413179
0.00595679
0.00546578
0.00478912
0.00443193
0.00470009
0.00574223
0.00811034
0.00586543
0.00241666
0.00404494
0.00587425
0.00463244
0.000283983
0.00406043
0.0467652
0.0600479
0.0383324
0.0451741
0.0587781
0.0139121
0.000758639
0.000683188
-0.000872813
0.00514871
0.00499338
0.00464804
0.00419327
0.00405999
0.0039396
0.004311
0.00295046
0.00214922
0.00426396
0.00607272
0.00535766
0.000512555
-0.000339557
-0.000922736
-0.00282177
-0.00182903
0.0041336
0.00746469
0.00016815
-4.65808e-05
2.7101e-05
-0.000514812
0.0047182
0.00467789
0.00435786
0.00391273
0.00361051
0.00327278
0.00284454
0.00239727
0.00194471
0.00460422
0.00629283
0.00113649
-0.000157444
-0.000783704
-0.00151721
-0.00189609
-0.00145476
-0.000896117
-0.00097295
-0.000706441
-0.000363639
-0.000227734
-0.000437116
0.00422572
0.00417774
0.00399648
0.00355077
0.00323477
0.00291896
0.00255695
0.00320237
0.00499128
0.00447814
0.00187365
0.000230287
-0.000158678
-0.000614004
-0.00111013
-0.00139208
0.00291435
0.0106355
0.0106036
0.00249089
-0.000542728
-0.000505176
-0.000575485
0.00382851
0.00366183
0.00349469
0.00317733
0.00290458
0.00260857
0.0030654
0.00548009
0.00504594
0.00375459
0.000619212
0.000263553
-8.98257e-05
-0.000464939
-0.000837606
-0.00105182
0.00648413
0.0113099
0.0114471
0.0114361
0.000142691
-0.000697292
-0.00073733
0.00349388
0.00331302
0.00309734
0.00285832
0.00261025
0.00233161
0.00268242
0.0054312
0.00473434
0.00124223
0.000607022
0.000293631
-2.14682e-05
-0.000342306
-0.000651835
-0.000921301
-0.000440867
0.00633261
0.011899
0.00363082
-0.000924452
-0.000823295
-0.000832453
0.00325827
0.00318777
0.00280227
0.00258022
0.00235007
0.00212459
0.002122
0.00195223
0.00157796
0.000872058
0.000597326
0.000319678
4.00107e-05
-0.000238575
-0.000504372
-0.000747602
-0.000976662
-0.00111274
-0.00086599
-0.00111203
-0.000950329
-0.000853295
-0.000880048
0.00320997
0.00309859
0.00253031
0.00232877
0.00212465
0.00191371
0.00164438
0.00135369
0.00108682
0.000836057
0.000588278
0.000339883
9.19952e-05
-0.000150304
-0.000380464
-0.000591724
-0.000782315
-0.000934618
-0.0010059
-0.000978805
-0.000909989
-0.000866143
-0.000910742
0.0033345
0.00285696
0.00228241
0.00210251
0.00191867
0.00171941
0.00148889
0.00125643
0.00102479
0.000799046
0.000575705
0.000353637
0.000134749
-7.75701e-05
-0.000278523
-0.000462464
-0.000624849
-0.000754359
-0.000831833
-0.000854289
-0.00085552
-0.000870689
-0.000909905
0.00310413
0.00258572
0.00206443
0.00190042
0.00173306
0.00155222
0.00136082
0.00116132
0.00095956
0.000759164
0.00055982
0.000362275
0.000168439
-1.89296e-05
-0.000195907
-0.00035794
-0.000500623
-0.000617292
-0.000699486
-0.000747723
-0.000779975
-0.000814581
-0.000859603
0.00291497
0.00225206
0.0018712
0.00171941
0.00156771
0.00140951
0.00124373
0.00107103
0.000894879
0.000717878
0.000541017
0.000365661
0.000193729
2.77174e-05
-0.000129209
-0.00027346
-0.000401479
-0.00050923
-0.000593069
-0.00065444
-0.000702781
-0.000747968
-0.000795553
0.00277874
0.00205188
0.00169279
0.00155504
0.00141989
0.00128127
0.00113671
0.000986485
0.000832467
0.000676519
0.000520027
0.000364536
0.000211916
6.43949e-05
-7.54335e-05
-0.000204783
-0.000320951
-0.000421402
-0.000504518
-0.0005716
-0.000627684
-0.000678111
-0.000726309
0.00264231
0.00230625
0.00152395
0.00140444
0.00128618
0.00116506
0.00103907
0.000908132
0.000773339
0.000636096
0.000497794
0.00035997
0.000224374
9.29708e-05
-3.20919e-05
-0.000148624
-0.000254595
-0.000348334
-0.000429011
-0.000497499
-0.000556508
-0.000608898
-0.000656647
0.00248877
0.00235931
0.00137439
0.00126865
0.00116553
0.00106011
0.000950448
0.000836239
0.00071819
0.000597421
0.000475218
0.000353022
0.000232428
0.000115156
2.99616e-06
-0.000102298
-0.00019917
-0.000286429
-0.000363537
-0.00043097
-0.000490157
-0.000542584
-0.000589325
0.00236288
0.00218083
0.00123824
0.00114671
0.00105759
0.000966157
0.000870771
0.000771055
0.000667538
0.000561167
0.000453107
0.000344673
0.000237292
0.000132459
3.16794e-05
-6.36207e-05
-0.000152208
-0.000233167
-0.00030606
-0.000371074
-0.000428919
-0.000480319
-0.000525823
0.00213723
0.0014227
0.00111788
0.0010395
0.00096263
0.000883216
0.000800065
0.000712757
0.000621738
0.000527844
0.000432121
0.00033575
0.000239991
0.000146136
5.54539e-05
-3.08778e-05
-0.000111857
-0.000186741
-0.000255131
-0.000317027
-0.000372737
-0.000422577
-0.000466803
0.00127438
0.00109037
0.00101612
0.000947862
0.000880714
0.00081118
0.000738217
0.000661345
0.000580944
0.000497756
0.000412717
0.000326871
0.000241318
0.000157163
7.54754e-05
-2.7696e-06
-7.67473e-05
-0.000145838
-0.000209673
-0.00026815
-0.000321363
-0.000369414
-0.000412415
0.00108024
0.000997315
0.00093058
0.000869999
0.000810819
0.000749378
0.000684775
0.000616558
0.000545073
0.000470992
0.000395145
0.000318447
0.000241843
0.000166269
9.2614e-05
2.16816e-05
-4.58515e-05
-0.00010947
-0.000168845
-0.000223833
-0.000274423
-0.000320619
-0.000362472
0.000982294
0.000914226
0.000856173
0.000803447
0.00075136
0.000696758
0.000639
0.000577887
0.000513822
0.000447436
0.000379466
0.000310705
0.000241953
0.000173985
0.000107526
4.32246e-05
-1.83747e-05
-7.68564e-05
-0.000131944
-0.000183495
-0.000231462
-0.000275813
-0.000316582
0.00088999
0.000837435
0.000790156
0.000746448
0.000701127
0.000652293
0.000600032
0.000544661
0.000486711
0.000426806
0.000365586
0.000303725
0.000241886
0.00018069
0.000120709
6.24471e-05
6.32322e-06
-4.73464e-05
-9.83514e-05
-0.000146579
-0.000191983
-0.000234533
-0.000274265
0.000803491
0.000765472
0.000731657
0.000698495
0.000659554
0.000615099
0.000566928
0.000516061
0.00046312
0.000408677
0.000353275
0.000297459
0.000241756
0.00018664
0.000132535
7.98095e-05
2.87616e-05
-2.03946e-05
-6.7526e-05
-0.000112569
-0.000155502
-0.000196311
-0.000235036
0.000722045
0.000698577
0.000682297
0.000661478
0.000626604
0.000584154
0.000538546
0.000491079
0.00044226
0.000392494
0.000342189
0.00029175
0.000241568
0.000191974
0.000143255
9.56532e-05
4.93459e-05
4.4421e-06
-3.90113e-05
-8.10135e-05
-0.000121583
-0.000160728
-0.000198482
0.000646853
0.000637037
0.000646571
0.000640939
0.000601148
0.000557229
0.00051304
0.000468382
0.000423173
0.000377595
0.000331896
0.000286349
0.000241223
0.000196721
0.000153006
0.000110201
6.83663e-05
2.75007e-05
-1.24446e-05
-5.15446e-05
-8.9868e-05
-0.000127445
-0.000164285
0.000574364
0.000815689
0.00280091
0.00339113
0.000904336
0.000529564
0.000487525
0.000446246
0.000404795
0.000363281
0.000321924
0.000280948
0.000240543
0.000200812
0.000161815
0.000123563
8.60022e-05
4.90154e-05
1.24455e-05
-2.38738e-05
-6.00739e-05
-9.62062e-05
-0.000132228
0.000505405
0.00152334
0.00431398
0.00431343
0.00236251
0.000497518
0.000460256
0.000423657
0.000386418
0.00034902
0.000311862
0.000275234
0.000239301
0.0002041
0.000169613
0.000135747
0.000102333
6.91296e-05
3.58537e-05
2.22406e-06
-3.19753e-05
-6.68197e-05
-0.000102177
0.000445929
0.00144355
0.00436913
0.00436482
0.0023817
0.000461723
0.00043307
0.000401317
0.00036814
0.000334637
0.000301434
0.000268917
0.000237232
0.000206372
0.000176248
0.00014667
0.00011735
8.79108e-05
5.79186e-05
2.69399e-05
-5.36828e-06
-3.91268e-05
-7.40566e-05
0.000406369
0.000784856
0.00379167
0.00377784
0.00117887
0.000434693
0.000409636
0.00038066
0.000350379
0.000320069
0.000290388
0.00026168
0.000234023
0.000207349
0.00018149
0.000156163
0.000130962
0.000105362
7.87459e-05
5.04716e-05
1.99835e-05
-1.29554e-05
-4.78272e-05
0.000403568
0.000498736
0.000762726
0.00069855
0.00045116
0.000419422
0.000391252
0.000361897
0.000332893
0.000304919
0.000278295
0.000253116
0.000229303
0.000206697
0.000185048
0.000163989
0.000143009
0.000121436
9.84417e-05
7.30914e-05
4.44495e-05
1.19608e-05
-2.34664e-05
0.000403063
0.000552552
0.00054023
0.000492578
0.000447207
0.000408925
0.000374254
0.000342787
0.000314211
0.000288194
0.000264444
0.000242676
0.000222621
0.000204013
0.000186541
0.000169793
0.000153197
0.000135968
0.000117066
9.51717e-05
6.86539e-05
3.60804e-05
-9.6894e-07
0.000485981
0.000617573
0.000571124
0.000502884
0.000440989
0.000391611
0.000351832
0.000319159
0.000291708
0.000268144
0.000247563
0.000229347
0.000213076
0.000198425
0.000185078
0.000172653
0.000160611
0.00014815
0.000134106
0.000116767
9.33256e-05
5.99005e-05
1.94538e-05
0.000682498
0.000696329
0.000585487
0.000485823
0.000411948
0.000357528
0.000317165
0.000286498
0.000262321
0.000242548
0.0002259
0.000211614
0.000199236
0.000188479
0.000179117
0.000170901
0.000163464
0.000156183
0.000148025
0.000137176
0.000119136
8.37004e-05
3.67066e-05
0.000811131
0.000744546
0.000544301
0.000426417
0.000352068
0.000302845
0.000270074
0.000247029
0.000229594
0.000215615
0.000203964
0.000194056
0.000185614
0.000178533
0.000172793
0.000168408
0.000165356
0.000163453
0.000162374
0.000161056
0.000152131
0.000112629
4.91546e-05
0.000954532
0.00066236
0.000436725
0.000335155
0.000276699
0.000247502
0.000233742
0.00022517
0.000218091
0.000211603
0.000205509
0.000199844
0.000194775
0.00019055
0.000187499
0.000186051
0.00018671
0.00019002
0.000197535
0.00021236
0.00022226
0.00017468
5.96882e-05
0.000727115
6.27903e-05
0.000172286
0.000178388
0.000178022
0.000184276
0.000191785
0.000196005
0.000197039
0.000196009
0.000193748
0.00019085
0.000187811
0.000185117
0.000183327
0.000183166
0.000185569
0.000191822
0.000206432
0.000247361
0.00033502
0.000276141
7.69015e-05
768.599
768.689
768.66
768.48
764.818
764.018
763.688
763.496
336.152
336.883
336.823
336.449
0.889846
0.753806
0.773316
0.766627
0.673414
0.672061
0.720686
0.73366
0.664616
0.666749
0.8542
0.854394
0.669494
0.614407
0.389062
0.497097
0.123044
0.0392355
8.4026e-05
0.00213768
-0.00154411
-0.00122529
-0.000607322
-0.000184091
-0.000680132
-0.000631446
-0.000351715
-3.50748e-05
-0.000510748
-0.000447845
-0.000294885
-8.16356e-05
-0.000608602
-0.000599798
-0.00057155
0.000289685
-0.000793794
-0.000847822
-0.000918189
-0.00101878
-0.000925313
-0.00100346
-0.00109799
-0.00122842
-0.0010017
-0.00106075
-0.00110442
-0.00112509
-0.00100269
-0.00105042
-0.00108647
-0.00108706
-0.000964479
-0.00100207
-0.00104418
-0.00109072
-0.000909641
-0.000940519
-0.000970971
-0.00100024
-0.000839758
-0.000865418
-0.000888631
-0.000909667
-0.000765545
-0.000787671
-0.000806797
-0.000823232
-0.00069218
-0.00071199
-0.000728795
-0.000742877
-0.00062218
-0.000640536
-0.000656154
-0.000669271
-0.000556793
-0.000574293
-0.000589424
-0.00060238
-0.000496489
-0.000513533
-0.000528585
-0.000541798
-0.000441251
-0.000458086
-0.000473265
-0.00048691
-0.000390746
-0.000407504
-0.000422886
-0.000436997
-0.000344458
-0.000361192
-0.000376779
-0.000391321
-0.000301811
-0.000318527
-0.00033429
-0.000349211
-0.000262269
-0.000278954
-0.000294859
-0.00031011
-0.000225395
-0.000242035
-0.000258058
-0.000273608
-0.000190883
-0.000207475
-0.000223607
-0.000239433
-0.000158543
-0.000175102
-0.000191346
-0.000207436
-0.000128282
-0.000144843
-0.000161214
-0.000177555
-0.000100076
-0.000116697
-0.000133221
-0.000149797
-7.39563e-05
-9.07246e-05
-0.000107438
-0.000124227
-5.00073e-05
-6.70513e-05
-8.4003e-05
-0.000100963
-2.83975e-05
-4.59023e-05
-6.31452e-05
-8.01897e-05
-9.49479e-06
-2.76816e-05
-4.52379e-05
-6.21772e-05
5.68832e-06
-1.32098e-05
-3.08801e-05
-4.72703e-05
1.47629e-05
-4.12012e-06
-2.08867e-05
-3.57111e-05
1.39131e-05
-4.28183e-06
-1.7586e-05
-2.80664e-05
2.72437e-05
9.53666e-06
-3.23327e-06
-1.2281e-05
768.477
767.796
767.246
766.654
765.301
762.181
760.692
761.347
762.055
762.368
760.314
753.004
754.044
761.382
759.196
758.037
750.357
753.587
757.185
763.213
760.307
757.731
755.502
753.285
750.319
745.334
741.002
742.746
754.78
760.282
759.979
758.152
754.09
746.556
743.243
743.791
740.614
736.982
335.61
331.803
328.24
324.783
323.135
323.637
324.409
322.746
316.277
308.402
309.888
312.493
308.134
296.238
285.837
281.44
282.746
277.14
277.057
0.792123
0.758921
0.948674
1.50075
1.67747
1.46965
1.14242
0.96437
0.910106
0.851057
0.805546
0.740897
0.69348
0.747286
0.797753
0.8046
0.791635
0.814038
0.810876
0.738037
0.741548
0.752769
1.41973
1.64284
1.59593
1.60368
1.63037
1.62749
1.62098
1.60888
1.38492
0.744549
1.16023
1.31581
1.31934
1.31846
1.32285
1.31427
0.827156
0.80006
0.807294
0.806842
0.952976
1.06462
0.968761
0.851997
0.78604
0.717547
0.536889
0.349748
0.550376
0.555201
0.621445
0.669262
0.596995
0.672352
0.665324
0.516637
0.511695
0.498039
0.407351
0.177602
0.0247826
0.013227
0.0145153
0.0158524
0.0165687
0.0179531
0.0191275
0.0173899
0.0139168
0.0117642
0.0109452
0.0203119
0.0780838
0.0818539
0.00434945
0.00539873
0.00454116
0.00193027
0.0047219
0.00777434
0.0105622
0.0354503
0.062934
0.0696704
0.0810062
0.0736592
0.0248521
0.0122717
0.0107066
0.00976971
0.00946803
0.00877586
0.00925712
0.000288411
0.00116266
0.00190459
0.00261573
0.00418685
0.00625545
0.04833
0.101421
0.100914
0.101251
0.102393
0.103368
0.0392793
0.0114978
0.00982912
0.00895406
0.00865969
0.00848953
0.00880744
0.00113435
0.00419985
0.00519366
0.00256771
0.00325891
0.0192469
0.104634
0.10336
0.0545926
0.0430907
0.0917344
0.105577
0.0430126
0.0439254
0.0128812
0.00824143
0.00801586
0.00798435
0.00818957
0.00958555
0.0388418
0.0368995
0.00582363
0.00215496
0.0283898
0.076622
0.0287748
0.00361182
0.00636179
0.00705096
0.0237586
0.0589264
0.0603998
0.0451257
0.00756231
0.00753843
0.0074833
0.00754624
0.0225702
0.0403728
0.0408588
0.041486
0.0189382
0.00588566
-0.00117865
-0.000769729
0.00360142
0.0139705
0.0128347
0.00554208
0.0374395
0.0616271
0.0464973
0.00890073
0.00728507
0.00711731
0.00702087
0.00480581
0.0344248
0.0418849
0.0422635
0.0207676
-0.00059076
-0.000796021
-0.000484819
0.00233997
0.00387302
0.000639444
0.00117089
0.00159543
0.00232395
0.0241687
0.034129
0.0263937
0.00685717
0.00658356
-0.00151583
0.000667977
0.0108626
0.00579515
-0.001277
-0.000818931
-0.000669266
-0.000381038
-0.00011213
0.000228987
0.000647443
0.0011081
0.00158952
0.00313913
0.0245633
0.034523
0.0351736
0.0355121
0.0245647
-0.00130607
-0.00175337
-0.00188836
-0.00164075
-0.00118667
-0.000840763
-0.000620957
-0.000355114
-7.17852e-05
0.000244333
0.000609225
0.00100795
0.00141749
0.00182546
0.00398833
0.0182149
0.0227329
0.013541
0.0113896
-0.00114826
-0.00123173
-0.00119234
-0.00114372
-0.0010292
-0.000795738
-0.000582623
-0.000344148
-7.48853e-05
0.000213994
0.000531322
0.000870508
0.00122108
0.00156105
0.00185072
0.00214317
0.00252636
0.00299313
0.00275281
-0.00115882
-0.000865648
-0.00057915
-0.000462768
-0.00040954
-0.000670259
-0.000544674
-0.000332191
-9.17005e-05
0.000166474
0.000422024
0.000703618
0.000993375
0.00128732
0.0015833
0.00192444
0.00232465
0.00283962
0.0042368
-0.00104504
-0.00102106
-0.000523188
-0.000293329
-0.000145126
-8.9752e-05
-0.000524536
-0.000331653
-2.87942e-05
0.0002281
0.000347269
0.000513661
0.000743252
0.000977796
0.00122328
0.00151156
0.00184561
0.00830217
0.0327623
-0.000939757
-0.000971548
-0.000965623
-0.000662708
-0.000226222
-0.00036607
-0.000487501
-0.000323589
-8.03191e-07
0.000166174
0.000337148
0.000318696
0.000464977
0.000616953
0.000757771
0.000894912
0.00110071
0.0227027
0.0386097
-0.000845501
-0.000865127
-0.000856705
-0.000813023
-0.000736533
-0.000634156
-0.000517668
-0.000342641
-0.000118766
6.14202e-05
0.000120716
0.000110981
0.000178921
0.000239333
0.000252384
0.000201464
0.000266704
0.0256155
0.0390333
-0.000761559
-0.000776427
-0.00076995
-0.000737905
-0.000681917
-0.000607351
-0.000522047
-0.000432806
-0.000343303
-0.000254978
-0.000176113
-0.000117149
-8.75582e-05
-0.000108029
-0.000204376
-0.000413717
-0.000724475
0.00705456
0.0397037
-0.000686919
-0.000701247
-0.00069904
-0.000678111
-0.000639782
-0.000587894
-0.000528038
-0.000465733
-0.000405403
-0.000351727
-0.000311471
-0.000294457
-0.000314625
-0.00039035
-0.00054877
-0.00083063
-0.00124994
-0.0018216
0.0298128
-0.000620413
-0.000636491
-0.000639687
-0.000629052
-0.000605818
-0.00057295
-0.000534745
-0.00049585
-0.000460822
-0.000434804
-0.00042462
-0.000438894
-0.000490077
-0.000592908
-0.000768168
-0.00104382
-0.0014174
-0.00175007
-0.00177904
-0.000560899
-0.000579828
-0.00058875
-0.000587452
-0.000577155
-0.000560305
-0.000540368
-0.000521227
-0.000507244
-0.000503164
-0.000514938
-0.000549728
-0.000616124
-0.000723406
-0.000881627
-0.00109809
-0.00134386
-0.00146184
-0.00125653
-0.00050732
-0.000529483
-0.000543965
-0.000550974
-0.000551731
-0.00054831
-0.000543569
-0.000540841
-0.000543827
-0.000556606
-0.00058382
-0.000630508
-0.000701516
-0.000800404
-0.000927342
-0.00107264
-0.00119047
-0.00116138
-0.000871973
-0.000458715
-0.000484092
-0.00050369
-0.00051797
-0.0005281
-0.000535881
-0.00054369
-0.00055431
-0.000570767
-0.000596268
-0.000634065
-0.000687059
-0.000756976
-0.000842813
-0.000937992
-0.00102299
-0.00104663
-0.000928989
0.000891111
-0.000414241
-0.000442604
-0.000466759
-0.00048729
-0.000505301
-0.000522361
-0.000540451
-0.000561833
-0.000588892
-0.000623954
-0.000669013
-0.000725215
-0.000791963
-0.0008654
-0.000935788
-0.000981215
-0.00095506
-0.000803338
0.00926671
-0.000373197
-0.000404226
-0.000432341
-0.000458169
-0.000482741
-0.000507423
-0.000533868
-0.000563886
-0.000599277
-0.00064159
-0.000691786
-0.000749693
-0.000813187
-0.000876989
-0.000930935
-0.000956011
-0.00091581
-0.000768048
0.00976113
-0.000335039
-0.000368386
-0.000399869
-0.000430114
-0.000460075
-0.000490952
-0.000524126
-0.000561037
-0.000602994
-0.00065091
-0.00070493
-0.000763905
-0.000824686
-0.000881277
-0.000924038
-0.000938009
-0.000896536
-0.000760369
0.0100548
-0.000299377
-0.000334695
-0.000368975
-0.000402822
-0.000437122
-0.000472942
-0.000511461
-0.000553834
-0.000600995
-0.000653364
-0.000710455
-0.000770354
-0.000829055
-0.000879811
-0.000912785
-0.000914271
-0.000861603
-0.00072283
0.00543492
-0.000265957
-0.000302901
-0.000339425
-0.000376106
-0.000413778
-0.00045342
-0.000496078
-0.000542723
-0.000594036
-0.000650106
-0.000709994
-0.00077117
-0.000828783
-0.000874933
-0.00089798
-0.000880821
-0.000796409
-0.000621563
-0.000357871
-0.000234633
-0.000272855
-0.000311071
-0.000349837
-0.00038996
-0.000432382
-0.000478091
-0.000527979
-0.000582624
-0.000641965
-0.00070484
-0.000768337
-0.000826944
-0.000871552
-0.000888082
-0.000854135
-0.000734913
-0.00051368
0.00133838
-0.000205337
-0.000244468
-0.000283802
-0.000323892
-0.000365552
-0.000409739
-0.000457465
-0.000509653
-0.000566931
-0.000629313
-0.000695711
-0.000763231
-0.000826195
-0.000874935
-0.000894006
-0.000858144
-0.000728596
-0.000491247
0.0120096
-0.000178058
-0.000217684
-0.000257509
-0.000298115
-0.000340365
-0.000385286
-0.000433982
-0.000487511
-0.000546709
-0.000611894
-0.000682393
-0.000755814
-0.000827023
-0.0008867
-0.000919405
-0.000899597
-0.000786733
-0.00055749
0.0123622
-0.000152819
-0.000192452
-0.000232051
-0.000272285
-0.000314113
-0.000358675
-0.000407221
-0.000461024
-0.000521255
-0.000588747
-0.000663576
-0.000744387
-0.000827355
-0.000904368
-0.000960718
-0.00097092
-0.000889224
-0.000665257
0.0126118
-0.000129664
-0.00016869
-0.000207219
-0.000246085
-0.000286392
-0.00032942
-0.000376581
-0.000429399
-0.000489456
-0.000558259
-0.000636951
-0.000725763
-0.000823039
-0.000922885
-0.00101227
-0.00106548
-0.00102711
-0.000807406
0.0128371
-0.000108629
-0.000146248
-0.000182697
-0.000219082
-0.000256687
-0.000296921
-0.000341334
-0.000391668
-0.000449914
-0.000518321
-0.000599322
-0.000695227
-0.0008075
-0.000934034
-0.00106544
-0.00117368
-0.00119624
-0.000983331
0.0105233
-8.96994e-05
-0.000124837
-0.00015801
-0.000190705
-0.000224389
-0.000260533
-0.000300735
-0.00034685
-0.000401164
-0.000466578
-0.000546845
-0.000646748
-0.000771512
-0.000925635
-0.00110651
-0.00127132
-0.00138768
-0.00119913
0.0059876
-7.27158e-05
-0.000103886
-0.000132394
-0.000160154
-0.000188732
-0.000219531
-0.000254033
-0.000294011
-0.000341798
-0.000400652
-0.000475331
-0.00057282
-0.000702765
-0.000877996
-0.00111016
-0.0013656
-0.00163211
-0.00150182
0.00624591
-5.7106e-05
-8.22237e-05
-0.000104525
-0.000126162
-0.000148578
-0.000172893
-0.000200253
-0.000232076
-0.000270344
-0.000318063
-0.000380069
-0.000464328
-0.000583649
-0.000758939
-0.00102747
-0.00142229
-0.0019744
-0.00192078
0.00595877
-4.14277e-05
-5.80866e-05
-7.29419e-05
-8.76771e-05
-0.000103266
-0.000120314
-0.000139415
-0.000161337
-0.000187248
-0.000219082
-0.000260306
-0.000317374
-0.000402153
-0.000537767
-0.00078573
-0.00131104
-0.0022988
-0.00263413
0.00502437
-2.17674e-05
-3.14143e-05
-3.99488e-05
-4.88571e-05
-5.85293e-05
-6.90459e-05
-8.04305e-05
-9.27347e-05
-0.000106123
-0.000121039
-0.000138618
-0.000161729
-0.000197378
-0.000262306
-0.000405331
-0.000803543
-0.00192887
-0.00325525
0.00241115
)
;

boundaryField
{
    leftWall
    {
        type            fixedFluxPressure;
        gradient        uniform 0;
        value           nonuniform List<scalar> 
50
(
755.014
754.962
754.88
754.766
754.622
754.448
754.244
754.012
753.599
731.17
245.492
0.798553
1.25681
0.610015
0.00812344
0.00628695
0.00595679
0.00514871
0.0047182
0.00422572
0.00382851
0.00349388
0.00325827
0.00320997
0.0033345
0.00310413
0.00291497
0.00277874
0.00264231
0.00248877
0.00236288
0.00213723
0.00127438
0.00108024
0.000982294
0.00088999
0.000803491
0.000722045
0.000646853
0.000574364
0.000505405
0.000445929
0.000406369
0.000403568
0.000403063
0.000485981
0.000682498
0.000811131
0.000954532
0.000727115
)
;
    }
    rightWall
    {
        type            fixedFluxPressure;
        gradient        uniform 0;
        value           nonuniform List<scalar> 
50
(
757.017
757.023
756.531
756.464
756.409
757.059
757.477
757.356
757.185
736.982
277.057
0.810876
1.31427
0.665324
0.0818539
0.00925712
0.00880744
0.00818957
0.00754624
0.00702087
0.00658356
0.0245647
0.0113896
0.00275281
0.0042368
0.0327623
0.0386097
0.0390333
0.0397037
0.0298128
-0.00177904
-0.00125653
-0.000871973
0.000891111
0.00926671
0.00976113
0.0100548
0.00543492
-0.000357871
0.00133838
0.0120096
0.0123622
0.0126118
0.0128371
0.0105233
0.0059876
0.00624591
0.00595877
0.00502437
0.00241115
)
;
    }
    lowerWall
    {
        type            fixedFluxPressure;
        gradient        uniform 0;
        value           nonuniform List<scalar> 
62
(
755.014
755.233
755.549
755.96
756.451
757.011
757.628
758.29
758.983
759.695
760.41
761.117
761.8
762.439
763.015
763.516
763.971
764.427
764.897
765.299
765.742
766.277
766.578
766.578
766.648
766.728
766.873
767.084
767.351
767.623
768.145
768.599
768.689
768.66
768.48
765.914
765.904
765.909
766.635
767.706
767.815
767.967
768.163
765.914
766.162
766.046
765.627
765
764.144
763.31
762.386
761.336
760.168
759.232
758.832
758.319
757.764
757.722
757.75
757.477
757.267
757.017
)
;
    }
    atmosphere
    {
        type            totalPressure;
        rho             rho;
        psi             none;
        gamma           1;
        p0              uniform 0;
        value           nonuniform List<scalar> 
46
(
-9.8574e-05
0
0
0
0
0
0
0
0
0
0
0
0
0
0
0
0
0
0
0
0
-3.50515e-07
-1.73791e-06
-3.44309e-06
-4.83375e-06
-6.44268e-06
-8.25874e-06
-1.17549e-05
-1.75011e-05
-2.41503e-05
-3.15856e-05
-3.96729e-05
-4.82546e-05
-5.71439e-05
-6.61189e-05
-7.49164e-05
-8.3225e-05
-9.06762e-05
-9.68281e-05
-0.000101125
-0.000102792
-0.00010054
-9.17309e-05
-7.03627e-05
-2.17125e-05
0
)
;
    }
    defaultFaces
    {
        type            empty;
    }
}


// ************************************************************************* //
