/*--------------------------------*- C++ -*----------------------------------*\
  =========                 |
  \\      /  F ield         | OpenFOAM: The Open Source CFD Toolbox
   \\    /   O peration     | Website:  https://openfoam.org
    \\  /    A nd           | Version:  9
     \\/     M anipulation  |
\*---------------------------------------------------------------------------*/
FoamFile
{
    format      ascii;
    class       surfaceScalarField;
    location    "1.2";
    object      phi;
}
// * * * * * * * * * * * * * * * * * * * * * * * * * * * * * * * * * * * * * //

dimensions      [0 3 -1 0 0 0 0];

internalField   nonuniform List<scalar> 
17280
(
6.33172e-10
-6.42201e-10
-3.16129e-12
9.75451e-10
-3.39453e-10
-2.84188e-12
4.3453e-10
5.38493e-10
2.45134e-12
-1.10208e-09
1.53006e-09
6.53771e-12
-3.56773e-09
2.45573e-09
9.92072e-12
-6.82107e-09
3.24047e-09
1.28615e-11
-1.06953e-08
3.85897e-09
1.52374e-11
-1.50216e-08
4.3093e-09
1.69942e-11
-1.96391e-08
4.59943e-09
1.81474e-11
-2.4399e-08
4.74113e-09
1.873e-11
-2.91649e-08
4.74709e-09
1.87814e-11
-3.38129e-08
4.62963e-09
1.83448e-11
-3.82304e-08
4.40011e-09
1.74617e-11
-4.23156e-08
4.06897e-09
1.61719e-11
-4.5976e-08
3.64589e-09
1.45136e-11
-4.91287e-08
3.14019e-09
1.25242e-11
-5.17002e-08
2.56129e-09
1.02419e-11
-5.36271e-08
1.91922e-09
7.70694e-12
-5.48572e-08
1.22507e-09
4.9641e-12
-5.53506e-08
4.91391e-10
2.06402e-12
-5.50822e-08
-2.67502e-10
-9.35686e-13
-5.40428e-08
-1.03539e-09
-3.9699e-12
-5.22417e-08
-1.79413e-09
-6.96598e-12
-4.9708e-08
-2.52386e-09
-9.84464e-12
-4.64921e-08
-3.20335e-09
-1.25219e-11
-4.26666e-08
-3.81056e-09
-1.49117e-11
-3.83264e-08
-4.32331e-09
-1.69282e-11
-3.35878e-08
-4.72012e-09
-1.84882e-11
-2.85871e-08
-4.98117e-09
-1.95144e-11
-2.3478e-08
-5.08922e-09
-1.99387e-11
-1.84277e-08
-5.03062e-09
-1.9708e-11
-1.36127e-08
-4.79622e-09
-1.87894e-11
-9.21302e-09
-4.38249e-09
-1.71767e-11
-5.40532e-09
-3.79276e-09
-1.48958e-11
-2.35373e-09
-3.03952e-09
-1.20112e-11
-1.95667e-10
-2.14933e-09
-8.67282e-12
9.83461e-10
-1.17395e-09
-5.1561e-12
1.19642e-09
-2.11928e-10
-1.04957e-12
6.52218e-10
5.40549e-10
3.59572e-12
6.52125e-10
3.1037e-14
3.51873e-10
-9.95305e-10
1.24112e-12
-4.93851e-10
5.0673e-10
-4.6694e-13
-3.32504e-09
3.37197e-09
-2.27615e-12
-8.36314e-09
6.57344e-09
-5.28389e-12
-1.55194e-08
9.62067e-09
-8.66047e-12
-2.45296e-08
1.22624e-08
-1.1755e-11
-3.50425e-08
1.43861e-08
-1.42864e-11
-4.66738e-08
1.59568e-08
-1.61876e-11
-5.90362e-08
1.69793e-08
-1.74552e-11
-7.17559e-08
1.7479e-08
-1.8119e-11
-8.44806e-08
1.749e-08
-1.82262e-11
-9.68829e-08
1.70498e-08
-1.78264e-11
-1.08662e-07
1.6196e-08
-1.69675e-11
-1.19542e-07
1.49651e-08
-1.56953e-11
-1.29275e-07
1.33929e-08
-1.40523e-11
-1.37638e-07
1.15149e-08
-1.20789e-11
-1.44435e-07
9.36779e-09
-9.81585e-12
-1.49499e-07
6.99087e-09
-7.30557e-12
-1.52696e-07
4.42722e-09
-4.5942e-12
-1.53928e-07
1.72496e-09
-1.73323e-12
-1.53135e-07
-1.06188e-09
1.21909e-12
-1.50302e-07
-3.87305e-09
4.19748e-12
-1.45461e-07
-6.64215e-09
7.1298e-12
-1.38697e-07
-9.29739e-09
9.93851e-12
-1.3015e-07
-1.17629e-08
1.25418e-11
-1.20015e-07
-1.39608e-08
1.48551e-11
-1.08541e-07
-1.58133e-08
1.67923e-11
-9.60336e-08
-1.72462e-08
1.82694e-11
-8.28422e-08
-1.81917e-08
1.92081e-11
-6.93586e-08
-1.85923e-08
1.95407e-11
-5.60043e-08
-1.84042e-08
1.92147e-11
-4.32174e-08
-1.76012e-08
1.81985e-11
-3.14369e-08
-1.61795e-08
1.64872e-11
-2.10814e-08
-1.41624e-08
1.41119e-11
-1.25226e-08
-1.16096e-08
1.11516e-11
-6.04839e-09
-8.63127e-09
7.73962e-12
-1.80955e-09
-5.41694e-09
4.15504e-12
2.60107e-10
-2.28289e-09
1.34746e-12
5.53591e-10
2.46765e-10
3.51553e-13
1.20915e-09
-3.39257e-12
-5.07493e-10
-4.8493e-10
-2.87955e-12
-3.34839e-09
3.34574e-09
1.87537e-12
-9.13204e-09
9.15568e-09
-6.88346e-14
-1.80147e-08
1.54563e-08
-1.95263e-13
-2.98415e-08
2.14475e-08
-3.98599e-14
-4.42537e-08
2.66747e-08
-2.04296e-13
-6.07748e-08
3.09077e-08
-3.95629e-13
-7.88716e-08
3.40542e-08
-5.57681e-13
-9.79938e-08
3.61022e-08
-6.8874e-13
-1.17599e-07
3.70846e-08
-7.80151e-13
-1.37166e-07
3.7058e-08
-8.30075e-13
-1.56206e-07
3.60905e-08
-8.3969e-13
-1.74263e-07
3.42546e-08
-8.12251e-13
-1.90922e-07
3.16241e-08
-7.52636e-13
-2.05801e-07
2.82733e-08
-6.65707e-13
-2.18564e-07
2.42781e-08
-5.55989e-13
-2.28914e-07
1.9718e-08
-4.28001e-13
-2.36601e-07
1.4678e-08
-2.86199e-13
-2.41425e-07
9.25159e-09
-1.34776e-13
-2.43242e-07
3.54221e-09
2.21434e-14
-2.41969e-07
-2.335e-09
1.80111e-13
-2.3759e-07
-8.25278e-09
3.34016e-13
-2.3016e-07
-1.40722e-08
4.78483e-13
-2.19814e-07
-1.96441e-08
6.08526e-13
-2.06766e-07
-2.48122e-08
7.20058e-13
-1.91311e-07
-2.94167e-08
8.09816e-13
-1.73825e-07
-3.32997e-08
8.74914e-13
-1.54761e-07
-3.63111e-08
9.12311e-13
-1.34638e-07
-3.83153e-08
9.18586e-13
-1.14033e-07
-3.91985e-08
8.90184e-13
-9.35609e-08
-3.88769e-08
8.24375e-13
-7.38583e-08
-3.73046e-08
7.21207e-13
-5.55554e-08
-3.44829e-08
5.86761e-13
-3.92466e-08
-3.04717e-08
4.32993e-13
-2.54513e-08
-2.54051e-08
2.65915e-13
-1.4567e-08
-1.95158e-08
1.17839e-13
-6.80769e-09
-1.31764e-08
1.54374e-13
-2.12902e-09
-6.96173e-09
1.69547e-13
-1.43322e-10
-1.73831e-09
-6.15781e-13
1.06483e-09
1.02052e-12
-1.51676e-09
1.03871e-09
-6.8726e-12
-6.67701e-09
8.50071e-09
5.27968e-12
-1.57348e-08
1.82132e-08
2.41073e-13
-2.8659e-08
2.83804e-08
6.09168e-14
-4.51647e-08
3.79523e-08
9.61787e-13
-6.47823e-08
4.62911e-08
1.21994e-12
-8.69245e-08
5.30485e-08
1.36001e-12
-1.1094e-07
5.8068e-08
1.4689e-12
-1.36152e-07
6.13129e-08
1.5225e-12
-1.61888e-07
6.28192e-08
1.53149e-12
-1.87497e-07
6.26652e-08
1.50608e-12
-2.1236e-07
6.09522e-08
1.45302e-12
-2.359e-07
5.77929e-08
1.37638e-12
-2.57583e-07
5.33061e-08
1.27765e-12
-2.76925e-07
4.76143e-08
1.15756e-12
-2.93493e-07
4.08452e-08
1.01681e-12
-3.06909e-07
3.31335e-08
8.56031e-13
-3.16856e-07
2.46241e-08
6.76104e-13
-3.23081e-07
1.54761e-08
4.78638e-13
-3.25404e-07
5.86462e-09
2.66125e-13
-3.23722e-07
-4.0164e-09
4.16861e-14
-3.18021e-07
-1.39541e-08
-1.91428e-13
-3.08375e-07
-2.37173e-08
-4.29373e-13
-2.94959e-07
-3.30595e-08
-6.67127e-13
-2.78047e-07
-4.17235e-08
-8.97947e-13
-2.58015e-07
-4.94476e-08
-1.11347e-12
-2.35339e-07
-5.59742e-08
-1.30441e-12
-2.10589e-07
-6.10595e-08
-1.4616e-12
-1.84418e-07
-6.44847e-08
-1.57687e-12
-1.57547e-07
-6.60681e-08
-1.64365e-12
-1.30744e-07
-6.56779e-08
-1.65701e-12
-1.04801e-07
-6.32462e-08
-1.61248e-12
-8.0499e-08
-5.87835e-08
-1.5024e-12
-5.8573e-08
-5.23964e-08
-1.32096e-12
-3.96677e-08
-4.43094e-08
-1.09363e-12
-2.42868e-08
-3.48959e-08
-7.71155e-13
-1.27373e-08
-2.47259e-08
-2.92954e-15
-5.06884e-09
-1.46302e-08
4.69457e-14
-1.02147e-09
-5.78239e-09
-3.26516e-12
3.85683e-11
4.82895e-12
-2.52629e-09
3.57552e-09
-1.05189e-11
-1.00891e-08
1.60544e-08
9.19874e-12
-2.25307e-08
3.06545e-08
2.2545e-13
-3.95635e-08
4.5414e-08
-7.86215e-13
-6.07238e-08
5.91124e-08
1.27792e-13
-8.54054e-08
7.09726e-08
1.37817e-13
-1.12906e-07
8.05487e-08
6.65367e-14
-1.42465e-07
8.76272e-08
4.58875e-14
-1.73301e-07
9.21489e-08
2.09936e-14
-2.04635e-07
9.41533e-08
-4.36902e-15
-2.35711e-07
9.37411e-08
-2.29745e-14
-2.65808e-07
9.10491e-08
-3.18495e-14
-2.94249e-07
8.62345e-08
-3.02254e-14
-3.2041e-07
7.94667e-08
-1.952e-14
-3.4372e-07
7.0924e-08
-1.83842e-15
-3.63669e-07
6.07945e-08
2.0631e-14
-3.79813e-07
4.9278e-08
4.54529e-14
-3.9178e-07
3.65907e-08
7.01784e-14
-3.99273e-07
2.29689e-08
9.28308e-14
-4.02081e-07
8.67305e-09
1.12105e-13
-4.00087e-07
-6.01055e-09
1.27023e-13
-3.93273e-07
-2.07685e-08
1.36293e-13
-3.81728e-07
-3.52622e-08
1.38185e-13
-3.65656e-07
-4.91317e-08
1.3098e-13
-3.45377e-07
-6.20025e-08
1.13832e-13
-3.2133e-07
-7.34948e-08
8.7408e-14
-2.94069e-07
-8.32356e-08
5.41478e-14
-2.64256e-07
-9.08727e-08
1.78823e-14
-2.3265e-07
-9.60907e-08
-1.70101e-14
-2.00089e-07
-9.86289e-08
-4.6743e-14
-1.67467e-07
-9.82999e-08
-6.92392e-14
-1.35704e-07
-9.50091e-08
-8.37079e-14
-1.05711e-07
-8.87758e-08
-8.53793e-14
-7.83517e-08
-7.97559e-08
-7.28199e-14
-5.43922e-08
-6.82689e-08
-9.2266e-14
-3.44565e-08
-5.48316e-08
-4.28982e-14
-1.89776e-08
-4.02055e-08
7.01839e-13
-8.15277e-09
-2.5455e-08
2.39396e-14
-1.9191e-09
-1.20094e-08
-6.71289e-12
-1.88852e-09
8.02087e-12
-3.48318e-09
7.07281e-09
-1.4118e-11
-1.34086e-08
2.59667e-08
1.31038e-11
-2.92144e-08
4.64597e-08
5.06402e-13
-5.03296e-08
6.65302e-08
-1.05343e-12
-7.60808e-08
8.48635e-08
1.37506e-13
-1.05703e-07
1.00595e-07
1.34177e-13
-1.38367e-07
1.13213e-07
4.23826e-14
-1.73205e-07
1.22465e-07
3.39012e-14
-2.09338e-07
1.28281e-07
2.34175e-14
-2.45894e-07
1.3071e-07
1.0283e-14
-2.82031e-07
1.29878e-07
1.79224e-15
-3.16944e-07
1.25962e-07
5.81827e-17
-3.49878e-07
1.19168e-07
5.68786e-15
-3.80131e-07
1.0972e-07
1.77193e-14
-4.07067e-07
9.78595e-08
3.46222e-14
-4.30112e-07
8.384e-08
5.45378e-14
-4.48769e-07
6.79348e-08
7.51173e-14
-4.62618e-07
5.04393e-08
9.38811e-14
-4.71326e-07
3.16765e-08
1.08931e-13
-4.74654e-07
1.20013e-08
1.19335e-13
-4.72468e-07
-8.19667e-09
1.24867e-13
-4.64744e-07
-2.84924e-08
1.25276e-13
-4.51579e-07
-4.84278e-08
1.19712e-13
-4.33194e-07
-6.75169e-08
1.06719e-13
-4.09941e-07
-8.52549e-08
8.48624e-14
-3.82306e-07
-1.0113e-07
5.37334e-14
-3.50901e-07
-1.1464e-07
1.50649e-14
-3.16463e-07
-1.25311e-07
-2.68403e-14
-2.79835e-07
-1.32718e-07
-6.57844e-14
-2.41955e-07
-1.36509e-07
-9.54617e-14
-2.03824e-07
-1.36431e-07
-1.11868e-13
-1.66479e-07
-1.32354e-07
-1.14198e-13
-1.30954e-07
-1.24301e-07
-9.92869e-14
-9.82384e-08
-1.12471e-07
-7.28194e-14
-6.92326e-08
-9.72745e-08
-1.09657e-13
-4.47002e-08
-7.93639e-08
-6.95456e-14
-2.52297e-08
-5.96771e-08
9.32539e-13
-1.12012e-08
-3.94833e-08
-2.13903e-13
-2.7793e-09
-2.04212e-08
-1.01617e-11
-4.67913e-09
1.1325e-11
-4.37577e-09
1.14661e-08
-1.75768e-11
-1.6572e-08
3.81462e-08
1.67947e-11
-3.56554e-08
6.55423e-08
8.09458e-13
-6.07693e-08
9.16453e-08
-1.2474e-12
-9.10165e-08
1.15111e-07
2.20578e-13
-1.25458e-07
1.35036e-07
2.12507e-13
-1.63128e-07
1.50882e-07
1.06217e-13
-2.03046e-07
1.62383e-07
1.12356e-13
-2.44238e-07
1.69473e-07
1.17038e-13
-2.8575e-07
1.72222e-07
1.15833e-13
-3.26662e-07
1.7079e-07
1.16202e-13
-3.661e-07
1.654e-07
1.19132e-13
-4.03244e-07
1.56311e-07
1.24676e-13
-4.37332e-07
1.43809e-07
1.32184e-13
-4.67671e-07
1.28198e-07
1.40928e-13
-4.93638e-07
1.09807e-07
1.49791e-13
-5.14689e-07
8.89861e-08
1.56828e-13
-5.30366e-07
6.61157e-08
1.59675e-13
-5.40301e-07
4.16117e-08
1.56365e-13
-5.44231e-07
1.59304e-08
1.45932e-13
-5.41999e-07
-1.04283e-08
1.28503e-13
-5.33572e-07
-3.69196e-08
1.04878e-13
-5.19043e-07
-6.29569e-08
7.59123e-14
-4.98641e-07
-8.79185e-08
4.19677e-14
-4.72738e-07
-1.11158e-07
2.66235e-15
-4.41848e-07
-1.3202e-07
-4.26389e-14
-4.06629e-07
-1.4986e-07
-9.33638e-14
-3.67872e-07
-1.64068e-07
-1.46275e-13
-3.26495e-07
-1.74095e-07
-1.95169e-13
-2.8352e-07
-1.79484e-07
-2.32234e-13
-2.40048e-07
-1.79903e-07
-2.50865e-13
-1.97229e-07
-1.75173e-07
-2.47687e-13
-1.56221e-07
-1.65308e-07
-2.17867e-13
-1.18151e-07
-1.50541e-07
-1.72609e-13
-8.40658e-08
-1.3136e-07
-2.16186e-13
-5.48909e-08
-1.08539e-07
-1.71622e-13
-3.13948e-08
-8.31743e-08
1.09818e-12
-1.41619e-08
-5.67157e-08
-4.74984e-13
-3.5907e-09
-3.09789e-08
-1.34762e-11
-8.28436e-09
1.45238e-11
-5.20875e-09
1.66957e-08
-2.08516e-11
-1.95705e-08
5.24877e-08
2.02528e-11
-4.18171e-08
8.77877e-08
1.09079e-12
-7.08166e-08
1.20646e-07
-1.45e-12
-1.05446e-07
1.49739e-07
2.54368e-13
-1.44583e-07
1.74173e-07
2.16716e-13
-1.87118e-07
1.93417e-07
7.45462e-14
-2.31957e-07
2.07222e-07
7.67875e-14
-2.78028e-07
2.15545e-07
8.30404e-14
-3.243e-07
2.18493e-07
8.53672e-14
-3.69783e-07
2.16274e-07
9.12168e-14
-4.13544e-07
2.09161e-07
1.00209e-13
-4.54707e-07
1.97474e-07
1.11304e-13
-4.92463e-07
1.81564e-07
1.23462e-13
-5.26072e-07
1.61807e-07
1.3616e-13
-5.5487e-07
1.38605e-07
1.48731e-13
-5.78274e-07
1.1239e-07
1.59565e-13
-5.95791e-07
8.36324e-08
1.66422e-13
-6.07022e-07
5.28428e-08
1.67124e-13
-6.11675e-07
2.0583e-08
1.60077e-13
-6.09571e-07
-1.25321e-08
1.44549e-13
-6.00658e-07
-4.58331e-08
1.20817e-13
-5.85016e-07
-7.85987e-08
9.01199e-14
-5.62871e-07
-1.10063e-07
5.42066e-14
-5.34599e-07
-1.3943e-07
1.43417e-14
-5.00731e-07
-1.65888e-07
-2.92845e-14
-4.61952e-07
-1.88639e-07
-7.68034e-14
-4.191e-07
-2.0692e-07
-1.26973e-13
-3.73152e-07
-2.20042e-07
-1.75865e-13
-3.25209e-07
-2.27428e-07
-2.17118e-13
-2.76467e-07
-2.28644e-07
-2.43925e-13
-2.28191e-07
-2.23449e-07
-2.50609e-13
-1.81672e-07
-2.11827e-07
-2.28045e-13
-1.38185e-07
-1.94028e-07
-1.89003e-13
-9.8943e-08
-1.70601e-07
-2.64191e-13
-6.50556e-08
-1.42426e-07
-2.3999e-13
-3.7491e-08
-1.1074e-07
1.26768e-12
-1.70506e-08
-7.71554e-08
-7.27796e-13
-4.36412e-09
-4.36488e-08
-1.6661e-11
-1.26661e-08
1.76207e-11
-5.99155e-09
2.27112e-08
-2.3959e-11
-2.24175e-08
6.88902e-08
2.34954e-11
-4.77073e-08
1.13076e-07
1.35783e-12
-8.04687e-08
1.53409e-07
-1.63293e-12
-1.19356e-07
1.88626e-07
2.94235e-13
-1.63063e-07
2.17881e-07
2.26259e-13
-2.10333e-07
2.40687e-07
4.69223e-14
-2.59952e-07
2.56841e-07
4.23738e-14
-3.10756e-07
2.66349e-07
4.74319e-14
-3.61636e-07
2.69372e-07
5.08897e-14
-4.11539e-07
2.66177e-07
6.02145e-14
-4.59478e-07
2.571e-07
7.39106e-14
-5.04533e-07
2.42529e-07
9.00104e-14
-5.45852e-07
2.22884e-07
1.06924e-13
-5.82661e-07
1.98615e-07
1.24001e-13
-6.14259e-07
1.70203e-07
1.40788e-13
-6.40031e-07
1.38163e-07
1.56049e-13
-6.59451e-07
1.03053e-07
1.67914e-13
-6.72091e-07
6.54823e-08
1.7434e-13
-6.77627e-07
2.61185e-08
1.7337e-13
-6.75852e-07
-1.43073e-08
1.633e-13
-6.66686e-07
-5.49984e-08
1.4319e-13
-6.5019e-07
-9.5095e-08
1.13511e-13
-6.26571e-07
-1.33682e-07
7.63273e-14
-5.96197e-07
-1.69805e-07
3.43095e-14
-5.59599e-07
-2.02486e-07
-1.06224e-14
-5.1748e-07
-2.30757e-07
-5.77704e-14
-4.70709e-07
-2.53691e-07
-1.06597e-13
-4.20314e-07
-2.70437e-07
-1.55095e-13
-3.67467e-07
-2.80274e-07
-1.99131e-13
-3.13463e-07
-2.82649e-07
-2.33561e-13
-2.59683e-07
-2.77228e-07
-2.52629e-13
-2.07563e-07
-2.63947e-07
-2.43619e-13
-1.58542e-07
-2.43048e-07
-2.18711e-13
-1.14021e-07
-2.15122e-07
-3.31341e-13
-7.53104e-08
-1.81136e-07
-3.2945e-13
-4.35993e-08
-1.42453e-07
1.41569e-12
-1.99163e-08
-1.00837e-07
-9.80838e-13
-5.11887e-09
-5.84264e-08
-1.97639e-11
-1.78057e-08
2.06831e-11
-6.73376e-09
2.94719e-08
-2.69226e-11
-2.51336e-08
8.72634e-08
2.65531e-11
-5.33519e-08
1.41293e-07
1.60708e-12
-8.97509e-08
1.8981e-07
-1.80275e-12
-1.32769e-07
2.31643e-07
3.38569e-13
-1.80919e-07
2.66031e-07
2.42552e-13
-2.32795e-07
2.92563e-07
2.74278e-14
-2.87065e-07
3.1111e-07
1.55725e-14
-3.4247e-07
3.21754e-07
1.84246e-14
-3.97827e-07
3.24729e-07
2.17362e-14
-4.52026e-07
3.20375e-07
3.29809e-14
-5.04032e-07
3.09106e-07
4.98337e-14
-5.52886e-07
2.91383e-07
6.9755e-14
-5.97705e-07
2.67702e-07
9.07281e-14
-6.37682e-07
2.38591e-07
1.11745e-13
-6.72089e-07
2.0461e-07
1.32252e-13
-7.00283e-07
1.66356e-07
1.51232e-13
-7.21707e-07
1.24477e-07
1.67222e-13
-7.35902e-07
7.96767e-08
1.78601e-13
-7.4251e-07
3.27272e-08
1.83545e-13
-7.41292e-07
-1.55255e-08
1.79867e-13
-7.32133e-07
-6.41576e-08
1.6547e-13
-7.15059e-07
-1.1217e-07
1.39362e-13
-6.90248e-07
-1.58494e-07
1.02601e-13
-6.58043e-07
-2.02009e-07
5.80251e-14
-6.18966e-07
-2.41563e-07
8.8842e-15
-5.73719e-07
-2.76005e-07
-4.2489e-14
-5.23189e-07
-3.0422e-07
-9.47271e-14
-4.68447e-07
-3.25179e-07
-1.46194e-13
-4.10734e-07
-3.37987e-07
-1.93997e-13
-3.51437e-07
-3.41945e-07
-2.3482e-13
-2.92066e-07
-3.36599e-07
-2.64601e-13
-2.3421e-07
-3.21803e-07
-2.6956e-13
-1.7949e-07
-2.97767e-07
-2.61964e-13
-1.29514e-07
-2.65098e-07
-4.15956e-13
-8.58193e-08
-2.2483e-07
-4.3759e-13
-4.98325e-08
-1.78441e-07
1.5509e-12
-2.28228e-08
-1.27846e-07
-1.2361e-12
-5.87707e-09
-7.53493e-08
-2.28643e-11
-2.37066e-08
2.37857e-11
-7.44362e-09
3.69453e-08
-2.97645e-11
-2.77391e-08
1.07529e-07
2.94615e-11
-5.87806e-08
1.72332e-07
1.83917e-12
-9.86975e-08
2.29729e-07
-1.96614e-12
-1.4572e-07
2.78666e-07
3.81562e-13
-1.98184e-07
3.18494e-07
2.59161e-13
-2.54534e-07
3.48914e-07
9.19203e-15
-3.13323e-07
3.69899e-07
-1.07095e-14
-3.73199e-07
3.8163e-07
-1.12819e-14
-4.32908e-07
3.84438e-07
-9.4644e-15
-4.91287e-07
3.78754e-07
2.34161e-15
-5.4726e-07
3.6508e-07
2.10316e-14
-5.99836e-07
3.43959e-07
4.37347e-14
-6.48105e-07
3.15971e-07
6.81685e-14
-6.91237e-07
2.81723e-07
9.29188e-14
-7.28482e-07
2.41855e-07
1.17136e-13
-7.59171e-07
1.97045e-07
1.39779e-13
-7.82722e-07
1.48027e-07
1.59643e-13
-7.98642e-07
9.55964e-08
1.75578e-13
-8.06539e-07
4.06242e-08
1.86244e-13
-8.06132e-07
-1.59324e-08
1.89586e-13
-7.97264e-07
-7.30261e-08
1.82888e-13
-7.79915e-07
-1.29519e-07
1.63685e-13
-7.5422e-07
-1.84189e-07
1.31195e-13
-7.20485e-07
-2.35744e-07
8.6985e-14
-6.792e-07
-2.82848e-07
3.43823e-14
-6.31054e-07
-3.24151e-07
-2.30075e-14
-5.76941e-07
-3.58333e-07
-8.22765e-14
-5.1796e-07
-3.84159e-07
-1.40872e-13
-4.55413e-07
-4.00534e-07
-1.95761e-13
-3.90784e-07
-4.06574e-07
-2.44348e-13
-3.2571e-07
-4.01672e-07
-2.84158e-13
-2.61949e-07
-3.85564e-07
-3.01745e-13
-2.01323e-07
-3.58393e-07
-3.11311e-13
-1.45667e-07
-3.20753e-07
-5.0847e-13
-9.67699e-08
-2.73726e-07
-5.54538e-13
-5.63182e-08
-2.18894e-07
1.68752e-12
-2.58398e-08
-1.58323e-07
-1.49646e-12
-6.66122e-09
-9.45019e-08
-2.60536e-11
-3.03948e-08
2.70089e-11
-8.12757e-09
4.51054e-08
-3.25059e-11
-3.02517e-08
1.29621e-07
3.22507e-11
-6.40205e-08
2.06099e-07
2.05696e-12
-1.07341e-07
2.73051e-07
-2.12569e-12
-1.58242e-07
3.29566e-07
4.22081e-13
-2.14884e-07
3.75137e-07
2.75002e-13
-2.75571e-07
4.096e-07
-8.68674e-15
-3.38737e-07
4.33065e-07
-3.71043e-14
-4.02944e-07
4.45837e-07
-4.22321e-14
-4.66869e-07
4.48364e-07
-4.32448e-14
-5.29303e-07
4.41188e-07
-3.21011e-14
-5.89134e-07
4.2491e-07
-1.26576e-14
-6.45346e-07
4.00171e-07
1.19081e-14
-6.97011e-07
3.67636e-07
3.91804e-14
-7.43282e-07
3.27995e-07
6.74016e-14
-7.83393e-07
2.81966e-07
9.52902e-14
-8.16656e-07
2.30308e-07
1.2157e-13
-8.42463e-07
1.73834e-07
1.45041e-13
-8.60291e-07
1.13424e-07
1.6487e-13
-8.69709e-07
5.0042e-08
1.80333e-13
-8.7039e-07
-1.52511e-08
1.90021e-13
-8.62126e-07
-8.1291e-08
1.91351e-13
-8.44839e-07
-1.46806e-07
1.80966e-13
-8.18608e-07
-2.1042e-07
1.56187e-13
-7.83682e-07
-2.7067e-07
1.16385e-13
-7.40507e-07
-3.26024e-07
6.34315e-14
-6.89736e-07
-3.74922e-07
9.22741e-16
-6.32252e-07
-4.15817e-07
-6.70414e-14
-5.69173e-07
-4.47238e-07
-1.36398e-13
-5.0185e-07
-4.67857e-07
-2.02907e-13
-4.31857e-07
-4.76566e-07
-2.63337e-13
-3.60969e-07
-4.7256e-07
-3.1539e-13
-2.91116e-07
-4.55416e-07
-3.45308e-13
-2.24343e-07
-4.25167e-07
-3.70192e-13
-1.62734e-07
-3.82361e-07
-6.09602e-13
-1.08358e-07
-3.28103e-07
-6.78125e-13
-6.31884e-08
-2.64065e-07
1.83559e-12
-2.90382e-08
-1.92471e-07
-1.76634e-12
-7.4934e-09
-1.16017e-07
-2.94235e-11
-3.79186e-08
3.04367e-11
-8.79035e-09
5.39309e-08
-3.51645e-11
-3.26848e-08
1.53481e-07
3.49445e-11
-6.90936e-08
2.42506e-07
2.26392e-12
-1.15707e-07
3.19668e-07
-2.28214e-12
-1.70359e-07
3.84217e-07
4.60203e-13
-2.31039e-07
4.35816e-07
2.89566e-13
-2.9591e-07
4.74471e-07
-2.70071e-14
-3.63294e-07
5.00449e-07
-6.43087e-14
-4.31669e-07
5.14211e-07
-7.49933e-14
-4.99651e-07
5.16346e-07
-8.0185e-14
-5.65987e-07
5.07523e-07
-7.10369e-14
-6.29539e-07
4.88463e-07
-5.20432e-14
-6.89275e-07
4.59907e-07
-2.66715e-14
-7.44256e-07
4.22617e-07
2.67204e-15
-7.93628e-07
3.77366e-07
3.39938e-14
-8.36614e-07
3.24952e-07
6.56024e-14
-8.72514e-07
2.66208e-07
9.58314e-14
-9.00698e-07
2.02018e-07
1.23205e-13
-9.20614e-07
1.3334e-07
1.46846e-13
-9.31792e-07
6.12201e-08
1.66382e-13
-9.33856e-07
-1.3188e-08
1.81138e-13
-9.26534e-07
-8.86124e-08
1.89288e-13
-9.09685e-07
-1.63655e-07
1.87535e-13
-8.83312e-07
-2.36793e-07
1.72101e-13
-8.47592e-07
-3.06389e-07
1.4016e-13
-8.02903e-07
-3.70713e-07
9.10682e-14
-7.49846e-07
-4.27979e-07
2.67202e-14
-6.89271e-07
-4.76392e-07
-4.89516e-14
-6.22293e-07
-5.14216e-07
-1.30777e-13
-5.50301e-07
-5.39849e-07
-2.12831e-13
-4.74952e-07
-5.51915e-07
-2.90229e-13
-3.98152e-07
-5.49359e-07
-3.59208e-13
-3.22022e-07
-5.31546e-07
-4.03784e-13
-2.48837e-07
-4.98351e-07
-4.43456e-13
-1.80964e-07
-4.50234e-07
-7.2445e-13
-1.20776e-07
-3.88289e-07
-8.11973e-13
-7.05746e-08
-3.14269e-07
2.0003e-12
-3.24879e-08
-2.30556e-07
-2.05199e-12
-8.39493e-09
-1.40077e-07
-3.30633e-11
-4.63477e-08
3.41544e-11
-9.43539e-09
6.3404e-08
-3.77551e-11
-3.5049e-08
1.79057e-07
3.75616e-11
-7.40168e-08
2.81471e-07
2.46383e-12
-1.23817e-07
3.6947e-07
-2.43496e-12
-1.82088e-07
4.42487e-07
4.96756e-13
-2.46653e-07
5.00382e-07
3.0272e-13
-3.15537e-07
5.43355e-07
-4.67375e-14
-3.86954e-07
5.71867e-07
-9.34694e-14
-4.59301e-07
5.86558e-07
-1.10505e-13
-5.3114e-07
5.88185e-07
-1.21089e-13
-6.01182e-07
5.77566e-07
-1.15365e-13
-6.68274e-07
5.55554e-07
-9.83222e-14
-7.31374e-07
5.23008e-07
-7.36524e-14
-7.89545e-07
4.80788e-07
-4.35557e-14
-8.41933e-07
4.29755e-07
-9.99206e-15
-8.87763e-07
3.70782e-07
2.50936e-14
-9.26327e-07
3.04772e-07
5.96664e-14
-9.56983e-07
2.32673e-07
9.18375e-14
-9.79152e-07
1.55508e-07
1.20312e-13
-9.92324e-07
7.43928e-08
1.44511e-13
-9.96071e-07
-9.44124e-09
1.63994e-13
-9.90056e-07
-9.46278e-08
1.77709e-13
-9.74056e-07
-1.79655e-07
1.83012e-13
-9.47988e-07
-2.62861e-07
1.76194e-13
-9.11938e-07
-3.4244e-07
1.53273e-13
-8.66192e-07
-4.1646e-07
1.1127e-13
-8.11273e-07
-4.82898e-07
4.93294e-14
-7.47974e-07
-5.39691e-07
-3.05857e-14
-6.77384e-07
-5.84806e-07
-1.23698e-13
-6.00908e-07
-6.16325e-07
-2.23002e-13
-5.20272e-07
-6.32551e-07
-3.21664e-13
-4.3751e-07
-6.3212e-07
-4.13276e-13
-3.54934e-07
-6.14122e-07
-4.77462e-13
-2.7507e-07
-5.78214e-07
-5.34556e-13
-2.0059e-07
-5.24713e-07
-8.59629e-13
-1.34213e-07
-4.54665e-07
-9.63847e-13
-7.86043e-08
-3.6988e-07
2.1818e-12
-3.6257e-08
-2.72901e-07
-2.36257e-12
-9.38652e-09
-1.66911e-07
-3.70599e-11
-5.57724e-08
3.8247e-11
-1.00653e-08
7.35096e-08
-4.03121e-11
-3.73526e-08
2.06304e-07
4.01133e-11
-7.88036e-08
3.22919e-07
2.66014e-12
-1.31683e-07
4.22352e-07
-2.58327e-12
-1.93436e-07
5.0424e-07
5.32844e-13
-2.61719e-07
5.68664e-07
3.14625e-13
-3.3442e-07
6.16055e-07
-6.87314e-14
-4.09648e-07
6.47096e-07
-1.25928e-13
-4.85727e-07
6.62637e-07
-1.5006e-13
-5.6117e-07
6.63628e-07
-1.66917e-13
-6.34665e-07
6.51061e-07
-1.65792e-13
-7.05049e-07
6.25938e-07
-1.52202e-13
-7.71287e-07
5.89246e-07
-1.30023e-13
-8.32452e-07
5.41953e-07
-1.01061e-13
-8.87706e-07
4.85009e-07
-6.68972e-14
-9.36285e-07
4.19361e-07
-2.9349e-14
-9.77486e-07
3.45973e-07
9.39872e-15
-1.01066e-06
2.65847e-07
4.71141e-14
-1.03521e-06
1.80058e-07
8.19742e-14
-1.05059e-06
8.97729e-08
1.12729e-13
-1.05632e-06
-3.71368e-09
1.38443e-13
-1.05199e-06
-9.89605e-08
1.58209e-13
-1.03728e-06
-1.94359e-07
1.69726e-13
-1.01202e-06
-2.88122e-07
1.69911e-13
-9.76177e-07
-3.78284e-07
1.54878e-13
-9.29922e-07
-4.62715e-07
1.20577e-13
-8.73672e-07
-5.39148e-07
6.38211e-14
-8.08131e-07
-6.05232e-07
-1.6337e-14
-7.34331e-07
-6.58606e-07
-1.17345e-13
-6.53665e-07
-6.96991e-07
-2.32812e-13
-5.67907e-07
-7.18309e-07
-3.54841e-13
-4.79205e-07
-7.20821e-07
-4.74137e-13
-3.9006e-07
-7.03267e-07
-5.64305e-13
-3.03265e-07
-6.65008e-07
-6.44714e-13
-2.21824e-07
-6.06152e-07
-1.02088e-12
-1.48842e-07
-5.27647e-07
-1.14266e-12
-8.73999e-08
-4.31325e-07
2.37724e-12
-4.04116e-08
-3.19886e-07
-2.71039e-12
-1.04884e-08
-1.96792e-07
-4.14997e-11
-6.63036e-08
4.27993e-11
-1.06825e-08
8.42346e-08
-4.24954e-11
-3.96034e-08
2.35183e-07
4.26055e-11
-8.3467e-08
3.6678e-07
2.8585e-12
-1.3932e-07
4.78208e-07
-2.72455e-12
-2.0441e-07
5.6933e-07
5.70742e-13
-2.76224e-07
6.40478e-07
3.26504e-13
-3.52514e-07
6.92345e-07
-9.29804e-14
-4.31288e-07
7.2587e-07
-1.62657e-13
-5.10801e-07
7.4215e-07
-1.95141e-13
-5.89528e-07
7.42355e-07
-2.19064e-13
-6.66143e-07
7.27676e-07
-2.23301e-13
-7.39487e-07
6.99283e-07
-2.14146e-13
-8.08547e-07
6.58306e-07
-1.95889e-13
-8.72421e-07
6.05827e-07
-1.69993e-13
-9.303e-07
5.42889e-07
-1.37401e-13
-9.81446e-07
4.70508e-07
-9.93292e-14
-1.02518e-06
3.89702e-07
-5.76443e-14
-1.06084e-06
3.01517e-07
-1.465e-14
-1.08785e-06
2.07059e-07
2.74326e-14
-1.10561e-06
1.07533e-07
6.6677e-14
-1.11359e-06
4.27121e-09
1.01376e-13
-1.11132e-06
-1.01232e-07
1.29497e-13
-1.09839e-06
-2.07293e-07
1.48739e-13
-1.07449e-06
-3.1202e-07
1.56029e-13
-1.03947e-06
-4.13306e-07
1.47814e-13
-9.93355e-07
-5.08827e-07
1.20135e-13
-9.36429e-07
-5.96074e-07
6.88354e-14
-8.69266e-07
-6.72395e-07
-9.39025e-15
-7.92804e-07
-7.35068e-07
-1.15035e-13
-7.08386e-07
-7.81408e-07
-2.44087e-13
-6.17799e-07
-8.08896e-07
-3.89355e-13
-5.23286e-07
-8.15334e-07
-5.39626e-13
-4.27529e-07
-7.99024e-07
-6.61936e-13
-3.33595e-07
-7.58941e-07
-7.73402e-13
-2.44848e-07
-6.94898e-07
-1.21167e-12
-1.64822e-07
-6.07671e-07
-1.35568e-12
-9.70772e-08
-4.99072e-07
2.58359e-12
-4.50162e-08
-3.71944e-07
-3.10989e-12
-1.17206e-08
-2.30042e-07
-4.64705e-11
-7.80722e-08
4.78957e-11
-1.12898e-08
9.55696e-08
-4.52435e-11
-4.18118e-08
2.6566e-07
4.51198e-11
-8.80244e-08
4.1299e-07
3.07181e-12
-1.46747e-07
5.36933e-07
-2.85281e-12
-2.1502e-07
6.37603e-07
6.14783e-13
-2.90157e-07
7.15614e-07
3.40945e-13
-3.6977e-07
7.71958e-07
-1.18337e-13
-4.5177e-07
8.07871e-07
-2.03879e-13
-5.34349e-07
8.2473e-07
-2.47091e-13
-6.15955e-07
8.23962e-07
-2.79387e-13
-6.9526e-07
8.06982e-07
-2.89588e-13
-7.71129e-07
7.75152e-07
-2.85133e-13
-8.42582e-07
7.29759e-07
-2.71208e-13
-9.08763e-07
6.72008e-07
-2.494e-13
-9.68911e-07
6.03037e-07
-2.20176e-13
-1.02233e-06
5.23928e-07
-1.83857e-13
-1.06837e-06
4.35746e-07
-1.41457e-13
-1.10642e-06
3.39562e-07
-9.48267e-14
-1.13586e-06
2.36503e-07
-4.62432e-14
-1.15611e-06
1.27782e-07
1.94096e-15
-1.16659e-06
1.47487e-08
4.73287e-14
-1.16674e-06
-1.01078e-07
8.68119e-14
-1.15607e-06
-2.17969e-07
1.17194e-13
-1.13413e-06
-3.33956e-07
1.34463e-13
-1.10063e-06
-4.46809e-07
1.34579e-13
-1.05542e-06
-5.54034e-07
1.13581e-13
-9.98614e-07
-6.52883e-07
6.72037e-14
-9.30612e-07
-7.40396e-07
-9.00253e-15
-8.52212e-07
-8.13469e-07
-1.18023e-13
-7.64658e-07
-8.68962e-07
-2.58916e-13
-6.69709e-07
-9.03845e-07
-4.26738e-13
-5.69665e-07
-9.15377e-07
-6.09988e-13
-4.67369e-07
-9.01318e-07
-7.69641e-13
-3.66166e-07
-8.60143e-07
-9.20327e-13
-2.69803e-07
-7.9126e-07
-1.43434e-12
-1.82294e-07
-6.95178e-07
-1.60844e-12
-1.07745e-07
-5.73625e-07
2.79895e-12
-5.01331e-08
-4.29552e-07
-3.5765e-12
-1.31032e-08
-2.67019e-07
-5.20631e-11
-9.1229e-08
5.36212e-11
-1.18918e-08
1.07509e-07
-4.76538e-11
-4.39932e-08
2.97713e-07
4.76217e-11
-9.25023e-08
4.61495e-07
3.30204e-12
-1.53994e-07
5.98428e-07
-2.96688e-12
-2.2529e-07
7.08897e-07
6.68293e-13
-3.03514e-07
7.93839e-07
3.60614e-13
-3.8614e-07
8.54584e-07
-1.43325e-13
-4.70982e-07
8.92712e-07
-2.49399e-13
-5.56176e-07
9.09924e-07
-3.06984e-13
-6.40155e-07
9.07941e-07
-3.49933e-13
-7.21606e-07
8.88434e-07
-3.6707e-13
-7.99435e-07
8.52981e-07
-3.67212e-13
-8.72717e-07
8.03041e-07
-3.56915e-13
-9.40664e-07
7.39956e-07
-3.38606e-13
-1.00258e-06
6.64955e-07
-3.12964e-13
-1.05784e-06
5.7919e-07
-2.79698e-13
-1.10585e-06
4.83756e-07
-2.38725e-13
-1.14603e-06
3.79742e-07
-1.90915e-13
-1.1778e-06
2.68269e-07
-1.38026e-13
-1.20056e-06
1.5054e-07
-8.23762e-14
-1.2137e-06
2.7888e-08
-2.66504e-14
-1.2166e-06
-9.81738e-08
2.5733e-14
-1.20867e-06
-2.25905e-07
7.04158e-14
-1.18933e-06
-3.53294e-07
1.01953e-13
-1.15811e-06
-4.78026e-07
1.14702e-13
-1.11468e-06
-5.97461e-07
1.0351e-13
-1.05894e-06
-7.08631e-07
6.34826e-14
-9.91063e-07
-8.0827e-07
-1.05306e-14
-9.11656e-07
-8.92875e-07
-1.23148e-13
-8.21805e-07
-9.58812e-07
-2.76064e-13
-7.23177e-07
-1.00247e-06
-4.67177e-13
-6.18079e-07
-1.02047e-06
-6.85969e-13
-5.09485e-07
-1.00991e-06
-8.88275e-13
-4.01003e-07
-9.68625e-07
-1.08689e-12
-2.96784e-07
-8.95476e-07
-1.69246e-12
-2.01374e-07
-7.90587e-07
-1.90689e-12
-1.19502e-07
-6.55499e-07
3.02158e-12
-5.58237e-08
-4.93227e-07
-4.12668e-12
-1.46566e-08
-3.08128e-07
-5.83724e-11
-1.05946e-07
6.0063e-11
-1.24958e-08
1.20055e-07
-5.01113e-11
-4.61719e-08
3.31339e-07
5.01621e-11
-9.69437e-08
5.12264e-07
3.55914e-12
-1.61116e-07
6.62603e-07
-3.06309e-12
-2.35266e-07
7.83046e-07
7.35763e-13
-3.16318e-07
8.74891e-07
3.88011e-13
-4.01596e-07
9.39862e-07
-1.66958e-13
-4.88817e-07
9.79934e-07
-2.9925e-13
-5.76075e-07
9.97182e-07
-3.75801e-13
-6.618e-07
9.93666e-07
-4.32561e-13
-7.44716e-07
9.7135e-07
-4.58212e-13
-8.23788e-07
9.32054e-07
-4.63024e-13
-8.98176e-07
8.77429e-07
-4.55124e-13
-9.67179e-07
8.0896e-07
-4.38353e-13
-1.0302e-06
7.27977e-07
-4.14461e-13
-1.0867e-06
6.35691e-07
-3.83364e-13
-1.13617e-06
5.33224e-07
-3.44295e-13
-1.17809e-06
4.21662e-07
-2.97023e-13
-1.21192e-06
3.02101e-07
-2.42303e-13
-1.23709e-06
1.75706e-07
-1.81774e-13
-1.25296e-06
4.37638e-08
-1.1773e-13
-1.25888e-06
-9.22567e-08
-5.33352e-14
-1.25414e-06
-2.30644e-07
6.72481e-15
-1.23805e-06
-3.69387e-07
5.58671e-14
-1.20994e-06
-5.06129e-07
8.63604e-14
-1.16928e-06
-6.38123e-07
9.05767e-14
-1.1157e-06
-7.62213e-07
6.15047e-14
-1.04912e-06
-8.74847e-07
-7.63325e-15
-9.6988e-07
-9.72116e-07
-1.23168e-13
-8.78831e-07
-1.04986e-06
-2.89094e-13
-7.77474e-07
-1.10383e-06
-5.06072e-13
-6.68057e-07
-1.12989e-06
-7.65156e-13
-5.53626e-07
-1.12434e-06
-1.0176e-12
-4.38027e-07
-1.08422e-06
-1.27526e-12
-3.25827e-07
-1.00767e-06
-1.99174e-12
-2.2215e-07
-8.94261e-07
-2.25978e-12
-1.32441e-07
-7.45212e-07
3.24752e-12
-6.21482e-08
-5.63515e-07
-4.77956e-12
-1.64019e-08
-3.53809e-07
-6.54995e-11
-1.22415e-07
6.73127e-11
-1.3113e-08
1.33221e-07
-5.26445e-11
-4.8386e-08
3.66559e-07
5.28088e-11
-1.01416e-07
5.6529e-07
3.85965e-12
-1.68199e-07
7.29389e-07
-3.13604e-12
-2.45035e-07
8.59881e-07
8.22608e-13
-3.28625e-07
9.58481e-07
4.24941e-13
-4.16134e-07
1.02737e-06
-1.89794e-13
-5.05185e-07
1.06899e-06
-3.54779e-13
-5.93837e-07
1.08584e-06
-4.55081e-13
-6.8054e-07
1.08037e-06
-5.28902e-13
-7.64076e-07
1.05489e-06
-5.64738e-13
-8.435e-07
1.01148e-06
-5.74401e-13
-9.1808e-07
9.5201e-07
-5.67678e-13
-9.87238e-07
8.78118e-07
-5.50033e-13
-1.0505e-06
7.91239e-07
-5.24809e-13
-1.10744e-06
6.92636e-07
-4.92902e-13
-1.15767e-06
5.8345e-07
-4.53654e-13
-1.20075e-06
4.64745e-07
-4.06295e-13
-1.23623e-06
3.37574e-07
-3.50633e-13
-1.26355e-06
2.03032e-07
-2.87256e-13
-1.28211e-06
6.2325e-08
-2.17436e-13
-1.29121e-06
-8.31601e-08
-1.43385e-13
-1.29006e-06
-2.31788e-07
-6.91212e-14
-1.27785e-06
-3.81601e-07
-1.38846e-15
-1.25373e-06
-5.30251e-07
5.05144e-14
-1.21691e-06