/*--------------------------------*- C++ -*----------------------------------*\
  =========                 |
  \\      /  F ield         | OpenFOAM: The Open Source CFD Toolbox
   \\    /   O peration     | Website:  https://openfoam.org
    \\  /    A nd           | Version:  9
     \\/     M anipulation  |
\*---------------------------------------------------------------------------*/
FoamFile
{
    format      ascii;
    class       surfaceScalarField;
    location    "2.76";
    object      phi;
}
// * * * * * * * * * * * * * * * * * * * * * * * * * * * * * * * * * * * * * //

dimensions      [0 3 -1 0 0 0 0];

internalField   nonuniform List<scalar> 
4432
(
9.29115e-07
-9.29115e-07
1.64875e-06
-7.19634e-07
2.15845e-06
-5.09693e-07
2.53847e-06
-3.80022e-07
2.83984e-06
-3.01365e-07
3.0836e-06
-2.43754e-07
3.277e-06
-1.93397e-07
3.42299e-06
-1.45991e-07
3.52488e-06
-1.01887e-07
3.58681e-06
-6.19306e-08
3.61299e-06
-2.61816e-08
3.61027e-06
2.71302e-09
3.59123e-06
1.90447e-08
3.58279e-06
8.43454e-09
3.61941e-06
-3.66241e-08
3.72533e-06
-1.05924e-07
3.64994e-06
7.53962e-08
3.05331e-06
5.96627e-07
2.32887e-06
7.24438e-07
1.95713e-06
3.71737e-07
1.94222e-06
1.49007e-08
1.43848e-06
5.03744e-07
1.43848e-06
8.30952e-07
-1.76007e-06
1.4431e-06
-1.33177e-06
1.95294e-06
-1.01953e-06
2.38955e-06
-8.16628e-07
2.75926e-06
-6.71064e-07
3.0667e-06
-5.51199e-07
3.31508e-06
-4.41775e-07
3.50759e-06
-3.38495e-07
3.64707e-06
-2.41365e-07
3.73624e-06
-1.51106e-07
3.77777e-06
-6.77163e-08
3.77476e-06
5.72289e-09
3.73541e-06
5.83915e-08
3.66979e-06
7.40532e-08
3.58606e-06
4.71001e-08
3.45916e-06
2.09773e-08
3.23073e-06
3.03824e-07
2.86697e-06
9.60384e-07
2.44309e-06
1.14831e-06
2.0037e-06
8.11123e-07
1.64245e-06
3.76157e-07
1.20107e-06
9.45119e-07
2.63955e-06
7.49774e-07
-2.50984e-06
1.33419e-06
-1.91618e-06
1.85691e-06
-1.54225e-06
2.32992e-06
-1.28963e-06
2.74259e-06
-1.08373e-06
3.09039e-06
-8.99006e-07
3.37335e-06
-7.24731e-07
3.59337e-06
-5.58513e-07
3.75257e-06
-4.00563e-07
3.85272e-06
-2.51258e-07
3.89515e-06
-1.10146e-07
3.8813e-06
1.95725e-08
3.8151e-06
1.24597e-07
3.69934e-06
1.8982e-07
3.52857e-06
2.17871e-07
3.27981e-06
2.69739e-07
2.98561e-06
5.98027e-07
2.69775e-06
1.24824e-06
2.35949e-06
1.48658e-06
1.96759e-06
1.20302e-06
1.47197e-06
8.71768e-07
9.45693e-07
1.47139e-06
3.58523e-06
6.76217e-07
-3.18605e-06
1.26768e-06
-2.50764e-06
1.81801e-06
-2.09258e-06
2.32539e-06
-1.79701e-06
2.77363e-06
-1.53197e-06
3.15378e-06
-1.27915e-06
3.46351e-06
-1.03447e-06
3.70359e-06
-7.98585e-07
3.87527e-06
-5.72246e-07
3.97951e-06
-3.55496e-07
4.01661e-06
-1.47251e-07
3.98663e-06
4.9554e-08
3.89118e-06
2.20054e-07
3.73023e-06
3.50767e-07
3.4965e-06
4.51603e-07
3.17846e-06
5.8778e-07
2.835e-06
9.41488e-07
2.55938e-06
1.52386e-06
2.26177e-06
1.78419e-06
1.86904e-06
1.59575e-06
1.31319e-06
1.42762e-06
7.41707e-07
2.04287e-06
4.32695e-06
6.23783e-07
-3.80984e-06
1.23794e-06
-3.12179e-06
1.82324e-06
-2.67788e-06
2.36489e-06
-2.33866e-06
2.84484e-06
-2.01192e-06
3.25235e-06
-1.68666e-06
3.58378e-06
-1.3659e-06
3.83896e-06
-1.05376e-06
4.01827e-06
-7.51563e-07
4.12191e-06
-4.5913e-07
4.14934e-06
-1.74689e-07
4.09961e-06
9.92805e-08
3.97361e-06
3.46057e-07
3.77174e-06
5.52631e-07
3.49025e-06
7.33095e-07
3.13084e-06
9.4719e-07
2.75284e-06
1.31948e-06
2.44797e-06
1.82874e-06
2.14372e-06
2.08844e-06
1.72091e-06
2.01856e-06
1.14932e-06
1.99921e-06
5.5954e-07
2.63266e-06
4.8865e-06
5.99293e-07
-4.40913e-06
1.24596e-06
-3.76846e-06
1.86836e-06
-3.30028e-06
2.44283e-06
-2.91313e-06
2.9509e-06
-2.51999e-06
3.38138e-06
-2.11714e-06
3.7301e-06
-1.71462e-06
3.99616e-06
-1.31982e-06
4.17908e-06
-9.3448e-07
4.2783e-06
-5.58346e-07
4.29268e-06
-1.89065e-07
4.2206e-06
1.71355e-07
4.06342e-06
5.03243e-07
3.82389e-06
7.92167e-07
3.50363e-06
1.05335e-06
3.11323e-06
1.33759e-06
2.70859e-06
1.72412e-06
2.35924e-06
2.17809e-06
2.01169e-06
2.43599e-06
1.56805e-06
2.46219e-06
9.9719e-07
2.57006e-06
3.95869e-07
3.23398e-06
5.28235e-06
6.05214e-07
-5.01435e-06
1.29096e-06
-4.4542e-06
1.94914e-06
-3.95847e-06
2.55309e-06
-3.51707e-06
3.08504e-06
-3.05195e-06
3.53402e-06
-2.56612e-06
3.89575e-06
-2.07636e-06
4.16884e-06
-1.5929e-06
4.35181e-06
-1.11746e-06
4.44345e-06
-6.49975e-07
4.44215e-06
-1.87765e-07
4.34602e-06
2.67495e-07
4.15757e-06
6.91688e-07
3.8828e-06
1.06694e-06
3.52851e-06
1.40764e-06
3.11044e-06
1.75566e-06
2.67715e-06
2.1574e-06
2.28202e-06
2.57321e-06
1.89077e-06
2.82724e-06
1.43412e-06
2.91884e-06
8.84263e-07
3.11992e-06
2.76693e-07
3.84155e-06
5.55904e-06
6.42701e-07
-5.65705e-06
1.36855e-06
-5.18005e-06
2.05812e-06
-4.64803e-06
2.68644e-06
-4.1454e-06
3.23729e-06
-3.60279e-06
3.69996e-06
-3.02879e-06
4.07048e-06
-2.44687e-06
4.34701e-06
-1.86943e-06
4.527e-06
-1.29745e-06
4.60855e-06
-7.31519e-07
4.58986e-06
-1.69081e-07
4.46898e-06
3.88376e-07
4.24997e-06
9.10688e-07
3.94233e-06
1.37458e-06
3.5571e-06
1.79286e-06
3.1123e-06
2.20046e-06
2.64963e-06
2.62007e-06
2.21315e-06
3.00969e-06
1.7863e-06
3.25409e-06
1.33036e-06
3.37478e-06
8.35932e-07
3.61435e-06
3.40323e-07
4.33715e-06
5.89937e-06
7.42629e-07
-7.42629e-07
2.12041e-06
-1.37778e-06
2.89395e-06
-7.73533e-07
2.98195e-06
-8.80016e-08
2.72294e-06
2.59014e-07
2.35822e-06
3.64715e-07
1.57055e-06
7.87678e-07
-3.3222e-07
1.90277e-06
-2.68184e-06
2.34962e-06
-3.95684e-06
1.275e-06
-4.09455e-06
1.37713e-07
-4.60736e-06
5.12816e-07
-5.26535e-06
6.57999e-07
-4.58837e-06
-6.76986e-07
-2.38613e-06
-2.20224e-06
-3.56623e-08
-2.35046e-06
1.03256e-06
-1.06822e-06
6.09923e-07
4.22638e-07
6.09915e-07
1.42577e-06
-2.16839e-06
1.88893e-06
-1.84094e-06
1.86131e-06
-7.45911e-07
1.53969e-06
2.33621e-07
1.14337e-06
6.55342e-07
7.07942e-07
8.00135e-07
-1.36131e-07
1.63176e-06
-1.60605e-06
3.37269e-06
-3.13284e-06
3.87642e-06
-4.07182e-06
2.21399e-06
-4.48784e-06
5.53735e-07
-4.72437e-06
7.49354e-07
-4.70537e-06
6.38998e-07
-4.07087e-06
-1.31149e-06
-2.49782e-06
-3.7753e-06
-6.725e-07
-4.17578e-06
2.82295e-07
-2.02302e-06
4.49335e-07
2.55602e-07
1.05925e-06
1.36874e-06
-3.53713e-06
1.32243e-06
-1.79462e-06
9.09643e-07
-3.33127e-07
3.91643e-07
7.5162e-07
-9.2346e-08
1.13934e-06
-5.61254e-07
1.26904e-06
-1.34562e-06
2.41612e-06
-2.41993e-06
4.447e-06
-3.38942e-06
4.84591e-06
-4.11846e-06
2.94303e-06
-4.54006e-06
9.75342e-07
-4.52361e-06
7.32902e-07
-4.29947e-06
4.14851e-07
-3.75103e-06
-1.85993e-06
-2.71251e-06
-4.81381e-06
-1.24834e-06
-5.63995e-06
-1.97416e-07
-3.07394e-06
2.40674e-07
-1.82485e-07
1.29992e-06
8.71359e-07
-4.40849e-06
5.17843e-07
-1.44111e-06
-6.61349e-08
2.5085e-07
-6.82651e-07
1.36814e-06
-1.20625e-06
1.66293e-06
-1.64439e-06
1.70718e-06
-2.28805e-06
3.05978e-06
-3.03318e-06
5.19212e-06
-3.62987e-06
5.44261e-06
-4.15199e-06
3.46515e-06
-4.46008e-06
1.28342e-06
-4.30027e-06
5.73095e-07
-3.94443e-06
5.90142e-08
-3.54558e-06
-2.25878e-06
-3.02658e-06
-5.33281e-06
-1.9315e-06
-6.73503e-06
-5.30796e-07
-4.47466e-06
2.23073e-07
-9.36351e-07
1.52299e-06
1.0786e-07
-4.51635e-06
-4.15997e-07
-9.17256e-07
-1.06412e-06
8.98967e-07
-1.72968e-06
2.0337e-06
-2.27167e-06
2.20493e-06
-2.63866e-06
2.07417e-06
-3.08363e-06
3.50476e-06
-3.53257e-06
5.64107e-06
-3.83574e-06
5.74579e-06
-4.12809e-06
3.7575e-06
-4.26835e-06
1.42369e-06
-4.00766e-06
3.12412e-07
-3.60835e-06
-3.40299e-07
-3.4019e-06
-2.46523e-06
-3.27446e-06
-5.46026e-06
-2.67406e-06
-7.33543e-06
-1.08834e-06
-6.06038e-06
3.4336e-07
-2.36806e-06
1.86634e-06
-7.04495e-07
-3.81186e-06
-1.37982e-06
-2.41925e-07
-2.05405e-06
1.57319e-06
-2.74289e-06
2.72254e-06
-3.30152e-06
2.76356e-06
-3.59256e-06
2.36521e-06
-3.82905e-06
3.74125e-06
-3.94033e-06
5.75235e-06
-3.951e-06
5.75645e-06
-4.01657e-06
3.82307e-06
-3.97122e-06
1.37834e-06
-3.63452e-06
-2.42893e-08
-3.27301e-06
-7.01801e-07
-3.20001e-06
-2.53823e-06
-3.30864e-06
-5.35163e-06
-3.12251e-06
-7.52156e-06
-2.03397e-06
-7.14892e-06
-1.72493e-07
-4.22953e-06
1.69385e-06
-1.50737e-06
-2.3045e-06
-2.31843e-06
5.69143e-07
-2.99551e-06
2.25027e-06
-3.69446e-06
3.4215e-06
-4.27311e-06
3.34221e-06
-4.55827e-06
2.65037e-06
-4.5557e-06
3.73868e-06
-4.30388e-06
5.50052e-06
-3.98689e-06
5.43947e-06
-3.81577e-06
3.65196e-06
-3.55889e-06
1.12146e-06
-3.21322e-06
-3.69966e-07
-2.89432e-06
-1.0207e-06
-2.87349e-06
-2.55906e-06
-3.09116e-06
-5.13396e-06
-3.16138e-06
-7.45134e-06
-2.74001e-06
-7.5703e-06
-1.32179e-06
-5.64775e-06
3.72063e-07
-2.24622e-06
-5.82899e-08
-3.17171e-06
1.49465e-06
-3.85266e-06
2.93122e-06
-4.54652e-06
4.11536e-06
-5.12164e-06
3.91734e-06
-5.41646e-06
2.9452e-06
-5.21327e-06
3.53549e-06
-4.64888e-06
4.93613e-06
-4.02683e-06
4.81742e-06
-3.52181e-06
3.14693e-06
-3.12577e-06
7.25426e-07
-2.7893e-06
-7.06443e-07
-2.45751e-06
-1.35249e-06
-2.40325e-06
-2.61333e-06
-2.61997e-06
-4.91724e-06
-2.81598e-06
-7.25533e-06
-2.84433e-06
-7.54196e-06
-2.30461e-06
-6.18747e-06
-1.93255e-06
1.54266e-06
-7.19971e-06
3.22458e-06
-6.86197e-06
4.78439e-06
-6.20784e-06
6.18536e-06
-5.54637e-06
7.40182e-06
-4.81926e-06
8.41465e-06
-4.04162e-06
9.21822e-06
-3.25044e-06
9.80778e-06
-2.45899e-06
1.0173e-05
-1.66271e-06
1.03071e-05
-8.65599e-07
1.02088e-05
-7.07881e-08
9.87172e-06
7.25486e-07
9.30959e-06
1.47282e-06
8.55601e-06
2.12816e-06
7.64561e-06
2.70326e-06
6.61598e-06
3.2301e-06
5.5389e-06
3.69715e-06
4.49501e-06
4.05358e-06
3.4968e-06
4.2523e-06
2.56001e-06
4.31157e-06
1.81199e-06
4.36237e-06
1.62635e-06
4.52279e-06
4.65174e-06
2.87398e-06
1.70827e-06
-8.90798e-06
3.54689e-06
-8.70058e-06
5.19114e-06
-7.85209e-06
6.63602e-06
-6.99125e-06
7.86315e-06
-6.0464e-06
8.87277e-06
-5.05124e-06
9.67005e-06
-4.04772e-06
1.02465e-05
-3.03545e-06
1.05739e-05
-1.99014e-06
1.06497e-05
-9.41353e-07
1.05024e-05
7.64606e-08
1.00864e-05
1.14152e-06
9.4367e-06
2.12252e-06
8.59406e-06
2.97079e-06
7.60316e-06
3.69416e-06
6.50402e-06
4.32925e-06
5.35758e-06
4.84359e-06
4.22945e-06
5.18172e-06
3.13926e-06
5.34249e-06
2.14048e-06
5.31035e-06
1.31155e-06
5.1913e-06
5.91246e-07
5.24308e-06
5.54342e-06
-3.00433e-07
1.99107e-06
-1.08991e-05
3.68547e-06
-1.0395e-05
5.23626e-06
-9.40289e-06
6.59375e-06
-8.34873e-06
7.71549e-06
-7.16814e-06
8.69061e-06
-6.02637e-06
9.4928e-06
-4.84991e-06
1.00546e-05
-3.59724e-06
1.03722e-05
-2.30775e-06
1.04497e-05
-1.01882e-06
1.03188e-05
2.07277e-07
9.95961e-06
1.50074e-06
9.4037e-06
2.67842e-06
8.6069e-06
3.76758e-06
7.56002e-06
4.74102e-06
6.45486e-06
5.43441e-06
5.39899e-06
5.89945e-06
4.39899e-06
6.18172e-06
3.39863e-06
6.34285e-06
2.2947e-06
6.41429e-06
9.18173e-07
6.56782e-06
-4.00769e-07
6.562e-06
6.84525e-06
-1.7026e-06
1.04305e-06
-1.19421e-05
3.34149e-06
-1.26934e-05
4.9661e-06
-1.10275e-05
5.91037e-06
-9.293e-06
6.56609e-06
-7.82384e-06
7.67769e-06
-7.13795e-06
8.73119e-06
-5.9034e-06
9.08436e-06
-3.95041e-06
9.21326e-06
-2.43662e-06
9.35117e-06
-1.15674e-06
9.20896e-06
3.49484e-07
8.94379e-06
1.76594e-06
9.04794e-06
2.57432e-06
8.72873e-06
4.08682e-06
7.21986e-06
6.2499e-06
6.31953e-06
6.33478e-06
5.97232e-06
6.24671e-06
5.78725e-06
6.36679e-06
5.71958e-06
6.41045e-06
5.23463e-06
6.89914e-06
2.37172e-07
1.15653e-05
-3.23759e-06
1.00367e-05
6.4579e-06
-2.85022e-06
2.05105e-07
-1.21473e-05
7.05289e-06
-1.95414e-05
5.78421e-06
-9.75875e-06
1.93041e-06
-5.43922e-06
-2.80657e-06
-3.08684e-06
2.80108e-07
-1.02246e-05
4.30917e-06
-9.93247e-06
6.15097e-06
-5.79226e-06
6.49191e-06
-2.77765e-06
8.30283e-06
-2.96769e-06
1.00215e-05
-1.36919e-06
1.1613e-05
1.74338e-07
1.35189e-05
6.68406e-07
1.50286e-05
2.57713e-06
1.5936e-05
5.34244e-06
1.52354e-05
7.03527e-06
1.50134e-05
6.4688e-06
1.58756e-05
5.50461e-06
1.65798e-05
5.70636e-06
1.62729e-05
7.20607e-06
3.24475e-06
2.45935e-05
-3.17893e-06
1.64603e-05
2.19625e-06
1.0827e-06
-4.82583e-06
-7.32125e-06
3.72797e-06
-2.80952e-05
5.55109e-06
-1.15818e-05
-2.94779e-07
4.06814e-07
-4.63769e-06
1.25596e-06
1.44131e-06
-1.63036e-05
6.71142e-06
-1.52025e-05
9.83175e-06
-8.91258e-06
1.07105e-05
-3.65643e-06
1.06739e-05
-2.93098e-06
1.06364e-05
-1.33168e-06
1.12891e-05
-4.78353e-07
1.17568e-05
2.00739e-07
1.20061e-05
2.32795e-06
1.41799e-05
3.16863e-06
1.55474e-05
5.66785e-06
1.63571e-05
5.65905e-06
1.70089e-05
4.85274e-06
1.52758e-05
7.43936e-06
1.08781e-05
1.16038e-05
5.52145e-06
2.99504e-05
2.65521e-06
1.93266e-05
2.26737e-06
2.58417e-06
-4.14367e-06
-3.17753e-06
-3.22325e-06
-2.90156e-05
2.97617e-06
-1.77812e-05
7.72075e-06
-4.33766e-06
9.69302e-06
-7.16313e-07
1.06317e-05
-1.72423e-05
1.20344e-05
-1.66052e-05
1.19055e-05
-8.78374e-06
1.24486e-05
-4.19949e-06
1.23707e-05
-2.85317e-06
1.02575e-05
7.81555e-07
8.62455e-06
1.15461e-06
7.23774e-06
1.58747e-06
5.36906e-06
4.19657e-06
5.27698e-06
3.26075e-06
7.44549e-06
3.49937e-06
1.05738e-05
2.53083e-06
1.30817e-05
2.34491e-06
1.28272e-05
7.69371e-06
9.56458e-06
1.48663e-05
1.22963e-05
2.72188e-05
1.08375e-05
2.07854e-05
7.62218e-06
5.48254e-06
1.59678e-06
-4.77425e-06
9.85232e-07
-2.84042e-05
4.57673e-06
-2.13727e-05
1.08843e-05
-1.06452e-05
1.69403e-05
-6.77234e-06
1.54175e-05
-1.57196e-05
1.37263e-05
-1.49141e-05
1.07691e-05
-5.82654e-06
9.20663e-06
-2.63698e-06
7.69281e-06
-1.33939e-06
5.54334e-06
2.93102e-06
1.16445e-06
5.5336e-06
-3.80088e-06
6.55283e-06
-5.5042e-06
5.89991e-06
-5.37136e-06
3.128e-06
-4.308e-06
2.43604e-06
-1.88186e-06
1.04609e-07
9.33216e-07
-4.70171e-07
4.39793e-06
4.22892e-06
8.57824e-06
1.06858e-05
1.50322e-05
2.07648e-05
1.36145e-05
2.22031e-05
1.44393e-05
6.79761e-06
1.04468e-05
-1.5221e-05
6.84246e-06
-2.47999e-05
6.67031e-06
-2.12005e-05
1.01694e-05
-1.41444e-05
1.57408e-05
-1.23437e-05
1.147e-05
-1.14487e-05
4.9658e-06
-8.40982e-06
1.7609e-06
-2.62163e-06
-1.10526e-06
2.29111e-07
-4.62323e-06
2.17858e-06
-7.18577e-06
5.49365e-06
-9.18908e-06
7.53696e-06
-1.03801e-05
7.74386e-06
-1.05526e-05
6.07231e-06
-1.09729e-05
3.54827e-06
-1.02976e-05
1.76076e-06
-9.18343e-06
-1.00953e-06
-8.0566e-06
-1.59697e-06
-5.59466e-06
1.76718e-06
-2.11477e-06
7.20608e-06
3.35106e-06
1.52989e-05
5.16917e-06
2.03849e-05
1.68147e-05
2.79353e-06
1.22442e-05
-2.74654e-05
7.25548e-06
-1.9811e-05
2.90431e-06
-1.68494e-05
2.48721e-06
-1.37273e-05
8.21507e-07
-1.06779e-05
-2.9642e-06
-7.66292e-06
-7.63943e-06
-3.73463e-06
-1.0568e-05
3.06871e-07
-1.29463e-05
2.60737e-06
-1.52495e-05
4.48182e-06
-1.63651e-05
6.60931e-06
-1.65394e-05
7.71145e-06
-1.60891e-05
7.2935e-06
-1.54897e-05
5.47293e-06
-1.49297e-05
2.98805e-06
-1.40158e-05
8.46791e-07
-1.39312e-05
-1.09416e-06
-1.43371e-05
-1.19102e-06
-1.37872e-05
1.21724e-06
-1.21973e-05
5.61627e-06
-8.60705e-06
1.17087e-05
-4.6444e-06
1.64224e-05
1.55808e-05
-3.41033e-06
-7.55802e-07
-2.67096e-05
-2.59714e-06
-1.79696e-05
-5.53558e-06
-1.3911e-05
-8.28572e-06
-1.0977e-05
-1.10768e-05
-7.88665e-06
-1.43155e-05
-4.42433e-06
-1.72338e-05
-8.16591e-07
-1.91372e-05
2.21007e-06
-2.07222e-05
4.1923e-06
-2.19075e-05
5.66706e-06
-2.21573e-05
6.85907e-06
-2.1635e-05
7.1891e-06
-2.07395e-05
6.39799e-06
-1.98985e-05
4.63202e-06
-1.93461e-05
2.43563e-06
-1.89951e-05
4.95721e-07
-1.92238e-05
-8.65645e-07
-1.96137e-05
-8.01179e-07
-1.94843e-05
1.0878e-06
-1.84434e-05
4.57542e-06
-1.5819e-05
9.08435e-06
-1.17714e-05
1.23747e-05
1.2781e-05
-8.97172e-06
-4.74774e-06
-2.19617e-05
-8.1962e-06
-1.45215e-05
-1.15734e-05
-1.05338e-05
-1.49309e-05
-7.6195e-06
-1.8085e-05
-4.73254e-06
-2.08578e-05
-1.65165e-06
-2.29154e-05
1.24085e-06
-2.42565e-05
3.55107e-06
-2.51672e-05
5.10301e-06
-2.56076e-05
6.10747e-06
-2.53811e-05
6.63257e-06
-2.46318e-05
6.43975e-06
-2.36779e-05
5.44401e-06
-2.28545e-05
3.80862e-06
-2.23613e-05
1.94249e-06
-2.22007e-05
3.351e-07
-2.24294e-05
-6.36899e-07
-2.27414e-05
-4.89211e-07
-2.26301e-05
9.7653e-07
-2.16144e-05
3.55976e-06
-1.92255e-05
6.69544e-06
-1.59275e-05
9.07659e-06
9.78609e-06
-1.29326e-05
-6.47735e-06
-1.54843e-05
-1.10616e-05
-9.93758e-06
-1.49585e-05
-6.63679e-06
-1.84735e-05
-4.10443e-06
-2.15174e-05
-1.68856e-06
-2.3887e-05
7.18086e-07
-2.55189e-05
2.87285e-06
-2.6501e-05
4.53328e-06
-2.69984e-05
5.60061e-06
-2.7038e-05
6.14723e-06
-2.66014e-05
6.1961e-06
-2.58318e-05
5.67023e-06
-2.49696e-05
4.5819e-06
-2.42576e-05
3.09659e-06
-2.38373e-05
1.5223e-06
-2.37185e-05
2.164e-07
-2.38432e-05
-5.1218e-07
-2.39529e-05
-3.79445e-07
-2.36737e-05
6.97412e-07
-2.26476e-05
2.53356e-06
-2.06304e-05
4.67823e-06
-1.79312e-05
6.37735e-06
7.09549e-06
-1.52406e-05
-7.04282e-06
-8.44167e-06
-1.21305e-05
-4.84987e-06
-1.62122e-05
-2.55497e-06
-1.96403e-05
-6.7623e-07
-2.24261e-05
1.09732e-06
-2.44951e-05
2.78712e-06
-2.5859e-05
4.23681e-06
-2.66158e-05
5.29004e-06
-2.68916e-05
5.87644e-06
-2.67573e-05
6.01291e-06
-2.6275e-05
5.71385e-06
-2.55806e-05
4.97596e-06
-2.48559e-05
3.85715e-06
-2.42682e-05
2.50888e-06
-2.391e-05
1.16406e-06
-2.37752e-05
8.17073e-08
-2.37744e-05
-5.13035e-07
-2.37002e-05
-4.53632e-07
-2.32856e-05
2.82787e-07
-2.22936e-05
1.54159e-06
-2.06106e-05
2.99527e-06
-1.84261e-05
4.19284e-06
4.81782e-06
-1.61484e-05
-6.84963e-06
-1.59225e-06
-1.19354e-05
2.35935e-07
-1.59354e-05
1.44499e-06
-1.91518e-05
2.5402e-06
-2.16624e-05
3.6078e-06
-2.34783e-05
4.60283e-06
-2.46451e-05
5.40347e-06
-2.52582e-05
5.90303e-06
-2.54281e-05
6.04625e-06
-2.52457e-05
5.83035e-06
-2.48018e-05
5.26995e-06
-2.42183e-05
4.3924e-06
-2.3631e-05
3.26977e-06
-2.31538e-05
2.03159e-06
-2.28427e-05
8.5285e-07
-2.26797e-05
-8.13287e-08
-2.25772e-05
-6.15554e-07
-2.23782e-05
-6.52715e-07
-2.18981e-05
-1.97208e-07
-2.09852e-05
6.2875e-07
-1.95892e-05
1.59931e-06
-1.78325e-05
2.4362e-06
2.94354e-06
-1.59581e-05
-6.25288e-06
4.66064e-06
-1.09835e-05
4.96657e-06
-1.46987e-05
5.16016e-06
-1.76227e-05
5.46407e-06
-1.98497e-05
5.83473e-06
-2.14331e-05
6.18619e-06
-2.24365e-05
6.40682e-06
-2.29502e-05
6.41666e-06
-2.3074e-05
6.17007e-06
-2.2902e-05
5.65843e-06
-2.25288e-05
4.89672e-06
-2.2058e-05
3.92153e-06
-2.15909e-05
2.80258e-06
-2.12045e-05
1.64522e-06
-2.0931e-05
5.79256e-07
-2.07475e-05
-2.64775e-07
-2.05806e-05
-7.82467e-07
-2.03156e-05
-9.17785e-07
-1.98271e-05
-6.85664e-07
-1.90203e-05
-1.78026e-07
-1.78725e-05
4.51635e-07
-1.64637e-05
1.02736e-06
1.42243e-06
-1.49426e-05
-5.4386e-06
1.00993e-05
-9.62924e-06
9.15715e-06
-1.29294e-05
8.46031e-06
-1.55016e-05
8.03629e-06
-1.74358e-05
7.76889e-06
-1.87949e-05
7.54532e-06
-1.96499e-05
7.26183e-06
-2.00838e-05
6.8507e-06
-2.0186e-05
6.27237e-06
-2.00442e-05
5.51671e-06
-1.97448e-05
4.59728e-06
-1.93728e-05
3.54959e-06
-1.90039e-05
2.43363e-06
-1.86903e-05
1.33169e-06
-1.84496e-05
3.38579e-07
-1.82595e-05
-4.54774e-07
-1.80626e-05
-9.7937e-07
-1.7777e-05
-1.20344e-06
-1.73183e-05
-1.14429e-06
-1.66271e-05
-8.69227e-07
-1.5693e-05
-4.82548e-07
-1.4567e-05
-9.85642e-08
1.98018e-07
-1.33426e-05
-4.5467e-06
1.4646e-05
-8.10078e-06
1.27112e-05
-1.09114e-05
1.12709e-05
-1.30966e-05
1.02215e-05
-1.47289e-05
9.40119e-06
-1.58677e-05
8.68414e-06
-1.65808e-05
7.97497e-06
-1.69417e-05
7.21168e-06
-1.70279e-05
6.35859e-06
-1.69161e-05
5.40494e-06
-1.66802e-05
4.36138e-06
-1.63884e-05
3.2578e-06
-1.60969e-05
2.14215e-06
-1.58417e-05
1.07648e-06
-1.5632e-05
1.28822e-07
-1.54483e-05
-6.38342e-07
-1.52476e-05
-1.18007e-06
-1.49721e-05
-1.47897e-06
-1.4565e-05
-1.55136e-06
-1.39881e-05
-1.44606e-06
-1.32361e-05
-1.23457e-06
-1.23414e-05
-9.93225e-07
-7.80407e-07
-1.1363e-05
-3.64344e-06
1.82894e-05
-6.52626e-06
1.55941e-05
-8.81729e-06
1.3562e-05
-1.06011e-05
1.20054e-05
-1.19306e-05
1.07307e-05
-1.28551e-05
9.60852e-06
-1.3431e-05
8.55092e-06
-1.37205e-05
7.50111e-06
-1.37882e-05
6.4264e-06
-1.36986e-05
5.31539e-06
-1.35123e-05
4.17507e-06
-1.32829e-05
3.0283e-06
-1.3052e-05
1.91121e-06
-1.28445e-05
8.68987e-07
-1.26651e-05
-5.06022e-08
-1.2498e-05
-8.05401e-07
-1.23114e-05
-1.36671e-06
-1.20645e-05
-1.72581e-06
-1.17189e-05
-1.89695e-06
-1.12492e-05
-1.91572e-06
-1.06519e-05
-1.8319e-06
-9.94713e-06
-1.69796e-06
-1.55528e-06
-9.17223e-06
-2.74715e-06
2.10365e-05
-4.9636e-06
1.78106e-05
-6.73872e-06
1.53371e-05
-8.12942e-06
1.3396e-05
-9.16799e-06
1.17692e-05
-9.88855e-06
1.0329e-05
-1.03338e-05
8.99612e-06
-1.05531e-05
7.72033e-06
-1.05987e-05
6.47205e-06
-1.05227e-05
5.23941e-06
-1.03733e-05
4.02566e-06
-1.01917e-05
2.84673e-06
-1.00088e-05
1.72831e-06
-9.84184e-06
7.02017e-07
-9.69286e-06
-1.99614e-07
-9.54942e-06
-9.48852e-07
-9.38802e-06
-1.5281e-06
-9.17992e-06
-1.93391e-06
-8.89835e-06
-2.17848e-06
-8.52591e-06
-2.28813e-06
-8.05947e-06
-2.2983e-06
-7.51129e-06
-2.24612e-06
-2.16181e-06
-6.90472e-06
-1.83662e-06
2.28731e-05
-3.42543e-06
1.93994e-05
-4.72053e-06
1.66321e-05
-5.74653e-06
1.44219e-05
-6.51855e-06
1.25412e-05
-7.05188e-06
1.08623e-05
-7.37606e-06
9.32024e-06
-7.52842e-06
7.87265e-06
-7.54978e-06
6.49341e-06
-7.48078e-06
5.17041e-06
-7.35874e-06
3.90362e-06
-7.2148e-06
2.7028e-06
-7.07138e-06
1.58492e-06
-6.9403e-06
5.70958e-07
-6.82203e-06
-3.17872e-07
-6.7067e-06
-1.06416e-06
-6.5769e-06
-1.65788e-06
-6.41191e-06
-2.09888e-06
-6.19269e-06
-2.39767e-06
-5.90667e-06
-2.57413e-06
-5.55077e-06
-2.65418e-06
-5.13195e-06
-2.66492e-06
-2.62911e-06
-4.66463e-06
-8.6641e-07
2.37396e-05
-1.90555e-06
2.04385e-05
-2.78854e-06
1.75151e-05
-3.49799e-06
1.51313e-05
-4.03443e-06
1.30776e-05
-4.4011e-06
1.12289e-05
-4.61626e-06
9.53535e-06
-4.70702e-06
7.96339e-06
-4.70407e-06
6.49044e-06
-4.63815e-06
5.10447e-06
-4.53722e-06
3.80267e-06
-4.42412e-06
2.58968e-06
-4.31468e-06
1.47549e-06
-4.21658e-06
4.72903e-07
-4.12918e-06
-4.05235e-07
-4.04444e-06
-1.14886e-06
-3.94916e-06
-1.75313e-06
-3.82802e-06
-2.21999e-06
-3.66705e-06
-2.55862e-06
-3.4567e-06
-2.78448e-06
-3.19382e-06
-2.91706e-06
-2.88196e-06
-2.9768e-06
-2.98137e-06
-2.52971e-06
1.39112e-07
2.36005e-05
-4.3387e-07
2.10116e-05
-9.81585e-07
1.80628e-05
-1.42687e-06
1.55766e-05
-1.75925e-06
1.34099e-05
-1.97917e-06
1.14488e-05
-2.09728e-06
9.65346e-06
-2.13229e-06
7.9984e-06
-2.10621e-06
6.46435e-06
-2.04124e-06
5.03949e-06
-1.9574e-06
3.7188e-06
-1.87061e-06
2.50287e-06
-1.79139e-06
1.39627e-06
-1.72414e-06
4.05684e-07
-1.66722e-06
-4.6213e-07
-1.61377e-06
-1.20229e-06
-1.55342e-06
-1.81346e-06
-1.47449e-06
-2.29891e-06
-1.36633e-06
-2.66678e-06
-1.22137e-06
-2.92945e-06
-1.03641e-06
-3.10204e-06
-8.12804e-07
-3.20044e-06
-3.23877e-06
-5.55428e-07
1.02657e-06
2.2574e-05
8.69875e-07
2.11683e-05
6.30847e-07
1.83018e-05
4.17537e-07
1.57899e-05
2.64781e-07
1.35627e-05
1.76423e-07
1.15372e-05
1.46118e-07
9.68378e-06
1.62331e-07
7.9822e-06
2.10668e-07
6.41602e-06
2.76383e-07
4.97376e-06
3.46336e-07
3.64881e-06
4.1046e-07
2.43872e-06
4.62704e-07
1.34402e-06
5.01429e-07
3.66965e-07
5.29271e-07
-4.89969e-07
5.52425e-07
-1.22544e-06
5.79398e-07
-1.84044e-06
6.19452e-07
-2.33898e-06
6.81007e-07
-2.72836e-06
7.70287e-07
-3.01876e-06
8.90474e-07
-3.22225e-06
1.04157e-06
-3.35156e-06
-3.41828e-06
1.22107e-06
1.54968e-06
2.10243e-05
1.89024e-06
2.08277e-05
1.96215e-06
1.82299e-05
1.97634e-06
1.57758e-05
1.9957e-06
1.35434e-05
2.03164e-06
1.15013e-05
2.0847e-06
9.63071e-06
2.1505e-06
7.91639e-06
2.22185e-06
6.34466e-06
2.29084e-06
4.90475e-06
2.35049e-06
3.58913e-06
2.39591e-06
2.39327e-06
2.42492e-06
1.315e-06
2.43834e-06
3.53533e-07
2.43982e-06
-4.91469e-07
2.4353e-06
-1.22094e-06
2.4321e-06
-1.83725e-06
2.43786e-06
-2.34476e-06
2.45947e-06
-2.75e-06
2.5022e-06
-3.06151e-06
2.56915e-06
-3.28921e-06
2.66113e-06
-3.44353e-06
-3.53422e-06
2.77712e-06
1.76689e-06
1.92574e-05
2.5523e-06
2.00423e-05
2.95108e-06
1.78312e-05
3.20609e-06
1.55208e-05
3.40012e-06
1.33493e-05
3.56016e-06
1.13412e-05
3.69681e-06
9.49404e-06
3.81368e-06
7.79949e-06
3.91088e-06
6.24744e-06
3.98712e-06
4.82849e-06
4.04116e-06
3.53506e-06
4.0728e-06
2.36162e-06
4.08336e-06
1.30442e-06
4.07593e-06
3.60952e-07
4.05519e-06
-4.70759e-07
4.02711e-06
-1.19289e-06
3.99828e-06
-1.80844e-06
3.97525e-06
-2.32174e-06
3.96384e-06
-2.7386e-06
3.96861e-06
-3.06628e-06
3.99251e-06
-3.31308e-06
4.03682e-06
-3.4878e-06
-3.59877e-06
4.10145e-06
1.75707e-06
1.75004e-05
2.88564e-06
1.89138e-05
3.59843e-06
1.71184e-05
4.09484e-06
1.50244e-05
4.46533e-06
1.29789e-05
4.75113e-06
1.10554e-05
4.97344e-06
9.27173e-06
5.14443e-06
7.62847e-06
5.27164e-06
6.12022e-06
5.36019e-06
4.73993e-06
5.41429e-06
3.48096e-06
5.43804e-06
2.33786e-06
5.43598e-06
1.30648e-06
5.41325e-06
3.83672e-07
5.37562e-06
-4.3314e-07
5.32923e-06
-1.14651e-06
5.28026e-06
-1.75948e-06
5.23452e-06
-2.27599e-06
5.19703e-06
-2.70111e-06
5.17181e-06
-3.04103e-06
5.16163e-06
-3.30286e-06
5.16806e-06
-3.49417e-06
-3.62222e-06
5.19159e-06
1.64123e-06
1.58592e-05
2.98827e-06
1.75667e-05
3.95705e-06
1.61496e-05
4.67053e-06
1.43109e-05
5.20772e-06
1.24417e-05
5.61532e-06
1.06478e-05
5.92262e-06
8.96445e-06
6.14949e-06
7.40162e-06
6.3103e-06
5.95942e-06
6.41614e-06
4.63411e-06
6.47611e-06
3.42101e-06
6.49821e-06
2.31579e-06
6.4898e-06
1.3149e-06
6.45793e-06
4.15554e-07
6.40935e-06
-3.8456e-07
6.3505e-06
-1.08765e-06
6.28731e-06
-1.69628e-06
6.22505e-06
-2.21371e-06
6.16815e-06
-2.6442e-06
6.12018e-06
-2.99305e-06
6.08375e-06
-3.26641e-06
6.06055e-06
-3.47096e-06
-3.61319e-06
6.05155e-06
1.50609e-06
1.43531e-05
2.96069e-06
1.61121e-05
4.10732e-06
1.5003e-05
4.99162e-06
1.34266e-05
5.66944e-06
1.17639e-05
6.18451e-06
1.01328e-05
6.5697e-06
8.57931e-06
6.8502e-06
7.12118e-06
7.04574e-06
5.76392e-06
7.17224e-06
4.50765e-06
7.24288e-06
3.3504e-06
7.26888e-06
2.28982e-06
7.26002e-06
1.32379e-06
7.22492e-06
4.50668e-07
7.17124e-06
-3.30868e-07
7.10568e-06
-1.02209e-06
7.03404e-06
-1.62462e-06
6.96115e-06
-2.1408e-06
6.89092e-06
-2.57398e-06
6.82653e-06
-2.92867e-06
6.77042e-06
-3.21032e-06
6.72442e-06
-3.42499e-06
-3.57865e-06
6.68985e-06
1.39321e-06
1.29598e-05
2.87888e-06
1.46264e-05
4.12666e-06
1.37552e-05
5.12514e-06
1.24282e-05
5.90568e-06
1.09834e-05
6.50421e-06
9.53436e-06
6.95312e-06
8.13046e-06
7.27994e-06
6.79441e-06
7.50766e-06
5.53624e-06
7.65548e-06
4.35985e-06
7.7395e-06
3.26641e-06
7.77334e-06
2.25601e-06
7.76858e-06
1.32856e-06
7.7351e-06
4.84142e-07
7.68128e-06
-2.77046e-07
7.61404e-06
-9.54859e-07
7.539e-06
-1.54959e-06
7.46057e-06
-2.06238e-06
7.38218e-06
-2.49563e-06
7.30659e-06
-2.85312e-06
7.2361e-06
-3.13987e-06
7.17266e-06
-3.36163e-06
-3.52406e-06
7.11798e-06
1.31475e-06
1.16451e-05
2.78721e-06
1.31539e-05
4.07344e-06
1.2469e-05
5.13069e-06
1.13709e-05
5.97194e-06
1.01422e-05
6.62457e-06
8.88176e-06
7.11796e-06
7.6371e-06
7.47947e-06
6.43293e-06
7.73317e-06
5.28254e-06
7.89986e-06
4.19317e-06
7.99726e-06
3.169e-06
8.0405e-06
2.21276e-06
8.04237e-06
1.32668e-06
8.01361e-06
5.12873e-07
7.96309e-06
-2.26555e-07
7.89786e-06
-8.89657e-07
7.82329e-06
-1.47505e-06
7.74331e-06
-1.98243e-06
7.66074e-06
-2.41311e-06
7.57789e-06
-2.77032e-06
7.4969e-06
-3.05894e-06
7.41992e-06
-3.28473e-06
-3.45334e-06
7.34911e-06
1.26926e-06
1.03758e-05
2.70527e-06
1.17179e-05
3.98401e-06
1.11902e-05
5.05328e-06
1.03017e-05
5.91616e-06
9.27929e-06
6.59325e-06
8.20468e-06
7.11007e-06
7.12029e-06
7.49208e-06
6.05092e-06
7.76277e-06
5.01183e-06
7.94302e-06
4.01289e-06
8.05108e-06
3.0609e-06
8.10269e-06
2.16112e-06
8.11129e-06
1.31804e-06
8.08815e-06
5.35965e-07
8.04243e-06
-1.80879e-07
7.98118e-06
-8.28452e-07
7.90944e-06
-1.40335e-06
7.83048e-06
-1.9035e-06
7.74635e-06
-2.32902e-06
7.65874e-06
-2.68276e-06
7.56965e-06
-2.9699e-06
7.48154e-06
-3.19667e-06
-3.36901e-06
7.39718e-06
1.24927e-06
9.12651e-06
2.63692e-06
1.03303e-05
3.87734e-06
9.94979e-06
4.92369e-06
9.2553e-06
5.77639e-06
8.42657e-06
6.45191e-06
7.52915e-06
6.97214e-06
6.60006e-06
7.35991e-06
5.66313e-06
7.63703e-06
4.73468e-06
7.82345e-06
3.82641e-06
7.93704e-06
2.94726e-06
7.99352e-06
2.10459e-06
8.0065e-06
1.30501e-06
7.98751e-06
5.54907e-07
7.94588e-06
-1.39297e-07
7.88862e-06
-7.71232e-07
7.82034e-06
-1.3351e-06
7.74345e-06
-1.82663e-06
7.65888e-06
-2.24447e-06
7.56749e-06
-2.59139e-06
7.47116e-06
-2.87357e-06
7.37284e-06
-3.09834e-06
-3.27228e-06
7.27613e-06
1.24513e-06
7.8814e-06
2.57929e-06
8.99623e-06
3.7632e-06
8.7659e-06
4.76335e-06
8.25515e-06
5.5826e-06
7.60732e-06
6.23584e-06
6.8759e-06
6.74223e-06
6.09367e-06
7.1219e-06
5.28345e-06
7.39451e-06
4.46204e-06
7.5785e-06
3.64238e-06
7.69076e-06
2.83497e-06
7.74651e-06
2.04881e-06
7.75923e-06
1.29226e-06
7.74055e-06
5.73559e-07
7.69999e-06
-9.87616e-08
7.64458e-06
-7.15842e-07
7.57853e-06
-1.26904e-06
7.50315e-06
-1.75123e-06
7.41772e-06
-2.15903e-06
7.32191e-06
-2.49557e-06
7.21757e-06
-2.76919e-06
7.10851e-06
-2.98923e-06
-3.16318e-06
6.99948e-06
1.25096e-06
6.63049e-06
2.53251e-06
7.71474e-06
3.65111e-06
7.64732e-06
4.59065e-06
7.31562e-06
5.36024e-06
6.83773e-06
5.97554e-06
6.26061e-06
6.45398e-06
5.61525e-06
6.81332e-06
4.92412e-06
7.07095e-06
4.2044e-06
7.24348e-06
3.46983e-06
7.34649e-06
2.73195e-06
7.39434e-06
2.00096e-06
7.40016e-06
1.28644e-06
7.37565e-06
5.9807e-07
7.33069e-06
-5.37968e-08
7.27265e-06
-6.5778e-07
7.20556e-06
-1.20192e-06
7.12948e-06
-1.67511e-06
7.04121e-06
-2.07073e-06
6.93861e-06
-2.39291e-06
6.82381e-06
-2.65432e-06
6.70211e-06
-2.86746e-06
-3.04086e-06
6.57987e-06
1.27268e-06
5.35786e-06
2.5087e-06
6.47878e-06
3.5576e-06
6.59844e-06
4.42595e-06
6.44728e-06
5.13349e-06
6.13019e-06
5.69855e-06
5.69557e-06
6.13756e-06
5.17627e-06
6.46609e-06
4.59561e-06
6.69924e-06
3.97126e-06
6.85158e-06
3.31751e-06
6.93701e-06
2.64655e-06
6.96877e-06
1.96924e-06
6.95942e-06
1.29582e-06
6.92074e-06
6.36786e-07
6.86326e-06
3.72499e-09
6.79531e-06
-5.89793e-07
6.7215e-06
-1.12805e-06
6.64082e-06
-1.59436e-06
6.54611e-06
-1.97596e-06
6.43241e-06
-2.27915e-06
6.30294e-06
-2.52479e-06
6.16562e-06
-2.73008e-06
-2.90408e-06
6.02891e-06
1.33397e-06
4.02393e-06
2.53691e-06
5.27586e-06
3.50865e-06
5.62669e-06
4.29294e-06
5.66298e-06
4.92616e-06
5.49697e-06
5.43019e-06
5.19156e-06
5.82015e-06
4.78634e-06
6.10914e-06
4.30665e-06
6.3097e-06
3.77073e-06
6.434e-06
3.19324e-06
6.4939e-06
2.58669e-06
6.50105e-06
1.96213e-06
6.46712e-06
1.32982e-06
6.40382e-06
7.00135e-07
6.3227e-06
8.49073e-08
6.23403e-06
-5.01073e-07
6.14459e-06
-1.03855e-06
6.05335e-06
-1.50306e-06
5.94678e-06
-1.86934e-06
5.81535e-06
-2.14768e-06
5.66531e-06
-2.37471e-06
5.50887e-06
-2.57361e-06
-2.75214e-06
5.35695e-06
1.47245e-06
2.5515e-06
2.6582e-06
4.09008e-06
3.53427e-06
4.75059e-06
4.21465e-06
4.98256e-06
4.75946e-06
4.95215e-06
5.19238e-06
4.75864e-06
5.52539e-06
4.45336e-06
5.76815e-06
4.06392e-06
5.93001e-06
3.6089e-06
6.02018e-06
3.10309e-06
6.04789e-06
2.55903e-06
6.02257e-06
1.98751e-06
5.95431e-06
1.39813e-06
5.8543e-06
8.002e-07