/*--------------------------------*- C++ -*----------------------------------*\
  =========                 |
  \\      /  F ield         | OpenFOAM: The Open Source CFD Toolbox
   \\    /   O peration     | Website:  https://openfoam.org
    \\  /    A nd           | Version:  9
     \\/     M anipulation  |
\*---------------------------------------------------------------------------*/
FoamFile
{
    format      ascii;
    class       volScalarField;
    location    "6.78";
    object      nut;
}
// * * * * * * * * * * * * * * * * * * * * * * * * * * * * * * * * * * * * * //

dimensions      [0 2 -1 0 0 0 0];

internalField   nonuniform List<scalar> 
2268
(
1.14313e-05
1.33139e-05
1.61432e-05
1.80286e-05
1.94282e-05
2.05279e-05
2.14244e-05
2.21733e-05
2.28016e-05
2.33282e-05
2.37748e-05
2.41684e-05
2.45259e-05
2.48274e-05
2.4996e-05
2.48666e-05
2.4181e-05
2.30589e-05
2.16177e-05
2.00868e-05
1.86642e-05
1.63303e-05
1.11686e-05
2.6198e-05
0.000107526
0.000146497
0.000170808
0.000188081
0.000201219
0.000211612
0.000219991
0.000226798
0.000232289
0.0002367
0.00024024
0.000242988
0.000244705
0.000244702
0.0002416
0.000232443
0.000211368
0.000191711
0.000176387
0.00016463
0.000128123
3.54804e-05
3.12521e-05
0.000181088
0.000270267
0.000327845
0.00036889
0.000399934
0.000424289
0.000443778
0.000459459
0.000471967
0.000481853
0.000489626
0.000495499
0.000498995
0.000498629
0.000491402
0.00047172
0.000433647
0.000394672
0.00035895
0.000316268
0.000219263
4.20861e-05
3.49975e-05
0.000232436
0.000366964
0.000457492
0.000523085
0.000572983
0.000612159
0.000643471
0.000668608
0.000688612
0.000704344
0.000716561
0.000725566
0.000730685
0.000729838
0.000719008
0.000691557
0.000642311
0.000587929
0.000530055
0.000449192
0.000292922
4.78001e-05
3.79765e-05
0.000271244
0.000444545
0.000565274
0.000654239
0.000722492
0.000776279
0.000819326
0.000853902
0.000881432
0.000903047
0.000919684
0.000931698
0.000938269
0.000936971
0.000923371
0.000890829
0.000834373
0.000767683
0.000688278
0.000569547
0.000358327
5.33561e-05
4.04942e-05
0.000302462
0.000508882
0.000656713
0.000767316
0.000852918
0.000920707
0.000975098
0.00101886
0.00105376
0.00108115
0.0011021
0.00111698
0.00112491
0.00112331
0.00110774
0.00107209
0.00101142
0.000935034
0.000836321
0.000682934
0.000418114
5.94114e-05
4.27319e-05
0.000328661
0.000563712
0.000735753
0.000866166
0.000967952
0.00104899
0.00111423
0.00116685
0.00120889
0.00124189
0.00126703
0.0012847
0.001294
0.00129236
0.00127558
0.00123821
0.00117566
0.00109232
0.000978124
0.000796351
0.000481269
6.67839e-05
4.47974e-05
0.00035138
0.000611519
0.000805205
0.000953668
0.00107045
0.00116393
0.00123947
0.00130059
0.00134955
0.00138802
0.00141725
0.0014377
0.00144849
0.00144721
0.00143001
0.00139204
0.00132916
0.0012419
0.00111769
0.000918713
0.000565759
7.87053e-05
1.18351e-05
1.83345e-05
2.1293e-05
2.26074e-05
2.33164e-05
2.36429e-05
2.39486e-05
2.42073e-05
2.40685e-05
2.29346e-05
2.11969e-05
1.92151e-05
1.74278e-05
1.78378e-05
1.90712e-05
1.88353e-05
1.64292e-05
1.37009e-05
1.3932e-05
3.76854e-05
0.000145696
0.000194119
0.000217173
0.000228451
0.000234167
0.000236746
0.000236052
0.000228922
0.000212126
0.000180449
0.000158654
0.00014045
0.000142033
0.000166005
0.000162251
0.000136698
0.00010148
2.9344e-05
4.23945e-05
0.000248905
0.000366272
0.000426863
0.000457215
0.000471897
0.000478043
0.000476321
0.000461143
0.00042561
0.000369077
0.000325509
0.000293235
0.000294084
0.000324025
0.000308659
0.000247741
0.000161973
3.28965e-05
4.77873e-05
0.000320619
0.000506584
0.000607352
0.000659125
0.000684027
0.000693851
0.000691129
0.000669863
0.00062137
0.000550018
0.000491434
0.000448997
0.000442541
0.000462622
0.000429523
0.000335072
0.000200943
3.61623e-05
5.3471e-05
0.000381317
0.000626935
0.00076471
0.000836956
0.000871884
0.00088521
0.000881681
0.000856285
0.000800362
0.000721368
0.000653583
0.000602764
0.000584121
0.000586294
0.000532593
0.000409334
0.000234051
3.92651e-05
5.97892e-05
0.000441847
0.000738136
0.00090681
0.000996528
0.00104026
0.00105668
0.00105258
0.00102466
0.000965519
0.000883727
0.00081059
0.000752108
0.000718807
0.000699098
0.000624294
0.000477729
0.000269232
4.23537e-05
6.82668e-05
0.000508839
0.000848608
0.00104011
0.00114295
0.00119358
0.00121243
0.00120794
0.00117864
0.00111911
0.0010377
0.000961375
0.000895495
0.000846766
0.000803436
0.000707686
0.000542109
0.000308558
4.54505e-05
8.32674e-05
0.000595752
0.00096603
0.00116949
0.00128024
0.00133542
0.00135588
0.00135103
0.00132106
0.00126266
0.00118366
0.00110524
0.00103201
0.000967752
0.000900718
0.000784291
0.000600698
0.00034977
4.85694e-05
4.7549e-05
0.000383418
0.000678139
0.000902165
0.00107641
0.00121501
0.00132694
0.00141795
0.00149188
0.00155139
0.00159831
0.00163392
0.0016587
0.00167195
0.00167171
0.00165502
0.00161819
0.00155702
0.00146811
0.00133804
0.00113992
0.000837695
0.000432472
5.10948e-05
0.000420666
0.000753624
0.00101109
0.00121386
0.00137702
0.00151017
0.00161938
0.00170872
0.00178104
0.0018385
0.0018825
0.00191358
0.00193137
0.00193464
0.00192148
0.00188954
0.00183539
0.00175399
0.00163622
0.00146756
0.00123332
0.00094023
5.47083e-05
0.0004522
0.000821594
0.00110763
0.00133354
0.00151672
0.00166756
0.00179222
0.00189491
0.00197865
0.00204581
0.00209804
0.00213598
0.00215955
0.00216818
0.0021607
0.00213628
0.00209282
0.00202566
0.00192958
0.00179762
0.00162948
0.0014431
5.86582e-05
0.000465837
0.0008852
0.00119539
0.0014404
0.00164035
0.00180617
0.00194385
0.00205778
0.00215125
0.00222698
0.00228704
0.00233212
0.00236247
0.00237812
0.00237765
0.00236158
0.00232939
0.00227619
0.00220317
0.0021071
0.00199188
0.00187493
6.37464e-05
0.00051601
0.000953792
0.00127304
0.00153536
0.00175106
0.00193032
0.00207993
0.00220424
0.00230652
0.00238911
0.00245604
0.00250771
0.00254473
0.00256718
0.00257236
0.00256222
0.00253931
0.00250053
0.00244912
0.00238365
0.00230775
0.0022321
6.60491e-05
0.000535107
0.000972846
0.00129776
0.0015853
0.0018281
0.00202792
0.00219348
0.00233023
0.00244253
0.00253347
0.00260732
0.0026652
0.00270814
0.00273698
0.00274937
0.00274614
0.00273142
0.00270458
0.00267152
0.00262987
0.0025803
0.00253237
6.98001e-05
0.000555181
0.000998335
0.00134808
0.00164459
0.00189632
0.00211006
0.00229001
0.00243911
0.00256189
0.00266205
0.00274392
0.00280908
0.00285896
0.00289497
0.00291492
0.00291976
0.00291305
0.00289686
0.00287535
0.00285116
0.00282239
0.00279657
6.97418e-05
0.000555348
0.00102556
0.00139933
0.00170589
0.00196636
0.00218889
0.00237796
0.0025368
0.00266905
0.00277845
0.00286881
0.00294219
0.00300054
0.00304493
0.00307328
0.00308689
0.00308901
0.00308275
0.00307144
0.00305815
0.00304449
0.00303393
0.000295271
0.000564508
0.00105088
0.00144054
0.00175969
0.00202992
0.00226099
0.00245823
0.00262551
0.00276651
0.00288478
0.00298375
0.00306598
0.0031335
0.00318683
0.0032242
0.00324691
0.0032584
0.00326162
0.00325938
0.00325512
0.00325213
0.00325094
6.97137e-05
0.000571133
0.00107075
0.00147374
0.00180551
0.00208601
0.00232585
0.00253124
0.00270673
0.00285618
0.00298309
0.00309073
0.00318184
0.00325829
0.0033203
0.00336675
0.00339898
0.00342003
0.0034325
0.00343883
0.00344251
0.0034463
0.00345006
0.000296611
0.000581475
0.00108559
0.00150107
0.00184502
0.00213586
0.00238469
0.00259845
0.00278219
0.00294001
0.00307537
0.00319148
0.00329105
0.00337574
0.00344581
0.00350111
0.00354284
0.00357329
0.00359463
0.00360897
0.00361928
0.00362772
0.0036343
0.000296654
0.000581841
0.00109691
0.00152456
0.00188007
0.00218109
0.00243903
0.00266132
0.00285337
0.00301941
0.00316296
0.00328715
0.0033946
0.00348695
0.00356466
0.00362827
0.00367884
0.00371801
0.00374748
0.00376903
0.003785
0.00379708
0.00380542
6.97859e-05
0.000581052
0.00110809
0.0015461
0.00191227
0.00222315
0.00249014
0.00272099
0.00292127
0.00309533
0.00324674
0.0033786
0.0034934
0.00359285
0.00367784
0.00374899
0.0038074
0.00385429
0.00389096
0.00391883
0.00393969
0.00395487
0.00396462
0.000296101
0.000587999
0.00111906
0.00156674
0.0019429
0.00226324
0.00253908
0.0027783
0.00298659
0.00316839
0.00332731
0.00346639
0.00358807
0.00369409
0.00378564
0.0038636
0.00392884
0.00398236
0.00402522
0.00405853
0.00408363
0.00410158
0.00411261
6.97901e-05
0.000588374
0.00113001
0.00158728
0.00197294
0.0023023
0.00258664
0.0028339
0.00304986
0.00323902
0.00340503
0.00355087
0.00367892
0.003791
0.00388844
0.00397224
0.00404332
0.00410247
0.00415054
0.00418845
0.00421722
0.00423762
0.0042499
6.9787e-05
0.000590688
0.00114191
0.00160832
0.00200297
0.00234092
0.00263335
0.00288824
0.00311146
0.00330754
0.00348014
0.0036322
0.00376608
0.00388362
0.00398625
0.00407508
0.004151
0.00421479
0.00426719
0.00430894
0.00434083
0.0043634
0.00437687
6.98332e-05
0.00059596
0.00115479
0.00162986
0.00203314
0.00237934
0.00267949
0.0029416
0.00317161
0.00337409
0.00355271
0.00371038
0.00384947
0.00397184
0.00407897
0.00417203
0.00425195
0.00431953
0.00437544
0.00442034
0.00445482
0.00447929
0.00449389
6.98872e-05
0.0006015
0.00116811
0.00165171
0.00206341
0.00241757
0.0027251
0.00299402
0.00323033
0.00343866
0.00362267
0.0037853
0.00392892
0.00405543
0.00416636
0.00426292
0.0043461
0.00441671
0.00447544
0.00452287
0.00455949
0.00458563
0.00460137
6.96996e-05
0.000605781
0.00118153
0.00167369
0.00209366
0.00245552
0.0027701
0.00304541
0.00328751
0.00350108
0.00368983
0.00385673
0.00400418
0.00413412
0.00424814
0.00434751
0.00443327
0.00450628
0.00456724
0.00461672
0.00465515
0.00468281
0.00469978
0.000296324
0.000614408
0.00119506
0.00169567
0.00212375
0.00249305
0.00281431
0.00309554
0.00334288
0.00356107
0.00375388
0.00392434
0.0040749
0.00420758
0.00432402
0.00442557
0.00451333
0.00458822
0.00465096
0.00470214
0.00474218
0.00477135
0.0047897
0.00029625
0.000619487
0.00120857
0.00171758
0.00215356
0.00252999
0.0028575
0.00314416
0.00339615
0.00361831
0.00381449
0.00398781
0.00414079
0.00427554
0.00439378
0.00449694
0.00458621
0.00466257
0.0047268
0.0047795
0.00482112
0.0048519
0.00487192
0.000296471
0.000624955
0.00122209
0.00173933
0.00218295
0.00256613
0.00289944
0.00319097
0.003447
0.00367246
0.00387133
0.00404681
0.00420156
0.00433777
0.00445726
0.00456159
0.00465201
0.00472959
0.00479516
0.00484939
0.00489271
0.00492539
0.0049475
6.98021e-05
0.0006273
0.00123541
0.00176078
0.00221177
0.0026013
0.00293989
0.00323571
0.00349513
0.00372324
0.00392412
0.00410113
0.00425704
0.00439418
0.0045145
0.00461965
0.00471102
0.00478974
0.00485671
0.00491264
0.00495799
0.00499303
0.0050178
0.000296861
0.000635868
0.00124861
0.00178186
0.00223988
0.0026353
0.00297862
0.00327811
0.00354028
0.00377038
0.00397265
0.00415061
0.00430718
0.00444484
0.00456568
0.0046715
0.00476377
0.00484374
0.00491238
0.00497041
0.00501831
0.00505633
0.00508448
7.00997e-05
0.000638626
0.00126154
0.00180247
0.00226714
0.00266795
0.00301541
0.00331794
0.00358224
0.00381373
0.00401684
0.00419526
0.0043521
0.00449
0.00461123
0.00471771
0.00481106
0.0048926
0.00496337
0.00502411
0.00507529
0.00511711
0.00514954
7.01333e-05
0.000643735
0.00127419
0.00182251
0.0022934
0.00269904
0.00305006
0.00335503
0.00362087
0.0038532
0.00405668
0.0042352
0.00439205
0.00453009
0.00465175
0.00475911
0.00485391
0.00493756
0.00501115
0.00507542
0.00513081
0.00517743
0.00521517
6.98881e-05
0.000647406
0.00128643
0.00184185
0.00231848
0.00272839
0.00308236
0.00338919
0.00365606
0.00388881
0.00409231
0.0042707
0.00442749
0.00456573
0.00468806
0.00479672
0.00489356
0.00498009
0.00505741
0.00512624
0.00518695
0.00523953
0.00528374
6.9901e-05
0.000652086
0.00129822
0.00186035
0.00234216
0.00275574
0.00311209
0.0034203
0.00368777
0.00392061
0.00412395
0.00430214
0.00445896
0.00459768
0.00472113
0.00483171
0.00493143
0.00502182
0.005104
0.00517862
0.00524592
0.00530575
0.00535771
7.00052e-05
0.000657213
0.00130948
0.00187778
0.00236415
0.00278079
0.00313902
0.00344819
0.00371598
0.00394876
0.0041519
0.00433002
0.00448715
0.0046268
0.00475202
0.0048654
0.00496902
0.00506449
0.00515285
0.00523467
0.00531001
0.00537849
0.00543952
7.00031e-05
0.000660606
0.00131995
0.00189385
0.002384
0.00280309
0.00316277
0.00347265
0.00374066
0.0039734
0.0041765
0.00435486
0.00451277
0.00465402
0.00478189
0.00489913
0.00500793
0.00510988
0.00520596
0.00529654
0.00538147
0.0054601
0.00553155
7.00807e-05
0.000663713
0.00132951
0.00190774
0.00240091
0.00282202
0.00318295
0.0034935
0.00376182
0.00399475
0.00419816
0.00437725
0.00453662
0.00468032
0.0048119
0.00493427
0.0050497
0.00515974
0.00526524
0.00536632
0.00546252
0.00555284
0.00563608
7.02995e-05
0.000666897
0.00133676
0.00191835
0.002414
0.00283689
0.00319906
0.0035105
0.00377947
0.00401302
0.0042173
0.00439779
0.00455943
0.00470661
0.00484312
0.00497207
0.00509578
0.00521572
0.00533251
0.00544598
0.00555525
0.00565889
0.00575529
7.0438e-05
0.000667496
0.00134012
0.00192431
0.00242206
0.00284672
0.00321045
0.00352328
0.00379354
0.00402841
0.00423429
0.004417
0.00458187
0.00473366
0.00487647
0.00501359
0.00514739
0.0052792
0.00540938
0.00553731
0.00566161
0.00578033
0.0058913
7.04355e-05
0.00066525
0.00133853
0.00192403
0.00242341
0.00285012
0.00321618
0.00353138
0.00380392
0.00404104
0.00424942
0.00443529
0.00460443
0.00476204
0.00491259
0.00505958
0.0052054
0.00535125
0.00549712
0.00564186
0.00578343
0.00591918
0.00604622
7.02604e-05
0.000660225
0.00133047
0.00191496
0.00241547
0.00284509
0.00321499
0.00353416
0.00381041
0.00405099
0.00426292
0.00445292
0.00462736
0.00479199
0.00495169
0.00511025
0.00527014
0.00543237
0.00559653
0.00576084
0.00592239
0.00607752
0.00622238
7.00578e-05
0.000652826
0.00131266
0.00189241
0.00239406
0.00282874
0.00320523
0.00353087
0.00381279
0.00405829
0.00427486
0.00446993
0.00465061
0.0048233
0.00499345
0.00516519
0.00534115
0.00552226
0.00570773
0.00589504
0.00608008
0.00625772
0.00642258
7.02282e-05
0.00063754
0.00127626
0.00184736
0.00235255
0.00279717
0.00318503
0.00352084
0.00381094
0.00406297
0.00428523
0.00448615
0.00467375
0.00485527
0.00503683
0.00522306
0.00541693
0.00561953
0.00582986
0.00604465
0.0062582
0.00646288
0.00665068
6.98372e-05
0.000598878
0.00120039
0.00176337
0.00228121
0.00274578
0.00315276
0.00350376
0.00380498
0.00406512
0.00429392
0.00450114
0.00469597
0.00488662
0.00508001
0.00528148
0.00549467
0.00572125
0.00596061
0.00620903
0.00645875
0.00669778
0.0069127
6.98766e-05
0.00050225
0.00104617
0.00161643
0.002169
0.00267104
0.00310814
0.00348032
0.00379555
0.00406506
0.00430079
0.00451429
0.00471611
0.00491554
0.00512039
0.00533695
0.00556992
0.0058224
0.00609531
0.00638586
0.00668435
0.00697086
0.00721865
8.95116e-05
0.000296802
0.000772298
0.00138629
0.00201109
0.00257482
0.0030544
0.00345307
0.00378417
0.00406337
0.00430574
0.0045249
0.00473283
0.00493988
0.00515482
0.00538497
0.00563658
0.00591515
0.00622531
0.00656874
0.00693748
0.0072993
0.00758595
0.000190728
0.000136232
0.000434096
0.00109298
0.00182547
0.00247173
0.00300102
0.00342727
0.00377337
0.00406102
0.00430877
0.00453228
0.00474478
0.00495752
0.00518004
0.00542066
0.00568729
0.00598859
0.00633541
0.006741
0.00721455
0.00772508
0.00804476
0.00041321
0.000140233
0.000213349
0.000839265
0.00167445
0.00239605
0.00296485
0.00341063
0.00376648
0.00405926
0.00431011
0.00453601
0.00475098
0.00496676
0.00519337
0.00543974
0.00571489
0.00603003
0.00640233
0.00686252
0.00747275
0.0083736
0.00864003
8.33358e-05
7.6134e-05
7.49828e-05
8.00059e-05
0.000714776
0.000674844
0.000673705
0.0007087
0.00133415
0.00129848
0.00129432
0.00132101
0.00181491
0.00179287
0.00178865
0.00180165
0.00219589
0.00218269
0.00217935
0.00218562
0.00250882
0.00250054
0.0024991
0.00250315
0.00278386
0.0027781
0.00277638
0.00277885
0.00302777
0.00302493
0.00302405
0.00302533
0.00324913
0.00324804
0.00324767
0.00324813
0.00345089
0.00345096
0.00345095
0.00345083
0.0036364
0.00363697
0.00363696
0.00363629
0.00380806
0.00380866
0.00380836
0.003807
0.00396741
0.00396783
0.00396707
0.00396496
0.00411544
0.00411563
0.00411438
0.00411155
0.00425277
0.00425277
0.00425112
0.00424769
0.00437989
0.0043798
0.0043779
0.00437406
0.00449722
0.00449719
0.00449521
0.00449118
0.00460518
0.00460537
0.00460352
0.00459952
0.00470428
0.00470487
0.00470334
0.00469963
0.00479514
0.00479632
0.00479537
0.0047922
0.00487862
0.00488064
0.00488051
0.00487817
0.00495585
0.00495898
0.00495998
0.00495879
0.00502829
0.00503286
0.00503534
0.00503565
0.00509771
0.00510411
0.00510846
0.00511068
0.00516617
0.00517486
0.00518152
0.00518608
0.00523598
0.00524743
0.00525689
0.00526428
0.00530956
0.0053243
0.00533707
0.00534777
0.00538942
0.00540799
0.00542459
0.00543909
0.00547801
0.00550094
0.00552188
0.00554068
0.00557769
0.00560552
0.00563128
0.00565482
0.00569072
0.00572392
0.00575494
0.00578361
0.00581922
0.00585823
0.00589488
0.00592897
0.00596525
0.00601045
0.00605302
0.00609274
0.0061309
0.00618261
0.00623128
0.00627669
0.00631845
0.00637691
0.00643175
0.00648275
0.00653069
0.00659604
0.0066569
0.00671312
0.00677141
0.00684354
0.00690995
0.00697058
0.00704619
0.00712447
0.00719521
0.00725865
0.00736357
0.00744603
0.00751843
0.00758165
0.00773641
0.00781792
0.00788641
0.00794394
0.00818206
0.00825062
0.00830454
0.00834745
0.00871483
0.00874681
0.00876936
0.008786
0.000422739
0.000850709
0.00117001
0.00136953
0.00148477
0.00154402
0.0015658
0.00156002
0.0015296
0.00147492
0.0014007
0.00131986
0.00123475
0.00114619
0.00104258
0.000893627
0.000682864
0.000400817
5.26509e-05
0.000928942
0.0012321
0.00147509
0.00164165
0.00174421
0.00179873
0.00181801
0.00181021
0.00177916
0.00172659
0.00165501
0.00156962
0.00146878
0.00135185
0.00120895
0.0010199
0.000769613
0.000442695
5.6423e-05
0.00142322
0.00161298
0.00178385
0.00191
0.00199126
0.0020345
0.00204735
0.00203538
0.00200182
0.00194841
0.00187719
0.00178649
0.00167038
0.00152783
0.0013527
0.00112954
0.000842712
0.000475545
5.80033e-05
0.00185084
0.00196496
0.00207939
0.00216825
0.00222631
0.00225483
0.00225844
0.00224028
0.00220204
0.00214492
0.00207025
0.00197151
0.00183931
0.0016748
0.00147352
0.00122243
0.000902759
0.00049602
5.99005e-05
0.0022113
0.00227927
0.00235144
0.00241199
0.00244984
0.00246323
0.00245644
0.00243084
0.00238637
0.0023223
0.00223554
0.00212526
0.00198323
0.00179721
0.00157211
0.00129635
0.000942404
0.000498604
6.22414e-05
0.0025173
0.00255424
0.00259795
0.00263656
0.00265579
0.0026562
0.0026399
0.00260601
0.00255273
0.00247668
0.00237537
0.00225181
0.00209256
0.0018999
0.00166503
0.0013755
0.00100212
0.000531727
6.54366e-05
0.00278749
0.00280779
0.00283162
0.00284813
0.00284931
0.0028354
0.00280671
0.00276071
0.00269402
0.0026039
0.00248974
0.00235221
0.00218415
0.00198189
0.00174046
0.00144398
0.00106337
0.000575557
6.92427e-05
0.00302984
0.00303908
0.00304591
0.003044
0.00302859
0.00299999
0.00295771
0.00289687
0.00281432
0.00270948
0.00258249
0.00243149
0.00225008
0.00203576
0.00178322
0.00147843
0.00109383
0.000598524
7.1525e-05
0.00324957
0.00324981
0.00324345
0.00322671
0.00319713
0.00315495
0.00309873
0.00302227
0.00292321
0.00280139
0.00265653
0.0024876
0.00229068
0.00206199
0.00179587
0.00148101
0.0010926
0.000596117
7.10732e-05
0.00345006
0.00344355
0.00342755
0.00339935
0.00335777
0.00330289
0.00323237
0.00314063
0.00302537
0.00288567
0.00272042
0.00252879
0.00231171
0.00206582
0.00178263
0.0014562
0.00106532
0.000576064
6.99336e-05
0.00363371
0.00362186
0.00359848
0.00356143
0.00350974
0.00344333
0.00335963
0.00325389
0.00312348
0.00296678
0.00278188
0.00256746
0.00232497
0.00205389
0.00175139
0.0014127
0.00102154
0.000549811
6.98632e-05
0.00380268
0.00378634
0.00375695
0.00371278
0.00365275
0.00357643
0.00348136
0.0033634
0.00321969
0.00304801
0.00284595
0.00261159
0.00234444
0.00204506
0.0017157
0.00135792
0.000962619
0.000515901
0.000296109
0.00395893
0.00393875
0.00390441
0.00385435
0.00378754
0.00370306
0.00359855
0.0034705
0.00331587
0.00313193
0.00291595
0.00266542
0.00237851
0.00205497
0.00169858
0.00131615
0.000911134
0.000487096
0.000295191
0.00410396
0.00408055
0.00404223
0.00398752
0.00391531
0.00382436
0.00371245
0.0035765
0.00341344
0.00322029
0.00299403
0.00273171
0.00243083
0.00209025
0.0017123
0.00130525
0.000882587
0.000464648
6.93011e-05
0.00423883
0.00421284
0.00417147
0.00411327
0.00403702
0.00394129
0.00382399
0.00368234
0.00351337
0.003314
0.00308104
0.00281124
0.00250151
0.00214974
0.00175642
0.0013286
0.000884569
0.00046116
0.000294783
0.00436429
0.00433646
0.00429291
0.0042323
0.00415332
0.00405445
0.00393367
0.00378846
0.00361596
0.00341313
0.00317664
0.00290296
0.00258841
0.00222967
0.00182514
0.00137843
0.000906968
0.000454986
6.97141e-05
0.00448092
0.004452
0.00440719
0.00434521
0.00426474
0.00416421
0.0040417
0.00389486
0.00372097
0.00351701
0.00327962
0.00300499
0.00268889
0.00232677
0.00191455
0.00145126
0.000947831
0.000451252
6.95932e-05
0.00458922
0.00456001
0.00451482
0.00445247
0.00437166
0.00427082
0.0041481
0.00400126
0.00382773
0.00362453
0.00338826
0.00311496
0.00279999
0.00243793
0.00202285
0.00154985
0.00102238
0.000481268
7.14142e-05
0.00468975
0.00466102
0.00461634
0.0045546
0.00447449
0.00437451
0.00425283
0.00410732
0.00393548
0.00373439
0.00350064
0.00323017
0.00291812
0.00255863
0.00214485
0.00166979
0.00113107
0.000552398
7.68515e-05
0.00478321
0.00475575
0.00471245
0.00465222
0.0045738
0.00447567
0.00435606
0.00421287
0.00404364
0.0038455
0.003615
0.003348
0.00303944
0.00268311
0.00227141
0.00179559
0.00124749
0.000632734
8.22354e-05
0.00487058
0.00484519
0.00480412
0.00474629
0.00467042
0.004575
0.00445825
0.00431808
0.00415205
0.00395725
0.00373015
0.00346648
0.00316084
0.00280642
0.00239437
0.00191326
0.00134837
0.000698034
8.76019e-05
0.00495316
0.00493067
0.00489268
0.00483809
0.00476557
0.00467358
0.00456032
0.00442367
0.00426113
0.00406972
0.00384577
0.00358474
0.00328077
0.00292611
0.00250999
0.00201888
0.00143525
0.00074695
9.20037e-05
0.00503259
0.00501389
0.00497985
0.00492931
0.00486088
0.00477297
0.00466369
0.00453088
0.00437193
0.00418374
0.00396244
0.00370315
0.00339942
0.00304248
0.00262096
0.0021187
0.00151426
0.000790013
9.50144e-05
0.00511087
0.00509688
0.00506767
0.00502199
0.00495836
0.00487508
0.0047702
0.00464144
0.00448607
0.00430082
0.00408159
0.00382306
0.0035185
0.00315851
0.0027302
0.00221543
0.00158969
0.000831289
9.74557e-05
0.00519025
0.00518196
0.00515848
0.00511844
0.00506027
0.00498215
0.00488202
0.00475746
0.00460559
0.00442298
0.00420529
0.00394696
0.00364066
0.00327634
0.00283996
0.00231161
0.00166411
0.000872143
0.000100044
0.0052732
0.00527161
0.00525475
0.00522112
0.00516902
0.00509654
0.00500148
0.00488128
0.00473292
0.00455273
0.00433612
0.0040772
0.00376816
0.00339831
0.00295261
0.00240959
0.00173953
0.0009136
0.000103116
0.00536225
0.00536836
0.00535898
0.00533249
0.00528706
0.00522067
0.005131
0.00501534
0.00487047
0.00469249
0.0044765
0.00421627
0.00390351
0.00352693
0.00307059
0.00251157
0.00181775
0.000956627
0.000106845
0.00545993
0.00547469
0.0054736
0.0054549
0.00541667
0.00535679
0.00527281
0.00516187
0.00502054
0.00484463
0.00462891
0.00436673
0.00404932
0.00366479
0.00319635
0.00261978
0.00190056
0.00100239
0.000111173
0.00556862
0.00559291
0.00560079
0.00559043
0.00555985
0.00550683
0.00542884
0.00532286
0.00518521
0.00501138
0.00479574
0.00453114
0.00420826
0.00381455
0.00333244
0.00273643
0.00198974
0.00105208
0.000115965
0.00569053
0.00572507
0.00574247
0.00574085
0.00571823
0.00567238
0.00560068
0.00549995
0.00536627
0.00519475
0.00497925
0.00471202
0.00438305
0.00397904
0.00348153
0.00286385
0.00208703
0.0011067
0.000121164
0.00582765
0.00587295
0.00590018
0.00590753
0.00589305
0.00585458
0.00578947
0.00569441
0.00556519
0.0053965
0.00518157
0.00491189
0.00457654
0.00416127
0.00364659
0.00300459
0.00219426
0.00116714
0.000126844
0.00598174
0.00603806
0.00607518
0.00609145
0.00608511
0.00605413
0.00599591
0.00590703
0.00578302
0.00561805
0.00540463
0.00513323
0.00479176
0.00436463
0.00383103
0.00316165
0.00231348
0.0012341
0.000133353
0.00615442
0.00622168
0.00626839
0.00629322
0.00629477
0.00627125
0.00622019
0.00613814
0.00602036
0.00586048
0.00565013
0.00537854
0.005032
0.00459307
0.00403906
0.00333887
0.00244746
0.00130873
0.000141009
0.00634723
0.00642488
0.00648044
0.00651311
0.006522
0.00650571
0.00646203
0.00638756
0.00627733
0.00612443
0.0059195
0.00565027
0.0053009
0.00485133
0.00427603
0.00354136
0.00260012
0.00139323
0.000149889
0.00656172
0.00664865
0.00671174
0.00675103
0.00676634
0.00675683
0.00672065
0.00665455
0.00655347
0.00640999
0.00621375
0.00595073
0.00560243
0.00514514
0.00454902
0.00377632
0.00277708
0.00149057
0.000160063
0.00679958
0.00689389
0.00696249
0.00700661
0.00702698
0.00702349
0.00699475
0.00693782
0.00684766
0.00671654
0.00653321
0.00628184
0.00594079
0.00548148
0.00486752
0.00405418
0.0029868
0.00160469
0.000171837
0.00706278
0.00716144
0.00723265
0.00727914
0.00730277
0.00730419
0.00728261
0.00723548
0.00715804
0.00704255
0.00687722
0.00664466
0.00631995
0.00586847
0.00524432
0.00439073
0.00324317
0.00174213
0.000185667
0.00735348
0.00745197
0.00752182
0.00756757
0.00759219
0.00759709
0.00758207
0.00754512
0.00748199
0.00738539
0.00724363
0.00703861
0.00674271
0.00631482
0.00569636
0.00481047
0.00357082
0.00191528
0.000202321
0.00767384
0.00776565
0.00782911
0.00787043
0.00789344
0.00790011
0.00789073
0.00786389
0.00781613
0.00774114
0.00762835
0.00746039
0.0072089
0.00682787
0.00624449
0.00535146
0.00401619
0.00215123
0.000223263
0.008025
0.00810153
0.00815276
0.00818572
0.00820447
0.00821109
0.00820614
0.0081888
0.00815659
0.00810476
0.00802497
0.00790274
0.00771265
0.00740911
0.00690981
0.00607076
0.00467182
0.00252015
0.000251498
0.00840525
0.0084566
0.00848983
0.00851094
0.00852313
0.008528
0.00852609
0.00851703
0.00849944
0.00847048
0.00842503
0.00835374
0.00823901
0.00804587
0.00770073
0.00704246
0.00572986
0.00324279
0.000290694
0.0088072
0.00882499
0.0088362
0.00884327
0.00884742
0.00884923
0.00884893
0.00884644
0.00884135
0.00883281
0.00881924
0.00879768
0.00876225
0.00870027
0.00858035
0.00831065
0.00757152
0.00520219
0.000343636
)
;

boundaryField
{
    leftWall
    {
        type            nutkWallFunction;
        Cmu             0.09;
        kappa           0.41;
        E               9.8;
        value           nonuniform List<scalar> 
50
(
1.94413e-06
3.07151e-06
3.72775e-06
4.20543e-06
4.58086e-06
4.89535e-06
5.173e-06
5.42806e-06
5.7645e-06
6.1953e-06
6.63082e-06
2.87504e-06
4.25944e-06
2.62967e-06
3.90593e-09
0
0
0
1.43824e-08
1.47012e-08
0
8.55876e-09
0
0
4.17558e-10
6.76721e-09
0
1.00913e-08
7.70755e-09
1.13098e-08
0
1.742e-08
1.70773e-08
1.92309e-08
4.98842e-10
5.9098e-10
1.64929e-08
1.35336e-08
2.50514e-08
6.14444e-08
8.41962e-08
8.34881e-08
5.39499e-08
2.13772e-08
2.71635e-08
0
9.7751e-09
3.20289e-06
1.84925e-05
4.87385e-05
)
;
    }
    rightWall
    {
        type            nutkWallFunction;
        Cmu             0.09;
        kappa           0.41;
        E               9.8;
        value           nonuniform List<scalar> 
50
(
2.69578e-06
3.48369e-06
3.93999e-06
4.35298e-06
4.74061e-06
5.12365e-06
5.50495e-06
5.88527e-06
6.37657e-06
6.83017e-06
7.02257e-06
3.80135e-06
4.17889e-06
2.79649e-06
4.32335e-07
2.65631e-07
1.87474e-07
5.76454e-09
0
1.04878e-08
0
0
2.41095e-09
0
0
3.88946e-07
1.28394e-06
2.16252e-06
3.02191e-06
3.61198e-06
4.08571e-06
4.47402e-06
4.88291e-06
5.38013e-06
5.97499e-06
6.64906e-06
7.39143e-06
8.17378e-06
9.0366e-06
1.00342e-05
1.12045e-05
1.25322e-05
1.40401e-05
1.57686e-05
1.77724e-05
2.01587e-05
2.31312e-05
2.70795e-05
3.24641e-05
3.95888e-05
)
;
    }
    lowerWall
    {
        type            nutkWallFunction;
        Cmu             0.09;
        kappa           0.41;
        E               9.8;
        value           nonuniform List<scalar> 
62
(
5.87951e-07
1.31203e-06
1.71267e-06
1.97435e-06
2.16626e-06
2.31583e-06
2.43707e-06
2.53781e-06
2.62202e-06
2.69241e-06
2.75203e-06
2.80452e-06
2.85202e-06
2.89183e-06
2.91402e-06
2.89687e-06
2.80649e-06
2.65761e-06
2.46467e-06
2.25665e-06
2.06223e-06
1.73843e-06
9.99116e-07
9.99116e-07
4.26368e-06
5.08939e-06
5.79121e-06
6.4649e-06
7.18868e-06
8.05434e-06
9.43394e-06
9.98096e-06
9.14776e-06
9.01259e-06
9.59374e-06
1.09848e-06
4.54479e-06
5.1295e-06
5.79135e-06
6.47853e-06
7.23089e-06
8.2231e-06
9.95016e-06
1.09848e-06
2.01571e-06
2.41746e-06
2.59384e-06
2.68827e-06
2.73155e-06
2.77218e-06
2.80674e-06
2.78881e-06
2.63801e-06
2.40462e-06
2.13561e-06
1.89073e-06
1.94903e-06
2.11935e-06
2.08695e-06
1.75408e-06
1.36811e-06
8.17661e-07
)
;
    }
    atmosphere
    {
        type            calculated;
        value           nonuniform List<scalar> 
46
(
0.009
0.000140233
0.000213349
0.000839265
0.00167445
0.00239605
0.00296485
0.00341063
0.00376648
0.00405926
0.00431011
0.00453601
0.00475098
0.00496676
0.00519337
0.00543974
0.00571489
0.00603003
0.00640233
0.00686252
0.00747275
0.009
0.009
0.009
0.009
0.009
0.009
0.009
0.009
0.009
0.009
0.009
0.009
0.009
0.009
0.009
0.009
0.009
0.009
0.009
0.009
0.009
0.009
0.009
0.009
0.000343636
)
;
    }
    defaultFaces
    {
        type            empty;
    }
}


// ************************************************************************* //
