/*--------------------------------*- C++ -*----------------------------------*\
  =========                 |
  \\      /  F ield         | OpenFOAM: The Open Source CFD Toolbox
   \\    /   O peration     | Website:  https://openfoam.org
    \\  /    A nd           | Version:  9
     \\/     M anipulation  |
\*---------------------------------------------------------------------------*/
FoamFile
{
    format      ascii;
    class       volScalarField;
    location    "24.85";
    object      p;
}
// * * * * * * * * * * * * * * * * * * * * * * * * * * * * * * * * * * * * * //

dimensions      [0 2 -2 0 0 0 0];

internalField   nonuniform List<scalar> 
918
(
23.4699
23.5776
0.955292
22.8873
1.01481
23.0941
3.27532
13.7862
19.2431
2.93425
2.62355
14.4092
20.637
16.8785
12.9947
0.92474
14.0529
2.24934
18.4608
1.39829
12.9937
20.4486
21.5373
19.2849
14.122
14.3736
18.5994
1.14648
0.108501
0.256121
0.978415
0.409897
0.147639
21.631
22.3076
22.2459
15.4957
10.4043
3.60012
3.8045
2.98576
2.80903
13.8288
13.9287
5.86877
13.7651
13.7609
16.6447
19.1112
19.2548
19.548
19.337
19.7234
5.97638
2.78582
2.60642
2.87563
2.94962
2.98257
2.69597
2.67762
2.48128
2.33532
13.8886
14.4823
14.5374
14.2686
14.2163
22.4537
21.6967
22.0314
21.1378
21.2832
20.2131
19.8276
17.2541
17.6066
16.4804
16.0995
12.7851
12.7462
13.2146
13.4644
0.145443
1.07546
1.22304
14.0599
14.0963
14.0964
14.1109
8.28665
2.19109
2.19415
17.9012
17.4776
20.4825
20.7497
20.1968
20.0112
1.53032
1.52576
1.15162
1.18165
0.950697
13.335
13.4891
19.2363
18.4032
14.1556
14.0556
14.1306
11.5008
13.9109
13.9843
15.3232
15.7787
14.968
15.4044
18.1694
17.7513
19.0359
19.4732
0.393541
0.154999
0.687306
0.318021
0.516539
15.3641
15.1586
15.6116
15.6624
15.8937
10.4091
10.3396
10.3832
10.3031
4.15159
4.46614
2.25833
2.57307
2.42404
9.86852
13.945
13.9917
4.81296
5.51713
5.18058
6.35132
6.72564
16.0103
16.4469
16.1857
17.732
16.9369
17.2851
19.8142
19.3034
19.6038
6.37152
6.60601
5.61062
5.25169
2.24084
2.4895
2.43199
2.98074
2.95853
3.21768
3.34647
2.69819
2.55499
2.89182
2.77514
2.82723
2.16494
2.03521
13.6127
13.3987
14.1516
14.3302
15.0974
14.949
14.6556
14.8244
19.0227
19.4261
19.4596
19.0754
11.5467
10.1569
13.7189
13.9944
0.302106
0.264756
0.138199
0.380926
0.400351
0.142064
2.01521
1.82675
1.40535
1.68089
14.0574
14.0172
8.52724
8.74677
8.12328
7.86697
16.3153
16.4655
17.0997
16.6995
1.96197
1.67595
1.80568
13.652
13.5245
13.6314
10.9359
10.3693
11.9785
12.2483
13.9924
14.0362
14.0321
15.6828
16.0013
19.824
20.0947
19.9215
20.3073
21.3701
21.0214
20.6366
14.5399
14.9483
14.7867
16.129
15.7626
15.9821
15.19
15.4946
15.3526
10.3712
10.4175
10.1217
10.1995
10.2479
10.195
9.80586
9.67895
14.0783
14.0334
14.0574
7.25362
7.75162
4.8711
4.54211
12.5445
13.2178
12.8933
18.6524
17.9747
18.7077
18.3368
17.8869
18.2104
10.4282
10.3898
10.4231
14.9187
14.2566
14.6085
2.44034
2.07601
2.23889
8.94275
9.03591
6.97439
7.59133
7.25425
16.3029
16.6433
17.3234
16.4352
16.9028
17.4101
17.1882
9.94169
10.0743
9.99127
9.66261
9.55623
9.73612
8.33678
8.95005
3.61314
4.27053
3.96597
9.20384
9.43352
9.28083
18.6309
19.1657
0.766308
1.15401
19.5958
19.3194
0.139959
0.242399
14.2551
12.5527
7.26394
17.1981
16.6307
18.9705
3.19292
6.10398
2.80766
3.381
2.68666
14.6163
14.2503
13.3414
0.453313
1.25699
1.70829
2.89916
18.4113
17.7361
18.8523
19.1724
19.2267
0.687791
0.913131
0.58413
1.24167
1.0307
1.27534
15.5518
15.6499
4.3259
18.8593
19.1635
19.1813
17.658
18.6107
17.6682
0.935871
0.642923
0.70785
10.0816
12.1224
14.2153
13.7679
13.9649
13.987
13.7379
14.8712
14.5407
14.5057
14.9905
13.9675
13.8223
7.7355
6.38465
8.07004
7.71037
17.0995
16.6874
16.4942
16.2399
18.0857
17.6118
18.4621
17.8506
18.3124
18.5992
2.94262
3.1325
3.01287
2.52196
6.14437
6.60874
5.48927
5.63579
4.26058
2.42644
2.52536
2.75191
2.58284
2.93123
2.67903
2.94318
2.57935
2.32403
2.32138
2.93062
2.73824
2.60412
14.5947
14.5332
14.334
14.3721
14.3546
14.4703
13.5359
13.9406
13.5684
12.3995
12.9806
12.5079
0.82626
0.663182
0.525189
1.32447
1.3517
1.11053
0.834544
1.17365
1.20164
0.813817
1.5446
1.44458
3.15783
2.6468
8.84361
7.97179
6.90156
16.8013
17.6031
16.7728
18.0135
18.4305
18.5359
18.1563
17.6481
15.7306
15.7257
15.3858
15.3392
4.77245
3.73407
4.96873
4.53784
10.4795
14.0662
11.8435
10.8047
11.101
13.425
13.9305
13.5828
13.7199
13.2949
12.823
13.515
13.0487
13.15
12.929
15.7195
16.1946
15.8011
15.2216
15.2416
10.6003
12.0166
5.46714
5.64101
7.24498
6.53908
13.5113
13.9338
13.9185
13.5572
13.745
13.746
13.6068
13.7809
13.8609
13.7554
11.8253
10.1448
9.04621
9.03981
14.0777
12.347
12.9313
12.4145
16.1212
16.6377
16.2524
15.6469
16.1319
15.6037
15.631
15.8441
17.2023
16.9519
16.7216
17.1085
3.05377
3.00232
3.64665
3.13484
3.03737
2.82151
3.48416
4.75848
4.4161
6.71937
7.26939
4.58005
3.37306
3.79288
4.80759
5.54189
5.51233
3.96966
4.50234
4.9303
4.44115
5.22638
4.73064
2.71746
3.02378
2.86194
2.83564
3.38219
3.88097
3.37627
2.47977
2.59089
2.25497
2.11754
3.53517
2.99373
3.03036
3.6779
1.10721
1.32933
1.44152
2.41344
1.91276
1.97903
15.1833
14.8274
14.961
14.2402
14.3077
14.2488
13.8733
15.2408
14.9628
15.0622
13.7107
13.7975
13.6107
13.906
14.322
14.6212
15.4531
15.1742
14.4133
14.5643
14.2152
14.1435
13.4655
12.9025
12.842
1.11294
0.82441
0.984048
0.910942
0.606733
0.79887
2.18357
1.57292
1.9701
1.72742
1.96041
1.40304
1.30226
4.25377
5.06306
3.96578
3.36715
3.06533
8.90168
9.01329
8.16211
7.85911
8.20072
8.43025
8.38014
7.13738
7.56516
7.37807
9.91794
9.58266
17.5875
17.5316
17.2028
17.0439
17.2704
5.76277
7.66579
6.8001
7.91641
10.2083
10.5041
9.31195
8.70638
9.45817
9.5358
14.0479
14.124
13.5649
14.0508
14.0792
11.8359
12.8831
13.498
13.3124
13.8323
13.9132
12.9743
13.563
13.4782
12.7608
12.8138
12.1287
12.4672
11.9953
11.7943
14.0569
13.9516
14.2213
13.7722
14.1515
13.7158
14.031
14.029
14.3096
13.4116
12.8329
12.8514
13.2776
12.9777
13.3236
13.4877
9.30921
9.94966
10.3888
10.9246
10.632
10.4138
10.2811
10.5828
10.5597
10.8309
10.7503
10.6011
11.5616
13.4176
13.7026
13.8041
13.6008
13.647
13.3396
13.6125
13.5418
13.9206
14.0086
14.0582
13.1389
13.2951
13.49
13.3737
11.676
10.0975
9.94987
9.50985
7.57775
8.04751
11.0261
9.90308
8.9185
8.99036
12.1694
10.8068
11.6201
12.0433
10.6949
10.3069
12.9721
13.7602
13.9801
13.7042
12.061
12.1868
12.6365
13.0798
13.2692
13.725
15.8611
16.4367
16.5146
16.2387
16.1007
16.2005
15.9506
16.0537
16.5278
16.6543
16.4856
2.87862
2.99219
2.9224
2.84779
3.08505
2.8603
3.95506
3.94548
3.15525
3.33584
3.35593
3.4616
2.92972
2.97294
4.82624
5.06211
5.33379
4.83236
6.17527
6.81849
7.40023
7.08437
5.78966
5.86982
6.18583
3.5063
3.53368
3.25171
3.70885
3.76143
2.60997
2.23758
2.04279
2.56228
2.66469
2.04942
1.76738
1.81634
2.33048
2.04952
1.80394
14.9758
14.7342
14.7555
14.5353
14.5899
14.9848
15.2056
15.0157
15.1541
15.2051
14.8042
14.6931
14.8642
1.81808
1.49349
1.62231
1.57994
1.64306
1.54912
1.73672
7.60719
6.41596
6.80341
5.97922
4.12168
4.64239
9.54096
9.96262
10.001
9.71264
9.50233
9.86804
9.71888
9.71177
8.26444
9.33423
8.86938
9.26398
9.28502
9.35299
9.06692
9.08152
10.5853
10.6188
9.4837
10.1236
9.33215
7.93295
8.09999
9.11356
10.0872
10.4063
10.2512
9.98094
9.75233
10.116
10.1707
10.2309
10.2202
8.75252
8.71219
8.31178
13.9696
13.8762
14.0227
14.0278
14.1548
13.9796
13.8166
14.0938
14.1481
13.9324
11.079
11.138
11.3838
12.1306
12.1827
12.0931
11.3378
13.1021
12.7576
13.3957
13.3424
13.4146
13.0048
12.828
13.0985
10.0816
11.4545
10.9873
11.2506
10.0641
9.30779
13.2244
13.2785
13.3439
13.617
13.5749
14.1583
15.831
15.7009
15.7482
15.7913
15.403
15.4402
4.17513
3.82862
4.5496
4.50568
4.06408
3.76414
2.28659
1.96846
1.78061
1.65532
1.88902
1.94992
8.16275
8.19045
6.33425
7.35628
5.87725
4.93584
4.79157
5.95588
7.13718
7.19645
8.51488
9.19202
8.75081
8.57636
7.92
8.25005
10.1183
10.2125
10.1131
10.432
9.96466
11.7138
11.296
11.6449
13.259
12.9685
12.3704
12.257
12.2219
12.815
11.9483
11.18
11.8925
12.5482
12.5064
11.1194
10.8744
11.3011
11.285
10.199
10.7193
10.4813
10.8337
10.5489
)
;

boundaryField
{
    wall-4
    {
        type            zeroGradient;
    }
    velocity-inlet-5
    {
        type            zeroGradient;
    }
    velocity-inlet-6
    {
        type            zeroGradient;
    }
    pressure-outlet-7
    {
        type            fixedValue;
        value           uniform 0;
    }
    wall-8
    {
        type            zeroGradient;
    }
    frontAndBackPlanes
    {
        type            empty;
    }
}


// ************************************************************************* //
