/*--------------------------------*- C++ -*----------------------------------*\
  =========                 |
  \\      /  F ield         | OpenFOAM: The Open Source CFD Toolbox
   \\    /   O peration     | Website:  https://openfoam.org
    \\  /    A nd           | Version:  9
     \\/     M anipulation  |
\*---------------------------------------------------------------------------*/
FoamFile
{
    format      ascii;
    class       surfaceScalarField;
    location    "24.85";
    object      phi;
}
// * * * * * * * * * * * * * * * * * * * * * * * * * * * * * * * * * * * * * //

dimensions      [0 3 -1 0 0 0 0];

internalField   nonuniform List<scalar> 
1300
(
11.2529
1.87548
-4.17548
11.2529
-4.99879
1.87548
-4.23997
4.23997
-1.18764
1.18764
5.7123
5.54056
-2.37391
2.37391
-2.81522
2.81522
-2.86021
2.86021
-1.06194
1.06194
-1.02826
1.02826
0.693164
-0.693164
-3.41858
3.41858
-1.4563
1.4563
-2.90558
2.90558
6.1281
-6.1281
-3.24748
3.24748
-0.743856
0.743856
-4.26321
15.5161
6.98965
6.98965
-2.37119
2.37119
-1.25395
1.25395
1.41034
-1.41034
9.0635
-9.0635
-4.88802
-5.89494
1.91216
-14.044
-3.08663
-3.08663
-2.7054
2.7054
-0.829928
1.04555
3.4768
-3.4768
-0.757382
0.757382
-4.32577
0.0857981
-4.32577
4.02391
0.216059
4.02391
-1.32892
0.141284
-1.32892
4.67705
-4.67705
1.07589
0.111751
1.07589
3.9281
-3.9281
-5.71006
11.4224
5.5428
-5.32064
20.8367
-5.93222
11.4728
-3.90592
3.90592
-2.29123
-0.0826788
-2.29123
2.37496
-0.00105457
2.37496
-4.00832
4.00832
-2.6053
-0.209926
-2.6053
2.91558
-0.100355
2.91558
3.66636
-3.66636
-2.91626
0.0560455
-2.91626
2.70852
0.151696
2.70852
0.771042
1.10443
-2.64652
3.69207
-1.10443
0.0424987
1.02614
0.0357986
1.02614
-1.01453
-0.0137254
-1.01453
1.04984
-0.0215799
1.04984
0.730226
-0.0370622
0.730226
-0.754881
0.0617169
-0.754881
-8.59653
-8.98194
-3.54412
0.125547
-3.54412
-1.47431
0.0180077
-1.47431
1.49247
-0.0361704
1.49247
-2.52827
2.52827
-3.2475
0.341915
-3.2475
4.80635
1.32175
4.80635
5.04612
6.20674
16.299
-16.299
10.1709
-2.96611
-0.281375
-2.96611
-3.41434
-5.64915
3.41434
-0.166861
-0.805614
0.0617578
-0.805614
5.62659
1.36306
5.62659
2.58631
0.122211
-2.58631
0.215113
4.62593
-4.62593
1.42334
0.947856
1.42334
-1.19154
1.19154
1.12337
-0.0735257
-1.12337
-0.130587
1.38601
0.0243318
1.38601
-1.40975
-0.000595753
-1.40975
7.30902
-13.204
-7.78056
3.22772
0.190857
-3.22772
0.141088
3.56354
-0.0867433
3.56354
-3.3097
3.3097
-3.61098
0.134183
-3.61098
-0.682414
-0.0749676
-0.682414
0.842317
-0.0849345
0.842317
-4.57413
0.24836
-4.57413
-3.6876
0.440105
3.6876
0.336311
1.25079
-1.25079
-1.43672
0.107798
-1.43672
-4.65768
0.0835466
4.65768
0.0193727
-4.77127
0.0942254
-4.77127
-3.71252
0.101537
3.71252
0.215578
4.58935
1.03724
-4.58935
0.661249
-5.36948
11.5762
-5.88338
11.4262
-3.52125
-0.384673
-3.52125
4.09796
-0.192039
4.09796
2.56707
0.338514
-2.56707
0.27584
2.50099
-0.126025
2.50099
-3.95193
-0.0563917
-3.95193
3.8106
0.197715
3.8106
2.54057
-0.0395812
-2.54057
-0.0647299
2.89114
0.0244343
2.89114
3.67233
-0.00596212
3.67233
-3.5394
-0.126968
-3.5394
3.17898
-3.17898
3.08062
0.0983626
-3.08062
0.164362
-5.07402
5.07343
-0.00799944
-5.06602
1.01814
1.01814
0.769116
-0.0388901
0.769116
-0.861793
0.106912
-0.861793
8.33666
-16.1172
8.79105
-17.3876
7.53654
-21.5806
8.10339
-17.0853
3.83045
-3.83045
3.76325
0.0671943
-3.76325
0.219132
-1.45613
-0.0181775
-1.45613
-2.2906
-0.23767
-2.2906
2.86123
-0.33296
2.86123
-3.7421
3.7421
-4.12478
0.382683
4.12478
0.681568
2.9534
-0.0622559
-2.9534
-0.0127079
0.924187
0.151701
-0.924187
0.118573
4.86315
-0.237223
4.86315
-4.08505
-0.540881
-4.08505
-1.47501
0.0188792
1.47501
-0.0516706
-1.25895
0.0674049
-1.25895
-5.0745
0.00847757
-5.0387
-1.40127
-1.40127
1.30414
4.9962
-3.58564
0.0462436
3.58564
-0.0220961
3.52706
0.215039
-3.52706
0.217357
-3.26329
0.0843054
3.26329
0.0464122
-0.659918
-0.0224968
-0.659918
-1.03518
1.03518
-0.917977
-0.117207
0.917977
-0.07566
1.4064
-0.155607
1.4064
1.47066
0.021808
-1.47066
0.0339404
-5.0106
0.239322
-5.0106
4.10872
-0.0107581
4.10872
-3.94896
-0.13609
3.94896
-0.276633
-0.00372292
5.07715
-1.01441
-0.000120185
1.01441
-5.10148
5.10136
-0.665295
0.00537787
0.665295
0.103821
1.02967
0.161874
-1.02967
0.167875
3.85254
-0.041934
-3.85254
0.0220907
-2.00907
-0.281531
-2.00907
-3.18948
-0.331768
3.18948
-0.328249
-5.11518
-0.0779371
5.19312
-5.13676
1.33688
0.0491258
-1.33688
5.15049
-1.14419
-0.106601
1.14419
-0.109003
1.60494
-0.198543
1.60494
5.12034
-0.25719
-5.12034
0.109748
-4.12628
0.174352
4.12628
-0.017559
-1.77647
-0.232599
1.77647
-0.171535
-13.1281
14.4911
7.70865
-6.27719
-6.92677
-11.9263
4.4471
7.12912
14.618
-11.8091
-9.77148
-11.668
2.86006
-2.69219
-3.72766
3.6906
23.5892
-23.495
-18.3992
19.0808
20.777
-20.5614
5.70885
5.71351
15.8289
-15.9115
-20.9257
20.541
15.3666
-15.5765
22.0804
-22.1368
-25.8397
25.7978
-16.093
16.1491
-20.2942
20.1673
-21.0574
20.7808
-8.33658
-9.051
16.5201
-16.3946
19.9938
-20.2752
-19.3644
19.7063
10.0475
4.44359
11.0848
-6.24673
11.9556
-5.22605
12.9347
8.30555
-16.6421
7.81166
-14.7384
9.0475
10.9463
-8.88064
-3.0457
-17.9699
17.8832
-17.257
17.3034
24.1163
-24.0305
-6.17283
11.8863
-5.25335
12.3825
-11.409
-6.9902
10.0873
4.53073
8.98921
7.53092
-9.18007
-2.48794
-24.7977
24.5405
-25.6593
25.1184
0.100149
2.42595
-2.5261
1.3541
-0.862651
3.2886
1.99741
2.10432
2.45271
-2.29084
0.239474
-2.76557
-2.89616
-5.34116
5.44896
5.15797
-5.04621
16.5438
7.0454
16.5632
-16.7481
-6.74685
-16.5088
11.3637
7.71706
11.7464
12.0617
8.71534
12.1632
10.359
-10.3317
-0.0273157
-11.4776
21.8367
1.55465
-18.4678
-13.9371
8.83169
6.99716
8.83064
-9.87786
-6.03367
-9.60202
-11.0288
-9.89689
-11.3606
12.338
8.20299
12.146
-15.3384
15.3209
9.26254
6.10403
9.16219
-8.94951
-6.627
-9.01424
27.4902
-6.67529
-20.815
-13.2
-12.6397
13.0023
9.07814
14.3536
11.4441
14.3757
8.91678
18.5735
-17.9949
5.35522
-9.94713
-6.14591
-9.78277
9.25823
6.89086
9.40992
-11.7667
-8.52752
-11.7205
-11.9868
-9.07059
11.9928
8.17449
-12.5342
-13.1251
12.6703
8.11053
7.85006
-17.6215
9.23527
-18.2863
-10.9708
-5.42375
-10.7517
10.795
6.66911
-17.4641
-5.84714
23.6313
-12.685
20.5856
-10.8934
-9.38182
-10.9061
-14.7916
-4.57276
-14.3515
-7.9971
7.71557
-8.83169
8.49873
26.8869
-16.2293
-10.6576
-12.3784
-8.18309
11.7171
-0.632339
-12.8358
12.8085
-0.880187
12.0545
16.4981
15.8658
-10.8802
-6.37677
-10.6629
10.2702
7.03321
10.3545
16.0971
8.01919
16.3131
-16.813
-7.21746
-16.5646
4.84273
-4.91769
5.71392
-5.69504
15.5789
9.53954
-15.3417
-9.45606
22.9311
-10.7752
-12.1559
-5.11978
5.21465
-0.0948694
-1.83117
-0.477071
0.266785
-1.93105
-1.79661
1.86933
0.234992
5.44964
3.65302
-2.41437
2.48177
2.77875
2.70523
-0.190936
2.49943
-2.49405
18.9057
-11.4351
-7.4706
13.9671
-13.8836
-2.5975
-19.3256
16.7281
2.67958
3.00397
-2.94222
-3.94886
-1.39231
-3.91492
2.95251
2.20545
3.10421
2.10738
3.34159
-8.10461
1.56334
6.54126
-5.99723
-3.48287
-13.3465
-6.26805
19.6146
16.6777
7.86282
-16.7875
0.278648
5.29351
-5.32968
-1.59757
-11.749
8.34971
-9.94728
-15.2179
-6.46057
21.6785
-9.58079
-1.0821
9.36575
2.38065
-10.8773
-7.09262
10.7431
1.42013
-12.0645
23.9708
-11.9063
-18.4413
8.51578
13.3209
16.2328
-17.8628
9.31887
8.5439
-4.54189
7.41818
1.41246
7.29216
-19.9122
13.8785
11.3096
8.39672
-11.6481
2.04608
-17.8661
25.1665
-22.2858
-2.88073
12.815
12.3515
13.5603
13.3266
-7.79137
21.3517
-3.62103
-18.6648
21.4871
-13.0904
15.7842
-28.8747
-29.1108
10.4461
-17.9679
22.089
-4.12109
-5.21169
-10.1267
23.1796
-2.00849
-21.1712
10.1375
-13.9234
-11.8406
25.764
-20.5987
18.4676
-6.26241
-12.2052
-12.6844
-9.45243
12.51
2.81084
-25.8699
31.2252
-7.29648
7.79724
1.36495
7.82167
10.6085
-15.976
5.36752
9.99018
-16.2526
6.7589
-22.7349
-12.1677
24.1957
-12.028
-17.5915
-15.8085
-1.78297
4.87157
26.3536
-16.3157
12.1173
4.19839
8.4618
1.89272
-8.56016
-1.22261
0.968158
16.0867
-17.0549
10.3781
10.5003
11.7048
4.38189
10.7702
7.11295
-10.7481
-0.972378
-14.7927
5.72207
-6.61817
-14.574
20.296
-16.2678
1.69387
-10.3032
-13.9907
24.2939
-16.4491
11.4255
12.5452
18.4587
-19.615
5.62428
-9.7464
-9.86859
10.6436
-17.2617
7.49816
12.7979
15.6087
2.48354
12.7553
11.4405
-19.4244
1.13808
18.9714
-16.4835
3.89609
10.4796
-16.0134
0.204882
-10.5468
2.65488
-15.3399
-14.8092
16.528
-21.1007
-12.3467
13.5582
2.75495
-13.8945
-0.457025
-4.95831
-3.03879
-5.19091
-3.2813
-5.55038
-11.0727
-1.92752
-9.14516
5.78805
-6.69499
-4.66558
7.02324
1.47549
-4.93826
4.83165
-5.58411
5.38557
-0.210171
13.0186
15.6556
7.47251
-8.47673
15.9492
-15.6044
23.6236
-29.7243
14.1199
15.9499
-23.1674
-13.7744
2.70214
2.14059
2.61721
13.455
-14.4192
0.964179
-13.2843
17.6084
-4.3241
-19.59
6.30572
-6.13499
5.18703
0.526896
5.16885
1.4165
6.8462
-8.2627
-4.27854
-4.33021
-9.16299
-13.8593
23.0223
4.73599
-13.1053
8.36931
-12.0631
16.7991
0.0788982
-13.1842
16.9854
-10.1392
17.5123
-11.9842
5.52813
12.7918
22.3472
-9.55535
16.2479
-6.70836
7.06748
-16.6228
-6.79185
-11.2884
18.1793
-13.0055
14.6993
-1.12445
15.8238
-13.7776
3.00242
-2.07277
8.42752
8.64264
16.8088
-12.4269
11.9699
-18.6783
-4.65289
-16.1948
-3.39688
1.0212
-13.8288
12.8076
12.0491
-11.0279
-3.24297
8.98742
-5.74445
5.68373
-2.84894
-2.83478
-1.84699
-3.07071
1.86948
0.629949
6.31368
0.489408
-3.33835
-2.00465
-1.90083
10.3756
8.53009
-3.83271
3.73784
3.56592
-0.561947
0.958874
2.14534
4.58817
-3.62929
0.678306
3.90986
-2.26391
3.82811
1.46539
-3.84992
-0.0649953
-3.40832
11.758
3.13294
-5.33839
1.7091
2.38119
-13.8163
19.7421
-11.4166
-8.32544
22.1233
3.0622
-14.4788
16.2634
-13.5838
8.1026
-14.3706
-6.37624
-19.96
-12.9146
-10.7099
19.0793
-12.3124
20.1752
3.86132
-20.4538
24.3152
-12.7404
6.27982
-9.44401
10.9094
-4.05869
-5.38531
11.2665
10.412
-11.0539
-0.695089
0.212587
8.42034
-8.20775
-1.52694
-7.52417
-16.4089
17.829
-8.25571
17.5746
7.69353
-7.63401
25.2086
6.56497
-14.199
-11.8763
-12.9584
-5.65508
10.5778
-1.79392
-7.22031
-13.9991
7.25989
0.0322607
-19.0584
22.0481
-2.98968
-12.0613
-1.81723
14.6323
-18.0868
1.83425
-11.3279
10.7202
12.1326
12.1649
-20.8577
-0.31341
-12.6547
3.17531
-15.8301
15.5268
-6.80446
17.2505
-16.0227
11.3571
-14.5472
14.3698
-1.46025
14.7543
-9.38682
6.06062
-15.513
-12.7022
14.4584
-8.35436
15.8233
-10.1132
25.9365
-17.4096
14.3962
11.5403
-2.71393
-8.19213
-13.9635
11.2495
0.432716
8.25439
17.8373
-10.7243
16.8649
8.92437
-18.6708
-8.33736
-25.8596
7.18888
-13.3144
-7.35655
14.5454
11.1022
12.9949
4.67684
-11.7723
17.794
-19.577
-5.76603
-9.04319
14.5717
-3.32214
10.15
-19.1932
-5.18984
13.1105
-0.187614
-12.9229
3.1188
-15.4655
5.12611
-20.5916
15.9746
-16.4317
1.77068
-7.90567
-3.16757
-3.27658
-2.17363
-3.41048
-7.57129
5.39766
-1.26557
3.56609
-12.527
12.3394
-5.08141
10.4791
-4.06071
-1.1302
4.23224
1.15332
11.6324
3.02746
-16.8018
-9.25773
14.6274
-5.36971
1.11787
-10.8014
3.82606
8.09827
14.025
-24.8263
1.65897
-15.1429
-4.07159
6.21217
4.91583
16.9649
2.54574
6.55464
-0.342461
9.10037
2.27474
2.19908
-11.2218
12.186
1.58578
15.7056
-1.88302
7.41115
3.28583
3.30384
2.02584
5.72268
2.91996
8.7251
0.462396
-3.86781
2.06814
-3.96897
-1.27021
-4.00786
-0.31726
3.72575
-4.04301
10.4984
-1.96831
5.12869
-1.88285
-4.93447
6.81732
-9.35345
-5.49642
-1.58656
-5.60751
7.31661
6.15052
-5.73006
-3.62339
2.39185
-15.3065
11.9788
-12.6739
-2.26184
22.0533
-9.46239
1.25465
-3.18257
-6.26953
-7.66183
7.72683
24.1899
1.01866
12.2837
18.8477
11.755
1.03073
11.9855
-16.1065
-10.7494
-16.42
-0.893159
13.7391
5.62065
20.7329
17.161
13.8389
-5.35434
-24.9313
20.7265
-8.54046
16.4024
-3.4795
-17.1121
14.6434
8.98026
-17.3983
0.966646
-16.1454
-24.6859
-0.342412
12.6818
-11.29
10.1598
7.12099
2.02417
-2.42662
-0.849952
2.54383
-0.344746
8.75563
-0.188504
-8.19686
8.38536
-3.53724
2.26703
-0.430113
4.16795
6.3872
4.41889
-3.77797
-7.82097
-8.81823
-4.99804
-17.1437
2.47091
-8.62143
5.68253
-3.4155
2.84775
4.96986
10.0986
-1.60143
-9.42648
7.34588
-4.49813
5.60042
)
;

boundaryField
{
    wall-4
    {
        type            calculated;
        value           uniform 0;
    }
    velocity-inlet-5
    {
        type            calculated;
        value           uniform -11.2529;
    }
    velocity-inlet-6
    {
        type            calculated;
        value           uniform -1.87548;
    }
    pressure-outlet-7
    {
        type            calculated;
        value           nonuniform List<scalar> 8(4.17548 4.99879 10.783 12.1319 17.5785 15.0896 17.1277 15.6399);
    }
    wall-8
    {
        type            calculated;
        value           uniform 0;
    }
    frontAndBackPlanes
    {
        type            empty;
        value           nonuniform List<scalar> 0();
    }
}


// ************************************************************************* //
