/*--------------------------------*- C++ -*----------------------------------*\
  =========                 |
  \\      /  F ield         | OpenFOAM: The Open Source CFD Toolbox
   \\    /   O peration     | Website:  https://openfoam.org
    \\  /    A nd           | Version:  9
     \\/     M anipulation  |
\*---------------------------------------------------------------------------*/
FoamFile
{
    format      ascii;
    class       volScalarField;
    location    "8.95";
    object      nut;
}
// * * * * * * * * * * * * * * * * * * * * * * * * * * * * * * * * * * * * * //

dimensions      [0 2 -1 0 0 0 0];

internalField   nonuniform List<scalar> 
2268
(
8.79239e-06
1.04153e-05
1.26656e-05
1.41914e-05
1.53374e-05
1.62392e-05
1.69642e-05
1.75517e-05
1.80286e-05
1.84184e-05
1.8745e-05
1.90294e-05
1.92781e-05
1.94666e-05
1.95258e-05
1.93394e-05
1.88786e-05
1.81654e-05
1.71336e-05
1.58613e-05
1.45531e-05
1.21884e-05
8.37612e-06
2.03571e-05
8.55398e-05
0.000116492
0.000135981
0.000149997
0.000160682
0.000169034
0.000175626
0.000180858
0.000185041
0.00018841
0.000191123
0.000193183
0.000194349
0.000194106
0.000191616
0.000184501
0.000174056
0.000160185
0.000146986
0.000135248
0.000100033
2.667e-05
2.4415e-05
0.000144986
0.000216487
0.000262859
0.000296368
0.00032193
0.000341915
0.000357685
0.000370181
0.000380112
0.000388038
0.000394353
0.000399132
0.000401897
0.000401506
0.00039602
0.000381994
0.000361172
0.000334268
0.000303381
0.000262594
0.000173866
3.17555e-05
2.74169e-05
0.000186779
0.000295495
0.00036874
0.000422435
0.000463686
0.000496088
0.000521768
0.000542194
0.000558463
0.000571434
0.000581712
0.000589438
0.000593958
0.000593632
0.000585696
0.000566252
0.000536958
0.000498501
0.000448187
0.000372476
0.000232591
3.61842e-05
2.97961e-05
0.000218325
0.00035927
0.0004575
0.000530618
0.000587245
0.000631962
0.000667564
0.000696006
0.000718738
0.000736869
0.000751168
0.000761833
0.00076809
0.000767974
0.000758237
0.00073471
0.000698557
0.00064952
0.00058002
0.000469889
0.00028313
4.05327e-05
3.1797e-05
0.000243508
0.000412161
0.000533166
0.000624553
0.000695897
0.000752523
0.000797796
0.000834109
0.000863227
0.000886462
0.000904713
0.000918228
0.000926164
0.000926393
0.000915462
0.000889049
0.000847477
0.00078911
0.000702299
0.000561196
0.000329002
4.53545e-05
3.35651e-05
0.000264382
0.000457027
0.000598731
0.000707182
0.000792482
0.000860499
0.00091508
0.000959016
0.000994349
0.00102256
0.00104464
0.0010609
0.00107047
0.00107119
0.00105963
0.00103145
0.000985919
0.000920073
0.000819396
0.000653387
0.000378766
5.13702e-05
3.52193e-05
0.000282079
0.000495801
0.000656406
0.000780795
0.00087928
0.000958132
0.00102161
0.00107288
0.00111421
0.00114724
0.00117302
0.00119195
0.00120314
0.00120452
0.00119282
0.00116392
0.00111605
0.00104511
0.000935524
0.000754814
0.00044766
6.11911e-05
1.03402e-05
1.49493e-05
1.75441e-05
1.8458e-05
1.88532e-05
1.90342e-05
1.89946e-05
1.88659e-05
1.85016e-05
1.7945e-05
1.71263e-05
1.59541e-05
1.54124e-05
1.53633e-05
1.48552e-05
1.37594e-05
1.19215e-05
9.76984e-06
9.74482e-06
3.3454e-05
0.000117429
0.000157619
0.000176761
0.000185852
0.000189657
0.00019044
0.000188376
0.000183505
0.000177417
0.00016525
0.000148683
0.000143819
0.000151039
0.000145002
0.000131642
0.000108699
7.3448e-05
2.35316e-05
3.70275e-05
0.000206432
0.000303189
0.000352522
0.00037663
0.000386936
0.00038926
0.000385096
0.000374654
0.000360135
0.000340315
0.000315922
0.000304845
0.00030557
0.000289828
0.000258316
0.000204795
0.00012363
2.82059e-05
3.91453e-05
0.000270719
0.00042409
0.000506776
0.000548564
0.00056714
0.000572049
0.000566608
0.000551611
0.000530521
0.000505708
0.000477365
0.000458242
0.000445742
0.000417084
0.000366721
0.000284817
0.00016571
3.19735e-05
4.15547e-05
0.000319519
0.000527199
0.000642326
0.000701913
0.000729277
0.000737399
0.000731528
0.00071332
0.000687613
0.00065886
0.000626926
0.000598929
0.000571924
0.000529019
0.000460963
0.000355428
0.000205736
3.52025e-05
4.55398e-05
0.000364214
0.000621309
0.000765088
0.000840568
0.000876097
0.000887491
0.000881771
0.000861512
0.000832526
0.000800238
0.000764078
0.000727031
0.000686072
0.000629043
0.000544792
0.000419501
0.000243928
3.80845e-05
5.18068e-05
0.000418944
0.000715415
0.000880592
0.000968442
0.00101062
0.00102484
0.00101949
0.000997965
0.000966512
0.000930783
0.000889756
0.000843812
0.000789948
0.000719408
0.000619987
0.000476701
0.000277746
4.07881e-05
6.34876e-05
0.00049605
0.0008164
0.000993189
0.00108879
0.00113552
0.00115173
0.00114662
0.00112424
0.00109078
0.00105155
0.00100522
0.000950716
0.000885062
0.000801577
0.000687207
0.000526268
0.000305041
4.33167e-05
3.73865e-05
0.000305878
0.000548544
0.000736187
0.000883917
0.00100199
0.00109714
0.0011742
0.00123683
0.00128764
0.00132835
0.00136008
0.00138331
0.00139717
0.00139988
0.00138861
0.00135995
0.00131087
0.00123598
0.00112147
0.000943138
0.000676629
0.000336139
4.02103e-05
0.000330676
0.000606671
0.000827021
0.00100278
0.00114391
0.00125801
0.00135085
0.00142684
0.00148897
0.00153904
0.00157811
0.00160659
0.0016241
0.00162957
0.0016211
0.00159603
0.00155138
0.00148237
0.00138007
0.00123145
0.00102633
0.00077293
4.36025e-05
0.000348287
0.000658392
0.000910864
0.00111162
0.0012719
0.00140128
0.00150691
0.00159422
0.00166643
0.00172525
0.00177148
0.00180549
0.00182748
0.00183708
0.0018333
0.00181457
0.0017788
0.0017225
0.00164061
0.00152787
0.00138413
0.00122675
4.90405e-05
0.000358372
0.000711193
0.000996842
0.00121737
0.00139179
0.00153222
0.00164709
0.00174342
0.0018245
0.00189158
0.00194527
0.00198543
0.00201277
0.00202769
0.00202997
0.00201905
0.00199347
0.00195115
0.00189025
0.00180956
0.00171452
0.00162353
5.39835e-05
0.000417839
0.000797241
0.00108843
0.00131476
0.0015002
0.00165188
0.00177537
0.00187939
0.00196825
0.00204298
0.002104
0.00215028
0.00218245
0.00220241
0.00221033
0.00220638
0.00218949
0.00216142
0.00212103
0.00206615
0.00200502
0.00195212
0.00024414
0.000467511
0.000827293
0.00112017
0.00136623
0.00157216
0.00174141
0.00188055
0.00199659
0.00209499
0.00217817
0.00224723
0.00230163
0.00234071
0.0023655
0.00237825
0.00238069
0.00237032
0.0023497
0.00232607
0.00229453
0.00225708
0.00222315
0.000253163
0.000560058
0.000878864
0.00116684
0.00141877
0.001635
0.00181742
0.00196966
0.00209784
0.00220652
0.00229851
0.00237546
0.00243733
0.00248324
0.00251418
0.00253259
0.00254043
0.00253783
0.00252652
0.00251353
0.00249867
0.0024809
0.00246412
0.000275021
0.000600362
0.000921116
0.00121226
0.00146918
0.0016928
0.0018849
0.00204813
0.00218692
0.00230528
0.00240605
0.00249109
0.00256047
0.00261372
0.002652
0.0026772
0.00269142
0.00269698
0.00269601
0.00269288
0.00268908
0.00268402
0.00267886
0.00028638
0.000622712
0.000953147
0.00125126
0.00151494
0.0017459
0.00194631
0.00211886
0.00226713
0.00239452
0.00250381
0.00259685
0.00267397
0.00273495
0.00278101
0.00281411
0.00283621
0.00284997
0.002858
0.00286325
0.00286736
0.00287041
0.0028727
0.000292528
0.000636185
0.00097646
0.00128355
0.0015555
0.00179442
0.00200293
0.00218405
0.00234105
0.00247688
0.00259413
0.00269465
0.00277913
0.00284781
0.00290195
0.00294332
0.00297362
0.00299529
0.00301092
0.00302289
0.00303271
0.00304086
0.00304731
0.00029453
0.000642398
0.000992718
0.00131024
0.00159149
0.00183892
0.00205568
0.00224499
0.00241011
0.00255377
0.00267836
0.00278577
0.0028771
0.00295306
0.00301486
0.00306403
0.00310203
0.00313093
0.00315306
0.00317049
0.00318457
0.0031958
0.0032041
0.000294989
0.000644016
0.00100495
0.00133346
0.00162434
0.00188038
0.00210525
0.00230246
0.00247513
0.00262595
0.00275723
0.00287097
0.00296858
0.00305111
0.00311976
0.00317581
0.00322058
0.00325582
0.00328352
0.00330547
0.00332281
0.00333598
0.00334484
0.000294507
0.000639691
0.00101477
0.00135472
0.00165513
0.00191963
0.00215232
0.00235695
0.00253663
0.00269394
0.00283127
0.00295073
0.00305394
0.00314222
0.00321676
0.00327866
0.0033292
0.00336984
0.00340226
0.00342797
0.00344789
0.00346241
0.00347135
0.000294294
0.000635991
0.00102439
0.00137476
0.0016844
0.00195716
0.00219735
0.00240885
0.00259483
0.00275796
0.00290074
0.00302531
0.00313345
0.00322662
0.00330608
0.00337291
0.00342828
0.00347345
0.00350985
0.00353869
0.00356074
0.00357634
0.00358538
0.000295167
0.000640826
0.00103369
0.00139374
0.00171247
0.00199327
0.00224062
0.00245846
0.00265012
0.00281845
0.00296603
0.00309507
0.00320745
0.00330474
0.00338826
0.00345915
0.0035185
0.00356743
0.00360715
0.00363863
0.00366256
0.00367922
0.0036886
0.000295004
0.000636911
0.0010416
0.00141195
0.00173962
0.0020282
0.00228231
0.00250601
0.00270281
0.00287576
0.00302754
0.00316044
0.00327642
0.00337712
0.00346396
0.00353812
0.00360068
0.00365271
0.00369519
0.00372898
0.00375466
0.00377252
0.00378262
0.000294621
0.000630394
0.00104926
0.00142977
0.00176616
0.00206218
0.0023226
0.00255167
0.0027531
0.00293013
0.00308554
0.00322172
0.00334069
0.0034442
0.00353372
0.00361052
0.00367569
0.00373025
0.0037751
0.00381098
0.00383842
0.00385771
0.00386896
0.000294772
0.000627824
0.00105692
0.0014474
0.00179228
0.00209538
0.00236165
0.00259561
0.00280117
0.00298175
0.00314024
0.00327913
0.00340057
0.00350635
0.00359805
0.00367699
0.00374432
0.00380105
0.00384801
0.0038859
0.00391521
0.00393625
0.00394913
0.000295261
0.000627257
0.00106472
0.00146499
0.00181811
0.00212792
0.00239961
0.00263797
0.00284717
0.00303076
0.00319181
0.00333291
0.00345631
0.00356393
0.00365741
0.00373816
0.00380736
0.00386605
0.00391505
0.00395503
0.00398645
0.00400962
0.00402467
0.000294386
0.000617154
0.00107232
0.00148266
0.00184377
0.0021599
0.00243659
0.00267889
0.00289121
0.00307732
0.00324043
0.00338328
0.00350824
0.00361734
0.00371232
0.00379467
0.00386563
0.00392626
0.00397739
0.00401968
0.00405358
0.00407937
0.00409717
0.000294832
0.000616252
0.0010804
0.00150049
0.00186929
0.0021914
0.00247265
0.00271843
0.00293341
0.00312156
0.00328629
0.0034305
0.0035567
0.00366703
0.00376336
0.00384724
0.00392
0.00398272
0.00403624
0.00408122
0.00411809
0.00414709
0.0041683
0.000294653
0.000611038
0.00108872
0.00151846
0.00189471
0.00222244
0.00250785
0.00275668
0.00297387
0.00316365
0.00332962
0.00347488
0.00360209
0.00371354
0.00381119
0.0038967
0.00397145
0.00403656
0.00409289
0.00414108
0.00418153
0.00421443
0.00423979
0.000295219
0.000610914
0.00109729
0.00153655
0.00192001
0.00225302
0.00254221
0.00279369
0.0030127
0.00320375
0.00337068
0.00351678
0.00364489
0.00375745
0.00385654
0.00394391
0.00402101
0.00408898
0.00414869
0.00420075
0.0042455
0.00428308
0.0043134
0.000295234
0.000607659
0.00110621
0.0015548
0.00194518
0.00228313
0.00257574
0.0028295
0.00305001
0.00324206
0.00340975
0.0035566
0.00368563
0.00379944
0.00390023
0.00398985
0.00406979
0.00414123
0.00420502
0.00426172
0.00431161
0.00435473
0.00439089
0.000294973
0.000603496
0.00111543
0.00157318
0.00197017
0.00231274
0.00260843
0.00286416
0.00308591
0.00327878
0.00344715
0.00359477
0.00372487
0.00384021
0.00394311
0.0040355
0.00411894
0.00419459
0.00426328
0.0043255
0.00438145
0.00443104
0.00447394
6.95325e-05
0.000598223
0.00112498
0.00159158
0.00199489
0.00234175
0.00264022
0.00289769
0.00312051
0.00331413
0.00348321
0.00363177
0.00376322
0.0038805
0.00398605
0.00408189
0.00416958
0.0042503
0.00432482
0.00439353
0.00445652
0.00451356
0.00456415
0.000295
0.000600372
0.00113481
0.00160991
0.00201921
0.00237004
0.00267105
0.00293007
0.00315389
0.0033483
0.00351826
0.00366804
0.00380126
0.00392103
0.0040299
0.00412996
0.00422279
0.00430954
0.00439089
0.00446715
0.00453822
0.00460372
0.00466297
0.000295135
0.000599751
0.00114481
0.00162807
0.00204295
0.00239745
0.00270077
0.00296126
0.00318611
0.00338147
0.0035526
0.00370401
0.00383955
0.00396247
0.00407544
0.0041806
0.00427954
0.00437335
0.00446262
0.0045475
0.00462775
0.00470277
0.00477167
0.000295098
0.000598859
0.00115486
0.00164575
0.00206581
0.00242369
0.0027292
0.00299117
0.00321719
0.00341378
0.00358647
0.00374004
0.00387854
0.00400537
0.00412331
0.00423453
0.00434061
0.00444257
0.0045409
0.00463556
0.00472612
0.00481174
0.0048913
6.96636e-05
0.000596889
0.00116471
0.00166263
0.00208742
0.00244843
0.00275607
0.00301963
0.00324711
0.00344531
0.00362008
0.00377643
0.00391861
0.00405017
0.00417398
0.00429225
0.00440655
0.00451781
0.00462637
0.00473202
0.00483407
0.00493144
0.00502272
0.00029621
0.000602398
0.00117424
0.00167829
0.00210724
0.00247114
0.00278095
0.00304638
0.00327572
0.00347607
0.00365353
0.00381335
0.00395996
0.00409709
0.0042277
0.00435404
0.00447764
0.00459937
0.0047194
0.00483731
0.00495215
0.00506249
0.0051666
0.000296403
0.000605694
0.00118352
0.00169209
0.00212443
0.00249105
0.00280325
0.00307099
0.00330278
0.00350593
0.00368677
0.00385078
0.0040026
0.00414612
0.00428442
0.0044198
0.00455381
0.00468722
0.00482006
0.00495165
0.00508069
0.00520538
0.00532357
0.000295515
0.000604088
0.00118997
0.00170238
0.00213763
0.00250703
0.00282211
0.00309288
0.0033279
0.00353464
0.00371961
0.00388853
0.00404628
0.00419694
0.00434375
0.00448913
0.00463465
0.00478104
0.00492816
0.00507505
0.00521998
0.00536064
0.00549434
0.000295992
0.00060617
0.0011928
0.00170728
0.00214494
0.00251752
0.00283639
0.00311128
0.00335059
0.00356181
0.00375169
0.00392619
0.00409049
0.00424892
0.00440497
0.00456124
0.00471939
0.00488018
0.0050433
0.00520743
0.00537031
0.00552893
0.00567987
0.000295633
0.000598295
0.0011881
0.00170337
0.00214341
0.0025203
0.00284462
0.00312525
0.00337019
0.00358694
0.00378248
0.00396312
0.00413444
0.00430113
0.00446701
0.00463497
0.00480693
0.00498369
0.00516484
0.00534863
0.00553208
0.00571121
0.00588158
0.000295518
0.00059283
0.00117377
0.00168584
0.00212869
0.00251236
0.00284494
0.00313371
0.00338603
0.00360945
0.00381133
0.00399852
0.00417712
0.00435233
0.00452844
0.00470881
0.00489573
0.00509022
0.00529179
0.00549825
0.00570568
0.00590879
0.00610154
6.97267e-05
0.000578855
0.00114096
0.00164572
0.0020942
0.00248974
0.00283528
0.00313561
0.00339746
0.00362873
0.00383751
0.00403144
0.00421733
0.00440105
0.00458756
0.00478083
0.00498374
0.00519773
0.00542242
0.00565525
0.00589128
0.00612334
0.00634281
6.96745e-05
0.000544576
0.00106793
0.00156697
0.00203062
0.00244792
0.00281379
0.00313024
0.00340407
0.00364429
0.0038603
0.00406086
0.00425373
0.00444563
0.00464233
0.0048486
0.00506815
0.00530312
0.00555366
0.00581729
0.00608825
0.00635694
0.00661017
0.000295631
0.0004455
0.000916531
0.00142714
0.00192778
0.00238356
0.00277997
0.00311784
0.00340597
0.00365588
0.00387903
0.00408575
0.00428495
0.00448429
0.00469045
0.00490917
0.00514516
0.00540174
0.00568028
0.00597949
0.00629405
0.00661201
0.00691202
8.59235e-05
0.000243167
0.000654999
0.00120991
0.00178195
0.00229847
0.00273653
0.00310032
0.00340405
0.00366356
0.00389323
0.00410521
0.00430967
0.00451524
0.00472947
0.0049591
0.00521002
0.00548709
0.00579392
0.00613254
0.00650161
0.00689055
0.00726554
0.000187567
0.000116042
0.00035017
0.000937588
0.00161054
0.00220608
0.00269185
0.00308208
0.00340021
0.00366785
0.00390262
0.00411851
0.00432677
0.00453684
0.00475702
0.00499488
0.00525739
0.00555109
0.00588265
0.00625996
0.00669289
0.00718783
0.00771249
0.000413119
0.000137249
0.000164132
0.000704518
0.00147067
0.00213766
0.00266099
0.00306972
0.00339707
0.00366956
0.0039072
0.00412518
0.00433544
0.00454789
0.00477125
0.00501355
0.00528246
0.00558567
0.00593233
0.00633658
0.00682563
0.00745876
0.00837524
6.52339e-05
6.07562e-05
6.13749e-05
6.61097e-05
0.000581657
0.000550328
0.000548424
0.000577089
0.00113635
0.00110934
0.00110893
0.0011358
0.00158201
0.00156812
0.00156753
0.00158111
0.00193392
0.0019301
0.0019301
0.00193578
0.00221115
0.0022136
0.00221825
0.00222262
0.00246026
0.00246161
0.00246474
0.00246768
0.00267888
0.00268023
0.00268206
0.00268367
0.00287499
0.00287649
0.00287751
0.00287773
0.00305064
0.00305199
0.00305227
0.00305119
0.00320739
0.00320823
0.00320755
0.00320521
0.00334746
0.00334763
0.00334604
0.00334263
0.00347323
0.00347277
0.00347046
0.00346623
0.00358673
0.00358585
0.00358304
0.00357828
0.0036898
0.00368876
0.00368575
0.00368074
0.00378408
0.00378317
0.00378026
0.00377533
0.00387111
0.00387064
0.00386814
0.00386361
0.00395242
0.00395267
0.00395091
0.0039471
0.00402954
0.00403084
0.00403013
0.00402738
0.00410412
0.00410679
0.00410747
0.00410612
0.00417785
0.00418224
0.00418466
0.00418507
0.00425251
0.00425899
0.00426352
0.00426606
0.00432989
0.00433884
0.00434587
0.00435092
0.00441178
0.00442359
0.00443351
0.00444145
0.00449988
0.00451497
0.00452817
0.00453938
0.0045958
0.00461458
0.00463145
0.0046463
0.004701
0.00472387
0.00474479
0.00476365
0.00481674
0.00484411
0.00486946
0.00489267
0.00494409
0.00497635
0.0050065
0.00503441
0.0050839
0.00512145
0.00515677
0.0051897
0.00523689
0.00528015
0.00532101
0.00535928
0.00540373
0.00545314
0.0054999
0.00554383
0.0055852
0.00564122
0.00569428
0.00574415
0.00578239
0.00584552
0.00590524
0.00596132
0.00599688
0.00606767
0.00613444
0.00619693
0.00623103
0.00631011
0.00638429
0.00645328
0.00648837
0.0065765
0.00665836
0.00673371
0.00677449
0.00687253
0.0069621
0.00704312
0.00709894
0.00720756
0.00730397
0.00738866
0.00747955
0.00759763
0.00769711
0.00778032
0.00795163
0.00806974
0.00816003
0.00822956
0.00858298
0.00866043
0.00870858
0.00874044
0.000329254
0.000711312
0.000994931
0.00117035
0.00127027
0.00132066
0.00133828
0.0013328
0.00130948
0.00127306
0.00122792
0.00117264
0.00110515
0.00102243
0.000918507
0.000780838
0.000594371
0.000340282
4.56083e-05
0.000775418
0.00105116
0.00126685
0.0014124
0.00150048
0.00154602
0.00156086
0.00155267
0.00152661
0.00148578
0.00143276
0.00136585
0.00128275
0.00117997
0.00105045
0.000884113
0.00066622
0.000375509
4.72134e-05
0.00123212
0.00140005
0.00154625
0.00165289
0.00172037
0.00175476
0.00176252
0.00174885
0.00171769
0.00167168
0.00161025
0.00153174
0.00143442
0.00131441
0.00116389
0.000973438
0.00072977
0.00041168
4.93644e-05
0.00162708
0.00172248
0.00181397
0.00188409
0.00192883
0.00194902
0.00194704
0.00192569
0.00188769
0.00183473
0.00176489
0.00167543
0.00156492
0.00143103
0.00126355
0.00105389
0.000792453
0.000483398
0.000243068
0.00195518
0.00200898
0.00206232
0.00210254
0.00212628
0.00213193
0.00211929
0.00208911
0.00204234
0.00198002
0.0019004
0.00180142
0.00168092
0.00153338
0.00135265
0.00112565
0.000834556
0.000452478
5.41117e-05
0.00223176
0.00226133
0.00228953
0.00230738
0.00231322
0.00230522
0.0022806
0.00223898
0.00218143
0.00210859
0.00201874
0.00191092
0.00178299
0.00162815
0.00143869
0.00120071
0.000894308
0.000481897
5.9183e-05
0.00247247
0.00248544
0.00249545
0.00249658
0.00248744
0.00246617
0.0024288
0.002375
0.00230586
0.00222204
0.00212246
0.00200707
0.00187108
0.00170339
0.00150406
0.00126085
0.00095875
0.000593742
0.000295054
0.0026856
0.0026863
0.00268184
0.00266976
0.00264851
0.00261477
0.00256536
0.0025
0.0024193
0.00232351
0.00221165
0.00208227
0.00193064
0.00175027
0.0015388
0.00128546
0.000969677
0.000561962
0.000294773
0.00287626
0.00286786
0.00285246
0.00282951
0.00279761
0.00275255
0.00269204
0.0026158
0.00252384
0.0024156
0.00228978
0.00214386
0.00197363
0.00177683
0.00155078
0.0012854
0.000961539
0.000553393
6.96038e-05
0.00304684
0.0030318
0.00300832
0.00297667
0.00293533
0.00288036
0.00280992
0.00272356
0.00262072
0.00250034
0.00236023
0.00219719
0.00200801
0.00179328
0.00155076
0.00127216
0.000944475
0.000553031
0.000294541
0.00319845
0.0031792
0.00314992
0.00311145
0.00306214
0.00299882
0.00291992
0.00282465
0.00271193
0.00258009
0.00242654
0.00224784
0.00204099
0.00180685
0.00154576
0.00125357
0.000923773
0.000548005
6.95088e-05
0.00333391
0.00331139
0.00327826
0.00323458
0.00317894
0.00310901
0.00302328
0.0029206
0.00279946
0.00265775
0.00249261
0.00230057
0.00207849
0.00182642
0.00154636
0.00123804
0.000901719
0.000540426
0.000294546
0.00345603
0.00343109
0.00339515
0.00334767
0.00328734
0.00321245
0.0031215
0.00301305
0.0028853
0.00273587
0.00256172
0.00235932
0.00212534
0.00185864
0.00156113
0.00123561
0.000888092
0.000527708
0.000294191
0.00356712
0.00354057
0.00350264
0.00345255
0.00338908
0.00331076
0.00321613
0.00310357
0.00297114
0.00281633
0.00263601
0.00242664
0.00218465
0.00190782
0.00159651
0.00125455
0.00089069
0.000519475
0.000294517
0.00366915
0.00364178
0.00360275
0.00355115
0.00348585
0.00340549
0.0033086
0.00319354
0.00305827
0.00290025
0.00271642
0.00250326
0.00225709
0.00197489
0.00165526
0.00129993
0.000914074
0.000507761
0.000292744
0.00376385
0.00373646
0.00369721
0.00364516
0.00357918
0.00349801
0.00340018
0.00328403
0.0031475
0.00298812
0.00280291
0.00258843
0.00234099
0.00205707
0.00173368
0.00136878
0.000960943
0.000515043
0.000293144
0.00385279
0.0038262
0.00378762
0.00373608
0.0036705
0.00358961
0.00349197
0.0033759
0.00323939
0.00307999
0.00289483
0.00268053
0.0024333
0.00214905
0.00182319
0.00144983
0.00102156
0.000536178
6.97646e-05
0.00393749
0.00391254
0.0038755
0.00382542
0.00376118
0.00368153
0.00358502
0.00346996
0.00333436
0.00317581
0.00299145
0.00277786
0.002531
0.002246
0.00191659
0.00153369
0.00108441
0.000559358
6.97503e-05
0.00401957
0.00399708
0.00396245
0.00391468
0.00385264
0.00377504
0.00368041
0.00356706
0.00343295
0.00327568
0.00309232
0.00287931
0.00263223
0.00234537
0.00201092
0.00161755
0.00114925
0.000593328
7.00101e-05
0.00410069
0.00408149
0.00405011
0.00400546
0.00394638
0.00387152
0.00377938
0.00366819
0.0035359
0.00338002
0.00319751
0.00298459
0.00273639
0.00244641
0.00210558
0.00170089
0.0012142
0.000629416
7.25199e-05
0.00418262
0.00416756
0.00414022
0.00409945
0.004044
0.00397246
0.00388325
0.00377454
0.00364417
0.00348957
0.00330754
0.00309404
0.00284374
0.00254945
0.00220101
0.00178403
0.0012787
0.000665429
7.58063e-05
0.0042672
0.00425711
0.00423458
0.00419839
0.00414717
0.00407943
0.00399349
0.00388741
0.00375896
0.0036054
0.00342336
0.00320853
0.00295514
0.00265543
0.00229841
0.00186835
0.00134341
0.000702543
7.92767e-05
0.00435628
0.00435195
0.00433498
0.00430401
0.00425755
0.00419401
0.00411159
0.00400825
0.0038816
0.00372877
0.00354616
0.00332927
0.00307199
0.00276597
0.00239935
0.00195511
0.00140938
0.000738537
8.30229e-05
0.00445164
0.00445389
0.00444317
0.00441801
0.00437679
0.00431779
0.00423909
0.00413851
0.0040135
0.00386107
0.00367745
0.00345783
0.00319577
0.0028824
0.00250509
0.00204559
0.00147801
0.000776019
8.68953e-05
0.00455501
0.0045646
0.0045608
0.00454198
0.00450642
0.00445226
0.00437743
0.00427963
0.00415618
0.00400386
0.00381872
0.00359565
0.00332789
0.00300609
0.00261693
0.00214096
0.00155034
0.000815808
9.08993e-05
0.00466797
0.00468562
0.00468934
0.00467736
0.00464783
0.00459877
0.00452799
0.00443302
0.00431101
0.00415853
0.00397138
0.00374418
0.00346983
0.0031385
0.0027362
0.00224237
0.00162722
0.000858401
9.50074e-05
0.00479193
0.00481831
0.0048301
0.00482541
0.00480226
0.00475855
0.00469197
0.0045999
0.00447927
0.00432642
0.00413688
0.00390495
0.00362313
0.00328114
0.0028643
0.00235099
0.00170949
0.000904256
9.9241e-05
0.0049281
0.00496384
0.00498419
0.00498716
0.00497069
0.00493257
0.00487037
0.0047813
0.0046621
0.00450882
0.00431664
0.00407949
0.00378942
0.00343563
0.00300276
0.0024681
0.00179801
0.000953598
0.000103837
0.00507748
0.00512315
0.0051525
0.00516345
0.0051539
0.00512159
0.00506398
0.00497813
0.00486053
0.00470692
0.00451207
0.00426941
0.00397045
0.00360378
0.0031533
0.00259517
0.00189379
0.00100674
0.000109079
0.00524092
0.005297
0.00533568
0.00535486
0.00535244
0.00532614
0.00527338
0.00519107
0.00507544
0.00492186
0.00472457
0.0044764
0.00416815
0.00378764
0.00331791
0.00273397
0.00199817
0.00106444
0.000115107
0.00541909
0.00548601
0.00553425
0.00556179
0.00556662
0.00554652
0.00549892
0.0054206
0.00530753
0.00515464
0.00495555
0.00470227
0.00438468
0.0039896
0.00349901
0.00288667
0.00211289
0.00112788
0.00012188
0.00561265
0.00569069
0.00574859
0.00578448
0.00579655
0.00578278
0.00574067
0.00566693
0.00555728
0.00540614
0.00520638
0.00494897
0.00462256
0.00421256
0.00369957
0.00305594
0.00224001
0.00119837
0.000129361
0.00582234
0.00591161
0.00597901
0.006023
0.00604214
0.00603473
0.00599844
0.00593002
0.00582492
0.00567705
0.00547837
0.00521859
0.00488465
0.00446006
0.00392343
0.00324528
0.0023821
0.00127713
0.000137668
0.00604913
0.00614945
0.00622585
0.00627736
0.00630311
0.00630189
0.00627172
0.00620943
0.00611032
0.00596776
0.0057727
0.0055133
0.00517432
0.00473655
0.00417564
0.00345954
0.0025427
0.00136583
0.000146974
0.00629441
0.00640515
0.00648953
0.00654748
0.00657899
0.00658354
0.00655964
0.00650435
0.00641292
0.00627823
0.00609023
0.00583526
0.00549537
0.00504758
0.00446311
0.00370569
0.00272714
0.00146699
0.000157493
0.00656017
0.00667996
0.00677055
0.00683322
0.00686913
0.00687866
0.00686096
0.00681349
0.00673158
0.00660781
0.00643123
0.00618634
0.00585194
0.00540006
0.00479526
0.00399416
0.00294388
0.00158459
0.00016949
0.00684914
0.0069755
0.00706946
0.00713429
0.00717263
0.00718592
0.00717406
0.00713504
0.00706449
0.00695501
0.00679506
0.00656758
0.00624797
0.00580213
0.00518496
0.00434085
0.003207
0.00172522
0.000183505
0.00716504
0.00729366
0.00738675
0.00745019
0.00748833
0.0075037
0.00749696
0.0074667
0.00740912
0.00731724
0.00717965
0.00697846
0.00668633
0.00626257
0.00564923
0.00477047
0.00354148
0.00190144
0.000200498
0.00751254
0.00763629
0.00772246
0.00777998
0.00781474
0.00783011
0.00782737
0.00780574
0.0077622
0.00769073
0.00758097
0.00741576
0.00716693
0.00678878
0.00620903
0.0053213
0.00399435
0.00214151
0.000221864
0.00789663
0.00800434
0.00807568
0.00812201
0.00814994
0.00816307
0.00816293
0.00814925
0.00811995
0.0080705
0.00799274
0.00787233
0.00768397
0.0073823
0.00688545
0.00605034
0.00465844
0.00251743
0.000250056
0.00832011
0.00839616
0.00844373
0.00847371
0.00849168
0.00850051
0.00850143
0.00849449
0.00847855
0.00845093
0.00840662
0.00833635
0.00822258
0.0080305
0.0076868
0.00703111
0.00572397
0.00324604
0.000289615
0.00877742
0.00880504
0.00882142
0.00883151
0.00883754
0.00884062
0.0088412
0.00883936
0.00883478
0.00882666
0.00881345
0.00879222
0.00875712
0.00869552
0.00857614
0.0083074
0.0075704
0.005205
0.000343385
)
;

boundaryField
{
    leftWall
    {
        type            nutkWallFunction;
        Cmu             0.09;
        kappa           0.41;
        E               9.8;
        value           nonuniform List<scalar> 
50
(
1.36715e-06
2.29226e-06
2.83577e-06
3.23033e-06
3.53918e-06
3.79654e-06
4.02231e-06
4.23239e-06
4.50555e-06
4.8585e-06
5.27391e-06
3.82041e-09
1.69091e-06
2.41198e-09
0
0
0
0
0
0
0
0
0
0
0
0
9.91333e-10
0
0
0
0
0
0
0
0
0
0
0
8.94696e-09
1.16779e-08
0
7.61018e-09
2.23981e-10
0
0
0
2.32133e-09
2.61544e-06
1.80315e-05
4.87267e-05
)
;
    }
    rightWall
    {
        type            nutkWallFunction;
        Cmu             0.09;
        kappa           0.41;
        E               9.8;
        value           nonuniform List<scalar> 
50
(
1.73607e-06
2.7164e-06
3.33122e-06
3.81749e-06
4.22872e-06
4.59198e-06
4.92916e-06
5.24262e-06
5.52451e-06
5.7209e-06
5.97888e-06
0
1.15124e-06
3.60393e-09
0
0
0
0
0
0
0
0
0
8.74645e-09
0
0
1.54432e-08
4.2782e-07
9.80209e-07
1.56287e-06
2.17311e-06
2.79981e-06
3.44348e-06
4.08491e-06
4.75005e-06
5.47423e-06
6.30628e-06
7.2523e-06
8.29554e-06
9.43809e-06
1.06953e-05
1.20915e-05
1.36544e-05
1.54049e-05
1.74433e-05
1.98932e-05
2.29292e-05
2.68747e-05
3.2313e-05
3.95523e-05
)
;
    }
    lowerWall
    {
        type            nutkWallFunction;
        Cmu             0.09;
        kappa           0.41;
        E               9.8;
        value           nonuniform List<scalar> 
62
(
2.84976e-07
8.8883e-07
1.21816e-06
1.43687e-06
1.59903e-06
1.7255e-06
1.82653e-06
1.90797e-06
1.97384e-06
2.0275e-06
2.07236e-06
2.11134e-06
2.14536e-06
2.1711e-06
2.17914e-06
2.15364e-06
2.09066e-06
1.99255e-06
1.8498e-06
1.67237e-06
1.48788e-06
1.14887e-06
5.81543e-07
5.81543e-07
3.13244e-06
3.79067e-06
4.35336e-06
4.89828e-06
5.49432e-06
6.2261e-06
7.39854e-06
7.87995e-06
7.35181e-06
7.42566e-06
7.98536e-06
8.77932e-07
4.00685e-06
4.45772e-06
4.72256e-06
5.02233e-06
5.51489e-06
6.27856e-06
7.67109e-06
8.77932e-07
1.54469e-06
1.90701e-06
2.03293e-06
2.08682e-06
2.11127e-06
2.10578e-06
2.08823e-06
2.03832e-06
1.96155e-06
1.84829e-06
1.68505e-06
1.60917e-06
1.60209e-06
1.53088e-06
1.3756e-06
1.11069e-06
7.92669e-07
3.58429e-07
)
;
    }
    atmosphere
    {
        type            calculated;
        value           nonuniform List<scalar> 
46
(
0.009
0.000137249
0.000164132
0.000704518
0.00147067
0.00213766
0.00266099
0.00306972
0.00339707
0.00366956
0.0039072
0.00412518
0.00433544
0.00454789
0.00477125
0.00501355
0.00528246
0.00558567
0.00593233
0.00633658
0.00682563
0.00745876
0.009
0.009
0.009
0.009
0.009
0.009
0.009
0.009
0.009
0.009
0.009
0.009
0.009
0.009
0.009
0.009
0.009
0.009
0.009
0.009
0.009
0.009
0.009
0.000343385
)
;
    }
    defaultFaces
    {
        type            empty;
    }
}


// ************************************************************************* //
