/*--------------------------------*- C++ -*----------------------------------*\
  =========                 |
  \\      /  F ield         | OpenFOAM: The Open Source CFD Toolbox
   \\    /   O peration     | Website:  https://openfoam.org
    \\  /    A nd           | Version:  9
     \\/     M anipulation  |
\*---------------------------------------------------------------------------*/
FoamFile
{
    format      ascii;
    class       surfaceScalarField;
    location    "1.66";
    object      alphaPhi0.water;
}
// * * * * * * * * * * * * * * * * * * * * * * * * * * * * * * * * * * * * * //

dimensions      [0 3 -1 0 0 0 0];

internalField   nonuniform List<scalar> 
4432
(
-1.19793e-06
1.19793e-06
-8.21001e-07
-3.76933e-07
1.4973e-07
-9.70732e-07
1.15995e-06
-1.01023e-06
2.07892e-06
-9.18966e-07
2.8739e-06
-7.94988e-07
3.55788e-06
-6.83983e-07
4.15248e-06
-5.94599e-07
4.66356e-06
-5.11076e-07
5.08409e-06
-4.20534e-07
5.41943e-06
-3.3534e-07
5.69053e-06
-2.71095e-07
5.91351e-06
-2.22986e-07
6.07416e-06
-1.6065e-07
6.10722e-06
-3.30644e-08
5.89326e-06
2.13962e-07
5.29348e-06
5.99777e-07
3.78754e-06
1.42568e-06
1.39856e-06
2.37977e-06
-1.51807e-06
2.90789e-06
-3.9252e-06
2.41645e-06
-4.26639e-06
3.50757e-07
-4.26659e-06
-4.1627e-07
1.6142e-06
9.76887e-08
-8.90892e-07
8.17092e-07
-1.69014e-06
1.56979e-06
-1.76293e-06
2.26824e-06
-1.61742e-06
2.89132e-06
-1.41806e-06
3.442e-06
-1.23467e-06
3.9316e-06
-1.08419e-06
4.36595e-06
-9.45426e-07
4.74532e-06
-7.99903e-07
5.07526e-06
-6.65283e-07
5.3662e-06
-5.62037e-07
5.61939e-06
-4.7618e-07
5.81144e-06
-3.527e-07
5.88872e-06
-1.10353e-07
5.76716e-06
3.35523e-07
5.29492e-06
1.07201e-06
4.31438e-06
2.33691e-06
2.80179e-06
3.88368e-06
8.83736e-07
4.81752e-06
-1.0101e-06
4.32994e-06
-1.94454e-06
1.30685e-06
-6.21134e-06
1.93291e-07
1.42091e-06
6.64277e-07
-1.36188e-06
1.23201e-06
-2.25788e-06
1.82067e-06
-2.35159e-06
2.3797e-06
-2.17645e-06
2.89094e-06
-1.92931e-06
3.35314e-06
-1.69687e-06
3.77398e-06
-1.50503e-06
4.15856e-06
-1.33001e-06
4.50777e-06
-1.14911e-06
4.82605e-06
-9.83568e-07
5.11926e-06
-8.55252e-07
5.38272e-06
-7.39635e-07
5.59025e-06
-5.60235e-07
5.69205e-06
-2.1215e-07
5.61682e-06
4.10749e-07
5.27343e-06
1.4154e-06
4.60705e-06
2.963e-06
3.67654e-06
4.82019e-06
2.52634e-06
6.07315e-06
1.13488e-06
5.76638e-06
1.71153e-08
2.42475e-06
-6.23941e-06
5.88409e-07
8.32499e-07
1.05882e-06
-1.83229e-06
1.53262e-06
-2.73168e-06
2.01186e-06
-2.83083e-06
2.47179e-06
-2.63638e-06
2.89948e-06
-2.357e-06
3.2934e-06
-2.0908e-06
3.66096e-06
-1.87258e-06
4.00688e-06
-1.67593e-06
4.33078e-06
-1.47301e-06
4.63586e-06
-1.28865e-06
4.92632e-06
-1.14571e-06
5.19588e-06
-1.0092e-06
5.41945e-06
-7.83808e-07
5.55412e-06
-3.46811e-07
5.54579e-06
4.19079e-07
5.34645e-06
1.61469e-06
4.97804e-06
3.33141e-06
4.48058e-06
5.34242e-06
3.79116e-06
6.81444e-06
2.76758e-06
6.80552e-06
1.4386e-06
3.75376e-06
-4.83888e-06
8.18877e-07
1.36198e-08
1.32702e-06
-2.34043e-06
1.75606e-06
-3.16073e-06
2.16611e-06
-3.24087e-06
2.55559e-06
-3.02586e-06
2.9191e-06
-2.72051e-06
3.25773e-06
-2.42943e-06
3.58121e-06
-2.19606e-06
3.89462e-06
-1.98934e-06
4.19545e-06
-1.77384e-06
4.48601e-06
-1.57921e-06
4.77112e-06
-1.43082e-06
5.0458e-06
-1.28388e-06
5.28829e-06
-1.0263e-06
5.46407e-06
-5.22588e-07
5.53634e-06
3.46811e-07
5.4852e-06
1.66582e-06
5.34745e-06
3.46916e-06
5.16749e-06
5.52238e-06
4.84054e-06
7.14133e-06
4.14375e-06
7.50234e-06
2.75796e-06
5.1396e-06
-2.08088e-06
9.41143e-07
-9.27525e-07
1.50341e-06
-2.90269e-06
1.9225e-06
-3.57982e-06
2.29389e-06
-3.61226e-06
2.63559e-06
-3.36757e-06
2.95053e-06
-3.03544e-06
3.24402e-06
-2.72292e-06
3.53025e-06
-2.4823e-06
3.81547e-06
-2.27455e-06
4.09444e-06
-2.05281e-06
4.36916e-06
-1.85393e-06
4.64692e-06
-1.70858e-06
4.92607e-06
-1.56303e-06
5.18953e-06
-1.28976e-06
5.41161e-06
-7.44669e-07
5.571e-06
1.87419e-07
5.66743e-06
1.56939e-06
5.74238e-06
3.39421e-06
5.82969e-06
5.43507e-06
5.82586e-06
7.14516e-06
5.45795e-06
7.86938e-06
4.07437e-06
6.5223e-06
1.99305e-06
1.00316e-06
-1.93068e-06
1.61752e-06
-3.51705e-06
2.04744e-06
-4.00974e-06
2.40225e-06
-3.96707e-06
2.71421e-06
-3.67952e-06
2.99362e-06
-3.31486e-06
3.25051e-06
-2.97981e-06
3.50513e-06
-2.73692e-06
3.7656e-06
-2.53502e-06
4.02353e-06
-2.31074e-06
4.28114e-06
-2.11154e-06
4.54965e-06
-1.97709e-06
4.83213e-06
-1.84551e-06
5.11693e-06
-1.57457e-06
5.38716e-06
-1.0149e-06
5.63533e-06
-6.07513e-08
5.8762e-06
1.32852e-06
6.154e-06
3.11641e-06
6.49909e-06
5.08998e-06
6.82555e-06
6.81871e-06
6.87028e-06
7.82381e-06
5.60186e-06
7.79035e-06
7.59476e-06
1.03092e-06
-2.9616e-06
1.69199e-06
-4.17812e-06
2.14197e-06
-4.45972e-06
2.49495e-06
-4.32006e-06
2.79145e-06
-3.97602e-06
3.0465e-06
-3.5699e-06
3.27426e-06
-3.20757e-06
3.50227e-06
-2.96493e-06
3.74119e-06
-2.77394e-06
3.97901e-06
-2.54857e-06
4.21857e-06
-2.35109e-06
4.47617e-06
-2.23469e-06
4.76038e-06
-2.12973e-06
5.0653e-06
-1.87948e-06
5.38267e-06
-1.33226e-06
5.71769e-06
-3.95774e-07
6.0988e-06
9.47405e-07
6.57362e-06
2.64159e-06
7.17948e-06
4.48412e-06
7.86918e-06
6.129e-06
8.46045e-06
7.23252e-06
7.92165e-06
8.32912e-06
1.55164e-05
-8.41691e-06
8.41875e-06
-5.82523e-06
-2.58014e-06
3.66571e-06
-9.51498e-06
1.42458e-05
-1.06453e-05
2.30481e-05
-9.10476e-06
2.87789e-05
-6.07296e-06
3.07024e-05
-1.80793e-06
2.94375e-05
1.57172e-06
2.70579e-05
2.52927e-06
2.37975e-05
3.26031e-06
1.85167e-05
5.28054e-06
1.19005e-05
6.61578e-06
5.58908e-06
6.01952e-06
4.03514e-07
5.17035e-06
-3.88165e-06
4.29369e-06
-7.2041e-06
3.3008e-06
-8.60657e-06
1.54627e-06
-5.55743e-06
-3.04947e-06
-5.55776e-06
-4.78129e-06
1.32019e-05
2.80209e-07
-7.58381e-06
8.20175e-06
-1.70549e-05
1.66091e-05
-1.8762e-05
2.38605e-05
-1.46894e-05
2.82399e-05
-1.07435e-05
2.93997e-05
-3.4048e-06
2.90947e-05
2.4496e-06
2.76272e-05
4.59299e-06
2.49888e-05
5.89894e-06
2.07301e-05
9.53881e-06
1.46648e-05
1.26805e-05
8.30034e-06
1.21457e-05
3.2359e-06
1.02236e-05
-4.90079e-07
8.00734e-06
-3.41239e-06
6.20191e-06
-5.58172e-06
3.6076e-06
-4.72837e-06
-3.90314e-06
-1.02865e-05
-1.06845e-06
1.42699e-05
4.38346e-06
-1.32978e-05
1.06686e-05
-2.53646e-05
1.77121e-05
-2.53078e-05
2.26454e-05
-1.98983e-05
2.6536e-05
-1.29589e-05
2.83545e-05
-3.79384e-06
2.80327e-05
3.50274e-06
2.63595e-05
6.7738e-06
2.37498e-05
8.50861e-06
1.99097e-05
1.33783e-05
1.48426e-05
1.7747e-05
9.77091e-06
1.70612e-05
5.53062e-06
1.44517e-05
2.66129e-06
1.08651e-05
9.79321e-08
8.84746e-06
-2.162e-06
5.94878e-06
-2.56595e-06
-3.64599e-06
-1.28858e-05
2.58045e-06
1.16063e-05
8.94444e-06
-1.96961e-05
1.57e-05
-3.21197e-05
2.05843e-05
-3.21645e-05
2.2283e-05
-2.65389e-05
2.43751e-05
-1.52945e-05
2.48298e-05
-4.47768e-06
2.67492e-05
4.8353e-06
2.50602e-05
9.12458e-06
2.25512e-05
1.10175e-05
1.90584e-05
1.68704e-05
1.48215e-05
2.19828e-05
1.08931e-05
2.09875e-05
7.44303e-06
1.77644e-05
5.23511e-06
1.35446e-05
3.34096e-06
1.08229e-05
1.25803e-06
6.41743e-06
4.21076e-07
-2.69674e-06
-1.24976e-05
5.93277e-06
5.66682e-06
1.33631e-05
-2.70884e-05
1.89754e-05
-3.77317e-05
2.28113e-05
-3.60002e-05
2.5761e-05
-2.94885e-05
2.49121e-05
-1.94605e-05
2.4543e-05
-4.34072e-06
2.51367e-05
6.45872e-06
2.37034e-05
1.14476e-05
2.12103e-05
1.30294e-05
1.77481e-05
1.57014e-05
1.48576e-05
2.25823e-05
1.18844e-05
2.37201e-05
9.31638e-06
2.03311e-05
7.40065e-06
1.54594e-05
5.39769e-06
1.10613e-05
4.00365e-06
7.67285e-06
3.19845e-06
-1.25398e-06
-9.33272e-06
9.93288e-06
-4.2149e-06
1.78883e-05
-3.5036e-05
2.19132e-05
-4.17564e-05
2.40011e-05
-3.80879e-05
2.55099e-05
-3.09971e-05
2.67028e-05
-2.06533e-05
2.40125e-05
-4.8551e-06
2.3412e-05
7.815e-06
2.17287e-05
1.39077e-05
1.75484e-05
1.36753e-05
1.22895e-05
1.28528e-05
1.36468e-05
1.78944e-05
1.28611e-05
2.47148e-05
1.08562e-05
2.23376e-05
9.06457e-06
1.72514e-05
6.58178e-06
1.25494e-05
6.07919e-06
8.04845e-06
5.60534e-06
2.34834e-07
-3.57348e-06
1.53737e-05
-1.95877e-05
2.23077e-05
-4.19693e-05
2.42295e-05
-4.36777e-05
2.46045e-05
-3.84627e-05
2.48122e-05
-3.12044e-05
2.514e-05
-2.0981e-05
2.34969e-05
-4.83448e-06
1.8968e-05
6.55041e-06
1.76666e-05
1.0405e-05
1.49162e-05
1.09419e-05
1.09522e-05
1.53448e-05
1.04354e-05
1.70824e-05
1.3837e-05
2.14306e-05
1.2358e-05
2.3817e-05
1.04466e-05
1.91606e-05
8.71641e-06
1.45734e-05
7.74159e-06
9.68446e-06
6.4881e-06
2.0123e-06
1.06968e-06
2.19466e-05
-4.15333e-05
2.59102e-05
-4.5932e-05
2.5685e-05
-4.34515e-05
2.45109e-05
-3.72864e-05
2.35199e-05
-3.02122e-05
2.30274e-05
-2.04883e-05
1.78461e-05
-3.96533e-06
9.64328e-06
5.97763e-06
9.84879e-06
9.94288e-06
1.37111e-05
8.35098e-06
1.20298e-05
1.76051e-05
1.01614e-05
1.7641e-05
1.11251e-05
1.81061e-05
1.32862e-05
1.88371e-05
1.17953e-05
2.06453e-05
1.01859e-05
1.61706e-05
8.84354e-06
1.10149e-05
3.33851e-06
3.27422e-06
3.74848e-06
2.20302e-06
-5.16462e-06
3.73824e-06
-5.71332e-06
4.78051e-06
-5.50198e-06
5.55934e-06
-5.09889e-06
6.17913e-06
-4.5958e-06
6.67631e-06
-4.0671e-06
7.08348e-06
-3.61474e-06
7.49459e-06
-3.37604e-06
7.94671e-06
-3.22606e-06
8.3908e-06
-2.99265e-06
8.83874e-06
-2.79904e-06
9.34701e-06
-2.74296e-06
9.95248e-06
-2.73519e-06
1.06603e-05
-2.58731e-06
1.1482e-05
-2.15396e-06
1.24662e-05
-1.37999e-06
1.37278e-05
-3.14142e-07
1.53727e-05
9.96682e-07
1.7532e-05
2.32481e-06
2.028e-05
3.381e-06
2.36934e-05
3.81913e-06
2.85803e-05
3.34795e-06
2.35616e-06
4.15901e-05
2.03552e-06
-6.72679e-06
3.59474e-06
-6.93936e-06
4.75791e-06
-6.44107e-06
5.65192e-06
-5.8016e-06
6.35301e-06
-5.10773e-06
6.88216e-06
-4.39549e-06
7.21968e-06
-3.72794e-06
7.55722e-06
-3.47174e-06
7.97632e-06
-3.40183e-06
8.35907e-06
-3.12885e-06
8.75521e-06
-2.95045e-06
9.23862e-06
-2.9935e-06
9.83839e-06
-3.1412e-06
1.05826e-05
-3.19959e-06
1.15495e-05
-3.07237e-06
1.28743e-05
-2.70398e-06
1.46594e-05
-2.09915e-06
1.70748e-05
-1.41771e-06
2.0267e-05
-8.64821e-07
2.43207e-05
-6.71579e-07
2.93816e-05
-1.24177e-06
3.57052e-05
-2.96207e-06
-6.74821e-06
4.41245e-05
9.09348e-07
-1.93566e-12
1.64423e-06
-4.89866e-12
2.33284e-06
-3.59387e-10
2.89271e-06
-2.55457e-09
3.27684e-06
-3.60463e-09
3.51148e-06
-2.96641e-09
3.57569e-06
-1.99464e-10
3.67789e-06
-1.12279e-11
3.82971e-06
-2.72228e-10
3.95425e-06
-4.89776e-09
4.24257e-06
-1.08043e-08
4.70876e-06
-1.01253e-08
5.26349e-06
-3.20017e-09
5.99228e-06
-1.74902e-09
7.12998e-06
-1.88839e-09
8.89888e-06
-5.50385e-09
1.13546e-05
-1.09235e-06
1.47672e-05
-1.33561e-06
1.92389e-05
-1.72406e-06
2.45944e-05
-2.32445e-06
3.03776e-05
-3.34212e-06
3.67476e-05
-5.07688e-06
-7.1121e-06
4.21908e-05
6.22773e-13
-3.26609e-12
3.18497e-13
-5.26728e-12
1.32633e-12
-3.61345e-10
1.07298e-11
-2.58907e-09
2.47949e-11
-3.74297e-09
3.04301e-11
-2.97998e-09
1.61789e-11
-1.95485e-10
1.49182e-11
-2.00963e-11
1.56785e-11
-2.8326e-10
4.58455e-11
-4.95182e-09
1.12855e-10
-1.09975e-08
1.73245e-10
-1.03379e-08
1.78956e-10
-3.19099e-09
1.89539e-10
-1.60035e-09
2.18159e-10
-1.71888e-09
3.13218e-10
-5.4295e-09
3.02134e-07
-5.30036e-08
7.85898e-07
-3.1401e-08
1.62724e-06
-1.78842e-08
2.90141e-06
-3.83009e-08
4.50584e-06
-1.19433e-07
5.84828e-06
-1.97349e-07
-1.88013e-07
5.53557e-06
-4.00169e-12
5.94535e-14
-1.01839e-11
-3.48292e-14
-2.88367e-09
-4.27749e-09
-5.92681e-09
-3.11159e-08
-4.22484e-09
-2.78526e-08
-8.38844e-10
-1.8048e-08
-8.34605e-11
-1.66493e-10
-1.69259e-10
5.55734e-11
-1.08817e-08
9.52927e-10
-5.77928e-08
-3.28954e-08
-6.40055e-08
-5.55718e-08
-3.79937e-08
-4.53737e-08
-1.27465e-08
-7.82912e-09
-8.72094e-09
2.13412e-09
-1.93154e-08
-1.54183e-09
-7.53996e-09
-1.09126e-07
-3.71608e-09
-1.45926e-07
4.5848e-09
-6.84043e-08
1.20046e-08
-5.38097e-08
2.10297e-08
-7.60339e-08
3.40774e-08
-1.60987e-07
4.59022e-08
-2.37111e-07
-2.18983e-07
5.1888e-08
-6.11746e-12
4.61276e-12
0
6.43528e-11
-2.56811e-08
-7.36625e-09
-2.85114e-08
-1.01219e-08
-3.33362e-08
-2.04193e-09
-2.9886e-08
-4.74548e-10
-8.99277e-09
5.4738e-09
-9.28065e-09
2.04092e-10
-1.12484e-07
6.74095e-09
-1.76053e-07
-7.44116e-09
-1.78732e-07
-1.25369e-08
-1.58029e-07
-2.57215e-08
-6.6275e-08
2.77106e-09
-6.39957e-08
7.04743e-09
-2.40249e-07
-5.24245e-08
-2.35952e-07
-1.00827e-07
-2.63228e-07
-9.52768e-08
-1.48123e-07
-8.90185e-08
-6.33836e-08
-6.93626e-08
-4.69218e-08
-7.12184e-09
-3.60429e-08
-7.22703e-08
1.07347e-08
-5.14509e-08
-1.60164e-07
2.64753e-08
-2.43502e-11
2.56865e-11
-4.18997e-09
3.3073e-10
-1.40253e-09
-2.35503e-09
-1.41575e-10
-1.06221e-12
-1.02225e-09
-4.98439e-14
-1.07325e-09
-8.40017e-12
-2.46673e-10
0
-1.23126e-09
6.87358e-11
-2.66688e-10
3.57089e-11
-1.07859e-08
2.66274e-11
-8.90722e-08
-1.16461e-10
-8.32607e-08
-3.39971e-09
-3.03892e-08
0
-2.18534e-07
1.07972e-08
-2.37744e-07
-1.81482e-08
-2.7811e-07
-4.63853e-08
-3.01541e-07
-5.67799e-08
-3.4493e-07
-2.92057e-08
-1.50033e-07
-1.05438e-07
-1.82472e-07
-1.06066e-07
-7.29357e-08
-4.91066e-07
-2.1517e-07
-1.9902e-07
-7.17056e-08
-5.97477e-08
-3.86829e-11
2.20069e-11
-2.41915e-10
0
-1.5082e-13
-3.71865e-12
-5.97709e-14
-1.32234e-12
-2.13938e-13
-6.4298e-14
-8.78321e-12
0
-1.53404e-11
0
-8.67932e-12
0
-2.7203e-12
0
-5.8428e-12
0
-1.51977e-10
0
-3.59371e-09
0
-1.54292e-08
0
-3.04353e-08
1.50238e-09
-9.14536e-08
-8.92853e-12
-1.33339e-07
-2.78595e-10
-7.82877e-08
-4.34682e-09
-2.1153e-08
-6.65991e-09
-8.82004e-08
-1.24638e-07
-4.22643e-07
-5.48556e-07
-2.11598e-07
-6.45276e-07
-7.4895e-08
-3.67658e-07
-3.69638e-09
-6.82361e-09
6.48835e-13
3.07876e-12
-5.15732e-13
0
-1.80701e-12
-1.20126e-12
-3.23415e-13
-1.60144e-12
-7.54135e-13
2.164e-15
-1.69149e-12
6.58921e-13
-2.01509e-12
6.53049e-13
-1.02121e-13
1.46252e-12
-1.5822e-11
1.08248e-11
-2.19486e-11
1.07318e-11
0
5.56596e-12
-4.77135e-11
1.57226e-12
-1.251e-09
0
-3.07077e-13
3.55341e-12
-9.23812e-12
1.47405e-15
-2.88247e-10
2.05015e-16
-4.64277e-09
-4.99339e-12
-1.12555e-08
-3.49028e-10
-4.49511e-07
-4.17765e-08
-4.90382e-07
-4.5085e-07
-4.06701e-07
-6.72122e-07
-7.44449e-08
-5.3891e-07
-5.84986e-08
-8.35494e-09
2.61084e-13
1.41719e-13
-1.18769e-11
0
-9.4324e-12
2.14841e-11
-1.76701e-12
3.21581e-12
-1.73056e-12
8.47751e-16
-1.81711e-12
1.05951e-13
-3.34471e-13
3.9862e-13
-6.02597e-12
1.48288e-12
-2.02064e-11
6.98447e-12
-1.74134e-11
1.20957e-11
-3.53219e-12
5.96628e-12
-2.00109e-12
3.58657e-14
-3.54746e-12
0
-2.20216e-14
2.40932e-14
-2.05525e-14
2.15216e-16
-2.52934e-14
8.10085e-16
-4.05033e-12
3.83197e-15
-3.27723e-10
-1.4654e-11
-4.92538e-08
-2.20915e-09
-3.87962e-07
-1.18045e-07
-5.08275e-07
-4.94974e-07
-3.4562e-07
-6.39077e-07
-2.02689e-08
-9.2656e-09
2.04253e-14
7.04773e-14
-2.05053e-12
7.42765e-13
-6.39718e-13
0
-4.49443e-14
8.62681e-15
-5.52236e-15
1.03033e-15
-2.97922e-14
1.03607e-15
-9.49337e-15
3.03506e-15
-6.54923e-13
0
-6.49605e-12
0
-7.59213e-12
9.82836e-15
-5.44299e-14
2.0672e-14
-1.88079e-14
6.26747e-17
-2.41276e-14
0
-3.39087e-16
1.88292e-16
-1.84123e-16
2.78143e-17
0
1.24768e-15
-1.2813e-12
7.06769e-14
-9.32801e-16
-5.86775e-13
-2.20914e-09
-2.16065e-14
-1.20254e-07
-2.04167e-13
-2.48276e-07
-6.1367e-13
-1.21816e-07
-5.31179e-12
-1.03169e-10
-4.63976e-10
-1.7722e-14
4.75308e-14
-1.08727e-13
4.34956e-13
-7.65676e-15
4.33022e-14
-4.05529e-16
5.31983e-16
-5.94475e-16
3.7568e-16
-7.83492e-16
3.81388e-16
-1.03543e-15
3.94141e-16
-8.05807e-15
1.11122e-15
-2.67745e-14
4.63437e-16
-2.07015e-14
2.65755e-16
-1.05707e-16
0
-5.21671e-17
5.24645e-18
-1.75912e-16
6.12848e-19
-1.68391e-17
5.18088e-18
-4.40809e-17
5.16243e-18
-2.43131e-14
3.08625e-16
-3.86713e-14
0
-9.45637e-15
-1.31057e-14
-1.58625e-14
-2.63582e-14
-3.70442e-14
-1.93906e-13
-2.21543e-13
-4.53145e-13
-4.39312e-12
-1.18985e-12
-2.10218e-11
-8.65701e-11
-4.24778e-14
4.94655e-14
-4.25987e-14
4.63311e-13
-1.33798e-15
1.93691e-15
-8.51361e-16
1.27813e-15
-9.02402e-16
1.04291e-15
-6.48768e-16
7.62115e-16
-5.6391e-16
4.95218e-16
-5.10058e-16
4.15984e-16
-3.78091e-16
2.88695e-16
-1.67131e-16
1.11348e-16
2.25718e-19
1.72456e-17
-1.07151e-18
-2.34472e-19
-2.1178e-18
1.31565e-18
-4.12791e-19
3.45685e-18
-5.30701e-19
6.93934e-19
-1.55757e-17
1.59973e-17
-1.41562e-15
6.70769e-19
-2.07408e-15
-4.6781e-20
-2.54643e-14
-3.17759e-14
-7.58787e-14
-1.02006e-12
-4.27814e-15
-1.71111e-12
0
-1.57549e-12
-9.32484e-11
0
-1.2991e-14
2.74512e-14
-1.45423e-15
1.28856e-15
-4.30857e-16
8.59923e-16
-4.87296e-16
8.56865e-16
-5.80177e-16
7.33184e-16
-6.10898e-16
6.41757e-16
-5.84279e-16
5.89825e-16
-4.22644e-16
4.77436e-16
-1.93445e-16
2.67517e-16
-4.42807e-17
1.05144e-16
4.39525e-18
1.74828e-17
8.86084e-18
-5.25245e-18
6.69976e-18
-1.34241e-17
2.714e-18
-1.35957e-17
1.19789e-19
-7.93868e-18
-3.90093e-20
-6.33432e-19
2.51037e-19
3.80723e-19
3.99342e-19
-1.74751e-19
-2.26033e-15
-1.08067e-18
-5.89844e-13
-1.61332e-12
0
-5.68869e-12
-1.8006e-12
-1.80479e-12
-4.66426e-13
-2.79008e-10
-2.8461e-16
9.51734e-15
-1.31558e-16
9.29363e-16
-2.36461e-16
9.12185e-16
-3.20032e-16
8.57955e-16
-3.69121e-16
7.31876e-16
-3.87263e-16
5.82483e-16
-3.72401e-16
4.51319e-16
-2.91109e-16
3.4096e-16
-1.36478e-16
2.15949e-16
-2.31959e-17
8.0656e-17
6.8186e-18
6.39307e-18
9.6413e-18
-9.38859e-18
6.19695e-18
-1.83422e-17
9.51297e-19
-1.99692e-17
-3.23502e-18
-1.40806e-17
-3.39911e-18
-4.7611e-18
-9.14565e-20
-2.26081e-20
4.57693e-19
7.85218e-19
3.57196e-17
-3.48312e-17
-1.69939e-13
-1.52997e-17
-2.95379e-13
-6.25192e-13
-4.8096e-15
-1.57816e-12
-4.71118e-13
-9.42933e-17
-5.29298e-17
2.19403e-15
-1.10289e-16
9.73438e-16
-1.8749e-16
9.67061e-16
-2.49855e-16
9.05801e-16
-2.87624e-16
7.71574e-16
-2.88627e-16
6.07677e-16
-2.61743e-16
4.3933e-16
-1.94885e-16
2.98993e-16
-8.57638e-17
1.68781e-16
-1.09657e-17
5.49778e-17
6.62561e-18
3.07291e-18
7.14231e-18
-1.11385e-17
2.04099e-18
-1.92106e-17
-5.1462e-18
-2.11821e-17
-1.14831e-17
-1.62706e-17
-1.24986e-17
-7.14421e-18
-7.20648e-18
3.60269e-19
-1.15347e-18
7.11593e-18
1.65736e-17
-1.17188e-18
2.47036e-19
1.02687e-18
-7.34461e-14
-7.01515e-18
-1.99501e-13
-9.08476e-19
-4.65077e-16
-7.79603e-16
-3.95695e-17
9.00418e-16
-8.05177e-17
1.00322e-15
-1.32549e-16
9.96969e-16
-1.73105e-16
9.19304e-16
-1.99047e-16
7.81552e-16
-1.93847e-16
6.21069e-16
-1.54573e-16
4.11268e-16
-9.58895e-17
2.29487e-16
-3.51858e-17
1.00416e-16
5.258e-19
2.6231e-17
4.12015e-18
-9.61956e-19
2.18966e-18
-1.05568e-17
-3.65235e-18
-1.64843e-17
-1.25305e-17
-1.77475e-17
-2.07244e-17
-1.33916e-17
-2.37278e-17
-4.97148e-18
-2.00604e-17
5.14982e-18
-1.12283e-17
1.44039e-17
7.0538e-19
1.69191e-17
-2.34076e-19
8.75691e-18
8.19455e-22
-7.25005e-18
-1.70054e-18
7.92878e-19
-2.34553e-19
-4.66511e-16
-1.94842e-17
7.96666e-16
-4.37051e-17
1.00422e-15
-6.70536e-17
9.72867e-16
-8.5076e-17
8.55045e-16
-9.75247e-17
7.1064e-16
-9.45393e-17
5.56492e-16
-6.86123e-17
3.68826e-16
-3.48183e-17
1.83835e-16
-1.01206e-17
6.74326e-17
3.52615e-19
1.46735e-17
2.05909e-19
-1.61527e-18
-2.21663e-18
-7.89136e-18
-8.8988e-18
-1.13631e-17
-1.86598e-17
-1.12334e-17
-2.76925e-17
-6.91358e-18
-3.20732e-17
6.40587e-19
-3.01802e-17
9.50455e-18
-2.26964e-17
1.72498e-17
-1.24131e-17
2.10852e-17
-3.03405e-18
1.90741e-17
6.5235e-19
1.14617e-17
-4.48341e-22
4.11363e-18
6.59174e-19
-8.94176e-19
2.31125e-18
7.50164e-16
2.75314e-18
9.35509e-16
9.30238e-19
8.67439e-16
-8.18694e-19
7.11085e-16
-2.27401e-18
5.53814e-16
-1.93592e-18
3.98775e-16
5.73236e-19
2.52767e-16
2.9915e-18
1.26768e-16
2.51299e-18
4.15111e-17
2.27234e-18
7.17598e-18
-6.79295e-19
-1.3932e-18
-4.76117e-18
-4.80776e-18
-1.21008e-17
-6.08699e-18
-2.15092e-17
-4.59961e-18
-2.9879e-17
-2.63267e-19
-3.41401e-17
4.97557e-18
-3.29272e-17
1.08172e-17
-2.68352e-17
1.57347e-17
-1.79703e-17
1.82868e-17
-8.9716e-18
1.76524e-17
-2.5028e-18
1.3797e-17
-1.14606e-19
7.89711e-18
2.15458e-18
-6.56842e-21
2.24143e-17
6.65605e-16
4.45427e-17
7.67188e-16
5.61765e-17
6.76958e-16
5.83524e-17
5.17829e-16
5.4907e-17
3.6468e-16
4.57474e-17
2.27942e-16
3.22762e-17
1.20274e-16
1.80777e-17
5.1952e-17
6.52768e-18
1.65647e-17
3.37033e-18
2.63512e-18
-9.3847e-19
-7.69397e-19
-5.4073e-18
-2.40263e-18
-1.23461e-17
-2.36066e-18
-2.03784e-17
-2.2989e-19
-2.70036e-17
2.47881e-18
-3.02343e-17
5.80117e-18
-2.92467e-17
9.03306e-18
-2.46157e-17
1.14047e-17
-1.78589e-17
1.23689e-17
-1.07774e-17
1.17938e-17
-4.88044e-18
9.98533e-18
-1.22675e-18
7.22077e-18
4.18557e-18
4.43708e-21
3.58821e-17
5.14225e-16
6.64406e-17
5.28821e-16
8.29804e-17
4.37795e-16
7.78532e-17
3.13682e-16
6.40482e-17
1.93411e-16
4.44179e-17
9.99678e-17
2.44593e-17
4.03671e-17
1.0522e-17
1.23855e-17
3.15358e-18
2.94256e-18
1.48048e-18
3.13074e-19
-8.37292e-19
-3.79668e-19
-4.54167e-18
-1.01522e-18
-1.01887e-17
-4.84897e-19
-1.62616e-17
8.52713e-19
-2.09253e-17
2.57685e-18
-2.28708e-17
4.41038e-18
-2.18436e-17
5.88892e-18
-1.8468e-17
6.70695e-18
-1.38453e-17
6.75433e-18
-9.13238e-18
6.13478e-18
-5.18155e-18
5.19793e-18
-2.29132e-18
4.05324e-18
2.83166e-18
-6.15015e-19
3.6546e-17
2.97153e-16
6.19911e-17
2.78588e-16
6.98893e-17
2.12952e-16
5.97395e-17
1.38059e-16
4.07509e-17
7.10511e-17
2.1856e-17
2.8057e-17
8.68443e-18
7.98333e-18
2.56498e-18
1.60629e-18
4.38321e-19
2.02308e-19
8.79753e-20
4.38125e-20
-7.83359e-19
-2.27425e-19
-3.23737e-18
-3.86565e-19
-7.017e-18
7.29872e-20
-1.10137e-17
7.54601e-19
-1.3867e-17
1.67199e-18
-1.47944e-17
2.52043e-18
-1.38312e-17
3.06549e-18
-1.15473e-17
3.21962e-18
-8.68498e-18
3.01803e-18
-5.91346e-18
2.57055e-18
-3.72038e-18
2.05282e-18
-2.09346e-18
1.60596e-18
1.18443e-18
-9.87715e-19
2.114e-17
8.90693e-17
3.52833e-17
8.57246e-17
3.49961e-17
6.03255e-17
2.58564e-17
3.36263e-17
1.3586e-17
1.33672e-17
5.07048e-18
3.59695e-18
1.33203e-18
6.4968e-19
2.20982e-19
7.6375e-20
8.18911e-20
4.54054e-20
-1.16254e-19
-4.24383e-20
-7.58227e-19
-1.53954e-19
-2.12589e-18
-1.37464e-19
-4.12383e-18
1.01897e-19
-6.27028e-18
4.23864e-19
-7.73186e-18
8.06462e-19
-8.05965e-18
1.12046e-18
-7.3495e-18
1.27518e-18
-6.0006e-18
1.25457e-18
-4.44943e-18
1.1014e-18
-3.0227e-18
8.80404e-19
-1.93029e-18
6.50046e-19
-1.2038e-18
4.78299e-19
3.53812e-19
-6.99594e-19
4.73559e-18
7.31767e-18
9.12093e-18
9.26594e-18
8.10927e-18
6.17614e-18
4.90095e-18
2.89235e-18
1.82138e-18
8.37481e-19
4.27963e-19
1.42892e-19
6.40311e-20
1.55139e-20
2.90412e-20
5.76426e-22
-7.31588e-21
-3.20241e-21
-1.48016e-19
-4.19935e-20
-5.35035e-19
-8.00811e-20
-1.23602e-18
-4.01849e-20
-2.154e-18
5.97456e-20
-3.02928e-18
1.8153e-19
-3.56507e-18
3.08047e-19
-3.6058e-18
3.95374e-19
-3.20413e-18
4.21076e-19
-2.54986e-18
3.90026e-19
-1.8472e-18
3.23559e-19
-1.23422e-18
2.45246e-19
-7.69215e-19
1.72253e-19
-4.8177e-19
1.15592e-19
7.88695e-20
-3.05578e-19
2.64084e-19
1.01949e-19
7.23449e-19
2.14391e-19
6.0571e-19
1.42445e-19
2.94883e-19
5.84267e-20
7.56095e-20
1.2974e-20
1.09031e-20
1.56973e-21
7.47429e-22
8.99985e-23
2.89457e-22
1.47114e-22
-1.95533e-20
-6.99851e-21
-1.01179e-19
-2.29984e-20
-2.88736e-19
-3.24398e-20
-5.85297e-19
-6.06743e-21
-9.33108e-19
2.46756e-20
-1.22303e-18
6.09681e-20
-1.35855e-18
9.33478e-20
-1.31002e-18
1.10708e-19
-1.11916e-18
1.09991e-19
-8.62435e-19
9.54796e-20
-6.09083e-19
7.44221e-20
-3.99679e-19
5.31046e-20
-2.46567e-19
3.5188e-20
-1.47408e-19
2.18856e-20
1.33417e-20
-9.09505e-20
3.7468e-21
4.57674e-22
1.50946e-20
1.31527e-21
1.25183e-20
8.83557e-22
5.25459e-21
3.4438e-22
1.0624e-21
7.02826e-23
1.04702e-22
7.38341e-24
5.67182e-23
3.2876e-23
-1.38027e-21
-5.89471e-22
-1.31007e-20
-3.88864e-21
-5.00495e-20
-9.16197e-21
-1.22152e-19
-1.00318e-20
-2.22329e-19
5.30362e-22
-3.26332e-19
7.72589e-21
-3.98235e-19
1.59771e-20
-4.15462e-19
2.20394e-20
-3.78998e-19
2.40249e-20
-3.08228e-19
2.21293e-20
-2.27352e-19
1.78882e-20
-1.5445e-19
1.30162e-20
-9.7966e-20
8.68448e-21
-5.87245e-20
5.38799e-21
-3.36235e-20
3.14215e-21
1.7379e-21
-1.92205e-20
2.84005e-23
2.33996e-22
1.41785e-22
6.74426e-24
1.134e-22
4.31533e-24
4.21601e-23
1.53643e-24
7.14401e-24
3.2276e-23
5.46725e-24
3.58431e-24
-2.47701e-23
-1.22225e-23
-9.61875e-22
-3.45738e-22
-5.89865e-21
-1.44334e-21
-1.86383e-20
-2.68264e-21
-3.99582e-20
-2.15486e-21
-6.59856e-20
3.99978e-22
-8.91799e-20
1.83499e-21
-1.00967e-19
3.19427e-21
-9.83331e-20
3.9415e-21
-8.41976e-20
3.91704e-21
-6.45851e-20
3.31829e-21
-4.51255e-20
2.47882e-21
-2.91496e-20
1.67155e-21
-1.76428e-20
1.03541e-21
-1.01256e-20
5.97151e-22
-5.56954e-21
3.24055e-22
1.66843e-22
-2.96515e-21
-3.80366e-25
-1.50344e-24
1.05593e-24
4.32676e-24
7.80099e-25
2.77805e-24
1.0047e-24
9.93868e-25
-2.21947e-24
-1.64224e-24
-4.90513e-24
-2.73962e-24
-2.69923e-23
-1.1225e-23
-3.94833e-22
-1.17477e-22
-1.8945e-21
-3.70681e-22
-5.13693e-21
-5.42562e-22
-9.79928e-21
-2.41114e-22
-1.47825e-20
1.19722e-22
-1.83519e-20
3.21842e-22
-1.91785e-20
4.7135e-22
-1.73177e-20
5.15425e-22
-1.38066e-20
4.62469e-22
-9.89963e-21
3.57025e-22
-6.48837e-21
2.44369e-22
-3.94383e-21
1.51499e-22
-2.2522e-21
8.64674e-23
-1.22256e-21
4.60168e-23
-6.3743e-22
2.30675e-23
1.0979e-23
-3.22156e-22
-2.25325e-24
-7.71108e-24
-4.33649e-24
-7.79621e-24
-5.36603e-24
-6.27555e-24
-5.65968e-24
-4.73863e-24
-5.51493e-24
-3.4315e-24
-4.87032e-24
-2.26463e-24
-1.23512e-23
-4.20541e-24
-1.07772e-22
-2.54742e-23
-4.27562e-22
-6.23873e-23
-1.01454e-21
-6.61701e-23
-1.74066e-21
1.82261e-24
-2.40894e-21
2.14202e-23
-2.73449e-21
4.00865e-23
-2.62035e-21
4.93243e-23
-2.17682e-21
4.73322e-23
-1.60216e-21
3.79494e-23
-1.06413e-21
2.64366e-23
-6.48058e-22
1.64277e-23
-3.67012e-22
9.28377e-24
-1.95731e-22
4.84358e-24
-9.94168e-23
2.36091e-24
-4.85823e-23
1.08543e-24
4.74219e-25
-2.30452e-23
-6.38019e-25
-1.79748e-24
-1.8428e-24
-2.70969e-24
-2.46494e-24
-2.35554e-24
-2.50069e-24
-1.70473e-24
-2.1753e-24
-1.09304e-24
-1.71363e-24
-6.33502e-25
-3.17056e-24
-8.33893e-25
-1.95472e-23
-3.37153e-24
-6.60756e-23
-6.12477e-24
-1.39193e-22
-2.86116e-24
-2.18571e-22
9.12873e-25
-2.75408e-22
2.40709e-24
-2.83568e-22
3.39538e-24
-2.47013e-22
3.506e-24
-1.87087e-22
2.92508e-24
-1.25949e-22
2.07428e-24
-7.67607e-23
1.29109e-24
-4.30235e-23
7.21631e-25
-2.24835e-23
3.68531e-25
-1.10896e-23
1.74334e-25
-5.21914e-24
7.72378e-26
-2.36677e-24
3.23354e-26
1.28783e-26
-1.04309e-24
-1.01387e-25
-2.16724e-25
-3.60582e-25
-4.02537e-25
-4.99125e-25
-3.63398e-25
-4.97562e-25
-2.57498e-25
-4.13609e-25
-1.55626e-25
-3.07577e-25
-8.26758e-26
-4.83702e-25
-8.71662e-26
-2.32959e-24
-2.40335e-25
-6.8588e-24
-2.3142e-25
-1.30561e-23
2.76647e-26
-1.88679e-23
1.05091e-25
-2.13134e-23
1.69403e-25
-1.96831e-23
1.87713e-25
-1.54199e-23
1.62477e-25
-1.05389e-23
1.16902e-25
-6.42522e-24
7.26374e-26
-3.55854e-24
4.00218e-26
-1.8182e-24
1.99432e-26
-8.68544e-25
9.1275e-27
-3.92506e-25
3.88467e-27
-1.69582e-25
1.55308e-27
-7.07114e-26
5.8805e-28
2.11133e-28
-2.86881e-26
-1.0851e-26
-1.5029e-26
-4.20033e-26
-3.07808e-26
-5.77162e-26
-2.78702e-26
-5.60994e-26
-1.91108e-26
-4.5009e-26
-1.07948e-26
-3.21186e-26
-5.10727e-27
-4.58418e-26
-4.0882e-27
-1.8311e-25
-4.74355e-27
-4.7969e-25
8.66044e-28
-8.44663e-25
3.57144e-27
-1.08292e-24
6.3069e-27
-1.0793e-24
7.3875e-27
-8.82135e-25
6.57438e-27
-6.1416e-25
4.76536e-27
-3.74698e-25
2.93742e-27
-2.04795e-25
1.5863e-27
-1.02083e-25
7.67172e-28
-4.71077e-26
3.37961e-28
-2.03857e-26
1.37476e-28
-8.36733e-27
5.22191e-29
-3.29057e-27
1.86933e-29
-1.25114e-27
6.34903e-30
1.65158e-30
-4.61253e-28
-8.67771e-28
-4.82925e-28
-3.33345e-27
-1.04989e-27
-4.368e-27
-9.38805e-28
-4.0664e-27
-5.95226e-28
-3.13628e-27
-2.79134e-28
-2.15844e-27
-7.91372e-29
-2.87362e-27
2.01785e-30
-9.89827e-27
2.77561e-29
-2.36247e-26
9.83911e-29
-3.63579e-26
1.81872e-28
-4.02669e-26
2.2124e-28
-3.48366e-26
2.00164e-28
-2.48632e-26
1.44816e-28
-1.52064e-26
8.78159e-29
-8.19541e-27
4.61156e-29
-3.9766e-27
2.14824e-29
-1.76738e-27
9.04298e-30
-7.29893e-28
3.49095e-30
-2.83564e-28
1.25095e-30
-1.04767e-28
4.20337e-31
-3.71716e-29
1.33561e-31
-1.27654e-29
3.93055e-32
-2.21402e-31
-3.43184e-30
-5.74754e-29
1.4787e-30
-2.07784e-28
2.03612e-30
-2.5109e-28
1.27222e-30
-2.18804e-28
8.69121e-31
-1.60301e-28
6.67519e-31
-1.06386e-28
5.15485e-31
-1.33827e-28
7.20013e-31
-3.9501e-28
2.09706e-30
-7.90414e-28
4.14237e-30
-1.02235e-27
5.26819e-30
-9.60484e-28
4.8324e-30
-7.11298e-28
3.46585e-30
-4.38156e-28
2.04991e-30
-2.32956e-28
1.03721e-30
-1.09811e-28
4.61045e-31
-4.68436e-29
1.83702e-31
-1.8383e-29
6.66623e-32
-6.72797e-30
2.23185e-32
-2.32366e-30
6.96914e-33
-7.65269e-31
2.04849e-33
-2.42586e-31
5.70722e-34
-7.26007e-32
-2.689e-35
-1.247e-31
7.97037e-31
-3.46696e-30
3.03473e-31
-1.16479e-29
4.53546e-31
-1.27882e-29
2.84169e-31
-1.02386e-29
1.54628e-31
-6.96638e-30
8.09401e-32
-4.29797e-30
4.19934e-32
-4.7308e-30
3.94934e-32
-1.10308e-29
7.48656e-32
-1.78496e-29
1.03798e-31
-1.90331e-29
9.84887e-32
-1.49569e-29
7.0247e-32
-9.37161e-30
4.0317e-32
-4.92911e-30
1.9475e-32
-2.25419e-30
8.16724e-33
-9.19473e-31
3.04185e-33
-3.41074e-31
1.02385e-33
-1.16861e-31
3.15817e-34
-3.74668e-32
9.03196e-35
-1.13676e-32
2.41867e-35
-3.29688e-33
6.11744e-36
-9.21476e-34
1.38433e-36
1.00811e-33
-5.74289e-35
-3.28329e-32
2.4829e-31
-1.7584e-31
2.53839e-32
-5.47603e-31
3.53482e-32
-5.43891e-31
2.00148e-32
-3.92198e-31
9.5062e-33
-2.39177e-31
4.19279e-33
-1.31479e-31
1.78449e-33
-1.22482e-31
1.30681e-33
-2.20086e-31
1.76264e-33
-2.8198e-31
1.79843e-33
-2.44301e-31
1.30202e-33
-1.58626e-31
7.26543e-34
-8.30974e-32
3.3224e-34
-3.686e-32
1.29638e-34
-1.43104e-32
4.43782e-35
-4.98056e-33
1.36012e-35
-1.58271e-33
3.79107e-36
-4.66045e-34
9.73265e-37
-1.28751e-34
2.32609e-37
-3.37361e-35
5.22374e-38
-8.46709e-36
1.11144e-38
-1.93109e-36
-4.16468e-38
1.66045e-34
-1.72239e-35
-5.2152e-33
5.2024e-32
-7.21333e-33
1.53307e-33
-2.07096e-32
1.93932e-33
-1.84851e-32
9.69178e-34
-1.18806e-32
3.99507e-34
-6.40121e-33
1.4986e-34
-3.08035e-33
5.32058e-35
-2.39894e-33
3.14141e-35
-3.28216e-33
3.12539e-35
-3.28326e-33
2.368e-35
-2.27916e-33
1.30245e-35
-1.20397e-33
5.61613e-36
-5.18247e-34
2.00965e-36
-1.90224e-34
6.19529e-37
-6.14311e-35
1.68807e-37
-1.78564e-35
4.14205e-38
-4.75419e-36
9.28549e-39
-1.17596e-36
1.92431e-39
-2.73505e-37
3.72379e-40
-6.04543e-38
6.78893e-41
-1.28238e-38
1.17348e-41
1.09617e-37
-1.20016e-38
2.33458e-35
-1.84051e-36
-4.36096e-34
6.48986e-33
-2.27555e-34
7.57221e-35
-6.21672e-34
8.59284e-35
-5.03e-34
3.71747e-35
-2.87621e-34
1.31757e-35
-1.35681e-34
4.17917e-36
-5.63487e-35
1.23083e-36
-3.67209e-35
6.0404e-37
-3.84772e-35
4.52746e-37
-2.96119e-35
2.53351e-37
-1.61169e-35
1.03709e-37
-6.75858e-36
3.35496e-38
-2.32811e-36
9.06724e-39
-6.87623e-37
2.12299e-39
-1.79392e-37
4.41404e-40
-4.22472e-38
8.29678e-41
-9.13332e-39
1.4294e-41