/*--------------------------------*- C++ -*----------------------------------*\
  =========                 |
  \\      /  F ield         | OpenFOAM: The Open Source CFD Toolbox
   \\    /   O peration     | Website:  https://openfoam.org
    \\  /    A nd           | Version:  9
     \\/     M anipulation  |
\*---------------------------------------------------------------------------*/
FoamFile
{
    format      ascii;
    class       volVectorField;
    location    "1.07";
    object      U;
}
// * * * * * * * * * * * * * * * * * * * * * * * * * * * * * * * * * * * * * //

dimensions      [0 1 -1 0 0 0 0];

internalField   nonuniform List<vector> 
2268
(
(0.0231631 -0.0101161 0)
(0.0354431 0.00087492 0)
(0.0210674 0.00434802 0)
(0.00814413 0.00466632 0)
(-0.00645 0.00476151 0)
(-0.0189669 0.00430434 0)
(-0.0279377 0.00316578 0)
(-0.031586 0.00128743 0)
(-0.0292453 -0.000899886 0)
(-0.0222751 -0.00245728 0)
(-0.0145463 -0.00252372 0)
(-0.0107489 -0.00094567 0)
(-0.0149401 0.00164919 0)
(-0.0296782 0.00544162 0)
(-0.0558318 0.00874189 0)
(-0.0888795 0.00976696 0)
(-0.120014 0.00734915 0)
(-0.136004 -0.000146787 0)
(-0.120596 -0.011572 0)
(-0.072508 -0.0217527 0)
(-0.00505185 -0.0233897 0)
(0.0524547 -0.00732316 0)
(0.0524574 0.0150313 0)
(0.00824267 -0.0194805 0)
(0.0134524 0.00228343 0)
(-0.000298258 0.00909966 0)
(-0.0129117 0.0100749 0)
(-0.0255197 0.00930429 0)
(-0.034152 0.00700537 0)
(-0.0374465 0.00348417 0)
(-0.035078 -0.000616191 0)
(-0.0284818 -0.00412743 0)
(-0.0202594 -0.00560417 0)
(-0.0138588 -0.00396567 0)
(-0.0133099 0.00084481 0)
(-0.0219986 0.00785938 0)
(-0.0415254 0.0160791 0)
(-0.0711364 0.0225555 0)
(-0.106327 0.0240057 0)
(-0.138451 0.0176298 0)
(-0.155299 0.00119887 0)
(-0.146078 -0.0222041 0)
(-0.107675 -0.0423902 0)
(-0.049778 -0.0460078 0)
(0.00590534 -0.02073 0)
(0.0381376 0.0328672 0)
(-0.00185612 -0.0206033 0)
(-0.000867744 0.00541801 0)
(-0.013037 0.0143995 0)
(-0.0236105 0.0154713 0)
(-0.0331553 0.0132984 0)
(-0.038514 0.0087568 0)
(-0.038736 0.00275864 0)
(-0.0341044 -0.00332403 0)
(-0.0263689 -0.00773922 0)
(-0.018267 -0.00871334 0)
(-0.0132414 -0.00497146 0)
(-0.015035 0.00343914 0)
(-0.0265998 0.0152048 0)
(-0.049032 0.0279647 0)
(-0.0809061 0.0376123 0)
(-0.117724 0.0394469 0)
(-0.152065 0.0292638 0)
(-0.173243 0.0042399 0)
(-0.170241 -0.0310386 0)
(-0.139133 -0.0621874 0)
(-0.0868064 -0.0712492 0)
(-0.0297522 -0.0414315 0)
(0.0118586 0.0355946 0)
(-0.00779562 -0.018079 0)
(-0.0103865 0.0090033 0)
(-0.0211142 0.0189331 0)
(-0.0298822 0.0197519 0)
(-0.0369315 0.0161291 0)
(-0.0399413 0.00948315 0)
(-0.0382544 0.00129495 0)
(-0.0323911 -0.00644725 0)
(-0.0241722 -0.0114544 0)
(-0.0163546 -0.0115827 0)
(-0.0124462 -0.00531947 0)
(-0.0161655 0.00714566 0)
(-0.0302561 0.0238368 0)
(-0.055493 0.0413108 0)
(-0.0901136 0.0542257 0)
(-0.129746 0.0566676 0)
(-0.167964 0.0432091 0)
(-0.194729 0.00987204 0)
(-0.198208 -0.0375765 0)
(-0.173334 -0.0807119 0)
(-0.124492 -0.0974926 0)
(-0.0631662 -0.0662056 0)
(-0.010033 0.0250313 0)
(-0.011231 -0.0128922 0)
(-0.016664 0.0131725 0)
(-0.026367 0.0228959 0)
(-0.0337019 0.0231056 0)
(-0.0388362 0.018016 0)
(-0.0401473 0.00940085 0)
(-0.0371673 -0.000767449 0)
(-0.0305115 -0.00992404 0)
(-0.0220125 -0.0152621 0)
(-0.0144255 -0.0142326 0)
(-0.0113825 -0.00505539 0)
(-0.0167827 0.0118807 0)
(-0.033338 0.033814 0)
(-0.0616122 0.0562162 0)
(-0.0996096 0.0725641 0)
(-0.143113 0.075979 0)
(-0.186603 0.0598805 0)
(-0.220114 0.0185618 0)
(-0.230324 -0.0413047 0)
(-0.211171 -0.0973153 0)
(-0.165401 -0.124457 0)
(-0.0987544 -0.0974009 0)
(-0.0262367 0.00273331 0)
(-0.0132106 -0.00602573 0)
(-0.0206382 0.0177175 0)
(-0.0296101 0.0264453 0)
(-0.0358469 0.025736 0)
(-0.0395675 0.0191787 0)
(-0.0396765 0.00872541 0)
(-0.0358135 -0.00324514 0)
(-0.0286317 -0.0136179 0)
(-0.0199645 -0.019084 0)
(-0.0125451 -0.016664 0)
(-0.0101625 -0.0042446 0)
(-0.0170663 0.0175805 0)
(-0.0361051 0.0451522 0)
(-0.0676979 0.0727924 0)
(-0.109596 0.0928366 0)
(-0.157713 0.0977037 0)
(-0.207442 0.0796557 0)
(-0.248365 0.0305318 0)
(-0.265029 -0.0420777 0)
(-0.251208 -0.111413 0)
(-0.209943 -0.151251 0)
(-0.142179 -0.134863 0)
(-0.0471257 -0.0264398 0)
(-0.0143047 0.00187622 0)
(-0.0229153 0.0224704 0)
(-0.031294 0.0296828 0)
(-0.0367027 0.0278354 0)
(-0.0394335 0.0198278 0)
(-0.0387519 0.0076472 0)
(-0.0343415 -0.00598946 0)
(-0.0268762 -0.0174347 0)
(-0.0181897 -0.0228884 0)
(-0.0109393 -0.0189196 0)
(-0.00905143 -0.00295723 0)
(-0.0172822 0.0242757 0)
(-0.0388105 0.0580345 0)
(-0.0739297 0.0913579 0)
(-0.120017 0.115451 0)
(-0.173077 0.12232 0)
(-0.229471 0.102957 0)
(-0.277677 0.0459436 0)
(-0.299912 -0.039837 0)
(-0.291086 -0.122744 0)
(-0.255381 -0.175739 0)
(-0.195801 -0.177279 0)
(-0.0975163 -0.0866628 0)
(-0.0148055 0.0102692 0)
(-0.0238719 0.0272767 0)
(-0.031696 0.0326395 0)
(-0.0365015 0.0295248 0)
(-0.0386202 0.0201062 0)
(-0.0375314 0.0062912 0)
(-0.0329211 -0.00890839 0)
(-0.0254818 -0.021318 0)
(-0.0170315 -0.0266615 0)
(-0.0100503 -0.0210443 0)
(-0.0084956 -0.00120267 0)
(-0.0177898 0.0320303 0)
(-0.0417188 0.0725018 0)
(-0.0803942 0.11191 0)
(-0.1306 0.140452 0)
(-0.188453 0.149954 0)
(-0.251314 0.130048 0)
(-0.305714 0.0650259 0)
(-0.333325 -0.0351884 0)
(-0.327299 -0.132338 0)
(-0.29539 -0.19589 0)
(-0.251194 -0.218685 0)
(-0.184392 -0.1822 0)
(0.0745323 -0.0427195 0)
(0.131897 0.011617 0)
(-0.0469123 0.0469458 0)
(-0.227189 0.0423183 0)
(-0.338687 0.0127073 0)
(-0.328281 -0.0189332 0)
(-0.245726 -0.0346804 0)
(-0.143591 -0.0320005 0)
(-0.0726117 -0.0135146 0)
(-0.0440923 -0.00706471 0)
(-0.0196354 -0.00782491 0)
(0.00652743 -0.00628419 0)
(0.0217316 -0.000768232 0)
(0.0218829 0.000467405 0)
(0.0237505 -0.00298138 0)
(0.0315027 -0.00411562 0)
(0.0391572 -0.00453398 0)
(0.0388383 -0.00310159 0)
(0.0515007 0.0120191 0)
(0.0129393 -0.0610678 0)
(0.0547007 0.0497386 0)
(-0.104306 0.100484 0)
(-0.229022 0.0917715 0)
(-0.296014 0.0373507 0)
(-0.287682 -0.0289855 0)
(-0.220302 -0.0613652 0)
(-0.124188 -0.0648707 0)
(-0.0533575 -0.032491 0)
(-0.0214043 -0.016648 0)
(0.00611121 -0.0179168 0)
(0.0349617 -0.0156217 0)
(0.0552942 -0.00639443 0)
(0.0629028 -0.00110601 0)
(0.0637907 -0.00201167 0)
(0.0627179 -0.00305955 0)
(0.0566837 -0.00190411 0)
(0.0395694 0.00100426 0)
(0.0380464 0.0272031 0)
(-0.0201131 -0.0634307 0)
(-0.00267588 0.0764258 0)
(-0.107975 0.138361 0)
(-0.17993 0.125332 0)
(-0.247185 0.0518484 0)
(-0.256476 -0.0399884 0)
(-0.193471 -0.087018 0)
(-0.0962673 -0.0941128 0)
(-0.0271632 -0.0528057 0)
(0.0050996 -0.0295939 0)
(0.0321188 -0.029581 0)
(0.0610615 -0.0253312 0)
(0.0820767 -0.01251 0)
(0.0926657 -0.00418852 0)
(0.0962246 -0.00191585 0)
(0.0922827 -4.92567e-05 0)
(0.0780311 0.00463676 0)
(0.0505541 0.0105483 0)
(0.0204153 0.0410659 0)
(-0.0356642 -0.0534753 0)
(-0.0249375 0.0951937 0)
(-0.0884931 0.163445 0)
(-0.140587 0.151996 0)
(-0.207029 0.0721137 0)
(-0.229414 -0.0470343 0)
(-0.162042 -0.125632 0)
(-0.0574761 -0.125497 0)
(0.0040698 -0.0661077 0)
(0.0339458 -0.0411604 0)
(0.0600545 -0.0421285 0)
(0.0919257 -0.0371155 0)
(0.114472 -0.0198014 0)
(0.126764 -0.00780666 0)
(0.130041 -0.00187696 0)
(0.124344 0.00526313 0)
(0.102238 0.0160315 0)
(0.065934 0.0273521 0)
(0.0156265 0.0568311 0)
(-0.0411634 -0.0427041 0)
(-0.0224097 0.104897 0)
(-0.0491201 0.178848 0)
(-0.0974869 0.176984 0)
(-0.166629 0.0996558 0)
(-0.191319 -0.0630397 0)
(-0.120814 -0.170319 0)
(-0.0224046 -0.185442 0)
(0.0433176 -0.0782172 0)
(0.0718509 -0.0472839 0)
(0.0945771 -0.0515408 0)
(0.128398 -0.0475808 0)
(0.155059 -0.0282695 0)
(0.168159 -0.0112877 0)
(0.163964 0.000235553 0)
(0.150916 0.0125651 0)
(0.122872 0.0304687 0)
(0.0795391 0.0474882 0)
(0.0206341 0.0747121 0)
(-0.0456985 -0.0337253 0)
(-0.00373375 0.102605 0)
(0.000267922 0.188421 0)
(-0.0472626 0.202835 0)
(-0.123594 0.126195 0)
(-0.137884 -0.0787135 0)
(-0.0792368 -0.193899 0)
(-0.0136717 -0.215063 0)
(0.0582725 -0.114028 0)
(0.118392 -0.056564 0)
(0.142895 -0.0637752 0)
(0.180424 -0.0553284 0)
(0.204133 -0.0313103 0)
(0.206506 -0.0103261 0)
(0.191304 0.0053268 0)
(0.169611 0.0218739 0)
(0.136189 0.0452149 0)
(0.088012 0.0643949 0)
(0.0320641 0.0877552 0)
(-0.0421877 -0.0248542 0)
(0.010264 0.092633 0)
(0.0423721 0.187001 0)
(0.00657111 0.232603 0)
(-0.0728099 0.144626 0)
(-0.0818322 -0.0885647 0)
(-0.0385246 -0.212057 0)
(0.00348129 -0.236148 0)
(0.0723664 -0.157905 0)
(0.14537 -0.0717183 0)
(0.191568 -0.0910831 0)
(0.246683 -0.0780238 0)
(0.26246 -0.0319333 0)
(0.241084 -0.00220122 0)
(0.211125 0.0145912 0)
(0.179327 0.0322868 0)
(0.14317 0.0602077 0)
(0.0897652 0.0843349 0)
(0.0445987 0.124065 0)
(-0.0237839 -0.0192947 0)
(0.0247035 0.079167 0)
(0.0620131 0.178942 0)
(0.0527298 0.258028 0)
(-0.0135436 0.160172 0)
(-0.0212166 -0.0938999 0)
(0.00696894 -0.22769 0)
(0.0360601 -0.254658 0)
(0.086406 -0.183867 0)
(0.1456 -0.102711 0)
(0.199661 -0.114757 0)
(0.253848 -0.0981566 0)
(0.297965 -0.0413534 0)
(0.273334 0.0114043 0)
(0.224701 0.0281968 0)
(0.174347 0.0467481 0)
(0.130232 0.0861401 0)
(0.0606566 0.117884 0)
(0.0229618 0.169423 0)
(-0.014927 0.0235517 0)
(-0.023655 0.0347486 0)
(-0.0306518 0.0368415 0)
(-0.0348566 0.03163 0)
(-0.036608 0.0200977 0)
(-0.0355329 0.0038497 0)
(-0.031294 -0.0136674 0)
(-0.0246332 -0.0274158 0)
(-0.0172423 -0.0324762 0)
(-0.011035 -0.0242681 0)
(-0.00970605 0.00229111 0)
(-0.0200946 0.0451061 0)
(-0.0473789 0.0952436 0)
(-0.0909973 0.143555 0)
(-0.146584 0.179751 0)
(-0.21078 0.194415 0)
(-0.282691 0.176644 0)
(-0.347392 0.101722 0)
(-0.382775 -0.0283109 0)
(-0.370021 -0.147783 0)
(-0.340082 -0.222315 0)
(-0.308489 -0.255949 0)
(-0.281903 -0.241346 0)
(-0.0131758 0.0403211 0)
(-0.0201522 0.0440962 0)
(-0.026113 0.0420703 0)
(-0.0303537 0.0344879 0)
(-0.0332938 0.0207257 0)
(-0.034402 0.00169611 0)
(-0.0331311 -0.0185337 0)
(-0.0303312 -0.0337019 0)
(-0.0272384 -0.0385136 0)
(-0.0239652 -0.0289039 0)
(-0.0231904 0.00434445 0)
(-0.0303582 0.0579273 0)
(-0.052101 0.125769 0)
(-0.0949324 0.190476 0)
(-0.154519 0.230673 0)
(-0.225032 0.246611 0)
(-0.312663 0.235661 0)
(-0.388778 0.13956 0)
(-0.405263 -0.032219 0)
(-0.385531 -0.166944 0)
(-0.357776 -0.253564 0)
(-0.324719 -0.291987 0)
(-0.286288 -0.284636 0)
(-0.00926684 0.0537373 0)
(-0.0136155 0.0514905 0)
(-0.0186156 0.0470276 0)
(-0.0237298 0.038665 0)
(-0.029581 0.024143 0)
(-0.0353403 0.00346692 0)
(-0.0402867 -0.0185374 0)
(-0.0455925 -0.0345269 0)
(-0.0522096 -0.0389817 0)
(-0.0591257 -0.0306971 0)
(-0.0584446 0.00583112 0)
(-0.0485808 0.074674 0)
(-0.0496451 0.160411 0)
(-0.0653932 0.236476 0)
(-0.118942 0.282536 0)
(-0.194134 0.297976 0)
(-0.300432 0.308228 0)
(-0.343319 0.154564 0)
(-0.346524 -0.0416888 0)
(-0.349347 -0.183685 0)
(-0.339222 -0.277648 0)
(-0.317278 -0.324053 0)
(-0.287342 -0.324254 0)
(-0.00284651 0.0615016 0)
(-0.0043737 0.0561447 0)
(-0.00840096 0.0519891 0)
(-0.0148436 0.0456619 0)
(-0.0249179 0.0332946 0)
(-0.03771 0.0135183 0)
(-0.0532983 -0.00844879 0)
(-0.0734046 -0.0220608 0)
(-0.0968981 -0.021457 0)
(-0.131415 -0.0150977 0)
(-0.171457 0.00567549 0)
(-0.166531 0.0518037 0)
(-0.118083 0.113788 0)
(0.00542329 0.260975 0)
(0.0427915 0.390852 0)
(0.024272 0.4577 0)
(0.0212658 0.545221 0)
(-0.147606 0.20959 0)
(-0.208056 -0.0283849 0)
(-0.271177 -0.18112 0)
(-0.295801 -0.286192 0)
(-0.295877 -0.337848 0)
(-0.280997 -0.345899 0)
(0.00365289 0.0588421 0)
(0.00524763 0.0573751 0)
(0.00347825 0.0573856 0)
(-0.00309529 0.0570269 0)
(-0.0166216 0.0513365 0)
(-0.0375499 0.0374298 0)
(-0.0687632 0.0203495 0)
(-0.118884 0.0135898 0)
(-0.192529 0.0322835 0)
(-0.276307 0.0468856 0)
(-0.327344 0.0322043 0)
(-0.350487 0.0226867 0)
(-0.353895 0.0466041 0)
(-0.300268 0.15223 0)
(-0.0982348 0.291727 0)
(0.111686 0.370142 0)
(0.254794 0.499325 0)
(0.236668 0.425982 0)
(0.0513211 0.107359 0)
(-0.125977 -0.13542 0)
(-0.229503 -0.276283 0)
(-0.265361 -0.339788 0)
(-0.270488 -0.35644 0)
(0.0087499 0.0688716 0)
(0.0147962 0.0674962 0)
(0.01609 0.0688242 0)
(0.0128047 0.0724866 0)
(0.00221374 0.0711507 0)
(-0.0201058 0.0619336 0)
(-0.0735901 0.058389 0)
(-0.202777 0.0872722 0)
(-0.33587 0.116809 0)
(-0.39163 0.105733 0)
(-0.434635 0.076926 0)
(-0.478179 0.047261 0)
(-0.510122 0.0421929 0)
(-0.514276 0.0670494 0)
(-0.454439 0.0324886 0)
(-0.301911 0.0472504 0)
(-0.0734237 0.281332 0)
(0.0399167 0.443713 0)
(0.03643 0.318683 0)
(-0.0574412 0.0979219 0)
(-0.117716 -0.116173 0)
(-0.179613 -0.309661 0)
(-0.235728 -0.353897 0)
(-0.000823942 0.0422765 0)
(0.0200753 0.054341 0)
(0.0270925 0.0619844 0)
(0.0290753 0.0696627 0)
(0.0228595 0.0730815 0)
(-0.00397134 0.0754597 0)
(-0.122854 0.113669 0)
(-0.363627 0.237627 0)
(-0.406855 0.181019 0)
(-0.429687 0.141907 0)
(-0.468628 0.114408 0)
(-0.541817 0.0791438 0)
(-0.601735 0.052399 0)
(-0.618263 0.0301907 0)
(-0.598063 -0.0145432 0)
(-0.560784 0.00755241 0)
(-0.499871 0.148446 0)
(-0.330108 0.357623 0)
(-0.212316 0.303058 0)
(-0.186004 0.122093 0)
(-0.215524 -0.13496 0)
(-0.224867 -0.264762 0)
(-0.200239 -0.287129 0)
(-0.0300251 0.0369683 0)
(0.0125841 0.0419732 0)
(0.019317 0.0535684 0)
(0.0200725 0.0660734 0)
(0.00372978 0.0844226 0)
(-0.0883954 0.201742 0)
(-0.263956 0.537252 0)
(-0.360088 0.406986 0)
(-0.361901 0.190427 0)
(-0.402423 0.14682 0)
(-0.451135 0.147541 0)
(-0.535159 0.132065 0)
(-0.62987 0.0899337 0)
(-0.653477 0.0354791 0)
(-0.658781 -0.0223483 0)
(-0.663707 -0.0165146 0)
(-0.654511 0.0581885 0)
(-0.615144 0.180211 0)
(-0.494149 0.149073 0)
(-0.40088 -0.0271628 0)
(-0.316607 -0.18915 0)
(-0.302732 -0.285771 0)
(-0.291389 -0.2944 0)
(0.00308667 0.0290067 0)
(-0.000290798 -0.0207842 0)
(-0.0255847 0.0327159 0)
(-0.0692619 0.0966102 0)
(-0.139204 0.219214 0)
(-0.229046 0.387931 0)
(-0.28957 0.532383 0)
(-0.300427 0.449673 0)
(-0.346374 0.283623 0)
(-0.428593 0.264354 0)
(-0.495264 0.332336 0)
(-0.555005 0.351381 0)
(-0.597825 0.248671 0)
(-0.607755 0.0539792 0)
(-0.648293 -0.0164758 0)
(-0.690948 -0.000681011 0)
(-0.679374 0.053502 0)
(-0.611585 0.0857507 0)
(-0.52615 0.0359485 0)
(-0.448977 -0.0870699 0)
(-0.374757 -0.223284 0)
(-0.334362 -0.308771 0)
(-0.322639 -0.320867 0)
(-0.0114849 0.0506402 0)
(-0.0482599 0.0598948 0)
(-0.0985602 0.103389 0)
(-0.154225 0.167874 0)
(-0.219694 0.271772 0)
(-0.27409 0.398305 0)
(-0.285009 0.479653 0)
(-0.283802 0.427644 0)
(-0.333445 0.336045 0)
(-0.405767 0.308107 0)
(-0.45702 0.31539 0)
(-0.486635 0.299531 0)
(-0.513521 0.229286 0)
(-0.558341 0.1295 0)
(-0.612405 0.0695635 0)
(-0.673375 0.00458824 0)
(-0.684985 0.0374025 0)
(-0.587006 0.0937328 0)
(-0.448962 0.0429359 0)
(-0.364365 -0.123592 0)
(-0.33982 -0.261527 0)
(-0.323114 -0.331819 0)
(-0.310126 -0.336317 0)
(-0.0314974 0.090125 0)
(-0.0806078 0.113941 0)
(-0.134766 0.160234 0)
(-0.18759 0.226112 0)
(-0.234707 0.316335 0)
(-0.260597 0.413468 0)
(-0.255929 0.470512 0)
(-0.251773 0.444327 0)
(-0.284145 0.387818 0)
(-0.332818 0.355852 0)
(-0.366592 0.338802 0)
(-0.382072 0.30588 0)
(-0.396417 0.240959 0)
(-0.425005 0.164282 0)
(-0.456264 0.105037 0)
(-0.477344 0.0348897 0)
(-0.47345 -0.0587825 0)
(-0.434702 -0.114922 0)
(-0.346593 -0.151608 0)
(-0.263796 -0.177672 0)
(-0.254258 -0.273126 0)
(-0.285231 -0.347696 0)
(-0.271481 -0.380587 0)
(-0.0385856 0.145456 0)
(-0.0886499 0.168888 0)
(-0.136475 0.209812 0)
(-0.178286 0.26896 0)
(-0.207714 0.344926 0)
(-0.216476 0.421016 0)
(-0.205579 0.466046 0)
(-0.196638 0.457847 0)
(-0.209498 0.42223 0)
(-0.233773 0.390576 0)
(-0.25108 0.362124 0)
(-0.257862 0.3212 0)
(-0.263265 0.258984 0)
(-0.275249 0.185927 0)
(-0.287989 0.116247 0)
(-0.295453 0.04132 0)
(-0.295955 -0.0403622 0)
(-0.28524 -0.121796 0)
(-0.263733 -0.191496 0)
(-0.237934 -0.246331 0)
(-0.223763 -0.297706 0)
(-0.224872 -0.350873 0)
(-0.225246 -0.39312 0)
(-0.0334715 0.20227 0)
(-0.0774507 0.218908 0)
(-0.115913 0.250375 0)
(-0.145926 0.297674 0)
(-0.161983 0.357139 0)
(-0.160092 0.415359 0)
(-0.143967 0.452046 0)
(-0.127858 0.454063 0)
(-0.123837 0.432076 0)
(-0.128027 0.402882 0)
(-0.13072 0.368984 0)
(-0.129062 0.324117 0)
(-0.127091 0.2642 0)
(-0.128816 0.193938 0)
(-0.132134 0.120354 0)
(-0.134818 0.0425163 0)
(-0.138276 -0.0373902 0)
(-0.142311 -0.112843 0)
(-0.145016 -0.178187 0)
(-0.143962 -0.231687 0)
(-0.143203 -0.284081 0)
(-0.148007 -0.335869 0)
(-0.156297 -0.382443 0)
(-0.0218559 0.248039 0)
(-0.0556273 0.258747 0)
(-0.0841265 0.280489 0)
(-0.103641 0.315163 0)
(-0.110018 0.358973 0)
(-0.101079 0.402158 0)
(-0.080328 0.431425 0)
(-0.0572138 0.43768 0)
(-0.0400762 0.42391 0)
(-0.0288407 0.398199 0)
(-0.0191368 0.36334 0)
(-0.00917425 0.31776 0)
(-0.000711751 0.260293 0)
(0.0040599 0.19348 0)
(0.00546902 0.121326 0)
(0.00411251 0.0452536 0)
(-0.00123066 -0.0319486 0)
(-0.0110185 -0.104963 0)
(-0.0232893 -0.169336 0)
(-0.0349015 -0.224507 0)
(-0.0464308 -0.275912 0)
(-0.0608231 -0.324357 0)
(-0.078701 -0.368294 0)
(-0.00831112 0.276091 0)
(-0.0303154 0.286413 0)
(-0.0491609 0.300369 0)
(-0.0595297 0.323803 0)
(-0.0586691 0.354097 0)
(-0.0450219 0.384583 0)
(-0.0210324 0.406481 0)
(0.00707157 0.413004 0)
(0.0331812 0.403616 0)
(0.0554614 0.381461 0)
(0.0749533 0.348428 0)
(0.0922161 0.304732 0)
(0.106272 0.250691 0)
(0.115757 0.18825 0)
(0.120288 0.120236 0)
(0.119792 0.0488425 0)
(0.113639 -0.0232065 0)
(0.101723 -0.0920299 0)
(0.0855035 -0.154271 0)
(0.0672583 -0.209171 0)
(0.0475122 -0.25885 0)
(0.0251142 -0.304076 0)
(-0.000610781 -0.34438 0)
(0.00342078 0.2851 0)
(-0.00682131 0.302245 0)
(-0.0166664 0.310798 0)
(-0.019003 0.325095 0)
(-0.0124521 0.34427 0)
(0.0043645 0.364064 0)
(0.0300528 0.378674 0)
(0.0606601 0.383085 0)
(0.0917822 0.375405 0)
(0.120858 0.356144 0)
(0.147075 0.326141 0)
(0.169917 0.285981 0)
(0.188438 0.236522 0)
(0.201571 0.17948 0)
(0.208699 0.117179 0)
(0.20952 0.0519261 0)
(0.203741 -0.0137382 0)
(0.19155 -0.0769348 0)
(0.174041 -0.135205 0)
(0.152781 -0.187593 0)
(0.128562 -0.234643 0)
(0.101189 -0.27672 0)
(0.0703693 -0.313678 0)
(0.0100607 0.278439 0)
(0.0108826 0.307819 0)
(0.0100063 0.312635 0)
(0.0146496 0.320069 0)
(0.0258755 0.330633 0)
(0.0448798 0.341765 0)
(0.0710764 0.349705 0)
(0.102125 0.35088 0)
(0.134959 0.343139 0)
(0.167077 0.325811 0)
(0.196862 0.298951 0)
(0.223101 0.26298 0)
(0.244641 0.218772 0)
(0.260438 0.167818 0)
(0.269784 0.112081 0)
(0.272302 0.0536837 0)
(0.267842 -0.00513583 0)
(0.256703 -0.06206 0)
(0.239729 -0.115247 0)
(0.218044 -0.163687 0)
(0.192456 -0.207221 0)
(0.163214 -0.245839 0)
(0.130341 -0.279389 0)
(0.0120545 0.263709 0)
(0.0216944 0.303162 0)
(0.0292452 0.306593 0)
(0.0399287 0.309513 0)
(0.0550543 0.313946 0)
(0.0756583 0.318541 0)
(0.101672 0.320957 0)
(0.131823 0.318737 0)
(0.164096 0.310014 0)
(0.196426 0.293759 0)
(0.227058 0.269609 0)
(0.254506 0.237728 0)
(0.277466 0.198801 0)
(0.294852 0.154041 0)
(0.305897 0.105061 0)
(0.310173 0.0536811 0)
(0.307613 0.00179707 0)
(0.298468 -0.0487226 0)
(0.283353 -0.0963758 0)
(0.26315 -0.140171 0)
(0.238583 -0.179637 0)
(0.210065 -0.214508 0)
(0.177796 -0.244539 0)
(0.0115628 0.245665 0)
(0.0269242 0.290255 0)
(0.0412604 0.293816 0)
(0.0568654 0.294265 0)
(0.0751359 0.294772 0)
(0.0969365 0.294855 0)
(0.122459 0.293141 0)
(0.151088 0.288021 0)
(0.181573 0.278087 0)
(0.212381 0.262369 0)
(0.241967 0.240378 0)
(0.268889 0.212104 0)
(0.291853 0.178023 0)
(0.309786 0.139059 0)
(0.321906 0.0964902 0)
(0.327762 0.0518029 0)
(0.327236 0.0065617 0)
(0.320524 -0.037759 0)
(0.308091 -0.0798573 0)
(0.290586 -0.118801 0)
(0.268622 -0.153986 0)
(0.242636 -0.184988 0)
(0.212897 -0.21147 0)
(0.0104428 0.226838 0)
(0.0286803 0.272111 0)
(0.0474887 0.276092 0)
(0.0666206 0.275412 0)
(0.0871838 0.273682 0)
(0.109799 0.270949 0)
(0.13472 0.26647 0)
(0.161688 0.259253 0)
(0.189959 0.248332 0)
(0.218468 0.232956 0)
(0.246004 0.212687 0)
(0.271339 0.18745 0)
(0.293323 0.157562 0)
(0.310974 0.123708 0)
(0.323555 0.08687 0)
(0.330609 0.0482191 0)
(0.331967 0.00900903 0)
(0.327741 -0.029546 0)
(0.318256 -0.0663616 0)
(0.303983 -0.100574 0)
(0.285415 -0.131529 0)
(0.262948 -0.158718 0)
(0.236863 -0.181732 0)
(0.00945862 0.208409 0)
(0.0286401 0.251356 0)
(0.049742 0.255382 0)
(0.0709231 0.254217 0)
(0.092846 0.251352 0)
(0.115836 0.247053 0)
(0.140079 0.24095 0)
(0.165468 0.232462 0)
(0.191557 0.220978 0)
(0.217632 0.205989 0)
(0.242801 0.187177 0)
(0.266103 0.164479 0)
(0.286595 0.138122 0)
(0.303444 0.108613 0)
(0.315999 0.0767003 0)
(0.323825 0.0432953 0)
(0.326729 0.00939352 0)
(0.324739 -0.0240133 0)
(0.318065 -0.0560129 0)
(0.30704 -0.0858216 0)
(0.292045 -0.112787 0)
(0.273419 -0.136366 0)
(0.251419 -0.156106 0)
(0.0087291 0.19075 0)
(0.027783 0.229771 0)
(0.0495707 0.233364 0)
(0.0715082 0.231909 0)
(0.0938885 0.228509 0)
(0.116767 0.223455 0)
(0.140207 0.216558 0)
(0.164129 0.207488 0)
(0.188243 0.195882 0)
(0.212061 0.181433 0)
(0.234947 0.16395 0)
(0.25618 0.143415 0)
(0.275032 0.120016 0)
(0.290833 0.094145 0)
(0.303041 0.0663782 0)
(0.311273 0.0374276 0)
(0.315328 0.00808538 0)
(0.315181 -0.020839 0)
(0.310957 -0.0485741 0)
(0.302885 -0.0744189 0)
(0.291255 -0.097751 0)
(0.276343 -0.118026 0)
(0.258379 -0.134775 0)
(0.00818819 0.173944 0)
(0.0265786 0.208407 0)
(0.0480385 0.211239 0)
(0.0697725 0.209498 0)
(0.0918546 0.205836 0)
(0.114152 0.200486 0)
(0.13661 0.193329 0)
(0.159124 0.184165 0)
(0.181468 0.172792 0)
(0.203289 0.159042 0)
(0.22413 0.142832 0)
(0.243459 0.124194 0)
(0.26073 0.1033 0)
(0.275427 0.0804741 0)
(0.287116 0.0561728 0)
(0.29548 0.0309629 0)
(0.300331 0.00548203 0)
(0.301619 -0.0196034 0)
(0.29941 -0.0436382 0)
(0.293864 -0.0659995 0)
(0.285199 -0.0861087 0)
(0.273639 -0.10344 0)
(0.259384 -0.117531 0)
(0.0077579 0.158003 0)
(0.0252254 0.187839 0)
(0.0457829 0.189767 0)
(0.0666881 0.187706 0)
(0.0879182 0.183887 0)
(0.109241 0.178468 0)
(0.130523 0.171348 0)
(0.151623 0.162393 0)
(0.172337 0.151486 0)
(0.192387 0.138552 0)
(0.211429 0.123578 0)
(0.22907 0.106637 0)
(0.244902 0.0878989 0)
(0.258535 0.067642 0)
(0.269635 0.0462443 0)
(0.277947 0.0241681 0)
(0.283312 0.00193701 0)
(0.285674 -0.0198931 0)
(0.285066 -0.0407602 0)
(0.281601 -0.0601122 0)
(0.275447 -0.0774182 0)
(0.266787 -0.0921829 0)
(0.255792 -0.103963 0)
(0.00738229 0.142922 0)
(0.0238033 0.16836 0)
(0.043159 0.169384 0)
(0.0628702 0.166995 0)
(0.08289 0.163056 0)
(0.102954 0.157667 0)
(0.12289 0.150728 0)
(0.142534 0.142135 0)
(0.161692 0.131817 0)
(0.180126 0.11975 0)
(0.197563 0.105965 0)
(0.213705 0.0905572 0)
(0.228243 0.0736962 0)
(0.240885 0.0556297 0)
(0.251376 0.0366798 0)
(0.259519 0.017235 0)
(0.265187 -0.00226501 0)
(0.268328 -0.0213483 0)
(0.268962 -0.0395276 0)
(0.267172 -0.0563109 0)
(0.263093 -0.0712146 0)
(0.256874 -0.0837783 0)
(0.248666 -0.0935853 0)
(0.00702438 0.128703 0)
(0.0223435 0.150117 0)
(0.0403573 0.150319 0)
(0.0586867 0.147628 0)
(0.0772938 0.143591 0)
(0.0959204 0.138269 0)
(0.11439 0.131565 0)
(0.132535 0.123391 0)
(0.150167 0.113701 0)
(0.167079 0.102497 0)
(0.183044 0.089829 0)
(0.197824 0.0758045 0)
(0.211183 0.0605875 0)
(0.222899 0.0444016 0)
(0.232779 0.0275282 0)
(0.240673 0.010301 0)
(0.246484 -0.00690234 0)
(0.250171 -0.0236738 0)
(0.251749 -0.0395851 0)
(0.251285 -0.0541953 0)
(0.24889 -0.0670637 0)
(0.24469 -0.0777649 0)
(0.238819 -0.0859111 0)
(0.00666088 0.115355 0)
(0.020858 0.133171 0)
(0.0374794 0.132675 0)
(0.0543504 0.129735 0)
(0.0714534 0.125625 0)
(0.0885554 0.120384 0)
(0.105494 0.113924 0)
(0.122112 0.106172 0)
(0.138236 0.0970945 0)
(0.153682 0.0867049 0)
(0.168256 0.0750628 0)
(0.181766 0.0622753 0)
(0.194024 0.048497 0)
(0.204858 0.0339303 0)
(0.214123 0.0188241 0)
(0.221705 0.00347074 0)
(0.227532 -0.0118001 0)
(0.231576 -0.0266296 0)
(0.233852 -0.0406359 0)
(0.234418 -0.0534209 0)
(0.233369 -0.0645814 0)
(0.230814 -0.0737251 0)
(0.226872 -0.0804911 0)
(0.00627988 0.102892 0)
(0.0193531 0.11754 0)
(0.0345806 0.116484 0)
(0.0499832 0.113358 0)
(0.0655634 0.109206 0)
(0.0811195 0.104056 0)
(0.0965125 0.0978326 0)
(0.111604 0.0904775 0)
(0.12624 0.0819673 0)
(0.14026 0.0723212 0)
(0.153498 0.0615998 0)
(0.165795 0.0499048 0)
(0.176999 0.0373787 0)
(0.186976 0.0242037 0)
(0.195613 0.0106016 0)
(0.202826 -0.00316865 0)
(0.208563 -0.0168152 0)
(0.212806 -0.0300179 0)
(0.215575 -0.042432 0)
(0.21692 -0.0536948 0)
(0.216926 -0.0634358 0)
(0.21569 -0.0712916 0)
(0.213318 -0.0769252 0)
(0.00587886 0.0913304 0)
(0.0178368 0.103215 0)
(0.0316948 0.10173 0)
(0.0456559 0.0984845 0)
(0.0597386 0.0943268 0)
(0.0737723 0.0892777 0)
(0.0876434 0.0832797 0)
(0.101236 0.0762876 0)
(0.114418 0.0682882 0)
(0.127053 0.0593043 0)
(0.138999 0.0493944 0)
(0.150124 0.0386526 0)
(0.160304 0.0272078 0)
(0.169433 0.0152235 0)
(0.177423 0.00289754 0)
(0.184212 -0.00953919 0)
(0.189764 -0.0218252 0)
(0.194072 -0.0336711 0)
(0.197157 -0.0447627 0)
(0.199067 -0.0547668 0)
(0.199878 -0.0633402 0)
(0.199678 -0.0701448 0)
(0.198562 -0.0748636 0)
(0.00546174 0.0806801 0)
(0.0163204 0.090177 0)
(0.0288456 0.0883791 0)
(0.041411 0.0850747 0)
(0.0540461 0.0809457 0)
(0.0666089 0.0760097 0)
(0.0790096 0.0702249 0)
(0.0911543 0.063561 0)
(0.102934 0.0560144 0)
(0.114233 0.0476113 0)
(0.124932 0.0384077 0)
(0.134922 0.028489 0)
(0.144101 0.0179707 0)
(0.152384 0.00699872 0)
(0.159706 -0.00425022 0)
(0.166019 -0.0155692 0)
(0.171303 -0.0267218 0)
(0.175557 -0.0374438 0)
(0.178805 -0.0474464 0)
(0.181093 -0.0564205 0)
(0.182493 -0.0640465 0)
(0.183082 -0.0700069 0)
(0.182949 -0.0740018 0)
(0.00503528 0.0709425 0)
(0.014817 0.078395 0)
(0.0260517 0.0763837 0)
(0.0372755 0.0730726 0)
(0.0485257 0.0690023 0)
(0.0596854 0.064189 0)
(0.0706856 0.0586058 0)
(0.0814524 0.0522369 0)
(0.0918964 0.0450885 0)
(0.10192 0.0371908 0)
(0.111425 0.028597 0)
(0.12032 0.0193844 0)
(0.128521 0.00965535 0)
(0.135964 -0.000460706 0)
(0.142597 -0.010806 0)
(0.14839 -0.0211939 0)
(0.153331 -0.031409 0)
(0.157426 -0.0412084 0)
(0.160703 -0.0503239 0)
(0.163208 -0.0584671 0)
(0.165005 -0.0653374 0)
(0.166167 -0.0706353 0)
(0.166778 -0.0740741 0)
(0.00460565 0.0621099 0)
(0.0133374 0.0678346 0)
(0.0233268 0.0656926 0)
(0.0332675 0.0624154 0)
(0.0432021 0.0584256 0)
(0.053036 0.0537396 0)
(0.0627177 0.0483445 0)
(0.0721892 0.0422389 0)
(0.081377 0.0354394 0)
(0.0901986 0.0279803 0)
(0.0985706 0.0199124 0)
(0.106416 0.0113045 0)
(0.113669 0.00224614 0)
(0.120279 -0.00714877 0)
(0.126211 -0.0167394 0)
(0.131445 -0.0263567 0)
(0.135979 -0.035803 0)
(0.139826 -0.0448528 0)
(0.143015 -0.0532556 0)
(0.145592 -0.0607399 0)
(0.147619 -0.0670216 0)
(0.149164 -0.0718157 0)
(0.150306 -0.0748467 0)
(0.00417571 0.0541679 0)
(0.0118881 0.0584577 0)
(0.0206805 0.0562518 0)
(0.0294005 0.0530363 0)
(0.038094 0.0491385 0)
(0.0466856 0.0445771 0)
(0.0551379 0.0393532 0)
(0.063405 0.0334799 0)
(0.0714246 0.0269851 0)
(0.0791243 0.0199079 0)
(0.086431 0.0122958 0)
(0.0932798 0.00420803 0)
(0.099619 -0.00427904 0)
(0.105412 -0.0130665 0)
(0.110636 -0.0220287 0)
(0.115283 -0.0310116 0)
(0.119359 -0.0398323 0)
(0.122881 -0.0482802 0)
(0.125881 -0.056119 0)
(0.128406 -0.0630921 0)
(0.130514 -0.0689291 0)
(0.132272 -0.0733573 0)
(0.133755 -0.0761111 0)
(0.00374394 0.0471005 0)
(0.0104716 0.0502231 0)
(0.0181221 0.048003 0)
(0.0256899 0.0448636 0)
(0.0332218 0.0410589 0)
(0.0406583 0.0366121 0)
(0.0479732 0.0315386 0)
(0.0551299 0.0258668 0)
(0.0620729 0.0196379 0)
(0.0687339 0.0128963 0)
(0.0750455 0.0056843 0)
(0.0809523 -0.0019509 0)
(0.0864151 -0.00994769 0)
(0.0914106 -0.0182216 0)
(0.0959286 -0.0266606 0)
(0.0999706 -0.0351234 0)
(0.103549 -0.0434392 0)
(0.106685 -0.051409 0)
(0.109413 -0.058809 0)
(0.111778 -0.065395 0)
(0.113839 -0.0709091 0)
(0.115658 -0.0750896 0)
(0.117312 -0.0776794 0)
(0.00330611 0.0408927 0)
(0.00909252 0.0430828 0)
(0.0156678 0.0408798 0)
(0.0221609 0.0378194 0)
(0.0286148 0.0341011 0)
(0.0349836 0.0297539 0)
(0.041251 0.0248065 0)
(0.0473888 0.0193055 0)
(0.0533442 0.0133093 0)
(0.0590467 0.00686828 0)
(0.0644295 1.54689e-05 0)
(0.0694455 -0.00721887 0)
(0.074069 -0.0147899 0)
(0.0782901 -0.0226275 0)
(0.0821104 -0.0306313 0)
(0.0855396 -0.0386694 0)
(0.0885946 -0.0465802 0)
(0.0913003 -0.0541744 0)
(0.0936905 -0.0612384 0)
(0.0958092 -0.0675392 0)
(0.0977124 -0.0728302 0)
(0.0994629 -0.0768607 0)
(0.101135 -0.079382 0)
(0.00286143 0.0355271 0)
(0.00776834 0.0369764 0)
(0.0133514 0.0348038 0)
(0.0188561 0.0318188 0)
(0.0243172 0.0281786 0)
(0.0297003 0.023915 0)
(0.0350014 0.0190687 0)
(0.0402026 0.0137077 0)
(0.0452506 0.00791696 0)
(0.0500639 0.00175422 0)
(0.0545722 -0.00476611 0)
(0.0587391 -0.0116379 0)
(0.0625552 -0.0188358 0)
(0.0660261 -0.0263024 0)
(0.0691638 -0.0339455 0)
(0.0719841 -0.0416394 0)
(0.0745064 -0.0492283 0)
(0.0767551 -0.0565301 0)
(0.078762 -0.0633402 0)
(0.0805686 -0.0694358 0)
(0.0822279 -0.074582 0)
(0.0838008 -0.0785391 0)
(0.0853615 -0.0810678 0)
(0.00242295 0.0309703 0)
(0.00654268 0.0318217 0)
(0.0112347 0.0296821 0)
(0.0158437 0.0267727 0)
(0.020392 0.0232099 0)
(0.0248582 0.0190195 0)
(0.029256 0.0142501 0)
(0.0335858 0.00899743 0)
(0.0377902 0.00339216 0)
(0.0417637 -0.00249943 0)
(0.0454303 -0.00870059 0)
(0.0487735 -0.0152398 0)
(0.0518071 -0.0221118 0)
(0.0545529 -0.0292678 0)
(0.0570313 -0.0366179 0)
(0.0592603 -0.0440377 0)
(0.0612574 -0.0513742 0)
(0.0630431 -0.0584506 0)
(0.0646447 -0.0650702 0)
(0.0660986 -0.0710205 0)
(0.0674533 -0.0760786 0)
(0.0687669 -0.0800169 0)
(0.0701114 -0.0826073 0)
(0.00202724 0.0271459 0)
(0.00549708 0.0275057 0)
(0.00941464 0.0254091 0)
(0.0132202 0.022595 0)
(0.0169223 0.0191275 0)
(0.0205164 0.0150127 0)
(0.0240443 0.0102984 0)
(0.0275407 0.00511777 0)
(0.0309376 -0.000311951 0)
(0.0340882 -0.00591849 0)
(0.0369143 -0.0118041 0)
(0.0394404 -0.0180423 0)
(0.0417116 -0.0246416 0)
(0.0437636 -0.031551 0)
(0.0456186 -0.038675 0)
(0.0472903 -0.0458853 0)
(0.0487893 -0.0530291 0)
(0.0501284 -0.0599336 0)
(0.0513272 -0.06641 0)
(0.0524153 -0.0722568 0)
(0.0534347 -0.0772633 0)
(0.0544382 -0.0812159 0)
(0.0554938 -0.0838989 0)
(0.0017422 0.0239058 0)
(0.00476128 0.0238879 0)
(0.00802593 0.0218823 0)
(0.0111071 0.019219 0)
(0.0140054 0.0158922 0)
(0.0167384 0.0118723 0)
(0.0193856 0.00719259 0)
(0.0220442 0.00203196 0)
(0.0246219 -0.00321971 0)
(0.0269183 -0.00849363 0)
(0.0288673 -0.0140669 0)
(0.0305718 -0.0200544 0)
(0.0321091 -0.0264531 0)
(0.0335157 -0.0331922 0)
(0.0348031 -0.0401608 0)
(0.0359719 -0.0472232 0)