/*--------------------------------*- C++ -*----------------------------------*\
  =========                 |
  \\      /  F ield         | OpenFOAM: The Open Source CFD Toolbox
   \\    /   O peration     | Website:  https://openfoam.org
    \\  /    A nd           | Version:  9
     \\/     M anipulation  |
\*---------------------------------------------------------------------------*/
FoamFile
{
    format      ascii;
    class       volScalarField;
    location    "9.82";
    object      alpha.water;
}
// * * * * * * * * * * * * * * * * * * * * * * * * * * * * * * * * * * * * * //

dimensions      [0 0 0 0 0 0 0];

internalField   nonuniform List<scalar> 
2268
(
1
0.999999
0.999999
0.999998
1
1
1
0.999999
0.999997
0.999998
1
1
1
0.999999
0.999999
0.999999
1
1
0.999629
0.998293
0.999553
0.999996
0.999944
0.999999
0.999998
0.999997
0.999997
1
1
0.999997
0.999997
0.999997
0.999997
0.999999
0.999999
1
0.999999
0.999999
0.999998
0.999999
1
0.998993
0.998293
0.999632
0.999996
0.999996
0.999997
0.999997
0.999997
0.999999
1
1
0.999999
0.999999
0.999999
0.999999
0.999999
0.999999
1
1
0.999998
0.99999
0.999998
0.999999
0.998602
0.998293
0.999663
0.999996
0.999996
0.999999
0.999998
0.999999
1
1
1
1
1
1
1
1
1
1
1
0.999997
0.999948
0.999972
0.999999
0.999271
0.998293
0.99962
0.999996
0.999834
1
1
1
1
1
1
1
1
1
1
1
1
1
1
0.999999
0.999812
0.999731
0.9999
0.999929
0.998696
0.999748
0.999745
0.999593
1
1
1
1
1
1
1
1
1
1
1
1
1
1
1
0.999687
0.999143
0.999968
0.999968
0.999938
0.999939
0.996621
0.999423
1
1
1
1
1
1
1
1
1
1
1
1
1
1
1
0.999987
0.9962
0.994551
0.999968
0.999968
0.996393
0.994713
0.999225
1
1
1
1
1
1
1
1
1
0.999999
0.999999
0.999999
1
1
1
0.999978
0.993604
0.991068
0.994395
0.998619
0.99362
0.994713
0.999768
0.999816
0.999636
0.999624
0.999624
0.999771
0.999997
0.998194
0.995892
0.995857
0.995751
0.992481
0.992482
0.997723
0.998687
0.998687
0.998687
0.998687
0.998687
0.998687
0.999837
0.999837
0.999995
0.999991
0.999998
0.999997
0.999998
0.999998
0.999998
0.999998
0.997693
0.99248
0.993164
0.998685
0.998687
0.998687
0.998242
0.996588
0.997778
0.999836
0.99809
0.999999
0.999999
0.999998
0.999993
0.999963
0.999954
0.999944
0.999995
0.999375
0.992479
0.992479
0.996006
0.998687
0.998324
0.995867
0.995867
0.995914
0.998938
0.996435
0.999978
0.999999
0.999998
0.999944
0.999816
0.999751
0.99959
0.999578
0.999548
0.995689
0.992479
0.996667
0.998687
0.998686
0.997439
0.996723
0.998621
0.992458
0.997392
0.999996
0.999996
0.999991
0.999891
0.999893
0.999856
0.999386
0.999385
0.999409
0.999689
0.9988
0.999407
0.997746
0.998686
0.998685
0.998623
0.998622
0.992409
0.997663
0.999995
0.999989
0.999987
0.999997
0.999997
0.999812
0.999592
0.999675
0.99969
0.99969
0.99969
0.999689
0.996863
0.992502
0.993218
0.998494
0.998465
0.992908
0.999122
0.999996
0.999997
0.999997
0.999997
0.999989
0.999306
0.998886
0.99969
0.99969
0.99969
0.99969
0.999655
0.994046
0.991066
0.991066
0.995764
0.998465
0.999466
0.999977
0.999997
0.999997
0.999997
0.999997
0.999995
0.998321
0.992974
0.995474
0.99969
0.99969
0.99969
0.996424
0.993236
0.996187
0.991342
0.99514
0.998465
1
1
1
1
1
1
1
1
1
1
0.999999
0.999999
0.999999
1
1
0.999996
0.999946
0.99549
0.991555
0.991644
0.996332
0.999925
0.999992
0.968013
0.967201
0.967532
0.969172
0.971486
0.973437
0.97535
0.977579
0.979242
0.980587
0.981665
0.982462
0.983958
0.986262
0.989483
0.994002
0.998637
0.99845
0.998291
0.99814
0.998112
0.998388
0.998063
0.284313
0.285238
0.287329
0.288867
0.291152
0.294862
0.299778
0.305498
0.312524
0.320588
0.32934
0.338478
0.347095
0.355046
0.362313
0.36924
0.377366
0.388329
0.397255
0.402532
0.404678
0.404766
0.405339
0.000552335
0.000503277
0.000295995
0.000503512
0.000675732
0.000707404
0.000578279
0.000462213
0.000370559
0.000309569
0.000285442
0.000266156
0.000266012
0.000265838
0.000265618
0.000265229
0.000264611
0.000264232
0.000264181
0.000264082
0.000263891
0.000263757
0.000262982
0.000552657
0.000546819
0.000267618
0.00075528
0.00121028
0.00121026
0.00120655
0.00144171
0.00151616
0.00151617
0.00151618
0.00150268
0.00149262
0.0014414
0.00142219
0.00142209
0.00138084
0.000964704
0.00037306
0.000379682
0.000486726
0.000486694
0.000331055
0.000201793
0.000224961
0.0002305
0.000180093
2.68732e-07
3.48365e-06
1.48641e-05
1.11454e-06
6.69996e-08
6.70007e-08
6.69994e-08
6.76446e-08
8.89728e-08
2.90321e-06
7.38159e-06
6.37772e-06
6.85513e-09
0.000144899
0.00024215
0.00022206
0.000238687
0.0002389
0.000122292
3.86214e-09
2.16169e-07
1.13657e-05
1.29208e-07
6.92971e-08
6.90095e-08
6.72381e-08
6.70494e-08
6.70007e-08
6.69998e-08
3.09795e-06
3.40924e-05
3.93388e-05
3.93407e-05
3.93194e-05
8.08352e-06
6.0144e-09
2.60072e-07
7.87265e-06
6.72255e-07
5.37955e-06
3.75857e-05
5.16635e-05
1.97867e-09
1.96118e-09
1.84337e-08
2.7181e-07
7.59777e-07
8.46894e-07
1.4808e-07
5.37976e-07
1.00855e-06
5.52653e-07
1.72548e-06
1.0139e-05
1.54184e-05
9.008e-06
5.79796e-06
6.98862e-06
6.0144e-09
6.0144e-09
6.01442e-09
6.01447e-09
6.01704e-09
6.02013e-09
7.74163e-07
1.97273e-09
1.93924e-09
1.87052e-09
3.3525e-07
1.71101e-06
1.71149e-06
1.33665e-06
1.72939e-06
2.57209e-06
2.56057e-06
1.68586e-07
5.30746e-10
5.29971e-10
5.5592e-10
3.04762e-06
6.43125e-06
6.0144e-09
6.0144e-09
6.0144e-09
6.01442e-09
6.01447e-09
6.1879e-09
8.01283e-07
2.18239e-09
1.98573e-09
1.82958e-09
1.15973e-07
1.49652e-06
1.71149e-06
1.51337e-06
1.64188e-06
2.57209e-06
2.39312e-06
3.98415e-10
3.10882e-09
4.89708e-08
1.41388e-08
2.52143e-07
6.11759e-07
5.11456e-07
6.0144e-09
6.0144e-09
6.0144e-09
6.01694e-09
1.12741e-06
1.80872e-05
2.10887e-09
1.77991e-09
1.77991e-09
4.01159e-09
4.98064e-07
1.21488e-06
3.17074e-07
1.0672e-06
2.57204e-06
1.25998e-06
3.97782e-10
3.98415e-10
6.99625e-07
1.99952e-06
1.20664e-06
2.62392e-08
2.62148e-08
1.25334e-08
1.28458e-08
7.76954e-09
8.10301e-09
1.5526e-06
1.91566e-05
2.67793e-09
1.77991e-09
1.77991e-09
1.78067e-09
5.1363e-09
4.44141e-08
4.48557e-08
5.95272e-07
2.57159e-06
3.98242e-07
3.9714e-10
3.97485e-10
7.58419e-07
5.47951e-06
5.48582e-06
1.93167e-06
8.90438e-09
8.8976e-09
1.60088e-08
1.45211e-08
9.91469e-09
8.10327e-08
7.63748e-07
6.71099e-09
6.5475e-08
7.56244e-08
2.0271e-09
1.05556e-09
1.05712e-09
4.51969e-08
1.18079e-06
1.5116e-06
3.96898e-10
3.96843e-10
3.96807e-10
4.30671e-07
4.73214e-06
5.48582e-06
5.48582e-06
1.38585e-06
5.50743e-09
6.22833e-09
1.12933e-08
8.38398e-09
3.79036e-09
2.23233e-09
1.06711e-08
1.00285e-07
1.00286e-07
1.02032e-08
1.05556e-09
2.18735e-08
8.62854e-07
1.38267e-06
8.45044e-07
3.96843e-10
3.96809e-10
3.96455e-10
1.8233e-10
3.96132e-07
4.2938e-06
5.48239e-06
3.24405e-06
5.50758e-09
5.50743e-09
5.62272e-09
8.02707e-09
9.39098e-09
1.12863e-08
9.38383e-09
1.00286e-07
1.00286e-07
1.14786e-08
1.05556e-09
2.14891e-07
1.38311e-06
1.38293e-06
4.35172e-07
3.96898e-10
4.5822e-10
4.76956e-10
1.72521e-10
1.39982e-08
3.75368e-07
9.65645e-07
8.74598e-07
5.71842e-08
5.50761e-09
5.64473e-09
1.13523e-08
1.13224e-08
1.81222e-08
4.6024e-09
4.70788e-08
7.52639e-08
6.69246e-09
1.0556e-09
1.52008e-07
1.38308e-06
1.27857e-06
9.7349e-11
4.26122e-10
6.52676e-10
4.97878e-10
1.18081e-10
6.41273e-11
7.39951e-11
2.10677e-10
4.68482e-09
1.89697e-08
9.80081e-09
1.20236e-08
1.20238e-08
5.33403e-09
9.7368e-10
7.22525e-10
6.16064e-10
5.18873e-09
1.29805e-09
1.05565e-09
5.3087e-08
2.69447e-07
2.33756e-07
9.72052e-11
4.57518e-10
6.42407e-10
3.20084e-10
7.76925e-11
5.85835e-11
5.85858e-11
5.85905e-11
9.1123e-11
1.13213e-09
4.55567e-09
6.09556e-09
4.37477e-09
1.14255e-09
2.3921e-10
3.88794e-10
3.89118e-10
3.89568e-10
4.28921e-10
2.56893e-09
1.26303e-08
1.19521e-10
1.17794e-11
9.72073e-11
3.61624e-10
3.97752e-10
1.24376e-10
4.26811e-11
5.33845e-11
5.98908e-11
6.02505e-11
6.03195e-11
8.27768e-11
2.08357e-10
2.2889e-10
1.37583e-10
1.08963e-10
9.26166e-11
3.88943e-10
2.22664e-08
1.76029e-09
4.61812e-10
3.43372e-09
4.33473e-09
3.07049e-11
1.1495e-11
6.0169e-11
1.51406e-10
1.08971e-10
2.26786e-11
1.35792e-11
3.43209e-11
4.48187e-11
4.60192e-11
3.93781e-11
2.30705e-11
1.09568e-11
4.87726e-12
2.65666e-12
2.27345e-12
2.13135e-12
1.90758e-07
2.1956e-07
4.72045e-09
4.97543e-10
3.05087e-09
1.12704e-09
2.05575e-11
1.14945e-11
1.71308e-11
2.35357e-11
8.94837e-12
1.01708e-12
1.63235e-12
9.89618e-12
1.58089e-11
1.64341e-11
1.21005e-11
5.42432e-12
2.16994e-12
1.07345e-12
5.20685e-13
2.54646e-13
1.98579e-13
2.76359e-07
2.39461e-07
3.14475e-09
4.75259e-10
1.84946e-09
1.27339e-10
1.4312e-11
9.84056e-12
1.76876e-12
6.83446e-13
6.17972e-14
-1.35795e-13
1.71975e-15
5.59087e-13
1.32239e-12
1.43036e-12
8.09755e-13
2.84188e-13
9.888e-14
4.30574e-14
1.34211e-14
1.06633e-15
4.17375e-16
2.76359e-07
6.22467e-08
5.48213e-10
3.76334e-10
5.92986e-10
1.1861e-11
9.14455e-12
6.36743e-12
3.08544e-15
-2.74326e-13
-5.29287e-13
-7.04779e-13
-5.73141e-13
-2.37969e-13
2.28654e-15
6.87703e-15
0
-5.70521e-14
-7.30567e-14
-6.47615e-14
-4.99233e-14
-3.45341e-14
-2.15912e-14
2.76339e-07
1.76787e-10
1.76787e-10
2.00022e-10
8.8584e-11
4.26692e-12
3.94045e-12
2.00751e-12
-3.35714e-13
-7.23937e-13
-8.8834e-13
-9.30662e-13
-7.78655e-13
-5.27526e-13
-3.3092e-13
-2.29301e-13
-1.79968e-13
-1.47069e-13
-1.12175e-13
-8.01996e-14
-5.39816e-14
-3.41313e-14
-2.02964e-14
2.76482e-07
4.00001e-08
1.85747e-10
6.16483e-11
2.83876e-11
4.13059e-12
7.18391e-13
1.27362e-13
-4.92803e-13
-8.24415e-13
-9.22584e-13
-8.87667e-13
-7.35993e-13
-5.39307e-13
-3.75091e-13
-2.6264e-13
-1.87744e-13
-1.32061e-13
-8.87867e-14
-5.70223e-14
-3.52987e-14
-2.11026e-14
-1.21001e-14
2.76482e-07
2.61343e-07
9.54577e-10
2.91837e-11
2.8643e-11
4.4135e-12
3.01439e-13
4.5925e-14
-3.73969e-13
-6.28196e-13
-7.04485e-13
-6.70262e-13
-5.58521e-13
-4.19299e-13
-2.96433e-13
-2.03818e-13
-1.37514e-13
-8.91624e-14
-5.48828e-14
-3.21575e-14
-1.82294e-14
-1.01921e-14
-5.63387e-15
2.76482e-07
2.76482e-07
1.62866e-09
3.13276e-11
3.45257e-11
5.59131e-12
6.19448e-13
3.80114e-13
-2.54804e-14
-2.12473e-13
-3.26827e-13
-3.66002e-13
-3.3775e-13
-2.68567e-13
-1.92565e-13
-1.29856e-13
-8.41088e-14
-5.13702e-14
-2.93995e-14
-1.58092e-14
-8.12966e-15
-4.14553e-15
-2.15576e-15
2.76482e-07
2.54428e-07
6.27473e-10
5.48045e-11
5.33984e-11
8.85856e-12
2.25829e-12
2.04691e-12
1.47214e-12
7.94196e-13
2.68484e-13
-3.39685e-14
-1.2608e-13
-1.38389e-13
-1.07615e-13
-7.19993e-14
-4.54115e-14
-2.6482e-14
-1.42427e-14
-7.0807e-15
-3.30215e-15
-1.51413e-15
-7.15053e-16
2.69961e-07
5.17134e-08
1.42422e-10
1.23123e-10
9.0927e-11
1.59045e-11
6.79198e-12
6.6617e-12
5.72662e-12
4.03522e-12
2.21841e-12
8.12918e-13
1.05833e-13
-4.55617e-14
-5.17534e-14
-3.56482e-14
-2.22389e-14
-1.25193e-14
-6.37627e-15
-2.94889e-15
-1.25543e-15
-5.22519e-16
-2.26219e-16
4.5586e-08
7.68533e-11
1.31549e-10
1.9483e-10
1.29103e-10
2.81166e-11
1.58374e-11
1.55957e-11
1.37295e-11
1.03015e-11
6.0844e-12
2.53462e-12
5.78483e-13
9.59601e-15
-1.9705e-14
-1.59107e-14
-1.0031e-14
-5.50479e-15
-2.67197e-15
-1.15605e-15
-4.54907e-16
-1.77932e-16
-7.4181e-17
7.68363e-11
7.67403e-11
1.55685e-10
2.05027e-10
1.36994e-10
4.44504e-11
2.96315e-11
2.88824e-11
2.52121e-11
1.92465e-11
1.16725e-11
4.842e-12
1.03169e-12
5.3785e-14
-4.10145e-15
-6.39818e-15
-4.21456e-15
-2.27309e-15
-1.0557e-15
-4.301e-16
-1.58632e-16
-5.83187e-17
-2.33573e-17
7.67403e-11
7.67399e-11
1.6427e-10
1.95525e-10
1.29051e-10
5.45107e-11
4.4492e-11
4.38631e-11
3.82736e-11
2.9283e-11
1.78966e-11
7.07203e-12
1.25313e-12
5.8976e-14
-2.31874e-16
-2.37033e-15
-1.66887e-15
-8.89874e-16
-3.9608e-16
-1.52174e-16
-5.24619e-17
-1.80281e-17
-6.93892e-18
8.266e-11
6.94e-11
1.34021e-10
1.25262e-10
9.15795e-11
5.41545e-11
5.17257e-11
5.25507e-11
4.82889e-11
3.77368e-11
2.28311e-11
8.35377e-12
1.27208e-12
5.12983e-14
8.95099e-17
-8.31469e-16
-6.30815e-16
-3.33183e-16
-1.41945e-16
-5.12702e-17
-1.638e-17
-5.20563e-18
-1.88448e-18
1.43311e-10
5.23665e-11
6.26778e-11
5.15068e-11
5.35335e-11
5.17266e-11
5.19882e-11
5.38224e-11
5.18385e-11
4.17247e-11
2.47888e-11
8.54354e-12
1.16955e-12
3.25669e-14
7.7574e-17
-2.85423e-16
-2.30944e-16
-1.2022e-16
-4.87259e-17
-1.63756e-17
-4.75687e-18
-1.36603e-18
-4.56288e-19
3.13898e-10
5.1517e-11
5.15068e-11
5.15069e-11
5.15053e-11
5.15053e-11
5.47684e-11
5.43954e-11
5.19623e-11
4.21276e-11
2.48231e-11
8.19182e-12
8.91354e-13
1.49072e-14
2.40599e-17
-9.90456e-17
-8.30449e-17
-4.20767e-17
-1.60321e-17
-4.929e-18
-1.27177e-18
-3.21912e-19
-9.69731e-20
3.31561e-10
7.62076e-09
5.1517e-11
2.4305e-07
5.15069e-11
5.15053e-11
5.37082e-11
5.28034e-11
5.12193e-11
4.1694e-11
2.38258e-11
6.86067e-12
5.27253e-13
4.97007e-15
3.34042e-18
-3.53371e-17
-2.96262e-17
-1.43446e-17
-5.05243e-18
-1.39063e-18
-3.09892e-19
-6.68707e-20
-1.76964e-20
3.31571e-10
1.52437e-08
5.05984e-07
8.19707e-07
6.42505e-07
8.03674e-08
4.40557e-11
4.40296e-11
4.85355e-11
3.95684e-11
2.07083e-11
4.6691e-12
2.27639e-13
1.12056e-15
2.97461e-19
-1.30416e-17
-1.05463e-17
-4.77098e-18
-1.52213e-18
-3.66058e-19
-6.82682e-20
-1.20562e-20
-2.70837e-21
3.31603e-10
7.26624e-10
8.19707e-07
8.19707e-07
8.19707e-07
1.92551e-07
4.07828e-11
4.07344e-11
4.47915e-11
3.48821e-11
1.5504e-11
2.44625e-12
6.61161e-14
1.47418e-16
1.11271e-20
-5.01389e-18
-3.75589e-18
-1.54884e-18
-4.37963e-19
-8.977e-20
-1.3566e-20
-1.8687e-21
-3.39664e-22
6.80296e-10
6.80407e-10
4.42491e-07
8.19707e-07
7.32996e-07
1.06125e-07
5.3545e-11
4.06139e-11
4.03383e-11
2.76233e-11
9.48296e-12
9.15512e-13
1.14768e-14
9.40573e-18
-8.03813e-20
-2.02292e-18
-1.33869e-18
-4.91459e-19
-1.20637e-19
-2.05869e-20
-2.4443e-21
-2.48112e-22
-3.41089e-23
1.48005e-09
1.14476e-09
7.92755e-09
3.39998e-07
1.06989e-07
9.26236e-09
6.12792e-11
4.4928e-11
3.49053e-11
1.86459e-11
4.34599e-12
2.142e-13
1.00864e-15
2.73728e-19
-3.57733e-19
-8.44805e-19
-4.77066e-19
-1.53059e-19
-3.20541e-20
-4.46621e-21
-4.06314e-22
-2.87291e-23
-2.70975e-24
7.59671e-10
1.23269e-09
6.96712e-10
3.16104e-10
1.18141e-10
7.57687e-11
7.57581e-11
5.10086e-11
2.75141e-11
9.93475e-12
1.28306e-12
2.5306e-14
3.65067e-17
2.27247e-21
-2.78486e-19
-3.55792e-19
-1.70112e-19
-4.71699e-20
-8.33276e-21
-9.35881e-22
-6.41452e-23
-3.01473e-24
-1.70998e-25
-5.55972e-27
7.61178e-10
6.96893e-10
3.20215e-10
1.59984e-10
1.24502e-10
9.90729e-11
4.97128e-11
1.83958e-11
3.69466e-12
1.94104e-13
1.1415e-15
4.41655e-19
-1.12258e-20
-1.66627e-19
-1.49845e-19
-6.09388e-20
-1.45625e-20
-2.16515e-21
-1.95633e-22
-1.00219e-23
-3.01349e-25
-8.701e-27
-7.14407e-28
1.60156e-10
5.81604e-10
5.08519e-10
3.72726e-10
2.3093e-10
1.05061e-10
3.46576e-11
6.65844e-12
5.30369e-13
8.20004e-15
1.16253e-17
1.49515e-21
-3.56776e-20
-9.07528e-20
-6.31204e-20
-2.20667e-20
-4.57453e-21
-5.79297e-22
-4.30295e-23
-1.70338e-24
-3.14972e-26
-3.37024e-28
0.999992
0.999992
0.999992
0.999992
0.998463
0.998606
0.998631
0.998484
0.406908
0.406941
0.40612
0.404358
0.000257696
0.000243621
0.000222005
0.000201006
0.000263692
0.000590913
0.000603684
0.000365393
9.61393e-05
0.000258205
0.000372473
0.0003057
9.9922e-06
2.34057e-06
3.96861e-08
9.12556e-06
1.07085e-06
2.72889e-07
3.8202e-08
1.52119e-08
1.89081e-05
2.06828e-05
2.72125e-06
8.43663e-07
2.12282e-05
2.12265e-05
2.12256e-05
2.12275e-05
2.12301e-05
2.12276e-05
2.12256e-05
2.12247e-05
1.05511e-05
2.12187e-05
2.1221e-05
2.10633e-05
2.22854e-09
2.22637e-09
2.22484e-09
2.22311e-09
1.01588e-08
5.27095e-09
4.274e-09
3.72905e-09
2.00039e-08
2.37765e-08
9.10944e-08
1.59472e-07
6.28323e-10
7.9363e-09
1.7941e-07
2.37778e-07
9.04481e-12
2.62934e-13
9.77451e-10
5.90353e-08
4.12056e-12
2.62594e-13
1.34565e-14
6.26969e-15
3.40906e-13
2.08029e-13
8.51492e-14
1.24837e-14
1.70633e-13
1.15783e-13
6.33117e-14
3.40539e-14
1.17426e-15
-4.69962e-17
-8.7908e-16
-1.41856e-15
-1.24931e-14
-9.97287e-15
-7.94042e-15
-6.29751e-15
-1.14863e-14
-9.0057e-15
-7.10023e-15
-5.61708e-15
-6.57053e-15
-4.93567e-15
-3.76878e-15
-2.9183e-15
-3.02593e-15
-2.17932e-15
-1.57702e-15
-1.15206e-15
-1.19305e-15
-8.46247e-16
-5.91222e-16
-4.00581e-16
-4.23886e-16
-2.93082e-16
-2.02771e-16
-1.33738e-16
-1.42375e-16
-9.50223e-17
-6.3534e-17
-4.15844e-17
-4.65551e-17
-3.00375e-17
-1.9307e-17
-1.22739e-17
-1.42857e-17
-8.92188e-18
-5.54121e-18
-3.40048e-18
-4.10281e-18
-2.46269e-18
-1.46862e-18
-8.64109e-19
-1.06313e-18
-6.07671e-19
-3.44966e-19
-1.93133e-19
-2.4295e-19
-1.30947e-19
-7.00456e-20
-3.69225e-20
-4.80175e-20
-2.40869e-20
-1.19836e-20
-5.86843e-21
-8.00494e-21
-3.67704e-21
-1.67419e-21
-7.49147e-22
-1.09296e-21
-4.5007e-22
-1.83646e-22
-7.35031e-23
-1.18123e-22
-4.23149e-23
-1.50315e-23
-5.22693e-24
-9.69022e-24
-2.88474e-24
-8.54501e-25
-2.47432e-25
-5.73467e-25
-1.31072e-25
-3.01287e-26
-6.7848e-27
-2.27759e-26
-3.42189e-27
-5.31715e-28
-8.2125e-29
-5.37126e-28
-3.75504e-29
-2.84745e-30
-2.25347e-31
-4.69373e-30
-6.10924e-32
-7.92896e-34
-1.09645e-35
0.999992
0.999992
0.999997
0.999997
0.999668
0.997768
0.997536
0.997748
0.990697
0.985781
0.986097
0.988632
0.988293
0.988655
0.996415
0.996455
0.99608
0.996606
0.997667
0.998074
0.996519
0.992117
0.987789
0.984607
0.982502
0.980656
0.981272
0.985973
0.986089
0.986095
0.984043
0.982111
0.980182
0.977209
0.974703
0.972826
0.966611
0.964353
0.400322
0.39499
0.390914
0.386654
0.381703
0.376052
0.369189
0.361017
0.353135
0.346377
0.337846
0.330169
0.323868
0.317103
0.310687
0.306791
0.305035
0.305103
0.305638
0.000189204
0.00018626
0.000186169
0.000186117
0.000186066
0.000186025
0.000186009
0.000186025
0.000186938
0.000192708
0.00020185
0.00025435
0.000186171
0.000299228
0.000435438
0.000501722
0.00050219
0.000500277
0.000442824
0.000310127
0.000732568
0.000732579
0.00070224
0.000717255
0.000739415
0.000749427
0.000749421
0.000749427
0.000708841
0.000602015
0.000415207
0.000185355
0.000413103
0.000501319
0.000501146
0.000500076
0.0004999
0.000432309
0.000149177
0.000155089
0.000166785
0.000145435
0.000112866
8.7171e-05
6.74099e-05
5.2931e-05
1.27669e-05
1.08218e-05
1.08195e-05
1.31759e-05
7.24354e-05
6.50214e-05
6.08834e-05
8.87525e-05
0.00010151
0.000109244
0.000144083
2.15979e-05
1.51795e-08
1.51793e-08
1.51829e-08
9.18638e-07
6.76757e-06
7.68797e-06
6.65828e-06
6.65684e-06
1.63928e-05
2.69891e-05
3.79887e-05
3.86566e-05
2.23864e-05
2.08154e-06
5.16456e-07
5.15018e-07
5.15014e-07
5.14993e-07
1.51835e-08
1.51793e-08
1.51829e-08
2.8591e-06
2.64435e-05
3.30386e-05
3.30453e-05
1.80324e-05
3.16371e-05
4.08935e-05
4.08964e-05
4.08964e-05
4.08964e-05
3.12602e-05
2.2661e-06
5.14906e-07
5.14907e-07
5.14911e-07
5.14914e-07
1.72687e-07
1.51835e-08
1.52008e-08
1.56314e-05
3.29978e-05
3.30089e-05
2.14699e-05
2.57285e-05
2.04614e-05
9.02675e-06
1.6711e-05
2.51525e-05
2.27716e-05
4.92703e-06
5.45862e-07
5.14902e-07
5.14905e-07
5.14907e-07
5.14911e-07
1.2105e-05
1.52014e-08
6.50288e-08
5.69311e-06
1.07374e-05
3.8052e-06
9.90148e-08
1.78018e-07
4.04334e-10
4.04404e-10
4.04326e-10
6.6398e-10
1.32496e-06
4.13731e-06
5.14902e-07
5.149e-07
5.14902e-07
5.15087e-07
5.17403e-07
2.12232e-05
1.29495e-05
2.22886e-09
2.22895e-09
2.22886e-09
2.22991e-09
2.86507e-07
4.27523e-07
1.45976e-07
3.59623e-10
3.78527e-07
5.25996e-06
7.22055e-06
2.25411e-06
5.149e-07
5.14898e-07
5.14914e-07
5.18356e-07
5.18356e-07
1.27867e-05
4.60382e-06
2.23008e-09
2.22886e-09
4.22511e-09
2.7211e-07
4.48651e-07
4.27723e-07
6.949e-08
3.12152e-10
1.60652e-06
7.35538e-06
7.35538e-06
5.48667e-06
5.14898e-07
5.14896e-07
5.14894e-07
5.14897e-07
5.14902e-07
2.22183e-09
2.21981e-09
2.958e-09
3.34877e-09
9.86629e-09
9.2485e-09
6.54712e-09
2.64297e-10
2.64297e-10
2.64341e-10
1.98771e-08
3.63588e-06
7.35538e-06
7.35519e-06
1.59508e-06
5.14894e-07
5.14893e-07
5.14896e-07
5.14902e-07
4.26655e-09
2.21465e-09
2.21074e-09
2.19993e-09
1.56737e-09
2.64301e-10
2.64298e-10
2.64295e-10
2.64298e-10
3.14273e-10
3.06698e-10
2.90312e-08
3.54145e-06
5.49395e-06
2.44481e-06
2.68888e-06
4.9757e-06
4.00057e-06
1.82256e-06
1.75566e-07
9.54934e-08
1.32741e-08
6.00859e-10
6.00768e-10
4.94072e-10
2.74864e-10
2.74474e-10
4.56484e-10
4.94855e-10
3.06669e-10
6.95788e-11
6.9621e-11
7.59895e-11
2.78686e-06
1.03699e-05
1.03699e-05
1.03699e-05
1.03662e-05
2.37778e-07
2.37778e-07
1.96723e-07
5.11063e-09
7.70583e-10
1.27475e-09
7.04316e-09
1.11717e-08
2.58332e-09
2.30777e-10
1.51901e-10
6.95633e-11
6.95788e-11
7.11891e-11
1.14042e-06
7.43871e-06
9.18451e-06
4.41017e-06
2.21335e-06
1.8587e-07
2.37763e-07
2.37734e-07
2.01649e-07
7.72198e-10
2.17285e-09
4.15533e-08
6.39029e-08
2.82806e-08
2.15454e-09
2.89244e-11
4.39605e-11
1.01362e-10
4.38087e-10
1.00883e-12
1.00848e-12
1.00883e-12
1.01699e-12
1.20016e-12
2.74493e-18
8.96754e-08
2.16838e-07
1.45746e-07
3.93126e-09
3.89694e-09
5.52821e-08
6.39029e-08
6.39029e-08
1.94698e-08
2.89206e-11
3.67277e-11
1.59366e-10
4.38315e-10
3.68515e-12
1.00619e-12
9.76139e-12
1.41432e-10
1.7401e-12
7.43878e-19
-9.82615e-39
5.60988e-46
7.54377e-20
7.66928e-10
2.60748e-09
3.04671e-08
6.39029e-08
5.8874e-08
1.68949e-08
2.8911e-11
2.8908e-11
4.56557e-11
4.46678e-11
4.24632e-11
9.69138e-13
6.06244e-11
2.01383e-08
1.67582e-07
1.13931e-14
-2.64053e-16
-1.47035e-16
-5.19386e-32
7.54354e-20
1.3806e-18
9.59016e-16
2.80317e-09
4.95955e-09
9.42817e-15
7.67459e-11
2.60621e-11
3.46496e-11
3.9303e-12
6.59101e-13
9.62404e-13
9.67524e-13
6.19281e-08
1.86864e-06
-1.5188e-15
-1.08617e-15
-4.54092e-16
3.31662e-16
1.86863e-15
3.47062e-15
3.47059e-15
3.47495e-15
3.49337e-15
9.32263e-15
4.43586e-13
7.54043e-12
1.66954e-11
1.19239e-12
5.43198e-13
6.33219e-13
4.33254e-13
4.80382e-08
2.09021e-06
-4.99514e-15
-2.60069e-15
-1.12655e-15
1.36383e-17
3.6669e-15
1.40283e-14
2.91168e-14
6.72717e-14
1.20381e-13
1.591e-13
2.01373e-13
3.53245e-13
4.5268e-13
1.67646e-13
7.38827e-14
4.30427e-13
4.30443e-13
8.71978e-10
2.09022e-06
-4.45887e-15
-2.49632e-15
-1.37342e-15
-7.15351e-16
-3.00745e-16
0
1.26943e-15
1.75417e-14
5.45316e-14
6.67819e-14
6.71225e-14
1.14903e-13
1.27055e-13
4.04737e-14
2.19129e-14
3.68711e-13
1.77399e-12
7.03765e-13
2.09015e-06
-2.28375e-15
-1.29176e-15
-7.28076e-16
-4.0827e-16
-2.25659e-16
-1.1995e-16
-5.38592e-17
0
1.87423e-16
1.13984e-15
1.87268e-15
3.03933e-15
8.31901e-15
4.57658e-15
1.03807e-14
3.2477e-13
1.74356e-12
7.03733e-13
1.51528e-06
-8.58158e-16
-4.72189e-16
-2.60357e-16
-1.43956e-16
-7.98859e-17
-4.47403e-17
-2.46621e-17
-1.21753e-17
-2.61173e-18
2.47593e-18
1.99577e-17
7.11295e-17
2.70515e-16
1.17469e-15
8.21559e-15
2.99585e-13
1.76056e-12
7.1915e-13
7.1915e-13
-2.63956e-16
-1.39114e-16
-7.33979e-17
-3.91424e-17
-2.12681e-17
-1.1599e-17
-6.16274e-18
-2.82468e-18
-5.92124e-19
8.64005e-19
1.04134e-17
4.72671e-17
2.19067e-16
1.07835e-15
8.04945e-15
2.93319e-13
1.97302e-12
9.46155e-13
8.32665e-13
-7.17742e-17
-3.54653e-17
-1.79424e-17
-9.25728e-18
-4.79568e-18
-2.31513e-18
-8.35335e-19
1.33808e-19
1.91355e-18
1.15149e-17
2.34216e-17
5.14501e-17
2.16529e-16
1.10231e-15
1.19834e-14
3.10083e-13
2.31914e-12
9.46165e-13
6.79476e-08
-1.906e-17
-8.57451e-18
-3.96084e-18
-1.87615e-18
-8.14847e-19
6.90102e-21
8.81608e-19
7.71295e-18
3.54036e-17
1.0204e-16
2.0146e-16
3.95678e-16
1.50842e-15
1.16964e-14
9.82389e-14
6.71437e-13
2.92926e-12
9.46183e-13
1.64165e-06
-5.03267e-18
-2.02911e-18
-8.34904e-19
-3.40055e-19
7.04517e-21
1.46822e-18
1.37443e-17
6.66368e-17
2.41934e-16
7.48877e-16
2.60447e-15
1.5317e-14
9.14439e-14
4.6506e-13
1.21567e-12
2.98273e-12
4.76774e-12
9.46895e-13
2.15674e-06
-1.29584e-18
-4.77746e-19
-1.75299e-19
-4.82614e-20
4.29595e-19
8.37867e-18
7.51419e-17
3.80092e-16
1.74515e-15
9.16394e-15
6.99143e-14
4.82812e-13
2.10493e-12
6.3682e-12
9.24176e-12
1.11544e-11
1.04251e-11
9.47248e-13
2.15678e-06
-3.07736e-19
-1.04894e-19
-3.44984e-20
9.73775e-21
1.11363e-18
2.22838e-17
2.90264e-16
2.14238e-15
1.62669e-14
1.25806e-13
9.37615e-13
4.83473e-12
1.51621e-11
3.07191e-11
3.54505e-11
2.90079e-11
2.37571e-11
9.47993e-13
2.12991e-06
-6.38507e-20
-2.01026e-20
-5.62467e-21
3.47756e-20
1.64701e-18
4.24689e-17
7.71973e-16
9.67231e-15
1.00355e-13
7.8263e-13
4.54841e-12
1.79788e-11
4.46789e-11
6.80467e-11
7.4466e-11
5.57267e-11
4.7055e-11
9.50768e-13
2.02983e-06
-1.118e-20
-3.21172e-21
-5.23154e-22
3.67417e-20
1.97649e-18
5.91046e-17
1.38544e-15
2.73233e-14
3.07922e-13
2.17637e-12
1.01974e-11
3.35681e-11
7.25332e-11
9.20272e-11
9.95126e-11
9.67384e-11
9.74128e-11
9.62587e-13
2.03e-06
-1.59997e-21
-4.1135e-22
6.48734e-23
3.21154e-20
2.0503e-18
6.53279e-17
1.7956e-15
4.78281e-14
5.32289e-13
3.4199e-12
1.39613e-11
4.09495e-11
8.30891e-11
9.74434e-11
1.01829e-10
2.77459e-10
3.99634e-10
9.76966e-13
2.02878e-06
-1.80237e-22
-4.02195e-23
9.85698e-23
1.74098e-20
1.73894e-18
6.33757e-17
1.9029e-15
5.87727e-14
6.33358e-13
3.84854e-12
1.48461e-11
4.09538e-11
8.17533e-11
8.18864e-11
5.46657e-11
1.29894e-09
2.07677e-09
1.05048e-12
5.11476e-07
-1.52255e-23
-2.73059e-24
3.35756e-23
7.06094e-21
8.6631e-19
3.78907e-17
1.58204e-15
5.98333e-14
6.29815e-13
3.5904e-12
1.21373e-11
2.55471e-11
4.96872e-11
3.85917e-11
1.3258e-12
3.12768e-09
4.57615e-09
3.79806e-10
3.79863e-10
-9.0289e-25
-8.61739e-26
1.11349e-23
2.45939e-21
3.03732e-19
1.30555e-17
6.71783e-16
3.92898e-14
3.73288e-13
1.7996e-12
4.99582e-12
8.19671e-12
1.59986e-11
9.67776e-12
1.3213e-12
3.92045e-09
4.90275e-09
3.79863e-10
2.70609e-07
-3.40935e-26
8.14209e-27
2.39415e-24
6.61051e-22
8.57916e-20
3.3542e-18
1.6747e-16
1.23873e-14
1.08014e-13
4.66676e-13
1.13956e-12
1.71042e-12
3.05272e-12
1.31675e-12
1.31748e-12
2.19257e-09
4.46227e-09
5.31454e-10
6.33531e-07
-6.96515e-28
1.19943e-27
3.18096e-25
1.16479e-22
1.71581e-20
6.52371e-19
2.87514e-17
2.32093e-15
1.88836e-14
7.50413e-14
1.64086e-13
2.39438e-13
3.85134e-13
9.14874e-14
4.22733e-12
2.79299e-10
1.27846e-09
2.57959e-14
6.33537e-07
-5.55875e-30
8.90591e-29
2.25972e-26
1.20098e-23
1.97938e-21
8.04076e-20
3.23596e-18
2.64297e-16
2.00262e-15
7.30064e-15
1.44904e-14
2.04106e-14
2.95946e-14
3.59626e-15
1.03831e-11
1.1066e-11
6.26782e-11
7.79532e-23
6.16125e-07
-7.84695e-33
5.08415e-33
3.89355e-28
5.91225e-25
9.86468e-23
4.37194e-21
1.82598e-19
1.41985e-17
9.99012e-17
3.33495e-16
6.10219e-16
8.34588e-16
1.05634e-15
2.2507e-16
3.68784e-13
8.9184e-16
7.79532e-23
1.50908e-23
5.65815e-07
-7.12649e-38
-5.12639e-40
3.30093e-36
4.28205e-31
7.26299e-28
1.65717e-25
2.83628e-23
2.07595e-21
9.7964e-21
2.73776e-20
4.4452e-20
5.30601e-20
2.10567e-20
7.91605e-22
1.84037e-17
7.31146e-18
1.37516e-19
-2.34901e-48
5.32705e-07
)
;

boundaryField
{
    leftWall
    {
        type            zeroGradient;
    }
    rightWall
    {
        type            zeroGradient;
    }
    lowerWall
    {
        type            zeroGradient;
    }
    atmosphere
    {
        type            inletOutlet;
        inletValue      uniform 0;
        value           nonuniform List<scalar> 
46
(
0
1.60156e-10
5.81604e-10
5.08519e-10
3.72726e-10
2.3093e-10
1.05061e-10
3.46576e-11
6.65844e-12
5.30369e-13
8.20004e-15
1.16253e-17
1.49515e-21
-3.56776e-20
-9.07528e-20
-6.31204e-20
-2.20667e-20
-4.57453e-21
-5.79297e-22
-4.30295e-23
-1.70338e-24
-3.14972e-26
0
0
0
0
0
0
0
0
0
0
0
0
0
0
0
0
0
0
0
0
0
0
0
5.32705e-07
)
;
    }
    defaultFaces
    {
        type            empty;
    }
}


// ************************************************************************* //
