/*--------------------------------*- C++ -*----------------------------------*\
  =========                 |
  \\      /  F ield         | OpenFOAM: The Open Source CFD Toolbox
   \\    /   O peration     | Website:  https://openfoam.org
    \\  /    A nd           | Version:  9
     \\/     M anipulation  |
\*---------------------------------------------------------------------------*/
FoamFile
{
    format      ascii;
    class       volScalarField;
    location    "9.82";
    object      nut;
}
// * * * * * * * * * * * * * * * * * * * * * * * * * * * * * * * * * * * * * //

dimensions      [0 2 -1 0 0 0 0];

internalField   nonuniform List<scalar> 
2268
(
8.08298e-06
9.62502e-06
1.17286e-05
1.3152e-05
1.42175e-05
1.50511e-05
1.57174e-05
1.62519e-05
1.66807e-05
1.70312e-05
1.7328e-05
1.75884e-05
1.78177e-05
1.7994e-05
1.80597e-05
1.79188e-05
1.7528e-05
1.69773e-05
1.61307e-05
1.50277e-05
1.37864e-05
1.14753e-05
7.52273e-06
1.8753e-05
7.93471e-05
0.000108289
0.000126618
0.000139792
0.000149808
0.000157614
0.000163776
0.000168655
0.00017257
0.000175776
0.000178418
0.000180509
0.000181834
0.000181932
0.000180068
0.000174839
0.000166634
0.00015437
0.000141527
0.000129952
9.78992e-05
2.43826e-05
2.2512e-05
0.000135469
0.000202674
0.000246475
0.000278048
0.000302004
0.000320638
0.000335292
0.000346843
0.000356032
0.000363458
0.000369503
0.00037425
0.000377271
0.000377515
0.000373226
0.000362136
0.000345192
0.000321327
0.000291848
0.000252251
0.000169721
2.92162e-05
2.52966e-05
0.000175112
0.000277663
0.000347134
0.000397958
0.00043679
0.000467132
0.000491075
0.000510021
0.000525103
0.000537225
0.000546985
0.000554533
0.000559277
0.000559703
0.000553306
0.000537336
0.000512778
0.000478322
0.000430563
0.00035762
0.000225192
3.3343e-05
2.75103e-05
0.000205173
0.0003384
0.000431743
0.000501116
0.000554592
0.00059665
0.000630023
0.000656586
0.000677795
0.000694797
0.000708355
0.000718674
0.000725064
0.000725723
0.000717721
0.00069792
0.000666871
0.000622415
0.000556452
0.00045078
0.000271962
3.72913e-05
2.93797e-05
0.000229369
0.000389043
0.000504059
0.000590784
0.000658247
0.000711679
0.000754346
0.000788502
0.000815871
0.000837781
0.000855112
0.000868121
0.000876078
0.000877059
0.00086797
0.000845362
0.000808927
0.000755402
0.000672862
0.000537701
0.000315487
4.15866e-05
3.10389e-05
0.000249712
0.000432404
0.000566954
0.000669698
0.000750322
0.000814636
0.000866328
0.000907926
0.000941381
0.000968147
0.000989189
0.00100482
0.00101431
0.00101576
0.00100608
0.000981682
0.000941097
0.00088009
0.000784122
0.000625185
0.000361926
4.73123e-05
3.25762e-05
0.000267465
0.000470492
0.000622611
0.000740019
0.000832912
0.000907543
0.000967906
0.00101674
0.00105614
0.00108768
0.00111238
0.00113059
0.00114168
0.00114382
0.00113405
0.00110878
0.00106549
0.000999239
0.000894524
0.000721529
0.000426978
5.71051e-05
9.18164e-06
1.36434e-05
1.62936e-05
1.72705e-05
1.76527e-05
1.78156e-05
1.77685e-05
1.75608e-05
1.7265e-05
1.69709e-05
1.6281e-05
1.51097e-05
1.44221e-05
1.44286e-05
1.38603e-05
1.25725e-05
1.07485e-05
8.73479e-06
9.76278e-06
3.06309e-05
0.000109525
0.000149119
0.000167298
0.000174975
0.000177555
0.000177459
0.000175237
0.000171429
0.000166687
0.000157339
0.000137679
0.000133398
0.000141834
0.000135499
0.000121084
9.71309e-05
6.64119e-05
2.25769e-05
3.46173e-05
0.00019398
0.000287078
0.000333626
0.000355284
0.000363615
0.000364492
0.000359972
0.00035168
0.000341314
0.000324085
0.000295004
0.000283551
0.000286787
0.000271014
0.000237928
0.000185894
0.000113775
2.65593e-05
3.7243e-05
0.000255528
0.000400106
0.000478631
0.000517319
0.000533462
0.000536653
0.00053081
0.000518562
0.000502991
0.000480462
0.000447783
0.000428
0.000418505
0.000389772
0.000338676
0.000261369
0.000154208
2.98029e-05
3.9494e-05
0.000300344
0.000494188
0.000605131
0.000661558
0.000686309
0.000692629
0.000686361
0.000671037
0.00065104
0.000624524
0.000589372
0.000560955
0.000536908
0.000493946
0.000426216
0.000327734
0.000192226
3.26133e-05
4.27886e-05
0.000335948
0.000578243
0.000719129
0.000791897
0.000824873
0.000834508
0.000828385
0.000810808
0.000787155
0.000757083
0.000718954
0.000681954
0.000643735
0.000586644
0.000503412
0.000386738
0.000227521
3.52124e-05
4.84388e-05
0.000375691
0.000661798
0.000826502
0.000912251
0.000952046
0.000964603
0.000958819
0.000939563
0.000912816
0.000879241
0.000837333
0.000791945
0.000740647
0.00067012
0.000572343
0.00043859
0.000256977
3.78166e-05
6.03664e-05
0.000437864
0.000754627
0.000932158
0.00102589
0.00107036
0.00108499
0.00107937
0.00105875
0.00102925
0.000992066
0.000945718
0.000892252
0.000829107
0.000746022
0.000634495
0.000484392
0.000281812
4.00684e-05
3.46941e-05
0.000292919
0.000524286
0.00070107
0.000839438
0.000950293
0.00104038
0.00111395
0.00117394
0.00122258
0.00126155
0.00129194
0.00131415
0.00132768
0.00133107
0.00132189
0.00129694
0.0012521
0.00118155
0.00107192
0.000901598
0.000649664
0.000332008
3.75753e-05
0.000324933
0.000588677
0.000791824
0.000952694
0.00108357
0.00119157
0.00128082
0.00135428
0.00141432
0.00146272
0.00150068
0.0015287
0.00154652
0.00155326
0.00154732
0.00152613
0.00148593
0.00142127
0.00132369
0.001182
0.000989936
0.00075787
4.19697e-05
0.000361577
0.000655383
0.000876912
0.00105371
0.00120008
0.00132295
0.00142555
0.00151087
0.00158133
0.00163885
0.00168472
0.00171936
0.00174262
0.00175435
0.00175382
0.00173928
0.00170757
0.00165462
0.00157694
0.00147052
0.00133732
0.00119454
5.0238e-05
0.000401865
0.000729518
0.000959741
0.00114707
0.00130507
0.00144009
0.00155359
0.0016492
0.0017291
0.00179531
0.00184928
0.0018912
0.00192073
0.00193852
0.00194489
0.00193872
0.00191654
0.00187546
0.00181812
0.00174392
0.00165622
0.00157236
5.02747e-05
0.000422105
0.000782733
0.00103226
0.00123571
0.00140436
0.0015478
0.00167095
0.00177578
0.00186346
0.00193715
0.00199847
0.00204704
0.00208226
0.00210561
0.00211764
0.00211767
0.00210317
0.00207469
0.00203664
0.00198812
0.00193244
0.00188393
5.86918e-05
0.000470151
0.000812543
0.00107251
0.00129636
0.00148379
0.00163898
0.00177373
0.00188885
0.00198543
0.0020666
0.00213459
0.00218871
0.00222901
0.00225707
0.00227398
0.00228074
0.00227465
0.00225654
0.00223435
0.002206
0.00217061
0.00213919
0.000241302
0.000555452
0.00086411
0.00112992
0.00135905
0.0015535
0.00172072
0.001866
0.00199022
0.00209553
0.00218474
0.00225957
0.00231959
0.00236559
0.00239898
0.00242101
0.00243319
0.0024349
0.00242679
0.00241491
0.00240064
0.00238217
0.00236628
0.000255162
0.000586987
0.00090411
0.00118025
0.00141549
0.00161895
0.00179573
0.00194948
0.00208194
0.00219551
0.00229251
0.00237427
0.00244062
0.00249257
0.00253165
0.00255922
0.00257703
0.00258639
0.00258813
0.00258587
0.00258183
0.00257485
0.00256893
0.000262598
0.000602512
0.000932319
0.00121924
0.00146473
0.00167753
0.00186306
0.00202488
0.00216523
0.0022865
0.00239083
0.00247932
0.00255206
0.00261012
0.00265517
0.00268882
0.00271286
0.00272912
0.00273889
0.00274483
0.00274873
0.00275023
0.00275103
0.0002673
0.000611973
0.000952125
0.0012501
0.00150669
0.00172925
0.00192348
0.00209323
0.00224111
0.00236956
0.00248061
0.00257542
0.00265446
0.0027188
0.00277013
0.00281013
0.00284058
0.00286327
0.00287994
0.00289252
0.00290234
0.00290962
0.00291453
0.000270884
0.000619151
0.000967882
0.00127622
0.00154342
0.00177562
0.00197839
0.00215585
0.00231089
0.002446
0.00256324
0.002664
0.00274909
0.00281963
0.00287718
0.00292339
0.00295995
0.00298857
0.003011
0.00302878
0.00304297
0.00305384
0.00306091
0.000274241
0.000626098
0.00098233
0.00130002
0.00157689
0.00181814
0.00202906
0.00221386
0.00237567
0.00251697
0.00263994
0.00274621
0.00283694
0.00291329
0.00297666
0.0030286
0.00307068
0.00310451
0.0031317
0.00315354
0.00317086
0.00318385
0.00319183
0.000277636
0.000633546
0.000996685
0.00132276
0.00160833
0.00185788
0.0020764
0.00226809
0.00243617
0.00258321
0.00271148
0.00282276
0.00291855
0.0030001
0.00306866
0.00312566
0.00317254
0.00321081
0.00324191
0.00326691
0.00328648
0.00330072
0.00330903
0.000281074
0.000641452
0.00101118
0.00134488
0.00163836
0.00189552
0.00212107
0.00231911
0.00249291
0.00264515
0.00277821
0.00289405
0.00299425
0.00308023
0.00315324
0.00321457
0.00326555
0.00330755
0.00334185
0.00336937
0.00339065
0.00340576
0.0034143
0.000284517
0.000649517
0.00102552
0.0013664
0.00166722
0.00193144
0.0021635
0.00236735
0.00254631
0.0027032
0.0028405
0.00296029
0.00306429
0.00315398
0.00323067
0.00329561
0.00335003
0.00339517
0.00343215
0.0034618
0.00348456
0.00350055
0.00350952
0.000287884
0.00065743
0.00103939
0.00138709
0.00169498
0.00196587
0.00220398
0.00241314
0.00259672
0.00275771
0.00289868
0.00302182
0.00312897
0.00322171
0.00330141
0.00336932
0.00342661
0.00347443
0.00351377
0.00354537
0.00356965
0.00358675
0.00359657
0.000290986
0.000664574
0.00105224
0.00140676
0.00172161
0.00199899
0.00224274
0.00245672
0.00264443
0.00280898
0.00295306
0.00307899
0.00318872
0.00328394
0.00336609
0.00343645
0.00349619
0.00354638
0.00358792
0.00362147
0.00364747
0.00366608
0.00367727
0.000293423
0.000669568
0.0010631
0.00142507
0.00174715
0.00203089
0.00227995
0.00249832
0.00268967
0.00285728
0.00300397
0.00313219
0.00324403
0.00334127
0.00342545
0.00349791
0.00355982
0.00361222
0.00365593
0.0036916
0.00371965
0.00374025
0.00375341
0.00029468
0.000669744
0.0010709
0.00144184
0.00177169
0.00206174
0.0023158
0.00253815
0.0027327
0.00290289
0.00305173
0.00318182
0.00329538
0.00339432
0.00348027
0.00355463
0.00361861
0.00367321
0.00371924
0.00375732
0.00378784
0.00381098
0.00382676
0.000294645
0.000661248
0.0010758
0.00145759
0.00179554
0.00209175
0.0023505
0.00257643
0.00277372
0.00294607
0.00309667
0.0032283
0.00334331
0.00344376
0.00353136
0.00360759
0.00367368
0.00373065
0.00377928
0.00382018
0.0038537
0.00388
0.00389907
0.000294296
0.00064964
0.00108089
0.00147323
0.00181906
0.00212113
0.00238421
0.00261332
0.00281296
0.0029871
0.00313916
0.00327208
0.0033884
0.00349029
0.00357957
0.00365778
0.0037262
0.00378585
0.00383751
0.00388174
0.00391887
0.00394901
0.00397208
0.000294661
0.00064514
0.00108652
0.00148896
0.00184241
0.00215002
0.00241707
0.00264899
0.00285065
0.00302629
0.00317958
0.00331367
0.00343126
0.00353465
0.00362577
0.00370623
0.00377733
0.00384012
0.00389535
0.00394354
0.00398496
0.00401967
0.0040475
0.000295187
0.000641831
0.00109259
0.00150489
0.00186568
0.0021785
0.00244919
0.0026836
0.00288699
0.00306392
0.00321833
0.00335357
0.00347252
0.0035776
0.00367085
0.00375395
0.00382823
0.00389472
0.00395415
0.00400701
0.00405348
0.00409353
0.00412692
0.000294541
0.000630066
0.00109875
0.00152105
0.0018889
0.00220662
0.00248065
0.00271729
0.00292222
0.00310034
0.00325584
0.00339233
0.00351283
0.00361992
0.00371572
0.00380195
0.00387999
0.00395084
0.00401522
0.0040735
0.00412583
0.00417205
0.0042118
0.000294629
0.000624595
0.00110554
0.00153747
0.00191209
0.0022344
0.00251149
0.00275018
0.00295655
0.00313584
0.00329254
0.00343047
0.00355284
0.00366234
0.00376119
0.00385116
0.00393363
0.00400959
0.00407969
0.00414424
0.00420327
0.00425651
0.00430346
0.00029517
0.000622325
0.00111304
0.00155413
0.00193519
0.00226183
0.00254176
0.00278237
0.00299016
0.00317071
0.00332881
0.00346848
0.00359312
0.00370553
0.00380801
0.00390239
0.00399003
0.0040719
0.00414857
0.00422027
0.00428689
0.00434803
0.00440305
0.000294894
0.000615805
0.00112071
0.00157085
0.00195808
0.00228881
0.00257144
0.00281392
0.00302319
0.0032052
0.00336498
0.00350679
0.00363416
0.00375005
0.00385682
0.00395632
0.00404992
0.00413855
0.0042227
0.00430247
0.00437761
0.00444757
0.00451152
6.95105e-05
0.000608527
0.00112874
0.00158748
0.00198056
0.00231519
0.00260045
0.00284485
0.00305576
0.00323948
0.0034013
0.00354569
0.00367634
0.00379632
0.00390806
0.00401346
0.00411387
0.00421017
0.00430275
0.00439157
0.00447621
0.00455593
0.00462972
0.000294776
0.000608386
0.00113697
0.00160375
0.00200235
0.00234071
0.00262861
0.00287506
0.00308787
0.00327363
0.00343792
0.00358538
0.00371988
0.00384459
0.00396204
0.00407415
0.00418228
0.00428722
0.00438925
0.00448816
0.00458335
0.00467384
0.00475841
0.000295959
0.000610324
0.00114493
0.00161924
0.00202304
0.00236503
0.00265563
0.00290435
0.00311939
0.00330762
0.00347485
0.00362591
0.00376484
0.00389496
0.00401888
0.00413857
0.00425538
0.00437001
0.0044826
0.00459274
0.00469959
0.00480193
0.00489827
6.96209e-05
0.000602384
0.00115218
0.00163351
0.00204213
0.00238763
0.00268107
0.0029324
0.00315009
0.00334127
0.00351195
0.00366716
0.00381114
0.00394735
0.00407855
0.00420675
0.00433327
0.00445873
0.00458309
0.00470572
0.00482548
0.00494084
0.00505001
0.000295343
0.000603178
0.00115873
0.00164593
0.00205883
0.00240778
0.00270432
0.00295871
0.00317959
0.00337427
0.00354895
0.00370889
0.00385853
0.00400155
0.00414084
0.00427852
0.00441587
0.00455342
0.00469091
0.00482743
0.00496149
0.0050912
0.00521438
0.000295528
0.000602116
0.00116359
0.0016554
0.00207194
0.00242436
0.00272448
0.00298259
0.00320737
0.00340619
0.00358546
0.00375069
0.0039066
0.00405713
0.00420537
0.00435353
0.00450292
0.00465391
0.00480604
0.00495805
0.00510806
0.00525367
0.00539223
0.000295496
0.000599986
0.00116551
0.00166006
0.00207956
0.00243577
0.00274034
0.00300318
0.00323276
0.00343649
0.00362096
0.00379203
0.00395479
0.00411349
0.0042715
0.00443116
0.00459382
0.00475974
0.00492821
0.00509761
0.00526552
0.00542895
0.0055846
0.00029556
0.000597176
0.00116204
0.00165668
0.00207874
0.00243977
0.00275035
0.00301944
0.00325503
0.00346453
0.00365485
0.00383226
0.00400235
0.0041698
0.00433829
0.00451042
0.00468757
0.00486999
0.00505673
0.00524577
0.0054341
0.00561788
0.00579283
6.96889e-05
0.000588458
0.00114827
0.00163974
0.00206493
0.00243324
0.00275259
0.0030302
0.00327339
0.00348967
0.00368643
0.00387059
0.00404834
0.00422492
0.00440445
0.00458981
0.00478259
0.00498309
0.00519028
0.00540178
0.00561386
0.0058215
0.00601891
6.96589e-05
0.000574863
0.00111465
0.00159978
0.00203135
0.00241217
0.00274494
0.00303435
0.00328715
0.00351129
0.00371499
0.0039061
0.00409162
0.00427744
0.00446822
0.00466727
0.00487654
0.00509662
0.00532666
0.00556415
0.0058046
0.00604133
0.00626591
0.000294923
0.000542046
0.00104066
0.00152097
0.00196877
0.0023721
0.00272556
0.00303117
0.00329587
0.00352887
0.00373982
0.00393782
0.00413086
0.00432563
0.00452741
0.00474009
0.0049662
0.00520701
0.00546236
0.00573019
0.00600558
0.00627958
0.00653901
6.9462e-05
0.00043283
0.000886689
0.00138117
0.00186736
0.0023098
0.00269391
0.00302082
0.00329962
0.00354215
0.00376027
0.00396471
0.00416462
0.00436755
0.00457948
0.00480497
0.00504742
0.00530926
0.0055919
0.00589499
0.00621452
0.00653933
0.00684756
8.54077e-05
0.000230364
0.000626296
0.00116618
0.00172413
0.00222722
0.00265269
0.00300516
0.00329924
0.00355118
0.00377583
0.00398579
0.00419146
0.0044012
0.00462168
0.00485821
0.00511523
0.00539681
0.00570704
0.00604954
0.00642495
0.00682357
0.00721022
0.000186518
0.000111906
0.000331008
0.000900088
0.00155678
0.00213765
0.00261006
0.00298843
0.00329655
0.00355644
0.0037862
0.00400026
0.0042101
0.00442476
0.00465147
0.00489618
0.00516434
0.00546185
0.00579626
0.00617784
0.00661927
0.00712844
0.00767097
0.000413084
0.000136834
0.00015371
0.000673694
0.00142071
0.00207145
0.00258057
0.00297698
0.00329406
0.00355867
0.00379129
0.00400757
0.0042196
0.00443685
0.00466685
0.00491594
0.00519018
0.00549675
0.00584597
0.0062549
0.00675458
0.00740771
0.00835591
6.19963e-05
5.71589e-05
5.66862e-05
6.03147e-05
0.0005772
0.000546494
0.000544725
0.000570919
0.00111222
0.00108602
0.0010828
0.00110238
0.00153459
0.00152231
0.00151935
0.00152561
0.00186785
0.00186331
0.00186056
0.00186068
0.00213414
0.00213396
0.00213196
0.00213097
0.00236375
0.0023633
0.00236251
0.00236137
0.0025678
0.0025671
0.0025662
0.00256499
0.00275128
0.00275086
0.00274972
0.00274781
0.0029156
0.00291527
0.0029138
0.00291107
0.00306227
0.00306179
0.00305983
0.00305632
0.00319312
0.00319239
0.00318996
0.00318579
0.0033101
0.00330912
0.00330634
0.00330171
0.00341521
0.00341409
0.00341112
0.00340626
0.00351054
0.00350947
0.00350654
0.00350172
0.00359809
0.00359735
0.00359474
0.00359022
0.00367975
0.00367963
0.00367764
0.00367375
0.00375732
0.00375814
0.0037571
0.00375417
0.00383261
0.00383471
0.00383495
0.00383331
0.00390739
0.00391111
0.00391299
0.00391299
0.00398343
0.00398912
0.00399298
0.00399497
0.00406242
0.00407044
0.00407665
0.00408099
0.00414599
0.00415671
0.00416562
0.00417265
0.00423562
0.0042494
0.00426137
0.00427144
0.00433261
0.00434983
0.00436522
0.00437867
0.00443812
0.00445915
0.0044783
0.00449548
0.00455313
0.00457833
0.0046016
0.00462284
0.00467847
0.00470822
0.00473597
0.00476159
0.00481492
0.00484958
0.00488216
0.00491249
0.00496318
0.00500315
0.00504089
0.00507625
0.00512399
0.00516965
0.00521292
0.00525361
0.00529815
0.00534991
0.00539905
0.00544537
0.00548659
0.0055449
0.00560028
0.00565252
0.00569049
0.00575585
0.00581786
0.00587629
0.00591145
0.00598447
0.00605354
0.0061184
0.00615183
0.00623325
0.00630983
0.00638129
0.00641532
0.00650605
0.00659056
0.00666859
0.00670797
0.00680907
0.00690166
0.00698563
0.0070403
0.00715254
0.00725237
0.00734025
0.00743145
0.00755365
0.00765674
0.00774311
0.00791832
0.00804049
0.00813397
0.00820603
0.00857016
0.00865001
0.00869968
0.0087326
0.000320867
0.000655506
0.000925721
0.00109843
0.00119643
0.00124503
0.00126159
0.001256
0.00123369
0.00119999
0.00115669
0.0011025
0.00103678
0.000956715
0.00085513
0.000722828
0.00054827
0.000315088
4.21671e-05
0.000748661
0.000990838
0.00119168
0.00133143
0.0014164
0.00145974
0.00147302
0.0014642
0.00143798
0.00139814
0.00134624
0.00128116
0.00120107
0.00110261
0.000979719
0.000822192
0.0006173
0.000347374
4.34308e-05
0.00118079
0.00132813
0.00146347
0.00156454
0.00162848
0.00165998
0.00166548
0.00165045
0.0016185
0.00157188
0.00151106
0.00143542
0.00134292
0.00122902
0.0010879
0.000909442
0.00067993
0.000378403
4.54549e-05
0.00155619
0.001641
0.00172484
0.00179039
0.00183176
0.00184839
0.00184335
0.00182
0.00178081
0.00172663
0.00165638
0.0015704
0.00146691
0.00133904
0.00118227
0.000987196
0.000740276
0.000414231
5.2739e-05
0.00187093
0.00191817
0.00196743
0.00200441
0.00202507
0.0020266
0.00200999
0.00197726
0.00192978
0.0018673
0.00178768
0.00169154
0.00157741
0.00143618
0.0012656
0.00105403
0.000783307
0.000423533
5.18584e-05
0.00213043
0.00215708
0.00218348
0.00220015
0.00220418
0.00219218
0.0021639
0.00212063
0.00206319
0.00199092
0.00190192
0.00179688
0.00167357
0.0015261
0.00134803
0.00112795
0.000850526
0.000493994
0.000260636
0.00235968
0.00237001
0.00237929
0.00237968
0.00236957
0.00234515
0.00230534
0.00225089
0.00218265
0.00209998
0.00200247
0.00189087
0.00175855
0.00159935
0.00141156
0.00118724
0.000915482
0.00059412
0.000282612
0.00256241
0.00256064
0.00255645
0.00254444
0.00252252
0.00248704
0.00243663
0.00237168
0.00229265
0.00219894
0.00209042
0.0019663
0.00182093
0.0016494
0.00144987
0.00121632
0.000936466
0.000595379
0.000294116
0.00274314
0.00273271
0.00271788
0.00269592
0.0026639
0.00261856
0.00255851
0.0024838
0.00239424
0.00228919
0.00216796
0.00202864
0.00186767
0.00168218
0.00147012
0.0012245
0.000935207
0.000588205
0.000294696
0.00290436
0.00288798
0.0028651
0.00283486
0.00279419
0.00274028
0.00267173
0.00258814
0.00248887
0.00237301
0.00223905
0.00208464
0.00190731
0.00170605
0.00147953
0.00122296
0.000927969
0.000586071
0.000294304
0.0030479
0.00302752
0.00299901
0.00296202
0.00291418
0.00285314
0.0027775
0.00268637
0.00257867
0.00245301
0.00230748
0.00213951
0.00194696
0.00172946
0.0014867
0.0012167
0.000915202
0.000580442
0.000294489
0.00317602
0.00315288
0.00312052
0.00307846
0.00302506
0.00295846
0.00287719
0.00277999
0.00266542
0.00253167
0.00237645
0.00219703
0.00199121
0.00175867
0.00149968
0.00121477
0.00090394
0.000572335
0.000295012
0.00329104
0.0032661
0.00323117
0.00318565
0.00312832
0.00305766
0.00297217
0.0028704
0.00275064
0.00261078
0.00244824
0.00226009
0.00204389
0.00179869
0.00152498
0.00122462
0.000899933
0.000552473
6.94716e-05
0.00339518
0.00336931
0.00333291
0.00328534
0.00322554
0.0031522
0.00306387
0.00295898
0.00283567
0.00269166
0.00252422
0.0023303
0.00210706
0.00185266
0.00156687
0.00125127
0.000907531
0.00054331
0.000294322
0.00349069
0.00346468
0.0034278
0.00337936
0.00331838
0.00324363
0.00315373
0.00304704
0.00292166
0.00277524
0.00260501
0.00240787
0.00218065
0.00192061
0.00162585
0.00129529
0.000927556
0.000527921
0.000292782
0.00357973
0.00355435
0.00351789
0.00346961
0.00340855
0.00333352
0.00324315
0.00313583
0.0030096
0.00286214
0.00269068
0.00249206
0.00226284
0.00199942
0.0016979
0.00135359
0.000962819
0.000529359
6.94806e-05
0.00366431
0.00364033
0.00360514
0.00355795
0.00349776
0.00342342
0.00333355
0.00322651
0.00310037
0.00295281
0.00278105
0.00258183
0.00235135
0.00208507
0.0017772
0.00141984
0.00100498
0.000533962
6.97243e-05
0.00374634
0.00372455
0.00369145
0.00364618
0.00358772
0.00351488
0.00342627
0.00332024
0.00319484
0.00304773
0.00287609
0.00267649
0.0024447
0.0021753
0.00186092
0.00149142
0.00105493
0.000548638
0.000295638
0.00382767
0.00380885
0.00377863
0.00373606
0.00368008
0.00360943
0.00352269
0.00341818
0.00329391
0.00314751
0.00297604
0.00277589
0.0025424
0.0022694
0.00194831
0.00156718
0.00111103
0.000571594
6.99105e-05
0.0039101
0.00389506
0.00386847
0.00382932
0.00377646
0.00370858
0.00362418
0.00352154
0.0033986
0.00325291
0.00308144
0.00288033
0.00264458
0.00236738
0.00203922
0.00164668
0.00117188
0.000601391
6.98204e-05
0.00399542
0.00398493
0.00396271
0.00392763
0.00387847
0.00381383
0.00373213
0.00363156
0.00351
0.00336488
0.00319305
0.00299045
0.00275172
0.00246956
0.00213373
0.00172975
0.00123812
0.000642462
7.32049e-05
0.00408535
0.00408017
0.004063
0.00403261
0.00398765
0.00392664
0.00384789
0.00374951
0.00362927
0.00348448
0.00331183
0.00310707
0.00286452
0.00257642
0.00223187
0.00181532
0.00130529
0.000682104
7.69343e-05
0.0041815
0.00418237
0.0041709
0.00414575
0.00410546
0.0040484
0.00397281
0.00387666
0.0037576
0.00361283
0.00343886
0.00323121
0.00298391
0.00268875
0.00233409
0.00190334
0.00137298
0.000719713
8.08264e-05
0.00428533
0.00429296
0.00428783
0.00426844
0.00423321
0.00418041
0.00410813
0.00401423
0.00389621
0.00375112
0.00357528
0.00336401
0.00311099
0.00280771
0.00244183
0.00199549
0.00144318
0.000758506
8.47012e-05
0.00439816
0.00441324
0.00441502
0.00440189
0.00437212
0.00432384
0.00425501
0.00416336
0.00404624
0.00390052
0.0037223
0.00350672
0.00324721
0.00293471
0.00255626
0.00209284
0.00151706
0.000799517
8.85318e-05
0.0045211
0.0045443
0.00455357
0.00454715
0.00452319
0.00447969
0.00441448
0.00432512
0.0042088
0.0040622
0.00388125
0.00366075
0.00339382
0.00307096
0.00267854
0.00219647
0.00159547
0.000843141
9.24785e-05
0.00465513
0.00468708
0.00470437
0.00470511
0.0046873
0.00464885
0.00458743
0.00450047
0.00438497
0.00423738
0.00405335
0.00382736
0.00355217
0.00321781
0.00280999
0.00230752
0.00167922
0.000889559
9.68376e-05
0.00480106
0.00484238
0.00486819
0.00487648
0.00486516
0.00483203
0.00477465
0.00469028
0.00457571
0.00442712
0.00423982
0.00400792
0.00372373
0.00337677
0.00295204
0.00242727
0.00176927
0.000939226
0.000101826
0.00495964
0.00501089
0.00504566
0.00506186
0.00505734
0.00502982
0.00497676
0.00489526
0.00478188
0.00463246
0.00444192
0.00420389
0.00391012
0.00354952
0.00310635
0.0025572
0.00186684
0.000992924
0.000107506
0.00513155
0.00519323
0.00523734
0.00526174
0.00526427
0.00524264
0.00519423
0.005116
0.00500423
0.00485442
0.00466095
0.00441684
0.00411315
0.00373801
0.00327483
0.00269904
0.00197334
0.0010517
0.000113796
0.00531751
0.00539003
0.00544372
0.00547649
0.00548625
0.00547074
0.00542735
0.00535289
0.00524341
0.00509393
0.00489822
0.00464851
0.00433491
0.00394455
0.00345979
0.00285482
0.00209033
0.00111653
0.000120672
0.00551827
0.00560191
0.00566528
0.00570642
0.00572343
0.00571421
0.00567621
0.00560618
0.00549988
0.00535184
0.00515508
0.00490078
0.00457782
0.00417195
0.00366412
0.00302711
0.00221967
0.00118831
0.000128228
0.00573476
0.00582963
0.00590252
0.00595178
0.00597585
0.00597295
0.0059407
0.00587584
0.00577388
0.00562884
0.00543282
0.00517572
0.00484475
0.0044237
0.00389157
0.00321931
0.0023638
0.0012682
0.000136601
0.00596814
0.00607407
0.00615596
0.00621273
0.00624339
0.00624663
0.00622039
0.00616151
0.00606535
0.00592535
0.00573263
0.00547552
0.00513903
0.00470424
0.00414719
0.00343624
0.00252628
0.00135791
0.000145948
0.00621998
0.00633636
0.00642623
0.0064894
0.00652575
0.00653464
0.00651453
0.00646248
0.00637377
0.00624138
0.0060554
0.00580236
0.00546451
0.00501916
0.0044379
0.00368491
0.00271246
0.00146004
0.000156435
0.00649244
0.00661798
0.00671404
0.00678183
0.00682242
0.00683611
0.00682198
0.00677751
0.00669806
0.00657632
0.00640145
0.00615811
0.00582532
0.00537537
0.00477316
0.00397576
0.0029308
0.00157848
0.000168406
0.00678856
0.00692079
0.00702015
0.0070899
0.00713265
0.00714979
0.00714119
0.00710486
0.00703648
0.00692871
0.00677017
0.00654389
0.00622549
0.00578109
0.0051659
0.00432477
0.0031954
0.0017197
0.000182521
0.0071124
0.00724694
0.00734521
0.00741322
0.00745534
0.00747412
0.00747021
0.00744226
0.0073865
0.00729602
0.00715952
0.00695921
0.00666792
0.00624515
0.00563324
0.00475676
0.00353142
0.00189654
0.000199658
0.00746912
0.00759854
0.0076894
0.00775089
0.00778902
0.00780721
0.00780678
0.00778698
0.00774486
0.00767446
0.0075655
0.00740089
0.00715259
0.00677503
0.0061962
0.0053101
0.00398602
0.00213744
0.000221172
0.00786408
0.00797665
0.0080518
0.00810122
0.0081317
0.00814692
0.00814845
0.00813609
0.00810778
0.00805907
0.00798183
0.00786179
0.00767372
0.00737235
0.006876
0.00604193
0.00465213
0.00251452
0.000249532
0.00830008
0.00837945
0.00842949
0.00846142
0.00848096
0.00849104
0.00849296
0.00848678
0.00847141
0.0084442
0.00840018
0.00833009
0.00821646
0.00802449
0.007681
0.00702585
0.00572011
0.00324494
0.000289208
0.00877088
0.00879965
0.00881685
0.00882758
0.00883412
0.00883759
0.00883849
0.00883689
0.00883248
0.00882449
0.00881137
0.00879019
0.00875515
0.0086936
0.00857431
0.00830579
0.00756935
0.0052054
0.000343232
)
;

boundaryField
{
    leftWall
    {
        type            nutkWallFunction;
        Cmu             0.09;
        kappa           0.41;
        E               9.8;
        value           nonuniform List<scalar> 
50
(
1.20737e-06
2.07282e-06
2.5817e-06
2.95151e-06
3.24177e-06
3.48459e-06
3.6985e-06
3.89559e-06
4.16461e-06
4.52779e-06
5.07311e-06
6.15033e-07
5.95751e-07
0
0
0
0
0
0
0
0
0
0
0
0
0
0
0
0
0
1.92952e-10
0
0
0
0
0
0
8.13515e-09
0
0
1.514e-09
2.89158e-10
1.1746e-09
0
0
0
0
2.53379e-06
1.78815e-05
4.87221e-05
)
;
    }
    rightWall
    {
        type            nutkWallFunction;
        Cmu             0.09;
        kappa           0.41;
        E               9.8;
        value           nonuniform List<scalar> 
50
(
1.74104e-06
2.59032e-06
3.11774e-06
3.53989e-06
3.90096e-06
4.23083e-06
4.55841e-06
4.8398e-06
5.09964e-06
5.25533e-06
5.50433e-06
4.90347e-07
2.68283e-07
0
0
0
0
0
0
0
0
0
4.00819e-09
0
0
2.31053e-09
1.12493e-09
0
5.6402e-07
1.17924e-06
1.81627e-06
2.44001e-06
3.04268e-06
3.67555e-06
4.37023e-06
5.17453e-06
6.07055e-06
7.04908e-06
8.10969e-06
9.26453e-06
1.05337e-05
1.19378e-05
1.34843e-05
1.52432e-05
1.73024e-05
1.97733e-05
2.2831e-05
2.68012e-05
3.22566e-05
3.95314e-05
)
;
    }
    lowerWall
    {
        type            nutkWallFunction;
        Cmu             0.09;
        kappa           0.41;
        E               9.8;
        value           nonuniform List<scalar> 
62
(
2.0089e-07
7.70478e-07
1.08177e-06
1.28798e-06
1.44035e-06
1.55853e-06
1.65235e-06
1.7272e-06
1.78704e-06
1.83578e-06
1.87697e-06
1.91305e-06
1.94478e-06
1.9692e-06
1.97818e-06
1.95869e-06
1.90497e-06
1.82859e-06
1.71061e-06
1.55523e-06
1.37873e-06
1.04416e-06
4.49239e-07
4.49239e-07
2.82991e-06
3.46223e-06
3.99189e-06
4.49131e-06
5.02709e-06
5.72863e-06
6.90703e-06
7.4935e-06
6.91633e-06
6.86031e-06
7.29413e-06
7.04919e-07
3.64778e-06
4.15663e-06
4.4875e-06
4.76709e-06
5.17534e-06
5.86656e-06
7.28921e-06
7.04919e-07
1.3591e-06
1.73283e-06
1.86789e-06
1.9206e-06
1.94301e-06
1.93647e-06
1.90787e-06
1.86694e-06
1.82603e-06
1.72979e-06
1.56537e-06
1.46939e-06
1.47055e-06
1.3899e-06
1.20472e-06
9.38136e-07
6.36601e-07
3.60812e-07
)
;
    }
    atmosphere
    {
        type            calculated;
        value           nonuniform List<scalar> 
46
(
0.009
0.000136834
0.00015371
0.000673694
0.00142071
0.00207145
0.00258057
0.00297698
0.00329406
0.00355867
0.00379129
0.00400757
0.0042196
0.00443685
0.00466685
0.00491594
0.00519018
0.00549675
0.00584597
0.0062549
0.00675458
0.00740771
0.009
0.009
0.009
0.009
0.009
0.009
0.009
0.009
0.009
0.009
0.009
0.009
0.009
0.009
0.009
0.009
0.009
0.009
0.009
0.009
0.009
0.009
0.009
0.000343232
)
;
    }
    defaultFaces
    {
        type            empty;
    }
}


// ************************************************************************* //
