/*--------------------------------*- C++ -*----------------------------------*\
  =========                 |
  \\      /  F ield         | OpenFOAM: The Open Source CFD Toolbox
   \\    /   O peration     | Website:  https://openfoam.org
    \\  /    A nd           | Version:  9
     \\/     M anipulation  |
\*---------------------------------------------------------------------------*/
FoamFile
{
    format      ascii;
    class       volScalarField;
    location    "23.4";
    object      p;
}
// * * * * * * * * * * * * * * * * * * * * * * * * * * * * * * * * * * * * * //

dimensions      [0 2 -2 0 0 0 0];

internalField   nonuniform List<scalar> 
918
(
23.4697
23.5782
0.956699
22.8871
1.01355
23.0946
3.27661
13.7864
19.2429
2.93408
2.62342
14.409
20.6376
16.879
12.9953
0.92455
14.0529
2.25055
18.4606
1.39859
12.9942
20.4484
21.5371
19.2847
14.1218
14.3741
18.5999
1.14784
0.108843
0.25692
0.977926
0.409537
0.147792
21.6315
22.3082
22.2465
15.4955
10.405
3.60113
3.8054
2.98702
2.81045
13.829
13.9289
5.86921
13.7654
13.7611
16.6444
19.111
19.2546
19.5478
19.3368
19.7232
5.97715
2.78589
2.60665
2.8753
2.94911
2.98167
2.69585
2.67739
2.4813
2.33535
13.8884
14.4821
14.5372
14.2684
14.2161
22.4542
21.6972
22.032
21.1383
21.2838
20.2137
19.8281
17.2546
17.6071
16.4809
16.1001
12.7857
12.7468
13.2152
13.465
0.145581
1.075
1.22269
14.0598
14.0963
14.0964
14.1109
8.28877
2.19228
2.19548
17.9009
17.4774
20.4823
20.7495
20.1965
20.011
1.53081
1.52613
1.15242
1.18211
0.951075
13.3354
13.4895
19.2361
18.403
14.1554
14.0554
14.1304
11.5006
13.9108
13.9841
15.3237
15.7792
14.9685
15.405
18.1699
17.7519
19.0365
19.4737
0.393966
0.155239
0.687164
0.317952
0.516438
15.3639
15.1584
15.6114
15.6622
15.8934
10.4097
10.3401
10.384
10.3039
4.15235
4.46686
2.25967
2.57455
2.42555
9.86987
13.9451
13.9918
4.81359
5.51762
5.18117
6.35161
6.72589
16.0101
16.4467
16.1855
17.7318
16.9367
17.2849
19.814
19.3032
19.6036
6.37263
6.60735
5.61134
5.25232
2.24179
2.48995
2.43263
2.98024
2.95801
3.21682
3.34593
2.69735
2.55424
2.89137
2.77486
2.8268
2.16512
2.03539
13.6125
13.3985
14.1514
14.33
15.0971
14.9488
14.6554
14.8242
19.0232
19.4267
19.4601
19.076
11.5472
10.1572
13.7195
13.995
0.302128
0.264945
0.138123
0.38085
0.400241
0.141869
2.01458
1.82615
1.40493
1.68048
14.0573
14.0171
8.52936
8.74888
8.12545
7.86903
16.3151
16.4653
17.0994
16.6992
1.96227
1.67629
1.80597
13.6523
13.5249
13.6317
10.9357
10.3692
11.9783
12.2481
13.9923
14.036
14.032
15.6834
16.0018
19.8246
20.0952
19.9221
20.3079
21.3707
21.022
20.6372
14.5397
14.9481
14.7865
16.1287
15.7624
15.9819
15.1897
15.4944
15.3523
10.3717
10.4179
10.1228
10.2006
10.2488
10.1959
9.80732
9.68045
14.0783
14.0334
14.0574
7.25378
7.75175
4.8715
4.54236
12.5443
13.2176
12.8931
18.6529
17.9753
18.7083
18.3374
17.8874
18.2109
10.4286
10.3901
10.4235
14.9193
14.2572
14.6091
2.43931
2.07509
2.23791
8.94487
9.03789
6.97597
7.59323
7.256
16.3035
16.6438
17.324
16.4357
16.9034
17.4106
17.1887
9.943
10.0755
9.99248
9.66428
9.55794
9.73606
8.33684
8.95006
3.61265
4.27043
3.96569
9.20578
9.4353
9.28264
18.6307
19.1655
0.766841
1.15505
19.5955
19.3192
0.140241
0.242337
14.2557
12.5532
7.26416
17.1979
16.6305
18.9703
3.19256
6.10453
2.807
3.38073
2.6864
14.6161
14.2501
13.3412
0.453726
1.25699
1.70819
2.90029
18.4111
17.7359
18.852
19.1722
19.2265
0.68803
0.913661
0.584211
1.2419
1.03091
1.27538
15.5516
15.6497
4.32677
18.859
19.1633
19.1811
17.6578
18.6105
17.668
0.935861
0.64288
0.707973
10.0815
12.1223
14.2159
13.7685
13.9655
13.9876
13.7385
14.8718
14.5413
14.5062
14.991
13.9675
13.8225
7.73555
6.38488
8.07015
7.71045
17.0992
16.6871
16.494
16.2397
18.0855
17.6115
18.4619
17.8503
18.3122
18.599
2.94182
3.13187
3.01274
2.52214
6.14476
6.61004
5.48961
5.6365
4.26053
2.42607
2.52498
2.75136
2.58242
2.93087
2.67879
2.94289
2.57884
2.32383
2.32088
2.9301
2.73775
2.60356
14.5945
14.5329
14.3338
14.3719
14.3544
14.4701
13.5357
13.9404
13.5682
12.3994
12.9805
12.5077
0.82636
0.662688
0.525365
1.32452
1.35171
1.11057
0.834836
1.17402
1.2017
0.814193
1.54437
1.44479
3.15852
2.64783
8.8455
7.97388
6.90141
16.8011
17.6029
16.7726
18.0133
18.4303
18.5357
18.1561
17.6479
15.7303
15.7254
15.3856
15.339
4.77273
3.73503
4.96917
4.53831
10.4801
14.0661
11.8433
10.8046
11.1009
13.4248
13.9311
13.5834
13.7205
13.2954
12.8236
13.5156
13.0493
13.1505
12.9295
15.72
16.1952
15.8017
15.2222
15.2422
10.6007
12.0166
5.46752
5.6413
7.24484
6.53914
13.5117
13.9339
13.9186
13.5574
13.7453
13.7461
13.6069
13.781
13.8611
13.7556
11.8251
10.1448
9.04619
9.03979
14.0776
12.3469
12.9312
12.4142
16.121
16.6375
16.2522
15.6467
16.1317
15.6035
15.6307
15.8439
17.2021
16.9517
16.7214
17.1083
3.05313
3.00162
3.64591
3.13506
3.03725
2.822
3.48382
4.75802
4.41562
6.7196
7.26933
4.57947
3.37273
3.79229
4.80679
5.54165
5.51253
3.96957
4.50248
4.93004
4.44109
5.22703
4.73115
2.71722
3.02306
2.86119
2.83503
3.38199
3.88078
3.37604
2.4794
2.59035
2.25478
2.11751
3.53441
2.9927
3.02929
3.67722
1.10695
1.32917
1.44148
2.41317
1.91226
1.97852
15.1831
14.8272
14.9608
14.24
14.3075
14.2486
13.8731
15.2406
14.9626
15.062
13.7105
13.7973
13.6105
13.9058
14.3218
14.621
15.4529
15.174
14.4131
14.5641
14.215
14.1433
13.4653
12.9023
12.8418
1.11287
0.823942
0.983954
0.911255
0.607168
0.799318
2.1833
1.57261
1.96969
1.72733
1.96021
1.40328
1.30216
4.25347
5.06189
3.96635
3.36764
3.06666
8.90334
9.01501
8.16388
7.86031
8.20195
8.43199
8.38196
7.13875
7.56698
7.37978
9.91912
9.58417
17.5873
17.5314
17.2026
17.0437
17.2701
5.76226
7.66544
6.80001
7.91649
10.2088
10.5049
9.31208
8.70676
9.45889
9.53626
14.0478
14.1239
13.5648
14.0506
14.0791
11.8357
12.883
13.4978
13.3122
13.8321
13.9131
12.9742
13.5628
13.478
12.7606
12.8136
12.1285
12.467
11.9951
11.7942
14.0566
13.9514
14.2211
13.772
14.1513
13.7156
14.0308
14.0288
14.3094
13.4114
12.8327
12.8512
13.2774
12.9775
13.3234
13.4875
9.30903
9.94976
10.3892
10.925
10.6325
10.4143
10.2815
10.5832
10.5602
10.8313
10.7507
10.6014
11.5616
13.4181
13.703
13.8046
13.6011
13.6473
13.3399
13.6129
13.5421
13.9206
14.0086
14.0582
13.1389
13.2952
13.4902
13.3739
11.6759
10.0971
9.94957
9.50953
7.57762
8.04744
11.0257
9.90288
8.91844
8.99025
12.1693
10.8067
11.6199
12.043
10.6947
10.3067
12.9719
13.7601
13.98
13.7041
12.0608
12.1866
12.6363
13.0797
13.2691
13.725
15.8609
16.4365
16.5144
16.2385
16.1005
16.2003
15.9504
16.0535
16.5276
16.6541
16.4854
2.87809
2.99152
2.92172
2.84721
3.08431
2.85944
3.95392
3.94413
3.15446
3.33511
3.35511
3.46103
2.92889
2.97217
4.82579
5.06175
5.33348
4.8321
6.17489
6.8194
7.40137
7.08479
5.7893
5.86991
6.18623
3.50558
3.53337
3.25133
3.70821
3.76089
2.60969
2.23732
2.04241
2.5614
2.66418
2.04901
1.76748
1.81641
2.33025
2.04963
1.8041
14.9756
14.7339
14.7553
14.5351
14.5897
14.9846
15.2054
15.0155
15.1539
15.2049
14.804
14.6929
14.864
1.81797
1.49309
1.62234
1.5799
1.64261
1.54891
1.73636
7.60759
6.41553
6.80293
5.97901
4.12159
4.64218
9.54187
9.9637
10.0021
9.71404
9.50355
9.8692
9.72007
9.71308
8.26471
9.3352
8.86984
9.26569
9.28648
9.35464
9.06805
9.08134
10.5853
10.6187
9.4835
10.1235
9.33196
7.93275
8.09981
9.11335
10.087
10.4069
10.2517
9.98113
9.75253
10.1167
10.1714
10.2316
10.221
8.75244
8.71188
8.31155
13.9695
13.8761
14.0226
14.0277
14.1547
13.9794
13.8165
14.0937
14.148
13.9322
11.0794
11.1384
11.3842
12.1312
12.1832
12.0932
11.3379
13.1025
12.7579
13.3961
13.3427
13.4148
13.0048
12.8282
13.0987
10.0814
11.4542
10.9869
11.2504
10.064
9.3077
13.2243
13.2783
13.3439
13.617
13.5748
14.1583
15.8308
15.7007
15.748
15.7911
15.4027
15.44
4.17463
3.82794
4.54861
4.50496
4.06334
3.76348
2.28666
1.96847
1.78079
1.65527
1.88888
1.94953
8.16231
8.19048
6.3338
7.35623
5.87715
4.93597
4.79189
5.95537
7.13672
7.19624
8.51546
9.1933
8.75182
8.57759
7.92079
8.25117
10.1193
10.2134
10.114
10.4328
9.96553
11.7142
11.2964
11.6453
13.2596
12.9689
12.3708
12.2574
12.2223
12.8155
11.9481
11.1797
11.8923
12.5481
12.5063
11.1198
10.8748
11.3015
11.2852
10.1992
10.7197
10.4816
10.834
10.549
)
;

boundaryField
{
    wall-4
    {
        type            zeroGradient;
    }
    velocity-inlet-5
    {
        type            zeroGradient;
    }
    velocity-inlet-6
    {
        type            zeroGradient;
    }
    pressure-outlet-7
    {
        type            fixedValue;
        value           uniform 0;
    }
    wall-8
    {
        type            zeroGradient;
    }
    frontAndBackPlanes
    {
        type            empty;
    }
}


// ************************************************************************* //
