/*--------------------------------*- C++ -*----------------------------------*\
  =========                 |
  \\      /  F ield         | OpenFOAM: The Open Source CFD Toolbox
   \\    /   O peration     | Website:  https://openfoam.org
    \\  /    A nd           | Version:  9
     \\/     M anipulation  |
\*---------------------------------------------------------------------------*/
FoamFile
{
    format      ascii;
    class       volVectorField;
    location    "25.45";
    object      U;
}
// * * * * * * * * * * * * * * * * * * * * * * * * * * * * * * * * * * * * * //

dimensions      [0 1 -1 0 0 0 0];

internalField   nonuniform List<vector> 
918
(
(2.47629 -0.138943 0)
(0.108704 0.722546 0)
(0.171756 1.05547 0)
(2.31834 0.153728 0)
(-0.0599086 1.26868 -1.22049e-19)
(-0.0924034 0.643931 -5.3142e-18)
(0.529791 0.849181 -2.95585e-19)
(0.274338 0.152881 -2.98869e-20)
(3.00615 -0.0195608 0)
(-0.00820698 0.476428 0)
(-0.0172078 0.588864 0)
(0.60522 0.00676524 0)
(0.0107054 0.439105 0)
(-0.0028825 0.421689 0)
(0.0134441 0.340835 -1.30529e-18)
(-0.00483023 0.768704 -9.20426e-20)
(0.312414 0.0742716 2.15226e-18)
(0.0797053 0.64186 -2.23185e-19)
(1.52884 0.128628 0)
(-0.026826 0.685441 0)
(0.194605 0.15773 -1.26568e-18)
(3.08302 -0.397373 0)
(2.92445 -0.50598 0)
(1.86116 -0.1811 0)
(0.511397 0.0400859 0)
(-0.0253683 0.52155 0)
(-0.00135313 0.494038 1.86255e-18)
(-0.0228512 1.40153 0)
(0.0737749 2.8865 0)
(0.167962 1.73835 0)
(-0.0393899 3.16259 0)
(0.0268019 1.63815 9.38439e-20)
(0.023116 0.686045 0)
(-0.147425 0.775094 -2.03101e-22)
(-0.193914 1.0291 4.42155e-18)
(-0.0415772 1.04471 0)
(0.744576 -0.00600531 0)
(0.161042 0.246363 6.65636e-19)
(0.993105 1.51236 6.53198e-19)
(0.649691 0.784024 -5.16271e-19)
(0.798258 1.57427 6.20537e-20)
(0.416588 0.850834 -3.20407e-19)
(0.55236 0.306585 2.93933e-20)
(0.296985 0.153652 0)
(0.962833 0.566452 0)
(0.532646 0.303969 1.32025e-19)
(0.257994 0.1628 -1.35477e-19)
(0.871595 -0.0554788 0)
(3.02784 -0.00170488 0)
(3.00685 0.0178656 0)
(3.20086 -0.417733 0)
(3.04288 -0.0742118 0)
(3.03116 -0.0388406 0)
(0.0186742 0.904291 -1.14671e-18)
(-0.0542177 0.97316 0)
(0.00282983 0.454595 0)
(-0.0290355 0.980084 0)
(-0.0113613 0.480685 0)
(-0.0013593 0.871092 0)
(-0.0520617 1.10967 0)
(-0.0125762 0.541161 0)
(-0.0253303 1.16105 0)
(-0.00594663 0.621138 0)
(0.790469 0.0116229 0)
(1.16943 -0.00156309 0)
(0.618255 0.0123692 0)
(1.1258 0.0175983 0)
(0.569769 0.00867866 0)
(0.225406 0.921982 1.95991e-18)
(0.0985379 1.2081 0)
(0.176302 1.06604 0)
(0.0331901 0.755774 2.19945e-23)
(0.0372233 0.498055 -2.9312e-18)
(0.0194616 0.747943 0)
(0.00595421 0.422033 0)
(-0.000695369 0.734548 4.51776e-24)
(0.000702467 0.414825 0)
(-0.0169206 0.74318 0)
(-0.0129375 0.42798 0)
(0.0494532 0.650028 0)
(0.0484543 0.45827 0)
(0.00801377 0.621975 1.23413e-18)
(0.00074893 0.34491 0)
(-0.0707764 4.69153 0)
(0.00871956 1.45836 9.13792e-20)
(-0.0105561 0.78573 -1.17665e-19)
(0.636121 0.152154 -7.50989e-19)
(0.321629 0.0656865 -7.28747e-19)
(0.644831 0.169732 -2.25478e-18)
(0.31755 0.0955761 -1.45165e-18)
(0.0786426 0.618956 0)
(0.178376 1.31255 1.85097e-19)
(0.179571 0.729582 -2.95331e-19)
(2.06031 0.260946 0)
(1.10704 0.118449 0)
(3.03313 0.103887 0)
(3.10392 0.446059 0)
(2.83919 0.377459 -1.01282e-17)
(2.5781 0.361309 7.77152e-18)
(-0.0708455 1.26282 0)
(-0.0114321 0.622931 0)
(-0.0144782 1.90151 0)
(-0.0508194 1.34678 0)
(-0.0481515 0.679241 0)
(0.440357 0.295664 4.0071e-19)
(0.225484 0.163375 0)
(2.2961 -0.266393 0)
(1.32372 -0.119274 0)
(1.07635 0.0126671 0)
(1.01201 0.0187638 0)
(0.540935 0.0108496 0)
(1.01982 0.0563933 0)
(0.821241 0.0703279 0)
(0.343632 0.0286962 3.36317e-18)
(-0.00543526 0.4516 1.77365e-18)
(-0.0270319 0.784628 0)
(-0.0473197 0.84751 0)
(-0.0152744 0.460437 0)
(0.000132472 0.839725 1.8161e-18)
(7.2994e-05 0.48753 0)
(-0.0054789 0.845554 -5.59069e-18)
(-0.00488634 0.496761 1.88645e-18)
(0.0529318 3.56774 0)
(0.0410082 4.02692 0)
(-0.0164162 1.41046 -2.0523e-21)
(-0.0132853 1.36247 0)
(-0.00990634 0.741201 0)
(1.41018 0.0348835 0)
(0.760546 0.015438 0)
(0.709516 0.0142641 0)
(1.41618 -0.0328487 0)
(0.773513 -0.00874008 0)
(0.322143 0.480472 -8.35731e-19)
(0.156843 0.232771 0)
(0.325052 0.509309 9.36617e-20)
(0.163406 0.268504 0)
(1.24036 1.38623 1.66536e-19)
(0.778443 0.740558 -3.92603e-19)
(0.411329 1.42088 0)
(0.606758 1.53286 0)
(0.303328 0.814129 0)
(0.145395 0.353522 -4.42943e-19)
(0.607358 0.280741 0)
(0.313531 0.134647 3.9885e-19)
(1.42694 1.30626 0)
(1.58636 1.16822 0)
(0.874701 0.663712 4.61885e-19)
(1.73363 0.952899 0)
(1.06844 0.438693 2.3218e-20)
(1.47298 0.00813793 0)
(1.501 -0.0292394 0)
(0.801895 -0.00441643 0)
(1.95042 -0.199779 0)
(1.65082 -0.14818 0)
(1.05215 -0.0889698 0)
(3.06126 0.164853 0)
(3.03105 0.0687874 0)
(3.01022 0.0531593 0)
(0.0357519 1.60785 6.0845e-19)
(0.0179129 0.828114 0)
(0.0180756 1.69893 1.08019e-18)
(0.00309022 0.94037 -9.71124e-19)
(0.0646667 1.15103 1.87994e-19)
(0.0476812 0.987978 0)
(0.040172 0.528083 0)
(-0.0286157 1.00399 0)
(-0.00697292 0.516763 0)
(0.0180068 1.61803 -4.43338e-21)
(-0.0181869 0.867033 0)
(-0.0540046 1.58652 -2.25798e-19)
(-0.0162517 0.821981 4.37293e-19)
(-0.00178799 1.02823 0)
(0.0102152 1.04249 0)
(3.53453e-05 0.530793 0)
(0.0105871 1.16971 0)
(0.000831978 0.611754 0)
(1.46829 -0.00370716 0)
(0.789205 0.00805794 0)
(1.44053 0.0331643 0)
(0.761785 -0.000558279 0)
(0.675387 0.00534399 0)
(1.26196 0.0166811 0)
(1.2024 0.0473076 0)
(0.659696 0.0155554 0)
(-0.00580052 1.42077 -1.70219e-20)
(0.000184319 1.37708 0)
(0.00482012 0.732923 0)
(0.00172892 0.417221 0)
(0.284498 0.828875 0)
(0.253667 0.399802 -2.87166e-19)
(-0.00222706 0.635415 0)
(-0.00889549 0.367611 0)
(0.00895908 4.33861 0)
(-0.0516357 4.66438 0)
(-0.0211354 4.56676 0)
(-0.0734305 3.36613 2.0464e-20)
(-0.060707 4.60247 0)
(-0.0541433 4.17875 0)
(0.00473812 0.819782 1.0789e-20)
(0.0141305 1.56362 1.6538e-19)
(-0.035957 1.50376 1.2089e-19)
(-0.00752951 0.826431 0)
(0.664461 0.105713 1.15336e-18)
(0.325698 0.0441641 -1.13031e-18)
(0.149845 1.1344 0)
(0.101062 0.573852 -2.69333e-19)
(0.118367 1.23449 -8.74659e-19)
(0.0519781 0.687868 8.70157e-19)
(0.809203 0.0240632 0)
(1.55677 0.0476791 0)
(1.7097 0.127652 0)
(0.919845 0.0445226 0)
(0.00775424 1.18119 0)
(0.0257211 1.18952 0)
(0.00441619 0.627398 0)
(0.482166 0.315117 1.20371e-18)
(0.436895 0.309119 -1.38681e-18)
(0.23479 0.164191 0)
(1.93541 0.152979 1.15247e-19)
(1.13636 0.0932387 0)
(1.7243 0.118435 0)
(0.883703 0.0226912 0)
(0.6782 0.0857405 0)
(0.699738 0.0460611 -5.40785e-18)
(0.346739 0.0325967 1.99914e-18)
(0.00914683 0.807283 1.69381e-18)
(0.00222264 0.462509 4.08166e-20)
(-0.0108777 1.40842 -3.58026e-20)
(0.00613616 1.38675 1.36595e-18)
(-0.0149832 0.848955 6.29476e-20)
(-0.0119261 0.524486 -2.52921e-22)
(-0.107514 1.00068 -1.16495e-18)
(-0.0529602 1.3532 8.34041e-19)
(-0.0175323 1.35275 -1.35784e-18)
(1.42272 -0.0170858 0)
(1.44235 0.0203171 0)
(0.769867 -0.000178485 0)
(1.45218 0.0253829 0)
(1.3632 0.0462294 0)
(0.761543 0.0203068 0)
(1.30062 -0.00215431 0)
(1.31868 -0.00584947 0)
(0.695058 -0.000986982 0)
(0.304925 0.473512 -9.15335e-19)
(0.161392 0.242729 0)
(0.15721 0.308525 1.36963e-19)
(0.309698 0.586081 1.12235e-18)
(0.307496 0.548739 -6.64438e-19)
(0.156867 0.281975 1.2984e-18)
(0.278615 0.718025 2.18204e-18)
(0.148337 0.381014 3.93729e-19)
(0.636132 0.213109 1.53756e-18)
(0.626039 0.253623 3.99346e-19)
(0.316639 0.115052 7.49321e-19)
(1.92107 0.714502 -5.99781e-19)
(1.16757 0.336052 -7.02002e-19)
(-0.0351181 1.7061 4.64297e-19)
(-0.0114348 0.926444 0)
(1.60386 0.0239445 0)
(1.52188 0.0653682 0)
(0.852915 0.0268553 0)
(-0.00355882 1.38473 0)
(0.0050742 0.729574 2.49529e-18)
(0.00465033 0.731252 0)
(0.00207079 0.415097 -2.44232e-18)
(-0.0102752 1.38627 5.95696e-19)
(-0.00947267 1.4225 0)
(0.33662 0.488239 2.57988e-19)
(0.360108 0.546502 -8.631e-19)
(0.171869 0.257865 7.81234e-19)
(-0.0256697 0.767466 -1.66275e-18)
(-0.026151 0.689733 0)
(-0.0154341 0.412936 0)
(0.0300288 1.54991 -1.27487e-20)
(0.0312522 1.58226 -3.64797e-19)
(0.0178407 0.823514 -1.55964e-20)
(0.213566 1.04481 8.90279e-19)
(0.119748 0.509324 -5.92434e-19)
(0.0119397 1.48672 7.30857e-19)
(0.0559773 1.35237 -8.15714e-19)
(0.0268918 0.761264 3.53199e-20)
(0.00751325 1.36614 -3.80783e-18)
(-0.000215104 1.39326 4.40969e-18)
(0.00377335 0.829776 1.73303e-18)
(-0.013829 0.805094 -1.72551e-18)
(-0.0043091 0.481399 -1.73867e-18)
(-0.0106512 1.41685 -4.50009e-18)
(-0.0152179 1.40032 4.58928e-18)
(0.286481 0.675052 0)
(0.299882 0.634845 -2.28811e-18)
(0.151993 0.331828 9.90526e-19)
(0.281369 0.796338 1.18531e-18)
(0.138883 0.427711 -1.82892e-18)
(2.05686 0.322541 4.15874e-19)
(2.05138 0.547648 0)
(1.21856 0.220955 -4.01833e-19)
(-0.0740048 1.63797 -4.80217e-21)
(-0.0141695 1.69343 0)
(-0.0157324 0.923496 0)
(0.227242 0.94505 -3.22864e-19)
(0.248374 0.866948 -7.07064e-19)
(0.128885 0.463503 1.32507e-18)
(3.16442 -0.442872 0)
(3.34728 -0.414685 1.8129e-18)
(0.0606181 3.48505 0)
(0.0478871 2.80877 0)
(3.15925 0.249915 1.4192e-20)
(3.12355 0.506295 3.71231e-18)
(0.0219129 3.43128 -2.74636e-20)
(0.00861997 2.6634 0)
(-0.0416422 1.19605 1.55513e-18)
(0.19012 1.31647 0)
(3.4723 1.62485 -3.24796e-19)
(3.17427 0.272573 -2.96098e-20)
(3.14838 -0.118697 0)
(3.10047 -0.00040431 3.73087e-22)
(0.0440017 2.58702 0)
(0.158056 3.30469 0)
(-0.0549988 2.5308 0)
(-0.0232251 3.49305 3.15796e-19)
(-0.0254583 3.57324 1.99274e-19)
(2.63346 0.0488253 -1.3649e-20)
(3.04749 0.0311455 0)
(3.15788 0.0868279 0)
(-0.0537982 4.61763 0)
(-0.0464964 3.08469 0)
(-0.0726074 2.93442 0)
(0.65228 3.10333 2.65863e-19)
(3.33884 -0.422459 0)
(3.0114 -0.34581 0)
(3.1699 -0.0530372 2.27732e-18)
(3.2927 -0.3287 -2.74214e-18)
(3.1038 -0.125777 0)
(-0.0595319 4.51584 0)
(0.0145668 3.93561 0)
(0.00605992 4.26642 0)
(-0.0275509 3.09518 0)
(-0.0138584 2.85166 0)
(-0.0309796 2.42418 0)
(2.97422 -0.00317188 0)
(2.85043 0.0486265 -1.805e-20)
(2.24634 3.04833 -3.21714e-19)
(3.15695 0.0444549 -2.27839e-18)
(3.19037 0.278179 2.76949e-18)
(3.0828 0.117338 0)
(3.3954 0.328925 2.08741e-18)
(3.35695 0.484366 -2.7067e-18)
(3.07111 0.418429 0)
(-0.0558221 3.34778 0)
(0.00458417 3.27654 8.52551e-20)
(-0.030838 2.57591 -6.04113e-20)
(3.70777 0.555252 2.26569e-18)
(3.47091 0.20847 0)
(-0.151972 1.27126 -2.1661e-18)
(-0.0624187 0.882158 -1.35046e-19)
(-0.0848123 1.33673 2.98585e-18)
(-0.0352212 1.27046 -8.99689e-19)
(-0.000481325 1.08842 0)
(-0.026665 1.23955 6.94911e-19)
(-0.115049 1.38786 2.14672e-18)
(-0.0590462 1.34056 -1.31424e-18)
(-0.0767385 1.32063 0)
(1.28943 0.597268 0)
(1.17743 0.682459 0)
(3.55639 2.0292 9.53684e-19)
(3.04947 1.93562 -1.1908e-18)
(3.83757 1.70638 0)
(3.38397 1.1567 0)
(3.34934 0.280495 -3.91705e-18)
(2.89884 0.17312 4.84005e-18)
(3.35145 -0.15548 0)
(2.85479 -0.0761366 0)
(3.43642 0.0430252 0)
(3.5938 0.145056 0)
(3.28683 0.119874 0)
(3.55033 0.29858 0)
(3.40841 0.293059 0)
(3.32755 0.218073 0)
(0.0975277 2.78821 0)
(0.0345081 2.07714 0)
(0.126727 3.04907 0)
(0.0926362 2.20352 0)
(0.215444 3.59746 0)
(0.140438 2.67718 -5.58755e-19)
(0.053773 3.61419 0)
(0.0116738 3.01828 4.05747e-19)
(-0.0243835 3.20742 -5.17141e-19)
(-0.0593028 2.79534 0)
(-0.0229253 2.1984 0)
(-0.0720924 2.90271 0)
(-0.0555547 2.04647 0)
(-0.106952 4.7509 -2.4553e-19)
(-0.0797756 3.9444 2.77243e-19)
(-0.0746371 3.80581 3.09075e-19)
(-0.0528541 3.02045 0)
(-0.105005 3.80653 -4.5873e-19)
(-0.0374968 3.21815 -2.95067e-19)
(-0.081286 4.78329 1.92573e-19)
(-0.094108 4.4678 -3.50429e-19)
(-0.0690122 4.33777 -3.78931e-19)
(3.03136 0.0883791 3.35881e-18)
(2.28961 0.0321802 -4.23004e-18)
(2.89135 0.132838 -3.32773e-18)
(2.20961 0.0734858 4.15653e-18)
(3.36856 0.0277188 0)
(2.64305 -0.00265316 0)
(3.45413 0.0913428 0)
(3.32022 0.0192817 0)
(2.70663 0.00922268 0)
(3.68026 0.239614 0)
(3.4388 0.0959863 0)
(2.86364 0.0565078 0)
(-0.0235701 4.33479 -1.2037e-20)
(-0.0567024 4.65353 0)
(-0.0620527 4.5488 0)
(-0.0757627 3.50603 8.77627e-20)
(-0.0377529 2.77983 -3.46642e-21)
(-0.0816023 4.67005 1.13426e-19)
(-0.0957034 4.45853 -1.14623e-19)
(-0.0789941 3.95539 0)
(-0.0571238 3.87603 0)
(-0.0209141 3.99301 0)
(-0.0718222 3.2549 0)
(-0.0428352 2.29975 0)
(0.948632 3.65965 -6.09011e-19)
(0.920776 2.85156 -1.76424e-19)
(0.430657 2.05407 -2.28242e-19)
(0.25258 2.301 6.97159e-19)
(1.02449 4.20118 2.63826e-19)
(3.43308 -0.167423 0)
(3.32213 -0.256546 0)
(2.88327 -0.189516 0)
(3.47032 -0.0643468 0)
(3.34581 -0.147865 0)
(3.44893 -0.261023 0)
(3.5195 -0.283601 0)
(3.57949 -0.28113 0)
(3.22414 0.0933854 3.6191e-18)
(2.55519 0.0645173 -4.5763e-18)
(3.0965 0.106575 -3.56256e-18)
(2.5091 0.0566733 4.43282e-18)
(2.23974 3.41611 0)
(1.73918 2.94723 -4.4575e-19)
(2.56679 3.34834 -4.03288e-19)
(2.36905 2.52891 5.36007e-19)
(0.774676 1.21326 2.72246e-18)
(1.44682 0.21648 1.34323e-18)
(3.72251 0.304218 0)
(3.89307 0.572768 -1.84613e-18)
(3.29891 0.243932 -8.23453e-20)
(3.72086 0.440117 0)
(0.23669 1.31237 1.79619e-18)
(-0.0166122 1.202 -2.87651e-18)
(0.0588454 0.769971 1.61462e-18)
(0.275989 0.464926 -7.47882e-19)
(0.187292 1.38382 8.71046e-19)
(0.0506685 1.23719 0)
(0.0577534 1.08621 -1.13235e-18)
(0.191775 1.44302 -4.09236e-18)
(0.32909 1.55704 0)
(0.00867239 1.2902 1.19592e-19)
(-0.00971821 1.45729 -1.34029e-18)
(-0.0410153 1.30282 1.9485e-18)
(-0.0574449 1.41766 0)
(-0.020477 1.38227 0)
(0.681208 1.05005 0)
(2.45718 2.45532 -1.06624e-18)
(2.64366 2.1733 3.95281e-19)
(2.79231 2.88211 0)
(3.21298 3.06725 -3.94586e-19)
(3.16574 2.41145 2.8459e-20)
(0.803769 0.589398 -1.82247e-18)
(1.55596 0.691479 -1.62195e-20)
(1.23295 0.451015 8.72173e-19)
(1.27512 0.843675 5.95074e-20)
(0.938865 0.63386 -2.36957e-18)
(1.46431 0.714174 0)
(1.98997 1.09975 1.45598e-18)
(2.0321 1.0157 0)
(1.41187 0.790714 0)
(1.062 0.54969 0)
(3.37566 2.18017 1.00851e-18)
(3.94748 0.760853 -1.86346e-18)
(3.84778 1.21599 0)
(3.53367 0.757727 0)
(1.39141 0.364768 1.33252e-18)
(3.2582 1.84224 -8.51526e-19)
(2.83456 1.65444 1.54688e-18)
(3.75536 1.37703 -1.83592e-18)
(3.09794 0.114759 2.46404e-18)
(3.16856 0.180816 -2.579e-18)
(2.66184 0.091642 0)
(3.3073 -0.0394985 0)
(3.20141 -0.0842577 -2.36658e-18)
(2.63243 -0.0321104 2.34574e-18)
(3.9563 0.0932012 0)
(3.75969 0.145651 0)
(3.69369 0.155372 0)
(3.5883 0.204747 0)
(3.83261 0.0590299 0)
(3.72611 0.0522517 0)
(-0.0400383 2.51031 0)
(-0.0376528 2.00975 0)
(0.357396 3.98689 -4.11233e-19)
(0.662734 3.33209 -1.60064e-19)
(0.259596 3.02593 -3.58097e-19)
(0.343669 2.54657 5.73605e-19)
(0.45848 4.01317 0)
(0.470796 4.67152 -5.09898e-19)
(0.384266 4.72975 0)
(0.912145 4.37628 -3.79518e-19)
(0.674231 3.81645 9.68922e-19)
(0.598172 4.65258 4.46935e-19)
(0.741146 4.20003 -1.87517e-19)
(0.60307 4.32525 1.50869e-19)
(0.917167 4.65683 -6.63772e-19)
(0.750374 4.66201 0)
(0.859552 4.58953 5.04565e-19)
(0.00744851 4.57433 -1.81141e-19)
(-0.018447 3.65041 0)
(0.102026 4.28956 5.49631e-19)
(-0.00237381 4.39274 0)
(-0.00341849 3.46193 -4.51183e-19)
(-0.0151606 2.91562 0)
(-0.100232 4.30638 -2.89047e-19)
(-0.105849 4.68136 0)
(-0.0528129 3.80345 0)
(-0.0398555 3.72496 3.25094e-19)
(-0.0471018 3.89131 1.038e-20)
(-0.0347839 3.71255 6.26015e-19)
(-0.041255 2.95295 4.06918e-21)
(-0.114378 4.71101 1.80134e-19)
(-0.103213 4.74236 1.03192e-19)
(-0.0169344 2.62091 0)
(0.00109314 2.13363 0)
(-0.0411847 4.78988 4.86096e-19)
(-0.0479002 4.30694 4.23626e-19)
(-0.0827205 4.58404 -5.53838e-19)
(0.0169845 4.75803 0)
(-0.0794439 4.5356 -3.09077e-19)
(-0.11848 4.16959 1.27754e-19)
(-0.0856421 4.2505 -4.13027e-20)
(-0.0708044 4.72983 -2.18831e-19)
(-0.0860643 4.27195 -6.85461e-20)
(-0.0842933 4.21701 3.06696e-19)
(2.87143 0.061021 -2.36367e-18)
(2.85889 0.0497023 2.27314e-18)
(2.33861 0.034556 0)
(3.51013 0.19202 3.04669e-18)
(2.70371 0.126539 -3.30494e-18)
(2.25453 0.0644818 3.60978e-18)
(3.68252 0.335317 -4.01663e-19)
(3.20989 -0.0485234 0)
(3.17212 -0.0135524 2.23713e-18)
(2.6909 -0.0123764 -2.21949e-18)
(3.87875 0.122233 -1.25246e-19)
(3.77175 0.10185 1.0784e-18)
(4.15976 0.173475 0)
(4.22846 0.181135 -3.75154e-19)
(4.01371 0.145226 0)
(3.69491 0.1554 0)
(4.0323 0.0950839 0)
(3.71179 0.0873298 0)
(4.18472 0.113878 7.85546e-19)
(4.1372 0.0791312 -1.74801e-18)
(4.14066 0.11388 -8.48059e-19)
(4.1864 0.116521 -9.24541e-19)
(4.21569 0.228997 1.77417e-18)
(3.85473 0.188619 0)
(4.06125 0.301893 0)
(-0.0734217 4.58089 -1.35739e-19)
(-0.0340305 4.64459 -1.16786e-20)
(-0.0668369 4.6612 0)
(-0.0559525 4.19716 1.38118e-19)
(-0.0544044 4.22422 2.25403e-20)
(-0.0590577 4.09234 -2.18478e-20)
(-0.0805491 3.52998 2.61175e-19)
(-0.144072 4.00881 -1.45199e-20)
(-0.102844 4.1364 7.47579e-20)
(-0.0745501 3.40508 -1.32326e-19)
(-0.0249319 2.92791 1.5847e-19)
(-0.0766367 4.42796 5.1965e-21)
(-0.0895894 4.64246 1.72219e-19)
(1.24381 4.35827 3.47533e-19)
(1.16015 4.52787 7.26028e-19)
(1.73645 3.46509 4.3103e-19)
(1.30842 3.55883 1.69596e-19)
(1.28589 2.88812 0)
(0.54896 2.32004 2.7494e-19)
(0.463863 1.74245 3.30762e-19)
(0.345494 2.5692 1.51139e-20)
(0.492729 3.17538 -1.16138e-18)
(0.632496 3.13399 8.76667e-19)
(0.4332 2.40594 0)
(0.293903 1.97334 -5.57409e-19)
(0.26028 3.08011 1.39508e-18)
(0.273701 2.72149 -3.14006e-20)
(0.158168 2.27821 -1.74852e-18)
(0.591642 1.41152 1.46357e-18)
(0.57666 1.6175 0)
(3.58364 -0.0751507 8.64378e-20)
(3.61861 -0.254102 -7.26004e-20)
(3.72135 -0.217713 -1.26662e-18)
(3.75927 -0.126021 1.2825e-18)
(3.67616 -0.0488572 0)
(2.44646 3.87088 0)
(2.61815 3.91427 0)
(2.88964 3.62507 0)
(2.7365 3.6424 0)
(0.854398 1.3947 -3.33836e-21)
(0.611639 1.03929 0)
(1.70976 3.38493 1.50224e-20)
(1.42171 3.46411 0)
(1.32716 2.95134 -1.28388e-18)
(1.40767 2.89388 8.24514e-19)
(1.79134 0.310403 0)
(1.43051 0.262024 3.52085e-19)
(2.41173 0.358826 2.19191e-18)
(1.78613 0.284835 -7.85472e-19)
(1.42636 0.112198 -2.49512e-18)
(4.2663 0.790019 -2.56564e-18)
(3.85208 0.995148 -3.67189e-20)
(3.29706 0.844603 2.06795e-18)
(3.87588 0.74542 1.81338e-18)
(3.12316 0.465671 -3.04521e-18)
(2.91032 0.45215 3.75009e-19)
(3.19262 0.682304 -8.18765e-19)
(2.97621 0.683382 0)
(3.75875 0.563955 1.53773e-18)
(4.09572 0.62935 0)
(4.09124 0.776411 0)
(4.04573 0.41588 8.23725e-19)
(4.29664 0.642527 -3.02483e-20)
(4.2494 0.715829 -4.52907e-19)
(4.17653 0.643215 0)
(3.6157 0.130403 1.71827e-18)
(4.19 0.183576 2.14432e-18)
(4.0907 0.151642 -1.67951e-18)
(4.13653 0.240851 -1.44293e-18)
(3.74576 0.238196 -2.15649e-18)
(3.30296 0.375954 0)
(3.40348 0.302391 0)
(2.55817 0.190644 -1.26612e-18)
(2.10852 0.119112 4.76793e-19)
(4.03725 0.3526 1.94045e-18)
(4.28773 0.432805 -2.34664e-18)
(4.2849 0.489432 2.06903e-18)
(4.15716 0.493487 0)
(4.25662 0.337265 0)
(4.2665 0.322375 -9.81983e-19)
(4.2143 0.316134 -1.59661e-18)
(2.22741 3.48755 6.20517e-19)
(1.93821 3.23137 -6.8342e-19)
(1.44614 2.3559 -1.032e-18)
(1.18668 1.99661 2.66872e-19)
(0.883999 1.37844 -2.62899e-18)
(0.79384 1.21566 9.22227e-19)
(0.600901 0.904114 -1.96797e-21)
(1.11483 1.78505 -1.13798e-18)
(1.14218 1.8822 1.69878e-18)
(0.974581 1.70038 5.06125e-19)
(0.786105 1.28885 -5.12742e-19)
(0.635525 1.07456 0)
(2.44608 2.607 -1.15443e-19)
(0.705351 1.14429 8.57313e-19)
(0.927913 0.88984 1.15629e-18)
(0.755417 0.813709 1.33787e-18)
(1.08324 0.746612 1.34126e-18)
(1.46713 1.04445 -2.27046e-18)
(1.38316 1.07136 1.83957e-18)
(1.00195 0.76562 -6.76811e-19)
(0.817138 0.56808 1.49477e-18)
(1.61561 0.490779 -7.7816e-19)
(1.55908 0.508361 0)
(1.23963 0.40736 4.6072e-21)
(2.5095 1.51598 7.75616e-19)
(2.08007 1.27025 -2.8088e-18)
(1.6869 1.18453 9.09251e-21)
(1.66093 1.09245 0)
(2.86249 2.59517 8.7385e-19)
(3.44691 2.75268 1.03752e-18)
(3.25598 2.93066 -1.19602e-18)
(3.55426 2.76318 -4.28411e-19)
(3.4842 2.60328 -1.34906e-19)
(3.51242 2.79478 1.38799e-19)
(3.67444 2.26688 -1.67951e-18)
(3.70519 2.49193 4.00778e-19)
(3.78362 2.43558 0)
(3.78436 2.19134 -5.79753e-19)
(4.04902 1.07326 5.80596e-19)
(4.27593 0.99308 1.00223e-18)
(4.3004 0.966788 1.01173e-18)
(4.05508 1.32925 -1.14969e-18)
(4.10283 1.34963 0)
(4.15246 1.23359 0)
(3.32788 1.23571 -1.56031e-20)
(2.41788 0.666506 0)
(2.72201 0.744046 9.30706e-19)
(3.23842 0.885922 -2.64535e-20)
(3.77302 1.53461 5.10774e-18)
(3.56999 1.76184 1.3112e-18)
(3.48114 1.54045 -1.34074e-18)
(3.03759 1.36979 1.43751e-18)
(2.76091 1.36969 8.23816e-19)
(2.3068 1.15596 -7.97848e-19)
(3.67221 -0.0855459 1.98472e-18)
(3.8947 -0.0289356 0)
(3.85894 -0.0665518 1.34213e-18)
(3.74291 -0.0594113 -2.98789e-18)
(3.98056 0.0373733 1.46204e-18)
(3.90444 0.113423 -3.08309e-18)
(3.73986 0.128032 0)
(3.55625 0.173468 -6.28576e-19)
(3.81197 0.122979 1.60535e-18)
(3.69196 0.191382 -8.22596e-19)
(3.6003 0.171076 5.90743e-19)
(-0.0801864 2.58855 0)
(-0.046797 3.39532 0)
(-0.0317781 2.4596 0)
(-0.0215279 1.96873 0)
(0.0467057 3.93861 6.70566e-19)
(0.140553 3.71981 -1.72939e-19)
(0.318061 4.64331 -2.29711e-19)
(0.253625 4.45925 2.42605e-19)
(-0.0245197 4.29206 -4.97412e-19)
(0.0126439 4.32421 3.73524e-19)
(0.0962314 3.86706 2.2266e-20)
(0.0101562 3.55416 -4.67036e-19)
(-0.0121845 3.30589 -6.22513e-20)
(-0.03897 3.66838 -5.67207e-20)
(0.154 4.47711 -5.87e-19)
(0.179205 4.29097 0)
(0.276564 4.63633 2.96435e-19)
(0.269655 4.70991 2.53019e-19)
(0.596852 4.44566 -2.26023e-19)
(0.409075 3.78326 0)
(0.458195 3.63067 -1.11511e-18)
(0.561169 3.99952 7.90138e-19)
(0.481187 4.563 -6.14863e-19)
(0.371472 4.43449 3.30794e-19)
(0.300515 4.15714 0)
(-0.0341893 4.76309 -5.53108e-19)
(-0.074017 4.53012 -6.41522e-19)
(-0.0751374 4.74189 0)
(-0.0283319 4.363 -6.25451e-21)
(-0.0181766 4.64371 2.74215e-19)
(-0.11843 3.8794 4.46841e-20)
(-0.0554459 3.48404 -6.53454e-19)
(-0.095589 3.92249 1.74143e-19)
(-0.135301 4.51598 2.32198e-19)
(-0.0757027 4.32597 0)
(-0.0599428 3.88408 0)
(-0.08239 2.89686 2.00765e-19)
(-0.0479456 3.62967 -6.26439e-20)
(-0.0730605 3.61705 0)
(-0.0883893 2.68554 1.58073e-19)
(-0.0465179 2.1927 -3.0628e-19)
(3.76103 0.0323412 0)
(3.7319 0.00774304 -2.03289e-19)
(4.1795 0.0679578 -1.44004e-18)
(4.0891 0.0463081 0)
(3.87633 0.0178199 0)
(4.14973 0.0370564 -1.25243e-20)
(4.1003 0.0349511 2.37907e-18)
(4.0001 0.080212 2.84585e-18)
(3.75587 0.118669 0)
(3.55803 0.110055 0)
(4.01333 0.09396 1.41757e-18)
(3.70325 0.116139 0)
(3.47211 0.128878 0)
(-0.0823208 4.70057 0)
(-0.108282 4.66851 1.06641e-20)
(-0.0785595 4.72039 6.30064e-20)
(-0.0615527 3.83062 0)
(-0.113647 4.53574 1.11227e-19)
(-0.0693219 4.24015 -6.33506e-20)
(-0.0551543 3.92834 0)
(1.41136 4.18659 0)
(1.21007 4.58004 -1.29811e-18)
(1.22551 4.48843 0)
(1.57463 4.48655 1.48462e-18)
(1.59339 4.11962 0)
(1.50193 4.37049 -6.06646e-19)
(1.01188 2.24329 -3.39534e-20)
(0.709469 1.64595 -1.74495e-18)
(0.590889 1.22787 2.12898e-18)
(0.709119 1.83574 3.96886e-19)
(0.97558 2.42511 0)
(1.03694 2.38011 0)
(0.718699 1.68796 0)
(0.532569 1.33064 -1.39549e-18)
(1.20989 3.77601 -9.83585e-19)
(1.12952 2.99008 -2.35534e-19)
(1.32778 3.40604 1.92626e-19)
(0.5997 2.04198 0)
(0.620597 1.94354 0)
(0.462522 1.57192 -3.9281e-19)
(0.95829 2.72164 0)
(2.68759 3.57092 0)
(2.38178 3.00877 -1.4547e-18)
(2.54638 3.02707 -8.58824e-20)
(2.42034 3.40451 0)
(2.28624 3.14968 2.22131e-18)
(3.27824 3.08663 -3.89741e-19)
(3.13413 3.32461 0)
(3.11651 3.15095 6.30519e-19)
(2.87071 3.41255 0)
(2.88233 3.20075 0)
(1.2096 2.00672 -9.30548e-19)
(1.41445 2.40377 -6.99607e-19)
(1.75414 2.98226 1.20611e-18)
(1.69635 2.96033 -3.62287e-19)
(1.06271 1.82262 0)
(1.20722 2.20898 4.71169e-19)
(0.71861 1.28897 -7.15311e-19)
(0.581773 1.0437 -5.6495e-22)
(1.93807 3.69624 0)
(2.19981 3.74318 -5.42649e-19)
(2.33889 3.9863 0)
(2.2842 0.52902 0)
(1.61744 0.34192 0)
(1.2091 0.276599 0)
(2.20926 0.554275 -1.46533e-18)
(1.63539 0.402213 8.1729e-19)
(2.14568 0.129121 -9.85215e-19)
(2.62668 0.297525 0)
(2.46574 0.301644 4.13509e-19)
(1.76994 0.135718 1.63308e-18)
(1.53031 0.0812683 -1.03709e-18)
(0.745679 1.55609 8.58133e-19)
(0.959986 1.82061 0)
(0.537743 1.44017 1.56103e-18)
(0.523964 1.61494 -1.42538e-18)
(0.75735 1.81462 -9.88448e-19)
(2.07385 2.46289 1.33782e-18)
(2.09724 2.71234 0)
(1.5838 1.67831 -2.7637e-19)
(2.01006 1.98966 1.7452e-18)
(1.3601 1.29275 -4.23613e-19)
(1.58892 1.3136 4.50725e-19)
(2.10989 1.51336 1.02325e-18)
(2.44305 1.67108 0)
(2.27638 1.85626 0)
(2.01023 1.60619 0)
(3.95684 2.07967 3.84549e-19)
(3.75997 1.88968 -1.26363e-18)
(3.81738 2.02796 1.04683e-18)
(3.90117 1.77136 -1.00838e-18)
(4.15786 1.67375 0)
(4.11692 1.84091 -2.9786e-19)
(2.8407 1.16335 -1.89741e-18)
(2.97104 1.16345 -2.41315e-18)
(2.33219 1.04361 1.45651e-18)
(2.13846 0.934485 -1.41992e-18)
(2.46368 0.846199 -1.17818e-18)
(2.17875 0.776987 1.44892e-18)
(4.00845 0.0334725 -1.52896e-18)
(4.05276 0.0406857 3.13035e-18)
(3.76797 -0.0658837 1.90099e-18)
(3.79118 -0.0737747 -2.28688e-18)
(3.95955 0.0105688 0)
(4.05603 0.0228731 -3.72999e-18)
(0.0970871 4.76195 1.06572e-19)
(0.0679267 4.73175 0)
(0.190248 4.73191 9.53374e-19)
(0.21178 4.7493 -8.67344e-19)
(0.231673 4.71781 4.28393e-19)
(0.122634 4.65743 0)
(-0.102023 4.77176 0)
(-0.107853 4.4031 -6.18418e-20)
(-0.106908 4.33188 5.54301e-20)
(-0.115701 4.48168 7.17937e-21)
(-0.106362 4.72221 -1.01132e-19)
(-0.0832632 4.70991 5.50776e-20)
(1.87635 4.01005 -1.64333e-18)
(1.81731 4.01672 1.7403e-18)
(1.68464 4.40615 -8.543e-19)
(1.69377 4.27778 7.61327e-20)
(2.25295 4.08586 0)
(1.85474 4.21902 -6.3567e-19)
(1.98186 3.95876 6.16509e-19)
(1.82437 4.38016 8.34492e-19)
(2.07713 4.2191 0)
(2.22863 4.09999 0)
(1.13939 3.63222 1.49522e-18)
(0.827338 2.81281 2.0237e-18)
(0.955095 2.9911 -1.38986e-18)
(0.747303 2.97304 -2.31952e-19)
(0.903481 3.73228 4.66396e-19)
(0.723044 3.36497 -1.13425e-18)
(0.745989 1.46609 -1.21495e-18)
(0.746415 1.31721 0)
(0.602713 1.11474 -1.3354e-18)
(1.11125 2.06446 0)
(1.08825 2.15143 0)
(1.35883 2.191 -1.09067e-18)
(1.06464 2.01436 -1.03608e-18)
(1.017 2.03521 1.09876e-18)
(1.03129 1.51928 0)
(1.41058 1.76192 -6.01263e-19)
(1.62755 2.11917 -8.55489e-19)
(1.41105 2.08274 0)
(0.867953 1.8185 7.12507e-19)
(0.779852 1.67955 0)
(2.90634 2.28893 -1.84717e-18)
(3.31909 2.47052 2.60944e-18)
(3.27782 2.19304 -2.59353e-18)
(2.61059 2.02094 -2.31193e-19)
(2.72516 1.94036 -9.74214e-19)
(1.26209 2.18994 7.96222e-19)
(1.31626 2.24482 -1.36001e-18)
(1.45433 2.32972 1.7929e-18)
(1.79062 2.55974 -1.1653e-18)
(1.88932 2.9326 -1.56731e-18)
(1.56344 2.48889 -1.18809e-19)
(1.63323 2.62849 1.37136e-18)
(1.81035 2.69328 9.66233e-20)
(2.01831 2.99901 6.50042e-19)
)
;

boundaryField
{
    wall-4
    {
        type            noSlip;
    }
    velocity-inlet-5
    {
        type            fixedValue;
        value           uniform (3 0 0);
    }
    velocity-inlet-6
    {
        type            fixedValue;
        value           uniform (0 1 0);
    }
    pressure-outlet-7
    {
        type            zeroGradient;
    }
    wall-8
    {
        type            noSlip;
    }
    frontAndBackPlanes
    {
        type            empty;
    }
}


// ************************************************************************* //
