/*--------------------------------*- C++ -*----------------------------------*\
  =========                 |
  \\      /  F ield         | OpenFOAM: The Open Source CFD Toolbox
   \\    /   O peration     | Website:  https://openfoam.org
    \\  /    A nd           | Version:  9
     \\/     M anipulation  |
\*---------------------------------------------------------------------------*/
FoamFile
{
    format      ascii;
    class       volScalarField;
    location    "21.6";
    object      p;
}
// * * * * * * * * * * * * * * * * * * * * * * * * * * * * * * * * * * * * * //

dimensions      [0 2 -2 0 0 0 0];

internalField   nonuniform List<scalar> 
918
(
23.4692
23.5791
0.959231
22.8866
1.01146
23.0956
3.27898
13.7865
19.2424
2.93417
2.62379
14.4084
20.6385
16.88
12.9964
0.924233
14.0524
2.25278
18.4601
1.39917
12.995
20.4479
21.5366
19.2842
14.1212
14.375
18.6009
1.15058
0.109424
0.258415
0.977032
0.409022
0.148074
21.6324
22.3091
22.2474
15.495
10.4064
3.60293
3.80697
2.9893
2.81304
13.829
13.9289
5.86984
13.7656
13.7614
16.644
19.1105
19.2541
19.5473
19.3363
19.7227
5.97757
2.78648
2.60736
2.87526
2.94876
2.97998
2.69633
2.67764
2.48192
2.33595
13.8878
14.4814
14.5366
14.2678
14.2154
22.4551
21.6982
22.0329
21.1393
21.2847
20.2146
19.829
17.2556
17.608
16.4819
16.101
12.7868
12.748
13.2163
13.4661
0.14592
1.07419
1.22205
14.0594
14.0958
14.096
14.1106
8.29244
2.19453
2.19789
17.9005
17.4769
20.4819
20.7491
20.1961
20.0106
1.53176
1.52696
1.15401
1.18306
0.951903
13.336
13.49
19.2356
18.4025
14.1547
14.0548
14.1297
11.5001
13.9102
13.9835
15.3247
15.7802
14.9695
15.4059
18.1708
17.7528
19.0374
19.4746
0.394836
0.155673
0.686937
0.317842
0.516238
15.3633
15.1579
15.6109
15.6617
15.8929
10.411
10.3411
10.3855
10.3055
4.15362
4.46807
2.26209
2.57724
2.42826
9.87269
13.9451
13.9917
4.8146
5.51837
5.18214
6.35193
6.72612
16.0096
16.4462
16.185
17.7313
16.9362
17.2844
19.8135
19.3027
19.6032
6.37358
6.60893
5.61162
5.2525
2.2437
2.49102
2.4339
2.97999
2.95774
3.21503
3.34462
2.6958
2.55284
2.89126
2.77503
2.82672
2.1659
2.03609
13.6119
13.3979
14.1509
14.3294
15.0966
14.9482
14.6548
14.8236
19.0241
19.4276
19.4611
19.0769
11.5482
10.1577
13.7206
13.996
0.302217
0.265341
0.137991
0.380605
0.400118
0.141618
2.01354
1.82514
1.40421
1.67974
14.0568
14.0165
8.53314
8.75272
8.12908
7.87237
16.3146
16.4648
17.099
16.6987
1.96307
1.67712
1.80673
13.6527
13.5254
13.6321
10.9352
10.3688
11.9777
12.2475
13.9917
14.0354
14.0315
15.6843
16.0028
19.8255
20.0961
19.923
20.3088
21.3716
21.0229
20.6381
14.5391
14.9476
14.786
16.1282
15.7618
15.9813
15.1892
15.4939
15.3518
10.3726
10.4188
10.125
10.2027
10.2505
10.1978
9.81032
9.68354
14.078
14.0332
14.0572
7.25383
7.75174
4.87132
4.542
12.5437
13.217
12.8925
18.6539
17.9762
18.7092
18.3383
17.8883
18.2118
10.4294
10.3908
10.4242
14.9203
14.2582
14.6101
2.43758
2.07364
2.2364
8.9488
9.04163
6.97804
7.59609
7.25853
16.3044
16.6448
17.3249
16.4367
16.9043
17.4116
17.1897
9.94571
10.0779
9.99501
9.66767
9.5614
9.73567
8.33667
8.94981
3.61135
4.26955
3.96463
9.2095
9.43883
9.2862
18.6302
19.165
0.767932
1.15716
19.5951
19.3188
0.14054
0.242025
14.2567
12.5541
7.26432
17.1974
16.63
18.9698
3.19204
6.10508
2.80648
3.38003
2.68591
14.6155
14.2496
13.3407
0.454529
1.25693
1.70822
2.90212
18.4106
17.7355
18.8516
19.1717
19.2261
0.688487
0.914785
0.584427
1.24261
1.03154
1.27569
15.551
15.6491
4.32827
18.8586
19.1629
19.1806
17.6573
18.61
17.6675
0.935785
0.642621
0.708136
10.0811
12.1218
14.2169
13.7695
13.9665
13.9886
13.7395
14.8728
14.5423
14.5072
14.992
13.9674
13.8227
7.73529
6.38507
8.07004
7.7103
17.0987
16.6866
16.4935
16.2392
18.085
17.6111
18.4615
17.8499
18.3117
18.5985
2.94088
3.13116
3.01263
2.52257
6.14512
6.61185
5.48973
5.637
4.25996
2.42618
2.52498
2.75094
2.58231
2.9303
2.67837
2.94224
2.57787
2.32344
2.3201
2.92921
2.73705
2.6026
14.5938
14.5323
14.3332
14.3712
14.3538
14.4695
13.5352
13.9399
13.5676
12.3989
12.9799
12.5071
0.826295
0.661511
0.525616
1.3246
1.35168
1.11079
0.835495
1.17479
1.20188
0.815214
1.54402
1.44538
3.15948
2.64951
8.84909
7.97749
6.90103
16.8006
17.6025
16.7721
18.0128
18.4298
18.5352
18.1556
17.6474
15.7298
15.7249
15.3851
15.3384
4.77291
3.73667
4.96973
4.53897
10.4812
14.0655
11.8428
10.8041
11.1003
13.424
13.9322
13.5843
13.7215
13.2963
12.8245
13.5166
13.0503
13.1515
12.9304
15.721
16.1962
15.8026
15.2232
15.2431
10.6014
12.0164
5.46799
5.64155
7.24421
6.53893
13.5123
13.9337
13.9183
13.5576
13.7457
13.746
13.6068
13.7808
13.8612
13.7556
11.8243
10.1442
9.04583
9.03946
14.0772
12.3463
12.9308
12.4134
16.1205
16.637
16.2517
15.6461
16.1312
15.603
15.6302
15.8434
17.2016
16.9512
16.7209
17.1078
3.05258
3.00097
3.64481
3.13532
3.03713
2.82281
3.48329
4.75711
4.41478
6.71994
7.26918
4.57839
3.37225
3.79123
4.80524
5.54103
5.51281
3.96923
4.50218
4.92918
4.44066
5.22742
4.73125
2.7172
3.02217
2.86044
2.83458
3.38139
3.87998
3.37527
2.47896
2.58983
2.25507
2.11796
3.53324
2.9916
3.02808
3.67628
1.10629
1.32882
1.44143
2.41287
1.91155
1.97765
15.1825
14.8266
14.9602
14.2393
14.3069
14.248
13.8724
15.24
14.962
15.0615
13.7099
13.7967
13.6099
13.9052
14.3212
14.6204
15.4523
15.1734
14.4125
14.5635
14.2144
14.1427
13.4647
12.9017
12.8412
1.11263
0.82294
0.983775
0.912012
0.607997
0.800244
2.18278
1.57211
1.96917
1.72706
1.95976
1.40394
1.30197
4.25263
5.05956
3.96713
3.36822
3.06899
8.90652
9.01835
8.16701
7.86245
8.20426
8.4352
8.38526
7.14079
7.56994
7.38241
9.92159
9.58727
17.5868
17.5309
17.2021
17.0432
17.2697
5.76085
7.66439
6.79943
7.91635
10.2099
10.5063
9.31226
8.70752
9.46035
9.53715
14.0472
14.1234
13.5642
14.05
14.0785
11.8349
12.8823
13.497
13.3114
13.8314
13.9124
12.9736
13.5622
13.4772
12.7597
12.8128
12.1279
12.4663
11.9943
11.7935
14.056
13.9507
14.2205
13.7713
14.1506
13.7149
14.0301
14.0282
14.3088
13.4107
12.8321
12.8506
13.2768
12.9768
13.3228
13.4868
9.3084
9.94979
10.3899
10.9258
10.6336
10.415
10.2823
10.5839
10.5611
10.832
10.7514
10.602
11.5612
13.4189
13.7038
13.8056
13.6015
13.6476
13.3403
13.6135
13.5425
13.9202
14.0083
14.0579
13.1386
13.2952
13.4904
13.3739
11.6753
10.0957
9.94856
9.50854
7.57692
8.04692
11.0247
9.90214
8.91794
8.98963
12.1686
10.806
11.6192
12.0422
10.6939
10.306
12.9713
13.7596
13.9794
13.7034
12.06
12.1858
12.6356
13.0792
13.2686
13.7247
15.8604
16.436
16.5139
16.238
16.1
16.1998
15.9499
16.053
16.5271
16.6536
16.4849
2.87782
2.99097
2.92118
2.84683
3.08337
2.85847
3.95221
3.9422
3.15359
3.33425
3.35405
3.46051
2.92803
2.97138
4.82471
5.06065
5.33265
4.83149
6.17417
6.82073
7.40312
7.08548
5.78858
5.86978
6.18652
3.50449
3.53261
3.25058
3.7069
3.75992
2.6096
2.23739
2.04218
2.56052
2.66363
2.04881
1.76793
1.81689
2.33011
2.05023
1.80467
14.9751
14.7334
14.7547
14.5346
14.5892
14.984
15.2048
15.0149
15.1533
15.2043
14.8034
14.6923
14.8634
1.81796
1.49221
1.62251
1.58002
1.64172
1.54852
1.73578
7.60823
6.41456
6.80179
5.97847
4.12111
4.64146
9.54376
9.96594
10.0042
9.71689
9.50607
9.87157
9.72257
9.7158
8.26526
9.33713
8.87076
9.26905
9.28945
9.35794
9.07033
9.08063
10.5848
10.6181
9.48279
10.1232
9.33121
7.93197
8.09909
9.11255
10.0862
10.4082
10.2525
9.98138
9.75287
10.1179
10.1726
10.2331
10.2226
8.75217
8.71099
8.31077
13.969
13.8756
14.0221
14.0272
14.1543
13.9787
13.8158
14.093
14.1474
13.9316
11.08
11.1391
11.3848
12.1322
12.1841
12.0933
11.338
13.103
12.7581
13.3967
13.3431
13.4149
13.0046
12.8281
13.0989
10.0806
11.4533
10.9859
11.2496
10.0633
9.30718
13.2238
13.2778
13.3435
13.6167
13.5743
14.158
15.8303
15.7002
15.7475
15.7905
15.4022
15.4394
4.17373
3.82692
4.54689
4.50376
4.06223
3.76261
2.28683
1.96867
1.7813
1.65545
1.88867
1.94895
8.16137
8.1905
6.3327
7.356
5.87657
4.93588
4.79215
5.95409
7.13559
7.19563
8.5166
9.19581
8.75382
8.57999
7.92229
8.25329
10.1214
10.2152
10.1159
10.4346
9.96735
11.7149
11.2972
11.6461
13.2605
12.9696
12.3714
12.2581
12.2231
12.8164
11.9473
11.1787
11.8915
12.5478
12.5059
11.1204
10.8755
11.302
11.2855
10.1994
10.7202
10.4822
10.8343
10.549
)
;

boundaryField
{
    wall-4
    {
        type            zeroGradient;
    }
    velocity-inlet-5
    {
        type            zeroGradient;
    }
    velocity-inlet-6
    {
        type            zeroGradient;
    }
    pressure-outlet-7
    {
        type            fixedValue;
        value           uniform 0;
    }
    wall-8
    {
        type            zeroGradient;
    }
    frontAndBackPlanes
    {
        type            empty;
    }
}


// ************************************************************************* //
