/*--------------------------------*- C++ -*----------------------------------*\
  =========                 |
  \\      /  F ield         | OpenFOAM: The Open Source CFD Toolbox
   \\    /   O peration     | Website:  https://openfoam.org
    \\  /    A nd           | Version:  9
     \\/     M anipulation  |
\*---------------------------------------------------------------------------*/
FoamFile
{
    format      ascii;
    class       surfaceScalarField;
    location    "21.6";
    object      phi;
}
// * * * * * * * * * * * * * * * * * * * * * * * * * * * * * * * * * * * * * //

dimensions      [0 3 -1 0 0 0 0];

internalField   nonuniform List<scalar> 
1300
(
11.2529
1.87548
-4.19457
11.2529
-4.98047
1.87548
-4.23369
4.23369
-1.18797
1.18797
5.7123
5.54056
-2.37075
2.37075
-2.81592
2.81592
-2.86036
2.86036
-1.06194
1.06194
-1.02826
1.02826
0.693267
-0.693267
-3.41092
3.41092
-1.45656
1.45656
-2.90005
2.90005
6.1281
-6.1281
-3.25537
3.25537
-0.744069
0.744069
-4.26321
15.5161
6.98965
6.98965
-2.37142
2.37142
-1.25397
1.25397
1.41034
-1.41034
9.0954
-9.0954
-4.90083
-5.91466
1.90322
-14.002
-3.07726
-3.07726
-2.7054
2.7054
-0.829928
1.04555
3.47676
-3.47676
-0.757973
0.757973
-4.32012
0.0864272
-4.32012
4.01679
0.216898
4.01679
-1.32927
0.141298
-1.32927
4.67418
-4.67418
1.07624
0.111729
1.07624
3.92809
-3.92809
-5.71006
11.4224
5.5428
-5.32064
20.8367
-5.93222
11.4728
-3.91393
3.91393
-2.28752
-0.0832347
-2.28752
2.37188
-0.00112758
2.37188
-4.00949
4.00949
-2.60475
-0.21117
-2.60475
2.91761
-0.101692
2.91761
3.66621
-3.66621
-2.91637
0.0560093
-2.91637
2.70868
0.151673
2.70868
0.771042
1.10443
-2.64652
3.69207
-1.10443
0.0424987
1.02614
0.0357986
1.02614
-1.01453
-0.0137259
-1.01453
1.04984
-0.0215814
1.04984
0.730445
-0.0371778
0.730445
-0.754917
0.0616496
-0.754917
-8.58406
-8.98482
-3.53821
0.127292
-3.53821
-1.47454
0.0179773
-1.47454
1.49277
-0.0362055
1.49277
-2.53399
2.53399
-3.24112
0.341065
-3.24112
4.80636
1.32174
4.80636
5.04612
6.20674
16.299
-16.299
10.1709
-2.972
-0.283364
-2.972
-3.42444
-5.67097
3.42444
-0.169068
-0.805871
0.0618026
-0.805871
5.62659
1.36306
5.62659
2.58651
0.122171
-2.58651
0.21509
4.62535
-4.62535
1.42348
0.947944
1.42348
-1.19153
1.19153
1.12337
-0.0735307
-1.12337
-0.1306
1.38601
0.0243319
1.38601
-1.40975
-0.000595748
-1.40975
7.31753
-13.2322
-7.79884
3.21931
0.191603
-3.21932
0.14206
3.56349
-0.0867247
3.56349
-3.30974
3.30974
-3.61096
0.134193
-3.61096
-0.682888
-0.0750857
-0.682888
0.843038
-0.0850649
0.843038
-4.56941
0.249287
-4.56941
-3.68088
0.439768
3.68088
0.335911
1.25247
-1.25247
-1.43705
0.107779
-1.43705
-4.65403
0.084622
4.65403
0.0201554
-4.76903
0.0948484
-4.76903
-3.7125
0.101546
3.7125
0.215585
4.58934
1.03725
-4.58934
0.661253
-5.36948
11.5762
-5.88338
11.4262
-3.52944
-0.384485
-3.52944
4.10575
-0.191819
4.10575
2.56245
0.337599
-2.56245
0.274934
2.4986
-0.126719
2.4986
-3.95534
-0.0541501
-3.95534
3.81064
0.198847
3.81064
2.5391
-0.0404996
-2.5391
-0.0656515
2.89468
0.0229353
2.89468
3.67213
-0.00591258
3.67213
-3.53929
-0.126923
-3.53929
3.17905
-3.17905
3.08071
0.0983416
-3.08071
0.164343
-5.07402
5.07343
-0.00799943
-5.06602
1.01814
1.01814
0.769526
-0.0390807
0.769526
-0.861789
0.106873
-0.861789
8.33409
-16.1329
8.8021
-17.3862
7.53
-21.532
8.08402
-17.0688
3.82667
-3.82667
3.7582
0.0684646
-3.7582
0.219995
-1.45633
-0.0182099
-1.45633
-2.29547
-0.238525
-2.29547
2.86821
-0.334217
2.86821
-3.74212
3.74212
-4.12479
0.382676
4.12479
0.681564
2.95823
-0.063556
-2.95823
-0.0137699
0.924501
0.151742
-0.924501
0.118629
4.8623
-0.236952
4.8623
-4.08464
-0.540709
-4.08464
-1.47518
0.0188458
1.47518
-0.0516956
-1.25894
0.0674099
-1.25894
-5.0745
0.00847757
-5.0387
-1.40127
-1.40127
1.30414
4.9962
-3.58556
0.0462684
3.58556
-0.0220712
3.52708
0.215031
-3.52708
0.217347
-3.26334
0.0842894
3.26334
0.0463972
-0.660344
-0.0225432
-0.660344
-1.03627
1.03627
-0.918824
-0.117444
0.918824
-0.0757857
1.40845
-0.155978
1.40845
1.47096
0.0218036
-1.47096
0.0339159
-5.00887
0.239833
-5.00887
4.11556
-0.00981843
4.11556
-3.94868
-0.135967
3.94868
-0.276549
-0.00372291
5.07715
-1.01441
-0.000120275
1.01441
-5.10148
5.10136
-0.66569
0.00534588
0.66569
0.103835
1.02966
0.161878
-1.02966
0.167867
3.8504
-0.039762
-3.8504
0.0237356
-2.01293
-0.282541
-2.01293
-3.19718
-0.332262
3.19718
-0.32897
-5.11518
-0.077939
5.19312
-5.13676
1.33688
0.0491262
-1.33688
5.15049
-1.14556
-0.106909
1.14556
-0.109291
1.60762
-0.199175
1.60762
5.11908
-0.256774
-5.11908
0.110214
-4.13132
0.175985
4.13132
-0.0157599
-1.77968
-0.233249
1.77968
-0.172056
-13.1281
14.4911
7.70865
-6.28488
-6.94731
-11.9558
4.4471
7.12912
14.618
-11.7837
-9.74828
-11.6417
2.86006
-2.6922
-3.72853
3.69136
23.583
-23.4881
-18.3992
19.0808
20.777
-20.5614
5.70885
5.71352
15.8025
-15.8858
-20.9623
20.5778
15.3622
-15.5733
22.0955
-22.1496
-25.8388
25.7991
-16.0936
16.1496
-20.2938
20.1669
-21.0566
20.7801
-8.32183
-9.06433
16.4983
-16.371
20.0211
-20.3045
-19.3306
19.6717
10.0475
4.4436
11.0848
-6.24673
11.9556
-5.22604
12.9347
8.32077
-16.6426
7.81216
-14.7595
9.06854
10.9526
-8.89947
-3.05638
-17.9698
17.883
-17.2572
17.3035
24.098
-24.0115
-6.17283
11.8863
-5.25335
12.3825
-11.409
-6.99022
10.0873
4.53073
8.97078
7.52749
-9.16238
-2.47929
-24.795
24.5382
-25.6578
25.1171
0.100081
2.426
-2.52608
1.35405
-0.862563
3.28856
1.9975
2.10437
2.4527
-2.29083
0.239493
-2.76557
-2.89617
-5.34302
5.4508
5.16013
-5.0484
16.5366
7.04635
16.5568
-16.7445
-6.74363
-16.5047
11.3637
7.71705
11.7464
12.0616
8.71536
12.1632
10.359
-10.3317
-0.0273376
-11.4776
21.8367
1.55466
-18.4679
-13.9371
8.81741
6.98514
8.81628
-9.85889
-6.02689
-9.58396
-11.0512
-9.91108
-11.3834
12.3611
8.21664
12.1693
-15.3574
15.3416
9.26523
6.09694
9.16354
-8.94416
-6.62918
-9.00981
27.4872
-6.66218
-20.8251
-13.2064
-12.6324
13.0076
9.08786
14.3493
11.4498
14.373
8.90971
18.5775
-17.9976
5.36518
-9.94738
-6.14621
-9.78304
9.2587
6.8909
9.41037
-11.7665
-8.52728
-11.7203
-11.9865
-9.07014
11.9924
8.17451
-12.5335
-13.1243
12.6695
8.11057
7.85189
-17.6002
9.21694
-18.2813
-10.9597
-5.41129
-10.7397
10.8059
6.65164
-17.4575
-5.83673
23.6526
-12.7
20.5962
-10.9068
-9.39772
-10.9205
-14.7669
-4.56377
-14.3271
-8.01301
7.73047
-8.85087
8.51665
26.9043
-16.238
-10.6663
-12.3783
-8.18306
11.7171
-0.632326
-12.8358
12.8084
-0.880198
12.0545
16.4981
15.8658
-10.8803
-6.37685
-10.663
10.2704
7.03319
10.3546
16.0781
8.0199
16.295
-16.8016
-7.20996
-16.5523
4.84696
-4.92205
5.71472
-5.69588
15.5774
9.53965
-15.3405
-9.45454
22.9325
-10.7755
-12.157
-5.12008
5.21591
-0.0958332
-1.83152
-0.477462
0.266606
-1.93125
-1.79729
1.8696
0.234778
5.45069
3.6534
-2.41436
2.48177
2.77876
2.70523
-0.190946
2.50113
-2.49579
18.9151
-11.4425
-7.47264
13.9594
-13.8748
-2.59283
-19.3212
16.7283
2.68197
3.00556
-2.94376
-3.95
-1.39302
-3.91609
2.95388
2.20625
3.10562
2.10795
3.34285
-8.10778
1.56425
6.54352
-5.99983
-3.48415
-13.3473
-6.27226
19.6196
16.6748
7.86346
-16.785
0.280331
5.29469
-5.3309
-1.59579
-11.7515
8.35402
-9.94981
-15.2202
-6.45976
21.6799
-9.58082
-1.08213
9.36579
2.38063
-10.8772
-7.09255
10.743
1.42016
-12.0645
23.9708
-11.9063
-18.4413
8.5158
13.3209
16.2329
-17.8628
9.31884
8.54393
-4.54191
7.40917
1.40712
7.28245
-19.8862
13.8593
11.287
8.38475
-11.6246
2.0406
-17.8456
25.1597
-22.2776
-2.88215
12.8122
12.3475
13.577
13.3273
-7.80458
21.3816
-3.61787
-18.6597
21.4635
-13.0787
15.7806
-28.8593
-29.1079
10.4482
-17.9887
22.1008
-4.11213
-5.21306
-10.1443
23.2017
-2.01517
-21.1866
10.1541
-13.9271
-11.8275
25.7545
-20.5892
18.4567
-6.26619
-12.1905
-12.6978
-9.45185
12.5218
2.81986
-25.854
31.2192
-7.27649
7.80284
1.36069
7.82578
10.614
-15.9702
5.35625
9.97526
-16.2414
6.76599
-22.7362
-12.1675
24.1816
-12.0141
-17.5788
-15.8068
-1.77197
4.86212
26.3571
-16.3119
12.1051
4.20685
8.46197
1.89267
-8.56032
-1.22272
0.968426
16.0874
-17.0558
10.3788
10.501
11.7059
4.3815
10.7701
7.11297
-10.748
-0.972281
-14.7924
5.72225
-6.61789
-14.5734
20.2957
-16.2677
1.69434
-10.3032
-13.991
24.2942
-16.4494
11.4256
12.5452
18.4588
-19.615
5.624
-9.74656
-9.86844
10.6437
-17.2616
7.49774
12.7979
15.6083
2.48406
12.7576
11.424
-19.4092
1.12798
18.9515
-16.4722
3.90075
10.4723
-16.0058
0.198967
-10.5407
2.64519
-15.3452
-14.8123
16.5198
-21.0836
-12.3394
13.5383
2.75665
-13.8742
-0.452892
-4.96744
-3.04557
-5.20069
-3.28878
-5.56209
-11.0934
-1.92985
-9.16351
5.80062
-6.70946
-4.67398
7.03843
1.47822
-4.94514
4.83823
-5.59334
5.39416
-0.210186
13.0186
15.6556
7.47252
-8.47671
15.9492
-15.5957
23.6156
-29.7216
14.1259
15.9516
-23.1615
-13.7701
2.70469
2.14227
2.61962
13.4722
-14.4309
0.958734
-13.2971
17.6301
-4.33306
-19.6125
6.31542
-6.14032
5.18791
0.526816
5.1697
1.41681
6.84679
-8.2636
-4.27906
-4.33076
-9.16234
-13.8592
23.0215
4.73744
-13.1058
8.36841
-12.0647
16.8022
0.0798447
-13.1857
16.9873
-10.1405
17.5141
-11.9849
5.52926
12.792
22.348
-9.55603
16.2473
-6.70762
7.06642
-16.6225
-6.79273
-11.2888
18.1797
-13.0053
14.6997
-1.12392
15.8236
-13.7785
3.00294
-2.07258
8.42839
8.64348
16.8089
-12.4274
11.9706
-18.6782
-4.65189
-16.1941
-3.39621
1.02685
-13.8365
12.8096
12.0616
-11.0348
-3.24484
8.99538
-5.75054
5.6883
-2.85049
-2.8378
-1.8484
-3.07365
1.87094
0.630189
6.31848
0.48998
-3.34047
-2.00581
-1.90197
10.3785
8.53656
-3.83483
3.739
3.56822
-0.562662
0.959246
2.14637
4.59066
-3.63141
0.678758
3.9119
-2.265
3.82909
1.4656
-3.8509
-0.0651888
-3.40884
11.7629
3.13468
-5.34093
1.70952
2.37902
-13.8215
19.7434
-11.4193
-8.32407
22.1224
3.05912
-14.4785
16.262
-13.5801
8.10042
-14.3727
-6.37805
-19.9581
-12.9118
-10.7111
19.0795
-12.3104
20.1739
3.85929
-20.4542
24.3135
-12.7419
6.28215
-9.44629
10.9119
-4.06025
-5.38604
11.2686
10.4114
-11.0548
-0.696771
0.213808
8.42304
-8.20923
-1.52678
-7.52661
-16.4088
17.829
-8.25577
17.5746
7.69347
-7.63395
25.2086
6.56503
-14.199
-11.8763
-12.9584
-5.65505
10.5778
-1.7966
-7.21321
-13.9871
7.25371
0.0287421
-19.0342
22.0267
-2.99249
-12.049
-1.81027
14.6225
-18.0804
1.83891
-11.3144
10.7123
12.1194
12.1482
-20.878
-0.308577
-12.6613
3.17942
-15.8408
15.527
-6.81049
17.2587
-16.0493
11.3753
-14.5711
14.3765
-1.46425
14.7525
-9.39624
6.07257
-15.5244
-12.7046
14.4558
-8.35889
15.8165
-10.1191
25.9357
-17.3956
14.4064
11.5292
-2.72088
-8.19966
-13.969
11.2481
0.437434
8.26321
17.8371
-10.7241
16.8648
8.92408
-18.6706
-8.33754
-25.8597
7.18903
-13.3145
-7.35649
14.5455
11.1024
12.995
4.67708
-11.7723
17.7958
-19.5678
-5.78173
-9.03059
14.5818
-3.33372
10.1611
-19.1917
-5.18412
13.1139
-0.180536
-12.9334
3.12411
-15.4636
5.1195
-20.5831
15.9641
-16.417
1.77368
-7.91401
-3.17146
-3.28075
-2.17781
-3.41553
-7.58215
5.40434
-1.26673
3.57151
-12.5397
12.3592
-5.0904
10.4947
-4.0677
-1.13299
4.23975
1.15441
11.6491
3.03259
-16.8026
-9.26516
14.6354
-5.37029
1.11339
-10.8039
3.83158
8.09509
14.0274
-24.8234
1.6619
-15.1407
-4.0763
6.21858
4.91907
16.9807
2.54979
6.56111
-0.342534
9.1109
2.27709
2.2013
-11.2318
12.1905
1.57785
15.7038
-1.8832
7.41246
3.2865
3.30448
2.02642
5.72319
2.92029
8.72613
0.462523
-3.86824
2.06889
-3.97086
-1.27158
-4.00994
-0.318588
3.72717
-4.04576
10.5044
-1.96784
5.13411
-1.88575
-4.93727
6.82301
-9.35839
-5.49993
-1.58803
-5.61068
7.32021
6.15218
-5.73218
-3.62621
2.3941
-15.3059
11.9786
-12.6754
-2.26399
22.0495
-9.46487
1.25564
-3.18272
-6.27096
-7.66398
7.72917
24.1899
1.01861
12.2836
18.8476
11.755
1.03091
11.995
-16.1071
-10.7412
-16.4157
-0.888752
13.7337
5.6312
20.7259
17.1604
13.8267
-5.36495
-24.9327
20.7409
-8.55043
16.4079
-3.47446
-17.1086
14.6322
8.98342
-17.3888
0.971827
-16.1368
-24.6872
-0.339667
12.6989
-11.3095
10.1765
7.13092
2.03259
-2.42929
-0.851461
2.54673
-0.345429
8.76547
-0.187757
-8.20182
8.38958
-3.53941
2.26783
-0.432192
4.17119
6.39082
4.42299
-3.77883
-7.82459
-8.8225
-4.99898
-17.1466
2.47302
-8.6252
5.68652
-3.41869
2.84872
4.97088
10.105
-1.60091
-9.43385
7.35145
-4.50273
5.60227
)
;

boundaryField
{
    wall-4
    {
        type            calculated;
        value           uniform 0;
    }
    velocity-inlet-5
    {
        type            calculated;
        value           uniform -11.2529;
    }
    velocity-inlet-6
    {
        type            calculated;
        value           uniform -1.87548;
    }
    pressure-outlet-7
    {
        type            calculated;
        value           nonuniform List<scalar> 8(4.19457 4.98047 10.8155 12.0988 17.5689 15.1164 17.1362 15.614);
    }
    wall-8
    {
        type            calculated;
        value           uniform 0;
    }
    frontAndBackPlanes
    {
        type            empty;
        value           nonuniform List<scalar> 0();
    }
}


// ************************************************************************* //
