/*--------------------------------*- C++ -*----------------------------------*\
  =========                 |
  \\      /  F ield         | OpenFOAM: The Open Source CFD Toolbox
   \\    /   O peration     | Website:  https://openfoam.org
    \\  /    A nd           | Version:  9
     \\/     M anipulation  |
\*---------------------------------------------------------------------------*/
FoamFile
{
    format      ascii;
    class       volScalarField;
    location    "2.96";
    object      p;
}
// * * * * * * * * * * * * * * * * * * * * * * * * * * * * * * * * * * * * * //

dimensions      [1 -1 -2 0 0 0 0];

internalField   nonuniform List<scalar> 
2268
(
720.345
721.344
722.976
725.229
727.951
731.072
734.526
738.244
742.156
746.185
750.251
754.275
758.169
761.849
765.225
768.19
770.691
772.433
774.064
776.116
778.495
780.166
781.401
661.266
662.214
663.75
665.951
668.657
671.789
675.277
679.049
683.028
687.132
691.277
695.375
699.333
703.06
706.475
709.48
712.093
714.516
716.845
718.562
720.212
721.819
723.155
602.049
602.983
604.452
606.592
609.273
612.414
615.944
619.782
623.846
628.047
632.294
636.492
640.54
644.353
647.852
650.98
653.824
657.037
659.505
661.199
662.232
663.455
664.788
542.641
543.61
545.07
547.179
549.85
553.011
556.59
560.504
564.664
568.973
573.334
577.646
581.804
585.723
589.336
592.608
595.652
599.205
601.957
603.55
604.169
605.138
606.373
483.08
484.081
485.575
487.693
490.38
493.579
497.221
501.224
505.49
509.917
514.403
518.842
523.122
527.159
530.897
534.311
537.48
540.966
543.85
545.351
545.858
546.844
548.008
423.359
424.393
425.942
428.099
430.833
434.09
437.814
441.923
446.313
450.87
455.495
460.077
464.49
468.655
472.521
476.06
479.306
482.594
485.309
486.806
487.463
488.568
489.643
363.482
364.551
366.159
368.38
371.185
374.522
378.346
382.584
387.117
391.823
396.603
401.345
405.906
410.208
414.202
417.855
421.16
424.298
426.829
428.331
429.058
430.204
431.228
303.464
304.565
306.22
308.514
311.41
314.842
318.786
323.177
327.88
332.754
337.709
342.634
347.362
351.81
355.938
359.698
363.06
366.092
368.485
369.942
370.597
371.347
372.616
739.427
738.834
736.451
732.585
727.799
722.565
717.265
712.229
707.509
703.045
698.245
693.024
689.575
686.969
685.003
681.161
677.583
675.881
676.159
681.002
680.181
677.678
673.821
669.159
664.055
658.92
654.332
649.954
645.057
640.314
636.513
633.041
630.006
627.273
623.7
620.143
618.886
618.996
622.559
621.546
618.949
615.017
610.451
605.494
600.538
596.422
592.095
586.924
582.585
579.788
576.239
572.823
569.176
566.162
562.636
560.821
561.08
564.019
562.823
560.341
556.39
551.853
546.954
541.982
538.031
533.757
528.527
524.605
522.601
519.027
514.821
510.763
508.897
507.182
503.202
502.832
505.628
504.175
501.852
497.886
493.348
488.426
483.179
479.118
474.935
469.869
466.281
464.36
460.789
456.194
452.566
451.48
451.584
448.202
444.671
447.539
445.822
443.54
439.496
434.957
429.966
424.102
419.666
415.657
410.928
407.531
405.306
401.659
397.344
394.309
393.552
394.61
393.591
389.308
389.64
388.098
385.547
381.244
376.714
371.985
366.144
361.945
356.981
352.157
349.424
346.192
342.353
338.304
335.746
335.453
336.479
337.579
335.923
332.814
331.653
328.098
323.12
318.561
314.641
311.106
307.213
301.083
295.968
291.629
287.196
283.015
278.962
276.769
277.164
278.393
280.319
281.57
209.439
210.48
212.159
214.592
217.673
221.285
225.456
230.151
235.179
240.358
245.627
250.885
255.903
260.601
264.957
268.892
272.347
275.277
277.505
278.844
279.204
278.504
276.543
84.8634
85.8754
87.4138
89.8973
92.9206
96.3301
100.364
105.103
110.267
115.58
121.072
126.644
131.994
137.013
141.778
146.034
149.679
152.604
154.771
156.159
156.676
156.126
154.503
13.0906
13.6023
14.1461
15.0322
16.3443
18.0909
20.114
22.3682
24.9156
27.7977
30.734
33.7315
36.9017
39.9226
42.8496
45.5437
47.9702
49.8859
51.2727
52.1199
52.4027
52.0114
50.8659
0.445428
0.587906
0.484234
0.255512
0.259366
0.657413
0.990207
1.08157
1.1731
1.67403
1.93654
2.05526
2.41316
2.74291
3.05584
3.40412
3.76309
4.13924
4.52181
4.53822
4.058
3.66656
3.62414
0.177291
0.202623
0.188776
0.10694
0.101577
0.275929
0.48451
0.639833
0.719733
0.97226
1.1639
1.23929
1.23813
1.19932
1.14469
1.03364
0.772534
0.516543
0.502866
0.382973
-0.0278394
-0.276267
-0.0129958
-0.231412
-0.268677
-0.250636
-0.264804
-0.291807
-0.297105
-0.166819
-0.0722646
-0.0703908
-0.0937644
-0.0725186
-0.0429224
-0.0611101
-0.0484994
-0.0528096
-0.110604
-0.277655
-0.484487
-0.588391
-0.621828
-0.739559
-0.750614
-0.641145
-0.795135
-0.845606
-0.79676
-0.686149
-0.69332
-0.833835
-0.862049
-0.890166
-0.936597
-1.04984
-1.07379
-1.07509
-1.06449
-1.02479
-0.983569
-0.960562
-0.944433
-0.981235
-1.0603
-1.12064
-1.13754
-1.11148
-1.12509
-1.27539
-1.28222
-1.26198
-1.15644
-1.14812
-1.26641
-1.34283
-1.37528
-1.39096
-1.39304
-1.40112
-1.40961
-1.40563
-1.38352
-1.3489
-1.31276
-1.26731
-1.24378
-1.26437
-1.29996
-1.33093
-1.35959
-1.40914
-1.48609
-1.47807
-1.49314
-1.49055
-1.49164
-1.50351
-1.50691
-1.51526
-1.52315
-1.531
-1.5374
-1.54175
-1.54574
-1.55353
-1.5589
-1.55201
-1.53981
-1.51602
-1.49005
-1.4977
-1.51566
-1.53755
-1.55437
-1.61937
-1.61828
-1.62605
-1.63849
-1.64708
-1.64319
-1.64306
-1.64717
-1.65223
-1.65796
-1.66387
-1.66941
-1.67602
-1.68535
-1.69433
-1.70431
-1.71465
-1.71621
-1.70913
-1.69753
-1.68485
-1.68004
-1.68198
-1.75189
-1.75393
-1.75918
-1.76669
-1.77199
-1.77359
-1.77492
-1.77772
-1.78155
-1.78604
-1.79096
-1.79599
-1.80184
-1.80902
-1.81663
-1.82435
-1.83128
-1.8362
-1.8424
-1.84147
-1.82842
-1.8137
-1.80906
-1.88232
-1.88617
-1.89086
-1.89615
-1.90035
-1.90258
-1.90441
-1.90688
-1.91005
-1.91378
-1.91786
-1.92217
-1.92699
-1.93261
-1.93856
-1.94449
-1.94991
-1.95409
-1.95708
-1.95658
-1.95001
-1.94022
-1.93463
-2.01083
-2.01578
-2.02044
-2.02468
-2.02811
-2.03046
-2.03254
-2.03487
-2.03761
-2.04074
-2.04416
-2.04782
-2.05184
-2.0563
-2.0609
-2.06539
-2.0694
-2.07238
-2.07414
-2.0734
-2.06919
-2.06344
-2.05894
-2.13832
-2.14384
-2.14858
-2.15237
-2.15535
-2.1577
-2.15983
-2.16204
-2.16446
-2.16714
-2.17004
-2.17315
-2.17649
-2.18004
-2.18362
-2.187
-2.18988
-2.19193
-2.1929
-2.19217
-2.18948
-2.18575
-2.18232
-2.26553
-2.27117
-2.27591
-2.27948
-2.28222
-2.2845
-2.28658
-2.28865
-2.29082
-2.29316
-2.29564
-2.29827
-2.30102
-2.30385
-2.30663
-2.30916
-2.31123
-2.31261
-2.3131
-2.31242
-2.31052
-2.30789
-2.3052
-2.39288
-2.3983
-2.40284
-2.40618
-2.40877
-2.41095
-2.41293
-2.41486
-2.41683
-2.41887
-2.42101
-2.42322
-2.42548
-2.42773
-2.42987
-2.43176
-2.43324
-2.43415
-2.43435
-2.43372
-2.43229
-2.43031
-2.42814
-2.52049
-2.52545
-2.52963
-2.53273
-2.53512
-2.53715
-2.539
-2.54078
-2.54255
-2.54435
-2.54618
-2.54804
-2.54988
-2.55167
-2.55332
-2.55472
-2.55577
-2.55634
-2.55637
-2.55578
-2.55463
-2.55306
-2.55126
-2.64832
-2.65267
-2.65635
-2.65913
-2.6613
-2.66316
-2.66486
-2.66648
-2.66806
-2.66963
-2.6712
-2.67275
-2.67425
-2.67567
-2.67693
-2.67796
-2.67868
-2.67903
-2.67894
-2.67839
-2.67743
-2.67613
-2.67461
-2.77624
-2.77989
-2.78299
-2.7854
-2.78733
-2.789
-2.79053
-2.79198
-2.79337
-2.79474
-2.79607
-2.79737
-2.79859
-2.79971
-2.80067
-2.80142
-2.80192
-2.8021
-2.80194
-2.80143
-2.80059
-2.79949
-2.79819
-2.90408
-2.90701
-2.90951
-2.91153
-2.9132
-2.91467
-2.91602
-2.9173
-2.91852
-2.9197
-2.92083
-2.92191
-2.9229
-2.92378
-2.92452
-2.92507
-2.92539
-2.92547
-2.92526
-2.92479
-2.92406
-2.92311
-2.92198
-3.03169
-3.03395
-3.03585
-3.03748
-3.03889
-3.04016
-3.04134
-3.04246
-3.04352
-3.04453
-3.04549
-3.04638
-3.04719
-3.04789
-3.04845
-3.04885
-3.04906
-3.04906
-3.04884
-3.0484
-3.04776
-3.04693
-3.04596
-3.15896
-3.1606
-3.16195
-3.16322
-3.16439
-3.16548
-3.1665
-3.16746
-3.16838
-3.16925
-3.17006
-3.17081
-3.17147
-3.17203
-3.17246
-3.17276
-3.17289
-3.17285
-3.17262
-3.17222
-3.17165
-3.17094
-3.1701
-3.28581
-3.28693
-3.28779
-3.28875
-3.28971
-3.29062
-3.29149
-3.29233
-3.29312
-3.29387
-3.29456
-3.29519
-3.29573
-3.29619
-3.29653
-3.29675
-3.29684
-3.29678
-3.29656
-3.2962
-3.29571
-3.29508
-3.29436
-3.41218
-3.4129
-3.41337
-3.41409
-3.41485
-3.41561
-3.41636
-3.41708
-3.41776
-3.41841
-3.41901
-3.41954
-3.42
-3.42038
-3.42066
-3.42084
-3.42089
-3.42082
-3.42063
-3.42032
-3.41989
-3.41935
-3.41873
-3.53816
-3.53846
-3.53871
-3.53925
-3.53985
-3.54048
-3.54111
-3.54174
-3.54234
-3.5429
-3.54342
-3.54389
-3.54429
-3.54461
-3.54485
-3.54499
-3.54504
-3.54498
-3.54481
-3.54454
-3.54417
-3.54371
-3.54318
-3.66385
-3.6638
-3.66388
-3.66426
-3.66474
-3.66525
-3.66579
-3.66634
-3.66686
-3.66736
-3.66783
-3.66824
-3.66859
-3.66888
-3.66909
-3.66922
-3.66926
-3.66922
-3.66908
-3.66885
-3.66855
-3.66816
-3.66771
-3.78935
-3.78901
-3.78895
-3.78919
-3.78955
-3.78997
-3.79043
-3.79091
-3.79138
-3.79183
-3.79224
-3.79262
-3.79294
-3.7932
-3.7934
-3.79352
-3.79357
-3.79354
-3.79344
-3.79325
-3.793
-3.79268
-3.79231
-3.91472
-3.91418
-3.91397
-3.91408
-3.91434
-3.91469
-3.91508
-3.9155
-3.91591
-3.91632
-3.9167
-3.91704
-3.91734
-3.91758
-3.91777
-3.91789
-3.91795
-3.91794
-3.91787
-3.91773
-3.91753
-3.91727
-3.91696
-4.03999
-4.03935
-4.03903
-4.039
-4.03917
-4.03944
-4.03976
-4.04013
-4.0405
-4.04086
-4.04121
-4.04152
-4.0418
-4.04203
-4.04221
-4.04234
-4.04241
-4.04242
-4.04238
-4.04227
-4.04212
-4.04192
-4.04167
-4.16521
-4.16452
-4.1641
-4.16398
-4.16405
-4.16424
-4.16451
-4.16482
-4.16515
-4.16547
-4.16579
-4.16608
-4.16633
-4.16655
-4.16673
-4.16686
-4.16694
-4.16697
-4.16695
-4.16689
-4.16677
-4.16662
-4.16643
-4.29038
-4.28968
-4.2892
-4.28899
-4.28899
-4.28912
-4.28933
-4.28959
-4.28987
-4.29016
-4.29044
-4.29071
-4.29094
-4.29115
-4.29131
-4.29144
-4.29153
-4.29158
-4.29159
-4.29156
-4.29149
-4.29138
-4.29124
-4.41554
-4.41483
-4.41432
-4.41405
-4.414
-4.41408
-4.41423
-4.41445
-4.41469
-4.41493
-4.41518
-4.41541
-4.41563
-4.41581
-4.41597
-4.4161
-4.41619
-4.41626
-4.41629
-4.41629
-4.41625
-4.41618
-4.41609
-4.54068
-4.53997
-4.53944
-4.53915
-4.53906
-4.53909
-4.53921
-4.53938
-4.53958
-4.53979
-4.53999
-4.5402
-4.54038
-4.54055
-4.54069
-4.54081
-4.54091
-4.54098
-4.54104
-4.54106
-4.54106
-4.54103
-4.54097
-4.66581
-4.6651
-4.66457
-4.66427
-4.66416
-4.66417
-4.66425
-4.66438
-4.66454
-4.66471
-4.66488
-4.66505
-4.6652
-4.66534
-4.66546
-4.66557
-4.66567
-4.66575
-4.66583
-4.66588
-4.66591
-4.66592
-4.6659
-4.79093
-4.79022
-4.7897
-4.78941
-4.7893
-4.78929
-4.78935
-4.78944
-4.78956
-4.7897
-4.78983
-4.78996
-4.79007
-4.79018
-4.79028
-4.79037
-4.79046
-4.79056
-4.79065
-4.79074
-4.7908
-4.79084
-4.79086
-4.91603
-4.91531
-4.91481
-4.91456
-4.91446
-4.91445
-4.91449
-4.91456
-4.91465
-4.91474
-4.91484
-4.91492
-4.915
-4.91506
-4.91513
-4.91519
-4.91527
-4.91538
-4.91551
-4.91563
-4.91573
-4.9158
-4.91585
-5.0411
-5.04036
-5.0399
-5.03971
-5.03965
-5.03965
-5.03968
-5.03973
-5.03979
-5.03984
-5.03989
-5.03993
-5.03996
-5.03998
-5.04
-5.04002
-5.04009
-5.04021
-5.04039
-5.04055
-5.0407
-5.0408
-5.04087
-5.16615
-5.16534
-5.16494
-5.16486
-5.16487
-5.16489
-5.16491
-5.16494
-5.16497
-5.16499
-5.165
-5.16499
-5.16496
-5.16492
-5.16487
-5.16485
-5.16488
-5.16503
-5.16528
-5.16551
-5.1657
-5.16584
-5.16593
-5.29119
-5.29027
-5.28993
-5.29001
-5.29012
-5.29017
-5.2902
-5.29021
-5.29021
-5.2902
-5.29015
-5.29009
-5.29
-5.28989
-5.28977
-5.28966
-5.28962
-5.28983
-5.2902
-5.29052
-5.29076
-5.29092
-5.29103
-5.41628
-5.41528
-5.41502
-5.41528
-5.41549
-5.41556
-5.41557
-5.41555
-5.41551
-5.41544
-5.41534
-5.41521
-5.41505
-5.41486
-5.41467
-5.41446
-5.4142
-5.41451
-5.41517
-5.41563
-5.4159
-5.41607
-5.41617
-5.54135
-5.54059
-5.54073
-5.54108
-5.54125
-5.54122
-5.54113
-5.54101
-5.54086
-5.54069
-5.54048
-5.54023
-5.53994
-5.53964
-5.53936
-5.53903
-5.53801
-5.53853
-5.54011
-5.54086
-5.54115
-5.54129
-5.54137
-5.66557
-5.66951
-5.66867
-5.66797
-5.66751
-5.66713
-5.6668
-5.66653
-5.66627
-5.66599
-5.66569
-5.66533
-5.66491
-5.66437
-5.6636
-5.66232
-5.66091
-5.66151
-5.66487
-5.666
-5.66634
-5.66648
-5.66653
270.308
268.206
265.955
262.489
150.472
147.725
144.977
141.681
48.8994
47.4585
45.9483
44.3576
3.63476
3.52272
3.17839
2.72136
0.137019
0.156123
0.0358458
-0.118503
-0.570216
-0.569843
-0.635134
-0.661422
-1.14548
-1.14875
-1.13768
-1.1019
-1.40225
-1.39414
-1.39166
-1.39216
-1.55171
-1.54995
-1.55059
-1.55582
-1.67929
-1.67821
-1.67856
-1.68019
-1.80611
-1.80481
-1.80422
-1.80435
-1.93178
-1.93024
-1.92906
-1.92827
-2.05638
-2.05486
-2.05353
-2.0524
-2.1802
-2.17883
-2.17753
-2.17634
-2.30346
-2.30231
-2.30112
-2.29992
-2.42661
-2.42557
-2.42451
-2.42344
-2.54992
-2.54901
-2.54807
-2.54711
-2.67343
-2.67263
-2.67181
-2.67096
-2.79716
-2.79646
-2.79573
-2.79498
-2.92108
-2.92046
-2.91982
-2.91917
-3.04517
-3.04463
-3.04407
-3.04349
-3.16941
-3.16893
-3.16844
-3.16793
-3.29376
-3.29335
-3.29291
-3.29247
-3.41821
-3.41785
-3.41747
-3.41708
-3.54274
-3.54242
-3.5421
-3.54176
-3.66733
-3.66706
-3.66678
-3.6665
-3.79199
-3.79176
-3.79152
-3.79128
-3.91669
-3.9165
-3.9163
-3.9161
-4.04145
-4.04129
-4.04113
-4.04096
-4.16626
-4.16613
-4.16599
-4.16585
-4.2911
-4.291
-4.29089
-4.29078
-4.41599
-4.41591
-4.41582
-4.41573
-4.5409
-4.54085
-4.54078
-4.54072
-4.66586
-4.66582
-4.66577
-4.66572
-4.79084
-4.79082
-4.79079
-4.79076
-4.91585
-4.91584
-4.91583
-4.91581
-5.04089
-5.0409
-5.0409
-5.04089
-5.16597
-5.16598
-5.16599
-5.16599
-5.29108
-5.2911
-5.29111
-5.29111
-5.41622
-5.41624
-5.41625
-5.41626
-5.5414
-5.54141
-5.54142
-5.54142
-5.66656
-5.66657
-5.66657
-5.66657
250.58
245.084
239.466
234.959
231.026
227.386
224.737
219.82
213.594
207.381
200.949
195.564
191.449
188.361
186.337
185.67
186.945
188.807
190.138
134.766
129.574
124.872
121.471
117.695
113.737
110.679
106.773
102.166
96.8087
91.2661
86.7134
82.9921
79.7461
76.3396
72.9609
71.2964
70.9444
71.3016
41.7698
39.6391
37.5201
35.1893
32.3902
29.7748
28.0843
26.918
25.6056
23.6682
21.6147
19.9022
18.1912
16.2082
13.9644
11.8688
10.2238
9.10515
8.89012
2.08706
1.83071
1.56656
1.1815
0.653133
0.164073
-0.239643
-0.345285
-0.382662
-0.390103
-0.398322
-0.309278
-0.237008
-0.197244
-0.185105
-0.216769
-0.2851
-0.316164
-0.317331
-0.313615
-0.421858
-0.466826
-0.444242
-0.418346
-0.436352
-0.450375
-0.461167
-0.473339
-0.485169
-0.509981
-0.495658
-0.480588
-0.474582
-0.486828
-0.517386
-0.54567
-0.555969
-0.553711
-0.675595
-0.710397
-0.720611
-0.733417
-0.746245
-0.771893
-0.804616
-0.836166
-0.854049
-0.848895
-0.847177
-0.841094
-0.831565
-0.819577
-0.809365
-0.803821
-0.808019
-0.811796
-0.814562
-1.02289
-1.02527
-1.03651
-1.07332
-1.12034
-1.14701
-1.1636
-1.1763
-1.18353
-1.17827
-1.16938
-1.16857
-1.16102
-1.15135
-1.14401
-1.13546
-1.11782
-1.11624
-1.11904
-1.36402
-1.35354
-1.36266
-1.37739
-1.38938
-1.3874
-1.37846
-1.37213
-1.36667
-1.36455
-1.35591
-1.35237
-1.34945
-1.34468
-1.34002
-1.33779
-1.33745
-1.33845
-1.33784
-1.56176
-1.55646
-1.55514
-1.54681
-1.53328
-1.52378
-1.51629
-1.50793
-1.50031
-1.49508
-1.48868
-1.48461
-1.4806
-1.47634
-1.47275
-1.47034
-1.47116
-1.47266
-1.47337
-1.68465
-1.68076
-1.67612
-1.66922
-1.65995
-1.65131
-1.64345
-1.63614
-1.6298
-1.62488
-1.61987
-1.6156
-1.61266
-1.61062
-1.60841
-1.60545
-1.60398
-1.60396
-1.60454
-1.80491
-1.80183
-1.79787
-1.79216
-1.78489
-1.77777
-1.77111
-1.76515
-1.76018
-1.75617
-1.75235
-1.74922
-1.74766
-1.74682
-1.74435
-1.74031
-1.73582
-1.73368
-1.73453
-1.9273
-1.92434
-1.92057
-1.91565
-1.90987
-1.90426
-1.89932
-1.89474
-1.89057
-1.88698
-1.88405
-1.88286
-1.88187
-1.87974
-1.87572
-1.8704
-1.86587
-1.86352
-1.86396
-2.05067
-2.04755
-2.04394
-2.03968
-2.03498
-2.03045
-2.02656
-2.02287
-2.01919
-2.01577
-2.01332
-2.01217
-2.01092
-2.00852
-2.00475
-2.00047
-1.99738
-1.99578
-1.99559
-2.17436
-2.17117
-2.16778
-2.16405
-2.16009
-2.15624
-2.15274
-2.14944
-2.1463
-2.14351
-2.1414
-2.14003
-2.13878
-2.13712
-2.1349
-2.13259
-2.13125
-2.13034
-2.12933
-2.29793
-2.29499
-2.29189
-2.2886
-2.28519
-2.28186
-2.27874
-2.27584
-2.27316
-2.27084
-2.26904
-2.26777
-2.26676
-2.26583
-2.26516
-2.26492
-2.26396
-2.26317
-2.26221
-2.42162
-2.41896
-2.41618
-2.41328
-2.41032
-2.40743
-2.40469
-2.40216
-2.39987
-2.39791
-2.39637
-2.39526
-2.39446
-2.39395
-2.39392
-2.39432
-2.39333
-2.39262
-2.39154
-2.54548
-2.54311
-2.54063
-2.53808
-2.5355
-2.53299
-2.53061
-2.52842
-2.52644
-2.52476
-2.52343
-2.52246
-2.5218
-2.52143
-2.5214
-2.52151
-2.52082
-2.52078
-2.519
-2.66951
-2.6674
-2.66521
-2.66297
-2.66072
-2.65854
-2.65648
-2.65458
-2.65288
-2.65142
-2.65026
-2.64942
-2.64885
-2.64855
-2.6485
-2.64855
-2.64836
-2.64854
-2.64708
-2.7937
-2.79184
-2.78991
-2.78795
-2.78599
-2.78409
-2.7823
-2.78065
-2.77918
-2.77793
-2.77691
-2.77617
-2.77567
-2.7754
-2.77535
-2.77542
-2.77551
-2.77564
-2.7748
-2.91804
-2.9164
-2.91471
-2.91299
-2.91129
-2.90964
-2.90808
-2.90665
-2.90537
-2.90428
-2.9034
-2.90274
-2.90228
-2.90202
-2.90192
-2.90196
-2.90206
-2.90202
-2.90176
-3.0425
-3.04107
-3.03959
-3.03809
-3.0366
-3.03517
-3.03381
-3.03257
-3.03146
-3.03051
-3.02974
-3.02914
-3.0287
-3.02841
-3.02824
-3.02813
-3.02798
-3.02757
-3.02709
-3.16707
-3.16582
-3.16452
-3.16322
-3.16193
-3.16068
-3.15951
-3.15843
-3.15746
-3.15663
-3.15594
-3.15539
-3.15497
-3.15465
-3.15438
-3.15409
-3.15361
-3.15275
-3.1513
-3.29171
-3.29063
-3.28951
-3.28837
-3.28725
-3.28617
-3.28515
-3.28421
-3.28337
-3.28264
-3.28202
-3.28152
-3.28111
-3.28076
-3.28043
-3.28001
-3.27935
-3.27833
-3.27665
-3.41643
-3.41549
-3.41452
-3.41354
-3.41257
-3.41164
-3.41075
-3.40994
-3.4092
-3.40856
-3.40801
-3.40754
-3.40715
-3.4068
-3.40643
-3.40598
-3.40529
-3.40431
-3.40288
-3.5412
-3.54039
-3.53956
-3.53871
-3.53788
-3.53707
-3.53631
-3.5356
-3.53496
-3.5344
-3.5339
-3.53348
-3.5331
-3.53276
-3.53239
-3.53194
-3.5313
-3.53036
-3.52899
-3.66602
-3.66533
-3.66461
-3.66389
-3.66317
-3.66248
-3.66182
-3.66121
-3.66066
-3.66016
-3.65972
-3.65933
-3.65898
-3.65864
-3.65828
-3.65786
-3.65729
-3.65639
-3.65504
-3.79087
-3.79029
-3.78968
-3.78907
-3.78845
-3.78786
-3.7873
-3.78677
-3.78629
-3.78585
-3.78546
-3.7851
-3.78477
-3.78444
-3.78409
-3.78369
-3.78317
-3.78234
-3.78113
-3.91576
-3.91527
-3.91476
-3.91424
-3.91372
-3.91322
-3.91274
-3.91228
-3.91187
-3.91148
-3.91113
-3.9108
-3.91049
-3.91016
-3.9098
-3.90937
-3.90883
-3.90798
-3.90702
-4.04068
-4.04027
-4.03985
-4.03941
-4.03897
-4.03855
-4.03814
-4.03775
-4.0374
-4.03706
-4.03675
-4.03645
-4.03614
-4.0358
-4.0354
-4.03488
-4.03417
-4.03313
-4.03196
-4.16562
-4.16529
-4.16494
-4.16458
-4.16421
-4.16386
-4.16352
-4.16319
-4.16288
-4.1626
-4.16232
-4.16205
-4.16175
-4.1614
-4.16095
-4.16031
-4.15937
-4.15805
-4.15642
-4.2906
-4.29033
-4.29004
-4.28974
-4.28944
-4.28915
-4.28886
-4.28859
-4.28834
-4.2881
-4.28786
-4.28761
-4.28734
-4.28699
-4.28652
-4.28582
-4.28475
-4.28332
-4.28151
-4.41559
-4.41538
-4.41515
-4.41491
-4.41466
-4.41442
-4.41419
-4.41397
-4.41376
-4.41356
-4.41337
-4.41316
-4.41292
-4.4126
-4.41215
-4.41147
-4.41044
-4.40908
-4.40744
-4.54061
-4.54045
-4.54026
-4.54007
-4.53988
-4.53968
-4.53949
-4.53932
-4.53915
-4.539
-4.53885
-4.53869
-4.53849
-4.53823
-4.53784
-4.53725
-4.53633
-4.5351
-4.53359
-4.66565
-4.66553
-4.66539
-4.66523
-4.66508
-4.66493
-4.66478
-4.66464
-4.66452
-4.66441
-4.66431
-4.6642
-4.66406
-4.66387
-4.66357
-4.66309
-4.66231
-4.66116
-4.65968
-4.7907
-4.79062
-4.79051
-4.7904
-4.79028
-4.79016
-4.79005
-4.78995
-4.78986
-4.78979
-4.78973
-4.78968
-4.78961
-4.7895
-4.7893
-4.78894
-4.78831
-4.78723
-4.78577
-4.91578
-4.91572
-4.91565
-4.91556
-4.91547
-4.91538
-4.9153
-4.91523
-4.91517
-4.91514
-4.91513
-4.91513
-4.91513
-4.91511
-4.91502
-4.91479
-4.91428
-4.91322
-4.91174
-5.04087
-5.04084
-5.04079
-5.04072
-5.04065
-5.04059
-5.04053
-5.04048
-5.04046
-5.04046
-5.04048
-5.04054
-5.04061
-5.04069
-5.04072
-5.04062
-5.04021
-5.03915
-5.03753
-5.16599
-5.16597
-5.16593
-5.16589
-5.16584
-5.16579
-5.16575
-5.16572
-5.16571
-5.16573
-5.16579
-5.16589
-5.16604
-5.16622
-5.16639
-5.16644
-5.16616
-5.16513
-5.16345
-5.29112
-5.29111
-5.29108
-5.29105
-5.29102
-5.29098
-5.29095
-5.29094
-5.29094
-5.29097
-5.29105
-5.29118
-5.29139
-5.29167
-5.29202
-5.29224
-5.29216
-5.29126
-5.28975
-5.41626
-5.41626
-5.41624
-5.41622
-5.41619
-5.41617
-5.41614
-5.41613
-5.41614
-5.41617
-5.41624
-5.41638
-5.41661
-5.417
-5.41761
-5.4181
-5.41821
-5.41754
-5.41647
-5.54142
-5.54142
-5.5414
-5.54139
-5.54136
-5.54134
-5.54132
-5.54131
-5.54131
-5.54132
-5.54136
-5.54147
-5.54169
-5.54226
-5.54357
-5.54453
-5.54465
-5.54428
-5.54431
-5.66657
-5.66657
-5.66656
-5.66655
-5.66654
-5.66653
-5.66652
-5.6665
-5.66649
-5.66649
-5.66651
-5.66658
-5.66681
-5.66767
-5.67082
-5.67136
-5.67083
-5.67073
-5.67222
)
;

boundaryField
{
    leftWall
    {
        type            calculated;
        value           nonuniform List<scalar> 
50
(
720.345
661.266
602.049
542.641
483.08
423.359
363.482
303.464
209.439
84.8634
13.0906
0.445428
0.177291
-0.231412
-0.795135
-1.27539
-1.48609
-1.61937
-1.75189
-1.88232
-2.01083
-2.13832
-2.26553
-2.39288
-2.52049
-2.64832
-2.77624
-2.90408
-3.03169
-3.15896
-3.28581
-3.41218
-3.53816
-3.66385
-3.78935
-3.91472
-4.03999
-4.16521
-4.29038
-4.41554
-4.54068
-4.66581
-4.79093
-4.91603
-5.0411
-5.16615
-5.29119
-5.41628
-5.54135
-5.66557
)
;
    }
    rightWall
    {
        type            calculated;
        value           nonuniform List<scalar> 
50
(
676.159
618.996
561.08
502.832
444.671
389.308
335.923
281.57
190.138
71.3016
8.89012
-0.317331
-0.553711
-0.814562
-1.11904
-1.33784
-1.47337
-1.60454
-1.73453
-1.86396
-1.99559
-2.12933
-2.26221
-2.39154
-2.519
-2.64708
-2.7748
-2.90176
-3.02709
-3.1513
-3.27665
-3.40288
-3.52899
-3.65504
-3.78113
-3.90702
-4.03196
-4.15642
-4.28151
-4.40744
-4.53359
-4.65968
-4.78577
-4.91174
-5.03753
-5.16345
-5.28975
-5.41647
-5.54431
-5.67222
)
;
    }
    lowerWall
    {
        type            calculated;
        value           nonuniform List<scalar> 
62
(
749.775
750.773
752.405
754.658
757.38
760.502
763.955
767.674
771.585
775.614
779.681
783.704
787.598
791.278
794.654
797.619
800.12
801.714
802.883
805.281
807.853
809.433
810.62
781.401
723.155
664.788
606.373
548.008
489.643
431.228
372.616
332.905
330.804
328.552
325.087
739.427
681.002
622.559
564.019
505.628
447.539
389.64
332.814
768.55
767.957
765.575
761.756
756.984
751.759
746.635
741.534
736.646
732.276
727.434
721.45
717.832
715.225
713.26
709.418
705.932
704.139
704.417
)
;
    }
    atmosphere
    {
        type            calculated;
        value           nonuniform List<scalar> 
46
(
-5.72921
-5.7291
-5.72904
-5.72904
-5.72904
-5.72904
-5.72904
-5.72904
-5.72904
-5.72904
-5.72904
-5.72904
-5.72904
-5.72904
-5.72904
-5.72904
-5.72904
-5.72904
-5.72905
-5.72906
-5.72907
-5.72909
-5.7291
-5.72911
-5.72911
-5.72912
-5.72912
-5.72913
-5.72914
-5.72914
-5.72914
-5.72914
-5.72913
-5.72913
-5.72912
-5.72911
-5.7291
-5.72909
-5.72907
-5.72906
-5.72905
-5.72904
-5.72931
-5.7293
-5.72904
-5.74136
)
;
    }
    defaultFaces
    {
        type            empty;
    }
}


// ************************************************************************* //
