/*--------------------------------*- C++ -*----------------------------------*\
  =========                 |
  \\      /  F ield         | OpenFOAM: The Open Source CFD Toolbox
   \\    /   O peration     | Website:  https://openfoam.org
    \\  /    A nd           | Version:  9
     \\/     M anipulation  |
\*---------------------------------------------------------------------------*/
FoamFile
{
    format      ascii;
    class       surfaceScalarField;
    location    "2.96";
    object      phi;
}
// * * * * * * * * * * * * * * * * * * * * * * * * * * * * * * * * * * * * * //

dimensions      [0 3 -1 0 0 0 0];

internalField   nonuniform List<scalar> 
4432
(
-1.16015e-07
1.16014e-07
1.09683e-07
-2.25695e-07
4.72739e-07
-3.6306e-07
8.769e-07
-4.0416e-07
1.28699e-06
-4.10085e-07
1.67752e-06
-3.90531e-07
2.03103e-06
-3.53509e-07
2.3367e-06
-3.05666e-07
2.58667e-06
-2.49965e-07
2.77604e-06
-1.8937e-07
2.90574e-06
-1.29699e-07
2.98297e-06
-7.72301e-08
3.021e-06
-3.80349e-08
3.04118e-06
-2.01778e-08
3.07173e-06
-3.05508e-08
3.14025e-06
-6.8515e-08
3.21089e-06
-7.06455e-08
2.66322e-06
5.47672e-07
1.61136e-06
1.05185e-06
7.26091e-07
8.85256e-07
3.8364e-07
3.42442e-07
2.40964e-07
1.42669e-07
2.4096e-07
6.75344e-08
4.84745e-08
2.99934e-07
-4.58089e-07
6.34517e-07
-6.97644e-07
1.02093e-06
-7.90573e-07
1.42074e-06
-8.09893e-07
1.80647e-06
-7.76255e-07
2.1593e-06
-7.06332e-07
2.46689e-06
-6.1325e-07
2.72006e-06
-5.03141e-07
2.91262e-06
-3.81929e-07
3.04379e-06
-2.6088e-07
3.11853e-06
-1.51973e-07
3.14499e-06
-6.44925e-08
3.13368e-06
-8.87477e-09
3.09303e-06
1.01048e-08
3.01833e-06
6.18686e-09
2.85246e-06
9.52158e-08
2.45701e-06
9.43111e-07
1.90726e-06
1.60159e-06
1.24766e-06
1.54484e-06
7.22311e-07
8.67784e-07
3.66864e-07
4.98105e-07
6.07824e-07
1.81273e-07
-1.32803e-07
4.30837e-07
-7.07648e-07
7.47062e-07
-1.01387e-06
1.10857e-06
-1.15207e-06
1.48515e-06
-1.18648e-06
1.85119e-06
-1.14229e-06
2.18851e-06
-1.04365e-06
2.48489e-06
-9.09643e-07
2.73062e-06
-7.4888e-07
2.91838e-06
-5.69694e-07
3.0459e-06
-3.88412e-07
3.11587e-06
-2.21944e-07
3.13241e-06
-8.10369e-08
3.09943e-06
2.41095e-08
3.01491e-06
9.46294e-08
2.86057e-06
1.6053e-07
2.5934e-06
3.62385e-07
2.32132e-06
1.21519e-06
1.96518e-06
1.95773e-06
1.52916e-06
1.98087e-06
1.01542e-06
1.38152e-06
5.02724e-07
1.0108e-06
1.11055e-06
2.43127e-07
-3.75932e-07
5.18356e-07
-9.8287e-07
8.25622e-07
-1.32113e-06
1.16552e-06
-1.49197e-06
1.51856e-06
-1.53952e-06
1.86254e-06
-1.48629e-06
2.18115e-06
-1.36227e-06
2.4633e-06
-1.1918e-06
2.69917e-06
-9.84759e-07
2.8804e-06
-7.50938e-07
3.0035e-06
-5.11512e-07
3.06925e-06
-2.87704e-07
3.0787e-06
-9.04856e-08
3.03175e-06
7.10638e-08
2.92239e-06
2.03997e-07
2.73226e-06
3.50663e-07
2.44458e-06
6.5007e-07
2.22589e-06
1.43388e-06
2.01022e-06
2.17341e-06
1.71529e-06
2.2758e-06
1.23133e-06
1.86549e-06
6.45807e-07
1.59632e-06
1.75637e-06
2.76802e-07
-6.52732e-07
5.70959e-07
-1.27702e-06
8.71628e-07
-1.62179e-06
1.19264e-06
-1.81298e-06
1.52335e-06
-1.87023e-06
1.84507e-06
-1.80801e-06
2.14398e-06
-1.66118e-06
2.4109e-06
-1.45874e-06
2.63629e-06
-1.21015e-06
2.81079e-06
-9.25447e-07
2.92991e-06
-6.30637e-07
2.99319e-06
-3.50982e-07
2.9992e-06
-9.64933e-08
2.94601e-06
1.24255e-07
2.82778e-06
3.22231e-07
2.63278e-06
5.45668e-07
2.36993e-06
9.12919e-07
2.17643e-06
1.62739e-06
2.04325e-06
2.30659e-06
1.82465e-06
2.49441e-06
1.38667e-06
2.30347e-06
7.75781e-07
2.20722e-06
2.53215e-06
2.95113e-07
-9.47842e-07
5.94985e-07
-1.57689e-06
8.85381e-07
-1.91218e-06
1.18782e-06
-2.11542e-06
1.49705e-06
-2.17947e-06
1.79667e-06
-2.10763e-06
2.07556e-06
-1.94007e-06
2.32708e-06
-1.71026e-06
2.5422e-06
-1.42528e-06
2.71058e-06
-1.09382e-06
2.82702e-06
-7.47074e-07
2.89037e-06
-4.14331e-07
2.8973e-06
-1.03417e-07
2.84532e-06
1.76236e-07
2.73103e-06
4.36513e-07
2.55092e-06
7.25773e-07
2.32676e-06
1.13707e-06
2.1627e-06
1.79144e-06
2.06106e-06
2.40822e-06
1.88729e-06
2.66817e-06
1.51697e-06
2.67379e-06
9.12127e-07
2.81206e-06
3.44427e-06
3.04895e-07
-1.25273e-06
5.95292e-07
-1.86728e-06
8.68227e-07
-2.18511e-06
1.1502e-06
-2.39738e-06
1.43781e-06
-2.46708e-06
1.71521e-06
-2.38503e-06
1.97387e-06
-2.19873e-06
2.21012e-06
-1.94651e-06
2.41561e-06
-1.63076e-06
2.57891e-06
-1.25712e-06
2.69445e-06
-8.62608e-07
2.76086e-06
-4.80742e-07
2.77329e-06
-1.15846e-07
2.72919e-06
2.20334e-07
2.62834e-06
5.37363e-07
2.4737e-06
8.8041e-07
2.29074e-06
1.32002e-06
2.15669e-06
1.92549e-06
2.07405e-06
2.49085e-06
1.94371e-06
2.7985e-06
1.66063e-06
2.95686e-06
1.09081e-06
3.38186e-06
4.53507e-06
3.10611e-07
-1.56334e-06
5.77539e-07
-2.1342e-06
8.23569e-07
-2.43114e-06
1.08147e-06
-2.65528e-06
1.34638e-06
-2.73199e-06
1.60095e-06
-2.63959e-06
1.83901e-06
-2.43679e-06
2.06025e-06
-2.16776e-06
2.25692e-06
-1.82744e-06
2.41634e-06
-1.41654e-06
2.53289e-06
-9.7916e-07
2.60545e-06
-5.533e-07
2.62771e-06
-1.38102e-07
2.59709e-06
2.50955e-07
2.51641e-06
6.18047e-07
2.39263e-06
1.00419e-06
2.25024e-06
1.46241e-06
2.14636e-06
2.02937e-06
2.08653e-06
2.55067e-06
2.00784e-06
2.87719e-06
1.84265e-06
3.12205e-06
1.4628e-06
3.7617e-06
5.99787e-06
1.7143e-06
-1.7143e-06
3.57516e-06
-1.86087e-06
4.7524e-06
-1.17723e-06
5.32782e-06
-5.75423e-07
5.47474e-06
-1.46924e-07
5.23244e-06
2.42294e-07
4.3793e-06
8.5313e-07
2.7626e-06
1.61668e-06
1.10562e-06
1.65697e-06
4.96025e-07
6.096e-07
2.20931e-07
2.75101e-07
-8.55182e-07
1.07612e-06
-1.5338e-06
6.78622e-07
-8.02161e-07
-7.31638e-07
1.23526e-06
-2.03741e-06
2.88202e-06
-1.64675e-06
2.81222e-06
6.98066e-08
1.23204e-06
1.58019e-06
1.23204e-06
2.10469e-06
-3.81897e-06
3.23619e-06
-2.99241e-06
3.86794e-06
-1.80896e-06
4.16136e-06
-8.68848e-07
4.23267e-06
-2.18249e-07
4.03112e-06
4.43822e-07
3.27898e-06
1.60526e-06
2.08744e-06
2.80821e-06
9.65007e-07
2.7794e-06
2.83195e-07
1.29142e-06
-1.2976e-07
6.88061e-07
-6.1834e-07
1.5647e-06
-8.54328e-07
9.14618e-07
-4.09275e-07
-1.17669e-06
7.70816e-07
-3.2175e-06
1.95924e-06
-2.83517e-06
2.05675e-06
-2.76939e-08
1.19598e-06
2.44096e-06
2.42802e-06
1.94791e-06
-5.76686e-06
2.73673e-06
-3.78124e-06
3.13289e-06
-2.20512e-06
3.29735e-06
-1.0333e-06
3.32226e-06
-2.4316e-07
3.11931e-06
6.46762e-07
2.47136e-06
2.25321e-06
1.61709e-06
3.66248e-06
8.47169e-07
3.54932e-06
2.04942e-07
1.93365e-06
-1.94895e-07
1.0879e-06
-3.34257e-07
1.70407e-06
-3.94029e-07
9.74393e-07
-1.74037e-07
-1.39668e-06
3.24386e-07
-3.71591e-06
1.22078e-06
-3.73156e-06
1.62784e-06
-4.3476e-07
1.05357e-06
3.01524e-06
3.48159e-06
1.518e-06
-7.28484e-06
2.13605e-06
-4.39931e-06
2.44084e-06
-2.50989e-06
2.55089e-06
-1.14335e-06
2.56824e-06
-2.605e-07
2.42152e-06
7.93491e-07
1.91206e-06
2.76267e-06
1.32299e-06
4.25156e-06
7.95401e-07
4.07691e-06
2.37878e-07
2.49117e-06
-9.10019e-08
1.41678e-06
-4.14574e-08
1.65452e-06
4.5888e-09
9.28345e-07
-5.90834e-08
-1.33301e-06
-9.12444e-08
-3.68376e-06
4.5787e-07
-4.28068e-06
1.31053e-06
-1.28742e-06
1.14235e-06
3.18341e-06
4.62394e-06
1.00564e-06
-8.29047e-06
1.53296e-06
-4.92664e-06
1.79831e-06
-2.77523e-06
1.87727e-06
-1.22231e-06
1.90717e-06
-2.90397e-07
1.85282e-06
8.47852e-07
1.51093e-06
3.10457e-06
1.1431e-06
4.61939e-06
8.1273e-07
4.40728e-06
3.83959e-07
2.91993e-06
1.60307e-07
1.64043e-06
2.84031e-07
1.53079e-06
3.34585e-07
8.77788e-07
2.79049e-08
-1.02634e-06
-3.89087e-07
-3.26677e-06
-3.08819e-07
-4.36095e-06
7.11023e-07
-2.30727e-06
1.43869e-06
2.45574e-06
6.06263e-06
5.38156e-07
-8.82861e-06
1.01255e-06
-5.40104e-06
1.23073e-06
-2.99341e-06
1.2709e-06
-1.26248e-06
1.3092e-06
-3.28706e-07
1.36451e-06
7.9255e-07
1.21318e-06
3.2559e-06
1.06004e-06
4.77252e-06
9.15031e-07
4.55229e-06
6.40127e-07
3.19483e-06
5.14221e-07
1.76633e-06
6.54725e-07
1.39029e-06
6.36688e-07
8.95827e-07
1.81852e-07
-5.71501e-07
-4.96791e-07
-2.58812e-06
-8.69269e-07
-3.98848e-06
-2.47029e-07
-2.92951e-06
1.21911e-06
9.89605e-07
7.28174e-06
2.66603e-07
-9.09521e-06
6.33005e-07
-5.76746e-06
7.59448e-07
-3.11986e-06
7.3626e-07
-1.2393e-06
7.51116e-07
-3.43568e-07
8.98079e-07
6.45582e-07
9.55526e-07
3.19845e-06
1.09592e-06
4.63213e-06
1.11698e-06
4.53122e-06
9.73879e-07
3.33793e-06
9.78544e-07
1.76167e-06
1.06073e-06
1.3081e-06
9.58814e-07
9.9775e-07
4.15146e-07
-2.78325e-08
-4.19349e-07
-1.75363e-06
-1.09421e-06
-3.31361e-06
-1.12843e-06
-2.89529e-06
-2.91547e-08
-1.09668e-07
7.25258e-06
4.91374e-07
-9.58658e-06
4.35624e-07
-5.71171e-06
3.91339e-07
-3.07556e-06
2.82816e-07
-1.13077e-06
2.53673e-07
-3.14418e-07
4.09519e-07
4.89738e-07
7.28651e-07
2.87932e-06
1.167e-06
4.19378e-06
1.36108e-06
4.33713e-06
1.42064e-06
3.27837e-06
1.46618e-06
1.71612e-06
1.47414e-06
1.30014e-06
1.31672e-06
1.15516e-06
7.4489e-07
5.43997e-07
-1.52018e-07
-8.56721e-07
-1.02132e-06
-2.44431e-06
-1.62087e-06
-2.29574e-06
-1.53654e-06
-1.94009e-07
5.71604e-06
6.90428e-07
-2.25376e-06
1.12883e-06
-2.5726e-06
1.52622e-06
-2.82851e-06
1.98175e-06
-3.1108e-06
2.4671e-06
-3.21732e-06
2.92911e-06
-3.10159e-06
3.36435e-06
-2.87203e-06
3.78699e-06
-2.59039e-06
4.1809e-06
-2.22134e-06
4.51065e-06
-1.74629e-06
4.76598e-06
-1.2345e-06
4.95267e-06
-7.39989e-07
5.04335e-06
-2.28789e-07
5.03658e-06
2.57717e-07
4.94711e-06
7.07506e-07
4.79486e-06
1.15643e-06
4.62224e-06
1.63503e-06
4.50446e-06
2.14715e-06
4.467e-06
2.58812e-06
4.49165e-06
2.85254e-06
4.64667e-06
2.96703e-06
5.33741e-06
3.07096e-06
3.21532e-06
8.11996e-06
5.91276e-07
-2.84503e-06
8.27767e-07
-2.80909e-06
1.07363e-06
-3.07437e-06
1.39507e-06
-3.43224e-06
1.75034e-06
-3.5726e-06
2.10451e-06
-3.45576e-06
2.46237e-06
-3.22989e-06
2.82895e-06
-2.95697e-06
3.19198e-06
-2.58436e-06
3.51862e-06
-2.07293e-06
3.80592e-06
-1.5218e-06
4.04743e-06
-9.81486e-07
4.20695e-06
-3.88307e-07
4.29372e-06
1.70953e-07
4.33033e-06
6.70901e-07
4.32559e-06
1.16117e-06
4.3161e-06
1.64452e-06
4.33221e-06
2.13104e-06
4.39371e-06
2.52662e-06
4.51401e-06
2.73225e-06
4.77214e-06
2.70889e-06
5.29172e-06
2.55135e-06
2.20457e-06
6.3024e-06
-9.38588e-08
-2.75115e-06
3.60077e-07
-3.26299e-06
6.70517e-07
-3.38472e-06
5.44438e-07
-3.30609e-06
4.6044e-07
-3.48853e-06
7.58564e-07
-3.75382e-06
1.24004e-06
-3.71132e-06
1.61705e-06
-3.33394e-06
1.91406e-06
-2.88136e-06
2.34617e-06
-2.50504e-06
2.77111e-06
-1.94675e-06
3.07833e-06
-1.28874e-06
3.37057e-06
-6.80581e-07
3.58576e-06
-4.42661e-08
3.75139e-06
5.05239e-07
3.86455e-06
1.04799e-06
3.99662e-06
1.51243e-06
4.16708e-06
1.96057e-06
4.40881e-06
2.28487e-06
4.66281e-06
2.47825e-06
4.90683e-06
2.46486e-06
5.24821e-06
2.20997e-06
1.6872e-06
5.76556e-06
-5.05351e-06
2.30236e-06
2.02878e-06
-1.03465e-05
3.25482e-06
-4.61073e-06
6.60833e-07
-7.12149e-07
-1.92472e-06
-9.03082e-07
-1.22805e-06
-4.45058e-06
4.04114e-07
-5.34355e-06
8.24259e-07
-3.75413e-06
4.22498e-08
-2.09935e-06
1.09183e-06
-3.55462e-06
1.96985e-06
-2.82475e-06
1.99791e-06
-1.31678e-06
2.51023e-06
-1.19289e-06
2.90397e-06
-4.37982e-07
3.1918e-06
2.17445e-07
3.48015e-06
7.59662e-07
3.69724e-06
1.29537e-06
3.98988e-06
1.66795e-06
4.78152e-06
1.49325e-06
5.66451e-06
1.59528e-06
5.74352e-06
2.38586e-06
5.56317e-06
2.39031e-06
1.16813e-06
6.08221e-06
-2.26219e-06
4.56555e-06
8.30485e-06
-2.0914e-05
1.22135e-05
-8.51954e-06
-1.06278e-06
1.25642e-05
-1.46463e-05
1.26804e-05
-1.25233e-05
-6.57356e-06
-7.11027e-06
-1.07565e-05
-3.7443e-06
-7.12001e-06
-4.02975e-06
-1.81382e-06
-4.47773e-07
-7.13658e-06
2.70675e-06
-5.97924e-06
4.80767e-06
-3.41768e-06
6.14149e-06
-2.52671e-06
7.0909e-06
-1.38738e-06
8.47058e-06
-1.16226e-06
1.01009e-05
-8.70681e-07
9.60102e-06
1.79522e-06
8.05348e-06
3.21549e-06
9.12664e-06
4.20085e-07
1.12889e-05
-5.6699e-07
9.71618e-06
3.95852e-06
3.37571e-06
8.73087e-06
5.78754e-10
4.54321e-06
6.78876e-06
-2.2231e-06
4.45895e-06
-1.85843e-05
6.58192e-06
-1.06426e-05
4.67358e-06
1.44724e-05
8.13097e-07
1.65409e-05
-4.37278e-07
-5.32319e-06
1.10369e-06
-1.22975e-05
3.40709e-06
-9.42339e-06
5.0574e-06
-3.46409e-06
4.42539e-06
-6.50456e-06
4.81296e-06
-6.36683e-06
6.04564e-06
-4.65036e-06
6.87109e-06
-3.35216e-06
8.44777e-06
-2.96404e-06
1.0637e-05
-3.35151e-06
1.34679e-05
-3.70148e-06
1.59364e-05
-6.73305e-07
1.48941e-05
4.25784e-06
1.39465e-05
1.36766e-06
1.42929e-05
-9.13292e-07
1.10774e-05
7.174e-06
3.98509e-06
1.58232e-05
-1.21571e-06
5.20132e-06
5.38397e-06
-7.60706e-06
-1.55226e-06
-1.1648e-05
-2.26654e-06
-9.92831e-06
7.11711e-06
5.08876e-06
1.58561e-05
7.80191e-06
1.2229e-05
-1.69609e-06
9.90779e-06
-9.97631e-06
9.06189e-06
-8.57751e-06
9.98707e-06
-4.38932e-06
7.15729e-06
-3.67484e-06
5.46357e-06
-4.67316e-06
4.86363e-06
-4.05049e-06
4.64166e-06
-3.13029e-06
5.45238e-06
-3.77486e-06
7.10375e-06
-5.00297e-06
8.83538e-06
-5.43318e-06
1.26642e-05
-4.50227e-06
1.7418e-05
-4.96132e-07
1.72911e-05
1.49446e-06
1.36589e-05
2.71885e-06
9.94542e-06
1.08874e-05
1.08116e-05
1.4957e-05
7.05387e-07
8.89044e-06
4.14256e-06
-1.17496e-05
-1.98147e-06
-5.52389e-06
-1.92363e-06
-9.98607e-06
7.54329e-06
-4.37811e-06
1.76689e-05
-2.32364e-06
1.9217e-05
-3.24422e-06
1.40373e-05
-4.79661e-06
9.95069e-06
-4.49082e-06
8.28347e-06
-2.7221e-06
7.18214e-06
-2.57351e-06
5.15584e-06
-2.64685e-06
2.98224e-06
-1.87689e-06
1.30281e-06
-1.45086e-06
9.64983e-07
-3.43702e-06
1.45905e-06
-5.49702e-06
2.26686e-06
-6.24098e-06
4.72578e-06
-6.96126e-06
9.16456e-06
-4.93498e-06
1.2819e-05
-2.15983e-06
1.43694e-05
1.16876e-06
1.49845e-05
1.02724e-05
1.63456e-05
1.35961e-05
6.44384e-06
1.06071e-05
2.33146e-06
-1.40812e-05
3.89769e-06
-7.08987e-06
2.32252e-06
-8.41083e-06
6.53628e-06
-8.5918e-06
1.16091e-05
-7.39643e-06
1.21833e-05
-3.81832e-06
1.00612e-05
-2.67447e-06
7.44722e-06
-1.87683e-06
5.80676e-06
-1.08157e-06
4.1422e-06
-9.08907e-07
2.36074e-06
-8.65313e-07
1.01627e-06
-5.32353e-07
4.19263e-07
-8.53761e-07
-2.06556e-07
-2.8111e-06
-1.11046e-06
-4.593e-06
-1.15623e-06
-6.1951e-06
-5.07724e-07
-7.60976e-06
1.10535e-06
-6.54812e-06
4.04753e-06
-5.10193e-06
6.58273e-06
-1.3661e-06
9.99093e-06
6.86447e-06
1.09116e-05
1.26755e-05
1.01495e-05
7.20598e-06
1.63134e-06
-1.57125e-05
4.03575e-06
-9.49395e-06
4.35532e-06
-8.73024e-06
4.17223e-06
-8.40858e-06
3.61134e-06
-6.83543e-06
3.66107e-06
-3.868e-06
2.85129e-06
-1.86468e-06
1.67667e-06
-7.02197e-07
6.34808e-07
-3.96878e-08
-4.14612e-07
1.40559e-07
-1.39585e-06
1.16011e-07
-1.90415e-06
-2.39574e-08
-1.97541e-06
-7.82402e-07
-2.31938e-06
-2.46701e-06
-2.63835e-06
-4.27392e-06
-2.96966e-06
-5.86371e-06
-3.76517e-06
-6.81426e-06
-4.09705e-06
-6.21638e-06
-3.66577e-06
-5.53329e-06
-2.70676e-06
-2.32509e-06
-3.55152e-07
4.5129e-06
1.66031e-06
1.06601e-05
1.06109e-05
1.19905e-06
-3.13777e-07
-1.53986e-05
3.7662e-07
-1.0184e-05
-4.59057e-08
-8.30749e-06
-1.19787e-06
-7.25648e-06
-2.46248e-06
-5.57074e-06
-3.14475e-06
-3.18575e-06
-3.68323e-06
-1.32623e-06
-4.2547e-06
-1.30758e-07
-4.80427e-06
5.09856e-07
-5.33627e-06
6.72527e-07
-5.75104e-06
5.30798e-07
-5.875e-06
1.00059e-07
-5.82752e-06
-8.29815e-07
-5.96767e-06
-2.32675e-06
-6.32326e-06
-3.91822e-06
-6.93336e-06
-5.25352e-06
-7.76841e-06
-5.9792e-06
-8.27437e-06
-5.71054e-06
-9.22704e-06
-4.58073e-06
-9.8375e-06
-1.71469e-06
-8.64029e-06
3.31562e-06
-6.02521e-06
8.04504e-06
9.27606e-06
-4.69031e-06
-2.20581e-06
-1.31926e-05
-3.20314e-06
-9.18639e-06
-4.38824e-06
-7.12214e-06
-5.93652e-06
-5.70803e-06
-7.38879e-06
-4.11837e-06
-8.29752e-06
-2.27696e-06
-8.85764e-06
-7.66085e-07
-9.24974e-06
2.61363e-07
-9.53761e-06
7.97746e-07
-9.75718e-06
8.9211e-07
-9.86312e-06
6.36753e-07
-9.81566e-06
5.26242e-08
-9.72285e-06
-9.22574e-07
-9.81818e-06
-2.23135e-06
-1.01701e-05
-3.56625e-06
-1.0793e-05
-4.63044e-06
-1.16345e-05
-5.13754e-06
-1.25277e-05
-4.81727e-06
-1.34925e-05
-3.61591e-06
-1.40609e-05
-1.1464e-06
-1.32795e-05
2.5342e-06
-1.11292e-05
5.8946e-06
7.40018e-06
-9.25335e-06
-3.56802e-06
-9.62431e-06
-5.80265e-06
-6.95147e-06
-7.66944e-06
-5.25513e-06
-9.43837e-06
-3.93893e-06
-1.09408e-05
-2.61583e-06
-1.19584e-05
-1.25921e-06
-1.25876e-05
-1.36743e-07
-1.29511e-05
6.24876e-07
-1.31393e-05
9.86037e-07
-1.32093e-05
9.62161e-07
-1.31757e-05
6.0324e-07
-1.30633e-05
-5.97873e-08
-1.29776e-05
-1.00823e-06
-1.3067e-05
-2.14186e-06
-1.33952e-05
-3.23797e-06
-1.39666e-05
-4.05887e-06
-1.47252e-05
-4.37883e-06
-1.55308e-05
-4.01155e-06
-1.62646e-05
-2.8819e-06
-1.65332e-05
-8.77737e-07
-1.57739e-05
1.77491e-06
-1.40947e-05
4.21535e-06
5.60785e-06
-1.23023e-05
-4.31837e-06
-5.30574e-06
-7.30603e-06
-3.96352e-06
-9.64292e-06
-2.91805e-06
-1.1591e-05
-1.99068e-06
-1.31418e-05
-1.06496e-06
-1.42335e-05
-1.67327e-07
-1.49286e-05
5.58455e-07
-1.53194e-05
1.0157e-06
-1.54923e-05
1.15904e-06
-1.5517e-05
9.87013e-07
-1.54437e-05
5.30018e-07
-1.533e-05
-1.73528e-07
-1.52677e-05
-1.07052e-06
-1.53554e-05
-2.05406e-06
-1.56396e-05
-2.95371e-06
-1.61124e-05
-3.58597e-06
-1.67082e-05
-3.7829e-06
-1.72993e-05
-3.42031e-06
-1.77299e-05
-2.4512e-06
-1.77187e-05
-8.88898e-07
-1.6987e-05
1.04323e-06
-1.56131e-05
2.84148e-06
4.04005e-06
-1.40453e-05
-4.57409e-06
-7.3148e-07
-7.91146e-06
-6.25904e-07
-1.04998e-05
-3.29526e-07
-1.25591e-05
6.86956e-08
-1.415e-05
5.26062e-07
-1.52889e-05
9.71599e-07
-1.60345e-05
1.30412e-06
-1.64651e-05
1.44635e-06
-1.66612e-05
1.35529e-06
-1.66973e-05
1.02318e-06
-1.66387e-05
4.71466e-07
-1.65528e-05
-2.59368e-07
-1.65163e-05
-1.10699e-06
-1.65969e-05
-1.97351e-06
-1.68232e-05
-2.72733e-06
-1.7178e-05
-3.23114e-06
-1.75955e-05
-3.36541e-06
-1.79645e-05
-3.05126e-06
-1.81438e-05
-2.27181e-06
-1.79517e-05
-1.08099e-06
-1.72499e-05
3.41454e-07
-1.60993e-05
1.69078e-06
2.69866e-06
-1.47579e-05
-4.47061e-06
3.73928e-06
-7.86013e-06
2.76377e-06
-1.05106e-05
2.32104e-06
-1.25909e-05
2.14911e-06
-1.41847e-05
2.11997e-06
-1.53376e-05
2.12455e-06
-1.61105e-05
2.07706e-06
-1.65749e-05
1.91082e-06
-1.68059e-05
1.58641e-06
-1.68766e-05
1.09389e-06
-1.68549e-05
4.49804e-07
-1.68063e-05
-3.0789e-07
-1.67932e-05
-1.12013e-06
-1.68625e-05
-1.90427e-06
-1.70297e-05
-2.56008e-06
-1.72735e-05
-2.98745e-06
-1.75347e-05
-3.10426e-06
-1.77228e-05
-2.8632e-06
-1.77285e-05
-2.2661e-06
-1.74373e-05
-1.37226e-06
-1.67807e-05
-3.15142e-07
-1.58061e-05
7.1611e-07
1.55991e-06
-1.46674e-05
-4.129e-06
7.86839e-06
-7.35981e-06
5.99467e-06
-9.91985e-06
4.88114e-06
-1.19343e-05
4.16364e-06
-1.34772e-05
3.66293e-06
-1.46048e-05
3.25222e-06
-1.53771e-05
2.8494e-06
-1.58597e-05
2.39355e-06
-1.61215e-05
1.84825e-06
-1.62301e-05
1.20257e-06
-1.62493e-05
4.69069e-07
-1.62375e-05
-3.19708e-07
-1.62442e-05
-1.11342e-06
-1.63024e-05
-1.84615e-06
-1.64193e-05
-2.4432e-06
-1.65735e-05
-2.8334e-06
-1.67158e-05
-2.96203e-06
-1.67765e-05
-2.80259e-06
-1.66768e-05
-2.36582e-06
-1.63451e-05
-1.70402e-06
-1.57475e-05
-9.12826e-07
-1.49181e-05
-1.13315e-07
5.92701e-07
-1.39509e-05
-3.63798e-06
1.15064e-05
-6.56826e-06
8.92497e-06
-8.92657e-06
7.23948e-06
-1.07964e-05
6.03352e-06
-1.22359e-05
5.10251e-06
-1.32999e-05
4.31627e-06
-1.40433e-05
3.59289e-06
-1.45249e-05
2.87518e-06
-1.48055e-05
2.12898e-06
-1.49454e-05
1.34253e-06
-1.50007e-05
5.24382e-07
-1.50207e-05
-2.99667e-07
-1.50444e-05
-1.08971e-06
-1.5095e-05
-1.79558e-06
-1.51752e-05
-2.36308e-06
-1.52657e-05
-2.74295e-06
-1.53279e-05
-2.89992e-06
-1.53099e-05
-2.82064e-06
-1.51568e-05
-2.51896e-06
-1.48236e-05
-2.03731e-06
-1.42927e-05
-1.44371e-06
-1.3588e-05
-8.18044e-07
-2.27688e-07
-1.27676e-05
-3.06823e-06
1.45747e-05
-5.60558e-06
1.14623e-05
-7.68077e-06
9.31466e-06
-9.34377e-06
7.69655e-06
-1.06365e-05
6.39531e-06
-1.16043e-05
5.28415e-06
-1.22939e-05
4.28251e-06
-1.27553e-05
3.33666e-06
-1.30406e-05
2.41442e-06
-1.32012e-05
1.50318e-06
-1.32843e-05
6.07515e-07
-1.33301e-05
-2.53734e-07
-1.33689e-05
-1.05088e-06
-1.34171e-05
-1.74741e-06
-1.34749e-05
-2.30534e-06
-1.35262e-05
-2.69165e-06
-1.35415e-05
-2.88461e-06
-1.34832e-05
-2.87899e-06
-1.33133e-05
-2.6889e-06
-1.30029e-05
-2.34773e-06
-1.25424e-05
-1.90419e-06
-1.19476e-05
-1.4128e-06
-9.20221e-07
-1.1255e-05
-2.46343e-06
1.70381e-05
-4.55475e-06
1.35535e-05
-6.29295e-06
1.10528e-05
-7.70635e-06
9.10994e-06
-8.82112e-06
7.51011e-06
-9.66849e-06
6.13156e-06
-1.02845e-05
4.89863e-06
-1.07097e-05
3.76186e-06
-1.09865e-05
2.69129e-06
-1.11569e-05
1.67366e-06
-1.12592e-05
7.09945e-07
-1.13254e-05
-1.87485e-07
-1.13782e-05
-9.98008e-07
-1.14292e-05
-1.69642e-06
-1.14773e-05
-2.25722e-06
-1.15096e-05
-2.65931e-06
-1.15039e-05
-2.89031e-06
-1.14329e-05
-2.94993e-06
-1.12704e-05
-2.85142e-06
-1.09972e-05
-2.62088e-06
-1.06075e-05
-2.29388e-06
-1.01114e-05
-1.90895e-06
-1.49984e-06
-9.53169e-06
-1.84551e-06
1.88835e-05
-3.46678e-06
1.51747e-05
-4.84154e-06
1.24276e-05
-5.98307e-06
1.02515e-05
-6.90168e-06
8.42873e-06
-7.61365e-06
6.84356e-06
-8.14308e-06
5.4281e-06
-8.52008e-06
4.13892e-06
-8.77768e-06
2.94895e-06
-8.94873e-06
1.84478e-06
-9.06306e-06
8.24336e-07
-9.14498e-06
-1.05506e-07
-9.21121e-06
-9.31714e-07
-9.26951e-06
-1.63807e-06
-9.31813e-06
-2.20856e-06
-9.34671e-06
-2.63069e-06
-9.33847e-06
-2.89852e-06
-9.27364e-06
-3.01472e-06
-9.13363e-06
-2.99139e-06
-8.90533e-06
-2.84915e-06
-8.58457e-06
-2.61461e-06
-8.17746e-06
-2.31603e-06
-1.97882e-06
-7.69843e-06
-1.21663e-06
2.01001e-05
-2.37178e-06
1.63298e-05
-3.38069e-06
1.34364e-05
-4.2465e-06
1.11172e-05
-4.96515e-06
9.14737e-06
-5.53622e-06
7.41464e-06
-5.97246e-06
5.86436e-06
-6.29414e-06
4.46062e-06
-6.5252e-06
3.18005e-06
-6.69002e-06
2.00964e-06
-6.81067e-06
9.45031e-07
-6.9048e-06
-1.13134e-08
-6.98404e-06
-8.5242e-07
-7.0531e-06
-1.56897e-06
-7.10962e-06
-2.15199e-06
-7.14511e-06
-2.59515e-06
-7.14672e-06
-2.89686e-06
-7.09981e-06
-3.06159e-06
-6.9909e-06
-3.10025e-06
-6.81053e-06
-3.02949e-06
-6.55534e-06
-2.86978e-06
-6.22875e-06
-2.6426e-06
-2.36782e-06
-5.83972e-06
-5.53197e-07
2.06533e-05
-1.27583e-06
1.70524e-05
-1.94873e-06
1.41093e-05
-2.55479e-06
1.17233e-05
-3.08073e-06
9.6733e-06
-3.51332e-06
7.84724e-06
-3.85538e-06
6.20642e-06
-4.11859e-06
4.72385e-06
-4.3188e-06
3.38028e-06
-4.47274e-06
2.16361e-06
-4.59562e-06
1.06794e-06
-4.69927e-06
9.2374e-08
-4.79099e-06
-7.60649e-07
-4.87291e-06
-1.48701e-06
-4.94205e-06
-2.0828e-06
-4.99117e-06
-2.546e-06
-5.01012e-06
-2.87788e-06
-4.98772e-06
-3.08395e-06
-4.91387e-06
-3.17407e-06
-4.78137e-06
-3.16197e-06
-4.58725e-06
-3.06388e-06
-4.33314e-06
-2.89672e-06
-2.67648e-06
-4.02447e-06
1.6119e-07
2.0492e-05
-1.83489e-07
1.73971e-05
-5.77928e-07
1.45038e-05
-9.57661e-07
1.2103e-05
-1.30605e-06
1.00217e-05
-1.60766e-06
8.14887e-06
-1.85833e-06
6.4571e-06
-2.06288e-06
4.92841e-06
-2.23016e-06
3.54758e-06
-2.37024e-06
2.30371e-06
-2.4923e-06
1.19003e-06
-2.60317e-06
2.03274e-07
-2.7064e-06
-6.57384e-07
-2.80188e-06
-1.3915e-06
-2.88598e-06
-1.99867e-06
-2.95217e-06
-2.47977e-06
-2.99211e-06
-2.83791e-06
-2.99697e-06
-3.07906e-06
-2.95884e-06
-3.21218e-06
-2.87197e-06
-3.24883e-06
-2.73363e-06
-3.20223e-06
-2.54421e-06
-3.08615e-06
-2.91382e-06
-2.30687e-06
8.51676e-07
1.96404e-05
8.21508e-07
1.74273e-05
6.81408e-07
1.46439e-05
4.98099e-07
1.22864e-05
3.08889e-07
1.02109e-05
1.29005e-07
8.32876e-06
-3.48129e-08
6.62093e-06
-1.81949e-07
5.07556e-06
-3.15417e-07
3.68106e-06
-4.39489e-07
2.4278e-06
-5.5811e-07
1.30868e-06
-6.73762e-07
3.18955e-07
-7.86778e-07
-5.4434e-07
-8.95081e-07
-1.28317e-06
-9.94318e-07
-1.89942e-06
-1.07835e-06
-2.39573e-06
-1.14e-06
-2.77625e-06
-1.17199e-06
-3.04705e-06
-1.1679e-06
-3.21626e-06
-1.12294e-06
-3.29379e-06
-1.03448e-06
-3.29071e-06
-9.02148e-07
-3.2185e-06
-3.0884e-06
-7.27577e-07
1.32197e-06
1.83184e-05
1.66503e-06
1.70843e-05
1.76121e-06
1.45477e-05
1.76082e-06
1.22868e-05
1.71968e-06
1.02521e-05
1.65401e-06
8.39447e-06
1.57303e-06
6.70192e-06
1.48198e-06
5.16664e-06
1.38308e-06
3.77998e-06
1.27715e-06
2.53376e-06
1.1648e-06
1.42105e-06
1.04735e-06
4.36443e-07
9.27232e-07
-4.24202e-07
8.0828e-07
-1.1642e-06
6.95565e-07
-1.78669e-06
5.95088e-07
-2.29524e-06
5.13267e-07
-2.69442e-06
4.56322e-07
-2.99009e-06
4.29679e-07
-3.18962e-06
4.37482e-07
-3.3016e-06
4.8228e-07
-3.33552e-06
5.64952e-07
-3.3012e-06
-3.20834e-06
6.84893e-07
1.57469e-06
1.67438e-05
2.25877e-06
1.64003e-05
2.59835e-06
1.42082e-05
2.78587e-06
1.20993e-05
2.88991e-06
1.01481e-05
2.93448e-06
8.34994e-06
2.93411e-06
6.70232e-06
2.8989e-06
5.20187e-06
2.83601e-06
3.8429e-06
2.75089e-06
2.61891e-06
2.64825e-06
1.52373e-06
2.5327e-06
5.52015e-07
2.40917e-06
-3.00638e-07
2.28299e-06
-1.03801e-06
2.15995e-06
-1.66364e-06
2.04605e-06
-2.18134e-06
1.94721e-06
-2.59557e-06
1.86893e-06
-2.9118e-06
1.81592e-06
-3.13661e-06
1.79189e-06
-3.27757e-06
1.79931e-06
-3.34296e-06
1.83944e-06
-3.34134e-06
-3.28128e-06
1.9124e-06
1.62295e-06
1.51209e-05
2.58654e-06
1.54368e-05
3.17078e-06
1.36241e-05
3.54977e-06
1.17204e-05
3.79825e-06
9.89966e-06
3.95151e-06
8.19672e-06
4.03098e-06
6.62289e-06
4.05224e-06
5.18064e-06
4.02738e-06
3.8678e-06
3.96623e-06
2.6801e-06
3.87721e-06
1.61279e-06
3.76787e-06
6.61383e-07
3.64529e-06
-1.78026e-07
3.51617e-06
-9.08877e-07
3.38696e-06
-1.53442e-06
3.26371e-06
-2.05809e-06
3.15201e-06
-2.48387e-06
3.05683e-06
-2.81661e-06
2.98237e-06
-3.06214e-06
2.93198e-06
-3.22719e-06
2.90814e-06
-3.31911e-06
2.91237e-06
-3.34558e-06
-3.31427e-06
2.94538e-06
1.54929e-06
1.35716e-05
2.70737e-06
1.42788e-05
3.50311e-06
1.28284e-05
4.05971e-06
1.11639e-05
4.44667e-06
9.51274e-06
4.70499e-06
7.93844e-06
4.86252e-06
6.46539e-06
4.9403e-06
5.1029e-06
4.95511e-06
3.85302e-06
4.92082e-06
2.71443e-06
4.84917e-06
1.68448e-06
4.75031e-06
7.60278e-07
4.63318e-06
-6.08602e-08
4.50567e-06
-7.81354e-07
4.3748e-06
-1.40354e-06
4.24671e-06
-1.92999e-06
4.12672e-06
-2.36387e-06
4.01935e-06
-2.70923e-06
3.92837e-06
-2.97116e-06
3.85691e-06
-3.15572e-06
3.80744e-06
-3.26964e-06
3.78177e-06
-3.31993e-06
-3.31359e-06
3.78113e-06
1.43591e-06
1.21358e-05
2.70076e-06
1.3014e-05
3.65266e-06
1.18765e-05
4.35506e-06
1.04615e-05
4.86233e-06
9.00552e-06
5.21509e-06
7.58571e-06
5.4447e-06
6.23582e-06
5.57629e-06
4.97134e-06
5.6305e-06
3.79885e-06
5.62454e-06
2.72043e-06
5.57292e-06
1.73614e-06
5.48794e-06
8.45291e-07
5.3801e-06
4.70103e-08
5.25829e-06
-6.59528e-07
5.12999e-06
-1.27523e-06
5.00136e-06
-1.80136e-06
4.87744e-06
-2.23994e-06
4.76231e-06
-2.59409e-06
4.65937e-06
-2.86821e-06
4.57154e-06
-3.06789e-06
4.50135e-06
-3.19946e-06
4.45095e-06
-3.26953e-06
-3.28468e-06
4.42206e-06
1.33416e-06
1.08016e-05
2.63793e-06
1.17103e-05
3.68489e-06
1.08296e-05
4.48974e-06
9.65668e-06
5.0886e-06
8.40669e-06
5.51724e-06
7.1571e-06
5.80729e-06
5.9458e-06
5.98589e-06
4.79277e-06
6.07612e-06
3.70865e-06
6.09748e-06
2.69909e-06
6.0665e-06
1.76716e-06
5.99711e-06
9.14716e-07
5.90099e-06
1.43156e-07
5.7878e-06
-5.46321e-07
5.66533e-06
-1.15276e-06
5.53968e-06
-1.67572e-06
5.41551e-06
-2.11576e-06
5.29637e-06
-2.47494e-06
5.18523e-06
-2.75707e-06
5.08485e-06
-2.96751e-06
4.99791e-06
-3.11252e-06
4.92695e-06
-3.19859e-06
-3.23197e-06
4.87427e-06
1.26485e-06
9.53683e-06
2.56588e-06
1.04093e-05
3.65482e-06
9.74068e-06
4.51712e-06
8.7944e-06
5.17379e-06
7.75005e-06
5.65426e-06
6.67665e-06
5.98824e-06
5.61183e-06
6.20295e-06
4.57808e-06
6.32232e-06
3.58931e-06
6.367e-06
2.65444e-06
6.35465e-06
1.77953e-06
6.30025e-06
9.6915e-07
6.21627e-06
2.27159e-07
6.11288e-06
-4.42927e-07
5.99805e-06
-1.03793e-06
5.87767e-06
-1.55533e-06
5.75582e-06
-1.99391e-06
5.63537e-06
-2.35448e-06
5.51872e-06
-2.64043e-06
5.40849e-06
-2.85729e-06
5.30763e-06
-3.01166e-06
5.21921e-06
-3.11018e-06
-3.15894e-06
5.14619e-06
1.22964e-06
8.3072e-06
2.50822e-06
9.13074e-06
3.60071e-06
8.6482e-06
4.48149e-06
7.91364e-06
5.16285e-06
7.06869e-06
5.66927e-06
6.17024e-06
6.02789e-06
5.25323e-06
6.26472e-06
4.34126e-06
6.4033e-06
3.45074e-06
6.46438e-06
2.59339e-06
6.46593e-06
1.778e-06
6.42336e-06
1.01174e-06
6.3496e-06
3.00933e-07
6.25513e-06
-3.48451e-07
6.14794e-06
-9.30746e-07
6.03356e-06
-1.44096e-06
5.91529e-06
-1.87565e-06
5.79496e-06
-2.23415e-06
5.67421e-06
-2.51969e-06
5.55554e-06
-2.73863e-06
5.44235e-06
-2.89848e-06
5.33847e-06
-3.00632e-06
-3.06811e-06
5.24765e-06
1.22217e-06
7.08504e-06
2.47413e-06
7.87879e-06
3.54696e-06
7.57538e-06
4.41657e-06
7.04404e-06
5.0938e-06
6.39147e-06
5.60136e-06
5.6627e-06
5.96458e-06
4.89e-06
6.20792e-06
4.09793e-06
6.35372e-06
3.30495e-06
6.42196e-06
2.52516e-06
6.43025e-06
1.76972e-06
6.39395e-06
1.04806e-06
6.32611e-06
3.68783e-07
6.23739e-06
-2.59738e-07
6.13581e-06
-8.29173e-07
6.02645e-06
-1.33161e-06
5.91155e-06
-1.76076e-06
5.79139e-06
-2.114e-06
5.66652e-06
-2.39482e-06
5.53941e-06
-2.61154e-06
5.41426e-06
-2.77334e-06
5.29595e-06
-2.88803e-06
-2.96133e-06
5.18916e-06
1.23613e-06
5.84892e-06
2.46881e-06
6.64612e-06
3.51116e-06
6.53303e-06
4.34842e-06
6.20679e-06
4.99746e-06
5.74242e-06
5.48364e-06
5.17652e-06
5.83219e-06
4.54145e-06
6.06615e-06
3.86396e-06
6.20623e-06
3.16488e-06
6.27099e-06
2.4604e-06
6.27711e-06
1.76361e-06
6.23943e-06
1.08575e-06
6.17094e-06
4.37279e-07
6.08249e-06
-1.71299e-07
5.98227e-06
-7.2897e-07
5.87507e-06
-1.22443e-06
5.76185e-06
-1.64754e-06
5.64052e-06
-1.99268e-06
5.50998e-06
-2.26429e-06
5.37299e-06
-2.47457e-06
5.23512e-06
-2.6355e-06
5.1027e-06
-2.75563e-06
-2.84006e-06
4.98144e-06
1.2707e-06
4.57822e-06
2.5011e-06
5.41572e-06
3.50985e-06
5.52429e-06
4.29827e-06
5.41837e-06
4.89814e-06
5.14255e-06
5.34264e-06
4.73202e-06
5.65879e-06
4.22529e-06
5.86841e-06
3.65434e-06
5.9901e-06
3.04318e-06
6.04046e-06
2.41005e-06
6.03459e-06
1.76948e-06
5.98642e-06
1.13392e-06
5.90869e-06
5.15004e-07
5.81262e-06
-7.52383e-08
5.70703e-06
-6.23393e-07
5.59698e-06
-1.11439e-06
5.48221e-06
-1.53279e-06
5.35695e-06
-1.86743e-06
5.21755e-06
-2.12491e-06
5.06782e-06
-2.32486e-06
4.91567e-06
-2.48336e-06
4.7693e-06
-2.60928e-06
-2.7061e-06
4.63533e-06
1.33117e-06
3.24705e-06
2.58384e-06
4.16305e-06
3.55827e-06
4.54986e-06
4.2817e-06
4.69494e-06
4.81241e-06
4.61184e-06
5.19705e-06
4.34738e-06
5.4656e-06
3.95673e-06
5.63824e-06
3.4817e-06
5.73068e-06
2.95074e-06
5.75673e-06
2.38399e-06
5.72929e-06
1.79692e-06
5.66084e-06
1.20237e-06
5.56364e-06
6.12199e-07
5.44948e-06
3.89135e-08
5.32868e-06
-5.02605e-07
5.20794e-06
-9.93671e-07
5.0867e-06
-1.41156e-06
4.95327e-06
-1.73401e-06
4.79997e-06
-1.97161e-06
4.63336e-06
-2.15827e-06
4.46517e-06
-2.31519e-06
4.30571e-06
-2.44983e-06
-2.56236e-06
4.16197e-06
1.42604e-06
1.82102e-06
2.7259e-06
2.8632e-06
3.66244e-06
3.61332e-06
4.30167e-06
4.05571e-06
4.74423e-06
4.16927e-06
5.05489e-06
4.03672e-06
5.26565e-06
3.74596e-06
5.39329e-06
3.35405e-06
5.44938e-06
2.89464e-06
5.44402e-06