/*--------------------------------*- C++ -*----------------------------------*\
  =========                 |
  \\      /  F ield         | OpenFOAM: The Open Source CFD Toolbox
   \\    /   O peration     | Website:  https://openfoam.org
    \\  /    A nd           | Version:  9
     \\/     M anipulation  |
\*---------------------------------------------------------------------------*/
FoamFile
{
    format      ascii;
    class       surfaceScalarField;
    location    "3.76";
    object      alphaPhi0.water;
}
// * * * * * * * * * * * * * * * * * * * * * * * * * * * * * * * * * * * * * //

dimensions      [0 3 -1 0 0 0 0];

internalField   nonuniform List<scalar> 
4432
(
-3.6741e-07
3.6741e-07
-4.85573e-07
1.18165e-07
-4.97506e-07
1.19294e-08
-4.75831e-07
-2.16746e-08
-4.47022e-07
-2.88114e-08
-4.23334e-07
-2.36913e-08
-4.07791e-07
-1.55466e-08
-4.01473e-07
-6.32295e-09
-4.05665e-07
4.18727e-09
-4.23381e-07
1.77118e-08
-4.51284e-07
2.79001e-08
-4.81865e-07
3.05785e-08
-5.00681e-07
1.88142e-08
-4.86403e-07
-1.42796e-08
-4.1826e-07
-6.81439e-08
-2.73071e-07
-1.4519e-07
-9.57182e-08
-1.77349e-07
-3.23918e-07
2.301e-07
-1.39255e-06
1.04881e-06
-2.34392e-06
9.51986e-07
-2.33806e-06
6.02892e-10
-1.40816e-06
-9.34792e-07
-1.41305e-06
-2.40448e-07
6.07854e-07
-3.35992e-07
2.1371e-07
-3.70623e-07
4.65557e-08
-3.73818e-07
-1.84836e-08
-3.68022e-07
-3.46138e-08
-3.62278e-07
-2.94416e-08
-3.60282e-07
-1.75495e-08
-3.63814e-07
-2.79665e-09
-3.7593e-07
1.62968e-08
-3.96864e-07
3.86429e-08
-4.25345e-07
5.63777e-08
-4.57941e-07
6.31723e-08
-4.83019e-07
4.38895e-08
-4.9213e-07
-5.16945e-09
-4.73328e-07
-8.6946e-08
-4.30477e-07
-1.8804e-07
-4.14182e-07
-1.93632e-07
-6.01254e-07
4.22827e-07
-1.01437e-06
1.46468e-06
-1.47092e-06
1.36604e-06
-1.56574e-06
8.94384e-08
-1.15064e-06
-1.34886e-06
-2.56938e-06
-1.56628e-07
7.6448e-07
-2.4186e-07
2.98943e-07
-2.87808e-07
9.24995e-08
-3.12729e-07
6.43447e-09
-3.28389e-07
-1.89571e-08
-3.41411e-07
-1.64219e-08
-3.54958e-07
-4.00383e-09
-3.71251e-07
1.34953e-08
-3.92633e-07
3.76792e-08
-4.20254e-07
6.6264e-08
-4.55057e-07
9.11803e-08
-4.9162e-07
9.97355e-08
-5.25571e-07
7.78391e-08
-5.5016e-07
1.94186e-08
-5.64994e-07
-7.21133e-08
-5.85666e-07
-1.67342e-07
-6.46534e-07
-1.3054e-07
-7.31563e-07
5.18518e-07
-7.95945e-07
1.52875e-06
-8.87351e-07
1.45714e-06
-9.40868e-07
1.25921e-07
-7.55876e-07
-1.53384e-06
-3.32526e-06
-9.99791e-08
8.64457e-07
-1.75005e-07
3.73969e-07
-2.30366e-07
1.47859e-07
-2.7336e-07
4.94279e-08
-3.08801e-07
1.64831e-08
-3.40424e-07
1.52041e-08
-3.70331e-07
2.59068e-08
-4.00401e-07
4.35705e-08
-4.32733e-07
7.00158e-08
-4.69367e-07
1.02903e-07
-5.10545e-07
1.32361e-07
-5.53897e-07
1.4309e-07
-5.95959e-07
1.19902e-07
-6.3404e-07
5.74986e-08
-6.71886e-07
-3.42685e-08
-7.28148e-07
-1.1108e-07
-8.23892e-07
-3.45574e-08
-8.18518e-07
5.34603e-07
-6.88871e-07
1.39877e-06
-5.5967e-07
1.32762e-06
-4.55695e-07
1.87096e-08
-3.47468e-07
-1.64512e-06
-3.67272e-06
-6.27414e-08
9.27196e-07
-1.28699e-07
4.39926e-07
-1.92892e-07
2.12052e-07
-2.51649e-07
1.08186e-07
-3.05921e-07
7.07575e-08
-3.56086e-07
6.53748e-08
-4.02739e-07
7.25661e-08
-4.47188e-07
8.80273e-08
-4.91519e-07
1.14354e-07
-5.3793e-07
1.4932e-07
-5.87244e-07
1.81681e-07
-6.3791e-07
1.93759e-07
-6.87829e-07
1.69823e-07
-7.35509e-07
1.05179e-07
-7.85503e-07
1.57256e-08
-8.52185e-07
-4.44026e-08
-9.36218e-07
4.94725e-08
-9.04725e-07
5.10386e-07
-6.52414e-07
1.17685e-06
-3.64996e-07
1.03981e-06
-1.60366e-07
-1.8841e-07
-3.36524e-08
-1.7722e-06
-3.70638e-06
-3.87158e-08
9.6591e-07
-1.00145e-07
5.01355e-07
-1.7267e-07
2.84576e-07
-2.46741e-07
1.82259e-07
-3.19149e-07
1.43166e-07
-3.87648e-07
1.33876e-07
-4.51321e-07
1.36243e-07
-5.10688e-07
1.47398e-07
-5.67676e-07
1.71346e-07
-6.24601e-07
2.06249e-07
-6.82639e-07
2.39722e-07
-7.4087e-07
2.51991e-07
-7.9736e-07
2.26313e-07
-8.50802e-07
1.5862e-07
-9.0375e-07
6.86736e-08
-9.63971e-07
1.58171e-08
-1.01864e-06
1.04141e-07
-9.64628e-07
4.56481e-07
-6.8088e-07
8.99992e-07
-3.16263e-07
6.90015e-07
-6.1618e-08
-4.4379e-07
1.00203e-07
-1.93404e-06
-3.60619e-06
-2.33118e-08
9.89222e-07
-8.57267e-08
5.6377e-07
-1.68354e-07
3.67203e-07
-2.57786e-07
2.7169e-07
-3.47911e-07
2.33288e-07
-4.34475e-07
2.20438e-07
-5.15103e-07
2.16868e-07
-5.89663e-07
2.21955e-07
-6.5971e-07
2.41389e-07
-7.27498e-07
2.74033e-07
-7.94338e-07
3.06558e-07
-8.59538e-07
3.17189e-07
-9.21173e-07
2.87944e-07
-9.77056e-07
2.14501e-07
-1.02683e-06
1.18444e-07
-1.07235e-06
6.13451e-08
-1.09644e-06
1.28233e-07
-1.01442e-06
3.74466e-07
-7.43897e-07
6.29469e-07
-3.91077e-07
3.37196e-07
-1.24867e-07
-7.1004e-07
8.10969e-08
-2.14e-06
-3.52511e-06
-1.91457e-08
1.00837e-06
-8.56572e-08
6.3028e-07
-1.79444e-07
4.60987e-07
-2.83747e-07
3.7599e-07
-3.90482e-07
3.4002e-07
-4.94397e-07
3.2435e-07
-5.91726e-07
3.14194e-07
-6.8146e-07
3.11686e-07
-7.64688e-07
3.24615e-07
-8.43335e-07
3.52679e-07
-9.18533e-07
3.81755e-07
-9.8963e-07
3.88284e-07
-1.05467e-06
3.52984e-07
-1.11044e-06
2.70276e-07
-1.15376e-06
1.61758e-07
-1.18262e-06
9.02045e-08
-1.18042e-06
1.26038e-07
-1.08452e-06
2.78566e-07
-8.43151e-07
3.88103e-07
-5.46651e-07
4.06997e-08
-3.27858e-07
-9.2883e-07
-1.95337e-07
-2.27251e-06
-3.72058e-06
-3.08442e-07
3.08439e-07
5.20926e-07
-8.29366e-07
1.23452e-06
-7.14044e-07
1.59625e-06
-3.6194e-07
1.67274e-06
-7.57926e-08
1.49908e-06
1.73647e-07
1.13355e-06
3.65508e-07
7.96988e-07
3.45601e-07
7.81548e-07
1.26495e-08
1.16339e-06
-3.87142e-07
1.11317e-06
4.60478e-08
-1.67412e-07
1.24784e-06
-1.33808e-06
1.16891e-06
-5.84031e-07
-7.55521e-07
2.14788e-06
-2.77818e-06
4.96628e-06
-2.92339e-06
5.29901e-06
-3.77193e-07
2.28347e-06
3.01551e-06
2.28344e-06
1.42226e-07
1.66216e-07
6.88649e-07
-1.3824e-06
1.04432e-06
-1.07668e-06
1.19419e-06
-5.1435e-07
1.14397e-06
-2.5096e-08
9.51645e-07
3.6689e-07
6.72999e-07
6.47494e-07
3.80825e-07
6.37916e-07
2.61119e-07
1.32508e-07
3.24296e-07
-4.54086e-07
1.44637e-07
2.20217e-07
-3.59016e-07
1.75154e-06
-4.89522e-07
1.29901e-06
3.52129e-07
-1.58447e-06
1.87695e-06
-4.3032e-06
3.51666e-06
-4.56345e-06
4.00902e-06
-9.62434e-07
2.22583e-06
4.78527e-06
4.61377e-06
4.66259e-07
-2.98998e-07
7.33684e-07
-1.64983e-06
8.67869e-07
-1.21087e-06
8.9136e-07
-5.37845e-07
7.87303e-07
7.88454e-08
5.93574e-07
5.6066e-07
3.4574e-07
8.9514e-07
8.37348e-08
8.98336e-07
-9.18294e-08
3.07133e-07
-1.77573e-07
-3.68196e-07
-3.0343e-07
3.54214e-07
-3.02763e-07
1.75074e-06
-7.16016e-09
1.00273e-06
7.1344e-07
-2.37313e-06
1.49729e-06
-5.08704e-06
2.47317e-06
-5.53954e-06
2.87816e-06
-1.48463e-06
1.92266e-06
5.741e-06
6.53683e-06
5.81565e-07
-8.80664e-07
6.82584e-07
-1.75074e-06
6.78617e-07
-1.2069e-06
6.28862e-07
-4.88142e-07
5.06138e-07
2.01501e-07
3.25499e-07
7.41293e-07
1.02002e-07
1.11804e-06
-1.3084e-07
1.13005e-06
-3.38326e-07
5.13543e-07
-5.19901e-07
-1.85245e-07
-5.23633e-07
3.8151e-07
-2.29958e-07
1.45704e-06
2.64042e-07
5.27987e-07
7.2487e-07
-2.83396e-06
1.07794e-06
-5.4401e-06
1.59476e-06
-6.06285e-06
2.18994e-06
-2.19648e-06
1.52463e-06
6.40675e-06
8.0619e-06
5.61788e-07
-1.44261e-06
5.51696e-07
-1.7405e-06
4.69777e-07
-1.12496e-06
3.87521e-07
-4.05891e-07
2.69088e-07
3.19927e-07
1.14601e-07
8.95775e-07
-7.93318e-08
1.3125e-06
-2.76281e-07
1.33072e-06
-4.78054e-07
7.15228e-07
-6.87415e-07
2.39745e-08
-6.25857e-07
3.38986e-07
-1.68731e-07
1.04051e-06
3.73791e-07
-2.02822e-08
5.77841e-07
-3.03554e-06
6.27547e-07
-5.48989e-06
8.43788e-07
-6.27908e-06
1.48152e-06
-2.90431e-06
1.17919e-06
6.59931e-06
9.20852e-06
4.56305e-07
-1.89907e-06
3.55726e-07
-1.63994e-06
2.41827e-07
-1.01107e-06
1.5797e-07
-3.22045e-07
6.4465e-08
4.13333e-07
-4.45013e-08
1.00465e-06
-1.93608e-07
1.46186e-06
-3.50901e-07
1.48965e-06
-5.16329e-07
8.81534e-07
-6.90386e-07
1.98318e-07
-6.01953e-07
2.50944e-07
-1.21381e-07
5.66147e-07
3.45833e-07
-4.87534e-07
3.65844e-07
-3.05552e-06
1.75445e-07
-5.29958e-06
1.54688e-07
-6.25842e-06
7.21778e-07
-3.47023e-06
9.37017e-07
6.37073e-06
1.02032e-05
2.32106e-07
-2.13161e-06
1.01993e-07
-1.50984e-06
-1.48842e-09
-9.07621e-07
-6.24499e-08
-2.61091e-07
-1.16385e-07
4.67193e-07
-1.63376e-07
1.05103e-06
-2.47243e-07
1.54556e-06
-3.51598e-07
1.59386e-06
-4.64581e-07
9.94375e-07
-5.73558e-07
3.06635e-07
-4.62131e-07
1.39356e-07
-5.84304e-08
1.60905e-07
2.63176e-07
-8.09232e-07
1.36644e-07
-2.92906e-06
-2.51692e-07
-4.91132e-06
-5.19771e-07
-5.9904e-06
-1.34584e-07
-3.85374e-06
8.01364e-07
5.42128e-06
1.10209e-05
-1.2427e-07
-2.00754e-06
-1.78817e-07
-1.4554e-06
-2.54943e-07
-8.31512e-07
-2.79677e-07
-2.36357e-07
-2.85525e-07
4.73045e-07
-2.5405e-07
1.01957e-06
-2.52665e-07
1.5442e-06
-2.84087e-07
1.62532e-06
-3.32963e-07
1.03262e-06
-3.76181e-07
3.44734e-07
-2.58279e-07
1.86515e-08
3.28122e-08
-1.30596e-07
1.99138e-07
-9.75633e-07
-6.89016e-08
-2.66111e-06
-6.34649e-07
-4.34554e-06
-1.14464e-06
-5.4804e-06
-9.98374e-07
-3.98533e-06
4.09173e-07
4.26456e-06
1.14464e-05
-2.11665e-09
1.01048e-06
-1.98017e-07
8.2618e-07
-4.51126e-07
7.14094e-07
-7.23513e-07
6.48374e-07
-1.0052e-06
6.21707e-07
-1.28063e-06
5.99779e-07
-1.5408e-06
5.7436e-07
-1.78079e-06
5.51682e-07
-2.00099e-06
5.44814e-07
-2.20284e-06
5.54529e-07
-2.3868e-06
5.65719e-07
-2.55146e-06
5.52951e-07
-2.69464e-06
4.96168e-07
-2.80805e-06
3.83687e-07
-2.87467e-06
2.28381e-07
-2.88484e-06
1.00374e-07
-2.8174e-06
5.85944e-08
-2.59956e-06
6.07284e-08
-2.2051e-06
-6.36727e-09
-1.80379e-06
-3.60607e-07
-1.65397e-06
-1.07866e-06
-1.99463e-06
-1.93185e-06
-2.40254e-06
-3.31253e-06
-1.15593e-07
5.73759e-07
-3.73318e-07
5.68266e-07
-6.32512e-07
5.16927e-07
-8.8808e-07
4.85504e-07
-1.17117e-06
4.95845e-07
-1.46984e-06
5.0568e-07
-1.76663e-06
5.02757e-07
-2.05933e-06
5.004e-07
-2.34067e-06
5.05146e-07
-2.59156e-06
5.10084e-07
-2.79865e-06
5.04531e-07
-2.96625e-06
4.82762e-07
-3.10978e-06
4.38103e-07
-3.24618e-06
3.61035e-07
-3.34274e-06
2.33627e-07
-3.33326e-06
9.09508e-08
-3.23517e-06
-3.596e-08
-3.00982e-06
-1.54441e-07
-2.69504e-06
-3.0764e-07
-2.44225e-06
-5.95088e-07
-2.40235e-06
-1.09583e-06
-2.61963e-06
-1.69267e-06
-2.02957e-06
-2.9802e-06
-1.32705e-07
2.44075e-08
-1.58117e-07
3.67001e-08
-2.0641e-07
2.45195e-08
-2.85848e-07
1.17677e-08
-3.56268e-07
2.39953e-08
-4.29207e-07
3.74776e-08
-5.27311e-07
4.85446e-08
-6.44687e-07
5.65346e-08
-7.61091e-07
6.53669e-08
-8.79743e-07
7.15925e-08
-9.9833e-07
7.60429e-08
-1.11043e-06
7.98272e-08
-1.21402e-06
8.20158e-08
-1.31178e-06
8.16864e-08
-1.45377e-06
7.40543e-08
-1.60784e-06
1.75473e-09
-1.70068e-06
-2.89613e-08
-1.68943e-06
-8.87916e-08
-1.56558e-06
-1.53975e-07
-1.42224e-06
-2.17779e-07
-1.432e-06
-2.70115e-07
-1.66481e-06
-3.32228e-07
-4.25267e-07
-1.92891e-06
-4.61498e-09
8.4142e-09
-1.10423e-09
-3.96638e-09
-6.04297e-10
0
-4.85012e-09
5.66601e-09
-4.84962e-09
0
-4.66104e-09
0
-5.55579e-09
0
-7.88598e-09
0
-7.62752e-09
0
-7.30637e-09
0
-7.35264e-09
0
-7.42518e-09
0
-7.36719e-09
0
-6.74955e-09
0
-5.60368e-09
-3.52604e-09
-9.16088e-09
0
-1.64864e-08
1.0344e-10
-2.77163e-08
-4.00339e-09
-3.62052e-08
-1.15053e-08
-2.57595e-08
-4.34006e-08
-2.24266e-08
-3.19852e-08
-4.89838e-08
-2.70348e-09
-8.1267e-10
-8.7478e-08
-5.4182e-09
1.06659e-08
1.12535e-09
-9.7437e-09
3.23889e-09
1.92635e-10
-1.2176e-08
1.07279e-08
-1.47912e-08
6.57663e-09
-1.12653e-08
2.78425e-10
-3.96185e-09
2.29946e-09
-4.58144e-09
6.64617e-09
-1.72356e-08
4.60918e-10
-1.52692e-08
1.36844e-09
-1.34833e-08
1.5769e-09
-8.91708e-09
-1.57787e-10
-2.82412e-09
-3.03168e-09
6.83014e-09
-6.54584e-09
8.37665e-09
-2.23384e-08
7.73788e-09
1.73318e-09
8.95048e-09
-2.90539e-09
1.87042e-08
-1.54852e-08
3.08229e-08
-1.82585e-08
4.10127e-08
-2.52554e-08
2.56759e-08
-1.62341e-08
7.54213e-10
0
1.54386e-09
-5.4126e-09
6.13351e-09
6.31533e-09
1.19979e-09
-4.31743e-09
2.45171e-09
-5.61145e-10
9.31989e-09
5.35217e-09
1.19106e-08
0
1.18768e-08
3.58418e-10
1.45197e-08
2.18975e-09
1.8199e-08
5.5e-09
1.24771e-08
3.14549e-10
5.81331e-09
2.33142e-11
3.02542e-09
3.52609e-10
2.95141e-09
2.35379e-11
3.46735e-09
-2.67953e-15
4.78668e-09
-1.04459e-12
4.7548e-09
-5.63319e-13
1.49444e-08
-4.26506e-10
2.1636e-08
-1.57975e-09
2.06414e-08
-6.4165e-09
1.67424e-08
-1.38603e-08
8.72808e-09
-2.72212e-09
5.46914e-09
0
-7.11651e-10
2.44562e-09
3.37183e-09
-2.08061e-09
6.36939e-09
2.54916e-10
1.38805e-09
5.08614e-11
1.15292e-09
1.89453e-11
7.97075e-09
7.09438e-10
1.12339e-08
-1.00692e-09
4.92651e-09
-2.6271e-10
4.38301e-09
0
6.07154e-09
0
1.40285e-09
0
4.04497e-11
0
5.27497e-12
2.03502e-13
5.16329e-13
1.99489e-13
1.113e-14
0
8.11389e-15
-1.54404e-12
1.9207e-15
-9.37701e-13
2.8025e-10
-2.93155e-10
4.26078e-10
-7.38469e-10
1.46779e-10
-1.35515e-09
3.7395e-10
-5.67635e-09
2.25418e-10
-1.91428e-09
-5.84232e-10
6.36886e-10
-1.69931e-10
2.48651e-09
2.40119e-09
1.25784e-09
3.08082e-12
-3.95627e-15
1.97156e-12
0
6.38151e-12
-1.2689e-14
1.71123e-09
-1.20592e-13
2.02874e-09
-2.86815e-15
2.71317e-09
-7.12487e-16
5.75333e-10
8.1523e-13
1.47718e-12
0
7.63954e-13
6.35196e-13
2.40741e-13
6.06751e-13
1.39126e-13
0
2.31842e-14
1.03135e-14
3.89334e-12
3.50845e-12
1.07081e-11
1.96653e-12
2.59594e-12
6.91553e-13
-6.71498e-12
0
-1.79439e-11
-1.73502e-11
-7.79096e-10
-2.23285e-10
-1.68578e-09
-3.62911e-09
-7.52655e-10
-2.08668e-09
-1.63063e-10
5.09599e-10
1.40133e-09
1.38803e-09
1.4724e-09
5.39767e-09
7.9556e-15
-4.70021e-14
1.71448e-13
-4.2789e-13
9.12815e-14
-2.14585e-13
2.11162e-15
-3.15405e-14
1.7616e-15
-2.65862e-15
1.64151e-15
-7.24419e-16
5.46512e-13
6.22849e-16
6.52924e-14
4.19806e-14
6.32708e-14
6.80373e-14
4.40402e-14
3.64727e-14
9.03678e-13
5.83244e-12
1.67181e-11
1.97446e-12
2.69941e-11
8.8404e-12
2.10534e-11
1.2334e-11
1.58509e-12
1.69575e-12
2.49643e-12
0
0
0
-1.19597e-10
-7.1485e-12
-1.19413e-09
-6.21922e-10
-1.25398e-09
-1.28498e-09
1.95667e-10
-1.98199e-10
1.78307e-09
2.7447e-10
1.8142e-10
2.41962e-09
1.64429e-14
-2.98621e-14
6.61894e-13
-6.00258e-13
1.87565e-13
-5.01593e-13
0
-1.85934e-14
1.22185e-15
-3.73568e-15
6.8616e-16
-3.2363e-16
1.00634e-15
1.49915e-16
5.94246e-15
1.35606e-14
1.07576e-12
2.54681e-12
9.5416e-12
6.84137e-12
6.48566e-12
9.87974e-12
3.69405e-12
5.4057e-12
8.97596e-13
2.00944e-14
1.77664e-12
0
0
0
7.50376e-16
0
1.78869e-14
8.49726e-17
1.91463e-12
-2.07871e-15
-4.77091e-11
-9.62408e-14
-2.15437e-10
-5.07855e-12
-1.1717e-11
-2.13533e-10
2.18458e-10
3.50539e-12
0
5.28904e-11
7.00175e-14
-1.4998e-14
2.56587e-13
-3.50406e-13
8.27116e-14
-3.28665e-15
0
-1.57084e-14
1.8113e-16
-3.32456e-15
-6.50808e-17
-2.82209e-16
0
3.93814e-16
6.51661e-14
3.92293e-13
1.69995e-12
5.26123e-12
2.24999e-12
6.63478e-12
3.62885e-12
8.86882e-12
1.36843e-14
0
9.66587e-15
5.49702e-15
1.2417e-14
0
3.96244e-15
1.27301e-15
4.64444e-17
9.28675e-17
6.88367e-17
6.00918e-17
1.36299e-15
1.08305e-16
2.26434e-16
-9.17686e-14
-3.97281e-13
-4.68003e-12
-2.51718e-12
-9.46145e-12
-1.60098e-15
-3.11483e-12
0
1.38292e-14
-1.41793e-16
-4.97484e-15
-2.35823e-16
-1.12552e-14
-3.25679e-15
-5.28679e-15
-3.77857e-15
-7.85147e-16
-1.49535e-15
-6.05444e-16
0
-7.34271e-16
0
6.75688e-15
-1.58514e-12
5.57616e-13
-2.41347e-12
8.75997e-13
-7.84641e-13
3.58642e-14
-3.8013e-14
0
-1.68157e-14
0
-6.43966e-15
6.8689e-14
-1.16235e-15
3.03201e-14
-1.05746e-17
1.19929e-16
-5.0258e-20
7.82682e-17
8.75086e-18
4.93246e-17
1.07049e-16
7.5187e-18
-1.49536e-13
-1.02803e-12
-3.34502e-12
-9.05428e-12
-6.30264e-12
-9.16909e-12
-8.42863e-12
-3.93457e-12
3.09005e-13
-2.07267e-12
-1.12317e-15
-9.5724e-15
-2.05832e-15
-1.64697e-14
-1.46899e-16
-1.55593e-14
-7.14111e-16
-6.61997e-17
-6.14968e-15
-2.66558e-16
-2.53099e-14
1.80779e-15
-6.71031e-14
1.277e-14
-6.53858e-14
0
-1.20308e-14
0
-1.2826e-15
0
-1.28714e-15
0
-9.65781e-15
4.21496e-16
-6.8841e-15
0
-1.04444e-16
0
-7.11385e-17
8.5312e-17
-6.08082e-17
6.6627e-17
-5.49523e-17
4.21579e-17
0
1.12154e-16
-7.77356e-12
-1.38173e-13
-1.31941e-11
-3.63095e-12
-1.58368e-11
-6.52414e-12
-1.64756e-11
-3.29354e-12
6.08752e-13
-1.67731e-11
-1.3282e-13
-7.60046e-14
-2.29123e-13
-3.1728e-13
-2.27228e-15
-3.94848e-14
-2.18163e-15
-1.57889e-17
-6.2445e-15
1.27531e-16
-1.59777e-14
8.51202e-16
-1.76625e-14
1.33248e-15
-1.76727e-14
1.45275e-15
-7.51961e-15
1.32945e-15
-6.7616e-16
1.30649e-15
-2.27879e-16
1.12172e-16
-1.95044e-16
2.77441e-17
-1.84381e-16
8.58051e-18
-1.89489e-16
1.29373e-17
-2.98145e-16
1.10613e-16
-2.91323e-16
1.3401e-16
0
8.87787e-17
0
5.22037e-17
0
-6.78784e-15
-1.54356e-11
-7.03414e-13
-1.99897e-11
-1.96723e-12
-2.22117e-11
-1.06936e-12
3.65454e-13
-2.02877e-11
-4.00008e-13
-4.53449e-14
-3.72826e-13
-1.33118e-14
-2.46157e-15
4.30312e-14
-2.38155e-15
3.66681e-17
-4.79715e-15
4.30718e-16
-7.25623e-15
7.96941e-16
-8.33991e-15
9.24551e-16
-7.63169e-15
1.012e-15
-2.67726e-15
6.47132e-16
-3.8374e-16
1.88242e-16
-7.96221e-17
4.15786e-17
-3.3214e-17
4.83484e-18
-3.12457e-17
1.59614e-18
-6.02845e-17
1.63308e-18
-1.34758e-16
9.02623e-18
-1.76213e-16
1.52823e-17
-1.67394e-16
1.69081e-17
-1.85169e-16
5.62669e-18
-6.96606e-15
-5.32585e-17
-1.42937e-12
-1.45866e-14
-8.01692e-12
-5.01456e-15
-6.5841e-12
-2.78982e-15
0
-3.44721e-13
-4.46326e-13
1.8732e-13
-5.04782e-13
3.77206e-13
-1.81344e-15
2.39234e-13
-1.73696e-15
8.91806e-17
-2.54136e-15
3.05129e-16
-2.67278e-15
4.00174e-16
-1.73057e-15
2.58167e-16
-8.03194e-16
7.05207e-17
-2.28962e-16
1.80841e-17
-3.71879e-17
3.34668e-18
-9.87372e-19
6.10948e-18
-1.04042e-19
1.6914e-19
-1.02595e-19
3.37952e-20
-4.71336e-19
5.5368e-20
-8.59329e-18
6.17472e-19
-7.05993e-17
7.13943e-19
-1.70374e-16
5.92843e-18
-2.71127e-16
1.60563e-18
-1.47515e-15
-2.35874e-17
-3.73083e-16
-1.27006e-16
-3.73393e-16
-8.45768e-17
-6.7532e-16
-4.11037e-17
1.51327e-19
-7.51113e-16
-4.97846e-13
4.50429e-13
-5.76532e-13
7.88102e-13
-7.66644e-16
5.00596e-13
-6.89856e-16
1.40725e-16
-8.45711e-16
1.68797e-16
-6.94401e-16
1.6942e-16
-1.97055e-16
6.09763e-17
-4.74672e-17
5.25918e-18
-4.93666e-18
8.01429e-18
5.21945e-18
1.16526e-19
9.95432e-18
-1.33904e-18
1.0599e-17
-2.31052e-18
8.73614e-18
-2.15133e-18
4.78622e-18
-1.47192e-18
-6.30184e-19
-6.13589e-19
-3.98813e-18
5.18156e-20
-8.0213e-17
8.29733e-19
-3.24816e-16
-3.49439e-19
-5.53122e-16
-7.82401e-18
-5.89554e-16
-2.41941e-17
-5.29739e-16
-1.9479e-17
-4.59677e-16
-1.87857e-17
1.26132e-18
-2.77239e-16
-5.271e-13
5.33659e-13
-6.08075e-13
1.20129e-12
-5.40074e-16
5.61604e-13
-4.6409e-16
1.92065e-16
-3.41915e-16
1.75197e-16
-2.01694e-16
1.59604e-16
-1.57707e-17
2.72109e-17
1.88079e-18
1.12677e-18
8.47072e-18
-5.67611e-19
1.27431e-17
-2.25836e-18
1.48683e-17
-2.97053e-18
1.49214e-17
-2.95992e-18
1.32371e-17
-2.43572e-18
1.03101e-17
-1.65402e-18
6.32348e-18
-8.67384e-19
5.78649e-19
-2.61955e-19
-9.67487e-18
7.61468e-21
-3.55039e-17
1.36992e-19
-1.42808e-16
-2.34098e-19
-2.49268e-16
-8.9764e-19
-3.03745e-16
-2.61952e-18
-2.86422e-16
-3.30153e-18
-1.26307e-18
-1.4697e-16
-5.06381e-13
4.44357e-13
-5.38089e-13
1.56521e-12
-7.10611e-16
4.46741e-13
-6.32669e-16
2.42458e-16
-5.02124e-16
3.5208e-16
-1.09528e-16
3.64174e-16
-9.35153e-18
2.68432e-17
3.99332e-18
1.16761e-18
9.21815e-18
-1.2809e-18
1.22087e-17
-2.48392e-18
1.36841e-17
-2.72553e-18
1.37793e-17
-2.45491e-18
1.27247e-17
-1.87892e-18
1.09184e-17
-1.18842e-18
8.72468e-18
-5.51278e-19
6.30529e-18
-7.34649e-20
3.46267e-18
1.81372e-19
-1.08788e-19
2.90517e-19
-1.14745e-18
2.88492e-19
-9.60706e-18
2.06053e-19
-2.54235e-17
7.72949e-20
-3.48201e-17
-8.25064e-20
-6.01432e-20
-2.77887e-17
-3.0188e-13
8.68745e-14
-4.64394e-13
4.49049e-13
-1.75363e-15
6.1039e-15
-1.67428e-15
2.92991e-16
-1.3e-15
1.43634e-15
-1.94162e-16
8.83772e-16
-1.75161e-17
6.85939e-17
3.37008e-19
5.94356e-18
4.61633e-18
-1.18866e-19
7.08737e-18
-1.31172e-18
8.67331e-18
-1.58875e-18
9.36265e-18
-1.46953e-18
9.18392e-18
-1.1049e-18
8.3207e-18
-6.33503e-19
7.06173e-18
-1.84953e-19
5.67692e-18
1.0303e-19
4.34421e-18
2.44236e-19
3.11801e-18
2.99361e-19
1.95735e-18
2.87379e-19
7.53441e-19
2.34865e-19
-6.5691e-20
1.65454e-19
-1.76712e-19
9.6688e-20
4.35446e-20
-4.82693e-19
-1.78839e-14
8.27433e-16
-1.57187e-15
8.14744e-17
-1.20607e-15
1.08446e-16
-1.93098e-15
2.21712e-15
-1.73253e-15
2.14671e-15
-2.63535e-16
1.08726e-15
-4.83718e-17
1.10405e-16
-2.19144e-17
2.49386e-17
-4.75082e-18
1.03211e-17
1.05217e-18
2.32839e-18
2.86063e-18
-2.47617e-19
4.28093e-18
-4.7966e-19
4.98346e-18
-4.53398e-19
4.96298e-18
-2.43233e-19
4.46656e-18
9.9269e-21
3.75298e-18
1.31209e-19
2.99266e-18
2.11847e-19
2.29322e-18
2.38581e-19
1.69665e-18
2.22769e-19
1.20166e-18
1.83541e-19
7.87404e-19
1.36775e-19
4.58443e-19
9.1903e-20
5.33945e-20
2.10657e-19
-1.18545e-16
1.14079e-15
-2.09883e-16
2.866e-16
-1.16324e-15
6.56425e-16
-1.71272e-15
2.53025e-15
-1.02788e-15
2.3707e-15
-2.78359e-16
9.45444e-16
-1.04373e-16
1.53965e-16
-6.94938e-17
6.75419e-17
-3.95556e-17
3.78026e-17
-1.62958e-17
1.63856e-17
-3.38217e-18
4.8112e-18
7.89343e-19
8.07226e-19
1.77274e-18
-7.81905e-20
2.26115e-18
-5.48369e-20
2.27857e-18
2.61162e-20
2.03476e-18
9.13099e-20
1.67652e-18
1.4036e-19
1.30864e-18
1.56606e-19
9.86207e-19
1.45686e-19
7.24442e-19
1.19997e-19
5.15965e-19
9.04973e-20
3.44657e-19
6.38188e-20
4.15904e-20
2.00022e-19
-5.63719e-17
1.57252e-15
-1.06253e-16
4.85107e-16
-6.75807e-16
5.61732e-16
-1.0616e-15
1.41461e-15
-7.3664e-16
1.40593e-15
-2.31442e-16
4.42893e-16
-1.49006e-16
1.81617e-16
-1.17647e-16
1.1547e-16
-8.68427e-17
7.17302e-17
-4.93504e-17
3.88937e-17
-1.921e-17
1.49727e-17
-4.0369e-18
3.6236e-18
2.25047e-19
3.91987e-19
7.34991e-19
-3.11481e-21
9.21602e-19
1.06626e-20
9.111e-19
4.50633e-20
7.85981e-19
7.61037e-20
6.24562e-19
8.76723e-20
4.70841e-19
8.23236e-20
3.43703e-19
6.7819e-20
2.46835e-19
5.1072e-20
1.72356e-19
3.62437e-20
2.47102e-20
1.07863e-19
-4.38318e-17
1.0962e-14
-7.81023e-17
5.18368e-16
-1.51478e-16
6.34074e-16
-2.87962e-16
7.62579e-16
-2.30284e-16
3.91901e-16
-1.6658e-16
2.56735e-16
-1.54381e-16
1.96983e-16
-1.35257e-16
1.5151e-16
-1.10946e-16
9.87144e-17
-7.42764e-17
5.78089e-17
-3.60163e-17
2.5308e-17
-1.08157e-17
7.1298e-18
-1.45304e-18
9.16988e-19
1.43933e-19
-6.06164e-21
2.91968e-19
4.47423e-22
3.40216e-19
1.72896e-20
3.11552e-19
3.6008e-20
2.52058e-19
4.35474e-20
1.89135e-19
4.13327e-20
1.35467e-19
3.38611e-20
9.48422e-20
2.5138e-20
6.5921e-20
1.7533e-20
1.19902e-20
4.32026e-20
-3.21309e-17
5.08556e-14
-5.72182e-17
5.42431e-16
-7.67513e-17
6.52577e-16
-9.26082e-17
7.77251e-16
-1.05966e-16
4.03953e-16
-1.16784e-16
2.51909e-16
-1.26004e-16
2.06242e-16
-1.23503e-16
1.7248e-16
-1.0634e-16
1.18903e-16
-7.80644e-17
7.10791e-17
-4.28188e-17
3.31419e-17
-1.43562e-17
9.80484e-18
-2.1922e-18
1.18251e-18
3.47908e-21
-2.87335e-20
7.2866e-20
-2.14757e-21
1.08549e-19
6.35263e-21
1.05711e-19
1.58375e-20
8.65024e-20
1.98204e-20
6.3964e-20
1.88582e-20
4.43284e-20
1.5241e-20
2.96154e-20
1.10383e-20
1.97857e-20
7.42838e-21
4.88184e-21
1.32063e-20
0
6.41074e-14
-2.58641e-13
2.56478e-12
-3.9602e-13
7.12405e-12
-1.04321e-16
5.33748e-12
-6.99447e-17
3.68276e-16
-7.57479e-17
2.56436e-16
-8.81412e-17
2.0984e-16
-9.05776e-17
1.79891e-16
-8.15435e-17
1.31091e-16
-6.26042e-17
7.89668e-17
-3.58011e-17
3.67936e-17
-1.16239e-17
1.04777e-17
-1.43753e-18
1.15797e-18
-3.54338e-20
-3.04646e-20
1.65172e-20
-1.38491e-21
2.99736e-20
2.66701e-21
3.02971e-20
6.62833e-21
2.46944e-20
8.35952e-21
1.7747e-20
7.90175e-21
1.1711e-20
6.26265e-21
7.28617e-21
4.39565e-21
4.45062e-21
2.82943e-21
1.73393e-21
2.91325e-21
0
5.93548e-14
-1.40973e-13
2.68947e-12
-3.12569e-13
7.34868e-12
-2.73676e-13
6.08626e-12
-3.25502e-17
1.15005e-12
-3.91099e-17
2.61696e-16
-4.33926e-17
2.12847e-16
-4.50565e-17
1.84149e-16
-4.44974e-17
1.35204e-16
-3.48617e-17
8.16058e-17
-1.92154e-17
3.77141e-17
-5.2507e-18
9.84317e-18
-4.47295e-19
7.6298e-19
-7.54762e-21
-1.27051e-20
3.59527e-21
-2.09748e-22
6.53268e-21
1.22352e-21
6.60272e-21
2.70647e-21
5.24671e-21
3.31521e-21
3.58287e-21
3.05693e-21
2.18369e-21
2.35357e-21
1.20952e-21
1.5925e-21
6.17547e-22
9.77147e-22
5.57465e-22
3.46894e-22
1.66112e-14
4.36565e-14
5.66867e-14
1.37604e-12
1.82432e-13
7.251e-12
1.43104e-13
6.12631e-12
0
1.39456e-12
4.38383e-18
6.8058e-16
8.67226e-20
2.15881e-16
-2.94911e-18
1.85702e-16
-5.02557e-18
1.33168e-16
-5.13397e-18
7.87654e-17
-2.96287e-18
3.28797e-17
-6.52095e-19
6.80003e-18
-3.37947e-20
3.48428e-19
-4.96799e-22
-2.3948e-21
3.8507e-22
-4.93188e-24
6.09034e-22
5.31749e-22
5.58472e-22
1.05937e-21
3.77725e-22
1.23255e-21
1.92158e-22
1.09348e-21
5.99856e-23
8.11879e-22
-1.98848e-23
5.28781e-22
-6.99911e-23
3.11318e-22
1.69476e-22
-7.93118e-23
2.8992e-15
4.16729e-14
7.95447e-14
8.32536e-14
6.3247e-13
6.65163e-12
6.50756e-13
6.12256e-12
0
5.68878e-13
4.11887e-17
1.13512e-15
3.75891e-17
2.18125e-16
3.72254e-17
1.78561e-16
2.87739e-17
1.21145e-16
1.80062e-17
6.60367e-17
7.18542e-18
2.33975e-17
1.11676e-18
3.47645e-18
3.67419e-20
1.02082e-19
1.40843e-22
-1.53744e-22
3.6508e-24
-2.31411e-24
-3.05434e-22
2.33817e-22
-4.62246e-22
3.97343e-22
-4.64776e-22
4.31054e-22
-3.88127e-22
3.64035e-22
-2.88859e-22
2.58327e-22
-1.97921e-22
1.60582e-22
-1.27273e-22
8.98397e-23
4.61519e-23
-7.78821e-23
3.64674e-15
3.8948e-14
6.17673e-14
2.90131e-14
3.15729e-13
8.77255e-15
7.57481e-14
0
0
0
1.44619e-17
8.31262e-16
7.04225e-17
2.38529e-16
6.38645e-17
1.63616e-16
4.82711e-17
1.01297e-16
2.7307e-17
4.84527e-17
8.07956e-18
1.29233e-17
6.91462e-19
1.11897e-18
9.34317e-21
1.48906e-20
3.17017e-23
-2.08114e-24
1.07379e-24
2.83133e-23
-3.19564e-22
9.60698e-23
-3.975e-22
1.40372e-22
-3.55525e-22
1.40809e-22
-2.66698e-22
1.11668e-22
-1.77395e-22
7.47334e-23
-1.07806e-22
4.38206e-23
-6.10318e-23
2.30782e-23
1.11176e-23
-3.26469e-23
3.02653e-15
3.62954e-14
4.37316e-15
3.16028e-14
2.48458e-15
5.3275e-16
5.27436e-16
5.8895e-17
1.7667e-16
2.35624e-16
1.46578e-16
3.08657e-16
9.22096e-17
2.25555e-16
7.49822e-17
1.36386e-16
5.13414e-17
7.60688e-17
2.22759e-17
2.85044e-17
3.73832e-18
4.57589e-18
1.27166e-19
1.68954e-19
5.35808e-22
7.39242e-22
7.57434e-23
5.83187e-26
-1.11008e-22
1.31142e-23
-2.03778e-22
3.51378e-23
-2.12176e-22
4.57175e-23
-1.71495e-22
4.21814e-23
-1.17935e-22
3.10891e-23
-7.20224e-23
1.93944e-23
-4.00625e-23
1.06018e-23
-2.0653e-23
5.19852e-24
2.3264e-24
-9.99681e-24
2.95006e-15
2.70599e-14
5.29235e-15
3.06008e-14
8.64668e-16
8.69173e-15
2.57502e-16
2.09874e-15
1.30235e-16
4.88443e-16
1.08797e-16
2.26874e-16
9.51823e-17
1.54284e-16
7.03473e-17
9.68201e-17
3.80618e-17
4.47633e-17
9.90408e-18
1.06155e-17
6.70069e-19
7.37615e-19
6.65554e-21
8.36634e-21
7.71033e-24
1.05003e-23
2.05259e-24
1.06685e-25
-7.5603e-23
4.83615e-24
-1.01062e-22
1.13133e-23
-9.07472e-23
1.33884e-23
-6.60395e-23
1.13557e-23
-4.143e-23
7.71702e-24
-2.31492e-23
4.43984e-24
-1.17678e-23
2.23598e-24
-5.52719e-24
1.00838e-24
4.14146e-25
-2.42776e-24
1.93821e-15
9.42083e-15
4.38643e-15
1.65224e-14
1.62692e-15
9.73015e-15
4.66701e-16
2.84843e-15
1.45495e-16
6.04752e-16
9.49994e-17
1.97288e-16
7.36037e-17
1.04537e-16
4.60591e-17
5.22531e-17
1.60125e-17
1.57591e-17
1.77545e-18
1.68141e-18
3.44047e-20
3.54151e-20
8.8241e-23
1.05926e-22
1.96096e-23
6.99006e-26
-2.18683e-23
-1.7853e-24
-4.05837e-23
1.27683e-24
-4.16018e-23
3.14033e-24
-3.25781e-23
3.45877e-24
-2.12793e-23
2.69583e-24
-1.20891e-23
1.67649e-24
-6.12921e-24
8.80119e-25
-2.82398e-24
4.03348e-25
-1.19904e-24
1.65065e-25
6.13426e-26
-4.74552e-25
4.81382e-16
8.0434e-16
1.86624e-15
2.88482e-15
1.57613e-15
3.39934e-15
4.97488e-16
1.72236e-15
1.35278e-16
4.59904e-16
6.79175e-17
1.29693e-16
4.06091e-17
5.09055e-17
1.67447e-17
1.60261e-17
2.65049e-18
2.2089e-18
8.66087e-20
7.25592e-20
4.06398e-22
3.92852e-22
3.94764e-25
4.48883e-25
2.10439e-25
5.63516e-26
-1.35177e-23
-1.52608e-24
-1.68238e-23
2.10383e-25
-1.44233e-23
7.3827e-25
-9.92297e-24
7.74968e-25
-5.78681e-24
5.54592e-25
-2.95091e-24
3.1302e-25
-1.34361e-24
1.48218e-25
-5.54858e-25
6.09778e-26
-2.10491e-25
2.23053e-26
7.37901e-27
-7.41691e-26
2.97589e-17
1.40751e-17
2.69934e-16
8.39396e-17
3.92915e-16
1.94395e-16
2.17611e-16
1.86386e-16
7.23903e-17
9.7327e-17
2.99471e-17
3.63706e-17
1.21357e-17
1.11487e-17
2.41574e-18
1.7993e-18
1.18539e-19
8.2578e-20
9.42844e-22
7.1265e-22
1.63339e-24
1.46027e-24
7.02047e-25
3.0761e-25
-3.7043e-24
-1.08852e-24
-6.07002e-24
-9.0198e-25
-5.79661e-24
-2.55946e-26
-4.24726e-24
1.42705e-25
-2.5628e-24
1.48193e-25
-1.32326e-24
9.73456e-26
-5.99138e-25
4.93921e-26
-2.41976e-25
2.08108e-26
-8.83456e-26
7.56455e-27
-2.95023e-26
2.42969e-27
7.0173e-28
-9.11007e-27
8.49356e-19
2.92327e-19
8.75282e-18
1.03395e-18
1.80607e-17
2.08064e-18
2.11967e-17
3.06279e-18
1.30568e-17
3.53357e-18
5.85548e-18
2.37244e-18
1.44731e-18
6.50755e-19
1.03183e-19
5.03645e-20
1.30832e-21
7.5997e-22
3.53243e-24
2.66131e-24
1.37491e-24
4.95215e-27
-7.26138e-25
-3.39994e-25
-2.03573e-24
-6.756e-25
-2.21783e-24
-4.25013e-25
-1.69919e-24
-8.40427e-26
-1.06529e-24
2.12891e-26
-5.58871e-25
2.37989e-26
-2.52481e-25
1.4392e-26
-1.00135e-25
6.48984e-27
-3.53298e-26
2.39236e-27
-1.12109e-26
7.53263e-28
-3.23411e-27
2.07782e-28
5.11288e-29
-8.57654e-28
3.94268e-20
1.01209e-20
2.73917e-19
3.85328e-20
4.147e-19
3.47258e-20
4.99867e-19
3.10667e-20
5.4344e-19
3.25527e-20
3.08854e-19
2.61363e-20
4.60703e-20
6.40359e-21
1.19975e-21
2.98476e-22
5.76381e-24
2.76878e-24
1.1719e-26
8.92808e-27
7.41954e-27
4.73571e-27
-5.64709e-25
-2.90527e-25
-8.30807e-25
-3.18684e-25
-7.00661e-25
-1.72053e-25
-4.33755e-25
-4.41889e-26
-2.28193e-25
1.96445e-27
-1.02525e-25
3.1501e-27
-3.9879e-26
1.77465e-27
-1.3614e-26
7.01032e-28
-4.1145e-27
2.20989e-28
-1.10973e-27
5.8693e-29
-2.69801e-28
1.34969e-29
2.73875e-30
-5.98375e-29
9.66984e-22
7.59893e-23
9.58962e-21
8.49612e-22
1.12984e-20
7.17465e-22
8.50578e-21
4.32501e-22
5.54434e-21
1.88364e-22
2.61709e-21
7.51705e-23
3e-22
1.39795e-23
5.49905e-24
6.97845e-25
2.31643e-26
8.4253e-27
9.14365e-27
7.33961e-27
-1.14313e-25
-7.93634e-26
-2.64344e-25
-1.52729e-25
-2.86925e-25
-1.29589e-25
-1.96984e-25
-6.20355e-26
-9.91728e-26
-1.66461e-26
-4.22326e-26
-5.45337e-28
-1.5838e-26
3.33779e-28
-5.18307e-27
1.81896e-28
-1.48689e-27
6.15751e-29
-3.74569e-28
1.60153e-29
-8.32263e-29
3.44699e-30
-1.64745e-29
6.3219e-31
1.00824e-31
-2.94611e-30
4.83965e-24
4.56538e-26
1.14609e-22
1.74927e-24
1.49386e-22
2.81081e-24
8.74555e-23
2.24949e-24
3.05641e-23
8.21228e-25
8.83648e-24
2.19156e-25
9.99361e-25
3.69465e-26
2.1185e-26
1.9894e-27
6.11214e-27
5.8595e-27
-1.64692e-26
-1.42756e-26
-6.56241e-26
-5.03578e-26
-9.98025e-26
-6.57441e-26
-8.80083e-26