/*--------------------------------*- C++ -*----------------------------------*\
  =========                 |
  \\      /  F ield         | OpenFOAM: The Open Source CFD Toolbox
   \\    /   O peration     | Website:  https://openfoam.org
    \\  /    A nd           | Version:  9
     \\/     M anipulation  |
\*---------------------------------------------------------------------------*/
FoamFile
{
    format      ascii;
    class       volScalarField;
    location    "5.89";
    object      p;
}
// * * * * * * * * * * * * * * * * * * * * * * * * * * * * * * * * * * * * * //

dimensions      [1 -1 -2 0 0 0 0];

internalField   nonuniform List<scalar> 
2268
(
725.618
725.889
726.301
726.855
727.535
728.326
729.212
730.177
731.202
732.267
733.352
734.434
735.49
736.489
737.395
738.176
738.851
739.463
740.142
740.762
741.322
741.951
742.267
666.696
666.953
667.36
667.911
668.593
669.39
670.283
671.255
672.288
673.363
674.457
675.548
676.608
677.606
678.511
679.304
680.041
680.785
681.609
682.264
682.659
683.137
683.466
607.735
607.986
608.389
608.938
609.624
610.427
611.33
612.314
613.36
614.45
615.561
616.669
617.745
618.759
619.687
620.518
621.311
622.067
622.931
623.609
623.915
624.344
624.692
548.731
548.987
549.392
549.942
550.633
551.446
552.362
553.362
554.427
555.537
556.671
557.803
558.907
559.955
560.928
561.821
562.693
563.43
564.239
564.796
565.12
565.614
565.99
489.686
489.952
490.365
490.923
491.623
492.449
493.382
494.402
495.49
496.626
497.787
498.95
500.091
501.186
502.22
503.202
504.237
505.393
506.036
506.439
506.831
506.99
507.358
430.601
430.879
431.305
431.875
432.589
433.433
434.387
435.432
436.549
437.715
438.908
440.107
441.291
442.44
443.547
444.629
445.821
447.436
448.176
448.58
448.803
448.473
448.788
371.476
371.768
372.211
372.797
373.528
374.393
375.374
376.449
377.602
378.802
380.031
381.269
382.501
383.71
384.893
386.067
387.347
389.147
390.275
390.701
390.538
390.027
390.256
312.312
312.615
313.075
313.681
314.432
315.322
316.334
317.448
318.644
319.886
321.155
322.436
323.72
324.995
326.253
327.509
328.841
330.543
331.963
332.46
332.101
331.688
331.774
739.597
739.379
738.701
737.655
736.248
734.748
733.086
731.292
729.306
727.123
725.038
723.663
722.475
720.867
721.078
720.831
719.982
719.667
719.352
681.31
680.702
679.953
678.894
677.556
676.086
674.415
672.576
670.5
668.323
666.318
665.008
664.044
662.433
661.891
661.664
661.006
660.801
660.649
623.07
622.154
621.246
620.115
618.763
617.258
615.578
613.707
611.593
609.445
607.503
606.302
605.312
603.875
603.03
602.702
602.087
601.988
601.967
564.642
563.691
562.62
561.399
560.01
558.465
556.757
554.891
552.842
550.711
548.615
547.474
546.514
545.802
544.396
543.93
543.172
543.226
543.346
506.073
505.17
504.007
502.731
501.285
499.704
498.008
496.184
494.23
492.295
490.529
489.287
488.678
488.506
485.89
485.279
484.368
484.556
484.731
447.558
446.626
445.387
444.059
442.579
440.962
439.272
437.503
435.697
434.243
433.483
432.127
431.493
430.728
427.464
426.721
425.993
425.974
426.085
389.12
388.064
386.76
385.405
383.891
382.227
380.526
378.82
377.17
376.146
376.168
375.077
374.173
372.362
369.051
368.187
367.755
367.283
367.314
330.84
329.432
328.138
326.779
325.229
323.488
321.755
320.112
318.623
317.806
318.187
317.615
316.281
313.566
310.578
309.584
309.394
308.423
308.398
219.741
220.05
220.537
221.177
221.964
222.9
223.973
225.162
226.443
227.764
229.101
230.457
231.835
233.22
234.594
235.959
237.338
238.82
240.088
240.723
240.752
240.698
240.865
95.9668
96.307
96.8016
97.4097
98.0907
98.9077
99.8736
100.949
102.113
103.369
104.705
106.073
107.437
108.776
110.079
111.369
112.746
114.2
115.458
116.248
116.626
116.86
117.194
17.4196
17.631
17.8366
18.11
18.4446
18.8184
19.2375
19.6915
20.1855
20.7592
21.4155
22.1085
22.7628
23.3736
23.9534
24.5265
25.2237
25.92
26.49
26.9096
27.1365
27.2348
27.466
-0.56245
-0.558355
-0.594164
-0.597315
-0.471565
-0.395638
-0.353864
-0.322162
-0.265235
-0.231862
-0.210534
-0.177587
-0.156756
-0.139184
-0.125714
-0.128378
-0.169796
-0.319149
-0.512697
-0.495404
-0.461817
-0.468907
-0.479492
-0.832929
-0.83317
-0.831651
-0.830835
-0.811518
-0.788093
-0.771661
-0.755601
-0.728862
-0.707344
-0.694285
-0.685731
-0.682776
-0.684336
-0.692171
-0.706981
-0.72669
-0.758208
-0.798093
-0.808187
-0.809802
-0.810758
-0.810607
-1.09669
-1.09712
-1.08946
-1.09254
-1.12119
-1.13422
-1.14012
-1.13896
-1.13998
-1.13561
-1.12961
-1.12499
-1.12242
-1.12114
-1.11927
-1.11375
-1.10216
-1.0842
-1.0671
-1.07439
-1.06728
-1.053
-1.05065
-1.27049
-1.27197
-1.27277
-1.27027
-1.27193
-1.27175
-1.27378
-1.27694
-1.27945
-1.28238
-1.2847
-1.28631
-1.28641
-1.2855
-1.28255
-1.27678
-1.27193
-1.27025
-1.26583
-1.26153
-1.25526
-1.25478
-1.2598
-1.40051
-1.40058
-1.40311
-1.40398
-1.40131
-1.40061
-1.40149
-1.40341
-1.4055
-1.40755
-1.40924
-1.41051
-1.41103
-1.41067
-1.40933
-1.40739
-1.40699
-1.40785
-1.4055
-1.40236
-1.40532
-1.41142
-1.41101
-1.52677
-1.52691
-1.52835
-1.52882
-1.52804
-1.52792
-1.52869
-1.52994
-1.53138
-1.53291
-1.53424
-1.5353
-1.53593
-1.53616
-1.53636
-1.53744
-1.5388
-1.53912
-1.53715
-1.53663
-1.53968
-1.54039
-1.53899
-1.65293
-1.65313
-1.65391
-1.65431
-1.65424
-1.65444
-1.6551
-1.65604
-1.65711
-1.65829
-1.65945
-1.66043
-1.66113
-1.66164
-1.66245
-1.66423
-1.66576
-1.66589
-1.66543
-1.6656
-1.66615
-1.66542
-1.66461
-1.77891
-1.77916
-1.77964
-1.78
-1.78021
-1.78055
-1.78112
-1.78186
-1.78273
-1.78372
-1.78475
-1.78563
-1.7863
-1.78689
-1.7877
-1.78885
-1.78978
-1.79012
-1.79023
-1.79046
-1.79046
-1.79011
-1.78961
-1.90478
-1.90505
-1.90542
-1.90577
-1.90606
-1.90644
-1.90696
-1.90759
-1.90834
-1.90919
-1.91005
-1.91077
-1.9114
-1.91201
-1.91272
-1.91355
-1.91425
-1.91458
-1.91476
-1.91491
-1.91494
-1.9148
-1.91452
-2.03057
-2.03084
-2.03117
-2.0315
-2.03183
-2.03221
-2.0327
-2.03328
-2.03394
-2.03465
-2.03531
-2.03592
-2.0365
-2.03708
-2.0377
-2.03837
-2.03897
-2.03943
-2.03971
-2.03983
-2.03981
-2.03966
-2.03945
-2.15629
-2.15656
-2.15687
-2.15719
-2.15751
-2.15789
-2.15834
-2.15888
-2.15945
-2.16002
-2.16055
-2.16109
-2.16162
-2.16215
-2.16269
-2.16325
-2.1638
-2.16433
-2.16469
-2.16483
-2.1648
-2.16456
-2.16439
-2.28195
-2.28223
-2.28253
-2.28283
-2.28314
-2.28349
-2.2839
-2.28436
-2.28485
-2.28532
-2.28579
-2.28626
-2.28674
-2.28721
-2.28769
-2.28817
-2.28864
-2.28909
-2.28946
-2.28963
-2.28956
-2.28942
-2.2893
-2.40758
-2.40785
-2.40814
-2.40842
-2.40871
-2.40903
-2.40939
-2.40978
-2.41019
-2.41061
-2.41102
-2.41144
-2.41186
-2.41228
-2.4127
-2.41311
-2.4135
-2.41385
-2.41414
-2.4143
-2.41432
-2.41427
-2.41421
-2.53316
-2.53343
-2.5337
-2.53397
-2.53424
-2.53452
-2.53484
-2.53517
-2.53553
-2.53589
-2.53626
-2.53663
-2.537
-2.53736
-2.53773
-2.53808
-2.5384
-2.5387
-2.53893
-2.53908
-2.53914
-2.53914
-2.53912
-2.65871
-2.65896
-2.65922
-2.65947
-2.65972
-2.65998
-2.66025
-2.66055
-2.66085
-2.66117
-2.66149
-2.66182
-2.66214
-2.66246
-2.66278
-2.66308
-2.66336
-2.6636
-2.6638
-2.66394
-2.66401
-2.66405
-2.66405
-2.78423
-2.78446
-2.78471
-2.78494
-2.78516
-2.7854
-2.78564
-2.7859
-2.78616
-2.78644
-2.78672
-2.78701
-2.78729
-2.78757
-2.78785
-2.78811
-2.78834
-2.78855
-2.78873
-2.78886
-2.78894
-2.78898
-2.789
-2.90971
-2.90994
-2.91016
-2.91038
-2.91058
-2.91079
-2.911
-2.91123
-2.91146
-2.9117
-2.91195
-2.9122
-2.91245
-2.91269
-2.91293
-2.91316
-2.91336
-2.91355
-2.9137
-2.91382
-2.9139
-2.91395
-2.91397
-3.03517
-3.03538
-3.03559
-3.03579
-3.03597
-3.03615
-3.03634
-3.03654
-3.03674
-3.03696
-3.03717
-3.03739
-3.03761
-3.03782
-3.03803
-3.03823
-3.03841
-3.03857
-3.0387
-3.03881
-3.03889
-3.03894
-3.03897
-3.16061
-3.16081
-3.161
-3.16117
-3.16133
-3.16149
-3.16166
-3.16183
-3.16201
-3.1622
-3.16239
-3.16258
-3.16277
-3.16296
-3.16314
-3.16331
-3.16347
-3.16361
-3.16373
-3.16383
-3.1639
-3.16396
-3.16399
-3.28602
-3.28621
-3.28638
-3.28653
-3.28667
-3.28681
-3.28696
-3.28711
-3.28727
-3.28743
-3.2876
-3.28777
-3.28794
-3.2881
-3.28826
-3.28841
-3.28855
-3.28868
-3.28878
-3.28887
-3.28894
-3.28899
-3.28902
-3.41141
-3.41157
-3.41172
-3.41186
-3.41199
-3.41211
-3.41224
-3.41238
-3.41252
-3.41266
-3.41281
-3.41296
-3.4131
-3.41325
-3.41339
-3.41352
-3.41364
-3.41375
-3.41385
-3.41393
-3.41399
-3.41404
-3.41407
-3.53677
-3.53691
-3.53705
-3.53717
-3.53728
-3.5374
-3.53751
-3.53763
-3.53775
-3.53788
-3.53801
-3.53814
-3.53827
-3.5384
-3.53852
-3.53864
-3.53874
-3.53884
-3.53893
-3.539
-3.53906
-3.5391
-3.53913
-3.66211
-3.66224
-3.66236
-3.66247
-3.66256
-3.66266
-3.66277
-3.66287
-3.66298
-3.66309
-3.66321
-3.66332
-3.66344
-3.66355
-3.66366
-3.66376
-3.66386
-3.66394
-3.66402
-3.66408
-3.66414
-3.66418
-3.66421
-3.78744
-3.78755
-3.78765
-3.78774
-3.78783
-3.78792
-3.78801
-3.7881
-3.7882
-3.7883
-3.7884
-3.7885
-3.7886
-3.7887
-3.7888
-3.78889
-3.78897
-3.78905
-3.78912
-3.78918
-3.78923
-3.78927
-3.78929
-3.91276
-3.91285
-3.91293
-3.913
-3.91308
-3.91316
-3.91324
-3.91332
-3.91341
-3.9135
-3.91359
-3.91368
-3.91377
-3.91386
-3.91394
-3.91402
-3.9141
-3.91416
-3.91423
-3.91428
-3.91433
-3.91436
-3.91439
-4.03808
-4.03814
-4.0382
-4.03825
-4.03832
-4.03839
-4.03846
-4.03854
-4.03862
-4.0387
-4.03878
-4.03886
-4.03893
-4.03901
-4.03909
-4.03916
-4.03922
-4.03929
-4.03934
-4.03939
-4.03943
-4.03947
-4.0395
-4.16338
-4.16342
-4.16344
-4.16348
-4.16354
-4.16361
-4.16368
-4.16375
-4.16382
-4.16389
-4.16396
-4.16403
-4.1641
-4.16417
-4.16424
-4.1643
-4.16436
-4.16441
-4.16446
-4.16451
-4.16455
-4.16458
-4.16461
-4.28868
-4.28869
-4.28869
-4.28871
-4.28877
-4.28883
-4.28889
-4.28895
-4.28902
-4.28908
-4.28914
-4.28921
-4.28927
-4.28933
-4.28939
-4.28944
-4.2895
-4.28954
-4.28959
-4.28963
-4.28967
-4.2897
-4.28973
-4.41397
-4.41396
-4.41395
-4.41397
-4.41401
-4.41405
-4.4141
-4.41416
-4.41421
-4.41427
-4.41432
-4.41438
-4.41443
-4.41449
-4.41454
-4.41459
-4.41464
-4.41468
-4.41472
-4.41476
-4.4148
-4.41483
-4.41486
-4.53924
-4.53922
-4.5392
-4.53922
-4.53924
-4.53927
-4.53931
-4.53936
-4.53941
-4.53946
-4.53951
-4.53956
-4.5396
-4.53965
-4.53969
-4.53974
-4.53978
-4.53982
-4.53986
-4.53989
-4.53993
-4.53996
-4.53999
-4.6645
-4.66445
-4.66443
-4.66445
-4.66446
-4.66448
-4.66451
-4.66456
-4.6646
-4.66464
-4.66469
-4.66473
-4.66477
-4.66481
-4.66485
-4.66489
-4.66493
-4.66496
-4.665
-4.66503
-4.66506
-4.6651
-4.66513
-4.78973
-4.78965
-4.78962
-4.78963
-4.78965
-4.78967
-4.78971
-4.78975
-4.78979
-4.78983
-4.78987
-4.78991
-4.78994
-4.78998
-4.79001
-4.79004
-4.79008
-4.79011
-4.79014
-4.79017
-4.7902
-4.79024
-4.79027
-4.91491
-4.91481
-4.91477
-4.91479
-4.91482
-4.91486
-4.9149
-4.91494
-4.91498
-4.91502
-4.91505
-4.91509
-4.91512
-4.91515
-4.91517
-4.9152
-4.91523
-4.91525
-4.91528
-4.91531
-4.91535
-4.91538
-4.91542
-5.04006
-5.03993
-5.0399
-5.03994
-5.03999
-5.04005
-5.04009
-5.04013
-5.04017
-5.04021
-5.04024
-5.04027
-5.04029
-5.04032
-5.04034
-5.04036
-5.04038
-5.0404
-5.04043
-5.04045
-5.04049
-5.04053
-5.04057
-5.16513
-5.16502
-5.16504
-5.16511
-5.16518
-5.16524
-5.16529
-5.16534
-5.16537
-5.16541
-5.16543
-5.16546
-5.16548
-5.16549
-5.16551
-5.16552
-5.16554
-5.16555
-5.16557
-5.1656
-5.16563
-5.16568
-5.16573
-5.29014
-5.29008
-5.2902
-5.29031
-5.2904
-5.29046
-5.29051
-5.29055
-5.29058
-5.29061
-5.29063
-5.29065
-5.29066
-5.29068
-5.29069
-5.29069
-5.2907
-5.29071
-5.29072
-5.29074
-5.29078
-5.29084
-5.29089
-5.41517
-5.41522
-5.41544
-5.41557
-5.41565
-5.41571
-5.41575
-5.41578
-5.4158
-5.41582
-5.41583
-5.41584
-5.41585
-5.41586
-5.41586
-5.41586
-5.41586
-5.41586
-5.41586
-5.41586
-5.41592
-5.416
-5.41606
-5.54016
-5.5405
-5.54076
-5.54087
-5.54093
-5.54096
-5.54098
-5.54099
-5.54099
-5.541
-5.541
-5.54101
-5.54101
-5.54101
-5.54101
-5.541
-5.54099
-5.54098
-5.54095
-5.54091
-5.54101
-5.54117
-5.54125
-5.66561
-5.66639
-5.66627
-5.66625
-5.66624
-5.66623
-5.66621
-5.66621
-5.6662
-5.6662
-5.6662
-5.66619
-5.66619
-5.66619
-5.66618
-5.66618
-5.66616
-5.66614
-5.66608
-5.66597
-5.66602
-5.66632
-5.66642
240.931
240.709
240.241
239.592
117.186
116.954
116.603
116.214
27.4391
27.2972
27.1006
26.9211
-0.49908
-0.526881
-0.567747
-0.590872
-0.82179
-0.829645
-0.832709
-0.831905
-1.05313
-1.04937
-1.04115
-1.0393
-1.25239
-1.24762
-1.2431
-1.24354
-1.40838
-1.40888
-1.41004
-1.4114
-1.53944
-1.54042
-1.54117
-1.54093
-1.66472
-1.66488
-1.66498
-1.66479
-1.78955
-1.78951
-1.78941
-1.78921
-1.91441
-1.91432
-1.9142
-1.91404
-2.03935
-2.03928
-2.0392
-2.03911
-2.16431
-2.16427
-2.16423
-2.1642
-2.28925
-2.28922
-2.28921
-2.28919
-2.41418
-2.41416
-2.41415
-2.41414
-2.53911
-2.5391
-2.53909
-2.53908
-2.66405
-2.66404
-2.66403
-2.66402
-2.789
-2.789
-2.78899
-2.78898
-2.91398
-2.91398
-2.91397
-2.91396
-3.03898
-3.03898
-3.03897
-3.03896
-3.164
-3.164
-3.16399
-3.16398
-3.28903
-3.28903
-3.28903
-3.28902
-3.41408
-3.41408
-3.41408
-3.41407
-3.53914
-3.53915
-3.53915
-3.53914
-3.66422
-3.66422
-3.66422
-3.66422
-3.78931
-3.78931
-3.78932
-3.78932
-3.91441
-3.91441
-3.91442
-3.91442
-4.03951
-4.03952
-4.03953
-4.03953
-4.16463
-4.16464
-4.16464
-4.16465
-4.28975
-4.28976
-4.28977
-4.28978
-4.41488
-4.41489
-4.4149
-4.41491
-4.54001
-4.54002
-4.54003
-4.54004
-4.66515
-4.66516
-4.66517
-4.66519
-4.79029
-4.79031
-4.79032
-4.79033
-4.91544
-4.91546
-4.91547
-4.91548
-5.0406
-5.04061
-5.04063
-5.04064
-5.16575
-5.16577
-5.16579
-5.1658
-5.29092
-5.29094
-5.29095
-5.29097
-5.41609
-5.41611
-5.41612
-5.41613
-5.54128
-5.54129
-5.5413
-5.54131
-5.66645
-5.66646
-5.66646
-5.66647
239.077
237.75
236.544
235.194
233.705
232.095
230.363
228.647
227.121
226.301
226.198
225.587
223.938
221.288
218.934
218.027
218.021
216.832
216.245
115.478
113.975
112.767
111.581
110.377
109.22
107.94
106.439
104.846
103.376
102.226
101.073
99.6643
98.0329
96.5977
95.742
95.3973
94.2243
93.5277
26.5499
25.7794
25.2751
24.8208
24.399
24.0077
23.6136
23.1046
22.3296
21.2388
20.343
19.7053
19.1543
18.6802
18.2236
17.6879
17.2886
16.785
16.4751
-0.598472
-0.600445
-0.605108
-0.591829
-0.478492
-0.477076
-0.520711
-0.532748
-0.54303
-0.553516
-0.586568
-0.614739
-0.623782
-0.61677
-0.606249
-0.603399
-0.615202
-0.595942
-0.590763
-0.828819
-0.825258
-0.823078
-0.820836
-0.79536
-0.776692
-0.779609
-0.784831
-0.793463
-0.805473
-0.817722
-0.827757
-0.835337
-0.840589
-0.842786
-0.842055
-0.840304
-0.839348
-0.836396
-1.03819
-1.03645
-1.03802
-1.04078
-1.05544
-1.06443
-1.0662
-1.07183
-1.07561
-1.07914
-1.08126
-1.08615
-1.08998
-1.09128
-1.09107
-1.0923
-1.09148
-1.0876
-1.08557
-1.24868
-1.2496
-1.24997
-1.24642
-1.26094
-1.27015
-1.27207
-1.27092
-1.26776
-1.26456
-1.26322
-1.26258
-1.26286
-1.2629
-1.2628
-1.2631
-1.2624
-1.26145
-1.26127
-1.41299
-1.413
-1.41147
-1.40829
-1.40848
-1.40369
-1.40011
-1.39653
-1.39307
-1.39089
-1.38947
-1.389
-1.38996
-1.39085
-1.39204
-1.39266
-1.39339
-1.39396
-1.39309
-1.53954
-1.53832
-1.53703
-1.53591
-1.53356
-1.52995
-1.52652
-1.52329
-1.52161
-1.52049
-1.51905
-1.51803
-1.51777
-1.51785
-1.51868
-1.51927
-1.5199
-1.51993
-1.51941
-1.66409
-1.66282
-1.66141
-1.66028
-1.65856
-1.65624
-1.65379
-1.65227
-1.65265
-1.65238
-1.65071
-1.64872
-1.64644
-1.64538
-1.64536
-1.64578
-1.64634
-1.64625
-1.64595
-1.78871
-1.78751
-1.78619
-1.7851
-1.78395
-1.78288
-1.78213
-1.78263
-1.78284
-1.78155
-1.77979
-1.77804
-1.77574
-1.77417
-1.77291
-1.77237
-1.77268
-1.77253
-1.77247
-1.91371
-1.91289
-1.91197
-1.91107
-1.91013
-1.90969
-1.91044
-1.91111
-1.91007
-1.90825
-1.90716
-1.90625
-1.90492
-1.90336
-1.90152
-1.89989
-1.8989
-1.89858
-1.89886
-2.03897
-2.03886
-2.03845
-2.03773
-2.03704
-2.03655
-2.03692
-2.03671
-2.03554
-2.0346
-2.03423
-2.03331
-2.03192
-2.03052
-2.02909
-2.02742
-2.02568
-2.02518
-2.02553
-2.16416
-2.16441
-2.16451
-2.16412
-2.16347
-2.16272
-2.16212
-2.16165
-2.16087
-2.16024
-2.15975
-2.15876
-2.15746
-2.15629
-2.15525
-2.1542
-2.15321
-2.15279
-2.15309
-2.28918
-2.28933
-2.28954
-2.28938
-2.2886
-2.28782
-2.28725
-2.28672
-2.28608
-2.28545
-2.28485
-2.28401
-2.28304
-2.28213
-2.28139
-2.28093
-2.28061
-2.28043
-2.28062
-2.41412
-2.41416
-2.41417
-2.41395
-2.41344
-2.41286
-2.41234
-2.41183
-2.41126
-2.41068
-2.41009
-2.40939
-2.40862
-2.40792
-2.40738
-2.40709
-2.40704
-2.40698
-2.40698
-2.53905
-2.53903
-2.53895
-2.53873
-2.53834
-2.53788
-2.53743
-2.53697
-2.53647
-2.53595
-2.53541
-2.53481
-2.53419
-2.53363
-2.53318
-2.5329
-2.53276
-2.5327
-2.53273
-2.66399
-2.66394
-2.66384
-2.66363
-2.66331
-2.66293
-2.66254
-2.66213
-2.66169
-2.66123
-2.66076
-2.66025
-2.65974
-2.65928
-2.65888
-2.65858
-2.65836
-2.65824
-2.65825
-2.78894
-2.78888
-2.78877
-2.78859
-2.78833
-2.78802
-2.78768
-2.78732
-2.78693
-2.78654
-2.78613
-2.7857
-2.78528
-2.78489
-2.78453
-2.7842
-2.7839
-2.78368
-2.78356
-2.91392
-2.91386
-2.91375
-2.91359
-2.91338
-2.91312
-2.91283
-2.91252
-2.91219
-2.91186
-2.91151
-2.91116
-2.91082
-2.91049
-2.91018
-2.90987
-2.90954
-2.9093
-2.90906
-3.03893
-3.03886
-3.03876
-3.03862
-3.03844
-3.03823
-3.03798
-3.03773
-3.03746
-3.03718
-3.0369
-3.03662
-3.03635
-3.03609
-3.03586
-3.03564
-3.03541
-3.03532
-3.03511
-3.16395
-3.16389
-3.1638
-3.16368
-3.16353
-3.16335
-3.16315
-3.16294
-3.16272
-3.1625
-3.16228
-3.16206
-3.16187
-3.1617
-3.16156
-3.16146
-3.16139
-3.16158
-3.16136
-3.28899
-3.28894
-3.28887
-3.28877
-3.28864
-3.2885
-3.28833
-3.28816
-3.28799
-3.28781
-3.28764
-3.28749
-3.28736
-3.28727
-3.28723
-3.28726
-3.28734
-3.28768
-3.28743
-3.41405
-3.41401
-3.41395
-3.41387
-3.41377
-3.41365
-3.41352
-3.41339
-3.41325
-3.41312
-3.413
-3.4129
-3.41283
-3.4128
-3.41284
-3.41296
-3.41317
-3.41348
-3.41332
-3.53913
-3.5391
-3.53905
-3.53898
-3.5389
-3.53881
-3.53871
-3.53861
-3.53851
-3.53841
-3.53833
-3.53828
-3.53825
-3.53827
-3.53835
-3.53852
-3.5388
-3.53906
-3.53907
-3.66421
-3.66419
-3.66415
-3.6641
-3.66404
-3.66397
-3.6639
-3.66383
-3.66375
-3.66369
-3.66365
-3.66362
-3.66362
-3.66367
-3.66377
-3.66393
-3.66417
-3.66431
-3.66428
-3.78931
-3.7893
-3.78927
-3.78924
-3.78919
-3.78914
-3.78909
-3.78904
-3.78899
-3.78896
-3.78894
-3.78893
-3.78896
-3.78901
-3.78909
-3.78921
-3.78933
-3.78929
-3.78898
-3.91442
-3.91441
-3.9144
-3.91437
-3.91434
-3.91431
-3.91428
-3.91425
-3.91422
-3.91421
-3.91421
-3.91422
-3.91425
-3.9143
-3.91437
-3.91443
-3.91444
-3.91428
-3.91383
-4.03954
-4.03954
-4.03953
-4.03952
-4.0395
-4.03948
-4.03946
-4.03945
-4.03944
-4.03944
-4.03946
-4.03948
-4.03952
-4.03957
-4.03962
-4.03964
-4.03959
-4.03938
-4.03891
-4.16466
-4.16466
-4.16467
-4.16466
-4.16466
-4.16465
-4.16465
-4.16465
-4.16466
-4.16467
-4.1647
-4.16473
-4.16477
-4.16482
-4.16485
-4.16486
-4.16479
-4.16458
-4.16417
-4.28979
-4.2898
-4.28981
-4.28981
-4.28982
-4.28982
-4.28983
-4.28984
-4.28986
-4.28989
-4.28992
-4.28997
-4.29001
-4.29006
-4.29008
-4.29007
-4.28999
-4.28977
-4.28942
-4.41492
-4.41494
-4.41495
-4.41496
-4.41498
-4.41499
-4.41501
-4.41503
-4.41506
-4.41509
-4.41514
-4.41519
-4.41524
-4.41529
-4.41531
-4.41528
-4.41516
-4.4149
-4.41452
-4.54006
-4.54008
-4.5401
-4.54012
-4.54014
-4.54016
-4.54018
-4.54021
-4.54025
-4.54029
-4.54035
-4.54041
-4.54047
-4.54051
-4.54053
-4.54049
-4.54033
-4.54002
-4.53953
-4.66521
-4.66523
-4.66525
-4.66527
-4.6653
-4.66532
-4.66535
-4.66539
-4.66543
-4.66548
-4.66555
-4.66562
-4.66569
-4.66574
-4.66577
-4.66573
-4.66557
-4.66523
-4.66472
-4.79035
-4.79038
-4.79041
-4.79043
-4.79046
-4.79048
-4.79052
-4.79056
-4.79061
-4.79067
-4.79074
-4.79082
-4.7909
-4.79098
-4.79103
-4.79102
-4.79089
-4.79056
-4.79006
-4.91551
-4.91554
-4.91556
-4.91559
-4.91562
-4.91565
-4.91568
-4.91572
-4.91578
-4.91584
-4.91592
-4.91601
-4.91611
-4.91622
-4.91631
-4.91635
-4.91627
-4.91596
-4.91542
-5.04066
-5.04069
-5.04072
-5.04075
-5.04077
-5.0408
-5.04084
-5.04088
-5.04094
-5.041
-5.04109
-5.04119
-5.04131
-5.04145
-5.0416
-5.04171
-5.04171
-5.04141
-5.04083
-5.16582
-5.16585
-5.16588
-5.1659
-5.16593
-5.16596
-5.16599
-5.16603
-5.16608
-5.16615
-5.16624
-5.16635
-5.16649
-5.16666
-5.16687
-5.16709
-5.16721
-5.16693
-5.16631
-5.29099
-5.29101
-5.29103
-5.29106
-5.29108
-5.2911
-5.29114
-5.29117
-5.29122
-5.29128
-5.29136
-5.29147
-5.29162
-5.29183
-5.2921
-5.29247
-5.29278
-5.29256
-5.29192
-5.41615
-5.41617
-5.41619
-5.41621
-5.41623
-5.41625
-5.41627
-5.4163
-5.41634
-5.41639
-5.41646
-5.41655
-5.41669
-5.4169
-5.41723
-5.41777
-5.41845
-5.41836
-5.41784
-5.54132
-5.54133
-5.54134
-5.54136
-5.54137
-5.54138
-5.5414
-5.54142
-5.54145
-5.54148
-5.54153
-5.54159
-5.54169
-5.54185
-5.54216
-5.54282
-5.54406
-5.54446
-5.54448
-5.66648
-5.66649
-5.66649
-5.6665
-5.66651
-5.66652
-5.66653
-5.66655
-5.66656
-5.66658
-5.6666
-5.66662
-5.66667
-5.66674
-5.66692
-5.66741
-5.66882
-5.67055
-5.67208
)
;

boundaryField
{
    leftWall
    {
        type            calculated;
        value           nonuniform List<scalar> 
50
(
725.618
666.696
607.735
548.731
489.686
430.601
371.476
312.312
219.741
95.9668
17.4196
-0.56245
-0.832929
-1.09669
-1.27049
-1.40051
-1.52677
-1.65293
-1.77891
-1.90478
-2.03057
-2.15629
-2.28195
-2.40758
-2.53316
-2.65871
-2.78423
-2.90971
-3.03517
-3.16061
-3.28602
-3.41141
-3.53677
-3.66211
-3.78744
-3.91276
-4.03808
-4.16338
-4.28868
-4.41397
-4.53924
-4.6645
-4.78973
-4.91491
-5.04006
-5.16513
-5.29014
-5.41517
-5.54016
-5.66561
)
;
    }
    rightWall
    {
        type            calculated;
        value           nonuniform List<scalar> 
50
(
719.352
660.649
601.967
543.346
484.731
426.085
367.314
308.398
216.245
93.5277
16.4751
-0.590763
-0.836396
-1.08557
-1.26127
-1.39309
-1.51941
-1.64595
-1.77247
-1.89886
-2.02553
-2.15309
-2.28062
-2.40698
-2.53273
-2.65825
-2.78356
-2.90906
-3.03511
-3.16136
-3.28743
-3.41332
-3.53907
-3.66428
-3.78898
-3.91383
-4.03891
-4.16417
-4.28942
-4.41452
-4.53953
-4.66472
-4.79006
-4.91542
-5.04083
-5.16631
-5.29192
-5.41784
-5.54448
-5.67208
)
;
    }
    lowerWall
    {
        type            calculated;
        value           nonuniform List<scalar> 
62
(
755.048
755.318
755.731
756.285
756.964
757.755
758.641
759.606
760.631
761.696
762.781
763.864
764.92
765.918
766.824
767.606
768.28
768.893
769.541
770.091
770.652
771.32
771.64
742.267
683.466
624.692
565.99
507.358
448.788
390.256
331.774
303.528
303.307
302.838
302.19
739.597
681.31
623.07
564.642
506.073
447.558
389.12
330.84
768.768
768.63
768.027
766.966
765.503
763.924
762.261
760.468
758.482
756.3
754.349
753.072
751.768
750.082
750.466
750.219
749.37
749.05
748.689
)
;
    }
    atmosphere
    {
        type            calculated;
        value           nonuniform List<scalar> 
46
(
-5.72916
-5.72904
-5.72904
-5.72904
-5.72904
-5.72904
-5.72904
-5.72904
-5.72904
-5.72904
-5.72904
-5.72904
-5.72904
-5.72904
-5.72904
-5.72904
-5.72904
-5.72904
-5.72904
-5.72904
-5.72904
-5.72904
-5.72904
-5.72905
-5.72905
-5.72905
-5.72905
-5.72906
-5.72906
-5.72907
-5.72908
-5.72909
-5.7291
-5.72911
-5.72912
-5.72913
-5.72914
-5.72915
-5.72916
-5.72916
-5.72916
-5.72916
-5.72915
-5.72912
-5.72906
-5.7378
)
;
    }
    defaultFaces
    {
        type            empty;
    }
}


// ************************************************************************* //
