/*--------------------------------*- C++ -*----------------------------------*\
  =========                 |
  \\      /  F ield         | OpenFOAM: The Open Source CFD Toolbox
   \\    /   O peration     | Website:  https://openfoam.org
    \\  /    A nd           | Version:  9
     \\/     M anipulation  |
\*---------------------------------------------------------------------------*/
FoamFile
{
    format      ascii;
    class       surfaceScalarField;
    location    "8.41";
    object      alphaPhi0.water;
}
// * * * * * * * * * * * * * * * * * * * * * * * * * * * * * * * * * * * * * //

dimensions      [0 3 -1 0 0 0 0];

internalField   nonuniform List<scalar> 
4432
(
-1.60211e-07
1.60211e-07
-3.04504e-07
1.44295e-07
-4.35823e-07
1.31319e-07
-5.51961e-07
1.16139e-07
-6.50863e-07
9.89042e-08
-7.29819e-07
7.89561e-08
-7.86533e-07
5.67161e-08
-8.19708e-07
3.31782e-08
-8.30499e-07
1.07923e-08
-8.20046e-07
-1.04525e-08
-7.84591e-07
-3.5454e-08
-7.13794e-07
-7.07958e-08
-5.9386e-07
-1.19934e-07
-4.17724e-07
-1.76136e-07
-2.02336e-07
-2.15388e-07
-1.46548e-08
-1.87682e-07
2.97181e-08
-4.43728e-08
-1.23473e-07
1.53194e-07
-5.2218e-07
3.99376e-07
-1.03872e-06
5.15617e-07
-1.16732e-06
1.27396e-07
-8.0816e-07
-3.59168e-07
-8.08337e-07
-1.56812e-07
3.17022e-07
-2.9867e-07
2.86156e-07
-4.29396e-07
2.62048e-07
-5.4652e-07
2.33263e-07
-6.47809e-07
2.00197e-07
-7.30624e-07
1.61773e-07
-7.92563e-07
1.1866e-07
-8.3278e-07
7.33969e-08
-8.52014e-07
3.00287e-08
-8.50647e-07
-1.18189e-08
-8.26204e-07
-5.98967e-08
-7.72276e-07
-1.24725e-07
-6.80568e-07
-2.11643e-07
-5.48022e-07
-3.08683e-07
-3.89049e-07
-3.74362e-07
-2.50284e-07
-3.26447e-07
-2.13295e-07
-8.13611e-08
-3.16345e-07
2.56292e-07
-5.1019e-07
5.942e-07
-7.13047e-07
7.17555e-07
-7.91746e-07
2.05758e-07
-6.61998e-07
-4.8892e-07
-1.47034e-06
-1.53535e-07
4.70557e-07
-2.94205e-07
4.26828e-07
-4.2438e-07
3.92225e-07
-5.42767e-07
3.5165e-07
-6.47e-07
3.04432e-07
-7.34377e-07
2.4915e-07
-8.0236e-07
1.86645e-07
-8.4988e-07
1.20917e-07
-8.77211e-07
5.73585e-08
-8.84953e-07
-4.07686e-09
-8.71816e-07
-7.30353e-08
-8.33656e-07
-1.62886e-07
-7.64812e-07
-2.80488e-07
-6.62914e-07
-4.10582e-07
-5.36676e-07
-5.00592e-07
-4.18947e-07
-4.44181e-07
-3.74779e-07
-1.25508e-07
-4.31667e-07
3.13202e-07
-4.95589e-07
6.59384e-07
-5.19447e-07
7.40491e-07
-5.58744e-07
2.44905e-07
-5.05624e-07
-5.42047e-07
-1.97596e-06
-1.51572e-07
6.2213e-07
-2.92895e-07
5.68151e-07
-4.24157e-07
5.2349e-07
-5.44972e-07
4.72463e-07
-6.53202e-07
4.12664e-07
-7.4595e-07
3.41896e-07
-8.20493e-07
2.61186e-07
-8.75476e-07
1.75898e-07
-9.11092e-07
9.29712e-08
-9.28289e-07
1.31181e-08
-9.2682e-07
-7.45069e-08
-9.04183e-07
-1.85526e-07
-8.56117e-07
-3.28556e-07
-7.79386e-07
-4.87314e-07
-6.7605e-07
-6.0392e-07
-5.63865e-07
-5.5624e-07
-5.01541e-07
-1.87898e-07
-5.12319e-07
3.23935e-07
-5.01523e-07
6.49437e-07
-4.23354e-07
6.63065e-07
-4.0801e-07
2.29383e-07
-3.65438e-07
-5.84621e-07
-2.34119e-06
-1.5063e-07
7.72761e-07
-2.93668e-07
7.11188e-07
-4.27331e-07
6.57153e-07
-5.51798e-07
5.96928e-07
-6.65148e-07
5.26014e-07
-7.6431e-07
4.41055e-07
-8.46239e-07
3.43111e-07
-9.09277e-07
2.38932e-07
-9.53609e-07
1.37298e-07
-9.80597e-07
4.01022e-08
-9.91007e-07
-6.41001e-08
-9.83618e-07
-1.92918e-07
-9.55017e-07
-3.57158e-07
-9.00912e-07
-5.4142e-07
-8.17271e-07
-6.8756e-07
-7.04411e-07
-6.68479e-07
-6.12882e-07
-2.79723e-07
-5.80589e-07
2.91531e-07
-5.18947e-07
5.87802e-07
-3.83821e-07
5.28154e-07
-3.17563e-07
1.63582e-07
-2.31274e-07
-6.71272e-07
-2.57224e-06
-1.50677e-07
9.23438e-07
-2.96492e-07
8.57003e-07
-4.33541e-07
7.94203e-07
-5.62674e-07
7.26058e-07
-6.8214e-07
6.45479e-07
-7.88642e-07
5.47554e-07
-8.78734e-07
4.332e-07
-9.50394e-07
3.10588e-07
-1.00375e-06
1.90646e-07
-1.04061e-06
7.69619e-08
-1.06259e-06
-4.21212e-08
-1.06963e-06
-1.85879e-07
-1.0591e-06
-3.6769e-07
-1.02631e-06
-5.74209e-07
-9.63149e-07
-7.50725e-07
-8.55093e-07
-7.74892e-07
-7.22046e-07
-4.13741e-07
-6.49984e-07
2.19475e-07
-5.43793e-07
4.81618e-07
-3.75248e-07
3.59615e-07
-2.62818e-07
5.17866e-08
-7.68571e-08
-8.56251e-07
-2.64956e-06
-1.51602e-07
1.07504e-06
-3.01299e-07
1.0067e-06
-4.42445e-07
9.3535e-07
-5.7694e-07
8.60552e-07
-7.03209e-07
7.71749e-07
-8.17709e-07
6.62054e-07
-9.16543e-07
5.32034e-07
-9.97242e-07
3.91286e-07
-1.05975e-06
2.53152e-07
-1.10618e-06
1.23389e-07
-1.13886e-06
-9.43632e-09
-1.15874e-06
-1.65999e-07
-1.16421e-06
-3.62222e-07
-1.1512e-06
-5.87222e-07
-1.11015e-06
-7.91776e-07
-1.02156e-06
-8.63477e-07
-8.52523e-07
-5.73398e-07
-7.07259e-07
7.35124e-08
-5.61263e-07
3.24263e-07
-3.89018e-07
1.89082e-07
-2.03452e-07
-1.33294e-07
8.5836e-08
-1.14239e-06
-2.56328e-06
-1.56504e-07
1.23154e-06
-3.08377e-07
1.15857e-06
-4.53151e-07
1.08012e-06
-5.93364e-07
1.00077e-06
-7.2676e-07
9.05149e-07
-8.49552e-07
7.8485e-07
-9.57437e-07
6.39924e-07
-1.04742e-06
4.81271e-07
-1.11905e-06
3.24787e-07
-1.17435e-06
1.787e-07
-1.21627e-06
3.24866e-08
-1.24644e-06
-1.35828e-07
-1.26468e-06
-3.43981e-07
-1.26824e-06
-5.83665e-07
-1.24766e-06
-8.1235e-07
-1.18344e-06
-9.27697e-07
-1.01792e-06
-7.26114e-07
-7.86884e-07
-1.60433e-07
-5.75759e-07
1.10205e-07
-3.98619e-07
1.32791e-08
-1.25054e-07
-4.14014e-07
1.70685e-07
-1.44502e-06
-2.39215e-06
-9.89544e-07
9.87765e-07
-3.55545e-07
-6.33837e-07
5.31127e-07
-8.87199e-07
1.17759e-06
-6.47061e-07
1.6332e-06
-4.56581e-07
1.95181e-06
-3.23546e-07
2.12682e-06
-1.78571e-07
2.27998e-06
-1.54813e-07
2.34543e-06
-6.6655e-08
2.22798e-06
1.14309e-07
1.8477e-06
3.80273e-07
1.03567e-06
8.12015e-07
1.78209e-07
8.59238e-07
-1.81796e-07
3.60004e-07
-2.93629e-07
1.11833e-07
-2.72999e-07
-2.06307e-08
-2.98925e-07
2.5925e-08
-9.50965e-08
-2.03829e-07
-9.52238e-08
-5.8138e-07
1.5593e-06
5.19517e-08
-1.26637e-06
6.50693e-07
-1.48592e-06
1.10622e-06
-1.10258e-06
1.42024e-06
-7.70615e-07
1.63142e-06
-5.34735e-07
1.80799e-06
-3.55152e-07
1.9173e-06
-2.64197e-07
1.89428e-06
-4.37003e-08
1.70522e-06
3.02738e-07
1.43465e-06
6.46683e-07
1.03454e-06
1.21212e-06
5.6914e-07
1.32461e-06
2.08622e-07
7.22927e-07
-3.7206e-08
3.5766e-07
-2.06424e-07
1.48587e-07
-4.36037e-07
2.55404e-07
-4.40909e-07
-1.98104e-07
-5.35318e-07
-7.05642e-08
1.62986e-06
3.79455e-07
-1.7148e-06
7.65507e-07
-1.87196e-06
1.06774e-06
-1.40484e-06
1.29009e-06
-9.92977e-07
1.44745e-06
-6.92112e-07
1.57701e-06
-4.84705e-07
1.65095e-06
-3.38129e-07
1.59558e-06
1.15694e-08
1.37794e-06
5.20047e-07
1.13295e-06
8.90158e-07
9.46429e-07
1.39856e-06
7.526e-07
1.52627e-06
4.39425e-07
1.03921e-06
1.46298e-07
6.50787e-07
-1.07913e-07
4.02798e-07
-4.61207e-07
6.08913e-07
-5.87479e-07
-7.21136e-08
-1.12308e-06
4.22462e-07
1.2074e-06
6.71486e-07
-1.95872e-06
8.63117e-07
-2.06359e-06
1.04156e-06
-1.58329e-06
1.19018e-06
-1.14161e-06
1.29986e-06
-8.01869e-07
1.39022e-06
-5.75259e-07
1.44075e-06
-3.88699e-07
1.38099e-06
7.09033e-08
1.18151e-06
7.19546e-07
9.75321e-07
1.09597e-06
8.90297e-07
1.4842e-06
8.13445e-07
1.60607e-06
5.70317e-07
1.28354e-06
3.0073e-07
9.20794e-07
3.51578e-08
6.68367e-07
-3.55318e-07
9.97486e-07
-4.91756e-07
6.40276e-08
-1.61772e-06
8.0452e-07
4.02883e-07
8.87487e-07
-2.03896e-06
9.27609e-07
-2.1037e-06
1.01336e-06
-1.66902e-06
1.10287e-06
-1.2311e-06
1.17086e-06
-8.70044e-07
1.22764e-06
-6.32234e-07
1.26287e-06
-4.24264e-07
1.21644e-06
1.17292e-07
1.04992e-06
8.85066e-07
8.97061e-07
1.24958e-06
8.55473e-07
1.52579e-06
8.17163e-07
1.64438e-06
6.28863e-07
1.47105e-06
4.40575e-07
1.10189e-06
2.37028e-07
8.65382e-07
-1.13229e-07
1.34484e-06
-2.70618e-07
2.21498e-07
-1.88834e-06
9.63814e-07
-5.60125e-07
9.82382e-07
-2.05688e-06
9.48818e-07
-2.07013e-06
9.75972e-07
-1.69619e-06
1.02206e-06
-1.27719e-06
1.05489e-06
-9.02987e-07
1.08058e-06
-6.5806e-07
1.10596e-06
-4.49827e-07
1.08468e-06
1.37791e-07
9.5839e-07
1.01136e-06
8.55192e-07
1.35278e-06
8.4018e-07
1.5408e-06
8.19093e-07
1.66547e-06
6.6341e-07
1.62673e-06
5.43653e-07
1.21188e-06
4.64769e-07
9.50981e-07
2.15475e-07
1.58929e-06
1.49704e-08
4.22929e-07
-1.87337e-06
9.13251e-07
-1.47337e-06
9.76292e-07
-2.11992e-06
9.31197e-07
-2.02503e-06
9.27899e-07
-1.69291e-06
9.44741e-07
-1.29406e-06
9.48898e-07
-9.07143e-07
9.44728e-07
-6.53887e-07
9.55318e-07
-4.60415e-07
9.64583e-07
1.23697e-07
8.946e-07
1.06455e-06
8.36878e-07
1.4105e-06
8.42432e-07
1.53524e-06
8.31536e-07
1.67428e-06
7.06794e-07
1.72815e-06
6.62873e-07
1.24142e-06
6.59954e-07
9.63292e-07
5.34759e-07
1.70964e-06
3.10607e-07
6.50067e-07
-1.56276e-06
8.3446e-07
-2.30783e-06
9.28032e-07
-2.21349e-06
8.885e-07
-1.9855e-06
8.69625e-07
-1.67404e-06
8.68801e-07
-1.29324e-06
8.52302e-07
-8.90645e-07
8.23148e-07
-6.24731e-07
7.98979e-07
-4.36244e-07
8.37314e-07
7.26544e-08
8.47524e-07
1.04449e-06
8.40624e-07
1.41441e-06
8.6417e-07
1.5117e-06
8.54111e-07
1.67484e-06
7.8766e-07
1.7584e-06
8.36187e-07
1.20748e-06
7.82429e-07
1.01752e-06
8.06886e-07
1.68034e-06
5.75817e-07
8.84089e-07
-9.86945e-07
-3.27463e-07
1.55901e-06
-6.65113e-07
1.49623e-06
-9.95286e-07
1.4103e-06
-1.31645e-06
1.32193e-06
-1.62412e-06
1.21281e-06
-1.9124e-06
1.07313e-06
-2.17205e-06
8.99574e-07
-2.39466e-06
7.03871e-07
-2.57669e-06
5.06813e-07
-2.72143e-06
3.23446e-07
-2.83282e-06
1.43871e-07
-2.92002e-06
-4.86326e-08
-2.98528e-06
-2.78712e-07
-3.02896e-06
-5.39983e-07
-3.03543e-06
-8.05864e-07
-2.95065e-06
-1.01239e-06
-2.6612e-06
-1.01529e-06
-2.07023e-06
-7.4733e-07
-1.38926e-06
-5.62066e-07
-7.58427e-07
-6.1737e-07
-1.46717e-07
-1.03747e-06
1.52182e-08
-1.60515e-06
-2.02785e-06
-3.48143e-07
-2.80506e-07
1.33024e-06
-6.48385e-07
1.35116e-06
-1.01424e-06
1.28911e-06
-1.34413e-06
1.19863e-06
-1.65344e-06
1.10554e-06
-1.95959e-06
1.00517e-06
-2.24891e-06
8.7004e-07
-2.51235e-06
7.10634e-07
-2.73697e-06
5.40605e-07
-2.91079e-06
3.68903e-07
-3.02476e-06
1.93624e-07
-3.08743e-06
1.11254e-08
-3.12406e-06
-1.91441e-07
-3.15123e-06
-4.08963e-07
-3.1711e-06
-6.32537e-07
-3.13632e-06
-8.47699e-07
-2.90557e-06
-1.0027e-06
-2.35085e-06
-1.06179e-06
-1.55317e-06
-1.12108e-06
-7.00256e-07
-1.21717e-06
-5.45009e-08
-1.38868e-06
2.52042e-07
-1.56969e-06
-1.70181e-06
3.07739e-07
-1.61743e-07
0
-2.73047e-07
2.64665e-09
-3.87629e-07
7.34103e-10
-5.07109e-07
0
-6.11918e-07
0
-6.93742e-07
8.05083e-09
-7.75266e-07
7.61877e-09
-8.65504e-07
4.30917e-09
-9.5726e-07
2.06711e-09
-1.03405e-06
7.0015e-10
-1.08416e-06
0
-1.10407e-06
0
-1.10493e-06
-9.52189e-10
-1.10394e-06
-2.16042e-09
-1.10947e-06
-2.5452e-09
-1.12108e-06
-3.34147e-09
-1.08785e-06
-4.2359e-09
-9.09079e-07
-4.19362e-09
-6.008e-07
-2.68129e-09
-2.49104e-07
-3.08977e-09
1.677e-08
-3.36786e-09
1.42778e-07
-3.00472e-09
-2.22708e-09
1.81925e-07
-3.86699e-09
0
-1.75547e-09
1.8411e-14
-1.23853e-09
6.02235e-13
-2.26483e-09
0
-4.66655e-09
0
-4.03263e-09
0
-3.02934e-09
0
-2.35397e-09
0
-1.84305e-09
0
-1.44171e-09
0
-1.17156e-09
0
-9.59904e-10
0
-9.54386e-10
-1.03771e-09
-9.16287e-10
-2.27515e-09
-9.08894e-10
-2.6217e-09
-8.76298e-10
-3.43637e-09
-7.79402e-10
-4.3907e-09
-6.18387e-10
-4.41024e-09
-4.56167e-10
-2.89837e-09
-2.10932e-10
-3.3889e-09
2.04102e-11
-3.65138e-09
1.74543e-10
-3.20897e-09
-2.37968e-09
2.78308e-10
-8.29358e-10
1.22848e-10
-1.06896e-09
-3.05066e-10
-1.71146e-09
4.59881e-10
-2.05273e-09
6.40818e-10
-3.31061e-09
7.46506e-10
-5.60056e-09
9.4646e-10
-6.71474e-09
4.94597e-10
-6.56882e-09
5.12536e-10
-6.18778e-09
5.94694e-10
-5.57873e-09
3.61392e-10
-4.62061e-09
1.32901e-11
-3.65214e-09
-1.82878e-14
-1.91328e-09
-9.39661e-11
3.75314e-10
-2.39207e-10
6.02001e-10
-1.59738e-09
4.2499e-10
-1.61424e-09
2.11182e-10
-1.65155e-09
3.26905e-11
-2.0488e-09
0
-1.51975e-09
3.3235e-11
-2.19265e-09
-1.05795e-11
-2.48577e-09
9.9972e-11
-2.19818e-09
-1.79876e-09
1.7152e-11
1.44012e-09
1.13386e-10
5.69057e-10
0
4.22317e-11
0
-9.53195e-12
0
2.4778e-11
2.14068e-12
-1.54046e-11
0
-1.61102e-11
0
-2.67667e-11
4.77622e-13
-1.8236e-11
3.29729e-13
-1.46563e-13
3.28209e-13
-4.13695e-14
-8.42711e-15
-1.14551e-13
-5.93033e-13
-1.21559e-13
-9.4607e-11
2.18866e-14
-2.40035e-10
6.14685e-12
-2.30657e-10
1.15774e-11
-1.22488e-10
1.46059e-11
-4.50868e-11
-1.11275e-10
-1.72651e-10
-2.16367e-10
-2.48232e-10
-4.48695e-10
-2.66165e-10
-5.83658e-10
-5.68183e-10
-1.0267e-09
-9.2686e-10
-1.19237e-09
-8.14594e-10
4.608e-12
3.89188e-15
1.61951e-13
6.26997e-15
1.32497e-12
0
3.14104e-13
0
1.61006e-13
0
1.43074e-14
0
-7.12476e-15
0
-1.69607e-14
0
-2.02307e-14
0
-2.47308e-14
0
-3.59723e-13
-6.05671e-15
-4.88964e-12
-1.96197e-12
-2.72786e-11
-8.59059e-11
-3.23965e-12
-2.1687e-10
7.36531e-12
-1.94052e-10
2.19553e-12
-5.9438e-11
1.1265e-12
-1.57899e-11
-1.74893e-12
-9.90541e-12
-9.95635e-13
-3.422e-12
-2.30986e-11
-5.31557e-15
-1.19641e-10
-1.33896e-14
-2.09849e-10
-1.40716e-14
-6.6583e-13
-4.80816e-10
-2.41006e-15
5.32616e-15
-5.32504e-15
8.88717e-15
-2.46611e-14
1.03409e-14
3.03269e-13
5.09986e-13
7.91152e-13
3.56491e-12
4.674e-13
4.65368e-12
4.99186e-14
2.59459e-12
1.55216e-14
8.51901e-13
-8.61862e-14
1.35873e-12
-4.33031e-15
6.65629e-13
0
-6.55133e-14
-1.32096e-12
-1.0829e-12
-7.53766e-12
-8.81954e-14
-2.75757e-11
-3.28696e-14
-2.42833e-11
-1.11359e-11
-1.61705e-11
-4.40438e-11
-9.75306e-12
-1.51547e-11
-4.87794e-12
-3.17573e-12
-7.6261e-15
-3.83048e-15
-8.77475e-15
-4.78446e-15
-1.17091e-14
-1.10714e-14
-1.70064e-14
-9.39186e-15
-1.18028e-14
-6.71339e-13
-1.45781e-15
6.48316e-15
-1.49173e-15
8.59322e-15
-1.23401e-15
9.8257e-15
2.26534e-14
9.59854e-15
2.71887e-13
1.2791e-12
6.99638e-13
4.57676e-12
4.81771e-13
3.1735e-12
3.89929e-13
7.19009e-13
3.67387e-13
2.38142e-12
2.25802e-13
8.32605e-13
4.62238e-14
-1.86252e-13
8.73937e-14
-9.94801e-15
-1.55261e-16
-1.51595e-15
-9.86534e-15
-2.43507e-14
-1.10841e-11
-6.32487e-14
-1.31202e-11
-7.32012e-12
-1.33772e-11
-7.66341e-12
-2.82143e-14
-6.57793e-13
-1.96329e-14
-1.46495e-15
-1.25587e-14
-9.73379e-16
-1.2683e-14
-2.89236e-15
-1.53832e-14
-6.99688e-15
-8.71868e-15
-1.86158e-14
-1.01596e-15
9.31401e-15
-1.25132e-15
8.58171e-15
-7.67691e-16
9.09146e-15
-2.48713e-17
8.60341e-15
4.91508e-14
6.89788e-14
4.61146e-13
4.5181e-12
3.01927e-13
1.27349e-12
3.08035e-13
1.08974e-13
3.2037e-13
1.91774e-12
2.01074e-13
9.77292e-13
9.37531e-15
-6.20357e-14
-1.42902e-16
-2.1876e-16
-2.00605e-15
-5.4208e-16
-4.29483e-15
-1.8559e-13
-1.27925e-13
0
-2.59542e-12
-1.36149e-12
-1.27877e-12
-8.33081e-13
-3.75168e-14
-3.59996e-14
-2.55289e-14
-2.41234e-15
-2.93728e-14
-3.09903e-15
-2.53108e-14
-5.49358e-15
-3.42027e-18
-9.39108e-15
-2.03827e-14
0
-1.07477e-15
1.43731e-14
-7.21698e-15
2.11428e-13
-4.59561e-16
3.20737e-13
-9.8517e-17
8.07376e-15
7.73769e-15
2.01889e-15
4.68522e-14
3.0732e-15
6.13824e-14
8.69306e-14
1.26709e-13
1.15749e-13
7.69741e-14
1.30663e-12
-8.41904e-14
1.16385e-12
-5.24635e-16
6.89562e-14
-4.20096e-16
-1.15177e-16
-4.06392e-16
-3.44747e-16
-7.43946e-13
-6.03327e-14
-1.45691e-12
-2.63059e-12
-6.49311e-13
-6.19652e-12
-5.31034e-14
-1.32814e-12
-4.04966e-14
-3.4868e-15
-5.95474e-14
-1.6614e-15
-5.95148e-14
-5.41086e-16
-5.73284e-14
-4.94819e-15
0
-7.32848e-15
-4.47935e-15
0
-6.14475e-15
3.13298e-14
-1.45149e-14
3.73249e-13
-4.07707e-15
3.67598e-13
5.03126e-18
3.31423e-14
4.6329e-17
1.45566e-15
1.0376e-16
2.47661e-15
1.20853e-15
7.59044e-14
4.56409e-14
7.32183e-13
-1.1155e-13
6.52225e-13
-6.92843e-14
4.2198e-13
-2.88176e-16
1.6776e-16
-1.92474e-16
-4.28852e-18
-1.78534e-16
-1.50276e-16
-1.07232e-12
-4.31769e-14
-1.02249e-11
-3.46268e-12
-9.79451e-12
-5.02816e-12
-1.52495e-12
-3.88619e-12
-4.8286e-14
-1.45346e-12
-2.27565e-14
-5.01506e-16
-5.30957e-14
-9.92111e-17
-5.19414e-14
-1.78133e-15
-2.0344e-17
-3.02329e-15
-3.75184e-15
0
-3.57581e-15
3.15132e-14
-3.77533e-15
3.75146e-13
5.82712e-16
3.64872e-13
5.91694e-16
5.07403e-14
5.97522e-17
1.50253e-15
6.41151e-16
1.37328e-15
5.49979e-14
1.2934e-12
4.71081e-15
2.23852e-12
-1.81039e-13
9.03837e-13
-4.66799e-16
7.99121e-14
-3.17094e-16
2.24647e-16
-2.17944e-16
1.0038e-16
0
-2.0321e-17
-1.03778e-12
-4.51857e-16
-9.95824e-12
-7.57418e-13
-1.12717e-11
-2.11614e-12
-1.03189e-11
-3.24047e-12
-1.28681e-14
-1.51271e-12
-1.30258e-14
-4.95042e-16
-1.30347e-14
-2.45522e-16
-1.33664e-14
-1.15528e-15
-1.03559e-14
-3.7134e-15
-3.81076e-15
-8.80401e-15
6.006e-16
1.02266e-14
2.9886e-15
1.08099e-13
7.43923e-15
3.62083e-13
8.66921e-16
2.6057e-14
4.04764e-16
1.49598e-15
5.16081e-14
5.49368e-14
6.6082e-14
2.82004e-12
-3.84868e-14
2.4604e-12
-7.95885e-14
7.15067e-13
-4.08635e-16
6.24322e-16
-3.97511e-16
4.87647e-16
-3.56487e-16
3.31935e-16
-5.42618e-17
7.16716e-17
0
-5.72036e-18
-1.22242e-12
-1.03573e-14
-9.26024e-12
-6.29368e-13
-1.03435e-11
-5.56392e-13
-1.53416e-14
-7.19244e-13
-1.32657e-14
-2.72271e-15
-1.31673e-14
-4.95113e-16
-2.06812e-14
-1.77748e-15
-1.27613e-14
-4.7142e-15
-6.93835e-15
-1.73721e-14
1.49814e-16
2.10689e-15
1.20386e-15
2.03523e-15
3.45407e-15
1.05063e-15
5.4345e-16
2.98713e-15
7.8619e-17
1.49211e-15
8.22513e-14
5.52622e-14
7.728e-14
1.50826e-12
-3.32674e-14
2.68991e-12
-5.14951e-16
1.87884e-13
-4.01729e-16
4.03337e-16
-4.12405e-16
6.34994e-16
-3.00746e-16
5.04596e-16
-5.87231e-17
1.66301e-16
0
1.17057e-17
-3.02701e-14
-7.32606e-18
-7.73496e-13
-9.68273e-18
-9.21738e-13
-1.86722e-17
-1.91272e-13
-4.72238e-15
-2.7022e-14
-6.60326e-16
-2.62894e-14
-1.38353e-15
-2.19324e-14
-3.70405e-15
-9.19557e-15
-6.67151e-15
-1.92011e-15
-1.98986e-14
2.57601e-17
2.04901e-15
4.3476e-17
1.98507e-15
6.38618e-17
6.4599e-16
1.09933e-16
1.36633e-15
1.84305e-15
1.88344e-15
3.2757e-14
4.78325e-14
4.83741e-14
0
-1.1686e-14
3.45226e-14
-1.4284e-16
0
-2.97963e-16
4.50357e-16
-3.64477e-16
8.45482e-16
-2.42707e-16
5.78031e-16
-5.94224e-17
8.68887e-17
-6.64398e-17
2.35263e-17
-7.08094e-17
1.09146e-17
-8.19041e-17
4.89305e-19
-9.78844e-17
-3.6884e-18
-4.8131e-15
-8.16027e-18
-1.13301e-14
-1.41313e-16
-2.50112e-14
-8.64393e-16
-1.98543e-14
-8.9207e-16
-5.84661e-15
-2.63787e-15
-9.32779e-16
-2.6564e-15
2.88006e-17
1.98776e-15
4.74865e-17
1.93427e-15
9.52584e-17
1.83255e-15
7.19215e-17
1.19364e-15
1.13027e-15
9.36241e-15
2.16398e-15
1.98529e-14
4.05085e-17
0
-2.04627e-18
2.52018e-17
-3.2602e-17
3.58197e-17
-1.80658e-16
4.90956e-16
-2.36607e-16
5.9258e-16
-7.58626e-17
2.41336e-16
-3.93683e-17
3.30115e-17
-5.6038e-17
2.42184e-17
-6.55291e-17
2.16809e-17
-7.06314e-17
1.20571e-17
-8.06164e-17
5.30106e-18
-1.97563e-16
1.22728e-18
-2.62383e-15
-4.34543e-18
-4.91718e-15
-5.05851e-17
-3.93685e-15
-1.47185e-16
-2.23591e-15
-1.64884e-16
-1.96405e-16
-1.23932e-15
7.74773e-15
9.52517e-13
1.16195e-14
7.90251e-13
9.22828e-18
1.9186e-15
1.54298e-16
1.30835e-15
1.03695e-15
9.88588e-15
1.03163e-15
9.01345e-15
7.45311e-19
4.0368e-17
-4.68733e-19
2.63917e-17
-1.83448e-17
3.62018e-17
-5.74814e-17
1.57256e-16
-5.42287e-17
1.2811e-16
-1.09213e-17
2.83359e-17
-1.69135e-17
5.38329e-18
-3.89958e-17
1.6616e-17
-5.42223e-17
2.38467e-17
-6.20958e-17
1.95693e-17
-6.54663e-17
1.20522e-17
-6.3323e-17
4.7119e-18
-4.69714e-17
5.12728e-20
-1.34829e-17
-1.47176e-18
-3.85033e-17
-1.57703e-18
-2.09838e-16
-2.22736e-18
-2.9187e-18
-1.44152e-16
1.13097e-14
9.35253e-13
2.4971e-14
7.7241e-13
0
2.44421e-15
1.07562e-16
1.56578e-15
4.33287e-16
6.22005e-15
1.65809e-16
8.19497e-16
8.124e-19
3.4808e-17
-1.36968e-19
2.73983e-17
-3.17363e-18
1.13562e-17
-6.0895e-18
1.04889e-17
-2.86109e-18
5.05374e-18
-7.13771e-19
4.57386e-19
-3.10475e-18
1.44643e-19
-1.4953e-17
3.73445e-18
-2.65369e-17
9.47929e-18
-3.08475e-17
9.72048e-18
-3.13208e-17
6.70642e-18
-2.07607e-17
2.65349e-18
-1.12308e-17
3.24298e-19
-5.67947e-18
-1.59701e-19
-3.06279e-18
-2.74659e-19
-2.37265e-18
-2.06983e-19
-2.22254e-19
-7.48549e-19
1.91991e-14
9.10031e-13
2.86204e-15
1.45029e-13
0
1.84742e-16
1.02529e-16
1.27635e-15
1.80567e-16
1.88201e-15
1.80587e-18
2.02371e-17
7.83197e-19
2.92617e-17
5.52085e-20
2.33672e-17
-1.00024e-19
1.03684e-18
-1.17743e-19
1.94593e-18
-1.01241e-20
8.26555e-19
-2.77321e-21
3.74195e-20
-9.0899e-20
1.00351e-20
-1.76623e-18
8.8777e-19
-4.37221e-18
6.17484e-19
-4.99334e-18
8.21844e-19
-4.3332e-18
5.31035e-19
-2.4568e-18
1.754e-19
-1.39429e-18
3.50156e-20
-9.03578e-19
-3.85534e-21
-3.70782e-19
-1.29986e-20
-2.4836e-19
-1.25539e-20
-1.10825e-20
-2.44026e-19
7.7836e-15
8.96184e-13
4.33815e-17
9.15738e-15
0
1.22844e-16
3.68787e-17
5.84006e-16
3.57608e-17
2.44556e-16
6.94813e-19
1.10347e-17
6.33153e-19
1.5839e-17
1.17649e-19
9.63266e-18
9.18431e-21
1.02535e-19
5.04543e-20
-4.75633e-19
1.1857e-19
-7.94777e-19
1.58818e-19
-9.39765e-19
7.14159e-20
-7.38289e-19
-4.32537e-20
-2.08385e-19
-1.10929e-19
8.16613e-20
-1.23629e-19
1.36989e-19
-7.90734e-20
8.61086e-20
-3.60766e-20
2.6481e-20
-1.86871e-20
5.6825e-21
-1.02065e-20
1.38219e-22
-1.57442e-21
8.74452e-21
-1.12964e-22
1.18984e-20
1.10052e-20
-1.66745e-21
5.30684e-15
8.86968e-13
1.03301e-16
1.82277e-13
3.25246e-18
1.17621e-16
1.05824e-17
1.51807e-16
1.9746e-18
7.89097e-17
2.88628e-19
1.06395e-17
1.69328e-19
2.60673e-18
5.51278e-20
6.51373e-19
3.17264e-21
-8.34049e-19
5.61872e-20
-1.56703e-18
1.19764e-19
-1.64779e-18
1.62368e-19
-1.49804e-18
1.53932e-19
-1.12188e-18
1.12983e-19
-6.5078e-19
8.3272e-20
-3.06409e-19
7.2942e-20
-1.47218e-19
7.06786e-20
-8.29814e-20
6.44549e-20
-4.87649e-20
5.38394e-20
-2.26018e-20
4.08815e-20
-4.09761e-21
2.86327e-20
5.97363e-21
1.86079e-20
9.28152e-21
8.84312e-21
1.12322e-20
5.12401e-15
8.81838e-13
2.58448e-15
8.68479e-13
0
4.48746e-16
2.54409e-18
9.12371e-17
2.23825e-18
7.73878e-17
7.43087e-20
1.06482e-17
3.18981e-21
3.75405e-19
1.52906e-21
5.93258e-20
-1.66897e-20
-1.30571e-18
1.41943e-20
-1.84548e-18
6.1346e-20
-1.80327e-18
9.70571e-20
-1.52656e-18
1.0968e-19
-1.12633e-18
1.0323e-19
-7.25569e-19
9.02173e-20
-4.23225e-19
7.8321e-20
-2.37289e-19
6.64467e-20
-1.32089e-19
5.35233e-20
-6.87136e-20
4.07521e-20
-2.95462e-20
2.94159e-20
-7.06829e-21
2.01307e-20
2.44179e-21
1.30128e-20
4.69255e-21
4.63849e-21
7.98709e-21
3.88307e-15
8.77949e-13
8.62577e-15
8.6373e-13
0
6.61479e-16
2.41938e-18
9.0666e-17
2.74191e-18
8.99388e-17
7.10694e-20
1.19759e-17
1.37407e-20
3.65325e-19
-2.75676e-21
-7.98744e-20
-2.83063e-20
-1.04474e-18
-2.08981e-20
-1.44613e-18
6.14494e-21
-1.42103e-18
3.20042e-20
-1.19208e-18
4.73291e-20
-8.83002e-19
5.17182e-20
-5.87561e-19
4.8853e-20
-3.59882e-19
4.25954e-20
-2.0716e-19
3.46235e-20
-1.12798e-19
2.62833e-20
-5.57941e-20
1.88544e-20
-2.31128e-20
1.30294e-20
-6.16057e-21
8.71923e-21
7.1058e-22
5.59934e-21
1.89542e-21
1.935e-21
3.39135e-21
2.37717e-15
8.75565e-13
6.98606e-15
8.59114e-13
0
3.46256e-16
3.00131e-18
1.40651e-16
3.91775e-18
1.40277e-16
1.33174e-19
1.75892e-17
3.90998e-20
2.66908e-18
3.4874e-20
1.52457e-18
-6.22249e-21
-1.50025e-19
-1.92773e-20
-5.54442e-19
-1.66502e-20
-7.12851e-19
-4.28755e-21
-6.84614e-19
7.98739e-21
-5.48416e-19
1.47166e-20
-3.82346e-19
1.6694e-20
-2.40269e-19
1.56079e-20
-1.39082e-19
1.28124e-20
-7.44508e-20
9.5087e-21
-3.55854e-20
6.53867e-21
-1.42735e-20
4.3007e-21
-3.94055e-21
2.76877e-21
1.35719e-22
1.75309e-21
6.60857e-22
6.76843e-22
1.07199e-21
4.54483e-16
8.75105e-13
2.49122e-16
6.95166e-14
2.25421e-19
1.85921e-16
6.33983e-18
3.29022e-16
5.93285e-18
2.40442e-16
4.25678e-19
3.22933e-17
3.12281e-19
1.13627e-17
2.67032e-19
9.09029e-18
1.39118e-19
5.98062e-18
4.23955e-20
2.97153e-18
1.44716e-20
1.07033e-18
-5.2398e-21
-1.3132e-19
-5.9008e-21
-2.26106e-19
-1.30011e-21
-1.99416e-19
1.9899e-21
-1.34303e-19
3.15245e-21
-7.85677e-20
3.07961e-21
-4.18217e-20
2.42484e-21
-1.95148e-20
1.66689e-21
-7.5874e-21
1.05636e-21
-2.08786e-21
6.4674e-22
2.04504e-24
3.95112e-22
2.13242e-22
2.10286e-22
2.52254e-22
-1.68212e-16
3.76572e-14
3.97545e-17
2.37491e-16
2.80836e-18
1.75977e-16
1.5126e-17
5.96472e-16
8.44217e-18
3.50907e-16
1.31165e-18
5.99758e-17
1.21884e-18
3.11058e-17
1.16959e-18
2.69702e-17
8.24647e-19
2.01961e-17
4.31534e-19
1.22908e-17
1.56773e-19
5.81361e-18
2.61071e-20
1.82851e-18
4.97151e-21
2.80612e-19
-3.85962e-21
-6.9137e-20
-2.78632e-21
-6.40011e-20
-1.02278e-21
-3.87874e-20
-3.58816e-23
-2.08242e-20
2.00481e-22
-9.56644e-21
2.06953e-22
-3.61329e-21
1.48401e-22
-9.73899e-22
9.25992e-23
-3.59463e-23
5.49559e-23
6.69141e-23
6.39387e-23
3.86531e-23
1.15319e-18
2.58035e-16
2.60676e-18
2.45528e-16
1.19378e-17
5.19328e-16
2.3121e-17
6.29535e-16
1.22165e-17
3.72046e-16
3.33345e-18
9.80796e-17
3.28065e-18
6.34745e-17
3.23181e-18
5.57684e-17
2.44795e-18
4.2742e-17
1.47714e-18
2.79325e-17
6.32013e-19
1.4122e-17
1.65284e-19
4.98827e-18
1.52426e-20
9.8363e-19
5.18615e-22
3.67951e-20
-2.43518e-21
-2.50784e-20
-1.65147e-21
-1.7106e-20
-9.13069e-22
-9.42011e-21
-4.29079e-22
-4.29001e-21
-1.74015e-22
-1.57502e-21
-6.12318e-23
-4.11447e-22
-1.88958e-23
-2.29955e-23
-5.36237e-24
2.12181e-23
2.03081e-23
-1.55214e-24
1.37251e-18
2.49659e-16
4.43007e-18
2.52395e-16
1.76936e-17
5.68304e-16
2.92488e-17
6.26913e-16
1.50571e-17
3.6238e-16
6.86373e-18
1.30833e-16
6.85558e-18
1.01571e-16
6.7274e-18
9.03895e-17
5.17558e-18
6.97304e-17
3.35028e-18
4.71181e-17
1.51101e-18
2.46147e-17
3.95711e-19
8.48484e-18
3.85107e-20
1.41465e-18
8.00636e-21
6.14719e-20
-8.94329e-22
-6.33223e-21
-1.04558e-21
-6.81357e-21
-6.82303e-22
-3.94063e-21
-3.71938e-22
-1.78706e-21
-1.78647e-22
-6.37289e-22
-7.77981e-23
-1.60127e-22
-3.19457e-23
-1.02746e-23
-1.34237e-23
6.55718e-24
6.1994e-24
-6.0327e-24
2.37508e-18
2.40281e-16
6.0006e-18
2.34822e-16
2.31463e-17
4.93054e-16
3.18002e-17
4.77458e-16
1.6271e-17
2.72541e-16
1.10601e-17
1.36417e-16
1.15182e-17
1.25299e-16
1.15555e-17
1.17623e-16
8.85197e-18
9.46094e-17
5.82854e-18
6.50093e-17
2.67177e-18
3.43282e-17
6.26028e-19
1.09883e-17
4.51007e-20
1.48607e-18
1.00837e-20
6.22044e-20
-5.08525e-23
-2.8774e-22
-4.9406e-22
-2.4893e-21
-3.60343e-22
-1.54875e-21
-2.04186e-22
-7.00062e-22
-9.91543e-23
-2.41777e-22
-4.30078e-23
-5.82634e-23
-1.74623e-23
-3.8822e-24
-7.21329e-24
1.94744e-24
1.80019e-24
-3.19393e-24
3.55794e-18
2.72569e-16
6.17961e-18
1.77406e-16
1.65946e-17
2.37802e-16
1.68319e-17
2.1068e-16
1.4752e-17
1.64891e-16
1.4285e-17
1.35036e-16
1.5031e-17
1.27769e-16
1.56128e-17
1.22819e-16
1.28394e-17
1.07762e-16
8.37021e-18
7.61154e-17
3.71583e-18
3.95824e-17
7.50335e-19
1.16178e-17
4.35049e-20
1.46331e-18
3.47339e-22
4.03986e-20
3.87436e-24
3.4234e-23
-2.02351e-22
-8.70228e-22
-1.61105e-22
-5.81524e-22
-9.22422e-23
-2.61089e-22
-4.3892e-23
-8.69019e-23
-1.83788e-23
-1.99503e-23
-7.13846e-24
-1.30154e-24
-2.82752e-24
5.44457e-25
4.79623e-25
-1.21372e-24
1.01348e-17
7.55914e-16
6.36547e-18
1.80948e-16
9.92038e-18
2.34183e-16
1.2931e-17
2.07606e-16
1.49884e-17
1.62771e-16
1.61625e-17
1.32966e-16
1.71071e-17
1.26083e-16
1.77766e-17
1.24009e-16
1.57141e-17
1.09695e-16
1.01669e-17
7.86925e-17
4.26881e-18
4.04423e-17
7.76429e-19
1.17187e-17
3.35026e-20
1.139e-18
1.28515e-22
1.61749e-20
8.5763e-24
3.59765e-23
-7.72009e-23
-3.01161e-22
-6.52037e-23
-2.12084e-22
-3.69912e-23
-9.36649e-23
-1.69413e-23
-2.97916e-23
-6.7276e-24
-6.44853e-24
-2.44837e-24
-3.96676e-25
-9.15195e-25
1.39162e-25
1.14304e-25
-3.72212e-25
3.29142e-17
1.28312e-15
8.08946e-18
2.05709e-16
1.22232e-17
2.29986e-16
1.56991e-17
2.04067e-16
1.77034e-17
1.60703e-16
1.86039e-17
1.32003e-16
1.8951e-17
1.23709e-16
1.96712e-17
1.23763e-16
1.72772e-17
1.102e-16
1.11054e-17
7.92375e-17
4.49245e-18
4.02063e-17
6.98969e-19
1.02841e-17
1.74116e-20
6.6792e-19
2.86088e-23
4.77394e-21
2.80954e-24
3.9763e-24
-2.86453e-23
-1.05846e-22
-2.47451e-23
-7.61503e-23
-1.36284e-23
-3.25882e-23
-5.90251e-24
-9.7807e-24
-2.17862e-24
-1.96414e-24
-7.24502e-25
-1.1074e-25
-2.50144e-25
3.19082e-26
2.38801e-26
-9.44979e-26
6.13004e-16
1.2296e-15
1.54941e-14
1.12558e-13
8.98271e-14
1.58481e-12
1.49938e-13
2.02519e-12
0
7.15219e-13
2.34767e-17
1.11124e-14
2.03765e-17
1.24808e-16
2.1044e-17
1.20326e-16
1.83892e-17
1.08019e-16
1.14893e-17
7.68307e-17
4.17434e-18
3.59207e-17
4.68313e-19
7.13235e-18
6.15178e-21
2.84945e-19
4.45173e-24
1.05706e-21
4.04624e-25
2.71976e-25
-1.05793e-23
-3.83032e-23
-8.97896e-24
-2.71498e-23
-4.68862e-24
-1.1038e-23
-1.88083e-24
-3.07291e-24
-6.29394e-25
-5.60435e-25
-1.8621e-25
-2.84541e-26
-5.81033e-26
6.38431e-27
4.26407e-27
-1.99189e-26
6.36232e-16
1.15255e-15
1.6954e-13
2.56314e-13
3.61337e-13
2.17578e-12
2.91918e-13
2.09655e-12
9.51419e-14
2.47003e-12
2.14589e-17
1.05409e-13
1.04746e-17
1.35907e-16
2.06616e-17
1.10256e-16
1.88281e-17
1.01235e-16
1.07682e-17
6.85655e-17
3.14541e-18
2.71519e-17
2.1953e-19
3.7317e-18
1.41574e-21
8.21908e-20
4.60142e-25
1.45513e-22
4.55802e-26
1.91517e-26
-3.9421e-24
-1.43845e-23
-3.14512e-24
-9.64397e-24
-1.51538e-24
-3.63788e-24
-5.49541e-25
-9.20105e-25
-1.62068e-25
-1.48734e-25
-4.13141e-26
-6.71034e-27
-1.13146e-26
1.08713e-27
6.33029e-28
-3.43851e-27
6.81041e-16
1.03021e-15
9.09516e-14
2.23491e-13
4.06733e-13
1.86194e-12
4.24266e-13
2.08095e-12
1.98247e-13
1.25028e-12
1.52114e-18
1.02952e-13
9.3821e-18
1.34688e-16
2.01777e-17
1.06243e-16
1.75624e-17
9.12394e-17
8.66448e-18
5.46615e-17
1.81032e-18
1.66479e-17
6.75652e-20
1.3782e-18
1.85605e-22
1.3944e-20
2.45554e-26
9.92309e-24
3.66331e-27
1.54967e-26
-1.49908e-24
-5.64733e-24
-1.06708e-24
-3.41108e-24
-4.60733e-25
-1.16395e-24
-1.47054e-25
-2.6144e-25
-3.70625e-26
-3.64984e-26
-7.84108e-27
-1.44386e-27
-1.8154e-27
1.5437e-28
7.58771e-29
-4.75369e-28
7.26595e-16
8.61945e-16
1.54393e-13
9.62721e-15
3.50986e-13
2.93719e-13
4.70704e-13
1.96317e-12
2.41265e-16
2.18364e-14
0
6.17964e-15
1.73029e-17
1.21449e-16
2.00539e-17
1.06561e-16
1.43158e-17
7.73586e-17
5.65513e-18
3.7228e-17
7.34874e-19
7.65486e-18
1.20661e-20
3.1264e-19
1.15453e-23
1.14873e-21
9.54448e-25
3.30671e-25
-2.09867e-25
-9.2371e-25
-5.8e-25
-2.30237e-24
-3.50777e-25
-1.19785e-24
-1.31996e-25
-3.61307e-25
-3.60585e-26
-7.04551e-26
-7.51882e-27
-8.27447e-27
-1.26624e-27
-2.82231e-28
-2.35906e-28
1.79834e-29
7.10789e-30
-5.11439e-29
1.16919e-15
2.3351e-15
3.34835e-15
2.1075e-15
2.75031e-14
0
8.0258e-14
0
0
5.10513e-17
2.67257e-17
1.90214e-16
2.34098e-17
1.72969e-16
1.78487e-17
1.07473e-16
9.75458e-18
5.79789e-17
2.74237e-18
1.97804e-17
1.80385e-19
2.23619e-18
1.02201e-21
3.44478e-20
2.89693e-25
3.80872e-23
3.52424e-26
5.85873e-27
-1.71971e-25
-7.98041e-25
-2.21984e-25
-9.43713e-25
-1.11983e-25
-4.17078e-25
-3.58449e-26
-1.09212e-25
-8.14851e-27
-1.81107e-26
-1.35956e-27
-1.74541e-27
-1.74005e-28
-5.01198e-29
-2.44027e-29
1.72119e-30
5.04272e-31
-4.12669e-30
1.43861e-15
1.34799e-15
1.07663e-15
2.61617e-15
3.47952e-16
9.41121e-16
2.14463e-16
7.36911e-17
8.34338e-17
2.98123e-16
7.11734e-17