/*--------------------------------*- C++ -*----------------------------------*\
  =========                 |
  \\      /  F ield         | OpenFOAM: The Open Source CFD Toolbox
   \\    /   O peration     | Website:  https://openfoam.org
    \\  /    A nd           | Version:  9
     \\/     M anipulation  |
\*---------------------------------------------------------------------------*/
FoamFile
{
    format      ascii;
    class       volScalarField;
    location    "2.69";
    object      epsilon;
}
// * * * * * * * * * * * * * * * * * * * * * * * * * * * * * * * * * * * * * //

dimensions      [0 2 -3 0 0 0 0];

internalField   nonuniform List<scalar> 
2268
(
0.00459006
0.0279667
0.0494667
0.0689269
0.0861764
0.101254
0.114284
0.125473
0.135087
0.143379
0.150624
0.156603
0.1612
0.164384
0.165907
0.164863
0.157589
0.145339
0.131327
0.114621
0.0895011
0.0517489
0.0130853
0.0105613
0.0183787
0.0276336
0.03649
0.0444626
0.0514384
0.0574462
0.0625802
0.0669538
0.0706774
0.0738888
0.07655
0.0785858
0.079932
0.080462
0.0798738
0.0774652
0.0734671
0.0680376
0.0606739
0.0500402
0.0350346
0.020474
0.0188493
0.019687
0.0257471
0.0321274
0.0380682
0.0433501
0.0479417
0.0518919
0.0552768
0.0581775
0.0606642
0.0627326
0.0643344
0.0654131
0.0658802
0.0655726
0.06422
0.0618329
0.0584027
0.0535676
0.0465003
0.0366314
0.0318502
0.0272781
0.0224125
0.0265998
0.0317213
0.0367033
0.0412282
0.0452154
0.0486834
0.0516881
0.0542888
0.0565288
0.058407
0.059889
0.0609293
0.061465
0.0613982
0.0605929
0.0590233
0.0566644
0.0532693
0.0482822
0.0413741
0.0425715
0.035564
0.0256212
0.0283858
0.0326528
0.0370245
0.04109
0.0447263
0.047929
0.0507384
0.0531998
0.0553406
0.057157
0.0586215
0.0596989
0.0603462
0.0605054
0.0601041
0.0591257
0.0575694
0.0553184
0.052106
0.0479526
0.053984
0.0436866
0.0290864
0.0306572
0.0342635
0.0381846
0.0419209
0.0453132
0.0483393
0.0510289
0.0534168
0.0555198
0.05733
0.0588233
0.0599729
0.0607519
0.0611305
0.0610779
0.0605999
0.0597384
0.0585247
0.0570947
0.0564509
0.0695921
0.0516702
0.0327354
0.0332532
0.0363109
0.039868
0.0433402
0.0465378
0.0494261
0.0520278
0.0543709
0.0564646
0.058296
0.0598423
0.0610832
0.0620049
0.0626004
0.0628713
0.0628487
0.0626222
0.0623723
0.0627603
0.0671056
0.0996153
0.0596948
0.0365583
0.0361084
0.038688
0.0419309
0.0451712
0.0481942
0.0509579
0.0534821
0.0557909
0.0578874
0.059754
0.0613672
0.0627108
0.0637824
0.0645954
0.065176
0.0655825
0.0659418
0.0665449
0.0685169
0.0787138
0.185971
0.00932563
0.0496537
0.0782142
0.0922494
0.0980255
0.0984337
0.0919182
0.076917
0.0622524
0.060568
0.0637999
0.0626661
0.0588493
0.0602704
0.0635969
0.0577836
0.0398216
0.0192673
0.00407515
0.0179343
0.030723
0.0409634
0.0470285
0.0499499
0.0502371
0.0478022
0.0432835
0.0375175
0.0343342
0.0331104
0.0318768
0.0304839
0.0293266
0.028849
0.0263098
0.0202354
0.0125274
0.00687028
0.0314422
0.0333288
0.0378909
0.0409706
0.0424677
0.0421653
0.0400395
0.0368409
0.0330168
0.030191
0.0285362
0.0271746
0.0258872
0.0246713
0.0236952
0.0217974
0.0180693
0.0131387
0.0108499
0.0469556
0.0391306
0.0394745
0.0403627
0.0407088
0.0398426
0.037651
0.0348425
0.0318003
0.0293283
0.027595
0.0261749
0.0248916
0.0236901
0.0225912
0.020975
0.0183701
0.0147929
0.0146455
0.0658136
0.0460665
0.0423753
0.0413568
0.0407106
0.0393575
0.0370505
0.0344098
0.0317747
0.0295455
0.0278092
0.0263659
0.02507
0.0238772
0.0227588
0.0213114
0.0194035
0.0168715
0.0183016
0.0920194
0.0537288
0.0457087
0.0429461
0.0414412
0.0396795
0.0372816
0.034759
0.0323805
0.0303027
0.0285678
0.0271048
0.0257878
0.0245971
0.0235003
0.0221984
0.0207083
0.0191168
0.0214624
0.133223
0.0619194
0.0490273
0.0447363
0.0425011
0.0404022
0.0379594
0.0355709
0.0333863
0.0313977
0.0296458
0.0281456
0.0268055
0.0256157
0.0245584
0.0234275
0.0222599
0.0214498
0.0250373
0.215777
0.069085
0.0519661
0.0465422
0.0437194
0.0413507
0.0389048
0.0366694
0.0346446
0.0327149
0.0309271
0.029372
0.0280159
0.0268334
0.0258214
0.0248846
0.0240724
0.0240672
0.0300505
0.071456
0.0426089
0.0408599
0.0428003
0.0456101
0.0485141
0.0512713
0.0538379
0.0562371
0.0584921
0.0605994
0.0625333
0.064266
0.065785
0.0671036
0.0682588
0.0693139
0.0703641
0.0715664
0.0732524
0.0764778
0.0852202
0.116491
0.0863626
0.0512854
0.0481644
0.0494006
0.0516766
0.0541042
0.0564385
0.0586612
0.0608274
0.0629725
0.0650879
0.0671321
0.0690599
0.0708518
0.0725236
0.0741368
0.0758114
0.077678
0.0798605
0.0824663
0.0857207
0.0906772
0.100946
0.100409
0.0611094
0.0566011
0.0570784
0.0587433
0.0605686
0.0623174
0.0640227
0.065828
0.0677933
0.0699008
0.0720817
0.0742504
0.076357
0.0784163
0.0804768
0.0827624
0.0854779
0.0887684
0.0925306
0.0959435
0.0974877
0.0993066
0.118594
0.0739265
0.0666877
0.0659987
0.066887
0.067923
0.0688275
0.0696995
0.0709461
0.0726448
0.0747432
0.0771275
0.0796166
0.0821112
0.0846516
0.0870966
0.0899177
0.0934777
0.0981328
0.104099
0.109916
0.107267
0.104192
0.156522
0.0915772
0.0781649
0.076209
0.0761636
0.0759905
0.0759266
0.0755566
0.0759611
0.0773265
0.079444
0.082119
0.0848869
0.0875395
0.0899752
0.0925599
0.0955819
0.0993132
0.104785
0.113649
0.124184
0.117062
0.111377
0.20566
0.105802
0.0879315
0.0850394
0.082017
0.0822555
0.0821808
0.0811842
0.0807064
0.0816104
0.0837056
0.0865798
0.0894773
0.0923487
0.0953526
0.0982257
0.101017
0.103426
0.107813
0.115834
0.120992
0.118315
0.113204
0.222953
0.107111
0.0950096
0.0891554
0.0855367
0.0845572
0.0851237
0.0846034
0.0842574
0.0852896
0.0879275
0.0913471
0.0942897
0.097264
0.0996983
0.102746
0.105508
0.106247
0.108738
0.114815
0.11927
0.119453
0.117113
0.190795
0.103173
0.0980448
0.0927985
0.0887758
0.0868693
0.0872996
0.0874421
0.0876638
0.0888354
0.0919766
0.0961009
0.0978396
0.0982833
0.0990833
0.100785
0.1029
0.104278
0.107791
0.113859
0.119405
0.119242
0.117991
0.146713
0.0958104
0.0916808
0.0897068
0.0894201
0.0900031
0.0911178
0.0912552
0.0913735
0.0912439
0.0921074
0.0938325
0.0940213
0.0938278
0.0940259
0.0946833
0.0959251
0.097616
0.101304
0.106773
0.111839
0.112881
0.108815
0.111952
0.0868928
0.0855963
0.0866198
0.0904152
0.093203
0.0925004
0.0906283
0.0896582
0.0883907
0.0876705
0.0878158
0.0877713
0.0877344
0.0876976
0.0878766
0.0885381
0.0897853
0.0923962
0.0962351
0.0998523
0.100949
0.0967317
0.111193
0.0833345
0.0834281
0.0854454
0.0889927
0.089714
0.0872273
0.0851187
0.083719
0.0824393
0.0816352
0.0813828
0.0812497
0.0811298
0.0809441
0.0808797
0.0811483
0.0818969
0.0834418
0.0856678
0.0876895
0.0878939
0.0845586
0.139405
0.084896
0.0812574
0.0817353
0.0829293
0.0822417
0.080338
0.078654
0.0773874
0.0763524
0.0756445
0.0752388
0.0749384
0.0746345
0.0743
0.074069
0.0740829
0.0744476
0.0752274
0.0762452
0.0769738
0.0764128
0.0737487
0.1713
0.088075
0.078501
0.076728
0.076376
0.0754427
0.0740271
0.072716
0.0716576
0.0707995
0.0701368
0.0696211
0.06916
0.0687025
0.0682635
0.0679347
0.0677874
0.0678535
0.0680871
0.0683029
0.0681709
0.0671469
0.0649164
0.182017
0.0885712
0.0754777
0.0720295
0.070727
0.0696479
0.0685049
0.067455
0.0665621
0.0658017
0.0651445
0.0645516
0.0639858
0.0634398
0.0629448
0.0625572
0.0622972
0.0621447
0.0620141
0.0617452
0.0611291
0.0599301
0.0580314
0.180006
0.0862179
0.0718937
0.0675537
0.0657336
0.0645701
0.0635827
0.0627082
0.0619348
0.0612352
0.0605813
0.0599517
0.0593394
0.0587592
0.0582427
0.0578202
0.0574832
0.057188
0.0568464
0.0563354
0.0555253
0.0543242
0.0527218
0.172221
0.0821473
0.0678219
0.0631785
0.0611449
0.0599611
0.0590756
0.0583211
0.0576366
0.0569868
0.0563502
0.0557192
0.0551028
0.0545234
0.0540075
0.0535695
0.053189
0.0528179
0.0523815
0.0517922
0.0509737
0.0498889
0.0485598
0.161278
0.0771197
0.063452
0.0588716
0.0568218
0.055672
0.0548673
0.0542005
0.0535861
0.0529846
0.0523794
0.0517719
0.0511776
0.05062
0.0501205
0.0496852
0.0492918
0.0488978
0.0484453
0.0478739
0.0471385
0.0462251
0.045158
0.148425
0.0716004
0.0589601
0.054654
0.0527054
0.0516275
0.0508963
0.0502996
0.0497449
0.0491921
0.0486286
0.04806
0.0475037
0.0469817
0.0465113
0.0460959
0.0457156
0.0453368
0.0449165
0.0444134
0.0437991
0.0430676
0.0422373
0.134433
0.0658541
0.0544701
0.0505596
0.0487778
0.0477947
0.0471352
0.0465996
0.0460992
0.0455965
0.0450817
0.044562
0.0440544
0.0435785
0.0431489
0.0427687
0.0424221
0.0420838
0.0417227
0.0413099
0.040826
0.0402667
0.0396429
0.119662
0.0600206
0.0500615
0.0466186
0.0450388
0.044163
0.0435748
0.0430968
0.0426492
0.0421988
0.0417382
0.0412749
0.0408245
0.0404041
0.0400262
0.0396945
0.0393972
0.0391155
0.0388271
0.038511
0.0381526
0.0377471
0.0372991
0.104316
0.0542177
0.0457985
0.042859
0.0414964
0.0407334
0.0402171
0.0397961
0.0394021
0.0390072
0.0386061
0.0382059
0.0378204
0.0374642
0.0371481
0.0368761
0.0366394
0.0364242
0.0362141
0.0359933
0.0357498
0.0354778
0.0351773
0.0892269
0.048676
0.0417587
0.0393112
0.0381636
0.0375136
0.03707
0.0367073
0.0363695
0.0360342
0.0356978
0.035367
0.0350534
0.0347692
0.0345237
0.0343204
0.0341525
0.0340098
0.0338796
0.0337495
0.0336091
0.0334517
0.033274
0.0764524
0.0437664
0.0380225
0.0360021
0.0350541
0.0345142
0.0341439
0.033842
0.0335639
0.0332927
0.0330264
0.0327708
0.0325355
0.0323302
0.0321623
0.0320346
0.0319416
0.0318748
0.0318242
0.0317794
0.0317312
0.0316722
0.0315975
0.0654589
0.039167
0.0345439
0.0329297
0.0321739
0.0317432
0.0314484
0.031211
0.0309973
0.0307954
0.0306043
0.0304292
0.0302773
0.0301562
0.0300714
0.0300245
0.0300102
0.0300215
0.0300496
0.0300856
0.0301206
0.0301473
0.0301595
0.0561687
0.0349095
0.0313103
0.0300864
0.0295212
0.0292024
0.0289881
0.0288209
0.0286777
0.0285507
0.0284402
0.0283503
0.0282864
0.0282537
0.028256
0.0282935
0.028361
0.0284518
0.0285579
0.0286709
0.0287827
0.0288855
0.0289726
0.0485859
0.0310861
0.0283457
0.0274763
0.0270956
0.0268919
0.0267643
0.0266748
0.0266092
0.0265637
0.0265393
0.0265393
0.0265672
0.0266264
0.0267188
0.0268435
0.026995
0.0271666
0.0273504
0.0275386
0.0277228
0.0278954
0.0280494
0.0425494
0.0277436
0.0256693
0.0251024
0.0248948
0.0248087
0.0247752
0.0247721
0.0247924
0.0248355
0.0249031
0.0249974
0.0251208
0.0252748
0.02546
0.0256745
0.0259124
0.0261666
0.0264292
0.0266922
0.0269472
0.0271863
0.0274022
0.0377922
0.0248747
0.0232864
0.0229655
0.0229169
0.0229502
0.0230188
0.0231112
0.0232261
0.0233649
0.0235299
0.0237228
0.0239451
0.0241969
0.0244779
0.0247854
0.0251129
0.0254529
0.0257972
0.026137
0.0264637
0.0267689
0.0270449
0.0340674
0.0224532
0.0212008
0.0210721
0.0211664
0.0213192
0.021496
0.0216917
0.0219083
0.0221488
0.0224158
0.0227111
0.0230354
0.0233886
0.0237693
0.0241744
0.0245968
0.0250283
0.0254596
0.0258813
0.0262836
0.0266574
0.0269948
0.0312152
0.0204634
0.019425
0.0194391
0.0196576
0.0199256
0.0202124
0.0205152
0.0208373
0.0211828
0.0215547
0.0219552
0.0223852
0.0228441
0.0233303
0.0238402
0.0243659
0.024898
0.0254258
0.025938
0.0264235
0.026872
0.0272747
0.029155
0.0189058
0.0179804
0.0180911
0.0184112
0.0187838
0.0191758
0.0195835
0.0200102
0.0204605
0.0209381
0.021446
0.0219855
0.0225566
0.0231571
0.0237828
0.0244249
0.025072
0.0257108
0.0263273
0.026908
0.0274409
0.0279161
0.027839
0.0177863
0.0168882
0.0170512
0.017446
0.0179056
0.0183909
0.018895
0.0194205
0.019972
0.0205544
0.0211716
0.021826
0.0225183
0.0232462
0.0240047
0.024783
0.0255666
0.0263382
0.0270794
0.027773
0.0284043
0.0289623
0.0272093
0.0170991
0.0161566
0.0163302
0.0167696
0.0172934
0.0178542
0.0184413
0.0190557
0.0197025
0.0203876
0.0211167
0.0218938
0.0227205
0.0235952
0.0245111
0.025455
0.0264071
0.0273434
0.0282387
0.0290698
0.0298184
0.0304724
0.0271762
0.0168152
0.0157722
0.015919
0.0163726
0.0169353
0.0175509
0.0182045
0.0188961
0.019631
0.020417
0.0212621
0.0221728
0.0231531
0.0242018
0.0253112
0.0264635
0.0276308
0.0287783
0.0298691
0.0308711
0.0317613
0.032527
0.0276187
0.0168792
0.0156972
0.0157871
0.0162274
0.0168045
0.0174541
0.0181576
0.0189141
0.0197302
0.0206161
0.0215835
0.0226431
0.0238027
0.0250637
0.0264174
0.0278402
0.0292916
0.0307178
0.0320625
0.0332796
0.0343404
0.0352342
0.0283908
0.0172171
0.0158761
0.0158881
0.0162931
0.0168631
0.0175275
0.0182653
0.0190754
0.0199664
0.0209524
0.0220503
0.023278
0.0246504
0.0261748
0.027844
0.0296277
0.0314651
0.03327
0.0349509
0.0364397
0.0377032
0.0387383
0.0293236
0.0177501
0.0162511
0.0161733
0.0165243
0.0170677
0.0177294
0.0184871
0.0193404
0.0203005
0.0213868
0.0226246
0.0240421
0.0256674
0.0275207
0.0296026
0.0318781
0.0342566
0.0365928
0.0387262
0.0405551
0.0420496
0.043229
0.0302195
0.0184404
0.0168097
0.0166235
0.0168904
0.0173799
0.018018
0.0187803
0.0196659
0.0206887
0.0218743
0.0232589
0.0248869
0.026808
0.0290679
0.0316903
0.0346471
0.037809
0.0409213
0.0436718
0.0459135
0.0476487
0.0489512
0.030927
0.0195425
0.0177495
0.0173283
0.0174075
0.0177788
0.0183571
0.0191033
0.0200081
0.0210844
0.022364
0.023896
0.0257469
0.0279996
0.0307457
0.0340637
0.037969
0.042307
0.0466241
0.0502184
0.05292
0.0548539
0.0562127
0.0348562
0.0232437
0.020053
0.0186473
0.0181723
0.0182649
0.0187159
0.019416
0.0203233
0.0214403
0.0228013
0.0244692
0.0265366
0.0291314
0.0324185
0.0365866
0.0417863
0.0479487
0.0543342
0.0590406
0.0621329
0.0641095
0.0653834
0.149069
0.0462321
0.0272577
0.0213374
0.0193033
0.0188192
0.0190521
0.0196753
0.0205692
0.0217109
0.0231323
0.024907
0.0271535
0.0300493
0.0338534
0.038933
0.0457609
0.0547617
0.0653333
0.0712118
0.0742709
0.0759264
0.0768823
1.53968
0.168769
0.0460156
0.0254864
0.0205231
0.0192775
0.0192792
0.0198292
0.0207062
0.0218581
0.0233112
0.0251449
0.0274943
0.0305725
0.0347175
0.0404846
0.0488443
0.0616513
0.0828612
0.0883109
0.0900745
0.0907926
0.0911489
0.271382
0.218783
0.222427
0.281301
0.115168
0.115143
0.113705
0.110123
0.100394
0.099621
0.0975176
0.0939351
0.102253
0.100586
0.0984571
0.095906
0.108415
0.105971
0.103125
0.0996923
0.108839
0.105733
0.102005
0.0978172
0.111823
0.108327
0.102865
0.0968567
0.110395
0.104436
0.0981398
0.0926361
0.101032
0.0957555
0.0908901
0.0864789
0.0906877
0.0867215
0.0829047
0.0792603
0.0802177
0.0772753
0.0743038
0.0713582
0.0705722
0.0683809
0.066115
0.0638287
0.0625092
0.0608561
0.0591412
0.0574036
0.0561634
0.054899
0.0535959
0.0522789
0.0512579
0.0502821
0.0492849
0.0482808
0.0474109
0.0466543
0.0458861
0.0451141
0.0442666
0.0436831
0.0430919
0.0424968
0.0415588
0.0411154
0.0406654
0.0402103
0.03914
0.0388108
0.0384751
0.0381333
0.0369401
0.036704
0.0364612
0.0362114
0.0349355
0.0347748
0.0346074
0.0344325
0.0331273
0.0330278
0.0329213
0.032807
0.0315281
0.0314781
0.031421
0.0313557
0.0301539
0.0301447
0.0301281
0.030103
0.0290208
0.0290459
0.0290632
0.0290716
0.0281442
0.0281991
0.0282454
0.0282822
0.0275392
0.0276207
0.0276928
0.0277546
0.0272217
0.0273282
0.0274241
0.0275087
0.0272112
0.0273422
0.0274611
0.0275673
0.0275324
0.0276885
0.0278306
0.0279583
0.0282184
0.0284013
0.0285678
0.0287175
0.0293141
0.0295262
0.0297188
0.0298918
0.0308799
0.0311241
0.0313448
0.0315425
0.0329966
0.0332756
0.0335263
0.0337496
0.0357711
0.0360868
0.036368
0.0366165
0.0393439
0.0396952
0.0400046
0.0402754
0.0438961
0.0442765
0.0446072
0.0448929
0.0496575
0.0500521
0.0503896
0.050677
0.0569124
0.0572941
0.0576145
0.0578831
0.0660009
0.0663289
0.0665988
0.0668213
0.0773157
0.0775397
0.0777206
0.0778676
0.0912992
0.0913749
0.0914351
0.0914835
0.108141
0.0691926
0.0554095
0.0492506
0.0457708
0.043102
0.0406872
0.0386459
0.0368146
0.0349604
0.0331184
0.0314917
0.030138
0.028962
0.0279582
0.0272114
0.0268495
0.0278739
0.0382927
0.0882378
0.0696458
0.0588775
0.0527601
0.0489692
0.0460824
0.0435755
0.041465
0.039651
0.0378666
0.0361487
0.0346954
0.033521
0.0324184
0.0312942
0.0305028
0.0304718
0.0325844
0.0511261
0.0853245
0.0723676
0.0626745
0.0567144
0.0528281
0.049691
0.0468365
0.044366
0.0423043
0.0404159
0.0388862
0.0378725
0.0371185
0.0360962
0.0346968
0.0335276
0.033595
0.0372072
0.0654766
0.0906999
0.0781933
0.0673604
0.0612423
0.0574329
0.054038
0.0505429
0.0474355
0.0449886
0.0427316
0.0411685
0.0406816
0.0405725
0.0398114
0.038194
0.0364809
0.0365157
0.0414713
0.0712547
0.091996
0.0805082
0.0700077
0.0641786
0.0606953
0.0570443
0.052815
0.0490972
0.0462774
0.0440025
0.0425722
0.0422795
0.0425353
0.0421764
0.0408444
0.0392128
0.0387337
0.0428416
0.0768264
0.0906824
0.080653
0.0710185
0.0642786
0.0597135
0.0558714
0.0522971
0.0494036
0.0470357
0.0449511
0.0440135
0.0435722
0.0427024
0.0414107
0.0402253
0.0400181
0.0411881
0.0440815
0.062562
0.0890676
0.0800992
0.070745
0.0634408
0.0581668
0.0541092
0.0508418
0.0483009
0.0461308
0.0440843
0.0429768
0.0428119
0.0417299
0.0397008
0.0380577
0.0376486
0.0389489
0.0410122
0.0513277
0.0850665
0.0766433
0.0684886
0.0616545
0.0563054
0.0521498
0.0490034
0.0465261
0.0443908
0.0424376
0.0409434
0.0400418
0.0390981
0.0378419
0.0364256
0.0356072
0.0359859
0.0369193
0.0459645
0.079733
0.0717716
0.0646262
0.0585773
0.0536629
0.0498373
0.0469278
0.0445509
0.042443
0.040536
0.0389363
0.037655
0.036454
0.0352574
0.0340244
0.0329934
0.03284
0.0333454
0.047743
0.0734996
0.0663391
0.0600855
0.0548828
0.0506774
0.0473777
0.0447862
0.0426034
0.0406268
0.0388071
0.0372354
0.0358995
0.0346296
0.0333604
0.0320196
0.0304344
0.0293255
0.0301542
0.0519319
0.0666786
0.0607043
0.0555268
0.0512341
0.0477503
0.0449633
0.0426885
0.0407088
0.0388867
0.0371923
0.0356905
0.0343678
0.0331113
0.0318424
0.030416
0.0285218
0.0265822
0.0265379
0.0439071
0.0601988
0.0554834
0.0513738
0.0479277
0.0450798
0.0427247
0.0407129
0.0388988
0.0372013
0.035605
0.0341387
0.0327787
0.0314642
0.030131
0.028596
0.0264657
0.0239396
0.0226015
0.0305346
0.0546515
0.0510338
0.047836
0.0450922
0.0427524
0.0407315
0.0389217
0.03723
0.0356088
0.0340469
0.0325484
0.0310928
0.0296556
0.0281784
0.0264761
0.024194
0.0215268
0.0198034
0.0236673
0.0501956
0.0474306
0.0449383
0.0427349
0.0407819
0.0390153
0.0373618
0.0357625
0.0341857
0.0326193
0.0310579
0.0294902
0.0279176
0.0262942
0.0244941
0.0223157
0.0200351
0.0187279
0.0222763
0.0466889
0.0445535
0.0425843
0.0407861
0.0391283
0.0375638
0.0360432
0.034528
0.032996
0.0314363
0.0298448
0.0282228
0.0265801
0.0249073
0.0231806
0.0213904
0.0198705
0.0196713
0.0259999
0.0438825
0.0422092
0.0406283
0.0391386
0.0377157
0.0363244
0.0349304
0.0335082
0.0320433
0.0305297
0.0289697
0.0273777
0.0257725
0.024183
0.0226686
0.0213604
0.0206561
0.0217995
0.0323683
0.0415377
0.0402139
0.0389321
0.0376877
0.036461
0.0352261
0.0339595
0.0326442
0.0312719
0.0298431
0.028368
0.0268675
0.0253757
0.0239491
0.0226928
0.0218136
0.0218
0.0241982
0.0392542
0.0394668
0.0384207
0.0373816
0.0363436
0.0352909
0.0342043
0.0330671
0.0318687
0.0306064
0.0292855
0.0279218
0.0265431
0.0251945
0.0239499
0.0229385
0.022409
0.0229391
0.0264444
0.0457538
0.0375652
0.0367471
0.0359118
0.0350527
0.0341574
0.0332114
0.0322028
0.0311256
0.0299807
0.0287772
0.027535
0.0262868
0.0250856
0.0240171
0.0232235
0.0229752
0.0239127
0.0282722
0.0517316
0.035788
0.0351603
0.0344986
0.0337965
0.0330437
0.0322291
0.0313446
0.030387
0.02936
0.0282745
0.0271551
0.0260392
0.0249835
0.0240783
0.0234748
0.02346
0.0247318
0.0297855
0.0575556
0.0341285
0.0336602
0.0331469
0.032582
0.031957
0.0312634
0.0304948
0.0296513
0.0287389
0.0277713
0.0267734
0.0257849
0.0248658
0.0241098
0.0236735
0.0238591
0.0254165
0.0311136
0.0625364
0.0326015
0.0322661
0.0318785
0.0314324
0.0309205
0.0303361
0.0296756
0.0289399
0.0281364
0.0272804
0.0263978
0.0255294
0.0247366
0.024115
0.0238249
0.024179
0.025961
0.0321026
0.0659816
0.0312311
0.0310063
0.0307249
0.0303807
0.0299675
0.0294805
0.0289172
0.0282801
0.0275772
0.0268247
0.0260491
0.0252913
0.0246129
0.0241101
0.0239448
0.0244361
0.0263851
0.0327978
0.0680095
0.0300451
0.0299115
0.0297186
0.0294607
0.0291324
0.02873
0.0282526
0.0277033
0.0270909
0.026432
0.0257529
0.0250941
0.0245166
0.0241157
0.0240532
0.0246503
0.0267155
0.033277
0.0689686
0.0290692
0.0290108
0.0288913
0.0287054
0.0284486
0.0281185
0.027715
0.027242
0.0267087
0.0261316
0.0255368
0.0249637
0.024472
0.024155
0.0241731
0.0248464
0.026986
0.0336444
0.0698919
0.0283269
0.0283309
0.028272
0.0281456
0.0279483
0.0276784
0.0273368
0.0269281
0.0264616
0.0259536
0.0254294
0.0249273
0.0245049
0.0242536
0.0243312
0.0250561
0.0272447
0.0340106
0.0713137
0.0278399
0.0278967
0.0278881
0.0278107
0.0276618
0.027441
0.0271498
0.0267933
0.026381
0.0259287
0.0254609
0.0250142
0.0246447
0.0244411
0.0245593
0.025317
0.0275397
0.0344205
0.0729363
0.0276306
0.0277329
0.0277666
0.0277293
0.0276195
0.0274377
0.0271863
0.0268706
0.0265002
0.0260903
0.0256645
0.0252579
0.0249248
0.0247522
0.0248943
0.0256695
0.0279132
0.0348919
0.0746096
0.0277234
0.0278664
0.0279364
0.0279321
0.0278535
0.027702
0.0274807
0.0271954
0.0268555
0.0264757
0.0260783
0.0256974
0.0253853
0.0252279
0.0253791
0.0261591
0.0284124
0.0354596
0.0761814
0.0281477
0.0283285
0.0284304
0.0284537
0.0283999
0.0282715
0.0280723
0.0278084
0.0274892
0.0271284
0.0267476
0.026379
0.026074
0.0259175
0.0260637
0.0268364
0.0290874
0.0361546
0.0771976
0.0289405
0.0291576
0.0292885
0.0293353
0.0293014
0.0291903
0.0290069
0.0287574
0.0284509
0.0281005
0.0277264
0.0273595
0.0270495
0.0268807
0.0270082
0.0277593
0.029993
0.0370367
0.077795
0.0301494
0.0304023
0.0305601
0.0306275
0.0306097
0.0305119
0.0303398
0.0300998
0.0298008
0.0294551
0.0290812
0.0287085
0.028385
0.0281936
0.0282901
0.0290062
0.0312151
0.0382947
0.0796227
0.031836
0.0321243
0.0323072
0.0323928
0.0323887
0.0323017
0.0321384
0.0319057
0.0316121
0.0312688
0.0308932
0.0305124
0.0301724
0.0299545
0.0300148
0.030692
0.0328907
0.0401587
0.0836516
0.0340796
0.0344019
0.0346079
0.0347095
0.0347173
0.0346399
0.0344852
0.0342603
0.0339735
0.0336352
0.0332613
0.0328771
0.0325265
0.032289
0.032322
0.032975
0.0352021
0.0428148
0.0896632
0.0369812
0.0373342
0.0375597
0.0376748
0.0376932
0.0376257
0.0374811
0.0372674
0.0369925
0.0366666
0.0363044
0.0359301
0.0355863
0.0353521
0.0353881
0.0360609
0.0383905
0.0465073
0.0976775
0.0406691
0.0410453
0.0412847
0.0414097
0.0414374
0.0413807
0.0412496
0.0410525
0.040798
0.0404962
0.0401621
0.0398201
0.0395137
0.0393251
0.039424
0.0402074
0.0427877
0.0516989
0.108513
0.045304
0.0456905
0.0459347
0.0460644
0.0460995
0.0460548
0.0459413
0.0457682
0.0455445
0.0452816
0.044996
0.044715
0.0444876
0.0444059
0.0446589
0.0456908
0.0487283
0.0588866
0.123738
0.0510853
0.0514624
0.0516986
0.0518258
0.0518657
0.051834
0.0517421
0.0515999
0.0514175
0.0512078
0.0509908
0.0507999
0.050695
0.0507894
0.0513112
0.0527833
0.0566532
0.0689152
0.146258
0.0582592
0.0586005
0.0588125
0.0589281
0.058969
0.0589501
0.0588826
0.0587765
0.0586426
0.058496
0.0583602
0.0582767
0.0583215
0.058641
0.0595327
0.0616662
0.0668947
0.0826215
0.178612
0.0671287
0.0674032
0.0675729
0.0676668
0.0677036
0.0676957
0.067653
0.0675845
0.067501
0.0674178
0.0673607
0.0673763
0.067554
0.0680742
0.0693234
0.0722042
0.0792819
0.100565
0.22518
0.0780684
0.0782461
0.078356
0.078418
0.0784446
0.0784443
0.0784238
0.07839
0.0783512
0.0783205
0.0783198
0.0783909
0.0786171
0.0791783
0.0804964
0.0836783
0.0921957
0.121471
0.289194
0.0915493
0.0916074
0.0916436
0.0916646
0.0916746
0.0916765
0.091673
0.0916667
0.0916613
0.0916626
0.0916807
0.0917349
0.0918652
0.0921633
0.0928703
0.0947583
0.10115
0.139543
0.363274
)
;

boundaryField
{
    leftWall
    {
        type            epsilonWallFunction;
        value           nonuniform List<scalar> 
50
(
0.00459006
0.0105613
0.0188493
0.0272781
0.035564
0.0436866
0.0516702
0.0596948
0.071456
0.0863626
0.100409
0.118594
0.156522
0.20566
0.222953
0.190795
0.146713
0.111952
0.111193
0.139405
0.1713
0.182017
0.180006
0.172221
0.161278
0.148425
0.134433
0.119662
0.104316
0.0892269
0.0764524
0.0654589
0.0561687
0.0485859
0.0425494
0.0377922
0.0340674
0.0312152
0.029155
0.027839
0.0272093
0.0271762
0.0276187
0.0283908
0.0293236
0.0302195
0.030927
0.0348562
0.149069
1.53968
)
;
    }
    rightWall
    {
        type            epsilonWallFunction;
        value           nonuniform List<scalar> 
50
(
0.00407515
0.00687028
0.0108499
0.0146455
0.0183016
0.0214624
0.0250373
0.0300505
0.0382927
0.0511261
0.0654766
0.0712547
0.0768264
0.062562
0.0513277
0.0459645
0.047743
0.0519319
0.0439071
0.0305346
0.0236673
0.0222763
0.0259999
0.0323683
0.0392542
0.0457538
0.0517316
0.0575556
0.0625364
0.0659816
0.0680095
0.0689686
0.0698919
0.0713137
0.0729363
0.0746096
0.0761814
0.0771976
0.077795
0.0796227
0.0836516
0.0896632
0.0976775
0.108513
0.123738
0.146258
0.178612
0.22518
0.289194
0.363274
)
;
    }
    lowerWall
    {
        type            epsilonWallFunction;
        value           nonuniform List<scalar> 
62
(
0.00459006
0.0279667
0.0494667
0.0689269
0.0861764
0.101254
0.114284
0.125473
0.135087
0.143379
0.150624
0.156603
0.1612
0.164384
0.165907
0.164863
0.157589
0.145339
0.131327
0.114621
0.0895011
0.0517489
0.0130853
0.0130853
0.020474
0.0318502
0.0425715
0.053984
0.0695921
0.0996153
0.185971
0.271382
0.218783
0.222427
0.281301
0.00932563
0.0179343
0.0314422
0.0469556
0.0658136
0.0920194
0.133223
0.215777
0.00932563
0.0496537
0.0782142
0.0922494
0.0980255
0.0984337
0.0919182
0.076917
0.0622524
0.060568
0.0637999
0.0626661
0.0588493
0.0602704
0.0635969
0.0577836
0.0398216
0.0192673
0.00407515
)
;
    }
    atmosphere
    {
        type            inletOutlet;
        inletValue      uniform 0.1;
        value           nonuniform List<scalar> 
46
(
0.1
0.168769
0.0460156
0.0254864
0.0205231
0.0192775
0.0192792
0.0198292
0.0207062
0.0218581
0.0233112
0.0251449
0.0274943
0.0305725
0.0347175
0.0404846
0.0488443
0.0616513
0.1
0.1
0.1
0.1
0.1
0.1
0.1
0.1
0.1
0.1
0.1
0.1
0.1
0.1
0.1
0.1
0.1
0.1
0.1
0.1
0.1
0.1
0.1
0.1
0.1
0.1
0.139543
0.363274
)
;
    }
    defaultFaces
    {
        type            empty;
    }
}


// ************************************************************************* //
