/*--------------------------------*- C++ -*----------------------------------*\
  =========                 |
  \\      /  F ield         | OpenFOAM: The Open Source CFD Toolbox
   \\    /   O peration     | Website:  https://openfoam.org
    \\  /    A nd           | Version:  9
     \\/     M anipulation  |
\*---------------------------------------------------------------------------*/
FoamFile
{
    format      ascii;
    class       volScalarField;
    location    "4.05";
    object      nut;
}
// * * * * * * * * * * * * * * * * * * * * * * * * * * * * * * * * * * * * * //

dimensions      [0 2 -1 0 0 0 0];

internalField   nonuniform List<scalar> 
2268
(
2.14637e-05
2.45263e-05
2.94225e-05
3.26807e-05
3.50696e-05
3.69075e-05
3.8362e-05
3.95348e-05
4.04957e-05
4.12973e-05
4.1979e-05
4.25678e-05
4.31171e-05
4.35815e-05
4.38805e-05
4.38594e-05
4.31266e-05
4.13334e-05
3.95834e-05
3.81757e-05
3.62431e-05
3.12667e-05
1.92981e-05
4.89545e-05
0.00018909
0.000249804
0.0002886
0.000316809
0.000338688
0.000356381
0.000371109
0.000383692
0.000394785
0.000404907
0.000414258
0.000421843
0.000427676
0.000431516
0.000432149
0.000426882
0.000408236
0.00038145
0.000368414
0.000334528
0.000247887
6.36e-05
5.81265e-05
0.000323537
0.000460588
0.000547986
0.000611706
0.000661352
0.000701655
0.000735312
0.000764101
0.000789338
0.000811952
0.000832218
0.000849045
0.00086201
0.000869972
0.000870319
0.000858071
0.000824097
0.000774597
0.000721304
0.000617674
0.000411345
7.55088e-05
6.48749e-05
0.00042074
0.000629804
0.000765137
0.00086432
0.00094186
0.0010049
0.00105753
0.0011024
0.00114141
0.00117579
0.00120593
0.00123087
0.00124966
0.00126024
0.00125884
0.00123925
0.0011926
0.00111959
0.00101814
0.000837521
0.000525093
8.52565e-05
7.01913e-05
0.000494234
0.000766895
0.000946804
0.00107958
0.00118379
0.00126866
0.00133949
0.00139971
0.00145166
0.00149684
0.00153576
0.00156758
0.0015909
0.00160295
0.00159912
0.00157254
0.00151457
0.00141826
0.00127046
0.00101795
0.000612013
9.46773e-05
7.46212e-05
0.000552231
0.000879853
0.00110022
0.00126416
0.00139341
0.00149892
0.00158703
0.00166177
0.00172585
0.00178101
0.00182786
0.00186564
0.00189269
0.00190567
0.00189948
0.00186678
0.00179823
0.00168221
0.00149426
0.00117892
0.000684991
0.000105653
7.84733e-05
0.000599548
0.000974396
0.00123105
0.00142356
0.00157608
0.00170098
0.00180539
0.00189384
0.00196936
0.00203381
0.00208795
0.00213113
0.00216148
0.00217538
0.00216744
0.0021301
0.00205319
0.00192162
0.00170445
0.00133986
0.000761155
0.000120869
8.19372e-05
0.000639027
0.00105455
0.00134359
0.00156213
0.00173616
0.00187915
0.0019989
0.00210031
0.00218663
0.00225984
0.00232079
0.00236901
0.00240261
0.00241775
0.00240903
0.00236892
0.00228683
0.00214606
0.00191348
0.00152357
0.000878775
0.000144152
1.59141e-05
2.87554e-05
3.35658e-05
3.56277e-05
3.6452e-05
3.65756e-05
3.64275e-05
3.62705e-05
3.6376e-05
3.66456e-05
3.55683e-05
3.35674e-05
3.21363e-05
3.37719e-05
3.62433e-05
3.60388e-05
3.32031e-05
2.77959e-05
2.97486e-05
5.88901e-05
0.000228638
0.000303703
0.000337592
0.000351164
0.000355008
0.000351962
0.00035056
0.000352669
0.000349564
0.000335005
0.000293764
0.000275661
0.000312987
0.000318079
0.000298302
0.000251247
0.000148356
6.27808e-05
7.15601e-05
0.000383656
0.00056607
0.000655466
0.000694008
0.000706922
0.000705778
0.000703296
0.000703713
0.000695633
0.000666231
0.000602622
0.000574864
0.000610721
0.000606955
0.000557529
0.000454169
0.000269969
6.84859e-05
8.22396e-05
0.000495558
0.000776927
0.000924325
0.000991952
0.00101755
0.00102104
0.00101809
0.00101507
0.00100051
0.000960986
0.000891167
0.000854852
0.000868175
0.000842313
0.000758309
0.000605213
0.000363632
7.15273e-05
9.31256e-05
0.000592282
0.000959634
0.00115877
0.00125358
0.00129212
0.00130069
0.00129729
0.00128958
0.00126854
0.00122243
0.00115112
0.00110442
0.00108836
0.00103287
0.000911915
0.00071405
0.000428371
7.32676e-05
0.000106189
0.000690265
0.00113333
0.00137356
0.00148986
0.00153914
0.0015518
0.00154744
0.00153449
0.00150704
0.0014555
0.00138269
0.00132353
0.00127708
0.00118907
0.00103013
0.000789949
0.000467988
7.43897e-05
0.000123831
0.000804925
0.00131245
0.00157908
0.00170886
0.00176521
0.00178024
0.00177404
0.00175544
0.00172128
0.00166438
0.00158825
0.00151516
0.00143975
0.00131899
0.00112166
0.000839823
0.000486151
7.52539e-05
0.000150656
0.000963464
0.00150823
0.00178147
0.00191569
0.00197496
0.00199035
0.00198127
0.00195663
0.0019153
0.00185257
0.00177091
0.00168312
0.00158114
0.00142874
0.00119272
0.000869088
0.00049186
7.5922e-05
8.69528e-05
0.000691237
0.00116178
0.00149612
0.00175195
0.0019573
0.002127
0.00226964
0.00239053
0.00249312
0.00257955
0.00265072
0.0027062
0.00274422
0.00276133
0.00275256
0.00271093
0.00262615
0.00248154
0.00224787
0.00187804
0.00132476
0.000642394
9.21017e-05
0.000740764
0.00126611
0.00164853
0.00194506
0.00218544
0.00238584
0.00255549
0.00269994
0.00282274
0.00292614
0.00301115
0.00307743
0.00312352
0.00314701
0.00314413
0.00310973
0.00303632
0.00291283
0.00272364
0.00245072
0.00208531
0.00165517
9.67765e-05
0.00077138
0.0013421
0.00176544
0.0020955
0.00236472
0.00259099
0.00278381
0.00294871
0.00308947
0.00320855
0.00330714
0.00338503
0.00344118
0.00347411
0.00348116
0.00345959
0.00340492
0.00331093
0.00317142
0.0029845
0.00275934
0.00252486
0.000101769
0.000783317
0.00139822
0.00186025
0.00221622
0.00250743
0.00275477
0.00296715
0.00314936
0.00330565
0.00343927
0.00355149
0.00364183
0.00370986
0.00375461
0.0037737
0.00376764
0.00373363
0.00366728
0.00356609
0.00343576
0.0032915
0.00315508
0.000104189
0.00080225
0.00144824
0.00194404
0.00230994
0.00261417
0.00287693
0.00310647
0.00330737
0.00347915
0.00362699
0.00375347
0.00385714
0.00393772
0.00399508
0.00402822
0.00403841
0.00402381
0.00397819
0.00389858
0.00379924
0.00369576
0.00360359
0.000105963
0.000813161
0.00144914
0.00194572
0.00233277
0.0026611
0.00294637
0.00319469
0.00341625
0.00360911
0.00377557
0.00391889
0.0040375
0.00413116
0.00420083
0.00424756
0.00427016
0.00426781
0.00423376
0.00416569
0.0040826
0.00399595
0.00391798
0.000105207
0.000822788
0.00145275
0.0019392
0.00232667
0.00267216
0.00298084
0.00325314
0.00349699
0.00371228
0.0038992
0.00405942
0.00419192
0.00429636
0.00437504
0.00442992
0.00445932
0.00446449
0.00443742
0.00438478
0.00431651
0.00424676
0.00419205
0.000103066
0.000800102
0.00145362
0.00195074
0.0023421
0.00269838
0.0030264
0.00332116
0.0035845
0.00381475
0.00401442
0.00418574
0.00432763
0.00443998
0.00452518
0.00458505
0.00461876
0.00462838
0.00461276
0.00457739
0.00452826
0.00447244
0.0044209
0.000102133
0.000750914
0.00142762
0.00195391
0.00237777
0.00275725
0.0031028
0.00341154
0.00368312
0.00391969
0.00412551
0.00430251
0.00445051
0.00456918
0.00466007
0.00472471
0.00476397
0.00478034
0.00477513
0.00475123
0.00471314
0.0046644
0.00461449
0.000101994
0.000744694
0.00142284
0.00197925
0.00244022
0.00284358
0.00320125
0.00351584
0.00379041
0.00402939
0.00423716
0.00441614
0.00456695
0.0046899
0.00478572
0.00485576
0.00490141
0.00492498
0.00492813
0.00491248
0.00488138
0.00483934
0.00479451
0.000102963
0.000772661
0.00146335
0.00204364
0.00253052
0.00294939
0.00331346
0.00362981
0.00390441
0.00414301
0.0043503
0.00452919
0.00468094
0.00480628
0.00490596
0.00498103
0.00503284
0.00506322
0.00507365
0.00506571
0.00504194
0.00500694
0.00496713
0.000104748
0.000819238
0.00153505
0.00213452
0.00263703
0.00306445
0.0034313
0.00374745
0.00402078
0.00425785
0.0044637
0.00464161
0.00479339
0.00492011
0.00502261
0.00510185
0.00515895
0.00519537
0.00521246
0.00521171
0.00519544
0.00516739
0.00513242
0.000106771
0.000869384
0.00161463
0.00223141
0.00274486
0.00317778
0.00354631
0.00386214
0.00413434
0.00437006
0.00457463
0.00475164
0.00490335
0.0050311
0.00513589
0.00521862
0.00528028
0.00532209
0.00534528
0.0053513
0.00534218
0.00532088
0.00529096
0.000108779
0.000909428
0.00168411
0.00231841
0.00284215
0.00328049
0.00365137
0.00396794
0.00424015
0.00447558
0.00467984
0.00485679
0.00500898
0.00513806
0.00524517
0.00533125
0.0053972
0.00544409
0.00547311
0.00548562
0.00548337
0.00546864
0.00544407
0.000110839
0.000933826
0.00173488
0.00238674
0.00292144
0.00336645
0.00374144
0.00406064
0.00433467
0.00457146
0.00477686
0.004955
0.00510868
0.00523982
0.00534974
0.00543946
0.00550985
0.00556192
0.00559679
0.00561571
0.00562017
0.00561193
0.00559298
0.000112207
0.000949124
0.00177023
0.00243724
0.00298254
0.00343498
0.00381539
0.00413881
0.0044163
0.00465606
0.00486414
0.00504486
0.00520128
0.00533552
0.00544906
0.00554303
0.00561833
0.00567593
0.00571687
0.00574229
0.00575342
0.00575169
0.00573855
0.000112967
0.000957612
0.00179282
0.00247188
0.00302669
0.00348672
0.0038734
0.00420223
0.00448454
0.00472873
0.00494094
0.00512568
0.00528614
0.00542463
0.00554277
0.00564179
0.00572263
0.00578622
0.00583356
0.00586564
0.00588353
0.00588833
0.00588115
0.000113219
0.000960482
0.00180462
0.00249266
0.0030556
0.00352295
0.00391635
0.00425145
0.00453971
0.00478956
0.00500724
0.0051973
0.00536307
0.00550695
0.00563069
0.00573558
0.00582261
0.00589269
0.00594675
0.0059857
0.00601041
0.00602177
0.00602062
0.000113044
0.000958635
0.00180722
0.00250141
0.00307103
0.00354523
0.00394553
0.00428751
0.00458259
0.00483916
0.00506343
0.00525998
0.00543218
0.00558249
0.00571272
0.00582422
0.00591801
0.005995
0.00605606
0.006102
0.00613358
0.0061515
0.0061564
0.000112496
0.00095284
0.00180198
0.00249976
0.00307465
0.00355516
0.00396239
0.00431169
0.00461428
0.00487842
0.00511022
0.00531422
0.00549378
0.00565136
0.00578881
0.0059075
0.00600849
0.00609267
0.00616088
0.00621385
0.00625226
0.00627667
0.00628756
0.000111618
0.000943724
0.00179008
0.0024892
0.00306808
0.00355432
0.00396844
0.00432537
0.004636
0.00490838
0.00514845
0.00536065
0.00554825
0.00571371
0.00585888
0.00598513
0.00609355
0.00618502
0.00626038
0.00632031
0.00636541
0.00639615
0.00641291
0.000110444
0.000931828
0.00177258
0.00247111
0.00305284
0.00354429
0.00396521
0.00432997
0.00464904
0.00493014
0.005179
0.00539989
0.00559597
0.00576967
0.00592279
0.00605674
0.00617258
0.00627127
0.00635361
0.00642027
0.00647179
0.00650862
0.00653105
0.000109001
0.00091769
0.00175053
0.00244682
0.00303042
0.00352661
0.00395423
0.00432693
0.00465468
0.00494481
0.00520274
0.00543255
0.00563728
0.00581927
0.00598031
0.00612181
0.00624487
0.00635049
0.00643946
0.00651248
0.00657006
0.00661264
0.00664047
0.000107305
0.000901826
0.00172491
0.00241764
0.0030023
0.00350284
0.00393702
0.00431768
0.0046542
0.00495342
0.00522046
0.00545914
0.00567239
0.00586245
0.00603109
0.00617976
0.0063096
0.00642165
0.00651676
0.00659564
0.00665884
0.00670678
0.0067397
0.000105375
0.000884717
0.00169668
0.00238484
0.00296997
0.00347452
0.00391509
0.00430362
0.00464879
0.00495695
0.00523285
0.00548009
0.00570142
0.00589904
0.00607472
0.00622992
0.00636589
0.00648373
0.00658437
0.00666854
0.00673685
0.00678972
0.00682741
0.000103216
0.000866793
0.00166672
0.00234965
0.00293485
0.00344316
0.0038899
0.00428605
0.00463955
0.00495624
0.00524049
0.00549566
0.00572438
0.0059288
0.00611071
0.00627164
0.00641295
0.00653584
0.00664131
0.00673018
0.00680309
0.0068605
0.00690268
0.000100809
0.000848161
0.00163563
0.00231316
0.0028983
0.00341018
0.00386278
0.00426612
0.00462741
0.00495196
0.00524378
0.00550601
0.0057412
0.00595147
0.00613866
0.0063044
0.00645019
0.00657734
0.00668697
0.00677998
0.00685708
0.00691873
0.00696521
9.81943e-05
0.000827933
0.00160346
0.00227617
0.00286146
0.00337676
0.00383482
0.00424473
0.00461302
0.00494453
0.00524294
0.00551121
0.0057518
0.00596685
0.00615831
0.00632793
0.00647736
0.00660808
0.00672131
0.00681805
0.00689905
0.0069648
0.00701556
9.56891e-05
0.000804139
0.00156989
0.00223929
0.00282522
0.00334375
0.00380668
0.00422234
0.0045967
0.00493413
0.00523806
0.00551126
0.00575617
0.00597499
0.00616977
0.00634244
0.00649484
0.0066286
0.00674508
0.00684536
0.00693022
0.00700014
0.00705536
9.32375e-05
0.000782102
0.00153849
0.00220485
0.0027911
0.0033121
0.00377889
0.00419923
0.00457855
0.00492084
0.00522923
0.00550636
0.00575463
0.00597634
0.0061737
0.00634884
0.00650379
0.00664036
0.00676005
0.006864
0.00695298
0.00702743
0.00708748
9.09203e-05
0.00076404
0.00151176
0.00217438
0.00275968
0.00328174
0.00375109
0.00417496
0.00455828
0.00490457
0.00521663
0.00549694
0.00574791
0.00597194
0.00617147
0.00634881
0.00650627
0.00664583
0.0067691
0.00687723
0.00697094
0.00705052
0.00711602
8.88539e-05
0.000750772
0.0014903
0.00214745
0.00272966
0.00325096
0.00372157
0.00414817
0.00453499
0.00488497
0.00520045
0.00548371
0.00573716
0.00596339
0.00616508
0.00634486
0.00650526
0.00664848
0.00677617
0.00688944
0.00698883
0.00707446
0.00714616
8.71315e-05
0.000741508
0.00147216
0.00212095
0.00269722
0.00321592
0.00368708
0.00411649
0.00450732
0.00486159
0.00518104
0.00546769
0.005724
0.00595282
0.0061572
0.00634018
0.00650454
0.00665265
0.00678617
0.00690601
0.00701243
0.00710521
0.00718393
8.58118e-05
0.000734422
0.00145277
0.00208836
0.00265539
0.00317043
0.00364284
0.00407677
0.00447364
0.00483407
0.00515903
0.00545027
0.00571042
0.00594277
0.00615095
0.00633848
0.00650846
0.00666337
0.00680475
0.00693313
0.00704824
0.00714939
0.00723587
8.49429e-05
0.000726667
0.00142431
0.00203941
0.00259415
0.0031063
0.00358309
0.00402557
0.0044324
0.00480231
0.00513532
0.00543305
0.00569857
0.00593591
0.00614951
0.00634359
0.00652161
0.00668608
0.00683814
0.0069776
0.00710334
0.00721403
0.00730868
8.46263e-05
0.000713615
0.00137526
0.00196089
0.00250202
0.00301505
0.00350241
0.00396006
0.0043827
0.00476668
0.00511108
0.0054177
0.00569046
0.00593459
0.00615572
0.00635907
0.00654851
0.00672637
0.00689294
0.00704671
0.00718519
0.00730629
0.00740891
8.5158e-05
0.000687881
0.00129279
0.0018412
0.00237046
0.00289121
0.00339791
0.00387929
0.00432486
0.00472819
0.0050876
0.00540557
0.00568749
0.00594035
0.00617154
0.00638762
0.00659318
0.00678988
0.0069763
0.00714849
0.00730179
0.00743335
0.00754263
8.73296e-05
0.000641036
0.0011714
0.00167941
0.00220065
0.00273672
0.00327185
0.00378558
0.00426101
0.00468856
0.00506612
0.00539743
0.00569004
0.00595342
0.00619741
0.00643063
0.00665868
0.00688225
0.00709648
0.00729241
0.00746196
0.00760241
0.00771517
9.30128e-05
0.000570022
0.00102226
0.00149192
0.00200789
0.00256382
0.00313338
0.00368542
0.00419542
0.00465026
0.00504766
0.0053932
0.0056972
0.00597229
0.0062316
0.00648695
0.00674619
0.00700925
0.00726456
0.007491
0.00767606
0.00782048
0.00793068
0.000110038
0.00047316
0.00086233
0.00130362
0.00181703
0.00239338
0.00299819
0.00358947
0.00413445
0.00461636
0.00503296
0.00539196
0.00570675
0.00599351
0.0062695
0.0065515
0.00685282
0.00717613
0.00749917
0.00776323
0.00795648
0.00809367
0.00819117
0.000191717
0.000341864
0.000689996
0.00113047
0.00165284
0.00225026
0.0028863
0.00351139
0.004086
0.00459036
0.00502252
0.0053922
0.00571556
0.00601207
0.00630333
0.006613
0.00696611
0.00738238
0.00784202
0.00814006
0.00831653
0.00842477
0.00849486
0.000413138
0.000244057
0.000521079
0.00099423
0.00154389
0.0021623
0.00281982
0.00346595
0.0040583
0.0045758
0.00501686
0.00539254
0.00572069
0.0060228
0.00632354
0.00665285
0.00705223
0.00759149
0.00841516
0.00866747
0.00876211
0.00880754
0.00883362
0.000150896
0.000142554
0.000141909
0.000148763
0.0013398
0.00128173
0.00127581
0.0013258
0.00238921
0.00234169
0.00232886
0.00235197
0.00308321
0.00305159
0.00303198
0.00302617
0.00355744
0.00353323
0.00351082
0.00349141
0.00389512
0.00387508
0.0038549
0.00383391
0.00416256
0.00414252
0.00412357
0.00410187
0.00438372
0.00436143
0.00434124
0.00432313
0.00457979
0.00455904
0.00454067
0.00452522
0.00476299
0.00474384
0.00472615
0.00471006
0.00493731
0.00491849
0.00490016
0.00488237
0.00510408
0.00508552
0.00506667
0.00504759
0.00526464
0.00524677
0.005228
0.00520835
0.00542035
0.00540368
0.00538559
0.0053661
0.00557237
0.0055573
0.00554039
0.00552166
0.0057214
0.00570824
0.0056929
0.00567539
0.0058677
0.00585666
0.00584316
0.0058272
0.00601104
0.00600226
0.00599078
0.00597661
0.00615076
0.00614433
0.006135
0.00612278
0.00628589
0.00628184
0.00627473
0.00626455
0.00641516
0.00641349
0.00640862
0.00640053
0.00653712
0.00653779
0.00653515
0.00652917
0.00665023
0.00665318
0.00665272
0.00664885
0.00675298
0.00675813
0.00675981
0.006758
0.00684406
0.00685134
0.00685511
0.00685535
0.00692258
0.00693194
0.00693777
0.00694007
0.00698831
0.00699973
0.00700765
0.00701205
0.00704191
0.00705545
0.00706553
0.0070721
0.00708513
0.00710093
0.00711331
0.00712221
0.00712099
0.00713924
0.0071541
0.00716554
0.00715366
0.0071746
0.00719218
0.00720637
0.00718836
0.00721225
0.00723277
0.00724989
0.00723109
0.00725812
0.00728172
0.00730187
0.00728822
0.00731844
0.00734512
0.00736824
0.00736611
0.00739935
0.00742884
0.00745462
0.00747073
0.00750645
0.00753815
0.00756593
0.00760735
0.00764449
0.00767731
0.00770601
0.00778013
0.007817
0.0078493
0.00787735
0.00799175
0.00802588
0.0080554
0.00808078
0.00824261
0.0082708
0.00829482
0.00831523
0.00852979
0.00854854
0.00856426
0.00857744
0.00884591
0.00885238
0.00885774
0.00886219
0.000777782
0.0014182
0.00184869
0.00209419
0.00222325
0.00228232
0.00229655
0.00228144
0.00224677
0.00219368
0.00212039
0.00202707
0.00191577
0.00177413
0.00157296
0.00127924
0.00089716
0.000481628
7.63455e-05
0.00167432
0.00206077
0.00233615
0.00250943
0.00260692
0.00265095
0.0026554
0.00262924
0.00257871
0.0025079
0.0024169
0.00230396
0.00216428
0.00198267
0.00172992
0.00137997
0.000934039
0.000461753
7.57338e-05
0.00245839
0.00263946
0.00279121
0.00289593
0.00295638
0.00297936
0.00296866
0.00292838
0.00286186
0.00277289
0.00266278
0.00252994
0.00236647
0.0021558
0.00187159
0.00149143
0.00100505
0.000482119
7.82126e-05
0.00304369
0.0031136
0.0031875
0.00324083
0.00326835
0.00327088
0.00324255
0.00318551
0.00310167
0.00299447
0.00286646
0.00271553
0.00253418
0.00230657
0.00201331
0.00163137
0.00113655
0.000598527
8.98735e-05
0.00347544
0.00349147
0.00352162
0.00354118
0.00354182
0.00352462
0.00347692
0.00340102
0.00330048
0.00317751
0.00303348
0.00286715
0.00267359
0.00244366
0.00216132
0.00180479
0.0012892
0.000676025
0.000102151
0.00381133
0.00380624
0.00380727
0.00379996
0.00377747
0.00373863
0.00367298
0.00357998
0.0034624
0.00332245
0.00316155
0.00297867
0.00277176
0.00253244
0.00224268
0.00188818
0.0014068
0.00078243
0.000109737
0.00407895
0.00406596
0.00405091
0.00402543
0.00398166
0.00392265
0.00383998
0.00373051
0.00359635
0.00343931
0.00326065
0.00305909
0.00283159
0.00256975
0.00226263
0.0018974
0.00145024
0.00083611
0.000108191
0.00430389
0.00428483
0.00425867
0.00421925
0.00416016
0.00408263
0.00398282
0.00385824
0.00370856
0.00353495
0.00333821
0.00311618
0.00286441
0.00257905
0.00225487
0.00189353
0.00145305
0.000844053
0.000104857
0.00450473
0.0044781
0.00444174
0.00438954
0.0043165
0.00422313
0.0041083
0.00397004
0.00380653
0.00361691
0.00340046
0.00315519
0.00287807
0.00256747
0.00222716
0.00186236
0.00141615
0.000816581
9.92014e-05
0.00468531
0.00465061
0.00460509
0.00454243
0.00445858
0.00435345
0.00422606
0.00407525
0.00389894
0.00369382
0.00345689
0.00318683
0.00288288
0.00254715
0.00218627
0.00180369
0.00134924
0.000754961
9.26578e-05
0.00485328
0.00481034
0.00475675
0.0046862
0.00459479
0.00448104
0.0043438
0.00418227
0.00399418
0.00377426
0.00351829
0.00322518
0.00289614
0.00253548
0.00214833
0.00173267
0.00125473
0.000671899
8.69141e-05
0.00501515
0.00496521
0.00490466
0.00482786
0.00473075
0.00461063
0.00446599
0.00429577
0.00409743
0.0038649
0.0035937
0.00328274
0.0029344
0.00255074
0.0021328
0.0016767
0.00116437
0.000589242
8.28702e-05
0.005174
0.00511911
0.00505312
0.00497133
0.00486966
0.00474483
0.00459483
0.00441812
0.00421177
0.00397018
0.0036891
0.0033673
0.00300549
0.00260227
0.00215514
0.00166095
0.00111753
0.000546693
8.49752e-05
0.00533121
0.00527347
0.00520377
0.00511821
0.005013
0.00488476
0.00473114
0.00455008
0.00433852
0.00409174
0.00380589
0.00347871
0.00310786
0.00268954
0.00222005
0.00169896
0.00113565
0.000563859
9.0532e-05
0.00548736
0.00542859
0.00535678
0.00526872
0.00516105
0.0050306
0.00487481
0.00469132
0.00447721
0.00422822
0.00394077
0.00361141
0.00323568
0.00280817
0.00232505
0.00178655
0.0012017
0.000601233
9.59684e-05
0.00564255
0.00558419
0.00551166
0.00542234
0.0053133
0.0051817
0.00502484
0.00484035
0.00462533
0.00437608
0.00408874
0.00375907
0.00338168
0.00295041
0.00246022
0.00190858
0.00129833
0.000651873
0.000100945
0.00579647
0.00573963
0.00566755
0.00557805
0.00546862
0.00533667
0.00517964
0.0049951
0.00478021
0.0045315
0.00424499
0.00391599
0.00353855
0.00310592
0.00261155
0.00204945
0.00141566
0.000721905
0.000105657
0.00594845
0.00589398
0.00582329
0.00573453
0.00562551
0.0054939
0.00533732
0.00515332
0.00493907
0.00469116
0.00440551
0.00407712
0.00369958
0.00326558
0.00276699
0.00219469
0.00153899
0.000800613
0.000109979
0.00609752
0.00604605
0.00597747
0.00589017
0.00578225
0.00565156
0.00549587
0.00531272
0.00509928
0.00485207
0.00456689
0.00423826
0.00385951
0.00342257
0.00291771
0.00233299
0.00165393
0.000874421
0.000113886
0.00624242
0.00619441
0.00612848
0.00604325
0.00593699
0.0058077
0.00565322
0.00547112
0.00525845
0.00501165
0.00472612
0.00439617
0.0040146
0.00357243
0.00305818
0.00245687
0.00174827
0.000923605
0.000117785
0.00638165
0.00633743
0.0062746
0.0061919
0.00608775
0.00596029
0.00580734
0.0056264
0.0054144
0.00516754
0.00488097
0.0045486
0.00416257
0.00371286
0.00318582
0.00256533
0.00182987
0.000963832
0.000120872
0.00651361
0.00647341
0.006414
0.00633423
0.00623259
0.00610727
0.00595609
0.00577643
0.00556506
0.00531791
0.00502981
0.00469417
0.00430229
0.00384349
0.00330366
0.00266437
0.00190221
0.000998446
0.000122823
0.00663663
0.00660061
0.00654491
0.00646841
0.00636965
0.00624682
0.0060977
0.00591954
0.00570889
0.00546144
0.00517154
0.00483229
0.00443464
0.00396688
0.00341386
0.00275585
0.00196792
0.00102985
0.00012372
0.00674915
0.00671745
0.00666571
0.00659282
0.00649732
0.00637738
0.00623069
0.00605438
0.00584472
0.00559727
0.00530612
0.00496379
0.00456062
0.00408414
0.00351819
0.0028419
0.00202924
0.00105948
0.000124191
0.00684986
0.00682264
0.00677513
0.0067062
0.00661439
0.0064978
0.00635401
0.00618008
0.00597218
0.00572547
0.00543374
0.00508903
0.00468109
0.00419662
0.00361848
0.00292463
0.00208803
0.00108796
0.000124697
0.00693799
0.00691543
0.00687245
0.00680788
0.00672021
0.00660755
0.0064674
0.00629664
0.00609127
0.00584617
0.00555481
0.00520877
0.00479715
0.00430587
0.00371667
0.00300617
0.00214592
0.0011152
0.000125567
0.00701348
0.00699584
0.00695774
0.00689801
0.00681511
0.00670705
0.00657127
0.00640451
0.00620259
0.00596013
0.00567028
0.00532413
0.00491021
0.00441356
0.00381476
0.00308875
0.00220472
0.00113876
0.000127435
0.00707724
0.00706488
0.00703213
0.00697777
0.00690024
0.00679748
0.00666688
0.00650502
0.00630754
0.00606884
0.0057817
0.00543678
0.005022
0.00452156
0.00391479
0.0031749
0.00226904
0.00117384
0.000130262
0.00713133
0.00712469
0.00709776
0.00704933
0.00697779
0.00688107
0.00675646
0.00660042
0.00640843
0.00617461
0.0058914
0.00554902
0.00513475
0.00463194
0.00401866
0.00326622
0.00233925
0.00121346
0.000134057
0.00717896
0.0071785
0.00715789
0.00711592
0.00705099
0.006961
0.00684318
0.0066939
0.00650842
0.00628061
0.00600253
0.00566388
0.0052513
0.00474725
0.00412846
0.00336411
0.00241546
0.00125453
0.0001384
0.00722443
0.00723057
0.00721669
0.00718163
0.00712385
0.00704124
0.00693101
0.00678941
0.00661151
0.00639085
0.00611906
0.00578527
0.00537535
0.00487077
0.00424692
0.00347075
0.00249975
0.00130095
0.000143143
0.00727286
0.00728589
0.00727901
0.00725117
0.00720093
0.00712627
0.00702436
0.00689138
0.00672218
0.00650993
0.00624573
0.00591795
0.00551155
0.00500684
0.00437772
0.00358896
0.00259419
0.00135421
0.000148447
0.00732987
0.00734981
0.00734992
0.00732939
0.00728693
0.00722065
0.00712777
0.00700438
0.00684513
0.00664277
0.00638773
0.00606744
0.00566561
0.00516103
0.00452585
0.00372261
0.00270125
0.00141563
0.000154453
0.00740108
0.00742755
0.00743432
0.00742087
0.0073862
0.0073286
0.00724538
0.00713264
0.00698479
0.00679416
0.0065504
0.00623973
0.00584417
0.00534038
0.0046981
0.00387732
0.00282466
0.00148724
0.000161141
0.00749171
0.00752383
0.00753646
0.00752954
0.0075024
0.00745359
0.00738062
0.0072796
0.00714485
0.00696827
0.00673868
0.00644087
0.0060546
0.00555348
0.00490359
0.00406133
0.0029701
0.00157175
0.000168729
0.00760612
0.00764238
0.00765963
0.00765829
0.00763815
0.00759806
0.0075358
0.00744762
0.00732786
0.00716815
0.00695657
0.00667635
0.00630453
0.00581042
0.00515437
0.00428668
0.00314637
0.00167236
0.000178077
0.00774754
0.0077858
0.00780591
0.00780889
0.00779493
0.00776327
0.007712
0.00763768
0.00753487
0.00739523
0.00720642
0.00695034
0.00660109
0.00612246
0.00546608
0.00457129
0.00336818
0.00179516
0.000190045
0.00791778
0.00795528
0.00797615
0.0079819
0.00797309
0.00794933
0.00790908
0.00784939
0.00776531
0.00764899
0.00748831
0.00726463
0.00694961
0.00650101
0.00585842
0.00494203
0.00366146
0.00195261
0.000205431
0.0081171
0.00815071
0.00817002
0.00817685
0.008172
0.00815537
0.00812586
0.0080811
0.008017
0.00792677
0.00779947
0.00761738
0.00735163
0.00695541
0.00635453
0.00543939
0.00407419
0.00217087
0.000226172
0.00834413
0.00837067
0.00838621
0.00839249
0.00839035
0.00837989
0.00836042
0.00833027
0.00828646
0.00822388
0.00813392
0.00800188
0.007802
0.00748817
0.00697707
0.00612272
0.00470205
0.00252361
0.000254127
0.00859594
0.00861277
0.00862274
0.00862711
0.00862652
0.00862113
0.00861057
0.00859395
0.00856953
0.00853426
0.00848287
0.00840589
0.00828554
0.00808658
0.00773476
0.00706735
0.00573987
0.00323206
0.000292818
0.00886839
0.00887401
0.00887737
0.00887893
0.00887893
0.00887743
0.00887435
0.00886942
0.00886214
0.00885157
0.00883609
0.00881271
0.00877551
0.00871172
0.00858976
0.00831717
0.00757272
0.00519446
0.000344245
)
;

boundaryField
{
    leftWall
    {
        type            nutkWallFunction;
        Cmu             0.09;
        kappa           0.41;
        E               9.8;
        value           nonuniform List<scalar> 
50
(
4.01408e-06
5.94187e-06
7.04555e-06
7.84452e-06
8.46736e-06
8.98238e-06
9.42761e-06
9.82615e-06
1.04007e-05
1.09878e-05
1.15296e-05
1.23749e-05
1.1729e-05
1.19309e-05
1.13089e-05
7.3196e-06
5.24274e-06
5.23107e-06
5.38743e-06
5.66806e-06
5.98372e-06
6.29578e-06
6.61406e-06
6.82436e-06
6.93979e-06
6.97715e-06
6.94776e-06
6.85983e-06
6.72007e-06
6.53496e-06
6.30769e-06
6.04055e-06
5.73579e-06
5.394e-06
5.01172e-06
4.59592e-06
4.19595e-06
3.80283e-06
3.43017e-06
3.09703e-06
2.81889e-06
2.60573e-06
2.46588e-06
2.41682e-06
2.50859e-06
2.87372e-06
3.81614e-06
6.52492e-06
1.86263e-05
4.87281e-05
)
;
    }
    rightWall
    {
        type            nutkWallFunction;
        Cmu             0.09;
        kappa           0.41;
        E               9.8;
        value           nonuniform List<scalar> 
50
(
6.03221e-06
7.58504e-06
8.25927e-06
8.61957e-06
8.8282e-06
8.96389e-06
9.06329e-06
9.13986e-06
9.18689e-06
9.11272e-06
9.40509e-06
1.06927e-05
9.77616e-06
1.1673e-05
1.0834e-05
7.31237e-06
4.74673e-06
3.71671e-06
2.7994e-06
2.37307e-06
2.75085e-06
3.46831e-06
4.27434e-06
5.20587e-06
5.95125e-06
6.62235e-06
7.22511e-06
7.82382e-06
8.27696e-06
8.4472e-06
8.58176e-06
8.65381e-06
8.72989e-06
8.85996e-06
9.2012e-06
9.69529e-06
1.02662e-05
1.09173e-05
1.16202e-05
1.24105e-05
1.3301e-05
1.42209e-05
1.53086e-05
1.66887e-05
1.84297e-05
2.06324e-05
2.35655e-05
2.74664e-05
3.27744e-05
3.96774e-05
)
;
    }
    lowerWall
    {
        type            nutkWallFunction;
        Cmu             0.09;
        kappa           0.41;
        E               9.8;
        value           nonuniform List<scalar> 
62
(
1.66878e-06
2.856e-06
3.49751e-06
3.91685e-06
4.22093e-06
4.45304e-06
4.63563e-06
4.78211e-06
4.9016e-06
5.00085e-06
5.08493e-06
5.15731e-06
5.22476e-06
5.28164e-06
5.31814e-06
5.31533e-06
5.22533e-06
5.00244e-06
4.78304e-06
4.60601e-06
4.36351e-06
3.73199e-06
2.15417e-06
2.15417e-06
7.69882e-06
9.0908e-06
1.02121e-05
1.1283e-05
1.25172e-05
1.42059e-05
1.6742e-05
1.74579e-05
1.65562e-05
1.64802e-05
1.7208e-05
1.68083e-06
7.13868e-06
8.62773e-06
9.85797e-06
1.10965e-05
1.25659e-05
1.45234e-05
1.74357e-05
1.68083e-06
3.40826e-06
4.02525e-06
4.28675e-06
4.39085e-06
4.40643e-06
4.38756e-06
4.36799e-06
4.38152e-06
4.41523e-06
4.27963e-06
4.02718e-06
3.84604e-06
4.0532e-06
4.36587e-06
4.33946e-06
3.97703e-06
3.28024e-06
2.4016e-06
)
;
    }
    atmosphere
    {
        type            calculated;
        value           nonuniform List<scalar> 
46
(
0.009
0.000244057
0.000521079
0.00099423
0.00154389
0.0021623
0.00281982
0.00346595
0.0040583
0.0045758
0.00501686
0.00539254
0.00572069
0.0060228
0.00632354
0.00665285
0.00705223
0.00759149
0.009
0.009
0.009
0.009
0.009
0.009
0.009
0.009
0.009
0.009
0.009
0.009
0.009
0.009
0.009
0.009
0.009
0.009
0.009
0.009
0.009
0.009
0.009
0.009
0.009
0.009
0.009
0.000344245
)
;
    }
    defaultFaces
    {
        type            empty;
    }
}


// ************************************************************************* //
