/*--------------------------------*- C++ -*----------------------------------*\
  =========                 |
  \\      /  F ield         | OpenFOAM: The Open Source CFD Toolbox
   \\    /   O peration     | Website:  https://openfoam.org
    \\  /    A nd           | Version:  9
     \\/     M anipulation  |
\*---------------------------------------------------------------------------*/
FoamFile
{
    format      ascii;
    class       volScalarField;
    location    "7.13";
    object      alpha.water;
}
// * * * * * * * * * * * * * * * * * * * * * * * * * * * * * * * * * * * * * //

dimensions      [0 0 0 0 0 0 0];

internalField   nonuniform List<scalar> 
2268
(
1
1
0.999999
0.999999
0.999999
0.999999
0.999999
0.999999
0.999998
0.999999
1
1
1
1
1
1
1
1
0.998372
0.997134
0.997595
0.999653
0.999516
0.999999
0.999999
0.999997
0.999998
1
0.999999
0.999998
0.999998
0.999998
0.999999
1
1
1
1
1
0.999998
0.999995
1
0.998722
0.997134
0.999751
0.999996
0.999989
0.999997
0.999997
0.999997
0.999999
1
1
0.999999
0.999999
1
1
1
1
1
1
0.999998
0.999977
0.99998
0.999993
0.999702
0.998809
0.999995
0.999996
0.999996
0.999999
0.999999
0.999999
1
1
1
1
1
1
1
1
1
1
1
1
0.999885
0.999262
0.999993
0.999993
0.999993
0.999971
0.999787
0.999996
1
1
1
1
1
1
1
1
1
1
1
1
1
1
1
0.99993
0.997656
0.998007
0.999993
0.999993
0.999993
0.998199
0.999996
1
1
1
1
1
1
1
1
1
1
1
1
1
1
1
1
0.996241
0.983908
0.990054
0.993831
0.98733
0.996682
0.999996
1
1
1
1
1
1
1
1
1
1
1
1
1
1
1
1
0.997672
0.980873
0.980862
0.980862
0.980872
0.99895
0.999995
1
1
1
1
1
0.999999
0.999999
0.999999
0.999999
0.999999
0.999999
1
1
1
1
1
0.999966
0.992195
0.980862
0.980862
0.991337
0.999991
0.999995
0.992302
0.999025
0.998594
0.998594
0.998431
0.994952
0.993457
0.993457
0.99375
0.992701
0.992184
0.992184
0.992184
0.997682
0.998657
0.998657
0.998643
0.99844
0.998468
0.991994
0.999463
0.999986
0.999988
0.999988
0.999988
0.99995
0.999807
0.999836
0.999836
0.997501
0.996114
0.993686
0.995603
0.998657
0.998657
0.998657
0.998657
0.998649
0.991995
0.998032
0.999971
0.999978
0.999988
0.999971
0.999971
0.999971
0.999836
0.999836
0.999609
0.999632
0.998903
0.998188
0.998017
0.998657
0.998657
0.998441
0.994828
0.993122
0.99935
0.999965
0.999965
0.999993
0.999969
0.999772
0.999777
0.999341
0.998167
0.999367
0.999633
0.999633
0.999629
0.996244
0.998657
0.998552
0.994863
0.994572
0.999704
0.999998
0.999998
0.999997
0.999997
0.9999
0.999557
0.999557
0.9998
0.997403
0.999304
0.999633
0.999633
0.999633
0.993464
0.997443
0.995844
0.994955
0.995388
0.999998
0.999998
0.999998
0.999993
0.999976
0.999913
0.999874
0.999921
0.999986
0.994172
0.999633
0.999633
0.999633
0.994966
0.992263
0.995715
0.987135
0.998383
0.998436
0.999998
0.999998
0.999998
0.999977
0.999971
0.999988
0.999988
0.999988
0.999986
0.989808
0.974077
0.998632
0.997516
0.965031
0.991453
0.998147
0.986333
0.997988
0.998436
0.999997
0.999996
0.999998
0.999998
0.999997
0.999994
0.999972
0.999682
0.99998
0.983003
0.966883
0.970598
0.973166
0.964785
0.992004
0.998148
0.986333
0.996374
0.998436
1
1
1
1
1
1
1
1
1
1
1
1
0.999999
0.999999
1
0.999999
0.999978
0.999548
0.996351
0.996007
0.999919
0.999963
0.999988
1
1
1
1
1
1
1
0.998928
0.995627
0.991019
0.985395
0.979674
0.975283
0.971685
0.968712
0.96678
0.965829
0.965799
0.965165
0.961237
0.954328
0.945799
0.941605
0.452149
0.449268
0.445133
0.436358
0.425973
0.414411
0.401233
0.386693
0.373558
0.360644
0.34799
0.33522
0.321778
0.308442
0.296072
0.285413
0.277515
0.272041
0.267347
0.261338
0.254732
0.251302
0.250142
0.00189407
0.00173262
0.00167969
0.00190415
0.00230784
0.00231262
0.00179261
0.00125015
0.000910054
0.000670912
0.000643286
0.000621804
0.000596483
0.000562269
0.000518156
0.000475766
0.000452796
0.000452681
0.000452683
0.000452681
0.000452714
0.000456661
0.000505016
0.000928364
0.00106196
0.000711941
0.0017083
0.0022801
0.00209862
0.00248809
0.00335764
0.00335827
0.00335839
0.00336446
0.00336453
0.00336293
0.00310584
0.00275929
0.00247893
0.00202181
0.00151071
0.000815467
0.000775389
0.000912633
0.000912648
0.000649787
0.000530486
0.000531027
0.000314302
0.000464685
0.000174792
0.000265019
0.000313143
8.31446e-05
6.989e-05
8.63251e-05
7.35275e-05
5.92094e-05
2.35037e-08
2.3505e-08
3.21096e-07
3.54571e-07
3.65982e-05
0.000198236
0.000420954
0.000372667
0.000492339
0.000420773
0.000435981
6.15086e-06
1.39879e-05
7.18368e-05
2.7804e-05
2.09405e-05
5.21958e-06
2.31037e-08
2.31025e-08
2.31066e-08
2.31063e-08
2.31814e-08
2.33723e-08
2.34932e-08
5.21125e-06
5.55023e-05
7.13484e-05
5.81408e-05
3.01519e-05
4.76584e-05
6.04743e-05
7.22706e-06
9.24831e-05
0.000247981
2.7206e-09
3.54361e-09
3.44063e-09
2.752e-08
1.50881e-06
2.66769e-06
1.82095e-06
7.36503e-07
3.83427e-08
6.6479e-07
1.37074e-06
2.37457e-07
4.86514e-08
3.62033e-05
7.13447e-05
7.1356e-05
4.78817e-05
3.00586e-05
3.82282e-05
1.4699e-05
3.53033e-09
3.47343e-09
3.47302e-09
2.69427e-09
2.71435e-09
2.76366e-09
5.69497e-09
2.11612e-09
1.16227e-06
2.39511e-06
1.84261e-06
4.01316e-08
1.97168e-06
3.00819e-06
1.52758e-06
1.59209e-07
1.02092e-05
2.05911e-05
1.29796e-05
1.20931e-05
2.5662e-05
9.81264e-06
3.58728e-09
3.58728e-09
3.88062e-09
6.12059e-09
2.69427e-09
7.61676e-09
4.85895e-08
8.41236e-09
5.40103e-10
2.70469e-07
1.68483e-06
4.809e-07
7.8712e-08
2.51604e-06
3.00819e-06
2.55658e-06
9.40244e-10
9.40866e-10
9.4132e-10
9.43551e-10
9.78977e-10
6.65328e-07
1.12577e-06
3.62031e-09
1.41904e-08
3.28622e-08
3.29406e-08
2.87492e-09
9.81941e-08
1.13408e-07
2.68439e-08
5.39855e-10
7.23167e-10
3.12654e-08
3.13343e-08
3.19056e-08
2.54234e-06
3.00819e-06
3.01923e-07
9.39889e-10
9.40244e-10
9.07409e-09
1.19385e-07
5.11258e-07
6.84497e-07
5.59594e-08
2.00384e-08
3.13192e-08
4.35206e-08
3.08664e-08
2.6847e-09
1.12782e-07
1.13408e-07
3.10565e-08
5.39867e-10
5.39855e-10
5.40527e-10
1.91955e-07
1.33937e-06
1.91322e-06
7.657e-07
8.98768e-10
9.39285e-10
1.20139e-09
1.21869e-09
5.43731e-07
5.57405e-06
6.0385e-06
4.13274e-06
8.72528e-09
8.71286e-09
1.75917e-08
1.22937e-08
1.616e-09
3.31997e-08
9.69583e-08
1.77454e-08
5.39855e-10
5.39867e-10
2.87157e-07
1.64023e-06
1.71209e-06
1.13708e-06
8.61568e-10
8.98177e-10
9.39781e-10
5.47053e-10
7.50335e-11
9.11546e-07
6.0385e-06
6.03851e-06
6.0385e-06
2.80338e-06
8.30376e-09
8.29694e-09
8.2964e-09
9.72113e-10
9.72113e-10
9.48526e-09
2.01368e-09
5.39867e-10
5.39897e-10
5.94372e-07
1.71256e-06
1.71256e-06
1.39629e-07
8.61025e-10
9.41784e-10
9.42441e-10
3.50912e-10
6.4262e-11
5.30988e-09
1.09798e-06
5.27436e-06
5.22023e-06
1.31344e-07
8.31174e-09
1.33262e-08
1.59494e-08
1.68719e-09
1.18918e-09
2.14859e-10
2.11485e-10
5.64985e-10
8.17171e-09
3.80033e-07
1.04212e-06
6.03628e-07
1.61523e-10
8.60891e-10
1.13723e-09
8.2793e-10
1.39216e-10
6.33332e-11
6.33004e-11
6.12269e-11
1.51763e-09
2.98092e-08
1.39222e-09
1.60618e-08
2.25898e-08
1.59514e-08
6.65942e-09
8.81068e-08
4.27072e-10
2.11485e-10
2.35157e-09
1.34508e-08
2.46221e-08
6.80774e-09
1.17819e-11
1.61313e-10
7.39801e-10
8.97625e-10
3.74114e-10
7.11995e-11
6.36332e-11
6.48336e-11
6.08908e-11
6.08908e-11
6.10996e-11
1.16967e-09
1.16775e-08
1.86746e-08
5.51332e-09
2.50071e-07
1.98334e-07
1.51346e-10
3.45635e-10
3.07475e-09
8.54175e-09
5.27474e-11
1.17685e-11
9.87259e-12
9.49839e-11
3.15229e-10
2.84159e-10
6.83472e-11
3.32572e-11
5.66802e-11
6.7409e-11
7.17988e-11
6.70809e-11
6.14971e-11
1.67153e-10
4.61398e-10
4.73886e-10
9.92643e-10
2.76195e-07
1.74853e-07
2.68778e-11
4.18512e-10
2.17889e-09
1.56564e-09
1.94691e-11
1.90218e-11
8.14882e-12
2.10047e-11
3.87536e-11
1.96083e-11
3.12551e-12
9.93861e-12
3.29219e-11
5.19289e-11
6.00598e-11
5.88843e-11
4.75004e-11
3.0153e-11
1.17684e-11
6.74079e-12
9.77541e-11
2.762e-07
1.01154e-07
2.68543e-11
3.30265e-10
7.60055e-10
6.37746e-11
1.52655e-11
1.60313e-11
2.67982e-12
7.83298e-13
6.72154e-13
1.33333e-13
1.05004e-14
7.37301e-13
7.11861e-12
1.74499e-11
2.17852e-11
2.05699e-11
1.61245e-11
1.06732e-11
5.94801e-12
2.98554e-12
1.57861e-12
2.76205e-07
4.27191e-08
2.68464e-11
1.41868e-10
1.19993e-10
8.37399e-12
6.84336e-12
5.91851e-12
1.22755e-13
-4.91915e-13
-6.68287e-13
-8.1989e-13
-7.78183e-13
-3.51003e-13
2.17995e-13
1.11802e-12
1.51568e-12
1.2745e-12
9.31565e-13
7.03161e-13
5.22838e-13
3.61252e-13
2.76263e-13
2.76489e-07
8.32739e-08
2.68457e-11
3.82249e-11
2.79141e-11
4.55354e-12
8.74666e-13
3.81902e-13
-5.57655e-13
-1.09912e-12
-1.27123e-12
-1.28721e-12
-1.14401e-12
-8.38393e-13
-4.84478e-13
-1.79726e-13
-2.63264e-14
-1.89809e-14
-3.33904e-14
-2.5301e-14
-8.24149e-15
-1.84033e-15
-1.36123e-15
2.76489e-07
2.69074e-07
2.68459e-11
2.69709e-11
2.71585e-11
4.47179e-12
1.05528e-14
-1.96531e-13
-8.22785e-13
-1.19014e-12
-1.29795e-12
-1.24929e-12
-1.09247e-12
-8.69446e-13
-6.38627e-13
-4.4533e-13
-3.15838e-13
-2.36102e-13
-1.77114e-13
-1.28099e-13
-8.71696e-14
-5.54938e-14
-3.32657e-14
2.76489e-07
2.76489e-07
2.68457e-11
3.06541e-11
3.42352e-11
4.85839e-12
7.1284e-14
-2.00683e-13
-6.18043e-13
-8.76858e-13
-9.59123e-13
-9.19843e-13
-8.06805e-13
-6.58449e-13
-5.0778e-13
-3.76152e-13
-2.73893e-13
-1.97184e-13
-1.39472e-13
-9.69088e-14
-6.60464e-14
-4.36551e-14
-2.74666e-14
2.76489e-07
2.17325e-07
2.68459e-11
5.41006e-11
5.72721e-11
6.92206e-12
9.42755e-13
4.06299e-13
-6.47503e-14
-3.09167e-13
-4.55459e-13
-4.99203e-13
-4.69254e-13
-3.98569e-13
-3.15707e-13
-2.37745e-13
-1.72631e-13
-1.20978e-13
-8.22042e-14
-5.47379e-14
-3.62679e-14
-2.38059e-14
-1.51749e-14
2.03567e-07
2.28879e-08
2.68476e-11
1.31272e-10
9.5186e-11
1.26855e-11
4.38166e-12
3.37454e-12
2.09759e-12
9.13151e-13
1.84131e-13
-9.76939e-14
-1.84856e-13
-1.92111e-13
-1.63098e-13
-1.25826e-13
-9.19465e-14
-6.33677e-14
-4.16165e-14
-2.64273e-14
-1.66556e-14
-1.05338e-14
-6.66057e-15
9.28708e-09
8.34584e-11
1.12446e-10
2.21074e-10
1.32837e-10
2.32103e-11
1.2329e-11
1.06982e-11
7.93323e-12
4.71048e-12
2.16527e-12
6.38471e-13
4.25069e-14
-6.25e-14
-7.12981e-14
-5.7976e-14
-4.34409e-14
-2.9742e-14
-1.89668e-14
-1.14724e-14
-6.78942e-15
-4.02312e-15
-2.43706e-15
7.60214e-11
8.33001e-11
2.03543e-10
2.34632e-10
1.40295e-10
3.68452e-11
2.51633e-11
2.26102e-11
1.76648e-11
1.16455e-11
5.96072e-12
2.16628e-12
4.59898e-13
6.58516e-15
-2.62973e-14
-2.38758e-14
-1.86961e-14
-1.28172e-14
-7.9799e-15
-4.61867e-15
-2.56561e-15
-1.40582e-15
-7.81427e-16
7.59715e-11
8.33897e-11
2.0607e-10
2.26064e-10
1.29373e-10
4.8908e-11
4.04149e-11
3.70215e-11
2.93901e-11
2.06181e-11
1.10769e-11
4.06234e-12
8.1112e-13
4.90854e-14
-7.43372e-15
-9.03358e-15
-7.49638e-15
-5.16439e-15
-3.14003e-15
-1.73858e-15
-9.08138e-16
-4.64304e-16
-2.39863e-16
7.59707e-11
7.28401e-11
1.55198e-10
1.5483e-10
8.9503e-11
5.32467e-11
5.1216e-11
4.97123e-11
4.07811e-11
2.93585e-11
1.61927e-11
5.62613e-12
9.03399e-13
4.62429e-14
-8.5034e-16
-3.21495e-15
-2.85052e-15
-1.96623e-15
-1.16175e-15
-6.14782e-16
-3.06436e-16
-1.51419e-16
-7.48582e-17
8.6333e-11
5.30682e-11
5.98535e-11
5.33806e-11
5.37099e-11
5.29307e-11
5.34461e-11
5.48267e-11
4.86668e-11
3.55715e-11
1.95669e-11
6.19745e-12
8.54424e-13
2.9864e-14
0
-1.10936e-15
-1.04422e-15
-7.13737e-16
-4.07371e-16
-2.06601e-16
-9.86664e-17
-4.67391e-17
-2.21749e-17
2.65525e-10
5.04979e-11
5.04929e-11
5.04915e-11
5.04888e-11
5.20464e-11
5.30928e-11
5.51137e-11
5.08131e-11
3.77331e-11
2.03416e-11
6.07885e-12
6.52217e-13
1.17245e-14
5.2234e-18
-3.84869e-16
-3.73422e-16
-2.49621e-16
-1.36601e-16
-6.60124e-17
-3.00289e-17
-1.36634e-17
-6.22968e-18
7.51197e-10
8.13752e-10
5.05043e-11
7.81252e-08
5.04855e-11
5.04847e-11
5.04848e-11
5.48293e-11
5.06544e-11
3.76233e-11
1.98214e-11
5.23216e-12
3.73675e-13
3.24541e-15
1.46936e-18
-1.36092e-16
-1.31625e-16
-8.46433e-17
-4.389e-17
-2.00061e-17
-8.56388e-18
-3.71899e-18
-1.59594e-18
7.50738e-10
8.52092e-08
6.72563e-07
8.11683e-07
1.8581e-07
1.27977e-10
5.00044e-11
5.36608e-11
4.92822e-11
3.59109e-11
1.73967e-11
3.60724e-12
1.6005e-13
7.12686e-16
1.8491e-19
-4.94883e-17
-4.59142e-17
-2.78521e-17
-1.34687e-17
-5.68181e-18
-2.2443e-18
-9.14409e-19
-3.64304e-19
7.51294e-10
2.06502e-07
8.28333e-07
8.28353e-07
5.52748e-07
4.28321e-09
4.86217e-11
5.11967e-11
4.59218e-11
3.14164e-11
1.29486e-11
1.9085e-12
4.91329e-14
1.07801e-16
3.48368e-21
-1.85943e-17
-1.58121e-17
-8.84628e-18
-3.91034e-18
-1.49003e-18
-5.33373e-19
-1.99843e-19
-7.27049e-20
7.52129e-10
1.47184e-07
8.28349e-07
8.28347e-07
4.27326e-07
1.37138e-09
4.80504e-11
4.80502e-11
4.04653e-11
2.44945e-11
7.85876e-12
7.30037e-13
9.52309e-15
9.25081e-18
-2.34632e-18
-7.16482e-18
-5.33709e-18
-2.68975e-18
-1.06225e-18
-3.55767e-19
-1.12596e-19
-3.79889e-20
-1.23929e-20
9.75813e-10
2.66579e-08
4.18607e-07
5.01711e-07
8.52575e-08
1.9564e-10
4.97901e-11
4.46296e-11
3.26456e-11
1.62842e-11
3.61306e-12
1.78393e-13
9.67442e-16
3.68668e-19
-1.85877e-18
-2.73777e-18
-1.7546e-18
-7.78621e-19
-2.6773e-19
-7.64148e-20
-2.07147e-20
-6.13609e-21
-1.75604e-21
2.37787e-09
1.78523e-09
1.43181e-09
4.42296e-09
1.79793e-10
1.18714e-10
6.59846e-11
4.03714e-11
2.30369e-11
8.44645e-12
1.08754e-12
2.29283e-14
4.21678e-17
4.05284e-21
-9.83062e-19
-1.02891e-18
-5.62151e-19
-2.14877e-19
-6.25662e-20
-1.46933e-20
-3.27824e-21
-8.22862e-22
-2.00551e-22
2.62007e-09
1.77687e-09
6.23397e-10
2.41863e-10
1.50233e-10
1.25859e-10
6.81893e-11
3.22398e-11
1.30462e-11
2.91546e-12
1.70572e-13
1.21281e-15
6.58626e-19
-8.42922e-20
-4.73099e-19
-3.82568e-19
-1.76669e-19
-5.70302e-20
-1.36789e-20
-2.54408e-21
-4.4217e-22
-8.94469e-23
-1.77836e-23
1.54591e-09
1.66568e-09
1.06647e-09
5.62995e-10
3.09557e-10
1.54604e-10
6.18436e-11
2.0503e-11
5.00064e-12
5.19244e-13
1.03583e-14
2.08723e-17
2.65745e-21
-1.2347e-19
-2.18558e-19
-1.41355e-19
-5.50543e-20
-1.4825e-20
-2.86931e-21
-4.08672e-22
-5.15485e-23
-7.75302e-24
-1.1689e-24
1.16232e-10
7.33884e-10
9.47901e-10
6.84627e-10
3.87542e-10
1.60907e-10
4.83936e-11
9.49057e-12
1.02057e-12
3.42963e-14
1.79829e-16
1.03997e-19
-9.01792e-21
-8.71547e-20
-9.74695e-20
-5.2056e-20
-1.72152e-20
-3.86198e-21
-5.98133e-22
-6.38682e-23
-5.4076e-24
-5.30146e-25
-5.29252e-26
-2.0316e-26
8.18418e-11
4.53821e-10
5.10171e-10
3.34508e-10
1.38196e-10
3.06941e-11
2.91489e-12
8.8717e-14
6.2823e-16
8.09675e-19
1.1773e-22
-2.11949e-20
-5.03911e-20
-4.22574e-20
-1.91625e-20
-5.45767e-21
-1.03068e-21
-1.28469e-22
-1.02007e-23
-5.39807e-25
-2.81709e-26
-1.42173e-27
-7.54061e-27
1.28985e-12
6.53621e-11
1.50088e-10
1.26242e-10
5.67024e-11
9.30129e-12
3.67922e-13
2.29304e-15
2.50079e-18
1.02986e-21
-2.72776e-21
-1.77979e-20
-2.62876e-20
-1.79232e-20
-7.07603e-21
-1.77127e-21
-2.88668e-22
-2.98842e-23
-1.82199e-24
-5.81824e-26
-1.14079e-27
-1.366e-29
0.999911
0.999868
0.999897
0.99994
0.946342
0.947616
0.948897
0.94965
0.250412
0.251237
0.253059
0.256067
0.000452562
0.000452505
0.000469089
0.000522224
0.000452562
0.000452544
0.000465508
0.000574877
0.000564624
0.000564624
0.000563663
0.000574614
0.000181336
0.000107148
0.000119501
0.000162961
3.47302e-09
3.47302e-09
3.47302e-09
3.47302e-09
3.47302e-09
3.47302e-09
3.47312e-09
3.55535e-09
7.25198e-09
3.47306e-09
3.47902e-09
1.19093e-06
3.49252e-09
3.48511e-09
3.6911e-09
7.35131e-06
3.48933e-09
3.49252e-09
1.4841e-08
8.04952e-06
3.48777e-09
3.4919e-09
3.49353e-09
3.5229e-09
3.40873e-09
4.50493e-09
1.02122e-08
8.62588e-09
1.58126e-09
8.12931e-09
4.33447e-08
4.3346e-08
1.58063e-09
1.58023e-09
1.2603e-08
3.05749e-08
1.79766e-09
1.51056e-09
1.41086e-10
5.51655e-13
2.16565e-10
7.68546e-11
5.18341e-13
5.12544e-13
4.49799e-13
2.94889e-13
5.44523e-13
5.17393e-13
2.66744e-13
2.77066e-13
2.6904e-13
2.18215e-13
6.34668e-16
6.01221e-15
7.12799e-15
6.36952e-15
-1.86928e-14
-1.46237e-14
-1.14961e-14
-9.10351e-15
-1.6322e-14
-1.3059e-14
-1.05951e-14
-8.68246e-15
-9.09032e-15
-7.06258e-15
-5.56015e-15
-4.47551e-15
-4.0575e-15
-3.05595e-15
-2.2917e-15
-1.74053e-15
-1.53049e-15
-1.13811e-15
-8.33286e-16
-5.92421e-16
-5.14067e-16
-3.7352e-16
-2.71272e-16
-1.8929e-16
-1.64134e-16
-1.14829e-16
-8.02402e-17
-5.50254e-17
-5.04819e-17
-3.41071e-17
-2.28349e-17
-1.51061e-17
-1.45878e-17
-9.55401e-18
-6.16538e-18
-3.91685e-18
-3.95568e-18
-2.4902e-18
-1.5413e-18
-9.36691e-19
-9.68166e-19
-5.80936e-19
-3.42382e-19
-1.97881e-19
-2.09133e-19
-1.18444e-19
-6.57922e-20
-3.5792e-20
-3.90077e-20
-2.05924e-20
-1.06411e-20
-5.37617e-21
-6.12008e-21
-2.96489e-21
-1.40239e-21
-6.47076e-22
-7.82758e-22
-3.41083e-22
-1.44639e-22
-5.9658e-23
-7.85523e-23
-2.99578e-23
-1.1075e-23
-3.96808e-24
-5.8814e-24
-1.88635e-24
-5.83936e-25
-1.74506e-25
-3.05134e-25
-7.71121e-26
-1.87527e-26
-4.3901e-27
-9.58234e-27
-1.69039e-27
-2.88019e-28
-4.73719e-29
-1.33414e-28
-1.24802e-29
-1.15515e-30
-1.05565e-31
-2.60683e-31
-4.98959e-33
-9.94257e-35
-2.11797e-36
0.999996
0.999996
0.999997
0.999994
0.998814
0.994555
0.99295
0.995356
0.997396
0.997074
0.982112
0.969579
0.969577
0.988979
0.998148
0.998148
0.98807
0.991739
0.998436
0.95026
0.951635
0.952359
0.954202
0.956707
0.958874
0.958484
0.958262
0.966977
0.990018
0.998055
0.998076
0.998093
0.998093
0.99807
0.997902
0.997844
0.997798
0.993848
0.263215
0.271142
0.279687
0.289945
0.303133
0.31956
0.337818
0.35487
0.368124
0.380713
0.406837
0.431502
0.447228
0.452587
0.450761
0.456323
0.469164
0.471626
0.474929
0.000501239
0.000456392
0.000502136
0.000486902
0.00045568
0.000451938
0.000451946
0.000451924
0.000451946
0.00045196
0.000453714
0.000459812
0.000470508
0.000481351
0.00182821
0.00263504
0.00297348
0.00366022
0.00446059
0.000574879
0.000456643
0.000719871
0.00126908
0.00126917
0.00126914
0.00126917
0.00126914
0.00126899
0.00126872
0.00126833
0.00123481
0.000525527
0.000906387
0.00106833
0.00106545
0.00107275
0.00102707
0.00105567
0.000566748
0.000546353
0.000584518
0.000430176
0.000525439
0.000467513
0.000424581
0.000414342
0.000423608
0.000393635
0.000286769
0.000121166
0.000301496
0.000474258
0.000501695
0.000540281
0.000552347
0.000538632
0.000450948
0.000158213
0.000179312
0.000134537
7.3182e-05
3.49348e-09
3.49453e-09
3.61539e-09
1.59379e-08
5.91394e-08
1.17742e-07
1.78322e-07
3.0004e-06
2.81994e-05
1.00841e-05
6.36041e-07
6.28706e-07
1.78477e-06
2.89996e-05
5.05158e-05
3.47352e-09
3.47813e-09
3.48724e-09
3.4905e-09
3.49136e-09
4.4119e-07
1.81984e-05
3.71064e-05
3.74605e-05
3.85846e-05
4.79506e-05
4.88491e-05
1.4847e-05
5.20108e-07
5.19974e-07
5.1994e-07
5.19944e-07
5.19982e-07
5.1999e-07
3.4857e-09
3.48934e-09
3.49124e-09
3.49135e-09
1.01839e-08
2.05007e-05
5.61505e-05
5.61541e-05
5.6121e-05
5.60435e-05
5.59652e-05
5.59271e-05
2.14068e-05
5.29841e-07
5.19931e-07
5.19931e-07
5.1994e-07
5.19945e-07
5.19959e-07
5.99723e-06
9.91061e-06
2.36306e-06
3.52848e-09
7.53577e-07
3.66903e-05
5.61529e-05
2.87583e-05
5.57719e-06
1.24401e-05
4.06227e-05
4.92855e-05
1.77803e-05
1.71147e-05
1.87708e-06
5.1994e-07
5.19945e-07
5.19954e-07
5.1996e-07
2.09525e-05
2.12037e-05
1.84103e-05
2.25882e-06
2.97392e-06
1.46147e-05
8.96682e-06
3.45761e-07
1.07081e-06
9.48667e-07
8.05692e-07
7.00256e-06
2.65862e-05
2.65876e-05
1.3836e-05
5.19949e-07
5.19952e-07
5.19975e-07
5.19975e-07
2.02708e-05
2.1207e-05
2.1207e-05
2.11908e-05
1.88291e-06
1.97567e-09
1.97553e-09
3.57772e-07
2.49294e-06
2.49405e-06
7.98756e-07
3.6102e-06
2.29879e-05
2.53127e-05
2.53028e-06
5.19957e-07
5.19956e-07
5.19961e-07
5.19965e-07
3.09843e-06
1.67794e-05
2.0642e-05
8.72368e-06
1.48762e-07
1.97553e-09
6.29697e-09
2.73325e-07
4.42216e-07
3.58301e-07
2.2557e-10
2.2563e-10
2.53242e-10
4.33769e-06
1.29535e-05
1.2067e-05
1.62235e-06
5.19965e-07
5.19969e-07
1.69734e-09
1.69544e-09
1.6948e-09
1.69544e-09
1.69507e-09
6.42349e-09
1.44765e-08
2.25409e-10
2.25298e-10
2.25399e-10
2.25298e-10
2.2572e-10
1.53773e-08
7.00271e-06
1.29535e-05
1.29485e-05
1.29433e-05
8.39968e-06
2.32331e-06
3.88053e-08
4.38421e-09
2.85968e-09
1.69503e-09
1.69913e-09
2.39486e-09
4.44959e-09
1.92886e-09
4.17747e-10
2.26499e-10
5.52033e-10
6.63123e-10
9.60042e-10
8.94788e-08
3.45236e-06
6.51908e-06
4.95569e-06
3.14628e-06
3.00195e-06
6.66575e-08
1.59088e-07
1.80103e-07
1.09201e-07
1.78352e-08
2.05068e-10
2.05068e-10
2.05067e-10
3.34951e-10
6.61592e-10
9.49202e-10
1.79886e-09
1.81931e-09
1.84312e-11
1.84314e-11
1.84312e-11
1.9041e-11
1.80955e-08
1.18476e-06
1.48291e-08
2.2178e-07
2.54869e-07
2.54869e-07
2.12131e-07
1.40993e-08
2.05064e-10
3.55364e-09
1.2596e-08
1.03695e-08
1.19092e-10
8.08091e-11
4.86222e-11
4.18017e-11
3.66424e-11
7.20551e-11
6.39793e-08
4.86097e-06
1.32338e-05
8.37343e-14
3.07048e-08
2.11728e-07
2.54859e-07
2.54783e-07
1.29036e-07
2.08135e-10
2.1491e-08
7.02164e-08
6.43026e-08
9.32985e-09
4.88688e-11
7.80571e-11
1.13388e-10
7.20187e-11
7.83363e-11
1.26872e-06
1.34469e-05
1.34469e-05
8.32631e-14
4.31521e-15
6.61744e-27
7.59774e-08
1.35809e-07
2.70643e-08
2.94396e-09
4.2017e-08
7.0217e-08
7.02134e-08
5.37885e-08
4.87828e-11
4.8759e-11
8.39583e-11
5.19867e-11
1.0236e-11
1.13467e-06
1.22341e-05
1.34469e-05
1.06412e-13
8.60462e-15
-2.10031e-18
0
1.69088e-19
1.02762e-16
4.76102e-10
1.92259e-08
5.1553e-08
5.95768e-08
1.92915e-08
1.26275e-09
4.05387e-11
4.05401e-11
1.66666e-11
2.01354e-12
5.18849e-08
7.10081e-07
9.1374e-06
3.41447e-15
5.82965e-16
-8.74896e-17
-1.65692e-16
1.86749e-16
1.87015e-16
1.96109e-16
2.24098e-16
2.69367e-16
3.37947e-16
4.29964e-16
1.21119e-11
1.35284e-10
1.93862e-11
5.08864e-12
2.01118e-12
1.11098e-12
1.11098e-12
1.11097e-12
-7.21821e-15
-3.72292e-15
-1.86244e-15
-4.89856e-16
1.43197e-15
1.98095e-14
4.823e-14
7.19614e-14
1.09561e-13
1.31514e-13
1.53704e-13
5.763e-13
1.35292e-12
1.83504e-12
1.30937e-12
1.32773e-12
1.11098e-12
1.11097e-12
1.11098e-12
-7.08734e-15
-4.21483e-15
-2.44391e-15
-1.33865e-15
-6.10023e-16
0
1.19306e-15
4.17233e-14
2.0121e-13
2.95088e-13
3.31832e-13
8.7473e-13
1.28167e-12
5.09871e-13
2.84366e-13
9.36572e-13
1.20537e-12
1.1161e-12
1.11355e-12
-3.63777e-15
-2.2375e-15
-1.35793e-15
-8.11761e-16
-4.7291e-16
-2.60901e-16
-1.18223e-16
-2.46519e-35
1.72559e-15
1.83571e-14
3.8283e-14
9.07883e-14
3.23521e-13
9.79912e-14
8.17684e-14
7.46722e-13
1.86139e-12
1.11616e-12
1.11633e-12
-1.35299e-15
-8.17525e-16
-4.91233e-16
-2.93118e-16
-1.73366e-16
-1.03346e-16
-6.03526e-17
-3.11977e-17
-3.2191e-18
4.96663e-17
3.19799e-16
1.02551e-15
2.64753e-15
6.45677e-15
2.75166e-14
7.0103e-13
2.7145e-12
1.11633e-12
9.31578e-07
-4.09694e-16
-2.37929e-16
-1.37276e-16
-7.94045e-17
-4.6493e-17
-2.74618e-17
-1.60606e-17
-8.79173e-18
-3.43675e-18
2.1909e-18
2.25364e-17
1.13594e-16
5.80248e-16
2.85343e-15
2.02583e-14
7.2113e-13
3.15313e-12
1.11839e-12
2.42325e-06
-1.07815e-16
-5.91195e-17
-3.3031e-17
-1.87275e-17
-1.06664e-17
-5.99924e-18
-3.20589e-18
-1.52453e-18
-6.33168e-20
2.06813e-18
1.56621e-17
8.12961e-17
4.3974e-16
2.31048e-15
1.89503e-14
7.52947e-13
3.24689e-12
1.11928e-12
2.42327e-06
-2.71341e-17
-1.35645e-17
-6.98335e-18
-3.67177e-18
-1.92452e-18
-8.97992e-19
0
2.36347e-19
1.58407e-18
7.13265e-18
2.22115e-17
8.33518e-17
4.21306e-16
2.21543e-15
1.97046e-14
7.40566e-13
3.24619e-12
1.11974e-12
2.42314e-06
-6.63396e-18
-2.94063e-18
-1.33951e-18
-6.15614e-19
-2.14701e-19
1.12339e-19
1.43101e-18
9.25656e-18
3.53093e-17
1.00558e-16
2.22425e-16
4.25387e-16
1.07757e-15
4.43798e-15
4.13043e-14
6.88037e-13
3.24707e-12
1.12046e-12
1.56176e-06
-1.58073e-18
-6.29589e-19
-2.51759e-19
-8.62405e-20
1.37945e-19
2.532e-18
1.60257e-17
7.64089e-17
2.86205e-16
8.36855e-16
1.87565e-15
3.95933e-15
1.11831e-14
4.36462e-14
1.86894e-13
9.28161e-13
3.55981e-12
1.21443e-12
1.21444e-12
-3.50877e-19
-1.27742e-19
-4.48856e-20
6.19032e-21
8.69708e-19
1.05933e-17
7.87524e-17
4.03056e-16
1.6012e-15
5.20272e-15
1.46535e-14
4.53283e-14
1.454e-13
4.45672e-13
1.07688e-12
2.33901e-12
4.82527e-12
1.21444e-12
1.02241e-07
-6.86078e-20
-2.29425e-20
-6.5116e-21
5.98719e-20
1.86935e-18
3.1654e-17
3.13913e-16
1.81414e-15
8.51463e-15
3.6799e-14
1.71579e-13
7.39085e-13
1.99847e-12
3.92019e-12
5.36252e-12
6.90874e-12
7.31876e-12
1.21464e-12
2.05957e-06
-1.13479e-20
-3.44968e-21
-2.49413e-22
7.49767e-20
3.1798e-18
7.1927e-17
9.95018e-16
7.79281e-15
5.1702e-14
3.10193e-13
1.78891e-12
7.01945e-12
1.53429e-11
2.17834e-11
2.07855e-11
2.09937e-11
1.83292e-11
1.22351e-12
2.54509e-06
-1.53266e-21
-4.14079e-22
5.37512e-22
7.95137e-20
4.19993e-18
1.18907e-16
2.30846e-15
2.9183e-14
2.63526e-13
1.74897e-12
8.9491e-12
2.87732e-11
5.34339e-11
6.30504e-11
5.65023e-11
5.52164e-11
6.2948e-11
1.2293e-12
2.54512e-06
-1.62541e-22
-3.71592e-23
3.84861e-22
7.08751e-20
4.55471e-18
1.48139e-16
3.77774e-15
7.5971e-14
7.83014e-13
5.00724e-12
2.13871e-11
5.94026e-11
9.58138e-11
1.0249e-10
1.02714e-10
1.19916e-10
1.72766e-10
1.24251e-12
2.54503e-06
-1.28823e-23
-2.02702e-24
1.62644e-22
3.81936e-20
4.18952e-18
1.5414e-16
4.54658e-15
1.26581e-13
1.33902e-12
8.04986e-12
3.01083e-11
7.66218e-11
1.12008e-10
1.14371e-10
1.38432e-10
3.26199e-10
4.31193e-10
1.29173e-12
2.54455e-06
-7.13758e-25
7.05096e-26
6.44427e-23
1.53672e-20
2.19332e-18
1.11496e-16
4.54976e-15
1.4809e-13
1.56039e-12
9.05943e-12
3.1918e-11
7.66085e-11
1.09253e-10
9.08158e-11
1.65543e-10
2.06845e-09
1.85282e-09
1.4315e-12
1.50835e-06
-2.50508e-26
4.5067e-26
1.78676e-23
5.26353e-21
7.8044e-19
4.06985e-17
2.55258e-15
1.37956e-13
1.42471e-12
7.62172e-12
2.2523e-11
3.94094e-11
7.18279e-11
2.66737e-11
2.15288e-10
6.58885e-09
6.33661e-09
2.06361e-12
9.13335e-07
-4.71487e-28
8.40835e-27
2.92258e-24
1.22694e-21
2.14635e-19
1.03412e-17
6.53996e-16
5.82238e-14
5.73724e-13
2.70418e-12
6.62939e-12
1.02939e-11
1.84481e-11
5.30769e-16
3.36084e-10
8.64056e-09
8.639e-09
4.49202e-12
1.12479e-06
-3.36708e-30
7.21743e-28
2.49496e-25
1.57703e-22
3.44693e-20
1.80573e-18
9.8935e-17
1.04774e-14
9.86499e-14
4.29753e-13
9.59552e-13
1.48396e-12
2.38961e-12
1.87535e-17
2.78458e-10
5.69347e-09
6.755e-09
5.69907e-09
1.13657e-06
-4.17815e-33
4.32758e-32
4.51597e-27
9.46427e-24
2.2366e-21
1.36963e-19
7.84423e-18
8.22348e-16
7.36018e-15
2.99638e-14
6.38319e-14
9.96181e-14
1.37722e-13
2.09272e-19
6.03401e-11
6.08774e-10
1.19477e-09
3.49075e-24
1.13629e-06
-2.07777e-38
-2.11283e-40
1.17034e-34
2.63536e-29
7.58615e-26
2.86385e-23
7.87191e-21
8.93675e-19
6.24267e-18
2.48805e-17
5.471e-17
8.34748e-17
3.81862e-17
2.07754e-19
4.00463e-13
-1.26218e-32
0
-7.57704e-57
1.01975e-06
)
;

boundaryField
{
    leftWall
    {
        type            zeroGradient;
    }
    rightWall
    {
        type            zeroGradient;
    }
    lowerWall
    {
        type            zeroGradient;
    }
    atmosphere
    {
        type            inletOutlet;
        inletValue      uniform 0;
        value           nonuniform List<scalar> 
46
(
0
1.28985e-12
6.53621e-11
1.50088e-10
1.26242e-10
5.67024e-11
9.30129e-12
3.67922e-13
2.29304e-15
2.50079e-18
1.02986e-21
-2.72776e-21
-1.77979e-20
-2.62876e-20
-1.79232e-20
-7.07603e-21
-1.77127e-21
-2.88668e-22
-2.98842e-23
-1.82199e-24
-5.81824e-26
0
0
0
0
0
0
0
0
0
0
0
0
0
0
0
0
0
0
0
0
0
0
0
0
1.01975e-06
)
;
    }
    defaultFaces
    {
        type            empty;
    }
}


// ************************************************************************* //
