/*--------------------------------*- C++ -*----------------------------------*\
  =========                 |
  \\      /  F ield         | OpenFOAM: The Open Source CFD Toolbox
   \\    /   O peration     | Website:  https://openfoam.org
    \\  /    A nd           | Version:  9
     \\/     M anipulation  |
\*---------------------------------------------------------------------------*/
FoamFile
{
    format      ascii;
    class       surfaceScalarField;
    location    "8.24";
    object      phi;
}
// * * * * * * * * * * * * * * * * * * * * * * * * * * * * * * * * * * * * * //

dimensions      [0 3 -1 0 0 0 0];

internalField   nonuniform List<scalar> 
4432
(
-2.67937e-08
2.67937e-08
-1.60483e-08
-1.07415e-08
1.10751e-08
-2.71284e-08
4.57158e-08
-3.4639e-08
8.69826e-08
-4.12696e-08
1.34889e-07
-4.7908e-08
1.89576e-07
-5.46897e-08
2.50365e-07
-6.07908e-08
3.14141e-07
-6.37778e-08
3.78042e-07
-6.39022e-08
4.44564e-07
-6.65233e-08
5.23492e-07
-7.89286e-08
6.29561e-07
-1.06069e-07
7.7131e-07
-1.41748e-07
9.33165e-07
-1.61854e-07
1.04809e-06
-1.14923e-07
9.87802e-07
6.02911e-08
7.02745e-07
2.8506e-07
1.54219e-07
5.48529e-07
-5.39968e-07
6.94191e-07
-8.61864e-07
3.219e-07
-6.79734e-07
-1.82128e-07
-6.79733e-07
-8.79033e-09
3.55787e-08
3.79592e-09
-2.33221e-08
3.0139e-08
-5.34784e-08
6.52238e-08
-6.97243e-08
1.06421e-07
-8.24713e-08
1.53079e-07
-9.45695e-08
2.05029e-07
-1.06645e-07
2.61277e-07
-1.17042e-07
3.19356e-07
-1.21861e-07
3.76797e-07
-1.21345e-07
4.3453e-07
-1.24257e-07
4.98368e-07
-1.42767e-07
5.76587e-07
-1.84286e-07
6.72622e-07
-2.3778e-07
7.73527e-07
-2.62755e-07
8.35511e-07
-1.76903e-07
7.79871e-07
1.15937e-07
5.53093e-07
5.11845e-07
2.02218e-07
8.9941e-07
-1.92367e-07
1.08878e-06
-4.6632e-07
5.95856e-07
-5.1577e-07
-1.32675e-07
-1.1955e-06
4.19526e-09
3.13785e-08
1.967e-08
-3.87919e-08
4.46102e-08
-7.84247e-08
7.7639e-08
-1.02755e-07
1.16285e-07
-1.21122e-07
1.59653e-07
-1.37942e-07
2.07434e-07
-1.54431e-07
2.58587e-07
-1.68201e-07
3.10682e-07
-1.7396e-07
3.60884e-07
-1.7155e-07
4.08773e-07
-1.72149e-07
4.57576e-07
-1.91571e-07
5.12612e-07
-2.39322e-07
5.76302e-07
-3.01468e-07
6.40794e-07
-3.27243e-07
6.76423e-07
-2.12529e-07
6.2187e-07
1.70495e-07
4.39271e-07
6.9445e-07
2.15837e-07
1.12285e-06
1.28521e-08
1.29177e-06
-2.10746e-07
8.19459e-07
-3.40162e-07
-3.25534e-09
-1.53566e-06
1.27822e-08
1.85914e-08
3.18147e-08
-5.7821e-08
5.65479e-08
-1.03164e-07
8.7604e-08
-1.33814e-07
1.23268e-07
-1.56791e-07
1.62754e-07
-1.77435e-07
2.05837e-07
-1.97521e-07
2.51591e-07
-2.13962e-07
2.97464e-07
-2.19839e-07
3.39999e-07
-2.1409e-07
3.77507e-07
-2.09661e-07
4.11343e-07
-2.25409e-07
4.45299e-07
-2.73277e-07
4.82322e-07
-3.3849e-07
5.2068e-07
-3.65597e-07
5.46387e-07
-2.38231e-07
5.06681e-07
2.10208e-07
3.70529e-07
8.30609e-07
2.25946e-07
1.26744e-06
1.33399e-07
1.38433e-06
-3.8444e-08
9.91307e-07
-1.7762e-07
1.35924e-07
-1.71328e-06
1.86918e-08
-1.04991e-10
4.10095e-08
-8.01369e-08
6.63171e-08
-1.28477e-07
9.57105e-08
-1.63211e-07
1.28157e-07
-1.89244e-07
1.63226e-07
-2.12512e-07
2.0099e-07
-2.35294e-07
2.40793e-07
-2.53773e-07
2.79982e-07
-2.59036e-07
3.14381e-07
-2.48496e-07
3.41145e-07
-2.36429e-07
3.60171e-07
-2.44439e-07
3.74371e-07
-2.87478e-07
3.87588e-07
-3.51706e-07
4.03455e-07
-3.81461e-07
4.24985e-07
-2.59757e-07
4.1306e-07
2.2214e-07
3.21218e-07
9.22459e-07
2.33771e-07
1.3549e-06
2.03477e-07
1.41463e-06
8.8872e-08
1.10592e-06
-1.40469e-08
2.38847e-07
-1.72732e-06
2.31497e-08
-2.3259e-08
4.81686e-08
-1.05156e-07
7.41791e-08
-1.54493e-07
1.01926e-07
-1.90963e-07
1.30774e-07
-2.18097e-07
1.60753e-07
-2.42498e-07
1.92387e-07
-2.66936e-07
2.25452e-07
-2.86845e-07
2.57329e-07
-2.9092e-07
2.83191e-07
-2.74364e-07
2.99215e-07
-2.52459e-07
3.04082e-07
-2.49309e-07
3.00011e-07
-2.83409e-07
2.91307e-07
-3.43002e-07
2.85068e-07
-3.75221e-07
2.95946e-07
-2.70632e-07
3.24593e-07
1.93497e-07
2.7434e-07
9.72716e-07
2.37682e-07
1.39156e-06
2.49575e-07
1.40274e-06
1.81386e-07
1.17411e-06
1.44647e-07
2.75591e-07
-1.58267e-06
2.68873e-08
-5.01502e-08
5.39767e-08
-1.32247e-07
8.03392e-08
-1.80859e-07
1.06103e-07
-2.16729e-07
1.30772e-07
-2.42768e-07
1.54843e-07
-2.66571e-07
1.79353e-07
-2.91448e-07
2.04662e-07
-3.12155e-07
2.28424e-07
-3.14684e-07
2.45417e-07
-2.91359e-07
2.51125e-07
-2.58168e-07
2.43182e-07
-2.41367e-07
2.23055e-07
-2.63283e-07
1.94734e-07
-3.1468e-07
1.66292e-07
-3.46779e-07
1.56719e-07
-2.6106e-07
2.03859e-07
1.46357e-07
2.28975e-07
9.47601e-07
2.51531e-07
1.369e-06
2.70961e-07
1.3833e-06
2.89674e-07
1.1554e-06
3.38539e-07
2.26728e-07
-1.24413e-06
3.00832e-08
-8.02361e-08
5.89061e-08
-1.6107e-07
8.51184e-08
-2.07071e-07
1.08225e-07
-2.39832e-07
1.27965e-07
-2.62504e-07
1.45241e-07
-2.83842e-07
1.61515e-07
-3.07717e-07
1.77822e-07
-3.28456e-07
1.92461e-07
-3.29318e-07
2.0029e-07
-2.99183e-07
1.96552e-07
-2.54426e-07
1.77992e-07
-2.22804e-07
1.45182e-07
-2.30471e-07
1.01235e-07
-2.70732e-07
5.3567e-08
-2.99112e-07
2.12507e-08
-2.28746e-07
5.23022e-08
1.15301e-07
1.61602e-07
8.38295e-07
2.57592e-07
1.27301e-06
2.91244e-07
1.34964e-06
4.29054e-07
1.01758e-06
5.11242e-07
1.44539e-07
-7.32893e-07
-1.14472e-06
1.14472e-06
-6.48219e-07
-4.96517e-07
6.12985e-08
-7.09493e-07
5.4587e-07
-4.84582e-07
8.78701e-07
-3.32821e-07
1.09967e-06
-2.20966e-07
1.22117e-06
-1.21499e-07
1.36067e-06
-1.39498e-07
1.43464e-06
-7.39713e-08
1.30874e-06
1.2589e-07
9.20441e-07
3.88297e-07
1.31204e-07
7.89233e-07
-6.73883e-07
8.05082e-07
-9.4178e-07
2.67893e-07
-9.32833e-07
-8.95137e-09
-7.33715e-07
-1.99122e-07
-5.57893e-07
-1.75826e-07
-1.66521e-07
-3.91375e-07
-1.66524e-07
-7.48757e-07
1.8935e-06
-2.78396e-07
-9.66909e-07
1.43361e-07
-1.13122e-06
4.36282e-07
-7.77511e-07
6.20531e-07
-5.17061e-07
7.4237e-07
-3.42803e-07
8.60625e-07
-2.39754e-07
9.42934e-07
-2.21811e-07
9.11567e-07
-4.26113e-08
7.22274e-07
3.15178e-07
4.58118e-07
6.52443e-07
9.50395e-08
1.15231e-06
-2.8283e-07
1.18294e-06
-5.65571e-07
5.50628e-07
-6.8675e-07
1.1222e-07
-6.93177e-07
-1.92701e-07
-7.36984e-07
-1.32025e-07
-5.48792e-07
-5.79571e-07
-7.15319e-07
-2.41137e-07
2.13466e-06
3.37866e-08
-1.24186e-06
2.20903e-07
-1.31831e-06
3.64339e-07
-9.20951e-07
4.60633e-07
-6.13348e-07
5.29207e-07
-4.11374e-07
6.01185e-07
-3.11732e-07
6.44992e-07
-2.6562e-07
5.80888e-07
2.14874e-08
3.74699e-07
5.21364e-07
1.68751e-07
8.58383e-07
3.68105e-08
1.28424e-06
-1.00199e-07
1.31994e-06
-3.33834e-07
7.84257e-07
-5.00747e-07
2.79128e-07
-6.03535e-07
-8.99199e-08
-8.01511e-07
6.59456e-08
-7.4754e-07
-6.33545e-07
-1.46286e-06
2.24776e-07
1.90991e-06
2.632e-07
-1.28031e-06
2.7041e-07
-1.3255e-06
2.97447e-07
-9.4799e-07
3.25066e-07
-6.40961e-07
3.47279e-07
-4.33584e-07
3.80418e-07
-3.4487e-07
4.00349e-07
-2.85551e-07
3.35061e-07
8.67718e-08
1.54355e-07
7.02068e-07
2.31941e-09
1.01041e-06
-2.69023e-08
1.31346e-06
-4.70492e-08
1.34008e-06
-2.0429e-07
9.41492e-07
-3.45939e-07
4.20771e-07
-4.6103e-07
2.51646e-08
-7.17086e-07
3.21996e-07
-6.89545e-07
-6.61089e-07
-2.15241e-06
5.77128e-07
1.3328e-06
4.14774e-07
-1.11798e-06
2.79528e-07
-1.19024e-06
2.22624e-07
-8.91087e-07
1.96563e-07
-6.14894e-07
1.78942e-07
-4.15959e-07
1.78788e-07
-3.44712e-07
1.84566e-07
-2.91328e-07
1.3485e-07
1.36486e-07
-3.72392e-09
8.40641e-07
-1.01677e-07
1.10836e-06
-7.78942e-08
1.28967e-06
-5.08046e-08
1.31299e-06
-1.53698e-07
1.04438e-06
-2.05832e-07
4.729e-07
-2.58081e-07
7.74088e-08
-4.77054e-07
5.40964e-07
-4.77196e-07
-6.6095e-07
-2.62961e-06
6.87012e-07
6.45805e-07
4.46006e-07
-8.76986e-07
2.42887e-07
-9.8711e-07
1.36048e-07
-7.84249e-07
7.17254e-08
-5.50569e-07
2.11226e-08
-3.65354e-07
-9.08182e-09
-3.14507e-07
-1.20863e-08
-2.88322e-07
-3.19265e-08
1.56325e-07
-1.25129e-07
9.33843e-07
-1.69063e-07
1.15229e-06
-1.14406e-07
1.23501e-06
-6.10407e-08
1.25962e-06
-1.20485e-07
1.10382e-06
-9.06473e-08
4.43059e-07
-3.06566e-08
1.74153e-08
-1.31224e-07
6.41528e-07
-1.92401e-07
-5.99775e-07
-2.82201e-06
5.87968e-07
5.78483e-08
3.75825e-07
-6.64851e-07
1.68604e-07
-7.79887e-07
3.96636e-08
-6.55313e-07
-4.80356e-08
-4.62872e-07
-1.24852e-07
-2.88539e-07
-1.84119e-07
-2.55242e-07
-2.01218e-07
-2.71223e-07
-1.83758e-07
1.38864e-07
-2.09414e-07
9.59499e-07
-2.12533e-07
1.15541e-06
-1.34921e-07
1.1574e-06
-6.28158e-08
1.18751e-06
-6.23991e-08
1.1034e-06
4.18277e-08
3.38832e-07
1.67573e-07
-1.08329e-07
1.95056e-07
6.14045e-07
1.288e-07
-5.33519e-07
-2.69321e-06
3.86253e-07
-3.284e-07
2.57289e-07
-5.35891e-07
7.42086e-08
-5.96811e-07
-6.13277e-08
-5.19785e-07
-1.60884e-07
-3.63324e-07
-2.55226e-07
-1.94205e-07
-3.38147e-07
-1.72326e-07
-3.88933e-07
-2.2044e-07
-3.34248e-07
8.4176e-08
-2.72477e-07
8.97728e-07
-2.27623e-07
1.11055e-06
-1.31419e-07
1.0612e-06
-4.63586e-08
1.10245e-06
5.02423e-08
1.0068e-06
2.07829e-07
1.8125e-07
2.95847e-07
-1.96344e-07
4.76459e-07
4.33435e-07
4.05575e-07
-4.62633e-07
-2.28764e-06
8.76063e-08
-1.67843e-07
1.49371e-07
-2.22834e-07
1.97241e-07
-2.54937e-07
2.32542e-07
-2.75129e-07
2.54761e-07
-2.84718e-07
2.66107e-07
-2.95183e-07
2.6937e-07
-3.10973e-07
2.69106e-07
-3.28188e-07
2.6623e-07
-3.26436e-07
2.51302e-07
-2.8425e-07
2.16785e-07
-2.19905e-07
1.51949e-07
-1.57964e-07
5.57317e-08
-1.34249e-07
-6.92116e-08
-1.45786e-07
-2.1269e-07
-1.55632e-07
-3.26927e-07
-1.14507e-07
-2.90662e-07
7.90382e-08
1.91936e-08
5.2844e-07
4.15247e-07
8.76954e-07
7.98643e-07
9.66248e-07
1.18456e-06
6.31663e-07
1.22588e-06
1.03234e-07
-1.97135e-07
6.90121e-07
1.20946e-07
-2.88787e-07
1.71979e-07
-2.73859e-07
1.91809e-07
-2.74756e-07
2.06831e-07
-2.90137e-07
2.10558e-07
-2.8843e-07
1.9246e-07
-2.77071e-07
1.50584e-07
-2.69083e-07
8.96782e-08
-2.67268e-07
2.01734e-08
-2.5692e-07
-4.34981e-08
-2.2057e-07
-9.66833e-08
-1.66713e-07
-1.46716e-07
-1.07927e-07
-2.14478e-07
-6.64858e-08
-3.13409e-07
-4.68574e-08
-4.43982e-07
-2.50639e-08
-5.67507e-07
9.01035e-09
-5.68227e-07
7.97503e-08
-2.86327e-07
2.46531e-07
2.01253e-07
3.89364e-07
7.2658e-07
4.40915e-07
1.03131e-06
3.26929e-07
9.90161e-07
1.44393e-07
7.71981e-08
7.15845e-07
-1.15426e-07
-1.73362e-07
-1.20691e-07
-2.68592e-07
-1.10997e-07
-2.84442e-07
-1.61954e-07
-2.39171e-07
-2.14927e-07
-2.35447e-07
-2.52687e-07
-2.393e-07
-2.97599e-07
-2.24158e-07
-3.86871e-07
-1.77983e-07
-5.07406e-07
-1.36372e-07
-5.97925e-07
-1.30038e-07
-6.31192e-07
-1.33433e-07
-6.10799e-07
-1.28307e-07
-5.93922e-07
-8.33505e-08
-6.27287e-07
-1.3481e-08
-7.23939e-07
7.15995e-08
-8.52457e-07
1.37537e-07
-8.59953e-07
8.72531e-08
-5.33833e-07
-7.95816e-08
-6.3745e-09
-1.38086e-07
5.4822e-07
-1.13671e-07
8.70123e-07
5.03021e-09
8.54299e-07
1.60223e-07
2.49913e-07
6.81592e-07
-1.42292e-06
1.24956e-06
-3.54759e-07
-1.3371e-06
-1.32575e-07
-5.06768e-07
-4.89033e-07
1.17241e-07
-9.30343e-07
2.05837e-07
-8.80674e-07
-2.88993e-07
-6.77991e-07
-4.26845e-07
-5.59093e-07
-2.9687e-07
-6.14322e-07
-8.11271e-08
-6.5812e-07
-8.62244e-08
-6.54696e-07
-1.36842e-07
-6.34129e-07
-1.48857e-07
-5.74293e-07
-1.43176e-07
-5.27175e-07
-6.06038e-08
-7.16548e-07
2.60943e-07
-7.48373e-07
1.69314e-07
-4.83232e-07
-1.77931e-07
-1.34604e-07
-4.28229e-07
1.49938e-08
-2.8768e-07
4.28429e-07
-5.27113e-07
7.85081e-07
-3.51669e-07
9.46608e-07
-1.37379e-09
2.70333e-07
9.26172e-07
-9.63294e-07
2.21313e-06
-7.56598e-07
-1.54368e-06
-2.02561e-06
7.62394e-07
-3.97623e-06
2.06801e-06
-4.97012e-06
1.19988e-06
-5.05004e-06
-2.08949e-07
-4.06438e-06
-1.4124e-06
-2.92094e-06
-1.44022e-06
-2.17043e-06
-8.31572e-07
-1.51832e-06
-7.38269e-07
-8.8731e-07
-7.67784e-07
-2.74776e-07
-7.61334e-07
6.54828e-07
-1.07275e-06
1.68866e-06
-1.09443e-06
2.14453e-06
-1.94946e-07
2.49524e-06
-1.81414e-07
2.73689e-06
-4.1957e-07
2.64012e-06
-3.31411e-07
1.43178e-06
9.20723e-07
7.86878e-07
1.17855e-07
6.24744e-07
-1.89517e-07
6.96219e-07
-7.29464e-08
3.89884e-07
5.7628e-07
3.75013e-06
-1.53722e-06
2.33873e-06
-1.32445e-07
2.40418e-07
2.86059e-06
-4.36146e-07
2.74443e-06
-2.87549e-07
1.05116e-06
-1.13213e-06
6.35536e-07
-1.80624e-06
-7.38392e-07
-2.03257e-06
-1.21398e-06
-1.80614e-06
-1.05811e-06
-1.60782e-06
-9.36699e-07
-1.52613e-06
-8.49574e-07
-1.37829e-06
-9.09255e-07
-8.83703e-07
-1.56743e-06
-2.20091e-07
-1.75815e-06
7.26058e-07
-1.14119e-06
8.68687e-07
-3.24103e-07
1.69847e-07
2.79235e-07
-4.77257e-07
3.15621e-07
-7.65811e-07
1.20914e-06
-1.62401e-06
9.75959e-07
-2.25589e-06
4.42382e-07
-2.45539e-06
1.26717e-07
1.51553e-07
-2.217e-06
-2.60804e-07
-1.27653e-06
-1.02761e-06
6.34369e-07
-6.78551e-07
2.51145e-06
-3.56286e-07
2.42205e-06
-5.62126e-07
1.25688e-06
-6.45423e-07
7.18712e-07
-1.16446e-06
-2.19466e-07
-1.64821e-06
-7.30327e-07
-1.89682e-06
-8.09573e-07
-2.08385e-06
-7.49735e-07
-2.27745e-06
-6.56034e-07
-2.37776e-06
-8.09009e-07
-2.02775e-06
-1.91749e-06
-1.36149e-06
-2.4245e-06
-7.68561e-07
-1.73422e-06
-5.829e-07
-5.09788e-07
-8.23837e-07
5.20255e-07
-1.48516e-06
9.77018e-07
-1.89842e-06
1.62241e-06
-2.57544e-06
1.65298e-06
-3.2003e-06
1.06733e-06
-3.47511e-06
4.01797e-07
3.4904e-07
-3.67204e-06
-1.52635e-06
2.49727e-07
-1.84382e-06
9.51914e-07
-1.31342e-06
1.98104e-06
-8.61877e-07
1.97048e-06
-8.93171e-07
1.28816e-06
-9.33746e-07
7.59266e-07
-1.27344e-06
1.20201e-07
-1.70441e-06
-2.99394e-07
-2.00965e-06
-5.04364e-07
-2.19425e-06
-5.65143e-07
-2.27816e-06
-5.72113e-07
-2.23544e-06
-8.51724e-07
-2.31288e-06
-1.84004e-06
-2.46841e-06
-2.26896e-06
-2.52963e-06
-1.67304e-06
-2.45304e-06
-5.86461e-07
-2.34233e-06
4.09483e-07
-2.53515e-06
1.16983e-06
-2.65445e-06
1.74171e-06
-2.80388e-06
1.8024e-06
-3.13098e-06
1.39445e-06
-3.59447e-06
8.6534e-07
5.97002e-07
-3.84232e-06
-7.62448e-07
1.01224e-06
-1.26031e-06
1.44991e-06
-1.1739e-06
1.89473e-06
-1.01029e-06
1.80696e-06
-1.07423e-06
1.35219e-06
-1.17997e-06
8.65104e-07
-1.44516e-06
3.85471e-07
-1.77509e-06
3.06011e-08
-2.01859e-06
-2.60834e-07
-2.15612e-06
-4.27607e-07
-2.18737e-06
-5.40854e-07
-2.20118e-06
-8.37903e-07
-2.60535e-06
-1.43588e-06
-3.18107e-06
-1.69327e-06
-3.55091e-06
-1.30326e-06
-3.56022e-06
-5.77246e-07
-3.4271e-06
2.76218e-07
-3.34126e-06
1.08388e-06
-3.23267e-06
1.63301e-06
-3.19618e-06
1.76579e-06
-3.33573e-06
1.53387e-06
-3.60943e-06
1.13891e-06
7.68711e-07
-3.78129e-06
-6.44573e-07
1.65694e-06
-9.81917e-07
1.78738e-06
-1.00999e-06
1.92291e-06
-9.98313e-07
1.7954e-06
-1.09426e-06
1.44825e-06
-1.25491e-06
1.02588e-06
-1.49172e-06
6.22397e-07
-1.74765e-06
2.86636e-07
-1.95738e-06
-5.10216e-08
-2.11572e-06
-2.69219e-07
-2.24628e-06
-4.10259e-07
-2.44361e-06
-6.40547e-07
-2.87911e-06
-1.00037e-06
-3.42123e-06
-1.15117e-06
-3.78573e-06
-9.38786e-07
-3.91706e-06
-4.45964e-07
-3.86255e-06
2.21621e-07
-3.70263e-06
9.23849e-07
-3.50836e-06
1.43862e-06
-3.374e-06
1.63127e-06
-3.36817e-06
1.52784e-06
-3.46847e-06
1.23902e-06
8.43823e-07
-3.54381e-06
-4.05683e-07
2.0627e-06
-6.88311e-07
2.07009e-06
-8.07997e-07
2.04269e-06
-8.88741e-07
1.87625e-06
-1.01479e-06
1.57441e-06
-1.19738e-06
1.20859e-06
-1.41267e-06
8.37797e-07
-1.62335e-06
4.97426e-07
-1.83647e-06
1.62194e-07
-2.0446e-06
-6.10063e-08
-2.26875e-06
-1.86045e-07
-2.54066e-06
-3.68593e-07
-2.95196e-06
-5.8903e-07
-3.41551e-06
-6.87596e-07
-3.75092e-06
-6.03369e-07
-3.879e-06
-3.17888e-07
-3.83502e-06
1.77617e-07
-3.68928e-06
7.78062e-07
-3.49123e-06
1.24051e-06
-3.31152e-06
1.45148e-06
-3.19844e-06
1.41466e-06
-3.14748e-06
1.18795e-06
7.97778e-07
-3.10156e-06
-2.85597e-07
2.34834e-06
-5.03085e-07
2.28765e-06
-6.40164e-07
2.17985e-06
-7.56293e-07
1.99246e-06
-8.9734e-07
1.71555e-06
-1.07147e-06
1.38282e-06
-1.26145e-06
1.02788e-06
-1.44847e-06
6.84549e-07
-1.6717e-06
3.85519e-07
-1.92628e-06
1.93651e-07
-2.18328e-06
7.10252e-08
-2.47234e-06
-7.94741e-08
-2.83216e-06
-2.29163e-07
-3.21297e-06
-3.0676e-07
-3.50475e-06
-3.11579e-07
-3.64549e-06
-1.77133e-07
-3.62856e-06
1.60691e-07
-3.48446e-06
6.33949e-07
-3.30328e-06
1.05931e-06
-3.10348e-06
1.25165e-06
-2.91913e-06
1.23028e-06
-2.7588e-06
1.02758e-06
6.50684e-07
-2.61174e-06
-1.96678e-07
2.54504e-06
-3.65374e-07
2.45643e-06
-4.97079e-07
2.31164e-06
-6.1981e-07
2.11527e-06
-7.58766e-07
1.85459e-06
-9.204e-07
1.54454e-06
-1.08823e-06
1.1958e-06
-1.2706e-06
8.6701e-07
-1.50064e-06
6.1564e-07
-1.76401e-06
4.57094e-07
-2.01672e-06
3.23792e-07
-2.28586e-06
1.89715e-07
-2.58323e-06
6.82409e-08
-2.87874e-06
-1.12325e-08
-3.13938e-06
-5.09347e-08
-3.30863e-06
-7.88741e-09
-3.33594e-06
1.87995e-07
-3.22276e-06
5.20742e-07
-3.05751e-06
8.94033e-07
-2.85118e-06
1.04528e-06
-2.63673e-06
1.01579e-06
-2.43279e-06
8.236e-07
4.76614e-07
-2.25877e-06
-1.27193e-07
2.67228e-06
-2.56493e-07
2.58583e-06
-3.73459e-07
2.42868e-06
-4.88377e-07
2.23027e-06
-6.16272e-07
1.98257e-06
-7.63696e-07
1.69205e-06
-9.22489e-07
1.35467e-06
-1.11276e-06
1.05736e-06
-1.34151e-06
8.44459e-07
-1.58049e-06
6.96144e-07
-1.81278e-06
5.56131e-07
-2.04748e-06
4.24459e-07
-2.28763e-06
3.08417e-07
-2.51956e-06
2.2071e-07
-2.73813e-06
1.67625e-07
-2.91078e-06
1.64746e-07
-2.984e-06
2.61187e-07
-2.94409e-06
4.80791e-07
-2.79396e-06
7.43849e-07
-2.59803e-06
8.49298e-07
-2.38984e-06
8.07537e-07
-2.19566e-06
6.29353e-07
3.27496e-07
-2.04662e-06
-7.63076e-08
2.74865e-06
-1.71339e-07
2.68095e-06
-2.70054e-07
2.52747e-06
-3.72117e-07
2.3324e-06
-4.86485e-07
2.097e-06
-6.19673e-07
1.8253e-06
-7.83408e-07
1.51848e-06
-9.76143e-07
1.25017e-06
-1.19141e-06
1.05979e-06
-1.39994e-06
9.04745e-07
-1.60388e-06
7.60116e-07
-1.80506e-06
6.25687e-07
-2.00337e-06
5.06753e-07
-2.19325e-06
4.10598e-07
-2.36787e-06
3.42247e-07
-2.51944e-06
3.1629e-07
-2.61829e-06
3.60007e-07
-2.62148e-06
4.83939e-07
-2.50691e-06
6.29217e-07
-2.3431e-06
6.85423e-07
-2.16582e-06
6.30191e-07
-2.00494e-06
4.68408e-07
2.13861e-07
-1.89139e-06
-4.10763e-08
2.78979e-06
-1.08491e-07
2.74844e-06
-1.90044e-07
2.60908e-06
-2.80621e-07
2.42303e-06
-3.84148e-07
2.20058e-06
-5.07546e-07
1.94875e-06
-6.68197e-07
1.67918e-06
-8.55498e-07
1.43752e-06
-1.04547e-06
1.24982e-06
-1.22763e-06
1.08696e-06
-1.40458e-06
9.37113e-07
-1.57731e-06
7.98468e-07
-1.74495e-06
6.7442e-07
-1.90413e-06
5.698e-07
-2.05161e-06
4.89739e-07
-2.17941e-06
4.44079e-07
-2.2662e-06
4.46782e-07
-2.27958e-06
4.97287e-07
-2.20758e-06
5.5717e-07
-2.08615e-06
5.6395e-07
-1.95003e-06
4.94022e-07
-1.82787e-06
3.46195e-07
1.32141e-07
-1.7462e-06
-1.78199e-08
2.80766e-06
-6.51586e-08
2.79581e-06
-1.35305e-07
2.67926e-06
-2.17187e-07
2.50494e-06
-3.12907e-07
2.29632e-06
-4.2905e-07
2.06492e-06
-5.75248e-07
1.82541e-06
-7.41665e-07
1.60398e-06
-9.06321e-07
1.41451e-06
-1.0656e-06
1.24627e-06
-1.21941e-06
1.09096e-06
-1.36835e-06
9.47449e-07
-1.51154e-06
8.17641e-07
-1.64662e-06
7.04909e-07
-1.77028e-06
6.1341e-07
-1.87522e-06
5.49029e-07
-1.94581e-06
5.17369e-07
-1.96237e-06
5.13842e-07
-1.91886e-06
5.13641e-07
-1.83561e-06
4.80677e-07
-1.73829e-06
3.96675e-07
-1.65083e-06
2.58708e-07
7.55303e-08
-1.59424e-06
-4.04144e-09
2.81172e-06
-4.26118e-08
2.83439e-06
-1.03891e-07
2.74054e-06
-1.77464e-07
2.57852e-06
-2.64911e-07
2.38378e-06
-3.70591e-07
2.17061e-06
-4.97317e-07
1.95215e-06
-6.37692e-07
1.74437e-06
-7.79296e-07
1.55614e-06
-9.16961e-07
1.38396e-06
-1.05002e-06
1.22405e-06
-1.17817e-06
1.07562e-06
-1.30039e-06
9.39888e-07
-1.41459e-06
8.19142e-07
-1.51737e-06
7.16211e-07
-1.60248e-06
6.34156e-07
-1.65942e-06
5.74313e-07
-1.67684e-06
5.31267e-07
-1.65214e-06
4.88946e-07
-1.59765e-06
4.26177e-07
-1.53121e-06
3.30234e-07
-1.47097e-06
1.98465e-07
3.72117e-08
-1.43264e-06
-1.8126e-09
2.81353e-06
-3.8842e-08
2.8714e-06
-9.01014e-08
2.79179e-06
-1.53781e-07
2.64219e-06
-2.30606e-07
2.4606e-06
-3.22421e-07
2.26243e-06
-4.29311e-07
2.05904e-06
-5.46177e-07
1.86124e-06
-6.65353e-07
1.67532e-06
-7.82611e-07
1.50123e-06
-8.96354e-07
1.33781e-06
-1.00562e-06
1.18491e-06
-1.10913e-06
1.04342e-06
-1.20485e-06
9.14883e-07
-1.28962e-06
8.00994e-07
-1.35848e-06
7.03036e-07
-1.40461e-06
6.20453e-07
-1.42172e-06
5.48381e-07
-1.40913e-06
4.76371e-07
-1.37468e-06
3.91737e-07
-1.33061e-06
2.8617e-07
-1.28997e-06
1.5784e-07
1.13265e-08
-1.26407e-06
-7.58942e-09
2.82111e-06
-4.24135e-08
2.9062e-06
-8.47839e-08
2.83414e-06
-1.38267e-07
2.69566e-06
-2.03313e-07
2.52563e-06
-2.8038e-07
2.33948e-06
-3.68642e-07
2.1473e-06
-4.64564e-07
1.95716e-06
-5.63292e-07
1.77405e-06
-6.61495e-07
1.59944e-06
-7.57261e-07
1.43358e-06
-8.4922e-07
1.27687e-06
-9.35888e-07
1.1301e-06
-1.01528e-06
9.94287e-07
-1.08465e-06
8.70375e-07
-1.14028e-06
7.58673e-07
-1.17779e-06
6.57974e-07
-1.19379e-06
5.64396e-07
-1.18855e-06
4.71133e-07
-1.16727e-06
3.70473e-07
-1.13831e-06
2.5722e-07
-1.1108e-06
1.30346e-07
-6.80928e-09
-1.09265e-06
-1.52002e-08
2.83629e-06
-4.50146e-08
2.93599e-06
-8.09292e-08
2.87004e-06
-1.25398e-07
2.74011e-06
-1.78968e-07
2.57919e-06
-2.4184e-07
2.40234e-06
-3.132e-07
2.21864e-06
-3.90681e-07
2.03463e-06
-4.71125e-07
1.85449e-06
-5.51934e-07
1.68024e-06
-6.31224e-07
1.51287e-06
-7.07448e-07
1.35309e-06
-7.79035e-07
1.20168e-06
-8.44115e-07
1.05937e-06
-9.00386e-07
9.26649e-07
-9.45108e-07
8.034e-07
-9.75496e-07
6.88366e-07
-9.89756e-07
5.78661e-07
-9.88488e-07
4.69871e-07
-9.75299e-07
3.57291e-07
-9.55865e-07
2.37796e-07
-9.36468e-07
1.10961e-07
-2.07106e-08
-9.22552e-07
-2.5928e-08
2.86221e-06
-4.64039e-08
2.95644e-06
-7.68891e-08
2.9005e-06
-1.13018e-07
2.77622e-06
-1.55646e-07
2.6218e-06
-2.05265e-07
2.45194e-06
-2.61465e-07
2.27483e-06
-3.22758e-07
2.09591e-06
-3.87035e-07
1.91875e-06
-4.52275e-07
1.74547e-06
-5.16746e-07
1.57733e-06
-5.78888e-07
1.41523e-06
-6.37139e-07
1.25993e-06
-6.89788e-07
1.11202e-06
-7.34928e-07
9.71788e-07
-7.70542e-07
8.39013e-07
-7.94825e-07
7.1265e-07
-8.06835e-07
5.90673e-07
-8.07226e-07
4.70265e-07
-7.9852e-07
3.48589e-07
-7.84578e-07
2.2386e-07
-7.69666e-07
9.60569e-08
-3.29152e-08
-7.5745e-07
-3.25978e-08
2.89479e-06
-4.93025e-08
2.97312e-06
-7.34624e-08
2.92465e-06
-1.00751e-07
2.80349e-06
-1.32527e-07
2.65356e-06
-1.69708e-07
2.48911e-06
-2.12298e-07
2.31741e-06
-2.59395e-07
2.143e-06
-3.09526e-07
1.96888e-06
-3.61079e-07
1.79702e-06
-4.12493e-07
1.62874e-06
-4.62271e-07
1.465e-06
-5.08917e-07
1.30657e-06
-5.50888e-07
1.15398e-06
-5.86601e-07
1.0075e-06
-6.14534e-07
8.66942e-07
-6.33475e-07
7.31588e-07
-6.42912e-07
6.00108e-07
-6.43417e-07
4.70768e-07
-6.3675e-07
3.41923e-07
-6.25526e-07
2.12639e-07
-6.1261e-07
8.31452e-08
-4.50875e-08
-6.0043e-07
-3.22788e-08
2.92706e-06
-5.31284e-08
2.99396e-06
-7.01617e-08
2.94167e-06
-8.77851e-08
2.82111e-06
-1.08685e-07
2.67445e-06
-1.34224e-07
2.51464e-06
-1.64664e-07
2.34784e-06
-1.99418e-07
2.17774e-06
-2.3736e-07
2.00681e-06
-2.77131e-07
1.83678e-06
-3.17308e-07
1.66891e-06
-3.56474e-07
1.50416e-06
-3.93223e-07
1.34331e-06
-4.26163e-07
1.18692e-06
-4.53957e-07
1.03528e-06
-4.75414e-07
8.88394e-07
-4.89669e-07
7.45839e-07
-4.96411e-07
6.06846e-07
-4.96078e-07
4.70433e-07
-4.89883e-07
3.35727e-07
-4.79584e-07
2.0234e-07
-4.67078e-07
7.06428e-08
-5.82147e-08
-4.53946e-07
-3.27703e-08
2.95982e-06
-5.5794e-08
3.01697e-06
-6.46173e-08
2.95048e-06
-7.21954e-08
2.82867e-06
-8.265e-08
2.6849e-06
-9.76378e-08
2.52962e-06
-1.17504e-07
2.3677e-06
-1.41778e-07
2.20201e-06
-1.69488e-07
2.03452e-06
-1.99404e-07
1.86669e-06
-2.30195e-07
1.69969e-06
-2.60515e-07
1.53448e-06
-2.89042e-07
1.37183e-06
-3.14512e-07
1.21238e-06
-3.35765e-07
1.05653e-06
-3.5183e-07
9.04454e-07
-3.62038e-07
7.56042e-07
-3.66159e-07
6.10963e-07
-3.64495e-07
4.68765e-07
-3.57862e-07
3.29092e-07
-3.47429e-07
1.91906e-07
-3.34435e-07
5.76508e-08
-7.27624e-08
-3.19884e-07
-3.65214e-08
2.99633e-06
-5.37914e-08
3.03424e-06
-5.33998e-08
2.95008e-06
-5.15298e-08
2.8268e-06
-5.2737e-08
2.6861e-06
-5.87223e-08
2.5356e-06
-6.98185e-08
2.37879e-06
-8.55667e-08
2.21775e-06
-1.05037e-07
2.05398e-06
-1.27048e-07
1.8887e-06
-1.50317e-07
1.72296e-06
-1.73549e-07
1.5577e-06
-1.95491e-07
1.39377e-06
-2.14979e-07
1.23186e-06
-2.30986e-07
1.07253e-06
-2.42681e-07
9.16144e-07
-2.49508e-07
7.62865e-07
-2.51261e-07
6.12712e-07
-2.48122e-07
4.65623e-07
-2.40628e-07
3.21596e-07
-2.29543e-07
1.80821e-07
-2.15666e-07
4.37742e-08
-8.88092e-08
-1.99616e-07
-3.59133e-08
3.03224e-06
-4.16963e-08
3.04001e-06
-3.34253e-08
2.94181e-06
-2.3899e-08
2.81726e-06
-1.76785e-08
2.67987e-06
-1.65436e-08
2.53446e-06
-2.08428e-08
2.38309e-06
-3.00937e-08
2.227e-06
-4.33421e-08
2.06723e-06
-5.94012e-08
1.90475e-06
-7.69983e-08
1.74055e-06
-9.48674e-08
1.57557e-06
-1.11813e-07
1.41071e-06
-1.26748e-07
1.2468e-06
-1.38741e-07
1.08452e-06
-1.47058e-07
9.24456e-07
-1.51209e-07
7.67012e-07
-1.50992e-07
6.12491e-07
-1.46499e-07
4.61127e-07
-1.3807e-07
3.13166e-07
-1.26203e-07
1.68953e-07
-1.11406e-07
2.8978e-08
-1.06159e-07
-9.40548e-08
-2.29427e-08
3.05518e-06
-1.9378e-08
3.03644e-06
-4.89112e-09
2.92731e-06
1.07637e-08
2.8016e-06
2.28032e-08
2.66783e-06
2.92606e-08
2.528e-06
2.98075e-08
2.38254e-06
2.50377e-08
2.23177e-06
1.60106e-08
2.07625e-06
3.98769e-09
1.91677e-06
-9.73424e-09
1.75427e-06
-2.3909e-08
1.58974e-06
-3.73799e-08
1.42418e-06
-4.91234e-08
1.25854e-06
-5.82792e-08
1.09368e-06
-6.41866e-08
9.3036e-07
-6.64012e-08
7.69223e-07
-6.47217e-08
6.10809e-07
-5.91781e-08
4.5558e-07
-4.99885e-08
3.03974e-07
-3.74783e-08
1.56441e-07
-2.19743e-08
1.34743e-08
-1.2443e-07
-3.70134e-09
-5.77962e-09
3.06096e-06
8.31689e-09
3.02233e-06
2.94877e-08
2.90614e-06
5.12317e-08
2.77986e-06
6.82822e-08
2.65077e-06
7.86088e-08
2.51767e-06
8.21872e-08
2.37896e-06
7.99539e-08
2.234e-06
7.32215e-08
2.08298e-06
6.33887e-08
1.9266e-06
5.18128e-08
1.76584e-06
3.97493e-08
1.6018e-06
2.83177e-08
1.43561e-06
1.84851e-08
1.26837e-06
1.10458e-08
1.10111e-06
6.61416e-09
9.34789e-07
5.58434e-09
7.7025e-07
8.15059e-09
6.08239e-07
1.4315e-08
4.49413e-07
2.39304e-08
2.94356e-07
3.67688e-08
1.43601e-07
5.26093e-08
-2.36634e-09
-1.43131e-07
7.13105e-08
1.03948e-08
3.05056e-06
3.59141e-08
2.9968e-06
6.73636e-08
2.87468e-06
9.65079e-08
2.75071e-06
1.18314e-07
2.62896e-06
1.31237e-07
2.50474e-06
1.36088e-07
2.3741e-06
1.34496e-07
2.23559e-06
1.28202e-07
2.08927e-06
1.18826e-07
1.93598e-06
1.07806e-07
1.77686e-06
9.64005e-08
1.6132e-06
8.56928e-08
1.44631e-06
7.65948e-08
1.27746e-06
6.98439e-08
1.10786e-06
6.59891e-08
9.38641e-07
6.53957e-08
7.70841e-07
6.82381e-08
6.05394e-07
7.45235e-08
4.43125e-07
8.41324e-08
2.84745e-07
9.68812e-08
1.30851e-07
1.12595e-07
-1.80804e-08
-1.61711e-07
1.31176e-07
2.72963e-08
3.02326e-06
6.54531e-08
2.95864e-06
1.0864e-07
2.83149e-06
1.46617e-07
2.71273e-06
1.72922e-07
2.60265e-06
1.86935e-07
2.49073e-06
1.91138e-07
2.36989e-06
1.88277e-07
2.23844e-06
1.80664e-07
2.09688e-06
1.70159e-07
1.94648e-06
1.58268e-07
1.78875e-06
1.46231e-07
1.62524e-06
1.3508e-07
1.45746e-06
1.25663e-07
1.28688e-06
1.18655e-07
1.11487e-06
1.14555e-07
9.42738e-07
1.13686e-07
7.71707e-07
1.16195e-07
6.02882e-07
1.22075e-07
4.37242e-07
1.31201e-07
2.75615e-07
1.43393e-07
1.18657e-07
1.58482e-07
-3.31701e-08
-1.79607e-07
1.76378e-07
4.33209e-08
2.97993e-06
9.70124e-08
2.90494e-06
1.54491e-07
2.774e-06
2.02572e-07
2.66464e-06
2.32381e-07
2.57284e-06
2.4528e-07
2.47782e-06
2.46611e-07
2.36856e-06
2.40578e-07
2.24447e-06
2.30055e-07
2.1074e-06
2.17064e-07
1.95947e-06
2.03106e-07
1.8027e-06
1.89362e-07
1.63898e-06
1.76783e-07
1.47004e-06
1.66144e-07
1.29751e-06
1.58054e-07
1.12295e-06
1.52964e-07
9.47826e-07
1.51155e-07
7.73514e-07
1.52744e-07
6.0129e-07
1.57698e-07
4.32286e-07
1.65863e-07
2.67448e-07
1.77025e-07
1.07492e-07
1.9099e-07
-4.71364e-08
-1.96271e-07
2.07653e-07
6.34491e-08
2.91648e-06
1.3514e-07
2.83325e-06
2.07647e-07
2.70149e-06
2.66588e-07
2.60569e-06
2.96318e-07
2.54311e-06
3.0502e-07
2.46912e-06
3.01122e-07
2.37246e-06
2.90253e-07
2.25534e-06
2.75576e-07
2.12207e-06
2.59083e-07
1.97596e-06
2.4217e-07
1.81961e-06
2.25899e-07
1.65525e-06
2.11121e-07
1.48481e-06
1.98524e-07
1.31011e-06
1.88657e-07
1.13282e-06
1.81922e-07
9.54558e-07
1.78572e-07
7.76862e-07
1.78696e-07
6.01162e-07
1.8223e-07
4.28749e-07
1.88976e-07
2.607e-07
1.98661e-07
9.7804e-08
2.11033e-07
-5.95094e-08
-2.11191e-07
2.25953e-07
1.03255e-07
2.81322e-06
1.95906e-07
2.74059e-06
2.79771e-07
2.61763e-06
3.34889e-07
2.55057e-06
3.62324e-07
2.51567e-06
3.63204e-07
2.46823e-06
3.52432e-07
2.38322e-06
3.35808e-07
2.27196e-06
3.16314e-07
2.14156e-06
2.95751e-07
1.99652e-06
2.75344e-07
1.84002e-06
2.56009e-07
1.67458e-06
2.38483e-07
1.50234e-06
2.23371e-07
1.32522e-06
2.11162e-07
1.14502e-06
2.02226e-07
9.63491e-07
1.96798e-07
7.82287e-07
1.94958e-07
6.03e-07
1.96616e-07
4.27089e-07
2.01525e-07
2.55788e-07
2.09333e-07
8.99939e-08
2.19691e-07
-6.98686e-08
-2.23911e-07
2.32409e-07
1.79735e-07
2.63348e-06
2.96446e-07
2.62388e-06
3.74541e-07
2.53953e-06
4.11074e-07
2.51404e-06
4.25254e-07
2.50148e-06
4.16525e-07
2.47696e-06
3.98536e-07
2.40121e-06
3.76039e-07
2.29445e-06
3.51607e-07
2.16599e-06
3.26804e-07
2.02132e-06
3.02675e-07
1.86414e-06
2.79995e-07
1.69726e-06
2.59386e-07
1.52294e-06
2.4137e-07
1.34323e-06
2.26387e-07
1.16001e-06
2.14786e-07
9.7509e-07
2.06807e-07
7.90264e-07
2.02542e-07
6.07263e-07
2.01904e-07
4.27724e-07
2.04608e-07
2.53082e-07
2.10196e-07
8.44032e-08
2.18182e-07
-7.78552e-08
-2.34028e-07
2.28299e-07
2.91162e-07
2.34232e-06
4.34532e-07
2.4805e-06
4.86996e-07
2.48706e-06
4.99267e-07
2.50177e-06
4.85743e-07
2.51501e-06
4.65532e-07
2.49717e-06
4.39574e-07
2.42717e-06
4.10896e-07
2.32313e-06
3.8142e-07
2.19547e-06
3.52338e-07
2.0504e-06
3.24446e-07
1.89203e-06
2.98337e-07
1.72336e-06
2.74496e-07
1.54678e-06
2.53352e-07
1.36437e-06
2.35292e-07
1.17806e-06
2.20655e-07
9.89726e-07
2.09704e-07
8.01213e-07
2.02584e-07
6.14382e-07
1.99251e-07
4.31055e-07
1.99414e-07
2.52917e-07
2.02508e-07
8.1308e-08
2.07831e-07
-8.31798e-08
-2.41207e-07
2.15009e-07
4.21555e-07
1.92076e-06
5.89002e-07
2.31305e-06
6.13544e-07
2.46251e-06
5.89082e-07
2.52622e-06
5.49302e-07
2.55479e-06
5.13115e-07
2.53335e-06
4.76809e-07
2.46347e-06
4.40906e-07
2.35903e-06
4.06041e-07
2.23033e-06
3.72659e-07
2.08378e-06
3.411e-07
1.92359e-06
3.11656e-07
1.75281e-06
2.84618e-07
1.57382e-06
2.6029e-07
1.3887e-06
2.3899e-07
1.19936e-06
2.21046e-07
1.00767e-06
2.06759e-07
8.15499e-07
1.9636e-07
6.24779e-07
1.89921e-07
4.37493e-07
1.87218e-07
2.55618e-07
1.87598e-07
8.09271e-08
1.90038e-07
-8.56204e-08
-2.45165e-07
1.93995e-07
5.60707e-07
1.36005e-06
7.42126e-07
2.13163e-06
7.38264e-07
2.46637e-06
6.76559e-07
2.58793e-06
6.12729e-07
2.61861e-06
5.57671e-07
2.58841e-06
5.09292e-07
2.51185e-06
4.6557e-07
2.40275e-06
4.25341e-07
2.27056e-06
3.87954e-07