/*--------------------------------*- C++ -*----------------------------------*\
  =========                 |
  \\      /  F ield         | OpenFOAM: The Open Source CFD Toolbox
   \\    /   O peration     | Website:  https://openfoam.org
    \\  /    A nd           | Version:  9
     \\/     M anipulation  |
\*---------------------------------------------------------------------------*/
FoamFile
{
    format      ascii;
    class       surfaceScalarField;
    location    "1.2";
    object      phi;
}
// * * * * * * * * * * * * * * * * * * * * * * * * * * * * * * * * * * * * * //

dimensions      [0 3 -1 0 0 0 0];

internalField   nonuniform List<scalar> 
760
(
1.24403e-08
-1.24065e-08
-2.86877e-08
4.11282e-08
-1.22257e-07
9.35684e-08
-2.50154e-07
1.27897e-07
-3.95417e-07
1.45262e-07
-5.44282e-07
1.48865e-07
-6.8479e-07
1.40508e-07
-8.05186e-07
1.20395e-07
-8.93215e-07
8.80296e-08
-9.36829e-07
4.36138e-08
-9.26075e-07
-1.07547e-08
-8.56217e-07
-6.98578e-08
-7.30434e-07
-1.25783e-07
-5.61947e-07
-1.68487e-07
-3.73756e-07
-1.88192e-07
-1.9546e-07
-1.78295e-07
-5.70589e-08
-1.38402e-07
1.93848e-08
-7.64437e-08
2.95741e-08
-1.0189e-08
2.95745e-08
-4.29517e-08
3.05463e-08
-2.03466e-07
2.01642e-07
-4.66257e-07
3.56358e-07
-7.97818e-07
4.59459e-07
-1.16376e-06
5.11208e-07
-1.53237e-06
5.17471e-07
-1.87397e-06
4.82109e-07
-2.15965e-06
4.06072e-07
-2.36117e-06
2.89551e-07
-2.45304e-06
1.35485e-07
-2.41673e-06
-4.70665e-08
-2.24511e-06
-2.41479e-07
-1.94826e-06
-4.22631e-07
-1.5557e-06
-5.61047e-07
-1.11555e-06
-6.28338e-07
-6.88269e-07
-6.05579e-07
-3.34753e-07
-4.91917e-07
-1.0083e-07
-3.10367e-07
-1.43467e-09
-1.09584e-07
2.814e-08
-1.10001e-07
1.40546e-07
-4.01511e-07
4.93151e-07
-8.28047e-07
7.82893e-07
-1.34043e-06
9.71842e-07
-1.89177e-06
1.06255e-06
-2.43852e-06
1.06422e-06
-2.93933e-06
9.82921e-07
-3.35398e-06
8.20722e-07
-3.64403e-06
5.79598e-07
-3.77574e-06
2.67189e-07
-3.72493e-06
-9.78723e-08
-3.4829e-06
-4.8351e-07
-3.06221e-06
-8.43323e-07
-2.50033e-06
-1.12292e-06
-1.85935e-06
-1.26932e-06
-1.2194e-06
-1.24553e-06
-6.64713e-07
-1.0466e-06
-2.63741e-07
-7.11339e-07
-4.84046e-08
-3.2492e-07
-2.02648e-08
-1.72929e-07
3.13475e-07
-5.90907e-07
9.1113e-07
-1.17274e-06
1.36472e-06
-1.85072e-06
1.64983e-06
-2.56687e-06
1.7787e-06
-3.26949e-06
1.76684e-06
-3.91003e-06
1.62346e-06
-4.44138e-06
1.35207e-06
-4.81845e-06
9.56672e-07
-5.00117e-06
4.4991e-07
-4.95943e-06
-1.39615e-07
-4.67926e-06
-7.63685e-07
-4.16972e-06
-1.35286e-06
-3.46858e-06
-1.82406e-06
-2.64481e-06
-2.09309e-06
-1.79452e-06
-2.09582e-06
-1.02702e-06
-1.8141e-06
-4.41032e-07
-1.29732e-06
-9.7409e-08
-6.68544e-07
-1.17674e-07
-2.28713e-07
5.42187e-07
-7.61669e-07
1.44409e-06
-1.48494e-06
2.088e-06
-2.31276e-06
2.47764e-06
-3.17752e-06
2.64346e-06
-4.02216e-06
2.61149e-06
-4.79436e-06
2.39566e-06
-5.4434e-06
2.00111e-06
-5.91984e-06
1.43311e-06
-6.17767e-06
7.07741e-07
-6.17886e-06
-1.38425e-07
-5.89917e-06
-1.04338e-06
-5.33705e-06
-1.91498e-06
-4.52229e-06
-2.63883e-06
-3.52385e-06
-3.09153e-06
-2.45135e-06
-3.16832e-06
-1.44386e-06
-2.82159e-06
-6.4209e-07
-2.0991e-06
-1.49609e-07
-1.16103e-06
-2.67284e-07
-2.7585e-07
8.18038e-07
-9.07454e-07
2.07569e-06
-1.75317e-06
2.93372e-06
-2.71172e-06
3.43618e-06
-3.70812e-06
3.63986e-06
-4.68252e-06
3.58588e-06
-5.58176e-06
3.2949e-06
-6.35432e-06
2.77368e-06
-6.94829e-06
2.02707e-06
-7.31194e-06
1.07139e-06
-7.39736e-06
-5.30088e-08
-7.16514e-06
-1.2756e-06
-6.59572e-06
-2.4844e-06
-5.70139e-06
-3.53316e-06
-4.5417e-06
-4.25122e-06
-3.23428e-06
-4.47574e-06
-1.95105e-06
-4.10482e-06
-8.88568e-07
-3.16158e-06
-2.12704e-07
-1.83689e-06
-4.79989e-07
-3.12542e-07
1.13058e-06
-1.02207e-06
2.78522e-06
-1.96576e-06
3.87741e-06
-3.03051e-06
4.50093e-06
-4.13656e-06
4.74591e-06
-5.22382e-06
4.67315e-06
-6.24114e-06
4.31222e-06
-7.13896e-06
3.6715e-06
-7.86528e-06
2.75339e-06
-8.36412e-06
1.57024e-06
-8.57628e-06
1.5915e-07
-8.44568e-06
-1.40619e-06
-7.9274e-06
-3.00269e-06
-7.00598e-06
-4.45457e-06
-5.7183e-06
-5.53891e-06
-4.1777e-06
-6.01633e-06
-2.58535e-06
-5.69718e-06
-1.2064e-06
-4.54052e-06
-2.9629e-07
-2.747e-06
-7.76279e-07
-3.36792e-07
1.46737e-06
-1.09929e-06
3.54772e-06
-2.11064e-06
4.88875e-06
-3.24978e-06
5.64007e-06
-4.43473e-06
5.93086e-06
-5.60761e-06
5.84603e-06
-6.72197e-06
5.42658e-06
-7.73344e-06
4.68296e-06
-8.59326e-06
3.61321e-06
-9.24433e-06
2.22131e-06
-9.61956e-06
5.34378e-07
-9.64516e-06
-1.3806e-06
-9.24843e-06
-3.39942e-06
-8.37664e-06
-5.32635e-06
-7.02728e-06
-6.88827e-06
-5.28816e-06
-7.75546e-06
-3.37335e-06
-7.61198e-06
-1.62135e-06
-6.29253e-06
-4.11082e-07
-3.95727e-06
-1.18736e-06
-3.47074e-07
1.81445e-06
-1.13432e-06
4.33496e-06
-2.17752e-06
5.93195e-06
-3.35094e-06
6.8135e-06
-4.57258e-06
7.1525e-06
-5.78889e-06
7.06233e-06
-6.96084e-06
6.59853e-06
-8.05275e-06
5.77487e-06
-9.02371e-06
4.58417e-06
-9.82111e-06
3.01871e-06
-1.0376e-05
1.0893e-06
-1.06024e-05
-1.15427e-06
-1.04017e-05
-3.60006e-06
-9.67892e-06
-6.04915e-06
-8.3754e-06
-8.19179e-06
-6.524e-06
-9.60685e-06
-4.31792e-06
-9.81806e-06
-2.15445e-06
-8.45601e-06
-5.68959e-07
-5.54275e-06
-1.75632e-06
-3.43476e-07
2.15792e-06
-1.12649e-06
5.11797e-06
-2.16206e-06
6.96752e-06
-3.32186e-06
7.9733e-06
-4.52554e-06
8.35618e-06
-5.72588e-06
8.26267e-06
-6.89388e-06
7.76654e-06
-8.00629e-06
6.88728e-06
-9.03542e-06
5.6133e-06
-9.94056e-06
3.92384e-06
-1.06604e-05
1.80913e-06
-1.11065e-05
-7.08181e-07
-1.11652e-05
-3.54134e-06
-1.07012e-05
-6.51316e-06
-9.58914e-06
-9.30384e-06
-7.77542e-06
-1.14206e-05
-5.38083e-06
-1.22126e-05
-2.8151e-06
-1.10217e-05
-7.83234e-07
-7.57462e-06
-2.53955e-06
-3.29277e-07
2.4872e-06
-1.083e-06
5.8717e-06
-2.07152e-06
7.95603e-06
-3.16424e-06
9.06602e-06
-4.2842e-06
9.47614e-06
-5.39281e-06
9.37129e-06
-6.47389e-06
8.84761e-06
-7.5202e-06
7.93359e-06
-8.5225e-06
6.6156e-06
-9.45976e-06
4.86111e-06
-1.029e-05
2.63932e-06
-1.09345e-05
-6.36485e-08
-1.12843e-05
-3.19153e-06
-1.11754e-05
-6.62203e-06
-1.0419e-05
-1.00602e-05
-8.85221e-06
-1.29874e-05
-6.4632e-06
-1.46017e-05
-3.58914e-06
-1.38958e-05
-1.06821e-06
-1.00955e-05
-3.60776e-06
-3.13038e-07
2.80024e-06
-1.0235e-06
6.58216e-06
-1.93086e-06
8.86339e-06
-2.90108e-06
1.00362e-05
-3.8636e-06
1.04387e-05
-4.79236e-06
1.03e-05
-5.68732e-06
9.74257e-06
-6.5605e-06
8.80678e-06
-7.42514e-06
7.48024e-06
-8.28592e-06
5.7219e-06
-9.12796e-06
3.48136e-06
-9.90818e-06
7.16573e-07
-1.05257e-05
-2.574e-06
-1.0824e-05
-6.32377e-06
-1.057e-05
-1.03142e-05
-9.49054e-06
-1.40669e-05
-7.39104e-06
-1.67011e-05
-4.42125e-06
-1.68656e-05
-1.43637e-06
-1.30804e-05
-5.04413e-06
-3.1183e-07
3.11207e-06
-9.855e-07
7.25583e-06
-1.78839e-06
9.66628e-06
-2.58164e-06
1.08295e-05
-3.30824e-06
1.11653e-05
-3.96184e-06
1.09536e-05
-4.56344e-06
1.03442e-05
-5.14716e-06
9.3905e-06
-5.75064e-06
8.08371e-06
-6.40699e-06
6.37824e-06
-7.13564e-06
4.21001e-06
-7.93036e-06
1.51129e-06
-8.73486e-06
-1.76949e-06
-9.4216e-06
-5.63703e-06
-9.75555e-06
-9.98023e-06
-9.3848e-06
-1.44376e-05
-7.91577e-06
-1.81702e-05
-5.19499e-06
-1.95864e-05
-1.89e-06
-1.63854e-05
-6.93413e-06
-3.56974e-07
3.46904e-06
-1.03132e-06
7.93018e-06
-1.71881e-06
1.03538e-05
-2.27968e-06
1.13904e-05
-2.68633e-06
1.15719e-05
-2.96477e-06
1.12321e-05
-3.16406e-06
1.05435e-05
-3.34281e-06
9.56925e-06
-3.56258e-06
8.30348e-06
-3.88321e-06
6.69887e-06
-4.3572e-06
4.68401e-06
-5.02015e-06
2.17424e-06
-5.87164e-06
-9.17999e-07
-6.84483e-06
-4.66384e-06
-7.75444e-06
-9.07063e-06
-8.23555e-06
-1.39565e-05
-7.73323e-06
-1.86725e-05
-5.71629e-06
-2.16033e-05
-2.40261e-06
-1.96991e-05
-9.33674e-06
-5.0447e-07
3.97351e-06
-1.25501e-06
8.68071e-06
-1.81688e-06
1.09157e-05
-2.07366e-06
1.16471e-05
-2.05927e-06
1.15575e-05
-1.85167e-06
1.10245e-05
-1.53671e-06
1.02285e-05
-1.1993e-06
9.23184e-06
-9.22174e-07
8.02635e-06
-7.86557e-07
6.56325e-06
-8.71443e-07
4.76889e-06
-1.2499e-06
2.55271e-06
-1.97823e-06
-1.8968e-07
-3.06865e-06
-3.57342e-06
-4.43445e-06
-7.70482e-06
-5.78616e-06
-1.26048e-05
-6.50813e-06
-1.79505e-05
-5.70133e-06
-2.24101e-05
-2.88579e-06
-2.25146e-05
-1.22225e-05
-8.49493e-07
4.823e-06
-1.77451e-06
9.60573e-06
-2.15068e-06
1.12918e-05
-1.96835e-06
1.14648e-05
-1.38123e-06
1.09704e-05
-5.44463e-07
1.01877e-05
4.11542e-07
9.27249e-06
1.37685e-06
8.26653e-06
2.25282e-06
7.15038e-06
2.94488e-06
5.8712e-06
3.35691e-06
4.35685e-06
3.3889e-06
2.52072e-06
2.93814e-06
2.61077e-07
1.91652e-06
-2.5518e-06
2.87482e-07
-6.07578e-06
-1.8183e-06
-1.0499e-05
-3.88234e-06
-1.58865e-05
-4.76201e-06
-2.15304e-05
-3.14637e-06
-2.41303e-05
-1.53689e-05
-1.52525e-06
6.34825e-06
-2.62765e-06
1.07081e-05
-2.55349e-06
1.12177e-05
-1.62355e-06
1.05349e-05
-1.99496e-07
9.54638e-06
1.46856e-06
8.51965e-06
3.2107e-06
7.53035e-06
4.90329e-06
6.57394e-06
6.44543e-06
5.60824e-06
7.74239e-06
4.57424e-06
8.69439e-06
3.40485e-06
9.1892e-06
2.02591e-06
9.09485e-06
3.55429e-07
8.26867e-06
-1.72561e-06
6.56204e-06
-4.36916e-06
3.9078e-06
-7.8448e-06
5.74931e-07
-1.25536e-05
-2.372e-06
-1.85835e-05
-2.85429e-06
-2.3648e-05
-1.82232e-05
-2.58722e-06
8.93547e-06
-3.22413e-06
1.13451e-05
-1.86077e-06
9.8543e-06
4.40986e-07
8.23309e-06
3.07728e-06
6.91009e-06
5.76466e-06
5.83226e-06
8.35362e-06
4.94139e-06
1.07507e-05
4.1769e-06
1.28839e-05
3.47499e-06
1.46822e-05
2.77595e-06
1.60618e-05
2.02527e-06
1.69171e-05
1.17065e-06
1.71103e-05
1.62213e-07
1.64775e-05
-1.09284e-06
1.4794e-05
-2.68569e-06
1.18105e-05
-4.86132e-06
7.40576e-06
-8.14885e-06
2.26026e-06
-1.3438e-05
-1.1972e-06
-2.01905e-05
-1.94204e-05
-2.63314e-06
1.15686e-05
-7.25521e-08
8.78447e-06
4.22624e-06
5.5555e-06
8.43235e-06
4.02698e-06
1.22552e-05
3.08719e-06
1.56747e-05
2.41279e-06
1.8698e-05
1.91811e-06
2.1335e-05
1.53995e-06
2.35856e-05
1.22439e-06
2.54297e-05
9.31841e-07
2.68216e-05
6.33376e-07
2.7684e-05
3.0817e-07
2.79058e-05
-5.95401e-08
2.73458e-05
-5.32847e-07
2.57612e-05
-1.10105e-06
2.28061e-05
-1.90623e-06
1.79668e-05
-3.30957e-06
1.09263e-05
-6.39751e-06
3.18378e-06
-1.2448e-05
-1.62366e-05
1.15686e-05
2.03531e-05
2.59086e-05
2.99356e-05
3.30227e-05
3.54355e-05
3.73536e-05
3.88936e-05
4.0118e-05
4.10498e-05
4.16832e-05
4.19914e-05
4.19318e-05
4.1399e-05
4.02979e-05
3.83917e-05
3.50821e-05
2.86846e-05
1.62366e-05
)
;

boundaryField
{
    movingWall
    {
        type            calculated;
        value           uniform 0;
    }
    fixedWalls
    {
        type            calculated;
        value           uniform 0;
    }
    frontAndBack
    {
        type            empty;
        value           nonuniform List<scalar> 0();
    }
}


// ************************************************************************* //
