/*--------------------------------*- C++ -*----------------------------------*\
  =========                 |
  \\      /  F ield         | OpenFOAM: The Open Source CFD Toolbox
   \\    /   O peration     | Website:  https://openfoam.org
    \\  /    A nd           | Version:  9
     \\/     M anipulation  |
\*---------------------------------------------------------------------------*/
FoamFile
{
    format      ascii;
    class       volScalarField;
    location    "34.6";
    object      p;
}
// * * * * * * * * * * * * * * * * * * * * * * * * * * * * * * * * * * * * * //

dimensions      [0 2 -2 0 0 0 0];

internalField   nonuniform List<scalar> 
918
(
23.4686
23.5754
0.953133
22.886
1.01747
23.0918
3.27185
13.7844
19.2418
2.93392
2.62539
14.408
20.6348
16.8762
12.9924
0.92478
14.0515
2.24587
18.4595
1.39839
12.9916
20.4473
21.536
19.2836
14.1207
14.3714
18.5971
1.14541
0.107785
0.255044
0.979314
0.411057
0.147487
21.6287
22.3054
22.2437
15.4945
10.402
3.59706
3.80162
2.98232
2.8053
13.8271
13.927
5.86662
13.7633
13.759
16.6434
19.1099
19.2535
19.5467
19.3357
19.7221
5.97351
2.78508
2.60503
2.876
2.95041
2.98284
2.69774
2.67925
2.48307
2.33715
13.8873
14.481
14.5362
14.2674
14.215
22.4514
21.6945
22.0292
21.1356
21.281
20.2109
19.8253
17.2519
17.6043
16.4781
16.0973
12.7828
12.7439
13.2123
13.4621
0.145543
1.07578
1.2229
14.0584
14.0949
14.095
14.1094
8.2822
2.18772
2.19046
17.8999
17.4764
20.4813
20.7485
20.1955
20.01
1.53026
1.52626
1.15094
1.18162
0.950819
13.3329
13.4871
19.235
18.4019
14.1543
14.0543
14.1293
11.4994
13.9096
13.9829
15.3209
15.7765
14.9657
15.4022
18.1671
17.7491
19.0337
19.4709
0.393205
0.154559
0.687428
0.318183
0.516491
15.3628
15.1574
15.6104
15.6612
15.8924
10.4068
10.3374
10.3808
10.3007
4.14895
4.46355
2.25466
2.56923
2.4201
9.86535
13.9433
13.9901
4.81051
5.51488
5.17819
6.34936
6.72376
16.0091
16.4456
16.1844
17.7307
16.9356
17.2838
19.8129
19.3021
19.6026
6.36801
6.60241
5.60767
5.24897
2.23794
2.48754
2.42956
2.98181
2.95987
3.21751
3.34591
2.69827
2.55487
2.89329
2.77672
2.82881
2.1664
2.03657
13.6114
13.3974
14.1503
14.3289
15.0961
14.9478
14.6544
14.8232
19.0204
19.4239
19.4574
19.0732
11.5445
10.155
13.7166
13.9922
0.302171
0.264662
0.138286
0.380756
0.400816
0.142784
2.01544
1.82689
1.40528
1.6806
14.056
14.0158
8.52279
8.74242
8.11866
7.86251
16.314
16.4643
17.0984
16.6982
1.96293
1.67669
1.80653
13.6501
13.5226
13.6294
10.9345
10.3679
11.9772
12.2469
13.991
14.0348
14.0308
15.6806
15.999
19.8218
20.0924
19.9193
20.3051
21.3679
21.0192
20.6344
14.5386
14.947
14.7854
16.1277
15.7613
15.9808
15.1887
15.4934
15.3513
10.3691
10.4154
10.1189
10.1968
10.2454
10.1924
9.80257
9.67559
14.0767
14.0318
14.0558
7.25184
7.7499
4.86877
4.53998
12.5432
13.2165
12.892
18.6501
17.9725
18.7055
18.3346
17.8846
18.2081
10.4262
10.3879
10.4212
14.9165
14.2543
14.6063
2.44097
2.07679
2.23992
8.93839
9.0318
6.97045
7.58703
7.25015
16.3007
16.641
17.3212
16.4329
16.9006
17.4079
17.186
9.9386
10.0714
9.9883
9.65901
9.55256
9.73464
8.33516
8.94848
3.61248
4.26886
3.96488
9.19979
9.42975
9.27701
18.6296
19.1644
0.765897
1.15333
19.5945
19.3182
0.138892
0.241715
14.2529
12.5505
7.26209
17.1968
16.6294
18.9692
3.19215
6.10226
2.81014
3.38056
2.6863
14.6151
14.249
13.3401
0.452958
1.25627
1.70974
2.89563
18.41
17.7349
18.851
19.1711
19.2255
0.687555
0.912906
0.584181
1.24284
1.03143
1.27642
15.5505
15.6486
4.32305
18.858
19.1623
19.18
17.6568
18.6094
17.6669
0.935307
0.64221
0.707223
10.0801
12.1211
14.2131
13.7657
13.9627
13.9848
13.7357
14.869
14.5385
14.5034
14.9883
13.9658
13.8205
7.7339
6.38278
8.06835
7.70871
17.0982
16.6861
16.493
16.2386
18.0844
17.6105
18.4609
17.8493
18.3111
18.5979
2.94325
3.13294
3.01165
2.52026
6.14306
6.60562
5.48784
5.63326
4.25909
2.42922
2.52767
2.75364
2.58436
2.93125
2.67891
2.94283
2.57916
2.32351
2.32171
2.93103
2.73896
2.60447
14.5935
14.5319
14.3328
14.3708
14.3533
14.469
13.5346
13.9393
13.5671
12.3982
12.9793
12.5066
0.825398
0.662932
0.524866
1.32377
1.35081
1.11114
0.834798
1.17395
1.20207
0.814624
1.54568
1.44558
3.15509
2.64356
8.83967
7.96739
6.90081
16.8
17.6019
16.7715
18.0123
18.4292
18.5346
18.155
17.6468
15.7293
15.7244
15.3846
15.338
4.77046
3.73109
4.96652
4.5356
10.4773
14.0649
11.8421
10.8033
11.0996
13.4237
13.9283
13.5806
13.7176
13.2927
12.8208
13.5127
13.0465
13.1478
12.9268
15.7173
16.1924
15.7989
15.2194
15.2394
10.5983
12.015
5.46505
5.63904
7.24363
6.53745
13.5092
13.9323
13.917
13.5554
13.7432
13.7443
13.6051
13.7793
13.8592
13.7538
11.824
10.1434
9.0447
9.03828
14.0762
12.3456
12.9299
12.4133
16.12
16.6364
16.2511
15.6456
16.1306
15.6024
15.6297
15.8429
17.201
16.9506
16.7204
17.1072
3.05471
3.00347
3.64701
3.13296
3.03616
2.81914
3.48349
4.75801
4.41575
6.71803
7.26879
4.57976
3.37239
3.79263
4.80769
5.54104
5.51082
3.96914
4.5009
4.92993
4.4404
5.22396
4.72851
2.71785
3.0253
2.8634
2.83716
3.3818
3.88008
3.37566
2.48074
2.59286
2.25714
2.1194
3.53621
2.99624
3.03313
3.67875
1.10627
1.32858
1.44094
2.41405
1.91319
1.97894
15.1821
14.8262
14.9598
14.239
14.3064
14.2476
13.872
15.2395
14.9615
15.0609
13.7094
13.7962
13.6094
13.9048
14.3208
14.62
15.4518
15.173
14.412
14.563
14.2139
14.1422
13.4642
12.9012
12.8407
1.11234
0.824456
0.984087
0.911043
0.606233
0.79862
2.18315
1.57272
1.97058
1.72628
1.95961
1.40385
1.3024
4.25278
5.06373
3.96332
3.36479
3.0617
8.89811
9.00962
8.15829
7.85635
8.19789
8.42652
8.37625
7.13413
7.56113
7.37417
9.91502
9.57931
17.5862
17.5303
17.2015
17.0426
17.2691
5.76203
7.66486
6.7987
7.91485
10.2062
10.5018
9.31048
8.70464
9.45593
9.53388
14.0465
14.1227
13.5636
14.0494
14.0779
11.8346
12.8819
13.4967
13.3112
13.831
13.9119
12.9729
13.5616
13.477
12.7596
12.8126
12.1274
12.4659
11.994
11.793
14.0556
13.9503
14.2201
13.7709
14.1502
13.7145
14.0298
14.0277
14.3083
13.4103
12.8316
12.85
13.2763
12.9764
13.3224
13.4865
9.30808
9.94816
10.3869
10.9226
10.6299
10.4119
10.2791
10.5809
10.5577
10.829
10.7483
10.5992
11.5601
13.4154
13.7004
13.8018
13.5989
13.6451
13.3377
13.6105
13.5398
13.9192
14.007
14.0567
13.1374
13.2934
13.4882
13.372
11.6747
10.0966
9.94878
9.50879
7.5764
8.04609
11.025
9.90184
8.91704
8.98899
12.1681
10.8055
11.6189
12.042
10.6936
10.3056
12.9707
13.7588
13.9787
13.703
12.0598
12.1856
12.6352
13.0785
13.2677
13.7234
15.8598
16.4354
16.5133
16.2374
16.0994
16.1993
15.9494
16.0524
16.5265
16.6531
16.4843
2.88019
2.99386
2.92384
2.8492
3.08559
2.86118
3.95631
3.94725
3.15664
3.33688
3.35678
3.46221
2.93129
2.97437
4.82628
5.06191
5.33357
4.83204
6.17524
6.81608
7.39737
7.08299
5.78962
5.8689
6.18415
3.50749
3.53333
3.25166
3.70924
3.76191
2.61176
2.23924
2.04433
2.56556
2.66665
2.05155
1.76866
1.81789
2.33223
2.05111
1.80507
14.9745
14.7329
14.7542
14.534
14.5887
14.9835
15.2043
15.0144
15.1528
15.2038
14.803
14.6919
14.863
1.81873
1.49341
1.62281
1.58106
1.64342
1.5499
1.73811
7.60535
6.41549
6.80295
5.97834
4.1203
4.64122
9.53841
9.95983
9.99831
9.70945
9.4994
9.86517
9.71595
9.70868
8.26299
9.33164
8.86759
9.26033
9.28174
9.34945
9.06413
9.08034
10.584
10.6176
9.48257
10.1222
9.33093
7.93173
8.09873
9.1124
10.086
10.4042
10.2493
9.97937
9.75077
10.1138
10.1685
10.2286
10.2178
8.75137
8.71127
8.31071
13.9682
13.8747
14.0213
14.0265
14.1533
13.9783
13.8154
14.0925
14.1468
13.9311
11.0771
11.136
11.3818
12.1285
12.1805
12.0914
11.3361
13.1002
12.7558
13.3937
13.3405
13.4129
13.0032
12.8264
13.0967
10.0804
11.4533
10.9862
11.2494
10.0628
9.30637
13.223
13.2771
13.3425
13.6154
13.5734
14.1568
15.8297
15.6997
15.747
15.79
15.4017
15.4389
4.17539
3.82928
4.55095
4.50643
4.06456
3.76463
2.28663
1.96874
1.78094
1.65618
1.88943
1.95053
8.1622
8.18923
6.33366
7.35516
5.87593
4.93414
4.78953
5.95529
7.13655
7.1954
8.51299
9.18903
8.74819
8.57344
7.91779
8.24735
10.1156
10.21
10.1105
10.4294
9.96216
11.7118
11.294
11.6429
13.2568
12.9665
12.3684
12.255
12.2198
12.8128
11.9471
11.1789
11.8913
12.5467
12.505
11.1175
10.8725
11.2992
11.2832
10.1974
10.7175
10.4795
10.832
10.5474
)
;

boundaryField
{
    wall-4
    {
        type            zeroGradient;
    }
    velocity-inlet-5
    {
        type            zeroGradient;
    }
    velocity-inlet-6
    {
        type            zeroGradient;
    }
    pressure-outlet-7
    {
        type            fixedValue;
        value           uniform 0;
    }
    wall-8
    {
        type            zeroGradient;
    }
    frontAndBackPlanes
    {
        type            empty;
    }
}


// ************************************************************************* //
