/*--------------------------------*- C++ -*----------------------------------*\
  =========                 |
  \\      /  F ield         | OpenFOAM: The Open Source CFD Toolbox
   \\    /   O peration     | Website:  https://openfoam.org
    \\  /    A nd           | Version:  9
     \\/     M anipulation  |
\*---------------------------------------------------------------------------*/
FoamFile
{
    format      ascii;
    class       volVectorField;
    location    "2.25";
    object      U;
}
// * * * * * * * * * * * * * * * * * * * * * * * * * * * * * * * * * * * * * //

dimensions      [0 1 -1 0 0 0 0];

internalField   nonuniform List<vector> 
918
(
(2.47662 -0.139354 0)
(0.108696 0.722555 0)
(0.174623 1.59768 0)
(2.31829 0.153701 0)
(-0.0713862 1.55824 -1.26683e-19)
(-0.0924026 0.643936 -5.97045e-18)
(0.701776 1.12631 -5.35335e-19)
(0.446162 0.260425 -3.64299e-20)
(3.00613 -0.0191235 0)
(-0.02334 0.884831 0)
(-0.00755598 1.00155 0)
(0.879026 0.00393309 0)
(0.0107167 0.439111 0)
(-0.00311435 0.422022 0)
(0.0273376 0.392736 -1.59786e-18)
(0.00313453 0.987743 -1.3962e-19)
(0.595985 0.147342 2.69714e-18)
(0.102272 1.04117 -4.20649e-19)
(1.5305 0.122217 0)
(-0.0169728 1.01873 0)
(0.288804 0.234061 -1.539e-18)
(3.08313 -0.393165 0)
(2.92691 -0.502007 0)
(1.86783 -0.178315 0)
(0.793378 0.0421911 0)
(-0.0248346 0.526384 0)
(-0.00131917 0.494445 2.13421e-18)
(-0.0391146 1.88486 0)
(0.0787056 3.37173 0)
(0.170765 2.37588 0)
(-0.0212259 3.43819 0)
(-0.00899539 1.99394 9.74594e-20)
(0.00891315 0.928188 0)
(-0.147365 0.775128 -2.29472e-22)
(-0.193897 1.0291 4.96757e-18)
(-0.0415856 1.0447 0)
(0.944748 -0.00475148 0)
(0.215561 0.322017 8.14123e-19)
(1.25256 1.90358 1.15625e-18)
(0.848839 1.02873 -9.31107e-19)
(1.01814 2.04223 1.16372e-19)
(0.556371 1.16214 -5.99921e-19)
(0.886059 0.50129 3.58285e-20)
(0.49658 0.256716 0)
(1.12232 0.66185 0)
(0.821286 0.493381 1.60209e-19)
(0.41052 0.261879 -1.64401e-19)
(0.944644 -0.0333702 0)
(3.02706 -0.000343246 0)
(3.00656 0.0176658 0)
(3.2004 -0.415209 0)
(3.04336 -0.0737436 0)
(3.03089 -0.0395838 0)
(0.00886818 1.01078 -1.39021e-18)
(-0.0415563 1.6633 0)
(0.00521827 0.867214 0)
(-0.0623672 1.73774 0)
(-0.0226369 0.931529 0)
(0.0034024 1.0182 0)
(-0.000479877 1.80996 0)
(0.0106382 1.00244 0)
(-0.0238843 1.84884 0)
(-0.0085213 1.01392 0)
(0.981827 0.00949891 0)
(1.60901 0.0180287 0)
(0.903627 0.0174705 0)
(1.59343 0.01442 0)
(0.854716 0.0107127 0)
(0.225377 0.922015 2.21301e-18)
(0.0985216 1.20807 0)
(0.176277 1.06604 0)
(0.0332038 0.7558 2.49393e-23)
(0.0372234 0.498099 -3.30973e-18)
(0.0194596 0.74791 0)
(0.00595464 0.422025 0)
(-0.000924809 0.734663 5.25378e-24)
(0.000643651 0.41483 0)
(-0.0177545 0.74406 0)
(-0.0136848 0.429168 0)
(0.0814976 0.776676 0)
(0.072353 0.565544 0)
(0.0298454 0.689285 1.51074e-18)
(0.0130101 0.361174 0)
(-0.010995 4.00447 0)
(0.00206745 1.79221 1.38615e-19)
(-0.00984417 1.00027 -1.79207e-19)
(1.14153 0.260996 -9.43272e-19)
(0.600159 0.107929 -9.16726e-19)
(1.12884 0.317113 -2.81873e-18)
(0.592619 0.182676 -1.8004e-18)
(0.0920479 0.762722 0)
(0.25062 1.93714 3.70093e-19)
(0.260787 1.121 -5.91872e-19)
(2.08852 0.234451 0)
(1.12969 0.099289 0)
(3.03314 0.103209 0)
(3.10437 0.445732 0)
(2.84215 0.372699 -1.22757e-17)
(2.57845 0.362258 9.40909e-18)
(-0.0110899 1.82502 0)
(0.013781 1.0179 0)
(-0.0301072 2.56493 0)
(-0.047565 1.90439 0)
(-0.0427447 0.988189 0)
(0.62591 0.456451 4.87347e-19)
(0.333094 0.253708 0)
(2.30979 -0.257473 0)
(1.3323 -0.111525 0)
(1.54232 0.018668 0)
(1.47299 0.0374123 0)
(0.828842 0.0121176 0)
(1.18626 0.0465507 0)
(1.25157 0.0856146 0)
(0.566174 0.0372618 4.25454e-18)
(-0.0066341 0.448205 2.10417e-18)
(-0.029473 0.788026 0)
(-0.0557673 0.859182 0)
(-0.017153 0.465627 0)
(0.000151895 0.8402 2.09348e-18)
(4.48961e-05 0.48796 0)
(-0.00539033 0.845961 -6.41853e-18)
(-0.00483647 0.497084 2.16157e-18)
(0.0529292 3.83057 0)
(0.0578802 3.96207 0)
(0.00037139 1.78889 -3.40554e-21)
(-0.0180431 1.74478 0)
(-0.00668713 0.973626 0)
(1.70869 0.0149443 0)
(0.954193 0.0138742 0)
(0.930054 0.00986459 0)
(1.71221 -0.00634741 0)
(0.93498 0.00821032 0)
(0.425423 0.624303 -1.02243e-18)
(0.20455 0.303053 0)
(0.437326 0.674355 1.14768e-19)
(0.221281 0.357976 0)
(1.49867 1.74913 2.98618e-19)
(0.951284 0.925892 -6.78079e-19)
(0.520184 2.02671 0)
(0.769165 2.07219 0)
(0.406408 1.16072 0)
(0.207291 0.494699 -5.42433e-19)
(0.97229 0.466294 0)
(0.532415 0.238721 4.89767e-19)
(1.66906 1.58165 0)
(1.81713 1.35478 0)
(1.03272 0.796387 7.56012e-19)
(1.95857 1.07791 0)
(1.22839 0.512414 2.55472e-20)
(1.70566 0.0340446 0)
(1.6606 0.00135766 0)
(0.920122 0.0119373 0)
(1.9855 -0.179328 0)
(1.7432 -0.101333 0)
(1.07784 -0.0702719 0)
(3.06147 0.164142 0)
(3.03013 0.068375 0)
(3.01017 0.0525289 0)
(-0.00830299 1.77863 7.34058e-19)
(0.00063841 0.983507 0)
(0.0202949 1.85068 1.32713e-18)
(0.00917271 1.03656 -1.21383e-18)
(0.0597778 1.8212 3.54844e-19)
(0.00783572 1.68681 0)
(0.0292057 0.926031 0)
(-0.0437929 1.79911 0)
(-0.0134237 0.982009 0)
(-0.00448838 1.82484 -6.01109e-21)
(-0.0155731 1.0238 0)
(-0.0144411 1.8387 -3.26225e-19)
(-0.0128563 1.00957 6.29405e-19)
(-0.0116702 1.82967 0)
(0.0226916 1.8223 0)
(0.00040007 1.00524 0)
(-0.012846 1.8653 0)
(-0.00314992 1.02804 0)
(1.79079 0.0152795 0)
(0.997415 0.00178797 0)
(1.74762 0.000296135 0)
(0.979999 -0.00847212 0)
(0.923834 -0.00443054 0)
(1.69175 -0.000161403 0)
(1.65678 0.0371214 0)
(0.92747 0.00678926 0)
(-0.00568904 1.42063 -1.95336e-20)
(0.000270249 1.37686 0)
(0.00482448 0.732855 0)
(0.00173278 0.417184 0)
(0.382605 1.05146 0)
(0.335828 0.520909 -3.47678e-19)
(0.0142773 0.6501 0)
(-0.00428697 0.3657 0)
(0.0333986 3.98228 0)
(0.000228846 3.98432 0)
(0.0168405 3.99969 0)
(-0.056457 3.5376 3.5593e-20)
(-0.00293247 3.98658 0)
(-0.0283337 3.8831 0)
(0.0118864 1.00543 1.64512e-20)
(0.0199237 1.85395 2.31608e-19)
(-0.0198652 1.82644 1.84061e-19)
(0.000590487 1.0175 0)
(1.14637 0.173614 1.45984e-18)
(0.585808 0.0701022 -1.42817e-18)
(0.178609 1.3846 0)
(0.123042 0.715555 -3.24415e-19)
(0.142409 1.48612 -1.05896e-18)
(0.0653101 0.841685 1.05363e-18)
(0.933601 -0.00255236 0)
(1.72739 -0.00316693 0)
(1.79301 0.0891394 0)
(0.983008 0.0196288 0)
(0.00508695 1.86489 0)
(0.031735 1.84148 0)
(0.00576941 1.03025 0)
(0.746729 0.498672 1.4575e-18)
(0.661046 0.488284 -1.67775e-18)
(0.366677 0.262418 0)
(2.14275 0.158031 1.55306e-19)
(1.28745 0.0871502 0)
(1.9407 0.0729835 0)
(1.07721 0.00834151 0)
(1.12312 0.11834 0)
(1.10871 0.072397 -6.83978e-18)
(0.574898 0.0448412 2.52888e-18)
(0.00683214 0.804125 1.99397e-18)
(0.00145494 0.46162 4.0764e-20)
(-0.0107485 1.40831 -4.08588e-20)
(0.00621089 1.38657 1.55431e-18)
(-0.0148879 0.849255 7.1837e-20)
(-0.0118778 0.524697 -2.87902e-22)
(-0.107387 1.00082 -1.31909e-18)
(-0.0528474 1.35316 9.44404e-19)
(-0.0174434 1.35268 -1.54509e-18)
(1.76102 -0.00920702 0)
(1.75839 0.0289827 0)
(0.970213 0.00674796 0)
(1.71106 -0.0121797 0)
(1.6918 0.0185745 0)
(0.937517 0.000640342 0)
(1.69298 -0.0160138 0)
(1.66932 0.00234621 0)
(0.922656 -0.00535098 0)
(0.397099 0.618075 -1.11471e-18)
(0.211116 0.317079 0)
(0.213263 0.417005 1.68236e-19)
(0.413149 0.786506 1.37735e-18)
(0.419216 0.734231 -8.16413e-19)
(0.214831 0.384533 1.5969e-18)
(0.377255 0.989256 2.67047e-18)
(0.198791 0.531642 4.81594e-19)
(1.09426 0.385494 1.90662e-18)
(1.03152 0.440967 4.91431e-19)
(0.568785 0.216908 9.24383e-19)
(2.12376 0.835587 -9.11727e-19)
(1.29152 0.376846 -1.02977e-18)
(-0.00958255 1.88155 5.85613e-19)
(-0.00590844 1.04661 0)
(1.8909 0.0362616 0)
(1.80563 0.0277033 0)
(1.0288 0.0217523 0)
(-0.00349735 1.38447 0)
(0.0050327 0.729473 2.88116e-18)
(0.00465551 0.73114 0)
(0.00206386 0.415043 -2.82001e-18)
(-0.0103385 1.38599 6.90358e-19)
(-0.00946104 1.42234 0)
(0.439441 0.637435 3.13237e-19)
(0.470924 0.71848 -1.04647e-18)
(0.224528 0.338964 9.46311e-19)
(-0.0278349 0.760068 -1.97194e-18)
(-0.0244735 0.683431 0)
(-0.015437 0.407193 0)
(-0.00493112 1.79697 -2.36275e-20)
(0.0324724 1.83986 -5.1462e-19)
(0.00954136 1.00101 -2.07947e-20)
(0.247807 1.29334 1.07381e-18)
(0.143735 0.659537 -7.14849e-19)
(0.000177951 1.72701 8.8917e-19)
(0.0645988 1.61727 -9.91023e-19)
(0.0240765 0.921286 4.16629e-20)
(0.00600818 1.36583 -4.45629e-18)
(-0.0014043 1.39317 5.16057e-18)
(0.00360338 0.830152 2.01734e-18)
(-0.0146786 0.804766 -2.02429e-18)
(-0.00451355 0.481585 -2.0239e-18)
(-0.0109219 1.41661 -5.22899e-18)
(-0.0156491 1.39999 5.33436e-18)
(0.402458 0.917083 0)
(0.405596 0.8496 -2.8098e-18)
(0.211684 0.452275 1.21721e-18)
(0.367443 1.06814 1.44166e-18)
(0.187024 0.581857 -2.22616e-18)
(2.22397 0.334268 5.72796e-19)
(2.2351 0.609057 0)
(1.36006 0.244854 -5.61273e-19)
(-0.0371083 1.85338 -6.70165e-21)
(-0.0175405 1.8718 0)
(-0.00799378 1.04502 0)
(0.273503 1.21264 -3.90986e-19)
(0.322141 1.14689 -8.58531e-19)
(0.164586 0.622754 1.60977e-18)
(3.1674 -0.438752 0)
(3.342 -0.410303 2.21625e-18)
(0.0730586 3.74254 0)
(0.032237 3.48572 0)
(3.15926 0.244943 1.33027e-20)
(3.12735 0.50307 4.52074e-18)
(0.0200717 3.55238 -4.77031e-20)
(0.00987966 3.09758 0)
(-0.0311328 1.19674 1.86648e-18)
(0.295956 1.53888 0)
(3.49557 1.66146 -4.77118e-19)
(3.2125 0.208474 -2.79486e-20)
(3.18149 -0.0296981 0)
(3.10082 -0.00895072 -2.66909e-22)
(0.014731 3.42323 0)
(0.0913052 3.29942 0)
(-0.0200352 3.3804 0)
(0.000692573 3.42851 4.22911e-19)
(0.0054461 3.49389 2.63516e-19)
(3.05289 0.0297088 -1.63048e-20)
(3.25972 0.0290968 0)
(3.33374 0.0640047 0)
(-0.000889125 3.97535 0)
(0.00158865 3.31368 0)
(-0.0220405 3.4824 0)
(0.703216 3.71846 4.75746e-19)
(3.3292 -0.404177 0)
(3.02667 -0.32512 0)
(3.17007 -0.0649796 2.79066e-18)
(3.28694 -0.327315 -3.35228e-18)
(3.10341 -0.128054 0)
(-0.000505418 3.95444 0)
(0.0301008 3.88529 0)
(0.0340355 3.95154 0)
(-0.00346238 3.62483 0)
(-0.0121196 3.44717 0)
(-0.0238544 3.22954 0)
(3.15952 0.0195588 0)
(3.11975 -0.000974431 -1.95234e-20)
(2.35739 3.25785 -5.65657e-19)
(3.15798 0.0348596 -2.79062e-18)
(3.19056 0.273329 3.37685e-18)
(3.08251 0.116266 0)
(3.40073 0.26568 2.59628e-18)
(3.36233 0.464377 -3.3135e-18)
(3.09359 0.39374 0)
(-0.0142876 3.51291 0)
(0.0225296 3.46093 1.33139e-19)
(-0.0076921 3.04756 -9.69918e-20)
(3.70021 0.523722 3.0983e-18)
(3.51118 0.159105 0)
(-0.124939 1.2784 -2.59345e-18)
(-0.0218896 0.879802 -1.62235e-19)
(-0.0170608 1.37371 3.59141e-18)
(0.00470754 1.29094 -1.07781e-18)
(0.0397928 1.11853 0)
(-0.0295741 1.23292 8.29084e-19)
(-0.106286 1.38857 2.56886e-18)
(-0.05132 1.33886 -1.56767e-18)
(-0.0841838 1.32125 0)
(1.87639 0.878228 0)
(1.68641 0.996845 0)
(3.48646 2.05869 1.41936e-18)
(3.18723 2.06679 -1.8012e-18)
(3.68061 1.67562 0)
(3.52729 1.23268 0)
(3.37229 0.173813 -4.90805e-18)
(3.01767 0.0811088 6.09221e-18)
(3.35266 -0.0352943 0)
(3.02075 0.00374115 0)
(3.42687 0.0322675 0)
(3.57273 0.10792 0)
(3.2894 0.0946909 0)
(3.53758 0.236476 0)
(3.41489 0.274406 0)
(3.32658 0.20005 0)
(0.00258477 3.60751 0)
(-0.0369674 3.18383 0)
(0.0624252 3.73228 0)
(0.104823 3.22066 0)
(0.137459 3.45532 0)
(0.0979726 2.89784 -6.79536e-19)
(0.0352573 3.50532 0)
(0.0184846 3.15321 5.01285e-19)
(-0.00697695 3.26283 -6.78114e-19)
(-0.000287861 3.58893 0)
(-0.00975274 3.20728 0)
(-0.0304073 3.61761 0)
(-0.00718508 3.09783 0)
(-0.0311005 3.9977 -3.46538e-19)
(-0.00208136 3.68092 3.76333e-19)
(-0.0200708 3.63316 4.47142e-19)
(-0.017563 3.20334 0)
(-0.0250263 3.66626 -6.32308e-19)
(0.00406551 3.31249 -3.95043e-19)
(-0.00695849 4.00302 2.73789e-19)
(-0.0137961 3.89682 -4.78028e-19)
(-0.010328 3.83833 -5.49783e-19)
(3.30162 0.0373457 4.27913e-18)
(2.83359 0.0232559 -5.4198e-18)
(3.24418 0.0716743 -4.22134e-18)
(2.83005 0.0420152 5.26142e-18)
(3.41753 0.0410618 0)
(3.0134 0.0062006 0)
(3.47491 0.0728615 0)
(3.43316 0.0260439 0)
(3.0927 0.0179925 0)
(3.63663 0.184225 0)
(3.51039 0.082718 0)
(3.19792 0.0578064 0)
(0.0204433 3.9408 -1.50476e-20)
(-0.0045845 3.98616 0)
(0.00230933 3.9711 0)
(-0.00101909 3.56959 1.26616e-19)
(-0.00977368 3.09688 -5.21578e-21)
(-0.00116716 3.98623 1.45681e-19)
(-0.020537 3.95039 -1.46446e-19)
(-0.0162221 3.88008 0)
(-0.0105691 3.86792 0)
(-0.00676581 3.88825 0)
(-0.0219071 3.68788 0)
(0.000586454 3.15527 0)
(0.905143 4.0286 -1.05513e-18)
(1.08207 3.56223 -3.30499e-19)
(0.475019 2.39184 -2.75077e-19)
(0.279143 2.61122 8.47387e-19)
(0.766872 3.73114 3.38133e-19)
(3.3987 -0.0709593 0)
(3.30514 -0.206793 0)
(2.93275 -0.137666 0)
(3.46045 -0.0842581 0)
(3.34008 -0.168535 0)
(3.43009 -0.271147 0)
(3.48853 -0.284394 0)
(3.53029 -0.231331 0)
(3.34059 -0.00012552 4.60764e-18)
(2.88133 0.0111038 -5.84422e-18)
(3.30543 0.026836 -4.53774e-18)
(2.94806 0.00612543 5.64977e-18)
(2.21133 3.57144 0)
(1.95069 3.40686 -7.70918e-19)
(2.50812 3.37158 -6.8407e-19)
(2.58634 2.84674 9.12283e-19)
(1.00002 1.55656 3.32865e-18)
(2.15766 0.238818 1.68997e-18)
(3.70096 0.259665 0)
(3.82963 0.51904 -2.51797e-18)
(3.47499 0.233485 -1.1041e-19)
(3.50296 0.346565 0)
(0.506994 1.44213 2.17439e-18)
(0.123167 1.26933 -3.46691e-18)
(0.215955 0.829756 1.95669e-18)
(0.475389 0.599368 -8.99799e-19)
(0.321056 1.58816 1.05915e-18)
(0.14199 1.32588 0)
(0.119564 1.21052 -1.37273e-18)
(0.399082 1.58932 -4.95163e-18)
(0.56259 1.77515 0)
(0.00517028 1.28765 1.40987e-19)
(-0.0129135 1.45696 -1.57596e-18)
(-0.0447197 1.30472 2.29107e-18)
(-0.0639945 1.41793 0)
(-0.0260181 1.37901 0)
(0.879654 1.36257 0)
(2.29909 2.39914 -1.27076e-18)
(2.84927 2.42075 6.25815e-19)
(2.78853 2.96473 0)
(2.90984 2.97119 -5.58471e-19)
(3.16763 2.49319 2.84324e-20)
(1.18849 0.904981 -2.19207e-18)
(2.15727 0.970553 -2.31082e-20)
(1.82996 0.729485 1.06536e-18)
(1.79976 1.18555 7.20447e-20)
(1.41901 0.955178 -2.86549e-18)
(2.03981 1.03361 0)
(2.41207 1.36743 1.76343e-18)
(2.44931 1.26954 0)
(1.95357 1.12357 0)
(1.61428 0.85984 0)
(2.92251 1.95152 1.26533e-18)
(3.86215 0.741435 -2.5342e-18)
(3.77528 1.20617 0)
(3.65603 0.785705 0)
(2.09276 0.56538 1.6597e-18)
(2.9061 1.73391 -1.02985e-18)
(2.75785 1.65304 1.88301e-18)
(3.28215 1.257 -2.3037e-18)
(3.22895 0.0105465 3.14413e-18)
(3.24384 0.0625381 -3.25062e-18)
(2.88807 0.0147021 0)
(3.35471 0.0166186 0)
(3.27465 -0.000571306 -3.02945e-18)
(2.9163 0.00647613 3.00366e-18)
(3.68681 0.0256575 0)
(3.63775 0.0113465 0)
(3.64009 0.0852942 0)
(3.56668 0.100284 0)
(3.69325 0.0230857 0)
(3.65104 0.0224116 0)
(-0.0333233 3.46983 0)
(-0.0392771 3.09487 0)
(0.196737 4.06557 -6.44448e-19)
(0.600497 3.90506 -2.84854e-19)
(0.253539 3.75879 -6.33005e-19)
(0.364498 3.47227 1.01472e-18)
(0.326935 4.06815 0)
(0.298339 4.06019 -7.42119e-19)
(0.21664 4.08399 0)
(0.673203 3.78411 -4.86913e-19)
(0.502965 3.51874 1.19323e-18)
(0.392462 4.10736 6.50523e-19)
(0.552396 4.10212 -3.25965e-19)
(0.416802 4.14635 2.60792e-19)
(0.689548 4.16426 -9.71506e-19)
(0.555762 4.01753 0)
(0.622504 4.01927 7.28749e-19)
(0.00734402 3.93997 -2.51553e-19)
(0.00232748 3.50562 0)
(0.0456026 3.81413 7.14905e-19)
(-0.00555353 3.87063 0)
(0.00130958 3.42125 -5.57864e-19)
(-0.00313669 3.08114 0)
(-0.017609 3.99393 -4.35467e-19)
(-0.0183413 3.99817 0)
(-0.011506 3.91682 0)
(-0.0234731 3.94936 4.89655e-19)
(-0.001806 3.63809 2.22089e-20)
(-0.0150004 3.55938 8.26213e-19)
(-0.0256013 3.13095 5.66757e-21)
(-0.00501974 3.98042 2.50891e-19)
(-0.0198956 3.99811 1.4676e-19)
(0.00557974 3.46938 0)
(-0.00598063 3.10864 0)
(-0.0208288 3.99 6.97134e-19)
(-0.0311116 3.97843 6.52609e-19)
(-0.0265134 3.99631 -8.42167e-19)
(-0.00941086 4.01256 0)
(0.00183306 3.96359 -4.58797e-19)
(-0.0147247 3.89066 2.02212e-19)
(-0.0115898 3.88431 -6.12323e-20)
(0.0238578 3.99929 -2.99313e-19)
(0.014579 3.86482 -9.93793e-20)
(-0.00578037 3.8308 4.42973e-19)
(3.19724 0.0185839 -3.01816e-18)
(3.18721 0.0152422 2.91624e-18)
(2.83957 0.00957665 0)
(3.48528 0.13937 3.8529e-18)
(3.14722 0.104262 -4.18996e-18)
(2.79694 0.0564455 4.57922e-18)
(3.54808 0.223901 -5.10467e-19)
(3.33336 -0.00866072 0)
(3.30668 0.0176467 2.87692e-18)
(3.01433 0.0073261 -2.8518e-18)
(3.63015 0.0898071 -1.63337e-19)
(3.5738 0.0725317 1.40456e-18)
(3.6714 0.120266 0)
(3.6799 0.111267 -4.8621e-19)
(3.65998 0.0753093 0)
(3.60473 0.0685534 0)
(3.70548 0.0163303 0)
(3.5829 0.00785385 0)
(3.68089 0.0699273 1.01088e-18)
(3.68444 0.0422544 -2.25081e-18)
(3.66436 0.0674148 -1.10028e-18)
(3.67067 0.0686744 -1.18623e-18)
(3.69961 0.151439 2.28864e-18)
(3.63386 0.132723 0)
(3.71173 0.219525 0)
(0.00619333 3.99291 -1.8899e-19)
(0.0151885 3.98956 -1.68305e-20)
(0.00301535 3.98751 0)
(0.000606645 3.86335 1.91546e-19)
(-0.0113991 3.88764 3.04262e-20)
(-0.0055279 3.84235 -3.19894e-20)
(-0.0220679 3.52661 3.48726e-19)
(-0.0347388 3.80862 -2.0846e-20)
(0.00210675 3.81753 1.01562e-19)
(-0.0123664 3.47954 -1.813e-19)
(0.00068731 3.15722 2.18106e-19)
(-0.00122526 3.98388 6.02259e-21)
(0.00542678 3.98561 2.20815e-19)
(0.997399 4.18064 5.90475e-19)
(0.871159 4.11433 1.03505e-18)
(1.80166 3.76442 7.47246e-19)
(1.34775 3.91932 3.1768e-19)
(1.50633 3.49644 0)
(0.582257 2.63041 3.33243e-19)
(0.515293 2.10844 4.00503e-19)
(0.363934 2.82488 1.56436e-20)
(0.469859 3.25211 -1.43409e-18)
(0.595065 3.18682 1.06589e-18)
(0.451131 2.68956 0)
(0.332754 2.3276 -6.72399e-19)
(0.192119 3.14292 1.69125e-18)
(0.241695 2.92025 -3.63617e-20)
(0.153517 2.60826 -2.11913e-18)
(0.793315 1.81688 1.7906e-18)
(0.705708 2.02913 0)
(3.56062 -0.0667539 1.07517e-19)
(3.56973 -0.198067 -9.02219e-20)
(3.63432 -0.118886 -1.58504e-18)
(3.65848 -0.0552515 1.60662e-18)
(3.61239 -0.0363686 0)
(2.12003 3.66292 0)
(2.22852 3.4731 0)
(2.58037 3.38502 0)
(2.31219 3.30972 0)
(1.08321 1.77029 -1.05368e-20)
(0.818409 1.36395 0)
(1.63243 3.24692 1.84717e-20)
(1.3106 3.29724 0)
(1.35786 3.05689 -1.56425e-18)
(1.43048 2.98214 1.00402e-18)
(2.48029 0.374481 0)
(2.13907 0.345466 4.43685e-19)
(2.9674 0.327008 2.7763e-18)
(2.48199 0.263269 -9.95902e-19)
(2.05721 0.13336 -3.13766e-18)
(3.71753 0.627021 -3.37644e-18)
(3.36961 0.883995 -2.72628e-20)
(3.19836 0.79376 2.54133e-18)
(3.45375 0.625506 2.28141e-18)
(3.25735 0.407556 -3.81517e-18)
(3.14677 0.445716 4.65719e-19)
(3.25242 0.662278 -1.0305e-18)
(3.17903 0.598812 0)
(3.50319 0.430122 1.92142e-18)
(3.58776 0.495612 0)
(3.56135 0.599185 0)
(3.72295 0.316553 1.0791e-18)
(3.67493 0.501464 -2.66672e-20)
(3.73129 0.577564 -5.8499e-19)
(3.80545 0.534802 0)
(3.53701 0.0785636 2.20255e-18)
(3.6847 0.10055 2.76445e-18)
(3.68693 0.0880169 -2.1524e-18)
(3.67495 0.160099 -1.85897e-18)
(3.56253 0.144489 -2.72725e-18)
(3.41104 0.302729 0)
(3.42962 0.231258 0)
(3.06923 0.177098 -1.60857e-18)
(2.68671 0.114635 6.02899e-19)
(3.6354 0.261419 2.48932e-18)
(3.72002 0.321099 -3.04441e-18)
(3.69075 0.36743 2.66812e-18)
(3.62111 0.376258 0)
(3.7097 0.260886 0)
(3.68197 0.22454 -1.2764e-18)
(3.67116 0.228182 -2.05206e-18)
(1.95132 3.1929 7.84575e-19)
(1.8193 3.12514 -8.34142e-19)
(1.62216 2.68947 -1.25966e-18)
(1.44859 2.43994 3.23526e-19)
(1.1294 1.7612 -3.20744e-18)
(1.01463 1.56466 1.12413e-18)
(0.779006 1.17677 -3.42696e-21)
(1.37132 2.21164 -1.38798e-18)
(1.40415 2.3231 2.07402e-18)
(1.22672 2.13674 6.14766e-19)
(1.00904 1.65913 -6.22938e-19)
(0.82674 1.39676 0)
(2.26795 2.51975 -1.40474e-19)
(1.12174 1.43338 1.03253e-18)
(1.33617 1.25989 1.39234e-18)
(1.13871 1.11528 1.61433e-18)
(1.56456 1.11009 1.6229e-18)
(1.91884 1.41477 -2.72775e-18)
(1.83334 1.45523 2.21284e-18)
(1.44729 1.12907 -8.16251e-19)
(1.2179 0.875867 1.80824e-18)
(2.28956 0.73524 -9.70888e-19)
(2.18174 0.813036 0)
(1.91083 0.658409 4.0106e-21)
(2.59282 1.64118 9.36823e-19)
(2.42508 1.52143 -3.39378e-18)
(2.10645 1.5209 1.64582e-20)
(2.11479 1.40982 0)
(2.52453 2.38977 1.06149e-18)
(2.94055 2.42962 1.34419e-18)
(2.79229 2.62406 -1.54392e-18)
(3.07167 2.47832 -5.69513e-19)
(3.2309 2.5426 -1.94478e-19)
(3.16668 2.63446 1.99858e-19)
(3.12789 2.00542 -2.11005e-18)
(3.21356 2.23042 5.32727e-19)
(3.40073 2.23801 0)
(3.44234 2.09035 -7.7938e-19)
(3.47257 0.92743 7.57192e-19)
(3.82006 0.884856 1.36673e-18)
(3.71281 0.804208 1.33903e-18)
(3.43567 1.15597 -1.47622e-18)
(3.67491 1.24389 0)
(3.76168 1.14751 0)
(3.13054 1.17701 -1.8546e-20)
(2.7869 0.860596 0)
(2.94889 0.843486 1.14564e-18)
(3.15527 0.870794 -3.22e-20)
(3.27171 1.37772 6.43567e-18)
(3.09296 1.5935 1.64748e-18)
(3.06754 1.43799 -1.64444e-18)
(2.92792 1.38186 1.75888e-18)
(2.80007 1.44519 9.92957e-19)
(2.63528 1.34859 -9.61683e-19)
(3.5555 0.0176591 2.53827e-18)
(3.68728 0.00898098 0)
(3.68227 0.00949583 1.70441e-18)
(3.57985 0.0367359 -3.81298e-18)
(3.70852 0.014954 1.83803e-18)
(3.68919 0.0239011 -3.91188e-18)
(3.62566 0.0178086 0)
(3.54008 0.0316812 -7.99797e-19)
(3.67897 0.0375744 2.01705e-18)
(3.6201 0.0622109 -1.03808e-18)
(3.54834 0.0364692 7.5182e-19)
(-0.0326394 3.45843 0)
(0.00264652 3.83837 0)
(-0.0252907 3.41734 0)
(-0.0173502 3.05712 0)
(0.00572046 3.94842 1.1352e-18)
(0.0298061 3.93424 -3.3455e-19)
(0.149998 4.06585 -3.41222e-19)
(0.116348 4.08698 3.59355e-19)
(-0.0313838 3.98052 -7.66133e-19)
(-0.00737481 3.97798 5.81346e-19)
(0.00998391 3.94954 -8.54574e-21)
(-0.0149676 3.86993 -7.10012e-19)
(0.00126146 3.80121 -9.79025e-20)
(-0.00443631 3.88558 -8.98254e-20)
(0.0829564 3.89158 -7.64412e-19)
(0.102015 3.80082 0)
(0.173371 3.96257 3.73456e-19)
(0.15911 4.02697 3.36349e-19)
(0.418639 3.84528 -2.96726e-19)
(0.303341 3.55175 0)
(0.354803 3.42897 -1.3502e-18)
(0.434194 3.63189 9.56187e-19)
(0.346801 3.91485 -7.94042e-19)
(0.248992 3.85041 4.29369e-19)
(0.208216 3.73339 0)
(-0.0175851 3.97289 -7.78342e-19)
(-0.0225352 3.92337 -8.73939e-19)
(-0.0372549 3.97366 0)
(-0.0102514 3.86507 -6.9187e-21)
(-0.00531607 3.96684 3.82242e-19)
(-0.026852 3.91737 6.34356e-20)
(0.0171336 3.8255 -9.67908e-19)
(-0.0243914 3.94051 2.65791e-19)
(-0.0427388 3.99958 3.36242e-19)
(-0.0205972 4.01308 0)
(-0.0054783 3.95392 0)
(-0.0194898 3.51791 2.82426e-19)
(0.0177981 3.88356 -8.73707e-20)
(0.00385947 3.87298 0)
(-0.00316154 3.45343 2.29523e-19)
(0.00190658 3.08258 -4.40122e-19)
(3.56903 0.0568369 0)
(3.57128 0.0428328 -2.62838e-19)
(3.69054 0.0450677 -1.85192e-18)
(3.66211 0.0440402 0)
(3.63361 0.0417368 0)
(3.70426 0.0111824 -1.37088e-20)
(3.69378 0.00505925 3.03532e-18)
(3.6598 0.0218508 3.63642e-18)
(3.60648 0.0239306 0)
(3.52825 0.0324388 0)
(3.65439 0.0259275 1.82228e-18)
(3.58246 0.0525903 0)
(3.51001 0.0603176 0)
(0.0114712 3.9749 0)
(0.0026381 3.97093 1.39591e-20)
(0.00366797 3.9723 9.93856e-20)
(0.0146631 3.92517 0)
(0.0201869 3.9791 1.52843e-19)
(0.0133198 3.9743 -7.9033e-20)
(-0.00276169 3.95643 0)
(1.10086 3.66232 0)
(0.929746 3.94026 -1.80674e-18)
(0.901263 3.80711 0)
(1.27124 3.97695 2.1201e-18)
(1.42998 4.09461 0)
(1.30423 4.10417 -8.98784e-19)
(1.20951 2.59529 -4.17567e-20)
(0.935089 2.04773 -2.13429e-18)
(0.776712 1.58022 2.60907e-18)
(0.838388 2.24696 4.8397e-19)
(1.05422 2.73232 0)
(1.14166 2.67489 0)
(0.877603 2.10822 0)
(0.685987 1.75343 -1.70332e-18)
(1.0483 3.47904 -1.20551e-18)
(1.10679 3.08167 -2.86283e-19)
(1.23366 3.28658 2.3413e-19)
(0.644995 2.40433 0)
(0.717306 2.33694 0)
(0.564764 1.98606 -4.76998e-19)
(0.963739 2.92734 0)
(2.23469 3.14285 0)
(2.15126 2.82843 -1.79294e-18)
(2.23395 2.77522 -1.07209e-19)
(2.1054 3.0954 0)
(2.0802 2.96504 2.73332e-18)
(2.7901 2.74154 -5.18923e-19)
(2.75802 3.05597 0)
(2.77765 2.951 8.72204e-19)
(2.41121 3.04882 0)
(2.40867 2.84557 0)
(1.43487 2.39606 -1.13701e-18)
(1.60879 2.75239 -8.55435e-19)
(1.74244 3.02851 1.47902e-18)
(1.70386 3.0458 -4.43176e-19)
(1.2861 2.22236 0)
(1.388 2.54263 5.73934e-19)
(0.931343 1.65081 -8.81298e-19)
(0.764991 1.36609 -1.63994e-22)
(1.67409 3.33702 0)
(1.85221 3.3317 -6.86007e-19)
(1.9118 3.43783 0)
(2.79591 0.58088 0)
(2.33199 0.459998 0)
(1.95127 0.424764 0)
(2.75806 0.675961 -1.80331e-18)
(2.33966 0.585006 1.01541e-18)
(2.764 0.117952 -1.24426e-18)
(3.06822 0.247634 0)
(2.95976 0.259654 5.18913e-19)
(2.40971 0.145775 2.05944e-18)
(2.1519 0.0881536 -1.30601e-18)
(0.964573 1.9614 1.04243e-18)
(1.21458 2.25201 0)
(0.718798 1.80282 1.88751e-18)
(0.73856 1.93808 -1.72466e-18)
(1.04022 2.17359 -1.20894e-18)
(2.03127 2.51741 1.59133e-18)
(2.02728 2.70418 0)
(1.87926 1.98056 -3.2947e-19)
(2.13066 2.15313 2.07975e-18)
(1.7652 1.67833 -5.08139e-19)
(1.97006 1.6621 5.35854e-19)
(2.33622 1.72311 1.22155e-18)
(2.5418 1.77987 0)
(2.35751 1.97753 0)
(2.24102 1.83827 0)
(3.44831 1.89776 5.61635e-19)
(3.2244 1.68378 -1.58865e-18)
(3.26522 1.8241 1.37163e-18)
(3.36 1.59507 -1.28438e-18)
(3.67749 1.5406 0)
(3.69909 1.7295 -4.00683e-19)
(2.90917 1.2452 -2.3275e-18)
(2.96795 1.18204 -2.97448e-18)
(2.68208 1.23831 1.7868e-18)
(2.59287 1.15462 -1.7373e-18)
(2.81594 1.01078 -1.43358e-18)
(2.62372 1.00501 1.76307e-18)
(3.70726 0.0188497 -1.93278e-18)
(3.71366 0.0199207 4.01026e-18)
(3.59661 0.0159123 2.42687e-18)
(3.6064 0.011058 -2.91467e-18)
(3.63766 0.0389516 0)
(3.66412 0.0254879 -4.7847e-18)
(0.0465997 4.00534 1.50499e-19)
(0.00720146 4.01359 0)
(0.096884 4.01042 1.31739e-18)
(0.104348 4.03309 -1.20071e-18)
(0.0840578 4.0512 6.33778e-19)
(0.0353062 4.03407 0)
(0.0127659 3.99965 0)
(0.00786966 3.97626 -8.93933e-20)
(0.00590902 3.96607 8.00531e-20)
(0.015463 3.97053 1.2725e-20)
(0.000313641 3.98113 -1.43163e-19)
(0.0135517 3.97324 7.99834e-20)
(1.55319 3.49543 -2.0933e-18)
(1.48309 3.51019 2.21034e-18)
(1.37258 3.86974 -1.21197e-18)
(1.35848 3.68715 9.75997e-20)
(1.94546 3.79004 0)
(1.66915 4.00217 -1.01166e-18)
(1.80554 3.90796 9.80971e-19)
(1.5172 3.92425 1.18326e-18)
(1.69666 3.68439 0)
(1.84327 3.63535 0)
(0.994211 3.40014 1.83349e-18)
(0.817477 2.98167 2.44195e-18)
(0.924045 3.10823 -1.67383e-18)
(0.729955 3.1239 -2.81669e-19)
(0.776366 3.49518 5.73571e-19)
(0.664958 3.32799 -1.38636e-18)
(0.951248 1.83542 -1.48731e-18)
(0.930938 1.67663 0)
(0.772969 1.44225 -1.63877e-18)
(1.29907 2.41856 0)
(1.2915 2.49478 0)
(1.59707 2.48745 -1.32093e-18)
(1.32801 2.42994 -1.25869e-18)
(1.27949 2.41957 1.33289e-18)
(1.42075 1.86755 0)
(1.74319 2.085 -7.17302e-19)
(1.82463 2.36807 -1.01625e-18)
(1.64932 2.36337 0)
(1.18888 2.14129 8.70298e-19)
(1.10876 1.96351 0)
(2.60572 2.16159 -2.25483e-18)
(2.82399 2.20829 3.22214e-18)
(2.85561 2.01111 -3.19613e-18)
(2.52739 2.01759 -2.79399e-19)
(2.62042 1.93206 -1.18214e-18)
(1.50673 2.57222 9.67565e-19)
(1.55761 2.63641 -1.65217e-18)
(1.65849 2.61974 2.16919e-18)
(1.8475 2.70861 -1.4098e-18)
(1.86221 2.98302 -1.91397e-18)
(1.70831 2.77188 -1.45767e-19)
(1.74976 2.86537 1.66941e-18)
(1.853 2.83574 1.17352e-19)
(1.92549 2.94986 7.92827e-19)
)
;

boundaryField
{
    wall-4
    {
        type            noSlip;
    }
    velocity-inlet-5
    {
        type            fixedValue;
        value           uniform (3 0 0);
    }
    velocity-inlet-6
    {
        type            fixedValue;
        value           uniform (0 1 0);
    }
    pressure-outlet-7
    {
        type            zeroGradient;
    }
    wall-8
    {
        type            noSlip;
    }
    frontAndBackPlanes
    {
        type            empty;
    }
}


// ************************************************************************* //
