/*--------------------------------*- C++ -*----------------------------------*\
  =========                 |
  \\      /  F ield         | OpenFOAM: The Open Source CFD Toolbox
   \\    /   O peration     | Website:  https://openfoam.org
    \\  /    A nd           | Version:  9
     \\/     M anipulation  |
\*---------------------------------------------------------------------------*/
FoamFile
{
    format      ascii;
    class       volScalarField;
    location    "5.42";
    object      nut;
}
// * * * * * * * * * * * * * * * * * * * * * * * * * * * * * * * * * * * * * //

dimensions      [0 2 -1 0 0 0 0];

internalField   nonuniform List<scalar> 
2268
(
1.48064e-05
1.69221e-05
2.03914e-05
2.27041e-05
2.44199e-05
2.57652e-05
2.68582e-05
2.77661e-05
2.85296e-05
2.91742e-05
2.97233e-05
3.02228e-05
3.06515e-05
3.09993e-05
3.12114e-05
3.1145e-05
3.03926e-05
2.86745e-05
2.69818e-05
2.57251e-05
2.42361e-05
2.17047e-05
1.42815e-05
3.35437e-05
0.00013093
0.000176144
0.000205041
0.000225974
0.000242184
0.000255366
0.000266448
0.000275982
0.000284246
0.000291269
0.000296928
0.000301732
0.00030541
0.000307202
0.000305391
0.000296524
0.000271655
0.000244336
0.000229797
0.000218681
0.000168405
4.59928e-05
3.9718e-05
0.000222496
0.000324763
0.000391515
0.000440001
0.000477404
0.000507488
0.000532398
0.00055341
0.000571245
0.000586248
0.000598436
0.000608439
0.000615556
0.000618119
0.000612748
0.000593157
0.000549006
0.000499654
0.000461521
0.000410426
0.000282313
5.45967e-05
4.4254e-05
0.000287133
0.000441828
0.000545989
0.000622537
0.00068178
0.000729307
0.000768397
0.000801042
0.000828428
0.000851232
0.000869662
0.000884289
0.000894082
0.000896718
0.00088786
0.000860357
0.000805372
0.000739894
0.000673987
0.000574837
0.00037235
6.17162e-05
4.78291e-05
0.000335665
0.000535681
0.000674302
0.000777548
0.000857948
0.000922537
0.000975551
0.00101961
0.00105634
0.00108668
0.00111101
0.00112983
0.00114189
0.0011445
0.00113294
0.00110033
0.00103971
0.000961691
0.00086874
0.000723161
0.00045254
6.8448e-05
5.08063e-05
0.000374294
0.000613188
0.000782834
0.000910802
0.00101115
0.00109203
0.00115843
0.00121351
0.00125925
0.00129685
0.0013268
0.00134958
0.00136384
0.00136673
0.00135354
0.00131803
0.00125473
0.00116657
0.00104988
0.000862235
0.000527024
7.59282e-05
5.33874e-05
0.000406522
0.000679058
0.000876457
0.00102703
0.00114591
0.00124209
0.00132118
0.00138677
0.00144114
0.00148567
0.00152101
0.00154768
0.00156429
0.001568
0.00155431
0.00151755
0.00145278
0.00135745
0.00122217
0.000999098
0.000601661
8.59513e-05
5.56886e-05
0.000434451
0.000736511
0.000958768
0.00112988
0.00126581
0.00137623
0.00146723
0.00154274
0.00160529
0.00165645
0.00169699
0.00172755
0.00174679
0.00175195
0.00173881
0.00170212
0.00163677
0.00153763
0.00138983
0.00114478
0.000699099
0.000101653
1.29034e-05
2.21201e-05
2.58577e-05
2.75274e-05
2.8315e-05
2.86463e-05
2.87985e-05
2.9007e-05
2.92379e-05
2.88995e-05
2.72378e-05
2.51719e-05
2.29618e-05
2.43635e-05
2.72625e-05
2.65042e-05
2.35742e-05
1.98853e-05
2.26547e-05
4.40493e-05
0.000178422
0.000235358
0.000262306
0.000274545
0.000279517
0.000281215
0.000281084
0.000277883
0.000266547
0.000240142
0.000205398
0.000174851
0.000196367
0.000230102
0.000217515
0.000179166
0.000122575
4.76665e-05
5.2973e-05
0.000299104
0.000440047
0.00051136
0.000545519
0.000560257
0.000565422
0.000565089
0.000557516
0.000533656
0.000482471
0.000420653
0.000372195
0.000403429
0.000438222
0.000405887
0.000326162
0.000214556
5.20242e-05
6.08691e-05
0.000385181
0.000603643
0.000721284
0.000780332
0.000807051
0.000816568
0.000815757
0.000803573
0.000769979
0.000703009
0.000626497
0.000571894
0.000595481
0.00061069
0.000553713
0.000438319
0.000278708
5.42885e-05
6.82411e-05
0.000457425
0.000742455
0.000902064
0.000984698
0.00102332
0.00103721
0.00103564
0.00101889
0.000978012
0.000902387
0.000818715
0.000760306
0.000764965
0.000752378
0.000668417
0.000520801
0.000320376
5.5287e-05
7.67592e-05
0.000526077
0.000869914
0.00106454
0.00116701
0.00121596
0.00123361
0.00123101
0.00120995
0.00116357
0.00108398
0.000996474
0.000932207
0.00091297
0.000870269
0.000758012
0.000579112
0.000344533
5.54607e-05
8.89794e-05
0.00060037
0.000996866
0.00121709
0.00133397
0.0013907
0.00141102
0.00140707
0.001382
0.00133135
0.00125016
0.0011597
0.00108691
0.00104236
0.00096983
0.000828754
0.000619187
0.000352747
5.52378e-05
0.000108154
0.000701442
0.00113415
0.00136586
0.00149046
0.00155187
0.00157348
0.00156774
0.0015389
0.00148465
0.00140242
0.00130897
0.00122566
0.00115621
0.00105525
0.000885495
0.000645946
0.000350748
5.48362e-05
5.89231e-05
0.000473448
0.000816666
0.00107405
0.0012745
0.00143509
0.00156639
0.00167506
0.00176543
0.00184032
0.00190152
0.00194998
0.00198601
0.002009
0.00201655
0.00200515
0.00197022
0.00190633
0.0018052
0.00164962
0.00140425
0.00101974
0.000505012
6.25428e-05
0.000516402
0.000904864
0.00120093
0.00143312
0.00162062
0.00177534
0.00190443
0.00201247
0.00210246
0.00217636
0.00223536
0.00227977
0.00230942
0.00232269
0.002317
0.0022886
0.00223209
0.00213998
0.00200175
0.00180171
0.00152815
0.0011972
6.63296e-05
0.000551878
0.000981925
0.00131234
0.00156918
0.00177764
0.00195165
0.00209827
0.00222183
0.00232526
0.00241067
0.00247961
0.00253266
0.00256969
0.00258983
0.00259155
0.00257224
0.0025266
0.0024492
0.00233852
0.00218951
0.00200594
0.00181414
6.94704e-05
0.00057342
0.00104505
0.0014109
0.00168384
0.00190875
0.00210002
0.00226277
0.00240084
0.00251682
0.00261303
0.00269158
0.00275321
0.00279779
0.00282513
0.0028347
0.00282564
0.00279123
0.00272655
0.00264295
0.00253674
0.00241457
0.00230062
7.10929e-05
0.000584044
0.00108743
0.00147435
0.00176292
0.00201033
0.00222146
0.00240129
0.00255398
0.00268228
0.00278926
0.00287761
0.00294774
0.00299918
0.00303254
0.00304841
0.00304742
0.00302176
0.00297045
0.00290782
0.00283329
0.00275307
0.00268707
7.16141e-05
0.00057364
0.00109081
0.00148732
0.00179583
0.00207278
0.00231063
0.00251241
0.00268206
0.00282416
0.00294261
0.00304057
0.00311816
0.00317561
0.00321459
0.00323715
0.0032437
0.00322469
0.00318626
0.00313982
0.00308888
0.00303878
0.00300219
7.09653e-05
0.000546898
0.00108795
0.00150795
0.00183804
0.00213329
0.00238306
0.0025998
0.00278643
0.00294377
0.00307501
0.00318283
0.00326869
0.00333323
0.00337748
0.00340324
0.00341409
0.00340669
0.00338265
0.00334853
0.00331557
0.00329091
0.00326471
7.20827e-05
0.00059807
0.00112434
0.00155273
0.00190615
0.00220775
0.00246495
0.00268902
0.00288458
0.00305241
0.00319415
0.00331127
0.00340529
0.0034769
0.00352693
0.00355816
0.0035759
0.0035796
0.00356887
0.00354959
0.00353163
0.00351669
0.00349821
7.35461e-05
0.000636593
0.00117726
0.00161886
0.00198512
0.00229347
0.00255639
0.00278494
0.00298494
0.00315848
0.00330673
0.00343063
0.00353087
0.0036088
0.00366608
0.0037056
0.00373191
0.00374527
0.00374605
0.00373971
0.00373248
0.0037242
0.00371081
7.47911e-05
0.000657641
0.00122514
0.00168439
0.00206226
0.00237864
0.00264804
0.00288148
0.00308537
0.00326279
0.00341534
0.00354407
0.00364986
0.00373413
0.00379907
0.00384763
0.00388265
0.00390505
0.00391617
0.00392037
0.00392132
0.00391855
0.00390876
7.60507e-05
0.000673603
0.00126384
0.00174031
0.00213047
0.00245655
0.00273396
0.0029736
0.00318226
0.00336376
0.00352036
0.00365356
0.00376471
0.00385551
0.00392825
0.00398543
0.00402899
0.00406025
0.00408083
0.00409374
0.00410106
0.00410233
0.00409606
7.71228e-05
0.000685123
0.00129292
0.00178531
0.00218839
0.00252532
0.00281192
0.00305897
0.00327354
0.00346006
0.00362139
0.00375958
0.00387644
0.00397393
0.00405422
0.00411944
0.00417115
0.00421076
0.00423971
0.00425984
0.00427242
0.00427735
0.00427427
7.80054e-05
0.000694221
0.0013157
0.00182206
0.00223769
0.0025859
0.00288224
0.00313746
0.00335886
0.00355133
0.00371823
0.0038621
0.00398511
0.00408935
0.00417691
0.00424965
0.00430898
0.00435617
0.00439238
0.00441873
0.00443605
0.00444454
0.00444434
7.87361e-05
0.000701517
0.00133456
0.0018537
0.00228145
0.00264032
0.00294629
0.00321004
0.00343882
0.0036379
0.00381105
0.00396115
0.00409061
0.00420162
0.00429616
0.00437597
0.00444236
0.00449631
0.00453884
0.00457071
0.00459247
0.00460449
0.00460707
7.93705e-05
0.0007078
0.00135108
0.00188193
0.00232117
0.00269055
0.00300581
0.00327786
0.00351424
0.00372034
0.00390014
0.00405679
0.00419285
0.00431054
0.0044118
0.00449822
0.00457104
0.00463108
0.00467924
0.00471608
0.00474207
0.00475757
0.00476292
7.99382e-05
0.000713427
0.0013661
0.00190775
0.00235781
0.0027373
0.00306173
0.00334205
0.003586
0.00379918
0.00398578
0.00414907
0.00429171
0.00441591
0.00452356
0.00461615
0.00469485
0.00476042
0.00481365
0.00485504
0.004885
0.00490389
0.00491199
8.04463e-05
0.000718458
0.00137992
0.00193166
0.00239192
0.0027811
0.00311446
0.00340296
0.00365447
0.00387474
0.00406813
0.00423799
0.00438703
0.00451747
0.00463112
0.00472943
0.00481351
0.00488411
0.00494193
0.00498747
0.00502114
0.00504327
0.00505404
8.08956e-05
0.000722844
0.00139258
0.00195386
0.00242379
0.00282224
0.00316428
0.0034608
0.00371977
0.00394706
0.0041471
0.00432334
0.00447851
0.00461482
0.00473404
0.0048376
0.00492656
0.00500173
0.00506369
0.00511302
0.0051501
0.00517524
0.00518857
8.12766e-05
0.000726592
0.00140411
0.00197443
0.00245355
0.0028609
0.0032113
0.00351564
0.00378189
0.00401599
0.00422246
0.00440478
0.00456571
0.00470745
0.00483176
0.00494005
0.00503339
0.00511261
0.00517831
0.00523105
0.00527124
0.00529915
0.00531491
8.15766e-05
0.000729779
0.00141456
0.00199342
0.00248129
0.00289714
0.00325559
0.00356745
0.0038407
0.00408133
0.00429387
0.00448187
0.00464809
0.00479475
0.00492361
0.00503609
0.00513329
0.00521606
0.00528505
0.00534082
0.00538379
0.00541425
0.00543228
8.17921e-05
0.000732449
0.00142397
0.00201089
0.00250706
0.002931
0.00329713
0.00361615
0.00389603
0.00414276
0.00436093
0.0045541
0.00472506
0.00487606
0.00500888
0.00512496
0.00522546
0.00531127
0.00538311
0.00544153
0.005487
0.00551979
0.00554001
8.19217e-05
0.000734619
0.00143239
0.00202688
0.00253089
0.00296248
0.00333585
0.00366159
0.00394762
0.00419996
0.0044232
0.00462094
0.00479601
0.00495069
0.00508682
0.00520589
0.00530912
0.00539748
0.00547174
0.00553248
0.00558019
0.00561518
0.00563756
8.19584e-05
0.00073631
0.00143984
0.00204143
0.00255281
0.00299157
0.00337167
0.00370359
0.00399522
0.00425255
0.00448021
0.00468183
0.0048603
0.00501797
0.00515674
0.00527818
0.0053836
0.00547404
0.00555034
0.00561314
0.00566296
0.00570013
0.00572475
8.1906e-05
0.000737592
0.00144643
0.00205462
0.00257285
0.00301823
0.00340448
0.00374197
0.00403852
0.00430014
0.00453149
0.00473624
0.00491737
0.0050773
0.00521804
0.00534127
0.00544838
0.00554052
0.00561861
0.00568334
0.00573526
0.00577473
0.00580186
8.17805e-05
0.000738556
0.00145225
0.00206653
0.00259103
0.00304241
0.00343415
0.00377649
0.00407723
0.00434237
0.00457661
0.00478371
0.00496674
0.00512823
0.00527032
0.00539483
0.00550326
0.00559686
0.00567664
0.00574335
0.00579757
0.00583967
0.00586973
8.15948e-05
0.000739275
0.00145741
0.0020772
0.00260735
0.00306404
0.00346052
0.00380694
0.00411106
0.0043789
0.00461522
0.00482388
0.00500808
0.00517051
0.00531345
0.00543887
0.00554841
0.00564344
0.00572504
0.00579401
0.00585096
0.00589623
0.00592988
8.13583e-05
0.000739803
0.00146194
0.00208665
0.00262173
0.00308296
0.00348338
0.00383305
0.00413972
0.00440943
0.00464705
0.00485657
0.00504132
0.00520419
0.00534764
0.0054738
0.00558449
0.00568116
0.00576498
0.00583678
0.00589715
0.00594639
0.00598449
8.10766e-05
0.000740162
0.00146583
0.00209478
0.00263402
0.00309896
0.00350249
0.00385458
0.00416297
0.0044338
0.00467202
0.00488178
0.00506663
0.00522964
0.00537351
0.00550054
0.00561269
0.00571155
0.0057983
0.00587378
0.00593854
0.0059928
0.00603642
8.07448e-05
0.00074032
0.00146895
0.00210135
0.00264391
0.00311172
0.00351752
0.00387124
0.00418064
0.00445193
0.00469021
0.00489982
0.00508453
0.00524768
0.00539216
0.00552051
0.00563481
0.00573673
0.00582747
0.0059078
0.0059782
0.00603873
0.0060891
8.0326e-05
0.000740043
0.00147087
0.00210589
0.00265092
0.00312077
0.00352809
0.00388277
0.00419261
0.0044639
0.00470193
0.00491125
0.0050959
0.00525949
0.00540517
0.00553567
0.0056532
0.00575945
0.00585558
0.00594224
0.00601975
0.00608797
0.00614641
7.98165e-05
0.00073849
0.00147063
0.00210746
0.00265417
0.0031254
0.00353368
0.00388889
0.00419886
0.00446999
0.00470775
0.00491698
0.00510201
0.00526674
0.00541461
0.00554852
0.00567076
0.005783
0.00588626
0.005981
0.00606728
0.00614471
0.00621255
7.92937e-05
0.00073391
0.0014667
0.00210496
0.00265287
0.00312502
0.00353394
0.00388952
0.00419961
0.00447073
0.00470857
0.00491825
0.00510446
0.00527145
0.00542292
0.00556194
0.00569082
0.00581109
0.00592355
0.00602835
0.0061252
0.00621338
0.00629186
7.87013e-05
0.00072771
0.00145937
0.00209784
0.00264618
0.00311889
0.00352844
0.00388462
0.00419523
0.00446688
0.00470548
0.00491652
0.0051051
0.00527586
0.00543278
0.00557905
0.00571691
0.00584765
0.00597169
0.00608875
0.00619809
0.00629855
0.00638875
7.80206e-05
0.000720388
0.00144836
0.00208505
0.00263285
0.00310601
0.00351666
0.00387418
0.00418618
0.0044593
0.00469973
0.00491338
0.00510586
0.00528225
0.00544686
0.00560292
0.00575252
0.00589655
0.00603491
0.0061667
0.00629057
0.00640478
0.00650756
7.7211e-05
0.000711105
0.00143192
0.00206427
0.0026107
0.00308486
0.00349786
0.00385819
0.00417301
0.00444895
0.00469258
0.00491035
0.0051085
0.00529267
0.00546747
0.00563621
0.00580066
0.00596121
0.00611707
0.00626648
0.00640719
0.00653664
0.00665256
7.6185e-05
0.000697674
0.00140593
0.00203096
0.00257606
0.00305314
0.00347102
0.00383658
0.00415627
0.00443678
0.00468516
0.00490868
0.00511436
0.00530852
0.00549615
0.00568058
0.0058633
0.00604412
0.00622137
0.00639208
0.00655251
0.00669876
0.00682799
7.47911e-05
0.000676023
0.00136205
0.0019767
0.0025229
0.00300752
0.00343489
0.00380937
0.00413663
0.00442366
0.0046784
0.00490918
0.00512407
0.0053302
0.00553304
0.00573608
0.00594072
0.00614637
0.00635035
0.0065476
0.00673164
0.00689633
0.00703833
7.28088e-05
0.00063555
0.00128225
0.00188637
0.00244213
0.00294392
0.00338838
0.00377688
0.00411487
0.00441039
0.00467283
0.004912
0.00513726
0.00535668
0.00557644
0.00580055
0.00603103
0.00626762
0.00650647
0.00673861
0.0069517
0.00713595
0.00728856
7.12264e-05
0.000542208
0.00112893
0.00173608
0.00232272
0.002859
0.00333162
0.00374031
0.00409218
0.00439772
0.00466862
0.00491658
0.00515243
0.00538538
0.00562254
0.00586929
0.00612979
0.00640595
0.00669325
0.00697499
0.00722435
0.0074269
0.00758439
8.98824e-05
0.000337424
0.000853428
0.00150195
0.00215847
0.00275438
0.00326808
0.00370263
0.00407047
0.00438651
0.00466564
0.00492175
0.00516722
0.00541238
0.00566568
0.00593499
0.00622914
0.00655641
0.00691547
0.00727692
0.00756966
0.00778171
0.00793139
0.000190785
0.000151643
0.000493903
0.0011971
0.00196528
0.00264431
0.00320744
0.00366942
0.00405253
0.00437779
0.00466363
0.0049261
0.0051789
0.00543334
0.00569932
0.00598804
0.00631582
0.00670477
0.00717281
0.00769128
0.00802126
0.00821424
0.00833197
0.000413241
0.000142896
0.000246287
0.000926438
0.00180653
0.00256384
0.00316714
0.00364883
0.00404194
0.0043728
0.0046625
0.0049285
0.00518525
0.00544468
0.00571764
0.006018
0.0063693
0.00681314
0.00742388
0.00835115
0.00862734
0.00872979
0.00877881
0.000104925
9.76085e-05
9.68482e-05
0.000102559
0.000949135
0.00090709
0.000902285
0.000933634
0.00170631
0.00166909
0.00165856
0.00167525
0.00224627
0.00222153
0.00220711
0.00220579
0.00265491
0.00263495
0.00261842
0.00260968
0.00297499
0.0029597
0.0029466
0.00293885
0.00324407
0.00323114
0.0032206
0.00321517
0.0034806
0.00346887
0.00346024
0.00345421
0.00369602
0.00368676
0.00367899
0.00367238
0.00389698
0.00388908
0.00388153
0.00387414
0.00408659
0.00407953
0.004072
0.00406385
0.0042665
0.00426007
0.00425261
0.004244
0.00443799
0.00443214
0.00442488
0.00441612
0.00460209
0.00459687
0.00458996
0.00458128
0.00475937
0.00475485
0.00474843
0.00474002
0.00490992
0.00490617
0.00490035
0.00489233
0.00505348
0.00505055
0.00504538
0.00503787
0.00518951
0.00518742
0.00518296
0.00517603
0.00531732
0.00531608
0.00531238
0.00530609
0.00543616
0.0054358
0.0054329
0.00542732
0.00554536
0.00554592
0.00554387
0.00553912
0.00564446
0.00564601
0.00564493
0.00564111
0.00573336
0.00573603
0.00573607
0.00573336
0.00581244
0.00581643
0.0058178
0.00581644
0.00588268
0.00588826
0.00589125
0.00589155
0.00594573
0.00595325
0.00595823
0.00596055
0.0060039
0.0060138
0.0060212
0.00602598
0.00606017
0.00607294
0.00608324
0.00609095
0.00611804
0.0061342
0.00614791
0.00615904
0.00618141
0.0062015
0.00621912
0.00623413
0.00625443
0.00627892
0.00630088
0.00632017
0.00634133
0.0063706
0.00639722
0.00642104
0.00644628
0.00648056
0.00651199
0.00654042
0.00657337
0.00661267
0.00664882
0.00668169
0.00672648
0.00677054
0.00681101
0.00684785
0.00690934
0.00695753
0.00700156
0.00704148
0.00712562
0.00717678
0.00722307
0.0072647
0.007379
0.00743114
0.00747765
0.00751897
0.00767296
0.00772291
0.00776661
0.00780481
0.00800983
0.00805284
0.0080896
0.00812111
0.00838836
0.00841826
0.00844317
0.00846408
0.00879976
0.00881047
0.00881919
0.00882637
0.000525865
0.00101874
0.00137447
0.00159386
0.00172086
0.00178595
0.00180828
0.00179955
0.00176536
0.0017067
0.00162281
0.00152398
0.00142248
0.00131575
0.00117187
0.000958129
0.000674237
0.000348583
5.39288e-05
0.00117676
0.00148534
0.00173144
0.00190412
0.00201297
0.00207012
0.00208641
0.00207079
0.0020286
0.00196207
0.00187156
0.00176148
0.00163622
0.0014899
0.00130104
0.00104187
0.000720712
0.00036789
5.49962e-05
0.00175879
0.00192433
0.00208145
0.00220517
0.0022883
0.00233037
0.00233545
0.00231056
0.00225945
0.00218367
0.00208457
0.00196281
0.00181799
0.00164324
0.00142396
0.00114317
0.000807084
0.000429462
6.18428e-05
0.00222871
0.00231293
0.00240706
0.0024884
0.00254606
0.00257044
0.00256037
0.00252438
0.00246373
0.00237856
0.00226969
0.00213667
0.00197732
0.0017854
0.00155032
0.00126371
0.000925154
0.000515559
7.31845e-05
0.00261048
0.00265182
0.00270313
0.00274947
0.00278336
0.00279042
0.00276455
0.00271642
0.00264627
0.00255233
0.00243375
0.00229065
0.00212054
0.00191843
0.00167738
0.00139676
0.00106027
0.000612866
8.82225e-05
0.00293495
0.00294948
0.00297159
0.00299037
0.00299707
0.00298463
0.00294652
0.00288833
0.0028088
0.0027059
0.00257793
0.00242361
0.00224093
0.00202812
0.00178105
0.00148567
0.00111036
0.000608793
8.41804e-05
0.00321035
0.00320729
0.00321069
0.00321281
0.00319457
0.00316305
0.00311236
0.0030434
0.00295359
0.00284061
0.00270218
0.00253592
0.00234063
0.00211395
0.00184903
0.00152364
0.00108018
0.0005009
7.8543e-05
0.0034462
0.00343432
0.00342305
0.0034066
0.00337327
0.00332506
0.00326257
0.00318306
0.00308271
0.00295854
0.00280867
0.00263074
0.00242114
0.00217743
0.0018923
0.00154734
0.00110428
0.000546737
7.79009e-05
0.00366174
0.00364241
0.00361911
0.00358699
0.0035396
0.00347744
0.00340273
0.00331232
0.00320015
0.00306251
0.00289844
0.00270556
0.00247974
0.00221887
0.00191634
0.00156107
0.00113166
0.000602568
7.99117e-05
0.00386126
0.0038363
0.00380412
0.00376116
0.00370292
0.00362922
0.00354193
0.00343889
0.00331253
0.00315915
0.00297776
0.00276614
0.0025216
0.00224097
0.0019207
0.0015559
0.00113128
0.000609855
7.9751e-05
0.00404893
0.00401974
0.00398119
0.00393038
0.0038639
0.00378064
0.00368182
0.00356548
0.00342465
0.00325548
0.00305635
0.00282473
0.00255778
0.00225245
0.00190802
0.00152368
0.00109142
0.000584561
7.59472e-05
0.00422764
0.0041952
0.00415199
0.00409519
0.00402191
0.00393069
0.00382186
0.00369335
0.00353948
0.0033561
0.00314105
0.00289059
0.00260054
0.00226806
0.00189268
0.00147441
0.00101418
0.000513429
7.09877e-05
0.00439897
0.00436413
0.00431732
0.00425577
0.00417682
0.00407897
0.00396181
0.00382317
0.00365837
0.00346333
0.00323475
0.00296804
0.00265891
0.00230407
0.0019014
0.00145039
0.000961071
0.000469716
0.000292452
0.00456384
0.00452732
0.00447765
0.00441231
0.00432882
0.00422563
0.00410182
0.00395511
0.00378157
0.00357721
0.00333797
0.00305934
0.00273737
0.00236907
0.00195186
0.0014849
0.000977438
0.000465906
6.87755e-05
0.00472265
0.00468502
0.00463315
0.00456488
0.00447793
0.00437067
0.00424172
0.0040888
0.00390849
0.00369691
0.00345006
0.00316386
0.00283488
0.00246077
0.00203975
0.00157153
0.0010599
0.000524231
7.41606e-05
0.00487531
0.00483708
0.00478366
0.00471323
0.00462376
0.0045135
0.00438079
0.00422333
0.00403801
0.00382125
0.00356927
0.00327843
0.00294573
0.00256912
0.00214719
0.0016788
0.00116217
0.000596433
7.92076e-05
0.0050214
0.00498305
0.00492871
0.00485686
0.00476567
0.00465336
0.00451806
0.00435749
0.00416875
0.00394849
0.00369315
0.00339927
0.00306383
0.00268437
0.0022586
0.00178325
0.00125141
0.000653495
8.30183e-05
0.0051603
0.00512226
0.00506761
0.00499505
0.00490289
0.00478936
0.00465253
0.00449008
0.00429923
0.00407678
0.00381923
0.00352301
0.00318461
0.00280053
0.00236674
0.00187744
0.00132274
0.00069095
8.57697e-05
0.00529127
0.00525395
0.00519958
0.00512697
0.00503457
0.00492064
0.0047832
0.00461993
0.00442807
0.00420445
0.00394548
0.00364722
0.00330539
0.00291505
0.0024701
0.00196226
0.00138004
0.000714624
8.79443e-05
0.00541359
0.00537741
0.00532386
0.00525187
0.00515996
0.00504641
0.00490922
0.00474605
0.00455413
0.00433019
0.00407044
0.00377044
0.00342496
0.00302754
0.00256988
0.00204118
0.00142864
0.000728932
8.99541e-05
0.00552666
0.00549207
0.00543992
0.00536921
0.0052785
0.00516609
0.00502997
0.00486776
0.00467661
0.00445313
0.00419323
0.00389196
0.00354314
0.00313885
0.0026687
0.00211929
0.00147595
0.000740457
9.21895e-05
0.00563019
0.00559768
0.00554755
0.0054788
0.00539002
0.00527952
0.00514524
0.00498476
0.00479515
0.00457284
0.00431347
0.00401157
0.00366018
0.00325017
0.00276944
0.00220235
0.00153207
0.000762591
9.50349e-05
0.0057243
0.00569444
0.00564699
0.00558092
0.00549483
0.00538698
0.0052553
0.00509728
0.00490989
0.00468942
0.00443122
0.00412942
0.00377643
0.00336225
0.00287362
0.00229346
0.00160326
0.000804735
9.86143e-05
0.00580967
0.00578314
0.0057391
0.00567648
0.00559383
0.00548939
0.00536101
0.00520613
0.00502159
0.00480351
0.00454704
0.00424593
0.00389213
0.00347502
0.00298055
0.00239063
0.00168503
0.000859917
0.000102703
0.00588759
0.00586518
0.00582536
0.005767
0.00568859
0.0055883
0.00546392
0.00531277
0.00513161
0.00491639
0.00466203
0.00436199
0.00400771
0.00358813
0.00308832
0.00248889
0.00176717
0.0009137
0.000107204
0.00596004
0.00594265
0.00590793
0.00585467
0.00578129
0.00568588
0.00556615
0.0054193
0.00524197
0.00502995
0.00477793
0.00447908
0.00412451
0.00370243
0.00319691
0.00258671
0.00184559
0.000957809
0.000111963
0.00602963
0.00601823
0.00598954
0.00594224
0.00587468
0.00578487
0.00567042
0.00552844
0.00535541
0.00514692
0.00489742
0.0045998
0.00424473
0.00381975
0.00330789
0.00268598
0.0019243
0.00100145
0.000116411
0.00609954
0.00609514
0.0060734
0.00603292
0.00597194
0.00588843
0.00577989
0.00564332
0.00547501
0.00527035
0.0050235
0.00472699
0.00437105
0.00394254
0.00342347
0.00278888
0.00200577
0.00104729
0.000120406
0.00617337
0.00617694
0.00616302
0.00613011
0.00607643
0.00599985
0.00589783
0.0057672
0.00560407
0.00540355
0.00515947
0.00486393
0.00450663
0.00407376
0.00354632
0.0028977
0.00209182
0.00109637
0.000124209
0.0062549
0.00626731
0.00626193
0.00623723
0.00619142
0.00612235
0.00602739
0.00590326
0.00574582
0.00554987
0.00530879
0.00501415
0.00465501
0.0042168
0.00367952
0.00301498
0.00218416
0.00114906
0.000128554
0.00634798
0.00636984
0.00637348
0.00635741
0.00631988
0.00625877
0.00617141
0.00605437
0.00590328
0.00571251
0.00547491
0.00518134
0.00482003
0.00437547
0.00382659
0.00314368
0.00228486
0.00120642
0.000133665
0.00645624
0.00648783
0.00650066
0.00649337
0.00646432
0.00641148
0.00633219
0.00622291
0.00607898
0.00589432
0.00566107
0.00536917
0.00500575
0.00455405
0.00399167
0.00328735
0.0023966
0.00127025
0.000139421
0.00658303
0.00662419
0.00664595
0.00664721
0.00662656
0.00658214
0.00651135
0.00641058
0.00627488
0.00609764
0.00587017
0.00558125
0.00521646
0.00475734
0.00417965
0.00345033
0.00252255
0.00134219
0.000145896
0.00673131
0.00678128
0.00681121
0.00682037
0.00680772
0.00677166
0.00670973
0.00661828
0.00649214
0.00632414
0.00610464
0.00582096
0.00545668
0.00499083
0.00439652
0.00363817
0.00266661
0.00142364
0.000153577
0.00690355
0.00696089
0.00699762
0.00701358
0.00700818
0.00698018
0.00692735
0.0068461
0.0067311
0.00657469
0.00636624
0.00609136
0.00573109
0.00526094
0.00464989
0.00385842
0.00283445
0.00151704
0.000162914
0.00710169
0.00716417
0.00720572
0.00722686
0.00722759
0.00720709
0.00716344
0.00709325
0.00699116
0.00684918
0.0066558
0.00639488
0.0060444
0.00557514
0.00494973
0.00412191
0.00303487
0.00162686
0.000174104
0.00732706
0.0073916
0.00743532
0.00745957
0.00746496
0.00745112
0.00741653
0.00735812
0.00727073
0.00714635
0.00697294
0.00673288
0.00640091
0.0059419
0.00530919
0.00444469
0.00328196
0.00175998
0.000187474
0.00758021
0.00764284
0.00768555
0.00771047
0.00771874
0.00771046
0.00768454
0.00763835
0.00756725
0.00746364
0.00731563
0.0071049
0.00680357
0.00637015
0.00574542
0.00485141
0.00360018
0.00192825
0.000203798
0.00786064
0.00791669
0.00795484
0.00797779
0.00798703
0.007983
0.00796502
0.00793107
0.00787727
0.00779707
0.00767968
0.00750759
0.00725224
0.00686731
0.00627943
0.00538032
0.00403584
0.00215758
0.000224841
0.0081664
0.00821088
0.00824095
0.00825939
0.00826771
0.0082665
0.00825543
0.00823312
0.00819677
0.0081414
0.00805853
0.00793357
0.00774094
0.00743483
0.00693248
0.00608895
0.00468254
0.00252026
0.000252898
0.00849364
0.00852204
0.00854111
0.00855296
0.00855873
0.00855892
0.00855343
0.00854152
0.00852156
0.00849062
0.00844345
0.00837063
0.00825449
0.00805992
0.007713
0.00705181
0.00573349
0.00323776
0.000291675
0.00883641
0.00884591
0.00885229
0.0088563
0.00885837
0.0088587
0.00885727
0.00885389
0.00884807
0.00883892
0.00882482
0.00880277
0.0087669
0.00870445
0.00858393
0.00831319
0.00757188
0.00519883
0.000343847
)
;

boundaryField
{
    leftWall
    {
        type            nutkWallFunction;
        Cmu             0.09;
        kappa           0.41;
        E               9.8;
        value           nonuniform List<scalar> 
50
(
2.65687e-06
4.0203e-06
4.79799e-06
5.35977e-06
5.79761e-06
6.1592e-06
6.4706e-06
6.74663e-06
7.13146e-06
7.56033e-06
8.01304e-06
6.35123e-06
6.48162e-06
5.59081e-06
1.6094e-06
3.68904e-07
6.09287e-07
8.16373e-07
1.02581e-06
1.20213e-06
1.34659e-06
1.46675e-06
1.57139e-06
1.66469e-06
1.74803e-06
1.82152e-06
1.88346e-06
1.93203e-06
1.96673e-06
1.98715e-06
1.99009e-06
1.98057e-06
1.95945e-06
1.92849e-06
1.88918e-06
1.84246e-06
1.78747e-06
1.71815e-06
1.6338e-06
1.5474e-06
1.44961e-06
1.33729e-06
1.20367e-06
1.03422e-06
8.03689e-07
4.7507e-07
2.12808e-07
3.26911e-06
1.84974e-05
4.87424e-05
)
;
    }
    rightWall
    {
        type            nutkWallFunction;
        Cmu             0.09;
        kappa           0.41;
        E               9.8;
        value           nonuniform List<scalar> 
50
(
4.58259e-06
5.78314e-06
6.31217e-06
6.58494e-06
6.70491e-06
6.72556e-06
6.69749e-06
6.64809e-06
6.53634e-06
6.66427e-06
7.48505e-06
5.37589e-06
7.54081e-06
6.696e-06
4.20168e-06
1.3395e-06
1.68501e-06
1.64665e-06
1.00444e-06
1.7511e-07
9.9471e-09
0
8.83623e-07
1.54575e-06
2.1673e-06
2.61285e-06
2.96283e-06
3.28461e-06
3.64342e-06
4.19203e-06
4.79193e-06
5.43413e-06
6.13704e-06
6.87747e-06
7.54859e-06
8.07038e-06
8.64983e-06
9.33598e-06
1.01111e-05
1.09622e-05
1.19152e-05
1.30734e-05
1.44675e-05
1.61061e-05
1.80448e-05
2.03818e-05
2.33626e-05
2.72816e-05
3.26049e-05
3.962e-05
)
;
    }
    lowerWall
    {
        type            nutkWallFunction;
        Cmu             0.09;
        kappa           0.41;
        E               9.8;
        value           nonuniform List<scalar> 
62
(
9.61027e-07
1.82167e-06
2.29788e-06
2.6092e-06
2.83744e-06
3.0149e-06
3.15817e-06
3.27661e-06
3.37582e-06
3.4593e-06
3.53026e-06
3.59446e-06
3.64943e-06
3.694e-06
3.72133e-06
3.71342e-06
3.61798e-06
3.39708e-06
3.17586e-06
3.01069e-06
2.81361e-06
2.47441e-06
1.44788e-06
1.44788e-06
5.57048e-06
6.61473e-06
7.46367e-06
8.25477e-06
9.12213e-06
1.0268e-05
1.20395e-05
1.2404e-05
1.15782e-05
1.14916e-05
1.21366e-05
1.2543e-06
5.33733e-06
6.42077e-06
7.36227e-06
8.22795e-06
9.21236e-06
1.06049e-05
1.27596e-05
1.2543e-06
2.52953e-06
3.02536e-06
3.24384e-06
3.34621e-06
3.38909e-06
3.40881e-06
3.43612e-06
3.46643e-06
3.42255e-06
3.20555e-06
2.93372e-06
2.64213e-06
2.83544e-06
3.21624e-06
3.11483e-06
2.72767e-06
2.23096e-06
1.71532e-06
)
;
    }
    atmosphere
    {
        type            calculated;
        value           nonuniform List<scalar> 
46
(
0.009
0.000142896
0.000246287
0.000926438
0.00180653
0.00256384
0.00316714
0.00364883
0.00404194
0.0043728
0.0046625
0.0049285
0.00518525
0.00544468
0.00571764
0.006018
0.0063693
0.00681314
0.00742388
0.009
0.009
0.009
0.009
0.009
0.009
0.009
0.009
0.009
0.009
0.009
0.009
0.009
0.009
0.009
0.009
0.009
0.009
0.009
0.009
0.009
0.009
0.009
0.009
0.009
0.009
0.000343847
)
;
    }
    defaultFaces
    {
        type            empty;
    }
}


// ************************************************************************* //
