/*--------------------------------*- C++ -*----------------------------------*\
  =========                 |
  \\      /  F ield         | OpenFOAM: The Open Source CFD Toolbox
   \\    /   O peration     | Website:  https://openfoam.org
    \\  /    A nd           | Version:  9
     \\/     M anipulation  |
\*---------------------------------------------------------------------------*/
FoamFile
{
    format      ascii;
    class       volScalarField;
    location    "5.42";
    object      p;
}
// * * * * * * * * * * * * * * * * * * * * * * * * * * * * * * * * * * * * * //

dimensions      [1 -1 -2 0 0 0 0];

internalField   nonuniform List<scalar> 
2268
(
727.594
727.517
727.509
727.589
727.754
728.003
728.329
728.721
729.168
729.654
730.164
730.679
731.177
731.627
731.985
732.197
732.265
732.245
732.393
732.589
732.884
733.292
733.297
668.759
668.695
668.693
668.78
668.949
669.198
669.52
669.904
670.339
670.81
671.302
671.796
672.266
672.684
673.01
673.209
673.334
673.476
673.751
673.961
674.091
674.314
674.369
609.909
609.858
609.863
609.959
610.134
610.386
610.707
611.086
611.512
611.971
612.447
612.922
613.371
613.767
614.082
614.298
614.48
614.614
614.917
615.11
615.174
615.317
615.398
551.044
550.994
551.003
551.108
551.29
551.547
551.871
552.25
552.673
553.126
553.595
554.06
554.5
554.894
555.224
555.488
555.774
556.18
556.473
556.472
556.372
556.387
556.46
492.161
492.104
492.113
492.224
492.414
492.678
493.008
493.393
493.82
494.275
494.743
495.207
495.65
496.057
496.422
496.758
497.206
498.166
498.456
498.339
498.093
497.539
497.565
433.257
433.189
433.196
433.311
433.509
433.782
434.121
434.516
434.953
435.416
435.89
436.36
436.814
437.243
437.651
438.063
438.634
439.812
440.377
440.305
439.799
438.776
438.712
374.329
374.25
374.254
374.372
374.579
374.862
375.214
375.623
376.075
376.551
377.036
377.516
377.985
378.441
378.892
379.366
379.987
381.136
382.058
382.038
381.237
380.157
379.862
315.375
315.295
315.298
315.419
315.634
315.927
316.294
316.722
317.194
317.687
318.185
318.676
319.162
319.643
320.13
320.645
321.275
322.282
323.23
323.305
322.53
321.732
321.102
734.752
735.406
735.752
735.776
735.575
735.246
734.821
734.325
733.697
732.847
731.847
731.468
731.164
730.356
732.119
732.826
732.842
733.237
733.868
676.388
676.579
676.808
676.854
676.738
676.494
676.127
675.622
674.913
673.994
673.013
672.837
672.82
672.613
673.029
673.68
673.887
674.492
675.4
617.856
617.788
617.849
617.856
617.755
617.542
617.224
616.743
616.03
615.189
614.257
614.218
614.502
614.685
614.331
614.823
615.081
615.785
616.795
559.037
558.996
558.968
558.926
558.819
558.617
558.316
557.885
557.29
556.63
555.834
556.021
557.018
557.075
555.963
556.217
556.308
557.119
558.217
500.058
500.118
500.102
500.036
499.921
499.723
499.469
499.139
498.704
498.38
498.639
498.783
499.827
499.502
497.795
497.769
497.659
498.532
499.73
441.072
441.196
441.229
441.166
441.047
440.85
440.644
440.408
440.152
440.181
441.524
441.837
442.528
441.531
439.651
439.421
439.541
440.068
441.239
382.071
382.276
382.356
382.309
382.191
381.983
381.803
381.658
381.544
381.829
383.657
384.633
384.96
383.116
381.442
381.144
381.723
381.596
382.721
323.076
323.43
323.501
323.471
323.349
323.101
322.924
322.852
322.923
323.393
325.075
326.402
326.427
324.519
323.176
322.906
323.894
323.213
324.269
223.2
223.104
223.096
223.215
223.441
223.75
224.144
224.609
225.122
225.653
226.176
226.688
227.196
227.716
228.253
228.799
229.395
230.15
230.811
230.973
230.694
230.469
230.217
99.4727
99.3255
99.3294
99.4495
99.5886
99.7862
100.125
100.563
101.064
101.6
102.151
102.704
103.246
103.761
104.262
104.778
105.367
106.022
106.542
106.74
106.682
106.555
106.4
19.0566
18.9361
18.9113
18.951
19.0661
19.2256
19.4058
19.5986
19.8085
20.0515
20.3335
20.6355
20.9229
21.1675
21.3841
21.6305
21.974
22.3186
22.5358
22.6278
22.583
22.4933
22.4216
-0.417057
-0.430609
-0.444652
-0.471515
-0.335545
-0.163941
-0.0931214
-0.0605074
-0.0688872
-0.0863478
-0.0982733
-0.109937
-0.128408
-0.14361
-0.162484
-0.196101
-0.247577
-0.372873
-0.561686
-0.543959
-0.517258
-0.516838
-0.552204
-0.762794
-0.762578
-0.765564
-0.76857
-0.740208
-0.703691
-0.677867
-0.652096
-0.637407
-0.630926
-0.623466
-0.616521
-0.615413
-0.621038
-0.636207
-0.659515
-0.672664
-0.704384
-0.745599
-0.749412
-0.754028
-0.767958
-0.755851
-1.06018
-1.06002
-1.0589
-1.04948
-1.06358
-1.08536
-1.10295
-1.11118
-1.11068
-1.10872
-1.10643
-1.10494
-1.10548
-1.10965
-1.11462
-1.11646
-1.11177
-1.08909
-1.05708
-1.05943
-1.05876
-1.04274
-1.01205
-1.26431
-1.26551
-1.26485
-1.2622
-1.27016
-1.27146
-1.27149
-1.27542
-1.27882
-1.28057
-1.28216
-1.28328
-1.28347
-1.28205
-1.27867
-1.2727
-1.26546
-1.26278
-1.25801
-1.25708
-1.24918
-1.23407
-1.2357
-1.39996
-1.39957
-1.39936
-1.40068
-1.40116
-1.40154
-1.40118
-1.40249
-1.40415
-1.40546
-1.40655
-1.40725
-1.4073
-1.4065
-1.40466
-1.40185
-1.39952
-1.3994
-1.39937
-1.39543
-1.39263
-1.39543
-1.40618
-1.52634
-1.52615
-1.52612
-1.52664
-1.52722
-1.5275
-1.52767
-1.52846
-1.52948
-1.53046
-1.53134
-1.53197
-1.53221
-1.53198
-1.53131
-1.5309
-1.53241
-1.53358
-1.53299
-1.53154
-1.53223
-1.53841
-1.53941
-1.65245
-1.65237
-1.65248
-1.65284
-1.65319
-1.65343
-1.65368
-1.65423
-1.65493
-1.65568
-1.65646
-1.65714
-1.65751
-1.65756
-1.65752
-1.65782
-1.65973
-1.66132
-1.6616
-1.66223
-1.66414
-1.66516
-1.66413
-1.77844
-1.77847
-1.77861
-1.77887
-1.77911
-1.77933
-1.77958
-1.77998
-1.78051
-1.78114
-1.78183
-1.78246
-1.78286
-1.78306
-1.78331
-1.78384
-1.78496
-1.786
-1.78664
-1.78754
-1.78857
-1.78897
-1.78863
-1.9043
-1.9044
-1.90453
-1.90477
-1.90496
-1.90517
-1.90541
-1.90575
-1.9062
-1.90676
-1.90732
-1.90779
-1.90818
-1.90851
-1.90889
-1.90943
-1.91023
-1.91101
-1.91161
-1.91229
-1.91294
-1.91332
-1.91324
-2.03007
-2.03019
-2.03035
-2.03054
-2.03072
-2.03092
-2.03117
-2.03151
-2.03192
-2.03236
-2.03278
-2.03318
-2.03356
-2.03393
-2.03435
-2.03488
-2.03555
-2.03627
-2.03692
-2.03746
-2.0379
-2.03812
-2.03809
-2.15576
-2.1559
-2.15607
-2.15624
-2.15641
-2.15661
-2.15685
-2.15717
-2.15753
-2.15788
-2.15822
-2.15858
-2.15895
-2.15933
-2.15975
-2.16024
-2.16083
-2.16152
-2.16218
-2.16267
-2.16299
-2.16307
-2.16303
-2.2814
-2.28156
-2.28172
-2.28188
-2.28205
-2.28224
-2.28246
-2.28273
-2.28303
-2.28333
-2.28365
-2.28398
-2.28433
-2.28469
-2.28509
-2.28553
-2.28604
-2.28661
-2.28718
-2.28765
-2.28789
-2.28795
-2.28798
-2.407
-2.40717
-2.40733
-2.40749
-2.40765
-2.40782
-2.40802
-2.40825
-2.40851
-2.40878
-2.40907
-2.40937
-2.40968
-2.41002
-2.41038
-2.41078
-2.41121
-2.41167
-2.41211
-2.41247
-2.41271
-2.41285
-2.41293
-2.53257
-2.53274
-2.5329
-2.53305
-2.5332
-2.53336
-2.53354
-2.53375
-2.53397
-2.53421
-2.53447
-2.53474
-2.53503
-2.53533
-2.53566
-2.536
-2.53637
-2.53674
-2.5371
-2.5374
-2.53763
-2.53778
-2.53789
-2.6581
-2.65828
-2.65845
-2.65859
-2.65873
-2.65887
-2.65903
-2.65921
-2.65941
-2.65962
-2.65985
-2.66009
-2.66035
-2.66063
-2.66091
-2.66122
-2.66153
-2.66184
-2.66214
-2.66239
-2.6626
-2.66276
-2.66288
-2.78361
-2.7838
-2.78396
-2.7841
-2.78422
-2.78436
-2.7845
-2.78466
-2.78483
-2.78502
-2.78522
-2.78544
-2.78567
-2.78591
-2.78616
-2.78643
-2.78669
-2.78696
-2.78721
-2.78743
-2.78762
-2.78778
-2.7879
-2.9091
-2.90929
-2.90944
-2.90957
-2.90969
-2.90981
-2.90994
-2.91008
-2.91023
-2.91039
-2.91057
-2.91077
-2.91097
-2.91118
-2.91141
-2.91164
-2.91187
-2.9121
-2.91231
-2.91251
-2.91268
-2.91283
-2.91295
-3.03457
-3.03476
-3.03491
-3.03503
-3.03513
-3.03524
-3.03535
-3.03547
-3.03561
-3.03575
-3.03591
-3.03608
-3.03626
-3.03645
-3.03665
-3.03685
-3.03705
-3.03725
-3.03744
-3.03762
-3.03777
-3.03791
-3.03803
-3.16003
-3.1602
-3.16034
-3.16045
-3.16055
-3.16064
-3.16074
-3.16085
-3.16097
-3.1611
-3.16124
-3.16139
-3.16155
-3.16172
-3.16189
-3.16207
-3.16225
-3.16242
-3.16259
-3.16274
-3.16289
-3.16301
-3.16313
-3.28545
-3.28562
-3.28575
-3.28585
-3.28594
-3.28602
-3.28611
-3.28621
-3.28631
-3.28643
-3.28655
-3.28669
-3.28683
-3.28698
-3.28713
-3.28729
-3.28744
-3.2876
-3.28775
-3.28789
-3.28802
-3.28814
-3.28824
-3.41085
-3.41101
-3.41113
-3.41122
-3.4113
-3.41138
-3.41146
-3.41154
-3.41164
-3.41174
-3.41185
-3.41197
-3.4121
-3.41223
-3.41236
-3.4125
-3.41264
-3.41278
-3.41291
-3.41304
-3.41316
-3.41327
-3.41337
-3.53624
-3.53638
-3.53649
-3.53657
-3.53664
-3.53671
-3.53678
-3.53686
-3.53695
-3.53704
-3.53714
-3.53724
-3.53735
-3.53747
-3.53759
-3.53772
-3.53784
-3.53797
-3.53809
-3.5382
-3.53831
-3.53842
-3.53851
-3.66161
-3.66173
-3.66183
-3.6619
-3.66197
-3.66203
-3.66209
-3.66216
-3.66224
-3.66232
-3.66241
-3.66251
-3.66261
-3.66271
-3.66282
-3.66293
-3.66304
-3.66315
-3.66326
-3.66337
-3.66347
-3.66357
-3.66366
-3.78698
-3.78708
-3.78715
-3.78721
-3.78727
-3.78733
-3.78739
-3.78745
-3.78752
-3.78759
-3.78767
-3.78776
-3.78785
-3.78794
-3.78804
-3.78814
-3.78824
-3.78834
-3.78844
-3.78854
-3.78863
-3.78872
-3.78881
-3.91234
-3.91241
-3.91246
-3.91251
-3.91256
-3.91261
-3.91267
-3.91272
-3.91279
-3.91285
-3.91293
-3.913
-3.91308
-3.91317
-3.91326
-3.91335
-3.91344
-3.91353
-3.91362
-3.91371
-3.9138
-3.91388
-3.91396
-4.03769
-4.03774
-4.03776
-4.03778
-4.03783
-4.03788
-4.03793
-4.03799
-4.03804
-4.03811
-4.03817
-4.03824
-4.03831
-4.03839
-4.03847
-4.03855
-4.03863
-4.03872
-4.0388
-4.03888
-4.03896
-4.03904
-4.03912
-4.16304
-4.16306
-4.16304
-4.16306
-4.1631
-4.16315
-4.16319
-4.16324
-4.16329
-4.16335
-4.16341
-4.16347
-4.16354
-4.1636
-4.16368
-4.16375
-4.16382
-4.1639
-4.16398
-4.16406
-4.16413
-4.16421
-4.16428
-4.28837
-4.28837
-4.28835
-4.28835
-4.28837
-4.28841
-4.28845
-4.28849
-4.28854
-4.28859
-4.28864
-4.2887
-4.28875
-4.28882
-4.28888
-4.28895
-4.28901
-4.28908
-4.28916
-4.28923
-4.2893
-4.28937
-4.28944
-4.4137
-4.41367
-4.41364
-4.41364
-4.41365
-4.41367
-4.4137
-4.41373
-4.41377
-4.41382
-4.41387
-4.41392
-4.41397
-4.41402
-4.41408
-4.41414
-4.4142
-4.41427
-4.41433
-4.4144
-4.41447
-4.41454
-4.41461
-4.53901
-4.53895
-4.53892
-4.53891
-4.53891
-4.53891
-4.53894
-4.53897
-4.539
-4.53904
-4.53909
-4.53913
-4.53918
-4.53923
-4.53928
-4.53933
-4.53939
-4.53945
-4.53951
-4.53957
-4.53964
-4.53971
-4.53977
-4.66429
-4.6642
-4.66415
-4.66414
-4.66414
-4.66414
-4.66417
-4.6642
-4.66423
-4.66427
-4.66431
-4.66435
-4.66439
-4.66443
-4.66448
-4.66452
-4.66457
-4.66463
-4.66469
-4.66475
-4.66481
-4.66488
-4.66494
-4.78954
-4.78942
-4.78935
-4.78933
-4.78934
-4.78936
-4.78939
-4.78942
-4.78946
-4.78949
-4.78953
-4.78956
-4.7896
-4.78964
-4.78967
-4.78971
-4.78976
-4.78981
-4.78986
-4.78992
-4.78998
-4.79005
-4.79011
-4.91475
-4.9146
-4.91453
-4.91452
-4.91455
-4.91458
-4.91461
-4.91465
-4.91468
-4.91471
-4.91475
-4.91478
-4.91481
-4.91484
-4.91487
-4.9149
-4.91494
-4.91499
-4.91504
-4.91509
-4.91516
-4.91522
-4.91528
-5.03991
-5.03976
-5.03969
-5.03971
-5.03975
-5.0398
-5.03984
-5.03988
-5.03991
-5.03994
-5.03997
-5.04
-5.04002
-5.04004
-5.04007
-5.04009
-5.04013
-5.04016
-5.04021
-5.04027
-5.04033
-5.0404
-5.04046
-5.16502
-5.16487
-5.16486
-5.16492
-5.16498
-5.16503
-5.16508
-5.16512
-5.16515
-5.16518
-5.1652
-5.16522
-5.16524
-5.16525
-5.16527
-5.16529
-5.16531
-5.16534
-5.16538
-5.16543
-5.16551
-5.16558
-5.16564
-5.29004
-5.28996
-5.29006
-5.29016
-5.29023
-5.29029
-5.29033
-5.29037
-5.2904
-5.29042
-5.29044
-5.29045
-5.29046
-5.29047
-5.29048
-5.29048
-5.29049
-5.29051
-5.29054
-5.2906
-5.29069
-5.29077
-5.29083
-5.41511
-5.41514
-5.41536
-5.41546
-5.41553
-5.41558
-5.41561
-5.41564
-5.41566
-5.41567
-5.41568
-5.41569
-5.41569
-5.41569
-5.41568
-5.41568
-5.41567
-5.41567
-5.41568
-5.41576
-5.41588
-5.41597
-5.41603
-5.54007
-5.54044
-5.54071
-5.54081
-5.54085
-5.54088
-5.54089
-5.54089
-5.54089
-5.54089
-5.54089
-5.54088
-5.54087
-5.54086
-5.54085
-5.54083
-5.5408
-5.54076
-5.54071
-5.54084
-5.54107
-5.54118
-5.54124
-5.6656
-5.66636
-5.66628
-5.66624
-5.66622
-5.6662
-5.66618
-5.66616
-5.66614
-5.66613
-5.66612
-5.6661
-5.66609
-5.66607
-5.66605
-5.66602
-5.66597
-5.66588
-5.66571
-5.6658
-5.66624
-5.66639
-5.66644
232.028
232.119
232.214
232.357
107.017
107.222
107.294
107.269
22.5941
22.6599
22.6826
22.6735
-0.543843
-0.55133
-0.569724
-0.587908
-0.756414
-0.757918
-0.771155
-0.778725
-1.02111
-1.0255
-1.02371
-1.01373
-1.24149
-1.23888
-1.23526
-1.22842
-1.40181
-1.40023
-1.4028
-1.40541
-1.53679
-1.53576
-1.53636
-1.53794
-1.66292
-1.66243
-1.66244
-1.66276
-1.78805
-1.78777
-1.78766
-1.78766
-1.91299
-1.91284
-1.91273
-1.91264
-2.03798
-2.03791
-2.03784
-2.03777
-2.163
-2.16298
-2.16296
-2.16293
-2.288
-2.28801
-2.28802
-2.28802
-2.41298
-2.41301
-2.41303
-2.41306
-2.53796
-2.538
-2.53804
-2.53808
-2.66296
-2.663
-2.66305
-2.66309
-2.78798
-2.78803
-2.78807
-2.78812
-2.91303
-2.91308
-2.91312
-2.91317
-3.0381
-3.03815
-3.0382
-3.03824
-3.1632
-3.16324
-3.16329
-3.16334
-3.28831
-3.28836
-3.2884
-3.28844
-3.41344
-3.41348
-3.41352
-3.41356
-3.53858
-3.53862
-3.53866
-3.5387
-3.66372
-3.66376
-3.6638
-3.66384
-3.78887
-3.78891
-3.78894
-3.78898
-3.91402
-3.91406
-3.91409
-3.91413
-4.03918
-4.03921
-4.03925
-4.03928
-4.16434
-4.16437
-4.1644
-4.16444
-4.2895
-4.28953
-4.28956
-4.28959
-4.41466
-4.41469
-4.41472
-4.41475
-4.53982
-4.53985
-4.53988
-4.53991
-4.66499
-4.66502
-4.66505
-4.66508
-4.79016
-4.79019
-4.79021
-4.79024
-4.91533
-4.91536
-4.91538
-4.91541
-5.0405
-5.04053
-5.04056
-5.04058
-5.16568
-5.16571
-5.16573
-5.16576
-5.29087
-5.29089
-5.29092
-5.29094
-5.41606
-5.41608
-5.4161
-5.41612
-5.54126
-5.54128
-5.54129
-5.5413
-5.66645
-5.66646
-5.66647
-5.66647
231.284
231.517
231.523
231.522
231.535
231.523
231.436
231.325
231.393
231.899
233.093
233.979
233.931
232.775
231.978
232.015
233.39
233.143
233.125
107.023
107.378
107.614
107.879
108.192
108.605
108.97
109.167
109.222
109.251
109.469
109.748
109.868
109.782
109.779
109.921
110.558
110.336
109.329
22.6072
22.7605
22.914
23.1475
23.4462
23.7939
24.172
24.4835
24.5825
24.3529
24.0345
23.9301
24.0679
24.3724
24.6287
24.5831
24.4133
24.0463
23.3599
-0.608295
-0.590131
-0.590814
-0.600211
-0.492937
-0.438262
-0.479839
-0.492927
-0.491816
-0.483233
-0.488073
-0.485532
-0.48405
-0.468137
-0.438281
-0.422234
-0.466351
-0.553945
-0.563121
-0.785083
-0.779044
-0.777918
-0.779071
-0.748
-0.71999
-0.724622
-0.72726
-0.729498
-0.734454
-0.740325
-0.747098
-0.75701
-0.7651
-0.765651
-0.765946
-0.776287
-0.794124
-0.802042
-1.00214
-0.996729
-0.998167
-1.00348
-1.02144
-1.0404
-1.03268
-1.03599
-1.03698
-1.03337
-1.03204
-1.03401
-1.03597
-1.03908
-1.0406
-1.04305
-1.04768
-1.04771
-1.04357
-1.21971
-1.22966
-1.23042
-1.22273
-1.24571
-1.25969
-1.26333
-1.2643
-1.26441
-1.26423
-1.26377
-1.26327
-1.25921
-1.25613
-1.25841
-1.26033
-1.25797
-1.25377
-1.24744
-1.40727
-1.4095
-1.40858
-1.40583
-1.40614
-1.40059
-1.39859
-1.39677
-1.39424
-1.39298
-1.39284
-1.39377
-1.39688
-1.39846
-1.39955
-1.40004
-1.39945
-1.40036
-1.39801
-1.5399
-1.53703
-1.5361
-1.53612
-1.53187
-1.52806
-1.52554
-1.52289
-1.52116
-1.52066
-1.52058
-1.52124
-1.52292
-1.52382
-1.52481
-1.52563
-1.52575
-1.52635
-1.52508
-1.66325
-1.66187
-1.66065
-1.65945
-1.65715
-1.65469
-1.65271
-1.65077
-1.65067
-1.65148
-1.65133
-1.65066
-1.64963
-1.64953
-1.6502
-1.65095
-1.65155
-1.65229
-1.65153
-1.78764
-1.78659
-1.78526
-1.78405
-1.78255
-1.78135
-1.78053
-1.78044
-1.78163
-1.78203
-1.78074
-1.77898
-1.77738
-1.7768
-1.77665
-1.7767
-1.77717
-1.77785
-1.77751
-1.91249
-1.91175
-1.91071
-1.90988
-1.90886
-1.90822
-1.90876
-1.9103
-1.91082
-1.90964
-1.90809
-1.90698
-1.90675
-1.9063
-1.9052
-1.90419
-1.90348
-1.90309
-1.90314
-2.03765
-2.03741
-2.03716
-2.03663
-2.03602
-2.03569
-2.03634
-2.03746
-2.03704
-2.03613
-2.03592
-2.03568
-2.03509
-2.03417
-2.03309
-2.03183
-2.03016
-2.02917
-2.02956
-2.1629
-2.16302
-2.16343
-2.16333
-2.16296
-2.16257
-2.16238
-2.16245
-2.16222
-2.16197
-2.16237
-2.1622
-2.16104
-2.15978
-2.1588
-2.15791
-2.15698
-2.15663
-2.15706
-2.28805
-2.28823
-2.28867
-2.28894
-2.2886
-2.28794
-2.28764
-2.28756
-2.28737
-2.28718
-2.28715
-2.28684
-2.28609
-2.28525
-2.2846
-2.28423
-2.28424
-2.28455
-2.28487
-2.41311
-2.41327
-2.41349
-2.41358
-2.41339
-2.41304
-2.4128
-2.41266
-2.41248
-2.41229
-2.41214
-2.41183
-2.4113
-2.41076
-2.41038
-2.41032
-2.41074
-2.4113
-2.41149
-2.53814
-2.53826
-2.53839
-2.53843
-2.5383
-2.53808
-2.53791
-2.53776
-2.5376
-2.53742
-2.53724
-2.53697
-2.5366
-2.53623
-2.53602
-2.53603
-2.53635
-2.53677
-2.53691
-2.66316
-2.66327
-2.66336
-2.66338
-2.6633
-2.66315
-2.66301
-2.66289
-2.66274
-2.66258
-2.66241
-2.66218
-2.66191
-2.66167
-2.66152
-2.66154
-2.66174
-2.66202
-2.66217
-2.7882
-2.78829
-2.78836
-2.78839
-2.78834
-2.78825
-2.78814
-2.78803
-2.7879
-2.78777
-2.78761
-2.78743
-2.78724
-2.78706
-2.78694
-2.78692
-2.787
-2.78715
-2.78729
-2.91325
-2.91333
-2.91339
-2.91342
-2.91341
-2.91335
-2.91327
-2.91318
-2.91308
-2.91297
-2.91285
-2.91271
-2.91256
-2.91242
-2.9123
-2.91223
-2.91218
-2.9122
-2.91228
-3.03832
-3.0384
-3.03846
-3.03849
-3.03849
-3.03846
-3.03841
-3.03835
-3.03828
-3.0382
-3.0381
-3.038
-3.03788
-3.03777
-3.03766
-3.03753
-3.03737
-3.03724
-3.03714
-3.1634
-3.16348
-3.16354
-3.16358
-3.16359
-3.16358
-3.16356
-3.16352
-3.16348
-3.16342
-3.16336
-3.16329
-3.16321
-3.16313
-3.16304
-3.16291
-3.16272
-3.16258
-3.16234
-3.28851
-3.28859
-3.28865
-3.28869
-3.28871
-3.28872
-3.28872
-3.2887
-3.28868
-3.28866
-3.28863
-3.28859
-3.28856
-3.28852
-3.28847
-3.2884
-3.2883
-3.28832
-3.28814
-3.41363
-3.4137
-3.41377
-3.41381
-3.41385
-3.41387
-3.41389
-3.41389
-3.41389
-3.41389
-3.41389
-3.4139
-3.4139
-3.41391
-3.41393
-3.41396
-3.41397
-3.4142
-3.41401
-3.53876
-3.53883
-3.5389
-3.53895
-3.539
-3.53903
-3.53906
-3.53908
-3.53911
-3.53913
-3.53916
-3.53919
-3.53924
-3.5393
-3.53938
-3.53949
-3.53964
-3.53991
-3.53973
-3.6639
-3.66397
-3.66404
-3.6641
-3.66415
-3.66419
-3.66424
-3.66428
-3.66432
-3.66436
-3.66442
-3.66448
-3.66456
-3.66466
-3.66479
-3.66497
-3.66521
-3.66546
-3.66535
-3.78904
-3.78911
-3.78918
-3.78925
-3.78931
-3.78936
-3.78941
-3.78947
-3.78953
-3.78959
-3.78966
-3.78975
-3.78985
-3.78998
-3.79014
-3.79036
-3.79064
-3.79086
-3.79088
-3.91419
-3.91426
-3.91433
-3.9144
-3.91446
-3.91453
-3.91459
-3.91466
-3.91473
-3.9148
-3.91489
-3.91499
-3.91511
-3.91525
-3.91542
-3.91563
-3.91587
-3.91598
-3.91595
-4.03934
-4.03941
-4.03949
-4.03956
-4.03962
-4.03969
-4.03976
-4.03984
-4.03992
-4.04001
-4.04011
-4.04022
-4.04034
-4.04049
-4.04064
-4.04081
-4.04095
-4.0409
-4.04056
-4.16449
-4.16457
-4.16464
-4.16471
-4.16478
-4.16486
-4.16493
-4.16501
-4.1651
-4.1652
-4.16531
-4.16542
-4.16555
-4.16569
-4.16583
-4.16595
-4.16601
-4.16587
-4.16542
-4.28965
-4.28972
-4.2898
-4.28987
-4.28994
-4.29002
-4.2901
-4.29019
-4.29028
-4.29038
-4.29049
-4.29062
-4.29074
-4.29087
-4.291
-4.29109
-4.2911
-4.29093
-4.29051
-4.41481
-4.41488
-4.41495
-4.41503
-4.4151
-4.41518
-4.41526
-4.41535
-4.41545
-4.41556
-4.41567
-4.4158
-4.41592
-4.41605
-4.41615
-4.41622
-4.41619
-4.41598
-4.41559
-4.53997
-4.54004
-4.54011
-4.54018
-4.54026
-4.54034
-4.54042
-4.54051
-4.54061
-4.54072
-4.54084
-4.54096
-4.54109
-4.54121
-4.54131
-4.54134
-4.54125
-4.54098
-4.5405
-4.66513
-4.6652
-4.66527
-4.66534
-4.66541
-4.66549
-4.66557
-4.66566
-4.66576
-4.66587
-4.66599
-4.66612
-4.66626
-4.66638
-4.66647
-4.66649
-4.66636
-4.66601
-4.66544
-4.79029
-4.79036
-4.79042
-4.79049
-4.79056
-4.79064
-4.79072
-4.79081
-4.79091
-4.79102
-4.79114
-4.79128
-4.79142
-4.79155
-4.79165
-4.79168
-4.79156
-4.79119
-4.7906
-4.91546
-4.91552
-4.91558
-4.91565
-4.91571
-4.91578
-4.91586
-4.91595
-4.91604
-4.91615
-4.91628
-4.91642
-4.91657
-4.91673
-4.91687
-4.91694
-4.91685
-4.9165
-4.91589
-5.04063
-5.04068
-5.04074
-5.0408
-5.04086
-5.04092
-5.04099
-5.04108
-5.04117
-5.04127
-5.0414
-5.04155
-5.04171
-5.0419
-5.04209
-5.04224
-5.04224
-5.04189
-5.04124
-5.1658
-5.16585
-5.1659
-5.16595
-5.166
-5.16606
-5.16612
-5.16619
-5.16628
-5.16638
-5.1665
-5.16665
-5.16683
-5.16705
-5.16731
-5.16757
-5.1677
-5.16739
-5.16668
-5.29097
-5.29101
-5.29105
-5.2911
-5.29114
-5.29119
-5.29124
-5.2913
-5.29138
-5.29146
-5.29158
-5.29172
-5.2919
-5.29215
-5.29248
-5.29291
-5.29327
-5.29302
-5.29229
-5.41614
-5.41618
-5.41621
-5.41624
-5.41627
-5.41631
-5.41635
-5.4164
-5.41646
-5.41653
-5.41662
-5.41674
-5.41691
-5.41716
-5.41754
-5.41817
-5.41895
-5.41885
-5.41827
-5.54131
-5.54134
-5.54136
-5.54138
-5.5414
-5.54143
-5.54145
-5.54149
-5.54152
-5.54157
-5.54163
-5.54171
-5.54183
-5.54202
-5.54237
-5.54314
-5.54455
-5.545
-5.54505
-5.66648
-5.66649
-5.6665
-5.66652
-5.66653
-5.66654
-5.66656
-5.66657
-5.66659
-5.66661
-5.66663
-5.66667
-5.66671
-5.66681
-5.66701
-5.66757
-5.6692
-5.67126
-5.67297
)
;

boundaryField
{
    leftWall
    {
        type            calculated;
        value           nonuniform List<scalar> 
50
(
727.594
668.759
609.909
551.044
492.161
433.257
374.329
315.375
223.2
99.4727
19.0566
-0.417057
-0.762794
-1.06018
-1.26431
-1.39996
-1.52634
-1.65245
-1.77844
-1.9043
-2.03007
-2.15576
-2.2814
-2.407
-2.53257
-2.6581
-2.78361
-2.9091
-3.03457
-3.16003
-3.28545
-3.41085
-3.53624
-3.66161
-3.78698
-3.91234
-4.03769
-4.16304
-4.28837
-4.4137
-4.53901
-4.66429
-4.78954
-4.91475
-5.03991
-5.16502
-5.29004
-5.41511
-5.54007
-5.6656
)
;
    }
    rightWall
    {
        type            calculated;
        value           nonuniform List<scalar> 
50
(
733.868
675.4
616.795
558.217
499.73
441.239
382.721
324.269
233.125
109.329
23.3599
-0.563121
-0.802042
-1.04357
-1.24744
-1.39801
-1.52508
-1.65153
-1.77751
-1.90314
-2.02956
-2.15706
-2.28487
-2.41149
-2.53691
-2.66217
-2.78729
-2.91228
-3.03714
-3.16234
-3.28814
-3.41401
-3.53973
-3.66535
-3.79088
-3.91595
-4.04056
-4.16542
-4.29051
-4.41559
-4.5405
-4.66544
-4.7906
-4.91589
-5.04124
-5.16668
-5.29229
-5.41827
-5.54505
-5.67297
)
;
    }
    lowerWall
    {
        type            calculated;
        value           nonuniform List<scalar> 
62
(
757.024
756.946
756.939
757.018
757.183
757.432
757.758
758.15
758.597
759.083
759.593
760.108
760.606
761.056
761.414
761.626
761.695
761.674
761.81
761.912
762.208
762.635
762.643
733.297
674.369
615.398
556.46
497.565
438.712
379.862
321.102
294.621
294.71
294.806
294.951
734.752
676.388
617.856
559.037
500.058
441.072
382.071
323.076
763.898
764.62
765.042
765.053
764.79
764.408
763.983
763.486
762.859
762.098
761.254
760.874
760.403
759.188
761.446
762.214
762.23
762.616
763.143
)
;
    }
    atmosphere
    {
        type            calculated;
        value           nonuniform List<scalar> 
46
(
-5.72914
-5.72904
-5.72904
-5.72904
-5.72904
-5.72904
-5.72904
-5.72904
-5.72904
-5.72904
-5.72904
-5.72904
-5.72904
-5.72904
-5.72904
-5.72904
-5.72904
-5.72904
-5.72904
-5.72904
-5.72904
-5.72904
-5.72905
-5.72905
-5.72905
-5.72905
-5.72906
-5.72906
-5.72907
-5.72908
-5.72909
-5.7291
-5.72911
-5.72912
-5.72913
-5.72913
-5.72914
-5.72915
-5.72916
-5.72916
-5.72916
-5.72916
-5.72914
-5.72911
-5.72905
-5.73906
)
;
    }
    defaultFaces
    {
        type            empty;
    }
}


// ************************************************************************* //
