/*--------------------------------*- C++ -*----------------------------------*\
  =========                 |
  \\      /  F ield         | OpenFOAM: The Open Source CFD Toolbox
   \\    /   O peration     | Website:  https://openfoam.org
    \\  /    A nd           | Version:  9
     \\/     M anipulation  |
\*---------------------------------------------------------------------------*/
FoamFile
{
    format      ascii;
    class       surfaceScalarField;
    location    "0.6";
    object      phi;
}
// * * * * * * * * * * * * * * * * * * * * * * * * * * * * * * * * * * * * * //

dimensions      [0 3 -1 0 0 0 0];

internalField   nonuniform List<scalar> 
760
(
1.36329e-08
-1.36327e-08
-1.99175e-08
3.35503e-08
-1.02035e-07
8.21174e-08
-2.17216e-07
1.15181e-07
-3.49333e-07
1.32117e-07
-4.84545e-07
1.35213e-07
-6.10876e-07
1.26331e-07
-7.17302e-07
1.06425e-07
-7.93328e-07
7.60261e-08
-8.29492e-07
3.6164e-08
-8.18623e-07
-1.08686e-08
-7.57947e-07
-6.06763e-08
-6.50741e-07
-1.07206e-07
-5.07727e-07
-1.43014e-07
-3.46934e-07
-1.60792e-07
-1.91769e-07
-1.55165e-07
-6.70298e-08
-1.24739e-07
7.00389e-09
-7.40336e-08
2.33225e-08
-1.63188e-08
2.33224e-08
-3.43964e-08
2.07636e-08
-1.73587e-07
1.72741e-07
-4.0832e-07
3.1685e-07
-7.088e-07
4.15661e-07
-1.04204e-06
4.65359e-07
-1.3765e-06
4.69668e-07
-1.68303e-06
4.32865e-07
-1.93483e-06
3.58226e-07
-2.10776e-06
2.48956e-07
-2.18187e-06
1.10275e-07
-2.1442e-06
-4.8545e-08
-1.99154e-06
-2.13331e-07
-1.73405e-06
-3.64698e-07
-1.39642e-06
-4.80644e-07
-1.01723e-06
-5.39978e-07
-6.4481e-07
-5.27589e-07
-3.29215e-07
-4.40334e-07
-1.11034e-07
-2.92215e-07
-9.04015e-09
-1.18313e-07
1.42825e-08
-9.46132e-08
1.15377e-07
-3.53695e-07
4.31822e-07
-7.39409e-07
7.02564e-07
-1.20688e-06
8.83128e-07
-1.71036e-06
9.68841e-07
-2.20622e-06
9.65532e-07
-2.65382e-06
8.80463e-07
-3.01593e-06
7.20339e-07
-3.25985e-06
4.92878e-07
-3.35959e-06
2.10017e-07
-3.29904e-06
-1.09101e-07
-3.07557e-06
-4.36797e-07
-2.70336e-06
-7.3691e-07
-2.21522e-06
-9.68788e-07
-1.66189e-06
-1.0933e-06
-1.10748e-06
-1.082e-06
-6.20008e-07
-9.27809e-07
-2.5766e-07
-6.54563e-07
-5.30292e-08
-3.22944e-07
-3.87467e-08
-1.52722e-07
2.68099e-07
-5.30374e-07
8.09474e-07
-1.06259e-06
1.23478e-06
-1.68584e-06
1.50638e-06
-2.34234e-06
1.62534e-06
-2.97937e-06
1.60256e-06
-3.54864e-06
1.44973e-06
-4.00638e-06
1.17808e-06
-4.31448e-06
8.00974e-07
-4.44276e-06
3.38293e-07
-4.37215e-06
-1.79712e-07
-4.09843e-06
-7.10517e-07
-3.63591e-06
-1.19942e-06
-3.02034e-06
-1.58436e-06
-2.30962e-06
-1.80403e-06
-1.58049e-06
-1.81112e-06
-9.19221e-07
-1.58908e-06
-4.05778e-07
-1.16801e-06
-9.47531e-08
-6.33968e-07
-1.335e-07
-2.06e-07
4.74099e-07
-6.95239e-07
1.29871e-06
-1.36529e-06
1.90483e-06
-2.13343e-06
2.27452e-06
-2.93063e-06
2.42254e-06
-3.69718e-06
2.36912e-06
-4.37999e-06
2.13254e-06
-4.93146e-06
1.72955e-06
-5.30998e-06
1.17949e-06
-5.48166e-06
5.09976e-07
-5.42311e-06
-2.38259e-07
-5.12502e-06
-1.00861e-06
-4.5968e-06
-1.72765e-06
-3.87142e-06
-2.30973e-06
-3.00934e-06
-2.6661e-06
-2.09854e-06
-2.72192e-06
-1.24687e-06
-2.44076e-06
-5.64064e-07
-1.85081e-06
-1.35981e-07
-1.06205e-06
-2.69481e-07
-2.53705e-07
7.27804e-07
-8.44291e-07
1.8893e-06
-1.64018e-06
2.70072e-06
-2.5409e-06
3.17524e-06
-3.46768e-06
3.34931e-06
-4.35594e-06
3.25738e-06
-5.15019e-06
2.9268e-06
-5.80127e-06
2.38063e-06
-6.26548e-06
1.6437e-06
-6.50519e-06
7.49688e-07
-6.49071e-06
-2.52746e-07
-6.20343e-06
-1.29589e-06
-5.64174e-06
-2.28934e-06
-4.82859e-06
-3.12288e-06
-3.82048e-06
-3.67422e-06
-2.71376e-06
-3.82864e-06
-1.64162e-06
-3.5129e-06
-7.54657e-07
-2.73777e-06
-1.8426e-07
-1.63245e-06
-4.5374e-07
-2.94964e-07
1.02277e-06
-9.73921e-07
2.56826e-06
-1.88024e-06
3.60704e-06
-2.89827e-06
4.19327e-06
-3.94166e-06
4.3927e-06
-4.94333e-06
4.25905e-06
-5.84793e-06
3.8314e-06
-6.60704e-06
3.13973e-06
-7.17647e-06
2.21314e-06
-7.51516e-06
1.08837e-06
-7.58565e-06
-1.82258e-07
-7.3558e-06
-1.52574e-06
-6.80625e-06
-2.83888e-06
-5.94062e-06
-3.98851e-06
-4.80127e-06
-4.81357e-06
-3.48553e-06
-5.14438e-06
-2.15282e-06
-4.8456e-06
-1.00781e-06
-3.88279e-06
-2.49851e-07
-2.39041e-06
-7.03591e-07
-3.28427e-07
1.3512e-06
-1.07967e-06
3.3195e-06
-2.07675e-06
4.60412e-06
-3.19188e-06
5.3084e-06
-4.33374e-06
5.53456e-06
-5.43538e-06
5.36069e-06
-6.44441e-06
4.84043e-06
-7.31592e-06
4.01124e-06
-8.00764e-06
2.90486e-06
-8.47635e-06
1.55708e-06
-8.67717e-06
1.85682e-08
-8.56111e-06
-1.64181e-06
-8.0854e-06
-3.31459e-06
-7.22354e-06
-4.85037e-06
-5.9892e-06
-6.04791e-06
-4.46594e-06
-6.66764e-06
-2.83247e-06
-6.47907e-06
-1.35906e-06
-5.3562e-06
-3.45317e-07
-3.40415e-06
-1.04891e-06
-3.52448e-07
1.70364e-06
-1.15636e-06
4.12342e-06
-2.21919e-06
5.66695e-06
-3.40405e-06
6.49325e-06
-4.61732e-06
6.74783e-06
-5.79505e-06
6.53842e-06
-6.89093e-06
5.93631e-06
-7.86694e-06
4.98725e-06
-8.68605e-06
3.72398e-06
-9.3065e-06
2.17753e-06
-9.67582e-06
3.8789e-07
-9.73277e-06
-1.58486e-06
-9.4055e-06
-3.64186e-06
-8.62854e-06
-5.62733e-06
-7.36967e-06
-7.30678e-06
-5.67487e-06
-8.36244e-06
-3.72116e-06
-8.43278e-06
-1.84513e-06
-7.23223e-06
-4.85593e-07
-4.76368e-06
-1.5345e-06
-3.65782e-07
2.06943e-06
-1.19956e-06
4.9572e-06
-2.29712e-06
6.7645e-06
-3.51497e-06
7.7111e-06
-4.75982e-06
7.99268e-06
-5.9737e-06
7.75231e-06
-7.1197e-06
7.08231e-06
-8.17028e-06
6.03783e-06
-9.09787e-06
4.65156e-06
-9.86658e-06
2.94624e-06
-1.04246e-05
9.45872e-07
-1.06994e-05
-1.31005e-06
-1.05958e-05
-3.74543e-06
-1.00056e-05
-6.21753e-06
-8.8355e-06
-8.47689e-06
-7.06339e-06
-1.01346e-05
-4.82421e-06
-1.0672e-05
-2.49588e-06
-9.56056e-06
-6.88188e-07
-6.57138e-06
-2.22269e-06
-3.68879e-07
2.43831e-06
-1.20842e-06
5.79674e-06
-2.30396e-06
7.86005e-06
-3.507e-06
8.91414e-06
-4.72736e-06
9.21304e-06
-5.91637e-06
8.94131e-06
-7.04985e-06
8.21579e-06
-8.1144e-06
7.10238e-06
-9.09631e-06
5.63347e-06
-9.97186e-06
3.82179e-06
-1.06977e-05
1.67176e-06
-1.12018e-05
-8.06e-07
-1.1377e-05
-3.57019e-06
-1.108e-05
-6.51456e-06
-1.01514e-05
-9.40548e-06
-8.47219e-06
-1.18138e-05
-6.07713e-06
-1.3067e-05
-3.31898e-06
-1.23187e-05
-9.72947e-07
-8.91741e-06
-3.19564e-06
-3.66013e-07
2.80432e-06
-1.19016e-06
6.62089e-06
-2.24282e-06
8.91271e-06
-3.37118e-06
1.00425e-05
-4.49219e-06
1.03341e-05
-5.57088e-06
1.002e-05
-6.59952e-06
9.24444e-06
-7.58212e-06
8.08497e-06
-8.52268e-06
6.57404e-06
-9.41567e-06
4.71478e-06
-1.02362e-05
2.49231e-06
-1.09264e-05
-1.15767e-07
-1.13894e-05
-3.10719e-06
-1.14674e-05
-6.43664e-06
-1.09487e-05
-9.92418e-06
-9.60452e-06
-1.31579e-05
-7.30791e-06
-1.53636e-05
-4.2743e-06
-1.53523e-05
-1.35928e-06
-1.18324e-05
-4.55492e-06
-3.68921e-07
3.17324e-06
-1.16677e-06
7.41874e-06
-2.13402e-06
9.87995e-06
-3.11484e-06
1.10233e-05
-4.04119e-06
1.12604e-05
-4.89902e-06
1.08778e-05
-5.70189e-06
1.00473e-05
-6.47413e-06
8.85721e-06
-7.24003e-06
7.33993e-06
-8.01625e-06
5.491e-06
-8.80422e-06
3.28028e-06
-9.57777e-06
6.57785e-07
-1.02699e-05
-2.41503e-06
-1.07447e-05
-5.96186e-06
-1.07748e-05
-9.89413e-06
-1.00402e-05
-1.38925e-05
-8.21416e-06
-1.71896e-05
-5.23893e-06
-1.83275e-05
-1.85552e-06
-1.52158e-05
-6.41044e-06
-4.03461e-07
3.5767e-06
-1.18477e-06
8.20006e-06
-2.02337e-06
1.07186e-05
-2.7675e-06
1.17674e-05
-3.38093e-06
1.18738e-05
-3.88327e-06
1.13802e-05
-4.31631e-06
1.04803e-05
-4.72778e-06
9.26869e-06
-5.16317e-06
7.77532e-06
-5.66238e-06
5.99021e-06
-6.25589e-06
3.87378e-06
-6.96039e-06
1.36229e-06
-7.75523e-06
-1.62019e-06
-8.56437e-06
-5.15272e-06
-9.19898e-06
-9.25951e-06
-9.30723e-06
-1.37843e-05
-8.37928e-06
-1.81176e-05
-5.97503e-06
-2.07318e-05
-2.43345e-06
-1.87574e-05
-8.84389e-06
-5.22e-07
4.0987e-06
-1.328e-06
9.00606e-06
-1.98596e-06
1.13765e-05
-2.37598e-06
1.21575e-05
-2.52758e-06
1.20254e-05
-2.51455e-06
1.13671e-05
-2.41608e-06
1.03819e-05
-2.30751e-06
9.16012e-06
-2.25407e-06
7.72188e-06
-2.31711e-06
6.05325e-06
-2.55414e-06
4.11081e-06
-3.01933e-06
1.82749e-06
-3.75187e-06
-8.87657e-07
-4.75399e-06
-4.1506e-06
-5.93185e-06
-8.08166e-06
-6.99335e-06
-1.27228e-05
-7.33731e-06
-1.77736e-05
-6.12108e-06
-2.1948e-05
-2.98649e-06
-2.1892e-05
-1.18304e-05
-8.22746e-07
4.92145e-06
-1.72238e-06
9.90569e-06
-2.10048e-06
1.17546e-05
-1.95559e-06
1.20126e-05
-1.44401e-06
1.15139e-05
-7.21599e-07
1.06447e-05
8.4194e-08
9.57608e-06
8.74576e-07
8.36973e-06
1.56101e-06
7.03545e-06
2.06674e-06
5.54751e-06
2.3152e-06
3.86235e-06
2.22422e-06
1.91846e-06
1.7057e-06
-3.69131e-07
6.81803e-07
-3.1267e-06
-8.76778e-07
-6.52308e-06
-2.83175e-06
-1.07678e-05
-4.66115e-06
-1.59442e-05
-5.21411e-06
-2.13951e-05
-3.28743e-06
-2.38187e-05
-1.51178e-05
-1.45874e-06
6.38019e-06
-2.45421e-06
1.09012e-05
-2.27709e-06
1.15775e-05
-1.26709e-06
1.10026e-05
2.02118e-07
1.00446e-05
1.87362e-06
8.97322e-06
3.57405e-06
7.87564e-06
5.17991e-06
6.76388e-06
6.59788e-06
5.61748e-06
7.74413e-06
4.40126e-06
8.53399e-06
3.07249e-06
8.8726e-06
1.57985e-06
8.64169e-06
-1.38213e-07
7.71904e-06
-2.20406e-06
5.96333e-06
-4.76737e-06
3.32375e-06
-8.12824e-06
9.62702e-08
-1.27167e-05
-2.71062e-06
-1.85882e-05
-2.98424e-06
-2.35451e-05
-1.81021e-05
-2.52332e-06
8.90351e-06
-3.02892e-06
1.14068e-05
-1.50414e-06
1.00527e-05
9.6781e-07
8.53064e-06
3.76078e-06
7.25167e-06
6.5725e-06
6.1615e-06
9.23891e-06
5.20924e-06
1.16565e-05
4.34629e-06
1.37496e-05
3.52439e-06
1.54499e-05
2.70099e-06
1.66832e-05
1.83921e-06
1.73602e-05
9.02785e-07
1.73683e-05
-1.46271e-07
1.65593e-05
-1.39504e-06
1.47316e-05
-2.93973e-06
1.16487e-05
-5.04527e-06
7.19285e-06
-8.26091e-06
2.08378e-06
-1.34791e-05
-1.28998e-06
-2.01713e-05
-1.9392e-05
-2.62714e-06
1.15306e-05
-2.70563e-09
8.78232e-06
4.43485e-06
5.61515e-06
8.829e-06
4.13649e-06
1.28589e-05
3.22182e-06
1.64736e-05
2.54675e-06
1.96539e-05
2.02888e-06
2.23894e-05
1.61084e-06
2.46675e-05
1.24625e-06
2.6465e-05
9.03552e-07
2.77417e-05
5.6246e-07
2.8433e-05
2.11524e-07
2.84729e-05
-1.8619e-07
2.7715e-05
-6.37132e-07
2.59612e-05
-1.18591e-06
2.28781e-05
-1.96218e-06
1.79562e-05
-3.33899e-06
1.08852e-05
-6.40811e-06
3.16055e-06
-1.24467e-05
-1.62315e-05
1.15306e-05
2.0313e-05
2.59281e-05
3.00646e-05
3.32864e-05
3.58332e-05
3.78621e-05
3.94729e-05
4.07192e-05
4.16227e-05
4.21852e-05
4.23967e-05
4.22105e-05
4.15734e-05
4.03875e-05
3.84253e-05
3.50863e-05
2.86782e-05
1.62315e-05
)
;

boundaryField
{
    movingWall
    {
        type            calculated;
        value           uniform 0;
    }
    fixedWalls
    {
        type            calculated;
        value           uniform 0;
    }
    frontAndBack
    {
        type            empty;
        value           nonuniform List<scalar> 0();
    }
}


// ************************************************************************* //
