/*--------------------------------*- C++ -*----------------------------------*\
  =========                 |
  \\      /  F ield         | OpenFOAM: The Open Source CFD Toolbox
   \\    /   O peration     | Website:  https://openfoam.org
    \\  /    A nd           | Version:  9
     \\/     M anipulation  |
\*---------------------------------------------------------------------------*/
FoamFile
{
    format      ascii;
    class       volVectorField;
    location    "0.6";
    object      U;
}
// * * * * * * * * * * * * * * * * * * * * * * * * * * * * * * * * * * * * * //

dimensions      [0 1 -1 0 0 0 0];

internalField   nonuniform List<vector> 
400
(
(0.000246245 -0.000246872 0)
(0.000148025 7.99903e-05 0)
(-0.00105114 0.000468962 0)
(-0.00309102 0.00073341 0)
(-0.00562694 0.000872157 0)
(-0.00835762 0.00091128 0)
(-0.0110252 0.000869183 0)
(-0.0134003 0.000752444 0)
(-0.0152668 0.00056093 0)
(-0.016421 0.000296797 0)
(-0.016691 -2.706e-05 0)
(-0.0159705 -0.000382595 0)
(-0.0142597 -0.000722277 0)
(-0.0116974 -0.000986977 0)
(-0.0085757 -0.00111617 0)
(-0.00532091 -0.00106341 0)
(-0.00243176 -0.000813816 0)
(-0.000373712 -0.000402015 0)
(0.000529306 5.94479e-05 0)
(0.00033142 0.000316366 0)
(-8.18946e-05 -0.000164758 0)
(-0.00157434 0.00151633 0)
(-0.00541881 0.00324757 0)
(-0.01094 0.00444983 0)
(-0.0174355 0.00507409 0)
(-0.0242602 0.00518053 0)
(-0.0308064 0.00482778 0)
(-0.036512 0.00405151 0)
(-0.0408622 0.00287827 0)
(-0.0434068 0.00135501 0)
(-0.0438037 -0.000422062 0)
(-0.0418788 -0.00229099 0)
(-0.0376931 -0.00402411 0)
(-0.0315942 -0.00535367 0)
(-0.0242258 -0.00601875 0)
(-0.016483 -0.00583102 0)
(-0.0093888 -0.00474832 0)
(-0.00389508 -0.00294203 0)
(-0.00066577 -0.000869124 0)
(0.000161601 0.00055524 0)
(-0.00055513 0.00111843 0)
(-0.00374037 0.00548293 0)
(-0.0103734 0.00945708 0)
(-0.019172 0.0121759 0)
(-0.0291105 0.0135265 0)
(-0.0393153 0.0135927 0)
(-0.0489454 0.012483 0)
(-0.057215 0.0102905 0)
(-0.0634161 0.00711589 0)
(-0.0669494 0.00311972 0)
(-0.0673791 -0.00142717 0)
(-0.0645041 -0.00611623 0)
(-0.0584302 -0.0104131 0)
(-0.049626 -0.0137093 0)
(-0.0389387 -0.0154233 0)
(-0.0275472 -0.0151414 0)
(-0.0168186 -0.0127774 0)
(-0.0080639 -0.00871379 0)
(-0.00231465 -0.00390199 0)
(-0.000149646 -5.39613e-05 0)
(-0.00100413 0.00360808 0)
(-0.00586215 0.0118885 0)
(-0.0152492 0.0187061 0)
(-0.0271709 0.0231859 0)
(-0.0402563 0.0252531 0)
(-0.0534483 0.025055 0)
(-0.0657458 0.0227713 0)
(-0.0762203 0.0185751 0)
(-0.0840431 0.0126729 0)
(-0.088519 0.00537919 0)
(-0.0891415 -0.00281508 0)
(-0.0856635 -0.0112077 0)
(-0.0781739 -0.0189004 0)
(-0.0671665 -0.0248783 0)
(-0.0535827 -0.0281605 0)
(-0.0387957 -0.0280221 0)
(-0.0244814 -0.0242616 0)
(-0.0123518 -0.0174423 0)
(-0.00393516 -0.00903237 0)
(-0.000416833 -0.0015279 0)
(-0.00140654 0.00721478 0)
(-0.00782543 0.0205997 0)
(-0.0198162 0.0307841 0)
(-0.0346647 0.037163 0)
(-0.0506567 0.0398543 0)
(-0.0665829 0.0391454 0)
(-0.0813353 0.0353246 0)
(-0.0939014 0.0286661 0)
(-0.103382 0.0194971 0)
(-0.109013 0.008296 0)
(-0.110209 -0.00422124 0)
(-0.106629 -0.0170535 0)
(-0.0982543 -0.0289223 0)
(-0.0854922 -0.03836 0)
(-0.0692659 -0.0438951 0)
(-0.0510733 -0.044356 0)
(-0.0329131 -0.0392737 0)
(-0.0170166 -0.0292796 0)
(-0.00560464 -0.0163389 0)
(-0.00064888 -0.00381125 0)
(-0.00176099 0.0118355 0)
(-0.00958851 0.0314499 0)
(-0.0239551 0.0455068 0)
(-0.0414799 0.0539152 0)
(-0.0601353 0.0571484 0)
(-0.0785945 0.0557285 0)
(-0.09569 0.0500995 0)
(-0.110376 0.0406556 0)
(-0.121722 0.0278427 0)
(-0.128911 0.0122838 0)
(-0.131262 -0.00511201 0)
(-0.128274 -0.0230803 0)
(-0.119722 -0.0399761 0)
(-0.105781 -0.053844 0)
(-0.0872109 -0.0626049 0)
(-0.0655257 -0.0644312 0)
(-0.0430434 -0.0583225 0)
(-0.0226653 -0.0447596 0)
(-0.00759642 -0.0261589 0)
(-0.000906125 -0.00695574 0)
(-0.00206349 0.0173506 0)
(-0.011113 0.0442097 0)
(-0.0275597 0.0626083 0)
(-0.0474417 0.0731825 0)
(-0.0684672 0.0769179 0)
(-0.0892348 0.0746717 0)
(-0.108567 0.0670955 0)
(-0.125436 0.0547173 0)
(-0.138922 0.0380838 0)
(-0.148177 0.0179156 0)
(-0.152414 -0.00475622 0)
(-0.15092 -0.0284847 0)
(-0.143148 -0.0513181 0)
(-0.128883 -0.0708099 0)
(-0.108514 -0.0841512 0)
(-0.0833748 -0.0885773 0)
(-0.0560104 -0.0821414 0)
(-0.0301168 -0.0647685 0)
(-0.0102941 -0.0391785 0)
(-0.00127092 -0.0111942 0)
(-0.00230458 0.0236187 0)
(-0.0123482 0.0585898 0)
(-0.0305025 0.0817411 0)
(-0.0523277 0.0946169 0)
(-0.0753274 0.0988638 0)
(-0.0980742 0.0957751 0)
(-0.119436 0.0862648 0)
(-0.13846 0.0710053 0)
(-0.154292 0.0506138 0)
(-0.166092 0.025836 0)
(-0.172985 -0.00228351 0)
(-0.17402 -0.0322305 0)
(-0.168246 -0.0618887 0)
(-0.154892 -0.0883814 0)
(-0.133717 -0.108088 0)
(-0.105561 -0.116987 0)
(-0.0729299 -0.111596 0)
(-0.0403042 -0.0905735 0)
(-0.0141727 -0.0565245 0)
(-0.00184818 -0.0169904 0)
(-0.00247211 0.0304673 0)
(-0.0132348 0.0742343 0)
(-0.0326354 0.102462 0)
(-0.0558638 0.117752 0)
(-0.08028 0.122549 0)
(-0.104483 0.118687 0)
(-0.127444 0.107401 0)
(-0.148354 0.0895191 0)
(-0.16649 0.065695 0)
(-0.181092 0.0366175 0)
(-0.191233 0.00321203 0)
(-0.195778 -0.0331327 0)
(-0.193362 -0.070321 0)
(-0.182528 -0.105219 0)
(-0.16215 -0.133429 0)
(-0.132154 -0.149408 0)
(-0.0944913 -0.147416 0)
(-0.054109 -0.123709 0)
(-0.0197889 -0.0797995 0)
(-0.0027778 -0.0250862 0)
(-0.002559 0.0376919 0)
(-0.0137284 0.0907163 0)
(-0.0338246 0.124215 0)
(-0.0577627 0.141956 0)
(-0.0828163 0.147322 0)
(-0.107663 0.142794 0)
(-0.131442 0.129993 0)
(-0.153553 0.109922 0)
(-0.173486 0.0832399 0)
(-0.190643 0.050501 0)
(-0.204177 0.0123735 0)
(-0.21286 -0.0300962 0)
(-0.215 -0.0750841 0)
(-0.208485 -0.119507 0)
(-0.19114 -0.15842 0)
(-0.161534 -0.184705 0)
(-0.120309 -0.189671 0)
(-0.0720437 -0.165609 0)
(-0.027754 -0.111004 0)
(-0.00425977 -0.0365558 0)
(-0.00257716 0.045075 0)
(-0.0138421 0.107557 0)
(-0.0340183 0.146318 0)
(-0.0578057 0.166392 0)
(-0.0824439 0.172239 0)
(-0.106748 0.16711 0)
(-0.130093 0.153078 0)
(-0.152157 0.131348 0)
(-0.172716 0.102569 0)
(-0.191443 0.0671014 0)
(-0.207706 0.0252444 0)
(-0.220384 -0.0224678 0)
(-0.227696 -0.0747927 0)
(-0.227094 -0.129116 0)
(-0.215418 -0.180435 0)
(-0.189591 -0.220384 0)
(-0.14809 -0.236997 0)
(-0.0937094 -0.216871 0)
(-0.0386427 -0.152252 0)
(-0.00659194 -0.0528659 0)
(-0.00258142 0.0524373 0)
(-0.0137156 0.124283 0)
(-0.0333519 0.167989 0)
(-0.0559657 0.189987 0)
(-0.0788232 0.196006 0)
(-0.100966 0.190188 0)
(-0.122084 0.17513 0)
(-0.142203 0.152261 0)
(-0.161452 0.122224 0)
(-0.179864 0.0851695 0)
(-0.197176 0.0409866 0)
(-0.212607 -0.0104161 0)
(-0.224658 -0.0686484 0)
(-0.230788 -0.132001 0)
(-0.227247 -0.196143 0)
(-0.209403 -0.252329 0)
(-0.172913 -0.285765 0)
(-0.117044 -0.276129 0)
(-0.0527373 -0.205112 0)
(-0.0101983 -0.0759183 0)
(-0.00271294 0.0597457 0)
(-0.0137261 0.140542 0)
(-0.0322944 0.188383 0)
(-0.0525589 0.211424 0)
(-0.0719237 0.216937 0)
(-0.0898216 0.210085 0)
(-0.106384 0.194026 0)
(-0.122053 0.170424 0)
(-0.13736 0.139922 0)
(-0.152753 0.102492 0)
(-0.168447 0.0576538 0)
(-0.184245 0.00470133 0)
(-0.199298 -0.0569355 0)
(-0.211635 -0.126813 0)
(-0.217697 -0.202098 0)
(-0.21193 -0.275049 0)
(-0.187142 -0.329596 0)
(-0.137596 -0.338746 0)
(-0.0694518 -0.26938 0)
(-0.0155699 -0.107955 0)
(-0.00328374 0.0673196 0)
(-0.0146703 0.156276 0)
(-0.0318357 0.20664 0)
(-0.0483833 0.22911 0)
(-0.0621253 0.232928 0)
(-0.07321 0.224369 0)
(-0.0824078 0.207119 0)
(-0.090674 0.183031 0)
(-0.0989709 0.152736 0)
(-0.10817 0.116075 0)
(-0.118999 0.0723141 0)
(-0.131958 0.0202883 0)
(-0.147096 -0.0413652 0)
(-0.163564 -0.113619 0)
(-0.17892 -0.195793 0)
(-0.187901 -0.282756 0)
(-0.181416 -0.359855 0)
(-0.148307 -0.396027 0)
(-0.0863894 -0.34129 0)
(-0.0229681 -0.15104 0)
(-0.00493917 0.0762249 0)
(-0.0180573 0.171962 0)
(-0.0336685 0.221865 0)
(-0.044705 0.24107 0)
(-0.0500562 0.241385 0)
(-0.051176 0.230144 0)
(-0.0497649 0.211367 0)
(-0.0474111 0.186959 0)
(-0.0455252 0.157455 0)
(-0.0453652 0.122613 0)
(-0.0481162 0.081579 0)
(-0.054904 0.0329913 0)
(-0.0667141 -0.0249603 0)
(-0.0840844 -0.0943928 0)
(-0.106405 -0.176899 0)
(-0.130219 -0.271248 0)
(-0.146593 -0.36754 0)
(-0.140203 -0.435918 0)
(-0.0983509 -0.411974 0)
(-0.0317024 -0.206027 0)
(-0.00890863 0.0890799 0)
(-0.0264321 0.188839 0)
(-0.0400065 0.232911 0)
(-0.042493 0.244684 0)
(-0.0354457 0.239071 0)
(-0.0225562 0.224034 0)
(-0.00677572 0.203466 0)
(0.00957893 0.178999 0)
(0.024661 0.150988 0)
(0.0369173 0.119058 0)
(0.0448212 0.0823395 0)
(0.0468019 0.0395144 0)
(0.0411525 -0.0112673 0)
(0.0261589 -0.0726195 0)
(0.000460403 -0.147783 0)
(-0.0354561 -0.239667 0)
(-0.0756213 -0.345977 0)
(-0.103682 -0.445266 0)
(-0.0970209 -0.467531 0)
(-0.0389311 -0.271711 0)
(-0.0170908 0.111833 0)
(-0.042821 0.20852 0)
(-0.0510223 0.237133 0)
(-0.0383059 0.235578 0)
(-0.0123357 0.221337 0)
(0.0199502 0.201713 0)
(0.0542782 0.179625 0)
(0.087806 0.155944 0)
(0.118433 0.130619 0)
(0.144451 0.103073 0)
(0.164225 0.0724544 0)
(0.175996 0.0376269 0)
(0.177669 -0.0029865 0)
(0.166894 -0.0517173 0)
(0.140913 -0.112327 0)
(0.0972155 -0.190606 0)
(0.0364313 -0.292637 0)
(-0.0291657 -0.411955 0)
(-0.0717285 -0.489943 0)
(-0.0382408 -0.342955 0)
(-0.0302403 0.156251 0)
(-0.0644389 0.228102 0)
(-0.0511753 0.223423 0)
(-0.00817038 0.202466 0)
(0.0462593 0.179129 0)
(0.103246 0.156434 0)
(0.158595 0.135021 0)
(0.209836 0.114541 0)
(0.255271 0.0942959 0)
(0.293524 0.073495 0)
(0.323229 0.0513387 0)
(0.342779 0.0269474 0)
(0.350207 -0.000829005 0)
(0.343044 -0.0335128 0)
(0.317846 -0.0741745 0)
(0.270177 -0.128882 0)
(0.195741 -0.209309 0)
(0.0955974 -0.327757 0)
(-0.00795558 -0.45573 0)
(-0.01606 -0.397527 0)
(-0.0282915 0.225709 0)
(-0.0415372 0.224065 0)
(0.0400152 0.168486 0)
(0.132818 0.132197 0)
(0.218147 0.107069 0)
(0.29474 0.0875766 0)
(0.362759 0.0718011 0)
(0.422016 0.0584408 0)
(0.472263 0.0463944 0)
(0.513157 0.0348181 0)
(0.544107 0.023078 0)
(0.564059 0.010633 0)
(0.571764 -0.00300704 0)
(0.56518 -0.0187164 0)
(0.54104 -0.0381527 0)
(0.49439 -0.0648711 0)
(0.417131 -0.108809 0)
(0.2963 -0.194407 0)
(0.132045 -0.333025 0)
(0.0670852 -0.369295 0)
(0.261112 0.136794 0)
(0.323255 0.117617 0)
(0.455012 0.0773987 0)
(0.561713 0.0525567 0)
(0.636896 0.0374819 0)
(0.693514 0.027433 0)
(0.73857 0.0203899 0)
(0.774705 0.0152205 0)
(0.803159 0.0111414 0)
(0.824601 0.00762766 0)
(0.839269 0.00434548 0)
(0.847022 0.00105389 0)
(0.847391 -0.00230171 0)
(0.839319 -0.00605182 0)
(0.821224 -0.0106504 0)
(0.789949 -0.0169798 0)
(0.738108 -0.0276737 0)
(0.647801 -0.0518688 0)
(0.474513 -0.111343 0)
(0.341525 -0.15575 0)
)
;

boundaryField
{
    movingWall
    {
        type            fixedValue;
        value           uniform (1 0 0);
    }
    fixedWalls
    {
        type            noSlip;
    }
    frontAndBack
    {
        type            empty;
    }
}


// ************************************************************************* //
