/*--------------------------------*- C++ -*----------------------------------*\
  =========                 |
  \\      /  F ield         | OpenFOAM: The Open Source CFD Toolbox
   \\    /   O peration     | Website:  https://openfoam.org
    \\  /    A nd           | Version:  9
     \\/     M anipulation  |
\*---------------------------------------------------------------------------*/
FoamFile
{
    format      ascii;
    class       surfaceScalarField;
    location    "0.5";
    object      alphaPhi0.water;
}
// * * * * * * * * * * * * * * * * * * * * * * * * * * * * * * * * * * * * * //

dimensions      [0 3 -1 0 0 0 0];

internalField   nonuniform List<scalar> 
4432
(
-5.15642e-06
5.15642e-06
-7.18215e-06
2.02572e-06
-5.85411e-06
-1.32803e-06
-3.1472e-06
-2.70691e-06
-7.52305e-08
-3.07197e-06
2.9638e-06
-3.03903e-06
5.84018e-06
-2.87638e-06
8.5162e-06
-2.67603e-06
1.09917e-05
-2.47554e-06
1.32692e-05
-2.27743e-06
1.53388e-05
-2.06966e-06
1.71701e-05
-1.83123e-06
1.8701e-05
-1.53097e-06
1.98212e-05
-1.12015e-06
2.03197e-05
-4.98521e-07
1.98236e-05
4.96089e-07
1.79267e-05
1.8969e-06
1.4242e-05
3.68468e-06
8.56255e-06
5.67948e-06
1.1118e-06
7.45076e-06
-6.50465e-06
7.8569e-06
-1.00634e-05
3.401e-06
-1.03892e-05
-3.83992e-06
8.99635e-06
-3.74191e-06
1.9277e-06
-1.96985e-06
-3.10009e-06
5.41243e-07
-5.218e-06
3.30346e-06
-5.83418e-06
6.05016e-06
-5.78573e-06
8.65077e-06
-5.47698e-06
1.10661e-05
-5.09133e-06
1.32871e-05
-4.69655e-06
1.53103e-05
-4.30067e-06
1.71236e-05
-3.88292e-06
1.86969e-05
-3.4046e-06
1.99756e-05
-2.80966e-06
2.08727e-05
-2.01724e-06
2.12743e-05
-9.00105e-07
2.10476e-05
7.22841e-07
1.99327e-05
3.01174e-06
1.75632e-05
6.05424e-06
1.35229e-05
9.71979e-06
7.65625e-06
1.33174e-05
7.11682e-07
1.48913e-05
-3.36672e-06
7.32216e-06
-1.37494e-05
-1.92493e-06
1.09213e-05
-9.66003e-07
9.68773e-07
9.04868e-07
-4.97096e-06
3.25927e-06
-7.57241e-06
5.76485e-06
-8.33976e-06
8.22233e-06
-8.24322e-06
1.05401e-05
-7.79477e-06
1.26866e-05
-7.23786e-06
1.46529e-05
-6.66278e-06
1.64326e-05
-6.08035e-06
1.80119e-05
-5.46223e-06
1.93624e-05
-4.7551e-06
2.04364e-05
-3.88366e-06
2.11629e-05
-2.74379e-06
2.14498e-05
-1.18696e-06
2.11937e-05
9.78929e-07
2.02615e-05
3.94391e-06
1.84915e-05
7.82423e-06
1.57048e-05
1.25066e-05
1.1826e-05
1.71961e-05
7.12069e-06
1.95966e-05
2.38304e-06
1.22683e-05
-1.13599e-05
-9.18111e-08
1.10131e-05
1.43718e-06
-5.60214e-07
3.44776e-06
-6.98156e-06
5.68275e-06
-9.80739e-06
7.94095e-06
-1.0598e-05
1.01079e-05
-1.04102e-05
1.21364e-05
-9.82326e-06
1.40106e-05
-9.11205e-06
1.57239e-05
-8.37604e-06
1.72678e-05
-7.6243e-06
1.86272e-05
-6.82158e-06
1.97752e-05
-5.90317e-06
2.06714e-05
-4.77987e-06
2.12601e-05
-3.33247e-06
2.14709e-05
-1.39771e-06
2.12277e-05
1.22206e-06
2.04595e-05
4.71216e-06
1.91086e-05
9.17508e-06
1.7137e-05
1.44782e-05
1.45012e-05
1.9832e-05
1.10754e-05
2.30224e-05
6.33968e-06
1.70997e-05
-5.02044e-06
1.76339e-06
9.2497e-06
3.67806e-06
-2.47488e-06
5.82792e-06
-9.13142e-06
7.94697e-06
-1.19265e-05
9.94953e-06
-1.26005e-05
1.18166e-05
-1.22773e-05
1.355e-05
-1.15567e-05
1.51508e-05
-1.07128e-05
1.66141e-05
-9.83937e-06
1.79288e-05
-8.93902e-06
1.90781e-05
-7.9709e-06
2.00374e-05
-6.86245e-06
2.07736e-05
-5.51602e-06
2.12459e-05
-3.80475e-06
2.14046e-05
-1.55643e-06
2.11986e-05
1.42805e-06
2.05945e-05
5.31619e-06
1.95909e-05
1.01788e-05
1.82144e-05
1.58546e-05
1.64126e-05
2.16339e-05
1.38344e-05
2.56005e-05
9.09525e-06
2.18389e-05
4.06464e-06
3.1666e-06
6.0831e-06
5.76033e-06
-5.06861e-06
8.08663e-06
-1.14577e-05
1.00692e-05
-1.3909e-05
1.17903e-05
-1.43216e-05
1.33458e-05
-1.38328e-05
1.47844e-05
-1.29952e-05
1.61178e-05
-1.20463e-05
1.73398e-05
-1.10614e-05
1.84349e-05
-1.00341e-05
1.93848e-05
-8.92076e-06
2.01671e-05
-7.64481e-06
2.07568e-05
-6.10566e-06
2.1128e-05
-4.17599e-06
2.12507e-05
-1.67915e-06
2.10945e-05
1.58427e-06
2.06512e-05
5.75948e-06
1.99515e-05
1.08785e-05
1.90564e-05
1.67497e-05
1.7902e-05
2.27883e-05
1.60025e-05
2.75e-05
1.13756e-05
2.64658e-05
1.54326e-05
4.21833e-06
1.86476e-06
7.6995e-06
-8.54978e-06
1.02258e-05
-1.3984e-05
1.20146e-05
-1.56978e-05
1.3418e-05
-1.57249e-05
1.46586e-05
-1.50733e-05
1.58147e-05
-1.41512e-05
1.68972e-05
-1.31287e-05
1.78936e-05
-1.20578e-05
1.87831e-05
-1.09236e-05
1.9546e-05
-9.68366e-06
2.0163e-05
-8.26183e-06
2.06173e-05
-6.55995e-06
2.08988e-05
-4.45744e-06
2.09961e-05
-1.77653e-06
2.08959e-05
1.6845e-06
2.06069e-05
6.04852e-06
2.01805e-05
1.13048e-05
1.97049e-05
1.72254e-05
1.91256e-05
2.33676e-05
1.79379e-05
2.86877e-05
1.36698e-05
3.07339e-05
2.90948e-05
5.17126e-06
-3.3065e-06
9.58774e-06
-1.29655e-05
1.21919e-05
-1.65865e-05
1.36832e-05
-1.71874e-05
1.47499e-05
-1.67884e-05
1.57012e-05
-1.60214e-05
1.66095e-05
-1.5057e-05
1.74719e-05
-1.39894e-05
1.82675e-05
-1.28525e-05
1.89704e-05
-1.16262e-05
1.95619e-05
-1.02749e-05
2.00262e-05
-8.72586e-06
2.03552e-05
-6.88873e-06
2.05553e-05
-4.65749e-06
2.06343e-05
-1.85545e-06
2.05918e-05
1.72697e-06
2.04468e-05
6.19354e-06
2.02656e-05
1.14861e-05
2.01675e-05
1.73234e-05
2.01392e-05
2.33958e-05
1.97876e-05
2.90394e-05
1.67029e-05
3.38186e-05
4.57903e-05
3.52281e-21
-2.2459e-20
2.90378e-21
1.68958e-21
-1.20318e-18
5.18448e-19
-7.59493e-17
2.37345e-17
-8.99729e-16
2.24997e-16
-5.54241e-15
1.02926e-15
-2.37943e-14
3.47806e-15
-7.79007e-14
1.06615e-14
-2.19339e-13
3.6251e-14
-6.52625e-13
1.38607e-13
-2.203e-12
4.89376e-13
-6.88386e-12
9.91865e-13
-1.67526e-11
0
-3.68011e-11
0
-7.75157e-11
0
-1.63104e-10
0
-3.58033e-10
-1.90295e-12
-7.61035e-10
-1.56674e-10
-1.93879e-09
2.73707e-22
-1.13374e-19
-4.72442e-19
3.72003e-19
-3.04622e-17
2.18347e-17
-4.97917e-16
3.08101e-16
-3.78013e-15
1.85659e-15
-1.83028e-14
6.84449e-15
-5.66746e-14
1.92994e-14
-1.43985e-13
5.42041e-14
-4.19214e-13
2.04999e-13
-1.36411e-12
8.77444e-13
-7.51793e-12
3.53827e-12
-2.86802e-11
8.09304e-12
-7.49798e-11
2.72674e-12
-1.86754e-10
0
-4.71395e-10
0
-1.15322e-09
0
-3.03213e-09
0
-5.85093e-09
0
-1.05744e-08
-1.44684e-19
-1.94239e-19
-3.55341e-18
3.19321e-18
-1.00538e-16
8.69165e-17
-1.12335e-15
9.65281e-16
-6.43273e-15
5.0193e-15
-2.26142e-14
1.60446e-14
-5.62363e-14
3.79437e-14
-1.40926e-13
1.04936e-13
-5.52658e-13
4.68268e-13
-2.73631e-12
2.27343e-12
-1.86877e-11
1.1359e-11
-8.21149e-11
3.69473e-11
-1.87274e-10
2.23312e-11
-3.51238e-10
0
-7.75459e-10
0
-2.89303e-09
0
-1.23233e-08
0
-2.96728e-08
0
-5.71831e-08
-5.3387e-19
2.00081e-19
-1.18777e-17
1.62888e-17
-3.13933e-16
3.59893e-16
-4.69053e-15
4.84484e-15
-3.25491e-14
2.83644e-14
-8.42747e-14
6.90137e-14
-1.21087e-13
1.07526e-13
-1.66336e-13
1.92971e-13
-6.49052e-13
7.97428e-13
-4.48928e-12
4.93413e-12
-3.86736e-11
2.84304e-11
-2.56992e-10
1.3615e-10
-6.17655e-10
9.70583e-11
-1.13726e-09
0
-1.98095e-09
0
-4.60162e-09
-1.83227e-10
-2.39348e-08
0
-8.77433e-08
0
-2.21061e-07
-7.50346e-19
8.37592e-19
-3.48061e-17
4.50991e-17
-9.44456e-16
1.18018e-15
-8.9714e-15
1.10872e-14
-3.23386e-14
3.8273e-14
-6.46141e-14
7.4098e-14
-8.06603e-14
1.0239e-13
-1.85977e-13
2.60681e-13
-8.46984e-13
1.64259e-12
-9.26312e-12
1.26015e-11
-6.31422e-11
7.68837e-11
-5.9589e-10
3.31097e-10
-1.7633e-09
1.73516e-10
-3.63197e-09
0
-6.84253e-09
0
-1.34782e-08
-1.96759e-09
-3.21952e-08
-1.65056e-08
-1.73603e-07
0
-6.0607e-07
-1.28847e-18
8.27837e-18
-3.71482e-17
1.41573e-16
-9.64063e-16
1.71426e-15
-6.87454e-15
1.23496e-14
-1.8146e-14
3.20918e-14
-2.37323e-14
4.26505e-14
-4.05977e-14
7.58802e-14
-2.37699e-13
4.04277e-13
-1.80113e-12
3.13849e-12
-2.34913e-11
3.40671e-11
-1.71837e-10
2.23559e-10
-4.32284e-10
5.01255e-10
-3.19426e-09
-9.45717e-11
-8.54149e-09
0
-1.60187e-08
0
-2.35464e-08
-1.8313e-08
-2.83552e-08
-8.92686e-08
-2.41025e-07
-2.5927e-08
-1.30687e-06
8.87919e-19
3.23068e-17
-2.23615e-17
1.67922e-15
-4.74441e-16
6.7179e-15
-2.48859e-15
1.41806e-14
-3.76818e-15
2.3511e-14
-7.96377e-15
3.19555e-14
-1.6769e-13
2.18112e-13
-2.56971e-12
2.80292e-12
-2.07209e-11
2.18998e-11
-7.27055e-12
1.55014e-10
0
3.49219e-10
-1.92446e-10
6.74422e-10
-7.66703e-10
0
1.68753e-08
-2.28022e-08
7.80718e-08
-9.88613e-08
1.44884e-07
-1.95464e-07
1.23169e-07
-3.29702e-07
-7.5514e-08
-3.29666e-07
-2.76913e-06
4.80366e-10
-2.7839e-10
5.7674e-12
5.05014e-10
3.11137e-14
5.7437e-12
3.24213e-16
4.17781e-14
4.71935e-17
4.55195e-15
0
3.13927e-13
0
5.1903e-12
0
2.55757e-11
-4.30843e-12
6.86045e-11
-8.69687e-13
4.66793e-11
1.23913e-10
9.5432e-11
5.56283e-09
-4.86483e-09
1.81043e-07
-1.57552e-07
7.30379e-07
-6.24921e-07
1.37103e-06
-1.01769e-06
1.55419e-06
-1.0394e-06
1.11575e-06
-1.10501e-06
4.5579e-07
-1.12979e-06
-5.22415e-06
1.48698e-05
-1.34269e-05
2.48296e-05
-1.62563e-05
2.91371e-05
-1.39174e-05
3.1428e-05
-1.30777e-05
3.32795e-05
-1.33299e-05
3.50295e-05
-1.37646e-05
3.66793e-05
-1.39705e-05
3.81713e-05
-1.39225e-05
3.94166e-05
-1.35962e-05
4.04038e-05
-1.25872e-05
4.11801e-05
-1.10309e-05
4.17328e-05
-9.25631e-06
4.20661e-05
-7.20231e-06
4.22579e-05
-4.83578e-06
4.23887e-05
-1.98092e-06
4.24895e-05
1.62694e-06
4.26146e-05
6.06851e-06
4.29273e-05
1.11734e-05
4.38187e-05
1.64321e-05
4.5436e-05
2.17785e-05
4.76158e-05
2.68596e-05
5.03495e-05
3.10849e-05
3.61868e-05
5.99518e-05
7.12821e-06
7.26177e-16
7.83296e-06
3.69249e-16
8.28875e-06
1.48907e-16
9.91435e-06
8.34146e-17
1.21292e-05
5.49113e-17
1.47052e-05
8.95501e-14
1.76787e-05
1.95071e-13
2.11624e-05
2.11248e-13
2.50027e-05
9.55513e-14
2.87051e-05
-3.03197e-06
3.19556e-05
-3.4943e-06
3.49829e-05
-3.80058e-06
3.74107e-05
-3.77461e-06
3.90537e-05
-3.31474e-06
3.97532e-05
-1.90266e-06
4.02168e-05
1.16349e-06
4.08517e-05
5.43362e-06
4.17533e-05
1.02718e-05
4.35555e-05
1.463e-05
4.62531e-05
1.90808e-05
4.96415e-05
2.34713e-05
5.36063e-05
2.71201e-05
3.06342e-05
5.91588e-05
-4.30755e-16
1.59835e-15
-3.36262e-16
7.90285e-16
-2.04425e-16
3.89568e-16
-1.38659e-16
2.64055e-16
-9.89348e-17
1.91207e-16
-1.72477e-13
4.46778e-13
-4.087e-13
1.15527e-12
-4.87653e-13
1.6768e-12
-2.42106e-13
1.67576e-12
5.78972e-07
1.39422e-12
2.39217e-06
1.00227e-12
4.96152e-06
5.52396e-13
9.21373e-06
2.36931e-13
1.6392e-05
7.39262e-14
2.61717e-05
7.81394e-15
3.43299e-05
1.86788e-07
3.78948e-05
3.13912e-06
3.99986e-05
8.16802e-06
4.26829e-05
1.19457e-05
4.59747e-05
1.57889e-05
4.9583e-05
1.9863e-05
5.35135e-05
2.31896e-05
2.61525e-05
5.79952e-05
8.99689e-17
1.21527e-15
-1.11751e-16
8.18233e-16
-2.1325e-16
4.49469e-16
-2.32099e-16
3.22808e-16
-2.21092e-16
2.47658e-16
-6.34046e-13
6.63886e-13
-1.93967e-12
1.5706e-12
-3.28234e-12
2.15443e-12
-4.03748e-12
2.16595e-12
-3.90031e-12
1.78357e-12
-3.08115e-12
1.28152e-12
-2.07069e-12
7.80605e-13
-1.17973e-12
3.97575e-13
-5.37114e-13
1.62727e-13
-1.03859e-13
3.27679e-14
1.82333e-06
1.88097e-10
8.98001e-06
1.37855e-08
2.44469e-05
2.30988e-07
3.98594e-05
3.35583e-06
4.58419e-05
9.80638e-06
5.01254e-05
1.55795e-05
5.46948e-05
1.86202e-05
2.15022e-05
5.93451e-05
2.12806e-16
6.56464e-16
6.7264e-17
5.81839e-16
-5.04308e-17
3.61865e-16
-1.22091e-16
2.69548e-16
-1.54778e-16
2.09408e-16
-5.77337e-13
3.14822e-13
-1.77878e-12
7.15425e-13
-3.11926e-12
9.68666e-13
-4.05373e-12
9.87327e-13
-4.28915e-12
8.34466e-13
-3.84841e-12
6.08419e-13
-3.02083e-12
3.81242e-13
-2.10706e-12
1.987e-13
-1.30347e-12
7.28623e-14
-7.22425e-13
4.32271e-15
1.84532e-10
2.84293e-12
1.39612e-08
1.19394e-11
2.4497e-07
1.50153e-10
5.29733e-06
6.92979e-09
1.93027e-05
6.04652e-08
3.92731e-05
7.57729e-07
5.34335e-05
5.94058e-06
1.30929e-05
6.18427e-05
4.65869e-17
3.32142e-16
2.54091e-17
3.09166e-16
-1.36842e-17
2.08601e-16
-4.94731e-17
1.59185e-16
-7.31997e-17
1.24054e-16
-1.6775e-13
9.58107e-17
-5.31269e-13
7.17764e-17
-9.67212e-13
4.99388e-17
-1.31832e-12
2.86621e-17
-1.47964e-12
6.43861e-18
-1.43488e-12
-3.58305e-17
-1.24179e-12
-9.14029e-17
-9.79991e-13
-1.35032e-16
-7.17825e-13
-1.63385e-16
-4.92361e-13
-1.80794e-16
-1.88685e-13
-7.15035e-19
1.17505e-11
-6.05458e-16
1.61898e-10
3.92105e-14
7.11895e-09
2.03444e-11
6.77844e-08
1.11164e-10
1.14654e-06
1.59936e-09
8.00494e-06
1.71757e-08
5.7337e-08
2.29609e-05
1.38957e-17
1.4262e-16
7.08404e-18
1.31063e-16
-4.80075e-18
9.38133e-17
-1.71687e-17
7.08658e-17
-2.6705e-17
5.4424e-17
-3.29603e-17
4.16649e-17
-3.58299e-17
3.06588e-17
-3.45755e-17
1.97764e-17
-2.70379e-17
7.69797e-18
-8.21202e-18
-8.69145e-18
7.82024e-19
-4.48246e-17
2.19681e-18
-9.28177e-17
3.53731e-18
-1.36373e-16
4.64379e-18
-1.64491e-16
2.81675e-18
-1.78967e-16
5.368e-16
-1.8783e-16
7.94917e-16
-3.96471e-16
4.10828e-14
-2.30519e-16
2.04604e-11
-3.86835e-15
1.3167e-10
-1.93126e-14
1.74574e-09
6.00349e-13
1.91863e-08
6.25e-11
1.86314e-10
7.7595e-08
3.35899e-18
5.14938e-17
1.65547e-18
4.63612e-17
-1.46362e-18
3.3969e-17
-4.82948e-18
2.49074e-17
-7.58562e-18
1.84866e-17
-9.58004e-18
1.37116e-17
-1.05319e-17
9.40025e-18
-9.64333e-18
4.50632e-18
-5.19367e-18
-1.19743e-18
1.84316e-17
-2.02803e-17
8.79147e-17
-5.87389e-17
2.27612e-16
-1.1152e-16
4.67948e-16
-1.70623e-16
9.0204e-16
-2.25065e-16
1.84911e-15
-2.94408e-16
4.1726e-15
-4.26815e-16
9.14166e-15
-7.36042e-16
1.04472e-14
-9.48002e-16
1.12071e-14
-1.7223e-15
1.26316e-14
-2.05339e-15
6.24218e-13
-5.76926e-15
6.31352e-11
-5.62656e-15
-6.89932e-15
2.49461e-10
7.05905e-19
1.5687e-17
4.42914e-19
1.42511e-17
-1.90166e-19
1.0259e-17
-9.60858e-19
7.1243e-18
-1.60196e-18
4.98835e-18
-2.07137e-18
3.47628e-18
-2.20653e-18
1.98921e-18
-1.545e-18
-2.40982e-21
2.59453e-18
-3.91495e-18
2.28597e-17
-1.79843e-17
7.87869e-17
-4.11561e-17
1.8467e-16
-6.79209e-17
3.55734e-16
-9.39981e-17
6.66392e-16
-1.26694e-16
1.33649e-15
-1.83227e-16
3.02955e-15
-3.06837e-16
7.08129e-15
-5.71801e-16
1.34039e-14
-1.01514e-15
1.50089e-14
-1.40556e-15
1.59794e-14
-1.21522e-15
1.37915e-14
-1.63859e-15
1.52652e-14
-2.67028e-15
-3.23949e-15
1.64418e-14
2.18456e-19
4.13329e-18
1.89047e-19
3.96091e-18
6.80054e-20
2.6847e-18
-7.94714e-20
1.71334e-18
-2.17202e-19
1.09529e-18
-3.11096e-19
6.8156e-19
-3.01059e-19
2.49675e-19
8.49171e-20
-3.88386e-19
2.3056e-18
-1.83617e-18
9.24932e-18
-4.83212e-18
2.44988e-17
-1.01399e-17
5.10317e-17
-1.61009e-17
9.5025e-17
-2.1932e-17
1.82257e-16
-2.98425e-17
3.87759e-16
-4.53334e-17
9.37133e-16
-8.10043e-17
2.31905e-15
-1.59563e-16
4.87053e-15
-2.89387e-16
7.84298e-15
-4.29411e-16
1.05923e-14
-5.64938e-16
1.40497e-14
-7.63414e-16
1.83687e-14
-1.21994e-15
-2.03391e-15
2.04076e-14
7.61407e-20
9.99452e-19
7.50631e-20
1.02897e-18
4.62533e-20
6.32038e-19
1.73516e-20
3.57501e-19
-6.54778e-21
2.01726e-19
-2.60425e-20
1.03497e-19
-2.08706e-20
7.95435e-21
1.07857e-19
-1.00114e-19
3.79757e-19
-3.43082e-19
1.37636e-18
-9.22109e-19
3.79976e-18
-1.87708e-18
7.8323e-18
-2.82385e-18
1.43387e-17
-3.67017e-18
2.71775e-17
-4.85936e-18
5.8497e-17
-7.4718e-18
1.43227e-16
-1.28067e-17
3.54723e-16
-2.17971e-17
7.33745e-16
-3.55832e-17
1.19039e-15
-5.30948e-17
1.725e-15
-6.64535e-17
2.67223e-15
-6.66079e-17
5.05099e-15
-5.89466e-17
-3.57672e-17
1.01337e-14
2.49734e-20
2.34771e-19
2.41617e-20
2.51556e-19
1.56053e-20
1.36381e-19
8.16465e-21
6.65579e-20
2.90325e-21
3.18233e-20
4.17899e-23
1.19821e-20
-2.19395e-22
-3.7181e-21
7.72862e-21
-2.14634e-20
4.14716e-20
-6.57849e-20
1.66389e-19
-1.65679e-19
4.56497e-19
-3.1351e-19
9.06415e-19
-4.35245e-19
1.59611e-18
-5.21291e-19
2.94109e-18
-6.23059e-19
6.28561e-18
-8.17331e-19
1.40786e-17
-1.19209e-18
2.9362e-17
-1.69428e-18
5.59942e-17
-2.11587e-18
9.15436e-17
-2.37503e-18
1.13937e-16
-2.46778e-18
1.21308e-16
-2.32045e-18
1.00152e-16
-1.88672e-18
-1.60801e-18
2.75755e-17
7.26718e-21
5.32122e-20
6.42744e-21
5.60392e-20
3.83654e-21
2.65805e-20
1.93275e-21
1.10728e-20
6.70997e-22
4.34791e-21
-1.58326e-22
1.10186e-21
-1.1073e-22
-4.93539e-22
2.9252e-22
-3.73578e-21
3.47153e-21
-1.1011e-20
1.62155e-20
-2.54893e-20
4.53472e-20
-4.37644e-20
8.72914e-20
-5.55222e-20
1.44764e-19
-5.976e-20
2.39226e-19
-5.92123e-20
4.2876e-19
-5.5678e-20
8.1412e-19
-5.21204e-20
1.39119e-18
-5.15132e-20
1.99962e-18
-5.32364e-20
2.54046e-18
-5.22986e-20
2.88136e-18
-4.78539e-20
3.07711e-18
-4.59701e-20
2.81174e-18
-4.85679e-20
-7.26922e-20
2.91513e-18
1.80656e-21
1.0853e-20
1.42404e-21
1.07786e-20
7.5241e-22
4.50242e-21
3.30061e-22
1.60593e-21
8.50777e-23
5.07991e-22
-2.04357e-23
8.41908e-23
-4.67919e-23
-1.01523e-22
-1.11909e-22
-5.42091e-22
1.95901e-23
-1.46066e-21
9.23858e-22
-3.11038e-21
3.16202e-21
-4.63918e-21
6.25675e-21
-5.15417e-21
9.70072e-21
-5.02882e-21
1.30372e-20
-4.2237e-21
1.63466e-20
-2.74055e-21
1.97095e-20
-1.29203e-21
2.55136e-20
-6.5666e-22
3.25581e-20
-6.29518e-22
3.7209e-20
-6.78387e-22
4.03816e-20
-8.33263e-22
4.80485e-20
-1.65813e-21
7.41279e-20
-6.60775e-21
-5.19955e-20
2.30593e-19
3.66607e-22
1.8544e-21
2.57507e-22
1.6996e-21
1.19265e-22
6.3667e-22
4.36201e-23
1.97677e-22
7.73035e-24
5.04104e-23
-5.48439e-24
5.67438e-24
-1.12631e-23
-1.19111e-23
-3.2515e-23
-5.9478e-23
-5.55706e-23
-1.49338e-22
-2.15123e-23
-2.87859e-22
1.01321e-22
-3.60064e-22
2.7021e-22
-3.65261e-22
4.53985e-22
-3.17574e-22
5.30125e-22
-2.13762e-22
4.02401e-22
-9.87985e-23
2.27533e-22
-2.97028e-23
2.17837e-22
-1.65957e-23
2.69934e-22
-1.70818e-23
3.84814e-22
-2.1479e-23
6.53197e-22
-5.85261e-23
2.48812e-21
-6.88321e-22
1.99485e-20
-7.13145e-21
-7.25301e-20
1.81388e-19
5.81613e-23
2.4962e-22
3.69646e-23
2.08161e-22
1.51728e-23
7.16727e-23
4.58291e-24
1.99427e-23
5.69294e-25
4.25873e-24
-6.99088e-25
2.06284e-25
-1.55328e-24
-1.13868e-24
-4.74978e-24
-5.04915e-24
-9.89624e-24
-1.17349e-23
-9.80863e-24
-1.99574e-23
-3.65188e-24
-2.1998e-23
5.05493e-24
-2.03401e-23
1.26995e-23
-1.40277e-23
1.29382e-23
-6.72858e-24
6.98552e-24
-2.27454e-24
3.34269e-24
-5.78438e-25
3.80203e-24
-3.87813e-25
5.48077e-24
-5.59961e-25
1.05147e-23
-2.08475e-24
5.60403e-23
-2.26243e-23
1.17314e-21
-5.65913e-22
1.76838e-20
-8.23563e-21
-1.07828e-19
2.33303e-19
6.87904e-24
2.34716e-23
4.05082e-24
1.77912e-23
1.51373e-24
5.73831e-24
3.90395e-25
1.46447e-24
2.13561e-26
2.76492e-25
-6.95543e-26
1.16739e-26
-1.53588e-25
-7.46975e-26
-4.64004e-25
-3.18041e-25
-9.51837e-25
-6.98127e-25
-9.73633e-25
-1.06572e-24
-6.50684e-25
-1.10128e-24
-2.19393e-25
-9.00311e-25
1.06841e-25
-4.59969e-25
1.49575e-25
-1.12995e-25
7.47423e-26
-1.17456e-26
4.64514e-26
-6.3504e-27
6.00785e-26
-1.41657e-26
1.7648e-25
-1.16488e-25
1.27407e-24
-1.01143e-24
2.06729e-23
-1.2811e-23
7.6194e-22
-4.38606e-22
1.58555e-20
-8.89948e-21
-1.5065e-19
2.58975e-19
5.47433e-25
1.14841e-24
3.04496e-25
7.96977e-25
1.05986e-25
2.44077e-25
2.45941e-26
5.77906e-26
1.19533e-27
9.78645e-27
-4.51967e-27
-4.47987e-29
-1.03194e-26
-3.70947e-27
-3.12441e-26
-1.4394e-26
-5.98843e-26
-3.0392e-26
-5.92268e-26
-4.35289e-26
-4.52776e-26
-4.34271e-26
-2.01255e-26
-3.23993e-26
-2.60754e-27
-1.42434e-26
2.71522e-28
-2.74692e-27
2.31155e-28
-2.40421e-28
4.09203e-28
-3.73741e-28
2.57563e-27
-3.8811e-27
3.9735e-26
-5.46283e-26
5.14871e-25
-5.50657e-25
8.81971e-24
-6.76874e-24
4.24285e-22
-2.92264e-22
1.27077e-20
-8.92824e-21
-1.93698e-19
2.72444e-19
2.20776e-26
-7.46845e-37
1.17767e-26
-3.66822e-35
3.86583e-27
-2.22016e-32
8.18622e-28
-3.53579e-30
-4.38897e-30
-2.78184e-29
-5.59282e-29
-4.43168e-29
-4.77183e-28
-1.11124e-28
-1.4255e-27
-4.25888e-28
-2.63139e-27
-8.78081e-28
-2.54394e-27
-1.21917e-27
-2.02463e-27
-1.17937e-27
-9.01151e-28
-8.12065e-28
-1.41612e-28
-3.05307e-28
-3.14532e-30
-4.16537e-29
1.79826e-30
-7.87289e-30
1.86182e-29
-6.91022e-29
5.59972e-28
-1.36156e-27
1.31163e-26
-2.10975e-26
1.94062e-25
-2.54605e-25
3.32549e-24
-3.24733e-24
2.03601e-22
-1.60373e-22
9.56061e-21
-7.74289e-21
-2.19836e-19
2.63729e-19
-7.27923e-37
-1.89226e-38
-3.73236e-35
-8.65147e-38
-2.77982e-32
-6.31038e-35
-1.37313e-30
-8.18582e-33
-3.37242e-30
-4.83737e-32
-4.63522e-30
-2.47197e-31
-1.36811e-29
-1.92826e-30
-4.08359e-29
-6.66902e-30
-7.47711e-29
-1.28626e-29
-7.14488e-29
-1.66798e-29
-5.67342e-29
-1.54208e-29
-2.34029e-29
-9.68104e-30
-2.79645e-30
-3.06552e-30
-2.23782e-31
-2.89585e-31
-1.20187e-31
-8.38182e-31
1.39622e-30
-1.8855e-29
1.06465e-28
-3.93818e-28
3.09409e-27
-7.09293e-27
6.05787e-26
-1.0547e-25
1.15363e-24
-1.47665e-24
8.06282e-23
-7.3369e-23
6.0463e-21
-5.64568e-21
-2.20318e-19
2.36628e-19
-1.80807e-40
-3.82807e-43
-8.49483e-38
-1.42367e-39
-3.84966e-35
-1.47979e-36
-5.26706e-34
-2.76653e-34
-2.93767e-33
-2.10167e-33
-3.32293e-32
-6.3833e-33
-2.11871e-31
-1.82509e-32
-5.94302e-31
-3.05115e-32
-9.83764e-31
-2.67038e-32
-9.57925e-31
-1.29394e-32
-7.18291e-31
-2.24974e-33
-2.6116e-31
-8.71883e-35
-1.32193e-32
-1.72508e-34
-1.08477e-32
-5.04177e-33
-4.44831e-32
-1.66381e-31
-3.36693e-31
-4.42407e-30
1.10511e-29
-1.06057e-28
5.99917e-28
-2.22729e-27
1.66815e-26
-4.03262e-26
3.77099e-25
-6.44051e-25
2.68804e-23
-2.9059e-23
3.26868e-21
-3.53531e-21
-1.79916e-19
1.66866e-19
-3.82801e-43
-6.10985e-48
-1.45217e-39
-2.14852e-44
-8.72213e-37
-2.07063e-41
-2.55278e-35
-2.08694e-38
-1.24296e-34
-1.13433e-35
-5.45892e-34
-1.73857e-34
-1.53261e-33
-6.66383e-34
-1.6055e-33
-1.16615e-33
-1.07798e-33
-1.02428e-33
-2.34636e-34
-4.92667e-34
-4.98661e-36
-8.14131e-35
-4.76316e-36
-2.98807e-36
-1.62323e-35
-2.70625e-35
-5.12579e-34
-1.05418e-33
-1.25064e-32
-3.30873e-32
-2.07326e-31
-9.86145e-31
-9.56908e-31
-2.65245e-29
8.27444e-29
-6.37269e-28
3.88786e-27
-1.38607e-26
1.13303e-25
-2.6138e-25
7.67999e-24
-1.02495e-23
1.5092e-21
-1.90393e-21
-1.28123e-19
1.02388e-19
-6.11016e-48
-3.73456e-52
-2.14901e-44
-1.74271e-48
-2.07377e-41
-2.10235e-45
-1.99451e-38
-2.64419e-42
-1.73218e-36
-1.5294e-39
-1.6795e-35
-2.01006e-38
-5.35882e-35
-5.43183e-38
-5.71717e-35
-5.44149e-38
-3.89256e-35
-2.60869e-38
-8.19916e-36
-6.51345e-39
-1.69668e-37
-5.8902e-39
-1.97595e-37
-7.64021e-38
-3.44212e-36
-3.92751e-36
-1.10254e-34
-1.59523e-34
-3.00003e-33
-5.96575e-33
-6.78388e-32
-1.98311e-31
-1.03816e-30
-5.9942e-30
-9.99997e-31
-1.65637e-28
6.32638e-28
-4.23979e-27
2.84691e-26
-9.53623e-26
1.86545e-24
-3.32118e-24
5.82523e-22
-9.01426e-22
-7.84626e-20
5.3601e-20
-3.73454e-52
-1.43547e-57
-1.74309e-48
-3.78489e-57
-2.106e-45
-5.83654e-54
-2.72929e-42
-6.32626e-51
-2.37428e-40
-4.69094e-48
-1.92568e-39
-4.33882e-45
-2.23799e-39
-9.31403e-43
-1.72569e-39
-8.62423e-42
-3.48417e-40
-2.83789e-41
-3.13938e-40
-5.09672e-41
-3.91597e-40
-2.19392e-40
-1.00071e-38
-1.1038e-38
-4.65711e-37
-5.21661e-37
-1.82533e-35
-2.39707e-35
-6.10989e-34
-9.68738e-34
-1.71363e-32
-3.62e-32
-3.87115e-31
-1.24121e-30
-6.17587e-30
-3.96674e-29
6.16438e-30
-1.19399e-27
4.7968e-27
-3.09582e-26
3.68277e-25
-1.00115e-24
1.84805e-22
-3.87713e-22
-4.28461e-20
2.3073e-20
-4.53501e-60
-1.33156e-58
-3.69977e-57
-2.7449e-59
-5.84233e-54
-2.33884e-57
-6.33227e-51
-3.03579e-54
-4.70843e-48
-2.61492e-51
-3.32825e-45
-1.827e-48
-1.15917e-43
-1.5411e-45
-7.54707e-43
-3.4515e-44
-1.44492e-42
-1.3377e-43
-2.69716e-42
-6.45417e-43
-2.53954e-41
-2.18102e-41
-1.30245e-39
-1.19267e-39
-6.49061e-38
-6.4758e-38
-2.83857e-36
-3.21531e-36
-1.09503e-34
-1.45074e-34
-3.71458e-33
-6.15669e-33
-1.09427e-31
-2.425e-31
-2.84217e-30
-9.01055e-30
-4.28475e-29
-3.13069e-28
-5.27472e-29
-9.21136e-27
4.63434e-26
-3.22244e-25
4.48777e-23
-1.57548e-22
-2.11646e-20
8.02269e-21
-9.54618e-62
-4.39112e-60
-2.01798e-61
-9.25851e-61
-2.31495e-57
-1.28732e-59
-3.02625e-54
-1.55022e-56
-2.61336e-51
-4.17083e-54
-2.04102e-48
-3.37402e-52
-3.35843e-46
-3.88491e-50
-1.97524e-45
-4.1622e-48
-6.46007e-45
-7.21188e-46
-5.22524e-44
-5.92335e-44
-2.39458e-42
-2.16018e-42
-1.43568e-40
-1.23939e-40
-8.04935e-39
-7.28689e-39
-3.96918e-37
-3.99462e-37
-1.79057e-35
-2.03619e-35
-7.31908e-34
-9.92115e-34
-2.72793e-32
-4.54853e-32
-9.4695e-31
-1.95472e-30
-2.20069e-29
-7.67768e-29
-2.80986e-28
-2.7256e-27
-1.57645e-26
-1.71372e-25
5.0781e-24
-7.63643e-23
-9.51087e-21
1.88773e-21
-1.04848e-63
-3.69347e-62
-4.7676e-63
-1.259e-62
-8.75094e-61
-1.26939e-60
-1.50992e-57
-7.37123e-58
-1.72487e-55
-1.57924e-55
-1.9335e-53
-2.85431e-53
-2.10213e-51
-3.52882e-51
-4.86954e-49
-3.82028e-49
-1.02989e-46
-5.78481e-47
-4.71922e-45
-4.15686e-45
-2.27948e-43
-1.60991e-43
-1.47033e-41
-1.15486e-41
-9.13257e-40
-7.40975e-40
-5.14522e-38
-4.60992e-38
-2.72244e-36
-2.68873e-36
-1.35167e-34
-1.51889e-34
-6.24554e-33
-8.13099e-33
-2.56092e-31
-4.01198e-31
-7.27532e-30
-1.87258e-29
-1.90134e-28
-1.04025e-27
-4.13043e-26
-1.21438e-25
-3.90557e-23
-4.39175e-23
-3.96391e-21
-5.55589e-23
8.42845e-66
-7.05148e-64
-5.42319e-65
-2.64466e-64
-4.17369e-62
-1.15491e-61
-2.26081e-59
-3.74887e-59
-7.77229e-57
-8.82753e-57
-1.58844e-54
-1.36325e-54
-1.93252e-52
-1.74195e-52
-4.36927e-50
-1.80996e-50
-6.73306e-48
-1.59874e-48
-2.97116e-46
-1.37763e-46
-1.78304e-44
-1.28203e-44
-1.33997e-42
-9.56281e-43
-9.44576e-41
-6.93357e-41
-6.18673e-39
-4.9076e-39
-3.87415e-37
-3.32811e-37
-2.33278e-35
-2.19785e-35
-1.2709e-33
-1.38093e-33
-5.92431e-32
-8.30153e-32
-2.39193e-30
-5.63185e-30
-1.49852e-28
-5.4378e-28
-5.78909e-26
-8.52447e-26
-3.34281e-23
-2.33695e-23
-1.58477e-21
-6.69283e-22
1.24233e-66
-9.30128e-66
-1.55449e-66
-4.68165e-66
-2.10257e-63
-4.92505e-63
-1.23134e-60
-1.28975e-60
-3.57516e-58
-3.31763e-58
-7.20308e-56
-5.86789e-56
-1.10538e-53
-8.45503e-54
-1.26043e-51
-9.99836e-52
-1.21817e-49
-1.10079e-49
-1.41355e-47
-1.00454e-47
-1.33669e-45
-8.51048e-46
-1.10537e-43
-7.21225e-44
-8.90974e-42
-5.94342e-42
-6.84267e-40
-4.82547e-40
-5.1096e-38
-3.86613e-38
-3.64193e-36
-3.10807e-36
-2.34763e-34
-2.49725e-34
-1.50649e-32
-2.19945e-32
-1.07444e-30
-2.34642e-30
-1.33249e-28
-3.03345e-28
-5.38221e-26
-4.87002e-26
-1.72369e-23
-1.06082e-23
-6.40584e-22
-6.30028e-22
2.94553e-68
-9.77778e-68
-3.67765e-68
-7.49664e-68
-6.75209e-65
-6.43475e-65
-3.81031e-62
-3.76463e-62
-1.27002e-59
-1.08213e-59
-2.90608e-57
-2.04382e-57
-4.82604e-55
-3.25402e-55
-7.2818e-53
-4.20249e-53
-8.8531e-51
-4.7995e-51
-8.90211e-49
-4.90886e-49
-8.689e-47
-4.93183e-47
-8.25794e-45
-4.7612e-45
-7.61755e-43
-4.63385e-43
-6.85124e-41
-4.59029e-41
-6.20222e-39
-4.83456e-39
-5.54297e-37
-5.53705e-37
-5.15026e-35
-6.64989e-35
-6.11266e-33
-8.66581e-33
-6.56808e-31
-1.21618e-30
-1.04459e-28
-1.6879e-28
-3.33567e-26
-2.26513e-26
-7.79469e-24
-4.19659e-24
-2.69928e-22
-4.68419e-22
4.18576e-70
-8.61792e-70
-1.91763e-70
-9.66135e-70
-1.25197e-66
-1.64141e-66
-1.09528e-63
-8.56797e-64
-3.88499e-61
-2.71921e-61
-9.68905e-59
-5.81957e-59
-1.81456e-56
-9.92987e-57
-2.78174e-54
-1.45856e-54
-3.55754e-52
-1.85263e-52
-4.2764e-50
-2.19176e-50
-4.82661e-48
-2.50806e-48
-5.31916e-46
-3.02212e-46
-5.84015e-44
-4.02214e-44
-6.69031e-42
-6.01506e-42
-8.68075e-40
-9.86016e-40
-1.23153e-37
-1.66942e-37
-1.68927e-35
-2.79902e-35
-2.66879e-33
-4.35533e-33
-6.27894e-31
-6.19675e-31
-9.39227e-29
-8.03338e-29
-1.52871e-26
-9.53626e-27
-3.60963e-24
-1.50325e-24
-1.08806e-22
-2.99254e-22
4.33692e-72
-5.5402e-72
-3.55766e-72
-1.21664e-71
-2.76661e-68
-2.55875e-68
-2.40598e-65
-1.54906e-65
-9.74572e-63
-5.25926e-63
-2.56257e-60
-1.27256e-60
-5.34526e-58
-2.43756e-58
-9.02866e-56
-4.00179e-56
-1.32822e-53
-6.05857e-54
-1.76627e-51
-8.92513e-52
-2.32889e-49
-1.40389e-49
-3.32945e-47
-2.62794e-47
-5.4902e-45
-5.78557e-45
-1.07451e-42
-1.37336e-42
-1.98714e-40
-3.0713e-40
-6.51223e-38
-6.12651e-38
-1.78214e-35
-1.08494e-35
-2.81405e-33
-1.70228e-33
-4.05273e-31
-2.37199e-31
-5.36035e-29
-2.94852e-29
-6.60962e-27
-3.29586e-27
-1.71158e-24
-4.65921e-25
-3.52423e-23
-1.43031e-22
2.98426e-74
-2.24584e-74
-5.91505e-74
-1.07663e-73
-4.73298e-70
-3.0268e-70
-4.22424e-67
-2.01302e-67
-1.85275e-64
-7.71951e-65
-5.42048e-62
-2.15702e-62
-1.21374e-59
-4.88513e-60
-2.318e-57
-9.75218e-58
-4.03162e-55
-1.89882e-55
-6.98457e-53
-4.01115e-53
-1.61127e-50
-1.0116e-50
-2.89901e-48
-3.10454e-48
-8.34106e-46
-9.73396e-46
-1.00378e-42
-2.69673e-43
-2.48372e-40
-6.51569e-41
-4.95071e-38
-1.37059e-38
-8.70266e-36
-2.5159e-36
-1.35753e-33
-4.04277e-34
-1.88484e-31
-5.70592e-32
-2.33952e-29
-7.09747e-30
-2.65937e-27
-7.8362e-28
-6.73877e-25
-1.07854e-25
-7.86742e-24
-4.52788e-23
1.15071e-76
-7.83022e-77
-1.04834e-75
-4.69639e-76
-6.06182e-72
-2.24998e-72
-5.5594e-69
-1.80941e-69
-2.65496e-66
-8.45335e-67
-8.76559e-64
-2.84273e-64
-2.27267e-61
-7.68277e-62
-5.25756e-59
-1.89999e-59
-1.33278e-56
-5.10989e-57
-3.67861e-54
-1.60624e-54
-9.14702e-52
-6.12322e-52
-2.31924e-48
-2.42645e-49
-8.87792e-46
-8.44848e-47
-2.49927e-43
-2.54548e-44
-6.02157e-41
-6.63543e-42
-1.25909e-38
-1.49859e-39
-2.29649e-36
-2.93814e-37
-3.66605e-34
-5.01205e-35
-5.14014e-32
-7.4562e-33
-6.35018e-30
-9.69334e-31
-7.09109e-28
-1.10812e-28
-1.73379e-25
-1.57948e-26
-1.10497e-24
-8.90418e-24
2.90962e-79
-7.35339e-79
-1.16026e-77
-2.58296e-78
-5.24432e-74
-9.83741e-75
-5.28654e-71
-1.01498e-71
-2.91107e-68
-5.43901e-69
-1.10085e-65
-2.21612e-66
-3.29895e-63
-7.78836e-64
-1.0563e-60
-2.56729e-61
-4.34072e-58
-8.9233e-59
-1.11375e-55
-3.79995e-56
-4.79093e-52
-1.83672e-53
-2.33392e-49
-8.16589e-51
-8.26247e-47
-3.14939e-48
-2.49183e-44
-1.05114e-45
-6.47978e-42
-3.03371e-43
-1.45851e-39
-7.5766e-41
-2.84817e-37
-1.63952e-38
-4.83597e-35
-3.07858e-36
-7.15531e-33
-5.02303e-34
-9.2419e-31
-7.12716e-32
-1.06743e-28
-8.80553e-30
-2.46138e-26
-1.36179e-27
-9.80279e-26
-1.07563e-24
-1.64345e-82
-1.95722e-81
-2.54299e-78
-1.0942e-80
-3.031e-76
-2.25438e-77
-3.08854e-73
-2.33654e-74
-1.8052e-70
-1.56461e-71
-8.18366e-68
-8.18594e-69
-3.36156e-65
-3.85191e-66
-4.25964e-62
-1.77585e-63
-4.53331e-60
-9.414e-61
-9.79732e-57
-5.29073e-58
-1.71385e-53
-3.05262e-55
-7.98637e-51
-1.5401e-52
-3.12706e-48
-6.7603e-50
-1.04402e-45
-2.57232e-47
-3.00693e-43
-8.4767e-45
-7.48908e-41
-2.41994e-42
-1.61491e-38
-5.98933e-40
-3.01898e-36
-1.28627e-37
-4.89857e-34
-2.39829e-35
-6.90128e-32
-3.88679e-33
-8.48385e-30
-6.03291e-31
-1.83418e-27
-7.7829e-29
-5.84606e-27
-9.35756e-26
-6.47948e-84
-1.30914e-85
-1.09269e-80
-1.50501e-83
-7.65829e-79
-1.75524e-80
-7.64731e-76
-1.6157e-77
-5.10434e-73
-1.46994e-74
-2.8975e-70
-1.23621e-71
-1.49391e-67
-1.07492e-68
-1.09118e-64
-9.68088e-66
-4.55991e-62
-8.29157e-63
-4.54455e-58
-6.40334e-60
-2.88389e-55
-4.37431e-57
-1.51983e-52
-2.60833e-54
-6.71444e-50
-1.35507e-51
-2.54876e-47
-6.12142e-49
-8.36893e-45
-2.40341e-46
-2.37785e-42
-8.20295e-44
-5.84874e-40
-2.4353e-41
-1.24595e-37
-6.29334e-39
-2.29858e-35
-1.41602e-36
-3.65653e-33
-2.7927e-34
-2.80232e-31
-7.0113e-32
-8.719e-29
-5.31301e-30
-2.3936e-28
-7.2641e-27
-1.59294e-87
-2.36588e-89
-1.51382e-83
-1.72677e-86
-5.92298e-82
-1.27579e-83
-5.38891e-79
-1.08829e-80