/*--------------------------------*- C++ -*----------------------------------*\
  =========                 |
  \\      /  F ield         | OpenFOAM: The Open Source CFD Toolbox
   \\    /   O peration     | Website:  https://openfoam.org
    \\  /    A nd           | Version:  9
     \\/     M anipulation  |
\*---------------------------------------------------------------------------*/
FoamFile
{
    format      ascii;
    class       volVectorField;
    location    "0.5";
    object      U;
}
// * * * * * * * * * * * * * * * * * * * * * * * * * * * * * * * * * * * * * //

dimensions      [0 1 -1 0 0 0 0];

internalField   nonuniform List<vector> 
2268
(
(-0.0442697 0.0179845 0)
(-0.0810364 0.00771571 0)
(-0.0787204 -0.00550572 0)
(-0.0522003 -0.010984 0)
(-0.0189988 -0.0121924 0)
(0.0158372 -0.0119118 0)
(0.0494139 -0.0111728 0)
(0.0808364 -0.01034 0)
(0.109948 -0.00954472 0)
(0.136782 -0.00878513 0)
(0.16133 -0.00801012 0)
(0.183397 -0.0071401 0)
(0.202494 -0.00605848 0)
(0.217684 -0.00457757 0)
(0.227543 -0.00223509 0)
(0.228897 0.00152868 0)
(0.216761 0.00730009 0)
(0.186934 0.0147271 0)
(0.136176 0.0227315 0)
(0.0601829 0.0291905 0)
(-0.0327427 0.0300006 0)
(-0.144034 0.000995025 0)
(-0.0689404 -0.048535 0)
(-0.0452522 0.0396281 0)
(-0.0487025 0.0124536 0)
(-0.0348286 -0.0111538 0)
(-0.00936484 -0.0216773 0)
(0.0211513 -0.0247332 0)
(0.0526731 -0.024632 0)
(0.0830275 -0.0233444 0)
(0.111378 -0.0217139 0)
(0.137524 -0.0200527 0)
(0.16144 -0.0183977 0)
(0.183071 -0.0166601 0)
(0.202204 -0.0146725 0)
(0.218388 -0.0121859 0)
(0.230854 -0.00882694 0)
(0.238396 -0.00392935 0)
(0.239817 0.00339239 0)
(0.23329 0.0139018 0)
(0.215032 0.0276688 0)
(0.181097 0.0438127 0)
(0.124467 0.0590877 0)
(0.0546848 0.0649072 0)
(-0.0483511 0.0305957 0)
(-0.0150833 -0.0748271 0)
(-0.0295489 0.0548021 0)
(-0.0187566 0.00849959 0)
(-0.00229217 -0.021276 0)
(0.0227318 -0.0342774 0)
(0.0507449 -0.0381794 0)
(0.0790595 -0.0378583 0)
(0.106113 -0.0358293 0)
(0.131301 -0.0332753 0)
(0.154457 -0.0306422 0)
(0.175534 -0.0279891 0)
(0.194441 -0.0251881 0)
(0.21096 -0.0219924 0)
(0.22468 -0.0180447 0)
(0.234959 -0.0128396 0)
(0.24085 -0.00563292 0)
(0.241288 0.00457457 0)
(0.235079 0.018776 0)
(0.220465 0.0375618 0)
(0.195962 0.0602892 0)
(0.15798 0.0828062 0)
(0.112426 0.0933933 0)
(0.0343071 0.054343 0)
(0.0314418 -0.0730456 0)
(-0.0106082 0.0619351 0)
(0.00731703 0.00178428 0)
(0.0266064 -0.0316268 0)
(0.0514199 -0.0464693 0)
(0.0771123 -0.0508055 0)
(0.102197 -0.0500869 0)
(0.12587 -0.0472925 0)
(0.147832 -0.0438519 0)
(0.167995 -0.040296 0)
(0.186291 -0.0366859 0)
(0.202601 -0.0328554 0)
(0.216702 -0.0284905 0)
(0.228226 -0.0231472 0)
(0.236651 -0.0162221 0)
(0.241266 -0.00687399 0)
(0.241239 0.00595523 0)
(0.235774 0.0232899 0)
(0.224066 0.0457458 0)
(0.205915 0.0726685 0)
(0.179911 0.0997373 0)
(0.148787 0.114592 0)
(0.0908619 0.0784974 0)
(0.0654814 -0.0466202 0)
(0.00654757 0.0571517 0)
(0.0308598 -0.00680722 0)
(0.0538143 -0.0426856 0)
(0.0784028 -0.0581352 0)
(0.10164 -0.062226 0)
(0.12335 -0.0608764 0)
(0.143547 -0.057327 0)
(0.16225 -0.0530981 0)
(0.179435 -0.0487298 0)
(0.19501 -0.044258 0)
(0.208818 -0.0394827 0)
(0.220634 -0.03404 0)
(0.230138 -0.0274268 0)
(0.236932 -0.0189806 0)
(0.240523 -0.00779841 0)
(0.240326 0.00719708 0)
(0.235852 0.0269706 0)
(0.226834 0.0519989 0)
(0.213721 0.0814776 0)
(0.196142 0.111329 0)
(0.174363 0.130296 0)
(0.130595 0.103487 0)
(0.0894221 -0.0050098 0)
(0.0189018 0.0431032 0)
(0.0517612 -0.018655 0)
(0.0797407 -0.054535 0)
(0.103984 -0.06906 0)
(0.124351 -0.0721348 0)
(0.142462 -0.0699571 0)
(0.159142 -0.065722 0)
(0.174637 -0.060851 0)
(0.188938 -0.0558163 0)
(0.2019 -0.050607 0)
(0.213323 -0.0449998 0)
(0.222981 -0.0386023 0)
(0.230608 -0.030882 0)
(0.235935 -0.0211554 0)
(0.238682 -0.00848831 0)
(0.238493 0.00819832 0)
(0.235119 0.029762 0)
(0.228613 0.0564832 0)
(0.219792 0.0873965 0)
(0.208834 0.118991 0)
(0.194236 0.142064 0)
(0.161902 0.128923 0)
(0.110157 0.0505327 0)
(0.0261015 0.0227815 0)
(0.0705228 -0.0344897 0)
(0.10461 -0.0672103 0)
(0.127866 -0.0789758 0)
(0.144697 -0.0803337 0)
(0.159036 -0.0772814 0)
(0.172307 -0.0725143 0)
(0.184785 -0.0671728 0)
(0.196391 -0.0616178 0)
(0.20691 -0.0557876 0)
(0.216099 -0.0494555 0)
(0.223737 -0.0422255 0)
(0.229615 -0.0335653 0)
(0.233601 -0.0228093 0)
(0.235631 -0.00901079 0)
(0.235562 0.00891499 0)
(0.233319 0.0317062 0)
(0.229149 0.0594203 0)
(0.224136 0.0909231 0)
(0.21888 0.123446 0)
(0.210983 0.150253 0)
(0.190507 0.15353 0)
(0.132315 0.118167 0)
(0.0300997 -0.00222456 0)
(0.0893961 -0.0556103 0)
(0.128429 -0.0811965 0)
(0.149019 -0.0879783 0)
(0.161673 -0.0870381 0)
(0.172391 -0.0831776 0)
(0.182637 -0.0780384 0)
(0.192469 -0.0723456 0)
(0.201685 -0.0663499 0)
(0.21 -0.0599529 0)
(0.217147 -0.0529518 0)
(0.222924 -0.0449704 0)
(0.227178 -0.0355092 0)
(0.229926 -0.0239685 0)
(0.23133 -0.00940259 0)
(0.231444 0.00931686 0)
(0.230313 0.0328257 0)
(0.22828 0.0609462 0)
(0.226683 0.0922733 0)
(0.22657 0.124786 0)
(0.225789 0.154015 0)
(0.217368 0.172358 0)
(0.173128 0.209025 0)
(0.13089 -0.0712298 0)
(0.210063 -0.00150982 0)
(0.051857 0.053042 0)
(-0.256698 0.091525 0)
(-0.653904 0.109414 0)
(-1.04421 0.104276 0)
(-1.3939 0.0928304 0)
(-1.71052 0.0851196 0)
(-2.00839 0.0791535 0)
(-2.28898 0.0692507 0)
(-2.53478 0.0508763 0)
(-2.71225 0.0229426 0)
(-2.78355 -0.0121147 0)
(-2.72615 -0.0490718 0)
(-2.5731 -0.080081 0)
(-2.30931 -0.111461 0)
(-1.89561 -0.147327 0)
(-1.26266 -0.197202 0)
(-0.434556 -0.184309 0)
(0.018473 -0.100118 0)
(-0.0063948 0.0614592 0)
(-0.25825 0.165692 0)
(-0.634004 0.235535 0)
(-1.02455 0.252977 0)
(-1.34399 0.231869 0)
(-1.6058 0.205504 0)
(-1.83937 0.188009 0)
(-2.0545 0.174505 0)
(-2.24653 0.155508 0)
(-2.40273 0.123594 0)
(-2.50962 0.0753432 0)
(-2.56272 0.011877 0)
(-2.56801 -0.057425 0)
(-2.49491 -0.123726 0)
(-2.33078 -0.198525 0)
(-2.02017 -0.300071 0)
(-1.44882 -0.477274 0)
(-0.552223 -0.574799 0)
(-0.0575595 -0.0683638 0)
(-0.154774 0.140623 0)
(-0.416935 0.287644 0)
(-0.722574 0.370746 0)
(-0.995814 0.373129 0)
(-1.21144 0.331589 0)
(-1.40026 0.292013 0)
(-1.5781 0.266602 0)
(-1.74582 0.24568 0)
(-1.90083 0.217225 0)
(-2.03803 0.173477 0)
(-2.147 0.110926 0)
(-2.21233 0.027877 0)
(-2.22171 -0.0644504 0)
(-2.17319 -0.159236 0)
(-2.06462 -0.276441 0)
(-1.85879 -0.452584 0)
(-1.41513 -0.774963 0)
(-0.497742 -1.06188 0)
(-0.0894358 -0.0158959 0)
(-0.20828 0.226214 0)
(-0.434453 0.393242 0)
(-0.65552 0.474871 0)
(-0.84217 0.461412 0)
(-1.00038 0.407066 0)
(-1.15103 0.36112 0)
(-1.29601 0.331639 0)
(-1.43145 0.306326 0)
(-1.55494 0.272106 0)
(-1.66315 0.219904 0)
(-1.74613 0.1449 0)
(-1.7842 0.04121 0)
(-1.76306 -0.0755996 0)
(-1.68854 -0.190766 0)
(-1.56471 -0.336219 0)
(-1.40344 -0.569521 0)
(-1.18778 -1.0048 0)
(-0.313757 -1.48295 0)
(-0.0785095 0.04064 0)
(-0.183625 0.30188 0)
(-0.361805 0.472626 0)
(-0.514344 0.547441 0)
(-0.645611 0.525048 0)
(-0.768262 0.466456 0)
(-0.890822 0.418124 0)
(-1.00741 0.385137 0)
(-1.11068 0.354654 0)
(-1.19635 0.31364 0)
(-1.26053 0.251858 0)
(-1.296 0.164238 0)
(-1.28321 0.038135 0)
(-1.21199 -0.107148 0)
(-1.09055 -0.242837 0)
(-0.92203 -0.405057 0)
(-0.732995 -0.659204 0)
(-0.859632 -1.11762 0)
(-0.101077 -1.77809 0)
(-0.0297415 0.0813815 0)
(-0.102076 0.361083 0)
(-0.236443 0.528335 0)
(-0.336522 0.597 0)
(-0.428559 0.571779 0)
(-0.522789 0.513327 0)
(-0.61959 0.463526 0)
(-0.708637 0.42573 0)
(-0.77896 0.387358 0)
(-0.822726 0.335953 0)
(-0.832716 0.26067 0)
(-0.806861 0.15961 0)
(-0.723109 0.010492 0)
(-0.592985 -0.171563 0)
(-0.424339 -0.328247 0)
(-0.251529 -0.495125 0)
(-0.0491685 -0.728353 0)
(-0.499035 -1.12602 0)
(0.110566 -1.99232 0)
(0.0559548 0.0994113 0)
(0.0169316 0.41173 0)
(-0.0832398 0.565064 0)
(-0.140479 0.629084 0)
(-0.199798 0.604938 0)
(-0.267088 0.548667 0)
(-0.338517 0.497393 0)
(-0.400899 0.453184 0)
(-0.439575 0.403668 0)
(-0.4424 0.337152 0)
(-0.395545 0.241817 0)
(-0.299502 0.118117 0)
(-0.112059 -0.0515322 0)
(0.0744414 -0.261949 0)
(0.23139 -0.402386 0)
(0.295514 -0.534471 0)
(0.36497 -0.708823 0)
(-0.149242 -0.977178 0)
(0.291425 -2.14315 0)
(0.267533 -0.0228988 0)
(0.136703 0.482732 0)
(0.0731534 0.589395 0)
(0.0612767 0.646547 0)
(0.034138 0.625158 0)
(-0.00573296 0.57223 0)
(-0.0519574 0.519375 0)
(-0.089545 0.467525 0)
(-0.100588 0.403696 0)
(-0.0696085 0.316119 0)
(0.033983 0.190639 0)
(0.192498 0.0156283 0)
(0.560574 -0.166893 0)
(0.616268 -0.274409 0)
(0.602218 -0.366187 0)
(0.560005 -0.462655 0)
(0.500713 -0.571322 0)
(0.134156 -0.836254 0)
(0.41281 -2.11566 0)
(0.0436755 -0.0549854 0)
(0.122605 -0.102161 0)
(0.160237 -0.106648 0)
(0.173601 -0.101473 0)
(0.180409 -0.0961678 0)
(0.186938 -0.0910492 0)
(0.19375 -0.0854026 0)
(0.200427 -0.0792004 0)
(0.206611 -0.0725245 0)
(0.211991 -0.0652383 0)
(0.216361 -0.0571993 0)
(0.219555 -0.0480873 0)
(0.221506 -0.0374988 0)
(0.222472 -0.0250516 0)
(0.223007 -0.00985362 0)
(0.223473 0.00940706 0)
(0.224006 0.0332817 0)
(0.224939 0.061271 0)
(0.228009 0.0911545 0)
(0.234996 0.12195 0)
(0.245738 0.151606 0)
(0.259503 0.180118 0)
(0.291622 0.238685 0)
(0.100469 -0.139032 0)
(0.170516 -0.165615 0)
(0.18275 -0.130289 0)
(0.182193 -0.1089 0)
(0.185418 -0.100676 0)
(0.191129 -0.095804 0)
(0.197153 -0.0905098 0)
(0.202549 -0.084493 0)
(0.206615 -0.0777712 0)
(0.209143 -0.0700157 0)
(0.210791 -0.0611616 0)
(0.211466 -0.0509495 0)
(0.210964 -0.0390997 0)
(0.209838 -0.0257184 0)
(0.209308 -0.0105087 0)
(0.210287 0.00794567 0)
(0.212865 0.0305247 0)
(0.216569 0.0569283 0)
(0.22361 0.0826663 0)
(0.235894 0.10875 0)
(0.252338 0.133868 0)
(0.270922 0.155211 0)
(0.299717 0.175359 0)
(0.172916 -0.255315 0)
(0.144519 -0.148628 0)
(0.151827 -0.112214 0)
(0.167064 -0.102315 0)
(0.178524 -0.0981082 0)
(0.185938 -0.0943175 0)
(0.191572 -0.0890121 0)
(0.19617 -0.0825907 0)
(0.197681 -0.0751957 0)
(0.194996 -0.0671579 0)
(0.194326 -0.058978 0)
(0.194057 -0.0489119 0)
(0.193052 -0.0373125 0)
(0.192474 -0.0252872 0)
(0.193612 -0.011897 0)
(0.196376 0.00566738 0)
(0.200516 0.0274767 0)
(0.206219 0.0510837 0)
(0.216905 0.0697168 0)
(0.232881 0.0904496 0)
(0.251537 0.112501 0)
(0.27171 0.130664 0)
(0.295934 0.1457 0)
(-0.0594936 -0.557727 0)
(0.00717405 -0.232461 0)
(0.047884 -0.134489 0)
(0.0859622 -0.124372 0)
(0.115851 -0.12358 0)
(0.139267 -0.117891 0)
(0.157308 -0.108796 0)
(0.170411 -0.0964128 0)
(0.179694 -0.0780464 0)
(0.186646 -0.0636376 0)
(0.186773 -0.0579844 0)
(0.184521 -0.0473298 0)
(0.182246 -0.0353113 0)
(0.180146 -0.0234118 0)
(0.17506 -0.0112494 0)
(0.173016 0.00393403 0)
(0.179278 0.0238911 0)
(0.195512 0.0452497 0)
(0.214851 0.058946 0)
(0.233205 0.0759625 0)
(0.253505 0.0932386 0)
(0.276777 0.107073 0)
(0.302237 0.121358 0)
(-0.0652486 -0.266645 0)
(-0.0465912 -0.23843 0)
(-0.00119559 -0.194235 0)
(0.0389714 -0.169817 0)
(0.0720571 -0.15308 0)
(0.0985931 -0.138075 0)
(0.120097 -0.123288 0)
(0.137769 -0.107772 0)
(0.15296 -0.0906989 0)
(0.166257 -0.0744392 0)
(0.176054 -0.059884 0)
(0.182098 -0.0446156 0)
(0.184611 -0.0299845 0)
(0.183714 -0.0167336 0)
(0.182753 -0.00249622 0)
(0.169881 0.00122645 0)
(0.163972 0.0152326 0)
(0.182482 0.0367194 0)
(0.206483 0.0446104 0)
(0.231056 0.0618274 0)
(0.260164 0.0785205 0)
(0.288945 0.0908884 0)
(0.316296 0.103123 0)
(-0.0184943 -0.292063 0)
(-0.0235551 -0.26456 0)
(-0.00415669 -0.228899 0)
(0.021293 -0.201823 0)
(0.0467145 -0.180347 0)
(0.0697046 -0.161271 0)
(0.0901354 -0.143049 0)
(0.108464 -0.124895 0)
(0.125365 -0.106525 0)
(0.140981 -0.0887027 0)
(0.154558 -0.0716064 0)
(0.165705 -0.054471 0)
(0.174589 -0.0370564 0)
(0.181901 -0.0191793 0)
(0.189402 -0.00173375 0)
(0.194498 0.0047212 0)
(0.201103 -0.00770966 0)
(0.220302 -0.0164789 0)
(0.206204 0.0161846 0)
(0.219895 0.0437836 0)
(0.253959 0.0610899 0)
(0.288526 0.0699225 0)
(0.321422 0.0816158 0)
(-0.0105739 -0.275509 0)
(-0.0132528 -0.268915 0)
(-0.00234541 -0.245906 0)
(0.0137401 -0.222839 0)
(0.0319368 -0.201532 0)
(0.0502152 -0.181407 0)
(0.0679249 -0.161855 0)
(0.0849901 -0.14249 0)
(0.101559 -0.123189 0)
(0.117572 -0.104215 0)
(0.132702 -0.0855996 0)
(0.146849 -0.0670475 0)
(0.160271 -0.0484842 0)
(0.173625 -0.030235 0)
(0.187932 -0.0138239 0)
(0.201887 -0.00356047 0)
(0.212541 -0.000201592 0)
(0.220698 0.000880796 0)
(0.230049 -0.00675419 0)
(0.255201 -0.0320987 0)
(0.273466 -0.0152563 0)
(0.285558 0.0340377 0)
(0.310825 0.0592312 0)
(-0.00632992 -0.262508 0)
(-0.00755444 -0.271086 0)
(-0.00114258 -0.256053 0)
(0.00913422 -0.236941 0)
(0.0220023 -0.217249 0)
(0.0361526 -0.197645 0)
(0.0509437 -0.178162 0)
(0.0661043 -0.158729 0)
(0.0815367 -0.139332 0)
(0.0971223 -0.120091 0)
(0.112714 -0.10104 0)
(0.128317 -0.082169 0)
(0.144141 -0.0636854 0)
(0.16059 -0.0461877 0)
(0.178075 -0.0310082 0)
(0.195713 -0.0203402 0)
(0.211443 -0.0141161 0)
(0.225473 -0.00865801 0)
(0.239476 -0.00431908 0)
(0.25222 -0.0089195 0)
(0.262763 -0.0144622 0)
(0.283707 -0.0266498 0)
(0.317671 -0.0459769 0)
(-0.00340859 -0.259001 0)
(-0.00512711 -0.272757 0)
(-0.00182341 -0.26234 0)
(0.00464721 -0.246463 0)
(0.0137223 -0.228846 0)
(0.0246103 -0.210578 0)
(0.0368086 -0.19201 0)
(0.050023 -0.173267 0)
(0.0640814 -0.154435 0)
(0.0788535 -0.135627 0)
(0.094248 -0.116942 0)
(0.110272 -0.0985319 0)
(0.127034 -0.0807253 0)
(0.144695 -0.0641361 0)
(0.163284 -0.0497657 0)
(0.182161 -0.0388516 0)
(0.20017 -0.0314754 0)
(0.217179 -0.0262023 0)
(0.233636 -0.0231125 0)
(0.248485 -0.0228631 0)
(0.263136 -0.0198324 0)
(0.281071 -0.0166852 0)
(0.29883 -0.0188775 0)
(-0.00306359 -0.254764 0)
(-0.00568331 -0.272747 0)
(-0.00440862 -0.265824 0)
(-0.000536404 -0.2528 0)
(0.0057981 -0.237412 0)
(0.0141404 -0.220883 0)
(0.0241329 -0.203712 0)
(0.0355267 -0.186143 0)
(0.0481509 -0.168336 0)
(0.0618823 -0.150442 0)
(0.0766409 -0.132624 0)
(0.0924024 -0.115107 0)
(0.109179 -0.0982466 0)
(0.126961 -0.0825857 0)
(0.145588 -0.068854 0)
(0.164537 -0.0578096 0)
(0.183059 -0.0496512 0)
(0.200823 -0.0439353 0)
(0.217755 -0.0405955 0)
(0.233242 -0.0393441 0)
(0.247731 -0.0379046 0)
(0.261906 -0.037184 0)
(0.273896 -0.036607 0)
(-0.00360883 -0.250044 0)
(-0.00743692 -0.2712 0)
(-0.00789719 -0.267225 0)
(-0.00604919 -0.256802 0)
(-0.00186306 -0.243644 0)
(0.00438667 -0.229025 0)
(0.0124461 -0.213511 0)
(0.0221219 -0.197411 0)
(0.0332695 -0.180935 0)
(0.0457795 -0.164273 0)
(0.059572 -0.147624 0)
(0.0745902 -0.131238 0)
(0.0907755 -0.115457 0)
(0.108017 -0.100732 0)
(0.126072 -0.0875977 0)
(0.144485 -0.0765577 0)
(0.16267 -0.0678225 0)
(0.18019 -0.0612773 0)
(0.196709 -0.0568136 0)
(0.211729 -0.0540805 0)
(0.225151 -0.0519532 0)
(0.236868 -0.0500623 0)
(0.246049 -0.0470317 0)
(-0.00440489 -0.244009 0)
(-0.0094574 -0.268126 0)
(-0.0114238 -0.266875 0)
(-0.0112679 -0.2589 0)
(-0.00888848 -0.247931 0)
(-0.00446177 -0.235276 0)
(0.00182942 -0.221543 0)
(0.00983972 -0.207077 0)
(0.019455 -0.192121 0)
(0.0305826 -0.176886 0)
(0.0431431 -0.161587 0)
(0.0570588 -0.146473 0)
(0.0722288 -0.131848 0)
(0.0884917 -0.118074 0)
(0.105579 -0.105549 0)
(0.123082 -0.0946212 0)
(0.1405 -0.0854717 0)
(0.15736 -0.0780775 0)
(0.173221 -0.0723098 0)
(0.187609 -0.0678239 0)
(0.200231 -0.063869 0)
(0.210801 -0.0597229 0)
(0.218989 -0.0541014 0)
(-0.00511619 -0.236675 0)
(-0.0111586 -0.263716 0)
(-0.0143846 -0.265035 0)
(-0.0156614 -0.259367 0)
(-0.0148485 -0.250509 0)
(-0.0120586 -0.239804 0)
(-0.00742101 -0.227887 0)
(-0.00104019 -0.215128 0)
(0.00699805 -0.201787 0)
(0.0166182 -0.188086 0)
(0.0277461 -0.17424 0)
(0.0402961 -0.160478 0)
(0.0541499 -0.147058 0)
(0.0691297 -0.134267 0)
(0.0849709 -0.122394 0)
(0.101309 -0.111684 0)
(0.117704 -0.102274 0)
(0.133701 -0.0941554 0)
(0.148848 -0.0871945 0)
(0.162698 -0.0810658 0)
(0.174901 -0.0751754 0)
(0.185122 -0.0687793 0)
(0.193183 -0.0607913 0)
(-0.00555652 -0.228396 0)
(-0.012257 -0.258278 0)
(-0.0164545 -0.261975 0)
(-0.0189066 -0.258443 0)
(-0.0194398 -0.251574 0)
(-0.0181145 -0.242747 0)
(-0.0150136 -0.232619 0)
(-0.0102051 -0.22157 0)
(-0.003748 -0.209871 0)
(0.00429966 -0.197742 0)
(0.0138732 -0.18539 0)
(0.0248898 -0.173017 0)
(0.0372315 -0.160837 0)
(0.0507265 -0.149067 0)
(0.0651321 -0.137913 0)
(0.0801293 -0.127542 0)
(0.0953384 -0.118042 0)
(0.110351 -0.109397 0)
(0.124753 -0.101473 0)
(0.138145 -0.0939725 0)
(0.150188 -0.086389 0)
(0.160553 -0.0780182 0)
(0.169113 -0.0678763 0)
(-0.00567904 -0.219628 0)
(-0.0126792 -0.252172 0)
(-0.017535 -0.257989 0)
(-0.0208906 -0.256374 0)
(-0.0225379 -0.251327 0)
(-0.0224868 -0.24426 0)
(-0.0207761 -0.23584 0)
(-0.0174393 -0.226454 0)
(-0.0125098 -0.216368 0)
(-0.00602721 -0.2058 0)
(0.0019567 -0.194938 0)
(0.0113691 -0.18396 0)
(0.0221038 -0.173035 0)
(0.0340078 -0.162322 0)
(0.046871 -0.151963 0)
(0.0604238 -0.142061 0)
(0.0743478 -0.132662 0)
(0.0882971 -0.123735 0)
(0.101918 -0.115147 0)
(0.114874 -0.106627 0)
(0.126875 -0.0977273 0)
(0.137626 -0.0877847 0)
(0.147037 -0.0758628 0)
(-0.00551291 -0.21083 0)
(-0.0124776 -0.245763 0)
(-0.0176839 -0.253381 0)
(-0.0216672 -0.25342 0)
(-0.0241837 -0.24999 0)
(-0.0251937 -0.244527 0)
(-0.0246926 -0.237697 0)
(-0.022681 -0.229883 0)
(-0.0191676 -0.221345 0)
(-0.0141728 -0.212286 0)
(-0.00773274 -0.202879 0)
(9.41605e-05 -0.193272 0)
(0.00921956 -0.183599 0)
(0.0195159 -0.173971 0)
(0.0308105 -0.164476 0)
(0.0428847 -0.155171 0)
(0.0554824 -0.146068 0)
(0.0683253 -0.137119 0)
(0.0811309 -0.128196 0)
(0.0936338 -0.119053 0)
(0.105608 -0.109281 0)
(0.116813 -0.098252 0)
(0.127202 -0.0850483 0)
(-0.00512188 -0.202393 0)
(-0.0117726 -0.239377 0)
(-0.0170543 -0.248441 0)
(-0.0214037 -0.249844 0)
(-0.0245445 -0.247801 0)
(-0.0263899 -0.243758 0)
(-0.0268942 -0.238372 0)
(-0.0260267 -0.232012 0)
(-0.0237723 -0.224925 0)
(-0.0201325 -0.217298 0)
(-0.0151262 -0.209283 0)
(-0.00879472 -0.201005 0)
(-0.00120575 -0.192563 0)
(0.00754099 -0.184033 0)
(0.017311 -0.175461 0)
(0.0279357 -0.166868 0)
(0.0392192 -0.158242 0)
(0.0509511 -0.149524 0)
(0.0629214 -0.140592 0)
(0.0749387 -0.131224 0)
(0.0868468 -0.121042 0)
(0.0984702 -0.109445 0)
(0.109813 -0.0955151 0)
(-0.00457798 -0.194606 0)
(-0.0107101 -0.233279 0)
(-0.0158444 -0.243423 0)
(-0.0203303 -0.245891 0)
(-0.0238665 -0.244993 0)
(-0.026325 -0.242173 0)
(-0.0276228 -0.238068 0)
(-0.027701 -0.233025 0)
(-0.0265226 -0.227274 0)
(-0.0240703 -0.220981 0)
(-0.0203463 -0.21428 0)
(-0.0153732 -0.207271 0)
(-0.00919707 -0.200026 0)
(-0.00188996 -0.192591 0)
(0.00645026 -0.184984 0)
(0.0157017 -0.1772 0)
(0.0257248 -0.169209 0)
(0.0363734 -0.160951 0)
(0.0475069 -0.152313 0)
(0.0590059 -0.143096 0)
(0.0707846 -0.132948 0)
(0.0827324 -0.121285 0)
(0.0949078 -0.107181 0)
(-0.00394682 -0.187659 0)
(-0.00943416 -0.227658 0)
(-0.0142603 -0.238532 0)
(-0.0186976 -0.241776 0)
(-0.0224302 -0.241785 0)
(-0.0252974 -0.239988 0)
(-0.0271855 -0.236993 0)
(-0.0280119 -0.233122 0)
(-0.02772 -0.228578 0)
(-0.0262755 -0.22351 0)
(-0.023664 -0.21803 0)
(-0.01989 -0.212217 0)
(-0.0149786 -0.206123 0)
(-0.00897512 -0.199768 0)
(-0.00194381 -0.193151 0)
(0.00603539 -0.18625 0)
(0.0148741 -0.179027 0)
(0.0244842 -0.171425 0)
(0.034789 -0.163347 0)
(0.0457362 -0.154617 0)
(0.0573054 -0.144903 0)
(0.069447 -0.133633 0)
(0.0822672 -0.119857 0)
(-0.00328364 -0.181649 0)
(-0.00807111 -0.222624 0)
(-0.0124908 -0.233914 0)
(-0.0167441 -0.237672 0)
(-0.0205124 -0.238364 0)
(-0.0236131 -0.237397 0)
(-0.0259101 -0.235343 0)
(-0.0273023 -0.232492 0)
(-0.0277174 -0.229023 0)
(-0.0271064 -0.225062 0)
(-0.0254396 -0.220703 0)
(-0.022705 -0.216005 0)
(-0.0189081 -0.211002 0)
(-0.0140698 -0.205699 0)
(-0.00822401 -0.200079 0)
(-0.00141387 -0.194112 0)
(0.00631655 -0.187761 0)
(0.0149305 -0.180976 0)
(0.0244079 -0.173681 0)
(0.0347558 -0.165723 0)
(0.0460122 -0.156789 0)
(0.0581805 -0.146305 0)
(0.0714026 -0.13328 0)
(-0.00263362 -0.176599 0)
(-0.00672214 -0.218221 0)
(-0.0106922 -0.229659 0)
(-0.0146743 -0.233704 0)
(-0.0183595 -0.234881 0)
(-0.0215538 -0.234564 0)
(-0.0241075 -0.233288 0)
(-0.0259078 -0.231308 0)
(-0.0268714 -0.228778 0)
(-0.0269375 -0.225803 0)
(-0.0260637 -0.222457 0)
(-0.0242235 -0.218785 0)
(-0.0214049 -0.214806 0)
(-0.0176074 -0.210512 0)
(-0.0128392 -0.205878 0)
(-0.00711145 -0.200872 0)
(-0.000431004 -0.195463 0)
(0.00720878 -0.189617 0)
(0.0158362 -0.183281 0)
(0.0255093 -0.176326 0)
(0.0363159 -0.168453 0)
(0.0483022 -0.159073 0)
(0.0616328 -0.147129 0)
(-0.0020322 -0.172473 0)
(-0.00546068 -0.214438 0)
(-0.00898093 -0.225806 0)
(-0.0126474 -0.229954 0)
(-0.0161707 -0.231446 0)
(-0.0193548 -0.23162 0)
(-0.0220457 -0.230969 0)
(-0.0241259 -0.229717 0)
(-0.0255059 -0.227991 0)
(-0.0261172 -0.225877 0)
(-0.0259078 -0.223433 0)
(-0.0248395 -0.22069 0)
(-0.0228859 -0.217655 0)
(-0.0200289 -0.214312 0)
(-0.0162551 -0.210634 0)
(-0.01155 -0.20659 0)
(-0.00588981 -0.202161 0)
(0.000767059 -0.197333 0)
(0.00848873 -0.192081 0)
(0.0173754 -0.1863 0)
(0.0275556 -0.179701 0)
(0.0391098 -0.171663 0)
(0.0522146 -0.161038 0)
(-0.00150355 -0.169193 0)
(-0.00433168 -0.211225 0)
(-0.00743235 -0.222357 0)
(-0.0107737 -0.226465 0)
(-0.0140916 -0.228133 0)
(-0.0171959 -0.228659 0)
(-0.0199361 -0.228494 0)
(-0.0221969 -0.227833 0)
(-0.0238883 -0.22678 0)
(-0.0249385 -0.225402 0)
(-0.0252896 -0.223743 0)
(-0.0248954 -0.221824 0)
(-0.0237183 -0.219643 0)
(-0.0217269 -0.217179 0)
(-0.0188916 -0.214404 0)
(-0.015178 -0.211295 0)
(-0.0105389 -0.207848 0)
(-0.00490538 -0.204074 0)
(0.00182112 -0.199978 0)
(0.00977479 -0.195481 0)
(0.0191171 -0.190298 0)
(0.0299562 -0.183763 0)
(0.042476 -0.174614 0)
(-0.00105228 -0.166661 0)
(-0.0033518 -0.208514 0)
(-0.00608364 -0.219286 0)
(-0.00911762 -0.223247 0)
(-0.0122162 -0.224983 0)
(-0.0152001 -0.225744 0)
(-0.0179294 -0.225944 0)
(-0.0202975 -0.225747 0)
(-0.0222196 -0.225238 0)
(-0.0236252 -0.224471 0)
(-0.024455 -0.223477 0)
(-0.0246583 -0.22227 0)
(-0.0241908 -0.22084 0)
(-0.0230122 -0.219165 0)
(-0.0210818 -0.217219 0)
(-0.0183518 -0.214989 0)
(-0.0147589 -0.212488 0)
(-0.0102147 -0.209759 0)
(-0.00459752 -0.206838 0)
(0.00225207 -0.203674 0)
(0.0105226 -0.199981 0)
(0.0203471 -0.195042 0)
(0.0319183 -0.187454 0)
(-0.000655722 -0.164778 0)
(-0.00251189 -0.206226 0)
(-0.00494126 -0.216543 0)
(-0.00770642 -0.220286 0)
(-0.0105943 -0.222011 0)
(-0.0134398 -0.222914 0)
(-0.0161202 -0.223372 0)
(-0.0185431 -0.223523 0)
(-0.0206342 -0.223438 0)
(-0.0223295 -0.223157 0)
(-0.0235724 -0.222705 0)
(-0.0243121 -0.22209 0)
(-0.024502 -0.221297 0)
(-0.0240977 -0.220304 0)
(-0.0230529 -0.219089 0)
(-0.0213123 -0.217651 0)
(-0.0188035 -0.216027 0)
(-0.0154265 -0.214289 0)
(-0.0110445 -0.212508 0)
(-0.00547852 -0.210666 0)
(0.00148147 -0.208478 0)
(0.00999394 -0.205165 0)
(0.0202686 -0.199174 0)
(-0.000267427 -0.163466 0)
(-0.00178603 -0.204272 0)
(-0.00399209 -0.214062 0)
(-0.00654142 -0.217547 0)
(-0.00924246 -0.21921 0)
(-0.0119472 -0.220187 0)
(-0.0145556 -0.220815 0)
(-0.0169954 -0.221211 0)
(-0.0192072 -0.221434 0)
(-0.021138 -0.221519 0)
(-0.0227384 -0.221485 0)
(-0.0239618 -0.221335 0)
(-0.0247637 -0.221055 0)
(-0.0251003 -0.220621 0)
(-0.0249245 -0.220018 0)
(-0.02418 -0.219259 0)
(-0.022792 -0.218404 0)
(-0.0206566 -0.217558 0)
(-0.0176296 -0.216835 0)
(-0.0135194 -0.216249 0)
(-0.00809581 -0.215522 0)
(-0.00117287 -0.213818 0)
(0.00748787 -0.209425 0)
(0.000166491 -0.16269 0)
(-0.00114602 -0.202552 0)
(-0.00321723 -0.211765 0)
(-0.00561001 -0.214985 0)
(-0.00815483 -0.216567 0)
(-0.0107243 -0.217571 0)
(-0.0132468 -0.218297 0)
(-0.0156741 -0.218849 0)
(-0.017966 -0.219275 0)
(-0.020084 -0.219608 0)
(-0.0219899 -0.219867 0)
(-0.0236454 -0.220053 0)
(-0.0250122 -0.220151 0)
(-0.0260514 -0.220141 0)
(-0.0267201 -0.220013 0)
(-0.0269665 -0.219794 0)
(-0.0267201 -0.219568 0)
(-0.0258808 -0.219476 0)
(-0.0243051 -0.219679 0)
(-0.0217962 -0.220233 0)
(-0.0181077 -0.220874 0)
(-0.0130199 -0.22072 0)
(-0.0062497 -0.217906 0)
(0.000678638 -0.162443 0)
(-0.000575065 -0.200961 0)
(-0.00260393 -0.209568 0)
(-0.00489502 -0.212552 0)
(-0.00731217 -0.21406 0)
(-0.0097532 -0.215066 0)
(-0.0121791 -0.215839 0)
(-0.0145687 -0.216468 0)
(-0.0169032 -0.217002 0)
(-0.0191613 -0.217474 0)
(-0.0213193 -0.217904 0)
(-0.0233504 -0.218295 0)
(-0.0252262 -0.218634 0)
(-0.0269163 -0.218903 0)
(-0.0283867 -0.219097 0)
(-0.0295946 -0.219258 0)
(-0.0304808 -0.219494 0)
(-0.0309566 -0.219983 0)
(-0.0308886 -0.220936 0)
(-0.0300832 -0.222462 0)
(-0.0282829 -0.224329 0)
(-0.0252324 -0.22563 0)
(-0.0205853 -0.224368 0)
(0.00125518 -0.162718 0)
(-6.87468e-05 -0.199397 0)
(-0.00215316 -0.207403 0)
(-0.0043782 -0.210212 0)
(-0.0066866 -0.211676 0)
(-0.00900262 -0.212677 0)
(-0.0113213 -0.213456 0)
(-0.013649 -0.2141 0)
(-0.0159891 -0.214658 0)
(-0.0183389 -0.215168 0)
(-0.0206906 -0.215654 0)
(-0.0230316 -0.216124 0)
(-0.0253463 -0.216565 0)
(-0.027616 -0.216963 0)
(-0.0298185 -0.21732 0)
(-0.0319252 -0.217688 0)
(-0.0338934 -0.218197 0)
(-0.035654 -0.219065 0)
(-0.0370938 -0.220553 0)
(-0.0380337 -0.222835 0)
(-0.0382145 -0.225736 0)
(-0.0373461 -0.228355 0)
(-0.0350041 -0.228606 0)
(0.00181006 -0.163483 0)
(0.000340065 -0.197764 0)
(-0.001855 -0.205225 0)
(-0.00403449 -0.207941 0)
(-0.00624349 -0.209405 0)
(-0.00843333 -0.210407 0)
(-0.0106327 -0.211168 0)
(-0.0128744 -0.211776 0)
(-0.0151827 -0.212287 0)
(-0.0175731 -0.212747 0)
(-0.020054 -0.213185 0)
(-0.0226286 -0.213613 0)
(-0.0252954 -0.214025 0)
(-0.0280495 -0.214406 0)
(-0.0308837 -0.214764 0)
(-0.0337862 -0.215161 0)
(-0.0367356 -0.215744 0)
(-0.03969 -0.216766 0)
(-0.0425674 -0.218541 0)
(-0.0452178 -0.22132 0)
(-0.0473949 -0.225008 0)
(-0.0487834 -0.228761 0)
(-0.0488768 -0.230462 0)
(0.00227315 -0.164667 0)
(0.000629948 -0.195995 0)
(-0.00170265 -0.203007 0)
(-0.00383749 -0.205732 0)
(-0.00594616 -0.207249 0)
(-0.00800354 -0.208265 0)
(-0.0100698 -0.208992 0)
(-0.012201 -0.209526 0)
(-0.0144397 -0.209935 0)
(-0.0168175 -0.21027 0)
(-0.0193582 -0.210571 0)
(-0.0220798 -0.210854 0)
(-0.0249959 -0.211115 0)
(-0.0281164 -0.211344 0)
(-0.0314496 -0.211552 0)
(-0.0350025 -0.211804 0)
(-0.0387781 -0.212262 0)
(-0.0427673 -0.213203 0)
(-0.0469306 -0.214995 0)
(-0.0511635 -0.21797 0)
(-0.0552551 -0.222142 0)
(-0.0588862 -0.226778 0)
(-0.061481 -0.229813 0)
(0.00259966 -0.16617 0)
(0.000786942 -0.194052 0)
(-0.001691 -0.200749 0)
(-0.0037651 -0.20359 0)
(-0.00576154 -0.205216 0)
(-0.00767407 -0.206263 0)
(-0.00959064 -0.206948 0)
(-0.0115865 -0.207383 0)
(-0.0137183 -0.207646 0)
(-0.0160302 -0.207802 0)
(-0.0185584 -0.207894 0)
(-0.0213342 -0.207945 0)
(-0.0243847 -0.207956 0)
(-0.0277341 -0.207918 0)
(-0.0314058 -0.207842 0)
(-0.0354249 -0.207794 0)
(-0.0398193 -0.20794 0)
(-0.044616 -0.208573 0)
(-0.0498258 -0.210103 0)
(-0.0554073 -0.212942 0)
(-0.0612121 -0.217239 0)
(-0.0669522 -0.222427 0)
(-0.0720187 -0.226592 0)
(0.00276199 -0.167904 0)
(0.000781252 -0.191904 0)
(-0.00183016 -0.198467 0)
(-0.00380797 -0.201536 0)
(-0.00566603 -0.203322 0)
(-0.00741231 -0.204419 0)
(-0.00915819 -0.205059 0)
(-0.0109928 -0.205377 0)
(-0.0129817 -0.205467 0)
(-0.0151764 -0.205404 0)
(-0.0176214 -0.205239 0)
(-0.0203572 -0.204996 0)
(-0.023422 -0.204681 0)
(-0.0268516 -0.204287 0)
(-0.0306823 -0.203823 0)
(-0.0349546 -0.203348 0)
(-0.0397186 -0.203025 0)
(-0.0450355 -0.203148 0)
(-0.0509694 -0.204151 0)
(-0.0575543 -0.206517 0)
(-0.0647325 -0.210535 0)
(-0.0722931 -0.215856 0)
(-0.0796541 -0.220817 0)
(0.00268774 -0.16974 0)
(0.000554547 -0.189509 0)
(-0.00216402 -0.196192 0)
(-0.00397744 -0.199609 0)
(-0.00564862 -0.201599 0)
(-0.00719347 -0.202757 0)
(-0.00874045 -0.20335 0)
(-0.010386 -0.203539 0)
(-0.0121977 -0.203441 0)
(-0.0142285 -0.203138 0)
(-0.0165251 -0.202686 0)
(-0.0191325 -0.202114 0)
(-0.0220949 -0.201428 0)
(-0.0254561 -0.200622 0)
(-0.029261 -0.1997 0)
(-0.033561 -0.198714 0)
(-0.038422 -0.19781 0)
(-0.0439325 -0.197269 0)
(-0.050204 -0.197524 0)
(-0.0573479 -0.199104 0)
(-0.0654168 -0.202427 0)
(-0.0743237 -0.207388 0)
(-0.0835924 -0.212667 0)
(0.00209554 -0.171331 0)
(1.55918e-05 -0.186887 0)
(-0.00278109 -0.194004 0)
(-0.00430671 -0.19788 0)
(-0.00570843 -0.200101 0)
(-0.00699733 -0.201318 0)
(-0.00830771 -0.201851 0)
(-0.00973386 -0.201902 0)
(-0.0113371 -0.201605 0)
(-0.0131639 -0.201054 0)
(-0.0152567 -0.200309 0)
(-0.0176588 -0.199398 0)
(-0.020415 -0.198326 0)
(-0.0235716 -0.197087 0)
(-0.0271771 -0.19568 0)
(-0.0312875 -0.194144 0)
(-0.035976 -0.192604 0)
(-0.041346 -0.191312 0)
(-0.0475411 -0.190674 0)
(-0.0547367 -0.191226 0)
(-0.0630962 -0.19348 0)
(-0.072687 -0.197566 0)
(-0.083218 -0.202564 0)
(0.000398315 -0.172054 0)
(-0.000979731 -0.184278 0)
(-0.00378483 -0.192083 0)
(-0.00483254 -0.196471 0)
(-0.00584194 -0.198909 0)
(-0.00679924 -0.200152 0)
(-0.00782658 -0.200599 0)
(-0.00900205 -0.200494 0)
(-0.0103697 -0.199992 0)
(-0.0119611 -0.199196 0)
(-0.0138075 -0.198165 0)
(-0.0159443 -0.196927 0)
(-0.0184112 -0.195485 0)
(-0.0212512 -0.193826 0)
(-0.0245109 -0.191947 0)
(-0.0282443 -0.189873 0)
(-0.0325225 -0.187703 0)
(-0.037449 -0.18565 0)
(-0.0431773 -0.184072 0)
(-0.0499183 -0.183471 0)
(-0.0579189 -0.184396 0)
(-0.0673971 -0.187162 0)
(-0.0782935 -0.191242 0)
(-0.00294532 -0.170967 0)
(-0.00254412 -0.182101 0)
(-0.00521135 -0.19069 0)
(-0.00555549 -0.195564 0)
(-0.00601816 -0.19814 0)
(-0.00655552 -0.199331 0)
(-0.00725238 -0.199635 0)
(-0.00815049 -0.199342 0)
(-0.00926321 -0.198627 0)
(-0.0105983 -0.197594 0)
(-0.0121699 -0.1963 0)
(-0.0140005 -0.194765 0)
(-0.0161199 -0.192988 0)
(-0.0185634 -0.190954 0)
(-0.0213703 -0.18865 0)
(-0.024587 -0.186093 0)
(-0.0282738 -0.183355 0)
(-0.0325214 -0.180606 0)
(-0.0374705 -0.178145 0)
(-0.0433304 -0.17641 0)
(-0.0503817 -0.175925 0)
(-0.058942 -0.177104 0)
(-0.0691691 -0.179743 0)
(-0.00787688 -0.167309 0)
(-0.00470829 -0.180432 0)
(-0.0070148 -0.190098 0)
(-0.00639286 -0.195397 0)
(-0.00614502 -0.197948 0)
(-0.00618689 -0.198944 0)
(-0.00652376 -0.199012 0)
(-0.0071335 -0.198484 0)
(-0.00798473 -0.197542 0)
(-0.00905476 -0.196284 0)
(-0.0103369 -0.194756 0)
(-0.0118385 -0.192967 0)
(-0.0135775 -0.190909 0)
(-0.0155783 -0.188561 0)
(-0.0178699 -0.185907 0)
(-0.0204863 -0.182951 0)
(-0.0234727 -0.179747 0)
(-0.0268974 -0.176425 0)
(-0.0308719 -0.173226 0)
(-0.0355722 -0.170511 0)
(-0.041256 -0.168738 0)
(-0.0482596 -0.16833 0)
(-0.0568712 -0.16928 0)
(-0.0148764 -0.160552 0)
(-0.00778518 -0.179286 0)
(-0.00894408 -0.190562 0)