/*--------------------------------*- C++ -*----------------------------------*\
  =========                 |
  \\      /  F ield         | OpenFOAM: The Open Source CFD Toolbox
   \\    /   O peration     | Website:  https://openfoam.org
    \\  /    A nd           | Version:  9
     \\/     M anipulation  |
\*---------------------------------------------------------------------------*/
FoamFile
{
    format      ascii;
    class       volScalarField;
    location    "4.32";
    object      k;
}
// * * * * * * * * * * * * * * * * * * * * * * * * * * * * * * * * * * * * * //

dimensions      [0 2 -2 0 0 0 0];

internalField   nonuniform List<scalar> 
2268
(
0.000468811
0.00112519
0.00161884
0.00199399
0.00229321
0.00253808
0.0027413
0.00291166
0.00305602
0.00318032
0.00328932
0.00338698
0.00347504
0.00355284
0.00361383
0.00363429
0.00353809
0.00329871
0.00299665
0.0027527
0.00243895
0.00180126
0.000587968
0.00100116
0.00258501
0.00360306
0.00438328
0.00501057
0.00552699
0.00595814
0.00632197
0.00663241
0.00690064
0.00713506
0.0073414
0.00752102
0.00766773
0.00776554
0.00777661
0.00762084
0.00718174
0.0066518
0.0061955
0.00551744
0.00413776
0.00155833
0.00141053
0.00343584
0.00468845
0.00564972
0.00642708
0.00706978
0.00760799
0.00806313
0.00845188
0.00878748
0.00907971
0.00933488
0.00955447
0.00973116
0.00984562
0.00985842
0.00969592
0.00927588
0.00872657
0.00813504
0.0072483
0.00557772
0.00225051
0.00175485
0.00411478
0.00552348
0.00659959
0.00747239
0.0081961
0.00880331
0.00931737
0.00975654
0.0101353
0.0104644
0.0107507
0.0109964
0.0111941
0.011324
0.0113474
0.0111978
0.010817
0.0102859
0.00963692
0.00865213
0.00682154
0.002914
0.00205033
0.00470513
0.00624142
0.00740538
0.00834961
0.00913356
0.00979194
0.0103495
0.0108258
0.0112363
0.0115926
0.0119025
0.0121689
0.0123845
0.0125305
0.0125709
0.0124482
0.0121149
0.0116194
0.0109648
0.00994882
0.00801922
0.00355626
0.00231165
0.00523575
0.00688648
0.00812526
0.00912817
0.00996062
0.0106597
0.0112515
0.0117567
0.0121919
0.0125699
0.0128992
0.0131839
0.0134172
0.0135818
0.0136449
0.0135569
0.0132774
0.0128322
0.0122094
0.0112146
0.00925646
0.00424565
0.00255033
0.00572211
0.00747976
0.00878656
0.00984084
0.0107144
0.0114471
0.0120667
0.0125951
0.0130501
0.0134457
0.0137917
0.0140936
0.0143453
0.0145311
0.0146212
0.0145732
0.0143524
0.0139701
0.0134071
0.0124839
0.0106102
0.00520174
0.00277925
0.00617445
0.00803363
0.00940501
0.0105064
0.0114162
0.0121774
0.0128198
0.0133668
0.0138375
0.0142475
0.014608
0.0149264
0.0151974
0.0154066
0.0155275
0.0155235
0.015365
0.0150547
0.0145722
0.0137662
0.0121421
0.00725645
0.000533348
0.00158633
0.00215549
0.00242934
0.00255548
0.00259024
0.00258377
0.0025831
0.00262496
0.00262106
0.00235841
0.00206542
0.00206174
0.00241661
0.00274073
0.00260782
0.00225939
0.00157321
0.00101489
0.00120067
0.00356788
0.00479221
0.00541132
0.0056718
0.00573923
0.00571743
0.00569271
0.00568353
0.00557976
0.00520639
0.0046829
0.00453241
0.00506025
0.0052684
0.00492526
0.00415402
0.00287164
0.00150728
0.00173997
0.0047953
0.00627691
0.00700029
0.0073092
0.00739122
0.00736338
0.00730737
0.00723269
0.00705178
0.0066594
0.00619997
0.00607195
0.00637408
0.00636005
0.00585249
0.00487436
0.00346295
0.00172461
0.00231538
0.00591488
0.00748567
0.00822699
0.00853662
0.0086112
0.00856737
0.00847784
0.00834851
0.00811429
0.00773415
0.00735441
0.00722828
0.0073104
0.00708904
0.00641643
0.00527825
0.00378102
0.00180123
0.00296659
0.00703484
0.00860869
0.00931411
0.00959325
0.00964328
0.00957367
0.00944783
0.0092716
0.00899972
0.00864004
0.00832086
0.00817098
0.00806489
0.00766429
0.0068342
0.00554981
0.00394491
0.00178257
0.00378013
0.00820591
0.0097055
0.0103329
0.0105589
0.0105714
0.0104681
0.0103036
0.0100854
0.00978573
0.0094415
0.00915089
0.00895571
0.00869605
0.00814652
0.00716505
0.00574381
0.00399761
0.00179275
0.00493203
0.00947105
0.0107969
0.0113113
0.0114682
0.0114339
0.0112916
0.011087
0.0108292
0.0105071
0.0101664
0.00987013
0.00960628
0.00922991
0.00856083
0.00744618
0.00590011
0.00404669
0.00181574
0.00708496
0.0108539
0.0118842
0.0122599
0.0123379
0.0122516
0.0120676
0.0118225
0.0115269
0.0111822
0.010829
0.0105017
0.0101621
0.00969118
0.00892671
0.00770297
0.00605264
0.00414006
0.00184495
0.00306286
0.00679191
0.00881497
0.0102911
0.0114669
0.0124316
0.0132347
0.0139102
0.0144835
0.0149764
0.0154075
0.0157906
0.0161348
0.016437
0.0166858
0.0168596
0.0169298
0.0168726
0.016684
0.0163465
0.0157636
0.0146768
0.0124614
0.00340529
0.00753051
0.0097776
0.0114014
0.012676
0.0137041
0.0145491
0.015254
0.0158461
0.0163521
0.0167975
0.0172005
0.0175721
0.0179136
0.0182178
0.0184691
0.0186448
0.0187206
0.01869
0.0185449
0.018245
0.0176959
0.016771
0.00369718
0.0081642
0.0106778
0.0124711
0.0138501
0.0149299
0.0158008
0.0165229
0.0171167
0.0176161
0.0180607
0.0184732
0.018867
0.0192482
0.0196126
0.0199508
0.0202441
0.0204473
0.0205557
0.0205731
0.0204999
0.0203326
0.0199756
0.00403846
0.00874696
0.0115551
0.0135339
0.0150173
0.0161294
0.0170063
0.0177417
0.0183239
0.0187955
0.0192284
0.0196443
0.0200561
0.0204818
0.0209108
0.021335
0.0217731
0.022093
0.0223102
0.0224498
0.0225458
0.0227163
0.0228341
0.00447993
0.00955858
0.0124024
0.0144001
0.0157785
0.0169164
0.0178461
0.0186208
0.0192501
0.0197735
0.0202561
0.0207059
0.0211523
0.0216388
0.0221224
0.0225692
0.023003
0.0234096
0.0236994
0.0239146
0.0241402
0.0245292
0.0248804
0.00472015
0.00994063
0.0127907
0.0147663
0.0162196
0.0174835
0.0184726
0.0192572
0.0199324
0.0204923
0.0210267
0.0215446
0.0220728
0.0226399
0.023209
0.0237056
0.0242596
0.0248224
0.0250974
0.0252281
0.0254347
0.0256253
0.0258247
0.00488452
0.0101741
0.0130671
0.0151109
0.0164413
0.0176604
0.0187188
0.0196215
0.0204073
0.0210684
0.0216648
0.022224
0.022785
0.0233857
0.0239844
0.0244788
0.0250283
0.0256652
0.0259448
0.0260805
0.026248
0.0264679
0.0269269
0.004677
0.010126
0.0130116
0.0151209
0.0166344
0.0179237
0.0190344
0.019981
0.02081
0.02154
0.0221866
0.0227563
0.0232915
0.0238332
0.0243694
0.0248634
0.0253288
0.0258264
0.0261593
0.0264584
0.0267258
0.0270467
0.0274298
0.00442219
0.00987668
0.0128948
0.0150757
0.0167461
0.0181186
0.0192758
0.0202443
0.0210797
0.0218227
0.0224829
0.0230627
0.0235864
0.0240842
0.0245635
0.0250171
0.0254355
0.0258351
0.0261838
0.0265476
0.0268932
0.0271216
0.0271254
0.0043163
0.00976663
0.0128963
0.0151505
0.0168815
0.0182877
0.0194588
0.0204357
0.0212707
0.0220068
0.0226624
0.0232443
0.0237669
0.024248
0.0246971
0.0251138
0.025491
0.0258249
0.0261221
0.0264116
0.0266706
0.0267792
0.0266372
0.00438741
0.00987321
0.0130139
0.0152662
0.0170177
0.0184355
0.0196069
0.0205837
0.0214156
0.0221437
0.0227906
0.0233679
0.023886
0.0243557
0.0247831
0.0251677
0.0255039
0.0257858
0.0260201
0.0262176
0.0263621
0.0263875
0.0262384
0.00455787
0.0101411
0.0132096
0.0154164
0.0171482
0.0185541
0.0197161
0.0206886
0.0215179
0.0222406
0.0228799
0.0234498
0.02396
0.0244173
0.0248252
0.0251821
0.0254837
0.0257263
0.025913
0.0260467
0.0261178
0.026097
0.0259617
0.00479555
0.0104411
0.0134392
0.0155823
0.0172693
0.0186456
0.0197892
0.0207529
0.0215782
0.0222967
0.0229305
0.0234937
0.0239954
0.0244409
0.0248321
0.0251676
0.0254444
0.0256604
0.0258165
0.0259137
0.0259472
0.025905
0.0257783
0.0050127
0.0107215
0.0136626
0.0157408
0.0173748
0.0187132
0.0198327
0.0207833
0.0216019
0.0223161
0.0229457
0.0235038
0.0239987
0.024435
0.0248142
0.0251354
0.0253968
0.0255971
0.0257369
0.0258166
0.0258344
0.0257855
0.0256658
0.00517721
0.0109499
0.0138492
0.015871
0.017455
0.0187555
0.0198494
0.0207847
0.0215951
0.0223049
0.0229314
0.0234862
0.023977
0.0244077
0.02478
0.0250937
0.0253479
0.0255421
0.0256765
0.0257518
0.0257674
0.0257215
0.0256117
0.00528452
0.0111118
0.0139811
0.0159581
0.0175001
0.0187674
0.0198381
0.0207592
0.0215618
0.0222678
0.0228926
0.0234465
0.0239363
0.0243658
0.0247366
0.0250493
0.0253035
0.0254993
0.0256371
0.0257175
0.0257404
0.0257049
0.0256093
0.00534284
0.0112047
0.0140505
0.0159931
0.0175023
0.0187435
0.019796
0.020706
0.021503
0.0222074
0.0228329
0.023389
0.0238816
0.0243145
0.0246895
0.0250074
0.0252685
0.025473
0.0256215
0.0257144
0.0257517
0.0257328
0.0256561
0.00536831
0.0112317
0.014056
0.0159724
0.0174579
0.0186805
0.0197207
0.0206241
0.0214193
0.0221253
0.0227551
0.0233173
0.0238174
0.024259
0.0246439
0.0249733
0.0252477
0.0254676
0.0256333
0.0257451
0.0258028
0.0258058
0.0257526
0.00537487
0.0111988
0.0140008
0.0158972
0.0173664
0.0185776
0.0196115
0.0205135
0.0213115
0.0220237
0.0226623
0.0232354
0.0237482
0.0242041
0.0246051
0.0249524
0.0252466
0.025488
0.025677
0.0258134
0.0258969
0.0259265
0.0259008
0.00535408
0.0111127
0.0138906
0.0157711
0.0172299
0.018436
0.0194697
0.020376
0.021182
0.0219055
0.0225582
0.0231477
0.023679
0.0241555
0.0245789
0.0249505
0.0252708
0.0255399
0.0257579
0.0259243
0.0260383
0.0260989
0.0261047
0.0053044
0.0109795
0.013731
0.0155987
0.0170522
0.0182589
0.0192983
0.0202144
0.0210342
0.0217748
0.0224474
0.0230594
0.0236156
0.0241191
0.0245715
0.0249739
0.0253266
0.0256295
0.025882
0.0260835
0.0262329
0.0263286
0.0263694
0.00522891
0.0108051
0.0135283
0.0153855
0.0168382
0.0180508
0.0191014
0.0200333
0.0208728
0.0216366
0.0223354
0.0229763
0.023564
0.0241012
0.0245894
0.0250292
0.0254207
0.0257633
0.0260562
0.026298
0.0264873
0.0266225
0.0267018
0.0051311
0.0105955
0.0132887
0.0151377
0.0165935
0.0178169
0.0188843
0.0198379
0.0207032
0.0214964
0.022228
0.0229047
0.0235307
0.0241086
0.0246395
0.0251237
0.0255606
0.0259492
0.0262882
0.0265758
0.0268101
0.0269891
0.0271109
0.00501376
0.0103566
0.0130185
0.0148613
0.0163242
0.0175634
0.0186531
0.0196342
0.0205316
0.0213607
0.0221318
0.0228511
0.0235227
0.0241486
0.0247295
0.0252651
0.0257545
0.026196
0.0265876
0.0269269
0.0272116
0.0274393
0.0276078
0.00487963
0.010094
0.012724
0.0145631
0.016037
0.0172969
0.0184143
0.0194289
0.0203645
0.0212362
0.0220537
0.022823
0.0235476
0.0242291
0.0248678
0.0254627
0.0260123
0.0265141
0.0269653
0.0273631
0.0277043
0.0279863
0.0282063
0.00473114
0.00981273
0.0124114
0.0142499
0.0157391
0.0170245
0.0181751
0.019229
0.0202092
0.0211302
0.0220013
0.022828
0.0236135
0.024359
0.0250639
0.0257269
0.0263452
0.0269158
0.027435
0.0278989
0.0283038
0.0286462
0.0289232
0.00456946
0.00951732
0.0120872
0.0139289
0.0154379
0.016754
0.0179433
0.0190424
0.0200735
0.0210506
0.0219826
0.0228747
0.0237297
0.0245481
0.0253288
0.0260695
0.0267666
0.027416
0.0280125
0.0285514
0.0290279
0.029438
0.0297783
0.00439342
0.00921164
0.0117579
0.0136079
0.0151418
0.0164937
0.017727
0.0188771
0.0199654
0.0210056
0.0220062
0.0229722
0.0239059
0.0248074
0.0256747
0.0265046
0.0272922
0.0280318
0.028717
0.0293415
0.0298994
0.0303858
0.0307966
0.00420579
0.00890094
0.0114312
0.0132953
0.0148592
0.0162519
0.0175347
0.0187415
0.0198934
0.0210037
0.0220809
0.0231299
0.0241526
0.0251487
0.0261153
0.0270477
0.0279398
0.0287837
0.0295713
0.0302943
0.0309453
0.031518
0.0320078
0.00403304
0.00859156
0.0111152
0.0129998
0.0145989
0.0160376
0.0173748
0.0186439
0.0198655
0.0210531
0.0222154
0.0233573
0.0244807
0.0255846
0.0266652
0.0277163
0.0287298
0.0296953
0.0306021
0.0314395
0.0321975
0.0328685
0.0334468
0.00387481
0.00830479
0.0108244
0.0127334
0.0143716
0.0158599
0.0172559
0.0185922
0.0198895
0.0211617
0.0224179
0.0236636
0.0249006
0.0261276
0.0273397
0.028529
0.0296847
0.0307932
0.0318402
0.0328112
0.0336935
0.034477
0.0351549
0.00373087
0.00805154
0.0105693
0.0125053
0.0141859
0.0157276
0.0171862
0.0185943
0.0199728
0.0213365
0.0226956
0.0240565
0.0254216
0.0267893
0.0281537
0.0295048
0.0308284
0.0321068
0.0333204
0.0344497
0.0354773
0.0363903
0.0371805
0.00360469
0.00783802
0.0103571
0.0123229
0.014049
0.0156472
0.017172
0.0186556
0.0201202
0.021582
0.023053
0.0245412
0.0260502
0.0275788
0.0291201
0.0306618
0.0321857
0.0336682
0.0350825
0.0364013
0.0376008
0.0386634
0.0395798
0.00349742
0.00766511
0.0101911
0.012191
0.013966
0.0156238
0.0172172
0.0187792
0.0203336
0.0218991
0.0234905
0.0251183
0.0267882
0.0285002
0.0302474
0.032015
0.0337798
0.0355108
0.0371704
0.0387195
0.0401242
0.0413607
0.0424179
0.0034073
0.00753001
0.0100714
0.0121116
0.0139399
0.0156598
0.0173233
0.0189647
0.0206109
0.0222841
0.0240028
0.0257816
0.0276297
0.0295499
0.0315362
0.0335725
0.0356301
0.037668
0.0396329
0.0414672
0.0431202
0.0445589
0.0457719
0.00333036
0.00742727
0.0099956
0.0120847
0.0139713
0.0157549
0.0174879
0.0192076
0.0209448
0.0227267
0.0245772
0.0265162
0.0285587
0.0307124
0.0329751
0.0353313
0.0377478
0.040171
0.0425248
0.0447205
0.0466785
0.0483523
0.0497333
0.00326212
0.00734967
0.00995968
0.0121084
0.014058
0.015905
0.0177042
0.0194975
0.0213212
0.0232091
0.0251917
0.0272963
0.0295458
0.0319565
0.0345345
0.0372701
0.0401294
0.0430456
0.0459092
0.0485777
0.0509165
0.0528604
0.0544134
0.00320445
0.00729057
0.0099591
0.0121789
0.0141945
0.0161014
0.0179595
0.0198173
0.0217188
0.023705
0.0258144
0.0280834
0.0305458
0.0332308
0.0361601
0.0393395
0.0427458
0.0463034
0.0498598
0.0531752
0.055997
0.0582395
0.0599481
0.0032468
0.00726522
0.00999426
0.0122909
0.0143704
0.0163285
0.0182333
0.0201425
0.0221084
0.0241798
0.0264038
0.028827
0.0314966
0.0344602
0.0377642
0.0414466
0.0455179
0.0499206
0.0544599
0.0587232
0.0621599
0.0646977
0.066501
0.00487797
0.00748704
0.0100934
0.0124376
0.0145679
0.0165619
0.0184969
0.0204409
0.0224543
0.0245929
0.0269117
0.0294676
0.0323222
0.0355457
0.0392193
0.0434347
0.0482791
0.0537824
0.0597768
0.0655937
0.0697791
0.0725078
0.0742571
0.0190068
0.00923861
0.0103353
0.0126008
0.0147559
0.0167657
0.018713
0.0206748
0.0227174
0.0249017
0.0272884
0.0299426
0.0329393
0.0363709
0.0403582
0.045064
0.0507059
0.057541
0.06572
0.0745851
0.0794489
0.0819925
0.0833917
0.084081
0.0162948
0.0108174
0.0127355
0.0148844
0.0168922
0.018839
0.0208059
0.0228613
0.0250682
0.0274901
0.0301969
0.0332717
0.0368216
0.0409961
0.0460193
0.0522497
0.0603044
0.0713474
0.0878342
0.0920196
0.0934069
0.0939949
0.00854599
0.00754012
0.00778432
0.00902813
0.0158615
0.0154413
0.0152606
0.0152792
0.0194631
0.0191408
0.0188696
0.0186466
0.0221851
0.0217927
0.0214738
0.0212081
0.0243517
0.023919
0.0235748
0.0231459
0.025805
0.0253379
0.0249295
0.0244283
0.0266748
0.0262316
0.025889
0.0253559
0.0269185
0.0264765
0.0261048
0.0256651
0.026679
0.0263526
0.026049
0.0257532
0.0263282
0.0261147
0.0259032
0.0256906
0.0260224
0.0258686
0.0257029
0.0255228
0.0257882
0.0256596
0.0255142
0.0253508
0.0256239
0.0255076
0.0253739
0.0252225
0.0255235
0.0254159
0.0252918
0.025151
0.0254809
0.0253818
0.0252672
0.025137
0.0254919
0.0254023
0.025298
0.025179
0.0255549
0.0254762
0.0253835
0.0252767
0.0256701
0.0256039
0.0255241
0.0254306
0.0258397
0.0257874
0.0257217
0.0256426
0.0260671
0.0260301
0.0259797
0.025916
0.0263576
0.0263371
0.0263031
0.0262558
0.0267181
0.0267153
0.0266989
0.0266689
0.0271575
0.0271738
0.0271761
0.0271645
0.0276872
0.0277241
0.0277465
0.0277544
0.0283215
0.0283807
0.0284248
0.0284536
0.0290775
0.0291611
0.0292286
0.0292801
0.0299757
0.0300857
0.0301788
0.0302546
0.0310414
0.0311805
0.0313013
0.0314036
0.0323049
0.032476
0.032627
0.0327581
0.0338017
0.0340079
0.0341921
0.0343542
0.0355737
0.0358184
0.0360384
0.0362339
0.0376695
0.0379559
0.0382143
0.038445
0.040145
0.040476
0.0407747
0.0410419
0.0430647
0.0434423
0.0437822
0.0440857
0.0465033
0.0469277
0.0473076
0.0476453
0.050548
0.0510162
0.0514316
0.0517981
0.0553015
0.0558048
0.0562459
0.0566307
0.0608843
0.0614049
0.0618536
0.0622393
0.0674338
0.0679399
0.068367
0.0687273
0.075096
0.0755374
0.0759005
0.0762003
0.0840011
0.0843103
0.0845575
0.084757
0.0942202
0.0943297
0.0944149
0.0944823
0.0117147
0.0130544
0.0135548
0.0137004
0.0136485
0.0134784
0.0132289
0.012922
0.0125688
0.0121816
0.0117842
0.0113805
0.0109216
0.0103178
0.00942574
0.00807241
0.00630578
0.00438704
0.00189535
0.0154597
0.0156309
0.0156366
0.0155144
0.0152984
0.0150238
0.0146957
0.014316
0.0138885
0.0134252
0.0129377
0.012428
0.0118601
0.0111558
0.0101755
0.00874346
0.00685428
0.00480603
0.00200999
0.0183258
0.0179362
0.0175957
0.0172507
0.0168789
0.0165123
0.0161083
0.0156517
0.0151427
0.0145839
0.014008
0.0134279
0.0128213
0.01212
0.0111774
0.00975911
0.00775082
0.0054898
0.00248317
0.0207755
0.0200385
0.019465
0.0189474
0.0184024
0.0179793
0.0174965
0.0169315
0.0163099
0.0156528
0.015004
0.0143929
0.0138207
0.0132533
0.012542
0.011292
0.00906255
0.00648689
0.00318624
0.0224045
0.0215664
0.0210088
0.0204911
0.0197956
0.0193512
0.0187371
0.0179727
0.0172187
0.0164955
0.0158165
0.0151916
0.0146275
0.0141259
0.0134826
0.0123498
0.0103029
0.00775592
0.00379685
0.0235313
0.0226442
0.0220141
0.0214445
0.02081
0.020284
0.0195907
0.0187201
0.017853
0.0170346
0.0162828
0.015588
0.014927
0.0142571
0.0134291
0.0122969
0.0106748
0.0084541
0.00426261
0.0243886
0.0234726
0.0227666
0.0221555
0.0214692
0.0208912
0.0201567
0.0192551
0.0183384
0.0174644
0.0166444
0.0158506
0.0150527
0.014256
0.0133863
0.0123179
0.010877
0.00869495
0.00457371
0.0249227
0.0240669
0.0233125
0.0226563
0.0219698
0.0212824
0.020491
0.0196277
0.0187206
0.0178116
0.0169192
0.0160259
0.0151137
0.0142072
0.0132616
0.0121718
0.0106689
0.0085404
0.00441578
0.0252428
0.0244781
0.0237047
0.0229781
0.0222324
0.0214649
0.0206753
0.0198623
0.0189945
0.0180722
0.0171141
0.0161281
0.0151062
0.0140578
0.012958
0.0117442
0.0102173
0.00804781
0.00384702
0.0253001
0.0246215
0.0238788
0.0231267
0.0223511
0.0215707
0.0207955
0.020015
0.0191798
0.0182485
0.0172469
0.0161895
0.0150599
0.0138763
0.0126371
0.011286
0.00964832
0.00740221
0.00333904
0.0251884
0.0245866
0.023902
0.0231756
0.0224192
0.0216549
0.0208939
0.0201301
0.0193086
0.0183714
0.0173451
0.016218
0.014986
0.013691
0.0123296
0.0108361
0.00905366
0.00670423
0.00285794
0.0250472
0.0245053
0.0238795
0.0231989
0.0224788
0.0217398
0.0209932
0.0202333
0.0194088
0.0184647
0.0174085
0.0162284
0.0149394
0.0135709
0.0121055
0.010479
0.0085587
0.00610682
0.00259315
0.0249418
0.0244474
0.0238722
0.023236
0.0225523
0.0218381
0.0211036
0.0203403
0.0195035
0.0185483
0.0174746
0.0162895
0.014997
0.0135982
0.012067
0.0103482
0.00834392
0.0058811
0.00263565
0.0248907
0.0244359
0.0239035
0.0233059
0.0226548
0.0219634
0.0212383
0.0204696
0.0196232
0.0186697
0.0176112
0.0164564
0.0151927
0.0138011
0.0122537
0.0105124
0.0085151
0.00612628
0.00290529
0.0248962
0.0244761
0.023981
0.0234188
0.0227989
0.0221305
0.0214172
0.0206497
0.0198067
0.0188718
0.0178457
0.0167306
0.0155104
0.014157
0.0126455
0.0109479
0.009005
0.00665339
0.00326704
0.0249581
0.0245705
0.0241099
0.0235821
0.0229937
0.0223508
0.0216547
0.0208989
0.0200716
0.0191635
0.0181731
0.0170972
0.0159222
0.0146247
0.0131816
0.0115622
0.009696
0.00736496
0.0036697
0.0250767
0.0247215
0.0242949
0.0238011
0.0232448
0.0226298
0.0219564
0.0212206
0.020416
0.0195372
0.0185812
0.0175427
0.0164111
0.0151694
0.0137962
0.012256
0.0104658
0.00816427
0.0040791
0.0252531
0.0249313
0.0245389
0.0240792
0.0235553
0.0229697
0.0223224
0.0216111
0.0208322
0.0199823
0.0190577
0.0180529
0.0169592
0.015763
0.0144433
0.0129598
0.011219
0.00892985
0.00447845
0.0254891
0.0252019
0.0248444
0.0244188
0.0239273
0.0233716
0.0227517
0.0220662
0.021313
0.0204895
0.0195918
0.0186144
0.0175494
0.0163839
0.0150954
0.0136356
0.0119017
0.00956366
0.00487883
0.025788
0.0255366
0.0252144
0.0248229
0.0243636
0.0238375
0.0232447
0.0225842
0.0218545
0.0210533
0.0201764
0.0192182
0.0181708
0.0170199
0.0157405
0.0142814
0.0125229
0.0100899
0.00516577
0.0261547
0.0259403
0.0256538
0.0252963
0.0248686
0.0243713
0.0238043
0.0231667
0.0224572
0.0216731
0.0208104
0.0198631
0.018822
0.0176714
0.0163831
0.0148993
0.013084
0.0105204
0.00532208
0.0265961
0.0264199
0.0261697
0.025846
0.0254493
0.0249796
0.0244367
0.0238194
0.0231267
0.0223548
0.0214996
0.0205543
0.0195085
0.0183445
0.01703
0.0155002
0.0136033
0.0108884
0.00539915
0.0271216
0.026985
0.0267718
0.0264821
0.0261157
0.0256726
0.0251519
0.0245531
0.0238731
0.0231084
0.0222541
0.0213025
0.0202417
0.0190515
0.0176958
0.0161029
0.0141085
0.0112345
0.00545722
0.0277433
0.0276481
0.0274729
0.0272173
0.0268812
0.0264638
0.0259646
0.0253811
0.0247104
0.0239484
0.0230891
0.0221236
0.0210382
0.0198105
0.0184008
0.0167316
0.0146285
0.0115915
0.00552323
0.0284763
0.0284246
0.0282888
0.0280683
0.0277625
0.0273707
0.026891
0.0263209
0.0256569
0.0248937
0.0240242
0.023038
0.0219197
0.0206445
0.0191696
0.0174129
0.0151925
0.0119836
0.00562983
0.0293392
0.0293335
0.0292387
0.0290541
0.0287791
0.0284123
0.0279517
0.027394
0.0267347
0.0259673
0.0250833
0.0240707
0.0229121
0.0215805
0.0200306
0.018177
0.0158323
0.0124439
0.00583243
0.0303528
0.0303961
0.0303444
0.0301973
0.0299541
0.0296131
0.0291718
0.028626
0.0279701
0.0271965
0.0262948
0.0252511
0.0240459
0.0226501
0.0210162
0.0190572
0.0165844
0.0130473
0.00612352
0.031544
0.0316394
0.0316332
0.0315255
0.0313154
0.0310012
0.0305798
0.0300463
0.0293937
0.0286128
0.0276914
0.0266131
0.0253561
0.0238889
0.0221622
0.0200877
0.0174768
0.0137828
0.00651112
0.0329439
0.0330947
0.0331366
0.0330701
0.0328947
0.0326087
0.0322086
0.0316885
0.0310402
0.0302525
0.0293107
0.0281958
0.026883
0.0253377
0.0235083
0.0213045
0.0185348
0.0146361
0.00696536
0.0345889
0.0347983
0.0348905
0.0348668
0.0347277
0.0344717
0.0340948
0.0335904
0.0329487
0.0321563
0.0311955
0.030044
0.0286728
0.0270435
0.0251001
0.0227486
0.0197902
0.0156318
0.00746221
0.0365206
0.0367911
0.036935
0.0369555
0.0368541
0.0366298
0.0362787
0.0357934
0.0351622
0.0343694
0.0333938
0.0322084
0.0307789
0.0290609
0.0269918
0.0244704
0.0212853
0.0168022
0.00801664
0.038786
0.039119
0.0393151
0.03938
0.0393171
0.0391265
0.0388043
0.0383425
0.0377278
0.0369415
0.0359583
0.0347457
0.0332621
0.0314542
0.0292492
0.0265336
0.0230772
0.0181939
0.00865547
0.0414382
0.0418328
0.0420796
0.0421878
0.0421634
0.042008
0.0417184
0.0412857
0.0406954
0.0399257
0.0389466
0.0377188
0.0361913
0.0342984
0.0319519
0.0290186
0.025241
0.0198676
0.00939667
0.0445359
0.0449884
0.0452818
0.0454303
0.045443
0.0453237
0.0450701
0.0446733
0.0441173
0.0433775
0.0424191
0.041195
0.0396428
0.0376802
0.0351961
0.0320278
0.0278758
0.0219007
0.0102382
0.0481447
0.0486468
0.0489792
0.0491621
0.0492088
0.0491254
0.0489111
0.0485573
0.0480472
0.0473538
0.0464381
0.0452449
0.0436988
0.041697
0.0390975
0.0356926
0.0311188
0.0244156
0.011253
0.0523364
0.052874
0.0532335
0.0534419
0.0535171
0.053468
0.0532954
0.0529916
0.0525396
0.0519116
0.0510651
0.0499384
0.0484435
0.0464544
0.0437901
0.0401799
0.0351625
0.027605
0.012605
0.0571905
0.0577421
0.0581115
0.0583331
0.058429
0.0584106
0.0582805
0.0580323
0.0576502
0.0571068
0.0563589
0.0553415
0.0539568
0.0520579
0.0494207
0.0456922
0.0402643
0.0317358
0.0144246
0.0627932
0.0633287
0.0636858
0.0639051
0.0640113
0.0640178
0.0639287
0.0637394
0.0634364
0.0629946
0.0623738
0.0615107
0.0603054
0.0585991
0.0561309
0.0524568
0.0467633
0.0372057
0.0169023
0.0692366
0.0697178
0.0700364
0.0702351
0.0703394
0.070363
0.0703107
0.0701799
0.0699601
0.0696312
0.0691595
0.0684903
0.0675332
0.0661355
0.0640252
0.0606908
0.0550846
0.0446677
0.0205328
0.0766164
0.0770003
0.0772525
0.0774119
0.0775011
0.0775318
0.077509
0.0774314
0.0772924
0.0770782
0.0767649
0.0763128
0.0756542
0.0746673
0.0731179
0.0705103
0.0656571
0.0551212
0.025883
0.0850292
0.0852751
0.085436
0.0855394
0.0856005
0.0856273
0.0856234
0.0855889
0.0855203
0.0854105
0.0852469
0.0850084
0.084658
0.0841277
0.0832764
0.0817675
0.0786183
0.0699665
0.0342768
0.0945731
0.0946542
0.0947074
0.0947423
0.094764
0.0947753
0.0947775
0.0947708
0.0947545
0.094727
0.0946854
0.0946249
0.0945379
0.0944109
0.094217
0.0938819
0.0931009
0.0897727
0.0472568
)
;

boundaryField
{
    leftWall
    {
        type            kqRWallFunction;
        value           nonuniform List<scalar> 
50
(
0.000468811
0.00100116
0.00141053
0.00175485
0.00205033
0.00231165
0.00255033
0.00277925
0.00306286
0.00340529
0.00369718
0.00403846
0.00447993
0.00472015
0.00488452
0.004677
0.00442219
0.0043163
0.00438741
0.00455787
0.00479555
0.0050127
0.00517721
0.00528452
0.00534284
0.00536831
0.00537487
0.00535408
0.0053044
0.00522891
0.0051311
0.00501376
0.00487963
0.00473114
0.00456946
0.00439342
0.00420579
0.00403304
0.00387481
0.00373087
0.00360469
0.00349742
0.0034073
0.00333036
0.00326212
0.00320445
0.0032468
0.00487797
0.0190068
0.084081
)
;
    }
    rightWall
    {
        type            kqRWallFunction;
        value           nonuniform List<scalar> 
50
(
0.00101489
0.00150728
0.00172461
0.00180123
0.00178257
0.00179275
0.00181574
0.00184495
0.00189535
0.00200999
0.00248317
0.00318624
0.00379685
0.00426261
0.00457371
0.00441578
0.00384702
0.00333904
0.00285794
0.00259315
0.00263565
0.00290529
0.00326704
0.0036697
0.0040791
0.00447845
0.00487883
0.00516577
0.00532208
0.00539915
0.00545722
0.00552323
0.00562983
0.00583243
0.00612352
0.00651112
0.00696536
0.00746221
0.00801664
0.00865547
0.00939667
0.0102382
0.011253
0.012605
0.0144246
0.0169023
0.0205328
0.025883
0.0342768
0.0472568
)
;
    }
    lowerWall
    {
        type            kqRWallFunction;
        value           nonuniform List<scalar> 
62
(
0.000468811
0.00112519
0.00161884
0.00199399
0.00229321
0.00253808
0.0027413
0.00291166
0.00305602
0.00318032
0.00328932
0.00338698
0.00347504
0.00355284
0.00361383
0.00363429
0.00353809
0.00329871
0.00299665
0.0027527
0.00243895
0.00180126
0.000587968
0.000587968
0.00155833
0.00225051
0.002914
0.00355626
0.00424565
0.00520174
0.00725645
0.00854599
0.00754012
0.00778432
0.00902813
0.000533348
0.00120067
0.00173997
0.00231538
0.00296659
0.00378013
0.00493203
0.00708496
0.000533348
0.00158633
0.00215549
0.00242934
0.00255548
0.00259024
0.00258377
0.0025831
0.00262496
0.00262106
0.00235841
0.00206542
0.00206174
0.00241661
0.00274073
0.00260782
0.00225939
0.00157321
0.00101489
)
;
    }
    atmosphere
    {
        type            inletOutlet;
        inletValue      uniform 0.1;
        value           nonuniform List<scalar> 
46
(
0.1
0.0162948
0.0108174
0.0127355
0.0148844
0.0168922
0.018839
0.0208059
0.0228613
0.0250682
0.0274901
0.0301969
0.0332717
0.0368216
0.0409961
0.0460193
0.0522497
0.0603044
0.0713474
0.1
0.1
0.1
0.1
0.1
0.1
0.1
0.1
0.1
0.1
0.1
0.1
0.1
0.1
0.1
0.1
0.1
0.1
0.1
0.1
0.1
0.1
0.1
0.1
0.1
0.1
0.0472568
)
;
    }
    defaultFaces
    {
        type            empty;
    }
}


// ************************************************************************* //
