/*--------------------------------*- C++ -*----------------------------------*\
  =========                 |
  \\      /  F ield         | OpenFOAM: The Open Source CFD Toolbox
   \\    /   O peration     | Website:  https://openfoam.org
    \\  /    A nd           | Version:  9
     \\/     M anipulation  |
\*---------------------------------------------------------------------------*/
FoamFile
{
    format      ascii;
    class       surfaceScalarField;
    location    "1.4";
    object      phi;
}
// * * * * * * * * * * * * * * * * * * * * * * * * * * * * * * * * * * * * * //

dimensions      [0 3 -1 0 0 0 0];

internalField   nonuniform List<scalar> 
17280
(
6.33152e-10
-6.42379e-10
-3.24116e-12
9.75581e-10
-3.39556e-10
-2.87567e-12
4.3464e-10
5.38507e-10
2.43545e-12
-1.1021e-09
1.5302e-09
6.53465e-12
-3.56802e-09
2.45599e-09
9.922e-12
-6.82172e-09
3.24082e-09
1.28625e-11
-1.06964e-08
3.85939e-09
1.52384e-11
-1.50231e-08
4.30977e-09
1.70002e-11
-1.96412e-08
4.59993e-09
1.81568e-11
-2.44016e-08
4.74164e-09
1.87395e-11
-2.9168e-08
4.7476e-09
1.87883e-11
-3.38164e-08
4.6301e-09
1.83481e-11
-3.82345e-08
4.40055e-09
1.74629e-11
-4.232e-08
4.06937e-09
1.61727e-11
-4.59808e-08
3.64624e-09
1.45149e-11
-4.91338e-08
3.14048e-09
1.25264e-11
-5.17055e-08
2.56151e-09
1.02447e-11
-5.36326e-08
1.91936e-09
7.71057e-12
-5.48627e-08
1.22513e-09
4.96921e-12
-5.53561e-08
4.91375e-10
2.07111e-12
-5.50876e-08
-2.676e-10
-9.26707e-13
-5.40481e-08
-1.03556e-09
-3.95985e-12
-5.22467e-08
-1.79438e-09
-6.95631e-12
-4.97127e-08
-2.52419e-09
-9.83724e-12
-4.64964e-08
-3.20375e-09
-1.25184e-11
-4.26705e-08
-3.81102e-09
-1.49125e-11
-3.83297e-08
-4.3238e-09
-1.69319e-11
-3.35906e-08
-4.72063e-09
-1.84924e-11
-2.85894e-08
-4.98167e-09
-1.95166e-11
-2.34798e-08
-5.0897e-09
-1.99381e-11
-1.8429e-08
-5.03106e-09
-1.97056e-11
-1.36136e-08
-4.79664e-09
-1.87884e-11
-9.21352e-09
-4.38287e-09
-1.71806e-11
-5.40552e-09
-3.79309e-09
-1.49059e-11
-2.35371e-09
-3.0398e-09
-1.20251e-11
-1.95548e-10
-2.14951e-09
-8.68584e-12
9.836e-10
-1.17401e-09
-5.16338e-12
1.19652e-09
-2.11881e-10
-1.0472e-12
6.52247e-10
5.4067e-10
3.60784e-12
6.52221e-10
4.61031e-14
3.51891e-10
-9.9548e-10
1.21693e-12
-4.93857e-10
5.067e-10
-4.84526e-13
-3.32531e-09
3.37227e-09
-2.28593e-12
-8.36394e-09
6.57414e-09
-5.28926e-12
-1.5521e-08
9.62174e-09
-8.66454e-12
-2.45322e-08
1.22638e-08
-1.17594e-11
-3.50463e-08
1.43878e-08
-1.4292e-11
-4.66789e-08
1.59586e-08
-1.61889e-11
-5.90427e-08
1.69812e-08
-1.74544e-11
-7.17638e-08
1.74809e-08
-1.81192e-11
-8.44899e-08
1.74919e-08
-1.82284e-11
-9.68935e-08
1.70516e-08
-1.78304e-11
-1.08674e-07
1.61977e-08
-1.69725e-11
-1.19555e-07
1.49667e-08
-1.57002e-11
-1.29289e-07
1.33942e-08
-1.40563e-11
-1.37653e-07
1.1516e-08
-1.20819e-11
-1.4445e-07
9.3686e-09
-9.81779e-12
-1.49515e-07
6.99139e-09
-7.3062e-12
-1.52712e-07
4.42743e-09
-4.59305e-12
-1.53944e-07
1.72486e-09
-1.72993e-12
-1.53151e-07
-1.0623e-09
1.22474e-12
-1.50317e-07
-3.87377e-09
4.20565e-12
-1.45475e-07
-6.64315e-09
7.14042e-12
-1.3871e-07
-9.29865e-09
9.95064e-12
-1.30162e-07
-1.17644e-08
1.25534e-11
-1.20026e-07
-1.39624e-08
1.48636e-11
-1.08551e-07
-1.58151e-08
1.6796e-11
-9.60421e-08
-1.72481e-08
1.82684e-11
-8.28493e-08
-1.81937e-08
1.92046e-11
-6.93644e-08
-1.85942e-08
1.95383e-11
-5.60087e-08
-1.8406e-08
1.92165e-11
-4.32207e-08
-1.76029e-08
1.82048e-11
-3.14391e-08
-1.61809e-08
1.64953e-11
-2.10827e-08
-1.41636e-08
1.41185e-11
-1.25232e-08
-1.16105e-08
1.11552e-11
-6.04857e-09
-8.6319e-09
7.74002e-12
-1.80948e-09
-5.41725e-09
4.15157e-12
2.60219e-10
-2.28292e-09
1.34236e-12
5.53637e-10
2.46953e-10
3.52128e-13
1.20935e-09
-3.3835e-12
-5.07545e-10
-4.85044e-10
-2.8901e-12
-3.34873e-09
3.34602e-09
1.86702e-12
-9.13299e-09
9.15662e-09
-7.21224e-14
-1.80167e-08
1.5458e-08
-2.00498e-13
-2.98448e-08
2.14499e-08
-4.45898e-14
-4.42586e-08
2.66778e-08
-2.07918e-13
-6.07816e-08
3.09112e-08
-4.00056e-13
-7.88805e-08
3.40581e-08
-5.59321e-13
-9.80048e-08
3.61063e-08
-6.90602e-13
-1.17612e-07
3.70887e-08
-7.84582e-13
-1.37181e-07
3.7062e-08
-8.36292e-13
-1.56223e-07
3.60944e-08
-8.46614e-13
-1.74283e-07
3.42582e-08
-8.19182e-13
-1.90943e-07
3.16274e-08
-7.58804e-13
-2.05824e-07
2.82761e-08
-6.70513e-13
-2.18588e-07
2.42804e-08
-5.59225e-13
-2.28938e-07
1.97197e-08
-4.29641e-13
-2.36626e-07
1.46791e-08
-2.86064e-13
-2.4145e-07
9.25203e-09
-1.32682e-13
-2.43267e-07
3.54199e-09
2.60197e-14
-2.41994e-07
-2.33588e-09
1.85242e-13
-2.37614e-07
-8.2543e-09
3.40041e-13
-2.30183e-07
-1.40743e-08
4.85416e-13
-2.19836e-07
-1.96468e-08
6.16407e-13
-2.06786e-07
-2.48153e-08
7.28485e-13
-1.91329e-07
-2.94202e-08
8.17906e-13
-1.73841e-07
-3.33036e-08
8.81637e-13
-1.54775e-07
-3.63152e-08
9.16959e-13
-1.3465e-07
-3.83194e-08
9.21039e-13
-1.14043e-07
-3.92025e-08
8.90894e-13
-9.35687e-08
-3.88808e-08
8.2421e-13
-7.38642e-08
-3.73081e-08
7.2128e-13
-5.55597e-08
-3.4486e-08
5.88073e-13
-3.92494e-08
-3.04743e-08
4.36164e-13
-2.5453e-08
-2.54071e-08
2.71279e-13
-1.45678e-08
-1.95172e-08
1.24129e-13
-6.80797e-09
-1.31772e-08
1.56265e-13
-2.12904e-09
-6.96203e-09
1.61123e-13
-1.43299e-10
-1.73821e-09
-6.28387e-13
1.06505e-09
1.01507e-12
-1.51693e-09
1.03876e-09
-6.88128e-12
-6.67775e-09
8.50158e-09
5.27772e-12
-1.57366e-08
1.82152e-08
2.45568e-13
-2.86622e-08
2.83836e-08
6.09859e-14
-4.51698e-08
3.79566e-08
9.62944e-13
-6.47897e-08
4.62964e-08
1.2229e-12
-8.69344e-08
5.30546e-08
1.36147e-12
-1.10952e-07
5.80746e-08
1.47148e-12
-1.36167e-07
6.13198e-08
1.52331e-12
-1.61906e-07
6.28262e-08
1.52986e-12
-1.87518e-07
6.26721e-08
1.50397e-12
-2.12384e-07
6.09587e-08
1.45102e-12
-2.35926e-07
5.7799e-08
1.37393e-12
-2.57611e-07
5.33115e-08
1.27462e-12
-2.76955e-07
4.7619e-08
1.15439e-12
-2.93525e-07
4.0849e-08
1.01408e-12
-3.06942e-07
3.31363e-08
8.54216e-13
-3.1689e-07
2.46259e-08
6.7545e-13
-3.23115e-07
1.54768e-08
4.78972e-13
-3.25438e-07
5.8642e-09
2.66729e-13
-3.23756e-07
-4.01792e-09
4.17346e-14
-3.18053e-07
-1.39567e-08
-1.92109e-13
-3.08406e-07
-2.37209e-08
-4.30111e-13
-2.94988e-07
-3.30641e-08
-6.6703e-13
-2.78074e-07
-4.17288e-08
-8.96726e-13
-2.58039e-07
-4.94536e-08
-1.11171e-12
-2.35361e-07
-5.59807e-08
-1.3032e-12
-2.10608e-07
-6.10663e-08
-1.46179e-12
-1.84434e-07
-6.44916e-08
-1.5788e-12
-1.5756e-07
-6.60749e-08
-1.64723e-12
-1.30755e-07
-6.56844e-08
-1.66153e-12
-1.0481e-07
-6.32522e-08
-1.61595e-12
-8.05053e-08
-5.87888e-08
-1.50204e-12
-5.85774e-08
-5.24009e-08
-1.31557e-12
-3.96705e-08
-4.4313e-08
-1.08479e-12
-2.42884e-08
-3.48985e-08
-7.61706e-13
-1.2738e-08
-2.47275e-08
3.04498e-15
-5.06909e-09
-1.4631e-08
4.31108e-14
-1.0215e-09
-5.78256e-09
-3.2772e-12
3.87162e-11
4.81977e-12
-2.52657e-09
3.57587e-09
-1.05261e-11
-1.00903e-08
1.60561e-08
9.19884e-12
-2.25333e-08
3.06579e-08
2.29899e-13
-3.95681e-08
4.54191e-08
-7.86842e-13
-6.07308e-08
5.91192e-08
1.29307e-13
-8.54153e-08
7.09807e-08
1.41038e-13
-1.12919e-07
8.05579e-08
6.65385e-14
-1.42481e-07
8.76372e-08
4.55925e-14
-1.73321e-07
9.21593e-08
1.88082e-14
-2.04658e-07
9.41637e-08
-7.76881e-15
-2.35738e-07
9.37513e-08
-2.49872e-14
-2.65838e-07
9.10588e-08
-3.23942e-14
-2.94282e-07
8.62434e-08
-3.08649e-14
-3.20445e-07
7.94747e-08
-2.11311e-14
-3.43757e-07
7.09309e-08
-4.15056e-15
-3.63708e-07
6.08e-08
1.86041e-14
-3.79854e-07
4.92821e-08
4.4836e-14
-3.91821e-07
3.65932e-08
7.16664e-14
-3.99315e-07
2.29699e-08
9.62279e-14
-4.02123e-07
8.67239e-09
1.16184e-13
-4.00128e-07
-6.01284e-09
1.3011e-13
-3.93313e-07
-2.07724e-08
1.37304e-13
-3.81766e-07
-3.52675e-08
1.37284e-13
-3.65692e-07
-4.91384e-08
1.29396e-13
-3.45411e-07
-6.20103e-08
1.13095e-13
-3.21361e-07
-7.35036e-08
8.85874e-14
-2.94096e-07
-8.32452e-08
5.74386e-14
-2.6428e-07
-9.08827e-08
2.26443e-14
-2.3267e-07
-9.61009e-08
-1.21559e-14
-2.00106e-07
-9.8639e-08
-4.37765e-14
-1.67481e-07
-9.83096e-08
-6.97807e-14
-1.35715e-07
-9.50181e-08
-8.69809e-14
-1.0572e-07
-8.87839e-08
-8.76803e-14
-7.83579e-08
-7.97628e-08
-7.11223e-14
-5.43963e-08
-6.82745e-08
-8.79056e-14
-3.4459e-08
-5.48358e-08
-3.89331e-14
-1.89789e-08
-4.02084e-08
7.04894e-13
-8.15328e-09
-2.54566e-08
2.4082e-14
-1.91919e-09
-1.20099e-08
-6.71731e-12
-1.8885e-09
8.01719e-12
-3.48358e-09
7.07357e-09
-1.41222e-11
-1.34102e-08
2.59696e-08
1.31068e-11
-2.92178e-08
4.6465e-08
5.12463e-13
-5.03355e-08
6.65378e-08
-1.0523e-12
-7.60896e-08
8.48732e-08
1.41639e-13
-1.05715e-07
1.00606e-07
1.39212e-13
-1.38383e-07
1.13225e-07
4.21792e-14
-1.73225e-07
1.22479e-07
3.28827e-14
-2.09361e-07
1.28296e-07
2.15412e-14
-2.45922e-07
1.30724e-07
8.89993e-15
-2.82063e-07
1.29892e-07
3.34658e-15
-3.16979e-07
1.25976e-07
3.88481e-15
-3.49916e-07
1.1918e-07
9.35347e-15
-3.80173e-07
1.09731e-07
1.96865e-14
-4.07111e-07
9.78689e-08
3.48363e-14
-4.30158e-07
8.38476e-08
5.41043e-14
-4.48817e-07
6.79404e-08
7.55884e-14
-4.62666e-07
5.04427e-08
9.64685e-14
-4.71374e-07
3.16777e-08
1.13859e-13
-4.74702e-07
1.20003e-08
1.2554e-13
-4.72515e-07
-8.19985e-09
1.30363e-13
-4.6479e-07
-2.84977e-08
1.28086e-13
-4.51623e-07
-4.84351e-08
1.18779e-13
-4.33235e-07
-6.75261e-08
1.02399e-13
-4.0998e-07
-8.52656e-08
7.89072e-14
-3.82341e-07
-1.01142e-07
4.87736e-14
-3.50933e-07
-1.14653e-07
1.36232e-14
-3.16491e-07
-1.25325e-07
-2.34725e-14
-2.7986e-07
-1.32732e-07
-5.84682e-14
-2.41976e-07
-1.36523e-07
-8.74383e-14
-2.03841e-07
-1.36444e-07
-1.0755e-13
-1.66492e-07
-1.32367e-07
-1.16155e-13
-1.30964e-07
-1.24312e-07
-1.05535e-13
-9.82461e-08
-1.12481e-07
-7.84881e-14
-6.92379e-08
-9.72825e-08
-1.12418e-13
-4.47036e-08
-7.937e-08
-7.05669e-14
-2.52315e-08
-5.96814e-08
9.33984e-13
-1.1202e-08
-3.94859e-08
-2.09279e-13
-2.77947e-09
-2.04223e-08
-1.01582e-11
-4.6793e-09
1.13268e-11
-4.37628e-09
1.14674e-08
-1.75788e-11
-1.6574e-08
3.81505e-08
1.68028e-11
-3.56596e-08
6.55498e-08
8.20838e-13
-6.07763e-08
9.16558e-08
-1.24115e-12
-9.10269e-08
1.15124e-07
2.298e-13
-1.25472e-07
1.35051e-07
2.21134e-13
-1.63146e-07
1.50899e-07
1.0812e-13
-2.03069e-07
1.62402e-07
1.13993e-13
-2.44265e-07
1.69492e-07
1.19666e-13
-2.85781e-07
1.7224e-07
1.20541e-13
-3.26698e-07
1.70808e-07
1.2433e-13
-3.6614e-07
1.65418e-07
1.28869e-13
-4.03287e-07
1.56327e-07
1.33053e-13
-4.37378e-07
1.43823e-07
1.37767e-13
-4.6772e-07
1.2821e-07
1.43866e-13
-4.93689e-07
1.09817e-07
1.5104e-13
-5.14742e-07
8.89932e-08
1.57465e-13
-5.3042e-07
6.61201e-08
1.60595e-13
-5.40355e-07
4.16133e-08
1.58217e-13
-5.44284e-07
1.5929e-08
1.48905e-13
-5.42052e-07
-1.04325e-08
1.31965e-13
-5.33623e-07
-3.69265e-08
1.07237e-13
-5.19092e-07
-6.29664e-08
7.49607e-14
-4.98688e-07
-8.79303e-08
3.58195e-14
-4.72781e-07
-1.11172e-07
-8.92291e-15
-4.41888e-07
-1.32036e-07
-5.73196e-14
-4.06664e-07
-1.49877e-07
-1.067e-13
-3.67904e-07
-1.64085e-07
-1.53788e-13
-3.26523e-07
-1.74113e-07
-1.9491e-13
-2.83543e-07
-1.79502e-07
-2.26201e-13
-2.40068e-07
-1.7992e-07
-2.44301e-13
-1.97245e-07
-1.75189e-07
-2.46198e-13
-1.56234e-07
-1.65323e-07
-2.23493e-13
-1.1816e-07
-1.50554e-07
-1.82096e-13
-8.40722e-08
-1.3137e-07
-2.24509e-13
-5.4895e-08
-1.08547e-07
-1.76304e-13
-3.13971e-08
-8.31804e-08
1.09884e-12
-1.41629e-08
-5.67196e-08
-4.67594e-13
-3.59095e-09
-3.09808e-08
-1.34688e-11
-8.28477e-09
1.45277e-11
-5.20935e-09
1.66977e-08
-2.08563e-11
-1.95728e-08
5.24937e-08
2.02607e-11
-4.18219e-08
8.77978e-08
1.10238e-12
-7.08246e-08
1.2066e-07
-1.44441e-12
-1.05457e-07
1.49756e-07
2.61938e-13
-1.44599e-07
1.74193e-07
2.22151e-13
-1.87139e-07
1.93439e-07
7.23474e-14
-2.31982e-07
2.07244e-07
7.52165e-14
-2.78058e-07
2.15568e-07
8.44243e-14
-3.24335e-07
2.18517e-07
9.03659e-14
-3.69823e-07
2.16296e-07
9.99729e-14
-4.13588e-07
2.09182e-07
1.09809e-13
-4.54755e-07
1.97494e-07
1.1866e-13
-4.92514e-07
1.81582e-07
1.28012e-13
-5.26125e-07
1.61822e-07
1.38948e-13
-5.54925e-07
1.38617e-07
1.50669e-13
-5.78331e-07
1.12399e-07
1.60709e-13
-5.95849e-07
8.36377e-08
1.66424e-13
-6.07081e-07
5.28446e-08
1.66211e-13
-6.11733e-07
2.05813e-08
1.59356e-13
-6.09628e-07
-1.25374e-08
1.45234e-13
-6.00713e-07
-4.58418e-08
1.22998e-13
-5.85069e-07
-7.86105e-08
9.20271e-14
-5.62922e-07
-1.10078e-07
5.26962e-14
-5.34646e-07
-1.39447e-07
6.71856e-15
-5.00774e-07
-1.65908e-07
-4.30727e-14
-4.61991e-07
-1.8866e-07
-9.32892e-14
-4.19135e-07
-2.06941e-07
-1.40689e-13
-3.73183e-07
-2.20065e-07
-1.82535e-13
-3.25235e-07
-2.2745e-07
-2.16074e-13
-2.76489e-07
-2.28666e-07
-2.3823e-13
-2.28208e-07
-2.23469e-07
-2.45356e-13
-1.81685e-07
-2.11846e-07
-2.27659e-13
-1.38195e-07
-1.94044e-07
-1.94145e-13
-9.89503e-08
-1.70615e-07
-2.71601e-13
-6.50604e-08
-1.42437e-07
-2.46041e-13
-3.74937e-08
-1.10748e-07
1.2657e-12
-1.70519e-08
-7.71607e-08
-7.23361e-13
-4.36444e-09
-4.36516e-08
-1.66563e-11
-1.26668e-08
1.76226e-11
-5.99222e-09
2.27138e-08
-2.39653e-11
-2.242e-08
6.8898e-08
2.35019e-11
-4.77126e-08
1.13089e-07
1.36826e-12
-8.04775e-08
1.53426e-07
-1.62942e-12
-1.19368e-07
1.88647e-07
2.99001e-13
-1.63081e-07
2.17905e-07
2.28036e-13
-2.10356e-07
2.40714e-07
4.06863e-14
-2.5998e-07
2.56869e-07
3.72261e-14
-3.10789e-07
2.66377e-07
4.63255e-14
-3.61673e-07
2.694e-07
5.41482e-14
-4.11581e-07
2.66204e-07
6.71648e-14
-4.59524e-07
2.57126e-07
8.09741e-14
-5.04583e-07
2.42553e-07
9.42638e-14
-5.45906e-07
2.22905e-07
1.08821e-13
-5.82717e-07
1.98633e-07
1.25569e-13
-6.14318e-07
1.70217e-07
1.43025e-13
-6.40092e-07
1.38173e-07
1.58061e-13
-6.59513e-07
1.03059e-07
1.67924e-13
-6.72153e-07
6.54843e-08
1.71539e-13
-6.77688e-07
2.61163e-08
1.68893e-13
-6.75912e-07
-1.43137e-08
1.59592e-13
-6.66745e-07
-5.50089e-08
1.42307e-13
-6.50246e-07
-9.51092e-08
1.15527e-13
-6.26624e-07
-1.337e-07
7.88871e-14
-5.96246e-07
-1.69825e-07
3.38044e-14
-5.59645e-07
-2.02509e-07
-1.67513e-14
-5.17522e-07
-2.30783e-07
-6.89224e-14
-4.70746e-07
-2.53717e-07
-1.18879e-13
-4.20347e-07
-2.70464e-07
-1.63729e-13
-3.67495e-07
-2.80301e-07
-2.01457e-13
-3.13486e-07
-2.82675e-07
-2.30072e-13
-2.59702e-07
-2.77253e-07
-2.46015e-13
-2.07578e-07
-2.6397e-07
-2.37634e-13
-1.58554e-07
-2.43068e-07
-2.16301e-13
-1.14029e-07
-2.15139e-07
-3.32761e-13
-7.53157e-08
-1.81149e-07
-3.33178e-13
-4.36024e-08
-1.42463e-07
1.41181e-12
-1.99177e-08
-1.00844e-07
-9.82334e-13
-5.11925e-09
-5.84303e-08
-1.97662e-11
-1.78068e-08
2.06809e-11
-6.73449e-09
2.94753e-08
-2.69304e-11
-2.51363e-08
8.72732e-08
2.65575e-11
-5.33575e-08
1.41309e-07
1.61542e-12
-8.97603e-08
1.89831e-07
-1.80203e-12
-1.32783e-07
2.31669e-07
3.40406e-13
-1.80938e-07
2.6606e-07
2.41321e-13
-2.32819e-07
2.92595e-07
1.82599e-14
-2.87094e-07
3.11143e-07
7.59208e-15
-3.42504e-07
3.21788e-07
1.48531e-14
-3.97866e-07
3.24762e-07
2.27383e-14
-4.52069e-07
3.20408e-07
3.76565e-14
-5.0408e-07
3.09137e-07
5.45225e-14
-5.52938e-07
2.91411e-07
7.17583e-14
-5.97761e-07
2.67727e-07
9.10255e-14
-6.3774e-07
2.38612e-07
1.12866e-13
-6.7215e-07
2.04626e-07
1.35332e-13
-7.00345e-07
1.66368e-07
1.55011e-13
-7.2177e-07
1.24484e-07
1.69081e-13
-7.35965e-07
7.96789e-08
1.76639e-13
-7.42574e-07
3.27245e-08
1.78025e-13
-7.41354e-07
-1.55331e-08
1.73172e-13
-7.32194e-07
-6.41699e-08
1.60732e-13
-7.15117e-07
-1.12186e-07
1.38674e-13
-6.90302e-07
-1.58514e-07
1.0575e-13
-6.58095e-07
-2.02033e-07
6.24715e-14
-6.19014e-07
-2.4159e-07
1.11482e-14
-5.73762e-07
-2.76034e-07
-4.4522e-14
-5.23228e-07
-3.04251e-07
-1.0008e-13
-4.68482e-07
-3.2521e-07
-1.51453e-13
-4.10763e-07
-3.38019e-07
-1.96086e-13
-3.51462e-07
-3.41976e-07
-2.32942e-13
-2.92087e-07
-3.36628e-07
-2.59633e-13
-2.34226e-07
-3.2183e-07
-2.63135e-13
-1.79502e-07
-2.97791e-07
-2.56187e-13
-1.29522e-07
-2.65119e-07
-4.12346e-13
-8.5825e-08
-2.24847e-07
-4.36938e-13
-4.98359e-08
-1.78454e-07
1.5487e-12
-2.28243e-08
-1.27855e-07
-1.24071e-12
-5.87747e-09
-7.53543e-08
-2.28728e-11
-2.3708e-08
2.37801e-11
-7.44438e-09
3.69494e-08
-2.9774e-11
-2.77419e-08
1.07541e-07
2.94633e-11
-5.87864e-08
1.72351e-07
1.84519e-12
-9.87071e-08
2.29754e-07
-1.96815e-12
-1.45734e-07
2.78695e-07
3.80746e-13
-1.98202e-07
3.18528e-07
2.55353e-13
-2.54558e-07
3.4895e-07
-2.54493e-15
-3.13352e-07
3.69937e-07
-2.15706e-14
-3.73233e-07
3.81669e-07
-1.78071e-14
-4.32947e-07
3.84476e-07
-1.14063e-14
-4.91331e-07
3.78791e-07
4.26583e-15
-5.47309e-07
3.65114e-07
2.34663e-14
-5.99889e-07
3.43991e-07
4.40502e-14
-6.48161e-07
3.15999e-07
6.7272e-14
-6.91296e-07
2.81747e-07
9.33593e-14
-7.28543e-07
2.41873e-07
1.20314e-13
-7.59234e-07
1.97059e-07
1.44836e-13
-7.82786e-07
1.48035e-07
1.64022e-13
-7.98706e-07
9.55989e-08
1.76675e-13
-8.06603e-07
4.0621e-08
1.82981e-13
-8.06195e-07
-1.59411e-08
1.83088e-13
-7.97325e-07
-7.30402e-08
1.76005e-13
-7.79973e-07
-1.29538e-07
1.59619e-13
-7.54275e-07
-1.84212e-07
1.31909e-13
-7.20537e-07
-2.35772e-07
9.22076e-14
-6.79248e-07
-2.82879e-07
4.17147e-14
-6.31098e-07
-3.24184e-07
-1.66708e-14
-5.7698e-07
-3.58369e-07
-7.8679e-14
-5.17995e-07
-3.84195e-07
-1.39366e-13
-4.55443e-07
-4.0057e-07
-1.94682e-13
-3.90809e-07
-4.0661e-07
-2.43026e-13
-3.25732e-07
-4.01706e-07
-2.82673e-13
-2.61966e-07
-3.85596e-07
-2.99718e-13
-2.01336e-07
-3.58421e-07
-3.08339e-13
-1.45676e-07
-3.20778e-07
-5.04739e-13
-9.67759e-08
-2.73746e-07
-5.51236e-13
-5.63217e-08
-2.1891e-07
1.68877e-12
-2.58414e-08
-1.58333e-07
-1.49985e-12
-6.66164e-09
-9.4508e-08
-2.60644e-11
-3.03967e-08
2.70019e-11
-8.12833e-09
4.51103e-08
-3.25153e-11
-3.02545e-08
1.29635e-07
3.22519e-11
-6.40264e-08
2.06121e-07
2.06256e-12
-1.07351e-07
2.7308e-07
-2.12807e-12
-1.58256e-07
3.296e-07
4.21142e-13
-2.14903e-07
3.75175e-07
2.71027e-13
-2.75595e-07
4.09642e-07
-2.09867e-14
-3.38766e-07
4.33108e-07
-4.93368e-14
-4.02978e-07
4.45881e-07
-5.03838e-14
-4.66909e-07
4.48407e-07
-4.67148e-14
-5.29347e-07
4.41229e-07
-3.13183e-14
-5.89182e-07
4.2495e-07
-1.07339e-14
-6.45398e-07
4.00207e-07
1.2006e-14
-6.97066e-07
3.67668e-07
3.76464e-14
-7.43341e-07
3.28021e-07
6.63777e-14
-7.83454e-07
2.81987e-07
9.66322e-14
-8.16719e-07
2.30323e-07
1.25628e-13
-8.42526e-07
1.73843e-07
1.50443e-13
-8.60354e-07
1.13427e-07
1.69222e-13
-8.69772e-07
5.00384e-08
1.81402e-13
-8.70452e-07
-1.5261e-08
1.86906e-13
-8.62186e-07
-8.13068e-08
1.8515e-13
-8.44897e-07
-1.46827e-07
1.74422e-13
-8.18663e-07
-2.10446e-07
1.52386e-13
-7.83734e-07
-2.707e-07
1.17311e-13
-7.40555e-07
-3.26059e-07
6.91281e-14
-6.8978e-07
-3.74959e-07
9.61226e-15
-6.32292e-07
-4.15857e-07
-5.79177e-14
-5.69208e-07
-4.47279e-07
-1.28769e-13
-5.0188e-07
-4.67898e-07
-1.97733e-13
-4.31883e-07
-4.76606e-07
-2.6138e-13
-3.6099e-07
-4.72599e-07
-3.16932e-13
-2.91133e-07
-4.55452e-07
-3.48926e-13
-2.24356e-07
-4.25199e-07
-3.73319e-13
-1.62744e-07
-3.82389e-07
-6.10376e-13
-1.08364e-07
-3.28126e-07
-6.7651e-13
-6.3192e-08
-2.64083e-07
1.83806e-12
-2.90399e-08
-1.92484e-07
-1.76706e-12
-7.49381e-09
-1.16025e-07
-2.94331e-11
-3.79209e-08
3.04305e-11
-8.7911e-09
5.39365e-08
-3.5172e-11
-3.26876e-08
1.53497e-07
3.49469e-11
-6.90994e-08
2.4253e-07
2.27061e-12
-1.15717e-07
3.197e-07
-2.28312e-12
-1.70373e-07
3.84255e-07
4.60936e-13
-2.31058e-07
4.3586e-07
2.87165e-13
-2.95933e-07
4.74518e-07
-3.82987e-14
-3.63323e-07
5.00498e-07
-7.66563e-14
-4.31702e-07
5.1426e-07
-8.35029e-14
-4.99689e-07
5.16394e-07
-8.3688e-14
-5.66029e-07
5.0757e-07
-6.97194e-14
-6.29586e-07
4.88506e-07
-4.88968e-14
-6.89325e-07
4.59947e-07
-2.52557e-14
-7.4431e-07
4.22652e-07
1.3784e-15
-7.93684e-07
3.77396e-07
3.12427e-14
-8.36673e-07
3.24975e-07
6.34078e-14
-8.72574e-07
2.66224e-07
9.59014e-14
-9.00759e-07
2.02028e-07
1.26102e-13
-9.20675e-07
1.33343e-07
1.51626e-13
-9.31853e-07
6.12161e-08
1.70876e-13
-9.33915e-07
-1.31988e-08
1.82921e-13
-9.26592e-07
-8.86297e-08
1.8706e-13
-9.09741e-07
-1.63679e-07
1.81993e-13
-8.83365e-07
-2.36822e-07
1.65587e-13
-8.47643e-07
-3.06423e-07
1.35483e-13
-8.0295e-07
-3.70751e-07
9.04135e-14
-7.49889e-07
-4.2802e-07
3.09537e-14
-6.8931e-07
-4.76436e-07
-4.07056e-14
-6.22327e-07
-5.14261e-07
-1.20863e-13
-5.5033e-07
-5.39895e-07
-2.04243e-13
-4.74977e-07
-5.5196e-07
-2.85868e-13
-3.98173e-07
-5.49402e-07
-3.60773e-13
-3.22039e-07
-5.31586e-07
-4.10384e-13
-2.4885e-07
-4.98387e-07
-4.51928e-13
-1.80973e-07
-4.50265e-07
-7.31637e-13
-1.20783e-07
-3.88315e-07
-8.16129e-13
-7.05782e-08
-3.1429e-07
1.99964e-12
-3.24896e-08
-2.3057e-07
-2.05179e-12
-8.39535e-09
-1.40086e-07
-3.307e-11
-4.63504e-08
3.41504e-11
-9.4361e-09
6.34104e-08
-3.77597e-11
-3.50517e-08
1.79075e-07
3.75653e-11
-7.40223e-08
2.81499e-07
2.47151e-12
-1.23826e-07
3.69506e-07
-2.43453e-12
-1.82101e-07
4.4253e-07
4.98919e-13
-2.4667e-07
5.00429e-07
3.01635e-13
-3.15559e-07
5.43406e-07
-5.68536e-14
-3.86981e-07
5.7192e-07
-1.05604e-13
-4.59332e-07
5.86612e-07
-1.18987e-13
-5.31175e-07
5.88238e-07
-1.24219e-13
-6.01222e-07
5.77617e-07
-1.13206e-13
-6.68318e-07
5.55601e-07
-9.35941e-14
-7.31422e-07
5.23051e-07
-7.01523e-14
-7.89595e-07
4.80825e-07
-4.33118e-14
-8.41986e-07
4.29786e-07
-1.30436e-14
-8.87818e-07
3.70807e-07
2.00582e-14
-9.26384e-07
3.0479e-07
5.48202e-14
-9.5704e-07
2.32684e-07
8.93255e-14
-9.79209e-07
1.55511e-07
1.21302e-13
-9.92381e-07
7.43884e-08
1.48506e-13
-9.96128e-07
-9.45293e-09
1.68858e-13
-9.90111e-07
-9.46466e-08
1.80747e-13
-9.74109e-07
-1.79681e-07
1.82523e-13
-9.48039e-07
-2.62893e-07
1.72264e-13
-9.11985e-07
-3.42477e-07
1.47479e-13
-8.66236e-07
-4.16501e-07
1.06012e-13
-8.11314e-07
-4.82943e-07
4.72357e-14
-7.48011e-07
-5.39739e-07
-2.77318e-14
-6.77417e-07
-5.84855e-07
-1.16208e-13
-6.00937e-07
-6.16375e-07
-2.13586e-13
-5.20296e-07
-6.32599e-07
-3.14391e-13
-4.37531e-07
-6.32167e-07
-4.11664e-13
-3.5495e-07
-6.14166e-07
-4.82538e-13
-2.75083e-07
-5.78254e-07
-5.44433e-13
-2.00599e-07
-5.24747e-07
-8.71276e-13
-1.34219e-07
-4.54695e-07
-9.74328e-13
-7.86079e-08
-3.69903e-07
2.17561e-12
-3.62587e-08
-2.72917e-07
-2.36385e-12
-9.38695e-09
-1.6692e-07
-3.70636e-11
-5.57756e-08
3.82459e-11
-1.00659e-08
7.35167e-08
-4.03137e-11
-3.7355e-08
2.06324e-07
4.01178e-11
-7.88086e-08
3.22949e-07
2.66783e-12
-1.31691e-07
4.22391e-07
-2.58242e-12
-1.93448e-07
5.04286e-07
5.35288e-13
-2.61735e-07
5.68716e-07
3.14141e-13
-3.3444e-07
6.1611e-07
-7.73922e-14
-4.09673e-07
6.47153e-07
-1.37136e-13
-4.85756e-07
6.62695e-07
-1.57978e-13
-5.61203e-07
6.63685e-07
-1.69692e-13
-6.34702e-07
6.51116e-07
-1.63513e-13
-7.05089e-07
6.25989e-07
-1.4688e-13
-7.7133e-07
5.89292e-07
-1.2479e-13
-8.32498e-07
5.41993e-07
-9.81961e-14
-8.87755e-07
4.85043e-07
-6.7638e-14
-9.36335e-07
4.19388e-07
-3.39353e-14
-9.77538e-07
3.45992e-07
2.15023e-15
-1.01071e-06
2.65859e-07
3.95387e-14
-1.03526e-06
1.80061e-07
7.67363e-14
-1.05064e-06
8.97683e-08
1.11692e-13
-1.05637e-06
-3.72612e-09
1.41587e-13
-1.05204e-06
-9.89804e-08
1.63558e-13
-1.03733e-06
-1.94386e-07
1.74535e-13
-1.01207e-06
-2.88155e-07
1.72101e-13
-9.76221e-07
-3.78324e-07
1.53684e-13
-9.29963e-07
-4.62759e-07
1.16636e-13
-8.7371e-07
-5.39196e-07
5.92451e-14
-8.08166e-07
-6.05283e-07
-1.85445e-14
-7.34362e-07
-6.58659e-07
-1.15021e-13
-6.53693e-07
-6.97044e-07
-2.26334e-13
-5.6793e-07
-7.18362e-07
-3.47181e-13
-4.79224e-07
-7.20872e-07
-4.69274e-13
-3.90075e-07
-7.03315e-07
-5.65116e-13
-3.03277e-07
-6.65051e-07
-6.5167e-13
-2.21833e-07
-6.0619e-07
-1.03246e-12
-1.48848e-07
-5.27679e-07
-1.15589e-12
-8.74034e-08
-4.3135e-07
2.36715e-12
-4.04133e-08
-3.19905e-07
-2.71378e-12
-1.04888e-08
-1.96803e-07
-4.15017e-11
-6.63072e-08
4.28008e-11
-1.06831e-08
8.42422e-08
-4.24961e-11
-3.96056e-08
2.35204e-07
4.26099e-11
-8.34714e-08
3.66812e-07
2.86523e-12
-1.39327e-07
4.7825e-07
-2.72414e-12
-2.04421e-07
5.69379e-07
5.72744e-13
-2.76238e-07
6.40533e-07
3.26583e-13
-3.52532e-07
6.92404e-07
-9.909e-14
-4.3131e-07
7.25931e-07
-1.71436e-13
-5.10826e-07
7.42212e-07
-2.01371e-13
-5.89557e-07
7.42416e-07
-2.213e-13
-6.66175e-07
7.27734e-07
-2.21868e-13
-7.39522e-07
6.99337e-07
-2.10021e-13
-8.08585e-07
6.58355e-07
-1.90619e-13
-8.72461e-07
6.0587e-07
-1.64945e-13
-9.30342e-07
5.42925e-07
-1.3423e-13
-9.8149e-07
4.70536e-07
-9.99045e-14
-1.02522e-06
3.89722e-07
-6.2804e-14
-1.06089e-06
3.01529e-07
-2.34603e-14
-1.08789e-06
2.07063e-07
1.7554e-14
-1.10565e-06
1.07528e-07
5.90801e-14
-1.11364e-06
4.25819e-09
9.85538e-14
-1.11136e-06
-1.01253e-07
1.31791e-13
-1.09843e-06
-2.07321e-07
1.54432e-13
-1.07453e-06
-3.12056e-07
1.62513e-13
-1.03951e-06
-4.13347e-07
1.5267e-13
-9.93392e-07
-5.08873e-07
1.21739e-13
-9.36463e-07
-5.96125e-07
6.70565e-14
-8.69298e-07
-6.72448e-07
-1.27332e-14
-7.92832e-07
-7.35124e-07
-1.17057e-13
-7.08411e-07
-7.81465e-07
-2.42853e-13
-6.17821e-07
-8.08952e-07
-3.85174e-13
-5.23304e-07
-8.15388e-07
-5.34821e-13
-4.27544e-07
-7.99074e-07
-6.59615e-13
-3.33607e-07
-7.58987e-07
-7.75918e-13
-2.44856e-07
-6.94939e-07
-1.21947e-12
-1.64828e-07
-6.07706e-07
-1.36679e-12
-9.70806e-08
-4.991e-07
2.5738e-12
-4.50178e-08
-3.71964e-07
-3.11392e-12
-1.1721e-08
-2.30054e-07
-4.6472e-11
-7.80761e-08
4.78989e-11
-1.12902e-08
9.55777e-08
-4.52408e-11
-4.18136e-08
2.65682e-07
4.51235e-11
-8.8028e-08
4.13024e-07
3.077e-12
-1.46753e-07
5.36977e-07
-2.85283e-12
-2.15029e-07
6.37655e-07
6.16308e-13
-2.90168e-07
7.15672e-07
3.4182e-13
-3.69784e-07
7.7202e-07
-1.20912e-13
-4.51788e-07
8.07935e-07
-2.08839e-13
-5.3437e-07
8.24794e-07
-2.50341e-13
-6.15979e-07
8.24025e-07
-2.80376e-13
-6.95287e-07
8.07042e-07
-2.89266e-13
-7.71159e-07
7.75209e-07
-2.83657e-13
-8.42614e-07
7.2981e-07
-2.6829e-13
-9.08797e-07
6.72053e-07
-2.44624e-13
-9.68947e-07
6.03074e-07
-2.14358e-13
-1.02237e-06
5.23958e-07
-1.79494e-13
-1.06841e-06
4.35767e-07
-1.41181e-13
-1.10646e-06
3.39575e-07
-9.98943e-14
-1.1359e-06
2.36507e-07
-5.57544e-14
-1.15615e-06
1.27778e-07
-9.04827e-15
-1.16663e-06
1.47353e-08
3.85487e-14
-1.16678e-06
-1.011e-07
8.28219e-14
-1.1561e-06
-2.17999e-07
1.18515e-13
-1.13417e-06
-3.33992e-07
1.39873e-13
-1.10066e-06
-4.46852e-07
1.41859e-13
-1.05545e-06
-5.54082e-07
1.20054e-13
-9.98644e-07
-6.52936e-07
7.05457e-14
-9.3064e-07
-7.40452e-07
-9.51988e-15
-8.52237e-07
-8.13527e-07
-1.21003e-13
-7.64681e-07
-8.69021e-07
-2.61864e-13
-6.69728e-07
-9.03903e-07
-4.27722e-13
-5.69681e-07
-9.15434e-07
-6.08731e-13
-4.67383e-07
-9.01372e-07
-7.67769e-13
-3.66177e-07
-8.60193e-07
-9.20415e-13
-2.69811e-07
-7.91304e-07
-1.43791e-12
-1.823e-07
-6.95216e-07
-1.61464e-12
-1.07748e-07
-5.73655e-07
2.79315e-12
-5.01346e-08
-4.29574e-07
-3.57883e-12
-1.31036e-08
-2.67033e-07
-5.20644e-11
-9.12333e-08
5.36254e-11
-1.18921e-08
1.07518e-07
-4.76497e-11
-4.39945e-08
2.97737e-07
4.76257e-11
-9.25051e-08
4.61531e-07
3.30592e-12
-1.53999e-07
5.98474e-07
-2.96696e-12
-2.25296e-07
7.08951e-07
6.69301e-13
-3.03523e-07
7.93899e-07
3.61784e-13
-3.86152e-07
8.54648e-07
-1.42737e-13
-4.70995e-07
8.92779e-07
-2.50453e-13
-5.56192e-07
9.09991e-07
-3.06607e-13
-6.40173e-07
9.08007e-07
-3.48615e-13
-7.21627e-07
8.88497e-07
-3.66838e-13
-7.99457e-07
8.53039e-07
-3.68183e-13
-8.72742e-07
8.03094e-07
-3.5774e-13
-9.4069e-07
7.40002e-07
-3.37198e-13
-1.00261e-06
6.64994e-07
-3.08377e-13
-1.05787e-06
5.7922e-07
-2.73423e-13
-1.10588e-06
4.83778e-07
-2.33649e-13
-1.14606e-06
3.79756e-07
-1.89758e-13
-1.17783e-06
2.68274e-07
-1.4211e-13
-1.20059e-06
1.50535e-07
-9.08043e-14
-1.21373e-06
2.78744e-08
-3.66663e-14
-1.21663e-06
-9.81959e-08
1.72867e-14
-1.20869e-06
-2.25935e-07
6.57819e-14
-1.18936e-06
-3.53331e-07
1.02052e-13
-1.15814e-06
-4.7807e-07
1.19166e-13
-1.11471e-06
-5.9751e-07
1.10563e-13
-1.05896e-06
-7.08685e-07
7.01836e-14
-9.91086e-07
-8.08327e-07
-6.99488e-15
-9.11677e-07
-8.92935e-07
-1.23818e-13
-8.21824e-07
-9.58874e-07
-2.79753e-13
-7.23193e-07
-1.00253e-06
-4.71485e-13
-6.18094e-07
-1.02053e-06
-6.88909e-13
-5.09497e-07
-1.00997e-06
-8.89552e-13
-4.01012e-07
-9.68677e-07
-1.08776e-12
-2.96792e-07
-8.95523e-07
-1.69396e-12
-2.01379e-07
-7.90626e-07
-1.90859e-12
-1.19505e-07
-6.55531e-07
3.02093e-12
-5.58251e-08
-4.9325e-07
-4.12563e-12
-1.46569e-08
-3.08142e-07
-5.83724e-11
-1.0595e-07
6.00681e-11
-1.2496e-08
1.20064e-07
-5.01057e-11
-4.61727e-08
3.31363e-07
5.01669e-11
-9.69454e-08
5.123e-07
3.56187e-12
-1.61119e-07
6.62651e-07
-3.06294e-12
-2.3527e-07
7.83102e-07
7.35943e-13
-3.16324e-07
8.74953e-07
3.88239e-13
-4.01603e-07
9.39928e-07
-1.65035e-13
-4.88826e-07
9.80002e-07
-2.97974e-13
-5.76086e-07
9.97251e-07
-3.72461e-13
-6.61812e-07
9.93734e-07
-4.28329e-13
-7.4473e-07
9.71415e-07
-4.56343e-13
-8.23804e-07
9.32114e-07
-4.64364e-13
-8.98192e-07
8.77483e-07
-4.58603e-13
-9.67197e-07
8.09007e-07
-4.41444e-13
-1.03022e-06
7.28017e-07
-4.14721e-13
-1.08672e-06
6.35722e-07
-3.80297e-13
-1.13619e-06
5.33247e-07
-3.39182e-13
-1.17811e-06
4.21676e-07
-2.92088e-13
-1.21194e-06
3.02106e-07
-2.39931e-13
-1.23711e-06
1.75702e-07
-1.83393e-13
-1.25298e-06
4.37504e-08
-1.23058e-13
-1.2589e-06
-9.22788e-08
-6.07148e-14
-1.25416e-06
-2.30674e-07
-5.39789e-16
-1.23807e-06
-3.69425e-07
5.08497e-14
-1.20996e-06
-5.06174e-07
8.52819e-14
-1.1693e-06
-6.38173e-07
9.38501e-14
-1.11572e-06
-7.62268e-07
6.75089e-14
-1.04914e-06
-8.74905e-07
-2.02389e-15
-9.69897e-07
-9.72178e-07
-1.2069e-13
-8.78846e-07
-1.04992e-06
-2.90504e-13
-7.77488e-07
-1.10389e-06
-5.10139e-13
-6.68069e-07
-1.12995e-06
-7.6992e-13
-5.53636e-07
-1.1244e-06
-1.02174e-12
-4.38035e-07
-1.08428e-06
-1.27835e-12
-3.25833e-07
-1.00772e-06
-1.99333e-12
-2.22155e-07
-8.94303e-07
-2.25904e-12
-1.32444e-07
-7.45245e-07
3.25084e-12
-6.21494e-08
-5.6354e-07
-4.77486e-12
-1.64023e-08
-3.53824e-07
-6.54968e-11
-1.2242e-07
6.73191e-11
-1.31131e-08
1.33229e-07
-5.26381e-11
-4.83863e-08
3.66583e-07
5.28138e-11
-1.01416e-07
5.65326e-07
3.86111e-12
-1.682e-07
7.29437e-07
-3.13548e-12
-2.45036e-07
8.59938e-07
8.21853e-13
-3.28628e-07
9.58543e-07
4.23432e-13
-4.16137e-07
1.02744e-06
-1.8839e-13
-5.05189e-07
1.06905e-06
-3.53476e-13
-5.93842e-07
1.0859e-06
-4.50731e-13
-6.80545e-07
1.08044e-06
-5.22518e-13
-7.64082e-07
1.05495e-06
-5.60366e-13
-8.43507e-07
1.01154e-06
-5.73721e-13
-9.18088e-07
9.52065e-07
-5.7079e-13
-9.87247e-07
8.78167e-07
-5.55435e-13
-1.05051e-06
7.9128e-07
-5.29922e-13
-1.10745e-06
6.92669e-07
-4.95858e-13
-1.15768e-06
5.83473e-07
-4.53645e-13
-1.20076e-06
4.6476e-07
-4.0338e-13
-1.23624e-06
3.37579e-07
-3.46052e-13
-1.26356e-06
2.03028e-07
-2.83138e-13
-1.28212e-06
6.23119e-08
-2.15727e-13
-1.29122e-06
-8.3182e-08
-1.44976e-13
-1.29008e-06
-2.31818e-07
-7.36728e-14
-1.27786e-06
-3.81638e-07
-7.40385e-15
-1.25374e-06
-5.30295e-07
4.54204e-14
-1.21692e-06
-6.7499e-07