/*--------------------------------*- C++ -*----------------------------------*\
  =========                 |
  \\      /  F ield         | OpenFOAM: The Open Source CFD Toolbox
   \\    /   O peration     | Website:  https://openfoam.org
    \\  /    A nd           | Version:  9
     \\/     M anipulation  |
\*---------------------------------------------------------------------------*/
FoamFile
{
    format      ascii;
    class       surfaceScalarField;
    location    "5.51";
    object      phi;
}
// * * * * * * * * * * * * * * * * * * * * * * * * * * * * * * * * * * * * * //

dimensions      [0 3 -1 0 0 0 0];

internalField   nonuniform List<scalar> 
4432
(
-1.90588e-07
1.90588e-07
-3.96615e-07
2.06022e-07
-6.12129e-07
2.15512e-07
-8.21727e-07
2.09595e-07
-1.02131e-06
1.99583e-07
-1.20569e-06
1.84377e-07
-1.36612e-06
1.6043e-07
-1.49389e-06
1.27766e-07
-1.58171e-06
8.7827e-08
-1.62401e-06
4.22979e-08
-1.61406e-06
-9.95052e-09
-1.54174e-06
-7.23165e-08
-1.39138e-06
-1.5036e-07
-1.14331e-06
-2.48068e-07
-7.90902e-07
-3.52408e-07
-3.8856e-07
-4.02342e-07
-1.84145e-07
-2.04414e-07
-6.0207e-07
4.17925e-07
-1.4278e-06
8.25728e-07
-2.11639e-06
6.88599e-07
-2.0588e-06
-5.75835e-08
-1.10979e-06
-9.49008e-07
-1.10979e-06
-2.09415e-07
4.00002e-07
-4.24077e-07
4.20677e-07
-6.46025e-07
4.37456e-07
-8.64796e-07
4.28364e-07
-1.07229e-06
4.07073e-07
-1.26129e-06
3.73373e-07
-1.42409e-06
3.23228e-07
-1.55337e-06
2.57055e-07
-1.64368e-06
1.78137e-07
-1.6913e-06
8.99186e-08
-1.69286e-06
-8.3949e-09
-1.64128e-06
-1.23892e-07
-1.52648e-06
-2.65154e-07
-1.34001e-06
-4.34539e-07
-1.08656e-06
-6.05854e-07
-8.1431e-07
-6.74589e-07
-6.7142e-07
-3.47303e-07
-8.87805e-07
6.34314e-07
-1.31437e-06
1.2523e-06
-1.59952e-06
9.73753e-07
-1.55831e-06
-9.87818e-08
-1.03099e-06
-1.47633e-06
-2.14079e-06
-2.19403e-07
6.19404e-07
-4.3959e-07
6.40858e-07
-6.62407e-07
6.6027e-07
-8.82997e-07
6.48955e-07
-1.09267e-06
6.16737e-07
-1.28395e-06
5.64654e-07
-1.44953e-06
4.88808e-07
-1.5829e-06
3.90423e-07
-1.6793e-06
2.74539e-07
-1.73579e-06
1.46407e-07
-1.74968e-06
5.50574e-09
-1.71723e-06
-1.56343e-07
-1.63345e-06
-3.48933e-07
-1.49673e-06
-5.71251e-07
-1.31567e-06
-7.86908e-07
-1.11877e-06
-8.71494e-07
-9.70249e-07
-4.95818e-07
-1.01792e-06
6.81994e-07
-1.15668e-06
1.39106e-06
-1.23177e-06
1.04885e-06
-1.16002e-06
-1.70536e-07
-7.9155e-07
-1.8448e-06
-2.93234e-06
-2.28205e-07
8.47609e-07
-4.56059e-07
8.68709e-07
-6.82822e-07
8.87031e-07
-9.06067e-07
8.722e-07
-1.1182e-06
8.2887e-07
-1.31215e-06
7.58603e-07
-1.48085e-06
6.57501e-07
-1.61818e-06
5.27752e-07
-1.71999e-06
3.76349e-07
-1.78423e-06
2.1065e-07
-1.80976e-06
3.10339e-08
-1.79529e-06
-1.70804e-07
-1.73984e-06
-4.0438e-07
-1.64618e-06
-6.64912e-07
-1.5247e-06
-9.08389e-07
-1.39056e-06
-1.00563e-06
-1.24466e-06
-6.4172e-07
-1.1349e-06
5.72239e-07
-1.03924e-06
1.29541e-06
-9.42267e-07
9.5188e-07
-7.86454e-07
-3.26349e-07
-4.75044e-07
-2.15621e-06
-3.40738e-06
-2.35604e-07
1.08321e-06
-4.7278e-07
1.10588e-06
-7.05939e-07
1.12019e-06
-9.33213e-07
1.09947e-06
-1.14856e-06
1.04421e-06
-1.34572e-06
9.55766e-07
-1.51784e-06
8.29619e-07
-1.65904e-06
6.6895e-07
-1.76573e-06
4.8303e-07
-1.83691e-06
2.81832e-07
-1.87307e-06
6.71953e-08
-1.8751e-06
-1.68771e-07
-1.84473e-06
-4.3475e-07
-1.78736e-06
-7.22282e-07
-1.7143e-06
-9.81447e-07
-1.63557e-06
-1.08435e-06
-1.51618e-06
-7.61109e-07
-1.26303e-06
3.19097e-07
-9.88659e-07
1.02103e-06
-7.3542e-07
6.98643e-07
-4.36586e-07
-6.25182e-07
-1.73511e-07
-2.41929e-06
-3.58089e-06
-2.42778e-07
1.32599e-06
-4.90295e-07
1.3534e-06
-7.30905e-07
1.3608e-06
-9.62925e-07
1.33149e-06
-1.18182e-06
1.2631e-06
-1.38237e-06
1.15632e-06
-1.55784e-06
1.00508e-06
-1.70247e-06
8.1358e-07
-1.81321e-06
5.93765e-07
-1.89019e-06
3.58811e-07
-1.93544e-06
1.12448e-07
-1.95159e-06
-1.5262e-07
-1.9419e-06
-4.44445e-07
-1.91251e-06
-7.51665e-07
-1.87373e-06
-1.02023e-06
-1.82981e-06
-1.12827e-06
-1.73219e-06
-8.58721e-07
-1.4086e-06
-4.49417e-09
-1.00373e-06
6.1617e-07
-6.03543e-07
2.98453e-07
-2.17144e-07
-1.01158e-06
2.29175e-08
-2.65934e-06
-3.55796e-06
-2.51529e-07
1.57752e-06
-5.09125e-07
1.611e-06
-7.56878e-07
1.60855e-06
-9.93375e-07
1.56799e-06
-1.21548e-06
1.4852e-06
-1.41901e-06
1.35985e-06
-1.59722e-06
1.18329e-06
-1.7444e-06
9.60758e-07
-1.85801e-06
7.07385e-07
-1.93929e-06
4.40089e-07
-1.9916e-06
1.64762e-07
-2.0188e-06
-1.25419e-07
-2.02464e-06
-4.38604e-07
-2.0143e-06
-7.6201e-07
-1.9946e-06
-1.03993e-06
-1.9624e-06
-1.16047e-06
-1.86217e-06
-9.58955e-07
-1.53687e-06
-3.29797e-07
-1.04861e-06
1.27906e-07
-5.53961e-07
-1.96197e-07
-1.86241e-07
-1.37931e-06
-4.32314e-09
-2.84126e-06
-3.56229e-06
-2.64966e-07
1.84249e-06
-5.2974e-07
1.87577e-06
-7.82523e-07
1.86133e-06
-1.02227e-06
1.80774e-06
-1.24652e-06
1.70945e-06
-1.45205e-06
1.56538e-06
-1.63187e-06
1.36312e-06
-1.78029e-06
1.10919e-06
-1.89535e-06
8.22449e-07
-1.97921e-06
5.23956e-07
-2.03626e-06
2.21816e-07
-2.07106e-06
-9.06175e-08
-2.08718e-06
-4.22472e-07
-2.08776e-06
-7.61436e-07
-2.07466e-06
-1.05302e-06
-2.03824e-06
-1.1969e-06
-1.9245e-06
-1.0727e-06
-1.60781e-06
-6.46492e-07
-1.10988e-06
-3.70033e-07
-6.11579e-07
-6.94507e-07
-3.14506e-07
-1.67638e-06
-2.74858e-07
-2.88091e-06
-3.83715e-06
-7.17364e-07
7.17364e-07
1.49163e-07
-8.66525e-07
1.0207e-06
-8.7154e-07
1.65587e-06
-6.35167e-07
2.08651e-06
-4.30641e-07
2.37381e-06
-2.87306e-07
2.6049e-06
-2.31083e-07
2.91372e-06
-3.08819e-07
3.43955e-06
-5.25827e-07
3.98586e-06
-5.46315e-07
3.75107e-06
2.34791e-07
2.64499e-06
1.10608e-06
3.7497e-07
2.27002e-06
-1.26518e-06
1.64016e-06
4.29135e-08
-1.3081e-06
1.73944e-06
-1.69652e-06
2.24348e-06
-5.04047e-07
1.6573e-06
5.8619e-07
1.65729e-06
2.1972e-08
6.9539e-07
5.42058e-07
-1.38661e-06
1.04944e-06
-1.37893e-06
1.47513e-06
-1.06085e-06
1.81145e-06
-7.66959e-07
2.07436e-06
-5.50218e-07
2.30727e-06
-4.63988e-07
2.58942e-06
-5.90973e-07
2.98283e-06
-9.19241e-07
3.32475e-06
-8.88229e-07
3.08103e-06
4.78503e-07
2.24242e-06
1.9447e-06
8.3162e-07
3.68081e-06
3.71547e-08
2.43464e-06
6.97577e-07
-1.96854e-06
1.5526e-06
-2.55153e-06
1.74158e-06
-6.93043e-07
1.45669e-06
8.71097e-07
3.11397e-06
5.15509e-07
1.79878e-07
7.54979e-07
-1.62608e-06
1.05646e-06
-1.68041e-06
1.36351e-06
-1.3679e-06
1.63132e-06
-1.03477e-06
1.84706e-06
-7.65957e-07
2.03983e-06
-6.5676e-07
2.25253e-06
-8.03671e-07
2.49942e-06
-1.16613e-06
2.68797e-06
-1.07677e-06
2.3835e-06
7.82962e-07
1.71156e-06
2.61666e-06
9.27444e-07
4.46491e-06
7.78473e-07
2.58363e-06
1.07639e-06
-2.26647e-06
1.435e-06
-2.91013e-06
1.30416e-06
-5.62221e-07
1.04537e-06
1.1299e-06
4.15933e-06
6.51571e-07
-4.71695e-07
8.30506e-07
-1.80501e-06
1.03156e-06
-1.88147e-06
1.26251e-06
-1.59885e-06
1.47675e-06
-1.24901e-06
1.64938e-06
-9.38583e-07
1.7876e-06
-7.94981e-07
1.91091e-06
-9.26981e-07
2.0206e-06
-1.27582e-06
2.09925e-06
-1.15542e-06
1.8011e-06
1.0811e-06
1.29475e-06
3.12302e-06
1.04334e-06
4.71631e-06
1.27104e-06
2.35593e-06
1.33542e-06
-2.33086e-06
1.34226e-06
-2.91697e-06
9.28804e-07
-1.48777e-07
6.22772e-07
1.43594e-06
4.7821e-06
6.06842e-07
-1.07854e-06
8.09668e-07
-2.00784e-06
9.72617e-07
-2.04442e-06
1.15581e-06
-1.78204e-06
1.32859e-06
-1.4218e-06
1.45944e-06
-1.06943e-06
1.54442e-06
-8.79962e-07
1.58142e-06
-9.63969e-07
1.55207e-06
-1.24647e-06
1.48421e-06
-1.08755e-06
1.33877e-06
1.22653e-06
1.07692e-06
3.38488e-06
1.23291e-06
4.56031e-06
1.63854e-06
1.95031e-06
1.46964e-06
-2.16198e-06
1.20929e-06
-2.65661e-06
5.97453e-07
4.63047e-07
2.30437e-07
1.80296e-06
5.01253e-06
5.2491e-07
-1.60345e-06
7.42783e-07
-2.2257e-06
8.87138e-07
-2.18877e-06
1.0379e-06
-1.9328e-06
1.17894e-06
-1.56283e-06
1.27446e-06
-1.16495e-06
1.31452e-06
-9.20018e-07
1.28054e-06
-9.2999e-07
1.13668e-06
-1.1026e-06
9.19034e-07
-8.69903e-07
9.55904e-07
1.18966e-06
1.00594e-06
3.33485e-06
1.42791e-06
4.13833e-06
1.8181e-06
1.56013e-06
1.45274e-06
-1.79662e-06
9.83402e-07
-2.18726e-06
3.35977e-07
1.11046e-06
-8.35441e-08
2.22248e-06
4.92898e-06
4.60306e-07
-2.06376e-06
6.60011e-07
-2.4254e-06
7.82264e-07
-2.31103e-06
9.06451e-07
-2.05699e-06
1.02323e-06
-1.67961e-06
1.09431e-06
-1.23603e-06
1.10262e-06
-9.28333e-07
1.02177e-06
-8.49135e-07
8.07737e-07
-8.88571e-07
5.35867e-07
-5.98029e-07
6.26625e-07
1.0989e-06
9.57547e-07
3.00394e-06
1.56112e-06
3.53475e-06
1.79619e-06
1.32506e-06
1.29037e-06
-1.2908e-06
6.75942e-07
-1.57284e-06
1.19459e-07
1.66694e-06
-3.57335e-07
2.69927e-06
4.57165e-06
4.63305e-07
-2.52706e-06
5.7275e-07
-2.53485e-06
6.61794e-07
-2.40007e-06
7.59468e-07
-2.15467e-06
8.57311e-07
-1.77746e-06
9.14308e-07
-1.29303e-06
9.10437e-07
-9.24467e-07
8.10236e-07
-7.48937e-07
5.82352e-07
-6.60692e-07
3.27495e-07
-3.43171e-07
4.26525e-07
9.99862e-07
9.02354e-07
2.52811e-06
1.53383e-06
2.90328e-06
1.62428e-06
1.23461e-06
1.02832e-06
-6.94843e-07
3.17099e-07
-8.61611e-07
-9.77193e-08
2.08176e-06
-5.60212e-07
3.16177e-06
4.01144e-06
-5.795e-07
2.42199e-06
-1.17862e-06
2.47489e-06
-1.73961e-06
2.42233e-06
-2.25712e-06
2.32525e-06
-2.73487e-06
2.1872e-06
-3.17391e-06
2.00442e-06
-3.55678e-06
1.74599e-06
-3.87139e-06
1.4238e-06
-4.11569e-06
1.06675e-06
-4.29695e-06
7.05224e-07
-4.42611e-06
3.50968e-07
-4.51329e-06
-3.43026e-09
-4.56589e-06
-3.69873e-07
-4.58241e-06
-7.44917e-07
-4.5501e-06
-1.08533e-06
-4.43246e-06
-1.31453e-06
-4.13871e-06
-1.36645e-06
-3.49327e-06
-1.29194e-06
-2.54514e-06
-1.31817e-06
-1.65866e-06
-1.58099e-06
-1.27419e-06
-2.06085e-06
-1.5975e-06
-2.5576e-06
-2.77922e-06
-2.65543e-06
-6.42924e-07
3.06491e-06
-1.26648e-06
3.09845e-06
-1.82098e-06
2.97683e-06
-2.30261e-06
2.80689e-06
-2.76117e-06
2.64577e-06
-3.18906e-06
2.43232e-06
-3.54355e-06
2.10049e-06
-3.83548e-06
1.71574e-06
-4.07138e-06
1.30265e-06
-4.25191e-06
8.85757e-07
-4.37651e-06
4.75566e-07
-4.44791e-06
6.79676e-08
-4.47898e-06
-3.388e-07
-4.48375e-06
-7.4015e-07
-4.44703e-06
-1.12206e-06
-4.30812e-06
-1.45344e-06
-3.97237e-06
-1.70221e-06
-3.35831e-06
-1.90602e-06
-2.56832e-06
-2.10816e-06
-1.84552e-06
-2.3038e-06
-1.41611e-06
-2.49026e-06
-1.33256e-06
-2.64114e-06
-2.72865e-06
-1.38312e-06
-6.56339e-07
3.72124e-06
-1.19037e-06
3.63246e-06
-1.79305e-06
3.57949e-06
-2.40166e-06
3.41548e-06
-2.83571e-06
3.0798e-06
-3.08774e-06
2.68433e-06
-3.2916e-06
2.30432e-06
-3.49732e-06
1.92143e-06
-3.70401e-06
1.50934e-06
-3.88313e-06
1.06486e-06
-3.99592e-06
5.88347e-07
-4.02988e-06
1.01916e-07
-4.02074e-06
-3.47934e-07
-4.00826e-06
-7.52627e-07
-3.99951e-06
-1.1308e-06
-3.90261e-06
-1.55032e-06
-3.55968e-06
-2.04512e-06
-2.96557e-06
-2.50011e-06
-2.29273e-06
-2.78097e-06
-1.65245e-06
-2.94404e-06
-1.2477e-06
-2.89496e-06
-1.12268e-06
-2.76613e-06
-2.74753e-06
-1.10375e-06
-1.22803e-06
4.94925e-06
-7.68649e-07
3.1731e-06
-1.39757e-06
4.20837e-06
-3.68598e-06
5.704e-06
-4.07741e-06
3.47129e-06
-3.30256e-06
1.9095e-06
-3.04873e-06
2.05055e-06
-3.04363e-06
1.91639e-06
-3.21726e-06
1.68302e-06
-3.43328e-06
1.28091e-06
-3.50174e-06
6.56814e-07
-3.48767e-06
8.78563e-08
-3.47376e-06
-3.61849e-07
-3.39374e-06
-8.3265e-07
-3.31084e-06
-1.21373e-06
-3.13493e-06
-1.72629e-06
-2.57348e-06
-2.60666e-06
-1.78618e-06
-3.28753e-06
-2.19129e-06
-2.37601e-06
-1.64857e-06
-3.4869e-06
-1.24524e-06
-3.29837e-06
-9.60371e-07
-3.05108e-06
-2.5583e-06
-1.14965e-06
-8.39695e-07
5.78896e-06
-8.42499e-07
3.17593e-06
-3.02653e-06
6.3923e-06
-8.35414e-06
1.10315e-05
-8.00332e-06
3.12039e-06
-6.42919e-06
3.35283e-07
-5.50165e-06
1.12293e-06
-4.74221e-06
1.15688e-06
-4.20361e-06
1.14434e-06
-3.87125e-06
9.48494e-07
-3.38786e-06
1.73397e-07
-2.46204e-06
-8.37965e-07
-1.50401e-06
-1.31985e-06
-7.25383e-07
-1.61122e-06
-5.15272e-07
-1.42377e-06
-6.95539e-07
-1.54593e-06
-7.41021e-07
-2.56104e-06
-3.76484e-07
-3.6519e-06
-1.72795e-06
-1.02438e-06
-2.53252e-06
-2.68225e-06
-2.82758e-06
-3.00319e-06
-3.25863e-06
-2.61992e-06
-3.79308e-06
-2.02421e-06
-2.05853e-07
5.99482e-06
-8.85214e-07
3.85516e-06
-1.32442e-06
6.8316e-06
4.92203e-07
9.21484e-06
7.96581e-07
2.81602e-06
-4.63865e-07
1.59575e-06
-2.25196e-06
2.91104e-06
-3.13823e-06
2.04314e-06
-3.1864e-06
1.19251e-06
-2.91691e-06
6.79006e-07
-2.34094e-06
-4.02564e-07
-1.76233e-06
-1.41655e-06
-1.14225e-06
-1.93992e-06
-1.04963e-06
-1.70384e-06
-1.51439e-06
-9.59032e-07
-2.98277e-06
-7.75772e-08
-5.37939e-06
-1.64414e-07
-6.35841e-06
-2.67279e-06
-4.62033e-06
-2.76244e-06
-5.13707e-06
-2.16552e-06
-6.25006e-06
-1.89012e-06
-6.01644e-06
-2.85312e-06
-6.20638e-06
-3.60279e-06
1.77738e-06
4.21757e-06
4.39437e-07
5.19315e-06
1.01192e-06
6.2592e-06
4.39292e-06
5.83384e-06
3.46403e-06
3.74492e-06
1.73243e-06
3.32735e-06
7.6053e-07
3.88294e-06
-2.87983e-07
3.09163e-06
-1.05986e-06
1.96434e-06
-1.36555e-06
9.84638e-07
-1.65086e-06
-1.17321e-07
-2.08264e-06
-9.84859e-07
-2.73929e-06
-1.28336e-06
-3.57993e-06
-8.63292e-07
-4.55871e-06
1.96596e-08
-5.35498e-06
7.18604e-07
-5.37874e-06
-1.40804e-07
-5.66862e-06
-2.3831e-06
-5.61746e-06
-2.81383e-06
-5.98729e-06
-1.796e-06
-5.81643e-06
-2.0614e-06
-3.4875e-06
-5.18221e-06
-5.64464e-06
-4.04947e-06
1.02766e-06
3.18973e-06
1.50044e-06
4.72045e-06
2.59268e-06
5.16682e-06
3.53722e-06
4.88924e-06
3.14735e-06
4.13476e-06
2.28475e-06
4.18996e-06
1.87405e-06
4.29368e-06
1.34639e-06
3.61933e-06
6.90265e-07
2.6205e-06
9.23039e-08
1.58262e-06
-6.13025e-07
5.8802e-07
-1.4413e-06
-1.56581e-07
-2.37581e-06
-3.48859e-07
-3.2863e-06
4.72014e-08
-3.98211e-06
7.15531e-07
-4.2017e-06
9.38318e-07
-3.79296e-06
-5.49404e-07
-4.07548e-06
-2.10048e-06
-4.596e-06
-2.2933e-06
-4.00864e-06
-2.38335e-06
-2.59815e-06
-3.47192e-06
-2.40879e-06
-5.37156e-06
-4.43301e-06
-3.62058e-06
5.49572e-07
2.64016e-06
1.36275e-06
3.90736e-06
2.16744e-06
4.3621e-06
2.67621e-06
4.38048e-06
2.5095e-06
4.30154e-06
2.26485e-06
4.43469e-06
2.15801e-06
4.40058e-06
1.92464e-06
3.85275e-06
1.52059e-06
3.02457e-06
9.84818e-07
2.11838e-06
2.97651e-07
1.27514e-06
-5.06361e-07
6.47354e-07
-1.32107e-06
4.65752e-07
-1.96749e-06
6.93533e-07
-2.23119e-06
9.79187e-07
-2.08347e-06
7.9059e-07
-2.20196e-06
-4.30932e-07
-2.61757e-06
-1.68486e-06
-2.76984e-06
-2.14092e-06
-2.2818e-06
-2.87127e-06
-1.7477e-06
-4.006e-06
-2.6547e-06
-4.46448e-06
-3.95505e-06
-3.13272e-06
3.47008e-07
2.29332e-06
9.17671e-07
3.33666e-06
1.44549e-06
3.8343e-06
1.75192e-06
4.0741e-06
1.81182e-06
4.24169e-06
1.86296e-06
4.38359e-06
1.9497e-06
4.31384e-06
1.91595e-06
3.88648e-06
1.71965e-06
3.22081e-06
1.35827e-06
2.47967e-06
8.35941e-07
1.79736e-06
1.92879e-07
1.29026e-06
-4.14044e-07
1.07248e-06
-8.12963e-07
1.09223e-06
-9.01258e-07
1.06728e-06
-7.92389e-07
6.81531e-07
-9.54559e-07
-2.69019e-07
-1.34946e-06
-1.29029e-06
-1.45603e-06
-2.03464e-06
-1.48229e-06
-2.84524e-06
-1.88442e-06
-3.6041e-06
-2.53595e-06
-3.81313e-06
-3.51348e-06
-2.97766e-06
1.55594e-07
2.13775e-06
4.68923e-07
3.02321e-06
7.81165e-07
3.52205e-06
1.0061e-06
3.84918e-06
1.16627e-06
4.08154e-06
1.33898e-06
4.21087e-06
1.51376e-06
4.13906e-06
1.60245e-06
3.79777e-06
1.55364e-06
3.2696e-06
1.34566e-06
2.68764e-06
9.87919e-07
2.15508e-06
5.32597e-07
1.74557e-06
1.18706e-07
1.48635e-06
-1.25074e-07
1.33599e-06
-1.84578e-07
1.12679e-06
-1.77824e-07
6.74811e-07
-3.35479e-07
-1.11359e-07
-6.25654e-07
-1.00016e-06
-8.43988e-07
-1.81634e-06
-1.15158e-06
-2.53773e-06
-1.69436e-06
-3.06142e-06
-2.31645e-06
-3.19107e-06
-3.03331e-06
-2.7966e-06
1.19035e-08
2.12572e-06
1.372e-07
2.89783e-06
3.00046e-07
3.35919e-06
4.65421e-07
3.68379e-06
6.40318e-07
3.90663e-06
8.40981e-07
4.01019e-06
1.03871e-06
3.94131e-06
1.17676e-06
3.65972e-06
1.20422e-06
3.24217e-06
1.09279e-06
2.79913e-06
8.64873e-07
2.38308e-06
5.83934e-07
2.0266e-06
3.31803e-07
1.73857e-06
1.78749e-07
1.48915e-06
1.25468e-07
1.18024e-06
9.0083e-08
7.1042e-07
-5.99402e-08
3.88943e-08
-3.10724e-07
-7.49171e-07
-6.00365e-07
-1.52646e-06
-9.90806e-07
-2.14709e-06
-1.5116e-06
-2.5405e-06
-2.08341e-06
-2.61917e-06
-2.54895e-06
-2.56772e-06
-8.52868e-08
2.21089e-06
-7.70728e-08
2.88963e-06
-1.35373e-08
3.29566e-06
9.34351e-08
3.5768e-06
2.40892e-07
3.75912e-06
4.22205e-07
3.82882e-06
6.06684e-07
3.75679e-06
7.42114e-07
3.52427e-06
7.87515e-07
3.19677e-06
7.37779e-07
2.84888e-06
6.16134e-07
2.50475e-06
4.64998e-07
2.17776e-06
3.27992e-07
1.87558e-06
2.42657e-07
1.57447e-06
2.03501e-07
1.2194e-06
1.58073e-07
7.55892e-07
3.22101e-08
1.64811e-07
-1.962e-07
-5.20708e-07
-5.20473e-07
-1.20211e-06
-9.22857e-07
-1.74465e-06
-1.40762e-06
-2.05572e-06
-1.89402e-06
-2.1328e-06
-2.12157e-06
-2.32149e-06
-1.46008e-07
2.3569e-06
-2.10031e-07
2.95377e-06
-2.14044e-07
3.29972e-06
-1.60765e-07
3.52351e-06
-5.67134e-08
3.65503e-06
8.39503e-08
3.68809e-06
2.3262e-07
3.60806e-06
3.42328e-07
3.41451e-06
3.90016e-07
3.14905e-06
3.82995e-07
2.85588e-06
3.36566e-07
2.55115e-06
2.69766e-07
2.24452e-06
2.0868e-07
1.93658e-06
1.70644e-07
1.61238e-06
1.48383e-07
1.24151e-06
1.08242e-07
7.95875e-07
5.04353e-09
2.67843e-07
-1.99729e-07
-3.16108e-07
-5.113e-07
-8.90688e-07
-8.98667e-07
-1.35743e-06
-1.32841e-06
-1.62613e-06
-1.72822e-06
-1.73315e-06
-1.772e-06
-2.07797e-06
-1.85038e-07
2.54203e-06
-2.97403e-07
3.06624e-06
-3.48113e-07
3.35047e-06
-3.39927e-07
3.51532e-06
-2.80747e-07
3.59581e-06
-1.85628e-07
3.59293e-06
-7.98915e-08
3.50227e-06
5.34923e-09
3.32923e-06
5.60947e-08
3.09826e-06
7.61989e-08
2.83574e-06
7.30723e-08
2.55425e-06
5.80031e-08
2.25955e-06
4.32338e-08
1.9513e-06
3.51406e-08
1.62038e-06
2.56344e-08
1.25089e-06
-8.53612e-09
8.29898e-07
-9.89936e-08
3.58137e-07
-2.73243e-07
-1.42028e-07
-5.42166e-07
-6.21916e-07
-8.85666e-07
-1.01406e-06
-1.24097e-06
-1.27095e-06
-1.5644e-06
-1.40981e-06
-1.48692e-06
-1.84954e-06
-2.14446e-07
2.75658e-06
-3.60542e-07
3.21235e-06
-4.43879e-07
3.43378e-06
-4.7075e-07
3.54215e-06
-4.49646e-07
3.57467e-06
-3.94255e-07
3.53749e-06
-3.23858e-07
3.43183e-06
-2.5842e-07
3.26375e-06
-2.08589e-07
3.04839e-06
-1.74469e-07
2.80159e-06
-1.52654e-07
2.53241e-06
-1.38198e-07
2.24509e-06
-1.26447e-07
1.93954e-06
-1.17115e-07
1.61104e-06
-1.18525e-07
1.25227e-06
-1.47765e-07
8.59119e-07
-2.26512e-07
4.36864e-07
-3.734e-07
4.84729e-09
-5.93018e-07
-4.02291e-07
-8.64946e-07
-7.42098e-07
-1.14876e-06
-9.87073e-07
-1.41203e-06
-1.14644e-06
-1.25317e-06
-1.64563e-06
-2.40294e-07
2.9969e-06
-4.08868e-07
3.38083e-06
-5.15215e-07
3.54004e-06
-5.6781e-07
3.59467e-06
-5.7544e-07
3.58224e-06
-5.49804e-07
3.51181e-06
-5.05194e-07
3.38718e-06
-4.55517e-07
3.21403e-06
-4.09178e-07
3.00201e-06
-3.6861e-07
2.76099e-06
-3.33647e-07
2.49743e-06
-3.03274e-07
2.21472e-06
-2.77192e-07
1.91349e-06
-2.58171e-07
1.59206e-06
-2.54056e-07
1.24822e-06
-2.77474e-07
8.82619e-07
-3.42883e-07
5.02373e-07
-4.6129e-07
1.23373e-07
-6.3323e-07
-2.30211e-07
-8.43295e-07
-5.31869e-07
-1.06481e-06
-7.65374e-07
-1.27552e-06
-9.35516e-07
-1.06175e-06
-1.46671e-06
-2.63635e-07
3.26048e-06
-4.46609e-07
3.56364e-06
-5.68534e-07
3.66185e-06
-6.38745e-07
3.6648e-06
-6.66111e-07
3.60955e-06
-6.6079e-07
3.50645e-06
-6.33906e-07
3.36027e-06
-5.95793e-07
3.17589e-06
-5.53573e-07
2.95977e-06
-5.10929e-07
2.71832e-06
-4.69763e-07
2.45625e-06
-4.31459e-07
2.17643e-06
-3.98075e-07
1.88014e-06
-3.73657e-07
1.5677e-06
-3.65103e-07
1.23975e-06
-3.81647e-07
8.99271e-07
-4.32717e-07
5.53573e-07
-5.24428e-07
2.15233e-07
-6.55506e-07
-9.89686e-08
-8.14963e-07
-3.72234e-07
-9.85388e-07
-5.94763e-07
-1.15174e-06
-7.68973e-07
-9.06572e-07
-1.30671e-06
-2.82762e-07
3.54313e-06
-4.74776e-07
3.75549e-06
-6.06515e-07
3.79348e-06
-6.87477e-07
3.74568e-06
-7.27021e-07
3.64904e-06
-7.34414e-07
3.51381e-06
-7.18866e-07
3.34469e-06
-6.88679e-07
3.14568e-06
-6.50174e-07
2.92124e-06
-6.07618e-07
2.67575e-06
-5.64078e-07
2.4127e-06
-5.22279e-07
2.13463e-06
-4.85394e-07
1.84328e-06
-4.57759e-07
1.54011e-06
-4.45172e-07
1.22722e-06
-4.54334e-07
9.08504e-07
-4.9134e-07
5.90664e-07
-5.59456e-07
2.83444e-07
-6.56879e-07
-1.44614e-09
-7.75898e-07
-2.53115e-07
-9.05143e-07
-4.65423e-07
-1.03444e-06
-6.39592e-07
-7.82855e-07
-1.15807e-06
-2.95018e-07
3.83804e-06
-4.93839e-07
3.95419e-06
-6.29972e-07
3.92953e-06
-7.15804e-07
3.83146e-06
-7.61491e-07
3.69469e-06
-7.75838e-07
3.52812e-06
-7.66896e-07
3.33572e-06
-7.41764e-07
3.12053e-06
-7.06195e-07
2.88565e-06
-6.64634e-07
2.63416e-06
-6.20701e-07
2.36875e-06
-5.77734e-07
2.09164e-06
-5.39286e-07
1.80482e-06
-5.09486e-07
1.5103e-06
-4.93074e-07
1.21081e-06
-4.9491e-07
9.10344e-07
-5.18949e-07
6.14709e-07
-5.66881e-07
3.31382e-07
-6.36958e-07
6.86333e-08
-7.23792e-07
-1.66287e-07
-8.1985e-07
-3.6938e-07
-9.18186e-07
-5.41282e-07
-6.86603e-07
-1.01447e-06
-3.00255e-07
4.13821e-06
-5.03217e-07
4.15709e-06
-6.3834e-07
4.06462e-06
-7.24057e-07
3.91715e-06
-7.71283e-07
3.74189e-06
-7.88454e-07
3.54527e-06
-7.82823e-07
3.33006e-06
-7.60676e-07
3.09835e-06
-7.27294e-07
2.85223e-06
-6.87049e-07
2.59388e-06
-6.43708e-07
2.32536e-06
-6.00764e-07
2.04866e-06
-5.61733e-07
1.76574e-06
-5.30314e-07
1.47883e-06
-5.10325e-07
1.19076e-06
-5.05314e-07
9.05275e-07
-5.17879e-07
6.2721e-07
-5.48871e-07
3.62305e-07
-5.96801e-07
1.16485e-07
-6.57882e-07
-1.05292e-07
-7.27018e-07
-3.00341e-07
-7.9939e-07
-4.69012e-07
-6.14367e-07
-8.71735e-07
-2.99996e-07
4.43817e-06
-5.00339e-07
4.35743e-06
-6.29582e-07
4.19387e-06
-7.11526e-07
3.99909e-06
-7.5715e-07
3.7875e-06
-7.74442e-07
3.56254e-06
-7.70012e-07
3.3256e-06
-7.49522e-07
3.07782e-06
-7.17807e-07
2.82048e-06
-6.79016e-07
2.55504e-06
-6.36802e-07
2.2831e-06
-5.94541e-07
2.00634e-06
-5.55492e-07
1.72662e-06
-5.22857e-07
1.44613e-06
-4.99688e-07
1.16751e-06
-4.886e-07
8.94094e-07
-4.91335e-07
6.29846e-07
-5.08304e-07
3.79167e-07
-5.38307e-07
1.46372e-07
-5.78648e-07
-6.50731e-08
-6.25791e-07
-2.53325e-07
-6.76317e-07
-4.18615e-07
-5.63077e-07
-7.27737e-07
-2.89417e-07
4.72758e-06
-4.79502e-07
4.54755e-06
-6.00991e-07
4.31537e-06
-6.7736e-07
4.07547e-06
-7.19624e-07
3.82976e-06
-7.35475e-07
3.57837e-06
-7.31047e-07
3.32115e-06
-7.1149e-07
3.05823e-06
-6.81209e-07
2.79016e-06
-6.44026e-07
2.51782e-06
-6.03334e-07
2.24236e-06
-5.62235e-07
1.96519e-06
-5.23628e-07
1.68795e-06
-4.90222e-07
1.41265e-06
-4.64448e-07
1.14165e-06
-4.48254e-07
8.77808e-07
-4.42833e-07
6.24326e-07
-4.4837e-07
3.84598e-07
-4.63914e-07
1.61803e-07
-4.87512e-07
-4.15931e-08
-5.16638e-07
-2.24319e-07
-5.48797e-07
-3.86576e-07
-5.29941e-07
-5.82054e-07
-2.66385e-07
4.99399e-06
-4.40691e-07
4.72189e-06
-5.5296e-07
4.42766e-06
-6.22367e-07
4.14489e-06
-6.60021e-07
3.86742e-06
-6.73436e-07
3.59178e-06
-6.68341e-07
3.31604e-06
-6.494e-07
3.03928e-06
-6.20557e-07
2.7613e-06
-5.85235e-07
2.48247e-06
-5.4647e-07
2.20357e-06
-5.07006e-07
1.92569e-06
-4.69344e-07
1.65025e-06
-4.35734e-07
1.37898e-06
-4.08103e-07
1.11396e-06
-3.87913e-07
8.57547e-07
-3.75998e-07
6.12334e-07
-3.72423e-07
3.8094e-07
-3.76436e-07
1.65728e-07
-3.86588e-07
-3.1534e-08
-4.01019e-07
-2.09983e-07
-4.1785e-07
-3.6984e-07
-5.12351e-07
-4.35536e-07
-2.36445e-07
5.23046e-06
-3.90615e-07
4.87609e-06
-4.89375e-07
4.52644e-06
-5.49209e-07
4.20473e-06
-5.8063e-07
3.89884e-06
-5.90679e-07
3.60183e-06
-5.84474e-07
3.30984e-06
-5.66061e-07
3.02086e-06
-5.38831e-07
2.73406e-06
-5.05729e-07
2.44936e-06
-4.69364e-07
2.16719e-06
-4.32077e-07
1.88838e-06
-3.95962e-07
1.61411e-06
-3.62851e-07
1.34584e-06
-3.34255e-07
1.08533e-06
-3.11277e-07
8.34523e-07
-2.94502e-07
5.95509e-07
-2.8393e-07
3.70313e-07
-2.7896e-07
1.60699e-07
-2.78488e-07
-3.20693e-08
-2.81103e-07
-2.07435e-07
-2.85343e-07
-3.65667e-07
-5.07822e-07
-2.89943e-07
-2.03427e-07
5.43391e-06
-3.33196e-07
5.00588e-06
-4.13809e-07
4.60706e-06
-4.60742e-07
4.25167e-06
-4.84048e-07
3.92215e-06
-4.89843e-07
3.60763e-06
-4.82242e-07
3.30224e-06
-4.64432e-07
3.00305e-06
-4.39119e-07
2.70875e-06
-4.0869e-07
2.41893e-06
-3.75278e-07
2.13377e-06
-3.40796e-07
1.85389e-06
-3.06934e-07
1.58023e-06
-2.75143e-07
1.31403e-06
-2.46587e-07
1.05675e-06
-2.22087e-07
8.09996e-07
-2.02051e-07
5.75444e-07
-1.86439e-07
3.54668e-07
-1.74766e-07
1.48988e-07
-1.66168e-07
-4.07072e-08
-1.59543e-07
-2.14103e-07
-1.5372e-07
-3.71535e-07
-5.13956e-07
-1.47634e-07
-1.69022e-07
5.60295e-06
-2.70768e-07
5.10762e-06
-3.28682e-07
4.66498e-06
-3.59296e-07
4.28229e-06
-3.72767e-07
3.93563e-06
-3.73698e-07
3.60857e-06
-3.64645e-07
3.29319e-06
-3.47674e-07
2.98608e-06
-3.2469e-07
2.68576e-06
-2.97465e-07
2.3917e-06
-2.67631e-07
2.10393e-06
-2.36659e-07
1.82291e-06
-2.05845e-07
1.54941e-06
-1.76286e-07
1.28446e-06
-1.48848e-07
1.0293e-06
-1.24121e-07
7.85255e-07
-1.0238e-07
5.53686e-07
-8.35597e-08
3.35828e-07
-6.72616e-08
1.32668e-07
-5.27994e-08
-5.51925e-08
-3.9291e-08
-2.27636e-07
-2.5775e-08
-3.85077e-07
-5.28425e-07
-1.13331e-08
-1.3443e-07
5.73738e-06
-2.0504e-07
5.17822e-06
-2.35547e-07
4.69548e-06
-2.46612e-07
4.29335e-06
-2.49164e-07
3.93817e-06
-2.45159e-07
3.60456e-06
-2.34899e-07
3.28292e-06
-2.19154e-07
2.97033e-06
-1.98993e-07
2.6656e-06
-1.75565e-07
2.36827e-06
-1.4999e-07
2.07836e-06
-1.23296e-07
1.79622e-06
-9.63884e-08
1.5225e-06
-7.00357e-08
1.25811e-06
-4.48329e-08
1.00409e-06
-2.11755e-08
7.61589e-07
7.69543e-10
5.31733e-07
2.10812e-08
3.15508e-07
4.00876e-08
1.13652e-07
5.83385e-08
-7.34529e-08
7.65486e-08
-2.45855e-07
9.55224e-08
-4.04059e-07
-5.48977e-07
1.16067e-07
-9.92676e-08
5.83664e-06
-1.36074e-07
5.21501e-06
-1.34591e-07
4.69398e-06
-1.23737e-07
4.28248e-06
-1.15944e-07
3.93037e-06
-1.07491e-07
3.59609e-06
-9.64677e-08
3.27189e-06
-8.23993e-08
2.95625e-06
-6.55886e-08
2.64878e-06
-4.65882e-08
2.34926e-06
-2.59999e-08
2.05776e-06
-4.4e-09
1.77461e-06
1.76868e-08
1.50041e-06
3.98216e-08
1.23597e-06
6.1658e-08
9.82249e-07
8.29719e-08
7.40273e-07
1.03685e-07
5.11019e-07
1.23884e-07
2.9531e-07
1.43831e-07
9.37071e-08
1.63959e-07
-9.3578e-08
1.84847e-07
-2.66738e-07
2.07175e-07
-4.26379e-07
-5.73454e-07
2.31663e-07
-5.30032e-08
5.88963e-06
-5.22578e-08
5.21423e-06
-2.36561e-08
4.66535e-06
5.21899e-09
4.25358e-06
2.3188e-08
3.91237e-06
3.55373e-08
3.58372e-06
4.7052e-08
3.26035e-06
5.90816e-08
2.94421e-06
7.20117e-08
2.63584e-06
8.59068e-08
2.33536e-06
1.00715e-07
2.04295e-06
1.16336e-07
1.75899e-06
1.32651e-07
1.48409e-06
1.49534e-07
1.21909e-06
1.66879e-07
9.64907e-07
1.84618e-07
7.22541e-07
2.02746e-07
4.929e-07
2.21347e-07
2.76721e-07
2.40615e-07
7.44529e-08
2.60872e-07
-1.1382e-07
2.82575e-07
-2.88423e-07
3.06295e-07
-4.50078e-07
-5.99817e-07
3.32683e-07
2.035e-08
5.86926e-06
5.55048e-08
5.17903e-06
1.00753e-07
4.62007e-06
1.39171e-07
4.21513e-06
1.64799e-07
3.88671e-06
1.80795e-07
3.56769e-06
1.92679e-07
3.24844e-06
2.02246e-07
2.93462e-06
2.10615e-07
2.62745e-06
2.1857e-07
2.32739e-06
2.26679e-07
2.03483e-06
2.35355e-07
1.75031e-06
2.44888e-07
1.47456e-06
2.5547e-07
1.20851e-06
2.67219e-07
9.53168e-07
2.80211e-07
7.09563e-07
2.945e-07
4.7863e-07
3.10152e-07
2.61091e-07
3.27282e-07
5.73472e-08
3.46096e-07
-1.32607e-07
3.66924e-07
-3.09222e-07
3.90239e-07
-4.73361e-07
-6.26177e-07
4.16636e-07
1.15776e-07
5.75346e-06
1.83554e-07
5.1112e-06
2.39759e-07
4.56381e-06
2.80411e-07
4.17443e-06
3.08981e-07
3.8581e-06
3.27804e-07
3.54884e-06
3.39023e-07
3.23719e-06
3.44954e-07
2.92866e-06
3.47549e-07
2.62483e-06
3.48373e-07
2.32655e-06
3.48644e-07
2.03455e-06
3.49285e-07
1.74967e-06
3.50977e-07
1.47288e-06
3.54206e-07
1.20529e-06
3.59297e-07
9.48093e-07
3.66448e-07
7.02433e-07
3.75758e-07
4.69346e-07
3.8726e-07
2.49618e-07
4.00974e-07
4.36658e-08
4.16969e-07
-1.48567e-07
4.35434e-07
-3.27651e-07
4.56741e-07
-4.94629e-07
-6.50834e-07
4.8144e-07
2.17462e-07
5.53597e-06
3.27225e-07
5.00137e-06
3.91949e-07
4.49904e-06
4.31822e-07
4.13451e-06
4.60279e-07
3.8296e-06
4.7839e-07
3.53068e-06
4.85912e-07
3.22963e-06
4.85705e-07
2.92884e-06
4.80493e-07
2.63002e-06
4.72533e-07
2.3345e-06
4.63591e-07
2.04349e-06
4.55008e-07
1.75825e-06
4.47783e-07
1.48011e-06
4.4264e-07
1.21045e-06
4.40075e-07
9.50677e-07
4.40389e-07
7.02143e-07
4.4371e-07
4.66054e-07
4.50029e-07
2.43333e-07
4.59247e-07
3.44835e-08
4.71269e-07
-1.60551e-07
4.86113e-07
-3.42455e-07
5.04033e-07
-5.12509e-07
-6.72313e-07
5.25553e-07
3.13856e-07
5.22207e-06
4.7452e-07
4.84063e-06
5.53928e-07
4.41957e-06
5.96007e-07
4.09237e-06
6.2201e-07
3.80355e-06
6.33553e-07
3.51909e-06
6.32582e-07
3.23057e-06
6.22622e-07
2.93876e-06
6.06964e-07
2.64565e-06
5.88288e-07
2.35315e-06
5.68675e-07
2.06309e-06
5.49703e-07
1.77722e-06
5.32559e-07
1.49726e-06
5.1812e-07
1.2249e-06
5.07006e-07
9.6181e-07
4.996e-07
7.09574e-07
4.96058e-07
4.69624e-07
4.96327e-07
2.43097e-07
5.00183e-07
3.06631e-08
5.07325e-07
-1.67657e-07
5.17546e-07
-3.52639e-07
5.30955e-07
-5.25882e-07
-6.89391e-07
5.48069e-07
4.12123e-07
4.80991e-06
6.25098e-07
4.62758e-06
7.2802e-07
4.31659e-06
7.74489e-07
4.04585e-06
7.91909e-07
3.78607e-06
7.90583e-07
3.52037e-06
7.75981e-07
3.24513e-06
7.52547e-07
2.96216e-06
7.23876e-07
2.6743e-06
6.92736e-07
2.38428e-06
6.61226e-07
2.09459e-06
6.3094e-07
1.8075e-06
6.03094e-07
1.52511e-06
5.7862e-07
1.24938e-06
5.5821e-07
9.82234e-07
5.42322e-07
7.25481e-07
5.31163e-07
4.80807e-07
5.24666e-07
2.49622e-07
5.22494e-07
3.2864e-08
5.24113e-07
-1.69245e-07
5.2899e-07
-3.57486e-07
5.37035e-07
-5.33898e-07
-7.01121e-07
5.48793e-07
5.36297e-07
4.27357e-06
8.02054e-07
4.36175e-06
9.20101e-07
4.19848e-06
9.60886e-07
4.00501e-06
9.62655e-07
3.78426e-06
9.42995e-07
3.53999e-06
9.10666e-07
3.27742e-06
8.71001e-07
3.0018e-06
8.27587e-07
2.71768e-06
7.82947e-07
2.42889e-06
7.38915e-07
2.13861e-06
6.96878e-07
1.84953e-06
6.5793e-07
1.56405e-06
6.22962e-07
1.28436e-06
5.92698e-07
1.01251e-06
5.67683e-07
7.50509e-07
5.48227e-07
5.0028e-07
5.34337e-07
2.63533e-07
5.25637e-07
4.15851e-08
5.21341e-07
-1.64926e-07
5.20438e-07
-3.5656e-07
5.22529e-07
-5.35968e-07
-7.06833e-07
5.2826e-07
7.06401e-07
3.56712e-06
1.01944e-06
4.04864e-06
1.1303e-06
4.08757e-06
1.14885e-06
3.9864e-06
1.12568e-06
3.80738e-06
1.0827e-06
3.58293e-06
1.03003e-06
3.33005e-06
9.72928e-07
3.05886e-06
9.14412e-07
2.77617e-06
8.56363e-07
2.48692e-06
8.00081e-07
2.19487e-06
7.46557e-07
1.90304e-06
6.96635e-07
1.61397e-06
6.51087e-07
1.3299e-06
6.10642e-07
1.05295e-06
5.75954e-07
7.85204e-07
5.47528e-07
5.28717e-07
5.25594e-07
2.85479e-07
5.09922e-07
5.72713e-08
4.99527e-07
-1.54517e-07
4.92656e-07
-3.49676e-07
4.88418e-07
-5.31719e-07
-7.06122e-07
4.87718e-07
9.34073e-07
2.63301e-06
1.27743e-06
3.70523e-06
1.34939e-06
4.01556e-06
1.32653e-06
4.00922e-06
1.26969e-06
3.86418e-06
1.20036e-06
3.65222e-06
1.12708e-06
3.4033e-06