/*--------------------------------*- C++ -*----------------------------------*\
  =========                 |
  \\      /  F ield         | OpenFOAM: The Open Source CFD Toolbox
   \\    /   O peration     | Website:  https://openfoam.org
    \\  /    A nd           | Version:  9
     \\/     M anipulation  |
\*---------------------------------------------------------------------------*/
FoamFile
{
    format      ascii;
    class       volScalarField;
    location    "7.82";
    object      alpha.water;
}
// * * * * * * * * * * * * * * * * * * * * * * * * * * * * * * * * * * * * * //

dimensions      [0 0 0 0 0 0 0];

internalField   nonuniform List<scalar> 
2268
(
1
1
0.999999
0.999999
1
1
1
0.999999
0.999998
0.999999
1
1
1
1
1
1
1
1
0.998454
0.997546
0.998297
0.999994
0.999766
0.999999
1
0.999997
0.999999
1
1
0.999998
0.999998
0.999998
1
1
1
1
1
0.999999
0.999998
0.999997
0.999993
0.998524
0.997546
0.999729
0.999994
0.999992
0.999997
0.999997
0.999997
0.999999
1
1
0.999999
0.999999
1
1
1
1
1
1
0.999997
0.999978
0.999997
0.999997
0.999235
0.997682
0.999994
0.999994
0.999994
0.999998
0.999999
0.999999
1
1
1
1
1
1
1
1
1
1
1
1
0.999891
0.999669
0.999951
0.999962
0.999659
0.999965
0.999836
0.999988
1
1
1
1
1
1
1
1
1
1
1
1
1
1
1
0.999787
0.998489
0.99999
0.99999
0.99999
0.999955
0.997585
0.999988
1
1
1
1
1
1
1
1
1
1
1
1
1
1
1
0.999964
0.996213
0.994254
0.99999
0.99999
0.996665
0.996141
0.999972
1
1
1
1
1
1
1
1
1
1
1
1
1
1
1
1
0.994914
0.983175
0.985159
0.988283
0.983834
0.99726
0.999973
1
1
1
1
1
1
1
1
1
1
1
1
1
1
1
1
0.998294
0.983049
0.981656
0.981656
0.982709
0.999586
0.999973
0.996945
0.999927
0.999203
0.999087
0.999172
0.997163
0.994394
0.994394
0.994646
0.99343
0.992197
0.992197
0.992197
0.998673
0.998674
0.998674
0.998674
0.998674
0.998534
0.992709
0.999799
0.999986
0.999986
0.999989
0.999989
0.999989
0.999931
0.999931
0.999917
0.99735
0.992197
0.992198
0.997542
0.998674
0.998674
0.998674
0.998643
0.998197
0.992232
0.997764
0.999986
0.999985
0.999989
0.999982
0.999972
0.999972
0.999879
0.999911
0.999708
0.998344
0.995393
0.996551
0.998674
0.998674
0.998544
0.995092
0.994899
0.992232
0.998362
0.999986
0.999987
0.999998
0.999958
0.999758
0.999794
0.999429
0.999169
0.999603
0.999634
0.999634
0.998682
0.997626
0.998674
0.997594
0.995003
0.995198
0.994924
0.999515
0.999998
0.999998
0.999998
0.999846
0.999721
0.999725
0.999527
0.998516
0.999537
0.999634
0.999634
0.999634
0.994913
0.996994
0.9959
0.997205
0.998435
0.999992
0.999999
0.999999
0.999992
0.999972
0.999945
0.999926
0.999995
0.9992
0.998382
0.999581
0.999634
0.999634
0.999634
0.99492
0.992184
0.988503
0.998424
0.998435
0.999999
0.999999
0.999997
0.999985
0.999987
0.999995
0.999995
0.999995
0.998534
0.989238
0.999417
0.999634
0.999634
0.988076
0.991144
0.99752
0.988503
0.997674
0.998435
0.999999
0.999998
0.999997
0.999997
0.999997
0.999995
0.999956
0.999989
0.996713
0.979627
0.982694
0.994424
0.996034
0.979513
0.989317
0.99753
0.988503
0.996186
0.998435
1
1
1
1
1
1
1
1
1
1
1
1
0.999999
0.999999
0.999999
0.999996
0.999978
0.99873
0.993029
0.993784
0.999691
0.999925
0.999973
1
1
1
1
1
1
1
1
0.997439
0.993239
0.988498
0.983744
0.980469
0.977851
0.976243
0.975188
0.974081
0.974023
0.973013
0.970218
0.96527
0.95921
0.955546
0.446307
0.443523
0.438219
0.431306
0.423226
0.413037
0.40116
0.389464
0.378559
0.368652
0.358872
0.349218
0.338311
0.327126
0.31635
0.307319
0.30126
0.297407
0.293577
0.287516
0.280084
0.274393
0.27101
0.00150743
0.00139225
0.00153349
0.00174851
0.00171556
0.00182045
0.00212097
0.00175244
0.00145062
0.0012191
0.0010875
0.00053739
0.000339071
0.00033882
0.00033839
0.000337723
0.000336861
0.000336188
0.000335806
0.000335371
0.000334947
0.000334651
0.000334544
0.000766624
0.000673027
0.00115288
0.00147401
0.00129331
0.00172435
0.0026456
0.00264576
0.00264558
0.00287083
0.00287086
0.00287008
0.00271179
0.00240716
0.00221937
0.0020486
0.00169881
0.00122009
0.000697246
0.000706326
0.000744853
0.000744875
0.000572985
0.000395408
0.000390851
0.000400482
0.000245752
0.000271222
0.000301531
1.56823e-05
5.40902e-05
8.61505e-05
2.28926e-05
2.65022e-08
2.6496e-08
2.65009e-08
2.80507e-08
6.25891e-08
1.31802e-07
1.17655e-05
0.000162169
0.000320987
0.000307623
0.00036316
0.000271206
0.000375293
1.6482e-05
2.05505e-05
3.97347e-05
5.92243e-06
8.56207e-06
3.37692e-07
9.06902e-08
5.93698e-08
2.653e-08
2.6512e-08
2.6496e-08
2.65009e-08
2.97584e-06
5.00223e-05
7.207e-05
6.36759e-05
2.24462e-05
1.51557e-05
1.37254e-05
5.02773e-06
7.3592e-06
0.000100583
0.000112845
2.85177e-09
2.79286e-09
7.31614e-09
2.71638e-07
1.51281e-06
1.52588e-06
1.28893e-06
1.67399e-07
2.66886e-07
9.69726e-07
4.45559e-07
1.19049e-07
2.07006e-05
6.56416e-05
6.57036e-05
4.07457e-05
2.14319e-05
1.57336e-05
1.10364e-05
2.76947e-09
2.76791e-09
2.76665e-09
2.76665e-09
2.6685e-09
2.49494e-09
2.66471e-09
4.02264e-09
1.38467e-07
1.94013e-06
1.94022e-06
1.39438e-06
4.23368e-07
2.81221e-06
2.05337e-06
6.59276e-07
4.964e-06
2.07265e-06
2.81863e-09
4.06745e-06
1.72065e-05
7.95586e-06
1.20117e-08
1.20041e-08
1.21888e-08
6.41076e-09
2.76665e-09
2.67052e-09
2.38137e-09
2.37224e-09
2.3643e-09
1.04157e-09
1.24626e-06
1.94016e-06
3.96453e-07
1.15078e-06
2.81221e-06
2.81221e-06
9.63741e-07
6.46228e-10
6.46376e-10
2.75527e-09
2.81863e-09
3.15028e-09
9.91627e-07
1.1296e-07
1.20117e-08
1.56077e-08
2.4889e-08
4.75449e-09
3.21675e-09
4.58253e-08
8.48345e-08
6.36007e-09
4.84845e-10
4.30274e-08
2.44587e-07
6.46842e-08
1.0321e-06
2.81221e-06
2.08357e-06
6.46084e-10
6.4581e-10
6.46228e-10
1.3675e-07
5.72805e-07
7.76413e-07
5.44279e-08
1.70708e-08
2.31516e-08
3.35787e-08
3.32923e-08
1.01051e-08
5.14798e-09
1.07158e-07
1.07192e-07
2.22098e-08
4.77367e-10
4.77767e-10
5.25211e-10
7.60448e-10
1.2917e-06
2.63512e-06
1.86312e-07
6.4581e-10
6.45478e-10
6.45208e-10
2.44852e-07
4.84515e-06
5.89214e-06
4.06347e-06
9.18962e-09
9.17446e-09
1.86127e-08
2.25702e-08
4.13082e-09
3.92709e-09
9.86747e-08
1.0719e-07
2.18815e-08
4.77256e-10
4.78825e-10
1.60738e-07
1.42491e-06
1.66472e-06
8.37196e-07
6.67746e-10
6.67522e-10
6.44996e-10
3.6494e-10
3.76413e-07
5.11429e-06
5.89214e-06
5.89214e-06
3.75789e-06
4.9707e-09
4.98696e-09
6.56087e-09
5.09782e-09
1.79184e-09
2.20523e-08
7.71391e-08
1.02865e-08
4.77256e-10
4.90562e-10
8.77953e-07
1.665e-06
1.66492e-06
6.8408e-10
7.66311e-10
8.20256e-10
6.57916e-10
2.06507e-10
1.02098e-09
5.30295e-07
4.56414e-06
5.89017e-06
1.91994e-06
4.96944e-09
7.17383e-09
1.45092e-08
8.75734e-09
9.41826e-10
3.53014e-10
3.75294e-09
9.6337e-10
4.77256e-10
4.77359e-10
8.18359e-07
1.66496e-06
7.52609e-07
2.96953e-10
8.13392e-10
9.50816e-10
6.213e-10
1.0141e-10
6.30247e-11
2.2316e-09
1.15241e-07
3.60794e-07
7.93467e-08
5.38762e-09
1.53211e-08
1.73574e-08
9.78358e-09
2.63275e-10
2.63292e-10
2.63289e-10
2.6958e-10
8.53156e-10
1.29203e-08
1.8738e-07
3.72731e-07
3.88274e-09
2.96826e-10
8.26751e-10
8.77715e-10
3.31884e-10
7.07301e-11
6.30227e-11
5.88373e-11
5.88395e-11
5.88372e-11
6.26895e-11
5.88076e-09
1.64551e-08
1.60315e-08
2.21236e-09
2.66629e-08
5.92151e-08
8.52324e-10
2.76271e-10
2.91717e-09
1.36903e-08
1.9204e-10
1.36126e-11
1.48639e-11
2.32139e-10
5.41512e-10
4.35657e-10
9.78971e-11
4.6191e-11
6.27956e-11
6.71821e-11
6.44295e-11
5.88401e-11
1.22716e-10
8.20453e-10
1.62783e-09
1.43592e-09
1.15586e-09
2.67028e-07
2.44939e-07
1.08329e-09
4.43406e-10
3.08449e-09
5.70964e-09
5.81152e-11
1.2451e-11
1.244e-11
8.65363e-11
1.42624e-10
7.09696e-11
1.23536e-11
2.2818e-11
4.77619e-11
5.96868e-11
6.20322e-11
5.69615e-11
4.38118e-11
2.42735e-11
4.87591e-12
1.92815e-11
1.38218e-10
2.75821e-07
1.92972e-07
4.43343e-10
4.54988e-10
1.95596e-09
4.92023e-10
1.71538e-11
1.44264e-11
6.21139e-12
9.37883e-12
8.87322e-12
1.97303e-12
3.47607e-13
4.69957e-12
1.82575e-11
2.85912e-11
3.06155e-11
2.65154e-11
1.74126e-11
9.42792e-12
4.87555e-12
2.50823e-12
1.39982e-12
2.75822e-07
6.16607e-08
7.13353e-11
3.33656e-10
5.8538e-10
2.06669e-11
1.22561e-11
1.13876e-11
9.74756e-13
1.34494e-13
4.8975e-14
-1.9523e-13
-3.82691e-13
1.37715e-13
1.6259e-12
3.83919e-12
4.06907e-12
2.94587e-12
1.74735e-12
1.04411e-12
6.64938e-13
3.48446e-13
2.4877e-13
2.75822e-07
1.09176e-08
6.43953e-11
1.37406e-10
8.0828e-11
5.00697e-12
5.43486e-12
3.75874e-12
-8.53986e-14
-6.51698e-13
-8.26267e-13
-9.80091e-13
-8.95621e-13
-5.33548e-13
-7.36809e-14
5.32461e-14
6.06827e-14
3.07898e-14
1.30238e-14
6.26527e-15
2.49043e-15
-4.07094e-16
-8.0165e-16
2.76485e-07
1.0185e-07
6.24879e-11
3.80379e-11
2.68659e-11
4.13682e-12
7.31565e-13
2.06742e-13
-6.03994e-13
-1.04807e-12
-1.1868e-12
-1.18799e-12
-1.03853e-12
-7.78919e-13
-5.12733e-13
-3.22757e-13
-2.33807e-13
-1.84555e-13
-1.4525e-13
-1.09099e-13
-7.58735e-14
-4.92601e-14
-2.99929e-14
2.76485e-07
2.76458e-07
1.87865e-10
2.81207e-11
2.75729e-11
4.23623e-12
4.4736e-14
-1.0642e-13
-6.79659e-13
-9.96828e-13
-1.08215e-12
-1.03203e-12
-8.88827e-13
-6.98936e-13
-5.1479e-13
-3.66676e-13
-2.65082e-13
-1.9265e-13
-1.37376e-13
-9.53413e-14
-6.42295e-14
-4.16625e-14
-2.57078e-14
2.76485e-07
2.76485e-07
9.27991e-11
3.28555e-11
3.57049e-11
4.94297e-12
2.42627e-13
-1.76284e-14
-3.72631e-13
-6.15454e-13
-7.08995e-13
-6.92932e-13
-6.06525e-13
-4.87552e-13
-3.68732e-13
-2.6773e-13
-1.89984e-13
-1.31232e-13
-8.78525e-14
-5.73198e-14
-3.69775e-14
-2.35143e-14
-1.44947e-14
2.76485e-07
2.01017e-07
3.51573e-11
6.08538e-11
5.83073e-11
7.60467e-12
1.56146e-12
1.03637e-12
4.16687e-13
-3.24022e-14
-2.12285e-13
-3.06131e-13
-3.18201e-13
-2.7644e-13
-2.15744e-13
-1.5772e-13
-1.10495e-13
-7.37206e-14
-4.6971e-14
-2.88619e-14
-1.7514e-14
-1.06422e-14
-6.45182e-15
2.02405e-07
1.55116e-08
4.18195e-11
1.41015e-10
9.68607e-11
1.40393e-11
5.76536e-12
4.93398e-12
3.5463e-12
1.99659e-12
7.7636e-13
1.20053e-13
-7.97124e-14
-1.21099e-13
-1.06934e-13
-7.99e-14
-5.61264e-14
-3.66178e-14
-2.23758e-14
-1.29545e-14
-7.30362e-15
-4.12772e-15
-2.38105e-15
8.93266e-09
8.18969e-11
1.15357e-10
2.16296e-10
1.31762e-10
2.52393e-11
1.45882e-11
1.3298e-11
1.05187e-11
6.87919e-12
3.50215e-12
1.25664e-12
2.12106e-13
-2.48373e-14
-4.50728e-14
-3.58207e-14
-2.56817e-14
-1.65597e-14
-9.78059e-15
-5.36983e-15
-2.81281e-15
-1.46055e-15
-7.71162e-16
7.71235e-11
8.17996e-11
1.93491e-10
2.25557e-10
1.3599e-10
3.94535e-11
2.82014e-11
2.60201e-11
2.10556e-11
1.47351e-11
8.02299e-12
3.07255e-12
6.74077e-13
2.98391e-14
-1.49896e-14
-1.45054e-14
-1.08162e-14
-6.9441e-15
-3.97839e-15
-2.07895e-15
-1.01867e-15
-4.91574e-16
-2.41059e-16
7.70831e-11
8.18626e-11
1.93289e-10
2.12961e-10
1.24323e-10
5.08848e-11
4.3299e-11
4.07352e-11
3.32488e-11
2.40894e-11
1.35511e-11
5.07159e-12
9.47743e-13
5.09644e-14
-2.42618e-15
-5.36756e-15
-4.26425e-15
-2.73502e-15
-1.52073e-15
-7.56901e-16
-3.51069e-16
-1.62598e-16
-7.66933e-17
7.7082e-11
7.05848e-11
1.41095e-10
1.33731e-10
8.41149e-11
5.31566e-11
5.20482e-11
5.20761e-11
4.43752e-11
3.26196e-11
1.85436e-11
6.4485e-12
9.84755e-13
4.46821e-14
3.9443e-34
-1.86493e-15
-1.59932e-15
-1.02201e-15
-5.49383e-16
-2.6093e-16
-1.15165e-16
-5.09169e-17
-2.31227e-17
1.0434e-10
5.1552e-11
5.5101e-11
5.08634e-11
5.23605e-11
5.2571e-11
5.31622e-11
5.46722e-11
5.03154e-11
3.78382e-11
2.11786e-11
6.76922e-12
8.99339e-13
2.65906e-14
3.41738e-17
-6.39059e-16
-5.7983e-16
-3.66025e-16
-1.89122e-16
-8.53962e-17
-3.56794e-17
-1.5061e-17
-6.58889e-18
3.73689e-10
5.08683e-11
5.08634e-11
5.08645e-11
5.08634e-11
5.08645e-11
5.20049e-11
5.46831e-11
5.12181e-11
3.89654e-11
2.14271e-11
6.51163e-12
6.60901e-13
1.04212e-14
1.24331e-17
-2.2052e-16
-2.05953e-16
-1.26738e-16
-6.23405e-17
-2.65179e-17
-1.03602e-17
-4.14311e-18
-1.7136e-18
5.33744e-10
4.3281e-09
9.79172e-09
2.01106e-07
5.08645e-11
5.08662e-11
5.08895e-11
5.42574e-11
5.08662e-11
3.85851e-11
2.05841e-11
5.41628e-12
3.7016e-13
3.03518e-15
1.92496e-18
-7.78545e-17
-7.2329e-17
-4.26302e-17
-1.96814e-17
-7.75299e-18
-2.7735e-18
-1.03409e-18
-3.97485e-19
5.33464e-10
8.38105e-08
6.91328e-07
8.26618e-07
2.9853e-07
5.30047e-09
5.08738e-11
5.24077e-11
4.91383e-11
3.63834e-11
1.76337e-11
3.59535e-12
1.53508e-13
6.62571e-16
1.59851e-19
-2.83616e-17
-2.52054e-17
-1.39222e-17
-5.92003e-18
-2.10999e-18
-6.7572e-19
-2.3028e-19
-8.07392e-20
5.33548e-10
1.58567e-07
8.26618e-07
8.26618e-07
7.32101e-07
2.05369e-08
4.93029e-11
4.93129e-11
4.54734e-11
3.14256e-11
1.2785e-11
1.81794e-12
4.39931e-14
9.11163e-17
4.49737e-21
-1.07284e-17
-8.70315e-18
-4.39424e-18
-1.68303e-18
-5.28381e-19
-1.47179e-19
-4.47351e-20
-1.40309e-20
5.33675e-10
7.77551e-08
8.20201e-07
8.26618e-07
4.70466e-07
7.53858e-09
4.67213e-11
4.67187e-11
3.99642e-11
2.41178e-11
7.50571e-12
6.5299e-13
7.63268e-15
6.46741e-18
-1.1475e-18
-4.20573e-18
-2.96323e-18
-1.33412e-18
-4.49164e-19
-1.2061e-19
-2.82072e-20
-7.41657e-21
-2.03164e-21
1.23541e-09
9.91204e-09
1.74031e-07
4.01727e-07
5.43807e-08
5.5773e-10
5.15186e-11
4.46159e-11
3.21344e-11
1.56256e-11
3.28145e-12
1.45859e-13
6.6907e-16
2.10385e-19
-1.07514e-18
-1.65114e-18
-9.91054e-19
-3.89342e-19
-1.12387e-19
-2.50195e-20
-4.71455e-21
-1.02852e-21
-2.38039e-22
2.1981e-09
1.25617e-09
8.28055e-10
2.60944e-10
1.30837e-10
1.23703e-10
7.29799e-11
4.19361e-11
2.25501e-11
7.77584e-12
9.11392e-13
1.64575e-14
2.43444e-17
1.86665e-21
-6.11814e-19
-6.41042e-19
-3.26208e-19
-1.09798e-19
-2.65375e-20
-4.74714e-21
-6.8626e-22
-1.17134e-22
-2.18103e-23
1.98792e-09
1.6188e-09
7.63135e-10
2.78423e-10
1.71833e-10
1.39353e-10
7.77356e-11
3.47303e-11
1.26782e-11
2.51664e-12
1.25823e-13
7.21536e-16
3.10529e-19
-5.85775e-20
-3.09381e-19
-2.47158e-19
-1.06413e-19
-3.0295e-20
-6.01896e-21
-8.43229e-22
-8.90257e-23
-1.09099e-23
-1.50524e-24
3.37805e-10
1.15507e-09
9.77398e-10
6.27655e-10
3.5373e-10
1.82267e-10
7.36115e-11
2.29991e-11
4.81853e-12
4.07547e-13
6.33484e-15
9.70642e-18
9.9008e-22
-8.17469e-20
-1.49002e-19
-9.50065e-20
-3.47266e-20
-8.32498e-21
-1.34747e-21
-1.4558e-22
-1.07761e-23
-8.42722e-25
-7.44322e-26
-1.47434e-26
2.91192e-10
7.85755e-10
6.71073e-10
4.327e-10
1.93532e-10
6.18715e-11
1.16728e-11
1.00518e-12
2.39605e-14
8.66435e-17
3.76863e-20
-8.37869e-21
-6.01962e-20
-6.9228e-20
-3.65032e-20
-1.14465e-20
-2.32479e-21
-3.0771e-22
-2.55639e-23
-1.28609e-24
-5.55141e-26
-2.41853e-27
-3.84676e-27
1.43981e-11
2.71685e-10
4.06546e-10
3.06216e-10
1.425e-10
3.31429e-11
2.89785e-12
6.77331e-14
3.06249e-16
2.38615e-19
5.62964e-23
-1.50205e-20
-3.63854e-20
-3.12789e-20
-1.40555e-20
-3.84661e-21
-6.74583e-22
-7.48952e-23
-4.93946e-24
-1.73582e-25
-3.30831e-27
-3.81449e-29
0.999927
0.99989
0.999903
0.999939
0.957908
0.95833
0.958578
0.958273
0.26933
0.26892
0.269286
0.270278
0.000334533
0.000334544
0.000334533
0.000334557
0.000401917
0.000334533
0.000480148
0.000488374
0.000418487
0.000418087
0.00018147
0.000488374
9.8584e-05
9.19705e-05
0.00014367
9.63831e-05
2.76665e-09
2.76665e-09
2.76772e-09
2.80295e-09
2.76665e-09
3.63492e-09
4.31078e-08
3.39367e-07
2.97087e-09
1.2152e-07
5.81729e-06
1.39144e-05
3.57218e-09
2.55821e-06
2.06015e-05
2.10085e-05
3.42304e-09
3.50866e-09
6.40503e-06
1.9508e-05
3.42304e-09
4.39533e-09
4.06555e-09
3.96347e-09
4.90265e-09
1.23128e-08
1.09213e-08
3.94954e-09
9.78098e-09
3.73759e-08
3.73794e-08
3.73793e-08
1.34368e-09
2.83736e-09
1.20302e-08
2.35125e-08
1.3178e-09
3.28697e-10
3.69575e-13
3.2493e-13
1.49381e-10
1.92105e-11
3.69279e-13
2.69409e-13
4.22526e-13
3.73222e-13
4.39029e-13
2.79237e-13
2.41527e-13
2.45164e-13
2.17432e-13
1.40963e-13
1.30892e-15
4.16401e-15
3.45518e-15
2.13249e-15
-1.70123e-14
-1.33915e-14
-1.05915e-14
-8.39734e-15
-1.50591e-14
-1.19612e-14
-9.61362e-15
-7.78603e-15
-8.45461e-15
-6.48828e-15
-5.05469e-15
-4.0154e-15
-3.80671e-15
-2.82888e-15
-2.09641e-15
-1.57098e-15
-1.45198e-15
-1.06515e-15
-7.70378e-16
-5.4116e-16
-4.98993e-16
-3.55623e-16
-2.54876e-16
-1.76262e-16
-1.62089e-16
-1.1162e-16
-7.69925e-17
-5.22844e-17
-5.07303e-17
-3.38171e-17
-2.23959e-17
-1.46704e-17
-1.49076e-17
-9.64057e-18
-6.16417e-18
-3.88405e-18
-4.1073e-18
-2.5554e-18
-1.56848e-18
-9.46563e-19
-1.02189e-18
-6.06299e-19
-3.54474e-19
-2.03554e-19
-2.24464e-19
-1.25765e-19
-6.93267e-20
-3.74889e-20
-4.26178e-20
-2.22668e-20
-1.14236e-20
-5.7397e-21
-6.81551e-21
-3.26912e-21
-1.53598e-21
-7.0521e-22
-8.90139e-22
-3.84159e-22
-1.61911e-22
-6.64943e-23
-9.14766e-23
-3.45517e-23
-1.27007e-23
-4.53354e-24
-7.04869e-24
-2.23683e-24
-6.884e-25
-2.04975e-25
-3.80536e-25
-9.47902e-26
-2.28694e-26
-5.32637e-27
-1.27898e-26
-2.19779e-27
-3.68507e-28
-5.99237e-29
-2.07356e-28
-1.82721e-29
-1.61912e-30
-1.43087e-31
-6.72288e-31
-1.14292e-32
-1.9931e-34
-3.73396e-36
0.999994
0.999997
0.999997
0.999997
0.998858
0.995215
0.994193
0.996462
0.996698
0.991771
0.975288
0.975282
0.975297
0.983772
0.997469
0.997531
0.992884
0.993455
0.997896
0.955777
0.956757
0.957422
0.957996
0.9588
0.959875
0.959408
0.96006
0.97198
0.98908
0.99178
0.993818
0.995377
0.997475
0.997474
0.994701
0.994548
0.990099
0.985733
0.273068
0.277714
0.283752
0.292549
0.303771
0.317056
0.330866
0.342775
0.350136
0.360368
0.378816
0.390975
0.400546
0.404979
0.407224
0.413065
0.422077
0.428648
0.43421
0.000334598
0.000334621
0.000334615
0.000334748
0.000334894
0.000335
0.000335184
0.000335406
0.000335613
0.000353872
0.000421822
0.000537408
0.000344826
0.000525896
0.000880608
0.00102747
0.00118603
0.00132229
0.00174169
0.00044224
0.000479632
0.00108681
0.00108688
0.0010869
0.00108688
0.0010869
0.00108684
0.00108671
0.00108659
0.00108646
0.000865086
0.000344269
0.000740256
0.000881528
0.000858678
0.000857669
0.000810461
0.000742378
0.000488369
0.000429
0.000311672
0.000338431
0.00031733
0.000239351
0.000212988
0.000218396
0.000236359
0.00018565
2.2434e-05
4.49044e-05
0.000180744
0.000263149
0.000302953
0.000350069
0.000366784
0.000394482
0.000329893
8.41118e-05
8.14689e-05
1.87775e-05
3.33577e-09
3.33497e-09
3.4382e-09
1.266e-08
4.79809e-08
9.12424e-08
1.19709e-07
2.96002e-06
6.41626e-06
2.13233e-05
7.00698e-06
6.10681e-07
5.18641e-07
5.18678e-07
8.86998e-07
1.05563e-05
3.09156e-09
3.33811e-09
3.33767e-09
3.33497e-09
2.11095e-07
1.48726e-05
3.67434e-05
3.42329e-05
2.38729e-05
3.58203e-05
5.1251e-05
5.12543e-05
3.48856e-05
1.68069e-06
5.18636e-07
5.18239e-07
5.18233e-07
5.1824e-07
5.18261e-07
6.12976e-07
1.17604e-07
3.33923e-09
3.86272e-09
6.1849e-06
5.08131e-05
5.09038e-05
5.0956e-05
5.09889e-05
5.11702e-05
5.12588e-05
5.12503e-05
3.13183e-05
2.5855e-06
5.18224e-07
5.18225e-07
5.18228e-07
5.18233e-07
5.1824e-07
1.81822e-05
1.10235e-05
7.68187e-07
1.80119e-08
9.34711e-06
3.62491e-05
2.39722e-05
1.69969e-07
1.73388e-07
1.70586e-07
1.92217e-05
3.03715e-05
3.13203e-05
1.51942e-05
3.15159e-06
5.18228e-07
5.18225e-07
5.18517e-07
5.18281e-07
2.10085e-05
2.10085e-05
1.58285e-05
2.74234e-06
1.75109e-06
1.94224e-09
1.94234e-09
1.07708e-07
8.56513e-07
1.70085e-07
1.43906e-07
3.10569e-06
2.2011e-05
2.19846e-05
4.91125e-06
5.18225e-07
5.18223e-07
5.196e-07
5.196e-07
2.10085e-05
2.10019e-05
2.09905e-05
9.26963e-06
1.94011e-09
1.93951e-09
5.34705e-08
9.75845e-07
1.09949e-06
5.77886e-07
1.37574e-07
4.19094e-06
1.14852e-05
1.32434e-05
5.19631e-07
5.18223e-07
5.18223e-07
5.1824e-07
5.19432e-07
3.97636e-06
1.24233e-05
6.98781e-06
1.94011e-09
1.93927e-09
2.1667e-09
5.98176e-08
1.18116e-07
1.36441e-07
2.42532e-10
2.42464e-10
2.44786e-10
4.19866e-07
9.31338e-06
1.09097e-05
6.73982e-06
5.18223e-07
5.18223e-07
5.18223e-07
2.01306e-09
1.97417e-09
1.94753e-09
1.94352e-09
3.3835e-09
6.78202e-09
4.17522e-09
2.42464e-10
2.42543e-10
2.42464e-10
2.42574e-10
2.52586e-10
1.95611e-06
1.05803e-05
1.09097e-05
1.09097e-05
8.86073e-06
5.18223e-07
5.18225e-07
3.70444e-08
3.54023e-08
3.25726e-08
2.43761e-09
1.65748e-09
1.61458e-09
1.25046e-09
4.71404e-10
2.42464e-10
4.6956e-10
8.44638e-10
8.42393e-10
2.69961e-10
3.96479e-07
3.00325e-06
3.04429e-06
1.75453e-06
1.73246e-06
3.12343e-06
1.11672e-07
2.43679e-07
2.43679e-07
1.14437e-07
1.42855e-08
2.29691e-10
2.40354e-10
4.09807e-10
9.40417e-10
7.79678e-10
9.25846e-10
8.89094e-10
2.69165e-10
3.20884e-11
3.20783e-11
4.09736e-11
1.55682e-06
1.10515e-05
1.29584e-05
5.33129e-08
2.43679e-07
2.43639e-07
2.43598e-07
1.8517e-07
2.29644e-10
1.18532e-09
2.07727e-08
3.50735e-08
1.0062e-08
5.1799e-11
5.17795e-11
4.96827e-11
4.35272e-11
4.38547e-11
5.75327e-08
7.96572e-06
1.29571e-05
1.29628e-05
3.90348e-14
3.17346e-08
2.05046e-07
2.43548e-07
2.36078e-07
2.79714e-08
1.73695e-09
5.477e-08
6.67093e-08
5.82266e-08
2.27409e-09
4.6661e-11
7.81738e-11
8.01116e-11
3.80119e-11
2.52219e-10
4.14068e-06
1.03084e-05
7.23523e-06
3.89757e-14
3.7593e-16
3.30872e-27
4.76555e-08
4.42783e-08
5.1693e-09
7.62759e-09
5.9506e-08
6.67095e-08
6.67058e-08
2.49701e-08
4.66262e-11
4.6615e-11
6.26335e-11
2.69571e-11
5.96424e-09
3.56994e-08
1.11177e-12
1.11177e-12
6.29971e-14
7.37651e-16
-5.86355e-17
0
4.35494e-19
2.52791e-16
7.15751e-10
1.51486e-08
4.02212e-08
3.1818e-08
3.42382e-09
1.12364e-10
4.57064e-11
2.63283e-11
8.71402e-12
1.11178e-12
1.11177e-12
1.11177e-12
1.11177e-12
1.32904e-16
-4.41261e-16
-4.29962e-16
-1.20418e-16
4.90137e-16
4.90473e-16
4.97596e-16
5.1772e-16
5.55293e-16
6.25814e-16
7.29935e-16
1.57059e-11
8.00905e-11
9.80105e-12
2.62845e-12
1.45419e-12
1.11177e-12
1.11177e-12
1.11177e-12
-6.65784e-15
-3.49274e-15
-1.73491e-15
-3.26004e-16
2.02998e-15
1.78469e-14
3.90565e-14
7.13709e-14
1.31028e-13
1.69362e-13
2.1246e-13
6.56799e-13
1.31273e-12
9.75298e-13
5.99289e-13
9.23221e-13
1.21125e-12
1.11177e-12
1.11179e-12
-6.27254e-15
-3.65854e-15
-2.08732e-15
-1.12927e-15
-5.06652e-16
2.46519e-35
1.18962e-15
3.34524e-14
1.46771e-13
2.08466e-13
2.41977e-13
5.87162e-13
8.20188e-13
2.75032e-13
1.31779e-13
6.29438e-13
1.68093e-12
1.11179e-12
2.12854e-07
-3.20778e-15
-1.92046e-15
-1.13798e-15
-6.66544e-16
-3.82077e-16
-2.08874e-16
-9.53207e-17
-2.46519e-35
9.0207e-16
8.24268e-15
1.64299e-14
3.48535e-14
1.18537e-13
4.41811e-14
3.8612e-14
5.43366e-13
2.23003e-12
1.11188e-12
2.03539e-06
-1.19545e-15
-7.00964e-16
-4.10024e-16
-2.39022e-16
-1.38764e-16
-8.13685e-17
-4.68888e-17
-2.41657e-17
-3.80085e-18
1.95673e-17
1.25529e-16
3.9549e-16
1.07556e-15
3.15189e-15
1.66055e-14
5.31229e-13
2.54653e-12
1.11292e-12
2.24604e-06
-3.63067e-16
-2.05202e-16
-1.15362e-16
-6.52116e-17
-3.7372e-17
-2.16173e-17
-1.23623e-17
-6.62553e-18
-2.52582e-18
1.30336e-18
1.51526e-17
7.542e-17
3.8217e-16
1.89622e-15
1.41505e-14
5.40602e-13
2.62541e-12
1.11335e-12
2.24605e-06
-9.70849e-17
-5.17118e-17
-2.80365e-17
-1.54587e-17
-8.58129e-18
-4.69065e-18
-2.35575e-18
-9.43819e-19
4.51049e-21
2.09488e-18
1.29181e-17
6.45261e-17
3.36323e-16
1.7266e-15
1.37723e-14
5.36691e-13
2.62575e-12
1.1136e-12
2.24584e-06
-2.50878e-17
-1.21455e-17
-6.04778e-18
-3.08003e-18
-1.5496e-18
-6.40927e-19
1.88523e-20
8.59845e-19
4.97373e-18
1.78061e-17
4.29829e-17
9.88021e-17
3.62379e-16
1.8103e-15
1.80051e-14
5.2225e-13
2.63887e-12
1.11401e-12
8.8383e-07
-6.3242e-18
-2.72285e-18
-1.20019e-18
-5.32064e-19
-1.40145e-19
2.89466e-19
3.09015e-18
1.76887e-17
6.90196e-17
2.00278e-16
4.26281e-16
7.86507e-16
1.97401e-15
8.85736e-15
6.92445e-14
5.81268e-13
2.98633e-12
1.19366e-12
1.19368e-12
-1.54733e-18
-6.02527e-19
-2.34598e-19
-7.66462e-20
1.92468e-19
3.61936e-18
2.43815e-17
1.19132e-16
4.52017e-16
1.36266e-15
3.32703e-15
8.91061e-15
3.06054e-14
1.24787e-13
4.47792e-13
1.39161e-12
3.89903e-12
1.19368e-12
1.13798e-07
-3.50993e-19
-1.25566e-19
-4.33624e-20
6.37138e-21
9.38345e-19
1.32699e-17
1.12805e-16
5.91809e-16
2.48558e-15
9.4e-15
3.90982e-14
1.82256e-13
6.30485e-13
1.65875e-12
2.89028e-12
4.61627e-12
5.84171e-12
1.19379e-12
1.96899e-06
-6.99506e-20
-2.30473e-20
-6.59689e-21
5.00142e-20
1.81443e-18
3.56886e-17
4.22764e-16
2.77786e-15
1.60868e-14
9.17711e-14
5.68203e-13
2.64787e-12
7.26523e-12
1.29537e-11
1.39411e-11
1.46207e-11
1.26958e-11
1.1982e-12
2.38955e-06
-1.17893e-20
-3.53802e-21
-3.99133e-22
5.8988e-20
2.77268e-18
7.05182e-17
1.17888e-15
1.21003e-14
1.02717e-13
7.09666e-13
4.08668e-12
1.539e-11
3.4019e-11
4.71076e-11
4.36634e-11
3.80164e-11
3.68905e-11
1.20101e-12
2.38958e-06
-1.62408e-21
-4.34717e-22
3.19241e-22
6.05702e-20
3.35069e-18
1.01754e-16
2.29854e-15
3.87145e-14
3.98385e-13
2.7039e-12
1.28567e-11
4.02342e-11
7.53849e-11
8.86451e-11
8.73217e-11
7.86303e-11
9.44829e-11
1.20673e-12
2.37281e-06
-1.75949e-22
-4.03631e-23
2.43555e-22
4.73658e-20
3.48018e-18
1.14616e-16
3.18764e-15
7.85458e-14
8.45965e-13
5.35656e-12
2.16716e-11
6.02371e-11
1.00977e-10
1.06872e-10
1.20628e-10
1.66355e-10
2.25001e-10
1.22734e-12
2.37253e-06
-1.42726e-23
-2.44482e-24
9.99265e-23
2.27825e-20
2.75008e-18
1.11275e-16
3.47672e-15
1.06399e-13
1.13765e-12
6.77775e-12
2.49542e-11
6.62278e-11
1.03909e-10
1.03911e-10
1.29285e-10
8.03547e-10
8.67248e-10
1.28389e-12
2.13245e-06
-8.1112e-25
-2.24539e-26
3.77451e-23
8.83608e-21
1.22681e-18
6.2042e-17
2.97573e-15
1.12752e-13
1.19082e-12
6.84417e-12
2.32764e-11
5.02374e-11
8.56865e-11
5.48694e-11
8.68923e-11
3.74774e-09
3.87159e-09
1.5172e-12
6.55008e-07
-2.92737e-26
2.84457e-26
9.68741e-24
2.83586e-21
4.08159e-19
1.96433e-17
1.20565e-15
7.96626e-14
7.9568e-13
3.98267e-12
1.0904e-11
1.76603e-11
3.38715e-11
1.11079e-11
2.66315e-11
6.67327e-09
6.87266e-09
2.63586e-12
5.96982e-07
-5.68735e-28
4.66256e-27
1.48732e-24
6.06376e-22
1.02272e-19
4.62113e-18
2.6382e-16
2.38088e-14
2.23769e-13
1.00654e-12
2.39318e-12
3.66886e-12
6.41325e-12
3.83736e-14
5.88534e-11
6.42588e-09
6.83545e-09
1.39432e-09
9.32091e-07
-4.24588e-30
3.7911e-28
1.20126e-25
7.28404e-23
1.47859e-20
7.25022e-19
3.63989e-17
3.6116e-15
3.2131e-14
1.33802e-13
2.91171e-13
4.42226e-13
6.93466e-13
5.41148e-16
8.7793e-11
1.60616e-09
3.62238e-09
4.814e-14
9.32027e-07
-5.49406e-33
2.26953e-32
2.15031e-27
4.12107e-24
8.83289e-22
4.94518e-20
2.59405e-18
2.50334e-16
2.09881e-15
8.11035e-15
1.66415e-14
2.51632e-14
3.41307e-14
5.39986e-16
1.3629e-11
3.32939e-11
1.57709e-10
1.41532e-25
9.19366e-07
-3.25469e-38
-3.01769e-40
4.01132e-35
7.72444e-30
1.91447e-26
6.27084e-24
1.50964e-21
1.51612e-19
9.49753e-19
3.43121e-18
6.94501e-18
9.93503e-18
4.31709e-18
7.56938e-20
2.97638e-14
3.9443e-34
-6.07765e-50
-2.35099e-41
8.27953e-07
)
;

boundaryField
{
    leftWall
    {
        type            zeroGradient;
    }
    rightWall
    {
        type            zeroGradient;
    }
    lowerWall
    {
        type            zeroGradient;
    }
    atmosphere
    {
        type            inletOutlet;
        inletValue      uniform 0;
        value           nonuniform List<scalar> 
46
(
0
1.43981e-11
2.71685e-10
4.06546e-10
3.06216e-10
1.425e-10
3.31429e-11
2.89785e-12
6.77331e-14
3.06249e-16
2.38615e-19
5.62964e-23
-1.50205e-20
-3.63854e-20
-3.12789e-20
-1.40555e-20
-3.84661e-21
-6.74583e-22
-7.48952e-23
-4.93946e-24
-1.73582e-25
0
0
0
0
0
0
0
0
0
0
0
0
0
0
0
0
0
0
0
0
0
0
0
0
8.27953e-07
)
;
    }
    defaultFaces
    {
        type            empty;
    }
}


// ************************************************************************* //
