/*--------------------------------*- C++ -*----------------------------------*\
  =========                 |
  \\      /  F ield         | OpenFOAM: The Open Source CFD Toolbox
   \\    /   O peration     | Website:  https://openfoam.org
    \\  /    A nd           | Version:  9
     \\/     M anipulation  |
\*---------------------------------------------------------------------------*/
FoamFile
{
    format      ascii;
    class       volScalarField;
    location    "1.35";
    object      epsilon;
}
// * * * * * * * * * * * * * * * * * * * * * * * * * * * * * * * * * * * * * //

dimensions      [0 2 -3 0 0 0 0];

internalField   nonuniform List<scalar> 
2268
(
0.00938606
0.0529318
0.111833
0.174809
0.23669
0.293681
0.342792
0.38207
0.410679
0.428718
0.436535
0.437892
0.438398
0.437712
0.437573
0.44582
0.468891
0.499223
0.516373
0.496316
0.415929
0.263558
0.0907532
0.0186041
0.0330894
0.0548704
0.0789177
0.103294
0.126555
0.147658
0.166036
0.181578
0.194506
0.205186
0.214912
0.224447
0.232815
0.241106
0.251403
0.264907
0.27886
0.28637
0.279097
0.247667
0.185297
0.120006
0.0328238
0.0380687
0.0534844
0.071005
0.0889597
0.106248
0.122171
0.136455
0.149229
0.160893
0.171914
0.182879
0.193862
0.204187
0.21417
0.224876
0.23695
0.248864
0.256707
0.255042
0.236421
0.194099
0.177843
0.048268
0.0469645
0.0599859
0.0754063
0.0913038
0.106597
0.120677
0.133387
0.144978
0.155983
0.16694
0.17821
0.189678
0.200807
0.211647
0.222805
0.234691
0.246496
0.255893
0.259138
0.250077
0.222846
0.237354
0.0647232
0.0576612
0.0694898
0.0842099
0.0994597
0.114056
0.12739
0.139354
0.150275
0.160798
0.171547
0.182817
0.194452
0.20602
0.217466
0.229121
0.24125
0.253547
0.264875
0.273058
0.2738
0.264738
0.31525
0.0823972
0.0695999
0.0807708
0.0954939
0.110814
0.125367
0.138498
0.150104
0.160562
0.17064
0.181084
0.192215
0.2039
0.215806
0.227793
0.23998
0.252516
0.265474
0.278714
0.291689
0.302992
0.318249
0.432608
0.10174
0.0826095
0.0933896
0.108576
0.124442
0.139376
0.152645
0.164122
0.174207
0.183816
0.193883
0.204823
0.216551
0.228812
0.241358
0.254093
0.267057
0.280602
0.295415
0.312522
0.334365
0.37994
0.619048
0.123505
0.0966338
0.107173
0.123178
0.139949
0.155583
0.169249
0.180767
0.190523
0.199617
0.209258
0.22001
0.231847
0.244536
0.25768
0.270942
0.284236
0.298103
0.31385
0.333724
0.363787
0.439562
0.988096
0.0621261
0.408403
0.734314
0.898925
0.852766
0.692157
0.578339
0.552144
0.623119
0.729672
0.7735
0.737478
0.666506
0.559486
0.447896
0.351697
0.279739
0.211006
0.0751433
0.117493
0.249839
0.349288
0.391073
0.371845
0.328023
0.307254
0.319888
0.362919
0.405121
0.424531
0.418818
0.387651
0.33942
0.282588
0.226108
0.172662
0.134965
0.1095
0.212188
0.276783
0.327622
0.341847
0.319537
0.288731
0.280493
0.299662
0.332466
0.357125
0.370098
0.370757
0.349612
0.313115
0.268171
0.218124
0.17381
0.151536
0.168894
0.325822
0.333015
0.352462
0.349694
0.322594
0.293156
0.287289
0.307117
0.33517
0.355773
0.363001
0.364028
0.347443
0.316033
0.275914
0.228152
0.189584
0.176704
0.229275
0.470562
0.405843
0.392619
0.37396
0.342173
0.311644
0.304649
0.321994
0.34874
0.370472
0.375836
0.371617
0.35812
0.330387
0.292341
0.24561
0.210778
0.203985
0.293165
0.679261
0.499991
0.4431
0.406354
0.369025
0.337356
0.327792
0.342759
0.371001
0.394385
0.39903
0.389815
0.374818
0.351411
0.315128
0.268254
0.235954
0.234397
0.366915
1.03236
0.627933
0.504845
0.44582
0.400613
0.368266
0.355998
0.369875
0.400347
0.425609
0.429058
0.418832
0.397584
0.373446
0.342154
0.295082
0.26444
0.269013
0.452127
1.68609
0.789962
0.579174
0.49371
0.437826
0.404023
0.390269
0.403339
0.436031
0.463658
0.465371
0.452253
0.429995
0.39791
0.366034
0.323372
0.295117
0.30725
0.547841
0.152981
0.116666
0.127953
0.145929
0.164676
0.181934
0.196769
0.208887
0.218562
0.227181
0.236466
0.247237
0.259565
0.273103
0.28721
0.30116
0.314625
0.328314
0.344151
0.365246
0.398572
0.467741
0.692548
0.204803
0.149607
0.162122
0.183503
0.2056
0.225673
0.242779
0.256403
0.266298
0.274203
0.282964
0.293793
0.306786
0.321348
0.336271
0.35031
0.362783
0.373979
0.385679
0.401035
0.423946
0.46474
0.558232
0.267909
0.18918
0.203038
0.227929
0.253257
0.276069
0.295896
0.312127
0.323404
0.331185
0.339541
0.34973
0.361933
0.375705
0.389582
0.402017
0.411985
0.419722
0.426983
0.436261
0.451259
0.478701
0.532101
0.346616
0.23923
0.252484
0.279602
0.306572
0.330417
0.3524
0.371979
0.38703
0.397774
0.406825
0.414419
0.42203
0.431453
0.441826
0.451332
0.458488
0.463169
0.467244
0.47342
0.485097
0.509487
0.554534
0.460849
0.308724
0.312858
0.338725
0.363221
0.38252
0.403237
0.423467
0.44459
0.468568
0.484102
0.487119
0.484683
0.485948
0.491352
0.497837
0.502542
0.504941
0.507145
0.511768
0.520823
0.53572
0.559468
0.627593
0.378103
0.377897
0.392571
0.40183
0.415748
0.433357
0.451764
0.479917
0.521238
0.555739
0.559955
0.544868
0.535965
0.537924
0.543285
0.544562
0.542962
0.541341
0.542959
0.541383
0.540074
0.557354
0.850093
0.430822
0.401393
0.399487
0.409547
0.424907
0.441547
0.462192
0.491516
0.531809
0.57035
0.588857
0.584623
0.571276
0.577393
0.579599
0.571528
0.567774
0.563519
0.553508
0.544926
0.544282
0.561605
0.872969
0.440883
0.395853
0.395743
0.408816
0.424878
0.44332
0.463718
0.488384
0.518154
0.544259
0.562173
0.574387
0.57635
0.58532
0.587558
0.583383
0.580396
0.56889
0.556557
0.548662
0.554132
0.576955
0.793563
0.43033
0.385976
0.38778
0.40359
0.422978
0.441827
0.459402
0.480447
0.503579
0.51971
0.534947
0.550958
0.565221
0.577659
0.584405
0.579517
0.572587
0.563175
0.556081
0.551829
0.555307
0.569001
0.738715
0.416979
0.377435
0.382121
0.399668
0.419133
0.435926
0.451393
0.470807
0.489922
0.501941
0.511982
0.52607
0.546878
0.565536
0.572219
0.565398
0.55582
0.549526
0.543478
0.53338
0.528355
0.544515
0.716304
0.405937
0.368683
0.373848
0.390913
0.409276
0.425297
0.4403
0.456832
0.471951
0.481025
0.486585
0.495891
0.513722
0.535613
0.545553
0.540317
0.529422
0.518163
0.504658
0.494359
0.496552
0.521612
0.706034
0.394014
0.35682
0.360777
0.376235
0.393374
0.408766
0.42263
0.435788
0.446433
0.452512
0.456045
0.461262
0.470208
0.482496
0.490442
0.487858
0.478358
0.466068
0.45706
0.455584
0.467535
0.499529
0.689752
0.377806
0.340339
0.34253
0.356108
0.371741
0.386079
0.398439
0.408837
0.416447
0.420694
0.422935
0.425103
0.427881
0.431445
0.433428
0.430716
0.424637
0.418727
0.417069
0.423402
0.441853
0.477082
0.658696
0.355788
0.319117
0.319921
0.331588
0.345577
0.358578
0.369476
0.377993
0.383871
0.387136
0.388585
0.389132
0.389205
0.389093
0.388439
0.38644
0.383829
0.382707
0.385886
0.39628
0.416926
0.45106
0.610312
0.327806
0.293667
0.293843
0.30381
0.316404
0.328099
0.337772
0.345102
0.350096
0.353002
0.354345
0.35465
0.354272
0.353599
0.352858
0.352083
0.351809
0.353362
0.358736
0.370045
0.389464
0.41905
0.546473
0.294715
0.264887
0.265348
0.274285
0.28557
0.296165
0.304895
0.311488
0.31607
0.318969
0.320608
0.32137
0.321554
0.321498
0.321513
0.321833
0.322902
0.32565
0.331488
0.34184
0.358157
0.381604
0.471386
0.258066
0.233927
0.235406
0.243845
0.253997
0.263794
0.271818
0.27792
0.282289
0.285275
0.287262
0.288569
0.289446
0.290145
0.290914
0.291992
0.293749
0.296859
0.30231
0.311006
0.323819
0.34133
0.390346
0.219962
0.202187
0.205048
0.213343
0.222757
0.231692
0.239158
0.24488
0.249075
0.252092
0.254289
0.255957
0.25731
0.258535
0.259816
0.261347
0.263421
0.266522
0.271323
0.278453
0.288305
0.301144
0.312782
0.183488
0.171319
0.175408
0.18361
0.192428
0.200528
0.207506
0.212879
0.216882
0.219845
0.222101
0.223923
0.225508
0.227014
0.228581
0.230366
0.23259
0.235594
0.239827
0.245773
0.253535
0.26322
0.246983
0.150795
0.142888
0.147661
0.155563
0.163776
0.171205
0.177569
0.182598
0.186404
0.189274
0.191509
0.193366
0.195038
0.196669
0.198385
0.200313
0.202624
0.205557
0.20942
0.214559
0.221014
0.228808
0.192616
0.122381
0.117778
0.122823
0.130211
0.13773
0.144475
0.150164
0.154859
0.158478
0.161273
0.163483
0.165348
0.167057
0.16875
0.170547
0.172561
0.174928
0.177819
0.181448
0.186056
0.191746
0.198471
0.15098
0.099094
0.096744
0.101661
0.108328
0.115048
0.121102
0.126232
0.130507
0.133922
0.136637
0.138844
0.140739
0.142492
0.144233
0.14608
0.148142
0.150533
0.153383
0.156845
0.161086
0.166273
0.172345
0.121713
0.0812714
0.0800933
0.0845335
0.0903299
0.0961824
0.101523
0.106124
0.110003
0.11322
0.115865
0.118079
0.120014
0.121812
0.123596
0.125476
0.127553
0.129927
0.132709
0.136017
0.139975
0.144723
0.150289
0.102476
0.0683973
0.0675316
0.0712737
0.0761489
0.0811291
0.0857641
0.0898559
0.0933762
0.0963966
0.0989674
0.101184
0.103158
0.105003
0.106823
0.108717
0.110778
0.113098
0.115771
0.118894
0.122569
0.126896
0.131968
0.0901347
0.0593727
0.0583186
0.0612985
0.0653029
0.0694782
0.0734585
0.0770721
0.0802665
0.0830917
0.0855774
0.0877823
0.0897827
0.0916628
0.0935078
0.0954013
0.0974258
0.0996631
0.102196
0.105111
0.108491
0.112421
0.11698
0.0819977
0.0530076
0.0515766
0.0538545
0.0571098
0.0605974
0.064009
0.0671951
0.0700935
0.0727364
0.0751303
0.0773075
0.0793171
0.0812186
0.0830769
0.0849602
0.0869382
0.0890825
0.0914664
0.0941648
0.0972528
0.100804
0.104885
0.0762792
0.0483484
0.0465377
0.0482382
0.050895
0.0538318
0.0567787
0.0596042
0.06225
0.0647294
0.067032
0.0691712
0.0711762
0.0730865
0.0749495
0.0768181
0.0787491
0.0808033
0.0830443
0.085538
0.0883515
0.0915508
0.0951975
0.0719859
0.0447725
0.0426521
0.0439114
0.0461153
0.0486322
0.0512176
0.0537519
0.0562042
0.0585465
0.0607656
0.0628638
0.0648559
0.0667664
0.0686283
0.0704808
0.0723691
0.074343
0.0764568
0.078768
0.0813364
0.0842219
0.087482
0.0687038
0.0419422
0.0395845
0.040519
0.0423916
0.0445987
0.0469151
0.0492505
0.0515508
0.0537838
0.0559328
0.0579928
0.0599686
0.0618741
0.0637306
0.0655667
0.0674168
0.0693214
0.0713259
0.07348
0.0758366
0.0784501
0.081374
0.0664283
0.0397042
0.0371538
0.0378515
0.039488
0.0414843
0.043629
0.0458222
0.0480102
0.0501609
0.0522548
0.0542819
0.0562408
0.0581373
0.0599846
0.0618025
0.0636171
0.0654606
0.0673708
0.0693903
0.0715657
0.0739463
0.0765818
0.064959
0.0380496
0.0353169
0.035842
0.0373225
0.0391813
0.0412072
0.0433021
0.0454119
0.0475037
0.0495557
0.0515551
0.0534959
0.0553789
0.0572113
0.0590066
0.0607843
0.0625701
0.0643953
0.0662964
0.0683145
0.0704941
0.0728815
0.0642659
0.0369655
0.0340741
0.0344784
0.0358582
0.0376315
0.0395843
0.0416171
0.0436754
0.0457252
0.0477439
0.0497168
0.0516354
0.0534973
0.0553057
0.0570698
0.0588044
0.0605299
0.0622725
0.0640637
0.0659396
0.0679407
0.0701098
0.0644714
0.036474
0.0334492
0.0337914
0.0351274
0.036862
0.0387773
0.040773
0.0427951
0.04481
0.0467952
0.0487357
0.050622
0.0524499
0.0542205
0.0559398
0.0576194
0.0592758
0.0609312
0.0626129
0.0643528
0.0661877
0.0681574
0.0658895
0.0366947
0.0335716
0.0339177
0.0352599
0.036987
0.038881
0.0408452
0.0428289
0.0448008
0.0467399
0.0486319
0.0504674
0.0522416
0.0539542
0.0556095
0.0572166
0.0587893
0.0603464
0.0619116
0.0635136
0.0651853
0.0669639
0.0692496
0.0379719
0.0347648
0.0351515
0.0365075
0.038214
0.0400637
0.0419697
0.0438869
0.0457874
0.0476519
0.0494668
0.0512231
0.0529157
0.0545437
0.05611
0.0576219
0.0590909
0.060533
0.061969
0.0634241
0.0649282
0.0665153
0.0761214
0.0411247
0.0376755
0.0379943
0.0392505
0.0408322
0.0425499
0.0443255
0.0461163
0.0478939
0.049638
0.0513344
0.0529732
0.0545487
0.0560591
0.0575062
0.0588957
0.060237
0.0615436
0.0628333
0.0641282
0.0654547
0.0668436
0.0895135
0.0477665
0.0433651
0.0431392
0.0439482
0.0451618
0.0465794
0.0481053
0.0496803
0.051264
0.0528285
0.0543545
0.0558298
0.0572468
0.0586023
0.0598966
0.0611337
0.0623209
0.0634692
0.0645935
0.0657123
0.0668486
0.0680293
0.114644
0.0605506
0.0532309
0.051306
0.0509934
0.0514524
0.0523424
0.0534747
0.0547336
0.0560464
0.0573675
0.0586684
0.0599315
0.0611466
0.0623084
0.0634154
0.0644696
0.0654762
0.0664435
0.0673831
0.0683101
0.0692434
0.0702056
0.161132
0.0833422
0.0685588
0.0628273
0.0604562
0.0597446
0.0599089
0.0605374
0.0614048
0.0623861
0.0634107
0.0644382
0.0654454
0.0664187
0.0673508
0.0682385
0.0690819
0.0698837
0.0706496
0.0713879
0.0721099
0.0728301
0.0735662
0.253852
0.12121
0.08922
0.0768934
0.0717695
0.0697618
0.0691995
0.0693314
0.0698007
0.0704308
0.0711316
0.0718551
0.0725749
0.0732762
0.0739505
0.0745935
0.0752038
0.075782
0.0763313
0.0768568
0.0773659
0.0778683
0.0783766
0.496921
0.176812
0.110307
0.0905921
0.0836014
0.080973
0.0800614
0.079886
0.0800442
0.0803577
0.0807423
0.0811557
0.0815757
0.0819898
0.0823906
0.0827741
0.0831383
0.0834826
0.0838079
0.0841168
0.0844129
0.0847015
0.0849898
1.5942
0.211345
0.115671
0.0990012
0.0944976
0.0930129
0.0924944
0.0923416
0.0923445
0.0924185
0.0925263
0.0926497
0.092779
0.0929091
0.0930366
0.0931596
0.093277
0.0933881
0.0934929
0.0935918
0.0936859
0.0937766
0.093866
1.82286
1.54388
1.43778
1.63307
0.705164
0.746597
0.781236
0.848573
0.602099
0.671123
0.770565
0.920338
0.623576
0.710861
0.850458
0.977234
0.620364
0.696618
0.779876
0.826303
0.602201
0.649296
0.701226
0.749028
0.595123
0.625547
0.66655
0.723181
0.598082
0.621826
0.66261
0.722036
0.594546
0.623925
0.669179
0.731862
0.583548
0.620767
0.671864
0.737571
0.566714
0.606149
0.657161
0.719555
0.546767
0.585232
0.632186
0.686951
0.522772
0.557935
0.598721
0.644135
0.491506
0.521311
0.554485
0.589977
0.45177
0.475108
0.500261
0.526317
0.406079
0.423105
0.440997
0.459058
0.358677
0.370509
0.382693
0.39474
0.31325
0.321381
0.329628
0.337664
0.271957
0.277767
0.283613
0.289281
0.2356
0.240103
0.24464
0.24907
0.204202
0.208015
0.211887
0.215727
0.177462
0.180893
0.184418
0.187968
0.154949
0.158112
0.16139
0.16474
0.136217
0.139138
0.142186
0.145333
0.120827
0.123498
0.126298
0.129211
0.108319
0.11073
0.113269
0.115924
0.0982489
0.100398
0.102672
0.105064
0.0901942
0.0921059
0.094128
0.096261
0.0837908
0.0854932
0.0872924
0.0891905
0.0787447
0.0802651
0.08187
0.0835625
0.0748259
0.0761884
0.0776244
0.0791375
0.0718631
0.0730868
0.0743742
0.0757295
0.0697379
0.0708362
0.0719895
0.0732023
0.0683815
0.0693619
0.0703898
0.0714696
0.0677726
0.0686379
0.0695436
0.0704946
0.0679378
0.068687
0.0694703
0.0702923
0.0689545
0.0695847
0.0702428
0.0709331
0.0709552
0.071463
0.0719927
0.0725482
0.0741358
0.0745194
0.0749189
0.0753378
0.0787666
0.0790273
0.0792985
0.0795826
0.0852083
0.0853532
0.0855035
0.0856608
0.093933
0.093977
0.0940226
0.0940705
1.10468
0.905724
0.704486
0.577812
0.502019
0.465465
0.452699
0.464958
0.501748
0.534283
0.531966
0.510044
0.483338
0.448625
0.40962
0.366545
0.342883
0.369448
0.682679
1.00508
0.969369
0.886378
0.743024
0.619216
0.564673
0.552301
0.565422
0.616326
0.662407
0.647174
0.606066
0.563097
0.52261
0.483679
0.437668
0.397208
0.444558
0.928711
1.09756
0.946274
0.974137
0.934164
0.76629
0.671492
0.644645
0.667659
0.747037
0.81397
0.764541
0.691402
0.629961
0.586268
0.549284
0.498505
0.440041
0.458739
1.09084
0.994417
0.977101
1.10569
1.14893
0.951461
0.786111
0.723722
0.745731
0.818812
0.845485
0.789703
0.693148
0.618584
0.573307
0.536242
0.471613
0.412997
0.423621
0.924119
0.886658
1.07441
1.39634
1.47356
1.21082
0.912909
0.784687
0.770917
0.78451
0.766518
0.70632
0.627374
0.558754
0.508306
0.462837
0.397836
0.345773
0.373459
0.671738
0.856377
1.19326
1.7528
1.70871
1.27672
0.941132
0.808882
0.783236
0.76388
0.715849
0.651217
0.588952
0.53491
0.490096
0.449218
0.365775
0.309449
0.348485
0.46945
0.854733
1.23168
1.77238
1.62636
1.18377
0.907572
0.806708
0.789813
0.751254
0.690356
0.627197
0.587568
0.561939
0.553597
0.577128
0.426922
0.315796
0.296474
0.297938
0.858462
1.20208
1.58117
1.47689
1.10729
0.866838
0.772669
0.759466
0.73063
0.666004
0.601267
0.561326
0.548637
0.576452
0.65936
0.62335
0.389032
0.323379
0.284766
0.861847
1.13177
1.36704
1.32702
1.04575
0.826573
0.723508
0.691143
0.667526
0.616955
0.557466
0.510274
0.482328
0.481999
0.506788
0.481344
0.387222
0.322927
0.410399
0.860952
1.08137
1.26004
1.2083
1.00586
0.794937
0.675398
0.626768
0.596496
0.556553
0.509804
0.468888
0.441212
0.430036
0.446427
0.431914
0.362334
0.323393
0.524693
0.831346
1.01916
1.14732
1.05855
0.892588
0.737283
0.628493
0.572115
0.538165
0.504086
0.468254
0.437704
0.413758
0.396529
0.401447
0.392868
0.344366
0.310719
0.474725
0.780556
0.925151
1.00174
0.9142
0.77693
0.659897
0.579115
0.526463
0.492237
0.464366
0.438142
0.412706
0.386615
0.364984
0.352989
0.336629
0.303973
0.28078
0.383336
0.718409
0.8215
0.86283
0.792292
0.685504
0.593095
0.528755
0.489056
0.46195
0.439619
0.416515
0.390199
0.361355
0.334599
0.312856
0.290885
0.266781
0.253719
0.336706
0.645972
0.716025
0.737319
0.68514
0.605998
0.534648
0.482915
0.450462
0.429196
0.411463
0.391279
0.366231
0.337382
0.309029
0.283908
0.26097
0.241524
0.234903
0.315195
0.566341
0.611949
0.622603
0.586829
0.531588
0.479411
0.4397
0.413474
0.395972
0.381146
0.363842
0.341393
0.315178
0.288721
0.264173
0.242446
0.226175
0.224668
0.314421
0.486283
0.514936
0.520391
0.497739
0.46181
0.426313
0.397963
0.377963
0.364059
0.351548
0.336743
0.317777
0.295317
0.272184
0.249909
0.230458
0.217246
0.220528
0.325983
0.412687
0.4305
0.433869
0.420918
0.399433
0.377284
0.358788
0.344897
0.334438
0.324302
0.311994
0.296346
0.277893
0.258128
0.238872
0.222334
0.212269
0.219948
0.342867
0.349608
0.361215
0.36425
0.358131
0.346812
0.334535
0.323796
0.315149
0.307821
0.300137
0.290287
0.277616
0.262569
0.24626
0.230161
0.21666
0.209635
0.221212
0.361054
0.297814
0.306432
0.310107
0.308723
0.304257
0.298843
0.293763
0.289224
0.284644
0.279107
0.271485
0.26139
0.249232
0.235974
0.222989
0.212424
0.20825
0.223572
0.379586
0.255937
0.263526
0.268256
0.270183
0.270239
0.269413
0.268255
0.26674
0.264409
0.260641
0.254958
0.247068
0.237394
0.226809
0.216586
0.2087
0.207106
0.225669
0.394214
0.22191
0.229381
0.235204
0.239439
0.242458
0.244641
0.246135
0.246784
0.246214
0.244005
0.239906
0.233953
0.226461
0.218242
0.210461
0.20494
0.205562
0.226574
0.402486
0.193851
0.201439
0.208147
0.213925
0.218851
0.222985
0.226261
0.228461
0.229275
0.228418
0.225773
0.22151
0.215987
0.209902
0.204306
0.200886
0.203428
0.226274
0.405054
0.170402
0.178043
0.185279
0.191981
0.198064
0.203425
0.20789
0.211219
0.213149
0.213485
0.21219
0.209465
0.205757
0.201618
0.197991
0.196437
0.200656
0.224957
0.403762
0.150723
0.158213
0.165609
0.172734
0.179426
0.1855
0.190736
0.194889
0.197736
0.199136
0.199095
0.197821
0.195737
0.193367
0.1915
0.191587
0.197257
0.222873
0.402121
0.134249
0.141387
0.148634
0.155806
0.162706
0.169121
0.174818
0.179562
0.183157
0.185494
0.186595
0.18665
0.186016
0.185223
0.184904
0.186412
0.193334
0.220286
0.40225
0.120548
0.127193
0.13408
0.141035
0.147865
0.154357
0.160283
0.165426
0.169613
0.17275
0.174859
0.176097
0.176758
0.177287
0.178319
0.181054
0.189063
0.217239
0.401834
0.109251
0.115333
0.121737
0.128317
0.134898
0.141284
0.147267
0.152652
0.157284
0.161076
0.164039
0.166293
0.168068
0.169727
0.171862
0.175647
0.184565
0.213568
0.398215
0.100018
0.105525
0.1114
0.117526
0.123756
0.12992
0.135837
0.141336
0.146277
0.150577
0.154231
0.157323
0.160025
0.162627
0.165647
0.170264
0.179887
0.209203
0.391417
0.092538
0.0974988
0.102847
0.108496
0.114329
0.120206
0.125974
0.131486
0.136616
0.141284
0.14547
0.149222
0.152662
0.15602
0.159752
0.164965
0.175044
0.204215
0.38236
0.0865487
0.0910018
0.0958523
0.101035
0.106462
0.112021
0.117588
0.123036
0.128254
0.133165
0.137733
0.141977
0.145976
0.149909
0.154176
0.159817
0.170072
0.198761
0.371447
0.0818073
0.0858004
0.0901976
0.0949429
0.0999744
0.105207
0.11054
0.115869
0.121094
0.126138
0.130956
0.13554
0.139936
0.144277
0.148915
0.154827
0.165119
0.19301
0.359084
0.0781201
0.0817098
0.085688
0.0900265
0.0946813
0.0995895
0.104672
0.10984
0.115007
0.120095
0.125049
0.129843
0.134494
0.1391
0.143971
0.150022
0.160225
0.187209
0.346589
0.0753411
0.0785663
0.082157
0.0861179
0.0904135
0.0950016
0.0998214
0.104799
0.109856
0.114915
0.119912
0.124807
0.129594
0.134348
0.139345
0.145442
0.15547
0.181547
0.335057
0.0733734
0.0762594
0.0794902
0.0830854
0.0870306
0.0912986
0.0958442
0.100606
0.10551
0.110481
0.115446
0.120351
0.125179
0.129985
0.135025
0.141105
0.150903
0.175968
0.323225
0.072171
0.0747284
0.0776085
0.0808402
0.0844331
0.0883713
0.0926249
0.0971438
0.101859
0.106692
0.111564
0.11641
0.121199
0.125979
0.13099
0.137004
0.146557
0.170659
0.312171
0.0717416
0.0739688
0.0764943
0.0793538
0.0825745
0.0861573
0.0900886
0.0943314
0.0988218
0.103476
0.108206
0.112936
0.117624
0.122312
0.127236
0.133144
0.142488
0.16602
0.305751
0.0721508
0.0740379
0.0761938
0.078659
0.0814702
0.084651
0.0882084
0.0921276
0.0963513
0.100789
0.10534
0.109913
0.114457
0.11901
0.123808
0.129602
0.138828
0.162342
0.305066
0.0735287
0.0750619
0.076827
0.0788641
0.081212
0.083914
0.0870095
0.0905309
0.0944352
0.09862
0.102963
0.107355
0.111735
0.11614
0.120825
0.126574
0.135882
0.160091
0.311729
0.0760775
0.0772454
0.0785994
0.0801715
0.0819887
0.0840917
0.0865654
0.0895682
0.0930822
0.096976
0.101092
0.105296
0.109517
0.11381
0.118483
0.124424
0.134304
0.160363
0.327864
0.0800846
0.0808851
0.0818187
0.0828996
0.0841173
0.0854495
0.0869779
0.0892606
0.0922938
0.0958629
0.0997447
0.10377
0.107865
0.11213
0.117021
0.123717
0.135374
0.165658
0.358641
0.0859392
0.0863884
0.0869158
0.0875151
0.0881122
0.0884857
0.0882831
0.0895306
0.0920011
0.095239
0.0989021
0.102774
0.106783
0.111113
0.116512
0.124861
0.140641
0.178592
0.414459
0.0941556
0.0942961
0.0944646
0.0946504
0.0947534
0.0942459
0.0900325
0.0899797
0.0919539
0.0949462
0.0984525
0.102204
0.106124
0.11044
0.116106
0.125664
0.146679
0.206042
0.500605
)
;

boundaryField
{
    leftWall
    {
        type            epsilonWallFunction;
        value           nonuniform List<scalar> 
50
(
0.00938606
0.0186041
0.0328238
0.048268
0.0647232
0.0823972
0.10174
0.123505
0.152981
0.204803
0.267909
0.346616
0.460849
0.627593
0.850093
0.872969
0.793563
0.738715
0.716304
0.706034
0.689752
0.658696
0.610312
0.546473
0.471386
0.390346
0.312782
0.246983
0.192616
0.15098
0.121713
0.102476
0.0901347
0.0819977
0.0762792
0.0719859
0.0687038
0.0664283
0.064959
0.0642659
0.0644714
0.0658895
0.0692496
0.0761214
0.0895135
0.114644
0.161132
0.253852
0.496921
1.5942
)
;
    }
    rightWall
    {
        type            epsilonWallFunction;
        value           nonuniform List<scalar> 
50
(
0.0751433
0.1095
0.168894
0.229275
0.293165
0.366915
0.452127
0.547841
0.682679
0.928711
1.09084
0.924119
0.671738
0.46945
0.297938
0.284766
0.410399
0.524693
0.474725
0.383336
0.336706
0.315195
0.314421
0.325983
0.342867
0.361054
0.379586
0.394214
0.402486
0.405054
0.403762
0.402121
0.40225
0.401834
0.398215
0.391417
0.38236
0.371447
0.359084
0.346589
0.335057
0.323225
0.312171
0.305751
0.305066
0.311729
0.327864
0.358641
0.414459
0.500605
)
;
    }
    lowerWall
    {
        type            epsilonWallFunction;
        value           nonuniform List<scalar> 
62
(
0.00938606
0.0529318
0.111833
0.174809
0.23669
0.293681
0.342792
0.38207
0.410679
0.428718
0.436535
0.437892
0.438398
0.437712
0.437573
0.44582
0.468891
0.499223
0.516373
0.496316
0.415929
0.263558
0.0907532
0.0907532
0.120006
0.177843
0.237354
0.31525
0.432608
0.619048
0.988096
1.82286
1.54388
1.43778
1.63307
0.0621261
0.117493
0.212188
0.325822
0.470562
0.679261
1.03236
1.68609
0.0621261
0.408403
0.734314
0.898925
0.852766
0.692157
0.578339
0.552144
0.623119
0.729672
0.7735
0.737478
0.666506
0.559486
0.447896
0.351697
0.279739
0.211006
0.0751433
)
;
    }
    atmosphere
    {
        type            inletOutlet;
        inletValue      uniform 0.1;
        value           nonuniform List<scalar> 
46
(
0.1
0.1
0.1
0.1
0.1
0.1
0.1
0.1
0.1
0.1
0.1
0.1
0.1
0.1
0.1
0.1
0.1
0.1
0.1
0.1
0.1
0.1
0.1
0.1
0.1
0.1
0.1
0.1
0.1
0.1
0.1
0.1
0.1
0.0900325
0.0899797
0.0919539
0.0949462
0.0984525
0.102204
0.106124
0.11044
0.116106
0.125664
0.146679
0.206042
0.500605
)
;
    }
    defaultFaces
    {
        type            empty;
    }
}


// ************************************************************************* //
