/*--------------------------------*- C++ -*----------------------------------*\
  =========                 |
  \\      /  F ield         | OpenFOAM: The Open Source CFD Toolbox
   \\    /   O peration     | Website:  https://openfoam.org
    \\  /    A nd           | Version:  9
     \\/     M anipulation  |
\*---------------------------------------------------------------------------*/
FoamFile
{
    format      ascii;
    class       surfaceScalarField;
    location    "0.7";
    object      phi;
}
// * * * * * * * * * * * * * * * * * * * * * * * * * * * * * * * * * * * * * //

dimensions      [0 3 -1 0 0 0 0];

internalField   nonuniform List<scalar> 
3280
(
2.33787e-09
-2.34865e-09
3.89745e-09
-1.55958e-09
2.42241e-09
1.47502e-09
-2.64599e-09
5.06837e-09
-1.11747e-08
8.52871e-09
-2.27315e-08
1.15568e-08
-3.67583e-08
1.40268e-08
-5.26579e-08
1.58995e-08
-6.98361e-08
1.71782e-08
-8.77232e-08
1.78871e-08
-1.05784e-07
1.80612e-08
-1.23526e-07
1.77413e-08
-1.40497e-07
1.6971e-08
-1.56292e-07
1.57956e-08
-1.70553e-07
1.42608e-08
-1.82966e-07
1.24129e-08
-1.93264e-07
1.02984e-08
-2.01229e-07
7.9647e-09
-2.06689e-07
5.4597e-09
-2.09522e-07
2.8327e-09
-2.09656e-07
1.34508e-10
-2.07074e-07
-2.58226e-09
-2.01811e-07
-5.26305e-09
-1.93959e-07
-7.85135e-09
-1.8367e-07
-1.0289e-08
-1.71154e-07
-1.25164e-08
-1.5668e-07
-1.44736e-08
-1.4058e-07
-1.61008e-08
-1.2324e-07
-1.73396e-08
-1.05105e-07
-1.81346e-08
-8.66707e-08
-1.84347e-08
-6.84756e-08
-1.81951e-08
-5.10959e-08
-1.73796e-08
-3.5132e-08
-1.59638e-08
-2.11919e-08
-1.394e-08
-9.86503e-09
-1.13269e-08
-1.67586e-09
-8.18921e-09
3.00423e-09
-4.68013e-09
4.12837e-09
-1.12404e-09
2.35712e-09
1.77153e-09
2.35743e-09
1.6062e-09
-3.95485e-09
-6.13831e-10
6.60373e-10
-9.79672e-09
1.06579e-08
-2.69969e-08
2.22685e-08
-5.2113e-08
3.36447e-08
-8.43568e-08
4.38006e-08
-1.22559e-07
5.22291e-08
-1.65366e-07
5.87061e-08
-2.11357e-07
6.31695e-08
-2.5912e-07
6.565e-08
-3.07293e-07
6.62344e-08
-3.54595e-07
6.5043e-08
-3.9984e-07
6.22165e-08
-4.41953e-07
5.79083e-08
-4.79972e-07
5.22798e-08
-5.13057e-07
4.54974e-08
-5.4049e-07
3.77321e-08
-5.61684e-07
2.91585e-08
-5.7618e-07
1.99557e-08
-5.83655e-07
1.03078e-08
-5.83925e-07
4.04643e-10
-5.7695e-07
-9.55796e-09
-5.62835e-07
-1.93777e-08
-5.4184e-07
-2.88463e-08
-5.14378e-07
-3.77508e-08
-4.81019e-07
-4.58751e-08
-4.4249e-07
-5.30027e-08
-3.9967e-07
-5.89206e-08
-3.53586e-07
-6.34236e-08
-3.05401e-07
-6.63201e-08
-2.56397e-07
-6.74385e-08
-2.07956e-07
-6.66356e-08
-1.61529e-07
-6.3807e-08
-1.18591e-07
-5.89009e-08
-8.05915e-08
-5.19399e-08
-4.88632e-08
-4.3055e-08
-2.45032e-08
-3.2549e-08
-8.17527e-09
-2.10081e-08
1.85165e-10
-9.48475e-09
1.82005e-09
1.36308e-10
4.17768e-09
-1.31979e-09
-2.63506e-09
-1.04121e-08
9.75261e-09
-2.99025e-08
3.01482e-08
-6.06924e-08
5.30584e-08
-1.02514e-07
7.54667e-08
-1.54295e-07
9.55813e-08
-2.14449e-07
1.12383e-07
-2.81099e-07
1.25356e-07
-3.52233e-07
1.34304e-07
-4.25811e-07
1.39228e-07
-4.99838e-07
1.40261e-07
-5.72412e-07
1.37616e-07
-6.41758e-07
1.31563e-07
-7.06256e-07
1.22406e-07
-7.6445e-07
1.10474e-07
-8.15063e-07
9.61104e-08
-8.57005e-07
7.96742e-08
-8.89381e-07
6.1534e-08
-9.11495e-07
4.20698e-08
-9.2286e-07
2.16725e-08
-9.232e-07
7.45402e-10
-9.12462e-07
-2.02958e-08
-8.90817e-07
-4.10233e-08
-8.58665e-07
-6.09981e-08
-8.16643e-07
-7.9773e-08
-7.65621e-07
-9.68967e-08
-7.06704e-07
-1.1192e-07
-6.41221e-07
-1.24403e-07
-5.70716e-07
-1.33928e-07
-4.96929e-07
-1.40108e-07
-4.21764e-07
-1.42603e-07
-3.47258e-07
-1.41141e-07
-2.75526e-07
-1.35539e-07
-2.08696e-07
-1.25732e-07
-1.48816e-07
-1.11819e-07
-9.77417e-08
-9.41294e-08
-5.69659e-08
-7.33245e-08
-2.74032e-08
-5.05704e-08
-9.10568e-09
-2.77821e-08
-9.30532e-10
-8.03905e-09
3.2472e-09
-4.84838e-09
2.21331e-09
-2.20615e-08
2.69657e-08
-5.31255e-08
6.12121e-08
-9.83405e-08
9.82733e-08
-1.57025e-07
1.34151e-07
-2.2774e-07
1.66296e-07
-3.08518e-07
1.93161e-07
-3.97061e-07
2.13899e-07
-4.90894e-07
2.28137e-07
-5.87492e-07
2.35826e-07
-6.84363e-07
2.37132e-07
-7.79116e-07
2.3237e-07
-8.69509e-07
2.21956e-07
-9.53479e-07
2.06377e-07
-1.02917e-06
1.86165e-07
-1.09495e-06
1.61891e-07
-1.14943e-06
1.34148e-07
-1.19145e-06
1.03555e-07
-1.22013e-06
7.07483e-08
-1.23484e-06
3.6386e-08
-1.23524e-06
1.14622e-09
-1.22126e-06
-3.42726e-08
-1.19313e-06
-6.91529e-08
-1.15137e-06
-1.02761e-07
-1.09679e-06
-1.3435e-07
-1.03052e-06
-1.63172e-07
-9.53957e-07
-1.88482e-07
-8.68802e-07
-2.09558e-07
-7.77013e-07
-2.25716e-07
-6.80791e-07
-2.3633e-07
-5.82535e-07
-2.40859e-07
-4.84796e-07
-2.3888e-07
-3.90209e-07
-2.30125e-07
-3.01409e-07
-2.14531e-07
-2.20923e-07
-1.92306e-07
-1.5103e-07
-1.64022e-07
-9.36009e-08
-1.30754e-07
-4.9893e-08
-9.42781e-08
-2.03348e-08
-5.734e-08
-4.3169e-09
-2.40569e-08
-1.06973e-09
-8.40032e-09
1.06136e-08
-3.40863e-08
5.26516e-08
-7.71974e-08
1.04323e-07
-1.37177e-07
1.58252e-07
-2.1274e-07
2.09714e-07
-3.01982e-07
2.55538e-07
-4.02521e-07
2.93701e-07
-5.11664e-07
3.23041e-07
-6.26538e-07
3.43011e-07
-7.44214e-07
3.53502e-07
-8.61797e-07
3.54716e-07
-9.76504e-07
3.47077e-07
-1.08571e-06
3.31165e-07
-1.18701e-06
3.07673e-07
-1.27821e-06
2.77369e-07
-1.3574e-06
2.41082e-07
-1.42294e-06
1.99684e-07
-1.47347e-06
1.54084e-07
-1.50795e-06
1.05224e-07
-1.52564e-06
5.40761e-08
-1.52613e-06
1.64245e-09
-1.50936e-06
-5.10449e-08
-1.47558e-06
-1.02927e-07
-1.42542e-06
-1.52923e-07
-1.35984e-06
-1.99937e-07
-1.28014e-06
-2.4287e-07
-1.18798e-06
-2.80636e-07
-1.08536e-06
-3.12182e-07
-9.74558e-07
-3.36516e-07
-8.58151e-07
-3.52737e-07
-7.38935e-07
-3.60075e-07
-6.1988e-07
-3.57935e-07
-5.04051e-07
-3.45955e-07
-3.94507e-07
-3.24074e-07
-2.94195e-07
-2.92618e-07
-2.05805e-07
-2.52412e-07
-1.3162e-07
-2.04938e-07
-7.33547e-08
-1.52544e-07
-3.20031e-08
-9.86914e-08
-7.74838e-09
-4.83116e-08
-8.81813e-09
-1.17774e-08
2.2391e-08
-4.58377e-08
8.67118e-08
-1.01e-07
1.59485e-07
-1.75744e-07
2.32997e-07
-2.68067e-07
3.02037e-07
-3.75504e-07
3.62974e-07
-4.95212e-07
4.13409e-07
-6.24088e-07
4.51917e-07
-7.58882e-07
4.77805e-07
-8.96304e-07
4.90924e-07
-1.03312e-06
4.91528e-07
-1.16621e-06
4.80165e-07
-1.29264e-06
4.57599e-07
-1.40971e-06
4.24748e-07
-1.51499e-06
3.82645e-07
-1.60632e-06
3.32407e-07
-1.68185e-06
2.75217e-07
-1.74007e-06
2.12309e-07
-1.77981e-06
1.44966e-07
-1.80025e-06
7.4511e-08
-1.80092e-06
2.31145e-09
-1.78174e-06
-7.02281e-08
-1.743e-06
-1.41667e-07
-1.68538e-06
-2.10537e-07
-1.60997e-06
-2.75349e-07
-1.51823e-06
-3.34615e-07
-1.412e-06
-3.86865e-07
-1.2935e-06
-4.30677e-07
-1.1653e-06
-4.64715e-07
-1.03027e-06
-4.87768e-07
-8.9154e-07
-4.98808e-07
-7.5243e-07
-4.97044e-07
-6.16383e-07
-4.82002e-07
-4.86852e-07
-4.53606e-07
-3.67188e-07
-4.12282e-07
-2.60513e-07
-3.59086e-07
-1.69587e-07
-2.95865e-07
-9.6673e-08
-2.25457e-07
-4.34562e-08
-1.51908e-07
-1.10204e-08
-8.07473e-08
-1.98385e-08
-1.49349e-08
3.73258e-08
-5.70857e-08
1.28863e-07
-1.24069e-07
2.26469e-07
-2.13389e-07
3.22316e-07
-3.22264e-07
4.10912e-07
-4.47602e-07
4.88313e-07
-5.86051e-07
5.51858e-07
-7.34071e-07
5.99937e-07
-8.88031e-07
6.31765e-07
-1.0443e-06
6.47192e-07
-1.19932e-06
6.46553e-07
-1.3497e-06
6.30545e-07
-1.49225e-06
6.00141e-07
-1.62401e-06
5.5651e-07
-1.74234e-06
5.00974e-07
-1.84489e-06
4.34964e-07
-1.92968e-06
3.60001e-07
-1.99504e-06
2.77671e-07
-2.0397e-06
1.89627e-07
-2.06276e-06
9.75737e-08
-2.06372e-06
3.26981e-09
-2.04247e-06
-9.14761e-08
-1.99933e-06
-1.84811e-07
-1.93502e-06
-2.74845e-07
-1.8507e-06
-3.59668e-07
-1.74795e-06
-4.37364e-07
-1.62877e-06
-5.06048e-07
-1.49555e-06
-5.63893e-07
-1.35109e-06
-6.09182e-07
-1.19849e-06
-6.40363e-07
-1.04119e-06
-6.56113e-07
-8.82815e-07
-6.55415e-07
-7.27168e-07
-6.3765e-07
-5.78082e-07
-6.02692e-07
-4.39332e-07
-5.51032e-07
-3.14509e-07
-4.83909e-07
-2.06906e-07
-4.03468e-07
-1.19415e-07
-3.12948e-07
-5.44743e-08
-2.16848e-07
-1.40882e-08
-1.21133e-07
-3.39267e-08
-1.78934e-08
5.52192e-08
-6.78169e-08
1.78786e-07
-1.46316e-07
3.04968e-07
-2.49948e-07
4.25949e-07
-3.75133e-07
5.36096e-07
-5.18114e-07
6.31294e-07
-6.74984e-07
7.08728e-07
-8.41741e-07
7.66693e-07
-1.01436e-06
8.04381e-07
-1.18886e-06
8.21696e-07
-1.3614e-06
8.19095e-07
-1.52832e-06
7.97465e-07
-1.6862e-06
7.58014e-07
-1.83188e-06
7.02195e-07
-1.96255e-06
6.31642e-07
-2.07571e-06
5.48126e-07
-2.16924e-06
4.53526e-07
-2.24137e-06
3.49807e-07
-2.29075e-06
2.39008e-07
-2.31642e-06
1.23239e-07
-2.31782e-06
4.67103e-09
-2.29483e-06
-1.14462e-07
-2.24777e-06
-2.31872e-07
-2.17739e-06
-3.45226e-07
-2.0849e-06
-4.52161e-07
-1.97195e-06
-5.50313e-07
-1.84065e-06
-6.37344e-07
-1.69355e-06
-7.10993e-07
-1.53361e-06
-7.69127e-07
-1.36416e-06
-8.09811e-07
-1.18888e-06
-8.3139e-07
-1.01172e-06
-8.32578e-07
-8.36807e-07
-8.12562e-07
-6.68376e-07
-7.71123e-07
-5.1065e-07
-7.08758e-07
-3.67733e-07
-6.26825e-07
-2.43507e-07
-5.27695e-07
-1.41544e-07
-4.14911e-07
-6.50679e-08
-2.93324e-07
-1.69787e-08
-1.69222e-07
-5.09054e-08
-2.06971e-08
7.59163e-08
-7.81152e-08
2.36204e-07
-1.6784e-07
3.94693e-07
-2.85526e-07
5.43635e-07
-4.26795e-07
6.77365e-07
-5.872e-07
7.917e-07
-7.62253e-07
8.8378e-07
-9.47458e-07
9.51898e-07
-1.13838e-06
9.95303e-07
-1.3307e-06
1.01402e-06
-1.52028e-06
1.00867e-06
-1.70321e-06
9.80397e-07
-1.87587e-06
9.30672e-07
-2.03494e-06
8.61263e-07
-2.17744e-06
7.74146e-07
-2.30077e-06
6.71456e-07
-2.4027e-06
5.55451e-07
-2.48138e-06
4.28489e-07
-2.53538e-06
2.93015e-07
-2.5637e-06
1.51553e-07
-2.56573e-06
6.70351e-09
-2.54133e-06
-1.38862e-07
-2.4908e-06
-2.82405e-07
-2.41489e-06
-4.21133e-07
-2.31484e-06
-5.52212e-07
-2.19235e-06
-6.72802e-07
-2.04961e-06
-7.80089e-07
-1.88926e-06
-8.71342e-07
-1.71441e-06
-9.43975e-07
-1.52859e-06
-9.95629e-07
-1.33571e-06
-1.02427e-06
-1.14002e-06
-1.02828e-06
-9.45979e-07
-1.0066e-06
-7.58247e-07
-9.58854e-07
-5.81526e-07
-8.85479e-07
-4.20477e-07
-7.87875e-07
-2.79615e-07
-6.68556e-07
-1.63234e-07
-5.31292e-07
-7.53568e-08
-3.81202e-07
-1.97456e-08
-2.24834e-07
-7.06509e-08
-2.33945e-08
9.93107e-08
-8.81015e-08
3.00911e-07
-1.88826e-07
4.95418e-07
-3.20361e-07
6.7517e-07
-4.77533e-07
8.34536e-07
-6.55196e-07
9.69362e-07
-8.48254e-07
1.07684e-06
-1.0517e-06
1.15535e-06
-1.26067e-06
1.20428e-06
-1.4705e-06
1.22384e-06
-1.67676e-06
1.21493e-06
-1.87532e-06
1.17895e-06
-2.06235e-06
1.1177e-06
-2.23439e-06
1.03331e-06
-2.38836e-06
9.28112e-07
-2.52154e-06
8.04637e-07
-2.63163e-06
6.65538e-07
-2.71672e-06
5.1358e-07
-2.77533e-06
3.51623e-07
-2.80639e-06
1.82615e-07
-2.80927e-06
9.58818e-09
-2.78379e-06
-1.6434e-07
-2.73022e-06
-3.35975e-07
-2.64931e-06
-5.02052e-07
-2.54226e-06
-6.59254e-07
-2.41082e-06
-8.04245e-07
-2.2572e-06
-9.33709e-07
-2.08413e-06
-1.04441e-06
-1.89483e-06
-1.13327e-06
-1.693e-06
-1.19746e-06
-1.48277e-06
-1.2345e-06
-1.26866e-06
-1.24239e-06
-1.05551e-06
-1.21975e-06
-8.48398e-07
-1.16596e-06
-6.52551e-07
-1.08133e-06
-4.73223e-07
-9.67202e-07
-3.15611e-07
-8.26168e-07
-1.84761e-07
-6.62142e-07
-8.55057e-08
-4.80457e-07
-2.24501e-08
-2.87889e-07
-9.3101e-08
-2.60316e-08
1.25342e-07
-9.79044e-08
3.72784e-07
-2.09491e-07
6.07004e-07
-3.54744e-07
8.20424e-07
-5.27703e-07
1.0075e-06
-7.22509e-07
1.16417e-06
-9.33444e-07
1.28777e-06
-1.15497e-06
1.37687e-06
-1.38179e-06
1.4311e-06
-1.60888e-06
1.45093e-06
-1.83152e-06
1.43757e-06
-2.04536e-06
1.39279e-06
-2.24641e-06
1.31875e-06
-2.43108e-06
1.21798e-06
-2.59619e-06
1.09322e-06
-2.73895e-06
9.47402e-07
-2.85701e-06
7.83597e-07
-2.94842e-06
6.04987e-07
-3.01164e-06
4.1485e-07
-3.04559e-06
2.16558e-07
-3.04957e-06
1.35753e-08
-3.02338e-06
-1.90538e-07
-2.96722e-06
-3.92128e-07
-2.88182e-06
-5.87457e-07
-2.76836e-06
-7.72716e-07
-2.62854e-06
-9.44058e-07
-2.46461e-06
-1.09764e-06
-2.27933e-06
-1.2297e-06
-2.076e-06
-1.3366e-06
-1.85846e-06
-1.415e-06
-1.63106e-06
-1.4619e-06
-1.39859e-06
-1.47486e-06
-1.16626e-06
-1.45208e-06
-9.39611e-07
-1.39261e-06
-7.24407e-07
-1.29653e-06
-5.26546e-07
-1.16506e-06
-3.51944e-07
-1.00077e-06
-2.06438e-07
-8.07649e-07
-9.56935e-08
-5.91201e-07
-2.5153e-08
-3.58429e-07
-1.18254e-07
-2.86496e-08
1.53992e-07
-1.07647e-07
4.51781e-07
-2.30047e-07
7.29404e-07
-3.88975e-07
9.79351e-07
-5.77673e-07
1.19619e-06
-7.89559e-07
1.37605e-06
-1.01828e-06
1.51649e-06
-1.25775e-06
1.61634e-06
-1.50222e-06
1.67557e-06
-1.7463e-06
1.69501e-06
-1.98501e-06
1.67629e-06
-2.21378e-06
1.62156e-06
-2.42849e-06
1.53345e-06
-2.62542e-06
1.41492e-06
-2.80134e-06
1.26913e-06
-2.95341e-06
1.09948e-06
-3.07925e-06
9.09436e-07
-3.17688e-06
7.02618e-07
-3.24475e-06
4.8272e-07
-3.28172e-06
2.53531e-07
-3.28709e-06
1.89397e-08
-3.26056e-06
-2.17061e-07
-3.20232e-06
-4.50369e-07
-3.113e-06
-6.76776e-07
-2.99374e-06
-8.91977e-07
-2.8462e-06
-1.09161e-06
-2.67257e-06
-1.27127e-06
-2.47562e-06
-1.42664e-06
-2.25873e-06
-1.55349e-06
-2.02583e-06
-1.6479e-06
-1.78146e-06
-1.70628e-06
-1.53068e-06
-1.72563e-06
-1.27908e-06
-1.70367e-06
-1.03267e-06
-1.63902e-06
-7.97802e-07
-1.5314e-06
-5.81044e-07
-1.38182e-06
-3.89083e-07
-1.19273e-06
-2.28589e-07
-9.68143e-07
-1.06098e-07
-7.13692e-07
-2.79114e-08
-4.36616e-07
-1.46165e-07
-3.12845e-08
1.85276e-07
-1.17441e-07
5.37937e-07
-2.50699e-07
8.62662e-07
-4.23338e-07
1.15199e-06
-6.27792e-07
1.40065e-06
-8.56736e-07
1.605e-06
-1.10315e-06
1.76291e-06
-1.36041e-06
1.8736e-06
-1.6223e-06
1.93745e-06
-1.88307e-06
1.95579e-06
-2.13748e-06
1.93069e-06
-2.38077e-06
1.86484e-06
-2.60867e-06
1.76136e-06
-2.81742e-06
1.62367e-06
-3.00374e-06
1.45545e-06
-3.16478e-06
1.26051e-06
-3.29814e-06
1.0428e-06
-3.40187e-06
8.0634e-07
-3.47438e-06
5.55235e-07
-3.51453e-06
2.93681e-07
-3.52157e-06
2.59741e-08
-3.49515e-06
-2.43479e-07
-3.43537e-06
-5.10144e-07
-3.34279e-06
-7.69353e-07
-3.21846e-06
-1.01632e-06
-3.06392e-06
-1.24614e-06
-2.88133e-06
-1.45387e-06
-2.67341e-06
-1.63456e-06
-2.44353e-06
-1.78338e-06
-2.19571e-06
-1.89571e-06
-1.93465e-06
-1.96734e-06
-1.66567e-06
-1.99461e-06
-1.39473e-06
-1.97461e-06
-1.12833e-06
-1.90542e-06
-8.73419e-07
-1.78631e-06
-6.37305e-07
-1.61794e-06
-4.27489e-07
-1.40255e-06
-2.51531e-07
-1.1441e-06
-1.1689e-07
-8.48333e-07
-3.07785e-08
-5.22727e-07
-1.76944e-07
-3.3968e-08
2.19244e-07
-1.27388e-07
6.31357e-07
-2.71628e-07
1.0069e-06
-4.58094e-07
1.33846e-06
-6.78377e-07
1.62093e-06
-9.24378e-07
1.851e-06
-1.18841e-06
2.02694e-06
-1.46325e-06
2.14845e-06
-1.74225e-06
2.21645e-06
-2.01931e-06
2.23284e-06
-2.28891e-06
2.2003e-06
-2.54614e-06
2.12208e-06
-2.78665e-06
2.00187e-06
-3.00664e-06
1.84365e-06
-3.2028e-06
1.65161e-06
-3.37233e-06
1.43005e-06
-3.51287e-06
1.18334e-06
-3.62247e-06
9.15935e-07
-3.69957e-06
6.3234e-07
-3.74302e-06
3.3713e-07
-3.75202e-06
3.498e-08
-3.72619e-06
-2.69316e-07
-3.66551e-06
-5.70819e-07
-3.57044e-06
-8.64427e-07
-3.44188e-06
-1.14487e-06
-3.28128e-06
-1.40674e-06
-3.09063e-06
-1.64451e-06
-2.8726e-06
-1.85259e-06
-2.6305e-06
-2.02548e-06
-2.36838e-06
-2.15783e-06
-2.09106e-06
-2.24466e-06
-1.80411e-06
-2.28157e-06
-1.51383e-06
-2.26489e-06
-1.22722e-06
-2.19203e-06
-9.51883e-07
-2.06165e-06
-6.95881e-07
-1.87394e-06
-4.67601e-07
-1.63083e-06
-2.75563e-07
-1.33614e-06
-1.2823e-07
-9.95666e-07
-3.38038e-08
-6.17154e-07
-2.10747e-07
-3.67283e-08
2.55972e-07
-1.3758e-07
7.32209e-07
-2.93004e-07
1.16233e-06
-4.93477e-07
1.53893e-06
-7.29702e-07
1.85716e-06
-9.92769e-07
2.11407e-06
-1.27428e-06
2.30845e-06
-1.56644e-06
2.44061e-06
-1.86211e-06
2.51213e-06
-2.15488e-06
2.5256e-06
-2.43899e-06
2.48441e-06
-2.7094e-06
2.39249e-06
-2.96171e-06
2.25418e-06
-3.19212e-06
2.07406e-06
-3.39738e-06
1.85687e-06
-3.57475e-06
1.60742e-06
-3.72193e-06
1.33053e-06
-3.83706e-06
1.03106e-06
-3.91861e-06
7.13888e-07
-3.96542e-06
3.83949e-07
-3.9767e-06
4.62546e-08
-3.95196e-06
-2.94054e-07
-3.89111e-06
-6.31671e-07
-3.79444e-06
-9.61096e-07
-3.6627e-06
-1.27661e-06
-3.49715e-06
-1.5723e-06
-3.29961e-06
-1.84205e-06
-3.07258e-06
-2.07962e-06
-2.81929e-06
-2.27877e-06
-2.54374e-06
-2.43337e-06
-2.25083e-06
-2.53758e-06
-1.94631e-06
-2.58609e-06
-1.63683e-06
-2.57437e-06
-1.32989e-06
-2.49897e-06
-1.03374e-06
-2.35779e-06
-7.57276e-07
-2.1504e-06
-5.09828e-07
-1.87827e-06
-3.00972e-07
-1.54499e-06
-1.40273e-07
-1.15637e-06
-3.70342e-08
-7.20392e-07
-2.47782e-07
-3.95919e-08
2.95564e-07
-1.48103e-07
8.4072e-07
-3.14983e-07
1.32921e-06
-5.29702e-07
1.75365e-06
-7.82008e-07
2.10946e-06
-1.06213e-06
2.39419e-06
-1.36092e-06
2.60724e-06
-1.66999e-06
2.74967e-06
-1.98174e-06
2.82388e-06
-2.28942e-06
2.83329e-06
-2.5871e-06
2.78209e-06
-2.86965e-06
2.67504e-06
-3.13266e-06
2.51719e-06
-3.3724e-06
2.3138e-06
-3.58573e-06
2.0702e-06
-3.77002e-06
1.79171e-06
-3.92312e-06
1.48363e-06
-4.04325e-06
1.15118e-06
-4.12896e-06
7.99603e-07
-4.17914e-06
4.34132e-07
-4.19296e-06
6.00747e-08
-4.16988e-06
-3.17134e-07
-4.10968e-06
-6.91876e-07
-4.01247e-06
-1.0583e-06
-3.8788e-06
-1.41028e-06
-3.70969e-06
-1.74142e-06
-3.50672e-06
-2.04502e-06
-3.27215e-06
-2.31419e-06
-3.00903e-06
-2.5419e-06
-2.72126e-06
-2.72114e-06
-2.41372e-06
-2.84512e-06
-2.09231e-06
-2.9075e-06
-1.76398e-06
-2.9027e-06
-1.43671e-06
-2.82624e-06
-1.11945e-06
-2.67506e-06
-8.21934e-07
-2.44792e-06
-5.54549e-07
-2.14566e-06
-3.28025e-07
-1.77152e-06
-1.53164e-07
-1.33123e-06
-4.05149e-08
-8.33041e-07
-2.88296e-07
-4.25855e-08
3.38149e-07
-1.59044e-07
9.57178e-07
-3.37719e-07
1.50788e-06
-5.66973e-07
1.9829e-06
-8.35511e-07
2.378e-06
-1.13263e-06
2.6913e-06
-1.4484e-06
2.92301e-06
-1.77379e-06
3.07507e-06
-2.10077e-06
3.15086e-06
-2.42229e-06
3.15481e-06
-2.73228e-06
3.09208e-06
-3.02556e-06
2.96832e-06
-3.29781e-06
2.78944e-06
-3.54543e-06
2.56142e-06
-3.76545e-06
2.29022e-06
-3.95545e-06
1.98171e-06
-4.11344e-06
1.64162e-06
-4.23781e-06
1.27555e-06
-4.32724e-06
8.89032e-07
-4.38067e-06
4.87562e-07
-4.39727e-06
7.66757e-08
-4.37643e-06
-3.37968e-07
-4.3178e-06
-7.50507e-07
-4.2213e-06
-1.1548e-06
-4.0872e-06
-1.54438e-06
-3.91622e-06
-1.91239e-06
-3.70964e-06
-2.2516e-06
-3.46939e-06
-2.55444e-06
-3.19823e-06
-2.81306e-06
-2.89987e-06
-3.0195e-06
-2.57908e-06
-3.16591e-06
-2.24182e-06
-3.24475e-06
-1.89528e-06
-3.24923e-06
-1.54792e-06
-3.1736e-06
-1.20934e-06
-3.01363e-06
-8.90243e-07
-2.76702e-06
-6.02112e-07
-2.43379e-06
-3.5698e-07
-2.01665e-06
-1.67048e-07
-1.52116e-06
-4.42909e-08
-9.55798e-07
-3.32587e-07
-4.57381e-08
3.83888e-07
-1.70496e-07
1.08194e-06
-3.61374e-07
1.69876e-06
-6.05498e-07
2.22702e-06
-8.90413e-07
2.66292e-06
-1.2044e-06
3.00529e-06
-1.53668e-06
3.25529e-06
-1.87759e-06
3.41598e-06
-2.21866e-06
3.49193e-06
-2.55257e-06
3.48872e-06
-2.87318e-06
3.41268e-06
-3.17535e-06
3.2705e-06
-3.45493e-06
3.06901e-06
-3.70852e-06
2.81501e-06
-3.93343e-06
2.51513e-06
-4.12751e-06
2.17579e-06
-4.28903e-06
1.80314e-06
-4.4166e-06
1.40312e-06
-4.50907e-06
9.81505e-07
-4.56548e-06
5.43978e-07
-4.58504e-06
9.62267e-08
-4.56705e-06
-3.55949e-07
-4.51103e-06
-8.06529e-07
-4.41666e-06
-1.24917e-06
-4.28391e-06
-1.67713e-06
-4.11313e-06
-2.08317e-06
-3.90518e-06
-2.45955e-06
-3.66159e-06
-2.79803e-06
-3.3847e-06
-3.08994e-06
-3.0779e-06
-3.3263e-06
-2.74575e-06
-3.49806e-06
-2.39415e-06
-3.59635e-06
-2.03046e-06
-3.61293e-06
-1.66352e-06
-3.54054e-06
-1.30366e-06
-3.37349e-06
-9.62523e-07
-3.10816e-06
-6.5284e-07
-2.74347e-06
-3.88091e-07
-2.2814e-06
-1.82071e-07
-1.72718e-06
-4.84088e-08
-1.08946e-06
-3.80996e-07
-4.9084e-08
4.32971e-07
-1.82568e-07
1.21542e-06
-3.86137e-07
1.90233e-06
-6.45507e-07
2.48639e-06
-9.46922e-07
2.96433e-06
-1.27753e-06
3.33589e-06
-1.62566e-06
3.60341e-06
-1.98098e-06
3.77131e-06
-2.33459e-06
3.84554e-06
-2.679e-06
3.83313e-06
-3.00803e-06
3.74171e-06
-3.31672e-06
3.57919e-06
-3.60115e-06
3.35343e-06
-3.85827e-06
3.07213e-06
-4.08576e-06
2.74262e-06
-4.28183e-06
2.37186e-06
-4.4451e-06
1.96641e-06
-4.57448e-06
1.5325e-06
-4.66905e-06
1.07608e-06
-4.728e-06
6.02928e-07
-4.75058e-06
1.188e-07
-4.73606e-06
-3.70469e-07
-4.68378e-06
-8.58808e-07
-4.59317e-06
-1.33978e-06
-4.46386e-06
-1.80645e-06
-4.29573e-06
-2.25129e-06
-4.08916e-06
-2.66613e-06
-3.84511e-06
-3.04208e-06
-3.56542e-06
-3.36963e-06
-3.25298e-06
-3.63874e-06
-2.91199e-06
-3.83905e-06
-2.54815e-06
-3.96019e-06
-2.16887e-06
-3.99221e-06
-1.78332e-06
-3.92609e-06
-1.40248e-06
-3.75432e-06
-1.03903e-06
-3.47161e-06
-7.07035e-07
-3.07547e-06
-4.2161e-07
-2.56682e-06
-1.98385e-07
-1.9504e-06
-5.29186e-08
-1.23493e-06
-4.33914e-07
-5.2666e-08
4.85637e-07
-1.95395e-07
1.35815e-06
-4.12235e-07
2.11917e-06
-6.87276e-07
2.76143e-06
-1.00527e-06
3.28233e-06
-1.35212e-06
3.68274e-06
-1.71516e-06
3.96645e-06
-2.08339e-06
4.13954e-06
-2.44753e-06
4.20968e-06
-2.79995e-06
4.18555e-06
-3.1346e-06
4.07636e-06
-3.44677e-06
3.89135e-06
-3.73293e-06
3.6396e-06
-3.99051e-06
3.32971e-06
-4.21765e-06
2.96977e-06
-4.41308e-06
2.56728e-06
-4.57584e-06
2.12918e-06
-4.70524e-06
1.66189e-06
-4.80064e-06
1.17148e-06
-4.86145e-06
6.63732e-07
-4.88698e-06
1.44336e-07
-4.8765e-06
-3.80947e-07
-4.82919e-06
-9.06122e-07
-4.74419e-06
-1.42478e-06
-4.62071e-06
-1.92993e-06
-4.45814e-06
-2.41387e-06
-4.25622e-06
-2.86805e-06
-4.01527e-06
-3.28303e-06
-3.73642e-06
-3.64848e-06
-3.4219e-06
-3.95326e-06
-3.07536e-06
-4.18559e-06
-2.70213e-06
-4.33342e-06
-2.30948e-06
-4.38486e-06
-1.90683e-06
-4.32875e-06
-1.50575e-06
-4.1554e-06
-1.11995e-06
-3.85741e-06
-7.64986e-07
-3.43043e-06
-4.57803e-07
-2.87401e-06
-2.16156e-07
-2.19205e-06
-5.78766e-08
-1.39321e-06
-4.91791e-07
-5.65408e-08
5.42178e-07
-2.09153e-07
1.51076e-06
-4.39961e-07
2.34998e-06
-7.31149e-07
3.05262e-06
-1.06576e-06
3.61694e-06
-1.42825e-06
4.04523e-06
-1.80491e-06
4.34312e-06
-2.18407e-06
4.51869e-06
-2.5561e-06
4.58171e-06
-2.91337e-06
4.54283e-06
-3.25007e-06
4.41305e-06
-3.56191e-06
4.2032e-06
-3.84592e-06
3.92361e-06
-4.10014e-06
3.58392e-06
-4.32334e-06
3.19298e-06
-4.51486e-06
2.7588e-06
-4.67431e-06
2.28862e-06
-4.80145e-06
1.78904e-06
-4.89605e-06
1.26608e-06
-4.95775e-06
7.25434e-07
-4.98603e-06
1.7261e-07
-4.98012e-06
-3.86855e-07
-4.93906e-06
-9.47184e-07
-4.86169e-06
-1.50214e-06
-4.74678e-06
-2.04484e-06
-4.59312e-06
-2.56752e-06
-4.39974e-06
-3.06142e-06
-4.16614e-06
-3.51663e-06
-3.89259e-06
-3.92204e-06
-3.58045e-06
-4.2654e-06
-3.23258e-06
-4.53345e-06
-2.85372e-06
-4.71229e-06
-2.45079e-06
-4.78779e-06
-2.03325e-06
-4.74628e-06
-1.61321e-06
-4.57545e-06
-1.2054e-06
-4.26521e-06
-8.26974e-07
-3.80886e-06
-4.96957e-07
-3.20402e-06
-2.35577e-07
-2.45343e-06
-6.33489e-08
-1.56543e-06
-5.5514e-07
-6.07844e-08
6.02963e-07
-2.24075e-07
1.67405e-06
-4.697e-07
2.5956e-06
-7.77576e-07
3.3605e-06
-1.12873e-06
3.96809e-06
-1.50601e-06
4.42251e-06
-1.89456e-06
4.73167e-06
-2.28203e-06
4.90616e-06
-2.65857e-06
4.95825e-06
-3.01669e-06
4.90095e-06
-3.35098e-06
4.74734e-06
-3.65778e-06
4.51e-06
-3.93487e-06
4.20069e-06
-4.18106e-06
3.83011e-06
-4.39595e-06
3.40787e-06
-4.5796e-06
2.94245e-06
-4.73232e-06
2.44134e-06
-4.85443e-06
1.91115e-06
-4.94617e-06
1.35781e-06
-5.0075e-06
7.86766e-07
-5.03808e-06
2.03188e-07
-5.03718e-06
-3.87755e-07
-5.00369e-06
-9.80669e-07
-4.93617e-06
-1.56967e-06
-4.83287e-06
-2.14813e-06
-4.69196e-06
-2.70844e-06
-4.51163e-06
-3.24175e-06
-4.29042e-06
-3.73784e-06
-4.02754e-06
-4.18492e-06
-3.72326e-06
-4.56967e-06
-3.37939e-06
-4.87733e-06
-2.99975e-06
-5.09193e-06
-2.59067e-06
-5.19687e-06
-2.1614e-06
-5.17556e-06
-1.72439e-06
-5.01245e-06
-1.29541e-06
-4.69419e-06
-8.93284e-07
-4.21099e-06
-5.39402e-07
-3.55791e-06
-2.56872e-07
-2.73596e-06
-6.94161e-08
-1.75289e-06
-6.24556e-07
-6.5501e-08
6.68464e-07
-2.40478e-07
1.84903e-06
-5.01967e-07
2.85709e-06
-8.27143e-07
3.68567e-06
-1.19465e-06
4.3356e-06
-1.58551e-06
4.81337e-06
-1.98362e-06
5.12978e-06
-2.37601e-06
5.29855e-06
-2.75274e-06
5.33498e-06
-3.10667e-06
5.25488e-06
-3.43303e-06
5.0737e-06
-3.72903e-06
4.80601e-06
-3.99341e-06
4.46507e-06
-4.226e-06
4.0627e-06
-4.42735e-06
3.60922e-06
-4.59843e-06
3.11353e-06
-4.74033e-06
2.58325e-06
-4.85409e-06
2.02491e-06
-4.94045e-06
1.44418e-06
-4.99979e-06
8.46108e-07
-5.032e-06
2.35396e-07
-5.03642e-06
-3.83337e-07
-5.01183e-06
-1.00526e-06
-4.95648e-06
-1.62502e-06
-4.86815e-06
-2.23647e-06
-4.74426e-06
-2.83232e-06
-4.58213e-06
-3.40389e-06
-4.37919e-06
-3.94078e-06
-4.13337e-06
-4.43073e-06
-3.8436e-06
-4.85944e-06
-3.51031e-06
-5.21061e-06
-3.13608e-06
-5.46617e-06
-2.72625e-06
-5.6067e-06
-2.28955e-06
-5.61226e-06
-1.83856e-06
-5.46344e-06
-1.38991e-06
-5.14284e-06
-9.64216e-07
-4.63668e-06
-5.85525e-07
-3.9366e-06
-2.80322e-07
-3.04116e-06
-7.61804e-08
-1.95703e-06
-7.00736e-07
-7.08343e-08
7.39298e-07
-2.58792e-07
2.03698e-06
-5.37448e-07
3.13575e-06
-8.80619e-07
4.02885e-06
-1.26411e-06
4.71909e-06
-1.66682e-06
5.21608e-06
-2.07139e-06
5.53435e-06
-2.4643e-06
5.69146e-06
-2.83576e-06
5.70644e-06
-3.17922e-06
5.59834e-06
-3.49089e-06
5.38538e-06
-3.76914e-06
5.08426e-06
-4.01392e-06
4.70985e-06
-4.22629e-06
4.27507e-06
-4.40797e-06
3.7909e-06
-4.56099e-06
3.26654e-06
-4.68735e-06
2.70961e-06
-4.78885e-06
2.12641e-06
-4.86687e-06
1.5222e-06
-4.92223e-06
9.01472e-07
-4.95512e-06
2.68284e-07
-4.965e-06
-3.73462e-07
-4.95057e-06
-1.01968e-06
-4.90981e-06
-1.66578e-06
-4.84001e-06
-2.30627e-06
-4.73786e-06
-2.93447e-06
-4.5997e-06
-3.54206e-06
-4.42171e-06
-4.11877e-06
-4.20041e-06
-4.65204e-06
-3.93306e-06
-5.12679e-06
-3.6184e-06
-5.52528e-06
-3.25731e-06
-5.82725e-06
-2.85372e-06
-6.01029e-06
-2.41537e-06
-6.0506e-06
-1.95458e-06
-5.92424e-06
-1.48868e-06
-5.60874e-06
-1.04009e-06
-5.08527e-06
-6.35805e-07
-4.34089e-06
-3.06288e-07
-3.37068e-06
-8.37752e-08
-2.17954e-06
-7.84512e-07
-7.69837e-08
8.16282e-07
-2.79602e-07
2.2396e-06
-5.77059e-07
3.4332e-06
-9.38989e-07
4.39078e-06
-1.33778e-06
5.11788e-06
-1.74995e-06
5.62826e-06
-2.15684e-06
5.94123e-06
-2.54459e-06
6.07922e-06
-2.90387e-06
6.06571e-06
-3.22912e-06
5.92359e-06
-3.5179e-06
5.67416e-06
-3.77008e-06
5.33643e-06
-3.98715e-06
4.92692e-06
-4.17164e-06
4.45957e-06
-4.32663e-06
3.94589e-06
-4.45532e-06
3.39523e-06
-4.56075e-06
2.81504e-06
-4.64557e-06
2.21122e-06
-4.71182e-06
1.58845e-06
-4.76086e-06
9.50507e-07
-4.79319e-06
3.00618e-07
-4.80845e-06
-3.582e-07
-4.80534e-06
-1.0228e-06
-4.78159e-06
-1.68953e-06
-4.73403e-06
-2.35383e-06
-4.65864e-06
-3.00985e-06
-4.55074e-06
-3.64995e-06
-4.40522e-06
-4.26428e-06
-4.21695e-06
-4.84031e-06
-3.98131e-06
-5.36243e-06
-3.69492e-06
-5.81167e-06
-3.35652e-06
-6.16565e-06
-2.96803e-06
-6.39878e-06
-2.53564e-06
-6.483e-06
-2.07086e-06
-6.38902e-06
-1.59135e-06
-6.08825e-06
-1.12127e-06
-5.55536e-06
-6.90846e-07
-4.7713e-06
-3.3524e-07
-3.72629e-06
-9.238e-08
-2.4224e-06
-8.76892e-07
-8.42283e-08
9.0051e-07
-3.0371e-07
2.45909e-06
-6.22012e-07
3.75151e-06
-1.0035e-06
4.77226e-06
-1.41644e-06
5.53082e-06
-1.83469e-06
6.04651e-06
-2.23836e-06
6.3449e-06
-2.61363e-06
6.45448e-06
-2.95204e-06
6.40412e-06
-3.24958e-06
6.22113e-06
-3.50562e-06
5.9302e-06
-3.72196e-06
5.55277e-06
-3.90195e-06
5.10692e-06
-4.04985e-06
4.60747e-06
-4.17025e-06
4.06629e-06
-4.26766e-06
3.49264e-06
-4.34621e-06
2.8936e-06
-4.40945e-06
2.27446e-06
-4.46014e-06
1.63914e-06
-4.50016e-06
9.90528e-07
-4.53041e-06
3.30874e-07
-4.55075e-06
-3.37864e-07
-4.5599e-06
-1.01365e-06
-4.55546e-06
-1.69397e-06
-4.53387e-06
-2.37543e-06
-4.49045e-06
-3.05328e-06
-4.41952e-06
-3.72088e-06
-4.31465e-06
-4.36916e-06
-4.16894e-06
-4.98602e-06
-3.97565e-06
-5.55572e-06
-3.72892e-06
-6.0584e-06
-3.42481e-06
-6.46977e-06
-3.06253e-06
-6.76105e-06
-2.64596e-06
-6.89957e-06
-2.18506e-06
-6.84991e-06
-1.69724e-06
-6.57607e-06
-1.20811e-06
-6.04449e-06
-7.51422e-07
-5.22799e-06
-3.67816e-07
-4.10989e-06
-1.02242e-07
-2.68798e-06
-9.79134e-07
-9.29624e-08
9.93473e-07
-3.32213e-07
2.69834e-06
-6.73901e-07
4.0932e-06
-1.07567e-06
5.17404e-06
-1.50084e-06
5.95598e-06
-1.92037e-06
6.46605e-06
-2.31342e-06
6.73794e-06
-2.66671e-06
6.80777e-06
-2.9734e-06
6.71081e-06
-3.23167e-06
6.4794e-06
-3.4433e-06
6.14183e-06
-3.61248e-06
5.72194e-06
-3.74478e-06
5.23922e-06
-3.8464e-06
4.70909e-06
-3.92359e-06
4.14347e-06
-3.98222e-06
3.55127e-06
-4.02755e-06
2.93893e-06
-4.06401e-06
2.31092e-06
-4.09506e-06
1.67019e-06
-4.12314e-06
1.0186e-06
-4.14954e-06
3.57274e-07
-4.17437e-06
-3.1303e-07
-4.19649e-06
-9.91528e-07
-4.21343e-06
-1.67703e-06
-4.22135e-06
-2.3675e-06
-4.21505e-06
-3.05958e-06
-4.18798e-06
-3.74795e-06
-4.13239e-06
-4.42475e-06
-4.03963e-06
-5.07878e-06
-3.90064e-06
-5.6947e-06
-3.70675e-06
-6.2523e-06
-3.45074e-06
-6.72577e-06
-3.1284e-06
-7.08339e-06
-2.74029e-06
-7.28768e-06
-2.29381e-06
-7.29639e-06
-1.80519e-06
-7.06469e-06
-1.30098e-06
-6.5487e-06
-8.18536e-07
-5.71044e-06
-4.04887e-07
-4.52354e-06
-1.13712e-07
-2.97915e-06
-1.09285e-06
-1.0375e-07
1.09722e-06
-3.66618e-07
2.9612e-06
-7.34796e-07
4.46137e-06
-1.15729e-06
5.59653e-06
-1.59149e-06
6.39019e-06
-2.00544e-06
6.88e-06
-2.37788e-06
7.11038e-06
-2.69697e-06
7.12687e-06
-2.95844e-06
6.97228e-06
-3.16351e-06
6.68447e-06
-3.3171e-06
6.29542e-06
-3.42628e-06
5.83113e-06
-3.49917e-06
5.31211e-06
-3.54407e-06
4.754e-06
-3.56896e-06
4.16835e-06
-3.58106e-06
3.56337e-06
-3.58668e-06
2.94455e-06
-3.59108e-06
2.31532e-06
-3.59836e-06
1.67747e-06
-3.61145e-06
1.03169e-06
-3.63204e-06
3.77859e-07
-3.66052e-06
-2.84544e-07
-3.69596e-06
-9.56094e-07
-3.73594e-06
-1.63705e-06
-3.77653e-06
-2.32691e-06
-3.81219e-06
-3.02392e-06
-3.83567e-06
-3.72447e-06
-3.83812e-06
-4.4223e-06
-3.80921e-06
-5.10769e-06
-3.73754e-06
-5.76637e-06
-3.61135e-06
-6.37849e-06
-3.41965e-06
-6.91747e-06
-3.15392e-06
-7.34912e-06
-2.81028e-06
-7.63132e-06
-2.39217e-06
-7.71449e-06
-1.9133e-06
-7.54356e-06
-1.40015e-06
-7.06185e-06
-8.93475e-07
-6.21712e-06
-4.47664e-07
-4.96935e-06
-1.27295e-07
-3.29952e-06
-1.22014e-06
-1.17417e-07
1.21464e-06
-4.09013e-07
3.2528e-06
-8.07345e-07
4.85971e-06
-1.25025e-06
6.03943e-06
-1.68824e-06
6.82818e-06
-2.08671e-06
7.27846e-06
-2.42504e-06
7.44871e-06
-2.69421e-06
7.39603e-06
-2.89379e-06
7.17186e-06
-3.02915e-06
6.81983e-06
-3.10909e-06
6.37536e-06
-3.1441e-06
5.86613e-06
-3.14505e-06
5.31306e-06
-3.12244e-06
4.73139e-06
-3.0859e-06
4.13181e-06
-3.04387e-06
3.52135e-06
-3.00358e-06
2.90426e-06
-2.97092e-06
2.28265e-06
-2.9505e-06
1.65705e-06
-2.94564e-06
1.02684e-06
-2.95839e-06
3.90605e-07
-2.98944e-06
-2.5349e-07
-3.03812e-06
-9.07416e-07
-3.10224e-06
-1.57293e-06
-3.17797e-06
-2.25117e-06
-3.25969e-06
-2.9422e-06
-3.33981e-06
-3.64435e-06
-3.40866e-06
-4.35345e-06
-3.45451e-06