/*--------------------------------*- C++ -*----------------------------------*\
  =========                 |
  \\      /  F ield         | OpenFOAM: The Open Source CFD Toolbox
   \\    /   O peration     | Website:  https://openfoam.org
    \\  /    A nd           | Version:  9
     \\/     M anipulation  |
\*---------------------------------------------------------------------------*/
FoamFile
{
    format      ascii;
    class       volScalarField;
    location    "6.13";
    object      p;
}
// * * * * * * * * * * * * * * * * * * * * * * * * * * * * * * * * * * * * * //

dimensions      [1 -1 -2 0 0 0 0];

internalField   nonuniform List<scalar> 
2268
(
728.578
728.615
728.773
729.066
729.489
730.032
730.684
731.428
732.246
733.118
734.019
734.924
735.799
736.606
737.298
737.833
738.222
738.515
738.922
739.249
739.623
740.028
740.142
669.714
669.761
669.923
670.221
670.647
671.191
671.84
672.578
673.39
674.252
675.143
676.033
676.888
677.67
678.342
678.877
679.33
679.764
680.283
680.648
680.854
681.111
681.251
610.826
610.881
611.048
611.354
611.786
612.333
612.983
613.72
614.528
615.386
616.27
617.15
617.994
618.765
619.434
619.986
620.485
620.949
621.519
621.908
622.011
622.201
622.365
551.91
551.965
552.138
552.452
552.891
553.446
554.101
554.844
555.655
556.516
557.401
558.282
559.128
559.907
560.595
561.188
561.741
562.124
562.63
563.012
563.112
563.345
563.525
492.964
493.015
493.19
493.512
493.962
494.527
495.193
495.947
496.77
497.64
498.535
499.427
500.289
501.092
501.82
502.478
503.163
503.828
504.157
504.392
504.551
504.582
504.732
433.986
434.03
434.207
434.538
434.999
435.577
436.259
437.029
437.871
438.759
439.67
440.581
441.47
442.31
443.092
443.829
444.671
445.876
446.211
446.354
446.482
445.915
445.983
374.974
375.011
375.191
375.531
376.006
376.601
377.301
378.094
378.96
379.872
380.805
381.741
382.665
383.551
384.391
385.206
386.149
387.587
388.258
388.427
388.186
387.328
387.276
315.926
315.963
316.149
316.499
316.989
317.603
318.326
319.146
320.043
320.983
321.941
322.908
323.872
324.808
325.705
326.579
327.564
328.962
330.006
330.192
329.622
328.816
328.606
734.967
735.43
735.372
734.809
733.917
732.825
731.595
730.253
728.77
727.169
725.752
724.92
724.306
723.093
723.281
723.291
723.02
723.031
722.972
676.581
676.59
676.444
675.903
675.079
674.068
672.863
671.498
669.971
668.395
667.108
666.311
665.879
664.645
664.291
664.304
664.17
664.224
664.26
618.197
617.894
617.565
616.98
616.157
615.148
613.96
612.597
611.069
609.548
608.329
607.645
607.221
605.95
605.517
605.488
605.38
605.494
605.609
559.604
559.265
558.794
558.138
557.291
556.27
555.085
553.754
552.306
550.793
549.444
548.881
548.322
547.627
546.915
546.82
546.594
546.814
547.051
500.818
500.558
500.06
499.351
498.473
497.437
496.286
495.013
493.659
492.312
490.89
490.17
489.797
490.069
488.518
488.265
487.886
488.247
488.507
442.029
441.81
441.341
440.602
439.692
438.634
437.503
436.305
435.098
434.21
433.484
432.483
432.299
432.584
430.262
429.809
429.498
429.737
429.931
383.266
383.094
382.654
381.888
380.942
379.846
378.721
377.604
376.579
376.138
376.522
375.576
375.165
374.627
371.953
371.353
371.237
371.1
371.239
324.573
324.57
324.042
323.223
322.223
321.059
319.921
318.894
318.065
317.876
318.887
318.483
317.905
316.045
313.532
312.814
312.904
312.305
312.391
223.582
223.607
223.795
224.156
224.67
225.315
226.079
226.952
227.911
228.907
229.912
230.928
231.967
232.994
233.973
234.906
235.895
237.032
237.952
238.22
237.829
237.347
236.872
99.4912
99.5077
99.7243
100.05
100.443
100.974
101.66
102.48
103.403
104.402
105.449
106.52
107.594
108.634
109.66
110.689
111.719
112.724
113.486
113.771
113.596
113.211
112.69
18.8862
18.8668
18.9287
19.0777
19.3071
19.6006
19.9466
20.3187
20.7262
21.2027
21.743
22.2963
22.7903
23.2682
23.7846
24.3706
24.9668
25.5131
25.8866
26.0219
25.9124
25.6786
25.3917
-0.536622
-0.550517
-0.609503
-0.581278
-0.418495
-0.297679
-0.22975
-0.191681
-0.189133
-0.196184
-0.205853
-0.220454
-0.263899
-0.280407
-0.308051
-0.356309
-0.413413
-0.509639
-0.6395
-0.639725
-0.624189
-0.614168
-0.620926
-0.841538
-0.844654
-0.854208
-0.846274
-0.820408
-0.794659
-0.7752
-0.752099
-0.738644
-0.727876
-0.719564
-0.712358
-0.706746
-0.714902
-0.728301
-0.745271
-0.760089
-0.782125
-0.80924
-0.818872
-0.820751
-0.821449
-0.825533
-1.0971
-1.09905
-1.08979
-1.08972
-1.11463
-1.12897
-1.13535
-1.1394
-1.13954
-1.13623
-1.13267
-1.13078
-1.13063
-1.13082
-1.13076
-1.12734
-1.11978
-1.10602
-1.08875
-1.08995
-1.0817
-1.07333
-1.07289
-1.27091
-1.27135
-1.26865
-1.26972
-1.27222
-1.27209
-1.27477
-1.27781
-1.27921
-1.28181
-1.2835
-1.28488
-1.28523
-1.28409
-1.28084
-1.27525
-1.27096
-1.27268
-1.27134
-1.26755
-1.26386
-1.26773
-1.26692
-1.39982
-1.39919
-1.39999
-1.40162
-1.4009
-1.40088
-1.40188
-1.40364
-1.40514
-1.40685
-1.40824
-1.4093
-1.40977
-1.40943
-1.40813
-1.40653
-1.40688
-1.40806
-1.40729
-1.40643
-1.41083
-1.41293
-1.4108
-1.5261
-1.52595
-1.52637
-1.52724
-1.52731
-1.52755
-1.52838
-1.52957
-1.53075
-1.53206
-1.53324
-1.53425
-1.53495
-1.53533
-1.53584
-1.5374
-1.53887
-1.53867
-1.53817
-1.53886
-1.54096
-1.53992
-1.53943
-1.65239
-1.65237
-1.6527
-1.65323
-1.65348
-1.65385
-1.65456
-1.65544
-1.65638
-1.65745
-1.65854
-1.65953
-1.66032
-1.66102
-1.66216
-1.6643
-1.66545
-1.66552
-1.66585
-1.66633
-1.66617
-1.66538
-1.66505
-1.77855
-1.77859
-1.77884
-1.77922
-1.77952
-1.77992
-1.7805
-1.7812
-1.782
-1.78294
-1.78395
-1.78486
-1.7856
-1.78635
-1.78736
-1.78866
-1.78955
-1.78994
-1.79043
-1.7907
-1.79057
-1.7902
-1.78997
-1.90457
-1.90464
-1.90485
-1.90514
-1.90545
-1.90584
-1.90634
-1.90693
-1.90765
-1.90848
-1.90936
-1.91011
-1.9108
-1.91153
-1.91237
-1.91331
-1.91403
-1.91443
-1.91481
-1.91503
-1.91506
-1.91495
-1.91481
-2.03042
-2.03059
-2.03075
-2.031
-2.03129
-2.03165
-2.03211
-2.03266
-2.03331
-2.03401
-2.03469
-2.03534
-2.03599
-2.03666
-2.03738
-2.03814
-2.0388
-2.03933
-2.03969
-2.03986
-2.03988
-2.03979
-2.03969
-2.15622
-2.1564
-2.15655
-2.15677
-2.15704
-2.15738
-2.15781
-2.15834
-2.15889
-2.15946
-2.16001
-2.16058
-2.16117
-2.16177
-2.1624
-2.16304
-2.16367
-2.16427
-2.16466
-2.16483
-2.16481
-2.16466
-2.16457
-2.28198
-2.28212
-2.28227
-2.28247
-2.28272
-2.28303
-2.28341
-2.28388
-2.28435
-2.28482
-2.28531
-2.28582
-2.28634
-2.28687
-2.28741
-2.28796
-2.2885
-2.28902
-2.28943
-2.28961
-2.28956
-2.28948
-2.28942
-2.40766
-2.40779
-2.40793
-2.40811
-2.40834
-2.40861
-2.40895
-2.40933
-2.40974
-2.41016
-2.41059
-2.41104
-2.4115
-2.41197
-2.41244
-2.4129
-2.41335
-2.41375
-2.41407
-2.41425
-2.4143
-2.41429
-2.41426
-2.53329
-2.5334
-2.53354
-2.5337
-2.53391
-2.53415
-2.53444
-2.53476
-2.53511
-2.53548
-2.53586
-2.53626
-2.53666
-2.53707
-2.53747
-2.53787
-2.53824
-2.53857
-2.53883
-2.53901
-2.53909
-2.53912
-2.53912
-2.65886
-2.65897
-2.6591
-2.65925
-2.65943
-2.65964
-2.65989
-2.66017
-2.66047
-2.66079
-2.66113
-2.66147
-2.66182
-2.66218
-2.66252
-2.66286
-2.66317
-2.66345
-2.66368
-2.66384
-2.66393
-2.66398
-2.66399
-2.78439
-2.7845
-2.78462
-2.78476
-2.78491
-2.7851
-2.78531
-2.78555
-2.78581
-2.78609
-2.78638
-2.78668
-2.78699
-2.78729
-2.78759
-2.78788
-2.78815
-2.78838
-2.78858
-2.78872
-2.78882
-2.78888
-2.7889
-2.90988
-2.90998
-2.9101
-2.91022
-2.91036
-2.91052
-2.91071
-2.91091
-2.91114
-2.91138
-2.91163
-2.91189
-2.91216
-2.91242
-2.91268
-2.91293
-2.91316
-2.91336
-2.91353
-2.91366
-2.91376
-2.91381
-2.91384
-3.03533
-3.03544
-3.03555
-3.03566
-3.03578
-3.03592
-3.03608
-3.03626
-3.03645
-3.03666
-3.03688
-3.0371
-3.03733
-3.03756
-3.03779
-3.038
-3.0382
-3.03837
-3.03852
-3.03864
-3.03873
-3.03878
-3.03881
-3.16077
-3.16087
-3.16097
-3.16106
-3.16117
-3.16129
-3.16143
-3.16158
-3.16175
-3.16193
-3.16212
-3.16231
-3.16251
-3.16271
-3.1629
-3.16309
-3.16326
-3.16341
-3.16354
-3.16365
-3.16373
-3.16378
-3.16381
-3.28618
-3.28627
-3.28636
-3.28644
-3.28653
-3.28663
-3.28675
-3.28688
-3.28703
-3.28718
-3.28735
-3.28752
-3.28769
-3.28786
-3.28803
-3.28819
-3.28834
-3.28847
-3.28859
-3.28868
-3.28876
-3.28881
-3.28884
-3.41155
-3.41164
-3.41172
-3.41179
-3.41187
-3.41196
-3.41206
-3.41217
-3.4123
-3.41243
-3.41258
-3.41272
-3.41287
-3.41302
-3.41317
-3.4133
-3.41343
-3.41355
-3.41365
-3.41374
-3.41381
-3.41385
-3.41389
-3.5369
-3.53698
-3.53705
-3.53711
-3.53718
-3.53726
-3.53735
-3.53745
-3.53756
-3.53767
-3.5378
-3.53793
-3.53806
-3.53818
-3.53831
-3.53843
-3.53854
-3.53865
-3.53874
-3.53881
-3.53887
-3.53892
-3.53895
-3.66223
-3.6623
-3.66236
-3.66242
-3.66248
-3.66254
-3.66262
-3.66271
-3.6628
-3.66291
-3.66301
-3.66312
-3.66324
-3.66335
-3.66346
-3.66356
-3.66366
-3.66375
-3.66383
-3.6639
-3.66396
-3.664
-3.66403
-3.78754
-3.7876
-3.78765
-3.7877
-3.78775
-3.78781
-3.78788
-3.78796
-3.78804
-3.78813
-3.78822
-3.78832
-3.78842
-3.78852
-3.78861
-3.78871
-3.78879
-3.78887
-3.78894
-3.789
-3.78906
-3.7891
-3.78913
-3.91285
-3.9129
-3.91293
-3.91297
-3.91301
-3.91307
-3.91313
-3.9132
-3.91327
-3.91335
-3.91343
-3.91352
-3.9136
-3.91369
-3.91377
-3.91385
-3.91393
-3.914
-3.91406
-3.91412
-3.91417
-3.91421
-3.91424
-4.03815
-4.03818
-4.0382
-4.03822
-4.03826
-4.03831
-4.03837
-4.03843
-4.03849
-4.03856
-4.03863
-4.03871
-4.03878
-4.03886
-4.03893
-4.039
-4.03907
-4.03913
-4.03919
-4.03924
-4.03928
-4.03932
-4.03935
-4.16344
-4.16345
-4.16345
-4.16346
-4.1635
-4.16354
-4.16359
-4.16365
-4.16371
-4.16377
-4.16383
-4.1639
-4.16396
-4.16403
-4.16409
-4.16416
-4.16421
-4.16427
-4.16432
-4.16437
-4.16441
-4.16445
-4.16448
-4.28872
-4.28872
-4.28869
-4.28869
-4.28872
-4.28877
-4.28882
-4.28887
-4.28892
-4.28898
-4.28903
-4.28909
-4.28915
-4.2892
-4.28926
-4.28931
-4.28936
-4.28941
-4.28946
-4.28951
-4.28954
-4.28958
-4.28961
-4.414
-4.41398
-4.41394
-4.41394
-4.41396
-4.414
-4.41404
-4.41408
-4.41413
-4.41418
-4.41423
-4.41428
-4.41433
-4.41438
-4.41443
-4.41447
-4.41452
-4.41456
-4.41461
-4.41465
-4.41468
-4.41472
-4.41475
-4.53926
-4.53923
-4.53919
-4.53919
-4.53921
-4.53923
-4.53926
-4.5393
-4.53934
-4.53938
-4.53942
-4.53947
-4.53951
-4.53955
-4.53959
-4.53964
-4.53968
-4.53972
-4.53975
-4.53979
-4.53983
-4.53986
-4.5399
-4.66452
-4.66446
-4.66443
-4.66443
-4.66444
-4.66445
-4.66447
-4.66451
-4.66454
-4.66458
-4.66462
-4.66466
-4.66469
-4.66473
-4.66477
-4.6648
-4.66484
-4.66487
-4.66491
-4.66494
-4.66498
-4.66501
-4.66505
-4.78974
-4.78966
-4.78963
-4.78964
-4.78964
-4.78966
-4.78968
-4.78971
-4.78974
-4.78978
-4.78981
-4.78985
-4.78988
-4.78991
-4.78994
-4.78997
-4.79
-4.79003
-4.79006
-4.7901
-4.79013
-4.79017
-4.7902
-4.91493
-4.91482
-4.91479
-4.9148
-4.91482
-4.91485
-4.91488
-4.91491
-4.91495
-4.91498
-4.91501
-4.91504
-4.91506
-4.91509
-4.91511
-4.91514
-4.91516
-4.91519
-4.91522
-4.91525
-4.91529
-4.91532
-4.91536
-5.04007
-5.03995
-5.03992
-5.03996
-5.04
-5.04004
-5.04008
-5.04012
-5.04015
-5.04018
-5.04021
-5.04023
-5.04025
-5.04027
-5.04029
-5.04031
-5.04033
-5.04035
-5.04038
-5.04041
-5.04044
-5.04048
-5.04053
-5.16515
-5.16504
-5.16506
-5.16513
-5.16519
-5.16525
-5.16529
-5.16533
-5.16536
-5.16539
-5.16541
-5.16543
-5.16545
-5.16546
-5.16548
-5.16549
-5.1655
-5.16552
-5.16553
-5.16556
-5.1656
-5.16565
-5.16569
-5.29016
-5.2901
-5.29022
-5.29033
-5.29041
-5.29047
-5.29052
-5.29055
-5.29058
-5.2906
-5.29062
-5.29063
-5.29065
-5.29066
-5.29066
-5.29067
-5.29068
-5.29068
-5.29069
-5.29072
-5.29076
-5.29082
-5.29087
-5.4152
-5.41524
-5.41546
-5.41559
-5.41567
-5.41572
-5.41576
-5.41578
-5.4158
-5.41582
-5.41583
-5.41584
-5.41585
-5.41585
-5.41585
-5.41585
-5.41585
-5.41585
-5.41585
-5.41586
-5.41591
-5.41599
-5.41605
-5.54018
-5.54052
-5.54077
-5.54088
-5.54094
-5.54097
-5.54099
-5.541
-5.54101
-5.54101
-5.54101
-5.54102
-5.54102
-5.54102
-5.54101
-5.54101
-5.541
-5.54098
-5.54096
-5.54093
-5.54101
-5.54116
-5.54124
-5.66563
-5.66637
-5.66626
-5.66625
-5.66625
-5.66624
-5.66623
-5.66622
-5.66622
-5.66622
-5.66622
-5.66621
-5.66621
-5.66621
-5.6662
-5.66619
-5.66618
-5.66615
-5.6661
-5.66599
-5.66605
-5.66633
-5.66642
237.503
237.112
236.74
236.252
112.623
112.412
112.088
111.596
25.2657
25.1409
24.9658
24.7302
-0.655662
-0.674779
-0.685462
-0.677453
-0.837347
-0.840917
-0.839482
-0.838315
-1.06762
-1.06218
-1.05754
-1.05328
-1.25661
-1.25148
-1.25075
-1.25367
-1.41245
-1.41312
-1.41433
-1.41494
-1.54192
-1.54324
-1.543
-1.54172
-1.66588
-1.6662
-1.66607
-1.66559
-1.79016
-1.79019
-1.79002
-1.78971
-1.91481
-1.91476
-1.91462
-1.91441
-2.03965
-2.0396
-2.03952
-2.03941
-2.16453
-2.1645
-2.16446
-2.16441
-2.28939
-2.28937
-2.28935
-2.28932
-2.41425
-2.41423
-2.41421
-2.41419
-2.53911
-2.53909
-2.53908
-2.53906
-2.66399
-2.66398
-2.66397
-2.66395
-2.7889
-2.78889
-2.78888
-2.78886
-2.91384
-2.91384
-2.91383
-2.91381
-3.03882
-3.03881
-3.03881
-3.03879
-3.16382
-3.16382
-3.16381
-3.1638
-3.28885
-3.28885
-3.28884
-3.28884
-3.4139
-3.4139
-3.4139
-3.41389
-3.53896
-3.53897
-3.53897
-3.53897
-3.66405
-3.66405
-3.66405
-3.66406
-3.78914
-3.78915
-3.78915
-3.78916
-3.91425
-3.91426
-3.91427
-3.91427
-4.03937
-4.03938
-4.03939
-4.03939
-4.1645
-4.16451
-4.16452
-4.16453
-4.28963
-4.28964
-4.28965
-4.28966
-4.41477
-4.41478
-4.4148
-4.41481
-4.53992
-4.53993
-4.53994
-4.53996
-4.66507
-4.66508
-4.6651
-4.66511
-4.79023
-4.79024
-4.79026
-4.79027
-4.91539
-4.9154
-4.91542
-4.91543
-5.04055
-5.04057
-5.04059
-5.0406
-5.16572
-5.16574
-5.16576
-5.16577
-5.2909
-5.29091
-5.29093
-5.29094
-5.41608
-5.41609
-5.41611
-5.41612
-5.54127
-5.54128
-5.54129
-5.5413
-5.66645
-5.66646
-5.66646
-5.66647
234.08
233.419
232.536
231.588
230.617
229.586
228.478
227.416
226.648
226.493
227.166
227.03
226.089
223.999
222.029
221.353
221.655
220.781
220.479
110.386
109.635
108.853
108.096
107.423
106.836
106.157
105.277
104.278
103.42
102.923
102.354
101.402
100.21
99.2064
98.6929
98.6673
97.9783
97.8155
24.2258
23.7901
23.4176
23.183
23.0021
22.89
22.7822
22.5285
21.9635
21.1037
20.4642
20.0161
19.6379
19.3767
19.1974
18.8942
18.6208
18.4155
18.6122
-0.644588
-0.631817
-0.632161
-0.592413
-0.544193
-0.540329
-0.562621
-0.571331
-0.563566
-0.559718
-0.5754
-0.608948
-0.615496
-0.608262
-0.574218
-0.563175
-0.566242
-0.570461
-0.569881
-0.838406
-0.836104
-0.834064
-0.826775
-0.807405
-0.800608
-0.808002
-0.813691
-0.819887
-0.827804
-0.83801
-0.850231
-0.857753
-0.859885
-0.854677
-0.851993
-0.852063
-0.853352
-0.856165
-1.05
-1.04788
-1.0508
-1.06309
-1.07478
-1.08215
-1.08519
-1.08665
-1.08825
-1.09028
-1.09356
-1.09568
-1.09709
-1.09596
-1.09599
-1.0955
-1.09499
-1.0929
-1.09564
-1.25656
-1.25622
-1.25637
-1.25779
-1.26768
-1.27309
-1.27165
-1.26936
-1.26665
-1.26429
-1.26298
-1.2624
-1.26347
-1.26435
-1.26565
-1.2663
-1.26567
-1.2646
-1.26392
-1.41568
-1.41489
-1.41244
-1.41006
-1.40662
-1.40188
-1.39833
-1.39497
-1.39271
-1.39117
-1.39002
-1.38946
-1.39097
-1.39214
-1.39382
-1.39468
-1.39519
-1.39628
-1.39363
-1.54022
-1.53868
-1.53683
-1.53513
-1.53207
-1.52866
-1.52531
-1.52298
-1.52209
-1.52152
-1.52011
-1.51886
-1.51874
-1.51899
-1.52024
-1.52117
-1.52164
-1.52209
-1.52073
-1.66453
-1.66288
-1.66109
-1.65955
-1.6577
-1.65556
-1.65346
-1.65302
-1.65358
-1.65297
-1.6516
-1.64966
-1.6475
-1.6465
-1.64663
-1.64742
-1.64788
-1.6482
-1.64745
-1.78901
-1.7875
-1.78601
-1.78471
-1.78353
-1.78274
-1.78266
-1.78329
-1.78299
-1.78156
-1.78054
-1.77907
-1.77659
-1.77495
-1.77391
-1.77365
-1.77393
-1.77412
-1.77388
-1.91399
-1.91306
-1.91204
-1.91088
-1.90988
-1.90974
-1.9107
-1.9109
-1.90942
-1.90813
-1.90727
-1.90654
-1.90509
-1.9036
-1.90197
-1.90049
-1.89979
-1.89984
-1.90006
-2.03925
-2.03916
-2.03853
-2.03766
-2.03685
-2.03638
-2.03648
-2.03596
-2.03497
-2.03422
-2.03364
-2.03276
-2.03161
-2.03046
-2.02911
-2.02745
-2.02622
-2.02599
-2.02633
-2.16437
-2.16461
-2.16451
-2.16395
-2.16315
-2.16225
-2.16166
-2.16107
-2.16032
-2.1597
-2.15904
-2.1581
-2.15709
-2.15613
-2.15523
-2.15427
-2.15341
-2.15309
-2.15344
-2.28929
-2.28939
-2.28945
-2.28907
-2.28818
-2.2874
-2.28681
-2.28622
-2.28556
-2.28493
-2.28427
-2.28349
-2.28267
-2.28192
-2.28133
-2.28096
-2.28055
-2.28035
-2.28066
-2.41415
-2.41415
-2.41404
-2.41369
-2.41309
-2.41248
-2.41193
-2.41138
-2.41079
-2.41021
-2.4096
-2.40894
-2.40827
-2.40767
-2.40721
-2.40696
-2.40678
-2.40663
-2.40678
-2.53901
-2.53895
-2.5388
-2.53849
-2.53803
-2.53754
-2.53706
-2.53656
-2.53604
-2.53552
-2.53498
-2.53442
-2.53386
-2.53336
-2.53296
-2.53266
-2.53243
-2.53231
-2.53242
-2.6639
-2.66382
-2.66367
-2.6634
-2.66303
-2.66262
-2.6622
-2.66177
-2.66131
-2.66085
-2.66038
-2.65991
-2.65944
-2.65902
-2.65865
-2.65834
-2.65806
-2.65788
-2.65786
-2.78882
-2.78874
-2.78859
-2.78837
-2.78807
-2.78773
-2.78737
-2.78699
-2.7866
-2.7862
-2.7858
-2.78541
-2.78503
-2.78468
-2.78436
-2.78406
-2.78377
-2.78356
-2.78341
-2.91378
-2.91369
-2.91356
-2.91338
-2.91314
-2.91285
-2.91254
-2.91222
-2.91189
-2.91156
-2.91123
-2.91091
-2.91061
-2.91034
-2.91011
-2.90989
-2.9097
-2.90965
-2.90951
-3.03876
-3.03869
-3.03857
-3.03841
-3.03821
-3.03798
-3.03773
-3.03746
-3.03719
-3.03692
-3.03666
-3.03641
-3.03619
-3.03601
-3.03589
-3.03581
-3.0358
-3.03605
-3.03593
-3.16378
-3.16371
-3.16362
-3.16348
-3.16332
-3.16313
-3.16292
-3.1627
-3.16249
-3.16227
-3.16207
-3.16189
-3.16175
-3.16166
-3.16163
-3.1617
-3.16185
-3.16237
-3.16214
-3.28882
-3.28876
-3.28868
-3.28857
-3.28844
-3.28829
-3.28812
-3.28795
-3.28778
-3.28761
-3.28747
-3.28735
-3.28727
-3.28725
-3.28731
-3.28748
-3.28778
-3.28829
-3.28816
-3.41388
-3.41384
-3.41377
-3.41369
-3.41358
-3.41346
-3.41333
-3.41319
-3.41306
-3.41294
-3.41284
-3.41277
-3.41274
-3.41277
-3.41288
-3.41311
-3.41347
-3.41387
-3.41397
-3.53896
-3.53893
-3.53888
-3.53881
-3.53873
-3.53863
-3.53853
-3.53843
-3.53833
-3.53825
-3.53818
-3.53815
-3.53815
-3.53821
-3.53833
-3.53855
-3.53887
-3.53911
-3.53916
-3.66405
-3.66403
-3.664
-3.66394
-3.66388
-3.66381
-3.66374
-3.66366
-3.6636
-3.66354
-3.6635
-3.66349
-3.66352
-3.66358
-3.66369
-3.66386
-3.66405
-3.6641
-3.66387
-3.78916
-3.78915
-3.78912
-3.78909
-3.78904
-3.78899
-3.78894
-3.78889
-3.78885
-3.78882
-3.7888
-3.78881
-3.78884
-3.7889
-3.78899
-3.78909
-3.78916
-3.78907
-3.78872
-3.91428
-3.91427
-3.91426
-3.91424
-3.91421
-3.91418
-3.91414
-3.91411
-3.91409
-3.91408
-3.91408
-3.9141
-3.91413
-3.91419
-3.91425
-3.91431
-3.9143
-3.91415
-3.91376
-4.0394
-4.03941
-4.0394
-4.03939
-4.03938
-4.03936
-4.03934
-4.03933
-4.03932
-4.03932
-4.03934
-4.03937
-4.03941
-4.03946
-4.0395
-4.03953
-4.0395
-4.03934
-4.03899
-4.16454
-4.16455
-4.16455
-4.16455
-4.16455
-4.16454
-4.16454
-4.16454
-4.16454
-4.16456
-4.16458
-4.16462
-4.16466
-4.16471
-4.16475
-4.16476
-4.16471
-4.16456
-4.16426
-4.28968
-4.28969
-4.28971
-4.28971
-4.28972
-4.28972
-4.28973
-4.28974
-4.28976
-4.28978
-4.28982
-4.28986
-4.28991
-4.28995
-4.28998
-4.28997
-4.28991
-4.28974
-4.28946
-4.41483
-4.41485
-4.41486
-4.41488
-4.41489
-4.4149
-4.41492
-4.41494
-4.41497
-4.415
-4.41504
-4.41509
-4.41514
-4.41518
-4.4152
-4.41518
-4.41507
-4.41485
-4.41451
-4.53998
-4.54
-4.54002
-4.54004
-4.54006
-4.54008
-4.5401
-4.54013
-4.54017
-4.54021
-4.54026
-4.54032
-4.54037
-4.54042
-4.54044
-4.5404
-4.54026
-4.54
-4.53959
-4.66513
-4.66516
-4.66518
-4.66521
-4.66523
-4.66526
-4.66528
-4.66532
-4.66536
-4.66541
-4.66547
-4.66553
-4.6656
-4.66566
-4.66569
-4.66566
-4.66552
-4.66525
-4.66482
-4.79029
-4.79032
-4.79035
-4.79037
-4.7904
-4.79043
-4.79046
-4.7905
-4.79055
-4.7906
-4.79067
-4.79074
-4.79082
-4.7909
-4.79095
-4.79095
-4.79085
-4.79058
-4.79015
-4.91546
-4.91549
-4.91551
-4.91554
-4.91557
-4.9156
-4.91563
-4.91567
-4.91572
-4.91578
-4.91586
-4.91594
-4.91604
-4.91614
-4.91623
-4.91628
-4.91622
-4.91596
-4.91549
-5.04062
-5.04065
-5.04068
-5.04071
-5.04074
-5.04077
-5.0408
-5.04084
-5.04089
-5.04096
-5.04103
-5.04113
-5.04125
-5.04138
-5.04152
-5.04163
-5.04165
-5.04139
-5.04088
-5.16579
-5.16582
-5.16585
-5.16587
-5.1659
-5.16593
-5.16596
-5.166
-5.16605
-5.16611
-5.16619
-5.16629
-5.16643
-5.16659
-5.16679
-5.167
-5.16712
-5.16688
-5.16632
-5.29097
-5.29099
-5.29101
-5.29103
-5.29106
-5.29108
-5.29111
-5.29115
-5.29119
-5.29125
-5.29133
-5.29143
-5.29157
-5.29176
-5.29202
-5.29237
-5.29267
-5.29247
-5.29189
-5.41614
-5.41616
-5.41618
-5.41619
-5.41621
-5.41623
-5.41626
-5.41628
-5.41632
-5.41637
-5.41643
-5.41652
-5.41665
-5.41685
-5.41716
-5.41766
-5.4183
-5.41822
-5.41774
-5.54131
-5.54132
-5.54134
-5.54135
-5.54136
-5.54138
-5.54139
-5.54141
-5.54144
-5.54147
-5.54151
-5.54157
-5.54166
-5.54182
-5.5421
-5.54272
-5.54388
-5.54425
-5.54426
-5.66648
-5.66648
-5.66649
-5.6665
-5.66651
-5.66652
-5.66653
-5.66654
-5.66655
-5.66657
-5.66659
-5.66661
-5.66665
-5.66672
-5.66689
-5.66735
-5.66867
-5.67027
-5.67168
)
;

boundaryField
{
    leftWall
    {
        type            calculated;
        value           nonuniform List<scalar> 
50
(
728.578
669.714
610.826
551.91
492.964
433.986
374.974
315.926
223.582
99.4912
18.8862
-0.536622
-0.841538
-1.0971
-1.27091
-1.39982
-1.5261
-1.65239
-1.77855
-1.90457
-2.03042
-2.15622
-2.28198
-2.40766
-2.53329
-2.65886
-2.78439
-2.90988
-3.03533
-3.16077
-3.28618
-3.41155
-3.5369
-3.66223
-3.78754
-3.91285
-4.03815
-4.16344
-4.28872
-4.414
-4.53926
-4.66452
-4.78974
-4.91493
-5.04007
-5.16515
-5.29016
-5.4152
-5.54018
-5.66563
)
;
    }
    rightWall
    {
        type            calculated;
        value           nonuniform List<scalar> 
50
(
722.972
664.26
605.609
547.051
488.507
429.931
371.239
312.391
220.479
97.8155
18.6122
-0.569881
-0.856165
-1.09564
-1.26392
-1.39363
-1.52073
-1.64745
-1.77388
-1.90006
-2.02633
-2.15344
-2.28066
-2.40678
-2.53242
-2.65786
-2.78341
-2.90951
-3.03593
-3.16214
-3.28816
-3.41397
-3.53916
-3.66387
-3.78872
-3.91376
-4.03899
-4.16426
-4.28946
-4.41451
-4.53959
-4.66482
-4.79015
-4.91549
-5.04088
-5.16632
-5.29189
-5.41774
-5.54426
-5.67168
)
;
    }
    lowerWall
    {
        type            calculated;
        value           nonuniform List<scalar> 
62
(
758.007
758.045
758.203
758.495
758.918
759.461
760.113
760.857
761.676
762.547
763.449
764.353
765.229
766.035
766.727
767.262
767.652
767.944
768.316
768.58
768.955
769.41
769.528
740.142
681.251
622.365
563.525
504.732
445.983
387.276
328.606
300.099
299.707
299.335
298.847
734.967
676.581
618.197
559.604
500.818
442.029
383.266
324.573
764.141
764.704
764.711
764.14
763.199
762.012
760.781
759.439
757.955
756.354
754.969
754.318
753.596
752.352
752.669
752.679
752.408
752.415
752.331
)
;
    }
    atmosphere
    {
        type            calculated;
        value           nonuniform List<scalar> 
46
(
-5.72915
-5.72904
-5.72904
-5.72904
-5.72904
-5.72904
-5.72904
-5.72904
-5.72904
-5.72904
-5.72904
-5.72904
-5.72904
-5.72904
-5.72904
-5.72904
-5.72904
-5.72904
-5.72904
-5.72904
-5.72904
-5.72904
-5.72904
-5.72905
-5.72905
-5.72905
-5.72905
-5.72906
-5.72906
-5.72907
-5.72908
-5.72909
-5.7291
-5.72911
-5.72912
-5.72913
-5.72913
-5.72914
-5.72915
-5.72915
-5.72915
-5.72915
-5.72914
-5.72911
-5.72906
-5.73718
)
;
    }
    defaultFaces
    {
        type            empty;
    }
}


// ************************************************************************* //
