/*--------------------------------*- C++ -*----------------------------------*\
  =========                 |
  \\      /  F ield         | OpenFOAM: The Open Source CFD Toolbox
   \\    /   O peration     | Website:  https://openfoam.org
    \\  /    A nd           | Version:  9
     \\/     M anipulation  |
\*---------------------------------------------------------------------------*/
FoamFile
{
    format      ascii;
    class       volVectorField;
    location    "28.25";
    object      U;
}
// * * * * * * * * * * * * * * * * * * * * * * * * * * * * * * * * * * * * * //

dimensions      [0 1 -1 0 0 0 0];

internalField   nonuniform List<vector> 
918
(
(2.47629 -0.138943 0)
(0.108704 0.722546 0)
(0.171727 1.05404 0)
(2.31834 0.153728 0)
(-0.0598367 1.27031 -1.22216e-19)
(-0.0924034 0.643931 -5.314e-18)
(0.52997 0.84952 -2.95451e-19)
(0.274322 0.152873 -2.98856e-20)
(3.00615 -0.0195608 0)
(-0.0082376 0.476777 0)
(-0.0171979 0.589227 0)
(0.605214 0.00676599 0)
(0.0107054 0.439105 0)
(-0.00288246 0.421689 0)
(0.0134396 0.340822 -1.3052e-18)
(-0.00474353 0.769011 -9.20746e-20)
(0.312402 0.0742695 2.1522e-18)
(0.0797368 0.64231 -2.23053e-19)
(1.52884 0.128628 0)
(-0.0267394 0.68521 0)
(0.194591 0.157722 -1.2656e-18)
(3.08302 -0.397373 0)
(2.92445 -0.50598 0)
(1.86116 -0.1811 0)
(0.511386 0.0400858 0)
(-0.0253685 0.52155 0)
(-0.00135313 0.494038 1.86246e-18)
(-0.0226072 1.40038 0)
(0.0743316 2.88409 0)
(0.168082 1.73666 0)
(-0.0388104 3.1651 0)
(0.0270544 1.63989 9.39727e-20)
(0.023242 0.686624 0)
(-0.147425 0.775094 -2.03093e-22)
(-0.193914 1.0291 4.42138e-18)
(-0.0415772 1.04471 0)
(0.744578 -0.00600508 0)
(0.161015 0.246323 6.65581e-19)
(0.993414 1.51289 6.52989e-19)
(0.649886 0.784293 -5.16117e-19)
(0.798526 1.57497 6.20207e-20)
(0.41676 0.851263 -3.20226e-19)
(0.552323 0.306565 2.93921e-20)
(0.296968 0.153645 0)
(0.962963 0.566544 0)
(0.532605 0.303948 1.32019e-19)
(0.257976 0.16279 -1.35471e-19)
(0.871596 -0.0554787 0)
(3.02784 -0.00170482 0)
(3.00685 0.0178656 0)
(3.20086 -0.417733 0)
(3.04288 -0.0742118 0)
(3.03116 -0.0388406 0)
(0.0186381 0.903486 -1.14646e-18)
(-0.0542435 0.973929 0)
(0.00283714 0.454934 0)
(-0.0291063 0.980942 0)
(-0.0113817 0.481099 0)
(-0.00133346 0.870459 0)
(-0.0520666 1.11041 0)
(-0.0125531 0.541562 0)
(-0.0253245 1.16171 0)
(-0.00591749 0.621455 0)
(0.790476 0.011624 0)
(1.16942 -0.00156214 0)
(0.61825 0.0123696 0)
(1.12579 0.0175985 0)
(0.569762 0.00867918 0)
(0.225406 0.921982 1.95983e-18)
(0.0985379 1.2081 0)
(0.176302 1.06604 0)
(0.0331901 0.755774 2.19936e-23)
(0.0372233 0.498055 -2.93109e-18)
(0.0194616 0.747943 0)
(0.00595421 0.422033 0)
(-0.000695324 0.734548 4.51754e-24)
(0.000702478 0.414825 0)
(-0.0169205 0.74318 0)
(-0.0129373 0.42798 0)
(0.0494408 0.649992 0)
(0.0484432 0.458237 0)
(0.008008 0.621958 1.23404e-18)
(0.000746102 0.344906 0)
(-0.0691348 4.69207 0)
(0.00886357 1.45874 9.1411e-20)
(-0.0105022 0.78581 -1.17688e-19)
(0.636096 0.152148 -7.50966e-19)
(0.321618 0.0656851 -7.28726e-19)
(0.644802 0.169725 -2.25471e-18)
(0.317537 0.0955724 -1.4516e-18)
(0.0785683 0.618581 0)
(0.178493 1.31341 1.84971e-19)
(0.179665 0.730037 -2.95126e-19)
(2.06031 0.260946 0)
(1.10704 0.11845 0)
(3.03313 0.103887 0)
(3.10392 0.446059 0)
(2.83919 0.377459 -1.0128e-17)
(2.5781 0.361309 7.7714e-18)
(-0.0707142 1.26254 0)
(-0.0113693 0.622904 0)
(-0.0141191 1.90008 0)
(-0.0507199 1.34612 0)
(-0.0480471 0.67885 0)
(0.440325 0.295639 4.00686e-19)
(0.22547 0.163364 0)
(2.2961 -0.266393 0)
(1.32372 -0.119274 0)
(1.07633 0.0126683 0)
(1.01199 0.0187645 0)
(0.540926 0.0108507 0)
(1.01985 0.0563976 0)
(0.821223 0.0703263 0)
(0.343625 0.0286958 3.36308e-18)
(-0.00543508 0.451601 1.77355e-18)
(-0.0270315 0.784628 0)
(-0.0473182 0.847508 0)
(-0.0152741 0.460436 0)
(0.000132485 0.839725 1.81601e-18)
(7.30036e-05 0.48753 0)
(-0.0054789 0.845554 -5.59044e-18)
(-0.00488634 0.496761 1.88637e-18)
(0.0538567 3.56571 0)
(0.0422324 4.02505 0)
(-0.0163202 1.41117 -2.05248e-21)
(-0.0131467 1.36347 0)
(-0.00984427 0.741651 0)
(1.41018 0.0348841 0)
(0.760548 0.0154385 0)
(0.709515 0.0142643 0)
(1.41618 -0.0328483 0)
(0.773515 -0.00873983 0)
(0.322086 0.480391 -8.35661e-19)
(0.156818 0.232737 0)
(0.32499 0.509214 9.36534e-20)
(0.163376 0.268457 0)
(1.24065 1.38667 1.66489e-19)
(0.778607 0.740758 -3.92513e-19)
(0.411505 1.42171 0)
(0.607042 1.53364 0)
(0.303473 0.814569 0)
(0.145352 0.353426 -4.4288e-19)
(0.607321 0.280726 0)
(0.313517 0.134641 3.98835e-19)
(1.4272 1.30658 0)
(1.58657 1.16844 0)
(0.874842 0.663851 4.61802e-19)
(1.73382 0.953035 0)
(1.06855 0.43875 2.32207e-20)
(1.47298 0.00813833 0)
(1.501 -0.0292392 0)
(0.801896 -0.00441626 0)
(1.95042 -0.199779 0)
(1.65082 -0.14818 0)
(1.05215 -0.0889697 0)
(3.06126 0.164853 0)
(3.03105 0.0687874 0)
(3.01022 0.0531594 0)
(0.0357419 1.60643 6.08311e-19)
(0.0178913 0.827399 0)
(0.0180129 1.69728 1.07995e-18)
(0.00306541 0.939453 -9.70908e-19)
(0.0646807 1.15188 1.87883e-19)
(0.0476977 0.988764 0)
(0.0401842 0.528482 0)
(-0.0286404 1.0049 0)
(-0.00697381 0.517212 0)
(0.0181144 1.61678 -4.4335e-21)
(-0.0181025 0.866239 0)
(-0.0539595 1.5854 -2.2582e-19)
(-0.0161744 0.821417 4.37352e-19)
(-0.00177288 1.02912 0)
(0.0102617 1.04331 0)
(5.56726e-05 0.531241 0)
(0.0106601 1.17018 0)
(0.000892217 0.611966 0)
(1.4683 -0.00370459 0)
(0.789214 0.00805926 0)
(1.44054 0.0331656 0)
(0.76179 -0.000557756 0)
(0.675384 0.0053444 0)
(1.26196 0.0166818 0)
(1.20239 0.0473081 0)
(0.659692 0.0155558 0)
(-0.00580052 1.42077 -1.70211e-20)
(0.000184321 1.37708 0)
(0.00482012 0.732923 0)
(0.00172892 0.417221 0)
(0.284458 0.828796 0)
(0.253633 0.399757 -2.87147e-19)
(-0.00223061 0.635411 0)
(-0.00889656 0.367611 0)
(0.0104621 4.3375 0)
(-0.0500067 4.66439 0)
(-0.0194527 4.56602 0)
(-0.0726462 3.36806 2.04487e-20)
(-0.0590803 4.60341 0)
(-0.0528085 4.18046 0)
(0.00481521 0.819636 1.08021e-20)
(0.0142009 1.56342 1.65415e-19)
(-0.0359069 1.5038 1.20914e-19)
(-0.00747136 0.826408 0)
(0.664438 0.10571 1.15332e-18)
(0.325689 0.0441637 -1.13028e-18)
(0.149727 1.1337 0)
(0.100983 0.57355 -2.69272e-19)
(0.118207 1.23363 -8.7443e-19)
(0.0518971 0.687371 8.69929e-19)
(0.809202 0.0240634 0)
(1.55677 0.0476794 0)
(1.7097 0.127652 0)
(0.919845 0.0445227 0)
(0.00787925 1.18141 0)
(0.02581 1.18953 0)
(0.00447958 0.627464 0)
(0.482125 0.315091 1.20365e-18)
(0.436859 0.309092 -1.38673e-18)
(0.234773 0.164179 0)
(1.93548 0.152995 1.15243e-19)
(1.1364 0.0932477 0)
(1.72434 0.118441 0)
(0.883722 0.022694 0)
(0.678181 0.0857393 0)
(0.699721 0.0460602 -5.4077e-18)
(0.346732 0.0325965 1.99908e-18)
(0.00914721 0.807284 1.69371e-18)
(0.00222275 0.46251 4.08166e-20)
(-0.0108777 1.40842 -3.58011e-20)
(0.00613616 1.38675 1.36589e-18)
(-0.0149832 0.848955 6.29449e-20)
(-0.0119261 0.524486 -2.52911e-22)
(-0.107514 1.00068 -1.1649e-18)
(-0.0529602 1.3532 8.34007e-19)
(-0.0175323 1.35275 -1.35779e-18)
(1.42273 -0.017085 0)
(1.44236 0.0203181 0)
(0.76987 -0.000177855 0)
(1.45218 0.0253832 0)
(1.3632 0.0462297 0)
(0.761542 0.020307 0)
(1.30062 -0.0021538 0)
(1.31867 -0.00584891 0)
(0.695055 -0.000986589 0)
(0.304877 0.473437 -9.1527e-19)
(0.161368 0.242695 0)
(0.157172 0.30846 1.36947e-19)
(0.309624 0.585952 1.12223e-18)
(0.307433 0.548628 -6.6437e-19)
(0.156835 0.281923 1.29827e-18)
(0.278523 0.717799 2.18173e-18)
(0.148285 0.380902 3.93665e-19)
(0.636102 0.213098 1.53751e-18)
(0.626006 0.253609 3.99332e-19)
(0.316626 0.115047 7.49295e-19)
(1.92124 0.714593 -5.99727e-19)
(1.16766 0.336089 -7.0195e-19)
(-0.0351006 1.70438 4.64197e-19)
(-0.0114044 0.925498 0)
(1.60389 0.0239505 0)
(1.5219 0.0653713 0)
(0.852928 0.0268577 0)
(-0.00355883 1.38473 0)
(0.00507421 0.729574 2.49517e-18)
(0.00465033 0.731252 0)
(0.00207079 0.415097 -2.44221e-18)
(-0.0102751 1.38627 5.95667e-19)
(-0.00947265 1.4225 0)
(0.33657 0.488168 2.5797e-19)
(0.360059 0.546431 -8.63043e-19)
(0.171845 0.257832 7.81183e-19)
(-0.0256694 0.767467 -1.66266e-18)
(-0.0261515 0.689734 0)
(-0.0154342 0.412937 0)
(0.0301556 1.54915 -1.27246e-20)
(0.031368 1.58177 -3.64909e-19)
(0.0178909 0.823176 -1.55937e-20)
(0.213416 1.04426 8.90088e-19)
(0.119676 0.509099 -5.92308e-19)
(0.0118982 1.48544 7.30668e-19)
(0.0558768 1.35129 -8.15502e-19)
(0.0268408 0.760654 3.53097e-20)
(0.00751349 1.36614 -3.80764e-18)
(-0.000214902 1.39326 4.40946e-18)
(0.00377338 0.829776 1.73295e-18)
(-0.0138289 0.805094 -1.72542e-18)
(-0.00430907 0.481399 -1.73859e-18)
(-0.0106511 1.41685 -4.49987e-18)
(-0.0152178 1.40032 4.58906e-18)
(0.286394 0.67486 0)
(0.299801 0.634685 -2.28783e-18)
(0.151952 0.331747 9.90405e-19)
(0.281252 0.796056 1.18511e-18)
(0.138824 0.427561 -1.82861e-18)
(2.05696 0.322571 4.15856e-19)
(2.0515 0.547705 0)
(1.21863 0.220975 -4.01811e-19)
(-0.0739006 1.63646 -4.80197e-21)
(-0.0141103 1.69179 0)
(-0.0157049 0.922581 0)
(0.22712 0.944619 -3.22803e-19)
(0.24826 0.866596 -7.06931e-19)
(0.128822 0.463323 1.32483e-18)
(3.16442 -0.442872 0)
(3.34728 -0.414685 1.81286e-18)
(0.0615467 3.48363 0)
(0.0484149 2.80737 0)
(3.15925 0.249915 1.4192e-20)
(3.12355 0.506296 3.71224e-18)
(0.0226763 3.43298 -2.74431e-20)
(0.0089413 2.66484 0)
(-0.041645 1.19605 1.55503e-18)
(0.190081 1.31641 0)
(3.47252 1.62503 -3.2477e-19)
(3.17427 0.272573 -2.96098e-20)
(3.14838 -0.118697 0)
(3.10047 -0.000404087 3.73108e-22)
(0.043985 2.58905 0)
(0.157739 3.30218 0)
(-0.0548427 2.53256 0)
(-0.0229587 3.49059 3.15787e-19)
(-0.0249524 3.57152 1.99268e-19)
(2.63344 0.0488298 -1.36492e-20)
(3.04751 0.0311507 0)
(3.15791 0.086837 0)
(-0.0521887 4.61753 0)
(-0.04599 3.0849 0)
(-0.0720721 2.93436 0)
(0.652475 3.10505 2.65751e-19)
(3.33884 -0.422458 0)
(3.0114 -0.34581 0)
(3.1699 -0.0530369 2.27728e-18)
(3.2927 -0.3287 -2.7421e-18)
(3.1038 -0.125777 0)
(-0.0579111 4.51545 0)
(0.0158295 3.93457 0)
(0.00753526 4.26556 0)
(-0.0269073 3.09492 0)
(-0.0132937 2.85067 0)
(-0.0306375 2.42339 0)
(2.97422 -0.00317012 0)
(2.85043 0.048628 -1.805e-20)
(2.24672 3.04904 -3.21609e-19)
(3.15695 0.0444552 -2.27835e-18)
(3.19037 0.278179 2.76945e-18)
(3.0828 0.117338 0)
(3.3954 0.328926 2.08737e-18)
(3.35695 0.484366 -2.70665e-18)
(3.07111 0.418429 0)
(-0.0552301 3.34821 0)
(0.00517244 3.27777 8.52418e-20)
(-0.030534 2.5768 -6.04019e-20)
(3.70786 0.555299 2.26559e-18)
(3.47096 0.208491 0)
(-0.15198 1.27126 -2.16597e-18)
(-0.0624282 0.882159 -1.35037e-19)
(-0.0848293 1.33672 2.98566e-18)
(-0.0352312 1.27045 -8.99635e-19)
(-0.000490835 1.08842 0)
(-0.0266647 1.23955 6.9487e-19)
(-0.115052 1.38786 2.14659e-18)
(-0.0590485 1.34056 -1.31416e-18)
(-0.0767374 1.32063 0)
(1.28934 0.597232 0)
(1.17731 0.682405 0)
(3.55656 2.02941 9.53606e-19)
(3.04975 1.93587 -1.1907e-18)
(3.83768 1.70654 0)
(3.38418 1.15681 0)
(3.34934 0.280495 -3.91697e-18)
(2.89884 0.17312 4.83996e-18)
(3.35145 -0.155479 0)
(2.85479 -0.0761359 0)
(3.43642 0.043026 0)
(3.5938 0.145057 0)
(3.28683 0.119875 0)
(3.55033 0.298581 0)
(3.40841 0.293059 0)
(3.32755 0.218074 0)
(0.0974472 2.79042 0)
(0.0344349 2.07909 0)
(0.1267 3.05129 0)
(0.0927246 2.20534 0)
(0.215083 3.59514 0)
(0.140246 2.67508 -5.58642e-19)
(0.0535619 3.61164 0)
(0.0114937 3.01543 4.0567e-19)
(-0.024317 3.20468 -5.17083e-19)
(-0.0589683 2.79706 0)
(-0.022781 2.19981 0)
(-0.0718183 2.90472 0)
(-0.0554783 2.04807 0)
(-0.106461 4.75006 -2.45555e-19)
(-0.0791367 3.94255 2.77269e-19)
(-0.0742575 3.80345 3.09095e-19)
(-0.052674 3.01795 0)
(-0.104455 3.8049 -4.58734e-19)
(-0.0371378 3.21648 -2.95092e-19)
(-0.0806328 4.78246 1.92573e-19)
(-0.0933236 4.46642 -3.50462e-19)
(-0.0684567 4.33616 -3.78955e-19)
(3.03134 0.0883856 3.35873e-18)
(2.2896 0.032182 -4.22994e-18)
(2.89132 0.132844 -3.32766e-18)
(2.20958 0.0734887 4.15644e-18)
(3.36857 0.0277256 0)
(2.64306 -0.00265122 0)
(3.45415 0.0913544 0)
(3.32024 0.0192888 0)
(2.70665 0.00922685 0)
(3.68029 0.239639 0)
(3.43883 0.0960005 0)
(2.86368 0.0565165 0)
(-0.0222013 4.33605 -1.20329e-20)
(-0.0550949 4.65371 0)
(-0.0604415 4.54967 0)
(-0.0750531 3.50598 8.77553e-20)
(-0.037473 2.77949 -3.46653e-21)
(-0.0800844 4.6701 1.13433e-19)
(-0.0942498 4.45826 -1.1463e-19)
(-0.0777953 3.95528 0)
(-0.0559671 3.87555 0)
(-0.019593 3.9924 0)
(-0.0710874 3.25506 0)
(-0.0426107 2.29999 0)
(0.948767 3.66146 -6.0884e-19)
(0.921149 2.85304 -1.76357e-19)
(0.43032 2.053 -2.28194e-19)
(0.252292 2.2995 6.96986e-19)
(1.02379 4.20024 2.63816e-19)
(3.43308 -0.167422 0)
(3.32213 -0.256546 0)
(2.88327 -0.189515 0)
(3.47032 -0.0643459 0)
(3.34581 -0.147865 0)
(3.44893 -0.261023 0)
(3.5195 -0.283601 0)
(3.57949 -0.281129 0)
(3.22413 0.0933876 3.61902e-18)
(2.55519 0.0645183 -4.5762e-18)
(3.0965 0.106578 -3.56248e-18)
(2.50909 0.0566748 4.43273e-18)
(2.23992 3.41688 0)
(1.73962 2.94825 -4.45623e-19)
(2.56692 3.34887 -4.03213e-19)
(2.36949 2.5295 5.35911e-19)
(0.77451 1.21304 2.72225e-18)
(1.44677 0.216478 1.34319e-18)
(3.72255 0.304248 0)
(3.89313 0.572816 -1.84605e-18)
(3.29898 0.243955 -8.23424e-20)
(3.72081 0.440145 0)
(0.236615 1.31234 1.79607e-18)
(-0.0166467 1.20199 -2.87633e-18)
(0.0588106 0.769962 1.61452e-18)
(0.275942 0.464903 -7.47836e-19)
(0.187249 1.38376 8.7099e-19)
(0.0506461 1.23717 0)
(0.0577368 1.08617 -1.13228e-18)
(0.191719 1.44298 -4.0921e-18)
(0.329009 1.55697 0)
(0.00867296 1.2902 1.19586e-19)
(-0.00971769 1.45729 -1.34022e-18)
(-0.0410147 1.30282 1.94839e-18)
(-0.0574439 1.41766 0)
(-0.0204762 1.38228 0)
(0.681094 1.0499 0)
(2.45682 2.45516 -1.06619e-18)
(2.64403 2.17371 3.95237e-19)
(2.79254 2.88254 0)
(3.21303 3.06763 -3.94567e-19)
(3.16596 2.41177 2.84627e-20)
(0.803676 0.589331 -1.82236e-18)
(1.55584 0.691443 -1.62186e-20)
(1.23287 0.450991 8.72142e-19)
(1.27498 0.843603 5.95046e-20)
(0.938769 0.633801 -2.36946e-18)
(1.46418 0.714127 0)
(1.98978 1.09968 1.45592e-18)
(2.03192 1.01564 0)
(1.41174 0.790655 0)
(1.06191 0.549651 0)
(3.37547 2.18021 1.00849e-18)
(3.94755 0.760921 -1.86338e-18)
(3.84789 1.2161 0)
(3.53382 0.757796 0)
(1.39134 0.364755 1.33248e-18)
(3.258 1.84223 -8.51498e-19)
(2.83433 1.6544 1.54683e-18)
(3.75526 1.37708 -1.83588e-18)
(3.09793 0.114761 2.46399e-18)
(3.16856 0.180817 -2.57895e-18)
(2.66183 0.0916426 0)
(3.30731 -0.0394962 0)
(3.20141 -0.0842564 -2.36653e-18)
(2.63244 -0.0321096 2.34569e-18)
(3.9563 0.0932057 0)
(3.75968 0.145654 0)
(3.69369 0.155373 0)
(3.5883 0.204748 0)
(3.83261 0.0590318 0)
(3.72611 0.0522531 0)
(-0.0400257 2.51246 0)
(-0.0376589 2.01157 0)
(0.357259 3.9889 -4.11325e-19)
(0.6629 3.33415 -1.60022e-19)
(0.259711 3.02811 -3.58024e-19)
(0.343828 2.54842 5.73477e-19)
(0.45845 4.015 0)
(0.470322 4.67181 -5.09909e-19)
(0.383646 4.73016 0)
(0.911427 4.37549 -3.79506e-19)
(0.673452 3.81473 9.68839e-19)
(0.597655 4.65328 4.46959e-19)
(0.741004 4.20149 -1.87518e-19)
(0.60291 4.3268 1.50871e-19)
(0.916767 4.65747 -6.63781e-19)
(0.750108 4.66204 0)
(0.858942 4.58975 5.04557e-19)
(0.00743653 4.5727 -1.81149e-19)
(-0.0183751 3.64768 0)
(0.101884 4.28769 5.49643e-19)
(-0.00245829 4.39064 0)
(-0.00344901 3.45923 -4.51098e-19)
(-0.0151579 2.91279 0)
(-0.0997452 4.30802 -2.89114e-19)
(-0.10532 4.68168 0)
(-0.0526513 3.80555 0)
(-0.039549 3.72738 3.25172e-19)
(-0.0467646 3.88882 1.03848e-20)
(-0.0345203 3.7099 6.25962e-19)
(-0.0410614 2.95026 4.06904e-21)
(-0.113488 4.71067 1.80175e-19)
(-0.102329 4.74218 1.03214e-19)
(-0.0166204 2.62224 0)
(0.00130641 2.13462 0)
(-0.0409987 4.78964 4.86213e-19)
(-0.047768 4.30868 4.23829e-19)
(-0.0824391 4.585 -5.54068e-19)
(0.0169505 4.75837 0)
(-0.0781101 4.53562 -3.09071e-19)
(-0.117369 4.16946 1.27746e-19)
(-0.0845643 4.25001 -4.12998e-20)
(-0.069747 4.72958 -2.18883e-19)
(-0.0851029 4.27114 -6.85614e-20)
(-0.0834547 4.21601 3.06708e-19)
(2.87142 0.0610238 -2.36362e-18)
(2.85887 0.0497063 2.27309e-18)
(2.3386 0.0345578 0)
(3.5101 0.192033 3.04662e-18)
(2.70368 0.126544 -3.30487e-18)
(2.2545 0.0644859 3.60969e-18)
(3.68249 0.335337 -4.01654e-19)
(3.20989 -0.0485208 0)
(3.17212 -0.0135484 2.23708e-18)
(2.69091 -0.0123747 -2.21944e-18)
(3.87876 0.122248 -1.25243e-19)
(3.77176 0.101861 1.07837e-18)
(4.15977 0.173495 0)
(4.22846 0.181155 -3.75145e-19)
(4.0137 0.14524 0)
(3.6949 0.155409 0)
(4.0323 0.0950895 0)
(3.71179 0.0873346 0)
(4.18472 0.113891 7.85528e-19)
(4.1372 0.0791416 -1.74797e-18)
(4.14067 0.113893 -8.48039e-19)
(4.1864 0.116535 -9.2452e-19)
(4.2157 0.22902 1.77413e-18)
(3.85474 0.188635 0)
(4.06127 0.301924 0)
(-0.0719973 4.58098 -1.35733e-19)
(-0.0326121 4.64489 -1.16779e-20)
(-0.0653767 4.66131 0)
(-0.054765 4.19743 1.38111e-19)
(-0.053175 4.22495 2.25369e-20)
(-0.0579799 4.09313 -2.18437e-20)
(-0.0800028 3.52861 2.61194e-19)
(-0.143144 4.00815 -1.45192e-20)
(-0.101901 4.13549 7.47651e-20)
(-0.0739722 3.40434 -1.3231e-19)
(-0.0246418 2.92693 1.58454e-19)
(-0.0752042 4.42804 5.20171e-21)
(-0.0881022 4.64247 1.72234e-19)
(1.24355 4.35946 3.47473e-19)
(1.15978 4.52854 7.26078e-19)
(1.73669 3.46617 4.30907e-19)
(1.30869 3.56034 1.69533e-19)
(1.28635 2.88935 0)
(0.548548 2.3189 2.74896e-19)
(0.463589 1.74164 3.307e-19)
(0.345148 2.5676 1.50982e-20)
(0.492213 3.17352 -1.1613e-18)
(0.631785 3.13239 8.76535e-19)
(0.432812 2.40463 0)
(0.293623 1.97214 -5.57293e-19)
(0.259928 3.07805 1.39478e-18)
(0.273402 2.71976 -3.13874e-20)
(0.157957 2.27651 -1.74812e-18)
(0.591429 1.41109 1.46339e-18)
(0.576389 1.6169 0)
(3.58364 -0.0751498 8.64361e-20)
(3.61861 -0.254102 -7.2599e-20)
(3.72135 -0.217712 -1.26659e-18)
(3.75927 -0.126019 1.28247e-18)
(3.67616 -0.0488559 0)
(2.44637 3.87138 0)
(2.61794 3.91457 0)
(2.88952 3.62543 0)
(2.73626 3.64261 0)
(0.854201 1.39443 -3.33929e-21)
(0.611505 1.03909 0)
(1.70912 3.38427 1.50216e-20)
(1.42104 3.46333 0)
(1.3266 2.95053 -1.28376e-18)
(1.4071 2.89319 8.2444e-19)
(1.79128 0.310398 0)
(1.43046 0.262018 3.52075e-19)
(2.41167 0.358827 2.19185e-18)
(1.78608 0.284835 -7.8545e-19)
(1.42632 0.112198 -2.49505e-18)
(4.26631 0.790077 -2.56557e-18)
(3.852 0.995192 -3.67203e-20)
(3.29695 0.844626 2.06789e-18)
(3.87581 0.745456 1.81333e-18)
(3.12309 0.465683 -3.04513e-18)
(2.91025 0.452158 3.74999e-19)
(3.19252 0.682311 -8.18744e-19)
(2.97612 0.683398 0)
(3.75869 0.563982 1.5377e-18)
(4.09567 0.62939 0)
(4.0912 0.776461 0)
(4.04576 0.415914 8.23702e-19)
(4.29665 0.642574 -3.02472e-20)
(4.24945 0.71589 -4.52895e-19)
(4.17658 0.643274 0)
(3.61568 0.130415 1.71823e-18)
(4.19 0.183597 2.14427e-18)
(4.09069 0.151658 -1.67947e-18)
(4.13651 0.240873 -1.4429e-18)
(3.74574 0.238213 -2.15644e-18)
(3.3029 0.375965 0)
(3.40344 0.302406 0)
(2.55813 0.190649 -1.26609e-18)
(2.10848 0.119114 4.76782e-19)
(4.03723 0.352623 1.94041e-18)
(4.28774 0.432842 -2.34657e-18)
(4.28489 0.489471 2.06897e-18)
(4.15714 0.493527 0)
(4.25663 0.337299 0)
(4.26651 0.322393 -9.81969e-19)
(4.2143 0.316159 -1.59657e-18)
(2.22689 3.48727 6.20502e-19)
(1.93766 3.23094 -6.83386e-19)
(1.44577 2.35551 -1.03193e-18)
(1.18642 1.99633 2.66854e-19)
(0.883805 1.37819 -2.62879e-18)
(0.793693 1.21547 9.22164e-19)
(0.600791 0.903964 -1.97061e-21)
(1.11459 1.78477 -1.1379e-18)
(1.14192 1.88188 1.69866e-18)
(0.974395 1.70016 5.06092e-19)
(0.785971 1.28867 -5.12708e-19)
(0.635431 1.07443 0)
(2.4457 2.60682 -1.15439e-19)
(0.705208 1.14422 8.57261e-19)
(0.927779 0.889735 1.15622e-18)
(0.7553 0.813629 1.33779e-18)
(1.08312 0.746537 1.3412e-18)
(1.46695 1.04434 -2.27035e-18)
(1.38298 1.07124 1.83948e-18)
(1.00183 0.765533 -6.76775e-19)
(0.817052 0.568022 1.49469e-18)
(1.61552 0.490758 -7.78136e-19)
(1.55899 0.508335 0)
(1.23956 0.40734 4.60623e-21)
(2.50926 1.5159 7.75586e-19)
(2.07986 1.27016 -2.80869e-18)
(1.6867 1.18442 9.08873e-21)
(1.66075 1.09236 0)
(2.86216 2.5951 8.73827e-19)
(3.4468 2.75283 1.0375e-18)
(3.25584 2.93074 -1.196e-18)
(3.55422 2.76336 -4.28399e-19)
(3.48427 2.6036 -1.34899e-19)
(3.51245 2.79506 1.38792e-19)
(3.67429 2.267 -1.67947e-18)
(3.70518 2.49205 4.00759e-19)
(3.78365 2.43579 0)
(3.78443 2.19155 -5.79731e-19)
(4.04898 1.07331 5.8058e-19)
(4.27596 0.993152 1.0022e-18)
(4.30041 0.966861 1.0117e-18)
(4.05504 1.32933 -1.14966e-18)
(4.10286 1.34974 0)
(4.1525 1.2337 0)
(3.32773 1.23573 -1.56055e-20)
(2.41776 0.666494 0)
(2.72189 0.744043 9.3068e-19)
(3.2383 0.885942 -2.64557e-20)
(3.77291 1.53466 5.10761e-18)
(3.56984 1.76188 1.31117e-18)
(3.48098 1.54047 -1.3407e-18)
(3.0374 1.36978 1.43747e-18)
(2.7607 1.36966 8.23789e-19)
(2.30661 1.1559 -7.97822e-19)
(3.67221 -0.0855437 1.98468e-18)
(3.8947 -0.0289333 0)
(3.85894 -0.0665496 1.3421e-18)
(3.74291 -0.0594093 -2.98783e-18)
(3.98056 0.0373764 1.46201e-18)
(3.90444 0.113426 -3.08302e-18)
(3.73986 0.128035 0)
(3.55625 0.17347 -6.28563e-19)
(3.81197 0.122981 1.60532e-18)
(3.69195 0.191384 -8.22579e-19)
(3.6003 0.171078 5.90731e-19)
(-0.0800647 2.59062 0)
(-0.0465934 3.39769 0)
(-0.0317639 2.46169 0)
(-0.021498 1.97044 0)
(0.0466158 3.9407 6.70712e-19)
(0.140432 3.72207 -1.72967e-19)
(0.317719 4.64427 -2.29749e-19)
(0.253407 4.4611 2.42647e-19)
(-0.0244034 4.29372 -4.97553e-19)
(0.0126659 4.32582 3.73625e-19)
(0.0961889 3.86933 2.2266e-20)
(0.0101856 3.55661 -4.67125e-19)
(-0.012106 3.30828 -6.22677e-20)
(-0.038825 3.67062 -5.67387e-20)
(0.153715 4.47547 -5.87015e-19)
(0.178879 4.28903 0)
(0.276208 4.63536 2.96435e-19)
(0.269382 4.70967 2.53011e-19)
(0.596323 4.44473 -2.26033e-19)
(0.408481 3.7811 0)
(0.457612 3.62878 -1.11496e-18)
(0.560387 3.99764 7.90037e-19)
(0.480599 4.56219 -6.14852e-19)
(0.370965 4.43295 3.30794e-19)
(0.299931 4.15487 0)
(-0.0338905 4.76237 -5.53226e-19)
(-0.0737147 4.528 -6.41519e-19)
(-0.0748077 4.74059 0)
(-0.0281548 4.36081 -6.25055e-21)
(-0.0181067 4.64212 2.74262e-19)
(-0.117872 3.88115 4.47009e-20)
(-0.0548989 3.48561 -6.53709e-19)
(-0.0949371 3.92389 1.7418e-19)
(-0.13461 4.51727 2.32325e-19)
(-0.0752161 4.32753 0)
(-0.0592076 3.88563 0)
(-0.0819493 2.89749 2.00814e-19)
(-0.0472818 3.63083 -6.26609e-20)
(-0.0724111 3.61834 0)
(-0.0880224 2.6865 1.58113e-19)
(-0.0462704 2.19327 -3.06354e-19)
(3.76103 0.0323467 0)
(3.7319 0.0077487 -2.03285e-19)
(4.1795 0.0679674 -1.44e-18)
(4.08911 0.0463176 0)
(3.87634 0.0178287 0)
(4.14973 0.0370634 -1.25247e-20)
(4.1003 0.0349572 2.37902e-18)
(4.0001 0.0802193 2.84578e-18)
(3.75586 0.118675 0)
(3.55802 0.110061 0)
(4.01332 0.0939699 1.41753e-18)
(3.70325 0.116146 0)
(3.4721 0.128883 0)
(-0.0810551 4.70033 0)
(-0.106824 4.66854 1.06671e-20)
(-0.0771482 4.72033 6.30003e-20)
(-0.0606283 3.83147 0)
(-0.112296 4.5359 1.11251e-19)
(-0.0680116 4.24035 -6.33613e-20)
(-0.0540539 3.92882 0)
(1.41055 4.18587 0)
(1.20963 4.58034 -1.29814e-18)
(1.22498 4.48832 0)
(1.5742 4.487 1.48459e-18)
(1.59335 4.12078 0)
(1.50178 4.37127 -6.06621e-19)
(1.01151 2.2427 -3.39496e-20)
(0.709202 1.64547 -1.74474e-18)
(0.5907 1.22754 2.12874e-18)
(0.708792 1.83509 3.96831e-19)
(0.975123 2.42429 0)
(1.03649 2.37935 0)
(0.71842 1.68742 0)
(0.532364 1.3302 -1.3953e-18)
(1.20904 3.77506 -9.83514e-19)
(1.12894 2.9891 -2.35511e-19)
(1.3271 3.40512 1.92608e-19)
(0.599352 2.04107 0)
(0.620282 1.94278 0)
(0.462284 1.57127 -3.92743e-19)
(0.957783 2.72065 0)
(2.68728 3.57096 0)
(2.38136 3.00856 -1.45465e-18)
(2.54599 3.02692 -8.58797e-20)
(2.41987 3.40434 0)
(2.28576 3.1494 2.22123e-18)
(3.27807 3.08676 -3.89727e-19)
(3.13409 3.32491 0)
(3.11648 3.15127 6.30493e-19)
(2.87052 3.41265 0)
(2.88205 3.20075 0)
(1.20927 2.0063 -9.30475e-19)
(1.41408 2.40331 -6.99563e-19)
(1.75364 2.98176 1.20605e-18)
(1.69583 2.95978 -3.62265e-19)
(1.06243 1.82222 0)
(1.20687 2.20848 4.71136e-19)
(0.718436 1.2887 -7.15246e-19)
(0.581634 1.04347 -5.61888e-22)
(1.93742 3.69573 0)
(2.19923 3.74296 -5.42636e-19)
(2.33841 3.98625 0)
(2.28412 0.52902 0)
(1.61738 0.341914 0)
(1.20904 0.276591 0)
(2.20917 0.55427 -1.46529e-18)
(1.63531 0.402203 8.17265e-19)
(2.14563 0.129123 -9.85191e-19)
(2.62662 0.29753 0)
(2.46569 0.301648 4.13498e-19)
(1.76989 0.135719 1.63304e-18)
(1.53027 0.0812684 -1.03707e-18)
(0.745559 1.55592 8.58079e-19)
(0.959806 1.8204 0)
(0.537661 1.44004 1.56093e-18)
(0.523863 1.61483 -1.42529e-18)
(0.757199 1.81448 -9.88383e-19)
(2.07345 2.46265 1.33775e-18)
(2.09681 2.71206 0)
(1.58352 1.67812 -2.76355e-19)
(2.00974 1.98946 1.74512e-18)
(1.35988 1.2926 -4.23592e-19)
(1.58869 1.31345 4.50701e-19)
(2.10963 1.51324 1.02321e-18)
(2.44277 1.67098 0)
(2.27608 1.85611 0)
(2.00996 1.60604 0)
(3.95682 2.07983 3.84526e-19)
(3.75985 1.88976 -1.26359e-18)
(3.81726 2.02807 1.04681e-18)
(3.90109 1.77146 -1.00835e-18)
(4.15788 1.67387 0)
(4.11695 1.84106 -2.97849e-19)
(2.84052 1.16334 -1.89735e-18)
(2.97088 1.16345 -2.41308e-18)
(2.33202 1.04358 1.45647e-18)
(2.1383 0.93445 -1.41987e-18)
(2.46354 0.846184 -1.17815e-18)
(2.17861 0.77696 1.44888e-18)
(4.00845 0.033476 -1.52893e-18)
(4.05276 0.0406899 3.13029e-18)
(3.76797 -0.0658806 1.90095e-18)
(3.79119 -0.0737714 -2.28683e-18)
(3.95955 0.0105741 0)
(4.05604 0.0228786 -3.72991e-18)
(0.0970156 4.76173 1.06563e-19)
(0.0678482 4.73202 0)
(0.189939 4.73169 9.53527e-19)
(0.211488 4.74929 -8.67485e-19)
(0.231393 4.71859 4.28463e-19)
(0.122401 4.65847 0)
(-0.100868 4.77156 0)
(-0.106706 4.40365 -6.18456e-20)
(-0.1057 4.33247 5.54336e-20)
(-0.114462 4.48195 7.17591e-21)
(-0.10513 4.72196 -1.0115e-19)
(-0.0821313 4.7096 5.50898e-20)
(1.87568 4.00972 -1.64332e-18)
(1.81665 4.01628 1.74027e-18)
(1.68422 4.40644 -8.54301e-19)
(1.69307 4.27745 7.61295e-20)
(2.25279 4.08636 0)
(1.85464 4.2198 -6.35587e-19)
(1.98184 3.9596 6.16427e-19)
(1.82406 4.38078 8.34493e-19)
(2.07679 4.21929 0)
(2.22826 4.10025 0)
(1.13857 3.63115 1.49511e-18)
(0.826768 2.81164 2.02342e-18)
(0.954496 2.98999 -1.38967e-18)
(0.74671 2.97173 -2.31914e-19)
(0.902686 3.73086 4.66338e-19)
(0.72234 3.36343 -1.13409e-18)
(0.745753 1.46571 -1.21482e-18)
(0.746213 1.3169 0)
(0.602547 1.11447 -1.33526e-18)
(1.11092 2.06396 0)
(1.08789 2.15091 0)
(1.35854 2.19078 -1.0906e-18)
(1.06443 2.01414 -1.03601e-18)
(1.01679 2.03502 1.0987e-18)
(1.03107 1.51914 0)
(1.4103 1.76173 -6.01229e-19)
(1.62722 2.11893 -8.55448e-19)
(1.41075 2.08253 0)
(0.867768 1.81836 7.1246e-19)
(0.779678 1.67944 0)
(2.90602 2.28884 -1.84712e-18)
(3.31887 2.47054 2.60938e-18)
(3.27758 2.19305 -2.59347e-18)
(2.61028 2.02082 -2.31186e-19)
(2.72487 1.94029 -9.74184e-19)
(1.26182 2.18968 7.96171e-19)
(1.31596 2.24451 -1.35992e-18)
(1.454 2.32945 1.7928e-18)
(1.79023 2.55945 -1.16524e-18)
(1.88884 2.9322 -1.56723e-18)
(1.56306 2.48855 -1.18803e-19)
(1.63281 2.6281 1.37127e-18)
(1.80992 2.69294 9.66177e-20)
(2.01782 2.99866 6.50006e-19)
)
;

boundaryField
{
    wall-4
    {
        type            noSlip;
    }
    velocity-inlet-5
    {
        type            fixedValue;
        value           uniform (3 0 0);
    }
    velocity-inlet-6
    {
        type            fixedValue;
        value           uniform (0 1 0);
    }
    pressure-outlet-7
    {
        type            zeroGradient;
    }
    wall-8
    {
        type            noSlip;
    }
    frontAndBackPlanes
    {
        type            empty;
    }
}


// ************************************************************************* //
