/*--------------------------------*- C++ -*----------------------------------*\
  =========                 |
  \\      /  F ield         | OpenFOAM: The Open Source CFD Toolbox
   \\    /   O peration     | Website:  https://openfoam.org
    \\  /    A nd           | Version:  9
     \\/     M anipulation  |
\*---------------------------------------------------------------------------*/
FoamFile
{
    format      ascii;
    class       volScalarField;
    location    "6.26";
    object      alpha.water;
}
// * * * * * * * * * * * * * * * * * * * * * * * * * * * * * * * * * * * * * //

dimensions      [0 0 0 0 0 0 0];

internalField   nonuniform List<scalar> 
2268
(
1
1
0.999999
0.999999
1
1
1
0.999999
0.999998
0.999999
1
1
1
1
1
1
1
1
0.998519
0.996686
0.996831
0.998659
0.998701
0.999999
1
0.999998
0.999999
1
1
0.999998
0.999998
0.999998
0.999999
1
1
1
1
1
0.999995
0.999987
0.999997
0.999346
0.997883
0.999756
0.999993
0.999993
0.999998
0.999998
0.999998
0.999999
1
1
0.999999
0.999999
1
1
1
1
1
1
1
0.999976
0.999897
0.999997
0.999996
0.999963
0.999993
0.999993
0.999984
0.999999
0.999999
1
1
1
1
1
1
1
1
1
1
1
1
1
0.999939
0.998536
0.998584
0.999996
0.999996
0.999996
0.999753
0.999981
1
1
1
1
1
1
1
1
1
1
1
1
1
1
1
1
0.99653
0.982099
0.985907
0.990969
0.988247
0.999484
1
1
1
1
1
1
1
1
1
1
1
1
1
1
1
1
1
0.99775
0.980274
0.98027
0.980271
0.982888
0.99958
1
1
1
1
1
1
1
1
1
1
1
1
1
1
1
1
1
0.999894
0.991153
0.980271
0.98027
0.993969
1
1
1
1
1
0.999999
0.999999
0.999999
0.999999
0.999999
0.999999
0.999999
0.999999
1
1
1
1
1
1
0.998195
0.987844
0.988034
0.99955
0.999999
0.999999
0.991332
0.995107
0.997211
0.997205
0.995943
0.992214
0.99193
0.991929
0.991928
0.991842
0.991843
0.997277
0.995332
0.994718
0.998604
0.998604
0.998604
0.99846
0.997897
0.991332
0.999791
0.999974
0.999974
0.999974
0.999974
0.999621
0.999433
0.999804
0.999714
0.998968
0.999403
0.99698
0.995354
0.998604
0.998604
0.998604
0.998604
0.998217
0.991332
0.998545
0.999962
0.999973
0.999974
0.999948
0.999948
0.999948
0.999805
0.999536
0.999535
0.999532
0.999528
0.998795
0.997149
0.998604
0.998604
0.998604
0.994617
0.998675
0.999845
0.999928
0.999928
0.999983
0.999968
0.999839
0.999576
0.998788
0.997468
0.999533
0.999532
0.999531
0.987455
0.996116
0.998604
0.998604
0.998487
0.994502
0.999996
0.999996
0.999996
0.999989
0.999989
0.999916
0.999241
0.999242
0.999972
0.995071
0.992806
0.999531
0.997737
0.960925
0.992969
0.997671
0.994694
0.996169
0.994502
0.999993
0.999995
0.999996
0.999991
0.99996
0.999915
0.999772
0.999726
0.999973
0.994103
0.962473
0.966746
0.96111
0.960631
0.994126
0.997081
0.985965
0.995693
0.995059
0.999995
0.999996
0.999996
0.999974
0.99994
0.999948
0.999975
0.999974
0.999974
0.996552
0.960041
0.960019
0.960016
0.975939
0.998219
0.997974
0.981596
0.998294
0.99845
0.999996
0.999996
0.999996
0.999996
0.999995
0.99999
0.999977
0.999524
0.998892
0.998385
0.975409
0.960017
0.960018
0.991175
0.998495
0.998196
0.981454
0.997287
0.99845
1
1
1
1
1
1
1
1
1
1
1
0.999999
0.999999
1
1
1
0.999995
0.999967
0.999943
0.999921
0.999936
0.999998
0.999999
1
1
1
1
1
1
1
0.998914
0.99694
0.993784
0.989473
0.985463
0.983333
0.981598
0.979026
0.975797
0.974293
0.973887
0.973247
0.970773
0.966237
0.961673
0.959425
0.441431
0.437064
0.431412
0.424172
0.414803
0.404952
0.395107
0.38562
0.376546
0.367689
0.35925
0.351271
0.341024
0.331176
0.323317
0.317947
0.314403
0.312169
0.309415
0.303356
0.295425
0.288412
0.283722
0.00200712
0.0017792
0.0014775
0.00151853
0.00240312
0.0031464
0.00297493
0.00245091
0.00207448
0.0018215
0.00162251
0.000506142
0.000504629
0.000502606
0.00050007
0.000497167
0.000493323
0.000490627
0.000489654
0.000488092
0.00048663
0.000485374
0.000484437
0.00128918
0.00137343
0.000878049
0.000959186
0.00277904
0.00354801
0.00362042
0.00411351
0.00413083
0.00413007
0.00414421
0.00414424
0.0041437
0.00403851
0.00368244
0.00331955
0.00285338
0.00227528
0.000907545
0.00120043
0.00120188
0.0011247
0.00103174
0.000772362
0.000797126
0.000594966
0.000721194
0.000606802
0.000283873
0.000365167
0.000330698
0.000373351
0.00041953
0.000432611
0.000413925
0.000370701
0.000223303
0.000150113
5.9991e-05
6.24332e-05
0.000306108
0.000781099
0.000449844
0.000518667
0.000691537
0.000656006
5.40166e-05
2.08171e-05
0.00012416
0.000177206
4.15312e-05
1.46411e-05
1.39044e-06
3.90728e-07
3.46791e-08
1.73251e-08
1.73248e-08
1.76132e-08
1.82011e-08
1.85006e-08
1.87196e-08
2.60055e-05
0.000110717
7.28945e-05
4.42834e-05
8.39069e-05
0.000232954
0.000115401
8.20489e-05
3.70694e-09
6.75877e-09
2.2374e-08
1.75364e-08
4.60853e-09
2.20434e-06
3.28498e-06
2.39909e-06
4.26639e-08
1.91506e-08
9.09922e-07
1.72185e-06
3.01537e-07
1.88955e-08
5.56863e-06
7.88037e-05
0.000110763
4.4134e-05
4.41632e-05
8.31569e-05
4.77438e-05
9.3788e-09
2.67579e-07
2.92289e-09
3.63606e-09
1.97002e-08
1.15086e-08
5.94058e-10
1.5591e-07
3.28468e-06
2.42959e-06
5.79036e-08
1.04406e-07
2.91367e-06
3.16715e-06
1.81902e-06
3.75125e-08
7.43056e-06
4.47143e-05
3.15677e-05
2.50048e-05
4.4377e-05
4.08037e-05
2.41119e-06
9.24771e-09
9.17715e-09
2.92289e-09
5.99665e-08
1.06815e-07
2.3819e-08
5.83046e-10
5.58632e-10
3.42083e-07
2.59523e-07
2.46786e-08
1.71072e-07
3.16736e-06
3.16739e-06
1.60556e-06
4.17804e-08
1.13455e-06
1.06804e-09
1.0676e-09
1.78483e-07
7.08776e-06
4.44084e-06
1.81427e-08
1.80596e-08
4.9146e-08
3.12479e-09
1.21104e-07
1.21104e-07
4.5403e-08
5.59344e-10
5.57734e-10
5.58632e-10
1.07538e-09
7.83923e-08
1.20487e-06
2.97895e-06
1.06282e-06
1.69776e-07
7.59207e-09
2.75948e-08
1.0636e-09
2.00485e-08
2.95582e-07
4.5008e-07
1.86548e-08
1.82016e-08
3.19742e-08
6.20628e-08
1.74425e-09
5.57309e-08
1.14423e-07
2.7693e-08
5.57734e-10
5.57734e-10
5.57734e-10
4.93589e-07
1.7324e-06
1.77283e-06
1.0177e-06
6.26926e-09
1.1298e-09
2.51721e-09
1.00422e-09
9.4832e-10
3.06889e-07
5.13406e-06
6.23369e-06
4.78413e-06
4.95566e-07
1.72557e-08
1.94022e-08
8.44525e-10
9.49958e-10
1.5059e-08
3.64341e-09
6.18007e-10
5.57734e-10
1.16028e-07
1.83778e-06
1.83778e-06
1.60475e-06
1.69402e-08
1.12481e-09
1.12459e-09
1.12439e-09
6.53981e-11
6.58969e-11
1.02102e-06
6.23369e-06
6.23369e-06
6.23369e-06
3.31169e-06
1.72262e-08
1.72062e-08
9.14725e-09
1.93066e-09
1.1391e-10
1.62839e-10
7.18386e-10
5.57738e-10
1.57348e-07
1.32034e-06
1.43097e-06
2.17873e-07
6.8032e-10
1.41625e-09
1.43324e-09
5.62049e-10
6.53852e-11
9.37723e-11
3.42774e-08
1.74776e-06
5.10696e-06
4.50902e-06
7.9652e-08
1.72561e-08
1.81259e-08
5.97233e-08
1.4094e-07
2.93313e-11
2.05808e-10
1.20038e-09
1.15861e-08
8.44246e-08
5.47318e-08
6.57609e-08
4.65004e-10
6.8024e-10
1.36228e-09
1.0387e-09
1.82966e-10
6.53847e-11
7.30056e-11
5.37694e-11
5.37699e-11
5.37699e-11
5.37716e-11
1.97714e-09
2.7554e-08
2.76715e-08
1.59275e-07
1.65927e-07
2.93293e-11
2.38295e-10
2.49607e-09
9.57787e-09
2.33079e-09
3.38711e-11
2.3443e-11
4.53092e-11
3.85479e-10
5.88893e-10
2.78124e-10
5.49911e-11
6.08144e-11
6.59124e-11
6.46381e-11
5.37694e-11
5.37716e-11
5.37758e-11
2.35195e-09
1.54114e-08
1.75918e-08
2.76471e-07
1.6357e-07
2.76114e-11
3.30443e-10
1.90471e-09
2.25662e-09
3.41695e-11
3.1522e-11
1.41721e-11
1.30097e-11
6.20968e-11
5.53295e-11
1.60829e-11
1.42167e-11
4.04933e-11
5.92265e-11
7.40343e-11
7.72975e-11
6.8956e-11
5.37698e-11
8.24561e-11
1.48091e-10
4.01916e-10
2.7648e-07
1.30289e-07
2.75902e-11
2.51233e-10
6.86911e-10
1.52414e-10
1.98487e-11
2.33858e-11
5.54726e-12
9.44597e-13
1.35622e-12
5.2911e-13
1.0165e-13
1.24499e-12
1.21961e-11
3.29873e-11
5.15709e-11
5.62166e-11
5.14756e-11
3.93223e-11
2.35285e-11
9.63352e-12
2.33417e-11
2.76492e-07
9.77656e-08
2.75834e-11
9.71532e-11
1.22914e-10
1.96124e-11
6.59128e-12
6.21527e-12
3.67818e-13
-4.28084e-13
-6.58478e-13
-8.13798e-13
-7.4891e-13
-2.15853e-13
6.78475e-13
5.00587e-12
1.09239e-11
1.25135e-11
1.20974e-11
1.06398e-11
7.87106e-12
4.07792e-12
2.28822e-12
2.76503e-07
1.26686e-07
2.75831e-11
3.09352e-11
2.95123e-11
6.90011e-12
4.90439e-13
2.0031e-13
-5.91836e-13
-1.20364e-12
-1.45616e-12
-1.46586e-12
-1.29749e-12
-9.45808e-13
-4.77711e-13
5.16336e-14
2.70684e-13
3.52529e-13
3.5865e-13
3.7054e-13
3.80737e-13
3.59257e-13
3.32158e-13
2.76504e-07
2.70144e-07
2.75834e-11
2.75831e-11
2.83166e-11
5.8891e-12
-8.9267e-15
-3.91855e-13
-9.89547e-13
-1.39226e-12
-1.54416e-12
-1.49984e-12
-1.33241e-12
-1.08518e-12
-8.07311e-13
-5.30172e-13
-3.45959e-13
-2.39032e-13
-1.6941e-13
-1.09539e-13
-5.75281e-14
-1.45197e-14
-9.64691e-16
2.76504e-07
2.76502e-07
2.75831e-11
3.17442e-11
3.80693e-11
6.24397e-12
-1.24931e-14
-3.85707e-13
-8.10159e-13
-1.08045e-12
-1.17545e-12
-1.14007e-12
-1.02276e-12
-8.60642e-13
-6.85281e-13
-5.19636e-13
-3.83746e-13
-2.81981e-13
-2.0564e-13
-1.46903e-13
-1.00871e-13
-6.5004e-14
-3.88249e-14
2.76504e-07
1.99263e-07
2.75835e-11
5.94177e-11
7.11868e-11
8.6709e-12
8.37991e-13
1.72333e-13
-2.13898e-13
-4.73082e-13
-6.12501e-13
-6.47544e-13
-6.11432e-13
-5.34241e-13
-4.39508e-13
-3.44753e-13
-2.6053e-13
-1.91289e-13
-1.3755e-13
-9.77456e-14
-6.85273e-14
-4.68623e-14
-3.04566e-14
1.26899e-07
1.44654e-08
3.29455e-11
1.53762e-10
1.1636e-10
1.56353e-11
4.49868e-12
3.11252e-12
1.68268e-12
5.80178e-13
-2.02767e-14
-1.93355e-13
-2.61749e-13
-2.62136e-13
-2.30186e-13
-1.87063e-13
-1.44063e-13
-1.05622e-13
-7.47226e-14
-5.1886e-14
-3.58523e-14
-2.45874e-14
-1.63883e-14
9.79926e-11
8.1092e-11
1.50406e-10
2.43855e-10
1.51451e-10
2.72396e-11
1.30272e-11
1.06954e-11
7.43429e-12
4.06292e-12
1.67369e-12
4.01146e-13
-1.92847e-14
-9.16016e-14
-9.99611e-14
-8.69727e-14
-6.95431e-14
-5.12653e-14
-3.56735e-14
-2.3957e-14
-1.59501e-14
-1.06178e-14
-7.06712e-15
7.35144e-11
8.09562e-11
2.25402e-10
2.52255e-10
1.54643e-10
4.03336e-11
2.62819e-11
2.28465e-11
1.72617e-11
1.07652e-11
5.19887e-12
1.78548e-12
3.46998e-13
-4.58363e-15
-3.63088e-14
-3.5644e-14
-3.03125e-14
-2.26198e-14
-1.54898e-14
-1.00334e-14
-6.35383e-15
-3.99197e-15
-2.55807e-15
7.35144e-11
8.06545e-11
2.15007e-10
2.35952e-10
1.33905e-10
5.03682e-11
4.12864e-11
3.71006e-11
2.88713e-11
1.96591e-11
1.01818e-11
3.64011e-12
7.53216e-13
5.09601e-14
-1.11907e-14
-1.33381e-14
-1.22342e-14
-9.27326e-15
-6.27022e-15
-3.92661e-15
-2.35874e-15
-1.37803e-15
-8.13064e-16
7.51863e-11
6.59967e-11
1.3423e-10
1.40607e-10
8.2331e-11
5.36807e-11
5.17129e-11
4.95039e-11
3.97706e-11
2.8292e-11
1.52283e-11
5.28056e-12
8.99659e-13
5.30733e-14
-2.85135e-15
-4.76801e-15
-4.69139e-15
-3.59654e-15
-2.38817e-15
-1.44076e-15
-8.21582e-16
-4.50138e-16
-2.46102e-16
9.82089e-11
5.08302e-11
5.08564e-11
5.08321e-11
5.09043e-11
5.33697e-11
5.37972e-11
5.50271e-11
4.79363e-11
3.45081e-11
1.87637e-11
5.97112e-12
8.6418e-13
3.56698e-14
-4.23311e-16
-1.67303e-15
-1.73312e-15
-1.32707e-15
-8.57906e-16
-4.98277e-16
-2.73536e-16
-1.44815e-16
-7.50356e-17
2.73591e-10
5.08305e-11
5.08302e-11
5.08305e-11
5.08308e-11
5.15697e-11
5.3336e-11
5.54049e-11
5.0624e-11
3.69479e-11
1.97346e-11
5.87826e-12
6.6202e-13
1.3811e-14
0
-5.87837e-16
-6.25789e-16
-4.69975e-16
-2.93263e-16
-1.63963e-16
-8.67767e-17
-4.4031e-17
-2.1731e-17
1.18112e-09
1.04947e-08
1.30227e-07
1.97614e-07
7.42676e-09
5.15044e-11
5.15157e-11
5.53029e-11
5.04373e-11
3.68785e-11
1.91997e-11
5.00749e-12
3.66572e-13
3.4614e-15
3.34204e-19
-2.12547e-16
-2.22664e-16
-1.61003e-16
-9.59762e-17
-5.13195e-17
-2.60468e-17
-1.27027e-17
-5.99044e-18
1.18049e-09
1.56829e-07
8.14827e-07
8.30551e-07
2.07603e-07
4.9019e-11
4.89833e-11
5.42842e-11
4.88179e-11
3.49824e-11
1.66351e-11
3.36865e-12
1.49121e-13
6.65798e-16
7.62186e-20
-7.89346e-17
-7.81897e-17
-5.34436e-17
-3.00402e-17
-1.52234e-17
-7.32134e-18
-3.3955e-18
-1.50262e-18
1.18194e-09
2.47436e-07
8.30559e-07
8.30561e-07
4.03515e-07
6.70288e-11
4.82416e-11
5.18062e-11
4.50594e-11
3.01567e-11
1.21318e-11
1.73548e-12
4.38947e-14
9.38472e-17
-3.86319e-18
-3.00205e-17
-2.69811e-17
-1.71093e-17
-8.92364e-18
-4.20413e-18
-1.88441e-18
-8.18074e-19
-3.35358e-19
1.18412e-09
1.55693e-07
8.30561e-07
8.3056e-07
2.74934e-07
1.29608e-10
4.81995e-11
4.82006e-11
3.91028e-11
2.30714e-11
7.17785e-12
6.42541e-13
8.19393e-15
7.96181e-18
-5.47377e-18
-1.14188e-17
-9.05179e-18
-5.22061e-18
-2.47829e-18
-1.06187e-18
-4.38526e-19
-1.74616e-19
-6.52807e-20
1.70275e-09
2.30449e-08
3.78378e-07
3.21638e-07
3.71825e-08
1.42583e-10
5.27343e-11
4.37896e-11
3.08405e-11
1.4941e-11
3.16832e-12
1.48893e-13
7.90896e-16
2.95035e-19
-3.22832e-18
-4.23695e-18
-2.92158e-18
-1.50035e-18
-6.34248e-19
-2.41172e-19
-9.01103e-20
-3.23061e-20
-1.08236e-20
2.86933e-09
1.90697e-09
7.63554e-10
2.53239e-10
1.08693e-10
1.08609e-10
6.06534e-11
3.728e-11
2.09775e-11
7.39805e-12
8.91024e-13
1.76676e-14
3.1953e-17
2.79662e-21
-1.53122e-18
-1.53104e-18
-9.04753e-19
-4.03848e-19
-1.47841e-19
-4.8461e-20
-1.59899e-20
-5.05691e-21
-1.48685e-21
2.99458e-09
1.95402e-09
6.77907e-10
2.9001e-10
1.7064e-10
1.11442e-10
5.62696e-11
2.69041e-11
1.09895e-11
2.34619e-12
1.26647e-13
8.49951e-16
4.59953e-19
-2.12586e-19
-6.91147e-19
-5.42552e-19
-2.70407e-19
-1.02207e-19
-3.13335e-20
-8.52622e-21
-2.40407e-21
-6.52635e-22
-1.63844e-22
2.21338e-09
1.93618e-09
1.1405e-09
6.04357e-10
3.05384e-10
1.24016e-10
4.47011e-11
1.47811e-11
3.65399e-12
3.64535e-13
6.82381e-15
1.35186e-17
1.78189e-21
-2.0831e-19
-2.99155e-19
-1.89494e-19
-7.88641e-20
-2.46351e-20
-6.09599e-21
-1.31192e-21
-3.0142e-22
-6.74974e-23
-1.39087e-23
4.62514e-10
9.73648e-10
9.53026e-10
6.32801e-10
3.18764e-10
1.17886e-10
2.98242e-11
5.43771e-12
5.89097e-13
1.99195e-14
1.05977e-16
6.40521e-20
-2.66627e-20
-1.27013e-19
-1.24752e-19
-6.55832e-20
-2.28581e-20
-5.8283e-21
-1.13022e-21
-1.81849e-22
-3.15063e-23
-5.43351e-24
-8.6033e-25
7.07812e-12
1.2297e-10
3.72975e-10
3.75687e-10
2.28415e-10
8.09906e-11
1.41916e-11
1.13072e-12
3.52789e-14
2.91081e-16
4.54846e-19
7.45255e-23
-3.52759e-20
-6.61575e-20
-5.05495e-20
-2.26001e-20
-6.686e-21
-1.39479e-21
-2.0931e-22
-2.39644e-23
-2.78346e-24
-3.26638e-25
-3.51242e-26
-2.78871e-26
2.27098e-12
4.19291e-11
8.68198e-11
7.00765e-11
2.73314e-11
3.59688e-12
1.15079e-13
7.47481e-16
1.29546e-18
5.18613e-22
-5.49977e-21
-2.52841e-20
-3.16103e-20
-2.00374e-20
-7.78819e-21
-1.9928e-21
-3.45315e-22
-4.02029e-23
-3.15073e-24
-2.11356e-25
-1.34365e-26
-7.52741e-28
-1.89869e-26
3.91863e-15
8.2531e-13
4.24353e-12
4.87446e-12
2.27525e-12
2.51577e-13
3.71873e-15
5.80135e-18
2.48353e-21
3.26712e-25
-6.44443e-21
-1.47027e-20
-1.42812e-20
-7.81672e-21
-2.69972e-21
-6.12373e-22
-9.12641e-23
-8.57628e-24
-4.63909e-25
-1.41162e-26
-2.65106e-28
-3.50534e-30
0.999931
0.999874
0.99983
0.99989
0.960687
0.960957
0.960835
0.96002
0.282032
0.281464
0.281275
0.281237
0.000483922
0.000483742
0.000483742
0.000483742
0.000823262
0.000643599
0.000483742
0.000483891
0.000459289
0.000458959
0.000726932
0.000746525
0.000489905
0.000489936
0.000471429
0.000438642
8.35338e-05
0.000153434
6.71465e-06
5.87187e-09
4.57072e-09
4.467e-09
4.44994e-09
5.85785e-09
8.07472e-08
5.82271e-08
4.4221e-09
4.44872e-09
5.53363e-08
4.4221e-09
4.36094e-09
5.72846e-09
2.54825e-08
5.72668e-09
4.15828e-09
7.53974e-09
1.72171e-08
8.31735e-09
4.08527e-09
9.49929e-09
1.81334e-08
1.32318e-08
4.06254e-09
7.65402e-09
9.7898e-09
1.41515e-09
3.95456e-09
4.53231e-08
1.40851e-09
1.40794e-09
4.9076e-09
3.55567e-08
1.49739e-09
2.54381e-09
2.54931e-09
9.77188e-10
1.71992e-10
2.24544e-10
8.58382e-11
6.57139e-13
1.72074e-12
7.19148e-13
5.37151e-13
8.07578e-13
3.23567e-13
3.24503e-13
3.40641e-13
3.49887e-13
1.07998e-15
7.14649e-15
1.24873e-14
1.40252e-14
-2.1653e-14
-1.68738e-14
-1.31009e-14
-1.0223e-14
-1.84542e-14
-1.48791e-14
-1.2192e-14
-1.01344e-14
-1.01595e-14
-8.01166e-15
-6.39481e-15
-5.22562e-15
-4.48537e-15
-3.44618e-15
-2.62156e-15
-2.02153e-15
-1.67176e-15
-1.26512e-15
-9.4138e-16
-6.80004e-16
-5.50317e-16
-4.0832e-16
-3.01332e-16
-2.12789e-16
-1.71625e-16
-1.22353e-16
-8.68266e-17
-6.02273e-17
-5.16395e-17
-3.54134e-17
-2.4007e-17
-1.60646e-17
-1.46075e-17
-9.68828e-18
-6.31215e-18
-4.04624e-18
-3.87596e-18
-2.46743e-18
-1.53926e-18
-9.41725e-19
-9.27208e-19
-5.62128e-19
-3.33601e-19
-1.93841e-19
-1.95527e-19
-1.1178e-19
-6.24672e-20
-3.41298e-20
-3.55309e-20
-1.89145e-20
-9.82379e-21
-4.97933e-21
-5.41713e-21
-2.64355e-21
-1.25536e-21
-5.80414e-22
-6.71148e-22
-2.94259e-22
-1.25125e-22
-5.16469e-23
-6.49648e-23
-2.49054e-23
-9.2218e-24
-3.30243e-24
-4.66089e-24
-1.50241e-24
-4.65571e-25
-1.38969e-25
-2.28658e-25
-5.82241e-26
-1.41983e-26
-3.32422e-27
-6.57638e-27
-1.18194e-27
-2.03689e-28
-3.37431e-29
-7.62414e-29
-7.54246e-30
-7.28447e-31
-6.87928e-32
-8.00057e-32
-1.81241e-33
-4.2226e-35
-1.04185e-36
0.999986
0.999995
0.999996
0.999996
0.99829
0.993367
0.991373
0.993673
0.996994
0.998239
0.998236
0.989104
0.990923
0.998456
0.998495
0.99679
0.981454
0.990939
0.99845
0.955275
0.956583
0.95901
0.959311
0.960394
0.960197
0.956268
0.951183
0.954861
0.974234
0.996067
0.997185
0.997872
0.998417
0.986263
0.986255
0.990916
0.990929
0.986221
0.281228
0.285301
0.290908
0.299569
0.31078
0.324896
0.34069
0.354993
0.363091
0.365642
0.373687
0.391303
0.399595
0.398015
0.402095
0.40744
0.415231
0.41602
0.419381
0.000483742
0.000483814
0.000483891
0.000483911
0.000484196
0.000484805
0.000485418
0.000485937
0.000579979
0.000631237
0.000813757
0.00108839
0.00107936
0.0010795
0.00120924
0.00130078
0.0013725
0.00132795
0.00172411
0.000579186
0.000568908
0.000552726
0.00117443
0.00147912
0.0014792
0.00147912
0.00146096
0.00146035
0.00145991
0.00145278
0.00111686
0.00107859
0.00107944
0.00118742
0.00120635
0.00119673
0.00117964
0.00125063
0.000746764
0.000746847
0.000746841
0.000616703
0.000806678
0.000911305
0.000798199
0.000774532
0.000772593
0.000752277
0.000700043
0.000658064
0.000640582
0.000649133
0.000694785
0.000720083
0.000692548
0.000636804
0.000663874
0.000457525
0.000472511
0.000428294
0.000350583
0.00012344
7.85401e-09
7.88599e-09
7.92485e-09
1.32672e-08
4.34234e-08
9.0309e-08
3.26106e-06
7.85603e-06
1.99465e-05
3.75517e-05
3.39968e-05
5.32684e-05
0.000116089
3.16804e-05
5.89465e-09
5.9148e-09
5.93803e-09
5.9642e-09
5.98821e-09
7.82026e-09
1.63554e-08
7.18591e-06
2.91658e-05
3.69846e-05
3.78277e-05
2.00295e-05
2.06753e-06
5.20843e-07
5.20745e-07
5.20505e-07
5.20615e-07
5.20713e-07
5.21051e-07
5.87978e-09
5.9437e-09
6.44948e-09
6.59263e-09
6.85389e-09
2.89002e-08
1.09255e-05
5.8566e-05
6.07285e-05
6.07476e-05
6.07476e-05
6.07108e-05
7.04313e-06
5.20751e-07
5.2051e-07
5.20333e-07
5.20332e-07
5.20332e-07
5.20336e-07
2.83579e-08
2.6637e-07
9.72422e-07
6.62353e-09
7.15033e-09
2.54864e-06
4.70883e-05
5.88833e-05
5.47692e-05
3.56858e-05
6.07476e-05
6.06883e-05
2.03158e-05
1.83112e-05
1.27102e-06
5.20332e-07
5.20331e-07
5.20331e-07
5.20331e-07
8.17534e-07
1.24337e-05
1.89888e-05
6.41581e-06
1.36874e-08
7.50693e-06
4.92149e-05
4.71352e-05
2.59968e-06
6.61894e-06
1.19873e-05
2.96084e-05
3.32072e-05
3.32072e-05
2.50093e-05
1.46036e-06
5.20331e-07
5.20331e-07
5.20331e-07
3.49488e-06
2.1285e-05
2.1285e-05
2.1285e-05
1.0819e-05
6.5207e-06
9.31442e-06
3.93418e-09
5.4116e-07
1.07787e-05
1.34611e-05
1.24668e-05
2.0644e-05
2.78636e-05
2.78065e-05
1.30713e-05
5.20331e-07
5.20331e-07
5.20331e-07
1.03336e-06
1.46795e-05
2.1285e-05
2.127e-05
1.93594e-05
3.00284e-06
1.39721e-09
2.47414e-09
8.00717e-07
4.13444e-06
4.16103e-06
1.83356e-10
1.83791e-10
1.76481e-09
6.86099e-06
1.4551e-05
1.42421e-05
5.12263e-06
5.20331e-07
2.52705e-08
7.3887e-07
8.81704e-06
9.73652e-06
1.01375e-09
1.01323e-09
3.27797e-09
4.72409e-08
5.21122e-08
1.83049e-10
1.83007e-10
1.83133e-10
1.83356e-10
2.54838e-10
3.38001e-06
1.51587e-05
1.51587e-05
1.51587e-05
1.49872e-05
6.2496e-08
1.69528e-08
1.90444e-09
1.82458e-09
1.81501e-09
1.74049e-09
5.13056e-09
1.71791e-08
1.02594e-08
1.83007e-10
3.58718e-10
2.01387e-10
2.01497e-10
9.57756e-10
2.0018e-07
5.46924e-06
1.02832e-05
7.61213e-06
4.36256e-06
6.24388e-08
7.53429e-08
9.83996e-08
7.67498e-08
9.46156e-09
3.02095e-10
3.0161e-10
1.99249e-10
1.99208e-10
5.99224e-10
9.43913e-10
4.47733e-10
1.4696e-09
7.67431e-09
8.28214e-09
5.3393e-12
5.34158e-12
5.3393e-12
5.40026e-12
1.49374e-11
9.61042e-08
2.79477e-07
2.79562e-07
2.0334e-07
3.19957e-08
1.99419e-10
1.99208e-10
6.79379e-10
2.50654e-09
1.25894e-09
4.79003e-10
1.59622e-10
4.51321e-11
2.50827e-11
2.50811e-11
7.15496e-12
3.00427e-11
6.90132e-12
5.68136e-13
2.00633e-08
2.03585e-07
2.79657e-07
2.79657e-07
2.76254e-07
1.99433e-10
4.25548e-10
2.24446e-08
4.84943e-08
2.80295e-08
2.04061e-09
6.36694e-11
1.5438e-10
1.49146e-10
9.77478e-11
2.55265e-10
1.69985e-08
4.25211e-07
5.68068e-13
2.45243e-14
2.37943e-18
8.49599e-08
2.25787e-07
1.83158e-07
2.94655e-08
4.34364e-09
6.37836e-08
7.34631e-08
7.34631e-08
1.98808e-08
6.35336e-11
1.02265e-10
1.30783e-10
5.76202e-11
1.07631e-09
1.7419e-06
1.06889e-05
2.2389e-13
4.893e-14
1.82848e-18
-1.97215e-34
1.6255e-19
9.60899e-18
6.38491e-10
1.78582e-08
5.85243e-08
7.34631e-08
6.85222e-08
2.17935e-08
6.34087e-11
6.34e-11
4.42848e-11
1.505e-11
6.06623e-10
5.45673e-06
1.34862e-05
1.17005e-14
4.73138e-15
9.64884e-16
-9.59568e-17
-6.06517e-36
2.72773e-19
9.60899e-18
5.52059e-17
5.59406e-15
6.13066e-09
6.00472e-09
2.30685e-13
2.79736e-10
4.0953e-11
1.18354e-11
3.52691e-12
1.13648e-12
6.04636e-06
1.34862e-05
-8.08871e-15
-3.98571e-15
-1.96905e-15
-5.22077e-16
2.64196e-16
1.6843e-14
6.28561e-14
7.90055e-14
7.9e-14
7.91142e-14
7.93642e-14
2.30407e-13
8.42122e-13
3.51293e-12
2.93431e-12
1.79215e-12
1.13223e-12
2.4713e-06
1.34862e-05
-8.42684e-15
-5.13408e-15
-3.03936e-15
-1.69386e-15
-7.93464e-16
-9.72312e-17
7.7603e-16
3.88382e-14
2.71388e-13
4.38613e-13
4.19891e-13
1.19223e-12
1.91391e-12
1.02953e-12
6.34182e-13
1.34881e-12
1.13163e-12
1.00385e-07
1.34736e-05
-4.34374e-15
-2.76404e-15
-1.72873e-15
-1.06032e-15
-6.30581e-16
-3.52273e-16
-1.60145e-16
0
2.81531e-15
4.17531e-14
9.43278e-14
2.48595e-13
6.50597e-13
2.32348e-13
2.02574e-13
1.13086e-12
1.13089e-12
1.13163e-12
3.72553e-06
-1.61113e-15
-1.00944e-15
-6.27324e-16
-3.85822e-16
-2.33333e-16
-1.41639e-16
-8.38806e-17
-4.36337e-17
-2.66897e-18
1.44446e-16
9.68216e-16
3.28543e-15
8.62162e-15
1.81764e-14
6.46703e-14
1.08996e-12
1.46029e-12
1.16501e-12
1.16508e-12
-4.858e-16
-2.93205e-16
-1.74604e-16
-1.03727e-16
-6.22035e-17
-3.75732e-17
-2.24325e-17
-1.24961e-17
-4.88173e-18
4.48276e-18
4.49354e-17
2.30044e-16
1.16159e-15
5.71071e-15
3.89309e-14
1.14673e-12
3.28449e-12
1.16508e-12
1.16594e-12
-1.26147e-16
-7.16571e-17
-4.14784e-17
-2.42796e-17
-1.42214e-17
-8.22982e-18
-4.64321e-18
-2.30051e-18
-5.61714e-19
2.9755e-18
2.1839e-17
1.22746e-16
7.23731e-16
3.98175e-15
3.23804e-14
1.19094e-12
4.43916e-12
1.16594e-12
7.00494e-07
-3.0771e-17
-1.59927e-17
-8.56416e-18
-4.66985e-18
-2.54789e-18
-1.27907e-18
-4.76494e-19
5.32355e-21
5.54295e-19
3.68556e-18
1.99767e-17
1.0785e-16
6.28911e-16
3.46594e-15
3.1304e-14
1.28185e-12
4.58913e-12
1.1707e-12
2.81071e-06
-7.22305e-18
-3.32163e-18
-1.5739e-18
-7.54123e-19
-3.20087e-19
9.15716e-21
6.35124e-19
3.48655e-18
1.31991e-17
3.52773e-17
8.03291e-17
1.9253e-16
7.1635e-16
3.56458e-15
4.06451e-14
1.16043e-12
4.58798e-12
1.17282e-12
2.81075e-06
-1.6577e-18
-6.79181e-19
-2.80266e-19
-1.01509e-19
7.33557e-20
1.47396e-18
9.12625e-18
4.06957e-17
1.4305e-16
3.99855e-16
8.98959e-16
1.82685e-15
4.56829e-15
1.54816e-14
8.98518e-14
1.08932e-12
4.39302e-12
1.17385e-12
2.76983e-06
-3.56456e-19
-1.3244e-19
-4.73537e-20
4.2358e-21
7.58354e-19
7.82845e-18
5.09796e-17
2.49074e-16
9.53601e-16
2.85863e-15
6.77322e-15
1.55418e-14
4.42562e-14
1.38751e-13
3.94593e-13
1.5426e-12
4.49436e-12
1.17531e-12
4.54471e-07
-6.77459e-20
-2.30102e-20
-6.33271e-21
7.28843e-20
1.87245e-18
2.60563e-17
2.16014e-16
1.17296e-15
4.91967e-15
1.70206e-14
5.11305e-14
1.53454e-13
4.25566e-13
1.01098e-12
1.8671e-12
3.2779e-12
5.94053e-12
1.5267e-12
2.02299e-10
-1.08913e-20
-3.35009e-21
-7.98383e-23
1.01703e-19
3.64104e-18
6.89321e-17
7.5375e-16
4.7734e-15
2.41104e-14
1.0925e-13
4.90875e-13
1.7831e-12
3.77393e-12
5.97911e-12
7.25483e-12
8.61546e-12
8.48858e-12
1.52671e-12
1.75481e-06
-1.42691e-21
-3.87154e-22
9.61649e-22
1.15029e-19
5.5091e-18
1.37172e-16
2.08978e-15
1.82912e-14
1.26128e-13
7.37799e-13
3.87166e-12
1.28655e-11
2.17872e-11
2.60337e-11
2.39588e-11
2.6702e-11
2.37434e-11
1.54712e-12
2.83993e-06
-1.46357e-22
-3.26484e-23
7.15558e-22
1.14545e-19
6.58345e-18
2.01119e-16
4.28742e-15
6.01516e-14
5.39779e-13
3.39237e-12
1.58924e-11
4.4016e-11
6.65778e-11
7.04577e-11
6.38872e-11
8.36306e-11
1.09708e-10
1.55952e-12
2.83997e-06
-1.11798e-23
-1.40353e-24
3.15825e-22
7.57657e-20
6.72985e-18
2.2758e-16
6.27685e-15
1.37529e-13
1.38758e-12
8.43514e-12
3.34421e-11
8.06331e-11
1.11435e-10
1.12971e-10
1.21092e-10
2.16951e-10
3.34238e-10
1.59198e-12
2.83972e-06
-5.94729e-25
3.03114e-25
1.32674e-22
3.24672e-20
4.613e-18
2.14987e-16
7.00834e-15
2.05363e-13
2.13334e-12
1.23494e-11
4.3082e-11
9.78521e-11
1.24384e-10
1.23697e-10
1.79577e-10
6.76083e-10
7.98128e-10
1.72038e-12
2.56935e-06
-1.99565e-26
9.60521e-26
4.12251e-23
1.20546e-20
1.84079e-18
1.04977e-16
5.95414e-15
2.26161e-13
2.35253e-12
1.32163e-11
4.31143e-11
8.65651e-11
1.19927e-10
7.68841e-11
3.02024e-10
4.05542e-09
3.14117e-09
2.07304e-12
1.61496e-06
-3.56909e-28
1.8994e-26
7.43557e-24
3.19367e-21
5.74938e-19
3.0078e-17
2.14139e-15
1.64048e-13
1.69021e-12
8.54444e-12
2.23161e-11
3.58077e-11
6.28637e-11
8.5565e-12
7.51432e-10
1.0392e-08
9.34933e-09
3.54399e-12
1.60074e-06
-2.35889e-30
1.78882e-27
6.9124e-25
4.55337e-22
1.08373e-19
6.13437e-18
3.77261e-16
4.23808e-14
4.26786e-13
1.96309e-12
4.49686e-12
7.04875e-12
1.17184e-11
1.47875e-16
1.28492e-09
1.11755e-08
1.11722e-08
3.04656e-09
1.60156e-06
-2.80629e-33
1.07058e-31
1.27164e-26
2.98176e-23
7.98373e-21
5.47594e-19
3.50857e-17
4.08641e-15
3.97363e-14
1.7241e-13
3.8305e-13
6.18496e-13
8.73126e-13
4.26801e-20
4.81717e-10
5.71993e-09
6.07271e-09
2.58355e-22
1.60134e-06
-1.17067e-38
-1.28745e-40
5.18441e-34
1.4281e-28
4.98558e-25
2.25969e-22
7.35816e-20
9.78124e-18
7.86778e-17
3.56418e-16
8.72682e-16
1.44293e-15
7.33946e-16
0
1.32542e-11
-4.03897e-31
0
0
1.36316e-06
)
;

boundaryField
{
    leftWall
    {
        type            zeroGradient;
    }
    rightWall
    {
        type            zeroGradient;
    }
    lowerWall
    {
        type            zeroGradient;
    }
    atmosphere
    {
        type            inletOutlet;
        inletValue      uniform 0;
        value           nonuniform List<scalar> 
46
(
0
3.91863e-15
8.2531e-13
4.24353e-12
4.87446e-12
2.27525e-12
2.51577e-13
3.71873e-15
5.80135e-18
2.48353e-21
3.26712e-25
-6.44443e-21
-1.47027e-20
-1.42812e-20
-7.81672e-21
-2.69972e-21
-6.12373e-22
-9.12641e-23
-8.57628e-24
-4.63909e-25
0
0
0
0
0
0
0
0
0
0
0
0
0
0
0
0
0
0
0
0
0
0
0
0
0
1.36316e-06
)
;
    }
    defaultFaces
    {
        type            empty;
    }
}


// ************************************************************************* //
