/*--------------------------------*- C++ -*----------------------------------*\
  =========                 |
  \\      /  F ield         | OpenFOAM: The Open Source CFD Toolbox
   \\    /   O peration     | Website:  https://openfoam.org
    \\  /    A nd           | Version:  9
     \\/     M anipulation  |
\*---------------------------------------------------------------------------*/
FoamFile
{
    format      ascii;
    class       surfaceScalarField;
    location    "1.81";
    object      alphaPhi0.water;
}
// * * * * * * * * * * * * * * * * * * * * * * * * * * * * * * * * * * * * * //

dimensions      [0 3 -1 0 0 0 0];

internalField   nonuniform List<scalar> 
4432
(
-1.23632e-06
1.23632e-06
-1.11627e-06
-1.2005e-07
-4.94439e-07
-6.2183e-07
2.03104e-07
-6.97545e-07
8.53975e-07
-6.50871e-07
1.4177e-06
-5.63728e-07
1.88774e-06
-4.70042e-07
2.26835e-06
-3.80607e-07
2.56573e-06
-2.97383e-07
2.78538e-06
-2.19646e-07
2.93424e-06
-1.48859e-07
3.01804e-06
-8.38083e-08
3.03295e-06
-1.49113e-08
2.95854e-06
7.44184e-08
2.75377e-06
2.04766e-07
2.35724e-06
3.96527e-07
1.70178e-06
6.55466e-07
5.47249e-07
1.14271e-06
-1.43238e-06
1.97485e-06
-3.6583e-06
2.20021e-06
-4.85591e-06
1.19094e-06
-3.99699e-06
-8.51072e-07
-4.00241e-06
-6.04631e-07
1.84095e-06
-3.73767e-07
-3.50918e-07
7.40408e-08
-1.06964e-06
5.84414e-07
-1.20792e-06
1.08661e-06
-1.15307e-06
1.54424e-06
-1.02136e-06
1.94037e-06
-8.66174e-07
2.26859e-06
-7.08824e-07
2.52891e-06
-5.57707e-07
2.72479e-06
-4.15525e-07
2.86038e-06
-2.84448e-07
2.93673e-06
-1.6016e-07
2.94832e-06
-2.65052e-08
2.87899e-06
1.43753e-07
2.69813e-06
3.85626e-07
2.36097e-06
7.33695e-07
1.79136e-06
1.22508e-06
9.28248e-07
1.99512e-06
-2.22836e-07
3.12091e-06
-1.48065e-06
3.45275e-06
-2.42732e-06
2.13079e-06
-2.44376e-06
-8.36591e-07
-6.52107e-06
-9.66845e-08
1.93764e-06
1.03015e-07
-5.50622e-07
4.33408e-07
-1.40003e-06
8.2674e-07
-1.60125e-06
1.23031e-06
-1.55664e-06
1.61369e-06
-1.40473e-06
1.95598e-06
-1.20847e-06
2.24567e-06
-9.98517e-07
2.47927e-06
-7.91301e-07
2.65812e-06
-5.94377e-07
2.78465e-06
-4.10974e-07
2.85838e-06
-2.33888e-07
2.87384e-06
-4.19661e-08
2.81913e-06
1.98466e-07
2.67342e-06
5.31332e-07
2.4055e-06
1.00162e-06
1.9728e-06
1.65777e-06
1.37519e-06
2.59301e-06
7.31435e-07
3.75947e-06
4.52968e-08
4.1337e-06
-6.9544e-07
2.87359e-06
-1.08826e-06
-4.47874e-07
-7.6093e-06
2.44018e-07
1.69362e-06
4.3775e-07
-7.44357e-07
6.95134e-07
-1.65741e-06
1.00436e-06
-1.91048e-06
1.33519e-06
-1.88747e-06
1.66168e-06
-1.73122e-06
1.96157e-06
-1.50836e-06
2.22062e-06
-1.25756e-06
2.43331e-06
-1.00399e-06
2.59968e-06
-7.60744e-07
2.72127e-06
-5.32568e-07
2.79757e-06
-3.10186e-07
2.82508e-06
-6.94782e-08
2.79725e-06
2.26298e-07
2.70263e-06
6.25948e-07
2.52404e-06
1.18022e-06
2.24479e-06
1.93701e-06
1.89232e-06
2.94548e-06
1.58185e-06
4.11249e-06
1.25156e-06
4.54288e-06
7.37893e-07
3.41273e-06
1.96552e-07
9.35772e-08
-7.41271e-06
4.42313e-07
1.25131e-06
6.62191e-07
-9.64238e-07
8.78653e-07
-1.87387e-06
1.13056e-06
-2.16239e-06
1.40789e-06
-2.1648e-06
1.6907e-06
-2.01404e-06
1.95707e-06
-1.77473e-06
2.19159e-06
-1.49208e-06
2.38803e-06
-1.20043e-06
2.54588e-06
-9.18602e-07
2.66665e-06
-6.53328e-07
2.75066e-06
-3.94206e-07
2.79746e-06
-1.16276e-07
2.80652e-06
2.17247e-07
2.7757e-06
6.56764e-07
2.7009e-06
1.25502e-06
2.58264e-06
2.05527e-06
2.45899e-06
3.06913e-06
2.41831e-06
4.15317e-06
2.35812e-06
4.61542e-06
2.02075e-06
3.75396e-06
1.28333e-06
8.31182e-07
-6.12877e-06
5.4334e-07
7.07969e-07
7.9682e-07
-1.21772e-06
9.94002e-07
-2.07105e-06
1.20857e-06
-2.37695e-06
1.44786e-06
-2.40409e-06
1.69828e-06
-2.26446e-06
1.93904e-06
-2.01549e-06
2.15472e-06
-1.70776e-06
2.33939e-06
-1.3851e-06
2.49278e-06
-1.072e-06
2.61693e-06
-7.77473e-07
2.71363e-06
-4.90902e-07
2.78597e-06
-1.88617e-07
2.83985e-06
1.6336e-07
2.88214e-06
6.14475e-07
2.92012e-06
1.21704e-06
2.96646e-06
2.00894e-06
3.05885e-06
2.97674e-06
3.25094e-06
3.96107e-06
3.42973e-06
4.43663e-06
3.30052e-06
3.88316e-06
2.47931e-06
1.65223e-06
-3.64968e-06
5.83544e-07
1.24426e-07
8.61058e-07
-1.49524e-06
1.04996e-06
-2.25995e-06
1.24103e-06
-2.56802e-06
1.45438e-06
-2.61745e-06
1.68189e-06
-2.49197e-06
1.90409e-06
-2.23769e-06
2.10625e-06
-1.90992e-06
2.28361e-06
-1.56245e-06
2.43668e-06
-1.22507e-06
2.56844e-06
-9.09226e-07
2.68239e-06
-6.04856e-07
2.78541e-06
-2.91639e-07
2.89013e-06
5.8646e-08
3.01162e-06
4.92985e-07
3.16723e-06
1.06143e-06
3.37852e-06
1.79766e-06
3.68078e-06
2.67448e-06
4.1066e-06
3.53525e-06
4.55257e-06
3.99066e-06
4.74018e-06
3.69555e-06
4.01023e-06
2.38161e-06
3.60617e-07
5.87378e-07
-4.62953e-07
8.73797e-07
-1.78166e-06
1.05624e-06
-2.4424e-06
1.23197e-06
-2.74375e-06
1.42825e-06
-2.81373e-06
1.64051e-06
-2.70422e-06
1.85016e-06
-2.44735e-06
2.04362e-06
-2.10338e-06
2.21796e-06
-1.73679e-06
2.37481e-06
-1.38192e-06
2.51821e-06
-1.05263e-06
2.65346e-06
-7.40097e-07
2.79094e-06
-4.29119e-07
2.95039e-06
-1.00804e-07
3.15391e-06
2.89467e-07
3.42831e-06
7.8702e-07
3.80258e-06
1.4234e-06
4.31033e-06
2.16673e-06
4.97941e-06
2.86617e-06
5.73788e-06
3.23218e-06
6.37585e-06
3.05749e-06
5.9574e-06
2.80001e-06
6.31795e-06
-8.70174e-06
8.7186e-06
-8.422e-06
-2.66983e-07
-1.49861e-06
-6.78969e-06
5.71237e-06
-7.14519e-06
1.19168e-05
-6.11398e-06
1.70551e-05
-5.04516e-06
2.07237e-05
-3.45429e-06
2.19637e-05
-1.22437e-06
2.01014e-05
1.81524e-06
1.66871e-05
3.3986e-06
1.37091e-05
3.0808e-06
1.05528e-05
3.1571e-06
7.20554e-06
3.34797e-06
3.18931e-06
3.85308e-06
-3.80694e-07
3.53611e-06
-2.82449e-06
2.46816e-06
-4.48961e-06
1.66512e-06
-4.41581e-06
-7.37961e-08
-4.41581e-06
-5.40327e-06
1.4175e-05
-2.2449e-06
-3.48364e-06
3.16002e-06
-1.2419e-05
8.35381e-06
-1.26683e-05
1.22688e-05
-1.05786e-05
1.55572e-05
-8.79557e-06
1.74976e-05
-5.89561e-06
1.87236e-05
-2.125e-06
1.84004e-05
2.42799e-06
1.69704e-05
4.94278e-06
1.50695e-05
5.18572e-06
1.25992e-05
5.62809e-06
9.52336e-06
6.42446e-06
5.91688e-06
7.24866e-06
2.84942e-06
6.56967e-06
7.48132e-07
4.71337e-06
-1.05205e-06
3.54401e-06
-2.35698e-06
1.23113e-06
-6.77279e-06
-1.89269e-06
1.60866e-05
2.25027e-06
-7.60764e-06
6.73269e-06
-1.69015e-05
1.03413e-05
-1.62773e-05
1.29573e-05
-1.3195e-05
1.50409e-05
-1.08791e-05
1.4848e-05
-8.07323e-06
1.53365e-05
-2.70161e-06
1.50324e-05
2.63927e-06
1.51063e-05
6.13177e-06
1.41872e-05
6.60099e-06
1.23125e-05
7.50346e-06
9.88806e-06
8.84932e-06
7.22559e-06
9.74718e-06
5.04908e-06
8.71238e-06
3.60918e-06
6.27747e-06
1.99303e-06
5.17091e-06
1.8961e-07
2.99589e-06
-6.68241e-06
1.80506e-06
1.42507e-05
6.32988e-06
-1.21112e-05
9.82908e-06
-2.03973e-05
1.17978e-05
-1.82464e-05
1.2883e-05
-1.42801e-05
1.37551e-05
-1.17513e-05
1.46458e-05
-8.96414e-06
1.37774e-05
-3.40342e-06
1.32577e-05
3.04978e-06
1.25328e-05
6.7385e-06
1.30659e-05
7.2977e-06
1.16643e-05
8.90665e-06
9.83121e-06
1.06827e-05
7.93704e-06
1.1521e-05
6.56808e-06
1.0048e-05
5.80791e-06
7.10508e-06
4.56823e-06
6.42108e-06
2.43113e-06
5.14373e-06
-4.2408e-06
5.35184e-06
8.86376e-06
1.03048e-05
-1.70422e-05
1.25779e-05
-2.26597e-05
1.28779e-05
-1.85467e-05
1.25069e-05
-1.39093e-05
1.23564e-05
-1.1601e-05
1.25582e-05
-9.16619e-06
1.20286e-05
-3.67059e-06
1.11609e-05
3.31229e-06
1.09129e-05
6.86385e-06
1.18503e-05
8.06802e-06
1.08802e-05
9.88432e-06
9.61347e-06
1.19496e-05
8.48377e-06
1.26273e-05
7.70747e-06
1.08872e-05
7.42604e-06
7.44409e-06
6.43447e-06
6.51195e-06
4.27491e-06
6.65138e-06
2.35004e-07
8.94298e-06
-5.78874e-08
1.42031e-05
-2.23048e-05
1.48543e-05
-2.33111e-05
1.34695e-05
-1.71621e-05
1.17572e-05
-1.21972e-05
1.0717e-05
-1.05611e-05
1.0415e-05
-8.86456e-06
1.00584e-05
-3.58381e-06
9.73061e-06
3.26989e-06
1.00525e-05
7.30984e-06
1.05576e-05
8.34845e-06
1.00195e-05
1.04226e-05
9.3106e-06
1.26587e-05
8.74341e-06
1.31946e-05
8.45807e-06
1.11728e-05
7.81051e-06
7.3277e-06
7.30499e-06
6.60779e-06
5.77136e-06
8.06649e-06
6.42402e-06
1.35857e-05
-1.36428e-05
1.78086e-05
-2.65291e-05
1.64304e-05
-2.19332e-05
1.34645e-05
-1.41963e-05
1.05802e-05
-9.31286e-06
8.80106e-06
-8.78229e-06
8.11287e-06
-8.17653e-06
7.81439e-06
-3.4098e-06
8.19634e-06
2.7237e-06
8.80757e-06
6.70303e-06
9.14153e-06
8.01471e-06
9.08217e-06
1.04821e-05
8.94489e-06
1.27961e-05
8.87715e-06
1.32625e-05
8.93301e-06
1.11171e-05
8.70891e-06
7.09524e-06
8.55717e-06
6.51217e-06
7.46197e-06
9.04507e-06
1.40707e-05
1.92475e-05
-3.2891e-05
2.05443e-05
-2.78272e-05
1.70473e-05
-1.84345e-05
1.27855e-05
-9.92581e-06
8.94597e-06
-5.46754e-06
6.5865e-06
-6.422e-06
5.64285e-06
-7.23308e-06
5.06178e-06
-2.78461e-06
4.85986e-06
2.045e-06
5.74052e-06
4.33731e-06
7.07412e-06
5.55646e-06
7.33016e-06
6.87858e-06
8.20857e-06
9.7022e-06
8.9664e-06
1.25048e-05
9.27723e-06
1.08065e-05
9.73274e-06
6.63972e-06
1.02202e-05
5.95879e-06
9.34841e-06
1.09902e-05
2.42289e-05
1.19151e-06
-1.65447e-06
1.77842e-06
-2.36859e-06
2.13542e-06
-2.79941e-06
2.47064e-06
-3.07899e-06
2.85125e-06
-3.19434e-06
3.27247e-06
-3.12542e-06
3.69333e-06
-2.86819e-06
4.08922e-06
-2.49924e-06
4.46329e-06
-2.11082e-06
4.82181e-06
-1.74042e-06
5.17785e-06
-1.40865e-06
5.54681e-06
-1.10903e-06
5.96304e-06
-8.45339e-07
6.48451e-06
-6.22274e-07
7.18867e-06
-4.1469e-07
8.15884e-06
-1.83142e-07
9.48025e-06
1.01993e-07
1.12176e-05
4.29343e-07
1.3461e-05
6.22814e-07
1.62053e-05
4.8784e-07
1.94418e-05
-1.78966e-07
2.34972e-05
-1.25789e-06
-3.11077e-06
3.29143e-05
8.5528e-07
-1.6235e-06
1.2907e-06
-1.81703e-06
1.61994e-06
-2.04644e-06
1.94608e-06
-2.28487e-06
2.29784e-06
-2.45484e-06
2.68413e-06
-2.51299e-06
3.08766e-06
-2.41415e-06
3.50451e-06
-2.21106e-06
3.9323e-06
-1.97687e-06
4.35247e-06
-1.72562e-06
4.79415e-06
-1.5106e-06
5.29006e-06
-1.33608e-06
5.88446e-06
-1.22062e-06
6.64071e-06
-1.19036e-06
7.65979e-06
-1.26405e-06
9.06012e-06
-1.43046e-06
1.09528e-05
-1.65858e-06
1.34575e-05
-1.96301e-06
1.66306e-05
-2.44934e-06
2.04901e-05
-3.2602e-06
2.49705e-05
-4.47842e-06
3.04174e-05
-6.30735e-06
-8.9522e-06
3.71847e-05
8.06214e-08
-1.57586e-12
1.49345e-07
-8.7961e-10
2.74921e-07
-7.91217e-09
4.00018e-07
-8.38307e-09
5.00651e-07
-1.78326e-09
5.98551e-07
-1.94801e-11
7.40168e-07
-4.48141e-10
9.573e-07
-9.66131e-09
1.21253e-06
-2.46407e-08
1.44142e-06
-5.8998e-09
1.68367e-06
-4.10314e-11
1.99936e-06
-3.76063e-10
2.42035e-06
-6.39576e-09
2.9338e-06
-1.25024e-08
3.57934e-06
-5.68457e-09
4.52745e-06
-1.65941e-09
5.96124e-06
-8.93921e-09
7.90053e-06
-4.35261e-08
1.01227e-05
-6.82739e-08
1.2372e-05
-4.49943e-08
1.3868e-05
-2.00144e-08
1.40899e-05
-4.62669e-08
-8.34888e-08
1.18123e-05
-9.86379e-13
-1.294e-11
-5.07173e-12
-8.87876e-10
5.002e-12
-7.95247e-09
1.53746e-11
-8.395e-09
9.15821e-12
-1.79318e-09
3.3041e-12
-2.97563e-11
2.63475e-12
-4.63606e-10
1.96226e-11
-9.71964e-09
6.38488e-11
-2.49823e-08
6.14812e-11
-6.17342e-09
5.40602e-11
-5.78553e-11
6.59741e-11
-4.11758e-10
1.1499e-10
-6.49588e-09
1.82778e-10
-1.28586e-08
2.06905e-10
-6.18253e-09
2.39525e-10
-2.00006e-09
4.04719e-10
-9.30688e-09
1.07563e-09
-4.48967e-08
2.13981e-09
-7.11562e-08
3.16869e-09
-4.86315e-08
4.13613e-09
-2.36173e-08
6.392e-09
-5.12063e-08
-8.89935e-08
8.70848e-09
-1.32824e-10
1.07533e-10
-1.63223e-08
5.34785e-10
-2.9655e-08
-1.40478e-08
-3.07334e-08
-8.61539e-09
-1.90964e-09
2.03848e-09
-3.17211e-09
1.21659e-09
-2.00044e-08
7.75591e-11
-1.17778e-07
-2.99596e-08
-1.71067e-07
-2.58476e-08
-5.21644e-09
-3.99472e-09
-5.73827e-09
4.40193e-10
-2.44951e-08
0
-1.18618e-07
-2.67016e-08
-1.64153e-07
-1.07944e-08
-5.25021e-08
1.30662e-08
-2.11711e-08
2.71041e-10
-1.22874e-07
-5.50167e-08
-1.65341e-07
-2.06712e-07
-1.4564e-07
-1.97971e-07
-4.24322e-08
-1.56281e-07
-4.37248e-08
-4.32428e-08
-1.58277e-07
-2.06505e-08
-1.31634e-08
-7.43152e-08
-7.82704e-10
6.20259e-10
-3.63186e-08
3.34472e-09
-4.56333e-08
-6.36793e-10
-5.0132e-08
-2.03954e-11
0
4.71015e-09
-7.84764e-09
8.74829e-09
-2.05065e-07
8.46729e-09
-2.22991e-07
-1.4534e-09
-2.35885e-07
-2.37276e-09
-2.32073e-07
2.77403e-09
-1.15269e-07
5.2038e-09
-2.93633e-07
-4.28433e-09
-2.94021e-07
-2.08097e-08
-2.98693e-07
-1.34054e-09
-1.38386e-07
8.38619e-09
-2.31757e-07
-1.50721e-08
-4.77704e-07
-1.88153e-07
-4.32474e-07
-2.49721e-07
-3.82022e-07
-2.46172e-07
-3.44275e-07
-1.91778e-07
-6.56495e-07
-6.57639e-08
-7.69407e-07
2.09071e-08
4.50572e-08
-4.78026e-07
-1.27791e-09
1.22049e-09
-9.17348e-10
0
-7.97059e-10
9.63794e-11
-4.43446e-09
0
-1.12104e-08
0
-1.66986e-08
1.97793e-10
-1.71524e-08
0
-1.71095e-08
0
-4.2829e-08
4.64636e-11
-3.01287e-07
3.04458e-09
-2.99595e-07
4.54455e-09
-2.95592e-07
-5.38011e-09
-2.97384e-07
-1.45643e-08
-1.42565e-07
1.64074e-10
-6.7562e-08
0
-3.72389e-07
-1.09532e-08
-4.63158e-07
-9.46074e-08
-4.60252e-07
-2.50377e-07
-4.32663e-07
-2.71501e-07
-4.87261e-07
-1.37672e-07
-1.09755e-07
-1.14486e-10
-5.8131e-08
6.63756e-10
0
0
3.66974e-11
4.23627e-10
-9.79416e-11
0
-8.55236e-12
3.87874e-12
-3.55328e-11
3.64319e-12
-1.41388e-10
0
-1.6893e-10
0
-1.31078e-10
0
-1.05449e-10
7.33799e-12
-9.88916e-11
0
-1.88988e-08
0
-9.85632e-08
0
-1.35888e-07
-2.78055e-09
-7.48407e-08
-4.46501e-12
-1.00912e-08
0
-1.25374e-09
3.35797e-12
-1.19802e-08
-5.11236e-15
-1.51656e-07
-4.43033e-14
-3.54735e-07
-4.75967e-13
-2.56722e-07
-9.35014e-12
-6.67274e-10
-1.66127e-10
-8.28681e-10
2.24874e-17
-3.53637e-10
1.05744e-10
9.75225e-11
0
1.80105e-11
0
-2.03205e-13
0
-9.28191e-13
1.48192e-12
-1.96724e-12
1.5755e-12
-6.69054e-12
7.14867e-13
-8.78977e-12
0
-9.76921e-12
0
-4.35542e-12
8.12952e-13
-1.50671e-10
9.6813e-12
-6.50815e-10
0
-4.78158e-10
0
-1.65784e-13
4.66022e-13
-4.63309e-12
-2.32645e-15
-3.42831e-12
-2.18807e-14
-2.1131e-14
-6.25867e-14
-2.05627e-14
-8.91081e-15
-3.57067e-14
-3.15481e-14
-3.5321e-13
-1.25034e-13
-6.63649e-12
-3.02025e-12
-1.1778e-10
-5.52165e-11
-1.00208e-10
-6.85585e-11
-9.60586e-11
2.00923e-11
1.1609e-12
-1.38401e-10
1.32827e-12
2.98049e-13
-2.60927e-12
0
-8.87092e-12
4.72705e-11
-1.47963e-12
8.57669e-12
-8.47431e-13
8.06498e-14
-6.1857e-13
0
0
3.5676e-13
-7.7641e-12
7.16167e-12
-3.03174e-11
9.96303e-12
-1.38931e-11
0
-4.63085e-13
1.72385e-12
-4.50924e-15
1.27049e-14
-1.04891e-14
4.26681e-17
-1.21755e-14
-2.47278e-16
-4.86828e-14
-2.53888e-14
-4.54137e-14
-8.47397e-14
-2.64463e-15
-8.0665e-14
-1.23179e-13
-1.23916e-14
-3.19702e-12
-5.01037e-14
-7.59164e-10
-2.61129e-13
-1.05984e-09
-1.45816e-12
0
-2.189e-12
-1.81263e-12
0
1.29274e-13
1.61274e-13
-2.45007e-12
3.36787e-12
-1.23624e-12
6.15513e-11
-1.10551e-13
5.98965e-12
-3.441e-14
4.29739e-15
0
2.04844e-15
0
1.23641e-13
-7.70035e-12
7.2887e-12
-1.95084e-11
8.69522e-12
-1.71409e-12
9.02949e-13
-1.32655e-14
2.48886e-14
-5.22035e-16
6.04107e-17
-1.82737e-15
3.10469e-17
-1.10352e-13
1.05222e-15
-2.30977e-13
-4.53699e-15
-1.29755e-13
-6.89756e-15
-1.71616e-14
-1.3976e-14
-3.71904e-14
-1.76465e-14
-3.96691e-14
-2.31245e-13
-8.16724e-14
-4.01157e-13
-1.54382e-12
-2.79581e-13
0
-9.92634e-13
-1.36074e-11
0
3.12311e-14
1.37655e-13
-7.35423e-13
3.25478e-12
-8.73106e-13
6.53518e-14
-3.11478e-15
1.84244e-14
-9.31365e-16
1.97491e-15
-6.10865e-16
1.68549e-15
-2.96946e-13
7.90503e-15
-1.81858e-12
0
-1.81794e-12
4.19082e-15
-2.49488e-14
4.9893e-15
-7.09048e-17
4.52018e-17
-9.73778e-18
2.1338e-20
-2.4019e-16
2.02134e-18
-5.83717e-15
1.72192e-17
-1.39848e-14
-9.39717e-17
-6.20446e-15
-2.35479e-17
-4.94224e-15
-2.58147e-16
-5.72097e-14
-4.59049e-15
-4.87645e-13
-1.83637e-13
-4.27709e-13
-8.4016e-13
0
-1.26775e-12
0
-3.38798e-12
-7.12436e-11
0
4.30112e-15
1.41876e-13
-1.87657e-14
5.19601e-13
-3.41349e-15
4.88026e-15
-4.40795e-16
1.96897e-15
-2.23328e-16
2.01305e-15
-2.67874e-16
1.72265e-15
-3.54362e-15
1.2365e-15
-8.02463e-15
1.0514e-15
-5.12495e-15
0
-4.57846e-17
0
-1.71298e-20
1.65738e-18
-1.50652e-20
1.9821e-20
-2.92503e-18
2.88107e-19
-1.96951e-17
3.52143e-18
-9.50632e-20
1.32252e-19
-2.39636e-17
3.20676e-19
-2.78499e-16
-3.95482e-18
0
-1.61851e-16
-2.07899e-13
-4.92675e-14
0
-1.19284e-12
0
-2.02066e-12
0
-7.58178e-12
-3.57805e-11
-1.95131e-10
-2.44038e-17
1.31373e-13
-2.10838e-15
2.72518e-15
-1.81953e-16
1.55657e-15
-1.24336e-16
1.90193e-15
-1.1233e-16
2.09583e-15
-9.09497e-17
1.69463e-15
-8.35715e-17
1.33788e-15
-5.08176e-17
9.53153e-16
-1.21073e-17
4.81231e-16
-8.85279e-19
1.23598e-16
9.44607e-20
1.98096e-17
6.3011e-19
-1.75431e-18
1.13404e-18
-4.57454e-18
5.03631e-19
-2.74057e-18
2.17093e-19
-6.36618e-20
-2.53951e-19
3.99078e-18
-8.20612e-18
3.99736e-18
-1.72131e-16
2.08533e-18
-2.31637e-14
-1.00501e-15
0
-2.17462e-13
-1.15559e-12
-5.60169e-13
-5.49926e-12
-2.06195e-14
-1.17562e-14
-4.26557e-17
-2.37801e-17
8.55003e-14
-2.00243e-17
1.50303e-15
-3.19295e-17
1.53376e-15
-3.80883e-17
1.84244e-15
-2.17642e-17
1.83443e-15
6.55149e-18
1.52094e-15
3.64055e-17
1.24233e-15
5.29182e-17
9.22773e-16
3.69956e-17
5.18657e-16
9.93554e-18
1.71383e-16
3.95158e-18
2.06075e-17
-1.68818e-18
-7.00877e-18
-3.73016e-18
-1.22022e-17
-3.64968e-18
-8.50275e-18
-2.05365e-18
-1.66449e-18
-2.18773e-19
6.65816e-18
2.14088e-19
1.13879e-17
-5.99685e-18
1.11703e-17
-1.01249e-15
1.48142e-18
-2.47293e-14
3.26129e-18
-1.10885e-16
-1.37035e-15
-6.51808e-17
-2.05633e-14
-1.18337e-14
-3.01166e-17
2.25608e-17
3.61624e-14
-7.87992e-19
1.42645e-15
2.73076e-18
1.52779e-15
1.76593e-17
1.63411e-15
4.43058e-17
1.50451e-15
7.2409e-17
1.28572e-15
1.01848e-16
1.06573e-15
1.10525e-16
8.12665e-16
7.39268e-17
4.83542e-16
2.16542e-17
1.72119e-16
6.12761e-18
1.34043e-17
-5.93839e-18
-1.16872e-17
-1.29647e-17
-1.83277e-17
-1.566e-17
-1.38055e-17
-1.42355e-17
-4.20231e-18
-1.00296e-17
7.38532e-18
-5.30422e-18
1.70598e-17
-1.9174e-18
2.04599e-17
-4.14932e-20
1.60416e-17
-9.31119e-19
1.10347e-17
-1.37567e-15
4.35536e-18
-1.05858e-15
2.24861e-18
-6.85199e-18
-2.34873e-17
9.18432e-17
1.03507e-14
1.33949e-17
1.41588e-15
3.26515e-17
1.50583e-15
6.01555e-17
1.52227e-15
9.46345e-17
1.3994e-15
1.23078e-16
1.19974e-15
1.41627e-16
9.35042e-16
1.37445e-16
6.55653e-16
9.09753e-17
3.74242e-16
2.5305e-17
1.30327e-16
4.54137e-18
5.67083e-18
-1.08965e-17
-1.46441e-17
-2.2653e-17
-2.14974e-17
-2.94951e-17
-1.72238e-17
-3.0588e-17
-6.53087e-18
-2.67423e-17
6.50435e-18
-1.98423e-17
1.82107e-17
-1.22489e-17
2.44275e-17
-5.47037e-18
2.42866e-17
-2.10235e-18
1.85147e-17
-3.86398e-19
9.6948e-18
-2.1453e-20
4.99825e-18
1.54356e-18
-8.41701e-18
6.21582e-17
2.51585e-15
3.10771e-17
1.39359e-15
6.4986e-17
1.4655e-15
1.02942e-16
1.44412e-15
1.44328e-16
1.32024e-15
1.73277e-16
1.13075e-15
1.73385e-16
8.42206e-16
1.40333e-16
5.24336e-16
8.08285e-17
2.55747e-16
1.99147e-17
7.64665e-17
3.08997e-18
3.06299e-18
-1.37653e-17
-1.41259e-17
-2.87874e-17
-2.07253e-17
-3.95714e-17
-1.74604e-17
-4.41854e-17
-7.4473e-18
-4.23688e-17
4.85294e-18
-3.51159e-17
1.5428e-17
-2.54611e-17
2.18115e-17
-1.59159e-17
2.3139e-17
-7.99992e-18
2.00967e-17
-2.72106e-18
1.42385e-17
-8.201e-19
7.95346e-18
3.12589e-18
-9.86955e-20
3.38721e-17
1.13753e-15
5.30505e-17
1.33999e-15
1.00233e-16
1.39115e-15
1.4401e-16
1.32356e-15
1.88959e-16
1.17771e-15
2.13566e-16
9.88936e-16
1.95384e-16
7.1339e-16
1.37619e-16
4.12111e-16
6.6326e-17
1.77499e-16
1.34378e-17
4.53674e-17
2.231e-18
1.86147e-18
-1.32727e-17
-1.08964e-17
-2.87859e-17
-1.65036e-17
-4.14244e-17
-1.44708e-17
-4.8455e-17
-6.51506e-18
-4.84141e-17
3.23969e-18
-4.22591e-17
1.09421e-17
-3.28093e-17
1.59024e-17
-2.26857e-17
1.73816e-17
-1.37155e-17
1.58475e-17
-6.87507e-18
1.23944e-17
-2.64311e-18
8.16266e-18
4.15431e-18
-6.48796e-19
3.38359e-17
9.27745e-16
8.5054e-17
1.24465e-15
1.32606e-16
1.25575e-15
1.77204e-16
1.11416e-15
2.08173e-16
9.31562e-16
2.16537e-16
7.22244e-16
1.83604e-16
4.87512e-16
1.18087e-16
2.65302e-16
5.07921e-17
1.06498e-16
8.98801e-18
2.45882e-17
1.69204e-18
1.07007e-18
-1.01661e-17
-6.82726e-18
-2.33408e-17
-1.0891e-17
-3.50082e-17
-9.8524e-18
-4.2157e-17
-4.46198e-18
-4.3184e-17
1.99235e-18
-3.90212e-17
6.64628e-18
-3.157e-17
9.70369e-18
-2.30095e-17
1.06887e-17
-1.5076e-17
9.90797e-18
-8.73676e-18
8.0957e-18
-4.26679e-18
5.90518e-18
3.76864e-18
-1.56184e-18
4.28602e-17
8.22364e-16
1.07764e-16
1.07842e-15
1.54479e-16
1.02501e-15
1.83424e-16
8.38833e-16
1.89801e-16
6.29622e-16
1.71079e-16
4.22367e-16
1.26267e-16
2.41571e-16
7.12642e-17
1.11049e-16
2.71825e-17
3.86572e-17
4.074e-18
7.32882e-18
7.54928e-19
2.16908e-19
-6.55148e-18
-3.64597e-18
-1.57695e-17
-6.05756e-18
-2.44764e-17
-5.58503e-18
-3.00754e-17
-2.44713e-18
-3.14655e-17
1.12007e-18
-2.90963e-17
3.48454e-18
-2.40971e-17
5.01421e-18
-1.80602e-17
5.47205e-18
-1.23321e-17
5.04379e-18
-7.71607e-18
4.14485e-18
-4.37652e-18
3.1384e-18
2.20547e-18
-2.16467e-18
5.07899e-17
6.92826e-16
1.13167e-16
8.25499e-16
1.54472e-16
7.15249e-16
1.58683e-16
5.39589e-16
1.39295e-16
3.50918e-16
1.02048e-16
1.92061e-16
5.8539e-17
8.30683e-17
2.50238e-17
2.6763e-17
7.06112e-18
6.3503e-18
4.91847e-19
5.34004e-19
3.33127e-20
2.10962e-20
-3.9136e-18
-1.82371e-18
-9.20171e-18
-2.93499e-18
-1.44721e-17
-2.68623e-18
-1.80128e-17
-1.09319e-18
-1.91448e-17
5.57404e-19
-1.79322e-17
1.56694e-18
-1.50035e-17
2.1923e-18
-1.1369e-17
2.34323e-18
-7.89001e-18
2.1184e-18
-5.09862e-18
1.70408e-18
-3.10834e-18
1.2789e-18
9.2075e-19
-1.77705e-18
5.05818e-17
4.8704e-16
9.85844e-17
5.08007e-16
1.17315e-16
3.95897e-16
1.06007e-16
2.63409e-16
7.60079e-17
1.42195e-16
4.17944e-17
5.87389e-17
1.63686e-17
1.70318e-17
4.34031e-18
3.26355e-18
6.06574e-19
3.41162e-19
1.8414e-19
1.29668e-19
-5.09675e-19
-2.74252e-19
-2.29323e-18
-9.04711e-19
-4.8136e-18
-1.28654e-18
-7.36611e-18
-1.11642e-18
-9.12256e-18
-3.97307e-19
-9.75058e-18
2.38599e-19
-9.16627e-18
5.96106e-19
-7.67539e-18
8.02255e-19
-5.81581e-18
8.33597e-19
-4.03976e-18
7.34455e-19
-2.61415e-18
5.73371e-19
-1.62366e-18
4.1495e-19
2.91907e-19
-9.84795e-19
3.52219e-17
2.18075e-16
6.20942e-17
2.05041e-16
6.12535e-17
1.40475e-16
4.5977e-17
7.66658e-17
2.5152e-17
3.14829e-17
9.30341e-18
8.73581e-18
2.1659e-18
1.49422e-18
2.76501e-19
1.45018e-19
1.11265e-19
3.68889e-21
-3.27737e-20
-1.98885e-20
-4.36955e-19
-2.025e-19
-1.24658e-18
-4.21521e-19
-2.3137e-18
-5.23617e-19
-3.31516e-18
-4.12281e-19
-3.94988e-18
-1.16432e-19
-4.1466e-18
8.65287e-20
-3.85735e-18
1.90089e-19
-3.20423e-18
2.42534e-19
-2.40983e-18
2.42744e-19
-1.66264e-18
2.07493e-19
-1.06523e-18
1.57811e-19
-6.52621e-19
1.10103e-19
7.33833e-20
-3.97272e-19
1.22996e-17
3.74081e-17
2.04476e-17
3.57963e-17
1.67793e-17
2.10525e-17
9.63392e-18
8.75826e-18
3.65531e-18
2.4861e-18
8.19521e-19
4.25715e-19
1.00815e-19
4.13767e-20
4.86939e-21
1.64908e-21
1.87652e-21
1.27069e-21
-6.38544e-20
-3.39059e-20
-2.57302e-19
-1.04152e-19
-5.84905e-19
-1.71705e-19
-9.68258e-19
-1.87546e-19
-1.28471e-18
-1.31621e-19
-1.45177e-18
-2.57494e-20
-1.47014e-18
2.58892e-20
-1.3288e-18
4.99241e-20
-1.07928e-18
5.96815e-20
-7.97878e-19
5.68256e-20
-5.43629e-19
4.65302e-20
-3.45422e-19
3.40382e-20
-2.0797e-19
2.27925e-20
1.43337e-20
-1.22546e-19
1.39593e-18
1.39219e-18
2.67247e-18
1.61121e-18
1.69688e-18
8.4043e-19
6.9798e-19
2.65237e-19
1.76573e-19
5.3093e-20
2.46084e-20
6.32188e-21
1.65466e-21
3.96661e-22
7.94328e-22
5.98944e-22
-6.22838e-21
-3.74463e-21
-4.08796e-20
-1.92663e-20
-1.17921e-19
-4.2239e-20
-2.28577e-19
-5.89303e-20
-3.39165e-19
-5.67158e-20
-4.13701e-19
-3.48695e-20
-4.39229e-19
-3.26254e-21
-4.24626e-19
6.1815e-21
-3.68577e-19
1.04424e-20
-2.89057e-19
1.15767e-20
-2.07284e-19
1.03719e-20
-1.37544e-19
8.04532e-21
-8.54144e-20
5.5971e-21
-5.01807e-20
3.57302e-21
2.12898e-21
-2.84003e-20
4.08393e-20
1.22504e-20
9.70757e-20
1.83804e-20
5.28812e-20
9.25463e-21
1.67393e-20
2.61625e-21
3.27264e-21
4.68143e-22
3.40873e-22
4.96204e-23
2.0211e-22
2.2783e-24
-3.03183e-22
-2.05609e-22
-4.56219e-21
-2.4673e-21
-1.82066e-20
-7.70644e-21
-4.28701e-20
-1.37302e-20
-7.23098e-20
-1.65073e-20
-9.58881e-20
-1.38935e-20
-1.06556e-19
-7.28755e-21
-1.05406e-19
4.69399e-23
-9.64017e-20
1.13575e-21
-7.95369e-20
1.6742e-21
-5.95632e-20
1.7045e-21
-4.09494e-20
1.4224e-21
-2.61399e-20
1.03453e-21
-1.56622e-20
6.77442e-22
-8.90031e-21
4.08023e-22
2.29677e-22
-4.84531e-21
5.19463e-22
8.42901e-23
1.46329e-21
1.39299e-22
7.70194e-22
6.97529e-23
2.21419e-22
2.0116e-23
3.65945e-23
3.45968e-24
2.68875e-24
2.64606e-23
2.08295e-24
1.59714e-24
-2.95376e-22
-1.82085e-22
-1.97009e-21
-9.67564e-22
-6.09075e-21
-2.33438e-21
-1.21421e-20
-3.49881e-21
-1.78494e-20
-3.61861e-21
-2.09741e-20
-2.62058e-21
-2.10126e-20
-1.1224e-21
-1.92491e-20
3.33143e-23
-1.65093e-20
1.54186e-22
-1.28272e-20
1.97223e-22
-9.08064e-21
1.82578e-22
-5.92151e-21
1.40509e-22
-3.59604e-21
9.48821e-23
-2.05498e-21
5.79143e-23
-1.11608e-21
3.25936e-23
1.7168e-23
-5.81558e-22
4.97625e-24
8.58331e-25
1.5841e-23
1.21122e-24
7.28431e-24
4.21247e-23
2.01275e-24
1.26181e-23
2.01789e-24
2.2229e-24
-4.82452e-25
-4.21671e-25
-9.2206e-24
-6.47282e-24
-1.26519e-22
-7.13612e-23
-5.97929e-22
-2.68136e-22
-1.52054e-21
-5.29683e-22
-2.58621e-21
-6.71206e-22
-3.29001e-21
-5.89856e-22
-3.38449e-21
-3.58318e-22
-3.02374e-21
-1.154e-22
-2.55607e-21
5.97471e-24
-2.03943e-21
1.47906e-23
-1.47901e-21
1.6313e-23
-9.80296e-22
1.35922e-23
-6.00252e-22
9.5498e-24
-3.43178e-22
5.92913e-24
-1.85043e-22
3.34148e-24
-9.49992e-23
1.74102e-24
8.50415e-25
-4.6858e-23
4.85296e-26
4.74164e-25
2.90685e-25
8.07294e-25
3.86784e-27
6.9572e-27
-1.58147e-24
-2.0729e-24
-2.44106e-24
-2.46889e-24
-2.80713e-24
-2.25393e-24
-5.23546e-24
-3.37604e-24
-3.50847e-23
-1.81537e-23
-1.29299e-22
-5.3012e-23
-2.74925e-22
-8.69639e-23
-3.97208e-22
-9.23887e-23
-4.31843e-22
-6.75638e-23
-3.83015e-22
-3.30996e-23
-3.02157e-22
-6.52438e-24
-2.35521e-22
5.82107e-25
-1.73504e-22
9.56916e-25
-1.16374e-22
9.04493e-25
-7.15217e-23
6.7139e-25
-4.07144e-23
4.26316e-25
-2.16929e-23
2.41e-25
-1.09241e-23
1.24236e-25
-5.24713e-24
5.93904e-26
2.66695e-26
-2.42483e-24
-3.0134e-25
-1.50043e-24
-7.6376e-25
-1.93113e-24
-1.15616e-24
-1.8999e-24
-1.35956e-24
-1.63273e-24
-1.33011e-24
-1.23497e-24
-1.14496e-24
-8.44731e-25
-1.50386e-24
-8.90758e-25
-6.58166e-24
-3.12118e-24
-1.95244e-23
-7.2989e-24
-3.47075e-23
-9.91032e-24
-4.20952e-23
-8.66966e-24
-3.84241e-23
-5.11132e-24
-2.88431e-23
-1.88979e-24
-2.00021e-23
-5.50747e-26
-1.44057e-23
3.32832e-26
-9.71332e-24
3.99527e-26
-5.96643e-24
3.21979e-26
-3.36638e-24
2.10861e-26
-1.76386e-24
1.1982e-26
-8.67111e-25
6.10936e-27
-4.03759e-25
2.85494e-27
-1.79661e-25
1.24152e-27
5.0811e-28
-7.7032e-26
-8.35023e-26
-3.73848e-25
-2.51123e-25
-5.73224e-25
-3.50267e-25
-5.23219e-25
-3.6404e-25
-3.9925e-25
-3.15823e-25
-2.68525e-25
-2.39339e-25
-1.61879e-25
-2.58574e-25
-1.4029e-25
-8.28576e-25
-3.58657e-25
-1.9994e-24
-6.77021e-25
-2.9439e-24
-7.50156e-25
-2.94227e-24
-5.25251e-25
-2.20081e-24
-2.37631e-25
-1.37139e-24
-5.78746e-26
-8.48462e-25
4.75837e-28
-5.62514e-25
1.1282e-27
-3.43426e-25
1.04109e-27
-1.91179e-25
7.1255e-28
-9.80253e-26
4.08074e-28
-4.68061e-26
2.05556e-28
-2.10238e-26
9.36486e-29
-8.96563e-27
3.931e-29
-3.66136e-27
1.54125e-29
5.58739e-30
-1.44253e-27
-1.17857e-26
-4.68909e-26
-3.97462e-26
-8.13025e-26
-5.40001e-26
-7.29356e-26
-5.30075e-26
-5.28594e-26
-4.26165e-26
-3.30496e-26
-2.94837e-26
-1.82062e-26
-2.75948e-26
-1.36457e-26
-6.85672e-26
-2.69032e-26
-1.34449e-25
-4.07919e-26
-1.61212e-25
-3.59889e-26
-1.29323e-25
-1.93156e-26
-7.68281e-26
-6.1724e-27
-3.93764e-26
-6.08641e-28
-2.27713e-26
1.91082e-29
-1.36212e-26
2.28765e-29
-7.44285e-27
1.6723e-29
-3.7154e-27
9.68632e-30
-1.71361e-27
4.81002e-30
-7.38231e-28
2.12717e-30
-2.99991e-28
8.57379e-31
-1.16027e-28
3.20101e-31
-4.30663e-29
1.11791e-31
5.67701e-33
-1.51391e-29
-9.96828e-28
-3.4932e-27
-3.6611e-27
-6.67019e-27
-4.89608e-27
-5.94843e-27
-4.60727e-27
-4.15713e-27
-3.4793e-27
-2.44907e-27
-2.22083e-27
-1.24528e-27
-1.83762e-27
-8.22581e-28
-3.63779e-27
-1.28097e-27
-5.73647e-27
-1.53447e-27
-5.46274e-27
-1.03782e-27
-3.39429e-27
-3.98895e-28
-1.55418e-27
-7.62092e-29
-6.82339e-28
1.41991e-31
-3.80479e-28
3.51469e-31
-2.02613e-28
2.84887e-31
-9.79357e-29
1.67677e-31
-4.33649e-29
8.18007e-32
-1.77995e-29
3.48896e-32
-6.84501e-30
1.3398e-32
-2.48986e-30
4.72239e-33
-8.64191e-31
1.54948e-33
-2.87797e-31
4.31293e-34
-1.30582e-32
-1.42615e-32
-5.24667e-29
-1.60875e-28
-2.05014e-28
-3.31133e-28
-2.70267e-28
-2.93984e-28
-2.44921e-28
-1.98975e-28
-1.74495e-28
-1.10899e-28
-1.02966e-28
-5.21022e-29
-7.57764e-29
-3.0441e-29
-1.20369e-28
-3.75205e-29
-1.49668e-28
-3.44547e-29
-1.09353e-28
-1.68519e-29
-5.05155e-29
-4.13269e-30
-1.79338e-29
-2.26284e-31
-7.91226e-30
3.90675e-33
-4.03979e-30
3.77092e-33
-1.87918e-30
2.26786e-33
-7.93318e-31
1.08031e-33
-3.07819e-31
4.39946e-34
-1.11075e-31
1.59048e-34
-3.76597e-32
5.22375e-35
-1.21087e-32
1.58435e-35
-3.72343e-33
4.46675e-36
-9.94623e-34
-7.88476e-36
-5.11946e-33
5.25238e-32
-1.75329e-30
-4.69319e-30
-7.09839e-30
-1.01469e-29
-9.17413e-30
-8.90645e-30
-7.99361e-30
-5.82325e-30
-5.3693e-30
-3.06633e-30
-2.92232e-30
-1.32581e-30
-1.90822e-30
-6.80671e-31
-2.41241e-30
-6.52904e-31
-2.29564e-30
-4.3768e-31
-1.23389e-30
-1.41037e-31
-4.16008e-31
-1.68483e-32
-1.33797e-31
3.10482e-35
-6.31939e-32
4.19359e-35
-2.80872e-32
2.59054e-35
-1.12081e-32
1.19186e-35
-4.06881e-33
4.56251e-36
-1.36178e-33
1.52548e-36
-4.24999e-34
4.58104e-37
-1.24921e-34
1.25909e-37
-3.48951e-35
3.2124e-38
-9.28553e-36
2.07663e-39
4.07216e-35
-2.46277e-36
-8.43336e-34
1.07061e-32
-3.9296e-32
-9.30163e-32
-1.57256e-31
-2.00151e-31
-1.94664e-31
-1.68814e-31
-1.60954e-31
-1.05009e-31
-1.01164e-31
-5.17813e-32
-5.04488e-32
-2.04038e-32
-2.89791e-32
-9.05801e-33
-2.85412e-32
-6.51342e-33
-2.00231e-32
-2.95268e-33
-7.71806e-33
-5.28702e-34
-2.13352e-33
1.16687e-37
-8.40607e-34
4.24245e-37
-3.5282e-34
2.7082e-37
-1.31453e-34
1.18356e-37
-4.39879e-35
4.16447e-38
-1.34296e-35
1.25582e-38
-3.78969e-36
3.35688e-39
-9.99397e-37
8.12928e-40
-2.48706e-37
1.81204e-40
-5.8927e-38
3.76417e-41
-3.61723e-39
-1.07385e-39
4.74846e-36
-2.87907e-37
-7.51024e-35
1.39825e-33
-6.90507e-34
-1.53671e-33
-2.49123e-33
-2.89283e-33
-2.75976e-33
-2.15945e-33
-2.07663e-33
-1.22067e-33
-1.19262e-33
-5.49234e-34
-5.36624e-34
-1.93036e-34
-2.6787e-34
-7.21444e-35
-2.00315e-34
-3.66977e-35
-1.01726e-34
-9.99759e-36
-3.09085e-35
-4.04661e-37
-1.02291e-35
4.24548e-39
-4.01717e-36
2.82629e-39
-1.37467e-36
1.14316e-39
-4.15455e-37
3.57304e-40
-1.13062e-37
9.3548e-41
-2.81364e-38
2.13758e-41
-6.48368e-39
4.37315e-42
-1.39837e-39
8.15593e-43
-2.8498e-40
1.40604e-43
-5.53556e-41
2.04887e-44
3.0495e-39
-5.58952e-41
4.21215e-37
-1.40713e-38