/*--------------------------------*- C++ -*----------------------------------*\
  =========                 |
  \\      /  F ield         | OpenFOAM: The Open Source CFD Toolbox
   \\    /   O peration     | Website:  https://openfoam.org
    \\  /    A nd           | Version:  9
     \\/     M anipulation  |
\*---------------------------------------------------------------------------*/
FoamFile
{
    format      ascii;
    class       volScalarField;
    location    "1.15";
    object      alpha.water;
}
// * * * * * * * * * * * * * * * * * * * * * * * * * * * * * * * * * * * * * //

dimensions      [0 0 0 0 0 0 0];

internalField   nonuniform List<scalar> 
2268
(
1
1
1
1
1
1
1
1
1
1
1
1
0.999349
0.979297
0.975682
0.975682
0.975682
0.976762
0.9873
0.989809
0.988257
0.982911
0.983125
1
1
1
1
1
1
1
1
1
1
1
1
0.999855
0.995622
0.985388
0.983777
0.994153
0.999971
0.999999
0.999999
0.999998
0.999912
0.99521
1
1
1
1
1
1
1
1
1
1
1
1
0.999998
0.999969
0.999843
0.999708
0.999999
0.999999
0.999999
0.999989
0.999859
0.99993
0.999735
1
1
1
1
1
1
1
1
1
1
1
1
1
0.999999
1
0.999999
0.999997
0.999998
0.999934
0.999529
0.999124
0.999734
0.99984
1
1
1
1
1
1
1
1
1
1
1
1
1
1
1
1
0.999999
0.999872
0.998359
0.995994
0.999427
0.999873
0.999873
1
1
1
1
1
1
1
1
1
1
1
1
1
1
1
1
0.999996
0.996238
0.987573
0.995084
0.999873
0.999873
0.999873
1
1
1
1
1
1
1
1
1
1
1
1
1
1
1
0.999999
0.998025
0.975719
0.97022
0.999764
0.999873
0.999873
0.999873
1
1
1
1
1
1
1
1
1
1
0.999999
0.999995
0.999997
0.999994
0.999999
0.999992
0.985658
0.936983
0.977171
0.999849
0.999872
0.99987
0.999872
0.99814
0.998141
0.99814
0.989477
0.980044
0.9753
0.976595
0.979366
0.979639
0.979665
0.979665
0.979665
0.966827
0.923835
0.967648
0.96814
0.968136
0.968136
0.968136
0.99814
0.998145
0.996893
0.983399
0.92631
0.80848
0.67063
0.736081
0.908474
0.945058
0.978293
0.979665
0.961406
0.923862
0.95407
0.968143
0.96814
0.968136
0.968136
0.998141
0.998142
0.973974
0.950944
0.82856
0.385622
0.363888
0.363888
0.524853
0.741683
0.829182
0.914252
0.937817
0.925571
0.81343
0.775491
0.856947
0.947597
0.968136
0.976677
0.997631
0.997325
0.794458
0.514532
0.292008
0.440506
0.465751
0.210587
0.382104
0.593783
0.665485
0.714667
0.719525
0.680523
0.680691
0.6981
0.938879
0.968089
0.951135
0.913561
0.970483
0.681639
0.29286
0.29286
0.772162
0.773072
0.227008
0.147797
0.167661
0.255914
0.427455
0.508873
0.678122
0.779994
0.906279
0.967465
0.968019
0.991628
0.688675
0.680198
0.590698
0.298952
0.502159
0.773071
0.773229
0.687988
0.162023
0.135317
0.135317
0.135317
0.276141
0.785883
0.967509
0.967969
0.967996
0.967996
0.993686
0.966383
0.710511
0.600047
0.305896
0.685194
0.773229
0.773362
0.773517
0.42886
0.139733
0.137664
0.135531
0.135734
0.589607
0.927637
0.931881
0.967755
0.967996
0.993686
0.9934
0.932577
0.748385
0.377492
0.7606
0.772279
0.773245
0.773378
0.664168
0.405477
0.474236
0.443877
0.232974
0.548713
0.727141
0.625117
0.483898
0.859947
1
1
1
1
1
1
1
1
1
0.999997
0.999998
0.999996
0.999997
0.999996
0.999997
0.998564
0.944707
0.925038
0.988638
0.999832
0.99984
0.999798
0.999793
1
1
1
0.999999
1
1
1
1
1
1
1
1
1
1
0.999999
0.999988
0.953811
0.925093
0.987528
0.980832
0.968142
0.968027
0.988814
1
1
1
1
1
1
0.999999
0.999999
0.993152
0.959223
0.844129
0.871609
0.966415
0.999999
0.999995
0.94999
0.838706
0.844214
0.6389
0.382035
0.33515
0.333732
0.451442
1
1
0.999999
0.999999
0.999999
0.999997
0.999984
0.962472
0.571265
0.384741
0.321158
0.253051
0.393296
0.551244
0.563473
0.356942
0.224667
0.191442
0.004016
0.00401595
0.004016
0.00401942
0.00402981
0.999978
0.999977
0.999971
0.999953
0.999926
0.987565
0.809411
0.475387
0.343273
0.198331
0.0979815
0.0502258
0.0151035
0.0133379
0.0157296
0.00440537
0.00417258
0.00482593
0.00436898
0.004016
0.00401942
0.00402981
0.00405311
0.878742
0.897234
0.883342
0.821347
0.693224
0.469407
0.235495
0.206232
0.254268
0.254445
0.241882
0.092588
0.00581137
0.00477191
0.00408054
0.00405476
0.00405075
0.00405332
0.00406864
0.00464231
0.0170812
0.0143918
0.00406938
0.131541
0.150704
0.149934
0.11566
0.0595207
0.0178374
0.0293052
0.151801
0.250204
0.253778
0.253184
0.135367
0.0193627
0.0170687
0.0040434
0.00404279
0.00404661
0.00405093
0.0040507
0.0226915
0.0350399
0.0350399
0.00609883
1.28608e-06
1.33322e-06
1.40439e-06
1.48698e-06
1.59264e-06
0.000651061
0.0111747
0.0290224
0.0401596
0.0540859
0.0934761
0.137738
0.137882
0.0787558
0.00404296
0.0040434
0.00404371
0.00408435
0.0158897
0.034411
0.0339355
0.0149141
0.00714973
1.26439e-06
3.81898e-06
3.91637e-06
4.43951e-06
3.80785e-05
0.00014904
0.000129103
0.000114429
0.000102333
8.44018e-05
0.00500224
0.0456488
0.0875519
0.0882599
0.0315633
0.00498777
0.0119093
0.0341405
0.0341405
0.0251262
0.000569966
-1.0842e-22
3.46945e-21
5.12055e-09
5.25688e-09
5.80874e-09
3.289e-06
1.15998e-05
4.37194e-06
1.92139e-06
2.15121e-06
4.01107e-06
4.74635e-05
0.000192054
0.000602256
0.00538451
0.0216667
0.029857
0.0195048
0.00758149
0.00767321
0.00214083
-6.12301e-12
-5.61593e-11
-4.73605e-10
-3.09168e-09
5.02008e-09
1.35829e-08
3.32958e-08
1.95242e-07
2.05378e-07
1.13935e-07
1.15313e-08
1.50753e-08
2.30101e-07
2.23782e-06
7.08333e-06
4.02232e-05
0.000127708
0.000311312
0.00179485
0.00321186
0.000849698
-5.64365e-14
-2.07908e-11
-9.69528e-13
6.13894e-12
4.4628e-12
2.47927e-13
3.78513e-10
9.02339e-10
2.43326e-09
7.80022e-09
8.9029e-09
3.0917e-09
4.07676e-10
2.69014e-10
1.38704e-09
1.74107e-08
2.05863e-07
1.03037e-06
2.51895e-06
4.51117e-06
4.31928e-06
5.70533e-07
2.01003e-08
2.24349e-11
8.97221e-12
2.24323e-11
1.40761e-11
9.66459e-12
5.75293e-12
2.45307e-11
2.55491e-11
8.11893e-11
2.79699e-10
2.75075e-10
8.14166e-11
7.18662e-11
7.09744e-11
8.62362e-11
2.23267e-10
1.60458e-09
6.69377e-09
1.40776e-08
3.36674e-08
7.1547e-09
3.11717e-09
9.33373e-12
2.17531e-11
3.97496e-11
2.25691e-11
1.0902e-11
6.57019e-12
3.60706e-12
2.45019e-11
3.40842e-11
4.90796e-11
5.40882e-11
5.01429e-11
5.34336e-11
6.2159e-11
6.29921e-11
5.39522e-11
5.02059e-11
7.22276e-11
8.92104e-11
1.01041e-10
9.47632e-11
6.49619e-11
9.38981e-12
8.43521e-12
1.80166e-11
1.33444e-11
4.98706e-12
1.48588e-12
7.92598e-13
4.76166e-13
2.32962e-11
3.28463e-11
4.31094e-11
4.85404e-11
4.96325e-11
5.31224e-11
6.1962e-11
6.36294e-11
5.25757e-11
4.45452e-11
5.60937e-11
5.55651e-11
5.25086e-11
4.47354e-11
3.11829e-11
2.04885e-11
7.89148e-12
1.35529e-12
-3.74557e-13
-8.4189e-13
-7.99405e-13
-4.83135e-13
-2.10411e-13
2.03029e-11
2.82797e-11
3.5662e-11
3.98952e-11
4.27046e-11
4.5554e-11
5.3845e-11
5.7776e-11
4.89775e-11
3.8186e-11
6.00868e-11
5.4969e-11
5.26056e-11
4.41088e-11
2.82802e-11
1.1902e-11
1.45383e-12
-6.46957e-13
-2.02567e-12
-2.30342e-12
-1.8366e-12
-1.13036e-12
-5.46758e-13
1.51817e-11
2.11022e-11
2.59171e-11
2.87577e-11
3.10518e-11
3.33127e-11
3.80584e-11
4.32162e-11
3.95554e-11
2.84507e-11
3.89901e-11
3.54472e-11
2.86117e-11
1.8421e-11
7.82574e-12
1.04908e-12
-1.58849e-12
-3.63387e-12
-4.35868e-12
-3.90823e-12
-2.83905e-12
-1.70714e-12
-8.45676e-13
8.60691e-12
1.28845e-11
1.53495e-11
1.66881e-11
1.77115e-11
1.90108e-11
2.02122e-11
2.27192e-11
2.21592e-11
1.68766e-11
1.46397e-11
1.05439e-11
5.02733e-12
1.38746e-12
-5.05795e-13
-3.57761e-12
-5.82718e-12
-6.71927e-12
-6.27096e-12
-4.94866e-12
-3.35625e-12
-1.96161e-12
-9.80284e-13
3.00603e-12
5.6873e-12
6.58618e-12
6.90208e-12
7.05328e-12
7.25241e-12
7.10914e-12
7.1062e-12
6.67194e-12
5.05065e-12
2.07256e-12
5.40479e-13
-2.28162e-13
-2.35538e-12
-4.71303e-12
-6.8553e-12
-7.87867e-12
-7.60927e-12
-6.35413e-12
-4.65371e-12
-3.00695e-12
-1.71368e-12
-8.56144e-13
4.92497e-13
1.48763e-12
1.70161e-12
1.69768e-12
1.64382e-12
1.53923e-12
1.37165e-12
1.12863e-12
7.79856e-13
3.21983e-13
9.62189e-15
-9.86085e-13
-2.51953e-12
-4.37987e-12
-6.08736e-12
-7.14056e-12
-7.1398e-12
-6.22763e-12
-4.80966e-12
-3.31741e-12
-2.05156e-12
-1.13761e-12
-5.63442e-13
3.12283e-14
1.83719e-13
2.14677e-13
2.05109e-13
1.86437e-13
1.56825e-13
1.24792e-13
7.24383e-14
1.57602e-14
-9.88597e-14
-6.51864e-13
-1.66421e-12
-2.97242e-12
-4.25554e-12
-5.13294e-12
-5.32397e-12
-4.81068e-12
-3.85713e-12
-2.77661e-12
-1.80719e-12
-1.06746e-12
-5.72754e-13
-2.78653e-13
8.85289e-16
9.77098e-15
1.23096e-14
1.1554e-14
1.00328e-14
7.94388e-15
5.28828e-15
9.33334e-16
-3.29311e-14
-2.35401e-13
-7.19694e-13
-1.46218e-12
-2.28959e-12
-2.94706e-12
-3.21502e-12
-3.0128e-12
-2.48134e-12
-1.83424e-12
-1.23026e-12
-7.53475e-13
-4.22993e-13
-2.18056e-13
-1.03199e-13
1.07566e-17
2.82179e-16
4.05648e-16
3.87563e-16
3.36396e-16
2.63061e-16
5.60354e-17
-3.15549e-15
-4.56163e-14
-1.98287e-13
-5.04511e-13
-9.19391e-13
-1.31686e-12
-1.55405e-12
-1.54779e-12
-1.31441e-12
-9.87287e-13
-6.71422e-13
-4.18018e-13
-2.39698e-13
-1.2708e-13
-6.24411e-14
-2.84617e-14
2.74748e-20
2.26566e-18
7.61293e-18
8.46735e-18
7.90008e-18
4.56082e-18
-1.24386e-17
-3.96249e-15
-3.20168e-14
-1.15631e-13
-2.64711e-13
-4.43958e-13
-5.8702e-13
-6.3652e-13
-5.77623e-13
-4.41982e-13
-3.02209e-13
-1.88296e-13
-1.08215e-13
-5.77254e-14
-2.86904e-14
-1.33218e-14
-5.78909e-15
-6.54921e-18
0
1.85309e-20
3.95333e-20
4.63211e-20
1.19333e-20
-6.80836e-17
-2.52747e-15
-1.61289e-14
-5.17157e-14
-1.08615e-13
-1.68337e-13
-2.05036e-13
-2.03105e-13
-1.6644e-13
-1.1362e-13
-7.04079e-14
-4.00022e-14
-2.10841e-14
-1.03834e-14
-4.79773e-15
-2.08578e-15
-8.55064e-16
-6.30388e-18
-3.71289e-18
-2.03784e-18
-1.17962e-18
-7.43668e-19
-6.20664e-19
-4.94888e-17
-1.14809e-15
-6.28854e-15
-1.82702e-14
-3.52997e-14
-5.03392e-14
-5.60171e-14
-5.01065e-14
-3.64985e-14
-2.20464e-14
-1.2271e-14
-6.3198e-15
-3.03485e-15
-1.36852e-15
-5.82345e-16
-2.34619e-16
-8.97264e-17
-3.5827e-18
-3.10787e-18
-2.00803e-18
-1.26675e-18
-8.36269e-19
-6.60382e-19
-2.2903e-17
-4.00202e-16
-1.93923e-15
-5.13076e-15
-9.07903e-15
-1.18013e-14
-1.18376e-14
-9.38869e-15
-5.92037e-15
-3.16807e-15
-1.56694e-15
-7.24295e-16
-3.14404e-16
-1.28759e-16
-4.9974e-17
-1.84536e-17
-6.50428e-18
-1.47898e-18
-1.57959e-18
-1.07813e-18
-6.9417e-19
-4.58539e-19
-3.49543e-19
-7.7464e-18
-1.09428e-16
-4.7438e-16
-1.14013e-15
-1.83061e-15
-2.13789e-15
-1.89469e-15
-1.29554e-15
-6.81032e-16
-3.25341e-16
-1.42877e-16
-5.86843e-17
-2.27605e-17
-8.3766e-18
-2.93545e-18
-9.82751e-19
-3.15308e-19
-4.72456e-19
-5.80891e-19
-4.04117e-19
-2.59413e-19
-1.68629e-19
-1.23884e-19
-1.9951e-18
-2.35612e-17
-9.15059e-17
-1.98177e-16
-2.84549e-16
-2.92293e-16
-2.21996e-16
-1.24723e-16
-5.57815e-17
-2.31005e-17
-8.94299e-18
-3.25238e-18
-1.11811e-18
-3.65548e-19
-1.14205e-19
-3.42274e-20
-9.77494e-21
-1.20162e-19
-1.63485e-19
-1.13642e-19
-7.16725e-20
-4.53086e-20
-3.18851e-20
-3.96725e-19
-3.9767e-18
-1.37563e-17
-2.64707e-17
-3.325e-17
-2.90805e-17
-1.80011e-17
-7.82681e-18
-3.08918e-18
-1.11377e-18
-3.74476e-19
-1.18939e-19
-3.5913e-20
-1.03486e-20
-2.85619e-21
-7.56149e-22
-1.25686e-22
-2.47016e-20
-3.61238e-20
-2.47206e-20
-1.51361e-20
-9.20466e-21
-6.15182e-21
-6.10447e-20
-5.20979e-19
-1.58436e-18
-2.64903e-18
-2.81309e-18
-1.98465e-18
-9.04745e-19
-3.35331e-19
-1.12082e-19
-3.4887e-20
-1.02028e-20
-2.81923e-21
-7.4042e-22
-1.85897e-22
-4.48219e-23
-9.34856e-24
6.47416e-23
-4.14036e-21
-6.35153e-21
-4.22431e-21
-2.48281e-21
-1.43612e-21
-9.01529e-22
-7.23619e-21
-5.21984e-20
-1.36483e-19
-1.91358e-19
-1.6219e-19
-8.27061e-20
-2.90542e-20
-9.18309e-21
-2.65288e-21
-7.09574e-22
-1.78116e-22
-4.2377e-23
-9.61664e-24
-2.0907e-24
-4.27908e-25
4.63203e-25
3.42375e-23
-5.69008e-22
-8.95583e-22
-5.7187e-22
-3.1891e-22
-1.73247e-22
-1.0073e-22
-6.54377e-22
-3.91601e-21
-8.48906e-21
-9.3958e-21
-5.65434e-21
-2.00236e-21
-6.10738e-22
-1.64297e-22
-4.03447e-23
-9.23218e-24
-1.9891e-24
-4.06096e-25
-7.90154e-26
-1.47362e-26
-1.19637e-27
2.01257e-25
2.03435e-23
-6.43857e-23
-1.01797e-22
-6.16471e-23
-3.22055e-23
-1.6188e-23
-8.5611e-24
-4.44453e-23
-2.13214e-22
-3.60123e-22
-2.78233e-22
-1.08829e-22
-3.29086e-23
-8.41991e-24
-1.92715e-24
-4.04206e-25
-7.88092e-26
-1.44467e-26
-2.51325e-27
-4.18042e-28
-6.67742e-29
2.59449e-28
6.79355e-26
1.28676e-23
-6.02492e-24
-9.3711e-24
-5.31258e-24
-2.56222e-24
-1.16996e-24
-5.4946e-25
-2.21441e-24
-8.01422e-24
-9.30285e-24
-4.5763e-24
-1.45643e-24
-3.68428e-25
-7.99093e-26
-1.54608e-26
-2.73747e-27
-4.50868e-28
-6.98174e-29
-1.02438e-29
-1.43362e-30
-1.92489e-31
1.9175e-29
2.36223e-26
6.21112e-24
-4.69108e-25
-7.02652e-25
-3.67592e-25
-1.60856e-25
-6.51932e-26
-2.63134e-26
-7.80253e-26
-1.88906e-25
-1.43021e-25
-5.41187e-26
-1.42108e-26
-2.9893e-27
-5.40842e-28
-8.73701e-29
-1.28939e-29
-1.76701e-30
-2.27752e-31
-2.78943e-32
-3.27389e-33
-3.63326e-34
1.21723e-30
6.32455e-27
1.62814e-24
-3.06809e-26
-4.32618e-26
-2.05528e-26
-7.99377e-27
-2.79171e-27
-9.24604e-28
-1.84276e-27
-3.00581e-27
-1.67543e-27
-4.96729e-28
-1.05839e-28
-1.82344e-29
-2.70431e-30
-3.58445e-31
-4.34682e-32
-4.89783e-33
-5.18466e-34
-5.20218e-35
-4.98582e-36
-3.67992e-40
7.34482e-31
9.60007e-28
2.27129e-25
-1.70811e-27
-2.2122e-27
-9.38357e-28
-3.16955e-28
-9.18906e-29
-2.39448e-29
-3.37395e-29
-3.92641e-29
-1.60427e-29
-3.72919e-30
-6.3162e-31
-8.68382e-32
-1.02681e-32
-1.08269e-33
-1.0436e-34
-9.36159e-36
-7.92042e-37
-6.38542e-38
-4.92047e-39
8.17559e-38
3.61088e-31
7.82605e-29
1.58701e-26
-8.21193e-29
-9.53269e-29
-3.56039e-29
-1.02146e-29
-2.45255e-30
-5.31974e-31
-5.47459e-31
-4.49589e-31
-1.36259e-31
-2.40719e-32
-3.11475e-33
-3.28283e-34
-2.9817e-35
-2.41406e-36
-1.78228e-37
-1.22042e-38
-7.8579e-40
-4.81371e-41
-2.50086e-42
2.6171e-38
9.18162e-33
2.27543e-30
2.64378e-28
-3.42494e-30
-3.51518e-30
-1.16189e-30
-2.91895e-31
-6.05213e-32
-1.10095e-32
-8.41966e-33
-4.96467e-33
-1.07918e-33
-1.38242e-34
-1.29106e-35
-9.77893e-37
-6.37843e-38
-3.71607e-39
-1.98044e-40
-9.81832e-42
-4.58643e-43
-2.04014e-44
-1.95417e-46
1.23496e-38
5.41908e-35
2.02639e-32
4.37907e-30
-1.23299e-31
-1.1505e-31
-3.55237e-32
-8.0788e-33
-1.46683e-33
-2.23993e-34
-1.33002e-34
-5.70189e-35
-8.37651e-36
-7.09958e-37
-4.28751e-38
-2.06081e-39
-8.42284e-41
-3.05455e-42
-1.01159e-43
-3.12201e-45
-9.11306e-47
-2.54389e-48
3.95187e-47
5.48263e-39
1.10801e-36
3.87284e-35
2.19842e-34
-3.7534e-33
-3.63857e-33
-1.09854e-33
-2.32532e-34
-3.75896e-35
-4.833e-36
-2.38658e-36
-7.52052e-37
-6.49452e-38
-2.76471e-39
-7.53113e-41
-1.5274e-42
-2.52845e-44
-3.6234e-46
-4.67642e-48
-5.58694e-50
-6.29663e-52
-6.77541e-54
-7.00432e-56
3.68685e-53
1.06145e-46
4.53536e-44
4.75353e-43
0.998835
0.998563
0.992474
0.971216
0.998563
0.998334
0.897769
0.622182
0.692032
0.770468
0.669313
0.407383
0.00858979
0.0637044
0.152435
0.256572
0.00406938
0.00410055
0.0042636
0.0044891
0.00458606
0.0102207
0.00984409
0.0053088
0.0183665
0.0196243
0.0196243
0.0175306
0.0191717
0.0196243
0.0106356
0.00539469
0.00428396
0.00373831
3.94706e-13
3.94349e-13
-1.58174e-08
-2.20312e-08
8.3681e-13
7.67039e-13
2.36396e-12
2.48828e-12
3.85645e-12
3.55302e-12
4.29911e-12
4.15091e-12
3.91754e-12
4.71046e-12
1.63431e-12
1.23238e-12
1.25886e-12
2.72893e-12
1.61635e-13
1.14276e-13
1.22488e-13
2.04492e-12
-1.04393e-13
-4.58064e-14
-1.59453e-30
3.73932e-15
-2.9957e-13
-1.5069e-13
-6.18562e-14
-1.97089e-17
-4.94174e-13
-2.64338e-13
-1.26781e-13
-5.26917e-14
-5.96965e-13
-3.39201e-13
-1.77988e-13
-8.51358e-14
-5.33226e-13
-3.13904e-13
-1.73741e-13
-8.9793e-14
-3.5446e-13
-2.12806e-13
-1.21566e-13
-6.58279e-14
-1.75294e-13
-1.06018e-13
-6.15475e-14
-3.42253e-14
-6.4328e-14
-3.87714e-14
-2.25783e-14
-1.26909e-14
-1.74281e-14
-1.03642e-14
-5.98491e-15
-3.35479e-15
-3.45261e-15
-2.00663e-15
-1.1368e-15
-6.27856e-16
-4.92359e-16
-2.7701e-16
-1.52368e-16
-8.19756e-17
-4.94209e-17
-2.66519e-17
-1.40837e-17
-7.29725e-18
-3.39172e-18
-1.73434e-18
-8.70112e-19
-4.27917e-19
-1.53813e-19
-7.33915e-20
-3.38111e-20
-1.41771e-20
-4.22812e-21
-1.50828e-21
-6.16157e-23
1.92022e-21
1.39553e-22
5.72922e-22
1.50656e-21
3.20443e-21
2.29437e-22
4.98919e-22
1.19128e-21
2.3276e-21
1.15893e-22
2.57173e-22
6.19528e-22
1.21242e-21
7.03487e-23
1.57157e-22
3.89229e-22
8.92419e-22
4.5373e-23
1.01995e-22
2.938e-22
9.20559e-22
2.22192e-23
5.13653e-23
2.13934e-22
9.63041e-22
5.97024e-24
1.53351e-23
1.06472e-22
5.7473e-22
8.91541e-25
2.93193e-24
4.11056e-23
2.23968e-22
7.24624e-26
3.65677e-25
9.802e-24
4.81578e-23
1.69159e-27
1.8815e-26
6.61618e-25
2.48207e-24
4.85088e-29
7.86807e-28
1.94529e-26
4.5304e-26
1.89417e-34
2.14233e-33
8.60775e-32
1.10607e-31
1.64977e-43
9.78093e-45
8.18647e-47
-1.62009e-68
0.975621
0.993154
0.991634
0.90971
0.463655
0.434495
0.544625
0.746557
0.740233
0.736456
0.68229
0.59842
0.601707
0.60197
0.38634
0.123963
0.0588188
0.0465717
0.142445
0.521109
0.682064
0.829854
0.65006
0.173168
0.107204
0.107415
0.242776
0.184319
0.15923
0.286081
0.438408
0.584194
0.476527
0.0831948
0.046387
0.0463299
0.0463299
0.0463299
0.231877
0.182154
0.175654
0.119395
0.106864
0.10721
0.200739
0.0763695
0.00424447
0.00404359
0.0152284
0.060406
0.121668
0.102649
0.0467242
0.046603
0.0920054
0.141956
0.0464091
0.264537
0.2369
0.234529
0.238769
0.261149
0.296501
0.296501
0.142753
0.00402541
0.00396655
0.00397344
0.0142
0.0352621
0.0383485
0.0467478
0.129857
0.180667
0.176158
0.0464882
0.0226197
0.125875
0.205234
0.250701
0.251722
0.262767
0.114173
0.004106
0.00396658
0.00397359
0.00396655
0.00397344
0.0530378
0.172919
0.181109
0.181108
0.181026
0.147973
0.0464882
0.00311619
0.00299353
0.00287617
0.0205887
0.00279252
0.00602579
0.0221796
0.0233176
0.00946805
0.0101009
0.00397327
0.00443247
0.0509932
0.181109
0.181109
0.181109
0.181108
0.180715
0.101827
0.00523761
0.00345186
0.00285576
0.00192085
0.00247118
0.011688
0.024874
0.0322687
0.0322717
0.0319935
0.0305828
0.00491566
0.0133797
0.0840803
0.0814163
0.0828684
0.156494
0.180533
0.180501
0.00477197
0.000446862
0.00102286
0.00187713
0.00252739
0.00307702
0.00285459
0.0192494
0.022402
0.0275767
0.0318518
0.0293813
0.012882
0.00656129
0.00352177
0.000869134
0.058293
0.180564
0.180321
5.26153e-13
3.13257e-12
9.21257e-11
2.99168e-09
5.11489e-08
1.74948e-07
4.16106e-07
9.11093e-07
0.000382054
0.00258229
0.0214915
0.0298184
0.027325
0.00406582
0.000409606
0.000495752
0.00194404
0.0706815
0.17054
2.50396e-12
2.97213e-11
5.5269e-08
2.14479e-06
5.24408e-06
1.36895e-05
3.9399e-05
5.18428e-05
6.10732e-05
0.000110247
0.000613876
0.00624261
0.0106257
0.00285762
0.000348236
0.000171977
0.000331244
0.00159253
0.00312109
4.19935e-11
6.99681e-10
5.41793e-08
4.12944e-06
1.67858e-05
4.4234e-05
9.7597e-05
9.76906e-05
9.7597e-05
6.0995e-05
1.16798e-05
3.87681e-05
8.27e-05
0.000405151
0.000342999
0.000153399
0.000149715
8.72911e-05
8.27416e-05
6.87214e-11
6.52647e-09
1.36579e-07
1.99486e-06
8.35511e-06
1.33525e-05
1.58571e-05
2.36331e-05
6.2473e-06
5.19967e-06
1.1078e-05
3.37292e-05
2.34814e-05
1.90636e-05
4.21802e-05
0.000201388
0.000333926
0.000268985
7.98025e-05
3.35604e-11
2.28172e-08
1.72451e-07
1.72344e-07
1.90989e-07
2.37998e-07
1.98141e-07
1.98145e-07
1.98197e-07
5.19624e-06
9.22419e-06
5.67213e-06
2.98169e-06
7.50493e-06
0.000182639
0.000333928
0.000333914
9.89314e-05
2.0197e-05
2.92998e-11
3.0264e-11
3.37036e-10
7.55483e-07
6.55306e-06
8.91564e-06
4.04085e-06
1.95461e-07
1.95536e-07
1.2146e-06
1.28214e-06
2.94483e-07
5.54143e-07
8.30267e-05
0.000331279
0.00033228
0.000212225
5.63521e-10
5.63521e-10
3.8176e-13
8.62375e-12
4.85362e-10
2.02106e-06
9.50649e-06
9.50649e-06
9.50527e-06
8.61215e-07
1.10521e-07
1.46526e-07
2.22195e-07
2.35876e-07
3.44167e-07
5.92428e-05
0.000162879
0.000107649
5.63533e-10
5.63521e-10
5.6352e-10
3.86048e-16
9.7369e-14
7.27436e-12
7.71511e-09
4.52934e-06
9.50649e-06
6.53456e-06
1.10215e-07
1.09948e-07
1.48581e-07
1.85467e-07
2.34546e-07
2.18522e-06
7.43585e-06
2.61922e-06
1.76719e-06
5.63967e-10
5.63524e-10
5.63521e-10
-2.36729e-18
-3.42427e-15
-3.66471e-13
7.82774e-13
6.25139e-11
3.44815e-06
4.3834e-06
1.10146e-07
1.10009e-07
1.10066e-07
6.3082e-07
8.73251e-07
1.08249e-06
6.125e-07
2.7233e-07
8.53547e-09
8.54107e-09
5.89841e-10
5.63524e-10
-2.04119e-14
-4.42245e-16
-2.00208e-20
6.22481e-16
7.61434e-14
7.39379e-12
3.92223e-07
1.69419e-06
1.96245e-07
1.16123e-07
4.10542e-07
8.57525e-07
6.9861e-07
1.63622e-07
4.31767e-08
1.76512e-08
1.7443e-08
6.84936e-10
5.63611e-10
-2.51097e-14
-4.99165e-15
-4.11799e-16
2.25413e-17
1.29407e-16
1.18344e-14
7.77556e-12
8.33012e-08
2.04573e-07
1.81869e-07
1.24777e-07
2.07572e-07
1.23358e-07
2.82714e-09
6.64811e-10
2.5441e-08
5.24908e-09
6.24181e-10
5.65594e-10
-2.01384e-14
-4.93523e-15
-8.68581e-16
2.56466e-15
8.37308e-13
5.38259e-12
5.44822e-12
4.70961e-11
2.1555e-07
4.12243e-07
3.53839e-07
2.03462e-08
2.96343e-10
2.92382e-10
2.92382e-10
4.11572e-09
1.85916e-10
1.9596e-10
6.24141e-10
-1.10584e-14
-3.04781e-15
-6.77148e-16
9.0847e-17
7.94199e-15
8.90262e-13
1.08532e-11
1.1472e-11
8.76697e-08
3.69901e-07
3.68717e-07
6.24045e-08
1.16008e-09
7.7163e-10
3.30544e-10
1.57599e-10
1.58467e-10
1.99862e-07
2.50775e-08
-4.21809e-15
-1.24373e-15
-3.0876e-16
8.35945e-17
6.30646e-15
8.55906e-14
2.61764e-13
2.7212e-11
2.73126e-11
9.78871e-08
1.61678e-07
5.2487e-08
1.33666e-09
7.10506e-10
3.62261e-10
1.56535e-10
1.57597e-10
2.03699e-06
8.9643e-07
-1.12156e-15
-3.41389e-16
-8.45367e-17
1.24319e-16
3.64153e-15
5.64526e-14
5.64821e-14
3.61398e-11
1.4628e-09
8.30924e-10
5.49611e-10
2.46809e-09
1.42793e-09
8.73973e-10
2.69529e-10
1.55719e-10
7.75799e-08
2.27832e-06
1.56293e-06
-2.06995e-16
-6.29522e-17
-1.02557e-17
1.35683e-16
2.07536e-15
1.80117e-14
1.57024e-13
3.03268e-12
1.09614e-10
3.27557e-10
5.2074e-10
5.00498e-10
3.41341e-10
1.9185e-10
1.55258e-10
1.55482e-10
1.05833e-06
2.27832e-06
1.56114e-06
-2.61656e-17
-7.45101e-18
6.14002e-18
1.50492e-16
1.53806e-15
1.19134e-14
1.20955e-13
1.38924e-12
1.11548e-11
6.3604e-11
1.67145e-10
1.62802e-10
1.48914e-10
1.58601e-10
1.54967e-10
1.55258e-10
1.56848e-06
2.27832e-06
1.6412e-06
-2.20783e-18
-2.97768e-19
1.14829e-17
1.78577e-16
1.66873e-15
1.19856e-14
8.14797e-14
5.70785e-13
3.48129e-12
1.55994e-11
4.52028e-11
8.00191e-11
1.10979e-10
1.55019e-10
1.54776e-10
1.54967e-10
2.05975e-07
1.35572e-06
1.94219e-05
-1.1321e-19
5.61582e-19
1.59168e-17
2.20389e-16
2.00093e-15
1.31616e-14
7.42424e-14
3.88118e-13
1.82885e-12
7.01368e-12
2.10618e-11
4.64615e-11
8.35498e-11
1.46328e-10
1.6717e-10
1.6372e-10
1.62947e-10
1.62949e-10
7.80061e-05
1.44614e-21
8.36129e-19
1.94399e-17
2.5537e-16
2.3183e-15
1.54622e-14
7.9945e-14
3.52113e-13
1.38424e-12
4.78137e-12
1.47395e-11
3.54525e-11
7.79415e-11
1.56036e-10
1.85169e-10
1.62949e-10
1.62949e-10
2.6311e-08
7.80664e-05
1.5579e-20
9.2119e-19
2.01502e-17
2.61805e-16
2.4084e-15
1.69405e-14
9.25601e-14
4.06763e-13
1.52152e-12
5.02011e-12
1.51408e-11
3.6761e-11
8.60709e-11
2.03408e-10
2.5896e-10
1.62952e-10
1.62949e-10
1.74457e-06
7.81268e-05
2.03192e-20
8.67424e-19
1.73514e-17
2.30448e-16
2.27363e-15
1.80092e-14
1.10357e-13
5.21926e-13
2.00824e-12
6.70567e-12
2.00031e-11
5.39041e-11
1.45827e-10
3.2983e-10
4.06883e-10
2.38214e-10
1.62952e-10
2.11869e-05
7.8152e-05
3.69058e-20
1.50398e-18
2.0133e-17
2.46664e-16
2.46725e-15
2.23935e-14
1.69234e-13
9.16243e-13
3.67725e-12
1.2254e-11
3.79772e-11
1.06257e-10
2.20607e-10
4.01552e-10
4.40331e-10
4.26291e-10
1.63282e-10
3.77089e-05
7.8152e-05
3.28921e-19
3.40042e-17
3.663e-16
9.59925e-16
6.20282e-15
4.60929e-14
3.44611e-13
2.37217e-12
1.23314e-11
3.98374e-11
7.811e-11
1.14248e-10
1.51987e-10
3.38537e-10
3.3811e-10
4.34863e-10
1.64577e-10
3.54297e-05
7.8152e-05
1.35821e-18
2.89001e-16
5.59003e-15
1.53134e-14
6.34354e-14
4.16502e-13
1.6165e-12
5.21355e-12
1.68939e-11
3.40463e-11
3.3933e-11
3.41967e-11
1.92261e-10
2.01041e-10
3.88413e-09
6.48153e-09
1.66268e-10
1.73092e-05
7.81472e-05
2.45754e-18
8.3121e-16
2.29657e-14
1.1456e-13
4.64477e-13
2.84297e-12
9.79883e-12
1.66546e-11
1.9568e-11
1.9533e-11
8.65883e-10
7.14489e-09
4.16977e-09
7.26774e-09
2.26868e-08
2.26332e-08
1.92813e-10
2.192e-05
5.26603e-05
2.76624e-18
1.17779e-15
4.31871e-14
3.83453e-13
1.71761e-12
9.63338e-12
2.52031e-11
2.39593e-11
1.9533e-11
1.79475e-09
1.3888e-08
1.63883e-08
1.14711e-08
6.02354e-09
2.09334e-08
1.99842e-08
2.95224e-10
4.1668e-05
5.38602e-05
1.19765e-18
1.13236e-15
5.2383e-14
6.79437e-13
4.09208e-12
1.99401e-11
4.96514e-11
3.50952e-11
1.95819e-11
2.30869e-09
1.56198e-08
1.63866e-08
7.18104e-09
4.91865e-09
5.31411e-09
5.95392e-09
4.09973e-10
5.39561e-05
6.24933e-05
3.03633e-19
2.92372e-16
3.67879e-14
7.89043e-13
6.06732e-12
3.34156e-11
9.57909e-11
1.02874e-10
1.12245e-10
1.01615e-09
5.49208e-09
5.34245e-09
4.49426e-09
4.50921e-09
1.19311e-08
6.71416e-09
4.51667e-10
6.01961e-05
6.24933e-05
4.56621e-20
4.67344e-17
8.87864e-15
4.85497e-13
6.08434e-12
3.95021e-11
1.5371e-10
1.9515e-10
1.85576e-10
2.11885e-10
2.27136e-10
2.54284e-10
2.11152e-07
7.8693e-07
2.37768e-07
6.74221e-09
7.24767e-06
7.62285e-05
5.76257e-05
1.63357e-21
3.63515e-18
1.19844e-15
1.04346e-13
2.31451e-12
2.69876e-11
1.53106e-10
3.05693e-10
2.64111e-10
1.93953e-10
1.93873e-10
1.36012e-07
8.77128e-07
8.85249e-07
5.76747e-07
7.8201e-09
5.47311e-05
7.65067e-05
5.60057e-05
2.52352e-23
2.17521e-19
7.27206e-17
1.21579e-14
5.50915e-13
7.26051e-12
8.45367e-11
3.25665e-10
3.68709e-10
2.22746e-10
1.93971e-10
4.61911e-08
8.85221e-07
8.85055e-07
4.35843e-07
1.09741e-08
3.44235e-05
7.65067e-05
4.30597e-05
1.56956e-31
1.78555e-24
2.15529e-19
3.39001e-16
4.99538e-14
1.27291e-12
1.7243e-11
2.19467e-10
3.68709e-10
3.64421e-10
1.93645e-10
1.94026e-10
2.16459e-07
3.88533e-07
3.15607e-08
3.53704e-07
1.77567e-06
2.38099e-05
1.35758e-05
1.97826e-41
8.90565e-34
3.10402e-25
6.64749e-20
1.33876e-16
2.3723e-14
1.46496e-12
2.50749e-11
1.72054e-10
2.88359e-10
2.29149e-10
2.28169e-10
2.32497e-10
3.28674e-09
5.61632e-09
4.70553e-07
4.70074e-07
5.05918e-07
9.77091e-07
)
;

boundaryField
{
    leftWall
    {
        type            zeroGradient;
    }
    rightWall
    {
        type            zeroGradient;
    }
    lowerWall
    {
        type            zeroGradient;
    }
    atmosphere
    {
        type            inletOutlet;
        inletValue      uniform 0;
        value           nonuniform List<scalar> 
46
(
0
0
0
0
0
0
0
0
0
0
0
0
0
0
0
0
0
0
0
0
0
0
0
0
0
0
0
0
0
0
0
0
0
0
0
1.72054e-10
2.88359e-10
2.29149e-10
2.28169e-10
2.32497e-10
3.28674e-09
5.61632e-09
4.70553e-07
4.70074e-07
5.05918e-07
9.77091e-07
)
;
    }
    defaultFaces
    {
        type            empty;
    }
}


// ************************************************************************* //
