/*--------------------------------*- C++ -*----------------------------------*\
  =========                 |
  \\      /  F ield         | OpenFOAM: The Open Source CFD Toolbox
   \\    /   O peration     | Website:  https://openfoam.org
    \\  /    A nd           | Version:  9
     \\/     M anipulation  |
\*---------------------------------------------------------------------------*/
FoamFile
{
    format      ascii;
    class       volScalarField;
    location    "0.68";
    object      nut;
}
// * * * * * * * * * * * * * * * * * * * * * * * * * * * * * * * * * * * * * //

dimensions      [0 2 -1 0 0 0 0];

internalField   nonuniform List<scalar> 
2268
(
5.69141e-05
5.2868e-05
6.26894e-05
7.01886e-05
7.58919e-05
8.0449e-05
8.43445e-05
8.78155e-05
9.10022e-05
9.3905e-05
9.64744e-05
9.86545e-05
0.000100386
0.000101583
0.000102103
0.000101743
0.000100288
9.75395e-05
9.33455e-05
8.7742e-05
8.11097e-05
7.36154e-05
6.1402e-05
0.000111466
0.000280904
0.000422769
0.00052719
0.000610162
0.000681427
0.000743091
0.000797086
0.000844084
0.000884145
0.000918189
0.000946248
0.000967993
0.000982637
0.000988661
0.000983865
0.000965935
0.000933074
0.000884533
0.000819695
0.000733124
0.00053706
0.000176652
0.000120284
0.000466485
0.000718218
0.000925213
0.00110893
0.00127285
0.0014174
0.00154301
0.00165082
0.0017428
0.00182003
0.00188254
0.00192984
0.00196076
0.00197285
0.00196251
0.00192585
0.00185909
0.00175753
0.00160908
0.00136807
0.000913615
0.000201765
0.000123064
0.00057919
0.000917853
0.00122265
0.00150738
0.00176624
0.00199459
0.00219212
0.00236151
0.0025054
0.00262515
0.00272098
0.00279253
0.00283859
0.00285639
0.00284164
0.00278923
0.00269341
0.00254287
0.00230735
0.00191305
0.00122689
0.000224474
0.00012228
0.000629919
0.00104364
0.0014466
0.00183264
0.0021838
0.00249248
0.00275924
0.00298757
0.00318071
0.00334044
0.00346734
0.00356141
0.00362171
0.00364558
0.00362847
0.00356461
0.00344429
0.00324844
0.00293174
0.00239644
0.00149446
0.000248285
0.000121119
0.000630517
0.0011158
0.0016193
0.00210582
0.00254527
0.00292965
0.00326117
0.00354446
0.00378334
0.00397998
0.00413555
0.00425055
0.0043245
0.00435509
0.0043378
0.00426597
0.00412595
0.00389218
0.00350514
0.00284113
0.00172495
0.000278211
0.00012127
0.00060688
0.00115696
0.00176082
0.00234509
0.0028667
0.00332046
0.00371119
0.00404474
0.00432541
0.00455573
0.00473756
0.00487204
0.00495921
0.00499728
0.00498188
0.00490566
0.00475193
0.00449038
0.00405007
0.00327802
0.00194187
0.000321597
0.000123722
0.000580918
0.00119371
0.00189177
0.00256597
0.00316069
0.00367603
0.00411964
0.00449836
0.00481667
0.00507735
0.00528309
0.0054357
0.00553578
0.00558204
0.00557052
0.00549386
0.00533337
0.0050571
0.00458998
0.00376016
0.00223887
0.000384366
0.000342312
0.000438805
0.000482522
0.000476177
0.000425285
0.000340552
0.000288214
0.00026701
0.000258349
0.000255192
0.000254701
0.000255744
0.000257557
0.000258126
0.000253174
0.000238869
0.000215063
0.000177672
0.000163928
0.0010944
0.00205029
0.0028994
0.00323154
0.00307809
0.00256043
0.00226003
0.00207555
0.00194736
0.00189489
0.00188515
0.00190496
0.00195703
0.00202147
0.002026
0.00189587
0.00161819
0.00115865
0.000366468
0.00107909
0.00255665
0.00360811
0.00451163
0.00475684
0.00392008
0.00349162
0.00358253
0.00349184
0.00342156
0.00341987
0.00346477
0.0035492
0.00363184
0.00358383
0.00327372
0.00267095
0.00173734
0.000414561
0.001012
0.00239106
0.00313633
0.00420972
0.0051295
0.00527158
0.00437967
0.00445179
0.00453338
0.00450599
0.00452676
0.00459889
0.00469614
0.00476599
0.00465267
0.00419644
0.00334782
0.00207994
0.000443855
0.000916163
0.00180774
0.00250728
0.00349287
0.00446595
0.00540373
0.00510162
0.00501374
0.00521858
0.00525497
0.00530786
0.00541501
0.00552279
0.00557472
0.00540609
0.00484807
0.00383094
0.00232614
0.000464384
0.000786704
0.00145591
0.00220715
0.0030507
0.00402285
0.00494388
0.00523156
0.00537133
0.00564461
0.0057317
0.00585188
0.00600497
0.00612786
0.00616405
0.00595265
0.00533058
0.00420587
0.00252677
0.000480111
0.000609419
0.00152802
0.00226737
0.00294458
0.00376574
0.00466558
0.00513604
0.00545111
0.00584012
0.0060139
0.00620216
0.00641226
0.00657579
0.00659695
0.00635257
0.00569583
0.0045099
0.00270389
0.000492817
0.000567338
0.00179349
0.002479
0.00303403
0.00368074
0.00446674
0.00497471
0.00552601
0.00594005
0.0061751
0.00642949
0.00670379
0.00691442
0.00690805
0.00664226
0.00597414
0.00476153
0.00286641
0.000503362
0.000137906
0.000565854
0.00127924
0.0021101
0.00290272
0.00359419
0.0041929
0.00470959
0.00515162
0.00552301
0.00582671
0.00606689
0.00624627
0.00636617
0.00642615
0.00642315
0.00634857
0.00618446
0.00590184
0.00543693
0.00466647
0.00342084
0.00173464
0.000168743
0.000743318
0.00158496
0.00251267
0.00336934
0.00412762
0.00479515
0.00537899
0.00588315
0.00630811
0.00665638
0.00693513
0.00714768
0.00729602
0.00738114
0.00740179
0.00734875
0.00721206
0.00697682
0.00660916
0.00605597
0.00527024
0.0042724
0.000196883
0.00105908
0.00199658
0.00293394
0.00380937
0.00460436
0.00531756
0.00595159
0.00650505
0.00697162
0.00735412
0.00766555
0.00790854
0.00808509
0.00819749
0.00824673
0.00822587
0.00813427
0.00796773
0.0077098
0.00733927
0.00684999
0.00625047
0.000214181
0.00138312
0.00241772
0.00332299
0.00417859
0.00498382
0.00572723
0.006405
0.00700328
0.00750925
0.0079293
0.00827376
0.0085484
0.00875478
0.00889571
0.0089742
0.00899088
0.00895237
0.00885622
0.00869202
0.00844886
0.0081239
0.00768456
0.000218727
0.00158709
0.00275842
0.00371163
0.00456547
0.00535782
0.00609433
0.00677148
0.00737795
0.00790441
0.00835862
0.00874185
0.00905795
0.00930358
0.00948064
0.00959229
0.00964988
0.00966374
0.00963154
0.00954314
0.00939047
0.00916542
0.00881056
0.000221505
0.00171899
0.00302549
0.00405966
0.00494443
0.005738
0.00646269
0.00712381
0.0077173
0.00823998
0.00869919
0.00910099
0.0094447
0.00972419
0.00993891
0.0100932
0.0101956
0.0102602
0.0102868
0.0102673
0.0101884
0.0100339
0.00975147
0.000222839
0.00180132
0.00322849
0.00435495
0.00529099
0.00610353
0.00682669
0.00747573
0.00805555
0.00856887
0.00902254
0.00942316
0.00977167
0.0100651
0.0103039
0.0104938
0.0106418
0.0107571
0.0108379
0.0108741
0.0108482
0.0107403
0.0105133
0.000223541
0.00185577
0.00338369
0.00459698
0.00559081
0.00643392
0.00716728
0.00781374
0.00838546
0.00889022
0.00933573
0.00972896
0.0100734
0.0103699
0.0106211
0.0108323
0.0110097
0.0111568
0.0112756
0.0113582
0.0113866
0.0113331
0.0111495
0.000223649
0.00189584
0.00350293
0.00479046
0.00583976
0.00671794
0.00746918
0.00812122
0.00869133
0.00919113
0.00962995
0.0100156
0.0103534
0.0106473
0.0109014
0.0111212
0.0113123
0.0114784
0.0116199
0.0117328
0.0118031
0.0117978
0.0116662
0.000223206
0.00192469
0.00359241
0.00494045
0.00603892
0.00695188
0.00772451
0.00838733
0.0089609
0.00945963
0.00989447
0.0102742
0.0106056
0.0108943
0.0111456
0.0113653
0.011559
0.0117308
0.0118818
0.012008
0.0120968
0.0121203
0.0120296
0.00022224
0.00194289
0.00365554
0.00505143
0.00619144
0.00713632
0.00793094
0.00860712
0.0091874
0.00968808
0.0101215
0.0104974
0.0108235
0.0111065
0.0113526
0.0115677
0.0117575
0.0119266
0.0120766
0.0122043
0.0122985
0.0123362
0.0122814
0.000220781
0.00195039
0.00369513
0.00512738
0.00630127
0.00727405
0.00808956
0.0087799
0.00936862
0.00987324
0.0103071
0.0106808
0.0110029
0.0112807
0.0115209
0.0117297
0.0119132
0.0120759
0.0122199
0.0123429
0.012435
0.0124773
0.0124422
0.000218896
0.00194766
0.00371381
0.00517244
0.00637258
0.0073689
0.00820334
0.00890756
0.00950539
0.010015
0.0104505
0.0108231
0.0111421
0.0114152
0.0116497
0.0118521
0.0120284
0.0121836
0.0123201
0.0124358
0.012522
0.0125621
0.0125328
0.000216558
0.00193884
0.0037143
0.0051903
0.00640997
0.0074251
0.0082761
0.00899336
0.00960029
0.0101153
0.0105529
0.0109249
0.0112411
0.0115098
0.0117386
0.0119345
0.0121038
0.0122515
0.0123804
0.0124884
0.0125674
0.0126015
0.0125696
0.000213773
0.00192559
0.00369911
0.00518429
0.0064175
0.00744741
0.00831221
0.00904111
0.00965674
0.010177
0.0106168
0.0109881
0.0113012
0.0115651
0.0117878
0.0119768
0.0121388
0.0122793
0.0124009
0.0125021
0.0125746
0.012603
0.0125661
0.000210623
0.0019074
0.00367194
0.00515738
0.00639876
0.00743987
0.00831622
0.00905523
0.00967853
0.0102036
0.010645
0.011015
0.0113243
0.0115824
0.011798
0.0119792
0.0121333
0.0122661
0.012381
0.0124767
0.0125453
0.0125712
0.0125332
0.000207223
0.00188466
0.00363388
0.00511292
0.00635715
0.00740608
0.00829193
0.0090398
0.00966983
0.0101988
0.0106409
0.0110086
0.0113128
0.0115637
0.0117706
0.0119424
0.0120872
0.0122119
0.0123204
0.0124124
0.0124805
0.0125096
0.0124784
0.000203694
0.00185803
0.00358582
0.00505377
0.00629579
0.00734944
0.00824277
0.00899825
0.00963417
0.0101661
0.0106079
0.0109718
0.0112693
0.0115111
0.0117074
0.0118679
0.0120019
0.0121174
0.0122197
0.0123096
0.0123811
0.0124203
0.0124062
0.000200166
0.00182826
0.00352921
0.0049817
0.00621796
0.00727326
0.00817206
0.00893384
0.00957469
0.0101088
0.0105491
0.010908
0.011197
0.0114276
0.011611
0.0117581
0.0118796
0.0119847
0.0120806
0.0121699
0.0122485
0.0123042
0.0123171
0.000196763
0.00179619
0.00346574
0.00489885
0.00612654
0.0071808
0.00808313
0.00884978
0.00949452
0.0100298
0.0104678
0.0108202
0.0110991
0.0113165
0.0114849
0.0116165
0.0117235
0.0118171
0.0119062
0.0119956
0.012084
0.0121613
0.0122092
0.000193601
0.00176272
0.0033973
0.00480777
0.00602435
0.00707542
0.00797939
0.00874947
0.00939693
0.00993246
0.0103669
0.0107118
0.0109791
0.0111818
0.0113332
0.0114473
0.0115382
0.0116188
0.0117004
0.0117901
0.0118893
0.0119907
0.0120781
0.000190783
0.0017288
0.00332598
0.00471135
0.0059146
0.00696063
0.00786447
0.00863649
0.00928547
0.00982019
0.0102503
0.0105865
0.0108412
0.0110277
0.0111607
0.0112558
0.0113288
0.0113952
0.0114681
0.0115572
0.0116666
0.0117919
0.0119194
0.000188393
0.00169544
0.00325404
0.00461272
0.0058009
0.00684011
0.0077422
0.0085147
0.00916396
0.00969684
0.0101216
0.0104485
0.0106896
0.010859
0.0109727
0.0110476
0.0111015
0.011152
0.0112148
0.0113015
0.0114188
0.0115652
0.0117295
0.000186509
0.00166346
0.00318372
0.00451515
0.00568698
0.00671784
0.0076166
0.0083881
0.0090364
0.0095665
0.00998529
0.0103022
0.0105292
0.010681
0.0107747
0.0108287
0.0108626
0.0108958
0.0109464
0.0110282
0.0111497
0.0113122
0.011507
0.000185171
0.00163359
0.00311715
0.00442179
0.00557665
0.0065979
0.00749179
0.0082608
0.00890689
0.00943327
0.0098455
0.0101521
0.0103649
0.010499
0.0105723
0.010605
0.0106182
0.010633
0.0106689
0.0107428
0.0108642
0.0110364
0.0112536
0.000184373
0.00160684
0.00305654
0.00433576
0.00547363
0.00648428
0.00737182
0.0081368
0.00877937
0.00930117
0.0097064
0.0100027
0.0102014
0.0103179
0.010371
0.0103822
0.010374
0.0103693
0.0103888
0.0104506
0.0105673
0.0107428
0.0109733
0.000184104
0.00158403
0.00300374
0.00425982
0.00538129
0.00638065
0.00726048
0.00801984
0.00865755
0.00917388
0.0095718
0.00985791
0.0100431
0.0101426
0.0101759
0.0101655
0.0101354
0.0101099
0.010111
0.0101578
0.0102644
0.0104369
0.0106721
0.000184337
0.00156576
0.00296027
0.00419625
0.00530247
0.00629025
0.00716114
0.00791331
0.00854471
0.00905463
0.00944499
0.00972135
0.00989376
0.00997721
0.00999136
0.00995953
0.0099071
0.00985949
0.00984018
0.009869
0.0099608
0.0101242
0.0103567
0.00018504
0.00155253
0.00292732
0.00414689
0.00523956
0.00621584
0.00707673
0.00782014
0.00844368
0.00894616
0.00932868
0.00959579
0.00975657
0.00982527
0.00982134
0.00976855
0.00969325
0.00962216
0.00958006
0.00958786
0.00966112
0.00980906
0.0100329
0.000186181
0.00154485
0.00290594
0.00411327
0.00519458
0.00615978
0.00700982
0.00774288
0.00835688
0.00885068
0.00922497
0.00948342
0.00963391
0.00968956
0.00966909
0.00959616
0.00949774
0.0094017
0.00933424
0.00931762
0.00936846
0.00949677
0.00970538
0.000187733
0.00154332
0.00289714
0.00409688
0.00516944
0.00612433
0.00696279
0.00768385
0.0082864
0.00876999
0.00913542
0.0093857
0.00952743
0.00957219
0.0095373
0.00944566
0.00932428
0.00920196
0.00910638
0.00906148
0.00908545
0.00918951
0.0093773
0.000189694
0.00154862
0.00290217
0.00409944
0.00516631
0.0061119
0.0069381
0.00764533
0.00823416
0.00870558
0.00906109
0.00930345
0.00943802
0.00947445
0.00942801
0.00931995
0.00917661
0.0090272
0.0089008
0.00882336
0.00881525
0.0088896
0.0090516
0.000192088
0.00156172
0.00292273
0.00412334
0.00518802
0.0061255
0.00693862
0.00762979
0.00820206
0.00865868
0.00900262
0.00923687
0.00936574
0.00939674
0.00934241
0.00922145
0.00905847
0.00888226
0.00872295
0.00860865
0.00856247
0.00860035
0.00872988
0.000194982
0.00158392
0.00296133
0.00417216
0.00523872
0.00616924
0.00696796
0.0076401
0.00819211
0.00863039
0.0089602
0.00918542
0.00930968
0.00933829
0.00928056
0.00915166
0.00897323
0.00877246
0.00857966
0.00842486
0.00833431
0.00832764
0.00841597
0.000198509
0.0016167
0.0030217
0.0042514
0.00532458
0.00624886
0.00703078
0.0076796
0.00820634
0.00862156
0.00893357
0.00914785
0.00926784
0.00929687
0.0092408
0.00911044
0.00892316
0.00870296
0.00847887
0.00828195
0.00814151
0.0080815
0.00811783
0.000202945
0.00166198
0.0031098
0.00436992
0.00545496
0.00637242
0.00713301
0.00775205
0.00824667
0.00863258
0.00892185
0.00912208
0.00923706
0.00926862
0.00921928
0.00909513
0.00890813
0.00867738
0.00842856
0.00819193
0.00799883
0.00787761
0.00784992
0.000208752
0.00172339
0.00323665
0.0045425
0.00564408
0.00655092
0.00728176
0.0078612
0.00831441
0.00866309
0.00892335
0.00910515
0.00921306
0.00924798
0.00920968
0.00909972
0.00892421
0.00869582
0.0084346
0.0081672
0.00792452
0.00773805
0.00763551
0.000216541
0.00181152
0.00342326
0.00479424
0.00591351
0.00679881
0.00748466
0.00800984
0.00840946
0.00871139
0.00893537
0.00909336
0.00919077
0.00922816
0.00920349
0.00911469
0.00896241
0.00875238
0.00849717
0.00821674
0.00793768
0.00769099
0.00750843
0.000227663
0.00194377
0.00370856
0.00516737
0.00629423
0.00713303
0.00774796
0.00819805
0.00852912
0.00877392
0.00895413
0.00908255
0.00916502
0.00920214
0.00919109
0.00912773
0.0090087
0.00883367
0.00860727
0.00834055
0.00805169
0.00776564
0.00751256
0.000245108
0.00216426
0.00417895
0.00573742
0.00682879
0.00756895
0.00807219
0.00842045
0.00866688
0.00884491
0.00897501
0.00906879
0.00913159
0.00916411
0.00916379
0.0091261
0.00904601
0.00891941
0.00874474
0.00852429
0.00826557
0.00798218
0.0076944
0.000277211
0.00263679
0.00506056
0.00664032
0.00756417
0.00810867
0.00844465
0.00866297
0.00881162
0.00891685
0.00899344
0.00904946
0.0090886
0.00911148
0.00911641
0.00910008
0.00905818
0.00898615
0.00887985
0.00873633
0.0085545
0.00833588
0.00808544
0.000339225
0.0042562
0.0070117
0.00807245
0.00850585
0.00871434
0.00883011
0.00890149
0.0089489
0.0089822
0.00900656
0.00902473
0.00903799
0.00904657
0.0090499
0.00904678
0.00903552
0.00901408
0.0089802
0.00893147
0.00886533
0.008779
0.00866912
0.000416203
0.000411247
0.000424682
0.00045894
0.00343569
0.00326856
0.00316019
0.00306859
0.0056932
0.00535636
0.0049668
0.00450036
0.00715671
0.00675384
0.0062357
0.00558681
0.00831949
0.00794105
0.00744041
0.00678177
0.00934378
0.00906556
0.00871118
0.00812675
0.0101578
0.00989377
0.00953082
0.00910555
0.0108034
0.010533
0.0102053
0.00984116
0.0113913
0.0111706
0.010899
0.010599
0.0118225
0.0116553
0.0114439
0.0111967
0.0121299
0.0120049
0.0118429
0.0116458
0.0123254
0.012226
0.0120962
0.0119356
0.0124312
0.0123431
0.0122281
0.0120851
0.0124701
0.0123837
0.012272
0.0121339
0.0124634
0.012375
0.0122617
0.0121224
0.0124294
0.0123405
0.0122269
0.0120873
0.0123812
0.0122975
0.0121894
0.0120559
0.0123257
0.0122547
0.0121604
0.0120415
0.012264
0.0122131
0.0121405
0.0120448
0.012192
0.0121671
0.0121228
0.012057
0.0121022
0.0121072
0.0120955
0.0120642
0.0119865
0.0120226
0.0120452
0.0120507
0.0118376
0.0119038
0.01196
0.0120023
0.0116512
0.0117443
0.0118313
0.0119079
0.0114263
0.0115417
0.0116548
0.0117614
0.0111662
0.011298
0.0114314
0.0115623
0.0108768
0.0110192
0.0111665
0.0113151
0.0105657
0.0107133
0.0108686
0.0110284
0.0102402
0.0103886
0.010547
0.0107125
0.00990632
0.0100523
0.01021
0.0103768
0.00956783
0.00970886
0.00986317
0.0100282
0.00922643
0.0093602
0.0095089
0.00967
0.00888441
0.00900732
0.00914774
0.00930258
0.00854392
0.0086524
0.0087803
0.00892552
0.00821061
0.00829954
0.0084101
0.00854042
0.00789664
0.00795906
0.00804539
0.00815424
0.00762399
0.00765123
0.00770432
0.00778265
0.00742789
0.00741082
0.00742006
0.00745629
0.00735984
0.00729194
0.00724741
0.00722864
0.00748639
0.00737165
0.00727115
0.00718855
0.00787701
0.00774519
0.00761242
0.00748076
0.00856621
0.00849345
0.00841202
0.00832015
0.00163532
0.00234094
0.00278311
0.00327411
0.0037381
0.00424816
0.00479257
0.00561223
0.00599221
0.00628094
0.00662464
0.0069902
0.00725827
0.00719158
0.00691066
0.00624899
0.00503151
0.00305467
0.00051283
0.00309638
0.00283347
0.00312733
0.00360107
0.00395123
0.0041724
0.00468416
0.00545913
0.00578325
0.00612582
0.00661196
0.00712709
0.00741132
0.00737421
0.00711097
0.00648192
0.00530284
0.00329836
0.000524799
0.00380716
0.00307716
0.00329635
0.00382232
0.00411761
0.00424378
0.00464978
0.00519653
0.00548129
0.00591642
0.00656756
0.00718204
0.00749168
0.00749346
0.00722184
0.00659428
0.00544467
0.00346519
0.000531694
0.00458752
0.00344375
0.00337205
0.00386871
0.00421441
0.00436586
0.00461895
0.00494511
0.00529136
0.00590327
0.00673759
0.00735007
0.0076423
0.0076196
0.00728577
0.00660961
0.00544563
0.00347339
0.000532063
0.00564683
0.00406372
0.00351392
0.00380013
0.00425165
0.00447967
0.00460182
0.00483042
0.00535153
0.00625302
0.00725463
0.00773006
0.00792432
0.00778193
0.00731962
0.00654677
0.00532862
0.00337134
0.000515733
0.00697011
0.00511227
0.00399756
0.00378297
0.00414308
0.00451396
0.0046451
0.0048951
0.00565861
0.00689998
0.00787299
0.00817688
0.00826112
0.0079341
0.00730209
0.00639468
0.00508204
0.00315384
0.000488489
0.00823621
0.0064671
0.00497279
0.00418392
0.00410734
0.00440728
0.00476847
0.00517544
0.00620318
0.00765316
0.00834233
0.0086365
0.00856025
0.0080277
0.00721404
0.00615621
0.00474609
0.00286042
0.000464799
0.00930097
0.00789413
0.0063881
0.00518662
0.00461403
0.00460929
0.0050027
0.00573302
0.00699459
0.00830191
0.00876588
0.00907756
0.00878746
0.00807094
0.00708589
0.00589931
0.00448728
0.00267873
0.000457478
0.0102075
0.00922497
0.00792743
0.0066426
0.00573241
0.00539269
0.00562412
0.00641012
0.00751398
0.00847876
0.00923892
0.00941147
0.00897613
0.00813698
0.00701498
0.00576496
0.00444828
0.00267781
0.000480941
0.0108299
0.0101975
0.00924874
0.00813765
0.00718621
0.00663628
0.00661683
0.00709852
0.00796007
0.00900154
0.00965682
0.0097045
0.00923794
0.00829318
0.00703067
0.00571609
0.00429696
0.00260743
0.000490608
0.0113172
0.0107311
0.0101252
0.00931101
0.0085205
0.00798699
0.00784474
0.00814001
0.00880142
0.0095812
0.0100137
0.010072
0.00960115
0.00844074
0.00710876
0.00569453
0.00405706
0.00233762
0.00045469
0.011655
0.0111129
0.0105364
0.00999749
0.00942657
0.00905337
0.00892727
0.00915425
0.0095954
0.0100762
0.0104764
0.0105331
0.00984037
0.00867963
0.00740766
0.00592416
0.00409991
0.00220849
0.000469601
0.0118302
0.0113321
0.0107865
0.0102759
0.00986395
0.00963281
0.00964236
0.0099127
0.0102117
0.0106439
0.0111071
0.0108799
0.0101157
0.00915205
0.007916
0.00632868
0.00431658
0.00225176
0.000506189
0.011887
0.0114077
0.0108781
0.0103848
0.0100202
0.00985765
0.00991426
0.0102069
0.010572
0.0110669
0.0112232
0.0109384
0.0104499
0.0096594
0.00843302
0.00675775
0.0045867
0.00235644
0.000556078
0.0118748
0.0113984
0.0108741
0.0103943
0.0100595
0.00996468
0.0101581
0.0106091
0.0110235
0.0111515
0.0110549
0.0109553
0.0106724
0.00994638
0.00878705
0.00712382
0.00500712
0.00265847
0.000610436
0.0118415
0.0113687
0.0108528
0.0103941
0.0101002
0.0100673
0.0103374
0.0108011
0.0111014
0.0110682
0.0109812
0.0110068
0.0108844
0.0102829
0.00923394
0.0077174
0.00593151
0.00332899
0.000654466
0.0118226
0.0113675
0.0108741
0.0104462
0.0101922
0.0101932
0.0104609
0.0108366
0.0110325
0.0109849
0.0109672
0.0110916
0.0110686
0.0105995
0.00970343
0.00849862
0.00695749
0.00412269
0.000689898
0.0118349
0.0114171
0.0109607
0.010567
0.010337
0.0103338
0.0105433
0.0108125
0.010941
0.0109245
0.0109858
0.0111848
0.0112225
0.010864
0.0101535
0.00924183
0.00767127
0.00468171
0.000721139
0.0118783
0.0115157
0.0111068
0.0107445
0.0105193
0.010482
0.0106071
0.0107775
0.0108625
0.0108873
0.0110212
0.0112769
0.0113866
0.0111474
0.0105886
0.00973887
0.00810537
0.00501204
0.000741797
0.011941
0.0116474
0.011293
0.0109583
0.0107236
0.0106343
0.0106717
0.0107546
0.0108086
0.010874
0.0110683
0.0113686
0.0115532
0.0114356
0.0109862
0.0101505
0.00846714
0.0052501
0.000755041
0.0120054
0.0117911
0.0114974
0.0111898
0.0109401
0.0107939
0.0107477
0.0107556
0.0107844
0.0108785
0.0111132
0.0114464
0.0116942
0.0116829
0.0113298
0.0105259
0.0087712
0.00542555
0.000762725
0.0120527
0.0119252
0.0116992
0.0114245
0.0111638
0.0109664
0.0108468
0.0107902
0.0107929
0.0108976
0.0111489
0.0114945
0.0117816
0.0118468
0.0115761
0.0108115
0.00900807
0.00555232
0.000765685
0.0120656
0.0120295
0.0118799
0.011649
0.0113902
0.0111555
0.0109767
0.0108655
0.0108388
0.0109361
0.01118
0.0115133
0.0118087
0.0119192
0.0117138
0.0109863
0.00919561
0.00566681
0.000764812
0.0120299
0.0120867
0.0120217
0.0118493
0.0116112
0.0113597
0.01114
0.010985
0.010927
0.0110023
0.0112191
0.0115207
0.0118006
0.0119286
0.0117643
0.0110739
0.00935151
0.00577987
0.000762344
0.0119364
0.012083
0.0121082
0.0120094
0.011814
0.0115704
0.0113317
0.0111464
0.0110582
0.0111019
0.011278
0.0115345
0.0117823
0.0119034
0.0117501
0.0110806
0.0094245
0.00581135
0.000763561
0.0117816
0.0120099
0.012126
0.0121123
0.011981
0.0117714
0.0115383
0.0113391
0.0112255
0.0112324
0.0113588
0.0115603
0.0117619
0.0118545
0.0116841
0.0110065
0.00939115
0.00587345
0.000783795
0.0115684
0.0118655
0.0120667
0.012143
0.012092
0.0119404
0.0117378
0.0115434
0.0114127
0.0113821
0.0114533
0.0115925
0.0117387
0.0117916
0.0115938
0.0108976
0.00929633
0.00592578
0.000805912
0.0113048
0.011655
0.0119296
0.0120925
0.0121294
0.0120533
0.0119028
0.0117323
0.0115962
0.0115318
0.011547
0.011621
0.0117081
0.0117179
0.0114923
0.0107815
0.00918848
0.00580571
0.000775104
0.0110022
0.0113895
0.0117217
0.0119605
0.0120833
0.0120904
0.0120072
0.0118773
0.0117492
0.0116599
0.0116242
0.0116357
0.0116634
0.0116259
0.0113641
0.0106251
0.00901589
0.00565936
0.00075104
0.0106722
0.0110823
0.0114561
0.0117558
0.0119545
0.0120429
0.0120331
0.0119556
0.0118493
0.011748
0.0116728
0.0116299
0.0116007
0.0115115
0.0112046
0.0104293
0.00880073
0.00550668
0.000730281
0.0103238
0.0107462
0.0111478
0.011493
0.0117535
0.0119138
0.0119755
0.0119561
0.0118831
0.0117852
0.0116863
0.0116009
0.0115187
0.0113732
0.0110133
0.0101987
0.0085577
0.00532671
0.000711111
0.00996191
0.0103895
0.010809
0.0111869
0.0114952
0.0117153
0.0118412
0.0118798
0.0118481
0.0117681
0.0116623
0.0115478
0.0114175
0.0112099
0.0107873
0.00992938
0.00828351
0.00509611
0.000690372
0.00958754
0.0100154
0.0104465
0.0108483
0.0111933
0.0114615
0.0116423
0.0117353
0.0117488
0.0116977
0.0116001
0.0114701
0.0112989
0.0110286
0.0105354
0.00962649
0.00797929
0.00481862
0.00069279
0.00919923
0.00962271
0.0100609
0.010481
0.0108554
0.0111628
0.0113902
0.0115322
0.0115912
0.0115755
0.0114973
0.0113649
0.0111654
0.0108438
0.0102894
0.00933344
0.00770552
0.00487947
0.000721942
0.00879587
0.00920822
0.00964908
0.0100837
0.0104827
0.0108235
0.0110908
0.0112764
0.0113784
0.0114002
0.011348
0.0112239
0.0110118
0.0106611
0.0100761
0.00910748
0.00751964
0.00484262
0.000745441
0.00838008
0.00877065
0.00920748
0.00965245
0.0100727
0.0104429
0.0107453
0.0109695
0.0111105
0.0111681
0.0111435
0.0110338
0.0108211
0.0104595
0.00986676
0.00890717
0.00735036
0.00471719
0.00073222
0.0079646
0.008315
0.00873655
0.00918599
0.00962438
0.0100209
0.0103545
0.0106123
0.0107873
0.0108763
0.010877
0.0107824
0.010573
0.0102067
0.00961077
0.00865977
0.00712596
0.00453339
0.000706745
0.0075748
0.00785703
0.00824483
0.00868993
0.00914388
0.00956465
0.00992583
0.0102122
0.0104152
0.0105296
0.0105501
0.0104667
0.0102577
0.00988311
0.00927576
0.0083235
0.00681588
0.00430315
0.000677736
0.00725851
0.00743147
0.00775172
0.00817775
0.00864931
0.00909539
0.00948109
0.00979047
0.0100146
0.0101471
0.0101803
0.0101014
0.00988615
0.00949273
0.00885541
0.00787762
0.00639311
0.00400718
0.000647658
0.00710359
0.00710414
0.0072873
0.0076587
0.00816893
0.00865259
0.00906231
0.0093887
0.00962647
0.00976919
0.0098076
0.00972589
0.00949546
0.00906718
0.00836561
0.00730381
0.00583056
0.00361092
0.000612509
0.0072818
0.00703593
0.00693096
0.00711515
0.00773046
0.0082893
0.00872804
0.00906608
0.00931027
0.0094566
0.00949452
0.00940484
0.00915216
0.0086713
0.00784927
0.0065497
0.00512436
0.00309894
0.00057434
0.00814885
0.00780564
0.00731961
0.00681118
0.0073861
0.00806519
0.00853677
0.00888209
0.00912801
0.00927467
0.00931087
0.00921429
0.00894175
0.00840478
0.00740593
0.00556442
0.00501892
0.00344911
0.000522272
)
;

boundaryField
{
    leftWall
    {
        type            nutkWallFunction;
        Cmu             0.09;
        kappa           0.41;
        E               9.8;
        value           nonuniform List<scalar> 
50
(
1.06213e-05
1.31795e-05
1.41455e-05
1.44384e-05
1.43485e-05
1.42518e-05
1.42827e-05
1.45753e-05
1.62359e-05
1.98626e-05
1.97941e-05
2.21832e-05
2.2789e-05
2.31294e-05
2.32866e-05
2.3365e-05
2.33651e-05
2.32907e-05
2.31454e-05
2.29336e-05
2.26605e-05
2.23188e-05
2.19128e-05
2.14551e-05
2.09618e-05
2.04507e-05
1.994e-05
1.94478e-05
1.89912e-05
1.85852e-05
1.82417e-05
1.79709e-05
1.77797e-05
1.76686e-05
1.76352e-05
1.76755e-05
1.77846e-05
1.79571e-05
1.81889e-05
1.84789e-05
1.88304e-05
1.92522e-05
1.97631e-05
2.04035e-05
2.12334e-05
2.23394e-05
2.39098e-05
2.63611e-05
3.09024e-05
4.00841e-05
)
;
    }
    rightWall
    {
        type            nutkWallFunction;
        Cmu             0.09;
        kappa           0.41;
        E               9.8;
        value           nonuniform List<scalar> 
50
(
3.0835e-05
4.02077e-05
4.47906e-05
4.75843e-05
4.95403e-05
5.10469e-05
5.227e-05
5.32894e-05
5.42091e-05
5.54046e-05
5.61907e-05
5.64104e-05
5.51023e-05
5.24605e-05
4.97742e-05
4.83262e-05
4.95518e-05
5.27949e-05
4.95814e-05
4.91308e-05
5.20065e-05
5.59937e-05
6.20691e-05
6.63865e-05
6.87925e-05
7.17698e-05
7.41722e-05
7.57752e-05
7.67496e-05
7.72173e-05
7.72741e-05
7.70704e-05
7.70682e-05
8.82423e-05
9.59416e-05
8.65084e-05
7.79524e-05
7.5952e-05
7.41895e-05
7.23025e-05
7.32955e-05
8.60455e-05
8.95388e-05
8.94467e-05
8.68209e-05
8.33552e-05
7.96837e-05
7.53893e-05
7.06671e-05
6.40005e-05
)
;
    }
    lowerWall
    {
        type            nutkWallFunction;
        Cmu             0.09;
        kappa           0.41;
        E               9.8;
        value           nonuniform List<scalar> 
62
(
5.08752e-06
6.4364e-06
7.61655e-06
8.50603e-06
9.16877e-06
9.69285e-06
1.0137e-05
1.05294e-05
1.08858e-05
1.12106e-05
1.14987e-05
1.17436e-05
1.19385e-05
1.20743e-05
1.21348e-05
1.20962e-05
1.19328e-05
1.16205e-05
1.11393e-05
1.04905e-05
9.71669e-06
8.85298e-06
7.48087e-06
7.48087e-06
2.02847e-05
2.29067e-05
2.52312e-05
2.76059e-05
3.0514e-05
3.47154e-05
4.09188e-05
4.40791e-05
4.34891e-05
4.47156e-05
4.79779e-05
3.80818e-05
0.00011064
0.000107471
0.000101396
9.17182e-05
7.69254e-05
6.0081e-05
5.87452e-05
3.80818e-05
4.80677e-05
5.23277e-05
5.04585e-05
4.45642e-05
3.67209e-05
3.19641e-05
3.00452e-05
2.92263e-05
2.88474e-05
2.87172e-05
2.87415e-05
2.88464e-05
2.88479e-05
2.83395e-05
2.69059e-05
2.44712e-05
2.05766e-05
1.39961e-05
)
;
    }
    atmosphere
    {
        type            calculated;
        value           nonuniform List<scalar> 
46
(
0.000339225
0.009
0.009
0.009
0.009
0.009
0.009
0.009
0.009
0.009
0.009
0.009
0.009
0.009
0.009
0.009
0.009
0.009
0.009
0.009
0.009
0.009
0.009
0.009
0.009
0.009
0.009
0.009
0.009
0.009
0.009
0.0073861
0.00806519
0.00853677
0.00888209
0.00912801
0.00927467
0.00931087
0.00921429
0.00894175
0.00840478
0.00740593
0.009
0.009
0.009
0.000522272
)
;
    }
    defaultFaces
    {
        type            empty;
    }
}


// ************************************************************************* //
