/*--------------------------------*- C++ -*----------------------------------*\
  =========                 |
  \\      /  F ield         | OpenFOAM: The Open Source CFD Toolbox
   \\    /   O peration     | Website:  https://openfoam.org
    \\  /    A nd           | Version:  9
     \\/     M anipulation  |
\*---------------------------------------------------------------------------*/
FoamFile
{
    format      ascii;
    class       volScalarField;
    location    "5.13";
    object      alpha.water;
}
// * * * * * * * * * * * * * * * * * * * * * * * * * * * * * * * * * * * * * //

dimensions      [0 0 0 0 0 0 0];

internalField   nonuniform List<scalar> 
2268
(
1
0.999999
0.999999
0.999999
1
0.999999
1
0.999999
0.999998
0.999999
1
1
1
1
1
1
1
0.999945
0.999905
0.997165
0.996173
0.996522
0.996523
0.999999
0.999998
0.999998
0.999998
1
0.999999
0.999998
0.999998
0.999998
1
1
1
1
1
1
1
0.999965
0.999965
0.999965
0.999964
0.999803
0.999991
0.999609
0.999998
0.999997
0.999998
0.999999
1
0.999999
0.999999
0.999999
1
1
1
1
1
1
1
1
0.999745
0.99684
0.990169
0.997773
0.999638
0.999991
0.999991
1
0.999998
0.999999
0.999999
1
1
1
1
1
1
1
1
1
1
1
1
0.99994
0.980929
0.979896
0.980168
0.989703
0.999876
0.999972
1
0.999999
1
1
1
1
1
1
1
1
1
1
1
1
1
1
1
0.9847
0.979889
0.979889
0.986273
0.999848
0.99996
1
1
1
1
1
1
1
1
1
1
1
1
1
1
1
1
1
0.997679
0.979889
0.979889
0.992604
0.999991
0.999973
1
1
1
1
1
1
1
1
1
1
1
1
1
1
1
1
1
1
0.994417
0.991444
0.999003
0.999997
0.999998
1
1
1
1
1
1
1
1
1
1
1
1
1
1
1
0.999999
0.999999
0.999999
1
1
0.999997
0.999999
1
0.99017
0.99198
0.994359
0.993591
0.991681
0.99068
0.99068
0.99068
0.991439
0.997808
0.998729
0.99872
0.990323
0.975796
0.993847
0.998557
0.998557
0.997586
0.992948
0.99017
0.999755
0.999963
0.999963
0.999963
0.99959
0.998317
0.998342
0.999182
0.998764
0.998729
0.998729
0.98752
0.975798
0.998556
0.998557
0.998558
0.998497
0.992946
0.995519
0.999396
0.999959
0.999963
0.999939
0.999919
0.999915
0.999915
0.999764
0.998808
0.998745
0.994983
0.960277
0.981387
0.998557
0.998558
0.998558
0.998534
0.992947
0.999876
0.999923
0.99988
0.99995
0.999964
0.999964
0.999874
0.998632
0.998391
0.997014
0.971666
0.960428
0.960179
0.976578
0.998557
0.998557
0.998558
0.998556
0.9955
0.999889
0.999969
0.999957
0.999956
0.999964
0.999964
0.998984
0.998152
0.998255
0.995176
0.960169
0.960168
0.960169
0.979914
0.998544
0.998554
0.991015
0.998026
0.998485
0.999982
0.999991
0.999991
0.999979
0.99995
0.99996
0.999479
0.998916
0.999638
0.998828
0.978133
0.960168
0.960168
0.998109
0.998545
0.998074
0.974574
0.996457
0.998485
0.999991
0.999991
0.999991
0.999974
0.999852
0.999852
0.99992
0.999976
0.999976
0.999246
0.992628
0.979086
0.991052
0.998544
0.998545
0.997422
0.974561
0.99452
0.998485
0.999994
0.999993
0.999992
0.999992
0.999992
0.999991
0.999991
0.99999
0.998321
0.996734
0.997382
0.998523
0.998529
0.998544
0.998544
0.998527
0.974554
0.969583
0.998145
1
0.999999
1
1
1
1
1
1
0.999999
0.999999
0.999999
0.999999
0.999999
1
1
1
1
1
1
1
1
1
1
0.944007
0.943832
0.94577
0.948091
0.951382
0.955397
0.959696
0.964025
0.968887
0.972888
0.97568
0.978038
0.980304
0.982774
0.985547
0.989351
0.994332
1
1
1
1
1
1
0.24503
0.248768
0.252774
0.257648
0.262437
0.267722
0.273831
0.280576
0.287883
0.296475
0.30656
0.317594
0.329074
0.34083
0.352571
0.364085
0.375399
0.388509
0.405903
0.41632
0.422903
0.430777
0.443763
0.000692323
0.000691044
0.000690407
0.000690954
0.000690408
0.000691757
0.000697287
0.000701496
0.000698279
0.000696278
0.00069563
0.00069618
0.000695695
0.000724425
0.000896747
0.00122435
0.00168999
0.00230454
0.0016153
0.00201712
0.00251513
0.00252221
0.00228915
0.00173506
0.001735
0.00150897
0.000935415
0.00208881
0.00407209
0.00473568
0.00500156
0.00515153
0.00533682
0.00538117
0.00538218
0.00538242
0.00538218
0.00537696
0.00537658
0.00537617
0.00245091
0.00116014
0.0019223
0.00238337
0.00213469
0.000933602
0.00120805
0.00136283
0.00141883
0.00152845
0.001528
0.000361939
8.59887e-05
0.000303265
0.000505182
0.000678708
0.000906663
0.00117852
0.00134619
0.00132839
0.00123661
0.00101376
0.00134749
0.00162041
0.00115897
0.00118815
0.00107723
0.000796546
0.000577451
0.00023743
0.000151586
0.000194846
0.000285959
3.48374e-05
7.36947e-05
1.26207e-06
8.03739e-09
8.03732e-09
8.03739e-09
8.03732e-09
8.07196e-09
9.16374e-09
1.10604e-08
1.12929e-08
4.80315e-07
1.43591e-05
0.000137313
0.000254254
0.000113496
0.000100515
0.000168803
0.000579332
9.26896e-10
9.25237e-10
9.62377e-10
1.04017e-09
1.08083e-09
2.4727e-09
1.08199e-05
4.62554e-06
8.03739e-09
8.03732e-09
4.27351e-08
1.15404e-06
2.21101e-06
9.41284e-07
1.00834e-08
1.12679e-08
6.78857e-05
0.000143499
0.000143176
7.23393e-05
8.22792e-05
0.000307923
0.000480956
1.12675e-09
2.14387e-08
5.18118e-08
1.07835e-08
1.17962e-09
7.48968e-10
2.58062e-08
8.59439e-10
1.27899e-08
8.07676e-09
7.51597e-07
3.81762e-06
3.81801e-06
1.94351e-06
9.7068e-09
2.08685e-08
1.82229e-05
6.03563e-05
7.23799e-05
7.21012e-05
0.000126873
0.000148214
0.000102318
1.72372e-09
1.14709e-07
1.5082e-07
5.31347e-08
5.55074e-10
5.55074e-10
5.55074e-10
5.55097e-10
1.5902e-09
1.1208e-07
1.13887e-06
3.81799e-06
3.55067e-06
6.1003e-08
9.54468e-09
8.30675e-08
8.36019e-08
6.14776e-08
1.23217e-06
1.13633e-05
1.51122e-05
2.06673e-08
2.17974e-08
2.1209e-09
1.14011e-07
1.5082e-07
5.08234e-08
5.55074e-10
5.55074e-10
5.55097e-10
3.58856e-08
1.14869e-06
2.168e-06
2.11896e-06
3.17438e-07
4.02785e-08
5.61452e-09
9.50195e-09
1.09732e-08
3.63529e-09
5.29161e-08
4.47042e-07
1.23805e-06
4.66028e-07
2.01338e-08
1.98678e-08
1.30699e-09
3.7208e-09
3.51867e-08
9.70792e-09
5.55074e-10
5.55238e-10
5.62245e-10
1.03495e-06
2.16796e-06
2.16805e-06
1.07667e-06
1.75153e-09
1.80372e-09
1.80179e-09
1.191e-09
8.93221e-11
1.30203e-10
8.4821e-07
5.74052e-06
6.56144e-06
5.76794e-06
1.56487e-06
1.98671e-08
1.30699e-09
1.92537e-09
6.03749e-11
5.94031e-11
1.21995e-09
1.41958e-09
2.00344e-09
8.0607e-07
1.65903e-06
7.38362e-07
1.78634e-08
1.75088e-09
2.9017e-09
1.88342e-09
7.15253e-11
6.78623e-11
8.98589e-11
1.5283e-06
6.56144e-06
6.56144e-06
6.56144e-06
4.23217e-06
1.98671e-08
6.45922e-08
1.30479e-07
3.15717e-09
5.80935e-11
1.10152e-09
5.89765e-09
4.69549e-08
1.03277e-07
1.61464e-08
1.19435e-09
4.38754e-10
1.75239e-09
2.29538e-09
5.73204e-10
7.1755e-11
6.58006e-11
3.11743e-10
1.26875e-07
1.51157e-06
4.88532e-06
4.49059e-06
2.55741e-07
1.98671e-08
1.51777e-07
2.10487e-07
1.71197e-08
5.62547e-11
1.92607e-09
5.76261e-09
6.73822e-09
3.52894e-10
1.22028e-10
5.1001e-11
1.70612e-10
4.36593e-10
2.97135e-10
7.90286e-11
6.62475e-11
6.57872e-11
7.19963e-11
9.95228e-11
7.67334e-09
9.24076e-08
9.40296e-08
1.15358e-08
4.93005e-08
2.00465e-07
2.10487e-07
1.66448e-08
5.55406e-11
1.1343e-09
1.48443e-09
5.46106e-10
1.12128e-10
5.89835e-11
1.49691e-11
1.21919e-11
1.59199e-11
3.99385e-12
1.26344e-11
3.36716e-11
5.24796e-11
6.91993e-11
6.96581e-11
7.42711e-11
7.92965e-11
5.18507e-11
3.02204e-09
2.37803e-08
2.20647e-07
2.03803e-07
3.2579e-11
5.5523e-11
4.05598e-10
2.5076e-10
6.87206e-11
3.48642e-11
1.40635e-11
1.72595e-12
9.05686e-14
1.55179e-14
2.81296e-15
4.71689e-13
6.78604e-12
2.99849e-11
6.44284e-11
8.33431e-11
8.55487e-11
7.90129e-11
4.88707e-11
4.32571e-11
2.03363e-10
2.7666e-07
2.07581e-07
3.25981e-11
3.47469e-11
9.76206e-11
5.3978e-11
9.25896e-12
2.76766e-12
3.72476e-13
-2.87508e-13
-1.14835e-12
-1.28457e-12
-1.10408e-12
-5.86528e-13
1.53182e-13
3.95031e-12
1.96125e-11
3.7154e-11
4.42315e-11
4.26968e-11
3.72873e-11
2.16322e-11
7.7194e-12
2.76669e-07
2.43066e-07
1.56573e-09
3.15507e-11
3.15402e-11
1.62198e-11
7.83823e-13
-2.01948e-31
-8.97343e-13
-1.48165e-12
-1.88063e-12
-1.93173e-12
-1.74342e-12
-1.38957e-12
-9.0548e-13
-1.98911e-13
4.32603e-13
1.9157e-12
4.10134e-12
5.90652e-12
6.98573e-12
6.15193e-12
3.40435e-12
2.76669e-07
2.75575e-07
7.30735e-09
3.15589e-11
3.29473e-11
1.39836e-11
1.05674e-14
-5.89129e-13
-1.23629e-12
-1.65755e-12
-1.85486e-12
-1.85148e-12
-1.70178e-12
-1.46406e-12
-1.18012e-12
-8.74334e-13
-5.74327e-13
-2.65659e-13
5.55807e-15
4.08047e-14
8.0364e-14
2.02611e-13
3.30336e-13
2.76669e-07
2.739e-07
3.34581e-11
3.34331e-11
6.69966e-11
1.47991e-11
3.0823e-13
-3.86067e-13
-8.42214e-13
-1.15309e-12
-1.29498e-12
-1.31675e-12
-1.24378e-12
-1.10469e-12
-9.30321e-13
-7.48516e-13
-5.77352e-13
-4.26236e-13
-2.98015e-13
-2.02766e-13
-1.30135e-13
-6.68506e-14
-1.51782e-14
1.59873e-07
1.58404e-07
3.36111e-11
9.30266e-11
1.4834e-10
2.28032e-11
2.23364e-12
6.6085e-13
-5.16472e-14
-3.72381e-13
-5.66656e-13
-6.68649e-13
-6.90366e-13
-6.53102e-13
-5.76781e-13
-4.82366e-13
-3.86213e-13
-2.98377e-13
-2.24458e-13
-1.65403e-13
-1.18788e-13
-8.10759e-14
-5.04642e-14
1.3731e-09
4.6098e-09
1.4356e-10
2.5389e-10
2.06036e-10
3.73898e-11
8.5276e-12
5.56842e-12
3.20044e-12
1.22591e-12
1.99632e-13
-1.32353e-13
-2.52816e-13
-2.96419e-13
-2.91251e-13
-2.59617e-13
-2.16336e-13
-1.70846e-13
-1.30207e-13
-9.71851e-14
-7.15896e-14
-5.16286e-14
-3.52914e-14
6.84231e-11
7.03602e-11
2.36799e-10
2.93858e-10
2.20357e-10
4.88985e-11
2.04933e-11
1.61788e-11
1.13116e-11
6.16256e-12
2.52647e-12
6.58441e-13
2.82952e-14
-8.51392e-14
-1.17924e-13
-1.18575e-13
-1.05578e-13
-8.57128e-14
-6.56758e-14
-4.86731e-14
-3.55452e-14
-2.579e-14
-1.82385e-14
6.84231e-11
7.04238e-11
2.32557e-10
2.92412e-10
1.89228e-10
5.47514e-11
3.52061e-11
3.00567e-11
2.2914e-11
1.44497e-11
6.93924e-12
2.38268e-12
4.92573e-13
1.77018e-14
-3.70916e-14
-4.67175e-14
-4.6181e-14
-3.88295e-14
-2.98286e-14
-2.17168e-14
-1.5392e-14
-1.08735e-14
-7.70932e-15
7.24169e-11
6.10148e-11
1.52864e-10
1.97598e-10
1.18217e-10
5.58028e-11
4.80392e-11
4.3529e-11
3.43582e-11
2.39627e-11
1.27571e-11
4.69934e-12
1.00722e-12
8.64577e-14
-9.40601e-15
-1.6778e-14
-1.87469e-14
-1.63134e-14
-1.25199e-14
-8.91337e-15
-6.06847e-15
-4.0631e-15
-2.77543e-15
1.07562e-10
5.1969e-11
5.28681e-11
5.79688e-11
5.76331e-11
5.43039e-11
5.38293e-11
5.33719e-11
4.38882e-11
3.20529e-11
1.79193e-11
6.4939e-12
1.22333e-12
8.6752e-14
-2.20638e-15
-5.91183e-15
-7.24135e-15
-6.4698e-15
-4.96463e-15
-3.45437e-15
-2.2497e-15
-1.40869e-15
-8.89304e-16
3.67415e-10
5.16649e-11
5.16061e-11
5.15268e-11
5.14745e-11
5.2644e-11
5.39848e-11
5.58382e-11
5.02151e-11
3.69703e-11
2.08606e-11
7.08992e-12
1.13568e-12
5.38069e-14
-5.7504e-16
-2.16141e-15
-2.73978e-15
-2.46647e-15
-1.86471e-15
-1.25878e-15
-7.84407e-16
-4.61087e-16
-2.66948e-16
1.41439e-09
1.81529e-08
1.62089e-07
9.68605e-08
5.1407e-11
5.14025e-11
5.25276e-11
5.58382e-11
5.15837e-11
3.83174e-11
2.12732e-11
6.70254e-12
7.99843e-13
2.03833e-14
-1.44645e-16
-7.87877e-16
-1.00864e-15
-8.97711e-16
-6.62716e-16
-4.33734e-16
-2.60054e-16
-1.46892e-16
-7.9724e-17
2.67516e-09
1.94757e-07
8.3442e-07
8.07352e-07
1.11084e-07
5.14002e-11
5.13973e-11
5.56593e-11
5.0559e-11
3.74382e-11
1.96883e-11
5.15098e-12
3.99173e-13
4.89731e-15
-2.50905e-17
-2.98847e-16
-3.68977e-16
-3.16077e-16
-2.24998e-16
-1.41572e-16
-8.1546e-17
-4.39815e-17
-2.23632e-17
2.76703e-09
2.70058e-07
8.36442e-07
8.36442e-07
2.98999e-07
5.13973e-11
5.13953e-11
5.39709e-11
4.7466e-11
3.3577e-11
1.5557e-11
3.06218e-12
1.40764e-13
7.45282e-16
-3.10391e-18
-1.19324e-16
-1.32903e-16
-1.07364e-16
-7.28122e-17
-4.37729e-17
-2.40995e-17
-1.23452e-17
-5.95625e-18
2.76741e-09
1.71106e-07
8.36442e-07
8.36416e-07
2.35643e-07
1.18583e-10
5.06518e-11
5.06535e-11
4.20928e-11
2.704e-11
1.02015e-11
1.34149e-12
3.24302e-14
7.23826e-17
-1.74773e-17
-4.70946e-17
-4.65686e-17
-3.50118e-17
-2.23424e-17
-1.27296e-17
-6.61879e-18
-3.18307e-18
-1.43482e-18
2.81505e-09
2.72867e-08
5.1558e-07
3.69568e-07
4.53032e-08
1.40428e-10
5.36685e-11
4.60856e-11
3.45178e-11
1.89537e-11
5.19069e-12
3.90363e-13
4.27289e-15
3.75822e-18
-1.16091e-17
-1.78681e-17
-1.5671e-17
-1.08275e-17
-6.41816e-18
-3.41433e-18
-1.65004e-18
-7.35093e-19
-3.05683e-19
3.27595e-09
2.44605e-09
6.16845e-09
3.19073e-10
1.02021e-10
1.01983e-10
5.60217e-11
3.91314e-11
2.49918e-11
1.05952e-11
1.77997e-12
6.20104e-14
2.4884e-16
6.00897e-20
-5.49093e-18
-6.44378e-18
-4.97286e-18
-3.11443e-18
-1.6926e-18
-8.27785e-19
-3.66677e-19
-1.49187e-19
-5.63982e-20
3.34617e-09
2.42648e-09
7.54294e-10
2.8544e-10
1.37885e-10
8.12877e-11
4.75719e-11
2.82936e-11
1.43627e-11
4.01808e-12
3.33042e-13
4.29427e-15
5.05884e-18
-5.93423e-19
-2.40247e-18
-2.20227e-18
-1.46885e-18
-8.19846e-19
-4.02373e-19
-1.78e-19
-7.11737e-20
-2.60265e-20
-8.79383e-21
2.87909e-09
2.46939e-09
1.26058e-09
5.71791e-10
2.33801e-10
8.22653e-11
3.41507e-11
1.5695e-11
5.4655e-12
8.103e-13
2.61128e-14
1.04721e-16
2.98432e-20
-6.63822e-19
-9.72486e-19
-7.16126e-19
-4.03342e-19
-1.95568e-19
-8.48005e-20
-3.33185e-20
-1.18095e-20
-3.80776e-21
-1.12649e-21
1.14656e-09
1.4626e-09
1.07457e-09
5.80602e-10
2.35711e-10
7.2483e-11
2.0038e-11
5.72425e-12
1.06644e-12
6.47126e-14
6.67356e-16
7.55392e-19
-3.74812e-20
-3.69683e-19
-3.71683e-19
-2.24188e-19
-1.03979e-19
-4.22666e-20
-1.56843e-20
-5.33928e-21
-1.63856e-21
-4.54529e-22
-1.14646e-22
1.01547e-10
2.60708e-10
3.92293e-10
3.04475e-10
1.45034e-10
4.05958e-11
7.41586e-12
1.06561e-12
8.05055e-14
1.60697e-15
5.18735e-18
1.58267e-21
-9.93365e-20
-1.74695e-19
-1.36208e-19
-6.83788e-20
-2.55676e-20
-8.36521e-21
-2.54139e-21
-7.23385e-22
-1.85899e-22
-4.285e-23
-8.87662e-24
8.18644e-13
7.30717e-12
3.42614e-11
4.63557e-11
3.02376e-11
9.09215e-12
1.19206e-12
7.68044e-14
1.96037e-15
1.26959e-17
1.46718e-20
-1.39914e-20
-6.45468e-20
-7.50567e-20
-4.83215e-20
-2.05863e-20
-6.31196e-21
-1.60315e-21
-3.72001e-22
-8.31371e-23
-1.6897e-23
-3.05629e-24
-4.8982e-25
2.17331e-16
2.0708e-14
4.49792e-13
1.31732e-12
1.26822e-12
4.93107e-13
5.56106e-14
1.77982e-15
1.72121e-17
5.19613e-20
1.62554e-23
-1.65484e-20
-3.32967e-20
-3.03254e-20
-1.6724e-20
-6.16735e-21
-1.59186e-21
-3.11094e-22
-5.17278e-23
-8.22267e-24
-1.19513e-24
-1.52648e-25
-1.69774e-26
-1.74839e-26
8.45373e-18
8.52199e-16
5.62435e-15
8.09583e-15
4.39048e-15
5.55147e-16
1.35836e-17
8.97671e-20
1.0615e-22
-2.54985e-21
-1.09285e-20
-1.5328e-20
-1.17307e-20
-5.68974e-21
-1.85222e-21
-4.11804e-22
-6.30637e-23
-7.23713e-24
-7.15126e-25
-6.16082e-26
-4.43386e-27
-2.69504e-28
-6.9403e-26
1.05251e-21
3.6937e-19
9.11237e-18
2.58885e-17
7.86938e-18
1.108e-18
3.51091e-20
2.29101e-22
-2.21155e-22
-2.51767e-21
-5.85419e-21
-6.56387e-21
-4.39708e-21
-1.92095e-21
-5.65695e-22
-1.1209e-22
-1.4426e-23
-1.17145e-24
-5.88992e-26
-1.80703e-27
-3.58046e-29
-5.33167e-31
1
1
1
1
1
1
1
1
0.449315
0.450796
0.45261
0.453152
0.00219591
0.00274028
0.00284033
0.00286917
0.000957459
0.00168865
0.00166006
0.00150105
0.00143293
0.0016968
0.00148809
0.000620472
0.000622589
0.000476799
0.000325184
0.00066735
0.000330712
0.000181435
9.65294e-05
0.000136027
4.55676e-05
1.56146e-05
4.31473e-06
3.59497e-07
1.07329e-07
1.80126e-07
3.60239e-07
3.58675e-07
1.07007e-07
1.5738e-07
8.85645e-08
4.58649e-08
1.99084e-08
3.59211e-08
3.9899e-08
3.1008e-08
1.9867e-08
1.98674e-08
2.49576e-08
3.45226e-08
1.98671e-08
2.26454e-08
2.80265e-08
2.80182e-08
4.92956e-08
1.51305e-08
2.52125e-09
3.10948e-09
2.14892e-08
2.1942e-09
2.24349e-09
8.28054e-09
5.74636e-10
1.54426e-09
2.73165e-09
3.32658e-09
7.65919e-12
9.47628e-11
2.22355e-10
7.14366e-11
2.32842e-12
2.12014e-12
1.95673e-12
1.39482e-12
4.0638e-13
4.12635e-13
4.34874e-13
4.44238e-13
2.89233e-15
5.42337e-15
1.13225e-14
1.87074e-14
-2.79611e-14
-2.1794e-14
-1.69341e-14
-1.29852e-14
-2.19466e-14
-1.77608e-14
-1.46198e-14
-1.22644e-14
-1.18141e-14
-9.44067e-15
-7.61299e-15
-6.30642e-15
-5.16612e-15
-4.06203e-15
-3.14826e-15
-2.45869e-15
-1.91481e-15
-1.4898e-15
-1.13072e-15
-8.27692e-16
-6.2477e-16
-4.73709e-16
-3.55547e-16
-2.54292e-16
-1.90131e-16
-1.38206e-16
-9.95014e-17
-6.96351e-17
-5.56949e-17
-3.87218e-17
-2.64996e-17
-1.78732e-17
-1.52786e-17
-1.01948e-17
-6.67143e-18
-4.29383e-18
-3.90307e-18
-2.49168e-18
-1.55518e-18
-9.50819e-19
-8.93859e-19
-5.42365e-19
-3.21176e-19
-1.8588e-19
-1.79397e-19
-1.02431e-19
-5.69841e-20
-3.09263e-20
-3.08083e-20
-1.63423e-20
-8.429e-21
-4.23262e-21
-4.40438e-21
-2.13626e-21
-1.0048e-21
-4.58966e-22
-5.07367e-22
-2.20502e-22
-9.2614e-23
-3.76565e-23
-4.52409e-23
-1.71482e-23
-6.25528e-24
-2.20044e-24
-2.95648e-24
-9.40773e-25
-2.86699e-25
-8.38953e-26
-1.29789e-25
-3.26881e-26
-7.84914e-27
-1.80292e-27
-3.21971e-27
-5.79545e-28
-9.93595e-29
-1.62862e-29
-2.90486e-29
-3.00701e-30
-3.00082e-31
-2.89554e-32
-1.43354e-32
-3.8974e-34
-1.1045e-35
-3.28651e-37
1
1
1
1
0.997296
0.990844
0.989063
0.991453
0.995125
0.997859
0.99848
0.998492
0.998523
0.998543
0.998543
0.995882
0.978967
0.965857
0.973919
0.997272
0.992571
0.987819
0.983765
0.98093
0.976278
0.966804
0.956385
0.950637
0.957194
0.969551
0.973329
0.966876
0.950284
0.940532
0.944243
0.951267
0.955015
0.955953
0.455463
0.450523
0.445253
0.440263
0.434677
0.430527
0.428734
0.424
0.414469
0.398145
0.381618
0.369356
0.359531
0.351574
0.34294
0.337193
0.338321
0.335421
0.328555
0.00203044
0.00181228
0.00167645
0.00153722
0.00213233
0.00242393
0.00185418
0.00135055
0.00094133
0.000848149
0.000848026
0.000847803
0.000847554
0.000847254
0.000846993
0.000846366
0.000845784
0.000845783
0.000845784
0.000546322
0.000541146
0.000535666
0.000528277
0.000951284
0.00211241
0.00134107
0.00120376
0.00121344
0.00108434
0.00104328
0.00106742
0.0011697
0.00123213
0.00136554
0.00135746
0.0012407
0.000845784
0.000845782
0.000549153
0.000986975
0.000988202
0.000528277
0.00104925
0.00178822
0.00182083
0.00179807
0.00175984
0.0017598
0.00175913
0.00175696
0.00144691
0.00134604
0.00136568
0.00127721
0.00114878
0.00106471
0.00085453
0.000993021
0.000992796
0.000991695
0.000990853
0.000875406
0.00044972
0.000271952
0.0002949
0.000248787
0.000209549
0.000201905
0.00018719
0.000296885
0.000327248
0.000266523
0.000203677
0.000125483
0.000352938
0.000441022
0.000340515
0.000206394
0.000149346
0.000299541
0.000101279
1.91948e-06
1.70266e-07
2.22305e-07
2.29546e-07
2.36778e-07
2.79591e-07
3.75372e-07
4.53208e-07
4.74538e-07
4.74854e-07
1.64412e-06
8.33627e-07
7.60914e-07
7.6117e-07
1.55975e-08
1.52424e-08
1.52623e-08
1.53855e-08
1.55234e-08
2.37181e-08
1.34058e-07
1.34422e-07
8.24408e-06
3.87347e-05
4.74886e-05
4.40444e-05
1.91252e-05
2.18488e-06
6.01117e-07
6.0592e-07
7.24719e-07
7.60804e-07
7.60914e-07
1.40488e-08
1.46839e-08
1.49836e-08
1.52625e-08
1.53855e-08
1.55235e-08
1.80828e-08
5.67736e-06
6.54998e-05
6.63251e-05
6.63251e-05
6.26253e-05
8.7443e-06
2.77615e-06
1.011e-06
7.71426e-07
8.23671e-07
8.15879e-07
7.64406e-07
1.40488e-08
1.40488e-08
5.22232e-07
3.74086e-06
3.49104e-06
5.91671e-07
7.60068e-07
4.14529e-05
6.62055e-05
5.91481e-05
1.55612e-05
1.55736e-05
3.26639e-05
3.66822e-05
2.53578e-05
1.81415e-05
6.49847e-06
9.08502e-07
7.76833e-07
1.40488e-08
1.42041e-08
6.85543e-06
2.16665e-05
2.08482e-05
5.11603e-06
5.64033e-06
5.67852e-05
5.52374e-05
1.11124e-06
1.1474e-05
4.10694e-05
4.32678e-05
4.32696e-05
4.32389e-05
4.3189e-05
3.93208e-05
2.04102e-06
1.3515e-06
3.48593e-08
5.35238e-07
1.66434e-05
2.16665e-05
2.16666e-05
2.16663e-05
1.65822e-05
6.45228e-06
1.56418e-09
1.62029e-07
2.77289e-05
4.14436e-05
4.14911e-05
1.75972e-05
5.12905e-06
8.17374e-06
7.40603e-06
1.47777e-05
1.69439e-05
2.80272e-08
7.07408e-08
5.64511e-06
2.10417e-05
2.16663e-05
5.43319e-06
6.16146e-07
3.84038e-10
1.49416e-09
1.26894e-07
4.47423e-06
9.61701e-06
7.29103e-07
1.64956e-10
1.65024e-10
1.77899e-10
2.09089e-06
1.69438e-05
1.69439e-05
2.84841e-08
1.14866e-07
2.72834e-07
1.24655e-06
1.62174e-06
2.19024e-07
1.69086e-10
3.8253e-10
4.32416e-08
1.83839e-07
1.65486e-10
1.65167e-10
1.64956e-10
1.64892e-10
1.64956e-10
1.85481e-10
6.49532e-06
1.69437e-05
1.69438e-05
5.00285e-08
8.96126e-08
5.86892e-08
3.47788e-08
1.8717e-08
1.4288e-09
1.69086e-10
5.4221e-10
7.61938e-09
1.51441e-08
4.89931e-09
4.09783e-10
3.52399e-10
1.64892e-10
1.64552e-10
1.50871e-10
8.19292e-07
4.68319e-06
1.05202e-05
5.12438e-09
7.19392e-09
1.73162e-07
3.0006e-07
2.14434e-07
4.87213e-10
1.69086e-10
1.76389e-10
4.00031e-10
8.28668e-10
1.84619e-09
1.84115e-09
8.85402e-10
1.66364e-10
1.80239e-10
1.50657e-10
4.81535e-12
4.81535e-12
4.81535e-12
1.06203e-12
2.02376e-10
1.4246e-07
3.00056e-07
3.00061e-07
2.95949e-07
1.05941e-07
1.76464e-10
2.06659e-10
1.37978e-09
4.30669e-09
5.97311e-10
3.3546e-10
1.99625e-10
2.28359e-10
1.98297e-10
2.71113e-11
4.81535e-12
4.81534e-12
1.05494e-12
7.25825e-13
3.84661e-09
7.5271e-08
2.56639e-07
2.96547e-07
2.36693e-07
6.52794e-09
5.44073e-09
5.01999e-08
7.49124e-08
3.5599e-08
6.10417e-09
1.63666e-10
2.25562e-10
2.0905e-10
5.0351e-11
5.13342e-12
4.81552e-12
4.34174e-13
1.88054e-13
4.21098e-15
3.19039e-10
1.15032e-08
3.05609e-08
2.55036e-08
1.26463e-08
5.84809e-08
8.27894e-08
8.27894e-08
8.27894e-08
1.62905e-08
1.63481e-10
1.63475e-10
1.05765e-10
2.32984e-11
5.12542e-12
4.84166e-12
2.32369e-14
1.62808e-14
3.49854e-15
6.16043e-14
1.00976e-13
5.30218e-15
5.30209e-15
5.55521e-15
2.55603e-09
2.51799e-08
4.33277e-08
2.53426e-08
2.83961e-09
2.1973e-10
6.87477e-11
2.80321e-11
2.39013e-11
6.32513e-12
1.19727e-11
-9.87841e-15
-4.30639e-15
-2.04364e-15
-3.15544e-33
1.28561e-18
5.31825e-15
8.06815e-14
1.88713e-13
1.8876e-13
1.88914e-13
1.8932e-13
1.89738e-13
1.906e-13
9.81379e-12
1.32604e-11
7.39744e-12
1.4917e-10
2.63951e-08
1.01971e-07
-1.03976e-14
-6.4724e-15
-3.89861e-15
-2.20309e-15
-1.0442e-15
-1.71679e-16
8.37553e-16
3.45667e-14
3.55191e-13
8.81082e-13
5.69354e-13
1.35344e-12
3.23761e-12
2.84679e-12
1.91362e-12
2.62684e-12
1.39577e-10
6.66131e-07
8.60709e-06
-5.3808e-15
-3.54901e-15
-2.29321e-15
-1.44416e-15
-8.78477e-16
-4.97112e-16
-2.25016e-16
1.52673e-17
5.42289e-15
7.38279e-14
2.66095e-13
7.57528e-13
1.45679e-12
8.4733e-13
6.03104e-13
1.77031e-12
1.37123e-12
1.47893e-06
1.34898e-05
-2.01033e-15
-1.30767e-15
-8.4027e-16
-5.32395e-16
-3.29098e-16
-2.04004e-16
-1.22744e-16
-6.40284e-17
-1.94836e-18
5.79389e-16
4.09508e-15
1.49929e-14
4.14044e-14
7.46476e-14
1.84607e-13
1.36994e-12
1.37021e-12
1.18025e-06
1.34898e-05
-6.09505e-16
-3.80321e-16
-2.33195e-16
-1.42183e-16
-8.73561e-17
-5.40035e-17
-3.28772e-17
-1.8529e-17
-6.69884e-18
1.59266e-17
1.44783e-16
7.21703e-16
3.35394e-15
1.5472e-14
1.03868e-13
1.48287e-12
1.37069e-12
1.91502e-07
1.34898e-05
-1.56536e-16
-9.19499e-17
-5.52557e-17
-3.33326e-17
-2.00036e-17
-1.18542e-17
-6.85133e-18
-3.5261e-18
-7.77599e-19
5.94007e-18
4.52718e-17
2.77466e-16
1.75295e-15
1.02301e-14
8.39824e-14
2.18787e-12
2.01018e-12
1.55589e-12
1.34868e-05
-3.71565e-17
-2.00333e-17
-1.11402e-17
-6.28035e-18
-3.53712e-18
-1.88899e-18
-9.6157e-19
-1.67653e-19
3.97188e-19
5.36686e-18
3.50815e-17
2.107e-16
1.37671e-15
8.2895e-15
7.69655e-14
2.64019e-12
6.47609e-12
1.55525e-12
1.13444e-05
-8.23776e-18
-3.92932e-18
-1.93424e-18
-9.63804e-19
-4.58019e-19
2.40741e-38
1.6642e-19
8.84183e-19
3.71642e-18
1.02992e-17
3.72561e-17
1.9661e-16
1.26131e-15
7.58639e-15
8.76415e-14
2.98693e-12
9.13441e-12
1.55721e-12
3.65058e-06
-1.77633e-18
-7.46927e-19
-3.16296e-19
-1.18506e-19
1.65871e-20
6.36725e-19
4.3519e-18
1.74849e-17
5.35449e-17
1.32722e-16
2.81837e-16
6.13365e-16
1.97374e-15
8.9782e-15
1.19962e-13
2.77974e-12
9.13201e-12
1.5619e-12
3.6679e-06
-3.60197e-19
-1.35464e-19
-4.84132e-20
3.22106e-21
6.35025e-19
5.49143e-18
3.06109e-17
1.31834e-16
4.52072e-16
1.22843e-15
2.76214e-15
5.79081e-15
1.41091e-14
4.11126e-14
2.08483e-13
2.69258e-12
8.08936e-12
4.51133e-12
5.13486e-06
-6.46705e-20
-2.20256e-20
-5.16824e-21
9.50492e-20
1.93398e-18
2.13132e-17
1.47094e-16
7.25688e-16
2.77005e-15
8.23583e-15
2.00551e-14
4.69195e-14
1.1697e-13
2.74943e-13
6.25449e-13
2.93615e-12
7.34214e-12
3.21624e-12
3.37041e-06
-9.79066e-21
-2.99323e-21
7.51482e-22
1.58229e-19
4.42537e-18
6.52742e-17
5.64825e-16
3.18135e-15
1.3694e-14
4.74852e-14
1.3582e-13
3.57201e-13
8.34504e-13
1.58506e-12
2.41034e-12
4.45532e-12
7.77454e-12
3.21619e-12
3.21624e-12
-1.19987e-21
-3.16226e-22
2.10535e-21
2.07277e-19
8.02876e-18
1.57909e-16
1.7635e-15
1.16815e-14
5.93379e-14
2.58131e-13
9.70585e-13
2.64341e-12
4.65226e-12
6.50985e-12
7.67166e-12
9.30608e-12
8.84119e-12
3.21624e-12
5.53568e-07
-1.14175e-22
-2.19385e-23
1.80821e-21
2.23718e-19
1.14228e-17
2.93828e-16
4.47479e-15
3.89019e-14
2.50624e-13
1.34672e-12
6.12919e-12
1.54337e-11
1.95092e-11
2.11681e-11
2.07972e-11
2.74946e-11
2.30391e-11
3.24017e-12
3.60124e-06
-8.02009e-24
-1.31429e-25
8.82216e-22
1.98924e-19
1.28993e-17
4.08981e-16
8.75155e-15
1.15869e-13
9.51422e-13
5.56795e-12
2.42056e-11
5.29208e-11
5.85943e-11
5.8823e-11
5.92541e-11
1.47869e-10
1.66511e-10
3.2552e-12
3.6013e-06
-3.88898e-25
9.66431e-25
3.91317e-22
9.98486e-20
1.21586e-17
4.49423e-16
1.25198e-14
2.60339e-13
2.47513e-12
1.42859e-11
5.28101e-11
1.0055e-10
1.16538e-10
1.17491e-10
1.60008e-10
5.67269e-10
7.10655e-10
3.33516e-12
3.59906e-06
-1.17915e-26
3.06179e-25
1.43497e-22
4.03157e-20
6.23197e-18
3.61079e-16
1.37761e-14
3.92379e-13
3.9497e-12
2.19172e-11
6.99748e-11
1.24654e-10
1.46982e-10
1.45829e-10
3.29627e-10
1.34468e-09
1.45386e-09
3.76055e-12
3.16553e-06
-1.8765e-28
6.60889e-26
3.03053e-23
1.29255e-20
2.30973e-18
1.33997e-16
9.81008e-15
4.29862e-13
4.39483e-12
2.37109e-11
6.99615e-11
1.186e-10
1.44583e-10
9.33819e-11
6.41441e-10
5.47072e-09
3.54061e-09
4.81783e-12
2.80242e-06
-9.63135e-31
7.23269e-27
3.23034e-24
2.17986e-21
5.636e-19
3.4673e-17
2.4842e-15
2.56758e-13
2.72938e-12
1.34967e-11
3.23356e-11
5.10038e-11
8.28677e-11
2.89317e-15
2.04404e-09
1.71954e-08
1.34887e-08
6.70298e-12
2.79808e-06
-1.20286e-33
4.26954e-31
6.03627e-26
1.63059e-22
5.13466e-20
4.06722e-18
3.01377e-16
3.98477e-14
4.31145e-13
2.02342e-12
4.6983e-12
7.8518e-12
1.15117e-11
4.71129e-18
4.36253e-09
1.73452e-08
1.73408e-08
1.89921e-12
2.79633e-06
-4.32699e-39
-3.97788e-41
4.72228e-33
1.69978e-27
7.67359e-24
4.43975e-21
1.80427e-18
2.96634e-16
2.90367e-15
1.57938e-14
4.50922e-14
8.3211e-14
5.48567e-14
0
1.09e-09
6.71452e-09
4.77099e-09
-3.24321e-28
1.95433e-06
)
;

boundaryField
{
    leftWall
    {
        type            zeroGradient;
    }
    rightWall
    {
        type            zeroGradient;
    }
    lowerWall
    {
        type            zeroGradient;
    }
    atmosphere
    {
        type            inletOutlet;
        inletValue      uniform 0;
        value           nonuniform List<scalar> 
46
(
0
1.05251e-21
3.6937e-19
9.11237e-18
2.58885e-17
7.86938e-18
1.108e-18
3.51091e-20
2.29101e-22
-2.21155e-22
-2.51767e-21
-5.85419e-21
-6.56387e-21
-4.39708e-21
-1.92095e-21
-5.65695e-22
-1.1209e-22
-1.4426e-23
-1.17145e-24
-5.88992e-26
0
0
0
0
0
0
0
0
0
0
0
0
0
0
0
0
0
0
0
0
0
0
0
0
0
1.95433e-06
)
;
    }
    defaultFaces
    {
        type            empty;
    }
}


// ************************************************************************* //
