/*--------------------------------*- C++ -*----------------------------------*\
  =========                 |
  \\      /  F ield         | OpenFOAM: The Open Source CFD Toolbox
   \\    /   O peration     | Website:  https://openfoam.org
    \\  /    A nd           | Version:  9
     \\/     M anipulation  |
\*---------------------------------------------------------------------------*/
FoamFile
{
    format      ascii;
    class       volVectorField;
    location    "7.98";
    object      U;
}
// * * * * * * * * * * * * * * * * * * * * * * * * * * * * * * * * * * * * * //

dimensions      [0 1 -1 0 0 0 0];

internalField   nonuniform List<vector> 
2268
(
(0.000932089 -0.000435896 0)
(0.0026051 -0.000388318 0)
(0.00400252 -0.000340547 0)
(0.00534939 -0.000326006 0)
(0.00663784 -0.000319454 0)
(0.00787976 -0.000315832 0)
(0.00907663 -0.000310639 0)
(0.0102233 -0.000301693 0)
(0.0112882 -0.000279795 0)
(0.0122317 -0.000252648 0)
(0.0130727 -0.000248362 0)
(0.013916 -0.000290329 0)
(0.0149494 -0.000399733 0)
(0.0163417 -0.000542901 0)
(0.0180563 -0.000618809 0)
(0.0196308 -0.000410198 0)
(0.0197852 0.00036508 0)
(0.0167264 0.00132619 0)
(0.0108218 0.00249188 0)
(0.00129697 0.00304996 0)
(-0.00661575 0.00119368 0)
(-0.00774929 -0.00100627 0)
(-0.00365341 -0.00166914 0)
(0.000848508 -0.00124132 0)
(0.00245864 -0.00112206 0)
(0.00388558 -0.00102016 0)
(0.00527345 -0.000961635 0)
(0.00658579 -0.000922773 0)
(0.00782933 -0.000886564 0)
(0.00899964 -0.000846438 0)
(0.0100927 -0.000795665 0)
(0.0110865 -0.000719462 0)
(0.0119463 -0.00063309 0)
(0.012681 -0.00058998 0)
(0.0133653 -0.000645143 0)
(0.0141207 -0.000822885 0)
(0.0150409 -0.00104637 0)
(0.0160685 -0.0010922 0)
(0.0168619 -0.000522438 0)
(0.01656 0.00113483 0)
(0.013895 0.00317294 0)
(0.00942337 0.00504726 0)
(0.00374518 0.00586219 0)
(-0.00143921 0.00320375 0)
(-0.0046707 -0.000515742 0)
(-0.00384005 -0.0039281 0)
(0.000808706 -0.00197401 0)
(0.00240404 -0.00181571 0)
(0.00384637 -0.00167968 0)
(0.00525286 -0.00158405 0)
(0.00657339 -0.00150918 0)
(0.00780975 -0.00143571 0)
(0.0089545 -0.00135609 0)
(0.0100068 -0.001261 0)
(0.0109487 -0.00112874 0)
(0.0117413 -0.000978046 0)
(0.0123791 -0.000885068 0)
(0.0129119 -0.000927378 0)
(0.0134241 -0.0011312 0)
(0.0139782 -0.0013871 0)
(0.0145379 -0.00139012 0)
(0.0149045 -0.000544178 0)
(0.0144127 0.00181906 0)
(0.0120266 0.00469679 0)
(0.0085136 0.00684508 0)
(0.00518295 0.00768537 0)
(0.00164093 0.00501754 0)
(-0.00226023 0.00050463 0)
(-0.00271 -0.00564613 0)
(0.000794036 -0.00272634 0)
(0.00238597 -0.00253624 0)
(0.00384548 -0.00236304 0)
(0.00526677 -0.00222704 0)
(0.00659548 -0.00211016 0)
(0.00782833 -0.00199164 0)
(0.00895517 -0.00186522 0)
(0.00997923 -0.00171983 0)
(0.0108841 -0.0015235 0)
(0.0116206 -0.00129462 0)
(0.0121658 -0.00112989 0)
(0.0125493 -0.00112616 0)
(0.0128314 -0.00131367 0)
(0.0130614 -0.00156247 0)
(0.0132369 -0.0015206 0)
(0.0133115 -0.000483156 0)
(0.0128482 0.00244814 0)
(0.0108936 0.00598331 0)
(0.00812801 0.00818276 0)
(0.0060145 0.00890897 0)
(0.00344428 0.00666697 0)
(-0.000241304 0.00172621 0)
(-0.00113451 -0.00645799 0)
(0.000799367 -0.00347021 0)
(0.00239404 -0.00326404 0)
(0.00387407 -0.00305622 0)
(0.00531186 -0.00287909 0)
(0.00665291 -0.00271702 0)
(0.00788831 -0.0025478 0)
(0.00900452 -0.00236926 0)
(0.0100099 -0.0021697 0)
(0.010889 -0.0019024 0)
(0.0115779 -0.00158076 0)
(0.0120347 -0.0013215 0)
(0.0122717 -0.0012399 0)
(0.0123327 -0.00137318 0)
(0.0122596 -0.00158213 0)
(0.012079 -0.00150067 0)
(0.0118771 -0.000385539 0)
(0.0115329 0.00292554 0)
(0.010104 0.00702648 0)
(0.0079842 0.00917698 0)
(0.00656086 0.00975587 0)
(0.00456932 0.00807176 0)
(0.00159134 0.0028017 0)
(0.000884367 -0.00632904 0)
(0.00082059 -0.00422035 0)
(0.00242818 -0.0039984 0)
(0.00393468 -0.00375579 0)
(0.00539392 -0.00353679 0)
(0.00675375 -0.00332711 0)
(0.0079985 -0.00310209 0)
(0.00911014 -0.00286679 0)
(0.0101035 -0.00261031 0)
(0.0109649 -0.00226568 0)
(0.0116134 -0.00183607 0)
(0.0119881 -0.00145914 0)
(0.0120871 -0.00126899 0)
(0.0119409 -0.00131266 0)
(0.0115834 -0.00144921 0)
(0.011053 -0.00132391 0)
(0.010501 -0.000226995 0)
(0.0102222 0.003189 0)
(0.00943151 0.00779643 0)
(0.00799189 0.00989413 0)
(0.00700992 0.0103528 0)
(0.00552101 0.00918665 0)
(0.00357197 0.00346838 0)
(0.00307955 -0.00531292 0)
(0.000847052 -0.00497091 0)
(0.00249301 -0.00474544 0)
(0.004033 -0.00446642 0)
(0.00552048 -0.00420507 0)
(0.00690662 -0.00394557 0)
(0.00816709 -0.00365901 0)
(0.00927811 -0.00336166 0)
(0.0102619 -0.00304587 0)
(0.0111083 -0.00261794 0)
(0.0117209 -0.00206462 0)
(0.0120221 -0.00154738 0)
(0.0119982 -0.00121992 0)
(0.0116685 -0.00114129 0)
(0.0110552 -0.00117058 0)
(0.010187 -0.000978131 0)
(0.00919858 7.09768e-05 0)
(0.00871573 0.00329365 0)
(0.00858967 0.0081813 0)
(0.00809262 0.0103431 0)
(0.0074738 0.0107748 0)
(0.00677555 0.00981346 0)
(0.00617378 0.0038248 0)
(0.00495121 -0.00341033 0)
(0.000873591 -0.0058169 0)
(0.00258858 -0.00553629 0)
(0.00417087 -0.00521165 0)
(0.00569455 -0.00490469 0)
(0.00711502 -0.00459077 0)
(0.0083964 -0.00423329 0)
(0.00950805 -0.00386489 0)
(0.0104788 -0.00348584 0)
(0.0113045 -0.0029678 0)
(0.0118806 -0.00227249 0)
(0.012118 -0.00159253 0)
(0.011994 -0.0010992 0)
(0.0115167 -0.00086622 0)
(0.0106945 -0.000751269 0)
(0.00953873 -0.000457406 0)
(0.00815486 0.000579283 0)
(0.00722481 0.00343946 0)
(0.00746032 0.0080853 0)
(0.00799374 0.0104087 0)
(0.00800127 0.0109439 0)
(0.00837409 0.00973728 0)
(0.0087464 0.00442057 0)
(0.00600158 0.000320667 0)
(-0.0168992 0.00411181 0)
(-0.0152623 -0.0016258 0)
(-0.00732006 -0.0024964 0)
(-0.00118456 -0.00158729 0)
(0.00258837 -0.00111212 0)
(0.00519177 -0.000667798 0)
(0.0065734 -0.00029221 0)
(0.00784025 -0.000529096 0)
(0.00973164 -0.000564129 0)
(0.0102812 0.000203805 0)
(0.00742174 0.00127287 0)
(0.000710623 0.00277351 0)
(-0.0101652 0.00311191 0)
(-0.0180059 0.000938085 0)
(-0.0190283 -0.000445832 0)
(-0.0156613 -0.00143941 0)
(-0.0114337 -0.00135443 0)
(-0.00743698 -0.00201239 0)
(0.0020701 -0.000182552 0)
(-0.0132463 0.00972177 0)
(-0.00800141 -0.00297816 0)
(-0.00459433 -0.00422004 0)
(-0.00119474 -0.00284273 0)
(0.000665989 -0.00186589 0)
(0.00185735 -0.00115187 0)
(0.00275943 -0.000775065 0)
(0.00378692 -0.000992988 0)
(0.00468938 -0.0006462 0)
(0.00397168 0.0010244 0)
(0.00115375 0.0028093 0)
(-0.00269927 0.00507262 0)
(-0.00758129 0.00553895 0)
(-0.0121409 0.00258323 0)
(-0.0145563 -0.000208168 0)
(-0.0135365 -0.00222546 0)
(-0.0121404 -0.00235194 0)
(-0.0107033 -0.00383178 0)
(-0.00315487 -0.00220217 0)
(-0.00510659 0.0127789 0)
(-0.00265074 -0.00410766 0)
(-0.00231457 -0.00508542 0)
(-0.00121655 -0.00347252 0)
(-0.000667034 -0.00222779 0)
(-0.000315766 -0.00139784 0)
(1.13145e-05 -0.00109505 0)
(0.000530142 -0.00127049 0)
(0.000915524 -0.000536274 0)
(-0.000272714 0.00189285 0)
(-0.00307004 0.00397983 0)
(-0.00539165 0.00612919 0)
(-0.00675466 0.00654983 0)
(-0.0090641 0.00387029 0)
(-0.0116461 0.000400231 0)
(-0.0115346 -0.00237617 0)
(-0.0118521 -0.00240283 0)
(-0.0125819 -0.00513148 0)
(-0.00716478 -0.00607311 0)
(0.00200426 0.0131175 0)
(0.00132305 -0.00387754 0)
(-0.000793424 -0.00492959 0)
(-0.0014891 -0.00347325 0)
(-0.00196482 -0.00222549 0)
(-0.00229086 -0.0013946 0)
(-0.00250101 -0.00117222 0)
(-0.00244902 -0.00136778 0)
(-0.00234565 -0.000333826 0)
(-0.00347873 0.00274346 0)
(-0.00581001 0.00491476 0)
(-0.0071681 0.00657487 0)
(-0.00694647 0.00681661 0)
(-0.00784146 0.0047084 0)
(-0.00973023 0.00099341 0)
(-0.00955124 -0.00228093 0)
(-0.0105533 -0.00179797 0)
(-0.0124211 -0.00596531 0)
(-0.00813193 -0.010733 0)
(0.00617545 0.0112668 0)
(0.00351088 -0.00272345 0)
(-0.000240626 -0.00399941 0)
(-0.00215965 -0.00297758 0)
(-0.00339664 -0.00191261 0)
(-0.0042802 -0.00115761 0)
(-0.00497549 -0.0010507 0)
(-0.00534207 -0.00133315 0)
(-0.00539514 -0.000141427 0)
(-0.00619459 0.00344248 0)
(-0.00783773 0.00554169 0)
(-0.00842063 0.00664163 0)
(-0.00743512 0.0066726 0)
(-0.00761963 0.00518439 0)
(-0.0085122 0.00121829 0)
(-0.00748868 -0.00228566 0)
(-0.00805594 -0.00100046 0)
(-0.00995507 -0.00650703 0)
(-0.00651426 -0.014903 0)
(0.0065833 0.00871023 0)
(0.00356921 -0.00115645 0)
(-0.000694041 -0.00263687 0)
(-0.00326619 -0.00215208 0)
(-0.00501157 -0.00136167 0)
(-0.00632833 -0.000718931 0)
(-0.00744833 -0.000741947 0)
(-0.00820952 -0.00118821 0)
(-0.00837165 -3.59295e-05 0)
(-0.00865278 0.0039037 0)
(-0.00950142 0.00586851 0)
(-0.00944984 0.00643891 0)
(-0.00798633 0.00628805 0)
(-0.00767594 0.0053968 0)
(-0.00757741 0.000959181 0)
(-0.0055206 -0.00273674 0)
(-0.00472526 -0.000555716 0)
(-0.00579222 -0.00673841 0)
(-0.00361878 -0.0177844 0)
(0.00502769 0.00699744 0)
(0.00215837 0.000434115 0)
(-0.00191411 -0.00114799 0)
(-0.00474267 -0.00115429 0)
(-0.00679672 -0.000651562 0)
(-0.00842536 -0.00011669 0)
(-0.00989282 -0.000261864 0)
(-0.0110563 -0.000926095 0)
(-0.0114201 -4.25652e-05 0)
(-0.0110225 0.00399693 0)
(-0.0108853 0.00593941 0)
(-0.010323 0.00603441 0)
(-0.00860941 0.00574571 0)
(-0.00769264 0.00528785 0)
(-0.00633033 0.000233455 0)
(-0.00372194 -0.00359942 0)
(-0.00175543 -0.000777579 0)
(-0.00138246 -0.00682834 0)
(-0.000326607 -0.0191021 0)
(0.00321201 0.0053856 0)
(8.86014e-05 0.00187517 0)
(-0.00356972 0.000310085 0)
(-0.00646482 -7.05266e-05 0)
(-0.00870761 0.000169446 0)
(-0.0105359 0.000611547 0)
(-0.0122319 0.000376845 0)
(-0.0137774 -0.00050026 0)
(-0.0145082 -8.26249e-05 0)
(-0.0134996 0.00355822 0)
(-0.0121614 0.00568214 0)
(-0.0109689 0.00542028 0)
(-0.00910165 0.00505976 0)
(-0.00730584 0.00462345 0)
(-0.00450984 -0.000931428 0)
(-0.00202111 -0.00457185 0)
(0.000503548 -0.00170174 0)
(0.00253753 -0.00707787 0)
(0.00300407 -0.0185711 0)
(0.000968779 -0.00708232 0)
(0.00277671 -0.0068995 0)
(0.00442938 -0.00648799 0)
(0.00602902 -0.00609516 0)
(0.00751733 -0.0056806 0)
(0.00883751 -0.005188 0)
(0.00994827 -0.00468429 0)
(0.0108806 -0.00419377 0)
(0.0116439 -0.00352118 0)
(0.0121457 -0.00257051 0)
(0.0122992 -0.00160382 0)
(0.0120683 -0.000803689 0)
(0.011438 -0.000270429 0)
(0.0103903 0.000142239 0)
(0.00893437 0.000666949 0)
(0.00721657 0.00172404 0)
(0.00588047 0.00392642 0)
(0.00607409 0.00739544 0)
(0.00742577 0.0097526 0)
(0.00880601 0.0104128 0)
(0.0102182 0.00889413 0)
(0.0103548 0.00591831 0)
(0.00743755 0.00480247 0)
(0.000951315 -0.00860216 0)
(0.00298261 -0.00818948 0)
(0.0048205 -0.007701 0)
(0.00660001 -0.00723567 0)
(0.00819977 -0.00671989 0)
(0.00957063 -0.00604703 0)
(0.0106703 -0.00533981 0)
(0.0114476 -0.00466696 0)
(0.0119211 -0.00381488 0)
(0.0121792 -0.00265835 0)
(0.0122628 -0.00146294 0)
(0.0121175 -0.000376171 0)
(0.0116176 0.000513835 0)
(0.0106562 0.00130258 0)
(0.00923759 0.00209753 0)
(0.00755905 0.00307275 0)
(0.00617525 0.00441737 0)
(0.00597385 0.00616182 0)
(0.00716851 0.00768951 0)
(0.00892918 0.008249 0)
(0.00998388 0.00756132 0)
(0.00924086 0.00687322 0)
(0.00682684 0.00656719 0)
(0.00138918 -0.00975152 0)
(0.00298322 -0.00979171 0)
(0.00506615 -0.00908054 0)
(0.00721501 -0.00852981 0)
(0.00871215 -0.00794004 0)
(0.010012 -0.006994 0)
(0.0113682 -0.0059714 0)
(0.0122688 -0.00504941 0)
(0.0125352 -0.00401773 0)
(0.0125895 -0.0027539 0)
(0.0127374 -0.00144869 0)
(0.0128897 -0.000186447 0)
(0.0127304 0.00101421 0)
(0.0119751 0.00217302 0)
(0.0106309 0.00329325 0)
(0.00895958 0.00433313 0)
(0.00753144 0.00525421 0)
(0.00713749 0.00606886 0)
(0.0080045 0.00684574 0)
(0.00945095 0.0075021 0)
(0.01007 0.0080125 0)
(0.00896599 0.00862147 0)
(0.00672341 0.00915915 0)
(0.00651066 -0.0162949 0)
(-0.000536091 -0.0110709 0)
(0.00241017 -0.0105537 0)
(0.00601336 -0.00963443 0)
(0.00568483 -0.00857547 0)
(0.00565965 -0.00772617 0)
(0.00818096 -0.00668826 0)
(0.010156 -0.00538036 0)
(0.0106172 -0.0040787 0)
(0.0107226 -0.00284016 0)
(0.01107 -0.00150962 0)
(0.0115482 -0.00022586 0)
(0.0117466 0.00126142 0)
(0.0110359 0.00274311 0)
(0.00976427 0.00410827 0)
(0.00879749 0.00517072 0)
(0.00852938 0.00572601 0)
(0.0088195 0.00614797 0)
(0.00859398 0.00673737 0)
(0.00837254 0.00732479 0)
(0.00875599 0.00845836 0)
(0.00859295 0.00948184 0)
(0.00747058 0.0102582 0)
(-0.0142676 -0.0113109 0)
(-0.0300309 -0.00574533 0)
(-0.0269801 -0.0241535 0)
(-0.0258461 -0.0164073 0)
(-0.0307995 -0.00697512 0)
(-0.0295829 -0.0147807 0)
(-0.0235348 -0.0151977 0)
(-0.0174766 -0.0098057 0)
(-0.0131023 -0.00545893 0)
(-0.00983896 -0.00433707 0)
(-0.00641643 -0.00319531 0)
(-0.00233318 -0.0018635 0)
(0.00172898 0.0016183 0)
(0.00503037 0.00603694 0)
(0.00806232 0.00808609 0)
(0.0107875 0.00793873 0)
(0.0116467 0.0071132 0)
(0.00985249 0.00591447 0)
(0.00503087 0.00842844 0)
(-0.00144912 0.00653859 0)
(-0.00419386 0.008621 0)
(-0.00410848 0.0130854 0)
(-0.00342056 0.0195905 0)
(-0.00317233 0.0165994 0)
(0.00153548 0.0082707 0)
(-0.00222864 -0.0175518 0)
(-0.012824 -0.00713936 0)
(-0.0115644 -0.00096013 0)
(-0.00994674 -0.0144709 0)
(-0.0151539 -0.0156033 0)
(-0.019909 -0.012408 0)
(-0.0197946 -0.00895377 0)
(-0.0185045 -0.00770838 0)
(-0.0182363 -0.00660759 0)
(-0.0185192 -0.00637131 0)
(-0.0180904 -0.00436987 0)
(-0.0144271 -0.00211842 0)
(-0.00889795 -0.000416307 0)
(-0.00607588 0.00215483 0)
(-0.00848394 0.00832457 0)
(-0.0128782 0.0103059 0)
(-0.0142039 0.0150083 0)
(-0.0153576 0.0138462 0)
(-0.0185486 0.0104423 0)
(-0.0208353 0.0104376 0)
(-0.0202015 0.0117748 0)
(0.00036461 -0.00110901 0)
(0.00351376 -0.00306685 0)
(-0.000725934 -0.00957735 0)
(-0.00893946 -0.00402317 0)
(-0.0100932 -0.00748077 0)
(-0.0134494 -0.0107959 0)
(-0.0187912 -0.00830127 0)
(-0.0222784 -0.00871284 0)
(-0.0246304 -0.00882031 0)
(-0.0263411 -0.00721033 0)
(-0.0279712 -0.005528 0)
(-0.0297336 -0.00435834 0)
(-0.0299533 -0.00505677 0)
(-0.0269147 -0.00713439 0)
(-0.0224827 -0.00406662 0)
(-0.0193305 0.00280888 0)
(-0.0176724 0.0114674 0)
(-0.0176066 0.0128588 0)
(-0.0185805 0.0144961 0)
(-0.0199493 0.0157645 0)
(-0.0221549 0.0133913 0)
(-0.0229052 0.0109103 0)
(-0.0219857 0.00988654 0)
(4.73812e-05 0.00622374 0)
(0.000419117 0.0038495 0)
(-0.00393013 -0.00234456 0)
(-0.00859026 4.88839e-06 0)
(-0.0107788 -0.00207044 0)
(-0.0145854 -0.00499965 0)
(-0.0185069 -0.00499584 0)
(-0.0214396 -0.00536653 0)
(-0.0240575 -0.0056024 0)
(-0.026139 -0.00480303 0)
(-0.0275553 -0.003466 0)
(-0.0283583 -0.00293625 0)
(-0.0282572 -0.00571492 0)
(-0.0279927 -0.00886186 0)
(-0.027961 -0.00629124 0)
(-0.0272952 0.000651284 0)
(-0.0250332 0.00826977 0)
(-0.0227119 0.0121085 0)
(-0.0217189 0.014641 0)
(-0.0210255 0.0160178 0)
(-0.0205956 0.0142672 0)
(-0.0208157 0.0106039 0)
(-0.0211201 0.00882625 0)
(-0.000706838 0.00342587 0)
(-0.000996275 0.00360086 0)
(-0.00447188 0.00142935 0)
(-0.00782981 0.00224839 0)
(-0.010071 0.000696327 0)
(-0.0131828 -0.00146751 0)
(-0.0162542 -0.00222782 0)
(-0.018779 -0.0027523 0)
(-0.0210466 -0.00326095 0)
(-0.022784 -0.00327219 0)
(-0.0237612 -0.00269827 0)
(-0.0240821 -0.00285176 0)
(-0.0246211 -0.0054195 0)
(-0.0264281 -0.00733384 0)
(-0.0286652 -0.00528616 0)
(-0.0293503 -4.72203e-05 0)
(-0.0278536 0.00535861 0)
(-0.0255524 0.0100883 0)
(-0.0236031 0.0132698 0)
(-0.021863 0.0145942 0)
(-0.0205794 0.0134835 0)
(-0.0202476 0.0108746 0)
(-0.0204057 0.00861075 0)
(-0.00115163 0.00555017 0)
(-0.00223337 0.00570324 0)
(-0.00468124 0.00458984 0)
(-0.00699099 0.00452538 0)
(-0.00886218 0.0032195 0)
(-0.011233 0.00134913 0)
(-0.0136551 0.000207819 0)
(-0.015757 -0.00057093 0)
(-0.017588 -0.0014467 0)
(-0.019064 -0.00200892 0)
(-0.0201176 -0.00198695 0)
(-0.0209162 -0.00234764 0)
(-0.0221663 -0.00388797 0)
(-0.0243378 -0.00474366 0)
(-0.0265921 -0.00339293 0)
(-0.027601 -0.000144766 0)
(-0.0270632 0.00378612 0)
(-0.0255166 0.00806339 0)
(-0.0235719 0.0112857 0)
(-0.021654 0.0127755 0)
(-0.0201597 0.0123833 0)
(-0.0194269 0.0106773 0)
(-0.0192213 0.00843817 0)
(-0.00114336 0.00744748 0)
(-0.00251486 0.00741345 0)
(-0.0043573 0.00670371 0)
(-0.00605409 0.00624637 0)
(-0.00758111 0.0050841 0)
(-0.00940103 0.00351059 0)
(-0.0113128 0.00222265 0)
(-0.013009 0.00118973 0)
(-0.0145103 7.05709e-05 0)
(-0.015901 -0.000715417 0)
(-0.0171882 -0.000863344 0)
(-0.0184045 -0.00118534 0)
(-0.0199145 -0.00204586 0)
(-0.0219598 -0.00245459 0)
(-0.0239745 -0.00167362 0)
(-0.0250364 0.000179532 0)
(-0.0248506 0.00302767 0)
(-0.0237488 0.00647963 0)
(-0.0221683 0.00945256 0)
(-0.0204785 0.0110566 0)
(-0.0189827 0.0111371 0)
(-0.0179065 0.00999625 0)
(-0.0171672 0.00795027 0)
(-0.00095523 0.00916077 0)
(-0.00226414 0.00895652 0)
(-0.00376504 0.00831056 0)
(-0.00512744 0.00765378 0)
(-0.0064245 0.00656557 0)
(-0.00787263 0.00518864 0)
(-0.00937139 0.00384068 0)
(-0.0107291 0.00260202 0)
(-0.0120283 0.00144849 0)
(-0.0134279 0.000699196 0)
(-0.0148496 0.000528158 0)
(-0.016205 0.000216259 0)
(-0.0176976 -0.000296756 0)
(-0.0194493 -0.000520185 0)
(-0.0211243 -0.000157261 0)
(-0.0221593 0.000669056 0)
(-0.0222863 0.00258021 0)
(-0.0215685 0.00528167 0)
(-0.0203016 0.00794559 0)
(-0.0188374 0.00951524 0)
(-0.0173743 0.00976306 0)
(-0.0160368 0.00888004 0)
(-0.014829 0.00699499 0)
(-0.000724345 0.0105612 0)
(-0.00184636 0.0103035 0)
(-0.0031025 0.00962959 0)
(-0.00425207 0.00886563 0)
(-0.00537675 0.00781324 0)
(-0.0065776 0.00653207 0)
(-0.00779127 0.00513843 0)
(-0.00894007 0.00380139 0)
(-0.0101485 0.00276272 0)
(-0.0115359 0.00218162 0)
(-0.01293 0.00192763 0)
(-0.0142208 0.00158992 0)
(-0.015547 0.00121574 0)
(-0.0169453 0.0010283 0)
(-0.0182525 0.00111411 0)
(-0.0192621 0.00135568 0)
(-0.0197048 0.0024841 0)
(-0.0193805 0.00443305 0)
(-0.0184455 0.00670584 0)
(-0.0171707 0.00810111 0)
(-0.0157474 0.008314 0)
(-0.0143159 0.00750432 0)
(-0.0129582 0.00574312 0)
(-0.000518857 0.0116468 0)
(-0.001425 0.0114323 0)
(-0.00247056 0.010739 0)
(-0.00345275 0.00991945 0)
(-0.00442779 0.00888611 0)
(-0.00544715 0.00765718 0)
(-0.00649084 0.00624129 0)
(-0.00756792 0.00492781 0)
(-0.00876218 0.00404318 0)
(-0.010058 0.00357159 0)
(-0.011306 0.0032 0)
(-0.0124574 0.00281585 0)
(-0.0135808 0.00245523 0)
(-0.0146771 0.00221847 0)
(-0.0156785 0.00213523 0)
(-0.0165606 0.00216333 0)
(-0.0171569 0.00271481 0)
(-0.0172134 0.00399415 0)
(-0.0166431 0.00573282 0)
(-0.0155627 0.00680149 0)
(-0.0142384 0.00689934 0)
(-0.0128825 0.00612009 0)
(-0.0116299 0.00452259 0)
(-0.000369593 0.0124523 0)
(-0.00106636 0.0123392 0)
(-0.001921 0.0116692 0)
(-0.00275937 0.0108295 0)
(-0.00360412 0.0098138 0)
(-0.00448629 0.00863159 0)
(-0.00544561 0.00726935 0)
(-0.0065136 0.00605445 0)
(-0.00767858 0.00527553 0)
(-0.00883965 0.00478108 0)
(-0.00991277 0.00431438 0)
(-0.0109095 0.00386914 0)
(-0.0118559 0.00346613 0)
(-0.0127452 0.00315317 0)
(-0.0135464 0.00295479 0)
(-0.014257 0.00288886 0)
(-0.0148327 0.00313311 0)
(-0.01508 0.00390399 0)
(-0.014759 0.00501241 0)
(-0.013903 0.00567953 0)
(-0.0127841 0.00564111 0)
(-0.0116234 0.00490078 0)
(-0.0105789 0.00350924 0)
(-0.000254072 0.0130398 0)
(-0.000784122 0.0130497 0)
(-0.00148252 0.0124463 0)
(-0.0022048 0.0116184 0)
(-0.00294999 0.0106286 0)
(-0.00373899 0.00950298 0)
(-0.00463391 0.00826456 0)
(-0.00566263 0.00716241 0)
(-0.00673942 0.00640397 0)
(-0.00775406 0.00581914 0)
(-0.00868041 0.00527684 0)
(-0.0095407 0.00476948 0)
(-0.010346 0.00430928 0)
(-0.011091 0.00392289 0)
(-0.0117621 0.00363403 0)
(-0.0123553 0.00347768 0)
(-0.0128326 0.00355108 0)
(-0.0130563 0.00394105 0)
(-0.0128535 0.00450046 0)
(-0.0122268 0.00480039 0)
(-0.0113591 0.00461909 0)
(-0.0104379 0.00391224 0)
(-0.00961682 0.00271617 0)
(-0.000163088 0.0134587 0)
(-0.00057416 0.0136118 0)
(-0.0011649 0.0131082 0)
(-0.0018004 0.0123152 0)
(-0.00247078 0.0113625 0)
(-0.0031934 0.0103025 0)
(-0.00401219 0.00919224 0)
(-0.00493487 0.00818279 0)
(-0.00587685 0.00739105 0)
(-0.00675727 0.00672204 0)
(-0.00756511 0.0061118 0)
(-0.00831166 0.00554474 0)
(-0.00900281 0.00502658 0)
(-0.00963557 0.00457418 0)
(-0.0102014 0.00420803 0)
(-0.0106899 0.00395794 0)
(-0.0110635 0.00387367 0)
(-0.0112302 0.00397291 0)
(-0.0110871 0.00414471 0)
(-0.0106347 0.00415313 0)
(-0.00998805 0.00383919 0)
(-0.00928805 0.00315105 0)
(-0.00866314 0.0021116 0)
(-0.000113964 0.0137642 0)
(-0.000457832 0.0140809 0)
(-0.000974113 0.0136835 0)
(-0.00152878 0.0129351 0)
(-0.0021266 0.0120271 0)
(-0.002778 0.0110322 0)
(-0.00350279 0.0100143 0)
(-0.00429399 0.00906271 0)
(-0.00509513 0.00823838 0)
(-0.00585265 0.00750825 0)
(-0.00655292 0.0068378 0)
(-0.00719853 0.00621432 0)
(-0.00779122 0.00563999 0)
(-0.00832804 0.00512568 0)
(-0.0088011 0.00468647 0)
(-0.00919644 0.00434149 0)
(-0.00948217 0.00411127 0)
(-0.00959975 0.00398715 0)
(-0.00949251 0.00389012 0)
(-0.00916442 0.00368292 0)
(-0.00868916 0.00326019 0)
(-0.00816726 0.00257945 0)
(-0.00769739 0.00165504 0)
(-0.000115375 0.0140222 0)
(-0.000422708 0.0145032 0)
(-0.000880217 0.0141783 0)
(-0.00135094 0.0134763 0)
(-0.00187004 0.0126152 0)
(-0.00243853 0.0116765 0)
(-0.00306081 0.0107188 0)
(-0.00372528 0.0098 0)
(-0.0043957 0.00895725 0)
(-0.00503715 0.00818352 0)
(-0.00563542 0.00746309 0)
(-0.00618725 0.00678864 0)
(-0.00669076 0.00616134 0)
(-0.00714174 0.00558808 0)
(-0.00753203 0.00507853 0)
(-0.00784762 0.00464267 0)
(-0.00806387 0.00428547 0)
(-0.00814487 0.0039905 0)
(-0.00806126 0.00370284 0)
(-0.00781987 0.00333949 0)
(-0.0074696 0.00283278 0)
(-0.00708078 0.0021525 0)
(-0.00672565 0.00130831 0)
(-0.000149581 0.0142817 0)
(-0.000419355 0.0148925 0)
(-0.000822089 0.0145989 0)
(-0.00122055 0.0139388 0)
(-0.00166254 0.0131207 0)
(-0.00214504 0.0122269 0)
(-0.00266622 0.0113094 0)
(-0.00321503 0.0104108 0)
(-0.00376804 0.00955759 0)
(-0.00430212 0.00875321 0)
(-0.00480425 0.00799303 0)
(-0.00526823 0.00727444 0)
(-0.00568962 0.00659877 0)
(-0.00606295 0.00597045 0)
(-0.00638001 0.005395 0)
(-0.00662847 0.00487641 0)
(-0.00679042 0.00441256 0)
(-0.00684442 0.00398673 0)
(-0.00677627 0.00356117 0)
(-0.00659397 0.00308455 0)
(-0.00633119 0.00251408 0)
(-0.00603683 0.00182989 0)
(-0.00576235 0.00103911 0)
(-0.000191968 0.0145636 0)
(-0.000425394 0.0152346 0)
(-0.000767378 0.0149592 0)
(-0.00110896 0.0143307 0)
(-0.00148014 0.013546 0)
(-0.0018801 0.0126852 0)
(-0.00230686 0.0117953 0)
(-0.00275223 0.0109101 0)
(-0.00320109 0.0100507 0)
(-0.00363771 0.00922487 0)
(-0.004051 0.00843381 0)
(-0.00443366 0.00767812 0)
(-0.00477986 0.00695966 0)
(-0.00508336 0.00628144 0)
(-0.00533631 0.0056464 0)
(-0.0055285 0.00505527 0)
(-0.00564737 0.00450345 0)
(-0.0056803 0.0039768 0)
(-0.00562115 0.00344958 0)
(-0.00547781 0.00288965 0)
(-0.00527403 0.00227027 0)
(-0.00504381 0.00157909 0)
(-0.00482327 0.00082176 0)
(-0.000256154 0.014876 0)
(-0.000429488 0.0155152 0)
(-0.00071758 0.0152694 0)
(-0.00100752 0.0146599 0)
(-0.00131188 0.0138965 0)
(-0.00163401 0.0130579 0)
(-0.00197428 0.0121868 0)
(-0.00232781 0.011311 0)
(-0.00268489 0.0104483 0)
(-0.00303454 0.00960759 0)
(-0.0033675 0.00879295 0)
(-0.00367642 0.0080068 0)
(-0.0039549 0.00725148 0)
(-0.00419646 0.00652937 0)
(-0.00439386 0.00584206 0)
(-0.00453885 0.00518894 0)
(-0.00462267 0.00456528 0)
(-0.00463796 0.00396021 0)
(-0.0045826 0.00335647 0)
(-0.00446363 0.00273386 0)
(-0.00429799 0.0020759 0)
(-0.00410938 0.00137533 0)
(-0.00392293 0.000636848 0)
(-0.00027257 0.015209 0)
(-0.000429825 0.0157543 0)
(-0.000682532 0.0155318 0)
(-0.000915066 0.014928 0)
(-0.00115215 0.0141753 0)
(-0.00140016 0.013351 0)
(-0.00166151 0.0124932 0)
(-0.0019338 0.0116251 0)
(-0.00221064 0.0107616 0)
(-0.00248398 0.00991119 0)
(-0.00274598 0.009079 0)
(-0.00298963 0.0082684 0)
(-0.00320845 0.00748212 0)
(-0.00339605 0.00672234 0)
(-0.00354592 0.00599021 0)
(-0.00365135 0.00528497 0)
(-0.00370613 0.00460281 0)
(-0.00370591 0.00393602 0)
(-0.00365041 0.00327331 0)
(-0.00354546 0.00260214 0)
(-0.00340322 0.00191258 0)
(-0.00324019 0.00120068 0)
(-0.00307381 0.000470427 0)
(-0.000247263 0.0155389 0)
(-0.00042704 0.0159883 0)
(-0.000655758 0.0157441 0)
(-0.000823769 0.0151322 0)
(-0.000993122 0.0143837 0)
(-0.00117112 0.0135699 0)
(-0.00136131 0.0127236 0)
(-0.0015626 0.0118635 0)
(-0.00177036 0.0110017 0)
(-0.00197816 0.0101459 0)
(-0.00217912 0.00930125 0)
(-0.00236659 0.00847154 0)
(-0.00253424 0.00765977 0)
(-0.00267597 0.00686825 0)
(-0.00278587 0.00609827 0)
(-0.00285844 0.00534954 0)
(-0.00288907 0.0046196 0)
(-0.00287504 0.00390348 0)
(-0.0028168 0.00319416 0)
(-0.00271891 0.00248411 0)
(-0.00259007 0.0017676 0)
(-0.00244179 0.00104279 0)
(-0.00228611 0.000313111 0)
(-0.000256384 0.015858 0)
(-0.000421785 0.0162234 0)
(-0.00061657 0.0159018 0)
(-0.000718618 0.015271 0)
(-0.000823502 0.0145245 0)
(-0.000938014 0.0137213 0)
(-0.00106604 0.0128872 0)
(-0.00120694 0.0120368 0)
(-0.00135683 0.0111797 0)
(-0.00151003 0.0103223 0)
(-0.00166021 0.00946948 0)
(-0.00180098 0.00862525 0)
(-0.00192622 0.00779284 0)
(-0.00203013 0.00697489 0)
(-0.00210734 0.00617315 0)
(-0.00215317 0.00538814 0)
(-0.00216403 0.00461882 0)
(-0.00213805 0.00386253 0)
(-0.00207577 0.00311532 0)
(-0.00198067 0.00237303 0)
(-0.00185893 0.00163266 0)
(-0.00171856 0.000893718 0)
(-0.0015679 0.000159154 0)
(-0.000270272 0.0161787 0)
(-0.000404944 0.016429 0)
(-0.000538257 0.0160013 0)
(-0.000583013 0.0153482 0)
(-0.000631843 0.0146049 0)
(-0.000692321 0.0138141 0)
(-0.000768704 0.0129945 0)
(-0.000860471 0.0121564 0)
(-0.000963912 0.0113068 0)
(-0.0010736 0.0104511 0)
(-0.0011834 0.00959374 0)
(-0.00128711 0.00873881 0)
(-0.00137877 0.00788984 0)
(-0.00145284 0.00704991 0)
(-0.0015044 0.00622144 0)
(-0.00152934 0.00540591 0)
(-0.00152466 0.00460366 0)
(-0.00148892 0.00381389 0)
(-0.00142255 0.00303495 0)
(-0.0013281 0.00226501 0)
(-0.00120994 0.00150287 0)
(-0.00107369 0.000748884 0)
(-0.000925132 5.63194e-06 0)
(-0.000270404 0.016486 0)
(-0.000335478 0.0165735 0)
(-0.000408127 0.016047 0)
(-0.0004078 0.0153732 0)
(-0.00041127 0.0146352 0)
(-0.00042844 0.0138595 0)
(-0.000464344 0.0130569 0)
(-0.000518457 0.0122336 0)
(-0.000586894 0.0113943 0)
(-0.000664099 0.0105431 0)
(-0.000743903 0.00968416 0)
(-0.000820127 0.00882153 0)
(-0.000886926 0.00795919 0)
(-0.000938992 0.00710081 0)
(-0.000971727 0.00624955 0)
(-0.00098142 0.00540791 0)
(-0.000965468 0.00457749 0)
(-0.000922609 0.00375907 0)
(-0.000853115 0.00295275 0)
(-0.000758809 0.00215831 0)
(-0.000642826 0.00137584 0)
(-0.000509142 0.000606213 0)
(-0.000361834 -0.0001483 0)
(-0.000194306 0.0167314 0)
(-0.000215511 0.0166503 0)
(-0.000237827 0.0160474 0)
(-0.000196769 0.0153561 0)
(-0.000161987 0.0146256 0)
(-0.000144832 0.0138679 0)
(-0.000150633 0.0130856 0)
(-0.000178167 0.0122801 0)
(-0.000222744 0.0114535 0)
(-0.000278225 0.0106091 0)
(-0.000338126 0.00975066 0)
(-0.000396166 0.00888252 0)
(-0.000446554 0.00800914 0)
(-0.000484159 0.00713486 0)
(-0.000504645 0.00626369 0)
(-0.000504599 0.00539912 0)
(-0.000481679 0.00454395 0)
(-0.000434727 0.00370027 0)
(-0.000363868 0.00286955 0)
(-0.00027044 0.00205283 0)
(-0.000156743 0.00125104 0)
(-2.56834e-05 0.000465424 0)
(0.000119788 -0.000302008 0)
(-0.000106637 0.016874 0)
(-8.06707e-05 0.0166663 0)
(-4.64975e-05 0.0160047 0)
(4.05708e-05 0.0152996 0)
(0.00011224 0.014582 0)
(0.000157677 0.0138481 0)
(0.000172817 0.0130909 0)
(0.000161374 0.0123066 0)
(0.000129968 0.0114952 0)
(8.59151e-05 0.0106593 0)
(3.63027e-05 0.00980282 0)
(-1.23753e-05 0.00893052 0)
(-5.43405e-05 0.00804754 0)
(-8.46171e-05 0.00715901 0)
(-9.90988e-05 0.00626982 0)
(-9.46131e-05 0.00538446 0)
(-6.90272e-05 0.00450682 0)
(-2.12617e-05 0.00364016 0)
(4.86379e-05 0.00278707 0)
(0.00013961 0.00194954 0)
(0.000249865 0.00112919 0)
(0.000377152 0.000327477 0)
(0.000519224 -0.000453838 0)
(-6.38796e-05 0.0169176 0)
(5.70527e-05 0.0166104 0)
(0.000154924 0.0159075 0)
(0.000297725 0.0151988 0)
(0.000409732 0.0145063 0)
(0.000478469 0.0138071 0)
(0.0005055 0.0130824 0)
(0.000499775 0.0123236 0)
(0.000471214 0.0115297 0)
(0.000428873 0.0107035 0)
(0.000380612 0.00984958 0)
(0.000333172 0.00897367 0)
(0.000292286 0.00808173 0)
(0.000262758 0.00717976 0)
(0.000248478 0.00627359 0)
(0.000252394 0.00536867 0)
(0.000276468 0.00446994 0)
(0.000321657 0.00358171 0)
(0.000387918 0.00270751 0)
(0.000474327 0.00185019 0)
(0.000579331 0.00101186 0)
(0.000701016 0.000194127 0)
(0.000837535 -0.000601515 0)
(-2.2094e-05 0.0168705 0)
(0.00018962 0.0164771 0)
(0.000370312 0.0157394 0)
(0.000577727 0.0150446 0)
(0.000732137 0.0143995 0)
(0.000817675 0.0137526 0)
(0.000846081 0.0130702 0)
(0.000835224 0.0123416 0)
(0.000799525 0.0115668 0)
(0.00074995 0.0107506 0)
(0.000695038 0.00989914 0)
(0.000641632 0.00901937 0)
(0.000595324 0.00811834 0)
(0.000560688 0.00720302 0)
(0.000541369 0.00628018 0)
(0.000540104 0.00535623 0)
(0.000558683 0.00443707 0)
(0.000597939 0.00352798 0)
(0.000657763 0.00263343 0)
(0.00073723 0.00175695 0)
(0.000834819 0.000901106 0)
(0.00094871 6.75805e-05 0)
(0.00107723 -0.000742437 0)
(2.3594e-05 0.0167328 0)
(0.000328661 0.0162577 0)
(0.000607656 0.0154864 0)
(0.000889684 0.0148269 0)
(0.00108412 0.0142658 0)
(0.00117478 0.0136953 0)
(0.00119119 0.0130661 0)
(0.00116388 0.012371 0)
(0.00111183 0.0116158 0)
(0.00104731 0.0108087 0)
(0.000979039 0.00995858 0)
(0.000913671 0.00907397 0)
(0.000856486 0.00816314 0)
(0.000811742 0.00723402 0)
(0.000782819 0.00629429 0)
(0.000772242 0.00535126 0)
(0.00078165 0.00441178 0)
(0.000811759 0.00348206 0)
(0.000862365 0.00256744 0)
(0.000932436 0.00167216 0)
(0.00102033 0.000799192 0)
(0.00112412 -4.97523e-05 0)
(0.00124211 -0.00087389 0)
(0.000114212 0.0164978 0)
(0.000511237 0.0159394 0)
(0.000898425 0.0151371 0)
(0.00124912 0.0145457 0)
(0.00146624 0.014116 0)
(0.00154375 0.0136513 0)
(0.00153297 0.0130829 0)
(0.00147911 0.0124218 0)
(0.00140351 0.0116842 0)
(0.00131831 0.0108842 0)
(0.00123171 0.0100335 0)
(0.00114985 0.0091426 0)
(0.00107754 0.00822084 0)
(0.00101866 0.00727712 0)
(0.000976314 0.00631994 0)
(0.000952837 0.00535745 0)
(0.000949758 0.00439738 0)
(0.000967721 0.00344687 0)
(0.00100644 0.00251213 0)
(0.00106473 0.00159817 0)
(0.0011407 0.000708404 0)
(0.00123214 -0.000155468 0)
(0.00133715 -0.000993212 0)
(0.00034309 0.0160826 0)
(0.000853509 0.0155118 0)
(0.00132187 0.014715 0)
(0.00166733 0.0142474 0)
(0.00185777 0.0139702 0)
(0.00190498 0.0136366 0)
(0.00185782 0.0131307 0)
(0.00177228 0.0125004 0)
(0.00166947 0.0117771 0)
(0.0015604 0.0109813 0)
(0.00145245 0.0101279 0)
(0.00135112 0.00922893 0)