/*--------------------------------*- C++ -*----------------------------------*\
  =========                 |
  \\      /  F ield         | OpenFOAM: The Open Source CFD Toolbox
   \\    /   O peration     | Website:  https://openfoam.org
    \\  /    A nd           | Version:  9
     \\/     M anipulation  |
\*---------------------------------------------------------------------------*/
FoamFile
{
    format      ascii;
    class       volScalarField;
    location    "7.57";
    object      nut;
}
// * * * * * * * * * * * * * * * * * * * * * * * * * * * * * * * * * * * * * //

dimensions      [0 2 -1 0 0 0 0];

internalField   nonuniform List<scalar> 
2268
(
1.02448e-05
1.20408e-05
1.46191e-05
1.63439e-05
1.76294e-05
1.86387e-05
1.94528e-05
2.01179e-05
2.0665e-05
2.11188e-05
2.15035e-05
2.18436e-05
2.21476e-05
2.23931e-05
2.25074e-05
2.23339e-05
2.16755e-05
2.06998e-05
1.94169e-05
1.80458e-05
1.67121e-05
1.45017e-05
1.01553e-05
2.35988e-05
9.79739e-05
0.000133046
0.00015506
0.000170888
0.000183027
0.000192623
0.000200278
0.000206371
0.000211282
0.000215304
0.000218633
0.000221281
0.000222926
0.000222856
0.000219787
0.000211371
0.000194666
0.000177777
0.000162972
0.000150665
0.000112954
3.19916e-05
2.8226e-05
0.000166315
0.000246996
0.000299097
0.000336547
0.000365082
0.000387467
0.000405203
0.000419249
0.000430435
0.000439431
0.000446719
0.000452379
0.000455783
0.000455397
0.000448394
0.000430358
0.000399236
0.000366257
0.000332247
0.000287936
0.000192241
3.79039e-05
3.16569e-05
0.000214278
0.000336655
0.000418825
0.000478717
0.000524566
0.000560579
0.00058913
0.00061176
0.000629709
0.000644023
0.000655417
0.000664028
0.000668987
0.000668144
0.000657702
0.000632373
0.000590834
0.000544
0.000488577
0.00040633
0.000256002
4.30317e-05
3.4385e-05
0.000250433
0.000408686
0.000518638
0.000600066
0.000662894
0.000712447
0.000751845
0.000783151
0.000807969
0.000827667
0.00084313
0.000854526
0.000860819
0.000859507
0.000846389
0.000816059
0.000766894
0.000707915
0.000631292
0.000512483
0.000312956
4.80011e-05
3.66867e-05
0.000279341
0.000468289
0.000603326
0.000704858
0.000783871
0.000846504
0.000896477
0.000936306
0.000967915
0.000992914
0.00101234
0.00102636
0.00103386
0.00103219
0.00101713
0.000983521
0.000928921
0.000859592
0.000763856
0.000612727
0.000367235
5.34525e-05
3.87248e-05
0.000303469
0.000518912
0.000676466
0.000796563
0.000890813
0.00096591
0.00102604
0.00107411
0.00111235
0.00114249
0.00116575
0.00118231
0.001191
0.0011892
0.00117286
0.0011372
0.00107912
0.00100167
0.000890609
0.000713806
0.000423534
6.04984e-05
4.05992e-05
0.000324348
0.000562938
0.000740704
0.000877879
0.000986385
0.00107326
0.00114306
0.00119903
0.00124364
0.00127877
0.00130576
0.00132482
0.00133482
0.00133324
0.0013163
0.00127957
0.0012197
0.00113683
0.00101578
0.000823529
0.000500434
7.15143e-05
1.13275e-05
1.70443e-05
1.96991e-05
2.08524e-05
2.1503e-05
2.18099e-05
2.20172e-05
2.20888e-05
2.16994e-05
2.06088e-05
1.91119e-05
1.74737e-05
1.62969e-05
1.64237e-05
1.66318e-05
1.62241e-05
1.43485e-05
1.20824e-05
1.11633e-05
3.58543e-05
0.000137983
0.000182084
0.000202328
0.000212146
0.000216923
0.000218478
0.000216309
0.000208267
0.000192043
0.000170232
0.000154654
0.000144396
0.000148283
0.000154893
0.000146756
0.000123186
8.74417e-05
2.52751e-05
3.95408e-05
0.000238564
0.000346175
0.000400495
0.000427453
0.000440143
0.000444395
0.000440267
0.000423712
0.000391632
0.000353136
0.000324981
0.000306398
0.000305563
0.000308504
0.000286049
0.00022842
0.000141763
3.00629e-05
4.35281e-05
0.000306044
0.000479844
0.000571959
0.000618736
0.000640922
0.000648697
0.000643744
0.000621604
0.000579233
0.000530694
0.000493336
0.000466271
0.000454458
0.000445021
0.000404476
0.000314664
0.000181251
3.42337e-05
4.82728e-05
0.000360591
0.00059389
0.000721835
0.000788007
0.000819843
0.000831476
0.000826641
0.000801559
0.000753632
0.000699389
0.000654924
0.00061881
0.000593276
0.000567567
0.000507655
0.000390762
0.000219667
3.79832e-05
5.40822e-05
0.000415356
0.000699173
0.000857464
0.000940481
0.000981023
0.000996358
0.000992223
0.000966083
0.000915914
0.00085862
0.000808357
0.000762969
0.000722909
0.000679613
0.00060042
0.000461452
0.000261215
4.13885e-05
6.20981e-05
0.000478362
0.000804303
0.000984996
0.00108082
0.00112832
0.00114677
0.0011435
0.0011174
0.00106708
0.00100828
0.000953024
0.000898572
0.000844294
0.000783361
0.000685098
0.000526713
0.000304602
4.45574e-05
7.60777e-05
0.000562054
0.000916731
0.00110906
0.00121269
0.0012649
0.00128551
0.00128291
0.00125724
0.00120794
0.00114848
0.00108871
0.00102569
0.000958192
0.000880026
0.000763089
0.000585565
0.000340771
4.78381e-05
4.31773e-05
0.000353814
0.00062419
0.000830407
0.000992269
0.00112178
0.00122623
0.00131061
0.00137859
0.001433
0.00147588
0.00150844
0.00153122
0.00154315
0.00154215
0.00152521
0.00148876
0.00142909
0.00134212
0.00121494
0.00102418
0.000741555
0.000370023
4.64623e-05
0.000387904
0.000692954
0.000930752
0.00112076
0.00127449
0.00139919
0.00150052
0.00158266
0.00164883
0.00170134
0.00174161
0.00176995
0.00178592
0.00178796
0.00177408
0.00174187
0.00168818
0.00160784
0.00149215
0.00132847
0.00110847
0.000846784
5.00938e-05
0.000420562
0.000755608
0.00102014
0.00123413
0.00140815
0.00154917
0.00166441
0.0017586
0.00183516
0.00189659
0.00194453
0.0019795
0.0020011
0.00200829
0.00199998
0.00197499
0.00193094
0.00186383
0.00176887
0.00164109
0.00148347
0.00132052
5.43258e-05
0.000449578
0.000812973
0.00110212
0.00133773
0.00152917
0.00168267
0.00180923
0.00191334
0.00199888
0.00206853
0.00212406
0.00216631
0.00219492
0.00220889
0.0022079
0.00219133
0.00215816
0.0021053
0.0020332
0.00194024
0.00183187
0.00173179
5.95779e-05
0.000468934
0.000860277
0.00117707
0.00143162
0.00163489
0.00180222
0.00194129
0.00205343
0.00214626
0.00222311
0.00228558
0.00233499
0.00237104
0.00239195
0.00239676
0.00238696
0.00236303
0.00232428
0.00227344
0.00221046
0.00213922
0.00207768
5.90657e-05
0.000456815
0.000857381
0.00119974
0.0014808
0.00170343
0.00189296
0.0020493
0.00217486
0.00227735
0.00236217
0.00243181
0.00248833
0.00253226
0.00256112
0.00257133
0.00256791
0.00255372
0.00252793
0.00249568
0.00245572
0.00241063
0.00237406
0.000292625
0.000556815
0.000928313
0.00125085
0.00153036
0.00176756
0.00196999
0.00213966
0.00227823
0.00239268
0.0024876
0.002566
0.00263046
0.00268202
0.00271758
0.00273542
0.00273936
0.0027335
0.00271882
0.00269955
0.00267737
0.00265353
0.00263467
0.000295659
0.000556917
0.000964272
0.00129831
0.00158393
0.00182994
0.00204104
0.00222043
0.00237054
0.00249614
0.00260127
0.0026892
0.00276265
0.00282214
0.00286498
0.00289101
0.00290347
0.00290627
0.00290203
0.00289404
0.00288508
0.00287595
0.00286877
0.000294808
0.00056141
0.000986887
0.00133572
0.0016318
0.00188698
0.00210679
0.00229498
0.00245483
0.00259036
0.00270526
0.00280283
0.00288554
0.00295331
0.00300423
0.00303862
0.00305986
0.00307151
0.00307648
0.00307806
0.00307911
0.00307998
0.00308079
0.000295688
0.000569146
0.00100255
0.00136567
0.0016735
0.00193839
0.00216695
0.00236375
0.00253266
0.0026775
0.00280173
0.00290844
0.00299962
0.00307527
0.00313434
0.00317764
0.00320808
0.00322877
0.00324246
0.00325232
0.00326071
0.00326817
0.00327408
0.000294611
0.000568993
0.00101495
0.00139108
0.00171046
0.00198511
0.00222248
0.00242781
0.00260539
0.002759
0.00289192
0.00300695
0.0031058
0.00318888
0.00325604
0.00330827
0.00334789
0.00337743
0.00339932
0.00341627
0.00343032
0.0034421
0.00345124
0.00029463
0.000571069
0.00102568
0.00141362
0.00174404
0.00202832
0.00227447
0.0024882
0.0026741
0.00283594
0.00297684
0.00309946
0.0032055
0.00329561
0.00337046
0.00343109
0.00347924
0.00351695
0.00354623
0.00356934
0.003588
0.00360292
0.00361397
0.000294885
0.000572998
0.00103568
0.00143446
0.00177533
0.00206903
0.00232382
0.00254577
0.0027396
0.00290909
0.00305733
0.00318691
0.00329962
0.00339647
0.00347834
0.00354647
0.00360218
0.00364707
0.00368282
0.00371121
0.00373377
0.00375115
0.00376337
0.000294914
0.000573918
0.00104533
0.00145443
0.00180525
0.00210807
0.00237128
0.00260115
0.00280246
0.00297905
0.00313406
0.00327002
0.00338882
0.0034918
0.00358003
0.00365459
0.00371674
0.00376776
0.003809
0.00384191
0.00386777
0.00388718
0.00390018
0.000295619
0.000576693
0.00105524
0.00147422
0.00183455
0.00214615
0.00241745
0.00265481
0.00286312
0.00304627
0.00320745
0.00334921
0.00347351
0.00358187
0.00367552
0.00375556
0.00382307
0.00387916
0.00392496
0.00396168
0.00399034
0.00401145
0.00402505
0.000295951
0.000578627
0.00106552
0.00149424
0.00186375
0.00218376
0.00246272
0.0027071
0.00292187
0.00311102
0.00327777
0.0034247
0.00355385
0.00366684
0.003765
0.00384949
0.00392134
0.00398154
0.00403108
0.00407096
0.00410198
0.00412458
0.00413877
0.000295518
0.000577646
0.00107622
0.00151466
0.0018931
0.00222114
0.00250731
0.00275818
0.00297887
0.00317343
0.00334511
0.00349655
0.00362985
0.00374672
0.00384858
0.00393662
0.0040119
0.00407535
0.00412789
0.00417034
0.00420335
0.00422731
0.00424223
0.000295939
0.000579975
0.00108766
0.00153556
0.00192263
0.00225834
0.00255127
0.00280813
0.00303415
0.00323349
0.00340944
0.0035647
0.00370145
0.00382148
0.00392628
0.00401711
0.00409505
0.00416105
0.00421596
0.00426051
0.00429527
0.00432055
0.00433642
6.96209e-05
0.000576561
0.00109922
0.00155682
0.0019523
0.00229531
0.00259454
0.00285686
0.00308764
0.0032911
0.00347066
0.00362906
0.00376857
0.00389107
0.00399814
0.0040911
0.00417109
0.00423908
0.0042959
0.00434225
0.00437863
0.00440533
0.00442244
6.9658e-05
0.000579004
0.00111145
0.00157846
0.00198204
0.00233194
0.002637
0.00290425
0.00313917
0.00334612
0.0035286
0.00368947
0.0038311
0.00395546
0.00406422
0.00415879
0.00424036
0.00430995
0.00436841
0.00441641
0.00445444
0.00448279
0.00450155
6.96726e-05
0.000581202
0.00112429
0.00160046
0.00201176
0.00236811
0.00267851
0.00295011
0.00318856
0.00339836
0.00358313
0.00374585
0.00388901
0.00401469
0.00412467
0.00422045
0.00430329
0.00437428
0.00443429
0.00448399
0.00452388
0.00455422
0.00457512
0.000295454
0.000587321
0.00113796
0.00162275
0.00204134
0.00240368
0.00271888
0.00299426
0.00323563
0.00344766
0.00363411
0.00379813
0.00394231
0.00406889
0.00417975
0.0042765
0.00436049
0.00443286
0.00449451
0.00454615
0.00458827
0.0046211
0.00464475
0.000295111
0.00059128
0.00115195
0.00164515
0.00207063
0.00243848
0.00275793
0.00303652
0.00328023
0.00349391
0.00368151
0.00384634
0.00399116
0.00411834
0.00422989
0.00432753
0.00441271
0.00448663
0.00455023
0.00460423
0.0046491
0.00468508
0.0047122
0.000295944
0.00059896
0.00116635
0.00166745
0.00209944
0.00247232
0.0027955
0.00307673
0.00332223
0.00353705
0.00372535
0.00389063
0.00403581
0.00416344
0.00427566
0.0043743
0.0044609
0.00453673
0.00460277
0.00465973
0.00470806
0.00474796
0.0047794
6.97748e-05
0.000597598
0.00118006
0.00168938
0.00212758
0.00250501
0.0028314
0.00311476
0.00336155
0.00357709
0.00376576
0.00393124
0.00407668
0.00420477
0.0043178
0.00441773
0.00450619
0.00458448
0.00465363
0.00471432
0.00476696
0.00481168
0.00484838
0.000295827
0.000606456
0.00119409
0.00171097
0.00215491
0.00253642
0.0028655
0.00315049
0.00339817
0.00361411
0.00380293
0.00396854
0.00411428
0.00424301
0.0043572
0.00445889
0.00454981
0.00463131
0.0047044
0.00476974
0.00482769
0.00487826
0.00492124
6.98064e-05
0.00060595
0.00120745
0.00173204
0.00218127
0.00256628
0.00289758
0.00318382
0.00343211
0.00364826
0.00383717
0.00400298
0.00414924
0.00427899
0.00439484
0.00449895
0.00459311
0.00467871
0.00475675
0.00482782
0.00489218
0.00494971
0.00500006
6.98524e-05
0.000611944
0.00122155
0.00175261
0.00220634
0.00259434
0.00292745
0.00321467
0.00346339
0.00367974
0.00386885
0.00403511
0.00418227
0.00431358
0.00443176
0.00453911
0.00463746
0.00472822
0.00481233
0.00489032
0.0049623
0.00502799
0.00508686
0.000296176
0.000621252
0.00123545
0.00177208
0.00222973
0.00262027
0.0029549
0.00324294
0.0034921
0.00370877
0.00389835
0.00406547
0.0042141
0.00434764
0.004469
0.00458055
0.00468418
0.00478129
0.00487274
0.00495896
0.00503986
0.00511496
0.00518354
6.99353e-05
0.000624758
0.00124834
0.00178992
0.00225094
0.00264367
0.00297965
0.00326854
0.00351829
0.00373559
0.00392608
0.00409462
0.00424541
0.00438203
0.00450752
0.00462436
0.00473449
0.00483925
0.00493944
0.00503528
0.00512651
0.00521237
0.00529186
6.97766e-05
0.000629477
0.00125964
0.00180548
0.00226936
0.00266404
0.00300137
0.00329128
0.00354199
0.0037604
0.00395239
0.00412306
0.00427681
0.00441743
0.00454812
0.00467145
0.00478939
0.00490324
0.00501368
0.00512071
0.00522377
0.00532181
0.00541347
6.98145e-05
0.000634087
0.00126871
0.00181789
0.00228416
0.00268068
0.00301957
0.00331093
0.00356315
0.00378333
0.00397756
0.00415115
0.00430876
0.00445438
0.00459139
0.00472248
0.00484966
0.00497418
0.00509653
0.00521646
0.00533305
0.00544481
0.00554998
6.9811e-05
0.00063652
0.00127434
0.0018259
0.00229417
0.00269263
0.00303355
0.00332707
0.00358162
0.00380441
0.00400172
0.00417911
0.0043415
0.00449314
0.00463763
0.00477782
0.00491578
0.00505268
0.00518884
0.00532363
0.00545567
0.00558291
0.00570304
6.98114e-05
0.000636189
0.00127505
0.00182769
0.00229761
0.00269845
0.00304233
0.00333912
0.00359711
0.00382354
0.00402487
0.00420695
0.00437501
0.00453366
0.00468678
0.00483744
0.00498781
0.00513904
0.00529117
0.00544316
0.00559296
0.00573777
0.00587449
6.98001e-05
0.000632415
0.00126862
0.00182042
0.0022918
0.00269609
0.00304455
0.00334629
0.00360921
0.00384049
0.00404683
0.00423445
0.00440901
0.00457556
0.00473838
0.00490087
0.00506539
0.00523311
0.0054038
0.00557587
0.00574637
0.00591135
0.00606662
0.000296661
0.000627481
0.00125144
0.00179928
0.00227252
0.00268259
0.00303845
0.00334767
0.00361745
0.00385497
0.00406728
0.00426117
0.00444288
0.00461803
0.00479146
0.00496706
0.00514753
0.00533419
0.00552661
0.00572248
0.00591757
0.00610624
0.0062825
6.97561e-05
0.000607741
0.00121489
0.00175543
0.00223321
0.00265401
0.00302204
0.00334234
0.00362139
0.00386662
0.00408578
0.00428644
0.00447567
0.00465984
0.00484452
0.00503428
0.00523245
0.00544075
0.00565878
0.00588344
0.0061087
0.00632607
0.00652654
0.000296142
0.000573999
0.00114003
0.00167331
0.00216449
0.0026058
0.00299352
0.00332976
0.00362085
0.0038752
0.00410182
0.00430945
0.00450619
0.00469937
0.00489545
0.00509998
0.00531728
0.00555001
0.00579831
0.00605863
0.00632248
0.00657642
0.00680547
0.00029598
0.000476769
0.000988428
0.00152972
0.00205572
0.00253448
0.0029525
0.00331039
0.00361618
0.00388067
0.00411492
0.00432925
0.00453302
0.00473463
0.00494161
0.00516071
0.00539776
0.00565719
0.00594094
0.00624628
0.00656232
0.00686673
0.00713015
8.75271e-05
0.000275069
0.000721656
0.0013056
0.00190238
0.00244188
0.00290203
0.00328653
0.00360864
0.00388338
0.00412472
0.00434493
0.0045547
0.0047635
0.00497997
0.00521225
0.00546807
0.00575473
0.00607819
0.00644027
0.00683132
0.00721535
0.00751877
0.000189421
0.000127552
0.00039739
0.00102121
0.00172207
0.00234216
0.00285123
0.0032632
0.00360055
0.00388409
0.00413109
0.00435572
0.00456988
0.00478396
0.00500754
0.00524997
0.00552105
0.00583166
0.00619445
0.00662324
0.0071257
0.00766591
0.00800212
0.000413181
0.000138771
0.000191591
0.000776409
0.00157521
0.00226869
0.00281654
0.00324788
0.00359506
0.00388388
0.00413409
0.00436113
0.00457763
0.00479451
0.0050219
0.0052699
0.00554968
0.00587496
0.00626519
0.00675257
0.00739975
0.00834759
0.00862526
7.39002e-05
6.86002e-05
6.89658e-05
7.40582e-05
0.000660751
0.000628413
0.000627669
0.000660968
0.00123558
0.00121112
0.001214
0.00124476
0.00169003
0.00167825
0.00168233
0.00170188
0.00205604
0.00205077
0.00205506
0.00206839
0.00236209
0.00236012
0.00236434
0.00237416
0.00262901
0.002629
0.00263283
0.00263971
0.00286759
0.00286877
0.00287189
0.00287641
0.00308264
0.00308453
0.00308704
0.00308984
0.00327788
0.00328017
0.00328216
0.00328361
0.00345599
0.00345831
0.00345971
0.00345996
0.00361896
0.00362101
0.00362168
0.00362078
0.00376817
0.00376977
0.00376965
0.00376766
0.00390462
0.00390573
0.00390487
0.00390194
0.00402918
0.00402989
0.00402845
0.00402479
0.00414277
0.00414325
0.00414145
0.00413732
0.00424635
0.00424682
0.00424493
0.00424064
0.00434098
0.00434169
0.00433999
0.00433585
0.00442781
0.00442902
0.00442782
0.00442416
0.00450811
0.00451013
0.00450973
0.0045069
0.00458335
0.00458648
0.00458723
0.00458558
0.00465515
0.00465975
0.00466201
0.00466192
0.00472536
0.0047318
0.00473597
0.00473782
0.00479594
0.00480465
0.00481114
0.00481536
0.00486901
0.00488042
0.00488967
0.00489669
0.00494669
0.00496127
0.00497373
0.00498399
0.0050311
0.00504933
0.00506545
0.00507939
0.00512428
0.00514662
0.00516686
0.0051849
0.00522811
0.00525505
0.00527985
0.0053024
0.00534436
0.00537636
0.00540614
0.00543358
0.00547468
0.00551218
0.00554734
0.00558
0.00562067
0.00566408
0.00570496
0.00574313
0.00578397
0.0058337
0.00588059
0.00592445
0.00596644
0.00602283
0.00607596
0.00612561
0.00617037
0.00623372
0.00629317
0.00634853
0.0063988
0.00646927
0.00653492
0.00659561
0.00665599
0.00673346
0.00680477
0.00686992
0.00694811
0.00703184
0.00710748
0.00717534
0.00728432
0.00737209
0.00744912
0.00751641
0.00767793
0.00776416
0.00783661
0.00789751
0.00814633
0.00821837
0.00827505
0.0083202
0.00870317
0.0087365
0.00876005
0.00877745
0.000399085
0.000807328
0.00111207
0.00130068
0.001409
0.00146558
0.00148819
0.00148578
0.001461
0.0014145
0.00135444
0.00128781
0.00121215
0.00112561
0.00102125
0.000875881
0.000669117
0.000387666
5.12944e-05
0.000879118
0.00117223
0.00140394
0.00156139
0.00165807
0.00171031
0.00173039
0.00172557
0.00169949
0.00165364
0.0015917
0.00151664
0.00142644
0.00131834
0.00118429
0.00100481
0.000759978
0.000431777
5.385e-05
0.00135027
0.00153627
0.00169956
0.00181879
0.00189505
0.00193625
0.00194957
0.00193945
0.00190919
0.00186099
0.00179627
0.00171322
0.00160962
0.00148169
0.00132182
0.00111303
0.000835018
0.000467383
5.47043e-05
0.00175835
0.00187301
0.0019834
0.00206705
0.00212041
0.002147
0.00215086
0.00213329
0.00209679
0.00204361
0.00197366
0.00188118
0.00176358
0.00161633
0.00143263
0.00119749
0.000888295
0.000484491
5.7405e-05
0.00210226
0.00217302
0.0022469
0.00230206
0.00233465
0.0023462
0.00233971
0.00231428
0.00227018
0.0022077
0.00212584
0.00202391
0.00189249
0.00172048
0.00151124
0.00124862
0.000904575
0.000468015
5.84381e-05
0.00239566
0.00243722
0.00248344
0.00251557
0.00253151
0.00253126
0.00251466
0.00247947
0.00242486
0.0023495
0.00225512
0.00213846
0.00199198
0.00181399
0.00159324
0.0013142
0.000944299
0.000468202
5.99445e-05
0.00265385
0.0026789
0.0027024
0.00271523
0.0027148
0.00270079
0.00267146
0.00262276
0.00255444
0.00246676
0.0023611
0.00223609
0.00208281
0.0018952
0.00166909
0.00138729
0.00102368
0.000563054
0.000292376
0.00288487
0.0028967
0.00290357
0.0029
0.00288447
0.00285676
0.00281332
0.00275026
0.00266769
0.00256686
0.00244971
0.00231356
0.00214788
0.00194861
0.00171186
0.0014226
0.00105319
0.000570454
6.98432e-05
0.00309405
0.003096
0.00309013
0.00307322
0.00304431
0.00300336
0.00294591
0.00286866
0.0027713
0.0026548
0.0025204
0.00236631
0.0021867
0.00197407
0.00172487
0.0014257
0.00105101
0.000566038
6.99939e-05
0.00328448
0.00327881
0.00326316
0.00323531
0.00319482
0.0031413
0.00307071
0.00297985
0.00286786
0.00273492
0.00258112
0.00240511
0.00220515
0.00197723
0.00171296
0.00140255
0.00102605
0.000550955
6.97341e-05
0.00345801
0.00344611
0.00342268
0.00338597
0.00333564
0.00327105
0.00318868
0.00308547
0.00296009
0.00281175
0.00263943
0.00244163
0.00221739
0.00196573
0.001683
0.00136272
0.000988417
0.000535829
6.97358e-05
0.00361633
0.00359928
0.00356952
0.00352565
0.00346723
0.00339331
0.00330093
0.00318722
0.00305029
0.00288851
0.0027001
0.00248298
0.00223527
0.00195703
0.00164987
0.00131262
0.000937805
0.000516395
0.000294874
0.00376102
0.00373979
0.00370499
0.00365548
0.00359061
0.00350919
0.00340873
0.00328654
0.00314026
0.00296766
0.0027663
0.00253344
0.00226646
0.0019647
0.00163143
0.00127103
0.000890173
0.000496154
0.000294771
0.00389346
0.00386893
0.00383033
0.00377658
0.00370684
0.00361976
0.00351318
0.00338455
0.00323131
0.00305082
0.00284014
0.00259602
0.00231526
0.00199595
0.00163979
0.00125406
0.000856911
0.000479998
0.000295068
0.00401489
0.00398792
0.00394664
0.00388996
0.00381683
0.00372589
0.00361512
0.00348214
0.00332435
0.0031389
0.00292258
0.00267181
0.00238286
0.0020526
0.00168054
0.00127262
0.000850887
0.000463227
0.000294014
0.00412652
0.004098
0.00405507
0.00399662
0.00392153
0.00382835
0.00371522
0.00357988
0.00341979
0.00323207
0.00301343
0.00276013
0.0024681
0.00213341
0.00175341
0.00133007
0.000879989
0.000449771
6.89883e-05
0.00422949
0.00420032
0.00415674
0.00409765
0.00402186
0.00392792
0.00381405
0.00367811
0.00351767
0.00332991
0.00311159
0.00285899
0.00256798
0.00223421
0.00185373
0.00142458
0.000952943
0.000470215
0.000292177
0.00432493
0.00429604
0.00425279
0.00419411
0.00411878
0.00402536
0.00391213
0.00377705
0.00361778
0.0034316
0.00321538
0.00296548
0.00267781
0.00234784
0.00197088
0.00154243
0.00105956
0.000528592
7.09052e-05
0.00441407
0.00438635
0.00434439
0.00428712
0.0042133
0.0041215
0.00401002
0.0038769
0.00371986
0.00353627
0.00332304
0.00307655
0.00279258
0.00246621
0.00209167
0.00166191
0.00116775
0.000601656
7.59335e-05
0.00449823
0.0044726
0.00443286
0.00437793
0.00430656
0.0042173
0.00410844
0.00397807
0.00382392
0.00364335
0.00343326
0.00318989
0.00290865
0.00258379
0.00220775
0.00176977
0.00125458
0.000652723
8.03401e-05
0.00457895
0.00455631
0.0045197
0.00446799
0.0043999
0.00431394
0.00420838
0.00408126
0.00393031
0.00375282
0.00354555
0.00330448
0.00302448
0.00269872
0.00231774
0.00186787
0.00133261
0.000695605
8.35164e-05
0.00465797
0.00463923
0.00460662
0.00455897
0.00449491
0.00441288
0.00431111
0.00418758
0.00403991
0.00386529
0.00366028
0.0034205
0.00314022
0.00281161
0.00242374
0.00196199
0.00140564
0.000735076
8.62104e-05
0.00473723
0.00472331
0.00469556
0.00465274
0.00459338
0.00451584
0.00441824
0.00429846
0.00415402
0.00398193
0.00377851
0.00353904
0.00325714
0.00292444
0.00252907
0.00205415
0.00147629
0.000773146
8.89008e-05
0.00481882
0.00481062
0.00478859
0.00475134
0.0046973
0.0046247
0.00453157
0.00441565
0.0042743
0.00410436
0.00390185
0.00366176
0.00337743
0.00303966
0.0026355
0.00214639
0.00154658
0.000811098
9.18864e-05
0.0049049
0.00490336
0.00488785
0.00485687
0.0048087
0.00474147
0.00465305
0.00454104
0.00440261
0.00423444
0.00403233
0.00379095
0.00350316
0.00315915
0.002745
0.00224071
0.00161827
0.000849912
9.53669e-05
0.00499766
0.00500367
0.00499547
0.00497139
0.00492961
0.00486811
0.00478462
0.00467658
0.00454101
0.00437433
0.00417208
0.00392861
0.00363635
0.00328492
0.00285958
0.00233898
0.00169293
0.000890607
9.93142e-05
0.00509922
0.00511363
0.00511345
0.00509688
0.00506195
0.00500651
0.00492818
0.00482421
0.00469142
0.00452596
0.00432311
0.00407683
0.00377914
0.00341913
0.00298128
0.00244302
0.00177203
0.000934183
0.00010361
0.00521157
0.00523517
0.00524367
0.00523511
0.00520742
0.00515836
0.00508539
0.0049856
0.00485559
0.00469122
0.00448741
0.00423772
0.00393372
0.00356394
0.00311214
0.00255459
0.0018569
0.000981378
0.000108219
0.00533652
0.00537002
0.00538772
0.00538757
0.00536746
0.00532502
0.00525764
0.00516222
0.00503511
0.00487184
0.00466692
0.00441341
0.00410235
0.00372164
0.0032543
0.0026755
0.00194883
0.00103289
0.000113099
0.00547572
0.00551968
0.00554697
0.00555552
0.00554318
0.00550759
0.00544602
0.00535524
0.00523131
0.00506939
0.00486348
0.00460602
0.00428735
0.00389464
0.00341008
0.00280773
0.00204918
0.00108927
0.00011841
0.00563061
0.00568543
0.00572253
0.00573988
0.00573541
0.00570679
0.00565129
0.00556552
0.00544528
0.00528526
0.00507884
0.0048177
0.00449124
0.00408567
0.00358215
0.00295355
0.0021595
0.00115097
0.000124503
0.00580256
0.00586842
0.00591528
0.0059413
0.00594461
0.00592302
0.00587383
0.00579357
0.00567775
0.00552058
0.00531466
0.00505066
0.00471678
0.00429786
0.00377373
0.00311585
0.00228188
0.00121902
0.000131579
0.0059929
0.00606965
0.00612591
0.00616019
0.00617094
0.00615627
0.00611363
0.00603951
0.00592915
0.00577621
0.00557242
0.00530718
0.00496704
0.00453497
0.00398884
0.00329834
0.00241919
0.00129514
0.000139654
0.00620301
0.0062901
0.00635495
0.00639667
0.00641424
0.00640621
0.00637028
0.00630301
0.00619943
0.00605265
0.00585341
0.00558956
0.00524551
0.00480156
0.00423271
0.00350606
0.00257527
0.00138144
0.000148762
0.00643446
0.00653072
0.00660278
0.00665063
0.00667402
0.00667208
0.00664292
0.00658327
0.00648806
0.0063499
0.00615852
0.0059
0.00555606
0.00510328
0.00451229
0.00374606
0.00275555
0.00148046
0.000159122
0.0066891
0.00679253
0.00686965
0.0069217
0.00694944
0.00695275
0.00693024
0.00687896
0.00679387
0.0066673
0.00648804
0.00624037
0.0059028
0.00544702
0.00483703
0.00402874
0.00296842
0.00159608
0.000171046
0.00696911
0.00707647
0.00715555
0.0072092
0.00723935
0.0072467
0.00723048
0.00718816
0.00711499
0.00700327
0.00684126
0.00661167
0.00628968
0.00584088
0.00521971
0.00436993
0.00322788
0.00173496
0.000184972
0.00727687
0.00738333
0.00746016
0.00751209
0.00754223
0.00755208
0.00754148
0.00750845
0.00744877
0.00735517
0.00721604
0.0070133
0.00671946
0.00629354
0.00567725
0.00479417
0.00355874
0.00190964
0.000201727
0.00761463
0.00771328
0.00778251
0.00782882
0.00785622
0.00786677
0.00786082
0.00783698
0.00779184
0.00771911
0.00760826
0.00744198
0.00719198
0.00681234
0.00623049
0.00533957
0.00400764
0.00214771
0.000222796
0.00798342
0.00806519
0.0081207
0.00815729
0.00817918
0.00818855
0.008186
0.00817074
0.00814033
0.00809005
0.00801157
0.00789048
0.00770137
0.00739875
0.0069005
0.00606307
0.00466714
0.00252029
0.000250812
0.00838114
0.00843573
0.00847154
0.0084948
0.00850883
0.00851529
0.00851476
0.0085069
0.00849033
0.00846225
0.00841754
0.00834689
0.00823271
0.00804009
0.00769557
0.00703835
0.00572801
0.00324471
0.000290307
0.00879968
0.00881849
0.00883052
0.00883828
0.008843
0.00884531
0.00884544
0.00884332
0.00883854
0.00883028
0.00881694
0.00879558
0.00876033
0.00869853
0.00857883
0.0083095
0.00757123
0.0052035
0.000343553
)
;

boundaryField
{
    leftWall
    {
        type            nutkWallFunction;
        Cmu             0.09;
        kappa           0.41;
        E               9.8;
        value           nonuniform List<scalar> 
50
(
1.68656e-06
2.72707e-06
3.3355e-06
3.77844e-06
4.12636e-06
4.41726e-06
4.67305e-06
4.90704e-06
5.22587e-06
5.62982e-06
6.06997e-06
1.75256e-06
2.59506e-06
1.40383e-06
0
3.14794e-09
0
3.6495e-09
0
0
0
0
1.5625e-09
7.66862e-09
0
7.76265e-09
0
0
0
2.21575e-10
0
8.38132e-09
0
3.45767e-09
0
0
7.24713e-09
6.51773e-09
0
2.65497e-09
0
0
0
1.32565e-08
0
6.04648e-09
3.37482e-09
2.87758e-06
1.82996e-05
4.87346e-05
)
;
    }
    rightWall
    {
        type            nutkWallFunction;
        Cmu             0.09;
        kappa           0.41;
        E               9.8;
        value           nonuniform List<scalar> 
50
(
2.06764e-06
2.95058e-06
3.57337e-06
4.10665e-06
4.57972e-06
5.00466e-06
5.39568e-06
5.79608e-06
6.21433e-06
6.52138e-06
6.6254e-06
2.70601e-06
2.77132e-06
1.42354e-06
0
2.95554e-09
1.09723e-08
0
0
0
0
0
0
0
3.59767e-09
3.00291e-07
1.01637e-06
1.71947e-06
2.23746e-06
2.67333e-06
3.10613e-06
3.59461e-06
4.16162e-06
4.78689e-06
5.46356e-06
6.1816e-06
6.92192e-06
7.74283e-06
8.68954e-06
9.77855e-06
1.09983e-05
1.23619e-05
1.3899e-05
1.56506e-05
1.7663e-05
2.007e-05
2.30634e-05
2.69822e-05
3.24095e-05
3.95763e-05
)
;
    }
    lowerWall
    {
        type            nutkWallFunction;
        Cmu             0.09;
        kappa           0.41;
        E               9.8;
        value           nonuniform List<scalar> 
62
(
4.52821e-07
1.12754e-06
1.49755e-06
1.74006e-06
1.91856e-06
2.05753e-06
2.16893e-06
2.25956e-06
2.33381e-06
2.39514e-06
2.447e-06
2.49276e-06
2.53367e-06
2.56681e-06
2.58246e-06
2.55926e-06
2.47128e-06
2.33986e-06
2.16548e-06
1.97642e-06
1.79175e-06
1.48072e-06
8.49693e-07
8.49693e-07
3.82064e-06
4.56928e-06
5.20712e-06
5.81655e-06
6.47636e-06
7.31407e-06
8.60503e-06
8.88376e-06
8.26696e-06
8.31351e-06
8.90942e-06
1.02429e-06
4.3136e-06
4.77537e-06
5.26721e-06
5.8478e-06
6.54635e-06
7.49521e-06
9.1208e-06
1.02429e-06
1.8368e-06
2.20087e-06
2.35732e-06
2.44503e-06
2.48625e-06
2.51423e-06
2.52411e-06
2.47199e-06
2.32436e-06
2.12028e-06
1.89481e-06
1.73272e-06
1.75149e-06
1.78151e-06
1.72488e-06
1.4607e-06
1.13504e-06
5.17351e-07
)
;
    }
    atmosphere
    {
        type            calculated;
        value           nonuniform List<scalar> 
46
(
0.009
0.000138771
0.000191591
0.000776409
0.00157521
0.00226869
0.00281654
0.00324788
0.00359506
0.00388388
0.00413409
0.00436113
0.00457763
0.00479451
0.0050219
0.0052699
0.00554968
0.00587496
0.00626519
0.00675257
0.00739975
0.009
0.009
0.009
0.009
0.009
0.009
0.009
0.009
0.009
0.009
0.009
0.009
0.009
0.009
0.009
0.009
0.009
0.009
0.009
0.009
0.009
0.009
0.009
0.009
0.000343553
)
;
    }
    defaultFaces
    {
        type            empty;
    }
}


// ************************************************************************* //
