/*--------------------------------*- C++ -*----------------------------------*\
  =========                 |
  \\      /  F ield         | OpenFOAM: The Open Source CFD Toolbox
   \\    /   O peration     | Website:  https://openfoam.org
    \\  /    A nd           | Version:  9
     \\/     M anipulation  |
\*---------------------------------------------------------------------------*/
FoamFile
{
    format      ascii;
    class       volScalarField;
    location    "4.21";
    object      epsilon;
}
// * * * * * * * * * * * * * * * * * * * * * * * * * * * * * * * * * * * * * //

dimensions      [0 2 -3 0 0 0 0];

internalField   nonuniform List<scalar> 
2268
(
0.00108476
0.00546959
0.0094072
0.0128685
0.0158828
0.0185032
0.0207801
0.0227658
0.0245126
0.0260773
0.0274925
0.0287856
0.0299649
0.0310687
0.0319225
0.0321624
0.0306927
0.0275324
0.0240607
0.021637
0.0182354
0.0115315
0.00235932
0.00218707
0.00374751
0.00545323
0.00701352
0.00838604
0.00957722
0.0106057
0.0114939
0.012265
0.0129411
0.0135364
0.0140589
0.0145158
0.0149094
0.0151686
0.0151789
0.0147244
0.0139744
0.0129023
0.0115973
0.00990591
0.0074324
0.00454049
0.00367294
0.00399005
0.00512914
0.00625746
0.00727138
0.00815441
0.00891377
0.00956437
0.0101233
0.0106066
0.0110269
0.0113919
0.011706
0.0119645
0.0121278
0.0121353
0.0119083
0.0115145
0.0109305
0.0101842
0.00926205
0.00803572
0.00766398
0.00511512
0.00446663
0.00527575
0.00618186
0.00702171
0.00775998
0.00839553
0.00893867
0.00940333
0.0098034
0.0101505
0.0104525
0.0107132
0.0109275
0.0110725
0.0111118
0.0110094
0.0107954
0.0104821
0.0101164
0.00975069
0.00940331
0.0110414
0.00647807
0.00500891
0.00557017
0.0063226
0.00704753
0.00769334
0.00825187
0.00872983
0.0091389
0.00949161
0.0097991
0.0100695
0.0103069
0.0105085
0.0106605
0.0107421
0.0107351
0.0106591
0.0105561
0.0105077
0.010646
0.0111863
0.0149171
0.00777174
0.00557664
0.0059333
0.00656513
0.00720243
0.00777928
0.0082817
0.0087133
0.00908396
0.00940527
0.00968815
0.00994112
0.0101694
0.0103725
0.0105435
0.0106706
0.010746
0.0107904
0.0108677
0.0111015
0.0117352
0.0133521
0.0199282
0.00901459
0.0061583
0.00633718
0.00686798
0.00743285
0.00795327
0.00841037
0.00880519
0.00914609
0.00944396
0.00970979
0.00995267
0.0101791
0.0103912
0.0105863
0.0107593
0.0109093
0.0110616
0.0112953
0.0117742
0.0128773
0.0158629
0.0282642
0.0102528
0.00675436
0.00677082
0.00721322
0.00771499
0.00818609
0.00860372
0.00896676
0.00928226
0.00956059
0.0098131
0.0100497
0.0102781
0.0105028
0.0107246
0.0109423
0.0111606
0.0114092
0.0117749
0.0124465
0.0139072
0.0182841
0.047654
0.00171165
0.00911308
0.0146112
0.0174717
0.0187065
0.0190206
0.0188022
0.0185992
0.0188564
0.0192094
0.0171531
0.0139498
0.0128574
0.0157026
0.0195077
0.0186611
0.0150163
0.00867609
0.0030445
0.00252577
0.00552465
0.00759532
0.00874835
0.00929495
0.00947946
0.00943657
0.00929958
0.00918909
0.00910172
0.00851819
0.00785951
0.00744329
0.00775124
0.00832476
0.00788172
0.00669157
0.00517031
0.00341756
0.00449122
0.00573788
0.00685678
0.00747809
0.00776988
0.00784759
0.00779178
0.00766936
0.00752734
0.00735287
0.00698733
0.00663575
0.00638349
0.00641854
0.00647602
0.00607541
0.00525158
0.00437481
0.00428684
0.00688789
0.00664505
0.00706364
0.00730615
0.00740275
0.00738617
0.00729266
0.0071566
0.00699419
0.00678805
0.00649426
0.00625118
0.00609349
0.00604483
0.00592822
0.00550486
0.00478583
0.00412598
0.00469747
0.00991378
0.00790736
0.0076021
0.00749474
0.00741435
0.00730704
0.00716701
0.00700456
0.00682052
0.00659736
0.00633957
0.00615931
0.0060538
0.00596768
0.00578033
0.00532589
0.00463713
0.00408014
0.00477095
0.0143332
0.00943546
0.00828559
0.00784024
0.00759648
0.0074026
0.007213
0.00701839
0.00681069
0.00657557
0.00633924
0.00619277
0.00610949
0.00600898
0.00579493
0.0053178
0.00462849
0.00413524
0.00490166
0.0219242
0.0111534
0.00900907
0.00825298
0.00786492
0.0075919
0.00735363
0.00712498
0.00689244
0.00664675
0.00642155
0.00628475
0.00620341
0.00609977
0.00588258
0.00539465
0.00469285
0.00422062
0.00505737
0.0391367
0.0127615
0.00967427
0.00868107
0.00817672
0.00783559
0.00755262
0.00729053
0.00703277
0.00677566
0.0065523
0.00640949
0.00631764
0.00621405
0.00600522
0.00551968
0.0048056
0.00433815
0.00520289
0.0120097
0.0076532
0.00746077
0.00779002
0.00820842
0.00861229
0.00897532
0.00929413
0.00957398
0.00982476
0.0100589
0.010288
0.0105222
0.0107692
0.0110335
0.0113189
0.0116355
0.0120165
0.0125486
0.0134175
0.0150547
0.0186456
0.027857
0.0141469
0.00885765
0.00846319
0.00868342
0.00901023
0.0093321
0.00962563
0.00988673
0.0101173
0.0103265
0.010531
0.010746
0.0109856
0.0112608
0.011579
0.011946
0.0123704
0.0128767
0.0135234
0.0144219
0.0157733
0.0178571
0.0208949
0.0159929
0.0100875
0.00954192
0.00969634
0.00994351
0.010178
0.0103954
0.0105939
0.0107635
0.0109116
0.0110679
0.0112558
0.011491
0.0117868
0.012153
0.0125957
0.0131145
0.0137138
0.0144221
0.0152824
0.016368
0.0176778
0.0189124
0.017965
0.0113144
0.0106861
0.0108533
0.0110273
0.0111531
0.0112798
0.0114116
0.0115034
0.0115529
0.011632
0.0117755
0.0119949
0.0123004
0.0127021
0.0132125
0.0138306
0.0145125
0.0152667
0.0160923
0.0170573
0.0181792
0.019163
0.0200135
0.0123534
0.0117968
0.011982
0.0117962
0.0118049
0.0119106
0.0120441
0.0121263
0.0121315
0.0121545
0.0122613
0.0124669
0.012779
0.0131996
0.0137247
0.0143576
0.0150638
0.0157781
0.0165078
0.0173785
0.0184725
0.0193491
0.0220672
0.0129803
0.0123134
0.0124533
0.0122155
0.0123064
0.0124574
0.0124726
0.0124841
0.0124802
0.0125053
0.0126262
0.0128526
0.0132007
0.0136769
0.0142483
0.0149637
0.015762
0.0163958
0.016877
0.0175277
0.0182289
0.0188405
0.0237102
0.0132002
0.0124662
0.0124442
0.0123675
0.0123816
0.0124839
0.0125222
0.0126005
0.012676
0.0127518
0.0128904
0.0131137
0.0134441
0.0138995
0.0144352
0.0151116
0.0158849
0.0163824
0.0168121
0.0173588
0.0180476
0.0189277
0.0228344
0.0130891
0.0124591
0.0126063
0.0124683
0.0123861
0.0124284
0.012518
0.0126237
0.0127143
0.0128224
0.0129647
0.0131566
0.0134337
0.013818
0.0142856
0.0148057
0.0153634
0.0158282
0.0163676
0.0170042
0.0176578
0.0181672
0.0201534
0.012614
0.012082
0.0121791
0.0121977
0.0122432
0.0123225
0.0124076
0.0124866
0.0125771
0.0126978
0.0128492
0.0130366
0.0132804
0.0135935
0.0139652
0.0143662
0.0147776
0.0151854
0.0156643
0.016204
0.0166068
0.0166741
0.0190697
0.0123565
0.0117441
0.0117628
0.0118767
0.0120085
0.0121297
0.0122247
0.0123079
0.0124051
0.0125294
0.0126814
0.0128628
0.0130811
0.013341
0.0136351
0.0139452
0.0142482
0.0145459
0.0148607
0.0151782
0.0153741
0.015318
0.0195133
0.0123792
0.0115659
0.0115009
0.0116121
0.0117597
0.0118958
0.0120069
0.0121058
0.0122138
0.0123407
0.0124885
0.0126577
0.0128503
0.0130663
0.0132991
0.013535
0.0137565
0.0139587
0.0141432
0.0142955
0.0143633
0.0142872
0.0206947
0.0125672
0.0115133
0.0113419
0.0114009
0.0115238
0.0116525
0.0117705
0.0118827
0.0120008
0.0121302
0.0122725
0.0124278
0.0125962
0.0127757
0.0129599
0.0131384
0.0132986
0.0134326
0.0135347
0.0135946
0.013591
0.0135024
0.0222362
0.0128429
0.011529
0.0112365
0.0112249
0.0113067
0.011416
0.0115308
0.0116487
0.0117717
0.0119012
0.0120372
0.0121795
0.0123268
0.0124764
0.012623
0.0127584
0.0128733
0.0129598
0.0130113
0.0130212
0.01298
0.01288
0.0239298
0.0131794
0.0115747
0.0111539
0.0110678
0.0111046
0.0111897
0.0112952
0.0114106
0.0115324
0.0116586
0.0117876
0.0119177
0.0120472
0.0121732
0.012291
0.0123944
0.0124764
0.0125305
0.0125515
0.0125346
0.0124753
0.0123701
0.025339
0.0134798
0.0116124
0.0110714
0.0109151
0.0109091
0.0109694
0.0110612
0.0111691
0.0112855
0.0114059
0.011527
0.0116463
0.0117612
0.0118689
0.0119653
0.0120458
0.0121052
0.0121387
0.0121424
0.012113
0.0120479
0.011945
0.0263014
0.0136809
0.0116119
0.0109715
0.0107556
0.0107116
0.0107479
0.0108247
0.0109229
0.0110319
0.0111454
0.0112588
0.0113688
0.0114725
0.0115669
0.0116488
0.0117145
0.0117603
0.0117827
0.011779
0.0117469
0.0116844
0.0115899
0.0268955
0.013771
0.0115591
0.0108444
0.0105812
0.0105056
0.0105207
0.0105833
0.0106715
0.0107729
0.0108798
0.0109869
0.0110901
0.0111864
0.0112728
0.0113466
0.011405
0.0114451
0.0114647
0.0114615
0.0114337
0.0113798
0.0112982
0.0272152
0.0137549
0.0114509
0.0106854
0.0103877
0.0102878
0.0102859
0.0103366
0.0104163
0.0105114
0.0106135
0.0107166
0.0108163
0.0109095
0.0109933
0.0110653
0.0111232
0.0111649
0.0111884
0.011192
0.0111741
0.0111331
0.0110676
0.02726
0.0136419
0.0112895
0.0104939
0.0101741
0.0100576
0.0100437
0.0100859
0.0101599
0.0102514
0.0103515
0.0104539
0.0105542
0.0106491
0.0107357
0.0108119
0.0108756
0.0109249
0.0109581
0.0109737
0.01097
0.0109453
0.0108981
0.0270418
0.0134419
0.0110792
0.0102717
0.00994097
0.00981572
0.00979531
0.00983343
0.0099055
0.00999708
0.010099
0.0102049
0.0103102
0.0104117
0.0105066
0.0105925
0.0106677
0.0107301
0.0107781
0.01081
0.010824
0.0108183
0.0107915
0.0265881
0.0131652
0.0108252
0.0100216
0.00969024
0.00956368
0.00954277
0.0095818
0.00965646
0.00975244
0.00986056
0.00997456
0.0100899
0.0102032
0.0103116
0.0104127
0.0105046
0.0105851
0.0106524
0.0107045
0.0107395
0.0107554
0.0107507
0.0259341
0.0128221
0.0105329
0.00974697
0.00942431
0.00930365
0.00928825
0.00933353
0.00941579
0.00952105
0.00964035
0.00976751
0.00989803
0.0100284
0.0101557
0.0102773
0.010391
0.0104945
0.0105854
0.0106617
0.0107209
0.0107612
0.0107806
0.0251116
0.0124218
0.0102077
0.00945153
0.00914603
0.00903814
0.00903424
0.00909128
0.00918643
0.0093062
0.00944194
0.00958761
0.00973873
0.00989168
0.0100434
0.010191
0.0103318
0.0104632
0.0105825
0.010687
0.0107742
0.0108419
0.0108879
0.0241473
0.011973
0.00985465
0.00913914
0.00885864
0.00877005
0.00878354
0.00885793
0.00897141
0.00911114
0.00926884
0.00943865
0.00961613
0.00979753
0.00997953
0.0101589
0.0103326
0.0104974
0.0106502
0.0107879
0.0109074
0.0110063
0.0110821
0.0230672
0.0114836
0.0094792
0.00881411
0.00856592
0.00850288
0.00853951
0.00863679
0.00877413
0.00893944
0.00912485
0.00932477
0.00953475
0.00975094
0.00996971
0.0101875
0.0104005
0.0106052
0.0107976
0.0109741
0.0111311
0.0112657
0.0113754
0.0218933
0.0109612
0.00908707
0.00848149
0.00827244
0.00824087
0.00830623
0.00843189
0.00859865
0.00879527
0.00901441
0.00925076
0.00949994
0.00975795
0.0100208
0.0102845
0.0105447
0.0107968
0.0110362
0.0112583
0.0114593
0.0116353
0.0117838
0.0206351
0.0104135
0.00868533
0.00814756
0.00798386
0.0079893
0.00808869
0.00824808
0.00844981
0.00868361
0.0089428
0.00922241
0.00951819
0.00982603
0.0101416
0.0104602
0.0107767
0.0110855
0.0113809
0.0116575
0.0119103
0.012135
0.0123283
0.0192968
0.00985363
0.00828418
0.00782054
0.0077073
0.00775463
0.007893
0.00809125
0.00833342
0.00861037
0.00891623
0.00924655
0.00959729
0.00996425
0.0103427
0.0107271
0.0111114
0.0114885
0.0118514
0.0121932
0.0125077
0.0127898
0.0130356
0.0179696
0.00931375
0.00789868
0.00751085
0.00745146
0.00754472
0.00772648
0.00796837
0.00825626
0.00858238
0.00894191
0.00933113
0.0097464
0.0101835
0.0106371
0.0111009
0.0115673
0.0120274
0.0124722
0.0128929
0.0132817
0.0136321
0.0139394
0.016792
0.00882294
0.00754446
0.0072302
0.00722652
0.00736888
0.00759776
0.00788751
0.00822605
0.0086073
0.00902785
0.00948508
0.00997598
0.0104964
0.0110406
0.0116009
0.0121677
0.0127296
0.0132748
0.0137918
0.0142704
0.0147024
0.0150822
0.0157186
0.00837196
0.00722767
0.00698869
0.00704344
0.00723785
0.00751693
0.007858
0.00825147
0.00869352
0.00918271
0.00971803
0.0102975
0.0109174
0.0115712
0.0122497
0.0129406
0.0136289
0.0142987
0.0149344
0.0155224
0.0160525
0.0165179
0.0147771
0.00797438
0.00696165
0.00680024
0.00691592
0.00716442
0.00749545
0.00788991
0.00834145
0.00884934
0.00941493
0.0100396
0.010723
0.011462
0.0122498
0.0130747
0.0139209
0.014768
0.0155941
0.0163775
0.0171
0.0177481
0.0183141
0.0139919
0.00765236
0.00676669
0.00668445
0.0068623
0.00716484
0.00754707
0.00799448
0.00850515
0.00908259
0.00973208
0.0104583
0.0112637
0.0121465
0.0130991
0.0141072
0.01515
0.0161992
0.0172237
0.018193
0.0190815
0.0198718
0.0205554
0.0133697
0.00743148
0.00667046
0.00666848
0.0069071
0.00725966
0.00768787
0.0081836
0.00875104
0.00939947
0.0101395
0.0109805
0.011929
0.0129853
0.0141422
0.0153818
0.0166759
0.0179854
0.0192652
0.0204709
0.021566
0.0225277
0.0233473
0.0129042
0.00734406
0.00671277
0.006791
0.00708343
0.00747452
0.00793591
0.00846869
0.00908536
0.00980264
0.010638
0.0116074
0.0127227
0.0139887
0.015399
0.0169324
0.0185505
0.0201992
0.0218123
0.0233232
0.0246781
0.0258462
0.0268212
0.0125882
0.00744285
0.00695641
0.00710899
0.00743587
0.0078402
0.00830962
0.0088584
0.00950958
0.0102887
0.0112213
0.0123316
0.0136396
0.0151566
0.0168797
0.018785
0.0208227
0.0229183
0.0249742
0.0268875
0.0285737
0.0299909
0.0311398
0.0124368
0.00782827
0.00750615
0.00770719
0.00802241
0.00839026
0.00882384
0.00935451
0.0100167
0.0108446
0.0118724
0.0131337
0.0146593
0.016471
0.0185739
0.020945
0.0235247
0.026214
0.0288717
0.0313322
0.0334504
0.0351682
0.0365056
0.0125492
0.00870879
0.00854391
0.00870956
0.00891191
0.00915323
0.00948168
0.00994538
0.0105864
0.0114444
0.0125601
0.0139771
0.0157397
0.0178856
0.0204347
0.0233746
0.0266457
0.0301296
0.0336311
0.0368722
0.0395691
0.0416444
0.0431717
0.0134918
0.0106297
0.0104176
0.0102929
0.0101698
0.0101344
0.0102606
0.0105973
0.0111805
0.0120461
0.0132369
0.0148054
0.0168114
0.0193141
0.0223591
0.0259618
0.0300909
0.034641
0.0393749
0.0438145
0.0473023
0.0497767
0.0514576
0.0227235
0.0159891
0.0139694
0.0127051
0.0118177
0.0112813
0.011093
0.0112457
0.0117399
0.0125924
0.0138408
0.0155437
0.0177769
0.0206256
0.0241725
0.0284877
0.0336223
0.0395817
0.0461936
0.0526942
0.0572358
0.0600563
0.0617647
0.160411
0.0401948
0.0216684
0.0162206
0.0137246
0.0124281
0.0118464
0.0117923
0.0121879
0.0130157
0.0143016
0.0161065
0.01852
0.0216529
0.0256312
0.0306041
0.0367797
0.0444698
0.0539797
0.064677
0.070342
0.0731377
0.0745709
1.53868
0.148944
0.0370725
0.0202535
0.015316
0.0132314
0.0123232
0.0121167
0.0124426
0.0132501
0.0145536
0.0164138
0.0189282
0.0222246
0.0264616
0.0318597
0.0388056
0.0481032
0.0615005
0.0828806
0.0881181
0.0897405
0.0903674
0.0582895
0.0491549
0.0506801
0.0621401
0.0235777
0.0233968
0.0227917
0.0216321
0.0190888
0.0187958
0.0181868
0.0172911
0.0184904
0.017982
0.0174196
0.0167699
0.0187048
0.018151
0.0176415
0.0169617
0.0187424
0.0181602
0.0176683
0.0169892
0.018465
0.0179292
0.0175245
0.0168502
0.0175496
0.0170576
0.0166388
0.0161575
0.0162582
0.0159548
0.0156677
0.0153836
0.0150849
0.0149169
0.0147404
0.0145492
0.0141359
0.0140206
0.0138879
0.0137353
0.0133752
0.013277
0.013162
0.0130297
0.01276
0.0126693
0.0125648
0.0124463
0.0122558
0.0121715
0.0120759
0.0119693
0.0118388
0.0117617
0.0116754
0.0115799
0.0114946
0.0114258
0.0113493
0.0112651
0.0112159
0.0111564
0.0110902
0.0110172
0.0109996
0.01095
0.0108943
0.0108325
0.0108454
0.010806
0.010761
0.0107102
0.0107547
0.0107259
0.0106916
0.0106519
0.0107307
0.0107127
0.0106894
0.0106607
0.0107784
0.0107718
0.0107597
0.0107423
0.0109049
0.0109104
0.0109102
0.0109044
0.0111201
0.0111386
0.0111513
0.0111578
0.0114366
0.0114697
0.0114962
0.0115163
0.0118713
0.0119206
0.0119627
0.0119976
0.012446
0.0125136
0.0125733
0.0126248
0.0131879
0.0132767
0.0133563
0.0134265
0.0141318
0.0142449
0.0143472
0.0144388
0.0153212
0.0154622
0.0155906
0.0157064
0.0168106
0.0169838
0.0171416
0.0172845
0.0186684
0.0188778
0.0190686
0.0192413
0.0209793
0.0212289
0.0214558
0.0216606
0.0238482
0.0241414
0.0244064
0.0246444
0.0274047
0.0277433
0.0280466
0.0283171
0.0318082
0.032191
0.0325299
0.032829
0.0372542
0.0376756
0.0380429
0.0383625
0.0439835
0.0444301
0.0448115
0.0451374
0.0522924
0.0527382
0.0531092
0.0534193
0.062542
0.062942
0.0632648
0.0635276
0.0751549
0.0754426
0.0756668
0.0758445
0.0905872
0.0906898
0.0907669
0.0908265
0.0215104
0.0131242
0.0104736
0.00932606
0.00869325
0.00826658
0.00792375
0.00761361
0.00731683
0.00703778
0.00680331
0.00663695
0.00652083
0.0064124
0.00621379
0.00574148
0.00502559
0.00460812
0.00536222
0.0167579
0.0130983
0.0111825
0.0100911
0.00939861
0.00891023
0.00851608
0.00815795
0.00781258
0.00749127
0.00721955
0.00701946
0.00688644
0.00678112
0.00659832
0.00617222
0.00548464
0.00503111
0.00543429
0.0154778
0.0133284
0.0118468
0.0108324
0.0101086
0.00958599
0.00915509
0.00875497
0.00836001
0.00798334
0.00766793
0.00744784
0.00732461
0.00725625
0.00714044
0.00681804
0.00626969
0.00600774
0.00682292
0.0155782
0.0139183
0.0126429
0.0116536
0.0108521
0.0103165
0.00984838
0.00938679
0.00892314
0.00848199
0.00812176
0.00789207
0.00780985
0.0078531
0.00795818
0.00783803
0.00739819
0.00771892
0.0105633
0.0157406
0.0143317
0.0133223
0.012461
0.0115674
0.0110118
0.0104358
0.00983062
0.00928748
0.00882465
0.00846797
0.00824335
0.00817293
0.00829435
0.00852871
0.00886334
0.00822645
0.00842686
0.0125584
0.0157829
0.0144871
0.0135115
0.012699
0.0119174
0.0113352
0.0107193
0.010053
0.00944682
0.00894188
0.00856501
0.00832183
0.00822378
0.00827953
0.00840932
0.00877568
0.00853854
0.00903376
0.0147462
0.0156899
0.0144748
0.0135304
0.0127577
0.0119903
0.0114138
0.0108112
0.0101471
0.00952567
0.00900627
0.00861076
0.0083225
0.00812512
0.00804759
0.00813265
0.0083038
0.00828937
0.00889779
0.0167893
0.0153522
0.014302
0.0133927
0.0126416
0.0119389
0.0113305
0.0107315
0.0101286
0.00954201
0.00901999
0.00859429
0.00825663
0.00798799
0.00784985
0.00789186
0.00805182
0.00801436
0.00863225
0.0171561
0.0148572
0.013999
0.0131601
0.0124152
0.0117301
0.0111146
0.010551
0.0100155
0.00948569
0.00897655
0.00852196
0.00813722
0.00781497
0.00758772
0.00748689
0.00754168
0.00751642
0.00791563
0.0144832
0.0141751
0.0134967
0.0127747
0.0120803
0.0114264
0.0108388
0.0103113
0.00982614
0.0093477
0.00885848
0.00839642
0.007989
0.0076262
0.00732601
0.00711603
0.00704248
0.00692538
0.00700798
0.0115208
0.0134418
0.0129018
0.0122999
0.0116881
0.0110965
0.0105524
0.0100586
0.00960843
0.0091664
0.00870168
0.00825338
0.00783136
0.00742771
0.00707789
0.00680461
0.00661214
0.00638509
0.00624831
0.00900369
0.012781
0.0123362
0.0118329
0.0113057
0.0107817
0.0102853
0.00982538
0.00940064
0.00898198
0.00854459
0.00810926
0.0076738
0.00725466
0.0068868
0.00657558
0.00630835
0.00604378
0.00590863
0.00774686
0.0122281
0.0118501
0.011422
0.0109661
0.010503
0.0100524
0.00962444
0.00921992
0.00881938
0.00840404
0.00798073
0.00756076
0.00716383
0.00680875
0.00649794
0.00623263
0.00604525
0.00614059
0.00805693
0.0117756
0.0114483
0.0110782
0.0106801
0.010269
0.00985991
0.00946184
0.00907586
0.00869182
0.00829978
0.00790482
0.0075234
0.00716862
0.00685013
0.00657737
0.00638091
0.00636072
0.00681801
0.00944573
0.0114082
0.0111219
0.0107988
0.0104487
0.0100828
0.00971201
0.00934341
0.00897873
0.00861531
0.00825135
0.00789236
0.00755237
0.00724384
0.00697393
0.00675965
0.00665605
0.00680383
0.00761065
0.0112305
0.0111139
0.0108633
0.01058
0.0102712
0.0099453
0.00961025
0.00927153
0.00893199
0.00859342
0.00825856
0.0079336
0.00762981
0.00736038
0.0071376
0.00698552
0.0069678
0.00724949
0.00836566
0.0132586
0.0108858
0.0106675
0.0104193
0.0101469
0.00985674
0.00955474
0.00924554
0.00893275
0.00862034
0.00831316
0.00801799
0.00774492
0.00750771
0.00732381
0.0072235
0.00727543
0.00766254
0.00904321
0.0154346
0.0107204
0.010532
0.0103157
0.0100759
0.00981769
0.00954585
0.0092646
0.00897797
0.00869078
0.00840886
0.00813936
0.0078923
0.00768199
0.00752905
0.00746861
0.00757546
0.00804953
0.00964734
0.0176372
0.010617
0.0104568
0.0102697
0.0100593
0.00982977
0.00958518
0.00932953
0.00906705
0.00880284
0.00854316
0.00829545
0.00807005
0.0078819
0.00775373
0.00772493
0.00787825
0.00843736
0.0102549
0.0199585
0.0105771
0.0104436
0.0102836
0.0101
0.00989629
0.00967616
0.00944343
0.00920239
0.00895825
0.00871741
0.00848753
0.00827948
0.00810895
0.0080005
0.00799783
0.00819231
0.00882689
0.0108412
0.0220547
0.0106042
0.0104964
0.0103618
0.0102029
0.0100227
0.00982442
0.0096119
0.0093894
0.00916218
0.00893641
0.00872025
0.00852519
0.00836766
0.00827379
0.0082902
0.00851394
0.00919983
0.0113351
0.023459
0.0107041
0.0106216
0.0105113
0.0103755
0.0102167
0.0100381
0.00984321
0.00963639
0.00942258
0.0092083
0.00900202
0.00881542
0.00866564
0.00857997
0.00860679
0.00884574
0.00955473
0.0117312
0.0241595
0.0108852
0.010828
0.0107415
0.0106276
0.0104888
0.0103279
0.0101485
0.00995454
0.00975117
0.0095449
0.00934433
0.00916138
0.00901366
0.0089292
0.00895734
0.00919843
0.00990916
0.0120812
0.0245294
0.0111587
0.0111275
0.0110648
0.0109724
0.0108525
0.0107079
0.0105418
0.0103584
0.0101627
0.00996102
0.00976208
0.00957789
0.00942636
0.00933602
0.00935692
0.00959007
0.0102923
0.0124533
0.0248761
0.0115388
0.0115351
0.0114969
0.0114259
0.0113243
0.0111948
0.0110408
0.010866
0.0106754
0.0104753
0.010274
0.0100838
0.00992262
0.00981954
0.00982555
0.0100438
0.0107369
0.01291
0.0253724
0.0120439
0.0120696
0.0120571
0.0120081
0.0119249
0.0118102
0.0116672
0.0114995
0.011312
0.0111105
0.0109034
0.0107026
0.0105262
0.0104039
0.0103883
0.0105873
0.0112784
0.0135338
0.0263591
0.0126974
0.0127552
0.0127702
0.0127443
0.0126801
0.0125801
0.0124476
0.0122861
0.0120999
0.0118949
0.0116788
0.0114634
0.0112668
0.0111194
0.0110764
0.0112525
0.0119479
0.0143274
0.028046
0.0135288
0.0136219
0.0136667
0.0136655
0.0136211
0.0135363
0.0134142
0.0132584
0.0130727
0.0128625
0.0126352
0.012402
0.0121811
0.0120038
0.0119285
0.0120794
0.0127842
0.0153101
0.0304296
0.0145744
0.0147067
0.0147839
0.0148092
0.0147859
0.0147171
0.0146061
0.0144561
0.0142708
0.014055
0.0138153
0.0135624
0.0133144
0.0131037
0.0129928
0.0131182
0.0138452
0.0165997
0.0335471
0.0158794
0.0160547
0.0161672
0.016221
0.0162202
0.0161686
0.0160697
0.0159267
0.0157429
0.0155223
0.0152709
0.0149985
0.0147228
0.0144771
0.0143285
0.0144275
0.0151814
0.018188
0.0371216
0.017499
0.0177212
0.0178715
0.0179555
0.0179788
0.017946
0.0178609
0.017727
0.017547
0.0173245
0.0170644
0.0167755
0.0164747
0.0161958
0.01601
0.0160819
0.0168629
0.0201338
0.0412662
0.0195012
0.0197733
0.019963
0.0200786
0.0201271
0.0201147
0.0200457
0.0199239
0.019752
0.0195328
0.0192702
0.0189719
0.0186535
0.0183486
0.0181314
0.0181796
0.0189911
0.0225487
0.0462238
0.0219685
0.0222918
0.0225213
0.0226685
0.022743
0.0227524
0.0227022
0.0225967
0.0224386
0.0222305
0.0219756
0.0216804
0.021359
0.021044
0.0208112
0.0208498
0.0217055
0.0255901
0.052236
0.0250009
0.0253742
0.0256416
0.0258189
0.0259188
0.025951
0.0259223
0.0258379
0.0257011
0.0255146
0.0252817
0.0250084
0.024708
0.024412
0.0241968
0.0242602
0.0251949
0.0294605
0.059389
0.0287195
0.0291373
0.0294375
0.0296411
0.0297644
0.0298192
0.0298144
0.0297561
0.0296489
0.0294965
0.0293036
0.0290775
0.0288331
0.0286031
0.0284659
0.0286274
0.0297262
0.0344967
0.0683115
0.03327
0.0337216
0.0340454
0.0342685
0.0344108
0.0344869
0.034507
0.0344791
0.0344093
0.034304
0.0341707
0.0340217
0.0338783
0.033782
0.0338219
0.0342218
0.0356781
0.041283
0.0807031
0.0388279
0.0392958
0.0396292
0.0398616
0.0400164
0.0401099
0.0401542
0.0401588
0.0401321
0.040084
0.0400278
0.0399849
0.0399914
0.0401121
0.0404714
0.0413466
0.0435438
0.0506599
0.0985218
0.0456045
0.0460634
0.0463878
0.0466161
0.0467738
0.0468786
0.0469433
0.0469788
0.046996
0.0470088
0.0470383
0.0471194
0.0473131
0.047729
0.0485724
0.0502638
0.0538812
0.06386
0.124764
0.0538551
0.0542723
0.0545645
0.0547724
0.0549212
0.055028
0.0551056
0.0551653
0.0552197
0.0552864
0.0553938
0.0555917
0.0559719
0.0567092
0.0581487
0.0610159
0.0670752
0.0826868
0.166836
0.0638892
0.0642263
0.064461
0.0646302
0.064756
0.0648527
0.0649313
0.0650022
0.065078
0.0651774
0.065332
0.0656007
0.0660979
0.0670592
0.0689949
0.0730963
0.0825137
0.108327
0.236362
0.0760839
0.0763027
0.0764553
0.0765678
0.0766549
0.0767262
0.0767895
0.0768521
0.0769239
0.0770202
0.0771678
0.0774183
0.0778778
0.0787812
0.0806938
0.0851355
0.0969101
0.136348
0.360596
0.0909056
0.0909773
0.0910282
0.091067
0.0910988
0.0911267
0.0911536
0.0911823
0.0912168
0.0912638
0.0913347
0.0914522
0.0916642
0.0920823
0.0930033
0.0953699
0.103018
0.139679
0.584062
)
;

boundaryField
{
    leftWall
    {
        type            epsilonWallFunction;
        value           nonuniform List<scalar> 
50
(
0.00108476
0.00218707
0.00367294
0.00511512
0.00647807
0.00777174
0.00901459
0.0102528
0.0120097
0.0141469
0.0159929
0.017965
0.0200135
0.0220672
0.0237102
0.0228344
0.0201534
0.0190697
0.0195133
0.0206947
0.0222362
0.0239298
0.025339
0.0263014
0.0268955
0.0272152
0.02726
0.0270418
0.0265881
0.0259341
0.0251116
0.0241473
0.0230672
0.0218933
0.0206351
0.0192968
0.0179696
0.016792
0.0157186
0.0147771
0.0139919
0.0133697
0.0129042
0.0125882
0.0124368
0.0125492
0.0134918
0.0227235
0.160411
1.53868
)
;
    }
    rightWall
    {
        type            epsilonWallFunction;
        value           nonuniform List<scalar> 
50
(
0.0030445
0.00341756
0.00428684
0.00469747
0.00477095
0.00490166
0.00505737
0.00520289
0.00536222
0.00543429
0.00682292
0.0105633
0.0125584
0.0147462
0.0167893
0.0171561
0.0144832
0.0115208
0.00900369
0.00774686
0.00805693
0.00944573
0.0112305
0.0132586
0.0154346
0.0176372
0.0199585
0.0220547
0.023459
0.0241595
0.0245294
0.0248761
0.0253724
0.0263591
0.028046
0.0304296
0.0335471
0.0371216
0.0412662
0.0462238
0.052236
0.059389
0.0683115
0.0807031
0.0985218
0.124764
0.166836
0.236362
0.360596
0.584062
)
;
    }
    lowerWall
    {
        type            epsilonWallFunction;
        value           nonuniform List<scalar> 
62
(
0.00108476
0.00546959
0.0094072
0.0128685
0.0158828
0.0185032
0.0207801
0.0227658
0.0245126
0.0260773
0.0274925
0.0287856
0.0299649
0.0310687
0.0319225
0.0321624
0.0306927
0.0275324
0.0240607
0.021637
0.0182354
0.0115315
0.00235932
0.00235932
0.00454049
0.00766398
0.0110414
0.0149171
0.0199282
0.0282642
0.047654
0.0582895
0.0491549
0.0506801
0.0621401
0.00171165
0.00252577
0.00449122
0.00688789
0.00991378
0.0143332
0.0219242
0.0391367
0.00171165
0.00911308
0.0146112
0.0174717
0.0187065
0.0190206
0.0188022
0.0185992
0.0188564
0.0192094
0.0171531
0.0139498
0.0128574
0.0157026
0.0195077
0.0186611
0.0150163
0.00867609
0.0030445
)
;
    }
    atmosphere
    {
        type            inletOutlet;
        inletValue      uniform 0.1;
        value           nonuniform List<scalar> 
46
(
0.1
0.148944
0.0370725
0.0202535
0.015316
0.0132314
0.0123232
0.0121167
0.0124426
0.0132501
0.0145536
0.0164138
0.0189282
0.0222246
0.0264616
0.0318597
0.0388056
0.0481032
0.0615005
0.1
0.1
0.1
0.1
0.1
0.1
0.1
0.1
0.1
0.1
0.1
0.1
0.1
0.1
0.1
0.1
0.1
0.1
0.1
0.1
0.1
0.1
0.1
0.1
0.1
0.1
0.584062
)
;
    }
    defaultFaces
    {
        type            empty;
    }
}


// ************************************************************************* //
