/*--------------------------------*- C++ -*----------------------------------*\
  =========                 |
  \\      /  F ield         | OpenFOAM: The Open Source CFD Toolbox
   \\    /   O peration     | Website:  https://openfoam.org
    \\  /    A nd           | Version:  9
     \\/     M anipulation  |
\*---------------------------------------------------------------------------*/
FoamFile
{
    format      ascii;
    class       volVectorField;
    location    "4.21";
    object      U;
}
// * * * * * * * * * * * * * * * * * * * * * * * * * * * * * * * * * * * * * //

dimensions      [0 1 -1 0 0 0 0];

internalField   nonuniform List<vector> 
2268
(
(0.00234259 -0.00110293 0)
(0.00620584 -0.00085695 0)
(0.00880065 -0.000658165 0)
(0.0111861 -0.000544744 0)
(0.0130956 -0.00043089 0)
(0.0145794 -0.000318234 0)
(0.0156683 -0.000205561 0)
(0.0163751 -0.000100376 0)
(0.0167067 -6.41872e-06 0)
(0.0167147 7.20808e-05 0)
(0.0164972 0.000117962 0)
(0.0161833 8.49735e-05 0)
(0.0160214 -4.23791e-05 0)
(0.0163227 -0.000304771 0)
(0.0174109 -0.000704728 0)
(0.0194685 -0.00111422 0)
(0.0219644 -0.000405146 0)
(0.0191664 0.00281125 0)
(0.00631465 0.00489636 0)
(-0.00618869 0.00241006 0)
(-0.00817991 -0.00107716 0)
(-0.00293686 -0.00212368 0)
(0.000508169 -0.000204949 0)
(0.00196802 -0.00298052 0)
(0.00545556 -0.00234719 0)
(0.0080094 -0.00188811 0)
(0.0103766 -0.00154844 0)
(0.0122915 -0.00123845 0)
(0.0138161 -0.000943823 0)
(0.014969 -0.000660439 0)
(0.0157624 -0.000392206 0)
(0.0162153 -0.00014946 0)
(0.0163745 4.57355e-05 0)
(0.0163018 0.00017058 0)
(0.0160713 0.000171027 0)
(0.0158143 -2.78723e-06 0)
(0.015697 -0.000385347 0)
(0.0158199 -0.000940222 0)
(0.0161055 -0.00135085 0)
(0.0160502 0.000166353 0)
(0.0136033 0.00532723 0)
(0.00716465 0.00824281 0)
(0.000252767 0.00506962 0)
(-0.00272122 -0.00060912 0)
(-0.00173934 -0.00265977 0)
(-0.00138452 -0.000875462 0)
(0.00173378 -0.00452457 0)
(0.00501118 -0.0036597 0)
(0.00753992 -0.0030281 0)
(0.00992794 -0.00251656 0)
(0.0119098 -0.00203494 0)
(0.0135252 -0.00157218 0)
(0.01478 -0.00112623 0)
(0.0156817 -0.000700361 0)
(0.0162442 -0.000311374 0)
(0.0165063 6.22771e-06 0)
(0.0165109 0.000226824 0)
(0.016289 0.000297344 0)
(0.0159003 0.00015053 0)
(0.0154132 -0.000233537 0)
(0.0148061 -0.000761161 0)
(0.0138547 -0.00100597 0)
(0.0124388 0.000910006 0)
(0.010383 0.00677592 0)
(0.00759121 0.00993971 0)
(0.00420689 0.00689745 0)
(0.00130976 0.000212257 0)
(0.000354092 -0.00259057 0)
(-0.000508122 -0.0014499 0)
(0.00158478 -0.00606497 0)
(0.00469554 -0.00500265 0)
(0.00725149 -0.00422022 0)
(0.00970579 -0.00355428 0)
(0.0117953 -0.0029061 0)
(0.0135319 -0.00227423 0)
(0.0149105 -0.00166116 0)
(0.0159304 -0.00107121 0)
(0.0165984 -0.000529327 0)
(0.0169447 -7.33681e-05 0)
(0.0169956 0.000272871 0)
(0.0167454 0.000461365 0)
(0.0162028 0.000415933 0)
(0.0153814 0.00013623 0)
(0.0141985 -0.000231118 0)
(0.0123886 -0.000197496 0)
(0.0100493 0.00187707 0)
(0.00840067 0.00754155 0)
(0.00760472 0.0106976 0)
(0.00639359 0.00800739 0)
(0.00435521 0.00119247 0)
(0.00251916 -0.00202551 0)
(0.00121717 -0.00103401 0)
(0.00148844 -0.00748661 0)
(0.00448868 -0.00633382 0)
(0.00711875 -0.00544696 0)
(0.00968063 -0.00464939 0)
(0.0119083 -0.00384285 0)
(0.0137876 -0.00304269 0)
(0.0153036 -0.00225852 0)
(0.0164461 -0.00149647 0)
(0.0172129 -0.000789684 0)
(0.0176281 -0.000179725 0)
(0.0177055 0.000320102 0)
(0.0174082 0.000672144 0)
(0.016709 0.000792061 0)
(0.0155976 0.000698786 0)
(0.0139865 0.000581129 0)
(0.0116727 0.000929821 0)
(0.00882622 0.00299866 0)
(0.00721184 0.00787197 0)
(0.0073906 0.01079 0)
(0.00758473 0.0084369 0)
(0.00615516 0.00219978 0)
(0.00370468 -0.00113404 0)
(0.00205898 0.000460437 0)
(0.00143554 -0.00885409 0)
(0.00439934 -0.00767286 0)
(0.00714449 -0.00671888 0)
(0.00984806 -0.00580751 0)
(0.0122352 -0.00484757 0)
(0.0142695 -0.00387778 0)
(0.0159291 -0.0029166 0)
(0.0171933 -0.0019718 0)
(0.0180497 -0.00108583 0)
(0.0185189 -0.000304389 0)
(0.0186084 0.000374681 0)
(0.0182552 0.000930695 0)
(0.0174085 0.00126568 0)
(0.0160585 0.0014087 0)
(0.0141444 0.00157499 0)
(0.0115694 0.00220436 0)
(0.00858602 0.00419085 0)
(0.00685807 0.00811564 0)
(0.00717931 0.0105175 0)
(0.00779256 0.00851818 0)
(0.0064298 0.00327734 0)
(0.0035701 -0.000101767 0)
(0.00133183 0.00127037 0)
(0.00140942 -0.0102365 0)
(0.00443267 -0.00905193 0)
(0.00733258 -0.008056 0)
(0.0102012 -0.00704147 0)
(0.012758 -0.00592806 0)
(0.0149505 -0.004784 0)
(0.0167527 -0.0036371 0)
(0.0181328 -0.00249537 0)
(0.019067 -0.00141268 0)
(0.0195747 -0.000441483 0)
(0.0196638 0.000440127 0)
(0.0192513 0.00123593 0)
(0.0182715 0.00182338 0)
(0.0167302 0.0022292 0)
(0.0146067 0.00267631 0)
(0.0119034 0.00352936 0)
(0.00895362 0.00538257 0)
(0.00711817 0.00846266 0)
(0.00708413 0.0102831 0)
(0.00729814 0.00867184 0)
(0.00555022 0.00449056 0)
(0.00211044 0.00127573 0)
(-0.00166645 0.00354073 0)
(0.00143315 -0.0116247 0)
(0.00459361 -0.0105043 0)
(0.0076757 -0.00949228 0)
(0.0107154 -0.00837739 0)
(0.0134389 -0.00710532 0)
(0.0157828 -0.0057785 0)
(0.0177198 -0.00443319 0)
(0.0192058 -0.00307457 0)
(0.0202048 -0.00177138 0)
(0.0207349 -0.000588449 0)
(0.0208098 0.000518432 0)
(0.0203368 0.00159313 0)
(0.0192416 0.0024652 0)
(0.0175504 0.00314866 0)
(0.0152826 0.00386446 0)
(0.0125121 0.00489125 0)
(0.00961079 0.00659092 0)
(0.00763218 0.00899878 0)
(0.00704124 0.0103605 0)
(0.00652189 0.00917031 0)
(0.00418626 0.00600969 0)
(0.000400794 0.00311362 0)
(-0.00565097 5.61281e-05 0)
(-0.0113531 0.00275715 0)
(-0.00656778 -0.00241176 0)
(-0.0010537 -0.00176479 0)
(0.001246 -0.000624964 0)
(0.0010772 0.00011709 0)
(-0.000784202 0.000625382 0)
(-0.00386562 0.00101944 0)
(-0.00750032 0.000799592 0)
(-0.00873368 -0.000778201 0)
(-0.00327074 -0.00247534 0)
(0.0037577 -0.00105676 0)
(0.000931019 0.0041094 0)
(-0.0245502 0.00768086 0)
(-0.040939 0.000717727 0)
(-0.0185144 -0.0100197 0)
(0.0151028 -0.0116192 0)
(0.0503133 -0.00945258 0)
(0.067435 0.00403039 0)
(0.0277784 0.0118999 0)
(-0.00301174 0.00510722 0)
(-0.00149104 -0.00265951 0)
(-0.00118743 -0.00188889 0)
(-0.00176814 -0.000361112 0)
(-0.00317895 0.000812861 0)
(-0.00536897 0.00161508 0)
(-0.00792474 0.00206467 0)
(-0.0104028 0.00150108 0)
(-0.0118147 -0.00102223 0)
(-0.0100405 -0.00369924 0)
(-0.00805481 -0.000572755 0)
(-0.0119027 0.00824251 0)
(-0.0229604 0.0113075 0)
(-0.0210414 -0.00186222 0)
(-0.00531319 -0.0173668 0)
(0.0144338 -0.0206505 0)
(0.0342195 -0.0163888 0)
(0.0502959 0.00815947 0)
(0.030375 0.0282167 0)
(0.0026117 0.00466467 0)
(0.000158899 -0.00218065 0)
(-0.00238867 -0.00121603 0)
(-0.00456749 0.000357721 0)
(-0.00665859 0.00168847 0)
(-0.00899874 0.00260774 0)
(-0.0113658 0.00301547 0)
(-0.0136139 0.00226597 0)
(-0.0154102 -0.000691452 0)
(-0.015901 -0.00393141 0)
(-0.0163151 0.000240701 0)
(-0.0182723 0.00987932 0)
(-0.0192565 0.0103963 0)
(-0.0116363 -0.00633503 0)
(-0.000790826 -0.0227945 0)
(0.0108307 -0.0271378 0)
(0.0232128 -0.0218706 0)
(0.0310523 0.00868696 0)
(0.022528 0.0418383 0)
(0.00363369 0.00371812 0)
(-0.000639274 -0.00070065 0)
(-0.00462225 9.59843e-05 0)
(-0.00763797 0.00140772 0)
(-0.0100688 0.0026806 0)
(-0.01241 0.00360975 0)
(-0.014683 0.00397096 0)
(-0.0168997 0.00313724 0)
(-0.0189913 -3.18621e-06 0)
(-0.0210244 -0.00339655 0)
(-0.0223638 0.000667923 0)
(-0.0213872 0.00944627 0)
(-0.0163181 0.00780483 0)
(-0.00719902 -0.010103 0)
(-0.000309944 -0.0262293 0)
(0.00616013 -0.0314167 0)
(0.0139056 -0.0248643 0)
(0.0157552 0.00962866 0)
(0.0118764 0.050456 0)
(0.00222322 0.00327569 0)
(-0.00320078 0.00126276 0)
(-0.00778082 0.00176878 0)
(-0.0111324 0.00262171 0)
(-0.013635 0.00370736 0)
(-0.0158544 0.00457913 0)
(-0.0179956 0.00492015 0)
(-0.0201198 0.00404849 0)
(-0.0222677 0.000929824 0)
(-0.0250602 -0.00237866 0)
(-0.0267389 0.00057649 0)
(-0.0235323 0.00739182 0)
(-0.0148741 0.00404034 0)
(-0.00598771 -0.0130927 0)
(-0.00228376 -0.0281562 0)
(0.000633434 -0.0338806 0)
(0.00516973 -0.0261261 0)
(0.00232735 0.0111011 0)
(-0.00132864 0.0537414 0)
(-0.000361246 0.00419892 0)
(-0.00705786 0.00358916 0)
(-0.0117247 0.00355726 0)
(-0.0150562 0.0038528 0)
(-0.0174179 0.00468779 0)
(-0.0193843 0.00546271 0)
(-0.0212486 0.00580957 0)
(-0.023131 0.00491855 0)
(-0.0250984 0.00190913 0)
(-0.0278242 -0.00127577 0)
(-0.0292053 0.000166172 0)
(-0.0247643 0.0043964 0)
(-0.0149998 -4.26638e-05 0)
(-0.00732305 -0.0152376 0)
(-0.00592733 -0.0289156 0)
(-0.00567333 -0.034967 0)
(-0.00396892 -0.0261261 0)
(-0.0088382 0.0138817 0)
(-0.0126384 0.0507733 0)
(-0.00426103 0.00605314 0)
(-0.0120588 0.00614165 0)
(-0.0162968 0.00527064 0)
(-0.0193422 0.00498804 0)
(-0.0214129 0.0055563 0)
(-0.0230038 0.00619844 0)
(-0.024412 0.00655558 0)
(-0.0258586 0.00567131 0)
(-0.027439 0.00276927 0)
(-0.0295915 -0.000403041 0)
(-0.0302316 -0.000521904 0)
(-0.0254136 0.00121426 0)
(-0.0163554 -0.00374733 0)
(-0.010301 -0.0166631 0)
(-0.0105795 -0.0287437 0)
(-0.0127137 -0.0349222 0)
(-0.0138767 -0.025476 0)
(-0.0169273 0.0161155 0)
(-0.0163481 0.0437858 0)
(-0.0116289 0.0128811 0)
(-0.0176858 0.00853576 0)
(-0.0212474 0.00674917 0)
(-0.0238589 0.00596979 0)
(-0.0255801 0.00626099 0)
(-0.0267132 0.00670628 0)
(-0.0275028 0.00703245 0)
(-0.0282819 0.00617958 0)
(-0.029263 0.00338518 0)
(-0.030605 9.76357e-05 0)
(-0.0304154 -0.00144643 0)
(-0.0257882 -0.00171372 0)
(-0.0182142 -0.00678408 0)
(-0.0138631 -0.0174246 0)
(-0.0155801 -0.0276933 0)
(-0.0200298 -0.0337253 0)
(-0.0236825 -0.0246418 0)
(-0.0229048 0.0160526 0)
(-0.0145572 0.0354727 0)
(0.00157064 -0.0134399 0)
(0.00505358 -0.0129872 0)
(0.00839 -0.0119752 0)
(0.0116751 -0.010685 0)
(0.0146341 -0.00914716 0)
(0.0171914 -0.00751402 0)
(0.0193177 -0.00583087 0)
(0.0209506 -0.00409095 0)
(0.0220326 -0.00239329 0)
(0.0225729 -0.000837133 0)
(0.0225994 0.000664575 0)
(0.0220281 0.00225577 0)
(0.020784 0.00362352 0)
(0.018917 0.00475843 0)
(0.0164966 0.00587739 0)
(0.0136661 0.00711971 0)
(0.0107935 0.00859572 0)
(0.00851985 0.0102319 0)
(0.00698601 0.0111687 0)
(0.00518837 0.0107217 0)
(0.00170446 0.00919698 0)
(-0.00373276 0.00769448 0)
(-0.0116813 0.0046762 0)
(0.00147471 -0.0181914 0)
(0.00551738 -0.0167708 0)
(0.00928067 -0.0152945 0)
(0.0127951 -0.0136296 0)
(0.0159478 -0.0117017 0)
(0.0187004 -0.00965371 0)
(0.0209986 -0.00751673 0)
(0.0227759 -0.00525207 0)
(0.02396 -0.00299725 0)
(0.0244856 -0.000916444 0)
(0.024346 0.00112715 0)
(0.0236082 0.00323892 0)
(0.0222833 0.00511018 0)
(0.0203415 0.00669096 0)
(0.0178497 0.00813878 0)
(0.0150059 0.00947627 0)
(0.0120825 0.0107185 0)
(0.00938441 0.0118339 0)
(0.00687973 0.0126316 0)
(0.00393451 0.0130213 0)
(-0.000244402 0.0131359 0)
(-0.00575761 0.0133516 0)
(-0.012842 0.0128462 0)
(0.00346251 -0.0163031 0)
(0.00649998 -0.0178884 0)
(0.00973766 -0.0170099 0)
(0.0127217 -0.0154329 0)
(0.0156756 -0.0133356 0)
(0.0184874 -0.0111387 0)
(0.0207548 -0.00883472 0)
(0.0226114 -0.00624066 0)
(0.0242919 -0.00353192 0)
(0.0253921 -0.00101706 0)
(0.0255241 0.00151448 0)
(0.0249665 0.00397807 0)
(0.0240257 0.00630458 0)
(0.0225482 0.00841671 0)
(0.0205015 0.0102489 0)
(0.0179265 0.0117272 0)
(0.0148479 0.0129561 0)
(0.0115487 0.0140517 0)
(0.00818096 0.0151409 0)
(0.00459776 0.0162764 0)
(0.000418061 0.0174005 0)
(-0.00443663 0.0181892 0)
(-0.0113376 0.0185004 0)
(0.00580024 -0.0277921 0)
(0.00472957 -0.0220375 0)
(0.00689619 -0.0200055 0)
(0.00789483 -0.0180653 0)
(0.0100858 -0.015673 0)
(0.0136042 -0.0129399 0)
(0.0148689 -0.00998031 0)
(0.0154735 -0.00738601 0)
(0.0182484 -0.00474984 0)
(0.0210862 -0.00158988 0)
(0.0220317 0.00175174 0)
(0.0220372 0.00443639 0)
(0.0217463 0.00710817 0)
(0.0217653 0.00956173 0)
(0.0225411 0.0115542 0)
(0.0221118 0.0137891 0)
(0.0184262 0.0154712 0)
(0.0132234 0.016624 0)
(0.00777368 0.0180761 0)
(0.00419515 0.0188583 0)
(0.00281798 0.020233 0)
(0.00264331 0.0216256 0)
(-0.00987958 0.0247133 0)
(0.00332348 -0.0317343 0)
(0.00535942 -0.0296857 0)
(-0.000970304 -0.0236978 0)
(-0.0195136 -0.0192108 0)
(-0.0290493 -0.0258394 0)
(-0.0257987 -0.0234377 0)
(-0.0219087 -0.0139743 0)
(-0.0148748 -0.015217 0)
(-0.00486235 -0.0149657 0)
(0.00447098 -0.00723438 0)
(0.0112073 -0.000291474 0)
(0.0158436 0.00420725 0)
(0.0196266 0.00772896 0)
(0.023288 0.00968228 0)
(0.0260909 0.0120184 0)
(0.029151 0.0194842 0)
(0.0307632 0.0286261 0)
(0.0301476 0.0295471 0)
(0.0340558 0.0295238 0)
(0.0354366 0.0272665 0)
(0.0340267 0.028108 0)
(0.0325417 0.0340301 0)
(0.0118916 0.0738146 0)
(-0.00287801 -0.0342605 0)
(0.00503509 -0.0224107 0)
(0.00878221 -0.00292001 0)
(-0.00318257 0.012518 0)
(-0.0128518 -0.0148159 0)
(-0.00980946 -0.0226879 0)
(-0.00186645 -0.0171413 0)
(0.00578527 -0.0202951 0)
(0.00745011 -0.0203901 0)
(0.00712933 -0.0132994 0)
(0.00782795 -0.00645613 0)
(0.00944462 -0.00186193 0)
(0.0110824 0.00215231 0)
(0.0109345 0.00462494 0)
(0.0063857 0.00819533 0)
(0.00359686 0.0111635 0)
(0.00643062 0.0191737 0)
(0.0108186 0.0172927 0)
(0.0182596 0.0144007 0)
(0.0250317 0.0228825 0)
(0.0223184 0.0274812 0)
(0.00863532 0.0333835 0)
(0.00399547 0.079793 0)
(-0.00724898 -0.0291535 0)
(-0.00863917 -0.0280451 0)
(-0.00319252 -0.0117497 0)
(0.00696058 0.0116263 0)
(0.0113894 -0.016633 0)
(0.0118661 -0.0279052 0)
(0.0150812 -0.0263498 0)
(0.0190452 -0.0249181 0)
(0.0162967 -0.0188353 0)
(0.00912396 -0.00991242 0)
(0.00299949 -0.00407331 0)
(-0.00103001 -0.00080285 0)
(-0.00417492 0.00360582 0)
(-0.00784182 0.00849964 0)
(-0.0123802 0.0155162 0)
(-0.0152609 0.0116449 0)
(-0.0168131 0.0206171 0)
(-0.0172212 0.0158302 0)
(-0.0180485 0.0080922 0)
(-0.0164631 0.0199146 0)
(-0.0104075 0.032628 0)
(-0.0133731 0.0427132 0)
(0.00619053 0.0619546 0)
(-0.00340716 -0.0235906 0)
(-0.0144182 -0.024448 0)
(-0.016101 -0.0221695 0)
(-0.000666161 -0.0027135 0)
(0.0103628 -0.0213627 0)
(0.00821054 -0.0282202 0)
(0.00660417 -0.0288718 0)
(0.00324821 -0.0225875 0)
(-0.00304432 -0.0111051 0)
(-0.0086681 -0.00130758 0)
(-0.0132061 0.00276868 0)
(-0.0177738 0.00488198 0)
(-0.0221656 0.00873686 0)
(-0.0258445 0.0142567 0)
(-0.0288334 0.0191364 0)
(-0.0332355 0.0170552 0)
(-0.0380762 0.0221807 0)
(-0.0393486 0.0152243 0)
(-0.0386641 0.00935224 0)
(-0.0334523 0.0120498 0)
(-0.0231713 0.0237654 0)
(-0.0126778 0.0324853 0)
(0.00893214 0.0315771 0)
(-0.00157811 -0.0146542 0)
(-0.00329886 -0.0171155 0)
(-0.00643893 -0.024878 0)
(-0.00266917 -0.0169217 0)
(0.00114534 -0.0232114 0)
(-0.00302941 -0.0250624 0)
(-0.00786758 -0.023716 0)
(-0.0135123 -0.015858 0)
(-0.0180826 -0.00574655 0)
(-0.0210794 0.00173811 0)
(-0.0236788 0.00606116 0)
(-0.0268229 0.00900678 0)
(-0.0300579 0.0123671 0)
(-0.0325647 0.0165628 0)
(-0.0340818 0.0203165 0)
(-0.0354728 0.0216301 0)
(-0.0354361 0.0233533 0)
(-0.0344091 0.0164645 0)
(-0.034339 0.00801827 0)
(-0.0317042 0.00448159 0)
(-0.0237774 0.0107044 0)
(-0.0118335 0.0179087 0)
(0.00210523 0.0147017 0)
(0.002685 -0.0162857 0)
(0.00180147 -0.0176016 0)
(-0.00137984 -0.0207632 0)
(-0.00266316 -0.0175399 0)
(-0.00363108 -0.0198658 0)
(-0.00873367 -0.0196627 0)
(-0.0145993 -0.01695 0)
(-0.0202754 -0.0105124 0)
(-0.0242983 -0.00268202 0)
(-0.0266188 0.00380843 0)
(-0.0283186 0.00824 0)
(-0.0301731 0.0115287 0)
(-0.0320275 0.0145927 0)
(-0.0332159 0.0177526 0)
(-0.0332549 0.0203844 0)
(-0.032315 0.0213618 0)
(-0.0299626 0.0206115 0)
(-0.0270366 0.0150204 0)
(-0.02555 0.00707336 0)
(-0.0249605 0.00142885 0)
(-0.0219914 0.00268335 0)
(-0.0153271 0.00802226 0)
(-0.00900571 0.00776222 0)
(0.00261046 -0.0186631 0)
(0.00226253 -0.0166701 0)
(-0.000487022 -0.0172397 0)
(-0.00336147 -0.0152224 0)
(-0.00648106 -0.0154575 0)
(-0.011658 -0.0142307 0)
(-0.0172968 -0.011118 0)
(-0.0223911 -0.0058749 0)
(-0.0259586 0.000173141 0)
(-0.0280216 0.00552046 0)
(-0.02932 0.00965257 0)
(-0.0303838 0.012854 0)
(-0.0311668 0.0155478 0)
(-0.0312641 0.0177841 0)
(-0.030346 0.0192446 0)
(-0.028461 0.019212 0)
(-0.0256867 0.017278 0)
(-0.0228835 0.0124438 0)
(-0.021386 0.0061042 0)
(-0.0211172 0.00112119 0)
(-0.0205363 -2.59387e-05 0)
(-0.0181365 0.00296993 0)
(-0.0155208 0.00558028 0)
(0.00119161 -0.02034 0)
(0.000443755 -0.0155954 0)
(-0.0021076 -0.014018 0)
(-0.00533738 -0.0120353 0)
(-0.00904279 -0.0109678 0)
(-0.0137368 -0.00912321 0)
(-0.0185859 -0.00607965 0)
(-0.0228276 -0.0018437 0)
(-0.0258602 0.0027882 0)
(-0.0277042 0.00706122 0)
(-0.0287512 0.0106123 0)
(-0.0292914 0.0134146 0)
(-0.029328 0.0155575 0)
(-0.0287063 0.0169989 0)
(-0.0273158 0.0175486 0)
(-0.0252436 0.0168051 0)
(-0.0227492 0.0145 0)
(-0.0205295 0.0103928 0)
(-0.019419 0.00538293 0)
(-0.0194456 0.00119676 0)
(-0.0197664 -0.000139307 0)
(-0.0193392 0.00149655 0)
(-0.0184713 0.00456863 0)
(-0.000513855 -0.0200443 0)
(-0.00214851 -0.0138645 0)
(-0.00482558 -0.0109334 0)
(-0.00804626 -0.00862383 0)
(-0.0116558 -0.00684245 0)
(-0.0156817 -0.00472259 0)
(-0.0196356 -0.00194547 0)
(-0.0230171 0.00144849 0)
(-0.0254882 0.00501305 0)
(-0.0270247 0.00836699 0)
(-0.0277852 0.0112232 0)
(-0.0279194 0.0134488 0)
(-0.0274883 0.0149919 0)
(-0.026492 0.0157994 0)
(-0.0249487 0.0157436 0)
(-0.0229968 0.014625 0)
(-0.0209228 0.0123383 0)
(-0.0192307 0.00893076 0)
(-0.0184541 0.0050011 0)
(-0.018698 0.00162243 0)
(-0.0194109 0.000301452 0)
(-0.0198265 0.00132429 0)
(-0.0198177 0.00408283 0)
(-0.0020388 -0.0176312 0)
(-0.00463133 -0.011324 0)
(-0.00763602 -0.00781147 0)
(-0.0108547 -0.00527816 0)
(-0.014201 -0.0032157 0)
(-0.0176047 -0.00108876 0)
(-0.0207827 0.00133472 0)
(-0.0234309 0.00403566 0)
(-0.0253498 0.00678405 0)
(-0.0265008 0.00934396 0)
(-0.0269458 0.0115057 0)
(-0.0267818 0.0131279 0)
(-0.0260917 0.014132 0)
(-0.0249411 0.0144571 0)
(-0.0234169 0.0140247 0)
(-0.02168 0.0127543 0)
(-0.0199848 0.0106484 0)
(-0.0186813 0.0078565 0)
(-0.0181155 0.0048184 0)
(-0.0184113 0.00223938 0)
(-0.0192297 0.00107212 0)
(-0.0199862 0.00174992 0)
(-0.0203435 0.00400922 0)
(-0.00313589 -0.0135816 0)
(-0.00662823 -0.00794665 0)
(-0.0100453 -0.00451315 0)
(-0.0133244 -0.00203969 0)
(-0.016447 -2.16067e-05 0)
(-0.0193702 0.00191063 0)
(-0.0219481 0.00392661 0)
(-0.0240133 0.00603007 0)
(-0.0254523 0.00809662 0)
(-0.0262382 0.00997186 0)
(-0.0264087 0.011508 0)
(-0.0260386 0.0125901 0)
(-0.0252152 0.0131424 0)
(-0.0240312 0.0131125 0)
(-0.0226011 0.0124598 0)
(-0.0210843 0.0111707 0)
(-0.0196909 0.00930379 0)
(-0.0186661 0.00703247 0)
(-0.0182247 0.00470183 0)
(-0.0184411 0.00280268 0)
(-0.0191372 0.00190306 0)
(-0.0198956 0.00237444 0)
(-0.0202778 0.00407289 0)
(-0.00384775 -0.00833196 0)
(-0.00805431 -0.00386124 0)
(-0.0118562 -0.000970081 0)
(-0.0152305 0.00114788 0)
(-0.018209 0.00286884 0)
(-0.020797 0.0044495 0)
(-0.0229452 0.00600924 0)
(-0.0245787 0.00755795 0)
(-0.0256461 0.00902494 0)
(-0.0261427 0.0103085 0)
(-0.0261061 0.0113046 0)
(-0.0256048 0.0119265 0)
(-0.0247261 0.0121133 0)
(-0.0235701 0.0118279 0)
(-0.0222555 0.0110569 0)
(-0.0209266 0.00982147 0)
(-0.019751 0.00820308 0)
(-0.0189011 0.00636635 0)
(-0.0185102 0.00457858 0)
(-0.0186101 0.00318658 0)
(-0.0190653 0.0025512 0)
(-0.0195755 0.00288658 0)
(-0.019802 0.00409145 0)
(-0.00425815 -0.00230612 0)
(-0.00894118 0.00074879 0)
(-0.0130342 0.00280105 0)
(-0.0164965 0.00433124 0)
(-0.0193886 0.00556676 0)
(-0.0217552 0.00667532 0)
(-0.0236113 0.00773351 0)
(-0.0249443 0.00874723 0)
(-0.0257482 0.00967107 0)
(-0.0260412 0.0104355 0)
(-0.0258681 0.0109668 0)
(-0.0252971 0.0112015 0)
(-0.0244131 0.0110953 0)
(-0.0233141 0.0106259 0)
(-0.0221112 0.00979686 0)
(-0.0209285 0.00864538 0)
(-0.0198964 0.00725603 0)
(-0.019135 0.00577107 0)
(-0.0187246 0.00439302 0)
(-0.0186683 0.00336263 0)
(-0.0188572 0.00290683 0)
(-0.0190788 0.00314191 0)
(-0.0190949 0.00399188 0)
(-0.00443656 0.00414268 0)
(-0.00937179 0.00567956 0)
(-0.0136318 0.00672969 0)
(-0.0171379 0.0075178 0)
(-0.0199637 0.00813971 0)
(-0.0221792 0.00869316 0)
(-0.023839 0.00921708 0)
(-0.0249714 0.00970728 0)
(-0.0256016 0.0101284 0)
(-0.025766 0.0104293 0)
(-0.0255173 0.010556 0)
(-0.024924 0.0104624 0)
(-0.0240672 0.0101177 0)
(-0.0230379 0.00951075 0)
(-0.021935 0.00865389 0)
(-0.0208615 0.00758872 0)
(-0.0199175 0.00639232 0)
(-0.0191863 0.0051803 0)
(-0.0187149 0.00410219 0)
(-0.0184917 0.00332177 0)
(-0.0184312 0.00297953 0)
(-0.0183845 0.00313686 0)
(-0.018189 0.00373644 0)
(-0.00444668 0.0107347 0)
(-0.00943403 0.0107376 0)
(-0.0137286 0.0107186 0)
(-0.017211 0.010678 0)
(-0.0199583 0.0106143 0)
(-0.0220545 0.0105661 0)
(-0.0235761 0.01054 0)
(-0.0245753 0.010519 0)
(-0.025097 0.0104699 0)
(-0.0251899 0.0103507 0)
(-0.0249119 0.0101198 0)
(-0.0243305 0.00974264 0)
(-0.0235217 0.00919759 0)
(-0.0225674 0.00848001 0)
(-0.0215529 0.00760548 0)
(-0.0205622 0.00661298 0)
(-0.0196716 0.00556725 0)
(-0.0189391 0.00455786 0)
(-0.0183919 0.00369232 0)
(-0.0180136 0.00307997 0)
(-0.017739 0.00280631 0)
(-0.0174643 0.00290138 0)
(-0.0170793 0.00332099 0)
(-0.00431586 0.0172538 0)
(-0.00919406 0.015756 0)
(-0.013401 0.0146621 0)
(-0.0167824 0.0137619 0)
(-0.0194199 0.012987 0)
(-0.0214019 0.0123234 0)
(-0.0228138 0.0117494 0)
(-0.02372 0.0112354 0)
(-0.0241756 0.0107459 0)
(-0.0242358 0.0102431 0)
(-0.0239603 0.00969176 0)
(-0.0234138 0.00906431 0)
(-0.0226658 0.00834438 0)
(-0.0217886 0.00753006 0)
(-0.0208543 0.00663605 0)
(-0.0199308 0.00569513 0)
(-0.0190764 0.0047583 0)
(-0.0183321 0.00389206 0)
(-0.0177136 0.00317148 0)
(-0.0172053 0.00266782 0)
(-0.0167585 0.00243153 0)
(-0.0163015 0.00247429 0)
(-0.0157595 0.00276081 0)
(-0.00405448 0.0235056 0)
(-0.00869797 0.0206002 0)
(-0.0127135 0.018457 0)
(-0.0159183 0.0167125 0)
(-0.0184071 0.0152373 0)
(-0.020264 0.013971 0)
(-0.021575 0.0128679 0)
(-0.022408 0.0118868 0)
(-0.0228218 0.0109879 0)
(-0.022873 0.0101341 0)
(-0.0226198 0.00929332 0)
(-0.0221223 0.00844118 0)
(-0.0214429 0.00756351 0)
(-0.020644 0.00665832 0)
(-0.0197858 0.00573703 0)
(-0.0189229 0.00482473 0)
(-0.0181002 0.00395917 0)
(-0.0173472 0.00318751 0)
(-0.0166737 0.00256024 0)
(-0.0160667 0.00212207 0)
(-0.015491 0.00190078 0)
(-0.0148971 0.00189702 0)
(-0.0142343 0.00208139 0)
(-0.00371548 0.0293284 0)
(-0.00799857 0.0251499 0)
(-0.0117235 0.0220124 0)
(-0.0146856 0.0194741 0)
(-0.016985 0.0173365 0)
(-0.0186974 0.0155011 0)
(-0.019904 0.0139021 0)
(-0.0206705 0.0124874 0)
(-0.0210541 0.0112127 0)
(-0.021109 0.0100397 0)
(-0.0208891 0.00893707 0)
(-0.0204488 0.00788125 0)
(-0.0198423 0.00685817 0)
(-0.0191228 0.00586402 0)
(-0.01834 0.0049057 0)
(-0.0175376 0.00400044 0)
(-0.0167503 0.00317417 0)
(-0.016 0.0024584 0)
(-0.0152935 0.00188525 0)
(-0.014621 0.00148081 0)
(-0.0139577 0.00125798 0)
(-0.0132696 0.00121056 0)
(-0.0125223 0.00131293 0)
(-0.00333142 0.0346078 0)
(-0.0071465 0.0292903 0)
(-0.0104927 0.0252521 0)
(-0.0131528 0.0219937 0)
(-0.0152218 0.0192527 0)
(-0.0167666 0.0168988 0)
(-0.0178592 0.0148489 0)
(-0.0185583 0.0130416 0)
(-0.0189156 0.011428 0)
(-0.0189798 0.00996798 0)
(-0.0187988 0.00862959 0)
(-0.0184197 0.0073889 0)
(-0.0178888 0.00623057 0)
(-0.0172502 0.00514806 0)
(-0.0165445 0.00414348 0)
(-0.0158064 0.00322672 0)
(-0.015063 0.00241372 0)
(-0.0143309 0.00172363 0)
(-0.0136152 0.00117493 0)
(-0.0129092 0.000780648 0)
(-0.0121959 0.000543664 0)
(-0.0114523 0.000453428 0)
(-0.010655 0.000486679 0)
(-0.00290163 0.0392616 0)
(-0.0061812 0.0329315 0)
(-0.00908016 0.0281087 0)
(-0.0113831 0.0242214 0)
(-0.013184 0.0209541 0)
(-0.0145395 0.0181468 0)
(-0.0155072 0.015701 0)
(-0.0161352 0.0135482 0)
(-0.0164663 0.0116359 0)
(-0.0165418 0.00992209 0)
(-0.016402 0.00837393 0)
(-0.0160862 0.00696643 0)
(-0.0156324 0.00568248 0)
(-0.0150766 0.00451259 0)
(-0.0144511 0.00345432 0)
(-0.0137833 0.0025112 0)
(-0.0130942 0.00169104 0)
(-0.0123966 0.00100345 0)
(-0.0116949 0.000456849 0)
(-0.0109848 5.50438e-05 0)
(-0.0102548 -0.00020586 0)
(-0.0094896 -0.000339297 0)
(-0.00867378 -0.00036711 0)
(-0.0024376 0.0432239 0)
(-0.00513238 0.0360128 0)
(-0.00753015 0.0305224 0)
(-0.00943061 0.0261135 0)
(-0.0109341 0.0224139 0)
(-0.0120844 0.0192302 0)
(-0.0129195 0.0164515 0)
(-0.013473 0.0140049 0)
(-0.0137772 0.0118363 0)
(-0.0138644 0.00990306 0)
(-0.0137665 0.00817135 0)
(-0.0135149 0.00661514 0)
(-0.0131395 0.00521557 0)
(-0.0126685 0.00396042 0)
(-0.0121269 0.00284334 0)
(-0.0115361 0.00186267 0)
(-0.010912 0.00101983 0)
(-0.0102647 0.00031725 0)
(-0.00959782 -0.000243982 0)
(-0.00890898 -0.000666574 0)
(-0.00819082 -0.000959055 0)
(-0.00743338 -0.00113678 0)
(-0.00662666 -0.00122076 0)
(-0.00195002 0.0464444 0)
(-0.00402009 0.0384886 0)
(-0.00587673 0.0324436 0)
(-0.00734231 0.0276361 0)
(-0.00853191 0.0236151 0)
(-0.00947063 0.0201408 0)
(-0.0101704 0.0170962 0)
(-0.0106481 0.0144099 0)
(-0.0109251 0.012029 0)
(-0.0110241 0.00991114 0)
(-0.0109687 0.0080224 0)
(-0.0107818 0.00633591 0)
(-0.0104858 0.00483142 0)
(-0.0101015 0.00349453 0)
(-0.00964765 0.00231584 0)
(-0.00914006 0.00128972 0)
(-0.00859074 0.000412822 0)
(-0.0080074 -0.000317672 0)
(-0.00739321 -0.00090593 0)
(-0.00674708 -0.00135923 0)
(-0.00606451 -0.00168928 0)
(-0.0053393 -0.00191272 0)
(-0.00456525 -0.00204995 0)
(-0.00140746 0.048884 0)
(-0.00282889 0.0403331 0)
(-0.0041393 0.033847 0)
(-0.00516443 0.0287708 0)
(-0.00603989 0.0245537 0)
(-0.00677031 0.0208777 0)
(-0.00733636 0.0176348 0)
(-0.00773904 0.0147631 0)
(-0.00798918 0.012214 0)
(-0.00810056 0.00994662 0)
(-0.0080879 0.00792747 0)
(-0.00796626 0.00612944 0)
(-0.00775045 0.00453144 0)
(-0.00745463 0.00311764 0)
(-0.00709169 0.00187659 0)
(-0.0066727 0.000799905 0)
(-0.00620627 -0.00011907 0)
(-0.00569819 -0.000886811 0)
(-0.00515117 -0.00151113 0)
(-0.004565 -0.00200243 0)
(-0.00393717 -0.00237459 0)
(-0.0032641 -0.0026451 0)
(-0.0025422 -0.00283392 0)
(-0.000702754 0.0504748 0)
(-0.00148391 0.0415492 0)
(-0.00231029 0.0347658 0)
(-0.00294894 0.0295395 0)
(-0.00353503 0.0252356 0)
(-0.00406053 0.0214439 0)
(-0.0044942 0.0180684 0)
(-0.00482286 0.0150653 0)
(-0.00504729 0.0123919 0)
(-0.00517195 0.0100101 0)
(-0.00520287 0.00788711 0)
(-0.00514709 0.00599641 0)
(-0.00501225 0.0043168 0)
(-0.00480618 0.00283198 0)
(-0.0045365 0.00152942 0)
(-0.00421013 0.000399248 0)
(-0.00383277 -0.000567206 0)
(-0.00340855 -0.00137873 0)
(-0.00293976 -0.00204548 0)
(-0.00242682 -0.00257998 0)
(-0.00186861 -0.00299755 0)
(-0.00126334 -0.00331624 0)
(-0.000609173 -0.00355569 0)
(0.000176545 0.0509794 0)
(2.56407e-06 0.0421689 0)
(-0.000415587 0.0352811 0)
(-0.000734683 0.0300049 0)
(-0.00107416 0.0256789 0)
(-0.00140743 0.0218438 0)
(-0.00171218 0.018399 0)
(-0.00196995 0.0153182 0)
(-0.00217162 0.0125645 0)
(-0.00231191 0.0101027 0)
(-0.00238802 0.00790224 0)
(-0.00239913 0.00593756 0)
(-0.00234597 0.00418844 0)
(-0.00223052 0.00263905 0)
(-0.00205559 0.001277 0)
(-0.00182442 9.20053e-05 0)
(-0.00154022 -0.000925359 0)
(-0.00120578 -0.00178503 0)
(-0.00082305 -0.00249854 0)
(-0.000392943 -0.00307969 0)
(8.46502e-05 -0.00354481 0)
(0.000610309 -0.00391239 0)
(0.00118477 -0.00420183 0)
(0.00104398 0.0502452 0)
(0.00148823 0.0422545 0)
(0.0014748 0.0354468 0)
(0.00143473 0.0302209 0)
(0.00130874 0.0259155 0)
(0.0011442 0.0220887 0)
(0.000955724 0.0186337 0)
(0.000759559 0.0155271 0)
(0.000573762 0.0127357 0)
(0.000413081 0.0102275 0)
(0.000288764 0.00797466 0)
(0.000209067 0.00595396 0)
(0.000179669 0.00414706 0)
(0.000204 0.00253974 0)
(0.00028357 0.00112077 0)
(0.000418356 -0.000119318 0)
(0.000607236 -0.00118964 0)
(0.000848488 -0.00210025 0)
(0.00114031 -0.00286319 0)
(0.0014813 -0.003493 0)
(0.00187076 -0.00400675 0)
(0.00230843 -0.00442338 0)
(0.00279446 -0.00476225 0)
(0.00174529 0.0484626 0)
(0.00282201 0.0417336 0)
(0.00325627 0.0352621 0)
(0.00349372 0.0302017 0)
(0.00357351 0.0259689 0)
(0.00355834 0.0221986 0)
(0.00346455 0.0187879 0)
(0.00331391 0.0157033 0)
(0.00313292 0.0129132 0)
(0.00294455 0.0103894 0)
(0.00276754 0.00810736 0)
(0.0026168 0.00604714 0)
(0.00250379 0.00419333 0)
(0.00243677 0.00253431 0)
(0.00242108 0.00106111 0)
(0.0024595 -0.000233847 0)
(0.00255265 -0.00135832 0)
(0.00269954 -0.00232154 0)
(0.00289828 -0.00313533 0)
(0.00314684 -0.00381456 0)
(0.00344369 -0.00437698 0)
(0.00378804 -0.0048422 0)
(0.00417985 -0.0052298 0)
(0.00222557 0.0458339 0)
(0.00391556 0.0405794 0)
(0.00484164 0.0346992 0)
(0.00539405 0.0299298 0)
(0.00568288 0.0258493 0)
(0.0057948 0.0221982 0)
(0.00577067 0.0188825 0)
(0.0056466 0.015862 0)
(0.00545716 0.0131077 0)
(0.00523232 0.0105952 0)
(0.00499721 0.00830425 0)
(0.0047725 0.00621906 0)
(0.00457468 0.00432788 0)
(0.00441625 0.00262259 0)
(0.00430595 0.00109752 0)
(0.00424898 -0.000252071 0)
(0.0042474 -0.00143152 0)
(0.00430067 -0.00244837 0)
(0.0044065 -0.00331351 0)
(0.00456191 -0.00404186 0)
(0.00476441 -0.00465201 0)
(0.00501276 -0.00516464 0)
(0.00530716 -0.00560008 0)
(0.00255679 0.0425536 0)
(0.00481703 0.0388315 0)
(0.00622902 0.0337241 0)
(0.00710342 0.0293871 0)
(0.00758944 0.0255695 0)
(0.00780696 0.0221104 0)
(0.00783152 0.0189383 0)
(0.00771662 0.0160193 0)
(0.00750578 0.0133302 0)
(0.00723559 0.0108521 0)
(0.00693684 0.00856973 0)
(0.00663513 0.00647188 0)
(0.0063513 0.0045513 0)
(0.00610155 0.00280416 0)
(0.00589758 0.00122886 0)
(0.00574677 -0.00017549 0)
(0.00565245 -0.00141088 0)
(0.00561434 -0.00248217 0)
(0.00562942 -0.00339865 0)
(0.00569326 -0.00417493 0)
(0.00580202 -0.00483084 0)
(0.00595402 -0.00538899 0)
(0.00615015 -0.00587108 0)
(0.00283842 0.0387421 0)
(0.00561924 0.0365498 0)
(0.00745852 0.032357 0)
(0.00861053 0.0285934 0)
(0.00926164 0.0251512 0)
(0.00956151 0.0219553 0)
(0.00961511 0.0189736 0)
(0.00949311 0.0161898 0)
(0.00924863 0.0135916 0)
(0.00892474 0.0111673 0)
(0.00855723 0.00890799 0)
(0.00817589 0.00680765 0)
(0.00780509 0.00486411 0)
(0.00746416 0.00307842 0)
(0.00716744 0.00145376 0)
(0.00692442 -6.16348e-06 0)
(0.00673975 -0.00129901 0)
(0.00661345 -0.00242595 0)
(0.00654152 -0.00339363 0)
(0.00651735 -0.00421597 0)
(0.00653495 -0.00491468 0)
(0.0065922 -0.0055157 0)
(0.00669121 -0.00604306 0)
(0.00313707 0.034432 0)
(0.00637908 0.0337988 0)
(0.00856649 0.0306677 0)
(0.00993083 0.0276019 0)
(0.010698 0.0246281 0)
(0.0110466 0.0217576 0)
(0.0111051 0.0190074 0)
(0.0109584 0.016388 0)
(0.0106682 0.0139019 0)
(0.0102831 0.0115473 0)
(0.00984277 0.00932262 0)
(0.00938007 0.00722794 0)
(0.00892193 0.0052666 0)
(0.00849006 0.00344487 0)
(0.00810118 0.00177102 0)
(0.00776697 0.000253936 0)