/*--------------------------------*- C++ -*----------------------------------*\
  =========                 |
  \\      /  F ield         | OpenFOAM: The Open Source CFD Toolbox
   \\    /   O peration     | Website:  https://openfoam.org
    \\  /    A nd           | Version:  9
     \\/     M anipulation  |
\*---------------------------------------------------------------------------*/
FoamFile
{
    format      ascii;
    class       volVectorField;
    location    "36.95";
    object      U;
}
// * * * * * * * * * * * * * * * * * * * * * * * * * * * * * * * * * * * * * //

dimensions      [0 1 -1 0 0 0 0];

internalField   nonuniform List<vector> 
918
(
(2.47629 -0.138943 0)
(0.108704 0.722546 0)
(0.171808 1.05407 0)
(2.31834 0.153728 0)
(-0.0596693 1.27072 -1.22319e-19)
(-0.0924034 0.643931 -5.3137e-18)
(0.530074 0.849722 -2.95295e-19)
(0.274313 0.152869 -2.98831e-20)
(3.00615 -0.0195607 0)
(-0.00827383 0.477059 0)
(-0.0172407 0.589754 0)
(0.605211 0.00676638 0)
(0.0107054 0.439105 0)
(-0.00288244 0.421689 0)
(0.013437 0.340814 -1.30507e-18)
(-0.00468959 0.768537 -9.20431e-20)
(0.312396 0.0742683 2.15203e-18)
(0.0797493 0.642618 -2.22883e-19)
(1.52884 0.128628 0)
(-0.0267234 0.685655 0)
(0.194583 0.157717 -1.26548e-18)
(3.08302 -0.397373 0)
(2.92445 -0.50598 0)
(1.86116 -0.1811 0)
(0.511381 0.0400857 0)
(-0.0253686 0.52155 0)
(-0.00135313 0.494038 1.86234e-18)
(-0.0223861 1.4009 0)
(0.074985 2.88441 0)
(0.168315 1.73699 0)
(-0.0381874 3.16478 0)
(0.0273566 1.63998 9.4052e-20)
(0.0233466 0.686457 0)
(-0.147425 0.775094 -2.0308e-22)
(-0.193914 1.0291 4.42113e-18)
(-0.0415772 1.04471 0)
(0.744579 -0.00600496 0)
(0.160998 0.246299 6.65497e-19)
(0.99359 1.5132 6.52721e-19)
(0.649998 0.78445 -5.15913e-19)
(0.798681 1.57539 6.19825e-20)
(0.41686 0.851525 -3.2002e-19)
(0.552303 0.306553 2.93896e-20)
(0.296959 0.153641 0)
(0.963034 0.566595 0)
(0.532581 0.303936 1.32008e-19)
(0.257966 0.162784 -1.35459e-19)
(0.871596 -0.0554787 0)
(3.02784 -0.00170478 0)
(3.00685 0.0178656 0)
(3.20086 -0.417733 0)
(3.04288 -0.0742117 0)
(3.03116 -0.0388406 0)
(0.0185922 0.902895 -1.14617e-18)
(-0.0542665 0.974528 0)
(0.0028373 0.455183 0)
(-0.0291717 0.981654 0)
(-0.0114142 0.481456 0)
(-0.00136015 0.869641 0)
(-0.0521373 1.11142 0)
(-0.0125615 0.542026 0)
(-0.025387 1.16287 0)
(-0.00593286 0.622063 0)
(0.79048 0.0116245 0)
(1.16942 -0.00156163 0)
(0.618247 0.0123698 0)
(1.12578 0.0175987 0)
(0.569758 0.00867947 0)
(0.225406 0.921982 1.95971e-18)
(0.0985379 1.2081 0)
(0.176302 1.06604 0)
(0.0331901 0.755774 2.19923e-23)
(0.0372233 0.498055 -2.93091e-18)
(0.0194616 0.747943 0)
(0.00595421 0.422033 0)
(-0.000695291 0.734548 4.5172e-24)
(0.000702489 0.414825 0)
(-0.0169204 0.743179 0)
(-0.0129372 0.42798 0)
(0.0494335 0.649971 0)
(0.0484367 0.458217 0)
(0.0080046 0.621948 1.23392e-18)
(0.000744424 0.344903 0)
(-0.0675549 4.69167 0)
(0.00896123 1.45775 9.13797e-20)
(-0.0104486 0.7852 -1.17638e-19)
(0.636082 0.152145 -7.50908e-19)
(0.321612 0.0656844 -7.2867e-19)
(0.644786 0.169721 -2.25454e-18)
(0.31753 0.0955703 -1.45148e-18)
(0.0785188 0.618343 0)
(0.178559 1.31397 1.84819e-19)
(0.17972 0.730333 -2.94881e-19)
(2.06031 0.260946 0)
(1.10704 0.11845 0)
(3.03313 0.103887 0)
(3.10392 0.446059 0)
(2.83919 0.377459 -1.01275e-17)
(2.5781 0.361309 7.77099e-18)
(-0.0706556 1.26349 0)
(-0.0113312 0.62346 0)
(-0.0138044 1.90087 0)
(-0.0507301 1.34697 0)
(-0.04801 0.67922 0)
(0.440307 0.295625 4.00648e-19)
(0.225462 0.163358 0)
(2.2961 -0.266393 0)
(1.32372 -0.119273 0)
(1.07632 0.012669 0)
(1.01198 0.0187649 0)
(0.540922 0.0108513 0)
(1.01987 0.0563999 0)
(0.821213 0.0703255 0)
(0.343622 0.0286956 3.36282e-18)
(-0.00543499 0.451601 1.7734e-18)
(-0.0270312 0.784627 0)
(-0.0473174 0.847507 0)
(-0.0152739 0.460435 0)
(0.000132505 0.839725 1.81588e-18)
(7.30142e-05 0.48753 0)
(-0.0054789 0.845554 -5.59005e-18)
(-0.00488634 0.496761 1.88624e-18)
(0.0547638 3.56659 0)
(0.0434837 4.02558 0)
(-0.0162236 1.41043 -2.05144e-21)
(-0.0130539 1.36306 0)
(-0.00977382 0.741325 0)
(1.41018 0.0348844 0)
(0.760549 0.0154388 0)
(0.709514 0.0142644 0)
(1.41618 -0.0328481 0)
(0.773515 -0.00873969 0)
(0.322051 0.480341 -8.35556e-19)
(0.156803 0.232716 0)
(0.324952 0.509156 9.36415e-20)
(0.163357 0.268427 0)
(1.24082 1.38692 1.66426e-19)
(0.7787 0.740872 -3.92386e-19)
(0.411609 1.42224 0)
(0.60721 1.53412 0)
(0.303559 0.814846 0)
(0.145325 0.353367 -4.4281e-19)
(0.6073 0.280717 0)
(0.313509 0.134638 3.98803e-19)
(1.42734 1.30676 0)
(1.5867 1.16856 0)
(0.87492 0.663929 4.61679e-19)
(1.73393 0.95311 0)
(1.0686 0.438781 2.32222e-20)
(1.47298 0.00813855 0)
(1.501 -0.029239 0)
(0.801896 -0.00441617 0)
(1.95042 -0.199779 0)
(1.65082 -0.14818 0)
(1.05215 -0.0889696 0)
(3.06126 0.164853 0)
(3.03105 0.0687875 0)
(3.01022 0.0531594 0)
(0.0357052 1.60541 6.08159e-19)
(0.0178648 0.82691 0)
(0.0179244 1.69601 1.07967e-18)
(0.00302143 0.938727 -9.70656e-19)
(0.0646798 1.15248 1.87742e-19)
(0.0477102 0.98934 0)
(0.0401843 0.528773 0)
(-0.0286854 1.00573 0)
(-0.0069933 0.517627 0)
(0.0181312 1.6153 -4.43273e-21)
(-0.0180614 0.865417 0)
(-0.0539548 1.58381 -2.25772e-19)
(-0.0161246 0.820579 4.37262e-19)
(-0.00179019 1.03002 0)
(0.0102738 1.04425 0)
(5.00663e-05 0.5317 0)
(0.0106574 1.17136 0)
(0.00090682 0.612583 0)
(1.46831 -0.00370322 0)
(0.789219 0.00805996 0)
(1.44055 0.0331663 0)
(0.761793 -0.000557478 0)
(0.675382 0.00534462 0)
(1.26195 0.0166822 0)
(1.20239 0.0473083 0)
(0.65969 0.0155561 0)
(-0.00580051 1.42077 -1.702e-20)
(0.000184323 1.37708 0)
(0.00482013 0.732923 0)
(0.00172892 0.417221 0)
(0.284434 0.828749 0)
(0.253613 0.39973 -2.87114e-19)
(-0.00223276 0.635408 0)
(-0.00889721 0.367611 0)
(0.0118474 4.33811 0)
(-0.0484195 4.66414 0)
(-0.0178553 4.56609 0)
(-0.0718352 3.36726 2.04066e-20)
(-0.0576923 4.6027 0)
(-0.0515187 4.17979 0)
(0.00483719 0.818935 1.08126e-20)
(0.0142065 1.56207 1.65375e-19)
(-0.0358521 1.50258 1.20862e-19)
(-0.00744872 0.825734 0)
(0.664426 0.105708 1.15324e-18)
(0.325684 0.0441634 -1.13019e-18)
(0.149649 1.13327 0)
(0.100932 0.573362 -2.69214e-19)
(0.118099 1.23308 -8.74218e-19)
(0.0518392 0.687051 8.69718e-19)
(0.809201 0.0240635 0)
(1.55677 0.0476796 0)
(1.7097 0.127652 0)
(0.919845 0.0445228 0)
(0.00793304 1.18253 0)
(0.0258306 1.19059 0)
(0.0044999 0.62803 0)
(0.482103 0.315076 1.20354e-18)
(0.436839 0.309077 -1.38661e-18)
(0.234764 0.164172 0)
(1.93551 0.153003 1.15232e-19)
(1.13643 0.0932526 0)
(1.72436 0.118444 0)
(0.883732 0.0226955 0)
(0.67817 0.0857386 0)
(0.699712 0.0460597 -5.40729e-18)
(0.346727 0.0325964 1.99893e-18)
(0.00914743 0.807284 1.69357e-18)
(0.00222282 0.46251 4.08166e-20)
(-0.0108777 1.40842 -3.57988e-20)
(0.00613617 1.38675 1.3658e-18)
(-0.0149832 0.848955 6.29408e-20)
(-0.0119261 0.524486 -2.52895e-22)
(-0.107514 1.00068 -1.16483e-18)
(-0.0529602 1.3532 8.33956e-19)
(-0.0175323 1.35275 -1.3577e-18)
(1.42274 -0.0170845 0)
(1.44236 0.0203186 0)
(0.769872 -0.000177521 0)
(1.45218 0.0253834 0)
(1.36319 0.0462298 0)
(0.761541 0.0203071 0)
(1.30062 -0.00215352 0)
(1.31867 -0.00584862 0)
(0.695054 -0.000986383 0)
(0.304848 0.473392 -9.15161e-19)
(0.161354 0.242674 0)
(0.157149 0.30842 1.36928e-19)
(0.309579 0.585873 1.12208e-18)
(0.307394 0.548561 -6.64279e-19)
(0.156815 0.281891 1.2981e-18)
(0.278467 0.717661 2.18138e-18)
(0.148253 0.380833 3.93597e-19)
(0.636085 0.213092 1.53739e-18)
(0.625987 0.253602 3.993e-19)
(0.316618 0.115045 7.49235e-19)
(1.92132 0.714642 -5.99623e-19)
(1.1677 0.336109 -7.01843e-19)
(-0.0351262 1.70295 4.64078e-19)
(-0.01141 0.924705 0)
(1.6039 0.0239537 0)
(1.52191 0.065373 0)
(0.852935 0.026859 0)
(-0.00355883 1.38473 0)
(0.00507422 0.729574 2.49499e-18)
(0.00465032 0.731252 0)
(0.00207079 0.415097 -2.44203e-18)
(-0.0102751 1.38627 5.95623e-19)
(-0.00947264 1.4225 0)
(0.33654 0.488127 2.5794e-19)
(0.360029 0.54639 -8.62943e-19)
(0.171831 0.257812 7.81093e-19)
(-0.0256693 0.767468 -1.66252e-18)
(-0.0261519 0.689734 0)
(-0.0154343 0.412938 0)
(0.0302165 1.54772 -1.27024e-20)
(0.0314018 1.58033 -3.64862e-19)
(0.0178885 0.822423 -1.55889e-20)
(0.213321 1.04392 8.89905e-19)
(0.119632 0.508961 -5.92186e-19)
(0.0118607 1.48456 7.30487e-19)
(0.0557965 1.35057 -8.15302e-19)
(0.0267986 0.760246 3.53027e-20)
(0.00751361 1.36614 -3.80733e-18)
(-0.000214786 1.39326 4.40911e-18)
(0.00377339 0.829776 1.73282e-18)
(-0.0138288 0.805094 -1.72528e-18)
(-0.00430906 0.481399 -1.73845e-18)
(-0.0106511 1.41685 -4.49953e-18)
(-0.0152177 1.40032 4.58871e-18)
(0.286341 0.674743 0)
(0.299752 0.634588 -2.2875e-18)
(0.151927 0.331697 9.90258e-19)
(0.281182 0.795885 1.1849e-18)
(0.138788 0.427469 -1.82829e-18)
(2.05701 0.322588 4.15809e-19)
(2.05157 0.547736 0)
(1.21866 0.220985 -4.0176e-19)
(-0.0738479 1.63492 -4.80115e-21)
(-0.0141365 1.69031 0)
(-0.0157251 0.921723 0)
(0.227044 0.944356 -3.22741e-19)
(0.24819 0.866383 -7.06797e-19)
(0.128783 0.463213 1.32459e-18)
(3.16442 -0.442872 0)
(3.34728 -0.414685 1.81277e-18)
(0.062388 3.48482 0)
(0.0488538 2.80876 0)
(3.15925 0.249915 1.4192e-20)
(3.12355 0.506296 3.71204e-18)
(0.0234496 3.43205 -2.73867e-20)
(0.00931308 2.66375 0)
(-0.0416468 1.19604 1.55489e-18)
(0.190058 1.31637 0)
(3.47263 1.62513 -3.24719e-19)
(3.17427 0.272573 -2.96098e-20)
(3.14838 -0.118696 0)
(3.10047 -0.000403968 3.7312e-22)
(0.0439001 2.59055 0)
(0.157425 3.3004 0)
(-0.0549563 2.53476 0)
(-0.0230453 3.48793 3.15751e-19)
(-0.0248686 3.56885 1.99232e-19)
(2.63343 0.0488322 -1.36492e-20)
(3.04751 0.0311535 0)
(3.15793 0.0868418 0)
(-0.0507618 4.61731 0)
(-0.0457164 3.0827 0)
(-0.0718168 2.9365 0)
(0.652564 3.10615 2.65602e-19)
(3.33884 -0.422458 0)
(3.0114 -0.34581 0)
(3.1699 -0.0530367 2.27715e-18)
(3.2927 -0.3287 -2.74195e-18)
(3.1038 -0.125776 0)
(-0.0566384 4.51579 0)
(0.0168345 3.93585 0)
(0.00879827 4.26627 0)
(-0.0265414 3.09702 0)
(-0.0128851 2.85227 0)
(-0.0305086 2.42529 0)
(2.97423 -0.0031692 0)
(2.85043 0.0486288 -1.805e-20)
(2.24693 3.04945 -3.21476e-19)
(3.15695 0.0444553 -2.27822e-18)
(3.19037 0.278179 2.7693e-18)
(3.0828 0.117338 0)
(3.3954 0.328926 2.08724e-18)
(3.35695 0.484366 -2.7065e-18)
(3.07111 0.418429 0)
(-0.0547282 3.34611 0)
(0.0058407 3.27623 8.51764e-20)
(-0.0302696 2.57508 -6.03467e-20)
(3.70791 0.555324 2.26535e-18)
(3.47099 0.208502 0)
(-0.151984 1.27126 -2.16578e-18)
(-0.0624338 0.88216 -1.35025e-19)
(-0.0848395 1.33672 2.98538e-18)
(-0.0352373 1.27045 -8.99552e-19)
(-0.000496529 1.08841 0)
(-0.0266646 1.23955 6.94808e-19)
(-0.115054 1.38786 2.1464e-18)
(-0.05905 1.34056 -1.31404e-18)
(-0.0767368 1.32063 0)
(1.28928 0.597212 0)
(1.17725 0.682375 0)
(3.55666 2.02952 9.53447e-19)
(3.0499 1.93602 -1.19049e-18)
(3.83775 1.70663 0)
(3.38429 1.15687 0)
(3.34934 0.280496 -3.91673e-18)
(2.89884 0.173121 4.83965e-18)
(3.35145 -0.155478 0)
(2.85479 -0.0761355 0)
(3.43642 0.0430265 0)
(3.5938 0.145057 0)
(3.28683 0.119875 0)
(3.55033 0.298581 0)
(3.40841 0.293059 0)
(3.32755 0.218074 0)
(0.0972695 2.79214 0)
(0.034322 2.08064 0)
(0.12656 3.05292 0)
(0.0927622 2.20664 0)
(0.214716 3.59353 0)
(0.140087 2.67365 -5.58526e-19)
(0.0532742 3.60981 0)
(0.0112704 3.01332 4.0558e-19)
(-0.0244364 3.20232 -5.16985e-19)
(-0.0589977 2.7995 0)
(-0.0228741 2.20206 0)
(-0.0719189 2.90715 0)
(-0.0555203 2.04988 0)
(-0.106792 4.74915 -2.45535e-19)
(-0.0790922 3.93992 2.77268e-19)
(-0.0743079 3.80078 3.09066e-19)
(-0.0526726 3.01488 0)
(-0.104416 3.80223 -4.58642e-19)
(-0.037089 3.21338 -2.95044e-19)
(-0.0808891 4.78149 1.92534e-19)
(-0.0933955 4.46444 -3.50461e-19)
(-0.0686132 4.3342 -3.7892e-19)
(3.03133 0.088389 3.35849e-18)
(2.28959 0.032183 -4.22964e-18)
(2.89131 0.132847 -3.32742e-18)
(2.20957 0.0734902 4.15614e-18)
(3.36858 0.0277292 0)
(2.64307 -0.00265019 0)
(3.45416 0.0913606 0)
(3.32025 0.0192925 0)
(2.70666 0.00922907 0)
(3.68031 0.239652 0)
(3.43884 0.0960081 0)
(2.8637 0.0565212 0)
(-0.0210408 4.33497 -1.20274e-20)
(-0.0538159 4.65322 0)
(-0.059154 4.54882 0)
(-0.0746761 3.50358 8.77104e-20)
(-0.0373239 2.77702 -3.46497e-21)
(-0.079147 4.66997 1.13486e-19)
(-0.0931895 4.45867 -1.14684e-19)
(-0.0770426 3.95687 0)
(-0.0551947 3.87708 0)
(-0.0187192 3.99376 0)
(-0.0707265 3.25744 0)
(-0.0425747 2.30209 0)
(0.948797 3.6626 -6.08575e-19)
(0.921361 2.85395 -1.76265e-19)
(0.430107 2.05235 -2.28147e-19)
(0.252096 2.29855 6.96823e-19)
(1.0233 4.19965 2.63784e-19)
(3.43308 -0.167421 0)
(3.32213 -0.256546 0)
(2.88327 -0.189515 0)
(3.47032 -0.0643455 0)
(3.34581 -0.147864 0)
(3.44893 -0.261022 0)
(3.5195 -0.283601 0)
(3.57949 -0.281129 0)
(3.22413 0.0933887 3.61878e-18)
(2.55519 0.0645188 -4.5759e-18)
(3.09649 0.106579 -3.56224e-18)
(2.50909 0.0566756 4.43242e-18)
(2.24 3.41734 0)
(1.73986 2.94885 -4.45447e-19)
(2.56699 3.34917 -4.03096e-19)
(2.36974 2.52983 5.35758e-19)
(0.774412 1.2129 2.72192e-18)
(1.44675 0.216477 1.34309e-18)
(3.72257 0.304264 0)
(3.89316 0.572841 -1.84586e-18)
(3.29902 0.243967 -8.23344e-20)
(3.72079 0.440159 0)
(0.236572 1.31232 1.79589e-18)
(-0.0166671 1.20198 -2.87606e-18)
(0.0587901 0.769957 1.61436e-18)
(0.275915 0.46489 -7.47764e-19)
(0.187224 1.38373 8.70903e-19)
(0.050633 1.23716 0)
(0.0577271 1.08615 -1.13216e-18)
(0.191686 1.44296 -4.09171e-18)
(0.328962 1.55694 0)
(0.00867328 1.2902 1.19576e-19)
(-0.0097174 1.45729 -1.34011e-18)
(-0.0410144 1.30282 1.94823e-18)
(-0.0574433 1.41766 0)
(-0.0204757 1.38228 0)
(0.681027 1.04981 0)
(2.45663 2.45508 -1.0661e-18)
(2.64423 2.17395 3.95155e-19)
(2.79266 2.88278 0)
(3.21305 3.06784 -3.94513e-19)
(3.16607 2.41194 2.84649e-20)
(0.803624 0.589293 -1.82219e-18)
(1.55578 0.691423 -1.62181e-20)
(1.23283 0.450978 8.72071e-19)
(1.27491 0.843564 5.94994e-20)
(0.938715 0.633768 -2.36925e-18)
(1.46412 0.714101 0)
(1.98967 1.09965 1.45579e-18)
(2.03183 1.0156 0)
(1.41166 0.790624 0)
(1.06186 0.54963 0)
(3.37537 2.18024 1.0084e-18)
(3.94759 0.760957 -1.86319e-18)
(3.84794 1.21615 0)
(3.5339 0.757833 0)
(1.3913 0.364748 1.33237e-18)
(3.25789 1.84223 -8.51427e-19)
(2.8342 1.65438 1.5467e-18)
(3.75521 1.37711 -1.83572e-18)
(3.09793 0.114762 2.46383e-18)
(3.16856 0.180818 -2.57879e-18)
(2.66183 0.0916429 0)
(3.30731 -0.039495 0)
(3.20141 -0.0842557 -2.36637e-18)
(2.63244 -0.0321093 2.34553e-18)
(3.95629 0.093208 0)
(3.75968 0.145656 0)
(3.69369 0.155374 0)
(3.5883 0.204749 0)
(3.83261 0.0590328 0)
(3.72611 0.0522538 0)
(-0.0401454 2.51428 0)
(-0.0377551 2.01317 0)
(0.357 3.9903 -4.11307e-19)
(0.662943 3.3355 -1.59948e-19)
(0.259712 3.02961 -3.57869e-19)
(0.343898 2.54965 5.73223e-19)
(0.458315 4.01621 0)
(0.469815 4.672 -5.0983e-19)
(0.382995 4.73043 0)
(0.910894 4.37498 -3.7946e-19)
(0.672892 3.81362 9.6871e-19)
(0.597158 4.65375 4.469e-19)
(0.740821 4.20242 -1.87476e-19)
(0.602675 4.32781 1.50839e-19)
(0.916413 4.65787 -6.63686e-19)
(0.74983 4.66205 0)
(0.858441 4.5899 5.04477e-19)
(0.00700226 4.57129 -1.81133e-19)
(-0.0185538 3.64539 0)
(0.101506 4.28624 5.49597e-19)
(-0.00284511 4.38894 0)
(-0.00363183 3.45718 -4.50998e-19)
(-0.0152596 2.91054 0)
(-0.100029 4.30975 -2.89111e-19)
(-0.105645 4.6819 0)
(-0.0530213 3.80758 0)
(-0.0398357 3.73 3.25172e-19)
(-0.0468968 3.88625 1.03833e-20)
(-0.0345902 3.70752 6.25857e-19)
(-0.0410264 2.94766 4.06837e-21)
(-0.113563 4.71016 1.80194e-19)
(-0.102441 4.74194 1.03221e-19)
(-0.0166139 2.62469 0)
(0.00133145 2.13671 0)
(-0.0414609 4.78933 4.86244e-19)
(-0.0482857 4.31025 4.23927e-19)
(-0.082859 4.58585 -5.54174e-19)
(0.0164329 4.75857 0)
(-0.0774014 4.53445 -3.08917e-19)
(-0.116826 4.16738 1.27644e-19)
(-0.0840211 4.24816 -4.12799e-20)
(-0.0697003 4.72906 -2.18907e-19)
(-0.084903 4.26926 -6.85576e-20)
(-0.0833223 4.21416 3.06635e-19)
(2.87141 0.0610252 -2.36345e-18)
(2.85887 0.0497084 2.27293e-18)
(2.33859 0.0345588 0)
(3.51008 0.192041 3.04639e-18)
(2.70366 0.126547 -3.30462e-18)
(2.25448 0.0644881 3.60942e-18)
(3.68247 0.335347 -4.01623e-19)
(3.2099 -0.0485194 0)
(3.17213 -0.0135463 2.23692e-18)
(2.69091 -0.0123738 -2.21929e-18)
(3.87877 0.122256 -1.25233e-19)
(3.77177 0.101866 1.07829e-18)
(4.15977 0.173506 0)
(4.22847 0.181166 -3.75117e-19)
(4.01369 0.145247 0)
(3.69489 0.155415 0)
(4.0323 0.0950924 0)
(3.71179 0.0873371 0)
(4.18472 0.113898 7.8547e-19)
(4.1372 0.0791471 -1.74784e-18)
(4.14067 0.1139 -8.47975e-19)
(4.1864 0.116542 -9.24452e-19)
(4.2157 0.229033 1.77399e-18)
(3.85475 0.188643 0)
(4.06129 0.301941 0)
(-0.0712575 4.57976 -1.35712e-19)
(-0.0312833 4.6442 -1.16767e-20)
(-0.0644637 4.66078 0)
(-0.0540528 4.19584 1.38094e-19)
(-0.0522402 4.22357 2.25275e-20)
(-0.0571261 4.09143 -2.18333e-20)
(-0.0798311 3.52572 2.61147e-19)
(-0.142804 4.0058 -1.45128e-20)
(-0.101649 4.1333 7.47538e-20)
(-0.0737267 3.40168 -1.32249e-19)
(-0.0245417 2.92415 1.58381e-19)
(-0.0743955 4.42926 5.2089e-21)
(-0.0873721 4.64256 1.72196e-19)
(1.24332 4.3602 3.47354e-19)
(1.15947 4.52896 7.26006e-19)
(1.73682 3.46681 4.30737e-19)
(1.30882 3.56127 1.69444e-19)
(1.2866 2.89008 0)
(0.548288 2.3182 2.74847e-19)
(0.463419 1.74114 3.30637e-19)
(0.344913 2.5666 1.50878e-20)
(0.491861 3.17234 -1.16115e-18)
(0.63131 3.1314 8.76385e-19)
(0.432559 2.40382 0)
(0.29344 1.97139 -5.57178e-19)
(0.259638 3.0767 1.39449e-18)
(0.273177 2.71864 -3.13789e-20)
(0.157796 2.27539 -1.74772e-18)
(0.5913 1.41084 1.46318e-18)
(0.576227 1.61654 0)
(3.58364 -0.0751493 8.6431e-20)
(3.61861 -0.254101 -7.25947e-20)
(3.72135 -0.217712 -1.26651e-18)
(3.75927 -0.126018 1.28239e-18)
(3.67616 -0.0488552 0)
(2.4463 3.87167 0)
(2.61781 3.91474 0)
(2.88945 3.62564 0)
(2.73612 3.64273 0)
(0.854085 1.39427 -3.3397e-21)
(0.611424 1.03897 0)
(1.70874 3.3839 1.502e-20)
(1.42062 3.46288 0)
(1.32626 2.95006 -1.28359e-18)
(1.40676 2.89279 8.24331e-19)
(1.79125 0.310396 0)
(1.43043 0.262016 3.52048e-19)
(2.41163 0.358828 2.19168e-18)
(1.78605 0.284835 -7.85389e-19)
(1.4263 0.112198 -2.49487e-18)
(4.26631 0.790109 -2.56534e-18)
(3.85195 0.995216 -3.67211e-20)
(3.29689 0.844639 2.06774e-18)
(3.87577 0.745475 1.81319e-18)
(3.12305 0.465689 -3.0449e-18)
(2.91021 0.452162 3.74971e-19)
(3.19247 0.682316 -8.18678e-19)
(2.97607 0.683406 0)
(3.75865 0.563997 1.53758e-18)
(4.09565 0.629411 0)
(4.09117 0.776487 0)
(4.04578 0.415931 8.23632e-19)
(4.29665 0.642599 -3.02466e-20)
(4.24947 0.715923 -4.52857e-19)
(4.1766 0.643306 0)
(3.61567 0.130421 1.71811e-18)
(4.19 0.183608 2.14411e-18)
(4.09068 0.151665 -1.67935e-18)
(4.13651 0.240885 -1.44279e-18)
(3.74573 0.238222 -2.15629e-18)
(3.30287 0.37597 0)
(3.40342 0.302415 0)
(2.55811 0.190652 -1.266e-18)
(2.10846 0.119116 4.76746e-19)
(4.03722 0.352635 1.94026e-18)
(4.28774 0.432862 -2.34638e-18)
(4.28488 0.489491 2.0688e-18)
(4.15712 0.493548 0)
(4.25664 0.337318 0)
(4.26651 0.322403 -9.81898e-19)
(4.2143 0.316173 -1.59645e-18)
(2.22659 3.48711 6.20437e-19)
(1.93734 3.2307 -6.83312e-19)
(1.44555 2.35529 -1.03181e-18)
(1.18627 1.99616 2.66825e-19)
(0.883691 1.37804 -2.62847e-18)
(0.793606 1.21535 9.22055e-19)
(0.600726 0.903875 -1.97206e-21)
(1.11446 1.78461 -1.13777e-18)
(1.14177 1.88169 1.69847e-18)
(0.974287 1.70003 5.06035e-19)
(0.785892 1.28857 -5.12651e-19)
(0.635375 1.07435 0)
(2.44548 2.60673 -1.15428e-19)
(0.705127 1.14418 8.57179e-19)
(0.927703 0.889677 1.15612e-18)
(0.755234 0.813585 1.33766e-18)
(1.08305 0.746496 1.34108e-18)
(1.46685 1.04428 -2.27015e-18)
(1.38288 1.07117 1.83932e-18)
(1.00176 0.765484 -6.76712e-19)
(0.817004 0.56799 1.49455e-18)
(1.61548 0.490748 -7.78075e-19)
(1.55893 0.50832 0)
(1.23953 0.407329 4.60572e-21)
(2.50913 1.51587 7.75519e-19)
(2.07974 1.27012 -2.80845e-18)
(1.68659 1.18436 9.08668e-21)
(1.66065 1.09231 0)
(2.86198 2.59507 8.73751e-19)
(3.44674 2.75291 1.0374e-18)
(3.25575 2.93079 -1.19588e-18)
(3.5542 2.76347 -4.28355e-19)
(3.4843 2.60377 -1.34881e-19)
(3.51246 2.79521 1.38773e-19)
(3.6742 2.26707 -1.67933e-18)
(3.70518 2.49211 4.00714e-19)
(3.78367 2.43591 0)
(3.78446 2.19166 -5.79668e-19)
(4.04895 1.07334 5.80528e-19)
(4.27597 0.993191 1.00209e-18)
(4.30041 0.9669 1.01161e-18)
(4.05502 1.32937 -1.14956e-18)
(4.10288 1.3498 0)
(4.15253 1.23376 0)
(3.32765 1.23573 -1.56067e-20)
(2.41769 0.666488 0)
(2.72182 0.744042 9.30608e-19)
(3.23823 0.885954 -2.64568e-20)
(3.77286 1.53469 5.10718e-18)
(3.56976 1.76191 1.31105e-18)
(3.4809 1.54048 -1.34059e-18)
(3.0373 1.36977 1.43736e-18)
(2.76059 1.36964 8.23722e-19)
(2.30651 1.15588 -7.97757e-19)
(3.67221 -0.0855425 1.98455e-18)
(3.8947 -0.0289321 0)
(3.85894 -0.0665485 1.34202e-18)
(3.74291 -0.0594082 -2.98763e-18)
(3.98056 0.0373781 1.46191e-18)
(3.90444 0.113427 -3.08282e-18)
(3.73986 0.128037 0)
(3.55625 0.173471 -6.28523e-19)
(3.81197 0.122982 1.60522e-18)
(3.69195 0.191385 -8.22527e-19)
(3.6003 0.171079 5.90693e-19)
(-0.0801772 2.59281 0)
(-0.0467594 3.40002 0)
(-0.0319195 2.46365 0)
(-0.0215794 1.97214 0)
(0.0462711 3.94234 6.70637e-19)
(0.140143 3.72381 -1.72929e-19)
(0.317223 4.64493 -2.29735e-19)
(0.252998 4.4624 2.42634e-19)
(-0.024772 4.29512 -4.97556e-19)
(0.0122181 4.32716 3.73623e-19)
(0.0958463 3.87114 2.22707e-20)
(0.00994227 3.55863 -4.6708e-19)
(-0.012301 3.31041 -6.22658e-20)
(-0.0390809 3.67262 -5.67399e-20)
(0.153239 4.47421 -5.86967e-19)
(0.178438 4.28759 0)
(0.275732 4.63464 2.9641e-19)
(0.268957 4.70946 2.52977e-19)
(0.595862 4.44409 -2.26019e-19)
(0.408014 3.77968 0)
(0.457164 3.62754 -1.11478e-18)
(0.559804 3.99641 7.8991e-19)
(0.480039 4.56162 -6.14787e-19)
(0.370444 4.43184 3.30763e-19)
(0.299387 4.15328 0)
(-0.0342401 4.76165 -5.53264e-19)
(-0.0740502 4.52586 -6.41451e-19)
(-0.0751914 4.73923 0)
(-0.0284462 4.35881 -6.24744e-21)
(-0.0185384 4.6407 2.74269e-19)
(-0.11804 3.88329 4.47131e-20)
(-0.054903 3.48803 -6.53883e-19)
(-0.0950655 3.92611 1.74198e-19)
(-0.134948 4.5188 2.32419e-19)
(-0.0755543 4.32923 0)
(-0.0592977 3.88818 0)
(-0.0818737 2.90002 2.00912e-19)
(-0.047206 3.63367 -6.26939e-20)
(-0.0723788 3.62111 0)
(-0.087942 2.68895 1.58187e-19)
(-0.0462059 2.19528 -3.06497e-19)
(3.76103 0.0323495 0)
(3.7319 0.00775168 -2.0327e-19)
(4.1795 0.0679725 -1.4399e-18)
(4.08911 0.0463226 0)
(3.87634 0.0178333 0)
(4.14973 0.0370671 -1.2525e-20)
(4.1003 0.0349605 2.37886e-18)
(4.0001 0.0802231 2.84559e-18)
(3.75586 0.118678 0)
(3.55801 0.110063 0)
(4.01332 0.0939751 1.41743e-18)
(3.70324 0.11615 0)
(3.47209 0.128887 0)
(-0.0806756 4.69943 0)
(-0.106083 4.66801 1.06722e-20)
(-0.0765521 4.71957 6.2965e-20)
(-0.0603718 3.83387 0)
(-0.111725 4.53639 1.11256e-19)
(-0.0674379 4.24193 -6.33843e-20)
(-0.0536111 3.93128 0)
(1.41003 4.18544 0)
(1.20929 4.58052 -1.29799e-18)
(1.22459 4.48824 0)
(1.5739 4.48726 1.48436e-18)
(1.59328 4.12149 0)
(1.50163 4.37175 -6.06515e-19)
(1.01129 2.24235 -3.39447e-20)
(0.709041 1.64519 -1.74449e-18)
(0.590587 1.22734 2.12844e-18)
(0.708595 1.83469 3.96769e-19)
(0.974852 2.42381 0)
(1.03623 2.3789 0)
(0.718254 1.6871 0)
(0.532241 1.32993 -1.39507e-18)
(1.2085 3.7745 -9.83387e-19)
(1.1286 2.98852 -2.35479e-19)
(1.32669 3.40458 1.92581e-19)
(0.599138 2.04053 0)
(0.620091 1.94232 0)
(0.46214 1.57088 -3.92672e-19)
(0.957476 2.72006 0)
(2.6871 3.57099 0)
(2.38111 3.00845 -1.4545e-18)
(2.54576 3.02685 -8.5871e-20)
(2.41959 3.40426 0)
(2.28549 3.14925 2.221e-18)
(3.27797 3.08683 -3.89681e-19)
(3.13406 3.32509 0)
(3.11645 3.15145 6.30411e-19)
(2.87041 3.4127 0)
(2.88189 3.20076 0)
(1.20909 2.00606 -9.3036e-19)
(1.41386 2.40305 -6.99483e-19)
(1.75334 2.98148 1.20592e-18)
(1.69552 2.95947 -3.62223e-19)
(1.06226 1.82199 0)
(1.20667 2.2082 4.71079e-19)
(0.718332 1.28854 -7.15153e-19)
(0.581551 1.04334 -5.6019e-22)
(1.93703 3.69544 0)
(2.19888 3.74284 -5.42579e-19)
(2.33812 3.98622 0)
(2.28407 0.529021 0)
(1.61734 0.34191 0)
(1.20901 0.276587 0)
(2.20912 0.554268 -1.46518e-18)
(1.63527 0.402197 8.17202e-19)
(2.14561 0.129125 -9.85118e-19)
(2.62659 0.297533 0)
(2.46566 0.30165 4.13467e-19)
(1.76987 0.13572 1.63291e-18)
(1.53025 0.0812685 -1.03699e-18)
(0.745488 1.55582 8.57986e-19)
(0.959701 1.82028 0)
(0.537614 1.43995 1.56077e-18)
(0.523803 1.61476 -1.42514e-18)
(0.757112 1.8144 -9.88279e-19)
(2.07324 2.46253 1.33762e-18)
(2.09657 2.71192 0)
(1.58336 1.67801 -2.76329e-19)
(2.00955 1.98935 1.74496e-18)
(1.35976 1.29252 -4.23554e-19)
(1.58856 1.31337 4.50659e-19)
(2.10949 1.51318 1.02312e-18)
(2.44262 1.67093 0)
(2.27591 1.85603 0)
(2.00982 1.60596 0)
(3.9568 2.07992 3.84472e-19)
(3.75979 1.8898 -1.26348e-18)
(3.8172 2.02813 1.04671e-18)
(3.90105 1.77152 -1.00826e-18)
(4.15789 1.67393 0)
(4.11697 1.84114 -2.97817e-19)
(2.84042 1.16333 -1.8972e-18)
(2.97079 1.16344 -2.41288e-18)
(2.33193 1.04356 1.45635e-18)
(2.13822 0.934431 -1.41976e-18)
(2.46346 0.846176 -1.17805e-18)
(2.17853 0.776945 1.44876e-18)
(4.00845 0.0334778 -1.52883e-18)
(4.05276 0.0406921 3.13008e-18)
(3.76797 -0.065879 1.90082e-18)
(3.79119 -0.0737696 -2.28668e-18)
(3.95955 0.0105769 0)
(4.05604 0.0228815 -3.72966e-18)
(0.0965411 4.76148 1.06543e-19)
(0.0673611 4.73215 0)
(0.189399 4.73147 9.53519e-19)
(0.210978 4.74924 -8.67479e-19)
(0.230873 4.7191 4.28435e-19)
(0.121868 4.65921 0)
(-0.10074 4.77114 0)
(-0.106534 4.40456 -6.18481e-20)
(-0.105431 4.33385 5.54364e-20)
(-0.11416 4.48262 7.18671e-21)
(-0.104841 4.72122 -1.01164e-19)
(-0.0819724 4.70885 5.50869e-20)
(1.87527 4.00954 -1.64316e-18)
(1.81623 4.01602 1.74009e-18)
(1.68394 4.40661 -8.54189e-19)
(1.69263 4.27726 7.61199e-20)
(2.25267 4.08666 0)
(1.85456 4.22026 -6.35426e-19)
(1.98181 3.9601 6.1627e-19)
(1.82384 4.38116 8.34384e-19)
(2.07657 4.2194 0)
(2.22802 4.1004 0)
(1.13806 3.6305 1.49492e-18)
(0.826414 2.81094 2.0231e-18)
(0.954125 2.98932 -1.38945e-18)
(0.746338 2.97093 -2.31872e-19)
(0.902161 3.73 4.66263e-19)
(0.721874 3.36248 -1.13391e-18)
(0.745612 1.46549 -1.21465e-18)
(0.746093 1.31672 0)
(0.602448 1.11431 -1.33507e-18)
(1.11072 2.06368 0)
(1.08768 2.15061 0)
(1.35837 2.19066 -1.09048e-18)
(1.0643 2.01401 -1.0359e-18)
(1.01667 2.03491 1.09858e-18)
(1.03094 1.51906 0)
(1.41014 1.76162 -6.0117e-19)
(1.62704 2.1188 -8.55365e-19)
(1.41058 2.08242 0)
(0.867662 1.81829 7.12386e-19)
(0.779579 1.67937 0)
(2.90584 2.2888 -1.84697e-18)
(3.31875 2.47056 2.60916e-18)
(3.27745 2.19306 -2.59324e-18)
(2.61011 2.02076 -2.31166e-19)
(2.72472 1.94025 -9.741e-19)
(1.26166 2.18954 7.96084e-19)
(1.31579 2.24434 -1.35977e-18)
(1.45382 2.32931 1.79261e-18)
(1.79 2.55929 -1.16512e-18)
(1.88856 2.93199 -1.56706e-18)
(1.56285 2.48836 -1.1879e-19)
(1.63257 2.62788 1.37112e-18)
(1.80967 2.69276 9.66071e-20)
(2.01754 2.99847 6.49934e-19)
)
;

boundaryField
{
    wall-4
    {
        type            noSlip;
    }
    velocity-inlet-5
    {
        type            fixedValue;
        value           uniform (3 0 0);
    }
    velocity-inlet-6
    {
        type            fixedValue;
        value           uniform (0 1 0);
    }
    pressure-outlet-7
    {
        type            zeroGradient;
    }
    wall-8
    {
        type            noSlip;
    }
    frontAndBackPlanes
    {
        type            empty;
    }
}


// ************************************************************************* //
