/*--------------------------------*- C++ -*----------------------------------*\
  =========                 |
  \\      /  F ield         | OpenFOAM: The Open Source CFD Toolbox
   \\    /   O peration     | Website:  https://openfoam.org
    \\  /    A nd           | Version:  9
     \\/     M anipulation  |
\*---------------------------------------------------------------------------*/
FoamFile
{
    format      ascii;
    class       volScalarField;
    location    "1.13";
    object      epsilon;
}
// * * * * * * * * * * * * * * * * * * * * * * * * * * * * * * * * * * * * * //

dimensions      [0 2 -3 0 0 0 0];

internalField   nonuniform List<scalar> 
2268
(
0.011253
0.0372057
0.0651923
0.0968738
0.134928
0.187434
0.263219
0.362953
0.475738
0.583713
0.680061
0.755634
0.804183
0.833424
0.85874
0.892607
0.943511
1.01404
1.09016
1.04904
0.80965
0.395998
0.0880881
0.0197462
0.0280223
0.0418403
0.0569538
0.074115
0.096834
0.1291
0.172481
0.224322
0.279329
0.335352
0.389428
0.437122
0.472073
0.492054
0.500915
0.504958
0.513126
0.528322
0.510161
0.426717
0.260827
0.11246
0.0333096
0.0324724
0.0424983
0.0548683
0.0700163
0.0905874
0.119033
0.155904
0.199204
0.2459
0.294739
0.344092
0.391132
0.427217
0.449152
0.459943
0.466729
0.477028
0.490737
0.483685
0.431581
0.311962
0.163008
0.0477967
0.0381418
0.0460503
0.0580301
0.0742464
0.09688
0.127432
0.165382
0.208383
0.254173
0.301961
0.35077
0.398368
0.436012
0.461737
0.478814
0.493673
0.511129
0.529978
0.533869
0.50506
0.416348
0.245982
0.0624778
0.0441058
0.0506651
0.0633675
0.0821093
0.108717
0.143819
0.185727
0.231443
0.279078
0.328205
0.378254
0.4272
0.4669
0.497133
0.521638
0.54556
0.571138
0.596484
0.613151
0.614345
0.579817
0.409032
0.0769009
0.0502281
0.0560134
0.070288
0.0926958
0.124728
0.166026
0.213561
0.263554
0.314471
0.366249
0.418616
0.469467
0.511592
0.546484
0.578277
0.61056
0.643375
0.674674
0.70476
0.744661
0.811698
0.824256
0.0907527
0.0564592
0.06204
0.0786937
0.105877
0.144694
0.193551
0.247846
0.302997
0.358057
0.413371
0.468869
0.522091
0.566846
0.606112
0.644229
0.683101
0.720824
0.756004
0.796474
0.875364
1.09287
1.6804
0.104381
0.0628246
0.0687752
0.0886478
0.121781
0.168756
0.226385
0.288221
0.348921
0.408673
0.468199
0.5275
0.583578
0.631044
0.674116
0.717114
0.760289
0.799915
0.835584
0.878655
0.974491
1.31919
3.20056
0.158855
0.190766
0.316144
0.679378
1.16723
1.68183
2.23771
2.47031
2.1456
1.86163
1.76393
1.68979
1.49292
1.27946
1.06751
0.841228
0.590406
0.321476
0.0599768
0.164302
0.183985
0.301314
0.537009
0.745334
0.87633
1.04
1.12928
1.04943
0.957073
0.902322
0.853037
0.772781
0.67935
0.574957
0.463213
0.342932
0.216327
0.108919
0.230284
0.229835
0.32836
0.504664
0.654641
0.725021
0.832587
0.910367
0.881823
0.821547
0.772474
0.729613
0.671775
0.598858
0.516114
0.427602
0.333187
0.237809
0.194797
0.300225
0.28293
0.36205
0.492386
0.616101
0.667979
0.752942
0.828523
0.836689
0.789773
0.743897
0.705636
0.658383
0.59449
0.520259
0.440592
0.356301
0.276637
0.298505
0.396947
0.348788
0.403488
0.49373
0.593228
0.64134
0.713852
0.786052
0.821795
0.785208
0.743994
0.711026
0.671838
0.61326
0.543475
0.46789
0.387932
0.31842
0.409746
0.584661
0.436418
0.450839
0.506736
0.581538
0.631329
0.69745
0.767723
0.811525
0.788489
0.752975
0.725904
0.693394
0.639003
0.573267
0.500911
0.422141
0.358166
0.515339
1.01033
0.551969
0.49858
0.527871
0.580957
0.63364
0.696706
0.765407
0.809974
0.79752
0.770463
0.747754
0.714784
0.664148
0.605775
0.537814
0.457482
0.394867
0.607851
1.91493
0.681997
0.547409
0.557651
0.59537
0.648405
0.708967
0.776453
0.822919
0.81513
0.79549
0.777496
0.742125
0.68961
0.640008
0.579036
0.493751
0.427934
0.680316
0.123024
0.0724212
0.0800452
0.106162
0.150115
0.211434
0.284097
0.358811
0.429403
0.497567
0.564531
0.630699
0.69208
0.744036
0.792097
0.840208
0.8864
0.924243
0.951682
0.979244
1.03276
1.1884
1.69532
0.14326
0.0850096
0.0980698
0.136957
0.201477
0.288558
0.386233
0.480156
0.563193
0.639166
0.712556
0.786156
0.853292
0.909823
0.962
1.01395
1.06375
1.10303
1.12177
1.11944
1.10441
1.10308
1.15358
0.159533
0.0975081
0.119141
0.175591
0.267265
0.386786
0.513544
0.626732
0.719456
0.799555
0.878195
0.964794
1.04821
1.11788
1.1754
1.22861
1.28078
1.32416
1.33354
1.29802
1.22333
1.13915
1.0736
0.172593
0.110474
0.143933
0.223189
0.349385
0.509023
0.668935
0.799206
0.896522
0.975449
1.05714
1.15872
1.28321
1.38932
1.45385
1.50629
1.56153
1.61477
1.60905
1.52706
1.38253
1.23084
1.10725
0.186826
0.125334
0.174033
0.281537
0.450383
0.659724
0.85697
0.996883
1.08907
1.16665
1.26368
1.40335
1.55935
1.6924
1.76785
1.82893
1.9109
1.98686
1.93304
1.76925
1.54013
1.32287
1.16549
0.207988
0.146071
0.212386
0.35305
0.573445
0.846584
1.08098
1.19359
1.25478
1.33403
1.45642
1.64341
1.93489
2.12147
2.08459
2.17054
2.32052
2.39136
2.23264
1.96688
1.63217
1.35358
1.17231
0.249263
0.177672
0.262892
0.440453
0.72301
1.08132
1.30515
1.30748
1.33962
1.42112
1.54734
1.71831
1.94749
2.14732
2.2855
2.39699
2.52285
2.54954
2.35848
1.98754
1.59333
1.30892
1.13614
0.319446
0.22357
0.328466
0.545706
0.904217
1.25193
1.33457
1.32989
1.36563
1.4449
1.54595
1.65937
1.80429
1.96157
2.13262
2.31162
2.42354
2.40797
2.17245
1.78836
1.44576
1.20327
1.05538
0.422546
0.280926
0.408036
0.641978
0.927915
1.13945
1.23809
1.29868
1.35817
1.4192
1.48027
1.54598
1.63603
1.75412
1.89893
2.04747
2.12768
2.05587
1.82456
1.52058
1.26008
1.07584
0.963599
0.579422
0.350934
0.469142
0.656799
0.851898
1.01263
1.1221
1.20963
1.27082
1.31163
1.35357
1.40633
1.46611
1.54922
1.65839
1.76342
1.81011
1.74221
1.53673
1.29062
1.08642
0.949818
0.873925
0.693601
0.385605
0.476077
0.627299
0.779122
0.906918
1.00775
1.08884
1.14353
1.17922
1.21123
1.24908
1.29288
1.34924
1.42964
1.51308
1.53251
1.44124
1.24925
1.06387
0.922529
0.830803
0.77721
0.71474
0.379954
0.447799
0.572696
0.699862
0.808251
0.897259
0.96993
1.02147
1.05412
1.07791
1.10131
1.12584
1.15185
1.18361
1.20888
1.18544
1.09404
0.975214
0.866182
0.782807
0.726226
0.692413
0.65748
0.343935
0.39727
0.502668
0.61336
0.709793
0.789464
0.854673
0.90289
0.933395
0.951629
0.964438
0.973923
0.978135
0.974841
0.956834
0.914743
0.854362
0.786323
0.723942
0.675053
0.641974
0.624355
0.560541
0.292567
0.335721
0.424984
0.522317
0.6099
0.682776
0.741943
0.786419
0.814867
0.829643
0.835309
0.834109
0.825082
0.806964
0.778725
0.741111
0.699006
0.656706
0.619477
0.59099
0.573321
0.567407
0.450841
0.237688
0.272458
0.346657
0.430975
0.509987
0.576971
0.631075
0.67182
0.69817
0.710948
0.712923
0.706321
0.691787
0.670054
0.642895
0.613399
0.584443
0.55783
0.535751
0.520211
0.512963
0.515315
0.347267
0.187602
0.214623
0.274076
0.344701
0.414049
0.474702
0.523984
0.561111
0.585392
0.597105
0.597997
0.590233
0.575463
0.555577
0.53319
0.511489
0.492035
0.475696
0.463473
0.456583
0.456429
0.464399
0.262269
0.147218
0.166826
0.212299
0.268882
0.327285
0.380579
0.424528
0.457802
0.479963
0.49126
0.492955
0.486867
0.47491
0.459252
0.442437
0.427219
0.414561
0.405045
0.399272
0.398069
0.402513
0.413773
0.20545
0.118952
0.131037
0.164195
0.207474
0.254131
0.298326
0.33606
0.365476
0.385869
0.397351
0.400817
0.397718
0.389788
0.378978
0.367429
0.357371
0.349553
0.344501
0.342721
0.344872
0.35181
0.364505
0.169236
0.100365
0.106432
0.129379
0.160827
0.196137
0.231041
0.262184
0.287539
0.306147
0.317872
0.32325
0.323325
0.319449
0.313164
0.306129
0.300074
0.295686
0.293489
0.293988
0.297778
0.30559
0.318244
0.146201
0.0883678
0.0902599
0.105526
0.127568
0.153229
0.179647
0.204318
0.225441
0.241972
0.253544
0.26036
0.263056
0.262562
0.259984
0.256532
0.253504
0.251543
0.25116
0.252858
0.257202
0.264841
0.276491
0.131622
0.0806152
0.0798588
0.0897443
0.104897
0.123109
0.142531
0.161449
0.17847
0.192647
0.203504
0.210992
0.215415
0.21733
0.217463
0.216653
0.215835
0.215589
0.216377
0.218675
0.223003
0.229946
0.240133
0.122012
0.0752741
0.0729592
0.0792776
0.0896703
0.102521
0.116627
0.130867
0.144257
0.15604
0.165745
0.173191
0.178455
0.181821
0.183724
0.184714
0.18544
0.186391
0.187955
0.190551
0.19464
0.200735
0.209385
0.114997
0.0710881
0.0679087
0.0719552
0.07919
0.0883562
0.0986479
0.109339
0.119762
0.129362
0.137738
0.14467
0.150114
0.154178
0.157098
0.159215
0.160963
0.162726
0.164811
0.167565
0.171377
0.176684
0.183957
0.109159
0.0673428
0.0637004
0.0663281
0.0715172
0.078224
0.0858768
0.093997
0.102141
0.109915
0.117012
0.123223
0.128456
0.132724
0.136138
0.138895
0.141282
0.143578
0.146013
0.148863
0.152442
0.157112
0.163266
0.103788
0.0637288
0.0598443
0.0615804
0.0654517
0.0705375
0.0764008
0.082713
0.0891759
0.0955184
0.101512
0.106985
0.111837
0.116035
0.11962
0.122692
0.125464
0.128099
0.130771
0.13369
0.137105
0.141306
0.146618
0.0986337
0.0601889
0.0561852
0.0573435
0.0603528
0.0643658
0.0690216
0.0740798
0.0793343
0.0845973
0.0897039
0.0945216
0.0989584
0.102968
0.106552
0.109758
0.11274
0.115588
0.118423
0.121402
0.124718
0.128602
0.133318
0.0937103
0.0567947
0.0527429
0.0535092
0.0559348
0.0592224
0.0630544
0.0672418
0.0716354
0.0761026
0.0805249
0.0848025
0.0888594
0.0926482
0.0961541
0.0994031
0.102491
0.105469
0.108419
0.111456
0.114729
0.118418
0.122738
0.0891541
0.053663
0.0496041
0.0500908
0.0521025
0.0548812
0.0581359
0.0617085
0.0654845
0.0693672
0.0732705
0.0771199
0.0808548
0.0844323
0.0878281
0.0910802
0.0942188
0.0972771
0.100312
0.103406
0.106673
0.110257
0.11433
0.0851362
0.0509082
0.0468615
0.0471388
0.0488427
0.0512478
0.0540822
0.0572072
0.0605304
0.0639782
0.0674869
0.0710005
0.0744715
0.0778636
0.0811578
0.0843823
0.0875385
0.0906449
0.0937402
0.0968863
0.100171
0.103708
0.107637
0.0818151
0.0486209
0.0445867
0.0446996
0.0461639
0.0482822
0.0507973
0.0535837
0.056564
0.0596802
0.0628839
0.0661321
0.0693869
0.0726165
0.0758269
0.0790088
0.0821591
0.0852879
0.0884218
0.0916071
0.0949131
0.0984325
0.102281
0.0793182
0.0468631
0.0428239
0.0427996
0.0440698
0.045959
0.0482215
0.0507423
0.0534545
0.0563111
0.0592742
0.0623097
0.0653866
0.0684909
0.0716143
0.0747417
0.0778664
0.0809925
0.0841389
0.0873416
0.0906569
0.0941621
0.0979552
0.0777381
0.0456718
0.0415937
0.0414451
0.042551
0.0442505
0.0463073
0.0486144
0.0511131
0.0537641
0.0565361
0.0594008
0.0623367
0.0653329
0.0683695
0.0714313
0.0745095
0.0776053
0.0807324
0.0839203
0.0872164
0.0906875
0.0944191
0.0771339
0.0450651
0.0408984
0.0406258
0.0415848
0.0431224
0.0450092
0.0471449
0.0494766
0.0519693
0.0545949
0.0573289
0.0601557
0.063053
0.0660011
0.0689841
0.0719926
0.0750259
0.0780952
0.081226
0.0844602
0.0878573
0.0914946
0.0775273
0.0450456
0.040727
0.040318
0.0411376
0.0425342
0.0442837
0.0462906
0.0485045
0.0508903
0.0534185
0.0560652
0.0588044
0.0616124
0.0644685
0.067357
0.0702686
0.0732026
0.0761692
0.079192
0.0823096
0.085577
0.0890659
0.0788909
0.0455978
0.041054
0.0404859
0.041167
0.0424432
0.0440949
0.0460284
0.0481891
0.0505339
0.0530231
0.0556211
0.0582963
0.0610228
0.0637801
0.0665539
0.0693366
0.0721293
0.0749428
0.0778002
0.0807385
0.0838099
0.0870819
0.0811281
0.0466795
0.0418345
0.0410786
0.0416225
0.0428112
0.0444294
0.046377
0.0485802
0.0509687
0.0534827
0.0560736
0.0587049
0.0613508
0.063994
0.0666248
0.06924
0.0718439
0.0744498
0.0770813
0.0797743
0.0825786
0.0855585
0.0840518
0.04821
0.0429966
0.0420273
0.0424512
0.043624
0.0453334
0.0474446
0.0498256
0.0523622
0.0549672
0.0575825
0.0601733
0.0627214
0.0652192
0.0676658
0.0700655
0.072428
0.0747695
0.0771144
0.0794977
0.0819664
0.0845803
0.0873722
0.0500604
0.0444338
0.043245
0.0436164
0.0449499
0.0470049
0.0495205
0.0522573
0.055043
0.0577755
0.0604063
0.0629203
0.0653197
0.0676147
0.0698179
0.0719433
0.0740064
0.0760263
0.0780278
0.0800438
0.082117
0.0843013
0.0907028
0.0520515
0.0460042
0.0446412
0.0451762
0.0471232
0.0500113
0.053265
0.0565068
0.0595557
0.062353
0.0649029
0.067235
0.0693852
0.0713865
0.0732663
0.0750473
0.0767495
0.0783931
0.0800015
0.0816035
0.0832358
0.0849436
0.0936666
0.0540087
0.0475471
0.0461869
0.0476187
0.0513075
0.0557507
0.0599415
0.0635746
0.0666492
0.0692546
0.0714923
0.0734502
0.0751965
0.0767814
0.0782406
0.0796
0.0808797
0.0820977
0.0832731
0.0844288
0.0855925
0.0867989
0.10685
0.0571045
0.0490394
0.0481959
0.0535398
0.0609093
0.0669429
0.0713815
0.0746285
0.0770782
0.0790011
0.0805705
0.0818975
0.0830536
0.0840851
0.0850216
0.085883
0.0866834
0.0874349
0.0881497
0.088842
0.0895295
0.0902335
1.19998
0.0931108
0.0517619
0.0519949
0.07389
0.0825037
0.0866515
0.0888866
0.0902445
0.0911697
0.0918607
0.0924125
0.0928754
0.0932777
0.0936362
0.0939609
0.0942581
0.094532
0.0947863
0.095025
0.0952527
0.0954754
0.0957003
3.71061
3.24801
3.01969
3.00622
1.25543
1.23857
1.19436
1.12704
1.03978
1.01565
0.990985
0.966028
1.04015
1.00785
0.985586
0.971898
1.07485
1.03221
1.00642
0.993272
1.07943
1.03069
0.997599
0.979856
1.04812
0.997928
0.96155
0.938889
0.979739
0.937566
0.905664
0.88439
0.903238
0.869576
0.84477
0.828111
0.832864
0.806942
0.787334
0.775004
0.750797
0.736598
0.726557
0.721355
0.678975
0.673738
0.671867
0.673229
0.621346
0.62239
0.626202
0.632571
0.571792
0.577218
0.585087
0.595211
0.524767
0.533192
0.543859
0.556617
0.477041
0.487313
0.499659
0.513957
0.427916
0.439031
0.452036
0.466852
0.378831
0.389964
0.40275
0.41713
0.331766
0.342264
0.354216
0.367599
0.288576
0.297989
0.308672
0.320627
0.250506
0.258618
0.267819
0.27813
0.218059
0.224858
0.232571
0.241229
0.191125
0.196741
0.203106
0.210257
0.169203
0.173835
0.17907
0.184945
0.151608
0.155472
0.159816
0.164674
0.137618
0.140913
0.144587
0.148674
0.126559
0.129449
0.132643
0.136168
0.117834
0.12045
0.12331
0.126441
0.11094
0.113375
0.116011
0.118872
0.105458
0.107774
0.11026
0.112937
0.101047
0.103277
0.105657
0.108203
0.0974348
0.0995923
0.101883
0.104322
0.0944187
0.0964953
0.0986926
0.101025
0.0918624
0.0938353
0.0959188
0.0981261
0.0897001
0.0915361
0.0934729
0.0955235
0.08794
0.0896003
0.0913512
0.0932052
0.0866665
0.0881123
0.0896372
0.0912531
0.0860406
0.0872387
0.0885026
0.0898433
0.0862983
0.0872255
0.0882036
0.0892423
0.08775
0.0883964
0.0890779
0.0898021
0.0907834
0.0911541
0.0915444
0.0919595
0.0958741
0.0959902
0.0961123
0.0962424
1.1613
0.711038
0.620816
0.627475
0.654579
0.695031
0.744959
0.810065
0.862321
0.857489
0.845835
0.835295
0.795744
0.738308
0.699016
0.652846
0.550436
0.466222
0.736718
0.917288
0.791847
0.777165
0.813243
0.86465
0.850938
0.844124
0.899596
0.976842
0.972739
0.961512
0.957789
0.897872
0.818533
0.782497
0.715241
0.589628
0.51692
0.746726
0.924487
0.910848
0.95333
1.04844
1.11921
1.04182
0.959415
0.996201
1.14775
1.15435
1.13931
1.15099
1.03516
0.894605
0.796452
0.716003
0.625239
0.576325
0.778794
0.962121
0.984534
1.03697
1.10526
1.12088
1.05995
1.00092
1.01563
1.13161
1.21765
1.34916
1.41883
1.17246
0.943044
0.832837
0.745333
0.655426
0.632654
0.839127
0.983418
0.999479
1.03168
1.06126
1.0607
1.02631
0.994769
1.004
1.07178
1.17407
1.40778
1.59924
1.27623
1.01718
0.874704
0.762509
0.679506
0.675848
0.88144
0.969037
0.984139
1.00345
1.01586
1.01495
0.991048
0.974011
0.993564
1.04554
1.12384
1.29595
1.49796
1.33532
1.0872
0.926534
0.796212
0.704981
0.692822
0.898823
0.919969
0.92562
0.941554
0.955182
0.957872
0.94751
0.942777
0.959266
0.995246
1.05662
1.17695
1.31235
1.30021
1.15688
1.0248
0.872813
0.739752
0.695762
0.86214
0.864521
0.866531
0.880114
0.894773
0.902788
0.903075
0.903517
0.914488
0.942791
0.996195
1.08672
1.18724
1.21555
1.22777
1.20978
1.01821
0.781376
0.689195
0.7664
0.812249
0.815656
0.830627
0.847303
0.860668
0.867361
0.871218
0.881671
0.911211
0.959731
1.02775
1.10875
1.15476
1.20314
1.23968
1.06426
0.81833
0.649235
0.649013
0.764667
0.771502
0.789195
0.809255
0.826915
0.839001
0.84773
0.859343
0.885745
0.927208
0.985658
1.05984
1.10345
1.13346
1.10765
0.960984
0.766663
0.570617
0.533932
0.719518
0.732532
0.754284
0.778649
0.801134
0.818836
0.832041
0.844394
0.863488
0.896563
0.945935
1.00841
1.04671
1.06015
1.0127
0.906373
0.752105
0.538892
0.499621
0.679815
0.700736
0.728616
0.758802
0.787087
0.810271
0.82722
0.839539
0.852033
0.871588
0.902447
0.942011
0.973388
0.978353
0.951726
0.897833
0.781293
0.513657
0.445872
0.646111
0.674871
0.709777
0.746806
0.781777
0.810973
0.831996
0.844421
0.850556
0.855783
0.865356
0.879045
0.889782
0.8872
0.862601
0.807587
0.687468
0.482626
0.451314
0.614419
0.650272
0.692021
0.735948
0.777854
0.813654
0.839997
0.854843
0.858365
0.854011
0.847016
0.839817
0.82987
0.809473
0.76673
0.695427
0.59252
0.487168
0.528179
0.580133
0.621593
0.668923
0.718621
0.766526
0.808383
0.840341
0.859449
0.864546
0.857263
0.842131
0.822734
0.798474
0.763012
0.707549
0.634033
0.555818
0.499122
0.605106
0.540234
0.585205
0.636037
0.689442
0.74133
0.787346
0.823453
0.846341
0.854197
0.847515
0.829923
0.804576
0.7717
0.727607
0.668499
0.599713
0.537593
0.505661
0.671005
0.494205
0.540282
0.592166
0.646784
0.700142
0.747832
0.785707
0.810387
0.819921
0.814358
0.796399
0.768476
0.731478
0.684505
0.62782
0.567731
0.518721
0.504177
0.720927
0.443731
0.488555
0.539096
0.592534
0.644979
0.692077
0.729646
0.754318
0.764265
0.759566
0.742112
0.713987
0.67683
0.631832
0.581408
0.53263
0.496391
0.49666
0.75684
0.392325
0.433312
0.48049
0.53079
0.580476
0.625315
0.661264
0.685056
0.694962
0.691277
0.675326
0.649155
0.615033
0.5754
0.533548
0.496724
0.473054
0.487911
0.787253
0.342747
0.379027
0.420927
0.466385
0.51208
0.553637
0.587333
0.610057
0.620189
0.618086
0.604803
0.582404
0.553507
0.521137
0.489134
0.463462
0.450991
0.477932
0.805049
0.297263
0.32847
0.364721
0.404385
0.44479
0.482465
0.513711
0.535471
0.546276
0.546424
0.536803
0.519424
0.496909
0.472502
0.450491
0.434493
0.431193
0.467339
0.811367
0.257344
0.283565
0.314234
0.34811
0.383082
0.416319
0.444718
0.465591
0.477389
0.480229
0.474843
0.463127
0.447686
0.431492
0.417942
0.409996
0.414019
0.456802
0.80925
0.223595
0.245271
0.270793
0.299265
0.329074
0.357991
0.383502
0.403341
0.416081
0.421672
0.420667
0.414686
0.40602
0.397247
0.39089
0.389561
0.399312
0.446563
0.800146
0.19591
0.213696
0.234752
0.258462
0.283646
0.308607
0.331376
0.350118
0.363621
0.37169
0.374705
0.37395
0.371294
0.368854
0.368485
0.372501
0.386632
0.436565
0.784734
0.173727
0.188355
0.205729
0.225451
0.24669
0.268197
0.28848
0.306077
0.320119
0.330208
0.336603
0.340264
0.342631
0.345362
0.349825
0.35804
0.375412
0.426655
0.764046
0.15626
0.168438
0.182905
0.199427
0.21744
0.236055
0.254175
0.2707
0.28497
0.296553
0.305586
0.312746
0.319086
0.325844
0.334042
0.345402
0.365033
0.41667
0.741014
0.142673
0.153019
0.165275
0.17932
0.194787
0.211063
0.227367
0.242912
0.25716
0.269735
0.280682
0.290443
0.29974
0.30942
0.32036
0.333911
0.354946
0.406589
0.721496
0.132177
0.141197
0.151821
0.164004
0.17752
0.191957
0.206766
0.221432
0.235486
0.248631
0.260852
0.272413
0.283767
0.295457
0.308162
0.323096
0.344887
0.396498
0.707519
0.124075
0.132158
0.141607
0.152423
0.164478
0.177502
0.191124
0.204994
0.218739
0.232123
0.245092
0.257777
0.270426
0.283351
0.297016
0.31267
0.3348
0.386198
0.694057
0.117772
0.125201
0.133814
0.143643
0.15462
0.166575
0.179262
0.192429
0.205797
0.219173
0.232479
0.245748
0.259081
0.272621
0.286691
0.302455
0.324599
0.375379
0.677249
0.112774
0.11974
0.127755
0.136868
0.147052
0.158201
0.17015
0.182709
0.195668
0.208865
0.222205
0.235652
0.249203
0.262889
0.276945
0.292495
0.314175
0.364023
0.657317
0.108681
0.115293
0.122859
0.131438
0.141028
0.151563
0.162925
0.174963
0.187509
0.200421
0.213588
0.226927
0.240367
0.253871
0.267629
0.282747
0.30381
0.352275
0.636562
0.105181
0.111482
0.118673
0.126821
0.13594
0.145989
0.156876
0.168469
0.180622
0.193198
0.206071
0.219123
0.232241
0.245359
0.258654
0.27322
0.293514
0.340165
0.616868
0.102053
0.108029
0.114854
0.122603
0.131308
0.140944
0.151432
0.162645
0.174444
0.186682
0.199212
0.211887
0.224574
0.237199
0.249952
0.263927
0.283423
0.328172
0.595908
0.0991708
0.104762
0.111174
0.118497
0.12678
0.136018
0.146148
0.157037
0.168536
0.180477
0.192679
0.204967
0.217192
0.22929
0.24148
0.254872
0.273634
0.316583
0.573389
0.096505
0.101618
0.107526
0.114339
0.122132
0.130934
0.140704
0.151307
0.162578
0.174304
0.186252
0.198208
0.210006
0.221601
0.233258
0.246126
0.264347
0.306433
0.558814
0.0941329
0.0986551
0.103935
0.110106
0.117285
0.125547
0.134905
0.145243
0.156374
0.168009
0.179832
0.191566
0.203026
0.214192
0.225388
0.237843
0.255784
0.297944
0.55063
0.0922369
0.0960522
0.100564
0.105931
0.112315
0.119867
0.128694
0.138764
0.14987
0.161589
0.173464
0.185129
0.196377
0.207217
0.218054
0.230247
0.248231
0.291198
0.546301
0.0911003
0.0941087
0.0977187
0.102103
0.10747
0.114066
0.122153
0.131913
0.143182
0.155229
0.167369
0.179133
0.1903
0.200927
0.211519
0.223619
0.242014
0.286517
0.546089
0.0911005
0.0932355
0.0958376
0.0990731
0.103175
0.108481
0.115483
0.124789
0.136613
0.149341
0.161968
0.173966
0.185151
0.195656
0.206105
0.218262
0.237391
0.28434
0.552573
0.0927051
0.0939492
0.0954892
0.0974521
0.100041
0.103619
0.108889
0.117259
0.130672
0.144569
0.15784
0.170116
0.181349
0.191779
0.202156
0.214463
0.234512
0.28512
0.572044
0.0964772
0.0968746
0.0973736
0.0980235
0.098914
0.100243
0.102568
0.108016
0.1262
0.141639
0.155502
0.167991
0.179262
0.189651
0.200006
0.212471
0.233419
0.288509
0.605992
)
;

boundaryField
{
    leftWall
    {
        type            epsilonWallFunction;
        value           nonuniform List<scalar> 
50
(
0.011253
0.0197462
0.0333096
0.0477967
0.0624778
0.0769009
0.0907527
0.104381
0.123024
0.14326
0.159533
0.172593
0.186826
0.207988
0.249263
0.319446
0.422546
0.579422
0.693601
0.71474
0.65748
0.560541
0.450841
0.347267
0.262269
0.20545
0.169236
0.146201
0.131622
0.122012
0.114997
0.109159
0.103788
0.0986337
0.0937103
0.0891541
0.0851362
0.0818151
0.0793182
0.0777381
0.0771339
0.0775273
0.0788909
0.0811281
0.0840518
0.0873722
0.0907028
0.0936666
0.10685
1.19998
)
;
    }
    rightWall
    {
        type            epsilonWallFunction;
        value           nonuniform List<scalar> 
50
(
0.0599768
0.108919
0.194797
0.298505
0.409746
0.515339
0.607851
0.680316
0.736718
0.746726
0.778794
0.839127
0.88144
0.898823
0.86214
0.7664
0.649013
0.533932
0.499621
0.445872
0.451314
0.528179
0.605106
0.671005
0.720927
0.75684
0.787253
0.805049
0.811367
0.80925
0.800146
0.784734
0.764046
0.741014
0.721496
0.707519
0.694057
0.677249
0.657317
0.636562
0.616868
0.595908
0.573389
0.558814
0.55063
0.546301
0.546089
0.552573
0.572044
0.605992
)
;
    }
    lowerWall
    {
        type            epsilonWallFunction;
        value           nonuniform List<scalar> 
62
(
0.011253
0.0372057
0.0651923
0.0968738
0.134928
0.187434
0.263219
0.362953
0.475738
0.583713
0.680061
0.755634
0.804183
0.833424
0.85874
0.892607
0.943511
1.01404
1.09016
1.04904
0.80965
0.395998
0.0880881
0.0880881
0.11246
0.163008
0.245982
0.409032
0.824256
1.6804
3.20056
3.71061
3.24801
3.01969
3.00622
0.158855
0.164302
0.230284
0.300225
0.396947
0.584661
1.01033
1.91493
0.158855
0.190766
0.316144
0.679378
1.16723
1.68183
2.23771
2.47031
2.1456
1.86163
1.76393
1.68979
1.49292
1.27946
1.06751
0.841228
0.590406
0.321476
0.0599768
)
;
    }
    atmosphere
    {
        type            inletOutlet;
        inletValue      uniform 0.1;
        value           nonuniform List<scalar> 
46
(
0.1
0.1
0.0517619
0.0519949
0.1
0.1
0.1
0.1
0.1
0.1
0.1
0.1
0.1
0.1
0.1
0.1
0.1
0.1
0.1
0.1
0.1
0.1
0.1
0.1
0.1
0.1
0.1
0.1
0.1
0.1
0.1
0.1
0.1
0.1
0.1
0.1262
0.141639
0.155502
0.167991
0.179262
0.189651
0.200006
0.212471
0.233419
0.288509
0.605992
)
;
    }
    defaultFaces
    {
        type            empty;
    }
}


// ************************************************************************* //
