/*--------------------------------*- C++ -*----------------------------------*\
  =========                 |
  \\      /  F ield         | OpenFOAM: The Open Source CFD Toolbox
   \\    /   O peration     | Website:  https://openfoam.org
    \\  /    A nd           | Version:  9
     \\/     M anipulation  |
\*---------------------------------------------------------------------------*/
FoamFile
{
    format      ascii;
    class       surfaceScalarField;
    location    "6.95";
    object      phi;
}
// * * * * * * * * * * * * * * * * * * * * * * * * * * * * * * * * * * * * * //

dimensions      [0 3 -1 0 0 0 0];

internalField   nonuniform List<scalar> 
4432
(
-1.96315e-07
1.96315e-07
-3.84324e-07
1.88009e-07
-5.67489e-07
1.83166e-07
-7.40086e-07
1.72595e-07
-8.98212e-07
1.58127e-07
-1.03634e-06
1.38125e-07
-1.14774e-06
1.11396e-07
-1.22622e-06
7.84827e-08
-1.26878e-06
4.25532e-08
-1.27338e-06
4.60431e-09
-1.23628e-06
-3.71051e-08
-1.14678e-06
-8.94981e-08
-9.88366e-07
-1.58419e-07
-7.49309e-07
-2.39056e-07
-4.44065e-07
-3.05242e-07
-1.47476e-07
-2.96586e-07
-5.34278e-08
-9.40465e-08
-3.47288e-07
2.93861e-07
-9.31677e-07
5.84389e-07
-1.61754e-06
6.85865e-07
-1.75306e-06
1.35518e-07
-1.07692e-06
-6.7613e-07
-1.07691e-06
-1.98566e-07
3.94881e-07
-3.88538e-07
3.77981e-07
-5.74025e-07
3.68653e-07
-7.49348e-07
3.47913e-07
-9.09104e-07
3.17884e-07
-1.04798e-06
2.76997e-07
-1.1605e-06
2.23916e-07
-1.24256e-06
1.6054e-07
-1.29142e-06
9.14086e-08
-1.30639e-06
1.95668e-08
-1.28406e-06
-5.94327e-08
-1.217e-06
-1.56561e-07
-1.09518e-06
-2.80236e-07
-9.13547e-07
-4.20682e-07
-6.85505e-07
-5.3328e-07
-4.68774e-07
-5.13313e-07
-3.89582e-07
-1.73238e-07
-5.73646e-07
4.77927e-07
-8.98846e-07
9.09592e-07
-1.18992e-06
9.76944e-07
-1.28661e-06
2.32221e-07
-9.61048e-07
-1.00169e-06
-2.03796e-06
-1.98517e-07
5.93398e-07
-3.89504e-07
5.68967e-07
-5.74539e-07
5.53691e-07
-7.50358e-07
5.23729e-07
-9.1141e-07
4.78937e-07
-1.05256e-06
4.18141e-07
-1.16908e-06
3.40445e-07
-1.25736e-06
2.48816e-07
-1.31506e-06
1.49105e-07
-1.34107e-06
4.55827e-08
-1.33346e-06
-6.70485e-08
-1.28733e-06
-2.02688e-07
-1.19628e-06
-3.71277e-07
-1.05754e-06
-5.59422e-07
-8.79887e-07
-7.10926e-07
-6.98988e-07
-6.94211e-07
-6.05007e-07
-2.67219e-07
-6.88622e-07
5.61541e-07
-8.2997e-07
1.05094e-06
-9.15244e-07
1.06222e-06
-9.73009e-07
2.8999e-07
-7.69369e-07
-1.20532e-06
-2.80733e-06
-1.99159e-07
7.92558e-07
-3.9314e-07
7.62946e-07
-5.80252e-07
7.40805e-07
-7.58209e-07
7.01684e-07
-9.22047e-07
6.42777e-07
-1.06693e-06
5.6302e-07
-1.18855e-06
4.62075e-07
-1.28361e-06
3.4387e-07
-1.35002e-06
2.15522e-07
-1.38717e-06
8.27424e-08
-1.39435e-06
-5.9872e-08
-1.36875e-06
-2.28278e-07
-1.30608e-06
-4.33947e-07
-1.2042e-06
-6.61296e-07
-1.06661e-06
-8.48512e-07
-9.06769e-07
-8.54053e-07
-7.77688e-07
-3.96301e-07
-7.77739e-07
5.6159e-07
-7.90425e-07
1.06362e-06
-7.52728e-07
1.02452e-06
-7.37208e-07
2.74469e-07
-5.51634e-07
-1.3909e-06
-3.35897e-06
-1.99648e-07
9.92208e-07
-3.98106e-07
9.61402e-07
-5.89479e-07
9.32182e-07
-7.71318e-07
8.83521e-07
-9.39439e-07
8.10901e-07
-1.0894e-06
7.12978e-07
-1.21718e-06
5.89858e-07
-1.31967e-06
4.46372e-07
-1.39507e-06
2.90922e-07
-1.44343e-06
1.31106e-07
-1.46532e-06
-3.79725e-08
-1.45967e-06
-2.33924e-07
-1.42358e-06
-4.70042e-07
-1.3553e-06
-7.2957e-07
-1.25466e-06
-9.49154e-07
-1.11911e-06
-9.89603e-07
-9.49875e-07
-5.65533e-07
-8.61405e-07
4.73118e-07
-7.77782e-07
9.79999e-07
-6.45059e-07
8.91801e-07
-5.44689e-07
1.74096e-07
-3.06007e-07
-1.62958e-06
-3.66498e-06
-2.00336e-07
1.19255e-06
-4.04754e-07
1.16582e-06
-6.01781e-07
1.12921e-06
-7.88736e-07
1.07047e-06
-9.62255e-07
9.84422e-07
-1.11825e-06
8.68977e-07
-1.25289e-06
7.245e-07
-1.36324e-06
5.56719e-07
-1.44764e-06
3.75327e-07
-1.50686e-06
1.90322e-07
-1.54275e-06
-2.0813e-09
-1.55568e-06
-2.20985e-07
-1.54378e-06
-4.81938e-07
-1.506e-06
-7.67349e-07
-1.44097e-06
-1.01418e-06
-1.33997e-06
-1.09061e-06
-1.16288e-06
-7.42616e-07
-9.57825e-07
2.68061e-07
-7.82472e-07
8.04647e-07
-5.75406e-07
6.84735e-07
-3.42942e-07
-5.83698e-08
-3.0524e-08
-1.94201e-06
-3.69551e-06
-2.01996e-07
1.39454e-06
-4.13455e-07
1.37728e-06
-6.16699e-07
1.33246e-06
-8.09273e-07
1.26305e-06
-9.8877e-07
1.16392e-06
-1.15127e-06
1.03148e-06
-1.29302e-06
8.66237e-07
-1.41121e-06
6.7491e-07
-1.50429e-06
4.68399e-07
-1.57351e-06
2.59546e-07
-1.62197e-06
4.63704e-08
-1.65117e-06
-1.91789e-07
-1.66001e-06
-4.73098e-07
-1.64816e-06
-7.79192e-07
-1.61442e-06
-1.04792e-06
-1.54721e-06
-1.15781e-06
-1.39946e-06
-8.90366e-07
-1.09613e-06
-3.52624e-08
-8.17888e-07
5.26411e-07
-5.21238e-07
3.88089e-07
-1.46943e-07
-4.32663e-07
1.61697e-07
-2.25065e-06
-3.5338e-06
-2.08687e-07
1.60323e-06
-4.24938e-07
1.59352e-06
-6.33032e-07
1.54055e-06
-8.31007e-07
1.46102e-06
-1.01657e-06
1.34948e-06
-1.18551e-06
1.20042e-06
-1.33408e-06
1.0148e-06
-1.45973e-06
8.00561e-07
-1.56084e-06
5.695e-07
-1.63882e-06
3.37528e-07
-1.69769e-06
1.05241e-07
-1.73986e-06
-1.4962e-07
-1.76483e-06
-4.48137e-07
-1.77253e-06
-7.71491e-07
-1.76093e-06
-1.05952e-06
-1.71545e-06
-1.20329e-06
-1.58971e-06
-1.0161e-06
-1.25742e-06
-3.67539e-07
-8.79473e-07
1.48465e-07
-4.82041e-07
-9.3407e-09
-6.0523e-08
-8.54181e-07
1.18057e-07
-2.42922e-06
-3.41574e-06
-9.61839e-07
9.61839e-07
-4.49647e-08
-9.16872e-07
9.10133e-07
-9.5509e-07
1.59994e-06
-6.898e-07
2.11873e-06
-5.18785e-07
2.45387e-06
-3.35139e-07
2.7622e-06
-3.08325e-07
3.13515e-06
-3.72946e-07
3.50324e-06
-3.68086e-07
3.43628e-06
6.69608e-08
2.69754e-06
7.38735e-07
1.6648e-06
1.03275e-06
2.90876e-07
1.37392e-06
-7.99664e-07
1.09054e-06
-7.67061e-07
-3.26063e-08
-1.86644e-07
-5.80419e-07
1.21969e-07
-3.08616e-07
4.77665e-07
-3.557e-07
4.77661e-07
-2.544e-07
1.21625e-06
4.07274e-07
-1.57854e-06
1.00569e-06
-1.5535e-06
1.48098e-06
-1.16508e-06
1.83928e-06
-8.77083e-07
2.14764e-06
-6.43491e-07
2.42614e-06
-5.86824e-07
2.71656e-06
-6.63371e-07
2.93497e-06
-5.86493e-07
2.83954e-06
1.62396e-07
2.34938e-06
1.22889e-06
1.56186e-06
1.82028e-06
6.03182e-07
2.33259e-06
-2.50174e-07
1.94389e-06
-4.37662e-07
1.54876e-07
-2.3964e-07
-7.78446e-07
-1.88306e-07
-3.59955e-07
1.28154e-07
-6.72166e-07
6.05813e-07
3.74138e-07
8.42119e-07
7.19994e-07
-1.92439e-06
1.07382e-06
-1.90732e-06
1.4041e-06
-1.49536e-06
1.6809e-06
-1.15388e-06
1.92356e-06
-8.86152e-07
2.14347e-06
-8.06737e-07
2.35752e-06
-8.77414e-07
2.49678e-06
-7.2576e-07
2.35786e-06
3.0132e-07
1.94329e-06
1.64347e-06
1.35036e-06
2.41321e-06
7.2511e-07
2.95784e-06
8.25277e-08
2.58647e-06
-1.60598e-07
3.97999e-07
-1.69513e-07
-7.69533e-07
-3.53462e-07
-1.76009e-07
-2.58597e-07
-7.67033e-07
3.47216e-07
7.61423e-07
8.06989e-08
9.16471e-07
-2.07944e-06
1.10851e-06
-2.09936e-06
1.33632e-06
-1.72317e-06
1.54643e-06
-1.36398e-06
1.72911e-06
-1.06883e-06
1.88589e-06
-9.63519e-07
2.03068e-06
-1.0222e-06
2.13131e-06
-8.26391e-07
2.00312e-06
4.29506e-07
1.65398e-06
1.99261e-06
1.21721e-06
2.84998e-06
7.87117e-07
3.38794e-06
2.98317e-07
3.07528e-06
9.53574e-08
6.00958e-07
-2.9371e-08
-6.44806e-07
-4.28326e-07
2.22946e-07
-5.65079e-07
-6.30281e-07
-2.17863e-07
8.54696e-07
-7.73999e-07
9.82763e-07
-2.20751e-06
1.10183e-06
-2.21843e-06
1.26281e-06
-1.88416e-06
1.41908e-06
-1.52025e-06
1.54582e-06
-1.19557e-06
1.64115e-06
-1.05885e-06
1.72054e-06
-1.10159e-06
1.7892e-06
-8.95055e-07
1.714e-06
5.04709e-07
1.4344e-06
2.27221e-06
1.12317e-06
3.16121e-06
8.42105e-07
3.669e-06
4.68422e-07
3.44896e-06
3.68959e-07
7.0042e-07
1.90908e-07
-4.66755e-07
-3.49891e-07
7.63744e-07
-6.28026e-07
-3.52146e-07
-8.45888e-07
7.76559e-07
-1.55056e-06
9.61108e-07
-2.39206e-06
1.06071e-06
-2.31804e-06
1.17976e-06
-2.00321e-06
1.29387e-06
-1.63436e-06
1.37168e-06
-1.27339e-06
1.4083e-06
-1.09547e-06
1.42146e-06
-1.11475e-06
1.44999e-06
-9.23583e-07
1.45716e-06
4.97541e-07
1.25257e-06
2.4768e-06
1.05719e-06
3.35659e-06
8.70264e-07
3.85592e-06
6.96213e-07
3.62301e-06
6.75861e-07
7.20772e-07
4.63157e-07
-2.54051e-07
-6.57709e-08
1.29267e-06
-4.59761e-07
4.18426e-08
-1.30565e-06
6.92039e-07
-2.24261e-06
9.08598e-07
-2.60862e-06
9.98305e-07
-2.40775e-06
1.08746e-06
-2.09236e-06
1.16877e-06
-1.71567e-06
1.20703e-06
-1.31165e-06
1.19138e-06
-1.07981e-06
1.13662e-06
-1.05998e-06
1.10424e-06
-8.91197e-07
1.16888e-06
4.32902e-07
1.13211e-06
2.51357e-06
1.00898e-06
3.47973e-06
9.2465e-07
3.94025e-06
1.04358e-06
3.50408e-06
1.00535e-06
7.58995e-07
7.1966e-07
3.16395e-08
3.18593e-07
1.69374e-06
-1.15858e-07
4.76291e-07
-1.42151e-06
7.03508e-07
-2.94612e-06
8.59784e-07
-2.7649e-06
9.23904e-07
-2.47187e-06
9.85211e-07
-2.15366e-06
1.04153e-06
-1.77198e-06
1.05137e-06
-1.32149e-06
9.97264e-07
-1.0257e-06
8.87153e-07
-9.49864e-07
7.71071e-07
-7.75113e-07
8.54908e-07
3.49068e-07
1.01808e-06
2.3504e-06
9.99953e-07
3.49786e-06
1.0896e-06
3.8506e-06
1.43921e-06
3.15447e-06
1.30471e-06
8.93492e-07
9.61634e-07
3.74718e-07
6.91438e-07
1.96393e-06
2.73614e-07
8.94112e-07
-1.1479e-06
-4.40955e-07
2.04419e-06
-9.28181e-07
2.08075e-06
-1.39507e-06
2.00743e-06
-1.83426e-06
1.90021e-06
-2.24837e-06
1.7636e-06
-2.62715e-06
1.57919e-06
-2.96306e-06
1.35072e-06
-3.25317e-06
1.09068e-06
-3.49214e-06
8.08475e-07
-3.68184e-06
5.27232e-07
-3.83206e-06
2.55466e-07
-3.95107e-06
-3.06067e-08
-4.03931e-06
-3.59894e-07
-4.09568e-06
-7.15126e-07
-4.11049e-06
-1.04471e-06
-4.03577e-06
-1.27801e-06
-3.75892e-06
-1.29295e-06
-3.05771e-06
-1.06875e-06
-2.06231e-06
-8.46939e-07
-1.07109e-06
-1.00057e-06
-3.17024e-07
-1.60826e-06
-4.24421e-07
-2.32183e-06
-2.62366e-06
-1.21651e-06
-5.23909e-07
2.56809e-06
-1.0127e-06
2.56953e-06
-1.43921e-06
2.43394e-06
-1.87876e-06
2.33976e-06
-2.30892e-06
2.19376e-06
-2.69707e-06
1.96734e-06
-3.03775e-06
1.6914e-06
-3.34528e-06
1.39821e-06
-3.61843e-06
1.08163e-06
-3.83717e-06
7.4597e-07
-3.99261e-06
4.10912e-07
-4.09137e-06
6.81539e-08
-4.15967e-06
-2.91594e-07
-4.21139e-06
-6.63406e-07
-4.2343e-06
-1.0218e-06
-4.16235e-06
-1.34995e-06
-3.85974e-06
-1.59557e-06
-3.18912e-06
-1.73937e-06
-2.19634e-06
-1.83972e-06
-1.17874e-06
-2.01818e-06
-4.82589e-07
-2.30441e-06
-2.49624e-07
-2.5548e-06
-2.65703e-06
-2.16252e-07
-6.15704e-07
3.1838e-06
-1.09163e-06
3.04545e-06
-1.6607e-06
3.00299e-06
-2.10164e-06
2.78068e-06
-2.42188e-06
2.51399e-06
-2.72235e-06
2.2678e-06
-3.03652e-06
2.00557e-06
-3.32077e-06
1.68245e-06
-3.59186e-06
1.35271e-06
-3.82349e-06
9.77595e-07
-3.96837e-06
5.55787e-07
-4.01509e-06
1.14862e-07
-4.02058e-06
-2.86109e-07
-4.04168e-06
-6.423e-07
-4.07328e-06
-9.90196e-07
-4.05266e-06
-1.37057e-06
-3.80031e-06
-1.84792e-06
-3.137e-06
-2.40267e-06
-2.14531e-06
-2.8314e-06
-1.10948e-06
-3.054e-06
-3.9792e-07
-3.01596e-06
-9.92506e-08
-2.85342e-06
-2.76547e-06
9.25885e-09
-7.22181e-07
3.906e-06
-4.20052e-07
2.74342e-06
-3.08405e-06
5.66716e-06
-3.22594e-06
2.92264e-06
-2.6821e-06
1.97018e-06
-2.58381e-06
2.16954e-06
-3.12669e-06
2.54847e-06
-3.1944e-06
1.75018e-06
-3.21479e-06
1.37312e-06
-3.39559e-06
1.15841e-06
-3.5688e-06
7.29015e-07
-3.60464e-06
1.50714e-07
-3.56072e-06
-3.30024e-07
-3.47556e-06
-7.27443e-07
-3.44438e-06
-1.02137e-06
-3.26979e-06
-1.54515e-06
-3.00531e-06
-2.11239e-06
-2.37997e-06
-3.02799e-06
-1.92878e-06
-3.28257e-06
-1.14617e-06
-3.83661e-06
-3.94181e-07
-3.76799e-06
9.7417e-08
-3.34511e-06
-2.99084e-06
3.22642e-07
1.14504e-06
2.7609e-06
-4.956e-07
4.38379e-06
-5.99705e-06
1.11686e-05
-6.058e-06
2.98349e-06
-5.5149e-06
1.4271e-06
-5.6222e-06
2.27685e-06
-6.04702e-06
2.97327e-06
-5.27746e-06
9.80594e-07
-4.37298e-06
4.68622e-07
-3.77036e-06
5.55786e-07
-3.37743e-06
3.3608e-07
-2.75241e-06
-4.74289e-07
-1.9795e-06
-1.10292e-06
-1.23942e-06
-1.4675e-06
-5.85963e-07
-1.67481e-06
1.58606e-07
-2.28971e-06
3.904e-07
-2.34419e-06
2.88746e-07
-2.92636e-06
-7.02312e-07
-2.29149e-06
-1.68902e-06
-2.84983e-06
-1.45502e-06
-4.00185e-06
-9.79605e-07
-3.82032e-06
-2.8477e-06
-1.12239e-06
-8.84157e-07
3.6453e-06
-1.19128e-06
4.69117e-06
1.56621e-06
8.41118e-06
1.25928e-06
3.29046e-06
-8.58558e-07
3.545e-06
-2.2603e-06
3.67866e-06
-2.14067e-06
2.85368e-06
-2.6609e-06
1.50086e-06
-3.00202e-06
8.09744e-07
-2.90567e-06
4.59432e-07
-2.64183e-06
7.22214e-08
-2.37666e-06
-7.39479e-07
-2.41777e-06
-1.06184e-06
-2.63119e-06
-1.25411e-06
-2.3293e-06
-1.97675e-06
-2.03341e-06
-2.58565e-06
-1.9641e-06
-2.41354e-06
-2.5915e-06
-2.29904e-06
-2.26399e-06
-2.61913e-06
-2.81964e-06
-2.2944e-06
-3.72192e-06
-3.09979e-06
-4.58236e-06
-2.96004e-06
-3.64236e-06
-3.78733e-06
-1.30264e-06
4.94764e-06
-1.12402e-06
4.51264e-06
1.97677e-06
5.31025e-06
1.40192e-06
3.86522e-06
7.57858e-07
4.18901e-06
3.37967e-07
4.09852e-06
-5.87607e-08
3.25042e-06
-6.22542e-07
2.06466e-06
-1.12048e-06
1.30771e-06
-1.44736e-06
7.86365e-07
-1.6942e-06
3.19143e-07
-2.21325e-06
-2.20314e-07
-2.76267e-06
-5.12291e-07
-2.93138e-06
-1.08525e-06
-2.41845e-06
-2.48949e-06
-1.87087e-06
-3.13301e-06
-1.62285e-06
-2.66127e-06
-1.8111e-06
-2.11049e-06
-2.07186e-06
-2.3581e-06
-2.25626e-06
-2.10976e-06
-3.5646e-06
-1.79129e-06
-4.38558e-06
-2.13923e-06
-4.16965e-06
-3.85854e-06
-4.66508e-08
4.99441e-06
2.11176e-07
4.25491e-06
1.11527e-06
4.40622e-06
9.77272e-07
4.00334e-06
8.83293e-07
4.28312e-06
9.19913e-07
4.06201e-06
8.3022e-07
3.34019e-06
4.38834e-07
2.45609e-06
-9.55947e-09
1.75613e-06
-3.83336e-07
1.16015e-06
-7.37047e-07
6.72853e-07
-1.21827e-06
2.60893e-07
-1.61054e-06
-1.20055e-07
-1.66616e-06
-1.02968e-06
-1.61156e-06
-2.54415e-06
-1.73445e-06
-3.01017e-06
-1.77257e-06
-2.62319e-06
-1.62221e-06
-2.26083e-06
-1.76809e-06
-2.21212e-06
-2.17851e-06
-1.69913e-06
-2.56811e-06
-1.40135e-06
-2.72663e-06
-1.98044e-06
-3.27194e-06
-3.62418e-06
3.67264e-07
4.62736e-06
4.20755e-07
4.20143e-06
6.89692e-07
4.13742e-06
6.52537e-07
4.04062e-06
7.83083e-07
4.15267e-06
9.40845e-07
3.9043e-06
9.61692e-07
3.31935e-06
7.64866e-07
2.6529e-06
4.82899e-07
2.03807e-06
2.11875e-07
1.43114e-06
-5.70931e-08
9.41768e-07
-3.25436e-07
5.29169e-07
-4.95123e-07
4.95421e-08
-6.48737e-07
-8.76182e-07
-1.14507e-06
-2.04798e-06
-1.6559e-06
-2.49954e-06
-1.89751e-06
-2.38182e-06
-1.91513e-06
-2.24355e-06
-2.15105e-06
-1.97661e-06
-2.39223e-06
-1.45843e-06
-2.4995e-06
-1.29451e-06
-2.7753e-06
-1.70499e-06
-2.5175e-06
-3.53001e-06
3.06798e-07
4.32056e-06
3.53741e-07
4.15447e-06
4.26922e-07
4.0643e-06
4.5385e-07
4.01375e-06
6.15608e-07
3.99095e-06
7.80264e-07
3.73966e-06
8.31742e-07
3.26788e-06
7.58625e-07
2.72603e-06
6.2032e-07
2.17641e-06
4.46367e-07
1.60515e-06
2.57844e-07
1.13037e-06
7.36858e-08
7.1342e-07
-7.22644e-08
1.95595e-07
-3.56703e-07
-5.91636e-07
-9.51541e-07
-1.45303e-06
-1.52825e-06
-1.9227e-06
-1.87892e-06
-2.031e-06
-2.15147e-06
-1.97088e-06
-2.40339e-06
-1.72468e-06
-2.52624e-06
-1.33562e-06
-2.63108e-06
-1.18974e-06
-2.89611e-06
-1.44003e-06
-1.94521e-06
-3.46843e-06
2.01977e-07
4.11847e-06
2.50834e-07
4.10566e-06
2.8179e-07
4.03338e-06
3.29694e-07
3.96586e-06
4.56915e-07
3.86372e-06
5.86097e-07
3.61047e-06
6.45014e-07
3.20897e-06
6.40689e-07
2.73038e-06
5.85185e-07
2.23197e-06
4.59411e-07
1.73101e-06
2.9316e-07
1.29674e-06
1.19448e-07
8.87264e-07
-6.43831e-08
3.79566e-07
-3.89836e-07
-2.66039e-07
-9.16498e-07
-9.2622e-07
-1.46156e-06
-1.37745e-06
-1.85672e-06
-1.63558e-06
-2.15214e-06
-1.67513e-06
-2.37845e-06
-1.49807e-06
-2.52146e-06
-1.19236e-06
-2.64272e-06
-1.06826e-06
-2.87074e-06
-1.21187e-06
-1.53959e-06
-3.2763e-06
1.34929e-07
3.98352e-06
1.78846e-07
4.06187e-06
2.06088e-07
4.00619e-06
2.52645e-07
3.91932e-06
3.4107e-07
3.77529e-06
4.29745e-07
3.52178e-06
4.85113e-07
3.1536e-06
5.04711e-07
2.71079e-06
4.71951e-07
2.26474e-06
3.60555e-07
1.84243e-06
2.02303e-07
1.45502e-06
4.06103e-08
1.04899e-06
-1.60702e-07
5.80895e-07
-4.70761e-07
4.40028e-08
-9.10262e-07
-4.86777e-07
-1.37782e-06
-9.09968e-07
-1.76062e-06
-1.25283e-06
-2.0605e-06
-1.37525e-06
-2.27184e-06
-1.28671e-06
-2.40798e-06
-1.0562e-06
-2.53074e-06
-9.45496e-07
-2.69764e-06
-1.04501e-06
-1.29015e-06
-2.94719e-06
9.61575e-08
3.88747e-06
1.40024e-07
4.01813e-06
1.69142e-07
3.97714e-06
2.10604e-07
3.87789e-06
2.7235e-07
3.71355e-06
3.32076e-07
3.46206e-06
3.71846e-07
3.11383e-06
3.81237e-07
2.70139e-06
3.36102e-07
2.30987e-06
2.28524e-07
1.94999e-06
9.51178e-08
1.58841e-06
-5.56025e-08
1.19969e-06
-2.46595e-07
7.71865e-07
-5.13751e-07
3.11107e-07
-8.61011e-07
-1.39622e-07
-1.23653e-06
-5.34608e-07
-1.60755e-06
-8.81995e-07
-1.90858e-06
-1.07439e-06
-2.12255e-06
-1.07289e-06
-2.25777e-06
-9.21107e-07
-2.35297e-06
-8.50428e-07
-2.45458e-06
-9.43509e-07
-1.15812e-06
-2.58671e-06
7.26767e-08
3.81491e-06
1.19034e-07
3.97183e-06
1.51084e-07
3.94511e-06
1.88645e-07
3.84034e-06
2.34585e-07
3.66763e-06
2.76017e-07
3.42065e-06
2.95574e-07
3.09429e-06
2.75201e-07
2.72177e-06
2.13636e-07
2.37143e-06
1.18313e-07
2.0453e-06
6.62339e-09
1.7001e-06
-1.26574e-07
1.3329e-06
-2.94631e-07
9.39951e-07
-5.14371e-07
5.30888e-07
-7.84764e-07
1.30799e-07
-1.08422e-06
-2.35156e-07
-1.41258e-06
-5.53658e-07
-1.70855e-06
-7.78451e-07
-1.93609e-06
-8.45367e-07
-2.07301e-06
-7.84177e-07
-2.14202e-06
-7.81379e-07
-2.20155e-06
-8.83907e-07
-1.08609e-06
-2.27347e-06
5.91027e-08
3.75586e-06
1.04123e-07
3.92676e-06
1.36336e-07
3.91286e-06
1.69762e-07
3.8069e-06
2.04887e-07
3.63251e-06
2.32219e-07
3.39333e-06
2.32748e-07
3.09377e-06
1.93017e-07
2.76151e-06
1.24954e-07
2.43949e-06
4.55779e-08
2.12467e-06
-4.98897e-08
1.79556e-06
-1.65149e-07
1.44818e-06
-3.09202e-07
1.08407e-06
-4.90109e-07
7.11907e-07
-7.0725e-07
3.48084e-07
-9.52499e-07
1.02483e-08
-1.2193e-06
-2.86696e-07
-1.48991e-06
-5.0767e-07
-1.71254e-06
-6.22537e-07
-1.83799e-06
-6.58515e-07
-1.90584e-06
-7.13281e-07
-1.95437e-06
-8.35102e-07
-1.02996e-06
-2.01016e-06
5.13082e-08
3.70452e-06
8.68283e-08
3.89112e-06
1.15071e-07
3.88454e-06
1.43347e-07
3.77858e-06
1.69499e-07
3.60634e-06
1.84829e-07
3.378e-06
1.75089e-07
3.10351e-06
1.33882e-07
2.80272e-06
7.44681e-08
2.4989e-06
5.36248e-09
2.19378e-06
-7.65489e-08
1.87748e-06
-1.7601e-07
1.54767e-06
-2.98926e-07
1.20705e-06
-4.49887e-07
8.62982e-07
-6.28936e-07
5.27293e-07
-8.31976e-07
2.13481e-07
-1.05409e-06
-6.43669e-08
-1.27628e-06
-2.85236e-07
-1.463e-06
-4.35554e-07
-1.58601e-06
-5.3522e-07
-1.66059e-06
-6.38402e-07
-1.71565e-06
-7.79728e-07
-9.69407e-07
-1.77587e-06
3.84159e-08
3.66602e-06
6.15691e-08
3.86784e-06
8.50013e-08
3.86104e-06
1.08489e-07
3.75505e-06
1.28209e-07
3.5866e-06
1.36769e-07
3.36943e-06
1.25896e-07
3.11439e-06
9.30839e-08
2.83554e-06
4.50558e-08
2.54694e-06
-1.29593e-08
2.25181e-06
-8.2523e-08
1.94706e-06
-1.67364e-07
1.63254e-06
-2.71496e-07
1.31123e-06
-3.97767e-07
9.8933e-07
-5.46231e-07
6.75869e-07
-7.13921e-07
3.81313e-07
-8.94898e-07
1.16772e-07
-1.07437e-06
-1.05582e-07
-1.22937e-06
-2.80362e-07
-1.34333e-06
-4.21061e-07
-1.42325e-06
-5.58278e-07
-1.48793e-06
-7.14846e-07
-9.0002e-07
-1.55711e-06
1.70805e-08
3.64885e-06
3.07152e-08
3.85413e-06
4.9823e-08
3.84189e-06
6.97193e-08
3.73514e-06
8.6101e-08
3.57021e-06
9.32617e-08
3.36227e-06
8.60776e-08
3.12157e-06
6.29715e-08
2.85865e-06
2.71154e-08
2.5828e-06
-1.89214e-08
2.29785e-06
-7.60507e-08
2.0042e-06
-1.46704e-07
1.7032e-06
-2.33509e-07
1.39805e-06
-3.38161e-07
1.09401e-06
-4.60396e-07
7.98144e-07
-5.97501e-07
5.1847e-07
-7.43757e-07
2.63089e-07
-8.8841e-07
3.91385e-08
-1.01712e-06
-1.51578e-07
-1.12026e-06
-3.17859e-07
-1.20137e-06
-4.77111e-07
-1.27241e-06
-6.43755e-07
-8.2453e-07
-1.34786e-06
-5.83183e-09
3.65462e-06
2.14868e-09
3.84615e-06
1.52224e-08
3.82882e-06
3.22745e-08
3.71809e-06
4.73973e-08
3.55509e-06
5.5977e-08
3.35369e-06
5.4255e-08
3.12329e-06
4.07457e-08
2.87215e-06
1.64447e-08
2.6071e-06
-1.77331e-08
2.33203e-06
-6.24687e-08
2.04893e-06
-1.19329e-07
1.76005e-06
-1.89937e-07
1.46864e-06
-2.75169e-07
1.17922e-06
-3.74443e-07
8.97395e-07
-4.85265e-07
6.29265e-07
-6.02828e-07
3.80623e-07
-7.19547e-07
1.55825e-07
-8.26553e-07
-4.46096e-08
-9.18305e-07
-2.26153e-07
-9.9673e-07
-3.98739e-07
-1.06943e-06
-5.71117e-07
-7.47637e-07
-1.1464e-06
-2.44975e-08
3.67911e-06
-2.44598e-08
3.84616e-06
-1.47508e-08
3.81915e-06
-3.89025e-10
3.70376e-06
1.45682e-08
3.54015e-06
2.57983e-08
3.34246e-06
2.99273e-08
3.11916e-06
2.51932e-08
2.87688e-06
1.13222e-08
2.62096e-06
-1.17265e-08
2.35506e-06
-4.46218e-08
2.08181e-06
-8.84023e-08
1.8038e-06
-1.44018e-07
1.52421e-06
-2.11799e-07
1.24695e-06
-2.90981e-07
9.76516e-07
-3.7938e-07
7.17594e-07
-4.73228e-07
4.74393e-07
-5.67273e-07
2.49783e-07
-6.55996e-07
4.40215e-08
-7.36162e-07
-1.46087e-07
-8.08881e-07
-3.26125e-07
-8.7894e-07
-5.01168e-07
-6.73764e-07
-9.52929e-07
-3.9479e-08
3.71862e-06
-4.52027e-08
3.85196e-06
-4.00634e-08
3.81407e-06
-2.70717e-08
3.6908e-06
-1.11515e-08
3.52425e-06
3.34059e-09
3.32799e-06
1.31112e-08
3.1094e-06
1.6117e-08
2.87388e-06
1.13859e-08
2.62568e-06
-1.67165e-09
2.3681e-06
-2.37276e-08
2.10384e-06
-5.55118e-08
1.83556e-06
-9.75518e-08
1.56622e-06
-1.49852e-07
1.2992e-06
-2.11593e-07
1.0382e-06
-2.80949e-07
7.86877e-07
-3.55067e-07
5.48428e-07
-4.30334e-07
3.2496e-07
-5.03248e-07
1.1684e-07
-5.71841e-07
-7.75929e-08
-6.36741e-07
-2.61327e-07
-7.00885e-07
-4.37127e-07
-6.0632e-07
-7.68435e-07
-5.08856e-08
3.76956e-06
-6.3989e-08
3.86515e-06
-6.06641e-08
3.8108e-06
-4.70668e-08
3.67725e-06
-2.89734e-08
3.50619e-06
-1.08166e-08
3.30986e-06
4.15378e-09
3.09445e-06
1.38003e-08
2.86425e-06
1.68363e-08
2.62266e-06
1.24246e-08
2.37252e-06
-9.94892e-11
2.11636e-06
-2.12669e-08
1.85671e-06
-5.13493e-08
1.59628e-06
-9.01735e-08
1.33799e-06
-1.36954e-07
1.08494e-06
-1.90207e-07
8.40081e-07
-2.47805e-07
6.05968e-07
-3.07241e-07
3.84333e-07
-3.66222e-07
1.75754e-07
-4.2347e-07
-2.04158e-08
-4.79274e-07
-2.05596e-07
-5.35343e-07
-3.81131e-07
-5.47575e-07
-5.94163e-07
-5.72707e-08
3.82689e-06
-7.9282e-08
3.88723e-06
-7.51137e-08
3.80668e-06
-5.90808e-08
3.66126e-06
-3.79021e-08
3.48505e-06
-1.60027e-08
3.28799e-06
3.5529e-09
3.07492e-06
1.86974e-08
2.84913e-06
2.80917e-08
2.61328e-06
3.08462e-08
2.36978e-06
2.63505e-08
2.12087e-06
1.42223e-08
1.86885e-06
-5.65191e-09
1.61615e-06
-3.3016e-08
1.36535e-06
-6.71588e-08
1.11907e-06
-1.0689e-07
8.79792e-07
-1.5062e-07
6.49672e-07
-1.96576e-07
4.30259e-07
-2.4319e-07
2.22334e-07
-2.89552e-07
2.59097e-08
-3.357e-07
-1.59488e-07
-3.82524e-07
-3.34346e-07
-4.98763e-07
-4.3138e-07
-6.3532e-08
3.89046e-06
-8.79004e-08
3.91165e-06
-8.06138e-08
3.79943e-06
-6.11885e-08
3.64187e-06
-3.6744e-08
3.46064e-06
-1.14903e-08
3.26277e-06
1.1782e-08
3.05168e-06
3.11904e-08
2.82975e-06
4.54837e-08
2.59902e-06
5.38533e-08
2.36143e-06
5.57861e-08
2.11896e-06
5.10157e-08
1.87363e-06
3.95369e-08
1.62764e-06
2.16443e-08
1.38325e-06
-2.03377e-09
1.14275e-06
-3.05429e-08
9.08303e-07
-6.26798e-08
6.81806e-07
-9.71545e-08
4.64728e-07
-1.32836e-07
2.58007e-07
-1.69011e-07
6.20744e-08
-2.05531e-07
-1.2298e-07
-2.42747e-07
-2.97143e-07
-4.60261e-07
-2.81266e-07
-6.83822e-08
3.95888e-06
-8.53585e-08
3.92866e-06
-7.42866e-08
3.78839e-06
-5.17783e-08
3.61939e-06
-2.46576e-08
3.43355e-06
3.12665e-09
3.23502e-06
2.90343e-08
3.0258e-06
5.13871e-08
2.80742e-06
6.91063e-08
2.58133e-06
8.15182e-08
2.34905e-06
8.82379e-08
2.11226e-06
8.91151e-08
1.87278e-06
8.42256e-08
1.63255e-06
7.3881e-08
1.39362e-06
5.86354e-08
1.15801e-06
3.92641e-08
9.27687e-07
1.66989e-08
7.04383e-07
-8.08738e-09
4.89525e-07
-3.42339e-08
2.84164e-07
-6.11368e-08
8.89856e-08
-8.85196e-08
-9.55898e-08
-1.16385e-07
-2.69271e-07
-4.31781e-07
-1.44859e-07
-5.88809e-08
4.01778e-06
-6.94445e-08
3.93924e-06
-5.56658e-08
3.77462e-06
-3.08539e-08
3.59459e-06
-1.78059e-09
3.4045e-06
2.76474e-08
3.20561e-06
5.50715e-08
2.9984e-06
7.90566e-08
2.78346e-06
9.8744e-08
2.56166e-06
1.13647e-07
2.33416e-06
1.23534e-07
2.10239e-06
1.28372e-07
1.86796e-06
1.28312e-07
1.63263e-06
1.23678e-07
1.39827e-06
1.14967e-07
1.16674e-06
1.02823e-07
9.39851e-07
8.7987e-08
7.1924e-07
7.12191e-08
5.06314e-07
5.32064e-08
3.02199e-07
3.44835e-08
1.07732e-07
1.54038e-08
-7.64856e-08
-3.82199e-09
-2.50019e-07
-4.1255e-07
-2.30249e-08
-4.15556e-08
4.05934e-06
-4.57409e-08
3.94342e-06
-2.78844e-08
3.75677e-06
-1.74401e-10
3.56689e-06
3.07814e-08
3.37355e-06
6.1259e-08
3.17514e-06
8.92219e-08
2.97045e-06
1.13604e-07
2.75909e-06
1.33866e-07
2.54141e-06
1.49767e-07
2.31828e-06
1.6126e-07
2.09091e-06
1.68439e-07
1.8608e-06
1.71528e-07
1.62956e-06
1.70872e-07
1.39895e-06
1.66928e-07
1.17071e-06
1.60245e-07
9.46559e-07
1.51431e-07
7.28083e-07
1.41097e-07
5.1668e-07
1.2981e-07
3.1352e-07
1.18049e-07
1.1953e-07
1.06201e-07
-6.45968e-08
9.45922e-08
-2.38367e-07
-4.01467e-07
8.35584e-08
-2.72224e-08
4.08657e-06
-1.92512e-08
3.93544e-06
5.68455e-09
3.73183e-06
3.82184e-08
3.53435e-06
7.17151e-08
3.34005e-06
1.02926e-07
3.14393e-06
1.30557e-07
2.94282e-06
1.54169e-07
2.73548e-06
1.73679e-07
2.52191e-06
1.89162e-07
2.3028e-06
2.00782e-07
2.07931e-06
2.08773e-07
1.85282e-06
2.13436e-07
1.62492e-06
2.15141e-07
1.39727e-06
2.14324e-07
1.17156e-06
2.11467e-07
9.4945e-07
2.07082e-07
7.32507e-07
2.01673e-07
5.22132e-07
1.95712e-07
3.19528e-07
1.89622e-07
1.2567e-07
1.83787e-07
-5.87066e-08
1.78579e-07
-2.33099e-07
-3.97233e-07
1.74411e-07
-1.05773e-08
4.09714e-06
9.44007e-09
3.9154e-06
4.40273e-08
3.69723e-06
8.34323e-08
3.49493e-06
1.20132e-07
3.30334e-06
1.51678e-07
3.11237e-06
1.78038e-07
2.91645e-06
1.99707e-07
2.71381e-06
2.17189e-07
2.50443e-06
2.3092e-07
2.28908e-06
2.41291e-07
2.06895e-06
2.48675e-07
1.84546e-06
2.53453e-07
1.62017e-06
2.56029e-07
1.39472e-06
2.56827e-07
1.1708e-06
2.56287e-07
9.50032e-07
2.54848e-07
7.33993e-07
2.5293e-07
5.24102e-07
2.50926e-07
3.2159e-07
2.49196e-07
1.27462e-07
2.48088e-07
-5.75323e-08
2.47967e-07
-2.32909e-07
-3.98451e-07
2.49262e-07
2.99461e-09
4.09413e-06
3.74694e-08
3.88089e-06
8.63495e-08
3.64832e-06
1.35296e-07
3.44596e-06
1.75566e-07
3.26304e-06
2.06604e-07
3.08132e-06
2.3052e-07
2.89252e-06
2.49018e-07
2.69531e-06
2.63242e-07
2.4902e-06
2.73986e-07
2.27834e-06
2.81849e-07
2.0611e-06
2.87334e-07
1.84e-06
2.90902e-07
1.61663e-06
2.9299e-07
1.39267e-06
2.94025e-07
1.1698e-06
2.94416e-07
9.49689e-07
2.9455e-07
7.33912e-07
2.94781e-07
5.2393e-07
2.95423e-07
3.2101e-07
2.96765e-07
1.26186e-07
2.99094e-07
-5.97898e-08
3.02727e-07
-2.36469e-07
-4.03707e-07
3.08064e-07
1.79851e-08
4.07613e-06
6.89586e-08
3.82987e-06
1.34418e-07
3.58282e-06
1.95001e-07
3.38534e-06
2.37613e-07
3.2204e-06
2.66585e-07
3.05232e-06
2.86624e-07
2.87246e-06
3.00722e-07
2.68119e-06
3.10562e-07
2.48036e-06
3.17216e-07
2.27169e-06
3.21455e-07
2.05687e-06
3.23895e-07
1.83758e-06
3.25067e-07
1.61549e-06
3.25448e-07
1.39233e-06
3.25474e-07
1.16982e-06
3.25539e-07
9.49671e-07
3.25993e-07
7.33512e-07
3.27129e-07
5.22851e-07
3.29192e-07
3.19011e-07
3.32384e-07
1.23059e-07
3.36907e-07
-6.42446e-08
3.43002e-07
-2.42493e-07
-4.11634e-07
3.51002e-07
4.40022e-08
4.03209e-06
1.12114e-07
3.7617e-06
1.9453e-07
3.50036e-06
2.62088e-07
3.31774e-06
3.05013e-07
3.17744e-06
3.29728e-07
3.02757e-06
3.44598e-07
2.85757e-06
3.53299e-07
2.67248e-06
3.5783e-07
2.47582e-06
3.59466e-07
2.27006e-06
3.59123e-07
2.05723e-06
3.57521e-07
1.83919e-06
3.5526e-07
1.61777e-06
3.5286e-07
1.39476e-06
3.50772e-07
1.17194e-06
3.49387e-07
9.51098e-07
3.49028e-07
7.33919e-07
3.49942e-07
5.21989e-07
3.52302e-07
3.16706e-07
3.5622e-07
1.192e-07
3.61785e-07
-6.97513e-08
3.69132e-07
-2.49781e-07
-4.20948e-07
3.78509e-07
9.09642e-08
3.9411e-06
1.83606e-07
3.669e-06
2.71881e-07
3.41204e-06
3.34929e-07
3.25465e-06
3.74597e-07
3.13774e-06
3.93711e-07
3.00843e-06
4.02738e-07
2.84852e-06
4.05385e-07
2.66981e-06
4.03881e-07
2.47731e-06
3.99718e-07
2.27421e-06
3.93973e-07
2.06297e-06
3.87476e-07
1.8457e-06
3.80894e-07
1.62437e-06
3.74786e-07
1.40089e-06
3.69623e-07
1.17714e-06
3.65798e-07
9.54956e-07
3.63621e-07
7.36133e-07
3.63305e-07
5.22346e-07
3.64959e-07
3.15096e-07
3.68594e-07
1.15609e-07
3.7417e-07
-7.52817e-08
3.8168e-07
-2.57245e-07
-4.30485e-07
3.91262e-07
1.7456e-07
3.7665e-06
2.89048e-07
3.55446e-06
3.69191e-07
3.33185e-06
4.18529e-07
3.20527e-06
4.4631e-07
3.10992e-06
4.58538e-07
2.99617e-06
4.60698e-07
2.84633e-06
4.56354e-07
2.67414e-06
4.47949e-07
2.4857e-06
4.37188e-07
2.28497e-06
4.25294e-07
2.07486e-06
4.13175e-07
1.85782e-06
4.01536e-07
1.63602e-06
3.90953e-07
1.41148e-06
3.81905e-07
1.1862e-06
3.74789e-07
9.62094e-07
3.69915e-07
7.41032e-07
3.6748e-07
5.24808e-07
3.67544e-07
3.15062e-07
3.70019e-07
1.13164e-07
3.74711e-07
-7.9943e-08
3.81429e-07
-2.63935e-07
-4.39209e-07
3.90183e-07
2.77668e-07
3.4888e-06
4.20187e-07
3.41189e-06
4.8682e-07
3.26517e-06
5.16013e-07
3.17605e-06
5.25763e-07
3.10014e-06
5.27023e-07
2.99488e-06
5.19462e-07
2.85387e-06
5.06172e-07
2.68741e-06
4.89537e-07
2.50232e-06
4.71254e-07
2.30324e-06
4.52519e-07
2.09359e-06
4.34198e-07
1.87614e-06
4.1695e-07
1.65327e-06
4.0131e-07
1.42713e-06
3.87735e-07
1.19979e-06
3.76622e-07
9.73218e-07
3.68291e-07
7.49376e-07
3.62953e-07
5.30162e-07
3.60649e-07
3.17381e-07
3.61211e-07
1.12618e-07
3.64267e-07
-8.29839e-08
3.69388e-07
-2.69042e-07
-4.46223e-07
3.76416e-07
3.8964e-07
3.09913e-06
5.6677e-07
3.23472e-06
6.20993e-07
3.21092e-06
6.26282e-07
3.17073e-06
6.16473e-07
3.10992e-06
6.00496e-07
3.01084e-06
5.78989e-07
2.87536e-06
5.54163e-07
2.71222e-06
5.27805e-07
2.52867e-06
5.01168e-07
2.32986e-06
4.75118e-07
2.11963e-06
4.50274e-07
1.90098e-06
4.27121e-07
1.67641e-06
4.06077e-07
1.44817e-06
3.87534e-07
1.21833e-06
3.71872e-07
9.88881e-07
3.59436e-07
7.61814e-07
3.50486e-07
5.39115e-07
3.45107e-07
3.22764e-07
3.43099e-07
1.1463e-07
3.43906e-07
-8.37876e-08
3.46763e-07
-2.71897e-07
-4.50752e-07
3.51294e-07
5.2415e-07
2.57496e-06
7.26462e-07
3.03238e-06
7.67371e-07
3.16999e-06
7.47852e-07
3.19023e-06
7.13016e-07
3.14474e-06
6.74801e-07
3.04903e-06
6.36064e-07
2.91408e-06
5.97941e-07
2.75033e-06
5.6109e-07
2.5655e-06
5.25882e-07
2.36506e-06
4.92554e-07
2.15295e-06
4.61296e-07
1.93223e-06
4.32303e-07
1.7054e-06
4.05809e-07
1.47466e-06
3.82096e-07
1.24203e-06
3.61506e-07
1.00947e-06
3.44417e-07
7.78898e-07
3.31186e-07
5.52341e-07
3.22028e-07
3.31917e-07
3.16821e-07
1.19832e-07
3.14868e-07
-8.18399e-08
3.14919e-07
-2.71954e-07
-4.52128e-07
3.16289e-07
6.88077e-07
1.88686e-06
9.07448e-07
2.81299e-06
9.1909e-07
3.15833e-06
8.66835e-07
3.24247e-06
8.0237e-07
3.20919e-06
7.40757e-07
3.11063e-06
6.84649e-07
2.97017e-06
6.33736e-07
2.80123e-06
5.87184e-07
2.61204e-06
5.44257e-07
2.40797e-06
5.04441e-07
2.19275e-06
4.67433e-07
1.96922e-06