/*--------------------------------*- C++ -*----------------------------------*\
  =========                 |
  \\      /  F ield         | OpenFOAM: The Open Source CFD Toolbox
   \\    /   O peration     | Website:  https://openfoam.org
    \\  /    A nd           | Version:  9
     \\/     M anipulation  |
\*---------------------------------------------------------------------------*/
FoamFile
{
    format      ascii;
    class       volVectorField;
    location    "9.2";
    object      U;
}
// * * * * * * * * * * * * * * * * * * * * * * * * * * * * * * * * * * * * * //

dimensions      [0 1 -1 0 0 0 0];

internalField   nonuniform List<vector> 
918
(
(2.47628 -0.138939 0)
(0.108704 0.722546 0)
(0.178916 1.15547 0)
(2.31834 0.153729 0)
(-0.0547622 1.25063 -1.2214e-19)
(-0.0924034 0.643931 -5.36067e-18)
(0.524659 0.846685 -3.14241e-19)
(0.293493 0.163642 -3.02506e-20)
(3.00616 -0.0195865 0)
(-0.0114976 0.501348 0)
(-0.0199035 0.63744 0)
(0.611447 0.00555608 0)
(0.0107054 0.439105 0)
(-0.00290679 0.421734 0)
(0.0155028 0.349049 -1.32607e-18)
(-0.00316324 0.744578 -9.36797e-20)
(0.332681 0.0785152 2.1729e-18)
(0.0788371 0.663456 -2.34869e-19)
(1.529 0.128575 0)
(-0.0286869 0.745644 0)
(0.207667 0.167405 -1.28501e-18)
(3.08302 -0.39741 0)
(2.92442 -0.506023 0)
(1.86111 -0.181128 0)
(0.524981 0.0395973 0)
(-0.0251501 0.521447 0)
(-0.00135391 0.494037 1.88178e-18)
(-0.0196194 1.51849 0)
(0.094184 3.045 0)
(0.179098 1.87699 0)
(-0.0262596 3.07429 0)
(0.0301641 1.60552 9.39093e-20)
(0.0239064 0.673129 0)
(-0.147425 0.775094 -2.04968e-22)
(-0.193914 1.0291 4.46021e-18)
(-0.0415772 1.04471 0)
(0.743273 -0.00614758 0)
(0.169191 0.258428 6.72615e-19)
(0.980711 1.50011 6.88617e-19)
(0.640794 0.776922 -5.46033e-19)
(0.792205 1.57287 6.62291e-20)
(0.415088 0.856159 -3.41625e-19)
(0.591328 0.328009 2.9751e-20)
(0.317624 0.16371 0)
(0.941004 0.554484 0)
(0.570602 0.325991 1.33716e-19)
(0.276795 0.17424 -1.37213e-19)
(0.871163 -0.055553 0)
(3.02784 -0.00175849 0)
(3.00685 0.0178383 0)
(3.20085 -0.417791 0)
(3.04288 -0.0742701 0)
(3.03116 -0.038879 0)
(0.0159265 0.90059 -1.14715e-18)
(-0.0527082 1.01889 0)
(0.00313336 0.479308 0)
(-0.0343783 1.03656 0)
(-0.0146987 0.514239 0)
(-0.0029451 0.846786 0)
(-0.0525363 1.19631 0)
(-0.0123602 0.586742 0)
(-0.0311845 1.26175 0)
(-0.00913548 0.677248 0)
(0.785929 0.0112012 0)
(1.18037 -0.00290619 0)
(0.622794 0.0117921 0)
(1.14105 0.0164221 0)
(0.578146 0.00769732 0)
(0.225406 0.921982 1.97783e-18)
(0.0985379 1.2081 0)
(0.176302 1.06604 0)
(0.0331901 0.755774 2.22031e-23)
(0.0372233 0.498055 -2.95801e-18)
(0.0194616 0.747943 0)
(0.00595416 0.422033 0)
(-0.000719939 0.734577 4.56988e-24)
(0.000696236 0.414835 0)
(-0.0170138 0.74329 0)
(-0.0130172 0.428118 0)
(0.0543852 0.669762 0)
(0.0523678 0.475007 0)
(0.0112876 0.63305 1.25377e-18)
(0.00246182 0.348329 0)
(-0.0372034 4.58181 0)
(0.0103448 1.40922 9.30047e-20)
(-0.00888746 0.758588 -1.19049e-19)
(0.674807 0.159672 -7.58011e-19)
(0.340209 0.0680632 -7.3506e-19)
(0.686557 0.18022 -2.2766e-18)
(0.339492 0.101832 -1.46639e-18)
(0.0792774 0.629762 0)
(0.181598 1.34298 1.97055e-19)
(0.181398 0.74725 -3.14511e-19)
(2.06065 0.260795 0)
(1.1073 0.118373 0)
(3.03313 0.103863 0)
(3.10395 0.446032 0)
(2.83928 0.377381 -1.01451e-17)
(2.57813 0.361291 7.78439e-18)
(-0.0666359 1.37441 0)
(-0.00833435 0.688593 0)
(-0.0113035 2.06169 0)
(-0.055595 1.46808 0)
(-0.0503193 0.739001 0)
(0.466556 0.317379 4.06704e-19)
(0.239513 0.174862 0)
(2.29594 -0.266491 0)
(1.32358 -0.119332 0)
(1.09602 0.0107737 0)
(1.03667 0.0173832 0)
(0.551978 0.0094032 0)
(1.00745 0.0552878 0)
(0.845508 0.0710918 0)
(0.354245 0.0288336 3.38388e-18)
(-0.00551242 0.45126 1.79716e-18)
(-0.0272995 0.785002 0)
(-0.0482647 0.848725 0)
(-0.0154553 0.461034 0)
(0.000128889 0.839722 1.83574e-18)
(6.86375e-05 0.487525 0)
(-0.00547951 0.845554 -5.64931e-18)
(-0.00488646 0.496761 1.90594e-18)
(0.0731157 3.73028 0)
(0.0682861 4.1329 0)
(-0.0128272 1.36923 -2.11781e-21)
(-0.0108749 1.32995 0)
(-0.00790178 0.72233 0)
(1.40732 0.0344711 0)
(0.758653 0.0151364 0)
(0.710934 0.0141121 0)
(1.4141 -0.0330913 0)
(0.772522 -0.00891911 0)
(0.338587 0.504025 -8.44523e-19)
(0.164393 0.243985 0)
(0.341662 0.534953 9.46669e-20)
(0.17154 0.281975 0)
(1.21987 1.36767 1.75902e-19)
(0.763367 0.72953 -4.12254e-19)
(0.412954 1.443 0)
(0.607086 1.54336 0)
(0.304144 0.825427 0)
(0.151522 0.369245 -4.47172e-19)
(0.648108 0.299344 0)
(0.333955 0.143459 4.03216e-19)
(1.39751 1.28313 0)
(1.55157 1.14339 0)
(0.855532 0.650858 4.81263e-19)
(1.69533 0.932177 0)
(1.04498 0.429619 2.25588e-20)
(1.47148 0.00784418 0)
(1.50004 -0.0294223 0)
(0.801224 -0.00454043 0)
(1.95006 -0.199898 0)
(1.6502 -0.148318 0)
(1.05189 -0.089042 0)
(3.06127 0.164805 0)
(3.03105 0.0687284 0)
(3.01022 0.0531217 0)
(0.0297256 1.60447 6.08521e-19)
(0.0151145 0.833007 0)
(0.0143119 1.68443 1.08153e-18)
(0.00105103 0.930275 -9.73583e-19)
(0.0627977 1.19068 1.97877e-19)
(0.0465131 1.03273 0)
(0.0383231 0.553301 0)
(-0.0328883 1.07287 0)
(-0.00932585 0.55511 0)
(0.0147675 1.57503 -4.47101e-21)
(-0.0185886 0.848354 0)
(-0.0522515 1.5375 -2.2816e-19)
(-0.0155993 0.797318 4.4155e-19)
(-0.0053082 1.10589 0)
(0.00941184 1.12589 0)
(-0.00150169 0.574616 0)
(0.00475072 1.2818 0)
(-0.000868047 0.67593 0)
(1.45915 -0.00458592 0)
(0.78383 0.00753204 0)
(1.43345 0.032442 0)
(0.758535 -0.000814669 0)
(0.677975 0.00492537 0)
(1.26793 0.015928 0)
(1.21039 0.0466292 0)
(0.663187 0.0150054 0)
(-0.00580165 1.42077 -1.71997e-20)
(0.000183957 1.37708 0)
(0.00481991 0.732923 0)
(0.00172863 0.417221 0)
(0.30029 0.864288 0)
(0.266885 0.419105 -2.89545e-19)
(0.000271863 0.639107 0)
(-0.00810404 0.368174 0)
(0.0328839 4.38851 0)
(-0.0194793 4.58623 0)
(0.00887822 4.54547 0)
(-0.0561799 3.26289 2.11345e-20)
(-0.0337395 4.46868 0)
(-0.0291443 4.04934 0)
(0.00448859 0.791119 1.10931e-20)
(0.0135293 1.50526 1.66483e-19)
(-0.0329887 1.44873 1.22316e-19)
(-0.00707004 0.796719 0)
(0.699228 0.110094 1.16295e-18)
(0.341712 0.0449538 -1.13974e-18)
(0.151168 1.15536 0)
(0.102405 0.585707 -2.70938e-19)
(0.119608 1.25387 -8.78883e-19)
(0.0519109 0.698576 8.74388e-19)
(0.809938 0.0238934 0)
(1.55782 0.0474015 0)
(1.71032 0.127508 0)
(0.920291 0.044422 0)
(0.00640252 1.29811 0)
(0.0262139 1.30732 0)
(0.00395237 0.692055 0)
(0.517992 0.338686 1.21938e-18)
(0.467698 0.333254 -1.40511e-18)
(0.25179 0.176474 0)
(1.90979 0.149166 1.16105e-19)
(1.12022 0.0909125 0)
(1.7045 0.116293 0)
(0.874683 0.0219868 0)
(0.707852 0.0862939 0)
(0.72416 0.0467657 -5.44211e-18)
(0.359141 0.0325497 2.01273e-18)
(0.00894141 0.806948 1.71509e-18)
(0.00215958 0.462384 4.08024e-20)
(-0.0108779 1.40842 -3.61607e-20)
(0.0061361 1.38675 1.37929e-18)
(-0.0149833 0.848955 6.35771e-20)
(-0.0119261 0.524486 -2.55398e-22)
(-0.107514 1.00068 -1.17586e-18)
(-0.0529602 1.3532 8.41856e-19)
(-0.0175323 1.35275 -1.3711e-18)
(1.41731 -0.0174692 0)
(1.43823 0.0196774 0)
(0.767203 -0.000546148 0)
(1.4538 0.0251155 0)
(1.36545 0.0460176 0)
(0.762565 0.020131 0)
(1.30501 -0.00263204 0)
(1.32179 -0.00632848 0)
(0.697028 -0.00134303 0)
(0.319669 0.497159 -9.23659e-19)
(0.169296 0.25479 0)
(0.163866 0.322334 1.38397e-19)
(0.322767 0.6135 1.13392e-18)
(0.322353 0.576103 -6.71399e-19)
(0.164041 0.29595 1.31217e-18)
(0.288692 0.747907 2.20233e-18)
(0.153451 0.396373 3.97181e-19)
(0.678409 0.22801 1.55345e-18)
(0.666772 0.271251 4.03306e-19)
(0.338042 0.123085 7.5728e-19)
(1.88006 0.698978 -6.15284e-19)
(1.14311 0.328032 -7.16536e-19)
(-0.0364418 1.6837 4.65814e-19)
(-0.0128523 0.913393 0)
(1.58831 0.0225636 0)
(1.50988 0.0637844 0)
(0.84546 0.025987 0)
(-0.003561 1.38473 0)
(0.00506821 0.72958 2.52262e-18)
(0.00464907 0.731253 0)
(0.00206927 0.415099 -2.46907e-18)
(-0.0102858 1.38627 6.024e-19)
(-0.00947856 1.4225 0)
(0.353285 0.512697 2.60292e-19)
(0.377998 0.574197 -8.70648e-19)
(0.180409 0.270895 7.87897e-19)
(-0.0257426 0.766863 -1.68475e-18)
(-0.0255625 0.689877 0)
(-0.0152873 0.412554 0)
(0.0282299 1.49849 -1.2814e-20)
(0.030221 1.52435 -3.68079e-19)
(0.0162369 0.79655 -1.56003e-20)
(0.216628 1.06752 8.9584e-19)
(0.12145 0.521936 -5.96119e-19)
(0.00896428 1.49513 7.33141e-19)
(0.0537723 1.36842 -8.18733e-19)
(0.025 0.769654 3.58751e-20)
(0.0073781 1.36612 -3.85378e-18)
(-0.000335513 1.39327 4.46289e-18)
(0.00375485 0.829758 1.75318e-18)
(-0.0139008 0.80501 -1.74669e-18)
(-0.00432669 0.481368 -1.75888e-18)
(-0.0106802 1.41684 -4.55171e-18)
(-0.0152615 1.40031 4.64206e-18)
(0.299135 0.704425 0)
(0.312982 0.662658 -2.31199e-18)
(0.158709 0.346453 1.00088e-18)
(0.290894 0.825841 1.19536e-18)
(0.143308 0.443438 -1.84443e-18)
(2.02369 0.313708 4.20342e-19)
(2.01213 0.534085 0)
(1.19691 0.215735 -4.0753e-19)
(-0.0722267 1.60162 -4.85917e-21)
(-0.0174557 1.663 0)
(-0.0172057 0.905134 0)
(0.230429 0.970494 -3.24995e-19)
(0.254583 0.895786 -7.12112e-19)
(0.131555 0.478554 1.33506e-18)
(3.16432 -0.443004 0)
(3.34724 -0.414828 1.81618e-18)
(0.0784455 3.63392 0)
(0.0538599 3.00953 0)
(3.15928 0.249772 1.41707e-20)
(3.12361 0.506153 3.71865e-18)
(0.0363254 3.32232 -2.83689e-20)
(0.015988 2.58138 0)
(-0.0394012 1.19722 1.57716e-18)
(0.206639 1.35203 0)
(3.39909 1.58793 -3.31799e-19)
(3.17486 0.272173 -2.962e-20)
(3.14737 -0.119276 0)
(3.10046 -0.000580834 3.5622e-22)
(0.0361378 2.65819 0)
(0.139991 3.29025 0)
(-0.0695505 2.67533 0)
(-0.0362936 3.40273 3.20143e-19)
(-0.0333892 3.45704 2.01384e-19)
(2.65143 0.0436504 -1.33918e-20)
(3.03678 0.0277723 0)
(3.13818 0.0816552 0)
(-0.0297845 4.54613 0)
(-0.0389923 2.96757 0)
(-0.0726123 3.11829 0)
(0.640455 3.12041 2.759e-19)
(3.33872 -0.422702 0)
(3.01105 -0.345991 0)
(3.1699 -0.0532575 2.28144e-18)
(3.29268 -0.32887 -2.74711e-18)
(3.10381 -0.125897 0)
(-0.0389096 4.49552 0)
(0.0267923 4.05003 0)
(0.0254062 4.31649 0)
(-0.027103 3.28369 0)
(-0.0107533 3.04355 0)
(-0.0365079 2.64539 0)
(2.97063 -0.00441971 0)
(2.85455 0.0473156 -1.80192e-20)
(2.19373 2.99716 -3.39195e-19)
(3.15693 0.0442438 -2.28248e-18)
(3.19039 0.27801 2.77428e-18)
(3.0828 0.11721 0)
(3.39571 0.328416 2.09128e-18)
(3.35712 0.484159 -2.71146e-18)
(3.07142 0.418267 0)
(-0.0421597 3.22448 0)
(0.0180595 3.16283 8.67324e-20)
(-0.0228182 2.48726 -6.15027e-20)
(3.6589 0.539252 2.28763e-18)
(3.43846 0.199474 0)
(-0.146422 1.27191 -2.19673e-18)
(-0.0555046 0.880945 -1.37037e-19)
(-0.073381 1.34243 3.02873e-18)
(-0.0283578 1.27466 -9.12235e-19)
(0.00575844 1.09491 0)
(-0.0266576 1.23907 7.04437e-19)
(-0.112662 1.38783 2.17695e-18)
(-0.0570444 1.34079 -1.33221e-18)
(-0.0773187 1.32043 0)
(1.37246 0.631288 0)
(1.25942 0.726482 0)
(3.48367 1.98544 9.75572e-19)
(2.97935 1.89491 -1.22016e-18)
(3.76972 1.66659 0)
(3.31762 1.13183 0)
(3.34996 0.279864 -3.92452e-18)
(2.89992 0.172654 4.84937e-18)
(3.3504 -0.156269 0)
(2.85303 -0.0766846 0)
(3.43643 0.0423285 0)
(3.59387 0.144319 0)
(3.28683 0.119509 0)
(3.5505 0.297963 0)
(3.40851 0.292694 0)
(3.3276 0.217677 0)
(0.0783982 2.87657 0)
(0.0227072 2.17444 0)
(0.111301 3.11752 0)
(0.0922761 2.27321 0)
(0.192726 3.58253 0)
(0.131121 2.68557 -5.61039e-19)
(0.036568 3.58991 0)
(0.00199023 3.0011 4.07202e-19)
(-0.0349179 3.15669 -5.21732e-19)
(-0.0713969 2.96336 0)
(-0.0357686 2.37126 0)
(-0.0907545 3.05088 0)
(-0.0590792 2.17986 0)
(-0.142978 4.66501 -2.50425e-19)
(-0.0912055 3.82572 2.82311e-19)
(-0.0861622 3.7054 3.15031e-19)
(-0.056003 2.92583 0)
(-0.112426 3.6847 -4.64245e-19)
(-0.0415087 3.09272 -2.97733e-19)
(-0.115132 4.69104 1.95843e-19)
(-0.116794 4.34625 -3.56815e-19)
(-0.0928881 4.23168 -3.86321e-19)
(3.04751 0.0811633 3.36547e-18)
(2.30249 0.0302032 -4.23861e-18)
(2.9121 0.124137 -3.33519e-18)
(2.23615 0.0687193 4.16669e-18)
(3.36008 0.0232778 0)
(2.6352 -0.00380002 0)
(3.43787 0.084542 0)
(3.30842 0.0151171 0)
(2.69283 0.0072536 0)
(3.65316 0.228584 0)
(3.4179 0.0894211 0)
(2.83896 0.053654 0)
(-0.00127914 4.18535 -1.20871e-20)
(-0.0343199 4.55153 0)
(-0.0372368 4.41295 0)
(-0.0659386 3.37309 8.91042e-20)
(-0.0349623 2.66852 -3.51071e-21)
(-0.0711956 4.60114 1.17174e-19)
(-0.0817934 4.45345 -1.18403e-19)
(-0.0755252 4.04921 0)
(-0.0499712 3.9878 0)
(-0.0217153 4.09067 0)
(-0.072101 3.43817 0)
(-0.0427579 2.49317 0)
(0.922505 3.66619 -6.29977e-19)
(0.909588 2.85922 -1.85007e-19)
(0.435011 2.09762 -2.29681e-19)
(0.252141 2.33456 7.00703e-19)
(0.982789 4.19403 2.65606e-19)
(3.43247 -0.168154 0)
(3.3218 -0.256974 0)
(2.88254 -0.189756 0)
(3.47031 -0.0650078 0)
(3.34581 -0.148218 0)
(3.44889 -0.261402 0)
(3.51942 -0.283998 0)
(3.57932 -0.281696 0)
(3.22772 0.091546 3.62605e-18)
(2.55837 0.0637316 -4.58507e-18)
(3.1013 0.104403 -3.56945e-18)
(2.51558 0.0553018 4.44137e-18)
(2.18244 3.36534 0)
(1.70313 2.91468 -4.64357e-19)
(2.50532 3.29177 -4.19212e-19)
(2.31248 2.48368 5.57104e-19)
(0.813296 1.2741 2.75162e-18)
(1.50594 0.216193 1.35213e-18)
(3.68781 0.293392 0)
(3.84977 0.5558 -1.86396e-18)
(3.26228 0.237491 -8.29675e-20)
(3.74049 0.418551 0)
(0.279177 1.33299 1.8229e-18)
(0.00589203 1.21161 -2.91902e-18)
(0.0840258 0.776962 1.64045e-18)
(0.308177 0.483406 -7.59299e-19)
(0.207368 1.41639 8.83552e-19)
(0.0640573 1.25222 0)
(0.0668734 1.10612 -1.14859e-18)
(0.22314 1.46726 -4.15327e-18)
(0.366601 1.5933 0)
(0.00836931 1.28999 1.21109e-19)
(-0.00999879 1.45727 -1.35699e-18)
(-0.041377 1.30299 1.97276e-18)
(-0.0579664 1.41761 0)
(-0.020856 1.38197 0)
(0.714963 1.10248 0)
(2.50191 2.49832 -1.07425e-18)
(2.58084 2.12971 4.07206e-19)
(2.72234 2.82599 0)
(3.13511 3.00673 -4.00658e-19)
(3.09404 2.36118 2.7893e-20)
(0.865014 0.637046 -1.84745e-18)
(1.64896 0.725667 -1.68785e-20)
(1.3081 0.479186 8.80757e-19)
(1.36471 0.896954 6.02613e-20)
(1.01041 0.679794 -2.40032e-18)
(1.5565 0.757009 0)
(2.09602 1.14766 1.47132e-18)
(2.13469 1.05968 0)
(1.50494 0.838543 0)
(1.13644 0.587116 0)
(3.3697 2.15876 1.01264e-18)
(3.89642 0.740846 -1.88085e-18)
(3.78869 1.18757 0)
(3.47621 0.740437 0)
(1.46821 0.381054 1.34547e-18)
(3.28425 1.84337 -8.57577e-19)
(2.90178 1.67478 1.55641e-18)
(3.75362 1.35713 -1.84517e-18)
(3.10014 0.113306 2.46877e-18)
(3.16977 0.179957 -2.58398e-18)
(2.66384 0.0911226 0)
(3.3043 -0.0411519 0)
(3.19947 -0.0852332 -2.37213e-18)
(2.62959 -0.0326163 2.35125e-18)
(3.9573 0.0894965 0)
(3.7624 0.142779 0)
(3.69382 0.154397 0)
(3.58879 0.203798 0)
(3.8327 0.0574808 0)
(3.72608 0.0510999 0)
(-0.0514855 2.6147 0)
(-0.0468728 2.11755 0)
(0.32424 4.00682 -4.22561e-19)
(0.643939 3.36602 -1.66168e-19)
(0.251216 3.08464 -3.71572e-19)
(0.336494 2.59701 5.95284e-19)
(0.428928 4.01826 0)
(0.424846 4.62811 -5.18424e-19)
(0.338614 4.68496 0)
(0.868556 4.35574 -3.82082e-19)
(0.645005 3.82161 9.7393e-19)
(0.550632 4.61416 4.54631e-19)
(0.701977 4.17978 -1.94738e-19)
(0.562395 4.31083 1.5667e-19)
(0.864946 4.60691 -6.75476e-19)
(0.704955 4.61627 0)
(0.808377 4.54909 5.13023e-19)
(-0.0269431 4.50005 -1.84009e-19)
(-0.0340505 3.59657 0)
(0.0712644 4.23576 5.54451e-19)
(-0.0303331 4.32608 0)
(-0.0169754 3.42968 -4.52827e-19)
(-0.0225658 2.88443 0)
(-0.135028 4.33446 -2.98543e-19)
(-0.142013 4.63099 0)
(-0.0859165 3.87187 0)
(-0.0760481 3.83406 3.35713e-19)
(-0.0647196 3.79896 1.08918e-20)
(-0.0488812 3.644 6.32082e-19)
(-0.0458312 2.89128 4.11791e-21)
(-0.140146 4.63092 1.84598e-19)
(-0.133758 4.67313 1.05661e-19)
(-0.0282215 2.80406 0)
(-0.00703084 2.31014 0)
(-0.0816612 4.72019 4.97865e-19)
(-0.0929731 4.32536 4.40314e-19)
(-0.122287 4.56094 -5.73458e-19)
(-0.0250108 4.70543 0)
(-0.0733133 4.4027 -3.1883e-19)
(-0.109429 4.02166 1.31987e-19)
(-0.0844318 4.11976 -4.21479e-20)
(-0.0942906 4.64503 -2.24224e-19)
(-0.0942173 4.15007 -6.99235e-20)
(-0.0951375 4.10376 3.10794e-19)
(2.87953 0.0583885 -2.3683e-18)
(2.87056 0.0456966 2.2778e-18)
(2.34758 0.0328002 0)
(3.53192 0.176259 3.05423e-18)
(2.73554 0.117753 -3.31431e-18)
(2.28764 0.0583238 3.62168e-18)
(3.705 0.313662 -4.02941e-19)
(3.20585 -0.0502746 0)
(3.16633 -0.0161474 2.24314e-18)
(2.68564 -0.0134685 -2.22543e-18)
(3.86305 0.112528 -1.25652e-19)
(3.76076 0.0941729 1.08176e-18)
(4.14725 0.159434 0)
(4.21932 0.166503 -3.76243e-19)
(4.0193 0.132936 0)
(3.70691 0.144908 0)
(4.03322 0.0902322 0)
(3.71534 0.0832039 0)
(4.18235 0.103358 7.85101e-19)
(4.13708 0.070022 -1.75229e-18)
(4.13352 0.104106 -8.50678e-19)
(4.18098 0.106118 -9.23743e-19)
(4.20118 0.214324 1.7803e-18)
(3.83677 0.179005 0)
(4.03606 0.285755 0)
(-0.0667963 4.44687 -1.38305e-19)
(-0.0152062 4.53007 -1.18998e-20)
(-0.0554465 4.56102 0)
(-0.0444224 4.0534 1.40794e-19)
(-0.0370645 4.08441 2.27576e-20)
(-0.0433269 3.94361 -2.21863e-20)
(-0.081408 3.39935 2.63277e-19)
(-0.14104 3.87256 -1.4649e-20)
(-0.107648 4.00576 7.56105e-20)
(-0.0712223 3.27548 -1.32834e-19)
(-0.0250446 2.80994 1.59174e-19)
(-0.0748383 4.45309 5.36539e-21)
(-0.0873074 4.59167 1.75641e-19)
(1.18939 4.32168 3.58747e-19)
(1.10284 4.48301 7.36437e-19)
(1.69283 3.4286 4.48963e-19)
(1.27788 3.54334 1.77846e-19)
(1.26659 2.87567 0)
(0.552425 2.36906 2.76793e-19)
(0.468753 1.7856 3.3294e-19)
(0.343223 2.60497 1.51991e-20)
(0.485153 3.21256 -1.16725e-18)
(0.624082 3.17481 8.81213e-19)
(0.433582 2.44826 0)
(0.295462 2.00904 -5.60416e-19)
(0.244756 3.08843 1.40072e-18)
(0.264798 2.74643 -3.21246e-20)
(0.152715 2.30258 -1.75571e-18)
(0.615089 1.47021 1.4786e-18)
(0.592718 1.67361 0)
(3.58356 -0.0758881 8.66085e-20)
(3.61843 -0.254736 -7.27438e-20)
(3.72101 -0.218648 -1.26922e-18)
(3.75905 -0.127117 1.28513e-18)
(3.67606 -0.0499456 0)
(2.38163 3.81752 0)
(2.55432 3.85846 0)
(2.82908 3.56214 0)
(2.67352 3.59533 0)
(0.894186 1.4631 -4.07096e-21)
(0.642573 1.09173 0)
(1.73187 3.46027 1.51272e-20)
(1.41515 3.51439 0)
(1.35038 3.03832 -1.2947e-18)
(1.43079 2.97035 8.31086e-19)
(1.85997 0.314165 0)
(1.49431 0.267922 3.54966e-19)
(2.47613 0.352601 2.20566e-18)
(1.84984 0.280471 -7.91675e-19)
(1.4751 0.110891 -2.50965e-18)
(4.22974 0.760876 -2.58166e-18)
(3.86214 0.970677 -3.5217e-20)
(3.34642 0.831426 2.07738e-18)
(3.88813 0.722693 1.82214e-18)
(3.17327 0.453279 -3.05983e-18)
(2.96643 0.444569 3.76834e-19)
(3.25158 0.673882 -8.23263e-19)
(3.03882 0.667457 0)
(3.78609 0.540053 1.54404e-18)
(4.09337 0.604948 0)
(4.08883 0.745789 0)
(4.0105 0.39864 8.27836e-19)
(4.26524 0.616165 -3.03501e-20)
(4.19913 0.688779 -4.54444e-19)
(4.1316 0.618014 0)
(3.63106 0.11771 1.72231e-18)
(4.18692 0.166984 2.14951e-18)
(4.09486 0.137249 -1.68347e-18)
(4.13944 0.22115 -1.4465e-18)
(3.75994 0.220088 -2.16178e-18)
(3.34797 0.360105 0)
(3.43182 0.284325 0)
(2.60127 0.182619 -1.27066e-18)
(2.15497 0.114824 4.78925e-19)
(4.04228 0.330664 1.94624e-18)
(4.26306 0.410489 -2.3576e-18)
(4.26944 0.464735 2.07779e-18)
(4.15302 0.465656 0)
(4.23678 0.316252 0)
(4.24849 0.304429 -9.82391e-19)
(4.20633 0.294831 -1.60132e-18)
(2.23156 3.51976 6.23281e-19)
(1.96505 3.2991 -6.87722e-19)
(1.50107 2.45187 -1.04191e-18)
(1.2442 2.08871 2.69519e-19)
(0.927737 1.44778 -2.65716e-18)
(0.833165 1.27606 9.30646e-19)
(0.630762 0.949597 -2.00953e-21)
(1.16839 1.86979 -1.14944e-18)
(1.19556 1.97173 1.71578e-18)
(1.02348 1.77976 5.11015e-19)
(0.825171 1.35174 -5.17719e-19)
(0.667045 1.12669 0)
(2.49 2.65057 -1.16014e-19)
(0.778756 1.19201 8.69631e-19)
(1.00169 0.953352 1.17177e-18)
(0.822065 0.863127 1.35797e-18)
(1.16204 0.801685 1.35855e-18)
(1.56309 1.11237 -2.29759e-18)
(1.47672 1.14248 1.86195e-18)
(1.07711 0.823842 -6.86032e-19)
(0.878173 0.612562 1.51448e-18)
(1.70019 0.513993 -7.8524e-19)
(1.64429 0.539168 0)
(1.31377 0.431208 5.00621e-21)
(2.59124 1.55768 7.82949e-19)
(2.18338 1.32474 -2.83642e-18)
(1.78738 1.25217 1.08503e-20)
(1.76134 1.15138 0)
(2.87988 2.60262 8.78414e-19)
(3.39594 2.70728 1.04359e-18)
(3.21343 2.89882 -1.20279e-18)
(3.4904 2.71202 -4.31915e-19)
(3.41144 2.54754 -1.37061e-19)
(3.44052 2.73871 1.40965e-19)
(3.641 2.22673 -1.68713e-18)
(3.64586 2.44962 4.0525e-19)
(3.71448 2.38205 0)
(3.71511 2.14548 -5.85174e-19)
(4.03027 1.04646 5.84686e-19)
(4.22807 0.963967 1.01096e-18)
(4.25819 0.933838 1.01869e-18)
(4.02364 1.29564 -1.1567e-18)
(4.04808 1.31423 0)
(4.09578 1.19999 0)
(3.37763 1.22855 -1.43562e-20)
(2.50214 0.683673 0)
(2.79795 0.750911 9.37389e-19)
(3.29197 0.876212 -2.56236e-20)
(3.7686 1.51066 5.13469e-18)
(3.57111 1.74144 1.31842e-18)
(3.49741 1.53046 -1.34834e-18)
(3.09715 1.37924 1.44554e-18)
(2.83837 1.39137 8.29834e-19)
(2.40812 1.1933 -8.03724e-19)
(3.67071 -0.0872003 1.98941e-18)
(3.89438 -0.0307414 0)
(3.8586 -0.0682845 1.34505e-18)
(3.74227 -0.0610299 -2.99478e-18)
(3.98042 0.0347752 1.46509e-18)
(3.905 0.110866 -3.08949e-18)
(3.74081 0.125303 0)
(3.55792 0.171889 -6.29832e-19)
(3.81234 0.121419 1.60856e-18)
(3.69253 0.189958 -8.2422e-19)
(3.60114 0.169711 5.91912e-19)
(-0.0924103 2.72385 0)
(-0.0678182 3.50049 0)
(-0.047571 2.58089 0)
(-0.0308246 2.0892 0)
(0.0172525 3.97234 6.95053e-19)
(0.110952 3.76571 -1.81508e-19)
(0.275282 4.60958 -2.34968e-19)
(0.215585 4.45178 2.47546e-19)
(-0.0606922 4.30338 -5.12645e-19)
(-0.0258002 4.3315 3.84843e-19)
(0.0617028 3.91235 2.06038e-20)
(-0.0151451 3.62118 -4.78583e-19)
(-0.0338548 3.39691 -6.42085e-20)
(-0.0659649 3.73738 -5.86082e-20)
(0.120491 4.42115 -5.92234e-19)
(0.147936 4.24362 0)
(0.238294 4.5848 2.98088e-19)
(0.231038 4.65875 2.55665e-19)
(0.554457 4.40871 -2.28011e-19)
(0.384262 3.77995 0)
(0.433696 3.6334 -1.11918e-18)
(0.532643 3.99601 7.93142e-19)
(0.439964 4.5203 -6.19422e-19)
(0.33222 4.39106 3.33239e-19)
(0.268562 4.12935 0)
(-0.0712081 4.68678 -5.65543e-19)
(-0.103524 4.42628 -6.50911e-19)
(-0.111389 4.64395 0)
(-0.0563206 4.27982 -6.09202e-21)
(-0.0528988 4.56326 2.79776e-19)
(-0.143303 3.96429 4.64392e-20)
(-0.0707241 3.61605 -6.82373e-19)
(-0.119348 4.01679 1.82442e-19)
(-0.174671 4.5242 2.41915e-19)
(-0.114206 4.35607 0)
(-0.086746 3.99965 0)
(-0.0870719 3.08714 2.11229e-19)
(-0.0604703 3.79279 -6.58081e-20)
(-0.0867068 3.77 0)
(-0.0886024 2.87318 1.66985e-19)
(-0.0467699 2.37143 -3.23041e-19)
(3.75679 0.0283081 0)
(3.72723 0.00367582 -2.03839e-19)
(4.17669 0.0604091 -1.44365e-18)
(4.08371 0.0392303 0)
(3.86894 0.0116717 0)
(4.1487 0.0312555 -1.21872e-20)
(4.09943 0.0300352 2.38448e-18)
(4.00205 0.0740237 2.85192e-18)
(3.76035 0.113279 0)
(3.56392 0.105072 0)
(4.01646 0.0849146 1.42118e-18)
(3.71004 0.108785 0)
(3.48082 0.123234 0)
(-0.0911238 4.58678 0)
(-0.103541 4.59293 1.05644e-20)
(-0.081455 4.62393 6.6024e-20)
(-0.0684673 3.95899 0)
(-0.113124 4.51128 1.14103e-19)
(-0.0722925 4.30118 -6.58446e-20)
(-0.0639304 4.07015 0)
(1.36895 4.18667 0)
(1.15323 4.53032 -1.31331e-18)
(1.17168 4.45274 0)
(1.51277 4.43687 1.50564e-18)
(1.53999 4.07715 0)
(1.44591 4.32248 -6.17316e-19)
(1.04272 2.32746 -3.42973e-20)
(0.737488 1.71322 -1.76284e-18)
(0.616053 1.2805 2.15105e-18)
(0.726806 1.9003 4.00498e-19)
(0.993424 2.50228 0)
(1.06121 2.4588 0)
(0.740461 1.75397 0)
(0.549967 1.38345 -1.40839e-18)
(1.19245 3.81001 -9.88786e-19)
(1.13445 3.05998 -2.36986e-19)
(1.32546 3.46288 1.93822e-19)
(0.604718 2.09491 0)
(0.632476 2.00311 0)
(0.471968 1.62136 -3.95884e-19)
(0.964672 2.78818 0)
(2.64675 3.54078 0)
(2.40402 3.04768 -1.46368e-18)
(2.55567 3.04704 -8.63648e-20)
(2.42009 3.42277 0)
(2.31269 3.19701 2.23496e-18)
(3.23232 3.04502 -3.93667e-19)
(3.06458 3.26559 0)
(3.05211 3.09396 6.38704e-19)
(2.82088 3.37835 0)
(2.84586 3.18272 0)
(1.25889 2.09877 -9.39887e-19)
(1.46702 2.50412 -7.05623e-19)
(1.78852 3.06517 1.21551e-18)
(1.72952 3.04691 -3.65532e-19)
(1.10617 1.90652 0)
(1.24467 2.29808 4.7515e-19)
(0.752023 1.35111 -7.23119e-19)
(0.608491 1.09509 -4.48545e-22)
(1.92872 3.73242 0)
(2.18038 3.75494 -5.45065e-19)
(2.29093 3.95488 0)
(2.36164 0.529531 0)
(1.69097 0.350026 0)
(1.2762 0.287285 0)
(2.29416 0.561637 -1.47576e-18)
(1.7174 0.41622 8.2449e-19)
(2.19564 0.12441 -9.89536e-19)
(2.68076 0.28804 0)
(2.52285 0.293921 4.15685e-19)
(1.82309 0.132824 1.64193e-18)
(1.57469 0.0796355 -1.04236e-18)
(0.784014 1.62441 8.67219e-19)
(1.01037 1.90032 0)
(0.567617 1.49986 1.58006e-18)
(0.560599 1.66904 -1.44205e-18)
(0.80925 1.88012 -1.00255e-18)
(2.13448 2.53145 1.34872e-18)
(2.15301 2.78011 0)
(1.67775 1.76381 -2.79559e-19)
(2.0967 2.06609 1.75818e-18)
(1.45566 1.37357 -4.28692e-19)
(1.68824 1.39095 4.55908e-19)
(2.20802 1.57461 1.03341e-18)
(2.53373 1.71985 0)
(2.36076 1.91677 0)
(2.10788 1.67696 0)
(3.89724 2.03498 3.90667e-19)
(3.73979 1.85862 -1.27061e-18)
(3.78353 1.99243 1.05385e-18)
(3.87206 1.7369 -1.01435e-18)
(4.09882 1.63603 0)
(4.05141 1.79814 -3.0071e-19)
(2.91951 1.17866 -1.91208e-18)
(3.03884 1.16866 -2.42804e-18)
(2.43014 1.07332 1.46809e-18)
(2.2386 0.965362 -1.43382e-18)
(2.55417 0.863848 -1.18728e-18)
(2.27343 0.803164 1.46003e-18)
(4.00805 0.0306462 -1.53236e-18)
(4.05228 0.0372487 3.13709e-18)
(3.7663 -0.0682145 1.90544e-18)
(3.78932 -0.0762225 -2.29221e-18)
(3.9571 0.0064657 0)
(4.05455 0.0185609 -3.73845e-18)
(0.0570147 4.70104 1.08329e-19)
(0.0270267 4.68029 0)
(0.150144 4.6768 9.68244e-19)
(0.170896 4.69707 -8.8102e-19)
(0.187854 4.67556 4.37894e-19)
(0.0810471 4.62436 0)
(-0.121723 4.68632 0)
(-0.124388 4.40508 -6.38196e-20)
(-0.120615 4.36506 5.72384e-20)
(-0.125534 4.47089 7.79129e-21)
(-0.117962 4.6211 -1.04163e-19)
(-0.100955 4.611 5.61969e-20)
(1.84196 4.00481 -1.65355e-18)
(1.77708 4.01542 1.75181e-18)
(1.62443 4.36022 -8.65066e-19)
(1.65143 4.26391 7.66661e-20)
(2.19285 4.02106 0)
(1.79704 4.16205 -6.52684e-19)
(1.92502 3.90747 6.32906e-19)
(1.75863 4.32234 8.4499e-19)
(2.01082 4.17196 0)
(2.16889 4.0531 0)
(1.12348 3.66922 1.50323e-18)
(0.827999 2.87147 2.03709e-18)
(0.953613 3.05119 -1.39901e-18)
(0.746861 3.02862 -2.33512e-19)
(0.886936 3.76597 4.69038e-19)
(0.713035 3.40843 -1.14043e-18)
(0.776677 1.52893 -1.22751e-18)
(0.775647 1.37819 0)
(0.627163 1.16512 -1.34916e-18)
(1.14757 2.14891 0)
(1.12564 2.23481 0)
(1.43136 2.27359 -1.10281e-18)
(1.1213 2.09803 -1.04726e-18)
(1.07473 2.11438 1.11165e-18)
(1.11769 1.59075 0)
(1.5054 1.84702 -6.07807e-19)
(1.70706 2.20739 -8.60821e-19)
(1.48751 2.16436 0)
(0.931969 1.88255 7.22487e-19)
(0.846362 1.73459 0)
(2.93761 2.30655 -1.85577e-18)
(3.30424 2.45392 2.62072e-18)
(3.28213 2.1851 -2.60406e-18)
(2.67515 2.06054 -2.32606e-19)
(2.78535 1.97151 -9.79895e-19)
(1.32431 2.2802 8.04882e-19)
(1.37748 2.33979 -1.37311e-18)
(1.52288 2.41922 1.80997e-18)
(1.85117 2.64181 -1.17608e-18)
(1.93357 3.01343 -1.57822e-18)
(1.6223 2.58254 -1.1929e-19)
(1.68835 2.72357 1.38374e-18)
(1.86813 2.78009 9.74873e-20)
(2.0586 3.06837 6.55145e-19)
)
;

boundaryField
{
    wall-4
    {
        type            noSlip;
    }
    velocity-inlet-5
    {
        type            fixedValue;
        value           uniform (3 0 0);
    }
    velocity-inlet-6
    {
        type            fixedValue;
        value           uniform (0 1 0);
    }
    pressure-outlet-7
    {
        type            zeroGradient;
    }
    wall-8
    {
        type            noSlip;
    }
    frontAndBackPlanes
    {
        type            empty;
    }
}


// ************************************************************************* //
