/*--------------------------------*- C++ -*----------------------------------*\
  =========                 |
  \\      /  F ield         | OpenFOAM: The Open Source CFD Toolbox
   \\    /   O peration     | Website:  https://openfoam.org
    \\  /    A nd           | Version:  9
     \\/     M anipulation  |
\*---------------------------------------------------------------------------*/
FoamFile
{
    format      ascii;
    class       volScalarField;
    location    "8.87";
    object      p_rgh;
}
// * * * * * * * * * * * * * * * * * * * * * * * * * * * * * * * * * * * * * //

dimensions      [1 -1 -2 0 0 0 0];

internalField   nonuniform List<scalar> 
2268
(
757.467
757.589
757.78
758.033
758.342
758.696
759.087
759.509
759.953
760.414
760.884
761.355
761.816
762.256
762.664
763.037
763.381
763.713
763.985
764.208
764.547
764.775
764.916
757.439
757.555
757.743
757.994
758.302
758.657
759.05
759.475
759.924
760.391
760.866
761.34
761.802
762.243
762.654
763.043
763.421
763.797
764.061
764.307
764.647
764.793
764.927
757.391
757.505
757.691
757.941
758.249
758.606
759.003
759.434
759.89
760.364
760.847
761.329
761.798
762.245
762.667
763.074
763.481
763.891
764.17
764.359
764.742
764.827
764.964
757.324
757.44
757.628
757.879
758.188
758.549
758.953
759.39
759.854
760.338
760.831
761.324
761.804
762.265
762.703
763.116
763.527
763.963
764.362
764.372
764.812
764.87
765.014
757.238
757.36
757.551
757.806
758.12
758.488
758.898
759.345
759.819
760.314
760.819
761.325
761.821
762.3
762.759
763.161
763.464
763.996
764.488
764.753
764.889
764.631
765.094
757.134
757.262
757.46
757.721
758.043
758.419
758.84
759.297
759.783
760.29
760.808
761.329
761.845
762.348
762.835
763.234
763.093
764.053
764.533
764.901
764.968
764.096
765.226
757.011
757.147
757.354
757.624
757.955
758.343
758.776
759.245
759.744
760.265
760.798
761.336
761.874
762.405
762.927
763.457
762.469
760.491
764.068
764.985
762.708
762.963
765.396
756.868
757.012
757.229
757.509
757.853
758.255
758.703
759.187
759.702
760.238
760.788
761.346
761.907
762.473
763.037
763.63
762.38
759.335
760.126
762.379
761.006
764.077
765.644
764.892
764.665
764.576
764.296
763.882
763.338
762.609
761.928
761.223
760.488
759.683
758.939
758.533
758.399
758.05
757.744
757.446
757.252
757.201
764.923
764.603
764.542
764.274
763.871
763.355
762.802
762.158
761.473
760.813
759.956
758.975
758.406
758.419
758.036
757.723
757.407
757.089
757.051
764.41
764.467
764.589
764.29
763.879
763.363
762.798
762.162
761.487
760.868
760.345
759.032
758.365
758.187
758.033
757.708
757.162
756.864
756.852
763.849
764.409
764.735
764.366
763.928
763.39
762.79
762.15
761.434
760.807
760.412
759.99
759.011
758.397
757.93
757.681
757.164
756.806
757.27
763.875
764.965
764.944
764.482
764.002
763.422
762.832
762.203
761.413
760.789
760.323
760.079
759.605
758.775
757.584
757.374
757.176
757.244
757.191
764.089
765.643
765.159
764.61
764.088
763.528
762.935
762.267
761.435
760.864
760.393
760.005
759.514
758.834
757.356
755.121
754.766
757.099
757.102
766.433
766.067
765.334
764.737
764.19
763.605
763.012
762.251
760.776
760.519
760.35
759.935
759.431
758.55
756.165
756.485
754.363
756.389
757.015
766.819
766.14
765.454
764.862
764.298
763.683
763.094
762.389
758.281
756.142
758.688
759.869
759.159
755.7
754.937
757.347
754.039
755.714
756.936
756.613
756.77
757.001
757.301
757.667
758.097
758.574
759.086
759.627
760.191
760.769
761.362
761.975
762.596
763.232
763.915
764.702
763.867
760.678
760.572
764.407
766.39
766.297
741.684
742.141
742.767
743.629
745.018
746.729
748.141
748.947
749.555
750.025
750.326
750.619
751.646
753.028
754.99
757.789
761.123
764.177
764.77
765.006
764.961
762.487
760.232
258.953
260.174
261.711
263.402
264.756
266.297
268.525
271.766
275.655
279.953
284.52
288.982
292.811
295.986
298.553
300.836
303.723
308.688
314.368
317.051
317.034
318.496
321.592
0.613589
0.611831
0.598399
0.594384
0.644405
0.693288
0.728458
0.74039
0.745228
0.750256
0.753425
0.754495
0.75541
0.851256
1.04128
1.3047
1.59856
1.12229
0.619471
0.616483
0.699233
0.707446
0.60244
0.806387
0.803017
0.70018
0.596978
1.20831
1.71527
2.0302
2.10021
2.13805
2.19506
2.22575
2.23096
2.08323
1.95508
1.92744
1.84813
1.60034
1.11648
0.582054
0.624786
0.694738
0.665737
0.528289
0.325059
0.237721
0.268442
0.315959
0.130993
0.00541987
0.00208272
0.00119155
0.00115537
0.00113941
0.00155237
0.00397126
0.0146928
0.0384722
0.0404098
0.0492306
0.0868341
0.251714
0.335065
0.308463
0.311716
0.386987
0.352466
0.00844251
0.00556394
0.00592268
0.00546647
0.00438038
0.00382902
0.00263144
0.00201337
0.00173816
0.00162085
0.00174683
0.0180374
0.0740096
0.0742641
0.073535
0.0388033
0.00478836
0.00345102
0.0055294
0.00403326
0.0230139
0.0511644
0.101273
0.00326967
0.00390082
0.00363508
0.00372999
0.00474791
0.0047743
0.00278462
0.00210112
0.00251125
0.00216769
0.00134447
0.0145747
0.0471078
0.0488632
0.0236212
0.0181958
0.00694783
0.00187639
0.000946325
0.00105828
0.000769562
0.000348532
0.00226299
0.00365469
0.00364017
0.00348517
0.00339982
0.00482233
0.00528217
0.0046973
0.00281693
0.00501704
0.0049116
0.00318161
-0.000373533
-0.00133463
-0.00156499
0.000912939
0.0111653
0.010788
0.000818387
0.00058101
0.000705247
0.000618722
0.00051093
0.000818134
0.00315689
0.0031126
0.00298168
0.00277038
0.00360082
0.005108
0.00439186
0.00258182
0.00537284
0.00501138
0.00256307
-0.000238899
-0.000733853
-0.000848429
-0.000652664
0.000431722
0.00170817
0.000271209
0.000327235
0.000430016
0.000412447
0.000384362
0.000808278
0.00287133
0.00275508
0.00261891
0.00242115
0.00233431
0.00319492
0.00213597
0.00166772
0.00508351
0.0051768
0.000624855
-0.000121886
-0.000428478
0.000527137
0.00174105
0.000889435
-8.18758e-05
5.06121e-05
0.000164856
0.000207135
0.000150795
4.59278e-05
0.00647892
0.00258882
0.00256797
0.00245916
0.00214787
0.00191289
0.00164626
0.00138896
0.00139915
0.00481969
0.00350299
0.000202064
-4.38249e-05
-0.000266519
0.00154882
0.0105621
0.0106793
0.00317369
1.1966e-06
-2.40916e-06
-8.94115e-06
-0.000107382
-0.000315618
-0.000286694
0.00232175
0.00239751
0.00227848
0.00193196
0.0017142
0.00149548
0.0014615
0.00356776
0.0041547
0.000779274
0.000205875
-1.82039e-06
-0.000202617
0.00123976
0.0107924
0.0111657
0.011331
0.00323022
-0.000176596
-0.000214866
-0.000318324
-0.000523866
-0.000861079
0.00206937
0.00217507
0.00206914
0.00173463
0.00153525
0.00138498
0.00306152
0.00416442
0.00317716
0.000399001
0.000211829
2.40615e-05
-0.000165439
-0.000355111
0.00108663
0.0100851
0.0117019
0.00418695
-0.000335194
-0.000348357
-0.000431175
-0.000587348
-0.000833416
0.00183879
0.00183892
0.00183583
0.00154506
0.00137453
0.00132749
0.00442283
0.00422873
0.00201047
0.000378719
0.000214704
4.65657e-05
-0.000123639
-0.000299818
-0.000433155
0.000145108
0.00104023
0.000395821
-0.000425632
-0.000423107
-0.000473331
-0.00059569
-0.00075993
0.0016405
0.0015752
0.00150395
0.00137834
0.00123477
0.0011407
0.00282813
0.00332011
0.000504471
0.000362036
0.000218111
6.96663e-05
-7.93129e-05
-0.000227105
-0.000371893
-0.000485893
-0.000525091
-0.00048721
-0.000436856
-0.000429565
-0.000482303
-0.00058057
-0.00071379
0.00147647
0.00142448
0.00134857
0.00124481
0.00112025
0.00100788
0.000804444
0.000713681
0.00048108
0.000354349
0.000224091
9.21229e-05
-3.7593e-05
-0.00016222
-0.000277956
-0.000369279
-0.000417076
-0.000425029
-0.000425211
-0.000443601
-0.000490547
-0.000563949
-0.000645573
0.0013371
0.00133213
0.00122466
0.00112963
0.0010241
0.000910759
0.000735758
0.00059428
0.00046926
0.000349909
0.000230866
0.000112995
-8.27924e-07
-0.000108344
-0.000205943
-0.000285693
-0.000339079
-0.000369243
-0.000393669
-0.00042625
-0.000470308
-0.000523794
-0.000581069
0.00180534
0.00179964
0.00111197
0.00102508
0.000934123
0.000822149
0.000690722
0.000569547
0.000455427
0.000345189
0.000237007
0.000131617
3.06072e-05
-6.41087e-05
-0.000149734
-0.000222078
-0.000277568
-0.000318435
-0.000353399
-0.000390049
-0.000431019
-0.000475355
-0.000519219
0.00188544
0.00174654
0.000999371
0.000928368
0.00084926
0.000748943
0.00064529
0.000540883
0.000438962
0.000339287
0.00024184
0.000147366
5.70501e-05
-2.75438e-05
-0.00010442
-0.000171263
-0.000226579
-0.00027182
-0.000311422
-0.00034952
-0.000387858
-0.000425885
-0.000461111
0.0018147
0.00112934
0.000896588
0.000840397
0.000771001
0.000688572
0.000601326
0.000511191
0.000421121
0.000332108
0.000244816
0.000160118
7.90837e-05
2.96848e-06
-6.6826e-05
-0.000128929
-0.00018265
-0.000228845
-0.000269811
-0.000307776
-0.000343777
-0.000377444
-0.000407175
0.00177081
0.000831117
0.000806935
0.000761657
0.000702523
0.000634188
0.000559811
0.000481937
0.000402864
0.00032391
0.000246044
0.000170213
9.74089e-05
2.8671e-05
-3.4965e-05
-9.26114e-05
-0.000143865
-0.000189167
-0.000229691
-0.000266613
-0.000300499
-0.000331074
-0.000357304
0.00171538
0.000897536
0.000731991
0.000692742
0.000642659
0.000584773
0.000521212
0.000453972
0.000384839
0.000315127
0.000245898
0.000178117
0.00011271
5.05666e-05
-7.49431e-06
-6.08237e-05
-0.00010911
-0.000152525
-0.000191634
-0.000227032
-0.000258997
-0.000287314
-0.000311315
0.0016329
0.00160001
0.000669096
0.00063156
0.000588752
0.000539763
0.000485647
0.000427755
0.000367516
0.00030617
0.00024478
0.000184294
0.00012558
6.94255e-05
1.6516e-05
-3.26204e-05
-7.76955e-05
-0.000118716
-0.000155917
-0.000189572
-0.000219795
-0.000246417
-0.000269005
0.00158924
0.00160398
0.000605877
0.000573817
0.00053922
0.000498786
0.000453209
0.000403601
0.000351266
0.000297401
0.000243055
0.00018915
0.0001365
8.58166e-05
3.76989e-05
-7.39626e-06
-4.91891e-05
-8.75925e-05
-0.000122667
-0.000154515
-0.000183163
-0.00020848
-0.000230186
0.0015731
0.00145252
0.000538984
0.000520199
0.000494554
0.000462195
0.00042422
0.000381844
0.000336409
0.000289123
0.000241024
0.000193005
0.00014583
0.000100145
5.64801e-05
1.52386e-05
-2.33135e-05
-5.90471e-05
-9.19374e-05
-0.000122001
-0.000149227
-0.000173516
-0.000194689
0.00150095
0.000654893
0.000484718
0.000474507
0.000456434
0.000430788
0.000399127
0.000362792
0.000323193
0.000281554
0.000238901
0.000196088
0.000153823
0.000112686
7.31405e-05
3.55363e-05
1.12528e-07
-3.29955e-05
-6.3732e-05
-9.20802e-05
-0.000118018
-0.000141479
-0.000162352
0.000627064
0.000429077
0.000442122
0.000438732
0.000425962
0.000405138
0.000378218
0.000346609
0.00031173
0.000274796
0.000236795
0.000198528
0.000160632
0.000123612
8.78584e-05
5.36596e-05
2.12133e-05
-9.36521e-06
-3.80231e-05
-6.47423e-05
-8.95088e-05
-0.000112285
-0.000133008
0.000425493
0.000409836
0.000416244
0.000413419
0.000403076
0.000385187
0.000361427
0.000333206
0.000301939
0.000268796
0.000234691
0.000200347
0.000166315
0.00013301
0.000100736
6.97115e-05
4.00784e-05
1.19133e-05
-1.47566e-05
-3.99325e-05
-6.36206e-05
-8.58111e-05
-0.000106476
0.000390173
0.00038684
0.00039593
0.000395473
0.000386635
0.000370235
0.000348234
0.000322194
0.000293523
0.000263334
0.000232444
0.000201464
0.000170843
0.000140892
0.000111816
8.37506e-05
5.67737e-05
3.0909e-05
6.14259e-06
-1.75608e-05
-4.02372e-05
-6.19054e-05
-8.25617e-05
0.000357275
0.00036763
0.000380554
0.000383239
0.000375625
0.000359504
0.000337943
0.000312961
0.000285988
0.000258033
0.000229779
0.000201696
0.00017411
0.000147208
0.000121088
9.57988e-05
7.13454e-05
4.769e-05
2.47655e-05
2.49042e-06
-1.92107e-05
-4.03878e-05
-6.10533e-05
0.000317172
0.000360178
0.000370494
0.00037682
0.000369859
0.000352326
0.000329685
0.000304676
0.000278644
0.000252362
0.000226308
0.000200775
0.000175939
0.00015185
0.000128498
0.000105846
8.38217e-05
6.23214e-05
4.1215e-05
2.03622e-05
-3.6476e-07
-2.10533e-05
-4.1726e-05
0.000312601
0.000333008
0.00036143
0.000378093
0.000369668
0.000347736
0.000322178
0.000296202
0.000270582
0.000245642
0.000221547
0.000198364
0.000176097
0.000154666
0.000133958
0.000113855
9.42147e-05
7.4865e-05
5.5604e-05
3.62165e-05
1.6504e-05
-3.67263e-06
-2.43427e-05
0.000315512
0.000330403
0.000364046
0.000981727
0.000375628
0.000343161
0.000312908
0.000285732
0.000260598
0.000237068
0.000214951
0.000194088
0.00017433
0.000155483
0.000137356
0.000119769
0.000102522
8.53766e-05
6.80504e-05
5.02328e-05
3.16253e-05
1.20089e-05
-8.65713e-06
0.000305723
0.000517797
0.00271245
0.00432404
0.00218829
0.000442747
0.00029735
0.000270829
0.000247302
0.000225813
0.000206001
0.000187608
0.000170408
0.00015414
0.000138582
0.000123525
0.000108729
9.39001e-05
7.8668e-05
6.26006e-05
4.52542e-05
2.62763e-05
5.58684e-06
0.000264492
0.000727917
0.00440767
0.00439785
0.00437906
0.000761206
0.000272896
0.000250351
0.000230043
0.000211484
0.000194449
0.000178761
0.000164206
0.000150542
0.000137563
0.000125069
0.000112813
0.00010046
8.75524e-05
7.35101e-05
5.76803e-05
3.94694e-05
1.86721e-05
0.000253799
0.000484729
0.0039492
0.00446237
0.00368053
0.000513702
0.000243235
0.000225961
0.000209589
0.000194427
0.000180451
0.000167605
0.000155736
0.000144668
0.000134255
0.00012434
0.000114704
0.000105003
9.47123e-05
8.30938e-05
6.92127e-05
5.20341e-05
3.0951e-05
0.000336688
0.00039128
0.000873239
0.00278084
0.000770063
0.000253208
0.000213898
0.000199982
0.000187024
0.000175104
0.000164155
0.00015412
0.00014488
0.000136333
0.000128408
0.00012102
0.000114019
0.000107106
9.97486e-05
9.11059e-05
7.99404e-05
6.44532e-05
4.28114e-05
0.000489552
0.000450634
0.0003547
0.000285741
0.000225254
0.000200236
0.000184391
0.000172294
0.000162208
0.00015332
0.000145295
0.000137969
0.000131235
0.000125062
0.000119457
0.000114432
0.000109945
0.000105821
0.000101643
9.66485e-05
8.94368e-05
7.70524e-05
5.45191e-05
0.000579101
0.000501274
0.000352651
0.000253563
0.000195888
0.000167224
0.000152835
0.000144038
0.000137465
0.000131872
0.000126809
0.000122097
0.000117699
0.000113661
0.000110079
0.000107075
0.000104756
0.000103153
0.000102153
0.000101429
9.97017e-05
9.17745e-05
6.82203e-05
0.000676933
0.000466428
0.000303418
0.000211898
0.000158729
0.000137626
0.000131241
0.000128683
0.000126648
0.000124547
0.000122278
0.000119855
0.000117365
0.00011494
0.000112766
0.000111088
0.000110203
0.000110432
0.000112103
0.000115974
0.000122372
0.000119923
9.68314e-05
0.000549614
6.00375e-05
0.000133465
0.00011929
0.000108155
0.000107288
0.000110044
0.000111776
0.000112223
0.000111897
0.000111089
0.000109924
0.000108494
0.00010692
0.000105388
0.000104175
0.000103682
0.000104429
0.00010708
0.000113974
0.000135422
0.000186268
0.000149393
766.587
766.59
766.5
766.315
760.944
760.948
761.352
762.033
322.542
322.267
321.52
320.811
0.462518
0.53618
0.626497
0.630043
0.282522
0.436086
0.626502
0.628184
0.122452
0.176697
0.444143
0.576684
0.111137
0.0734633
0.0849116
0.0383411
0.0133965
0.00251655
0.00179682
0.00179306
0.0018277
0.00847521
0.0127521
0.0114911
0.0255706
0.0361715
0.0362853
0.0364201
0.0374332
0.0374469
0.0375359
0.0376385
0.0011023
0.0238293
0.0388236
0.0388042
-0.00127205
-0.00149286
-0.0017367
-0.00148725
-0.00106948
-0.00123072
-0.00136389
-0.0014457
-0.000854153
-0.000937987
-0.0010022
-0.00100338
-0.00080254
-0.00085304
-0.000870655
-0.000583636
-0.000705355
-0.000737615
-0.000761816
-0.000760452
-0.000621098
-0.000642047
-0.000657111
-0.000667585
-0.000547761
-0.000562103
-0.000571675
-0.000577418
-0.000482916
-0.000493435
-0.000499956
-0.000503268
-0.000424943
-0.000433324
-0.000438358
-0.000440702
-0.0003727
-0.000379988
-0.000384512
-0.00038682
-0.000325377
-0.000332224
-0.00033683
-0.000339651
-0.000282393
-0.000289204
-0.000294241
-0.000297876
-0.000243328
-0.000250347
-0.000256005
-0.000260595
-0.000207863
-0.000215232
-0.000221593
-0.000227169
-0.000175736
-0.000183524
-0.0001906
-0.000197126
-0.000146708
-0.000154937
-0.000162693
-0.000170091
-0.000120548
-0.000129207
-0.000137583
-0.000145755
-9.70215e-05
-0.000106083
-0.000115007
-0.000123848
-7.58932e-05
-8.53195e-05
-9.47163e-05
-0.000104126
-5.69266e-05
-6.66792e-05
-7.64815e-05
-8.63703e-05
-3.98879e-05
-4.99369e-05
-6.00906e-05
-7.03857e-05
-2.45536e-05
-3.4888e-05
-4.53609e-05
-5.60112e-05
-1.07189e-05
-2.13627e-05
-3.21544e-05
-4.31348e-05
1.79488e-06
-9.24364e-06
-2.04002e-05
-3.17148e-05
1.31393e-05
1.5079e-06
-1.01308e-05
-2.18102e-05
2.33975e-05
1.07917e-05
-1.5473e-06
-1.36292e-05
3.2263e-05
1.80764e-05
4.78865e-06
-7.63201e-06
3.86268e-05
2.16382e-05
7.52766e-06
-4.68673e-06
4.12639e-05
1.66192e-05
2.57154e-06
-6.86531e-06
6.09922e-05
2.78266e-05
1.07241e-05
4.18576e-07
766.702
766.074
765.592
765.064
764.199
762.365
761.633
761.658
759.48
753.302
752.661
752.188
751.563
751.349
757.737
757.184
756.165
755.34
756.468
763.679
760.961
757.958
755.119
752.873
751.263
749.456
749.032
752.876
753.02
752.393
751.736
750.626
749.084
747.306
745.085
743.9
740.856
738.904
320.389
317.881
316.227
315.026
313.94
312.843
310.907
307.383
303.296
302.734
298.798
294.335
290.632
286.364
280.13
276.865
275.398
273.97
273.596
0.538874
0.857016
1.02539
1.01707
0.910337
0.642465
0.47392
0.398678
0.371567
0.355553
0.341904
0.317567
0.291371
0.318178
0.338898
0.345017
0.345709
0.351068
0.343658
0.41562
0.825442
1.00371
0.977373
0.97667
0.994417
1.00238
1.00555
1.00326
0.984372
0.879074
0.645869
0.30802
0.611623
0.707584
0.70992
0.710976
0.711479
0.634653
0.411854
0.323026
0.281598
0.289268
0.23879
0.194218
0.16362
0.14303
0.104278
0.0184082
0.0193915
0.0257765
0.136081
0.137429
0.154621
0.189806
0.199525
0.216203
0.265165
0.0375167
0.022164
0.00282375
0.00342251
0.0055027
0.00918221
0.0115762
0.011279
0.0121506
0.0176009
0.0347923
0.0400653
0.0462938
0.020448
0.0081427
0.00723625
0.00706622
0.00709857
0.00723134
0.00210179
0.00207006
0.00245024
0.00310496
0.0186517
0.0541339
0.0572063
0.0391473
0.0327083
0.0779285
0.0785401
0.0793021
0.0790293
0.0343792
0.00693834
0.00647736
0.00635222
0.00640263
0.00649684
0.0052529
0.00208822
0.00202284
0.0045856
0.0556191
0.0620214
0.0618266
0.0623689
0.0606253
0.0390882
0.0575162
0.0786074
0.0803142
0.0173731
0.00581273
0.00579038
0.00581478
0.00592802
0.00613817
0.0346442
0.00493342
0.00145069
0.00295217
0.025227
0.0309462
0.000706762
0.000173159
0.000629491
0.0010679
0.0011326
0.00750857
0.0207011
0.0180251
0.00591761
0.00528571
0.0054232
0.00555308
0.00567322
0.0378705
0.038009
0.00959024
0.000199972
-0.000540958
-0.000762163
-0.00020574
0.00112285
0.00140908
0.000902677
0.00116719
0.00258319
0.0154951
0.0200049
0.0066352
0.00496694
0.00515835
0.00528501
0.00529693
0.0388704
0.0376159
0.0106233
-0.000278449
-0.000456185
-0.000408803
0.000844341
0.00136517
0.0013911
0.00078996
0.0011131
0.0045675
0.0185738
0.0207634
0.00500305
0.00475129
0.00497996
0.00508917
0.0049654
0.000578269
0.0015131
-0.000912902
-0.000550401
-0.000449195
-0.00030803
-8.93639e-05
0.000195068
0.000396292
0.000673639
0.000917664
0.0014353
0.0151062
0.0214328
0.0178227
0.00453809
0.00483357
0.00496783
0.00470099
-0.00152316
-0.00131008
-0.000886556
-0.000565757
-0.000427475
-0.000293358
-0.000105074
0.00010929
0.000334486
0.000557156
0.00076011
0.0010038
0.00843797
0.0181452
0.0188761
0.0104232
0.00469992
0.00617699
0.00506318
-0.000988323
-0.000819871
-0.000708013
-0.000558171
-0.000407931
-0.000264
-9.67501e-05
8.29778e-05
0.000267093
0.000446481
0.000610009
0.000743053
0.000829737
0.00107787
0.00265348
0.00806965
0.0236232
0.0275827
0.023302
-0.000367188
-0.000272208
-0.000109274
-0.000404801
-0.000376544
-0.000248388
-0.000100158
5.74587e-05
0.000205785
0.000341849
0.000471998
0.000584259
0.000687797
0.000865574
0.00112504
0.0147282
0.0275128
0.0274862
0.0271649
-0.000480743
-0.000117614
1.75512e-06
0.000133878
-0.00019256
-0.0002428
-7.83419e-05
0.000134678
0.000228116
0.000251711
0.00034177
0.000426807
0.000498413
0.000581048
0.000638527
0.00475817
0.016952
0.0132865
0.00172776
-0.000679415
-0.000493084
6.11794e-06
0.000187144
-0.000148387
-0.000243698
-6.14367e-05
0.000131965
0.000229677
0.000254565
0.000222296
0.000280134
0.000318826
0.000340702
0.000318662
0.000168966
-3.67558e-05
-3.71387e-06
-6.06087e-05
-0.000582474
-0.000552481
-0.000497118
-0.000408343
-0.000327161
-0.000242332
-9.80084e-05
9.59633e-05
0.000172311
0.00019784
0.000118918
0.000152303
0.000168233
0.000160676
0.000115238
1.62597e-05
-8.40781e-05
-7.13692e-05
-0.000103848
-0.000505174
-0.000482434
-0.00044053
-0.00038376
-0.000317716
-0.00024932
-0.000181166
-9.37215e-05
-5.03495e-07
-7.70426e-07
2.45895e-05
4.44784e-05
4.59902e-05
2.66114e-05
-1.74392e-05
-8.36578e-05
-0.000135316
-0.000133776
-7.64905e-05
-0.000441707
-0.000425321
-0.000394538
-0.000352222
-0.000302498
-0.000250288
-0.000199323
-0.000152037
-0.000110207
-7.61053e-05
-5.34836e-05
-4.53106e-05
-5.2912e-05
-7.65464e-05
-0.000114447
-0.000156525
-0.000171685
-0.000153541
0.00150609
-0.000388338
-0.000377714
-0.000356149
-0.00032568
-0.000289392
-0.000250938
-0.000213446
-0.000179328
-0.000150614
-0.000129522
-0.000118579
-0.000119758
-0.000133639
-0.000159156
-0.00019239
-0.00022163
-0.000223335
-0.000199726
0.00659021
-0.000342506
-0.000337161
-0.000323426
-0.000302857
-0.00027783
-0.000251135
-0.000225368
-0.000202754
-0.000185251
-0.000174716
-0.000173015
-0.000181333
-0.000199727
-0.000226697
-0.00025819
-0.000284865
-0.000290237
-0.000268558
0.00675734
-0.000302489
-0.000301978
-0.00029501
-0.00028284
-0.000267347
-0.000250713
-0.000235085
-0.000222385
-0.000214358
-0.000212516
-0.000218145
-0.000231922
-0.000253568
-0.000281543
-0.000312584
-0.000340706
-0.000354906
-0.000337688
0.0069465
-0.000267126
-0.000271007
-0.000269937
-0.00026496
-0.000257594
-0.00024957
-0.000242656
-0.000238463
-0.000238422
-0.000243701
-0.00025512
-0.000272925
-0.000296558
-0.000324502
-0.000354332
-0.00038298
-0.000403852
-0.000392073
0.00713857
-0.000235613
-0.000243447
-0.000247527
-0.000248737
-0.00024832
-0.000247674
-0.000248222
-0.000251278
-0.000257956
-0.00026907
-0.000285012
-0.000305586
-0.000329834
-0.000355966
-0.000381636
-0.000404625
-0.00041992
-0.0004036
0.00328443
-0.000207375
-0.000218729
-0.000227295
-0.000233831
-0.000239361
-0.000245016
-0.000251938
-0.000261163
-0.000273507
-0.000289441
-0.000308945
-0.000331323
-0.00035502
-0.000377475
-0.000395135
-0.000403381
-0.000394072
-0.000350829
-0.000259895
-0.000181984
-0.000196436
-0.000208889
-0.000219992
-0.000230593
-0.000241612
-0.000253962
-0.000268442
-0.000285614
-0.000305647
-0.000328147
-0.000351923
-0.000374733
-0.000392979
-0.000401158
-0.000390392
-0.000347107
-0.000267136
-0.000126225
-0.000159104
-0.000176248
-0.000192038
-0.000207025
-0.000221916
-0.000237468
-0.00025442
-0.000273393
-0.000294754
-0.000318453
-0.000343816
-0.000369276
-0.000392055
-0.000407739
-0.000409331
-0.000384908
-0.000317898
-0.000214816
0.00374109
-0.000138462
-0.000157912
-0.000176527
-0.000194768
-0.000213234
-0.000232565
-0.000253383
-0.000276198
-0.000301264
-0.000328417
-0.000356849
-0.000384824
-0.000409338
-0.000425693
-0.000426581
-0.000399941
-0.000330219
-0.000227021
0.00925164
-0.000119824
-0.000141214
-0.000162169
-0.000183071
-0.000204439
-0.000226841
-0.000250843
-0.00027691
-0.000305278
-0.000335785
-0.000367643
-0.000399161
-0.000427401
-0.000447817
-0.00045362
-0.000434286
-0.000376394
-0.000284023
0.00945542
-0.00010299
-0.000125973
-0.0001488
-0.000171785
-0.000195398
-0.000220182
-0.000246697
-0.000275438
-0.000306708
-0.000340457
-0.00037606
-0.000412034
-0.000445705
-0.000472873
-0.000487343
-0.000479784
-0.000436567
-0.00034925
0.00961588
-8.77888e-05
-0.000112033
-0.000136267
-0.000160756
-0.000185953
-0.000212414
-0.000240751
-0.000271546
-0.000305247
-0.000342016
-0.000381513
-0.000422606
-0.00046305
-0.00049912
-0.000524957
-0.000531808
-0.000503817
-0.000417305
0.00956652
-7.40877e-05
-9.92643e-05
-0.000124428
-0.000149819
-0.000175907
-0.000203307
-0.000232718
-0.000264863
-0.000300395
-0.000339771
-0.000383053
-0.000429616
-0.000477815
-0.000524479
-0.000564002
-0.000587798
-0.000577558
-0.000493006
0.0097792
-6.18015e-05
-8.75703e-05
-0.000113145
-0.000138786
-0.000165026
-0.000192568
-0.000222233
-0.000254909
-0.000291494
-0.000332804
-0.000379407
-0.00043134
-0.000487715
-0.000546027
-0.000600961
-0.000641881
-0.000649687
-0.000571136
0.00985842
-5.09031e-05
-7.68768e-05
-0.000102269
-0.000127436
-0.000153021
-0.000179848
-0.000208864
-0.000241123
-0.000277776
-0.000320023
-0.000369018
-0.000425628
-0.000489901
-0.000560259
-0.000631491
-0.000681457
-0.000699155
-0.000621028
0.00207342
-4.14255e-05
-6.71132e-05
-9.16083e-05
-0.00011548
-0.000139545
-0.00016475
-0.000192146
-0.00022292
-0.000258436
-0.000300272
-0.000350219
-0.000410152
-0.000481387
-0.000563753
-0.000652822
-0.000711565
-0.000738501
-0.000647233
0.000295703
-3.34515e-05
-5.81628e-05
-8.08728e-05
-0.000102533
-0.000124173
-0.000146836
-0.000171618
-0.000199755
-0.000232735
-0.000272433
-0.000321245
-0.000382153
-0.000458389
-0.000552451
-0.000663533
-0.000753635
-0.000814789
-0.000714485
0.00276063
-2.70862e-05
-4.97461e-05
-6.95483e-05
-8.80008e-05
-0.00010633
-0.000125585
-0.000146791
-0.000171107
-0.000199987
-0.000235412
-0.000280192
-0.000338347
-0.000415345
-0.000517996
-0.000654125
-0.000815343
-0.000944832
-0.000846543
0.00334252
-2.23056e-05
-4.11273e-05
-5.66366e-05
-7.0875e-05
-8.51039e-05
-0.000100202
-0.000116966
-0.000136298
-0.000159395
-0.000188012
-0.000224903
-0.00027451
-0.000343865
-0.000444213
-0.00059711
-0.000838636
-0.00113271
-0.00109498
0.00313792
-1.82305e-05
-3.07681e-05
-4.07766e-05
-5.01377e-05
-5.98187e-05
-7.03178e-05
-8.20403e-05
-9.54618e-05
-0.000111267
-0.000130561
-0.000155285
-0.00018899
-0.000238138
-0.000315225
-0.000453785
-0.000747888
-0.00128356
-0.00146164
0.00247656
-9.52978e-06
-1.71658e-05
-2.27077e-05
-2.82087e-05
-3.41985e-05
-4.07898e-05
-4.80048e-05
-5.58674e-05
-6.44639e-05
-7.40379e-05
-8.52093e-05
-9.95288e-05
-0.000120748
-0.000157787
-0.000236754
-0.000452177
-0.00104887
-0.0017012
0.00133614
)
;

boundaryField
{
    leftWall
    {
        type            fixedFluxPressure;
        gradient        uniform 0;
        value           nonuniform List<scalar> 
50
(
757.467
757.439
757.391
757.324
757.238
757.134
757.011
756.868
756.613
741.684
258.953
0.613589
0.806387
0.325059
0.00844251
0.00326967
0.00365469
0.00315689
0.00287133
0.00258882
0.00232175
0.00206937
0.00183879
0.0016405
0.00147647
0.0013371
0.00180534
0.00188544
0.0018147
0.00177081
0.00171538
0.0016329
0.00158924
0.0015731
0.00150095
0.000627064
0.000425493
0.000390173
0.000357275
0.000317172
0.000312601
0.000315512
0.000305723
0.000264492
0.000253799
0.000336688
0.000489552
0.000579101
0.000676933
0.000549614
)
;
    }
    rightWall
    {
        type            fixedFluxPressure;
        gradient        uniform 0;
        value           nonuniform List<scalar> 
50
(
757.201
757.051
756.852
757.27
757.191
757.102
757.015
756.936
756.468
738.904
273.596
0.343658
0.634653
0.265165
0.00723134
0.00649684
0.00613817
0.00567322
0.00529693
0.0049654
0.00470099
0.00506318
0.023302
0.0271649
0.00172776
-6.06087e-05
-0.000103848
-7.64905e-05
0.00150609
0.00659021
0.00675734
0.0069465
0.00713857
0.00328443
-0.000259895
-0.000126225
0.00374109
0.00925164
0.00945542
0.00961588
0.00956652
0.0097792
0.00985842
0.00207342
0.000295703
0.00276063
0.00334252
0.00313792
0.00247656
0.00133614
)
;
    }
    lowerWall
    {
        type            fixedFluxPressure;
        gradient        uniform 0;
        value           nonuniform List<scalar> 
62
(
757.467
757.589
757.78
758.033
758.342
758.696
759.087
759.509
759.953
760.414
760.884
761.355
761.816
762.256
762.664
763.037
763.381
763.713
763.985
764.208
764.547
764.775
764.916
764.916
764.927
764.964
765.014
765.094
765.226
765.396
765.644
766.587
766.59
766.5
766.315
764.892
764.923
764.41
763.849
763.875
764.089
766.433
766.819
764.892
764.665
764.576
764.296
763.882
763.338
762.609
761.928
761.223
760.488
759.683
758.939
758.533
758.399
758.05
757.744
757.446
757.252
757.201
)
;
    }
    atmosphere
    {
        type            totalPressure;
        rho             rho;
        psi             none;
        gamma           1;
        p0              uniform 0;
        value           nonuniform List<scalar> 
46
(
-5.72207e-05
0
0
0
0
0
0
0
0
0
0
0
0
0
0
0
0
0
0
0
0
0
-3.25725e-07
-1.03353e-06
-1.70097e-06
-2.53101e-06
-3.51749e-06
-5.51077e-06
-8.95517e-06
-1.30936e-05
-1.78419e-05
-2.3105e-05
-2.87743e-05
-3.47259e-05
-4.08192e-05
-4.68936e-05
-5.27659e-05
-5.82241e-05
-6.30176e-05
-6.68355e-05
-6.92527e-05
-6.95899e-05
-6.65053e-05
-5.68686e-05
-3.05385e-05
0
)
;
    }
    defaultFaces
    {
        type            empty;
    }
}


// ************************************************************************* //
