/*--------------------------------*- C++ -*----------------------------------*\
  =========                 |
  \\      /  F ield         | OpenFOAM: The Open Source CFD Toolbox
   \\    /   O peration     | Website:  https://openfoam.org
    \\  /    A nd           | Version:  9
     \\/     M anipulation  |
\*---------------------------------------------------------------------------*/
FoamFile
{
    format      ascii;
    class       volScalarField;
    location    "3.3";
    object      k;
}
// * * * * * * * * * * * * * * * * * * * * * * * * * * * * * * * * * * * * * //

dimensions      [0 2 -2 0 0 0 0];

internalField   nonuniform List<scalar> 
2268
(
0.000889099
0.00217574
0.0031598
0.00392089
0.00452867
0.00501809
0.00541368
0.00573451
0.00599573
0.00620982
0.00638683
0.00654117
0.00666147
0.00674232
0.00677381
0.00673453
0.00655724
0.00608181
0.00552908
0.00501104
0.00433637
0.00317314
0.00103502
0.00191685
0.00508827
0.00714907
0.00875911
0.0100477
0.0110842
0.0119198
0.0125959
0.0131461
0.0135981
0.0139718
0.0142771
0.0145109
0.0146633
0.0147119
0.0146132
0.0142764
0.0135391
0.0124851
0.0113708
0.00987507
0.00732313
0.00277292
0.00271358
0.00680203
0.00935287
0.0113433
0.0129412
0.0142278
0.015264
0.0161006
0.0167801
0.0173368
0.0177955
0.018169
0.0184553
0.0186422
0.0187033
0.0185908
0.0182233
0.0174874
0.0164049
0.0150604
0.0131645
0.00999776
0.00402521
0.0033945
0.00817476
0.0110567
0.0132919
0.0150873
0.016533
0.0176963
0.0186347
0.0193965
0.020021
0.0205363
0.0209575
0.021284
0.0215033
0.0215883
0.0214934
0.0211511
0.0204804
0.0194448
0.0180332
0.0159598
0.0124439
0.0052093
0.0039915
0.00938701
0.0125426
0.0149672
0.0169106
0.0184727
0.0197275
0.0207388
0.0215602
0.0222352
0.0227948
0.0232566
0.0236212
0.0238772
0.023999
0.0239454
0.0236607
0.0230797
0.0221352
0.0207514
0.0186459
0.0149482
0.00649328
0.00453332
0.010505
0.0139106
0.0164984
0.0185623
0.0202148
0.0215382
0.0226032
0.023469
0.024183
0.0247793
0.0252779
0.0256814
0.02598
0.0261507
0.0261568
0.0259508
0.0254753
0.0246536
0.0233719
0.0213636
0.0176731
0.00808904
0.00503979
0.0115649
0.0152112
0.0179493
0.0201167
0.0218406
0.0232146
0.024318
0.0252158
0.0259594
0.0265861
0.0271191
0.0275629
0.0279099
0.02814
0.02822
0.0281071
0.0277478
0.0270662
0.0259502
0.024163
0.0207761
0.0105308
0.00552487
0.0125916
0.0164768
0.0193598
0.0216185
0.0233979
0.0248065
0.0259341
0.0268524
0.0276169
0.0282681
0.0288332
0.0293184
0.029719
0.0300171
0.0301821
0.030172
0.0299349
0.0294013
0.0284851
0.0270209
0.0243422
0.015861
0.00111306
0.0032436
0.00435511
0.00487433
0.00506356
0.00503009
0.00482936
0.00456205
0.00429682
0.00419391
0.00417843
0.00391763
0.00369816
0.00376191
0.00412265
0.0038362
0.00292661
0.001979
0.000971845
0.00279602
0.0070236
0.00913888
0.0101546
0.0105688
0.010593
0.0102968
0.00982699
0.00938764
0.00922382
0.00913746
0.00861827
0.00825436
0.00835981
0.00842514
0.00774883
0.00613821
0.00425397
0.0018903
0.00394508
0.00923588
0.0117423
0.0129427
0.0134422
0.0134955
0.0132056
0.0127228
0.0122542
0.0119906
0.0117639
0.0112324
0.0108235
0.0107326
0.0105275
0.00963863
0.00784968
0.0056219
0.00254122
0.00505348
0.0111428
0.0138433
0.0150994
0.015605
0.015649
0.0153517
0.0148643
0.0143781
0.014039
0.0137112
0.0131721
0.0127206
0.0124715
0.0120552
0.0109897
0.00909584
0.00662464
0.00310935
0.00633006
0.0129887
0.0158054
0.0170389
0.0174919
0.0174919
0.0171672
0.0166652
0.0161567
0.0157529
0.0153478
0.0147968
0.0142968
0.0139172
0.0133413
0.0121251
0.0101281
0.00744182
0.00361992
0.00810535
0.0149356
0.0177707
0.0188991
0.0192445
0.0191695
0.0188004
0.0182737
0.0177369
0.0172731
0.0168039
0.0162323
0.0156777
0.0151857
0.0144839
0.013146
0.0110162
0.00815462
0.00405816
0.0108447
0.0172172
0.0198276
0.020735
0.0209187
0.0207429
0.020317
0.0197588
0.0191894
0.0186679
0.01814
0.0175363
0.0169216
0.0163278
0.0155221
0.0140907
0.0118106
0.00876501
0.00430119
0.0150266
0.0200292
0.0220008
0.0225576
0.0225339
0.0222389
0.0217501
0.0211578
0.0205529
0.0199743
0.0193876
0.0187396
0.0180602
0.0173712
0.0164757
0.0149722
0.0125484
0.00925028
0.00431672
0.00627266
0.0141761
0.0184399
0.0215484
0.0239339
0.0257755
0.0272131
0.0283567
0.029289
0.0300723
0.0307516
0.0313579
0.0319033
0.0323883
0.0327989
0.0331056
0.033264
0.0332202
0.0329193
0.0323232
0.0313912
0.0299708
0.0272556
0.0071885
0.0163175
0.0211547
0.0245994
0.0271169
0.0289651
0.0303652
0.0314675
0.0323688
0.0331412
0.0338329
0.0344795
0.0351058
0.035719
0.0363076
0.0368353
0.0372365
0.0374332
0.0373753
0.0370748
0.0365656
0.0358252
0.0346964
0.0083367
0.0188123
0.0242224
0.028056
0.0306159
0.0323265
0.0335685
0.034542
0.035344
0.0360538
0.0367126
0.0373674
0.0380629
0.0388103
0.0395983
0.0403811
0.0410462
0.0414584
0.0415412
0.0413551
0.0410002
0.0404482
0.0396224
0.0110385
0.0224018
0.0278705
0.0322647
0.0346736
0.0360012
0.0369103
0.0376519
0.0382704
0.0388657
0.0394183
0.0400287
0.0407735
0.0416533
0.0426603
0.0437464
0.0447093
0.0453226
0.0454522
0.0452393
0.0449026
0.0443907
0.0435789
0.0142365
0.0263235
0.03179
0.0370792
0.0383664
0.0390651
0.0399142
0.0405787
0.0410541
0.0414639
0.0418379
0.0422984
0.0429675
0.043842
0.0448989
0.045997
0.0468302
0.0473221
0.0474984
0.0477168
0.0480284
0.0481781
0.046974
0.0126855
0.0266709
0.0337456
0.0379174
0.0396945
0.0408922
0.0424295
0.0430524
0.0430465
0.0431147
0.0433348
0.0437772
0.0444146
0.0452402
0.0462504
0.0472461
0.0480143
0.0485604
0.0487849
0.0491157
0.0495798
0.0495399
0.0485589
0.0118206
0.0272684
0.0343282
0.0390533
0.0410925
0.0417519
0.0429017
0.0434224
0.0436526
0.0439358
0.0442949
0.0448235
0.0455074
0.0463509
0.0473334
0.0482317
0.0489581
0.0494483
0.0495486
0.0497949
0.0496616
0.0494112
0.0491525
0.0115808
0.0271502
0.0340664
0.0398379
0.0421793
0.0420576
0.042512
0.0432942
0.0439798
0.0444812
0.0450521
0.0456698
0.0463108
0.0470351
0.0478013
0.0484264
0.048827
0.0491389
0.0493289
0.049656
0.0497078
0.0493675
0.0490459
0.0110625
0.0250125
0.0320692
0.0375865
0.0401766
0.0410415
0.0419706
0.043061
0.0439891
0.0446919
0.0454115
0.0460737
0.0466454
0.0471869
0.0476979
0.0481001
0.0483832
0.0486324
0.0487916
0.0488937
0.048937
0.0487968
0.048498
0.0101443
0.0225931
0.0295137
0.0344962
0.0377387
0.0397933
0.0412736
0.0425447
0.0436706
0.0446045
0.0454241
0.0461018
0.0466353
0.0470719
0.0474395
0.0477341
0.0479699
0.0481703
0.0482615
0.0482128
0.0481027
0.0479738
0.0477771
0.00947667
0.0211756
0.0280204
0.0329753
0.036563
0.0389907
0.0406739
0.042057
0.0432799
0.0443223
0.0451917
0.0458767
0.0463917
0.0467812
0.047085
0.0473246
0.0475134
0.0476467
0.0476653
0.0475339
0.0473105
0.047085
0.0468434
0.0093465
0.0208899
0.0275764
0.0323665
0.0358838
0.0383606
0.0401354
0.0415737
0.042823
0.0438886
0.0447631
0.0454428
0.0459476
0.0463177
0.0465918
0.0467943
0.0469338
0.0469971
0.0469449
0.0467563
0.0464717
0.0461581
0.0458177
0.0096257
0.0212998
0.0276574
0.0321242
0.0354221
0.0378115
0.039593
0.0410368
0.0422685
0.0433105
0.0441605
0.0448222
0.0453163
0.0456761
0.0459338
0.04611
0.0462102
0.0462233
0.0461273
0.0459133
0.0456067
0.0452455
0.0448324
0.0100773
0.0218456
0.0278416
0.0319565
0.0349874
0.0372495
0.0389896
0.0404033
0.0415919
0.0425877
0.0433995
0.0440362
0.0445179
0.0448714
0.0451218
0.0452854
0.045367
0.0453604
0.0452551
0.0450483
0.0447531
0.0443869
0.04395
0.010603
0.0222197
0.0278824
0.0316868
0.0344911
0.0366232
0.0382948
0.0396552
0.0407887
0.0417326
0.0425037
0.0431156
0.0435873
0.0439404
0.0441946
0.0443629
0.0444502
0.0444544
0.0443708
0.0441979
0.0439404
0.0436036
0.0431859
0.0108916
0.0223375
0.0277322
0.0312837
0.0338966
0.0359047
0.0374968
0.0387953
0.0398733
0.0407696
0.0415063
0.0421
0.0425688
0.042931
0.0432021
0.0433929
0.0435081
0.0435475
0.0435084
0.0433885
0.0431869
0.0429028
0.0425333
0.0109727
0.0221987
0.0273779
0.0307304
0.0331869
0.035085
0.0366003
0.0378403
0.0388704
0.0397299
0.0404438
0.0410303
0.0415069
0.0418895
0.0421907
0.0424192
0.0425791
0.0426703
0.0426901
0.0426346
0.0424996
0.0422813
0.0419762
0.0108847
0.02183
0.0268274
0.0300251
0.0323591
0.0341673
0.0356183
0.0368109
0.0378063
0.0386434
0.0393486
0.0399411
0.0404376
0.0408519
0.0411946
0.0414723
0.041688
0.0418407
0.0419267
0.0419408
0.0418771
0.0417303
0.0414966
0.0106599
0.0212652
0.0260999
0.029177
0.0314191
0.0331605
0.0345649
0.0357262
0.036703
0.0375337
0.0382451
0.0388572
0.0393851
0.0398413
0.0402342
0.0405689
0.0408466
0.0410653
0.0412202
0.0413052
0.0413134
0.041239
0.0410781
0.0103249
0.0205384
0.0252202
0.0282019
0.0303785
0.032076
0.0334533
0.0346011
0.0355763
0.0364166
0.0371489
0.037793
0.0383628
0.0388691
0.0393188
0.0397153
0.0400582
0.0403444
0.0405684
0.0407234
0.0408022
0.0407989
0.0407094
0.00990066
0.0196815
0.0242151
0.0271199
0.0292525
0.0309266
0.0322956
0.0334474
0.0344372
0.0353022
0.0360687
0.0367558
0.0373764
0.0379398
0.0384512
0.0389126
0.0393223
0.0396765
0.0399688
0.0401924
0.04034
0.0404057
0.0403854
0.00940369
0.0187232
0.0231113
0.0259529
0.0280586
0.0297268
0.0311043
0.0322757
0.0332947
0.0341977
0.03501
0.0357499
0.036429
0.0370552
0.0376324
0.0381613
0.0386392
0.0390616
0.0394219
0.0397131
0.0399281
0.0400611
0.040108
0.00884699
0.0176879
0.0219345
0.0247241
0.0268167
0.0284932
0.0298932
0.0310978
0.0321587
0.033111
0.0339791
0.0347801
0.0355244
0.0362186
0.0368655
0.0374646
0.0380126
0.0385042
0.038933
0.0392917
0.0395738
0.0397732
0.039886
0.0082378
0.0165956
0.020709
0.0234574
0.0255485
0.0272452
0.0286794
0.0299282
0.0310415
0.0320527
0.032985
0.0338544
0.0346701
0.0354374
0.036158
0.0368305
0.0374511
0.0380141
0.0385129
0.0389404
0.0392901
0.0395562
0.0397345
0.00758906
0.0154635
0.0194589
0.0221783
0.0242783
0.0260052
0.027483
0.0287853
0.0299595
0.0310375
0.0320413
0.0329854
0.0338779
0.0347233
0.0355221
0.0362721
0.0369689
0.0376066
0.0381782
0.0386767
0.0390957
0.0394294
0.0396737
0.00697536
0.0143056
0.0182093
0.020914
0.0230332
0.0247987
0.0263279
0.0276909
0.0289328
0.030084
0.0311651
0.0321895
0.0331644
0.0340929
0.0349749
0.0358073
0.036585
0.0373017
0.03795
0.0385229
0.0390137
0.0394169
0.0397283
0.00639614
0.0132046
0.0170118
0.019705
0.021847
0.0236553
0.0252406
0.0266693
0.027984
0.0292134
0.0303768
0.0314865
0.032549
0.0335664
0.0345373
0.035458
0.0363227
0.0371239
0.0378539
0.0385054
0.0390715
0.0395466
0.0399266
0.00585887
0.012208
0.0159121
0.0185915
0.0207565
0.0226085
0.0242518
0.0257484
0.0271388
0.0284499
0.0296995
0.0308992
0.0320548
0.0331671
0.0342339
0.0352499
0.0362084
0.037101
0.0379191
0.0386545
0.0393
0.0398499
0.0403001
0.00538544
0.011355
0.0149508
0.0176098
0.0197934
0.0216872
0.0233875
0.0249525
0.0264199
0.0278151
0.0291548
0.0304495
0.0317044
0.0329192
0.0340902
0.0352109
0.0362725
0.0372652
0.038179
0.0390048
0.0397347
0.0403627
0.0408849
0.00499423
0.0106667
0.0141542
0.0167859
0.0189826
0.0209139
0.0226687
0.024301
0.0258458
0.0273272
0.028761
0.0301569
0.031519
0.0328463
0.0341331
0.0353705
0.0365475
0.0376518
0.0386713
0.0395954
0.0404155
0.0411253
0.0417212
0.00469221
0.0101432
0.0135309
0.0161326
0.0183378
0.0203027
0.0221091
0.023807
0.0254295
0.0269997
0.0285329
0.030038
0.0315185
0.0329718
0.03439
0.0357609
0.0370698
0.0383007
0.0394387
0.0404709
0.0413879
0.0421833
0.0428544
0.00447429
0.00977012
0.0130755
0.0156504
0.0178631
0.0198591
0.0217146
0.0234769
0.0251779
0.0268406
0.0284804
0.0301062
0.0317204
0.033319
0.0348904
0.0364179
0.037881
0.0392586
0.0405313
0.0416835
0.0427047
0.0435893
0.0443357
0.00432808
0.00952772
0.0127758
0.0153336
0.0175566
0.0195831
0.0214861
0.0233117
0.0250927
0.026853
0.0286095
0.0303717
0.0321412
0.0339115
0.0356666
0.0373826
0.0390307
0.0405815
0.0420093
0.0432952
0.0444281
0.0454039
0.0462241
0.00424012
0.00940088
0.0126237
0.0151796
0.0174182
0.0194749
0.0214226
0.0233095
0.0251715
0.0270356
0.0289217
0.030841
0.032795
0.0347738
0.0367551
0.0387043
0.0405794
0.0423384
0.0439466
0.0453812
0.0466317
0.047698
0.0485866
0.00420178
0.00939151
0.0126303
0.0152031
0.0174604
0.0195417
0.021526
0.0234678
0.025409
0.0273827
0.0294134
0.031516
0.0336929
0.0359304
0.0381972
0.0404423
0.0426027
0.0446161
0.0464348
0.0480325
0.0494026
0.0505529
0.0514988
0.00421841
0.0095474
0.0128576
0.0154599
0.0177231
0.0198063
0.0218044
0.0237841
0.0257965
0.0278824
0.0300737
0.0323911
0.03484
0.0374037
0.0400387
0.0426687
0.045196
0.0475247
0.0495881
0.0513592
0.0528426
0.054061
0.0550445
0.00433607
0.0100483
0.0134934
0.0160932
0.0182952
0.0203136
0.0222729
0.0242546
0.0263186
0.0285136
0.0308797
0.0334472
0.0362286
0.0392073
0.0423248
0.0454678
0.0484795
0.0512048
0.0535487
0.0554928
0.0570677
0.058324
0.0593138
0.00474739
0.0114793
0.0150409
0.0174211
0.0193418
0.0211322
0.0229467
0.0248666
0.0269478
0.0292397
0.0317901
0.0346426
0.0378253
0.0413308
0.0450863
0.0489277
0.052598
0.0558339
0.0584915
0.0605862
0.0622063
0.0634498
0.0644005
0.00622703
0.0156026
0.0187129
0.0200597
0.0211131
0.0223348
0.0238225
0.0255858
0.0276356
0.0300028
0.0327377
0.0359015
0.0395514
0.0437081
0.0483008
0.0531018
0.0576973
0.0616268
0.064625
0.0668097
0.0683915
0.0695463
0.0703977
0.0114993
0.0264901
0.0266424
0.0248474
0.0238364
0.0239232
0.0248383
0.0263381
0.0283055
0.0307202
0.0336246
0.0371023
0.0412563
0.046167
0.0518039
0.0578884
0.0638175
0.0688266
0.0721876
0.0743386
0.0757496
0.0767135
0.0773943
0.0275941
0.0498755
0.0402731
0.031893
0.0272934
0.0256671
0.02582
0.0269962
0.0288538
0.0312891
0.0343277
0.0380759
0.0426944
0.0483537
0.0551193
0.0627476
0.0705909
0.0777847
0.0814665
0.083334
0.0843809
0.0850338
0.0854728
0.0851941
0.0875684
0.0560831
0.0386482
0.030166
0.0269431
0.0264649
0.0273945
0.0291682
0.0316072
0.0347206
0.0386306
0.0435432
0.0497103
0.0573145
0.0662869
0.0765227
0.0897174
0.0929144
0.0939162
0.0943374
0.0945665
0.0947123
0.0212562
0.0183656
0.0171252
0.0171397
0.0333259
0.0323438
0.0315601
0.0310725
0.0387914
0.0381773
0.0375649
0.0369958
0.0427782
0.0421965
0.0415836
0.0409353
0.0459482
0.0453882
0.0447553
0.0440463
0.0479665
0.0475421
0.046941
0.0461099
0.049347
0.0494701
0.0489278
0.0477558
0.0489558
0.0487657
0.0483002
0.0476089
0.048231
0.0480068
0.0476841
0.0472055
0.0475372
0.047334
0.047045
0.0466287
0.0465713
0.0463453
0.0460468
0.045657
0.0454821
0.0452241
0.0449116
0.0445362
0.0444476
0.0441678
0.0438484
0.0434854
0.0435491
0.0432654
0.0429518
0.0426064
0.0428007
0.0425305
0.0422355
0.0419154
0.0421858
0.0419415
0.041675
0.0413866
0.0416786
0.0414672
0.0412347
0.0409817
0.0412539
0.041078
0.0408816
0.040665
0.040891
0.0407509
0.0405903
0.0404094
0.0405764
0.040471
0.0403449
0.0401983
0.0403044
0.0402322
0.0401391
0.0400251
0.0400769
0.0400366
0.0399752
0.0398926
0.0399035
0.0398941
0.0398634
0.0398111
0.0397997
0.0398206
0.0398199
0.0397973
0.0397863
0.0398372
0.0398661
0.0398728
0.0398883
0.0399691
0.0400275
0.0400631
0.0401343
0.0402452
0.0403329
0.0403973
0.0405561
0.0406973
0.0408144
0.0409074
0.0411896
0.0413612
0.0415077
0.0416289
0.0420748
0.0422767
0.042452
0.0426008
0.0432564
0.043488
0.0436912
0.0438665
0.0447848
0.0450447
0.0452743
0.0454741
0.046717
0.0470028
0.047256
0.0474775
0.0491175
0.049425
0.0496976
0.0499364
0.0520583
0.0523811
0.0526666
0.0529165
0.0556178
0.0559467
0.0562363
0.0564891
0.0598802
0.0602024
0.0604845
0.0607296
0.0649323
0.065232
0.0654925
0.0657174
0.0708619
0.0711208
0.0713438
0.0715352
0.0777557
0.0779549
0.0781252
0.0782703
0.0856999
0.0858237
0.0859289
0.086018
0.094786
0.094826
0.0948598
0.0948884
0.0213228
0.0243901
0.0252927
0.0252873
0.0249453
0.0244681
0.023886
0.0232432
0.0225801
0.0219101
0.0212245
0.0204892
0.0197033
0.0188706
0.0178405
0.0162329
0.0136324
0.00987726
0.00426085
0.0307639
0.0303835
0.0296248
0.0287849
0.027992
0.0272554
0.0265259
0.0257926
0.0250376
0.0242361
0.0233974
0.0225124
0.0215665
0.0205418
0.0193361
0.0176788
0.0150737
0.010976
0.00468356
0.0361215
0.0348283
0.0332897
0.0319205
0.0307785
0.0298164
0.0289373
0.0280964
0.0272463
0.0263116
0.0253045
0.0242468
0.0231246
0.0219064
0.0205279
0.0188185
0.0163255
0.0122471
0.00542955
0.0398592
0.0385629
0.0365509
0.0347293
0.0332926
0.0321686
0.0311394
0.0301647
0.0292112
0.0281325
0.0269453
0.0257057
0.0244065
0.0230115
0.021499
0.0197845
0.0174564
0.0133888
0.00612993
0.042712
0.0409148
0.0390896
0.0371037
0.0355015
0.0342997
0.0330575
0.0318811
0.0307786
0.0296009
0.028283
0.026886
0.025412
0.0238389
0.0222002
0.0204209
0.0182341
0.0146323
0.0070048
0.0446958
0.0430029
0.040866
0.0388598
0.0371938
0.035816
0.0344771
0.0332177
0.0320194
0.0306819
0.0292228
0.0276792
0.0260559
0.0243512
0.0225617
0.0205194
0.0179344
0.0146606
0.00755266
0.0458828
0.0441349
0.0422075
0.0402361
0.0384424
0.0369735
0.0355417
0.0342342
0.032979
0.0315035
0.0298483
0.0281203
0.0263336
0.0244362
0.0222954
0.0196872
0.016937
0.0134235
0.00683605
0.046142
0.0443445
0.0426085
0.040858
0.0392191
0.0377794
0.0362741
0.0348673
0.033534
0.0319122
0.0300026
0.0280824
0.0260938
0.0239211
0.0214046
0.0184019
0.0154026
0.0118765
0.00556919
0.0460749
0.0442682
0.042592
0.0409449
0.039383
0.0379223
0.0364038
0.0348896
0.0333888
0.0316477
0.0296145
0.0275551
0.0253903
0.0230097
0.0203203
0.0172598
0.0140596
0.0104877
0.00487072
0.0456856
0.0440109
0.0423575
0.0407054
0.0390882
0.0375542
0.0360096
0.0344261
0.0327922
0.0309754
0.0289385
0.0268174
0.0245579
0.0221019
0.019421
0.016499
0.0134311
0.00996409
0.00455563
0.0448429
0.0433718
0.0418119
0.0402056
0.0386037
0.0370478
0.0354887
0.0338839
0.0321995
0.0303695
0.0283753
0.0262567
0.0239859
0.0215356
0.0189116
0.0161482
0.0132152
0.00974714
0.0043449
0.0438097
0.0425211
0.0411007
0.0396102
0.0380991
0.0365923
0.0350678
0.0334885
0.0318163
0.030018
0.0280825
0.0260111
0.0237886
0.0213917
0.0188452
0.0161445
0.0131297
0.00946244
0.00422825
0.0428195
0.0416802
0.0404114
0.0390654
0.0376783
0.0362644
0.034812
0.0332926
0.0316727
0.0299304
0.0280626
0.0260693
0.0239334
0.021638
0.019195
0.0165296
0.01343
0.00962064
0.004553
0.0419927
0.0409776
0.0398497
0.0386441
0.0373829
0.0360741
0.03471
0.0332681
0.0317206
0.0300497
0.0282602
0.0263606
0.0243351
0.0221612
0.0198234
0.017234
0.0141967
0.0104204
0.00513219
0.0413556
0.0404483
0.0394431
0.0383607
0.0372131
0.0360041
0.034728
0.0333666
0.0318971
0.0303068
0.028603
0.0267975
0.0248784
0.022818
0.0205845
0.0181069
0.0152147
0.0115495
0.00577155
0.0408843
0.0400744
0.0391746
0.0381968
0.0371469
0.0360261
0.0348289
0.0335416
0.0321469
0.0306365
0.0290171
0.0272982
0.0254714
0.0235116
0.0213854
0.0190318
0.0162961
0.0127457
0.00637527
0.0405386
0.0398186
0.0390106
0.0381218
0.0371548
0.0361093
0.0349803
0.0337578
0.03243
0.030992
0.0294486
0.0278059
0.0260584
0.0241865
0.0221597
0.019914
0.0172987
0.0138433
0.00690776
0.0402807
0.0396442
0.0389177
0.0381059
0.0372101
0.0362291
0.0351591
0.033993
0.0327237
0.0313483
0.0298701
0.0282927
0.0266115
0.0248108
0.0228594
0.0206852
0.0181165
0.0146153
0.00735448
0.040082
0.0395234
0.0388709
0.0381277
0.0372947
0.0363708
0.0353532
0.0342375
0.0330195
0.031698
0.0302749
0.0287516
0.0271235
0.0253748
0.023469
0.0213249
0.0187587
0.0151647
0.00753533
0.0399253
0.0394398
0.0388559
0.038176
0.0374008
0.0365296
0.0355606
0.0344913
0.0333196
0.0320452
0.0306688
0.0291899
0.027602
0.0258869
0.0240038
0.0218671
0.019266
0.0155547
0.00759276
0.0398042
0.0393883
0.0388696
0.0382498
0.0375297
0.0367089
0.0357867
0.0347618
0.0336333
0.0324011
0.0310649
0.029622
0.0280633
0.0263711
0.0244984
0.0223489
0.0196977
0.0158825
0.00771095
0.0397219
0.0393732
0.0389176
0.0383562
0.03769
0.036919
0.036043
0.0350615
0.033974
0.0327804
0.0314792
0.0300655
0.0285328
0.0268547
0.024981
0.0228089
0.0201068
0.0162104
0.00791044
0.0396894
0.0394064
0.0390126
0.0385091
0.0378963
0.0371749
0.0363448
0.035406
0.0343578
0.0331995
0.0319294
0.0305438
0.0290295
0.0273578
0.0254753
0.0232754
0.0205237
0.0165544
0.00813617
0.0397238
0.0395054
0.0391727
0.0387266
0.0381674
0.0374954
0.0367108
0.0358136
0.0348025
0.0336782
0.0324376
0.0310738
0.0295705
0.0278978
0.0259996
0.0237664
0.0209616
0.0169115
0.00836235
0.039847
0.0396925
0.0394202
0.0390308
0.0385246
0.0379019
0.0371619
0.0363052
0.0353311
0.034238
0.0330214
0.0316721
0.0301725
0.0284909
0.0265689
0.024295
0.0214282
0.0172804
0.0085823
0.0400848
0.0399933
0.0397805
0.0394468
0.0389923
0.0384176
0.0377219
0.0369048
0.0359645
0.034898
0.0336992
0.0323574
0.0308534
0.0291535
0.0271978
0.0248725
0.0219302
0.0176614
0.00877391
0.040466
0.0404365
0.0402817
0.0400024
0.0395986
0.0390704
0.0384168
0.0376362
0.0367257
0.0356807
0.0344935
0.0331514
0.0316335
0.0299046
0.0279028
0.0255112
0.0224742
0.0180524
0.00888784
0.0410226
0.0410536
0.0409553
0.0407285
0.0403733
0.0398892
0.0392747
0.038527
0.0376419
0.0366128
0.0354301
0.0340792
0.0325371
0.0307667
0.0287039
0.0262278
0.0230723
0.0184632
0.00892538
0.0417897
0.0418792
0.0418351
0.0416581
0.0413487
0.0409057
0.0403269
0.0396082
0.0387437
0.0377248
0.0365396
0.0351709
0.0335934
0.0317678
0.0296273
0.0270464
0.023749
0.0189294
0.00897861
0.0428059
0.0429512
0.042958
0.0428277
0.0425606
0.0421553
0.0416087
0.0409151
0.0400667
0.0390525
0.0378576
0.0364621
0.0348377
0.0329424
0.0307063
0.028
0.0245399
0.019498
0.00914734
0.0441136
0.0443109
0.0443645
0.0442769
0.0440485
0.0436775
0.0431596
0.0424878
0.0416517
0.0406374
0.0394266
0.0379956
0.0363128
0.0343325
0.0319823
0.0291296
0.0254862
0.0202106
0.0094788
0.0457599
0.0460039
0.0460994
0.0460499
0.0458561
0.0455161
0.0450244
0.044372
0.0435458
0.0425282
0.0412966
0.0398228
0.0380704
0.0359897
0.0335053
0.0304826
0.0266305
0.0210937
0.00992861
0.0477968
0.0480807
0.0482119
0.0481952
0.0480322
0.0477204
0.0472533
0.0466196
0.045803
0.0447815
0.0435271
0.0420052
0.0401733
0.0379762
0.0353349
0.0321131
0.0280162
0.0221658
0.0104517
0.0502821
0.0505968
0.050756
0.0507664
0.0506301
0.0503446
0.0499021
0.049289
0.048485
0.0474629
0.0461877
0.0446166
0.0426977
0.040368
0.0375429
0.0340841
0.0296921
0.023455
0.0110578
0.0532787
0.0536127
0.0537908
0.0538218
0.0537086
0.0534486
0.0530329
0.0524452
0.0516611
0.0506473
0.04936
0.0477447
0.0457364
0.0432586
0.0402176
0.0364726
0.0317179
0.0249985
0.0117505
0.0568547
0.0571938
0.0573803
0.057425
0.0573318
0.0570979
0.0567134
0.0561596
0.0554083
0.054419
0.0531374
0.0514937
0.0494025
0.0467647
0.0434689
0.0393648
0.0341541
0.0268417
0.0125331
0.0610829
0.0614104
0.0615938
0.0616452
0.0615693
0.0613635
0.061017
0.0605098
0.0598098
0.0588703
0.0576252
0.0559849
0.0538339
0.0510333
0.0474331
0.0428691
0.037073
0.0290212
0.0134501
0.06604
0.066338
0.0665063
0.0665577
0.0664974
0.0663227
0.0660231
0.0655781
0.064954
0.0640993
0.062937
0.061355
0.0591956
0.0562518
0.0522912
0.047112
0.0405492
0.0315887
0.0146049
0.0718082
0.0720589
0.0722008
0.0722463
0.0722002
0.0720604
0.0718174
0.071452
0.070932
0.0702053
0.0691887
0.0677497
0.0656787
0.0626598
0.0582814
0.0522057
0.0446021
0.0345398
0.0159727
0.0784762
0.0786641
0.0787703
0.0788052
0.0787727
0.0786714
0.0784938
0.0782245
0.0778364
0.0772839
0.0764881
0.0753093
0.0734924
0.0705706
0.0657583
0.0581762
0.049095
0.0377399
0.0175075
0.0861439
0.0862582
0.0863226
0.0863439
0.0863248
0.0862644
0.0861582
0.0859965
0.0857617
0.0854227
0.0849215
0.0841426
0.0828343
0.0804036
0.0754017
0.0647607
0.053541
0.0407961
0.0190739
0.0949286
0.094965
0.0949855
0.0949923
0.0949863
0.0949674
0.0949341
0.0948836
0.0948101
0.0947036
0.0945435
0.0942839
0.093798
0.0926482
0.0889068
0.0707036
0.0567814
0.0429204
0.0203249
)
;

boundaryField
{
    leftWall
    {
        type            kqRWallFunction;
        value           nonuniform List<scalar> 
50
(
0.000889099
0.00191685
0.00271358
0.0033945
0.0039915
0.00453332
0.00503979
0.00552487
0.00627266
0.0071885
0.0083367
0.0110385
0.0142365
0.0126855
0.0118206
0.0115808
0.0110625
0.0101443
0.00947667
0.0093465
0.0096257
0.0100773
0.010603
0.0108916
0.0109727
0.0108847
0.0106599
0.0103249
0.00990066
0.00940369
0.00884699
0.0082378
0.00758906
0.00697536
0.00639614
0.00585887
0.00538544
0.00499423
0.00469221
0.00447429
0.00432808
0.00424012
0.00420178
0.00421841
0.00433607
0.00474739
0.00622703
0.0114993
0.0275941
0.0851941
)
;
    }
    rightWall
    {
        type            kqRWallFunction;
        value           nonuniform List<scalar> 
50
(
0.000971845
0.0018903
0.00254122
0.00310935
0.00361992
0.00405816
0.00430119
0.00431672
0.00426085
0.00468356
0.00542955
0.00612993
0.0070048
0.00755266
0.00683605
0.00556919
0.00487072
0.00455563
0.0043449
0.00422825
0.004553
0.00513219
0.00577155
0.00637527
0.00690776
0.00735448
0.00753533
0.00759276
0.00771095
0.00791044
0.00813617
0.00836235
0.0085823
0.00877391
0.00888784
0.00892538
0.00897861
0.00914734
0.0094788
0.00992861
0.0104517
0.0110578
0.0117505
0.0125331
0.0134501
0.0146049
0.0159727
0.0175075
0.0190739
0.0203249
)
;
    }
    lowerWall
    {
        type            kqRWallFunction;
        value           nonuniform List<scalar> 
62
(
0.000889099
0.00217574
0.0031598
0.00392089
0.00452867
0.00501809
0.00541368
0.00573451
0.00599573
0.00620982
0.00638683
0.00654117
0.00666147
0.00674232
0.00677381
0.00673453
0.00655724
0.00608181
0.00552908
0.00501104
0.00433637
0.00317314
0.00103502
0.00103502
0.00277292
0.00402521
0.0052093
0.00649328
0.00808904
0.0105308
0.015861
0.0212562
0.0183656
0.0171252
0.0171397
0.00111306
0.00279602
0.00394508
0.00505348
0.00633006
0.00810535
0.0108447
0.0150266
0.00111306
0.0032436
0.00435511
0.00487433
0.00506356
0.00503009
0.00482936
0.00456205
0.00429682
0.00419391
0.00417843
0.00391763
0.00369816
0.00376191
0.00412265
0.0038362
0.00292661
0.001979
0.000971845
)
;
    }
    atmosphere
    {
        type            inletOutlet;
        inletValue      uniform 0.1;
        value           nonuniform List<scalar> 
46
(
0.1
0.1
0.0560831
0.0386482
0.030166
0.0269431
0.0264649
0.0273945
0.0291682
0.0316072
0.0347206
0.0386306
0.0435432
0.0497103
0.0573145
0.0662869
0.0765227
0.1
0.1
0.1
0.1
0.1
0.1
0.1
0.1
0.1
0.1
0.1
0.1
0.1
0.1
0.1
0.1
0.1
0.1
0.1
0.1
0.1
0.1
0.1
0.1
0.1
0.0707036
0.0567814
0.0429204
0.0203249
)
;
    }
    defaultFaces
    {
        type            empty;
    }
}


// ************************************************************************* //
