/*--------------------------------*- C++ -*----------------------------------*\
  =========                 |
  \\      /  F ield         | OpenFOAM: The Open Source CFD Toolbox
   \\    /   O peration     | Website:  https://openfoam.org
    \\  /    A nd           | Version:  9
     \\/     M anipulation  |
\*---------------------------------------------------------------------------*/
FoamFile
{
    format      ascii;
    class       surfaceScalarField;
    location    "5";
    object      phi;
}
// * * * * * * * * * * * * * * * * * * * * * * * * * * * * * * * * * * * * * //

dimensions      [0 3 -1 0 0 0 0];

internalField   nonuniform List<scalar> 
24170
(
3.08552e-06
1.02711e-07
2.95705e-06
1.2724e-07
2.89983e-06
5.65167e-08
2.87239e-06
2.60195e-08
2.84831e-06
2.34133e-08
2.81497e-06
3.29827e-08
2.76672e-06
4.6854e-08
2.70842e-06
5.83219e-08
2.64288e-06
6.39608e-08
2.57838e-06
6.45621e-08
2.51771e-06
5.93091e-08
2.46277e-06
5.48773e-08
2.41866e-06
4.32312e-08
2.34908e-06
6.93304e-08
2.26852e-06
8.00454e-08
2.39166e-06
-1.22148e-07
2.60256e-06
-2.08666e-07
-2.12698e-07
2.81788e-06
3.43423e-06
8.50402e-08
3.43327e-06
1.25056e-07
3.45081e-06
3.71613e-08
3.44366e-06
3.01015e-08
3.40429e-06
6.11401e-08
3.35388e-06
8.14805e-08
3.30356e-06
9.55683e-08
3.25594e-06
1.04845e-07
3.20556e-06
1.13088e-07
3.14962e-06
1.19968e-07
3.08887e-06
1.1912e-07
3.02672e-06
1.16849e-07
2.9588e-06
1.10887e-07
2.89636e-06
1.31977e-07
2.85422e-06
1.22702e-07
2.84729e-06
-1.13572e-07
2.88003e-06
-2.37295e-07
-2.26402e-07
2.89451e-06
3.66635e-06
8.1258e-08
3.70866e-06
8.30318e-08
3.76202e-06
-1.65229e-08
3.76848e-06
2.33051e-08
3.73001e-06
9.94287e-08
3.671e-06
1.40595e-07
3.60681e-06
1.59109e-07
3.54319e-06
1.68518e-07
3.47816e-06
1.77257e-07
3.41024e-06
1.87731e-07
3.33966e-06
1.88878e-07
3.26845e-06
1.87649e-07
3.19429e-06
1.84384e-07
3.13827e-06
1.87497e-07
3.09113e-06
1.69471e-07
3.02054e-06
-4.27493e-08
2.99312e-06
-2.09631e-07
-1.88964e-07
2.95396e-06
3.93527e-06
7.08635e-08
3.98605e-06
3.01791e-08
4.04958e-06
-8.15753e-08
4.05737e-06
1.35609e-08
4.01702e-06
1.3857e-07
3.95309e-06
2.03368e-07
3.88022e-06
2.31069e-07
3.8044e-06
2.43758e-07
3.72556e-06
2.55606e-07
3.64476e-06
2.68349e-07
3.56357e-06
2.69805e-07
3.48376e-06
2.67439e-07
3.40548e-06
2.62676e-07
3.34048e-06
2.52685e-07
3.28957e-06
2.20828e-07
3.20516e-06
4.23937e-08
3.12055e-06
-1.23454e-07
-1.62459e-07
3.09405e-06
4.21652e-06
6.16269e-08
4.26741e-06
-2.02513e-08
4.33666e-06
-1.51037e-07
4.34742e-06
2.6596e-09
4.3061e-06
1.79866e-07
4.23884e-06
2.70724e-07
4.15942e-06
3.10196e-07
4.07394e-06
3.29232e-07
3.98365e-06
3.45461e-07
3.89231e-06
3.59456e-07
3.80238e-06
3.59221e-07
3.71555e-06
3.53867e-07
3.63255e-06
3.4518e-07
3.56013e-06
3.24698e-07
3.50311e-06
2.77472e-07
3.42318e-06
1.22206e-07
3.33409e-06
-3.49074e-08
-1.30277e-07
3.30054e-06
4.51102e-06
5.94639e-08
4.55453e-06
-6.5186e-08
4.62969e-06
-2.27301e-07
4.65029e-06
-1.90989e-08
4.61244e-06
2.16945e-07
4.54498e-06
3.37505e-07
4.46138e-06
3.93332e-07
4.36863e-06
4.21666e-07
4.27101e-06
4.4295e-07
4.17308e-06
4.57342e-07
4.07703e-06
4.55273e-07
3.98502e-06
4.45832e-07
3.89914e-06
4.31054e-07
3.82323e-06
4.00551e-07
3.76042e-06
3.40309e-07
3.6831e-06
1.99355e-07
3.60072e-06
4.78331e-08
-8.39469e-08
3.5548e-06
4.82557e-06
6.67339e-08
4.85607e-06
-9.51048e-08
4.93522e-06
-3.06607e-07
4.97179e-06
-5.57502e-08
4.94375e-06
2.45009e-07
4.88049e-06
4.00804e-07
4.79684e-06
4.76873e-07
4.70119e-06
5.17206e-07
4.60011e-06
5.43821e-07
4.49896e-06
5.58199e-07
4.39929e-06
5.546e-07
4.30475e-06
5.39971e-07
4.21829e-06
5.17096e-07
4.14173e-06
4.76646e-07
4.07523e-06
4.06264e-07
3.99897e-06
2.75306e-07
3.91886e-06
1.2783e-07
-2.33842e-08
3.85593e-06
5.16674e-06
7.95849e-08
5.18228e-06
-1.11418e-07
5.25877e-06
-3.839e-07
5.31195e-06
-1.09763e-07
5.30136e-06
2.54897e-07
5.24924e-06
4.52221e-07
5.17208e-06
5.5339e-07
5.07924e-06
6.09515e-07
4.9784e-06
6.44106e-07
4.87724e-06
6.59012e-07
4.77792e-06
6.53533e-07
4.68478e-06
6.32777e-07
4.60003e-06
6.01387e-07
4.52438e-06
5.51875e-07
4.45676e-06
4.73306e-07
4.38314e-06
3.4843e-07
4.30409e-06
2.05736e-07
4.80494e-08
4.232e-06
5.53721e-06
9.38237e-08
5.53704e-06
-1.10831e-07
5.60483e-06
-4.51874e-07
5.67363e-06
-1.78787e-07
5.68592e-06
2.42424e-07
5.65166e-06
4.86256e-07
5.5873e-06
6.17393e-07
5.50349e-06
6.92892e-07
5.40963e-06
7.37467e-07
5.31302e-06
7.5504e-07
5.21812e-06
7.47915e-07
5.12941e-06
7.20827e-07
5.04856e-06
6.81644e-07
4.97539e-06
6.24285e-07
4.90875e-06
5.3918e-07
4.84067e-06
4.15811e-07
4.76907e-06
2.76608e-07
1.19403e-07
4.69511e-06
5.93849e-06
1.05155e-07
5.92243e-06
-9.54082e-08
5.9799e-06
-5.10305e-07
6.06168e-06
-2.61565e-07
6.09774e-06
2.05266e-07
6.08543e-06
4.97392e-07
6.03928e-06
6.62349e-07
5.971e-06
7.59954e-07
5.89104e-06
8.16358e-07
5.80574e-06
8.39492e-07
5.72037e-06
8.32619e-07
5.63826e-06
8.0233e-07
5.56269e-06
7.56693e-07
5.49423e-06
6.92212e-07
5.43252e-06
6.00356e-07
5.37254e-06
4.75409e-07
5.31244e-06
3.35232e-07
1.83951e-07
5.24641e-06
6.37207e-06
1.09889e-07
6.34768e-06
-7.09663e-08
6.39464e-06
-5.57774e-07
6.47984e-06
-3.47378e-07
6.53519e-06
1.49245e-07
6.54723e-06
4.84608e-07
6.52502e-06
6.83695e-07
6.47799e-06
8.06096e-07
6.41618e-06
8.77306e-07
6.34678e-06
9.08259e-07
6.27491e-06
9.0389e-07
6.20471e-06
8.72211e-07
6.14049e-06
8.20517e-07
6.08307e-06
7.49308e-07
6.03438e-06
6.48824e-07
5.99076e-06
5.18536e-07
5.94845e-06
3.77012e-07
2.30829e-07
5.89918e-06
5.74297e-06
1.0781e-07
5.72958e-06
-5.80491e-08
5.76171e-06
-5.90789e-07
5.82992e-06
-4.16373e-07
5.8867e-06
9.15062e-08
5.91418e-06
4.56275e-07
5.91405e-06
6.82818e-07
5.89235e-06
8.26951e-07
5.85718e-06
9.11781e-07
5.81447e-06
9.50458e-07
5.76856e-06
9.49779e-07
5.72338e-06
9.16367e-07
5.68335e-06
8.60717e-07
5.64945e-06
7.82255e-07
5.62376e-06
6.74501e-07
5.60353e-06
5.38323e-07
5.58453e-06
3.94881e-07
2.4971e-07
5.56395e-06
7.00099e-06
1.04857e-07
6.97101e-06
-2.86644e-08
6.97979e-06
-6.00263e-07
7.03844e-06
-4.75996e-07
7.10926e-06
1.99288e-08
7.16403e-06
4.00551e-07
7.1949e-06
6.51257e-07
7.20412e-06
8.17049e-07
7.19932e-06
9.16193e-07
7.1861e-06
9.63904e-07
7.1674e-06
9.67056e-07
7.14819e-06
9.35785e-07
7.13201e-06
8.75187e-07
7.12451e-06
7.90013e-07
7.12552e-06
6.72208e-07
7.13296e-06
5.31155e-07
7.14124e-06
3.84276e-07
2.4125e-07
7.14913e-06
8.54154e-06
9.40644e-08
8.48634e-06
2.61147e-08
8.45463e-06
-5.69205e-07
8.48909e-06
-5.11127e-07
8.56244e-06
-5.41596e-08
8.64434e-06
3.18117e-07
8.72009e-06
5.74836e-07
8.78266e-06
7.54204e-07
8.83483e-06
8.64051e-07
8.87867e-06
9.19014e-07
8.91571e-06
9.2944e-07
8.94754e-06
9.02213e-07
8.98072e-06
8.41393e-07
9.01965e-06
7.49777e-07
9.06545e-06
6.26482e-07
9.11285e-06
4.82229e-07
9.16087e-06
3.36706e-07
1.95637e-07
9.2029e-06
1.04203e-05
7.29447e-08
1.03456e-05
1.00284e-07
1.02623e-05
-4.86444e-07
1.02705e-05
-5.19895e-07
1.03474e-05
-1.31584e-07
1.04567e-05
2.08049e-07
1.0583e-05
4.48262e-07
1.07133e-05
6.23337e-07
1.08409e-05
7.362e-07
1.09634e-05
7.94894e-07
1.10808e-05
8.11055e-07
1.11926e-05
7.87777e-07
1.13039e-05
7.30135e-07
1.14139e-05
6.3785e-07
1.15228e-05
5.18396e-07
1.16288e-05
3.74945e-07
1.17287e-05
2.36807e-07
1.10702e-07
1.18138e-05
1.27049e-05
4.46585e-08
1.26425e-05
1.62208e-07
1.25028e-05
-3.4736e-07
1.24667e-05
-4.84266e-07
1.25517e-05
-2.17532e-07
1.2701e-05
5.83456e-08
1.28832e-05
2.65082e-07
1.30853e-05
4.21108e-07
1.32926e-05
5.27028e-07
1.35051e-05
5.82059e-07
1.3718e-05
5.94505e-07
1.39349e-05
5.71716e-07
1.41433e-05
5.1814e-07
1.43473e-05
4.36136e-07
1.45334e-05
3.28927e-07
1.4709e-05
2.02972e-07
1.48598e-05
8.20297e-08
-1.52716e-08
1.49901e-05
1.5483e-05
1.46376e-08
1.54825e-05
1.61959e-07
1.53343e-05
-1.99854e-07
1.52342e-05
-3.8508e-07
1.52738e-05
-2.57947e-07
1.54156e-05
-8.46274e-08
1.56225e-05
5.74846e-08
1.58777e-05
1.64688e-07
1.61683e-05
2.35384e-07
1.6475e-05
2.73267e-07
1.67838e-05
2.84814e-07
1.70944e-05
2.59033e-07
1.74041e-05
2.08434e-07
1.7698e-05
1.40468e-07
1.79716e-05
5.63004e-08
1.82166e-05
-4.35211e-08
1.84369e-05
-1.36056e-07
-2.04358e-07
1.86234e-05
1.88674e-05
-1.54702e-08
1.89435e-05
8.48326e-08
1.88328e-05
-9.00394e-08
1.86779e-05
-2.3139e-07
1.8636e-05
-2.16918e-07
1.87146e-05
-1.64723e-07
1.88909e-05
-1.19621e-07
1.91396e-05
-8.56854e-08
1.94444e-05
-7.01646e-08
1.97866e-05
-7.12753e-08
2.01607e-05
-8.9682e-08
2.0547e-05
-1.29966e-07
2.09362e-05
-1.80294e-07
2.13118e-05
-2.38029e-07
2.16751e-05
-3.05241e-07
2.20067e-05
-3.78289e-07
2.23139e-05
-4.39911e-07
-4.8444e-07
2.25899e-05
2.29821e-05
-3.48365e-08
2.31092e-05
-4.30401e-08
2.30284e-05
-1.04309e-08
2.28308e-05
-3.48407e-08
2.27235e-05
-1.10579e-07
2.27357e-05
-1.78564e-07
2.28513e-05
-2.3605e-07
2.30575e-05
-2.94365e-07
2.33415e-05
-3.54727e-07
2.36836e-05
-4.16615e-07
2.40762e-05
-4.8249e-07
2.44887e-05
-5.46309e-07
2.49144e-05
-6.05309e-07
2.53324e-05
-6.59914e-07
2.57411e-05
-7.11803e-07
2.61155e-05
-7.56865e-07
2.64678e-05
-7.88022e-07
-8.13977e-07
2.67923e-05
1.68265e-05
-5.09862e-08
1.68884e-05
-1.05609e-07
1.68343e-05
4.2716e-08
1.67174e-05
8.18786e-08
1.66533e-05
-4.77374e-08
1.66591e-05
-1.84819e-07
1.67232e-05
-3.01293e-07
1.68405e-05
-4.13977e-07
1.70062e-05
-5.20352e-07
1.7204e-05
-6.19046e-07
1.74297e-05
-7.06709e-07
1.76608e-05
-7.8384e-07
1.79041e-05
-8.45317e-07
1.81339e-05
-8.97006e-07
1.83604e-05
-9.33878e-07
1.85571e-05
-9.60796e-07
1.87431e-05
-9.68523e-07
-9.79242e-07
1.89019e-05
1.46551e-05
-7.18785e-08
1.46727e-05
-1.23928e-07
1.46037e-05
1.11071e-07
1.45239e-05
1.6069e-07
1.45016e-05
-2.56203e-08
1.45303e-05
-2.14709e-07
1.45976e-05
-3.69799e-07
1.46962e-05
-5.13698e-07
1.48174e-05
-6.44877e-07
1.49573e-05
-7.59224e-07
1.5102e-05
-8.5616e-07
1.52503e-05
-9.31236e-07
1.5389e-05
-9.89726e-07
1.55239e-05
-1.02956e-06
1.56389e-05
-1.05429e-06
1.5744e-05
-1.06218e-06
1.58269e-05
-1.05615e-06
-1.0481e-06
1.59009e-05
1.27617e-05
-9.37144e-08
1.27433e-05
-1.06685e-07
1.26691e-05
1.84147e-07
1.26277e-05
2.01566e-07
1.26441e-05
-4.28759e-08
1.26916e-05
-2.62841e-07
1.27548e-05
-4.34171e-07
1.28246e-05
-5.85297e-07
1.28953e-05
-7.17143e-07
1.29622e-05
-8.28895e-07
1.30226e-05
-9.18641e-07
1.30723e-05
-9.83313e-07
1.31112e-05
-1.03095e-06
1.31415e-05
-1.06127e-06
1.316e-05
-1.07437e-06
1.3167e-05
-1.06941e-06
1.31686e-05
-1.05744e-06
-1.04063e-06
1.316e-05
1.11066e-05
-1.09772e-07
1.10723e-05
-7.3577e-08
1.10265e-05
2.29327e-07
1.103e-05
1.96838e-07
1.10664e-05
-7.95915e-08
1.11041e-05
-3.01205e-07
1.11341e-05
-4.65e-07
1.11506e-05
-6.02968e-07
1.11522e-05
-7.20321e-07
1.11382e-05
-8.16519e-07
1.11087e-05
-8.90357e-07
1.10649e-05
-9.43131e-07
1.1012e-05
-9.78571e-07
1.09481e-05
-1.00213e-06
1.08853e-05
-1.00974e-06
1.08162e-05
-1.00429e-06
1.07498e-05
-9.8772e-07
-9.69285e-07
1.06749e-05
9.65705e-06
-1.11883e-07
9.62073e-06
-3.82147e-08
9.61294e-06
2.35318e-07
9.65246e-06
1.56992e-07
9.69012e-06
-1.17828e-07
9.70313e-06
-3.14598e-07
9.69023e-06
-4.52571e-07
9.65197e-06
-5.65403e-07
9.59125e-06
-6.59982e-07
9.51139e-06
-7.37976e-07
9.4151e-06
-7.95336e-07
9.3073e-06
-8.36975e-07
9.19135e-06
-8.65083e-07
9.06965e-06
-8.8137e-07
8.9461e-06
-8.88423e-07
8.82652e-06
-8.84874e-07
8.71177e-06
-8.73696e-07
-8.59029e-07
8.60108e-06
8.39423e-06
-1.0102e-07
8.37003e-06
-1.52522e-08
8.40022e-06
2.047e-07
8.4556e-06
1.00849e-07
8.479e-06
-1.41545e-07
8.46377e-06
-2.99588e-07
8.41598e-06
-4.05199e-07
8.34123e-06
-4.90964e-07
8.24338e-06
-5.62651e-07
8.12646e-06
-6.20875e-07
7.99415e-06
-6.63904e-07
7.85163e-06
-6.95203e-07
7.70177e-06
-7.17036e-07
7.54796e-06
-7.28817e-07
7.39237e-06
-7.33754e-07
7.2388e-06
-7.31191e-07
7.09032e-06
-7.27595e-07
-7.21487e-07
6.95338e-06
7.30155e-06
-8.55173e-08
7.2982e-06
-1.26388e-08
7.3548e-06
1.47351e-07
7.409e-06
4.60895e-08
7.41533e-06
-1.47964e-07
7.37983e-06
-2.64517e-07
7.31189e-06
-3.37595e-07
7.21851e-06
-3.97792e-07
7.10411e-06
-4.48087e-07
6.97051e-06
-4.87874e-07
6.82276e-06
-5.16189e-07
6.66604e-06
-5.3942e-07
6.50318e-06
-5.54587e-07
6.33657e-06
-5.6285e-07
6.16951e-06
-5.67003e-07
6.00396e-06
-5.65715e-07
5.83993e-06
-5.65199e-07
-5.67304e-07
5.68318e-06
6.3563e-06
-7.19205e-08
6.37044e-06
-2.72301e-08
6.43825e-06
7.89561e-08
6.48618e-06
-2.5322e-10
6.47952e-06
-1.43062e-07
6.43315e-06
-2.18311e-07
6.35658e-06
-2.61301e-07
6.25646e-06
-2.97758e-07
6.13613e-06
-3.27803e-07
5.99952e-06
-3.50767e-07
5.85078e-06
-3.69118e-07
5.69459e-06
-3.82431e-07
5.5315e-06
-3.91841e-07
5.36436e-06
-3.95886e-07
5.19614e-06
-3.98609e-07
5.02414e-06
-3.9399e-07
4.85231e-06
-3.93511e-07
-4.06018e-07
4.68551e-06
5.52821e-06
-5.47909e-08
5.55454e-06
-5.41003e-08
5.62969e-06
4.42086e-09
5.67589e-06
-4.57984e-08
5.65806e-06
-1.26384e-07
5.60113e-06
-1.62062e-07
5.5186e-06
-1.79059e-07
5.41681e-06
-1.95992e-07
5.29884e-06
-2.09394e-07
5.1654e-06
-2.18354e-07
5.02274e-06
-2.26895e-07
4.87474e-06
-2.33978e-07
4.71977e-06
-2.36102e-07
4.55978e-06
-2.3567e-07
4.3988e-06
-2.37145e-07
4.23301e-06
-2.26887e-07
4.06314e-06
-2.28039e-07
-2.42659e-07
3.89845e-06
4.83242e-06
-5.97388e-08
4.85007e-06
-7.22271e-08
4.91317e-06
-5.81056e-08
4.93822e-06
-7.00006e-08
4.89512e-06
-8.46939e-08
4.8223e-06
-9.01406e-08
4.73517e-06
-9.23293e-08
4.63439e-06
-9.51847e-08
4.52219e-06
-9.71235e-08
4.39771e-06
-9.4709e-08
4.26825e-06
-9.80238e-08
4.1365e-06
-1.01244e-07
3.99856e-06
-9.71795e-08
3.85721e-06
-9.37491e-08
3.7162e-06
-9.49626e-08
3.5735e-06
-8.47228e-08
3.42542e-06
-8.18883e-08
-9.37056e-08
3.27178e-06
4.14291e-06
4.07073e-06
4.01273e-06
3.94258e-06
3.85778e-06
3.76759e-06
3.67525e-06
3.5801e-06
3.48286e-06
3.38802e-06
3.29014e-06
3.1891e-06
3.09203e-06
2.99848e-06
2.90363e-06
2.8184e-06
2.73533e-06
2.64202e-06
-1.2627e-07
1.32359e-07
-2.72487e-07
1.51263e-07
-4.22065e-07
1.55166e-07
-5.57356e-07
1.40532e-07
-6.6237e-07
1.10838e-07
-7.40106e-07
8.24918e-08
-7.92499e-07
5.75265e-08
-8.2206e-07
3.43197e-08
-8.29245e-07
1.19602e-08
-8.12436e-07
-1.18874e-08
-7.74441e-07
-3.35747e-08
-7.21347e-07
-4.77401e-08
-6.59263e-07
-5.75642e-08
-5.86563e-07
-6.60338e-08
-5.05132e-07
-7.61061e-08
-4.05283e-07
-9.20205e-08
-2.89696e-07
-1.11449e-07
-1.61524e-07
-1.21725e-07
-3.35508e-08
-1.2492e-07
9.75181e-08
-1.24935e-07
2.23628e-07
-1.23398e-07
3.51619e-07
-1.21414e-07
4.74625e-07
-1.1974e-07
6.00369e-07
-1.18486e-07
7.20347e-07
-1.16332e-07
8.40938e-07
-1.13255e-07
9.55483e-07
-1.11115e-07
1.0713e-06
-1.08896e-07
1.18116e-06
-1.06593e-07
1.29112e-06
-1.03671e-07
1.39522e-06
-1.01579e-07
1.50082e-06
-1.00194e-07
1.60245e-06
-9.95552e-08
1.70577e-06
-9.88069e-08
1.80548e-06
-9.85044e-08
1.90731e-06
-9.81173e-08
2.00584e-06
-9.76899e-08
2.10613e-06
-9.70501e-08
2.20328e-06
-9.65147e-08
2.30176e-06
-9.55785e-08
2.39668e-06
-9.44511e-08
2.49203e-06
-9.28469e-08
2.58333e-06
-9.10584e-08
2.67476e-06
-8.93484e-08
2.76281e-06
-8.80618e-08
2.85008e-06
-8.55823e-08
2.93291e-06
-8.29752e-08
3.01567e-06
-8.12602e-08
3.09563e-06
-8.00787e-08
3.17536e-06
-7.82192e-08
3.25177e-06
-7.62084e-08
3.32747e-06
-7.39952e-08
3.40014e-06
-7.20986e-08
3.47208e-06
-7.01383e-08
3.5412e-06
-6.84889e-08
3.61002e-06
-6.70613e-08
3.67671e-06
-6.5913e-08
3.74281e-06
-6.44344e-08
3.80637e-06
-6.28961e-08
3.86911e-06
-6.12156e-08
3.92956e-06
-5.97712e-08
3.98928e-06
-5.83797e-08
4.04684e-06
-5.7117e-08
4.10371e-06
-5.57691e-08
4.15855e-06
-5.4478e-08
4.21243e-06
-5.29246e-08
4.26419e-06
-5.14536e-08
4.31517e-06
-5.01174e-08
4.36445e-06
-4.90385e-08
4.41291e-06
-4.77095e-08
4.45929e-06
-4.61973e-08
4.50489e-06
-4.49524e-08
4.5492e-06
-4.41452e-08
4.59299e-06
-4.31504e-08
4.63516e-06
-4.19393e-08
4.67628e-06
-4.03996e-08
4.71583e-06
-3.91566e-08
4.75493e-06
-3.83554e-08
4.79269e-06
-3.73865e-08
4.82915e-06
-3.57702e-08
4.86421e-06
-3.46733e-08
4.89877e-06
-3.39436e-08
4.9316e-06
-3.25216e-08
4.96335e-06
-3.11696e-08
4.99444e-06
-3.07248e-08
5.02481e-06
-2.97853e-08
5.05356e-06
-2.84034e-08
5.08115e-06
-2.71813e-08
5.10769e-06
-2.64324e-08
5.13374e-06
-2.59003e-08
5.15923e-06
-2.51505e-08
5.1835e-06
-2.35857e-08
5.20653e-06
-2.22706e-08
5.22904e-06
-2.16601e-08
5.25036e-06
-2.0518e-08
5.27072e-06
-1.95093e-08
5.29037e-06
-1.88628e-08
5.30904e-06
-1.781e-08
5.32653e-06
-1.66911e-08
5.34327e-06
-1.58709e-08
5.35895e-06
-1.48367e-08
5.37339e-06
-1.34335e-08
5.38752e-06
-1.31743e-08
5.40085e-06
-1.2173e-08
5.41289e-06
-1.1113e-08
5.42508e-06
-1.12011e-08
5.43631e-06
-1.05946e-08
5.44698e-06
-1.00096e-08
5.45639e-06
-9.08065e-09
5.46439e-06
-7.59677e-09
5.47278e-06
-8.28454e-09
5.48109e-06
-8.08034e-09
5.48746e-06
-6.3853e-09
5.49313e-06
-5.57525e-09
5.49875e-06
-5.74731e-09
5.50431e-06
-5.55649e-09
5.50873e-06
-4.60212e-09
5.51282e-06
-4.21926e-09
5.51664e-06
-4.12758e-09
5.51893e-06
-2.48949e-09
5.51936e-06
-5.98248e-10
5.51963e-06
-2.20261e-10
5.52006e-06
-3.95351e-10
5.51998e-06
1.89168e-10
5.51778e-06
2.16884e-09
5.51406e-06
3.67639e-09
5.51018e-06
3.70761e-09
5.50555e-06
4.46243e-09
5.50002e-06
5.28859e-09
5.49495e-06
4.83362e-09
5.49077e-06
3.91331e-09
5.48631e-06
4.18386e-09
5.48082e-06
5.23929e-09
5.47491e-06
5.65808e-09
5.46901e-06
5.70464e-09
5.46336e-06
5.48167e-09
5.45744e-06
5.8384e-09
5.45001e-06
7.35478e-09
5.44229e-06
7.70091e-09
5.43436e-06
7.89412e-09
5.42544e-06
8.8689e-09
5.41588e-06
9.49702e-09
5.40574e-06
1.00517e-08
5.39451e-06
1.11362e-08
5.38167e-06
1.27374e-08
5.36831e-06
1.3258e-08
5.35641e-06
1.17873e-08
5.34504e-06
1.12887e-08
5.33176e-06
1.31962e-08
5.31754e-06
1.41568e-08
5.30349e-06
1.39826e-08
5.28869e-06
1.47623e-08
5.2725e-06
1.61471e-08
5.25625e-06
1.62436e-08
5.23951e-06
1.67164e-08
5.22164e-06
1.78986e-08
5.20351e-06
1.81188e-08
5.18506e-06
1.85054e-08
5.16605e-06
1.90155e-08
5.14711e-06
1.90087e-08
5.12791e-06
1.92034e-08
5.10768e-06
2.02841e-08
5.08544e-06
2.22289e-08
5.06131e-06
2.4179e-08
5.03628e-06
2.49968e-08
5.01114e-06
2.51822e-08
4.98637e-06
2.47225e-08
4.96079e-06
2.56105e-08
4.93401e-06
2.67136e-08
4.90655e-06
2.7491e-08
4.87693e-06
2.95515e-08
4.84348e-06
3.34527e-08
4.80496e-06
3.84254e-08
4.76148e-06
4.34327e-08
4.71182e-06
4.94748e-08
4.6515e-06
6.01446e-08
4.57184e-06
7.93024e-08
4.45941e-06
1.12104e-07
4.264e-06
1.95105e-07
2.73572e-07
3.99044e-06
-1.41302e-07
2.79138e-07
-2.61636e-07
2.76566e-07
-3.49023e-07
2.47533e-07
-4.02333e-07
1.98776e-07
-4.20609e-07
1.33955e-07
-4.0368e-07
7.00566e-08
-3.56041e-07
1.37648e-08
-2.83961e-07
-3.42423e-08
-1.95736e-07
-7.34248e-08
-9.92241e-08
-1.05595e-07
1.16212e-09
-1.31722e-07
1.06358e-07
-1.50623e-07
2.14255e-07
-1.63591e-07
3.23665e-07
-1.73453e-07
4.31167e-07
-1.82024e-07
5.31201e-07
-1.90239e-07
6.18826e-07
-1.9776e-07
7.02215e-07
-2.03379e-07
7.8551e-07
-2.06983e-07
8.71499e-07
-2.09032e-07
9.59322e-07
-2.09861e-07
1.04985e-06
-2.09696e-07
1.14079e-06
-2.08998e-07
1.23352e-06
-2.08361e-07
1.32696e-06
-2.07704e-07
1.42309e-06
-2.06299e-07
1.51854e-06
-2.04352e-07
1.61532e-06
-2.02331e-07
1.71168e-06
-2.0069e-07
1.81017e-06
-1.98946e-07
1.90771e-06
-1.97032e-07
2.00594e-06
-1.95391e-07
2.10242e-06
-1.94234e-07
2.19932e-06
-1.93116e-07
2.29397e-06
-1.91698e-07
2.38844e-06
-1.90352e-07
2.48091e-06
-1.88982e-07
2.57336e-06
-1.87491e-07
2.66372e-06
-1.85835e-07
2.75358e-06
-1.83672e-07
2.84107e-06
-1.8107e-07
2.92781e-06
-1.78073e-07
3.0122e-06
-1.74792e-07
3.09534e-06
-1.71278e-07
3.17554e-06
-1.6784e-07
3.2552e-06
-1.64322e-07
3.33324e-06
-1.60749e-07
3.40999e-06
-1.57221e-07
3.48396e-06
-1.53775e-07
3.55677e-06
-1.50236e-07
3.62774e-06
-1.46739e-07
3.69797e-06
-1.43218e-07
3.7665e-06
-1.39951e-07
3.83406e-06
-1.36655e-07
3.89969e-06
-1.33341e-07
3.96408e-06
-1.30301e-07
4.02656e-06
-1.27541e-07
4.08788e-06
-1.24648e-07
4.14752e-06
-1.21698e-07
4.20599e-06
-1.18592e-07
4.26264e-06
-1.15623e-07
4.31808e-06
-1.12874e-07
4.37183e-06
-1.10188e-07
4.4243e-06
-1.07433e-07
4.47504e-06
-1.04664e-07
4.52459e-06
-1.01764e-07
4.57271e-06
-9.90717e-08
4.61984e-06
-9.66377e-08
4.66549e-06
-9.42755e-08
4.70995e-06
-9.16709e-08
4.7532e-06
-8.91109e-08
4.79553e-06
-8.68586e-08
4.83655e-06
-8.48901e-08
4.87657e-06
-8.27636e-08
4.91516e-06
-8.01931e-08
4.95263e-06
-7.73865e-08
4.98891e-06
-7.50155e-08
5.02417e-06
-7.31118e-08
5.05847e-06
-7.12653e-08
5.09227e-06
-6.90673e-08
5.12493e-06
-6.69203e-08
5.15635e-06
-6.49147e-08
5.18679e-06
-6.25863e-08
5.21639e-06
-6.03155e-08
5.24465e-06
-5.85774e-08
5.27183e-06
-5.65106e-08
5.29809e-06
-5.42526e-08
5.32394e-06
-5.27365e-08
5.34885e-06
-5.11377e-08
5.37224e-06
-4.92066e-08
5.39492e-06
-4.74085e-08
5.41727e-06
-4.52969e-08
5.43874e-06
-4.29606e-08
5.45866e-06
-4.08095e-08
5.47784e-06
-3.88845e-08
5.4962e-06
-3.70931e-08
5.51345e-06
-3.53074e-08
5.52973e-06
-3.33133e-08
5.54543e-06
-3.15729e-08
5.56062e-06
-3.02712e-08
5.57545e-06
-2.87725e-08
5.58986e-06
-2.69428e-08
5.60327e-06
-2.55353e-08
5.61595e-06
-2.38456e-08
5.62826e-06
-2.2417e-08
5.63997e-06
-2.21147e-08
5.65094e-06
-2.08543e-08
5.66059e-06
-1.91611e-08
5.67058e-06
-1.86557e-08
5.68046e-06
-1.72196e-08
5.68813e-06
-1.57318e-08
5.69581e-06
-1.56569e-08
5.70446e-06
-1.49549e-08
5.71157e-06
-1.26914e-08
5.71695e-06
-1.11529e-08
5.72141e-06
-1.01035e-08
5.72574e-06
-9.03978e-09
5.73023e-06
-8.9127e-09
5.73389e-06
-8.0441e-09
5.7367e-06
-5.51594e-09
5.73953e-06
-3.52993e-09
5.74223e-06
-2.88486e-09
5.74518e-06
-3.24537e-09
5.74917e-06
-3.73811e-09
5.75322e-06
-1.88676e-09
5.75476e-06
2.05987e-09
5.7541e-06
4.22594e-09
5.75476e-06
3.61886e-09
5.75679e-06
3.03595e-09
5.75669e-06
4.6822e-09
5.75342e-06
6.91738e-09
5.74988e-06
7.46078e-09
5.74737e-06
7.4794e-09
5.74497e-06
7.81147e-09
5.74196e-06
8.49639e-09
5.7378e-06
9.46916e-09
5.73468e-06
8.84509e-09
5.73385e-06
8.08183e-09
5.73255e-06
8.94728e-09
5.73079e-06
9.57415e-09
5.72925e-06
1.03416e-08
5.72585e-06
1.28104e-08
5.71924e-06
1.65641e-08
5.71192e-06
1.83517e-08
5.70647e-06
1.80805e-08
5.6986e-06
2.10158e-08
5.68604e-06
2.4252e-08
5.67595e-06
2.12751e-08
5.67043e-06
1.86388e-08
5.66099e-06
2.35382e-08
5.64725e-06
2.7668e-08
5.63807e-06
2.39104e-08
5.63197e-06
2.22331e-08
5.62088e-06
2.73382e-08
5.60738e-06
3.02385e-08
5.59488e-06
3.04553e-08
5.58376e-06
2.93011e-08
5.57531e-06
2.7054e-08
5.56426e-06
3.01583e-08
5.54854e-06
3.48546e-08
5.53274e-06
3.51126e-08
5.51931e-06
3.3853e-08
5.50683e-06
3.48142e-08
5.49437e-06
3.67796e-08
5.47986e-06
3.96148e-08
5.46279e-06
4.24029e-08
5.44822e-06
3.94083e-08
5.4329e-06
4.10835e-08
5.40885e-06
5.08842e-08
5.38535e-06
5.11443e-08
5.36849e-06
4.65273e-08
5.34675e-06
5.53484e-08
5.31987e-06
6.53926e-08
5.29307e-06
7.03365e-08
5.26205e-06
8.05126e-08
5.22859e-06
9.36213e-08
5.18964e-06
1.18111e-07
5.14168e-06
1.59945e-07
5.09199e-06
2.44737e-07
3.7032e-07
4.99556e-06
-9.75937e-08
3.81424e-07
-1.66703e-07
3.49773e-07
-1.99324e-07
2.83956e-07
-1.96461e-07
1.99392e-07
-1.67806e-07
1.08479e-07
-1.17122e-07
2.22199e-08
-4.866e-08
-5.23284e-08
3.21214e-08
-1.12665e-07
1.20329e-07
-1.59663e-07
2.12432e-07
-1.95681e-07
3.05327e-07
-2.22984e-07
3.9968e-07
-2.43239e-07
4.9542e-07
-2.57974e-07
5.92302e-07
-2.68831e-07
6.8859e-07
-2.77188e-07
7.83604e-07
-2.83929e-07
8.76189e-07
-2.89407e-07
9.67911e-07
-2.93904e-07
1.0591e-06
-2.97344e-07
1.15106e-06
-2.99693e-07
1.24319e-06
-3.01127e-07
1.33666e-06
-3.01742e-07
1.43038e-06
-3.01598e-07
1.52481e-06
-3.01082e-07
1.61883e-06
-3.00422e-07
1.7138e-06
-2.99323e-07
1.80869e-06
-2.97747e-07
1.9044e-06
-2.95935e-07
1.99942e-06
-2.94112e-07
2.09474e-06
-2.92136e-07
2.18912e-06
-2.89846e-07
2.28325e-06
-2.87496e-07
2.37565e-06
-2.85195e-07
2.46734e-06
-2.82944e-07
2.55726e-06
-2.80404e-07
2.64631e-06
-2.77745e-07
2.73354e-06
-2.75123e-07
2.8199e-06
-2.72382e-07
2.90436e-06
-2.69336e-07
2.98782e-06
-2.65826e-07
3.06941e-06
-2.61862e-07
3.14992e-06
-2.57489e-07
3.2285e-06
-2.5276e-07
3.30588e-06
-2.47793e-07
3.38149e-06
-2.43026e-07
3.45608e-06
-2.38268e-07
3.52895e-06
-2.33344e-07
3.60071e-06
-2.28452e-07
3.67085e-06
-2.23671e-07
3.73994e-06
-2.1883e-07
3.80763e-06
-2.14064e-07
3.87437e-06
-2.09347e-07
3.9396e-06
-2.04689e-07
4.0037e-06
-2.00048e-07
4.06626e-06
-1.95301e-07
4.12719e-06
-1.90437e-07
4.18604e-06
-1.85706e-07
4.24348e-06
-1.81264e-07
4.29957e-06
-1.77055e-07
4.35461e-06
-1.72811e-07
4.40826e-06
-1.68532e-07
4.46055e-06
-1.64401e-07
4.51136e-06
-1.60355e-07
4.5608e-06
-1.56195e-07
4.60881e-06
-1.52092e-07
4.65579e-06
-1.4815e-07
4.7016e-06
-1.44385e-07
4.74612e-06
-1.40652e-07
4.78915e-06
-1.36903e-07
4.83107e-06
-1.332e-07
4.87197e-06
-1.29713e-07
4.91159e-06
-1.26168e-07
4.94961e-06
-1.22644e-07
4.98633e-06
-1.192e-07
5.02215e-06
-1.15741e-07
5.05735e-06
-1.12238e-07
5.09154e-06
-1.08871e-07
5.12445e-06
-1.05659e-07
5.1561e-06
-1.02573e-07
5.18706e-06
-9.96585e-08
5.21723e-06
-9.67452e-08
5.24636e-06
-9.36922e-08
5.27459e-06
-9.04852e-08
5.30181e-06
-8.71664e-08
5.32754e-06
-8.39427e-08
5.3523e-06
-8.08773e-08
5.37645e-06
-7.80494e-08
5.39951e-06
-7.54811e-08
5.42137e-06
-7.28795e-08
5.44255e-06
-7.0208e-08
5.46327e-06
-6.77333e-08
5.4834e-06
-6.48597e-08
5.50238e-06
-6.12371e-08
5.52037e-06
-5.81055e-08
5.53796e-06
-5.57429e-08
5.5544e-06
-5.2845e-08
5.56988e-06
-5.00524e-08
5.58511e-06
-4.78533e-08
5.59973e-06
-4.54534e-08
5.61307e-06
-4.29019e-08
5.62556e-06
-4.0439e-08
5.63793e-06
-3.85027e-08
5.65037e-06
-3.70167e-08
5.66226e-06
-3.48642e-08
5.67325e-06
-3.2503e-08
5.68322e-06
-3.1425e-08
5.69296e-06
-2.99612e-08
5.70221e-06
-2.80278e-08
5.71091e-06
-2.69757e-08
5.71894e-06
-2.50712e-08
5.72592e-06
-2.24976e-08
5.73187e-06
-2.15609e-08
5.73801e-06
-2.10054e-08
5.74404e-06
-1.87659e-08
5.74878e-06
-1.59009e-08
5.75225e-06
-1.36871e-08
5.75544e-06
-1.2343e-08
5.75789e-06
-1.15977e-08
5.75941e-06
-9.7791e-09
5.76151e-06
-7.8315e-09
5.76457e-06
-6.63258e-09
5.76693e-06
-5.22539e-09
5.76775e-06
-3.95306e-09
5.76735e-06
-3.29754e-09
5.76739e-06
-1.9174e-09
5.76741e-06
1.95045e-09
5.76638e-06
5.12743e-09
5.76514e-06
4.68403e-09
5.76426e-06
3.70816e-09
5.76328e-06
5.43097e-09
5.76079e-06
9.16743e-09
5.75689e-06
1.11209e-08
5.75313e-06
1.10021e-08
5.7501e-06
1.06351e-08
5.74675e-06
1.16587e-08
5.74251e-06
1.35935e-08
5.73837e-06
1.28962e-08
5.73472e-06
1.16914e-08
5.73111e-06
1.25223e-08
5.72765e-06
1.29998e-08
5.72484e-06
1.30983e-08
5.72118e-06
1.64004e-08
5.71388e-06
2.37831e-08
5.70523e-06
2.69138e-08
5.69929e-06
2.39292e-08
5.69345e-06
2.67713e-08
5.68404e-06
3.35889e-08
5.67283e-06
3.24099e-08
5.66411e-06
2.73083e-08
5.65612e-06
3.14747e-08
5.64449e-06
3.92578e-08
5.6323e-06
3.60782e-08
5.62351e-06
3.0999e-08
5.61487e-06
3.59703e-08
5.60375e-06
4.13503e-08
5.59024e-06
4.39674e-08
5.57646e-06
4.30914e-08
5.56547e-06
3.80663e-08
5.55508e-06
4.05654e-08
5.54313e-06
4.68343e-08
5.52957e-06
4.86788e-08
5.51412e-06
4.93191e-08
5.49884e-06
5.01014e-08
5.48538e-06
5.02401e-08
5.47095e-06
5.4034e-08
5.45392e-06
5.94343e-08
5.43694e-06
5.63728e-08
5.42134e-06
5.66845e-08
5.40394e-06
6.82665e-08
5.38365e-06
7.14379e-08
5.36185e-06
6.83146e-08
5.3382e-06
7.90076e-08
5.31252e-06
9.10503e-08
5.28164e-06
1.01202e-07
5.24803e-06
1.14042e-07
5.21764e-06
1.23927e-07
5.17962e-06
1.55915e-07
5.12856e-06
2.108e-07
5.08059e-06
2.92591e-07
4.27161e-07
5.02389e-06
-6.77187e-08
4.53363e-07
-1.05673e-07
3.91189e-07
-1.12798e-07
2.94378e-07
-9.29924e-08
1.82419e-07
-4.99186e-08
6.7919e-08
1.16655e-08
-3.71234e-08
8.62249e-08
-1.24884e-07
1.6946e-07
-1.93947e-07
2.57822e-07
-2.46398e-07
3.49417e-07
-2.85521e-07
4.42261e-07
-3.14444e-07
5.36302e-07
-3.35737e-07
6.3088e-07
-3.51399e-07
7.26388e-07
-3.63002e-07
8.21902e-07
-3.71763e-07
9.17746e-07
-3.78615e-07
1.01309e-06
-3.84002e-07
1.10843e-06
-3.88186e-07
1.20313e-06
-3.91386e-07
1.29809e-06
-3.93675e-07
1.39272e-06
-3.95073e-07
1.48783e-06
-3.95738e-07
1.58266e-06
-3.95656e-07
1.67786e-06
-3.94965e-07
1.77248e-06
-3.94023e-07
1.86749e-06
-3.92824e-07
1.9622e-06
-3.91263e-07
2.0573e-06
-3.89338e-07
2.15161e-06
-3.87096e-07
2.24575e-06
-3.84507e-07
2.33877e-06
-3.8152e-07
2.43122e-06
-3.78181e-07
2.52186e-06
-3.74577e-07
2.61135e-06
-3.70827e-07
2.69915e-06
-3.67043e-07
2.78588e-06
-3.63029e-07
2.87057e-06
-3.58821e-07
2.95397e-06
-3.54479e-07
3.03531e-06
-3.49799e-07
3.11534e-06
-3.44728e-07
3.1935e-06
-3.39307e-07
3.27053e-06
-3.33584e-07
3.346e-06
-3.27679e-07
3.42051e-06
-3.21572e-07
3.49339e-06
-3.15535e-07
3.56506e-06
-3.094e-07
3.63506e-06
-3.03101e-07
3.70389e-06
-2.96884e-07
3.77124e-06
-2.90816e-07
3.83756e-06
-2.84766e-07
3.90248e-06
-2.78754e-07
3.96629e-06
-2.72706e-07
4.0286e-06
-2.66628e-07
4.08968e-06
-2.60616e-07
4.14935e-06
-2.54499e-07
4.20782e-06
-2.48285e-07
4.26489e-06
-2.42197e-07
4.32073e-06
-2.36422e-07
4.37515e-06
-2.30838e-07
4.42833e-06
-2.25274e-07
4.48016e-06
-2.19709e-07
4.53069e-06
-2.14247e-07
4.57985e-06
-2.08884e-07
4.6278e-06
-2.0352e-07
4.67449e-06
-1.98232e-07
4.72002e-06
-1.93118e-07
4.76421e-06
-1.88098e-07
4.80706e-06
-1.83054e-07
4.84866e-06
-1.78125e-07
4.88918e-06
-1.73382e-07
4.92852e-06
-1.68771e-07
4.96659e-06
-1.63991e-07
5.00334e-06
-1.59177e-07
5.03886e-06
-1.54493e-07
5.0734e-06
-1.50044e-07
5.10706e-06
-1.45654e-07
5.13975e-06
-1.41292e-07
5.17134e-06
-1.36976e-07
5.2018e-06
-1.3274e-07
5.23125e-06
-1.28823e-07
5.25976e-06
-1.24958e-07
5.28726e-06
-1.20904e-07
5.31387e-06
-1.16797e-07
5.33954e-06
-1.12529e-07
5.36415e-06
-1.08213e-07
5.38788e-06
-1.0427e-07
5.41078e-06
-1.00599e-07
5.43248e-06
-9.6913e-08
5.45312e-06
-9.33293e-08
5.47301e-06
-8.99778e-08
5.49217e-06
-8.65402e-08
5.51069e-06
-8.28388e-08
5.52859e-06
-7.85051e-08
5.54578e-06
-7.46553e-08
5.56215e-06
-7.14629e-08
5.57765e-06
-6.76982e-08
5.59235e-06
-6.41171e-08
5.60646e-06
-6.13161e-08
5.61986e-06
-5.82134e-08
5.63241e-06
-5.4769e-08
5.64425e-06
-5.15699e-08
5.65565e-06
-4.91158e-08
5.66647e-06
-4.70197e-08
5.67681e-06
-4.43893e-08
5.68664e-06
-4.15906e-08
5.69558e-06
-3.97457e-08
5.70402e-06
-3.79028e-08
5.71217e-06
-3.57967e-08
5.71954e-06
-3.40618e-08
5.72641e-06
-3.17334e-08
5.73282e-06
-2.87678e-08
5.73821e-06
-2.68643e-08
5.74285e-06
-2.56069e-08
5.74738e-06
-2.33118e-08
5.75137e-06
-1.99231e-08
5.75451e-06
-1.69205e-08
5.75691e-06
-1.48916e-08
5.75845e-06
-1.33568e-08
5.75967e-06
-1.12013e-08
5.76113e-06
-9.4551e-09
5.76265e-06
-8.16661e-09
5.76372e-06
-6.24219e-09
5.76366e-06
-3.79449e-09
5.76219e-06
-1.79953e-09
5.76069e-06
-4.18238e-10
5.75993e-06
2.62066e-09
5.75902e-06
5.91974e-09
5.75702e-06
6.50673e-09
5.75424e-06