/*--------------------------------*- C++ -*----------------------------------*\
  =========                 |
  \\      /  F ield         | OpenFOAM: The Open Source CFD Toolbox
   \\    /   O peration     | Website:  https://openfoam.org
    \\  /    A nd           | Version:  9
     \\/     M anipulation  |
\*---------------------------------------------------------------------------*/
FoamFile
{
    format      ascii;
    class       volScalarField;
    location    "5.66";
    object      k;
}
// * * * * * * * * * * * * * * * * * * * * * * * * * * * * * * * * * * * * * //

dimensions      [0 2 -2 0 0 0 0];

internalField   nonuniform List<scalar> 
2268
(
0.000235285
0.000564261
0.00081738
0.00101438
0.00117554
0.00131132
0.00142822
0.00153029
0.00162021
0.00170002
0.00177211
0.00183847
0.00189874
0.00195019
0.00198273
0.00197072
0.00185937
0.00166582
0.00146972
0.00133869
0.00119107
0.00095138
0.000419898
0.000501186
0.00131544
0.00184698
0.00226588
0.00261034
0.00290052
0.00314966
0.00336646
0.00355671
0.00372429
0.00387215
0.00400308
0.00411617
0.00420411
0.00424832
0.00421168
0.00403695
0.00370025
0.00334369
0.00304668
0.00271553
0.00211787
0.0009582
0.000707185
0.00175671
0.00241401
0.00293272
0.00336131
0.00372303
0.00403307
0.00430188
0.00453674
0.00474271
0.0049235
0.00508175
0.00521565
0.00531633
0.00536394
0.0053235
0.00514927
0.00482766
0.00446283
0.00410794
0.00366904
0.00291063
0.00133902
0.000882039
0.00210735
0.00284857
0.00343103
0.0039135
0.00432132
0.00467072
0.00497312
0.00523675
0.00546746
0.00566937
0.00584493
0.00599194
0.00610117
0.00615375
0.00611973
0.00596483
0.00567987
0.00533853
0.0049717
0.0044908
0.00364849
0.00170879
0.00103358
0.00241302
0.00322231
0.00385327
0.00437594
0.00481801
0.00519667
0.00552415
0.00580938
0.0060588
0.00627687
0.0064659
0.00662374
0.00674147
0.00680213
0.00678117
0.00665369
0.00641298
0.00610845
0.00575493
0.00526885
0.00438077
0.00211095
0.001169
0.00269006
0.00355996
0.00423167
0.00478689
0.00525617
0.00565797
0.00600534
0.00630788
0.00657254
0.00680407
0.00700482
0.00717292
0.00730025
0.0073721
0.00736875
0.0072725
0.00707881
0.00681827
0.00649309
0.00602615
0.00512982
0.00260713
0.00129331
0.0029469
0.00387331
0.00458153
0.00516449
0.0056562
0.00607678
0.00644033
0.00675716
0.00703469
0.00727802
0.00748962
0.00766807
0.00780633
0.00789193
0.00790921
0.00784552
0.00769748
0.00748349
0.00719642
0.00676989
0.00592602
0.00329372
0.0014107
0.00318907
0.00416944
0.0049119
0.0055193
0.00602975
0.0064656
0.00684229
0.00717099
0.00745957
0.00771354
0.00793554
0.00812465
0.008275
0.00837622
0.0084157
0.00838413
0.00827839
0.00810887
0.00786409
0.00749325
0.00678287
0.0045345
0.000360076
0.000998501
0.00136514
0.00154931
0.00163913
0.00167649
0.00169535
0.00171715
0.00174218
0.00169881
0.00150337
0.00128066
0.00104607
0.00111249
0.00140496
0.00135947
0.00105301
0.00072972
0.000480485
0.000715414
0.00213214
0.00289588
0.00330287
0.00350805
0.00359927
0.00363561
0.0036508
0.00363476
0.0034988
0.00316604
0.00275264
0.00234639
0.00236905
0.0027582
0.002628
0.00211597
0.00149728
0.00076511
0.00100679
0.00278106
0.003717
0.00421106
0.00445988
0.0045698
0.00460838
0.00461055
0.00456157
0.00438045
0.00401905
0.00358997
0.00318126
0.00315934
0.00339696
0.0031846
0.00261175
0.00188571
0.000911871
0.00133265
0.00336643
0.00438322
0.00490378
0.00516163
0.00527154
0.005302
0.00528598
0.00520692
0.00499523
0.00462496
0.0042044
0.00383087
0.00378356
0.00386033
0.00356243
0.00294106
0.00212815
0.000990099
0.00168875
0.00398398
0.00501313
0.00551839
0.00576216
0.00585879
0.00587306
0.0058343
0.00572623
0.0054913
0.00512184
0.00472255
0.00439497
0.00431982
0.0042527
0.00386907
0.00318492
0.00228473
0.00103076
0.00213456
0.00466164
0.00563856
0.00609704
0.00631005
0.00638353
0.00637524
0.0063102
0.00617395
0.00592038
0.00556224
0.00519438
0.0049083
0.00478742
0.00460373
0.00413214
0.00337113
0.00238466
0.00105818
0.00280819
0.0054118
0.00626673
0.00665433
0.00682515
0.00686854
0.00683305
0.00673938
0.00657624
0.00630939
0.00596825
0.00563711
0.0053751
0.00519333
0.00491784
0.00435909
0.00352025
0.00245469
0.00107303
0.00410175
0.00622947
0.00689247
0.00719401
0.00731618
0.00732528
0.00725974
0.00713643
0.00694823
0.00667336
0.00634875
0.00604766
0.00578855
0.00554312
0.00519202
0.0045577
0.00365098
0.00251778
0.0010788
0.00158458
0.00354658
0.0046106
0.00540627
0.00604888
0.00658409
0.00703884
0.00743164
0.00777541
0.0080789
0.00834818
0.00858598
0.00879196
0.00896218
0.00908953
0.00916535
0.00918186
0.00913599
0.00902927
0.00884921
0.00856816
0.00808179
0.00703687
0.00178925
0.00398489
0.00517304
0.00605129
0.00673555
0.0072908
0.00775513
0.00815582
0.00850992
0.00882718
0.00911331
0.00937138
0.0096018
0.00980234
0.00996804
0.010091
0.0101626
0.0101774
0.0101346
0.0100306
0.00986055
0.00960476
0.00921644
0.00197999
0.0043961
0.00574897
0.00675021
0.00746881
0.00802099
0.00846161
0.00884354
0.0091915
0.00951311
0.00981031
0.010085
0.0103377
0.0105682
0.0107739
0.0109456
0.0110682
0.0111305
0.0111375
0.0110927
0.010999
0.0108587
0.0106727
0.00218519
0.00480515
0.00640401
0.00764118
0.00835304
0.00886318
0.00921212
0.00953145
0.00985239
0.0101665
0.0104655
0.0107492
0.0110183
0.0112758
0.0115248
0.0117538
0.0119292
0.0120186
0.0120689
0.0120674
0.0120155
0.011923
0.011804
0.00246974
0.00527787
0.00714162
0.00845364
0.00887876
0.00942199
0.00978082
0.0100999
0.0104239
0.0107544
0.0110728
0.011373
0.0116583
0.0119414
0.0122465
0.0125702
0.0128264
0.012887
0.0129351
0.0129691
0.012905
0.0128087
0.0127126
0.00252588
0.00540869
0.00717007
0.00825477
0.00896238
0.00969146
0.0101515
0.0104853
0.0108356
0.0111985
0.0115575
0.0119011
0.012227
0.0125584
0.0129283
0.0133229
0.0135752
0.0135178
0.0134958
0.0135088
0.0135086
0.0134862
0.0134165
0.00234008
0.00534434
0.00711463
0.00832157
0.00905864
0.00985003
0.0103577
0.0107632
0.0111496
0.011541
0.0119294
0.0123008
0.012651
0.0129822
0.0132867
0.0135393
0.0137191
0.0137729
0.0138271
0.0138841
0.0139306
0.0139251
0.0138956
0.00240843
0.00517762
0.00692828
0.00814075
0.00905274
0.00982597
0.0104269
0.0109396
0.0113981
0.0118286
0.0122387
0.0126214
0.0129694
0.0132703
0.0135193
0.0137214
0.013892
0.0140047
0.0141214
0.0142247
0.0142639
0.0142363
0.0142284
0.00241778
0.00523074
0.00688471
0.00807423
0.00903004
0.00982429
0.0104854
0.0110617
0.0115755
0.0120444
0.0124775
0.0128723
0.0132207
0.013511
0.013741
0.0139222
0.0140768
0.0142145
0.0143414
0.0144371
0.0144695
0.0144654
0.0144414
0.00245108
0.0053767
0.00696968
0.00813268
0.00908196
0.00988213
0.0105691
0.0111738
0.0117137
0.0122026
0.0126473
0.0130465
0.0133932
0.0136804
0.0139102
0.0140952
0.0142553
0.0144014
0.0145258
0.0146142
0.0146591
0.0146666
0.0146338
0.00253173
0.00553169
0.00710951
0.00825494
0.00919007
0.00998528
0.0106777
0.0112906
0.0118387
0.0123328
0.0127784
0.0131752
0.0135196
0.0138101
0.0140512
0.0142532
0.0144288
0.0145831
0.0147097
0.0148014
0.0148545
0.0148654
0.0148308
0.00261364
0.00567711
0.00725993
0.00839763
0.00932255
0.0101118
0.0108025
0.0114155
0.011964
0.012457
0.0128994
0.0132928
0.0136376
0.0139356
0.0141913
0.0144115
0.0146029
0.0147669
0.0148993
0.014996
0.0150537
0.0150683
0.0150383
0.00269038
0.00580669
0.00740157
0.00853872
0.00945914
0.0102446
0.010933
0.0115447
0.0120921
0.0125833
0.0130238
0.0134168
0.0137653
0.0140723
0.0143415
0.0145769
0.0147815
0.014955
0.0150945
0.0151968
0.0152595
0.0152798
0.0152581
0.00275428
0.00591828
0.00752836
0.00866954
0.00958977
0.0103742
0.0110619
0.0116734
0.0122211
0.0127129
0.0131548
0.0135513
0.0139061
0.0142224
0.0145034
0.0147512
0.0149669
0.0151495
0.0152969
0.0154064
0.0154762
0.015505
0.0154938
0.0028077
0.00601381
0.00763998
0.00878784
0.00971087
0.0104968
0.0111858
0.0117991
0.0123493
0.0128447
0.0132914
0.0136944
0.0140576
0.0143841
0.0146763
0.0149354
0.0151616
0.0153539
0.0155105
0.0156294
0.0157091
0.0157494
0.0157511
0.00285397
0.00609633
0.00773816
0.0088941
0.00982196
0.0106115
0.0113038
0.0119211
0.0124762
0.0129778
0.0134322
0.0138444
0.014218
0.0145559
0.0148599
0.0151308
0.0153686
0.0155723
0.0157404
0.0158714
0.0159643
0.016019
0.016036
0.00289531
0.00616822
0.00782479
0.00898952
0.00992368
0.0107186
0.0114164
0.0120397
0.0126021
0.0131124
0.013577
0.0140007
0.0143868
0.0147379
0.0150555
0.0153403
0.015592
0.0158097
0.0159923
0.0161386
0.0162479
0.0163198
0.0163544
0.00293244
0.00623094
0.00790125
0.00907519
0.0100169
0.0108189
0.0115241
0.0121558
0.0127278
0.0132493
0.0137265
0.0141641
0.0145651
0.014932
0.0152659
0.0155673
0.0158359
0.016071
0.0162717
0.0164368
0.0165656
0.0166576
0.0167123
0.00296525
0.00628522
0.0079684
0.00915197
0.0101024
0.0109133
0.011628
0.0122704
0.0128546
0.0133898
0.0138822
0.0143364
0.0147553
0.0151408
0.0154942
0.0158157
0.016105
0.0163614
0.0165839
0.0167715
0.0169233
0.0170383
0.0171158
0.00299333
0.00633143
0.00802681
0.00922054
0.010181
0.0110026
0.0117291
0.0123846
0.0129836
0.0135353
0.014046
0.0145199
0.0149599
0.0153677
0.0157443
0.0160898
0.0164039
0.0166858
0.0169344
0.0171484
0.0173268
0.0174684
0.017572
0.00301653
0.00636976
0.00807691
0.00928151
0.0102535
0.0110876
0.0118283
0.0124997
0.0131164
0.0136878
0.01422
0.0147171
0.015182
0.0156161
0.0160202
0.0163943
0.0167378
0.0170498
0.017329
0.017574
0.0177832
0.0179552
0.0180885
0.00303494
0.00640028
0.0081191
0.00933551
0.0103205
0.0111695
0.0119268
0.012617
0.0132546
0.0138491
0.0144065
0.0149309
0.0154249
0.0158898
0.0163262
0.0167339
0.017112
0.0174594
0.0177744
0.0180553
0.0183003
0.0185073
0.0186745
0.00304792
0.006423
0.00815381
0.00938324
0.0103832
0.0112492
0.0120259
0.012738
0.0133999
0.0140213
0.0146081
0.0151642
0.0156921
0.0161931
0.0166673
0.0171142
0.0175329
0.0179216
0.0182784
0.018601
0.0188873
0.0191347
0.0193409
0.003055
0.0064383
0.00818171
0.00942555
0.0104423
0.0113278
0.0121269
0.0128641
0.0135542
0.0142066
0.0148273
0.0154202
0.0159876
0.0165304
0.0170486
0.0175414
0.0180074
0.0184443
0.0188498
0.0192211
0.0195552
0.0198492
0.0201003
0.00305698
0.0064472
0.00820374
0.00946339
0.010499
0.0114067
0.0122311
0.0129971
0.0137194
0.0144074
0.0150672
0.0157025
0.0163154
0.0169068
0.0174762
0.0180226
0.0185438
0.0190371
0.0194995
0.0199273
0.0203171
0.0206651
0.0209678
0.00305499
0.00645079
0.00822087
0.00949773
0.0105544
0.0114868
0.01234
0.0131386
0.0138975
0.0146261
0.0153306
0.0160146
0.0166802
0.0173278
0.017957
0.0185658
0.0191516
0.019711
0.0202399
0.0207339
0.0211884
0.0215991
0.0219614
0.00304975
0.00644992
0.00823393
0.00952943
0.0106093
0.0115694
0.0124547
0.01329
0.0140903
0.0148651
0.0156205
0.0163605
0.0170868
0.0177998
0.0184984
0.0191802
0.0198419
0.0204788
0.0210858
0.0216574
0.0221877
0.0226711
0.0231022
0.00304169
0.00644511
0.00824348
0.00955912
0.0106645
0.0116553
0.0125765
0.0134529
0.0142997
0.0151267
0.0159402
0.0167441
0.0175404
0.0183292
0.0191089
0.0198765
0.0206273
0.0213556
0.0220547
0.0227175
0.0233364
0.0239046
0.0244149
0.00303067
0.0064362
0.00824956
0.00958705
0.0107204
0.0117451
0.0127061
0.0136283
0.0145272
0.015413
0.0162924
0.0171695
0.0180465
0.0189233
0.0197978
0.020666
0.0215222
0.0223587
0.0231668
0.023937
0.02466
0.0253267
0.0259284
0.00301482
0.00642194
0.00825162
0.00961309
0.0107772
0.0118392
0.012844
0.013817
0.0147739
0.0157257
0.0166796
0.0176403
0.0186102
0.0195892
0.0205747
0.0215616
0.0225424
0.0235073
0.0244448
0.0253425
0.0261881
0.0269696
0.0276768
0.0029915
0.00640025
0.00824862
0.00963664
0.0108345
0.0119374
0.0129904
0.0140192
0.0150405
0.016066
0.0171038
0.0181595
0.0192361
0.0203336
0.021449
0.022576
0.0237049
0.0248229
0.0259148
0.0269642
0.0279547
0.0288705
0.0296991
0.00296669
0.00636791
0.00823775
0.00965589
0.0108913
0.012039
0.0131446
0.0142346
0.0153267
0.0164337
0.0175655
0.0187286
0.0199272
0.0211619
0.0224292
0.0237217
0.0250269
0.0263283
0.0276055
0.0288364
0.029999
0.0310723
0.0320404
0.002936
0.00632444
0.00821794
0.0096695
0.0109461
0.0121428
0.0133055
0.0144618
0.015631
0.0168277
0.0180635
0.0193473
0.0206845
0.022077
0.0235215
0.0250092
0.0265247
0.0280465
0.0295475
0.0309974
0.0323657
0.0336244
0.034753
0.00289785
0.00626973
0.00818755
0.00967567
0.0109975
0.0122472
0.0134714
0.014699
0.015951
0.0172447
0.0185944
0.0200118
0.0215049
0.0230775
0.0247272
0.0264444
0.0282108
0.0299988
0.0317723
0.0334892
0.0351063
0.0365849
0.0378981
0.00284991
0.00619982
0.00814314
0.00967186
0.0110435
0.0123506
0.0136401
0.0149427
0.0162822
0.017679
0.019151
0.0207139
0.0223795
0.0241549
0.02604
0.0280257
0.0300912
0.0322022
0.034311
0.0363583
0.0382809
0.040023
0.0415486
0.00278625
0.00610559
0.00807883
0.00965511
0.0110826
0.0124515
0.0138092
0.015189
0.0166182
0.0181215
0.0197217
0.0214394
0.0232919
0.0252914
0.0274424
0.0297388
0.0321597
0.034665
0.037192
0.0396566
0.0419629
0.0440254
0.0457948
0.00269636
0.00597401
0.00798771
0.00962343
0.0111149
0.0125493
0.0139761
0.0154323
0.0169503
0.01856
0.0202899
0.0221671
0.0242159
0.0264563
0.028901
0.0315515
0.0343918
0.0373799
0.0404374
0.043444
0.0462474
0.0487059
0.0507519
0.00256516
0.00579084
0.007865
0.00957836
0.011143
0.0126446
0.0141378
0.0156658
0.0172671
0.018978
0.0208334
0.0228678
0.0251145
0.0276041
0.0303624
0.0334057
0.0367331
0.0403118
0.044054
0.0477905
0.0512681
0.0542236
0.0565718
0.00245398
0.00555854
0.0077146
0.00952791
0.0111731
0.012739
0.0142906
0.0158806
0.0175547
0.0193556
0.021325
0.0235054
0.0259401
0.0286732
0.031749
0.0352089
0.039084
0.0433752
0.0480108
0.0527749
0.0572327
0.0608151
0.0634577
0.00388568
0.00544185
0.00755994
0.0094856
0.0112125
0.0128321
0.014428
0.0160651
0.0177964
0.0196702
0.0217344
0.0240386
0.0266367
0.0295876
0.0329587
0.036827
0.0412783
0.0463909
0.0521812
0.058457
0.0645127
0.0688503
0.071675
0.0180385
0.00667328
0.0074255
0.00945197
0.0112598
0.0129161
0.0145379
0.0162042
0.0179738
0.0198987
0.0220309
0.0244259
0.0271462
0.0302645
0.0338712
0.038084
0.043062
0.049017
0.0561964
0.064731
0.0739114
0.078918
0.0815352
0.0840495
0.0143341
0.0075003
0.00942458
0.0112978
0.0129709
0.0146019
0.0162808
0.018069
0.02002
0.0221879
0.0246312
0.0274173
0.0306278
0.0343681
0.0387859
0.0441035
0.050678
0.0591258
0.0706113
0.0875884
0.0918598
0.0932767
0.00492226
0.004334
0.00433548
0.00492192
0.0088295
0.00864897
0.00857918
0.00861353
0.0105092
0.0104123
0.0103329
0.0102701
0.0116599
0.0115768
0.0115081
0.0114408
0.0125813
0.0124899
0.0124145
0.0123463
0.0132808
0.0132073
0.0131507
0.0131151
0.0138171
0.0137411
0.0136922
0.0136261
0.0141654
0.0141075
0.0140302
0.0139365
0.0143874
0.0143356
0.0142672
0.0141873
0.0145758
0.0145279
0.0144697
0.0144022
0.0147739
0.014729
0.0146758
0.0146147
0.0149865
0.0149451
0.0148958
0.0148389
0.0152133
0.0151765
0.0151317
0.0150792
0.0154577
0.0154263
0.015387
0.0153397
0.0157249
0.0157
0.0156669
0.0156258
0.0160212
0.0160035
0.0159776
0.0159434
0.0163525
0.016343
0.0163251
0.0162987
0.016725
0.0167246
0.0167157
0.016698
0.0171449
0.0171549
0.017156
0.0171482
0.0176196
0.0176412
0.0176537
0.0176568
0.0181572
0.018192
0.0182172
0.0182328
0.0187672
0.0188169
0.0188567
0.0188864
0.0194608
0.0195276
0.019584
0.0196296
0.0202515
0.0203378
0.020413
0.0204769
0.0211549
0.0212635
0.0213602
0.0214448
0.0221896
0.0223236
0.0224449
0.0225531
0.0233774
0.0235406
0.0236899
0.0238248
0.0247439
0.0249403
0.0251213
0.0252864
0.0263189
0.026553
0.0267697
0.0269687
0.0281371
0.0284136
0.0286704
0.028907
0.0302382
0.0305623
0.0308634
0.0311412
0.0326681
0.0330448
0.0333945
0.0337169
0.0354794
0.035914
0.036316
0.0366858
0.0387335
0.0392306
0.039688
0.0401065
0.0425029
0.043066
0.0435799
0.0440466
0.0468752
0.0475052
0.0480738
0.0485845
0.051959
0.0526517
0.0532671
0.0538118
0.0578912
0.0586315
0.0592756
0.0598347
0.0648421
0.0655954
0.0662327
0.066772
0.073013
0.0737109
0.0742802
0.0747471
0.0826056
0.0831327
0.0835434
0.083868
0.0937298
0.0939345
0.0940847
0.0941987
0.00674873
0.00749644
0.00784386
0.00800854
0.00805145
0.00800474
0.0078904
0.00772018
0.00749495
0.0072121
0.00690779
0.00662695
0.00634404
0.00600848
0.00554969
0.00482987
0.00385822
0.00265087
0.00108592
0.00876302
0.00892679
0.00901815
0.00903822
0.00898179
0.00886005
0.00868227
0.00845749
0.00819208
0.00789318
0.00757931
0.00726335
0.00691957
0.00650145
0.00596123
0.00521565
0.00425266
0.00300698
0.00118239
0.0101869
0.0101235
0.0100745
0.00999688
0.0098527
0.00966661
0.00943323
0.00916355
0.00886792
0.00854767
0.00821026
0.00785752
0.00746364
0.00699247
0.00642161
0.00572242
0.00485221
0.00363749
0.00149159
0.0113017
0.0111515
0.0110494
0.0109224
0.0106836
0.0104587
0.0101749
0.0098597
0.0095379
0.00920129
0.00884952
0.00848189
0.00806008
0.00755424
0.00698173
0.00638365
0.00562819
0.00439816
0.00209433
0.0122251
0.0120444
0.0119323
0.0117613
0.0114824
0.011256
0.0108771
0.0104857
0.0101251
0.00976665
0.00938685
0.00900073
0.00857995
0.00807044
0.00748171
0.00692998
0.00628875
0.00520118
0.00320671
0.0129985
0.0127966
0.0126693
0.012462
0.0121134
0.0118277
0.0114072
0.0109739
0.0105674
0.0101708
0.00975828
0.00930984
0.00884055
0.00831408
0.00774218
0.00716022
0.00644562
0.00518934
0.00306608
0.0134719
0.0132647
0.0131351
0.0129926
0.0125785
0.0122585
0.0118469
0.0114137
0.0109834
0.0105477
0.0100836
0.00957807
0.00906056
0.00852271
0.00792765
0.00733687
0.00659267
0.00496541
0.0025556
0.0137794
0.0135723
0.0133908
0.0131993
0.0128719
0.0125421
0.0121903
0.0117948
0.0113513
0.0108749
0.0103615
0.00980372
0.00921899
0.00861822
0.00798111
0.00730477
0.00643881
0.00486493
0.00229204
0.0140451
0.0138311
0.0136082
0.013361
0.0130602
0.0127461
0.0124258
0.0120509
0.0115907
0.0110883
0.0105521
0.00996462
0.00933332
0.00866763
0.0079515
0.00716325
0.00620412
0.00473646
0.00219268
0.0142774
0.0140672
0.0138301
0.0135665
0.0132698
0.0129478
0.0126147
0.012221
0.0117433
0.0112292
0.010669
0.0100484
0.00938271
0.0086643
0.00787589
0.00700269
0.00598546
0.00459781
0.00217066
0.0145007
0.0142994
0.0140637
0.0137999
0.0135027
0.0131655
0.012801
0.0123774
0.0118913
0.0113624
0.0107687
0.0101068
0.00939677
0.00862761
0.00778169
0.00684162
0.00576767
0.00438171
0.00208369
0.014732
0.0145405
0.0143114
0.0140491
0.0137478
0.0133987
0.0130089
0.0125686
0.0120721
0.011523
0.0109075
0.010218
0.00946221
0.00863013
0.00770797
0.00668179
0.00552832
0.00408421
0.0019507
0.0149794
0.0147981
0.0145764
0.0143147
0.0140083
0.0136528
0.0132523
0.0128031
0.0122978
0.0117391
0.0111165
0.0104132
0.00962517
0.00874451
0.00775698
0.00664475
0.00539557
0.00387813
0.00191925
0.0152483
0.015078
0.0148649
0.0146063
0.0142988
0.0139417
0.013538
0.0130851
0.0125778
0.0120164
0.0113921
0.0106847
0.00988451
0.00898847
0.00798455
0.00685061
0.00556244
0.00398854
0.00189248
0.0155442
0.0153863
0.0151835
0.0149321
0.0146291
0.0142751
0.0138723
0.0134194
0.0129128
0.01235
0.0117238
0.0110184
0.0102238
0.0093378
0.00835251
0.00724707
0.00597772
0.00439581
0.00200085
0.0158729
0.0157291
0.0155383
0.0152972
0.0150031
0.0146561
0.0142577
0.0138073
0.0133021
0.0127388
0.0121112
0.0114087
0.0106236
0.00975297
0.00879065
0.00771569
0.00646887
0.00487387
0.00226606
0.0162407
0.0161126
0.0159358
0.0157073
0.0154246
0.0150874
0.014696
0.01425
0.0137472
0.0131841
0.0125557
0.0118545
0.0110746
0.0102119
0.00925914
0.00819278
0.00694454
0.0053093
0.00248797
0.016654
0.0165437
0.0163828
0.0161688
0.0158994
0.0155736
0.0151909
0.0147507
0.0142509
0.0136884
0.0130587
0.0123562
0.0115752
0.01071
0.00975035
0.00866837
0.00738737
0.00567668
0.00266608
0.0171199
0.0170297
0.0168869
0.0166892
0.0164345
0.0161212
0.0157483
0.0153147
0.0148182
0.0142561
0.0136241
0.0129171
0.012129
0.011252
0.0102716
0.00915448
0.00781456
0.00599932
0.00282228
0.0176463
0.0175788
0.0174564
0.017277
0.0170383
0.0167385
0.0163761
0.0159495
0.0154564
0.014894
0.014258
0.0135434
0.0127431
0.0118471
0.0108368
0.00967264
0.0082588
0.00632183
0.00298715
0.0182423
0.0182005
0.0181011
0.017942
0.0177209
0.0174356
0.0170843
0.0166649
0.0161749
0.0156111
0.0149694
0.0142441
0.0134274
0.0125074
0.0114622
0.0102475
0.00876033
0.00671107
0.00319475
0.0189187
0.0189058
0.0188324
0.018696
0.0184941
0.0182246
0.017885
0.0174728
0.0169854
0.016419
0.0157693
0.0150303
0.0141935
0.0132455
0.012163
0.0108995
0.00935099
0.00722356
0.00346328
0.0196878
0.0197078
0.0196636
0.0195525
0.019372
0.0191195
0.0187923
0.0183876
0.017902
0.0173317
0.0166717
0.0159156
0.0150544
0.0140741
0.0129509
0.0116386
0.0100353
0.00784673
0.00378202
0.0205644
0.0206216
0.0206102
0.0205275
0.0203706
0.0201368
0.0198229
0.0194258
0.0189415
0.0183655
0.0176926
0.0169155
0.0160248
0.0150062
0.0138356
0.0124671
0.0107995
0.00853277
0.00414348
0.0215657
0.0216649
0.0216904
0.0216393
0.0215086
0.0212953
0.0209959
0.0206067
0.0201232
0.0195401
0.0188514
0.0180491
0.017123
0.0160581
0.0148297
0.013391
0.0116359
0.0092396
0.00455093
0.0227119
0.0228583
0.0229251
0.0229092
0.0228076
0.022617
0.0223335
0.0219529
0.0214698
0.0208783
0.0201709
0.0193388
0.0183705
0.0172497
0.0159503
0.0144227
0.0125525
0.00998078
0.00494284
0.0240263
0.0242256
0.0243384
0.0243616
0.0242921
0.0241265
0.0238606
0.0234895
0.0230071
0.022406
0.0216775
0.0208108
0.0197927
0.0186049
0.0172184
0.0155792
0.0135613
0.0107654
0.00529398
0.025536
0.0257942
0.0259576
0.0260236
0.0259893
0.0258512
0.0256049
0.0252448
0.0247636
0.0241525
0.0234007
0.0224952
0.0214198
0.0201529
0.0186616
0.0168852
0.0146831
0.0116124
0.00561324
0.0272719
0.0275948
0.0278134
0.0279257
0.0279294
0.0278213
0.0275968
0.0272495
0.0267709
0.0261503
0.0253743
0.0244265
0.023287
0.0219295
0.0203152
0.0183753
0.0159536
0.0125637
0.0059739
0.0292692
0.0296622
0.0299398
0.0301013
0.0301454
0.0300696
0.0298691
0.0295371
0.0290635
0.0284352
0.0276357
0.0266443
0.0254358
0.0239775
0.0222233
0.0200945
0.0174187
0.0136671
0.00642608
0.0315675
0.0320352
0.0323745
0.032587
0.0326731
0.0326313
0.0324572
0.0321434
0.0316783
0.0310462
0.0302263
0.0291929
0.0279138
0.0263479
0.0244392
0.0220969
0.0191305
0.0149649
0.00697237
0.0342117
0.0347568
0.0351588
0.0354224
0.0355507
0.035544
0.0353986
0.0351066
0.034655
0.034025
0.0331915
0.032122
0.0307755
0.0291003
0.0270266
0.0244475
0.0211497
0.0165018
0.00760873
0.0372518
0.0378745
0.0383374
0.0386501
0.0388192
0.0388475
0.0387327
0.0384667
0.0380351
0.0374162
0.0365797
0.0354856
0.0340825
0.0323039
0.030062
0.0272271
0.0235542
0.0183411
0.00836445
0.0407443
0.041441
0.0419595
0.0423161
0.0425223
0.0425842
0.0425012
0.0422657
0.0418622
0.0412661
0.0404422
0.0393423
0.0379024
0.0360382
0.0336372
0.0305369
0.0264476
0.0205767
0.00931361
0.0447528
0.0455144
0.0460785
0.0464702
0.0467071
0.0467992
0.0467482
0.0465476
0.0461813
0.0456227
0.0448319
0.0437529
0.0423082
0.0403923
0.0378604
0.0345036
0.0299657
0.0233321
0.0105198
0.0493496
0.0501594
0.0507531
0.0511665
0.0514243
0.051541
0.051521
0.051359
0.0510394
0.0505346
0.0498018
0.0487785
0.0473745
0.0454615
0.0428552
0.0392824
0.0342863
0.0267721
0.0120426
0.0546167
0.0554477
0.0560476
0.0564644
0.0567301
0.0568633
0.056871
0.0567498
0.0564855
0.0560512
0.0554036
0.054477
0.0531724
0.0513408
0.0487555
0.0450605
0.039648
0.0311386
0.0139877
0.0606462
0.061458
0.0620327
0.0624298
0.062687
0.062826
0.0628559
0.0627754
0.0625724
0.0622228
0.0616865
0.0608996
0.0597619
0.0581133
0.0556914
0.0520496
0.0463712
0.0368131
0.0165475
0.0675374
0.0682753
0.068786
0.0691364
0.0693664
0.0694985
0.0695426
0.0694991
0.0693591
0.0691031
0.0686976
0.0680879
0.0671836
0.0658315
0.0637595
0.0604547
0.0548638
0.0444232
0.0201206
0.0753919
0.0759888
0.0763929
0.0766684
0.0768517
0.0769627
0.0770105
0.0769964
0.0769148
0.0767525
0.0764858
0.0760751
0.0754525
0.0744968
0.0729741
0.0703887
0.0655498
0.0549907
0.0254786
0.084303
0.0846904
0.084948
0.0851234
0.0852422
0.0853179
0.0853567
0.0853602
0.0853256
0.0852463
0.0851095
0.084894
0.0845631
0.0840488
0.0832105
0.0817124
0.0785711
0.0699264
0.0339048
0.0943471
0.0944756
0.0945604
0.0946186
0.0946588
0.0946858
0.0947016
0.094707
0.0947015
0.0946834
0.0946498
0.094596
0.0945141
0.0943909
0.0941991
0.0938649
0.0930833
0.0897465
0.0471539
)
;

boundaryField
{
    leftWall
    {
        type            kqRWallFunction;
        value           nonuniform List<scalar> 
50
(
0.000235285
0.000501186
0.000707185
0.000882039
0.00103358
0.001169
0.00129331
0.0014107
0.00158458
0.00178925
0.00197999
0.00218519
0.00246974
0.00252588
0.00234008
0.00240843
0.00241778
0.00245108
0.00253173
0.00261364
0.00269038
0.00275428
0.0028077
0.00285397
0.00289531
0.00293244
0.00296525
0.00299333
0.00301653
0.00303494
0.00304792
0.003055
0.00305698
0.00305499
0.00304975
0.00304169
0.00303067
0.00301482
0.0029915
0.00296669
0.002936
0.00289785
0.00284991
0.00278625
0.00269636
0.00256516
0.00245398
0.00388568
0.0180385
0.0840495
)
;
    }
    rightWall
    {
        type            kqRWallFunction;
        value           nonuniform List<scalar> 
50
(
0.000480485
0.00076511
0.000911871
0.000990099
0.00103076
0.00105818
0.00107303
0.0010788
0.00108592
0.00118239
0.00149159
0.00209433
0.00320671
0.00306608
0.0025556
0.00229204
0.00219268
0.00217066
0.00208369
0.0019507
0.00191925
0.00189248
0.00200085
0.00226606
0.00248797
0.00266608
0.00282228
0.00298715
0.00319475
0.00346328
0.00378202
0.00414348
0.00455093
0.00494284
0.00529398
0.00561324
0.0059739
0.00642608
0.00697237
0.00760873
0.00836445
0.00931361
0.0105198
0.0120426
0.0139877
0.0165475
0.0201206
0.0254786
0.0339048
0.0471539
)
;
    }
    lowerWall
    {
        type            kqRWallFunction;
        value           nonuniform List<scalar> 
62
(
0.000235285
0.000564261
0.00081738
0.00101438
0.00117554
0.00131132
0.00142822
0.00153029
0.00162021
0.00170002
0.00177211
0.00183847
0.00189874
0.00195019
0.00198273
0.00197072
0.00185937
0.00166582
0.00146972
0.00133869
0.00119107
0.00095138
0.000419898
0.000419898
0.0009582
0.00133902
0.00170879
0.00211095
0.00260713
0.00329372
0.0045345
0.00492226
0.004334
0.00433548
0.00492192
0.000360076
0.000715414
0.00100679
0.00133265
0.00168875
0.00213456
0.00280819
0.00410175
0.000360076
0.000998501
0.00136514
0.00154931
0.00163913
0.00167649
0.00169535
0.00171715
0.00174218
0.00169881
0.00150337
0.00128066
0.00104607
0.00111249
0.00140496
0.00135947
0.00105301
0.00072972
0.000480485
)
;
    }
    atmosphere
    {
        type            inletOutlet;
        inletValue      uniform 0.1;
        value           nonuniform List<scalar> 
46
(
0.1
0.0143341
0.0075003
0.00942458
0.0112978
0.0129709
0.0146019
0.0162808
0.018069
0.02002
0.0221879
0.0246312
0.0274173
0.0306278
0.0343681
0.0387859
0.0441035
0.050678
0.0591258
0.0706113
0.1
0.1
0.1
0.1
0.1
0.1
0.1
0.1
0.1
0.1
0.1
0.1
0.1
0.1
0.1
0.1
0.1
0.1
0.1
0.1
0.1
0.1
0.1
0.1
0.1
0.0471539
)
;
    }
    defaultFaces
    {
        type            empty;
    }
}


// ************************************************************************* //
