/*--------------------------------*- C++ -*----------------------------------*\
  =========                 |
  \\      /  F ield         | OpenFOAM: The Open Source CFD Toolbox
   \\    /   O peration     | Website:  https://openfoam.org
    \\  /    A nd           | Version:  9
     \\/     M anipulation  |
\*---------------------------------------------------------------------------*/
FoamFile
{
    format      ascii;
    class       volScalarField;
    location    "30.6";
    object      p;
}
// * * * * * * * * * * * * * * * * * * * * * * * * * * * * * * * * * * * * * //

dimensions      [0 2 -2 0 0 0 0];

internalField   nonuniform List<scalar> 
918
(
23.4691
23.576
0.953103
22.8865
1.01725
23.0924
3.27259
13.785
19.2424
2.93428
2.62512
14.4085
20.6354
16.8768
12.993
0.924979
14.052
2.24665
18.46
1.39815
12.9922
20.4478
21.5366
19.2841
14.1212
14.372
18.5977
1.145
0.107831
0.254964
0.979314
0.410893
0.147545
21.6293
22.306
22.2443
15.495
10.4026
3.59776
3.8023
2.98307
2.80608
13.8276
13.9276
5.86721
13.7639
13.7596
16.6439
19.1104
19.254
19.5472
19.3363
19.7226
5.97412
2.78549
2.60555
2.87624
2.9506
2.98306
2.6975
2.67911
2.48273
2.33677
13.8878
14.4815
14.5367
14.2679
14.2155
22.452
21.6951
22.0298
21.1362
21.2816
20.2115
19.8259
17.2525
17.6049
16.4787
16.0979
12.7834
12.7445
13.2129
13.4627
0.145431
1.07604
1.22322
14.0589
14.0954
14.0955
14.1099
8.28299
2.18848
2.19125
17.9004
17.4769
20.4818
20.749
20.196
20.0105
1.52999
1.52592
1.15068
1.18133
0.950526
13.3335
13.4876
19.2355
18.4024
14.1548
14.0548
14.1298
11.4999
13.9101
13.9834
15.3215
15.7771
14.9663
15.4028
18.1677
17.7497
19.0343
19.4715
0.393066
0.154564
0.687585
0.318279
0.516679
15.3633
15.1579
15.6109
15.6617
15.8929
10.4074
10.338
10.3814
10.3013
4.1496
4.4642
2.25545
2.57003
2.42092
9.86603
13.9439
13.9906
4.81114
5.51548
5.17881
6.34994
6.72433
16.0096
16.4462
16.1849
17.7312
16.9361
17.2843
19.8134
19.3026
19.6031
6.3687
6.60309
5.6083
5.24956
2.23865
2.48813
2.43022
2.98193
2.95992
3.21783
3.34623
2.69854
2.55519
2.89329
2.77662
2.82876
2.16603
2.03621
13.6119
13.3979
14.1508
14.3294
15.0966
14.9483
14.6549
14.8237
19.021
19.4245
19.458
19.0738
11.5451
10.1556
13.7172
13.9927
0.302118
0.264584
0.138294
0.380922
0.400727
0.142662
2.01569
1.82719
1.4056
1.68095
14.0565
14.0163
8.52359
8.74321
8.11948
7.8633
16.3145
16.4648
17.0989
16.6987
1.96258
1.67632
1.80619
13.6507
13.5231
13.63
10.935
10.3684
11.9777
12.2475
13.9915
14.0353
14.0313
15.6812
15.9996
19.8224
20.093
19.9199
20.3057
21.3685
21.0198
20.635
14.5391
14.9475
14.7859
16.1282
15.7618
15.9813
15.1892
15.4939
15.3518
10.3697
10.416
10.1196
10.1975
10.246
10.1931
9.80325
9.67628
14.0773
14.0323
14.0564
7.2524
7.75045
4.86931
4.54049
12.5437
13.217
12.8925
18.6507
17.9731
18.7061
18.3352
17.8852
18.2087
10.4268
10.3884
10.4218
14.9171
14.2549
14.6069
2.44122
2.07699
2.24004
8.93918
9.03256
6.97118
7.5878
7.2509
16.3013
16.6416
17.3218
16.4335
16.9012
17.4085
17.1865
9.93927
10.0721
9.98896
9.65972
9.55328
9.73517
8.3357
8.94901
3.61281
4.26933
3.96526
9.20055
9.43048
9.27775
18.6301
19.165
0.76569
1.15295
19.595
19.3187
0.139216
0.242112
14.2535
12.5511
7.26265
17.1974
16.6299
18.9698
3.19264
6.10267
2.80992
3.38077
2.68648
14.6156
14.2495
13.3406
0.452852
1.25659
1.70933
2.89643
18.4105
17.7354
18.8515
19.1716
19.226
0.687493
0.91264
0.584084
1.24234
1.03101
1.27601
15.551
15.6491
4.32373
18.8585
19.1628
19.1805
17.6573
18.6099
17.6674
0.935601
0.642604
0.707476
10.0807
12.1216
14.2137
13.7663
13.9633
13.9854
13.7363
14.8696
14.5391
14.504
14.9888
13.9664
13.821
7.73444
6.38335
8.0689
7.70926
17.0987
16.6866
16.4935
16.2392
18.0849
17.611
18.4614
17.8498
18.3116
18.5985
2.94352
3.13323
3.01219
2.52085
6.14342
6.60623
5.48823
5.6338
4.25949
2.4288
2.52736
2.75359
2.58433
2.93146
2.679
2.94304
2.57939
2.32375
2.32185
2.93116
2.73894
2.60459
14.594
14.5324
14.3333
14.3713
14.3538
14.4695
13.5351
13.9398
13.5676
12.3987
12.9798
12.5071
0.825708
0.663327
0.52492
1.32404
1.35114
1.11094
0.834548
1.17364
1.20188
0.814125
1.54549
1.44522
3.15578
2.64431
8.84041
7.96817
6.9012
16.8005
17.6024
16.772
18.0128
18.4297
18.5351
18.1555
17.6473
15.7298
15.7249
15.3851
15.3385
4.77105
3.73179
4.96713
4.53621
10.4779
14.0654
11.8426
10.8038
11.1002
13.4242
13.9289
13.5812
13.7182
13.2933
12.8214
13.5133
13.0471
13.1484
12.9274
15.7178
16.193
15.7995
15.22
15.24
10.5989
12.0156
5.46564
5.63962
7.24415
6.53799
13.5098
13.9328
13.9175
13.556
13.7437
13.7449
13.6057
13.7798
13.8597
13.7543
11.8245
10.144
9.04523
9.03882
14.0767
12.3461
12.9304
12.4138
16.1205
16.6369
16.2517
15.6461
16.1311
15.6029
15.6302
15.8434
17.2015
16.9511
16.7209
17.1077
3.05489
3.00362
3.6473
3.13355
3.03668
2.8198
3.48393
4.7584
4.41612
6.71848
7.26912
4.58013
3.37282
3.79301
4.80802
5.54147
5.51132
3.96942
4.50127
4.93018
4.4407
5.22448
4.72898
2.71802
3.02529
2.86348
2.83717
3.38197
3.88038
3.3759
2.48067
2.59263
2.25677
2.11903
3.53628
2.9961
3.03288
3.67888
1.10678
1.32896
1.4412
2.41404
1.91331
1.97921
15.1826
14.8267
14.9603
14.2395
14.307
14.2481
13.8725
15.24
14.962
15.0614
13.7099
13.7967
13.6099
13.9053
14.3213
14.6205
15.4523
15.1735
14.4125
14.5635
14.2144
14.1427
13.4647
12.9017
12.8412
1.11265
0.824776
0.984177
0.910932
0.60623
0.79853
2.18342
1.57299
1.97064
1.72671
1.95998
1.40347
1.30244
4.25326
5.064
3.96397
3.36543
3.06248
8.89881
9.01034
8.15901
7.85694
8.19849
8.42723
8.37697
7.13476
7.56187
7.3749
9.91567
9.58
17.5867
17.5308
17.202
17.0431
17.2696
5.76248
7.66533
6.79922
7.91538
10.2067
10.5024
9.31098
8.70516
9.45651
9.53443
14.047
14.1232
13.5641
14.0499
14.0784
11.8351
12.8824
13.4972
13.3117
13.8315
13.9124
12.9734
13.5621
13.4775
12.7601
12.8131
12.1279
12.4664
11.9945
11.7936
14.0561
13.9508
14.2206
13.7714
14.1507
13.715
14.0303
14.0282
14.3088
13.4108
12.8321
12.8505
13.2768
12.977
13.3229
13.487
9.30856
9.94867
10.3874
10.9231
10.6304
10.4124
10.2797
10.5814
10.5582
10.8295
10.7489
10.5998
11.5606
13.416
13.701
13.8024
13.5995
13.6456
13.3382
13.6111
13.5404
13.9197
14.0075
14.0572
13.1379
13.2939
13.4887
13.3725
11.6752
10.097
9.94926
9.50927
7.57691
8.04661
11.0255
9.90234
8.91757
8.98951
12.1686
10.806
11.6194
12.0425
10.6941
10.3061
12.9713
13.7593
13.9792
13.7035
12.0603
12.1861
12.6357
13.079
13.2683
13.7239
15.8603
16.436
16.5138
16.2379
16.0999
16.1998
15.9499
16.0529
16.527
16.6536
16.4848
2.88019
2.99387
2.92392
2.84926
3.08588
2.86141
3.95647
3.94733
3.15673
3.33703
3.35701
3.46246
2.93136
2.97447
4.82649
5.06216
5.33383
4.83234
6.1755
6.81662
7.39797
7.0834
5.78988
5.86925
6.18461
3.50748
3.53355
3.25186
3.70935
3.76202
2.61159
2.23905
2.04423
2.56511
2.66648
2.05124
1.7683
1.81747
2.33194
2.05071
1.80475
14.9751
14.7334
14.7547
14.5346
14.5892
14.984
15.2048
15.0149
15.1533
15.2043
14.8035
14.6924
14.8635
1.81863
1.49371
1.62269
1.58081
1.64362
1.5498
1.73791
7.60589
6.41587
6.80334
5.97878
4.12083
4.64172
9.53902
9.96047
9.99894
9.71012
9.50004
9.86581
9.7166
9.70935
8.26347
9.33225
8.86811
9.26104
9.28242
9.35016
9.06475
9.08083
10.5845
10.6181
9.48305
10.1227
9.33143
7.93223
8.09923
9.11289
10.0865
10.4047
10.2498
9.97989
9.75128
10.1144
10.1691
10.2292
10.2184
8.75184
8.71173
8.31119
13.9687
13.8753
14.0218
14.027
14.1539
13.9788
13.8159
14.093
14.1473
13.9316
11.0776
11.1365
11.3824
12.1291
12.1811
12.0919
11.3366
13.1008
12.7564
13.3943
13.3411
13.4135
13.0037
12.8269
13.0973
10.0809
11.4538
10.9867
11.2499
10.0633
9.30689
13.2235
13.2776
13.343
13.616
13.574
14.1574
15.8302
15.7002
15.7475
15.7905
15.4022
15.4394
4.1756
3.82947
4.551
4.50658
4.0648
3.76487
2.28669
1.96877
1.78083
1.65602
1.88946
1.95061
8.1626
8.1897
6.33407
7.35563
5.87644
4.9347
4.79013
5.95571
7.13697
7.19587
8.51351
9.18967
8.7488
8.57407
7.91835
8.24795
10.1162
10.2106
10.1111
10.43
9.96277
11.7124
11.2946
11.6435
13.2574
12.9671
12.369
12.2556
12.2204
12.8134
11.9476
11.1793
11.8918
12.5472
12.5055
11.1181
10.8731
11.2998
11.2838
10.1979
10.7181
10.48
10.8325
10.5479
)
;

boundaryField
{
    wall-4
    {
        type            zeroGradient;
    }
    velocity-inlet-5
    {
        type            zeroGradient;
    }
    velocity-inlet-6
    {
        type            zeroGradient;
    }
    pressure-outlet-7
    {
        type            fixedValue;
        value           uniform 0;
    }
    wall-8
    {
        type            zeroGradient;
    }
    frontAndBackPlanes
    {
        type            empty;
    }
}


// ************************************************************************* //
