/*--------------------------------*- C++ -*----------------------------------*\
  =========                 |
  \\      /  F ield         | OpenFOAM: The Open Source CFD Toolbox
   \\    /   O peration     | Website:  https://openfoam.org
    \\  /    A nd           | Version:  9
     \\/     M anipulation  |
\*---------------------------------------------------------------------------*/
FoamFile
{
    format      ascii;
    class       volScalarField;
    location    "2";
    object      p;
}
// * * * * * * * * * * * * * * * * * * * * * * * * * * * * * * * * * * * * * //

dimensions      [0 2 -2 0 0 0 0];

internalField   nonuniform List<scalar> 
6400
(
6.59562e-06
-0.000360289
-0.00120261
-0.00231165
-0.00348434
-0.0045769
-0.00548827
-0.00615015
-0.00651936
-0.00657155
-0.00629636
-0.00569402
-0.00477302
-0.00354852
-0.00204144
-0.000277919
0.0017109
0.003889
0.00621552
0.00864502
0.0111278
0.0136105
0.0160371
0.0183502
0.0204924
0.0224087
0.0240481
0.0253665
0.0263287
0.0269114
0.0271051
0.0269169
0.0263723
0.0255176
0.0244224
0.023182
0.0219199
0.0207924
0.0199973
0.0197066
0.000382485
9.5918e-06
-0.000662466
-0.00151008
-0.00240275
-0.00323519
-0.00392771
-0.00442241
-0.00467977
-0.00467528
-0.00439643
-0.00384025
-0.00301151
-0.00192146
-0.000586957
0.000970022
0.00272272
0.00463977
0.00668545
0.00881987
0.0109995
0.0131776
0.0153056
0.0173337
0.0192126
0.0208955
0.0223392
0.0235073
0.0243714
0.0249136
0.0251285
0.0250248
0.0246273
0.0239779
0.0231368
0.0221826
0.0212125
0.0203409
0.0197027
0.0194158
0.00123365
0.000676637
-6.53318e-06
-0.000772632
-0.00154951
-0.00225784
-0.00283624
-0.00323887
-0.00343297
-0.00339729
-0.00312028
-0.00259841
-0.00183491
-0.000838792
0.000375768
0.00178984
0.00337998
0.00511847
0.00697343
0.00890914
0.0108864
0.0128633
0.0147958
0.0166391
0.0183489
0.019883
0.0212028
0.0222759
0.0230772
0.0235913
0.023814
0.0237538
0.0234331
0.0228888
0.0221722
0.0213488
0.0204968
0.0197059
0.0190624
0.0186244
0.00237673
0.00153009
0.000732068
-5.41014e-05
-0.000808809
-0.00147184
-0.00199809
-0.00235424
-0.00251572
-0.0024663
-0.0021971
-0.00170557
-0.000994611
-7.20162e-05
0.00104996
0.0023548
0.00382186
0.00542646
0.00713998
0.00893007
0.010761
0.0125943
0.0143893
0.0161045
0.0176986
0.0191321
0.0203691
0.0213788
0.0221375
0.0226304
0.0228528
0.0228117
0.022526
0.0220274
0.0213594
0.0205757
0.0197402
0.0189264
0.0181772
0.0174855
0.00362745
0.00244867
0.00148676
0.000629108
-0.000152762
-0.000813829
-0.00132348
-0.0016605
-0.00180876
-0.00175764
-0.00150167
-0.00103998
-0.00037581
0.000483772
0.001528
0.00274244
0.00410893
0.00560552
0.00720647
0.00888239
0.0106005
0.0123249
0.0140176
0.0156394
0.0171509
0.0185143
0.0196945
0.0206614
0.0213914
0.0218689
0.0220878
0.0220525
0.0217784
0.0212918
0.0206288
0.0198333
0.0189575
0.0180638
0.0171554
0.0161608
0.00485195
0.00332957
0.00217678
0.00121314
0.000368297
-0.000324181
-0.000845969
-0.00118677
-0.00133849
-0.00129615
-0.00105799
-0.000625162
-1.63377e-06
0.00080586
0.0017877
0.00293119
0.00422033
0.00563557
0.00715366
0.00874766
0.0103871
0.0120382
0.0136647
0.0152287
0.0166917
0.0180162
0.0191671
0.0201137
0.020831
0.0213018
0.0215175
0.0214795
0.0211991
0.0206976
0.020005
0.0191569
0.0181973
0.0171818
0.0160802
0.0147642
0.00594924
0.00408756
0.00273165
0.00164122
0.000709771
-3.74933e-05
-0.000592432
-0.000954326
-0.00112235
-0.00109685
-0.000879702
-0.000474199
0.000114813
0.000880719
0.00181481
0.00290587
0.00413977
0.00549906
0.00696263
0.00850557
0.0100991
0.0117111
0.0133063
0.0148471
0.0162952
0.0176122
0.0187621
0.0197121
0.0204353
0.0209113
0.0211286
0.0210847
0.0207869
0.020252
0.0195045
0.018574
0.0174989
0.016332
0.0150161
0.0133732
0.00684045
0.00465068
0.00308878
0.00186093
0.000829096
1.2321e-05
-0.000589679
-0.00098447
-0.00117766
-0.0011744
-0.000979906
-0.000599516
-3.89471e-05
0.000695247
0.00159514
0.00265087
0.00384997
0.00517684
0.00661224
0.00813292
0.00971155
0.0113168
0.0129139
0.0144652
0.0159313
0.0172725
0.0184503
0.0194294
0.0201794
0.0206765
0.0209049
0.020858
0.0205388
0.0199598
0.019141
0.0181077
0.0168952
0.0155568
0.0140127
0.0120417
0.00746157
0.00495693
0.00319124
0.00182186
0.000682591
-0.00021214
-0.000869663
-0.00130472
-0.00152853
-0.00155049
-0.00137878
-0.0010205
-0.000482148
0.000229853
0.00110836
0.00214477
0.00332821
0.00464477
0.00607686
0.00760268
0.00919595
0.0108259
0.0124577
0.0140528
0.0155704
0.0169683
0.0182051
0.0192417
0.0200433
0.0205815
0.0208358
0.0207947
0.0204567
0.0198298
0.0189308
0.0177815
0.0164164
0.0148917
0.0131089
0.0108068
0.00775798
0.00495146
0.00298677
0.00147583
0.000226614
-0.000749991
-0.00146736
-0.00194653
-0.00220362
-0.0022517
-0.00210151
-0.00176163
-0.00123907
-0.000540033
0.000329218
0.00136138
0.00254714
0.00387424
0.00532665
0.00688386
0.00852046
0.010206
0.011905
0.0135778
0.0151814
0.0166707
0.0180002
0.0191261
0.0200084
0.0206129
0.0209135
0.0208931
0.020545
0.0198733
0.0188912
0.0176187
0.0160904
0.0143678
0.0123358
0.00969526
0.00768079
0.00458421
0.00242651
0.000776455
-0.00058212
-0.00164128
-0.00241972
-0.00294408
-0.00323484
-0.00330826
-0.00317718
-0.00285137
-0.0023381
-0.00164314
-0.00077172
0.00027028
0.0014752
0.00283247
0.00432763
0.00594145
0.00764931
0.00942084
0.01122
0.0130054
0.0147313
0.016349
0.0178081
0.0190594
0.0200564
0.0207582
0.0211317
0.0211534
0.0208109
0.0201034
0.0190415
0.0176431
0.0159446
0.0140142
0.0117212
0.0087286
0.00718433
0.0038082
0.00146386
-0.000321344
-0.00178666
-0.00292676
-0.00376521
-0.00433376
-0.0046568
-0.00475339
-0.00463815
-0.00432166
-0.00381121
-0.00311187
-0.00222764
-0.00116277
7.68957e-05
0.00148268
0.00304181
0.00473645
0.00654282
0.00843068
0.0103632
0.0122971
0.0141837
0.0159697
0.0175996
0.0190173
0.0201688
0.0210053
0.0214853
0.0215777
0.0212632
0.020536
0.0194029
0.0178807
0.0160078
0.0138606
0.0112926
0.00792741
0.00622463
0.00257821
5.36554e-05
-0.00186189
-0.00342998
-0.00464777
-0.00554346
-0.00615359
-0.00650614
-0.00662267
-0.0065193
-0.00620713
-0.00569319
-0.00498157
-0.00407478
-0.0029752
-0.00168653
-0.000215338
0.00142763
0.00322614
0.0051575
0.00719174
0.00929129
0.011411
0.0134988
0.0154967
0.0173427
0.0189733
0.0203257
0.0213414
0.0219695
0.0221694
0.0219135
0.0211895
0.0200003
0.0183607
0.016312
0.0139393
0.0110798
0.00731468
0.00475851
0.000849962
-0.00184857
-0.00388913
-0.00555512
-0.00684615
-0.00779495
-0.00844272
-0.00882085
-0.0089532
-0.00885717
-0.00854417
-0.00802067
-0.00728953
-0.00635145
-0.0052066
-0.00385623
-0.00230433
-0.00055927
0.0013648
0.00344661
0.00565685
0.00795745
0.0103014
0.0126333
0.0148899
0.0170025
0.0188985
0.0205054
0.0217534
0.0225799
0.0229331
0.0227752
0.0220859
0.0208624
0.0191173
0.0168943
0.0142882
0.0111181
0.00691879
0.00274298
-0.00142049
-0.00428702
-0.00644702
-0.00820531
-0.00956412
-0.0105607
-0.011241
-0.0116396
-0.0117828
-0.011689
-0.0113698
-0.0108309
-0.0100737
-0.00909669
-0.00789745
-0.00647434
-0.00482831
-0.00296474
-0.000895166
0.00136122
0.00377626
0.00631187
0.00891958
0.0115405
0.0141063
0.0165406
0.0187613
0.0206842
0.0222266
0.023312
0.0238749
0.0238648
0.0232511
0.0220236
0.020191
0.017799
0.0149527
0.0114507
0.0067763
0.000134997
-0.00427719
-0.00730615
-0.00957979
-0.0114242
-0.0128442
-0.013882
-0.0145882
-0.0150011
-0.0151489
-0.0150515
-0.0147203
-0.0141604
-0.013371
-0.0123485
-0.0110872
-0.00958216
-0.00783061
-0.00583431
-0.00360138
-0.00114816
0.00149915
0.00430317
0.00721448
0.0101713
0.0130999
0.0159161
0.0185273
0.0208362
0.0227452
0.0241613
0.0250022
0.025202
0.0247162
0.0235248
0.0216305
0.0190798
0.0159885
0.0121315
0.00693476
-0.00310833
-0.00776462
-0.010951
-0.0133323
-0.0152558
-0.0167293
-0.0178001
-0.0185238
-0.0189427
-0.0190875
-0.0189792
-0.0186297
-0.0180425
-0.0172154
-0.0161416
-0.0148121
-0.0132177
-0.0113515
-0.00921068
-0.00679906
-0.00412912
-0.00122406
0.00188047
0.00513499
0.00847546
0.0118232
0.015086
0.0181602
0.020934
0.0232924
0.0251235
0.0263245
0.0268099
0.026518
0.0254149
0.0234944
0.0208021
0.0174642
0.0132284
0.00745578
-0.00703069
-0.0119282
-0.0152678
-0.0177507
-0.0197451
-0.0212625
-0.0223556
-0.0230859
-0.0234999
-0.0236315
-0.0235033
-0.0231271
-0.0225059
-0.0216351
-0.0205047
-0.0191018
-0.0174126
-0.0154249
-0.0131305
-0.0105278
-0.00762416
-0.00443856
-0.0010036
0.00263248
0.00640441
0.0102294
0.0140074
0.0176231
0.0209492
0.0238514
0.0261951
0.0278536
0.0287168
0.0287006
0.0277527
0.0258537
0.0230456
0.0194644
0.0148257
0.00841832
-0.011676
-0.0168149
-0.0203046
-0.0228825
-0.0249381
-0.026487
-0.0275884
-0.0283105
-0.0287049
-0.0288094
-0.0286487
-0.0282353
-0.0275713
-0.0266497
-0.0254572
-0.0239765
-0.0221884
-0.0200745
-0.0176202
-0.0148172
-0.0116665
-0.00818107
-0.00438889
-0.000335339
0.00391464
0.00827527
0.0126396
0.0168808
0.0208549
0.0244064
0.027375
0.029605
0.0309565
0.0313168
0.0306088
0.0287943
0.0259077
0.0220934
0.0170293
0.00992259
-0.0170895
-0.0224743
-0.0261127
-0.0287782
-0.0308828
-0.0324469
-0.0335374
-0.0342307
-0.034585
-0.034643
-0.0344324
-0.033967
-0.0332481
-0.0322666
-0.0310055
-0.0294425
-0.0275522
-0.0253093
-0.0226915
-0.0196825
-0.0162752
-0.0124748
-0.00830273
-0.00379949
0.000972374
0.00592594
0.0109487
0.015903
0.0206282
0.0249454
0.0286655
0.0315993
0.0335704
0.0344298
0.0340678
0.0324198
0.029507
0.0254792
0.0199699
0.0120946
-0.0233182
-0.0289601
-0.032748
-0.0354927
-0.03763
-0.0391868
-0.0402398
-0.0408755
-0.041161
-0.0411452
-0.0408603
-0.040322
-0.0395314
-0.0384772
-0.0371386
-0.0354876
-0.033492
-0.0311186
-0.0283361
-0.0251187
-0.0214492
-0.0173235
-0.012754
-0.00777386
-0.00244067
0.00315999
0.00891227
0.0146691
0.0202536
0.0254628
0.0300757
0.0338646
0.0366092
0.0381156
0.0382314
0.0368555
0.0339878
0.0297791
0.0238097
0.0150919
-0.0304137
-0.036333
-0.0402741
-0.0430871
-0.045235
-0.0467531
-0.0477311
-0.048269
-0.0484452
-0.0483176
-0.0479242
-0.0472836
-0.0463975
-0.0452525
-0.0438235
-0.0420765
-0.0399716
-0.0374666
-0.0345199
-0.0310945
-0.0271617
-0.0227054
-0.0177266
-0.0122485
-0.00632055
-2.38594e-05
0.00652544
0.0131735
0.0197287
0.0259641
0.0316247
0.0364392
0.0401363
0.0424663
0.0432218
0.0422525
0.0395256
0.0351859
0.0287487
0.0191101
-0.0384341
-0.0446646
-0.0487659
-0.0516325
-0.0537595
-0.0551946
-0.0560448
-0.0564285
-0.0564394
-0.0561472
-0.0555979
-0.0548147
-0.0538001
-0.0525387
-0.051001
-0.0491461
-0.0469257
-0.0442873
-0.0411776
-0.0375471
-0.0333533
-0.0285661
-0.0231726
-0.0171825
-0.0106339
-0.00359952
0.00380826
0.0114326
0.0190699
0.026471
0.033346
0.039376
0.0442306
0.0475931
0.0491859
0.0487931
0.0463339
0.0419358
0.0350336
0.0243917
-0.04745
-0.0540433
-0.0583158
-0.0612143
-0.0632749
-0.0645636
-0.0652119
-0.065363
-0.0651315
-0.0646028
-0.0638337
-0.0628532
-0.0616654
-0.0602528
-0.0585808
-0.056601
-0.0542553
-0.0514798
-0.0482083
-0.0443768
-0.0399274
-0.0348138
-0.0290061
-0.0224975
-0.015311
-0.00750622
0.000812944
0.00949173
0.0183195
0.0270278
0.0352931
0.0427463
0.0489909
0.0536305
0.0563004
0.0566976
0.0546725
0.0503185
0.0429691
0.0312367
-0.0575511
-0.0645839
-0.0690421
-0.0719388
-0.0738663
-0.0749178
-0.0752601
-0.0750708
-0.0744924
-0.0736312
-0.0725577
-0.0713081
-0.0698883
-0.0682786
-0.0664381
-0.0643097
-0.0618244
-0.0589052
-0.0554717
-0.0514437
-0.0467461
-0.041314
-0.0350983
-0.0280724
-0.0202397
-0.0116422
-0.00236939
0.00743241
0.017552
0.0277073
0.0375448
0.0466452
0.0545402
0.0607414
0.064777
0.0662314
0.0648577
0.0606912
0.0529327
0.0400173
-0.0688587
-0.0764406
-0.081101
-0.0839425
-0.0856371
-0.0863214
-0.0862127
-0.085536
-0.0844713
-0.0831517
-0.0816644
-0.0800541
-0.0783281
-0.076463
-0.0744104
-0.0721028
-0.0694582
-0.0663852
-0.0627872
-0.0585664
-0.0536289
-0.0478891
-0.0412762
-0.0337407
-0.0252625
-0.0158608
-0.00560414
0.00537716
0.0168797
0.0286164
0.0402105
0.051196
0.0610302
0.0691213
0.0748694
0.0777146
0.0772761
0.0734948
0.0653948
0.0511965
-0.0815432
-0.0898283
-0.0947045
-0.0974032
-0.0987159
-0.0988463
-0.0980853
-0.0967234
-0.0949896
-0.0930502
-0.0910119
-0.0889277
-0.0868049
-0.0846142
-0.0822969
-0.0797725
-0.076944
-0.0737033
-0.0699359
-0.0655248
-0.0603554
-0.0543202
-0.0473243
-0.0392925
-0.0301777
-0.0199707
-0.00871256
0.00349114
0.0164551
0.0298988
0.0434329
0.0565529
0.0686435
0.0790019
0.0868782
0.0915318
0.0924001
0.089278
0.0809466
0.0653557
-0.0958533
-0.105053
-0.110146
-0.112557
-0.113262
-0.112571
-0.110881
-0.108571
-0.105933
-0.103172
-0.100415
-0.0977222
-0.0950971
-0.0925002
-0.0898587
-0.0870752
-0.0840347
-0.0806099
-0.0766662
-0.0720661
-0.0666727
-0.0603551
-0.0529927
-0.0444824
-0.0347463
-0.0237425
-0.0114774
0.00197757
0.0164673
0.0317318
0.0473853
0.0628986
0.0775928
0.0906514
0.101155
0.108143
0.110809
0.108729
0.10034
0.0832332
-0.112161
-0.122561
-0.127835
-0.129717
-0.129473
-0.127577
-0.12458
-0.120978
-0.117138
-0.11331
-0.109639
-0.106184
-0.10294
-0.099851
-0.096823
-0.0937373
-0.0904565
-0.0868313
-0.0827048
-0.077917
-0.0723078
-0.0657216
-0.0580111
-0.0490434
-0.0387073
-0.0269234
-0.013657
0.00106431
0.0171291
0.0343156
0.0522617
0.0704354
0.0881118
0.104368
0.118104
0.128092
0.133211
0.132717
0.124547
0.105785
-0.131041
-0.143012
-0.148352
-0.149298
-0.147584
-0.143939
-0.139124
-0.133786
-0.12838
-0.123197
-0.11839
-0.114009
-0.110028
-0.106362
-0.10289
-0.0994643
-0.0959205
-0.0920834
-0.0877714
-0.0828004
-0.0769863
-0.0701478
-0.0621104
-0.0527102
-0.0418007
-0.0292613
-0.01501
0.00097925
0.0186533
0.0378484
0.0582526
0.0793612
0.100434
0.120462
0.138164
0.152011
0.160473
0.162352
0.15485
0.134282
-0.153398
-0.167402
-0.172515
-0.171843
-0.167865
-0.161696
-0.154383
-0.146752
-0.139348
-0.132486
-0.126311
-0.120842
-0.116014
-0.111702
-0.107743
-0.103955
-0.100139
-0.09609
-0.0915996
-0.0864581
-0.0804565
-0.0733882
-0.0650508
-0.0552493
-0.0438003
-0.0305393
-0.0153314
0.0019127
0.021213
0.042487
0.0655039
0.0898271
0.114747
0.139214
0.161785
0.180603
0.193643
0.199067
0.19298
0.170482
-0.180719
-0.197247
-0.201481
-0.198034
-0.190587
-0.180811
-0.170111
-0.15951
-0.149615
-0.140736
-0.132969
-0.126275
-0.120522
-0.115524
-0.111067
-0.10692
-0.102846
-0.0986057
-0.0939613
-0.0886769
-0.0825186
-0.0752545
-0.0666553
-0.0564948
-0.0445526
-0.0306181
-0.0144986
0.00396713
0.0248879
0.0482869
0.0740523
0.101868
0.131121
0.160796
0.189347
0.214605
0.233959
0.244711
0.241339
0.216933
-0.215527
-0.234894
-0.23685
-0.228685
-0.215948
-0.201071
-0.185863
-0.171504
-0.158602
-0.147388
-0.137855
-0.129853
-0.123153
-0.117485
-0.112565
-0.108105
-0.103823
-0.099442
-0.0946946
-0.0893183
-0.083055
-0.0756491
-0.0668455
-0.0563881
-0.0440198
-0.029483
-0.0125241
0.00709837
0.029597
0.0551269
0.0837382
0.1153
0.14939
0.185141
0.221035
0.254665
0.282812
0.301667
0.303332
0.277552
-0.262308
-0.283986
-0.28077
-0.264639
-0.243917
-0.221943
-0.200874
-0.181915
-0.165529
-0.151751
-0.140378
-0.131089
-0.123513
-0.11727
-0.111989
-0.107319
-0.102926
-0.0984966
-0.093733
-0.088348
-0.0820616
-0.0745967
-0.0656751
-0.0550133
-0.042319
-0.0272887
-0.00960584
0.0110568
0.0350291
0.0626242
0.0941006
0.129591
0.168986
0.211742
0.256589
0.301116
0.3416
0.372924
0.383883
0.358781
-0.329484
-0.350179
-0.335864
-0.306451
-0.273877
-0.24228
-0.213862
-0.189535
-0.169357
-0.152979
-0.139877
-0.129481
-0.121233
-0.114619
-0.109168
-0.104461
-0.100114
-0.0957794
-0.0911309
-0.0858611
-0.079672
-0.0722693
-0.0633556
-0.0526242
-0.0397519
-0.0243918
-0.00616645
0.0153389
0.0405801
0.0700501
0.104261
0.143695
0.188705
0.239317
0.294877
0.353444
0.411242
0.461925
0.490186
0.471956
-0.433338
-0.441973
-0.404664
-0.353544
-0.303892
-0.259797
-0.222703
-0.1926
-0.168717
-0.150059
-0.135633
-0.124541
-0.116004
-0.109356
-0.104032
-0.099545
-0.0954698
-0.0914288
-0.0870774
-0.0820936
-0.076168
-0.068995
-0.0602645
-0.0496525
-0.0368117
-0.0213595
-0.00286449
0.0191699
0.045324
0.0762802
0.112837
0.155904
0.206458
0.265402
0.333228
0.409342
0.49107
0.571748
0.632275
0.637305
-0.604337
-0.570652
-0.48845
-0.40334
-0.33015
-0.270836
-0.224452
-0.188949
-0.162123
-0.142028
-0.127067
-0.115964
-0.107712
-0.101509
-0.0967058
-0.0927701
-0.0892497
-0.0857515
-0.0819228
-0.0774369
-0.0719814
-0.0652478
-0.0569212
-0.0466696
-0.0341317
-0.0189015
-0.000508367
0.0216089
0.0481373
0.0799347
0.118088
0.163981
0.219351
0.286307
0.367182
0.464104
0.577713
0.70337
0.82195
0.88869
-0.905533
-0.747625
-0.583083
-0.449269
-0.346277
-0.27042
-0.215765
-0.176571
-0.148499
-0.128426
-0.114103
-0.103911
-0.0966614
-0.0914645
-0.087632
-0.0846143
-0.0819569
-0.07927
-0.0762068
-0.0724479
-0.0676879
-0.0616244
-0.0539476
-0.0443287
-0.032406
-0.0177678
7.20138e-05
0.0217078
0.0478912
0.079604
0.118166
0.165395
0.223833
0.29704
0.389952
0.509273
0.662229
0.850734
1.07108
1.2932
-1.51433
-0.976318
-0.650294
-0.457782
-0.328485
-0.242763
-0.186546
-0.149068
-0.123735
-0.106541
-0.094908
-0.0871148
-0.0819738
-0.0786287
-0.076434
-0.0748808
-0.0735505
-0.072084
-0.0701611
-0.0674851
-0.0637713
-0.0587363
-0.0520883
-0.0435178
-0.032683
-0.0191937
-0.00258735
0.0177056
0.0424156
0.0725183
0.109373
0.154955
0.212251
0.285936
0.383604
0.517946
0.707235
0.973646
1.38718
2.03614
-2.65469
-1.20473
-0.592958
-0.358114
-0.233532
-0.16208
-0.120978
-0.0962767
-0.0809332
-0.0714253
-0.0657559
-0.0626769
-0.061349
-0.0611645
-0.0616537
-0.0624341
-0.0631795
-0.063601
-0.0634328
-0.0624232
-0.0603264
-0.0568951
-0.0518751
-0.0449949
-0.0359592
-0.0244356
-0.0100369
0.00770367
0.0293718
0.0557362
0.0878574
0.127288
0.176466
0.239537
0.324329
0.446973
0.63917
0.970253
1.69811
3.27102
1.2252e-05
-0.000356349
-0.00120579
-0.00232027
-0.00349744
-0.00459389
-0.0055084
-0.00617261
-0.00654335
-0.00659631
-0.00632119
-0.00571827
-0.0047961
-0.0035699
-0.00206062
-0.000294475
0.00169736
0.00387881
0.00620896
0.00864228
0.011129
0.0136157
0.0160463
0.0183632
0.0205089
0.0224284
0.0240705
0.0253909
0.0263545
0.0269377
0.0271312
0.0269417
0.026395
0.0255373
0.0244383
0.0231935
0.0219267
0.0207938
0.0199926
0.0197065
0.000381021
1.02009e-05
-0.000659854
-0.0015041
-0.00239296
-0.00322192
-0.00391159
-0.00440414
-0.00466008
-0.00465484
-0.00437587
-0.00382014
-0.00299237
-0.00190376
-0.000571106
0.000983647
0.00273379
0.00464802
0.00669063
0.00882182
0.0109981
0.0131729
0.0152976
0.0173225
0.0191985
0.0208787
0.0223203
0.0234867
0.0243498
0.0248916
0.0251068
0.0250043
0.0246087
0.023962
0.0231242
0.0221739
0.0212078
0.0203394
0.0197023
0.0194203
0.0012375
0.000674564
-6.42747e-06
-0.000772391
-0.00154945
-0.0022576
-0.00283578
-0.00323823
-0.00343218
-0.00339641
-0.00311934
-0.00259746
-0.00183399
-0.00083794
0.000376521
0.00179046
0.00338046
0.00511879
0.00697358
0.00890911
0.0108862
0.0128629
0.0147953
0.0166385
0.0183481
0.0198821
0.0212018
0.0222748
0.0230761
0.0235903
0.023813
0.023753
0.0234325
0.0228883
0.0221719
0.0213487
0.0204966
0.0197057
0.0190631
0.0186231
0.00238584
0.00152416
0.00073181
-5.41579e-05
-0.000809884
-0.00147321
-0.00199962
-0.00235589
-0.00251744
-0.00246803
-0.0021988
-0.00170721
-0.000996163
-7.34565e-05
0.00104865
0.00235365
0.0038209
0.0054257
0.00713944
0.00892977
0.010761
0.0125945
0.0143898
0.0161052
0.0176996
0.0191334
0.0203706
0.0213804
0.0221393
0.0226322
0.0228547
0.0228135
0.0225277
0.0220289
0.0213606
0.0205766
0.0197402
0.0189264
0.0181809
0.0174791
0.00364137
0.00243831
0.00148651
0.000630004
-0.000152898
-0.000813979
-0.00132355
-0.00166055
-0.00180879
-0.00175763
-0.00150164
-0.00103995
-0.000375777
0.000483794
0.001528
0.00274242
0.00410888
0.00560543
0.00720636
0.00888226
0.0106003
0.0123247
0.0140175
0.0156393
0.0171508
0.0185142
0.0196944
0.0206614
0.0213914
0.0218689
0.0220878
0.0220526
0.0217785
0.0212918
0.0206289
0.0198333
0.0189567
0.0180638
0.0171629
0.0161502
0.00487062
0.00331479
0.00217621
0.00121434
0.000368149
-0.000324328
-0.000846009
-0.00118681
-0.00133852
-0.00129616
-0.00105799
-0.000625164
-1.64257e-06
0.000805839
0.00178766
0.00293113
0.00422025
0.00563546
0.00715353
0.00874752
0.0103869
0.012038
0.0136646
0.0152286
0.0166916
0.0180161
0.0191671
0.0201137
0.0208311
0.0213019
0.0215176
0.0214796
0.0211992
0.0206977
0.0200051
0.019157
0.0181963
0.0171821
0.0160917
0.0147493
0.00597248
0.00406861
0.00273074
0.00164263
0.000709524
-3.77316e-05
-0.000592547
-0.000954451
-0.00112248
-0.00109699
-0.000879837
-0.000474339
0.000114667
0.000880566
0.00181464
0.0029057
0.0041396
0.00549888
0.00696246
0.0085054
0.010099
0.011711
0.0133062
0.0148471
0.0162952
0.0176123
0.0187622
0.0197123
0.0204355
0.0209115
0.0211288
0.0210849
0.0207872
0.0202522
0.0195047
0.0185742
0.0174976
0.0163326
0.0150312
0.013354
0.00686802
0.00462783
0.00308754
0.00186256
0.00082881
1.20781e-05
-0.000589757
-0.000984554
-0.00117775
-0.0011745
-0.000980013
-0.000599634
-3.90772e-05
0.000695103
0.00159499
0.0026507
0.00384979
0.00517666
0.00661205
0.00813274
0.00971139
0.0113167
0.0129138
0.0144651
0.0159313
0.0172725
0.0184504
0.0194296
0.0201796
0.0206767
0.0209051
0.0208583
0.0205391
0.01996
0.0191413
0.018108
0.0168938
0.0155576
0.0140315
0.0120184
0.00749325
0.00493043
0.0031897
0.00182371
0.00068226
-0.000212393
-0.000869708
-0.00130476
-0.00152859
-0.00155055
-0.00137885
-0.00102059
-0.000482251
0.00022973
0.00110822
0.00214461
0.00332803
0.00464458
0.00607667
0.00760249
0.00919577
0.0108258
0.0124575
0.0140527
0.0155703
0.0169683
0.0182052
0.0192418
0.0200435
0.0205818
0.0208361
0.020795
0.0204569
0.01983
0.0189312
0.0177819
0.0164148
0.0148928
0.0131312
0.0107795
0.00779357
0.0049215
0.00298496
0.00147786
0.000226232
-0.000750264
-0.00146739
-0.00194654
-0.00220364
-0.00225173
-0.00210155
-0.00176168
-0.00123915
-0.000540135
0.000329091
0.00136123
0.00254697
0.00387406
0.00532645
0.00688366
0.00852026
0.0102058
0.0119048
0.0135777
0.0151814
0.0166707
0.0180003
0.0191262
0.0200086
0.0206132
0.0209138
0.0208934
0.0205453
0.0198736
0.0188917
0.0176192
0.0160886
0.0143692
0.0123616
0.00966383
0.00772013
0.00455098
0.00242443
0.000778673
-0.00058255
-0.00164157
-0.00241972
-0.00294406
-0.00323483
-0.00330824
-0.00317719
-0.00285139
-0.00233815
-0.00164321
-0.000771824
0.000270147
0.00147504
0.00283229
0.00432743
0.00594125
0.0076491
0.00942064
0.0112198
0.0130052
0.0147312
0.0163489
0.0178082
0.0190595
0.0200566
0.0207585
0.021132
0.0211537
0.0208112
0.0201038
0.019042
0.0176437
0.0159427
0.0140159
0.0117506
0.00869292
0.00722729
0.00377182
0.00146154
-0.000318946
-0.00178714
-0.00292706
-0.00376519
-0.00433371
-0.00465675
-0.00475334
-0.00463812
-0.00432165
-0.00381123
-0.00311191
-0.00222771
-0.00116288
7.67578e-05
0.00148251
0.00304162
0.00473625
0.00654261
0.00843047
0.010363
0.0122969
0.0141835
0.0159697
0.0175996
0.0190174
0.020169
0.0210055
0.0214856
0.0215781
0.0212636
0.0205364
0.0194036
0.0178814
0.0160057
0.0138625
0.0113258
0.0078872
0.00627111
0.00253879
5.10938e-05
-0.00185931
-0.0034305
-0.0046481
-0.00554342
-0.00615351
-0.00650605
-0.00662257
-0.00651922
-0.00620707
-0.00569316
-0.00498157
-0.00407481
-0.00297527
-0.00168664
-0.000215478
0.00142746
0.00322595
0.00515729
0.00719153
0.00929109
0.0114108
0.0134986
0.0154966
0.0173427
0.0189733
0.0203258
0.0213417
0.0219698
0.0221698
0.0219139
0.02119
0.0200011
0.0183616
0.0163097
0.0139416
0.0111171
0.00726956
0.0048084
0.000807593
-0.00185135
-0.00388638
-0.00555568
-0.00684649
-0.00779489
-0.00844261
-0.00882072
-0.00895306
-0.00885704
-0.00854406
-0.00802059
-0.00728948
-0.00635144
-0.00520663
-0.00385629
-0.00230443
-0.000559407
0.00136463
0.00344642
0.00565665
0.00795725
0.0103012
0.0126331
0.0148898
0.0170024
0.0188986
0.0205055
0.0217537
0.0225803
0.0229335
0.0227757
0.0220865
0.0208634
0.0191184
0.0168918
0.0142908
0.0111599
0.00686826
0.00279624
-0.00146574
-0.00429003
-0.0064441
-0.00820592
-0.00956447
-0.0105606
-0.0112408
-0.0116395
-0.0117826
-0.0116888
-0.0113696
-0.0108308
-0.0100736
-0.00909661
-0.00789742
-0.00647434
-0.00482835
-0.00296483
-0.000895294
0.00136106
0.00377607
0.00631168
0.00891938
0.0115404
0.0141062
0.0165405
0.0187613
0.0206843
0.0222269
0.0233124
0.0238754
0.0238655
0.0232518
0.0220248
0.0201923
0.0177963
0.0149558
0.0114975
0.00671975
0.000191725
-0.00432525
-0.00730938
-0.00957672
-0.0114248
-0.0128446
-0.0138819
-0.014588
-0.0150008
-0.0151486
-0.0150512
-0.0147201
-0.0141601
-0.0133709
-0.0123483
-0.0110871
-0.00958209
-0.00783059
-0.00583433
-0.00360145
-0.00114827
0.001499
0.004303
0.0072143
0.0101711
0.0130998
0.015916
0.0185273
0.0208364
0.0227455
0.0241617
0.0250028
0.0252027
0.024717
0.0235262
0.021632
0.0190769
0.015992
0.012184
0.00687148
-0.00304856
-0.00781551
-0.0109545
-0.0133291
-0.0152565
-0.0167297
-0.0178
-0.0185236
-0.0189424
-0.0190872
-0.0189789
-0.0186293
-0.0180422
-0.0172151
-0.0161413
-0.0148119
-0.0132175
-0.0113514
-0.00921062
-0.00679906
-0.00412917
-0.00122415
0.00188034
0.00513484
0.0084753
0.0118231
0.015086
0.0181602
0.0209341
0.0232927
0.0251239
0.0263252
0.0268108
0.026519
0.0254165
0.0234962
0.020799
0.0174683
0.0132871
0.00738494
-0.00696774
-0.0119819
-0.0152715
-0.0177473
-0.0197458
-0.0212629
-0.0223554
-0.0230856
-0.0234996
-0.0236311
-0.0235029
-0.0231267
-0.0225055
-0.0216347
-0.0205044
-0.0191015
-0.0174123
-0.0154247
-0.0131303
-0.0105277
-0.00762412
-0.00443858
-0.00100367
0.00263237
0.00640428
0.0102292
0.0140073
0.0176231
0.0209493
0.0238517
0.0261957
0.0278544
0.0287178
0.0287018
0.0277546
0.0258558
0.0230422
0.0194691
0.0148916
0.00833896
-0.0116098
-0.0168715
-0.0203086
-0.022879
-0.0249389
-0.0264875
-0.0275883
-0.0283102
-0.0287045
-0.0288089
-0.0286482
-0.0282348
-0.0275707
-0.0266492
-0.0254568
-0.0239761
-0.022188
-0.0200741
-0.0176199
-0.014817
-0.0116664
-0.00818101
-0.00438889
-0.000335395
0.00391455
0.00827516
0.0126395
0.0168808
0.0208551
0.0244068
0.0273755
0.0296059
0.0309577
0.0313182
0.030611
0.0287968
0.0259041
0.0220987
0.0171031
0.00983365
-0.0170199
-0.0225338
-0.0261171
-0.0287747
-0.0308837
-0.0324474
-0.0335372
-0.0342303
-0.0345845
-0.0346424
-0.0344318
-0.0339664
-0.0332474
-0.032266
-0.0310049
-0.0294419
-0.0275517
-0.0253088
-0.0226912
-0.0196822
-0.0162749
-0.0124746
-0.00830265
-0.00379948
0.000972323
0.00592586
0.0109487
0.015903
0.0206283
0.0249457
0.0286661
0.0316002
0.0335717
0.0344314
0.0340704
0.0324228
0.0295031
0.0254855
0.0200529
0.0119949
-0.0232451
-0.0290228
-0.0327528
-0.0354891
-0.0376311
-0.0391874
-0.0402396
-0.0408751
-0.0411604
-0.0411445
-0.0408596
-0.0403212
-0.0395306
-0.0384764
-0.0371378
-0.0354869
-0.0334913
-0.031118
-0.0283356
-0.0251182
-0.0214489
-0.0173233
-0.0127539
-0.00777379
-0.00244068
0.00315992
0.00891219
0.0146691
0.0202536
0.025463
0.0300763
0.0338656
0.0366107
0.0381176
0.0382345
0.0368591
0.0339837
0.0297865
0.0239029
0.0149801
-0.0303367
-0.0363994
-0.0402794
-0.0430835
-0.0452362
-0.0467537
-0.0477308
-0.0482685
-0.0484445
-0.0483167
-0.0479232
-0.0472827
-0.0463966
-0.0452516
-0.0438226
-0.0420757
-0.0399709
-0.0374659
-0.0345193
-0.0310939
-0.0271612
-0.022705
-0.0177264
-0.0122484
-0.00632054
-2.3936e-05
0.00652531
0.0131734
0.0197287
0.0259643
0.0316253
0.0364402
0.0401379
0.0424685
0.0432254
0.0422567
0.0395213
0.0351946
0.0288536
0.0189847
-0.0383527
-0.0447352
-0.0487719
-0.0516289
-0.0537609
-0.0551952
-0.0560445
-0.0564278
-0.0564385
-0.0561461
-0.0555968
-0.0548136
-0.053799
-0.0525377
-0.051
-0.0491452
-0.0469249
-0.0442865
-0.0411769
-0.0375465
-0.0333528
-0.0285658
-0.0231724
-0.0171824
-0.0106339
-0.00359964
0.00380805
0.0114323
0.0190698
0.026471
0.0333464
0.0393769
0.0442322
0.0475955
0.0491901
0.0487981
0.0463295
0.041946
0.0351517
0.0242509
-0.0473632
-0.0541191
-0.0583228
-0.0612108
-0.0632766
-0.0645643
-0.0652114
-0.0653621
-0.0651303
-0.0646015
-0.0638324
-0.0628519
-0.0616641
-0.0602516
-0.0585797
-0.0566
-0.0542544
-0.0514789
-0.0482076
-0.0443762
-0.0399269
-0.0348134
-0.0290058
-0.0224975
-0.0153111
-0.00750645
0.000812578
0.00949129
0.0183191
0.0270276
0.0352932
0.042747
0.0489924
0.053633
0.056305
0.0567035
0.0546679
0.0503308
0.0431024
0.0310788
-0.0574577
-0.0646663
-0.0690503
-0.0719356
-0.0738683
-0.0749185
-0.0752595
-0.0750696
-0.0744909
-0.0736296
-0.0725561
-0.0713065
-0.0698869
-0.0682773
-0.0664369
-0.0643086
-0.0618234
-0.0589044
-0.055471
-0.0514431
-0.0467456
-0.0413137
-0.0350982
-0.0280724
-0.0202399
-0.0116426
-0.00237002
0.00743165
0.0175511
0.0277066
0.0375444
0.0466454
0.0545414
0.0607439
0.0647821
0.0662382
0.0648532
0.0607059
0.0530835
0.0398399
-0.0687568
-0.0765319
-0.081111
-0.0839394
-0.0856395
-0.0863221
-0.0862117
-0.0855344
-0.0844694
-0.0831497
-0.0816625
-0.0800523
-0.0783265
-0.0764616
-0.0744092
-0.0721017
-0.0694573
-0.0663845
-0.0627866
-0.058566
-0.0536286
-0.047889
-0.0412762
-0.0337409
-0.025263
-0.0158615
-0.00560515
0.00537592
0.0168783
0.028615
0.0402094
0.0511956
0.0610307
0.0691235
0.0748748
0.0777223
0.0772715
0.0735126
0.0655661
0.0509971
-0.0814302
-0.0899316
-0.094717
-0.0974003
-0.0987184
-0.0988467
-0.0980837
-0.0967211
-0.0949871
-0.0930477
-0.0910096
-0.0889257
-0.0868032
-0.0846127
-0.0822958
-0.0797716
-0.0769433
-0.0737028
-0.0699355
-0.0655246
-0.0603554
-0.0543204
-0.0473247
-0.0392932
-0.0301786
-0.0199719
-0.00871411
0.00348926
0.016453
0.0298964
0.0434307
0.0565512
0.0686429
0.0790032
0.0868834
0.0915403
0.0923955
0.0892999
0.0811422
0.0651311
-0.0957254
-0.105173
-0.110162
-0.112554
-0.113265
-0.112571
-0.110878
-0.108568
-0.105929
-0.103168
-0.100412
-0.09772
-0.0950954
-0.0924989
-0.0898577
-0.0870745
-0.0840343
-0.0806097
-0.0766662
-0.0720663
-0.0666731
-0.0603557
-0.0529935
-0.0444835
-0.0347478
-0.0237443
-0.0114796
0.00197483
0.0164641
0.0317282
0.0473816
0.0628953
0.0775903
0.090651
0.10116
0.108152
0.110804
0.108756
0.100565
0.0829796
-0.112013
-0.122705
-0.127856
-0.129713
-0.129475
-0.127576
-0.124576
-0.120973
-0.117134
-0.113306
-0.109635
-0.106182
-0.102939
-0.0998498
-0.0968223
-0.0937369
-0.0904565
-0.0868315
-0.0827053
-0.0779176
-0.0723087
-0.0657227
-0.0580124
-0.049045
-0.0387093
-0.0269259
-0.0136601
0.00106055
0.0171246
0.0343104
0.0522559
0.0704296
0.0881066
0.104365
0.118106
0.1281
0.133205
0.13275
0.12481
0.105497
-0.130865
-0.143192
-0.148378
-0.149293
-0.147584
-0.143935
-0.139117
-0.133779
-0.128374
-0.123192
-0.118386