/*--------------------------------*- C++ -*----------------------------------*\
  =========                 |
  \\      /  F ield         | OpenFOAM: The Open Source CFD Toolbox
   \\    /   O peration     | Website:  https://openfoam.org
    \\  /    A nd           | Version:  9
     \\/     M anipulation  |
\*---------------------------------------------------------------------------*/
FoamFile
{
    format      ascii;
    class       volScalarField;
    location    "5.57";
    object      k;
}
// * * * * * * * * * * * * * * * * * * * * * * * * * * * * * * * * * * * * * //

dimensions      [0 2 -2 0 0 0 0];

internalField   nonuniform List<scalar> 
2268
(
0.000247551
0.000592406
0.000858531
0.00106516
0.00123404
0.00137611
0.00149805
0.00160405
0.00169677
0.00177794
0.00185016
0.00191803
0.00197801
0.00202675
0.00205374
0.00203446
0.00191604
0.00170072
0.00151385
0.00138049
0.00122952
0.000989716
0.000439164
0.000524862
0.00136814
0.00192093
0.00235546
0.00271161
0.00301083
0.003267
0.00348929
0.00368393
0.00385507
0.00400541
0.00413817
0.00425239
0.00434083
0.00438505
0.00434759
0.00416712
0.0038103
0.00343842
0.00313035
0.00279208
0.0021874
0.00100005
0.000738148
0.00182481
0.00250833
0.00304681
0.00349025
0.00386334
0.00418209
0.00445761
0.00469771
0.00490789
0.00509171
0.00525217
0.00538768
0.0054892
0.00553666
0.00549455
0.00531469
0.00497688
0.00459552
0.00422639
0.00377686
0.00300389
0.00139947
0.000918716
0.00218617
0.002957
0.00356222
0.00406206
0.00448324
0.00484289
0.00515316
0.00542293
0.00565857
0.00586428
0.00604261
0.0061918
0.00630213
0.00635426
0.006318
0.00615894
0.00586438
0.00550953
0.00512803
0.00463551
0.00377031
0.00178727
0.00107527
0.00250071
0.00334242
0.00399865
0.0045409
0.00499816
0.00538851
0.00572493
0.00601712
0.00627219
0.00649483
0.00668715
0.0068477
0.00696681
0.00702693
0.00700381
0.00687442
0.0066318
0.00631968
0.00595362
0.00545681
0.00453977
0.00220673
0.0012153
0.00278576
0.00369069
0.00438993
0.00496673
0.00545293
0.00586775
0.00622502
0.00653523
0.00680609
0.00704275
0.00724732
0.00741867
0.00754778
0.00761942
0.0076148
0.0075194
0.00733077
0.00706958
0.00673628
0.00625833
0.0053285
0.00273295
0.00134403
0.00305026
0.00401418
0.00475189
0.00535824
0.00586846
0.00630333
0.00667767
0.00700274
0.0072869
0.00753572
0.00775163
0.007934
0.00807473
0.00816105
0.00817875
0.00811897
0.00798144
0.00777252
0.00748134
0.00704069
0.00616474
0.00350266
0.00146521
0.0032999
0.00432005
0.00509353
0.00572585
0.00625633
0.00670773
0.00709612
0.00743359
0.00772916
0.00798887
0.00821565
0.00840959
0.00856356
0.00866707
0.0087094
0.00868479
0.00859322
0.00843205
0.00818515
0.0077974
0.0070618
0.00487215
0.000354787
0.00103181
0.00141861
0.0016088
0.00170296
0.00174285
0.00176084
0.00178173
0.00180548
0.00176435
0.00157239
0.00134747
0.00110652
0.00116379
0.00147123
0.00141858
0.00111612
0.000786524
0.000517941
0.000725106
0.00220601
0.00297954
0.00339401
0.00360416
0.00369707
0.0037323
0.00374556
0.00372806
0.00359513
0.00326886
0.00285818
0.00245724
0.00250485
0.00289156
0.00273368
0.00222191
0.0015818
0.0008221
0.00105391
0.0028617
0.0038174
0.00432455
0.00457953
0.00469069
0.00472723
0.00472628
0.00467586
0.00449937
0.00414748
0.00372495
0.00332441
0.00332609
0.00354495
0.00331455
0.00273907
0.00198887
0.000980784
0.00140272
0.0034643
0.00450124
0.005037
0.00530146
0.00541158
0.00543843
0.00541783
0.00533752
0.00513246
0.00477279
0.00436031
0.00399048
0.00395995
0.00401909
0.00371028
0.0030835
0.00224456
0.00106798
0.00178361
0.00410138
0.00515072
0.00567164
0.00592163
0.00601718
0.00602618
0.00598175
0.0058732
0.00564702
0.00528663
0.00489204
0.0045636
0.00449572
0.00442389
0.00403223
0.00334164
0.00241304
0.00110638
0.00227631
0.00480193
0.00579962
0.00627187
0.00648984
0.00656089
0.00654591
0.00647454
0.00633891
0.00609573
0.00574216
0.00537261
0.00508022
0.00496168
0.00478798
0.00431047
0.00353653
0.00251265
0.00112226
0.00304769
0.00558535
0.00645566
0.00685279
0.00702665
0.00706635
0.00702305
0.0069226
0.00676069
0.0065039
0.00616298
0.00582109
0.0055463
0.00536912
0.00511579
0.00455339
0.00367886
0.00256668
0.00112839
0.0044489
0.00644793
0.00711205
0.00741792
0.00754099
0.00754536
0.00747111
0.00734041
0.00715265
0.0068858
0.00655727
0.0062364
0.00595881
0.00572426
0.00540478
0.00476505
0.0037912
0.00260284
0.00112455
0.0016489
0.00367304
0.00477821
0.00560527
0.0062737
0.00683065
0.00730308
0.0077093
0.00806291
0.00837393
0.00864917
0.008892
0.00910339
0.00927846
0.00941013
0.00949189
0.00952056
0.00949408
0.00939971
0.00921374
0.00890285
0.00838926
0.00734704
0.00186056
0.00411831
0.00534442
0.00625034
0.00695852
0.00753869
0.00802828
0.00844981
0.00881894
0.00914724
0.00944263
0.00970946
0.00994815
0.0101567
0.0103304
0.0104645
0.0105534
0.0105884
0.010556
0.0104459
0.0102533
0.00997818
0.00959379
0.00207235
0.00453718
0.00591697
0.00693377
0.00765651
0.00823365
0.00871856
0.00913851
0.00951134
0.00984935
0.0101609
0.0104505
0.0107177
0.0109601
0.0111751
0.0113582
0.0114995
0.0115801
0.0115906
0.0115454
0.0114421
0.0112969
0.011117
0.00230076
0.00493703
0.00655397
0.00780075
0.00844898
0.00898217
0.00942145
0.00980538
0.0101609
0.0104963
0.0108176
0.0111269
0.0114193
0.0116916
0.011945
0.0121775
0.0123703
0.0124771
0.0125124
0.0125248
0.0124835
0.0124131
0.0123127
0.00245209
0.00529561
0.00720139
0.00853731
0.00896629
0.00957616
0.0100332
0.0103961
0.0107357
0.0110728
0.0114128
0.0117479
0.0120557
0.0123356
0.0126207
0.0129222
0.0131821
0.0132721
0.0133435
0.0134005
0.0133723
0.0133463
0.0133258
0.00244597
0.00539924
0.00724633
0.00840041
0.00913611
0.00995751
0.0105363
0.0108764
0.0112015
0.0115429
0.0119003
0.012253
0.0125803
0.0128945
0.0132408
0.0136285
0.0139231
0.0139125
0.0139413
0.0139956
0.0140164
0.0140279
0.0140002
0.00236304
0.00528621
0.00720279
0.008498
0.00923466
0.0101078
0.0107121
0.0111429
0.0115293
0.0119024
0.0122821
0.0126579
0.0130112
0.013337
0.0136404
0.0139066
0.014115
0.0142163
0.0143076
0.0143813
0.0144381
0.0144742
0.0144456
0.00240834
0.00530213
0.00708859
0.00834684
0.00924332
0.0100626
0.0107177
0.0112661
0.0117477
0.0121845
0.0126026
0.0130026
0.0133697
0.013684
0.0139389
0.0141442
0.0143294
0.0144741
0.0146081
0.0147091
0.0147675
0.0147599
0.0147589
0.0024891
0.00545367
0.00711614
0.00832009
0.00926942
0.0100842
0.0107773
0.0113794
0.0119121
0.0123932
0.012838
0.0132489
0.0136158
0.0139226
0.0141657
0.0143595
0.014535
0.0146946
0.0148285
0.0149253
0.0149755
0.0149846
0.0149518
0.00257382
0.00561206
0.0072371
0.00841614
0.00936994
0.0101845
0.0108921
0.0115143
0.0120661
0.0125622
0.0130137
0.0134218
0.0137802
0.0140819
0.0143296
0.0145371
0.0147227
0.0148867
0.0150172
0.0151116
0.0151682
0.0151816
0.0151349
0.00265587
0.00576664
0.00739016
0.00856032
0.00951073
0.0103233
0.0110338
0.0116611
0.0122179
0.0127158
0.0131641
0.0135648
0.0139161
0.0142183
0.0144772
0.0147023
0.0149012
0.0150705
0.015204
0.0153019
0.0153613
0.0153717
0.0153254
0.00272957
0.00590904
0.00754312
0.008712
0.00965964
0.0104696
0.0111791
0.0118069
0.0123645
0.0128617
0.0133064
0.0137026
0.0140523
0.0143593
0.0146294
0.0148678
0.0150768
0.0152524
0.0153906
0.0154909
0.0155504
0.0155615
0.0155218
0.00280116
0.0060313
0.00768083
0.0088531
0.00980027
0.0106087
0.0113169
0.0119444
0.0125027
0.0130007
0.0134456
0.0138423
0.0141954
0.0145093
0.0147887
0.0150364
0.0152525
0.0154338
0.015577
0.0156803
0.0157413
0.0157563
0.0157256
0.00286162
0.00613806
0.00780304
0.00898021
0.00992824
0.0107362
0.0114442
0.0120725
0.0126328
0.0131338
0.0135823
0.0139839
0.0143436
0.0146656
0.0149534
0.0152089
0.0154314
0.0156185
0.0157672
0.0158755
0.0159414
0.0159638
0.0159439
0.00291303
0.00623011
0.0079105
0.00909412
0.0100448
0.0108539
0.0115628
0.0121929
0.0127566
0.0132626
0.0137175
0.0141268
0.0144952
0.0148265
0.0151234
0.0153871
0.0156169
0.0158111
0.0159672
0.0160834
0.0161583
0.0161918
0.0161852
0.00295841
0.00631022
0.00800528
0.00919632
0.0101512
0.0109631
0.0116746
0.0123082
0.0128769
0.0133896
0.0138528
0.0142718
0.0146507
0.0149929
0.0153004
0.0155741
0.0158136
0.0160175
0.0161838
0.0163114
0.0163992
0.0164473
0.0164565
0.00299929
0.00638026
0.00808893
0.00928796
0.0102484
0.0110648
0.0117809
0.0124198
0.0129954
0.0135166
0.01399
0.0144206
0.014812
0.0151671
0.0154876
0.0157741
0.0160264
0.0162434
0.0164237
0.0165663
0.0166705
0.0167362
0.0167636
0.00303598
0.00644111
0.00816235
0.00936974
0.0103369
0.0111596
0.0118823
0.0125289
0.0131135
0.0136455
0.0141312
0.0145756
0.0149818
0.0153524
0.0156888
0.0159915
0.0162602
0.0164942
0.0166924
0.0168538
0.0169778
0.0170639
0.0171118
0.00306812
0.006493
0.00822593
0.0094421
0.0104173
0.0112481
0.0119797
0.0126362
0.0132324
0.0137776
0.0142784
0.0147391
0.015163
0.0155522
0.0159079
0.0162305
0.0165198
0.016775
0.0169951
0.017179
0.0173262
0.0174357
0.0175069
0.00309502
0.00653597
0.00827992
0.00950541
0.0104899
0.0113309
0.0120736
0.0127428
0.0133533
0.0139147
0.0144334
0.0149137
0.0153587
0.0157701
0.016149
0.0164957
0.0168098
0.0170905
0.0173368
0.0175474
0.0177214
0.0178577
0.0179551
0.00311645
0.00657003
0.00832456
0.00956011
0.0105555
0.0114085
0.0121649
0.0128496
0.0134776
0.0140584
0.0145985
0.015102
0.0155718
0.0160096
0.0164162
0.0167915
0.0171352
0.0174461
0.0177232
0.0179649
0.0181699
0.0183367
0.0184639
0.00313238
0.00659518
0.00836015
0.00960678
0.0106147
0.0114821
0.0122549
0.0129581
0.0136068
0.0142106
0.0147759
0.0153068
0.0158059
0.0162746
0.0167137
0.0171228
0.0175012
0.0178476
0.0181606
0.0184384
0.0186792
0.0188811
0.0190422
0.00314209
0.00661148
0.0083872
0.00964614
0.0106685
0.0115526
0.0123446
0.0130696
0.0137426
0.0143734
0.0149682
0.015531
0.0160643
0.0165692
0.0170463
0.0174949
0.0179139
0.0183018
0.0186567
0.0189763
0.0192583
0.0195005
0.0197005
0.00314536
0.00661947
0.00840648
0.00967914
0.0107179
0.0116214
0.0124356
0.0131858
0.0138871
0.0145492
0.0151781
0.0157779
0.0163509
0.016898
0.0174193
0.0179139
0.0183804
0.0188166
0.0192202
0.0195883
0.0199182
0.0202068
0.0204513
0.00314323
0.00662034
0.00841905
0.00970686
0.0107642
0.0116897
0.0125294
0.0133085
0.0140423
0.0147402
0.0154086
0.0160511
0.01667
0.0172659
0.0178386
0.0183869
0.0189087
0.0194013
0.0198615
0.0202861
0.0206714
0.0210137
0.0213096
0.00313679
0.00661526
0.00842603
0.0097304
0.0108085
0.0117588
0.0126274
0.0134394
0.0142101
0.0149492
0.0156626
0.0163542
0.017026
0.0176785
0.018311
0.0189218
0.0195081
0.0200665
0.0205931
0.0210836
0.0215333
0.0219379
0.0222928
0.00312679
0.0066052
0.00842837
0.00975078
0.0108519
0.01183
0.012731
0.0135802
0.0143928
0.0151784
0.0159433
0.0166912
0.017424
0.0181419
0.0188439
0.0195275
0.0201894
0.0208251
0.0214295
0.021997
0.022522
0.0229988
0.023422
0.00311368
0.00659074
0.00842674
0.00976876
0.0108954
0.0119044
0.0128417
0.0137325
0.0145921
0.0154305
0.0162538
0.017066
0.0178689
0.0186626
0.0194455
0.0202145
0.0209652
0.0216918
0.0223878
0.0230459
0.023659
0.0242197
0.0247216
0.00309728
0.00657174
0.00842129
0.00978477
0.0109395
0.0119828
0.0129603
0.0138975
0.0148098
0.0157074
0.016597
0.0174825
0.018366
0.0192475
0.0201249
0.0209942
0.0218497
0.0226839
0.0234882
0.0242533
0.0249697
0.0256282
0.0262209
0.00307536
0.00654689
0.00841158
0.00979882
0.0109845
0.0120656
0.0130876
0.0140761
0.015047
0.016011
0.0169752
0.0179443
0.0189204
0.0199037
0.0208916
0.0218793
0.0228591
0.0238214
0.0247546
0.0256466
0.0264847
0.0272572
0.0279544
0.00304668
0.00651469
0.00839676
0.00981046
0.0110303
0.0121528
0.0132236
0.0142685
0.0153042
0.0163421
0.0173902
0.018454
0.0195366
0.0206381
0.0217559
0.0228837
0.0240118
0.0251274
0.0262151
0.0272582
0.0282401
0.0291456
0.0299626
0.00301643
0.00647119
0.00837414
0.009818
0.0110758
0.0122437
0.0133678
0.0144744
0.0155812
0.0167008
0.0178426
0.0190137
0.0202182
0.0214572
0.0227278
0.0240222
0.0253282
0.0266283
0.0279019
0.0291263
0.0302788
0.0313395
0.0322935
0.00298008
0.00641749
0.00834307
0.00982039
0.0111199
0.0123374
0.0135192
0.0146927
0.0158767
0.0170859
0.0183317
0.0196234
0.0209672
0.0223656
0.0238159
0.025309
0.0268289
0.0283525
0.0298516
0.0312947
0.0326507
0.033893
0.0350028
0.00293662
0.00635328
0.00830206
0.00981594
0.0111611
0.0124323
0.0136762
0.0149212
0.0161882
0.0174943
0.0188542
0.0202803
0.0217821
0.0233644
0.0250256
0.0267552
0.0285331
0.0303287
0.032103
0.0338124
0.0354132
0.0368689
0.0381557
0.00288354
0.00627426
0.00824757
0.00980215
0.0111976
0.0125269
0.0138366
0.0151569
0.0165114
0.0179207
0.0194037
0.0209776
0.0226564
0.0244488
0.0263555
0.0283654
0.0304539
0.0325813
0.0346947
0.0367323
0.0386314
0.0403401
0.0418274
0.00281479
0.0061711
0.00817361
0.00977605
0.0112281
0.0126198
0.0139981
0.0153959
0.0168403
0.0183567
0.0199697
0.0217026
0.023576
0.0256044
0.0277927
0.0301312
0.0325915
0.0351245
0.0376595
0.0401089
0.0423794
0.0443923
0.0461067
0.00271985
0.00603088
0.00807334
0.00973573
0.0112525
0.0127104
0.0141583
0.0156328
0.0171663
0.0187903
0.0205363
0.0224354
0.0245166
0.026803
0.0293066
0.0320225
0.0349228
0.0379508
0.0410168
0.0439968
0.0467448
0.0491312
0.0511013
0.00258388
0.0058396
0.00794211
0.00968282
0.0112736
0.0127996
0.0143142
0.0158608
0.0174785
0.0192056
0.0210817
0.0231471
0.0254412
0.0279983
0.0308421
0.0339783
0.0373877
0.0410164
0.0447608
0.04845
0.0518435
0.0546991
0.056949
0.00247012
0.0056002
0.00778405
0.00962549
0.0112979
0.0128888
0.0144624
0.0160714
0.0177627
0.0195825
0.0215783
0.0238002
0.0262995
0.0291242
0.0323142
0.0358955
0.0398727
0.0442175
0.0488386
0.0535211
0.0578555
0.061308
0.0638339
0.00387709
0.00547669
0.0076225
0.00957729
0.0113326
0.0129779
0.0145963
0.0162528
0.0180024
0.0198979
0.0219943
0.0243509
0.0270304
0.0300961
0.0336085
0.0376231
0.0421908
0.0473518
0.0530973
0.0592405
0.0651192
0.0693013
0.072004
0.0179213
0.00668601
0.00748101
0.00953884
0.0113764
0.0130592
0.0147039
0.01639
0.0181788
0.0201278
0.0222971
0.0247533
0.0275687
0.0308203
0.0345892
0.0389664
0.0440678
0.0500577
0.0571512
0.0654829
0.0744041
0.0792478
0.081762
0.0840431
0.0143349
0.00755217
0.00950907
0.0114128
0.0131127
0.0147667
0.0164656
0.0182737
0.0202501
0.0224579
0.0249674
0.0278564
0.0312103
0.0351242
0.0397156
0.0451581
0.0517542
0.060078
0.0712799
0.0878276
0.0919852
0.0933554
0.00522269
0.00460092
0.0045491
0.00504789
0.00921899
0.00903599
0.00895227
0.00896856
0.0109576
0.0108552
0.010763
0.0106862
0.0121848
0.0120859
0.0119822
0.0118826
0.0131782
0.0130501
0.0129349
0.0128358
0.0138575
0.0137659
0.0136674
0.0135988
0.0143814
0.0142677
0.0141834
0.0141046
0.0146794
0.0145969
0.0145081
0.0144077
0.0148766
0.0148158
0.0147446
0.0146638
0.0150615
0.0150071
0.0149464
0.014878
0.0152574
0.0152066
0.0151495
0.0150852
0.015461
0.0154142
0.0153601
0.0152987
0.0156729
0.015631
0.0155812
0.0155236
0.0159004
0.0158642
0.0158199
0.0157677
0.0161522
0.0161227
0.016085
0.0160392
0.0164354
0.0164135
0.0163832
0.0163447
0.0167558
0.0167424
0.0167204
0.01669
0.017119
0.017115
0.0171022
0.0170806
0.0175307
0.0175371
0.0175345
0.0175228
0.0179976
0.0180157
0.0180245
0.0180238
0.0185275
0.0185588
0.0185804
0.0185922
0.0191296
0.0191759
0.019212
0.0192378
0.0198151
0.0198784
0.019931
0.0199727
0.020597
0.0206796
0.020751
0.0208108
0.0214909
0.0215956
0.0216883
0.0217687
0.0225149
0.0226449
0.022762
0.0228658
0.0236908
0.0238498
0.0239946
0.0241249
0.0250439
0.0252358
0.0254121
0.0255724
0.0266042
0.0268334
0.0270452
0.0272391
0.0284067
0.028678
0.0289294
0.0291606
0.0304927
0.0308108
0.0311059
0.0313778
0.0329102
0.0332798
0.0336224
0.0339378
0.0357149
0.0361402
0.0365332
0.0368942
0.0389712
0.0394557
0.0399009
0.0403079
0.0427535
0.043299
0.0437963
0.0442474
0.0471479
0.0477539
0.0483
0.04879
0.0522566
0.052918
0.0535046
0.0540232
0.0582046
0.0589073
0.0595173
0.0600459
0.0651476
0.0658601
0.0664612
0.0669689
0.073274
0.0739339
0.0744704
0.074909
0.0827813
0.083281
0.0836685
0.0839736
0.0937892
0.093984
0.0941262
0.0942336
0.00700928
0.00774494
0.0080931
0.00826151
0.00830642
0.00825638
0.00813409
0.00795655
0.0077301
0.00745032
0.0071352
0.00682478
0.00651937
0.00620325
0.00578801
0.00504586
0.00396519
0.00268227
0.00111167
0.00910563
0.00923943
0.00931718
0.00933556
0.00928212
0.00915901
0.00897282
0.00873687
0.00846214
0.00815482
0.00782227
0.00747801
0.00711698
0.00671666
0.0062006
0.00540948
0.00431832
0.00297715
0.00117635
0.0105807
0.0104844
0.0104127
0.0103317
0.0101964
0.0100084
0.00976129
0.00947328
0.00915625
0.00881468
0.00845464
0.00807721
0.00767034
0.00720694
0.00663203
0.00587368
0.0048993
0.00360117
0.00148498
0.011724
0.0115389
0.0113977
0.0112668
0.0110525
0.0108179
0.0105073
0.0101655
0.00981075
0.00944201
0.00906191
0.00866648
0.00823058
0.00772811
0.00713951
0.00648452
0.00573789
0.00456333
0.00212809
0.012677
0.0124512
0.0122795
0.0121063
0.0118396
0.0115904
0.011194
0.0107846
0.0103932
0.010003
0.00959677
0.0091751
0.00872817
0.00822881
0.00763569
0.00708681
0.00648634
0.00537377
0.00326203
0.0134752
0.0132279
0.0130548
0.0128377
0.0124871
0.0121873
0.0117506
0.0113036
0.0108717
0.0104469
0.0100089
0.00953054
0.00903218
0.00849892
0.00793826
0.00737443
0.00661619
0.00523963
0.00304466
0.0139505
0.0136981
0.0135335
0.0134002
0.0129866
0.0126573
0.0122217
0.0117599
0.0112982
0.01083
0.0103381
0.00981229
0.00928341
0.00873208
0.00813686
0.00755838
0.00681655
0.00490644
0.00259244
0.0142422
0.0140068
0.0138012
0.0136006
0.0132756
0.0129332
0.0125477
0.0121149
0.0116432
0.0111421
0.0106078
0.0100388
0.00944727
0.00883614
0.00817421
0.00748202
0.00660312
0.00485644
0.00234642
0.0145151
0.0142744
0.0140307
0.0137677
0.013449
0.0131021
0.0127369
0.0123266
0.0118462
0.0113265
0.0107783
0.0101871
0.00954962
0.00887636
0.00813835
0.00732572
0.00634317
0.0048113
0.00229645
0.0147488
0.0145152
0.0142564
0.0139751
0.0136527
0.013289
0.0129065
0.0124805
0.0119823
0.0114477
0.0108759
0.010257
0.00959351
0.0088725
0.00807251
0.0071843
0.00614856
0.00473691
0.002297
0.0149651
0.0147441
0.0144878
0.0142057
0.0138827
0.0135055
0.0130954
0.0126427
0.0121351
0.011584
0.0109781
0.0103171
0.00960501
0.00882761
0.00797453
0.0070293
0.00594229
0.00453631
0.0021872
0.015184
0.0149758
0.0147291
0.0144494
0.0141241
0.0137401
0.0133133
0.0128481
0.0123321
0.011761
0.0111309
0.0104363
0.0096711
0.00882417
0.00788959
0.00685243
0.00567996
0.00421121
0.00197593
0.0154155
0.0152205
0.0149849
0.014708
0.0143805
0.0139959
0.013566
0.0130961
0.0125729
0.0119931
0.0113538
0.0106409
0.00984117
0.00894248
0.007934
0.00679805
0.00551529
0.00395941
0.00191228
0.0156682
0.0154865
0.0152626
0.0149914
0.0146662
0.0142855
0.0138581
0.0133866
0.0128622
0.0122815
0.0116411
0.0109237
0.0101127
0.0091996
0.00817243
0.00700769
0.00567707
0.00405714
0.0018915
0.01595
0.015782
0.0155699
0.0153079
0.0149902
0.0146172
0.0141948
0.0137247
0.0132017
0.012622
0.0119815
0.0112664
0.0104624
0.00956298
0.00855866
0.00742691
0.00612547
0.00450669
0.00205849
0.0162671
0.0161137
0.015914
0.0156632
0.0153564
0.0149938
0.0145788
0.0141126
0.0135923
0.013014
0.0123735
0.0116613
0.0108675
0.00998653
0.00901084
0.00791844
0.00664984
0.00502557
0.00234299
0.0166252
0.0164878
0.0163019
0.0160637
0.0157696
0.0154188
0.015013
0.0145527
0.0140358
0.0134592
0.0128187
0.0121078
0.0113193
0.010448
0.00948569
0.00840796
0.00714499
0.00548521
0.00257478
0.01703
0.0169104
0.0167402
0.0165163
0.016236
0.0158979
0.0155022
0.0150488
0.014536
0.0139609
0.0133199
0.0126074
0.0118177
0.0109446
0.00997733
0.00888746
0.00759627
0.00586461
0.00275619
0.0174881
0.0173884
0.017236
0.0170283
0.0167628
0.0164379
0.0160529
0.0156069
0.0150983
0.0145243
0.0138813
0.0131643
0.0123672
0.0114821
0.0104947
0.00937097
0.00802314
0.00618998
0.00291004
0.0180068
0.0179298
0.0177976
0.0176079
0.0173584
0.0170474
0.0166734
0.016235
0.0157303
0.0151565
0.0145098
0.013785
0.0129753
0.0120706
0.0110523
0.0098805
0.0084575
0.00650195
0.00306426
0.0185952
0.0185436
0.0184342
0.0182646
0.0180327
0.0177363
0.0173736
0.0169428
0.0164416
0.0158667
0.0152143
0.0144787
0.013652
0.0127222
0.011667
0.0104411
0.00893831
0.0068584
0.00325208
0.0192635
0.0192408
0.019157
0.0190099
0.0187971
0.0185164
0.0181656
0.0177423
0.0172437
0.0166665
0.0160061
0.0152565
0.014409
0.01345
0.012355
0.0110758
0.00950298
0.00732886
0.00349954
0.0200241
0.0200339
0.019979
0.019857
0.0196654
0.0194017
0.0190633
0.0186474
0.0181509
0.0175697
0.0168989
0.0161321
0.0152597
0.0142673
0.0131297
0.0117983
0.0101656
0.00792344
0.00380389
0.0208913
0.020938
0.0209157
0.0208218
0.0206535
0.0204083
0.0200832
0.0196748
0.0191795
0.0185928
0.017909
0.0171211
0.016219
0.0151877
0.014002
0.0126135
0.0109162
0.00859881
0.00414872
0.0218823
0.0219706
0.0219849
0.0219223
0.02178
0.0215551
0.0212443
0.0208438
0.0203491
0.0197551
0.0190555
0.0182421
0.0173044
0.0162267
0.0149832
0.0135252
0.0117435
0.00930904
0.00455039
0.023017
0.0231522
0.0232074
0.0231797
0.0230662
0.0228637
0.0225685
0.0221764
0.0216821
0.0210795
0.0203612
0.0195181
0.0185383
0.0174051
0.0160915
0.0145466
0.0126542
0.0100536
0.00495615
0.0243185
0.0245062
0.024607
0.024618
0.0245363
0.0243586
0.0240808
0.0236981
0.0232043
0.0225922
0.0218528
0.0209754
0.0199464
0.0187471
0.0173481
0.0156946
0.01366
0.0108449
0.00533335
0.0258137
0.0260599
0.0262111
0.0262646
0.0262178
0.0260674
0.025809
0.0254371
0.0249446
0.0243225
0.0235601
0.0226443
0.0215587
0.0202817
0.01878
0.0169929
0.0147799
0.0116983
0.00567422
0.0275336
0.0278441
0.0280502
0.0281498
0.0281409
0.0280204
0.0277837
0.0274247
0.0269348
0.0263034
0.0255171
0.0245596
0.0234108
0.0220445
0.0204221
0.0184748
0.0160463
0.0126494
0.00603331
0.0295136
0.0298938
0.0301586
0.0303074
0.0303389
0.0302506
0.0300381
0.0296944
0.0292097
0.0285709
0.0277614
0.0267609
0.0255441
0.0240785
0.0223181
0.0201844
0.0175046
0.0137474
0.00647875
0.0317942
0.0322482
0.0325744
0.032774
0.0328476
0.0327936
0.0326077
0.0322825
0.0318066
0.0311642
0.030335
0.0292931
0.0280064
0.0264344
0.0245211
0.0221757
0.0192073
0.0150375
0.0070203
0.0344211
0.0349513
0.0353394
0.03559
0.0357059
0.0356872
0.0355304
0.0352275
0.0347654
0.0341257
0.0332833
0.0322058
0.0308526
0.029172
0.0270948
0.024514
0.0212157
0.0165654
0.00765309
0.0374463
0.0380516
0.0384993
0.0387985
0.0389552
0.038972
0.0388462
0.0385697
0.0381283
0.0375001
0.0366551
0.0355536
0.0341442
0.0323609
0.0301161
0.0272802
0.0236077
0.0183936
0.00840194
0.0409275
0.041603
0.0421041
0.0424462
0.0426399
0.0426905
0.042597
0.0423517
0.0419389
0.0413341
0.0405023
0.0393954
0.0379495
0.0360808
0.033677
0.0305758
0.026487
0.0206157
0.00933911
0.0449294
0.0456643
0.0462078
0.0465835
0.0468074
0.0468884
0.0468276
0.0466177
0.0462428
0.0456761
0.0448779
0.0437922
0.0423417
0.0404213
0.0378862
0.034528
0.0299902
0.0233568
0.0105349
0.0495236
0.0502999
0.0508691
0.0512646
0.0515089
0.0516147
0.0515853
0.0514147
0.0510872
0.0505749
0.0498353
0.0488056
0.047396
0.0454781
0.0428681
0.0392931
0.0342964
0.0267828
0.0120507
0.054789
0.0555798
0.0561515
0.0565487
0.0568004
0.0569229
0.0569218
0.0567929
0.0565214
0.0560803
0.0554264
0.0544939
0.0531837
0.0513472
0.0487575
0.0450591
0.0396448
0.0311361
0.0139893
0.0608125
0.0615797
0.0621241
0.0625009
0.0627442
0.0628731
0.062895
0.0628075
0.0625982
0.0622427
0.0617007
0.0609084
0.0597655
0.0581119
0.0556852
0.052039
0.0463572
0.036799
0.0165445
0.0676883
0.0683816
0.0688628
0.0691939
0.0694112
0.0695342
0.0695714
0.069522
0.0693766
0.0691156
0.0687054
0.0680911
0.0671821
0.0658254
0.0637487
0.0604389
0.0548433
0.0444013
0.0201266
0.0755134
0.0760723
0.0764515
0.0767111
0.0768841
0.0769879
0.0770302
0.0770115
0.0769258
0.0767597
0.0764893
0.0760749
0.0754487
0.0744891
0.0729623
0.0703724
0.0655284
0.0549654
0.0254804
0.0843811
0.0847433
0.0849847
0.0851498
0.0852619
0.0853329
0.0853682
0.0853687
0.0853315
0.0852496
0.0851104
0.0848925
0.0845593
0.0840425
0.0832016
0.0817005
0.0785557
0.069907
0.0339052
0.0943727
0.0944928
0.0945723
0.0946271
0.0946651
0.0946906
0.0947052
0.0947096
0.0947031
0.0946841
0.0946497
0.0945951
0.0945125
0.0943884
0.0941959
0.0938609
0.0930787
0.0897416
0.0471458
)
;

boundaryField
{
    leftWall
    {
        type            kqRWallFunction;
        value           nonuniform List<scalar> 
50
(
0.000247551
0.000524862
0.000738148
0.000918716
0.00107527
0.0012153
0.00134403
0.00146521
0.0016489
0.00186056
0.00207235
0.00230076
0.00245209
0.00244597
0.00236304
0.00240834
0.0024891
0.00257382
0.00265587
0.00272957
0.00280116
0.00286162
0.00291303
0.00295841
0.00299929
0.00303598
0.00306812
0.00309502
0.00311645
0.00313238
0.00314209
0.00314536
0.00314323
0.00313679
0.00312679
0.00311368
0.00309728
0.00307536
0.00304668
0.00301643
0.00298008
0.00293662
0.00288354
0.00281479
0.00271985
0.00258388
0.00247012
0.00387709
0.0179213
0.0840431
)
;
    }
    rightWall
    {
        type            kqRWallFunction;
        value           nonuniform List<scalar> 
50
(
0.000517941
0.0008221
0.000980784
0.00106798
0.00110638
0.00112226
0.00112839
0.00112455
0.00111167
0.00117635
0.00148498
0.00212809
0.00326203
0.00304466
0.00259244
0.00234642
0.00229645
0.002297
0.0021872
0.00197593
0.00191228
0.0018915
0.00205849
0.00234299
0.00257478
0.00275619
0.00291004
0.00306426
0.00325208
0.00349954
0.00380389
0.00414872
0.00455039
0.00495615
0.00533335
0.00567422
0.00603331
0.00647875
0.0070203
0.00765309
0.00840194
0.00933911
0.0105349
0.0120507
0.0139893
0.0165445
0.0201266
0.0254804
0.0339052
0.0471458
)
;
    }
    lowerWall
    {
        type            kqRWallFunction;
        value           nonuniform List<scalar> 
62
(
0.000247551
0.000592406
0.000858531
0.00106516
0.00123404
0.00137611
0.00149805
0.00160405
0.00169677
0.00177794
0.00185016
0.00191803
0.00197801
0.00202675
0.00205374
0.00203446
0.00191604
0.00170072
0.00151385
0.00138049
0.00122952
0.000989716
0.000439164
0.000439164
0.00100005
0.00139947
0.00178727
0.00220673
0.00273295
0.00350266
0.00487215
0.00522269
0.00460092
0.0045491
0.00504789
0.000354787
0.000725106
0.00105391
0.00140272
0.00178361
0.00227631
0.00304769
0.0044489
0.000354787
0.00103181
0.00141861
0.0016088
0.00170296
0.00174285
0.00176084
0.00178173
0.00180548
0.00176435
0.00157239
0.00134747
0.00110652
0.00116379
0.00147123
0.00141858
0.00111612
0.000786524
0.000517941
)
;
    }
    atmosphere
    {
        type            inletOutlet;
        inletValue      uniform 0.1;
        value           nonuniform List<scalar> 
46
(
0.1
0.0143349
0.00755217
0.00950907
0.0114128
0.0131127
0.0147667
0.0164656
0.0182737
0.0202501
0.0224579
0.0249674
0.0278564
0.0312103
0.0351242
0.0397156
0.0451581
0.0517542
0.060078
0.0712799
0.1
0.1
0.1
0.1
0.1
0.1
0.1
0.1
0.1
0.1
0.1
0.1
0.1
0.1
0.1
0.1
0.1
0.1
0.1
0.1
0.1
0.1
0.1
0.1
0.1
0.0471458
)
;
    }
    defaultFaces
    {
        type            empty;
    }
}


// ************************************************************************* //
