/*--------------------------------*- C++ -*----------------------------------*\
  =========                 |
  \\      /  F ield         | OpenFOAM: The Open Source CFD Toolbox
   \\    /   O peration     | Website:  https://openfoam.org
    \\  /    A nd           | Version:  9
     \\/     M anipulation  |
\*---------------------------------------------------------------------------*/
FoamFile
{
    format      ascii;
    class       volScalarField;
    location    "1.36";
    object      p_rgh;
}
// * * * * * * * * * * * * * * * * * * * * * * * * * * * * * * * * * * * * * //

dimensions      [1 -1 -2 0 0 0 0];

internalField   nonuniform List<scalar> 
2268
(
955.344
959.612
964.563
969.963
974.735
978.483
981.121
982.754
983.639
984.115
984.473
984.826
984.828
984.038
981.89
978.04
974.299
970.91
968.759
968.776
971.704
978.2
989.368
954.423
958.169
962.356
967.05
971.353
974.903
977.621
979.6
981.06
982.281
983.478
984.596
985.326
985.186
983.682
979.832
976.311
973.577
970.984
970.093
972.789
979.961
991.523
953.341
956.683
960.161
964.072
967.825
971.149
973.971
976.361
978.48
980.527
982.613
984.567
985.983
986.385
985.579
982.721
979.417
975.709
972.172
971.091
973.702
981.304
992.616
951.743
955.068
958.255
961.658
965.016
968.186
971.119
973.87
976.539
979.263
982.073
984.672
986.593
987.348
986.863
985.137
981.355
976.411
972.354
970.86
973.116
981.831
993.486
949.761
953.221
956.417
959.607
962.784
965.92
969.001
972.071
975.174
978.419
981.806
984.926
987.227
988.192
987.635
985.504
981.392
976.048
971.166
968.886
970.485
980.684
990.376
947.43
951.061
954.375
957.535
960.705
963.937
967.239
970.648
974.136
977.814
981.72
985.321
987.959
989.065
988.367
985.792
981.17
975.058
968.179
964.51
965.153
976.856
982.76
944.756
948.539
951.986
955.224
958.525
961.981
965.605
969.418
973.284
977.348
981.763
985.854
988.83
990.06
989.196
986.144
980.853
973.559
964.985
958.702
956.464
968.101
967.326
941.721
945.57
949.153
952.564
956.126
959.937
964.006
968.312
972.577
977.004
981.926
986.526
989.852
991.203
990.161
986.605
980.495
969.901
955.93
949.908
943.889
946.612
937.343
544.536
552.356
561.307
560.931
546.723
531.937
525.854
522.41
512.325
503.987
504.305
512.867
524.981
535.51
546.54
553.43
563.064
579.287
589.563
543.268
547.176
550.278
547.486
536.468
527.457
527.023
526.85
510.78
490.584
500.391
516.79
529.951
539.462
551.215
556.954
562.434
575.385
587.387
539.866
539.323
538.694
534.417
524.215
523.931
529.58
530.505
470.084
445.493
450.156
509.967
534.676
546.439
556.659
558.242
556.589
568.006
586.673
536.14
541.941
539.21
531.473
516.548
518.375
533.18
514.28
440.208
442.859
431.685
470.796
537.075
549.96
559.701
526.269
519.961
560.032
587.365
535.249
540.19
542.765
542.574
489.577
496.46
535.324
513.573
501.038
517.416
450.431
377.526
461.534
550.921
560.533
506.766
516.653
576.359
589.675
531.564
538.434
541.416
548.798
455.528
365.33
382.634
466.763
533.055
534.861
522.203
329.671
306.575
411.847
548.068
536.976
555.742
581.195
593.919
511.838
496.541
521.508
559.226
484.847
331.596
332.402
383.025
532.314
538.949
546.989
336.248
301.22
283.553
326.792
496.102
586.253
587.81
600.12
445.092
308.146
331.784
529.357
550.682
360.296
327.173
401.45
533.625
544.404
557.365
372.076
295.679
278.596
255.799
325.143
551.311
595.517
607.464
936.432
940.178
944.032
947.903
952.062
956.589
961.498
966.696
971.606
976.541
982.266
987.742
991.694
993.271
991.948
987.575
979.816
954.918
941.033
927.873
918.908
889.274
814.848
927.443
930.821
935.299
940.373
945.864
951.577
957.83
964.573
969.944
974.771
981.84
989.268
994.814
997.294
995.93
990.565
981.084
953.102
931.503
911.971
897.604
861.66
824.325
910.719
913.989
920.752
929.306
937.836
946.053
955.53
965.762
967.803
972.213
980.792
991.033
998.87
1002.96
1001.96
995.95
984.845
968.283
946.362
920.87
886.249
818.913
710.613
449.172
461.64
489.893
533.57
586.442
650.819
665.852
711.556
722.776
737.866
882.578
978.247
1010.11
1017.03
1016.84
1011.38
997.177
947.764
883.317
721.989
380.361
153.22
71.5856
0.131024
0.313995
0.161295
0.360124
11.6267
43.3827
130.84
356.31
456.045
243.191
270.589
416.839
636.638
767.449
757.646
699.489
562.991
296.352
41.1347
7.92004
10.8215
14.0981
16.7272
0.168352
0.166583
0.176304
0.241705
0.503649
1.48253
73.4306
192.294
238.538
142.066
98.6665
56.3592
12.7346
14.1366
8.29577
4.19357
5.00895
6.13443
7.31349
8.04542
15.3138
37.5873
37.6614
0.154424
0.154689
0.156279
0.297182
1.81064
15.5242
23.3167
0.0400973
17.5834
136.905
110.541
75.1122
6.71063
4.74176
4.7807
5.07911
5.45341
5.90129
6.65366
25.7489
39.3002
39.0343
38.9711
0.123878
0.114388
0.110014
2.45766
4.10184
1.27753
-0.0726753
-0.0048093
0.110582
35.7123
79.4959
87.2568
16.5468
4.54533
4.4921
5.89593
13.4136
11.4409
29.2423
28.8843
26.7595
9.17539
5.79163
0.0935555
0.0833268
0.0993782
0.14238
-0.0326386
-0.0395238
-0.0369819
-0.0396851
-0.065981
-0.116752
7.42965
35.7329
17.7487
4.26281
4.17236
8.48121
21.2508
21.1803
11.0872
0.883896
-0.0717041
0.0727513
0.162023
0.0670428
0.0579816
0.0590718
0.0325534
-0.0138409
-0.030669
-0.0384847
-0.0451467
-0.0646093
-0.0838609
-0.0982967
-0.12275
7.75576
4.97116
1.21914
5.07605
7.75538
7.21413
-0.144087
-0.109045
-0.0955002
-0.0475133
0.0150435
0.0459455
0.0385838
0.0278969
0.00593343
-0.0118308
-0.026686
-0.0368073
-0.044954
-0.0595458
-0.0807047
-0.0805093
-0.0308431
-0.159026
1.01261
-0.179232
-0.215856
-0.204363
-0.162561
-0.11479
-0.103564
-0.0843007
-0.0458328
-0.00110062
0.0296136
0.0225963
0.0133237
0.000241157
-0.0130024
-0.0248933
-0.0350932
-0.0448306
-0.0573002
-0.0737185
-0.0908272
-0.108692
-0.125408
-0.140344
-0.145674
-0.157244
-0.159839
-0.1455
-0.119258
-0.0977588
-0.0715872
-0.0377399
-0.00362279
0.0172485
0.010269
0.0026875
-0.0064196
-0.0160321
-0.0253311
-0.0341546
-0.0431364
-0.05355
-0.066007
-0.0794714
-0.0937317
-0.106749
-0.115138
-0.12205
-0.128571
-0.129388
-0.119575
-0.100324
-0.079373
-0.0554624
-0.0280377
-0.000604191
0.00776094
0.00086818
-0.00561064
-0.0123905
-0.0195353
-0.0267832
-0.0340204
-0.0415072
-0.0497649
-0.0590124
-0.0688879
-0.0791167
-0.0887185
-0.095463
-0.0998641
-0.102451
-0.100147
-0.0909447
-0.0757446
-0.0579092
-0.0376251
-0.0153127
0.00708659
0.00025876
-0.00620525
-0.0117619
-0.0170533
-0.02253
-0.028196
-0.033973
-0.0399204
-0.046215
-0.0529026
-0.059775
-0.0665599
-0.0726667
-0.0769746
-0.0790689
-0.0788588
-0.0748404
-0.0661981
-0.0535271
-0.0383212
-0.0211203
-0.00268839
0.0156456
-0.00576587
-0.0113632
-0.0159506
-0.0201831
-0.0245054
-0.0289833
-0.0335387
-0.0381303
-0.0427681
-0.0474092
-0.0518962
-0.0559973
-0.0593077
-0.0612239
-0.0613231
-0.0592771
-0.0543637
-0.0462345
-0.0352397
-0.022167
-0.00762548
0.00757714
0.0224108
-0.0104681
-0.01484
-0.0183581
-0.0217626
-0.025265
-0.028859
-0.0324423
-0.0359219
-0.0392276
-0.0422754
-0.0449348
-0.0470273
-0.048283
-0.0483463
-0.0469128
-0.0436962
-0.0383376
-0.0307016
-0.0210243
-0.00980842
0.00238065
0.0148051
0.0266236
-0.013764
-0.0167542
-0.019168
-0.0219097
-0.0248071
-0.0277385
-0.0305696
-0.0331794
-0.0354635
-0.0373232
-0.0386484
-0.0393095
-0.0391362
-0.0379198
-0.0354663
-0.0315939
-0.0261343
-0.0190622
-0.0105665
-0.00101506
0.00910321
0.0191529
0.0284403
-0.0156186
-0.0171634
-0.0186085
-0.0208644
-0.0232848
-0.0257041
-0.0279584
-0.0299117
-0.0314486
-0.0324696
-0.0328831
-0.0325977
-0.0315118
-0.0295123
-0.0264944
-0.0223679
-0.0170748
-0.0106516
-0.00326699
0.00478476
0.0131028
0.0211491
0.0283611
-0.0162302
-0.0164304
-0.0171422
-0.0189071
-0.0209554
-0.0229676
-0.0247758
-0.0262447
-0.0272588
-0.027725
-0.0275675
-0.0267223
-0.0251327
-0.0227461
-0.0195219
-0.0154365
-0.010498
-0.00477882
0.00156371
0.00828508
0.0150542
0.0214342
0.0269772
-0.0160452
-0.0150996
-0.0151943
-0.0165051
-0.0181776
-0.0198251
-0.021271
-0.0223805
-0.0230418
-0.0231683
-0.0226954
-0.0215774
-0.0197849
-0.0173021
-0.0141293
-0.0102856
-0.00581832
-0.000819275
0.00456305
0.0101211
0.0155847
0.0206029
0.0248289
-0.0154393
-0.0137029
-0.0132558
-0.014059
-0.0153097
-0.0165955
-0.0177236
-0.0185552
-0.0189808
-0.0189162
-0.0183034
-0.0171075
-0.0153145
-0.012929
-0.00997385
-0.00649217
-0.00255196
0.00174652
0.00626472
0.0108243
0.015204
0.0191331
0.0223414
-0.0146372
-0.0125216
-0.0115966
-0.0118495
-0.0126397
-0.0135568
-0.0143894
-0.0149921
-0.015253
-0.0150893
-0.0144452
-0.0132901
-0.0116167
-0.00943911
-0.00679109
-0.00372643
-0.000321203
0.00332415
0.00708222
0.0108009
0.014301
0.0173677
0.0198018
-0.0137499
-0.0115506
-0.0102558
-0.00999741
-0.0103365
-0.0108936
-0.0114489
-0.0118523
-0.0119896
-0.011777
-0.0111586
-0.010105
-0.0086105
-0.00669089
-0.00438291
-0.00174272
0.00115358
0.00421027
0.00731354
0.0103342
0.0131262
0.0155205
0.0173712
-0.0128178
-0.0106892
-0.00916597
-0.00850583
-0.00845332
-0.00868452
-0.00898775
-0.00921467
-0.00925158
-0.00901397
-0.00844538
-0.00751568
-0.00621775
-0.00456594
-0.00259496
-0.000358114
0.00207366
0.00461341
0.00716116
0.00960753
0.0118338
0.0137066
0.0151177
-0.0118618
-0.00987222
-0.00825169
-0.00732088
-0.00696387
-0.00692302
-0.00700878
-0.00708219
-0.0070342
-0.00678184
-0.00626882
-0.00546369
-0.00435693
-0.00295963
-0.00130204
0.000568304
0.00258837
0.00468177
0.00676212
0.00873739
0.0105109
0.0119767
0.0130533
-0.0109071
-0.00908294
-0.0074602
-0.0063747
-0.00580379
-0.00555303
-0.00546214
-0.00540752
-0.00528833
-0.00502597
-0.00456578
-0.00387541
-0.00294292
-0.00177562
-0.000398432
0.00114815
0.00281003
0.00452176
0.00620993
0.00779755
0.00920567
0.0103495
0.0111668
-0.00997845
-0.00832609
-0.00676039
-0.00560771
-0.00490211
-0.00450184
-0.00427668
-0.00412117
-0.00394468
-0.00367583
-0.00326283
-0.00267335
-0.00189371
-0.000927763
0.00020484
0.00147072
0.00282473
0.004212
0.00557102
0.00683784
0.0079479
0.00883283
0.00944457
-0.00910368
-0.00761135
-0.00613516
-0.00497555
-0.00419796
-0.00370125
-0.00338207
-0.00315156
-0.00293263
-0.00266133
-0.00228967
-0.00178659
-0.00113766
-0.000344033
0.000579302
0.00160553
0.00269777
0.00381082
0.00489383
0.00589403
0.00675872
0.0074325
0.00787755
-0.00827456
-0.00694084
-0.00557262
-0.00444642
-0.00364465
-0.00309481
-0.00271644
-0.00243695
-0.00219065
-0.00192136
-0.00158592
-0.00115564
-0.000616315
3.26964e-05
0.000780218
0.00160507
0.00247757
0.00336094
0.00421355
0.0049922
0.00565391
0.00615376
0.00646153
-0.00750468
-0.00631768
-0.00506411
-0.00399678
-0.00320546
-0.00263854
-0.00223226
-0.00192723
-0.00166765
-0.00140502
-0.00110156
-0.000731803
-0.000282698
0.000247334
0.000849973
0.00150859
0.00219947
0.00289287
0.0035549
0.00415035
0.00464429
0.00500029
0.00519396
-0.00679425
-0.00574206
-0.00460309
-0.00361053
-0.00285574
-0.00230036
-0.00189222
-0.00158154
-0.001321
-0.00106928
-0.000794242
-0.000474257
-9.81162e-05
0.000335914
0.000821464
0.00134538
0.00188864
0.00242719
0.0029335
0.00337893
0.00373511
0.00397252
0.0040713
-0.00614076
-0.00521175
-0.00418409
-0.00327669
-0.00257783
-0.0020559
-0.00166597
-0.00136527
-0.00111356
-0.000876211
-0.000626702
-0.000347496
-2.96579e-05
0.000328096
0.000720563
0.00113709
0.00156227
0.00197654
0.00235747
0.00268173
0.00292629
0.00306715
0.00308798
-0.00553754
-0.00472153
-0.00380102
-0.00298611
-0.00235715
-0.00188418
-0.00152667
-0.00124721
-0.00101162
-0.000791328
-0.000565221
-0.000319808
-4.85889e-05
0.000248896
0.000568022
0.0008999
0.00123185
0.00154783
0.00182951
0.0020578
0.0022139
0.00227818
0.0022369
-0.00497344
-0.0042633
-0.00344572
-0.00272867
-0.00217879
-0.00176463
-0.00144877
-0.0011982
-0.000983933
-0.000782946
-0.000579072
-0.000362623
-0.000129471
0.000119874
0.000381029
0.000646362
0.000905304
0.00114463
0.00134928
0.00150358
0.001592
0.00159826
0.00151038
-0.00443605
-0.00382725
-0.00310916
-0.00249314
-0.00202696
-0.00167696
-0.00140831
-0.00119155
-0.00100232
-0.000822608
-0.000640773
-0.000450543
-0.000249906
-4.02694e-05
0.000174127
0.000386661
0.000588492
0.000768716
0.000914965
0.0010143
0.00105374
0.00101945
0.000900487
-0.00391578
-0.00340842
-0.00278861
-0.00227227
-0.0018891
-0.00160451
-0.00138529
-0.00120472
-0.00104267
-0.000885843
-0.000726655
-0.000561732
-0.00039074
-0.000215698
-4.05864e-05
0.000128939
0.000285593
0.000420496
0.000523582
0.000584197
0.000591396
0.000533139
0.000399045
-0.00339768
-0.00300588
-0.00248769
-0.00206576
-0.00175949
-0.00153669
-0.00136495
-0.00121975
-0.00108519
-0.00095238
-0.000817137
-0.000678238
-0.000536381
-0.000393732
-0.000253733
-0.000120959
-1.15749e-06
9.86972e-05
0.000170639
0.000206073
0.000195867
0.000129499
-2.92984e-06
-0.00289201
-0.00261948
-0.00220877
-0.00187281
-0.00163359
-0.00146494
-0.00133457
-0.00122099
-0.00111289
-0.00100518
-0.000896035
-0.000785382
-0.000674155
-0.000564112
-0.000457797
-0.000358497
-0.000270334
-0.000198368
-0.000148485
-0.000127216
-0.000141787
-0.000201085
-0.000314552
-0.00260181
-0.00242082
-0.00205317
-0.00170097
-0.00149821
-0.00137429
-0.00127784
-0.00119132
-0.00110884
-0.00102803
-0.000948086
-0.000868981
-0.000791125
-0.000715349
-0.000642961
-0.000575743
-0.000516059
-0.000466941
-0.000432054
-0.00041566
-0.00042275
-0.000460137
-0.000537456
-0.00266081
-0.00334722
-0.00237788
-0.00158326
-0.00134131
-0.00124599
-0.00117562
-0.00111416
-0.00105939
-0.00100962
-0.000963717
-0.000920895
-0.000880505
-0.000842121
-0.000805605
-0.000771071
-0.000738942
-0.000710036
-0.000685548
-0.000667077
-0.000656846
-0.000658402
-0.000675329
-0.00024297
-0.00649718
-0.00289747
-0.00150034
-0.00120551
-0.00109563
-0.00103951
-0.00100923
-0.00099392
-0.000988405
-0.000989876
-0.000996327
-0.00100601
-0.00101729
-0.00102856
-0.00103821
-0.0010446
-0.00104614
-0.00104128
-0.00102854
-0.00100671
-0.000975259
-0.000932909
657.338
643.112
649.653
642.432
777.04
750.151
728.768
664.467
566.991
379.529
143.904
19.9812
28.2948
16.7482
14.031
11.0201
13.0926
8.78767
8.9905
9.12343
37.4836
18.0455
8.39709
8.62358
33.4464
19.0666
12.9937
14.0621
4.15353
14.6681
21.0566
22.0239
0.54072
7.51783
13.8382
17.1027
0.134555
0.332671
0.566029
1.32689
0.0272247
0.043862
0.0659872
0.0822529
0.0152446
0.0255923
0.0356948
0.0431085
0.0164579
0.0259336
0.0340782
0.0401741
0.0217463
0.0297277
0.0364616
0.0417501
0.0277641
0.0342644
0.0396476
0.0439313
0.0320903
0.0372527
0.0414576
0.0447652
0.0341656
0.0381887
0.0414154
0.0438884
0.0342249
0.0373321
0.0397939
0.0416127
0.0327457
0.0351329
0.0370144
0.0383493
0.0302674
0.0320926
0.0335357
0.0345217
0.0272777
0.0286678
0.0297782
0.0305129
0.0241572
0.0252148
0.0260707
0.0266197
0.0211497
0.0219552
0.0226162
0.0230244
0.0183765
0.0189903
0.0194981
0.0197963
0.0158712
0.0163383
0.0167234
0.0169336
0.0136171
0.0139694
0.0142559
0.0143964
0.0115831
0.0118437
0.012051
0.012137
0.00974227
0.00992864
0.0100719
0.0101153
0.00807749
0.00820231
0.00829275
0.00830164
0.00657931
0.00665175
0.00669704
0.00667657
0.00524189
0.00526889
0.00527443
0.00522754
0.00405981
0.00404724
0.00401732
0.00394583
0.00302679
0.00298029
0.00291892
0.00282439
0.00213588
0.00206123
0.00197269
0.00185708
0.00137995
0.00128334
0.00117255
0.00103879
0.000751809
0.000640176
0.000513247
0.00036586
0.000244378
0.000125877
-9.25109e-06
-0.000163494
-0.000149478
-0.000264833
-0.000397862
-0.00054944
-0.000438274
-0.000538643
-0.000656504
-0.000791977
-0.00062858
-0.000702838
-0.000789007
-0.000886797
-0.000695068
-0.000719529
-0.0007537
-0.00079952
-0.000885635
-0.000859568
-0.000837697
-0.000821515
492.831
178.086
145.547
292.908
475.361
493.618
379.53
443.439
512.724
552.929
568.639
571.957
475.825
371.34
257.565
259.583
442.9
465.782
470.621
151.822
58.3377
41.2527
64.3936
195.161
290.98
235.289
244.401
275.162
316.371
393.935
445.762
494.855
493.894
490.465
427.293
185.515
109.15
236.909
24.2547
40.4845
28.1841
24.8217
88.2402
215.722
241.499
184.387
85.1866
66.5555
131.125
198.109
227.372
207.826
201.455
208.246
94.1951
73.996
73.8483
10.6804
17.7654
21.2227
15.6413
33.8274
149.879
255.647
127.044
56.5283
61.3691
77.8634
174.698
230.806
230.142
206.002
213.417
192.346
99.8061
70.2554
9.22745
9.11625
10.2677
9.34652
9.05215
8.82446
36.85
55.359
114.25
212.774
212.885
209.682
196.467
215.765
214.007
185.716
123.325
69.8805
68.1091
9.01401
8.7064
8.96866
9.16362
8.25191
9.03509
8.81498
12.293
142.475
222.87
209.577
93.1997
54.8329
84.0875
108.928
66.4502
65.3487
66.6314
75.5479
23.5505
11.6617
8.1221
14.4912
33.5288
22.6133
8.86406
14.6098
46.8323
51.1867
9.98185
3.85604
3.49891
2.74255
1.73009
36.1268
98.8195
100.07
93.435
22.8666
23.5601
5.36949
27.1881
34.4084
34.821
23.6129
12.6924
12.1373
13.5229
18.5786
20.1772
17.0555
6.15349
1.07373
0.638416
1.47321
21.0566
25.7049
22.0812
13.7534
2.15218
15.9204
25.2576
35.6316
35.8485
35.9161
25.6348
29.2537
29.4185
29.1012
27.3787
11.4512
0.765606
0.294751
0.20194
0.0903993
0.0600688
2.59342
0.66035
0.512683
0.591232
0.867336
5.3374
24.2559
34.2977
34.2268
24.12
15.9465
5.76595
0.0407395
2.57565
0.331154
0.28975
0.264345
0.282076
0.0938805
0.0476181
0.0363166
0.0209053
-0.0762576
-0.0229471
0.0728152
-0.16791
-0.26849
1.38042
-0.207568
-0.118186
-0.0253567
0.0318063
0.0548576
1.00539
0.490806
0.59408
0.550277
0.0965339
0.0462409
0.0609234
0.059218
-0.0276459
-0.0616984
-0.0320467
-0.0906702
-0.154837
-0.144288
-0.107428
-0.0678628
-0.0263605
0.0146348
0.158717
0.701279
0.70538
0.577868
0.0469527
0.0427789
0.0473208
0.0575421
0.048256
-0.00611303
-0.0328932
-0.0792713
-0.116127
-0.124865
-0.114241
-0.0841513
-0.0533911
-0.0215148
0.0301564
0.303445
0.587193
0.577616
0.13826
0.0431615
0.0384806
0.0483407
0.051201
0.0381394
0.00287879
-0.0230449
-0.0631877
-0.0869715
-0.0949042
-0.0883858
-0.0699974
-0.0455444
-0.0232036
0.0970724
0.423484
0.37906
0.0946787
0.0349568
0.0362382
0.032628
0.0492916
0.0490291
0.0408177
0.0213655
0.00289589
-0.0242369
-0.0518794
-0.0670557
-0.0639799
-0.0525696
-0.0369266
-0.0207899
0.0406708
0.238586
0.0828703
0.0201297
0.0267142
0.0280788
0.0261662
0.0488001
0.0471632
0.042142
0.0367256
0.0153988
-0.00433573
-0.0220661
-0.0447451
-0.0448069
-0.0383047
-0.0285343
-0.0174416
0.0103454
-0.0039044
0.00507716
0.0138452
0.0191494
0.020363
0.0201793
0.0467422
0.0444057
0.0370258
0.0255151
0.0180161
0.00897537
-0.0119925
-0.0295959
-0.0307429
-0.027512
-0.021435
-0.0120432
-0.00804066
-0.00345053
0.00301595
0.00914551
0.0131239
0.0143151
0.0154702
0.0435322
0.0409444
0.0332976
0.0216566
0.00899035
-0.00184822
-0.0110586
-0.0167119
-0.0199969
-0.0193685
-0.0149253
-0.00868944
-0.00699109
-0.00310179
0.00152019
0.00588967
0.00896962
0.0103968
0.0125305
0.0395913
0.0370452
0.0307832
0.0216911
0.0114424
0.00171238
-0.00611242
-0.0103889
-0.0127944
-0.0132844
-0.0109609
-0.00809753
-0.00572409
-0.00276844
0.000671311
0.00395719
0.0066486
0.0113751
0.0115805
0.035302
0.0329467
0.0278254
0.0206506
0.0125896
0.00484957
-0.0015689
-0.00607511
-0.00805985
-0.00816157
-0.00747115
-0.00661546
-0.0045454
-0.00212987
0.000506317
0.00320942
0.00586904
0.0135219
0.0131309
0.0309935
0.0288972
0.0247215
0.019032
0.0126638
0.00649479
0.00125595
-0.00260215
-0.00488507
-0.00485388
-0.0046017
-0.00391632
-0.00314652
-0.00130763
0.00088134
0.00338638
0.00639971
0.0149129
0.016158
0.0269049
0.0250858
0.0216908
0.0171685
0.0121241
0.0072004
0.00293644
-0.000322372
-0.00244705
-0.00330712
-0.00257276
-0.00232638
-0.00188313
-0.000372125
0.00161692
0.00417071
0.00813785
0.0171751
0.020985
0.0231737
0.0216188
0.0188641
0.0152627
0.011257
0.00732085
0.00385633
0.00113089
-0.00073802
-0.00176445
-0.00198805
-0.00162089
-0.000761119
0.000579174
0.00249865
0.00518552
0.00994411
0.0185289
0.0482782
0.0198476
0.0185282
0.0162927
0.0134165
0.0102252
0.00707125
0.00425803
0.00199522
0.00038807
-0.000550444
-0.000864252
-0.000615472
0.000148082
0.00143053
0.00332752
0.00607606
0.0110137
0.0155304
0.223542
0.016913
0.0157935
0.0139734
0.0116655
0.00911129
0.00657572
0.00429057
0.00242273
0.001066
0.000250112
-3.65437e-05
0.000181783
0.000895155
0.0021356
0.00400394
0.00671718
0.0106501
0.0157138
0.243938
0.0143241
0.0133691
0.011877
0.0100118
0.00795439
0.00590649
0.00404804
0.00251392
0.00138808
0.000709554
0.000488119
0.00072552
0.00143687
0.00267021
0.0045243
0.00718889
0.0110065
0.0160358
0.251872
0.0120286
0.0112059
0.00996928
0.00844634
0.00677449
0.00510988
0.00359471
0.00233985
0.0014206
0.00088077
0.000743947
0.00102945
0.00176938
0.00302362
0.0048927
0.00755359
0.0113436
0.0164782
0.252785
0.00998128
0.00926212
0.00822167
0.00696074
0.00558594
0.00422063
0.00297946
0.00195518
0.00121544
0.000805835
0.000758464
0.00110433
0.00188739
0.00317753
0.00508218
0.00778191
0.0116251
0.016929
0.261989
0.0081483
0.0075073
0.00661461
0.00555147
0.00440278
0.0032684
0.00224293
0.00140525
0.000816162
0.000520932
0.000556159
0.000959962
0.00178409
0.00310595
0.00504093
0.00778248
0.0117185
0.0172828
0.284298
0.00650632
0.00592149
0.00513701
0.00421985
0.0032398
0.00228002
0.00142055
0.000729621
0.000261635
5.97363e-05
0.000161758
0.000608894
0.0014563
0.00278432
0.00471112
0.00743418
0.0113594
0.0689168
0.291993
0.00504008
0.0044925
0.00378367
0.0029703
0.00211178
0.00127965
0.000543728
-3.61108e-05
-0.000411823
-0.000544124
-0.000396806
7.08406e-05
0.000913117
0.00220774
0.004065
0.0066633
0.01036
0.110891
0.298969
0.00373946
0.00321298
0.00255302
0.0018087
0.00103257
0.000288642
-0.000359791
-0.000859428
-0.00116923
-0.00125571
-0.00108678
-0.000624827
0.000181073
0.00140301
0.0031395
0.0055359
0.00887352
0.105942
0.305351
0.00259729
0.00207868
0.00144564
0.000741481
1.46579e-05
-0.000674739
-0.00126592
-0.00171063
-0.00197661
-0.00203872
-0.00187137
-0.00144176
-0.000702217
0.000416941
0.00201035
0.00421366
0.00729442
0.0442648
0.311212
0.00160839
0.00108774
0.000463993
-0.000224311
-0.000930893
-0.00159571
-0.00215476
-0.00256314
-0.00280123
-0.00285617
-0.00271181
-0.00234175
-0.00170072
-0.000715341
0.00072666
0.00280327
0.00582476
0.0162843
0.236244
0.000769562
0.000241
-0.000386891
-0.00108036
-0.00179423
-0.00246403
-0.00301228
-0.00339454
-0.00361225
-0.00367108
-0.00356839
-0.00328116
-0.00277141
-0.00198136
-0.000723957
0.00116953
0.00411293
0.0241788
0.241669
8.0057e-05
-0.000457269
-0.00109828
-0.00181582
-0.00256672
-0.00327691
-0.00383436
-0.0041891
-0.00438193
-0.00444672
-0.00439298
-0.00419863
-0.00388389
-0.00339065
-0.00250228
-0.00102557
0.0015425
0.0527862
0.31462
-0.000458035
-0.000998595
-0.00165622
-0.00241537
-0.00324044
-0.00404322
-0.00463071
-0.0049375
-0.00508364
-0.00514394
-0.00514602
-0.00508976
-0.0050522
-0.00496734
-0.0046648
-0.00391359
-0.0022122
0.0685037
0.359533
-0.000839917
-0.00136925
-0.00203818
-0.00285226
-0.00379841
-0.00477747
-0.00541405
-0.00561789
-0.00567351
-0.00570468
-0.00576496
-0.00589264
-0.00617303
-0.00658787
-0.00705718
-0.00744954
-0.00716378
0.0585663
0.361935
-0.00105573
-0.00154354
-0.00219896
-0.00306234
-0.00417937
-0.00548367
-0.00621717
-0.00619912
-0.00609081
-0.00605524
-0.00615312
-0.00646578
-0.00708205
-0.00752464
-0.00945309
-0.011461
-0.0134963
0.115838
0.360567
-0.00108144
-0.00147122
-0.002049
-0.00291456
-0.00428628
-0.006318
-0.00749087
-0.00696915
-0.00653094
-0.00635521
-0.00643685
-0.00688156
-0.00722413
-0.0058204
-0.00905334
-0.0159415
-0.0218645
0.335389
0.34998
-0.000910109
-0.00113593
-0.00154061
-0.00234288
-0.00427491
-0.00836113
-0.0109024
-0.00904199
-0.00784041
-0.00734794
-0.00732679
-0.00788704
-0.00727478
-0.00801843
-0.0118582
-0.0216695
-0.0342033
0.301596
0.309348
-0.00081351
-0.00084315
-0.00105684
-0.00180318
-0.00466704
-0.0144765
-0.015047
-0.0104141
-0.00813038
-0.00726446
-0.00711105
-0.00768971
-0.00911475
-0.0102183
-0.0154369
-0.0255023
-0.042963
-0.0194259
0.167862
)
;

boundaryField
{
    leftWall
    {
        type            fixedFluxPressure;
        gradient        uniform 0;
        value           nonuniform List<scalar> 
50
(
955.344
954.423
953.341
951.743
949.761
947.43
944.756
941.721
936.432
927.443
910.719
449.172
0.131024
0.168352
0.154424
0.123878
0.0935555
0.0670428
0.0459455
0.0296136
0.0172485
0.00776094
0.00025876
-0.00576587
-0.0104681
-0.013764
-0.0156186
-0.0162302
-0.0160452
-0.0154393
-0.0146372
-0.0137499
-0.0128178
-0.0118618
-0.0109071
-0.00997845
-0.00910368
-0.00827456
-0.00750468
-0.00679425
-0.00614076
-0.00553754
-0.00497344
-0.00443605
-0.00391578
-0.00339768
-0.00289201
-0.00260181
-0.00266081
-0.00024297
)
;
    }
    rightWall
    {
        type            fixedFluxPressure;
        gradient        uniform 0;
        value           nonuniform List<scalar> 
50
(
589.563
587.387
586.673
587.365
589.675
593.919
600.12
607.464
470.621
236.909
73.8483
70.2554
68.1091
75.5479
93.435
25.7049
0.0600688
0.0938805
0.0965339
0.0427789
0.0384806
0.032628
0.0261662
0.0201793
0.0154702
0.0125305
0.0115805
0.0131309
0.016158
0.020985
0.0482782
0.223542
0.243938
0.251872
0.252785
0.261989
0.284298
0.291993
0.298969
0.305351
0.311212
0.236244
0.241669
0.31462
0.359533
0.361935
0.360567
0.34998
0.309348
0.167862
)
;
    }
    lowerWall
    {
        type            fixedFluxPressure;
        gradient        uniform 0;
        value           nonuniform List<scalar> 
62
(
955.344
959.612
964.563
969.963
974.735
978.483
981.121
982.754
983.639
984.115
984.473
984.826
984.828
984.038
981.89
978.04
974.299
970.91
968.759
968.776
971.704
978.2
989.368
989.368
991.523
992.616
993.486
990.376
982.76
967.326
937.343
657.338
643.112
649.653
642.432
544.536
543.268
539.866
536.14
535.249
531.564
511.838
445.092
544.536
552.356
561.307
560.931
546.723
531.937
525.854
522.41
512.325
503.987
504.305
512.867
524.981
535.51
546.54
553.43
563.064
579.287
589.563
)
;
    }
    atmosphere
    {
        type            totalPressure;
        rho             rho;
        psi             none;
        gamma           1;
        p0              uniform 0;
        value           nonuniform List<scalar> 
46
(
-0.000492324
-0.00123673
-0.00111984
-0.00103312
-0.000979978
-0.000951613
-0.000942625
-0.000948879
-0.000967289
-0.000995423
-0.0010312
-0.00107269
-0.00111796
-0.00116494
-0.00121141
-0.00125487
-0.00129261
-0.00132165
-0.00133883
-0.00134085
-0.00132444
-0.00128653
-0.00122457
-0.00115932
-0.00111053
-0.00105421
-0.000990864
-0.000876634
-0.000695649
-0.000507983
-0.000325669
-0.000158641
-2.53515e-05
0
0
0
0
0
0
0
0
0
0
0
0
0
)
;
    }
    defaultFaces
    {
        type            empty;
    }
}


// ************************************************************************* //
