/*--------------------------------*- C++ -*----------------------------------*\
  =========                 |
  \\      /  F ield         | OpenFOAM: The Open Source CFD Toolbox
   \\    /   O peration     | Website:  https://openfoam.org
    \\  /    A nd           | Version:  9
     \\/     M anipulation  |
\*---------------------------------------------------------------------------*/
FoamFile
{
    format      ascii;
    class       volScalarField;
    location    "1.04";
    object      k;
}
// * * * * * * * * * * * * * * * * * * * * * * * * * * * * * * * * * * * * * //

dimensions      [0 2 -2 0 0 0 0];

internalField   nonuniform List<scalar> 
2268
(
0.00228589
0.0044687
0.0067411
0.00856823
0.0101797
0.0118225
0.0137142
0.0160605
0.0190409
0.0228289
0.0270064
0.0310585
0.0344542
0.0366994
0.037888
0.0381764
0.0377961
0.0370082
0.0363366
0.0344637
0.0292218
0.0188303
0.00685138
0.00472034
0.011455
0.0161645
0.0199449
0.0233251
0.0268399
0.0310115
0.0363251
0.0431533
0.0513826
0.060355
0.0691142
0.0765439
0.0817672
0.0845266
0.0851578
0.0843102
0.0824929
0.0796012
0.0742539
0.0631227
0.0428806
0.0140794
0.00697384
0.0160971
0.0220146
0.0268469
0.0312916
0.0360247
0.0417247
0.0489923
0.0582109
0.069125
0.080856
0.0920864
0.101433
0.10796
0.111459
0.112327
0.111258
0.108726
0.10447
0.0968986
0.0822765
0.057497
0.0182951
0.00900863
0.0199443
0.0267028
0.0323235
0.0376669
0.043524
0.0507001
0.0598831
0.0714343
0.0848972
0.0990694
0.1123
0.123024
0.130363
0.134238
0.135204
0.134041
0.131154
0.125987
0.116751
0.0994147
0.0705457
0.0235801
0.0108073
0.0233351
0.0308014
0.0371273
0.0433657
0.0504331
0.0592627
0.0706161
0.0847826
0.101005
0.117662
0.132762
0.144625
0.152515
0.156566
0.157568
0.156433
0.15347
0.147693
0.137132
0.117553
0.0851678
0.0307947
0.0124014
0.0263905
0.0345231
0.0415512
0.0487556
0.0572055
0.0679756
0.0818825
0.0990599
0.118334
0.137573
0.154466
0.167296
0.175571
0.179706
0.180772
0.179828
0.177025
0.170834
0.159167
0.137726
0.102771
0.0431848
0.0138471
0.0291749
0.0379745
0.0457483
0.0540388
0.0641056
0.0771824
0.0940996
0.114733
0.137339
0.15922
0.177798
0.191429
0.199987
0.204215
0.205464
0.204903
0.202443
0.195901
0.183187
0.16005
0.123629
0.0630321
0.0151696
0.0317315
0.0412181
0.0498115
0.0593474
0.0713221
0.0871407
0.10757
0.132116
0.158279
0.182779
0.202871
0.217135
0.225955
0.230407
0.232069
0.232108
0.230047
0.223003
0.208996
0.184086
0.147366
0.0937044
0.0147613
0.0196441
0.0326851
0.0466888
0.0601794
0.0728139
0.0813001
0.0821925
0.0763396
0.070874
0.065584
0.0588731
0.0511054
0.0449692
0.0401145
0.0333722
0.0254185
0.0164788
0.00816017
0.0292532
0.0495887
0.0707432
0.0946785
0.12076
0.144615
0.161434
0.166829
0.160708
0.153325
0.145314
0.133488
0.118302
0.103814
0.0906096
0.0753331
0.0576686
0.0375788
0.0132668
0.039463
0.0682861
0.0942819
0.12356
0.152581
0.178512
0.199146
0.207426
0.202566
0.19585
0.188298
0.175389
0.157219
0.138242
0.120211
0.100438
0.0779291
0.0517887
0.0172964
0.0475961
0.0824359
0.111498
0.143915
0.174036
0.200653
0.224241
0.235023
0.231474
0.226489
0.220937
0.208726
0.188922
0.166586
0.144757
0.121647
0.0958577
0.0654194
0.0224987
0.0534202
0.0935512
0.124588
0.159221
0.189829
0.216453
0.241452
0.255486
0.25378
0.251121
0.248452
0.237622
0.216839
0.19197
0.167238
0.141462
0.112745
0.0787967
0.0287789
0.0578023
0.102478
0.134804
0.170716
0.200951
0.227165
0.251322
0.267746
0.270764
0.271339
0.271849
0.262588
0.24112
0.214841
0.188355
0.160403
0.128966
0.0919673
0.0358289
0.0616391
0.110471
0.143474
0.179006
0.208292
0.234119
0.257192
0.274637
0.283225
0.286895
0.289523
0.282217
0.26132
0.235309
0.208368
0.178631
0.144575
0.104774
0.0431012
0.0677903
0.118805
0.151856
0.185367
0.213719
0.239257
0.261632
0.280351
0.29162
0.297435
0.300709
0.294278
0.275807
0.252829
0.227257
0.196221
0.158583
0.116124
0.0505665
0.0171611
0.0354226
0.0460246
0.0560501
0.0678383
0.0833354
0.104208
0.13088
0.161846
0.193491
0.221856
0.244219
0.259669
0.269167
0.274481
0.277427
0.278844
0.276965
0.267344
0.248764
0.219372
0.181177
0.135575
0.0187276
0.0389209
0.0512733
0.0637644
0.0796408
0.101821
0.132327
0.170241
0.211372
0.250537
0.283363
0.307916
0.324309
0.334209
0.341455
0.348368
0.353306
0.348163
0.33118
0.309076
0.27716
0.240277
0.205083
0.0196022
0.0414773
0.0557986
0.0713047
0.0924638
0.123598
0.166869
0.218643
0.270429
0.315923
0.351671
0.377562
0.395019
0.406341
0.416669
0.433101
0.44812
0.434441
0.410854
0.385553
0.349616
0.309706
0.27484
0.0197083
0.0431322
0.0595742
0.0785024
0.106053
0.148614
0.208343
0.27683
0.338867
0.386962
0.419506
0.442918
0.464356
0.484113
0.503423
0.522068
0.540661
0.532149
0.526743
0.490675
0.438268
0.38405
0.340295
0.0193847
0.0440424
0.0626807
0.0851404
0.119829
0.176249
0.257115
0.345505
0.408426
0.439975
0.460486
0.480042
0.502892
0.531558
0.578717
0.647508
0.696864
0.671631
0.647318
0.637322
0.543103
0.458977
0.399278
0.0195789
0.0453428
0.065776
0.0916372
0.134035
0.206624
0.31365
0.423976
0.456255
0.456388
0.46815
0.487909
0.512017
0.540774
0.585698
0.656144
0.72043
0.750701
0.726964
0.691279
0.631093
0.524612
0.4464
0.0211558
0.048825
0.0707948
0.100606
0.151684
0.243797
0.378569
0.465422
0.457529
0.454169
0.466047
0.487446
0.509674
0.528538
0.555648
0.594265
0.637073
0.68205
0.730485
0.710203
0.645552
0.555334
0.474563
0.0237885
0.0542483
0.0785036
0.112906
0.170753
0.261315
0.363056
0.417601
0.434901
0.444317
0.461998
0.482458
0.501353
0.512307
0.523206
0.542395
0.566754
0.594494
0.624579
0.644857
0.614278
0.538102
0.474168
0.0271629
0.0610624
0.0881746
0.123785
0.176252
0.246423
0.31993
0.37064
0.398737
0.422487
0.442713
0.458348
0.472181
0.484589
0.494368
0.506192
0.51975
0.534215
0.547946
0.551831
0.533676
0.491764
0.455671
0.0305518
0.067314
0.0937803
0.126714
0.17233
0.228912
0.285688
0.329392
0.360182
0.387637
0.409325
0.425578
0.439379
0.452758
0.466705
0.480207
0.490418
0.499822
0.509918
0.501677
0.478029
0.453516
0.433839
0.0312321
0.0675519
0.0934895
0.123781
0.163245
0.209911
0.255813
0.293009
0.32257
0.349989
0.373349
0.391569
0.406426
0.420333
0.434358
0.447177
0.45558
0.460979
0.466154
0.460055
0.441316
0.424035
0.411929
0.0297118
0.0640651
0.0888014
0.116223
0.150151
0.189281
0.227942
0.260443
0.287316
0.312443
0.3352
0.354019
0.369339
0.38285
0.395572
0.406854
0.415282
0.420461
0.422405
0.417265
0.407418
0.396804
0.388292
0.026946
0.0583654
0.0813382
0.105814
0.134905
0.16799
0.201286
0.230486
0.254975
0.277233
0.297689
0.315331
0.329967
0.342469
0.353688
0.363694
0.372231
0.378609
0.382351
0.381383
0.37624
0.369728
0.364259
0.0238311
0.0519903
0.0729072
0.094522
0.119402
0.147442
0.176288
0.202842
0.225385
0.245113
0.262869
0.278372
0.291416
0.302397
0.311948
0.32051
0.328466
0.335448
0.340775
0.343085
0.342247
0.340092
0.338515
0.0211304
0.046141
0.0649938
0.0839718
0.105229
0.129047
0.153931
0.177471
0.198103
0.215971
0.231581
0.245022
0.256289
0.265645
0.273583
0.280636
0.287362
0.294174
0.300219
0.304748
0.307581
0.309671
0.31227
0.0193733
0.0415554
0.058542
0.0752404
0.0934259
0.11344
0.134474
0.154996
0.173661
0.190008
0.204097
0.216021
0.225882
0.233934
0.240603
0.246425
0.25201
0.258042
0.264072
0.269747
0.274959
0.28015
0.286027
0.0182667
0.0385021
0.0538523
0.0685676
0.084125
0.10091
0.118558
0.136162
0.152717
0.16758
0.180493
0.1914
0.200372
0.207628
0.213535
0.218583
0.223352
0.228526
0.234101
0.240003
0.246232
0.253024
0.260762
0.0175667
0.0366063
0.0506859
0.0637912
0.0772315
0.0914173
0.10624
0.121204
0.135638
0.148956
0.160777
0.170917
0.179353
0.186224
0.191812
0.196518
0.200837
0.205357
0.210335
0.21588
0.222108
0.229216
0.237459
0.0170969
0.03545
0.0486172
0.0604916
0.0723047
0.0844845
0.0970649
0.109802
0.122283
0.134067
0.144789
0.154211
0.162236
0.168911
0.174419
0.179052
0.183192
0.187303
0.191733
0.196685
0.202357
0.208973
0.216767
0.0167298
0.034682
0.0472044
0.0581658
0.0687645
0.0794396
0.0903048
0.101264
0.112081
0.122456
0.132101
0.140787
0.148386
0.154877
0.160353
0.165002
0.169094
0.172973
0.176973
0.181324
0.186263
0.192039
0.198897
0.0163832
0.0340573
0.0460969
0.0563726
0.066067
0.0756244
0.0852016
0.0947873
0.104258
0.113424
0.122077
0.130032
0.137159
0.143404
0.148795
0.153437
0.157506
0.161242
0.164926
0.168773
0.173019
0.177917
0.183719
0.0160129
0.0334307
0.0450671
0.0547997
0.063802
0.0725179
0.0811262
0.0896634
0.0980741
0.106245
0.114035
0.121305
0.127943
0.133883
0.139115
0.14369
0.147711
0.151339
0.154792
0.158254
0.161936
0.166075
0.170913
0.0156026
0.0327353
0.0439977
0.0532685
0.0617139
0.0697742
0.0776379
0.0853677
0.0929492
0.100318
0.107383
0.114042
0.120208
0.125816
0.13084
0.135293
0.139234
0.142763
0.146047
0.149231
0.152493
0.156042
0.160101
0.0151549
0.0319581
0.0428522
0.0517071
0.0596795
0.0672047
0.0744754
0.0815681
0.0884925
0.0952157
0.101679
0.107812
0.113546
0.118827
0.12362
0.127922
0.131758
0.135194
0.138352
0.141344
0.144315
0.147442
0.150922
0.0146838
0.0311202
0.0416464
0.0501146
0.0576685
0.0647379
0.0715164
0.0780888
0.0844793
0.0906747
0.0966386
0.102322
0.107674
0.112648
0.117211
0.12135
0.125073
0.128421
0.131486
0.134353
0.137136
0.139983
0.143065
0.0142094
0.0302603
0.0404239
0.0485303
0.0557064
0.0623754
0.0687312
0.0748636
0.0808064
0.0865595
0.0921017
0.0973994
0.102414
0.107108
0.111452
0.115428
0.119037
0.122306
0.125304
0.128093
0.130766
0.133444
0.136273
0.0137528
0.0294236
0.0392398
0.047011
0.053845
0.0601576
0.066142
0.071892
0.0774484
0.0828205
0.087998
0.0929583
0.0976729
0.102112
0.10625
0.110067
0.113558
0.116762
0.11971
0.122454
0.12507
0.127659
0.130347
0.0133345
0.0286543
0.0381492
0.0456164
0.0521435
0.0581386
0.0637938
0.069206
0.0744216
0.0794576
0.0843118
0.0889704
0.0934128
0.0976158
0.101558
0.105222
0.108606
0.111741
0.114646
0.117363
0.119955
0.122507
0.125128
0.0129719
0.027992
0.0372021
0.0444009
0.0506573
0.0563719
0.0617355
0.0668474
0.071759
0.0764933
0.0810555
0.0854387
0.0896293
0.0936097
0.0973623
0.100872
0.104155
0.107218
0.110079
0.112773
0.115355
0.117899
0.120498
0.0126796
0.0274703
0.0364403
0.0434097
0.0494325
0.0549025
0.0600093
0.0648544
0.0694936
0.0739553
0.0782506
0.0823792
0.0863333
0.0901009
0.0936686
0.0970327
0.100204
0.103185
0.105993
0.108657
0.111227
0.113769
0.116366
0.0124695
0.0271167
0.0358975
0.0426784
0.0485038
0.0537631
0.0586455
0.0632545
0.0676499
0.0718649
0.075916
0.0798084
0.0835397
0.0871028
0.0904896
0.0937087
0.0967586
0.0996444
0.102382
0.105
0.107544
0.110073
0.112664
0.0123518
0.0269536
0.0355993
0.0422316
0.0478937
0.0529733
0.0576605
0.0620616
0.0662401
0.0702335
0.0740628
0.0777379
0.0812608
0.0846281
0.0878449
0.0909114
0.0938277
0.0966007
0.0992467
0.101794
0.104286
0.106779
0.109341
0.0123352
0.0269984
0.0355625
0.0420831
0.0476114
0.0525381
0.0570561
0.0612758
0.065264
0.0690621
0.0726943
0.0761739
0.0795058
0.0826937
0.0857421
0.0886501
0.0914204
0.0940617
0.0965917
0.0990392
0.101446
0.103865
0.106364
0.0124271
0.0272619
0.0357937
0.0422334
0.0476518
0.0524476
0.05682
0.0608844
0.0647115
0.0683449
0.0718101
0.0751212
0.0782851
0.081308
0.084191
0.0869358
0.0895476
0.0920375
0.0944248
0.0967393
0.0990221
0.101326
0.103714
0.0126317
0.0277445
0.0362851
0.0426669
0.0479931
0.0526767
0.0569268
0.0608657
0.0645677
0.0680761
0.071414
0.074592
0.0776157
0.0804871
0.0832088
0.0857852
0.088225
0.0905423
0.0927589
0.0949058
0.097024
0.0991654
0.101391
0.0129464
0.0284303
0.0370101
0.043349
0.0485956
0.0531844
0.0573392
0.0611917
0.0648192
0.0682598
0.0715259
0.0746167
0.0775289
0.0802631
0.082825
0.0852245
0.0874756
0.0895971
0.0916138
0.0935582
0.0954713
0.0974035
0.0994134
0.0133576
0.0292816
0.0379195
0.0442236
0.0494007
0.0539148
0.0580106
0.0618338
0.065464
0.0689247
0.0721983
0.075257
0.0780874
0.0806927
0.0830878
0.0852933
0.0873324
0.0892306
0.0910169
0.0927251
0.0943958
0.0960765
0.0978225
0.0138368
0.0302356
0.0389392
0.0452127
0.0503311
0.0547969
0.0588856
0.0627672
0.0665268
0.0701523
0.0735442
0.0766322
0.0793991
0.0818648
0.0840667
0.0860454
0.0878387
0.0894808
0.0910049
0.0924456
0.0938416
0.0952366
0.0966801
0.0143395
0.0312038
0.0399726
0.0462187
0.0512925
0.0557449
0.0598996
0.0639772
0.0680868
0.0721372
0.075796
0.0789533
0.0816308
0.0839026
0.0858511
0.0875475
0.0890476
0.0903944
0.091624
0.0927698
0.0938666
0.0949521
0.0960682
0.014808
0.0320771
0.0409061
0.0471303
0.0521769
0.0566569
0.060972
0.0654549
0.0703135
0.0753196
0.0793993
0.0825583
0.0850109
0.0869556
0.0885419
0.0898737
0.0910203
0.0920285
0.0929327
0.0937619
0.0945442
0.0953089
0.096088
0.0151781
0.0327378
0.0416212
0.0478319
0.0528686
0.0574102
0.0619753
0.0671243
0.0734067
0.0806539
0.0851093
0.0878975
0.0897883
0.0911669
0.0922334
0.0930985
0.0938256
0.0944529
0.095006
0.0955047
0.0959675
0.0964131
0.0968619
0.0153831
0.0330975
0.042015
0.0482186
0.0532552
0.0578573
0.0626639
0.0685585
0.076965
0.0902356
0.0938884
0.0953239
0.0960979
0.09661
0.0969902
0.0972924
0.0975431
0.0977566
0.0979421
0.0981064
0.098256
0.0983976
0.0985381
0.0864489
0.0707528
0.0678235
0.0759085
0.181327
0.170177
0.163112
0.158955
0.253853
0.243468
0.236057
0.231351
0.315867
0.303693
0.294816
0.289138
0.369359
0.354945
0.344688
0.338057
0.411341
0.395145
0.384206
0.377605
0.437937
0.421793
0.411451
0.406021
0.445469
0.43317
0.425475
0.420243
0.438615
0.431158
0.424716
0.41912
0.424074
0.419067
0.414639
0.410967
0.40627
0.403073
0.399918
0.397185
0.383614
0.381093
0.378864
0.377
0.361373
0.359918
0.358801
0.358087
0.338438
0.338777
0.339465
0.340508
0.315174
0.317401
0.319949
0.322816
0.291288
0.295085
0.299191
0.303592
0.267423
0.272224
0.277336
0.28274
0.244544
0.249707
0.255205
0.261018
0.223528
0.228523
0.233875
0.239571
0.204907
0.209401
0.214255
0.219466
0.188832
0.192686
0.19688
0.201419
0.175169
0.178389
0.181909
0.185743
0.163636
0.166307
0.169231
0.172425
0.153901
0.156138
0.158584
0.161253
0.145645
0.147566
0.149653
0.151924
0.138589
0.140294
0.142133
0.144121
0.132502
0.134071
0.135749
0.13755
0.127199
0.12869
0.130273
0.131959
0.122532
0.123984
0.125516
0.127139
0.118388
0.119823
0.121329
0.122917
0.114679
0.116101
0.117591
0.119157
0.111338
0.112741
0.114208
0.11575
0.108317
0.109683
0.111113
0.112615
0.105587
0.106893
0.108261
0.109699
0.103142
0.104359
0.105635
0.106978
0.100999
0.102096
0.103249
0.104465
0.0992016
0.100152
0.101152
0.102209
0.0978198
0.0986015
0.0994249
0.100297
0.096947
0.0975467
0.0981787
0.0988496
0.0966986
0.0971127
0.0975493
0.0980135
0.0972111
0.0974464
0.0976944
0.0979585
0.0986465
0.0987191
0.0987958
0.0988777
0.0955756
0.135097
0.166711
0.194649
0.221858
0.246221
0.267589
0.287266
0.299051
0.306971
0.311402
0.30609
0.29046
0.273102
0.254458
0.220067
0.175747
0.133504
0.0660324
0.15601
0.172015
0.19757
0.21925
0.240459
0.260878
0.279368
0.29733
0.307928
0.316314
0.323562
0.319344
0.302973
0.2856
0.267002
0.231725
0.194585
0.158134
0.0847732
0.22773
0.232395
0.252916
0.272217
0.279023
0.287933
0.299784
0.314588
0.326195
0.33362
0.346163
0.344184
0.320616
0.296078
0.275044
0.246412
0.21469
0.180297
0.0986398
0.285233
0.293054
0.310042
0.325363
0.325035
0.325321
0.328981
0.340158
0.347691
0.359289
0.389001
0.395652
0.349319
0.31615
0.29698
0.265642
0.232502
0.198081
0.108397
0.332645
0.336801
0.348853
0.361768
0.367212
0.367254
0.361854
0.362399
0.368543
0.385014
0.438736
0.459261
0.382822
0.337003
0.307957
0.275865
0.243854
0.209279
0.115758
0.37282
0.378175
0.389766
0.40108
0.409129
0.411321
0.395469
0.383892
0.378028
0.388448
0.428724
0.456157
0.402874
0.348848
0.313071
0.279724
0.248034
0.211666
0.117232
0.403697
0.412426
0.424899
0.433456
0.43426
0.422831
0.402229
0.390704
0.38055
0.382309
0.400846
0.416523
0.395436
0.361632
0.324172
0.284087
0.247703
0.206185
0.111912
0.4162
0.420819
0.427328
0.430467
0.42427
0.409155
0.394943
0.385462
0.378134
0.376581
0.38374
0.392875
0.389777
0.377873
0.342516
0.288844
0.242274
0.19163
0.102828
0.413834
0.412928
0.413231
0.411979
0.40653
0.396446
0.386312
0.379069
0.374284
0.373176
0.375662
0.384732
0.393584
0.38722
0.340443
0.274053
0.217715
0.169054
0.0929177
0.406764
0.404379
0.402088
0.399039
0.394379
0.387958
0.381174
0.375691
0.371392
0.369959
0.369285
0.375661
0.38443
0.368405
0.312939
0.241439
0.181924
0.141332
0.0814622
0.394325
0.392988
0.390916
0.38841
0.385268
0.381937
0.378566
0.374046
0.36796
0.36326
0.358981
0.357132
0.352993
0.32649
0.270691
0.20343
0.14839
0.110922
0.0703785
0.374974
0.374343
0.374155
0.374343
0.374754
0.375048
0.37411
0.370026
0.362937
0.354901
0.345762
0.335636
0.319956
0.288389
0.240685
0.190835
0.152201
0.118534
0.0651474
0.357756
0.359604
0.362478
0.365778
0.368858
0.370853
0.370693
0.367335
0.360444
0.350408
0.337881
0.322753
0.302593
0.274048
0.239524
0.20676
0.177904
0.140726
0.0704789
0.342793
0.347945
0.354134
0.360471
0.366096
0.36999
0.371082
0.368625
0.362221
0.351796
0.338143
0.321798
0.302436
0.279581
0.254604
0.229001
0.199143
0.152835
0.0746201
0.328056
0.336913
0.346478
0.355776
0.36384
0.369592
0.372019
0.370527
0.364866
0.35505
0.341766
0.326176
0.308896
0.289924
0.268864
0.243892
0.210083
0.159785
0.0769457
0.311429
0.323543
0.336068
0.34799
0.358253
0.365746
0.369529
0.369091
0.36427
0.355247
0.342774
0.328189
0.312259
0.294799
0.274553
0.248981
0.214034
0.163823
0.0780964
0.292229
0.30652
0.321246
0.33523
0.347329
0.356392
0.36148
0.362082
0.358101
0.349866
0.3382
0.324342
0.308994
0.291896
0.271734
0.246255
0.212641
0.164763
0.078366
0.27123
0.286339
0.302175
0.31749
0.330935
0.34131
0.347612
0.34927
0.346212
0.338845
0.328051
0.314876
0.299997
0.28325
0.263566
0.239427
0.20812
0.163317
0.078206
0.249645
0.264535
0.280297
0.29598
0.310171
0.321488
0.328864
0.33165
0.329706
0.32345
0.31378
0.3016
0.287588
0.271752
0.253378
0.231216
0.202397
0.16049
0.0782136
0.228767
0.242621
0.257529
0.272632
0.286776
0.298603
0.306828
0.310743
0.310115
0.305297
0.297125
0.286419
0.273846
0.259519
0.243135
0.223116
0.196895
0.157743
0.0781003
0.209594
0.221913
0.235418
0.24939
0.262824
0.274519
0.283299
0.288256
0.289049
0.285924
0.279593
0.270806
0.260171
0.247923
0.233742
0.216124
0.192265
0.15538
0.0777648
0.192697
0.203298
0.21513
0.227635
0.239977
0.251124
0.26001
0.265765
0.267945
0.266625
0.262339
0.255757
0.24743
0.237576
0.225676
0.210255
0.18843
0.153356
0.0772254
0.178245
0.187197
0.197341
0.208273
0.219336
0.229678
0.238379
0.244646
0.248007
0.248418
0.246228
0.241963
0.236049
0.228529
0.218788
0.205317
0.185183
0.151516
0.0764476
0.166122
0.173649
0.182272
0.191718
0.201495
0.210929
0.219263
0.225808
0.230108
0.232038
0.23179
0.229724
0.22606
0.220682
0.212872
0.201064
0.182292
0.149694
0.0753844
0.156058
0.162447
0.169812
0.17798
0.186597
0.19515
0.203037
0.209686
0.21468
0.217841
0.219265
0.219106
0.217406
0.21388
0.207706
0.19726
0.179555
0.147761
0.0740073
0.147724
0.153265
0.15966
0.166807
0.174463
0.182244
0.189687
0.196328
0.201802
0.205925
0.208676
0.210052
0.209957
0.207937
0.203071
0.193687
0.1768
0.145629
0.0723393
0.140795
0.145742
0.151434
0.157819
0.164729
0.171887
0.178938
0.185515
0.191303
0.196134
0.199876
0.202416
0.203525
0.202649
0.198761
0.19016
0.173889
0.143252
0.0705119
0.134979
0.139538
0.144751
0.150597
0.156964
0.16365
0.170384
0.176874
0.182867
0.188171
0.192602
0.195956
0.197898
0.197813
0.194599
0.186537
0.170724
0.140622
0.0688327
0.130027
0.13435
0.139255
0.144741
0.150733
0.157081
0.163574
0.169975
0.176079
0.181672
0.186538
0.19041
0.192873
0.193247
0.19045
0.182739
0.167288
0.137777
0.0674661
0.125732
0.129918
0.134635
0.139893
0.145638
0.151753
0.15807
0.164392
0.170529
0.176268
0.181369
0.185519
0.188252
0.18885
0.18623
0.178747
0.163631
0.134781
0.0661689
0.121925
0.126028
0.13063
0.135743
0.141327
0.147284
0.153473
0.159719
0.165839
0.17162
0.176806
0.181056
0.183872
0.184523
0.181944
0.174566
0.159803
0.131688
0.0647206
0.11847
0.122506
0.127022
0.132032
0.137502
0.143347
0.149437
0.155609
0.16168
0.167435
0.172606
0.176833
0.179609
0.180207
0.177596
0.170284
0.155833
0.128501
0.0631836
0.115264
0.119214
0.123637
0.128548
0.133918
0.139668
0.145673
0.151772
0.157778
0.163469
0.168567
0.172704
0.175372
0.175865
0.173197
0.165951
0.151791
0.125192
0.0616722
0.112237
0.116054
0.120344
0.125127
0.130378
0.136025
0.141943
0.14797
0.153908
0.159526
0.164534
0.168559
0.171099
0.171476
0.168759
0.161602
0.147753
0.121803
0.0600077
0.109354
0.112967
0.117058
0.121652
0.126736
0.132244
0.138059
0.144012
0.149894
0.155456
0.160395
0.164325
0.166755
0.167039
0.164302
0.157271
0.143771
0.118518
0.0582179
0.106621
0.109946
0.113748
0.118066
0.122901
0.128207
0.133878
0.139751
0.145598
0.151152
0.156077
0.15997
0.162341
0.162581
0.159873
0.153019
0.139932
0.115511
0.0568628
0.104089
0.107033
0.110442
0.114372
0.118847
0.123851
0.129309
0.13508
0.140924
0.146548
0.15156
0.155511
0.157907
0.15817
0.155552
0.148942
0.136351
0.112871
0.0560257
0.101853
0.104331
0.10724
0.110654
0.114627
0.119186
0.124315
0.129931
0.135813
0.141635
0.146887
0.151033
0.153559
0.153927
0.151462
0.14516
0.133164
0.110674
0.0554494
0.100049
0.101992
0.104307
0.107077
0.110386
0.114312
0.118927
0.124271
0.130236
0.13647
0.142193
0.146709
0.149483
0.15003
0.147769
0.141819
0.13049
0.10904
0.0552362
0.0988455
0.100214
0.101869
0.10389
0.106371
0.109437
0.113261
0.1181
0.124212
0.131234
0.137754
0.14283
0.145945
0.146716
0.144675
0.139074
0.128399
0.108081
0.0558421
0.0984333
0.099226
0.100197
0.101405
0.10293
0.1049
0.107559
0.111483
0.117956
0.126365
0.13404
0.139799
0.143275
0.144256
0.142403
0.137093
0.126983
0.107892
0.0577231
0.0990258
0.0992771
0.0995889
0.0999826
0.10049
0.101176
0.102222
0.104461
0.112652
0.122858
0.131701
0.138038
0.141783
0.142902
0.141164
0.136041
0.126377
0.108704
0.0609402
)
;

boundaryField
{
    leftWall
    {
        type            kqRWallFunction;
        value           nonuniform List<scalar> 
50
(
0.00228589
0.00472034
0.00697384
0.00900863
0.0108073
0.0124014
0.0138471
0.0151696
0.0171611
0.0187276
0.0196022
0.0197083
0.0193847
0.0195789
0.0211558
0.0237885
0.0271629
0.0305518
0.0312321
0.0297118
0.026946
0.0238311
0.0211304
0.0193733
0.0182667
0.0175667
0.0170969
0.0167298
0.0163832
0.0160129
0.0156026
0.0151549
0.0146838
0.0142094
0.0137528
0.0133345
0.0129719
0.0126796
0.0124695
0.0123518
0.0123352
0.0124271
0.0126317
0.0129464
0.0133576
0.0138368
0.0143395
0.014808
0.0151781
0.0153831
)
;
    }
    rightWall
    {
        type            kqRWallFunction;
        value           nonuniform List<scalar> 
50
(
0.00816017
0.0132668
0.0172964
0.0224987
0.0287789
0.0358289
0.0431012
0.0505665
0.0660324
0.0847732
0.0986398
0.108397
0.115758
0.117232
0.111912
0.102828
0.0929177
0.0814622
0.0703785
0.0651474
0.0704789
0.0746201
0.0769457
0.0780964
0.078366
0.078206
0.0782136
0.0781003
0.0777648
0.0772254
0.0764476
0.0753844
0.0740073
0.0723393
0.0705119
0.0688327
0.0674661
0.0661689
0.0647206
0.0631836
0.0616722
0.0600077
0.0582179
0.0568628
0.0560257
0.0554494
0.0552362
0.0558421
0.0577231
0.0609402
)
;
    }
    lowerWall
    {
        type            kqRWallFunction;
        value           nonuniform List<scalar> 
62
(
0.00228589
0.0044687
0.0067411
0.00856823
0.0101797
0.0118225
0.0137142
0.0160605
0.0190409
0.0228289
0.0270064
0.0310585
0.0344542
0.0366994
0.037888
0.0381764
0.0377961
0.0370082
0.0363366
0.0344637
0.0292218
0.0188303
0.00685138
0.00685138
0.0140794
0.0182951
0.0235801
0.0307947
0.0431848
0.0630321
0.0937044
0.0864489
0.0707528
0.0678235
0.0759085
0.0147613
0.0292532
0.039463
0.0475961
0.0534202
0.0578023
0.0616391
0.0677903
0.0147613
0.0196441
0.0326851
0.0466888
0.0601794
0.0728139
0.0813001
0.0821925
0.0763396
0.070874
0.065584
0.0588731
0.0511054
0.0449692
0.0401145
0.0333722
0.0254185
0.0164788
0.00816017
)
;
    }
    atmosphere
    {
        type            inletOutlet;
        inletValue      uniform 0.1;
        value           nonuniform List<scalar> 
46
(
0.0153831
0.0330975
0.042015
0.0482186
0.0532552
0.0578573
0.0626639
0.0685585
0.076965
0.1
0.1
0.1
0.1
0.1
0.1
0.1
0.1
0.1
0.1
0.1
0.1
0.1
0.1
0.1
0.1
0.1
0.1
0.1
0.1
0.1
0.1
0.1
0.1
0.1
0.1
0.112652
0.122858
0.131701
0.138038
0.141783
0.142902
0.141164
0.136041
0.126377
0.108704
0.0609402
)
;
    }
    defaultFaces
    {
        type            empty;
    }
}


// ************************************************************************* //
