/*--------------------------------*- C++ -*----------------------------------*\
  =========                 |
  \\      /  F ield         | OpenFOAM: The Open Source CFD Toolbox
   \\    /   O peration     | Website:  https://openfoam.org
    \\  /    A nd           | Version:  9
     \\/     M anipulation  |
\*---------------------------------------------------------------------------*/
FoamFile
{
    format      ascii;
    class       surfaceScalarField;
    location    "1.04";
    object      phi;
}
// * * * * * * * * * * * * * * * * * * * * * * * * * * * * * * * * * * * * * //

dimensions      [0 3 -1 0 0 0 0];

internalField   nonuniform List<scalar> 
4432
(
2.04022e-06
-2.04022e-06
1.10131e-06
9.38909e-07
-6.18885e-07
1.7202e-06
-2.43955e-06
1.82066e-06
-4.20652e-06
1.76697e-06
-5.75918e-06
1.55266e-06
-6.93027e-06
1.17109e-06
-7.55527e-06
6.24997e-07
-7.52526e-06
-3.00143e-08
-6.89106e-06
-6.34196e-07
-5.90742e-06
-9.83637e-07
-4.92909e-06
-9.78339e-07
-4.30953e-06
-6.19558e-07
-4.39881e-06
8.92855e-08
-5.34692e-06
9.48108e-07
-6.80241e-06
1.45549e-06
-8.09577e-06
1.29335e-06
-8.25768e-06
1.61908e-07
-6.3671e-06
-1.89057e-06
-2.27768e-06
-4.08941e-06
2.501e-06
-4.77867e-06
4.21065e-06
-1.70965e-06
4.21064e-06
2.60827e-07
-2.30105e-06
-9.17061e-07
2.11679e-06
-2.70725e-06
3.5104e-06
-4.56977e-06
3.68318e-06
-6.21708e-06
3.41428e-06
-7.44895e-06
2.78452e-06
-8.11757e-06
1.83972e-06
-8.16872e-06
6.76148e-07
-7.68292e-06
-5.15818e-07
-6.84066e-06
-1.47645e-06
-5.87952e-06
-1.94478e-06
-5.09157e-06
-1.76629e-06
-4.79167e-06
-9.19456e-07
-5.21953e-06
5.17145e-07
-6.37537e-06
2.10393e-06
-7.99105e-06
3.07116e-06
-9.44713e-06
2.74944e-06
-9.96478e-06
6.79561e-07
-8.71416e-06
-3.14118e-06
-5.49388e-06
-7.30969e-06
-1.3256e-06
-8.94694e-06
1.80801e-06
-4.84327e-06
6.01865e-06
-7.9098e-07
-1.51007e-06
-2.12043e-06
3.44625e-06
-3.77572e-06
5.16568e-06
-5.44261e-06
5.35008e-06
-6.86001e-06
4.83168e-06
-7.84386e-06
3.76836e-06
-8.27912e-06
2.27498e-06
-8.15122e-06
5.48245e-07
-7.56052e-06
-1.10652e-06
-6.69495e-06
-2.34202e-06
-5.80023e-06
-2.83951e-06
-5.15835e-06
-2.40817e-06
-5.05373e-06
-1.02408e-06
-5.69155e-06
1.15497e-06
-7.06219e-06
3.47456e-06
-8.89388e-06
4.90285e-06
-1.0656e-05
4.51158e-06
-1.16138e-05
1.63734e-06
-1.09219e-05
-3.83309e-06
-8.24602e-06
-9.98557e-06
-4.2763e-06
-1.29167e-05
-6.43626e-07
-8.47595e-06
5.37502e-06
-1.43967e-06
-7.03983e-08
-2.88281e-06
4.88939e-06
-4.42905e-06
6.71192e-06
-5.92568e-06
6.84671e-06
-7.16203e-06
6.06802e-06
-7.97805e-06
4.58438e-06
-8.27915e-06
2.57609e-06
-8.06431e-06
3.33411e-07
-7.43554e-06
-1.73529e-06
-6.57759e-06
-3.19997e-06
-5.74175e-06
-3.67535e-06
-5.21269e-06
-2.93723e-06
-5.2672e-06
-9.69578e-07
-6.10948e-06
1.99725e-06
-7.73267e-06
5.09774e-06
-9.87458e-06
7.04475e-06
-1.20583e-05
6.69528e-06
-1.3566e-05
3.14512e-06
-1.34337e-05
-3.96541e-06
-1.11386e-05
-1.22807e-05
-7.14132e-06
-1.6914e-05
-2.80005e-06
-1.28172e-05
2.57498e-06
-1.84395e-06
1.77355e-06
-3.38085e-06
6.4263e-06
-4.85306e-06
8.18413e-06
-6.2183e-06
8.21195e-06
-7.32e-06
7.16972e-06
-8.02315e-06
5.28754e-06
-8.24521e-06
2.79815e-06
-7.98749e-06
7.56889e-08
-7.34765e-06
-2.37513e-06
-6.50522e-06
-4.04241e-06
-5.71784e-06
-4.46274e-06
-5.28079e-06
-3.37429e-06
-5.47724e-06
-7.73132e-07
-6.53305e-06
3.05305e-06
-8.45409e-06
7.01879e-06
-1.09903e-05
9.58093e-06
-1.37073e-05
9.41229e-06
-1.58751e-05
5.31292e-06
-1.63362e-05
-3.50427e-06
-1.43454e-05
-1.42715e-05
-1.01495e-05
-2.11098e-05
-4.73279e-06
-1.82339e-05
-2.15781e-06
-2.09553e-06
3.86908e-06
-3.69723e-06
8.028e-06
-5.1168e-06
9.6037e-06
-6.38454e-06
9.47969e-06
-7.39255e-06
8.17773e-06
-8.02761e-06
5.92259e-06
-8.21197e-06
2.98252e-06
-7.94309e-06
-1.93194e-07
-7.31246e-06
-3.00575e-06
-6.49194e-06
-4.86294e-06
-5.74671e-06
-5.20797e-06
-5.38826e-06
-3.73273e-06
-5.71517e-06
-4.46217e-07
-6.99189e-06
4.32977e-06
-9.24716e-06
9.27407e-06
-1.22431e-05
1.25769e-05
-1.55837e-05
1.27529e-05
-1.85017e-05
8.2309e-06
-1.95917e-05
-2.41424e-06
-1.78988e-05
-1.59644e-05
-1.35561e-05
-2.54525e-05
-6.90588e-06
-2.48842e-05
-9.06369e-06
-2.24105e-06
6.11014e-06
-3.87525e-06
9.66219e-06
-5.25221e-06
1.09807e-05
-6.45018e-06
1.06777e-05
-7.40107e-06
9.12863e-06
-8.00803e-06
6.52955e-06
-8.19222e-06
3.16671e-06
-7.94322e-06
-4.42203e-07
-7.34573e-06
-3.60324e-06
-6.55921e-06
-5.64946e-06
-5.85582e-06
-5.91136e-06
-5.56657e-06
-4.02198e-06
-6.00884e-06
-3.94183e-09
-7.50383e-06
5.82476e-06
-1.01126e-05
1.18828e-05
-1.36084e-05
1.60727e-05
-1.76323e-05
1.67769e-05
-2.13506e-05
1.19492e-05
-2.30628e-05
-7.02078e-07
-2.17109e-05
-1.73163e-05
-1.76006e-05
-2.95628e-05
-1.03275e-05
-3.21573e-05
-1.93912e-05
-2.29991e-06
8.41005e-06
-3.94006e-06
1.13023e-05
-5.27697e-06
1.23176e-05
-6.42781e-06
1.18285e-05
-7.35564e-06
1.00565e-05
-7.97365e-06
7.14757e-06
-8.19747e-06
3.39053e-06
-8.00526e-06
-6.34415e-07
-7.47431e-06
-4.13419e-06
-6.74279e-06
-6.38099e-06
-6.08629e-06
-6.56786e-06
-5.85853e-06
-4.24974e-06
-6.3832e-06
5.20728e-07
-8.07587e-06
7.51743e-06
-1.1034e-05
1.4841e-05
-1.50322e-05
2.00709e-05
-1.97572e-05
2.15019e-05
-2.43253e-05
1.65172e-05
-2.6666e-05
1.63871e-06
-2.56169e-05
-1.83655e-05
-2.2109e-05
-3.30706e-05
-1.60054e-05
-3.82609e-05
-3.53966e-05
8.57547e-06
-8.57547e-06
-8.99974e-07
9.47545e-06
-1.74074e-05
1.65074e-05
-3.15218e-05
1.41145e-05
-3.62972e-05
4.77533e-06
-3.20456e-05
-4.2516e-06
-2.29914e-05
-9.05415e-06
-1.41644e-05
-8.82703e-06
-9.20653e-06
-4.95784e-06
-6.25768e-06
-2.94885e-06
-4.07625e-06
-2.18142e-06
-2.60929e-06
-1.46697e-06
-2.24536e-06
-3.63941e-07
-1.95854e-06
-2.86814e-07
-4.51657e-07
-1.50689e-06
1.28668e-06
-1.73835e-06
2.89979e-06
-1.61311e-06
4.02975e-06
-1.12997e-06
4.02974e-06
4.89546e-07
-9.06502e-06
-8.7354e-06
1.87004e-05
-2.17492e-05
2.95211e-05
-3.0972e-05
2.33373e-05
-3.27585e-05
6.56179e-06
-2.86508e-05
-8.35924e-06
-2.09884e-05
-1.67166e-05
-1.32345e-05
-1.6581e-05
-8.21651e-06
-9.97577e-06
-4.82131e-06
-6.34406e-06
-1.9599e-06
-5.04281e-06
1.89056e-07
-3.61592e-06
1.38307e-06
-1.55797e-06
1.93418e-06
-8.37926e-07
2.42633e-06
-1.99904e-06
2.7682e-06
-2.08024e-06
2.61593e-06
-1.46083e-06
2.51976e-06
-1.03381e-06
6.5495e-06
-4.03451e-06
-5.03051e-06
-1.14387e-05
2.61046e-05
-2.02175e-05
3.82999e-05
-2.71541e-05
3.02739e-05
-2.92662e-05
8.67398e-06
-2.59371e-05
-1.16883e-05
-1.872e-05
-2.39337e-05
-1.13721e-05
-2.39289e-05
-6.44639e-06
-1.49015e-05
-2.85391e-06
-9.93655e-06
2.86536e-07
-8.18327e-06
2.73254e-06
-6.06193e-06
4.28567e-06
-3.11111e-06
5.01656e-06
-1.56882e-06
5.26461e-06
-2.24709e-06
4.75159e-06
-1.56725e-06
3.32944e-06
-3.86771e-08
1.42019e-06
8.75433e-07
7.96968e-06
-5.93899e-06
9.08483e-07
-1.13399e-05
3.15055e-05
-1.72396e-05
4.41996e-05
-2.36949e-05
3.67292e-05
-2.6728e-05
1.1707e-05
-2.38033e-05
-1.4613e-05
-1.59739e-05
-3.17631e-05
-8.59094e-06
-3.13118e-05
-4.27797e-06
-1.92144e-05
-6.39227e-07
-1.35753e-05
3.00047e-06
-1.1823e-05
5.96033e-06
-9.02179e-06
7.67498e-06
-4.82576e-06
8.30783e-06
-2.20168e-06
8.29163e-06
-2.23088e-06
7.0494e-06
-3.25026e-07
4.49395e-06
2.51676e-06
1.31471e-06
4.05467e-06
9.28438e-06
-6.41648e-06
7.32495e-06
-9.6362e-06
3.47252e-05
-1.33947e-05
4.79581e-05
-2.00286e-05
4.33631e-05
-2.45257e-05
1.62041e-05
-2.0996e-05
-1.81427e-05
-1.28173e-05
-3.99418e-05
-4.4948e-06
-3.96344e-05
-1.23791e-06
-2.24713e-05
1.97652e-06
-1.67897e-05
6.22492e-06
-1.60714e-05
9.833e-06
-1.26299e-05
1.16651e-05
-6.65782e-06
1.18695e-05
-2.40613e-06
1.10013e-05
-1.36265e-06
8.96431e-06
1.71195e-06
5.57656e-06
5.90452e-06
1.75396e-06
7.87727e-06
1.10383e-05
-6.49256e-06
1.38175e-05
-7.44408e-06
3.56767e-05
-9.21219e-06
4.97262e-05
-1.63648e-05
5.05158e-05
-2.11784e-05
2.10177e-05
-1.62048e-05
-2.31163e-05
-9.66068e-06
-4.64859e-05
-1.16122e-06
-4.81338e-05
2.79532e-06
-2.64278e-05
5.64781e-06
-1.96422e-05
1.06918e-05
-2.11153e-05
1.43427e-05
-1.62808e-05
1.5667e-05
-7.98213e-06
1.49408e-05
-1.67989e-06
1.32171e-05
3.61082e-07
1.03754e-05
4.55363e-06
6.30998e-06
9.96994e-06
2.37827e-06
1.1809e-05
1.34166e-05
-6.12437e-06
1.99419e-05
-5.68358e-06
3.52359e-05
-5.88008e-06
4.99227e-05
-1.30238e-05
5.76594e-05
-1.61297e-05
2.41236e-05
-1.17583e-05
-2.74877e-05
-6.67964e-06
-5.15646e-05
-7.84275e-07
-5.40292e-05
5.77486e-06
-3.29869e-05
1.06477e-05
-2.45151e-05
1.67196e-05
-2.71872e-05
2.02659e-05
-1.98272e-05
1.97963e-05
-7.51246e-06
1.74909e-05
6.25466e-07
1.49017e-05
2.95032e-06
1.13809e-05
8.07443e-06
6.44972e-06
1.49011e-05
2.33975e-06
1.59189e-05
1.57563e-05
-5.43717e-06
2.5379e-05
-3.84954e-06
3.36483e-05
-2.95104e-06
4.90242e-05
-9.24807e-06
6.39564e-05
-1.01596e-05
2.50352e-05
-7.16193e-06
-3.04854e-05
-3.51066e-06
-5.52159e-05
7.03268e-07
-5.82431e-05
7.49503e-06
-3.97787e-05
1.38015e-05
-3.08216e-05
2.06377e-05
-3.40234e-05
2.59202e-05
-2.51096e-05
2.46169e-05
-6.20921e-06
1.99022e-05
5.34016e-06
1.56528e-05
7.19972e-06
9.7549e-06
1.39724e-05
3.89298e-06
2.0763e-05
4.97858e-07
1.93141e-05
1.62542e-05
-4.81425e-06
1.32243e-05
-8.26714e-06
1.47552e-05
-1.09937e-05
1.50442e-05
-1.33499e-05
1.41847e-05
-1.53616e-05
1.20682e-05
-1.68575e-05
8.64342e-06
-1.76155e-05
4.14854e-06
-1.75761e-05
-6.73777e-07
-1.68408e-05
-4.86949e-06
-1.55765e-05
-7.64533e-06
-1.43441e-05
-7.80027e-06
-1.40315e-05
-4.56233e-06
-1.52152e-05
1.70444e-06
-1.92733e-05
1.15756e-05
-2.66744e-05
2.22421e-05
-3.66505e-05
3.00469e-05
-4.91644e-05
3.40158e-05
-6.352e-05
3.08729e-05
-6.92073e-05
7.326e-06
-6.60164e-05
-2.15564e-05
-5.99776e-05
-3.91094e-05
-5.27229e-05
-4.55156e-05
-4.14661e-05
-4.66534e-05
-4.27259e-06
1.74969e-05
-7.34392e-06
1.78266e-05
-9.91317e-06
1.76134e-05
-1.23664e-05
1.66379e-05
-1.47923e-05
1.44941e-05
-1.70058e-05
1.0857e-05
-1.86836e-05
5.82634e-06
-1.97796e-05
4.22191e-07
-2.0391e-05
-4.2581e-06
-1.99608e-05
-8.07549e-06
-1.92655e-05
-8.49563e-06
-1.88365e-05
-4.99131e-06
-1.84864e-05
1.35437e-06
-2.05423e-05
1.36314e-05
-2.85926e-05
3.02925e-05
-4.07358e-05
4.21901e-05
-5.82342e-05
5.15142e-05
-8.02214e-05
5.28602e-05
-8.07296e-05
7.83415e-06
-7.55996e-05
-2.66864e-05
-7.01108e-05
-4.45981e-05
-6.4792e-05
-5.08344e-05
-4.73812e-05
-5.88769e-05
-3.13898e-06
2.06359e-05
-5.60308e-06
2.02907e-05
-7.98491e-06
1.99953e-05
-1.0679e-05
1.9332e-05
-1.38279e-05
1.7643e-05
-1.72449e-05
1.4274e-05
-2.04709e-05
9.05232e-06
-2.32776e-05
3.22889e-06
-2.65531e-05
-9.82538e-07
-2.92833e-05
-5.3453e-06
-2.99391e-05
-7.83991e-06
-2.85568e-05
-6.3736e-06
-2.5193e-05
-2.00939e-06
-2.09321e-05
9.37052e-06
-2.4403e-05
3.37634e-05
-3.89597e-05
5.67467e-05
-5.82255e-05
7.07801e-05
-7.66324e-05
7.1267e-05
-7.54374e-05
6.63926e-06
-7.27627e-05
-2.93611e-05
-6.91968e-05
-4.81641e-05
-6.49195e-05
-5.51117e-05
-5.31501e-05
-5.91507e-05
-1.3812e-06
2.20171e-05
-3.04469e-06
2.19542e-05
-5.12907e-06
2.20796e-05
-8.04071e-06
2.22436e-05
-1.19958e-05
2.1598e-05
-1.69338e-05
1.9212e-05
-2.24477e-05
1.45662e-05
-2.85525e-05
9.33366e-06
-3.65671e-05
7.032e-06
-4.93285e-05
7.41613e-06
-5.9849e-05
2.68056e-06
-6.28687e-05
-3.35392e-06
-5.67828e-05
-8.09528e-06
-3.87198e-05
-8.69237e-06
-1.98267e-05
1.48703e-05
-1.09013e-05
4.78212e-05
-7.78646e-06
6.76652e-05
-2.12217e-05
8.47022e-05
-5.17685e-05
3.71861e-05
-6.10063e-05
-2.01234e-05
-6.23956e-05
-4.67748e-05
-6.0197e-05
-5.73103e-05
-5.768e-05
-5.5667e-05
6.50564e-07
2.13665e-05
5.73695e-08
2.25474e-05
-1.45689e-06
2.35939e-05
-4.21056e-06
2.49973e-05
-8.52089e-06
2.59084e-05
-1.47359e-05
2.5427e-05
-2.38763e-05
2.37066e-05
-4.00116e-05
2.5469e-05
-6.17776e-05
2.8798e-05
-7.88225e-05
2.44609e-05
-9.08705e-05
1.47286e-05
-9.79944e-05
3.77e-06
-9.98655e-05
-6.22416e-06
-9.7007e-05
-1.15509e-05
-7.7067e-05
-5.06972e-06
-3.82228e-05
8.97704e-06
1.16433e-05
1.77992e-05
4.40079e-05
5.23377e-05
1.005e-05
7.11438e-05
-3.28814e-05
2.28081e-05
-5.72131e-05
-2.2443e-05
-5.52129e-05
-5.93106e-05
-6.09569e-05
-5.1936e-05
2.38996e-06
1.89766e-05
3.13289e-06
2.18045e-05
2.59873e-06
2.4128e-05
7.13561e-07
2.68824e-05
-2.7787e-06
2.94006e-05
-9.24403e-06
3.18924e-05
-2.35136e-05
3.79762e-05
-6.29621e-05
6.49174e-05
-8.91427e-05
5.49786e-05
-9.82396e-05
3.35578e-05
-0.000105654
2.21432e-05
-0.000114757
1.28728e-05
-0.00012245
1.46895e-06
-0.000127077
-6.92352e-06
-0.000123005
-9.14213e-06
-0.000101506
-1.25221e-05
-6.5968e-05
-1.77389e-05
-1.73375e-05
3.70732e-06
9.55086e-06
4.42555e-05
-8.35607e-06
4.0715e-05
-3.39295e-05
3.13039e-06
-4.96825e-05
-4.35576e-05
-5.91273e-05
-5.15122e-05
1.51295e-06
1.74636e-05
4.79109e-06
1.85263e-05
5.37016e-06
2.3549e-05
4.15001e-06
2.81026e-05
-2.43233e-08
3.35749e-05
-1.28786e-05
4.47467e-05
-4.71876e-05
7.2285e-05
-8.16498e-05
9.93796e-05
-9.39835e-05
6.73122e-05
-9.7056e-05
3.66303e-05
-0.000102323
2.74098e-05
-0.00011515
2.57002e-05
-0.000131777
1.80956e-05
-0.000138411
-2.89013e-07
-0.000138606
-8.94769e-06
-0.000129546
-2.15816e-05
-0.000121607
-2.56775e-05
-0.000102275
-1.56247e-05
-6.20744e-05
4.05444e-06
-4.22606e-05
2.09012e-05
-3.99066e-05
7.76377e-07
-4.1794e-05
-4.16701e-05
-5.60664e-05
-4.48548e-05
-1.3917e-06
1.88553e-05
1.74971e-06
1.5385e-05
1.51276e-06
2.37859e-05
-2.71574e-06
3.23311e-05
-1.32284e-05
4.40875e-05
-3.50475e-05
6.65658e-05
-5.89647e-05
9.62022e-05
-6.89532e-05
0.000109368
-7.32864e-05
7.16455e-05
-8.32406e-05
4.65846e-05
-9.63268e-05
4.04961e-05
-0.000109656
3.90289e-05
-0.000123313
3.1753e-05
-0.000137769
1.41665e-05
-0.000140984
-5.73259e-06
-0.000138534
-2.40316e-05
-0.000137142
-2.70691e-05
-0.000131708
-2.10592e-05
-0.000118249
-9.40392e-06
-9.49902e-05
-2.35782e-06
-7.40834e-05
-2.01304e-05
-6.64903e-05
-4.92632e-05
-5.94449e-05
-6.31118e-05
-1.93839e-06
2.07938e-05
-7.29689e-06
2.07435e-05
-1.44918e-05
3.09807e-05
-2.39898e-05
4.18291e-05
-3.61109e-05
5.62087e-05
-4.71885e-05
7.76436e-05
-5.34848e-05
0.000102498
-5.30553e-05
0.000108939
-6.36733e-05
8.22634e-05
-7.85241e-05
6.14356e-05
-9.19555e-05
5.39275e-05
-0.000103418
5.04914e-05
-0.000113651
4.19864e-05
-0.000123523
2.40385e-05
-0.000129321
6.47857e-08
-0.000136237
-1.71151e-05
-0.000138959
-2.43472e-05
-0.000133351
-2.66672e-05
-0.000123388
-1.93669e-05
-0.000107925
-1.7821e-05
-8.78301e-05
-4.0225e-05
-7.87357e-05
-5.83576e-05
-6.49875e-05
-7.31931e-05
-7.28687e-06
2.80806e-05
-1.71788e-05
3.06353e-05
-2.59927e-05
3.97946e-05
-3.49827e-05
5.08191e-05
-4.36388e-05
6.48646e-05
-4.89604e-05
8.29651e-05
-4.74214e-05
0.000100959
-4.37451e-05
0.000105263
-5.1574e-05
9.00923e-05
-6.444e-05
7.43015e-05
-7.58616e-05
6.5349e-05
-8.39397e-05
5.85695e-05
-9.02031e-05
4.82499e-05
-9.78729e-05
3.17084e-05
-0.000109967
1.21591e-05
-0.00012369
-3.3925e-06
-0.000131523
-1.65138e-05
-0.00013085
-2.7341e-05
-0.000113653
-3.65639e-05
-9.39921e-05
-3.74814e-05
-8.39788e-05
-5.02384e-05
-7.76142e-05
-6.47221e-05
-7.14898e-05
-7.11119e-05
-9.9394e-06
3.802e-05
-2.03161e-05
4.10118e-05
-2.86473e-05
4.81259e-05
-3.54807e-05
5.76524e-05
-4.04661e-05
6.98498e-05
-4.18252e-05
8.43244e-05
-3.82125e-05
9.73468e-05
-3.42216e-05
0.000101272
-3.74584e-05
9.3329e-05
-4.53125e-05
8.21556e-05
-5.27928e-05
7.28293e-05
-5.80996e-05
6.38764e-05
-6.22756e-05
5.24261e-05
-6.77293e-05
3.71621e-05
-7.55595e-05
1.99891e-05
-8.2755e-05
3.80304e-06
-8.74244e-05
-1.18443e-05
-8.66373e-05
-2.81281e-05
-8.18138e-05
-4.13874e-05
-7.13685e-05
-4.79266e-05
-6.9074e-05
-5.25329e-05
-6.89341e-05
-6.4862e-05
-7.40402e-05
-6.63837e-05
-9.42905e-06
4.7449e-05
-1.82497e-05
4.98323e-05
-2.5058e-05
5.49343e-05
-2.98178e-05
6.24122e-05
-3.20958e-05
7.21278e-05
-3.09833e-05
8.32119e-05
-2.65216e-05
9.28851e-05
-2.1953e-05
9.67031e-05
-2.14691e-05
9.28451e-05
-2.43797e-05
8.50663e-05
-2.79404e-05
7.63901e-05
-3.08249e-05
6.67609e-05
-3.34184e-05
5.50195e-05
-3.68889e-05
4.06326e-05
-4.15129e-05
2.46133e-05
-4.60643e-05
8.35444e-06
-4.99725e-05
-7.93621e-06
-5.35852e-05
-2.45153e-05
-5.62124e-05
-3.87601e-05
-5.62972e-05
-4.78418e-05
-5.35753e-05
-5.52548e-05
-5.30755e-05
-6.53618e-05
-7.49359e-05
-5.21797e-05
-6.91781e-06
5.43668e-05
-1.35639e-05
5.64785e-05
-1.85471e-05
5.99175e-05
-2.14798e-05
6.53448e-05
-2.18891e-05
7.25369e-05
-1.93271e-05
8.06499e-05
-1.42129e-05
8.77709e-05
-8.70794e-06
9.11981e-05
-5.3897e-06
8.95269e-05
-4.44555e-06
8.41221e-05
-4.65103e-06
7.65955e-05
-5.18438e-06
6.72943e-05
-6.09339e-06
5.59287e-05
-7.87579e-06
4.2415e-05
-1.06443e-05
2.73818e-05
-1.39673e-05
1.16775e-05
-1.76737e-05
-4.22993e-06
-2.21877e-05
-2.00013e-05
-2.68941e-05
-3.40537e-05
-2.98409e-05
-4.4895e-05
-3.07889e-05
-5.43068e-05
-3.20678e-05
-6.4083e-05
-7.37094e-05
-3.32946e-05
-3.63857e-06
5.80053e-05
-8.00845e-06
6.08485e-05
-1.1144e-05
6.30531e-05
-1.24811e-05
6.66816e-05
-1.15729e-05
7.16286e-05
-8.16198e-06
7.72389e-05
-2.63429e-06
8.22431e-05
3.61745e-06
8.49463e-05
8.89794e-06
8.42464e-05
1.26217e-05
8.03985e-05
1.51254e-05
7.40918e-05
1.67696e-05
6.565e-05
1.75639e-05
5.51344e-05
1.72844e-05
4.26947e-05
1.58535e-05
2.88127e-05
1.34146e-05
1.41164e-05
1.00101e-05
-8.25273e-07
5.568e-06
-1.55591e-05
5.5838e-07
-2.9044e-05
-3.78756e-06
-4.0549e-05
-7.35636e-06
-5.07379e-05
-1.09749e-05
-6.04643e-05
-6.96503e-05
-1.50338e-05
-5.65836e-07
5.8571e-05
-2.75093e-06
6.30336e-05
-4.11094e-06
6.44129e-05
-4.04594e-06
6.66164e-05
-2.15365e-06
6.97364e-05
1.75705e-06
7.33283e-05
7.44376e-06
7.65564e-05
1.4044e-05
7.83461e-05
2.04332e-05
7.78571e-05
2.59384e-05
7.48933e-05
3.04071e-05
6.96232e-05
3.38425e-05
6.22146e-05
3.6171e-05
5.28057e-05
3.7242e-05
4.16237e-05
3.69743e-05
2.90806e-05
3.53928e-05
1.56979e-05
3.25662e-05
2.00138e-06
2.85089e-05
-1.15017e-05
2.36188e-05
-2.41539e-05
1.85662e-05
-3.54965e-05
1.35224e-05
-4.56941e-05
8.16898e-06
-5.5111e-05
-6.37282e-05
2.24683e-06
1.75824e-06
5.68129e-05
1.51617e-06
6.32757e-05
1.78629e-06
6.41426e-05
3.08106e-06
6.53217e-05
5.74951e-06
6.7068e-05
9.97547e-06
6.91024e-05
1.56399e-05
7.0892e-05
2.22381e-05
7.1748e-05
2.90403e-05
7.10549e-05
3.54433e-05
6.84902e-05
4.10913e-05
6.39752e-05
4.57666e-05
5.75393e-05
4.92845e-05
4.92878e-05
5.14735e-05
3.94347e-05
5.22263e-05
2.83278e-05
5.15193e-05
1.64051e-05
4.93892e-05
4.13148e-06
4.59194e-05
-8.03185e-06
4.13811e-05
-1.96156e-05
3.61656e-05
-3.02811e-05
3.04576e-05
-3.99862e-05
2.4171e-05
-4.88244e-05
-5.67584e-05
1.72012e-05
2.93337e-06
5.38798e-05
4.48426e-06
6.17247e-05
6.20181e-06
6.2425e-05
8.56222e-06
6.29614e-05
1.18726e-05
6.37577e-05
1.63095e-05
6.46654e-05
2.18488e-05
6.53526e-05
2.82151e-05
6.53816e-05
3.49494e-05
6.43206e-05
4.15777e-05
6.18619e-05
4.77101e-05
5.78428e-05
5.30355e-05
5.22138e-05
5.72948e-05
4.50286e-05
6.02765e-05
3.64531e-05
6.18389e-05
2.67653e-05
6.19209e-05
1.63231e-05
6.0534e-05
5.51842e-06
5.77594e-05
-5.25717e-06
5.37812e-05
-1.56374e-05
4.88463e-05
-2.5346e-05
4.31174e-05
-3.42572e-05
3.66228e-05
-4.23297e-05
-4.94912e-05
2.93556e-05
3.4165e-06
5.04632e-05
6.27121e-06
5.88697e-05
9.13891e-06
5.95573e-05
1.23649e-05
5.97355e-05
1.61935e-05
5.9929e-05
2.07822e-05
6.00765e-05
2.61576e-05
5.99772e-05
3.21823e-05
5.93568e-05
3.8578e-05
5.79249e-05
4.50015e-05
5.54384e-05
5.11101e-05
5.17343e-05
5.65876e-05
4.67364e-05
6.11537e-05
4.04625e-05
6.4577e-05
3.30298e-05
6.66925e-05
2.465e-05
6.74114e-05
1.56042e-05
6.67198e-05
6.2101e-06
6.4673e-05
-3.21029e-06
6.13949e-05
-1.23593e-05
5.70487e-05
-2.09997e-05
5.1767e-05
-2.89755e-05
4.56208e-05
-3.61835e-05
-4.25236e-05
3.86533e-05
3.53924e-06
4.69237e-05
7.18048e-06
5.52284e-05
1.08361e-05
5.59017e-05
1.46868e-05
5.58848e-05
1.88953e-05
5.57204e-05
2.35812e-05
5.53906e-05
2.87851e-05
5.47732e-05
3.44439e-05
5.3698e-05
4.03921e-05
5.19766e-05
4.63936e-05
4.94369e-05
5.21789e-05
4.59491e-05
5.74725e-05
4.14428e-05
6.2015e-05
3.592e-05
6.55828e-05
2.9462e-05
6.80073e-05
2.22256e-05
6.91854e-05
1.44261e-05
6.90818e-05
6.31385e-06
6.77229e-05
-1.85141e-06
6.51881e-05
-9.8244e-06
6.15864e-05
-1.7398e-05
5.70211e-05
-2.44101e-05
5.15695e-05
-3.07319e-05
-3.6247e-05
4.52929e-05
3.50127e-06
4.34223e-05
7.52221e-06
5.12075e-05
1.16208e-05
5.18032e-05
1.58454e-05
5.16601e-05
2.02799e-05
5.12859e-05
2.49962e-05
5.06742e-05
3.00254e-05
4.9744e-05
3.53357e-05
4.83875e-05
4.08268e-05
4.64854e-05
4.63389e-05
4.39246e-05
5.16726e-05
4.06153e-05
5.66086e-05
3.65067e-05
6.09293e-05
3.15993e-05
6.44389e-05
2.59523e-05
6.69819e-05
1.96826e-05
6.84541e-05
1.29539e-05
6.8807e-05
5.96099e-06
6.8044e-05
-1.08833e-06
6.62105e-05
-7.99094e-06
6.33788e-05
-1.45662e-05
5.96261e-05
-2.06573e-05
5.50222e-05
-2.6128e-05
-3.08551e-05
4.96304e-05
3.39645e-06
4.00259e-05
7.52852e-06
4.70756e-05
1.17981e-05
4.75338e-05
1.6174e-05
4.7284e-05
2.06821e-05
4.67779e-05
2.53512e-05
4.60051e-05
3.01919e-05
4.49034e-05
3.51799e-05
4.33994e-05
4.02481e-05
4.14172e-05
4.52862e-05
3.88864e-05
5.01499e-05
3.57516e-05
5.46732e-05
3.19833e-05
5.86849e-05
2.75876e-05
6.20249e-05
2.26123e-05
6.45604e-05
1.71471e-05
6.61958e-05
1.13184e-05
6.68781e-05
5.27869e-06
6.65959e-05
-8.06017e-07
6.53709e-05
-6.76591e-06
6.32497e-05
-1.24449e-05
6.02888e-05
-1.76964e-05
5.65472e-05
-2.23863e-05
-2.63915e-05
5.20837e-05
3.26478e-06
3.67613e-05
7.34688e-06
4.29936e-05
1.15995e-05
4.32812e-05
1.59548e-05
4.29287e-05
2.04049e-05
4.23279e-05
2.49481e-05
4.1462e-05
2.95751e-05
4.02765e-05
3.42586e-05
3.8716e-05
3.89457e-05
3.67302e-05
4.35559e-05
3.42762e-05
4.79837e-05
3.13238e-05
5.21058e-05
2.78612e-05
5.5792e-05
2.39015e-05
5.89174e-05
1.9487e-05
6.13742e-05
1.46903e-05
6.30809e-05
9.61178e-06
6.39868e-05
4.37291e-06
6.40726e-05
-8.9177e-07
6.33463e-05
-6.03958e-06
6.18368e-05
-1.09354e-05
5.95855e-05
-1.5445e-05
5.66409e-05
-1.94416e-05
-2.28067e-05
5.30561e-05
3.12224e-06
3.36391e-05
7.06288e-06
3.90532e-05
1.11806e-05
3.91634e-05
1.53965e-05
3.87129e-05
1.96879e-05
3.80366e-05
2.40365e-05
3.71135e-05
2.84194e-05
3.58936e-05
3.28038e-05
3.43317e-05
3.71426e-05
3.23914e-05
4.13718e-05
3.0047e-05
4.54117e-05
2.7284e-05
4.91698e-05
2.4103e-05
5.25485e-05
2.05228e-05
5.54524e-05
1.65831e-05
5.77971e-05
1.23456e-05
5.95164e-05
7.89255e-06
6.05659e-05
3.32346e-06
6.09238e-05
-1.24967e-06
6.05919e-05
-5.70774e-06
5.95876e-05
-9.93099e-06
5.79416e-05
-1.3799e-05
5.56943e-05
-1.71942e-05
-2.00057e-05
5.28933e-05
2.97474e-06
3.06644e-05
6.72385e-06
3.53043e-05
1.06378e-05
3.52495e-05
1.46398e-05
3.47109e-05
1.8704e-05
3.39724e-05
2.2806e-05
3.30116e-05
2.69163e-05
3.17833e-05
3.0999e-05
3.0249e-05
3.50094e-05
2.8381e-05
3.88936e-05
2.61627e-05
4.25881e-05
2.35895e-05
4.6022e-05
2.06691e-05
4.91212e-05
1.74236e-05
5.18133e-05
1.38909e-05
5.40337e-05
1.01252e-05
5.573e-05
6.19622e-06
5.68656e-05
2.18782e-06
5.74211e-05
-1.80517e-06
5.73942e-05
-5.68092e-06
5.67968e-05
-9.33358e-06
5.56527e-05
-1.26549e-05
5.39958e-05
-1.55373e-05
-1.78784e-05
5.18686e-05
2.82345e-06
2.78411e-05
6.35481e-06
3.17732e-05
1.00279e-05
3.15764e-05
1.37741e-05
3.09649e-05
1.75701e-05
3.01765e-05
2.13915e-05
2.91903e-05
2.52081e-05
2.79668e-05
2.89838e-05
2.64733e-05
3.26768e-05
2.4688e-05
3.62397e-05
2.25998e-05
3.96201e-05
2.02092e-05
4.27616e-05
1.75275e-05
4.5607e-05
1.45782e-05
4.81011e-05
1.13969e-05
5.01942e-05
8.03205e-06
5.18458e-05
4.5445e-06
5.30272e-05
1.00642e-06
5.37222e-05
-2.50023e-06
5.39281e-05
-5.88675e-06
5.36535e-05
-9.05899e-06
5.2918e-05
-1.19194e-05
5.17507e-05
-1.437e-05
-1.63172e-05
5.01895e-05
2.66741e-06
2.51739e-05
5.96829e-06
2.84725e-05
9.38319e-06
2.81617e-05
1.28538e-05
2.74944e-05
1.63613e-05
2.66691e-05
1.98845e-05
2.56672e-05
2.33957e-05
2.44557e-05
2.68613e-05
2.30077e-05
3.02434e-05
2.1306e-05
3.35002e-05
1.93432e-05
3.65872e-05
1.71222e-05
3.94589e-05
1.46559e-05
4.20697e-05
1.19674e-05
4.43768e-05
9.0898e-06
4.63421e-05
6.06678e-06
4.79344e-05
2.95212e-06
4.91317e-05
-1.90894e-07
4.99215e-05
-3.29005e-06
5.03017e-05
-6.267e-06
5.02799e-05
-9.03715e-06
4.98726e-05
-1.15122e-05
4.91055e-05
-1.36029e-05
-1.52237e-05
4.80119e-05
2.50548e-06
2.26686e-05
5.5706e-06
2.54076e-05
8.72196e-06
2.50105e-05
1.19114e-05
2.43052e-05
1.51247e-05
2.34559e-05
1.83448e-05
2.24472e-05
2.15478e-05
2.12527e-05
2.47047e-05
1.98509e-05
2.77818e-05
1.82288e-05
3.07432e-05
1.63819e-05
3.35512e-05
1.43143e-05
3.61679e-05
1.20393e-05
3.85569e-05
9.57847e-06
4.06842e-05
6.96247e-06
4.25203e-05
4.2306e-06
4.40415e-05
1.43086e-06
4.52309e-05
-1.3803e-06
4.60797e-05
-4.13887e-06
4.65869e-05
-6.77418e-06
4.67594e-05
-9.20971e-06
4.66122e-05
-1.1365e-05
4.61677e-05
-1.31586e-05
-1.45116e-05
4.54556e-05
2.33753e-06
2.03312e-05
5.16569e-06
2.25796e-05
8.05502e-06
2.21214e-05
1.09661e-05
2.13942e-05
1.38888e-05
2.05334e-05
1.68096e-05
1.95265e-05
1.97093e-05
1.8353e-05
2.25635e-05
1.69968e-05
2.53437e-05
1.54486e-05
2.80195e-05
1.37061e-05
3.05592e-05
1.17746e-05
3.29316e-05
9.6669e-06
3.51069e-05
7.4031e-06
3.70583e-05
5.01103e-06
3.87627e-05
2.52615e-06
4.0202e-05
-8.42729e-09
4.13636e-05
-2.54194e-06
4.22415e-05
-5.01679e-06
4.28359e-05
-7.36867e-06
4.31539e-05
-9.52768e-06
4.32088e-05
-1.142e-05
4.30208e-05
-1.29706e-05
-1.41068e-05
4.26159e-05
2.16469e-06
1.81666e-05
4.75713e-06
1.99874e-05
7.38963e-06
1.9489e-05
1.00299e-05
1.87541e-05
1.26706e-05
1.78927e-05
1.53018e-05
1.68953e-05
1.79083e-05
1.57466e-05
2.04701e-05
1.4435e-05
2.29642e-05
1.29545e-05
2.53652e-05
1.13052e-05
2.76469e-05
9.49295e-06
2.97837e-05
7.53008e-06
3.17516e-05
5.43518e-06
3.35291e-05
3.23344e-06
3.50984e-05
9.56846e-07
3.64456e-05
-1.35565e-06
3.75619e-05
-3.65819e-06
3.84433e-05
-5.89819e-06
3.90913e-05
-8.01672e-06
3.9513e-05
-9.94933e-06
3.97207e-05
-1.16277e-05
3.97325e-05
-1.29824e-05
-1.39457e-05
3.95714e-05
1.98904e-06
1.61777e-05
4.34867e-06
1.7628e-05
6.73129e-06
1.71064e-05
9.11027e-06
1.63752e-05
1.14806e-05
1.55224e-05
1.38349e-05
1.45411e-05
1.61615e-05
1.342e-05
1.84448e-05
1.21517e-05
2.06662e-05
1.07332e-05
2.2805e-05
9.16641e-06
2.484e-05
7.45803e-06
2.67502e-05
5.61984e-06
2.85165e-05
3.6689e-06
3.0122e-05
1.62798e-06
3.15529e-05
-4.74038e-07
3.27991e-05
-2.60182e-06
3.38545e-05
-4.71355e-06
3.47172e-05
-6.76085e-06
3.53897e-05
-8.68922e-06
3.58791e-05
-1.04388e-05
3.61972e-05
-1.19458e-05
3.636e-05
-1.31453e-05
-1.39741e-05
3.63884e-05
1.81291e-06
1.4365e-05
3.94391e-06
1.54971e-05
6.08434e-06
1.49661e-05
8.21241e-06
1.42472e-05
1.03249e-05
1.341e-05
1.24167e-05
1.24493e-05
1.4479e-05
1.13577e-05
1.64998e-05
1.0131e-05
1.84643e-05
8.76886e-06
2.03556e-05
7.2751e-06
2.21566e-05
5.6571e-06
2.38504e-05
3.92609e-06
2.54217e-05
2.09761e-06
2.68576e-05
1.9213e-07
2.81479e-05
-1.76424e-06
2.92854e-05
-3.73935e-06
3.02666e-05
-5.6947e-06
3.10912e-05
-7.58547e-06
3.17628e-05
-9.36083e-06
3.22887e-05
-1.09647e-05
3.26801e-05
-1.23371e-05
3.29518e-05
-1.34171e-05
-1.41447e-05
3.31224e-05
1.63819e-06
1.27269e-05
3.54575e-06
1.35896e-05
5.45201e-06
1.30599e-05
7.33983e-06
1.23594e-05
9.20761e-06
1.15423e-05
1.10521e-05
1.06049e-05
1.28669e-05
9.54295e-06
1.46427e-05
8.3552e-06
1.63676e-05
7.04403e-06
1.80278e-05
5.61492e-06
1.96091e-05
4.07587e-06
2.10978e-05
2.43743e-06
2.24819e-05
7.13462e-07
2.37519e-05
-1.07781e-06
2.49006e-05
-2.91289e-06
2.59236e-05
-4.76234e-06
2.68194e-05
-6.5905e-06
2.75894e-05
-8.35548e-06
2.8238e-05
-1.00095e-05
2.8773e-05
-1.14996e-05
2.92051e-05
-1.27693e-05
2.95485e-05
-1.37604e-05
-1.44163e-05
2.982e-05
1.46597e-06
1.1261e-05
3.15601e-06
1.18996e-05
4.83667e-06
1.13794e-05
6.4954e-06
1.07008e-05
8.1321e-06
9.90562e-06
9.74501e-06
8.99204e-06
1.13296e-05
7.95834e-06
1.28787e-05
6.80616e-06
1.43823e-05
5.54047e-06
1.58286e-05
4.16865e-06
1.72053e-05
2.69919e-06
1.85011e-05
1.1416e-06
1.97069e-05
-4.92297e-07
2.08158e-05
-2.18668e-06
2.18235e-05
-3.92051e-06
2.27278e-05
-5.66672e-06
2.35293e-05
-7.39202e-06
2.42308e-05
-9.05694e-06
2.48374e-05
-1.06162e-05
2.53575e-05
-1.20197e-05
2.58016e-05
-1.32135e-05
2.61834e-05
-1.41423e-05
-1.47518e-05
2.65189e-05
1.2965e-06
9.96446e-06
2.77589e-06
1.04203e-05
4.24068e-06
9.91468e-06
5.6825e-06
9.25907e-06
7.10236e-06
8.48582e-06
8.49968e-06
7.59475e-06
9.87145e-06
6.58659e-06
1.1212e-05
5.46569e-06
1.25125e-05
4.23992e-06
1.37622e-05
2.919e-06
1.49496e-05
1.51186e-06
1.6065e-05
2.62266e-08
1.71015e-05
-1.52878e-06
1.80549e-05
-3.14005e-06
1.89233e-05
-4.78887e-06
1.97068e-05
-6.4502e-06
2.04074e-05
-8.09263e-06
2.10291e-05
-9.67864e-06
2.15779e-05
-1.11651e-05
2.20623e-05
-1.25041e-05
2.24931e-05
-1.36443e-05
2.28838e-05
-1.45329e-05
-1.51178e-05
2.32498e-05
1.1298e-06
8.83468e-06
2.40717e-06
9.14305e-06
3.66788e-06
8.65408e-06
4.90644e-06
8.0206e-06
6.12434e-06
7.26799e-06
7.32184e-06
6.3973e-06
8.4973e-06
5.41117e-06
9.64646e-06
4.31659e-06
1.07615e-05
3.12499e-06
1.18309e-05
1.8496e-06
1.28431e-05
4.99706e-07
1.37896e-05
-9.20153e-07
1.46655e-05
-2.40466e-06
1.54692e-05
-3.94373e-06
1.62012e-05
-5.52078e-06
1.68633e-05
-7.11229e-06
1.74588e-05
-8.68818e-06
1.79925e-05
-1.02124e-05
1.84709e-05
-1.16435e-05
1.89026e-05
-1.29357e-05
1.92984e-05
-1.40402e-05
1.96718e-05
-1.49063e-05
-1.54843e-05
2.00382e-05
9.67074e-07
7.86766e-06
2.05423e-06
8.056e-06
3.12551e-06
7.58289e-06
4.17608e-06
6.97011e-06
5.20701e-06
6.23711e-06
6.21932e-06
5.38505e-06
7.21307e-06
4.41747e-06
8.18595e-06
3.3438e-06
9.13077e-06
2.18026e-06
1.00344e-05
9.46094e-07
1.08833e-05
-3.49145e-07
1.16701e-05
-1.70693e-06
1.23928e-05
-3.12731e-06
1.30525e-05
-4.60334e-06
1.36517e-05
-6.11996e-06
1.41938e-05
-7.6544e-06
1.46829e-05
-9.17721e-06
1.51238e-05
-1.06533e-05
1.5523e-05
-1.20427e-05
1.58889e-05
-1.33016e-05
1.62323e-05
-1.43836e-05
1.65664e-05
-1.52405e-05
-1.58248e-05
1.69069e-05
8.12794e-07
7.05493e-06
1.72641e-06
7.14245e-06
2.62608e-06
6.68326e-06
3.50498e-06
6.09124e-06
4.36311e-06
5.37902e-06
5.20242e-06
4.54578e-06
6.0256e-06
3.59436e-06
6.83355e-06
2.53594e-06
7.62044e-06
1.39347e-06
8.36918e-06
1.97439e-07
9.0627e-06
-1.04259e-06
9.6959e-06
-2.34008e-06
1.02707e-05
-3.70211e-06
1.07916e-05
-5.12414e-06
1.12629e-05
-6.59127e-06
1.16887e-05
-8.08025e-06
1.2073e-05
-9.56147e-06
1.24202e-05
-1.10004e-05
1.27359e-05
-1.23584e-05
1.30279e-05
-1.35937e-05
1.33065e-05
-1.46621e-05
1.35845e-05
-1.55185e-05
-1.61178e-05
1.38775e-05
6.76531e-07
6.37845e-06
1.43975e-06
6.37924e-06
2.18848e-06
5.93454e-06
2.91202e-06
5.36771e-06
3.60941e-06
4.68166e-06
4.28415e-06
3.87109e-06
4.94262e-06
2.93597e-06
5.59117e-06
1.88747e-06
6.22752e-06
7.57208e-07
6.82716e-06
-4.02132e-07
7.36708e-06
-1.58246e-06
7.84804e-06
-2.82101e-06