/*--------------------------------*- C++ -*----------------------------------*\
  =========                 |
  \\      /  F ield         | OpenFOAM: The Open Source CFD Toolbox
   \\    /   O peration     | Website:  https://openfoam.org
    \\  /    A nd           | Version:  9
     \\/     M anipulation  |
\*---------------------------------------------------------------------------*/
FoamFile
{
    format      ascii;
    class       volScalarField;
    location    "2.23";
    object      p;
}
// * * * * * * * * * * * * * * * * * * * * * * * * * * * * * * * * * * * * * //

dimensions      [1 -1 -2 0 0 0 0];

internalField   nonuniform List<scalar> 
2268
(
696.809
696.936
697.473
698.22
699.123
700.175
701.395
702.813
704.483
706.454
708.779
711.497
714.627
718.154
722.03
726.159
730.385
734.417
738.093
742.058
745.736
747.464
747.264
637.962
637.996
638.471
639.208
640.136
641.224
642.483
643.954
645.67
647.695
650.08
652.86
656.046
659.62
663.537
667.712
672.041
676.627
681.135
684.441
687.107
688.17
687.861
579.04
579.14
579.525
580.227
581.155
582.267
583.566
585.072
586.839
588.92
591.368
594.214
597.462
601.092
605.064
609.313
613.772
618.695
623.783
626.885
628.462
628.889
628.502
520.053
520.259
520.609
521.272
522.183
523.298
524.612
526.144
527.943
530.064
532.557
535.453
538.757
542.446
546.487
550.838
555.443
560.503
565.988
569.171
570.319
570.072
569.504
461.008
461.329
461.686
462.315
463.201
464.304
465.619
467.158
468.966
471.101
473.615
476.543
479.893
483.644
487.767
492.233
496.997
502.153
507.738
511.374
512.583
511.898
510.973
401.905
402.336
402.725
403.328
404.19
405.275
406.581
408.109
409.906
412.031
414.544
417.486
420.876
424.695
428.91
433.501
438.441
443.742
449.33
453.544
455.324
454.67
452.886
342.745
343.279
343.708
344.294
345.136
346.201
347.501
349.006
350.774
352.869
355.36
358.302
361.732
365.632
369.954
374.682
379.824
385.38
391.218
396.058
399.189
399.315
394.584
283.526
284.149
284.612
285.19
286.031
287.083
288.393
289.872
291.595
293.64
296.087
299.023
302.515
306.532
310.995
315.876
321.256
327.21
333.629
339.592
345.005
347.467
337.002
799.129
796.354
792.338
785.346
776.517
766.413
755.876
745.814
741.576
736.364
730.265
724.05
716.93
711.581
707.164
702.481
696.764
692.314
689.575
741.418
737.579
732.679
725.45
716.826
707.061
697.383
689.405
685.046
679.118
672.171
665.894
660.063
654.59
649.49
644.517
638.829
634.601
631.811
683.913
679.5
673.667
666.089
657.616
648.435
639.887
633.717
627.535
621.413
614.246
607.985
602.949
597.328
591.908
586.292
580.313
575.784
572.879
626.803
622.184
615.483
607.52
599.108
590.455
582.454
577.821
571.832
563.189
556.333
550.026
545.234
539.891
534.179
528.156
521.826
517.24
515.221
569.997
565.483
557.699
549.372
540.974
532.8
525.545
523.021
517.935
507.048
498.822
491.911
486.627
481.463
475.897
470.969
467.716
462.588
460.99
514.569
508.842
499.949
491.357
482.943
475.235
469.556
469.409
463.942
453.641
442.311
433.579
427.282
422.082
417.204
413.664
412.326
409.345
407.405
456.763
451.381
442.025
433.341
424.847
417.43
413.453
415.141
409.769
398.814
385.163
374.779
367.507
362.508
358.44
355.345
354.324
352.752
351.633
405.702
392.398
383.665
375.372
366.653
358.872
356.028
359.171
353.682
342.006
326.282
315.234
307.256
303.31
299.748
296.49
294.546
293.047
291.928
190.82
191.544
192.044
192.632
193.509
194.64
195.897
197.294
198.895
200.794
203.104
205.988
209.593
213.86
218.594
223.724
229.505
236.267
244.139
252.953
262.471
271.344
274.79
72.275
72.9274
73.4443
74.0287
74.7812
75.7267
76.6952
77.6284
78.6374
79.8574
81.3855
83.381
86.1932
89.8349
94.0326
98.5282
103.657
110.055
118.436
129.395
142.887
155.541
164.832
8.67898
9.01154
9.49364
9.82288
9.99091
10.1007
10.3354
10.7092
11.1948
11.8169
12.6089
13.3414
14.1045
15.1795
16.9451
19.4148
22.3353
25.3792
28.9571
33.7364
40.9543
51.9575
62.6601
0.248593
0.371454
0.575914
0.63559
0.509701
0.276624
0.244951
0.441031
0.77755
1.17943
1.71775
2.03764
1.98744
1.80418
2.14908
3.23383
4.56677
5.36882
5.36334
4.74775
3.44051
3.86064
6.84954
0.103153
0.105819
0.170415
0.22427
0.197994
0.175754
0.160312
0.252318
0.432314
0.627327
0.813153
1.02742
1.13352
1.21352
1.56879
1.99184
2.27123
2.50892
2.24342
1.48679
0.72013
0.400134
0.281819
-0.275486
-0.357364
-0.400419
-0.365385
-0.295897
-0.193397
-0.146369
-0.182051
-0.200071
-0.168093
-0.0964013
0.0721476
0.176915
0.191738
0.391899
0.637366
0.871005
0.918244
0.742437
0.537431
0.214286
0.113724
0.0986702
-0.744444
-0.837199
-0.900369
-0.919075
-0.89815
-0.821639
-0.74249
-0.868694
-1.02025
-1.04697
-0.998702
-0.862295
-0.841547
-0.924839
-0.961267
-0.85732
-0.597422
-0.380697
-0.26348
-0.112625
-0.0387859
-0.0523357
-0.07033
-1.0937
-1.1918
-1.21634
-1.2694
-1.30872
-1.31029
-1.30598
-1.33383
-1.34219
-1.3434
-1.35559
-1.3832
-1.40565
-1.38435
-1.39101
-1.38756
-1.3327
-1.20265
-0.870788
-0.585553
-0.418919
-0.364548
-0.421699
-1.35486
-1.42719
-1.41513
-1.44694
-1.47601
-1.50099
-1.51402
-1.51026
-1.50054
-1.50091
-1.51083
-1.52406
-1.52979
-1.52174
-1.52284
-1.52507
-1.51108
-1.48017
-1.4136
-1.32731
-1.20761
-1.11807
-1.20462
-1.58942
-1.60932
-1.58983
-1.60141
-1.61563
-1.62794
-1.6343
-1.63552
-1.63363
-1.63493
-1.64139
-1.64984
-1.65312
-1.65064
-1.65319
-1.65773
-1.65831
-1.66733
-1.71444
-1.74927
-1.74834
-1.73658
-1.7464
-1.77927
-1.76514
-1.75018
-1.74861
-1.75289
-1.759
-1.76309
-1.76476
-1.76515
-1.76719
-1.77171
-1.77745
-1.78141
-1.7834
-1.78798
-1.79472
-1.80325
-1.82161
-1.85224
-1.86961
-1.88697
-1.89964
-1.9003
-1.90108
-1.89795
-1.89146
-1.88761
-1.88799
-1.89068
-1.89323
-1.89495
-1.89636
-1.89873
-1.90239
-1.90684
-1.91103
-1.9151
-1.9209
-1.92877
-1.93941
-1.95609
-1.97759
-1.99152
-1.99756
-1.99861
-1.99794
-2.02033
-2.02301
-2.02211
-2.0201
-2.02
-2.02138
-2.0231
-2.02476
-2.02656
-2.029
-2.03227
-2.03617
-2.04038
-2.04511
-2.0512
-2.05904
-2.06902
-2.08205
-2.09708
-2.10872
-2.1152
-2.11733
-2.11712
-2.14575
-2.14911
-2.14982
-2.14942
-2.14971
-2.15078
-2.15223
-2.15386
-2.15578
-2.15822
-2.16126
-2.16488
-2.16898
-2.17376
-2.17962
-2.18679
-2.19541
-2.20552
-2.21628
-2.22507
-2.23082
-2.23349
-2.23368
-2.27338
-2.276
-2.27675
-2.27722
-2.27795
-2.27907
-2.28049
-2.28216
-2.28414
-2.28653
-2.28942
-2.29281
-2.29672
-2.30127
-2.30664
-2.31294
-2.32013
-2.32797
-2.33618
-2.34272
-2.34728
-2.34964
-2.35001
-2.40105
-2.40283
-2.40326
-2.40414
-2.40519
-2.40645
-2.40794
-2.40967
-2.41167
-2.41402
-2.41678
-2.41996
-2.42361
-2.42779
-2.43258
-2.438
-2.44396
-2.45022
-2.45633
-2.46141
-2.465
-2.46695
-2.46734
-2.52861
-2.5293
-2.52956
-2.53057
-2.53176
-2.53312
-2.53468
-2.53645
-2.53846
-2.54076
-2.54338
-2.54635
-2.54971
-2.55348
-2.5577
-2.56232
-2.56724
-2.57223
-2.57695
-2.5809
-2.58375
-2.58533
-2.58566
-2.65595
-2.65572
-2.65579
-2.65668
-2.65787
-2.65926
-2.66084
-2.66262
-2.6646
-2.66682
-2.66931
-2.67207
-2.67514
-2.67852
-2.6822
-2.68613
-2.6902
-2.69422
-2.69795
-2.70106
-2.70331
-2.70458
-2.70485
-2.78292
-2.7821
-2.78193
-2.78258
-2.78366
-2.785
-2.78654
-2.78828
-2.79021
-2.79233
-2.79467
-2.79723
-2.80003
-2.80304
-2.80625
-2.8096
-2.81299
-2.81628
-2.81927
-2.82175
-2.82356
-2.82458
-2.82478
-2.90944
-2.90833
-2.90792
-2.9083
-2.90921
-2.91043
-2.91189
-2.91355
-2.91538
-2.9174
-2.91959
-2.92195
-2.92449
-2.92718
-2.92999
-2.93286
-2.93572
-2.93844
-2.94089
-2.9429
-2.94437
-2.9452
-2.94536
-3.03555
-3.03432
-3.03371
-3.03386
-3.03457
-3.03564
-3.03698
-3.03852
-3.04024
-3.04213
-3.04416
-3.04634
-3.04864
-3.05105
-3.05353
-3.05602
-3.05845
-3.06074
-3.06277
-3.06444
-3.06566
-3.06635
-3.06649
-3.16133
-3.16005
-3.1593
-3.15925
-3.15977
-3.16068
-3.16187
-3.16328
-3.16487
-3.16662
-3.16851
-3.17051
-3.1726
-3.17476
-3.17696
-3.17914
-3.18124
-3.1832
-3.18492
-3.18633
-3.18736
-3.18795
-3.18808
-3.28683
-3.28554
-3.28469
-3.28449
-3.28484
-3.28558
-3.28662
-3.2879
-3.28936
-3.29097
-3.2927
-3.29454
-3.29645
-3.2984
-3.30036
-3.30228
-3.30412
-3.30582
-3.30731
-3.30852
-3.30941
-3.30994
-3.31008
-3.41212
-3.41082
-3.40991
-3.40959
-3.40979
-3.41039
-3.41129
-3.41243
-3.41376
-3.41524
-3.41684
-3.41852
-3.42026
-3.42203
-3.42379
-3.42551
-3.42714
-3.42863
-3.42993
-3.431
-3.43179
-3.43227
-3.43242
-3.53727
-3.53596
-3.535
-3.53459
-3.53467
-3.53515
-3.53592
-3.53694
-3.53815
-3.5395
-3.54097
-3.54251
-3.5441
-3.54571
-3.5473
-3.54884
-3.5503
-3.55162
-3.55278
-3.55374
-3.55445
-3.5549
-3.55507
-3.66236
-3.661
-3.66
-3.65952
-3.65952
-3.6599
-3.66057
-3.66148
-3.66257
-3.66381
-3.66515
-3.66657
-3.66802
-3.66948
-3.67092
-3.67232
-3.67362
-3.67482
-3.67586
-3.67672
-3.67738
-3.6778
-3.678
-3.78743
-3.78602
-3.78499
-3.78446
-3.78439
-3.78469
-3.78527
-3.78609
-3.78708
-3.78821
-3.78944
-3.79073
-3.79205
-3.79338
-3.79469
-3.79595
-3.79713
-3.7982
-3.79915
-3.79993
-3.80054
-3.80096
-3.80117
-3.91254
-3.91109
-3.91003
-3.90946
-3.90934
-3.90957
-3.91008
-3.91081
-3.91171
-3.91273
-3.91385
-3.91502
-3.91622
-3.91742
-3.9186
-3.91974
-3.92081
-3.92178
-3.92264
-3.92336
-3.92393
-3.92433
-3.92456
-4.03773
-4.03626
-4.03517
-4.03456
-4.0344
-4.03457
-4.03502
-4.03566
-4.03647
-4.03739
-4.0384
-4.03945
-4.04053
-4.04161
-4.04268
-4.0437
-4.04466
-4.04554
-4.04632
-4.04699
-4.04752
-4.04791
-4.04816
-4.163
-4.16153
-4.16043
-4.1598
-4.1596
-4.15972
-4.1601
-4.16067
-4.16138
-4.1622
-4.16309
-4.16403
-4.16499
-4.16595
-4.1669
-4.16781
-4.16867
-4.16947
-4.17018
-4.17079
-4.1713
-4.17168
-4.17194
-4.28836
-4.28692
-4.28582
-4.28517
-4.28494
-4.28502
-4.28533
-4.28582
-4.28643
-4.28714
-4.28792
-4.28874
-4.28958
-4.29043
-4.29126
-4.29207
-4.29284
-4.29356
-4.2942
-4.29477
-4.29524
-4.29561
-4.29588
-4.41379
-4.41238
-4.41131
-4.41066
-4.41041
-4.41044
-4.41068
-4.41109
-4.41161
-4.41221
-4.41288
-4.41358
-4.4143
-4.41503
-4.41576
-4.41646
-4.41714
-4.41778
-4.41837
-4.41889
-4.41933
-4.4197
-4.41997
-4.53926
-4.53791
-4.53688
-4.53624
-4.53597
-4.53597
-4.53614
-4.53646
-4.53688
-4.53738
-4.53794
-4.53852
-4.53913
-4.53975
-4.54036
-4.54097
-4.54156
-4.54213
-4.54266
-4.54314
-4.54356
-4.54392
-4.5442
-4.66477
-4.66349
-4.66251
-4.6619
-4.66162
-4.66157
-4.66168
-4.66192
-4.66225
-4.66265
-4.66309
-4.66356
-4.66405
-4.66456
-4.66507
-4.66557
-4.66608
-4.66658
-4.66706
-4.66751
-4.66791
-4.66825
-4.66854
-4.79028
-4.78909
-4.78818
-4.7876
-4.78731
-4.78722
-4.78728
-4.78744
-4.78769
-4.78799
-4.78832
-4.78868
-4.78906
-4.78945
-4.78985
-4.79026
-4.79068
-4.79112
-4.79156
-4.79198
-4.79236
-4.7927
-4.79299
-4.91578
-4.9147
-4.91386
-4.91332
-4.91303
-4.91291
-4.91292
-4.91302
-4.91318
-4.91339
-4.91362
-4.91387
-4.91413
-4.91441
-4.91469
-4.915
-4.91533
-4.91572
-4.91613
-4.91654
-4.91691
-4.91725
-4.91753
-5.04124
-5.04028
-5.03953
-5.03903
-5.03875
-5.03862
-5.03859
-5.03863
-5.03872
-5.03884
-5.03898
-5.03912
-5.03927
-5.03941
-5.03958
-5.03977
-5.04001
-5.04035
-5.04076
-5.04117
-5.04155
-5.04189
-5.04217
-5.16665
-5.16582
-5.16516
-5.16472
-5.16446
-5.16433
-5.16427
-5.16427
-5.1643
-5.16434
-5.16438
-5.16442
-5.16445
-5.16447
-5.16449
-5.16455
-5.16468
-5.16499
-5.16544
-5.16588
-5.16628
-5.16662
-5.1669
-5.29199
-5.29127
-5.2907
-5.29034
-5.29013
-5.29001
-5.28995
-5.28991
-5.28989
-5.28987
-5.28983
-5.28976
-5.28968
-5.28956
-5.28944
-5.28933
-5.28929
-5.28959
-5.29016
-5.29068
-5.2911
-5.29144
-5.29171
-5.4172
-5.4166
-5.41615
-5.4159
-5.41577
-5.41569
-5.41563
-5.41558
-5.41551
-5.41543
-5.41531
-5.41514
-5.41493
-5.41467
-5.41437
-5.41403
-5.41374
-5.41406
-5.41495
-5.41562
-5.41606
-5.41638
-5.41662
-5.54222
-5.54181
-5.54156
-5.5415
-5.54149
-5.54148
-5.54144
-5.54137
-5.54125
-5.54107
-5.54084
-5.54052
-5.54012
-5.53962
-5.53901
-5.53822
-5.53741
-5.53771
-5.53969
-5.54072
-5.54118
-5.54144
-5.54163
-5.66742
-5.66715
-5.66708
-5.66716
-5.66722
-5.66724
-5.66719
-5.66709
-5.66693
-5.6667
-5.66638
-5.66598
-5.66545
-5.66478
-5.66381
-5.66203
-5.65893
-5.65961
-5.66418
-5.66577
-5.66629
-5.66653
-5.66667
290.189
294.01
295.285
296.597
172.667
175.021
176.014
177.226
68.1186
69.7865
70.3445
70.8653
9.46514
10.7389
11.3989
12.0828
0.384295
0.59488
0.93903
1.39685
0.152212
0.195991
0.260127
0.34198
-0.0258188
-0.00185468
-0.0258704
-0.0454096
-0.47718
-0.491013
-0.57672
-0.652357
-1.3812
-1.37627
-1.28281
-1.32323
-1.80121
-1.81437
-1.78587
-1.76277
-1.89272
-1.88597
-1.88018
-1.87433
-2.00051
-2.00027
-1.99796
-1.99411
-2.11691
-2.11561
-2.11335
-2.11054
-2.23248
-2.23118
-2.22945
-2.22741
-2.34897
-2.34794
-2.34658
-2.34496
-2.46651
-2.46566
-2.46455
-2.46322
-2.58497
-2.58426
-2.58334
-2.58223
-2.70427
-2.70368
-2.7029
-2.70197
-2.8243
-2.82381
-2.82315
-2.82237
-2.94496
-2.94455
-2.94401
-2.94335
-3.06617
-3.06583
-3.06538
-3.06483
-3.18783
-3.18756
-3.18719
-3.18673
-3.30989
-3.30968
-3.30938
-3.30901
-3.43229
-3.43213
-3.4319
-3.4316
-3.55499
-3.55487
-3.5547
-3.55447
-3.67796
-3.67788
-3.67775
-3.67758
-3.80116
-3.80112
-3.80103
-3.80091
-3.92459
-3.92457
-3.92452
-3.92444
-4.04822
-4.04822
-4.0482
-4.04815
-4.17202
-4.17205
-4.17205
-4.17203
-4.29599
-4.29603
-4.29605
-4.29605
-4.4201
-4.42015
-4.42019
-4.42021
-4.54433
-4.5444
-4.54445
-4.54449
-4.66869
-4.66876
-4.66882
-4.66887
-4.79314
-4.79322
-4.79329
-4.79336
-4.91769
-4.91778
-4.91786
-4.91792
-5.04233
-5.04242
-5.0425
-5.04258
-5.16706
-5.16715
-5.16723
-5.1673
-5.29187
-5.29196
-5.29203
-5.2921
-5.41676
-5.41684
-5.41691
-5.41697
-5.54174
-5.5418
-5.54185
-5.5419
-5.66674
-5.66678
-5.66682
-5.66685
300.148
297.274
292.387
285.353
279.963
276.503
273.897
271.821
265.476
255.563
245.67
236.381
227.419
218.736
210.234
203.879
199.827
197.197
196.102
178.999
176.237
174.4
174.099
176.045
176.501
173.818
168.815
163.041
156.964
149.948
141.417
130.517
115.702
100.071
87.652
79.1923
73.6233
67.8294
72.0859
73.8321
78.3307
84.0254
87.1299
86.113
82.5485
78.347
74.3586
68.7206
62.0524
54.6718
46.2075
35.9435
25.7792
17.345
11.9465
8.76762
7.01494
13.8752
17.7305
22.138
24.6121
24.5216
23.404
21.6075
19.2921
16.9985
14.1665
11.0657
7.80073
4.74222
2.60167
1.38302
0.572058
0.0440045
-0.0473628
0.0500773
2.39128
3.12705
2.49011
1.84025
1.78609
2.0441
1.87268
0.918857
0.176281
0.0644215
0.0416406
-0.0115802
-0.0372244
-0.0537118
-0.117512
-0.201073
-0.264364
-0.264895
-0.236945
0.552102
0.615476
0.309333
0.149228
0.154813
0.146328
-0.0312485
-0.0981075
-0.0458019
-0.00381404
-0.0251271
-0.0945996
-0.20543
-0.351108
-0.481131
-0.539497
-0.535354
-0.521859
-0.487948
-0.0616665
-0.091317
-0.18049
-0.252446
-0.355437
-0.540659
-0.723463
-0.796196
-0.775288
-0.713118
-0.760608
-0.837258
-0.906398
-0.982037
-1.01688
-0.996217
-0.920948
-0.884599
-0.834636
-0.755581
-0.888971
-0.860025
-0.837079
-0.869421
-0.970592
-1.11605
-1.19321
-1.22825
-1.25375
-1.28442
-1.31841
-1.33575
-1.32125
-1.29352
-1.27512
-1.24915
-1.23679
-1.21
-1.46971
-1.52333
-1.4834
-1.43655
-1.42546
-1.43005
-1.46941
-1.49564
-1.52021
-1.52688
-1.51123
-1.49307
-1.47465
-1.45598
-1.43846
-1.42497
-1.41864
-1.42865
-1.42612
-1.74053
-1.72882
-1.73629
-1.74285
-1.7366
-1.71942
-1.68228
-1.66034
-1.64887
-1.64089
-1.63042
-1.61759
-1.60339
-1.58781
-1.57329
-1.56386
-1.55894
-1.5631
-1.5656
-1.86508
-1.8548
-1.84871
-1.84364
-1.83643
-1.82331
-1.80522
-1.78921
-1.77747
-1.76818
-1.75813
-1.74694
-1.73451
-1.72129
-1.70904
-1.70138
-1.69807
-1.69926
-1.70046
-1.98666
-1.97733
-1.97009
-1.96345
-1.9554
-1.94393
-1.92955
-1.91647
-1.90604
-1.89733
-1.88781
-1.87723
-1.86578
-1.85585
-1.84767
-1.84065
-1.83644
-1.83488
-1.83387
-2.10533
-2.09756
-2.09039
-2.08319
-2.075
-2.06491
-2.05323
-2.04223
-2.03284
-2.02489
-2.01594
-2.00556
-1.99535
-1.98711
-1.98074
-1.9743
-1.969
-1.96555
-1.96402
-2.22355
-2.21713
-2.21034
-2.20308
-2.19515
-2.18627
-2.17661
-2.16721
-2.1586
-2.15062
-2.14222
-2.13311
-2.1243
-2.1165
-2.10955
-2.10292
-2.09666
-2.09199
-2.09198
-2.3419
-2.33659
-2.33056
-2.32382
-2.3164
-2.30847
-2.30019
-2.29202
-2.28419
-2.2766
-2.26889
-2.26096
-2.25325
-2.24607
-2.23931
-2.23267
-2.22607
-2.22071
-2.22079
-2.4607
-2.45617
-2.45095
-2.445
-2.43834
-2.43126
-2.42402
-2.41684
-2.40981
-2.40289
-2.39598
-2.38908
-2.38239
-2.37607
-2.37008
-2.36427
-2.35844
-2.3537
-2.35339
-2.58013
-2.57623
-2.57161
-2.5664
-2.56058
-2.55439
-2.54807
-2.54175
-2.5355
-2.52936
-2.52328
-2.51734
-2.51167
-2.5064
-2.50162
-2.49737
-2.49372
-2.49103
-2.49
-2.70019
-2.69684
-2.69281
-2.68822
-2.68316
-2.6778
-2.6723
-2.66677
-2.66129
-2.65589
-2.65063
-2.64557
-2.64087
-2.63667
-2.63316
-2.63061
-2.62958
-2.62967
-2.62689
-2.82086
-2.81799
-2.81449
-2.8105
-2.80612
-2.80147
-2.79669
-2.79187
-2.7871
-2.78242
-2.77789
-2.77362
-2.76976
-2.76646
-2.76394
-2.76251
-2.76265
-2.76457
-2.76184
-2.94207
-2.93961
-2.93661
-2.93316
-2.92937
-2.92535
-2.92121
-2.91703
-2.91289
-2.90886
-2.90499
-2.9014
-2.89821
-2.89557
-2.89366
-2.89268
-2.89278
-2.89436
-2.89355
-3.06375
-3.06166
-3.05909
-3.05613
-3.05287
-3.0494
-3.04582
-3.04221
-3.03864
-3.03517
-3.03188
-3.02885
-3.02618
-3.02399
-3.0224
-3.02147
-3.0211
-3.02179
-3.02048
-3.18584
-3.18408
-3.18189
-3.17935
-3.17656
-3.17358
-3.1705
-3.16739
-3.16432
-3.16135
-3.15854
-3.15597
-3.15371
-3.15184
-3.15041
-3.14942
-3.1487
-3.1484
-3.14631
-3.30827
-3.3068
-3.30495
-3.3028
-3.30042
-3.29787
-3.29523
-3.29256
-3.28992
-3.28738
-3.28498
-3.28279
-3.28085
-3.27922
-3.27792
-3.27689
-3.276
-3.27522
-3.27332
-3.431
-3.42978
-3.42823
-3.42642
-3.4244
-3.42223
-3.41998
-3.4177
-3.41545
-3.41327
-3.41122
-3.40934
-3.40767
-3.40623
-3.40503
-3.404
-3.40302
-3.40201
-3.40029
-3.55399
-3.553
-3.55171
-3.5502
-3.5485
-3.54667
-3.54475
-3.54281
-3.54089
-3.53904
-3.53728
-3.53567
-3.53422
-3.53294
-3.53181
-3.53078
-3.52972
-3.5285
-3.52679
-3.67721
-3.67641
-3.67537
-3.67411
-3.67269
-3.67115
-3.66954
-3.6679
-3.66627
-3.6647
-3.6632
-3.66181
-3.66054
-3.65938
-3.65831
-3.65727
-3.65611
-3.65469
-3.65289
-3.80064
-3.80001
-3.79917
-3.79814
-3.79697
-3.79569
-3.79435
-3.79297
-3.7916
-3.79026
-3.78899
-3.78779
-3.78667
-3.78562
-3.78461
-3.78354
-3.78228
-3.78063
-3.7786
-3.92425
-3.92378
-3.92311
-3.92228
-3.92133
-3.92028
-3.91916
-3.91802
-3.91687
-3.91575
-3.91467
-3.91364
-3.91266
-3.91171
-3.91075
-3.90968
-3.90834
-3.9065
-3.90428
-4.04803
-4.04769
-4.04717
-4.04652
-4.04575
-4.0449
-4.044
-4.04306
-4.04211
-4.04118
-4.04027
-4.03939
-4.03854
-4.03768
-4.03678
-4.03573
-4.03439
-4.03249
-4.03014
-4.17197
-4.17173
-4.17135
-4.17085
-4.17025
-4.16957
-4.16884
-4.16808
-4.16731
-4.16655
-4.1658
-4.16506
-4.16432
-4.16356
-4.16272
-4.16173
-4.16043
-4.1586
-4.15611
-4.29604
-4.2959
-4.29563
-4.29525
-4.29479
-4.29427
-4.2937
-4.2931
-4.29248
-4.29187
-4.29126
-4.29065
-4.29002
-4.28935
-4.28857
-4.28762
-4.28634
-4.28453
-4.28229
-4.42024
-4.42017
-4.42
-4.41973
-4.41939
-4.419
-4.41856
-4.4181
-4.41762
-4.41714
-4.41666
-4.41618
-4.41566
-4.41507
-4.41434
-4.41337
-4.41197
-4.40998
-4.40793
-4.54455
-4.54454
-4.54445
-4.54427
-4.54404
-4.54375
-4.54343
-4.54308
-4.54273
-4.54237
-4.54202
-4.54165
-4.54124
-4.54074
-4.54007
-4.53907
-4.53747
-4.53512
-4.53231
-4.66896
-4.669
-4.66897
-4.66887
-4.66871
-4.66852
-4.66829
-4.66805
-4.66781
-4.66756
-4.66732
-4.66707
-4.66678
-4.66641
-4.66585
-4.66491
-4.66328
-4.6608
-4.65756
-4.79346
-4.79354
-4.79355
-4.79351
-4.79342
-4.7933
-4.79316
-4.793
-4.79284
-4.79269
-4.79256
-4.79243
-4.79229
-4.79208
-4.79171
-4.79099
-4.78956
-4.78721
-4.78417
-4.91804
-4.91814
-4.9182
-4.9182
-4.91816
-4.9181
-4.91801
-4.91792
-4.91784
-4.91777
-4.91773
-4.91773
-4.91774
-4.91774
-4.91764
-4.91726
-4.9162
-4.91403
-4.91092
-5.04269
-5.04282
-5.04289
-5.04292
-5.04292
-5.0429
-5.04286
-5.04282
-5.04279
-5.04279
-5.04283
-5.04293
-5.0431
-5.04332
-5.04355
-5.04363
-5.04311
-5.04115
-5.03798
-5.16742
-5.16755
-5.16763
-5.16768
-5.16771
-5.16771
-5.1677
-5.16769
-5.1677
-5.16774
-5.16783
-5.16801
-5.16831
-5.16876
-5.16937
-5.17003
-5.17023
-5.16854
-5.16519
-5.29221
-5.29233
-5.29242
-5.29248
-5.29251
-5.29253
-5.29253
-5.29254
-5.29256
-5.29262
-5.29273
-5.29295
-5.29333
-5.29396
-5.29494
-5.29632
-5.29755
-5.29639
-5.2931
-5.41706
-5.41717
-5.41725
-5.4173
-5.41734
-5.41736
-5.41737
-5.41737
-5.41739
-5.41743
-5.41753
-5.41773
-5.4181
-5.41877
-5.41997
-5.42211
-5.42499
-5.42511
-5.423
-5.54197
-5.54205
-5.54212
-5.54216
-5.54219
-5.5422
-5.5422
-5.5422
-5.5422
-5.54221
-5.54225
-5.54236
-5.54261
-5.5431
-5.5442
-5.54702
-5.55302
-5.55579
-5.55752
-5.6669
-5.66695
-5.667
-5.66703
-5.66704
-5.66704
-5.66703
-5.66701
-5.66698
-5.66696
-5.66695
-5.66696
-5.66706
-5.66736
-5.66823
-5.67157
-5.68513
-5.68836
-5.69575
)
;

boundaryField
{
    leftWall
    {
        type            calculated;
        value           nonuniform List<scalar> 
50
(
696.809
637.962
579.04
520.053
461.008
401.905
342.745
283.526
190.82
72.275
8.67898
0.248593
0.103153
-0.275486
-0.744444
-1.0937
-1.35486
-1.58942
-1.77927
-1.90108
-2.02033
-2.14575
-2.27338
-2.40105
-2.52861
-2.65595
-2.78292
-2.90944
-3.03555
-3.16133
-3.28683
-3.41212
-3.53727
-3.66236
-3.78743
-3.91254
-4.03773
-4.163
-4.28836
-4.41379
-4.53926
-4.66477
-4.79028
-4.91578
-5.04124
-5.16665
-5.29199
-5.4172
-5.54222
-5.66742
)
;
    }
    rightWall
    {
        type            calculated;
        value           nonuniform List<scalar> 
50
(
689.575
631.811
572.879
515.221
460.99
407.405
351.633
291.928
196.102
67.8294
7.01494
0.0500773
-0.236945
-0.487948
-0.834636
-1.21
-1.42612
-1.5656
-1.70046
-1.83387
-1.96402
-2.09198
-2.22079
-2.35339
-2.49
-2.62689
-2.76184
-2.89355
-3.02048
-3.14631
-3.27332
-3.40029
-3.52679
-3.65289
-3.7786
-3.90428
-4.03014
-4.15611
-4.28229
-4.40793
-4.53231
-4.65756
-4.78417
-4.91092
-5.03798
-5.16519
-5.2931
-5.423
-5.55752
-5.69575
)
;
    }
    lowerWall
    {
        type            calculated;
        value           nonuniform List<scalar> 
62
(
726.238
726.365
726.902
727.65
728.553
729.604
730.824
732.242
733.912
735.884
738.209
740.927
744.056
747.584
751.46
755.589
759.815
763.643
766.871
771.245
775.009
776.601
776.421
747.264
687.861
628.502
569.504
510.973
452.886
394.584
337.002
352.786
356.607
357.873
359.143
799.129
741.418
683.913
626.803
569.997
514.569
456.763
405.702
828.259
825.462
821.486
814.514
805.71
795.753
784.799
774.576
770.737
765.656
759.638
753.385
745.436
739.84
735.423
730.739
725.023
720.573
718.004
)
;
    }
    atmosphere
    {
        type            calculated;
        value           nonuniform List<scalar> 
46
(
-5.72904
-5.72904
-5.72904
-5.72904
-5.72904
-5.72904
-5.72904
-5.72904
-5.72904
-5.72904
-5.72904
-5.72904
-5.72904
-5.72904
-5.72904
-5.72904
-5.72904
-5.72904
-5.72905
-5.72907
-5.72911
-5.72916
-5.72921
-5.72925
-5.72928
-5.7293
-5.72932
-5.72936
-5.7294
-5.72944
-5.72945
-5.72946
-5.72945
-5.72943
-5.7294
-5.72937
-5.72933
-5.72929
-5.72926
-5.72923
-5.72921
-5.72919
-5.72915
-5.72909
-5.72904
-5.77981
)
;
    }
    defaultFaces
    {
        type            empty;
    }
}


// ************************************************************************* //
