/*--------------------------------*- C++ -*----------------------------------*\
  =========                 |
  \\      /  F ield         | OpenFOAM: The Open Source CFD Toolbox
   \\    /   O peration     | Website:  https://openfoam.org
    \\  /    A nd           | Version:  9
     \\/     M anipulation  |
\*---------------------------------------------------------------------------*/
FoamFile
{
    format      ascii;
    class       surfaceScalarField;
    location    "2.23";
    object      phi;
}
// * * * * * * * * * * * * * * * * * * * * * * * * * * * * * * * * * * * * * //

dimensions      [0 3 -1 0 0 0 0];

internalField   nonuniform List<scalar> 
4432
(
-5.19844e-07
5.19844e-07
-5.08828e-07
-1.10077e-08
-3.55625e-07
-1.53211e-07
-1.99491e-07
-1.5613e-07
-9.31749e-08
-1.06317e-07
-4.05993e-08
-5.25744e-08
-3.54822e-08
-5.11642e-09
-7.35541e-08
3.8073e-08
-1.54632e-07
8.10794e-08
-2.8106e-07
1.2643e-07
-4.54919e-07
1.73861e-07
-6.74035e-07
2.19118e-07
-9.29545e-07
2.55512e-07
-1.20621e-06
2.76667e-07
-1.48789e-06
2.81679e-07
-1.75795e-06
2.70058e-07
-1.99982e-06
2.41862e-07
-2.39392e-06
3.94098e-07
-3.346e-06
9.52089e-07
-4.05208e-06
7.06082e-07
-3.78219e-06
-2.69894e-07
-2.47931e-06
-1.30288e-06
-2.47931e-06
-2.77354e-07
7.9719e-07
-2.2588e-07
-6.24686e-08
-1.18508e-07
-2.6059e-07
-2.13624e-08
-2.53271e-07
4.47952e-08
-1.72475e-07
7.29477e-08
-8.07252e-08
6.12051e-08
6.62788e-09
7.84656e-09
9.14334e-08
-9.03915e-08
1.7932e-07
-2.36778e-07
2.7282e-07
-4.31536e-07
3.68621e-07
-6.70306e-07
4.57888e-07
-9.41436e-07
5.26643e-07
-1.2305e-06
5.65733e-07
-1.52546e-06
5.76632e-07
-1.81996e-06
5.64554e-07
-2.1267e-06
5.48604e-07
-2.45049e-06
7.1789e-07
-2.74724e-06
1.24884e-06
-2.90435e-06
8.63194e-07
-2.63291e-06
-5.4134e-07
-1.82149e-06
-2.11431e-06
-4.3008e-06
-8.11835e-08
8.78365e-07
-3.45737e-08
-1.09067e-07
3.9239e-08
-3.34409e-07
1.01557e-07
-3.15586e-07
1.41197e-07
-2.12115e-07
1.51402e-07
-9.09302e-08
1.27128e-07
3.09039e-08
6.27223e-08
1.55841e-07
-4.71747e-08
2.89218e-07
-2.0625e-07
4.31896e-07
-4.1466e-07
5.77031e-07
-6.66091e-07
7.09318e-07
-9.48323e-07
8.08875e-07
-1.24757e-06
8.64982e-07
-1.55442e-06
8.83471e-07
-1.86589e-06
8.76028e-07
-2.18118e-06
8.63894e-07
-2.43284e-06
9.69549e-07
-2.47067e-06
1.28666e-06
-2.33954e-06
7.32069e-07
-1.9752e-06
-9.05689e-07
-1.25239e-06
-2.83712e-06
-5.55319e-06
6.27993e-08
8.15559e-07
1.13096e-07
-1.59355e-07
1.65388e-07
-3.86706e-07
2.04088e-07
-3.54285e-07
2.24132e-07
-2.32159e-07
2.20089e-07
-8.68881e-08
1.84978e-07
6.6015e-08
1.10711e-07
2.30107e-07
-9.65078e-09
4.0958e-07
-1.80443e-07
6.02687e-07
-4.01421e-07
7.98009e-07
-6.65825e-07
9.73722e-07
-9.60877e-07
1.10393e-06
-1.27309e-06
1.17719e-06
-1.59441e-06
1.20479e-06
-1.92173e-06
1.20335e-06
-2.24098e-06
1.18314e-06
-2.46831e-06
1.19688e-06
-2.40421e-06
1.22258e-06
-2.12283e-06
4.50682e-07
-1.62384e-06
-1.40468e-06
-8.29484e-07
-3.63147e-06
-6.38267e-06
1.62552e-07
6.53001e-07
2.29065e-07
-2.2586e-07
2.7005e-07
-4.27695e-07
2.92598e-07
-3.76833e-07
2.97985e-07
-2.37547e-07
2.82404e-07
-7.13088e-08
2.37797e-07
1.10621e-07
1.54318e-07
3.13583e-07
2.38071e-08
5.40088e-07
-1.58583e-07
7.85074e-07
-3.92719e-07
1.03214e-06
-6.71674e-07
1.25268e-06
-9.82197e-07
1.41445e-06
-1.31086e-06
1.50586e-06
-1.65062e-06
1.54456e-06
-1.99808e-06
1.55081e-06
-2.33284e-06
1.5179e-06
-2.56751e-06
1.43155e-06
-2.5202e-06
1.17527e-06
-2.20086e-06
1.31343e-07
-1.61483e-06
-1.9907e-06
-6.68709e-07
-4.57759e-06
-7.05138e-06
2.30739e-07
4.22258e-07
3.17538e-07
-3.12654e-07
3.54525e-07
-4.64684e-07
3.66735e-07
-3.89043e-07
3.61507e-07
-2.3232e-07
3.3674e-07
-4.65428e-08
2.83814e-07
1.63544e-07
1.91505e-07
4.0589e-07
5.08153e-08
6.80774e-07
-1.43534e-07
9.7942e-07
-3.91767e-07
1.28037e-06
-6.87162e-07
1.54807e-06
-1.01608e-06
1.74336e-06
-1.36511e-06
1.8549e-06
-1.72863e-06
1.90807e-06
-2.10477e-06
1.92695e-06
-2.47317e-06
1.8863e-06
-2.75328e-06
1.71166e-06
-2.80226e-06
1.22425e-06
-2.57591e-06
-9.5019e-08
-2.02483e-06
-2.54178e-06
-8.96912e-07
-5.7055e-06
-7.94828e-06
2.76175e-07
1.46079e-07
3.806e-07
-4.17076e-07
4.17689e-07
-5.01774e-07
4.24061e-07
-3.95417e-07
4.11719e-07
-2.19979e-07
3.79757e-07
-1.45815e-08
3.1942e-07
2.23879e-07
2.18333e-07
5.06975e-07
6.71624e-08
8.31942e-07
-1.3961e-07
1.18619e-06
-4.02834e-07
1.54359e-06
-7.16396e-07
1.86163e-06
-1.06652e-06
2.09349e-06
-1.44005e-06
2.22843e-06
-1.83348e-06
2.3015e-06
-2.24903e-06
2.34251e-06
-2.6723e-06
2.30956e-06
-3.0408e-06
2.08016e-06
-3.24766e-06
1.43111e-06
-3.25108e-06
-9.16031e-08
-2.93972e-06
-2.85314e-06
-1.81258e-06
-6.83265e-06
-9.76086e-06
3.02303e-07
-1.56227e-07
4.18528e-07
-5.33299e-07
4.57367e-07
-5.40613e-07
4.6145e-07
-3.995e-07
4.45213e-07
-2.03742e-07
4.07785e-07
2.28474e-08
3.40551e-07
2.91114e-07
2.30279e-07
6.17247e-07
6.81026e-08
9.94118e-07
-1.51397e-07
1.40569e-06
-4.29932e-07
1.82213e-06
-7.62729e-07
2.19443e-06
-1.13636e-06
2.46713e-06
-1.53821e-06
2.63028e-06
-1.96752e-06
2.73082e-06
-2.43284e-06
2.80783e-06
-2.93079e-06
2.80752e-06
-3.42393e-06
2.57329e-06
-3.84662e-06
1.85381e-06
-4.19475e-06
2.56524e-07
-4.42745e-06
-2.62044e-06
-4.11016e-06
-7.14993e-06
-1.3871e-05
-1.01312e-06
1.01312e-06
2.42144e-07
-1.25527e-06
2.31369e-06
-2.07155e-06
4.26152e-06
-1.94783e-06
5.81539e-06
-1.55387e-06
7.06331e-06
-1.24792e-06
7.11377e-06
-5.04651e-08
3.67466e-06
3.43911e-06
-3.37716e-07
4.01237e-06
-2.71346e-06
2.37574e-06
-3.45209e-06
7.38629e-07
-3.50889e-06
5.67873e-08
-4.09631e-06
5.87418e-07
-4.03374e-06
-6.2565e-08
-2.50349e-06
-1.53025e-06
-4.29387e-07
-2.0741e-06
6.28295e-07
-1.05768e-06
5.09281e-07
1.19015e-07
5.0928e-07
-3.4622e-07
1.35934e-06
9.17722e-07
-2.51921e-06
2.21177e-06
-3.3656e-06
3.34651e-06
-3.08258e-06
4.17413e-06
-2.3815e-06
4.56002e-06
-1.63381e-06
4.29304e-06
2.16518e-07
2.05894e-06
5.67321e-06
-9.43031e-07
7.01434e-06
-2.83552e-06
4.26822e-06
-3.67822e-06
1.58133e-06
-4.08704e-06
4.65602e-07
-4.27406e-06
7.74442e-07
-3.76316e-06
-5.73463e-07
-2.32766e-06
-2.96574e-06
-4.6196e-07
-3.93981e-06
7.08566e-07
-2.22821e-06
8.89407e-07
-6.18264e-08
1.39869e-06
2.35284e-07
1.12405e-06
1.15684e-06
-3.44077e-06
1.89527e-06
-4.10402e-06
2.48453e-06
-3.67184e-06
2.79013e-06
-2.6871e-06
2.66893e-06
-1.51261e-06
2.09478e-06
7.90666e-07
7.89688e-07
6.9783e-06
-1.20202e-06
9.00605e-06
-2.64257e-06
5.70877e-06
-3.52826e-06
2.46703e-06
-4.10473e-06
1.04207e-06
-4.17744e-06
8.47163e-07
-3.62655e-06
-1.12435e-06
-2.31096e-06
-4.28134e-06
-6.59521e-07
-5.59124e-06
5.24902e-07
-3.41263e-06
9.7434e-07
-5.11265e-07
2.37303e-06
6.24325e-07
4.99723e-07
1.07394e-06
-3.89039e-06
1.37861e-06
-4.4087e-06
1.55998e-06
-3.85321e-06
1.47358e-06
-2.60071e-06
1.02292e-06
-1.06194e-06
3.72439e-07
1.44115e-06
-2.64133e-07
7.61487e-06
-1.19178e-06
9.9337e-06
-2.3451e-06
6.86209e-06
-3.18627e-06
3.3082e-06
-3.85223e-06
1.70803e-06
-3.99303e-06
9.87969e-07
-3.50047e-06
-1.61691e-06
-2.4101e-06
-5.37171e-06
-1.00135e-06
-7e-06
1.22041e-07
-4.53602e-06
6.27843e-07
-1.01706e-06
3.00088e-06
6.36169e-07
-1.36447e-07
6.60564e-07
-3.91478e-06
6.44407e-07
-4.39254e-06
5.3924e-07
-3.74804e-06
1.71299e-07
-2.23278e-06
-5.001e-07
-3.90539e-07
-1.16378e-06
2.10483e-06
-1.21586e-06
7.66695e-06
-1.20156e-06
9.9194e-06
-1.89768e-06
7.5582e-06
-2.66726e-06
4.07779e-06
-3.37962e-06
2.42039e-06
-3.64456e-06
1.25291e-06
-3.30941e-06
-1.95206e-06
-2.56742e-06
-6.11369e-06
-1.51924e-06
-8.04818e-06
-3.64135e-07
-5.69113e-06
1.63535e-07
-1.54473e-06
3.16441e-06
2.36523e-07
-3.72971e-07
-1.21595e-07
-3.55667e-06
-3.15309e-07
-4.19883e-06
-5.80475e-07
-3.48288e-06
-1.11289e-06
-1.70037e-06
-1.92047e-06
4.17051e-07
-2.48959e-06
2.67395e-06
-1.99693e-06
7.17429e-06
-1.34571e-06
9.26818e-06
-1.40994e-06
7.62243e-06
-2.01442e-06
4.68227e-06
-2.72106e-06
3.12703e-06
-3.0796e-06
1.61145e-06
-2.93319e-06
-2.09847e-06
-2.52837e-06
-6.51851e-06
-1.97116e-06
-8.6054e-06
-1.00955e-06
-6.65274e-06
-2.54578e-07
-2.29971e-06
2.90983e-06
-7.44649e-07
3.71679e-07
-1.27807e-06
-3.02325e-06
-1.4982e-06
-3.9787e-06
-1.79318e-06
-3.18789e-06
-2.36237e-06
-1.13119e-06
-3.1819e-06
1.23658e-06
-3.60764e-06
3.09969e-06
-2.66527e-06
6.23192e-06
-1.49872e-06
8.10163e-06
-9.90548e-07
7.11426e-06
-1.35459e-06
5.04631e-06
-1.93174e-06
3.70419e-06
-2.28649e-06
1.96619e-06
-2.252e-06
-2.13296e-06
-2.0828e-06
-6.68771e-06
-1.92892e-06
-8.75928e-06
-1.45723e-06
-7.12443e-06
-7.60975e-07
-2.99597e-06
2.14885e-06
-2.49182e-06
2.8635e-06
-2.83113e-06
-2.68394e-06
-2.88738e-06
-3.92245e-06
-3.09224e-06
-2.98302e-06
-3.54659e-06
-6.76848e-07
-4.20494e-06
1.89494e-06
-4.38711e-06
3.28186e-06
-3.18396e-06
5.02877e-06
-1.67096e-06
6.58864e-06
-7.72645e-07
6.21595e-06
-7.79595e-07
5.05327e-06
-1.0337e-06
3.95829e-06
-1.24771e-06
2.1802e-06
-1.17417e-06
-2.2065e-06
-1.16751e-06
-6.69438e-06
-1.33971e-06
-8.58708e-06
-1.37815e-06
-7.08598e-06
-9.50058e-07
-3.42406e-06
1.1988e-06
6.51391e-07
-8.07619e-07
9.22206e-07
-8.04115e-07
1.01849e-06
-6.369e-07
1.03109e-06
-4.12101e-07
9.91086e-07
-1.63737e-07
9.03529e-07
1.10403e-07
7.35388e-07
4.59253e-07
4.66668e-07
8.85965e-07
8.28453e-08
1.37794e-06
-4.24861e-07
1.91339e-06
-1.06387e-06
2.46114e-06
-1.83437e-06
2.96493e-06
-2.71181e-06
3.34458e-06
-3.67036e-06
3.58883e-06
-4.71601e-06
3.77647e-06
-5.89355e-06
3.98537e-06
-7.24254e-06
4.15651e-06
-8.77685e-06
4.1076e-06
-1.05215e-05
3.59848e-06
-1.26219e-05
2.35692e-06
-1.55052e-05
2.62875e-07
-1.97063e-05
-2.94884e-06
-5.86766e-06
-2.77097e-05
3.82454e-07
-1.19007e-06
5.80927e-07
-1.00259e-06
7.68813e-07
-8.24783e-07
8.77356e-07
-5.2064e-07
8.74671e-07
-1.61049e-07
7.64093e-07
2.20985e-07
5.37293e-07
6.86057e-07
1.93141e-07
1.23012e-06
-2.58877e-07
1.82996e-06
-8.08886e-07
2.46341e-06
-1.46025e-06
3.11251e-06
-2.2584e-06
3.76309e-06
-3.22702e-06
4.31321e-06
-4.36367e-06
4.7255e-06
-5.63907e-06
5.05187e-06
-7.06582e-06
5.41213e-06
-8.71584e-06
5.80652e-06
-1.07417e-05
6.13344e-06
-1.33533e-05
6.21014e-06
-1.67723e-05
5.77589e-06
-2.08018e-05
4.29237e-06
-2.47659e-05
1.01526e-06
-3.12645e-06
-2.75071e-05
-1.20739e-06
1.73174e-08
-6.84429e-07
-1.52556e-06
1.10682e-08
-1.52028e-06
4.924e-07
-1.00198e-06
6.25063e-07
-2.93724e-07
3.53458e-07
4.92575e-07
-1.45349e-07
1.18484e-06
-7.28953e-07
1.8137e-06
-1.34564e-06
2.44663e-06
-1.98839e-06
3.10615e-06
-2.52568e-06
3.64978e-06
-3.14903e-06
4.38642e-06
-4.15889e-06
5.32305e-06
-5.71902e-06
6.28561e-06
-7.55477e-06
6.88761e-06
-9.26899e-06
7.12633e-06
-1.08083e-05
7.34579e-06
-1.26626e-05
7.98779e-06
-1.53382e-05
8.88572e-06
-1.92068e-05
9.64444e-06
-2.39218e-05
9.00746e-06
-2.73492e-05
4.44267e-06
-2.02694e-06
-2.84487e-05
-8.47274e-06
8.49006e-06
-5.07131e-06
-4.92733e-06
-1.81526e-06
-4.77629e-06
3.25742e-07
-3.14293e-06
1.21736e-06
-1.18532e-06
-2.03903e-07
1.91386e-06
-2.13005e-06
3.11101e-06
-3.6485e-06
3.33215e-06
-4.64945e-06
3.44759e-06
-6.03276e-06
4.48949e-06
-5.93977e-06
3.55682e-06
-4.9878e-06
3.43448e-06
-5.23735e-06
5.57261e-06
-8.2999e-06
9.34814e-06
-1.2364e-05
1.09517e-05
-1.47776e-05
9.53995e-06
-1.46494e-05
7.21761e-06
-1.36235e-05
6.96197e-06
-1.38609e-05
9.12312e-06
-1.56984e-05
1.14819e-05
-2.20121e-05
1.53212e-05
-2.72923e-05
9.7228e-06
-2.46657e-07
-2.90725e-05
-2.58015e-05
3.42921e-05
-2.36139e-05
-7.11499e-06
-1.9422e-05
-8.96805e-06
-1.62139e-05
-6.35107e-06
-1.48206e-05
-2.57859e-06
-1.84586e-05
5.552e-06
-2.87694e-05
1.34219e-05
-3.40058e-05
8.56865e-06
-3.3858e-05
3.2998e-06
-3.24441e-05
3.07549e-06
-2.98737e-05
9.86419e-07
-2.74309e-05
9.91698e-07
-2.8061e-05
6.20278e-06
-3.60241e-05
1.73113e-05
-4.29754e-05
1.7903e-05
-3.89851e-05
5.54954e-06
-3.16009e-05
-1.66628e-07
-2.33637e-05
-1.27516e-06
-1.62128e-05
1.9723e-06
-1.08559e-05
6.12496e-06
-1.20381e-05
1.65035e-05
-1.89168e-05
1.66015e-05
6.69652e-06
-2.58601e-05
-1.49012e-05
4.91934e-05
-1.80867e-05
-3.92947e-06
-2.25851e-05
-4.46968e-06
-2.50457e-05
-3.89046e-06
-2.67118e-05
-9.1249e-07
-2.73572e-05
6.19738e-06
-2.8276e-05
1.43407e-05
-3.06647e-05
1.09573e-05
-3.32123e-05
5.84735e-06
-3.47794e-05
4.64263e-06
-3.61155e-05
2.32255e-06
-3.60757e-05
9.51836e-07
-3.71283e-05
7.25528e-06
-4.18297e-05
2.20127e-05
-4.33785e-05
1.94519e-05
-4.24657e-05
4.63679e-06
-3.86086e-05
-4.02374e-06
-3.36651e-05
-6.21864e-06
-2.93966e-05
-2.2962e-06
-2.43446e-05
1.07292e-06
-2.24299e-05
1.45888e-05
-2.83246e-05
2.24961e-05
1.75983e-05
-3.92264e-05
-1.7263e-06
5.09197e-05
-7.72075e-06
2.065e-06
-1.90573e-05
6.86687e-06
-2.58593e-05
2.9116e-06
-2.90577e-05
2.28592e-06
-2.93203e-05
6.45997e-06
-2.59893e-05
1.10096e-05
-2.59175e-05
1.08854e-05
-3.0556e-05
1.04859e-05
-3.55533e-05
9.63999e-06
-3.93468e-05
6.11609e-06
-4.01006e-05
1.70557e-06
-4.02085e-05
7.36316e-06
-4.07411e-05
2.25453e-05
-4.18053e-05
2.05161e-05
-4.39366e-05
6.76814e-06
-4.55919e-05
-2.36833e-06
-4.6183e-05
-5.62745e-06
-4.68933e-05
-1.58584e-06
-4.45863e-05
-1.23411e-06
-3.80698e-05
8.07238e-06
-3.5492e-05
1.99187e-05
2.0721e-05
-3.86143e-05
1.58169e-05
3.51028e-05
5.74761e-06
1.21343e-05
-8.25122e-06
2.08657e-05
-2.05821e-05
1.52425e-05
-2.78155e-05
9.51939e-06
-2.87446e-05
7.38911e-06
-2.67267e-05
8.99169e-06
-2.69301e-05
1.10889e-05
-2.96285e-05
1.31843e-05
-3.27929e-05
1.28045e-05
-3.66011e-05
9.92436e-06
-4.19167e-05
7.0212e-06
-4.47414e-05
1.01879e-05
-4.04265e-05
1.82303e-05
-3.79805e-05
1.80701e-05
-4.228e-05
1.10676e-05
-5.13974e-05
6.74906e-06
-6.1982e-05
4.95718e-06
-6.10487e-05
-2.51911e-06
-5.71508e-05
-5.13205e-06
-4.98843e-05
8.0592e-07
-3.74025e-05
7.43691e-06
1.21514e-05
-2.88329e-05
1.89407e-05
1.61621e-05
5.64145e-06
2.54336e-05
-5.18729e-06
3.16945e-05
-1.41823e-05
2.42376e-05
-2.10357e-05
1.63728e-05
-2.54688e-05
1.18223e-05
-2.75926e-05
1.11156e-05
-2.87267e-05
1.22231e-05
-2.94396e-05
1.38972e-05
-3.06986e-05
1.40635e-05
-3.32804e-05
1.25063e-05
-3.73158e-05
1.10567e-05
-4.00315e-05
1.29036e-05
-3.90031e-05
1.7202e-05
-3.90344e-05
1.81014e-05
-4.38236e-05
1.58568e-05
-5.1186e-05
1.41114e-05
-5.63858e-05
1.01568e-05
-5.60265e-05
-2.87842e-06
-5.34862e-05
-7.67231e-06
-4.77961e-05
-4.88417e-06
-3.92502e-05
-1.10909e-06
7.42146e-07
-2.7841e-05
4.41206e-06
1.17501e-05
-4.57938e-06
3.44252e-05
-8.90798e-06
3.60233e-05
-1.3391e-05
2.87208e-05
-1.81577e-05
2.11395e-05
-2.23833e-05
1.6048e-05
-2.52787e-05
1.4011e-05
-2.70413e-05
1.39858e-05
-2.78752e-05
1.47311e-05
-2.86372e-05
1.48256e-05
-3.02467e-05
1.4116e-05
-3.27982e-05
1.36082e-05
-3.46765e-05
1.47819e-05
-3.4686e-05
1.72115e-05
-3.49239e-05
1.83393e-05
-3.69698e-05
1.79027e-05
-3.95566e-05
1.66982e-05
-4.1298e-05
1.18982e-05
-4.53365e-05
1.15999e-06
-4.70535e-05
-5.9553e-06
-4.36309e-05
-8.30677e-06
-3.69967e-05
-7.74321e-06
-8.79991e-06
-2.74546e-05
-1.06998e-05
2.24499e-05
-1.26448e-05
3.63702e-05
-1.27285e-05
3.61071e-05
-1.4167e-05
3.01592e-05
-1.68827e-05
2.38553e-05
-1.99797e-05
1.9145e-05
-2.25548e-05
1.6586e-05
-2.42717e-05
1.57026e-05
-2.51672e-05
1.56266e-05
-2.58219e-05
1.54804e-05
-2.68041e-05
1.50982e-05
-2.81577e-05
1.49619e-05
-2.90787e-05
1.57029e-05
-2.89287e-05
1.70615e-05
-2.84528e-05
1.78635e-05
-2.81905e-05
1.76404e-05
-2.76351e-05
1.61429e-05
-2.74917e-05
1.17549e-05
-3.01421e-05
3.81042e-06
-3.26281e-05
-3.46929e-06
-3.29117e-05
-8.02317e-06
-2.99412e-05
-1.07136e-05
-1.34581e-05
-2.52831e-05
-1.21127e-05
3.45626e-05
-1.37869e-05
3.80444e-05
-1.32804e-05
3.56007e-05
-1.37373e-05
3.06161e-05
-1.53239e-05
2.54419e-05
-1.74584e-05
2.12795e-05
-1.94526e-05
1.85801e-05
-2.09025e-05
1.71526e-05
-2.17498e-05
1.64739e-05
-2.22924e-05
1.6023e-05
-2.28297e-05
1.56356e-05
-2.33611e-05
1.54933e-05
-2.34841e-05
1.5826e-05
-2.28595e-05
1.6437e-05
-2.16977e-05
1.67018e-05
-2.02148e-05
1.61575e-05
-1.84366e-05
1.43648e-05
-1.71674e-05
1.04857e-05
-1.77003e-05
4.34343e-06
-1.90815e-05
-2.08803e-06
-1.9723e-05
-7.38167e-06
-1.89991e-05
-1.14376e-05
-1.50068e-05
-1.74504e-05
-8.90933e-06
4.34721e-05
-1.0954e-05
4.00892e-05
-1.12078e-05
3.58547e-05
-1.17433e-05
3.11517e-05
-1.29183e-05
2.6617e-05
-1.44768e-05
2.2838e-05
-1.59943e-05
2.00977e-05
-1.71602e-05
1.83186e-05
-1.78853e-05
1.71991e-05
-1.82868e-05
1.64245e-05
-1.85001e-05
1.5849e-05
-1.85051e-05
1.54984e-05
-1.80921e-05
1.5413e-05
-1.70796e-05
1.54245e-05
-1.5525e-05
1.51471e-05
-1.35717e-05
1.42043e-05
-1.14281e-05
1.22212e-05
-9.69693e-06
8.7545e-06
-9.1531e-06
3.79959e-06
-9.55865e-06
-1.68257e-06
-1.01634e-05
-6.77699e-06
-1.04669e-05
-1.1134e-05
-1.48624e-05
-1.06112e-05
-5.21979e-06
4.8692e-05
-7.17902e-06
4.20486e-05
-8.00463e-06
3.66804e-05
-8.79197e-06
3.19392e-05
-9.84798e-06
2.76732e-05
-1.10887e-05
2.40788e-05
-1.22774e-05
2.12865e-05
-1.3206e-05
1.92472e-05
-1.37876e-05
1.77808e-05
-1.40491e-05
1.66862e-05
-1.40378e-05
1.58377e-05
-1.3729e-05
1.51895e-05
-1.30126e-05
1.46966e-05
-1.17979e-05
1.42098e-05
-1.01175e-05
1.34667e-05
-8.09909e-06
1.21858e-05
-5.97293e-06
1.00949e-05
-4.17492e-06
6.95646e-06
-3.19381e-06
2.81855e-06
-3.04903e-06
-1.82733e-06
-3.43934e-06
-6.38667e-06
-4.06584e-06
-1.05075e-05
-1.40672e-05
-4.86098e-06
-1.98152e-06
5.06736e-05
-3.58134e-06
4.36485e-05
-4.59203e-06
3.76911e-05
-5.49626e-06
3.28434e-05
-6.48009e-06
2.8657e-05
-7.51423e-06
2.51129e-05
-8.46591e-06
2.22382e-05
-9.20091e-06
1.99823e-05
-9.64486e-06
1.82248e-05
-9.786e-06
1.68273e-05
-9.6302e-06
1.56819e-05
-9.15547e-06
1.47147e-05
-8.30708e-06
1.38482e-05
-7.04927e-06
1.29521e-05
-5.42061e-06
1.18382e-05
-3.53895e-06
1.03042e-05
-1.61055e-06
8.16656e-06
4.65892e-08
5.29931e-06
1.12769e-06
1.73749e-06
1.51231e-06
-2.21191e-06
1.30733e-06
-6.18163e-06
6.77441e-07
-9.87758e-06
-1.31255e-05
-2.64149e-07
5.12854e-07
5.01607e-05
-5.38039e-07
4.46994e-05
-1.45178e-06
3.86049e-05
-2.28992e-06
3.36816e-05
-3.14628e-06
2.95134e-05
-3.99243e-06
2.59591e-05
-4.74288e-06
2.29887e-05
-5.30622e-06
2.05457e-05
-5.62131e-06
1.85399e-05
-5.66239e-06
1.68685e-05
-5.41897e-06
1.54385e-05
-4.87453e-06
1.41703e-05
-4.00582e-06
1.29795e-05
-2.80918e-06
1.17555e-05
-1.33077e-06
1.03598e-05
3.23757e-07
8.64973e-06
1.98627e-06
6.5041e-06
3.43068e-06
3.85493e-06
4.42652e-06
7.41683e-07
4.86783e-06
-2.65319e-06
4.77037e-06
-6.08417e-06
4.21924e-06
-9.32646e-06
-1.22159e-05
3.30961e-06
1.99054e-06
4.81703e-05
1.6796e-06
4.50104e-05
1.1512e-06
3.91334e-05
5.4716e-07
3.42856e-05
-9.41811e-08
3.01547e-05
-7.23604e-07
2.65886e-05
-1.27016e-06
2.35353e-05
-1.66337e-06
2.0939e-05
-1.85127e-06
1.87279e-05
-1.80435e-06
1.68217e-05
-1.50705e-06
1.51413e-05
-9.48224e-07
1.36115e-05
-1.22061e-07
1.21534e-05
9.58081e-07
1.06753e-05
2.24338e-06
9.07447e-06
3.6425e-06
7.25061e-06
5.02176e-06
5.12486e-06
6.21536e-06
2.66136e-06
7.06214e-06
-1.05034e-07
7.46517e-06
-3.05614e-06
7.40724e-06
-6.02617e-06
6.92925e-06
-8.84847e-06
-1.13863e-05
6.09964e-06
2.56841e-06
4.5602e-05
3.12732e-06
4.44516e-05
3.11087e-06
3.91499e-05
2.86711e-06
3.45294e-05
2.52311e-06
3.04988e-05
2.15413e-06
2.69576e-05
1.83226e-06
2.38572e-05
1.62037e-06
2.11509e-05
1.56569e-06
1.87827e-05
1.69827e-06
1.66891e-05
2.03474e-06
1.48048e-05
2.58249e-06
1.30638e-05
3.33862e-06
1.13973e-05
4.2826e-06
9.73135e-06
5.36784e-06
7.9892e-06
6.51794e-06
6.1005e-06
7.62884e-06
4.01396e-06
8.57878e-06
1.71143e-06
9.25172e-06
-7.77952e-07
9.56915e-06
-3.37352e-06
9.50373e-06
-5.96071e-06
9.0728e-06
-8.41753e-06
-1.06364e-05
8.32287e-06
2.65951e-06
4.29425e-05
3.9189e-06
4.31923e-05
4.4499e-06
3.8619e-05
4.63529e-06
3.43441e-05
4.6419e-06
3.04922e-05
4.56914e-06
2.70304e-05
4.49416e-06
2.39323e-05
4.47813e-06
2.1167e-05
4.5664e-06
1.86944e-05
4.789e-06
1.64665e-05
5.16282e-06
1.4431e-05
5.69362e-06
1.25329e-05
6.37533e-06
1.07156e-05
7.1864e-06
8.92028e-06
8.08574e-06
7.08985e-06
9.0115e-06
5.17474e-06
9.88388e-06
3.14157e-06
1.06134e-05
9.81872e-07
1.11159e-05
-1.28052e-06
1.13309e-05
-3.5885e-06
1.12313e-05
-5.86118e-06
1.08232e-05
-8.00943e-06
-9.95086e-06
1.01376e-05
2.55937e-06
4.03831e-05
4.2764e-06
4.14753e-05
5.29102e-06
3.76044e-05
5.90128e-06
3.37339e-05
6.27203e-06
3.01215e-05
6.51001e-06
2.67925e-05
6.69376e-06
2.37486e-05
6.88316e-06
2.09776e-05
7.12235e-06
1.84552e-05
7.44122e-06
1.61477e-05
7.85707e-06
1.40151e-05
8.37577e-06
1.20142e-05
8.99157e-06
1.00998e-05
9.68545e-06
8.22641e-06
1.04236e-05
6.35172e-06
1.11576e-05
4.4408e-06
1.18273e-05
2.47189e-06
1.23673e-05
4.4184e-07
1.27169e-05
-1.63008e-06
1.28307e-05
-3.70236e-06
1.26863e-05
-5.71681e-06
1.22849e-05
-7.60806e-06
-9.3138e-06
1.16478e-05
2.42865e-06
3.79545e-05
4.39905e-06
3.95049e-05
5.78163e-06
3.62218e-05
6.7619e-06
3.27537e-05
7.47327e-06
2.94102e-05
8.0116e-06
2.62542e-05
8.44967e-06
2.33105e-05
8.84353e-06
2.05838e-05
9.23509e-06
1.80637e-05
9.65364e-06
1.57291e-05
1.0117e-05
1.35518e-05
1.06322e-05
1.1499e-05
1.11959e-05
9.53614e-06
1.17933e-05
7.62903e-06
1.23984e-05
5.74659e-06
1.29749e-05
3.86435e-06
1.34785e-05
1.96831e-06
1.38622e-05
5.82183e-08
1.40825e-05
-1.85035e-06
1.41068e-05
-3.72657e-06
1.39179e-05
-5.52789e-06
1.35159e-05
-7.206e-06
-8.71396e-06
1.29161e-05
2.32691e-06
3.56276e-05
4.41798e-06
3.74139e-05
6.05298e-06
3.45868e-05
7.32704e-06
3.14797e-05
8.33023e-06
2.84071e-05
9.13701e-06
2.54475e-05
9.80818e-06
2.26394e-05
1.03927e-05
1.99992e-05
1.09289e-05
1.75276e-05
1.14444e-05
1.52136e-05
1.19574e-05
1.30387e-05
1.24768e-05
1.09796e-05
1.30021e-05
9.01084e-06
1.35237e-05
7.10741e-06
1.40232e-05
5.24705e-06
1.44747e-05
3.41295e-06
1.48466e-05
1.59639e-06
1.5106e-05
-2.01143e-07
1.52227e-05
-1.96696e-06
1.51738e-05
-3.67768e-06
1.49476e-05
-5.30164e-06
1.45444e-05
-6.80278e-06
-8.1456e-06
1.39761e-05
2.26667e-06
3.3361e-05
4.40789e-06
3.52727e-05
6.20531e-06
3.27895e-05
7.69582e-06
2.99893e-05
8.93035e-06
2.71726e-05
9.95928e-06
2.44186e-05
1.08286e-05
2.17701e-05
1.15783e-05
1.92496e-05
1.22414e-05
1.68644e-05
1.28438e-05
1.46113e-05
1.34034e-05
1.24791e-05
1.39308e-05
1.04522e-05
1.44287e-05
8.51295e-06
1.48924e-05
6.64366e-06
1.53104e-05
4.829e-06
1.56655e-05
3.05791e-06
1.59363e-05
1.32552e-06
1.61008e-05
-3.65587e-07
1.61386e-05
-2.00478e-06
1.60348e-05
-3.57389e-06
1.57821e-05
-5.04888e-06
1.53817e-05
-6.40241e-06
-7.60743e-06
1.48435e-05
2.24411e-06
3.11169e-05
4.40686e-06
3.311e-05
6.30439e-06
3.0892e-05
7.94386e-06
2.83499e-05
9.34784e-06
2.57687e-05
1.05458e-05
2.32206e-05
1.15696e-05
2.07463e-05
1.24501e-05
1.83691e-05
1.3215e-05
1.60995e-05
1.38874e-05
1.39388e-05
1.44851e-05
1.18814e-05
1.50198e-05
9.91744e-06
1.54973e-05
8.03546e-06
1.59171e-05
6.22378e-06
1.62736e-05
4.4725e-06
1.65565e-05
2.77505e-06
1.67525e-05
1.12945e-06
1.68477e-05
-4.60806e-07
1.68294e-05
-1.98647e-06
1.66885e-05
-3.433e-06
1.64213e-05
-4.78165e-06
1.60302e-05
-6.01132e-06
-7.10106e-06
1.55238e-05
2.24648e-06
2.88705e-05
4.42543e-06
3.09311e-05
6.38323e-06
2.89343e-05
8.11739e-06
2.66158e-05
9.63389e-06
2.42523e-05
1.09475e-05
2.1907e-05
1.2079e-05
1.96148e-05
1.30516e-05
1.73965e-05
1.38882e-05
1.52629e-05
1.46096e-05
1.32174e-05
1.52329e-05
1.1258e-05
1.57709e-05
9.37948e-06
1.62314e-05
7.57492e-06
1.66177e-05
5.8375e-06
1.69285e-05
4.1617e-06
1.7159e-05
2.54451e-06
1.73022e-05
9.86285e-07
1.735e-05
-5.08631e-07
1.72953e-05
-1.93185e-06
1.71336e-05
-3.27124e-06
1.68637e-05
-4.51177e-06
1.64891e-05
-5.63673e-06
-6.62964e-06
1.60177e-05
2.25186e-06
2.66186e-05
4.45092e-06
2.8732e-05
6.44505e-06
2.69403e-05
8.23264e-06
2.48283e-05
9.81318e-06
2.26718e-05
1.11936e-05
2.05266e-05
1.2388e-05
1.84204e-05
1.34143e-05
1.63701e-05
1.42922e-05
1.4385e-05
1.50404e-05
1.24692e-05
1.56754e-05
1.0623e-05
1.62105e-05
8.84432e-06
1.66553e-05
7.13013e-06
1.70154e-05
5.47738e-06
1.7293e-05
3.88412e-06
1.74873e-05
2.35025e-06
1.75955e-05
8.7811e-07
1.7614e-05
-5.27141e-07
1.75397e-05
-1.85755e-06
1.73711e-05
-3.1026e-06
1.71091e-05
-4.2498e-06
1.6758e-05
-5.28557e-06
-6.19665e-06
1.6325e-05
2.23401e-06
2.43846e-05
4.45497e-06
2.65111e-05
6.4706e-06
2.49247e-05
8.28123e-06
2.30177e-05
9.88696e-06
2.10661e-05
1.12932e-05
1.91204e-05
1.25115e-05
1.72021e-05
1.35577e-05
1.53239e-05
1.44495e-05
1.34932e-05
1.52043e-05
1.17144e-05
1.58382e-05
9.9891e-06
1.63646e-05
8.31793e-06
1.6794e-05
6.70078e-06
1.71336e-05
5.13778e-06
1.73878e-05
3.62989e-06
1.75586e-05
2.17945e-06
1.76462e-05
7.9054e-07
1.765e-05
-5.30899e-07
1.75695e-05
-1.77705e-06
1.74054e-05
-2.93847e-06
1.71601e-05
-4.00444e-06
1.68381e-05
-4.96359e-06
-5.80507e-06
1.64466e-05
2.17478e-06
2.22098e-05
4.40839e-06
2.42776e-05
6.43194e-06
2.29012e-05
8.24188e-06
2.12078e-05
9.84255e-06
1.94654e-05
1.12423e-05
1.77206e-05
1.2454e-05
1.59904e-05
1.34933e-05
1.42845e-05
1.43774e-05
1.26091e-05
1.5123e-05
1.09687e-05
1.57457e-05
9.36641e-06
1.62588e-05
7.80486e-06
1.66731e-05
6.28652e-06
1.69968e-05
4.81413e-06
1.72355e-05
3.39115e-06
1.7393e-05
2.02203e-06
1.74712e-05
7.12332e-07
1.74715e-05
-5.312e-07
1.73952e-05
-1.70075e-06
1.72443e-05
-2.78756e-06
1.70221e-05
-3.7822e-06
1.67335e-05
-4.67496e-06
-5.45672e-06
1.63851e-05
2.07656e-06
2.01333e-05
4.29806e-06
2.20561e-05
6.30901e-06
2.08902e-05
8.09543e-06
1.94214e-05
9.66644e-06
1.78944e-05
1.10354e-05
1.63517e-05
1.2218e-05
1.48078e-05
1.32313e-05
1.32712e-05
1.40925e-05
1.17479e-05
1.4818e-05
1.02432e-05
1.54228e-05
8.76169e-06
1.59197e-05
7.30792e-06
1.63197e-05
5.88656e-06
1.66312e-05
4.50265e-06
1.68606e-05
3.16181e-06
1.70123e-05
1.8703e-06
1.70896e-05
6.35092e-07
1.70947e-05
-5.36328e-07
1.703e-05
-1.63605e-06
1.68983e-05
-2.65584e-06
1.67033e-05
-3.58728e-06
1.64503e-05
-4.42191e-06
-5.15199e-06
1.61455e-05
1.96114e-06
1.81722e-05
4.1328e-06
1.98845e-05
6.09947e-06
1.89235e-05
7.83612e-06
1.76847e-05
9.35523e-06
1.63753e-05
1.06745e-05
1.50324e-05
1.18123e-05
1.367e-05
1.27868e-05
1.22966e-05
1.36153e-05
1.09195e-05
1.43136e-05
9.54488e-06
1.48962e-05
8.17918e-06
1.53754e-05
6.82872e-06
1.57618e-05
5.50016e-06
1.6064e-05
4.20056e-06
1.62883e-05
2.93747e-06
1.64397e-05
1.71888e-06
1.65218e-05
5.53046e-07
1.65373e-05
-5.51801e-07
1.64888e-05
-1.58765e-06
1.63797e-05
-2.54676e-06
1.6214e-05
-3.42159e-06
1.59968e-05
-4.2048e-06
-4.88969e-06
1.57345e-05
1.8515e-06
1.63207e-05
3.93144e-06
1.78045e-05
5.81508e-06
1.70398e-05
7.47299e-06
1.60267e-05
8.91926e-06
1.49289e-05
1.01734e-05
1.37782e-05
1.12549e-05
1.25885e-05
1.21819e-05
1.13697e-05
1.2971e-05
1.01304e-05
1.36374e-05
8.87847e-06
1.41948e-05
7.62186e-06
1.46549e-05
6.36861e-06
1.5028e-05
5.12713e-06
1.53222e-05
3.90634e-06
1.55441e-05
2.7156e-06
1.56984e-05
1.56457e-06
1.57887e-05
4.62816e-07
1.58175e-05
-5.8065e-07
1.57876e-05
-1.55777e-06
1.57022e-05
-2.46139e-06
1.55654e-05
-3.28494e-06
1.53827e-05
-4.02211e-06
-4.66715e-06
1.51601e-05
1.7534e-06
1.45673e-05
3.70565e-06
1.58522e-05
5.47058e-06
1.52749e-05
7.02354e-06
1.44737e-05
8.37891e-06
1.35735e-05
9.55556e-06
1.26015e-05
1.05718e-05
1.15722e-05
1.14444e-05
1.0497e-05
1.2189e-05
9.38583e-06
1.28195e-05
8.24796e-06
1.33487e-05
7.09271e-06
1.37878e-05
5.92957e-06
1.41465e-05
4.76851e-06
1.44327e-05
3.62013e-06
1.46528e-05
2.49557e-06
1.48111e-05
1.40624e-06
1.49107e-05
3.63195e-07
1.49537e-05
-6.23693e-07
1.49423e-05
-1.54641e-06
1.48796e-05
-2.39869e-06
1.47697e-05
-3.17515e-06
1.46182e-05
-3.87066e-06
-4.48029e-06
1.44313e-05
1.65531e-06
1.2912e-05
3.45503e-06
1.40524e-05
5.07714e-06
1.36527e-05
6.50714e-06
1.30436e-05
7.7589e-06
1.23217e-05
8.84888e-06
1.15115e-05
9.79286e-06
1.06283e-05
1.06056e-05
9.68432e-06
1.13008e-05
8.69064e-06
1.18912e-05
7.65759e-06
1.23885e-05
6.59544e-06
1.28033e-05
5.51479e-06
1.3145e-05
4.4269e-06
1.34213e-05
3.34389e-06
1.36381e-05
2.27872e-06
1.37996e-05
1.24477e-06
1.39078e-05
2.54935e-07
1.39639e-05
-6.79765e-07
1.3969e-05
-1.55155e-06
1.39258e-05
-2.3556e-06
1.38389e-05
-3.08825e-06
1.37139e-05
-3.7457e-06
-4.32379e-06
1.35573e-05
1.54263e-06
1.13693e-05
3.17598e-06
1.2419e-05
4.64456e-06
1.2184e-05
5.94345e-06
1.17447e-05
7.08509e-06
1.118e-05
8.08281e-06
1.05138e-05
8.94947e-06
9.7616e-06
9.69741e-06
8.9364e-06
1.03385e-05
8.04962e-06
1.08839e-05
7.11213e-06
1.13446e-05
6.13479e-06
1.17305e-05
5.12889e-06
1.20508e-05
4.10667e-06
1.23131e-05
3.08158e-06
1.25234e-05
2.06844e-06
1.26852e-05
1.08297e-06
1.27995e-05
1.40611e-07
1.28656e-05
-7.45871e-07
1.28832e-05
-1.56921e-06
1.28547e-05
-2.32711e-06
1.27848e-05
-3.01846e-06
1.26801e-05
-3.64104e-06
-4.1913e-06
1.25476e-05
1.40982e-06
9.9594e-06
2.87203e-06
1.09567e-05
4.18683e-06
1.08692e-05
5.35432e-06
1.05771e-05
6.38443e-06
1.01499e-05
7.28735e-06
9.61082e-06
8.07324e-06
8.97571e-06
8.75222e-06
8.25743e-06
9.33436e-06
7.46748e-06
9.82967e-06
6.61684e-06
1.0248e-05
5.71648e-06
1.05989e-05
4.77798e-06
1.08915e-05
3.81411e-06
1.11337e-05
2.83937e-06
1.13317e-05
1.87039e-06
1.14889e-05
9.2576e-07
1.16049e-05
2.46018e-08
1.16762e-05
-8.17199e-07
1.17003e-05
-1.59335e-06
1.16793e-05
-2.30613e-06
1.16191e-05
-2.95824e-06
1.15272e-05
-3.54924e-06
-4.07572e-06
1.14116e-05
1.26304e-06
8.69629e-06
2.55757e-06
9.66207e-06
3.72512e-06
9.70155e-06
4.76565e-06
9.53654e-06
5.68595e-06
9.22956e-06
6.49359e-06
8.80317e-06
7.19657e-06
8.27272e-06
7.80321e-06
7.65078e-06
8.32204e-06
6.94866e-06
8.76176e-06
6.17711e-06
9.13131e-06
5.34693e-06
9.43979e-06
4.4695e-06
9.69634e-06
3.55755e-06
9.90968e-06
2.62602e-06
1.0087e-05
1.69306e-06
1.02321e-05
7.80591e-07
1.03434e-05
-8.66966e-08
1.04131e-05
-8.86953e-07
1.04352e-05
-1.61546e-06
1.04122e-05
-2.28316e-06
1.03523e-05
-2.8983e-06
1.02649e-05
-3.46189e-06
-3.9697e-06
1.01589e-05
1.11739e-06
7.57885e-06
2.25619e-06
8.52318e-06
3.28714e-06
8.67055e-06
4.20734e-06
8.61629e-06
5.02096e-06
8.41591e-06
5.73394e-06
8.09016e-06
6.35293e-06
7.65371e-06
6.88483e-06
7.11887e-06
7.3367e-06
6.49677e-06
7.71584e-06
5.79796e-06
8.02998e-06
5.03277e-06
8.28755e-06
4.21192e-06
8.49774e-06
3.34733e-06
8.67033e-06
2.45341e-06
8.81459e-06
1.54878e-06
8.93659e-06
6.58566e-07
9.03419e-06
-1.84317e-07
9.09307e-06
-9.4585e-07
9.10139e-06
-1.6238e-06
9.06413e-06
-2.24592e-06
8.99368e-06
-2.82785e-06
8.90217e-06
-3.37039e-06
-3.86652e-06
8.79899e-06
9.938e-07
6.585e-06
1.99737e-06
7.51954e-06
2.9047e-06
7.76316e-06
3.71149e-06
7.80946e-06
4.42173e-06
7.70564e-06
5.04138e-06
7.47049e-06
5.57648e-06
7.11859e-06
6.03273e-06
6.6626e-06
6.41555e-06
6.11392e-06
6.73043e-06
5.48305e-06
6.98335e-06
4.77983e-06
7.18132e-06
4.01391e-06
7.33308e-06
3.19554e-06
7.44944e-06
2.33702e-06
7.54289e-06
1.4553e-06
7.62469e-06
5.76743e-07
7.69559e-06
-2.55239e-07