/*--------------------------------*- C++ -*----------------------------------*\
  =========                 |
  \\      /  F ield         | OpenFOAM: The Open Source CFD Toolbox
   \\    /   O peration     | Website:  https://openfoam.org
    \\  /    A nd           | Version:  9
     \\/     M anipulation  |
\*---------------------------------------------------------------------------*/
FoamFile
{
    format      ascii;
    class       surfaceScalarField;
    location    "15.95";
    object      phi;
}
// * * * * * * * * * * * * * * * * * * * * * * * * * * * * * * * * * * * * * //

dimensions      [0 3 -1 0 0 0 0];

internalField   nonuniform List<scalar> 
1300
(
11.2529
1.87548
-4.28106
11.2529
-4.91658
1.87548
-4.20275
4.20275
-1.19276
1.19276
5.71231
5.54055
-2.37616
2.37616
-2.84267
2.84267
-2.86194
2.86194
-1.06194
1.06194
-1.02827
1.02827
0.69497
-0.69497
-3.3721
3.3721
-1.45951
1.45951
-2.89301
2.89301
6.12814
-6.12814
-3.30296
3.30296
-0.747647
0.747647
-4.26322
15.5161
6.98964
6.98964
-2.37393
2.37393
-1.25427
1.25427
1.41034
-1.41034
9.24857
-9.24857
-4.96751
-5.99303
1.87697
-13.8389
-3.03962
-3.03962
-2.7054
2.7054
-0.829928
1.04555
3.47635
-3.47635
-0.764218
0.764218
-4.2854
0.0826529
-4.2854
3.99083
0.211918
3.99083
-1.33395
0.141194
-1.33395
4.64731
-4.64731
1.0815
0.111261
1.0815
3.92796
-3.92796
-5.71005
11.4224
5.54281
-5.32063
20.8367
-5.93223
11.4728
-3.92541
3.92541
-2.28951
-0.0866464
-2.28951
2.38159
-0.00542987
2.38159
-3.989
3.989
-2.62594
-0.216733
-2.62594
2.95081
-0.108143
2.95081
3.66456
-3.66456
-2.91755
0.0556112
-2.91755
2.71051
0.151429
2.71051
0.771042
1.10443
-2.64652
3.69207
-1.10443
0.0424986
1.02614
0.0357985
1.02614
-1.01454
-0.0137338
-1.01454
1.04988
-0.0216056
1.04988
0.733551
-0.0385806
0.733551
-0.755638
0.0606681
-0.755638
-8.5498
-8.96222
-3.50127
0.129178
-3.50127
-1.4771
0.0175924
-1.4771
1.49622
-0.0367108
1.49622
-2.55309
2.55309
-3.22713
0.334122
-3.22713
4.80643
1.32171
4.80643
5.04613
6.20673
16.299
-16.299
10.1709
-3.01578
-0.287182
-3.01578
-3.47961
-5.76896
3.47961
-0.176652
-0.810065
0.0624181
-0.810065
5.62655
1.36309
5.62655
2.58877
0.121739
-2.58877
0.21484
4.61909
-4.61909
1.42501
0.948924
1.42501
-1.19143
1.19143
1.12349
-0.0736096
-1.12349
-0.130786
1.38601
0.0243332
1.38601
-1.40975
-0.000595581
-1.40975
7.37545
-13.3685
-7.85836
3.18172
0.190376
-3.18172
0.142105
3.56287
-0.0865196
3.56287
-3.31014
3.31014
-3.61065
0.134301
-3.61065
-0.688126
-0.0760921
-0.688126
0.85034
-0.0861218
0.85034
-4.53422
0.248818
-4.53422
-3.66128
0.434157
3.66128
0.329547
1.26461
-1.26461
-1.44118
0.107229
-1.44118
-4.62288
0.0886638
4.62288
0.0244266
-4.74681
0.0994976
-4.74681
-3.7123
0.101646
3.7123
0.215662
4.58926
1.03728
-4.58926
0.661301
-5.36949
11.5762
-5.88337
11.4262
-3.54672
-0.378693
-3.54672
4.11145
-0.186036
4.11145
2.56126
0.331747
-2.56126
0.271749
2.51265
-0.131065
2.51265
-3.94325
-0.0457503
-3.94325
3.78673
0.202267
3.78673
2.55745
-0.0447954
-2.55745
-0.0684896
2.933
0.0178085
2.933
3.66994
-0.00537258
3.66994
-3.53813
-0.126435
-3.53813
3.1798
-3.1798
3.08169
0.0981097
-3.08169
0.164133
-5.07402
5.07343
-0.00799938
-5.06602
1.01814
1.01814
0.77466
-0.0411087
0.77466
-0.861836
0.106198
-0.861836
8.34587
-16.2042
8.81851
-17.3683
7.4774
-21.3163
8.01705
-16.9793
3.79254
-3.79254
3.72133
0.0712106
-3.72133
0.220055
-1.4585
-0.0185989
-1.4585
-2.31376
-0.239329
-2.31376
2.88877
-0.335684
2.88877
-3.74232
3.74232
-4.12492
0.382594
4.12492
0.681512
2.99918
-0.0661728
-2.99918
-0.0166052
0.929423
0.152073
-0.929423
0.119358
4.8532
-0.23411
4.8532
-4.08022
-0.538869
-4.08022
-1.47697
0.018469
1.47697
-0.0519605
-1.25891
0.0674815
-1.25891
-5.0745
0.00847755
-5.0387
-1.40127
-1.40127
1.30414
4.9962
-3.58467
0.0465404
3.58467
-0.0217976
3.52738
0.214945
-3.52738
0.217239
-3.26391
0.0841133
3.26391
0.0462308
-0.66525
-0.0228754
-0.66525
-1.0454
1.0454
-0.926866
-0.11853
0.926866
-0.0765267
1.42172
-0.157113
1.42172
1.47465
0.0215744
-1.47465
0.0334638
-4.99088
0.244071
-4.99088
4.11593
-0.00448556
4.11593
-3.94557
-0.134646
3.94557
-0.275635
-0.00372259
5.07715
-1.01442
-0.000121974
1.01442
-5.10148
5.10136
-0.670422
0.00517155
0.670422
0.104238
1.02951
0.161911
-1.02951
0.167678
3.82078
-0.0340418
-3.82078
0.0282354
-2.02943
-0.284329
-2.02943
-3.21647
-0.330247
3.21647
-0.327702
-5.11516
-0.0779676
5.19312
-5.13676
1.33687
0.0491329
-1.33687
5.15049
-1.15626
-0.108352
1.15626
-0.11086
1.62289
-0.201168
1.62289
5.10564
-0.252441
-5.10564
0.114757
-4.12393
0.180677
4.12393
-0.00799362
-1.79569
-0.233741
1.79569
-0.172798
-13.128
14.4911
7.70869
-6.3459
-7.02258
-12.1149
4.44715
7.12908
14.618
-11.6593
-9.65703
-11.5172
2.86018
-2.6925
-3.74107
3.70249
23.5161
-23.4166
-18.3994
19.0809
20.7767
-20.561
5.70877
5.71359
15.7861
-15.8728
-21.0255
20.6468
15.456
-15.6727
22.0383
-22.084
-25.7104
25.6763
-16.0996
16.1552
-20.2892
20.1627
-21.0479
20.7723
-8.29677
-9.07154
16.3486
-16.2194
20.2265
-20.5137
-19.2373
19.5714
10.0474
4.44367
11.0847
-6.24677
11.9555
-5.22601
12.9347
8.36219
-16.659
7.84205
-14.8646
9.19607
11.0304
-9.01942
-3.09544
-17.9683
17.8818
-17.2587
17.3049
23.9564
-23.8738
-6.17279
11.8864
-5.25338
12.3825
-11.409
-6.99039
10.0873
4.53067
8.87377
7.47481
-9.06415
-2.45301
-24.7655
24.5131
-25.6411
25.1022
0.098905
2.42672
-2.52562
1.35318
-0.861042
3.28776
1.99913
2.10533
2.45259
-2.29068
0.239912
-2.76553
-2.89632
-5.36608
5.47331
5.18818
-5.07691
16.4659
7.05016
16.4903
-16.7052
-6.7114
-16.4611
11.364
7.71693
11.7466
12.0612
8.71553
12.1628
10.3592
-10.3316
-0.0275782
-11.4775
21.8367
1.55479
-18.4679
-13.9373
8.82757
6.95857
8.82214
-9.83504
-6.03775
-9.56329
-11.1045
-9.92099
-11.4348
12.3919
8.25494
12.2058
-15.3521
15.3442
9.34935
6.10665
9.2412
-8.99327
-6.67946
-9.06176
27.4182
-6.60169
-20.8165
-13.1534
-12.557
12.9511
9.08718
14.2529
11.4235
14.2811
8.85666
18.5615
-17.9438
5.38684
-9.95012
-6.14949
-9.78599
9.26392
6.8913
9.41535
-11.7646
-8.52456
-11.7181
-11.9827
-9.06522
11.9881
8.17464
-12.5266
-13.1144
12.6613
8.11102
7.82013
-17.4772
9.15914
-18.2307
-10.8627
-5.35669
-10.6427
10.8256
6.61123
-17.4368
-5.83337
23.7934
-12.763
20.698
-11.0275
-9.48614
-11.0441
-14.674
-4.56329
-14.2398
-8.07465
7.79032
-8.91023
8.57455
26.95
-16.2257
-10.7243
-12.3782
-8.1828
11.7169
-0.63219
-12.8359
12.8083
-0.880328
12.0544
16.498
15.8659
-10.8809
-6.37774
-10.6637
10.2719
7.03301
10.356
15.978
7.9784
16.1899
-16.7025
-7.17125
-16.4537
4.88779
-4.96388
5.72363
-5.70517
15.5616
9.54063
-15.3275
-9.43806
22.9485
-10.7795
-12.169
-5.12478
5.23405
-0.109261
-1.83703
-0.483848
0.263799
-1.93445
-1.80662
1.87378
0.231548
5.46559
3.65898
-2.41427
2.48175
2.77885
2.70524
-0.191079
2.51986
-2.51469
18.9962
-11.5021
-7.49411
13.8859
-13.7972
-2.5678
-19.2713
16.7035
2.6931
3.02789
-2.96547
-3.96374
-1.40234
-3.93028
2.97263
2.21555
3.1247
2.11399
3.35932
-8.14519
1.5764
6.56879
-6.0312
-3.50051
-13.3507
-6.31011
19.6608
16.6434
7.86971
-16.7581
0.297045
5.30832
-5.34504
-1.57395
-11.7768
8.40174
-9.9757
-15.2436
-6.44897
21.6925
-9.58114
-1.08255
9.3662
2.3804
-10.8766
-7.09172
10.7423
1.42049
-12.0641
23.9713
-11.9071
-18.4419
8.51608
13.3206
16.233
-17.8628
9.31847
8.54435
-4.54219
7.43122
1.39092
7.30015
-19.8323
13.7946
11.2426
8.32876
-11.5744
2.01111
-17.8212
25.1364
-22.2247
-2.9117
12.8293
12.3071
13.6037
13.3463
-7.85879
21.4625
-3.57084
-18.6538
21.3921
-13.0633
15.725
-28.7883
-29.0712
10.4174
-18.0281
22.0819
-4.05383
-5.19079
-10.1614
23.2189
-2.03999
-21.1789
10.1658
-13.9583
-11.8223
25.7807
-20.56
18.5018
-6.31026
-12.1915
-12.6789
-9.40508
12.4983
2.84588
-25.7683
31.1552
-7.20681
7.88404
1.35716
7.90185
10.6364
-15.9302
5.29378
9.9236
-16.2339
6.81514
-22.7453
-12.1183
24.0748
-11.9565
-17.475
-15.7337
-1.74126
4.82116
26.334
-16.2446
12.0241
4.22057
8.4639
1.89211
-8.56201
-1.22398
0.971376
16.0949
-17.0663
10.3867
10.5085
11.7178
4.37713
10.7687
7.11316
-10.7469
-0.971207
-14.7894
5.72417
-6.61475
-14.5672
20.2914
-16.2668
1.69955
-10.3026
-13.9943
24.2969
-16.4521
11.427
12.5442
18.46
-19.6152
5.62098
-9.74842
-9.86682
10.6458
-17.2606
7.49311
12.7983
15.6041
2.48969
12.7279
11.3469
-19.3392
1.10848
18.8217
-16.3687
3.89337
10.3877
-15.9174
0.183739
-10.4589
2.62952
-15.3925
-14.8073
16.4491
-21.0124
-12.3392
13.4488
2.74111
-13.7784
-0.461488
-5.00839
-3.06626
-5.24213
-3.30612
-5.60411
-11.1649
-1.94688
-9.21804
5.84344
-6.75105
-4.68371
7.07875
1.4958
-4.99128
4.88293
-5.64364
5.44248
-0.210352
13.0186
15.6555
7.4727
-8.47645
15.9491
-15.5499
23.5283
-29.6776
14.1277
15.9302
-23.1014
-13.7474
2.72835
2.15944
2.64222
13.563
-14.5195
0.956574
-13.3835
17.7228
-4.33931
-19.7506
6.36717
-6.18766
5.1978
0.525833
5.1792
1.42027
6.85337
-8.27364
-4.2849
-4.33686
-9.15495
-13.8567
23.0117
4.75368
-13.1115
8.35785
-12.0825
16.8362
0.0905472
-13.2021
17.0082
-10.1549
17.5341
-11.992
5.54209
12.7936
22.357
-9.56341
16.24
-6.69934
7.05483
-16.6182
-6.80191
-11.2931
18.1844
-13.0038
14.7034
-1.11811
15.8215
-13.7882
3.00874
-2.07047
8.43799
8.65283
16.8098
-12.4326
11.9775
-18.6768
-4.64077
-16.1871
-3.38882
1.0454
-13.8787
12.8333
12.1387
-11.0933
-3.26638
9.06405
-5.79767
5.73328
-2.86869
-2.86458
-1.86317
-3.10071
1.88604
0.633814
6.36709
0.495182
-3.36388
-2.0195
-1.91527
10.4041
8.5921
-3.86389
3.75463
3.60009
-0.572203
0.963764
2.16094
4.62208
-3.65831
0.685173
3.9369
-2.2803
3.84077
1.46756
-3.86234
-0.067934
-3.41243
11.8142
3.15636
-5.37191
1.7136
2.36221
-13.8643
19.7396
-11.4304
-8.30923
22.1018
3.03594
-14.4663
16.2354
-13.5423
8.07648
-14.3866
-6.38985
-19.9322
-12.882
-10.723
19.0809
-12.2887
20.1584
3.83733
-20.4554
24.2927
-12.7577
6.30876
-9.47233
10.9399
-4.07848
-5.39385
11.2902
10.4024
-11.0616
-0.715131
0.228525
8.45253
-8.22401
-1.52317
-7.55437
-16.4083
17.8288
-8.25641
17.5749
7.69274
-7.63334
25.2082
6.56566
-14.199
-11.8762
-12.9588
-5.65465
10.5784
-1.81826
-7.24351
-14.0098
7.2883
0.0118505
-19.0031
22.0257
-3.02265
-12.0445
-1.75009
14.5794
-18.1022
1.86833
-11.287
10.7387
12.1296
12.1415
-20.906
-0.27291
-12.651
3.20828
-15.8593
15.5153
-6.8456
17.263
-16.1127
11.429
-14.6169
14.3513
-1.508
14.7108
-9.41699
6.10571
-15.5108
-12.6649
14.5107
-8.4041
15.8679
-10.1698
26.0377
-17.3766
14.5149
11.5228
-2.75754
-8.28659
-14.0639
11.3064
0.45091
8.35276
17.8354
-10.7222
16.8642
8.92095
-18.6694
-8.3396
-25.8601
7.19077
-13.3159
-7.35574
14.5465
11.1043
12.9964
4.67969
-11.7724
17.7631
-19.5043
-5.80651
-9.0008
14.6791
-3.37275
10.1995
-19.2003
-5.193
13.1397
-0.191048
-12.9486
3.08599
-15.4252
5.12372
-20.5489
15.8886
-16.3501
1.79095
-7.97861
-3.20033
-3.31119
-2.19611
-3.44753
-7.64546
5.44935
-1.27829
3.60464
-12.6032
12.4121
-5.11956
10.5689
-4.10366
-1.13847
4.27646
1.16602
11.7349
3.04882
-16.7963
-9.31179
14.6937
-5.38191
1.09229
-10.8299
3.86384
8.06961
14.0322
-24.7732
1.67174
-15.1245
-4.11238
6.27182
4.95167
17.0904
2.57081
6.61652
-0.344703
9.18734
2.29752
2.22099
-11.2671
12.2237
1.56616
15.6938
-1.88509
7.42719
3.29411
3.3117
2.03334
5.72884
2.92399
8.73758
0.46394
-3.87292
2.079
-3.99426
-1.28488
-4.03537
-0.332883
3.74491
-4.07779
10.5591
-1.96704
5.17723
-1.91534
-4.97033
6.88568
-9.40946
-5.54254
-1.60563
-5.64627
7.35987
6.1679
-5.75423
-3.65523
2.41394
-15.2959
11.9726
-12.6878
-2.28542
22.0073
-9.49218
1.26817
-3.18342
-6.2862
-7.68853
7.75647
24.1902
1.01801
12.2831
18.8468
11.755
1.03283
12.0431
-16.0969
-10.7023
-16.3698
-0.854466
13.7249
5.66093
20.6731
17.1838
13.811
-5.38932
-24.8936
20.7698
-8.5461
16.4305
-3.48186
-17.067
14.571
8.95729
-17.3121
0.962013
-16.105
-24.6511
-0.346595
12.7587
-11.3883
10.2499
7.18361
2.03443
-2.4509
-0.860294
2.56943
-0.348434
8.8389
-0.18168
-8.25445
8.43613
-3.56323
2.27835
-0.45514
4.20977
6.43054
4.4635
-3.79095
-7.86874
-8.8577
-5.00658
-17.1669
2.49391
-8.66181
5.72689
-3.44854
2.86231
4.98759
10.1648
-1.60396
-9.48932
7.40164
-4.53933
5.62548
)
;

boundaryField
{
    wall-4
    {
        type            calculated;
        value           uniform 0;
    }
    velocity-inlet-5
    {
        type            calculated;
        value           uniform -11.2529;
    }
    velocity-inlet-6
    {
        type            calculated;
        value           uniform -1.87548;
    }
    pressure-outlet-7
    {
        type            calculated;
        value           nonuniform List<scalar> 8(4.28106 4.91658 10.9605 11.9619 17.512 15.2338 17.1644 15.4945);
    }
    wall-8
    {
        type            calculated;
        value           uniform 0;
    }
    frontAndBackPlanes
    {
        type            empty;
        value           nonuniform List<scalar> 0();
    }
}


// ************************************************************************* //
