/*--------------------------------*- C++ -*----------------------------------*\
  =========                 |
  \\      /  F ield         | OpenFOAM: The Open Source CFD Toolbox
   \\    /   O peration     | Website:  https://openfoam.org
    \\  /    A nd           | Version:  9
     \\/     M anipulation  |
\*---------------------------------------------------------------------------*/
FoamFile
{
    format      ascii;
    class       surfaceScalarField;
    location    "5.8";
    object      alphaPhi0.water;
}
// * * * * * * * * * * * * * * * * * * * * * * * * * * * * * * * * * * * * * //

dimensions      [0 3 -1 0 0 0 0];

internalField   nonuniform List<scalar> 
4432
(
2.30804e-07
-2.30804e-07
4.70588e-07
-2.39789e-07
6.94784e-07
-2.24192e-07
8.96722e-07
-2.01937e-07
1.07362e-06
-1.76895e-07
1.22571e-06
-1.52091e-07
1.35765e-06
-1.31943e-07
1.47381e-06
-1.16154e-07
1.57583e-06
-1.02019e-07
1.66284e-06
-8.70088e-08
1.7372e-06
-7.43519e-08
1.80898e-06
-7.17773e-08
1.897e-06
-8.80165e-08
2.02299e-06
-1.25997e-07
2.19222e-06
-1.69231e-07
2.34474e-06
-1.52524e-07
2.2301e-06
1.14636e-07
1.50005e-06
7.30056e-07
3.84065e-07
1.11481e-06
-6.34593e-07
1.01773e-06
-1.03862e-06
4.03096e-07
-6.27751e-07
-4.1179e-07
-6.29228e-07
2.33478e-07
-4.64277e-07
4.63125e-07
-4.69442e-07
6.81985e-07
-4.43049e-07
8.83656e-07
-4.03604e-07
1.06356e-06
-3.568e-07
1.22133e-06
-3.09854e-07
1.35945e-06
-2.70058e-07
1.4805e-06
-2.37207e-07
1.58471e-06
-2.06223e-07
1.6699e-06
-1.72194e-07
1.73653e-06
-1.40978e-07
1.79068e-06
-1.25928e-07
1.84312e-06
-1.40456e-07
1.90385e-06
-1.8674e-07
1.9701e-06
-2.35479e-07
1.99936e-06
-1.81806e-07
1.85717e-06
2.56744e-07
1.3279e-06
1.25925e-06
5.52324e-07
1.89049e-06
-1.52344e-07
1.72525e-06
-5.65762e-07
8.17445e-07
-5.28736e-07
-4.48824e-07
-1.15797e-06
2.372e-07
-7.01472e-07
4.62771e-07
-6.95014e-07
6.78554e-07
-6.58834e-07
8.80776e-07
-6.0582e-07
1.06345e-06
-5.39477e-07
1.22509e-06
-4.71488e-07
1.36717e-06
-4.12144e-07
1.49114e-06
-3.61171e-07
1.59603e-06
-3.11116e-07
1.67831e-06
-2.54469e-07
1.73635e-06
-1.99019e-07
1.77294e-06
-1.62526e-07
1.79381e-06
-1.61323e-07
1.80307e-06
-1.96006e-07
1.79694e-06
-2.2935e-07
1.75408e-06
-1.39038e-07
1.60475e-06
4.0549e-07
1.20978e-06
1.65422e-06
6.86891e-07
2.41338e-06
1.96818e-07
2.21532e-06
-1.85862e-07
1.20012e-06
-2.91132e-07
-3.43561e-07
-1.4491e-06
2.38263e-07
-9.39734e-07
4.6468e-07
-9.21435e-07
6.81948e-07
-8.76103e-07
8.87406e-07
-8.11275e-07
1.07423e-06
-7.26304e-07
1.2401e-06
-6.37361e-07
1.38597e-06
-5.58009e-07
1.51256e-06
-4.87772e-07
1.61796e-06
-4.1652e-07
1.69698e-06
-3.33483e-07
1.74591e-06
-2.47954e-07
1.76488e-06
-1.81503e-07
1.75609e-06
-1.52538e-07
1.72008e-06
-1.59995e-07
1.65317e-06
-1.62445e-07
1.55093e-06
-3.67989e-08
1.40137e-06
5.46417e-07
1.13224e-06
1.88045e-06
8.18519e-07
2.6828e-06
4.71021e-07
2.53137e-06
1.51802e-07
1.50072e-06
8.90891e-09
-2.00296e-07
-1.4402e-06
2.3858e-07
-1.17831e-06
4.68653e-07
-1.15151e-06
6.91014e-07
-1.09847e-06
9.02284e-07
-1.02254e-06
1.09462e-06
-9.18648e-07
1.26522e-06
-8.07959e-07
1.41487e-06
-7.07658e-07
1.54393e-06
-6.16841e-07
1.6497e-06
-5.22294e-07
1.72521e-06
-4.08991e-07
1.76481e-06
-2.87557e-07
1.76658e-06
-1.83276e-07
1.73033e-06
-1.16292e-07
1.65425e-06
-8.39216e-08
1.53415e-06
-4.2346e-08
1.37094e-06
1.26415e-07
1.19977e-06
7.02521e-07
1.06066e-06
2.01846e-06
9.04214e-07
2.83825e-06
6.83764e-07
2.74281e-06
5.01798e-07
1.68646e-06
2.89718e-07
1.48956e-08
-1.1505e-06
2.3997e-07
-1.41828e-06
4.75775e-07
-1.38732e-06
7.05749e-07
-1.32844e-06
9.24736e-07
-1.24153e-06
1.12356e-06
-1.11748e-06
1.29917e-06
-9.83562e-07
1.45247e-06
-8.60958e-07
1.58366e-06
-7.48037e-07
1.68951e-06
-6.2814e-07
1.7613e-06
-4.80782e-07
1.79175e-06
-3.18004e-07
1.77755e-06
-1.69084e-07
1.71721e-06
-5.59465e-08
1.60774e-06
2.55465e-08
1.44515e-06
1.20237e-07
1.23484e-06
3.36729e-07
1.034e-06
8.99718e-07
9.94369e-07
2.07013e-06
9.50524e-07
2.88107e-06
8.71005e-07
2.8213e-06
8.03154e-07
1.78667e-06
4.98687e-07
3.21237e-07
-6.51813e-07
2.43167e-07
-1.66145e-06
4.86843e-07
-1.63099e-06
7.25913e-07
-1.56751e-06
9.53654e-07
-1.46926e-06
1.15936e-06
-1.32318e-06
1.33991e-06
-1.16411e-06
1.4965e-06
-1.01754e-06
1.6292e-06
-8.80738e-07
1.73451e-06
-7.33443e-07
1.80227e-06
-5.48539e-07
1.82406e-06
-3.39785e-07
1.79589e-06
-1.40912e-07
1.7159e-06
2.40449e-08
1.58131e-06
1.60135e-07
1.38987e-06
3.11675e-07
1.15308e-06
5.73509e-07
9.37779e-07
1.11502e-06
9.06594e-07
2.09786e-06
9.659e-07
2.84571e-06
1.01913e-06
2.80435e-06
9.43347e-07
1.88181e-06
5.66211e-07
6.98391e-07
-8.56086e-08
2.49058e-07
-1.91051e-06
5.01331e-07
-1.88326e-06
7.50161e-07
-1.81634e-06
9.86807e-07
-1.70591e-06
1.19917e-06
-1.53554e-06
1.3843e-06
-1.34924e-06
1.54357e-06
-1.17681e-06
1.67683e-06
-1.01399e-06
1.78056e-06
-8.37169e-07
1.84371e-06
-6.11692e-07
1.8575e-06
-3.53571e-07
1.81789e-06
-1.01305e-07
1.72343e-06
1.18513e-07
1.57241e-06
3.11145e-07
1.36575e-06
5.18338e-07
1.12038e-06
8.18876e-07
9.04805e-07
1.33059e-06
8.65546e-07
2.13696e-06
9.69827e-07
2.75985e-06
1.05751e-06
2.73768e-06
9.22888e-07
2.01813e-06
5.05932e-07
1.11534e-06
4.20322e-07
-1.21089e-06
1.20752e-06
-8.90896e-07
-3.22792e-07
-5.62556e-07
-3.30886e-07
-3.79484e-07
-1.83896e-07
-2.79634e-07
-9.8713e-08
-2.24997e-07
-5.51615e-08
-9.97749e-08
-1.25745e-07
2.01594e-07
-3.01903e-07
7.68906e-07
-5.68293e-07
1.26562e-06
-4.97678e-07
9.85306e-07
2.87575e-07
1.01089e-07
8.84228e-07
-1.7271e-06
1.82785e-06
-3.2105e-06
1.45625e-06
-1.82386e-06
-1.38665e-06
-1.1503e-08
-1.81238e-06
8.1942e-07
-8.30939e-07
9.77904e-07
-1.58646e-07
9.73669e-07
-6.08325e-07
1.81247e-06
-5.8367e-07
-3.47459e-07
-5.91249e-07
-3.2332e-07
-6.05786e-07
-1.69371e-07
-6.13396e-07
-9.11159e-08
-5.82975e-07
-8.52888e-08
-4.8167e-07
-2.27316e-07
-2.31891e-07
-5.53897e-07
1.73432e-07
-9.7638e-07
5.01835e-07
-8.27105e-07
2.33373e-07
5.56256e-07
-5.14071e-07
1.63168e-06
-1.6311e-06
2.95139e-06
-2.27337e-06
2.07474e-06
-1.36659e-06
-2.29344e-06
-2.65726e-07
-2.91326e-06
2.47253e-07
-1.34394e-06
6.13981e-07
-5.2539e-07
1.58476e-06
-1.45834e-07
1.96781e-06
-4.37989e-07
-5.62579e-08
-6.45111e-07
-1.16211e-07
-7.70501e-07
-4.39934e-08
-8.42671e-07
-1.89525e-08
-8.63892e-07
-6.40508e-08
-8.12177e-07
-2.79033e-07
-6.44733e-07
-7.21332e-07
-3.77702e-07
-1.24276e-06
-1.77404e-07
-1.02826e-06
-4.30731e-07
8.0959e-07
-9.7644e-07
2.17739e-06
-1.50185e-06
3.47681e-06
-1.59676e-06
2.12982e-06
-1.02153e-06
-2.87433e-06
-3.77638e-07
-3.55717e-06
-1.50924e-07
-1.57067e-06
2.0298e-07
-8.7931e-07
1.78775e-06
-3.30984e-09
1.97683e-06
-4.38366e-07
3.78828e-07
-7.51989e-07
1.97403e-07
-9.45618e-07
1.49609e-07
-1.066e-06
1.01427e-07
-1.1334e-06
3.3306e-09
-1.14284e-06
-2.6901e-07
-1.07388e-06
-7.90044e-07
-9.30478e-07
-1.38406e-06
-7.93108e-07
-1.16323e-06
-1.01245e-06
1.00525e-06
-1.35713e-06
2.52208e-06
-1.47205e-06
3.51993e-06
-1.1187e-06
1.73434e-06
-7.4314e-07
-3.26903e-06
-4.39558e-07
-3.86077e-06
-4.89122e-07
-1.52112e-06
-2.21899e-07
-1.14654e-06
1.56585e-06
-7.91119e-08
2.05595e-06
-5.56541e-07
8.56265e-07
-9.14123e-07
5.55018e-07
-1.14526e-06
3.80748e-07
-1.30019e-06
2.56356e-07
-1.40994e-06
1.13628e-07
-1.47954e-06
-1.98409e-07
-1.5102e-06
-7.61091e-07
-1.50568e-06
-1.39012e-06
-1.42089e-06
-1.2101e-06
-1.48087e-06
1.05306e-06
-1.6097e-06
2.59685e-06
-1.37742e-06
3.28575e-06
-7.54881e-07
1.10938e-06
-5.59375e-07
-3.47797e-06
-5.09874e-07
-3.9071e-06
-7.57324e-07
-1.26853e-06
-5.96299e-07
-1.30231e-06
9.69548e-07
-2.65748e-07
2.32171e-06
-7.58549e-07
1.34908e-06
-1.12283e-06
9.193e-07
-1.36872e-06
6.26681e-07
-1.54517e-06
4.32768e-07
-1.69029e-06
2.58933e-07
-1.81287e-06
-7.52093e-08
-1.93101e-06
-6.44277e-07
-2.06001e-06
-1.26091e-06
-2.04216e-06
-1.1519e-06
-1.89688e-06
9.05971e-07
-1.745e-06
2.4433e-06
-1.27142e-06
2.81035e-06
-5.29369e-07
3.60896e-07
-5.06906e-07
-3.5003e-06
-6.31867e-07
-3.77045e-06
-9.09932e-07
-9.89433e-07
-8.54064e-07
-1.36234e-06
1.12864e-07
-5.15649e-07
2.83737e-06
-1.02236e-06
1.85578e-06
-1.36563e-06
1.26257e-06
-1.60957e-06
8.70775e-07
-1.79592e-06
6.1904e-07
-1.96352e-06
4.26397e-07
-2.12627e-06
8.75039e-08
-2.30828e-06
-4.62301e-07
-2.52969e-06
-1.03935e-06
-2.64776e-06
-1.01633e-06
-2.26335e-06
6.31647e-07
-1.83132e-06
2.00964e-06
-1.12679e-06
2.10419e-06
-4.76761e-07
-3.07976e-07
-5.87429e-07
-3.38951e-06
-7.90827e-07
-3.55789e-06
-9.53956e-07
-8.25458e-07
-9.93977e-07
-1.32858e-06
-8.81005e-07
-8.96447e-07
3.7338e-06
-1.32941e-06
2.28872e-06
-1.62698e-06
1.56013e-06
-1.85917e-06
1.10297e-06
-2.04622e-06
8.06088e-07
-2.22302e-06
6.03199e-07
-2.40329e-06
2.67775e-07
-2.61429e-06
-2.48515e-07
-2.86987e-06
-7.86455e-07
-3.01141e-06
-8.76908e-07
-2.59525e-06
2.74815e-07
-1.92456e-06
1.4167e-06
-1.09828e-06
1.27316e-06
-5.82191e-07
-8.23953e-07
-7.64013e-07
-3.20757e-06
-9.86859e-07
-3.33434e-06
-9.24424e-07
-8.87196e-07
-9.79783e-07
-1.28253e-06
-1.86068e-06
5.49128e-07
-2.45963e-06
1.11514e-06
-2.44926e-06
1.67765e-06
-2.37884e-06
2.21018e-06
-2.23843e-06
2.68157e-06
-2.00691e-06
3.08872e-06
-1.75637e-06
3.43463e-06
-1.52272e-06
3.71433e-06
-1.29368e-06
3.92595e-06
-1.04878e-06
4.0417e-06
-7.27432e-07
4.04621e-06
-3.58084e-07
3.93339e-06
1.15123e-08
3.70285e-06
3.49052e-07
3.35401e-06
6.59986e-07
2.90022e-06
9.72128e-07
2.3904e-06
1.3287e-06
1.9537e-06
1.76729e-06
1.82481e-06
2.26585e-06
1.95083e-06
2.63383e-06
1.98785e-06
2.70067e-06
1.51822e-06
2.48776e-06
4.34841e-07
2.19872e-06
2.01297e-06
-1.1578e-06
5.35901e-07
-2.4729e-06
1.13325e-06
-2.52376e-06
1.71032e-06
-2.45433e-06
2.2573e-06
-2.31391e-06
2.74246e-06
-2.06279e-06
3.17228e-06
-1.80296e-06
3.53469e-06
-1.54729e-06
3.80222e-06
-1.27188e-06
3.96106e-06
-9.76578e-07
4.01648e-06
-6.35598e-07
3.98281e-06
-2.70555e-07
3.86311e-06
9.25435e-08
3.64539e-06
4.22032e-07
3.32193e-06
7.34646e-07
2.90563e-06
1.03671e-06
2.4487e-06
1.33204e-06
2.05266e-06
1.61558e-06
1.82214e-06
1.86997e-06
1.6861e-06
2.07448e-06
1.3988e-06
2.21828e-06
7.73945e-07
2.27886e-06
-2.07616e-07
2.30488e-06
2.34706e-06
-1.43904e-06
2.90455e-07
-1.62877e-08
4.81867e-07
-1.29335e-08
6.37967e-07
-9.89632e-09
7.72448e-07
-7.72723e-09
9.58715e-07
-2.15253e-08
1.15265e-06
-2.68971e-08
1.29855e-06
-2.12987e-08
1.37773e-06
-1.58279e-08
1.39539e-06
-1.34693e-08
1.38679e-06
-9.19809e-09
1.3644e-06
-4.592e-09
1.32217e-06
0
1.24714e-06
0
1.13478e-06
0
9.97901e-07
7.19508e-10
8.63044e-07
2.82829e-09
7.52032e-07
2.1659e-08
6.556e-07
1.00222e-08
5.31377e-07
0
3.65048e-07
3.72335e-10
1.27811e-07
2.15402e-10
-1.83892e-07
0
1.6136e-08
-5.3198e-07
1.6271e-09
-1.51289e-08
1.78004e-09
-1.03167e-08
1.49937e-09
-6.86036e-09
3.74913e-10
-3.86451e-09
1.28684e-09
-1.96819e-08
2.30087e-09
-2.51528e-08
2.8278e-09
-1.90562e-08
2.97667e-09
-1.31984e-08
3.18176e-09
-1.08929e-08
3.27209e-09
-6.51905e-09
3.2111e-09
-1.78034e-09
5.60804e-09
0
5.9157e-09
0
6.4902e-09
0
7.40757e-09
0
8.21908e-09
0
8.7183e-09
0
5.59579e-09
0
2.07611e-09
0
1.4713e-09
2.79385e-12
6.73518e-10
3.10334e-12
-6.82415e-10
0
1.00456e-08
-3.80204e-09
-3.17368e-09
-9.32144e-09
-2.49794e-09
-8.35581e-09
0
-2.38497e-09
-2.03417e-09
8.93583e-10
-3.76815e-09
-1.41089e-08
-8.82325e-09
-9.75502e-09
-8.80268e-09
-9.2578e-09
-4.57967e-09
-7.52502e-09
-4.09357e-09
-8.5792e-09
-1.75125e-09
-6.31902e-09
2.30256e-09
-3.29518e-09
5.3054e-09
-4.69858e-10
7.07463e-09
8.25789e-10
7.66285e-09
2.3137e-09
7.18007e-09
3.56495e-09
4.91383e-09
4.57532e-09
2.46445e-09
3.9163e-09
1.09162e-09
2.65486e-09
2.51231e-10
1.69983e-09
-1.60466e-09
9.54171e-10
-3.64653e-09
1.14968e-09
-1.89683e-09
2.2775e-10
1.56686e-10
-1.20226e-09
-1.18395e-09
-2.06437e-09
-1.98935e-09
-2.04297e-09
-3.20115e-10
-2.5729e-09
9.57428e-10
-5.05817e-10
2.18417e-10
-1.32797e-09
-6.97203e-10
-6.84607e-11
-1.39845e-09
-1.6728e-11
-1.49428e-09
-1.12635e-11
-1.66565e-09
-1.39954e-14
-1.54613e-09
-2.91912e-14
-1.14501e-09
-7.5532e-13
-7.80661e-10
-1.60754e-12
-5.44064e-10
0
-6.04031e-10
0
-8.11499e-10
0
-1.22687e-09
0
-3.05624e-09
0
-4.48172e-09
0
-4.05362e-09
1.86616e-09
-3.68064e-09
1.77193e-10
-3.19665e-09
0
-4.23342e-09
1.30988e-10
3.43139e-09
-4.97974e-09
-4.37891e-11
-5.53271e-15
-1.95213e-10
-1.79396e-14
-3.65054e-10
-8.02623e-14
1.65999e-10
-3.46713e-14
-1.99465e-11
-3.26398e-13
-7.81022e-14
-6.92266e-12
-2.99337e-14
-1.67515e-11
-1.59423e-14
-1.12776e-11
-1.7971e-14
-1.20347e-14
-2.2337e-14
-2.4893e-14
-2.84611e-14
-7.49314e-13
-5.34018e-13
-1.10927e-12
-1.65311e-12
0
-3.74387e-12
0
-6.5231e-12
0
-9.4808e-11
0
-9.46943e-10
0
-1.3762e-09
0
-5.07559e-10
3.31409e-10
-4.17561e-10
0
-1.82312e-09
8.04264e-11
-2.4121e-09
1.17346e-10
0
-8.20454e-10
-2.1226e-16
-8.55485e-15
-7.69541e-16
-2.03074e-14
-1.89963e-15
-8.167e-14
-2.83838e-15
-3.59025e-14
-3.22523e-13
-5.25799e-15
-1.50561e-11
-1.69653e-13
-9.81188e-12
-2.17164e-12
-4.42166e-14
-5.14191e-12
-4.81596e-14
-8.15951e-15
-5.6613e-14
-1.65577e-14
-7.84337e-12
-9.29387e-13
-1.21192e-11
1.21114e-13
-3.50967e-12
4.51815e-12
0
6.25539e-14
0
5.98573e-13
-7.36853e-10
1.34632e-10
-7.71035e-10
2.84537e-10
-5.3255e-10
1.4253e-11
-2.80817e-10
1.46026e-12
-4.17081e-10
1.6703e-10
-6.22563e-10
3.47556e-11
-1.10074e-10
5.33442e-11
0
-7.47326e-11
-3.17972e-17
-4.8692e-15
-8.53038e-15
-4.15417e-14
-3.08248e-14
-8.54004e-14
0
-3.01528e-14
0
-5.70793e-16
-2.6043e-12
-3.67816e-15
-6.93687e-12
-5.03868e-16
-9.12591e-14
-3.0723e-14
-9.27408e-14
-6.78078e-15
-8.69561e-13
-3.84631e-15
-2.35437e-11
-1.65103e-13
-2.23552e-11
2.69844e-12
-1.50945e-12
4.66637e-12
-1.48311e-12
1.25293e-14
0
4.50309e-13
-2.71452e-10
3.63442e-11
-3.20763e-10
4.51214e-12
-3.00533e-10
0
-4.46624e-10
7.00478e-11
-2.99812e-10
2.10727e-10
-5.30405e-11
0
-8.14397e-13
7.30864e-13
3.66945e-13
-1.25851e-12
-3.79827e-15
-5.56884e-15
-3.98802e-14
-1.24525e-13
-1.27632e-13
-1.36816e-13
-1.54213e-15
-3.52169e-14
-1.8744e-15
-2.41138e-16
-1.53724e-15
-6.99083e-17
-1.93611e-15
-1.09236e-16
-3.2387e-14
-2.76415e-16
0
0
-1.75288e-12
8.36516e-14
-2.02277e-11
9.25746e-13
-1.80094e-11
4.24603e-12
-1.09428e-12
1.83107e-12
-1.09525e-12
9.10714e-15
-6.98966e-12
4.48686e-13
-6.34417e-13
0
-6.20309e-13
1.971e-14
-1.20581e-11
0
-6.66431e-11
0
-3.32198e-11
0
-4.04136e-13
1.50269e-12
-1.05421e-13
6.47704e-14
3.00558e-14
-1.37109e-13
-1.60882e-14
-3.48364e-15
-8.02446e-14
-7.27574e-14
-5.50487e-14
-4.3091e-14
-9.3655e-16
-8.08611e-15
-1.22845e-15
4.81091e-17
-1.47917e-15
1.782e-16
-1.83299e-15
2.4194e-16
-1.02332e-13
1.00202e-13
-3.05773e-12
2.45608e-13
-3.28539e-12
1.4288e-12
-1.17775e-11
6.06578e-13
-3.82302e-12
9.71528e-13
-1.43552e-13
2.72863e-16
-1.40959e-13
6.3423e-15
-6.63331e-14
0
-4.4398e-14
5.44879e-15
-1.19846e-13
1.68951e-14
-2.2691e-12
2.41717e-12
-2.74733e-12
5.32689e-12
-2.78988e-13
0
-1.79196e-13
1.55143e-12
-6.75883e-14
1.01121e-13
1.1435e-13
-2.49391e-13
-3.27921e-16
-9.16736e-17
-5.27132e-14
-2.08094e-16
-6.52154e-14
-3.0725e-15
-1.17294e-15
1.0181e-15
-1.41926e-15
2.91811e-16
-1.66511e-15
4.21394e-16
-4.25547e-15
2.80991e-15
-6.43815e-12
1.3535e-12
-7.11579e-12
1.98504e-12
-6.75413e-12
2.12734e-12
-9.90244e-13
5.57599e-13
-1.73968e-14
4.86653e-15
-1.12335e-14
3.08224e-16
-1.06662e-14
5.68032e-15
-1.44926e-15
0
-5.6391e-15
4.7821e-16
0
1.30587e-14
-1.69611e-11
8.90809e-12
-2.33329e-11
1.17525e-11
-2.64126e-11
1.06201e-11
-5.30979e-12
1.07207e-11
-1.6834e-13
5.22193e-13
3.82634e-14
-8.20729e-14
-1.83706e-16
-5.9389e-15
-1.36289e-15
-5.05985e-15
-1.18844e-15
5.05069e-16
-1.44296e-15
2.15874e-16
-4.73904e-16
8.0925e-16
-6.85154e-16
8.61676e-16
-1.17567e-12
7.24859e-14
-5.74097e-12
1.25705e-12
-5.28187e-12
2.58615e-12
-2.43158e-12
7.91505e-13
-1.73385e-14
3.76658e-14
-9.27274e-15
2.94042e-15
-6.1967e-15
3.34105e-15
-5.45086e-16
2.41915e-15
-5.77699e-17
2.03454e-16
-7.44127e-16
4.99632e-16
-2.66327e-12
1.59029e-13
-2.14454e-11
6.06208e-12
-2.06088e-11
1.09714e-11
-1.97878e-11
9.85263e-12
-1.25078e-11
6.5189e-12
-7.21757e-14
7.65645e-13
3.29695e-14
-5.65606e-14
-2.20867e-14
-4.77283e-15
-2.27641e-16
2.96412e-14
-3.55211e-16
1.44333e-16
-8.31947e-16
2.04816e-16
0
1.22817e-15
0
7.72989e-15
-6.93741e-13
9.80193e-14
-2.23642e-12
0
-1.03508e-12
1.23074e-15
-4.29995e-14
0
-8.51662e-15
5.28117e-16
-6.5084e-15
3.73774e-15
-2.48181e-15
4.27436e-15
-2.69573e-16
9.34818e-16
-2.25974e-16
1.65079e-16
0
1.64722e-16
0
4.25009e-16
-3.03856e-12
0
-1.24887e-11
6.0728e-13
-1.18305e-11
2.916e-12
-8.70654e-13
0
-8.92481e-14
2.03755e-14
2.88211e-14
-4.89354e-14
-9.49942e-14
4.55288e-14
-3.11621e-14
1.36589e-13
-5.70767e-16
1.23669e-15
-1.13169e-15
2.75235e-16
-1.69961e-15
2.87884e-15
-6.07221e-14
1.56129e-14
-3.43441e-15
6.20888e-15
-1.63148e-15
0
-3.33953e-16
3.31314e-19
-6.43163e-16
0
-3.62268e-15
8.35776e-16
-3.6586e-15
1.81907e-15
-8.49154e-16
1.23708e-15
-2.04294e-16
1.38869e-16
-1.86639e-16
1.54659e-16
-2.43483e-16
1.54272e-16
-4.21392e-16
1.23754e-16
-8.06557e-15
1.10979e-16
-2.49182e-13
8.06201e-17
-7.55657e-15
0
-3.43051e-14
0
-7.80676e-14
2.49096e-14
4.92933e-14
-3.88918e-14
-1.3855e-13
1.90148e-13
-2.37271e-14
1.92412e-13
-1.52553e-15
5.74548e-15
-2.08754e-15
3.39786e-16
-8.19426e-15
3.46556e-15
-7.86344e-15
3.47441e-15
-3.96593e-16
0
-8.32279e-17
7.93508e-17
-6.31211e-17
4.39474e-17
-2.35387e-16
1.82562e-17
-6.5216e-16
1.10814e-16
-4.66121e-16
1.06982e-16
-9.70931e-17
3.28365e-17
-1.24609e-16
2.56574e-17
-1.46838e-16
1.02385e-16
-1.59071e-16
1.23384e-16
-1.5287e-16
1.33977e-16
-1.59988e-16
1.19908e-16
-2.02674e-16
7.6645e-17
-2.34581e-16
1.10074e-17
-6.00767e-15
1.06738e-16
-3.80812e-14
3.48834e-15
7.73571e-15
-1.26881e-14
-1.40746e-13
3.31273e-13
-5.96174e-15
2.06152e-13
-2.58176e-16
5.75734e-17
-1.56045e-15
4.12546e-16
-1.79835e-15
1.19035e-15
-1.52057e-16
3.10962e-16
-1.00136e-16
2.98726e-17
-5.33053e-17
8.4119e-17
-1.08504e-17
2.08954e-17
-2.11725e-17
2.08966e-18
-1.92719e-17
1.22576e-18
-4.3048e-18
6.89317e-19
-5.59885e-18
4.18576e-18
-3.46503e-17
2.16227e-18
-8.47198e-17
2.92609e-17
-1.35851e-16
8.20074e-17
-1.57236e-16
1.31807e-16
-1.47673e-16
1.33242e-16
-1.26821e-16
1.08366e-16
-7.43457e-17
6.85919e-17
-1.20654e-16
3.63358e-17
-2.47632e-16
0
0
-7.22612e-16
-9.58219e-14
4.27427e-13
-1.54792e-16
2.88264e-13
-1.39444e-16
5.81315e-17
-4.0605e-16
1.63839e-16
-2.21738e-16
2.22704e-16
-3.05293e-17
4.44576e-17
-3.05676e-17
1.38201e-17
-1.13392e-17
1.3383e-17
-4.7376e-19
2.51022e-18
-1.0054e-19
2.90686e-19
-5.74291e-20
7.99493e-20
6.0493e-19
2.58735e-20
-3.64937e-19
-6.01027e-19
-1.78244e-18
3.60577e-19
-2.05594e-17
1.19129e-18
-6.39207e-17
1.535e-17
-8.79749e-17
4.22372e-17
-8.37606e-17
5.1238e-17
-7.45683e-17
4.66495e-17
-5.52191e-17
3.76287e-17
-2.27734e-17
2.41806e-17
-1.59907e-17
5.55507e-18
2.44577e-18
-6.72105e-17
-1.20338e-13
5.48009e-13
-7.77448e-17
4.58147e-13
-7.01427e-17
6.64827e-17
-7.18891e-17
7.46983e-17
-3.95255e-17
7.30024e-17
-6.80617e-18
2.10381e-17
-2.9597e-18
1.00613e-18
-7.34564e-19
2.38521e-18
1.76532e-18
1.03076e-20
2.56934e-18
-2.03294e-18
2.69371e-18
-2.85702e-18
2.3486e-18
-2.92245e-18
1.39045e-18
-2.50452e-18
-6.43789e-20
-1.46277e-18
-6.54518e-19
6.67646e-20
-5.38663e-18
2.34184e-18
-1.04162e-17
9.24113e-19
-1.2512e-17
1.71553e-18
-1.21943e-17
2.06468e-18
-1.13159e-17
2.26241e-18
-7.63607e-18
2.39132e-18
-3.56495e-18
1.64053e-18
5.7743e-19
-2.25309e-18
-1.16298e-13
6.64478e-13
-6.07749e-17
7.64585e-13
-5.27725e-17
7.44202e-17
-3.6171e-17
7.40971e-17
-2.01205e-17
7.31663e-17
-4.50334e-19
1.97074e-17
4.8244e-19
1.22378e-20
1.66134e-18
-6.86533e-19
2.69103e-18
-2.20636e-18
3.18554e-18
-3.38635e-18
3.13468e-18
-3.84582e-18
2.73749e-18
-3.66671e-18
2.11217e-18
-3.12452e-18
1.38148e-18
-2.36139e-18
6.33117e-19
-1.51307e-18
-3.68919e-20
-6.76819e-19
-8.00608e-20
3.82181e-20
-1.50766e-19
1.25454e-19
-1.94615e-19
1.77179e-19
-2.37513e-19
2.03754e-19
-3.04455e-19
2.29172e-19
-3.16573e-19
2.51002e-19
2.99913e-20
-3.06349e-19
-1.11217e-13
7.75866e-13
-6.12233e-17
6.53813e-13
-5.26964e-17
8.18472e-17
-3.96519e-17
8.21545e-17
-1.87443e-17
1.02704e-16
1.04564e-19
2.06872e-17
8.77585e-19
-1.81366e-19
1.74735e-18
-1.38405e-18
2.34058e-18
-2.55537e-18
2.57395e-18
-3.22306e-18
2.48642e-18
-3.37864e-18
2.19148e-18
-3.14114e-18
1.7859e-18
-2.68314e-18
1.35345e-18
-2.12781e-18
9.53367e-19
-1.57074e-18
6.19162e-19
-1.07529e-18
4.03255e-19
-6.75119e-19
2.63149e-19
-4.21809e-19
1.63319e-19
-2.61616e-19
8.88501e-20
-1.52725e-19
3.11438e-20
-7.71685e-20
-3.09209e-22
-2.46358e-20
2.14706e-22
-6.24168e-22
-1.00711e-13
8.76748e-13
-7.02683e-17
4.33407e-13
-6.10693e-17
8.86098e-17
-6.77052e-17
1.66959e-16
-2.09187e-17
2.30713e-16
-9.86111e-19
2.80265e-17
3.40387e-19
1.41755e-18
9.1294e-19
-5.98104e-19
1.32129e-18
-1.47847e-18
1.49361e-18
-2.00259e-18
1.48014e-18
-2.14447e-18
1.33623e-18
-2.03233e-18
1.11968e-18
-1.76687e-18
8.80102e-19
-1.43204e-18
6.55112e-19
-1.09059e-18
4.66157e-19
-7.85648e-19
3.21131e-19
-5.3898e-19
2.16543e-19
-3.5573e-19
1.42399e-19
-2.27865e-19
8.9838e-20
-1.40774e-19
5.27128e-20
-8.21488e-20
2.78513e-20
-4.34651e-20
-1.97391e-20
1.32656e-20
-6.93742e-14
1.61753e-13
-1.36116e-16
4.13795e-16
-1.26345e-16
9.48346e-17
-1.16356e-16
4.85975e-16
-2.98103e-17
4.21498e-16
-4.49311e-18
5.33058e-17
-2.26978e-18
1.12478e-17
-9.09581e-19
6.15e-18
1.84295e-19
2.77594e-18
4.7222e-19
-3.10489e-19
6.01764e-19
-7.49234e-19
6.11908e-19
-9.07658e-19
5.48716e-19
-8.83611e-19
4.50193e-19
-7.6216e-19
3.45197e-19
-6.02873e-19
2.50421e-19
-4.45616e-19
1.73227e-19
-3.10806e-19
1.15643e-19
-2.05646e-19
7.52939e-20
-1.30279e-19
4.77522e-20
-7.9562e-20
2.905e-20
-4.64773e-20
1.63774e-20
-2.52303e-20
-1.19154e-20
8.28376e-21
-1.39069e-16
2.77805e-16
-6.06281e-17
2.80728e-16
-1.80839e-16
5.57935e-16
-1.90549e-16
7.86595e-16
-4.26137e-17
5.33808e-16
-1.23214e-17
9.40509e-17
-9.22246e-18
3.6943e-17
-6.51219e-18
2.71609e-17
-3.41149e-18
1.69645e-17
-1.19261e-18
7.95381e-18
1.1476e-20
2.70288e-18
1.637e-19
-1.93058e-20
2.01497e-19
-2.62254e-19
1.85845e-19
-3.08968e-19
1.50285e-19
-2.73553e-19
1.11918e-19
-2.12511e-19
7.74067e-20
-1.51798e-19
5.06254e-20
-1.00293e-19
3.18685e-20
-6.22088e-20
1.94898e-20
-3.66991e-20
1.15225e-20
-2.0606e-20
6.38095e-21
-1.07557e-20
-4.82074e-21
3.09433e-21
-2.23869e-17
3.01435e-16
-9.95512e-17
3.03482e-16
-1.76576e-16
8.40306e-16
-1.38709e-16
9.05747e-16
-4.95364e-17
5.6009e-16
-2.30469e-17
1.34343e-16
-1.97319e-17
7.78267e-17
-1.57536e-17
6.2198e-17
-1.0047e-17
4.29609e-17
-4.82364e-18
2.40616e-17
-1.63451e-18
1.0291e-17
-2.59141e-19
3.1526e-18
4.11529e-20
5.1714e-19
6.1334e-20
-7.12156e-20
5.50627e-20
-1.01542e-19
4.3115e-20
-8.73645e-20
2.99164e-20
-6.55407e-20
1.90316e-20
-4.34534e-20
1.13672e-20
-2.62564e-20
6.47382e-21
-1.47288e-20
3.52224e-21
-7.70826e-21
1.78731e-21
-3.67627e-21
-1.4391e-21
7.56927e-22
-1.8567e-17
3.22335e-16
-8.7138e-17
3.17345e-16
-1.49295e-16
8.67577e-16
-1.43327e-16
9.13242e-16
-4.69753e-17
4.72356e-16
-3.20672e-17
1.61219e-16
-2.9162e-17
1.2241e-16
-2.45206e-17
1.01667e-16
-1.73556e-17
7.33246e-17
-9.43422e-18
4.53832e-17
-3.60824e-18
2.13021e-17
-8.17878e-19
6.9515e-18
-6.13744e-20
1.32296e-18
1.62289e-20
8.40031e-20
1.73734e-20
-3.11797e-20
1.46143e-20
-3.19759e-20
1.01637e-20
-2.58098e-20
6.22721e-21
-1.72199e-20
3.46384e-21
-1.00931e-20
1.76927e-21
-5.33106e-21
8.17004e-22
-2.54037e-21
3.20582e-22
-1.04325e-21
-2.99885e-22
6.76864e-23
-1.44605e-17
3.39128e-16
-5.49914e-17
2.7009e-16
-8.96633e-17
5.11795e-16
-7.7198e-17
5.20134e-16
-3.64211e-17
2.71783e-16
-3.39747e-17
1.68688e-16
-3.33007e-17
1.52076e-16
-2.89185e-17
1.3513e-16
-2.18067e-17
1.00281e-16
-1.27905e-17
6.55773e-17
-5.00371e-18
3.22164e-17
-1.06192e-18
1.02193e-17
-8.01532e-20
1.62357e-18
3.55881e-21
9.70139e-20
4.88521e-21
-8.29121e-21
4.39874e-21
-1.09403e-20
3.03159e-21
-9.5203e-21
1.76082e-21
-6.37506e-21
8.8333e-22
-3.61915e-21
3.75506e-22
-1.78879e-21
1.18068e-22
-7.59998e-22
4.68077e-24
-2.49393e-22
-2.75526e-23
-6.329e-23
-9.00704e-18
5.02922e-16
-1.63899e-17
2.32219e-16
-2.28449e-17
2.7793e-16
-2.52201e-17
2.67225e-16
-2.57132e-17
1.91899e-16
-2.76041e-17
1.7065e-16
-2.89625e-17
1.57624e-16
-2.7639e-17
1.49359e-16
-2.16659e-17
1.1979e-16
-1.31786e-17
7.92017e-17
-5.0118e-18
3.92613e-17
-8.72798e-19
1.14228e-17
-5.02328e-20
1.60002e-18
6.85602e-22
6.95857e-20
1.26156e-21
-2.06916e-21
1.17037e-21
-3.70136e-21
7.7253e-22
-3.38519e-21
4.02359e-22
-2.2475e-21
1.62697e-22
-1.21914e-21
3.93802e-23
-5.55689e-22
-1.99084e-23
-2.04889e-22
-4.57146e-23
-4.69531e-23
3.45801e-24
-4.54895e-23
-6.88979e-18
1.69679e-15
-1.09826e-17
2.33991e-16
-1.33556e-17
2.7825e-16
-1.50804e-17
2.67263e-16
-1.72139e-17
1.92412e-16
-1.88665e-17
1.65146e-16
-2.09027e-17
1.58631e-16
-2.10153e-17
1.50878e-16
-1.72503e-17
1.26218e-16
-1.05632e-17
8.39905e-17
-3.73537e-18
4.06342e-17
-5.44914e-19
1.13518e-17
-1.78579e-20
1.24101e-18
1.03689e-22
2.42508e-20
2.86182e-22
-4.53383e-22
2.56118e-22
-1.25451e-21
1.47728e-22
-1.16988e-21
5.5962e-23
-7.56044e-22
5.05415e-24
-3.86501e-22
-2.57928e-23
-1.6061e-22
-3.32124e-23
-4.96184e-23
-2.85787e-23
-4.63034e-24
2.61305e-24
-2.0834e-23
-7.16146e-17
6.32397e-15
-2.19455e-15
1.32532e-13
-3.43649e-15
1.55956e-12
-8.19392e-18
1.47586e-12
-1.05702e-17
1.93084e-16
-1.02081e-17
1.63044e-16
-1.19664e-17
1.53447e-16
-1.1497e-17
1.51572e-16
-1.03705e-17
1.26571e-16
-6.33234e-18
8.41646e-17
-2.082e-18
4.04457e-17
-2.09309e-19
9.71709e-18
-3.07859e-21
6.375e-19
3.928e-24
5.00195e-21
4.83008e-23
-3.17116e-23
3.381e-23
-4.34061e-22
8.09944e-24
-3.99494e-22
-1.247e-23
-2.45634e-22
-2.28256e-23
-1.16668e-22
-2.27073e-23
-4.3383e-23
-1.79206e-23
-1.03146e-23
-1.23121e-23
4.37966e-25
1.12709e-24
-7.69165e-24
0
9.63504e-15
-1.83419e-14
1.01723e-12
-2.48886e-14
3.32743e-12
-1.3042e-14
3.00281e-12
-1.57778e-18
8.25713e-13
-3.85481e-18
1.63671e-16
-3.1683e-18
1.51283e-16
-3.6649e-18
1.5008e-16
-3.30577e-18
1.22612e-16
-2.00574e-18
8.02268e-17
-5.36596e-19
3.46243e-17
-3.06292e-20
6.22102e-18
-1.66871e-22
2.30718e-19
1.33139e-26
7.64578e-22
-3.20725e-27
-6.63933e-25
-6.60845e-24
-1.57018e-22
-1.42589e-23
-1.35523e-22
-1.6831e-23
-7.76158e-23
-1.47305e-23
-3.37055e-23
-1.09141e-23
-1.09502e-23
-7.23864e-24
-1.6348e-24
-4.39217e-24
3.17836e-25
3.73423e-25
-2.47784e-24
3.41888e-15
9.52929e-15
2.70222e-14
1.10215e-12
8.61358e-14
3.29727e-12
8.8684e-14
3.0296e-12
0
1.12481e-12
9.15959e-18
2.65385e-16
4.81375e-18
1.49186e-16
4.52593e-18
1.43218e-16
3.15823e-18
1.12456e-16
1.65137e-18
6.8183e-17
4.59545e-19
2.44106e-17
3.2283e-20
2.98262e-18
2.4218e-22
5.92827e-20
2.55527e-23
8.82237e-23
-4.47204e-25
-4.59839e-24
-8.6107e-24
-5.85126e-23
-1.05205e-23
-4.556e-23
-9.10807e-24
-2.38822e-23
-6.4798e-24
-9.33813e-24
-4.15453e-24
-2.5736e-24
-2.44447e-24
-1.00471e-25
-1.33811e-24
1.18341e-25
1.00763e-25
-6.83084e-25
3.56923e-15
9.27012e-15
5.3189e-14
5.5813e-13
2.06075e-13
3.17348e-12
2.15479e-13
3.04967e-12
0
6.65892e-13
1.94101e-17
4.93209e-16
1.23208e-17
1.49833e-16
1.16403e-17
1.32885e-16
7.83551e-18
9.69291e-17
3.64792e-18
5.12238e-17
7.13541e-19
1.38602e-17
2.49882e-20
1.00572e-18
7.16217e-23
9.31937e-21
6.13158e-24
6.41941e-24
-1.89811e-24
-1.05319e-23
-5.31625e-24
-2.20245e-23
-5.19155e-24
-1.50762e-23
-3.80106e-24
-7.12424e-24
-2.34441e-24
-2.46884e-24
-1.33411e-24
-5.53781e-25
-7.02881e-25
1.1914e-26
-3.47153e-25
3.26114e-26
2.23999e-26
-1.59797e-25
6.24083e-15
9.4117e-15
1.20567e-13
1.99375e-14
2.42778e-13
6.56512e-13
1.02636e-13
3.48633e-13
0
0
0
5.00497e-16
1.81645e-17
1.57326e-16
1.57405e-17
1.19938e-16
9.60328e-18
7.58508e-17
3.5499e-18
3.24228e-17
4.14001e-19
5.71181e-18
6.24792e-21
1.98521e-19
6.46375e-24
6.92519e-22
6.03099e-25
2.11392e-25
-1.71483e-24
-6.84948e-24
-2.60766e-24
-8.14865e-24
-2.12701e-24
-4.85225e-24
-1.34554e-24
-2.03546e-24
-7.25993e-25
-6.15728e-25
-3.65998e-25
-1.08075e-25
-1.72509e-25
5.33013e-27
-7.61381e-26
7.08787e-27
4.0686e-27
-3.12956e-26
1.25142e-15
1.23993e-14
1.6342e-15
3.27197e-15
1.5204e-14
0
1.89332e-15
0
5.84497e-17
7.58114e-17
4.64473e-17
3.29377e-16
2.39834e-17
1.76567e-16
1.59465e-17
1.0043e-16
8.20829e-18
5.05666e-17
2.07768e-18
1.52179e-17
1.14451e-19
1.3933e-18
5.93262e-22
1.78382e-20
1.96664e-25
1.98037e-23
2.69177e-26
1.03866e-25
-1.01041e-24
-3.31186e-24
-1.11457e-24
-2.93815e-24
-7.62715e-25
-1.50472e-24
-4.14492e-25
-5.51008e-25
-1.93982e-25
-1.43501e-25
-8.5526e-26
-1.91812e-26
-3.56639e-26
1.31294e-27
-1.3888e-26
1.22537e-27
5.92363e-28
-5.02419e-27
1.47956e-15
1.2043e-14
8.59447e-16
7.52537e-15
2.61597e-16
1.22446e-15
1.23933e-16
6.86974e-16
7.94077e-17
4.66222e-16
5.68123e-17
3.22931e-16
2.60983e-17
1.57334e-16
1.28575e-17
6.90961e-17
4.73153e-18
2.49484e-17
6.45296e-19
4.22319e-18
1.27837e-20
1.50628e-19
1.88261e-23
5.73361e-22
1.9681e-24
2.19191e-25
-9.56594e-26
-3.21604e-25
-5.14072e-25
-1.4983e-24
-4.33133e-25
-1.0378e-24
-2.45527e-25
-4.49491e-25
-1.12417e-25
-1.40745e-25
-4.4586e-26
-3.09796e-26
-1.68431e-26
-3.14708e-27
-6.10411e-27
2.30808e-28
-2.05983e-27
1.66658e-28
6.72466e-29
-6.42961e-28
1.73039e-15
7.66846e-15
1.50147e-15
7.7237e-15
6.51959e-16
4.06057e-15
3.22463e-16
2.23213e-15
1.4396e-16
1.00486e-15
5.25411e-17
3.52784e-16
1.97706e-17
1.13341e-16
6.9756e-18
3.41561e-17
1.49569e-18
7.09271e-18
8.09438e-20
4.93683e-19
4.54843e-22
5.24906e-21
1.92746e-25
5.92327e-24
3.2758e-26
1.10969e-25
-1.57296e-25
-4.88315e-25
-2.37921e-25
-6.52509e-25
-1.56819e-25
-3.61207e-25
-7.25258e-26
-1.30466e-25
-2.72045e-26
-3.41067e-26
-8.8264e-27
-6.19363e-27
-2.76528e-27
-4.9074e-28
-8.47684e-28
3.04105e-29
-2.41526e-28
1.74374e-29
5.72761e-30
-6.32732e-29
1.0596e-15
1.15195e-15
1.71863e-15
3.37751e-15
1.00073e-15
3.91363e-15
4.85364e-16
2.32216e-15
1.78335e-16
1.04662e-15
4.79882e-17
3.38935e-16
1.06607e-17
6.7384e-17
2.01114e-18
1.01781e-17
1.81611e-19
8.18558e-19
2.94108e-21
1.66847e-20
4.40576e-24
4.85421e-23
6.37343e-25
2.41911e-26
-1.96527e-27
-6.31609e-27
-1.04778e-25
-3.13256e-25
-1.01674e-25
-2.73747e-25
-5.38867e-26
-1.24727e-25
-2.00937e-26
-3.72943e-26
-5.98718e-27
-7.95605e-27
-1.51781e-27
-1.15657e-27
-3.7562e-28
-7.41411e-29
-9.33966e-29
3.0436e-30
-2.16e-29
1.36027e-30
3.45515e-31
-4.55836e-30
1.22275e-16
8.0664e-18
6.68608e-16
2.43089e-16
7.63775e-16
1.05143e-15
4.55181e-16
1.13874e-15
1.62063e-16
6.58599e-16
3.27268e-17
1.94902e-16
3.5211e-18
2.49254e-17
2.32849e-19
1.39352e-18
5.88724e-21
2.79706e-20
2.50432e-23
1.36372e-22
1.49487e-26
1.5542e-25
4.17685e-27