/*--------------------------------*- C++ -*----------------------------------*\
  =========                 |
  \\      /  F ield         | OpenFOAM: The Open Source CFD Toolbox
   \\    /   O peration     | Website:  https://openfoam.org
    \\  /    A nd           | Version:  9
     \\/     M anipulation  |
\*---------------------------------------------------------------------------*/
FoamFile
{
    format      ascii;
    class       surfaceScalarField;
    location    "5.8";
    object      phi;
}
// * * * * * * * * * * * * * * * * * * * * * * * * * * * * * * * * * * * * * //

dimensions      [0 3 -1 0 0 0 0];

internalField   nonuniform List<scalar> 
4432
(
2.29821e-07
-2.29821e-07
4.69667e-07
-2.3985e-07
6.94404e-07
-2.24733e-07
8.97034e-07
-2.0263e-07
1.07469e-06
-1.77653e-07
1.22757e-06
-1.52884e-07
1.36031e-06
-1.32734e-07
1.47723e-06
-1.16918e-07
1.57996e-06
-1.0273e-07
1.66758e-06
-8.76211e-08
1.7424e-06
-7.48082e-08
1.81443e-06
-7.20314e-08
1.90246e-06
-8.80342e-08
2.02823e-06
-1.25766e-07
2.197e-06
-1.68774e-07
2.34895e-06
-1.51951e-07
2.23406e-06
1.14889e-07
1.50415e-06
7.29906e-07
3.88502e-07
1.11565e-06
-6.33932e-07
1.02243e-06
-1.04022e-06
4.06286e-07
-6.29818e-07
-4.10409e-07
-6.29825e-07
2.33017e-07
-4.62833e-07
4.62791e-07
-4.6963e-07
6.82123e-07
-4.44063e-07
8.84482e-07
-4.04984e-07
1.06518e-06
-3.58355e-07
1.2238e-06
-3.11492e-07
1.36276e-06
-2.71697e-07
1.48463e-06
-2.38783e-07
1.58959e-06
-2.0768e-07
1.67542e-06
-1.73453e-07
1.74254e-06
-1.4193e-07
1.79699e-06
-1.26482e-07
1.84951e-06
-1.4055e-07
1.91009e-06
-1.86355e-07
1.976e-06
-2.34681e-07
2.00489e-06
-1.80853e-07
1.86262e-06
2.57165e-07
1.3332e-06
1.25932e-06
5.56982e-07
1.89186e-06
-1.49645e-07
1.72906e-06
-5.64604e-07
8.21235e-07
-5.28785e-07
-4.46239e-07
-1.15861e-06
2.37076e-07
-6.99905e-07
4.62839e-07
-6.95398e-07
6.79052e-07
-6.60276e-07
8.81918e-07
-6.07845e-07
1.06537e-06
-5.41807e-07
1.22785e-06
-4.73965e-07
1.37078e-06
-4.1463e-07
1.49555e-06
-3.63559e-07
1.60119e-06
-3.13317e-07
1.68411e-06
-2.56376e-07
1.74266e-06
-2.0048e-07
1.77958e-06
-1.63405e-07
1.80057e-06
-1.61537e-07
1.80974e-06
-1.95536e-07
1.80336e-06
-2.28298e-07
1.76023e-06
-1.37728e-07
1.61078e-06
4.06614e-07
1.21504e-06
1.65507e-06
6.91129e-07
2.41577e-06
1.99777e-07
2.22041e-06
-1.84486e-07
1.20549e-06
-2.90816e-07
-3.39914e-07
-1.44943e-06
2.38347e-07
-9.3825e-07
4.65035e-07
-9.22087e-07
6.82727e-07
-8.77971e-07
8.88795e-07
-8.13907e-07
1.07636e-06
-7.29376e-07
1.24305e-06
-6.40652e-07
1.38974e-06
-5.61321e-07
1.51712e-06
-4.90948e-07
1.62324e-06
-4.19441e-07
1.70289e-06
-3.36024e-07
1.75233e-06
-2.49925e-07
1.77165e-06
-1.82726e-07
1.76302e-06
-1.52912e-07
1.72699e-06
-1.59503e-07
1.6599e-06
-1.61216e-07
1.55736e-06
-3.51852e-08
1.41485e-06
5.49122e-07
1.1484e-06
1.92153e-06
8.28244e-07
2.73593e-06
4.7461e-07
2.57404e-06
1.53362e-07
1.52674e-06
9.20981e-09
-1.95759e-07
-1.44021e-06
2.38788e-07
-1.17704e-06
4.69208e-07
-1.15251e-06
6.92007e-07
-1.10077e-06
9.03852e-07
-1.02575e-06
1.09689e-06
-9.22418e-07
1.26826e-06
-8.12026e-07
1.4187e-06
-7.11758e-07
1.54851e-06
-6.20765e-07
1.65497e-06
-5.25899e-07
1.73108e-06
-4.12144e-07
1.77119e-06
-2.90035e-07
1.77332e-06
-1.84861e-07
1.73727e-06
-1.16864e-07
1.66123e-06
-8.34617e-08
1.541e-06
-4.09931e-08
1.37755e-06
1.2826e-07
1.22059e-06
7.06087e-07
1.09207e-06
2.05006e-06
9.25952e-07
2.90205e-06
6.95307e-07
2.80469e-06
5.06289e-07
1.71576e-06
2.90227e-07
2.0309e-08
-1.14998e-06
2.40251e-07
-1.41729e-06
4.76467e-07
-1.38872e-06
7.06881e-07
-1.33119e-06
9.26397e-07
-1.24526e-06
1.12586e-06
-1.12189e-06
1.30219e-06
-9.88353e-07
1.45623e-06
-8.65797e-07
1.58812e-06
-7.52657e-07
1.6946e-06
-6.32381e-07
1.76697e-06
-4.84516e-07
1.79792e-06
-3.20983e-07
1.7841e-06
-1.71043e-07
1.72399e-06
-5.67518e-08
1.61459e-06
2.59292e-08
1.45193e-06
1.2167e-07
1.24137e-06
3.38821e-07
1.04542e-06
9.02034e-07
1.015e-06
2.08047e-06
9.73212e-07
2.94383e-06
8.91388e-07
2.88651e-06
8.07016e-07
1.80014e-06
4.99803e-07
3.27526e-07
-6.50174e-07
2.43501e-07
-1.66079e-06
4.87606e-07
-1.63283e-06
7.27088e-07
-1.57067e-06
9.55289e-07
-1.47346e-06
1.16156e-06
-1.32815e-06
1.34276e-06
-1.16956e-06
1.50002e-06
-1.02305e-06
1.63336e-06
-8.8599e-07
1.73924e-06
-7.38261e-07
1.80755e-06
-5.52819e-07
1.82983e-06
-3.43258e-07
1.80205e-06
-1.43258e-07
1.72232e-06
2.29724e-08
1.58785e-06
1.60397e-07
1.39636e-06
3.13164e-07
1.15929e-06
5.75886e-07
9.43472e-07
1.11785e-06
9.2242e-07
2.10152e-06
9.88601e-07
2.87765e-06
1.03663e-06
2.83847e-06
9.46087e-07
1.89068e-06
5.68333e-07
7.05278e-07
-8.18471e-08
2.4943e-07
-1.91022e-06
5.02087e-07
-1.88548e-06
7.51257e-07
-1.81984e-06
9.88267e-07
-1.71046e-06
1.2011e-06
-1.54098e-06
1.38679e-06
-1.35525e-06
1.54666e-06
-1.18292e-06
1.68048e-06
-1.0198e-06
1.78472e-06
-8.42504e-07
1.84839e-06
-6.16483e-07
1.86267e-06
-3.57531e-07
1.82346e-06
-1.04049e-07
1.72929e-06
1.17136e-07
1.57845e-06
3.11238e-07
1.37176e-06
5.19851e-07
1.1261e-06
8.21546e-07
9.09917e-07
1.33402e-06
8.69968e-07
2.14146e-06
9.75562e-07
2.77205e-06
1.06256e-06
2.75147e-06
9.26091e-07
2.02715e-06
5.08805e-07
1.12256e-06
4.26956e-07
-1.21596e-06
1.21596e-06
-8.92716e-07
-3.23243e-07
-5.62527e-07
-3.30199e-07
-3.7945e-07
-1.83084e-07
-2.8126e-07
-9.81924e-08
-2.26245e-07
-5.50208e-08
-9.95309e-08
-1.2672e-07
2.05607e-07
-3.05136e-07
7.77732e-07
-5.72126e-07
1.27562e-06
-4.97886e-07
9.85364e-07
2.90252e-07
9.90783e-08
8.86281e-07
-1.73272e-06
1.8318e-06
-3.21294e-06
1.48022e-06
-1.82396e-06
-1.38898e-06
-1.15758e-08
-1.81238e-06
8.18965e-07
-8.30537e-07
9.78865e-07
-1.59898e-07
9.78872e-07
-6.07757e-07
1.8237e-06
-5.82223e-07
-3.4878e-07
-5.90226e-07
-3.22205e-07
-6.05363e-07
-1.67959e-07
-6.13394e-07
-9.0167e-08
-5.83284e-07
-8.51331e-08
-4.81807e-07
-2.28203e-07
-2.30845e-07
-5.56096e-07
1.74997e-07
-9.7797e-07
5.02339e-07
-8.25235e-07
2.32007e-07
5.60584e-07
-5.17632e-07
1.63592e-06
-1.6409e-06
2.95507e-06
-2.2803e-06
2.11962e-06
-1.36826e-06
-2.30102e-06
-2.67271e-07
-2.91336e-06
2.45292e-07
-1.34309e-06
6.13269e-07
-5.27874e-07
1.59215e-06
-1.46122e-07
1.96982e-06
-4.37373e-07
-5.75315e-08
-6.44779e-07
-1.14801e-07
-7.70575e-07
-4.21703e-08
-8.43017e-07
-1.7726e-08
-8.64241e-07
-6.39074e-08
-8.12186e-07
-2.80263e-07
-6.44158e-07
-7.24124e-07
-3.77045e-07
-1.24508e-06
-1.77532e-07
-1.02475e-06
-4.32397e-07
8.15449e-07
-9.79021e-07
2.18255e-06
-1.52048e-06
3.49653e-06
-1.60758e-06
2.20673e-06
-1.02366e-06
-2.88493e-06
-3.79869e-07
-3.55715e-06
-1.53875e-07
-1.56908e-06
2.01138e-07
-8.82888e-07
1.79329e-06
-3.08283e-09
1.97289e-06
-4.38293e-07
3.77678e-07
-7.52188e-07
1.991e-07
-9.46049e-07
1.51688e-07
-1.06658e-06
1.02805e-07
-1.13392e-06
3.43498e-09
-1.14358e-06
-2.706e-07
-1.07395e-06
-7.9376e-07
-9.31438e-07
-1.38759e-06
-7.95156e-07
-1.16104e-06
-1.01374e-06
1.03403e-06
-1.37238e-06
2.54119e-06
-1.52145e-06
3.6456e-06
-1.13908e-06
1.82435e-06
-7.45528e-07
-3.27848e-06
-4.42123e-07
-3.86056e-06
-4.92377e-07
-1.51882e-06
-2.25569e-07
-1.1497e-06
1.56772e-06
-7.88809e-08
2.05178e-06
-5.56889e-07
8.55686e-07
-9.14701e-07
5.56923e-07
-1.14594e-06
3.82923e-07
-1.30091e-06
2.57775e-07
-1.41115e-06
1.13686e-07
-1.48151e-06
-2.00239e-07
-1.51054e-06
-7.64735e-07
-1.50523e-06
-1.39289e-06
-1.45417e-06
-1.2121e-06
-1.51994e-06
1.0998e-06
-1.67226e-06
2.69351e-06
-1.46035e-06
3.43369e-06
-7.66994e-07
1.131e-06
-5.62364e-07
-3.48311e-06
-5.15264e-07
-3.90766e-06
-7.6185e-07
-1.27223e-06
-6.01799e-07
-1.30975e-06
9.6592e-07
-2.65931e-07
2.31771e-06
-7.5934e-07
1.3491e-06
-1.12368e-06
9.2127e-07
-1.36954e-06
6.28787e-07
-1.54587e-06
4.34105e-07
-1.69109e-06
2.58904e-07
-1.81436e-06
-7.69702e-08
-1.93136e-06
-6.47734e-07
-2.0604e-06
-1.26385e-06
-2.12065e-06
-1.15186e-06
-1.9687e-06
9.47844e-07
-1.8197e-06
2.54451e-06
-1.30336e-06
2.91735e-06
-5.30437e-07
3.5808e-07
-5.08767e-07
-3.50478e-06
-6.42285e-07
-3.77414e-06
-9.20544e-07
-9.9397e-07
-8.63062e-07
-1.36724e-06
1.0286e-07
-5.16446e-07
2.83417e-06
-1.02357e-06
1.85622e-06
-1.36664e-06
1.26435e-06
-1.61047e-06
8.72613e-07
-1.7966e-06
6.20224e-07
-1.96397e-06
4.26276e-07
-2.12665e-06
8.56982e-08
-2.30868e-06
-4.65708e-07
-2.52974e-06
-1.0428e-06
-2.66378e-06
-1.01782e-06
-2.35465e-06
6.38716e-07
-1.90524e-06
2.09511e-06
-1.14587e-06
2.15798e-06
-4.76985e-07
-3.10806e-07
-5.88594e-07
-3.39317e-06
-8.02633e-07
-3.5601e-06
-9.61298e-07
-8.353e-07
-9.96206e-07
-1.33233e-06
-8.93342e-07
-8.983e-07
3.73247e-06
-1.33089e-06
2.2888e-06
-1.628e-06
1.56146e-06
-1.85972e-06
1.10433e-06
-2.04639e-06
8.06889e-07
-2.22297e-06
6.02851e-07
-2.40366e-06
2.66388e-07
-2.61761e-06
-2.51766e-07
-2.87056e-06
-7.89843e-07
-3.0113e-06
-8.77087e-07
-2.65211e-06
2.79523e-07
-1.97993e-06
1.42293e-06
-1.09701e-06
1.27505e-06
-5.81354e-07
-8.26456e-07
-7.6456e-07
-3.20996e-06
-9.96699e-07
-3.32796e-06
-9.36725e-07
-8.95272e-07
-9.79952e-07
-1.2891e-06
-1.87329e-06
5.49761e-07
-2.45998e-06
1.11634e-06
-2.45206e-06
1.67926e-06
-2.38276e-06
2.21219e-06
-2.2434e-06
2.68418e-06
-2.01298e-06
3.09222e-06
-1.76329e-06
3.43914e-06
-1.52984e-06
3.71979e-06
-1.30045e-06
3.93229e-06
-1.05501e-06
4.04901e-06
-7.3321e-07
4.0546e-06
-3.63115e-07
3.94257e-06
7.96974e-09
3.71285e-06
3.46854e-07
3.36456e-06
6.59531e-07
2.9109e-06
9.7351e-07
2.40058e-06
1.33187e-06
1.96258e-06
1.77202e-06
1.8324e-06
2.27165e-06
1.95731e-06
2.64713e-06
1.99397e-06
2.71482e-06
1.52503e-06
2.49611e-06
4.42535e-07
2.20506e-06
2.01825e-06
-1.14875e-06
5.45198e-07
-3.00518e-06
1.15146e-06
-3.05832e-06
1.73639e-06
-2.96768e-06
2.28966e-06
-2.79667e-06
2.7777e-06
-2.50102e-06
3.20885e-06
-2.19445e-06
3.57157e-06
-1.89256e-06
3.8369e-06
-1.56578e-06
3.9937e-06
-1.21181e-06
4.05544e-06
-7.94948e-07
4.03525e-06
-3.42924e-07
3.92485e-06
1.18368e-07
3.71018e-06
5.61525e-07
3.38424e-06
9.85475e-07
2.96164e-06
1.3961e-06
2.49652e-06
1.797e-06
2.0907e-06
2.17784e-06
1.85287e-06
2.50948e-06
1.71468e-06
2.78533e-06
1.4288e-06
3.0007e-06
7.96379e-07
3.12853e-06
-2.12397e-07
3.21383e-06
3.28467e-06
-1.47882e-06
7.75032e-07
-3.78021e-06
1.26974e-06
-3.55301e-06
1.67748e-06
-3.3754e-06
2.03536e-06
-3.15453e-06
2.55015e-06
-3.01578e-06
3.09128e-06
-2.73556e-06
3.52241e-06
-2.32368e-06
3.78906e-06
-1.83241e-06
3.88894e-06
-1.31169e-06
3.90018e-06
-8.06173e-07
3.87109e-06
-3.13822e-07
3.79913e-06
1.90336e-07
3.63343e-06
7.2722e-07
3.35699e-06
1.26192e-06
2.99001e-06
1.76307e-06
2.60189e-06
2.18511e-06
2.26501e-06
2.51471e-06
1.96671e-06
2.80777e-06
1.59135e-06
3.16068e-06
1.09703e-06
3.49502e-06
3.81235e-07
3.8443e-06
-5.47596e-07
4.14262e-06
4.30951e-06
-1.57251e-06
1.67239e-06
-5.45261e-06
1.83369e-06
-3.71432e-06
1.54208e-06
-3.08395e-06
3.83924e-07
-1.99644e-06
1.31536e-06
-3.94731e-06
2.3348e-06
-3.75507e-06
2.85189e-06
-2.84082e-06
2.98621e-06
-1.96676e-06
3.18057e-06
-1.50608e-06
3.26326e-06
-8.88881e-07
3.19526e-06
-2.45829e-07
3.20379e-06
1.81796e-07
3.06424e-06
8.66773e-07
2.85072e-06
1.47545e-06
2.66688e-06
1.94692e-06
2.6121e-06
2.2399e-06
2.77543e-06
2.35138e-06
2.73038e-06
2.85283e-06
1.28586e-06
4.60519e-06
7.21646e-07
4.05927e-06
3.22589e-07
4.24342e-06
-4.51273e-07
4.91658e-06
5.45586e-06
-1.59747e-06
-1.15767e-06
-4.29494e-06
-1.06947e-06
-3.80222e-06
-2.94752e-06
-1.20585e-06
-6.64883e-06
1.70509e-06
-5.16121e-06
-5.43478e-06
-4.04084e-06
-4.87541e-06
-3.01378e-06
-3.86782e-06
-2.54736e-06
-2.43312e-06
-1.5403e-06
-2.51308e-06
-4.27074e-07
-2.00206e-06
4.91462e-07
-1.16435e-06
1.1469e-06
-4.73641e-07
1.6026e-06
4.11049e-07
1.92827e-06
1.14976e-06
2.10755e-06
1.76762e-06
1.98118e-06
2.36627e-06
2.07846e-06
2.25411e-06
2.5117e-06
2.41958e-06
5.76023e-07
6.54079e-06
-1.14479e-06
5.77998e-06
-1.94934e-06
5.04791e-06
-1.81339e-06
4.78052e-06
4.79193e-06
-1.14966e-06
-1.38084e-06
-2.9143e-06
-1.90766e-06
-3.27557e-06
-2.37598e-07
-2.87601e-06
2.08994e-06
-6.2253e-07
4.98683e-07
-3.84355e-06
-2.88562e-06
-1.49113e-06
-3.88167e-06
-2.87178e-06
-3.42329e-06
-2.89149e-06
-3.06997e-06
-2.8664e-06
-2.42658e-06
-2.64543e-06
-1.66856e-06
-1.92233e-06
-1.12901e-06
-1.01315e-06
-8.31998e-07
1.14085e-07
-1.02472e-06
1.34253e-06
-1.8634e-06
2.60635e-06
-3.39243e-06
3.89535e-06
-5.04719e-06
3.90893e-06
-5.35762e-06
2.73008e-06
-3.92923e-06
5.11249e-06
-4.94516e-06
6.79611e-06
-5.73148e-06
5.83438e-06
-4.57664e-06
3.62562e-06
4.08337e-06
-3.86835e-06
-7.02175e-07
-2.2118e-06
-1.8706e-06
-2.10723e-06
-1.3941e-06
-3.35229e-06
7.10951e-07
-2.72747e-06
-8.38741e-07
-2.29378e-06
-1.57772e-06
-7.52079e-07
-2.65778e-06
-1.79167e-06
-3.25546e-06
-2.29377e-06
-3.66594e-06
-2.45591e-06
-4.04047e-06
-2.27093e-06
-4.3311e-06
-1.63175e-06
-4.69296e-06
-6.51342e-07
-5.26413e-06
6.85187e-07
-6.15374e-06
2.23205e-06
-7.27445e-06
3.72696e-06
-7.86941e-06
4.49016e-06
-7.54401e-06
3.5833e-06
-7.60464e-06
2.79048e-06
-7.18796e-06
4.69564e-06
-6.62107e-06
6.22916e-06
-5.22359e-06
4.43697e-06
-4.32136e-06
2.72338e-06
4.63042e-06
-4.86838e-06
-1.39575e-07
-2.07222e-06
-4.80482e-07
-1.76634e-06
-1.25583e-06
-2.57694e-06
-1.7641e-06
-2.21923e-06
-2.39966e-06
-1.65828e-06
-2.43156e-06
-7.20221e-07
-2.99137e-06
-1.23187e-06
-3.71214e-06
-1.573e-06
-4.51263e-06
-1.6554e-06
-5.32154e-06
-1.46199e-06
-6.0643e-06
-8.88939e-07
-6.77852e-06
6.29463e-08
-7.48202e-06
1.38878e-06
-8.14355e-06
2.89368e-06
-8.55179e-06
4.1353e-06
-8.30623e-06
4.24466e-06
-7.82578e-06
3.10286e-06
-7.85489e-06
2.81954e-06
-7.20327e-06
4.04386e-06
-5.30255e-06
4.32816e-06
-3.91189e-06
3.04616e-06
-4.17266e-06
2.98402e-06
4.38414e-06
-3.92647e-06
-1.22704e-08
-2.06013e-06
-2.95763e-07
-1.48277e-06
-1.15249e-06
-1.72026e-06
-1.91643e-06
-1.45534e-06
-2.54943e-06
-1.02529e-06
-2.75042e-06
-5.19187e-07
-3.3064e-06
-6.75822e-07
-4.03777e-06
-8.41556e-07
-4.86232e-06
-8.30763e-07
-5.71899e-06
-6.05229e-07
-6.508e-06
-9.98374e-08
-7.18691e-06
7.41965e-07
-7.68197e-06
1.88397e-06
-7.89028e-06
3.10217e-06
-7.67752e-06
3.92277e-06
-7.225e-06
3.79236e-06
-7.1111e-06
2.98919e-06
-7.05792e-06
2.76671e-06
-6.12327e-06
3.10966e-06
-4.6998e-06
2.90502e-06
-4.1444e-06
2.49108e-06
-4.06872e-06
2.90866e-06
3.57193e-06
-3.25625e-06
-1.50039e-07
-1.91009e-06
-4.27222e-07
-1.20551e-06
-1.10266e-06
-1.04484e-06
-1.79052e-06
-7.67485e-07
-2.3772e-06
-4.38571e-07
-2.7687e-06
-1.27625e-07
-3.32399e-06
-1.2048e-07
-4.00818e-06
-1.57323e-07
-4.7431e-06
-9.58439e-08
-5.48184e-06
1.33499e-07
-6.16315e-06
5.81431e-07
-6.70383e-06
1.28259e-06
-6.99101e-06
2.17108e-06
-6.92384e-06
3.03495e-06
-6.53027e-06
3.52916e-06
-6.14595e-06
3.40795e-06
-6.05066e-06
2.8938e-06
-5.84625e-06
2.56225e-06
-5.19558e-06
2.45905e-06
-4.53575e-06
2.24525e-06
-4.23042e-06
2.18588e-06
-3.83888e-06
2.51723e-06
2.89768e-06
-3.16459e-06
-2.79478e-07
-1.63048e-06
-6.07985e-07
-8.76981e-07
-1.13188e-06
-5.20934e-07
-1.69094e-06
-2.08384e-07
-2.20929e-06
7.98461e-08
-2.6518e-06
3.14949e-07
-3.16757e-06
3.95327e-07
-3.74815e-06
4.23262e-07
-4.35261e-06
5.08582e-07
-4.94799e-06
7.28811e-07
-5.48848e-06
1.12183e-06
-5.88693e-06
1.68093e-06
-6.03622e-06
2.32025e-06
-5.89179e-06
2.89041e-06
-5.54919e-06
3.18645e-06
-5.2297e-06
3.08828e-06
-5.05442e-06
2.71826e-06
-4.83841e-06
2.34599e-06
-4.45317e-06
2.07358e-06
-4.10209e-06
1.89394e-06
-3.84327e-06
1.92689e-06
-3.51938e-06
2.19325e-06
2.40766e-06
-3.02938e-06
-3.86996e-07
-1.24344e-06
-7.54313e-07
-5.09717e-07
-1.18967e-06
-8.55639e-08
-1.64457e-06
2.46568e-07
-2.08253e-06
5.17885e-07
-2.49362e-06
7.26115e-07
-2.93655e-06
8.38324e-07
-3.40461e-06
8.91363e-07
-3.88464e-06
9.88633e-07
-4.35418e-06
1.19836e-06
-4.76239e-06
1.53004e-06
-5.0284e-06
1.94693e-06
-5.0921e-06
2.38397e-06
-4.94701e-06
2.74537e-06
-4.67154e-06
2.91106e-06
-4.40321e-06
2.82004e-06
-4.21899e-06
2.53409e-06
-4.03342e-06
2.16044e-06
-3.80456e-06
1.84472e-06
-3.59134e-06
1.6807e-06
-3.39025e-06
1.72581e-06
-3.13626e-06
1.93933e-06
2.05681e-06
-2.7853e-06
-4.50712e-07
-7.92789e-07
-8.41214e-07
-1.19266e-07
-1.23403e-06
3.07264e-07
-1.61768e-06
6.30271e-07
-1.98485e-06
8.8512e-07
-2.33589e-06
1.07722e-06
-2.69618e-06
1.19868e-06
-3.07118e-06
1.26643e-06
-3.45328e-06
1.37079e-06
-3.81261e-06
1.55774e-06
-4.0989e-06
1.81638e-06
-4.26089e-06
2.10899e-06
-4.27251e-06
2.39566e-06
-4.13863e-06
2.6116e-06
-3.91542e-06
2.68801e-06
-3.68742e-06
2.59225e-06
-3.50669e-06
2.35356e-06
-3.36684e-06
2.02082e-06
-3.24273e-06
1.72081e-06
-3.11858e-06
1.5567e-06
-2.9785e-06
1.58585e-06
-2.76303e-06
1.72398e-06
1.77416e-06
-2.48027e-06
-4.77827e-07
-3.15037e-07
-8.80086e-07
2.83024e-07
-1.24994e-06
6.77175e-07
-1.59021e-06
9.7059e-07
-1.9044e-06
1.19936e-06
-2.19875e-06
1.37161e-06
-2.48869e-06
1.48865e-06
-2.79171e-06
1.56949e-06
-3.08979e-06
1.66892e-06
-3.35106e-06
1.81906e-06
-3.53772e-06
2.0031e-06
-3.62764e-06
2.19893e-06
-3.60664e-06
2.37468e-06
-3.4844e-06
2.48938e-06
-3.29931e-06
2.50296e-06
-3.10448e-06
2.39747e-06
-2.93877e-06
2.18792e-06
-2.83245e-06
1.91458e-06
-2.76439e-06
1.65282e-06
-2.69996e-06
1.4923e-06
-2.60096e-06
1.48685e-06
-2.4105e-06
1.53347e-06
1.52779e-06
-2.16425e-06
-4.80212e-07
1.6517e-07
-8.86421e-07
6.8937e-07
-1.24285e-06
1.03371e-06
-1.55626e-06
1.28408e-06
-1.83452e-06
1.47768e-06
-2.08673e-06
1.62385e-06
-2.32636e-06
1.72831e-06
-2.56458e-06
1.80775e-06
-2.7878e-06
1.89218e-06
-2.96777e-06
1.99907e-06
-3.08542e-06
2.12078e-06
-3.1265e-06
2.24002e-06
-3.0865e-06
2.33465e-06
-2.97562e-06
2.37843e-06
-2.82075e-06
2.348e-06
-2.65754e-06
2.23414e-06
-2.5177e-06
2.04795e-06
-2.42272e-06
1.81946e-06
-2.37199e-06
1.60195e-06
-2.33265e-06
1.45279e-06
-2.24007e-06
1.39405e-06
-2.07848e-06
1.37164e-06
1.31645e-06
-1.86743e-06
-4.70183e-07
6.35438e-07
-8.74703e-07
1.0941e-06
-1.21954e-06
1.37869e-06
-1.51438e-06
1.57901e-06
-1.768e-06
1.73136e-06
-1.98996e-06
1.84585e-06
-2.1908e-06
1.92919e-06
-2.37587e-06
1.99286e-06
-2.53727e-06
2.05361e-06
-2.65888e-06
2.12072e-06
-2.72788e-06
2.18981e-06
-2.7372e-06
2.24934e-06
-2.6868e-06
2.28423e-06
-2.58635e-06
2.27788e-06
-2.45545e-06
2.21696e-06
-2.31903e-06
2.09755e-06
-2.20021e-06
1.92893e-06
-2.11442e-06
1.73344e-06
-2.05859e-06
1.54588e-06
-2.00623e-06
1.40017e-06
-1.91876e-06
1.30631e-06
-1.78099e-06
1.23359e-06
1.1395e-06
-1.60435e-06
-4.58822e-07
1.0944e-06
-8.52995e-07
1.48847e-06
-1.18504e-06
1.71088e-06
-1.46421e-06
1.85826e-06
-1.69876e-06
1.96598e-06
-1.8971e-06
2.04424e-06
-2.06695e-06
2.09909e-06
-2.21216e-06
2.13809e-06
-2.32883e-06
2.17031e-06
-2.40849e-06
2.20041e-06
-2.44424e-06
2.22558e-06
-2.43314e-06
2.23825e-06
-2.37742e-06
2.22849e-06
-2.28566e-06
2.18608e-06
-2.17241e-06
2.10364e-06
-2.05522e-06
1.98023e-06
-1.94994e-06
1.82351e-06
-1.86609e-06
1.64942e-06
-1.80035e-06
1.47997e-06
-1.73501e-06
1.33465e-06
-1.6468e-06
1.21792e-06
-1.52544e-06
1.11206e-06
9.91219e-07
-1.37732e-06
-4.48212e-07
1.54275e-06
-8.25782e-07
1.86619e-06
-1.14249e-06
2.02767e-06
-1.40612e-06
2.12196e-06
-1.62367e-06
2.18358e-06
-1.80215e-06
2.22276e-06
-1.94762e-06
2.24461e-06
-2.06341e-06
2.25392e-06
-2.14848e-06
2.25542e-06
-2.19921e-06
2.25117e-06
-2.21274e-06
2.23914e-06
-2.18882e-06
2.21435e-06
-2.13071e-06
2.1704e-06
-2.04577e-06
2.10114e-06
-1.94488e-06
2.00272e-06
-1.84033e-06
1.87566e-06
-1.7428e-06
1.72594e-06
-1.65801e-06
1.56458e-06
-1.58337e-06
1.40529e-06
-1.50794e-06
1.25918e-06
-1.41814e-06
1.12809e-06
-1.3078e-06
1.00171e-06
8.64383e-07
-1.18096e-06
-4.36096e-07
1.97894e-06
-7.93935e-07
2.22409e-06
-1.09368e-06
2.32745e-06
-1.34083e-06
2.36914e-06
-1.54176e-06
2.38455e-06
-1.70253e-06
2.38357e-06
-1.82825e-06
2.37036e-06
-1.92214e-06
2.34785e-06
-1.98496e-06
2.31828e-06
-2.01603e-06
2.28228e-06
-2.01505e-06
2.23819e-06
-1.98335e-06
2.18268e-06
-1.92459e-06
2.11168e-06
-1.84494e-06
2.02154e-06
-1.75257e-06
1.91041e-06
-1.6562e-06
1.77933e-06
-1.56303e-06
1.63283e-06
-1.47669e-06
1.47829e-06
-1.39557e-06
1.32423e-06
-1.31329e-06
1.17697e-06
-1.22233e-06
1.03721e-06
-1.11938e-06
8.98855e-07
7.52542e-07
-1.00743e-06
-4.21052e-07
2.40004e-06
-7.59324e-07
2.56235e-06
-1.04007e-06
2.60819e-06
-1.26912e-06
2.59819e-06
-1.45295e-06
2.56839e-06
-1.59709e-06
2.52773e-06
-1.70608e-06
2.47939e-06
-1.78313e-06
2.42494e-06
-1.83004e-06
2.36522e-06
-1.84774e-06
2.30003e-06
-1.83743e-06
2.22792e-06
-1.80127e-06
2.14658e-06
-1.74292e-06
2.05338e-06
-1.66751e-06
1.9462e-06
-1.58125e-06
1.82422e-06
-1.4904e-06
1.68857e-06
-1.39999e-06
1.54252e-06
-1.31255e-06
1.39096e-06
-1.22734e-06
1.23914e-06
-1.14096e-06
1.0907e-06
-1.04949e-06
9.45865e-07
-9.51518e-07
8.01012e-07
6.50626e-07
-8.49465e-07
-4.02533e-07
2.80256e-06
-7.22773e-07
2.88254e-06
-9.82042e-07
2.86743e-06
-1.19114e-06
2.80728e-06
-1.35712e-06
2.73436e-06
-1.48517e-06
2.65579e-06
-1.57942e-06
2.57365e-06
-1.64299e-06
2.48854e-06
-1.67814e-06
2.4004e-06
-1.68665e-06
2.30857e-06
-1.67043e-06
2.21174e-06
-1.632e-06
2.1082e-06
-1.57477e-06
1.9962e-06
-1.50299e-06
1.87449e-06
-1.42145e-06
1.74276e-06
-1.33476e-06
1.60197e-06
-1.2466e-06
1.45445e-06
-1.1589e-06
1.30337e-06
-1.07164e-06
1.15198e-06
-9.83207e-07
1.00239e-06
-8.91849e-07
8.54622e-07
-7.97272e-07
7.0655e-07
5.54997e-07
-7.01527e-07
-3.82177e-07
3.18471e-06
-6.82912e-07
3.18321e-06
-9.1816e-07
3.10264e-06
-1.106e-06
2.9951e-06
-1.25374e-06
2.88209e-06
-1.36624e-06
2.76828e-06
-1.44721e-06
2.65462e-06
-1.4996e-06
2.54093e-06
-1.52579e-06
2.4266e-06
-1.52788e-06
2.31067e-06
-1.50803e-06
2.19191e-06
-1.46878e-06
2.06898e-06
-1.4132e-06
1.94066e-06
-1.34479e-06
1.80613e-06
-1.2673e-06
1.66532e-06
-1.18424e-06
1.51897e-06
-1.09838e-06
1.36866e-06
-1.01139e-06
1.21645e-06
-9.23656e-07
1.06433e-06
-8.34702e-07
9.13513e-07
-7.43982e-07
7.63982e-07
-6.51837e-07
6.14482e-07
4.63248e-07
-5.60011e-07
-3.59515e-07
3.54418e-06
-6.34534e-07
3.45818e-06
-8.45398e-07
3.31347e-06
-1.01212e-06
3.1618e-06
-1.14207e-06
3.01202e-06
-1.23984e-06
2.86604e-06
-1.30884e-06
2.72361e-06
-1.3518e-06
2.58388e-06
-1.37102e-06
2.44582e-06
-1.36861e-06
2.30826e-06
-1.34671e-06
2.17002e-06
-1.3077e-06
2.02998e-06
-1.25422e-06
1.88719e-06
-1.18918e-06
1.74112e-06
-1.11554e-06
1.5917e-06
-1.03603e-06
1.43949e-06
-9.52845e-07
1.28552e-06
-8.67448e-07
1.1311e-06
-7.80507e-07
9.77429e-07
-6.92175e-07
8.25223e-07
-6.02579e-07
6.74428e-07
-5.1237e-07
5.24314e-07
3.7394e-07
-4.23019e-07
-3.28492e-07
3.87263e-06
-5.73976e-07
3.70364e-06
-7.6203e-07
3.50151e-06
-9.0877e-07
3.30852e-06
-1.02189e-06
3.12512e-06
-1.10597e-06
2.95011e-06
-1.16425e-06
2.78187e-06
-1.19922e-06
2.61884e-06
-1.213e-06
2.45958e-06
-1.20753e-06
2.30277e-06
-1.18477e-06
2.14725e-06
-1.14681e-06
1.99201e-06
-1.0959e-06
1.83628e-06
-1.03441e-06
1.67963e-06
-9.64696e-07
1.522e-06
-8.88935e-07
1.36374e-06
-8.08919e-07
1.20551e-06
-7.25943e-07
1.04813e-06
-6.40814e-07
8.92313e-07
-5.5402e-07
7.38443e-07
-4.66036e-07
5.86459e-07
-3.77631e-07
4.35925e-07
2.86359e-07
-2.90033e-07
-2.89483e-07
4.1621e-06
-5.05354e-07
3.9195e-06
-6.70069e-07
3.66622e-06
-7.97075e-07
3.43552e-06
-8.93951e-07
3.22199e-06
-9.65235e-07
3.02138e-06
-1.0139e-06
2.83052e-06
-1.04213e-06
2.64706e-06
-1.05173e-06
2.46917e-06
-1.04437e-06
2.29541e-06
-1.02172e-06
2.1246e-06
-9.85544e-07
1.95582e-06
-9.37686e-07
1.78842e-06
-8.80062e-07
1.622e-06
-8.14558e-07
1.45649e-06
-7.42916e-07
1.29209e-06
-6.66616e-07
1.12921e-06
-5.86815e-07
9.68326e-07
-5.0436e-07
8.09854e-07
-4.19897e-07
6.53977e-07
-3.34053e-07
5.00611e-07
-2.47609e-07
3.49478e-07
2.00329e-07
-1.61582e-07
-2.49155e-07
4.41125e-06
-4.33488e-07
4.10385e-06
-5.72719e-07
3.80546e-06
-6.78963e-07
3.54177e-06
-7.59563e-07
3.30259e-06
-8.1866e-07
3.08048e-06
-8.58677e-07
2.87054e-06
-8.81277e-07
2.66966e-06
-8.87826e-07
2.47571e-06
-8.79614e-07
2.28719e-06
-8.57963e-07
2.10294e-06
-8.24267e-07
1.92212e-06
-7.79996e-07
1.74414e-06
-7.26667e-07
1.56866e-06
-6.65772e-07
1.39558e-06
-5.98709e-07
1.22502e-06
-5.26708e-07
1.05719e-06
-4.50791e-07
8.92396e-07
-3.71784e-07
7.30833e-07
-2.90388e-07
5.72565e-07
-2.07273e-07
4.17479e-07
-1.23177e-07
2.65363e-07
1.1607e-07
-3.89382e-08
-2.09593e-07
4.62085e-06
-3.60699e-07
4.25498e-06
-4.71993e-07
3.91677e-06
-5.55899e-07
3.62569e-06
-6.19939e-07
3.36665e-06
-6.67417e-07
3.12797e-06
-6.99748e-07
2.90288e-06
-7.17803e-07
2.68772e-06
-7.22367e-07
2.48028e-06
-7.14279e-07
2.2791e-06
-6.94469e-07
2.08313e-06
-6.63965e-07
1.89162e-06
-6.23874e-07
1.70404e-06
-5.75351e-07
1.52013e-06
-5.19558e-07
1.33978e-06
-4.57604e-07
1.16305e-06
-3.90506e-07
9.90077e-07
-3.19156e-07
8.21025e-07
-2.4433e-07
6.55983e-07
-1.66721e-07
4.94928e-07
-8.699e-08
3.37717e-07
-5.8082e-09
1.84147e-07
3.4088e-08
7.61351e-08
-1.71666e-07
4.79253e-06
-2.8818e-07
4.37153e-06
-3.68821e-07
3.99744e-06
-4.28647e-07
3.68554e-06
-4.76033e-07
3.41406e-06
-5.12724e-07
3.16468e-06
-5.38479e-07
2.92865e-06
-5.53115e-07
2.70237e-06
-5.56752e-07
2.48393e-06
-5.49745e-07
2.2721e-06
-5.32623e-07
2.06601e-06
-5.06046e-07
1.86504e-06
-4.70776e-07
1.66877e-06
-4.27643e-07
1.47699e-06
-3.77511e-07
1.28963e-06
-3.21244e-07
1.10676e-06
-2.5967e-07
9.28477e-07
-1.93561e-07
7.54885e-07
-1.23628e-07
5.86014e-07
-5.05313e-08
4.21791e-07
2.51028e-08
2.62038e-07
1.02672e-07
1.06528e-07
-4.49027e-08
1.81609e-07
-1.3562e-07
4.92817e-06
-2.16227e-07
4.45219e-06
-2.63083e-07
4.04433e-06
-2.97259e-07
3.71975e-06
-3.28698e-07
3.44553e-06
-3.55977e-07
3.19199e-06
-3.76474e-07
2.94917e-06
-3.8886e-07
2.71477e-06
-3.92616e-07
2.4877e-06
-3.87635e-07
2.26713e-06
-3.74054e-07
2.05244e-06
-3.52171e-07
1.84315e-06
-3.22414e-07
1.639e-06
-2.85308e-07
1.43986e-06
-2.4145e-07
1.24575e-06
-1.91481e-07
1.05676e-06
-1.36066e-07
8.73026e-07
-7.58634e-08
6.94642e-07
-1.15224e-08
5.21628e-07
5.63348e-08
3.53884e-07
1.27119e-07
1.91199e-07
2.00291e-07
3.32974e-08
-1.20056e-07
2.75378e-07
-9.76297e-08
5.02583e-06
-1.41502e-07
4.49612e-06
-1.52736e-07
4.05562e-06
-1.61331e-07
3.72839e-06
-1.79427e-07
3.46367e-06
-1.99095e-07
3.21169e-06
-2.15623e-07
2.96573e-06
-2.26837e-07
2.72601e-06
-2.31702e-07
2.49258e-06
-2.29679e-07
2.26512e-06
-2.20507e-07
2.04327e-06
-2.0412e-07
1.82676e-06
-1.80614e-07
1.61548e-06
-1.50218e-07
1.40945e-06
-1.13281e-07
1.20879e-06
-7.02448e-08
1.01369e-06
-2.16227e-08
8.24363e-07
3.20195e-08
6.40953e-07
9.00881e-08
4.63507e-07
1.51988e-07
2.91927e-07
2.17157e-07
1.25969e-07
2.85103e-07
-3.47117e-08
-1.90454e-07
3.55432e-07
-4.03968e-08
5.06626e-06
-4.53432e-08
4.50114e-06
-3.27545e-08
4.04309e-06
-2.55875e-08
3.72128e-06
-3.14211e-08
3.46955e-06
-4.45428e-08
3.22485e-06
-5.78573e-08
2.97908e-06
-6.87468e-08
2.73693e-06
-7.56572e-08
2.49951e-06
-7.75483e-08
2.26702e-06
-7.37063e-08
2.03942e-06
-6.36709e-08
1.81672e-06
-4.71978e-08
1.59899e-06
-2.4233e-08
1.38646e-06
5.11109e-09
1.17941e-06
4.05765e-08
9.78188e-07
8.17804e-08
7.83115e-07
1.28237e-07
5.94447e-07
1.79389e-07
4.12302e-07
2.34648e-07
2.3661e-07
2.93456e-07
6.71006e-08
3.55349e-07
-9.66661e-08
-2.55169e-07
4.19999e-07
4.51615e-08
5.02114e-06
7.49574e-08
4.47142e-06
1.00151e-07
4.01795e-06
1.12917e-07
3.70857e-06
1.14631e-07
3.46788e-06
1.07135e-07
3.23239e-06
9.60908e-08
2.99016e-06
8.44036e-08
2.74864e-06
7.42567e-08
2.50968e-06
6.73014e-08
2.27399e-06
6.47618e-08
2.04197e-06
6.75089e-08
1.81396e-06
7.61169e-08
1.59037e-06
9.09071e-08
1.37164e-06
1.11981e-07
1.15831e-06
1.39247e-07
9.50885e-07
1.72437e-07
7.49884e-07
2.11128e-07
5.5571e-07
2.54775e-07
3.68604e-07
3.02772e-07
1.88562e-07
3.5453e-07
1.52888e-08
4.09587e-07
-1.51778e-07
-3.1331e-07
4.67673e-07
1.45524e-07
4.87566e-06
2.11147e-07
4.40587e-06
2.4664e-07
3.98252e-06
2.60844e-07
3.69442e-06
2.63366e-07
3.46541e-06
2.58542e-07
3.23726e-06
2.47154e-07
3.00158e-06
2.32434e-07
2.76339e-06
2.17188e-07
2.52494e-06
2.03643e-07
2.28754e-06
1.93479e-07
2.05213e-06
1.87917e-07
1.81952e-06
1.87804e-07
1.59047e-06
1.93681e-07
1.36575e-06
2.05828e-07
1.14613e-06
2.24297e-07
9.32385e-07
2.48922e-07
7.25224e-07
2.79329e-07
5.25264e-07
3.14967e-07
3.32924e-07
3.5517e-07
1.48315e-07
3.99277e-07
-2.8862e-08
4.46797e-07
-1.9934e-07
-3.64065e-07
4.97509e-07
2.46758e-07
4.62894e-06
3.59861e-07
4.29283e-06
4.05046e-07
3.93739e-06
4.18837e-07
3.68068e-06
4.20447e-07
3.46384e-06
4.12616e-07
3.24513e-06
3.96323e-07
3.01791e-06
3.75114e-07
2.78462e-06
3.52233e-07
2.54784e-06
3.30256e-07
2.30953e-06
3.11118e-07
2.07127e-06
2.9623e-07
1.8344e-06
2.8659e-07
1.6001e-06
2.82876e-07
1.36945e-06
2.85499e-07
1.14349e-06
2.9463e-07
9.23232e-07
3.10196e-07
7.09631e-07
3.31876e-07
5.03555e-07
3.59097e-07
3.05672e-07
3.91094e-07
1.16287e-07
4.27068e-07
-6.48669e-08
4.66455e-07
-2.38758e-07
-4.06733e-07
5.09093e-07
3.47742e-07
4.28124e-06
5.13224e-07
4.12741e-06
5.76092e-07
3.87457e-06
5.91614e-07
3.6652e-06
5.87122e-07
3.46837e-06
5.69379e-07
3.2629e-06
5.4267e-07
3.04464e-06
5.11037e-07
2.81628e-06
4.77846e-07
2.58105e-06
4.45658e-07
2.34173e-06
4.16358e-07
2.10058e-06
3.91315e-07
1.85945e-06
3.71523e-07
1.61989e-06
3.57692e-07
1.38327e-06
3.50304e-07
1.15087e-06
3.4963e-07
9.23891e-07
3.55706e-07
7.03538e-07
3.68283e-07
4.90959e-07
3.8678e-07
2.87155e-07
4.10293e-07
9.27538e-08
4.37785e-07
-9.23797e-08
4.68568e-07
-2.69559e-07
-4.40743e-07
5.0256e-07
4.68421e-07
3.81286e-06
6.85164e-07
3.91071e-06
7.64971e-07
3.7948e-06
7.76901e-07
3.6533e-06
7.58122e-07
3.48718e-06
7.24175e-07
3.29687e-06
6.82302e-07
3.08654e-06
6.37068e-07
2.86153e-06
5.91589e-07
2.62654e-06
5.48024e-07
2.3853e-06
5.07895e-07
2.14071e-06
4.72303e-07
1.89504e-06
4.42074e-07
1.65012e-06
4.17849e-07
1.40749e-06
4.00128e-07
1.16858e-06
3.89276e-07
9.34736e-07
3.85469e-07
7.07336e-07
3.88601e-07
4.87817e-07
3.9814e-07
2.77605e-07
4.13024e-07
7.78593e-08
4.31832e-07
-1.11197e-07
4.53657e-07
-2.91393e-07
-4.65669e-07
4.78575e-07
6.34284e-07
3.1786e-06
8.98174e-07
3.64685e-06
9.73572e-07
3.71942e-06
9.65956e-07
3.66094e-06
9.24308e-07
3.52884e-06
8.69081e-07
3.35212e-06
8.09131e-07
3.1465e-06
7.488e-07
2.92187e-06
6.90431e-07
2.68492e-06
6.35407e-07
2.44034e-06
5.84623e-07
2.19151e-06
5.38731e-07
1.94094e-06
4.98266e-07
1.69058e-06
4.63717e-07
1.44204e-06
4.3556e-07
1.19674e-06
4.14251e-07
9.56043e-07
4.00167e-07
7.21418e-07
3.93461e-07
4.94521e-07
3.93802e-07
2.77261e-07
4.00018e-07
7.16399e-08
4.10061e-07
-1.21242e-07
4.22675e-07
-3.04008e-07
-4.81249e-07
4.38253e-07
8.60254e-07
2.31836e-06
1.15496e-06
3.35217e-06
1.19393e-06
3.68046e-06
1.1473e-06
3.70759e-06
1.07405e-06
3.6021e-06
9.94547e-07
3.43163e-06
9.16143e-07
3.22492e-06
8.41467e-07
2.99656e-06
7.71386e-07