/*--------------------------------*- C++ -*----------------------------------*\
  =========                 |
  \\      /  F ield         | OpenFOAM: The Open Source CFD Toolbox
   \\    /   O peration     | Website:  https://openfoam.org
    \\  /    A nd           | Version:  9
     \\/     M anipulation  |
\*---------------------------------------------------------------------------*/
FoamFile
{
    format      ascii;
    class       volVectorField;
    location    "5.8";
    object      U;
}
// * * * * * * * * * * * * * * * * * * * * * * * * * * * * * * * * * * * * * //

dimensions      [0 1 -1 0 0 0 0];

internalField   nonuniform List<vector> 
2268
(
(0.0013396 -0.000670861 0)
(0.00410586 -0.000742748 0)
(0.00668085 -0.000688571 0)
(0.00912516 -0.000619532 0)
(0.0112969 -0.000539679 0)
(0.0131695 -0.000458221 0)
(0.0147837 -0.00039563 0)
(0.0161961 -0.000350056 0)
(0.0174482 -0.000312306 0)
(0.0185333 -0.000274279 0)
(0.0194439 -0.000246669 0)
(0.0202522 -0.000257969 0)
(0.0211188 -0.000345451 0)
(0.0222948 -0.000528313 0)
(0.0239889 -0.000754244 0)
(0.025961 -0.000778492 0)
(0.0272983 0.000163259 0)
(0.0232181 0.00262884 0)
(0.0114898 0.00417984 0)
(-0.00273452 0.0038462 0)
(-0.0120541 0.00114519 0)
(-0.010853 -0.00212228 0)
(-0.00383213 -0.00197542 0)
(0.00140158 -0.00190196 0)
(0.00407192 -0.00196724 0)
(0.00655672 -0.00185494 0)
(0.00899034 -0.00168059 0)
(0.0111844 -0.00147938 0)
(0.0131139 -0.00127997 0)
(0.0148014 -0.00111398 0)
(0.016284 -0.000980639 0)
(0.0175829 -0.000858348 0)
(0.0186778 -0.000726274 0)
(0.0195436 -0.00061069 0)
(0.0202156 -0.000571926 0)
(0.0207944 -0.000673658 0)
(0.0214166 -0.000931371 0)
(0.0221568 -0.00121053 0)
(0.0228018 -0.00101269 0)
(0.0227907 0.00102467 0)
(0.019573 0.00571751 0)
(0.0112187 0.0086499 0)
(0.00159189 0.00785929 0)
(-0.00529154 0.00344611 0)
(-0.00718891 -0.00252829 0)
(-0.00470145 -0.00506427 0)
(0.00144933 -0.00313199 0)
(0.0040887 -0.00313886 0)
(0.00652949 -0.00297903 0)
(0.00895639 -0.00273216 0)
(0.0111732 -0.0024277 0)
(0.0131443 -0.00211824 0)
(0.0148798 -0.00185128 0)
(0.0164051 -0.00162599 0)
(0.0177287 -0.00140896 0)
(0.0188161 -0.00116703 0)
(0.019623 -0.000937595 0)
(0.0201548 -0.000805807 0)
(0.0204671 -0.000853238 0)
(0.0206297 -0.00108717 0)
(0.0206603 -0.00132278 0)
(0.0204302 -0.000931041 0)
(0.0197182 0.0017893 0)
(0.0168968 0.00804915 0)
(0.0111091 0.0118779 0)
(0.00480279 0.0108467 0)
(-0.000538563 0.00557613 0)
(-0.00345634 -0.00221676 0)
(-0.00292292 -0.00739038 0)
(0.00146547 -0.00442726 0)
(0.00410065 -0.00435538 0)
(0.00655727 -0.0041397 0)
(0.00901379 -0.00382503 0)
(0.0112759 -0.0034196 0)
(0.0132967 -0.00299863 0)
(0.0150794 -0.00262615 0)
(0.0166433 -0.00230058 0)
(0.0179884 -0.00197525 0)
(0.0190652 -0.00160164 0)
(0.0198073 -0.00122592 0)
(0.0201943 -0.000954519 0)
(0.0202475 -0.00088187 0)
(0.0199922 -0.00100666 0)
(0.0194125 -0.00111416 0)
(0.0184297 -0.00053405 0)
(0.0171666 0.00256293 0)
(0.0150097 0.00977959 0)
(0.0114458 0.0140728 0)
(0.00732522 0.0130932 0)
(0.00326486 0.00747222 0)
(0.000428363 -0.00154108 0)
(-0.000159636 -0.00822532 0)
(0.00147064 -0.00571134 0)
(0.00411566 -0.00558924 0)
(0.00663132 -0.00532706 0)
(0.00915193 -0.00495115 0)
(0.0114813 -0.00444561 0)
(0.013561 -0.00391035 0)
(0.0153927 -0.00342776 0)
(0.0169934 -0.00299465 0)
(0.018358 -0.0025489 0)
(0.0194217 -0.00202214 0)
(0.0200955 -0.00146774 0)
(0.0203369 -0.00101191 0)
(0.0201425 -0.000759139 0)
(0.0195082 -0.000699334 0)
(0.018392 -0.000601146 0)
(0.0167101 0.000192732 0)
(0.0147879 0.0033717 0)
(0.0132504 0.0108016 0)
(0.011637 0.0153753 0)
(0.00926421 0.0146816 0)
(0.00677879 0.00881944 0)
(0.00450716 -0.000583599 0)
(0.00252377 -0.00729477 0)
(0.0014785 -0.00699588 0)
(0.0041534 -0.00684374 0)
(0.00675667 -0.00654534 0)
(0.00936698 -0.0061112 0)
(0.0117795 -0.00550173 0)
(0.0139242 -0.00484624 0)
(0.015805 -0.00424778 0)
(0.0174391 -0.00370013 0)
(0.0188189 -0.00312312 0)
(0.0198662 -0.00242288 0)
(0.0204702 -0.00165951 0)
(0.0205718 -0.000979523 0)
(0.0201529 -0.000496816 0)
(0.0191936 -0.000192706 0)
(0.0176423 0.000173841 0)
(0.015417 0.00121871 0)
(0.0128336 0.00432547 0)
(0.0115348 0.0111864 0)
(0.0113765 0.0158943 0)
(0.0107284 0.0154844 0)
(0.00984517 0.0095098 0)
(0.00787183 0.00081804 0)
(0.00423558 -0.00500366 0)
(0.00149017 -0.00830121 0)
(0.00422768 -0.00813308 0)
(0.00693622 -0.00780801 0)
(0.00965039 -0.00731519 0)
(0.0121536 -0.00659297 0)
(0.0143644 -0.00580769 0)
(0.0162916 -0.00508552 0)
(0.0179532 -0.00441529 0)
(0.0193401 -0.00369676 0)
(0.0203642 -0.00280342 0)
(0.0208977 -0.00180337 0)
(0.0208717 -0.000866186 0)
(0.0202622 -0.000116407 0)
(0.0190464 0.00047192 0)
(0.0171818 0.00114175 0)
(0.0146318 0.00244445 0)
(0.0116966 0.00543787 0)
(0.0102577 0.0112919 0)
(0.0108334 0.0157553 0)
(0.0116989 0.0154967 0)
(0.0117061 0.00992871 0)
(0.0093509 0.00265862 0)
(0.00433646 -0.00167525 0)
(0.00152614 -0.00965317 0)
(0.00434113 -0.00949027 0)
(0.00716018 -0.00914477 0)
(0.00997972 -0.00858801 0)
(0.0125721 -0.00774026 0)
(0.0148461 -0.00681291 0)
(0.0168153 -0.00595468 0)
(0.0184956 -0.00514766 0)
(0.0198765 -0.00427481 0)
(0.0208651 -0.00316585 0)
(0.0213263 -0.00190163 0)
(0.0211894 -0.00067899 0)
(0.0204317 0.000365224 0)
(0.0190354 0.00126182 0)
(0.016978 0.00224277 0)
(0.0142858 0.00377729 0)
(0.0113119 0.00662545 0)
(0.00972232 0.0114391 0)
(0.0103961 0.015244 0)
(0.0118444 0.0150849 0)
(0.0119126 0.0105512 0)
(0.00905991 0.00491039 0)
(0.00285633 0.000508823 0)
(-0.0144628 0.00360466 0)
(-0.0126105 -0.00165197 0)
(-0.00771391 -0.00161979 0)
(-0.00511886 -0.000902449 0)
(-0.00359097 -0.000479709 0)
(-0.00288496 -0.000195734 0)
(-0.00218523 -0.000388221 0)
(1.80672e-05 -0.000939429 0)
(0.00483072 -0.00195334 0)
(0.0126207 -0.00184534 0)
(0.0154909 0.000665771 0)
(0.00768703 0.00263902 0)
(-0.00505375 0.0061289 0)
(-0.0369798 0.00496684 0)
(-0.0331208 -0.00531799 0)
(-0.00777947 -0.00670152 0)
(0.00736211 -0.00300041 0)
(0.0121436 -0.000109547 0)
(0.00968344 0.00328031 0)
(-0.00797161 0.00811563 0)
(-0.00643814 -0.00184989 0)
(-0.00658283 -0.00181321 0)
(-0.00682724 -0.000998948 0)
(-0.00697112 -0.000543634 0)
(-0.00691255 -0.00039586 0)
(-0.00635246 -0.000935032 0)
(-0.00449856 -0.00223819 0)
(-0.000824099 -0.0040174 0)
(0.00470915 -0.00342041 0)
(0.00616503 0.00214343 0)
(-0.000569537 0.00646247 0)
(-0.0104699 0.0126179 0)
(-0.0286421 0.0098048 0)
(-0.022304 -0.00930493 0)
(-0.00802089 -0.0121607 0)
(0.00137837 -0.0056054 0)
(0.00457036 -0.00161846 0)
(0.00944273 0.00648254 0)
(-0.000276333 0.00956502 0)
(-0.00344651 -0.00118675 0)
(-0.00637585 -0.00117053 0)
(-0.00823359 -0.000583365 0)
(-0.00931771 -0.000315542 0)
(-0.00986588 -0.000415265 0)
(-0.00980041 -0.00130652 0)
(-0.00863878 -0.00322607 0)
(-0.00618963 -0.00555897 0)
(-0.00246027 -0.00462842 0)
(-0.00193122 0.00343555 0)
(-0.00756008 0.00954476 0)
(-0.0142152 0.016242 0)
(-0.0212358 0.0109915 0)
(-0.0155722 -0.0128037 0)
(-0.00710765 -0.0160505 0)
(-0.00207412 -0.00731246 0)
(-0.00119115 -0.00355745 0)
(0.00594596 0.00858036 0)
(0.0027079 0.00960124 0)
(-0.00283785 0.000690214 0)
(-0.00715155 0.000140577 0)
(-0.00992752 0.000214854 0)
(-0.0116279 0.000163144 0)
(-0.0126795 -0.000199477 0)
(-0.0131777 -0.00140454 0)
(-0.0128695 -0.00378965 0)
(-0.0116948 -0.00653152 0)
(-0.0095088 -0.00542049 0)
(-0.00924927 0.00463365 0)
(-0.0135259 0.0117635 0)
(-0.0174634 0.0177733 0)
(-0.0166636 0.0100647 0)
(-0.0102675 -0.0151226 0)
(-0.00611112 -0.0182695 0)
(-0.00456224 -0.00767674 0)
(-0.00615991 -0.00502949 0)
(0.00126467 0.00867726 0)
(0.00202875 0.00962757 0)
(-0.00403708 0.00294303 0)
(-0.00878787 0.00181132 0)
(-0.0120191 0.00127066 0)
(-0.0141061 0.000844431 0)
(-0.0155738 0.000239197 0)
(-0.0166213 -0.00120637 0)
(-0.0171702 -0.00388438 0)
(-0.0173739 -0.00688349 0)
(-0.0169718 -0.00584056 0)
(-0.0165053 0.00536266 0)
(-0.0184295 0.013058 0)
(-0.0192735 0.017543 0)
(-0.0127813 0.00727291 0)
(-0.00622365 -0.0165625 0)
(-0.00579819 -0.0190657 0)
(-0.00664692 -0.00686025 0)
(-0.00996422 -0.00601754 0)
(-0.00340712 0.00659881 0)
(9.51554e-05 0.0103877 0)
(-0.0064044 0.00537215 0)
(-0.0111001 0.00359594 0)
(-0.0144732 0.00244481 0)
(-0.0167625 0.00165814 0)
(-0.0185363 0.000872659 0)
(-0.0200511 -0.000723996 0)
(-0.021358 -0.00351247 0)
(-0.0228753 -0.00655612 0)
(-0.0243277 -0.00577728 0)
(-0.0235165 0.00514306 0)
(-0.0220567 0.0130705 0)
(-0.0190533 0.0156867 0)
(-0.00948612 0.00356261 0)
(-0.00413568 -0.0170955 0)
(-0.00661193 -0.0187737 0)
(-0.00846023 -0.00546088 0)
(-0.0120022 -0.00653239 0)
(-0.00719359 0.00286424 0)
(-0.00239173 0.0121026 0)
(-0.00963338 0.0078846 0)
(-0.0139087 0.00533803 0)
(-0.0171935 0.00364197 0)
(-0.0195464 0.00254302 0)
(-0.0214978 0.00164624 0)
(-0.0233366 -8.33339e-06 0)
(-0.0252093 -0.0027549 0)
(-0.0276718 -0.00566061 0)
(-0.0304074 -0.00526798 0)
(-0.0294013 0.00398081 0)
(-0.0249187 0.0115478 0)
(-0.0181004 0.0124718 0)
(-0.00771852 9.77655e-07 0)
(-0.00434101 -0.01684 0)
(-0.00833648 -0.0178381 0)
(-0.00986344 -0.00427558 0)
(-0.0122995 -0.00648023 0)
(-0.00969965 -0.00177645 0)
(-0.007747 0.0169195 0)
(-0.0133454 0.0101203 0)
(-0.0170128 0.00689934 0)
(-0.020043 0.00481521 0)
(-0.0223862 0.00346681 0)
(-0.0244 0.00249704 0)
(-0.0263642 0.00085076 0)
(-0.0285181 -0.00174844 0)
(-0.0314012 -0.00444046 0)
(-0.0344729 -0.00457653 0)
(-0.0333701 0.0022901 0)
(-0.0271086 0.00864847 0)
(-0.0177474 0.00833664 0)
(-0.00789452 -0.00288076 0)
(-0.006208 -0.0160442 0)
(-0.0107168 -0.0166616 0)
(-0.0111835 -0.00398378 0)
(-0.0112329 -0.00621703 0)
(-0.0101892 -0.00696965 0)
(0.0015656 -0.0117534 0)
(0.00454233 -0.0117826 0)
(0.00752424 -0.0114094 0)
(0.0104921 -0.0107382 0)
(0.0132092 -0.009675 0)
(0.015578 -0.00850828 0)
(0.0176106 -0.00740648 0)
(0.0193068 -0.00634148 0)
(0.0206454 -0.00519506 0)
(0.0215432 -0.00370393 0)
(0.0218829 -0.00198219 0)
(0.0216057 -0.000270865 0)
(0.0206931 0.00127657 0)
(0.0191353 0.00268256 0)
(0.0169419 0.00413811 0)
(0.0142337 0.00596034 0)
(0.0114655 0.0085082 0)
(0.00985156 0.0118715 0)
(0.0100597 0.0144749 0)
(0.0108761 0.0145874 0)
(0.0100555 0.0121652 0)
(0.00610828 0.00926045 0)
(-0.00104618 0.0072713 0)
(0.00142835 -0.0147262 0)
(0.00468072 -0.0146488 0)
(0.00784478 -0.0141654 0)
(0.01084 -0.01334 0)
(0.0136145 -0.0119914 0)
(0.0161415 -0.0105241 0)
(0.0183154 -0.00907884 0)
(0.0200155 -0.00759895 0)
(0.0211394 -0.00601128 0)
(0.0217113 -0.0040518 0)
(0.0218218 -0.001848 0)
(0.0214863 0.000381604 0)
(0.0206294 0.00247568 0)
(0.0191702 0.00443108 0)
(0.01711 0.00634057 0)
(0.0146204 0.00832613 0)
(0.0121503 0.0104419 0)
(0.0104099 0.0125516 0)
(0.00957167 0.0141871 0)
(0.00871537 0.0148895 0)
(0.00646747 0.01474 0)
(0.00205746 0.0144311 0)
(-0.00411503 0.0143218 0)
(0.0033356 -0.016219 0)
(0.00546476 -0.0169405 0)
(0.00810712 -0.0166382 0)
(0.00982373 -0.0157017 0)
(0.0121162 -0.0139399 0)
(0.0152274 -0.0121461 0)
(0.0179413 -0.0104599 0)
(0.0198037 -0.00860296 0)
(0.0207378 -0.00654318 0)
(0.0210002 -0.00420426 0)
(0.0209364 -0.00172527 0)
(0.020684 0.000795885 0)
(0.0200728 0.00326708 0)
(0.0188765 0.00565857 0)
(0.0170945 0.00797076 0)
(0.0149775 0.0101542 0)
(0.0129639 0.0121045 0)
(0.0113492 0.0136591 0)
(0.00964233 0.0150159 0)
(0.00742352 0.0163386 0)
(0.00434273 0.0174795 0)
(-0.000110438 0.0183448 0)
(-0.0054494 0.0190954 0)
(0.0134392 -0.0233493 0)
(0.00780045 -0.018041 0)
(0.00904252 -0.0175238 0)
(0.00412033 -0.0161353 0)
(0.00378369 -0.0152999 0)
(0.0099857 -0.0138195 0)
(0.0142228 -0.0115243 0)
(0.0159218 -0.00913237 0)
(0.0166878 -0.00676507 0)
(0.0173507 -0.00416276 0)
(0.0173666 -0.00151049 0)
(0.0172522 0.000912127 0)
(0.0169661 0.0037372 0)
(0.0160069 0.00647149 0)
(0.0148544 0.0090157 0)
(0.0140914 0.0111255 0)
(0.0143527 0.0127277 0)
(0.0149071 0.0143298 0)
(0.0109841 0.0164068 0)
(0.00548976 0.0174966 0)
(0.00306951 0.0190234 0)
(-0.00013138 0.0204647 0)
(-0.00547674 0.0213637 0)
(-0.0075871 -0.0347083 0)
(-0.00425496 -0.0254863 0)
(-0.00725302 -0.0149182 0)
(-0.0307138 -0.00257975 0)
(-0.0314845 -0.0306662 0)
(-0.0246536 -0.030008 0)
(-0.0190793 -0.0223109 0)
(-0.0149716 -0.014144 0)
(-0.0109225 -0.0106985 0)
(-0.00522868 -0.00638 0)
(0.00035813 -0.00187047 0)
(0.00468679 0.000960621 0)
(0.00766356 0.00576534 0)
(0.00978836 0.010055 0)
(0.0110172 0.0130341 0)
(0.0110251 0.0146335 0)
(0.0108181 0.0145295 0)
(0.0123922 0.017804 0)
(0.0102962 0.0356474 0)
(-0.00228428 0.0301819 0)
(-0.00918957 0.0307398 0)
(-0.0108336 0.0359746 0)
(-0.00711694 0.0388376 0)
(-0.00617612 -0.014911 0)
(-0.0102917 -0.0167524 0)
(-0.00760185 -0.00292786 0)
(0.00656215 0.0124357 0)
(0.0110244 -0.0249621 0)
(-0.00732586 -0.0181163 0)
(-0.019866 -0.0188262 0)
(-0.0201151 -0.0140941 0)
(-0.0176457 -0.0148429 0)
(-0.0147939 -0.0130453 0)
(-0.0107775 -0.00883089 0)
(-0.00720337 -0.00488169 0)
(-0.0049595 0.000121292 0)
(-0.00448959 0.0049499 0)
(-0.00718994 0.00956014 0)
(-0.0137539 0.0147674 0)
(-0.0229904 0.0142409 0)
(-0.0285802 0.0123831 0)
(-0.0246322 0.0321797 0)
(-0.0231285 0.034745 0)
(-0.0295093 0.0294322 0)
(-0.0280514 0.0216324 0)
(-0.021338 0.0219711 0)
(0.000403757 -0.0148355 0)
(-0.00889594 -0.0163692 0)
(-0.0128575 -0.02229 0)
(0.00151418 -0.0154651 0)
(0.00277128 -0.0172 0)
(-0.00839163 -0.00280259 0)
(-0.0115612 -0.0124527 0)
(-0.0161817 -0.0149874 0)
(-0.0186909 -0.0160434 0)
(-0.0208503 -0.0152583 0)
(-0.0224609 -0.0114566 0)
(-0.0240299 -0.00606802 0)
(-0.0264235 0.000883659 0)
(-0.0303599 0.00875708 0)
(-0.0360592 0.0170692 0)
(-0.0409137 0.0240055 0)
(-0.0417757 0.0220834 0)
(-0.0414593 0.0149325 0)
(-0.0402316 0.0270314 0)
(-0.0369183 0.0366352 0)
(-0.0316726 0.0286412 0)
(-0.0251726 0.0167985 0)
(-0.0246184 0.0232754 0)
(0.000353995 -0.0101772 0)
(-0.00127563 -0.00878737 0)
(-0.00524149 -0.0168395 0)
(-0.00752603 -0.0150286 0)
(-0.0107972 -0.0101191 0)
(-0.0133401 -0.0035829 0)
(-0.0142178 -0.00789478 0)
(-0.0179711 -0.0105497 0)
(-0.0220802 -0.0113722 0)
(-0.0264594 -0.0104376 0)
(-0.0306259 -0.00714762 0)
(-0.0344881 -0.00169717 0)
(-0.0382903 0.00580953 0)
(-0.0421092 0.0144508 0)
(-0.0452466 0.0221233 0)
(-0.0456062 0.0243772 0)
(-0.043318 0.0186401 0)
(-0.0424732 0.0153273 0)
(-0.0412378 0.023555 0)
(-0.0336183 0.0287314 0)
(-0.0240271 0.0202162 0)
(-0.0210179 0.0149708 0)
(-0.0226324 0.0248483 0)
(0.000207235 -0.0116173 0)
(-0.000231904 -0.00892065 0)
(-0.00364704 -0.011558 0)
(-0.00824886 -0.0100627 0)
(-0.0121541 -0.00706537 0)
(-0.014302 -0.00351556 0)
(-0.0159676 -0.00511357 0)
(-0.0195682 -0.00645731 0)
(-0.0238438 -0.00662195 0)
(-0.0284468 -0.00547636 0)
(-0.0329326 -0.00255493 0)
(-0.0369349 0.00236414 0)
(-0.0401784 0.00917088 0)
(-0.0421619 0.0166601 0)
(-0.0421234 0.022168 0)
(-0.0400969 0.0218196 0)
(-0.0384032 0.0163478 0)
(-0.038384 0.0150527 0)
(-0.0359894 0.0190018 0)
(-0.0290256 0.0190132 0)
(-0.023081 0.0144722 0)
(-0.0219034 0.0157835 0)
(-0.0202509 0.0215288 0)
(-0.00026094 -0.0109369 0)
(-0.00114931 -0.00727667 0)
(-0.00389456 -0.00731086 0)
(-0.00776702 -0.00586346 0)
(-0.0113059 -0.00386377 0)
(-0.0138239 -0.0018241 0)
(-0.0161812 -0.00211245 0)
(-0.0195754 -0.00257498 0)
(-0.0234539 -0.0023335 0)
(-0.0274876 -0.00109026 0)
(-0.0313941 0.00148644 0)
(-0.0347886 0.00566195 0)
(-0.0371207 0.011157 0)
(-0.0377281 0.0167446 0)
(-0.0363199 0.0201899 0)
(-0.0339407 0.0194004 0)
(-0.0326182 0.0157815 0)
(-0.0321897 0.0143167 0)
(-0.029986 0.0147413 0)
(-0.0260074 0.0134007 0)
(-0.0232089 0.0122651 0)
(-0.0217771 0.0146393 0)
(-0.0190442 0.0173195 0)
(-0.000809844 -0.00976656 0)
(-0.00222263 -0.00566318 0)
(-0.00454302 -0.00412661 0)
(-0.00755177 -0.00249649 0)
(-0.0105148 -0.000865553 0)
(-0.0130403 0.000539624 0)
(-0.0155287 0.000835688 0)
(-0.0185017 0.000863405 0)
(-0.0217284 0.00128842 0)
(-0.0250095 0.00251209 0)
(-0.0281523 0.00477903 0)
(-0.0307866 0.00816284 0)
(-0.0323396 0.0122391 0)
(-0.0323261 0.0160227 0)
(-0.0308319 0.0180691 0)
(-0.0288294 0.0174599 0)
(-0.0275199 0.0151169 0)
(-0.0266751 0.013187 0)
(-0.0250517 0.012004 0)
(-0.0228773 0.0108571 0)
(-0.0212661 0.0109307 0)
(-0.0199021 0.012658 0)
(-0.0176482 0.0141137 0)
(-0.00129779 -0.00787474 0)
(-0.00304074 -0.00378602 0)
(-0.00515614 -0.00157651 0)
(-0.00758381 0.000203915 0)
(-0.0100164 0.00171471 0)
(-0.0122737 0.00289602 0)
(-0.0145289 0.00344242 0)
(-0.0169865 0.00368657 0)
(-0.0195646 0.00419391 0)
(-0.0221677 0.00536344 0)
(-0.0246032 0.00731802 0)
(-0.026499 0.00992556 0)
(-0.0274319 0.0127688 0)
(-0.0271687 0.0151972 0)
(-0.0258964 0.0163792 0)
(-0.0242946 0.0158771 0)
(-0.0230755 0.01415 0)
(-0.022169 0.0120988 0)
(-0.0210566 0.0104274 0)
(-0.0198182 0.00948981 0)
(-0.018759 0.00977499 0)
(-0.0176233 0.0110686 0)
(-0.0159294 0.0119192 0)
(-0.00154604 -0.00556118 0)
(-0.00352862 -0.00172488 0)
(-0.00556225 0.000630453 0)
(-0.00765021 0.00242921 0)
(-0.00967892 0.00386579 0)
(-0.011593 0.00495138 0)
(-0.0134826 0.00559646 0)
(-0.0154634 0.00593849 0)
(-0.017525 0.00649331 0)
(-0.0195638 0.00757328 0)
(-0.0213583 0.00916309 0)
(-0.022616 0.0110503 0)
(-0.0231011 0.0129457 0)
(-0.022731 0.0144375 0)
(-0.0216754 0.0150497 0)
(-0.0203682 0.0145511 0)
(-0.0192452 0.0131532 0)
(-0.018415 0.0112293 0)
(-0.0177237 0.00953002 0)
(-0.0170736 0.00864874 0)
(-0.0164173 0.00888114 0)
(-0.0155004 0.00982357 0)
(-0.0141123 0.0102728 0)
(-0.00164098 -0.0030125 0)
(-0.00374829 0.000428894 0)
(-0.0057471 0.00267088 0)
(-0.00764208 0.0043582 0)
(-0.00939863 0.00567949 0)
(-0.0110183 0.00667279 0)
(-0.0125725 0.00732958 0)
(-0.0141704 0.00774438 0)
(-0.0158111 0.00830617 0)
(-0.0173536 0.00922215 0)
(-0.0185978 0.0104092 0)
(-0.0193695 0.0116984 0)
(-0.0195575 0.0129005 0)
(-0.0191403 0.0137465 0)
(-0.0182509 0.0139611 0)
(-0.0171629 0.0134172 0)
(-0.0161596 0.0122195 0)
(-0.0154327 0.010582 0)
(-0.0149908 0.00905562 0)
(-0.014683 0.00818523 0)
(-0.0142963 0.00825385 0)
(-0.0135352 0.00875073 0)
(-0.0123238 0.00886411 0)
(-0.00163469 -0.000409976 0)
(-0.00378951 0.00262009 0)
(-0.00576894 0.00462639 0)
(-0.00754917 0.00610806 0)
(-0.00913143 0.00725911 0)
(-0.0105425 0.00812803 0)
(-0.0118505 0.0087396 0)
(-0.0131381 0.00918558 0)
(-0.0143999 0.00969294 0)
(-0.0155124 0.0103877 0)
(-0.0163366 0.0112008 0)
(-0.0167759 0.0120251 0)
(-0.0167757 0.0127218 0)
(-0.0163454 0.0131174 0)
(-0.0155884 0.0130515 0)
(-0.0146873 0.0124561 0)
(-0.0138385 0.0113992 0)
(-0.0132016 0.0100551 0)
(-0.0128396 0.00876964 0)
(-0.0126464 0.00793772 0)
(-0.0123388 0.00775627 0)
(-0.0116667 0.00780903 0)
(-0.0106328 0.00762888 0)
(-0.00158225 0.00215676 0)
(-0.00373658 0.0048157 0)
(-0.0056878 0.00652004 0)
(-0.00738506 0.00774342 0)
(-0.0088499 0.00868378 0)
(-0.0101156 0.00939493 0)
(-0.0112411 0.00991284 0)
(-0.0122796 0.0103113 0)
(-0.0132258 0.0107103 0)
(-0.0140047 0.0111778 0)
(-0.0145301 0.0116799 0)
(-0.0147458 0.0121428 0)
(-0.0146295 0.0124689 0)
(-0.0142048 0.0125481 0)
(-0.0135531 0.0122875 0)
(-0.0128025 0.0116554 0)
(-0.0120917 0.0107064 0)
(-0.0115355 0.00957839 0)
(-0.0111757 0.00849871 0)
(-0.0109273 0.0077043 0)
(-0.0105874 0.00728266 0)
(-0.00998671 0.00700445 0)
(-0.0091192 0.0065848 0)
(-0.00154482 0.00466533 0)
(-0.00364708 0.00697732 0)
(-0.00554221 0.00835029 0)
(-0.00716357 0.00929132 0)
(-0.00853586 0.00999662 0)
(-0.00968902 0.0105219 0)
(-0.0106704 0.0109022 0)
(-0.0115168 0.0111876 0)
(-0.0122284 0.0114423 0)
(-0.012766 0.0117011 0)
(-0.0130828 0.0119454 0)
(-0.0131498 0.0121259 0)
(-0.0129634 0.0121775 0)
(-0.012552 0.0120314 0)
(-0.0119798 0.0116357 0)
(-0.0113383 0.0109796 0)
(-0.0107239 0.0101089 0)
(-0.0102122 0.00912463 0)
(-0.00982513 0.00817313 0)
(-0.0095013 0.00738984 0)
(-0.0091123 0.00681032 0)
(-0.00855273 0.00631062 0)
(-0.00781294 0.00571602 0)
(-0.00152588 0.00711602 0)
(-0.003543 0.00906505 0)
(-0.00535517 0.0101046 0)
(-0.00689586 0.0107571 0)
(-0.00818211 0.0112152 0)
(-0.00923812 0.0115347 0)
(-0.010102 0.0117457 0)
(-0.0108023 0.0118802 0)
(-0.011345 0.0119724 0)
(-0.0117142 0.0120387 0)
(-0.0118891 0.0120666 0)
(-0.0118595 0.0120236 0)
(-0.0116323 0.0118676 0)
(-0.0112362 0.0115569 0)
(-0.0107216 0.0110637 0)
(-0.0101543 0.0103882 0)
(-0.00960066 0.00956716 0)
(-0.00910918 0.0086712 0)
(-0.00869077 0.00779211 0)
(-0.00830518 0.00700683 0)
(-0.0078757 0.00632992 0)
(-0.00734022 0.00569071 0)
(-0.00669186 0.00498297 0)
(-0.0015055 0.00950505 0)
(-0.00342234 0.0110529 0)
(-0.00513736 0.0117707 0)
(-0.00659002 0.012137 0)
(-0.00778841 0.0123445 0)
(-0.00875347 0.012448 0)
(-0.00951744 0.0124726 0)
(-0.0101047 0.0124381 0)
(-0.0105257 0.0123617 0)
(-0.0107787 0.0122497 0)
(-0.010859 0.0120925 0)
(-0.0107682 0.0118685 0)
(-0.0105189 0.0115508 0)
(-0.0101378 0.0111148 0)
(-0.00966463 0.0105464 0)
(-0.00914713 0.00985081 0)
(-0.00863091 0.00905597 0)
(-0.00814779 0.00820982 0)
(-0.00770407 0.00736924 0)
(-0.0072755 0.00657807 0)
(-0.00681845 0.005842 0)
(-0.00629848 0.00511949 0)
(-0.00571313 0.00434661 0)
(-0.00146917 0.0118202 0)
(-0.00328738 0.0129336 0)
(-0.00489925 0.0133388 0)
(-0.00625269 0.0134237 0)
(-0.007357 0.0133833 0)
(-0.00823225 0.0132696 0)
(-0.00890705 0.0131027 0)
(-0.00940345 0.0128941 0)
(-0.00973469 0.0126513 0)
(-0.00990698 0.012375 0)
(-0.0099248 0.0120569 0)
(-0.00979634 0.0116823 0)
(-0.00953689 0.0112341 0)
(-0.00917028 0.0106979 0)
(-0.00872792 0.0100673 0)
(-0.00824484 0.00934864 0)
(-0.00775318 0.00856247 0)
(-0.0072747 0.00774071 0)
(-0.00681443 0.00691848 0)
(-0.00635932 0.00612086 0)
(-0.00588605 0.0053498 0)
(-0.00537719 0.00458065 0)
(-0.00483398 0.00377549 0)
(-0.00141185 0.0140448 0)
(-0.00313934 0.0147122 0)
(-0.00464421 0.0147972 0)
(-0.00588544 0.0146074 0)
(-0.00688834 0.0143276 0)
(-0.00767298 0.0140032 0)
(-0.00826536 0.0136488 0)
(-0.00868569 0.0132701 0)
(-0.00894825 0.0128685 0)
(-0.00906321 0.0124416 0)
(-0.00903973 0.0119819 0)
(-0.00888921 0.0114791 0)
(-0.0086274 0.0109219 0)
(-0.0082751 0.0103018 0)
(-0.00785727 0.00961637 0)
(-0.00740015 0.00887137 0)
(-0.00692708 0.00808151 0)
(-0.00645391 0.00726773 0)
(-0.00598569 0.00645167 0)
(-0.00551676 0.00564781 0)
(-0.00503599 0.00485661 0)
(-0.00453599 0.00406348 0)
(-0.00402044 0.00324635 0)
(-0.00134962 0.0161666 0)
(-0.00297652 0.0163894 0)
(-0.00436304 0.0161329 0)
(-0.00548213 0.0156789 0)
(-0.00637904 0.0151738 0)
(-0.00707338 0.0146513 0)
(-0.0075887 0.0141198 0)
(-0.00794339 0.0135804 0)
(-0.00815155 0.0130311 0)
(-0.00822479 0.0124674 0)
(-0.00817411 0.0118824 0)
(-0.00801187 0.0112682 0)
(-0.00775301 0.0106172 0)
(-0.0074154 0.00992415 0)
(-0.00701898 0.00918824 0)
(-0.00658385 0.00841421 0)
(-0.00612754 0.00761221 0)
(-0.00566237 0.00679581 0)
(-0.00519368 0.00597834 0)
(-0.00472043 0.00516819 0)
(-0.00423863 0.00436533 0)
(-0.00374662 0.00356116 0)
(-0.0032493 0.00274324 0)
(-0.00128634 0.0181759 0)
(-0.00278147 0.0179461 0)
(-0.00403386 0.0173379 0)
(-0.00503101 0.0166349 0)
(-0.00582353 0.015922 0)
(-0.00643088 0.0152172 0)
(-0.00687487 0.0145227 0)
(-0.00717228 0.0138356 0)
(-0.00733642 0.0131514 0)
(-0.00737883 0.0124644 0)
(-0.00731069 0.0117681 0)
(-0.00714393 0.011056 0)
(-0.00689204 0.0103225 0)
(-0.00657007 0.00956422 0)
(-0.00619408 0.0087808 0)
(-0.00577974 0.00797576 0)
(-0.00534069 0.00715592 0)
(-0.00488693 0.00632995 0)
(-0.00442401 0.00550601 0)
(-0.00395362 0.00468896 0)
(-0.00347577 0.00387859 0)
(-0.00299192 0.00306989 0)
(-0.00250733 0.0022561 0)
(-0.00118575 0.0200412 0)
(-0.00252783 0.0193551 0)
(-0.00364353 0.0184149 0)
(-0.00452613 0.01748 0)
(-0.00521962 0.0165767 0)
(-0.00574517 0.0157065 0)
(-0.00612394 0.0148644 0)
(-0.00637141 0.014044 0)
(-0.00649971 0.0132386 0)
(-0.00651951 0.0124415 0)
(-0.00644113 0.0116463 0)
(-0.00627534 0.0108474 0)
(-0.00603378 0.0100404 0)
(-0.00572898 0.00922261 0)
(-0.00537386 0.0083939 0)
(-0.00498082 0.00755659 0)
(-0.00456073 0.00671509 0)
(-0.00412197 0.00587485 0)
(-0.00367007 0.00504076 0)
(-0.00320816 0.00421558 0)
(-0.00273841 0.003399 0)
(-0.00226379 0.00258811 0)
(-0.0017894 0.00177939 0)
(-0.00104539 0.0217147 0)
(-0.00222843 0.0206028 0)
(-0.00320751 0.0193676 0)
(-0.00397554 0.0182189 0)
(-0.00457212 0.0171429 0)
(-0.00501988 0.0161247 0)
(-0.00533887 0.0151515 0)
(-0.00554283 0.014213 0)
(-0.0056422 0.0133001 0)
(-0.00564609 0.0124054 0)
(-0.00556335 0.0115226 0)
(-0.00540312 0.0106465 0)
(-0.00517511 0.00977325 0)
(-0.0048895 0.00890077 0)
(-0.00455666 0.00802868 0)
(-0.00418647 0.00715839 0)
(-0.00378771 0.00629266 0)
(-0.0033675 0.00543479 0)
(-0.00293114 0.00458763 0)
(-0.00248243 0.00375261 0)
(-0.00202453 0.00292934 0)
(-0.00156104 0.00211604 0)
(-0.00109663 0.00131094 0)
(-0.000902263 0.0231707 0)
(-0.00191588 0.0216843 0)
(-0.00274712 0.0201898 0)
(-0.00339202 0.0188496 0)
(-0.00388912 0.0176219 0)
(-0.00426101 0.0164757 0)
(-0.00452476 0.0153896 0)
(-0.00469102 0.0143486 0)
(-0.00476761 0.0133422 0)
(-0.00476149 0.012362 0)
(-0.00467959 0.0114019 0)
(-0.00452918 0.010457 0)
(-0.00431798 0.00952394 0)
(-0.00405406 0.0086008 0)
(-0.00374561 0.00768706 0)
(-0.00340048 0.0067835 0)
(-0.0030258 0.00589176 0)
(-0.00262765 0.00501375 0)
(-0.00221093 0.00415101 0)
(-0.00177962 0.00330415 0)
(-0.00133725 0.00247264 0)
(-0.000887512 0.00165524 0)
(-0.000434579 0.000851006 0)
(-0.000766732 0.0244097 0)
(-0.00160381 0.0225916 0)
(-0.00227401 0.0208688 0)
(-0.00278445 0.0193647 0)
(-0.00317748 0.0180124 0)
(-0.00347486 0.0167624 0)
(-0.0036879 0.0155835 0)
(-0.00382218 0.0144569 0)
(-0.00388188 0.0133708 0)
(-0.0038713 0.0123168 0)
(-0.00379517 0.0112889 0)
(-0.00365875 0.0102828 0)
(-0.0034678 0.00929552 0)
(-0.00322846 0.00832527 0)
(-0.00294702 0.00737152 0)
(-0.00262962 0.00643465 0)
(-0.00228205 0.00551561 0)
(-0.00190942 0.00461547 0)
(-0.0015162 0.00373496 0)
(-0.00110627 0.00287412 0)
(-0.00068318 0.00203228 0)
(-0.000250481 0.00120836 0)
(0.000188181 0.000401685 0)
(-0.000642549 0.0254376 0)
(-0.00129843 0.0233157 0)
(-0.00179373 0.0213895 0)
(-0.00215702 0.0197543 0)
(-0.00244163 0.0183131 0)
(-0.00266737 0.0169883 0)
(-0.00283537 0.0157387 0)
(-0.00294384 0.0145437 0)
(-0.00299259 0.0133916 0)
(-0.00298298 0.0122749 0)
(-0.00291746 0.0111882 0)
(-0.00279926 0.0101279 0)
(-0.00263224 0.0090913 0)
(-0.00242072 0.00807714 0)
(-0.00216929 0.00708491 0)
(-0.00188264 0.00611484 0)
(-0.00156536 0.00516754 0)
(-0.00122174 0.00424362 0)
(-0.000855769 0.00334334 0)
(-0.000471106 0.00246641 0)
(-7.11776e-05 0.00161195 0)
(0.000340709 0.000778859 0)
(0.000761384 -3.36326e-05 0)
(-0.000532487 0.0262636 0)
(-0.00100034 0.0238479 0)
(-0.00130588 0.0217334 0)
(-0.0015092 0.0200073 0)
(-0.00168427 0.018525 0)
(-0.00184495 0.0171594 0)
(-0.00197548 0.015862 0)
(-0.00206484 0.0146152 0)
(-0.00210855 0.0134103 0)
(-0.00210525 0.0122413 0)
(-0.00205516 0.0111043 0)
(-0.00195952 0.00999607 0)
(-0.00182032 0.00891488 0)
(-0.00164015 0.00785972 0)
(-0.00142206 0.00683041 0)
(-0.0011694 0.00582729 0)
(-0.000885728 0.00485093 0)
(-0.0005746 0.0039018 0)
(-0.00023955 0.00297997 0)
(0.000116005 0.00208494 0)
(0.0004888 0.00121567 0)
(0.000875763 0.000370822 0)
(0.00127412 -0.000450651 0)
(-0.000418489 0.026898 0)
(-0.000686997 0.0241822 0)
(-0.000795361 0.0218856 0)
(-0.000836279 0.0201177 0)
(-0.00091025 0.0186551 0)
(-0.00101711 0.0172844 0)
(-0.00111856 0.0159606 0)
(-0.00119507 0.0146777 0)
(-0.00123923 0.0134323 0)
(-0.00124739 0.0122212 0)
(-0.00121758 0.0110417 0)
(-0.00114898 0.00989171 0)
(-0.00104172 0.00877011 0)
(-0.000896688 0.00767659 0)
(-0.000715478 0.00661143 0)
(-0.000500234 0.00557537 0)
(-0.00025355 0.00456921 0)
(2.16467e-05 0.00359359 0)
(0.000322213 0.00264859 0)
(0.00064492 0.00173367 0)
(0.000986617 0.00084758 0)
(0.0013444 -1.13163e-05 0)
(0.00171581 -0.000844539 0)
(-0.000207688 0.0273056 0)
(-0.000252523 0.0243133 0)
(-0.000206896 0.0218736 0)
(-0.000141956 0.0201126 0)
(-0.000142074 0.0187138 0)
(-0.000200211 0.0173706 0)
(-0.000276203 0.0160398 0)
(-0.000344029 0.0147361 0)
(-0.000393498 0.0134628 0)
(-0.000418269 0.0122195 0)
(-0.000413817 0.0110053 0)
(-0.000377047 0.00981919 0)
(-0.000306108 0.00866109 0)
(-0.000200237 0.00753153 0)
(-5.96185e-05 0.00643156 0)
(0.000114725 0.00536254 0)
(0.000321047 0.00432584 0)
(0.00055698 0.00332248 0)
(0.000819677 0.00235283 0)
(0.001106 0.00141642 0)
(0.00141279 0.000511833 0)
(0.0017372 -0.000363002 0)
(0.00207699 -0.00121025 0)
(0.000151915 0.0273152 0)
(0.000342481 0.0242511 0)
(0.000482642 0.0217646 0)
(0.000588025 0.0200502 0)
(0.000623278 0.0187193 0)
(0.000602081 0.0174223 0)
(0.000547954 0.016103 0)
(0.000483572 0.0147948 0)
(0.000422487 0.0135068 0)
(0.000374729 0.0122417 0)
(0.000347885 0.0110002 0)
(0.000347502 0.00978334 0)
(0.000377392 0.00859221 0)
(0.000439908 0.00742855 0)
(0.000536149 0.00629448 0)
(0.000666111 0.00519229 0)
(0.000828804 0.00412415 0)
(0.00102234 0.00309178 0)
(0.00124407 0.00209607 0)
(0.0014908 0.00113679 0)
(0.00175921 0.000212377 0)
(0.00204631 -0.00067981 0)
(0.00235001 -0.00154282 0)
(0.000587554 0.0268048 0)
(0.00102736 0.0240009 0)
(0.00125385 0.0216008 0)
(0.00137916 0.0199736 0)
(0.00141974 0.0187028 0)
(0.00141031 0.0174504 0)
(0.00136285 0.0161591 0)
(0.00128913 0.0148624 0)
(0.00120552 0.0135724 0)
(0.00112574 0.0122947 0)
(0.00106025 0.0110327 0)
(0.00101672 0.0097895 0)
(0.0010006 0.00856807 0)
(0.00101554 0.00737171 0)
(0.00106369 0.00620386 0)
(0.00114593 0.00506796 0)
(0.00126193 0.00396728 0)
(0.00141022 0.0029045 0)
(0.00158827 0.00188132 0)
(0.00179269 0.000897947 0)
(0.00201973 -4.72385e-05 0)
(0.00226605 -0.000957666 0)
(0.0025296 -0.00183759 0)
(0.00100533 0.0257461 0)
(0.00175278 0.0235236 0)
(0.0020927 0.0213863 0)
(0.00223382 0.0198974 0)
(0.0022682 0.0186868 0)
(0.00224738 0.0174784 0)
(0.00217878 0.0162276 0)
(0.00207401 0.0149546 0)
(0.001952 0.0136718 0)
(0.00182874 0.0123881 0)
(0.00171627 0.01111 0)
(0.00162343 0.00984335 0)
(0.00155653 0.00859332 0)
(0.00151999 0.00736496 0)
(0.00151668 0.00616315 0)
(0.00154816 0.00499268 0)
(0.00161468 0.00385807 0)
(0.00171522 0.00276325 0)
(0.00184734 0.00171105 0)
(0.00200732 0.000702484 0)
(0.00219065 -0.000264047 0)
(0.00239333 -0.00119303 0)
(0.00261323 -0.00209047 0)
(0.00139672 0.0241477 0)
(0.00249783 0.0227758 0)
(0.00298901 0.0210935 0)
(0.00316802 0.0198148 0)
(0.00318428 0.0186885 0)
(0.0031172 0.0175398 0)
(0.00299265 0.0163372 0)