/*--------------------------------*- C++ -*----------------------------------*\
  =========                 |
  \\      /  F ield         | OpenFOAM: The Open Source CFD Toolbox
   \\    /   O peration     | Website:  https://openfoam.org
    \\  /    A nd           | Version:  9
     \\/     M anipulation  |
\*---------------------------------------------------------------------------*/
FoamFile
{
    format      ascii;
    class       volScalarField;
    location    "145";
    object      epsilon;
}
// * * * * * * * * * * * * * * * * * * * * * * * * * * * * * * * * * * * * * //

dimensions      [0 2 -3 0 0 0 0];

internalField   nonuniform List<scalar> 
12225
(
285.521
270.701
257.91
243.819
232.44
223.114
216.764
212.711
212.743
213.964
217.25
220.885
228.204
232.659
241.744
245.887
257.687
264.266
52.4836
91.9123
106.942
114.797
124.798
136.858
152.639
169.996
191.119
211.041
235.344
255.622
281.373
299.547
325.458
339.705
366.261
375.118
20.3165
34.8741
44.6544
50.4967
55.3669
59.6469
64.6259
69.6946
76.2827
83.2569
91.422
99.4367
108.185
117.163
125.602
135.76
142.806
154.934
15.3445
19.7047
24.1011
27.5821
30.4827
32.8878
35.1383
37.3158
39.4845
41.9467
44.3231
47.2444
49.679
53.1044
55.4467
59.3395
61.5845
65.9437
14.6495
15.8631
17.3628
19.0806
20.6316
22.0337
23.239
24.4401
25.4377
26.6049
27.5195
28.7713
29.6346
31.0039
31.8309
33.2966
34.1312
35.7341
14.7065
14.8767
15.2001
15.8695
16.5635
17.2899
17.9208
18.5875
19.1171
19.7376
20.1928
20.8034
21.211
21.8292
22.2063
22.8381
23.199
23.889
14.7421
14.6201
14.6247
14.737
14.9288
15.2202
15.4902
15.8101
16.0704
16.3839
16.6184
16.9219
17.1324
17.4299
17.6196
17.9179
18.0898
18.4187
14.7626
14.5867
14.4636
14.3814
14.3667
14.39
14.4379
14.5341
14.6184
14.737
14.831
14.9571
15.0484
15.1775
15.2627
15.3944
15.4736
15.6252
14.7666
14.5909
14.4345
14.2964
14.1849
14.1044
14.0396
14.0067
13.9814
13.9786
13.9809
13.9918
14.0043
14.03
14.0478
14.0805
14.1048
14.1483
14.7663
14.594
14.432
14.2821
14.1429
14.0219
13.9115
13.8193
13.7369
13.6698
13.6102
13.5633
13.5181
13.4872
13.4518
13.4345
13.4027
13.4018
14.7658
14.5945
14.4321
14.2803
14.1361
14.0032
13.8781
13.7644
13.6581
13.5628
13.4734
13.3951
13.3197
13.256
13.1915
13.1408
13.0839
13.0454
14.7657
14.5943
14.4321
14.2798
14.1353
13.9998
13.8715
13.7518
13.6384
13.5336
13.434
13.3429
13.2556
13.1769
13.1001
13.0327
12.9646
12.9074
14.7657
14.5941
14.432
14.2794
14.1349
13.9989
13.8698
13.7484
13.6331
13.5249
13.4219
13.3256
13.2337
13.1482
13.0662
12.9905
12.9171
12.8502
14.7657
14.5939
14.4318
14.279
14.1346
13.9983
13.8691
13.7472
13.6315
13.5222
13.4184
13.3203
13.2269
13.1389
13.0549
12.9758
12.9002
12.8292
14.7657
14.5938
14.4317
14.2787
14.1342
13.9977
13.8686
13.7464
13.6306
13.521
13.417
13.3185
13.2248
13.136
13.0516
12.9715
12.8952
12.8228
14.7657
14.5937
14.4316
14.2785
14.1339
13.9973
13.8681
13.7458
13.63
13.5202
13.4161
13.3174
13.2237
13.1346
13.0501
12.9697
12.8933
12.8206
14.7657
14.5937
14.4315
14.2783
14.1337
13.997
13.8677
13.7453
13.6294
13.5196
13.4154
13.3166
13.2228
13.1337
13.049
12.9685
12.892
12.8192
14.7657
14.5937
14.4314
14.2782
14.1335
13.9968
13.8674
13.745
13.629
13.5191
13.4149
13.316
13.2221
13.133
13.0482
12.9677
12.891
12.8182
14.7657
14.5937
14.4314
14.2782
14.1335
13.9967
13.8673
13.7449
13.6288
13.5189
13.4146
13.3157
13.2218
13.1326
13.0478
12.9672
12.8905
12.8176
14.7657
14.5937
14.4314
14.2783
14.1336
13.9968
13.8674
13.745
13.629
13.5191
13.4148
13.316
13.222
13.1328
13.048
12.9675
12.8908
12.8179
14.7657
14.5937
14.4315
14.2784
14.1338
13.997
13.8678
13.7453
13.6295
13.5196
13.4155
13.3167
13.223
13.1339
13.0495
12.969
12.8928
12.8201
14.7657
14.5937
14.4316
14.2785
14.1341
13.9975
13.8685
13.7464
13.6312
13.5221
13.4191
13.3214
13.2294
13.1419
13.0596
12.9811
12.9075
12.8369
14.7658
14.5937
14.4318
14.2788
14.1353
14.0002
13.8742
13.756
13.6464
13.5435
13.4485
13.3592
13.2771
13.1993
13.1283
13.0602
12.9989
12.9387
14.7655
14.5928
14.4328
14.2844
14.1515
14.0321
13.929
13.8375
13.7593
13.6894
13.6307
13.5769
13.5328
13.4905
13.4574
13.423
13.3988
13.3693
14.7592
14.5932
14.4603
14.3602
14.3029
14.2766
14.2805
14.2921
14.321
14.3531
14.3958
14.4344
14.4823
14.5216
14.5718
14.6087
14.6614
14.6936
14.7213
14.6911
14.754
14.9176
15.1828
15.461
15.7475
16.0119
16.2722
16.5036
16.7358
16.9383
17.1504
17.3305
17.5305
17.6931
17.8883
18.0354
14.7477
15.5124
16.5472
17.6841
18.7043
19.5674
20.337
20.9965
21.619
22.1655
22.7182
23.21
23.739
24.2033
24.7315
25.1814
25.7236
26.1646
15.9872
20.992
25.0238
27.7603
29.7845
31.3581
32.7764
34.057
35.3583
36.6148
37.9736
39.2948
40.7589
42.1426
43.7142
45.1696
46.8793
48.3538
29.9032
47.218
54.8692
58.6727
61.6129
64.4301
67.5781
70.9739
74.734
78.7083
82.978
87.3354
91.8947
96.4379
101.087
105.607
110.16
114.561
165.798
160.075
154.899
149.564
144.479
139.677
135.614
132.108
129.27
126.973
125.319
124.043
123.338
122.822
122.838
122.956
123.28
123.823
1.61379
1.26452
2.04841
2.77635
3.49387
4.19866
4.88593
5.54705
6.17052
6.74453
7.25513
7.68441
8.00519
8.15377
8.03115
7.43404
7.49068
7.74794
8.00923
8.24717
8.54996
8.87043
38.501
40.5417
43.0596
45.6458
41.0809
46.4762
49.9991
54.1895
58.4696
62.954
67.6015
72.4313
77.4274
82.6104
87.9614
93.5083
99.2307
105.161
111.276
117.609
124.125
130.857
137.781
144.936
152.293
159.895
167.711
175.786
184.086
192.657
201.464
210.555
219.894
229.53
239.421
249.621
260.085
270.87
281.924
293.307
304.968
316.966
329.245
341.869
354.776
368.03
381.57
395.459
409.634
424.156
438.96
454.108
469.53
485.286
501.304
517.641
534.226
551.107
568.209
585.568
603.108
620.853
638.717
656.71
674.746
692.821
710.872
728.906
746.969
765.178
783.429
801.592
819.659
837.571
855.282
872.724
889.838
906.549
922.783
938.46
953.499
967.816
981.323
993.932
1005.55
1016.09
1025.45
1033.52
1040.28
1045.28
1048.15
1049.01
1048.67
1046.84
1043.44
1037.92
1030.65
1021.57
1010.76
998.097
983.566
967.694
950.592
932.36
913.208
893.223
872.631
851.519
830.102
808.463
786.802
765.194
743.863
723.027
703.534
687.649
673.96
660.5
647.103
633.864
620.896
608.238
595.918
583.945
572.336
561.09
550.212
539.685
529.509
519.686
510.228
501.137
492.421
484.073
476.092
468.465
461.2
454.29
447.724
441.472
435.516
429.835
424.423
419.265
414.355
409.678
405.228
400.989
396.952
393.12
389.469
386.004
382.67
379.374
375.941
372.011
366.692
345.105
4.75625
2.78657
2.70568
2.97543
3.40205
3.92042
4.50158
5.12526
5.77532
6.4401
7.10918
7.77053
8.45046
9.16977
9.98906
10.8632
11.7958
12.7693
13.9086
15.3625
17.3146
20.0905
24.2845
25.5603
26.9164
28.3913
29.532
31.7334
33.8056
35.9673
38.1869
40.4774
42.8392
45.2763
47.7805
50.3572
53.0063
55.7332
58.5376
61.4251
64.3946
67.4504
70.5897
73.8175
77.1333
80.5427
84.0445
87.6443
91.3404
95.1387
99.0371
103.041
107.149
111.366
115.689
120.125
124.67
129.329
134.099
138.985
143.984
149.1
154.329
159.677
165.138
170.716
176.406
182.213
188.129
194.16
200.297
206.545
212.895
219.35
225.9
232.548
239.282
246.105
253.002
259.973
267.004
274.09
281.217
288.378
295.555
302.743
309.925
317.098
324.258
331.426
338.628
345.919
353.382
360.824
368.216
375.544
382.787
389.926
396.937
403.795
410.475
416.948
423.185
429.155
434.824
440.16
445.126
449.685
453.795
457.406
460.466
462.893
464.59
465.549
465.827
465.677
464.758
463.004
460.502
457.253
453.272
448.572
443.171
437.186
430.654
423.632
416.176
408.345
400.202
391.804
383.215
374.491
365.692
356.87
348.089
339.444
331.144
323.56
316.511
309.667
302.952
296.377
289.968
283.736
277.689
271.827
266.154
260.672
255.382
250.28
245.362
240.626
236.073
231.699
227.506
223.49
219.649
215.974
212.464
209.11
205.908
202.846
199.917
197.111
194.425
191.851
189.387
187.025
184.763
182.595
180.519
178.536
176.655
174.87
173.172
171.558
170.013
168.576
167.479
165.696
8.73544
4.49203
3.93172
3.97873
4.26576
4.69991
5.24127
5.86825
6.56724
7.33143
8.16043
9.06268
10.0267
11.0515
12.1352
13.2357
14.2938
15.4045
16.6056
17.9617
19.4363
21.0637
22.7434
24.1689
25.6202
27.1162
28.6874
30.4089
32.1646
33.969
35.8258
37.7386
39.7079
41.7346
43.8183
45.9655
48.1737
50.4445
52.7787
55.1782
57.6436
60.1768
62.7781
65.4497
68.1925
71.0086
73.899
76.8655
79.909
83.0312
86.2327
89.5153
92.8793
96.3263
99.8566
103.472
107.171
110.956
114.826
118.782
122.824
126.952
131.164
135.462
139.844
144.31
148.857
153.486
158.194
162.98
167.841
172.777
177.783
182.858
187.999
193.201
198.461
203.776
209.141
214.551
220.002
225.488
231.004
236.546
242.109
247.689
253.285
258.895
264.524
270.178
275.866
281.593
287.35
293.089
298.794
304.454
310.056
315.585
321.026
326.36
331.569
336.631
341.524
346.223
350.701
354.929
358.878
362.515
365.803
368.705
371.18
373.189
374.653
375.595
375.978
375.995
375.382
374.148
372.318
369.9
366.906
363.357
359.28
354.728
349.735
344.348
338.609
332.567
326.268
319.764
313.099
306.32
299.471
292.595
285.739
278.965
272.372
266.086
260.078
254.254
248.573
243.032
237.641
232.406
227.332
222.423
217.68
213.103
208.693
204.446
200.359
196.429
192.653
189.028
185.549
182.214
179.016
175.952
173.014
170.198
167.498
164.907
162.419
160.027
157.726
155.512
153.38
151.326
149.347
147.44
145.603
143.838
142.149
140.536
139.001
137.556
136.213
135.044
134.16
133.565
12.8767
6.34512
5.31281
5.18486
5.38732
5.77895
6.30449
6.93754
7.66233
8.46864
9.34899
10.297
11.3029
12.3543
13.4341
14.5748
15.7197
16.8533
18.0083
19.2006
20.4763
21.8291
23.2357
24.6609
26.1359
27.668
29.2498
30.9002
32.598
34.3441
36.1394
37.9855
39.8829
41.8319
43.8316
45.8847
47.9944
50.1627
52.3907
54.6797
57.0306
59.4448
61.9234
64.4677
67.079
69.7588
72.5082
75.3286
78.2208
81.1861
84.2252
87.3394
90.5293
93.796
97.1397
100.561
104.061
107.64
111.297
115.032
118.846
122.738
126.708
130.755
134.877
139.074
143.345
147.688
152.101
156.583
161.13
165.742
170.416
175.148
179.936
184.776
189.666
194.602
199.58
204.597
209.65
214.735
219.849
224.99
230.154
235.34
240.547
245.774
251.022
256.293
261.588
266.901
272.216
277.515
282.787
288.023
293.211
298.339
303.395
308.362
313.225
317.964
322.558
326.985
331.219
335.234
339
342.485
345.657
348.478
350.913
352.927
354.483
355.554
356.071
356.222
355.788
354.783
353.215
351.089
348.419
345.224
341.532
337.378
332.8
327.839
322.536
316.938
311.091
305.042
298.834
292.512
286.118
279.696
273.287
266.944
260.725
254.694
248.857
243.185
237.661
232.283
227.054
221.98
217.066
212.314
207.726
203.302
199.039
194.937
190.99
187.196
183.55
180.048
176.684
173.454
170.352
167.372
164.509
161.756
159.108
156.559
154.102
151.733
149.445
147.235
145.099
143.032
141.032
139.097
137.225
135.418
133.679
132.01
130.419
128.921
127.54
126.345
125.416
124.859
16.8971
8.20785
6.71005
6.41524
6.53185
6.87702
7.37566
7.99268
8.70745
9.5057
10.3759
11.3078
12.2911
13.3149
14.3677
15.4406
16.5528
17.6929
18.8678
20.0898
21.3726
22.7099
24.093
25.5223
27.0029
28.5354
30.1183
31.7523
33.434
35.1627
36.9401
38.7684
40.6491
42.5839
44.5744
46.6232
48.73
50.8956
53.121
55.4075
57.756
60.1679
62.6443
65.1867
67.7963
70.4746
73.2233
76.0436
78.9361
81.902
84.9421
88.0577
91.2495
94.5184
97.8652
101.29
104.794
108.378
112.04
115.782
119.603
123.503
127.481
131.536
135.668
139.875
144.155
148.507
152.93
157.421
161.978
166.598
171.278
176.017
180.81
185.655
190.548
195.487
200.467
205.486
210.541
215.628
220.745
225.889
231.059
236.251
241.464
246.697
251.946
257.21
262.489
267.77
273.046
278.306
283.542
288.745
293.906
299.015
304.059
309.024
313.897
318.659
323.29
327.77
332.073
336.174
340.043
343.649
346.958
349.935
352.545
354.753
356.526
357.833
358.569
358.908
358.683
357.888
356.523
354.591
352.106
349.083
345.55
341.537
337.081
332.223
327.006
321.478
315.684
309.673
303.492
297.187
290.802
284.381
277.967
271.602
265.333
259.202
253.226
247.403
241.729
236.205
230.836
225.628
220.583
215.704
210.993
206.448
202.069
197.852
193.794
189.89
186.135
182.524
179.052
175.711
172.497
169.403
166.422
163.549
160.776
158.099
155.511
153.006
150.58
148.227
145.945
143.729
141.577
139.487
137.46
135.495
133.598
131.772
130.027
128.383
126.866
125.542
124.467
123.69
20.6421
9.98241
8.03619
7.57621
7.60308
7.89393
8.35403
8.93949
9.62525
10.3946
11.2349
12.1357
13.0883
14.0852
15.1208
16.1922
17.3011
18.4479
19.6356
20.8691
22.1522
23.4861
24.8702
26.3052
27.7917
29.3295
30.9182
32.5579
34.2482
35.9897
37.7834
39.6308
41.5332
43.4921
45.5088
47.5848
49.7209
51.9181
54.1776
56.5005
58.8881
61.3418
63.8627
66.4524
69.1121
71.8431
74.6468
77.5243
80.4774
83.5075
86.6158
89.8037
93.0722
96.4224
99.8551
103.371
106.971
110.656
114.425
118.279
122.218
126.241
130.347
134.537
138.809
143.162
147.594
152.103
156.688
161.346
166.075
170.872
175.734
180.658
185.641
190.68
195.77
200.909
206.093
211.319
216.583
221.882
227.213
232.573
237.959
243.367
248.796
254.241
259.698
265.163
270.63
276.094
281.548
286.986
292.4
297.783
303.128
308.423
313.659
318.824
323.902
328.879
333.735
338.449
342.998
347.355
351.492
355.375
358.971
362.244
365.156
367.67
369.749
371.36
372.425
372.973
373.004
372.434
371.267
369.504
367.154
364.234
360.767
356.784
352.321
347.42
342.128
336.491
330.562
324.391
318.03
311.528
304.932
298.287
291.638
285.025
278.489
272.066
265.777
259.634
253.64
247.802
242.125
236.614
231.275
226.108
221.116
216.297
211.65
207.171
202.856
198.7
194.699
190.845
187.133
183.556
180.107
176.779
173.566
170.461
167.457
164.547
161.727
158.989
156.329
153.742
151.225
148.773
146.385
144.06
141.797
139.598
137.468
135.413
133.445
131.584
129.859
128.327
127.029
125.931
23.9899
11.5973
9.23316
8.60697
8.54741
8.77869
9.19415
9.74134
10.3915
11.1266
11.9336
12.8028
13.7267
14.6997
15.7177
16.7789
17.8828
19.03
20.2222
21.4615
22.7497
24.0882
25.4779
26.9195
28.4134
29.9601
31.5597
33.2129
34.92
36.6821
38.5002
40.3756
42.3095
44.3034
46.3585
48.476
50.6573
52.9036
55.2161
57.5962
60.0454
62.565
65.1566
67.8216
70.5618
73.3785
76.2735
79.2484
82.3049
85.4447
88.6692
91.9802
95.3789
98.8667
102.445
106.114
109.876
113.73
117.678
121.719
125.854
130.083
134.404
138.818
143.322
147.917
152.6
157.369
162.222
167.157
172.171
177.26
182.422
187.654
192.95
198.308
203.724
209.192
214.71
220.273
225.877
231.519
237.193
242.896
248.624
254.374
260.14
265.919
271.706
277.496
283.283
289.063
294.829
300.576
306.298
311.987
317.637
323.239
328.783
334.258
339.652
344.948
350.129
355.175
360.064
364.768
369.258
373.502
377.465
381.108
384.391
387.274
389.715
391.674
393.1
393.935
394.235
393.909
392.948
391.351
389.122
386.278
382.838
378.835
374.303
369.288
363.836
358.003
351.84
345.406
338.753
331.935
325.004
318.008
310.991
303.998
297.067
290.233
283.522
276.949
270.528
264.266
258.173
252.253
246.512
240.952
235.574
230.378
225.361
220.52
215.85
211.347
207.003
202.813
198.771
194.867
191.096
187.45
183.921
180.502
177.187
173.967
170.838
167.793
164.826
161.934
159.111
156.356
153.665
151.039
148.478
145.983
143.561
141.219
138.97
136.835
134.842
133.043
131.458
130.006
26.8661
13.0049
10.2639
9.47805
9.33613
9.50871
9.87881
10.3869
11.001
11.7019
12.4768
13.3163
14.2137
15.1642
16.1644
17.2124
18.3075
19.4498
20.64
21.8794
23.169
24.5101
25.9036
27.3504
28.8513
30.4072
32.0187
33.6868
35.4126
37.1971
39.0418
40.948
42.9169
44.9503
47.0493
49.2156
51.4505
53.7555
56.1322
58.5821
61.1068
63.7082
66.3878
69.1475
71.9892
74.9148
77.9261
81.0253
84.2143
87.4951
90.8695
94.3396
97.907
101.573
105.34
109.209
113.181
117.258
121.439
125.725
130.117
134.614
139.216
143.923
148.733
153.644
158.656
163.767
168.972
174.271
179.659
185.133
190.69
196.325
202.033
207.811
213.653
219.555
225.511
231.516
237.566
243.654
249.776
255.927
262.102
268.294
274.5
280.714
286.93
293.143
299.348
305.539
311.71
317.855
323.97
330.046
336.079
342.059
347.979
353.828
359.594
365.263
370.818
376.242
381.511
386.6
391.48
396.118
400.477
404.518
408.199
411.474
414.298
416.626
418.41
419.583
420.154
420.083
419.333
417.899
415.784
413
409.568
405.517
400.885
395.718
390.066
383.987
377.538
370.779
363.768
356.564
349.222
341.793
334.327
326.869
319.46
312.136
304.925
297.85
290.926
284.166
277.579
271.174
264.955
258.926
253.087
247.438
241.977
236.699
231.601
226.677
221.919
217.322
212.878
208.579
204.417
200.384
196.472
192.674
188.982
185.388
181.887
178.473
175.138
171.88
168.693
165.576
162.527
159.544
156.629
153.785
151.019
148.338
145.757
143.298
140.986
138.865
136.944
135.115
29.2371
14.182
11.114
10.1829
9.96375
10.0809
10.4077
10.8785
11.4587
12.1279
12.8729
13.6848
14.5572
15.4858
16.4674
17.5002
18.5834
19.7169
20.9008
22.1358
23.4229
24.763
26.1574
27.6071
29.1131
30.6767
32.2988
33.9808
35.7244
37.5311
39.4024
41.34
43.3456
45.4208
47.5674
49.7872
52.0817
54.4529
56.9024
59.4323
62.0444
64.7409
67.5236
70.3949
73.3569
76.412
79.5624
82.8106
86.1588
89.6097
93.1654
96.8282
100.6
104.484
108.481
112.593
116.822
121.168
125.634
130.219
134.924
139.749
144.694
149.758
154.941
160.239
165.653
171.178
176.813
182.554
188.398
194.34
200.376
206.501
212.709
218.996
225.355
231.781
238.266
244.805
251.391
258.017
264.678
271.365
278.074
284.797
291.527
298.258
304.985
311.7
318.397
325.071
331.714
338.321
344.886
351.402
357.863
364.263
370.592
376.842
383.001
389.059
394.999
400.805
406.455
411.924
417.185
422.205
426.948
431.372
435.435
439.088
442.281
444.964
447.085
448.585
449.434
449.601
449.052
447.766
445.751
443.014
439.576
435.463
430.715
425.377
419.505
413.154
406.389
399.271
391.865
384.231
376.431
368.52
360.553
352.576
344.635
336.768
329.006
321.376
313.898
306.586
299.453
292.507
285.755
279.201
272.846
266.688
260.726
254.956
249.373
243.971
238.743
233.682
228.78
224.028
219.419
214.944
210.594
206.361
202.238
198.217
194.291
190.453
186.699
183.023
179.421
175.892
172.433
169.045
165.729
162.489
159.332
156.268
153.31
150.48
147.803
145.316
143.016
140.788
31.0992
15.1241
11.7843
10.7264
10.4371
10.5035
10.7904
11.2269
11.7759
12.416
13.1337
13.9201
14.769
15.6761
16.6386
17.6549
18.7241
19.8464
21.0221
22.2502
23.5316
24.868
26.2607
27.7113
29.2209
30.7909
32.4222
34.1158
35.8759
37.7042
39.6024
41.5725
43.6166
45.7368
47.9353
50.214
52.5751
55.0208
57.5532
60.1746
62.8874
65.6939
68.5968
71.5986
74.7019
77.9095
81.2242
84.6488
88.1862
91.8393
95.6108
99.5034
103.52
107.663
111.934
116.336
120.871
125.54
130.345
135.286
140.364
145.579
150.932
156.42
162.043
167.8
173.687
179.703
185.844
192.106
198.484
204.975
211.573
218.271
225.063
231.943
238.904
245.937
253.036
260.192
267.398
274.644
281.923
289.227
296.546
303.874
311.201
318.52
325.822
333.102
340.35
347.559
354.723
361.833
368.884
375.869
382.78
389.612
396.356
403.005
409.548
415.976
422.276
428.43
434.422
440.227
445.82
451.169
456.238
460.988
465.375
469.348
472.855
475.841
478.25
480.024
481.12
481.489
481.109
479.941
478
475.292
471.833
467.647
462.773
457.256
451.152
444.519
437.424
429.931
422.11
414.027
405.745
397.326
388.828
380.303
371.798
363.356
355.012
346.795
338.729
330.831
323.115
315.593
308.271
301.153
294.241
287.534
281.031
274.726
268.616
262.693
256.951
251.382
245.977
240.729
235.627
230.664
225.831
221.118
216.519
212.024
207.628
203.322
199.103
194.965
190.905
186.92
183.01
179.174
175.415
171.739
168.151
164.662
161.288
158.049
154.967
152.076
149.363
146.715
32.4713
15.8385
12.285
11.1212
10.7701
10.7915
11.0422
11.4474
11.9681
12.5817
13.2745
14.0376
14.8651
15.7516
16.6946
17.6932
18.7469
19.8558
21.0212
22.2403
23.515
24.8468
26.2372
27.688
29.2009
30.7774
32.4189
34.1267
35.9069
37.7588
39.686
41.6919
43.7792
45.9505
48.2083
50.5552
52.9937
55.5265
58.1561
60.8855
63.7174
66.6548
69.7006
72.858
76.1302
79.5205
83.032
86.6683
90.4327
94.3284
98.3589
102.527
106.836
111.29
115.889
120.638
125.538
130.591
135.799
141.162
146.681
152.357
158.189
164.175
170.315
176.607
183.047
189.633
196.36
203.224
210.22
217.342
224.583
231.937
239.395
246.95
254.593
262.314
270.105
277.956
285.856
293.796
301.765
309.752
317.748
325.743
333.725
341.687
349.616
357.505
365.344
373.124
380.835
388.47
396.02
403.478
410.836
418.087
425.224
432.239
439.125
445.872
452.469
458.903
465.158
471.213
477.046
482.626
487.921
492.893
497.499
501.688
505.409
508.603
511.211
513.175
514.438
514.952
514.687
513.584
511.676
508.966
505.464
501.191
496.181
490.48
484.141
477.225
469.798
461.932
453.695
445.158
436.391
427.458
418.421
409.337
400.258
391.23
382.29
373.472
364.801
356.3
347.984
339.865
331.951
324.246
316.753
309.472
302.4
295.533
288.865
282.392
276.104
269.994
264.054
258.274
252.646
247.16
241.807
236.579
231.467
226.462
221.558
216.749
212.029
207.392
202.837
198.361
193.963
189.644
185.408
181.26
177.208
173.262
169.438
165.756
162.236
158.909
155.756
152.672
33.3777
16.338
12.6308
11.3841
10.9804
10.9638
11.1818
11.5589
12.0542
12.6435
13.3131
14.0545
14.8627
15.7318
16.6591
17.6432
18.6834
19.7794
20.931
22.139
23.4054
24.7321
26.121
27.5743
29.0941
30.6827
32.3419
34.0733
35.879
37.7622
39.7265
41.7765
43.9171
46.1517
48.4831
50.9145
53.449
56.0897
58.8399
61.7031
64.6825
67.7818
71.0045
74.3545
77.8354
81.4512
85.2057
89.1027
93.1462
97.34
101.688
106.193
110.86
115.69
120.688
125.856
131.197
136.711
142.401
148.268
154.311
160.532
166.928
173.5
180.244
187.159
194.24
201.484
208.885
216.439
224.138
231.976
239.945
248.036
256.24
264.548
272.949
281.431
289.985
298.597
307.256
315.949
324.664
333.389
342.11
350.816
359.493
368.13
376.716
385.237
393.683
402.042
410.303
418.456
426.49
434.397
442.167
449.794
457.27
464.586
471.738
478.716
485.512
492.116
498.516
504.693
510.629
516.297
521.67
526.712
531.384
535.639
539.425
542.686
545.363
547.394
548.718
549.279
549.041
547.923
545.987
543.229
539.65
535.268
530.111
524.221
517.65
510.459
502.714
494.486
485.849
476.875
467.636
458.202
448.639
439.007
429.363
419.754
410.224
400.809
391.537
382.433
373.514
364.794
356.282
347.984
339.901
332.034
324.38
316.935
309.695
302.652
295.799
289.128
282.631
276.297
270.118
264.084
258.186
252.415
246.763
241.221
235.782
230.441
225.191
220.028
214.949
209.953
205.04
200.21
195.469
190.822
186.278
181.848
177.548
173.396
169.413
165.625
162.012
158.479
33.8928
16.6509
12.8414
11.5331
11.0861
11.0389
11.229
11.5809
12.0543
12.6243
13.276
13.9996
14.7883
15.6375
16.5461
17.5134
18.5389
19.6229
20.7665
21.9707
23.2368
24.5669
25.963
27.428
28.9649
30.5773
32.2658
34.0329
35.8816
37.8145
39.8339
41.9495
44.1657
46.4869
48.9176
51.4627
54.1254
56.9095
59.8189
62.8578
66.0303
69.3407
72.7934
76.3927
80.143
84.0488
88.1145
92.3445
96.7431
101.315
106.063
110.992
116.105
121.406
126.898
132.583
138.463
144.54
150.815
157.29
163.962
170.832
177.899
185.16
192.612
200.251
208.074
216.074
224.245
232.58
241.072
249.713
258.491
267.398
276.422
285.552
294.775
304.079
313.449
322.872
332.333
341.819
351.313
360.801
370.268
379.699
389.08
398.395
407.631
416.772
425.806
434.717
443.493
452.119
460.584
468.878
476.989
484.908
492.627
500.139
507.438
514.518
521.373
527.995
534.376
540.502
546.358
551.925
557.179
562.092
566.63
570.752
574.409
577.552
580.122
582.058
583.298
583.766
583.43
582.188
580.144
577.272
573.571
569.049
563.732
557.652
550.86
543.412
535.373
526.814
517.808
508.431
498.756
488.855
478.798
468.65
458.469
448.308
438.213
428.223
418.37
408.681
399.175
389.868
380.769
371.885
363.218
354.769
346.535
338.512
330.696
323.079
315.654
308.413
301.348
294.448
287.705
281.108
274.65
268.32
262.11
256.013
250.021
244.128
238.328
232.619
226.996
221.461
216.011
210.652
205.385
200.22
195.164
190.23
185.434
180.794
176.328
172.063
167.975
163.988
33.9114
16.7572
12.9216
11.5813
11.1053
11.0363
11.2073
11.541
11.9949
12.5438
13.1753
13.8808
14.6548
15.4936
16.3948
17.3572
18.3805
19.4655
20.6134
21.8262
23.1069
24.456
25.8758
27.3701
28.9421
30.5952
32.3278
34.1472
36.0587
38.0679
40.1802
42.4014
44.7369
47.1922
49.7725
52.4837
55.3309
58.3189
61.4526
64.7372
68.1778
71.7794
75.5471
79.4859
83.601
87.8972
92.3794
97.0523
101.92
106.988
112.259
117.738
123.427
129.33
135.448
141.785
148.341
155.118
162.115
169.331
176.767
184.418
192.284
200.359
208.64
217.122
225.797
234.659
243.7
252.911
262.283
271.805
281.465
291.252
301.152
311.153
321.238
331.395
341.605
351.855
362.126
372.403
382.667
392.901
403.089
413.213
423.256
433.201
443.03
452.727
462.275
471.658
480.858
489.859
498.648
507.211
515.535
523.61
531.425
538.974
546.251
553.252
559.974
566.412
572.562
578.416
583.964
589.192
594.086
598.625
602.784
606.527
609.816
612.608
614.853
616.488
617.467
617.667
617.041
615.561
613.309
610.247
606.367
601.671
596.178
589.914
582.919
575.246
566.954
558.111
548.79
539.064
529.009
518.699
508.204
497.593
486.928
476.264
465.65
455.129
444.736
434.499
424.441
414.577
404.919
395.474
386.245
377.232
368.434
359.847
351.465
343.282
335.292
327.484
319.852
312.386
305.077
297.914
290.89
283.995
277.22
270.559
264.004
257.549
251.19
244.923
238.745
232.658
226.661
220.759
214.955
209.259
203.679
198.23
192.925
187.785
182.826
178.074
173.505
169.062
33.7733
16.7467
12.9131
11.5604
11.0682
10.9817
11.1329
11.4485
11.8878
12.4273
13.0526
13.7548
14.5283
15.3702
16.2794
17.2536
18.2929
19.3983
20.5716
21.8149
23.1299
24.5167
25.9811
27.5281
29.1623
30.8886
32.7121
34.6378
36.6718
38.8203
41.0898
43.4866
46.017
48.6875
51.5047
54.4753
57.6057
60.9023
64.3719
68.0213
71.8563
75.8828
80.1063
84.5325
89.1667
94.014
99.0793
104.367
109.881
115.626
121.604
127.819
134.272
140.965
147.9
155.076
162.494
170.152
178.049
186.182
194.547
203.141
211.958
220.992
230.237
239.684
249.326
259.153
269.154
279.32
289.638
300.095
310.678
321.373
332.165
343.039
353.977
364.965
375.982
387.012
398.037
409.036
419.991
430.884
441.693
452.401
462.988
473.434
483.721
493.829
503.738
513.43
522.885
532.085
541.011
549.649
557.984
566.002
573.694
581.052
588.071
594.749
601.086
607.08
612.733
618.043
623.004
627.609
631.854
635.731
639.225
642.305
644.943
647.114
648.778
649.867
650.332
650.06
648.949
647.117
644.55
641.218
637.102
632.202
626.525
620.092
612.929
605.08
596.597
587.542
577.981
567.988
557.635
546.997
536.146
525.152
514.079
502.986
491.923
480.937
470.065
459.338
448.781
438.41
428.239
418.275
408.522
398.982
389.651
380.527
371.605
362.878
354.34
345.983
337.798
329.776
321.91
314.189
306.604
299.147
291.811
284.587
277.469
270.452
263.531
256.704
249.969
243.327
236.779
230.33
223.985
217.754
211.646
205.676
199.859
194.215
188.759
183.518
178.468
173.574
33.3837
16.6378
12.8349
11.4777
10.9735
10.8783
11.0269
11.3431
11.7864
12.3349
12.9731
13.6925
14.4881
15.3569
16.2966
17.3047
18.3839
19.5369
20.7664
22.076
23.4699
24.9521
26.5275
28.2016
29.9807
31.8712
33.88
36.014
38.2804
40.687
43.2414
45.9514
48.8247
51.869
55.0917
58.4996
62.1013
65.9062
69.9238
74.1637
78.6312
83.332
88.2713
93.4544
98.886
104.57
110.511
116.71
123.172
129.896
136.885
144.138
151.655
159.435
167.475
175.772
184.324
193.125
202.17
211.453
220.968
230.706
240.66
250.82
261.176
271.719
282.435
293.314
304.342
315.507
326.795
338.191
349.68
361.247
372.874
384.546
396.245
407.951
419.648
431.315
442.932
454.48
465.939
477.287
488.504
499.571
510.465
521.167
531.655
541.908
551.905
561.624
571.044
580.143
588.901
597.302
605.33
612.969
620.207
627.038
633.458
639.469
645.073
650.274
655.078
659.492
663.512
667.138
670.378
673.243
675.73
677.808
679.457
680.687
681.479
681.732
681.423
680.338
678.629
676.293
673.294
669.605
665.203
660.074
654.217
647.639
640.356
632.399
623.807
614.629
604.927
594.767
584.219
573.357
562.251
550.972
539.586
528.152
516.726
505.354
494.078
482.93
471.937
461.119
450.489
440.056
429.824
419.796
409.969
400.341
390.907
381.661
372.598
363.709
354.988
346.425
338.012
329.741
321.604
313.591
305.696
297.913
290.234
282.656
275.174
267.787
260.494
253.296
246.197
239.2
232.313
225.545
218.909
212.418
206.089
199.94
193.989
188.263
182.736
177.403
32.6129
16.3797
12.6652
11.3416
10.8604
10.7873
10.9619
11.3071
11.7825
12.3643
13.0399
13.8042
14.6537
15.5871
16.6049
17.7081
18.8988
20.1805
21.5575
23.0352
24.6195
26.3172
28.1351
30.0809
32.1629
34.3898
36.7704
39.3141
42.0303
44.9287
48.0191
51.3113
54.8143
58.5378
62.4909
66.6825
71.122
75.8193
80.7851
86.0266
91.5498
97.3592
103.458
109.847
116.529
123.503
130.77
138.327
146.172
154.302
162.713
171.4
180.357
189.576
199.05
208.772
218.732
228.92
239.327
249.942
260.754
271.752
282.923
294.255
305.736
317.351
329.089
340.934
352.873
364.891
376.975
389.107
401.274
413.459
425.647
437.82
449.961
462.054
474.078
486.015
497.846
509.551
521.109
532.501
543.705
554.702
565.471
575.99
586.236
596.189
605.825
615.123
624.057
632.604
640.744
648.459
655.731
662.547
668.891
674.758
680.149
685.071
689.525
693.522
697.08
700.213
702.913
705.18
707.046
708.551
709.712
710.45
710.775
710.772
710.444
709.531
708.087
706.164
703.732
700.777
697.278
693.2
688.512
683.188
677.211
670.57
663.27
655.323
646.756
637.603
627.912
617.742
607.16
596.232
585.029
573.62
562.07
550.44
538.788
527.162
515.606
504.156
492.839
481.679
470.688
459.879
449.255
438.819
428.571
418.508
408.626
398.922
389.388
380.018
370.807
361.745
352.826
344.042
335.385
326.848
318.424
310.107
301.893
293.777
285.756
277.83
269.998
262.263
254.629
247.101
239.688
232.4
225.25
218.253
211.426
204.788
198.357
192.16
186.174
180.423
31.7583
16.0365
12.4618
11.2128
10.7905
10.7727
10.9987
11.3975
11.9363
12.5971
13.3691
14.2472
15.2299
16.3179
17.5138
18.8216
20.2461
21.7934
23.4708
25.2865
27.2495
29.3697
31.6576
34.1244
36.7814
39.6405
42.7134
46.0124
49.5496
53.337
57.3859
61.7075
66.3122
71.2099
76.4091
81.9181
87.744
93.8932
100.37
107.185
114.343
121.837
129.661
137.81
146.275
155.048
164.121
173.484
183.126
193.037
203.204
213.614
224.254
235.11
246.169
257.415
268.836
280.417
292.145
304.005
315.983
328.066
340.242
352.495
364.812
377.181
389.586
402.017
414.458
426.899
439.324
451.721
464.077
476.378
488.61
500.758
512.809
524.745
536.552
548.212
559.707
571.018
582.126
593.013
603.661
614.049
624.158
633.965
643.449
652.587
661.356
669.733
677.692
685.208
692.258
698.826
704.898
710.456
715.484
719.978
723.946
727.407
730.351
732.793
734.778
736.333
737.418
738.03
738.254
738.171
737.834
737.002
735.773
734.323
732.573
730.475