/*--------------------------------*- C++ -*----------------------------------*\
  =========                 |
  \\      /  F ield         | OpenFOAM: The Open Source CFD Toolbox
   \\    /   O peration     | Website:  https://openfoam.org
    \\  /    A nd           | Version:  9
     \\/     M anipulation  |
\*---------------------------------------------------------------------------*/
FoamFile
{
    format      ascii;
    class       volScalarField;
    location    "145";
    object      k;
}
// * * * * * * * * * * * * * * * * * * * * * * * * * * * * * * * * * * * * * //

dimensions      [0 2 -2 0 0 0 0];

internalField   nonuniform List<scalar> 
12225
(
0.362835
0.343994
0.327739
0.309831
0.295372
0.283519
0.275453
0.2703
0.27034
0.271909
0.276035
0.280798
0.28987
0.295938
0.306747
0.313789
0.325892
0.330758
0.440285
0.46873
0.461615
0.448367
0.450351
0.458323
0.474398
0.49881
0.52424
0.552463
0.580691
0.606579
0.633999
0.654396
0.680347
0.693791
0.719964
0.726474
0.39042
0.417849
0.420243
0.416822
0.41164
0.4078
0.408005
0.410041
0.414472
0.421543
0.430667
0.439901
0.451176
0.461444
0.472946
0.484124
0.493896
0.507486
0.377049
0.387162
0.391468
0.391342
0.39026
0.387882
0.385657
0.384083
0.382869
0.382897
0.383366
0.384376
0.38628
0.388552
0.390964
0.394402
0.39678
0.401487
0.374436
0.376091
0.378429
0.378664
0.378275
0.3772
0.375487
0.373738
0.372006
0.370454
0.36925
0.368116
0.36737
0.366827
0.366453
0.366392
0.366433
0.36686
0.373781
0.372703
0.372659
0.372365
0.371773
0.370817
0.369553
0.368082
0.366569
0.364976
0.363522
0.362065
0.360747
0.359532
0.358394
0.357439
0.356454
0.355828
0.373775
0.371739
0.370388
0.369283
0.368235
0.367114
0.365914
0.364586
0.363236
0.361807
0.360417
0.359022
0.357671
0.356379
0.355114
0.353964
0.352791
0.35181
0.373819
0.371559
0.369635
0.367976
0.3665
0.365107
0.363774
0.362428
0.361105
0.359765
0.358447
0.35714
0.355858
0.354617
0.353394
0.352243
0.351091
0.350047
0.373832
0.371553
0.369449
0.367525
0.365776
0.364153
0.362644
0.361198
0.359815
0.358471
0.357166
0.355899
0.354662
0.353469
0.352301
0.351188
0.350089
0.349066
0.373831
0.37156
0.369418
0.367405
0.365529
0.363772
0.362132
0.360584
0.35912
0.357726
0.356392
0.355114
0.353884
0.352705
0.351563
0.350475
0.349413
0.348415
0.373829
0.37156
0.369413
0.367378
0.365458
0.363645
0.361937
0.360323
0.358797
0.357351
0.355977
0.354669
0.353421
0.352231
0.35109
0.350004
0.348954
0.347965
0.373828
0.371558
0.369409
0.367371
0.365439
0.363608
0.361875
0.360233
0.358676
0.3572
0.355798
0.354466
0.353197
0.351991
0.350839
0.349744
0.348692
0.347698
0.373827
0.371556
0.369405
0.367365
0.36543
0.363593
0.361851
0.360196
0.358625
0.357133
0.355714
0.354366
0.353082
0.351862
0.350698
0.349592
0.348533
0.34753
0.373826
0.371555
0.369401
0.36736
0.365422
0.363583
0.361837
0.360177
0.3586
0.3571
0.355673
0.354316
0.353023
0.351793
0.35062
0.349505
0.348439
0.347427
0.373826
0.371553
0.369398
0.367355
0.365416
0.363575
0.361826
0.360164
0.358584
0.357081
0.35565
0.354289
0.352992
0.351757
0.35058
0.349459
0.348389
0.34737
0.373826
0.371552
0.369396
0.367351
0.36541
0.363567
0.361817
0.360153
0.358572
0.357066
0.355634
0.35427
0.352972
0.351734
0.350555
0.34943
0.348358
0.347335
0.373825
0.371551
0.369394
0.367348
0.365406
0.363562
0.36181
0.360145
0.358562
0.357055
0.355622
0.354256
0.352956
0.351717
0.350536
0.34941
0.348336
0.347311
0.373825
0.371551
0.369393
0.367346
0.365403
0.363558
0.361806
0.36014
0.358555
0.357048
0.355613
0.354246
0.352945
0.351705
0.350522
0.349395
0.348319
0.347293
0.373825
0.37155
0.369393
0.367346
0.365402
0.363557
0.361804
0.360137
0.358552
0.357044
0.355609
0.354242
0.352939
0.351698
0.350515
0.349387
0.34831
0.347284
0.373825
0.371551
0.369393
0.367347
0.365404
0.363559
0.361806
0.36014
0.358555
0.357048
0.355612
0.354246
0.352943
0.351702
0.350519
0.349391
0.348314
0.347288
0.373826
0.371551
0.369395
0.367349
0.365407
0.363563
0.361812
0.360146
0.358563
0.357056
0.355622
0.354257
0.352957
0.351717
0.350536
0.349409
0.348335
0.34731
0.373826
0.371552
0.369397
0.367352
0.365412
0.363571
0.361823
0.360162
0.358584
0.357084
0.355657
0.3543
0.353008
0.351777
0.350604
0.349485
0.348419
0.3474
0.373826
0.371554
0.369399
0.36736
0.365429
0.363603
0.361875
0.360241
0.358691
0.357221
0.355824
0.354495
0.353228
0.35202
0.350867
0.349765
0.348712
0.347703
0.373828
0.371551
0.369412
0.367417
0.365556
0.36382
0.36219
0.360651
0.35919
0.357794
0.356457
0.355172
0.353937
0.352747
0.351602
0.350497
0.349438
0.348412
0.373823
0.371554
0.369604
0.367893
0.366339
0.364892
0.363495
0.362123
0.360762
0.359414
0.358082
0.356771
0.355489
0.354239
0.35303
0.351856
0.350735
0.349646
0.373781
0.37199
0.371113
0.370265
0.36936
0.368312
0.367048
0.36563
0.364121
0.362576
0.361031
0.359523
0.358074
0.356683
0.355382
0.354142
0.35301
0.351924
0.374297
0.375564
0.377778
0.377858
0.377291
0.375886
0.373835
0.371641
0.369505
0.367482
0.365663
0.364084
0.362709
0.361534
0.360608
0.359816
0.359287
0.358799
0.378732
0.394394
0.398294
0.396566
0.392559
0.387608
0.383641
0.380455
0.378264
0.37685
0.376493
0.376745
0.377394
0.37869
0.380434
0.382413
0.384816
0.387127
0.408344
0.427538
0.422423
0.411049
0.402225
0.397919
0.398551
0.401109
0.405974
0.413024
0.420978
0.429806
0.438809
0.448161
0.457273
0.466517
0.475283
0.484141
0.366033
0.353411
0.341988
0.330209
0.318982
0.308382
0.299408
0.291674
0.285402
0.280331
0.276679
0.273863
0.272306
0.271177
0.271169
0.271511
0.272144
0.273374
0.00549938
0.0197781
0.0320181
0.0433983
0.0546539
0.0657661
0.0766476
0.0871439
0.0969937
0.10591
0.113526
0.119468
0.123275
0.124491
0.123197
0.119618
0.121851
0.126711
0.13077
0.133683
0.134435
0.130201
0.116085
0.131497
0.143018
0.148741
0.147673
0.15926
0.166817
0.176024
0.185005
0.194284
0.203646
0.213166
0.222788
0.232555
0.242422
0.252441
0.262566
0.272853
0.283253
0.293818
0.304481
0.3153
0.326228
0.337324
0.348537
0.359929
0.371446
0.383152
0.394988
0.40702
0.419188
0.431556
0.444065
0.456779
0.469634
0.482697
0.495901
0.509315
0.522866
0.536625
0.55052
0.564623
0.578855
0.593291
0.60785
0.622607
0.637479
0.652542
0.667713
0.683064
0.698512
0.714128
0.729828
0.74568
0.7616
0.777652
0.793755
0.809969
0.826205
0.842518
0.858819
0.875152
0.891421
0.907659
0.923773
0.93978
0.955609
0.971268
0.986766
1.00214
1.01756
1.03275
1.04776
1.06252
1.07702
1.0912
1.10503
1.11847
1.13145
1.14393
1.15585
1.16716
1.17779
1.18769
1.19679
1.20503
1.21235
1.21867
1.22393
1.22809
1.23043
1.23175
1.23147
1.22994
1.22734
1.22335
1.21774
1.21071
1.20225
1.1924
1.18094
1.16813
1.15421
1.1392
1.12326
1.10643
1.0889
1.07071
1.05205
1.03297
1.01365
0.994135
0.974636
0.955334
0.936838
0.921204
0.907878
0.894798
0.881785
0.868857
0.85606
0.843417
0.830945
0.818657
0.806584
0.794754
0.783196
0.77193
0.760974
0.750334
0.740021
0.730034
0.720388
0.711088
0.70214
0.69353
0.685254
0.677289
0.669631
0.662259
0.655175
0.648364
0.64183
0.635555
0.629539
0.62376
0.618216
0.6129
0.607809
0.602929
0.598255
0.593732
0.589308
0.584892
0.580344
0.575276
0.568833
0.544856
0.0163539
0.0430769
0.0602254
0.0737035
0.0858614
0.0975727
0.109075
0.120348
0.13123
0.141503
0.150918
0.159256
0.166397
0.172545
0.178794
0.187704
0.197671
0.206922
0.215752
0.224434
0.23295
0.241498
0.251343
0.265912
0.28006
0.291481
0.310815
0.328427
0.343647
0.359015
0.374742
0.39082
0.407178
0.423802
0.44067
0.457783
0.475134
0.492739
0.510596
0.528732
0.547155
0.565903
0.584903
0.604161
0.623675
0.643464
0.663527
0.683884
0.704532
0.72549
0.746754
0.768342
0.790248
0.81249
0.835062
0.857981
0.881236
0.904844
0.928794
0.953102
0.977754
1.00276
1.02812
1.05384
1.07989
1.10631
1.13306
1.16017
1.18761
1.2154
1.24352
1.27198
1.30076
1.32987
1.35929
1.38903
1.41907
1.44942
1.48006
1.51099
1.54219
1.57366
1.60537
1.63732
1.66947
1.70181
1.73428
1.76686
1.7995
1.83215
1.86471
1.8971
1.92921
1.96126
1.99326
2.02515
2.05688
2.0884
2.11963
2.15048
2.18087
2.21068
2.23983
2.26817
2.29558
2.32193
2.34707
2.37085
2.39312
2.41375
2.43247
2.44903
2.46323
2.47503
2.48339
2.48959
2.49225
2.49334
2.49081
2.48517
2.47646
2.46476
2.45016
2.43281
2.41289
2.39056
2.36601
2.33945
2.31107
2.28112
2.24981
2.21736
2.184
2.14995
2.11542
2.08065
2.04595
2.01175
1.97803
1.94458
1.91147
1.8788
1.8467
1.81524
1.7845
1.75452
1.72536
1.69704
1.66958
1.643
1.61731
1.59251
1.56859
1.54554
1.52333
1.50196
1.48138
1.46159
1.44255
1.42421
1.40656
1.38955
1.37316
1.35735
1.34209
1.32735
1.3131
1.2993
1.28593
1.27301
1.26051
1.24838
1.23661
1.22517
1.21402
1.20311
1.19229
1.18162
1.16846
1.13469
0.0300207
0.066584
0.0875615
0.103624
0.117848
0.131306
0.144444
0.157427
0.170265
0.182906
0.195284
0.207389
0.219324
0.231372
0.243987
0.257516
0.271411
0.285332
0.29938
0.313745
0.328587
0.344097
0.36057
0.378225
0.396392
0.415089
0.435453
0.455744
0.475828
0.496061
0.516588
0.537444
0.55862
0.580107
0.601894
0.623977
0.646353
0.669027
0.692
0.715282
0.738874
0.762785
0.787009
0.811556
0.836431
0.861648
0.887214
0.913142
0.939437
0.966112
0.99317
1.02062
1.04847
1.07672
1.10539
1.13446
1.16394
1.19385
1.22416
1.25489
1.28604
1.31759
1.34955
1.38192
1.41468
1.44783
1.48137
1.51529
1.54957
1.58422
1.61923
1.65457
1.69026
1.72626
1.76258
1.7992
1.83611
1.8733
1.91076
1.94847
1.98642
2.0246
2.06299
2.10158
2.14035
2.17927
2.21833
2.2575
2.29678
2.33613
2.37554
2.41499
2.45441
2.49382
2.53317
2.5724
2.61147
2.6503
2.68879
2.72687
2.76441
2.80131
2.83742
2.87259
2.90667
2.93947
2.97081
3.00048
3.02828
3.05397
3.0773
3.09803
3.11594
3.13086
3.14239
3.15055
3.15453
3.15612
3.15366
3.14736
3.13727
3.12349
3.10613
3.08536
3.06137
3.03437
3.00458
2.97227
2.9377
2.90114
2.86288
2.82319
2.78234
2.7406
2.69822
2.65549
2.61273
2.57026
2.52819
2.48649
2.44524
2.40454
2.3645
2.32524
2.28683
2.24935
2.21284
2.17736
2.14291
2.10952
2.07719
2.04592
2.01571
1.98652
1.95835
1.93116
1.90491
1.87959
1.85515
1.83155
1.80875
1.78672
1.76541
1.74477
1.72478
1.7054
1.68659
1.66831
1.65054
1.63327
1.61648
1.60015
1.58426
1.56881
1.55381
1.53925
1.5251
1.51145
1.49696
1.46907
0.0442949
0.088788
0.113702
0.1324
0.148652
0.163832
0.178572
0.193182
0.207798
0.222474
0.237226
0.252079
0.267102
0.28242
0.298183
0.314471
0.331193
0.348296
0.36582
0.383855
0.402482
0.421781
0.441815
0.462596
0.484023
0.506077
0.5288
0.551895
0.575253
0.598901
0.622872
0.647181
0.67183
0.696816
0.722135
0.747787
0.773769
0.800087
0.826742
0.853741
0.881088
0.908791
0.936855
0.96529
0.994104
1.02331
1.05291
1.08293
1.11337
1.14424
1.17554
1.20729
1.23949
1.27215
1.30527
1.33886
1.37291
1.40743
1.44241
1.47785
1.51375
1.55011
1.58692
1.62416
1.66185
1.69995
1.73848
1.7774
1.81672
1.85641
1.89648
1.93689
1.97764
2.01871
2.06009
2.10176
2.14371
2.18591
2.22836
2.27104
2.31393
2.35703
2.4003
2.44375
2.48735
2.5311
2.57496
2.61894
2.66301
2.70716
2.75137
2.79561
2.83985
2.88404
2.92816
2.97214
3.01592
3.05944
3.1026
3.14532
3.18747
3.22894
3.26958
3.30924
3.34773
3.38486
3.42043
3.45421
3.48594
3.51539
3.54228
3.56634
3.58733
3.60502
3.61917
3.62951
3.63522
3.63784
3.63618
3.63022
3.61999
3.60557
3.58708
3.56469
3.53858
3.50901
3.47621
3.44048
3.40212
3.36144
3.31875
3.27437
3.2286
3.18176
3.13415
3.08609
3.03787
2.9898
2.94203
2.89465
2.84775
2.80145
2.75587
2.71112
2.6673
2.62448
2.58272
2.54207
2.50255
2.46417
2.42696
2.3909
2.35597
2.32218
2.28947
2.25784
2.22723
2.19762
2.16896
2.14121
2.11432
2.08825
2.06296
2.03841
2.01454
1.99132
1.96872
1.94671
1.92525
1.90433
1.88395
1.86408
1.84474
1.82594
1.80771
1.79013
1.77324
1.75719
1.74099
1.71656
0.0581747
0.109577
0.138241
0.159541
0.177801
0.194643
0.210858
0.226872
0.242914
0.259114
0.27554
0.29224
0.309264
0.326677
0.344546
0.362925
0.381824
0.401258
0.421255
0.441855
0.463092
0.484994
0.507571
0.530809
0.554667
0.57911
0.604098
0.629549
0.655409
0.681657
0.708285
0.73529
0.762669
0.790419
0.818537
0.847024
0.875883
0.905116
0.934727
0.964723
0.995108
1.02589
1.05708
1.08869
1.12072
1.15319
1.18611
1.21948
1.25332
1.28765
1.32246
1.35776
1.39357
1.42988
1.46671
1.50405
1.5419
1.58027
1.61916
1.65856
1.69846
1.73886
1.77976
1.82114
1.86299
1.9053
1.94805
1.99124
2.03484
2.07884
2.12323
2.16797
2.21306
2.25847
2.30419
2.35018
2.39644
2.44294
2.48967
2.53659
2.58371
2.63099
2.67843
2.72601
2.7737
2.82151
2.8694
2.91737
2.9654
3.01347
3.06157
3.10966
3.1577
3.20568
3.25354
3.30125
3.34873
3.39594
3.44278
3.48917
3.53499
3.58014
3.62446
3.6678
3.70998
3.7508
3.79004
3.82746
3.8628
3.89579
3.92614
3.95356
3.97778
3.99852
4.01554
4.02857
4.03691
4.04114
4.04118
4.03651
4.02718
4.01324
3.99481
3.97204
3.94512
3.91429
3.87983
3.84204
3.80126
3.75781
3.71204
3.6643
3.61494
3.56431
3.51273
3.46054
3.40805
3.35553
3.30321
3.25122
3.1997
3.14877
3.09857
3.04921
3.00081
2.95344
2.90718
2.86206
2.81812
2.77538
2.73385
2.69352
2.65439
2.61644
2.57963
2.54394
2.50932
2.47575
2.44316
2.41152
2.38079
2.3509
2.32182
2.29351
2.26591
2.23899
2.21272
2.18706
2.16199
2.13751
2.1136
2.09026
2.06752
2.04543
2.02404
2.00346
1.98383
1.96532
1.94715
1.92382
0.0711174
0.128342
0.160401
0.184123
0.204268
0.222655
0.240201
0.257418
0.274612
0.291972
0.309616
0.327624
0.346053
0.364957
0.384383
0.404372
0.424953
0.446149
0.467981
0.490469
0.513622
0.537446
0.561931
0.58706
0.612803
0.639129
0.666001
0.693382
0.721237
0.749545
0.778288
0.807459
0.837049
0.867056
0.897476
0.928311
0.959561
0.99123
1.02332
1.05584
1.0888
1.1222
1.15605
1.19037
1.22516
1.26043
1.2962
1.33248
1.36928
1.40661
1.44447
1.48288
1.52185
1.56138
1.60148
1.64214
1.68337
1.72518
1.76755
1.81049
1.85399
1.89803
1.94262
1.98774
2.03337
2.07951
2.12612
2.17321
2.22073
2.26869
2.31704
2.36578
2.41486
2.46428
2.51399
2.56398
2.61423
2.66469
2.71536
2.76621
2.81721
2.86834
2.91958
2.97092
3.02233
3.0738
3.12531
3.17683
3.22836
3.27987
3.33135
3.38276
3.43408
3.48529
3.53635
3.58721
3.63783
3.68816
3.73812
3.78764
3.83662
3.88494
3.93248
3.97909
4.02458
4.06877
4.11144
4.15233
4.19118
4.22772
4.26162
4.29259
4.32031
4.34447
4.36479
4.38097
4.3926
4.39941
4.40183
4.39932
4.39181
4.37934
4.36197
4.33985
4.31316
4.28214
4.24707
4.20828
4.16609
4.12088
4.07302
4.0229
3.97088
3.91733
3.86262
3.80709
3.75106
3.69483
3.63864
3.58268
3.52711
3.47209
3.41777
3.36427
3.3117
3.26017
3.20974
3.16046
3.11237
3.06551
3.01987
2.97547
2.93228
2.89029
2.84948
2.80981
2.77123
2.73372
2.69721
2.66168
2.62706
2.59331
2.56038
2.52823
2.49681
2.46609
2.43603
2.40661
2.37781
2.34962
2.32204
2.2951
2.26883
2.24328
2.21857
2.19483
2.17225
2.15102
2.13047
2.10663
0.0826885
0.144645
0.17964
0.205508
0.22735
0.247142
0.265887
0.284165
0.302339
0.320646
0.339246
0.358247
0.377726
0.397744
0.418343
0.43956
0.461421
0.483947
0.507152
0.531044
0.555624
0.580887
0.606821
0.633406
0.660619
0.688434
0.716824
0.745761
0.775222
0.805188
0.835643
0.866576
0.897981
0.929852
0.962187
0.994985
1.02825
1.06198
1.09618
1.13087
1.16603
1.2017
1.23786
1.27454
1.31175
1.34949
1.38779
1.42664
1.46607
1.50609
1.5467
1.58792
1.62975
1.6722
1.71528
1.75899
1.80333
1.8483
1.89391
1.94014
1.98699
2.03445
2.0825
2.13114
2.18035
2.2301
2.28039
2.33118
2.38245
2.43418
2.48634
2.5389
2.59182
2.64509
2.69865
2.75249
2.80657
2.86086
2.91532
2.96992
3.02465
3.07945
3.13433
3.18923
3.24415
3.29906
3.35393
3.40875
3.4635
3.51815
3.57269
3.62709
3.68134
3.73541
3.78927
3.8429
3.89625
3.94929
4.00196
4.05419
4.10591
4.15702
4.2074
4.25692
4.30542
4.35271
4.39859
4.4428
4.48508
4.52514
4.56266
4.59732
4.62877
4.65667
4.68069
4.7005
4.71577
4.72612
4.73156
4.73198
4.72713
4.717
4.7016
4.68105
4.65552
4.62524
4.59049
4.5516
4.50893
4.46285
4.41377
4.36207
4.30815
4.25242
4.19524
4.13699
4.07801
4.01862
3.95907
3.89961
3.84042
3.78169
3.72357
3.66622
3.60976
3.55428
3.49987
3.4466
3.3945
3.34361
3.29394
3.2455
3.19828
3.15226
3.10741
3.0637
3.0211
2.97956
2.93904
2.89948
2.86085
2.82308
2.78614
2.74998
2.71456
2.67985
2.64581
2.61242
2.57967
2.54756
2.5161
2.48533
2.45529
2.42608
2.3978
2.37065
2.34481
2.3205
2.29714
2.27164
0.0926265
0.158283
0.195712
0.223401
0.24672
0.267759
0.287581
0.306811
0.325851
0.344973
0.364366
0.384163
0.404461
0.425327
0.44681
0.468947
0.491763
0.515274
0.539489
0.564414
0.590045
0.616375
0.643391
0.671077
0.699414
0.72838
0.757954
0.788117
0.818849
0.850136
0.881963
0.914322
0.947205
0.980608
1.01453
1.04897
1.08393
1.11941
1.15542
1.19196
1.22904
1.26668
1.30488
1.34365
1.383
1.42295
1.46351
1.5047
1.54652
1.58899
1.63213
1.67593
1.72042
1.76559
1.81146
1.85804
1.90531
1.95329
2.00197
2.05134
2.1014
2.15213
2.20353
2.25558
2.30825
2.36153
2.41539
2.4698
2.52474
2.58018
2.63607
2.69239
2.7491
2.80615
2.86352
2.92115
2.97901
3.03705
3.09525
3.15355
3.21192
3.27032
3.32872
3.38709
3.44539
3.5036
3.56169
3.61962
3.67739
3.73497
3.79234
3.84948
3.90637
3.963
4.01934
4.07538
4.1311
4.18647
4.24144
4.29597
4.35001
4.40349
4.4563
4.50833
4.55946
4.6095
4.65827
4.70553
4.75103
4.79447
4.83555
4.8739
4.90918
4.94099
4.96898
4.99278
5.01203
5.02641
5.03562
5.03961
5.03815
5.03112
5.01851
5.00037
4.97688
4.94823
4.9147
4.87661
4.83432
4.78822
4.7387
4.68619
4.63111
4.57385
4.51484
4.45446
4.39306
4.331
4.26857
4.20602
4.14359
4.08148
4.01987
3.95892
3.89877
3.83954
3.78131
3.72416
3.66813
3.61328
3.55961
3.50714
3.45586
3.40576
3.35682
3.309
3.26227
3.21658
3.1719
3.12817
3.08535
3.0434
3.00226
2.96189
2.92225
2.88333
2.84508
2.80749
2.77056
2.73429
2.69871
2.66387
2.62982
2.59667
2.56456
2.5337
2.50429
2.47655
2.44993
2.42188
0.100814
0.169241
0.208607
0.237786
0.262347
0.284462
0.30523
0.325307
0.345115
0.364948
0.385015
0.405466
0.426409
0.447925
0.470067
0.492876
0.516378
0.54059
0.565521
0.591176
0.61755
0.644638
0.672429
0.700911
0.730068
0.759887
0.79035
0.821442
0.853148
0.885458
0.91836
0.951848
0.985915
1.02056
1.05578
1.09158
1.12795
1.16491
1.20246
1.24061
1.27936
1.31872
1.35872
1.39935
1.44063
1.48258
1.52521
1.56853
1.61256
1.65731
1.7028
1.74904
1.79604
1.8438
1.89233
1.94165
1.99175
2.04263
2.09429
2.14672
2.19991
2.25386
2.30854
2.36394
2.42003
2.47679
2.5342
2.59221
2.6508
2.70992
2.76955
2.82962
2.89011
2.95095
3.01211
3.07354
3.13517
3.19697
3.25889
3.32087
3.38286
3.44482
3.5067
3.56847
3.63008
3.69149
3.75268
3.8136
3.87424
3.93456
3.99456
4.0542
4.11347
4.17237
4.23088
4.28898
4.34668
4.40396
4.46079
4.51717
4.57304
4.62837
4.6831
4.73713
4.79037
4.84267
4.89386
4.94374
4.99207
5.03857
5.08292
5.12478
5.16376
5.19948
5.23152
5.25948
5.28297
5.30162
5.31512
5.32326
5.32578
5.32256
5.31347
5.29856
5.27794
5.25178
5.22035
5.18393
5.14289
5.09759
5.04846
4.99592
4.94039
4.88231
4.8221
4.76018
4.69693
4.63272
4.56788
4.50268
4.4374
4.37226
4.30747
4.2432
4.1796
4.1168
4.05492
3.99402
3.93418
3.87543
3.81781
3.76133
3.70599
3.65178
3.59869
3.54668
3.49573
3.44579
3.39682
3.34878
3.30162
3.2553
3.20978
3.16501
3.12097
3.07762
3.03495
2.99295
2.95161
2.91096
2.87103
2.83187
2.79357
2.75624
2.72004
2.68518
2.65189
2.62037
2.59012
2.55906
0.107238
0.177636
0.218477
0.248828
0.274394
0.297403
0.318974
0.339777
0.360247
0.380688
0.401317
0.422296
0.443743
0.465743
0.48836
0.511636
0.535602
0.560279
0.585678
0.611807
0.638663
0.666245
0.694546
0.723558
0.753271
0.783676
0.814762
0.846518
0.878933
0.912001
0.945714
0.980067
1.01506
1.05069
1.08695
1.12386
1.16141
1.19961
1.23847
1.278
1.3182
1.35909
1.40068
1.44299
1.48602
1.5298
1.57434
1.61966
1.66576
1.71267
1.76041
1.80897
1.85838
1.90864
1.95977
2.01176
2.06463
2.11836
2.17296
2.22841
2.28472
2.34186
2.39981
2.45856
2.51807
2.57832
2.63928
2.70091
2.76316
2.826
2.88937
2.95322
3.01751
3.08217
3.14715
3.21239
3.27782
3.34339
3.40903
3.47468
3.54028
3.60578
3.67111
3.73623
3.80108
3.86561
3.92979
3.99358
4.05693
4.11983
4.18224
4.24415
4.30554
4.3664
4.42672
4.48651
4.54576
4.60448
4.66267
4.72033
4.77746
4.83404
4.89004
4.94541
5.0001
5.05399
5.10695
5.15881
5.20937
5.25836
5.30549
5.35043
5.39278
5.43214
5.46808
5.50015
5.52793
5.55101
5.56903
5.5817
5.58874
5.5899
5.58507
5.57413
5.55718
5.53436
5.50588
5.47201
5.43308
5.38946
5.34155
5.28977
5.23457
5.1764
5.11569
5.05288
4.98839
4.9226
4.85587
4.78851
4.72083
4.65306
4.58544
4.51816
4.4514
4.38529
4.31996
4.2555
4.19198
4.12946
4.06798
4.00755
3.94819
3.88989
3.83263
3.77641
3.72118
3.66691
3.61357
3.56112
3.5095
3.45869
3.40865
3.35933
3.31071
3.26278
3.21551
3.1689
3.12297
3.07774
3.03325
2.98958
2.94681
2.90508
2.86455
2.82546
2.78801
2.75242
2.7182
2.68366
0.111966
0.183661
0.225565
0.256792
0.283132
0.306845
0.329061
0.350456
0.371465
0.392397
0.413472
0.434856
0.456672
0.479012
0.501941
0.525509
0.549752
0.574694
0.600353
0.626739
0.653856
0.681706
0.710287
0.739597
0.769632
0.800389
0.831863
0.864047
0.896938
0.930532
0.964824
0.999813
1.0355
1.07189
1.10898
1.14678
1.1853
1.22454
1.26452
1.30524
1.34672
1.38897
1.43201
1.47585
1.52051
1.566
1.61234
1.65955
1.70765
1.75664
1.80655
1.85739
1.90917
1.96191
2.0156
2.07025
2.12587
2.18246
2.24
2.29849
2.35793
2.41828
2.47953
2.54165
2.60462
2.6684
2.73294
2.79822
2.86417
2.93075
2.99791
3.06557
3.13369
3.20219
3.27101
3.34008
3.40931
3.47865
3.548
3.61731
3.6865
3.75549
3.82422
3.89262
3.96062
4.02817
4.09522
4.16171
4.2276
4.29286
4.35746
4.42136
4.48455
4.54702
4.60877
4.66979
4.73011
4.78974
4.8487
4.90701
4.9647
5.0218
5.0783
5.13422
5.18951
5.24414
5.29802
5.35102
5.40297
5.45366
5.50283
5.55015
5.59527
5.63776
5.67719
5.71309
5.745
5.77248
5.79511
5.81253
5.8244
5.83048
5.83049
5.82426
5.81174
5.79307
5.7684
5.73796
5.70203
5.66097
5.61516
5.56502
5.51099
5.45352
5.39308
5.33011
5.26506
5.19833
5.13031
5.06135
4.99176
4.92184
4.85182
4.78193
4.71236
4.64326
4.57476
4.50699
4.44001
4.3739
4.30871
4.24446
4.18117
4.11885
4.05749
3.99707
3.93758
3.87897
3.82123
3.76431
3.70818
3.6528
3.59815
3.54418
3.49088
3.43824
3.38625
3.33491
3.28425
3.23429
3.1851
3.13674
3.08934
3.04303
2.998
2.95446
2.91263
2.87272
2.8343
2.79596
0.115084
0.187534
0.230146
0.261984
0.288878
0.313108
0.335805
0.357641
0.379053
0.400347
0.421741
0.443402
0.465455
0.487994
0.51109
0.534797
0.559154
0.584193
0.609935
0.636396
0.663587
0.691514
0.720183
0.749595
0.779754
0.810662
0.842324
0.87474
0.90791
0.941835
0.976514
1.01195
1.04814
1.0851
1.12284
1.16137
1.20069
1.24082
1.28177
1.32356
1.36619
1.40969
1.45407
1.49935
1.54555
1.59269
1.64079
1.68985
1.73991
1.79098
1.84306
1.89618
1.95035
2.00558
2.06187
2.11922
2.17764
2.23713
2.29767
2.35925
2.42187
2.48549
2.55009
2.61565
2.68212
2.74947
2.81765
2.88661
2.9563
3.02665
3.09761
3.1691
3.24106
3.31339
3.38604
3.45891
3.53191
3.60497
3.67799
3.75089
3.82357
3.89596
3.96797
4.03952
4.11053
4.18093
4.25066
4.31964
4.38783
4.45519
4.52166
4.58721
4.65183
4.71549
4.77819
4.83994
4.90076
4.96067
5.01972
5.07795
5.13542
5.19218
5.24829
5.30379
5.35871
5.41305
5.4668
5.51988
5.57219
5.62356
5.67377
5.72255
5.76958
5.81445
5.85673
5.89595
5.93161
5.96325
5.99039
6.01261
6.0295
6.04076
6.04611
6.04528
6.03794
6.0242
6.00418
5.97805
5.94606
5.9085
5.86573
5.81816
5.7662
5.71032
5.65099
5.58867
5.52382
5.45688
5.38826
5.31834
5.24746
5.17593
5.10403
5.032
4.96005
4.88835
4.81706
4.74629
4.67615
4.60671
4.53804
4.47017
4.40313
4.33694
4.2716
4.20709
4.14341
4.08053
4.01842
3.95706
3.89642
3.83647
3.77718
3.71853
3.66051
3.60311
3.54633
3.49019
3.43471
3.37994
3.32595
3.27282
3.22068
3.16967
3.11999
3.07185
3.02549
2.9811
2.93828
2.89594
0.116848
0.189526
0.232509
0.264712
0.291956
0.316519
0.339531
0.361656
0.383326
0.404843
0.426425
0.448236
0.470398
0.493007
0.516135
0.539841
0.564169
0.589156
0.614829
0.641213
0.668326
0.696186
0.724805
0.75417
0.784296
0.815202
0.846898
0.879395
0.912697
0.94681
0.981734
1.01747
1.05402
1.09143
1.1297
1.16885
1.20888
1.24981
1.29164
1.33441
1.37814
1.42284
1.46854
1.51525
1.56299
1.61179
1.66166
1.71262
1.7647
1.81789
1.87223
1.92771
1.98435
2.04217
2.10115
2.1613
2.22263
2.28511
2.34875
2.41352
2.4794
2.54638
2.61441
2.68346
2.7535
2.82446
2.89631
2.96898
3.04241
3.11653
3.19126
3.26654
3.34227
3.41838
3.49476
3.57133
3.64799
3.72463
3.80116
3.87748
3.95348
4.02907
4.10414
4.1786
4.25235
4.32532
4.39742
4.46858
4.53872
4.60778
4.67572
4.74249
4.80805
4.87238
4.93547
4.99734
5.05799
5.11748
5.17584
5.23315
5.2895
5.34497
5.39966
5.45366
5.50707
5.55997
5.61238
5.66433
5.71576
5.76658
5.81665
5.86576
5.91363
5.9599
6.00418
6.04597
6.08479
6.12013
6.15149
6.17836
6.20029
6.2169
6.22784
6.23283
6.23157
6.22353
6.209
6.1881
6.161
6.12794
6.08922
6.04521
5.99632
5.943
5.88572
5.82495
5.76118
5.69485
5.6264
5.55625
5.48477
5.41228
5.33911
5.2655
5.19169
5.11789
5.04424
4.9709
4.89797
4.82556
4.75372
4.68251
4.61198
4.54215
4.47302
4.40461
4.33689
4.26987
4.20352
4.13782
4.07275
4.0083
3.94443
3.88114
3.81843
3.75628
3.69473
3.63378
3.57347
3.51387
3.45505
3.39711
3.34017
3.28441
3.23001
3.1772
3.1262
3.07723
3.02992
2.98345
0.116895
0.189573
0.232772
0.265193
0.292636
0.317381
0.340558
0.362828
0.384619
0.406225
0.42786
0.449686
0.471825
0.494375
0.517411
0.540994
0.565172
0.589986
0.615471
0.641658
0.668575
0.696249
0.724706
0.753921
0.783924
0.81474
0.846386
0.878876
0.912223
0.94644
0.981537
1.01752
1.05441
1.09226
1.13107
1.17084
1.21157
1.25328
1.296
1.33978
1.38465
1.43061
1.47769
1.52591
1.5753
1.62588
1.67767
1.73067
1.78492
1.84041
1.89717
1.95519
2.01449
2.07507
2.13692
2.20004
2.26443
2.33007
2.39695
2.46504
2.53431
2.60473
2.67627
2.74887
2.8225
2.89709
2.97259
3.04892
3.12603
3.20382
3.28222
3.36114
3.44048
3.52016
3.60006
3.68009
3.76013
3.84008
3.91981
3.99921
4.07818
4.15659
4.23433
4.31129
4.38736
4.46245
4.53645
4.60929
4.68086
4.7511
4.81994
4.88733
4.95321
5.01755
5.08034
5.14157
5.20128
5.2595
5.31629
5.37174
5.42596
5.47907
5.53122
5.58254
5.63322
5.68338
5.73315
5.78262
5.83183
5.88076
5.92933
5.97745
6.02492
6.07144
6.11664
6.16008
6.20125
6.23964
6.27472
6.30591
6.33273
6.35474
6.37147
6.38257
6.38775
6.38658
6.37838
6.36362
6.34242
6.3149
6.2813
6.24194
6.19719
6.1475
6.0933
6.03509
5.97335
5.90856
5.84118
5.77163
5.70033
5.62763
5.55388
5.47935
5.40431
5.32897
5.25351
5.1781
5.10286
5.02789
4.95329
4.87913
4.80544
4.73228
4.65966
4.5876
4.5161
4.44515
4.37475
4.3049
4.23556
4.16674
4.09843
4.03062
3.96331
3.89652
3.83026
3.76457
3.6995
3.63512
3.57151
3.50878
3.44708
3.38657
3.32745
3.26995
3.21429
3.1607
3.10886
3.05823
0.116413
0.188772
0.231845
0.264209
0.291621
0.316346
0.339501
0.361741
0.383487
0.405034
0.426592
0.448319
0.470337
0.492741
0.515609
0.539003
0.562974
0.587565
0.612817
0.638764
0.665436
0.692857
0.721044
0.750031
0.77985
0.810531
0.842099
0.874579
0.907991
0.942358
0.977699
1.01403
1.05137
1.08973
1.12913
1.1696
1.21114
1.25377
1.29755
1.34253
1.38872
1.43616
1.48486
1.53485
1.58615
1.63879
1.69278
1.74814
1.80486
1.86296
1.92245
1.98331
2.04556
2.10918
2.17417
2.24051
2.30818
2.37718
2.44746
2.519
2.59176
2.6657
2.74077
2.81693
2.8941
2.97223
3.05125
3.13108
3.21164
3.29286
3.37463
3.45686
3.53945
3.62229
3.70528
3.78829
3.87122
3.95393
4.03631
4.11822
4.19954
4.28015
4.35992
4.43871
4.51643
4.59294
4.66813
4.74191
4.81417
4.88482
4.95378
5.02098
5.08635
5.14984
5.21145
5.27115
5.32897
5.38494
5.43913
5.49166
5.54265
5.59226
5.64067
5.68805
5.73469
5.78078
5.82654
5.87215
5.91773
5.96334
6.00881
6.05427
6.09974
6.14505
6.18987
6.23382
6.27642
6.31717
6.35552
6.39088
6.42262
6.45001
6.47264
6.49012
6.50208
6.50817
6.50772
6.50006
6.48581
6.46494
6.43759
6.40402
6.36459
6.31967
6.2697
6.21515
6.15651
6.09428
6.02894
5.96093
5.8907
5.81864
5.7451
5.67041
5.59484
5.51864
5.442
5.36511
5.2881
5.21112
5.13425
5.05758
4.98117
4.90508
4.82934
4.75398
4.67901
4.60444
4.53028
4.45652
4.38316
4.31021
4.23765
4.16551
4.09379
4.02252
3.95171
3.88143
3.81173
3.74269
3.67439
3.60698
3.54059
3.47541
3.41163
3.3495
3.28922
3.23106
3.17473
3.11997
0.115032
0.186665
0.229324
0.261453
0.288676
0.313224
0.336208
0.358274
0.37984
0.401194
0.422543
0.444045
0.46582
0.487965
0.510558
0.533665
0.557339
0.581631
0.606585
0.632246
0.658653
0.685848
0.713868
0.742748
0.772523
0.803232
0.834909
0.867583
0.901285
0.936045
0.971896
1.00887
1.04701
1.08631
1.12677
1.16843
1.21129
1.25537
1.30071
1.34738
1.39543
1.44487
1.49574
1.54805
1.60184
1.65713
1.71393
1.77224
1.83204
1.89333
1.9561
2.02034
2.08604
2.15317
2.22172
2.29165
2.36295
2.43557
2.50947
2.58462
2.66097
2.73845
2.81703
2.89662
2.97717
3.05861
3.14084
3.22381
3.30741
3.39155
3.47615
3.56109
3.64627
3.73158
3.8169
3.90211
3.98709
4.07171
4.15583
4.23932
4.32205
4.40388
4.48467
4.56428
4.6426
4.71948
4.7948
4.86845
4.9403
5.01027
5.07823
5.14411
5.20782
5.26932
5.32857
5.38555
5.44027
5.49275
5.54306
5.59139
5.63785
5.68262
5.72592
5.76791
5.80869
5.84876
5.88847
5.92814
5.96803
6.00831
6.04901
6.09065
6.13307
6.17609
6.21944
6.26279
6.30573
6.34779
6.38841
6.42707
6.46313
6.49622
6.5254
6.55011
6.56986
6.58422
6.59276
6.59439
6.58837
6.57536
6.55553
6.52905
6.49623
6.45738
6.4129
6.36323
6.30888
6.25035
6.18812
6.12267
6.05448
5.98395
5.9115
5.83745
5.76212
5.68577
5.60862
5.53088
5.4527
5.37424
5.29561
5.21691
5.13823
5.05963
4.98116
4.90285
4.82475
4.74688
4.66924
4.59185
4.51472
4.43786
4.36129
4.28503
4.20909
4.13351
4.05833
3.98362
3.90943
3.83586
3.76302
3.69104
3.62008
3.55033
3.48199
3.41531
3.3505
3.28784
3.22709
3.1683
0.11239
0.183066
0.225188
0.256924
0.28381
0.30805
0.330745
0.352539
0.373845
0.394948
0.416052
0.437314
0.458857
0.480781
0.503167
0.526088
0.549604
0.573773
0.598648
0.624281
0.650723
0.678022
0.706222
0.735373
0.765523
0.796727
0.829047
0.862486
0.897079
0.93287
0.969898
1.0082
1.04777
1.08857
1.13069
1.17419
1.21909
1.26548
1.31335
1.36274
1.41368
1.46618
1.52027
1.57595
1.63324
1.69213
1.75262
1.81468
1.8783
1.94345
2.0101
2.07823
2.14779
2.21876
2.29109
2.36474
2.43967
2.51583
2.59316
2.67162
2.75114
2.83167
2.91313
2.99546
3.07859
3.16243
3.24692
3.33196
3.41746
3.50334
3.5895
3.67583
3.76223
3.84858
3.93478
4.0207
4.10622
4.1912
4.27551
4.35902
4.44158
4.52305
4.60328
4.68214
4.7595
4.8352
4.90912
4.98112
5.05107
5.11887
5.18439
5.24751
5.30814
5.36624
5.42176
5.47467
5.52497
5.57267
5.61771
5.66022
5.70044
5.73862
5.77502
5.80992
5.84406
5.8776
5.91086
5.94422
5.97805
6.0126
6.04784
6.08445
6.1225
6.16193
6.20259
6.24426
6.28658
6.32913
6.37144
6.413
6.45311
6.49156
6.52658
6.5579
6.585
6.60725
6.62419
6.63559
6.63981
6.63681
6.62615
6.60843
6.58368
6.5522