/*--------------------------------*- C++ -*----------------------------------*\
  =========                 |
  \\      /  F ield         | OpenFOAM: The Open Source CFD Toolbox
   \\    /   O peration     | Website:  https://openfoam.org
    \\  /    A nd           | Version:  9
     \\/     M anipulation  |
\*---------------------------------------------------------------------------*/
FoamFile
{
    format      ascii;
    class       volScalarField;
    location    "8.15";
    object      nut;
}
// * * * * * * * * * * * * * * * * * * * * * * * * * * * * * * * * * * * * * //

dimensions      [0 2 -1 0 0 0 0];

internalField   nonuniform List<scalar> 
2268
(
9.60586e-06
1.13184e-05
1.37426e-05
1.53861e-05
1.66214e-05
1.75941e-05
1.83783e-05
1.90177e-05
1.95393e-05
1.99679e-05
2.03322e-05
2.06564e-05
2.09475e-05
2.11753e-05
2.12595e-05
2.10584e-05
2.0512e-05
1.96546e-05
1.84842e-05
1.707e-05
1.565e-05
1.32764e-05
9.21072e-06
2.21794e-05
9.26337e-05
0.00012612
0.000147044
0.000162033
0.000173433
0.00018235
0.000189406
0.000194984
0.000199385
0.000202893
0.000205717
0.000207862
0.000209033
0.000208597
0.000205501
0.0001969
0.000183574
0.000168064
0.00015342
0.000141519
0.000106304
2.92169e-05
2.65761e-05
0.000156371
0.000233512
0.000283187
0.000318934
0.000346143
0.000367432
0.00038427
0.000397553
0.000407975
0.0004162
0.000422735
0.000427664
0.000430406
0.000429597
0.000422875
0.000406106
0.000380357
0.000349828
0.000316015
0.000274451
0.000184645
3.46432e-05
2.98354e-05
0.000201015
0.000317961
0.000396197
0.000453285
0.000497045
0.000531442
0.000558746
0.000580365
0.000597375
0.000610777
0.000621333
0.000629212
0.000633635
0.000632697
0.000623123
0.00060011
0.000564793
0.000521295
0.000467218
0.000389628
0.000248139
3.93669e-05
3.24245e-05
0.000234655
0.000385938
0.000490612
0.00056812
0.000628007
0.000675327
0.000713043
0.000743032
0.000766714
0.000785361
0.000799932
0.000810675
0.000816704
0.00081579
0.000804175
0.000776589
0.000733874
0.000678995
0.000605312
0.000492595
0.000301835
4.41421e-05
3.46074e-05
0.000261457
0.000442186
0.000570868
0.000667484
0.000742729
0.000802494
0.00085032
0.000888501
0.000918754
0.00094257
0.000961053
0.000974528
0.00098208
0.000981334
0.00096837
0.000937654
0.000889341
0.000824841
0.000733788
0.00058982
0.000351956
4.92253e-05
3.65453e-05
0.000283654
0.000489845
0.000640239
0.000754594
0.000844328
0.000915955
0.000973496
0.00101961
0.00105626
0.00108513
0.0011074
0.0011235
0.00113255
0.00113214
0.00111836
0.00108585
0.00103367
0.00096179
0.000857115
0.000688301
0.000406786
5.53323e-05
3.83839e-05
0.000302565
0.000531098
0.000701168
0.000831952
0.000935301
0.00101818
0.001085
0.00113875
0.00118163
0.00121541
0.00124138
0.00126003
0.0012706
0.00127074
0.00125665
0.00122349
0.0011693
0.00109269
0.00097948
0.000796317
0.000480784
6.56947e-05
1.10602e-05
1.62484e-05
1.87978e-05
1.97521e-05
2.02482e-05
2.04804e-05
2.05333e-05
2.051e-05
2.01247e-05
1.92908e-05
1.81593e-05
1.67861e-05
1.60466e-05
1.60009e-05
1.57571e-05
1.50266e-05
1.32357e-05
1.09996e-05
1.01249e-05
3.4892e-05
0.000126524
0.0001694
0.000189909
0.000199473
0.000203564
0.000204662
0.000202716
0.00019644
0.000185221
0.000170009
0.000154519
0.000147916
0.000152712
0.000151511
0.000140877
0.000117514
8.07037e-05
2.41479e-05
3.81539e-05
0.000218734
0.000323889
0.000377732
0.000403726
0.000414911
0.000417863
0.00041378
0.000400362
0.000377459
0.000351289
0.000326836
0.00031344
0.000311215
0.000302505
0.000275582
0.00021933
0.000133101
2.91953e-05
4.08111e-05
0.000281855
0.000450715
0.000541782
0.000587313
0.000607554
0.00061338
0.000607939
0.00058938
0.000558241
0.000525004
0.000494512
0.000472659
0.000457737
0.000436161
0.000390669
0.000303755
0.000174811
3.33873e-05
4.48278e-05
0.000328848
0.000558306
0.00068551
0.000750622
0.000780426
0.000789682
0.000783712
0.000761773
0.000725686
0.000687622
0.000651785
0.000620725
0.000591932
0.000555397
0.000491559
0.000379281
0.000215958
3.70371e-05
5.00493e-05
0.000377493
0.000657678
0.00081558
0.000897962
0.000936565
0.000949205
0.00094326
0.000919408
0.000880548
0.000838889
0.00079778
0.000757464
0.000715196
0.000663618
0.000582269
0.000449355
0.000258049
4.03358e-05
5.72647e-05
0.000438476
0.000757733
0.000937954
0.00103359
0.0010793
0.00109476
0.00108903
0.00106426
0.00102393
0.000979301
0.000932919
0.000883675
0.000828802
0.000762642
0.000664268
0.000513177
0.000298322
4.34144e-05
6.96824e-05
0.000522104
0.000865079
0.00105718
0.00116083
0.00121127
0.00122886
0.00122326
0.00119805
0.00115698
0.00110966
0.00105805
0.00100034
0.000933805
0.000853229
0.000738139
0.000568728
0.000330266
4.64832e-05
4.07326e-05
0.000328117
0.00058704
0.000784764
0.000939283
0.00106272
0.00116247
0.00124344
0.00130908
0.0013619
0.00140376
0.00143591
0.00145889
0.00147223
0.00147365
0.00145981
0.00142703
0.00137243
0.00129275
0.00117531
0.000995709
0.000723642
0.000366255
4.38046e-05
0.000357243
0.000650701
0.000880122
0.00106219
0.00120912
0.00132862
0.00142618
0.00150598
0.00157096
0.00162298
0.00166309
0.0016918
0.00170869
0.0017125
0.00170117
0.00167208
0.00162261
0.0015494
0.00144445
0.00129442
0.0010847
0.000817088
4.72074e-05
0.00038484
0.000711144
0.000967822
0.00117349
0.00134068
0.00147686
0.00158829
0.00168017
0.00175608
0.00181769
0.00186574
0.00190033
0.00192147
0.00192905
0.00192217
0.00189949
0.0018594
0.00179939
0.00171499
0.00160042
0.0014528
0.00128434
5.2001e-05
0.000414797
0.000775233
0.00105474
0.00128
0.00146449
0.00161404
0.00173596
0.00183719
0.00192237
0.00199278
0.00204881
0.00209
0.00211608
0.00212839
0.00212711
0.00211203
0.00208264
0.00203723
0.0019739
0.00189095
0.00179192
0.001692
5.83806e-05
0.000448281
0.000841164
0.00114191
0.00137786
0.00157287
0.00173489
0.00186834
0.00197898
0.00207293
0.00215179
0.00221618
0.00226494
0.00229563
0.0023118
0.00231577
0.00230811
0.00228841
0.00225709
0.0022133
0.00215582
0.00209154
0.00203173
5.6339e-05
0.000435174
0.000854675
0.00117641
0.0014296
0.00164428
0.00182392
0.0019729
0.00209695
0.00220166
0.00228995
0.00236328
0.00242077
0.00246019
0.0024825
0.00249118
0.0024894
0.00247666
0.0024545
0.00242819
0.00239339
0.00235456
0.0023195
0.000279646
0.00058687
0.000922812
0.00122273
0.0014837
0.00170841
0.0019011
0.00206319
0.00219913
0.00231402
0.00241094
0.0024919
0.00255703
0.00260457
0.00263477
0.00264979
0.00265407
0.0026495
0.00263731
0.00262272
0.00260562
0.00258736
0.00257223
0.000295031
0.000599214
0.000956335
0.00126396
0.00153354
0.00176743
0.00196987
0.00214256
0.00228888
0.0024131
0.00251844
0.00260727
0.0026804
0.00273633
0.00277527
0.00279917
0.00281153
0.00281552
0.00281346
0.00280913
0.0028045
0.00280021
0.00279707
0.000295346
0.000595767
0.00097287
0.00129649
0.00157716
0.00182056
0.00203171
0.0022135
0.00236921
0.0025025
0.00261647
0.00271361
0.00279507
0.00285987
0.002908
0.00294148
0.00296319
0.00297612
0.00298318
0.00298752
0.00299128
0.00299514
0.00299914
0.000294985
0.000590266
0.000985092
0.00132375
0.00161571
0.00186863
0.00208829
0.00227868
0.00244328
0.00258537
0.00270783
0.00281307
0.00290245
0.00297569
0.00303303
0.00307622
0.00310741
0.00312916
0.00314428
0.00315564
0.00316528
0.00317403
0.00318182
0.000294264
0.000588305
0.000996711
0.0013477
0.0016503
0.00191268
0.00214098
0.00233976
0.00251289
0.00266338
0.00279391
0.00290676
0.00300347
0.00308445
0.00315029
0.00320241
0.00324243
0.00327243
0.00329481
0.00331213
0.00332631
0.00333816
0.00334766
0.000294863
0.00059191
0.00100773
0.00136963
0.00168224
0.00195378
0.00219067
0.0023978
0.00257901
0.00273734
0.00287533
0.00299524
0.00309871
0.00318668
0.00326002
0.00331992
0.00336769
0.00340502
0.00343386
0.00345643
0.00347437
0.00348845
0.00349865
0.000294902
0.00059352
0.0010181
0.0013902
0.00171247
0.00199293
0.00223819
0.00245332
0.00264219
0.00280778
0.00295259
0.00307892
0.00318854
0.00328271
0.00336249
0.00342897
0.00348336
0.00352701
0.0035615
0.00358864
0.00360982
0.00362569
0.00363623
6.94684e-05
0.00059012
0.00102791
0.00140984
0.00174156
0.00203078
0.00228415
0.00250682
0.00270268
0.00287479
0.00302577
0.0031579
0.00327304
0.00337264
0.00345791
0.00352999
0.00358994
0.00363893
0.00367823
0.00370931
0.00373328
0.00375069
0.00376155
0.000295163
0.000595789
0.00103721
0.00142891
0.00176994
0.00206771
0.00232888
0.0025586
0.00276085
0.00293885
0.00309533
0.00323262
0.00335263
0.00345693
0.00354685
0.00362354
0.00368807
0.00374145
0.00378476
0.00381917
0.00384556
0.00386438
0.0038757
0.00029524
0.000595975
0.00104631
0.00144776
0.00179796
0.00210401
0.00237256
0.00260882
0.0028169
0.00300021
0.00316157
0.00330338
0.00342761
0.00353591
0.00362968
0.00371015
0.00377835
0.00383527
0.00388186
0.00391904
0.00394754
0.00396774
0.00397973
0.000295636
0.000597438
0.00105566
0.00146674
0.00182587
0.00213984
0.00241529
0.00265756
0.00287095
0.00305898
0.00322462
0.00337031
0.00349811
0.00360973
0.00370667
0.00379016
0.0038613
0.00392105
0.00397029
0.0040098
0.00404018
0.0040618
0.00407474
0.000295328
0.000594755
0.00106515
0.00148599
0.00185379
0.00217528
0.00245714
0.0027049
0.00292303
0.00311521
0.0032845
0.00343345
0.00356418
0.00367851
0.00377797
0.00386387
0.00393736
0.00399939
0.00405081
0.00409234
0.0041245
0.00414764
0.00416187
0.000295113
0.000592699
0.00107493
0.00150556
0.00188175
0.00221033
0.00249812
0.00275083
0.00297314
0.00316888
0.00334121
0.0034928
0.00362587
0.00374233
0.00384377
0.00393159
0.00400697
0.00407089
0.00412421
0.00416761
0.00420158
0.00422646
0.00424235
6.95396e-05
0.000588817
0.00108508
0.00152541
0.00190972
0.00224498
0.00253821
0.00279535
0.00302127
0.00321996
0.00339475
0.0035484
0.00368327
0.00380135
0.00390434
0.0039937
0.00407066
0.00413626
0.00419137
0.00423666
0.00427261
0.00429954
0.00431757
6.95235e-05
0.000586866
0.00109553
0.00154549
0.00193766
0.00227919
0.00257738
0.00283841
0.00306737
0.00326845
0.00344513
0.00360033
0.00373653
0.00385582
0.00396002
0.00405067
0.00412907
0.00419631
0.00425327
0.00430064
0.0043389
0.00436834
0.00438906
0.000295422
0.00059137
0.00110631
0.00156578
0.00196551
0.0023129
0.00261555
0.00287994
0.00311141
0.00331435
0.00349243
0.00364873
0.00378587
0.00390609
0.0040113
0.00410314
0.00418298
0.00425198
0.00431104
0.00436085
0.00440189
0.00443442
0.0044585
6.95974e-05
0.000587814
0.00111743
0.00158624
0.00199319
0.002346
0.00265264
0.00291989
0.00315337
0.00335771
0.00353677
0.00369382
0.00383163
0.0039526
0.00405876
0.00415184
0.00423331
0.00430437
0.00436594
0.00441873
0.00446317
0.0044995
0.00452771
6.95785e-05
0.000586726
0.00112898
0.00160683
0.0020206
0.0023784
0.00268855
0.0029582
0.00319326
0.00339859
0.00357831
0.00373586
0.00387422
0.00399591
0.00410311
0.00419766
0.00428111
0.00435469
0.00441936
0.0044758
0.00452441
0.00456536
0.00459855
6.96309e-05
0.000588825
0.00114079
0.00162743
0.00204763
0.00240995
0.00272319
0.00299482
0.00323108
0.00343713
0.00361728
0.00377523
0.00391412
0.00403666
0.00414516
0.00424157
0.0043275
0.00440424
0.00447275
0.00453367
0.00458735
0.00463385
0.00467297
0.000295134
0.000592306
0.00115302
0.00164802
0.00207414
0.00244053
0.00275643
0.00302971
0.0032669
0.00347346
0.00365396
0.00381233
0.00395191
0.00407557
0.00418578
0.00428459
0.00437369
0.00445439
0.00452762
0.00459398
0.00465373
0.0047068
0.00475287
6.97199e-05
0.000593785
0.00116608
0.00166855
0.00209996
0.00246995
0.00278816
0.0030628
0.00330075
0.00350776
0.00368866
0.00384761
0.00398817
0.0041134
0.00422589
0.00432782
0.00442091
0.00450649
0.00458547
0.00465835
0.00472527
0.00478602
0.00484008
0.000295745
0.000601988
0.00117942
0.00168856
0.00212476
0.00249797
0.00281819
0.00309404
0.0033327
0.00354021
0.00372169
0.00388154
0.00402352
0.00415089
0.00426639
0.00437228
0.00447034
0.00456188
0.00464776
0.00472834
0.00480363
0.0048732
0.00493635
0.000296065
0.000605316
0.0011914
0.00170737
0.00214811
0.00252424
0.00284632
0.00312331
0.00336275
0.00357097
0.00375336
0.00391455
0.00405855
0.00418878
0.00430813
0.00441897
0.00452309
0.0046218
0.00471582
0.00480541
0.00489033
0.00496995
0.00504332
0.000295525
0.000608275
0.00120353
0.00172498
0.00216961
0.0025484
0.00287224
0.00315047
0.0033909
0.00360017
0.00378392
0.00394705
0.00409376
0.00422769
0.00435187
0.00446875
0.00458017
0.00468735
0.00479091
0.00489089
0.00498682
0.00507777
0.0051625
6.96249e-05
0.000609187
0.00121422
0.00174055
0.00218868
0.00256994
0.0028956
0.00317529
0.00341711
0.00362791
0.00381361
0.00397935
0.00412958
0.00426813
0.0043982
0.00452233
0.00464237
0.00475947
0.00487408
0.00498598
0.00509439
0.00519804
0.00529531
6.98e-05
0.000611777
0.00122264
0.00175336
0.00220455
0.00258819
0.00291587
0.00319745
0.0034412
0.00365419
0.00384255
0.00401168
0.00416628
0.00431045
0.00444754
0.00458021
0.00471031
0.00483891
0.00496623
0.00509175
0.00521428
0.00533211
0.00544319
6.96557e-05
0.000613417
0.00122874
0.00176244
0.00221606
0.00260209
0.00293226
0.00321643
0.00346291
0.00367889
0.00387072
0.00404407
0.00420396
0.00435474
0.00450002
0.00464257
0.0047843
0.00492613
0.00506805
0.00520913
0.00534767
0.00548137
0.00560763
6.98635e-05
0.00061512
0.00123086
0.00176576
0.00222133
0.00261013
0.00294369
0.00323155
0.00348183
0.00370178
0.00389797
0.00407639
0.00424244
0.00440082
0.00455544
0.00470927
0.00486428
0.0050213
0.00518
0.00533896
0.00549579
0.00564738
0.00579037
6.98897e-05
0.000612916
0.00122591
0.0017601
0.00221745
0.00261013
0.00294872
0.00324191
0.00349744
0.00372251
0.00392398
0.00410828
0.00428128
0.00444815
0.0046132
0.0047797
0.00494976
0.00512416
0.00530225
0.00548197
0.00565997
0.00583201
0.00599361
6.96815e-05
0.000604557
0.00120982
0.00174045
0.00220009
0.00259906
0.00294551
0.00324652
0.00350915
0.00374066
0.00394832
0.00413918
0.00431975
0.0044958
0.0046722
0.00485267
0.00503962
0.00523389
0.00543455
0.00563876
0.00584182
0.00603777
0.00622033
6.97008e-05
0.000591181
0.0011746
0.00169797
0.00216268
0.00257294
0.00293199
0.00324437
0.00351644
0.00375577
0.00397043
0.00416831
0.00435679
0.00454244
0.00473082
0.00492633
0.00513193
0.00534881
0.00557596
0.00580967
0.00604338
0.00626821
0.00647489
0.000296173
0.000557985
0.0011007
0.00161712
0.00209587
0.00252722
0.00290634
0.00323486
0.00351903
0.00376752
0.00398971
0.00419475
0.0043911
0.00458629
0.0047868
0.00499795
0.00522364
0.00546594
0.00572429
0.00599444
0.00626728
0.00652889
0.00676398
0.000296004
0.000459969
0.00094926
0.00147481
0.00198915
0.00245846
0.00286814
0.00321836
0.0035172
0.00377577
0.00400558
0.00421746
0.00442115
0.00462526
0.00483734
0.00506389
0.00531027
0.00558025
0.00587504
0.0061911
0.00651681
0.00682919
0.00709842
8.78952e-05
0.000256796
0.000684324
0.00125321
0.00183847
0.00236858
0.00282034
0.00319706
0.00351205
0.00378074
0.00401761
0.00423544
0.00444536
0.00465708
0.00487923
0.00511967
0.00538567
0.00568385
0.00601937
0.00639324
0.00679493
0.00718754
0.00749644
0.000189461
0.000121644
0.000371275
0.000974816
0.00166179
0.00227159
0.00277186
0.00317575
0.00350575
0.00378307
0.00402553
0.00424784
0.00446232
0.00467961
0.00490928
0.00516044
0.00544237
0.00576531
0.00614116
0.00658296
0.00709757
0.00764789
0.0079889
0.000413163
0.000138211
0.000177189
0.000736971
0.00151824
0.00220014
0.00273865
0.0031616
0.00350125
0.00378374
0.00402936
0.00425409
0.00447099
0.00469124
0.00492494
0.00518197
0.00547299
0.0058111
0.00621511
0.00671663
0.00737803
0.00834032
0.00862096
7.15222e-05
6.53649e-05
6.47379e-05
6.96052e-05
0.000603227
0.000572142
0.00057314
0.00060436
0.00118173
0.00115144
0.00115098
0.0011798
0.00164242
0.00162581
0.00162508
0.00164056
0.00200623
0.00199963
0.0020009
0.00200882
0.00230291
0.00229897
0.00230297
0.00231073
0.00256667
0.00256647
0.00256963
0.00257449
0.00279749
0.00279937
0.00280229
0.0028053
0.00300269
0.00300527
0.0030077
0.00300938
0.00318665
0.00318926
0.00319096
0.00319136
0.00335248
0.0033546
0.00335536
0.00335452
0.00350281
0.00350418
0.00350391
0.00350183
0.00363962
0.00364021
0.00363899
0.0036358
0.00376433
0.00376434
0.00376237
0.00375832
0.00387816
0.00387783
0.00387541
0.00387081
0.00398224
0.00398184
0.00397926
0.00397444
0.00407765
0.00407746
0.00407503
0.00407032
0.00416555
0.00416584
0.00416387
0.0041596
0.00424721
0.00424826
0.00424705
0.00424355
0.00432403
0.00432615
0.00432602
0.00432362
0.0043976
0.00440111
0.0044024
0.00440145
0.00446966
0.00447492
0.004478
0.00447887
0.00454207
0.00454946
0.00455471
0.0045578
0.00461677
0.0046267
0.00463454
0.00464026
0.00469572
0.00470862
0.00471949
0.00472824
0.00478086
0.00479719
0.0048115
0.0048237
0.00487406
0.00489426
0.00491245
0.00492851
0.00497706
0.00500158
0.00502407
0.00504438
0.00509148
0.00512077
0.00514795
0.00517289
0.00521884
0.00525331
0.00528557
0.00531547
0.00536055
0.0054006
0.00543828
0.00547343
0.00551802
0.00556403
0.00560744
0.00564808
0.00569275
0.00574507
0.00579447
0.00584075
0.0058865
0.00594544
0.00600099
0.00605295
0.00610145
0.00616725
0.00622901
0.00628653
0.00634057
0.00641335
0.00648115
0.00654382
0.00660805
0.00668766
0.00676091
0.00682782
0.00691003
0.00699567
0.007073
0.00714237
0.00725562
0.00734502
0.00742346
0.00749197
0.00765811
0.00774564
0.00781917
0.00788096
0.00813491
0.00820782
0.00826517
0.00831087
0.00869962
0.00873326
0.00875702
0.00877459
0.000360412
0.000754133
0.00105475
0.00124392
0.0013519
0.00140623
0.00142556
0.00141985
0.00139397
0.00135199
0.00130038
0.00124042
0.00116993
0.00108613
0.000982062
0.000840368
0.000643576
0.000369975
4.93539e-05
0.000817911
0.00110834
0.00133896
0.0014966
0.00159242
0.00164214
0.00165897
0.00165122
0.00162359
0.00157955
0.00152241
0.00145213
0.0013661
0.0012603
0.00112622
0.00095173
0.000719202
0.000404599
5.11968e-05
0.00128532
0.00146822
0.00162784
0.00174579
0.00182114
0.00186038
0.00187089
0.00185834
0.00182666
0.00177882
0.00171557
0.0016341
0.0015322
0.00140636
0.00124737
0.00104414
0.000778682
0.000427105
5.17684e-05
0.00169265
0.00180058
0.00190344
0.00198434
0.0020372
0.002063
0.00206473
0.00204537
0.00200773
0.0019544
0.00188404
0.00179107
0.00167312
0.00153078
0.00135152
0.00112476
0.000831954
0.0004576
0.000236355
0.00203431
0.0020951
0.00215942
0.00220944
0.00224083
0.00225229
0.00224386
0.00221641
0.00217141
0.00210904
0.00202772
0.00192489
0.00179516
0.00163587
0.00144191
0.00119848
0.000883773
0.000475487
5.81019e-05
0.00232727
0.0023592
0.00239566
0.00242167
0.002434
0.00243079
0.00241033
0.00237207
0.00231614
0.002242
0.00214937
0.00203619
0.00189832
0.00173338
0.00152972
0.00127268
0.000941808
0.000503285
5.86749e-05
0.00258333
0.00259707
0.00261174
0.00261862
0.00261441
0.00259721
0.00256411
0.00251253
0.00244361
0.00235704
0.00225305
0.00213247
0.00198865
0.00181186
0.00159989
0.00133648
0.00100228
0.0005837
0.000294754
0.00280942
0.00281109
0.00280873
0.00279967
0.00278159
0.00275169
0.00270491
0.00264001
0.00255776
0.00245812
0.00234129
0.00220696
0.0020487
0.00186007
0.00163736
0.00136542
0.00101884
0.0005629
6.97463e-05
0.00301011
0.00300356
0.00298964
0.00296798
0.00293765
0.00289516
0.00283535
0.00275766
0.00266231
0.00254891
0.00241685
0.00226472
0.00208855
0.00188443
0.00164787
0.00136529
0.00101089
0.000552847
0.00029567
0.0031894
0.00317703
0.00315508
0.00312375
0.00308276
0.00302847
0.00295678
0.00286705
0.00275899
0.00263168
0.00248362
0.0023126
0.00211589
0.00189279
0.00163878
0.0013445
0.000987875
0.000543276
0.000295346
0.00335019
0.00333341
0.00330545
0.00326665
0.00321664
0.00315212
0.00307004
0.00296957
0.00284985
0.00270936
0.00254589
0.00235655
0.00213873
0.00189373
0.00162078
0.00131339
0.00095776
0.000538787
0.00029526
0.00349513
0.00347457
0.00344212
0.00339743
0.00334004
0.00326718
0.00317658
0.00306703
0.00293718
0.00278502
0.00260784
0.00240236
0.00216561
0.00189818
0.00160274
0.00127791
0.000919077
0.000525113
0.000295096
0.00362708
0.00360324
0.00356707
0.00351791
0.00345473
0.00337544
0.00327819
0.00316143
0.0030234
0.00286175
0.00267343
0.00245486
0.00220279
0.00191628
0.00159825
0.00125229
0.000884658
0.000505909
6.9528e-05
0.00374804
0.00372166
0.0036826
0.00362999
0.00356259
0.0034787
0.00337659
0.00325454
0.00311053
0.00294197
0.00274565
0.00251783
0.00225489
0.00195448
0.00161764
0.00124977
0.000866121
0.00049645
0.000295052
0.00385953
0.00383144
0.0037904
0.00373544
0.00366528
0.00357841
0.00347315
0.0033477
0.00319989
0.00302708
0.00282598
0.00259284
0.00232374
0.00201541
0.00166676
0.00128133
0.000875182
0.000481491
0.000293566
0.00396273
0.00393384
0.00389179
0.00383559
0.00376403
0.00367564
0.0035688
0.00344169
0.0032921
0.0031174
0.00291439
0.00267938
0.00240841
0.00209779
0.00174493
0.00135027
0.000923047
0.000482834
6.89387e-05
0.00405877
0.00402995
0.00398787
0.00393156
0.0038598
0.0037712
0.00366418
0.0035369
0.00338721
0.00321252
0.00300977
0.0027754
0.00250554
0.00219625
0.00184395
0.00144597
0.00100177
0.000518317
0.000293081
0.00414878
0.00412092
0.00407977
0.00402436
0.00395351
0.00386585
0.00375981
0.00363359
0.00348505
0.00331169
0.00311052
0.00287809
0.00261047
0.00230332
0.00195182
0.00155
0.00108891
0.000561299
6.99895e-05
0.00423403
0.004208
0.00416871
0.00411517
0.0040462
0.00396045
0.00385634
0.00373207
0.00358553
0.00341422
0.0032152
0.00298492
0.0027192
0.00241295
0.00205968
0.00165019
0.00117071
0.000608445
7.29348e-05
0.00431599
0.00429265
0.00425611
0.00420533
0.00413911
0.00405606
0.00395461
0.00383292
0.00368886
0.00351989
0.00332298
0.00309439
0.00282945
0.00252212
0.00216412
0.00174317
0.00124354
0.000648858
7.65056e-05
0.00439632
0.00437654
0.00434359
0.0042964
0.00423369
0.00415403
0.00405579
0.00393708
0.0037957
0.00362902
0.00343384
0.00320612
0.00294065
0.00263039
0.0022655
0.00183256
0.00131245
0.000686186
7.95765e-05
0.00447686
0.00446151
0.00443299
0.00439015
0.00433163
0.00425592
0.00416131
0.00404581
0.00390712
0.00374248
0.00354847
0.00332073
0.00305344
0.00273902
0.00236652
0.00192053
0.00137952
0.000722306
8.25334e-05
0.00455956
0.00454951
0.00452624
0.00448847
0.00443475
0.00436346
0.00427278
0.00416062
0.00402453
0.00386158
0.0036681
0.00343953
0.00316965
0.00285004
0.00246877
0.00200883
0.00144651
0.000758366
8.57062e-05
0.00464645
0.00464258
0.00462533
0.00459331
0.00454495
0.00447849
0.00439198
0.0042832
0.00414956
0.00398796
0.00379456
0.00356442
0.00329093
0.00296505
0.00257394
0.00209919
0.00151494
0.000795262
8.92657e-05
0.00473954
0.0047427
0.00473224
0.00470661
0.00466409
0.00460281
0.00452068
0.00441535
0.00428406
0.0041235
0.0039296
0.00369711
0.00341906
0.00308583
0.00268379
0.00219321
0.00158616
0.000833951
9.31533e-05
0.00484079
0.00485181
0.00484884
0.00483016
0.00479395
0.00473819
0.00466065
0.00455882
0.00442975
0.00426992
0.004075
0.00383944
0.00355587
0.0032142
0.00280002
0.00229242
0.0016614
0.000875268
9.72893e-05
0.00495202
0.00497169
0.00497685
0.00496567
0.00493616
0.00488621
0.00481345
0.00471517
0.00458825
0.00442892
0.00423255
0.00399325
0.00370327
0.003352
0.00292436
0.00239828
0.00174175
0.00091978
0.000101656
0.00507493
0.00510396
0.00511782
0.00511456
0.00509211
0.00504822
0.00498041
0.00488581
0.00476105
0.00460209
0.00440396
0.00416038
0.00386316
0.00350115
0.00305858
0.00251228
0.00182826
0.000968066
0.000106213
0.00521104
0.00525003
0.00527305
0.00527805
0.00526291
0.00522531
0.00516265
0.0050719
0.00494945
0.00479092
0.00459093
0.00434271
0.00403754
0.00366367
0.00320458
0.002636
0.00192199
0.00102054
0.000111112
0.0053617
0.00541113
0.00544362
0.00545709
0.00544943
0.00541829
0.00536101
0.00527438
0.00515454
0.00499673
0.00479506
0.00454214
0.00422854
0.00384178
0.00336449
0.00277127
0.00202419
0.00107754
0.000116681
0.00552814
0.00558833
0.00563041
0.0056524
0.00565226
0.0056277
0.00557603
0.00549392
0.00537722
0.00522073
0.00501792
0.00476062
0.00443849
0.00403804
0.00354086
0.00292032
0.00213648
0.00113985
0.000123129
0.00571155
0.00578257
0.00583413
0.00586446
0.0058717
0.00585375
0.00580794
0.00573087
0.00561809
0.0054639
0.00526101
0.00500024
0.00467
0.00425543
0.00373677
0.00308595
0.00226104
0.00120884
0.000130463
0.00591308
0.00599471
0.00605533
0.00609352
0.0061078
0.00609634
0.00605663
0.00598523
0.00587744
0.005727
0.00552572
0.00526315
0.00492603
0.00449761
0.00395616
0.0032718
0.00240065
0.00128619
0.000138655
0.00613403
0.00622563
0.00629444
0.00633963
0.0063603
0.00635504
0.00632162
0.00625664
0.00615519
0.00601046
0.00581326
0.00555157
0.00521
0.00476907
0.00420415
0.00348277
0.00255898
0.00137367
0.00014786
0.00637587
0.00647621
0.00655176
0.00660263
0.00662867
0.00662907
0.006602
0.00654424
0.00645076
0.00631424
0.00612449
0.00586769
0.00552572
0.0050754
0.00448766
0.00372586
0.00274136
0.00147374
0.000158302
0.00664038
0.00674738
0.0068275
0.00688211
0.00691205
0.00691728
0.00689647
0.00684669
0.00676297
0.00663768
0.00645968
0.00621334
0.00587731
0.00542346
0.00481609
0.00401145
0.00295621
0.00159034
0.000170276
0.00692969
0.00704009
0.00712165
0.00717737
0.00720929
0.00721816
0.00720326
0.00716211
0.00708998
0.00697923
0.00681816
0.00658955
0.00626871
0.00582139
0.00520226
0.00435541
0.00321755
0.00173014
0.000184244
0.00724615
0.00735506
0.00743385
0.00748738
0.00751887
0.00752986
0.00752025
0.00748808
0.00742917
0.00733627
0.0071978
0.00699577
0.00670274
0.0062779
0.00566314
0.00478234
0.00355027
0.00190569
0.00020109
0.00759195
0.00769246
0.00776313
0.0078106
0.00783896
0.00785032
0.00784506
0.00782182
0.0077772
0.00770495
0.00759454
0.00742873
0.00717927
0.00680037
0.00621962
0.00533042
0.00400117
0.00214484
0.000222285
0.00796813
0.00805116
0.00810762
0.00814496
0.00816747
0.00817734
0.00817523
0.00816035
0.00813026
0.00808027
0.00800207
0.00788126
0.00769249
0.00739033
0.00689281
0.00605664
0.00466291
0.00251922
0.000250313
0.00837253
0.00842781
0.00846413
0.00848779
0.00850214
0.00850887
0.00850857
0.0085009
0.0084845
0.00845657
0.00841201
0.0083415
0.0082275
0.00803513
0.00769103
0.00703459
0.00572585
0.00324505
0.000289986
0.00879703
0.00881604
0.00882822
0.00883608
0.00884089
0.00884327
0.00884347
0.0088414
0.00883667
0.00882845
0.00881517
0.00879385
0.00875867
0.00869696
0.00857742
0.0083084
0.00757077
0.00520424
0.000343459
)
;

boundaryField
{
    leftWall
    {
        type            nutkWallFunction;
        Cmu             0.09;
        kappa           0.41;
        E               9.8;
        value           nonuniform List<scalar> 
50
(
1.547e-06
2.53775e-06
3.12023e-06
3.5441e-06
3.8767e-06
4.15454e-06
4.39937e-06
4.6303e-06
4.92341e-06
5.30327e-06
5.7186e-06
1.48714e-07
1.70078e-06
1.03842e-06
0
0
2.37864e-10
0
0
0
0
0
0
0
4.67057e-09
0
0
0
0
0
0
0
0
0
0
3.50721e-09
9.09279e-09
0
0
0
0
5.55808e-10
4.29626e-09
0
0
9.99471e-09
6.57178e-09
2.93333e-06
1.83059e-05
4.87325e-05
)
;
    }
    rightWall
    {
        type            nutkWallFunction;
        Cmu             0.09;
        kappa           0.41;
        E               9.8;
        value           nonuniform List<scalar> 
50
(
1.8264e-06
2.79822e-06
3.45889e-06
3.99689e-06
4.45872e-06
4.87162e-06
5.25349e-06
5.63077e-06
5.98157e-06
6.20655e-06
6.27563e-06
5.24145e-09
2.28166e-06
6.3746e-07
2.27051e-09
0
4.8006e-09
7.70582e-10
0
0
0
0
2.45868e-10
0
8.19302e-09
1.40478e-08
4.98032e-07
1.0884e-06
1.59194e-06
2.07409e-06
2.60369e-06
3.18298e-06
3.80525e-06
4.46322e-06
5.14903e-06
5.84743e-06
6.61197e-06
7.48281e-06
8.48863e-06
9.60715e-06
1.0846e-05
1.22257e-05
1.37763e-05
1.55312e-05
1.75529e-05
1.99772e-05
2.29896e-05
2.69113e-05
3.23645e-05
3.95629e-05
)
;
    }
    lowerWall
    {
        type            nutkWallFunction;
        Cmu             0.09;
        kappa           0.41;
        E               9.8;
        value           nonuniform List<scalar> 
62
(
3.79522e-07
1.022e-06
1.37274e-06
1.60568e-06
1.77858e-06
1.91352e-06
2.02161e-06
2.1093e-06
2.18057e-06
2.23898e-06
2.28855e-06
2.3326e-06
2.37208e-06
2.40292e-06
2.41429e-06
2.38708e-06
2.31305e-06
2.19628e-06
2.03604e-06
1.84102e-06
1.64295e-06
1.30675e-06
7.08969e-07
7.08969e-07
3.4652e-06
4.15996e-06
4.75389e-06
5.34607e-06
5.96835e-06
6.70532e-06
7.93576e-06
8.61669e-06
7.89715e-06
7.82403e-06
8.39439e-06
9.83714e-07
4.188e-06
4.59853e-06
4.93154e-06
5.42949e-06
6.06847e-06
6.93781e-06
8.40154e-06
9.83714e-07
1.72716e-06
2.07964e-06
2.21001e-06
2.27721e-06
2.30861e-06
2.31581e-06
2.31277e-06
2.26068e-06
2.14697e-06
1.99167e-06
1.80157e-06
1.69766e-06
1.69115e-06
1.65761e-06
1.55533e-06
1.3005e-06
9.75393e-07
4.01756e-07
)
;
    }
    atmosphere
    {
        type            calculated;
        value           nonuniform List<scalar> 
46
(
0.009
0.000138211
0.000177189
0.000736971
0.00151824
0.00220014
0.00273865
0.0031616
0.00350125
0.00378374
0.00402936
0.00425409
0.00447099
0.00469124
0.00492494
0.00518197
0.00547299
0.0058111
0.00621511
0.00671663
0.00737803
0.009
0.009
0.009
0.009
0.009
0.009
0.009
0.009
0.009
0.009
0.009
0.009
0.009
0.009
0.009
0.009
0.009
0.009
0.009
0.009
0.009
0.009
0.009
0.009
0.000343459
)
;
    }
    defaultFaces
    {
        type            empty;
    }
}


// ************************************************************************* //
