/*--------------------------------*- C++ -*----------------------------------*\
  =========                 |
  \\      /  F ield         | OpenFOAM: The Open Source CFD Toolbox
   \\    /   O peration     | Website:  https://openfoam.org
    \\  /    A nd           | Version:  9
     \\/     M anipulation  |
\*---------------------------------------------------------------------------*/
FoamFile
{
    format      ascii;
    class       surfaceScalarField;
    location    "35";
    object      phi;
}
// * * * * * * * * * * * * * * * * * * * * * * * * * * * * * * * * * * * * * //

dimensions      [0 3 -1 0 0 0 0];

internalField   nonuniform List<scalar> 
1300
(
11.2529
1.87548
-4.16725
11.2529
-5.00956
1.87548
-4.24305
4.24305
-1.18749
1.18749
5.7123
5.54056
-2.37774
2.37774
-2.81964
2.81964
-2.86015
2.86015
-1.06194
1.06194
-1.02826
1.02826
0.693113
-0.693113
-3.41896
3.41896
-1.45619
1.45619
-2.90956
2.90956
6.1281
-6.1281
-3.2474
3.2474
-0.743757
0.743757
-4.26321
15.5161
6.98965
6.98965
-2.3711
2.3711
-1.25394
1.25394
1.41034
-1.41034
9.05312
-9.05312
-4.88587
-5.88435
1.91952
-14.0646
-3.09004
-3.09004
-2.7054
2.7054
-0.829928
1.04555
3.47682
-3.47682
-0.757122
0.757122
-4.32842
0.0853701
-4.32842
4.02764
0.21541
4.02764
-1.32877
0.14128
-1.32877
4.67828
-4.67828
1.07573
0.111761
1.07573
3.9281
-3.9281
-5.71006
11.4224
5.5428
-5.32064
20.8367
-5.93222
11.4728
-3.89882
3.89882
-2.29482
-0.082921
-2.29482
2.37941
-0.00167096
2.37941
-4.00138
4.00138
-2.60973
-0.209908
-2.60973
2.91984
-0.1002
2.91984
3.66643
-3.66643
-2.91621
0.0560603
-2.91621
2.70845
0.151705
2.70845
0.771042
1.10443
-2.64652
3.69207
-1.10443
0.0424987
1.02614
0.0357986
1.02614
-1.01453
-0.0137252
-1.01453
1.04984
-0.0215792
1.04984
0.730125
-0.0370118
0.730125
-0.75486
0.0617473
-0.75486
-8.60864
-8.97168
-3.54267
0.123715
-3.54267
-1.47421
0.0180215
-1.47421
1.49234
-0.0361546
1.49234
-2.52512
2.52512
-3.25143
0.341873
-3.25143
4.80635
1.32175
4.80635
5.04612
6.20674
16.299
-16.299
10.1709
-2.96775
-0.279641
-2.96775
-3.4129
-5.64022
3.4129
-0.165502
-0.805496
0.0617391
-0.805496
5.62659
1.36306
5.62659
2.58622
0.122227
-2.58622
0.215124
4.62617
-4.62617
1.42328
0.94782
1.42328
-1.19154
1.19154
1.12336
-0.0735236
-1.12336
-0.130582
1.38601
0.0243318
1.38601
-1.40975
-0.000595765
-1.40975
7.31274
-13.1971
-7.7677
3.22949
0.18947
-3.22949
0.139454
3.56357
-0.0867509
3.56357
-3.30969
3.30969
-3.61099
0.134179
-3.61099
-0.682204
-0.0749182
-0.682204
0.842003
-0.0848808
0.842003
-4.57625
0.247834
-4.57625
-3.6914
0.439967
3.6914
0.336241
1.25007
-1.25007
-1.43658
0.107807
-1.43658
-4.65927
0.0830204
4.65927
0.0190007
-4.77222
0.0939447
-4.77222
-3.71253
0.101533
3.71253
0.215575
4.58935
1.03724
-4.58935
0.661247
-5.36948
11.5762
-5.88338
11.4262
-3.51515
-0.383669
-3.51515
4.08963
-0.190807
4.08963
2.57102
0.338544
-2.57102
0.276202
2.50569
-0.126287
2.50569
-3.94419
-0.0571897
-3.94419
3.80422
0.197156
3.80422
2.54527
-0.0395788
-2.54527
-0.0644543
2.89459
0.0252507
2.89459
3.67241
-0.00598244
3.67241
-3.53944
-0.126986
-3.53944
3.17896
-3.17896
3.08058
0.0983712
-3.08058
0.16437
-5.07402
5.07343
-0.00799946
-5.06602
1.01814
1.01814
0.768934
-0.038809
0.768934
-0.861791
0.106931
-0.861791
8.346
-16.1137
8.77796
-17.3866
7.53161
-21.5962
8.11635
-17.088
3.82681
-3.82681
3.76066
0.0661443
-3.76066
0.217988
-1.45605
-0.0181629
-1.45605
-2.28809
-0.237027
-2.28809
2.85704
-0.331921
2.85704
-3.74209
3.74209
-4.12478
0.382686
4.12478
0.68157
2.95577
-0.0611865
-2.95577
-0.0119823
0.924045
0.151685
-0.924045
0.118549
4.8635
-0.237337
4.8635
-4.08522
-0.540953
-4.08522
-1.47494
0.0188936
1.47494
-0.0516598
-1.25895
0.067403
-1.25895
-5.0745
0.00847757
-5.0387
-1.40127
-1.40127
1.30414
4.9962
-3.58567
0.0462334
3.58567
-0.0221062
3.52705
0.215042
-3.52705
0.217361
-3.26327
0.0843119
3.26327
0.0464183
-0.659727
-0.0224767
-0.659727
-1.03472
1.03472
-0.917611
-0.117105
0.917611
-0.0756082
1.40551
-0.155441
1.40551
1.47053
0.0218115
-1.47053
0.033952
-5.01132
0.239099
-5.01132
4.10013
-0.0104949
4.10013
-3.94907
-0.13614
3.94907
-0.276667
-0.0037229
5.07715
-1.01441
-0.000120148
1.01441
-5.10148
5.10136
-0.665119
0.00539194
0.665119
0.103815
1.02967
0.161873
-1.02967
0.16788
3.84774
-0.0435216
-3.84774
0.020938
-2.00721
-0.280884
-2.00721
-3.1843
-0.330856
3.1843
-0.327261
-5.11518
-0.0779364
5.19312
-5.13676
1.33688
0.0491256
-1.33688
5.15049
-1.1436
-0.10647
1.1436
-0.108881
1.60376
-0.198247
1.60376
5.12087
-0.257364
-5.12087
0.10955
-4.11773
0.173537
4.11773
-0.0176007
-1.77501
-0.232192
1.77501
-0.171258
-13.1281
14.4911
7.70865
-6.28195
-6.91514
-11.9222
4.4471
7.12912
14.618
-11.813
-9.78325
-11.6735
2.86006
-2.69218
-3.72726
3.69025
23.5918
-23.4978
-18.3992
19.0808
20.777
-20.5615
5.70885
5.71351
15.8532
-15.9361
-20.8961
20.5124
15.3913
-15.6012
22.0474
-22.1046
-25.8098
25.7663
-16.0928
16.1489
-20.2944
20.1674
-21.0577
20.7811
-8.35369
-9.03291
16.5124
-16.3887
20.0048
-20.2844
-19.3851
19.727
10.0475
4.44359
11.0848
-6.24673
11.9556
-5.22605
12.9347
8.29355
-16.6472
7.82015
-14.7353
9.04796
10.9568
-8.88246
-3.03971
-17.9699
17.8832
-17.257
17.3034
24.1244
-24.039
-6.17283
11.8863
-5.25335
12.3825
-11.409
-6.99019
10.0872
4.53073
8.98972
7.52266
-9.17919
-2.49433
-24.7988
24.5415
-25.6599
25.119
0.100182
2.42593
-2.52611
1.35413
-0.862696
3.28863
1.99736
2.10429
2.45271
-2.29084
0.239462
-2.76558
-2.89616
-5.34038
5.44819
5.15705
-5.04529
16.5468
7.04496
16.5658
-16.7496
-6.74822
-16.5105
11.3637
7.71706
11.7464
12.0617
8.71534
12.1632
10.359
-10.3317
-0.0273068
-11.4777
21.8367
1.55464
-18.4678
-13.9371
8.84811
7.00505
8.84643
-9.89307
-6.04301
-9.61686
-11.0134
-9.88272
-11.3442
12.3167
8.19571
12.1259
-15.3132
15.2956
9.27693
6.11434
9.17673
-8.96529
-6.63589
-9.02975
27.4806
-6.67724
-20.8034
-13.1783
-12.6316
12.9811
9.06625
14.3355
11.4308
14.3565
8.91357
18.567
-17.9798
5.34826
-9.94703
-6.14579
-9.78266
9.25804
6.89085
9.40974
-11.7668
-8.52762
-11.7206
-11.987
-9.07077
11.9929
8.17449
-12.5344
-13.1255
12.6706
8.11051
7.83943
-17.6227
9.2486
-18.2815
-10.9616
-5.42708
-10.7436
10.7848
6.68441
-17.4692
-5.86242
23.6374
-12.6806
20.5977
-10.9029
-9.38153
-10.9149
-14.805
-4.58015
-14.365
-7.9888
7.70791
-8.82036
8.48844
26.8759
-16.2214
-10.6545
-12.3784
-8.1831
11.7171
-0.632344
-12.8358
12.8085
-0.880182
12.0545
16.4981
15.8658
-10.8802
-6.37674
-10.6629
10.2702
7.03322
10.3545
16.1061
8.01829
16.3215
-16.8179
-7.22106
-16.5701
4.8409
-4.91581
5.7136
-5.6947
15.5795
9.5395
-15.3421
-9.45668
22.9305
-10.775
-12.1555
-5.11964
5.21408
-0.0944397
-1.83101
-0.476887
0.26687
-1.93095
-1.79631
1.8692
0.235089
5.44917
3.65286
-2.41437
2.48177
2.77875
2.70523
-0.190933
2.49869
-2.4933
18.9017
-11.4319
-7.46979
13.9704
-13.8874
-2.5997
-19.3274
16.7277
2.67844
3.00329
-2.94155
-3.94838
-1.39201
-3.91442
2.95193
2.20512
3.10361
2.10714
3.34105
-8.10329
1.56296
6.54033
-5.99614
-3.48233
-13.3462
-6.26625
19.6125
16.6789
7.86255
-16.7885
0.277931
5.29301
-5.32917
-1.59834
-11.7479
8.3479
-9.94624
-15.217
-6.46093
21.6779
-9.58077
-1.08208
9.36573
2.38065
-10.8773
-7.09265
10.7431
1.42011
-12.0645
23.9707
-11.9062
-18.4413
8.51577
13.3209
16.2328
-17.8628
9.31888
8.54388
-4.54188
7.43188
1.41456
7.30559
-19.9309
13.8879
11.3254
8.40163
-11.6639
2.04704
-17.8839
25.1721
-22.2877
-2.88442
12.8231
12.349
13.5478
13.328
-7.78465
21.3325
-3.61765
-18.67
21.5015
-13.0999
15.7823
-28.8822
-29.1104
10.4404
-17.9546
22.0725
-4.11789
-5.20435
-10.1088
23.1589
-2.00658
-21.1523
10.1193
-13.9285
-11.856
25.7845
-20.6058
18.4919
-6.26926
-12.2226
-12.6626
-9.44197
12.4891
2.80653
-25.8727
31.221
-7.30569
7.80749
1.36924
7.83274
10.6093
-15.9756
5.36634
9.9965
-16.2658
6.7637
-22.7393
-12.1572
24.1915
-12.0342
-17.5843
-15.7936
-1.79076
4.87445
26.3465
-16.3052
12.1145
4.19069
8.46173
1.89274
-8.5601
-1.22256
0.968049
16.0864
-17.0545
10.3778
10.5
11.7044
4.38205
10.7702
7.11295
-10.7481
-0.972418
-14.7928
5.722
-6.61829
-14.5742
20.2962
-16.2679
1.69367
-10.3032
-13.9906
24.2938
-16.449
11.4255
12.5453
18.4587
-19.615
5.62439
-9.74633
-9.86865
10.6435
-17.2618
7.49833
12.7979
15.6088
2.48333
12.7463
11.4452
-19.4307
1.14918
18.9678
-16.4735
3.88802
10.4685
-16.0026
0.208995
-10.5346
2.66484
-15.3454
-14.8044
16.5297
-21.1099
-12.3525
13.5683
2.75324
-13.9045
-0.460496
-4.95384
-3.03495
-5.18603
-3.27633
-5.54403
-11.061
-1.92685
-9.13412
5.78106
-6.68609
-4.65816
7.01335
1.47509
-4.93523
4.82876
-5.5799
5.38165
-0.210165
13.0186
15.6556
7.4725
-8.47674
15.9492
-15.6086
23.6269
-29.7251
14.1164
15.9487
-23.1698
-13.7763
2.70104
2.13985
2.61616
13.447
-14.414
0.966959
-13.2785
17.5973
-4.31887
-19.5797
6.30124
-6.13267
5.18666
0.526932
5.1685
1.41638
6.84596
-8.26233
-4.27832
-4.32998
-9.16326
-13.8594
23.0227
4.73539
-13.1051
8.36969
-12.0624
16.7978
0.0785038
-13.1836
16.9847
-10.1387
17.5116
-11.9839
5.52766
12.7918
22.3469
-9.55507
16.2482
-6.70867
7.06791
-16.623
-6.79148
-11.2883
18.1791
-13.0055
14.6992
-1.12466
15.8239
-13.7772
3.00221
-2.07285
8.42717
8.64229
16.8088
-12.4267
11.9697
-18.6783
-4.6533
-16.195
-3.39715
1.01854
-13.8254
12.8068
12.0435
-11.0249
-3.24216
8.98397
-5.74181
5.68176
-2.84827
-2.83349
-1.84637
-3.06944
1.86885
0.629842
6.31161
0.489162
-3.33743
-2.00414
-1.90032
10.3744
8.52734
-3.83179
3.73735
3.56492
-0.561631
0.95872
2.14489
4.58711
-3.62839
0.678108
3.909
-2.26344
3.8277
1.46531
-3.84951
-0.0649113
-3.40813
11.756
3.1322
-5.33732
1.70893
2.38216
-13.8141
19.7414
-11.4154
-8.32605
22.1236
3.06357
-14.4789
16.2638
-13.5854
8.1035
-14.3697
-6.37543
-19.9608
-12.9158
-10.7095
19.0792
-12.3132
20.1757
3.86218
-20.4537
24.3158
-12.7398
6.27886
-9.44307
10.9084
-4.05805
-5.38502
11.2656
10.4123
-11.0535
-0.694375
0.212069
8.41922
-8.20715
-1.52702
-7.52317
-16.4089
17.829
-8.25569
17.5746
7.69356
-7.63403
25.2086
6.56495
-14.199
-11.8763
-12.9584
-5.6551
10.5777
-1.79599
-7.23376
-14.0186
7.27334
0.0322537
-19.08
22.0739
-2.99383
-12.075
-1.81292
14.636
-18.1019
1.83616
-11.3382
10.7356
12.1502
12.1825
-20.8415
-0.310827
-12.6458
3.17686
-15.8227
15.5259
-6.80295
17.2433
-16.0046
11.3465
-14.5295
14.3589
-1.46376
14.7483
-9.38199
6.05503
-15.497
-12.6905
14.4746
-8.36023
15.8438
-10.1186
25.9624
-17.4243
14.4085
11.5539
-2.71339
-8.20147
-13.9786
11.2652
0.429915
8.26265
17.8373
-10.7244
16.8649
8.92448
-18.6708
-8.33728
-25.8596
7.18881
-13.3144
-7.35658
14.5454
11.1021
12.9948
4.67675
-11.7723
17.7852
-19.5759
-5.75097
-9.05342
14.5816
-3.31642
10.1454
-19.1988
-5.20008
13.1092
-0.192813
-12.9164
3.11224
-15.4647
5.13103
-20.5958
15.9789
-16.4394
1.76935
-7.90202
-3.16588
-3.27476
-2.17166
-3.40824
-7.56631
5.39465
-1.26508
3.56368
-12.5206
12.3278
-5.07676
10.4714
-4.05746
-1.12858
4.22871
1.15294
11.6244
3.02504
-16.8014
-9.25444
14.6239
-5.3695
1.11991
-10.8003
3.82361
8.09968
14.0239
-24.8274
1.65756
-15.1438
-4.06955
6.2094
4.91443
16.9579
2.54392
6.55183
-0.342427
9.09576
2.27373
2.19813
-11.2169
12.1839
1.58989
15.7063
-1.88295
7.41061
3.28555
3.30357
2.02559
5.72247
2.91982
8.72468
0.462342
-3.86764
2.06781
-3.96813
-1.26962
-4.00694
-0.316694
3.72513
-4.04182
10.4959
-1.96853
5.12637
-1.88161
-4.9333
6.81491
-9.35139
-5.49493
-1.58593
-5.60618
7.31512
6.14984
-5.72919
-3.6222
2.39087
-15.3067
11.9789
-12.6733
-2.26091
22.0549
-9.46137
1.25422
-3.18252
-6.26894
-7.66095
7.72586
24.1899
1.01868
12.2837
18.8477
11.755
1.03066
11.9879
-16.1057
-10.7514
-16.4166
-0.890697
13.7453
5.61465
20.7319
17.1686
13.8522
-5.34662
-24.9226
20.7182
-8.53434
16.3994
-3.48299
-17.1128
14.649
8.97793
-17.4022
0.962852
-16.1499
-24.6843
-0.344461
12.6722
-11.2799
10.1513
7.11636
2.01776
-2.42547
-0.849294
2.54257
-0.344446
8.75131
-0.188821
-8.19476
8.38358
-3.53631
2.26669
-0.429219
4.16657
6.38569
4.41715
-3.7776
-7.81943
-8.81641
-4.99766
-17.1425
2.47002
-8.61986
5.68083
-3.41414
2.84733
4.96944
10.0958
-1.60168
-9.42326
7.34349
-4.49616
5.59966
)
;

boundaryField
{
    wall-4
    {
        type            calculated;
        value           uniform 0;
    }
    velocity-inlet-5
    {
        type            calculated;
        value           uniform -11.2529;
    }
    velocity-inlet-6
    {
        type            calculated;
        value           uniform -1.87548;
    }
    pressure-outlet-7
    {
        type            calculated;
        value           nonuniform List<scalar> 8(4.16725 5.00956 10.7702 12.1451 17.5803 15.0804 17.124 15.648);
    }
    wall-8
    {
        type            calculated;
        value           uniform 0;
    }
    frontAndBackPlanes
    {
        type            empty;
        value           nonuniform List<scalar> 0();
    }
}


// ************************************************************************* //
