/*--------------------------------*- C++ -*----------------------------------*\
  =========                 |
  \\      /  F ield         | OpenFOAM: The Open Source CFD Toolbox
   \\    /   O peration     | Website:  https://openfoam.org
    \\  /    A nd           | Version:  9
     \\/     M anipulation  |
\*---------------------------------------------------------------------------*/
FoamFile
{
    format      ascii;
    class       volScalarField;
    location    "21.9";
    object      p;
}
// * * * * * * * * * * * * * * * * * * * * * * * * * * * * * * * * * * * * * //

dimensions      [0 2 -2 0 0 0 0];

internalField   nonuniform List<scalar> 
918
(
23.4692
23.579
0.958747
22.8866
1.01185
23.0954
3.27859
13.7865
19.2424
2.93426
2.6238
14.4085
20.6384
16.8798
12.9962
0.924352
14.0526
2.25245
18.4601
1.3991
12.9949
20.4479
21.5366
19.2842
14.1214
14.3749
18.6007
1.15004
0.109319
0.258128
0.977213
0.409121
0.148044
21.6323
22.309
22.2473
15.495
10.4062
3.60266
3.80674
2.98893
2.81262
13.8291
13.9289
5.86977
13.7656
13.7614
16.6439
19.1104
19.2541
19.5473
19.3363
19.7226
5.97772
2.78647
2.60733
2.87537
2.94892
2.98044
2.69632
2.67768
2.48189
2.33592
13.8879
14.4815
14.5367
14.2679
14.2156
22.455
21.6981
22.0328
21.1392
21.2846
20.2145
19.8289
17.2554
17.6079
16.4817
16.1009
12.7866
12.7478
13.2161
13.4659
0.14585
1.07441
1.22225
14.0595
14.0959
14.0962
14.1107
8.29191
2.19418
2.19752
17.9004
17.4769
20.4818
20.749
20.196
20.0105
1.53163
1.52686
1.15371
1.1829
0.951756
13.336
13.49
19.2356
18.4025
14.1549
14.0549
14.1299
11.5002
13.9103
13.9837
15.3245
15.7801
14.9693
15.4058
18.1707
17.7527
19.0373
19.4745
0.394666
0.155593
0.687029
0.317896
0.516322
15.3633
15.1579
15.6109
15.6617
15.8929
10.4108
10.341
10.3853
10.3053
4.15344
4.4679
2.26171
2.5768
2.42783
9.87223
13.9451
13.9918
4.81447
5.51828
5.18201
6.35192
6.72613
16.0096
16.4462
16.185
17.7313
16.9362
17.2844
19.8134
19.3027
19.6031
6.37364
6.60886
5.6118
5.25269
2.24341
2.49092
2.43376
2.98013
2.95789
3.21552
3.34503
2.69623
2.55324
2.89137
2.77508
2.82683
2.16583
2.03604
13.612
13.398
14.1509
14.3295
15.0966
14.9483
14.6549
14.8237
19.024
19.4275
19.461
19.0768
11.5481
10.1577
13.7204
13.9959
0.302202
0.265267
0.138019
0.380675
0.400143
0.141662
2.01384
1.82542
1.40443
1.67997
14.057
14.0167
8.53258
8.75214
8.12858
7.87193
16.3146
16.4648
17.0989
16.6987
1.96299
1.67702
1.80665
13.6527
13.5253
13.6321
10.9353
10.3689
11.9779
12.2476
13.9919
14.0356
14.0316
15.6842
16.0026
19.8254
20.096
19.9229
20.3087
21.3715
21.0228
20.638
14.5392
14.9476
14.786
16.1282
15.7619
15.9813
15.1892
15.4939
15.3518
10.3725
10.4187
10.1247
10.2023
10.2502
10.1975
9.80983
9.68304
14.0781
14.0333
14.0573
7.25387
7.75179
4.87157
4.54228
12.5439
13.2171
12.8926
18.6537
17.9761
18.7091
18.3382
17.8882
18.2117
10.4294
10.3907
10.4242
14.9201
14.258
14.6099
2.43803
2.07401
2.23679
8.94819
9.04105
6.97788
7.59576
7.25827
16.3043
16.6446
17.3248
16.4365
16.9042
17.4114
17.1895
9.94527
10.0775
9.9946
9.66712
9.56084
9.73579
8.33675
8.94991
3.61177
4.26991
3.96501
9.20891
9.43826
9.28563
18.6302
19.165
0.767722
1.15675
19.595
19.3187
0.140527
0.242137
14.2565
12.554
7.26435
17.1974
16.63
18.9698
3.19226
6.10517
2.80667
3.38032
2.68613
14.6156
14.2496
13.3408
0.454388
1.25701
1.70826
2.90189
18.4106
17.7354
18.8515
19.1717
19.226
0.688419
0.91457
0.584392
1.2425
1.03142
1.27565
15.5511
15.6492
4.32806
18.8585
19.1628
19.1806
17.6573
18.61
17.6675
0.935863
0.642731
0.70816
10.0812
12.1219
14.2167
13.7693
13.9663
13.9885
13.7394
14.8726
14.5422
14.5071
14.9919
13.9675
13.8227
7.73542
6.3851
8.07012
7.71039
17.0987
16.6866
16.4935
16.2392
18.085
17.611
18.4614
17.8498
18.3117
18.5985
2.94117
3.1314
3.01277
2.5226
6.14524
6.61172
5.48991
5.63712
4.26025
2.42624
2.52506
2.75112
2.58242
2.93054
2.67857
2.9425
2.57819
2.32363
2.32035
2.92951
2.7373
2.60291
14.5939
14.5324
14.3333
14.3713
14.3539
14.4696
13.5353
13.94
13.5677
12.399
12.98
12.5073
0.826356
0.661788
0.525594
1.32466
1.35177
1.11078
0.835386
1.17468
1.20187
0.815014
1.54415
1.44533
3.15942
2.64929
8.84853
7.97698
6.90125
16.8006
17.6024
16.7721
18.0128
18.4298
18.5352
18.1556
17.6474
15.7298
15.7249
15.3851
15.3385
4.77299
3.73644
4.96971
4.53893
10.481
14.0657
11.8429
10.8043
11.1005
13.4242
13.932
13.5842
13.7214
13.2962
12.8244
13.5165
13.0501
13.1514
12.9303
15.7209
16.196
15.8025
15.223
15.243
10.6014
12.0165
5.46798
5.64159
7.24443
6.53905
13.5122
13.9338
13.9184
13.5576
13.7456
13.7461
13.6069
13.7809
13.8612
13.7556
11.8245
10.1444
9.04595
9.03957
14.0774
12.3465
12.9309
12.4136
16.1205
16.637
16.2517
15.6461
16.1312
15.603
15.6302
15.8434
17.2016
16.9512
16.7209
17.1078
3.05278
3.00119
3.64513
3.13538
3.03725
2.82276
3.4835
4.75743
4.41508
6.72002
7.26937
4.57873
3.37244
3.79155
4.80566
5.5413
5.5129
3.96946
4.50242
4.92952
4.44092
5.22756
4.73144
2.71731
3.02246
2.86068
2.83476
3.38166
3.88031
3.37558
2.47915
2.59003
2.2551
2.11795
3.5336
2.9919
3.0284
3.67659
1.1065
1.32897
1.44152
2.41304
1.91177
1.97792
15.1826
14.8267
14.9603
14.2395
14.307
14.2481
13.8725
15.2401
14.9621
15.0615
13.71
13.7968
13.61
13.9054
14.3213
14.6205
15.4524
15.1735
14.4126
14.5636
14.2145
14.1428
13.4648
12.9018
12.8413
1.11275
0.823187
0.983856
0.911907
0.607871
0.800097
2.18299
1.57229
1.96935
1.72721
1.95995
1.40385
1.30207
4.25292
5.06014
3.96709
3.36823
3.06864
8.90604
9.01783
8.16658
7.8622
8.20396
8.43473
8.38479
7.14061
7.56957
7.38211
9.9212
9.58677
17.5868
17.5309
17.2021
17.0432
17.2696
5.76126
7.66471
6.79965
7.91647
10.2097
10.5061
9.31233
8.70748
9.46017
9.53708
14.0474
14.1236
13.5643
14.0502
14.0787
11.8351
12.8825
13.4972
13.3116
13.8316
13.9126
12.9738
13.5624
13.4774
12.7599
12.813
12.128
12.4665
11.9945
11.7937
14.0561
13.9509
14.2206
13.7714
14.1507
13.7151
14.0303
14.0283
14.3089
13.4108
12.8322
12.8507
13.2769
12.9769
13.3229
13.4869
9.30863
9.94989
10.3898
10.9257
10.6335
10.415
10.2822
10.5839
10.561
10.8319
10.7514
10.602
11.5614
13.4188
13.7037
13.8055
13.6015
13.6476
13.3402
13.6135
13.5425
13.9203
14.0084
14.058
13.1387
13.2952
13.4904
13.374
11.6755
10.0961
9.94886
9.5088
7.57716
8.0471
11.025
9.90236
8.91812
8.98983
12.1688
10.8062
11.6194
12.0425
10.6941
10.3062
12.9715
13.7598
13.9796
13.7036
12.0602
12.186
12.6358
13.0793
13.2688
13.7249
15.8604
16.436
16.5139
16.238
16.1
16.1998
15.9499
16.053
16.527
16.6536
16.4849
2.87796
2.99117
2.92138
2.847
3.08367
2.85876
3.95265
3.94267
3.15386
3.33453
3.35437
3.46073
2.9283
2.97163
4.82509
5.06106
5.33299
4.83177
6.17447
6.82066
7.40298
7.08551
5.78888
5.86999
6.18666
3.50483
3.53291
3.25087
3.7073
3.76025
2.60972
2.23747
2.04232
2.56077
2.66384
2.04893
1.76791
1.81686
2.33023
2.0502
1.80464
14.9751
14.7334
14.7548
14.5346
14.5892
14.984
15.2049
15.015
15.1533
15.2043
14.8035
14.6924
14.8635
1.81803
1.49247
1.62254
1.58007
1.64198
1.54866
1.73596
7.60824
6.41488
6.80216
5.9787
4.12133
4.64174
9.54348
9.96559
10.0039
9.71644
9.50568
9.87121
9.72217
9.71537
8.26527
9.33687
8.87069
9.26852
9.28898
9.35742
9.07
9.08088
10.585
10.6183
9.48304
10.1234
9.33145
7.93223
8.09932
9.11281
10.0865
10.408
10.2524
9.98142
9.7529
10.1178
10.1725
10.2329
10.2224
8.75233
8.71129
8.31104
13.9691
13.8757
14.0223
14.0274
14.1544
13.9789
13.816
14.0932
14.1475
13.9317
11.0799
11.1391
11.3848
12.132
12.184
12.0934
11.3381
13.1029
12.7581
13.3966
13.3431
13.4149
13.0047
12.8282
13.0989
10.0809
11.4536
10.9862
11.2499
10.0635
9.30735
13.2239
13.278
13.3436
13.6168
13.5744
14.1581
15.8303
15.7002
15.7475
15.7905
15.4022
15.4395
4.17406
3.82725
4.54736
4.50414
4.06258
3.76291
2.28691
1.96873
1.78129
1.65549
1.88881
1.94916
8.16167
8.19061
6.33305
7.35617
5.87681
4.93603
4.79223
5.95447
7.13594
7.19586
8.51651
9.19545
8.75355
8.57966
7.92213
8.25302
10.1211
10.2149
10.1157
10.4344
9.96708
11.7149
11.2971
11.646
13.2604
12.9695
12.3713
12.258
12.223
12.8163
11.9476
11.179
11.8918
12.5479
12.5061
11.1204
10.8754
11.302
11.2855
10.1994
10.7202
10.4821
10.8344
10.5491
)
;

boundaryField
{
    wall-4
    {
        type            zeroGradient;
    }
    velocity-inlet-5
    {
        type            zeroGradient;
    }
    velocity-inlet-6
    {
        type            zeroGradient;
    }
    pressure-outlet-7
    {
        type            fixedValue;
        value           uniform 0;
    }
    wall-8
    {
        type            zeroGradient;
    }
    frontAndBackPlanes
    {
        type            empty;
    }
}


// ************************************************************************* //
