/*--------------------------------*- C++ -*----------------------------------*\
  =========                 |
  \\      /  F ield         | OpenFOAM: The Open Source CFD Toolbox
   \\    /   O peration     | Website:  https://openfoam.org
    \\  /    A nd           | Version:  9
     \\/     M anipulation  |
\*---------------------------------------------------------------------------*/
FoamFile
{
    format      ascii;
    class       volVectorField;
    location    "19.65";
    object      U;
}
// * * * * * * * * * * * * * * * * * * * * * * * * * * * * * * * * * * * * * //

dimensions      [0 1 -1 0 0 0 0];

internalField   nonuniform List<vector> 
918
(
(2.47629 -0.138943 0)
(0.108704 0.722546 0)
(0.172313 1.06595 0)
(2.31834 0.153728 0)
(-0.0597204 1.25919 -1.21353e-19)
(-0.0924034 0.643931 -5.31515e-18)
(0.528016 0.846122 -2.96342e-19)
(0.274511 0.152961 -2.98875e-20)
(3.00615 -0.0195612 0)
(-0.00828188 0.475619 0)
(-0.017441 0.589681 0)
(0.605298 0.00675609 0)
(0.0107054 0.439105 0)
(-0.00288303 0.42169 0)
(0.0134984 0.340972 -1.30574e-18)
(-0.00516079 0.764702 -9.18713e-20)
(0.312544 0.0742964 2.152e-18)
(0.0793031 0.639599 -2.23919e-19)
(1.52885 0.128628 0)
(-0.0273256 0.689286 0)
(0.194756 0.157814 -1.26598e-18)
(3.08302 -0.397374 0)
(2.92445 -0.505981 0)
(1.86116 -0.1811 0)
(0.511523 0.0400884 0)
(-0.0253681 0.521557 0)
(-0.00135315 0.494038 1.86294e-18)
(-0.0235884 1.41219 0)
(0.0726712 2.90519 0)
(0.168146 1.75201 0)
(-0.0408741 3.14398 0)
(0.0262206 1.62673 9.3307e-20)
(0.0226626 0.681584 0)
(-0.147425 0.775094 -2.03139e-22)
(-0.193914 1.0291 4.42234e-18)
(-0.0415772 1.04471 0)
(0.744554 -0.00600811 0)
(0.161385 0.246853 6.65959e-19)
(0.989963 1.5074 6.54222e-19)
(0.647669 0.781412 -5.16996e-19)
(0.795606 1.56829 6.22386e-20)
(0.414972 0.847372 -3.2143e-19)
(0.552773 0.306816 2.93939e-20)
(0.297159 0.153735 0)
(0.961335 0.565414 0)
(0.533123 0.304206 1.32034e-19)
(0.258194 0.162911 -1.35486e-19)
(0.871588 -0.0554801 0)
(3.02784 -0.0017057 0)
(3.00685 0.0178652 0)
(3.20086 -0.417734 0)
(3.04288 -0.0742127 0)
(3.03116 -0.0388412 0)
(0.0185423 0.907619 -1.14694e-18)
(-0.0541788 0.970869 0)
(0.00270759 0.453398 0)
(-0.028924 0.978143 0)
(-0.0114589 0.479975 0)
(-0.00161963 0.871062 0)
(-0.0522844 1.11076 0)
(-0.0127456 0.541449 0)
(-0.0256539 1.16334 0)
(-0.00619482 0.622586 0)
(0.790384 0.0116104 0)
(1.16957 -0.00157461 0)
(0.618315 0.0123644 0)
(1.12597 0.0175956 0)
(0.569858 0.00867238 0)
(0.225406 0.921982 1.96027e-18)
(0.0985379 1.2081 0)
(0.176302 1.06604 0)
(0.0331901 0.755774 2.19988e-23)
(0.0372233 0.498055 -2.93175e-18)
(0.0194616 0.747943 0)
(0.00595421 0.422033 0)
(-0.000695872 0.734549 4.51882e-24)
(0.000702339 0.414825 0)
(-0.0169226 0.743182 0)
(-0.0129392 0.427983 0)
(0.049605 0.650427 0)
(0.0485934 0.458649 0)
(0.00808103 0.622147 1.23456e-18)
(0.000781626 0.344944 0)
(-0.0755719 4.68545 0)
(0.00820779 1.45164 9.12091e-20)
(-0.0106715 0.782554 -1.17464e-19)
(0.636419 0.152221 -7.5089e-19)
(0.32175 0.0657029 -7.28641e-19)
(0.645169 0.169821 -2.25451e-18)
(0.317695 0.0956187 -1.45151e-18)
(0.0790411 0.621826 0)
(0.177417 1.30777 1.85812e-19)
(0.178765 0.726749 -2.9648e-19)
(2.06032 0.260944 0)
(1.10704 0.118448 0)
(3.03313 0.103886 0)
(3.10392 0.446058 0)
(2.83919 0.377458 -1.01266e-17)
(2.57811 0.361309 7.77034e-18)
(-0.0713648 1.26949 0)
(-0.0116177 0.626089 0)
(-0.015615 1.91545 0)
(-0.0515462 1.35556 0)
(-0.0487119 0.683777 0)
(0.440714 0.295947 4.00796e-19)
(0.225638 0.163497 0)
(2.29609 -0.266395 0)
(1.32372 -0.119274 0)
(1.07655 0.0126525 0)
(1.01226 0.018755 0)
(0.541042 0.0108364 0)
(1.0195 0.0563424 0)
(0.82146 0.0703489 0)
(0.343716 0.0287018 3.36254e-18)
(-0.00543834 0.451591 1.77413e-18)
(-0.0270376 0.784637 0)
(-0.0473391 0.847537 0)
(-0.0152785 0.460449 0)
(0.000132392 0.839725 1.8165e-18)
(7.28944e-05 0.48753 0)
(-0.00547891 0.845554 -5.59189e-18)
(-0.00488634 0.496761 1.88685e-18)
(0.0503816 3.58604 0)
(0.0377803 4.04228 0)
(-0.0166388 1.40261 -2.05185e-21)
(-0.0138207 1.35412 0)
(-0.0100284 0.736905 0)
(1.41013 0.0348757 0)
(0.760514 0.015432 0)
(0.709537 0.0142619 0)
(1.41614 -0.0328534 0)
(0.773497 -0.00874325 0)
(0.32285 0.481467 -8.36142e-19)
(0.157138 0.233181 0)
(0.325824 0.510483 9.37122e-20)
(0.163791 0.269099 0)
(1.23721 1.38184 1.66748e-19)
(0.776628 0.738469 -3.92975e-19)
(0.409882 1.41538 0)
(0.60424 1.52696 0)
(0.30206 0.811007 0)
(0.145927 0.354702 -4.43403e-19)
(0.607781 0.280924 0)
(0.313689 0.134704 3.98829e-19)
(1.42405 1.30282 0)
(1.5838 1.16579 0)
(0.873103 0.662204 4.62181e-19)
(1.73136 0.951342 0)
(1.06717 0.438039 2.31888e-20)
(1.47295 0.00813299 0)
(1.50098 -0.0292425 0)
(0.801884 -0.00441855 0)
(1.95042 -0.199781 0)
(1.65081 -0.148183 0)
(1.05215 -0.0889709 0)
(3.06126 0.164852 0)
(3.03105 0.0687865 0)
(3.01022 0.0531587 0)
(0.0353023 1.61414 6.08615e-19)
(0.0177667 0.831814 0)
(0.0178436 1.70482 1.08031e-18)
(0.0029124 0.943374 -9.71162e-19)
(0.0644147 1.14713 1.88607e-19)
(0.047576 0.984975 0)
(0.0399325 0.526547 0)
(-0.0287981 1.00265 0)
(-0.00712583 0.516273 0)
(0.0174238 1.61868 -4.42798e-21)
(-0.0185436 0.868084 0)
(-0.054179 1.58597 -2.25432e-19)
(-0.0164713 0.821468 4.36535e-19)
(-0.00207865 1.02772 0)
(0.00993556 1.04277 0)
(-0.000163685 0.530688 0)
(0.0101273 1.17321 0)
(0.000552628 0.61389 0)
(1.4681 -0.00373844 0)
(0.789091 0.00804186 0)
(1.4404 0.0331488 0)
(0.761724 -0.00056468 0)
(0.675425 0.00533894 0)
(1.26205 0.0166723 0)
(1.2025 0.0473026 0)
(0.659746 0.0155498 0)
(-0.00580053 1.42077 -1.70255e-20)
(0.000184315 1.37708 0)
(0.00482011 0.732923 0)
(0.00172892 0.417221 0)
(0.284998 0.829828 0)
(0.254075 0.400344 -2.87229e-19)
(-0.00218892 0.635445 0)
(-0.00888499 0.367602 0)
(0.00447953 4.34866 0)
(-0.0561491 4.66266 0)
(-0.0260941 4.57164 0)
(-0.0755108 3.3494 2.04754e-20)
(-0.0661202 4.59238 0)
(-0.0581045 4.16369 0)
(0.00439009 0.817502 1.07354e-20)
(0.013749 1.55884 1.65105e-19)
(-0.0360225 1.49811 1.20687e-19)
(-0.00777771 0.823575 0)
(0.66473 0.105752 1.15317e-18)
(0.325806 0.0441702 -1.13013e-18)
(0.150551 1.13973 0)
(0.101586 0.576424 -2.69699e-19)
(0.119131 1.24042 -8.75781e-19)
(0.0522814 0.69122 8.71276e-19)
(0.809214 0.0240608 0)
(1.55679 0.047675 0)
(1.70971 0.12765 0)
(0.919852 0.0445211 0)
(0.00730244 1.18581 0)
(0.0253137 1.19513 0)
(0.00415023 0.630091 0)
(0.482625 0.315416 1.20382e-18)
(0.437301 0.30943 -1.38699e-18)
(0.234974 0.164321 0)
(1.93465 0.15279 1.15221e-19)
(1.13585 0.09313 0)
(1.72379 0.118362 0)
(0.883474 0.0226572 0)
(0.678434 0.0857561 0)
(0.699943 0.0460731 -5.40685e-18)
(0.34683 0.0325997 1.99878e-18)
(0.00914113 0.807275 1.69424e-18)
(0.00222085 0.462506 4.08167e-20)
(-0.0108777 1.40842 -3.581e-20)
(0.00613616 1.38675 1.36622e-18)
(-0.0149832 0.848955 6.29605e-20)
(-0.0119261 0.524486 -2.52972e-22)
(-0.107514 1.00068 -1.16517e-18)
(-0.0529602 1.3532 8.34201e-19)
(-0.0175323 1.35275 -1.35812e-18)
(1.42262 -0.0170961 0)
(1.44228 0.0203048 0)
(0.76982 -0.000186277 0)
(1.4522 0.025379 0)
(1.36323 0.0462263 0)
(0.761558 0.0203042 0)
(1.30069 -0.00216062 0)
(1.31872 -0.00585637 0)
(0.695087 -0.000991823 0)
(0.305509 0.474415 -9.15636e-19)
(0.161678 0.24314 0)
(0.157669 0.309324 1.37078e-19)
(0.310595 0.587662 1.12317e-18)
(0.308288 0.550109 -6.64906e-19)
(0.157266 0.282634 1.29927e-18)
(0.279674 0.720662 2.18434e-18)
(0.148923 0.382361 3.94196e-19)
(0.636483 0.213243 1.53742e-18)
(0.626415 0.253781 3.99311e-19)
(0.31678 0.1151 7.49267e-19)
(1.91913 0.713437 -5.99801e-19)
(1.16656 0.335615 -7.01969e-19)
(-0.0355461 1.71113 4.64291e-19)
(-0.0117704 0.929055 0)
(1.60349 0.0238723 0)
(1.52163 0.0653306 0)
(0.852758 0.0268255 0)
(-0.00355885 1.38473 0)
(0.0050741 0.729574 2.49585e-18)
(0.00465033 0.731252 0)
(0.00207076 0.415097 -2.44287e-18)
(-0.0102753 1.38627 5.95833e-19)
(-0.00947277 1.4225 0)
(0.337226 0.489087 2.58059e-19)
(0.360701 0.547359 -8.6332e-19)
(0.172158 0.25827 7.81419e-19)
(-0.0256759 0.767446 -1.6632e-18)
(-0.026149 0.689714 0)
(-0.0154347 0.41292 0)
(0.0295863 1.54791 -1.27692e-20)
(0.0307519 1.57874 -3.64079e-19)
(0.0175536 0.822073 -1.55637e-20)
(0.214637 1.0495 8.91469e-19)
(0.120294 0.511474 -5.93228e-19)
(0.0118383 1.49337 7.31526e-19)
(0.0561202 1.35883 -8.16563e-19)
(0.0269228 0.764819 3.54492e-20)
(0.00750979 1.36614 -3.80877e-18)
(-0.000217876 1.39326 4.41077e-18)
(0.00377295 0.829776 1.73344e-18)
(-0.013831 0.805092 -1.72594e-18)
(-0.00430956 0.481399 -1.73908e-18)
(-0.0106518 1.41685 -4.50114e-18)
(-0.0152188 1.40032 4.59036e-18)
(0.287529 0.677325 0)
(0.300867 0.636762 -2.29008e-18)
(0.1525 0.332816 9.91413e-19)
(0.28262 0.799473 1.18676e-18)
(0.139505 0.429414 -1.83113e-18)
(2.05575 0.322176 4.15792e-19)
(2.04985 0.546966 0)
(1.2178 0.22072 -4.01774e-19)
(-0.0744189 1.64021 -4.7982e-21)
(-0.0148547 1.69708 0)
(-0.0160633 0.925276 0)
(0.228228 0.949158 -3.23266e-19)
(0.249476 0.870633 -7.07964e-19)
(0.12945 0.465444 1.32672e-18)
(3.16442 -0.442874 0)
(3.34728 -0.414687 1.81261e-18)
(0.0578768 3.50029 0)
(0.0461926 2.82521 0)
(3.15926 0.249913 1.41916e-20)
(3.12355 0.506293 3.71172e-18)
(0.0198424 3.4156 -2.74794e-20)
(0.00800965 2.64908 0)
(-0.0416182 1.19605 1.55558e-18)
(0.190604 1.31723 0)
(3.46969 1.6228 -3.24785e-19)
(3.17428 0.272567 -2.96099e-20)
(3.14836 -0.118707 0)
(3.10047 -0.000407028 3.72823e-22)
(0.0428782 2.57931 0)
(0.157599 3.31624 0)
(-0.056627 2.53137 0)
(-0.025582 3.49577 3.15653e-19)
(-0.0280199 3.5712 1.99195e-19)
(2.6337 0.0487698 -1.36471e-20)
(3.04731 0.0310812 0)
(3.15754 0.0867165 0)
(-0.0586812 4.61672 0)
(-0.0484644 3.07354 0)
(-0.0747328 2.94532 0)
(0.649669 3.09196 2.66302e-19)
(3.33884 -0.422463 0)
(3.0114 -0.345813 0)
(3.1699 -0.0530406 2.27695e-18)
(3.2927 -0.328703 -2.74171e-18)
(3.1038 -0.125779 0)
(-0.0649631 4.51941 0)
(0.0103259 3.94849 0)
(0.00139844 4.27519 0)
(-0.030045 3.1071 0)
(-0.0158602 2.86623 0)
(-0.0326716 2.43892 0)
(2.97416 -0.00319361 0)
(2.85049 0.0486073 -1.80496e-20)
(2.2419 3.04103 -3.22239e-19)
(3.15695 0.0444516 -2.27802e-18)
(3.19037 0.278177 2.76906e-18)
(3.0828 0.117336 0)
(3.3954 0.328917 2.08704e-18)
(3.35696 0.484363 -2.70626e-18)
(3.07111 0.418427 0)
(-0.0574914 3.33556 0)
(0.00343384 3.26157 8.52643e-20)
(-0.0316848 2.56265 -6.03885e-20)
(3.70665 0.554687 2.26527e-18)
(3.4703 0.208217 0)
(-0.151894 1.27128 -2.16672e-18)
(-0.0623188 0.882161 -1.35085e-19)
(-0.0846278 1.33683 2.9867e-18)
(-0.0351184 1.27052 -8.99946e-19)
(-0.000376269 1.08851 0)
(-0.0266734 1.23953 6.95104e-19)
(-0.115026 1.38787 2.14733e-18)
(-0.0590291 1.34056 -1.3146e-18)
(-0.0767562 1.32063 0)
(1.29061 0.597703 0)
(1.1788 0.683099 0)
(3.55422 2.02673 9.53652e-19)
(3.04605 1.93268 -1.19078e-18)
(3.83612 1.70453 0)
(3.38149 1.15539 0)
(3.34935 0.280485 -3.91634e-18)
(2.89886 0.173113 4.83916e-18)
(3.35143 -0.155493 0)
(2.85476 -0.0761456 0)
(3.43642 0.0430146 0)
(3.59381 0.145045 0)
(3.28683 0.119869 0)
(3.55033 0.298571 0)
(3.40841 0.293053 0)
(3.32755 0.218067 0)
(0.0961906 2.78082 0)
(0.0340131 2.07135 0)
(0.124788 3.04003 0)
(0.091687 2.19543 0)
(0.214633 3.60897 0)
(0.14053 2.68831 -5.59184e-19)
(0.0523861 3.62528 0)
(0.0110052 3.02985 4.05821e-19)
(-0.0260111 3.21477 -5.16902e-19)
(-0.0614412 2.79743 0)
(-0.0241925 2.20155 0)
(-0.0745124 2.90272 0)
(-0.0563539 2.04626 0)
(-0.112283 4.75098 -2.45366e-19)
(-0.0833409 3.9433 2.77116e-19)
(-0.0773514 3.80775 3.08847e-19)
(-0.0539587 3.02162 0)
(-0.107941 3.80397 -4.58456e-19)
(-0.0392832 3.21423 -2.94837e-19)
(-0.0868325 4.78302 1.92447e-19)
(-0.0991368 4.4664 -3.50268e-19)
(-0.0733333 4.338 -3.78657e-19)
(3.03158 0.0882992 3.35808e-18)
(2.28979 0.0321573 -4.22913e-18)
(2.89162 0.13276 -3.32701e-18)
(2.20992 0.0734513 4.15563e-18)
(3.36843 0.0276355 0)
(2.64291 -0.00267706 0)
(3.45388 0.0911998 0)
(3.32004 0.0191943 0)
(2.70636 0.0091715 0)
(3.67985 0.239318 0)
(3.43847 0.095812 0)
(2.86311 0.0564012 0)
(-0.0280166 4.32098 -1.20554e-20)
(-0.0621116 4.64947 0)
(-0.06761 4.53867 0)
(-0.0784954 3.49549 8.77292e-20)
(-0.0387601 2.77097 -3.4633e-21)
(-0.0872785 4.66835 1.13648e-19)
(-0.100648 4.46165 -1.14844e-19)
(-0.0832758 3.96334 0)
(-0.0612531 3.88627 0)
(-0.0259041 4.00316 0)
(-0.0746476 3.2653 0)
(-0.0438993 2.30881 0)
(0.945486 3.64732 -6.09517e-19)
(0.917083 2.84047 -1.76672e-19)
(0.432877 2.06302 -2.28546e-19)
(0.25379 2.31143 6.98022e-19)
(1.02637 4.20781 2.63811e-19)
(3.43307 -0.167434 0)
(3.32213 -0.256553 0)
(2.88326 -0.189519 0)
(3.47032 -0.0643568 0)
(3.34581 -0.14787 0)
(3.44893 -0.261029 0)
(3.5195 -0.283608 0)
(3.57949 -0.281139 0)
(3.22419 0.0933589 3.61839e-18)
(2.55524 0.0645059 -4.5754e-18)
(3.09657 0.106545 -3.56184e-18)
(2.50919 0.0566544 4.43192e-18)
(2.23694 3.40844 0)
(1.73432 2.93752 -4.46256e-19)
(2.56464 3.34278 -4.03511e-19)
(2.36405 2.52269 5.36265e-19)
(0.776688 1.21601 2.72357e-18)
(1.44738 0.216506 1.34299e-18)
(3.72194 0.303859 0)
(3.89236 0.572194 -1.8458e-18)
(3.29801 0.24366 -8.2327e-20)
(3.7214 0.43978 0)
(0.237574 1.31278 1.79674e-18)
(-0.016221 1.20216 -2.87735e-18)
(0.0592265 0.770087 1.61511e-18)
(0.27652 0.465189 -7.48104e-19)
(0.187814 1.38449 8.71313e-19)
(0.0509304 1.23746 0)
(0.0579503 1.08657 -1.1327e-18)
(0.192451 1.44352 -4.09361e-18)
(0.330079 1.55782 0)
(0.00866372 1.2902 1.19623e-19)
(-0.00972602 1.45729 -1.34063e-18)
(-0.0410242 1.30282 1.94899e-18)
(-0.0574617 1.41766 0)
(-0.0204916 1.38227 0)
(0.682592 1.05193 0)
(2.46128 2.45717 -1.06626e-18)
(2.63939 2.16873 3.95312e-19)
(2.78942 2.87738 0)
(3.21198 3.06297 -3.9446e-19)
(3.16308 2.40787 2.84238e-20)
(0.804875 0.590195 -1.82284e-18)
(1.55736 0.691925 -1.62309e-20)
(1.2339 0.451306 8.7211e-19)
(1.27672 0.84454 5.95115e-20)
(0.940014 0.634559 -2.3698e-18)
(1.46577 0.714747 0)
(1.99228 1.10053 1.45594e-18)
(2.03428 1.01642 0)
(1.4135 0.79141 0)
(1.06303 0.550152 0)
(3.37784 2.17957 1.00816e-18)
(3.94654 0.760043 -1.86305e-18)
(3.84648 1.21478 0)
(3.53191 0.756905 0)
(1.39225 0.364928 1.33236e-18)
(3.26064 1.84233 -8.51418e-19)
(2.83742 1.65493 1.54662e-18)
(3.75655 1.37647 -1.83543e-18)
(3.09797 0.114738 2.46357e-18)
(3.16858 0.180804 -2.57853e-18)
(2.66187 0.0916344 0)
(3.30726 -0.0395272 0)
(3.20138 -0.0842743 -2.36613e-18)
(2.63239 -0.0321193 2.34529e-18)
(3.95631 0.093146 0)
(3.75973 0.14561 0)
(3.69369 0.155357 0)
(3.58831 0.204733 0)
(3.83261 0.0590069 0)
(3.7261 0.0522342 0)
(-0.0414372 2.50491 0)
(-0.0385178 2.00607 0)
(0.35446 3.97706 -4.10763e-19)
(0.659714 3.31963 -1.6019e-19)
(0.257388 3.01507 -3.583e-19)
(0.341806 2.53626 5.73973e-19)
(0.45559 4.00322 0)
(0.468593 4.66925 -5.09573e-19)
(0.382537 4.72698 0)
(0.913358 4.38152 -3.7949e-19)
(0.676459 3.82785 9.69294e-19)
(0.596611 4.64831 4.46596e-19)
(0.738776 4.1905 -1.87447e-19)
(0.600201 4.31601 1.50802e-19)
(0.915805 4.65158 -6.63408e-19)
(0.748118 4.66094 0)
(0.859186 4.58753 5.04402e-19)
(0.00334503 4.57809 -1.81057e-19)
(-0.020765 3.65823 0)
(0.0988135 4.29597 5.49292e-19)
(-0.00557727 4.39892 0)
(-0.00521289 3.47195 -4.51271e-19)
(-0.0163053 2.92502 0)
(-0.105114 4.3037 -2.89031e-19)
(-0.111264 4.67947 0)
(-0.0562447 3.79978 0)
(-0.0436087 3.72256 3.25055e-19)
(-0.0503645 3.89479 1.03595e-20)
(-0.0375029 3.71872 6.25691e-19)
(-0.0426213 2.95797 4.06578e-21)
(-0.120017 4.70985 1.80059e-19)
(-0.109136 4.74146 1.03124e-19)
(-0.0187429 2.62527 0)
(-4.96634e-05 2.13852 0)
(-0.0461506 4.78882 4.85687e-19)
(-0.052392 4.30274 4.23221e-19)
(-0.0877191 4.5812 -5.53326e-19)
(0.0124578 4.75565 0)
(-0.0845705 4.52939 -3.08791e-19)
(-0.122878 4.16068 1.27532e-19)
(-0.0896829 4.24454 -4.12845e-20)
(-0.0767747 4.72805 -2.18732e-19)
(-0.0906954 4.26776 -6.84844e-20)
(-0.0884706 4.21406 3.0644e-19)
(2.87155 0.0609864 -2.36319e-18)
(2.85905 0.0496528 2.27265e-18)
(2.33873 0.034534 0)
(3.51049 0.191853 3.04601e-18)
(2.70411 0.126469 -3.30423e-18)
(2.25491 0.0644316 3.60901e-18)
(3.68296 0.335082 -4.01572e-19)
(3.20982 -0.0485563 0)
(3.17202 -0.0136018 2.23669e-18)
(2.69081 -0.0123974 -2.21906e-18)
(3.87854 0.12205 -1.25219e-19)
(3.7716 0.101717 1.07817e-18)
(4.15962 0.173229 0)
(4.22839 0.180885 -3.75073e-19)
(4.01382 0.145059 0)
(3.69509 0.155278 0)
(4.03232 0.0950145 0)
(3.71185 0.0872711 0)
(4.18472 0.113712 7.85376e-19)
(4.13723 0.0790027 -1.74765e-18)
(4.14058 0.113723 -8.47882e-19)
(4.18634 0.116355 -9.24345e-19)
(4.21556 0.228709 1.77379e-18)
(3.8545 0.188427 0)
(4.06096 0.301511 0)
(-0.0791676 4.57406 -1.35874e-19)
(-0.0376323 4.63866 -1.1692e-20)
(-0.0722532 4.65729 0)
(-0.0604931 4.18777 1.38283e-19)
(-0.0586303 4.21279 2.25521e-20)
(-0.0625034 4.07913 -2.18754e-20)
(-0.0828927 3.52507 2.60962e-19)
(-0.147976 4.00192 -1.45097e-20)
(-0.107157 4.13155 7.47082e-20)
(-0.0768766 3.39753 -1.3225e-19)
(-0.0261431 2.92139 1.58375e-19)
(-0.0819815 4.43267 5.18833e-21)
(-0.0955973 4.64205 1.72003e-19)
(1.24239 4.34919 3.47606e-19)
(1.15913 4.52236 7.25346e-19)
(1.73275 3.45532 4.3152e-19)
(1.30436 3.54688 1.69835e-19)
(1.28118 2.87758 0)
(0.551629 2.32978 2.75225e-19)
(0.465911 1.74985 3.31173e-19)
(0.346922 2.58056 1.52178e-20)
(0.49474 3.18864 -1.16173e-18)
(0.635867 3.14616 8.77427e-19)
(0.435346 2.41627 0)
(0.295465 1.98243 -5.58061e-19)
(0.260524 3.09195 1.39625e-18)
(0.274307 2.73276 -3.15729e-20)
(0.158568 2.28852 -1.75024e-18)
(0.594011 1.41633 1.46482e-18)
(0.579302 1.62382 0)
(3.58364 -0.075162 8.64229e-20)
(3.61861 -0.254112 -7.25879e-20)
(3.72134 -0.217728 -1.26639e-18)
(3.75926 -0.126037 1.28227e-18)
(3.67616 -0.0488738 0)
(2.44636 3.86594 0)
(2.61922 3.91101 0)
(2.89004 3.62113 0)
(2.73818 3.63991 0)
(0.856763 1.39795 -3.32649e-21)
(0.613289 1.04181 0)
(1.71584 3.3918 1.50245e-20)
(1.42675 3.47139 0)
(1.33255 2.95982 -1.28464e-18)
(1.41315 2.90106 8.24964e-19)
(1.79208 0.310467 0)
(1.43114 0.262095 3.5203e-19)
(2.4125 0.358818 2.19148e-18)
(1.78679 0.284839 -7.85336e-19)
(1.42684 0.112198 -2.49465e-18)
(4.2662 0.789316 -2.56497e-18)
(3.85312 0.994624 -3.6702e-20)
(3.29847 0.844333 2.06748e-18)
(3.87674 0.744988 1.81296e-18)
(3.12404 0.465532 -3.04456e-18)
(2.91124 0.452062 3.74932e-19)
(3.1938 0.682219 -8.18587e-19)
(2.97729 0.683205 0)
(3.75952 0.563622 1.53739e-18)
(4.09624 0.628867 0)
(4.09181 0.775815 0)
(4.04532 0.415475 8.23541e-19)
(4.29653 0.641959 -3.02626e-20)
(4.24889 0.715085 -4.52797e-19)
(4.176 0.642495 0)
(3.61593 0.130261 1.71789e-18)
(4.19005 0.183325 2.14383e-18)
(4.09081 0.151457 -1.67913e-18)
(4.1367 0.240576 -1.4426e-18)
(3.74604 0.237988 -2.15601e-18)
(3.30367 0.375825 0)
(3.40396 0.302204 0)
(2.55869 0.190586 -1.26586e-18)
(2.10905 0.119082 4.76695e-19)
(4.03748 0.352324 1.93999e-18)
(4.28759 0.432347 -2.34613e-18)
(4.28505 0.488956 2.06856e-18)
(4.15742 0.493 0)
(4.25652 0.336842 0)
(4.26635 0.32215 -9.81628e-19)
(4.21434 0.315815 -1.59623e-18)
(2.23255 3.49059 6.20348e-19)
(1.94382 3.2361 -6.83476e-19)
(1.45041 2.36053 -1.0323e-18)
(1.18977 2.00012 2.66942e-19)
(0.886344 1.38146 -2.63004e-18)
(0.795631 1.21799 9.22499e-19)
(0.60224 0.905944 -1.93489e-21)
(1.11769 1.78841 -1.13832e-18)
(1.14535 1.88606 1.6993e-18)
(0.976838 1.70312 5.06254e-19)
(0.787739 1.291 -5.12872e-19)
(0.636675 1.07621 0)
(2.45052 2.60907 -1.15426e-19)
(0.707078 1.14523 8.57548e-19)
(0.929534 0.891119 1.15649e-18)
(0.756824 0.814682 1.33823e-18)
(1.08469 0.747499 1.34139e-18)
(1.46934 1.04574 -2.27067e-18)
(1.38536 1.07278 1.83977e-18)
(1.0034 0.76667 -6.76927e-19)
(0.818161 0.568761 1.49496e-18)
(1.61667 0.491029 -7.78055e-19)
(1.56026 0.508682 0)
(1.24046 0.407599 4.61926e-21)
(2.51245 1.51689 7.75582e-19)
(2.08271 1.2713 -2.8087e-18)
(1.68937 1.18586 9.13973e-21)
(1.66318 1.09352 0)
(2.86623 2.59596 8.73643e-19)
(3.44802 2.75096 1.03704e-18)
(3.25744 2.92964 -1.19547e-18)
(3.55438 2.76114 -4.28217e-19)
(3.48309 2.5998 -1.3486e-19)
(3.51189 2.7916 1.38743e-19)
(3.67613 2.26545 -1.67896e-18)
(3.70527 2.49041 4.00722e-19)
(3.78305 2.43317 0)
(3.7835 2.18897 -5.79578e-19)
(4.04953 1.07265 5.80437e-19)
(4.27564 0.99221 1.00199e-18)
(4.30029 0.965914 1.01147e-18)
(4.0556 1.32839 -1.1494e-18)
(4.10244 1.34833 0)
(4.15191 1.23232 0)
(3.32968 1.23556 -1.55712e-20)
(2.41939 0.666667 0)
(2.72353 0.744094 9.30559e-19)
(3.23989 0.885679 -2.64263e-20)
(3.77432 1.53402 5.10634e-18)
(3.57174 1.76137 1.31083e-18)
(3.48301 1.54022 -1.34046e-18)
(3.0399 1.36994 1.43722e-18)
(2.7634 1.37009 8.23721e-19)
(2.30913 1.1566 -7.97757e-19)
(3.67218 -0.0855728 1.98435e-18)
(3.89469 -0.0289642 0)
(3.85894 -0.0665788 1.34188e-18)
(3.7429 -0.0594371 -2.98734e-18)
(3.98056 0.0373344 1.46176e-18)
(3.90445 0.113386 -3.08251e-18)
(3.73988 0.127992 0)
(3.55627 0.173445 -6.28458e-19)
(3.81198 0.122955 1.60505e-18)
(3.69196 0.191361 -8.22444e-19)
(3.60031 0.171056 5.90632e-19)
(-0.0818071 2.58685 0)
(-0.0496453 3.3917 0)
(-0.0330871 2.45624 0)
(-0.0223789 1.96684 0)
(0.043546 3.93144 6.70035e-19)
(0.138033 3.71147 -1.72878e-19)
(0.315092 4.63847 -2.29503e-19)
(0.250261 4.45069 2.42327e-19)
(-0.0287836 4.28714 -4.97066e-19)
(0.00847035 4.31917 3.73274e-19)
(0.0929047 3.85976 2.2356e-20)
(0.00729963 3.54715 -4.66788e-19)
(-0.0146535 3.30068 -6.22213e-20)
(-0.0422922 3.66342 -5.6683e-20)
(0.151144 4.48295 -5.86634e-19)
(0.176954 4.29881 0)
(0.273811 4.63998 2.96311e-19)
(0.266235 4.70989 2.5296e-19)
(0.595942 4.45018 -2.25914e-19)
(0.409823 3.79594 0)
(0.459104 3.64239 -1.1157e-18)
(0.562949 4.01125 7.90532e-19)
(0.480007 4.56675 -6.14715e-19)
(0.369792 4.44142 3.30716e-19)
(0.299844 4.16853 0)
(-0.039316 4.76341 -5.52637e-19)
(-0.0784233 4.53308 -6.41173e-19)
(-0.0801169 4.74283 0)
(-0.0322068 4.36767 -6.2483e-21)
(-0.0224619 4.64697 2.73996e-19)
(-0.122448 3.879 4.46911e-20)
(-0.0585789 3.48623 -6.53561e-19)
(-0.0997645 3.92425 1.74314e-19)
(-0.140971 4.51449 2.32072e-19)
(-0.0805713 4.32382 0)
(-0.0644742 3.88657 0)
(-0.0845499 2.90542 2.01022e-19)
(-0.0513522 3.63601 -6.27205e-20)
(-0.0765496 3.62225 0)
(-0.0899954 2.69201 1.58283e-19)
(-0.0475588 2.19954 -3.06682e-19)
(3.76097 0.0322735 0)
(3.73183 0.007673 -2.03249e-19)
(4.17948 0.0678387 -1.43975e-18)
(4.08904 0.0461903 0)
(3.87622 0.017711 0)
(4.14973 0.0369687 -1.25194e-20)
(4.10029 0.0348745 2.3786e-18)
(4.00013 0.0801216 2.84526e-18)
(3.75594 0.118595 0)
(3.55812 0.109987 0)
(4.01338 0.0938377 1.41727e-18)
(3.70336 0.116043 0)
(3.47224 0.128806 0)
(-0.0880067 4.69701 0)
(-0.113832 4.66511 1.06825e-20)
(-0.0845491 4.71636 6.29858e-20)
(-0.0657839 3.83652 0)
(-0.119026 4.53635 1.11175e-19)
(-0.0746967 4.24585 -6.33914e-20)
(-0.0598396 3.93679 0)
(1.41541 4.1923 0)
(1.20984 4.57705 -1.29735e-18)
(1.22616 4.48884 0)
(1.57504 4.48227 1.48412e-18)
(1.59132 4.11013 0)
(1.5003 4.36374 -6.06458e-19)
(1.01579 2.2499 -3.398e-20)
(0.712403 1.65133 -1.74645e-18)
(0.593063 1.23172 2.13069e-18)
(0.712278 1.8427 3.97284e-19)
(0.979784 2.43357 0)
(1.04132 2.38809 0)
(0.721608 1.69392 0)
(0.53475 1.33558 -1.39691e-18)
(1.21494 3.78412 -9.8396e-19)
(1.13411 2.99954 -2.35669e-19)
(1.33296 3.41452 1.92738e-19)
(0.602279 2.0504 0)
(0.623362 1.95119 0)
(0.464609 1.57845 -3.93285e-19)
(0.962309 2.73112 0)
(2.69035 3.57026 0)
(2.38645 3.0111 -1.45454e-18)
(2.55066 3.02864 -8.58647e-20)
(2.42504 3.40631 0)
(2.29142 3.15281 2.22109e-18)
(3.2799 3.08509 -3.89626e-19)
(3.13413 3.32117 0)
(3.11647 3.14736 6.30316e-19)
(2.87241 3.41138 0)
(2.88514 3.20062 0)
(1.21334 2.01165 -9.30945e-19)
(1.41878 2.4091 -6.99783e-19)
(1.75938 2.98778 1.20622e-18)
(1.70174 2.96637 -3.62394e-19)
(1.06604 1.8273 0)
(1.2111 2.21465 4.71334e-19)
(0.720704 1.29227 -7.15722e-19)
(0.583451 1.04646 -5.98312e-22)
(1.9437 3.70117 0)
(2.20481 3.74537 -5.42502e-19)
(2.34249 3.98639 0)
(2.28525 0.529019 0)
(1.61822 0.342004 0)
(1.20974 0.276697 0)
(2.21044 0.554341 -1.4651e-18)
(1.63634 0.40235 8.17183e-19)
(2.14623 0.129092 -9.85012e-19)
(2.62737 0.297464 0)
(2.46645 0.301607 4.13429e-19)
(1.77049 0.13571 1.63276e-18)
(1.53075 0.0812683 -1.03689e-18)
(0.747156 1.55814 8.58333e-19)
(0.96219 1.82316 0)
(0.538744 1.44185 1.56146e-18)
(0.525223 1.61631 -1.42575e-18)
(0.759222 1.81636 -9.8875e-19)
(2.07847 2.46564 1.33797e-18)
(2.10222 2.71553 0)
(1.58731 1.68067 -2.76414e-19)
(2.01405 1.99205 1.74523e-18)
(1.36274 1.29461 -4.23661e-19)
(1.59172 1.31535 4.50799e-19)
(2.11304 1.51478 1.02329e-18)
(2.44638 1.67231 0)
(2.28004 1.85803 0)
(2.01354 1.60798 0)
(3.95699 2.07779 3.8447e-19)
(3.7613 1.88879 -1.26327e-18)
(3.81872 2.02671 1.04642e-18)
(3.90206 1.77015 -1.00809e-18)
(4.15761 1.67231 0)
(4.11643 1.83915 -2.97781e-19)
(2.8429 1.16356 -1.89713e-18)
(2.97304 1.16351 -2.41269e-18)
(2.33427 1.04403 1.45631e-18)
(2.14031 0.93493 -1.4198e-18)
(2.46543 0.846399 -1.17803e-18)
(2.18043 0.777333 1.44873e-18)
(4.00844 0.0334296 -1.52867e-18)
(4.05275 0.0406333 3.12975e-18)
(3.76794 -0.0659219 1.90063e-18)
(3.79116 -0.0738154 -2.28645e-18)
(3.95951 0.0105026 0)
(4.05602 0.0228045 -3.72926e-18)
(0.0927089 4.76123 1.06581e-19)
(0.0636093 4.7294 0)
(0.1867 4.73161 9.52479e-19)
(0.208207 4.74817 -8.66526e-19)
(0.228062 4.71339 4.27991e-19)
(0.118871 4.65268 0)
(-0.108064 4.77 0)
(-0.113539 4.40336 -6.18894e-20)
(-0.112685 4.33414 5.54741e-20)
(-0.121501 4.48245 7.26087e-21)
(-0.112198 4.71936 -1.01156e-19)
(-0.0890372 4.7074 5.50286e-20)
(1.88089 4.01263 -1.64293e-18)
(1.8214 4.02016 1.74006e-18)
(1.6855 4.4031 -8.53769e-19)
(1.69766 4.28032 7.61343e-20)
(2.25289 4.08087 0)
(1.85352 4.21199 -6.35716e-19)
(1.98027 3.95122 6.16559e-19)
(1.82452 4.37441 8.33971e-19)
(2.07828 4.21676 0)
(2.23058 4.09719 0)
(1.14418 3.64125 1.49579e-18)
(0.831267 2.82315 2.02551e-18)
(0.95927 3.00125 -1.39105e-18)
(0.751039 2.98426 -2.32198e-19)
(0.907344 3.74332 4.66729e-19)
(0.726544 3.37702 -1.13513e-18)
(0.748689 1.47048 -1.21589e-18)
(0.748749 1.3209 0)
(0.604638 1.11792 -1.33638e-18)
(1.11496 2.07013 0)
(1.09215 2.15727 0)
(1.36245 2.19364 -1.09093e-18)
(1.06721 2.01703 -1.03633e-18)
(1.01954 2.03758 1.09905e-18)
(1.03404 1.52103 0)
(1.41401 1.76426 -6.01382e-19)
(1.63154 2.12206 -8.55539e-19)
(1.41474 2.08527 0)
(0.870226 1.82015 7.12721e-19)
(0.781993 1.68089 0)
(2.9102 2.2899 -1.84662e-18)
(3.32159 2.47027 2.60855e-18)
(3.28063 2.19291 -2.5927e-18)
(2.61429 2.02232 -2.31151e-19)
(2.72862 1.94128 -9.74031e-19)
(1.26537 2.19309 7.96423e-19)
(1.31978 2.24844 -1.36032e-18)
(1.45827 2.3329 1.79321e-18)
(1.79527 2.56315 -1.16549e-18)
(1.89464 2.93708 -1.5674e-18)
(1.56779 2.49289 -1.18813e-19)
(1.63797 2.63312 1.37165e-18)
(1.81531 2.69721 9.66412e-20)
(2.02362 3.00295 6.50143e-19)
)
;

boundaryField
{
    wall-4
    {
        type            noSlip;
    }
    velocity-inlet-5
    {
        type            fixedValue;
        value           uniform (3 0 0);
    }
    velocity-inlet-6
    {
        type            fixedValue;
        value           uniform (0 1 0);
    }
    pressure-outlet-7
    {
        type            zeroGradient;
    }
    wall-8
    {
        type            noSlip;
    }
    frontAndBackPlanes
    {
        type            empty;
    }
}


// ************************************************************************* //
