/*--------------------------------*- C++ -*----------------------------------*\
  =========                 |
  \\      /  F ield         | OpenFOAM: The Open Source CFD Toolbox
   \\    /   O peration     | Website:  https://openfoam.org
    \\  /    A nd           | Version:  9
     \\/     M anipulation  |
\*---------------------------------------------------------------------------*/
FoamFile
{
    format      ascii;
    class       surfaceScalarField;
    location    "8.2";
    object      phi;
}
// * * * * * * * * * * * * * * * * * * * * * * * * * * * * * * * * * * * * * //

dimensions      [0 3 -1 0 0 0 0];

internalField   nonuniform List<scalar> 
4432
(
2.41398e-08
-2.41398e-08
8.28276e-08
-5.86915e-08
1.55454e-07
-7.26324e-08
2.32926e-07
-7.74764e-08
3.13719e-07
-8.07979e-08
3.97354e-07
-8.36391e-08
4.83327e-07
-8.59779e-08
5.70381e-07
-8.70593e-08
6.54847e-07
-8.44715e-08
7.33487e-07
-7.86453e-08
8.08722e-07
-7.52392e-08
8.90416e-07
-8.16987e-08
9.93452e-07
-1.03038e-07
1.12629e-06
-1.32836e-07
1.27298e-06
-1.46692e-07
1.36527e-06
-9.22935e-08
1.27293e-06
9.23486e-08
9.4806e-07
3.24871e-07
3.55808e-07
5.92257e-07
-3.87114e-07
7.42928e-07
-7.58006e-07
3.70901e-07
-6.24065e-07
-1.33933e-07
-6.24058e-07
4.01687e-08
-6.43161e-08
1.01126e-07
-1.19656e-07
1.733e-07
-1.44815e-07
2.51559e-07
-1.55744e-07
3.32814e-07
-1.6206e-07
4.15699e-07
-1.66533e-07
4.99393e-07
-1.69679e-07
5.82316e-07
-1.69991e-07
6.61469e-07
-1.63632e-07
7.33954e-07
-1.51138e-07
8.00536e-07
-1.41826e-07
8.67077e-07
-1.48243e-07
9.41882e-07
-1.77844e-07
1.02827e-06
-2.19228e-07
1.11318e-06
-2.31597e-07
1.15267e-06
-1.31777e-07
1.06691e-06
1.78114e-07
8.02135e-07
5.89654e-07
4.08613e-07
9.85791e-07
-3.6283e-08
1.18784e-06
-3.62538e-07
6.97168e-07
-4.61903e-07
-3.45555e-08
-1.08596e-06
5.32797e-08
-1.17602e-07
1.16792e-07
-1.83173e-07
1.87518e-07
-2.15546e-07
2.63921e-07
-2.32152e-07
3.43001e-07
-2.41144e-07
4.23064e-07
-2.466e-07
5.03106e-07
-2.49724e-07
5.81488e-07
-2.48376e-07
6.55193e-07
-2.37341e-07
7.20881e-07
-2.16828e-07
7.77881e-07
-1.98827e-07
8.29381e-07
-1.99743e-07
8.80674e-07
-2.29137e-07
9.3402e-07
-2.72573e-07
9.81438e-07
-2.79013e-07
9.93124e-07
-1.43461e-07
9.07237e-07
2.64004e-07
6.86945e-07
8.09951e-07
4.21027e-07
1.25172e-06
1.71847e-07
1.43702e-06
-1.07557e-07
9.76578e-07
-2.84804e-07
1.42698e-07
-1.37076e-06
6.22251e-08
-1.79831e-07
1.2933e-07
-2.50281e-07
2.00112e-07
-2.8633e-07
2.75034e-07
-3.07077e-07
3.51794e-07
-3.17904e-07
4.28739e-07
-3.23544e-07
5.04895e-07
-3.25878e-07
5.78709e-07
-3.22187e-07
6.46971e-07
-3.05602e-07
7.05615e-07
-2.7547e-07
7.52608e-07
-2.45818e-07
7.89201e-07
-2.36334e-07
8.1911e-07
-2.59045e-07
8.45056e-07
-2.98518e-07
8.65236e-07
-2.99192e-07
8.65829e-07
-1.44054e-07
7.94378e-07
3.35455e-07
6.20953e-07
9.83375e-07
4.34619e-07
1.43805e-06
2.93995e-07
1.57765e-06
7.35354e-08
1.19704e-06
-1.1823e-07
3.34464e-07
-1.489e-06
6.83613e-08
-2.48195e-07
1.3932e-07
-3.2124e-07
2.11297e-07
-3.58306e-07
2.85382e-07
-3.8116e-07
3.59917e-07
-3.92436e-07
4.33519e-07
-3.9714e-07
5.05452e-07
-3.97805e-07
5.74393e-07
-3.91122e-07
6.36953e-07
-3.68156e-07
6.88231e-07
-3.26742e-07
7.24944e-07
-2.82526e-07
7.46835e-07
-2.5822e-07
7.56708e-07
-2.68914e-07
7.58073e-07
-2.99882e-07
7.54506e-07
-2.95625e-07
7.49677e-07
-1.39226e-07
7.05425e-07
3.79705e-07
5.7657e-07
1.11223e-06
4.47871e-07
1.56675e-06
3.70361e-07
1.65515e-06
2.03999e-07
1.36339e-06
4.37172e-08
4.94741e-07
-1.44529e-06
7.31924e-08
-3.21388e-07
1.47748e-07
-3.95794e-07
2.21339e-07
-4.31895e-07
2.949e-07
-4.54719e-07
3.6713e-07
-4.64662e-07
4.36982e-07
-4.66987e-07
5.04101e-07
-4.64917e-07
5.67563e-07
-4.54576e-07
6.23933e-07
-4.24519e-07
6.6754e-07
-3.70342e-07
6.94038e-07
-3.09018e-07
7.01916e-07
-2.66093e-07
6.9328e-07
-2.60274e-07
6.7196e-07
-2.7856e-07
6.44908e-07
-2.68572e-07
6.27667e-07
-1.21986e-07
6.24217e-07
3.83152e-07
5.36733e-07
1.19971e-06
4.59337e-07
1.64414e-06
4.25814e-07
1.68867e-06
3.04056e-07
1.48514e-06
2.1139e-07
5.874e-07
-1.2339e-06
7.76765e-08
-3.99063e-07
1.5542e-07
-4.73535e-07
2.30421e-07
-5.06892e-07
3.03338e-07
-5.27633e-07
3.72904e-07
-5.34226e-07
4.38364e-07
-5.32444e-07
4.99797e-07
-5.26345e-07
5.56845e-07
-5.11619e-07
6.06276e-07
-4.73945e-07
6.41913e-07
-4.05975e-07
6.58639e-07
-3.2574e-07
6.5389e-07
-2.6134e-07
6.29026e-07
-2.35408e-07
5.87423e-07
-2.36955e-07
5.36868e-07
-2.18017e-07
4.96847e-07
-8.19652e-08
5.11576e-07
3.68422e-07
5.00048e-07
1.21123e-06
4.82661e-07
1.66152e-06
4.57914e-07
1.71341e-06
4.27679e-07
1.51537e-06
4.15467e-07
5.99605e-07
-8.18441e-07
8.25069e-08
-4.81569e-07
1.62792e-07
-5.53818e-07
2.3864e-07
-5.82739e-07
3.10369e-07
-5.99364e-07
3.76649e-07
-6.00509e-07
4.36889e-07
-5.92688e-07
4.91524e-07
-5.80984e-07
5.40878e-07
-5.60978e-07
5.82319e-07
-5.1539e-07
6.09656e-07
-4.33316e-07
6.17453e-07
-3.3354e-07
6.02293e-07
-2.46183e-07
5.64703e-07
-1.97821e-07
5.06951e-07
-1.79206e-07
4.3635e-07
-1.47417e-07
3.72232e-07
-1.78479e-08
3.67741e-07
3.72913e-07
4.42351e-07
1.13662e-06
4.98488e-07
1.60539e-06
4.88527e-07
1.72338e-06
5.85718e-07
1.41818e-06
5.97566e-07
5.87757e-07
-2.20869e-07
-1.22124e-06
1.22124e-06
-7.74556e-07
-4.46709e-07
-1.12647e-07
-6.61881e-07
3.24364e-07
-4.37021e-07
6.22166e-07
-2.97792e-07
8.15384e-07
-1.93219e-07
9.2154e-07
-1.06149e-07
1.05619e-06
-1.34644e-07
1.13501e-06
-7.88235e-08
1.01223e-06
1.22785e-07
6.32254e-07
3.79977e-07
-1.38176e-07
7.70432e-07
-9.33295e-07
7.95118e-07
-1.17922e-06
2.45919e-07
-1.13392e-06
-4.52944e-08
-8.83667e-07
-2.5026e-07
-6.47836e-07
-2.35835e-07
-1.9992e-07
-4.47919e-07
-1.99924e-07
-8.16633e-07
2.03791e-06
-4.05549e-07
-8.57826e-07
-3.75836e-08
-1.02982e-06
2.10373e-07
-6.84985e-07
3.60057e-07
-4.47463e-07
4.57165e-07
-2.90328e-07
5.58502e-07
-2.07478e-07
6.34609e-07
-2.10746e-07
6.0602e-07
-5.02352e-08
4.22671e-07
3.06139e-07
1.65346e-07
6.37299e-07
-1.85828e-07
1.12161e-06
-5.41818e-07
1.15111e-06
-7.99268e-07
5.03365e-07
-8.84937e-07
4.03706e-08
-8.45296e-07
-2.89907e-07
-8.3101e-07
-2.50127e-07
-5.86488e-07
-6.92446e-07
-7.86415e-07
-3.03292e-07
2.34123e-06
-1.00198e-07
-1.06095e-06
3.26095e-08
-1.1626e-06
1.34177e-07
-7.86559e-07
1.95548e-07
-5.08825e-07
2.38997e-07
-3.33779e-07
2.93732e-07
-2.6221e-07
3.30023e-07
-2.47035e-07
2.67835e-07
1.19515e-08
7.22547e-08
5.01722e-07
-1.26554e-07
8.36106e-07
-2.44188e-07
1.23924e-06
-3.5575e-07
1.26267e-06
-5.6388e-07
7.11492e-07
-6.95791e-07
1.72279e-07
-7.55826e-07
-2.29875e-07
-9.02017e-07
-1.0394e-07
-7.96575e-07
-7.9789e-07
-1.58299e-06
1.56536e-07
2.18471e-06
1.30604e-07
-1.03504e-06
7.70184e-08
-1.10901e-06
6.02394e-08
-7.69787e-07
5.22472e-08
-5.00829e-07
4.89774e-08
-3.30513e-07
6.41376e-08
-2.77372e-07
7.4972e-08
-2.57868e-07
9.67008e-09
7.72504e-08
-1.596e-07
6.70994e-07
-3.00141e-07
9.76647e-07
-3.10648e-07
1.24975e-06
-3.04664e-07
1.25668e-06
-4.33983e-07
8.40811e-07
-5.39695e-07
2.77991e-07
-6.13287e-07
-1.56284e-07
-8.24407e-07
1.07178e-07
-7.50224e-07
-8.72075e-07
-2.33322e-06
4.99554e-07
1.68517e-06
2.67709e-07
-8.0322e-07
7.53605e-08
-9.16653e-07
-2.53238e-08
-6.6911e-07
-8.59013e-08
-4.40252e-07
-1.29886e-07
-2.86533e-07
-1.47598e-07
-2.59664e-07
-1.50639e-07
-2.54828e-07
-1.96966e-07
1.23574e-07
-3.27521e-07
8.01551e-07
-4.08296e-07
1.05742e-06
-3.66691e-07
1.20814e-06
-3.14357e-07
1.20435e-06
-3.85759e-07
9.12215e-07
-3.98223e-07
2.90455e-07
-4.11695e-07
-1.42812e-07
-5.85803e-07
2.81286e-07
-5.4192e-07
-9.15958e-07
-2.87514e-06
5.93052e-07
1.09213e-06
2.82337e-07
-4.92521e-07
2.44677e-08
-6.58785e-07
-1.25627e-07
-5.19022e-07
-2.23723e-07
-3.42156e-07
-3.00725e-07
-2.09534e-07
-3.49521e-07
-2.10872e-07
-3.62192e-07
-2.42158e-07
-3.78171e-07
1.39549e-07
-4.60573e-07
8.83953e-07
-4.86451e-07
1.0833e-06
-4.11671e-07
1.13336e-06
-3.29692e-07
1.12237e-06
-3.56692e-07
9.39216e-07
-2.85701e-07
2.19464e-07
-1.79084e-07
-2.49429e-07
-2.36083e-07
3.38284e-07
-2.56155e-07
-8.95886e-07
-3.13129e-06
4.78985e-07
6.13144e-07
1.93425e-07
-2.06974e-07
-6.62547e-08
-3.99111e-07
-2.37331e-07
-3.4795e-07
-3.58575e-07
-2.20912e-07
-4.61287e-07
-1.06822e-07
-5.39717e-07
-1.32444e-07
-5.67318e-07
-2.14557e-07
-5.47864e-07
1.20093e-07
-5.57056e-07
8.93145e-07
-5.42638e-07
1.06888e-06
-4.42503e-07
1.03323e-06
-3.39115e-07
1.01899e-06
-3.03975e-07
9.04077e-07
-1.52968e-07
6.84559e-08
8.52134e-09
-4.1092e-07
8.59184e-08
2.60886e-07
7.19004e-08
-8.81868e-07
-3.05939e-06
2.56904e-07
3.56237e-07
5.34929e-08
-3.56407e-09
-1.7853e-07
-1.67088e-07
-3.54413e-07
-1.72066e-07
-4.86964e-07
-8.8357e-08
-6.06511e-07
1.27291e-08
-7.0907e-07
-2.98814e-08
-7.70793e-07
-1.52831e-07
-7.16248e-07
6.55501e-08
-6.3426e-07
8.11158e-07
-5.70666e-07
1.00529e-06
-4.49446e-07
9.12008e-07
-3.34791e-07
9.0433e-07
-1.9815e-07
7.67434e-07
-1.66477e-09
-1.28034e-07
1.46715e-07
-5.59304e-07
3.68287e-07
3.93103e-08
3.50669e-07
-8.64253e-07
-2.70872e-06
1.96685e-07
-6.78253e-07
3.72227e-07
-7.29361e-07
5.33112e-07
-7.43625e-07
6.78391e-07
-7.44645e-07
8.05567e-07
-7.2769e-07
9.13536e-07
-7.00662e-07
1.00268e-06
-6.70135e-07
1.07651e-06
-6.34815e-07
1.13404e-06
-5.72924e-07
1.16301e-06
-4.62291e-07
1.15454e-06
-3.25075e-07
1.09749e-06
-1.89133e-07
9.9191e-07
-9.22474e-08
8.35881e-07
-2.31789e-08
6.42771e-07
4.56929e-08
4.61209e-07
1.63715e-07
4.17681e-07
4.16442e-07
6.52109e-07
9.02197e-07
9.56915e-07
1.30058e-06
1.25484e-06
1.42545e-06
1.55333e-06
1.11969e-06
1.51203e-06
6.29055e-07
3.81828e-07
9.0934e-07
2.36022e-07
-9.14278e-07
4.06191e-07
-8.99534e-07
5.44207e-07
-8.81646e-07
6.73626e-07
-8.7407e-07
7.87132e-07
-8.41203e-07
8.70268e-07
-7.83806e-07
9.17662e-07
-7.17536e-07
9.30782e-07
-6.47941e-07
9.19014e-07
-5.6116e-07
8.96482e-07
-4.39762e-07
8.70093e-07
-2.98687e-07
8.30681e-07
-1.49721e-07
7.5611e-07
-1.76738e-08
6.3209e-07
1.00846e-07
4.60779e-07
2.1701e-07
2.79417e-07
3.45084e-07
1.94987e-07
5.0088e-07
3.85821e-07
7.11372e-07
7.72689e-07
9.13721e-07
1.18523e-06
1.01291e-06
1.37163e-06
9.33296e-07
1.20103e-06
7.99655e-07
7.86922e-07
7.9595e-07
6.26409e-08
-9.76915e-07
1.56726e-07
-9.93541e-07
2.8365e-07
-1.00846e-06
3.55324e-07
-9.4564e-07
4.10611e-07
-8.96393e-07
4.75008e-07
-8.48114e-07
5.19993e-07
-7.62439e-07
5.01261e-07
-6.29137e-07
4.29202e-07
-4.89039e-07
3.7426e-07
-3.84768e-07
3.6419e-07
-2.88573e-07
3.9542e-07
-1.80917e-07
4.01029e-07
-2.32564e-08
3.40794e-07
1.61099e-07
2.04438e-07
3.53372e-07
3.45796e-08
5.14939e-07
-5.11783e-08
5.86624e-07
1.60486e-07
4.9968e-07
5.74977e-07
4.9919e-07
1.01069e-06
5.77151e-07
1.20135e-06
7.42564e-07
1.03174e-06
9.69173e-07
1.13204e-06
6.86472e-07
-1.06867e-06
9.17855e-08
-1.49927e-07
-1.91257e-06
1.9627e-07
-1.35464e-06
5.89553e-09
-7.5523e-07
-3.5603e-07
-5.3445e-07
-2.21466e-07
-9.82687e-07
5.59863e-08
-1.03991e-06
2.31654e-07
-8.04832e-07
2.161e-07
-4.73516e-07
2.0165e-07
-3.7035e-07
2.22972e-07
-3.09925e-07
2.60064e-07
-2.18039e-07
3.38511e-07
-1.01734e-07
3.24514e-07
1.75069e-07
1.07022e-07
5.7084e-07
3.52375e-08
5.867e-07
2.29125e-07
3.92712e-07
5.12818e-07
2.15952e-07
5.38067e-07
4.73883e-07
8.67221e-07
2.47926e-07
1.09535e-06
5.14336e-07
1.112e-06
9.52396e-07
1.3093e-06
9.34613e-07
-1.30304e-06
1.3952e-06
-1.15522e-06
-2.0602e-06
-2.34291e-06
-1.67088e-07
-4.10354e-06
1.00527e-06
-5.01249e-06
3.74358e-07
-4.96257e-06
-1.03276e-06
-3.90561e-06
-2.09702e-06
-2.72944e-06
-1.98115e-06
-1.97453e-06
-1.22854e-06
-1.31753e-06
-1.02745e-06
-6.78342e-07
-9.49178e-07
1.07854e-08
-9.07206e-07
9.7319e-07
-1.06415e-06
1.92171e-06
-7.73421e-07
2.35248e-06
1.40133e-07
2.72807e-06
2.11205e-07
2.91108e-06
2.09803e-07
2.75554e-06
3.71605e-07
1.49851e-06
1.73099e-06
6.96458e-07
1.05e-06
4.53151e-07
7.57632e-07
5.13483e-07
8.92044e-07
1.3989e-06
4.24011e-07
3.23108e-06
-1.83596e-06
2.19668e-06
-1.02571e-06
1.31226e-07
1.89834e-06
-6.56013e-07
1.79254e-06
-5.40954e-07
2.59357e-07
-1.39162e-06
-1.82004e-07
-2.08696e-06
-1.40153e-06
-2.31333e-06
-1.75464e-06
-2.06438e-06
-1.47735e-06
-1.86022e-06
-1.23147e-06
-1.77205e-06
-1.03723e-06
-1.67591e-06
-1.00326e-06
-1.24205e-06
-1.49794e-06
-4.81634e-07
-1.53378e-06
4.2908e-07
-7.70559e-07
5.70865e-07
6.94293e-08
-1.56624e-07
9.37271e-07
-8.20668e-07
1.03561e-06
-1.04722e-06
1.95748e-06
-1.82614e-06
1.82883e-06
-2.44114e-06
1.37261e-06
-2.70405e-06
1.15519e-06
1.08248e-06
-2.3873e-06
-2.66527e-07
-1.56913e-06
-1.14407e-06
-1.4801e-07
-9.34383e-07
1.68894e-06
-7.3676e-07
1.5952e-06
-9.14577e-07
4.37462e-07
-1.11786e-06
2.15678e-08
-1.69959e-06
-8.19541e-07
-2.23842e-06
-1.21559e-06
-2.53234e-06
-1.18326e-06
-2.74353e-06
-1.02018e-06
-2.95757e-06
-8.23146e-07
-3.09317e-06
-8.67682e-07
-2.7586e-06
-1.83261e-06
-2.07962e-06
-2.21291e-06
-1.42007e-06
-1.43031e-06
-1.25595e-06
-9.49512e-08
-1.38761e-06
1.06862e-06
-1.97704e-06
1.62467e-06
-2.33523e-06
2.3152e-06
-2.93364e-06
2.42657e-06
-3.47332e-06
1.91143e-06
-3.59257e-06
1.27361e-06
1.20057e-06
-3.71161e-06
-1.42408e-06
-1.44881e-07
-1.91744e-06
3.45349e-07
-1.50669e-06
1.27833e-06
-1.17024e-06
1.2589e-06
-1.35034e-06
6.17722e-07
-1.49039e-06
1.61766e-07
-1.9109e-06
-3.98904e-07
-2.40709e-06
-7.19294e-07
-2.76328e-06
-8.26994e-07
-2.98477e-06
-7.98648e-07
-3.09771e-06
-7.1022e-07
-3.07998e-06
-8.85457e-07
-3.1555e-06
-1.75719e-06
-3.28967e-06
-2.07888e-06
-3.30924e-06
-1.41091e-06
-3.18488e-06
-2.19502e-07
-2.99047e-06
8.73998e-07
-3.08814e-06
1.72214e-06
-3.12577e-06
2.35262e-06
-3.17521e-06
2.47568e-06
-3.37771e-06
2.1134e-06
-3.70895e-06
1.60424e-06
1.31649e-06
-3.8256e-06
-7.15775e-07
5.70781e-07
-1.29091e-06
9.20362e-07
-1.33168e-06
1.31904e-06
-1.29985e-06
1.22703e-06
-1.48665e-06
8.04496e-07
-1.69381e-06
3.68909e-07
-2.04758e-06
-4.51481e-08
-2.44509e-06
-3.21791e-07
-2.74076e-06
-5.31319e-07
-2.91747e-06
-6.21927e-07
-2.97595e-06
-6.51728e-07
-3.00251e-06
-8.58882e-07
-3.39839e-06
-1.36128e-06
-3.94709e-06
-1.53016e-06
-4.29093e-06
-1.06703e-06
-4.25224e-06
-2.5814e-07
-4.04374e-06
6.65584e-07
-3.86727e-06
1.54582e-06
-3.66628e-06
2.15189e-06
-3.52506e-06
2.33478e-06
-3.55001e-06
2.1387e-06
-3.70433e-06
1.7589e-06
1.38004e-06
-3.7675e-06
-6.53684e-07
1.22431e-06
-1.05328e-06
1.31986e-06
-1.1706e-06
1.43626e-06
-1.26e-06
1.31633e-06
-1.45271e-06
9.97108e-07
-1.70107e-06
6.1718e-07
-2.01344e-06
2.67132e-07
-2.32968e-06
-5.6257e-09
-2.58597e-06
-2.7509e-07
-2.77943e-06
-4.28507e-07
-2.93186e-06
-4.99311e-07
-3.13892e-06
-6.518e-07
-3.56731e-06
-9.3285e-07
-4.08847e-06
-1.00891e-06
-4.42649e-06
-7.28901e-07
-4.51079e-06
-1.73709e-07
-4.39677e-06
5.51741e-07
-4.1594e-06
1.3087e-06
-3.88079e-06
1.87361e-06
-3.65444e-06
2.10887e-06
-3.5508e-06
2.0356e-06
-3.55276e-06
1.76143e-06
1.36698e-06
-3.53906e-06
-4.29645e-07
1.65389e-06
-7.66845e-07
1.65704e-06
-9.59003e-07
1.62838e-06
-1.11781e-06
1.47508e-06
-1.31993e-06
1.19915e-06
-1.57238e-06
8.69541e-07
-1.84889e-06
5.43553e-07
-2.10984e-06
2.55229e-07
-2.3619e-06
-2.31193e-08
-2.59832e-06
-1.92156e-07
-2.84158e-06
-2.56104e-07
-3.12024e-06
-3.7317e-07
-3.52519e-06
-5.27907e-07
-3.97145e-06
-5.62641e-07
-4.28355e-06
-4.16766e-07
-4.37454e-06
-8.2679e-08
-4.27882e-06
4.56076e-07
-4.07032e-06
1.10028e-06
-3.80259e-06
1.60602e-06
-3.54746e-06
1.85393e-06
-3.35546e-06
1.84385e-06
-3.22595e-06
1.63221e-06
1.24792e-06
-3.10658e-06
-3.24888e-07
1.97878e-06
-5.88991e-07
1.9212e-06
-7.81889e-07
1.82131e-06
-9.57445e-07
1.65064e-06
-1.15697e-06
1.39866e-06
-1.38561e-06
1.09814e-06
-1.62405e-06
7.81941e-07
-1.85134e-06
4.8245e-07
-2.10552e-06
2.31005e-07
-2.38371e-06
8.59813e-08
-2.65578e-06
1.59152e-08
-2.94967e-06
-7.93198e-08
-3.3039e-06
-1.73709e-07
-3.66975e-06
-1.96813e-07
-3.94069e-06
-1.45848e-07
-4.05063e-06
2.72413e-08
-3.99384e-06
3.99243e-07
-3.80005e-06
9.06448e-07
-3.56216e-06
1.36808e-06
-3.30226e-06
1.59401e-06
-3.05515e-06
1.59674e-06
-2.83196e-06
1.40901e-06
1.03959e-06
-2.62364e-06
-2.3625e-07
2.21507e-06
-4.48092e-07
2.13315e-06
-6.26374e-07
1.99967e-06
-7.96511e-07
1.82083e-06
-9.81492e-07
1.58367e-06
-1.18609e-06
1.30274e-06
-1.39239e-06
9.88233e-07
-1.60668e-06
6.96727e-07
-1.86126e-06
4.85562e-07
-2.14379e-06
3.68484e-07
-2.40833e-06
2.80436e-07
-2.68079e-06
1.93111e-07
-2.97299e-06
1.18467e-07
-3.25658e-06
8.67446e-08
-3.49548e-06
9.3028e-08
-3.63978e-06
1.71495e-07
-3.63586e-06
3.95255e-07
-3.48465e-06
7.5516e-07
-3.2745e-06
1.15783e-06
-3.0198e-06
1.3392e-06
-2.75444e-06
1.33125e-06
-2.49865e-06
1.15307e-06
8.12921e-07
-2.27214e-06
-1.64694e-07
2.37983e-06
-3.32984e-07
2.30157e-06
-4.89882e-07
2.15666e-06
-6.44111e-07
1.97513e-06
-8.09478e-07
1.74908e-06
-9.91505e-07
1.4848e-06
-1.1812e-06
1.17794e-06
-1.39709e-06
9.1263e-07
-1.64577e-06
7.34241e-07
-1.9001e-06
6.22811e-07
-2.14143e-06
5.21748e-07
-2.37852e-06
4.30186e-07
-2.61454e-06
3.54458e-07
-2.83472e-06
3.06884e-07
-3.03355e-06
2.91808e-07
-3.18425e-06
3.22137e-07
-3.23175e-06
4.42684e-07
-3.16214e-06
6.85458e-07
-2.97743e-06
9.73009e-07
-2.7417e-06
1.10334e-06
-2.49103e-06
1.08043e-06
-2.2527e-06
9.14574e-07
6.181e-07
-2.05807e-06
-1.11134e-07
2.49105e-06
-2.40898e-07
2.43146e-06
-3.74343e-07
2.29019e-06
-5.09952e-07
2.1108e-06
-6.55778e-07
1.89496e-06
-8.1757e-07
1.64662e-06
-1.00638e-06
1.36678e-06
-1.22021e-06
1.12647e-06
-1.45207e-06
9.66107e-07
-1.67262e-06
8.4337e-07
-1.88346e-06
7.32572e-07
-2.08607e-06
6.32772e-07
-2.28018e-06
5.48534e-07
-2.45979e-06
4.8645e-07
-2.61849e-06
4.50446e-07
-2.74919e-06
4.52766e-07
-2.82617e-06
5.1959e-07
-2.805e-06
6.64194e-07
-2.6623e-06
8.30193e-07
-2.46553e-06
9.06449e-07
-2.25233e-06
8.67104e-07
-2.05358e-06
7.15685e-07
4.65145e-07
-1.90078e-06
-7.29621e-08
2.56409e-06
-1.71222e-07
2.52982e-06
-2.83275e-07
2.40232e-06
-4.02972e-07
2.23056e-06
-5.33478e-07
2.02551e-06
-6.81092e-07
1.79428e-06
-8.62464e-07
1.54818e-06
-1.06729e-06
1.33132e-06
-1.27106e-06
1.1699e-06
-1.46292e-06
1.03523e-06
-1.64516e-06
9.14809e-07
-1.81856e-06
8.06152e-07
-1.98208e-06
7.12028e-07
-2.13228e-06
6.36606e-07
-2.26601e-06
5.84128e-07
-2.37641e-06
5.63106e-07
-2.44377e-06
5.86884e-07
-2.4359e-06
6.56244e-07
-2.33974e-06
7.33951e-07
-2.19051e-06
7.57138e-07
-2.02376e-06
7.00265e-07
-1.86904e-06
5.60877e-07
3.497e-07
-1.75369e-06
-4.56657e-08
2.60982e-06
-1.21136e-07
2.60536e-06
-2.18478e-07
2.49972e-06
-3.25854e-07
2.33798e-06
-4.44951e-07
2.14465e-06
-5.81875e-07
1.93124e-06
-7.45697e-07
1.71204e-06
-9.26756e-07
1.5124e-06
-1.10297e-06
1.34613e-06
-1.27022e-06
1.2025e-06
-1.42817e-06
1.07276e-06
-1.57727e-06
9.5525e-07
-1.71656e-06
8.51309e-07
-1.8437e-06
7.63727e-07
-1.95558e-06
6.95968e-07
-2.04564e-06
6.53136e-07
-2.09925e-06
6.40451e-07
-2.09693e-06
6.53886e-07
-2.03216e-06
6.69135e-07
-1.92488e-06
6.49808e-07
-1.80116e-06
5.765e-07
-1.68563e-06
4.45307e-07
2.64155e-07
-1.60013e-06
-2.9366e-08
2.63923e-06
-9.29445e-08
2.66899e-06
-1.78088e-07
2.58491e-06
-2.73898e-07
2.43384e-06
-3.81634e-07
2.25243e-06
-5.05252e-07
2.05489e-06
-6.47226e-07
1.85404e-06
-8.00149e-07
1.66535e-06
-9.5148e-07
1.49748e-06
-1.09576e-06
1.34679e-06
-1.23211e-06
1.20913e-06
-1.36012e-06
1.08326e-06
-1.47874e-06
9.69926e-07
-1.58595e-06
8.70927e-07
-1.67855e-06
7.88562e-07
-1.75081e-06
7.25374e-07
-1.79281e-06
6.8243e-07
-1.79342e-06
6.54471e-07
-1.74986e-06
6.2556e-07
-1.67433e-06
5.7425e-07
-1.58496e-06
4.87108e-07
-1.50045e-06
3.60766e-07
2.00931e-07
-1.43726e-06
-2.44941e-08
2.66375e-06
-8.41392e-08
2.72869e-06
-1.56144e-07
2.65696e-06
-2.3919e-07
2.51693e-06
-3.33659e-07
2.34695e-06
-4.41057e-07
2.16233e-06
-5.61209e-07
1.97423e-06
-6.88917e-07
1.79309e-06
-8.16391e-07
1.62498e-06
-9.39206e-07
1.46962e-06
-1.05562e-06
1.32555e-06
-1.16458e-06
1.19223e-06
-1.26483e-06
1.07017e-06
-1.35439e-06
9.60484e-07
-1.4303e-06
8.64465e-07
-1.48797e-06
7.8302e-07
-1.52092e-06
7.15363e-07
-1.52306e-06
6.56593e-07
-1.49374e-06
5.96213e-07
-1.4408e-06
5.21278e-07
-1.37672e-06
4.23001e-07
-1.31503e-06
2.99041e-07
1.53528e-07
-1.26768e-06
-2.78955e-08
2.69167e-06
-8.26492e-08
2.78351e-06
-1.43265e-07
2.71763e-06
-2.13701e-07
2.58742e-06
-2.94148e-07
2.42744e-06
-3.84798e-07
2.25303e-06
-4.8462e-07
2.07409e-06
-5.89948e-07
1.89845e-06
-6.9581e-07
1.73086e-06
-7.9873e-07
1.57255e-06
-8.96694e-07
1.42351e-06
-9.88277e-07
1.28381e-06
-1.07201e-06
1.15389e-06
-1.14599e-06
1.03444e-06
-1.20762e-06
9.26078e-07
-1.25344e-06
8.28807e-07
-1.27931e-06
7.4121e-07
-1.28204e-06
6.59284e-07
-1.26196e-06
5.76092e-07
-1.22441e-06
4.83682e-07
-1.17797e-06
3.7651e-07
-1.13217e-06
2.53183e-07
1.16754e-07
-1.09547e-06
-3.47583e-08
2.72646e-06
-8.08111e-08
2.82963e-06
-1.32599e-07
2.76948e-06
-1.91898e-07
2.64678e-06
-2.58921e-07
2.49452e-06
-3.33644e-07
2.3278e-06
-4.1508e-07
2.15556e-06
-5.00731e-07
1.98412e-06
-5.8733e-07
1.81747e-06
-6.72172e-07
1.6574e-06
-7.53291e-07
1.50463e-06
-8.29112e-07
1.35962e-06
-8.98077e-07
1.22283e-06
-9.58392e-07
1.09473e-06
-1.00788e-06
9.75534e-07
-1.04398e-06
8.64872e-07
-1.06411e-06
7.61289e-07
-1.06662e-06
6.61745e-07
-1.05224e-06
5.61662e-07
-1.02474e-06
4.56121e-07
-9.9003e-07
3.4173e-07
-9.54728e-07
2.17807e-07
8.66642e-08
-9.24724e-07
-4.24732e-08
2.76898e-06
-7.76904e-08
2.86493e-06
-1.22391e-07
2.81425e-06
-1.71558e-07
2.69601e-06
-2.25942e-07
2.54896e-06
-2.85895e-07
2.38779e-06
-3.50868e-07
2.22057e-06
-4.19257e-07
2.05254e-06
-4.88853e-07
1.88709e-06
-5.57549e-07
1.7261e-06
-6.23554e-07
1.57063e-06
-6.85288e-07
1.42134e-06
-7.41204e-07
1.27873e-06
-7.89655e-07
1.14316e-06
-8.28839e-07
1.01468e-06
-8.56875e-07
8.92864e-07
-8.72112e-07
7.76478e-07
-8.73753e-07
6.63332e-07
-8.62592e-07
5.50444e-07
-8.41321e-07
4.34786e-07
-8.14024e-07
3.14365e-07
-7.85264e-07
1.88973e-07
6.04056e-08
-7.59088e-07
-4.59739e-08
2.815e-06
-7.67606e-08
2.8958e-06
-1.13547e-07
2.8511e-06
-1.52251e-07
2.73477e-06
-1.94276e-07
2.59103e-06
-2.40452e-07
2.43401e-06
-2.9067e-07
2.27082e-06
-3.43925e-07
2.10582e-06
-3.98654e-07
1.94183e-06
-4.53174e-07
1.78063e-06
-5.05878e-07
1.62334e-06
-5.55253e-07
1.4707e-06
-5.99822e-07
1.32328e-06
-6.38093e-07
1.1814e-06
-6.68568e-07
1.04513e-06
-6.89837e-07
9.14095e-07
-7.00814e-07
7.87412e-07
-7.01119e-07
6.63591e-07
-6.91466e-07
5.4074e-07
-6.73781e-07
4.17048e-07
-6.50887e-07
2.91414e-07
-6.25909e-07
1.63934e-07
3.60261e-08
-6.01594e-07
-4.50372e-08
2.86009e-06
-7.77313e-08
2.92856e-06
-1.05548e-07
2.87897e-06
-1.33046e-07
2.76231e-06
-1.62849e-07
2.62087e-06
-1.96209e-07
2.46741e-06
-2.33279e-07
2.30792e-06
-2.73377e-07
2.14594e-06
-3.15297e-07
1.98377e-06
-3.57618e-07
1.82296e-06
-3.98881e-07
1.6646e-06
-4.37658e-07
1.50948e-06
-4.72558e-07
1.35817e-06
-5.02235e-07
1.21106e-06
-5.25421e-07
1.06829e-06
-5.41018e-07
9.29667e-07
-5.48269e-07
7.94634e-07
-5.46982e-07
6.62272e-07
-5.3773e-07
5.31455e-07
-5.21883e-07
4.01166e-07
-5.01388e-07
2.70882e-07
-4.7837e-07
1.40877e-07
1.22895e-08
-4.54673e-07
-4.39848e-08
2.90411e-06
-7.75017e-08
2.96212e-06
-9.5659e-08
2.89716e-06
-1.11826e-07
2.77851e-06
-1.30037e-07
2.63911e-06
-1.51839e-07
2.48924e-06
-1.77478e-07
2.33359e-06
-2.06396e-07
2.17488e-06
-2.37552e-07
2.01494e-06
-2.69665e-07
1.85509e-06
-3.01374e-07
1.69632e-06
-3.31323e-07
1.53943e-06
-3.58206e-07
1.38505e-06
-3.80796e-07
1.23365e-06
-3.97995e-07
1.08548e-06
-4.08908e-07
9.40569e-07
-4.12961e-07
7.98675e-07
-4.10033e-07
6.59329e-07
-4.00547e-07
5.21954e-07
-3.85465e-07
3.86069e-07
-3.66124e-07
2.51526e-07
-3.43961e-07
1.18698e-07
-1.1488e-08
-3.20199e-07
-4.65227e-08
2.95066e-06
-7.25922e-08
2.98821e-06
-8.03834e-08
2.90497e-06
-8.60461e-08
2.7842e-06
-9.40452e-08
2.64713e-06
-1.05989e-07
2.5012e-06
-1.22125e-07
2.34974e-06
-1.4192e-07
2.19469e-06
-1.64385e-07
2.03742e-06
-1.88294e-07
1.87901e-06
-2.12341e-07
1.72038e-06
-2.35224e-07
1.56232e-06
-2.55706e-07
1.40554e-06
-2.72656e-07
1.2506e-06
-2.85097e-07
1.09792e-06
-2.92266e-07
9.4774e-07
-2.9369e-07
8.00099e-07
-2.89258e-07
6.54898e-07
-2.79266e-07
5.11963e-07
-2.64379e-07
3.71183e-07
-2.45511e-07
2.3266e-07
-2.2363e-07
9.68207e-08
-3.5573e-08
-1.99541e-07
-4.44027e-08
2.99508e-06
-5.77333e-08
3.00155e-06
-5.67102e-08
2.90396e-06
-5.38011e-08
2.78129e-06
-5.35437e-08
2.64688e-06
-5.7631e-08
2.50529e-06
-6.63404e-08
2.35846e-06
-7.91261e-08
2.20749e-06
-9.49838e-08
2.05329e-06
-1.12689e-07
1.89673e-06
-1.3095e-07
1.73865e-06
-1.48498e-07
1.57988e-06
-1.6415e-07
1.4212e-06
-1.76851e-07
1.26331e-06
-1.85711e-07
1.10679e-06
-1.90055e-07
9.52093e-07
-1.89468e-07
7.99522e-07
-1.83831e-07
6.49274e-07
-1.73337e-07
5.01482e-07
-1.58442e-07
3.56302e-07
-1.39775e-07
2.14008e-07
-1.1799e-07
7.50508e-08
-5.9935e-08
-9.36107e-08
-2.99055e-08
3.02499e-06
-3.32256e-08
3.00486e-06
-2.4847e-08
2.89557e-06
-1.50254e-08
2.77147e-06
-8.21189e-09
2.64007e-06
-6.32679e-09
2.50341e-06
-9.63867e-09
2.36177e-06
-1.74981e-08
2.21535e-06
-2.87997e-08
2.0646e-06
-4.22561e-08
1.91019e-06
-5.65538e-08
1.75295e-06
-7.04398e-08
1.59378e-06
-8.27711e-08
1.43355e-06
-9.25512e-08
1.27311e-06
-9.89602e-08
1.11322e-06
-1.01386e-07
9.54533e-07
-9.94503e-08
7.97602e-07
-9.30275e-08
6.42868e-07
-8.22352e-08
4.90708e-07
-6.73935e-08
3.41481e-07
-4.89431e-08
1.95578e-07
-2.73355e-08
5.34643e-08
-8.43315e-08
-2.91633e-09
-1.17254e-08
3.03671e-06
-3.32218e-09
2.99644e-06
1.22872e-08
2.87995e-06
2.90476e-08
2.7547e-06
4.15657e-08
2.62754e-06
4.79058e-08
2.49706e-06
4.81128e-08
2.36156e-06
4.3178e-08
2.22028e-06
3.44549e-08
2.07332e-06
2.33717e-08
1.92128e-06
1.13e-08
1.76503e-06
-5.04883e-10
1.60559e-06
-1.09354e-08
1.44399e-06
-1.90477e-08
1.28123e-06
-2.40799e-08
1.11826e-06
-2.54711e-08
9.55939e-07
-2.28753e-08
7.95022e-07
-1.61655e-08
6.36176e-07
-5.41754e-09
4.79979e-07
9.13215e-09
3.26952e-07
2.71561e-08
1.77576e-07
4.83257e-08
3.23166e-08
-1.08385e-07
7.2402e-08
5.71488e-09
3.03098e-06
2.6084e-08
2.97605e-06
5.27072e-08
2.85331e-06
7.75285e-08
2.72986e-06
9.54335e-08
2.60962e-06
1.04897e-07
2.48759e-06
1.06806e-07
2.35964e-06
1.02852e-07
2.22423e-06
9.48193e-08
2.08135e-06
8.43502e-08
1.93175e-06
7.2896e-08
1.77649e-06
6.17137e-08
1.61678e-06
5.18767e-08
1.45383e-06
4.42765e-08
1.28884e-06
3.96188e-08
1.12293e-06
3.84167e-08
9.57153e-07
4.09838e-08
7.92469e-07
4.74372e-08
6.29738e-07
5.77167e-08
4.69718e-07
7.16255e-08
3.13063e-07
8.88935e-08
1.60328e-07
1.09257e-07
1.19728e-08
-1.3164e-07
1.32533e-07
2.25643e-08
3.00841e-06
5.66225e-08
2.94198e-06
9.6076e-08
2.81384e-06
1.30503e-07
2.69542e-06
1.53488e-07
2.58663e-06
1.64502e-07
2.47657e-06
1.66138e-07
2.358e-06
1.61213e-07
2.22915e-06
1.52081e-07
2.09048e-06
1.4062e-07
1.94321e-06
1.28346e-07
1.78876e-06
1.16498e-07
1.62863e-06
1.06098e-07
1.46424e-06
9.79773e-08
1.29697e-06
9.27839e-08
1.12813e-06
9.09836e-08
9.58963e-07
9.28562e-08
7.90608e-07
9.84995e-08
6.24107e-07
1.07848e-07
4.60384e-07
1.2071e-07
3.00216e-07
1.3683e-07
1.44224e-07
1.55966e-07
-7.14749e-09
-1.53611e-07
1.77953e-07
3.82026e-08
2.97019e-06
8.92523e-08
2.89091e-06
1.4392e-07
2.75916e-06
1.89117e-07
2.65021e-06
2.16087e-07
2.55964e-06
2.26364e-07
2.46628e-06
2.25447e-07
2.35891e-06
2.17614e-07
2.23698e-06
2.05768e-07
2.10232e-06
1.91943e-07
1.95703e-06
1.77647e-07
1.80306e-06
1.64057e-07
1.64222e-06
1.52119e-07
1.47618e-06
1.42591e-07
1.3065e-06
1.36062e-07
1.13467e-06
1.32952e-07
9.6208e-07
1.33506e-07
7.9006e-07
1.37801e-07
6.19822e-07
1.45751e-07
4.52444e-07
1.57146e-07
2.88832e-07
1.7171e-07
1.29671e-07
1.89179e-07
-2.46054e-08
-1.73815e-07
2.09394e-07
6.06327e-08
2.90955e-06
1.29143e-07
2.82239e-06
1.99241e-07
2.68905e-06
2.55675e-07
2.59377e-06
2.8289e-07
2.53242e-06
2.89254e-07
2.45991e-06
2.83399e-07
2.36476e-06
2.70978e-07
2.24939e-06
2.5516e-07
2.11814e-06
2.37944e-07
1.97424e-06
2.20729e-07
1.82027e-06
2.0458e-07
1.65837e-06
1.90338e-07
1.49042e-06
1.78681e-07
1.31816e-06
1.7014e-07
1.14321e-06
1.65093e-07
9.6713e-07
1.63762e-07
7.91396e-07
1.66202e-07
6.17387e-07
1.72304e-07
4.46349e-07
1.81822e-07
2.79321e-07
1.94432e-07
1.17069e-07
2.09822e-07
-3.99884e-08
-1.91791e-07
2.27805e-07
1.02114e-07
2.80743e-06
1.92281e-07
2.73221e-06
2.73608e-07
2.60772e-06
3.26185e-07
2.54118e-06
3.51343e-07
2.50725e-06
3.50218e-07
2.46103e-06
3.37811e-07
2.37716e-06
3.19885e-07
2.26731e-06
2.99423e-07
2.13859e-06
2.78237e-07
1.99543e-06
2.57558e-07
1.84095e-06
2.38306e-07
1.67762e-06
2.21216e-07
1.50751e-06
2.06882e-07
1.33249e-06
1.95781e-07
1.15431e-06
1.88262e-07
9.74649e-07
1.84537e-07
7.95123e-07
1.84653e-07
6.17274e-07
1.88487e-07
4.42518e-07
1.95752e-07
2.72061e-07
2.06048e-07
1.06776e-07
2.18981e-07
-5.29172e-08
-2.07122e-07
2.34315e-07
1.79755e-07
2.62767e-06
2.95096e-07
2.61686e-06
3.70555e-07
2.53225e-06
4.04577e-07
2.50715e-06
4.165e-07
2.49533e-06
4.0615e-07
2.47137e-06
3.86828e-07
2.39647e-06
3.63247e-07
2.29089e-06
3.37989e-07
2.16385e-06
3.12638e-07
2.02077e-06
2.88251e-07
1.86533e-06
2.6561e-07
1.70026e-06
2.45335e-07
1.52778e-06
2.27942e-07
1.34988e-06
2.13861e-07
1.16839e-06
2.03424e-07
9.85086e-07
1.9685e-07
8.01697e-07
1.94209e-07
6.19916e-07
1.95383e-07
4.41345e-07
2.00055e-07
2.67391e-07
2.0773e-07
9.91026e-08
2.1788e-07
-6.30662e-08
-2.19443e-07
2.30202e-07
2.92252e-07
2.33541e-06
4.34642e-07
2.47446e-06
4.84994e-07
2.4819e-06
4.95008e-07
2.49714e-06
4.79487e-07
2.51084e-06
4.57887e-07
2.49297e-06
4.3076e-07
2.4236e-06
4.01119e-07
2.32053e-06
3.709e-07
2.19406e-06
3.41309e-07
2.05036e-06
3.13153e-07
1.89349e-06
2.87027e-07
1.72638e-06
2.63416e-07
1.55139e-06
2.42744e-07
1.37055e-06
2.25388e-07
1.18575e-06
2.11673e-07
9.98799e-07
2.01848e-07
8.11521e-07
1.96036e-07
6.25727e-07
1.94173e-07
4.43207e-07
1.95942e-07
2.65622e-07
2.00746e-07
9.4298e-08
2.07852e-07
-7.01725e-08
-2.28441e-07
2.16849e-07
4.23363e-07
1.91205e-06
5.90315e-07
2.30751e-06
6.13324e-07
2.45888e-06
5.87012e-07
2.52345e-06
5.45825e-07
2.55203e-06
5.08306e-07
2.53048e-06
4.70872e-07
2.46103e-06
4.34049e-07
2.35735e-06
3.98472e-07
2.22964e-06
3.6459e-07
2.08424e-06
3.3274e-07
1.92533e-06
3.03216e-07
1.7559e-06
2.76302e-07
1.5783e-06
2.52295e-07
1.39456e-06
2.31508e-07
1.20653e-06
2.14253e-07
1.01605e-06
2.00823e-07
8.24949e-07
1.91433e-07
6.35116e-07
1.86138e-07
4.48501e-07
1.84697e-07
2.67062e-07
1.86434e-07
9.2561e-08
1.90296e-07
-7.40365e-08
-2.33861e-07
1.95714e-07
5.63745e-07
1.3483e-06
7.44696e-07
2.12656e-06
7.39815e-07
2.46376e-06
6.76875e-07
2.58638e-06
6.11849e-07
2.61705e-06
5.55538e-07
2.58679e-06
5.06075e-07
2.51049e-06
4.61467e-07
2.40196e-06
4.20548e-07
2.27056e-06
3.82659e-07
2.12213e-06
3.4747e-07
1.96052e-06
3.1487e-07