/*--------------------------------*- C++ -*----------------------------------*\
  =========                 |
  \\      /  F ield         | OpenFOAM: The Open Source CFD Toolbox
   \\    /   O peration     | Website:  https://openfoam.org
    \\  /    A nd           | Version:  9
     \\/     M anipulation  |
\*---------------------------------------------------------------------------*/
FoamFile
{
    format      ascii;
    class       surfaceScalarField;
    location    "4.85";
    object      phi;
}
// * * * * * * * * * * * * * * * * * * * * * * * * * * * * * * * * * * * * * //

dimensions      [0 3 -1 0 0 0 0];

internalField   nonuniform List<scalar> 
1300
(
11.2529
1.87548
-5.05511
11.2529
-5.33096
1.87548
-4.53563
4.53563
-1.5104
1.5104
5.71302
5.53984
-2.9793
2.9793
-3.64367
3.64367
-3.22116
3.22116
-1.06194
1.06194
-1.0285
1.0285
0.738634
-0.738634
-3.57785
3.57785
-1.90025
1.90025
-3.42432
3.42432
6.13195
-6.13195
-3.89472
3.89472
-0.891666
0.891666
-4.26404
15.5169
6.98882
6.98882
-2.77787
2.77787
-1.2616
1.2616
1.41034
-1.41034
10.5831
-10.5831
-5.52798
-6.27239
1.9972
-14.3208
-3.33376
-3.33376
-2.7054
2.7054
-0.829928
1.04555
3.51424
-3.51424
-0.848494
0.848494
-4.59282
0.0571872
-4.59282
4.38939
0.146238
4.38939
-1.69799
0.187587
-1.69799
4.69961
-4.69961
1.35726
0.153145
1.35726
3.92674
-3.92674
-5.70915
11.4222
5.54371
-5.31977
20.8367
-5.93309
11.4729
-3.88504
3.88504
-2.88497
-0.0943259
-2.88497
3.12407
-0.144769
3.12407
-3.94569
3.94569
-3.4704
-0.173276
-3.4704
3.77526
-0.131584
3.77526
3.80301
-3.80301
-3.24856
0.0273987
-3.24856
3.10107
0.120088
3.10107
0.771042
1.10443
-2.64652
3.69207
-1.10443
0.0424987
1.02614
0.0357984
1.02614
-1.01458
-0.0139161
-1.01458
1.05066
-0.0221623
1.05066
0.800119
-0.0614853
0.800119
-0.776682
0.0380484
-0.776682
-8.21849
-8.16137
-3.63894
0.0610919
-3.63894
-1.89345
-0.00679575
-1.89345
1.95021
-0.0499635
1.95021
-2.69697
2.69697
-3.72296
0.298634
-3.72296
4.81424
1.3177
4.81424
5.0468
6.20606
16.2997
-16.2997
10.1677
-3.72572
-0.168993
-3.72572
-4.057
-6.52609
4.057
-0.16228
-0.99304
0.101374
-0.99304
5.62429
1.36453
5.62429
2.99709
0.103986
-2.99709
0.219215
4.70899
-4.70899
1.70251
1.07536
1.70251
-1.18917
1.18917
1.12616
-0.0754969
-1.12616
-0.135442
1.38598
0.0243591
1.38598
-1.40975
-0.000592686
-1.40975
7.74926
-14.0217
-7.59436
3.44896
0.128896
-3.44896
0.115199
3.63375
-0.119509
3.63375
-3.40578
3.40578
-3.62137
0.107128
-3.62137
-0.761923
-0.0865702
-0.761923
0.946625
-0.0981318
0.946625
-4.74631
0.153494
-4.74631
-4.11841
0.39545
4.11841
0.270988
1.39926
-1.39926
-1.83226
0.134276
-1.83226
-4.73557
-0.0107389
4.73557
-0.035969
-4.77604
0.0764312
-4.77604
-3.71437
0.0930042
3.71437
0.212368
4.58595
1.03834
-4.58595
0.659206
-5.37047
11.5765
-5.88239
11.4261
-3.61682
-0.268222
-3.61682
4.03635
-0.151314
4.03635
3.14351
0.280816
-3.14351
0.258534
3.32324
-0.199176
3.32324
-3.8994
-0.046291
-3.8994
3.79889
0.146806
3.79889
3.42223
-0.0989903
-3.42223
-0.0481656
3.78032
-0.00506396
3.78032
3.83814
-0.0351313
3.83814
-3.68355
-0.11946
-3.68355
3.39948
-3.39948
3.37116
0.0283194
-3.37116
0.122603
-5.07402
5.07343
-0.00799823
-5.06602
1.01814
1.01814
0.865216
-0.0650964
0.865216
-0.865258
0.0885752
-0.865258
8.22836
-15.8227
8.06938
-16.2879
7.18175
-21.5026
7.81174
-15.9731
3.83964
-3.83964
3.8073
0.0323313
-3.8073
0.168361
-1.83793
-0.0555248
-1.83793
-2.45248
-0.244489
-2.45248
3.05032
-0.353355
3.05032
-3.77252
3.77252
-4.13952
0.367
4.13952
0.674725
3.78857
-0.00824213
-3.78857
0.0628415
1.16371
0.193541
-1.16371
0.170674
4.90775
-0.198761
4.90775
-4.24144
-0.467553
-4.24144
-1.78893
-0.0489984
1.78893
-0.0864227
-1.25814
0.0689757
-1.25814
-5.0745
0.0084773
-5.0387
-1.40127
-1.40127
1.30414
4.9962
-3.69869
0.0151409
3.69869
-0.0649406
3.58301
0.189512
-3.58301
0.177225
-3.41588
0.016401
3.41588
-0.0100987
-0.738796
-0.0231269
-0.738796
-1.15132
1.15132
-1.02996
-0.121357
1.02996
-0.0833385
1.56088
-0.161619
1.56088
1.91021
0.0400017
-1.91021
0.0779462
-4.98444
0.208398
-4.98444
4.04431
-0.00795862
4.04431
-4.07734
-0.164094
4.07734
-0.239201
-0.00371518
5.07715
-1.01442
-0.000160697
1.01442
-5.1015
5.10134
-0.74677
0.00797345
0.74677
0.118446
1.02711
0.162055
-1.02711
0.161852
3.83346
-0.0345707
-3.83346
-0.00617889
-2.16807
-0.28441
-2.16807
-3.355
-0.261819
3.355
-0.304676
-5.11454
-0.0785637
5.1931
-5.1367
1.3367
0.0492739
-1.3367
5.15062
-1.27417
-0.125091
1.27417
-0.122848
1.77168
-0.210803
1.77168
5.11878
-0.211028
-5.11878
0.134344
-4.04345
0.144046
4.04345
0.000864137
-1.94816
-0.219904
1.94816
-0.17648
-13.126
14.4905
7.71071
-6.9789
-7.04275
-13.505
4.45167
7.12486
14.6194
-11.9379
-9.56465
-11.8227
2.86409
-2.70224
-4.02064
3.95915
22.9004
-22.824
-18.4229
19.0977
20.7456
-20.5333
5.70355
5.71862
17.942
-18.0363
-20.3439
20.0757
18.1341
-18.3074
20.892
-20.9383
-24.4171
24.3825
-16.9448
16.9722
-20.351
20.2315
-21.0566
20.8174
-8.21068
-8.0772
16.2284
-16.1673
22.3997
-22.5687
-20.6598
20.9584
10.0438
4.44666
11.0822
-6.24928
11.9528
-5.22365
12.9344
7.8408
-16.0515
7.98192
-15.0247
10.4864
11.9133
-10.3241
-3.18092
-17.978
17.8585
-17.5386
17.5285
24.0045
-23.9473
-6.16977
11.8884
-5.25634
12.3812
-11.4122
-7.01071
10.0945
4.52486
9.14483
7.08355
-9.27373
-2.54902
-24.2759
24.0649
-25.3216
24.8541
0.0652185
2.44574
-2.51096
1.32682
-0.820654
3.26639
2.04344
2.13201
2.44968
-2.28762
0.252561
-2.76352
-2.89896
-6.49748
6.63176
6.29291
-6.13977
16.2702
6.63017
16.2343
-16.3978
-6.42615
-16.1894
11.4
7.69767
11.767
12.0504
8.69519
12.1434
10.3692
-10.3212
-0.0480311
-11.4625
21.8318
1.56719
-18.4732
-13.9484
10.6504
7.29155
10.5057
-11.3049
-6.73139
-11.0464
-11.0504
-9.2935
-11.3122
12.0536
8.02202
11.9023
-14.7071
14.708
11.3211
6.81294
11.1896
-10.8422
-7.46515
-10.8904
25.3796
-6.14674
-19.2329
-12.5995
-11.8176
12.4527
8.43937
13.7461
10.6365
13.7399
8.2392
17.1404
-16.6786
4.86095
-10.4692
-6.47566
-10.3465
10.0983
6.87395
10.2183
-11.8612
-8.48975
-11.8461
-12.1497
-8.90695
12.1848
8.04674
-12.6575
-12.6642
12.8216
7.99585
7.13088
-16.6955
8.84222
-16.9194
-10.7461
-5.42117
-10.5778
9.95992
6.57397
-16.5339
-6.09156
24.2971
-12.3838
21.1162
-12.7246
-9.84408
-12.6617
-15.6117
-5.04803
-15.2163
-8.39837
8.11396
-9.17838
8.82502
25.6743
-15.044
-10.6303
-12.3678
-8.16545
11.7086
-0.626429
-12.8409
12.7929
-0.888054
12.0463
16.493
15.8665
-10.9706
-6.56795
-10.7934
10.6265
6.90202
10.6429
16.455
7.54949
16.6013
-16.7424
-7.20493
-16.5889
5.39528
-5.48185
6.71456
-6.76355
15.5041
9.34997
-15.3054
-8.97058
22.7335
-10.7775
-11.956
-5.26978
5.67647
-0.406692
-2.00338
-0.676563
0.215103
-2.01607
-2.00457
1.97802
0.153988
5.83046
3.82589
-2.41233
2.48131
2.78077
2.70527
-0.193688
2.79703
-2.78906
19.0195
-11.0072
-8.01223
13.8252
-13.8359
-2.76373
-18.4181
15.6544
2.39837
3.70934
-3.60797
-4.82395
-1.67354
-4.746
3.65262
2.6403
3.84616
2.5123
4.11946
-9.28499
1.83272
7.45228
-6.7727
-4.30705
-12.9695
-5.78335
18.7529
16.4032
7.66173
-16.5375
0.348088
6.39491
-6.44487
-1.66376
-11.3058
8.67312
-10.3369
-14.4863
-6.20182
20.6881
-9.62121
-1.17219
9.43169
2.33529
-10.8661
-7.11192
10.759
1.38448
-11.918
23.8248
-11.9067
-18.486
8.54514
13.2866
16.2428
-17.8568
9.26703
8.58976
-4.57017
9.04038
1.46527
8.8412
-20.2663
13.5349
12.7091
8.24929
-12.9899
1.94355
-18.3227
24.0799
-21.0132
-3.06663
12.6305
11.4494
12.7575
12.9168
-7.88633
20.6438
-2.99474
-18.0185
21.3175
-13.0682
14.6379
-27.7061
-27.5547
9.53625
-17.0257
20.5592
-3.53351
-4.8607
-9.8464
21.8864
-2.04797
-19.8384
9.85436
-13.4178
-12.1119
25.5297
-19.5645
19.577
-6.57405
-13.003
-12.1489
-8.78942
12.0049
2.70311
-24.1022
28.9632
-6.96182
9.56162
1.62794
9.55655
10.0756
-14.8356
4.75996
9.48888
-16.0629
6.85391
-21.6895
-11.1924
22.5064
-11.3141
-16.6135
-14.7458
-1.8677
4.65167
24.3115
-15.2881
11.5514
3.73675
8.89131
1.75154
-8.91963
-1.42692
1.1614
16.1807
-17.3421
11.3797
11.4837
12.185
3.99575
10.8665
6.99196
-10.8016
-1.04449
-14.4683
5.5613
-6.42151
-13.8621
19.4234
-15.6489
1.78684
-10.0059
-13.7186
23.7246
-16.4816
11.5396
12.2851
18.4417
-19.064
5.34533
-9.5713
-9.49266
10.3036
-16.7251
7.14852
12.2748
15.1444
2.48019
11.6428
10.8637
-18.2168
1.29733
17.9472
-15.3982
3.55989
10.18
-15.1113
0.365446
-10.2123
2.77862
-15.1625
-13.7553
15.6278
-20.6758
-12.0783
14.1395
2.46178
-14.4105
-0.805813
-5.27975
-3.11862
-5.49966
-3.34601
-5.83237
-11.2323
-2.0371
-9.19523
6.07686
-6.90348
-4.40873
7.20816
1.61686
-5.42516
5.30007
-6.03929
5.82848
-0.220973
13.0138
15.6456
7.48011
-8.44366
15.9238
-15.148
22.6975
-28.2732
13.1252
14.9364
-22.1413
-13.3368
3.01831
2.37697
2.92018
13.6715
-14.82
1.14854
-13.6135
17.5595
-3.94595
-20.2342
6.62066
-6.56272
6.18855
0.52601
6.13302
1.78536
7.33582
-9.12119
-4.97819
-5.06461
-8.54952
-13.0891
21.6386
4.78614
-12.5798
7.79371
-12.3765
17.1626
0.257162
-12.837
17.8111
-10.4753
18.3371
-12.1193
6.21777
12.2582
21.3865
-9.12829
15.5801
-6.23012
6.4796
-15.6079
-6.60951
-11.2638
18.1378
-12.4608
14.2476
-0.795644
15.0432
-14.1621
3.38463
-1.97715
9.50659
9.7258
16.089
-12.0933
11.4749
-17.705
-4.13303
-15.2248
-2.94996
0.806314
-13.4357
12.6294
12.1683
-11.362
-3.57504
9.66994
-6.09491
6.28299
-3.16524
-3.11775
-2.06711
-3.41474
2.09023
0.706794
6.98978
0.544795
-3.71003
-2.24426
-2.12581
10.393
8.62643
-4.59901
4.19231
4.3839
-0.674559
1.20349
2.64266
5.43995
-4.23646
0.794632
4.64532
-2.81334
4.67635
1.71855
-4.71636
-0.0296454
-3.85819
12.5313
3.59408
-6.23438
1.99792
2.49362
-13.5008
18.5239
-10.5048
-8.01914
21.0176
3.05713
-13.5619
15.361
-12.9626
7.68158
-13.4649
-5.88035
-18.843
-12.2128
-10.2049
17.9986
-11.4337
19.0954
3.51233
-19.4435
22.9558
-12.7783
6.57644
-10.2835
12.002
-4.38435
-5.89912
10.857
9.83115
-10.6227
-0.683095
0.234294
8.71579
-8.4815
-1.62109
-8.39379
-16.3461
17.7306
-8.27282
17.5398
7.65095
-7.50972
25.0496
6.6571
-14.1668
-11.8289
-13.0011
-5.57706
10.6658
-2.07175
-8.81862
-15.0747
8.91761
-0.0764085
-19.6987
22.8949
-3.19625
-12.4071
-1.12777
13.7583
-18.1139
2.05098
-11.26
11.6349
13.1002
13.0238
-19.8144
-0.0240782
-11.7923
3.23573
-15.0281
14.6851
-6.72971
16.266
-15.531
11.1222
-13.9141
13.1993
-1.82874
13.5783
-8.81834
5.65457
-14.444
-11.7409
15.344
-8.53108
16.972
-10.0368
27.0087
-16.9986
15.3211
11.6876
-2.85581
-9.80592
-15.0635
12.2077
0.257609
9.81416
17.6164
-10.6245
16.5719
8.6429
-18.2142
-8.08217
-25.4222
7.20798
-13.1371
-7.14077
14.3488
11.3009
13.0524
4.85609
-11.6255
16.2595
-18.1272
-4.94541
-8.80986
15.3249
-3.11715
9.68167
-18.4915
-5.48079
12.6093
-0.487531
-12.1217
2.43478
-14.5131
5.25571
-19.7688
15.4201
-16.2259
1.94229
-8.50501
-3.48288
-3.60572
-2.29871
-3.74058
-8.01853
5.71983
-1.39788
3.9022
-12.482
11.9945
-5.07743
10.7973
-4.38285
-1.1168
4.55933
1.26915
12.0664
2.65702
-15.9938
-8.92982
14.5125
-5.58269
1.4632
-10.7787
3.73386
7.83071
13.1869
-23.4851
1.34378
-14.6501
-4.40699
6.78396
5.26295
17.4313
2.61128
7.17102
-0.387064
9.78231
2.53312
2.44978
-10.748
11.8965
1.88142
15.0066
-2.10339
8.32116
4.02963
4.02284
2.42203
6.33388
3.39192
9.71851
0.597325
-4.46729
2.28117
-4.40699
-1.42886
-4.47208
-0.512929
4.07843
-4.59136
10.8272
-2.20079
5.24453
-2.00676
-5.71391
7.72067
-10.019
-6.38847
-1.74315
-6.0803
8.07822
6.45102
-6.33507
-3.68392
2.16814
-14.381
11.2968
-11.9799
-2.14874
20.8071
-9.87874
1.39724
-3.3023
-6.99655
-8.67008
8.69973
24.0467
1.00291
12.1399
18.7335
11.6216
0.997151
11.6671
-15.2007
-10.0224
-15.2247
-0.539644
13.2186
5.12956
19.182
16.8172
13.7
-4.79152
-22.9187
19.6405
-7.74406
15.6946
-3.57287
-16.1959
14.3762
8.32134
-16.838
0.612049
-15.5839
-23.3279
-0.469465
12.464
-11.5969
10.4801
7.36152
1.83371
-2.67944
-0.926282
2.8008
-0.351019
9.43129
-0.168713
-8.94672
9.11543
-3.90971
2.48086
-0.67196
4.86427
7.04871
4.84792
-4.09881
-8.69016
-8.37858
-5.12226
-16.3977
2.35516
-8.80618
6.22198
-3.74112
3.10423
5.37431
10.6188
-1.74002
-9.622
7.83493
-4.7307
5.88815
)
;

boundaryField
{
    wall-4
    {
        type            calculated;
        value           uniform 0;
    }
    velocity-inlet-5
    {
        type            calculated;
        value           uniform -11.2529;
    }
    velocity-inlet-6
    {
        type            calculated;
        value           uniform -1.87548;
    }
    pressure-outlet-7
    {
        type            calculated;
        value           nonuniform List<scalar> 8(5.05511 5.33096 11.8004 12.3236 16.3799 15.3436 16.2977 14.9935);
    }
    wall-8
    {
        type            calculated;
        value           uniform 0;
    }
    frontAndBackPlanes
    {
        type            empty;
        value           nonuniform List<scalar> 0();
    }
}


// ************************************************************************* //
