/*--------------------------------*- C++ -*----------------------------------*\
  =========                 |
  \\      /  F ield         | OpenFOAM: The Open Source CFD Toolbox
   \\    /   O peration     | Website:  https://openfoam.org
    \\  /    A nd           | Version:  9
     \\/     M anipulation  |
\*---------------------------------------------------------------------------*/
FoamFile
{
    format      ascii;
    class       surfaceScalarField;
    location    "0.2";
    object      phi;
}
// * * * * * * * * * * * * * * * * * * * * * * * * * * * * * * * * * * * * * //

dimensions      [0 3 -1 0 0 0 0];

internalField   nonuniform List<scalar> 
17280
(
5.8148e-10
-5.8795e-10
6.44407e-12
8.44422e-10
-2.71111e-10
8.16674e-12
2.75706e-10
5.55693e-10
1.30135e-11
-1.19598e-09
1.45586e-09
1.58415e-11
-3.50544e-09
2.29174e-09
1.77079e-11
-6.52606e-09
3.00142e-09
1.92075e-11
-1.01086e-08
3.56263e-09
1.9966e-11
-1.41009e-08
3.9718e-09
2.04832e-11
-1.83576e-08
4.23608e-09
2.06855e-11
-2.27431e-08
4.36491e-09
2.05341e-11
-2.7133e-08
4.36992e-09
2.00375e-11
-3.14144e-08
4.26216e-09
1.92125e-11
-3.54846e-08
4.05212e-09
1.80809e-11
-3.92505e-08
3.74931e-09
1.65688e-11
-4.26278e-08
3.36262e-09
1.47287e-11
-4.55411e-08
2.90067e-09
1.26327e-11
-4.79234e-08
2.37199e-09
1.02613e-11
-4.97166e-08
1.78552e-09
7.64565e-12
-5.08727e-08
1.15125e-09
4.86293e-12
-5.13549e-08
4.80301e-10
1.91462e-12
-5.11391e-08
-2.14645e-10
-1.12483e-12
-5.0216e-08
-9.18996e-10
-4.0978e-12
-4.85926e-08
-1.61644e-09
-6.96701e-12
-4.62936e-08
-2.28924e-09
-9.7707e-12
-4.33628e-08
-2.91837e-09
-1.2444e-11
-3.98641e-08
-3.4838e-09
-1.4833e-11
-3.58823e-08
-3.96505e-09
-1.68176e-11
-3.15219e-08
-4.342e-09
-1.83321e-11
-2.69067e-08
-4.59591e-09
-1.93154e-11
-2.21767e-08
-4.71032e-09
-1.97013e-11
-1.74854e-08
-4.67186e-09
-1.94513e-11
-1.29957e-08
-4.47111e-09
-1.85646e-11
-8.87511e-09
-4.10353e-09
-1.70455e-11
-5.28957e-09
-3.57067e-09
-1.48887e-11
-2.39516e-09
-2.8823e-09
-1.21169e-11
-3.25259e-10
-2.06103e-09
-8.86464e-12
8.32977e-10
-1.15284e-09
-5.39428e-12
1.08206e-09
-2.4768e-10
-1.41469e-12
6.05347e-10
4.73683e-10
3.02767e-12
6.05324e-10
2.36841e-14
3.35171e-10
-9.34199e-10
1.10547e-11
-4.82793e-10
5.34839e-10
1.204e-11
-3.1662e-09
3.22952e-09
9.53251e-12
-7.88283e-09
6.16778e-09
4.81366e-12
-1.45348e-08
8.94374e-09
-5.80422e-14
-2.28748e-08
1.13462e-08
-4.77683e-12
-3.25811e-08
1.32774e-08
-8.57233e-12
-4.3304e-08
1.47061e-08
-1.13973e-11
-5.46907e-08
1.56362e-08
-1.33808e-11
-6.6401e-08
1.60899e-08
-1.46521e-11
-7.8114e-08
1.6098e-08
-1.51111e-11
-8.95317e-08
1.56949e-08
-1.50517e-11
-1.0038e-07
1.49147e-08
-1.45558e-11
-1.10408e-07
1.3791e-08
-1.36034e-11
-1.19389e-07
1.23563e-08
-1.23141e-11
-1.27121e-07
1.06431e-08
-1.07506e-11
-1.33424e-07
8.68454e-09
-8.88606e-12
-1.38148e-07
6.51571e-09
-6.78111e-12
-1.41167e-07
4.17516e-09
-4.56079e-12
-1.4239e-07
1.70564e-09
-2.23606e-12
-1.4176e-07
-8.44823e-10
2.70669e-13
-1.3926e-07
-3.42236e-09
2.91664e-12
-1.34914e-07
-5.96745e-09
5.54403e-12
-1.28796e-07
-8.4156e-09
8.03375e-12
-1.21026e-07
-1.06983e-08
1.03163e-11
-1.11778e-07
-1.27446e-08
1.23468e-11
-1.01274e-07
-1.44827e-08
1.40928e-11
-8.97887e-08
-1.58432e-08
1.54965e-11
-7.76389e-08
-1.67622e-08
1.64758e-11
-6.51819e-08
-1.71843e-08
1.69534e-11
-5.28045e-08
-1.70661e-08
1.68489e-11
-4.09119e-08
-1.63798e-08
1.60734e-11
-2.99126e-08
-1.51174e-08
1.46007e-11
-2.02003e-08
-1.32955e-08
1.25122e-11
-1.21289e-08
-1.09637e-08
9.93204e-12
-5.9783e-09
-8.21856e-09
6.96612e-12
-1.90461e-09
-5.23038e-09
3.83071e-12
1.34898e-10
-2.28854e-09
1.33731e-12
4.86812e-10
1.21403e-10
3.63841e-13
1.09494e-09
-2.80218e-12
-4.48361e-10
-4.9272e-10
6.88903e-12
-3.07514e-09
3.14857e-09
1.29987e-11
-8.44402e-09
8.58789e-09
1.04584e-11
-1.66761e-08
1.43912e-08
8.59902e-12
-2.76114e-08
1.98724e-08
6.67548e-12
-4.09119e-08
2.46424e-08
4.39993e-12
-5.61382e-08
2.85008e-08
2.95605e-12
-7.28018e-08
3.1368e-08
1.70011e-12
-9.03996e-08
3.32331e-08
8.44351e-13
-1.08437e-07
3.41269e-08
3.31413e-13
-1.2644e-07
3.41008e-08
-2.82983e-14
-1.43962e-07
3.32174e-08
-2.51181e-13
-1.6059e-07
3.15429e-08
-3.87078e-13
-1.75943e-07
2.91448e-08
-4.63547e-13
-1.89677e-07
2.60908e-08
-5.14088e-13
-2.01483e-07
2.24499e-08
-5.38054e-13
-2.11092e-07
1.82934e-08
-5.28534e-13
-2.18273e-07
1.36976e-08
-5.3477e-13
-2.22843e-07
8.74586e-09
-5.83982e-13
-2.24667e-07
3.53004e-09
-6.34994e-13
-2.23664e-07
-1.84743e-09
-6.04771e-13
-2.19813e-07
-7.27283e-09
-4.80956e-13
-2.13158e-07
-1.26216e-08
-3.60057e-13
-2.03814e-07
-1.77595e-08
-3.07794e-13
-1.91967e-07
-2.2545e-08
-2.89625e-13
-1.77879e-07
-2.6832e-08
-2.54459e-13
-1.61887e-07
-3.04748e-08
-2.06472e-13
-1.44397e-07
-3.33331e-08
-1.52153e-13
-1.2588e-07
-3.52787e-08
-6.09074e-14
-1.06863e-07
-3.62019e-08
5.92385e-14
-8.79102e-08
-3.60189e-08
1.28326e-13
-6.96104e-08
-3.46798e-08
8.703e-14
-5.2551e-08
-3.21768e-08
-2.77984e-14
-3.72907e-08
-2.85557e-08
-1.30899e-13
-2.43241e-08
-2.39302e-08
-1.83935e-13
-1.40367e-08
-1.85057e-08
-1.78068e-13
-6.64853e-09
-1.26186e-08
2.28379e-14
-2.14182e-09
-6.79545e-09
1.71525e-13
-1.81091e-10
-1.83874e-09
-5.86896e-13
9.12407e-10
1.42873e-12
-1.38662e-09
8.91924e-10
1.93627e-12
-6.13261e-09
7.88085e-09
1.37604e-11
-1.44823e-08
1.6929e-08
8.56448e-12
-2.63984e-08
2.63008e-08
6.58018e-12
-4.16084e-08
3.50769e-08
5.49632e-12
-5.96739e-08
4.27034e-08
4.327e-12
-8.00523e-08
4.88762e-08
3.06637e-12
-1.02145e-07
5.34586e-08
2.39012e-12
-1.25334e-07
5.64203e-08
1.92646e-12
-1.49005e-07
5.77957e-08
1.61653e-12
-1.72563e-07
5.76571e-08
1.3701e-12
-1.95444e-07
5.60978e-08
1.2016e-12
-2.17123e-07
5.32211e-08
1.08986e-12
-2.37115e-07
4.91356e-08
9.4729e-13
-2.54978e-07
4.39529e-08
7.70434e-13
-2.70317e-07
3.77883e-08
6.10165e-13
-2.82787e-07
3.07628e-08
4.34562e-13
-2.92095e-07
2.30061e-08
1.7639e-13
-2.98009e-07
1.46598e-08
-1.47996e-13
-3.00359e-07
5.87975e-09
-4.59832e-13
-2.99044e-07
-3.16158e-09
-6.93205e-13
-2.94042e-07
-1.22739e-08
-8.90156e-13
-2.85412e-07
-2.12498e-08
-1.13787e-12
-2.73303e-07
-2.98672e-08
-1.40765e-12
-2.57954e-07
-3.78923e-08
-1.62908e-12
-2.39699e-07
-4.50857e-08
-1.81662e-12
-2.18962e-07
-5.12092e-08
-1.9965e-12
-1.96259e-07
-5.60349e-08
-2.11146e-12
-1.7218e-07
-5.93555e-08
-2.09806e-12
-1.47384e-07
-6.09951e-08
-2.00177e-12
-1.2258e-07
-6.08218e-08
-1.92278e-12
-9.84975e-08
-5.87601e-08
-1.87792e-12
-7.58666e-08
-5.48059e-08
-1.79389e-12
-5.53783e-08
-4.90423e-08
-1.61563e-12
-3.76455e-08
-4.16616e-08
-1.36801e-12
-2.31557e-08
-3.29945e-08
-1.00452e-12
-1.22182e-08
-2.3556e-08
-1.59193e-13
-4.90637e-09
-1.41074e-08
4.85142e-14
-1.00745e-09
-5.73463e-09
-3.03562e-12
-1.00124e-10
5.0656e-12
-2.32235e-09
3.21718e-09
-2.89766e-12
-9.26988e-09
1.48131e-08
1.52857e-11
-2.07088e-08
2.83619e-08
6.11547e-12
-3.63764e-08
4.19648e-08
3.58041e-12
-5.58427e-08
5.45402e-08
2.99034e-12
-7.85468e-08
6.54058e-08
1.81615e-12
-1.03841e-07
7.41697e-08
7.70379e-13
-1.31028e-07
8.06451e-08
2.05254e-13
-1.5939e-07
8.47829e-08
-1.54167e-13
-1.88216e-07
8.66219e-08
-4.12583e-13
-2.16815e-07
8.62564e-08
-5.09748e-13
-2.44529e-07
8.38124e-08
-5.54508e-13
-2.70742e-07
7.94346e-08
-5.53033e-13
-2.94883e-07
7.32776e-08
-5.26085e-13
-3.16433e-07
6.55037e-08
-5.03464e-13
-3.34927e-07
5.62822e-08
-4.73636e-13
-3.49956e-07
4.57927e-08
-4.66644e-13
-3.61178e-07
3.42283e-08
-5.21355e-13
-3.68317e-07
2.17992e-08
-5.891e-13
-3.71173e-07
8.7369e-09
-6.09135e-13
-3.69631e-07
-4.70342e-09
-5.94445e-13
-3.63662e-07
-1.82416e-08
-6.09172e-13
-3.53338e-07
-3.15734e-08
-6.63057e-13
-3.38831e-07
-4.4374e-08
-6.83391e-13
-3.2042e-07
-5.63024e-08
-6.53558e-13
-2.98494e-07
-6.70105e-08
-6.45029e-13
-2.7355e-07
-7.61527e-08
-6.67887e-13
-2.46185e-07
-8.33993e-08
-6.34372e-13
-2.17089e-07
-8.84509e-08
-5.09489e-13
-1.87029e-07
-9.10548e-08
-3.81244e-13
-1.56828e-07
-9.10227e-08
-3.41826e-13
-1.27338e-07
-8.82491e-08
-3.75817e-13
-9.94118e-08
-8.2732e-08
-4.11151e-13
-7.38594e-08
-7.45944e-08
-4.28869e-13
-5.14101e-08
-6.41104e-08
-4.82744e-13
-3.26655e-08
-5.17386e-08
-4.38792e-13
-1.80544e-08
-3.81676e-08
3.74404e-13
-7.79016e-09
-2.43716e-08
-4.22364e-14
-1.84628e-09
-1.16723e-08
-6.2398e-12
-1.9546e-09
8.18749e-12
-3.20483e-09
6.42968e-09
-7.71548e-12
-1.23212e-08
2.39129e-08
1.65715e-11
-2.68431e-08
4.28798e-08
3.91112e-12
-4.62536e-08
6.13738e-08
1.39722e-12
-6.99349e-08
7.82201e-08
1.49229e-12
-9.71834e-08
9.26537e-08
3.97489e-13
-1.27236e-07
1.04222e-07
-1.00089e-13
-1.59295e-07
1.12705e-07
-5.08917e-13
-1.92553e-07
1.18042e-07
-7.558e-13
-2.26215e-07
1.20284e-07
-8.32852e-13
-2.59507e-07
1.19549e-07
-8.30008e-13
-2.91695e-07
1.16001e-07
-8.09563e-13
-3.22089e-07
1.09829e-07
-7.44439e-13
-3.50049e-07
1.01239e-07
-6.67078e-13
-3.74993e-07
9.0448e-08
-6.0855e-13
-3.96396e-07
7.7686e-08
-5.8037e-13
-4.13801e-07
6.31977e-08
-6.01526e-13
-4.26818e-07
4.72466e-08
-6.44096e-13
-4.35138e-07
3.01198e-08
-6.40732e-13
-4.38534e-07
1.21331e-08
-6.11685e-13
-4.3687e-07
-6.36614e-09
-6.33728e-13
-4.30114e-07
-2.49976e-08
-7.14522e-13
-4.18337e-07
-4.33494e-08
-7.77992e-13
-4.01728e-07
-6.09818e-08
-7.65319e-13
-3.80596e-07
-7.74344e-08
-7.17885e-13
-3.55368e-07
-9.22372e-08
-7.04936e-13
-3.26596e-07
-1.04924e-07
-7.06595e-13
-2.94944e-07
-1.1505e-07
-6.42615e-13
-2.61183e-07
-1.22212e-07
-5.08924e-13
-2.2617e-07
-1.26067e-07
-4.02149e-13
-1.90831e-07
-1.26361e-07
-3.88975e-13
-1.56129e-07
-1.22951e-07
-4.31284e-13
-1.2303e-07
-1.1583e-07
-4.73566e-13
-9.24674e-08
-1.05157e-07
-5.31702e-13
-6.52947e-08
-9.12824e-08
-6.74285e-13
-4.22466e-08
-7.47861e-08
-6.77167e-13
-2.38988e-08
-5.65158e-08
4.05363e-13
-1.06369e-08
-3.7633e-08
-3.75628e-13
-2.64782e-09
-1.96519e-08
-9.48621e-12
-4.61374e-09
1.13137e-11
-4.02664e-09
1.0469e-08
-1.2553e-11
-1.52356e-08
3.51037e-08
1.80449e-11
-3.27783e-08
6.04199e-08
2.63349e-12
-5.58784e-08
8.44742e-08
-3.83997e-13
-8.37159e-08
1.06057e-07
2.22107e-13
-1.15429e-07
1.24367e-07
-2.05873e-13
-1.50127e-07
1.38921e-07
-7.24884e-13
-1.86911e-07
1.49489e-07
-9.50787e-13
-2.24884e-07
1.56016e-07
-9.90272e-13
-2.6317e-07
1.58572e-07
-9.60374e-13
-3.00928e-07
1.57308e-07
-9.19855e-13
-3.37357e-07
1.5243e-07
-8.30586e-13
-3.71704e-07
1.44178e-07
-7.12316e-13
-4.03275e-07
1.32811e-07
-6.24403e-13
-4.31434e-07
1.18607e-07
-5.964e-13
-4.55608e-07
1.01861e-07
-6.33139e-13
-4.75296e-07
8.28867e-08
-6.95103e-13
-4.90072e-07
6.20232e-08
-7.04767e-13
-4.99592e-07
3.96404e-08
-6.5151e-13
-5.03603e-07
1.6144e-08
-6.50633e-13
-5.01948e-07
-8.01969e-09
-7.62795e-13
-4.94582e-07
-3.23628e-08
-9.02708e-13
-4.81574e-07
-5.63571e-08
-9.68419e-13
-4.63116e-07
-7.94386e-08
-9.51913e-13
-4.39532e-07
-1.01017e-07
-9.1978e-13
-4.1128e-07
-1.20489e-07
-9.08801e-13
-3.78948e-07
-1.37255e-07
-8.82884e-13
-3.43257e-07
-1.50741e-07
-8.01823e-13
-3.05043e-07
-1.60425e-07
-6.94078e-13
-2.65247e-07
-1.65862e-07
-6.28593e-13
-2.24888e-07
-1.6672e-07
-6.26941e-13
-1.85037e-07
-1.62802e-07
-6.52297e-13
-1.46779e-07
-1.54088e-07
-6.88177e-13
-1.11176e-07
-1.40759e-07
-7.70587e-13
-7.92234e-08
-1.23234e-07
-9.62885e-13
-5.18087e-08
-1.022e-07
-9.65004e-13
-2.96777e-08
-7.86472e-08
4.14821e-13
-1.3408e-08
-5.3902e-08
-7.0264e-13
-3.40517e-09
-2.96422e-08
-1.26079e-11
-8.03326e-09
1.43537e-11
-4.797e-09
1.52828e-08
-1.69107e-11
-1.80144e-08
4.83012e-08
1.9913e-11
-3.84966e-08
8.09006e-08
1.48558e-12
-6.52149e-08
1.11194e-07
-1.50011e-12
-9.71418e-08
1.37985e-07
-5.04804e-13
-1.33247e-07
1.60472e-07
-7.6534e-13
-1.72507e-07
1.78183e-07
-1.17297e-12
-2.13914e-07
1.90897e-07
-1.20594e-12
-2.56481e-07
1.98585e-07
-1.18303e-12
-2.99259e-07
2.01351e-07
-1.12096e-12
-3.41339e-07
1.99389e-07
-9.89594e-13
-3.81863e-07
1.92955e-07
-8.28577e-13
-4.20028e-07
1.82344e-07
-6.99124e-13
-4.55091e-07
1.67874e-07
-6.3445e-13
-4.86372e-07
1.49889e-07
-6.6312e-13
-5.13259e-07
1.28749e-07
-7.57497e-13
-5.35213e-07
1.04841e-07
-8.06426e-13
-5.51772e-07
7.85838e-08
-7.47468e-13
-5.62563e-07
5.04315e-08
-6.71976e-13
-5.67302e-07
2.0884e-08
-7.35042e-13
-5.65811e-07
-9.50966e-09
-9.1521e-13
-5.58024e-07
-4.0149e-08
-1.05634e-12
-5.43997e-07
-7.03834e-08
-1.09628e-12
-5.23917e-07
-9.95172e-08
-1.0834e-12
-4.98112e-07
-1.26821e-07
-1.05849e-12
-4.67054e-07
-1.51546e-07
-1.01697e-12
-4.31361e-07
-1.72947e-07
-9.5195e-13
-3.91793e-07
-1.90308e-07
-8.78721e-13
-3.49247e-07
-2.0297e-07
-8.21578e-13
-3.04738e-07
-2.10371e-07
-7.93201e-13
-2.59377e-07
-2.12079e-07
-7.84201e-13
-2.14346e-07
-2.07832e-07
-7.846e-13
-1.70858e-07
-1.97575e-07
-8.16545e-13
-1.30118e-07
-1.81499e-07
-9.19305e-13
-9.32786e-08
-1.60072e-07
-1.14621e-12
-6.14022e-08
-1.34075e-07
-1.14384e-12
-3.54242e-08
-1.04626e-07
4.98588e-13
-1.61265e-08
-7.31988e-08
-9.74178e-13
-4.131e-09
-4.1622e-08
-1.55914e-11
-1.21816e-08
1.73267e-11
-5.52703e-09
2.08307e-08
-2.08473e-11
-2.06793e-08
6.34316e-08
2.19503e-11
-4.40218e-08
1.04242e-07
8.25846e-13
-7.42848e-08
1.41459e-07
-2.37876e-12
-1.10234e-07
1.73935e-07
-8.44482e-13
-1.50667e-07
2.00907e-07
-1.1856e-12
-1.94423e-07
2.21939e-07
-1.36978e-12
-2.40379e-07
2.36854e-07
-1.37908e-12
-2.8746e-07
2.45667e-07
-1.33508e-12
-3.34641e-07
2.48533e-07
-1.17876e-12
-3.80954e-07
2.45703e-07
-9.69785e-13
-4.25489e-07
2.37491e-07
-7.91878e-13
-4.67397e-07
2.24253e-07
-6.75628e-13
-5.05896e-07
2.06374e-07
-6.5398e-13
-5.40268e-07
1.84262e-07
-7.43055e-13
-5.69869e-07
1.5835e-07
-8.50472e-13
-5.94124e-07
1.29098e-07
-8.39493e-13
-6.12542e-07
9.70024e-08
-7.32554e-13
-6.24715e-07
6.26056e-08
-6.96907e-13
-6.30332e-07
2.65016e-08
-8.34105e-13
-6.29184e-07
-1.06563e-08
-1.03166e-12
-6.2118e-07
-4.81526e-08
-1.14173e-12
-6.06352e-07
-8.52099e-08
-1.17115e-12
-5.84873e-07
-1.20995e-07
-1.17847e-12
-5.5706e-07
-1.54632e-07
-1.15108e-12
-5.23389e-07
-1.85216e-07
-1.07277e-12
-4.84492e-07
-2.11843e-07
-9.97257e-13
-4.41162e-07
-2.33636e-07
-9.77977e-13
-3.94346e-07
-2.49785e-07
-9.92982e-13
-3.4513e-07
-2.59586e-07
-9.89998e-13
-2.9472e-07
-2.62488e-07
-9.60512e-13
-2.44412e-07
-2.58139e-07
-9.41159e-13
-1.95558e-07
-2.46428e-07
-9.72204e-13
-1.49522e-07
-2.27534e-07
-1.07461e-12
-1.07636e-07
-2.01957e-07
-1.30314e-12
-7.11566e-08
-1.70553e-07
-1.26925e-12
-4.12271e-08
-1.34556e-07
6.42374e-13
-1.88447e-08
-9.55801e-08
-1.1832e-12
-4.8453e-09
-5.5603e-08
-1.84735e-11
-1.70472e-08
2.03005e-11
-6.22875e-09
2.70839e-08
-2.44654e-11
-2.32573e-08
8.04361e-08
2.40523e-11
-4.93922e-08
1.30377e-07
6.48488e-13
-8.31335e-08
1.75204e-07
-2.93745e-12
-1.23043e-07
2.13846e-07
-1.1091e-12
-1.67747e-07
2.45612e-07
-1.29383e-12
-2.15941e-07
2.70134e-07
-1.47607e-12
-2.66389e-07
2.87304e-07
-1.50033e-12
-3.17923e-07
2.97204e-07
-1.37849e-12
-3.69448e-07
3.00059e-07
-1.16574e-12
-4.19937e-07
2.96192e-07
-9.52785e-13
-4.68431e-07
2.85986e-07
-7.75079e-13
-5.14046e-07
2.69868e-07
-6.87174e-13
-5.55963e-07
2.48292e-07
-7.27694e-13
-5.93436e-07
2.21736e-07
-8.40049e-13
-6.25788e-07
1.90703e-07
-8.9391e-13
-6.52418e-07
1.55729e-07
-8.23334e-13
-6.72803e-07
1.17388e-07
-7.35983e-13
-6.86505e-07
7.63078e-08
-7.72581e-13
-6.93177e-07
3.31748e-08
-9.34469e-13
-6.92578e-07
-1.12542e-08
-1.08857e-12
-6.84581e-07
-5.61481e-08
-1.16397e-12
-6.69188e-07
-1.00602e-07
-1.20885e-12
-6.46542e-07
-1.43641e-07
-1.23396e-12
-6.16939e-07
-1.84233e-07
-1.18441e-12
-5.80844e-07
-2.21311e-07
-1.08298e-12
-5.38892e-07
-2.53794e-07
-1.04202e-12
-4.91897e-07
-2.8063e-07
-1.10338e-12
-4.40848e-07
-3.00833e-07
-1.17929e-12
-3.86899e-07
-3.13534e-07
-1.18454e-12
-3.31351e-07
-3.18036e-07
-1.14293e-12
-2.75622e-07
-3.13866e-07
-1.13008e-12
-2.21216e-07
-3.00833e-07
-1.17319e-12
-1.69672e-07
-2.79076e-07
-1.25409e-12
-1.22524e-07
-2.49104e-07
-1.4421e-12
-8.12438e-08
-2.11832e-07
-1.34091e-12
-4.72032e-08
-1.68597e-07
8.6593e-13
-2.16278e-08
-1.21154e-07
-1.31137e-12
-5.57014e-09
-7.16393e-08
-2.13306e-11
-2.26407e-08
2.33537e-11
-6.91191e-09
3.40236e-08
-2.77463e-11
-2.57739e-08
9.92717e-08
2.64453e-11
-5.46479e-08
1.5925e-07
5.78667e-13
-9.18117e-08
2.12371e-07
-3.17893e-12
-1.35627e-07
2.57663e-07
-1.17638e-12
-1.84548e-07
2.94534e-07
-1.24436e-12
-2.37128e-07
3.22715e-07
-1.52621e-12
-2.92014e-07
3.42191e-07
-1.5072e-12
-3.4795e-07
3.53141e-07
-1.3587e-12
-4.03767e-07
3.55877e-07
-1.16792e-12
-4.58383e-07
3.5081e-07
-9.67791e-13
-5.10802e-07
3.38405e-07
-8.14667e-13
-5.601e-07
3.19168e-07
-7.92549e-13
-6.05435e-07
2.93627e-07
-8.6449e-13
-6.46034e-07
2.62335e-07
-9.20825e-13
-6.81197e-07
2.25867e-07
-9.04812e-13
-7.10296e-07
1.84829e-07
-8.44201e-13
-7.32779e-07
1.39872e-07
-8.24969e-13
-7.48176e-07
9.17057e-08
-8.85037e-13
-7.56105e-07
4.11051e-08
-9.9065e-13
-7.56285e-07
-1.1073e-08
-1.08251e-12
-7.48547e-07
-6.3885e-08
-1.15307e-12
-7.32849e-07
-1.16298e-07
-1.22067e-12
-7.09294e-07
-1.67195e-07
-1.24045e-12
-6.78143e-07
-2.15383e-07
-1.16711e-12
-6.39833e-07
-2.59619e-07
-1.07875e-12
-5.9499e-07
-2.98636e-07
-1.10108e-12
-5.44437e-07
-3.31183e-07
-1.22826e-12
-4.89194e-07
-3.56074e-07
-1.33081e-12
-4.30479e-07
-3.72247e-07
-1.33932e-12
-3.69687e-07
-3.78826e-07
-1.31886e-12
-3.08367e-07
-3.75185e-07
-1.34817e-12
-2.48184e-07
-3.61015e-07
-1.40931e-12
-1.90875e-07
-3.36383e-07
-1.44445e-12
-1.38193e-07
-3.01784e-07
-1.55523e-12
-9.18548e-08
-2.5817e-07
-1.35869e-12
-5.34812e-08
-2.06972e-07
1.15885e-12
-2.45453e-08
-1.50089e-07
-1.39622e-12
-6.32763e-09
-8.98327e-08
-2.42791e-11
-2.89949e-08
2.65544e-11
-7.58396e-09
4.16383e-08
-3.0808e-11
-2.82507e-08
1.19909e-07
2.90029e-11
-5.98241e-08
1.90823e-07
6.59083e-13
-1.00365e-07
2.52915e-07
-3.36169e-12
-1.48037e-07
3.05336e-07
-1.05144e-12
-2.01123e-07
3.47621e-07
-1.21345e-12
-2.58033e-07
3.79626e-07
-1.50564e-12
-3.173e-07
4.0146e-07
-1.46885e-12
-3.77577e-07
4.13419e-07
-1.37069e-12
-4.37627e-07
4.15929e-07
-1.21891e-12
-4.96319e-07
4.09503e-07
-1.05487e-12
-5.52616e-07
3.94704e-07
-9.67528e-13
-6.05572e-07
3.72124e-07
-9.80371e-13
-6.5432e-07
3.42376e-07
-9.93902e-13
-6.9807e-07
3.06086e-07
-9.64461e-13
-7.36101e-07
2.63899e-07
-9.44409e-13
-7.67766e-07
2.16494e-07
-9.48511e-13
-7.92485e-07
1.64593e-07
-9.52984e-13
-8.09758e-07
1.08979e-07
-9.45489e-13
-8.19163e-07
5.05113e-08
-9.5789e-13
-8.20375e-07
-9.8603e-09
-1.01164e-12
-8.13173e-07
-7.10851e-08
-1.0939e-12
-7.97464e-07
-1.32006e-07
-1.16504e-12
-7.73295e-07
-1.91363e-07
-1.16775e-12
-7.40876e-07
-2.47801e-07
-1.10153e-12
-7.00603e-07
-2.99891e-07
-1.06838e-12
-6.53074e-07
-3.46164e-07
-1.15611e-12
-5.99104e-07
-3.85151e-07
-1.31346e-12
-5.39736e-07
-4.1544e-07
-1.41906e-12
-4.76241e-07
-4.35741e-07
-1.45157e-12
-4.10106e-07
-4.44959e-07
-1.49748e-12
-3.43015e-07
-4.42274e-07
-1.59818e-12
-2.76809e-07
-4.2722e-07
-1.67102e-12
-2.13438e-07
-3.99753e-07
-1.63497e-12
-1.54902e-07
-3.60318e-07
-1.6577e-12
-1.03187e-07
-3.09884e-07
-1.37805e-12
-6.01929e-08
-2.49967e-07
1.44578e-12
-2.76671e-08
-1.82613e-07
-1.53184e-12
-7.13922e-09
-1.10333e-07
-2.74584e-11
-3.6164e-08
2.99568e-11
-8.25048e-09
4.99225e-08
-3.37598e-11
-3.07043e-08
1.42332e-07
3.15665e-11
-6.49487e-08
2.25066e-07
8.42753e-13
-1.08828e-07
2.96798e-07
-3.52208e-12
-1.60311e-07
3.56819e-07
-9.55713e-13
-2.17506e-07
4.04818e-07
-1.1851e-12
-2.78681e-07
4.40803e-07
-1.46267e-12
-3.42256e-07
4.65037e-07
-1.4788e-12
-4.06796e-07
4.77959e-07
-1.43252e-12
-4.70998e-07
4.80133e-07
-1.32687e-12
-5.33686e-07
4.72192e-07
-1.23352e-12
-5.93794e-07
4.54813e-07
-1.17658e-12
-6.50354e-07
4.28686e-07
-1.12644e-12
-7.02486e-07
3.94509e-07
-1.04324e-12
-7.49388e-07
3.52988e-07
-9.90511e-13
-7.90328e-07
3.0484e-07
-1.0264e-12
-8.24641e-07
2.50808e-07
-1.0586e-12
-8.51727e-07
1.91681e-07
-9.92366e-13
-8.71054e-07
1.28307e-07
-8.68523e-13
-8.82162e-07
6.16197e-08
-8.07161e-13
-8.84675e-07
-7.34647e-09
-8.44534e-13
-8.78316e-07
-7.74428e-08
-9.20895e-13
-8.62926e-07
-1.47395e-07
-9.74204e-13
-8.38484e-07
-2.15804e-07
-9.80711e-13
-8.05134e-07
-2.8115e-07
-9.69725e-13
-7.63209e-07
-3.41815e-07
-1.01253e-12
-7.13261e-07
-3.96111e-07
-1.13989e-12
-6.56079e-07
-4.42332e-07
-1.29348e-12
-5.92709e-07
-4.78808e-07
-1.40465e-12
-5.24465e-07
-5.03984e-07
-1.49866e-12
-4.52921e-07
-5.16502e-07
-1.64521e-12
-3.79894e-07
-5.15299e-07
-1.82428e-12
-3.07412e-07
-4.997e-07
-1.89978e-12
-2.37657e-07
-4.69506e-07
-1.79703e-12
-1.72902e-07
-4.2507e-07
-1.76858e-12
-1.15434e-07
-3.6735e-07
-1.45879e-12
-6.74691e-08
-2.97934e-07
1.66465e-12
-3.10622e-08
-2.19018e-07
-1.76687e-12
-8.02571e-09
-1.33339e-07
-3.09854e-11
-4.42234e-08
3.36424e-11
-8.91566e-09
5.88748e-08
-3.65866e-11
-3.3147e-08
1.66529e-07
3.41626e-11
-7.00422e-08
2.6196e-07
1.03713e-12
-1.17227e-07
3.43986e-07
-3.62604e-12
-1.72471e-07
4.12064e-07
-9.28289e-13
-2.33711e-07
4.66058e-07
-1.12222e-12
-2.9907e-07
5.06164e-07
-1.45198e-12
-3.66856e-07
5.32824e-07
-1.52668e-12
-4.35547e-07
5.46652e-07
-1.5295e-12
-5.03783e-07
5.4837e-07
-1.49822e-12
-5.70347e-07
5.38759e-07
-1.44057e-12
-6.34151e-07
5.18618e-07
-1.31606e-12
-6.94216e-07
4.88751e-07
-1.16576e-12
-7.49656e-07
4.4995e-07
-1.05385e-12
-7.99668e-07
4.03001e-07
-1.04963e-12
-8.43517e-07
3.4869e-07
-1.11598e-12
-8.80528e-07
2.87821e-07
-1.08553e-12
-9.10086e-07
2.21239e-07
-8.96166e-13
-9.31631e-07
1.49852e-07
-6.74724e-13
-9.44663e-07
7.4653e-08
-5.67346e-13
-9.48757e-07
-3.25228e-09
-5.73137e-13
-9.4357e-07
-8.26286e-08
-6.09429e-13
-9.28869e-07
-1.62096e-07
-6.42511e-13
-9.0455e-07
-2.40123e-07
-6.84245e-13
-8.70671e-07
-3.15028e-07
-7.49168e-13
-8.27483e-07
-3.85001e-07
-8.49106e-13
-7.75467e-07
-4.48126e-07
-9.80252e-13
-7.15364e-07
-5.02435e-07
-1.11798e-12
-6.48201e-07
-5.4597e-07
-1.25726e-12
-5.75314e-07
-5.76869e-07
-1.44262e-12
-4.98352e-07
-5.93462e-07
-1.69807e-12
-4.19264e-07
-5.94385e-07
-1.94587e-12
-3.40269e-07
-5.78694e-07
-2.02816e-12
-2.63799e-07
-5.45974e-07
-1.90306e-12
-1.9243e-07
-4.96438e-07
-1.89545e-12
-1.28784e-07
-4.30994e-07
-1.60934e-12
-7.54371e-08
-3.51282e-07
1.83027e-12
-3.47981e-08
-2.59655e-07
-2.07966e-12
-9.00745e-09
-1.59094e-07
-3.49356e-11
-5.32686e-08
3.77141e-11
-9.58219e-09
6.84963e-08
-3.9335e-11
-3.55877e-08
1.92498e-07
3.68473e-11
-7.5119e-08
3.0149e-07
1.25553e-12
-1.25578e-07
3.94449e-07
-3.75979e-12
-1.84529e-07
4.71016e-07
-8.49719e-13
-2.49732e-07
5.31263e-07
-1.03751e-12
-3.19168e-07
5.75601e-07
-1.45176e-12
-3.91031e-07
6.04688e-07
-1.5694e-12
-4.63719e-07
6.19341e-07
-1.63609e-12
-5.35816e-07
6.2047e-07
-1.63891e-12
-6.06077e-07
6.09021e-07
-1.51796e-12
-6.73398e-07
5.8594e-07
-1.29301e-12
-7.368e-07
5.52154e-07
-1.11813e-12
-7.95405e-07
5.08557e-07
-1.05997e-12
-8.48419e-07
4.56016e-07
-1.09364e-12
-8.95115e-07
3.95386e-07
-1.11291e-12
-9.34819e-07
3.27527e-07
-9.76514e-13
-9.66908e-07
2.53329e-07
-6.95009e-13
-9.90801e-07
1.73745e-07
-4.2471e-13
-1.00596e-06
8.98152e-08
-2.76656e-13
-1.01191e-06
2.69992e-09
-2.23294e-13
-1.00825e-06
-8.62961e-08
-2.09933e-13
-9.94641e-07
-1.75702e-07
-2.45215e-13
-9.70897e-07
-2.63867e-07
-3.41245e-13
-9.36967e-07
-3.48957e-07
-4.64817e-13
-8.92999e-07
-4.28969e-07
-5.81616e-13
-8.39373e-07
-5.01751e-07
-6.94677e-13
-7.76753e-07
-5.65055e-07
-8.3201e-13
-7.06118e-07
-6.16604e-07
-1.03009e-12
-6.28801e-07
-6.54184e-07
-1.31743e-12
-5.46505e-07
-6.75756e-07
-1.667e-12
-4.613e-07
-6.79589e-07
-1.97203e-12
-3.75597e-07
-6.64395e-07
-2.08519e-12
-2.92095e-07
-6.29474e-07
-1.99531e-12
-2.13699e-07
-5.74832e-07
-2.06757e-12
-1.43412e-07
-5.01279e-07
-1.82731e-12
-8.4219e-08
-4.10477e-07
1.97222e-12
-3.89407e-08
-3.04931e-07
-2.46895e-12
-1.01045e-08
-1.87891e-07
-3.93832e-11
-6.34154e-08
4.22393e-11
-1.02523e-08
7.87906e-08
-4.20856e-11
-3.80337e-08
2.20239e-07
3.96226e-11
-8.01904e-08
3.43646e-07
1.49503e-12
-1.3389e-07
4.48152e-07
-3.86993e-12
-1.96484e-07
5.33611e-07
-6.97184e-13
-2.65551e-07
6.00331e-07
-9.648e-13
-3.38922e-07
6.48974e-07
-1.44154e-12
-4.14682e-07
6.80449e-07
-1.5943e-12
-4.91151e-07
6.95812e-07
-1.67553e-12
-5.66868e-07
6.96188e-07
-1.61519e-12
-6.40565e-07
6.82719e-07
-1.40155e-12
-7.11137e-07
6.56514e-07
-1.15453e-12
-7.7762e-07
6.18638e-07
-1.03666e-12
-8.39156e-07
5.70093e-07
-1.0223e-12
-8.94974e-07
5.11835e-07
-1.02199e-12
-9.44368e-07
4.44782e-07
-9.57898e-13
-9.86682e-07
3.69841e-07
-7.56682e-13
-1.02129e-06
2.87941e-07
-4.52121e-13
-1.04761e-06
2.00062e-07
-1.66053e-13
-1.06507e-06
1.07273e-07
2.74506e-14
-1.07314e-06
1.07711e-08
1.39303e-13
-1.07134e-06
-8.80921e-08
1.75469e-13
-1.05927e-06
-1.87775e-07
1.12486e-13
-1.03661e-06
-2.86527e-07
-2.6735e-14
-1.00319e-06
-3.82375e-07
-1.6596e-13
-9.59032e-07
-4.7313e-07
-2.64567e-13
-9.0438e-07
-5.56402e-07
-3.60734e-13
-8.39786e-07
-6.29648e-07
-5.23477e-13
-7.66146e-07
-6.90244e-07
-7.96375e-13
-6.84754e-07
-7.35575e-07
-1.17369e-12
-5.97336e-07
-7.63173e-07
-1.59507e-12
-5.06063e-07
-7.70859e-07
-1.95499e-12
-4.13534e-07
-7.56921e-07
-2.12711e-12
-3.22724e-07
-7.20282e-07
-2.10874e-12
-2.36895e-07
-6.60658e-07
-2.2846e-12
-1.5948e-07
-5.78693e-07
-2.09541e-12
-9.39316e-08
-4.76028e-07
2.11207e-12
-4.35544e-08
-3.55305e-07
-2.938e-12
-1.1337e-08
-2.20064e-07
-4.43992e-11
-7.47997e-08
4.72896e-11
-1.09283e-08
8.97637e-08
-4.47612e-11
-4.04927e-08
2.49761e-07
4.24674e-11
-8.52687e-08
3.8842e-07
1.82146e-12
-1.42174e-07
5.05061e-07
-3.88611e-12
-2.08334e-07
5.99772e-07
-5.58213e-13
-2.81136e-07
6.73133e-07
-9.04505e-13
-3.58259e-07
7.261e-07
-1.41624e-12
-4.37678e-07
7.59869e-07
-1.56165e-12
-5.17639e-07
7.75774e-07
-1.57524e-12
-5.96645e-07
7.75196e-07
-1.4354e-12
-6.73419e-07
7.59493e-07
-1.21306e-12
-7.4687e-07
7.29967e-07
-1.02243e-12
-8.16062e-07
6.8783e-07
-9.42929e-13
-8.80176e-07
6.34209e-07
-8.95825e-13
-9.38483e-07
5.70144e-07
-8.25208e-13
-9.90318e-07
4.96617e-07
-7.16158e-13
-1.03505e-06
4.14576e-07
-5.16393e-13
-1.07208e-06
3.24973e-07
-2.2583e-13
-1.10082e-06
2.288e-07
7.35999e-14
-1.12069e-06
1.27136e-07
3.08911e-13
-1.1311e-06
2.11861e-08
4.53017e-13
-1.13152e-06
-8.76733e-08
4.8496e-13
-1.12144e-06
-1.97858e-07
4.00658e-13
-1.10042e-06
-3.07542e-07
2.62094e-13
-1.06816e-06
-4.14636e-07
1.55208e-13
-1.02451e-06
-5.16779e-07
9.32782e-14
-9.69565e-07
-6.11351e-07
3.6421e-15
-9.03707e-07
-6.95506e-07
-1.95316e-13
-8.27707e-07
-7.66243e-07
-5.31199e-13
-7.42774e-07
-8.20507e-07
-9.69124e-13
-6.50618e-07
-8.55328e-07
-1.44e-12
-5.53476e-07
-8.67999e-07
-1.85498e-12
-4.54118e-07
-8.56277e-07
-2.1e-12
-3.55798e-07
-8.18599e-07
-2.16773e-12
-2.62166e-07
-7.54288e-07
-2.46415e-12
-1.7713e-07
-6.63727e-07
-2.34319e-12
-1.04685e-07
-5.48475e-07
2.31078e-12
-4.87024e-08
-4.11284e-07
-3.43124e-12
-1.27251e-08
-2.55991e-07
-5.00321e-11
-8.75778e-08
5.29873e-11
-1.16136e-08
1.01425e-07
-4.73768e-11
-4.29763e-08
2.81079e-07
4.54413e-11
-9.03719e-08
4.35813e-07
2.24774e-12
-1.50446e-07
5.6514e-07
-3.90207e-12
-2.20082e-07
6.69407e-07
-4.46731e-13
-2.96459e-07
7.49511e-07
-8.09869e-13
-3.771e-07
8.06742e-07
-1.3275e-12
-4.59866e-07
8.42636e-07
-1.41056e-12
-5.4294e-07
8.5885e-07
-1.36163e-12
-6.24797e-07
8.57054e-07
-1.23407e-12
-7.04167e-07
8.38864e-07
-1.07383e-12
-7.79991e-07
8.05792e-07
-9.08585e-13
-8.51381e-07
7.59221e-07
-7.82184e-13
-9.17579e-07
7.00407e-07
-6.62555e-13
-9.77919e-07
6.30484e-07
-5.55304e-13
-1.03179e-06
5.50492e-07
-4.53788e-13
-1.07863e-06
4.61411e-07
-2.75717e-13
-1.11786e-06
3.64203e-07
1.01113e-14
-1.14891e-06
2.59854e-07
3.26574e-13
-1.1712e-06
1.49426e-07
5.82393e-13
-1.18413e-06
3.41101e-08
7.31415e-13
-1.18707e-06
-8.47264e-08
7.60056e-13
-1.17944e-06
-2.05488e-07
6.93314e-13
-1.16068e-06
-3.26308e-07
6.04091e-13
-1.1303e-06
-4.45011e-07
5.52691e-13
-1.08799e-06
-5.59092e-07
5.18615e-13
-1.03363e-06
-6.65713e-07
4.19129e-13
-9.67408e-07
-7.61728e-07
1.86246e-13
-8.89907e-07
-8.43744e-07
-1.88364e-13
-8.02193e-07
-9.0822e-07
-6.58324e-13
-7.059e-07
-9.5162e-07
-1.16247e-12
-6.03287e-07
-9.70611e-07
-1.63055e-12
-4.97261e-07
-9.62301e-07
-1.95456e-12
-3.9135e-07
-9.24508e-07
-2.12561e-12
-2.89611e-07
-8.56024e-07
-2.57609e-12
-1.96482e-07
-7.56853e-07
-2.54675e-12
-1.16581e-07
-6.28379e-07
2.60026e-12
-5.44469e-08
-4.73414e-07
-3.93664e-12
-1.42895e-08
-2.96092e-07
-5.63755e-11
-1.01927e-07
5.94174e-11
-1.2314e-08
1.13789e-07
-5.00746e-11
-4.55029e-08
3.14219e-07
4.85829e-11
-9.55305e-08
4.85838e-07
2.65093e-12
-1.58741e-07
6.28354e-07
-3.95739e-12
-2.31746e-07
7.42413e-07
-2.76563e-13
-3.11503e-07
8.29268e-07
-6.30366e-13
-3.95365e-07
8.90605e-07
-1.13885e-12
-4.81083e-07
9.28355e-07
-1.18612e-12
-5.66781e-07
9.4455e-07
-1.1642e-12
-6.50923e-07
9.41197e-07
-1.10259e-12
-7.32263e-07
9.20205e-07
-9.55819e-13
-8.09797e-07
8.83326e-07
-7.23818e-13
-8.82709e-07
8.32134e-07
-5.11961e-13
-9.50325e-07
7.68023e-07
-3.52548e-13
-1.01207e-06
6.92226e-07
-2.51379e-13
-1.06741e-06
6.05838e-07
-1.57738e-13
-1.11587e-06
5.09864e-07
2.93251e-14
-1.15692e-06
4.05258e-07
3.28668e-13
-1.19005e-06
2.9298e-07
6.46663e-13
-1.21468e-06
1.74053e-07
8.91163e-13
-1.23019e-06
4.96207e-08
1.03209e-12
-1.23592e-06
-7.89937e-08
1.08011e-12
-1.23119e-06
-2.10223e-07
1.06975e-12
-1.2153e-06
-3.42199e-07
1.04923e-12
-1.18761e-06
-4.72703e-07
1.03847e-12
-1.14758e-06
-5.99123e-07
1.00023e-12
-1.09486e-06
-7.18434e-07
8.6842e-13
-1.02938e-06
-8.27204e-07
5.99853e-13
-9.51485e-07
-9.21641e-07
1.98506e-13
-8.62016e-07
-9.97688e-07
-2.91093e-13
-7.62461e-07
-1.05117e-06
-8.23286e-13
-6.55031e-07
-1.07804e-06
-1.3474e-12
-5.42721e-07
-1.07461e-06
-1.76581e-12
-4.2931e-07
-1.03792e-06
-2.06638e-12
-3.19273e-07
-9.66058e-07
-2.70198e-12
-2.17631e-07
-8.58493e-07
-2.77546e-12
-1.29713e-07
-7.16299e-07
2.92374e-12
-6.08495e-08
-5.42273e-07
-4.54693e-12
-1.60516e-08
-3.40827e-07
-6.35873e-11
-1.18045e-07
6.66233e-11
-1.30387e-08
1.2688e-07
-5.28803e-11
-4.81028e-08
3.49231e-07
5.18399e-11
-1.00796e-07
5.38528e-07
3.06885e-12
-1.67118e-07
6.94681e-07
-3.92362e-12
-2.43375e-07
8.18669e-07
1.24281e-14
-3.26274e-07
9.12168e-07
-3.67056e-13
-4.1299e-07
9.77322e-07
-9.12256e-13
-5.01162e-07
1.01653e-06
-1.00686e-12
-5.88867e-07
1.03226e-06
-1.04663e-12
-6.74575e-07
1.02691e-06
-9.90308e-13
-7.57089e-07
1.00272e-06
-7.7254e-13
-8.35483e-07
9.61721e-07
-4.55423e-13
-9.09046e-07
9.05696e-07
-2.04396e-13
-9.77215e-07
8.36192e-07
-4.73665e-14
-1.03953e-06
7.5454e-07
5.8408e-14
-1.09558e-06
6.61891e-07
1.90837e-13
-1.14498e-06
5.59261e-07
4.20557e-13
-1.18731e-06
4.47584e-07
7.28844e-13
-1.2221e-06
3.27773e-07
1.02212e-12
-1.24883e-06
2.00783e-07
1.2401e-12
-1.26689e-06