/*--------------------------------*- C++ -*----------------------------------*\
  =========                 |
  \\      /  F ield         | OpenFOAM: The Open Source CFD Toolbox
   \\    /   O peration     | Website:  https://openfoam.org
    \\  /    A nd           | Version:  9
     \\/     M anipulation  |
\*---------------------------------------------------------------------------*/
FoamFile
{
    format      ascii;
    class       volScalarField;
    location    "8.74";
    object      k;
}
// * * * * * * * * * * * * * * * * * * * * * * * * * * * * * * * * * * * * * //

dimensions      [0 2 -2 0 0 0 0];

internalField   nonuniform List<scalar> 
2268
(
9.6873e-05
0.000248463
0.000366001
0.000458642
0.000535068
0.000599459
0.000654158
0.000700629
0.000739932
0.000773256
0.00080235
0.000828655
0.0008523
0.00087049
0.000876178
0.00085805
0.00081132
0.000745278
0.000659296
0.000568233
0.000482024
0.000347631
0.000166728
0.000213317
0.000578536
0.000822324
0.00101647
0.00117718
0.00131239
0.00142687
0.00152387
0.00160592
0.00167554
0.00173541
0.00178727
0.00183043
0.00185989
0.00186537
0.00183276
0.00175303
0.00163285
0.00147528
0.0013027
0.00111626
0.000814375
0.000373524
0.000306433
0.000774889
0.00107506
0.00131403
0.00151248
0.00167963
0.00182113
0.00194102
0.00204258
0.00212885
0.00220266
0.00226563
0.00231669
0.00235043
0.00235663
0.00232227
0.00223999
0.00211479
0.00194934
0.00175533
0.00152101
0.0011453
0.000527623
0.000386206
0.000933127
0.00127097
0.00153825
0.00176041
0.00194761
0.00210609
0.00224041
0.00235433
0.00245118
0.00253383
0.00260378
0.00265981
0.00269669
0.00270503
0.00267354
0.00259602
0.00247644
0.00231687
0.00212124
0.0018698
0.00145995
0.000684671
0.000455989
0.00107329
0.00144216
0.00173099
0.00197058
0.00217234
0.00234307
0.00248781
0.00261071
0.00271531
0.0028045
0.00287973
0.00293984
0.00298
0.00299191
0.00296599
0.00289664
0.0027874
0.00264014
0.00245404
0.00220356
0.00178333
0.00086161
0.000519083
0.00120254
0.00159962
0.00190668
0.00216027
0.00237333
0.00255344
0.00270611
0.0028359
0.00294655
0.00304098
0.00312067
0.00318461
0.00322854
0.00324524
0.00322666
0.00316769
0.00307162
0.00294074
0.00277157
0.00253608
0.0021251
0.0010899
0.000577855
0.00132481
0.00174871
0.00207219
0.00233763
0.00255982
0.00274723
0.00290603
0.0030412
0.00315671
0.00325555
0.00333925
0.00340706
0.00345529
0.0034778
0.00346781
0.00342074
0.00333965
0.00322766
0.00308028
0.00287174
0.00250025
0.00141809
0.000634983
0.00144322
0.0018929
0.00223165
0.00250745
0.00273709
0.00293014
0.00309356
0.00323288
0.00335232
0.00345497
0.00354243
0.00361426
0.00366732
0.00369647
0.00369576
0.00366157
0.00359685
0.00350463
0.00338143
0.00320864
0.00291354
0.00199764
0.000241687
0.000522107
0.000716814
0.000793594
0.000828477
0.000845433
0.000842176
0.000831979
0.000800573
0.000751063
0.000683621
0.00059334
0.000534341
0.000526622
0.000496758
0.000433793
0.000328265
0.000219511
0.000104112
0.000447991
0.00108346
0.00146557
0.00165516
0.00174865
0.00179197
0.00179902
0.00177621
0.00171472
0.00162293
0.00149107
0.00132126
0.00120661
0.00117018
0.00108962
0.00094914
0.000734745
0.000485307
0.000219218
0.000539042
0.00137258
0.0018408
0.00208098
0.00220237
0.00225884
0.00227081
0.0022436
0.00217175
0.00206432
0.00192115
0.00174935
0.00161287
0.00152917
0.00141332
0.00123832
0.000983094
0.000671204
0.000317619
0.000604742
0.00160404
0.00213016
0.00239549
0.00252948
0.00259141
0.00260462
0.00257416
0.00249719
0.00238323
0.00223806
0.0020719
0.00192487
0.00180614
0.00166284
0.00146697
0.00119232
0.000850391
0.000410505
0.000708891
0.00183694
0.0024011
0.00267159
0.00280654
0.00286795
0.00287954
0.00284594
0.0027658
0.00264952
0.00250594
0.00234529
0.00219117
0.0020474
0.00188223
0.00167155
0.00138533
0.00102771
0.000500571
0.000878796
0.00211748
0.00267642
0.00293249
0.00305886
0.00311498
0.00312274
0.00308597
0.00300406
0.00288775
0.00274735
0.00259076
0.00243048
0.00226827
0.00208647
0.00186407
0.00156808
0.00119869
0.000591323
0.00117364
0.00246384
0.0029618
0.00318601
0.00329671
0.00334404
0.00334634
0.00330646
0.00322409
0.00310942
0.00297281
0.00281868
0.00265262
0.00247611
0.00228137
0.00204801
0.00174178
0.00135972
0.000685617
0.00176881
0.00286136
0.00325095
0.00343368
0.00352457
0.00356091
0.00355662
0.00351366
0.0034321
0.00332082
0.00318814
0.00303492
0.00286353
0.00267541
0.00246884
0.00222278
0.00190609
0.00150721
0.000779819
0.000718209
0.00161886
0.00210898
0.00247133
0.00276231
0.00300198
0.00320202
0.003371
0.00351557
0.00364045
0.00374878
0.00384226
0.00392087
0.00398204
0.00402205
0.0040366
0.00402339
0.00398542
0.00392438
0.00383886
0.00372323
0.00355309
0.00319017
0.000825906
0.00185541
0.00240065
0.00279486
0.00310421
0.00335271
0.00355589
0.00372629
0.00387321
0.00400226
0.00411653
0.00421733
0.00430431
0.00437617
0.00443044
0.00446445
0.00447666
0.00446922
0.00444389
0.00439942
0.00433805
0.00425979
0.00413808
0.000968955
0.00212271
0.00271549
0.00314254
0.00347082
0.00372284
0.00391916
0.00408086
0.00422317
0.00435218
0.00446991
0.0045757
0.0046691
0.00474934
0.00481425
0.00486341
0.00489721
0.00491612
0.00491964
0.00490603
0.00487988
0.00485148
0.00482581
0.00126943
0.00247019
0.00308668
0.0035544
0.00390438
0.00415135
0.00432405
0.00445886
0.00458615
0.00470962
0.00482764
0.00493424
0.00502961
0.00511429
0.00518251
0.00523799
0.00528719
0.00532942
0.00535988
0.00536866
0.00536238
0.00536186
0.0054002
0.00161333
0.00274234
0.00334916
0.00378934
0.00409541
0.00435658
0.0045669
0.00473025
0.00488115
0.00502623
0.00516735
0.00529009
0.0053921
0.00548189
0.0055461
0.00559029
0.00564167
0.00570647
0.00577655
0.0058045
0.00579048
0.00579526
0.005849
0.00153521
0.00280849
0.0034855
0.00387098
0.00417503
0.00446964
0.00468231
0.0048561
0.00502846
0.00519975
0.00537018
0.00553246
0.00568858
0.00580591
0.00585927
0.00589068
0.00594996
0.0060104
0.00606377
0.00611451
0.0061391
0.00615707
0.00622486
0.00199279
0.00281647
0.00346658
0.00388141
0.00424337
0.00454691
0.00478715
0.00498525
0.00517009
0.00534845
0.00552188
0.00568993
0.00584983
0.00597097
0.00604486
0.00610288
0.0061648
0.00622589
0.00628142
0.0063357
0.00638333
0.00642837
0.00650627
0.00224204
0.00289045
0.00347329
0.00391351
0.00429164
0.00459664
0.00486191
0.00509335
0.00530151
0.00549406
0.00567394
0.00584323
0.00600008
0.00612993
0.00622949
0.00631063
0.00638157
0.00644286
0.00650035
0.00655633
0.00660931
0.00666005
0.00671982
0.00236386
0.00295583
0.00349376
0.00393882
0.00432331
0.00464764
0.00493264
0.00518656
0.0054157
0.00562584
0.00581953
0.00600016
0.00616805
0.00631116
0.00642652
0.00652202
0.00660174
0.00666682
0.00672534
0.00678149
0.00683505
0.00688531
0.00693325
0.00240593
0.00299737
0.00352668
0.00397509
0.00436484
0.00470381
0.00500501
0.00527626
0.00552346
0.00575087
0.0059606
0.00615553
0.00633518
0.00649013
0.00661878
0.00672753
0.00681798
0.00689121
0.00695401
0.00701216
0.00706701
0.00711772
0.00716241
0.00240453
0.00302376
0.00356279
0.00401804
0.00441526
0.00476648
0.00508165
0.00536804
0.00563125
0.00587442
0.00609888
0.00630633
0.00649577
0.00666135
0.00680275
0.00692502
0.0070286
0.00711365
0.00718544
0.00725017
0.00730997
0.0073641
0.00740993
0.00240601
0.0030461
0.0035996
0.00406522
0.00447205
0.00483477
0.0051627
0.00546297
0.00574061
0.00599756
0.00623465
0.00645319
0.00665249
0.00682944
0.00698427
0.0071203
0.00723796
0.00733718
0.00742166
0.00749709
0.00756576
0.00762686
0.00767757
0.00240122
0.00306838
0.0036379
0.00411567
0.00453346
0.0049077
0.00524797
0.00556117
0.00585176
0.00612107
0.00636985
0.00659947
0.00680978
0.00699951
0.00716897
0.00731955
0.00745217
0.00756704
0.00766666
0.00775563
0.00783595
0.0079069
0.00796583
0.00240008
0.00309185
0.0036786
0.00416956
0.00459906
0.00498505
0.00533753
0.00566309
0.00596561
0.00624655
0.00650721
0.00674889
0.00697179
0.00717564
0.00736075
0.00752748
0.0076765
0.00780836
0.00792496
0.00802952
0.00812361
0.00820662
0.00827628
0.00240686
0.00311673
0.00372271
0.00422752
0.00466925
0.00506723
0.00543196
0.00576962
0.00608393
0.00637689
0.0066503
0.00690536
0.0071425
0.00736186
0.00756365
0.00774803
0.00791517
0.00806561
0.00820087
0.00832299
0.00843302
0.00853042
0.00861316
0.00240212
0.00314534
0.00377101
0.00429037
0.00474477
0.00515497
0.00553201
0.00588195
0.00620862
0.00651467
0.00680209
0.00707206
0.00732515
0.0075616
0.00778157
0.00798507
0.00817209
0.008343
0.0084988
0.00864069
0.00876918
0.0088836
0.00898205
0.0024062
0.00317672
0.00382416
0.00435883
0.00482638
0.00524908
0.00563862
0.0060014
0.00634153
0.00666202
0.00696494
0.0072515
0.00752233
0.00777773
0.00801775
0.00824231
0.0084513
0.00864486
0.00882348
0.00898767
0.0091374
0.00927175
0.00938882
0.00240134
0.00321254
0.00388268
0.0044334
0.00491464
0.00535032
0.00575292
0.00612946
0.00648437
0.00682081
0.00714089
0.00744588
0.00773647
0.00801294
0.00827529
0.00852333
0.00875683
0.00897565
0.00917979
0.00936918
0.00954325
0.00970079
0.00983975
0.00240602
0.00325142
0.00394687
0.0045144
0.00501
0.00545942
0.00587607
0.00626756
0.0066387
0.00699275
0.00733186
0.00765738
0.00797002
0.00827006
0.00855741
0.0088318
0.00909281
0.00933999
0.00957287
0.00979082
0.00999281
0.0101772
0.0103418
0.00239936
0.00329499
0.00401673
0.004602
0.00511286
0.00557708
0.00600902
0.00641693
0.00680594
0.00717947
0.00753976
0.00788821
0.00822556
0.00855206
0.00886757
0.00917167
0.00946371
0.0097429
0.0100083
0.0102588
0.0104928
0.0107083
0.0109027
0.00239997
0.00334392
0.00409226
0.00469631
0.00522356
0.00570386
0.00615259
0.00657859
0.00698738
0.00738256
0.00776649
0.00814063
0.00850577
0.00886212
0.00920947
0.0095472
0.00987443
0.01019
0.0104925
0.0107802
0.011051
0.0113024
0.0115314
0.00240575
0.00339489
0.0041732
0.00479737
0.00534233
0.0058402
0.00630742
0.00675345
0.00718421
0.00760353
0.00801393
0.00841697
0.00881348
0.00920363
0.0095871
0.0099631
0.0103304
0.0106875
0.0110324
0.0113628
0.011676
0.011969
0.0122382
0.00240384
0.00345032
0.00425948
0.00490518
0.00546933
0.00598643
0.00647405
0.0069423
0.00739752
0.00784384
0.00828397
0.00871961
0.00915161
0.00958016
0.0100048
0.0104245
0.0108377
0.0112424
0.011636
0.0120155
0.0123777
0.0127187
0.0130345
0.00240787
0.00350872
0.00435094
0.00501967
0.0056046
0.00614277
0.00665289
0.0071458
0.0076283
0.00810486
0.00857845
0.00905092
0.00952323
0.00999552
0.0104672
0.010937
0.0114029
0.0118624
0.0123122
0.0127486
0.0131674
0.013564
0.0139335
0.00240883
0.00357079
0.00444745
0.00514065
0.00574805
0.00630925
0.00684419
0.00736446
0.00787739
0.00838785
0.00889913
0.0094133
0.00993142
0.0104537
0.0109793
0.0115067
0.0120334
0.0125562
0.013071
0.0135732
0.0140576
0.0145184
0.0149501
0.00240523
0.00363677
0.00454856
0.00526775
0.0058994
0.00648573
0.00704801
0.0075986
0.00814544
0.0086939
0.00924764
0.00980902
0.0103793
0.0109586
0.0115462
0.01214
0.0127371
0.0133333
0.0139236
0.0145021
0.0150625
0.0155978
0.0161011
0.00241149
0.00370411
0.00465376
0.00540044
0.00605815
0.00667186
0.00726414
0.00784826
0.00843284
0.00902382
0.00962535
0.0102402
0.0108698
0.0115145
0.0121734
0.0128439
0.0135225
0.0142039
0.0148821
0.0155495
0.0161983
0.0168199
0.0174059
0.00241282
0.00377468
0.00476221
0.00553791
0.00622358
0.00686697
0.00749209
0.00811317
0.00873962
0.00937807
0.0100333
0.0107085
0.0114057
0.0121252
0.012866
0.0136253
0.0143986
0.0151795
0.0159601
0.0167314
0.017483
0.0182047
0.018886
0.00241313
0.00384676
0.00487311
0.00567902
0.00639453
0.00707006
0.00773103
0.00839271
0.0090654
0.0097566
0.0104719
0.0112152
0.011989
0.0127941
0.0136293
0.0144914
0.0153749
0.0162719
0.0171727
0.0180654
0.0189373
0.0197753
0.0205666
0.00240976
0.00392018
0.00498495
0.00582233
0.00656957
0.00727969
0.00797957
0.00868561
0.00940915
0.0101587
0.0109409
0.0117607
0.0126212
0.0135239
0.0144677
0.0154489
0.0164609
0.017494
0.0185358
0.0195714
0.0205844
0.021558
0.0224764
0.00240571
0.00399196
0.00509605
0.00596601
0.00674683
0.00749399
0.00823585
0.00899001
0.00976904
0.0105827
0.011439
0.0123441
0.0133024
0.014316
0.0153844
0.0165035
0.0176656
0.0188588
0.0200671
0.0212716
0.022451
0.0235836
0.0246493
0.00240453
0.00406244
0.00520424
0.00610773
0.00692394
0.00771059
0.00849743
0.00930336
0.0101424
0.0110258
0.0119634
0.0129629
0.0140306
0.0151698
0.0163808
0.0176596
0.0189972
0.0203791
0.0217852
0.0231908
0.0245679
0.0258882
0.0271255
0.00241428
0.00412655
0.00530626
0.00624439
0.00709798
0.00792662
0.00876131
0.00962235
0.0105254
0.0114838
0.0125095
0.0136126
0.0148015
0.0160819
0.0174554
0.0189185
0.0204615
0.0220669
0.0237094
0.0253565
0.026971
0.0285146
0.0299528
0.00240345
0.00418096
0.00539688
0.0063718
0.0072655
0.00813879
0.00902395
0.00994287
0.0109133
0.011951
0.0130707
0.0142857
0.0156076
0.017045
0.0186022
0.0202775
0.0220607
0.0239316
0.0258586
0.027799
0.029702
0.0315147
0.03319
0.00241142
0.00421905
0.00547069
0.00648568
0.00742299
0.00834372
0.00928143
0.01026
0.0112998
0.0124196
0.0136378
0.0149716
0.0164368
0.0180466
0.0198095
0.021727
0.0237904
0.0259776
0.0282497
0.0305505
0.0328098
0.0349518
0.0369099
0.00241306
0.00423157
0.00552175
0.00658201
0.00756733
0.00853819
0.0095296
0.0105681
0.0116773
0.01288
0.0141987
0.0156556
0.0172721
0.0190675
0.0210568
0.0232477
0.0256358
0.0281994
0.0308931
0.0336434
0.036351
0.0389043
0.0412044
0.00241002
0.00421134
0.00554429
0.00665787
0.00769661
0.00871963
0.00976422
0.0108607
0.012037
0.0133203
0.0147382
0.0163187
0.0180902
0.0200801
0.0223129
0.0248062
0.0275655
0.0305747
0.0337849
0.0371028
0.0403869
0.0434669
0.0461896
0.00240618
0.0041456
0.00553263
0.00671256
0.00781092
0.00888638
0.009981
0.0111306
0.0123683
0.0137264
0.015238
0.0169377
0.0188617
0.0210476
0.0235328
0.0263506
0.0295236
0.0330512
0.0368901
0.0409279
0.0449661
0.0487422
0.0520074
0.00241053
0.00402906
0.00548644
0.00674951
0.00791258
0.00903737
0.0101751
0.0113695
0.0126595
0.0140827
0.0156777
0.0174855
0.0195511
0.0219237
0.0246567
0.0278048
0.0314181
0.0355265
0.0401091
0.0450457
0.0500726
0.0548008
0.0588205
0.00362796
0.00399097
0.0054102
0.00677273
0.00800363
0.00916991
0.0103397
0.0115672
0.0128974
0.0143724
0.0160354
0.0179333
0.0201194
0.0226549
0.0256106
0.0290672
0.0331118
0.0378216
0.0432235
0.0492174
0.0555006
0.0615782
0.0668233
0.0173554
0.00540957
0.00532611
0.00677731
0.00807993
0.00927589
0.0104643
0.0117117
0.0130682
0.0145788
0.0162898
0.0182528
0.0205276
0.0231854
0.026313
0.0300165
0.0344219
0.0396634
0.0458369
0.0529076
0.0606364
0.0686595
0.0764185
0.0839919
0.0136947
0.00543701
0.00676516
0.00812834
0.00933903
0.0105339
0.0117895
0.0131585
0.0146871
0.0164231
0.0184204
0.0207424
0.0234664
0.0266889
0.030532
0.0351491
0.0407166
0.0473908
0.0552268
0.0641969
0.0747174
0.0891137
0.00223038
0.00194101
0.00194168
0.00222184
0.00398858
0.00392016
0.00390114
0.00392992
0.00480463
0.00478235
0.00475592
0.0047332
0.0054565
0.00543803
0.00537944
0.00532402
0.00593682
0.00595378
0.00589099
0.00580437
0.00629171
0.00630883
0.00627038
0.00619332
0.0065969
0.00660814
0.00656264
0.00649132
0.00677355
0.00678635
0.00676666
0.00672784
0.00696442
0.00697451
0.00696982
0.00695307
0.00718648
0.00719512
0.00719583
0.00718933
0.00743308
0.00744238
0.00744605
0.00744431
0.00770368
0.00771555
0.0077222
0.00772379
0.00799746
0.00801314
0.00802374
0.00802921
0.00831531
0.00833573
0.00835112
0.00836127
0.00866124
0.00868739
0.00870843
0.0087241
0.00904097
0.00907392
0.00910162
0.00912377
0.00946063
0.00950163
0.00953717
0.00956695
0.00992678
0.00997727
0.0100221
0.0100608
0.0104467
0.0105083
0.010564
0.0106132
0.0110285
0.0111032
0.0111716
0.0112332
0.0116816
0.0117716
0.0118547
0.0119307
0.0124166
0.0125242
0.0126246
0.0127171
0.0132456
0.0133737
0.0134938
0.0136056
0.0141823
0.0143339
0.0144769
0.0146107
0.0152423
0.0154209
0.01559
0.015749
0.0164432
0.0166528
0.0168518
0.0170395
0.017805
0.01805
0.018283
0.0185033
0.0193505
0.0196359
0.0199075
0.0201647
0.0211058
0.0214371
0.0217525
0.0220511
0.023101
0.0234844
0.0238492
0.0241942
0.0253715
0.0258141
0.0262342
0.0266309
0.0279591
0.0284685
0.0289505
0.0294042
0.0309138
0.0314985
0.0320493
0.0325652
0.0342966
0.0349657
0.035592
0.036175
0.0381827
0.0389458
0.0396539
0.040307
0.0426665
0.043533
0.0443271
0.0450507
0.0478669
0.0488444
0.049725
0.0505138
0.0539301
0.0550238
0.0559847
0.0568244
0.0610316
0.0622428
0.0632667
0.0641286
0.0693907
0.0707102
0.0717569
0.0725871
0.0793797
0.0807274
0.0816844
0.0823732
0.0918508
0.0927874
0.0933196
0.0936413
0.00304089
0.00347247
0.00369121
0.00380908
0.00386742
0.00388502
0.00387002
0.00382248
0.00374371
0.00364032
0.00351379
0.00336033
0.00318142
0.00297787
0.00274803
0.00247738
0.00214317
0.00170682
0.000874765
0.0040194
0.00414419
0.0042301
0.00428088
0.00430144
0.00429648
0.00426934
0.00421939
0.00414617
0.00405295
0.00393376
0.00377862
0.00358714
0.00336015
0.0030924
0.002784
0.0024122
0.00191204
0.000939399
0.00470688
0.00470476
0.00471327
0.0047189
0.00471339
0.00469351
0.0046598
0.00461081
0.00454452
0.00446141
0.00434779
0.00418499
0.00397052
0.00371542
0.00340995
0.00306053
0.00264328
0.00207066
0.000967895
0.00525288
0.00518541
0.00515301
0.00513531
0.00511697
0.00508995
0.00505598
0.00501262
0.00495492
0.004884
0.0047827
0.00460814
0.0043496
0.00406125
0.00371612
0.00331991
0.00285431
0.00221219
0.00118963
0.00569859
0.00560884
0.00555976
0.00551972
0.00547813
0.00543954
0.00540133
0.00535156
0.00527683
0.00518093
0.00507004
0.0049286
0.00471248
0.00436358
0.00400768
0.00357135
0.00306291
0.00238727
0.00116697
0.0060912
0.00597022
0.00589574
0.00584154
0.00579529
0.00574532
0.00568052
0.00560142
0.00550671
0.00539715
0.0052749
0.00513725
0.00492313
0.00461781
0.00426323
0.00381314
0.00327499
0.00255604
0.00128945
0.00638837
0.00628105
0.00620309
0.00614103
0.00608714
0.00602906
0.0059428
0.00584057
0.00573338
0.00561772
0.00548974
0.00536815
0.00517762
0.00480147
0.00443207
0.00399931
0.00347641
0.00279947
0.00193761
0.00665745
0.00656376
0.00648412
0.00641622
0.00635288
0.00627589
0.00617134
0.00605461
0.0059337
0.00580636
0.00566667
0.00551265
0.00527345
0.00490328
0.00450944
0.00407112
0.00355367
0.00288628
0.00195093
0.00691297
0.00683847
0.00676071
0.00668567
0.00660882
0.00651051
0.00639056
0.00625935
0.00612126
0.00597327
0.00580487
0.00560043
0.0053193
0.00495815
0.00455017
0.00409134
0.00355917
0.00288502
0.00194838
0.00716863
0.00711416
0.00704168
0.00696166
0.0068721
0.00675753
0.00662095
0.00647038
0.00630864
0.00613204
0.00592759
0.00567325
0.00534714
0.0049781
0.00456135
0.00408326
0.00352898
0.00283877
0.00195117
0.00743338
0.00739319
0.00732786
0.0072462
0.00714703
0.00702007
0.0068683
0.00669815
0.00651045
0.00630173
0.00606097
0.00576715
0.0054031
0.00499982
0.00456082
0.00406267
0.00348667
0.0027839
0.00194517
0.00771849
0.0076851
0.00762563
0.00754327
0.00743705
0.00730181
0.00713925
0.00695259
0.00674152
0.00650287
0.00622842
0.00590266
0.00550967
0.00506517
0.00458512
0.00405396
0.00345314
0.00274281
0.00194433
0.00802976
0.00800214
0.0079466
0.00786408
0.00775369
0.00761343
0.00744325
0.00724365
0.00701356
0.00675013
0.00644741
0.00609503
0.00567984
0.00520161
0.00467397
0.0040989
0.00346614
0.00273867
0.00194584
0.00836914
0.00834959
0.00829932
0.00821876
0.00810754
0.00796462
0.00778901
0.00757976
0.00733527
0.00705287
0.00672815
0.00635421
0.00592149
0.00542146
0.00485593
0.00423577
0.00356349
0.00279205
0.00194381
0.00874081
0.00873198
0.00868995
0.00861463
0.00850577
0.00836257
0.00818379
0.00796792
0.00771309
0.00741685
0.00707573
0.00668485
0.00623741
0.00572403
0.00513855
0.00448634
0.00376947
0.00291555
0.00191475
0.00915094
0.00915536
0.00912449
0.0090576
0.00895415
0.00881332
0.00863384
0.0084141
0.00815223
0.00784601
0.00749263
0.00708839
0.00662823
0.00610473
0.00550985
0.00483921
0.00407679
0.0031252
0.0019112
0.00960644
0.00962669
0.00960971
0.00955412
0.00945892
0.00932309
0.00914534
0.00892411
0.00865763
0.00834394
0.00798072
0.00756506
0.00709304
0.00655885
0.00595422
0.00526599
0.0044577
0.00340579
0.00194515
0.0101148
0.0101537
0.0101534
0.0101118
0.0100275
0.00989906
0.0097252
0.00950434
0.00923481
0.00891484
0.00854242
0.00811513
0.00762963
0.00708075
0.0064595
0.00574698
0.00489356
0.00374751
0.00195089
0.0106843
0.0107451
0.0107643
0.0107394
0.0106684
0.0105497
0.0103815
0.0101623
0.0098905
0.00956426
0.00918173
0.00874062
0.00823766
0.00766751
0.00701999
0.00627289
0.00537053
0.00414602
0.00195222
0.0113241
0.0114105
0.0114525
0.0114471
0.0113919
0.0112848
0.0111239
0.0109072
0.0106331
0.0102996
0.00990488
0.00944631
0.00892033
0.0083209
0.00763638
0.00684187
0.00587684
0.00455866
0.00213135
0.0120449
0.0121609
0.0122292
0.0122463
0.0122094
0.0121159
0.0119633
0.0117497
0.0114728
0.0111306
0.0107206
0.0102401
0.00968461
0.00904728
0.00831471
0.00745977
0.00641706
0.00498624
0.0023237
0.0128582
0.0130085
0.0131071
0.01315
0.0131339
0.0130558
0.0129128
0.0127023
0.0124219
0.0120688
0.0116403
0.0111326
0.0105408
0.00985688
0.00906635
0.00813919
0.00700472
0.00544725
0.00253315
0.0137777
0.0139673
0.0141004
0.0141726
0.0141801
0.0141192
0.0139868
0.0137796
0.0134946
0.0131285
0.0126775
0.0121376
0.0115029
0.0107641
0.00990511
0.00889363
0.00765368
0.00595281
0.00277107
0.0148184
0.0150528
0.015225
0.0153303
0.0153642
0.0153226
0.0152018
0.014998
0.0147073
0.0143259
0.0138492
0.0132719
0.0125872
0.0117846
0.0108465
0.00973792
0.00837758
0.00651428
0.00303377
0.0159974
0.0162827
0.016499
0.0166413
0.0167046
0.0166843
0.0165763
0.016376
0.016079
0.0156802
0.0151742
0.0145545
0.0138127
0.0129371
0.0119081
0.0106884
0.00919022
0.00714103
0.0033198
0.017334
0.0176766
0.0179423
0.0181257
0.0182214
0.0182247
0.0181308
0.0179345
0.0176305
0.0172128
0.0166743
0.0160071
0.0152012
0.0142429
0.0131106
0.0117636
0.010107
0.00784346
0.00363013
0.0188499
0.0192567
0.0195773
0.0198059
0.0199372
0.0199663
0.019888
0.0196965
0.0193855
0.0189475
0.018374
0.0176549
0.0167781
0.0157273
0.0144782
0.0129859
0.0111469
0.00863442
0.00396329
0.0205699
0.021048
0.0214288
0.0217068
0.0218769
0.021934
0.021873
0.0216874
0.0213698
0.0209113
0.0203011
0.0195267
0.0185728
0.01742
0.0160401
0.014383
0.0123346
0.00953464
0.00433352
0.0225219
0.0230785
0.0235249
0.0238561
0.0240677
0.0241551
0.0241131
0.023935
0.0236122
0.0231339
0.0224868
0.0216551
0.0206196
0.0193564
0.017832
0.0159896
0.0137031
0.0105745
0.00477069
0.0247378
0.0253802
0.025897
0.0262846
0.0265398
0.0266594
0.0266383
0.0264698
0.0261441
0.0256483
0.0249661
0.0240775
0.0229581
0.0215779
0.0198965
0.0178483
0.0152927
0.0117901
0.00530147
0.0272548
0.0279894
0.0285804
0.0290264
0.0293266
0.0294795
0.0294812
0.0293249
0.0289998
0.0284908
0.0277779
0.026836
0.0256339
0.0241335
0.0222845
0.0200099
0.017151
0.0132197
0.00593792
0.0301156
0.0309479
0.031615
0.0321196
0.0324646
0.0326511
0.032677
0.0325359
0.0322163
0.0317007
0.0309648
0.0299774
0.0286988
0.0270798
0.0250569
0.0225362
0.0193356
0.0149071
0.00668601
0.0333706
0.0343034
0.0350459
0.0356068
0.0359941
0.0362129
0.0362638
0.0361413
0.0358334
0.0353202
0.0345731
0.0335534
0.0322112
0.0304829
0.0282862
0.0255036
0.0219194
0.016911
0.00756956
0.037079
0.0381114
0.0389243
0.0395352
0.0399594
0.0402073
0.0402828
0.0401822
0.0398934
0.0393943
0.038652
0.03762
0.0362361
0.0344186
0.0320597
0.0290077
0.0249987
0.0193126
0.00862494
0.041311
0.0424357
0.0433078
0.0439574
0.0444093
0.0446803
0.0447785
0.0447027
0.044441
0.0439701
0.0432532
0.0422361
0.0408434
0.0389721
0.036481
0.0331695
0.028702
0.0222254
0.00990214
0.0461496
0.0473495
0.0482613
0.0489319
0.0493975
0.0496824
0.0497995
0.04975
0.0495235
0.0490965
0.0484292
0.0474617
0.046106
0.0442359
0.0416699
0.0381401
0.0332036
0.0258122
0.0114685
0.0516921
0.0529359
0.0538568
0.0545231
0.0549834
0.0552696
0.055399
0.0553758
0.0551915
0.0548237
0.0542326
0.053355
0.0520943
0.0503036
0.047758
0.0441043
0.038742
0.0303209
0.0134423
0.0580496
0.0592863
0.0601729
0.0608014
0.0612325
0.0615041
0.0616368
0.0616374
0.0614998
0.0612044
0.0607144
0.0599688
0.0588696
0.0572586
0.054875
0.0512736
0.0456398
0.0361436
0.0160415
0.0653432
0.0664978
0.067293
0.0678436
0.0682182
0.0684571
0.0685819
0.0686008
0.0685104
0.0682954
0.0679254
0.0673481
0.0664754
0.0651559
0.063119
0.0598528
0.0543043
0.0439108
0.0196363
0.0736956
0.0746664
0.0753034
0.0757334
0.0760237
0.0762113
0.0763154
0.0763441
0.076296
0.0761614
0.0759189
0.0755311
0.0749319
0.0740017
0.072508
0.0699561
0.0651549
0.0546328
0.0249376
0.0832178
0.0838809
0.0842923
0.0845634
0.0847458
0.0848656
0.0849361
0.0849631
0.0849469
0.0848826
0.0847592
0.084557
0.0842404
0.0837426
0.0829242
0.08145
0.0783358
0.0697186
0.0334567
0.0939833
0.0942162
0.0943526
0.094441
0.0945006
0.0945407
0.0945657
0.0945779
0.0945775
0.0945637
0.0945341
0.0944845
0.0944075
0.0942902
0.0941061
0.0937818
0.0930121
0.0896811
0.0470141
)
;

boundaryField
{
    leftWall
    {
        type            kqRWallFunction;
        value           nonuniform List<scalar> 
50
(
9.6873e-05
0.000213317
0.000306433
0.000386206
0.000455989
0.000519083
0.000577855
0.000634983
0.000718209
0.000825906
0.000968955
0.00126943
0.00161333
0.00153521
0.00199279
0.00224204
0.00236386
0.00240593
0.00240453
0.00240601
0.00240122
0.00240008
0.00240686
0.00240212
0.0024062
0.00240134
0.00240602
0.00239936
0.00239997
0.00240575
0.00240384
0.00240787
0.00240883
0.00240523
0.00241149
0.00241282
0.00241313
0.00240976
0.00240571
0.00240453
0.00241428
0.00240345
0.00241142
0.00241306
0.00241002
0.00240618
0.00241053
0.00362796
0.0173554
0.0839919
)
;
    }
    rightWall
    {
        type            kqRWallFunction;
        value           nonuniform List<scalar> 
50
(
0.000104112
0.000219218
0.000317619
0.000410505
0.000500571
0.000591323
0.000685617
0.000779819
0.000874765
0.000939399
0.000967895
0.00118963
0.00116697
0.00128945
0.00193761
0.00195093
0.00194838
0.00195117
0.00194517
0.00194433
0.00194584
0.00194381
0.00191475
0.0019112
0.00194515
0.00195089
0.00195222
0.00213135
0.0023237
0.00253315
0.00277107
0.00303377
0.0033198
0.00363013
0.00396329
0.00433352
0.00477069
0.00530147
0.00593792
0.00668601
0.00756956
0.00862494
0.00990214
0.0114685
0.0134423
0.0160415
0.0196363
0.0249376
0.0334567
0.0470141
)
;
    }
    lowerWall
    {
        type            kqRWallFunction;
        value           nonuniform List<scalar> 
62
(
9.6873e-05
0.000248463
0.000366001
0.000458642
0.000535068
0.000599459
0.000654158
0.000700629
0.000739932
0.000773256
0.00080235
0.000828655
0.0008523
0.00087049
0.000876178
0.00085805
0.00081132
0.000745278
0.000659296
0.000568233
0.000482024
0.000347631
0.000166728
0.000166728
0.000373524
0.000527623
0.000684671
0.00086161
0.0010899
0.00141809
0.00199764
0.00223038
0.00194101
0.00194168
0.00222184
0.000241687
0.000447991
0.000539042
0.000604742
0.000708891
0.000878796
0.00117364
0.00176881
0.000241687
0.000522107
0.000716814
0.000793594
0.000828477
0.000845433
0.000842176
0.000831979
0.000800573
0.000751063
0.000683621
0.00059334
0.000534341
0.000526622
0.000496758
0.000433793
0.000328265
0.000219511
0.000104112
)
;
    }
    atmosphere
    {
        type            inletOutlet;
        inletValue      uniform 0.1;
        value           nonuniform List<scalar> 
46
(
0.1
0.0136947
0.00543701
0.00676516
0.00812834
0.00933903
0.0105339
0.0117895
0.0131585
0.0146871
0.0164231
0.0184204
0.0207424
0.0234664
0.0266889
0.030532
0.0351491
0.0407166
0.0473908
0.0552268
0.0641969
0.0747174
0.1
0.1
0.1
0.1
0.1
0.1
0.1
0.1
0.1
0.1
0.1
0.1
0.1
0.1
0.1
0.1
0.1
0.1
0.1
0.1
0.1
0.1
0.1
0.0470141
)
;
    }
    defaultFaces
    {
        type            empty;
    }
}


// ************************************************************************* //
