/*--------------------------------*- C++ -*----------------------------------*\
  =========                 |
  \\      /  F ield         | OpenFOAM: The Open Source CFD Toolbox
   \\    /   O peration     | Website:  https://openfoam.org
    \\  /    A nd           | Version:  9
     \\/     M anipulation  |
\*---------------------------------------------------------------------------*/
FoamFile
{
    format      ascii;
    class       surfaceScalarField;
    location    "1.56";
    object      phi;
}
// * * * * * * * * * * * * * * * * * * * * * * * * * * * * * * * * * * * * * //

dimensions      [0 3 -1 0 0 0 0];

internalField   nonuniform List<scalar> 
4432
(
-1.38163e-06
1.38163e-06
-1.05434e-06
-3.27276e-07
3.13639e-08
-1.08571e-06
1.25427e-06
-1.2229e-06
2.47731e-06
-1.22304e-06
3.64815e-06
-1.17085e-06
4.76284e-06
-1.11469e-06
5.81756e-06
-1.05473e-06
6.77878e-06
-9.61224e-07
7.60571e-06
-8.26929e-07
8.29429e-06
-6.88581e-07
8.87198e-06
-5.77694e-07
9.36337e-06
-4.91385e-07
9.75746e-06
-3.94092e-07
9.98083e-06
-2.23367e-07
9.88754e-06
9.32859e-08
9.22144e-06
6.66096e-07
7.4614e-06
1.76003e-06
4.7985e-06
2.6629e-06
1.55569e-06
3.24281e-06
-1.65057e-06
3.20627e-06
-3.18004e-06
1.52947e-06
-3.18004e-06
-5.03613e-07
1.88524e-06
2.38697e-08
-8.54738e-07
8.3313e-07
-1.89498e-06
1.73876e-06
-2.12853e-06
2.64798e-06
-2.13226e-06
3.54571e-06
-2.06858e-06
4.43135e-06
-2.00034e-06
5.29919e-06
-1.92257e-06
6.12478e-06
-1.78682e-06
6.88113e-06
-1.58328e-06
7.56631e-06
-1.37376e-06
8.19793e-06
-1.20931e-06
8.78605e-06
-1.07951e-06
9.30891e-06
-9.16945e-07
9.70097e-06
-6.15437e-07
9.84334e-06
-4.90903e-08
9.55866e-06
9.50778e-07
8.66653e-06
2.65216e-06
6.92548e-06
4.40397e-06
4.41345e-06
5.75483e-06
1.48769e-06
6.13202e-06
-6.12534e-07
3.6297e-06
-3.79258e-06
1.52122e-07
1.73311e-06
6.56813e-07
-1.35941e-06
1.27526e-06
-2.51344e-06
1.95253e-06
-2.8058e-06
2.65223e-06
-2.83196e-06
3.36961e-06
-2.78596e-06
4.10596e-06
-2.73669e-06
4.85731e-06
-2.67391e-06
5.6026e-06
-2.53211e-06
6.31843e-06
-2.2991e-06
7.00356e-06
-2.0589e-06
7.6707e-06
-1.87645e-06
8.32139e-06
-1.73019e-06
8.92674e-06
-1.5223e-06
9.41796e-06
-1.10666e-06
9.68745e-06
-3.1858e-07
9.60613e-06
1.0321e-06
9.12698e-06
3.13131e-06
8.03579e-06
5.49517e-06
6.23118e-06
7.55944e-06
3.80946e-06
8.55374e-06
1.36979e-06
6.06939e-06
-2.42279e-06
5.72401e-07
1.16071e-06
1.05739e-06
-1.84438e-06
1.53498e-06
-2.99104e-06
2.0442e-06
-3.31502e-06
2.58613e-06
-3.3739e-06
3.16611e-06
-3.36594e-06
3.78991e-06
-3.36048e-06
4.45758e-06
-3.34159e-06
5.14931e-06
-3.22384e-06
5.84077e-06
-2.99055e-06
6.53084e-06
-2.74897e-06
7.2305e-06
-2.5761e-06
7.93679e-06
-2.43649e-06
8.61745e-06
-2.20295e-06
9.20558e-06
-1.69478e-06
9.60795e-06
-7.20951e-07
9.73572e-06
9.04347e-07
9.56301e-06
3.30402e-06
8.93878e-06
6.1194e-06
7.68392e-06
8.81431e-06
5.72119e-06
1.05165e-05
3.09643e-06
8.69415e-06
6.7364e-07
8.06828e-07
3.53875e-07
1.28619e-06
-2.32373e-06
1.666e-06
-3.37086e-06
2.05181e-06
-3.70082e-06
2.4723e-06
-3.79439e-06
2.94346e-06
-3.83711e-06
3.47815e-06
-3.89517e-06
4.08305e-06
-3.94648e-06
4.73838e-06
-3.87916e-06
5.41573e-06
-3.6679e-06
6.11433e-06
-3.44758e-06
6.84619e-06
-3.30795e-06
7.60687e-06
-3.19717e-06
8.36323e-06
-2.95931e-06
9.0523e-06
-2.38386e-06
9.59492e-06
-1.26356e-06
9.92774e-06
5.7153e-07
1.00289e-05
3.20289e-06
9.78628e-06
6.36198e-06
9.017e-06
9.5836e-06
7.49838e-06
1.20351e-05
4.78409e-06
1.14084e-05
5.45773e-06
9.14476e-07
-5.60604e-07
1.38742e-06
-2.79666e-06
1.70328e-06
-3.68672e-06
2.00119e-06
-3.99873e-06
2.32926e-06
-4.12246e-06
2.71397e-06
-4.22182e-06
3.17715e-06
-4.35835e-06
3.73483e-06
-4.50416e-06
4.36646e-06
-4.51078e-06
5.03674e-06
-4.33818e-06
5.7459e-06
-4.15674e-06
6.50944e-06
-4.0715e-06
7.32348e-06
-4.01121e-06
8.15539e-06
-3.79122e-06
8.9466e-06
-3.17507e-06
9.62978e-06
-1.94674e-06
1.01589e-05
4.2396e-08
1.05202e-05
2.84164e-06
1.0635e-05
6.24713e-06
1.03373e-05
9.88133e-06
9.31367e-06
1.30587e-05
6.65049e-06
1.40716e-05
1.21082e-05
9.41422e-07
-1.50203e-06
1.4037e-06
-3.25894e-06
1.68045e-06
-3.96347e-06
1.91828e-06
-4.23656e-06
2.17742e-06
-4.3816e-06
2.49369e-06
-4.53809e-06
2.89899e-06
-4.76365e-06
3.42127e-06
-5.02643e-06
4.03866e-06
-5.12816e-06
4.70633e-06
-5.00585e-06
5.42622e-06
-4.87664e-06
6.21948e-06
-4.86476e-06
7.08391e-06
-4.87563e-06
7.98808e-06
-4.6954e-06
8.87754e-06
-4.06452e-06
9.69484e-06
-2.76404e-06
1.04092e-05
-6.7192e-07
1.10204e-05
2.23034e-06
1.14866e-05
5.78098e-06
1.16832e-05
9.6847e-06
1.13004e-05
1.34416e-05
8.83851e-06
1.65335e-05
2.09467e-05
9.20253e-07
-2.42228e-06
1.37573e-06
-3.71441e-06
1.6307e-06
-4.21845e-06
1.82899e-06
-4.43485e-06
2.03786e-06
-4.59046e-06
2.30001e-06
-4.80024e-06
2.65768e-06
-5.12131e-06
3.15329e-06
-5.52204e-06
3.76329e-06
-5.73816e-06
4.43055e-06
-5.67311e-06
5.15953e-06
-5.60563e-06
5.97882e-06
-5.68405e-06
6.88819e-06
-5.78501e-06
7.85751e-06
-5.66471e-06
8.83607e-06
-5.04308e-06
9.77508e-06
-3.70305e-06
1.06585e-05
-1.55532e-06
1.15065e-05
1.38229e-06
1.2318e-05
4.96952e-06
1.30429e-05
8.95982e-06
1.3475e-05
1.30095e-05
1.20597e-05
1.79488e-05
3.30064e-05
-6.12493e-06
6.12493e-06
-1.42997e-06
-4.69496e-06
7.70134e-06
-9.1313e-06
1.68983e-05
-9.19697e-06
2.36033e-05
-6.70502e-06
2.5953e-05
-2.34964e-06
2.53075e-05
6.45426e-07
2.46352e-05
6.72377e-07
2.37657e-05
8.69485e-07
1.99773e-05
3.78842e-06
1.25217e-05
7.45559e-06
4.51974e-06
8.00192e-06
-1.3511e-06
5.87085e-06
-6.09818e-06
4.74707e-06
-1.01243e-05
4.0261e-06
-1.35569e-05
3.43258e-06
-1.40357e-05
4.78817e-07
-8.26093e-06
-5.77475e-06
-8.26093e-06
-2.78435e-06
8.90929e-06
2.70837e-06
-1.01877e-05
1.0846e-05
-1.7269e-05
1.83809e-05
-1.67318e-05
2.34602e-05
-1.17844e-05
2.49365e-05
-3.82591e-06
2.38647e-05
1.71725e-06
2.26334e-05
1.90369e-06
2.1748e-05
1.75486e-06
1.93375e-05
6.19893e-06
1.37604e-05
1.30327e-05
6.56127e-06
1.5201e-05
6.86457e-07
1.17457e-05
-3.56357e-06
8.99709e-06
-6.86702e-06
7.32956e-06
-9.86315e-06
6.42871e-06
-1.13273e-05
1.94294e-06
-8.1175e-06
-8.98452e-06
-1.63784e-05
1.90788e-07
8.7185e-06
6.06294e-06
-1.60598e-05
1.34988e-05
-2.47049e-05
1.9735e-05
-2.2968e-05
2.36015e-05
-1.56509e-05
2.42132e-05
-4.43754e-06
2.25544e-05
3.37601e-06
2.08052e-05
3.65293e-06
1.9518e-05
3.042e-06
1.7287e-05
8.42997e-06
1.28978e-05
1.74219e-05
7.40301e-06
2.06958e-05
2.61284e-06
1.65358e-05
-8.55306e-07
1.24652e-05
-3.42806e-06
9.90231e-06
-5.94263e-06
8.94328e-06
-7.85834e-06
3.85866e-06
-6.28144e-06
-1.05614e-05
-2.26599e-05
2.41033e-06
6.30817e-06
9.25659e-06
-2.29061e-05
1.63042e-05
-3.17524e-05
2.14404e-05
-2.81042e-05
2.4164e-05
-1.83745e-05
2.38888e-05
-4.16229e-06
2.15074e-05
5.75732e-06
1.91491e-05
6.01123e-06
1.75608e-05
4.63034e-06
1.55477e-05
1.04431e-05
1.25071e-05
2.04625e-05
8.20506e-06
2.49978e-05
4.33854e-06
2.04024e-05
1.44391e-06
1.53599e-05
-5.72337e-07
1.19186e-05
-2.47466e-06
1.08456e-05
-3.93205e-06
5.31604e-06
-3.46627e-06
-1.10272e-05
-2.61262e-05
4.74953e-06
1.55864e-06
1.28048e-05
-3.09613e-05
1.94919e-05
-3.84395e-05
2.35876e-05
-3.22e-05
2.50856e-05
-1.98725e-05
2.39295e-05
-3.00622e-06
2.06402e-05
9.04663e-06
1.74976e-05
9.15378e-06
1.53419e-05
6.78604e-06
1.39637e-05
1.18213e-05
1.27952e-05
2.1631e-05
9.47357e-06
2.83194e-05
6.08435e-06
2.37916e-05
3.50984e-06
1.79344e-05
1.8006e-06
1.36278e-05
7.04207e-07
1.1942e-05
-6.88235e-08
6.08907e-06
-4.19846e-08
-1.1054e-05
-2.61681e-05
8.66006e-06
-7.10142e-06
1.72789e-05
-3.95802e-05
2.27524e-05
-4.3913e-05
2.57126e-05
-3.51603e-05
2.61631e-05
-2.03229e-05
2.42043e-05
-1.04742e-06
2.00361e-05
1.32149e-05
1.5914e-05
1.32759e-05
1.30797e-05
9.62036e-06
1.22931e-05
1.26078e-05
1.30528e-05
2.08712e-05
1.0935e-05
3.04373e-05
7.82226e-06
2.69043e-05
5.45353e-06
2.03031e-05
3.77805e-06
1.53033e-05
3.49333e-06
1.22267e-05
3.62165e-06
5.96074e-06
2.62767e-06
-1.006e-05
-2.35405e-05
1.5023e-05
-2.21244e-05
2.24127e-05
-4.69699e-05
2.56162e-05
-4.71165e-05
2.72197e-05
-3.67638e-05
2.69234e-05
-2.00265e-05
2.43006e-05
1.57532e-06
1.95463e-05
1.79692e-05
1.465e-05
1.81722e-05
1.14438e-05
1.28265e-05
1.07023e-05
1.33494e-05
1.22939e-05
1.92797e-05
1.23139e-05
3.04173e-05
9.66953e-06
2.95487e-05
7.30584e-06
2.26668e-05
5.71571e-06
1.68934e-05
5.72128e-06
1.22212e-05
6.27972e-06
5.4023e-06
4.68272e-06
-8.46301e-06
-1.88577e-05
2.29922e-05
-4.51166e-05
2.70088e-05
-5.09865e-05
2.77702e-05
-4.78779e-05
2.79953e-05
-3.69889e-05
2.69605e-05
-1.89917e-05
2.36151e-05
4.92076e-06
1.84624e-05
2.3122e-05
1.38155e-05
2.2819e-05
1.0568e-05
1.6074e-05
9.38344e-06
1.45339e-05
1.04869e-05
1.81762e-05
1.30105e-05
2.78936e-05
1.16469e-05
3.09124e-05
9.39823e-06
2.49155e-05
7.72418e-06
1.85675e-05
7.73518e-06
1.22102e-05
8.18447e-06
4.95301e-06
5.71981e-06
-5.99835e-06
-1.31379e-05
1.82247e-06
-4.24475e-06
2.80505e-06
-4.69698e-06
3.31849e-06
-4.73188e-06
3.6554e-06
-4.77176e-06
3.98248e-06
-4.91754e-06
4.3989e-06
-5.21666e-06
5.01823e-06
-5.74063e-06
6.00538e-06
-6.50918e-06
7.30265e-06
-7.03543e-06
8.71843e-06
-7.0889e-06
1.02865e-05
-7.1737e-06
1.21008e-05
-7.49835e-06
1.41589e-05
-7.84316e-06
1.6401e-05
-7.90681e-06
1.87323e-05
-7.37434e-06
2.10738e-05
-6.04456e-06
2.34401e-05
-3.92157e-06
2.59579e-05
-1.13555e-06
2.8757e-05
2.17037e-06
3.20182e-05
5.69869e-06
3.60435e-05
8.98419e-06
4.27423e-05
1.12499e-05
1.27241e-05
6.30246e-05
1.87186e-06
-6.11661e-06
2.8823e-06
-5.70743e-06
3.39645e-06
-5.24603e-06
3.70532e-06
-5.08062e-06
3.98091e-06
-5.19313e-06
4.30213e-06
-5.53787e-06
4.72653e-06
-6.16503e-06
5.64803e-06
-7.43068e-06
7.00145e-06
-8.38886e-06
8.38366e-06
-8.47111e-06
9.9488e-06
-8.73884e-06
1.18261e-05
-9.37565e-06
1.39516e-05
-9.96867e-06
1.62812e-05
-1.02364e-05
1.87588e-05
-9.85188e-06
2.13459e-05
-8.63171e-06
2.41288e-05
-6.70447e-06
2.7275e-05
-4.28172e-06
3.09934e-05
-1.548e-06
3.5479e-05
1.21307e-06
4.09507e-05
3.5125e-06
4.78959e-05
4.30476e-06
1.95717e-06
5.86628e-05
2.07592e-06
-8.19254e-06
3.08684e-06
-6.71835e-06
3.63726e-06
-5.79644e-06
4.01396e-06
-5.45732e-06
4.36699e-06
-5.54616e-06
4.69798e-06
-5.86885e-06
4.99256e-06
-6.45961e-06
5.80193e-06
-8.24005e-06
7.10541e-06
-9.69234e-06
8.4432e-06
-9.8089e-06
1.01047e-05
-1.04003e-05
1.20767e-05
-1.13477e-05
1.41263e-05
-1.20183e-05
1.62625e-05
-1.23726e-05
1.85821e-05
-1.21715e-05
2.1147e-05
-1.11967e-05
2.41255e-05
-9.68288e-06
2.77301e-05
-7.88637e-06
3.21338e-05
-5.95174e-06
3.74814e-05
-4.13452e-06
4.39892e-05
-2.99524e-06
5.18236e-05
-3.52963e-06
-7.05429e-06
6.0835e-05
1.92252e-06
-1.01151e-05
2.85804e-06
-7.65388e-06
3.63953e-06
-6.57794e-06
4.36706e-06
-6.18486e-06
5.14076e-06
-6.31986e-06
5.56001e-06
-6.28811e-06
5.93312e-06
-6.83273e-06
6.21101e-06
-8.51796e-06
6.80521e-06
-1.02866e-05
7.95371e-06
-1.09574e-05
9.96681e-06
-1.24134e-05
1.22829e-05
-1.36639e-05
1.41354e-05
-1.38708e-05
1.55352e-05
-1.37724e-05
1.71607e-05
-1.37969e-05
1.94096e-05
-1.34456e-05
2.25155e-05
-1.27887e-05
2.65634e-05
-1.19344e-05
3.1705e-05
-1.10932e-05
3.80985e-05
-1.05281e-05
4.58268e-05
-1.07235e-05
5.47377e-05
-1.24405e-05
-1.62822e-05
6.39656e-05
1.31138e-06
-1.14264e-05
-1.6239e-06
-4.71856e-06
-2.09777e-06
-6.10404e-06
2.16658e-07
-8.49925e-06
4.03215e-06
-1.01353e-05
7.28607e-06
-9.54199e-06
8.97178e-06
-8.51839e-06
4.83305e-06
-4.37919e-06
3.18714e-07
-5.77218e-06
-1.08639e-07
-1.05301e-05
3.90768e-06
-1.64298e-05
1.02309e-05
-1.9987e-05
1.46182e-05
-1.8258e-05
1.37372e-05
-1.28914e-05
1.29542e-05
-1.3014e-05
1.49365e-05
-1.54279e-05
1.9095e-05
-1.69472e-05
2.38054e-05
-1.66447e-05
2.89638e-05
-1.62516e-05
3.58822e-05
-1.74466e-05
4.48341e-05
-1.96754e-05
5.68225e-05
-2.44289e-05
-2.90894e-05
6.96297e-05
-1.74646e-05
6.03825e-06
-2.27929e-05
6.09879e-07
-1.90398e-05
-9.85709e-06
-1.09179e-05
-1.66211e-05
-5.50789e-06
-1.55453e-05
-2.23012e-06
-1.28197e-05
-1.82587e-06
-8.92262e-06
-8.51339e-06
2.30836e-06
-1.44067e-05
1.2119e-07
-1.32425e-05
-1.16941e-05
-1.04052e-05
-1.92671e-05
-6.01485e-06
-2.43773e-05
-3.71191e-06
-2.0561e-05
-9.57283e-06
-7.03056e-06
-1.7578e-05
-5.00885e-06
-1.71283e-05
-1.58775e-05
-1.31362e-05
-2.09392e-05
-9.57606e-06
-2.02048e-05
-7.85712e-06
-1.79705e-05
-5.83838e-06
-1.94653e-05
1.55109e-06
-2.70648e-05
1.33807e-05
-3.62586e-05
-4.13181e-05
2.56093e-05
-1.33365e-05
1.93748e-05
-1.56326e-05
2.90605e-06
-1.24665e-05
-1.30231e-05
-9.91176e-06
-1.91758e-05
-9.31428e-06
-1.61428e-05
-9.63011e-06
-1.25039e-05
-1.18484e-05
-6.70432e-06
-9.91782e-06
3.77773e-07
-8.60729e-06
-1.18934e-06
-1.03491e-05
-9.95227e-06
-1.33002e-05
-1.6316e-05
-1.29445e-05
-2.4733e-05
-1.42519e-05
-1.92536e-05
-1.57403e-05
-5.54222e-06
-1.72702e-05
-3.47897e-06
-1.64312e-05
-1.67164e-05
-1.47575e-05
-2.26128e-05
-1.22128e-05
-2.27495e-05
-9.18081e-06
-2.10024e-05
-6.80474e-06
-2.18414e-05
-3.50993e-06
-3.03597e-05
2.65051e-06
-4.2419e-05
-4.60595e-05
7.39199e-06
-4.9269e-06
2.43017e-05
-5.67449e-06
3.65379e-06
-7.65986e-06
-1.10377e-05
-1.12668e-05
-1.55688e-05
-1.33351e-05
-1.40745e-05
-1.48771e-05
-1.09618e-05
-1.486e-05
-6.72132e-06
-1.15733e-05
-2.90884e-06
-8.59032e-06
-4.17231e-06
-8.96408e-06
-9.57845e-06
-1.02668e-05
-1.50133e-05
-1.57766e-05
-1.92231e-05
-1.96095e-05
-1.54207e-05
-1.66483e-05
-8.50336e-06
-1.34644e-05
-6.66287e-06
-1.41771e-05
-1.60037e-05
-1.53706e-05
-2.14193e-05
-1.62995e-05
-2.18205e-05
-1.7016e-05
-2.02858e-05
-1.76799e-05
-2.11776e-05
-1.36593e-05
-3.43803e-05
-9.7208e-06
-4.63575e-05
-4.5924e-05
-9.85634e-06
7.17302e-07
2.35845e-05
-9.86023e-07
5.35725e-06
-5.85021e-06
-6.17341e-06
-1.06229e-05
-1.07961e-05
-1.37224e-05
-1.0975e-05
-1.52905e-05
-9.39381e-06
-1.49088e-05
-7.10296e-06
-1.23138e-05
-5.5038e-06
-9.77589e-06
-6.71021e-06
-9.1697e-06
-1.01846e-05
-1.05046e-05
-1.36783e-05
-1.39416e-05
-1.57862e-05
-1.56124e-05
-1.37498e-05
-1.41018e-05
-1.0014e-05
-1.12894e-05
-9.47517e-06
-1.3865e-05
-1.3428e-05
-1.99524e-05
-1.5332e-05
-2.82543e-05
-1.35186e-05
-3.82316e-05
-1.03086e-05
-4.36651e-05
-1.5744e-05
-3.87271e-05
-3.93183e-05
-3.30541e-05
-5.20305e-05
-4.62295e-05
-3.27487e-05
2.58086e-06
2.10037e-05
2.59665e-07
7.67857e-06
-4.43247e-06
-1.48119e-06
-9.13832e-06
-6.09013e-06
-1.24615e-05
-7.65166e-06
-1.4159e-05
-7.69632e-06
-1.41161e-05
-7.14588e-06
-1.25986e-05
-7.02126e-06
-1.09987e-05
-8.31007e-06
-1.05006e-05
-1.06826e-05
-1.12936e-05
-1.28853e-05
-1.31689e-05
-1.39108e-05
-1.42927e-05
-1.2626e-05
-1.40071e-05
-1.02995e-05
-1.44772e-05
-9.00495e-06
-1.88338e-05
-9.07144e-06
-2.6617e-05
-7.5488e-06
-3.6072e-05
-4.06358e-06
-4.39604e-05
-2.42018e-06
-4.61092e-05
-1.35952e-05
-4.27926e-05
-4.2635e-05
-4.208e-05
-5.27432e-05
-4.75661e-05
-4.07434e-05
2.19805e-06
1.88058e-05
1.6404e-07
9.7127e-06
-3.82134e-06
2.50429e-06
-7.88993e-06
-2.02152e-06
-1.09876e-05
-4.55397e-06
-1.27917e-05
-5.8922e-06
-1.32523e-05
-6.68525e-06
-1.26951e-05
-7.57845e-06
-1.19646e-05
-9.04057e-06
-1.17883e-05
-1.08588e-05
-1.23478e-05
-1.23257e-05
-1.34823e-05
-1.27763e-05
-1.4393e-05
-1.17152e-05
-1.50071e-05
-9.68541e-06
-1.65294e-05
-7.4826e-06
-2.04565e-05
-5.14438e-06
-2.63901e-05
-1.61534e-06
-3.28252e-05
2.37137e-06
-3.7888e-05
2.64261e-06
-4.12816e-05
-1.02016e-05
-4.32241e-05
-4.06926e-05
-4.37249e-05
-5.22423e-05
-4.90267e-05
-4.22643e-05
1.0512e-06
1.77546e-05
-6.64091e-07
1.14281e-05
-3.8091e-06
5.64939e-06
-7.11881e-06
1.28818e-06
-9.83915e-06
-1.83361e-06
-1.16558e-05
-4.07551e-06
-1.25249e-05
-5.81616e-06
-1.26848e-05
-7.41848e-06
-1.26331e-05
-9.09223e-06
-1.28065e-05
-1.06854e-05
-1.33535e-05
-1.17786e-05
-1.41826e-05
-1.19472e-05
-1.49829e-05
-1.09148e-05
-1.58136e-05
-8.85457e-06
-1.72432e-05
-6.05305e-06
-1.9857e-05
-2.53058e-06
-2.32963e-05
1.82402e-06
-2.67609e-05
5.83596e-06
-2.99061e-05
5.78778e-06
-3.47854e-05
-5.32216e-06
-4.27748e-05
-3.27032e-05
-4.48413e-05
-5.01758e-05
-4.96795e-05
-4.41885e-05
-7.79946e-08
1.78327e-05
-1.60074e-06
1.29511e-05
-4.05784e-06
8.10656e-06
-6.69795e-06
3.92835e-06
-9.01604e-06
4.84492e-07
-1.07628e-05
-2.32879e-06
-1.18852e-05
-4.69366e-06
-1.25242e-05
-6.77951e-06
-1.29596e-05
-8.65679e-06
-1.34423e-05
-1.02027e-05
-1.40712e-05
-1.11497e-05
-1.48004e-05
-1.12179e-05
-1.54964e-05
-1.02188e-05
-1.61811e-05
-8.16978e-06
-1.70594e-05
-5.1747e-06
-1.82683e-05
-1.32167e-06
-1.95458e-05
3.10157e-06
-2.05907e-05
6.8809e-06
-2.19983e-05
7.19543e-06
-2.65799e-05
-7.40553e-07
-3.8044e-05
-2.12391e-05
-4.53864e-05
-4.28334e-05
-4.93189e-05
-4.57471e-05
-8.76374e-07
1.87092e-05
-2.32098e-06
1.43959e-05
-4.27157e-06
1.00572e-05
-6.37305e-06
6.02992e-06
-8.32515e-06
2.43664e-06
-9.94591e-06
-7.07984e-07
-1.11854e-05
-3.45407e-06
-1.21118e-05
-5.8531e-06
-1.28705e-05
-7.89805e-06
-1.3593e-05
-9.48019e-06
-1.43283e-05
-1.04142e-05
-1.50388e-05
-1.05073e-05
-1.5636e-05
-9.62159e-06
-1.60762e-05
-7.72956e-06
-1.6361e-05
-4.88988e-06
-1.64235e-05
-1.25915e-06
-1.60452e-05
2.72333e-06
-1.50963e-05
5.93192e-06
-1.41224e-05
6.2215e-06
-1.54027e-05
5.39737e-07
-2.33298e-05
-1.33119e-05
-3.58121e-05
-3.03511e-05
-3.90291e-05
-4.61019e-05
-1.29815e-06
2.00075e-05
-2.66558e-06
1.57635e-05
-4.24256e-06
1.16343e-05
-5.92067e-06
7.70811e-06
-7.54811e-06
4.06413e-06
-9.01182e-06
7.55827e-07
-1.02683e-05
-2.1975e-06
-1.13407e-05
-4.78061e-06
-1.22932e-05
-6.94557e-06
-1.31806e-05
-8.59278e-06
-1.40098e-05
-9.58494e-06
-1.47324e-05
-9.78473e-06
-1.52605e-05
-9.09353e-06
-1.55037e-05
-7.48642e-06
-1.53678e-05
-5.02581e-06
-1.47186e-05
-1.90832e-06
-1.33948e-05
1.39946e-06
-1.14036e-05
3.94066e-06
-9.32765e-06
4.1456e-06
-8.88904e-06
1.0109e-07
-1.29406e-05
-9.26032e-06
-2.22167e-05
-2.10749e-05
-2.86059e-05
-3.26398e-05
-1.39106e-06
2.13987e-05
-2.59944e-06
1.69719e-05
-3.85741e-06
1.28923e-05
-5.18389e-06
9.03462e-06
-6.52214e-06
5.40244e-06
-7.81094e-06
2.04473e-06
-9.01567e-06
-9.92677e-07
-1.01343e-05
-3.66196e-06
-1.11824e-05
-5.89744e-06
-1.21668e-05
-7.60837e-06
-1.30631e-05
-8.68863e-06
-1.38086e-05
-9.03915e-06
-1.43088e-05
-8.59334e-06
-1.44522e-05
-7.34298e-06
-1.41153e-05
-5.36265e-06
-1.31663e-05
-2.85729e-06
-1.15148e-05
-2.51866e-07
-9.27434e-06
1.70024e-06
-7.0306e-06
1.90198e-06
-6.11406e-06
-8.15433e-07
-8.44869e-06
-6.92568e-06
-1.48903e-05
-1.46333e-05
-2.01409e-05
-2.33553e-05
-1.17876e-06
2.25775e-05
-2.12887e-06
1.79221e-05
-3.07367e-06
1.38372e-05
-4.0857e-06
1.00467e-05
-5.15852e-06
6.47532e-06
-6.26226e-06
3.14857e-06
-7.37016e-06
1.15311e-07
-8.46601e-06
-2.56605e-06
-9.53741e-06
-4.82599e-06
-1.0562e-05
-6.58372e-06
-1.14949e-05
-7.75565e-06
-1.22637e-05
-8.27024e-06
-1.27714e-05
-8.08567e-06
-1.29045e-05
-7.20972e-06
-1.25441e-05
-5.72301e-06
-1.15857e-05
-3.81568e-06
-9.99658e-06
-1.84087e-06
-7.93656e-06
-3.59731e-07
-5.93256e-06
-1.01967e-07
-4.9584e-06
-1.78957e-06
-6.30782e-06
-5.57622e-06
-1.05633e-05
-1.03778e-05
-1.40127e-05
-1.66914e-05
-6.84717e-07
2.32622e-05
-1.28817e-06
1.85256e-05
-1.9056e-06
1.44546e-05
-2.62195e-06
1.0763e-05
-3.44488e-06
7.29832e-06
-4.35884e-06
4.06263e-06
-5.34099e-06
1.09755e-06
-6.36704e-06
-1.53995e-06
-7.40892e-06
-3.78409e-06
-8.42779e-06
-5.56482e-06
-9.36749e-06
-6.81592e-06
-1.01519e-05
-7.48585e-06
-1.0687e-05
-7.55047e-06
-1.08688e-05
-7.02792e-06
-1.05953e-05
-5.99657e-06
-9.79151e-06
-4.61944e-06
-8.46012e-06
-3.17224e-06
-6.76385e-06
-2.05592e-06
-5.11362e-06
-1.75213e-06
-4.22536e-06
-2.67778e-06
-4.92295e-06
-4.8786e-06
-7.59858e-06
-7.70219e-06
-9.89526e-06
-1.1716e-05
5.09966e-08
2.32113e-05
-1.21675e-07
1.86982e-05
-4.1938e-07
1.47523e-05
-8.54307e-07
1.1198e-05
-1.4391e-06
7.88318e-06
-2.16196e-06
4.78558e-06
-2.99987e-06
1.93554e-06
-3.92366e-06
-6.16125e-07
-4.89699e-06
-2.81077e-06
-5.87297e-06
-4.58888e-06
-6.791e-06
-5.89792e-06
-7.57619e-06
-6.70068e-06
-8.14209e-06
-6.98456e-06
-8.39782e-06
-6.77218e-06
-8.26068e-06
-6.13369e-06
-7.67892e-06
-5.20116e-06
-6.67008e-06
-4.1811e-06
-5.37383e-06
-3.35213e-06
-4.10131e-06
-3.02463e-06
-3.33925e-06
-3.43981e-06
-3.61549e-06
-4.60234e-06
-5.19319e-06
-6.12449e-06
-7.29314e-06
-7.79534e-06
9.90136e-07
2.22211e-05
1.21286e-06
1.84755e-05
1.25715e-06
1.4708e-05
1.09655e-06
1.13586e-05
7.4098e-07
8.23881e-06
2.09895e-07
5.31676e-06
-4.70663e-07
2.6162e-06
-1.26831e-06
1.81576e-07
-2.14285e-06
-1.93623e-06
-3.04476e-06
-3.687e-06
-3.9137e-06
-5.02903e-06
-4.67934e-06
-5.93508e-06
-5.26462e-06
-6.39928e-06
-5.59247e-06
-6.44432e-06
-5.59709e-06
-6.12906e-06
-5.24215e-06
-5.55604e-06
-4.54797e-06
-4.87529e-06
-3.62341e-06
-4.2767e-06
-2.69033e-06
-3.95772e-06
-2.07117e-06
-4.059e-06
-2.10061e-06
-4.57291e-06
-2.95362e-06
-5.2715e-06
-5.7534e-06
-4.49337e-06
1.82011e-06
2.0401e-05
2.57113e-06
1.77244e-05
2.95458e-06
1.43245e-05
3.06168e-06
1.12515e-05
2.9322e-06
8.36833e-06
2.59675e-06
5.65229e-06
2.08609e-06
3.12695e-06
1.43499e-06
8.32735e-07
6.84657e-07
-1.18589e-06
-1.1569e-07
-2.88668e-06
-9.08747e-07
-4.23601e-06
-1.63046e-06
-5.21338e-06
-2.21349e-06
-5.81625e-06
-2.5932e-06
-6.06458e-06
-2.71699e-06
-6.00526e-06
-2.55775e-06
-5.71526e-06
-2.1325e-06
-5.30051e-06
-1.51969e-06
-4.88952e-06
-8.70752e-07
-4.60669e-06
-3.94836e-07
-4.53495e-06
-3.02128e-07
-4.66565e-06
-7.07519e-07
-4.86614e-06
-4.91242e-06
-1.5485e-06
2.47076e-06
1.79302e-05
3.73524e-06
1.64598e-05
4.46529e-06
1.35944e-05
4.84531e-06
1.08714e-05
4.94871e-06
8.26494e-06
4.8195e-06
5.78155e-06
4.49406e-06
3.45244e-06
4.00935e-06
1.31746e-06
3.40655e-06
-5.83119e-07
2.73303e-06
-2.21321e-06
2.04189e-06
-3.54492e-06
1.39052e-06
-4.56204e-06
8.37253e-07
-5.26299e-06
4.36308e-07
-5.66362e-06
2.30473e-07
-5.79941e-06
2.41372e-07
-5.72614e-06
4.59493e-07
-5.51862e-06
8.30315e-07
-5.26035e-06
1.25472e-06
-5.03111e-06
1.59981e-06
-4.88007e-06
1.73459e-06
-4.80045e-06
1.58414e-06
-4.71571e-06
-4.50198e-06
1.17368e-06
2.80815e-06
1.5122e-05
4.52541e-06
1.47425e-05
5.6022e-06
1.25175e-05
6.26693e-06
1.02067e-05
6.6175e-06
7.91435e-06
6.71022e-06
5.68884e-06
6.58746e-06
3.5752e-06
6.28859e-06
1.61632e-06
5.85465e-06
-1.49242e-07
5.33083e-06
-1.68946e-06
4.76589e-06
-2.98006e-06
4.21096e-06
-4.00716e-06
3.71663e-06
-4.76868e-06
3.32885e-06
-5.27586e-06
3.08356e-06
-5.55413e-06
3.00014e-06
-5.64273e-06
3.07365e-06
-5.59215e-06
3.2709e-06
-5.45763e-06
3.52873e-06
-5.28897e-06
3.76432e-06
-5.11569e-06
3.89694e-06
-4.9331e-06
3.87824e-06
-4.69703e-06
-4.33951e-06
3.71575e-06
2.82715e-06
1.22948e-05
4.86932e-06
1.27003e-05
6.26416e-06
1.11227e-05
7.21352e-06
9.25731e-06
7.82018e-06
7.30767e-06
8.14691e-06
5.36209e-06
8.24052e-06
3.48158e-06
8.14251e-06
1.71429e-06
7.89382e-06
9.93865e-08
7.53778e-06
-1.3335e-06
7.11912e-06
-2.56146e-06
6.68352e-06
-3.5716e-06
6.27515e-06
-4.36032e-06
5.93349e-06
-4.93422e-06
5.68954e-06
-5.3102e-06
5.56131e-06
-5.5145e-06
5.54949e-06
-5.58034e-06
5.63499e-06
-5.54316e-06
5.77968e-06
-5.4337e-06
5.93325e-06
-5.26929e-06
6.0466e-06
-5.04647e-06
6.08892e-06
-4.73938e-06
-4.31077e-06
6.06016e-06
2.63036e-06
9.6644e-06
4.8314e-06
1.04992e-05
6.4698e-06
9.48422e-06
7.6715e-06
8.05559e-06
8.52121e-06
6.45793e-06
9.07818e-06
4.80507e-06
9.38934e-06
3.17036e-06
9.49655e-06
1.60704e-06
9.44042e-06
1.55467e-07
9.26171e-06
-1.15483e-06
9.00189e-06
-2.30166e-06
8.70192e-06
-3.27163e-06
8.40065e-06
-4.05903e-06
8.13253e-06
-4.6661e-06
7.9249e-06
-5.10256e-06
7.79508e-06
-5.38468e-06
7.74784e-06
-5.53311e-06
7.77422e-06
-5.56957e-06
7.85271e-06
-5.51221e-06
7.95385e-06
-5.37047e-06
8.0485e-06
-5.14115e-06
8.1174e-06
-4.80831e-06
-4.3513e-06
8.1579e-06
2.34724e-06
7.31715e-06
4.55239e-06
8.29399e-06
6.32746e-06
7.70914e-06
7.71455e-06
6.66849e-06
8.76538e-06
5.40703e-06
9.52586e-06
4.04451e-06
1.00374e-05
2.65877e-06
1.0339e-05
1.30532e-06
1.04694e-05
2.51071e-08
1.04662e-05
-1.1517e-06
1.03676e-05
-2.20305e-06
1.02102e-05
-3.11426e-06
1.00285e-05
-3.87729e-06
9.85277e-06
-4.49034e-06
9.70747e-06
-4.95727e-06
9.60938e-06
-5.28659e-06
9.56605e-06
-5.4898e-06
9.57537e-06
-5.57892e-06
9.62666e-06
-5.56353e-06
9.70376e-06
-5.44761e-06
9.79005e-06
-5.22747e-06
9.87396e-06
-4.89226e-06
-4.42977e-06
9.95243e-06
2.06283e-06
5.25431e-06
4.16436e-06
6.19241e-06
5.96967e-06
5.90382e-06
7.4583e-06
5.17983e-06
8.64745e-06
4.21781e-06
9.56473e-06
3.12713e-06
1.02417e-05
1.98176e-06
1.07115e-05
8.35384e-07
1.10085e-05
-2.71942e-07
1.11669e-05
-1.31016e-06
1.12208e-05
-2.25687e-06
1.12026e-05
-3.09611e-06
1.11429e-05
-3.81753e-06
1.10684e-05
-4.41579e-06
1.1001e-05
-4.88996e-06
1.0957e-05
-5.24256e-06
1.09454e-05
-5.47827e-06
1.09687e-05
-5.60218e-06
1.10229e-05
-5.61779e-06
1.11003e-05
-5.52506e-06
1.11922e-05
-5.31938e-06
1.1292e-05
-4.9921e-06
-4.53494e-06
1.13972e-05
1.80975e-06
3.44454e-06
3.75077e-06
4.25134e-06
5.50441e-06
4.15016e-06
7.0154e-06
3.66879e-06
8.27455e-06
2.95859e-06
9.29211e-06
2.10947e-06
1.00884e-05
1.18541e-06
1.0689e-05
2.34678e-07
1.11225e-05
-7.05438e-07
1.14183e-05
-1.60603e-06
1.16061e-05
-2.44466e-06
1.17143e-05
-3.20433e-06
1.17695e-05
-3.87271e-06
1.17953e-05
-4.44155e-06
1.18113e-05
-4.90604e-06
1.18328e-05
-5.26408e-06
1.18698e-05
-5.51524e-06
1.19271e-05
-5.6595e-06
1.20052e-05
-5.69592e-06
1.21015e-05
-5.62138e-06
1.22121e-05
-5.43003e-06
1.23339e-05
-5.11386e-06
-4.66597e-06
1.24649e-05
1.59207e-06
1.85244e-06
3.35155e-06
2.49179e-06
5.00107e-06
2.50059e-06
6.47213e-06
2.19768e-06
7.74006e-06
1.6906e-06
8.80232e-06
1.04714e-06
9.66921e-06
3.1844e-07
1.03586e-05
-4.54753e-07
1.08926e-05
-1.2395e-06
1.12956e-05
-2.00896e-06
1.15922e-05
-2.74132e-06
1.18069e-05
-3.41905e-06
1.19626e-05
-4.02836e-06
1.20797e-05
-4.55869e-06
1.21759e-05
-5.00221e-06
1.22651e-05
-5.35328e-06
1.23574e-05
-5.60758e-06
1.24592e-05
-5.76131e-06
1.25734e-05
-5.81014e-06
1.27006e-05
-5.7485e-06
1.28398e-05
-5.56922e-06
1.29899e-05
-5.26402e-06
-4.82603e-06
1.315e-05
1.40453e-06
4.47854e-07
2.98086e-06
9.15353e-07
4.49712e-06
9.84239e-07
5.88496e-06
8.09765e-07
7.11365e-06
4.61844e-07
8.17306e-06
-1.23323e-08
9.06597e-06
-5.74517e-07
9.80341e-06
-1.19223e-06
1.04015e-05
-1.83759e-06
1.08792e-05
-2.48662e-06
1.12566e-05
-3.11879e-06
1.15542e-05
-3.71659e-06
1.17912e-05
-4.26531e-06
1.19852e-05
-4.75273e-06
1.21518e-05
-5.16876e-06
1.23035e-05
-5.50503e-06
1.24503e-05
-5.75435e-06
1.2599e-05
-5.91e-06
1.2754e-05
-5.9651e-06
1.29175e-05
-5.91203e-06
1.30906e-05
-5.7423e-06
1.32735e-05
-5.44692e-06
-5.01835e-06
1.34658e-05
1.24115e-06
-7.9336e-07
2.64061e-06
-4.84239e-07
4.00946e-06
-3.8471e-07
5.28687e-06
-4.67719e-07
6.44228e-06
-6.93615e-07
7.46211e-06
-1.03221e-06
8.34414e-06
-1.45657e-06
9.094e-06
-1.94209e-06
9.7226e-06
-2.46617e-06
1.02442e-05
-3.00814e-06
1.06746e-05
-3.54916e-06
1.10303e-05
-4.07229e-06
1.13274e-05
-4.56242e-06
1.15809e-05
-5.0062e-06
1.18041e-05
-5.39195e-06
1.20085e-05
-5.70932e-06
1.22031e-05
-5.94895e-06
1.2395e-05
-6.10193e-06
1.25893e-05
-6.15938e-06
1.27894e-05
-6.11203e-06
1.29972e-05
-5.95011e-06
1.3214e-05
-5.66371e-06
-5.24428e-06
1.344e-05
1.09744e-06
-1.89087e-06
2.3278e-06
-1.71473e-06
3.54382e-06
-1.60082e-06
4.69552e-06
-1.61949e-06
5.75567e-06
-1.75379e-06
6.70978e-06
-1.98633e-06
7.55262e-06
-2.29941e-06
8.28595e-06
-2.6754e-06
8.91657e-06
-3.09676e-06
9.45469e-06
-3.5462e-06
9.91245e-06
-4.00688e-06
1.03029e-05
-4.46272e-06
1.06392e-05
-4.89865e-06
1.09338e-05
-5.30073e-06
1.11981e-05
-5.65621e-06
1.14421e-05
-5.95336e-06
1.16745e-05
-6.18123e-06
1.19019e-05
-6.32933e-06
1.21298e-05
-6.38722e-06
1.23621e-05
-6.34427e-06
1.26015e-05
-6.18956e-06
1.28501e-05
-5.9122e-06
-5.50253e-06
1.31084e-05
9.68133e-07
-2.85908e-06
2.03712e-06
-2.78383e-06
3.1002e-06
-2.66396e-06
4.11934e-06
-2.63867e-06
5.07159e-06
-2.70605e-06
5.94283e-06
-2.85756e-06
6.72622e-06
-3.08278e-06
7.42094e-06
-3.37008e-06
8.03076e-06
-3.70653e-06
8.56268e-06
-4.07806e-06
9.02572e-06
-4.46986e-06
9.43e-06
-4.86694e-06
9.78596e-06
-5.25456e-06
1.01039e-05
-5.61859e-06
1.03934e-05
-5.94568e-06
1.06633e-05
-6.22322e-06
1.09213e-05
-6.43918e-06
1.1174e-05
-6.58193e-06
1.14267e-05
-6.6399e-06
1.16839e-05
-6.60137e-06
1.19488e-05
-6.45446e-06
1.2224e-05
-6.1873e-06
-5.78912e-06
1.25106e-05
8.47646e-07
-3.7068e-06
1.76195e-06
-3.6982e-06
2.67556e-06
-3.57761e-06
3.5613e-06
-3.52443e-06
4.40005e-06
-3.54479e-06
5.17845e-06
-3.63595e-06
5.88898e-06
-3.79328e-06
6.52926e-06
-4.01031e-06
7.10095e-06
-4.27817e-06
7.60863e-06
-4.58569e-06
8.05878e-06
-4.91996e-06
8.45903e-06
-5.26714e-06
8.81754e-06
-5.61303e-06
9.1426e-06
-5.94361e-06
9.44228e-06
-6.24531e-06
9.72416e-06
-6.50505e-06
9.99519e-06
-6.71016e-06
1.02616e-05
-6.84827e-06
1.05288e-05
-6.90703e-06
1.08014e-05
-6.87393e-06
1.10833e-05
-6.73631e-06
1.13775e-05
-6.48147e-06
-6.0976e-06
1.1686e-05
7.29609e-07
-4.43646e-06
1.49497e-06
-4.46358e-06
2.26515e-06
-4.34779e-06
3.02111e-06
-4.28039e-06
3.74609e-06
-4.26976e-06
4.42736e-06
-4.3172e-06
5.05725e-06
-4.42313e-06
5.63262e-06
-4.58565e-06
6.15382e-06
-4.79933e-06
6.62364e-06
-5.05548e-06
7.04656e-06
-5.34286e-06
7.42816e-06
-5.64871e-06
7.77466e-06
-5.95951e-06
8.09264e-06
-6.26158e-06
8.38874e-06
-6.54139e-06
8.66947e-06
-6.78575e-06
8.94106e-06
-6.98172e-06
9.20935e-06
-7.11652e-06
9.47973e-06
-7.17736e-06
9.7571e-06
-7.15126e-06
1.00458e-05
-7.02498e-06
1.03496e-05
-6.78522e-06
-6.41928e-06
1.06713e-05
6.07233e-07
-5.04371e-06
1.22832e-06
-5.08464e-06
1.86324e-06
-4.9827e-06
2.49678e-06
-4.91391e-06
3.11209e-06
-4.88506e-06
3.6965e-06
-4.90159e-06
4.24256e-06
-4.96918e-06
4.74703e-06
-5.0901e-06
5.20954e-06
-5.26183e-06
5.63169e-06
-5.47762e-06
6.01644e-06
-5.72761e-06
6.36772e-06
-6e-06
6.69016e-06
-6.28196e-06
6.98887e-06
-6.5603e-06
7.26925e-06
-6.82178e-06
7.53685e-06
-7.05335e-06
7.7972e-06
-7.24207e-06
8.05577e-06
-7.37508e-06
8.31786e-06
-7.43944e-06
8.58859e-06
-7.42196e-06
8.87281e-06
-7.30918e-06
9.17504e-06
-7.08742e-06
-6.7434e-06
9.49918e-06
4.72014e-07
-5.51571e-06
9.52757e-07
-5.56533e-06
1.46406e-06
-5.49397e-06
1.98666e-06
-5.43648e-06
2.50027e-06
-5.39865e-06
2.99174e-06
-5.39304e-06
3.45432e-06
-5.43176e-06
3.88528e-06
-5.52106e-06
4.28414e-06
-5.6607e-06
4.65181e-06
-5.84532e-06
4.99017e-06
-6.06602e-06
5.30193e-06
-6.3118e-06
5.59043e-06
-6.57051e-06
5.85959e-06
-6.82949e-06
6.11373e-06
-7.07596e-06
6.35752e-06
-7.29716e-06
6.59584e-06
-7.4804e-06
6.83372e-06
-7.61297e-06
7.0763e-06
-7.68202e-06
7.3288e-06
-7.67446e-06
7.59651e-06
-7.57688e-06
7.88471e-06
-7.37561e-06
-7.05719e-06
8.19851e-06
3.09635e-07
-5.8253e-06
6.5883e-07
-5.91445e-06
1.06483e-06
-5.89992e-06