/*--------------------------------*- C++ -*----------------------------------*\
  =========                 |
  \\      /  F ield         | OpenFOAM: The Open Source CFD Toolbox
   \\    /   O peration     | Website:  https://openfoam.org
    \\  /    A nd           | Version:  9
     \\/     M anipulation  |
\*---------------------------------------------------------------------------*/
FoamFile
{
    format      ascii;
    class       volScalarField;
    location    "1.29";
    object      alpha.water;
}
// * * * * * * * * * * * * * * * * * * * * * * * * * * * * * * * * * * * * * //

dimensions      [0 0 0 0 0 0 0];

internalField   nonuniform List<scalar> 
2268
(
1
1
1
1
1
1
1
1
1
1
1
1
1
0.995087
0.975714
0.97571
0.975711
0.980741
0.99346
0.99559
0.995731
0.986915
0.984371
1
1
1
1
1
1
1
1
1
1
1
1
1
0.999029
0.977602
0.975714
0.990645
0.999747
0.999982
0.999982
0.999982
0.999965
0.984371
1
1
1
1
1
1
1
1
1
1
1
1
1
1
0.993484
0.992653
0.999094
0.99998
0.999944
0.999357
0.999712
0.999938
0.99525
1
1
1
1
1
1
1
1
1
1
1
1
0.999999
0.999998
0.999999
0.999989
0.999985
0.999984
0.999114
0.998719
0.999532
0.999924
0.999922
1
1
1
1
1
1
1
1
1
1
1
1
1
1
1
1
1
0.99973
0.995798
0.998894
0.999922
0.999923
0.999922
1
1
1
1
1
1
1
1
1
1
1
1
1
1
1
1
1
0.99679
0.991932
0.998752
0.999915
0.999917
0.999922
1
1
1
1
1
1
1
1
1
1
1
1
1
1
1
1
1
0.995769
0.991941
0.998622
0.999904
0.999873
0.999902
1
1
1
1
1
1
1
1
1
1
1
1
1
1
1
1
0.999839
0.973711
0.992413
0.999841
0.99989
0.999872
0.999891
0.998109
0.998109
0.998099
0.998088
0.998087
0.99409
0.989358
0.98573
0.974896
0.978916
0.979609
0.979607
0.973645
0.94559
0.966149
0.968241
0.96824
0.968238
0.968227
0.998072
0.997065
0.998087
0.998086
0.998088
0.998074
0.994646
0.791386
0.580373
0.728988
0.966051
0.979609
0.979575
0.946123
0.968247
0.968244
0.968241
0.96824
0.968229
0.982258
0.956136
0.949073
0.971374
0.996907
0.998054
0.963512
0.44771
0.370126
0.370236
0.603426
0.933601
0.979547
0.979214
0.967969
0.919917
0.896261
0.94686
0.96828
0.974324
0.944036
0.905186
0.905273
0.969731
0.998016
0.943794
0.472873
0.492283
0.370126
0.375479
0.648431
0.928291
0.978876
0.956176
0.721821
0.722752
0.862958
0.968289
0.990371
0.990376
0.973534
0.911664
0.896599
0.933638
0.622923
0.684155
0.771885
0.707554
0.248796
0.210769
0.392855
0.823991
0.90136
0.721821
0.738802
0.942845
0.968298
0.990378
0.990371
0.990175
0.989987
0.629966
0.402065
0.3482
0.670605
0.772979
0.772994
0.490802
0.150395
0.14751
0.211268
0.51593
0.82576
0.958318
0.968313
0.968307
0.990239
0.989464
0.989987
0.989922
0.55197
0.3482
0.348036
0.602887
0.77299
0.773004
0.639787
0.151548
0.147351
0.147193
0.147231
0.679428
0.968266
0.968278
0.968298
0.787796
0.697066
0.935565
0.989381
0.769346
0.34804
0.348088
0.693424
0.773004
0.773004
0.752784
0.291719
0.147255
0.147303
0.147204
0.378937
0.952029
0.968244
0.968266
1
1
1
1
1
1
0.999999
1
1
1
0.999999
0.999998
0.999998
0.999999
1
1
0.970064
0.961021
0.983225
0.999882
0.999888
0.999889
0.99989
1
0.999999
0.999999
0.999999
0.999999
0.999999
0.999999
0.999999
0.999998
0.999999
1
0.999999
0.999998
0.999998
1
1
0.97734
0.961021
0.98454
0.992014
0.947145
0.828841
0.620669
0.999968
0.99996
0.999966
0.999971
0.999977
0.999985
0.999985
0.999987
0.999992
0.999975
1
1
1
0.999999
1
1
0.999238
0.997719
0.979755
0.788996
0.392815
0.116533
0.0236584
0.921087
0.927756
0.941923
0.951007
0.956877
0.96582
0.944327
0.893838
0.803593
0.86884
0.987044
1
1
1
1
1
0.991451
0.89693
0.511695
0.0819154
0.00487583
0.0029461
0.00250115
0.20863
0.235366
0.264029
0.286871
0.305487
0.33863
0.321193
0.348789
0.420213
0.321251
0.438077
0.699623
0.886128
0.948466
0.932893
0.833911
0.488913
0.10014
0.00392514
0.00549933
0.00675197
0.0114809
0.00774321
1.2527e-07
1.25215e-07
1.2527e-07
1.27682e-07
2.73807e-07
1.26817e-05
0.0566756
0.280524
0.418551
0.144562
0.08941
0.0918846
0.150452
0.217287
0.182903
0.0831908
0.0075112
0.00379302
0.00383376
0.00660381
0.028681
0.0289957
0.0226072
1.24949e-07
1.25413e-07
1.29705e-07
2.45867e-07
0.000154125
0.0012721
0.082422
0.192795
0.262713
0.249789
0.0747968
0.027785
0.0042299
0.00372938
0.00369704
0.00372938
0.00376171
0.00377515
0.00450108
0.0286091
0.0286559
0.0277854
0.00677545
1.26594e-07
8.06324e-07
6.77895e-07
1.56262e-05
0.00373033
0.0061621
2.12709e-07
3.00622e-06
0.00997256
0.0898786
0.123696
0.0978807
0.00912354
0.00382732
0.00367449
0.0038203
0.00396975
0.00386899
0.024359
0.0279375
0.0111447
3.46424e-07
1.06898e-06
5.41152e-08
9.49258e-07
2.61609e-06
0.000123644
0.000167435
1.08815e-07
1.08202e-07
1.90449e-07
3.35336e-07
0.0131515
0.0880629
0.0925987
0.0225789
0.0032147
0.00319286
0.00420775
0.0153935
0.0210697
0.0122434
0
-1.70744e-25
5.98254e-09
3.57001e-07
1.49938e-09
1.85728e-09
7.27779e-06
2.56461e-05
5.48734e-06
7.47985e-09
2.43033e-07
2.45944e-07
2.70771e-07
3.68072e-07
1.63207e-06
0.0107141
0.0236497
0.00375577
0.00297006
0.00543324
0.0133208
0.0093126
-3.46945e-21
-2.4564e-10
-1.93368e-10
4.23516e-25
4.95435e-08
8.8103e-10
1.52973e-07
8.03985e-07
5.41008e-07
4.93518e-10
7.10126e-09
2.12805e-08
1.48411e-06
1.97537e-06
7.18639e-07
9.46664e-09
2.69978e-07
0.00348037
0.0056184
0.00284808
4.94549e-15
0
-9.98776e-13
-1.24124e-12
-6.85625e-13
-1.96232e-12
8.73472e-12
1.54551e-09
8.74344e-10
8.32683e-09
1.07704e-08
3.35355e-09
4.89977e-10
1.17595e-10
1.17902e-10
2.54778e-10
5.03897e-07
7.26799e-07
-2.38173e-11
-7.48605e-09
-1.89915e-10
0.000396218
2.65081e-06
9.89098e-15
1.4392e-12
4.97465e-12
8.13497e-12
6.99166e-12
3.08998e-12
3.01591e-12
3.98193e-11
4.5065e-11
2.21673e-10
3.01815e-10
1.63863e-10
1.02882e-10
1.33771e-10
6.50217e-10
5.60354e-10
1.19145e-11
8.78407e-12
6.75871e-12
4.33752e-12
2.90486e-12
3.45184e-12
3.35854e-12
5.8994e-12
1.01116e-11
1.08304e-11
8.45647e-12
2.69844e-12
1.16691e-12
9.42071e-13
3.45233e-12
2.93752e-11
3.80822e-11
3.92699e-11
4.8668e-11
5.75179e-11
6.0814e-11
6.8583e-11
1.24498e-10
2.34902e-10
2.52835e-10
1.80753e-10
1.19661e-10
9.31541e-11
3.38834e-12
3.32943e-12
3.79808e-12
3.60516e-12
1.83145e-12
2.52905e-13
6.01372e-15
-1.60956e-14
1.7506e-14
4.97106e-13
2.79107e-11
4.12084e-11
4.72252e-11
5.21838e-11
5.76163e-11
5.96715e-11
5.6213e-11
4.97941e-11
4.89417e-11
5.02007e-11
4.84464e-11
3.37416e-11
1.81077e-11
8.11241e-12
2.65454e-12
8.82031e-16
-9.64545e-13
-1.39511e-12
-1.3893e-12
-1.08432e-12
-7.05032e-13
-3.51466e-13
-2.78273e-14
2.62877e-11
3.97589e-11
4.71009e-11
5.13122e-11
5.62675e-11
5.91438e-11
5.72176e-11
5.08797e-11
4.97687e-11
5.31229e-11
5.29775e-11
4.45848e-11
2.76651e-11
1.23987e-11
2.28686e-12
-1.0368e-12
-2.4141e-12
-2.97881e-12
-2.8424e-12
-2.21447e-12
-1.44743e-12
-8.03758e-13
-3.59961e-13
2.37193e-11
3.5082e-11
4.27477e-11
4.66289e-11
5.10193e-11
5.56807e-11
5.63031e-11
4.95616e-11
4.47937e-11
4.59707e-11
4.72444e-11
3.29573e-11
1.87883e-11
5.82816e-12
-3.51192e-13
-2.71128e-12
-4.32147e-12
-4.88698e-12
-4.43044e-12
-3.39125e-12
-2.22607e-12
-1.26173e-12
-6.28344e-13
1.97698e-11
2.80011e-11
3.41294e-11
3.75934e-11
4.07243e-11
4.51138e-11
4.78648e-11
4.55034e-11
3.58076e-11
3.05094e-11
2.99123e-11
1.75015e-11
6.61267e-12
2.14701e-13
-2.17197e-12
-4.72339e-12
-6.22288e-12
-6.39486e-12
-5.53767e-12
-4.15487e-12
-2.72553e-12
-1.56749e-12
-8.11432e-13
1.41465e-11
1.95847e-11
2.34564e-11
2.56598e-11
2.72398e-11
2.89401e-11
3.07108e-11
3.1044e-11
2.49352e-11
1.68963e-11
1.14665e-11
4.63556e-12
3.59229e-13
-1.38399e-12
-3.93014e-12
-5.97144e-12
-6.88605e-12
-6.63181e-12
-5.53887e-12
-4.07905e-12
-2.66496e-12
-1.54593e-12
-8.13193e-13
7.37981e-12
1.09734e-11
1.29665e-11
1.36571e-11
1.3883e-11
1.37323e-11
1.32722e-11
1.25904e-11
1.03029e-11
6.40908e-12
2.41247e-12
2.42028e-13
-8.30663e-13
-2.6027e-12
-4.4451e-12
-5.71664e-12
-6.06034e-12
-5.53611e-12
-4.46163e-12
-3.21218e-12
-2.07784e-12
-1.20867e-12
-6.36656e-13
2.06687e-12
4.1388e-12
4.97069e-12
4.87048e-12
4.56807e-12
4.08592e-12
3.37576e-12
2.61872e-12
1.82525e-12
8.8097e-13
1.19813e-13
-4.17643e-13
-1.42096e-12
-2.66862e-12
-3.77192e-12
-4.36301e-12
-4.31075e-12
-3.73799e-12
-2.89474e-12
-2.02417e-12
-1.28591e-12
-7.44097e-13
-3.91964e-13
2.06474e-13
8.04268e-13
1.02318e-12
9.23363e-13
7.66443e-13
5.92606e-13
4.06738e-13
2.39838e-13
9.7879e-14
1.53246e-14
-1.67819e-13
-6.34857e-13
-1.31977e-12
-2.03424e-12
-2.54336e-12
-2.69108e-12
-2.4813e-12
-2.03476e-12
-1.50547e-12
-1.01519e-12
-6.28148e-13
-3.58035e-13
-1.88297e-13
5.3915e-15
5.9396e-14
8.41099e-14
7.11101e-14
5.17012e-14
3.37046e-14
1.94215e-14
6.72777e-15
5.31582e-16
-4.86411e-14
-2.17153e-13
-5.20351e-13
-8.92785e-13
-1.21518e-12
-1.37717e-12
-1.34086e-12
-1.15015e-12
-8.85557e-13
-6.20312e-13
-3.99186e-13
-2.37644e-13
-1.31486e-13
-6.77999e-14
4.08699e-17
1.41954e-15
2.37249e-15
1.98671e-15
1.34443e-15
7.94878e-16
3.20973e-16
2.16134e-17
-9.10246e-15
-5.33086e-14
-1.56631e-13
-3.10175e-13
-4.6876e-13
-5.75096e-13
-5.94052e-13
-5.3163e-13
-4.22163e-13
-3.02979e-13
-1.99155e-13
-1.21069e-13
-6.85549e-14
-3.63444e-14
-1.81037e-14
7.56578e-20
1.13653e-17
2.779e-17
2.5393e-17
1.81724e-17
1.01971e-17
1.44135e-18
-8.09966e-16
-8.44564e-15
-3.3867e-14
-8.21848e-14
-1.42506e-13
-1.92931e-13
-2.14028e-13
-2.01075e-13
-1.6465e-13
-1.2031e-13
-7.98936e-14
-4.88688e-14
-2.78042e-14
-1.48217e-14
-7.44318e-15
-3.53553e-15
-4.20605e-18
0
7.73796e-20
9.57577e-20
8.51188e-20
2.42502e-20
-1.43148e-17
-6.91717e-16
-4.75101e-15
-1.56389e-14
-3.29494e-14
-5.07669e-14
-6.16514e-14
-6.16051e-14
-5.23489e-14
-3.89748e-14
-2.60295e-14
-1.58758e-14
-8.96235e-15
-4.72975e-15
-2.35064e-15
-1.10634e-15
-4.95266e-16
-4.45195e-18
-2.25476e-18
-1.25471e-18
-7.79245e-19
-5.36793e-19
-4.4108e-19
-1.47236e-17
-3.54282e-16
-1.93355e-15
-5.46353e-15
-1.0097e-14
-1.38361e-14
-1.49961e-14
-1.34026e-14
-1.02281e-14
-6.8728e-15
-4.16417e-15
-2.31508e-15
-1.19643e-15
-5.80466e-16
-2.66373e-16
-1.16287e-16
-4.85144e-17
-2.50013e-18
-2.19892e-18
-1.5094e-18
-1.01584e-18
-6.99452e-19
-5.26591e-19
-7.84813e-18
-1.28333e-16
-5.85876e-16
-1.42969e-15
-2.32405e-15
-2.81771e-15
-2.70279e-15
-2.14163e-15
-1.45644e-15
-8.76601e-16
-4.78047e-16
-2.40312e-16
-1.12765e-16
-4.98611e-17
-2.09282e-17
-8.38743e-18
-3.22494e-18
-9.50138e-19
-1.13625e-18
-8.51714e-19
-5.86459e-19
-3.98964e-19
-2.86767e-19
-2.75025e-18
-3.37011e-17
-1.29923e-16
-2.74049e-16
-3.91244e-16
-4.15929e-16
-3.49382e-16
-2.43186e-16
-1.46139e-16
-7.81899e-17
-3.8087e-17
-1.71703e-17
-7.25233e-18
-2.89666e-18
-1.1019e-18
-4.01501e-19
-1.40775e-19
-2.59661e-19
-3.86647e-19
-3.02611e-19
-2.08433e-19
-1.38421e-19
-9.48751e-20
-6.61018e-19
-6.25553e-18
-2.04439e-17
-3.76027e-17
-4.6692e-17
-4.2956e-17
-3.12172e-17
-1.89209e-17
-9.96793e-18
-4.70381e-18
-2.03128e-18
-8.15123e-19
-3.07435e-19
-1.09948e-19
-3.75495e-20
-1.2317e-20
-3.8848e-21
-5.24536e-20
-9.09477e-20
-7.23979e-20
-4.89819e-20
-3.12638e-20
-2.01426e-20
-1.0668e-19
-8.04727e-19
-2.26465e-18
-3.59139e-18
-3.814e-18
-2.98751e-18
-1.85835e-18
-9.72866e-19
-4.46355e-19
-1.84553e-19
-7.01418e-20
-2.48632e-20
-8.31009e-21
-2.64107e-21
-8.03531e-22
-2.35129e-22
-5.93008e-23
-8.21907e-21
-1.5118e-20
-1.17709e-20
-7.65467e-21
-4.6353e-21
-2.80575e-21
-1.18539e-20
-7.25053e-20
-1.7314e-19
-2.31649e-19
-2.05777e-19
-1.35213e-19
-7.14614e-20
-3.21359e-20
-1.27701e-20
-4.6018e-21
-1.53129e-21
-4.76756e-22
-1.40277e-22
-3.93187e-23
-1.05671e-23
-2.67212e-24
2.83888e-24
-1.01714e-21
-1.89756e-21
-1.39989e-21
-8.56205e-22
-4.84993e-22
-2.72359e-22
-9.24965e-22
-4.537e-21
-8.9575e-21
-9.81909e-21
-7.14647e-21
-3.91159e-21
-1.74905e-21
-6.7334e-22
-2.30886e-22
-7.21588e-23
-2.08954e-23
-5.67556e-24
-1.45986e-24
-3.58344e-25
-8.41722e-26
-6.60606e-27
2.58281e-24
-1.00941e-22
-1.84407e-22
-1.26454e-22
-7.13943e-23
-3.71006e-23
-1.89381e-23
-5.11189e-23
-1.96236e-22
-3.09503e-22
-2.70848e-22
-1.60228e-22
-7.29199e-23
-2.75383e-23
-9.04333e-24
-2.66258e-24
-7.17702e-25
-1.79784e-25
-4.23258e-26
-9.44928e-27
-2.01558e-27
-3.86698e-28
6.56518e-27
1.72149e-24
-8.16054e-24
-1.41793e-23
-8.88789e-24
-4.55582e-24
-2.13099e-24
-9.67814e-25
-2.03133e-24
-5.91147e-24
-7.23437e-24
-4.99523e-24
-2.40365e-24
-9.08498e-25
-2.88836e-25
-8.05263e-26
-2.02273e-26
-4.66432e-27
-1.00107e-27
-2.02113e-28
-3.87206e-29
-7.09117e-30
-1.25704e-31
2.45589e-27
7.71761e-25
-5.47638e-25
-8.82931e-25
-4.98984e-25
-2.28734e-25
-9.46286e-26
-3.74559e-26
-5.98065e-26
-1.28498e-25
-1.19905e-25
-6.53474e-26
-2.55752e-26
-7.99694e-27
-2.12265e-27
-4.96561e-28
-1.04951e-28
-2.03935e-29
-3.69104e-30
-6.28714e-31
-1.01669e-31
-1.57269e-32
2.32647e-31
6.73916e-28
1.91955e-25
-3.12001e-26
-4.56698e-26
-2.30427e-26
-9.3383e-27
-3.36706e-27
-1.14178e-27
-1.37081e-27
-2.13486e-27
-1.51188e-27
-6.49697e-28
-2.04738e-28
-5.2152e-29
-1.13503e-29
-2.18509e-30
-3.80884e-31
-6.11268e-32
-9.14657e-33
-1.28895e-33
-1.7252e-34
-2.194e-35
1.61032e-31
1.06801e-28
2.70386e-26
-1.54794e-27
-2.02191e-27
-9.06234e-28
-3.21984e-28
-1.00027e-28
-2.86636e-29
-2.5899e-29
-2.91728e-29
-1.55019e-29
-5.1786e-30
-1.28854e-30
-2.61083e-31
-4.53631e-32
-6.98359e-33
-9.7408e-34
-1.25113e-34
-1.49847e-35
-1.69078e-36
-1.81318e-37
-4.7998e-39
5.41064e-32
9.35697e-30
1.94865e-27
-6.83433e-29
-7.89294e-29
-3.1473e-29
-9.76505e-30
-2.59126e-30
-6.19914e-31
-4.31443e-31
-3.48874e-31
-1.37934e-31
-3.48164e-32
-6.58782e-33
-1.01867e-33
-1.35392e-34
-1.59694e-35
-1.70803e-36
-1.68253e-37
-1.54483e-38
-1.33509e-39
-1.09417e-40
9.26816e-39
1.26396e-33
3.06731e-31
3.69159e-29
-2.71999e-30
-2.78575e-30
-9.96764e-31
-2.70137e-31
-6.09874e-32
-1.20941e-32
-6.72066e-33
-3.96037e-33
-1.11821e-33
-2.01799e-34
-2.73005e-35
-3.0163e-36
-2.86292e-37
-2.41105e-38
-1.84161e-39
-1.29612e-40
-8.50686e-42
-5.258e-43
-3.05703e-44
4.67478e-39
9.18058e-36
3.20515e-33
6.94862e-31
-9.65692e-32
-9.04107e-32
-2.92837e-32
-7.04602e-33
-1.35851e-33
-2.21107e-34
-1.05033e-34
-4.54772e-35
-8.47464e-36
-9.8308e-37
-8.4301e-38
-5.84545e-39
-3.45575e-40
-1.80215e-41
-8.48617e-43
-3.67009e-44
-1.47686e-45
-5.5885e-47
1.20842e-47
1.41431e-39
2.19126e-37
7.55673e-36
4.93393e-35
-3.0101e-33
-2.73752e-33
-8.5423e-34
-1.84693e-34
-3.0606e-35
-4.03168e-36
-1.81452e-36
-5.72766e-37
-5.71762e-38
-3.09033e-39
-1.13811e-40
-3.22134e-42
-7.51889e-44
-1.51325e-45
-2.70635e-47
-4.39451e-49
-6.58417e-51
-9.21918e-53
-1.21914e-54
9.53093e-54
1.23164e-47
5.12033e-45
5.59165e-44
0.974219
0.935761
0.904603
0.902452
0.390735
0.269447
0.169878
0.0921223
0.00257363
0.00245489
0.00243441
0.00342988
0.00244311
0.00243441
0.00243441
0.00243441
0.00241857
0.00243532
0.0024338
0.00290413
0.0030197
0.00692057
0.0160307
0.0161698
0.0132281
0.0161601
0.0161698
0.0161679
0.00276561
0.00633809
0.00433858
0.00302406
2.85636e-06
1.77457e-06
2.14247e-06
4.12967e-06
1.61558e-07
9.61168e-08
1.42756e-07
2.12001e-07
4.21182e-09
4.15884e-09
5.35114e-09
7.75234e-09
9.30601e-11
1.14441e-10
1.81271e-10
2.22107e-10
9.11332e-12
1.584e-11
3.09731e-11
8.43037e-11
3.24348e-12
9.75608e-12
1.80654e-11
2.29198e-11
2.81265e-13
2.2807e-12
5.68698e-12
8.05588e-12
-4.11076e-14
3.68525e-14
4.49649e-13
1.44244e-12
-2.49095e-13
-1.06532e-13
1.22431e-15
7.97147e-15
-3.99945e-13
-2.21444e-13
-1.07928e-13
-2.51843e-14
-4.66527e-13
-2.7653e-13
-1.53259e-13
-7.47218e-14
-4.04644e-13
-2.51457e-13
-1.48953e-13
-8.25507e-14
-2.62345e-13
-1.6812e-13
-1.03837e-13
-6.17712e-14
-1.27367e-13
-8.29242e-14
-5.22506e-14
-3.19282e-14
-4.55598e-14
-2.96284e-14
-1.87224e-14
-1.15178e-14
-1.1948e-14
-7.66204e-15
-4.78932e-15
-2.92368e-15
-2.26948e-15
-1.41962e-15
-8.67608e-16
-5.19041e-16
-3.06428e-16
-1.85123e-16
-1.09455e-16
-6.34526e-17
-2.86766e-17
-1.65728e-17
-9.38404e-18
-5.21533e-18
-1.80445e-18
-9.879e-19
-5.30196e-19
-2.79278e-19
-7.38405e-20
-3.7858e-20
-1.89288e-20
-9.09969e-21
-1.86966e-21
-8.41926e-22
-3.01895e-22
-1.78507e-23
-1.32744e-23
2.60164e-23
1.14171e-22
2.32255e-22
1.27838e-23
2.80202e-23
6.74713e-23
1.32106e-22
8.91393e-24
2.012e-23
4.9184e-23
1.02313e-22
6.05127e-24
1.36101e-23
3.42021e-23
8.48334e-23
2.74181e-24
6.10395e-24
1.78996e-23
6.37627e-23
6.88477e-25
1.5717e-24
7.00828e-24
3.52495e-23
9.96582e-26
2.58321e-25
2.44984e-24
1.50272e-23
7.80575e-27
2.78314e-26
5.93167e-25
3.56304e-24
1.92781e-28
1.47704e-27
5.18878e-26
2.48423e-25
6.11135e-30
7.90194e-29
2.23493e-27
6.94786e-27
4.86708e-35
3.14153e-34
1.47376e-32
2.69656e-32
2.4866e-44
2.38577e-45
6.53697e-47
0
0.395396
0.230666
0.455183
0.783124
0.81114
0.733383
0.521984
0.561252
0.641488
0.741822
0.749446
0.732746
0.601063
0.440626
0.419948
0.441997
0.4524
0.506539
0.78321
0.0309517
0.0420499
0.0627924
0.195809
0.417289
0.36469
0.230075
0.210362
0.210038
0.27294
0.434242
0.509098
0.615164
0.615164
0.516625
0.214788
0.0732112
0.086506
0.225637
0.0236654
0.0252936
0.0199177
0.0488037
0.132561
0.219799
0.236406
0.236231
0.119913
0.0120055
0.0578218
0.142954
0.161835
0.127634
0.104752
0.0855098
0.0719668
0.0499566
0.0473148
0.00318362
0.00572678
0.0089582
0.0180268
0.0649184
0.176869
0.236453
0.236406
0.113701
0.0120461
0.0119991
0.0231333
0.152749
0.185645
0.185614
0.185635
0.168238
0.0945981
0.0469034
0.00406592
0.00136189
0.000383856
0.000383665
0.000383107
0.00963168
0.0411273
0.0541995
0.0502312
0.0282248
0.16426
0.185414
0.185514
0.185634
0.185616
0.185609
0.151608
0.0468919
0.0468827
0.0160082
0.00303325
0.000387164
0.000383507
0.000742477
0.0017447
0.00181738
0.00580583
0.00624386
0.03483
0.176975
0.185406
0.182394
0.173176
0.185548
0.185128
0.116758
0.0468903
0.0468919
0.0127472
0.0015184
0.000500628
0.000424914
0.013522
0.0219366
0.0176712
0.00593921
0.00609918
0.0159022
0.0468101
0.0515134
0.0243141
0.0112601
0.0352842
0.059434
0.0828674
0.11025
0.109916
0.00137804
0.000846894
0.000317308
0.000418268
0.00430818
0.0213571
0.0220045
0.0150753
0.0063434
0.00642728
0.00676019
0.00730114
0.00252199
4.56217e-05
4.33798e-05
3.93665e-05
3.80075e-05
0.0135846
0.016735
9.50836e-06
6.16779e-05
2.63947e-05
0.000224778
2.72634e-05
0.00632992
0.0219635
0.0220045
0.0184856
0.0141262
0.0236185
0.0242402
0.0217187
0.00725456
0.000254647
3.81368e-05
3.72418e-05
3.53817e-05
3.50367e-05
5.65199e-07
5.42676e-07
4.28082e-07
2.74509e-06
1.57898e-05
2.31678e-05
0.00267706
0.0187898
0.0246256
0.0246298
0.0246204
0.0242528
0.0169236
0.0086362
0.000284856
0.000121317
8.31204e-05
0.000113206
3.45719e-05
3.79218e-08
4.10701e-08
1.10584e-07
1.49005e-06
1.85492e-05
7.09243e-05
0.00011085
0.000815165
0.00550513
0.00883345
0.00791516
0.00197427
1.63819e-06
2.03431e-06
0.000797295
0.000167673
0.000285563
0.00028578
3.43614e-05
1.64568e-09
1.14762e-08
4.90918e-08
2.33325e-06
1.7527e-05
3.91224e-05
2.80232e-05
1.98832e-05
3.79342e-07
1.08345e-06
1.67509e-06
1.63806e-06
1.63819e-06
1.63819e-06
0.000181762
0.000277309
0.000285879
8.67365e-05
4.4188e-08
2.68683e-10
2.36172e-08
3.78812e-07
1.14666e-06
4.20784e-06
1.02421e-06
1.9762e-07
1.32301e-07
3.64177e-07
4.14598e-06
6.64493e-06
4.38208e-06
1.59489e-06
1.91941e-05
0.000159626
0.000290797
0.000219001
5.63943e-10
5.63943e-10
1.06858e-10
6.84227e-09
2.63518e-06
7.64795e-06
5.76783e-06
2.7286e-06
1.32301e-07
1.30243e-07
3.68834e-07
2.11726e-06
1.62194e-06
1.12836e-07
1.13347e-06
0.00017052
0.000279089
0.000223793
5.63953e-10
5.63943e-10
5.63943e-10
1.26693e-10
6.50236e-09
2.35727e-06
8.58691e-06
8.63801e-06
8.64162e-06
2.47898e-06
1.26202e-07
1.69632e-07
1.12785e-07
1.1282e-07
1.12824e-07
9.64073e-06
0.000181221
0.000173756
9.14017e-10
8.75252e-10
5.64293e-10
5.63943e-10
5.22785e-11
3.09733e-09
2.72084e-07
3.24123e-06
8.64068e-06
8.64067e-06
1.36485e-06
1.12991e-07
1.12785e-07
1.12784e-07
1.12785e-07
1.1282e-07
1.34482e-05
1.59343e-05
5.56731e-09
5.5204e-09
7.47176e-09
5.78566e-10
5.63949e-10
2.44273e-12
7.39474e-11
7.45724e-11
4.70429e-09
1.19786e-06
3.04291e-06
1.59217e-06
1.12854e-07
1.12784e-07
1.12784e-07
2.84958e-07
1.39195e-06
3.08703e-06
1.16968e-08
1.16541e-08
1.32541e-08
1.18929e-08
6.07995e-10
5.64105e-10
1.27032e-15
9.09356e-14
7.96753e-13
1.03147e-11
1.76265e-10
2.4382e-08
7.77681e-07
7.79353e-07
1.77865e-07
1.12784e-07
7.12429e-07
1.40356e-06
3.59544e-07
6.28307e-08
1.4987e-08
1.6435e-08
6.78694e-09
6.80565e-10
5.68473e-10
-2.194e-14
2.83524e-16
6.29377e-15
9.65463e-14
1.74115e-12
5.65567e-12
1.40756e-08
3.3013e-07
2.16322e-07
1.13139e-07
3.76139e-07
4.17114e-07
1.03742e-07
3.1105e-10
3.10117e-10
9.24024e-09
4.22256e-10
3.7729e-08
8.52141e-10
-2.77435e-14
-6.32388e-15
2.50437e-17
6.53925e-15
6.77292e-13
2.34877e-12
3.60734e-12
1.00591e-11
2.55509e-07
3.58076e-07
2.54313e-07
1.04691e-08
3.21721e-10
3.20707e-10
3.09659e-10
1.49569e-10
1.50244e-10
1.29046e-06
1.66429e-07
-2.20546e-14
-7.0497e-15
-1.71348e-15
-5.05938e-32
3.2574e-14
6.13696e-13
3.26837e-12
7.417e-13
1.07972e-07
3.59116e-07
3.59116e-07
1.42603e-07
9.77835e-10
6.14535e-10
3.98106e-10
1.4846e-10
5.286e-10
1.84459e-06
8.29738e-07
-1.20429e-14
-4.24271e-15
-1.34207e-15
-2.80288e-16
2.13045e-15
4.82691e-14
6.62856e-13
6.70833e-13
7.417e-13
1.30645e-07
3.02487e-07
1.41894e-07
1.52844e-09
5.72539e-10
3.61244e-10
1.47392e-10
9.69181e-08
1.85447e-06
1.29952e-06
-4.42991e-15
-1.63369e-15
-5.60491e-16
-1.3919e-16
7.93872e-16
2.76489e-14
3.26144e-14
3.38197e-12
4.71529e-10
5.91373e-10
9.98365e-09
1.54217e-08
6.35895e-09
1.27874e-09
2.46709e-10
1.46863e-10
4.83567e-07
1.86105e-06
1.69398e-06
-1.11601e-15
-4.16291e-16
-1.47282e-16
-2.844e-17
3.90598e-16
5.77909e-15
3.36787e-14
1.70591e-12
2.0265e-10
2.20198e-10
3.22094e-10
4.42051e-10
6.0046e-10
3.53348e-10
1.4667e-10
1.46798e-10
5.50048e-07
1.51294e-06
9.41989e-06
-1.9303e-16
-7.06615e-17
-2.4055e-17
8.99199e-18
2.69373e-16
2.36561e-15
2.50026e-14
3.61549e-13
1.31689e-11
3.4992e-11
1.22585e-10
1.7297e-10
1.71094e-10
1.58141e-10
1.4655e-10
1.4667e-10
1.02341e-07
1.50082e-10
6.39307e-05
-2.25971e-17
-7.8443e-18
-1.7343e-18
2.15803e-17
2.56091e-16
2.06929e-15
1.58377e-14
1.23441e-13
8.9023e-13
5.59828e-12
2.83506e-11
6.09674e-11
8.78636e-11
1.26929e-10
1.46669e-10
1.51053e-10
1.49992e-10
1.50082e-10
6.75886e-05
-1.74816e-18
-5.03908e-19
1.32723e-18
2.61852e-17
2.76588e-16
2.11524e-15
1.33748e-14
7.82649e-14
4.28166e-13
2.10503e-12
8.41549e-12
2.42542e-11
4.98254e-11
9.42375e-11
1.4906e-10
1.64253e-10
1.49971e-10
1.50012e-10
6.75717e-05
-8.50595e-20
3.13054e-20
1.8814e-18
2.85872e-17
3.00049e-16
2.31732e-15
1.3921e-14
7.10352e-14
3.19477e-13
1.27839e-12
4.6236e-12
1.4005e-11
3.50792e-11
8.48807e-11
1.59583e-10
1.65903e-10
1.50013e-10
1.50082e-10
6.65126e-05
-1.55821e-21
7.80116e-20
1.93402e-18
2.87861e-17
3.0367e-16
2.44185e-15
1.52047e-14
7.62919e-14
3.30767e-13
1.27299e-12
4.47602e-12
1.33852e-11
3.45589e-11
9.08418e-11
1.97407e-10
1.55765e-10
1.49679e-10
1.50106e-10
6.8815e-05
1.93194e-21
8.45846e-20
1.81826e-18
2.65234e-17
2.87878e-16
2.49991e-15
1.70274e-14
9.06826e-14
3.94806e-13
1.48027e-12
5.06053e-12
1.51505e-11
4.22215e-11
1.2516e-10
3.10428e-10
2.22484e-10
1.40808e-10
1.5416e-05
6.91042e-05
6.71471e-21
4.86455e-19
4.54631e-18
3.54519e-17
3.30318e-16
2.97909e-15
2.30503e-14
1.36485e-13
6.17259e-13
2.28912e-12
7.6239e-12
2.44093e-11
7.39077e-11
2.44439e-10
3.55081e-10
3.04282e-10
1.26107e-10
2.65848e-05
6.91042e-05
5.39261e-20
1.06733e-17
1.70545e-16
4.81568e-16
1.4052e-15
6.99884e-15
4.57547e-14
2.95612e-13
1.63346e-12
6.99253e-12
2.32494e-11
5.5114e-11
1.01124e-10
2.40944e-10
3.14794e-10
1.82034e-10
1.11592e-10
2.45802e-05
6.91042e-05
1.78337e-19
6.68865e-17
1.67082e-15
6.957e-15
1.95323e-14
7.75851e-14
2.98453e-13
1.0146e-12
3.71724e-12
1.42007e-11
3.1296e-11
3.67835e-11
4.31473e-11
7.94457e-11
7.95748e-11
8.30505e-11
9.44504e-11
8.63179e-06
6.91025e-05
2.94317e-19
1.64373e-16
5.45483e-15
3.911e-14
1.45244e-13
6.26629e-13
2.38629e-12
5.81995e-12
1.14394e-11
1.84334e-11
1.83667e-11
1.84693e-11
1.86601e-11
3.40213e-10
4.63959e-09
9.9019e-09
1.11592e-10
4.7533e-06
4.97746e-05
3.21711e-19
2.23186e-16
9.7065e-15
1.1271e-13
5.54872e-13
2.60118e-12
1.01083e-11
1.76873e-11
1.73076e-11
1.73034e-11
3.34831e-10
6.85272e-09
8.13205e-09
4.89681e-09
1.55676e-08
1.55383e-08
1.61193e-10
1.01027e-05
5.15109e-05
1.26865e-19
1.94758e-16
1.18086e-14
1.8987e-13
1.3358e-12
6.56551e-12
2.66567e-11
3.22113e-11
2.18403e-11
1.73273e-11
5.8168e-09
1.27012e-08
1.27012e-08
6.90587e-09
1.11699e-08
1.39235e-08
2.46885e-10
2.06033e-05
6.41255e-05
3.43148e-20
4.44447e-17
7.27676e-15
2.1894e-13
1.9953e-12
1.20278e-11
4.96958e-11
7.23251e-11
5.38456e-11
1.73858e-11
5.06265e-09
1.26734e-08
1.04989e-08
4.89558e-09
4.61979e-09
6.08885e-09
3.2057e-10
2.43603e-05
7.08537e-05
5.28162e-21
7.52339e-18
1.70247e-15
1.20443e-13
1.99341e-12
1.52172e-11
7.80786e-11
1.45045e-10
1.35024e-10
1.62619e-10
1.55259e-09
4.2017e-09
3.16781e-09
3.05924e-09
3.06057e-09
4.04274e-09
3.5901e-10
3.39254e-05
7.09207e-05
2.15417e-22
6.59721e-19
2.44898e-16
2.61098e-14
7.42247e-13
1.05156e-11
7.46387e-11
2.25548e-10
2.43392e-10
2.25322e-10
2.30987e-10
2.30258e-10
2.54054e-10
5.35084e-07
1.71479e-07
3.68763e-09
3.76774e-10
6.64188e-05
7.09285e-05
4.00729e-24
4.27637e-20
1.59949e-17
3.21814e-15
1.86501e-13
3.06818e-12
4.4356e-11
2.35309e-10
3.13024e-10
2.52187e-10
2.0887e-10
2.08542e-10
5.10199e-07
7.90098e-07
7.49082e-07
4.53783e-09
1.72655e-05
7.0927e-05
7.09223e-05
4.03372e-32
4.1012e-25
5.54587e-20
1.01115e-16
1.80188e-14
5.791e-13
1.05919e-11
1.82885e-10
3.13154e-10
3.13154e-10
2.08503e-10
2.08542e-10
4.5933e-07
7.8979e-07
6.1911e-07
8.71449e-09
1.18818e-05
7.07301e-05
5.79565e-05
2.60668e-42
1.39259e-34
5.91108e-26
1.60588e-20
4.29349e-17
1.07019e-14
9.69626e-13
3.46543e-11
1.68282e-10
2.90319e-10
2.28075e-10
2.08495e-10
3.10598e-08
3.6048e-07
1.522e-07
3.50057e-08
5.60653e-07
2.21191e-05
2.25573e-05
)
;

boundaryField
{
    leftWall
    {
        type            zeroGradient;
    }
    rightWall
    {
        type            zeroGradient;
    }
    lowerWall
    {
        type            zeroGradient;
    }
    atmosphere
    {
        type            inletOutlet;
        inletValue      uniform 0;
        value           nonuniform List<scalar> 
46
(
0
0
0
0
0
0
0
0
0
0
0
0
0
0
0
0
0
0
0
0
0
0
0
0
0
0
0
0
0
0
0
0
0
9.69626e-13
3.46543e-11
1.68282e-10
2.90319e-10
2.28075e-10
2.08495e-10
3.10598e-08
3.6048e-07
1.522e-07
3.50057e-08
5.60653e-07
2.21191e-05
2.25573e-05
)
;
    }
    defaultFaces
    {
        type            empty;
    }
}


// ************************************************************************* //
