/*--------------------------------*- C++ -*----------------------------------*\
  =========                 |
  \\      /  F ield         | OpenFOAM: The Open Source CFD Toolbox
   \\    /   O peration     | Website:  https://openfoam.org
    \\  /    A nd           | Version:  9
     \\/     M anipulation  |
\*---------------------------------------------------------------------------*/
FoamFile
{
    format      ascii;
    class       volScalarField;
    location    "9.89";
    object      p;
}
// * * * * * * * * * * * * * * * * * * * * * * * * * * * * * * * * * * * * * //

dimensions      [1 -1 -2 0 0 0 0];

internalField   nonuniform List<scalar> 
2268
(
728.32
728.351
728.442
728.599
728.82
729.1
729.434
729.814
730.232
730.68
731.149
731.627
732.104
732.567
733.001
733.4
733.718
734.045
734.313
734.537
734.807
734.966
735.033
669.456
669.49
669.582
669.739
669.96
670.239
670.572
670.95
671.368
671.815
672.281
672.756
673.228
673.684
674.114
674.516
674.872
675.217
675.541
675.815
675.999
676.103
676.163
610.58
610.616
610.71
610.869
611.091
611.37
611.703
612.082
612.5
612.947
613.413
613.887
614.356
614.81
615.241
615.651
616.029
616.396
616.783
617.063
617.192
617.254
617.313
551.69
551.726
551.821
551.983
552.208
552.49
552.824
553.206
553.626
554.076
554.544
555.02
555.491
555.949
556.387
556.806
557.193
557.575
557.996
558.289
558.388
558.423
558.495
492.786
492.82
492.916
493.081
493.309
493.596
493.935
494.321
494.746
495.201
495.674
496.155
496.634
497.101
497.552
497.985
498.364
498.746
499.18
499.507
499.593
499.609
499.718
433.866
433.898
433.994
434.162
434.396
434.689
435.035
435.428
435.86
436.322
436.802
437.291
437.781
438.264
438.734
439.194
439.555
439.905
440.359
440.719
440.799
440.888
440.986
374.932
374.96
375.056
375.228
375.468
375.769
376.124
376.527
376.968
377.438
377.927
378.427
378.932
379.435
379.933
380.433
380.86
381.19
381.55
381.93
382.104
382.321
382.296
315.981
316.008
316.106
316.282
316.53
316.84
317.207
317.621
318.072
318.552
319.051
319.562
320.084
320.611
321.144
321.705
322.354
322.729
322.88
323.187
323.569
323.839
323.628
734.36
734.277
734.448
734.336
734.084
733.693
733.207
732.675
732.114
731.543
730.923
730.255
729.92
729.758
729.538
729.35
729.132
729.017
729.062
675.525
675.386
675.505
675.392
675.159
674.785
674.351
673.884
673.357
672.809
672.319
671.853
671.378
671.014
670.775
670.596
670.39
670.265
670.28
616.675
616.566
616.621
616.491
616.259
615.898
615.476
615.019
614.512
614.005
613.614
613.399
612.927
612.373
612.037
611.851
611.721
611.591
611.612
557.844
557.883
557.82
557.652
557.402
557.04
556.625
556.175
555.679
555.204
554.85
554.801
554.41
553.762
553.294
553.086
552.998
552.863
552.866
499.253
499.273
499.098
498.866
498.581
498.211
497.795
497.347
496.858
496.412
496.066
496.001
495.689
495.029
494.539
494.261
494.16
494.07
494.067
440.859
440.737
440.424
440.113
439.786
439.397
438.976
438.525
438.023
437.589
437.251
437.096
436.791
436.209
435.799
435.566
435.377
435.207
435.271
382.467
382.188
381.758
381.375
381.007
380.593
380.17
379.729
379.179
378.73
378.408
378.2
377.876
377.367
377.15
377.076
376.789
376.425
376.488
323.803
323.52
323.064
322.641
322.241
321.797
321.381
321.004
320.499
319.95
319.547
319.313
318.971
318.562
318.577
318.427
318.223
317.735
317.711
223.802
223.823
223.92
224.1
224.359
224.687
225.074
225.511
225.981
226.478
226.993
227.523
228.071
228.641
229.237
229.887
230.6
231.126
231.477
231.745
231.993
232.253
231.898
99.6814
99.7121
99.8131
99.9395
100.132
100.428
100.803
101.228
101.706
102.231
102.787
103.359
103.922
104.471
105.004
105.543
106.148
106.804
107.326
107.626
107.729
107.762
107.618
18.7802
18.7855
18.8198
18.8906
18.9872
19.1171
19.2761
19.4687
19.7034
19.9764
20.2775
20.5862
20.8754
21.1276
21.3441
21.5407
21.7895
22.1328
22.4102
22.5745
22.6319
22.6198
22.5689
-0.769802
-0.775429
-0.802304
-0.73587
-0.682641
-0.67512
-0.685531
-0.677944
-0.681787
-0.690658
-0.698233
-0.706608
-0.712345
-0.71784
-0.720423
-0.722185
-0.736121
-0.780544
-0.833174
-0.840668
-0.827568
-0.822341
-0.837118
-0.966994
-0.967611
-0.971525
-0.962693
-0.956287
-0.953147
-0.950127
-0.944294
-0.940718
-0.939532
-0.938993
-0.938911
-0.940264
-0.94308
-0.945433
-0.947612
-0.953558
-0.963861
-0.972901
-0.977462
-0.977372
-0.978783
-0.983467
-1.14024
-1.14069
-1.13696
-1.14495
-1.14945
-1.15125
-1.1518
-1.1541
-1.15491
-1.15534
-1.15566
-1.15531
-1.15526
-1.15555
-1.15652
-1.15834
-1.15846
-1.15447
-1.14897
-1.14876
-1.14866
-1.14742
-1.14629
-1.27928
-1.27995
-1.27787
-1.28069
-1.27919
-1.27962
-1.28012
-1.28098
-1.28148
-1.28179
-1.28185
-1.28183
-1.28195
-1.28243
-1.28315
-1.28384
-1.2845
-1.2856
-1.28538
-1.28522
-1.28581
-1.2851
-1.28206
-1.40509
-1.40545
-1.40487
-1.40592
-1.40515
-1.40548
-1.4058
-1.40637
-1.40679
-1.40724
-1.40796
-1.40903
-1.40963
-1.41003
-1.41025
-1.40997
-1.41019
-1.41063
-1.41079
-1.41072
-1.41092
-1.41097
-1.40991
-1.53079
-1.53101
-1.53082
-1.53131
-1.53106
-1.53128
-1.53156
-1.53199
-1.5324
-1.5329
-1.53359
-1.53447
-1.53508
-1.53533
-1.53549
-1.53552
-1.53552
-1.53571
-1.53583
-1.53584
-1.5359
-1.53569
-1.53483
-1.65644
-1.65657
-1.65657
-1.65682
-1.65688
-1.65706
-1.65732
-1.65766
-1.65803
-1.6585
-1.65899
-1.65956
-1.65998
-1.66023
-1.66051
-1.66071
-1.66072
-1.66085
-1.66097
-1.66104
-1.6611
-1.66102
-1.66059
-1.78204
-1.78213
-1.78218
-1.78236
-1.78252
-1.78272
-1.78296
-1.78325
-1.78358
-1.78399
-1.78435
-1.78475
-1.78507
-1.78524
-1.78545
-1.78568
-1.78586
-1.78603
-1.78617
-1.78631
-1.78649
-1.78676
-1.7871
-1.9076
-1.90766
-1.90772
-1.90787
-1.90804
-1.90824
-1.90845
-1.90872
-1.90906
-1.90939
-1.90969
-1.91002
-1.91032
-1.91049
-1.91064
-1.91079
-1.91101
-1.91122
-1.9114
-1.91159
-1.91185
-1.91227
-1.91294
-2.03312
-2.03315
-2.03322
-2.03334
-2.03349
-2.03368
-2.03387
-2.03414
-2.03447
-2.03475
-2.03502
-2.03532
-2.03565
-2.03596
-2.03608
-2.03612
-2.03626
-2.03646
-2.03663
-2.03683
-2.03708
-2.03743
-2.03791
-2.15861
-2.15862
-2.15868
-2.15879
-2.15893
-2.15909
-2.15927
-2.15954
-2.15983
-2.16007
-2.16032
-2.1606
-2.16092
-2.16128
-2.16151
-2.16159
-2.16163
-2.16171
-2.16184
-2.16201
-2.16222
-2.16248
-2.16279
-2.28406
-2.28407
-2.28413
-2.28422
-2.28435
-2.2845
-2.28468
-2.28492
-2.28517
-2.28537
-2.2856
-2.28585
-2.28613
-2.28643
-2.28672
-2.28689
-2.28691
-2.28693
-2.28702
-2.28715
-2.28731
-2.2875
-2.2877
-2.40949
-2.40949
-2.40954
-2.40962
-2.40974
-2.4099
-2.41009
-2.41029
-2.41048
-2.41066
-2.41085
-2.41107
-2.4113
-2.41155
-2.41178
-2.41194
-2.41202
-2.41207
-2.41215
-2.41226
-2.41239
-2.41253
-2.41265
-2.53489
-2.53488
-2.53493
-2.535
-2.53511
-2.53526
-2.53545
-2.53562
-2.53576
-2.53592
-2.53609
-2.53628
-2.53648
-2.53668
-2.53686
-2.537
-2.5371
-2.53718
-2.53727
-2.53736
-2.53747
-2.53757
-2.53765
-2.66026
-2.66025
-2.66029
-2.66035
-2.66045
-2.66058
-2.66074
-2.66088
-2.66102
-2.66117
-2.66132
-2.66149
-2.66165
-2.66182
-2.66197
-2.6621
-2.6622
-2.66229
-2.66237
-2.66246
-2.66254
-2.66262
-2.66268
-2.7856
-2.78559
-2.78563
-2.78569
-2.78578
-2.78589
-2.78602
-2.78614
-2.78627
-2.7864
-2.78654
-2.78669
-2.78683
-2.78697
-2.7871
-2.78722
-2.78732
-2.7874
-2.78748
-2.78756
-2.78763
-2.78769
-2.78774
-2.91093
-2.91093
-2.91096
-2.91101
-2.91109
-2.91118
-2.91129
-2.9114
-2.91152
-2.91164
-2.91176
-2.91189
-2.91201
-2.91213
-2.91225
-2.91235
-2.91244
-2.91252
-2.9126
-2.91267
-2.91273
-2.91278
-2.91282
-3.03626
-3.03626
-3.03628
-3.03633
-3.03639
-3.03647
-3.03656
-3.03666
-3.03676
-3.03687
-3.03697
-3.03708
-3.03719
-3.0373
-3.0374
-3.03749
-3.03758
-3.03765
-3.03772
-3.03779
-3.03784
-3.03788
-3.03792
-3.16157
-3.16158
-3.16159
-3.16163
-3.16168
-3.16175
-3.16182
-3.16191
-3.162
-3.16209
-3.16219
-3.16228
-3.16238
-3.16247
-3.16256
-3.16265
-3.16272
-3.16279
-3.16286
-3.16291
-3.16296
-3.163
-3.16303
-3.28685
-3.28688
-3.28689
-3.28691
-3.28696
-3.28701
-3.28708
-3.28715
-3.28723
-3.28731
-3.2874
-3.28748
-3.28757
-3.28765
-3.28773
-3.28781
-3.28787
-3.28794
-3.288
-3.28805
-3.28809
-3.28813
-3.28815
-3.41215
-3.41215
-3.41216
-3.41219
-3.41222
-3.41227
-3.41233
-3.41239
-3.41246
-3.41253
-3.41261
-3.41268
-3.41276
-3.41283
-3.4129
-3.41297
-3.41303
-3.41309
-3.41314
-3.41319
-3.41323
-3.41326
-3.41329
-3.53745
-3.53741
-3.53743
-3.53745
-3.53749
-3.53753
-3.53757
-3.53763
-3.53769
-3.53775
-3.53782
-3.53788
-3.53795
-3.53801
-3.53808
-3.53814
-3.53819
-3.53825
-3.5383
-3.53834
-3.53838
-3.53841
-3.53843
-3.66271
-3.6627
-3.6627
-3.66272
-3.66274
-3.66277
-3.66281
-3.66286
-3.66291
-3.66297
-3.66302
-3.66308
-3.66314
-3.6632
-3.66326
-3.66331
-3.66336
-3.66341
-3.66345
-3.66349
-3.66353
-3.66356
-3.66358
-3.78797
-3.78797
-3.78796
-3.78797
-3.78799
-3.78801
-3.78805
-3.78809
-3.78813
-3.78818
-3.78823
-3.78828
-3.78833
-3.78839
-3.78844
-3.78849
-3.78853
-3.78858
-3.78862
-3.78865
-3.78869
-3.78871
-3.78874
-3.91323
-3.91323
-3.91321
-3.91322
-3.91323
-3.91325
-3.91327
-3.91331
-3.91335
-3.91339
-3.91344
-3.91348
-3.91353
-3.91357
-3.91362
-3.91366
-3.91371
-3.91375
-3.91378
-3.91382
-3.91385
-3.91387
-3.9139
-4.03847
-4.03847
-4.03845
-4.03845
-4.03846
-4.03847
-4.0385
-4.03853
-4.03856
-4.0386
-4.03864
-4.03868
-4.03872
-4.03876
-4.0388
-4.03884
-4.03888
-4.03892
-4.03895
-4.03898
-4.03901
-4.03904
-4.03906
-4.1637
-4.16369
-4.16368
-4.16368
-4.16368
-4.16369
-4.16372
-4.16374
-4.16377
-4.16381
-4.16384
-4.16388
-4.16392
-4.16395
-4.16399
-4.16403
-4.16406
-4.16409
-4.16413
-4.16415
-4.16418
-4.16421
-4.16423
-4.28892
-4.28891
-4.2889
-4.28889
-4.2889
-4.28891
-4.28893
-4.28895
-4.28898
-4.28901
-4.28905
-4.28908
-4.28911
-4.28915
-4.28918
-4.28921
-4.28924
-4.28927
-4.2893
-4.28933
-4.28935
-4.28938
-4.2894
-4.41414
-4.41413
-4.41411
-4.4141
-4.41411
-4.41412
-4.41414
-4.41416
-4.41419
-4.41422
-4.41425
-4.41428
-4.41431
-4.41434
-4.41437
-4.4144
-4.41442
-4.41445
-4.41448
-4.4145
-4.41453
-4.41455
-4.41457
-4.53936
-4.53934
-4.53932
-4.53931
-4.53931
-4.53933
-4.53935
-4.53937
-4.5394
-4.53943
-4.53945
-4.53948
-4.53951
-4.53953
-4.53956
-4.53958
-4.53961
-4.53963
-4.53966
-4.53968
-4.5397
-4.53973
-4.53975
-4.66456
-4.66456
-4.66452
-4.6645
-4.66451
-4.66453
-4.66455
-4.66458
-4.66461
-4.66463
-4.66466
-4.66468
-4.66471
-4.66473
-4.66475
-4.66477
-4.66479
-4.66482
-4.66484
-4.66486
-4.66488
-4.6649
-4.66493
-4.78978
-4.78975
-4.78971
-4.78968
-4.7897
-4.78973
-4.78976
-4.78979
-4.78982
-4.78984
-4.78986
-4.78989
-4.78991
-4.78993
-4.78994
-4.78996
-4.78998
-4.79
-4.79002
-4.79004
-4.79006
-4.79008
-4.7901
-4.91499
-4.91494
-4.9149
-4.91489
-4.91491
-4.91495
-4.91498
-4.91501
-4.91503
-4.91505
-4.91507
-4.91509
-4.91511
-4.91513
-4.91514
-4.91516
-4.91517
-4.91519
-4.91521
-4.91522
-4.91524
-4.91526
-4.91528
-5.04018
-5.04012
-5.04012
-5.04013
-5.04015
-5.04019
-5.04021
-5.04023
-5.04025
-5.04027
-5.04028
-5.0403
-5.04031
-5.04033
-5.04034
-5.04035
-5.04037
-5.04038
-5.04039
-5.04041
-5.04042
-5.04044
-5.04047
-5.16535
-5.16529
-5.16534
-5.16538
-5.16541
-5.16543
-5.16545
-5.16546
-5.16547
-5.16549
-5.1655
-5.16551
-5.16552
-5.16553
-5.16554
-5.16555
-5.16556
-5.16557
-5.16558
-5.16559
-5.1656
-5.16563
-5.16565
-5.29043
-5.29046
-5.29054
-5.29061
-5.29066
-5.29067
-5.29068
-5.29069
-5.2907
-5.29071
-5.29072
-5.29072
-5.29073
-5.29074
-5.29075
-5.29075
-5.29076
-5.29076
-5.29077
-5.29077
-5.29079
-5.29081
-5.29084
-5.41554
-5.41562
-5.41574
-5.41583
-5.41588
-5.4159
-5.41591
-5.41592
-5.41592
-5.41593
-5.41593
-5.41594
-5.41594
-5.41595
-5.41595
-5.41595
-5.41596
-5.41596
-5.41596
-5.41596
-5.41596
-5.41599
-5.41603
-5.54065
-5.54084
-5.54098
-5.54106
-5.54111
-5.54113
-5.54113
-5.54113
-5.54113
-5.54114
-5.54114
-5.54114
-5.54114
-5.54114
-5.54115
-5.54115
-5.54115
-5.54115
-5.54114
-5.54113
-5.54112
-5.54116
-5.54122
-5.66596
-5.66638
-5.66633
-5.66634
-5.66635
-5.66635
-5.66635
-5.66635
-5.66635
-5.66635
-5.66635
-5.66635
-5.66635
-5.66635
-5.66635
-5.66635
-5.66635
-5.66635
-5.66634
-5.66632
-5.6663
-5.66632
-5.66642
232.669
232.576
232.585
232.525
107.882
107.901
107.873
107.793
22.6346
22.6437
22.6291
22.5915
-0.833395
-0.824054
-0.820691
-0.824447
-0.980758
-0.978024
-0.976054
-0.978889
-1.14705
-1.14805
-1.14737
-1.14658
-1.28301
-1.28457
-1.28555
-1.2849
-1.40953
-1.40966
-1.40989
-1.4097
-1.5345
-1.53445
-1.53441
-1.53429
-1.66054
-1.66042
-1.66018
-1.65999
-1.78698
-1.78684
-1.7867
-1.78655
-1.91313
-1.91314
-1.9131
-1.91301
-2.03828
-2.03847
-2.0385
-2.03841
-2.16297
-2.16305
-2.16306
-2.16301
-2.28779
-2.28783
-2.28783
-2.2878
-2.41271
-2.41273
-2.41273
-2.41271
-2.53768
-2.5377
-2.5377
-2.53769
-2.6627
-2.66271
-2.66271
-2.66271
-2.78776
-2.78776
-2.78776
-2.78776
-2.91283
-2.91284
-2.91284
-2.91284
-3.03793
-3.03793
-3.03794
-3.03794
-3.16304
-3.16304
-3.16305
-3.16305
-3.28816
-3.28817
-3.28817
-3.28818
-3.4133
-3.41331
-3.41331
-3.41332
-3.53844
-3.53845
-3.53846
-3.53846
-3.66359
-3.6636
-3.66361
-3.66361
-3.78875
-3.78876
-3.78877
-3.78877
-3.91391
-3.91392
-3.91393
-3.91394
-4.03908
-4.03909
-4.03909
-4.0391
-4.16425
-4.16425
-4.16426
-4.16427
-4.28942
-4.28943
-4.28943
-4.28944
-4.41459
-4.4146
-4.41461
-4.41462
-4.53976
-4.53977
-4.53978
-4.53979
-4.66494
-4.66495
-4.66496
-4.66497
-4.79012
-4.79013
-4.79014
-4.79015
-4.9153
-4.91531
-4.91532
-4.91533
-5.04048
-5.04049
-5.0405
-5.04051
-5.16567
-5.16568
-5.16569
-5.1657
-5.29086
-5.29087
-5.29088
-5.29089
-5.41605
-5.41606
-5.41607
-5.41608
-5.54125
-5.54126
-5.54127
-5.54127
-5.66644
-5.66645
-5.66645
-5.66646
232.145
231.721
231.261
230.817
230.403
230.004
229.616
229.323
229.126
228.75
228.294
227.912
227.531
227.149
226.871
226.597
226.356
225.915
225.874
107.575
107.377
107.145
106.887
106.607
106.313
105.957
105.595
105.369
105.06
104.587
104.081
103.648
103.206
102.73
102.432
102.27
102.17
102.196
22.496
22.4345
22.4051
22.365
22.2872
22.1684
21.9978
21.7588
21.497
21.2839
21.0178
20.7285
20.4991
20.3037
20.112
20.0064
19.994
20.0814
20.1445
-0.830268
-0.794478
-0.789009
-0.792119
-0.792554
-0.791835
-0.791762
-0.79176
-0.79418
-0.799191
-0.808495
-0.823086
-0.845448
-0.813856
-0.795503
-0.791276
-0.790581
-0.795306
-0.799418
-0.982211
-0.976021
-0.972934
-0.97407
-0.974105
-0.97398
-0.9745
-0.975575
-0.977307
-0.979477
-0.983933
-0.989712
-0.992816
-0.988819
-0.986494
-0.984726
-0.983506
-0.983108
-0.982899
-1.14626
-1.1503
-1.15026
-1.14947
-1.14926
-1.14932
-1.14942
-1.14956
-1.14955
-1.1487
-1.14679
-1.14416
-1.14073
-1.14422
-1.14602
-1.14587
-1.1454
-1.14539
-1.14422
-1.28235
-1.28385
-1.28377
-1.28225
-1.28035
-1.27916
-1.27843
-1.27778
-1.27644
-1.27553
-1.27445
-1.27341
-1.27329
-1.2753
-1.2769
-1.27789
-1.27837
-1.2787
-1.2787
-1.40899
-1.40914
-1.40886
-1.40774
-1.40671
-1.40612
-1.40575
-1.40501
-1.4045
-1.40424
-1.40374
-1.40318
-1.40297
-1.40378
-1.40379
-1.40405
-1.40428
-1.40443
-1.40431
-1.53411
-1.53447
-1.53453
-1.53435
-1.53442
-1.53441
-1.53401
-1.53321
-1.53303
-1.53284
-1.53243
-1.53191
-1.53142
-1.53099
-1.53017
-1.52999
-1.53001
-1.53005
-1.52996
-1.65977
-1.65997
-1.66035
-1.66088
-1.66132
-1.66115
-1.6605
-1.65998
-1.65944
-1.65889
-1.65855
-1.65809
-1.65744
-1.65667
-1.656
-1.6557
-1.65561
-1.65562
-1.65561
-1.78628
-1.78605
-1.78608
-1.78636
-1.78654
-1.7862
-1.78567
-1.78519
-1.78472
-1.78426
-1.78381
-1.78327
-1.78269
-1.78211
-1.78159
-1.78127
-1.78113
-1.78114
-1.78123
-1.91277
-1.91217
-1.91166
-1.91156
-1.9115
-1.91123
-1.91084
-1.91044
-1.91003
-1.90964
-1.90929
-1.90888
-1.9083
-1.90762
-1.90712
-1.90676
-1.90659
-1.90661
-1.90682
-2.03809
-2.03747
-2.03697
-2.03674
-2.03658
-2.03633
-2.03601
-2.03568
-2.03534
-2.03503
-2.0348
-2.03456
-2.03404
-2.03335
-2.03272
-2.03224
-2.03201
-2.03205
-2.03235
-2.16285
-2.16247
-2.16212
-2.16188
-2.16168
-2.16145
-2.16118
-2.1609
-2.16063
-2.16037
-2.16017
-2.16003
-2.15973
-2.15919
-2.15845
-2.15787
-2.15765
-2.1577
-2.15796
-2.28771
-2.28746
-2.28721
-2.287
-2.2868
-2.28659
-2.28636
-2.28613
-2.2859
-2.28569
-2.28552
-2.28537
-2.28519
-2.28486
-2.28438
-2.28396
-2.28385
-2.28393
-2.28419
-2.41266
-2.41248
-2.41229
-2.41211
-2.41194
-2.41175
-2.41156
-2.41136
-2.41117
-2.411
-2.41084
-2.41071
-2.41057
-2.41039
-2.41027
-2.41027
-2.41024
-2.41023
-2.41047
-2.53766
-2.53754
-2.53739
-2.53724
-2.53708
-2.53692
-2.53675
-2.53659
-2.53643
-2.53629
-2.53616
-2.53605
-2.53595
-2.53586
-2.53586
-2.53598
-2.53597
-2.53583
-2.53596
-2.66269
-2.66261
-2.6625
-2.66237
-2.66224
-2.6621
-2.66196
-2.66182
-2.66169
-2.66157
-2.66147
-2.66138
-2.66131
-2.66126
-2.66125
-2.66128
-2.66126
-2.66119
-2.66127
-2.78775
-2.78769
-2.78761
-2.78751
-2.78739
-2.78728
-2.78716
-2.78705
-2.78694
-2.78684
-2.78676
-2.78669
-2.78664
-2.7866
-2.7866
-2.7866
-2.78658
-2.78653
-2.78659
-2.91283
-2.91279
-2.91272
-2.91264
-2.91255
-2.91246
-2.91237
-2.91228
-2.91219
-2.91211
-2.91204
-2.91199
-2.91195
-2.91193
-2.91193
-2.91193
-2.91191
-2.91189
-2.91191
-3.03793
-3.0379
-3.03785
-3.03779
-3.03772
-3.03764
-3.03757
-3.03749
-3.03742
-3.03736
-3.03731
-3.03727
-3.03725
-3.03724
-3.03724
-3.03725
-3.03726
-3.03728
-3.03727
-3.16305
-3.16303
-3.16299
-3.16294
-3.16289
-3.16283
-3.16277
-3.16271
-3.16266
-3.16261
-3.16257
-3.16255
-3.16253
-3.16253
-3.16254
-3.16257
-3.16259
-3.16264
-3.16261
-3.28818
-3.28816
-3.28814
-3.2881
-3.28806
-3.28801
-3.28797
-3.28792
-3.28788
-3.28785
-3.28782
-3.28781
-3.2878
-3.28781
-3.28783
-3.28786
-3.2879
-3.28795
-3.28794
-3.41332
-3.41331
-3.41329
-3.41327
-3.41324
-3.4132
-3.41317
-3.41313
-3.4131
-3.41308
-3.41306
-3.41305
-3.41306
-3.41307
-3.41309
-3.41312
-3.41317
-3.41321
-3.41321
-3.53847
-3.53846
-3.53845
-3.53844
-3.53841
-3.53839
-3.53837
-3.53834
-3.53832
-3.53831
-3.5383
-3.53829
-3.5383
-3.53831
-3.53833
-3.53835
-3.53838
-3.53839
-3.53838
-3.66362
-3.66362
-3.66362
-3.66361
-3.66359
-3.66358
-3.66356
-3.66355
-3.66354
-3.66353
-3.66352
-3.66353
-3.66353
-3.66354
-3.66355
-3.66356
-3.66355
-3.66353
-3.66347
-3.78878
-3.78879
-3.78879
-3.78878
-3.78878
-3.78877
-3.78876
-3.78875
-3.78875
-3.78874
-3.78875
-3.78875
-3.78876
-3.78876
-3.78877
-3.78876
-3.78872
-3.78867
-3.78857
-3.91394
-3.91395
-3.91396
-3.91396
-3.91396
-3.91396
-3.91395
-3.91395
-3.91395
-3.91396
-3.91396
-3.91397
-3.91398
-3.91399
-3.91399
-3.91397
-3.91392
-3.91386
-3.91374
-4.03911
-4.03912
-4.03913
-4.03914
-4.03914
-4.03914
-4.03915
-4.03915
-4.03916
-4.03917
-4.03918
-4.03919
-4.0392
-4.03921
-4.03921
-4.0392
-4.03916
-4.03911
-4.039
-4.16428
-4.1643
-4.16431
-4.16432
-4.16433
-4.16433
-4.16434
-4.16435
-4.16436
-4.16438
-4.16439
-4.16441
-4.16443
-4.16444
-4.16445
-4.16444
-4.16441
-4.16437
-4.16427
-4.28946
-4.28947
-4.28949
-4.2895
-4.28951
-4.28952
-4.28953
-4.28955
-4.28956
-4.28958
-4.2896
-4.28962
-4.28965
-4.28967
-4.28968
-4.28969
-4.28967
-4.28963
-4.28953
-4.41463
-4.41465
-4.41466
-4.41468
-4.41469
-4.41471
-4.41472
-4.41474
-4.41476
-4.41478
-4.41481
-4.41483
-4.41486
-4.41489
-4.41492
-4.41493
-4.41493
-4.41488
-4.41477
-4.53981
-4.53983
-4.53984
-4.53986
-4.53988
-4.53989
-4.53991
-4.53993
-4.53995
-4.53998
-4.54001
-4.54004
-4.54008
-4.54011
-4.54015
-4.54018
-4.54019
-4.54014
-4.54001
-4.66499
-4.66501
-4.66502
-4.66504
-4.66506
-4.66508
-4.6651
-4.66512
-4.66515
-4.66517
-4.66521
-4.66525
-4.66529
-4.66533
-4.66538
-4.66542
-4.66544
-4.6654
-4.66527
-4.79017
-4.79019
-4.79021
-4.79022
-4.79024
-4.79026
-4.79028
-4.79031
-4.79033
-4.79036
-4.7904
-4.79044
-4.79049
-4.79054
-4.7906
-4.79064
-4.79067
-4.79062
-4.79048
-4.91535
-4.91537
-4.91539
-4.91541
-4.91543
-4.91544
-4.91547
-4.91549
-4.91552
-4.91555
-4.91559
-4.91563
-4.91569
-4.91575
-4.91581
-4.91586
-4.91588
-4.9158
-4.91561
-5.04053
-5.04055
-5.04057
-5.04059
-5.04061
-5.04062
-5.04064
-5.04067
-5.04069
-5.04073
-5.04077
-5.04081
-5.04087
-5.04094
-5.04101
-5.04108
-5.0411
-5.041
-5.04076
-5.16572
-5.16574
-5.16575
-5.16577
-5.16578
-5.1658
-5.16582
-5.16584
-5.16587
-5.1659
-5.16594
-5.16598
-5.16605
-5.16612
-5.16621
-5.16631
-5.16636
-5.16626
-5.166
-5.2909
-5.29092
-5.29093
-5.29095
-5.29096
-5.29098
-5.29099
-5.29101
-5.29103
-5.29106
-5.29109
-5.29114
-5.2912
-5.29129
-5.2914
-5.29154
-5.29166
-5.29157
-5.29133
-5.41609
-5.4161
-5.41611
-5.41612
-5.41613
-5.41615
-5.41616
-5.41617
-5.41619
-5.41621
-5.41624
-5.41628
-5.41634
-5.41642
-5.41655
-5.41675
-5.41699
-5.41696
-5.41676
-5.54128
-5.54129
-5.54129
-5.5413
-5.5413
-5.54131
-5.54132
-5.54133
-5.54134
-5.54136
-5.54138
-5.5414
-5.54144
-5.54151
-5.54162
-5.54186
-5.54231
-5.54246
-5.54245
-5.66646
-5.66646
-5.66647
-5.66647
-5.66647
-5.66648
-5.66648
-5.66649
-5.66649
-5.6665
-5.66651
-5.66652
-5.66654
-5.66657
-5.66663
-5.66681
-5.6673
-5.66783
-5.66831
)
;

boundaryField
{
    leftWall
    {
        type            calculated;
        value           nonuniform List<scalar> 
50
(
728.32
669.456
610.58
551.69
492.786
433.866
374.932
315.981
223.802
99.6814
18.7802
-0.769802
-0.966994
-1.14024
-1.27928
-1.40509
-1.53079
-1.65644
-1.78204
-1.9076
-2.03312
-2.15861
-2.28406
-2.40949
-2.53489
-2.66026
-2.7856
-2.91093
-3.03626
-3.16157
-3.28685
-3.41215
-3.53745
-3.66271
-3.78797
-3.91323
-4.03847
-4.1637
-4.28892
-4.41414
-4.53936
-4.66456
-4.78978
-4.91499
-5.04018
-5.16535
-5.29043
-5.41554
-5.54065
-5.66596
)
;
    }
    rightWall
    {
        type            calculated;
        value           nonuniform List<scalar> 
50
(
729.062
670.28
611.612
552.866
494.067
435.271
376.488
317.711
225.874
102.196
20.1445
-0.799418
-0.982899
-1.14422
-1.2787
-1.40431
-1.52996
-1.65561
-1.78123
-1.90682
-2.03235
-2.15796
-2.28419
-2.41047
-2.53596
-2.66127
-2.78659
-2.91191
-3.03727
-3.16261
-3.28794
-3.41321
-3.53838
-3.66347
-3.78857
-3.91374
-4.039
-4.16427
-4.28953
-4.41477
-4.54001
-4.66527
-4.79048
-4.91561
-5.04076
-5.166
-5.29133
-5.41676
-5.54245
-5.66831
)
;
    }
    lowerWall
    {
        type            calculated;
        value           nonuniform List<scalar> 
62
(
757.749
757.78
757.871
758.028
758.249
758.53
758.863
759.243
759.661
760.11
760.578
761.057
761.534
761.996
762.43
762.829
763.147
763.474
763.731
763.917
764.224
764.395
764.461
735.033
676.163
617.313
558.495
499.718
440.986
382.296
323.628
295.263
295.171
295.18
295.12
734.36
675.525
616.675
557.844
499.253
440.859
382.467
323.803
763.784
763.695
763.866
763.755
763.507
763.122
762.592
761.986
761.423
760.851
760.132
759.465
759.282
759.149
758.928
758.741
758.523
758.407
758.453
)
;
    }
    atmosphere
    {
        type            calculated;
        value           nonuniform List<scalar> 
46
(
-5.72908
-5.72904
-5.72904
-5.72904
-5.72904
-5.72904
-5.72904
-5.72904
-5.72904
-5.72904
-5.72904
-5.72904
-5.72904
-5.72904
-5.72904
-5.72904
-5.72904
-5.72904
-5.72904
-5.72904
-5.72904
-5.72904
-5.72904
-5.72904
-5.72904
-5.72904
-5.72904
-5.72904
-5.72905
-5.72905
-5.72905
-5.72906
-5.72906
-5.72907
-5.72907
-5.72908
-5.72908
-5.72908
-5.72909
-5.72909
-5.72909
-5.72909
-5.72909
-5.72908
-5.72906
-5.73205
)
;
    }
    defaultFaces
    {
        type            empty;
    }
}


// ************************************************************************* //
