/*--------------------------------*- C++ -*----------------------------------*\
  =========                 |
  \\      /  F ield         | OpenFOAM: The Open Source CFD Toolbox
   \\    /   O peration     | Website:  https://openfoam.org
    \\  /    A nd           | Version:  9
     \\/     M anipulation  |
\*---------------------------------------------------------------------------*/
FoamFile
{
    format      ascii;
    class       volScalarField;
    location    "0.56";
    object      alpha.water;
}
// * * * * * * * * * * * * * * * * * * * * * * * * * * * * * * * * * * * * * //

dimensions      [0 0 0 0 0 0 0];

internalField   nonuniform List<scalar> 
2268
(
1
1
1
1
1
1
1
1
1
1
1
1
1
1
1
1
1
1
1
0.999197
0.959893
0.955335
0.974102
1
1
1
1
1
1
1
1
1
1
1
1
1
1
1
1
1
1
1
1
0.98713
0.955297
0.996204
1
1
1
1
1
1
1
1
1
1
1
1
1
1
1
1
1
1
1
1
0.999962
0.955319
0.99623
1
1
1
1
1
1
1
1
1
1
1
1
1
1
1
1
1
1
1
1
1
0.991154
0.998705
1
1
1
1
1
1
1
1
1
1
1
1
1
1
1
1
1
1
1
1
1
1
0.999573
1
1
1
1
1
1
1
1
1
1
1
1
1
1
1
1
1
1
1
1
1
1
0.999476
1
1
0.999999
0.999999
0.999995
0.999993
0.999994
0.999995
0.999997
0.999998
0.999999
1
1
1
1
1
1
1
1
1
1
1
0.999473
1
0.999969
0.999922
0.999894
0.999737
0.999692
0.999719
0.999776
0.99984
0.999905
0.999956
0.999978
0.999984
0.99999
0.999996
1
1
1
1
1
1
1
0.999474
8.384e-12
6.45811e-12
1.65939e-12
1.04671e-12
1.38878e-10
3.39352e-08
7.14213e-07
7.31063e-06
4.8278e-05
0.000255259
0.00112582
0.00352278
0.00804421
0.0398145
0.309677
0.624328
0.831536
0.914996
0.79224
5.63544e-11
1.10099e-10
3.54917e-12
-5.22322e-12
6.09321e-09
1.46181e-07
1.67005e-06
1.18168e-05
6.00512e-05
0.000398324
0.00441883
0.006919
0.00598144
0.00747592
0.0116796
0.148186
0.723022
0.999417
0.99563
1.70902e-09
4.36956e-10
8.86429e-12
5.52922e-11
8.99964e-09
2.24742e-07
1.80421e-06
1.18957e-05
0.000179981
0.00068109
0.000838449
0.000585499
0.00035298
0.000983808
0.00318483
0.0470259
0.674896
0.999492
0.998481
4.4775e-08
2.56832e-10
1.49591e-10
4.34916e-10
1.41479e-08
1.54856e-07
1.2086e-06
1.55139e-05
5.04985e-05
6.94967e-05
1.44245e-05
1.94546e-05
5.67456e-05
0.000185508
0.00115311
0.11457
0.971536
0.999503
0.998929
1.11943e-06
1.54143e-08
2.5683e-10
6.39338e-10
2.20534e-09
2.24993e-08
2.70539e-07
1.62037e-06
1.85284e-06
2.3646e-06
3.88524e-06
1.40391e-05
2.08122e-05
4.90625e-05
0.00072231
0.306231
0.999591
0.999522
0.999583
2.769e-05
1.04424e-05
6.39146e-10
9.96095e-10
9.96286e-10
3.76691e-09
3.07346e-08
1.14639e-07
2.52826e-07
6.2682e-07
2.13974e-06
2.79324e-05
9.1056e-05
8.56909e-05
0.000303149
0.815299
0.999623
0.999702
0.999661
0.000671448
0.00404926
0.00012042
-5.62845e-09
1.6514e-09
2.32239e-09
7.30482e-09
1.84024e-08
4.04575e-08
2.44041e-07
1.0168e-05
3.03242e-05
1.83979e-05
4.32938e-05
0.0144311
0.941116
0.99972
0.999746
0.999794
0.223786
0.0227417
2.16394e-06
-3.14869e-07
2.26045e-09
2.59655e-09
2.91521e-09
3.28358e-09
5.65497e-09
6.9101e-07
9.93425e-06
2.22238e-06
1.65658e-06
1.23424e-05
0.339786
0.970858
0.999746
0.999804
0.99982
0.75776
0.725641
0.720625
0.740113
0.777584
0.822349
0.867651
0.910005
0.94712
0.976446
0.994538
0.999038
0.999313
0.999534
0.999886
0.999965
1
1
1
1
1
1
0.999678
0.00294743
0.0121886
0.0286821
0.0481492
0.0711623
0.101507
0.142108
0.195523
0.266235
0.362393
0.493229
0.644767
0.780553
0.895963
0.975919
0.999998
1
1
1
1
1
1
0.999999
-1.80288e-11
-1.70836e-11
-1.23725e-11
-8.69081e-12
-6.20204e-12
-5.51073e-09
-1.66963e-08
-2.74942e-08
-3.02966e-08
-2.2375e-08
-7.6471e-09
0.00951201
0.0572085
0.145298
0.312466
0.600728
0.934089
1
1
1
1
1
1
-1.63461e-11
-1.83949e-11
-1.43447e-11
-1.1859e-11
-9.77767e-12
-1.42059e-08
-4.31738e-08
-7.69671e-08
-1.02571e-07
-1.11023e-07
-1.00852e-07
-1.58752e-08
2.29997e-08
1.84544e-07
4.68762e-07
0.00841528
0.0616787
0.219973
0.607524
0.982795
1
0.999999
1
-1.1651e-11
-1.24301e-11
-1.00434e-11
-8.895e-12
-7.949e-12
-1.39774e-08
-4.07255e-08
-7.18608e-08
-9.77432e-08
-1.11623e-07
-1.10879e-07
-5.19741e-08
-8.32096e-11
-8.00578e-11
-6.35196e-09
2.17586e-08
3.16093e-08
7.99617e-10
0.0174848
0.0951395
0.280989
0.620108
0.948631
-6.88315e-12
-6.97218e-12
-5.61879e-12
-5.09087e-12
-4.68395e-12
-4.65231e-09
-1.33515e-08
-2.35747e-08
-3.25557e-08
-3.83115e-08
-4.002e-08
-3.79618e-08
-3.24379e-08
-2.15039e-08
-2.00128e-12
-3.60825e-10
1.55423e-10
9.02e-11
8.15013e-11
8.12771e-11
8.14351e-11
0.0111367
0.0680798
-3.46937e-12
-3.27911e-12
-2.61842e-12
-2.33404e-12
-2.13281e-12
-1.94714e-12
-1.74586e-12
-1.48715e-12
-1.10726e-12
-4.79598e-13
-7.88906e-15
-4.52343e-11
-2.46507e-10
-4.56109e-10
-4.42127e-10
0
9.44036e-11
9.65382e-11
8.21624e-11
8.16835e-11
8.11841e-11
3.94166e-11
3.48619e-11
-1.46222e-12
-1.28099e-12
-1.02103e-12
-8.72916e-13
-7.72111e-13
-6.89804e-13
-5.99719e-13
-4.66741e-13
-2.48503e-13
1.43748e-13
1.39166e-12
4.00061e-12
8.31395e-12
1.32405e-11
1.98586e-11
4.22488e-11
9.45593e-11
1.86931e-10
2.22701e-10
2.33825e-10
2.31436e-10
2.28915e-10
2.29867e-10
-5.17453e-13
-4.29531e-13
-3.35815e-13
-2.70788e-13
-2.2681e-13
-1.9306e-13
-1.53508e-13
-8.68929e-14
9.30969e-15
4.32838e-13
1.55067e-12
3.6365e-12
6.74497e-12
1.13469e-11
1.88837e-11
3.35715e-11
6.4072e-11
1.37873e-10
2.62107e-10
2.93197e-10
2.93197e-10
2.82428e-10
2.80964e-10
-1.56269e-13
-1.28148e-13
-9.50935e-14
-7.09621e-14
-5.47165e-14
-4.28742e-14
-2.77919e-14
-2.78859e-16
6.0033e-14
1.96682e-13
4.90219e-13
9.94902e-13
1.74356e-12
2.91898e-12
5.06314e-12
9.6408e-12
2.01873e-11
4.24245e-11
7.85943e-11
1.28007e-10
1.70492e-10
2.16628e-10
2.79102e-10
-4.18407e-14
-3.51941e-14
-2.38601e-14
-1.60026e-14
-1.10653e-14
-7.51431e-15
-2.99451e-15
4.65641e-15
1.16622e-14
3.38705e-14
8.5558e-14
1.68848e-13
2.83581e-13
4.57944e-13
7.8594e-13
1.51113e-12
3.18936e-12
6.6368e-12
1.19826e-11
1.80621e-11
2.46442e-11
3.52276e-11
6.00064e-11
-1.05148e-14
-9.12348e-15
-5.46461e-15
-3.17984e-15
-1.90021e-15
-1.04263e-15
-5.02393e-17
4.79836e-16
1.86747e-15
5.66739e-15
1.33856e-14
2.40482e-14
3.70301e-14
5.57997e-14
9.23875e-14
1.7043e-13
3.1986e-13
5.76364e-13
9.71034e-13
1.48142e-12
1.81493e-12
1.79914e-12
1.51053e-12
-2.58358e-15
-2.22983e-15
-1.15541e-15
-5.69823e-16
-2.81928e-16
-1.08682e-16
4.00987e-17
9.8758e-17
3.23853e-16
8.89233e-16
1.88984e-15
3.04381e-15
4.21758e-15
5.64798e-15
7.92975e-15
1.22383e-14
1.94834e-14
2.85607e-14
3.72769e-14
4.47428e-14
4.90904e-14
4.81436e-14
4.82995e-14
-6.08927e-16
-4.96942e-16
-2.21777e-16
-9.1968e-17
-3.66025e-17
-9.30827e-18
1.94424e-18
1.49753e-17
4.67366e-17
1.1656e-16
2.18563e-16
3.13191e-16
3.87059e-16
4.3775e-16
4.59066e-16
4.7191e-16
5.05368e-16
5.79914e-16
6.66764e-16
7.08634e-16
7.65279e-16
9.61727e-16
2.35173e-15
-1.28781e-16
-9.60704e-17
-3.72736e-17
-1.30691e-17
-4.12526e-18
-6.53456e-19
3.53754e-19
1.89691e-18
5.37296e-18
1.20714e-17
1.92511e-17
2.38626e-17
2.62868e-17
2.5155e-17
1.94758e-17
1.11936e-17
5.78533e-18
5.77128e-18
6.60444e-18
8.99694e-18
2.48569e-17
1.78905e-16
1.83253e-15
-2.28542e-17
-1.53263e-17
-5.27272e-18
-1.5929e-18
-4.01708e-19
-3.98469e-20
3.56832e-20
1.85261e-19
4.85617e-19
9.57997e-19
1.27454e-18
1.42503e-18
1.36336e-18
1.03979e-18
5.73144e-19
2.08017e-19
1.12767e-19
1.25781e-19
1.85269e-19
6.81874e-19
1.25926e-17
1.92713e-16
2.96869e-15
-3.1916e-18
-1.90559e-18
-5.96331e-19
-1.60014e-19
-3.34978e-20
-1.19088e-21
3.07707e-21
1.42516e-20
3.41396e-20
5.83646e-20
6.83257e-20
6.84363e-20
5.06612e-20
2.66431e-20
1.03165e-20
3.03662e-21
2.2486e-21
4.56766e-21
2.55803e-20
3.11471e-19
1.04811e-17
2.16271e-16
4.09915e-15
-3.10399e-19
-1.65263e-19
-4.80149e-20
-1.17334e-20
-2.16066e-21
-6.01803e-23
1.88857e-22
8.27347e-22
1.83935e-21
2.80253e-21
3.07077e-21
2.64447e-21
1.42603e-21
3.81864e-22
4.48005e-23
2.95878e-23
1.08838e-22
1.29768e-21
1.38862e-20
1.76384e-19
7.19732e-18
2.17055e-16
5.18451e-15
-1.564e-20
-7.49102e-21
-2.05182e-21
-4.62753e-22
-7.5673e-23
1.09691e-24
9.35179e-24
3.49201e-23
7.37151e-23
1.04481e-22
1.09582e-22
8.3979e-23
3.81217e-23
7.84384e-24
8.50089e-25
2.22457e-24
3.54251e-23
5.8119e-22
6.77968e-21
8.58912e-20
4.1137e-18
1.92167e-16
5.81963e-15
0
-6.51099e-44
4.82985e-28
4.70547e-26
2.58047e-25
2.52656e-25
2.49725e-25
9.75385e-25
1.98684e-24
2.68598e-24
2.70461e-24
1.86508e-24
7.05748e-25
1.03857e-25
3.26708e-26
5.08799e-25
1.13507e-23
1.94578e-22
2.79015e-21
3.87008e-20
1.92215e-18
1.38786e-16
5.92918e-15
1.32346e-34
3.93443e-36
2.71013e-31
1.8403e-29
1.11139e-28
6.08537e-28
4.44864e-27
1.45075e-26
2.71306e-26
3.43363e-26
3.22861e-26
1.99387e-26
6.21959e-27
7.77962e-28
4.6741e-27
1.30911e-25
2.9999e-24
6.0895e-23
1.0587e-21
1.65609e-20
7.65186e-19
8.58562e-17
4.5289e-15
8.74187e-44
-8.60161e-38
6.2615e-33
6.51093e-31
4.66085e-30
1.53456e-29
4.29343e-29
6.59719e-29
5.6163e-29
2.53897e-29
4.20738e-30
2.08973e-31
6.64088e-31
2.47714e-29
9.52164e-28
2.80625e-26
7.50692e-25
1.76442e-23
3.66727e-22
6.65177e-21
2.69125e-19
4.58409e-17
3.12007e-15
7.68186e-48
1.05049e-44
3.95844e-40
8.88278e-35
2.98048e-32
4.18286e-31
1.50864e-30
2.41068e-30
2.0518e-30
9.14031e-31
1.43091e-31
7.15659e-33
1.17508e-31
5.07849e-30
1.73683e-28
5.72985e-27
1.70806e-25
4.62221e-24
1.12794e-22
2.43911e-21
8.665e-20
2.14862e-17
1.87379e-15
1.37765e-53
2.93127e-53
6.09796e-44
1.46579e-38
4.28472e-36
4.76908e-35
1.09695e-34
1.06458e-34
4.69637e-35
1.36525e-35
1.33498e-35
2.63045e-34
1.5534e-32
6.93544e-31
2.86383e-29
1.05227e-27
3.53866e-26
1.10504e-24
3.14888e-23
7.89732e-22
2.84041e-20
9.28908e-18
1.0017e-15
1.33629e-53
4.54569e-56
4.36255e-53
4.6762e-50
4.3224e-46
2.23517e-41
2.50031e-39
2.10354e-38
6.29895e-38
1.16697e-37
6.34724e-37
3.84985e-35
1.9428e-33
9.7283e-32
4.30053e-30
1.78134e-28
6.84388e-27
2.47659e-25
8.12082e-24
2.35874e-22
1.07523e-20
4.50173e-18
4.94455e-16
7.34321e-55
1.1675e-55
7.26524e-56
4.61292e-53
4.49474e-50
8.5891e-45
4.89968e-42
8.15472e-41
3.10875e-40
1.84515e-39
6.70464e-38
3.82386e-36
2.25343e-34
1.20947e-32
5.99627e-31
2.83432e-29
1.26095e-27
5.26092e-26
1.97432e-24
7.05836e-23
5.74265e-21
3.22418e-18
2.29168e-16
2.24995e-56
2.80509e-57
3.21199e-57
6.17887e-53
1.74899e-50
7.95242e-49
8.26485e-47
7.29474e-45
1.99408e-42
1.78173e-40
6.16083e-39
3.76993e-37
2.35465e-35
1.39498e-33
7.79752e-32
4.25458e-30
2.20805e-28
1.06114e-26
4.67063e-25
2.18763e-23
4.19123e-21
2.0632e-18
1.07268e-16
1.90965e-58
3.80308e-59
3.80194e-57
1.67187e-54
3.45904e-52
6.92619e-50
8.12023e-48
8.29377e-46
1.54024e-43
1.09453e-41
4.3522e-40
3.28053e-38
2.21108e-36
1.47309e-34
9.39395e-33
5.98046e-31
3.67089e-29
2.09997e-27
1.12664e-25
7.28749e-24
2.81141e-21
1.09093e-18
5.48875e-17
3.64647e-60
7.61117e-61
3.09853e-58
8.67848e-56
2.12156e-53
3.25715e-51
4.31405e-49
4.55446e-47
3.89088e-45
3.31805e-43
3.34454e-41
2.51918e-39
1.88173e-37
1.40075e-35
1.04239e-33
8.05017e-32
6.2016e-30
4.62881e-28
3.36529e-26
3.15086e-24
1.58176e-21
5.55084e-19
3.29605e-17
4.72335e-62
1.27098e-62
1.25331e-59
2.92599e-57
7.66706e-55
1.36199e-52
1.99186e-50
2.37675e-48
2.74031e-46
2.49088e-44
2.03692e-42
1.70521e-40
1.39167e-38
1.15079e-36
1.03317e-34
1.05162e-32
1.12904e-30
1.30076e-28
1.43027e-26
1.74874e-24
8.26408e-22
3.10536e-19
2.04012e-17
4.87423e-64
2.1896e-64
1.34453e-61
8.39747e-59
2.48122e-56
4.64632e-54
7.52669e-52
9.78585e-50
1.10258e-47
1.07342e-45
9.91963e-44
8.18807e-42
5.95388e-40
3.51632e-38
3.12853e-36
6.93867e-34
1.55745e-31
3.16605e-29
4.70244e-27
6.90479e-25
4.4195e-22
1.82082e-19
9.7656e-18
4.19543e-66
2.60292e-66
3.71907e-63
1.86524e-60
6.04887e-58
1.29595e-55
2.18677e-53
3.13452e-51
4.0453e-49
2.67997e-47
1.57391e-46
4.02595e-44
1.16316e-41
2.97084e-39
6.73861e-37
1.36178e-34
2.46835e-32
4.03286e-30
5.92308e-28
8.53936e-26
2.17423e-22
8.47731e-20
3.2477e-18
2.62429e-68
3.0111e-68
5.40741e-65
3.29289e-62
1.11646e-59
2.6608e-57
5.70943e-55
4.81969e-53
2.14767e-52
7.41175e-50
3.0249e-47
1.06612e-44
3.27057e-42
8.79717e-40
2.08594e-37
4.38003e-35
8.17657e-33
1.3617e-30
2.0121e-28
2.86483e-26
7.44617e-23
2.53538e-20
7.53937e-19
1.0387e-70
1.77021e-70
5.8311e-67
3.93476e-64
1.4728e-61
4.05328e-59
1.90277e-57
2.79744e-56
1.52165e-53
7.78733e-51
3.41502e-48
1.29408e-45
4.26317e-43
1.22698e-40
3.09796e-38
6.8861e-36
1.3514e-33
2.34701e-31
3.58211e-29
5.22026e-27
1.33169e-23
4.35021e-21
1.2786e-19
3.6085e-73
1.38495e-74
3.03969e-69
2.75314e-66
1.38613e-63
7.95938e-62
1.44773e-60
1.01453e-57
6.59354e-55
3.66565e-52
1.75555e-49
7.27795e-47
2.62178e-44
8.23421e-42
2.26144e-39
5.44514e-37
1.15182e-34
2.14346e-32
3.48228e-30
5.15995e-28
9.01927e-25
4.45565e-22
2.02152e-20
3.332e-75
2.23325e-76
2.30943e-72
7.20407e-69
7.12132e-68
3.2485e-65
3.07043e-62
2.51648e-59
1.78503e-56
1.09817e-53
5.86354e-51
2.71936e-48
1.0969e-45
3.85498e-43
1.18271e-40
3.17336e-38
7.45693e-36
1.53571e-33
2.76371e-31
4.341e-29
1.22277e-26
3.65408e-23
3.61434e-21
8.81524e-78
2.27231e-78
2.22931e-76
3.35493e-73
4.09434e-70
4.42328e-67
4.33662e-64
3.84263e-61
3.04019e-58
2.12362e-55
1.29963e-52
6.94035e-50
3.22977e-47
1.31009e-44
4.63683e-42
1.43377e-39
3.877e-37
9.17074e-35
1.89636e-32
3.39468e-30
7.52206e-28
3.61198e-24
4.68423e-22
2.72931e-84
1.55602e-81
1.56895e-78
1.40242e-75
1.42298e-72
1.58906e-69
1.83199e-66
2.04462e-63
2.10532e-60
1.94082e-57
1.4641e-54
9.37364e-52
5.23632e-49
2.55228e-46
1.08592e-43
4.03686e-41
1.31223e-38
3.73056e-36
9.21494e-34
2.04892e-31
6.8856e-28
4.96565e-25
3.0932e-23
1.14912e-88
6.62641e-86
4.23567e-83
3.4718e-80
3.73444e-77
4.95798e-74
7.3528e-71
1.10496e-67
1.56618e-64
2.00623e-61
2.2733e-58
2.25825e-55
1.96148e-52
1.48999e-49
9.91087e-47
5.78032e-44
2.95847e-41
1.32868e-38
5.20729e-36
2.10438e-33
3.14913e-29
1.50645e-26
4.22955e-25
8.98097e-95
3.59594e-92
1.92942e-89
1.67474e-86
2.28788e-83
4.38458e-80
1.01969e-76
2.51009e-73
5.92998e-70
1.27229e-66
2.41587e-63
4.02017e-60
5.84904e-57
7.44646e-54
8.3115e-51
8.15025e-48
7.03317e-45
5.34587e-42
3.56957e-39
3.61398e-36
1.86814e-31
8.77336e-29
2.85384e-27
2.13982e-104
4.20169e-103
1.87467e-102
-7.05705e-97
-4.65778e-94
-2.90496e-91
-2.70181e-88
-3.79311e-85
-7.34627e-82
-1.71306e-78
-4.20215e-75
-9.8172e-72
-2.05478e-68
-3.71757e-65
-5.60855e-62
-6.53199e-59
-4.18046e-56
9.02841e-53
4.74574e-49
1.83978e-38
9.31224e-34
8.95753e-32
5.0229e-31
1.99898e-104
3.97817e-103
1.7583e-102
3.0295e-119
5.15666e-116
-2.14579e-112
-1.28251e-103
3.03703e-101
1.37947e-96
6.77189e-93
1.06883e-88
2.42906e-85
2.2041e-81
1.42082e-77
3.0363e-74
-3.3712e-71
-1.28581e-67
-4.26808e-64
-1.24095e-60
2.30208e-49
7.90827e-43
2.0172e-39
3.54856e-38
0.999594
0.999595
0.999718
0.999993
1
0.999736
0.999848
0.999998
1
0.999995
0.999994
0.999998
0.999997
1
1
1
0.996466
0.998158
0.99944
0.999933
0.148462
0.221034
0.294672
0.425344
3.3357e-11
3.29503e-11
3.30073e-11
0.000467797
2.28129e-10
1.93862e-10
4.889e-11
2.04203e-11
2.83859e-10
2.87434e-10
2.83572e-10
2.60477e-10
3.29952e-10
3.59e-10
3.61182e-10
3.50822e-10
9.12797e-11
1.23726e-10
1.81663e-10
2.8404e-10
1.01206e-12
3.76157e-13
6.95316e-14
7.16127e-14
5.02224e-14
5.58721e-14
6.94319e-14
8.67731e-14
4.81163e-15
7.95352e-15
1.3536e-14
2.21155e-14
4.93976e-15
9.47044e-15
1.84007e-14
3.29299e-14
8.28866e-15
1.59121e-14
3.05602e-14
5.44762e-14
1.15516e-14
2.23243e-14
4.29692e-14
7.71796e-14
1.48598e-14
2.89769e-14
5.65359e-14
1.01633e-13
1.70076e-14
3.34885e-14
6.68932e-14
1.16935e-13
1.75582e-14
3.4883e-14
7.08413e-14
1.20742e-13
1.39013e-14
2.85172e-14
6.10329e-14
1.13098e-13
9.81978e-15
2.039e-14
4.79989e-14
1.02994e-13
6.15277e-15
1.34526e-14
3.82301e-14
9.85721e-14
3.51319e-15
8.68272e-15
3.16072e-14
9.35295e-14
1.9507e-15
5.94254e-15
2.74603e-14
8.20731e-14
1.0861e-15
4.39212e-15
2.34569e-14
6.06073e-14
6.32219e-16
3.49027e-15
1.66039e-14
3.41546e-14
4.31996e-16
2.71623e-15
8.26902e-15
1.25213e-14
3.24137e-16
1.53601e-15
2.87122e-15
2.76067e-15
1.85197e-16
5.35114e-16
7.12878e-16
4.21762e-16
6.45559e-17
1.29767e-16
1.62916e-16
1.64245e-16
1.62101e-17
2.86092e-17
3.81346e-17
4.04677e-17
3.338e-18
7.57436e-18
1.74297e-17
3.18329e-17
6.55972e-19
3.94578e-18
1.8615e-17
3.09924e-17
1.57512e-19
2.91344e-18
1.9822e-17
3.65544e-17
3.9196e-20
1.49113e-18
1.31826e-17
2.78034e-17
4.63108e-21
2.98868e-19
3.62188e-18
9.10682e-18
1.69099e-22
2.36652e-20
4.88624e-19
1.65248e-18
7.05293e-25
2.82981e-22
1.21788e-20
6.19884e-20
3.9889e-27
5.32376e-24
9.21315e-23
7.49435e-24
1.26354e-38
6.70876e-36
3.41273e-33
1.58966e-30
6.55232e-42
2.18888e-52
1.63474e-46
-2.11652e-40
0.769117
0.00872432
2.65645e-06
7.1172e-08
-8.31732e-10
2.87153e-09
2.4656e-09
2.0613e-09
3.28556e-09
8.98408e-07
1.2263e-06
6.56705e-07
7.17369e-07
0.0100421
0.725348
0.999422
0.999761
0.999763
0.96708
0.958605
0.127364
3.11107e-06
2.64757e-08
-7.31209e-09
2.42749e-09
1.8538e-09
2.05879e-09
2.73307e-09
1.8823e-07
2.26641e-08
3.98607e-08
-2.21628e-06
0.423158
0.991684
0.999682
0.999761
0.999761
0.844081
1
0.792475
0.0331441
1.2447e-06
1.44634e-07
-7.34454e-08
-1.76445e-08
1.27661e-09
4.03092e-09
1.11595e-08
1.94133e-08
9.8687e-09
0.101059
0.848638
0.997957
0.999251
0.999721
0.999764
0.836007
1
1
0.786934
0.267215
1.79087e-05
-3.30045e-07
2.05188e-08
9.98945e-09
6.72537e-09
1.51104e-08
2.35347e-08
6.79034e-09
0.572923
0.988289
0.991287
0.997592
0.999393
0.999721
0.835067
1
0.999996
0.99999
0.959121
0.661357
0.24654
1.16806e-05
9.52189e-07
9.78988e-08
2.90921e-08
2.63566e-08
0.438508
0.973032
0.985052
0.976787
0.859451
0.895438
0.99022
0.833351
0.824119
0.99999
0.999744
0.999499
0.998799
0.952697
0.726558
0.387609
0.269345
0.32632
0.631986
0.969121
0.979754
0.96133
0.586432
0.401759
0.766385
0.987581
0.833024
0.0276427
0.157966
0.43858
0.758762
0.964734
0.963956
0.963372
0.95698
0.941635
0.968785
0.982187
0.982187
0.968057
0.338781
0.34023
0.395299
0.904818
0.984023
0.833069
2.04518e-11
2.04518e-11
0.00232991
0.0527431
0.186622
0.411133
0.60269
0.730285
0.789166
0.803836
0.799296
0.696837
0.236186
0.189481
0.542992
0.903842
0.978391
0.982932
0.900899
9.89486e-11
2.37858e-11
1.12954e-11
4.71492e-06
4.45779e-05
0.000523585
0.0189877
0.0665639
0.117841
0.141875
0.147663
0.0755647
0.151542
0.766034
0.858611
0.784057
0.44295
0.694154
0.866693
1.51023e-10
2.27806e-11
1.10712e-11
1.12783e-11
3.56689e-07
2.38606e-06
1.99286e-05
0.000109281
0.000434898
0.00148585
0.00437424
0.0166935
0.396607
0.851934
0.859264
0.317405
0.0130712
0.0966179
0.64321
3.28296e-10
2.67235e-10
6.29795e-12
7.3406e-12
3.70999e-09
4.46859e-08
8.33754e-07
9.38839e-06
6.57573e-05
0.000320271
0.00126219
0.0102363
0.110106
0.583222
0.851409
0.226479
0.0118263
0.0117944
0.0943042
8.75754e-14
1.58146e-13
2.95881e-13
4.22706e-13
7.95264e-11
2.9767e-09
4.89318e-08
8.71878e-07
9.33902e-06
6.56714e-05
0.000547777
0.00425234
0.00486795
0.22952
0.64609
0.427277
0.0612249
0.0118018
0.0118001
1.29837e-13
2.51043e-13
5.64486e-13
5.68379e-13
2.04702e-12
8.48251e-11
2.95957e-09
8.6574e-08
1.34427e-06
1.32447e-05
0.000164516
0.000317689
0.000644985
0.0600587
0.40317
0.475166
0.298144
0.0117925
0.0118051
5.66874e-14
2.06765e-13
6.4603e-13
1.3583e-12
2.69334e-12
8.02248e-12
2.91788e-10
1.13316e-08
2.19545e-07
6.80814e-06
1.62892e-05
1.44139e-05
0.000115111
0.000347704
0.193945
0.475166
0.347508
0.0118047
0.0118183
9.77085e-14
3.53869e-13
1.03406e-12
2.4813e-12
5.93946e-12
8.39538e-12
4.67792e-11
1.26427e-09
4.31638e-08
6.46574e-07
1.4334e-06
2.39892e-06
4.79691e-05
5.82305e-06
0.0378705
0.391978
0.372512
0.0119536
0.0118187
1.56987e-13
5.60428e-13
1.72329e-12
4.65944e-12
1.14917e-11
1.78089e-11
2.28465e-11
1.80771e-10
4.8981e-09
6.6261e-08
1.90862e-07
1.19448e-07
5.62949e-06
4.29851e-07
5.34684e-06
0.000241016
0.309649
0.104958
0.0119634
2.15706e-13
7.94747e-13
2.83818e-12
8.58949e-12
2.43121e-11
3.34809e-11
3.19461e-11
5.06736e-11
6.40222e-10
8.84347e-09
2.37878e-08
2.31419e-08
1.43817e-08
-4.2983e-09
3.07287e-07
0.000440469
0.0809811
0.31315
0.171662
2.83581e-13
1.17413e-12
5.35603e-12
1.79216e-11
5.01946e-11
7.23793e-11
5.57648e-11
6.45266e-11
1.38698e-10
1.14438e-09
3.12222e-09
3.44793e-09
1.04935e-08
7.81246e-09
8.04816e-09
1.53859e-07
0.00163587
0.316845
0.316696
4.29754e-13
1.79799e-12
9.10673e-12
3.85016e-11
1.0621e-10
1.81357e-10
1.05239e-10
9.98008e-11
1.07228e-10
2.22301e-10
6.56207e-10
2.89834e-09
8.35177e-09
7.08913e-09
-1.29241e-08
1.52429e-07
0.000154291
0.245572
0.316853
1.15401e-12
3.41759e-12
1.30659e-11
6.1469e-11
2.02935e-10
4.35292e-10
2.61686e-10
1.38372e-10
1.35179e-10
1.45105e-10
2.22683e-10
9.85336e-09
1.29433e-08
7.08237e-09
2.41509e-08
2.40681e-06
3.98572e-05
0.0229563
0.316679
2.40233e-12
6.07305e-12
1.78953e-11
7.57168e-11
2.82623e-10
7.75839e-10
6.02959e-10
2.28132e-10
1.72258e-10
1.64778e-10
9.16744e-09
1.99405e-08
1.3207e-08
4.03201e-08
8.41512e-06
3.42067e-05
0.000402929
0.0208784
0.309613
2.76022e-12
7.33661e-12
1.99751e-11
9.65683e-11
3.49792e-10
1.03468e-09
1.18979e-09
2.98517e-10
7.30434e-10
1.1298e-08
2.0693e-08
1.96315e-08
-3.93691e-09
2.59213e-06
0.000310942
0.00157803
0.0325513
0.164372
0.273923
1.58956e-12
6.93128e-12
1.62626e-11
1.4897e-10
5.11643e-10
1.325e-09
1.37234e-09
3.31435e-10
3.34412e-09
1.8493e-08
1.67686e-08
1.49939e-08
2.57402e-08
4.71606e-06
0.000636078
0.0375574
0.12723
0.232027
0.231085
7.76549e-13
7.95804e-12
9.51316e-12
2.6042e-10
9.25526e-10
1.43463e-09
1.37871e-09
4.42093e-10
4.07205e-09
1.8487e-08
1.30341e-08
1.31796e-08
2.9705e-08
3.66522e-05
0.000554118
0.0800533
0.133282
0.0919994
0.086799
5.06302e-13
8.29342e-12
8.28873e-12
4.8694e-10
1.18072e-09
1.43463e-09
9.88667e-10
5.65315e-10
2.95615e-09
1.70752e-08
1.31541e-08
4.07765e-08
4.55843e-08
0.000114105
0.000140107
0.0422793
0.133192
0.030583
0.030663
3.30361e-13
5.48165e-12
8.66171e-12
4.64908e-10
1.05801e-09
1.28569e-09
5.70857e-10
5.66813e-10
9.06456e-10
9.20133e-09
4.62988e-07
4.64975e-07
4.37242e-06
0.000114639
5.47553e-06
4.52762e-06
0.0865314
0.0315859
0.0305784
2.22008e-13
2.04235e-12
1.2526e-11
2.33384e-10
7.4753e-10
8.48787e-10
5.77307e-10
5.70857e-10
5.77307e-10
7.23559e-09
1.04132e-06
4.76166e-07
4.52271e-05
3.5584e-05
1.43177e-06
1.99712e-06
0.0376619
0.147447
0.0306815
1.31326e-13
8.9378e-13
1.4117e-11
4.06429e-11
1.06391e-09
7.95748e-10
4.5769e-07
5.77283e-10
6.07494e-10
6.70909e-10
1.03977e-06
7.29193e-07
4.72748e-05
1.4194e-05
1.08648e-06
1.30259e-06
0.0812143
0.165057
0.0402137
6.24698e-14
6.50914e-13
1.14004e-11
1.13809e-11
2.83036e-09
7.94233e-10
1.01946e-06
4.56331e-07
7.34998e-09
1.55969e-09
1.52575e-07
1.63751e-07
4.72304e-05
7.22514e-06
1.0137e-06
1.05591e-06
0.153083
0.165248
0.0591801
2.59926e-14
2.14042e-13
3.82101e-12
6.46924e-11
3.36087e-09
8.4425e-10
1.02025e-06
3.92865e-07
8.88301e-08
5.25984e-07
8.98195e-08
2.05305e-05
2.26394e-05
1.71826e-06
9.99801e-07
0.0332919
0.165248
0.165248
0.0813346
1.09687e-14
9.50202e-14
8.67173e-13
7.32597e-11
2.98491e-09
8.30051e-10
8.04412e-07
9.84116e-08
9.62857e-08
4.94876e-07
6.51202e-06
2.95385e-05
2.18555e-05
1.15293e-06
9.84111e-07
0.0725812
0.165223
0.165248
0.0852956
7.33326e-15
8.40734e-14
5.13796e-13
3.28765e-11
1.3412e-09
1.18967e-09
4.49464e-08
1.66544e-06
1.31144e-07
1.35007e-07
8.08646e-06
2.95038e-05
2.31514e-05
1.2587e-06
9.21915e-07
0.00519814
0.152062
0.165223
0.0825716
8.56757e-15
1.21858e-13
6.88703e-13
6.38025e-12
3.11236e-10
1.73393e-09
1.53918e-08
3.31683e-06
1.7965e-07
1.44051e-07
1.33203e-06
1.53489e-05
6.96795e-06
9.60517e-07
8.67905e-07
8.38805e-07
0.0357001
0.164815
0.0802766
1.85498e-14
5.71043e-13
3.15104e-12
7.19645e-12
4.20618e-11
1.64439e-09
3.91994e-10
1.99939e-06
2.01812e-07
1.46832e-07
1.59861e-07
2.43325e-07
6.22723e-07
9.33651e-07
8.83265e-07
7.50687e-07
2.35797e-07
0.137634
0.0799653
1.41951e-14
1.22799e-12
1.74105e-11
4.69245e-11
5.82599e-11
7.06288e-10
3.47363e-10
3.92997e-10
3.05196e-05
7.6292e-05
9.74346e-05
9.40272e-05
0.00010566
9.44608e-05
3.44301e-05
8.45665e-07
2.35797e-07
0.0190476
0.097123
7.10093e-15
1.08279e-12
3.87957e-11
2.33091e-10
3.55156e-10
3.47442e-10
3.47558e-10
3.47558e-10
1.63211e-05
0.000143097
0.0001454
0.000147426
0.000148387
0.000148481
0.000116498
4.22031e-06
2.35797e-07
4.06403e-07
0.0970591
1.92453e-15
3.931e-13
2.20941e-11
2.54837e-10
7.63072e-10
7.51858e-10
1.44517e-09
5.13426e-10
5.13085e-08
3.14689e-05
9.78652e-05
0.000148387
0.000148464
0.000148387
7.93601e-05
5.32638e-07
3.01824e-07
1.79663e-05
0.0336507
2.93777e-16
1.07159e-13
7.35373e-12
1.13346e-10
5.18853e-10
8.9246e-10
1.6159e-09
4.69548e-10
4.52813e-10
5.16128e-08
1.87219e-06
3.424e-05
5.70346e-05
3.65378e-05
8.65778e-06
4.78523e-06
1.23456e-06
2.9135e-08
5.84026e-07
5.13507e-18
5.45591e-15
8.97018e-13
2.20807e-11
1.44192e-10
4.40697e-10
8.35565e-10
4.19085e-10
2.96012e-10
2.60442e-09
6.91032e-09
2.62074e-08
2.84114e-08
2.55915e-07
1.11131e-07
2.16436e-07
3.32549e-07
4.23057e-09
0.000419679
4.16698e-21
2.11349e-16
8.73214e-14
3.1979e-12
2.17459e-11
6.55751e-11
1.28602e-10
2.42857e-10
1.89785e-10
1.06303e-10
1.71979e-10
3.89919e-10
2.34431e-09
3.91918e-09
5.23206e-09
3.98813e-09
4.32396e-10
2.63256e-09
0.00232023
5.13677e-27
2.87784e-21
3.02916e-17
6.12595e-15
1.94388e-13
1.25303e-12
5.53012e-12
3.41597e-11
4.79769e-11
4.04277e-11
2.60539e-11
1.56433e-11
6.69511e-12
1.29579e-09
6.02154e-09
3.89049e-09
1.19013e-10
8.82068e-07
0.00233395
-4.35178e-38
-1.93032e-35
2.13374e-25
8.65789e-20
2.90558e-17
1.10872e-15
2.12546e-14
4.42185e-13
1.52802e-12
2.25606e-12
3.67386e-12
6.81783e-12
5.9951e-13
6.71969e-09
8.69014e-09
6.05054e-09
-9.68524e-21
0
0.00160431
)
;

boundaryField
{
    leftWall
    {
        type            zeroGradient;
    }
    rightWall
    {
        type            zeroGradient;
    }
    lowerWall
    {
        type            zeroGradient;
    }
    atmosphere
    {
        type            inletOutlet;
        inletValue      uniform 0;
        value           nonuniform List<scalar> 
46
(
0
0
0
0
0
0
0
0
0
0
0
0
0
0
0
0
0
0
0
0
0
0
0
0
0
0
0
0
0
0
0
2.90558e-17
1.10872e-15
2.12546e-14
4.42185e-13
1.52802e-12
2.25606e-12
3.67386e-12
6.81783e-12
5.9951e-13
0
0
0
0
0
0.00160431
)
;
    }
    defaultFaces
    {
        type            empty;
    }
}


// ************************************************************************* //
