/*--------------------------------*- C++ -*----------------------------------*\
  =========                 |
  \\      /  F ield         | OpenFOAM: The Open Source CFD Toolbox
   \\    /   O peration     | Website:  https://openfoam.org
    \\  /    A nd           | Version:  9
     \\/     M anipulation  |
\*---------------------------------------------------------------------------*/
FoamFile
{
    format      ascii;
    class       volScalarField;
    location    "0.56";
    object      p_rgh;
}
// * * * * * * * * * * * * * * * * * * * * * * * * * * * * * * * * * * * * * //

dimensions      [1 -1 -2 0 0 0 0];

internalField   nonuniform List<scalar> 
2268
(
575.01
573.358
578.5
587.68
599.123
611.667
625.099
639.589
655.23
672.121
690.268
709.6
730.026
751.472
773.9
797.284
821.537
846.364
870.998
893.927
908.63
914.747
933.509
574.901
572.409
576.639
585.273
596.275
608.64
622.109
636.724
652.55
669.658
688.054
707.678
728.461
750.357
773.354
797.519
822.816
849.017
875.191
898.893
914.516
911.164
932.111
573.661
571.393
575.707
583.55
593.906
605.886
619.207
633.824
649.76
667.056
685.71
705.663
726.863
749.286
772.947
797.906
824.124
851.227
878.151
902.084
919.268
911.622
933.456
572.298
570.428
575.085
582.4
592.169
603.72
616.788
631.302
647.261
664.693
683.584
703.854
725.452
748.366
772.613
798.2
825.017
852.543
879.657
903.514
920.925
921.58
938.97
571.255
570.048
574.663
581.595
590.841
601.95
614.707
629.045
644.964
662.492
681.602
702.168
724.132
747.487
772.257
798.382
825.645
853.394
880.553
904.45
922.313
928.945
947.573
570.43
570.392
574.358
580.891
589.635
600.281
612.688
626.809
642.655
660.265
679.597
700.451
722.756
746.523
771.805
798.477
826.196
854.168
881.456
905.616
924.105
935.284
957.612
569.53
570.144
573.709
579.877
588.156
598.351
610.414
624.321
640.109
657.851
677.476
698.646
721.278
745.432
771.238
798.508
826.764
855.036
882.607
907.233
926.409
941.723
968.143
568.391
568.582
571.611
577.479
585.43
595.344
607.184
620.955
636.787
654.865
675.052
696.708
719.726
744.273
770.601
798.49
827.322
855.995
884.013
909.262
929.113
945.931
977.18
417.228
417.206
417.137
417.058
416.913
416.666
416.326
415.928
415.508
415.04
414.583
414.64
418.461
426.272
420.986
573.466
1694
3065.13
3190.06
417.218
417.198
417.147
417.087
416.952
416.703
416.354
415.953
415.537
415.05
414.625
413.512
411.991
409.116
397.052
475.1
1275.16
2642.41
2990.97
417.211
417.212
417.168
417.099
416.948
416.677
416.311
415.91
415.523
415.068
414.148
413.068
412.477
410.647
405.807
466.177
1062.44
2278.82
2732.42
417.209
417.245
417.196
417.09
416.9
416.597
416.215
415.808
415.377
414.758
413.816
413.039
412.769
411.749
412.373
479.265
1087.73
2019.36
2481.07
417.217
417.295
417.229
417.061
416.83
416.499
416.103
415.677
415.207
414.578
413.767
413.155
412.994
412.588
418.286
536.338
1152.91
1834.09
2262.54
417.241
417.343
417.249
417.008
416.749
416.399
415.993
415.556
415.079
414.492
413.81
413.328
413.257
413.038
421.016
725.732
1209.25
1710.69
2092.94
417.396
418.821
417.22
416.922
416.661
416.304
415.893
415.455
414.987
414.454
413.892
413.511
413.395
413.211
425.279
847.831
1245.35
1638
1963.23
509.162
426.605
416.971
416.811
416.572
416.218
415.809
415.377
414.928
414.452
413.991
413.691
413.558
413.425
567.196
949.422
1274.39
1593.59
1872.31
452.5
434.096
433.929
448.955
474.792
505.814
538.74
572.094
605.252
637.601
667.404
692.254
716.318
741.794
769.279
798.307
828.109
857.48
886.428
912.987
934.229
948.963
959.28
2.75619
9.36959
21.1792
35.2241
51.8584
73.7771
103.095
141.703
192.925
262.783
358.11
470.377
576.33
671.967
750.099
797.182
830.126
859.918
890.826
921.034
946.98
969.646
993.697
0.562471
0.558102
0.541596
0.543851
0.558578
0.569709
0.572148
0.569508
0.567227
0.572469
0.621054
8.86826
49.2781
123.839
264.734
507.39
790.07
864.433
896.855
930.981
958.886
985.44
1011.91
0.530346
0.525407
0.527133
0.530928
0.534706
0.536746
0.536746
0.535554
0.534812
0.538617
0.556397
0.582712
0.565451
0.51
0.475754
8.58106
59.4831
210.275
578.243
939.709
976.118
1002.7
1032.42
0.508565
0.506957
0.508099
0.511793
0.515232
0.517793
0.519317
0.520218
0.521568
0.52485
0.528168
0.519225
0.502754
0.494537
0.502868
0.502273
0.41114
0.234754
18.7649
102.019
301.653
667.323
1024.93
0.492102
0.491197
0.491472
0.493596
0.496116
0.498347
0.500024
0.5013
0.502668
0.504555
0.505738
0.501247
0.490907
0.481355
0.4752
0.464634
0.451416
0.451228
0.396813
0.22833
0.073614
13.3151
81.8093
0.474619
0.474168
0.474379
0.47574
0.477422
0.479004
0.480296
0.481301
0.482131
0.482786
0.482578
0.47938
0.472237
0.463
0.452823
0.438896
0.42008
0.402296
0.399571
0.391843
0.38077
0.346185
0.288046
0.458332
0.457812
0.457754
0.458435
0.459399
0.460372
0.4612
0.461802
0.462117
0.461974
0.460858
0.457722
0.452018
0.444517
0.435431
0.423567
0.407977
0.392126
0.377272
0.361572
0.355281
0.368639
0.381863
0.442235
0.441592
0.441246
0.441441
0.441883
0.442377
0.442789
0.443011
0.44292
0.442317
0.440824
0.437881
0.43322
0.427079
0.419544
0.41008
0.398524
0.385991
0.372796
0.359096
0.350724
0.352094
0.352953
0.426492
0.425576
0.424921
0.42475
0.424811
0.424937
0.42501
0.424917
0.42453
0.423672
0.42208
0.419436
0.415569
0.410525
0.404331
0.396845
0.388142
0.378836
0.369415
0.360312
0.353833
0.35143
0.350844
0.411077
0.409859
0.408895
0.408422
0.408193
0.408038
0.407848
0.407518
0.406932
0.405948
0.404386
0.402054
0.398839
0.394732
0.389747
0.383884
0.377282
0.370361
0.363596
0.357464
0.352999
0.35077
0.350117
0.395977
0.394486
0.39324
0.392513
0.392053
0.391681
0.391291
0.390792
0.390085
0.389059
0.38759
0.38556
0.382894
0.379579
0.375633
0.371102
0.366124
0.360993
0.356077
0.351793
0.348736
0.347209
0.346917
0.381159
0.379462
0.37799
0.37705
0.376399
0.375855
0.375316
0.3747
0.373925
0.372907
0.371561
0.369811
0.36761
0.364953
0.361863
0.3584
0.354687
0.350936
0.347424
0.344475
0.342479
0.341657
0.341925
0.366581
0.364767
0.363139
0.36203
0.361222
0.360539
0.359886
0.359189
0.358381
0.357399
0.356181
0.354681
0.35287
0.35075
0.348351
0.345731
0.342996
0.340307
0.337873
0.335945
0.334811
0.334669
0.335574
0.352201
0.350361
0.348652
0.347424
0.346492
0.345698
0.344955
0.344202
0.343381
0.342444
0.341348
0.340062
0.338572
0.336885
0.335031
0.333066
0.331078
0.329194
0.327575
0.326422
0.325968
0.326416
0.327894
0.337988
0.336199
0.334484
0.333185
0.332163
0.331282
0.33047
0.329675
0.328852
0.327961
0.326971
0.325863
0.324631
0.323284
0.32185
0.320381
0.31895
0.317657
0.316632
0.316036
0.316076
0.316953
0.318836
0.323918
0.322242
0.320581
0.319258
0.318178
0.317235
0.31637
0.315543
0.314719
0.313867
0.312965
0.312
0.310968
0.30988
0.308761
0.307653
0.306617
0.305732
0.305104
0.304866
0.305199
0.306301
0.308352
0.309979
0.308456
0.306895
0.305588
0.30448
0.303495
0.302591
0.301739
0.300912
0.300089
0.299252
0.298392
0.297508
0.296608
0.295709
0.294847
0.294066
0.29343
0.29302
0.292948
0.293369
0.294467
0.296411
0.296162
0.294815
0.293382
0.292122
0.291012
0.290004
0.289073
0.288201
0.287368
0.286559
0.285762
0.284971
0.284184
0.283404
0.282643
0.281922
0.281274
0.280744
0.280391
0.280302
0.280608
0.281466
0.283021
0.282463
0.281297
0.280008
0.278814
0.277722
0.276708
0.275762
0.274873
0.274029
0.273221
0.272441
0.271683
0.270944
0.270221
0.26952
0.268849
0.268225
0.267673
0.267231
0.26696
0.266959
0.267357
0.268255
0.268882
0.267888
0.266743
0.265627
0.264567
0.263561
0.262608
0.261707
0.26085
0.260032
0.259247
0.258489
0.257753
0.257032
0.256322
0.255619
0.254923
0.25424
0.253584
0.252986
0.252514
0.252259
0.252272
0.255414
0.254575
0.253567
0.252531
0.251513
0.250524
0.249574
0.248664
0.247794
0.246958
0.246151
0.245367
0.244597
0.243831
0.243053
0.242249
0.241402
0.240498
0.239526
0.238488
0.237414
0.236356
0.23531
0.242058
0.241352
0.240465
0.239507
0.238534
0.237569
0.236628
0.235715
0.234832
0.233973
0.233133
0.232304
0.231475
0.230627
0.229739
0.228781
0.227724
0.226532
0.225171
0.22361
0.221844
0.219883
0.217665
0.22881
0.228215
0.227432
0.226543
0.225615
0.224678
0.223749
0.222838
0.221943
0.22106
0.220182
0.219299
0.218393
0.217442
0.216415
0.215272
0.213968
0.212448
0.210655
0.208528
0.206023
0.20311
0.199677
0.215667
0.215164
0.214464
0.213634
0.212747
0.211838
0.210926
0.210019
0.209117
0.208212
0.207296
0.206353
0.205366
0.204303
0.203127
0.201787
0.200222
0.198364
0.19613
0.193431
0.190189
0.186332
0.181715
0.202626
0.2022
0.201564
0.20078
0.199928
0.199047
0.198153
0.197255
0.196349
0.195427
0.194476
0.193479
0.192412
0.191242
0.189921
0.188391
0.186578
0.184398
0.181749
0.178516
0.174589
0.169864
0.164143
0.189683
0.189325
0.188733
0.187981
0.187159
0.186304
0.185432
0.184546
0.183643
0.18271
0.181732
0.180689
0.179554
0.178289
0.176842
0.175145
0.173118
0.170659
0.167652
0.163961
0.15945
0.153987
0.147331
0.176836
0.176536
0.175972
0.175241
0.174443
0.173614
0.172765
0.171897
0.171003
0.170068
0.169074
0.167999
0.166813
0.165474
0.163927
0.162102
0.159907
0.157235
0.153955
0.149915
0.144961
0.13894
0.131583
0.164078
0.163831
0.16328
0.16256
0.161783
0.16098
0.160157
0.159314
0.158437
0.157511
0.156515
0.155424
0.154207
0.15282
0.151208
0.149299
0.146998
0.144191
0.140741
0.136487
0.131263
0.124902
0.117119
0.151405
0.151206
0.150654
0.149939
0.149181
0.148406
0.147615
0.146802
0.145953
0.145048
0.144065
0.142977
0.141751
0.140346
0.138707
0.136762
0.13442
0.131564
0.128056
0.123734
0.118428
0.111965
0.104057
0.138822
0.138647
0.13809
0.137377
0.136638
0.135893
0.13514
0.134366
0.133555
0.132685
0.131732
0.130666
0.129456
0.128061
0.126433
0.124503
0.122183
0.119363
0.115909
0.111664
0.106463
0.100138
0.0924066
0.126325
0.12615
0.125584
0.12487
0.124152
0.123443
0.122734
0.122008
0.121246
0.120424
0.119516
0.118493
0.117323
0.115969
0.114386
0.112515
0.110277
0.10757
0.104271
0.100237
0.0953148
0.0893484
0.082075
0.113907
0.113702
0.113124
0.112411
0.111718
0.111052
0.110395
0.109727
0.109025
0.108264
0.107418
0.106456
0.105349
0.104063
0.102558
0.100786
0.0986786
0.0961488
0.0930891
0.0893758
0.0848776
0.0794568
0.0728808
0.10156
0.101283
0.100693
0.0999852
0.099327
0.0987134
0.0981185
0.0975178
0.0968868
0.0961995
0.0954287
0.0945465
0.0935236
0.0923296
0.0909318
0.0892903
0.0873523
0.0850478
0.0822901
0.0789798
0.0750121
0.0702753
0.0645768
0.0892695
0.0888508
0.088258
0.0875752
0.0869668
0.0864197
0.0858989
0.0853762
0.0848258
0.0842222
0.0835399
0.0827525
0.0818328
0.0807532
0.0794864
0.0780017
0.0762607
0.0742126
0.0717947
0.0689353
0.0655603
0.0615893
0.0568772
0.0770518
0.0763728
0.0757881
0.0751596
0.0746254
0.0741633
0.0737303
0.0732952
0.0728334
0.0723221
0.0717386
0.0710593
0.0702593
0.0693137
0.0681991
0.0668919
0.0653661
0.06359
0.0615253
0.0591303
0.0563641
0.0531815
0.0494884
0.0649352
0.0638274
0.0632614
0.0627192
0.0622903
0.0619357
0.0616043
0.0612652
0.0608979
0.0604849
0.0600082
0.0594476
0.0587813
0.0579866
0.0570425
0.0559301
0.0546323
0.0531326
0.0514156
0.049468
0.047283
0.0448533
0.0421367
0.0529629
0.051205
0.0506461
0.0502308
0.0499467
0.0497238
0.0495057
0.0492674
0.0489975
0.0486863
0.0483218
0.0478883
0.0473671
0.0467377
0.0459809
0.0450798
0.044022
0.0428005
0.041416
0.0398785
0.0382117
0.0364466
0.0345925
0.0410433
0.038475
0.0378913
0.0376983
0.0376152
0.0375413
0.0374384
0.0372988
0.0371244
0.0369155
0.0366664
0.0363661
0.0359989
0.0355473
0.0349931
0.0343202
0.0335169
0.0325792
0.0315147
0.0303464
0.0291177
0.0278901
0.0267171
0.0286945
0.0253242
0.0248056
0.0252249
0.0254628
0.0255313
0.0255214
0.025465
0.0253779
0.0252679
0.0251342
0.0249694
0.0247612
0.024495
0.0241544
0.0237233
0.0231891
0.0225463
0.0218013
0.0209769
0.0201191
0.0192982
0.0185855
0.0156302
0.0102588
0.0107094
0.0127727
0.0135163
0.0136942
0.0137401
0.0137467
0.0137377
0.0137236
0.0137055
0.0136783
0.0136331
0.0135584
0.0134403
0.0132643
0.0130174
0.0126918
0.0122884
0.0118212
0.0113218
0.0108443
0.0104651
0.0071052
-0.00844173
-0.00463046
-0.000903887
7.17367e-05
0.000339519
0.000466408
0.00056085
0.000656448
0.00076633
0.000893235
0.00103516
0.00118762
0.00134411
0.00149622
0.00163418
0.00174803
0.00182932
0.00187309
0.00188018
0.00185977
0.00183152
0.00182922
948.084
955.239
962.407
959.162
1005.79
1011.72
1015.06
1013.67
1025.64
1034.28
1043.16
1052.52
1049.43
1061.59
1074.91
1088.49
1084.84
1094.33
1105.31
1117.99
179.13
266.675
355.861
513.792
0.264968
0.222066
0.201607
0.931029
0.396939
0.408393
0.424333
0.440009
0.349988
0.351796
0.359046
0.370048
0.352545
0.354077
0.35578
0.357065
0.350633
0.350882
0.351163
0.351124
0.347058
0.347003
0.346949
0.34689
0.342237
0.342273
0.34233
0.342608
0.336261
0.336569
0.336965
0.33772
0.32897
0.329562
0.330311
0.331504
0.320184
0.320954
0.321918
0.323368
0.309767
0.310547
0.311519
0.312979
0.29765
0.298249
0.299003
0.30022
0.283823
0.284047
0.284367
0.285115
0.268366
0.268034
0.267725
0.267809
0.251476
0.250432
0.24933
0.248589
0.233449
0.231585
0.22957
0.227884
0.214649
0.211907
0.208918
0.206225
0.195483
0.191858
0.187894
0.184195
0.176383
0.171917
0.167037
0.162394
0.157788
0.152571
0.146878
0.141407
0.140123
0.134281
0.127922
0.121779
0.123746
0.117444
0.110598
0.103966
0.10892
0.102354
0.0952306
0.08832
0.0957907
0.0891743
0.0819977
0.0750263
0.0843749
0.0779307
0.0709341
0.0641245
0.0745621
0.0685037
0.0619141
0.0554821
0.0661302
0.0606465
0.0546694
0.0488125
0.0587714
0.0540124
0.0488172
0.0437024
0.0521248
0.0481909
0.0438973
0.0396496
0.0458153
0.0427483
0.0394153
0.0361075
0.0394886
0.0372688
0.0348879
0.032532
0.0328454
0.0313929
0.0298867
0.0284277
0.0256779
0.0248528
0.0240743
0.0233864
0.0179852
0.0175784
0.0173049
0.0171819
0.010211
0.010052
0.0100088
0.0101032
0.00183257
0.00184187
0.00192244
0.0021032
802.458
420.359
416.749
416.672
416.444
416.106
415.707
415.295
414.888
414.498
414.172
414.013
413.939
419.852
802.455
1085.47
1320.3
1563.61
1764.8
989.252
493.539
416.082
416.665
416.367
416.018
415.631
415.272
414.944
414.656
414.471
414.472
414.19
682.421
1086.18
1221.08
1389.82
1573.49
1647.29
1073.31
985.498
435.35
416.292
416.308
416.028
415.603
415.317
415.066
414.849
414.78
414.55
489.144
1052.14
1227.38
1335.44
1456.57
1600.09
1627.34
1113.1
1173.63
1054.49
637.575
415.778
415.638
415.464
415.411
415.225
415.005
414.788
413.641
900.468
1276.77
1349.71
1433.76
1514.07
1624.8
1613.95
1142.69
1188.71
1245.14
1272.26
1035.58
649.033
414.732
415.191
415.146
414.959
413.612
829.048
1353.92
1410.49
1459.24
1377.98
1453.21
1628.59
1587.67
992.004
1213.69
1242.12
1287.2
1347.36
1365.12
1178.66
824.112
701.454
765.495
1093.57
1461.7
1501.38
1550.31
1146.3
917.341
1332.69
1626.53
1547.81
36.7639
207.896
575.854
999.641
1286.74
1323.13
1374.64
1427.32
1458.99
1526.19
1564.32
1603.22
1676.17
950.409
918.239
913.099
1509.82
1615.94
1498.49
0.409666
0.202801
3.15323
74.2577
265.175
587.018
865.726
1067.01
1190.61
1268.63
1330
1318.59
850.119
803.626
1175.58
1579.43
1614.83
1607.63
1550.34
0.390104
0.414325
0.400828
0.207458
-0.0181945
0.515875
28.1964
102.594
189.415
245.686
298.129
324.237
615.516
1572.81
1619.84
1414.26
837.025
1193.35
1498.49
0.358486
0.352937
0.366976
0.422703
0.408778
0.328687
0.0756086
-0.0682752
0.901087
6.15502
24.6027
90.0204
790.465
1651.42
1677.65
693.47
153.256
266.761
1189.88
0.35009
0.343968
0.341682
0.34615
0.33676
0.347761
0.411997
0.428592
0.568944
1.51985
4.79465
24.4012
227.157
1186.46
1729.93
546.172
138.783
122.992
267.079
0.347245
0.346796
0.347181
0.348753
0.350519
0.367321
0.411881
0.461207
0.570024
0.794216
1.60795
8.40863
19.0786
493.97
1367.44
938.613
220.375
117.943
113.449
0.3444
0.348485
0.355333
0.366632
0.383844
0.411423
0.450235
0.501541
0.598717
0.71804
0.903461
1.15372
3.32744
131.948
874.631
1053.08
697.662
112.17
110.873
0.340726
0.348072
0.359749
0.377985
0.404983
0.443276
0.491093
0.540871
0.588064
0.617095
0.560921
0.478543
0.648825
2.44177
431.248
1072.94
828.477
107.454
110.15
0.335437
0.344982
0.359502
0.380981
0.411547
0.452509
0.499906
0.539788
0.549666
0.505607
0.414305
0.356816
0.452669
0.428781
88.3913
910.638
912.982
106.289
110.724
0.327795
0.338478
0.354151
0.376241
0.406222
0.444002
0.484182
0.51289
0.509526
0.457518
0.371288
0.309575
0.300889
0.239558
0.248826
0.366864
764.105
322.596
110.057
0.317406
0.328202
0.343596
0.364392
0.391301
0.423421
0.455516
0.476784
0.474299
0.442372
0.39432
0.367221
0.379696
0.407031
0.484482
1.89706
207.492
829.137
501.449
0.30418
0.314196
0.328175
0.346359
0.368847
0.394553
0.419501
0.436748
0.440349
0.432149
0.424966
0.441212
0.493041
0.57552
0.704687
0.874254
5.51684
852.165
882.767
0.28821
0.296723
0.308456
0.323217
0.340691
0.359975
0.378648
0.393377
0.403073
0.413234
0.436746
0.490561
0.581569
0.701879
0.860475
0.959405
1.90628
689.152
901.561
0.26972
0.276174
0.285083
0.295974
0.308302
0.321398
0.334235
0.346102
0.358737
0.379117
0.42051
0.499426
0.623387
0.789475
0.983047
1.12095
1.466
68.0278
927.843
0.249066
0.253058
0.258769
0.265567
0.272796
0.279968
0.286902
0.294298
0.305021
0.326079
0.370345
0.454164
0.588509
0.802233
1.1234
1.27652
2.26342
63.6931
941.58
0.226746
0.228016
0.230326
0.232971
0.235237
0.236666
0.237318
0.238162
0.241734
0.253491
0.283339
0.341883
0.435186
0.648792
2.07153
5.92255
101.582
512.444
856.536
0.203374
0.201808
0.20068
0.199262
0.196795
0.192696
0.186777
0.179408
0.17162
0.165543
0.164386
0.166735
0.162335
0.244732
2.60994
122.615
414.5
762.444
752.198
0.179634
0.175278
0.170844
0.165622
0.158812
0.149623
0.137372
0.121406
0.100767
0.0735688
0.0351826
-0.0261444
-0.130255
-0.144824
1.25459
271.276
454.68
319.045
298.475
0.156227
0.149287
0.141857
0.133273
0.12272
0.109216
0.0915946
0.068277
0.0367134
-0.00766331
-0.0736691
-0.177561
-0.343138
-0.181931
-0.679365
148.532
470.226
110.763
112.323
0.133832
0.124651
0.114688
0.103351
0.0898509
0.0730975
0.0516325
0.0233661
-0.0148831
-0.0681145
-0.142549
-0.253575
-0.407943
-0.249476
-0.989482
-1.28914
314.458
117.166
116.398
0.113059
0.102086
0.0901607
0.0767899
0.0612456
0.0424186
0.01878
-0.0118808
-0.0525152
-0.106872
-0.174995
-0.269823
-0.226135
-0.414292
-0.687709
-0.998675
140.511
557.216
122.713
0.0944051
0.0821578
0.0688956
0.0542416
0.0375535
0.0177405
-0.00491704
-0.0379389
-0.078502
-0.130809
-0.191552
-0.267173
-0.169912
-0.372057
-0.425152
-0.799731
315.344
645.178
168.723
0.0782465
0.0652619
0.0512836
0.0360592
0.0190378
-0.000877919
-0.021118
-0.0543514
-0.0962177
-0.147467
-0.209163
-0.278618
-0.156679
-0.337217
-0.167633
-0.412399
614.994
668.693
256.217
0.0647995
0.0515948
0.0374819
0.0223174
0.00562718
-0.0137133
-0.0331693
-0.0661988
-0.107574
-0.158538
-0.2271
-0.222333
-0.298933
-0.426117
-0.101507
138.408
685
691.184
359.816
0.0540848
0.0411586
0.0274221
0.0128426
-0.00298553
-0.0212351
-0.0403986
-0.0729949
-0.113349
-0.167195
-0.216337
-0.2149
-0.361804
-0.57495
-0.737129
311.305
706.868
711.278
386.062
0.0459491
0.033747
0.0208213
0.00724311
-0.00731902
-0.0240606
-0.0448858
-0.0658686
-0.112047
-0.168017
-0.211837
-0.222284
-0.37438
-0.624486
-0.896681
22.3525
669.823
728.136
379.145
0.040073
0.0289753
0.0172102
0.00493612
-0.00806816
-0.0229862
-0.041865
-0.0528281
-0.103337
-0.15505
-0.223893
-0.258924
-0.408783
-0.552773
-0.681037
-0.663146
160.84
743.655
371.205
0.0360001
0.026318
0.0159807
0.00521843
-0.00611009
-0.0190588
-0.0357635
-0.0498893
-0.0899986
-0.133635
-0.197129
-0.280367
-0.369813
-0.44981
-0.506
-0.474315
-0.658023
639.087
372.042
0.0331755
0.025143
0.0164282
0.00728406
-0.00234242
-0.0133678
-0.0278867
-0.0486195
0.0693497
0.251789
0.300052
0.216519
0.201789
0.0950758
-0.202468
-0.284999
-0.312026
89.5992
456.608
0.03099
0.0247583
0.017807
0.0103528
0.00241824
-0.00667179
-0.0186516
-0.0360151
0.0199264
0.609671
0.577855
0.536159
0.490782
0.460276
0.309686
-0.178725
-0.131733
-0.61587
476.665
0.028826
0.0244491
0.0193419
0.0136293
0.0073672
0.000204533
-0.00888258
-0.0216931
-0.0396451
0.0917836
0.393408
0.611668
0.579534
0.564411
0.236721
-0.0906338
0.0306176
0.178634
171.464
0.026101
0.0235123
0.0202431
0.0162789
0.0116109
0.00618262
-0.000317034
-0.00876046
-0.0201225
-0.0360041
-0.048443
0.0954277
0.193749
0.0799044
-0.0499934
-0.0231465
0.0421821
0.105551
0.193852
0.0223094
0.0213182
0.019768
0.0174805
0.014231
0.0101899
0.00569577
0.000613128
-0.00538749
-0.0127923
-0.0223233
-0.0328222
-0.042071
-0.0465228
-0.0445774
-0.0248742
0.016661
0.0889304
2.34814
0.017096
0.0173675
0.0173121
0.0165596
0.0143001
0.0108802
0.00751893
0.00459985
0.00230856
0.000822888
0.000279186
0.000987389
0.00201893
0.00117562
-0.0029794
-0.00180351
0.0155178
0.0772845
12.5915
0.0104172
0.0113532
0.0124261
0.0131771
0.0110239
0.00646079
0.00263083
9.09286e-05
-0.000361853
0.00235781
0.00937362
0.0201787
0.0320203
0.044169
0.0436925
0.0657688
0.100612
0.0533035
11.8713
0.0025514
0.00344909
0.00474095
0.0068704
0.00391734
-0.00205991
-0.00676653
-0.00994851
-0.0101614
-0.00549748
0.00657443
0.0303746
0.0728204
0.0767672
0.0358252
-0.0194738
-0.292462
-0.602228
5.41964
)
;

boundaryField
{
    leftWall
    {
        type            fixedFluxPressure;
        gradient        uniform 0;
        value           nonuniform List<scalar> 
50
(
575.01
574.901
573.661
572.298
571.255
570.43
569.53
568.391
452.5
2.75619
0.562471
0.530346
0.508565
0.492102
0.474619
0.458332
0.442235
0.426492
0.411077
0.395977
0.381159
0.366581
0.352201
0.337988
0.323918
0.309979
0.296162
0.282463
0.268882
0.255414
0.242058
0.22881
0.215667
0.202626
0.189683
0.176836
0.164078
0.151405
0.138822
0.126325
0.113907
0.10156
0.0892695
0.0770518
0.0649352
0.0529629
0.0410433
0.0286945
0.0156302
0.0071052
)
;
    }
    rightWall
    {
        type            fixedFluxPressure;
        gradient        uniform 0;
        value           nonuniform List<scalar> 
50
(
3190.06
2990.97
2732.42
2481.07
2262.54
2092.94
1963.23
1872.31
1764.8
1647.29
1627.34
1613.95
1587.67
1547.81
1498.49
1550.34
1498.49
1189.88
267.079
113.449
110.873
110.15
110.724
110.057
501.449
882.767
901.561
927.843
941.58
856.536
752.198
298.475
112.323
116.398
122.713
168.723
256.217
359.816
386.062
379.145
371.205
372.042
456.608
476.665
171.464
0.193852
2.34814
12.5915
11.8713
5.41964
)
;
    }
    lowerWall
    {
        type            fixedFluxPressure;
        gradient        uniform 0;
        value           nonuniform List<scalar> 
62
(
575.01
573.358
578.5
587.68
599.123
611.667
625.099
639.589
655.23
672.121
690.268
709.6
730.026
751.472
773.9
797.284
821.537
846.364
870.998
893.927
908.63
914.747
933.509
933.509
932.111
933.456
938.97
947.573
957.612
968.143
977.18
948.084
955.239
962.407
959.162
417.228
417.218
417.211
417.209
417.217
417.241
417.396
509.162
417.228
417.206
417.137
417.058
416.913
416.666
416.326
415.928
415.508
415.04
414.583
414.64
418.461
426.272
420.986
573.466
1694
3065.13
3190.06
)
;
    }
    atmosphere
    {
        type            totalPressure;
        rho             rho;
        psi             none;
        gamma           1;
        p0              uniform 0;
        value           nonuniform List<scalar> 
46
(
-0.000754864
-0.00691287
-0.00785481
-0.00792681
-0.00785721
-0.00773977
-0.00759939
-0.00743963
-0.00725855
-0.00705357
-0.00682281
-0.00656538
-0.00628151
-0.00597276
-0.00564218
-0.00529439
-0.00493535
-0.00457171
-0.00420951
-0.00385216
-0.00349754
-0.00313457
-0.00274133
-0.00240518
-0.00216463
-0.00189316
-0.00159951
-0.00111761
-0.000528134
-0.000140538
-1.24832e-07
0
0
0
0
0
0
0
0
0
-0.00111651
-0.00650421
-0.0136547
-0.0237275
-0.000352856
0
)
;
    }
    defaultFaces
    {
        type            empty;
    }
}


// ************************************************************************* //
