/*--------------------------------*- C++ -*----------------------------------*\
  =========                 |
  \\      /  F ield         | OpenFOAM: The Open Source CFD Toolbox
   \\    /   O peration     | Website:  https://openfoam.org
    \\  /    A nd           | Version:  9
     \\/     M anipulation  |
\*---------------------------------------------------------------------------*/
FoamFile
{
    format      ascii;
    class       surfaceScalarField;
    location    "7.27";
    object      alphaPhi0.water;
}
// * * * * * * * * * * * * * * * * * * * * * * * * * * * * * * * * * * * * * //

dimensions      [0 3 -1 0 0 0 0];

internalField   nonuniform List<scalar> 
4432
(
1.67074e-07
-1.67074e-07
3.28222e-07
-1.6115e-07
4.75812e-07
-1.47589e-07
6.10582e-07
-1.3477e-07
7.34097e-07
-1.23517e-07
8.4905e-07
-1.14953e-07
9.56711e-07
-1.07664e-07
1.05722e-06
-1.00512e-07
1.14831e-06
-9.10931e-08
1.22947e-06
-8.11538e-08
1.30439e-06
-7.49254e-08
1.3845e-06
-8.01092e-08
1.48701e-06
-1.02506e-07
1.62386e-06
-1.36851e-07
1.7787e-06
-1.54833e-07
1.87224e-06
-9.3548e-08
1.72207e-06
1.50172e-07
1.20801e-06
5.1406e-07
4.01841e-07
8.0486e-07
-4.96768e-07
8.97848e-07
-9.12633e-07
4.15254e-07
-6.34937e-07
-2.78274e-07
-6.35359e-07
1.62875e-07
-3.29948e-07
3.19815e-07
-3.18092e-07
4.68007e-07
-2.95782e-07
6.05002e-07
-2.71765e-07
7.315e-07
-2.50019e-07
8.48757e-07
-2.32213e-07
9.57235e-07
-2.16144e-07
1.05526e-06
-1.98541e-07
1.14093e-06
-1.76763e-07
1.21311e-06
-1.53335e-07
1.27456e-06
-1.36371e-07
1.33295e-06
-1.38501e-07
1.39845e-06
-1.67998e-07
1.47561e-06
-2.14011e-07
1.5505e-06
-2.29723e-07
1.56917e-06
-1.12226e-07
1.42029e-06
2.99044e-07
1.01593e-06
9.18418e-07
4.64477e-07
1.35579e-06
-8.98759e-08
1.45144e-06
-4.8656e-07
8.12417e-07
-5.32237e-07
-2.32597e-07
-1.1676e-06
1.62894e-07
-4.92841e-07
3.18684e-07
-4.73883e-07
4.6694e-07
-4.44039e-07
6.05238e-07
-4.10062e-07
7.33338e-07
-3.78122e-07
8.51848e-07
-3.50723e-07
9.60321e-07
-3.24619e-07
1.0565e-06
-2.9472e-07
1.13758e-06
-2.57846e-07
1.20198e-06
-2.17733e-07
1.25104e-06
-1.85427e-07
1.28965e-06
-1.77114e-07
1.32425e-06
-2.02588e-07
1.35756e-06
-2.47322e-07
1.38141e-06
-2.53577e-07
1.36207e-06
-9.29095e-08
1.21874e-06
4.42256e-07
8.94352e-07
1.2428e-06
5.14109e-07
1.73623e-06
1.6299e-07
1.80644e-06
-1.96355e-07
1.17199e-06
-3.514e-07
-7.75511e-08
-1.519e-06
1.63548e-07
-6.56388e-07
3.20676e-07
-6.31014e-07
4.70399e-07
-5.93763e-07
6.10614e-07
-5.50276e-07
7.40648e-07
-5.08157e-07
8.60686e-07
-4.70759e-07
9.69677e-07
-4.33609e-07
1.06468e-06
-3.89721e-07
1.14203e-06
-3.35194e-07
1.19924e-06
-2.74942e-07
1.23622e-06
-2.22406e-07
1.25576e-06
-1.96652e-07
1.26207e-06
-2.08891e-07
1.25771e-06
-2.42966e-07
1.24095e-06
-2.36809e-07
1.20149e-06
-5.37189e-08
1.08304e-06
5.59159e-07
8.29174e-07
1.49699e-06
5.60005e-07
2.0054e-06
3.26618e-07
2.04001e-06
2.04113e-08
1.47814e-06
-1.456e-07
8.83349e-08
-1.6646e-06
1.65202e-07
-8.21589e-07
3.24928e-07
-7.90741e-07
4.77516e-07
-7.46351e-07
6.20509e-07
-6.93268e-07
7.53037e-07
-6.40684e-07
8.7508e-07
-5.928e-07
9.85094e-07
-5.43619e-07
1.07949e-06
-4.8411e-07
1.15363e-06
-4.09327e-07
1.20403e-06
-3.25345e-07
1.22926e-06
-2.47633e-07
1.23042e-06
-1.97808e-07
1.2102e-06
-1.88667e-07
1.17123e-06
-2.03996e-07
1.11665e-06
-1.82231e-07
1.05479e-06
7.62509e-09
9.75372e-07
6.35936e-07
7.8239e-07
1.67899e-06
5.98948e-07
2.18886e-06
4.40994e-07
2.19798e-06
1.96389e-07
1.72276e-06
7.50312e-08
2.08793e-07
-1.58945e-06
1.68348e-07
-9.89937e-07
3.31658e-07
-9.5405e-07
4.88334e-07
-9.03029e-07
6.3494e-07
-8.39871e-07
7.70519e-07
-7.76262e-07
8.94951e-07
-7.1723e-07
1.00629e-06
-6.5495e-07
1.10035e-06
-5.7817e-07
1.17158e-06
-4.8055e-07
1.21559e-06
-3.69355e-07
1.22978e-06
-2.61815e-07
1.21386e-06
-1.81893e-07
1.1693e-06
-1.44103e-07
1.09833e-06
-1.3302e-07
1.00589e-06
-8.97998e-08
9.10425e-07
1.03092e-07
8.47471e-07
6.91644e-07
7.39865e-07
1.75861e-06
6.32946e-07
2.26395e-06
5.23679e-07
2.27485e-06
3.69771e-07
1.84744e-06
3.00239e-07
2.81474e-07
-1.2892e-06
1.72869e-07
-1.16281e-06
3.41243e-07
-1.12242e-06
5.02941e-07
-1.06473e-06
6.53826e-07
-9.90754e-07
7.9288e-07
-9.15316e-07
9.19852e-07
-8.44201e-07
1.0324e-06
-7.67499e-07
1.12596e-06
-6.71725e-07
1.19427e-06
-5.48861e-07
1.23232e-06
-4.07407e-07
1.23661e-06
-2.66107e-07
1.20584e-06
-1.51121e-07
1.14013e-06
-7.83897e-08
1.04125e-06
-3.41422e-08
9.13495e-07
3.79554e-08
7.77123e-07
2.39463e-07
6.94941e-07
7.69613e-07
6.78887e-07
1.77416e-06
6.44107e-07
2.29832e-06
5.91308e-07
2.32137e-06
5.8029e-07
1.85235e-06
4.73945e-07
3.97865e-07
-8.15248e-07
1.78635e-07
-1.34144e-06
3.53175e-07
-1.29696e-06
5.20877e-07
-1.23243e-06
6.76482e-07
-1.14636e-06
8.19248e-07
-1.05808e-06
9.48586e-07
-9.73543e-07
1.06168e-06
-8.80594e-07
1.15391e-06
-7.63965e-07
1.21886e-06
-6.13815e-07
1.25133e-06
-4.39886e-07
1.24728e-06
-2.62055e-07
1.20487e-06
-1.08715e-07
1.12253e-06
3.95106e-09
1.00237e-06
8.60183e-08
8.47573e-07
1.9275e-07
6.79748e-07
4.07289e-07
5.61758e-07
8.86692e-07
6.06465e-07
1.74134e-06
6.38252e-07
2.26614e-06
6.65788e-07
2.29344e-06
7.44485e-07
1.80576e-06
5.07813e-07
6.37017e-07
-3.07433e-07
-1.51579e-06
1.50844e-06
-1.11883e-06
-4.01148e-07
-6.01041e-07
-5.19205e-07
-2.64224e-07
-3.37253e-07
-2.00262e-08
-2.44313e-07
1.27039e-07
-1.47724e-07
2.83761e-07
-1.57928e-07
5.41769e-07
-2.59214e-07
8.25839e-07
-2.85952e-07
7.49988e-07
7.55216e-08
1.84229e-07
5.65749e-07
-6.31933e-07
8.16152e-07
-1.67967e-06
1.04772e-06
-2.32916e-06
6.42394e-07
-2.13215e-06
-1.97007e-07
-1.40144e-06
-7.30714e-07
-7.86828e-07
-6.15218e-07
-4.5513e-08
-7.41697e-07
-4.55817e-08
-8.93813e-07
2.40063e-06
-6.95856e-07
-6.02071e-07
-5.1311e-07
-7.01951e-07
-3.83557e-07
-4.66807e-07
-2.95494e-07
-3.32376e-07
-2.02619e-07
-2.40598e-07
-7.31346e-08
-2.87414e-07
1.0936e-07
-4.4216e-07
2.50571e-07
-4.27123e-07
1.35294e-07
1.91011e-07
-2.56568e-07
9.62531e-07
-7.92104e-07
1.36178e-06
-1.38026e-06
1.64124e-06
-1.83904e-06
1.0932e-06
-1.81969e-06
-2.16354e-07
-1.42841e-06
-1.12199e-06
-1.04443e-06
-9.99204e-07
-4.14143e-07
-1.37198e-06
-4.58105e-07
-3.1327e-07
2.71335e-06
-4.01548e-07
-5.14751e-07
-4.62938e-07
-6.40563e-07
-4.7932e-07
-4.50442e-07
-4.78656e-07
-3.33039e-07
-4.476e-07
-2.71662e-07
-3.74679e-07
-3.60342e-07
-2.57727e-07
-5.59117e-07
-1.78822e-07
-5.05987e-07
-3.08918e-07
3.21182e-07
-6.07991e-07
1.2617e-06
-9.27313e-07
1.68195e-06
-1.22009e-06
1.93833e-06
-1.52305e-06
1.39903e-06
-1.56886e-06
-1.72472e-07
-1.34677e-06
-1.34408e-06
-1.19805e-06
-1.14792e-06
-7.97801e-07
-1.76231e-06
-1.25632e-06
9.7742e-08
2.61506e-06
-2.34457e-07
-1.82389e-07
-4.67572e-07
-4.07522e-07
-5.89024e-07
-3.29033e-07
-6.55517e-07
-2.6656e-07
-6.81154e-07
-2.45873e-07
-6.65123e-07
-3.7627e-07
-6.03459e-07
-6.20818e-07
-5.42965e-07
-5.65752e-07
-6.52684e-07
4.29008e-07
-8.70352e-07
1.47828e-06
-1.04841e-06
1.86001e-06
-1.18203e-06
2.07196e-06
-1.36123e-06
1.58083e-06
-1.35423e-06
-1.8081e-07
-1.20375e-06
-1.49456e-06
-1.25297e-06
-1.09518e-06
-1.03549e-06
-1.98022e-06
-2.29223e-06
2.35246e-07
2.39975e-06
-2.13963e-07
2.67063e-07
-5.379e-07
-8.35944e-08
-7.26364e-07
-1.40579e-07
-8.43861e-07
-1.49068e-07
-9.20218e-07
-1.69137e-07
-9.58164e-07
-3.38509e-07
-9.46278e-07
-6.32892e-07
-8.92913e-07
-6.1687e-07
-9.44931e-07
4.78434e-07
-1.09017e-06
1.6221e-06
-1.15784e-06
1.92767e-06
-1.1796e-06
2.09372e-06
-1.27332e-06
1.67778e-06
-1.14516e-06
-3.10819e-07
-9.96579e-07
-1.64083e-06
-1.14024e-06
-9.4778e-07
-9.9946e-07
-2.12811e-06
-3.30077e-06
1.22376e-07
2.27737e-06
-3.21533e-07
7.10959e-07
-6.69306e-07
2.6417e-07
-8.92636e-07
8.27392e-08
-1.0456e-06
3.92152e-09
-1.1649e-06
-4.9764e-08
-1.25403e-06
-2.49496e-07
-1.29271e-06
-5.94469e-07
-1.24354e-06
-6.60417e-07
-1.2137e-06
4.39705e-07
-1.28548e-06
1.69389e-06
-1.2596e-06
1.90179e-06
-1.1822e-06
2.01631e-06
-1.18247e-06
1.65982e-06
-9.37764e-07
-5.60198e-07
-7.41629e-07
-1.82585e-06
-8.33195e-07
-8.5601e-07
-7.78998e-07
-2.18231e-06
-4.07976e-06
-8.31784e-08
2.36054e-06
-5.13009e-07
1.14078e-06
-8.46987e-07
5.98148e-07
-1.08204e-06
3.178e-07
-1.25719e-06
1.79056e-07
-1.40917e-06
1.02209e-07
-1.5444e-06
-1.14274e-07
-1.63926e-06
-4.99613e-07
-1.61569e-06
-6.77772e-07
-1.47082e-06
3.14669e-07
-1.43161e-06
1.59777e-06
-1.34774e-06
1.81792e-06
-1.18963e-06
1.86542e-06
-1.00065e-06
1.43663e-06
-6.95512e-07
-8.77108e-07
-5.18007e-07
-1.99961e-06
-4.56314e-07
-9.21514e-07
-4.36408e-07
-2.20386e-06
-4.51617e-06
-3.84138e-07
2.74467e-06
-7.56036e-07
1.51267e-06
-1.05298e-06
8.95092e-07
-1.28622e-06
5.51038e-07
-1.47226e-06
3.65099e-07
-1.64539e-06
2.75351e-07
-1.81546e-06
5.59002e-08
-1.96075e-06
-3.54653e-07
-2.00295e-06
-6.26482e-07
-1.74884e-06
1.12794e-07
-1.5336e-06
1.34678e-06
-1.37794e-06
1.6185e-06
-1.16802e-06
1.63391e-06
-7.48074e-07
9.89921e-07
-4.50172e-07
-1.18446e-06
-3.21963e-07
-2.12408e-06
-1.23533e-07
-1.12376e-06
-4.2126e-08
-2.28612e-06
-4.55829e-06
3.99253e-07
-1.74069e-06
7.9252e-07
-1.69023e-06
1.17357e-06
-1.61348e-06
1.52129e-06
-1.49408e-06
1.83753e-06
-1.37432e-06
2.1185e-06
-1.25451e-06
2.35585e-06
-1.11793e-06
2.5427e-06
-9.5081e-07
2.66599e-06
-7.3711e-07
2.71783e-06
-4.91722e-07
2.68816e-06
-2.32377e-07
2.56949e-06
9.95734e-09
2.36323e-06
2.10208e-07
2.0638e-06
3.85444e-07
1.68409e-06
5.72461e-07
1.27777e-06
8.13604e-07
9.94029e-07
1.17044e-06
1.08415e-06
1.65122e-06
1.31528e-06
2.04291e-06
1.51227e-06
2.10862e-06
1.49459e-06
1.82343e-06
6.75576e-07
1.45601e-06
1.22971e-06
-8.61588e-07
3.77539e-07
-1.75975e-06
8.20974e-07
-1.77495e-06
1.24449e-06
-1.69414e-06
1.61092e-06
-1.54184e-06
1.94068e-06
-1.40749e-06
2.22188e-06
-1.26163e-06
2.42981e-06
-1.08068e-06
2.56469e-06
-8.78977e-07
2.63537e-06
-6.55194e-07
2.6521e-06
-4.13604e-07
2.61454e-06
-1.62079e-07
2.51163e-06
7.94552e-08
2.3271e-06
2.90069e-07
2.05164e-06
4.86124e-07
1.7018e-06
6.77768e-07
1.33375e-06
8.68361e-07
1.06583e-06
1.05954e-06
1.02178e-06
1.25825e-06
1.15859e-06
1.43622e-06
1.21634e-06
1.53397e-06
9.20837e-07
1.54183e-06
2.03843e-07
1.55015e-06
1.56527e-06
-7.70356e-07
1.98741e-07
-5.05537e-09
3.35062e-07
-3.74291e-09
4.63288e-07
-3.33979e-09
6.14847e-07
-9.28474e-09
7.43587e-07
-6.97053e-09
8.27134e-07
-4.82182e-09
8.84874e-07
-7.85756e-09
9.16018e-07
-7.97215e-09
9.24833e-07
-4.9195e-09
9.17539e-07
-2.56786e-09
9.03491e-07
-6.60494e-10
8.77631e-07
0
8.21382e-07
0
7.3044e-07
2.44762e-10
6.16163e-07
1.59128e-09
5.00744e-07
4.44842e-09
4.12836e-07
1.56068e-08
3.75324e-07
7.6559e-09
3.69031e-07
0
3.31427e-07
1.65587e-10
1.99403e-07
1.88766e-10
-3.18036e-09
0
0
-2.62303e-07
7.42228e-10
-5.99572e-09
5.84141e-10
-3.78677e-09
1.51927e-10
-3.1057e-09
9.24757e-10
-1.02595e-08
1.15716e-09
-7.40639e-09
9.7705e-10
-4.84686e-09
1.26305e-09
-8.35512e-09
1.60557e-09
-8.53987e-09
1.71185e-09
-5.26814e-09
1.72178e-09
-2.83448e-09
1.70268e-09
-9.13152e-10
2.27121e-09
0
2.50716e-09
0
2.80711e-09
0
3.03493e-09
0
3.38851e-09
0
3.47188e-09
0
2.23424e-09
0
1.17827e-09
0
6.90975e-10
5.18553e-13
6.28671e-10
3.28432e-13
2.55767e-10
0
0
-7.18244e-10
-1.66352e-09
-7.42253e-10
-3.87944e-10
-1.45347e-09
-4.84283e-09
3.93732e-10
-4.4406e-09
-5.28024e-09
-4.01058e-09
-2.40034e-09
-2.30609e-09
-1.53053e-09
-3.75206e-09
-4.54192e-09
-6.22735e-09
-3.66968e-13
-6.30982e-09
-8.49993e-11
-4.48868e-09
-1.96841e-09
-2.43275e-09
-1.02946e-09
-4.19771e-10
-7.50325e-11
9.76961e-10
-5.41144e-11
1.68752e-09
8.31529e-10
2.22794e-09
1.47039e-09
2.28836e-09
1.59236e-09
1.25881e-09
1.49052e-09
4.95625e-10
1.07889e-09
-1.21624e-10
4.94065e-10
-1.14675e-09
3.83342e-10
-1.6341e-09
2.85621e-10
-1.60499e-09
4.0188e-10
1.70983e-10
-1.73242e-09
-2.04162e-10
-2.06482e-11
-1.71947e-10
-3.37656e-10
-7.21602e-11
0
-3.50543e-10
-2.39682e-10
-7.58253e-10
-1.2599e-10
-3.74643e-10
-5.37716e-12
-7.82314e-14
-3.82919e-12
-3.72032e-13
-1.13432e-13
-8.53835e-11
-4.84773e-14
-1.77319e-10
-1.00859e-12
-1.48656e-10
-7.58058e-13
-8.88417e-13
-4.18572e-13
-5.71593e-11
1.36625e-16
-1.52759e-10
0
-1.38257e-10
0
-1.86539e-10
0
-6.06795e-10
0
-1.35808e-09
0
-1.2373e-09
0
-1.7618e-09
5.16425e-12
-2.10548e-09
8.97833e-11
-1.88475e-09
0
1.31693e-11
-1.39775e-09
-2.06479e-11
1.98626e-25
-1.13251e-10
-2.11878e-14
-1.06879e-11
1.7409e-14
-3.41988e-11
-2.064e-12
-1.05564e-13
-9.36058e-12
-8.67884e-14
-5.45845e-12
-1.01677e-13
-3.87417e-12
-1.1431e-13
-1.61405e-13
-1.29574e-13
-9.38196e-14
-1.39159e-13
-1.05961e-12
-1.51004e-13
-8.10037e-13
-6.2315e-13
-1.14957e-14
-7.54683e-13
6.60436e-14
-1.69671e-10
7.34681e-13
-2.81035e-10
-1.38103e-11
-2.98323e-10
3.59594e-11
-1.56007e-10
1.21282e-11
-2.17065e-10
0
-2.1981e-10
0
-6.81392e-11
0
-2.55822e-10
7.35386e-12
-9.14151e-10
0
5.785e-11
-8.55284e-10
-2.05134e-15
2.21296e-15
-2.38161e-14
5.7286e-16
-8.63578e-15
2.87147e-15
-2.06438e-12
-3.35171e-15
-6.81748e-12
-3.16911e-13
-5.15321e-12
-1.13e-12
-5.81995e-12
-2.60567e-12
-9.50173e-13
-1.38869e-12
-2.53834e-12
-4.34291e-14
-6.00711e-12
-5.54262e-13
0
-4.25203e-13
0
1.62393e-13
-1.11773e-10
1.42241e-12
-4.33619e-10
-6.99271e-12
-4.23126e-10
-5.90742e-12
-3.87872e-10
1.91017e-11
-2.97376e-10
1.90207e-11
-2.25445e-10
9.74718e-12
-1.03198e-10
1.29073e-11
-7.77302e-12
6.7876e-12
-7.31966e-13
1.62486e-13
-5.95767e-12
1.44694e-13
0
-9.21684e-13
-7.00541e-16
2.90934e-15
-2.02234e-15
1.88696e-15
-4.39278e-15
5.23689e-15
0
2.01939e-15
-8.44206e-13
3.1821e-18
-6.58177e-12
-2.23527e-13
-5.98131e-12
-7.37563e-13
-3.57749e-12
-4.49701e-13
-5.03904e-12
-9.57683e-14
-1.09169e-11
-7.33432e-13
-1.08574e-11
-1.62927e-15
0
6.0093e-13
-3.6756e-11
5.33987e-13
-9.66682e-11
3.35388e-16
-7.71278e-11
-4.83956e-14
-7.419e-11
0
-1.34064e-10
0
-9.11371e-11
1.67452e-11
-6.61068e-12
0
-4.5275e-14
1.06296e-13
-3.43846e-14
2.55842e-14
-2.82749e-14
3.13308e-15
0
-1.54069e-14
-4.6515e-16
3.37026e-15
-1.91792e-14
4.17612e-14
-1.54148e-14
1.08086e-13
0
9.36678e-15
-6.67542e-16
5.78392e-16
-3.14877e-12
0
-2.42782e-12
7.3166e-14
-3.72215e-13
1.74396e-14
-1.10673e-11
3.56288e-14
-1.1415e-11
3.0881e-13
-1.12534e-11
7.09371e-13
-5.40123e-13
7.27759e-13
-5.4901e-15
6.4439e-16
-4.87236e-15
2.42326e-17
-4.03057e-14
0
-1.79748e-13
0
-6.60659e-12
0
-5.79766e-12
0
-4.93768e-14
9.40319e-13
-7.95036e-14
2.15622e-14
-8.96431e-14
6.67557e-14
-1.30137e-13
8.53536e-14
6.24968e-14
-1.96653e-14
-6.90813e-15
4.46039e-15
-4.5631e-14
1.2844e-13
-6.40574e-14
1.5499e-13
-4.89775e-15
3.51621e-14
-4.81739e-15
5.7149e-16
-1.01866e-13
9.34334e-16
-1.18221e-13
5.55209e-15
-2.27408e-13
5.00934e-14
-4.5577e-12
2.43116e-13
-1.09187e-11
3.89076e-13
-5.21919e-12
8.38889e-13
-7.51612e-15
4.9525e-14
-6.07889e-15
5.52218e-16
-5.17335e-15
4.60026e-16
-2.02531e-13
5.48808e-15
-2.19785e-12
4.06921e-13
-2.3718e-12
1.78644e-12
-1.61796e-13
3.87428e-12
-8.95209e-14
9.1914e-13
-7.1387e-14
5.45493e-14
-1.37981e-13
6.69444e-14
-8.49704e-14
9.3498e-14
4.2927e-14
-1.46654e-14
-2.10486e-14
5.30979e-15
-4.79115e-14
1.8347e-13
-3.05368e-14
1.65746e-13
-9.25077e-16
4.10143e-14
-1.00335e-15
7.51917e-16
-6.52665e-16
6.59378e-16
-5.47672e-14
5.97304e-14
-6.80296e-13
8.26188e-13
-1.46059e-12
1.23608e-12
-5.26958e-12
2.77363e-13
-5.45216e-14
3.11268e-13
-4.73713e-15
6.87139e-16
-3.54349e-15
7.09514e-16
0
7.3361e-16
0
2.01803e-15
-1.97302e-11
1.26176e-12
-2.30072e-11
5.07655e-12
-2.58094e-11
6.69008e-12
-6.01253e-14
8.81548e-12
-6.5769e-14
2.11767e-14
-5.91784e-14
2.12656e-14
-5.40633e-14
1.68831e-14
1.02938e-14
-9.90291e-15
-1.17735e-15
3.23157e-15
-3.52665e-14
9.08228e-15
-4.71285e-14
9.17664e-14
-1.13294e-15
1.54606e-14
-1.00482e-15
9.02423e-16
-1.50146e-15
1.25792e-15
-1.47467e-12
7.88632e-13
-3.27303e-12
1.91576e-12
-3.08007e-12
1.71039e-12
-3.1369e-13
1.50325e-13
-3.48325e-15
1.25672e-15
-2.72336e-15
8.76731e-16
-1.52943e-15
8.57953e-16
0
3.21375e-16
-7.69702e-15
2.82047e-15
-2.22426e-11
1.41145e-12
-2.24846e-11
5.33187e-12
-2.19482e-11
6.16702e-12
-1.90163e-11
5.89705e-12
-6.04919e-14
2.61198e-12
-3.79877e-14
1.31682e-14
-2.10604e-14
1.45441e-14
1.33005e-14
-9.44176e-15
-2.37435e-16
2.06348e-15
-5.71926e-15
2.67113e-15
-3.44007e-15
1.60041e-15
-6.81641e-16
1.64245e-15
-5.38133e-16
1.04578e-15
-1.14888e-15
2.03509e-15
-2.59545e-12
9.54053e-13
-2.99587e-12
2.40609e-12
-1.78855e-12
1.17858e-12
-3.91273e-15
7.67087e-14
-3.50881e-15
1.04623e-15
-2.32978e-15
1.03386e-15
-1.08393e-15
9.76071e-16
-1.77018e-16
2.23921e-16
0
8.44764e-17
0
0
-1.15465e-11
0
-2.18612e-11
2.8085e-12
-2.61015e-12
1.70255e-12
-3.37166e-14
2.27613e-15
-2.5615e-14
1.50012e-14
-3.59005e-14
1.85059e-14
1.61707e-14
-1.00049e-14
-4.41685e-17
5.34817e-15
-1.00833e-16
1.59975e-15
-1.39829e-16
5.20297e-16
-2.10362e-16
5.83751e-16
0
1.30714e-15
0
2.07963e-14
-1.0501e-12
2.73274e-13
-1.85801e-12
4.37229e-13
-7.79605e-14
1.44443e-15
-2.36549e-15
2.5089e-16
-2.30024e-15
1.17587e-15
-1.74998e-15
1.44652e-15
-4.9681e-16
8.49399e-16
-1.62997e-16
1.00222e-16
-1.62591e-16
6.96802e-17
-5.71191e-16
6.29311e-17
-2.62958e-13
0
-2.68348e-13
0
-1.31895e-14
0
-4.71959e-14
3.02656e-15
-4.74902e-14
1.77278e-14
-2.8815e-14
2.38259e-14
1.08683e-14
-2.32385e-15
-7.67864e-15
1.62738e-14
-1.95726e-15
4.56432e-13
-1.23318e-16
6.93114e-16
-1.28807e-15
6.19262e-16
-9.57265e-16
6.37057e-15
-3.73436e-14
2.74125e-14
-4.29978e-14
0
-1.65183e-15
6.49625e-17
-2.1474e-16
3.44724e-20
-1.11707e-15
2.87812e-16
-1.63714e-15
1.06844e-15
-1.11991e-15
1.0651e-15
-1.75735e-16
2.58311e-16
-1.37297e-16
6.26379e-17
-1.41052e-16
7.46199e-17
-1.50694e-16
6.99681e-17
-2.37634e-16
6.13304e-17
-2.51122e-16
9.48739e-18
-5.5021e-16
8.64573e-18
-1.3906e-14
1.1489e-15
-3.27404e-14
7.95849e-15
-2.04955e-14
1.03713e-14
8.84784e-16
-2.45115e-15
-3.81981e-14
6.70088e-13
-7.59557e-16
5.49266e-13
-1.39093e-16
7.10721e-17
-4.85241e-16
9.49348e-16
-6.20577e-15
7.5677e-15
-6.20491e-16
9.92119e-15
-4.96696e-17
7.66538e-17
-1.32659e-17
4.36395e-18
-6.13735e-17
1.72313e-17
-5.2904e-16
1.42622e-16
-5.67362e-16
2.9967e-16
-1.91311e-16
1.87442e-16
-6.55573e-17
2.6702e-17
-9.60343e-17
2.98547e-17
-1.24723e-16
6.74541e-17
-1.38246e-16
7.78094e-17
-1.2936e-16
7.6101e-17
-1.25827e-16
6.31327e-17
-2.16024e-16
5.38684e-17
-1.17642e-15
4.68947e-17
-1.26239e-15
0
-1.32426e-15
0
1.36954e-16
-2.37063e-15
-3.04136e-14
7.07937e-13
-1.70816e-16
3.39683e-13
-1.7382e-16
7.31501e-17
-1.17578e-15
1.1795e-15
-1.54918e-15
4.27568e-15
-5.8569e-17
6.83532e-16
-1.65284e-17
3.49496e-17
-9.12231e-18
3.53535e-17
-2.15575e-17
1.41703e-17
-6.89452e-17
1.4963e-17
-5.49706e-17
1.52551e-17
-6.81848e-18
4.11844e-18
-1.01015e-17
4.74886e-19
-4.20083e-17
6.83068e-18
-8.06947e-17
3.16279e-17
-1.01513e-16
5.28672e-17
-1.02088e-16
5.807e-17
-9.04831e-17
5.40614e-17
-6.24499e-17
3.40619e-17
-1.96746e-17
1.03593e-17
-1.40419e-17
4.34478e-18
-6.98816e-17
1.79037e-18
5.01013e-18
-2.56704e-16
-1.52639e-14
7.30526e-13
-1.27673e-16
1.41859e-13
-1.31051e-16
7.60406e-17
-4.43673e-16
8.31225e-16
-1.06821e-16
1.05053e-15
-1.16941e-17
2.50115e-17
-1.28633e-17
3.65383e-17
-4.42799e-18
3.29192e-17
-1.56343e-18
2.69719e-18
-1.55319e-18
2.82425e-18
-5.97225e-19
2.43021e-18
-4.80435e-20
5.38025e-19
-2.49652e-19
6.57558e-20
-6.37567e-18
1.79053e-18
-2.39398e-17
3.43896e-18
-3.39254e-17
9.7593e-18
-3.35643e-17
1.12632e-17
-2.79155e-17
9.16703e-18
-1.81155e-17
5.95598e-18
-9.76505e-18
3.31285e-18
-4.59968e-18
2.10321e-18
-2.55057e-18
5.67523e-19
1.04903e-19
-6.91613e-19
-2.61601e-14
7.64066e-13
-7.32542e-17
1.52849e-13
-7.6119e-17
7.86015e-17
-7.62634e-17
2.80224e-16
-5.67716e-18
1.31844e-16
-5.46264e-18
1.22276e-17
-5.80547e-18
1.17844e-17
-5.5581e-19
8.17187e-18
2.75852e-19
4.58014e-19
4.71989e-19
-6.39137e-19
7.22793e-19
-9.40907e-19
7.27851e-19
-1.25233e-18
2.37431e-19
-1.1041e-18
-4.56007e-19
-3.16956e-19
-1.41402e-18
5.37826e-19
-2.37004e-18
1.89053e-18
-2.18471e-18
1.89405e-19
-1.55579e-18
1.20589e-19
-1.05743e-18
6.69065e-20
-7.39138e-19
5.22169e-20
-4.36879e-19
3.66148e-20
-2.64389e-19
2.22052e-20
1.40859e-20
-2.2836e-19
-2.98559e-14
7.97717e-13
-1.9365e-17
4.86721e-13
-2.19985e-17
8.09674e-17
-1.61892e-17
8.74199e-17
-3.43648e-18
7.50953e-17
-1.14038e-18
1.15264e-17
-7.18188e-19
6.98399e-19
3.33595e-19
1.6512e-18
7.70587e-19
-1.07853e-18
9.68259e-19
-2.133e-18
1.05367e-18
-2.3188e-18
9.81056e-19
-2.20113e-18
7.22655e-19
-1.79845e-18
3.93252e-19
-1.16734e-18
7.44181e-20
-5.61349e-19
-7.19677e-21
-9.40663e-20
-5.01343e-21
8.06672e-21
-1.46122e-21
4.25288e-21
-2.12638e-22
1.12688e-21
-6.7437e-22
3.25836e-22
-4.92832e-22
4.39965e-22
-8.24144e-23
2.32034e-22
3.35848e-23
-3.87404e-22
-3.34299e-14
8.31177e-13
-1.21996e-17
8.53118e-13
-1.46101e-17
8.31113e-17
-9.76558e-18
8.09304e-17
-3.37319e-18
7.69317e-17
-8.3091e-20
1.17688e-17
6.03212e-20
8.08654e-20
4.70875e-19
-2.71075e-19
7.54326e-19
-1.80942e-18
8.79579e-19
-2.5038e-18
8.93621e-19
-2.54278e-18
8.11853e-19
-2.26454e-18
6.5823e-19
-1.81192e-18
4.83965e-19
-1.29787e-18
3.32137e-19
-8.44591e-19
2.32956e-19
-5.1337e-19
1.73201e-19
-3.1871e-19
1.27578e-19
-2.09118e-19
8.8904e-20
-1.3485e-19
5.72364e-20
-8.07228e-20
3.4077e-20
-4.28107e-20
1.89007e-20
-1.91416e-20
-6.30059e-21
9.76419e-21
-3.19218e-14
8.6313e-13
-1.21373e-17
8.21273e-13
-1.42261e-17
8.49328e-17
-1.04259e-17
9.61227e-17
-3.21313e-18
1.05133e-16
-1.22322e-19
1.34573e-17
9.4266e-20
1.72827e-19
3.25629e-19
-5.02151e-19
4.91205e-19
-1.50107e-18
5.63488e-19
-1.97487e-18
5.6148e-19
-1.98828e-18
5.05823e-19
-1.74728e-18
4.18599e-19
-1.39315e-18
3.23532e-19
-1.02268e-18
2.37842e-19
-7.01851e-19
1.70614e-19
-4.58007e-19
1.19946e-19
-2.91041e-19
8.16369e-20
-1.80322e-19
5.35759e-20
-1.06961e-19
3.38216e-20
-5.97602e-20
2.03584e-20
-3.05784e-20
1.15175e-20
-1.33761e-20
-4.0561e-21
6.11624e-21
-2.71678e-14
8.90327e-13
-1.70554e-17
4.13935e-13
-1.88022e-17
8.64133e-17
-1.48781e-17
1.91444e-16
-3.67917e-18
1.88926e-16
-4.12485e-19
2.10568e-17
-1.79074e-19
3.32887e-18
5.98722e-20
1.57227e-18
1.68371e-19
-3.37094e-19
2.36223e-19
-8.35381e-19
2.57817e-19
-1.03747e-18
2.42978e-19
-1.00586e-18
2.06172e-19
-8.4432e-19
1.61875e-19
-6.3917e-19
1.19668e-19
-4.48007e-19
8.43825e-20
-2.95472e-19
5.66758e-20
-1.85392e-19
3.62854e-20
-1.10131e-19
2.23041e-20
-6.15752e-20
1.33272e-20
-3.22018e-20
7.70244e-21
-1.54915e-20
4.22857e-21
-6.3369e-21
-1.61955e-21
2.14347e-21
-1.85935e-14
3.33507e-13
-3.13456e-17
4.9652e-16
-3.2771e-17
8.7576e-17
-2.64091e-17
4.77463e-16
-5.03316e-18
3.14262e-16
-1.29857e-18
4.10313e-17
-1.00842e-18
1.50855e-17
-7.00894e-19
1.1336e-17
-3.47982e-19
6.83894e-18
-7.01188e-20
3.1209e-18
5.24847e-20
9.68725e-19
7.92459e-20
-2.65554e-19
7.81709e-20
-3.59987e-19
6.42308e-20
-3.19376e-19
4.77106e-20
-2.36281e-19
3.31205e-20
-1.58048e-19
2.13243e-20
-9.86504e-20
1.27983e-20
-5.68433e-20
7.2236e-21
-3.01973e-20
3.90707e-21
-1.47211e-20
2.02994e-21
-6.50321e-21
9.9906e-22
-2.38411e-21
-4.41541e-22
4.40985e-22
-2.21663e-16
2.64105e-16
-1.89049e-17
2.83733e-16
-3.83988e-17
4.26978e-16
-3.52132e-17
6.6234e-16
-6.68637e-18
4.08573e-16
-2.75389e-18
7.53877e-17
-2.44273e-18
4.07156e-17
-2.03117e-18
3.38168e-17
-1.35244e-18
2.39805e-17
-6.98239e-19
1.36841e-17
-2.30511e-19
6.08888e-18
-1.93316e-20
1.75838e-18
1.96107e-20
2.45987e-19
2.01124e-20
-1.12469e-19
1.52649e-20
-1.05336e-19
1.04924e-20
-7.32684e-20
6.42888e-21
-4.63113e-20
3.53791e-21
-2.61598e-20
1.75226e-21
-1.32721e-20
7.83234e-22
-6.01943e-21
3.03862e-22
-2.4004e-21
8.50374e-23
-7.51355e-22
-6.3457e-23
-1.30117e-23
-6.35661e-18
2.68388e-16
-2.0195e-17
2.88953e-16
-3.21135e-17
6.77725e-16
-2.089e-17
7.28526e-16
-7.09059e-18
4.18166e-16
-3.99814e-18
1.16391e-16
-3.65574e-18
7.94126e-17
-3.14802e-18
6.77877e-17
-2.2858e-18
5.00652e-17
-1.30277e-18
3.13509e-17
-5.26504e-19
1.51145e-17
-1.26397e-19
5.12984e-18
2.78121e-22
1.01545e-18
4.66957e-21
-2.52116e-21
3.73191e-21
-3.9732e-20
2.50137e-21
-3.02492e-20
1.38746e-21
-1.97315e-20
6.3065e-22
-1.10179e-20
2.13685e-22
-5.36667e-21
2.7107e-23
-2.27121e-21
-7.04165e-23
-8.12324e-22
-9.35072e-23
-2.07517e-22
3.36844e-24
-8.25873e-23
-4.47357e-18
2.72055e-16
-1.5449e-17
2.91001e-16
-2.08706e-17
6.8199e-16
-1.65571e-17
7.09163e-16
-5.16078e-18
3.77215e-16
-3.68735e-18
1.45891e-16
-3.36874e-18
1.2036e-16
-2.88175e-18
1.05447e-16
-2.17455e-18
7.91317e-17
-1.29653e-18
5.22565e-17
-5.29349e-19
2.62337e-17
-1.17097e-19
8.74492e-18
-7.65356e-21
1.46674e-18
5.95777e-22
7.01344e-20
5.29757e-22
-1.1691e-20
2.80652e-22
-1.14206e-20
6.75329e-23
-7.80565e-21
-7.72548e-23
-4.32777e-21
-1.45713e-22
-2.02562e-21
-1.40103e-22
-7.99194e-22
-1.05954e-22
-2.55126e-22
-7.12911e-23
-5.07743e-23
4.039e-24
-4.5917e-23
-2.77762e-18
2.74027e-16
-7.70223e-18
2.46323e-16
-7.22879e-18
4.72833e-16
-4.11189e-18
4.28021e-16
-1.34139e-18
2.38276e-16
-9.4296e-19
1.50657e-16
-7.70285e-19
1.41511e-16
-6.29373e-19
1.32725e-16
-4.63125e-19
1.04696e-16
-2.64288e-19
7.06002e-17
-8.68362e-20
3.60546e-17
-9.06201e-21
1.11029e-17
2.8311e-22
1.51102e-18
5.53614e-22
6.96534e-20
-3.03796e-23
-1.54777e-21
-1.54957e-22
-4.02953e-21
-2.00418e-22
-2.92085e-21
-1.89255e-22
-1.60521e-21
-1.45852e-22
-7.1875e-22
-9.68179e-23
-2.63577e-22
-5.85428e-23
-7.54147e-23
-3.41099e-23
-1.09092e-23
2.0664e-24
-1.96125e-23
-1.02825e-18
3.29496e-16
-7.13813e-19
1.92872e-16
7.68248e-19
2.21436e-16
1.89683e-18
1.90302e-16
2.60924e-18
1.68344e-16
2.99012e-18
1.50066e-16
3.24091e-18
1.43139e-16
3.35982e-18
1.37785e-16
2.68533e-18
1.18425e-16
1.72732e-18
8.12378e-17
7.70926e-19
4.0891e-17
1.60695e-19
1.14889e-17
1.06068e-20
1.4119e-18
1.55371e-21
3.64756e-20
8.60513e-26
5.85984e-24
-1.3504e-22
-1.37048e-21
-1.4693e-22
-1.05151e-21
-1.1707e-22
-5.67746e-22
-7.77073e-23
-2.41724e-22
-4.54377e-23
-8.24251e-23
-2.47187e-23
-2.09927e-23
-1.31729e-23
-1.6983e-24
8.16709e-25
-7.03135e-24
-7.98559e-20
1.14958e-15
1.34522e-18
1.91313e-16
3.34559e-18
2.19363e-16
5.13419e-18
1.88441e-16
6.24453e-18
1.67162e-16
7.0195e-18
1.46789e-16
7.24054e-18
1.42006e-16
7.45829e-18
1.39051e-16
6.34022e-18
1.20157e-16
3.9761e-18
8.31532e-17
1.64134e-18
4.14072e-17
2.90435e-19
1.13366e-17
1.20503e-20
9.81108e-19
4.06502e-23
1.11434e-20
1.41027e-24
1.10156e-23
-6.98969e-23
-4.67234e-22
-7.39165e-23
-3.69643e-22
-5.45216e-23
-1.93706e-22
-3.3084e-23
-7.78459e-23
-1.77071e-23
-2.45105e-23
-8.8717e-24
-5.45304e-24
-4.41789e-24
-3.75976e-26
2.66776e-25
-2.22188e-24
1.45891e-17
2.44368e-15
3.46682e-18
2.02363e-16
6.48836e-18
2.1627e-16
8.99395e-18
1.85864e-16
1.02552e-17
1.65829e-16
1.06979e-17
1.46274e-16
1.07365e-17
1.35903e-16
1.13283e-17
1.38345e-16
9.57025e-18
1.2031e-16
5.92003e-18
8.33623e-17
2.3062e-18
4.02378e-17
3.23971e-19
9.25413e-18
6.77062e-21
4.93189e-19
8.31121e-24
2.57819e-21
6.09243e-25
1.38378e-24
-3.10956e-23
-1.62537e-22
-3.19158e-23
-1.28357e-22
-2.20002e-23
-6.42744e-23
-1.23079e-23
-2.411e-23
-6.0607e-24
-6.93221e-24
-2.79435e-24
-1.31187e-24
-1.30347e-24
2.57897e-26
7.31217e-26
-6.0874e-25
1.36024e-15
2.39026e-15
4.17798e-14
3.98022e-13
1.59822e-13
2.64747e-12
1.22163e-13
2.39648e-12
0
1.10624e-12
1.7829e-17
5.80728e-16
1.42624e-17
1.35299e-16
1.47528e-17
1.3492e-16
1.22672e-17
1.16416e-16
7.3083e-18
7.8637e-17
2.46416e-18
3.40312e-17
2.33018e-19
5.8031e-18
2.37522e-21
1.81542e-19
1.25196e-24
4.87319e-22
1.1782e-25
1.05111e-25
-1.30325e-23
-5.83218e-23
-1.26353e-23
-4.4298e-23
-8.05893e-24
-2.08031e-23
-4.12512e-24
-7.17565e-24
-1.84656e-24
-1.84923e-24
-7.72013e-25
-2.8764e-25
-3.33163e-25
1.11893e-26
1.68082e-26
-1.42814e-25
1.39864e-15
2.29863e-15
1.24275e-13
6.01858e-13
2.64348e-13
2.52754e-12
2.67191e-13
2.41091e-12
3.85844e-14
1.56165e-12
2.00132e-17
1.65711e-14
1.54269e-17
1.35521e-16
1.7364e-17
1.28074e-16
1.3866e-17
1.07407e-16
7.49284e-18
6.6933e-17
1.96019e-18
2.37804e-17
1.09835e-19
2.70515e-18
5.31689e-22
4.55314e-20
1.23973e-25
5.88668e-23
1.31673e-26
6.39793e-26
-5.34348e-24
-2.17179e-23
-4.70173e-24
-1.51912e-23
-2.72311e-24
-6.54716e-24
-1.25452e-24
-2.03829e-24
-4.99801e-25
-4.60228e-25
-1.8633e-25
-5.70577e-26
-7.30539e-26
3.04327e-27
3.19733e-27
-2.83101e-26
1.46586e-15
2.14013e-15
8.98518e-14
3.54018e-13
3.50601e-13
2.28408e-12
3.6504e-13
2.41373e-12
2.94356e-14
8.22735e-13
0
5.59668e-15
1.86237e-17
1.31729e-16
1.90299e-17
1.20764e-16
1.38199e-17
9.34717e-17
6.27264e-18
5.02253e-17
1.12622e-18
1.32225e-17
3.2306e-20
8.65642e-19
6.55628e-23
6.50656e-21
5.37589e-24
3.62833e-24
-5.24868e-25
-2.38124e-24
-2.17653e-24
-8.38971e-24
-1.6565e-24
-5.1488e-24
-8.51424e-25
-1.99063e-24
-3.45417e-25
-5.47779e-25
-1.19298e-25
-1.05782e-25
-3.86837e-26
-1.01451e-26
-1.34937e-26
6.14397e-28
4.92834e-28
-4.64284e-27
1.51222e-15
1.93559e-15
1.44824e-13
1.15607e-14
3.82755e-13
2.94927e-13
2.20657e-13
5.20282e-13
0
0
0
4.01755e-16
2.16209e-17
1.32416e-16
1.93834e-17
1.1331e-16
1.17293e-17
7.38898e-17
4.11159e-18
3.14423e-17
4.30144e-19
5.29557e-18
5.13467e-21
1.59992e-19
3.62398e-24
4.24819e-22
3.52811e-25
1.07195e-25
-5.38154e-25
-2.35653e-24
-8.6106e-25
-3.25643e-24
-5.5342e-25
-1.71458e-24
-2.46519e-25
-5.82077e-25
-8.57936e-26
-1.38375e-25
-2.48989e-26
-2.22766e-26
-6.7934e-27
-1.61496e-27
-2.05281e-27
9.52196e-29
5.99133e-29
-6.12966e-28
1.19259e-15
4.99059e-15
1.67793e-15
2.2714e-15
1.28638e-14
0
1.71236e-14
0
4.39323e-17
0
3.85544e-17
3.50128e-16
2.58792e-17
1.90414e-16
1.61757e-17
1.03765e-16
7.92232e-18
5.00163e-17
1.88649e-18
1.4586e-17
9.13518e-20
1.24705e-18
3.55662e-22
1.3237e-20
7.72471e-26
1.07769e-23
1.17848e-26
5.59032e-26
-3.10065e-25
-1.34436e-24
-3.28202e-25
-1.25137e-24
-1.76244e-25
-5.60934e-25
-6.64237e-26
-1.63958e-25
-1.92511e-26
-3.28786e-26
-4.52695e-27
-4.29339e-27
-9.96315e-28
-2.32646e-28
-2.51005e-28
1.13291e-29
5.54873e-30
-6.29894e-29
1.6664e-15
4.30751e-15
9.81678e-16
4.20588e-15
2.7293e-16
1.2182e-15
1.29021e-16
3.28303e-16
8.94671e-17
3.84184e-16
7.89465e-17
3.75575e-16
2.92369e-17
2.00157e-16
1.19952e-17
8.18265e-17
3.89677e-18
2.60601e-17
4.87844e-19
4.04164e-18
8.19579e-21
1.26846e-19
8.52736e-24
3.73711e-22
8.28294e-25
1.0751e-25
-1.21882e-26
-5.73841e-26
-1.53752e-25
-6.72807e-25
-1.21759e-25
-4.78061e-25
-5.40815e-26
-1.81347e-25
-1.68474e-26
-4.48725e-26
-3.94e-27
-7.42035e-27
-7.20425e-28
-7.6417e-28
-1.20742e-28
-3.08046e-29
-2.39864e-29
1.03061e-30
3.74745e-31
-4.82259e-30
1.42789e-15
8.36151e-16
1.70615e-15
3.75068e-15
6.951e-16
3.06191e-15
2.94287e-16
1.92276e-15
1.54942e-16
1.0808e-15
7.1861e-17
4.9604e-16
2.38154e-17
1.82101e-16
6.51962e-18
4.89271e-17
1.11809e-18
8.31566e-18