/*--------------------------------*- C++ -*----------------------------------*\
  =========                 |
  \\      /  F ield         | OpenFOAM: The Open Source CFD Toolbox
   \\    /   O peration     | Website:  https://openfoam.org
    \\  /    A nd           | Version:  9
     \\/     M anipulation  |
\*---------------------------------------------------------------------------*/
FoamFile
{
    format      ascii;
    class       volScalarField;
    location    "130";
    object      epsilon;
}
// * * * * * * * * * * * * * * * * * * * * * * * * * * * * * * * * * * * * * //

dimensions      [0 2 -3 0 0 0 0];

internalField   nonuniform List<scalar> 
12225
(
285.527
270.708
257.908
243.824
232.436
223.122
216.756
212.717
212.744
213.979
217.227
220.935
228.12
232.844
241.538
246.277
256.334
258.179
52.483
91.9114
106.945
114.795
124.798
136.861
152.635
170.002
191.122
211.048
235.368
255.63
281.45
299.589
325.618
340.156
365.534
381.837
20.524
34.8881
44.6568
50.4947
55.3674
59.6473
64.6246
69.6972
76.2813
83.2621
91.4258
99.4485
108.199
117.202
125.637
135.92
142.824
155.581
16.0036
19.4912
24.0709
27.5761
30.4827
32.8874
35.1381
37.3166
39.4837
41.9491
44.3225
47.2507
49.6797
53.1203
55.4533
59.39
61.5592
66.1085
15.0388
15.7143
17.3943
19.0845
20.6328
22.0337
23.2391
24.4404
25.4374
26.6059
27.5193
28.7735
29.6352
31.0089
31.8336
33.3165
34.1044
35.7927
14.7897
14.826
15.2491
15.8695
16.5645
17.2901
17.9209
18.5877
19.117
19.738
20.1928
20.8042
21.2114
21.8311
22.2075
22.8464
23.1851
23.9111
14.7657
14.6147
14.6409
14.7263
14.9338
15.221
15.4906
15.8102
16.0703
16.384
16.6184
16.9222
17.1326
17.4307
17.6201
17.9218
18.0817
18.4286
14.7686
14.5867
14.4659
14.3803
14.3675
14.3895
14.4395
14.5337
14.6183
14.7371
14.831
14.9572
15.0485
15.1778
15.2628
15.3967
15.4673
15.6309
14.768
14.5911
14.4348
14.2963
14.185
14.1044
14.0398
14.0067
13.9814
13.9786
13.9809
13.9919
14.0039
14.0305
14.047
14.0826
14.0988
14.1552
14.7665
14.594
14.432
14.2821
14.1429
14.0219
13.9115
13.8193
13.7369
13.6698
13.6102
13.5633
13.5181
13.4873
13.4517
13.4349
13.4025
13.4026
14.7659
14.5945
14.4321
14.2803
14.1361
14.0032
13.8781
13.7644
13.6581
13.5628
13.4734
13.3951
13.3197
13.256
13.1915
13.1409
13.084
13.0457
14.7657
14.5943
14.4321
14.2798
14.1353
13.9998
13.8715
13.7518
13.6384
13.5336
13.434
13.3429
13.2556
13.177
13.1002
13.0328
12.9648
12.9076
14.7657
14.5941
14.432
14.2794
14.1349
13.9989
13.8698
13.7484
13.6331
13.5249
13.4219
13.3256
13.2337
13.1483
13.0662
12.9906
12.9172
12.8504
14.7657
14.5939
14.4318
14.279
14.1346
13.9983
13.8691
13.7472
13.6315
13.5222
13.4184
13.3203
13.227
13.1389
13.055
12.9759
12.9003
12.8293
14.7657
14.5938
14.4317
14.2787
14.1342
13.9977
13.8686
13.7464
13.6307
13.5211
13.417
13.3185
13.2249
13.1361
13.0517
12.9716
12.8953
12.823
14.7657
14.5937
14.4316
14.2785
14.1339
13.9973
13.8681
13.7458
13.63
13.5202
13.4161
13.3174
13.2237
13.1347
13.0502
12.9698
12.8934
12.8207
14.7657
14.5937
14.4315
14.2783
14.1337
13.997
13.8677
13.7453
13.6294
13.5196
13.4154
13.3166
13.2228
13.1337
13.0491
12.9686
12.8921
12.8193
14.7657
14.5937
14.4314
14.2782
14.1335
13.9968
13.8674
13.745
13.629
13.5191
13.4149
13.316
13.2221
13.133
13.0482
12.9677
12.8911
12.8182
14.7657
14.5937
14.4314
14.2782
14.1335
13.9967
13.8673
13.7449
13.6288
13.5189
13.4146
13.3157
13.2218
13.1326
13.0478
12.9672
12.8906
12.8176
14.7657
14.5937
14.4314
14.2783
14.1336
13.9968
13.8674
13.745
13.629
13.5191
13.4148
13.3159
13.222
13.1328
13.048
12.9675
12.8908
12.8178
14.7657
14.5937
14.4315
14.2784
14.1338
13.997
13.8678
13.7453
13.6295
13.5196
13.4155
13.3167
13.223
13.1339
13.0494
12.969
12.8927
12.82
14.7657
14.5937
14.4316
14.2785
14.1341
13.9975
13.8685
13.7464
13.6312
13.5221
13.4191
13.3214
13.2293
13.1419
13.0595
12.9811
12.9074
12.8369
14.7658
14.5937
14.4318
14.2788
14.1353
14.0002
13.8742
13.756
13.6463
13.5435
13.4485
13.3592
13.277
13.1993
13.1282
13.0602
12.9988
12.9387
14.7661
14.5928
14.4329
14.2844
14.1515
14.0321
13.9289
13.8375
13.7593
13.6894
13.6307
13.5769
13.5328
13.4905
13.4574
13.423
13.3989
13.3693
14.7641
14.5936
14.461
14.3603
14.3029
14.2766
14.2796
14.2939
14.3202
14.3529
14.3958
14.4345
14.4824
14.5217
14.572
14.6089
14.6617
14.694
14.757
14.6921
14.7579
14.9172
15.1828
15.4611
15.7475
16.012
16.2722
16.5037
16.736
16.9385
17.1507
17.3309
17.531
17.6938
17.8891
18.0363
14.9575
15.4344
16.5693
17.6883
18.7052
19.5676
20.3371
20.9967
21.6193
22.1658
22.7187
23.2107
23.7399
24.2043
24.7329
25.1831
25.7257
26.1672
16.258
20.9389
25.0149
27.7587
29.7842
31.3583
32.7763
34.0579
35.3588
36.6157
37.9749
39.2968
40.7614
42.1459
43.7186
45.1752
46.8864
48.3625
29.9427
47.2249
54.8701
58.673
61.6131
64.4311
67.5782
70.9775
74.7362
78.7124
82.9837
87.3436
91.9052
96.4519
101.104
105.629
110.185
114.591
165.79
160.073
154.899
149.564
144.479
139.678
135.613
132.11
129.27
126.973
125.319
124.044
123.339
122.829
122.825
122.982
123.27
123.829
2.09542
1.52326
2.40624
3.22357
4.01852
4.78647
5.5112
6.17003
6.72903
7.15282
7.38774
7.43508
7.27123
7.49465
7.89206
8.23321
8.43481
8.43161
8.08648
7.06743
8.16022
38.7823
42.1047
41.8322
47.3933
51.6439
56.6846
61.8972
67.4
73.1553
79.1267
85.3337
91.7299
98.3456
105.138
112.147
119.331
126.735
134.315
142.121
150.11
158.337
166.762
175.442
184.34
193.515
202.93
212.636
222.582
232.818
243.306
254.099
265.159
276.536
288.195
300.185
312.467
325.089
338.016
351.29
364.874
378.806
393.053
407.645
422.55
437.788
453.333
469.189
485.336
501.762
518.452
535.373
552.517
569.825
587.295
604.843
622.47
640.067
657.645
675.099
692.52
709.905
727.377
744.569
761.63
778.361
794.839
810.871
826.479
841.501
855.853
869.498
882.317
894.269
905.246
915.22
924.103
931.916
938.659
944.527
948.867
950.86
953.335
952.71
949.153
947.631
944.031
939.293
933.441
926.537
918.692
909.95
900.438
890.204
879.376
867.992
856.136
843.824
831.367
818.754
806.123
793.536
781.099
768.852
756.862
745.144
733.752
722.694
712.004
701.695
691.78
682.266
673.141
664.411
656.045
648.053
640.385
633.038
625.971
619.212
612.751
606.572
600.647
594.921
589.365
583.931
578.596
573.315
568.065
562.803
557.51
552.149
546.711
541.16
535.488
529.678
523.723
517.607
511.341
504.906
498.299
491.547
484.979
480.99
478.022
475.177
472.369
469.584
466.776
463.918
460.979
457.923
454.714
451.31
447.625
443.608
439.041
433.581
427.213
398.393
5.68934
3.33752
3.21783
3.514
3.99416
4.57824
5.22683
5.90962
6.59728
7.27074
7.94023
8.64861
9.42297
10.2957
11.2313
12.2286
13.3424
14.6986
16.5602
19.2966
22.7452
27.2386
29.4383
31.5806
34.1682
36.6988
39.3484
42.0756
44.8816
47.7608
50.71
53.7318
56.826
59.9988
63.254
66.5939
70.0089
73.5047
77.0807
80.7432
84.4917
88.3333
92.2676
96.3018
100.435
104.675
109.019
113.47
118.025
122.688
127.459
132.341
137.334
142.441
147.661
152.997
158.446
164.013
169.693
175.488
181.395
187.414
193.542
199.777
206.114
212.55
219.08
225.698
232.397
239.169
246.006
252.896
259.83
266.793
273.774
280.756
287.731
294.681
301.607
308.507
315.409
322.351
329.421
336.48
343.453
350.312
357.047
363.619
370.01
376.176
382.095
387.741
393.081
398.088
402.733
406.993
410.843
414.269
417.248
419.75
421.672
423.006
423.761
424.004
423.605
423.157
422.073
420.488
418.439
415.963
413.086
409.842
406.264
402.386
398.243
393.867
389.288
384.546
379.698
374.77
369.802
364.825
359.873
354.969
350.134
345.381
340.727
336.182
331.758
327.461
323.298
319.272
315.383
311.63
308.01
304.52
301.153
297.904
294.769
291.749
288.846
286.049
283.351
280.734
278.189
275.7
273.261
270.855
268.475
266.106
263.743
261.371
258.989
256.583
254.152
251.687
249.188
246.65
244.076
241.465
238.822
236.164
233.603
231.588
229.811
228.082
226.367
224.653
222.922
221.16
219.355
217.493
215.562
213.552
211.445
209.25
206.932
204.651
202.642
199.163
10.3138
5.3636
4.69408
4.74463
5.08327
5.59999
6.24947
7.00733
7.86085
8.80259
9.82251
10.9108
12.0663
13.2795
14.5445
15.8855
17.3361
18.9483
20.7718
22.8095
24.9932
27.2074
29.1928
31.1968
33.2884
35.4271
37.6242
39.8807
42.1958
44.5682
46.9975
49.4848
52.0356
54.6482
57.3226
60.0595
62.8585
65.7215
68.6494
71.6445
74.708
77.842
81.0479
84.3277
87.6824
91.1137
94.6219
98.208
101.872
105.615
109.438
113.341
117.325
121.391
125.539
129.769
134.08
138.474
142.95
147.506
152.142
156.855
161.645
166.51
171.446
176.451
181.522
186.655
191.847
197.092
202.386
207.723
213.099
218.506
223.94
229.395
234.867
240.351
245.849
251.36
256.89
262.439
268.006
273.545
279.03
284.443
289.767
294.981
300.067
304.999
309.755
314.314
318.654
322.75
326.58
330.121
333.352
336.252
338.799
340.968
342.73
344.079
344.984
345.479
345.599
345.486
344.917
343.949
342.61
340.925
338.917
336.61
334.031
331.205
328.161
324.926
321.527
317.995
314.361
310.652
306.894
303.114
299.333
295.572
291.845
288.167
284.548
280.999
277.527
274.138
270.838
267.628
264.51
261.484
258.548
255.701
252.938
250.257
247.656
245.135
242.691
240.32
238.014
235.764
233.563
231.402
229.274
227.17
225.083
223.006
220.932
218.854
216.768
214.668
212.55
210.412
208.251
206.067
203.859
201.632
199.389
197.137
194.925
192.89
190.951
189.04
187.134
185.22
183.288
181.33
179.337
177.304
175.225
173.099
170.928
168.731
166.521
164.487
162.82
161.605
15.1812
7.58884
6.37089
6.22445
6.47929
6.96849
7.62788
8.42696
9.34692
10.3728
11.4899
12.6846
13.9474
15.2651
16.6292
18.0417
19.5189
21.0767
22.7217
24.4424
26.2727
28.1518
30.044
31.9805
33.9755
36.0238
38.1261
40.2842
42.4978
44.7635
47.0788
49.4401
51.8553
54.3264
56.8547
59.4411
62.086
64.7907
67.5561
70.3834
73.2736
76.2277
79.2467
82.3316
85.4834
88.7028
91.9905
95.3473
98.7734
102.27
105.837
109.475
113.184
116.966
120.819
124.744
128.741
132.81
136.953
141.169
145.455
149.811
154.236
158.727
163.284
167.904
172.586
177.328
182.126
186.978
191.881
196.832
201.828
206.866
211.943
217.055
222.201
227.378
232.583
237.814
243.069
248.344
253.624
258.886
264.113
269.29
274.402
279.43
284.356
289.159
293.818
298.313
302.62
306.718
310.582
314.189
317.517
320.543
323.244
325.6
327.591
329.207
330.439
331.288
331.722
331.888
331.649
331.028
330.045
328.721
327.077
325.135
322.919
320.456
317.771
314.891
311.844
308.656
305.355
301.967
298.517
295.028
291.522
288.017
284.529
281.071
277.654
274.288
270.981
267.739
264.566
261.465
258.437
255.483
252.602
249.792
247.052
244.379
241.77
239.226
236.742
234.315
231.938
229.605
227.309
225.045
222.805
220.583
218.371
216.166
213.961
211.75
209.53
207.297
205.047
202.78
200.492
198.183
195.854
193.504
191.135
188.756
186.39
184.093
181.827
179.576
177.325
175.067
172.795
170.503
168.189
165.848
163.48
161.088
158.685
156.292
153.945
151.815
150.054
148.951
19.9373
9.83784
8.07258
7.73256
7.8925
8.33502
8.97163
9.76088
10.6779
11.704
12.8229
14.0202
15.2839
16.605
17.9782
19.4025
20.8827
22.424
24.0296
25.7005
27.4389
29.2357
31.0846
32.9879
34.9469
36.96
39.0259
41.1439
43.3139
45.5379
47.817
50.1533
52.5475
54.999
57.5081
60.0754
62.7016
65.3876
68.1344
70.9434
73.8153
76.7502
79.7488
82.8119
85.9401
89.1345
92.3954
95.7237
99.12
102.585
106.119
109.722
113.396
117.14
120.955
124.84
128.796
132.821
136.922
141.094
145.338
149.653
154.037
158.491
163.013
167.601
172.256
176.975
181.757
186.6
191.503
196.463
201.479
206.548
211.669
216.839
222.056
227.317
232.617
237.954
243.323
248.717
254.12
259.521
264.905
270.258
275.566
280.811
285.976
291.042
295.984
300.785
305.418
309.862
314.089
318.076
321.795
325.223
328.335
331.109
333.524
335.566
337.225
338.494
339.363
339.819
339.929
339.634
338.955
337.908
336.516
334.799
332.783
330.493
327.957
325.201
322.253
319.142
315.896
312.54
309.101
305.603
302.068
298.515
294.961
291.421
287.908
284.431
280.999
277.619
274.296
271.033
267.833
264.695
261.62
258.607
255.653
252.758
249.918
247.132
244.396
241.707
239.058
236.445
233.862
231.302
228.761
226.232
223.709
221.188
218.664
216.132
213.589
211.031
208.456
205.862
203.248
200.612
197.954
195.277
192.581
189.873
187.165
184.484
181.823
179.172
176.526
173.879
171.228
168.569
165.901
163.224
160.54
157.854
155.177
152.536
149.979
147.653
145.67
144.273
24.3838
11.9862
9.68913
9.15367
9.20871
9.58857
10.1808
10.9331
11.8158
12.8085
13.8954
15.0633
16.302
17.6039
18.9643
20.3812
21.8551
23.3876
24.9802
26.6342
28.3499
30.1259
31.9606
33.8533
35.8036
37.8106
39.8739
41.9933
44.1694
46.403
48.6951
51.0467
53.4582
55.9301
58.4628
61.0567
63.7125
66.4309
69.2123
72.0573
74.9665
77.9409
80.9816
84.0892
87.2645
90.5083
93.8215
97.2047
100.659
104.184
107.783
111.454
115.199
119.018
122.913
126.883
130.929
135.053
139.255
143.535
147.891
152.325
156.835
161.423
166.086
170.825
175.638
180.526
185.488
190.521
195.627
200.802
206.046
211.358
216.735
222.176
227.679
233.239
238.852
244.514
250.216
255.951
261.709
267.481
273.255
279.016
284.752
290.445
296.078
301.629
307.077
312.399
317.57
322.564
327.352
331.907
336.198
340.198
343.879
347.214
350.181
352.758
354.93
356.685
358.014
358.901
359.343
359.387
359.004
358.212
357.031
355.484
353.596
351.393
348.905
346.161
343.191
340.024
336.69
333.219
329.637
325.971
322.245
318.481
314.697
310.91
307.134
303.382
299.662
295.983
292.351
288.769
285.241
281.767
278.348
274.983
271.672
268.411
265.199
262.033
258.909
255.825
252.773
249.751
246.752
243.77
240.802
237.841
234.883
231.923
228.956
225.979
222.988
219.981
216.955
213.91
210.845
207.759
204.654
201.531
198.393
195.244
192.094
188.956
185.833
182.724
179.627
176.541
173.464
170.396
167.338
164.291
161.258
158.249
155.277
152.376
149.588
147.034
144.793
143.029
28.3735
13.9462
11.1499
10.4177
10.3682
10.6775
11.2164
11.9224
12.7614
13.7118
14.7583
15.889
17.0951
18.3698
19.7087
21.1092
22.5703
24.092
25.6748
27.3192
29.0255
30.7936
32.6229
34.5132
36.4642
38.4757
40.5478
42.6807
44.8751
47.1316
49.4512
51.8346
54.2824
56.7954
59.3741
62.0192
64.7312
67.5109
70.3589
73.2757
76.2623
79.3194
82.4479
85.6486
88.9225
92.2704
95.6933
99.1921
102.768
106.421
110.154
113.966
117.859
121.834
125.891
130.032
134.258
138.569
142.967
147.45
152.02
156.677
161.42
166.251
171.168
176.173
181.263
186.44
191.703
197.051
202.483
207.999
213.597
219.277
225.036
230.873
236.785
242.769
248.82
254.934
261.104
267.322
273.581
279.87
286.18
292.496
298.805
305.091
311.335
317.515
323.609
329.591
335.436
341.113
346.592
351.84
356.826
361.514
365.874
369.873
373.482
376.677
379.435
381.738
383.572
384.929
385.787
386.167
386.092
385.554
384.573
383.172
381.377
379.218
376.725
373.93
370.865
367.563
364.057
360.379
356.559
352.626
348.607
344.526
340.404
336.261
332.113
327.974
323.855
319.766
315.713
311.702
307.736
303.817
299.945
296.121
292.343
288.609
284.918
281.267
277.651
274.066
270.509
266.974
263.456
259.951
256.453
252.959
249.462
245.96
242.448
238.923
235.384
231.827
228.251
224.658
221.046
217.417
213.773
210.117
206.452
202.783
199.119
195.468
191.837
188.229
184.646
181.091
177.563
174.065
170.598
167.167
163.776
160.434
157.157
153.975
150.931
148.121
145.592
143.449
31.8218
15.6634
12.4139
11.4893
11.3409
11.5799
12.0643
12.7229
13.5178
14.4259
15.4319
16.5249
17.6965
18.9409
20.2538
21.6324
23.0753
24.5817
26.1514
27.7846
29.4816
31.2424
33.0673
34.9564
36.9099
38.9283
41.012
43.1617
45.378
47.6619
50.0143
52.4363
54.9288
57.4928
60.1291
62.8385
65.6218
68.4799
71.4135
74.4233
77.5104
80.6756
83.9198
87.2441
90.6495
94.137
97.7078
101.363
105.104
108.932
112.848
116.853
120.949
125.138
129.419
133.795
138.266
142.833
147.498
152.261
157.123
162.083
167.144
172.303
177.563
182.923
188.383
193.943
199.602
205.36
211.217
217.171
223.223
229.37
235.61
241.943
248.365
254.874
261.464
268.132
274.872
281.676
288.538
295.447
302.394
309.365
316.347
323.323
330.274
337.178
344.011
350.747
357.355
363.805
370.062
376.09
381.851
387.307
392.421
397.155
401.475
405.348
408.746
411.645
414.026
415.876
417.187
417.939
418.176
417.895
417.109
415.84
414.118
411.973
409.439
406.55
403.342
399.851
396.113
392.164
388.038
383.767
379.38
374.905
370.368
365.789
361.187
356.578
351.976
347.392
342.833
338.307
333.817
329.365
324.954
320.584
316.253
311.959
307.702
303.476
299.28
295.108
290.956
286.819
282.694
278.576
274.46
270.342
266.218
262.085
257.939
253.78
249.604
245.412
241.203
236.979
232.741
228.492
224.235
219.975
215.716
211.466
207.231
203.02
198.842
194.702
190.607
186.559
182.562
178.619
174.734
170.911
167.155
163.477
159.891
156.425
153.114
150.039
147.217
144.714
34.6947
17.1129
13.4659
12.3646
12.1226
12.2946
12.7267
13.34
14.093
14.9612
15.9289
16.9854
18.123
19.336
20.6206
21.974
23.3946
24.8815
26.4343
28.0529
29.7376
31.4889
33.3074
35.1937
37.1487
39.1732
41.2681
43.4343
45.6728
47.9847
50.3711
52.834
55.3748
57.995
60.6956
63.4777
66.3425
69.2909
72.3239
75.4427
78.6483
81.9418
85.3243
88.7972
92.3615
96.0188
99.7703
103.618
107.562
111.605
115.748
119.994
124.342
128.796
133.356
138.023
142.8
147.687
152.686
157.797
163.02
168.358
173.81
179.376
185.057
190.854
196.765
202.79
208.93
215.184
221.551
228.03
234.62
241.319
248.127
255.04
262.056
269.172
276.384
283.688
291.077
298.546
306.086
313.689
321.345
329.041
336.762
344.493
352.214
359.902
367.532
375.077
382.504
389.779
396.865
403.721
410.306
416.576
422.488
427.998
433.065
437.651
441.72
445.242
448.193
450.555
452.318
453.468
454.021
453.993
453.393
452.242
450.572
448.416
445.811
442.793
439.403
435.68
431.664
427.394
422.908
418.243
413.431
408.504
403.489
398.411
393.292
388.148
382.997
377.85
372.717
367.606
362.522
357.469
352.447
347.458
342.501
337.574
332.675
327.802
322.949
318.114
313.291
308.477
303.668
298.859
294.047
289.228
284.399
279.558
274.703
269.832
264.946
260.045
255.131
250.206
245.275
240.341
235.409
230.487
225.581
220.698
215.847
211.038
206.281
201.584
196.953
192.396
187.917
183.521
179.211
174.993
170.873
166.858
162.965
159.214
155.637
152.296
149.187
146.353
36.9921
18.2916
14.3093
13.0518
12.7237
12.8338
13.2171
13.7881
14.502
15.333
16.2649
17.2869
18.3914
19.5733
20.8287
22.1552
23.5513
25.0163
26.5503
28.1517
29.8213
31.5603
33.37
35.2517
37.2066
39.2361
41.3415
43.524
45.7849
48.1249
50.5441
53.0482
55.6396
58.3199
61.0905
63.9528
66.9083
69.9583
73.1041
76.3472
79.689
83.1309
86.6743
90.3209
94.0721
97.9297
101.895
105.971
110.158
114.458
118.874
123.407
128.059
132.832
137.727
142.746
147.89
153.162
158.561
164.09
169.748
175.537
181.456
187.507
193.689
200.002
206.446
213.02
219.723
226.556
233.515
240.601
247.811
255.144
262.597
270.168
277.854
285.651
293.556
301.563
309.667
317.862
326.139
334.489
342.903
351.368
359.87
368.392
376.915
385.416
393.868
402.243
410.508
418.624
426.553
434.25
441.669
448.761
455.478
461.769
467.588
472.889
477.63
481.775
485.293
488.162
490.367
491.899
492.763
492.97
492.539
491.481
489.836
487.64
484.932
481.752
478.144
474.15
469.814
465.181
460.293
455.188
449.904
444.475
438.933
433.305
427.616
421.885
416.131
410.367
404.605
398.853
393.118
387.404
381.713
376.045
370.402
364.781
359.18
353.595
348.024
342.461
336.904
331.347
325.788
320.223
314.649
309.063
303.463
297.848
292.217
286.571
280.911
275.239
269.559
263.876
258.195
252.522
246.866
241.234
235.635
230.08
224.578
219.141
213.78
208.504
203.324
198.246
193.277
188.423
183.688
179.077
174.594
170.249
166.053
162.024
158.184
154.584
151.201
148.07
38.7378
19.2099
14.9579
13.5678
13.1629
13.2171
13.5555
14.0874
14.7652
15.5619
16.4605
17.4502
18.5235
19.6754
20.9025
22.2017
23.572
25.014
26.5292
28.1131
29.7678
31.4948
33.2957
35.1723
37.1264
39.1599
41.2747
43.473
45.7565
48.1268
50.5833
53.1324
55.7788
58.5254
61.3742
64.3269
67.3855
70.5516
73.8272
77.214
80.7139
84.3288
88.0606
91.9111
95.8825
99.9769
104.196
108.543
113.018
117.625
122.366
127.242
132.256
137.41
142.705
148.143
153.726
159.455
165.332
171.356
177.529
183.851
190.322
196.943
203.712
210.629
217.693
224.903
232.258
239.755
247.394
255.171
263.084
271.131
279.308
287.612
296.039
304.585
313.246
322.016
330.888
339.855
348.911
358.044
367.245
376.502
385.799
395.121
404.447
413.756
423.02
432.209
441.291
450.224
458.968
467.475
475.695
483.575
491.06
498.096
504.629
510.607
515.983
520.712
524.76
528.1
530.711
532.586
533.723
534.131
533.834
532.833
531.174
528.901
526.053
522.673
518.808
514.505
509.812
504.776
499.443
493.858
488.061
482.091
475.98
469.761
463.46
457.099
450.698
444.274
437.838
431.401
424.97
418.549
412.141
405.749
399.371
393.006
386.652
380.306
373.964
367.622
361.277
354.925
348.563
342.188
335.797
329.39
322.965
316.522
310.062
303.588
297.101
290.608
284.113
277.624
271.147
264.693
258.272
251.893
245.569
239.311
233.132
227.044
221.061
215.194
209.453
203.849
198.388
193.076
187.919
182.92
178.084
173.416
168.926
164.627
160.536
156.689
153.051
149.656
39.9644
19.8841
15.4297
13.9327
13.4619
13.4673
13.7654
14.2617
14.9066
15.672
16.5405
17.5009
18.5456
19.6704
20.874
22.1499
23.4977
24.9166
26.4058
27.9678
29.6042
31.3173
33.109
34.9818
36.9383
38.9811
41.1129
43.3363
45.6542
48.0694
50.5771
53.1801
55.8925
58.7179
61.6598
64.7205
67.9022
71.2074
74.6384
78.1976
81.8873
85.7101
89.6683
93.7646
98.0013
102.381
106.906
111.58
116.404
121.381
126.514
131.804
137.254
142.866
148.642
154.583
160.691
166.966
173.411
180.024
186.807
193.759
200.879
208.167
215.622
223.242
231.025
238.969
247.071
255.329
263.739
272.297
281
289.843
298.822
307.933
317.17
326.527
336
345.58
355.261
365.035
374.893
384.824
394.818
404.861
414.94
425.037
435.134
445.208
455.232
465.178
475.009
484.688
494.169
503.403
512.338
520.917
529.082
536.773
543.931
550.498
556.422
561.653
566.152
569.886
572.834
574.983
576.33
576.879
576.658
575.658
573.93
571.529
568.495
564.871
560.707
556.053
550.961
545.484
539.67
533.568
527.222
520.674
513.961
507.116
500.17
493.146
486.066
478.947
471.804
464.648
457.485
450.323
443.164
436.009
428.86
421.713
414.568
407.422
400.27
393.109
385.935
378.747
371.54
364.312
357.063
349.793
342.5
335.187
327.857
320.513
313.16
305.806
298.459
291.127
283.822
276.555
269.339
262.187
255.113
248.132
241.258
234.506
227.891
221.426
215.123
208.992
203.042
197.28
191.709
186.333
181.155
176.178
171.409
166.854
162.526
158.45
154.58
150.955
40.7357
20.3405
15.7465
14.1689
13.643
13.6089
13.8717
14.337
14.9536
15.6917
16.5344
17.4725
18.4941
19.5944
20.7691
22.0185
23.3425
24.7419
26.2169
27.7685
29.3985
31.1091
32.9034
34.7845
36.7561
38.8226
40.985
43.2462
45.6103
48.0806
50.6524
53.3359
56.141
59.0732
62.1368
65.3367
68.6767
72.1595
75.7881
79.5653
83.4945
87.5787
91.8211
96.2248
100.793
105.529
110.435
115.515
120.771
126.205
131.821
137.621
143.606
149.778
156.14
162.692
169.435
176.369
183.495
190.813
198.322
206.021
213.907
221.98
230.236
238.672
247.286
256.073
265.029
274.149
283.429
292.862
302.442
312.165
322.022
332.008
342.115
352.336
362.663
373.088
383.6
394.192
404.852
415.568
426.33
437.123
447.932
458.741
469.53
480.279
490.962
501.55
512.009
522.301
532.379
542.196
551.697
560.823
569.514
577.706
585.338
592.347
598.677
604.275
609.096
613.104
616.274
618.592
620.051
620.65
620.423
619.34
617.473
614.88
611.6
607.679
603.167
598.117
592.586
586.628
580.297
573.645
566.72
559.565
552.222
544.726
537.109
529.397
521.614
513.779
505.905
498.006
490.089
482.161
474.225
466.283
458.336
450.382
442.419
434.445
426.455
418.446
410.415
402.36
394.279
386.169
378.032
369.867
361.677
353.464
345.234
336.991
328.745
320.504
312.278
304.08
295.924
287.823
279.795
271.854
264.017
256.303
248.727
241.307
234.059
226.998
220.137
213.488
207.06
200.859
194.889
189.153
183.651
178.383
173.352
168.562
164.015
159.732
155.653
151.831
41.0451
20.5887
15.9233
14.294
13.7278
13.6636
13.8998
14.3412
14.9371
15.655
16.4768
17.3901
18.3898
19.4726
20.635
21.8754
23.1936
24.5906
26.068
27.6258
29.2664
30.9931
32.8096
34.7198
36.728
38.838
41.0481
43.3663
45.7986
48.3502
51.0268
53.8351
56.782
59.8736
63.1158
66.5143
70.0749
73.8017
77.6987
81.7698
86.019
90.4504
95.0681
99.8757
104.877
110.076
115.475
121.077
126.886
132.904
139.133
145.575
152.232
159.105
166.194
173.499
181.022
188.761
196.715
204.882
213.26
221.847
230.639
239.632
248.822
258.204
267.772
277.52
287.442
297.53
307.777
318.174
328.714
339.388
350.186
361.098
372.116
383.23
394.428
405.7
417.034
428.418
439.841
451.288
462.747
474.202
485.638
497.039
508.386
519.657
530.832
541.882
552.776
563.476
573.94
584.119
593.96
603.405
612.393
620.86
628.742
635.976
642.504
648.269
653.224
657.332
660.564
662.903
664.342
664.864
664.518
663.24
661.147
658.283
654.688
650.409
645.496
640.005
633.992
627.518
620.639
613.408
605.878
598.095
590.103
581.938
573.635
565.222
556.722
548.156
539.539
530.884
522.2
513.493
504.767
496.025
487.265
478.489
469.692
460.873
452.028
443.154
434.248
425.309
416.335
407.325
398.281
389.204
380.098
370.967
361.819
352.662
343.506
334.362
325.245
316.169
307.151
298.209
289.361
280.627
272.026
263.579
255.305
247.224
239.353
231.708
224.304
217.155
210.267
203.649
197.301
191.226
185.417
179.876
174.604
169.598
164.857
160.404
156.161
152.191
40.9679
20.6496
15.9798
14.3289
13.7398
13.6577
13.8795
14.305
14.8834
15.5867
16.4005
17.3115
18.3123
19.3988
20.5687
21.8212
23.1562
24.5747
26.0778
27.6641
29.3393
31.1078
32.9745
34.9443
37.0227
39.2153
41.5276
43.9657
46.5362
49.2461
52.1029
55.1139
58.2863
61.6275
65.1445
68.8448
72.7342
76.8189
81.105
85.5977
90.3019
95.2223
100.364
105.73
111.326
117.154
123.219
129.522
136.066
142.853
149.883
157.159
164.679
172.445
180.454
188.705
197.197
205.926
214.89
224.085
233.505
243.146
253.003
263.068
273.334
283.794
294.439
305.261
316.25
327.396
338.688
350.115
361.666
373.329
385.091
396.94
408.863
420.847
432.878
444.944
457.028
469.118
481.197
493.251
505.264
517.22
529.104
540.898
552.584
564.146
575.561
586.807
597.855
608.673
619.22
629.453
639.32
648.767
657.734
666.162
673.988
681.151
687.591
693.255
698.095
702.072
705.156
707.328
708.586
708.868
708.243
706.649
704.228
701.005
697.02
692.32
686.953
680.975
674.446
667.425
659.972
652.144
643.994
635.571
626.92
618.081
609.087
599.969
590.751
581.454
572.093
562.681
553.228
543.74
534.222
524.676
515.101
505.497
495.862
486.193
476.487
466.742
456.954
447.124
437.25
427.333
417.374
407.378
397.349
387.295
377.224
367.147
357.076
347.028
337.017
327.064
317.186
307.406
297.746
288.228
278.875
269.709
260.753
252.03
243.556
235.351
227.43
219.795
212.463
205.448
198.744
192.373
186.313
180.553
175.09
169.917
165.027
160.438
156.054
151.966
40.7019
20.6117
15.9586
14.3051
13.7095
13.6214
13.8366
14.2631
14.849
15.5655
16.3957
17.3248
18.3486
19.4638
20.669
21.964
23.3496
24.8277
26.401
28.0729
29.848
31.7316
33.7296
35.8486
38.0957
40.4782
43.004
45.681
48.5174
51.522
54.7035
58.0709
61.6328
65.3978
69.374
73.5686
77.9899
82.6477
87.5513
92.7057
98.1154
103.786
109.72
115.924
122.399
129.149
136.175
143.478
151.059
158.918
167.053
175.462
184.143
193.092
202.306
211.78
221.508
231.485
241.703
252.156
262.835
273.732
284.838
296.143
307.636
319.306
331.143
343.132
355.263
367.521
379.893
392.364
404.919
417.543
430.221
442.938
455.676
468.421
481.155
493.861
506.524
519.124
531.645
544.07
556.382
568.562
580.596
592.467
604.159
615.656
626.941
637.996
648.8
659.324
669.535
679.393
688.854
697.871
706.391
714.358
721.717
728.412
734.39
739.599
743.997
747.545
750.213
751.975
752.803
752.672
751.557
749.525
746.653
742.967
738.501
733.303
727.419
720.904
713.815
706.214
698.159
689.711
680.922
671.845
662.524
653
643.308
633.479
623.537
613.502
603.391
593.217
582.989
572.713
562.395
552.035
541.635
531.193
520.708
510.177
499.598
488.968
478.286
467.551
456.764
445.927
435.042
424.115
413.154
402.167
391.165
380.162
369.173
358.217
347.314
336.485
325.754
315.144
304.683
294.396
284.309
274.445
264.824
255.468
246.408
237.658
229.257
221.211
213.513
206.173
199.188
192.579
186.294
180.341
174.715
169.402
164.391
159.68
155.192
151.026
40.031
20.3842
15.8394
14.2249
13.6537
13.5953
13.8431
14.3
14.9211
15.6804
16.5622
17.5574
18.6605
19.8693
21.1833
22.6035
24.1324
25.7735
27.5315
29.4119
31.4208
33.5657
35.8544
38.2958
40.8989
43.6735
46.6295
49.777
53.1264
56.6885
60.474
64.4934
68.7571
73.275
78.0566
83.1116
88.4509
94.0857
100.018
106.254
112.799
119.654
126.823
134.306
142.104
150.214
158.635
167.364
176.396
185.727
195.349
205.257
215.443
225.899
236.615
247.582
258.79
270.228
281.885
293.75
305.81
318.055
330.47
343.043
355.76
368.608
381.572
394.637
407.788
421.009
434.285
447.597
460.929
474.264
487.584
500.87
514.106
527.271
540.349
553.32
566.165
578.865
591.401
603.754
615.906
627.84
639.54
650.991
662.18
673.095
683.724
694.057
704.08
713.771
723.102
732.042
740.559
748.613
756.162
763.161
769.566
775.334
780.417
784.773
788.366
791.167
793.143
794.259
794.423
793.636
791.896
789.323
785.918
781.703
776.713
770.988
764.574
757.523
749.889
741.729
733.103
724.069
714.682
704.993
695.048
684.887
674.546
664.054
653.436
642.711
631.896
621.003
610.042
599.019
587.938
576.802
565.61
554.362
543.057
531.693
520.267
508.778
497.227
485.612
473.936
462.201
450.414
438.58
426.71
414.814
402.908
391.006
379.127
367.294
355.53
343.861
332.313
320.912
309.681
298.649
287.855
277.321
267.107
257.222
247.68
238.493
229.717
221.301
213.274
205.648
198.419
191.587
185.13
179.04
173.303
167.9
162.816
158.039
153.491
149.304
39.1847
20.0833
15.6719
14.1412
13.6447
13.6477
13.9604
14.4978
15.2149
16.0875
17.1021
18.2519
19.5338
20.9476
22.495
24.1798
26.0068
27.9825
30.1143
32.4105
34.8802
37.5338
40.3824
43.4376
46.7112
50.2156
53.9627
57.9651
62.2351
66.785
71.6263
76.7702
82.2271
88.0067
94.118
100.569
107.368
114.525
122.043
129.919
138.15
146.733
155.661
164.929
174.529
184.453
194.69
205.23
216.061
227.171
238.548
250.178
262.047
274.141
286.447
298.948
311.632
324.483
337.487
350.63
363.898
377.276
390.75
404.306
417.93
431.607
445.321
459.059
472.803
486.538
500.248
513.916
527.522
541.051
554.483
567.801
580.985
594.016
606.876
619.546
632.006
644.236
656.217
667.929
679.354
690.474
701.28
711.757
721.895
731.687
741.127
750.214
758.944
767.3
775.258
782.798
789.902
796.542
802.69
808.315
813.389
817.881
821.755
824.975
827.522
829.385
830.525
830.793
830.169
828.622
826.299
823.173
819.247
814.536
809.067