/*--------------------------------*- C++ -*----------------------------------*\
  =========                 |
  \\      /  F ield         | OpenFOAM: The Open Source CFD Toolbox
   \\    /   O peration     | Website:  https://openfoam.org
    \\  /    A nd           | Version:  9
     \\/     M anipulation  |
\*---------------------------------------------------------------------------*/
FoamFile
{
    format      ascii;
    class       volVectorField;
    location    "130";
    object      U;
}
// * * * * * * * * * * * * * * * * * * * * * * * * * * * * * * * * * * * * * //

dimensions      [0 1 -1 0 0 0 0];

internalField   nonuniform List<vector> 
12225
(
(9.85699 -0.886393 0)
(9.66661 -0.740757 0)
(9.45565 -0.429461 0)
(9.22436 -0.22221 0)
(9.00625 -0.106433 0)
(8.81397 -0.0458378 0)
(8.64684 -0.0151507 0)
(8.50453 0.000501083 0)
(8.38247 0.00845239 0)
(8.27944 0.0123671 0)
(8.19037 0.0141189 0)
(8.11358 0.0151837 0)
(8.04563 0.0156628 0)
(7.98518 0.0160674 0)
(7.92927 0.0162648 0)
(7.87924 0.0172908 0)
(7.81559 0.0182189 0)
(7.80424 0.0199075 0)
(10.0545 0.227544 0)
(10.121 0.326944 0)
(10.1196 0.261579 0)
(10.0855 0.186578 0)
(10.0433 0.134702 0)
(9.99656 0.101168 0)
(9.94379 0.0793639 0)
(9.88484 0.0646565 0)
(9.82338 0.054386 0)
(9.76057 0.0468458 0)
(9.69889 0.0411572 0)
(9.63863 0.0367201 0)
(9.58089 0.0332384 0)
(9.5258 0.0306834 0)
(9.4729 0.0287171 0)
(9.42467 0.0290704 0)
(9.37392 0.0280459 0)
(9.3442 0.0441651 0)
(10.0035 0.057921 0)
(10.0303 0.0560196 0)
(10.056 0.0338104 0)
(10.0703 0.0329328 0)
(10.0769 0.0407046 0)
(10.0776 0.0466201 0)
(10.0723 0.049459 0)
(10.061 0.0504389 0)
(10.0456 0.0503886 0)
(10.027 0.0497449 0)
(10.0062 0.0488053 0)
(9.98358 0.0477964 0)
(9.95998 0.0468504 0)
(9.93567 0.0461899 0)
(9.9108 0.0457619 0)
(9.88639 0.0467374 0)
(9.86139 0.0477267 0)
(9.83959 0.0552189 0)
(9.99779 0.0110614 0)
(10.011 0.0266289 0)
(10.035 0.0371876 0)
(10.0524 0.0481389 0)
(10.0642 0.0555267 0)
(10.0732 0.0582849 0)
(10.0792 0.0584902 0)
(10.082 0.0577967 0)
(10.0822 0.0568144 0)
(10.0805 0.0557131 0)
(10.0771 0.0545775 0)
(10.0725 0.0535516 0)
(10.0666 0.0526675 0)
(10.06 0.0521193 0)
(10.0525 0.0518861 0)
(10.0449 0.0527512 0)
(10.0371 0.0540266 0)
(10.0305 0.0582202 0)
(9.99935 0.00720776 0)
(10.009 0.0316842 0)
(10.0274 0.0439693 0)
(10.0417 0.0499918 0)
(10.0526 0.0537071 0)
(10.0627 0.0553645 0)
(10.0713 0.0556895 0)
(10.0779 0.0554587 0)
(10.0829 0.0549977 0)
(10.0866 0.0544086 0)
(10.0891 0.0537636 0)
(10.0908 0.0531846 0)
(10.0916 0.0527274 0)
(10.0918 0.0525472 0)
(10.0914 0.0526847 0)
(10.091 0.0535711 0)
(10.0907 0.0549109 0)
(10.0914 0.0574201 0)
(10.0003 0.00919066 0)
(10.0083 0.0312073 0)
(10.0227 0.0410018 0)
(10.0349 0.0454772 0)
(10.0449 0.049154 0)
(10.0546 0.0515288 0)
(10.0635 0.0525629 0)
(10.071 0.0528661 0)
(10.0773 0.0528282 0)
(10.0828 0.0525978 0)
(10.0874 0.0522687 0)
(10.0913 0.0519557 0)
(10.0947 0.0517332 0)
(10.0976 0.051721 0)
(10.1001 0.0519767 0)
(10.1027 0.0527147 0)
(10.1055 0.0537835 0)
(10.1091 0.0552212 0)
(10.0005 0.00895957 0)
(10.0071 0.0271308 0)
(10.019 0.0364826 0)
(10.0301 0.0414908 0)
(10.0395 0.0455516 0)
(10.0485 0.0482631 0)
(10.057 0.0495927 0)
(10.0646 0.0501422 0)
(10.0712 0.0503231 0)
(10.0772 0.050293 0)
(10.0825 0.0501471 0)
(10.0874 0.0499877 0)
(10.0918 0.0498927 0)
(10.0958 0.0499503 0)
(10.0997 0.0502092 0)
(10.1036 0.0507582 0)
(10.1077 0.0514851 0)
(10.1124 0.0522189 0)
(10.0004 0.0079332 0)
(10.006 0.023433 0)
(10.0161 0.0328169 0)
(10.0262 0.0382182 0)
(10.035 0.0422556 0)
(10.0434 0.044991 0)
(10.0515 0.0464695 0)
(10.0588 0.0471915 0)
(10.0655 0.0475309 0)
(10.0715 0.0476441 0)
(10.0771 0.0476259 0)
(10.0823 0.0475681 0)
(10.0872 0.0475442 0)
(10.0918 0.0476178 0)
(10.0962 0.0478206 0)
(10.1008 0.0481716 0)
(10.1055 0.0485691 0)
(10.1106 0.0488115 0)
(10.0004 0.00697998 0)
(10.005 0.0204892 0)
(10.0136 0.0295471 0)
(10.0228 0.0349947 0)
(10.0311 0.0388928 0)
(10.039 0.0416125 0)
(10.0466 0.0432184 0)
(10.0537 0.0440877 0)
(10.0602 0.044552 0)
(10.0663 0.0447725 0)
(10.0719 0.044844 0)
(10.0772 0.0448499 0)
(10.0822 0.0448556 0)
(10.0871 0.0449067 0)
(10.0918 0.0450186 0)
(10.0966 0.0451761 0)
(10.1015 0.0452847 0)
(10.1067 0.0451786 0)
(10.0004 0.00615155 0)
(10.0043 0.017932 0)
(10.0116 0.0263811 0)
(10.0198 0.0317309 0)
(10.0275 0.0355075 0)
(10.035 0.0381968 0)
(10.0422 0.0398878 0)
(10.049 0.0408658 0)
(10.0554 0.0414224 0)
(10.0613 0.04172 0)
(10.0669 0.041852 0)
(10.0722 0.0418931 0)
(10.0773 0.0418996 0)
(10.0822 0.0419045 0)
(10.0871 0.0419115 0)
(10.0919 0.0418921 0)
(10.0969 0.0417645 0)
(10.1019 0.041412 0)
(10.0003 0.00539388 0)
(10.0036 0.0156306 0)
(10.0099 0.0233542 0)
(10.0172 0.0285102 0)
(10.0244 0.0321486 0)
(10.0314 0.0347653 0)
(10.0382 0.0364855 0)
(10.0448 0.0375311 0)
(10.0509 0.0381506 0)
(10.0567 0.0384998 0)
(10.0622 0.038669 0)
(10.0675 0.0387239 0)
(10.0726 0.0387126 0)
(10.0775 0.0386593 0)
(10.0824 0.038562 0)
(10.0872 0.0383905 0)
(10.092 0.0380798 0)
(10.0969 0.0375566 0)
(10.0003 0.00473049 0)
(10.0032 0.0136948 0)
(10.0086 0.0207159 0)
(10.0152 0.0256095 0)
(10.0219 0.0290849 0)
(10.0284 0.0315988 0)
(10.0349 0.033302 0)
(10.0412 0.0343752 0)
(10.0472 0.0350273 0)
(10.0528 0.035403 0)
(10.0583 0.0355875 0)
(10.0635 0.0356399 0)
(10.0685 0.0356013 0)
(10.0734 0.0354907 0)
(10.0782 0.0353048 0)
(10.0829 0.0350175 0)
(10.0876 0.0345797 0)
(10.0923 0.033952 0)
(10.0003 0.0041174 0)
(10.0028 0.0119324 0)
(10.0075 0.0182255 0)
(10.0134 0.0227799 0)
(10.0196 0.0260568 0)
(10.0258 0.0284412 0)
(10.032 0.0300934 0)
(10.038 0.0311647 0)
(10.0437 0.0318282 0)
(10.0493 0.0322132 0)
(10.0546 0.0323995 0)
(10.0597 0.0324398 0)
(10.0646 0.0323695 0)
(10.0695 0.0322046 0)
(10.0742 0.0319425 0)
(10.0788 0.0315642 0)
(10.0833 0.0310336 0)
(10.0878 0.0303386 0)
(10.0002 0.0034837 0)
(10.0024 0.0100995 0)
(10.0064 0.0155526 0)
(10.0117 0.0196422 0)
(10.0174 0.0226362 0)
(10.0232 0.0248299 0)
(10.0289 0.0263781 0)
(10.0347 0.0274072 0)
(10.0402 0.0280532 0)
(10.0456 0.0284262 0)
(10.0507 0.0285973 0)
(10.0557 0.0286132 0)
(10.0606 0.0285031 0)
(10.0653 0.0282821 0)
(10.0699 0.027949 0)
(10.0743 0.0274937 0)
(10.0787 0.0268924 0)
(10.083 0.026154 0)
(10.0002 0.00282527 0)
(10.002 0.00819418 0)
(10.0055 0.0127065 0)
(10.0101 0.0162007 0)
(10.0153 0.0188082 0)
(10.0206 0.0207338 0)
(10.026 0.0221113 0)
(10.0314 0.0230426 0)
(10.0367 0.0236299 0)
(10.0419 0.02396 0)
(10.0469 0.0240933 0)
(10.0517 0.0240688 0)
(10.0564 0.0239117 0)
(10.061 0.0236348 0)
(10.0654 0.0232418 0)
(10.0697 0.0227283 0)
(10.0739 0.0220843 0)
(10.0779 0.0213295 0)
(10.0002 0.00214112 0)
(10.0017 0.00621761 0)
(10.0047 0.00969434 0)
(10.0088 0.0124577 0)
(10.0134 0.0145577 0)
(10.0183 0.0161196 0)
(10.0233 0.017244 0)
(10.0284 0.018007 0)
(10.0334 0.0184807 0)
(10.0383 0.0187273 0)
(10.0431 0.018794 0)
(10.0478 0.0187113 0)
(10.0524 0.0184998 0)
(10.0567 0.0181713 0)
(10.061 0.017732 0)
(10.0651 0.0171842 0)
(10.069 0.0165244 0)
(10.0728 0.0157816 0)
(10.0002 0.00142791 0)
(10.0015 0.00415421 0)
(10.0041 0.00649755 0)
(10.0076 0.00839344 0)
(10.0118 0.00985192 0)
(10.0163 0.0109384 0)
(10.021 0.0117141 0)
(10.0258 0.0122277 0)
(10.0305 0.0125228 0)
(10.0352 0.0126391 0)
(10.0398 0.0126066 0)
(10.0443 0.0124478 0)
(10.0486 0.0121763 0)
(10.0528 0.011803 0)
(10.0569 0.0113336 0)
(10.0608 0.0107746 0)
(10.0645 0.0101254 0)
(10.0681 0.00941807 0)
(10.0001 0.000668645 0)
(10.0013 0.00195043 0)
(10.0036 0.00304137 0)
(10.0069 0.0039242 0)
(10.0107 0.0045965 0)
(10.0149 0.00508122 0)
(10.0193 0.00540101 0)
(10.0238 0.00557502 0)
(10.0283 0.00562092 0)
(10.0328 0.00555522 0)
(10.0372 0.00539083 0)
(10.0415 0.00513781 0)
(10.0456 0.00480308 0)
(10.0496 0.00439255 0)
(10.0535 0.00391067 0)
(10.0572 0.00336277 0)
(10.0607 0.00274997 0)
(10.0641 0.00210064 0)
(10.0001 -0.000179975 0)
(10.0013 -0.000516939 0)
(10.0035 -0.000849178 0)
(10.0066 -0.00114379 0)
(10.0103 -0.00140279 0)
(10.0144 -0.00163964 0)
(10.0186 -0.00187341 0)
(10.023 -0.00211657 0)
(10.0274 -0.00237866 0)
(10.0317 -0.0026662 0)
(10.0359 -0.00298617 0)
(10.04 -0.00334227 0)
(10.044 -0.00373794 0)
(10.0479 -0.00417379 0)
(10.0515 -0.0046507 0)
(10.0551 -0.00516659 0)
(10.0584 -0.0057226 0)
(10.0616 -0.00629648 0)
(10.0001 -0.000992443 0)
(10.0013 -0.00288733 0)
(10.0037 -0.0045926 0)
(10.007 -0.00601011 0)
(10.0109 -0.00713767 0)
(10.0151 -0.00803612 0)
(10.0195 -0.00876662 0)
(10.0239 -0.00937339 0)
(10.0283 -0.00989063 0)
(10.0326 -0.0103525 0)
(10.0368 -0.0107837 0)
(10.0409 -0.0112038 0)
(10.0448 -0.0116237 0)
(10.0485 -0.0120535 0)
(10.0521 -0.0124975 0)
(10.0555 -0.0129602 0)
(10.0588 -0.0134432 0)
(10.0619 -0.013933 0)
(10.0002 -0.00169287 0)
(10.0015 -0.00495678 0)
(10.0041 -0.00786284 0)
(10.0078 -0.0101947 0)
(10.0121 -0.0119743 0)
(10.0165 -0.0133526 0)
(10.0211 -0.0144358 0)
(10.0257 -0.0152825 0)
(10.0302 -0.0159496 0)
(10.0346 -0.0164979 0)
(10.0389 -0.0169718 0)
(10.043 -0.0174021 0)
(10.0469 -0.0178076 0)
(10.0506 -0.0182039 0)
(10.0542 -0.0185998 0)
(10.0575 -0.0190021 0)
(10.0607 -0.0194144 0)
(10.0638 -0.0198268 0)
(10.0002 -0.00235762 0)
(10.0017 -0.00700002 0)
(10.0047 -0.0111278 0)
(10.009 -0.014283 0)
(10.0138 -0.016567 0)
(10.0186 -0.0182901 0)
(10.0235 -0.0196135 0)
(10.0283 -0.0206081 0)
(10.033 -0.021357 0)
(10.0376 -0.021941 0)
(10.0419 -0.0224189 0)
(10.046 -0.0228266 0)
(10.0499 -0.023193 0)
(10.0537 -0.0235359 0)
(10.0572 -0.0238712 0)
(10.0606 -0.0242043 0)
(10.0637 -0.0245432 0)
(10.0667 -0.0248782 0)
(10.0002 -0.00297934 0)
(10.0018 -0.00906744 0)
(10.0054 -0.0144121 0)
(10.0106 -0.0182911 0)
(10.016 -0.0210265 0)
(10.0212 -0.023042 0)
(10.0264 -0.0244931 0)
(10.0315 -0.0255059 0)
(10.0365 -0.0262352 0)
(10.0411 -0.0267913 0)
(10.0455 -0.0272316 0)
(10.0497 -0.0275923 0)
(10.0537 -0.0279032 0)
(10.0574 -0.0281872 0)
(10.061 -0.0284586 0)
(10.0643 -0.0287259 0)
(10.0675 -0.0289947 0)
(10.0704 -0.0292606 0)
(10.0001 -0.00352718 0)
(10.0018 -0.0115286 0)
(10.0063 -0.0178572 0)
(10.0123 -0.0219477 0)
(10.0184 -0.025009 0)
(10.0241 -0.0274143 0)
(10.0298 -0.0290501 0)
(10.0352 -0.0300604 0)
(10.0403 -0.0307161 0)
(10.0451 -0.0311828 0)
(10.0496 -0.0315282 0)
(10.0539 -0.0317941 0)
(10.0579 -0.0320135 0)
(10.0616 -0.0322118 0)
(10.0652 -0.0324013 0)
(10.0685 -0.0325909 0)
(10.0716 -0.0327823 0)
(10.0745 -0.0329732 0)
(9.99991 -0.00337728 0)
(10.0016 -0.0149511 0)
(10.0073 -0.0227034 0)
(10.0143 -0.02621 0)
(10.0207 -0.0287932 0)
(10.0269 -0.0311558 0)
(10.0332 -0.0328761 0)
(10.0391 -0.0339649 0)
(10.0446 -0.0346678 0)
(10.0496 -0.0351377 0)
(10.0542 -0.0354457 0)
(10.0586 -0.0356462 0)
(10.0626 -0.0357853 0)
(10.0663 -0.0358937 0)
(10.0697 -0.0359901 0)
(10.0728 -0.036084 0)
(10.0757 -0.0361806 0)
(10.0784 -0.0362775 0)
(9.9986 -0.000395508 0)
(9.9991 -0.0157439 0)
(10.0076 -0.0274128 0)
(10.0166 -0.0324698 0)
(10.0238 -0.0348438 0)
(10.0307 -0.0361975 0)
(10.0377 -0.0369485 0)
(10.0442 -0.0374161 0)
(10.05 -0.0377673 0)
(10.0551 -0.0380195 0)
(10.0597 -0.038172 0)
(10.0638 -0.0382517 0)
(10.0674 -0.038287 0)
(10.0705 -0.038299 0)
(10.0733 -0.0383037 0)
(10.0757 -0.0383089 0)
(10.0779 -0.0383199 0)
(10.0797 -0.0383321 0)
(9.99488 0.00133743 0)
(9.99289 -0.00808376 0)
(10.0061 -0.0203393 0)
(10.0202 -0.0322613 0)
(10.0307 -0.0404616 0)
(10.0393 -0.0441313 0)
(10.0468 -0.0450427 0)
(10.053 -0.0448985 0)
(10.0579 -0.0444335 0)
(10.0618 -0.0438412 0)
(10.0648 -0.0432027 0)
(10.067 -0.0425751 0)
(10.0684 -0.0419918 0)
(10.0693 -0.0414607 0)
(10.0696 -0.0409921 0)
(10.0694 -0.0405826 0)
(10.069 -0.0402293 0)
(10.0682 -0.0399074 0)
(9.99473 -0.0305601 0)
(9.99926 -0.0228654 0)
(10.0147 -0.00262644 0)
(10.0304 -0.0018984 0)
(10.0435 -0.0116462 0)
(10.0534 -0.0209088 0)
(10.0595 -0.0272652 0)
(10.062 -0.0314932 0)
(10.0616 -0.0342694 0)
(10.0592 -0.0359682 0)
(10.0552 -0.0369051 0)
(10.0499 -0.0373448 0)
(10.0437 -0.0374783 0)
(10.0366 -0.0374251 0)
(10.0291 -0.0372759 0)
(10.0211 -0.0370858 0)
(10.013 -0.0369203 0)
(10.0048 -0.0367484 0)
(10.0273 -0.182757 0)
(10.0763 -0.288309 0)
(10.0872 -0.247749 0)
(10.0777 -0.186513 0)
(10.0664 -0.140289 0)
(10.0538 -0.108213 0)
(10.0366 -0.0858732 0)
(10.0146 -0.0704135 0)
(9.9895 -0.0596457 0)
(9.96249 -0.0518746 0)
(9.93453 -0.0460562 0)
(9.90623 -0.0415627 0)
(9.87806 -0.0380121 0)
(9.85037 -0.0351437 0)
(9.82338 -0.0327851 0)
(9.79721 -0.0308733 0)
(9.7721 -0.0293685 0)
(9.7481 -0.0285613 0)
(9.93574 0.68932 0)
(9.86862 0.609608 0)
(9.76456 0.380627 0)
(9.62669 0.217446 0)
(9.48597 0.119272 0)
(9.35731 0.0631921 0)
(9.24281 0.0315805 0)
(9.14129 0.0136204 0)
(9.05162 0.00326639 0)
(8.97266 -0.00279687 0)
(8.90276 -0.0063548 0)
(8.84059 -0.0084764 0)
(8.78488 -0.00973012 0)
(8.73475 -0.0104801 0)
(8.68929 -0.0109876 0)
(8.64791 -0.0112622 0)
(8.60965 -0.0114761 0)
(8.57425 -0.0121443 0)
(0.0128424 -0.0243529 -6.15678e-19)
(0.0307063 -0.0251595 3.15182e-19)
(0.0415864 -0.0154736 0)
(0.046418 -0.00391866 0)
(0.0438676 0.00612201 0)
(0.0352774 0.0136162 -1.26262e-19)
(0.0222329 0.0186711 0)
(0.00594597 0.0218551 0)
(-0.0128424 0.0237938 0)
(-0.0336577 0.0250845 0)
(-0.0560313 0.0261591 9.08689e-20)
(-0.0794742 0.0262804 0)
(-0.103771 0.023336 0)
(-0.12764 0.0200072 0)
(-0.151029 0.0212358 0)
(-0.176634 0.0257607 7.16362e-20)
(-0.204404 0.0336122 0)
(-0.234892 0.0458233 0)
(-0.267368 0.0629891 0)
(-0.307831 0.050765 0)
(-0.353958 0.0209447 0)
(-0.38931 0.035129 0)
(-0.428821 0.051409 0)
(-0.47589 0.0454686 9.01569e-20)
(-0.522542 0.0408298 -8.48935e-20)
(-0.565013 0.0464725 8.04052e-20)
(-0.611758 0.0473189 7.62743e-20)
(-0.658195 0.0473168 0)
(-0.704711 0.0471052 0)
(-0.75117 0.0467637 -6.60239e-20)
(-0.797462 0.046285 -6.32565e-20)
(-0.843482 0.0456875 0)
(-0.889137 0.0449984 0)
(-0.934359 0.0442436 -5.64341e-20)
(-0.979099 0.0434503 0)
(-1.02333 0.0426393 0)
(-1.06705 0.0418305 5.12932e-20)
(-1.11025 0.0410326 0)
(-1.15294 0.040257 4.85218e-20)
(-1.19514 0.0395083 9.45754e-20)
(-1.23686 0.0387939 0)
(-1.27814 0.0381141 0)
(-1.319 0.0374734 0)
(-1.35946 0.0368693 0)
(-1.39955 0.0363037 0)
(-1.4393 0.0357725 8.28257e-20)
(-1.47872 0.0352749 8.12439e-20)
(-1.51783 0.0348029 7.97384e-20)
(-1.55665 0.0343514 0)
(-1.59518 0.0339146 -7.69434e-20)
(-1.63343 0.0334931 0)
(-1.67141 0.0330809 7.43903e-20)
(-1.7091 0.0326762 7.31924e-20)
(-1.7465 0.0322727 0)
(-1.7836 0.0318684 0)
(-1.82037 0.0314568 0)
(-1.8568 0.0310359 6.88212e-20)
(-1.89285 0.0306001 0)
(-1.9285 0.0301473 0)
(-1.96371 0.0296715 0)
(-1.99844 0.0291705 0)
(-2.03264 0.0286389 0)
(-2.06626 0.0280734 0)
(-2.09924 0.0274688 0)
(-2.13152 0.0268212 0)
(-2.16304 0.0261248 -6.06612e-20)
(-2.19371 0.0253732 0)
(-2.22347 0.0245597 0)
(-2.25223 0.0236744 5.82352e-20)
(-2.2799 0.0227083 5.74407e-20)
(-2.30638 0.0216475 0)
(-2.33156 0.0204806 -5.58584e-20)
(-2.35535 0.0191918 5.50649e-20)
(-2.3776 0.0177732 0)
(-2.39819 0.0162161 -5.34613e-20)
(-2.417 0.0145348 0)
(-2.43388 0.0127482 0)
(-2.44867 0.0108859 5.09925e-20)
(-2.46117 0.00895483 0)
(-2.4712 0.00695972 -4.92892e-20)
(-2.47853 0.00491039 0)
(-2.48301 0.00285745 4.74932e-20)
(-2.48462 0.000876843 4.65088e-20)
(-2.48372 -0.00103075 4.54782e-20)
(-2.48023 -0.00296568 8.87893e-20)
(-2.47412 -0.00494358 -8.65071e-20)
(-2.46534 -0.00698621 0)
(-2.45387 -0.00908159 0)
(-2.43966 -0.0112385 0)
(-2.42267 -0.0134373 -7.5987e-20)
(-2.40282 -0.0156563 -7.29556e-20)
(-2.38006 -0.0178892 6.97422e-20)
(-2.35439 -0.0201207 0)
(-2.32586 -0.022346 -6.27361e-20)
(-2.29449 -0.0245478 -5.89261e-20)
(-2.26035 -0.0267144 -5.4901e-20)
(-2.22352 -0.0288252 0)
(-2.18407 -0.0308656 0)
(-2.14214 -0.0328068 0)
(-2.09786 -0.0346234 -3.65481e-20)
(-2.05138 -0.0363255 0)
(-2.00286 -0.0378885 0)
(-1.95251 -0.0392473 2.03516e-20)
(-1.90056 -0.0403758 0)
(-1.84725 -0.0414625 0)
(-1.79276 -0.0424195 2.17865e-21)
(-1.73741 -0.0430737 0)
(-1.68146 -0.0435573 0)
(-1.62515 -0.0438476 1.77198e-20)
(-1.56872 -0.0439332 2.46654e-20)
(-1.51242 -0.0438264 0)
(-1.4565 -0.0435167 -3.89126e-20)
(-1.40118 -0.0430227 0)
(-1.34669 -0.0423353 5.34888e-20)
(-1.29326 -0.0414751 0)
(-1.24107 -0.0404391 6.82021e-20)
(-1.19031 -0.0392552 7.55449e-20)
(-1.14116 -0.0379256 0)
(-1.09376 -0.0364734 0)
(-1.04822 -0.0349038 0)
(-1.00463 -0.0332462 0)
(-0.963061 -0.0315086 0)
(-0.923594 -0.029719 0)
(-0.886289 -0.0278879 0)
(-0.85118 -0.026044 1.30496e-19)
(-0.818262 -0.0241966 -1.36515e-19)
(-0.787502 -0.0223694 0)
(-0.758843 -0.0205702 0)
(-0.73221 -0.0188184 0)
(-0.707511 -0.0171227 0)
(-0.684639 -0.0154974 -3.25109e-19)
(-0.663475 -0.0139517 0)
(-0.643881 -0.0124933 3.42041e-19)
(-0.625714 -0.0111326 -3.49721e-19)
(-0.608815 -0.00987509 0)
(-0.593024 -0.00873246 0)
(-0.578163 -0.00770129 0)
(-0.564039 -0.00678328 3.76128e-19)
(-0.550457 -0.0059708 3.81931e-19)
(-0.537249 -0.00527932 0)
(-0.524261 -0.00471988 3.92992e-19)
(-0.511313 -0.00430717 3.9837e-19)
(-0.498205 -0.00404129 -4.03737e-19)
(-0.484726 -0.00391143 0)
(-0.470686 -0.00390831 0)
(-0.45591 -0.00402523 -4.20697e-19)
(-0.440235 -0.0042577 0)
(-0.423506 -0.004599 0)
(-0.405582 -0.00504157 0)
(-0.386335 -0.00557818 0)
(-0.365649 -0.00620336 4.57582e-19)
(-0.343419 -0.00691237 4.67238e-19)
(-0.319553 -0.00769629 0)
(-0.293977 -0.00854633 4.89863e-19)
(-0.266637 -0.00946146 0)
(-0.237475 -0.0104415 0)
(-0.206457 -0.0114701 5.34552e-19)
(-0.173574 -0.012543 0)
(-0.138775 -0.013691 5.73892e-19)
(-0.102035 -0.0149446 0)
(-0.0634567 -0.0162594 0)
(-0.0231757 -0.017547 6.52937e-19)
(0.0186266 -0.018573 0)
(0.0608195 -0.0190159 6.83348e-19)
(0.103803 -0.0192144 0)
(0.148779 -0.0196059 0)
(0.195718 -0.0201126 0)
(0.244781 -0.0206875 -6.23112e-19)
(0.29608 -0.0213016 0)
(0.349665 -0.021932 5.97022e-19)
(0.40554 -0.0225612 0)
(0.463659 -0.0231675 0)
(0.523922 -0.0237242 0)
(0.586125 -0.0241909 0)
(0.649987 -0.0245012 0)
(0.714703 -0.0245322 0)
(0.780085 -0.0239839 0)
(0.840036 -0.022194 -1.04877e-18)
(0.903627 -0.0173431 0)
(0.903685 0.00333471 0)
(0.00642687 -0.0616439 1.354e-18)
(0.0127002 -0.0437391 -5.33113e-19)
(0.0107087 -0.0198924 0)
(0.00485368 0.00143452 1.60366e-19)
(-0.00454544 0.0194966 0)
(-0.0174344 0.0340216 5.99241e-20)
(-0.0335862 0.0452299 -1.10114e-19)
(-0.0528356 0.0536828 -1.03491e-19)
(-0.0750086 0.0600869 0)
(-0.0998853 0.065142 -9.5877e-20)
(-0.127178 0.0694102 -4.71106e-20)
(-0.156857 0.0730918 0)
(-0.189418 0.0757708 0)
(-0.224686 0.077766 0)
(-0.262395 0.0810096 0)
(-0.302358 0.0857834 -4.12293e-20)
(-0.344109 0.0916051 0)
(-0.386947 0.0982669 8.11031e-20)
(-0.429433 0.105342 0)
(-0.474864 0.110744 0)
(-0.523038 0.113049 -8.2557e-20)
(-0.570706 0.116591 0)
(-0.615859 0.120005 7.38664e-20)
(-0.661458 0.121831 -3.49038e-20)
(-0.707396 0.121759 3.34107e-20)
(-0.753161 0.121629 -3.21801e-20)
(-0.79827 0.121276 -3.11175e-20)
(-0.842819 0.120354 0)
(-0.886748 0.11902 0)
(-0.930018 0.117382 2.84251e-20)
(-0.972612 0.115515 -2.74487e-20)
(-1.01453 0.113482 0)
(-1.05578 0.111338 0)
(-1.09639 0.109134 2.57011e-20)
(-1.13637 0.106912 0)
(-1.17575 0.104702 0)
(-1.21456 0.102534 -2.41485e-20)
(-1.25282 0.100424 0)
(-1.29056 0.0983865 2.30771e-20)
(-1.3278 0.0964268 -4.5769e-20)
(-1.36459 0.094551 0)
(-1.40093 0.0927575 0)
(-1.43685 0.0910463 -8.69195e-20)
(-1.47238 0.0894106 -8.56572e-20)
(-1.50752 0.0878464 -8.44536e-20)
(-1.54229 0.0863439 4.14534e-20)
(-1.57669 0.0848963 -4.12927e-20)
(-1.61074 0.0834922 -1.21883e-19)
(-1.64443 0.0821236 8.0097e-20)
(-1.67776 0.0807792 3.97458e-20)
(-1.71074 0.0794517 0)
(-1.74334 0.0781298 -3.87994e-20)
(-1.77555 0.0768063 3.79683e-20)
(-1.80735 0.0754703 0)
(-1.83873 0.0741146 0)
(-1.86964 0.0727285 0)
(-1.90007 0.071305 -3.66367e-20)
(-1.92998 0.0698349 0)
(-1.95933 0.0683123 7.12968e-20)
(-1.98808 0.0667281 0)
(-2.01618 0.0650762 6.97207e-20)
(-2.04359 0.0633484 0)
(-2.07025 0.061539 -6.81648e-20)
(-2.09612 0.0596407 0)
(-2.12112 0.0576479 6.66134e-20)
(-2.1452 0.0555546 -3.27631e-20)
(-2.1683 0.0533552 0)
(-2.19034 0.0510449 -6.42607e-20)
(-2.21126 0.0486175 -3.18703e-20)
(-2.23098 0.0460692 -3.14591e-20)
(-2.24944 0.0433921 0)
(-2.26654 0.040582 -3.03728e-20)
(-2.28221 0.0376276 -3.01734e-20)
(-2.29636 0.0345226 0)
(-2.30893 0.0312506 2.92574e-20)
(-2.31982 0.0278054 -5.74033e-20)
(-2.32898 0.0241769 0)
(-2.33636 0.0203748 -2.77758e-20)
(-2.34194 0.0164074 0)
(-2.34573 0.0123093 8.00763e-20)
(-2.34778 0.00812278 0)
(-2.3481 0.0039355 -7.66387e-20)
(-2.34664 -0.000200955 -2.49182e-20)
(-2.34293 -0.00430058 2.43031e-20)
(-2.33683 -0.00842522 4.72935e-20)
(-2.32826 -0.0125805 -4.59212e-20)
(-2.31712 -0.0167784 0)
(-2.30339 -0.0210034 0)
(-2.28701 -0.0252551 0)
(-2.26797 -0.0295086 1.18024e-19)
(-2.24621 -0.0337301 3.73023e-20)
(-2.22169 -0.03789 -3.5381e-20)
(-2.19441 -0.0419603 0)
(-2.16442 -0.0459253 -3.23163e-20)
(-2.13175 -0.0497556 2.91001e-20)
(-2.09649 -0.0534305 2.68336e-20)
(-2.0587 -0.0569151 0)
(-2.01849 -0.0601871 0)
(-1.976 -0.0632111 0)
(-1.93135 -0.0659679 1.69362e-20)
(-1.88473 -0.0684304 0)
(-1.8363 -0.0705898 -2.4918e-20)
(-1.78628 -0.0724156 -2.81243e-20)
(-1.73487 -0.0738972 1.37581e-20)
(-1.68232 -0.0750182 0)
(-1.62888 -0.0757766 2.15532e-21)
(-1.57483 -0.0762114 0)
(-1.5204 -0.0763064 -9.68332e-21)
(-1.46585 -0.0760646 6.7337e-21)
(-1.41143 -0.0754878 9.73737e-21)
(-1.35736 -0.0745956 0)
(-1.30388 -0.0733934 5.1649e-20)
(-1.25122 -0.071908 -3.96501e-20)
(-1.19957 -0.0701491 -2.38401e-20)
(-1.14912 -0.0681485 0)
(-1.10007 -0.0659216 -2.95567e-20)
(-1.05255 -0.063504 -9.50111e-20)
(-1.00672 -0.0609158 0)
(-0.962693 -0.058193 -7.34965e-20)
(-0.920552 -0.0553572 -7.86788e-20)
(-0.88036 -0.0524457 -8.36963e-20)
(-0.842166 -0.04948 0)
(-0.806012 -0.0464975 0)
(-0.771923 -0.0435223 0)
(-0.739898 -0.0405926 5.03194e-20)
(-0.709908 -0.037727 5.35601e-20)
(-0.681896 -0.034956 0)
(-0.655787 -0.0322934 1.13395e-19)
(-0.631489 -0.029764 1.16789e-19)
(-0.608891 -0.0273784 0)
(-0.587871 -0.0251557 1.23609e-19)
(-0.568293 -0.0231045 2.51328e-19)
(-0.550009 -0.0212368 -1.28718e-19)
(-0.532862 -0.0195593 -1.30086e-19)
(-0.516687 -0.0180796 0)
(-0.501312 -0.0168045 0)
(-0.486563 -0.0157339 0)
(-0.47225 -0.0148618 -1.38201e-19)
(-0.458182 -0.0141822 1.39348e-19)
(-0.444181 -0.013696 2.81646e-19)
(-0.430084 -0.0134182 -1.42093e-19)
(-0.415728 -0.0133555 1.43143e-19)
(-0.400937 -0.0135126 1.44166e-19)
(-0.385524 -0.0138668 0)
(-0.369311 -0.0144068 0)
(-0.352128 -0.0151089 -1.46929e-19)
(-0.333822 -0.0159668 0)
(-0.314244 -0.0169562 0)
(-0.29326 -0.0180677 2.98701e-19)
(-0.270748 -0.0192776 0)
(-0.246597 -0.0205814 1.51221e-19)
(-0.220708 -0.0219591 -1.52133e-19)
(-0.192997 -0.0233999 0)
(-0.163388 -0.0248781 1.54524e-19)
(-0.131823 -0.0263977 0)
(-0.098254 -0.0279506 0)
(-0.0626425 -0.0295247 -1.59216e-19)
(-0.0249739 -0.0310931 3.2213e-19)
(0.0147464 -0.0326496 -1.63224e-19)
(0.0562287 -0.0340749 0)
(0.0995708 -0.0353599 0)
(0.145045 -0.036561 1.62278e-19)
(0.19281 -0.0375788 0)
(0.243068 -0.0384814 1.6166e-19)
(0.295742 -0.0395294 0)
(0.3506 -0.0407676 0)
(0.407554 -0.0421002 0)
(0.466599 -0.0434712 1.63894e-19)
(0.527736 -0.0448434 0)
(0.590936 -0.0461809 -1.65654e-19)
(0.656138 -0.0474511 0)
(0.723238 -0.0486135 0)
(0.792077 -0.0496146 3.37729e-19)
(0.862396 -0.0503733 -3.40922e-19)
(0.933841 -0.0507539 0)
(1.00566 -0.0505203 0)
(1.07731 -0.0490693 0)
(1.14485 -0.0454289 1.07734e-18)
(1.21301 -0.0357543 0)
(1.24945 -0.00768466 -7.62556e-19)
(-0.00452079 -0.0645349 -1.36234e-21)
(-0.00893725 -0.0309604 5.23725e-19)
(-0.0195768 0.000276136 0)
(-0.0330953 0.0270227 -2.15805e-19)
(-0.048826 0.0499416 0)
(-0.0665805 0.0694637 0)
(-0.0864839 0.0859473 2.37102e-23)
(-0.108736 0.0998459 6.91755e-20)
(-0.133482 0.111709 6.64735e-20)
(-0.160768 0.122095 6.46074e-20)
(-0.190498 0.131444 0)
(-0.222536 0.139914 0)
(-0.256888 0.147317 -5.98577e-20)
(-0.293574 0.153985 -1.15862e-19)
(-0.332275 0.160827 1.11893e-19)
(-0.372301 0.168244 0)
(-0.412966 0.176082 1.05083e-19)
(-0.453605 0.183855 -5.12775e-20)
(-0.493901 0.190609 0)
(-0.534329 0.19485 9.73386e-20)
(-0.575167 0.196618 4.70656e-20)
(-0.615913 0.198014 -9.04465e-20)
(-0.655944 0.198859 -4.36131e-20)
(-0.695533 0.198299 0)
(-0.734957 0.196824 8.11255e-20)
(-0.774274 0.195005 7.86323e-20)
(-0.813085 0.192681 0)
(-0.851381 0.189936 7.42479e-20)
(-0.889177 0.186863 0)
(-0.926479 0.183548 7.04931e-20)
(-0.963291 0.180066 3.4495e-20)
(-0.999621 0.176478 0)
(-1.03548 0.172841 0)
(-1.07089 0.169203 0)
(-1.10587 0.165606 0)
(-1.14042 0.162081 0)
(-1.17457 0.15865 0)
(-1.20834 0.155331 5.99527e-20)
(-1.24173 0.152135 -8.85918e-20)
(-1.27476 0.149064 0)
(-1.30745 0.146121 0)
(-1.3398 0.143301 0)
(-1.37183 0.140597 2.10285e-22)
(-1.40355 0.138001 5.51455e-20)
(-1.43496 0.1355 1.08687e-19)
(-1.46607 0.133082 -1.07352e-19)
(-1.49688 0.130734 -5.2928e-20)
(-1.52738 0.128441 5.25219e-20)
(-1.55758 0.126189 -2.12158e-22)
(-1.58746 0.123965 5.11329e-20)
(-1.61703 0.121754 0)
(-1.64627 0.119541 5.00226e-20)
(-1.67515 0.117314 -2.08505e-22)
(-1.70367 0.115057 0)
(-1.73181 0.11276 0)
(-1.75953 0.110408 -4.7939e-20)
(-1.78681 0.10799 0)
(-1.81362 0.105493 0)
(-1.83992 0.102908 4.62518e-20)
(-1.86568 0.100223 9.19127e-20)
(-1.89086 0.0974292 -4.56551e-20)
(-1.91541 0.0945157 0)
(-1.93929 0.0914734 4.46638e-20)
(-1.96244 0.0882932 0)
(-1.98483 0.0849668 4.33179e-20)
(-2.00638 0.0814861 4.3149e-20)
(-2.02704 0.0778434 -8.49454e-20)
(-2.04675 0.0740321 -4.18012e-20)
(-2.06545 0.0700452 0)
(-2.08308 0.0658772 8.17736e-20)
(-2.09955 0.0615221 0)
(-2.11481 0.056976 1.19437e-19)
(-2.12879 0.0522341 7.83871e-20)
(-2.14141 0.0472954 7.71973e-20)
(-2.1526 0.042159 -7.59731e-20)
(-2.1623 0.0368313 1.12141e-19)
(-2.17045 0.0313211 0)
(-2.17697 0.0256471 0)
(-2.18181 0.0198285 -7.06813e-20)
(-2.18489 0.0138878 -1.03873e-19)
(-2.18612 0.00783739 0)
(-2.18541 0.00167632 3.30246e-20)
(-2.18263 -0.00461163 0)
(-2.17766 -0.0110138 -9.39123e-20)
(-2.17039 -0.0175127 1.81593e-22)
(-2.16076 -0.0240848 -2.2958e-22)
(-2.14869 -0.0307139 5.69269e-20)
(-2.13413 -0.0373747 0)
(-2.11704 -0.0440458 -5.26937e-20)
(-2.09741 -0.05069 4.46251e-22)
(-2.0752 -0.0572634 0)
(-2.05037 -0.0637192 0)
(-2.02294 -0.070018 0)
(-1.99294 -0.0761195 3.9808e-20)
(-1.96042 -0.0819843 0)
(-1.92545 -0.0875685 0)
(-1.88812 -0.0928287 0)
(-1.84853 -0.0977206 0)
(-1.80682 -0.102202 0)
(-1.76313 -0.106233 2.28266e-20)
(-1.71762 -0.109777 0)
(-1.67048 -0.112808 1.51475e-20)
(-1.62191 -0.115297 1.17452e-20)
(-1.57212 -0.11724 -8.29729e-21)
(-1.52135 -0.118625 0)
(-1.46986 -0.119432 -1.30699e-21)
(-1.41788 -0.119689 0)
(-1.36566 -0.119418 5.74814e-21)
(-1.31344 -0.11862 -9.27168e-21)
(-1.26146 -0.117315 -3.57157e-20)
(-1.20995 -0.115523 0)
(-1.1591 -0.113276 -5.65132e-20)
(-1.10914 -0.110605 -2.05497e-20)
(-1.06024 -0.107547 0)
(-1.01259 -0.104138 -5.69546e-20)
(-0.966329 -0.100423 -6.34114e-20)
(-0.921607 -0.096444 1.05711e-19)
(-0.87854 -0.0922486 0)
(-0.837225 -0.0878821 4.19462e-20)
(-0.797728 -0.0833898 4.47728e-20)
(-0.760098 -0.078818 1.4059e-19)
(-0.724368 -0.0742101 0)
(-0.690559 -0.0696129 0)
(-0.658674 -0.0650708 0)
(-0.628696 -0.060627 5.58284e-20)
(-0.600581 -0.0563176 0)
(-0.574263 -0.0521774 0)
(-0.549661 -0.0482341 -6.33691e-20)
(-0.526673 -0.0445147 -6.51612e-20)
(-0.505186 -0.0410401 0)
(-0.485074 -0.0378302 0)
(-0.466198 -0.0348999 -1.39662e-19)
(-0.448409 -0.0322617 0)
(-0.431551 -0.0299249 1.44757e-19)
(-0.415458 -0.0278967 1.46576e-19)
(-0.399965 -0.0261826 0)
(-0.384896 -0.0247806 0)
(-0.370074 -0.0236824 -1.52318e-19)
(-0.355314 -0.022881 -1.42207e-22)
(-0.340445 -0.0223757 -8.99837e-23)
(-0.325306 -0.0221764 0)
(-0.30974 -0.0222875 -3.15374e-19)
(-0.29358 -0.0227069 0)
(-0.276658 -0.0234105 0)
(-0.258805 -0.0243786 0)
(-0.239866 -0.025583 1.61152e-19)
(-0.21969 -0.0270067 0)
(-0.19814 -0.0286191 -3.25341e-19)
(-0.175089 -0.0303992 -1.63259e-19)
(-0.150419 -0.0323177 0)
(-0.124026 -0.0343603 -1.64711e-19)
(-0.0958157 -0.0365032 0)
(-0.0657096 -0.0387279 0)
(-0.0336354 -0.0410008 -5.02135e-19)
(0.000462774 -0.0433094 3.369e-19)
(0.0365841 -0.0456209 0)
(0.0747202 -0.0479046 3.38891e-19)
(0.114951 -0.0501479 -1.69378e-19)
(0.157343 -0.0523436 0)
(0.201927 -0.0544884 0)
(0.24875 -0.0566044 0)
(0.297812 -0.0586559 -5.09434e-19)
(0.349177 -0.0605994 0)
(0.402951 -0.0624858 -1.71262e-19)
(0.459106 -0.0644361 0)
(0.517496 -0.0664773 0)
(0.578021 -0.0685731 0)
(0.640626 -0.070679 0)
(0.705266 -0.0727552 0)
(0.771876 -0.0747589 0)
(0.840368 -0.0766433 -3.63464e-19)
(0.910613 -0.0783491 0)
(0.98243 -0.0797935 -1.87558e-19)
(1.05555 -0.080853 5.6947e-19)
(1.1296 -0.0813223 0)
(1.20391 -0.0808474 0)
(1.27797 -0.0786658 -3.9918e-19)
(1.34903 -0.0734855 -4.09398e-19)
(1.42105 -0.0614802 4.18128e-19)
(1.47512 -0.0329603 4.35985e-19)
(-0.0140557 -0.0420688 -1.90054e-18)
(-0.0260174 -0.000393696 -6.26607e-19)
(-0.0427859 0.034484 -2.32909e-19)
(-0.062114 0.0640235 -8.44882e-20)
(-0.082795 0.089727 0)
(-0.104572 0.112331 1.23585e-19)
(-0.12765 0.132274 -5.67775e-20)
(-0.152278 0.14993 0)
(-0.178613 0.165678 -5.1103e-20)
(-0.206701 0.179857 0)
(-0.236475 0.192705 9.53237e-20)
(-0.267778 0.20431 0)
(-0.300511 0.21465 4.48671e-20)
(-0.334618 0.223878 8.69309e-20)
(-0.369852 0.23235 -8.40293e-20)
(-0.405744 0.240299 0)
(-0.441806 0.24764 -7.82509e-20)
(-0.477688 0.254086 0)
(-0.513234 0.259199 0)
(-0.548551 0.262568 -7.08478e-20)
(-0.58379 0.264259 0)
(-0.618901 0.264849 8.24971e-23)
(-0.65374 0.264495 0)
(-0.688246 0.263079 0)
(-0.722487 0.260758 -4.75363e-23)
(-0.75647 0.257797 -5.8872e-20)
(-0.790147 0.254295 -5.72624e-20)
(-0.823512 0.250362 -5.58342e-20)
(-0.856564 0.246105 0)
(-0.889304 0.24162 -1.06374e-19)
(-0.921732 0.23699 0)
(-0.953846 0.232283 -5.08653e-20)
(-0.985649 0.227558 0)
(-1.01715 0.222867 0)
(-1.04834 0.218247 4.79569e-20)
(-1.07924 0.213729 0)
(-1.10985 0.209334 -4.63193e-20)
(-1.14017 0.205079 -7.99058e-23)
(-1.17022 0.200972 8.98336e-20)
(-1.19999 0.197016 -8.84307e-20)
(-1.2295 0.19321 0)
(-1.25874 0.189549 0)
(-1.28772 0.186022 -4.23469e-20)
(-1.31644 0.18262 0)
(-1.3449 0.179327 -4.14855e-20)
(-1.37311 0.176129 4.09961e-20)
(-1.40107 0.173008 4.05253e-20)
(-1.42876 0.169948 0)
(-1.45618 0.166931 -3.96319e-20)
(-1.48333 0.163939 -3.92056e-20)
(-1.5102 0.160954 7.73897e-20)
(-1.53676 0.157959 -3.83858e-20)
(-1.56302 0.154936 -3.79893e-20)
(-1.58895 0.151869 0)
(-1.61452 0.14874 0)