/*--------------------------------*- C++ -*----------------------------------*\
  =========                 |
  \\      /  F ield         | OpenFOAM: The Open Source CFD Toolbox
   \\    /   O peration     | Website:  https://openfoam.org
    \\  /    A nd           | Version:  9
     \\/     M anipulation  |
\*---------------------------------------------------------------------------*/
FoamFile
{
    format      ascii;
    class       surfaceScalarField;
    location    "2.1";
    object      phi;
}
// * * * * * * * * * * * * * * * * * * * * * * * * * * * * * * * * * * * * * //

dimensions      [0 3 -1 0 0 0 0];

internalField   nonuniform List<scalar> 
17280
(
6.32545e-10
-6.43242e-10
-3.72809e-12
9.75487e-10
-3.39957e-10
-2.98726e-12
4.34633e-10
5.38447e-10
2.40742e-12
-1.10227e-09
1.53038e-09
6.52206e-12
-3.56855e-09
2.45636e-09
9.91719e-12
-6.82275e-09
3.24134e-09
1.2862e-11
-1.0698e-08
3.86003e-09
1.52391e-11
-1.50255e-08
4.31048e-09
1.70008e-11
-1.96443e-08
4.60069e-09
1.81577e-11
-2.44055e-08
4.74241e-09
1.87418e-11
-2.91726e-08
4.74835e-09
1.87937e-11
-3.38218e-08
4.63083e-09
1.83564e-11
-3.82405e-08
4.40123e-09
1.74723e-11
-4.23267e-08
4.06998e-09
1.61817e-11
-4.5988e-08
3.64676e-09
1.45226e-11
-4.91414e-08
3.1409e-09
1.25324e-11
-5.17135e-08
2.56182e-09
1.02492e-11
-5.36408e-08
1.91956e-09
7.71357e-12
-5.48709e-08
1.22521e-09
4.97022e-12
-5.53643e-08
4.91324e-10
2.0697e-12
-5.50956e-08
-2.67774e-10
-9.30536e-13
-5.40558e-08
-1.03586e-09
-3.96559e-12
-5.22541e-08
-1.79479e-09
-6.96312e-12
-4.97195e-08
-2.5247e-09
-9.8443e-12
-4.65026e-08
-3.20436e-09
-1.25252e-11
-4.2676e-08
-3.8117e-09
-1.4919e-11
-3.83346e-08
-4.32453e-09
-1.69384e-11
-3.35947e-08
-4.72138e-09
-1.84987e-11
-2.85927e-08
-4.98242e-09
-1.95223e-11
-2.34823e-08
-5.09045e-09
-1.99427e-11
-1.84309e-08
-5.03178e-09
-1.9709e-11
-1.36148e-08
-4.79729e-09
-1.87907e-11
-9.21421e-09
-4.38342e-09
-1.71819e-11
-5.40578e-09
-3.79352e-09
-1.49064e-11
-2.35365e-09
-3.04009e-09
-1.20249e-11
-1.95291e-10
-2.14967e-09
-8.68454e-12
9.83912e-10
-1.17406e-09
-5.16056e-12
1.19676e-09
-2.11817e-10
-1.04455e-12
6.52352e-10
5.40809e-10
3.60275e-12
6.5234e-10
2.13111e-14
3.5168e-10
-9.96026e-10
1.10318e-12
-4.9414e-10
5.06399e-10
-5.42514e-13
-3.32596e-09
3.37257e-09
-2.31678e-12
-8.36535e-09
6.57508e-09
-5.30734e-12
-1.55236e-08
9.62326e-09
-8.67573e-12
-2.45363e-08
1.22658e-08
-1.17669e-11
-3.50521e-08
1.43901e-08
-1.42993e-11
-4.66866e-08
1.59612e-08
-1.61977e-11
-5.90525e-08
1.6984e-08
-1.74621e-11
-7.17757e-08
1.74837e-08
-1.8124e-11
-8.45038e-08
1.74947e-08
-1.82296e-11
-9.69094e-08
1.70543e-08
-1.78289e-11
-1.08691e-07
1.62002e-08
-1.69698e-11
-1.19575e-07
1.49689e-08
-1.56974e-11
-1.2931e-07
1.33961e-08
-1.4054e-11
-1.37674e-07
1.15175e-08
-1.20805e-11
-1.44473e-07
9.36974e-09
-9.81713e-12
-1.49538e-07
6.9921e-09
-7.30599e-12
-1.52736e-07
4.42769e-09
-4.59334e-12
-1.53967e-07
1.72467e-09
-1.73129e-12
-1.53173e-07
-1.06295e-09
1.22173e-12
-1.50339e-07
-3.87486e-09
4.2012e-12
-1.45496e-07
-6.64466e-09
7.13575e-12
-1.3873e-07
-9.30053e-09
9.94741e-12
-1.3018e-07
-1.17666e-08
1.25525e-11
-1.20042e-07
-1.39649e-08
1.48644e-11
-1.08565e-07
-1.58178e-08
1.67972e-11
-9.60542e-08
-1.72509e-08
1.82693e-11
-8.28594e-08
-1.81964e-08
1.92053e-11
-6.93725e-08
-1.85969e-08
1.95392e-11
-5.60149e-08
-1.84086e-08
1.9218e-11
-4.32252e-08
-1.76053e-08
1.82075e-11
-3.14421e-08
-1.6183e-08
1.64996e-11
-2.10845e-08
-1.41653e-08
1.41236e-11
-1.2524e-08
-1.16117e-08
1.11596e-11
-6.04873e-09
-8.63269e-09
7.74294e-12
-1.8093e-09
-5.41763e-09
4.15388e-12
2.60483e-10
-2.28295e-09
1.34316e-12
5.53793e-10
2.47141e-10
3.43893e-13
1.20954e-09
-3.41178e-12
-5.07718e-10
-4.85387e-10
-2.9205e-12
-3.3494e-09
3.34624e-09
1.83676e-12
-9.13462e-09
9.15788e-09
-9.45889e-14
-1.80198e-08
1.54604e-08
-2.13734e-13
-2.98499e-08
2.14535e-08
-5.30698e-14
-4.42661e-08
2.66822e-08
-2.13975e-13
-6.07919e-08
3.09163e-08
-4.06217e-13
-7.88939e-08
3.40637e-08
-5.66281e-13
-9.80214e-08
3.61122e-08
-6.95566e-13
-1.17632e-07
3.70947e-08
-7.86046e-13
-1.37204e-07
3.7068e-08
-8.34707e-13
-1.56249e-07
3.61001e-08
-8.43437e-13
-1.74312e-07
3.42635e-08
-8.15588e-13
-1.90974e-07
3.16321e-08
-7.55338e-13
-2.05857e-07
2.82801e-08
-6.67549e-13
-2.18623e-07
2.42837e-08
-5.5716e-13
-2.28975e-07
1.97221e-08
-4.28562e-13
-2.36663e-07
1.46806e-08
-2.85696e-13
-2.41488e-07
9.25254e-09
-1.32763e-13
-2.43305e-07
3.54154e-09
2.53276e-14
-2.4203e-07
-2.33729e-09
1.83373e-13
-2.37649e-07
-8.25664e-09
3.36625e-13
-2.30217e-07
-1.40775e-08
4.81048e-13
-2.19867e-07
-1.96507e-08
6.12648e-13
-2.06814e-07
-2.482e-08
7.26801e-13
-1.91355e-07
-2.94255e-08
8.18448e-13
-1.73864e-07
-3.33092e-08
8.83084e-13
-1.54795e-07
-3.6321e-08
9.17572e-13
-1.34667e-07
-3.83253e-08
9.19972e-13
-1.14056e-07
-3.92083e-08
8.88794e-13
-9.35796e-08
-3.88863e-08
8.22761e-13
-7.38724e-08
-3.73132e-08
7.21996e-13
-5.55655e-08
-3.44905e-08
5.91131e-13
-3.92532e-08
-3.0478e-08
4.40111e-13
-2.54552e-08
-2.541e-08
2.74004e-13
-1.45688e-08
-1.95192e-08
1.25165e-13
-6.80832e-09
-1.31783e-08
1.58769e-13
-2.12903e-09
-6.96239e-09
1.69288e-13
-1.43207e-10
-1.73806e-09
-6.21523e-13
1.06531e-09
1.00787e-12
-1.51723e-09
1.03874e-09
-6.89986e-12
-6.67897e-09
8.50272e-09
5.25804e-12
-1.57394e-08
1.82181e-08
2.28105e-13
-2.86672e-08
2.83882e-08
4.97064e-14
-4.51777e-08
3.7963e-08
9.5351e-13
-6.48009e-08
4.63042e-08
1.21441e-12
-8.69494e-08
5.30635e-08
1.35317e-12
-1.10971e-07
5.80843e-08
1.46396e-12
-1.36191e-07
6.133e-08
1.51926e-12
-1.61934e-07
6.28365e-08
1.5293e-12
-1.8755e-07
6.26822e-08
1.50543e-12
-2.12419e-07
6.09683e-08
1.45318e-12
-2.35965e-07
5.78078e-08
1.37622e-12
-2.57654e-07
5.33194e-08
1.2771e-12
-2.77e-07
4.76257e-08
1.15703e-12
-2.93572e-07
4.08544e-08
1.01636e-12
-3.06991e-07
3.31402e-08
8.55532e-13
-3.1694e-07
2.46283e-08
6.7577e-13
-3.23165e-07
1.54776e-08
4.78957e-13
-3.25487e-07
5.86338e-09
2.6713e-13
-3.23804e-07
-4.02035e-09
4.2522e-14
-3.181e-07
-1.39606e-08
-1.9186e-13
-3.08451e-07
-2.37263e-08
-4.31198e-13
-2.9503e-07
-3.30708e-08
-6.68995e-13
-2.78113e-07
-4.17367e-08
-8.9794e-13
-2.58075e-07
-4.94624e-08
-1.11073e-12
-2.35392e-07
-5.59901e-08
-1.30014e-12
-2.10636e-07
-6.10761e-08
-1.45845e-12
-1.84458e-07
-6.45016e-08
-1.57718e-12
-1.5758e-07
-6.60847e-08
-1.64779e-12
-1.30771e-07
-6.56937e-08
-1.66285e-12
-1.04822e-07
-6.32607e-08
-1.61643e-12
-8.05142e-08
-5.87964e-08
-1.50168e-12
-5.85836e-08
-5.24073e-08
-1.31563e-12
-3.96744e-08
-4.43181e-08
-1.08621e-12
-2.42906e-08
-3.49023e-08
-7.64403e-13
-1.27391e-08
-2.47298e-08
8.42264e-16
-5.06943e-09
-1.46321e-08
4.61625e-14
-1.02152e-09
-5.78269e-09
-3.27174e-12
3.89643e-11
4.82093e-12
-2.52705e-09
3.57632e-09
-1.05391e-11
-1.00921e-08
1.60586e-08
9.18783e-12
-2.25373e-08
3.0663e-08
2.18628e-13
-3.9575e-08
4.54268e-08
-7.94783e-13
-6.07414e-08
5.91292e-08
1.20692e-13
-8.54301e-08
7.09928e-08
1.3277e-13
-1.12938e-07
8.05715e-08
5.96455e-14
-1.42506e-07
8.76519e-08
4.098e-14
-1.7335e-07
9.21745e-08
1.78854e-14
-2.04693e-07
9.41791e-08
-6.35003e-15
-2.35777e-07
9.37664e-08
-2.31395e-14
-2.65882e-07
9.10731e-08
-3.09322e-14
-2.94331e-07
8.62566e-08
-2.96817e-14
-3.20498e-07
7.94864e-08
-1.97412e-14
-3.43813e-07
7.09409e-08
-2.28644e-15
-3.63766e-07
6.0808e-08
2.04497e-14
-3.79914e-07
4.92879e-08
4.56498e-14
-3.91882e-07
3.65967e-08
7.08362e-14
-3.99376e-07
2.2971e-08
9.43059e-14
-4.02184e-07
8.67107e-09
1.14645e-13
-4.00188e-07
-6.01653e-09
1.30018e-13
-3.9337e-07
-2.07783e-08
1.38205e-13
-3.81821e-07
-3.52756e-08
1.37575e-13
-3.65744e-07
-4.91484e-08
1.27929e-13
-3.45458e-07
-6.2022e-08
1.10403e-13
-3.21404e-07
-7.35166e-08
8.65473e-14
-2.94135e-07
-8.32592e-08
5.76266e-14
-2.64314e-07
-9.08973e-08
2.48666e-14
-2.327e-07
-9.61157e-08
-9.66852e-15
-2.00131e-07
-9.86536e-08
-4.26338e-14
-1.67501e-07
-9.83235e-08
-7.01354e-14
-1.35731e-07
-9.5031e-08
-8.8267e-14
-1.05732e-07
-8.87954e-08
-8.9954e-14
-7.83664e-08
-7.97727e-08
-7.44222e-14
-5.44019e-08
-6.82824e-08
-9.07879e-14
-3.44624e-08
-5.48417e-08
-3.96676e-14
-1.89806e-08
-4.02124e-08
7.05657e-13
-8.154e-09
-2.54587e-08
2.70516e-14
-1.91934e-09
-1.20106e-08
-6.71488e-12
-1.88839e-09
8.01912e-12
-3.48422e-09
7.07467e-09
-1.41338e-11
-1.34126e-08
2.59739e-08
1.30996e-11
-2.9223e-08
4.64728e-08
5.03136e-13
-5.03442e-08
6.65491e-08
-1.0602e-12
-7.61028e-08
8.48876e-08
1.31497e-13
-1.05733e-07
1.00623e-07
1.2963e-13
-1.38406e-07
1.13244e-07
3.54345e-14
-1.73254e-07
1.225e-07
2.93047e-14
-2.09396e-07
1.28317e-07
2.10793e-14
-2.45963e-07
1.30745e-07
9.18801e-15
-2.82109e-07
1.29913e-07
2.54471e-15
-3.17031e-07
1.25995e-07
2.16221e-15
-3.49973e-07
1.19198e-07
7.65845e-15
-3.80234e-07
1.09747e-07
1.87014e-14
-4.07175e-07
9.78824e-08
3.47381e-14
-4.30226e-07
8.38584e-08
5.44175e-14
-4.48886e-07
6.79482e-08
7.53673e-14
-4.62737e-07
5.04474e-08
9.49059e-14
-4.71445e-07
3.16791e-08
1.11066e-13
-4.74773e-07
1.19984e-08
1.22819e-13
-4.72584e-07
-8.205e-09
1.29331e-13
-4.64857e-07
-2.8506e-08
1.29251e-13
-4.51686e-07
-4.84463e-08
1.20985e-13
-4.33295e-07
-6.75398e-08
1.03789e-13
-4.10036e-07
-8.52816e-08
7.85555e-14
-3.82392e-07
-1.0116e-07
4.75291e-14
-3.50979e-07
-1.14673e-07
1.32889e-14
-3.16531e-07
-1.25345e-07
-2.18945e-14
-2.79895e-07
-1.32752e-07
-5.57457e-14
-2.42005e-07
-1.36543e-07
-8.5288e-14
-2.03865e-07
-1.36463e-07
-1.07052e-13
-1.66511e-07
-1.32384e-07
-1.17307e-13
-1.30979e-07
-1.24328e-07
-1.08145e-13
-9.82569e-08
-1.12495e-07
-8.2502e-14
-6.92453e-08
-9.72939e-08
-1.16648e-13
-4.47082e-08
-7.93787e-08
-7.25155e-14
-2.5234e-08
-5.96875e-08
9.34403e-13
-1.12031e-08
-3.94895e-08
-2.077e-13
-2.77973e-09
-2.04238e-08
-1.0159e-11
-4.67944e-09
1.13266e-11
-4.37706e-09
1.14693e-08
-1.7591e-11
-1.65769e-08
3.8157e-08
1.67961e-11
-3.56657e-08
6.55608e-08
8.10809e-13
-6.07867e-08
9.16713e-08
-1.25016e-12
-9.10424e-08
1.15143e-07
2.18499e-13
-1.25494e-07
1.35074e-07
2.1132e-13
-1.63173e-07
1.50924e-07
1.02e-13
-2.03102e-07
1.62428e-07
1.11004e-13
-2.44305e-07
1.6952e-07
1.18641e-13
-2.85828e-07
1.72268e-07
1.18634e-13
-3.26751e-07
1.70835e-07
1.20164e-13
-3.66199e-07
1.65443e-07
1.23935e-13
-4.03351e-07
1.5635e-07
1.29288e-13
-4.37447e-07
1.43843e-07
1.3565e-13
-4.67792e-07
1.28228e-07
1.4268e-13
-4.93765e-07
1.09831e-07
1.49937e-13
-5.1482e-07
8.90032e-08
1.56115e-13
-5.30498e-07
6.6126e-08
1.58969e-13
-5.40434e-07
4.16149e-08
1.5629e-13
-5.44363e-07
1.59264e-08
1.46913e-13
-5.42129e-07
-1.04392e-08
1.30725e-13
-5.33697e-07
-3.69372e-08
1.0777e-13
-5.19163e-07
-6.29809e-08
7.76262e-14
-4.98755e-07
-8.79481e-08
3.98428e-14
-4.72844e-07
-1.11192e-07
-4.95399e-15
-4.41945e-07
-1.32059e-07
-5.44074e-14
-4.06716e-07
-1.49902e-07
-1.04863e-13
-3.67949e-07
-1.64111e-07
-1.52404e-13
-3.26562e-07
-1.74139e-07
-1.93467e-13
-2.83577e-07
-1.79528e-07
-2.24707e-13
-2.40095e-07
-1.79945e-07
-2.43101e-13
-1.97267e-07
-1.75213e-07
-2.45562e-13
-1.56251e-07
-1.65344e-07
-2.23633e-13
-1.18173e-07
-1.50572e-07
-1.83676e-13
-8.40811e-08
-1.31386e-07
-2.28071e-13
-5.49007e-08
-1.08559e-07
-1.80418e-13
-3.14003e-08
-8.3189e-08
1.09611e-12
-1.41643e-08
-5.67249e-08
-4.68852e-13
-3.5913e-09
-3.09834e-08
-1.34713e-11
-8.28527e-09
1.45278e-11
-5.21027e-09
1.67005e-08
-2.08691e-11
-1.95761e-08
5.25025e-08
2.02547e-11
-4.18289e-08
8.78126e-08
1.093e-12
-7.08364e-08
1.2068e-07
-1.45213e-12
-1.05475e-07
1.49781e-07
2.52867e-13
-1.44623e-07
1.74222e-07
2.15269e-13
-1.87169e-07
1.93471e-07
6.90844e-14
-2.32019e-07
2.07278e-07
7.4436e-14
-2.78103e-07
2.15603e-07
8.45284e-14
-3.24386e-07
2.18551e-07
8.84646e-14
-3.6988e-07
2.1633e-07
9.51084e-14
-4.13652e-07
2.09214e-07
1.04545e-13
-4.54824e-07
1.97523e-07
1.15764e-13
-4.92588e-07
1.81607e-07
1.27591e-13
-5.26204e-07
1.61843e-07
1.39011e-13
-5.55007e-07
1.38634e-07
1.49575e-13
-5.78415e-07
1.12411e-07
1.58732e-13
-5.95934e-07
8.36448e-08
1.64959e-13
-6.07166e-07
5.28465e-08
1.65908e-13
-6.11818e-07
2.05779e-08
1.59555e-13
-6.09711e-07
-1.25459e-08
1.45133e-13
-6.00793e-07
-4.58552e-08
1.22957e-13
-5.85146e-07
-7.86284e-08
9.34762e-14
-5.62994e-07
-1.101e-07
5.67568e-14
-5.34714e-07
-1.39473e-07
1.30029e-14
-5.00836e-07
-1.65936e-07
-3.63903e-14
-4.62047e-07
-1.8869e-07
-8.83282e-14
-4.19185e-07
-2.06973e-07
-1.38544e-13
-3.73226e-07
-2.20097e-07
-1.82602e-13
-3.25272e-07
-2.27482e-07
-2.16594e-13
-2.7652e-07
-2.28697e-07
-2.3779e-13
-2.28233e-07
-2.23499e-07
-2.43931e-13
-1.81705e-07
-2.11872e-07
-2.2625e-13
-1.3821e-07
-1.94067e-07
-1.9417e-13
-9.89606e-08
-1.70634e-07
-2.74395e-13
-6.5067e-08
-1.42452e-07
-2.51124e-13
-3.74975e-08
-1.1076e-07
1.2611e-12
-1.70535e-08
-7.71682e-08
-7.25929e-13
-4.36486e-09
-4.36554e-08
-1.66581e-11
-1.26678e-08
1.76257e-11
-5.99323e-09
2.27177e-08
-2.39784e-11
-2.24237e-08
6.89095e-08
2.34974e-11
-4.77203e-08
1.13108e-07
1.36078e-12
-8.04904e-08
1.53452e-07
-1.63476e-12
-1.19387e-07
1.88678e-07
2.92988e-13
-1.63106e-07
2.17941e-07
2.24288e-13
-2.10388e-07
2.40753e-07
3.97807e-14
-2.6002e-07
2.5691e-07
3.79033e-14
-3.10836e-07
2.66419e-07
4.71524e-14
-3.61727e-07
2.69442e-07
5.25509e-14
-4.11642e-07
2.66244e-07
6.23743e-14
-4.59592e-07
2.57164e-07
7.58991e-14
-5.04656e-07
2.42587e-07
9.20432e-14
-5.45985e-07
2.22935e-07
1.09469e-13
-5.828e-07
1.98658e-07
1.26409e-13
-6.14403e-07
1.70237e-07
1.41698e-13
-6.4018e-07
1.38187e-07
1.5492e-13
-6.59602e-07
1.03067e-07
1.65421e-13
-6.72242e-07
6.54864e-08
1.71481e-13
-6.77777e-07
2.61122e-08
1.70697e-13
-6.75999e-07
-1.4324e-08
1.6122e-13
-6.66829e-07
-5.5025e-08
1.42598e-13
-6.50327e-07
-9.51308e-08
1.15446e-13
-6.26701e-07
-1.33726e-07
8.05699e-14
-5.96317e-07
-1.69856e-07
3.85412e-14
-5.5971e-07
-2.02543e-07
-9.75614e-15
-5.17581e-07
-2.30819e-07
-6.22039e-14
-4.70799e-07
-2.53755e-07
-1.15122e-13
-4.20393e-07
-2.70503e-07
-1.63843e-13
-3.67535e-07
-2.8034e-07
-2.03775e-13
-3.1352e-07
-2.82712e-07
-2.31849e-13
-2.59729e-07
-2.77288e-07
-2.46003e-13
-2.07599e-07
-2.64002e-07
-2.36768e-13
-1.5857e-07
-2.43097e-07
-2.16255e-13
-1.1404e-07
-2.15164e-07
-3.34698e-13
-7.53231e-08
-1.81169e-07
-3.36838e-13
-4.36066e-08
-1.42478e-07
1.40861e-12
-1.99196e-08
-1.00854e-07
-9.83448e-13
-5.11973e-09
-5.84355e-08
-1.97662e-11
-1.78082e-08
2.06869e-11
-6.73557e-09
2.94802e-08
-2.69413e-11
-2.51402e-08
8.72876e-08
2.65566e-11
-5.33657e-08
1.41332e-07
1.61164e-12
-8.97739e-08
1.89862e-07
-1.80368e-12
-1.32803e-07
2.31706e-07
3.38306e-13
-1.80965e-07
2.66103e-07
2.41217e-13
-2.32853e-07
2.92641e-07
2.00657e-14
-2.87135e-07
3.11192e-07
9.99465e-15
-3.42553e-07
3.21837e-07
1.68312e-14
-3.97922e-07
3.24811e-07
2.23109e-14
-4.52133e-07
3.20455e-07
3.4095e-14
-5.0415e-07
3.09181e-07
5.02745e-14
-5.53014e-07
2.91451e-07
6.96436e-14
-5.97842e-07
2.67762e-07
9.12555e-14
-6.37825e-07
2.38642e-07
1.13161e-13
-6.72238e-07
2.0465e-07
1.33319e-13
-7.00436e-07
1.66385e-07
1.50631e-13
-7.21862e-07
1.24494e-07
1.64735e-13
-7.36057e-07
7.96813e-08
1.74858e-13
-7.42665e-07
3.27195e-08
1.79131e-13
-7.41444e-07
-1.55451e-08
1.75154e-13
-7.3228e-07
-6.41887e-08
1.61266e-13
-7.152e-07
-1.12211e-07
1.37213e-13
-6.90381e-07
-1.58545e-07
1.03855e-13
-6.58168e-07
-2.02069e-07
6.2351e-14
-6.19081e-07
-2.4163e-07
1.38548e-14
-5.73823e-07
-2.76077e-07
-3.99934e-14
-5.23283e-07
-3.04296e-07
-9.63506e-14
-4.6853e-07
-3.25256e-07
-1.51011e-13
-4.10805e-07
-3.38065e-07
-1.9915e-13
-3.51497e-07
-3.4202e-07
-2.37187e-13
-2.92115e-07
-3.3667e-07
-2.62642e-13
-2.34248e-07
-3.21869e-07
-2.64587e-13
-1.79519e-07
-2.97826e-07
-2.57107e-13
-1.29535e-07
-2.65148e-07
-4.13448e-13
-8.5833e-08
-2.2487e-07
-4.38008e-13
-4.98405e-08
-1.78472e-07
1.54861e-12
-2.28264e-08
-1.27867e-07
-1.2392e-12
-5.87801e-09
-7.53611e-08
-2.28714e-11
-2.371e-08
2.37866e-11
-7.44551e-09
3.69555e-08
-2.9782e-11
-2.7746e-08
1.07559e-07
2.94662e-11
-5.87948e-08
1.72379e-07
1.84506e-12
-9.87211e-08
2.2979e-07
-1.96653e-12
-1.45755e-07
2.78739e-07
3.81934e-13
-1.9823e-07
3.18578e-07
2.58364e-13
-2.54593e-07
3.49004e-07
1.97505e-15
-3.13394e-07
3.69993e-07
-1.70511e-14
-3.73283e-07
3.81726e-07
-1.41199e-14
-4.33005e-07
3.84533e-07
-9.95114e-15
-4.91395e-07
3.78846e-07
2.86584e-15
-5.47379e-07
3.65165e-07
2.09444e-14
-5.99965e-07
3.44037e-07
4.24455e-14
-6.48242e-07
3.1604e-07
6.68995e-14
-6.91381e-07
2.81781e-07
9.29276e-14
-7.28632e-07
2.419e-07
1.18196e-13
-7.59325e-07
1.97078e-07
1.40619e-13
-7.82878e-07
1.48046e-07
1.59194e-13
-7.98798e-07
9.56014e-08
1.73523e-13
-8.06694e-07
4.06153e-08
1.82661e-13
-8.06285e-07
-1.59549e-08
1.84601e-13
-7.97412e-07
-7.30617e-08
1.7698e-13
-7.80057e-07
-1.29567e-07
1.58212e-13
-7.54355e-07
-1.84247e-07
1.28162e-13
-7.20611e-07
-2.35812e-07
8.78418e-14
-6.79317e-07
-2.82924e-07
3.87667e-14
-6.31161e-07
-3.24233e-07
-1.72706e-14
-5.77036e-07
-3.5842e-07
-7.78125e-14
-5.18045e-07
-3.84248e-07
-1.39236e-13
-4.55486e-07
-4.00623e-07
-1.96934e-13
-3.90845e-07
-4.06661e-07
-2.4708e-13
-3.25761e-07
-4.01754e-07
-2.8658e-13
-2.61989e-07
-3.8564e-07
-3.02434e-13
-2.01354e-07
-3.58461e-07
-3.10016e-13
-1.45689e-07
-3.20812e-07
-5.05489e-13
-9.67843e-08
-2.73774e-07
-5.50613e-13
-5.63266e-08
-2.18931e-07
1.69113e-12
-2.58437e-08
-1.58348e-07
-1.49621e-12
-6.66222e-09
-9.45165e-08
-2.60623e-11
-3.03992e-08
2.70076e-11
-8.12947e-09
4.51174e-08
-3.25221e-11
-3.02586e-08
1.29655e-07
3.22559e-11
-6.40348e-08
2.06153e-07
2.06373e-12
-1.07365e-07
2.73122e-07
-2.12576e-12
-1.58276e-07
3.2965e-07
4.22726e-13
-2.1493e-07
3.75232e-07
2.7429e-13
-2.75629e-07
4.09703e-07
-1.58747e-14
-3.38808e-07
4.33172e-07
-4.40567e-14
-4.03027e-07
4.45945e-07
-4.61187e-14
-4.66965e-07
4.48471e-07
-4.46874e-14
-5.2941e-07
4.4129e-07
-3.1922e-14
-5.89251e-07
4.25007e-07
-1.2497e-14
-6.45473e-07
4.00259e-07
1.05541e-14
-6.97146e-07
3.67713e-07
3.66855e-14
-7.43425e-07
3.28059e-07
6.53577e-14
-7.83541e-07
2.82017e-07
9.48596e-14
-8.16808e-07
2.30345e-07
1.22692e-13
-8.42617e-07
1.73855e-07
1.46795e-13
-8.60445e-07
1.13429e-07
1.6617e-13
-8.69862e-07
5.0032e-08
1.80248e-13
-8.7054e-07
-1.52764e-08
1.8783e-13
-8.62271e-07
-8.13309e-08
1.86786e-13
-8.44979e-07
-1.46859e-07
1.74696e-13
-8.18741e-07
-2.10486e-07
1.50014e-13
-7.83808e-07
-2.70746e-07
1.12624e-13
-7.40623e-07
-3.2611e-07
6.36516e-14
-6.89842e-07
-3.75014e-07
5.00943e-15
-6.32348e-07
-4.15914e-07
-6.0765e-14
-5.69257e-07
-4.47338e-07
-1.3022e-13
-5.01923e-07
-4.67957e-07
-1.98913e-13
-4.31919e-07
-4.76664e-07
-2.6291e-13
-3.6102e-07
-4.72653e-07
-3.18494e-13
-2.91157e-07
-4.55502e-07
-3.50232e-13
-2.24374e-07
-4.25244e-07
-3.74451e-13
-1.62757e-07
-3.82428e-07
-6.11032e-13
-1.08372e-07
-3.28158e-07
-6.75692e-13
-6.3197e-08
-2.64108e-07
1.84126e-12
-2.90422e-08
-1.92501e-07
-1.7623e-12
-7.49442e-09
-1.16035e-07
-2.94305e-11
-3.7924e-08
3.04358e-11
-8.79221e-09
5.39448e-08
-3.51794e-11
-3.26916e-08
1.5352e-07
3.49495e-11
-6.91076e-08
2.42567e-07
2.27101e-12
-1.1573e-07
3.19747e-07
-2.28209e-12
-1.70392e-07
3.84312e-07
4.60848e-13
-2.31084e-07
4.35923e-07
2.88567e-13
-2.95966e-07
4.74585e-07
-3.4339e-14
-3.63363e-07
5.00569e-07
-7.17038e-14
-4.3175e-07
5.14332e-07
-7.94896e-14
-4.99743e-07
5.16464e-07
-8.22173e-14
-5.6609e-07
5.07637e-07
-7.10282e-14
-6.29652e-07
4.88569e-07
-5.11678e-14
-6.89398e-07
4.60004e-07
-2.69176e-14
-7.44386e-07
4.22702e-07
3.20476e-16
-7.93765e-07
3.77437e-07
3.03169e-14
-8.36756e-07
3.25008e-07
6.24226e-14
-8.72659e-07
2.66248e-07
9.47382e-14
-9.00845e-07
2.02041e-07
1.24693e-13
-9.20762e-07
1.33346e-07
1.50217e-13
-9.31939e-07
6.1209e-08
1.70143e-13
-9.34e-07
-1.32158e-08
1.8355e-13
-9.26675e-07
-8.86562e-08
1.88929e-13
-9.0982e-07
-1.63714e-07
1.83869e-13
-8.83441e-07
-2.36865e-07
1.65897e-13
-8.47714e-07
-3.06473e-07
1.33422e-13
-8.03016e-07
-3.70807e-07
8.63052e-14
-7.4995e-07
-4.28081e-07
2.58335e-14
-6.89364e-07
-4.76499e-07
-4.55489e-14
-6.22376e-07
-5.14326e-07
-1.24287e-13
-5.50373e-07
-5.3996e-07
-2.05754e-13
-4.75013e-07
-5.52023e-07
-2.8569e-13
-3.98203e-07
-5.49463e-07
-3.59547e-13
-3.22063e-07
-5.31643e-07
-4.09019e-13
-2.48868e-07
-4.98438e-07
-4.51215e-13
-1.80986e-07
-4.50309e-07
-7.31471e-13
-1.20791e-07
-3.88352e-07
-8.15267e-13
-7.05833e-08
-3.14318e-07
2.00287e-12
-3.24919e-08
-2.30591e-07
-2.04676e-12
-8.39596e-09
-1.40098e-07
-3.30671e-11
-4.63542e-08
3.41562e-11
-9.43714e-09
6.34197e-08
-3.77682e-11
-3.50554e-08
1.79101e-07
3.75658e-11
-7.403e-08
2.81539e-07
2.47041e-12
-1.23838e-07
3.69558e-07
-2.43528e-12
-1.82119e-07
4.42592e-07
4.97091e-13
-2.46695e-07
5.00499e-07
3.01231e-13
-3.1559e-07
5.4348e-07
-5.42362e-14
-3.87019e-07
5.71997e-07
-1.01178e-13
-4.59377e-07
5.8669e-07
-1.15269e-13
-5.31227e-07
5.88314e-07
-1.23366e-13
-6.0128e-07
5.7769e-07
-1.15558e-13
-6.68381e-07
5.5567e-07
-9.68646e-14
-7.3149e-07
5.23113e-07
-7.21602e-14
-7.89667e-07
4.8088e-07
-4.4001e-14
-8.42062e-07
4.29832e-07
-1.32305e-14
-8.87897e-07
3.70843e-07
2.0096e-14
-9.26464e-07
3.04815e-07
5.52409e-14
-9.57122e-07
2.32698e-07
9.01723e-14
-9.79291e-07
1.55515e-07
1.22261e-13
-9.92463e-07
7.43808e-08
1.49283e-13
-9.96207e-07
-9.47126e-09
1.69672e-13
-9.90189e-07
-9.46751e-08
1.82068e-13
-9.74184e-07
-1.79719e-07
1.84301e-13
-9.4811e-07
-2.62939e-07
1.73687e-13
-9.12053e-07
-3.42531e-07
1.47589e-13
-8.66299e-07
-4.16561e-07
1.04329e-13
-8.11371e-07
-4.83008e-07
4.38079e-14
-7.48063e-07
-5.39808e-07
-3.23403e-14
-6.77464e-07
-5.84926e-07
-1.2076e-13
-6.00977e-07
-6.16446e-07
-2.16548e-13
-5.20331e-07
-6.32669e-07
-3.14855e-13
-4.3756e-07
-6.32234e-07
-4.09907e-13
-3.54973e-07
-6.14229e-07
-4.79808e-13
-2.75101e-07
-5.7831e-07
-5.42063e-13
-2.00612e-07
-5.24797e-07
-8.69673e-13
-1.34228e-07
-4.54736e-07
-9.72671e-13
-7.8613e-08
-3.69936e-07
2.17898e-12
-3.6261e-08
-2.7294e-07
-2.35914e-12
-9.38756e-09
-1.66934e-07
-3.70612e-11
-5.578e-08
3.82518e-11
-1.00669e-08
7.35269e-08
-4.03207e-11
-3.73584e-08
2.06352e-07
4.01173e-11
-7.88156e-08
3.22993e-07
2.66579e-12
-1.31703e-07
4.22448e-07
-2.58415e-12
-1.93465e-07
5.04354e-07
5.33009e-13
-2.61758e-07
5.68791e-07
3.13122e-13
-3.34468e-07
6.16191e-07
-7.57391e-14
-4.09707e-07
6.47237e-07
-1.3349e-13
-4.85796e-07
6.62779e-07
-1.54737e-13
-5.61249e-07
6.63767e-07
-1.69127e-13
-6.34754e-07
6.51195e-07
-1.66304e-13
-7.05146e-07
6.26062e-07
-1.50824e-13
-7.71392e-07
5.89359e-07
-1.27231e-13
-8.32563e-07
5.42052e-07
-9.8696e-14
-8.87823e-07
4.85092e-07
-6.71737e-14
-9.36407e-07
4.19426e-07
-3.31134e-14
-9.77611e-07
3.46019e-07
3.51327e-15
-1.01079e-06
2.65874e-07
4.18308e-14
-1.03534e-06
1.80065e-07
7.96825e-14
-1.05072e-06
8.97603e-08
1.1429e-13
-1.05644e-06
-3.74551e-09
1.43044e-13
-1.05211e-06
-9.90107e-08
1.64003e-13
-1.0374e-06
-1.94426e-07
1.74645e-13
-1.01213e-06
-2.88205e-07
1.72236e-13
-9.76283e-07
-3.78381e-07
1.53607e-13
-9.30021e-07
-4.62823e-07
1.15852e-13
-8.73764e-07
-5.39266e-07
5.72464e-14
-8.08215e-07
-6.05357e-07
-2.20415e-14
-7.34406e-07
-6.58734e-07
-1.19523e-13
-6.53731e-07
-6.9712e-07
-2.3041e-13
-5.67963e-07
-7.18437e-07
-3.49323e-13
-4.79252e-07
-7.20944e-07
-4.69016e-13
-3.90098e-07
-7.03382e-07
-5.63209e-13
-3.03295e-07
-6.65113e-07
-6.49208e-13
-2.21846e-07
-6.06244e-07
-1.02999e-12
-1.48856e-07
-5.27724e-07
-1.15328e-12
-8.74084e-08
-4.31386e-07
2.37076e-12
-4.04156e-08
-3.1993e-07
-2.7098e-12
-1.04894e-08
-1.96819e-07
-4.15004e-11
-6.63122e-08
4.28057e-11
-1.06839e-08
8.42533e-08
-4.25203e-11
-3.96085e-08
2.35234e-07
4.26111e-11
-8.34775e-08
3.66859e-07
2.86336e-12
-1.39337e-07
4.7831e-07
-2.72583e-12
-2.04435e-07
5.69451e-07
5.71126e-13
-2.76258e-07
6.40614e-07
3.25802e-13
-3.52557e-07
6.92489e-07
-9.834e-14
-4.3134e-07
7.2602e-07
-1.69241e-13
-5.10862e-07
7.42301e-07
-1.99307e-13
-5.89597e-07
7.42503e-07
-2.20937e-13
-6.6622e-07
7.27818e-07
-2.24163e-13
-7.39572e-07
6.99415e-07
-2.13673e-13
-8.08638e-07
6.58425e-07
-1.93269e-13
-8.72518e-07
6.05931e-07
-1.65756e-13
-9.30402e-07
5.42976e-07
-1.33796e-13
-9.81553e-07
4.70577e-07
-9.88501e-14
-1.02528e-06
3.89751e-07
-6.11039e-14
-1.06096e-06
3.01545e-07
-2.06082e-14
-1.08796e-06
2.07067e-07
2.15625e-14
-1.10572e-06
1.0752e-07
6.30841e-14
-1.1137e-06
4.23803e-09
1.00933e-13
-1.11143e-06
-1.01284e-07
1.31827e-13
-1.09849e-06
-2.07363e-07
1.52751e-13
-1.07459e-06
-3.12108e-07
1.60315e-13
-1.03956e-06
-4.13408e-07
1.50742e-13
-9.93445e-07
-5.08941e-07
1.20154e-13
-9.36512e-07
-5.96198e-07
6.53324e-14
-8.69342e-07
-6.72526e-07
-1.52977e-14
-7.92873e-07
-7.35204e-07
-1.20708e-13
-7.08446e-07
-7.81546e-07
-2.46836e-13
-6.17851e-07
-8.09032e-07
-3.88189e-13
-5.2333e-07
-8.15465e-07
-5.36122e-13
-4.27565e-07
-7.99147e-07
-6.59386e-13
-3.33623e-07
-7.59054e-07
-7.74584e-13
-2.44868e-07
-6.94998e-07
-1.21726e-12
-1.64836e-07
-6.07755e-07
-1.36402e-12
-9.70854e-08
-4.99139e-07
2.57717e-12
-4.502e-08
-3.71993e-07
-3.11094e-12
-1.17216e-08
-2.30071e-07
-4.64719e-11
-7.80817e-08
4.79023e-11
-1.12909e-08
9.55895e-08
-4.52456e-11
-4.1816e-08
2.65714e-07
4.51232e-11
-8.8033e-08
4.13073e-07
3.075e-12
-1.46761e-07
5.37041e-07
-2.85479e-12
-2.15041e-07
6.3773e-07
6.15223e-13
-2.90184e-07
7.15757e-07
3.41285e-13
-3.69805e-07
7.7211e-07
-1.21154e-13
-4.51812e-07
8.08028e-07
-2.08585e-13
-5.34399e-07
8.24888e-07
-2.50265e-13
-6.16012e-07
8.24117e-07
-2.80688e-13
-6.95325e-07
8.0713e-07
-2.90659e-13
-7.712e-07
7.7529e-07
-2.86058e-13
-8.42658e-07
7.29884e-07
-2.70492e-13
-9.08844e-07
6.72118e-07
-2.45863e-13
-9.68996e-07
6.03128e-07
-2.14575e-13
-1.02242e-06
5.24001e-07
-1.78818e-13
-1.06847e-06
4.35797e-07
-1.39635e-13
-1.10651e-06
3.39592e-07
-9.71473e-14
-1.13596e-06
2.36511e-07
-5.16337e-14
-1.15621e-06
1.27769e-07
-4.43475e-15
-1.16668e-06
1.47147e-08
4.18483e-14
-1.16684e-06
-1.01132e-07
8.33639e-14
-1.15616e-06
-2.18042e-07
1.16314e-13
-1.13422e-06
-3.34046e-07
1.36207e-13
-1.10071e-06
-4.46915e-07
1.38197e-13
-1.0555e-06
-5.54153e-07
1.17211e-13
-9.98686e-07
-6.53013e-07
6.84841e-14
-9.30679e-07
-7.40533e-07
-1.14486e-14
-8.52272e-07
-8.13611e-07
-1.23437e-13
-7.64712e-07
-8.69106e-07
-2.64747e-13
-6.69756e-07
-9.03987e-07
-4.30337e-13
-5.69705e-07
-9.15516e-07
-6.1045e-13
-4.67402e-07
-9.01449e-07
-7.68453e-13
-3.66192e-07
-8.60263e-07
-9.20007e-13
-2.69822e-07
-7.91366e-07
-1.43642e-12
-1.82307e-07
-6.95268e-07
-1.61258e-12
-1.07752e-07
-5.73697e-07
2.79556e-12
-5.01367e-08
-4.29605e-07
-3.57705e-12
-1.31042e-08
-2.67051e-07
-5.20651e-11
-9.12395e-08
5.36277e-11
-1.18926e-08
1.0753e-07
-4.7655e-11
-4.39963e-08
2.9777e-07
4.76242e-11
-9.25088e-08
4.61583e-07
3.30356e-12
-1.54005e-07
5.9854e-07
-2.96966e-12
-2.25305e-07
7.0903e-07
6.68117e-13
-3.03535e-07
7.93986e-07
3.61276e-13
-3.86167e-07
8.54742e-07
-1.43555e-13
-4.71014e-07
8.92876e-07
-2.51606e-13
-5.56214e-07
9.10088e-07
-3.08614e-13
-6.40198e-07
9.08102e-07
-3.50328e-13
-7.21655e-07
8.88588e-07
-3.67936e-13
-7.99489e-07
8.53124e-07
-3.6925e-13
-8.72776e-07
8.03171e-07
-3.58899e-13
-9.40726e-07
7.40069e-07
-3.38354e-13
-1.00265e-06
6.6505e-07
-3.09163e-13
-1.05791e-06
5.79265e-07
-2.73355e-13
-1.10592e-06
4.8381e-07
-2.32602e-13
-1.14611e-06
3.79774e-07
-1.87676e-13
-1.17787e-06
2.68279e-07
-1.38817e-13
-1.20063e-06
1.50527e-07
-8.66584e-14
-1.21377e-06
2.78537e-08
-3.29947e-14
-1.21667e-06
-9.82288e-08
1.88926e-14
-1.20874e-06
-2.25979e-07
6.46477e-14
-1.1894e-06
-3.53386e-07
9.88422e-14
-1.15818e-06
-4.78134e-07
1.15268e-13
-1.11475e-06
-5.97582e-07
1.07199e-13
-1.059e-06
-7.08763e-07
6.78918e-14
-9.91119e-07
-8.08411e-07
-8.43079e-15
-9.11708e-07
-8.93022e-07
-1.25034e-13
-8.21851e-07
-9.58961e-07
-2.812e-13
-7.23218e-07
-1.00262e-06
-4.73055e-13
-6.18114e-07
-1.02062e-06
-6.90149e-13
-5.09514e-07
-1.01005e-06
-8.90072e-13
-4.01026e-07
-9.6875e-07
-1.08737e-12
-2.96802e-07
-8.95589e-07
-1.69287e-12
-2.01386e-07
-7.90682e-07
-1.9075e-12
-1.1951e-07
-6.55576e-07
3.02198e-12
-5.58271e-08
-4.93283e-07
-4.12517e-12
-1.46575e-08
-3.08162e-07
-5.83739e-11
-1.05957e-07
6.00699e-11
-1.24963e-08
1.20076e-07
-5.01095e-11
-4.61738e-08
3.31397e-07
5.01647e-11
-9.69476e-08
5.12353e-07
3.55957e-12
-1.61123e-07
6.62719e-07
-3.06627e-12
-2.35276e-07
7.83182e-07
7.34365e-13
-3.16332e-07
8.75042e-07
3.87706e-13
-4.01613e-07
9.40023e-07
-1.65602e-13
-4.88838e-07
9.80101e-07
-2.99049e-13
-5.761e-07
9.9735e-07
-3.7545e-13
-6.61829e-07
9.93831e-07
-4.31559e-13
-7.44749e-07
9.71508e-07
-4.58209e-13
-8.23824e-07
9.322e-07
-4.65103e-13
-8.98215e-07
8.77562e-07
-4.58929e-13
-9.67221e-07
8.09076e-07
-4.41985e-13
-1.03025e-06
7.28075e-07
-4.15362e-13
-1.08675e-06
6.35768e-07
-3.80334e-13
-1.13622e-06
5.33279e-07
-3.38416e-13
-1.17814e-06
4.21695e-07
-2.90797e-13
-1.21197e-06
3.02112e-07
-2.38099e-13
-1.23714e-06
1.75694e-07
-1.80815e-13
-1.25301e-06
4.37298e-08
-1.201e-13
-1.25893e-06
-9.23117e-08
-5.84348e-14
-1.25419e-06
-2.30718e-07
7.62448e-17
-1.2381e-06
-3.6948e-07
4.96324e-14
-1.20999e-06
-5.06238e-07
8.28887e-14
-1.16933e-06
-6.38246e-07
9.12729e-14
-1.11574e-06
-7.62348e-07
6.55765e-14
-1.04917e-06
-8.7499e-07
-2.98452e-15
-9.69921e-07
-9.72266e-07
-1.20972e-13
-8.78868e-07
-1.05001e-06
-2.90747e-13
-7.77508e-07
-1.10398e-06
-5.10721e-13
-6.68086e-07
-1.13004e-06
-7.70551e-13
-5.5365e-07
-1.12448e-06
-1.02179e-12
-4.38047e-07
-1.08435e-06
-1.27764e-12
-3.25842e-07
-1.00779e-06
-1.99244e-12
-2.22161e-07
-8.94361e-07
-2.25883e-12
-1.32448e-07
-7.45293e-07
3.2506e-12
-6.21513e-08
-5.63575e-07
-4.77572e-12
-1.64028e-08
-3.53845e-07
-6.54996e-11
-1.22427e-07
6.73205e-11
-1.31132e-08
1.33242e-07
-5.264e-11
-4.83866e-08
3.66618e-07
5.28118e-11
-1.01417e-07
5.6538e-07
3.85978e-12
-1.68201e-07
7.29506e-07
-3.13859e-12
-2.45038e-07
8.60018e-07
8.20197e-13
-3.28631e-07
9.58634e-07
4.22752e-13
-4.16141e-07
1.02753e-06
-1.88454e-13
-5.05194e-07
1.06915e-06
-3.53266e-13
-5.93848e-07
1.08601e-06
-4.52967e-13
-6.80553e-07
1.08054e-06
-5.26195e-13
-7.6409e-07
1.05505e-06
-5.63262e-13
-8.43516e-07
1.01163e-06
-5.75282e-13
-9.18098e-07
9.52144e-07
-5.7128e-13
-9.87258e-07
8.78236e-07
-5.55563e-13
-1.05052e-06
7.91338e-07
-5.29943e-13
-1.10747e-06
6.92715e-07
-4.95268e-13
-1.15769e-06
5.83506e-07
-4.5237e-13
-1.20078e-06
4.6478e-07
-4.0216e-13
-1.23625e-06
3.37585e-07
-3.45356e-13
-1.26358e-06
2.03021e-07
-2.82503e-13
-1.28214e-06
6.22918e-08
-2.14461e-13
-1.29124e-06
-8.32145e-08
-1.43095e-13
-1.29009e-06
-2.31862e-07
-7.18955e-14
-1.27788e-06
-3.81693e-07
-6.45273e-15
-1.25376e-06
-5.3036e-07
4.53285e-14
-1.21694e-06
-6.75063e-07
7.33233e-14
-1.16678e-06