/*--------------------------------*- C++ -*----------------------------------*\
  =========                 |
  \\      /  F ield         | OpenFOAM: The Open Source CFD Toolbox
   \\    /   O peration     | Website:  https://openfoam.org
    \\  /    A nd           | Version:  9
     \\/     M anipulation  |
\*---------------------------------------------------------------------------*/
FoamFile
{
    format      ascii;
    class       surfaceScalarField;
    location    "14.9";
    object      phi;
}
// * * * * * * * * * * * * * * * * * * * * * * * * * * * * * * * * * * * * * //

dimensions      [0 3 -1 0 0 0 0];

internalField   nonuniform List<scalar> 
1300
(
11.2529
1.87548
-4.31195
11.2529
-4.89868
1.87548
-4.19611
4.19611
-1.19648
1.19648
5.71232
5.54054
-2.38205
2.38205
-2.8553
2.8553
-2.86284
2.86284
-1.06194
1.06194
-1.02828
1.02828
0.695974
-0.695974
-3.36106
3.36106
-1.4616
1.4616
-2.89536
2.89536
6.12816
-6.12816
-3.32006
3.32006
-0.750088
0.750088
-4.26323
15.5161
6.98963
6.98963
-2.37537
2.37537
-1.25442
1.25442
1.41034
-1.41034
9.3036
-9.3036
-4.99165
-6.01906
1.86989
-13.7894
-3.0288
-3.0288
-2.7054
2.7054
-0.829928
1.04555
3.47612
-3.47612
-0.766695
0.766695
-4.27623
0.0801191
-4.27623
3.9868
0.209309
3.9868
-1.33767
0.141184
-1.33767
4.63568
-4.63568
1.08533
0.111153
1.08533
3.92789
-3.92789
-5.71004
11.4224
5.54282
-5.32062
20.8367
-5.93224
11.4728
-3.92441
3.92441
-2.29438
-0.0876762
-2.29438
2.38963
-0.00757956
2.38963
-3.97871
3.97871
-2.63736
-0.217935
-2.63736
2.96508
-0.109784
2.96508
3.66363
-3.66363
-2.91823
0.0553857
-2.91823
2.71155
0.151291
2.71155
0.771042
1.10443
-2.64652
3.69207
-1.10443
0.0424987
1.02614
0.0357986
1.02614
-1.01454
-0.0137379
-1.01454
1.04989
-0.0216176
1.04989
0.735182
-0.0392076
0.735182
-0.756127
0.0601527
-0.756127
-8.53737
-8.95097
-3.49027
0.12921
-3.49027
-1.47879
0.0171918
-1.47879
1.49881
-0.0372116
1.49881
-2.55771
2.55771
-3.22761
0.332252
-3.22761
4.80647
1.32168
4.80647
5.04613
6.20673
16.299
-16.299
10.1708
-3.03187
-0.288187
-3.03187
-3.49958
-5.80402
3.49958
-0.179522
-0.81299
0.0629026
-0.81299
5.62652
1.36311
5.62652
2.59006
0.121495
-2.59006
0.214691
4.61562
-4.61562
1.42588
0.949484
1.42588
-1.19138
1.19138
1.12354
-0.0736486
-1.12354
-0.130876
1.38601
0.0243339
1.38601
-1.40975
-0.000595485
-1.40975
7.39582
-13.4149
-7.8767
3.1711
0.189965
-3.1711
0.142302
3.56252
-0.0864033
3.56252
-3.31037
3.31037
-3.61048
0.134362
-3.61048
-0.69029
-0.0764055
-0.69029
0.853135
-0.0864396
0.853135
-4.52305
0.246823
-4.52305
-3.65968
0.432067
3.65968
0.327118
1.26858
-1.26858
-1.4445
0.106836
-1.4445
-4.61106
0.0880094
4.61106
0.0246198
-4.73626
0.100583
-4.73626
-3.71218
0.101703
3.71218
0.215706
4.58922
1.0373
-4.58922
0.661328
-5.3695
11.5762
-5.88336
11.4262
-3.54857
-0.375837
-3.54857
4.10767
-0.183264
4.10767
2.56548
0.329882
-2.56548
0.2711
2.52231
-0.132677
2.52231
-3.93463
-0.0440826
-3.93463
3.7762
0.202513
3.7762
2.5684
-0.0460852
-2.5684
-0.0689673
2.94834
0.0167417
2.94834
3.6687
-0.00507177
3.6687
-3.53747
-0.126159
-3.53747
3.18022
-3.18022
3.08224
0.0979776
-3.08224
0.164014
-5.07402
5.07343
-0.00799936
-5.06602
1.01814
1.01814
0.777068
-0.0418859
0.777068
-0.861929
0.105802
-0.861929
8.34891
-16.2256
8.82102
-17.3584
7.4582
-21.2476
7.99497
-16.9459
3.78116
-3.78116
3.70979
0.0713736
-3.70979
0.219516
-1.45982
-0.0189647
-1.45982
-2.3185
-0.239216
-2.3185
2.89328
-0.335569
2.89328
-3.74244
3.74244
-4.12499
0.382547
4.12499
0.681483
3.01467
-0.0663319
-3.01467
-0.0171982
0.932935
0.152397
-0.932935
0.119944
4.84827
-0.232644
4.84827
-4.07775
-0.537874
-4.07775
-1.47801
0.0181841
1.47801
-0.052127
-1.25889
0.0675123
-1.25889
-5.0745
0.00847753
-5.0387
-1.40127
-1.40127
1.30414
4.9962
-3.58416
0.0466934
3.58416
-0.0216427
3.52755
0.214896
-3.52755
0.217177
-3.26423
0.0840129
3.26423
0.0461359
-0.66736
-0.0229295
-0.66736
-1.04857
1.04857
-0.929829
-0.118744
0.929829
-0.0766941
1.42591
-0.157335
1.42591
1.47758
0.0212313
-1.47758
0.0330744
-4.98165
0.245394
-4.98165
4.11045
-0.00277182
4.11045
-3.94382
-0.133924
3.94382
-0.275123
-0.0037224
5.07715
-1.01442
-0.000122894
1.01442
-5.10148
5.10136
-0.672543
0.0051831
0.672543
0.104524
1.02947
0.161909
-1.02947
0.16754
3.80984
-0.0336455
-3.80984
0.0286787
-2.03398
-0.284521
-2.03398
-3.21983
-0.328741
3.21983
-0.326548
-5.11514
-0.0779803
5.19312
-5.13676
1.33687
0.0491362
-1.33687
5.1505
-1.15985
-0.108733
1.15985
-0.111274
1.62754
-0.201627
1.62754
5.09849
-0.250221
-5.09849
0.116832
-4.11601
0.181378
4.11601
-0.00555947
-1.80039
-0.233591
1.80039
-0.172844
-13.128
14.4911
7.70872
-6.36715
-7.04774
-12.1712
4.44717
7.12906
14.618
-11.6208
-9.62681
-11.4784
2.86029
-2.69275
-3.74773
3.70852
23.4805
-23.3799
-18.3995
19.081
20.7765
-20.5608
5.70873
5.71363
15.803
-15.8907
-21.0256
20.6498
15.5058
-15.7238
21.9977
-22.0418
-25.653
25.6194
-16.1031
16.1584
-20.2865
20.1604
-21.043
20.7679
-8.28645
-9.07194
16.3005
-16.1713
20.2996
-20.5878
-19.2268
19.5591
10.0474
4.44371
11.0847
-6.24679
11.9555
-5.22599
12.9347
8.37473
-16.6612
7.85088
-14.8986
9.24191
11.0577
-9.06239
-3.10878
-17.9675
17.8811
-17.2595
17.3057
23.9111
-23.831
-6.17277
11.8864
-5.2534
12.3825
-11.4091
-6.99049
10.0874
4.53064
8.84437
7.45609
-9.03434
-2.44411
-24.7491
24.4989
-25.6316
25.0937
0.0981501
2.42712
-2.52527
1.35257
-0.860123
3.28724
2.00016
2.10597
2.45253
-2.29062
0.24022
-2.76549
-2.89637
-5.38139
5.48823
5.20604
-5.09489
16.4335
7.04697
16.4581
-16.6835
-6.6964
-16.4381
11.3642
7.71686
11.7467
12.0609
8.71563
12.1626
10.3593
-10.3315
-0.0277152
-11.4775
21.8367
1.55487
-18.468
-13.9373
8.84649
6.95649
8.83891
-9.84207
-6.04858
-9.57097
-11.1121
-9.91354
-11.4408
12.3874
8.26242
12.2041
-15.3327
15.3271
9.38733
6.11851
9.27755
-9.02279
-6.701
-9.09175
27.387
-6.58541
-20.8016
-13.1233
-12.5297
12.9208
9.07687
14.2143
11.4051
14.243
8.83881
18.5482
-17.9157
5.38597
-9.95169
-6.15136
-9.78768
9.26691
6.89153
9.4182
-11.7635
-8.52302
-11.7168
-11.9806
-9.06243
11.9857
8.17471
-12.5227
-13.1089
12.6566
8.11125
7.80727
-17.4341
9.13867
-18.2106
-10.83
-5.34125
-10.6105
10.8297
6.59854
-17.4282
-5.83151
23.8389
-12.7812
20.7301
-11.0725
-9.51531
-11.0897
-14.6579
-4.56893
-14.2258
-8.09053
7.80601
-8.92339
8.58782
26.9525
-16.2119
-10.7406
-12.3781
-8.18266
11.7168
-0.632112
-12.8359
12.8082
-0.880402
12.0543
16.498
15.8659
-10.8813
-6.37825
-10.6641
10.2728
7.0329
10.3568
15.9499
7.96122
16.1592
-16.6657
-7.16534
-16.4188
4.90376
-4.98016
5.72898
-5.7108
15.5528
9.54095
-15.3201
-9.42895
22.9574
-10.7816
-12.1758
-5.12761
5.24394
-0.116326
-1.84037
-0.487802
0.262286
-1.93632
-1.81141
1.87617
0.229802
5.47374
3.66233
-2.41423
2.48175
2.77889
2.70524
-0.191127
2.52788
-2.5227
19.0282
-11.5203
-7.50788
13.8542
-13.7662
-2.56464
-19.246
16.6814
2.69192
3.04115
-2.97825
-3.97296
-1.40843
-3.93988
2.98442
2.22162
3.13682
2.11793
3.37029
-8.16733
1.58341
6.58391
-6.04939
-3.51148
-13.3515
-6.32225
19.6738
16.6262
7.87262
-16.7431
0.304968
5.3171
-5.35431
-1.5644
-11.7871
8.42451
-9.9889
-15.2547
-6.44158
21.6963
-9.58133
-1.08278
9.36644
2.38028
-10.8763
-7.09125
10.7419
1.42067
-12.0639
23.9715
-11.9076
-18.4422
8.51623
13.3205
16.2331
-17.8628
9.31825
8.54458
-4.54235
7.45107
1.38784
7.3184
-19.828
13.7794
11.2441
8.31498
-11.574
2.00299
-17.825
25.1279
-22.2041
-2.9238
12.8386
12.2893
13.6016
13.3509
-7.87242
21.474
-3.55243
-18.6516
21.3774
-13.0625
15.7019
-28.7643
-29.0528
10.4011
-18.0294
22.0614
-4.03205
-5.17825
-10.1544
23.2076
-2.04688
-21.1608
10.1572
-13.9679
-11.8323
25.8002
-20.5533
18.5333
-6.32748
-12.2058
-12.6581
-9.38366
12.4767
2.85041
-25.7426
31.1286
-7.19436
7.9176
1.35995
7.93434
10.6413
-15.9148
5.27345
9.912
-16.2395
6.83275
-22.7476
-12.0965
24.0342
-11.9376
-17.4378
-15.7022
-1.73554
4.81187
26.3167
-16.2169
11.9984
4.21857
8.465
1.89179
-8.56298
-1.2247
0.973075
16.0992
-17.0722
10.3913
10.5128
11.7246
4.37458
10.7679
7.11326
-10.7462
-0.970598
-14.7877
5.72524
-6.61296
-14.5637
20.2889
-16.2662
1.70252
-10.3023
-13.9961
24.2984
-16.4537
11.4278
12.5437
18.4607
-19.6154
5.61926
-9.74948
-9.86589
10.647
-17.2599
7.49051
12.7984
15.6018
2.49289
12.7135
11.3207
-19.312
1.10143
18.7768
-16.3326
3.88574
10.3573
-15.8841
0.181848
-10.4286
2.62577
-15.407
-14.8024
16.4243
-20.9932
-12.34
13.4298
2.72941
-13.7569
-0.468882
-5.01975
-3.07079
-5.25334
-3.30885
-5.61455
-11.1813
-1.95225
-9.22902
5.85376
-6.75954
-4.68128
7.08609
1.50174
-5.00618
4.89745
-5.65872
5.45709
-0.210446
13.0187
15.6555
7.4728
-8.4763
15.9491
-15.5384
23.4996
-29.6526
14.1142
15.91
-23.0754
-13.7426
2.73728
2.16648
2.65084
13.588
-14.5497
0.961682
-13.4105
17.7453
-4.33479
-19.7927
6.38213
-6.20469
5.204
0.524977
5.18504
1.42248
6.857
-8.27948
-4.28832
-4.34045
-9.15046
-13.8549
23.0054
4.76328
-13.114
8.35072
-12.0923
16.8556
0.0972469
-13.2113
17.0201
-10.1631
17.5451
-11.9951
5.55002
12.7943
22.3617
-9.5674
16.2356
-6.69466
7.04826
-16.6157
-6.80666
-11.2955
18.187
-13.0029
14.7054
-1.11477
15.8202
-13.7938
3.0122
-2.06923
8.44355
8.65824
16.8102
-12.4356
11.9813
-18.6759
-4.63439
-16.183
-3.38461
1.04459
-13.8892
12.8446
12.1603
-11.1157
-3.27611
9.0896
-5.81349
5.75132
-2.87705
-2.87427
-1.86925
-3.11092
1.89218
0.635705
6.38703
0.497018
-3.37407
-2.02568
-1.92115
10.4162
8.61194
-3.87997
3.76364
3.61768
-0.576532
0.966973
2.16985
4.63982
-3.67285
0.688457
3.95137
-2.28979
3.84871
1.46839
-3.86995
-0.0699397
-3.41575
11.8403
3.16816
-5.38978
1.71693
2.35938
-13.8797
19.7301
-11.426
-8.30402
22.0894
3.0298
-14.4558
16.2162
-13.5243
8.06598
-14.3882
-6.38986
-19.9142
-12.8672
-10.7294
19.0801
-12.276
20.1486
3.82545
-20.4536
24.279
-12.7654
6.32385
-9.48809
10.9565
-4.09015
-5.39794
11.2998
10.3964
-11.0635
-0.723631
0.23634
8.46779
-8.23145
-1.52111
-7.57051
-16.4079
17.8286
-8.25678
17.575
7.69232
-7.63299
25.208
6.56602
-14.199
-11.8762
-12.959
-5.65442
10.5787
-1.82614
-7.26561
-14.0319
7.3117
0.00669683
-19.0091
22.0441
-3.03507
-12.0526
-1.72685
14.5654
-18.118
1.87848
-11.2852
10.7589
12.1468
12.1535
-20.9019
-0.258891
-12.6394
3.21884
-15.8583
15.5081
-6.8554
17.2565
-16.1204
11.4391
-14.6186
14.3327
-1.52556
14.6917
-9.41824
6.10995
-15.4936
-12.6432
14.5384
-8.41993
15.8984
-10.1859
26.0843
-17.3803
14.5547
11.5296
-2.76884
-8.32084
-14.1019
11.3331
0.452833
8.38718
17.8344
-10.7211
16.8638
8.91916
-18.6686
-8.34076
-25.8604
7.19177
-13.3167
-7.35531
14.5471
11.1054
12.9972
4.68118
-11.7725
17.7456
-19.4811
-5.80796
-8.99447
14.7138
-3.38079
10.2085
-19.2029
-5.19854
13.1448
-0.199387
-12.9454
3.06716
-15.4072
5.12847
-20.5357
15.8647
-16.3336
1.79614
-8.00082
-3.21004
-3.32132
-2.20107
-3.45765
-7.6646
5.46353
-1.28246
3.61498
-12.6197
12.4203
-5.12562
10.5891
-4.11422
-1.13912
4.28706
1.17003
11.7592
3.04707
-16.7897
-9.32204
14.7127
-5.39067
1.09418
-10.8421
3.87061
8.06242
14.027
-24.7438
1.66845
-15.1212
-4.12451
6.29099
4.96509
17.1254
2.57575
6.63691
-0.345916
9.21265
2.30492
2.22823
-11.272
12.2337
1.57259
15.6868
-1.88597
7.436
3.29906
3.31626
2.03806
5.73209
2.92615
8.7443
0.464818
-3.87563
2.08411
-4.00526
-1.28996
-4.04715
-0.338625
3.7537
-4.09232
10.5819
-1.96991
5.19119
-1.92604
-4.98818
6.91422
-9.43391
-5.56472
-1.61335
-5.66373
7.38067
6.17652
-5.76732
-3.6666
2.4207
-15.2879
11.9675
-12.6912
-2.29472
21.9843
-9.507
1.27555
-3.18315
-6.29495
-7.70338
7.77332
24.1904
1.01767
12.2828
18.8463
11.755
1.03392
12.0582
-16.0903
-10.6893
-16.3492
-0.841058
13.7244
5.6635
20.6532
17.1931
13.8123
-5.39063
-24.8718
20.7678
-8.53416
16.433
-3.48763
-17.048
14.5568
8.9428
-17.2862
0.952567
-16.0955
-24.6296
-0.350774
12.7711
-11.4084
10.2693
7.19849
2.03053
-2.45847
-0.86285
2.57721
-0.348981
8.86367
-0.179983
-8.27795
8.45794
-3.57372
2.28375
-0.464413
4.22806
6.44981
4.47989
-3.79806
-7.89038
-8.86836
-5.01131
-17.1724
2.50138
-8.6779
5.74372
-3.45997
2.86945
4.99797
10.1892
-1.60767
-9.50806
7.42116
-4.55171
5.63745
)
;

boundaryField
{
    wall-4
    {
        type            calculated;
        value           uniform 0;
    }
    velocity-inlet-5
    {
        type            calculated;
        value           uniform -11.2529;
    }
    velocity-inlet-6
    {
        type            calculated;
        value           uniform -1.87548;
    }
    pressure-outlet-7
    {
        type            calculated;
        value           nonuniform List<scalar> 8(4.31195 4.89868 11.0107 11.9195 17.4883 15.2725 17.1699 15.4532);
    }
    wall-8
    {
        type            calculated;
        value           uniform 0;
    }
    frontAndBackPlanes
    {
        type            empty;
        value           nonuniform List<scalar> 0();
    }
}


// ************************************************************************* //
