/*--------------------------------*- C++ -*----------------------------------*\
  =========                 |
  \\      /  F ield         | OpenFOAM: The Open Source CFD Toolbox
   \\    /   O peration     | Website:  https://openfoam.org
    \\  /    A nd           | Version:  9
     \\/     M anipulation  |
\*---------------------------------------------------------------------------*/
FoamFile
{
    format      ascii;
    class       surfaceScalarField;
    location    "31.1";
    object      phi;
}
// * * * * * * * * * * * * * * * * * * * * * * * * * * * * * * * * * * * * * //

dimensions      [0 3 -1 0 0 0 0];

internalField   nonuniform List<scalar> 
1300
(
11.2529
1.87548
-4.16636
11.2529
-5.00979
1.87548
-4.24277
4.24277
-1.1875
1.1875
5.7123
5.54056
-2.37725
2.37725
-2.81867
2.81867
-2.86016
2.86016
-1.06194
1.06194
-1.02826
1.02826
0.693118
-0.693118
-3.42015
3.42015
-1.4562
1.4562
-2.90914
2.90914
6.1281
-6.1281
-3.24623
3.24623
-0.743766
0.743766
-4.26321
15.5161
6.98965
6.98965
-2.37111
2.37111
-1.25395
1.25395
1.41034
-1.41034
9.05073
-9.05073
-4.88437
-5.88393
1.91903
-14.0662
-3.09076
-3.09076
-2.7054
2.7054
-0.829928
1.04555
3.47681
-3.47681
-0.757146
0.757146
-4.32819
0.0854142
-4.32819
4.0273
0.215478
4.0273
-1.32878
0.14128
-1.32878
4.67817
-4.67817
1.07574
0.11176
1.07574
3.9281
-3.9281
-5.71006
11.4224
5.5428
-5.32064
20.8367
-5.93222
11.4728
-3.89965
3.89965
-2.2944
-0.0828556
-2.2944
2.37881
-0.00155737
2.37881
-4.00275
4.00275
-2.60892
-0.209747
-2.60892
2.91871
-0.100041
2.91871
3.66642
-3.66642
-2.91622
0.0560592
-2.91622
2.70845
0.151704
2.70845
0.771042
1.10443
-2.64652
3.69207
-1.10443
0.0424987
1.02614
0.0357986
1.02614
-1.01453
-0.0137252
-1.01453
1.04984
-0.0215793
1.04984
0.730134
-0.0370163
0.730134
-0.754862
0.0617446
-0.754862
-8.60743
-8.97385
-3.54399
0.123847
-3.54399
-1.47422
0.0180203
-1.47422
1.49235
-0.0361559
1.49235
-2.52543
2.52543
-3.25104
0.341901
-3.25104
4.80635
1.32175
4.80635
5.04612
6.20674
16.299
-16.299
10.1709
-2.96654
-0.279686
-2.96654
-3.41169
-5.63904
3.41169
-0.165463
-0.805507
0.0617407
-0.805507
5.62659
1.36306
5.62659
2.58623
0.122226
-2.58623
0.215123
4.62615
-4.62615
1.42328
0.947823
1.42328
-1.19154
1.19154
1.12336
-0.0735237
-1.12336
-0.130582
1.38601
0.0243318
1.38601
-1.40975
-0.000595769
-1.40975
7.31037
-13.1943
-7.76804
3.23046
0.189681
-3.23046
0.139709
3.56356
-0.0867503
3.56356
-3.30969
3.30969
-3.61099
0.134179
-3.61099
-0.682223
-0.0749228
-0.682223
0.842032
-0.0848859
0.842032
-4.57607
0.247884
-4.57607
-3.69104
0.439995
3.69104
0.336261
1.25014
-1.25014
-1.43659
0.107806
-1.43659
-4.65914
0.083068
4.65914
0.0190336
-4.77214
0.0939689
-4.77214
-3.71253
0.101533
3.71253
0.215576
4.58935
1.03724
-4.58935
0.661247
-5.36948
11.5762
-5.88338
11.4262
-3.51581
-0.383833
-3.51581
4.09067
-0.191026
4.09067
2.57057
0.338567
-2.57057
0.276177
2.505
-0.126191
2.505
-3.94546
-0.0572892
-3.94546
3.80564
0.197115
3.80564
2.5445
-0.0395021
-2.5445
-0.0644209
2.89341
0.0253034
2.89341
3.6724
-0.00598084
3.6724
-3.53944
-0.126984
-3.53944
3.17896
-3.17896
3.08059
0.0983705
-3.08059
0.164369
-5.07402
5.07343
-0.00799946
-5.06602
1.01814
1.01814
0.76895
-0.0388162
0.76895
-0.861792
0.106929
-0.861792
8.34391
-16.112
8.77951
-17.3869
7.53402
-21.6002
8.11608
-17.0899
3.82824
-3.82824
3.76209
0.0661514
-3.76209
0.218094
-1.45605
-0.0181641
-1.45605
-2.28833
-0.237095
-2.28833
2.85746
-0.332034
2.85746
-3.74209
3.74209
-4.12478
0.382686
4.12478
0.68157
2.9546
-0.0611886
-2.9546
-0.0119486
0.924057
0.151686
-0.924057
0.118551
4.86348
-0.237327
4.86348
-4.0852
-0.540947
-4.0852
-1.47494
0.0188924
1.47494
-0.0516607
-1.25895
0.0674031
-1.25895
-5.0745
0.00847756
-5.0387
-1.40127
-1.40127
1.30414
4.9962
-3.58567
0.0462342
3.58567
-0.0221054
3.52705
0.215042
-3.52705
0.21736
-3.26327
0.0843114
3.26327
0.0464179
-0.659745
-0.0224787
-0.659745
-1.03476
1.03476
-0.917645
-0.117114
0.917645
-0.0756133
1.40559
-0.155457
1.40559
1.47054
0.0218111
-1.47054
0.033951
-5.01126
0.239118
-5.01126
4.10127
-0.0106009
4.10127
-3.94907
-0.136136
3.94907
-0.276664
-0.00372289
5.07715
-1.01441
-0.000120149
1.01441
-5.10148
5.10136
-0.665135
0.00539053
0.665135
0.103815
1.02967
0.161873
-1.02967
0.16788
3.84915
-0.043513
-3.84915
0.0209107
-2.00738
-0.280948
-2.00738
-3.18484
-0.330971
3.18484
-0.327382
-5.11518
-0.0779364
5.19312
-5.13676
1.33688
0.0491256
-1.33688
5.15049
-1.14365
-0.106483
1.14365
-0.108893
1.60387
-0.198274
1.60387
5.12083
-0.25735
-5.12083
0.109566
-4.11901
0.173546
4.11901
-0.0177342
-1.77515
-0.232232
1.77515
-0.171285
-13.1281
14.4911
7.70865
-6.27955
-6.91475
-11.9186
4.4471
7.12912
14.618
-11.8162
-9.78399
-11.6765
2.86006
-2.69218
-3.7273
3.69028
23.5916
-23.4976
-18.3992
19.0808
20.777
-20.5615
5.70885
5.71351
15.8503
-15.9332
-20.8994
20.5156
15.3866
-15.5964
22.0528
-22.11
-25.8167
25.7732
-16.0928
16.1489
-20.2944
20.1674
-21.0577
20.781
-8.35174
-9.0352
16.5178
-16.3939
19.9981
-20.2777
-19.3831
19.725
10.0475
4.44359
11.0848
-6.24673
11.9556
-5.22605
12.9347
8.29405
-16.6458
7.81791
-14.7327
9.04462
10.9534
-8.87915
-3.03944
-17.9699
17.8832
-17.257
17.3034
24.1237
-24.0383
-6.17283
11.8863
-5.25335
12.3825
-11.409
-6.99019
10.0872
4.53073
8.99265
7.52513
-9.18233
-2.49415
-24.7987
24.5414
-25.6599
25.1189
0.100179
2.42593
-2.52611
1.35412
-0.862692
3.28862
1.99737
2.1043
2.45271
-2.29084
0.239463
-2.76558
-2.89616
-5.34045
5.44825
5.15712
-5.04536
16.5466
7.045
16.5656
-16.7495
-6.74811
-16.5104
11.3637
7.71706
11.7464
12.0617
8.71534
12.1632
10.359
-10.3317
-0.0273075
-11.4777
21.8367
1.55464
-18.4678
-13.9371
8.84603
7.0043
8.84448
-9.8914
-6.04179
-9.61522
-11.015
-9.8844
-11.346
12.3192
8.19633
12.1282
-15.3167
15.2989
9.27353
6.11309
9.17349
-8.96262
-6.63374
-9.02704
27.4829
-6.67825
-20.8047
-13.1823
-12.6344
12.9851
9.06761
14.3403
11.4328
14.3612
8.91513
18.5678
-17.9827
5.34833
-9.94704
-6.1458
-9.78267
9.25805
6.89085
9.40976
-11.7668
-8.52762
-11.7206
-11.987
-9.07076
11.9929
8.17449
-12.5344
-13.1255
12.6705
8.11051
7.84179
-17.6258
9.24814
-18.2833
-10.9655
-5.42839
-10.7475
10.7854
6.68361
-17.469
-5.86042
23.6325
-12.6791
20.5931
-10.8988
-9.37897
-10.9107
-14.8037
-4.57935
-14.3637
-7.98958
7.70863
-8.82148
8.48944
26.877
-16.2223
-10.6547
-12.3784
-8.18309
11.7171
-0.632343
-12.8358
12.8085
-0.880182
12.0545
16.4981
15.8658
-10.8802
-6.37674
-10.6629
10.2702
7.03322
10.3545
16.1053
8.0184
16.3208
-16.8175
-7.22074
-16.5696
4.84106
-4.91598
5.71362
-5.69473
15.5794
9.5395
-15.3421
-9.45663
22.9305
-10.775
-12.1555
-5.11965
5.21413
-0.0944772
-1.83103
-0.476903
0.266863
-1.93096
-1.79634
1.86921
0.235081
5.44921
3.65287
-2.41437
2.48177
2.77875
2.70523
-0.190933
2.49876
-2.49337
18.902
-11.4322
-7.46985
13.9701
-13.8871
-2.5995
-19.3272
16.7277
2.67854
3.00334
-2.9416
-3.94842
-1.39203
-3.91446
2.95197
2.20515
3.10366
2.10716
3.34109
-8.10339
1.56299
6.5404
-5.99623
-3.48237
-13.3463
-6.2664
19.6126
16.6788
7.86258
-16.7884
0.27799
5.29305
-5.32921
-1.59828
-11.748
8.34805
-9.94632
-15.2171
-6.4609
21.678
-9.58078
-1.08208
9.36573
2.38065
-10.8773
-7.09265
10.7431
1.42012
-12.0645
23.9707
-11.9062
-18.4413
8.51577
13.3209
16.2328
-17.8628
9.31888
8.54388
-4.54188
7.42996
1.41452
7.30377
-19.929
13.8872
11.3237
8.40125
-11.6623
2.04708
-17.8819
25.1714
-22.2876
-2.88382
12.8219
12.3495
13.5492
13.3278
-7.78527
21.3344
-3.61823
-18.6694
21.5001
-13.0989
15.7827
-28.8815
-29.1105
10.4411
-17.9557
22.0747
-4.11901
-5.20563
-10.111
23.1613
-2.00657
-21.1548
10.1216
-13.9269
-11.8542
25.7811
-20.6052
18.4879
-6.26746
-12.2205
-12.6658
-9.44423
12.4923
2.80665
-25.8742
31.2225
-7.3064
7.80453
1.36896
7.82983
10.6086
-15.9761
5.36752
9.99659
-16.264
6.76227
-22.7383
-12.1596
24.1945
-12.035
-17.5879
-15.7971
-1.79085
4.87527
26.3472
-16.3081
12.1171
4.19096
8.46174
1.89274
-8.56011
-1.22257
0.968058
16.0865
-17.0545
10.3778
10.5
11.7044
4.38204
10.7702
7.11295
-10.7481
-0.972414
-14.7928
5.72201
-6.61828
-14.5742
20.2962
-16.2679
1.69369
-10.3032
-13.9906
24.2938
-16.449
11.4255
12.5453
18.4587
-19.615
5.62438
-9.74633
-9.86864
10.6435
-17.2618
7.49832
12.7979
15.6088
2.48335
12.7478
11.4467
-19.4314
1.14811
18.9718
-16.4777
3.88903
10.4722
-16.0062
0.209082
-10.5384
2.66416
-15.3432
-14.8048
16.5297
-21.109
-12.3519
13.5673
2.75343
-13.9036
-0.460122
-4.95426
-3.03532
-5.18649
-3.27683
-5.54464
-11.0621
-1.9269
-9.1352
5.78174
-6.68698
-4.65899
7.01436
1.47508
-4.9355
4.82902
-5.58028
5.38201
-0.210165
13.0186
15.6556
7.4725
-8.47674
15.9492
-15.6082
23.6266
-29.725
14.1168
15.9489
-23.1696
-13.7761
2.70114
2.13992
2.61625
13.4477
-14.4144
0.966694
-13.279
17.5983
-4.31938
-19.5806
6.30164
-6.13287
5.18669
0.526929
5.16853
1.41639
6.84598
-8.26236
-4.27834
-4.33
-9.16324
-13.8594
23.0226
4.73544
-13.1051
8.36966
-12.0625
16.7979
0.0785355
-13.1836
16.9847
-10.1388
17.5117
-11.984
5.5277
12.7918
22.3469
-9.55509
16.2481
-6.70864
7.06788
-16.623
-6.79151
-11.2883
18.1792
-13.0055
14.6992
-1.12464
15.8239
-13.7773
3.00222
-2.07284
8.4272
8.64232
16.8088
-12.4267
11.9697
-18.6783
-4.65327
-16.195
-3.39713
1.01879
-13.8257
12.8069
12.044
-11.0252
-3.24223
8.98427
-5.74204
5.68194
-2.84833
-2.83361
-1.84643
-3.06956
1.86891
0.629851
6.31179
0.489184
-3.33751
-2.00418
-1.90037
10.3745
8.52757
-3.83187
3.73739
3.565
-0.561659
0.958732
2.14493
4.5872
-3.62847
0.678125
3.90907
-2.26348
3.82773
1.46532
-3.84955
-0.0649183
-3.40814
11.7562
3.13226
-5.33741
1.70895
2.38208
-13.8142
19.7415
-11.4155
-8.32599
22.1235
3.06345
-14.4789
16.2638
-13.5852
8.10342
-14.3698
-6.3755
-19.9607
-12.9157
-10.7095
19.0792
-12.3131
20.1757
3.86211
-20.4537
24.3158
-12.7398
6.27894
-9.44314
10.9085
-4.0581
-5.38504
11.2657
10.4123
-11.0535
-0.694434
0.212112
8.41931
-8.2072
-1.52701
-7.52325
-16.4089
17.829
-8.25569
17.5746
7.69356
-7.63403
25.2086
6.56495
-14.199
-11.8763
-12.9584
-5.6551
10.5777
-1.79531
-7.23173
-14.0158
7.27123
0.0325333
-19.0776
22.0705
-2.99295
-12.0733
-1.81391
14.6358
-18.0995
1.83542
-11.3372
10.7333
12.1478
12.1804
-20.8433
-0.311477
-12.647
3.17646
-15.8234
15.526
-6.80301
17.2441
-16.0065
11.3475
-14.5314
14.3603
-1.46311
14.7497
-9.38215
6.05499
-15.4992
-12.6926
14.4714
-8.35828
15.8403
-10.1164
25.9567
-17.4228
14.4041
11.5527
-2.71234
-8.19837
-13.9743
11.262
0.42972
8.25956
17.8373
-10.7244
16.8649
8.92447
-18.6708
-8.33729
-25.8596
7.18882
-13.3144
-7.35658
14.5454
11.1021
12.9949
4.67675
-11.7723
17.7866
-19.5775
-5.75167
-9.05315
14.5777
-3.31572
10.1445
-19.1976
-5.19874
13.1093
-0.192276
-12.917
3.113
-15.4649
5.13051
-20.5954
15.9785
-16.4386
1.76947
-7.90234
-3.16603
-3.27492
-2.17184
-3.40844
-7.56676
5.39492
-1.26512
3.5639
-12.5211
12.3289
-5.07719
10.4721
-4.05775
-1.12874
4.22904
1.15297
11.6251
3.02526
-16.8014
-9.25472
14.6242
-5.36951
1.11973
-10.8004
3.82382
8.09956
14.024
-24.8273
1.65769
-15.1437
-4.06973
6.20965
4.91454
16.9585
2.54409
6.55208
-0.342429
9.09616
2.27383
2.19821
-11.2174
12.1841
1.58951
15.7063
-1.88295
7.41066
3.28557
3.30359
2.02561
5.72249
2.91983
8.72471
0.462347
-3.86766
2.06784
-3.96821
-1.26967
-4.00702
-0.316743
3.72518
-4.04193
10.4961
-1.96851
5.12657
-1.88171
-4.9334
6.81511
-9.35156
-5.49506
-1.58598
-5.60629
7.31524
6.1499
-5.72925
-3.6223
2.39095
-15.3067
11.9789
-12.6733
-2.26099
22.0548
-9.46146
1.25426
-3.18252
-6.26899
-7.66102
7.72594
24.1899
1.01868
12.2837
18.8477
11.755
1.03067
11.9868
-16.1058
-10.7515
-16.4173
-0.891307
13.7445
5.61421
20.733
17.1669
13.8511
-5.34649
-24.924
20.719
-8.53494
16.3996
-3.48263
-17.1127
14.6485
8.97817
-17.4019
0.963247
-16.1495
-24.6844
-0.344249
12.6731
-11.2808
10.1521
7.11677
2.01843
-2.42557
-0.849354
2.54269
-0.344473
8.75169
-0.188793
-8.19493
8.38373
-3.53639
2.26672
-0.429296
4.16668
6.38581
4.4173
-3.77763
-7.81956
-8.81657
-4.99768
-17.1426
2.47009
-8.61999
5.68097
-3.41425
2.84737
4.96947
10.096
-1.60165
-9.42354
7.34369
-4.49633
5.59972
)
;

boundaryField
{
    wall-4
    {
        type            calculated;
        value           uniform 0;
    }
    velocity-inlet-5
    {
        type            calculated;
        value           uniform -11.2529;
    }
    velocity-inlet-6
    {
        type            calculated;
        value           uniform -1.87548;
    }
    pressure-outlet-7
    {
        type            calculated;
        value           nonuniform List<scalar> 8(4.16636 5.00979 10.7683 12.1471 17.5813 15.0784 17.1234 15.6501);
    }
    wall-8
    {
        type            calculated;
        value           uniform 0;
    }
    frontAndBackPlanes
    {
        type            empty;
        value           nonuniform List<scalar> 0();
    }
}


// ************************************************************************* //
