/*--------------------------------*- C++ -*----------------------------------*\
  =========                 |
  \\      /  F ield         | OpenFOAM: The Open Source CFD Toolbox
   \\    /   O peration     | Website:  https://openfoam.org
    \\  /    A nd           | Version:  9
     \\/     M anipulation  |
\*---------------------------------------------------------------------------*/
FoamFile
{
    format      ascii;
    class       surfaceScalarField;
    location    "8.85";
    object      phi;
}
// * * * * * * * * * * * * * * * * * * * * * * * * * * * * * * * * * * * * * //

dimensions      [0 3 -1 0 0 0 0];

internalField   nonuniform List<scalar> 
4432
(
1.03466e-07
-1.03466e-07
2.20456e-07
-1.1699e-07
3.41795e-07
-1.21339e-07
4.63871e-07
-1.22075e-07
5.84278e-07
-1.20406e-07
7.01274e-07
-1.16994e-07
8.12385e-07
-1.11109e-07
9.14109e-07
-1.01721e-07
1.00291e-06
-8.87929e-08
1.07693e-06
-7.40176e-08
1.13899e-06
-6.2055e-08
1.19816e-06
-5.91754e-08
1.26725e-06
-6.90842e-08
1.35266e-06
-8.54042e-08
1.43805e-06
-8.53892e-08
1.46216e-06
-2.41157e-08
1.3259e-06
1.36266e-07
1.01986e-06
3.06038e-07
4.68275e-07
5.51581e-07
-1.95503e-07
6.63774e-07
-5.23164e-07
3.27655e-07
-4.7308e-07
-5.00925e-08
-4.73088e-07
1.08125e-07
-2.1159e-07
2.26784e-07
-2.35648e-07
3.50094e-07
-2.44648e-07
4.73545e-07
-2.45522e-07
5.94073e-07
-2.40932e-07
7.09392e-07
-2.32307e-07
8.16717e-07
-2.18429e-07
9.12548e-07
-1.97547e-07
9.93866e-07
-1.70105e-07
1.05946e-06
-1.39605e-07
1.11116e-06
-1.13752e-07
1.15464e-06
-1.02654e-07
1.19723e-06
-1.11672e-07
1.24114e-06
-1.29309e-07
1.2737e-06
-1.17947e-07
1.25412e-06
-4.54554e-09
1.12171e-06
2.68678e-07
8.53833e-07
5.73911e-07
4.92734e-07
9.12673e-07
9.87705e-08
1.05773e-06
-1.95182e-07
6.21595e-07
-3.30064e-07
8.4775e-08
-8.03156e-07
1.14033e-07
-3.25622e-07
2.34598e-07
-3.56214e-07
3.57894e-07
-3.67943e-07
4.80887e-07
-3.68513e-07
6.003e-07
-3.60345e-07
7.13555e-07
-3.45561e-07
8.17571e-07
-3.22444e-07
9.08684e-07
-2.88658e-07
9.84034e-07
-2.45453e-07
1.04225e-06
-1.97815e-07
1.0842e-06
-1.55704e-07
1.11346e-06
-1.31909e-07
1.13478e-06
-1.32993e-07
1.14982e-06
-1.44349e-07
1.15047e-06
-1.18591e-07
1.10919e-06
3.67294e-08
9.74749e-07
4.0312e-07
7.4015e-07
8.0851e-07
4.97593e-07
1.15523e-06
2.63712e-07
1.2916e-06
6.31852e-09
8.78981e-07
-1.86815e-07
2.77901e-07
-9.89972e-07
1.18585e-07
-4.44207e-07
2.42045e-07
-4.79675e-07
3.66278e-07
-4.92177e-07
4.89321e-07
-4.91556e-07
6.08144e-07
-4.79169e-07
7.20045e-07
-4.57464e-07
8.21638e-07
-4.24038e-07
9.09013e-07
-3.76034e-07
9.79241e-07
-3.15683e-07
1.03065e-06
-2.49226e-07
1.06317e-06
-1.88226e-07
1.07884e-06
-1.47574e-07
1.08109e-06
-1.35247e-07
1.07225e-06
-1.35506e-07
1.05053e-06
-9.68721e-08
1.00041e-06
8.68499e-08
8.75692e-07
5.27845e-07
6.76931e-07
1.00727e-06
4.97812e-07
1.33435e-06
3.58573e-07
1.43084e-06
1.47995e-07
1.08956e-06
-6.16815e-08
4.87577e-07
-1.05165e-06
1.22126e-07
-5.66334e-07
2.48992e-07
-6.06542e-07
3.7514e-07
-6.18328e-07
4.99009e-07
-6.15427e-07
6.17839e-07
-5.98003e-07
7.28964e-07
-5.68593e-07
8.28736e-07
-5.23815e-07
9.12932e-07
-4.60235e-07
9.78521e-07
-3.81275e-07
1.0235e-06
-2.94202e-07
1.0469e-06
-2.11628e-07
1.04952e-06
-1.502e-07
1.034e-06
-1.19724e-07
1.00345e-06
-1.04954e-07
9.61932e-07
-5.53524e-08
9.09295e-07
1.39491e-07
8.0315e-07
6.33995e-07
6.38441e-07
1.17199e-06
4.98828e-07
1.47396e-06
4.07364e-07
1.52231e-06
2.35029e-07
1.2619e-06
4.90883e-08
6.73522e-07
-1.00256e-06
1.25496e-07
-6.91832e-07
2.56122e-07
-7.3717e-07
3.8481e-07
-7.47019e-07
5.10032e-07
-7.40652e-07
6.2921e-07
-7.17185e-07
7.39812e-07
-6.792e-07
8.37986e-07
-6.21995e-07
9.19208e-07
-5.41462e-07
9.80427e-07
-4.42499e-07
1.01936e-06
-3.33144e-07
1.03425e-06
-2.26513e-07
1.02478e-06
-1.40729e-07
9.92817e-07
-8.77645e-08
9.41654e-07
-5.37895e-08
8.78913e-07
7.39264e-09
8.20688e-07
1.9772e-07
7.45554e-07
7.09135e-07
6.10203e-07
1.30734e-06
5.01273e-07
1.5829e-06
4.28789e-07
1.5948e-06
2.87789e-07
1.4029e-06
1.66472e-07
7.94849e-07
-8.36076e-07
1.2938e-07
-8.21214e-07
2.6428e-07
-8.72071e-07
3.95619e-07
-8.78362e-07
5.22317e-07
-8.67352e-07
6.4176e-07
-8.36632e-07
7.51591e-07
-7.89035e-07
8.47874e-07
-7.18283e-07
9.25921e-07
-6.19514e-07
9.82838e-07
-4.99421e-07
1.01622e-06
-3.66528e-07
1.02358e-06
-2.33875e-07
1.00361e-06
-1.20757e-07
9.57183e-07
-4.13415e-08
8.86866e-07
1.65297e-08
8.01108e-07
9.3153e-08
7.24988e-07
2.73845e-07
6.76242e-07
7.57885e-07
5.99829e-07
1.38376e-06
5.04491e-07
1.67824e-06
4.27567e-07
1.67173e-06
3.36545e-07
1.49393e-06
3.06115e-07
8.2529e-07
-5.29953e-07
1.34406e-07
-9.55622e-07
2.73633e-07
-1.0113e-06
4.0752e-07
-1.01225e-06
5.35458e-07
-9.95292e-07
6.54576e-07
-9.5575e-07
7.62763e-07
-8.97222e-07
8.56242e-07
-8.11762e-07
9.30432e-07
-6.93703e-07
9.82902e-07
-5.5189e-07
1.0113e-06
-3.94929e-07
1.01255e-06
-2.35117e-07
9.84509e-07
-9.27144e-08
9.26746e-07
1.64243e-08
8.40682e-07
1.02595e-07
7.33837e-07
2e-07
6.27325e-07
3.80359e-07
5.81043e-07
8.04167e-07
5.80683e-07
1.38412e-06
5.10713e-07
1.74821e-06
4.22655e-07
1.75979e-06
4.14388e-07
1.50221e-06
4.03383e-07
8.36301e-07
-1.26572e-07
-1.27891e-06
1.27891e-06
-1.22945e-06
-4.94663e-08
-7.4152e-07
-4.87941e-07
-3.82414e-07
-3.59109e-07
-1.3886e-07
-2.43561e-07
4.09705e-08
-1.79836e-07
1.29228e-07
-8.82613e-08
2.11614e-07
-8.23855e-08
2.62141e-07
-5.05262e-08
2.58115e-07
4.02594e-09
4.42199e-08
2.13896e-07
-6.23272e-07
6.67493e-07
-1.27661e-06
6.53335e-07
-1.31802e-06
4.14195e-08
-1.18433e-06
-1.33686e-07
-1.0174e-06
-1.6693e-07
-8.95827e-07
-1.21571e-07
-5.25583e-07
-3.70241e-07
-5.2558e-07
-1.03574e-06
2.31464e-06
-8.79293e-07
-2.05915e-07
-6.27367e-07
-7.39883e-07
-4.46857e-07
-5.39627e-07
-3.3764e-07
-3.52786e-07
-2.73975e-07
-2.43502e-07
-2.0404e-07
-1.58199e-07
-1.53264e-07
-1.33161e-07
-1.82329e-07
-2.14585e-08
-2.9321e-07
1.14909e-07
-4.14922e-07
3.35611e-07
-6.58615e-07
9.11189e-07
-9.05827e-07
9.00551e-07
-1.00009e-06
1.35691e-07
-9.86354e-07
-1.47421e-07
-9.60218e-07
-1.93062e-07
-9.95983e-07
-8.58009e-08
-7.90415e-07
-5.75806e-07
-1.31599e-06
-6.6203e-07
2.97666e-06
-5.88975e-07
-2.78968e-07
-5.26358e-07
-8.02511e-07
-4.8812e-07
-5.77868e-07
-4.69039e-07
-3.71872e-07
-4.60438e-07
-2.52103e-07
-4.30413e-07
-1.88225e-07
-4.10212e-07
-1.5336e-07
-4.6779e-07
3.61215e-08
-6.1073e-07
2.57851e-07
-7.19504e-07
4.44387e-07
-7.22654e-07
9.14342e-07
-7.26187e-07
9.04086e-07
-8.01237e-07
2.10743e-07
-8.42699e-07
-1.05957e-07
-8.83024e-07
-1.52735e-07
-9.78667e-07
9.84392e-09
-8.46e-07
-7.08472e-07
-2.16199e-06
-2.63526e-07
3.24017e-06
-3.37309e-07
-2.05178e-07
-4.5461e-07
-6.85215e-07
-5.34483e-07
-4.97994e-07
-5.87058e-07
-3.19298e-07
-6.23157e-07
-2.16002e-07
-6.27346e-07
-1.84035e-07
-6.26727e-07
-1.53976e-07
-6.88997e-07
9.8394e-08
-8.16744e-07
3.856e-07
-8.985e-07
5.26144e-07
-8.03376e-07
8.1922e-07
-6.84202e-07
7.84912e-07
-7.00646e-07
2.27187e-07
-7.30103e-07
-7.65e-08
-7.70245e-07
-1.12594e-07
-8.57028e-07
9.6627e-08
-6.93163e-07
-8.72338e-07
-2.85516e-06
9.42523e-08
3.14591e-06
-1.58455e-07
4.75396e-08
-4.28251e-07
-4.15418e-07
-5.98766e-07
-3.27473e-07
-7.076e-07
-2.10464e-07
-7.81358e-07
-1.4224e-07
-8.13824e-07
-1.51565e-07
-8.24523e-07
-1.43273e-07
-8.75058e-07
1.48932e-07
-9.72476e-07
4.8302e-07
-1.00351e-06
5.57181e-07
-8.75466e-07
6.91172e-07
-7.14453e-07
6.23899e-07
-6.83377e-07
1.96109e-07
-6.42688e-07
-1.17192e-07
-6.11929e-07
-1.43355e-07
-6.43714e-07
1.2841e-07
-4.74501e-07
-1.04155e-06
-3.32966e-06
3.10479e-07
2.83544e-06
-1.00215e-07
4.58245e-07
-4.6036e-07
-5.5267e-08
-6.86827e-07
-1.00999e-07
-8.34612e-07
-6.26757e-08
-9.38934e-07
-3.79141e-08
-9.95885e-07
-9.46107e-08
-1.01013e-06
-1.29026e-07
-1.03836e-06
1.77166e-07
-1.0988e-06
5.43463e-07
-1.08053e-06
5.3891e-07
-9.32302e-07
5.42942e-07
-7.65677e-07
4.57272e-07
-7.10348e-07
1.40778e-07
-6.02723e-07
-2.24821e-07
-4.33224e-07
-3.12858e-07
-3.51631e-07
4.68128e-08
-2.39104e-07
-1.15408e-06
-3.56877e-06
2.82327e-07
2.55311e-06
-1.77366e-07
9.17949e-07
-5.50814e-07
3.18191e-07
-7.97915e-07
1.46109e-07
-9.67394e-07
1.06806e-07
-1.09472e-06
8.94207e-08
-1.17534e-06
-1.39927e-08
-1.19235e-06
-1.12012e-07
-1.18626e-06
1.71072e-07
-1.2042e-06
5.61412e-07
-1.14158e-06
4.76285e-07
-9.78494e-07
3.79856e-07
-8.1015e-07
2.88926e-07
-7.37664e-07
6.82888e-08
-5.65601e-07
-3.96887e-07
-2.97186e-07
-5.81276e-07
-9.30894e-08
-1.57287e-07
2.98427e-08
-1.27702e-06
-3.53892e-06
-7.85425e-09
2.56097e-06
-3.58681e-07
1.26878e-06
-6.85549e-07
6.45061e-07
-9.26059e-07
3.86621e-07
-1.10198e-06
2.82724e-07
-1.24416e-06
2.31603e-07
-1.3452e-06
8.70447e-08
-1.38329e-06
-7.39252e-08
-1.32943e-06
1.17211e-07
-1.28868e-06
5.20663e-07
-1.18258e-06
3.70186e-07
-1.0095e-06
2.06777e-07
-8.38115e-07
1.17541e-07
-7.30115e-07
-3.97118e-08
-4.78138e-07
-6.48864e-07
-2.18401e-07
-8.41013e-07
1.08781e-07
-4.84468e-07
2.4566e-07
-1.4139e-06
-3.29326e-06
3.07951e-07
-1.26357e-06
6.14746e-07
-1.31809e-06
9.08331e-07
-1.30583e-06
1.18339e-06
-1.27034e-06
1.43128e-06
-1.20364e-06
1.65056e-06
-1.1165e-06
1.83508e-06
-9.96273e-07
1.97553e-06
-8.3415e-07
2.07103e-06
-6.47386e-07
2.11763e-06
-4.4153e-07
2.10627e-06
-2.23753e-07
2.02972e-06
-1.61598e-08
1.88613e-06
1.60014e-07
1.67032e-06
3.18407e-07
1.3933e-06
4.77019e-07
1.10663e-06
6.67027e-07
9.58563e-07
9.52234e-07
9.95088e-07
1.34759e-06
1.03786e-06
1.70544e-06
1.01343e-06
1.78421e-06
9.83354e-07
1.53228e-06
6.25245e-07
1.19441e-06
9.59049e-07
-4.60378e-07
3.51662e-07
-1.61523e-06
6.67624e-07
-1.63405e-06
9.6754e-07
-1.60575e-06
1.24349e-06
-1.54629e-06
1.4698e-06
-1.42996e-06
1.64472e-06
-1.29141e-06
1.7762e-06
-1.12776e-06
1.87351e-06
-9.31453e-07
1.93909e-06
-7.12969e-07
1.9718e-06
-4.7424e-07
1.96837e-06
-2.20321e-07
1.91733e-06
3.48807e-08
1.8054e-06
2.71946e-07
1.61918e-06
5.04617e-07
1.36362e-06
7.3258e-07
1.07754e-06
9.53105e-07
8.4796e-07
1.18181e-06
7.87974e-07
1.40758e-06
8.93415e-07
1.59999e-06
9.54988e-07
1.72264e-06
7.5205e-07
1.73522e-06
2.32801e-07
1.71366e-06
1.71052e-06
-5.18687e-07
4.03503e-07
-2.01874e-06
6.9352e-07
-1.92411e-06
9.38777e-07
-1.85107e-06
1.12552e-06
-1.73309e-06
1.31053e-06
-1.61503e-06
1.46399e-06
-1.44493e-06
1.57102e-06
-1.23484e-06
1.64391e-06
-1.0044e-06
1.68728e-06
-7.56383e-07
1.71437e-06
-5.01356e-07
1.73856e-06
-2.44531e-07
1.74571e-06
2.77169e-08
1.67807e-06
3.39587e-07
1.53181e-06
6.50885e-07
1.32145e-06
9.42968e-07
1.07032e-06
1.20426e-06
8.55884e-07
1.39628e-06
7.27291e-07
1.53621e-06
7.85644e-07
1.5417e-06
7.8935e-07
1.719e-06
4.85755e-07
2.0389e-06
-2.28252e-08
2.22233e-06
2.31523e-06
-6.27415e-07
1.1131e-06
-3.13184e-06
9.48186e-07
-1.75893e-06
8.44995e-07
-1.74769e-06
2.68368e-07
-1.15632e-06
4.41362e-07
-1.78788e-06
8.13666e-07
-1.81711e-06
1.19075e-06
-1.61182e-06
1.3353e-06
-1.14884e-06
1.37102e-06
-7.92025e-07
1.41119e-06
-5.41472e-07
1.47068e-06
-3.03979e-07
1.55729e-06
-5.88797e-08
1.44041e-06
4.56469e-07
1.22386e-06
8.6741e-07
1.05334e-06
1.11346e-06
1.00272e-06
1.25483e-06
1.20892e-06
1.19003e-06
1.18501e-06
1.56006e-06
6.97102e-07
2.02953e-06
5.08061e-07
1.90795e-06
3.79945e-07
2.16693e-06
1.59644e-07
2.44254e-06
2.89165e-06
-4.16975e-07
-1.86418e-06
-1.26772e-06
-2.90054e-06
-7.22735e-07
-4.33152e-06
-3.16696e-07
-5.98149e-06
4.93611e-07
-5.89884e-06
-1.87056e-06
-4.87858e-06
-2.83737e-06
-3.35254e-06
-3.13785e-06
-2.29139e-06
-2.20998e-06
-1.63554e-06
-1.44786e-06
-1.04674e-06
-1.13027e-06
-3.86025e-07
-9.64698e-07
3.97946e-07
-8.42857e-07
9.20064e-07
-6.56583e-08
1.36654e-06
4.2092e-07
1.96249e-06
5.1747e-07
2.54832e-06
6.68935e-07
2.78106e-06
9.57219e-07
2.60659e-06
1.73446e-06
1.09139e-06
3.54466e-06
-1.66261e-07
3.16556e-06
-4.96848e-07
2.49755e-06
-2.29874e-07
2.17577e-06
3.53139e-06
-8.68889e-07
-8.53285e-07
-4.14113e-07
-1.89615e-06
3.20388e-07
-2.17174e-06
-4.08059e-08
-1.23448e-06
-4.43396e-07
-1.40862e-06
-1.69625e-06
-2.44231e-06
-1.80357e-06
-3.12801e-06
-2.45208e-06
-3.14842e-06
-2.18954e-06
-2.87813e-06
-1.71815e-06
-2.67914e-06
-1.32928e-06
-2.59022e-06
-1.05365e-06
-2.45462e-06
-9.78516e-07
-1.56616e-06
-9.54182e-07
-6.47642e-07
-4.97671e-07
-7.89449e-08
-5.13042e-08
-2.46922e-07
8.36814e-07
-1.13136e-06
1.84151e-06
-1.70649e-06
2.30938e-06
-1.47241e-06
3.31032e-06
-1.92152e-06
3.61434e-06
-2.49976e-06
3.07529e-06
-2.61353e-06
2.28864e-06
3.13037e-06
-2.21364e-06
-3.87501e-07
-2.67403e-08
-9.8652e-07
9.19553e-07
-1.19529e-06
1.67979e-07
-1.19375e-06
-4.44947e-07
-1.87928e-06
-1.01075e-06
-2.40039e-06
-1.28249e-06
-3.14462e-06
-1.70788e-06
-3.60979e-06
-1.72438e-06
-3.82325e-06
-1.50468e-06
-3.94354e-06
-1.20895e-06
-4.03973e-06
-9.57412e-07
-3.96278e-06
-1.05538e-06
-3.33984e-06
-1.57702e-06
-2.64504e-06
-1.19235e-06
-2.34361e-06
-3.5261e-07
-2.27623e-06
7.69578e-07
-2.413e-06
1.9784e-06
-2.79558e-06
2.69205e-06
-2.87776e-06
3.39262e-06
-2.89375e-06
3.63053e-06
-3.01961e-06
3.20145e-06
-3.30763e-06
2.5769e-06
2.60862e-06
-2.78567e-06
-5.50308e-07
5.23576e-07
-6.31604e-07
1.00107e-06
-1.01954e-06
5.5602e-07
-1.54105e-06
7.66263e-08
-2.04214e-06
-5.09611e-07
-2.50437e-06
-8.20201e-07
-3.07512e-06
-1.13708e-06
-3.55914e-06
-1.24029e-06
-3.84467e-06
-1.2191e-06
-3.98e-06
-1.07357e-06
-3.99638e-06
-9.40978e-07
-3.94248e-06
-1.10923e-06
-4.01618e-06
-1.50327e-06
-3.98897e-06
-1.21952e-06
-3.98657e-06
-3.54968e-07
-3.85514e-06
6.38175e-07
-3.64271e-06
1.76595e-06
-3.59344e-06
2.64272e-06
-3.4355e-06
3.23459e-06
-3.22441e-06
3.4194e-06
-3.16039e-06
3.1375e-06
-3.20512e-06
2.62175e-06
2.26115e-06
-2.8576e-06
-3.44315e-07
8.68112e-07
-5.59728e-07
1.21674e-06
-9.19773e-07
9.16243e-07
-1.34202e-06
4.9902e-07
-1.85313e-06
1.61683e-09
-2.30871e-06
-3.64511e-07
-2.78716e-06
-6.58539e-07
-3.20866e-06
-8.18731e-07
-3.48424e-06
-9.43487e-07
-3.63388e-06
-9.23937e-07
-3.70043e-06
-8.74464e-07
-3.83808e-06
-9.71646e-07
-4.20344e-06
-1.138e-06
-4.51983e-06
-9.0323e-07
-4.60673e-06
-2.68208e-07
-4.51824e-06
5.49519e-07
-4.26329e-06
1.51077e-06
-3.99847e-06
2.37758e-06
-3.69401e-06
2.92973e-06
-3.40314e-06
3.12808e-06
-3.22761e-06
2.96149e-06
-3.14883e-06
2.54251e-06
2.00234e-06
-2.89052e-06
-4.10113e-07
1.27844e-06
-5.93129e-07
1.39993e-06
-8.60104e-07
1.18336e-06
-1.19844e-06
8.37487e-07
-1.61421e-06
4.17517e-07
-2.016e-06
3.74019e-08
-2.4235e-06
-2.5093e-07
-2.77965e-06
-4.625e-07
-3.05699e-06
-6.66114e-07
-3.26869e-06
-7.12237e-07
-3.46887e-06
-6.74329e-07
-3.7327e-06
-7.07893e-07
-4.11971e-06
-7.51087e-07
-4.44898e-06
-5.74066e-07
-4.57547e-06
-1.41835e-07
-4.53624e-06
5.10154e-07
-4.33825e-06
1.31263e-06
-4.02922e-06
2.06833e-06
-3.68447e-06
2.58467e-06
-3.35544e-06
2.79868e-06
-3.10408e-06
2.7097e-06
-2.92599e-06
2.36398e-06
1.76231e-06
-2.68642e-06
-3.47972e-07
1.62653e-06
-5.5155e-07
1.60355e-06
-7.70835e-07
1.4027e-06
-1.0387e-06
1.10542e-06
-1.36556e-06
7.44463e-07
-1.71677e-06
3.88696e-07
-2.06116e-06
9.35388e-08
-2.36904e-06
-1.54561e-07
-2.65514e-06
-3.79971e-07
-2.92727e-06
-4.40101e-07
-3.20127e-06
-4.0034e-07
-3.50668e-06
-4.02514e-07
-3.8684e-06
-3.89401e-07
-4.17482e-06
-2.67677e-07
-4.30207e-06
-1.45997e-08
-4.26094e-06
4.69052e-07
-4.08664e-06
1.13838e-06
-3.80842e-06
1.79016e-06
-3.47306e-06
2.24935e-06
-3.12683e-06
2.45244e-06
-2.81177e-06
2.39461e-06
-2.53846e-06
2.09066e-06
1.50608e-06
-2.28224e-06
-2.76559e-07
1.9031e-06
-4.73283e-07
1.80022e-06
-6.66867e-07
1.59627e-06
-8.90737e-07
1.3293e-06
-1.1569e-06
1.01065e-06
-1.45217e-06
6.83989e-07
-1.73981e-06
3.81212e-07
-2.00835e-06
1.14008e-07
-2.30053e-06
-8.77758e-08
-2.60744e-06
-1.33175e-07
-2.8944e-06
-1.13379e-07
-3.19275e-06
-1.04161e-07
-3.50664e-06
-7.55133e-08
-3.77503e-06
7.18246e-10
-3.91224e-06
1.22642e-07
-3.90268e-06
4.59562e-07
-3.74087e-06
9.76688e-07
-3.4894e-06
1.53885e-06
-3.17814e-06
1.93828e-06
-2.83069e-06
2.10519e-06
-2.48089e-06
2.04503e-06
-2.15192e-06
1.76191e-06
1.24715e-06
-1.89274e-06
-2.09211e-07
2.11226e-06
-3.86902e-07
1.97785e-06
-5.61708e-07
1.77103e-06
-7.55904e-07
1.52347e-06
-9.80936e-07
1.23567e-06
-1.22761e-06
9.30652e-07
-1.46973e-06
6.23331e-07
-1.71683e-06
3.6111e-07
-2.00546e-06
2.00865e-07
-2.30294e-06
1.64307e-07
-2.57333e-06
1.57032e-07
-2.83648e-06
1.59009e-07
-3.09047e-06
1.78501e-07
-3.31307e-06
2.23354e-07
-3.48119e-06
2.90794e-07
-3.51506e-06
4.93496e-07
-3.39628e-06
8.58011e-07
-3.17486e-06
1.31757e-06
-2.88861e-06
1.65219e-06
-2.55781e-06
1.77459e-06
-2.21621e-06
1.70363e-06
-1.89909e-06
1.44502e-06
1.00942e-06
-1.6611e-06
-1.52209e-07
2.26441e-06
-3.04921e-07
2.13052e-06
-4.60149e-07
1.92624e-06
-6.2988e-07
1.69319e-06
-8.22521e-07
1.4283e-06
-1.03517e-06
1.14328e-06
-1.24759e-06
8.35747e-07
-1.48833e-06
6.01835e-07
-1.76172e-06
4.74265e-07
-2.02551e-06
4.28103e-07
-2.26661e-06
3.98144e-07
-2.4897e-06
3.8212e-07
-2.69366e-06
3.825e-07
-2.87253e-06
4.0225e-07
-3.03205e-06
4.50357e-07
-3.10443e-06
5.65917e-07
-3.05866e-06
8.12289e-07
-2.88429e-06
1.14328e-06
-2.62621e-06
1.39421e-06
-2.32862e-06
1.47711e-06
-2.02599e-06
1.40111e-06
-1.75631e-06
1.17544e-06
8.21461e-07
-1.56824e-06
-1.05935e-07
2.37031e-06
-2.30875e-07
2.25549e-06
-3.6584e-07
2.06123e-06
-5.1323e-07
1.84059e-06
-6.79446e-07
1.59451e-06
-8.65812e-07
1.32964e-06
-1.07368e-06
1.0436e-06
-1.30535e-06
8.33503e-07
-1.55414e-06
7.23054e-07
-1.78236e-06
6.56317e-07
-1.99072e-06
6.06513e-07
-2.17979e-06
5.7119e-07
-2.34905e-06
5.51772e-07
-2.49752e-06
5.50723e-07
-2.62238e-06
5.75222e-07
-2.70934e-06
6.52871e-07
-2.70782e-06
8.10764e-07
-2.58432e-06
1.01978e-06
-2.37128e-06
1.18117e-06
-2.12136e-06
1.22719e-06
-1.87028e-06
1.15003e-06
-1.65343e-06
9.58585e-07
6.75843e-07
-1.50783e-06
-7.15172e-08
2.44184e-06
-1.68388e-07
2.35243e-06
-2.83545e-07
2.17643e-06
-4.12352e-07
1.96943e-06
-5.58392e-07
1.74057e-06
-7.25282e-07
1.49654e-06
-9.29653e-07
1.24798e-06
-1.15131e-06
1.05516e-06
-1.36797e-06
9.39705e-07
-1.5654e-06
8.53742e-07
-1.7452e-06
7.86293e-07
-1.90758e-06
7.33558e-07
-2.05208e-06
6.96246e-07
-2.17811e-06
6.76728e-07
-2.28405e-06
6.81126e-07
-2.35534e-06
7.24116e-07
-2.36065e-06
8.16018e-07
-2.27509e-06
9.34158e-07
-2.11481e-06
1.02083e-06
-1.91854e-06
1.03086e-06
-1.72023e-06
9.51644e-07
-1.55033e-06
7.88608e-07
5.61148e-07
-1.43572e-06
-4.47111e-08
2.4866e-06
-1.19344e-07
2.42716e-06
-2.18094e-07
2.27525e-06
-3.334e-07
2.08478e-06
-4.65834e-07
1.87304e-06
-6.20094e-07
1.65082e-06
-8.06614e-07
1.43451e-06
-1.00756e-06
1.25611e-06
-1.19471e-06
1.12685e-06
-1.36702e-06
1.02604e-06
-1.52358e-06
9.4284e-07
-1.66459e-06
8.74537e-07
-1.7895e-06
8.21121e-07
-1.8972e-06
7.84385e-07
-1.98453e-06
7.68403e-07
-2.04022e-06
7.79739e-07
-2.04437e-06
8.20088e-07
-1.98301e-06
8.72713e-07
-1.8655e-06
9.03232e-07
-1.71726e-06
8.82533e-07
-1.56516e-06
7.99439e-07
-1.43347e-06
6.56827e-07
4.69168e-07
-1.3416e-06
-2.32938e-08
2.50995e-06
-8.29481e-08
2.48692e-06
-1.71019e-07
2.36339e-06
-2.75568e-07
2.18939e-06
-3.96679e-07
1.99419e-06
-5.37734e-07
1.79191e-06
-7.00041e-07
1.59684e-06
-8.71201e-07
1.42729e-06
-1.03444e-06
1.2901e-06
-1.18475e-06
1.17636e-06
-1.32151e-06
1.07959e-06
-1.44426e-06
9.97267e-07
-1.55217e-06
9.29004e-07
-1.64359e-06
8.75765e-07
-1.71483e-06
8.39589e-07
-1.75776e-06
8.2261e-07
-1.76053e-06
8.22786e-07
-1.71585e-06
8.27952e-07
-1.62988e-06
8.1718e-07
-1.51943e-06
7.71995e-07
-1.40407e-06
6.8398e-07
-1.30199e-06
5.54663e-07
3.94248e-07
-1.22717e-06
-1.37239e-08
2.52374e-06
-6.45033e-08
2.53779e-06
-1.41428e-07
2.44038e-06
-2.34117e-07
2.28214e-06
-3.42083e-07
2.10221e-06
-4.66094e-07
1.91596e-06
-6.0449e-07
1.73527e-06
-7.48733e-07
1.57156e-06
-8.88283e-07
1.42966e-06
-1.01825e-06
1.30634e-06
-1.13687e-06
1.1982e-06
-1.24306e-06
1.10345e-06
-1.33561e-06
1.02153e-06
-1.41258e-06
9.52704e-07
-1.47057e-06
8.97545e-07
-1.50394e-06
8.55934e-07
-1.50589e-06
8.24671e-07
-1.47299e-06
7.94993e-07
-1.40972e-06
7.53833e-07
-1.3273e-06
6.89505e-07
-1.23957e-06
5.96172e-07
-1.15971e-06
4.74715e-07
3.32157e-07
-1.0977e-06
-1.16941e-08
2.53549e-06
-6.05229e-08
2.5867e-06
-1.24489e-07
2.50442e-06
-2.03526e-07
2.36124e-06
-2.96376e-07
2.19512e-06
-4.02105e-07
2.02174e-06
-5.1811e-07
1.85132e-06
-6.38403e-07
1.69188e-06
-7.56039e-07
1.54733e-06
-8.66799e-07
1.41711e-06
-9.68372e-07
1.29978e-06
-1.05919e-06
1.19427e-06
-1.13773e-06
1.10005e-06
-1.20199e-06
1.01694e-06
-1.24915e-06
9.44671e-07
-1.27539e-06
8.8213e-07
-1.27688e-06
8.26113e-07
-1.2523e-06
7.70357e-07
-1.20505e-06
7.06515e-07
-1.14279e-06
6.27173e-07
-1.07516e-06
5.28471e-07
-1.01152e-06
4.10997e-07
2.79562e-07
-9.5901e-07
-1.50686e-08
2.5506e-06
-5.91572e-08
2.63086e-06
-1.12319e-07
2.55765e-06
-1.78208e-07
2.42719e-06
-2.55854e-07
2.27282e-06
-3.43797e-07
2.10974e-06
-4.39473e-07
1.94704e-06
-5.38592e-07
1.79104e-06
-6.36381e-07
1.64514e-06
-7.29312e-07
1.51006e-06
-8.14985e-07
1.38546e-06
-8.91579e-07
1.27086e-06
-9.57398e-07
1.16586e-06
-1.01055e-06
1.07007e-06
-1.04875e-06
9.82844e-07
-1.06946e-06
9.02792e-07
-1.07054e-06
8.27147e-07
-1.05171e-06
7.51467e-07
-1.01559e-06
6.70327e-07
-9.67502e-07
5.79011e-07
-9.1415e-07
4.75042e-07
-8.62111e-07
3.58877e-07
2.33835e-07
-8.16474e-07
-2.30595e-08
2.57371e-06
-5.63908e-08
2.66428e-06
-1.00592e-07
2.60192e-06
-1.54869e-07
2.48154e-06
-2.1836e-07
2.33638e-06
-2.89875e-07
2.18131e-06
-3.67393e-07
2.0246e-06
-4.47871e-07
1.87155e-06
-5.2791e-07
1.7252e-06
-6.04619e-07
1.58678e-06
-6.75722e-07
1.45657e-06
-7.39341e-07
1.33447e-06
-7.93755e-07
1.22025e-06
-8.37221e-07
1.11351e-06
-8.67924e-07
1.01351e-06
-8.84121e-07
9.18942e-07
-8.84637e-07
8.27608e-07
-8.69623e-07
7.36389e-07
-8.411e-07
6.41734e-07
-8.02806e-07
5.40641e-07
-7.5941e-07
4.31566e-07
-7.15518e-07
3.14901e-07
1.92971e-07
-6.74745e-07
-2.92697e-08
2.60302e-06
-5.25058e-08
2.68759e-06
-8.92175e-08
2.6387e-06
-1.32774e-07
2.52516e-06
-1.83063e-07
2.38673e-06
-2.39546e-07
2.23784e-06
-3.00895e-07
2.08599e-06
-3.64989e-07
1.93568e-06
-4.29333e-07
1.78957e-06
-4.91558e-07
1.64902e-06
-5.4959e-07
1.5146e-06
-6.01607e-07
1.38648e-06
-6.45947e-07
1.26457e-06
-6.81032e-07
1.14856e-06
-7.05385e-07
1.03782e-06
-7.17769e-07
9.31278e-07
-7.17506e-07
8.2729e-07
-7.04889e-07
7.2371e-07
-6.8145e-07
6.18227e-07
-6.4983e-07
5.08948e-07
-6.13287e-07
3.94947e-07
-5.75046e-07
2.76583e-07
1.55512e-07
-5.37671e-07
-3.16752e-08
2.63474e-06
-5.15764e-08
2.70757e-06
-7.95985e-08
2.66679e-06
-1.12036e-07
2.55766e-06
-1.49514e-07
2.42426e-06
-1.92106e-07
2.28048e-06
-2.39034e-07
2.13296e-06
-2.88783e-07
1.98546e-06
-3.39428e-07
1.84023e-06
-3.88979e-07
1.69858e-06
-4.35557e-07
1.56118e-06
-4.77441e-07
1.42836e-06
-5.13058e-07
1.30017e-06
-5.4098e-07
1.17646e-06
-5.59968e-07
1.05678e-06
-5.69083e-07
9.40352e-07
-5.6789e-07
8.26049e-07
-5.56681e-07
7.12446e-07
-5.36587e-07
5.98075e-07
-5.09475e-07
4.81776e-07
-4.77628e-07
3.63037e-07
-4.43304e-07
2.42197e-07
1.20463e-07
-4.08321e-07
-3.00268e-08
2.66482e-06
-5.20654e-08
2.72968e-06
-7.0791e-08
2.68557e-06
-9.16392e-08
2.57855e-06
-1.16679e-07
2.44934e-06
-1.46523e-07
2.31037e-06
-1.8072e-07
2.16719e-06
-2.18084e-07
2.02285e-06
-2.57011e-07
1.87918e-06
-2.9575e-07
1.73733e-06
-3.32573e-07
1.598e-06
-3.65856e-07
1.46163e-06
-3.94118e-07
1.32842e-06
-4.16053e-07
1.19837e-06
-4.30581e-07
1.07128e-06
-4.36935e-07
9.46676e-07
-4.34784e-07
8.23864e-07
-4.24352e-07
7.01975e-07
-4.06454e-07
5.80135e-07
-3.82409e-07
4.57687e-07
-3.53817e-07
3.34401e-07
-3.22267e-07
2.10604e-07
8.72014e-08
-2.89049e-07
-2.82344e-08
2.69309e-06
-5.06257e-08
2.75212e-06
-5.97682e-08
2.69476e-06
-6.92833e-08
2.58811e-06
-8.2831e-08
2.46292e-06
-1.01411e-07
2.32897e-06
-1.24719e-07
2.19052e-06
-1.51713e-07
2.04986e-06
-1.80942e-07
1.90842e-06
-2.10782e-07
1.76718e-06
-2.39604e-07
1.62683e-06
-2.6586e-07
1.48789e-06
-2.88147e-07
1.3507e-06
-3.05254e-07
1.21547e-06
-3.16204e-07
1.08222e-06
-3.20329e-07
9.50784e-07
-3.17331e-07
8.20847e-07
-3.07347e-07
6.9197e-07
-2.9095e-07
5.63715e-07
-2.69067e-07
4.35781e-07
-2.42828e-07
3.08139e-07
-2.13356e-07
1.81111e-07
5.53964e-08
-1.81572e-07
-3.11058e-08
2.72423e-06
-4.42611e-08
2.76531e-06
-4.30984e-08
2.69362e-06
-4.24131e-08
2.58745e-06
-4.61286e-08
2.46666e-06
-5.53547e-08
2.33822e-06
-6.98415e-08
2.20502e-06
-8.85881e-08
2.06862e-06
-1.10193e-07
1.93004e-06
-1.33087e-07
1.79008e-06
-1.5569e-07
1.64944e-06
-1.76508e-07
1.50871e-06
-1.94202e-07
1.3684e-06
-2.07629e-07
1.2289e-06
-2.15887e-07
1.09047e-06
-2.18359e-07
9.53254e-07
-2.14755e-07
8.17238e-07
-2.05132e-07
6.82341e-07
-1.89881e-07
5.48457e-07
-1.69656e-07
4.1555e-07
-1.45261e-07
2.83739e-07
-1.17503e-07
1.5335e-07
2.49388e-08
-8.70475e-08
-2.63547e-08
2.75061e-06
-2.74787e-08
2.76645e-06
-1.80303e-08
2.68418e-06
-9.30284e-09
2.57873e-06
-5.2987e-09
2.46267e-06
-7.31493e-09
2.34024e-06
-1.51693e-08
2.21289e-06
-2.78509e-08
2.08131e-06
-4.39327e-08
1.94613e-06
-6.18366e-08
1.80799e-06
-7.9996e-08
1.66761e-06
-9.69517e-08
1.52568e-06
-1.11412e-07
1.38287e-06
-1.2229e-07
1.23978e-06
-1.28741e-07
1.09693e-06
-1.30183e-07
9.54703e-07
-1.26324e-07
8.13385e-07
-1.17158e-07
6.73182e-07
-1.02948e-07
5.34254e-07
-8.41631e-08
3.96773e-07
-6.13877e-08
2.60972e-07
-3.52161e-08
1.27188e-07
-4.12333e-09
-6.14273e-09
-1.00923e-08
2.76071e-06
-9.11513e-10
2.75727e-06
1.46003e-08
2.66867e-06
2.98586e-08
2.56347e-06
3.99207e-08
2.4526e-06
4.31589e-08
2.33701e-06
3.98073e-08
2.21624e-06
3.10371e-08
2.09008e-06
1.8411e-08
1.95876e-06
3.58375e-09
1.82283e-06
-1.1856e-08
1.68305e-06
-2.64679e-08
1.5403e-06
-3.90024e-08
1.39541e-06
-4.84261e-08
1.24922e-06
-5.39415e-08
1.10246e-06
-5.50004e-08
9.55774e-07
-5.13106e-08
8.09709e-07
-4.28289e-08
6.64715e-07
-2.97332e-08
5.21174e-07
-1.23706e-08
3.79426e-07
8.81429e-09
2.39804e-07
3.33647e-08
1.02655e-07
-3.16364e-08
6.08969e-08
6.09812e-09
2.75461e-06
2.65006e-08
2.73686e-06
5.16089e-08
2.64356e-06
7.39054e-08
2.54117e-06
8.9194e-08
2.43731e-06
9.60683e-08
2.33013e-06
9.52236e-08
2.21708e-06
8.82863e-08
2.09702e-06
7.71262e-08
1.96992e-06
6.35558e-08
1.8364e-06
4.92137e-08
1.6974e-06
3.55268e-08
1.55399e-06
2.36987e-08
1.40725e-06
1.47057e-08
1.25822e-06
9.29331e-09
1.10788e-06
7.97332e-09
9.57109e-07
1.10264e-08
8.06672e-07
1.85145e-08
6.57245e-07
3.03085e-08
5.09398e-07
4.61338e-08
3.63621e-07
6.56301e-08
2.20328e-07
8.84221e-08
7.98841e-08
-5.73838e-08
1.14192e-07
2.40377e-08
2.73057e-06
5.67871e-08
2.70409e-06
9.21364e-08
2.60819e-06
1.22348e-07
2.51094e-06
1.42373e-07
2.41727e-06
1.51304e-07
2.32119e-06
1.50948e-07
2.21743e-06
1.43798e-07
2.10417e-06
1.32215e-07
1.9815e-06
1.18224e-07
1.85039e-06
1.03516e-07
1.71211e-06
8.94875e-08
1.56802e-06
7.72788e-08
1.41947e-06
6.77959e-08
1.26772e-06
6.17229e-08
1.11397e-06
5.95278e-08
9.59319e-07
6.14695e-08
8.04747e-07
6.76121e-08
6.5112e-07
7.78496e-08
4.9918e-07
9.19444e-08
3.49546e-07
1.09579e-07
2.02713e-07
1.30419e-07
5.90648e-08
-8.11197e-08
1.54177e-07
4.27577e-08
2.6878e-06
8.90254e-08
2.6578e-06
1.36476e-07
2.56072e-06
1.75596e-07
2.47181e-06
1.99617e-07
2.39324e-06
2.08629e-07
2.31217e-06
2.06526e-07
2.21953e-06
1.97126e-07
2.11356e-06
1.83382e-07
1.99524e-06
1.67509e-07
1.86626e-06
1.51198e-07
1.72843e-06
1.35771e-07
1.58346e-06
1.22272e-07
1.43297e-06
1.11517e-07
1.27848e-06
1.04118e-07
1.12138e-06
1.0049e-07
9.62959e-07
1.00866e-07
8.04386e-07
1.05301e-07
6.46702e-07
1.13696e-07
4.90802e-07
1.25828e-07
3.37431e-07
1.41394e-07
1.87166e-07
1.60066e-07
4.0411e-08
-1.02594e-07
1.8156e-07
6.0305e-08
2.62748e-06
1.24749e-07
2.59334e-06
1.86007e-07
2.49945e-06
2.35037e-07
2.42276e-06
2.60996e-07
2.36727e-06
2.67312e-07
2.30584e-06
2.60942e-07
2.22589e-06
2.47369e-07
2.12713e-06
2.30019e-07
2.01259e-06
2.11137e-07
1.88514e-06
1.92301e-07
1.74726e-06
1.74688e-07
1.60107e-06
1.59209e-07
1.44845e-06
1.46569e-07
1.29113e-06
1.37298e-07
1.13066e-06
1.31759e-07
9.68509e-07
1.30153e-07
8.06004e-07
1.32529e-07
6.44339e-07
1.38789e-07
4.84556e-07
1.48715e-07
3.2752e-07
1.61996e-07
1.73899e-07
1.78288e-07
2.41347e-08
-1.21571e-07
1.9728e-07
8.96532e-08
2.53781e-06
1.71891e-07
2.51108e-06
2.4699e-07
2.42433e-06
3.0127e-07
2.36847e-06
3.25616e-07
2.34291e-06
3.25252e-07
2.30619e-06
3.12251e-07
2.23888e-06
2.93113e-07
2.14626e-06
2.71267e-07
2.03443e-06
2.48733e-07
1.90767e-06
2.26847e-07
1.76915e-06
2.06579e-07
1.62134e-06
1.88677e-07
1.46636e-06
1.73727e-07
1.30608e-06
1.62175e-07
1.14222e-06
1.54334e-07
9.76357e-07
1.50384e-07
8.09962e-07
1.50373e-07
6.44361e-07
1.54214e-07
4.80726e-07
1.61691e-07
3.20054e-07
1.72481e-07
1.6312e-07
1.86196e-07
1.04311e-08
-1.37837e-07
2.02474e-07
1.47933e-07
2.38987e-06
2.50851e-07
2.40815e-06
3.29857e-07
2.34531e-06
3.72039e-07
2.32628e-06
3.88288e-07
2.32665e-06
3.78317e-07
2.31615e-06
3.57677e-07
2.25951e-06
3.32703e-07
2.17123e-06
3.06273e-07
2.06085e-06
2.80018e-07
1.93393e-06
2.54978e-07
1.79418e-06
2.31906e-07
1.64441e-06
2.11385e-07
1.48688e-06
1.93888e-07
1.32358e-06
1.79783e-07
1.15633e-06
1.69346e-07
9.868e-07
1.62746e-07
8.16568e-07
1.60048e-07
6.47066e-07
1.61193e-07
4.7959e-07
1.65985e-07
3.1527e-07
1.74088e-07
1.55025e-07
1.85057e-07
-5.29661e-10
-1.5121e-07
1.98438e-07
2.45086e-07
2.14477e-06
3.73812e-07
2.27941e-06
4.3401e-07
2.28511e-06
4.50652e-07
2.30962e-06
4.45154e-07
2.33214e-06
4.23604e-07
2.3377e-06
3.95616e-07
2.28749e-06
3.65304e-07
2.20153e-06
3.34737e-07
2.09141e-06
3.05088e-07
1.96357e-06
2.77104e-07
1.82217e-06
2.51332e-07
1.67018e-06
2.28206e-07
1.51001e-06
2.08093e-07
1.34369e-06
1.91298e-07
1.17312e-06
1.78064e-07
1.00004e-06
1.68568e-07
8.26067e-07
1.62908e-07
6.5273e-07
1.61082e-07
4.81421e-07
1.62945e-07
3.13411e-07
1.68174e-07
1.49801e-07
1.7625e-07
-8.60066e-09
-1.61534e-07
1.86579e-07
3.72818e-07
1.77195e-06
5.24975e-07
2.12724e-06
5.50904e-07
2.25917e-06
5.35063e-07
2.32546e-06
4.98265e-07
2.36893e-06
4.62917e-07
2.37304e-06
4.2706e-07
2.32335e-06
3.91525e-07
2.23706e-06
3.57173e-07
2.12576e-06
3.24521e-07
1.99622e-06
2.93936e-07
1.85275e-06
2.65724e-07
1.69839e-06
2.40163e-07
1.53557e-06
2.17512e-07
1.36634e-06
1.98015e-07
1.19262e-06
1.81886e-07
1.01617e-06
1.69314e-07
8.38642e-07
1.60446e-07
6.616e-07
1.55364e-07
4.86506e-07
1.54024e-07
3.14754e-07
1.56167e-07
1.47661e-07
1.6122e-07
-1.36505e-08
-1.68677e-07
1.68366e-07
5.10739e-07
1.2612e-06
6.77512e-07
1.96046e-06
6.70865e-07
2.26581e-06
6.13624e-07
2.38269e-06
5.5019e-07
2.43236e-06
4.9861e-07
2.42461e-06
4.53378e-07
2.36857e-06
4.12294e-07
2.27815e-06
3.74359e-07
2.16369e-06
3.39098e-07
2.03148e-06