/*--------------------------------*- C++ -*----------------------------------*\
  =========                 |
  \\      /  F ield         | OpenFOAM: The Open Source CFD Toolbox
   \\    /   O peration     | Website:  https://openfoam.org
    \\  /    A nd           | Version:  9
     \\/     M anipulation  |
\*---------------------------------------------------------------------------*/
FoamFile
{
    format      ascii;
    class       volVectorField;
    location    "8.85";
    object      U;
}
// * * * * * * * * * * * * * * * * * * * * * * * * * * * * * * * * * * * * * //

dimensions      [0 1 -1 0 0 0 0];

internalField   nonuniform List<vector> 
2268
(
(0.000595682 -0.000300285 0)
(0.00186396 -0.000349733 0)
(0.00320514 -0.000361693 0)
(0.00459429 -0.000369088 0)
(0.00598204 -0.000368415 0)
(0.00733562 -0.000362951 0)
(0.00863915 -0.000350016 0)
(0.00986129 -0.000325929 0)
(0.0109561 -0.000289645 0)
(0.0118858 -0.000245163 0)
(0.0126495 -0.000210959 0)
(0.0133113 -0.000212141 0)
(0.0140103 -0.00026524 0)
(0.0148891 -0.000350154 0)
(0.0159176 -0.000382176 0)
(0.0167968 -0.000180514 0)
(0.0164126 0.000401645 0)
(0.0139176 0.000991954 0)
(0.00932863 0.0020718 0)
(0.00108773 0.00259608 0)
(-0.00531523 0.00104901 0)
(-0.00683251 -0.000538479 0)
(-0.00373331 -0.00161903 0)
(0.000624127 -0.000857984 0)
(0.00192696 -0.000970696 0)
(0.0032864 -0.00100993 0)
(0.0047067 -0.00101445 0)
(0.00610561 -0.000998188 0)
(0.0074549 -0.000966349 0)
(0.00873211 -0.000913639 0)
(0.00990052 -0.000832021 0)
(0.0109191 -0.000722122 0)
(0.0117592 -0.000599011 0)
(0.0124196 -0.000497665 0)
(0.012942 -0.000464896 0)
(0.0134113 -0.000526607 0)
(0.0139054 -0.000630367 0)
(0.0143881 -0.000601828 0)
(0.0146258 -0.000109422 0)
(0.0139591 0.00112487 0)
(0.0116193 0.00248797 0)
(0.00805483 0.00419007 0)
(0.0031566 0.00493808 0)
(-0.000858665 0.00266538 0)
(-0.0037806 -1.3325e-05 0)
(-0.00347585 -0.00363148 0)
(0.00066702 -0.00144329 0)
(0.00201008 -0.00159202 0)
(0.00337547 -0.00165317 0)
(0.00479634 -0.00165977 0)
(0.00618752 -0.00162701 0)
(0.00752106 -0.00156527 0)
(0.00876988 -0.00146686 0)
(0.00989322 -0.0013207 0)
(0.0108505 -0.00113129 0)
(0.0116153 -0.00092196 0)
(0.0121815 -0.000741249 0)
(0.0125735 -0.000651834 0)
(0.0128465 -0.000685721 0)
(0.0130522 -0.000769759 0)
(0.0131702 -0.000667669 0)
(0.0130729 6.85746e-05 0)
(0.0122233 0.0018337 0)
(0.00999048 0.00379299 0)
(0.00711853 0.00566983 0)
(0.00425526 0.00643791 0)
(0.00167743 0.0041073 0)
(-0.00158373 0.000955084 0)
(-0.00243337 -0.00502103 0)
(0.000699895 -0.0020764 0)
(0.00208194 -0.00224843 0)
(0.0034678 -0.00231564 0)
(0.00489402 -0.00231723 0)
(0.00628265 -0.00226321 0)
(0.00760631 -0.00216616 0)
(0.00883499 -0.00201522 0)
(0.00992375 -0.00179643 0)
(0.0108304 -0.00151907 0)
(0.0115284 -0.00121371 0)
(0.0120053 -0.000938996 0)
(0.0122707 -0.00077001 0)
(0.0123606 -0.00074555 0)
(0.0123163 -0.000781548 0)
(0.0121461 -0.00060597 0)
(0.0118342 0.000325232 0)
(0.0109749 0.00253752 0)
(0.00898906 0.00494406 0)
(0.0066217 0.0067651 0)
(0.00485721 0.00738809 0)
(0.00314892 0.00535642 0)
(4.94891e-05 0.00209695 0)
(-0.00128523 -0.00567679 0)
(0.000724828 -0.00272638 0)
(0.00214339 -0.00292498 0)
(0.00356131 -0.00299129 0)
(0.00500182 -0.00298301 0)
(0.00639529 -0.00290388 0)
(0.00771527 -0.0027673 0)
(0.00893036 -0.00255792 0)
(0.00999115 -0.00225884 0)
(0.0108533 -0.00188507 0)
(0.0114895 -0.00147333 0)
(0.0118806 -0.00108944 0)
(0.0120231 -0.000818752 0)
(0.0119393 -0.000708826 0)
(0.0116647 -0.00067467 0)
(0.0112338 -0.00043601 0)
(0.0107463 0.000599772 0)
(0.00997308 0.00316245 0)
(0.0083255 0.00593415 0)
(0.00636779 0.00761038 0)
(0.00516764 0.00798753 0)
(0.00391612 0.00640294 0)
(0.00126615 0.00320174 0)
(2.83374e-05 -0.0056671 0)
(0.000747038 -0.00339186 0)
(0.00220479 -0.00361705 0)
(0.00366099 -0.00367676 0)
(0.00512235 -0.00365347 0)
(0.00652556 -0.00354488 0)
(0.00784488 -0.00336462 0)
(0.00904885 -0.00309133 0)
(0.0100839 -0.00270479 0)
(0.0109041 -0.00222689 0)
(0.0114821 -0.00169927 0)
(0.011793 -0.0011921 0)
(0.011821 -0.000799533 0)
(0.0115766 -0.000579709 0)
(0.0110879 -0.000454363 0)
(0.0104006 -0.000158258 0)
(0.00970254 0.00088938 0)
(0.00904185 0.00364298 0)
(0.00782914 0.006753 0)
(0.006268 0.00828276 0)
(0.00530378 0.00842163 0)
(0.00423388 0.0072593 0)
(0.00233427 0.00402362 0)
(0.00170766 -0.00506506 0)
(0.000768146 -0.00406218 0)
(0.00227893 -0.00432862 0)
(0.00377276 -0.0043753 0)
(0.0052571 -0.00433117 0)
(0.00667048 -0.00418752 0)
(0.00798691 -0.00395873 0)
(0.00917617 -0.00361579 0)
(0.0101821 -0.00313454 0)
(0.0109591 -0.0025455 0)
(0.0114819 -0.00189381 0)
(0.0117205 -0.00125096 0)
(0.0116486 -0.000718773 0)
(0.011265 -0.000367221 0)
(0.0105861 -0.000126452 0)
(0.00964938 0.000238375 0)
(0.00865711 0.00124331 0)
(0.00798232 0.00396344 0)
(0.00734968 0.00731148 0)
(0.00631636 0.00885273 0)
(0.00530533 0.00884488 0)
(0.00434629 0.00785878 0)
(0.00350124 0.00433529 0)
(0.00335175 -0.00391916 0)
(0.000800492 -0.00480868 0)
(0.00236991 -0.00508396 0)
(0.00389773 -0.00510279 0)
(0.00540369 -0.00502789 0)
(0.00682317 -0.00484015 0)
(0.00812796 -0.00455605 0)
(0.00929103 -0.00413589 0)
(0.0102576 -0.00355077 0)
(0.0109863 -0.00284375 0)
(0.0114557 -0.00206115 0)
(0.011633 -0.0012716 0)
(0.0114828 -0.000583041 0)
(0.0109927 -8.08874e-05 0)
(0.0101631 0.000305999 0)
(0.00900969 0.000771417 0)
(0.00768577 0.00174701 0)
(0.00679839 0.00421902 0)
(0.00663743 0.00750728 0)
(0.00627282 0.00928247 0)
(0.00533373 0.009285 0)
(0.00466414 0.00810763 0)
(0.00473952 0.00441457 0)
(0.00401436 -0.00217327 0)
(-0.0138131 0.00375991 0)
(-0.0161241 -2.42866e-05 0)
(-0.011211 -0.00187939 0)
(-0.00586934 -0.00134154 0)
(-0.002833 -0.000927404 0)
(-0.000263278 -0.000726557 0)
(0.0011301 -0.000266832 0)
(0.00191346 -0.000290337 0)
(0.00292202 -0.000287436 0)
(0.00318172 -0.000201125 0)
(0.00269129 0.000677277 0)
(-0.00178922 0.00256898 0)
(-0.0123154 0.0024695 0)
(-0.0160985 -3.53182e-05 0)
(-0.0143989 -0.000580729 0)
(-0.0124344 -0.000713002 0)
(-0.0110663 -0.000600929 0)
(-0.00962851 -0.00134334 0)
(-0.00209902 -0.00105669 0)
(-0.0135442 0.00902684 0)
(-0.0109097 -0.000573305 0)
(-0.00856133 -0.00319848 0)
(-0.00582848 -0.00237901 0)
(-0.00437998 -0.00158455 0)
(-0.00342625 -0.00111392 0)
(-0.00273676 -0.000657155 0)
(-0.00196338 -0.000568468 0)
(-0.00161976 -0.00022346 0)
(-0.00260407 0.000252307 0)
(-0.00393446 0.00141986 0)
(-0.00559372 0.00421061 0)
(-0.00954125 0.00416324 0)
(-0.0112291 0.000472091 0)
(-0.0114635 -0.000781042 0)
(-0.0108986 -0.000986007 0)
(-0.0112196 -0.000601357 0)
(-0.011676 -0.0023442 0)
(-0.00606344 -0.00419446 0)
(-0.00891559 0.013078 0)
(-0.0067524 -0.00134613 0)
(-0.00634893 -0.003923 0)
(-0.00568374 -0.00284139 0)
(-0.00544254 -0.00183893 0)
(-0.00532103 -0.00125164 0)
(-0.00514345 -0.000884524 0)
(-0.00471709 -0.000723894 0)
(-0.00472097 3.00404e-05 0)
(-0.00606715 0.000926394 0)
(-0.00782263 0.00194647 0)
(-0.00824844 0.00453362 0)
(-0.00830036 0.00450628 0)
(-0.00869424 0.000907797 0)
(-0.00948606 -0.000599612 0)
(-0.00960257 -0.000840178 0)
(-0.0106042 -0.000194825 0)
(-0.0118248 -0.00313081 0)
(-0.00716584 -0.00852627 0)
(-0.00338647 0.0156161 0)
(-0.00294678 -0.00134415 0)
(-0.0046459 -0.00375833 0)
(-0.00570811 -0.0027105 0)
(-0.00645867 -0.00174105 0)
(-0.00697312 -0.00117825 0)
(-0.00722982 -0.00093697 0)
(-0.00711056 -0.000760939 0)
(-0.00725742 0.000337587 0)
(-0.00854528 0.00159889 0)
(-0.0101649 0.00241261 0)
(-0.00995813 0.00425064 0)
(-0.00832105 0.00414604 0)
(-0.00772148 0.00112019 0)
(-0.00826534 -0.000382467 0)
(-0.0083094 -0.000572156 0)
(-0.00922402 0.000300756 0)
(-0.0101994 -0.00388988 0)
(-0.00562153 -0.0124552 0)
(0.00197993 0.0159951 0)
(-2.76241e-05 -0.000580268 0)
(-0.00367704 -0.00277548 0)
(-0.00604982 -0.00207522 0)
(-0.00757137 -0.00133555 0)
(-0.00859498 -0.000906782 0)
(-0.00922775 -0.000844035 0)
(-0.00936063 -0.000730302 0)
(-0.00950814 0.000625199 0)
(-0.0105307 0.00215428 0)
(-0.0116763 0.00268368 0)
(-0.0110163 0.00369339 0)
(-0.0088591 0.00343677 0)
(-0.00778976 0.00106907 0)
(-0.00773825 -0.000387497 0)
(-0.0069729 -0.000491744 0)
(-0.00701923 0.000649591 0)
(-0.00745356 -0.00470598 0)
(-0.00347148 -0.0153551 0)
(0.00548894 0.0146153 0)
(0.00123387 0.00115277 0)
(-0.00364745 -0.00118297 0)
(-0.00679622 -0.00107947 0)
(-0.00882796 -0.000697709 0)
(-0.0102328 -0.000467717 0)
(-0.0111895 -0.000625109 0)
(-0.0115328 -0.000672212 0)
(-0.0115758 0.000827192 0)
(-0.0122146 0.00255295 0)
(-0.0128073 0.0027164 0)
(-0.0117438 0.00301493 0)
(-0.00947273 0.00263242 0)
(-0.00831183 0.000852679 0)
(-0.00775105 -0.00074212 0)
(-0.00584678 -0.000994265 0)
(-0.00425692 0.000567867 0)
(-0.00392992 -0.00535529 0)
(-0.00124943 -0.0171193 0)
(0.00572003 0.0129885 0)
(0.000372639 0.00343475 0)
(-0.00457311 0.000662535 0)
(-0.00794082 9.82063e-05 0)
(-0.0102217 8.43733e-05 0)
(-0.0118776 0.000103627 0)
(-0.0131089 -0.00029099 0)
(-0.0136767 -0.000604161 0)
(-0.0135653 0.000881025 0)
(-0.0136828 0.00276869 0)
(-0.0136904 0.00252623 0)
(-0.0122879 0.00226069 0)
(-0.0100157 0.00182944 0)
(-0.00882123 0.000562832 0)
(-0.00772952 -0.00144419 0)
(-0.00499806 -0.00210484 0)
(-0.00194806 -0.000132588 0)
(-0.000426815 -0.00587719 0)
(0.00125327 -0.017611 0)
(0.0017705 0.0126388 0)
(-0.00204384 0.00537803 0)
(-0.00621852 0.00238662 0)
(-0.00938277 0.00130881 0)
(-0.0117083 0.0009439 0)
(-0.0134905 0.000772682 0)
(-0.0149197 0.000160824 0)
(-0.0157807 -0.0004707 0)
(-0.0156036 0.000727117 0)
(-0.0150336 0.0026966 0)
(-0.0143161 0.00210884 0)
(-0.0126389 0.00144754 0)
(-0.0104256 0.00101812 0)
(-0.00898517 0.000170895 0)
(-0.0071363 -0.002506 0)
(-0.00417324 -0.00344413 0)
(-0.000420424 -0.00149191 0)
(0.00249037 -0.00652586 0)
(0.00355949 -0.0167279 0)
(0.000908641 -0.00605502 0)
(0.00252388 -0.00636987 0)
(0.00410462 -0.00632347 0)
(0.00564168 -0.00617648 0)
(0.00705755 -0.00589728 0)
(0.0083185 -0.00551095 0)
(0.00940683 -0.00495312 0)
(0.0102828 -0.00418644 0)
(0.0109202 -0.00328397 0)
(0.0113074 -0.00228812 0)
(0.0114106 -0.00125341 0)
(0.0111844 -0.000288116 0)
(0.0106005 0.000486005 0)
(0.00962899 0.00115693 0)
(0.00825568 0.00184888 0)
(0.00662865 0.0028359 0)
(0.00537425 0.00474255 0)
(0.00513433 0.00743142 0)
(0.00545717 0.00945572 0)
(0.00555123 0.0096879 0)
(0.00546328 0.0082074 0)
(0.00491847 0.00537449 0)
(0.00136519 0.0028893 0)
(0.00113148 -0.00756194 0)
(0.00278971 -0.00788442 0)
(0.00444013 -0.00780793 0)
(0.00598052 -0.00756998 0)
(0.00732102 -0.00711761 0)
(0.00840772 -0.0065371 0)
(0.0092335 -0.00577569 0)
(0.00984559 -0.0047989 0)
(0.0102793 -0.00368607 0)
(0.0105425 -0.00246808 0)
(0.0106288 -0.00117941 0)
(0.010505 9.36336e-05 0)
(0.0100875 0.00122132 0)
(0.00928439 0.00228242 0)
(0.0080608 0.00331213 0)
(0.00650295 0.00438023 0)
(0.00500405 0.00571037 0)
(0.00422088 0.00737127 0)
(0.00446258 0.00888595 0)
(0.00508864 0.00940515 0)
(0.00488689 0.00874281 0)
(0.00308087 0.00790548 0)
(-0.00046391 0.00760945 0)
(0.00160065 -0.00967841 0)
(0.00296129 -0.00947297 0)
(0.00452621 -0.00924335 0)
(0.00555771 -0.00883352 0)
(0.00650427 -0.00804251 0)
(0.00747225 -0.00712174 0)
(0.00820398 -0.00614646 0)
(0.00868992 -0.00506525 0)
(0.0089788 -0.00387477 0)
(0.00915254 -0.00256401 0)
(0.00929802 -0.00116684 0)
(0.00942431 0.000241861 0)
(0.00929409 0.00157726 0)
(0.00870753 0.00291387 0)
(0.00770903 0.00424589 0)
(0.00638851 0.00551498 0)
(0.00503855 0.00667895 0)
(0.00410037 0.00768749 0)
(0.00399972 0.00852384 0)
(0.0043817 0.00924722 0)
(0.00377434 0.00966808 0)
(0.00147247 0.00993965 0)
(-0.00163547 0.0101249 0)
(0.00913589 -0.0131325 0)
(0.00405672 -0.00957489 0)
(0.00479658 -0.00957277 0)
(0.00266506 -0.00890679 0)
(0.00172947 -0.00818414 0)
(0.00345109 -0.00722513 0)
(0.00548658 -0.00615516 0)
(0.00685887 -0.00500779 0)
(0.00729748 -0.00380801 0)
(0.00746064 -0.00251904 0)
(0.00771729 -0.00116156 0)
(0.00819457 0.000202416 0)
(0.00817129 0.00174266 0)
(0.0072388 0.00324205 0)
(0.00616554 0.00468008 0)
(0.0054968 0.00598806 0)
(0.00584555 0.00688554 0)
(0.00626231 0.00789109 0)
(0.00493328 0.00838047 0)
(0.0034565 0.0090586 0)
(0.00277948 0.0101258 0)
(0.00162671 0.0106874 0)
(-0.000450395 0.0108433 0)
(-0.0119684 -0.0181483 0)
(-0.0106577 -0.0107399 0)
(-0.0196962 -0.0083072 0)
(-0.0293497 -0.0020876 0)
(-0.0323704 -0.0121306 0)
(-0.0289235 -0.0140374 0)
(-0.0219607 -0.0129828 0)
(-0.0149931 -0.00867323 0)
(-0.0103377 -0.00553664 0)
(-0.00710665 -0.00392886 0)
(-0.00384859 -0.0027213 0)
(7.88996e-05 -0.00122604 0)
(0.00364684 0.00307239 0)
(0.00621004 0.00644397 0)
(0.0090829 0.0076289 0)
(0.0123253 0.00786604 0)
(0.0144817 0.00691555 0)
(0.0149785 0.00962945 0)
(0.0108091 0.014441 0)
(0.00173646 0.0126904 0)
(-0.00280267 0.0148565 0)
(-0.00202776 0.017234 0)
(-0.000800844 0.0233382 0)
(-0.00167523 0.00231952 0)
(-0.00821874 0.00171693 0)
(-0.0119467 0.00280371 0)
(-0.00892223 0.00431662 0)
(-0.00599985 -0.00920566 0)
(-0.0105014 -0.0135918 0)
(-0.0155378 -0.0170419 0)
(-0.0171243 -0.0129784 0)
(-0.0161794 -0.00898744 0)
(-0.0148881 -0.00712677 0)
(-0.0142398 -0.00620926 0)
(-0.0138663 -0.00594338 0)
(-0.0111229 -0.00335167 0)
(-0.00585127 -0.000712814 0)
(-0.00133647 2.11572e-05 0)
(0.000110981 0.00202119 0)
(-0.00328552 0.00592165 0)
(-0.00787471 0.0105524 0)
(-0.00848791 0.0194636 0)
(-0.00903516 0.018837 0)
(-0.0121907 0.014627 0)
(-0.0141154 0.0106747 0)
(-0.0134977 0.0183841 0)
(0.000837948 -0.00531259 0)
(-0.00440376 0.00245852 0)
(-0.00638983 -0.00234171 0)
(-0.00609424 -0.00639903 0)
(-0.00766235 -0.00799118 0)
(-0.0114897 -0.00804412 0)
(-0.0151532 -0.0115055 0)
(-0.0184638 -0.0112455 0)
(-0.0201376 -0.00935264 0)
(-0.0209316 -0.0073913 0)
(-0.0215956 -0.00582916 0)
(-0.02182 -0.00595849 0)
(-0.0198401 -0.00767609 0)
(-0.0159757 -0.0053623 0)
(-0.0130553 -0.00108584 0)
(-0.0119385 0.00488464 0)
(-0.0123658 0.0112064 0)
(-0.0142462 0.0138971 0)
(-0.0153096 0.0184982 0)
(-0.0152249 0.0200387 0)
(-0.0158404 0.0171763 0)
(-0.0175815 0.0129015 0)
(-0.018065 0.0153061 0)
(-0.00168198 0.00454883 0)
(-0.00333291 0.00629795 0)
(-0.00413057 0.0033088 0)
(-0.00678767 -7.29537e-05 0)
(-0.00952804 -0.00379089 0)
(-0.0122141 -0.00541437 0)
(-0.0150288 -0.00748138 0)
(-0.0180182 -0.00791908 0)
(-0.0200777 -0.00734659 0)
(-0.0211282 -0.00613977 0)
(-0.0214629 -0.00509917 0)
(-0.0213852 -0.00600019 0)
(-0.0214392 -0.00878043 0)
(-0.0215041 -0.00702748 0)
(-0.021423 -0.00222978 0)
(-0.0210355 0.00386896 0)
(-0.0200673 0.0104832 0)
(-0.0194656 0.014733 0)
(-0.0189212 0.0180632 0)
(-0.0177712 0.0192854 0)
(-0.0169966 0.0174085 0)
(-0.0173311 0.014153 0)
(-0.0172933 0.0126989 0)
(-0.00117576 0.00224326 0)
(-0.00234755 0.00552928 0)
(-0.00378487 0.00361331 0)
(-0.0060034 0.0012556 0)
(-0.00857424 -0.00129302 0)
(-0.0111888 -0.00313403 0)
(-0.013717 -0.00471367 0)
(-0.0162333 -0.00545411 0)
(-0.0181259 -0.00580338 0)
(-0.0192049 -0.00542439 0)
(-0.0196704 -0.00499151 0)
(-0.0201287 -0.00575573 0)
(-0.0215522 -0.00736204 0)
(-0.0235317 -0.0059308 0)
(-0.0246989 -0.00181099 0)
(-0.0246876 0.00315036 0)
(-0.0236523 0.0088761 0)
(-0.0222106 0.0136558 0)
(-0.0206622 0.0167193 0)
(-0.0189589 0.0177572 0)
(-0.0176647 0.0165848 0)
(-0.0171994 0.014068 0)
(-0.0167053 0.0113828 0)
(-0.00162391 0.00613177 0)
(-0.00264729 0.00711317 0)
(-0.00377556 0.00578089 0)
(-0.00544264 0.00376232 0)
(-0.00751992 0.00129126 0)
(-0.00975408 -0.000800557 0)
(-0.0119514 -0.00236251 0)
(-0.0140484 -0.0033949 0)
(-0.0157566 -0.00434552 0)
(-0.017029 -0.00448787 0)
(-0.0180483 -0.0042861 0)
(-0.0192153 -0.00461346 0)
(-0.0210462 -0.00512877 0)
(-0.0231532 -0.00399912 0)
(-0.0244628 -0.00112255 0)
(-0.0246806 0.00281084 0)
(-0.0239622 0.00757318 0)
(-0.0225282 0.0119937 0)
(-0.0207193 0.0148924 0)
(-0.0188303 0.0160217 0)
(-0.0172414 0.0153768 0)
(-0.0161962 0.01333 0)
(-0.0152637 0.0101023 0)
(-0.00144732 0.00791313 0)
(-0.00239873 0.00814378 0)
(-0.00347741 0.00704875 0)
(-0.0047822 0.0053389 0)
(-0.00641125 0.0032308 0)
(-0.00827395 0.00122848 0)
(-0.010163 -0.000349936 0)
(-0.0119253 -0.00161909 0)
(-0.013514 -0.00282788 0)
(-0.0149969 -0.00315315 0)
(-0.0164214 -0.00295353 0)
(-0.0179417 -0.00301068 0)
(-0.0198021 -0.00303713 0)
(-0.0217326 -0.00223102 0)
(-0.0229633 -0.000423887 0)
(-0.023189 0.00261367 0)
(-0.0225646 0.006567 0)
(-0.0212828 0.0103792 0)
(-0.0195782 0.0130229 0)
(-0.0176934 0.0141769 0)
(-0.0158846 0.0138235 0)
(-0.0143128 0.0120774 0)
(-0.0128955 0.00877337 0)
(-0.00109984 0.00958669 0)
(-0.00199985 0.00921405 0)
(-0.00302618 0.00812692 0)
(-0.00412637 0.00662 0)
(-0.00545599 0.004801 0)
(-0.00699637 0.00296135 0)
(-0.00857303 0.00134175 0)
(-0.0100554 -7.34559e-05 0)
(-0.0115589 -0.00125502 0)
(-0.0131754 -0.00155133 0)
(-0.0147596 -0.001384 0)
(-0.0163186 -0.00133346 0)
(-0.0180035 -0.00119029 0)
(-0.0196553 -0.000666232 0)
(-0.0208093 0.000280952 0)
(-0.0211643 0.0024661 0)
(-0.0206711 0.00565237 0)
(-0.0195109 0.00893654 0)
(-0.0179514 0.0112673 0)
(-0.0161412 0.0122839 0)
(-0.0142306 0.0119884 0)
(-0.0123629 0.0104097 0)
(-0.0106901 0.00741779 0)
(-0.000774728 0.0108955 0)
(-0.00158134 0.010226 0)
(-0.00253006 0.00911133 0)
(-0.00350007 0.00773096 0)
(-0.00463027 0.00610772 0)
(-0.00591591 0.00440716 0)
(-0.00722889 0.00274953 0)
(-0.00852631 0.00130819 0)
(-0.00997202 0.00032503 0)
(-0.0115708 0.00010783 0)
(-0.0131006 0.000153928 0)
(-0.0145254 0.000199868 0)
(-0.0159294 0.000344646 0)
(-0.0172599 0.000659733 0)
(-0.018367 0.00111042 0)
(-0.0189422 0.0025229 0)
(-0.0187072 0.00488663 0)
(-0.017755 0.00764608 0)
(-0.0163447 0.00964082 0)
(-0.0146453 0.01043 0)
(-0.0127983 0.0100783 0)
(-0.0109709 0.00861617 0)
(-0.00937534 0.00605875 0)
(-0.000523186 0.0118616 0)
(-0.00119829 0.0111196 0)
(-0.00204302 0.0100021 0)
(-0.0028995 0.00870813 0)
(-0.00387228 0.00722303 0)
(-0.00496621 0.00562923 0)
(-0.00610368 0.00395933 0)
(-0.00731428 0.00261612 0)
(-0.00870967 0.00184969 0)
(-0.0101802 0.00163676 0)
(-0.0115436 0.00154263 0)
(-0.0127844 0.00150919 0)
(-0.0139329 0.00156764 0)
(-0.0149794 0.00173433 0)
(-0.0159307 0.00201003 0)
(-0.0166028 0.00283027 0)
(-0.0166933 0.00444857 0)
(-0.0160769 0.00657352 0)
(-0.0148694 0.00815797 0)
(-0.0133276 0.00871431 0)
(-0.011668 0.00831347 0)
(-0.0100757 0.00700456 0)
(-0.00877054 0.00488672 0)
(-0.000335756 0.0125489 0)
(-0.000867385 0.0118673 0)
(-0.00159044 0.010785 0)
(-0.00233714 0.00956031 0)
(-0.00317379 0.0081833 0)
(-0.0041193 0.00669314 0)
(-0.00517648 0.00508663 0)
(-0.00636362 0.00388976 0)
(-0.00767563 0.00326162 0)
(-0.00897571 0.00296679 0)
(-0.010152 0.00275112 0)
(-0.0112164 0.00261188 0)
(-0.0121779 0.00256006 0)
(-0.0130326 0.00260891 0)
(-0.0137922 0.00279097 0)
(-0.0144084 0.003286 0)
(-0.01467 0.00434399 0)
(-0.0143267 0.00578114 0)
(-0.01338 0.00688297 0)
(-0.0120849 0.00722608 0)
(-0.0106914 0.00681189 0)
(-0.00938771 0.00569184 0)
(-0.00836423 0.0039932 0)
(-0.00021927 0.0130167 0)
(-0.000597443 0.0124611 0)
(-0.00119786 0.0114561 0)
(-0.00184613 0.0103001 0)
(-0.00257538 0.00901843 0)
(-0.00341088 0.00764321 0)
(-0.00441411 0.00619965 0)
(-0.00557441 0.00511989 0)
(-0.00677241 0.00451863 0)
(-0.00789552 0.00411132 0)
(-0.00890826 0.00379149 0)
(-0.00982558 0.00355147 0)
(-0.0106493 0.0033961 0)
(-0.0113776 0.00333897 0)
(-0.0120136 0.00341662 0)
(-0.0125218 0.00372756 0)
(-0.0127609 0.00437655 0)
(-0.0125468 0.00523187 0)
(-0.0118521 0.00588146 0)
(-0.0108492 0.00602419 0)
(-0.00974783 0.00560403 0)
(-0.00872138 0.00465787 0)
(-0.007925 0.00330232 0)
(-0.000119731 0.0133208 0)
(-0.000390815 0.0129167 0)
(-0.000885812 0.0120282 0)
(-0.0014587 0.0109535 0)
(-0.00211666 0.00976497 0)
(-0.00288096 0.00851122 0)
(-0.00380536 0.00726097 0)
(-0.00486637 0.00626619 0)
(-0.00592499 0.00560932 0)
(-0.00689609 0.00510312 0)
(-0.00777803 0.00469319 0)
(-0.00857658 0.00436426 0)
(-0.00929115 0.00411752 0)
(-0.00991841 0.0039645 0)
(-0.0104521 0.00393263 0)
(-0.0108574 0.00407278 0)
(-0.0110404 0.00441172 0)
(-0.010889 0.00484713 0)
(-0.0103853 0.00514323 0)
(-0.0096372 0.00510578 0)
(-0.00879725 0.00466951 0)
(-0.00800635 0.00385519 0)
(-0.00738457 0.00275355 0)
(-2.51583e-05 0.0134938 0)
(-0.000238428 0.0132719 0)
(-0.000660696 0.0125285 0)
(-0.00117792 0.0115451 0)
(-0.00177992 0.0104491 0)
(-0.00248103 0.0093096 0)
(-0.00330339 0.00820727 0)
(-0.00421686 0.00727242 0)
(-0.0051275 0.00655317 0)
(-0.00597283 0.00596961 0)
(-0.00674402 0.00548107 0)
(-0.00744117 0.00507254 0)
(-0.00806177 0.00474262 0)
(-0.0086002 0.00449859 0)
(-0.00904485 0.00435609 0)
(-0.00936516 0.00433545 0)
(-0.00950096 0.00443174 0)
(-0.00938908 0.00456886 0)
(-0.00902263 0.00460611 0)
(-0.00847076 0.00442073 0)
(-0.0078393 0.00395992 0)
(-0.00723405 0.00323454 0)
(-0.00674426 0.00230962 0)
(-3.06273e-06 0.0135823 0)
(-0.000158973 0.013564 0)
(-0.000533706 0.0129713 0)
(-0.000988865 0.0120786 0)
(-0.0015259 0.0110695 0)
(-0.00214895 0.0100261 0)
(-0.00286024 0.00901878 0)
(-0.00363147 0.00812225 0)
(-0.00440292 0.00736695 0)
(-0.00513034 0.00672376 0)
(-0.00579919 0.00616807 0)
(-0.00640392 0.00568817 0)
(-0.00693931 0.00528126 0)
(-0.00739773 0.00495026 0)
(-0.00776609 0.00470129 0)
(-0.00802002 0.00453785 0)
(-0.00812202 0.00444402 0)
(-0.0080383 0.00436473 0)
(-0.00776936 0.00421307 0)
(-0.00736118 0.00391154 0)
(-0.00688623 0.00342254 0)
(-0.00642071 0.002752 0)
(-0.00602929 0.00194493 0)
(2.43253e-06 0.0136445 0)
(-0.000147623 0.0138298 0)
(-0.000481719 0.0133514 0)
(-0.000863223 0.0125429 0)
(-0.00132436 0.0116126 0)
(-0.00185935 0.0106463 0)
(-0.00246024 0.00970309 0)
(-0.00310304 0.00883279 0)
(-0.00374883 0.00805818 0)
(-0.00436588 0.0073714 0)
(-0.0049381 0.00676053 0)
(-0.00545639 0.00621803 0)
(-0.00591316 0.00574089 0)
(-0.00629956 0.0053289 0)
(-0.00660311 0.00498216 0)
(-0.00680546 0.00469622 0)
(-0.00688361 0.00445311 0)
(-0.00682034 0.00421336 0)
(-0.00661994 0.00392196 0)
(-0.00631413 0.00352983 0)
(-0.00595257 0.00301173 0)
(-0.00558904 0.00237135 0)
(-0.00526964 0.00163949 0)
(-2.17482e-05 0.0137165 0)
(-0.000162187 0.0140802 0)
(-0.000449472 0.0136684 0)
(-0.000764979 0.0129335 0)
(-0.00115068 0.0120721 0)
(-0.00159751 0.0111677 0)
(-0.00209486 0.0102716 0)
(-0.00262368 0.00942149 0)
(-0.00315756 0.00863672 0)
(-0.00367318 0.00791889 0)
(-0.00415517 0.00726396 0)
(-0.00459289 0.00666799 0)
(-0.00497742 0.00612845 0)
(-0.00529946 0.00564351 0)
(-0.00554792 0.00521021 0)
(-0.00570931 0.00482119 0)
(-0.00576958 0.00446014 0)
(-0.00572045 0.00409894 0)
(-0.00556751 0.0037021 0)
(-0.00533323 0.00323842 0)
(-0.0050519 0.00269151 0)
(-0.00476109 0.0020641 0)
(-0.00449341 0.00137731 0)
(-8.79355e-05 0.0138199 0)
(-0.00017997 0.0142898 0)
(-0.000410896 0.0139312 0)
(-0.000673834 0.0132568 0)
(-0.000990459 0.0124518 0)
(-0.00135475 0.0115962 0)
(-0.00175807 0.0107363 0)
(-0.00218639 0.00990308 0)
(-0.00262132 0.00911381 0)
(-0.00304533 0.00837431 0)
(-0.00344468 0.00768495 0)
(-0.00380856 0.0070444 0)
(-0.00412759 0.00645092 0)
(-0.00439264 0.00590221 0)
(-0.00459412 0.00539428 0)
(-0.00472203 0.00491953 0)
(-0.00476767 0.00446457 0)
(-0.00472733 0.00400954 0)
(-0.00460654 0.00353124 0)
(-0.00442144 0.0030098 0)
(-0.00419584 0.00243488 0)
(-0.00395596 0.00180872 0)
(-0.00372475 0.00114601 0)
(-0.000129998 0.0139607 0)
(-0.000194817 0.0144429 0)
(-0.000371198 0.0141483 0)
(-0.000586988 0.0135203 0)
(-0.000839052 0.012758 0)
(-0.0011268 0.01194 0)
(-0.00144534 0.0111087 0)
(-0.0017851 0.0102905 0)
(-0.00213302 0.00950073 0)
(-0.0024756 0.00874676 0)
(-0.00280087 0.00803119 0)
(-0.00309849 0.00735437 0)
(-0.00335922 0.00671541 0)
(-0.00357441 0.0061123 0)
(-0.00373577 0.00554124 0)
(-0.0038357 0.00499565 0)
(-0.00386853 0.00446526 0)
(-0.00383275 0.00393625 0)
(-0.00373313 0.00339343 0)
(-0.00358131 0.00282419 0)
(-0.00339393 0.00222219 0)
(-0.00318926 0.00158945 0)
(-0.00298348 0.000936337 0)
(-0.000157316 0.014125 0)
(-0.000200627 0.0145585 0)
(-0.000346833 0.0143217 0)
(-0.000508057 0.0137256 0)
(-0.000695027 0.0129943 0)
(-0.000910439 0.0122059 0)
(-0.00115228 0.0113987 0)
(-0.00141405 0.0105951 0)
(-0.00168609 0.00980839 0)
(-0.00195754 0.00904588 0)
(-0.00221789 0.00831115 0)
(-0.00245747 0.0076056 0)
(-0.00266744 0.00692918 0)
(-0.00283974 0.00628054 0)
(-0.00296711 0.00565674 0)
(-0.00304347 0.00505276 0)
(-0.00306486 0.0044612 0)
(-0.00303061 0.00387272 0)
(-0.00294455 0.00327751 0)
(-0.00281501 0.0026677 0)
(-0.00265366 0.00203963 0)
(-0.00247328 0.00139517 0)
(-0.00228526 0.000741799 0)
(-0.000147226 0.0142927 0)
(-0.000203941 0.0146717 0)
(-0.00033239 0.0144482 0)
(-0.000431315 0.0138694 0)
(-0.000552737 0.0131623 0)
(-0.000700169 0.0123998 0)
(-0.000873223 0.0116154 0)
(-0.00106716 0.0108276 0)
(-0.00127413 0.0100475 0)
(-0.00148488 0.00928158 0)
(-0.00168988 0.00853382 0)
(-0.00188007 0.00780624 0)
(-0.00204709 0.00709957 0)
(-0.00218339 0.00641336 0)
(-0.00228249 0.00574582 0)
(-0.00233928 0.00509363 0)
(-0.00235064 0.00445192 0)
(-0.00231616 0.00381471 0)
(-0.00223867 0.00317593 0)
(-0.0021241 0.00253091 0)
(-0.00198065 0.00187779 0)
(-0.00181727 0.00121835 0)
(-0.00164202 0.000558134 0)
(-0.000128254 0.0144535 0)
(-0.000207301 0.0147927 0)
(-0.000305884 0.0145247 0)
(-0.000342126 0.0139508 0)
(-0.000401683 0.0132649 0)
(-0.000487894 0.0125284 0)
(-0.000601316 0.0117681 0)
(-0.000737988 0.0109986 0)
(-0.000890917 0.0102287 0)
(-0.0010516 0.00946404 0)
(-0.00121114 0.00870855 0)
(-0.0013609 0.00796471 0)
(-0.00149291 0.00723404 0)
(-0.00160009 0.00651707 0)
(-0.00167649 0.00581328 0)
(-0.00171759 0.00512103 0)
(-0.00172072 0.00443765 0)
(-0.00168539 0.00375973 0)
(-0.00161356 0.0030839 0)
(-0.00150941 0.00240772 0)
(-0.00137872 0.00173059 0)
(-0.00122781 0.00105423 0)
(-0.00106241 0.000382877 0)
(-0.00016756 0.0146179 0)
(-0.000200155 0.0148921 0)
(-0.000244287 0.0145471 0)
(-0.0002247 0.0139731 0)
(-0.000230537 0.0133092 0)
(-0.000265181 0.0126008 0)
(-0.000329746 0.0118674 0)
(-0.000420538 0.0111192 0)
(-0.000530803 0.0103631 0)
(-0.000652313 0.00960374 0)
(-0.000776447 0.00884491 0)
(-0.000894854 0.00808959 0)
(-0.000999857 0.00734005 0)
(-0.00108473 0.00659788 0)
(-0.00114394 0.00586387 0)
(-0.00117334 0.00513797 0)
(-0.00117045 0.00441937 0)
(-0.00113464 0.00370673 0)
(-0.00106716 0.00299872 0)
(-0.000970952 0.0022945 0)
(-0.000850101 0.00159437 0)
(-0.000709132 0.000900079 0)
(-0.000552182 0.000214934 0)
(-0.000161233 0.0147796 0)
(-0.000145056 0.0149351 0)
(-0.000129439 0.0145186 0)
(-6.79622e-05 0.0139458 0)
(-3.15167e-05 0.0133061 0)
(-2.59361e-05 0.0126285 0)
(-5.33397e-05 0.0119248 0)
(-0.0001101 0.0112012 0)
(-0.000189293 0.010462 0)
(-0.000282585 0.00971125 0)
(-0.00038137 0.00895256 0)
(-0.000477429 0.00818944 0)
(-0.000563314 0.00742502 0)
(-0.000632598 0.00666197 0)
(-0.000680052 0.00590238 0)
(-0.000701813 0.00514769 0)
(-0.000695516 0.00439871 0)
(-0.000660373 0.00365582 0)
(-0.000597133 0.00291924 0)
(-0.000507859 0.0021894 0)
(-0.000395514 0.00146727 0)
(-0.000263414 0.000754652 0)
(-0.000114623 5.42147e-05 0)
(-8.64784e-05 0.0148844 0)
(-3.43087e-05 0.0149156 0)
(2.70965e-05 0.0144508 0)
(0.000125228 0.0138804 0)
(0.000195971 0.0132665 0)
(0.000231919 0.0126229 0)
(0.000230516 0.0119524 0)
(0.000196136 0.0112563 0)
(0.000136576 0.0105368 0)
(6.0757e-05 0.00979708 0)
(-2.24693e-05 0.00904099 0)
(-0.000104896 0.00827266 0)
(-0.000179258 0.00749618 0)
(-0.0002394 0.00671536 0)
(-0.000280383 0.00593356 0)
(-0.000298581 0.00515361 0)
(-0.000291735 0.00437779 0)
(-0.000258968 0.00360789 0)
(-0.000200695 0.00284544 0)
(-0.000118409 0.00209186 0)
(-1.43423e-05 0.00134868 0)
(0.000108968 0.000617764 0)
(0.000249151 -9.86702e-05 0)
(-4.67139e-05 0.0148976 0)
(9.85875e-05 0.0148364 0)
(0.000207125 0.0143421 0)
(0.000344394 0.0137796 0)
(0.00044842 0.0131972 0)
(0.00050787 0.0125936 0)
(0.00052234 0.0119611 0)
(0.000499112 0.011296 0)
(0.00044812 0.0105984 0)
(0.000379488 0.00987137 0)
(0.000302568 0.00911929 0)
(0.000225617 0.00834723 0)
(0.000155705 0.00756039 0)
(9.86897e-05 0.00676378 0)
(5.91987e-05 0.00596203 0)
(4.06091e-05 0.00515925 0)
(4.50398e-05 0.00435904 0)
(7.33842e-05 0.00356444 0)
(0.000125413 0.00277808 0)
(0.000199972 0.0020022 0)
(0.000295266 0.00123884 0)
(0.000409223 0.000489919 0)
(0.000539887 -0.000242671 0)
(1.22293e-05 0.0148163 0)
(0.000230025 0.0146944 0)
(0.000403136 0.0141813 0)
(0.000586882 0.0136389 0)
(0.000724753 0.0131011 0)
(0.000801388 0.0125487 0)
(0.000821442 0.0119616 0)
(0.00079812 0.0113313 0)
(0.00074501 0.0106573 0)
(0.000673973 0.00994362 0)
(0.000594944 0.00919585 0)
(0.000516164 0.00842046 0)
(0.000444406 0.00762393 0)
(0.000385143 0.00681253 0)
(0.000342635 0.00599212 0)
(0.000319967 0.00516802 0)
(0.000319078 0.00434502 0)
(0.00034081 0.00352728 0)
(0.000385008 0.00271837 0)
(0.000450687 0.0019213 0)
(0.000536285 0.00113852 0)
(0.000639958 0.000372041 0)
(0.000759951 -0.000376501 0)
(9.40746e-05 0.0146365 0)
(0.000362258 0.0144827 0)
(0.000615313 0.0139596 0)
(0.000854635 0.0134517 0)
(0.0010267 0.0129809 0)
(0.00111213 0.0124974 0)
(0.00112568 0.0119652 0)
(0.00109051 0.0113733 0)
(0.00102513 0.0107235 0)
(0.000943162 0.0100224 0)
(0.000854849 0.00927807 0)
(0.000768133 0.00849869 0)
(0.000689283 0.00769223 0)
(0.000623252 0.00686623 0)
(0.000573852 0.0060277 0)
(0.000543832 0.0051831 0)
(0.000534918 0.00433826 0)
(0.000547862 0.00349835 0)
(0.000582514 0.00266781 0)
(0.000637961 0.00185032 0)
(0.000712722 0.00104876 0)
(0.000805016 0.000265259 0)
(0.000913114 -0.000498795 0)
(0.000144265 0.0143633 0)
(0.000514674 0.014185 0)
(0.000853293 0.0136642 0)
(0.00115568 0.0132103 0)
(0.00135729 0.0128422 0)
(0.00143779 0.0124526 0)
(0.00142979 0.011985 0)
(0.00137084 0.011433 0)
(0.00128434 0.0108057 0)
(0.0011847 0.0101149 0)
(0.00108171 0.00937189 0)
(0.000982531 0.00858697 0)
(0.000892661 0.00776966 0)
(0.000816381 0.00692867 0)
(0.000756988 0.00607208 0)
(0.000716868 0.0052073 0)
(0.000697531 0.00434112 0)
(0.000699634 0.0034796 0)
(0.000723025 0.00262797 0)
(0.000766821 0.00179057 0)
(0.000829543 0.000970738 0)
(0.000909342 0.000170749 0)
(0.00100436 -0.000608221 0)
(0.000262877 0.0139763 0)
(0.000727148 0.0137914 0)
(0.00115823 0.0132873 0)
(0.00150635 0.0129222 0)
(0.00171315 0.0126975 0)
(0.00176848 0.0124321 0)