/*--------------------------------*- C++ -*----------------------------------*\
  =========                 |
  \\      /  F ield         | OpenFOAM: The Open Source CFD Toolbox
   \\    /   O peration     | Website:  https://openfoam.org
    \\  /    A nd           | Version:  9
     \\/     M anipulation  |
\*---------------------------------------------------------------------------*/
FoamFile
{
    format      ascii;
    class       volScalarField;
    location    "4.38";
    object      alpha.water;
}
// * * * * * * * * * * * * * * * * * * * * * * * * * * * * * * * * * * * * * //

dimensions      [0 0 0 0 0 0 0];

internalField   nonuniform List<scalar> 
2268
(
1
1
0.999999
0.999999
0.999999
0.999999
1
0.999999
0.999998
0.999999
1
1
1
1
1
1
1
0.999538
0.999445
0.997405
0.996124
0.995558
0.995461
0.999999
0.999999
0.999998
0.999998
1
0.999999
0.999998
0.999998
0.999998
0.999999
1
1
1
1
1
1
0.999939
0.997549
0.987242
0.997905
0.999983
0.999995
0.998782
0.999998
0.999998
0.999998
0.999999
1
0.999999
1
0.999999
1
1
1
1
1
1
1
1
0.998108
0.982475
0.979799
0.982961
0.996207
0.999995
0.999995
0.999999
0.999999
0.999999
1
1
1
1
1
1
1
1
1
1
1
1
1
0.999271
0.979799
0.979799
0.979799
0.99008
0.999993
0.999968
1
1
1
1
1
1
1
1
1
1
1
1
1
1
1
1
1
0.990967
0.979799
0.979804
0.996502
0.999995
0.999954
1
1
1
1
1
1
1
1
1
1
1
1
1
1
1
1
1
0.999946
0.991454
0.994239
0.999796
0.999996
0.999954
1
1
1
1
1
1
1
1
1
1
1
1
1
1
1
1
0.999999
0.999999
0.999999
0.999997
0.999998
0.999997
0.999986
1
1
1
1
1
1
1
1
1
1
1
1
1
1
1
0.999999
0.999999
0.999999
0.999999
0.999999
0.999999
0.999998
0.999998
0.989784
0.990333
0.99116
0.990658
0.990658
0.990658
0.990658
0.991861
0.998535
0.99864
0.997201
0.99573
0.965509
0.965482
0.987395
0.996986
0.998456
0.986676
0.964893
0.989785
0.999455
0.999958
0.999558
0.999635
0.999021
0.998118
0.998661
0.998839
0.99864
0.995617
0.980879
0.960579
0.969598
0.998458
0.998457
0.998457
0.997241
0.96487
0.995964
0.999814
0.999958
0.999949
0.999868
0.999888
0.999887
0.999401
0.998106
0.996944
0.976654
0.960521
0.960545
0.986933
0.998457
0.998457
0.998457
0.993917
0.961771
0.999816
0.999816
0.99994
0.999958
0.999931
0.999963
0.999544
0.997035
0.996999
0.995043
0.962163
0.96052
0.96052
0.996386
0.998457
0.998457
0.998457
0.993672
0.961677
0.999741
0.999741
0.999911
0.999965
0.999965
0.999965
0.998997
0.996664
0.997345
0.99747
0.97511
0.960521
0.966626
0.998458
0.998457
0.998457
0.998457
0.998414
0.961676
0.999784
0.999951
0.99997
0.999964
0.999927
0.999916
0.999573
0.998919
0.999137
0.999085
0.994936
0.985402
0.995627
0.998458
0.998458
0.998406
0.992747
0.986108
0.961677
0.999963
0.999974
0.999979
0.999933
0.999763
0.999763
0.999924
0.999976
0.999906
0.998961
0.998031
0.998302
0.998458
0.998458
0.998458
0.998372
0.975409
0.959234
0.970271
0.999984
0.999984
0.999983
0.999983
0.999983
0.999982
0.999982
0.999982
0.998456
0.993382
0.993481
0.997962
0.998458
0.998458
0.998458
0.998456
0.975379
0.958222
0.983999
1
1
1
1
1
1
1
1
1
1
1
1
1
1
1
1
1
1
1
1
1
1
1
0.959143
0.959041
0.961201
0.963632
0.966468
0.969651
0.973224
0.977339
0.982201
0.987672
0.993713
0.996814
0.999668
1
1
1
1
1
1
1
1
1
1
0.288056
0.292724
0.298157
0.305304
0.313429
0.322676
0.332794
0.342902
0.35324
0.363606
0.374097
0.3853
0.396012
0.409674
0.422906
0.436738
0.452058
0.464959
0.474427
0.479045
0.479483
0.481058
0.485656
0.00182098
0.00182092
0.00182092
0.00182092
0.00182092
0.00182215
0.00182502
0.00182766
0.00183317
0.00184074
0.00184591
0.00272355
0.0042193
0.00460751
0.00515188
0.00485656
0.00391713
0.00337088
0.00377711
0.00509556
0.0062044
0.00608764
0.00488591
0.00187221
0.00187125
0.00182092
0.00182092
0.00257468
0.00326336
0.00328423
0.00550173
0.00636585
0.00636784
0.00636836
0.00636784
0.00610663
0.00646413
0.00646374
0.00553754
0.00233559
0.00233602
0.00233532
0.00252151
0.00411459
0.00366136
0.00136093
0.00173968
0.00184243
0.0018421
0.00182749
0.00197566
0.00213599
0.00259687
0.00196367
0.00220873
0.00268422
0.00325346
0.00361213
0.00371078
0.00375799
0.00355805
0.00376543
0.00333186
0.00317259
0.00309108
0.00198296
0.00163541
0.00177093
0.000305322
0.000838802
0.00077957
0.000924815
0.000889091
0.000617815
0.00031486
0.000173311
0.00014091
2.27026e-09
2.54539e-09
2.82528e-09
2.82178e-09
2.84109e-09
3.29747e-09
8.15308e-05
0.000399618
0.000580156
0.000549858
0.000521617
0.00042809
0.000238301
0.000309533
0.000305324
3.35505e-07
2.20035e-09
2.20035e-09
7.2701e-05
2.74563e-05
2.22566e-05
2.17691e-05
1.22214e-09
2.26955e-09
1.18088e-08
1.18962e-08
3.28368e-08
7.82481e-07
2.20487e-06
8.54911e-07
1.86068e-07
4.89312e-05
0.000260781
0.000365589
0.000313844
0.000227615
0.000226907
0.000431283
1.41758e-09
1.11294e-08
1.80327e-08
5.4194e-10
5.41088e-10
5.41089e-10
5.41088e-10
1.21243e-09
4.28949e-08
1.22217e-08
1.44662e-08
1.80123e-06
4.79934e-06
4.73742e-06
5.6579e-07
9.03345e-08
3.62853e-06
6.12731e-05
0.000216317
0.000313228
0.000231949
0.000217342
0.000384634
1.41758e-09
1.4431e-07
1.85458e-07
5.17762e-08
9.63605e-10
5.41088e-10
5.41089e-10
1.02955e-09
5.82774e-09
2.1589e-07
1.21705e-06
2.3198e-06
3.3227e-06
2.24503e-06
2.48051e-07
8.99197e-08
3.62991e-07
2.94386e-08
4.74498e-06
3.43265e-05
5.78849e-05
2.50583e-05
2.0033e-05
1.41759e-09
1.47699e-07
1.84436e-07
4.24335e-08
5.41347e-10
5.41089e-10
5.41347e-10
4.00188e-08
1.36898e-06
2.28914e-06
2.28918e-06
1.30429e-06
4.52439e-09
1.43159e-08
9.04684e-09
5.97083e-09
1.12749e-10
3.27188e-09
4.52465e-08
1.42051e-07
1.72809e-07
1.59301e-07
1.13336e-07
1.92361e-09
7.69739e-09
2.1387e-08
6.96431e-09
1.39763e-09
6.48636e-10
9.7347e-10
4.42687e-07
2.28827e-06
2.28918e-06
1.53524e-06
1.4219e-08
4.50655e-09
4.48163e-09
2.68097e-10
7.92053e-11
9.05527e-11
1.14559e-10
1.25709e-06
4.96413e-06
5.9804e-06
5.27802e-06
1.35046e-06
1.46123e-09
2.13108e-10
4.74418e-11
4.59817e-11
1.17165e-09
3.66552e-09
8.20767e-09
3.1279e-07
6.49766e-07
4.31102e-07
5.71414e-08
6.35466e-10
6.62116e-09
4.0499e-09
7.92053e-11
7.92053e-11
7.82453e-11
3.60584e-09
3.62264e-06
6.71591e-06
6.71592e-06
6.71591e-06
5.0851e-06
5.33205e-08
1.38672e-07
1.86482e-08
4.43026e-11
1.00235e-09
5.49149e-09
1.41418e-08
1.5771e-08
1.23496e-09
1.76232e-10
7.27027e-11
6.368e-10
1.84481e-09
6.64276e-10
9.04521e-11
9.77935e-11
7.24652e-11
7.46146e-10
2.66638e-07
3.29478e-06
6.71592e-06
6.58061e-06
8.32565e-07
1.31115e-07
2.74956e-07
3.88988e-08
4.25549e-11
1.16705e-09
2.46287e-09
2.48693e-09
8.88681e-10
3.65634e-10
7.81324e-11
2.45646e-11
4.27756e-11
3.11915e-11
2.89796e-11
5.55712e-11
6.4348e-11
6.04084e-11
7.21152e-11
1.49782e-10
3.60221e-08
3.5465e-07
3.22365e-07
1.4417e-08
1.67706e-07
2.75114e-07
5.13658e-08
4.16565e-11
6.05663e-10
7.55603e-10
4.67098e-10
2.15273e-10
1.01346e-10
2.33171e-11
4.04913e-12
5.36544e-13
1.62723e-13
1.58848e-12
1.09003e-11
2.63034e-11
5.40936e-11
7.77524e-11
8.14746e-11
9.60592e-11
9.42797e-11
7.06559e-11
9.28003e-10
1.7998e-07
2.75235e-07
4.87468e-08
4.13643e-11
2.10226e-10
2.16218e-10
7.73606e-11
2.73414e-11
7.8638e-12
1.40212e-12
0
-8.3583e-13
-8.49482e-13
-3.71396e-13
2.57853e-13
4.96337e-12
3.13942e-11
7.39015e-11
9.90543e-11
1.0108e-10
8.9878e-11
6.17762e-11
3.13658e-11
2.45697e-07
2.75422e-07
7.675e-08
4.12952e-11
5.34002e-11
5.29435e-11
9.56803e-12
8.62931e-13
-8.07794e-31
-9.1592e-13
-1.61145e-12
-1.97098e-12
-1.88771e-12
-1.51698e-12
-8.87062e-13
4.19501e-14
2.69084e-12
1.66077e-11
3.68434e-11
4.87802e-11
5.01038e-11
4.48476e-11
2.27077e-11
2.78187e-07
2.78187e-07
9.24625e-08
4.12357e-11
4.11987e-11
3.46921e-11
1.63613e-12
-2.05616e-13
-1.0395e-12
-1.72171e-12
-2.1054e-12
-2.25243e-12
-2.16331e-12
-1.91353e-12
-1.55093e-12
-1.09403e-12
-4.99751e-13
1.49895e-13
1.11634e-12
3.4252e-12
5.76758e-12
6.99437e-12
5.95866e-12
2.50844e-07
2.78043e-07
6.22069e-08
4.12952e-11
7.23149e-11
4.1958e-11
1.83675e-12
-2.90618e-13
-9.29026e-13
-1.44481e-12
-1.71668e-12
-1.82378e-12
-1.78573e-12
-1.63764e-12
-1.41688e-12
-1.15882e-12
-8.91282e-13
-6.28052e-13
-3.80056e-13
-8.79344e-14
1.90847e-14
6.05429e-14
1.67984e-13
9.52378e-08
2.40785e-07
5.57595e-10
4.1431e-11
2.18915e-10
5.98823e-11
4.08455e-12
4.97108e-13
-2.02351e-13
-6.26293e-13
-8.81868e-13
-1.04529e-12
-1.11388e-12
-1.08625e-12
-9.83646e-13
-8.4039e-13
-6.86287e-13
-5.38281e-13
-4.07033e-13
-2.93538e-13
-2.00552e-13
-1.27098e-13
-6.49431e-14
2.73302e-09
3.83461e-08
2.22393e-10
2.56894e-10
3.20705e-10
9.84426e-11
1.09425e-11
5.11494e-12
2.62296e-12
7.55794e-13
-4.74793e-14
-3.1633e-13
-4.74777e-13
-5.4853e-13
-5.50703e-13
-5.01878e-13
-4.26909e-13
-3.448e-13
-2.68613e-13
-2.04119e-13
-1.51642e-13
-1.08625e-13
-7.21468e-14
8.149e-11
5.38279e-11
2.22457e-10
3.55925e-10
3.27547e-10
9.96121e-11
2.36486e-11
1.61056e-11
1.1199e-11
6.00458e-12
2.35223e-12
5.07472e-13
-4.88084e-14
-1.86767e-13
-2.43741e-13
-2.50943e-13
-2.27975e-13
-1.90185e-13
-1.50237e-13
-1.14811e-13
-8.62139e-14
-6.38704e-14
-4.54418e-14
8.16888e-11
5.28739e-11
1.9441e-10
3.38043e-10
2.71253e-10
8.27712e-11
3.80602e-11
3.07662e-11
2.38184e-11
1.54532e-11
7.57016e-12
2.64914e-12
5.39017e-13
-4.09292e-15
-8.06384e-14
-1.05149e-13
-1.06512e-13
-9.28877e-14
-7.43648e-14
-5.65832e-14
-4.19437e-14
-3.08649e-14
-2.24937e-14
9.36856e-11
5.28608e-11
8.53784e-11
1.66641e-10
1.41397e-10
6.22928e-11
4.9196e-11
4.41246e-11
3.57512e-11
2.58973e-11
1.45544e-11
5.86304e-12
1.44994e-12
1.58947e-13
-1.74351e-14
-3.76357e-14
-4.49934e-14
-4.1314e-14
-3.3431e-14
-2.51228e-14
-1.81011e-14
-1.28796e-14
-9.29244e-15
2.72572e-10
5.27694e-11
5.27696e-11
5.27705e-11
5.41235e-11
5.3819e-11
5.37599e-11
5.36741e-11
4.5077e-11
3.45425e-11
2.11986e-11
9.03114e-12
2.16795e-12
2.13081e-13
-2.2555e-15
-1.2684e-14
-1.79307e-14
-1.71852e-14
-1.39399e-14
-1.02782e-14
-7.1515e-15
-4.82766e-15
-3.30891e-15
1.63383e-09
5.27696e-11
5.27696e-11
5.27697e-11
5.27695e-11
5.27681e-11
5.36813e-11
5.6569e-11
5.14873e-11
4.01255e-11
2.51336e-11
1.02917e-11
2.16354e-12
1.60942e-13
-1.87974e-16
-4.50739e-15
-6.89881e-15
-6.76297e-15
-5.49132e-15
-3.97075e-15
-2.65525e-15
-1.68746e-15
-1.06065e-15
3.2999e-09
1.2468e-07
6.52942e-07
4.57966e-07
1.38506e-08
5.26234e-11
5.26211e-11
5.65699e-11
5.31849e-11
4.17525e-11
2.58013e-11
9.83996e-12
1.61626e-12
7.04278e-14
-5.97551e-17
-1.74974e-15
-2.6319e-15
-2.57072e-15
-2.04978e-15
-1.43761e-15
-9.21565e-16
-5.53136e-16
-3.17705e-16
3.49713e-09
2.80201e-07
8.41541e-07
8.41564e-07
2.04765e-07
5.26211e-11
5.26179e-11
5.62918e-11
5.21592e-11
4.06681e-11
2.37921e-11
7.70368e-12
8.82062e-13
2.12188e-14
-1.61408e-17
-6.69355e-16
-9.75529e-16
-9.31056e-16
-7.22053e-16
-4.90596e-16
-3.02976e-16
-1.74071e-16
-9.47219e-17
3.4509e-09
2.16342e-07
8.41564e-07
8.41564e-07
2.79298e-07
5.53635e-11
5.26163e-11
5.44709e-11
4.88473e-11
3.61546e-11
1.87014e-11
4.67603e-12
3.37175e-13
3.9586e-15
-2.03429e-18
-2.67995e-16
-3.59157e-16
-3.25664e-16
-2.42557e-16
-1.58315e-16
-9.36598e-17
-5.1321e-17
-2.64361e-17
3.4509e-09
5.21842e-08
8.07072e-07
7.20627e-07
1.43695e-07
1.67131e-10
5.17716e-11
5.11321e-11
4.2904e-11
2.88052e-11
1.2166e-11
2.05859e-12
7.95675e-14
3.66662e-16
-1.88802e-17
-1.13654e-16
-1.30296e-16
-1.09845e-16
-7.73871e-17
-4.79562e-17
-2.68964e-17
-1.39116e-17
-6.72828e-18
3.4509e-09
3.79686e-09
1.13916e-07
6.1475e-08
6.64796e-09
1.44695e-10
5.723e-11
4.60695e-11
3.47496e-11
1.98623e-11
6.0187e-12
5.7009e-13
9.58496e-15
1.58405e-17
-2.51346e-17
-4.55376e-17
-4.55189e-17
-3.52839e-17
-2.31746e-17
-1.34391e-17
-7.05092e-18
-3.40341e-18
-1.53071e-18
3.45639e-09
2.88388e-09
8.86825e-10
2.23562e-10
7.57464e-11
7.57196e-11
5.18741e-11
3.76491e-11
2.45938e-11
1.06578e-11
1.90953e-12
7.95756e-14
4.56097e-16
2.01032e-19
-1.28892e-17
-1.71371e-17
-1.50073e-17
-1.0579e-17
-6.39692e-18
-3.42703e-18
-1.66049e-18
-7.38532e-19
-3.05066e-19
3.28812e-09
3.07113e-09
1.18427e-09
4.21912e-10
1.43087e-10
6.17114e-11
3.87795e-11
2.55011e-11
1.32854e-11
3.64349e-12
3.01862e-13
4.32868e-15
6.5261e-18
-1.94457e-18
-5.79716e-18
-5.93372e-18
-4.55841e-18
-2.90064e-18
-1.59679e-18
-7.80462e-19
-3.44656e-19
-1.39311e-19
-5.20954e-20
1.91711e-09
2.27273e-09
1.29861e-09
5.593e-10
1.80399e-10
5.57832e-11
2.55192e-11
1.2839e-11
4.40787e-12
5.96643e-13
1.76816e-14
7.35172e-17
2.67899e-20
-1.61062e-18
-2.23625e-18
-1.86835e-18
-1.25642e-18
-7.14694e-19
-3.53767e-19
-1.55631e-19
-6.17422e-20
-2.23315e-20
-7.43495e-21
3.90055e-10
7.13614e-10
6.96188e-10
3.94978e-10
1.38729e-10
3.77551e-11
1.20642e-11
3.85377e-12
6.79297e-13
3.48655e-14
3.0899e-16
3.3189e-19
-2.75767e-19
-8.02132e-19
-7.8724e-19
-5.39836e-19
-3.11718e-19
-1.56043e-19
-6.83854e-20
-2.66502e-20
-9.33903e-21
-2.96741e-21
-8.62056e-22
1.47755e-11
5.18696e-11
1.07344e-10
9.1261e-11
4.30327e-11
1.19306e-11
2.8174e-12
5.09019e-13
3.78795e-14
6.33685e-16
1.75612e-18
4.75833e-22
-2.39752e-19
-3.361e-19
-2.5842e-19
-1.45033e-19
-6.9649e-20
-2.99412e-20
-1.13756e-20
-3.84822e-21
-1.16617e-21
-3.17985e-22
-7.85461e-23
6.7307e-14
5.33614e-13
2.72279e-12
3.97836e-12
2.83812e-12
1.01285e-12
2.10793e-13
2.2353e-14
7.1269e-16
4.61852e-18
3.60786e-21
-4.94551e-20
-1.26252e-19
-1.27144e-19
-8.03265e-20
-3.69357e-20
-1.41362e-20
-5.05161e-21
-1.61469e-21
-4.60976e-22
-1.17325e-22
-2.65761e-23
-5.38454e-24
7.56824e-17
9.80098e-16
9.01979e-15
2.34334e-14
2.61888e-14
1.45921e-14
3.45668e-15
2.80626e-16
5.63563e-18
1.94468e-20
-3.37278e-21
-3.69082e-20
-5.51454e-20
-4.48105e-20
-2.39873e-20
-9.19709e-21
-2.78247e-21
-7.71595e-22
-1.96901e-22
-4.52817e-23
-9.2347e-24
-1.65014e-24
-2.59298e-25
6.00262e-20
1.84533e-18
1.18957e-17
3.59074e-17
4.69951e-17
3.87058e-17
1.26893e-17
1.2311e-18
2.73419e-20
6.02286e-23
-7.67747e-21
-1.90702e-20
-2.16939e-20
-1.49961e-20
-6.96608e-21
-2.28221e-21
-5.53234e-22
-1.12127e-22
-2.1083e-23
-3.59477e-24
-5.39083e-25
-6.91515e-26
-7.63225e-27
9.85596e-25
2.52228e-21
2.82781e-20
9.40799e-20
1.0576e-19
8.58135e-20
3.20992e-20
3.96747e-21
6.48407e-23
-1.08809e-21
-4.99046e-21
-8.39077e-21
-7.9564e-21
-4.83295e-21
-1.9922e-21
-5.71462e-22
-1.14842e-22
-1.67338e-23
-2.07342e-24
-2.23865e-25
-2.05042e-26
-1.52612e-27
-9.52815e-29
-1.83724e-25
2.94529e-25
3.44876e-23
8.52991e-22
1.61254e-21
3.903e-22
7.2713e-23
6.13307e-24
-1.47902e-22
-9.96745e-22
-2.49849e-21
-3.34748e-21
-2.77283e-21
-1.52026e-21
-5.70905e-22
-1.4833e-22
-2.62614e-23
-3.04657e-24
-2.28419e-25
-1.07742e-26
-3.06276e-28
-6.04966e-30
-9.76954e-32
1
1
1
1
1
1
1
0.998952
0.478325
0.470973
0.463071
0.456139
0.00506765
0.00483017
0.00384785
0.00283876
0.00199306
0.00285413
0.00208395
0.00112743
0.000783301
0.00280108
0.0015808
0.00118878
0.000305317
0.00101618
0.00096741
0.000407324
0.000803492
0.000810752
0.000551748
6.94924e-05
0.000387064
0.000155548
7.37253e-05
7.03477e-06
3.08421e-06
1.06897e-07
1.26801e-06
2.75416e-06
2.40219e-08
3.48333e-08
2.523e-07
3.16249e-07
2.40105e-08
2.40108e-08
2.65254e-08
5.0302e-08
2.40106e-08
2.40102e-08
2.40304e-08
5.5493e-08
2.40102e-08
3.91235e-08
2.44341e-08
2.63239e-08
1.00955e-07
1.0757e-07
6.72153e-08
1.03821e-08
1.70313e-08
2.86448e-08
2.15317e-08
1.033e-08
1.1615e-11
3.53621e-11
5.72329e-10
2.18615e-09
9.98543e-12
5.99082e-12
3.84229e-12
6.62594e-12
4.09031e-12
3.16951e-12
2.52057e-12
2.17208e-12
2.64601e-13
3.1722e-13
3.94555e-13
4.4263e-13
-1.54537e-14
2.58107e-17
2.09139e-15
5.06798e-15
-4.19529e-14
-3.24283e-14
-2.5309e-14
-2.0044e-14
-2.89995e-14
-2.3071e-14
-1.85301e-14
-1.52695e-14
-1.51844e-14
-1.20672e-14
-9.50542e-15
-7.61587e-15
-6.55053e-15
-5.1995e-15
-4.0215e-15
-3.04817e-15
-2.40399e-15
-1.89036e-15
-1.45865e-15
-1.07205e-15
-7.84968e-16
-5.96869e-16
-4.51565e-16
-3.36125e-16
-2.35447e-16
-1.71441e-16
-1.23661e-16
-8.88283e-17
-6.75325e-17
-4.70594e-17
-3.22614e-17
-2.18586e-17
-1.80454e-17
-1.20075e-17
-7.82103e-18
-5.00108e-18
-4.38324e-18
-2.77935e-18
-1.71978e-18
-1.04019e-18
-9.45991e-19
-5.68189e-19
-3.32371e-19
-1.89569e-19
-1.77164e-19
-9.98177e-20
-5.46741e-20
-2.91436e-20
-2.80839e-20
-1.46548e-20
-7.41838e-21
-3.64707e-21
-3.66439e-21
-1.74298e-21
-8.02038e-22
-3.5754e-22
-3.8097e-22
-1.61862e-22
-6.6296e-23
-2.62249e-23
-3.03305e-23
-1.1206e-23
-3.97402e-24
-1.35599e-24
-1.75156e-24
-5.42085e-25
-1.60231e-25
-4.53744e-26
-6.7156e-26
-1.64569e-26
-3.83322e-27
-8.51939e-28
-1.42755e-27
-2.52073e-28
-4.22218e-29
-6.7356e-30
-1.04758e-29
-1.09872e-30
-1.10212e-31
-1.05899e-32
-3.04724e-33
-9.90116e-35
-3.2956e-36
-1.09572e-37
1
1
1
0.999919
0.989989
0.982127
0.978289
0.978516
0.984867
0.99291
0.9981
0.998325
0.998458
0.998457
0.998456
0.998285
0.986143
0.958113
0.983999
0.995705
0.984099
0.974545
0.966017
0.959704
0.951107
0.937319
0.921758
0.912675
0.917742
0.925841
0.929032
0.921498
0.903293
0.892453
0.905527
0.92788
0.946058
0.949289
0.444637
0.429653
0.419646
0.412898
0.407948
0.403787
0.401458
0.396267
0.382832
0.358241
0.334201
0.314521
0.29967
0.289508
0.278461
0.264097
0.258356
0.25679
0.244943
0.00181987
0.00125187
0.00101575
0.000886271
0.000871488
0.000708569
0.0004851
0.000420523
0.000420408
0.000420523
0.000420735
0.000420928
0.000421099
0.000421021
0.000420693
0.000420761
0.000420693
0.000420761
0.000421344
0.000683543
0.000678413
0.00067376
0.000672436
0.000674324
0.00187197
0.00153023
0.0013143
0.00121972
0.00120032
0.00116854
0.00113463
0.00112787
0.00121955
0.00133754
0.00100089
0.000747533
0.000782511
0.00070417
0.00105609
0.00114802
0.00114513
0.000672436
0.00148788
0.00189511
0.00189511
0.00189511
0.00189499
0.00189442
0.00189328
0.00189162
0.0018895
0.00188688
0.0018833
0.00123715
0.00111403
0.00111363
0.00111232
0.00102162
0.00114844
0.00114898
0.00114867
0.001117
0.000704082
0.000440518
0.00041975
0.000393082
0.000357116
0.000350475
0.000330157
0.000304103
0.000309908
0.000360363
0.000496988
0.000713801
0.000637808
0.000530791
0.000266162
0.000411531
0.000362305
0.000390224
0.000159072
8.77831e-06
3.27434e-07
1.63604e-07
1.63639e-07
1.63604e-07
1.68397e-07
2.20177e-07
3.18718e-07
4.19665e-07
4.67882e-07
0.000140192
4.42514e-05
1.10979e-06
1.11771e-06
8.88608e-08
2.21442e-08
6.83577e-08
2.73517e-08
3.45192e-08
5.43896e-08
2.73522e-07
5.21129e-07
1.48152e-06
5.77462e-06
3.31163e-05
4.1591e-05
4.11106e-05
1.52178e-05
1.07592e-06
1.08423e-06
1.08965e-06
1.10759e-06
1.31803e-06
2.01225e-08
1.28528e-08
1.28521e-08
1.66106e-08
1.73578e-08
1.79709e-08
1.79794e-08
4.227e-07
2.32349e-06
6.08397e-05
7.01723e-05
7.01723e-05
5.13335e-05
6.70011e-06
1.46215e-06
1.08965e-06
1.09491e-06
1.30841e-06
1.59598e-06
3.7255e-08
1.28426e-08
1.28473e-08
1.28521e-08
5.57082e-06
1.29997e-05
4.24845e-06
1.19748e-06
4.86534e-05
7.01187e-05
6.7457e-05
2.17688e-05
1.22792e-05
1.97822e-05
2.09509e-05
1.68535e-05
1.17809e-05
6.10281e-06
2.69775e-06
5.5148e-08
1.28426e-08
1.28426e-08
7.12312e-06
2.17409e-05
2.174e-05
1.13016e-05
1.38127e-05
6.70762e-05
6.59682e-05
6.01118e-06
1.06439e-05
2.87416e-05
4.44496e-05
4.44557e-05
4.44459e-05
4.44091e-05
3.86411e-05
1.73468e-05
5.55175e-08
1.28426e-08
8.54781e-08
1.35865e-05
2.17409e-05
2.1741e-05
1.89866e-05
1.06251e-05
1.67938e-05
3.10857e-06
3.10614e-08
2.5882e-05
4.44111e-05
4.44557e-05
3.60376e-05
1.71712e-05
9.56703e-06
9.61106e-06
1.74294e-05
4.08389e-08
1.28832e-08
2.18157e-08
5.45397e-06
1.66898e-05
1.58446e-05
2.50585e-06
1.6712e-07
1.65485e-10
1.6548e-10
1.93324e-08
8.08122e-06
3.3254e-05
2.09453e-05
1.59528e-10
1.59578e-10
1.6589e-10
6.5161e-07
8.10533e-06
2.06384e-08
9.10953e-08
9.49902e-08
1.02765e-07
5.71997e-07
4.79343e-07
1.64297e-10
1.61784e-10
1.65252e-10
2.27049e-10
3.35351e-07
1.11292e-06
1.59246e-10
1.59243e-10
1.59246e-10
1.60199e-10
1.53267e-07
5.29339e-06
1.52136e-05
1.80127e-08
5.51319e-08
6.708e-08
6.33221e-08
6.25136e-08
1.26097e-08
1.61784e-10
1.61712e-10
1.61784e-10
5.53614e-09
3.48482e-08
3.83725e-10
3.83589e-10
1.59243e-10
1.59243e-10
1.59314e-10
3.34163e-09
8.8543e-06
1.69555e-05
2.63382e-09
1.51245e-09
2.5759e-08
2.44355e-07
3.03725e-07
2.2518e-07
1.0195e-09
1.61726e-10
1.64286e-10
6.63375e-10
2.01557e-09
3.41467e-09
2.4522e-09
1.59243e-10
1.67055e-10
1.66869e-10
6.47364e-11
2.962e-06
1.69556e-05
1.72668e-12
1.19696e-12
3.29797e-09
1.81771e-07
3.04386e-07
3.04396e-07
2.89455e-07
7.65444e-08
1.64242e-10
1.90458e-10
1.0971e-09
3.55759e-10
1.81208e-10
1.81207e-10
2.31415e-10
2.19978e-10
6.38692e-11
1.50314e-07
1.69553e-05
1.72508e-12
1.14775e-12
6.27133e-12
7.91021e-09
1.09094e-07
2.49209e-07
2.8989e-07
1.0958e-07
1.49664e-08
2.38917e-08
6.20416e-08
4.06544e-08
1.10329e-08
1.81208e-10
2.49373e-10
2.4938e-10
6.38782e-11
4.4727e-12
1.35722e-05
4.69042e-13
4.09167e-13
1.30977e-13
7.25743e-13
4.46831e-10
1.09019e-08
1.86443e-08
1.07103e-08
2.58787e-08
8.75925e-08
8.95788e-08
8.95788e-08
4.40388e-08
3.5895e-10
2.24397e-10
2.20074e-10
5.84655e-11
4.45209e-12
4.42865e-12
1.08317e-14
1.94742e-14
8.24422e-15
0
1.19156e-13
6.62467e-14
2.80615e-14
2.21385e-13
7.79289e-10
1.88088e-08
4.98326e-08
5.14681e-08
1.30535e-08
9.12956e-10
1.67457e-10
9.08505e-11
1.90876e-11
4.42865e-12
4.42862e-12
-1.58439e-14
-7.43913e-15
-3.36286e-15
-1.38931e-15
0
0
2.42641e-14
2.20657e-13
2.20677e-13
2.2071e-13
2.20941e-13
2.21229e-13
2.21935e-13
2.31704e-11
4.36541e-11
2.56242e-11
7.55912e-12
4.42525e-12
4.42865e-12
-1.29191e-14
-8.0496e-15
-4.82341e-15
-2.75702e-15
-1.36583e-15
-4.45243e-16
4.38059e-16
1.97248e-14
2.71634e-13
1.17063e-12
6.32169e-13
1.36755e-12
3.95843e-12
5.31478e-12
4.72935e-12
5.2485e-12
4.18878e-12
4.18e-12
4.59216e-12
-6.39569e-15
-4.18755e-15
-2.68619e-15
-1.68491e-15
-1.02312e-15
-5.80798e-16
-2.73501e-16
-7.0675e-18
5.97681e-15
9.1184e-14
4.06661e-13
1.23379e-12
2.63311e-12
1.96079e-12
1.45649e-12
2.78032e-12
2.83279e-12
2.83696e-12
3.11271e-11
-2.40023e-15
-1.55631e-15
-9.96854e-16
-6.2659e-16
-3.838e-16
-2.36999e-16
-1.42235e-16
-7.45315e-17
1.74579e-19
1.07914e-15
8.57871e-15
3.54292e-14
1.0991e-13
2.00737e-13
3.75797e-13
1.96927e-12
1.81116e-12
2.91233e-08
4.15435e-07
-7.43747e-16
-4.61282e-16
-2.79501e-16
-1.68899e-16
-1.02875e-16
-6.31101e-17
-3.82022e-17
-2.13375e-17
-7.01363e-18
3.32136e-17
2.99969e-16
1.5265e-15
6.83274e-15
2.88027e-14
1.67015e-13
1.80916e-12
1.80992e-12
1.7735e-07
1.02943e-05
-1.9148e-16
-1.11743e-16
-6.6978e-17
-4.00996e-17
-2.38168e-17
-1.3975e-17
-7.9995e-18
-4.04175e-18
-6.31866e-19
1.0162e-17
7.82744e-17
4.90521e-16
3.10876e-15
1.78034e-14
1.39756e-13
2.19218e-12
1.81116e-12
2.18734e-07
1.3538e-05
-4.54871e-17
-2.45626e-17
-1.35762e-17
-7.5826e-18
-4.22814e-18
-2.26571e-18
-1.15405e-18
-3.13444e-19
7.32356e-19
8.53828e-18
5.72936e-17
3.69285e-16
2.48158e-15
1.50432e-14
1.32977e-13
3.25118e-12
1.81244e-12
2.66826e-08
1.35386e-05
-1.0023e-17
-4.74522e-18
-2.30749e-18
-1.13546e-18
-5.42039e-19
-6.99036e-20
5.91654e-20
5.45267e-19
2.39956e-18
9.39238e-18
5.30901e-17
3.38176e-16
2.30506e-15
1.41335e-14
1.5295e-13
4.23314e-12
1.39232e-11
6.00112e-12
1.35357e-05
-2.05732e-18
-8.49994e-19
-3.52952e-19
-1.29257e-19
4.81482e-38
4.49347e-19
3.11382e-18
1.19873e-17
3.38682e-17
7.73034e-17
1.68695e-16
5.00358e-16
2.51781e-15
1.44385e-14
2.26011e-13
5.479e-12
1.43194e-11
5.99908e-12
1.1599e-05
-3.8873e-19
-1.42617e-19
-4.91242e-20
4.04374e-21
5.80939e-19
4.745e-18
2.50506e-17
1.01871e-16
3.25774e-16
8.25125e-16
1.74077e-15
3.60888e-15
9.75325e-15
3.56115e-14
3.3523e-13
5.65238e-12
1.43142e-11
5.99596e-12
1.04093e-05
-6.46483e-20
-2.1337e-20
-4.0501e-21
1.12857e-19
2.07704e-18
2.06773e-17
1.30902e-16
6.03724e-16
2.15137e-15
5.97172e-15
1.38581e-14
3.01584e-14
6.96893e-14
1.6458e-13
5.94814e-13
5.53424e-12
1.3192e-11
5.994e-12
1.04113e-05
-9.00154e-21
-2.64351e-21
2.16587e-21
2.14577e-19
5.32175e-18
6.95728e-17
5.44064e-16
2.87044e-15
1.15313e-14
3.59606e-14
9.31307e-14
2.2353e-13
4.90619e-13
9.14033e-13
1.57607e-12
5.65743e-12
1.0661e-11
5.9929e-12
8.14921e-06
-1.005e-21
-2.44797e-22
3.64108e-21
3.18896e-19
1.07004e-17
1.83908e-16
1.81155e-15
1.11087e-14
5.16646e-14
1.94828e-13
5.88603e-13
1.42995e-12
2.62602e-12
3.92483e-12
4.96025e-12
7.82484e-12
9.46177e-12
5.99345e-12
3.74642e-07
-8.61918e-23
-1.09413e-23
3.50703e-21
3.77545e-19
1.70842e-17
3.84233e-16
4.88961e-15
3.643e-14
2.02995e-13
9.54359e-13
3.49627e-12
7.51164e-12
1.01351e-11
1.19785e-11
1.33554e-11
1.57552e-11
1.20526e-11
5.9929e-12
1.35316e-06
-5.39798e-24
3.02907e-24
1.94822e-21
3.80451e-19
2.15792e-17
6.18702e-16
1.06983e-14
1.07035e-13
7.38243e-13
4.03829e-12
1.64681e-11
2.92914e-11
2.98875e-11
3.08063e-11
3.33822e-11
7.01593e-11
6.92137e-11
6.11504e-12
4.69587e-06
-2.30979e-25
2.00562e-24
8.79886e-22
2.28822e-19
2.24987e-17
7.51035e-16
1.81231e-14
2.73795e-13
2.28961e-12
1.29592e-11
4.87047e-11
7.59544e-11
7.35245e-11
7.58893e-11
1.17349e-10
5.81572e-10
5.94423e-10
6.19081e-12
4.69592e-06
-6.11035e-27
7.35477e-25
3.58696e-22
9.5629e-20
1.43237e-17
7.41952e-16
2.25369e-14
5.23525e-13
4.93771e-12
2.7009e-11
8.49609e-11
1.27542e-10
1.36756e-10
1.45529e-10
4.66815e-10
1.72699e-09
1.78199e-09
6.58683e-12
4.60794e-06
-8.1402e-29
1.71148e-25
8.50014e-23
3.45535e-20
5.8688e-18
3.53487e-16
2.19166e-14
6.75534e-13
6.7079e-12
3.53501e-11
9.98446e-11
1.46744e-10
1.72267e-10
1.79624e-10
9.59921e-10
2.82774e-09
2.336e-09
8.11553e-12
4.24803e-06
-1.09228e-31
2.08788e-26
9.99403e-24
6.56688e-21
1.71166e-18
1.07761e-16
8.19572e-15
6.32221e-13
6.52683e-12
3.30963e-11
8.18141e-11
1.22406e-10
1.57016e-10
1.00758e-10
1.80412e-09
1.41054e-08
7.41689e-09
1.0639e-11
4.24565e-06
-4.34672e-34
1.2015e-30
1.85859e-25
5.35282e-22
1.82457e-19
1.54406e-17
1.22524e-15
1.66531e-13
1.87859e-12
9.07374e-12
2.11661e-11
3.52665e-11
5.22493e-11
8.53435e-17
6.62933e-09
2.62338e-08
2.52412e-08
7.75986e-12
4.24248e-06
-1.53267e-39
1.44674e-41
2.23908e-32
9.27396e-27
4.7897e-23
3.14619e-20
1.42291e-17
2.61214e-15
2.85398e-14
1.72229e-13
5.34805e-13
1.04147e-12
8.06376e-13
-1.26218e-32
6.29283e-09
1.90712e-08
1.50574e-08
0
2.66646e-06
)
;

boundaryField
{
    leftWall
    {
        type            zeroGradient;
    }
    rightWall
    {
        type            zeroGradient;
    }
    lowerWall
    {
        type            zeroGradient;
    }
    atmosphere
    {
        type            inletOutlet;
        inletValue      uniform 0;
        value           nonuniform List<scalar> 
46
(
0
2.94529e-25
3.44876e-23
8.52991e-22
1.61254e-21
3.903e-22
7.2713e-23
6.13307e-24
-1.47902e-22
-9.96745e-22
-2.49849e-21
-3.34748e-21
-2.77283e-21
-1.52026e-21
-5.70905e-22
-1.4833e-22
-2.62614e-23
-3.04657e-24
-2.28419e-25
0
0
0
0
0
0
0
0
0
0
0
0
0
0
0
0
0
0
0
0
0
0
0
0
0
0
2.66646e-06
)
;
    }
    defaultFaces
    {
        type            empty;
    }
}


// ************************************************************************* //
