/*--------------------------------*- C++ -*----------------------------------*\
  =========                 |
  \\      /  F ield         | OpenFOAM: The Open Source CFD Toolbox
   \\    /   O peration     | Website:  https://openfoam.org
    \\  /    A nd           | Version:  9
     \\/     M anipulation  |
\*---------------------------------------------------------------------------*/
FoamFile
{
    format      ascii;
    class       volScalarField;
    location    "4.38";
    object      nut;
}
// * * * * * * * * * * * * * * * * * * * * * * * * * * * * * * * * * * * * * //

dimensions      [0 2 -1 0 0 0 0];

internalField   nonuniform List<scalar> 
2268
(
1.9411e-05
2.2193e-05
2.66556e-05
2.95852e-05
3.17243e-05
3.33716e-05
3.46788e-05
3.57363e-05
3.66064e-05
3.7335e-05
3.79555e-05
3.84936e-05
3.89679e-05
3.93812e-05
3.97035e-05
3.98154e-05
3.93109e-05
3.79368e-05
3.60816e-05
3.44885e-05
3.24998e-05
2.79694e-05
1.58213e-05
4.42064e-05
0.00017491
0.000236013
0.000272832
0.000298436
0.000317624
0.000332623
0.000344656
0.000354496
0.000362652
0.000369447
0.000375082
0.000379687
0.000383105
0.000384796
0.000383549
0.000376531
0.000347774
0.000319393
0.000308769
0.00029376
0.000226771
5.49125e-05
5.2441e-05
0.00028821
0.000425566
0.000511549
0.000571729
0.000616841
0.000652086
0.000680339
0.000703392
0.000722417
0.000738161
0.000751096
0.000761492
0.000769034
0.000772487
0.000769057
0.000752373
0.000704465
0.000651596
0.00060977
0.000545222
0.000386039
6.62661e-05
5.84557e-05
0.000365167
0.000569179
0.000702671
0.000797837
0.00086981
0.000926336
0.000971809
0.00100898
0.00103966
0.00106499
0.00108569
0.0011021
0.00111373
0.00111867
0.00111291
0.00108755
0.00102872
0.00095608
0.000876407
0.0007511
0.000501578
7.56446e-05
6.31526e-05
0.000422045
0.000681663
0.000858007
0.000986104
0.00108398
0.00116133
0.00122381
0.001275
0.00131728
0.00135213
0.00138046
0.00140264
0.00141804
0.00142413
0.00141573
0.0013838
0.00131764
0.00122752
0.00111119
0.000926702
0.000594077
8.3672e-05
6.70294e-05
0.000466532
0.000772645
0.000987028
0.00114543
0.00126767
0.00136487
0.00144369
0.00150841
0.00156187
0.00160589
0.00164149
0.00166908
0.00168788
0.00169466
0.00168408
0.00164749
0.00157558
0.00147036
0.00132196
0.00108509
0.000677235
9.12952e-05
7.03807e-05
0.000502561
0.000848058
0.00109614
0.0012822
0.0014271
0.00154297
0.00163728
0.00171487
0.00177901
0.00183175
0.00187423
0.00190688
0.00192875
0.00193638
0.00192436
0.00188452
0.00180799
0.00169068
0.00151689
0.00123824
0.000763535
0.000100736
7.34215e-05
0.000532558
0.000911877
0.00118985
0.00140104
0.00156685
0.00170017
0.00180905
0.00189883
0.00197309
0.00203412
0.00208311
0.00212055
0.00214547
0.00215428
0.00214164
0.00209984
0.00202001
0.00189422
0.00170345
0.0013989
0.000874965
0.000118668
1.52487e-05
2.65212e-05
3.08446e-05
3.27066e-05
3.35162e-05
3.37392e-05
3.37372e-05
3.37851e-05
3.41249e-05
3.39736e-05
3.21349e-05
3.01132e-05
3.03828e-05
3.30806e-05
3.49967e-05
3.40378e-05
3.16736e-05
2.65979e-05
3.02529e-05
5.4026e-05
0.000223293
0.000289695
0.000318536
0.000327433
0.000329381
0.000329475
0.000332366
0.000333996
0.000327665
0.000308802
0.000270897
0.000260933
0.00030664
0.000308852
0.000287918
0.000242403
0.0001569
6.1398e-05
6.53387e-05
0.000388069
0.000549204
0.000621698
0.000650372
0.000659952
0.000662639
0.000665766
0.000664967
0.000650191
0.000612436
0.000560558
0.000551381
0.000597047
0.000586489
0.000531438
0.000430316
0.000270355
6.54104e-05
7.54048e-05
0.000512532
0.000762453
0.000882736
0.000935423
0.000955295
0.000961036
0.000962353
0.000956776
0.00093447
0.000887089
0.000832489
0.000817634
0.000837798
0.000802534
0.000710283
0.000558258
0.000340236
6.65602e-05
8.5154e-05
0.000616126
0.000943974
0.00111006
0.00118645
0.00121693
0.00122555
0.00122437
0.00121339
0.00118452
0.00113266
0.00107607
0.00104855
0.00103452
0.00096794
0.000837909
0.000639162
0.00037182
6.58364e-05
9.59193e-05
0.000707276
0.00110807
0.00131413
0.00141115
0.00145102
0.00146193
0.00145802
0.00144177
0.00140687
0.00135171
0.00129073
0.00124644
0.00119653
0.00109588
0.000928235
0.000685024
0.000368414
6.56146e-05
0.0001092
0.000800737
0.00126681
0.00150363
0.00161624
0.00166325
0.00167553
0.00166862
0.00164692
0.00160648
0.00154727
0.00147903
0.0014142
0.00133169
0.00119736
0.000992955
0.000710844
0.00036196
6.5734e-05
0.000130473
0.000919958
0.00143178
0.00168521
0.00180691
0.00185821
0.00187067
0.00186041
0.0018331
0.00178706
0.00172249
0.00164476
0.00155863
0.00144678
0.00128094
0.00104261
0.000728695
0.000364823
6.61083e-05
7.70079e-05
0.000571918
0.000995926
0.00131484
0.00156147
0.0017575
0.00191656
0.00204739
0.00215584
0.00224589
0.00232008
0.00237967
0.00242514
0.00245514
0.00246644
0.00245404
0.00241089
0.00232816
0.00219499
0.00199208
0.00168358
0.00121998
0.000603548
8.11688e-05
0.000612919
0.0010852
0.00144864
0.00173403
0.00196342
0.00215133
0.00230727
0.00243738
0.00254604
0.00263607
0.00270871
0.00276419
0.0028013
0.00281744
0.00280844
0.00276844
0.00268984
0.00256344
0.0023762
0.00211058
0.00175173
0.00131369
8.46406e-05
0.000641106
0.00116001
0.00156135
0.00187805
0.00213402
0.00234546
0.00252284
0.00267185
0.00279716
0.00290187
0.00298712
0.00305275
0.00309819
0.00312133
0.00311886
0.00308651
0.00301874
0.00290984
0.00275365
0.00254607
0.00229298
0.00202137
8.8762e-05
0.000662444
0.00122939
0.00166202
0.00200328
0.00227975
0.00251007
0.00270641
0.00287225
0.00301258
0.00313117
0.00322858
0.0033043
0.00335891
0.00339059
0.00339637
0.00337398
0.00332022
0.00323288
0.00311032
0.00295567
0.00278347
0.00261912
9.50524e-05
0.000741873
0.00131613
0.00175742
0.00210904
0.00240109
0.00264824
0.00286054
0.00304307
0.00319928
0.00333241
0.0034418
0.00352684
0.00359048
0.0036305
0.00364358
0.00362898
0.0035911
0.00352646
0.00343503
0.00332319
0.00320232
0.00309334
9.69677e-05
0.000761164
0.00134581
0.00179867
0.0021632
0.00247708
0.0027475
0.00298048
0.00318338
0.003356
0.00350308
0.00362439
0.0037194
0.00379112
0.00383891
0.00385987
0.0038554
0.00383349
0.00378541
0.00371437
0.00363347
0.00353937
0.00344906
9.69502e-05
0.00076583
0.00136827
0.00183256
0.00220802
0.00253852
0.00282946
0.00308315
0.00330234
0.00349129
0.00365158
0.00378327
0.00388666
0.00396482
0.00401853
0.00404572
0.00404999
0.00404062
0.00400748
0.00395263
0.00388769
0.00381517
0.0037526
9.44166e-05
0.000751255
0.00137892
0.00187462
0.00227773
0.00262455
0.00292713
0.00319138
0.00342166
0.00362079
0.00378994
0.00392821
0.00403698
0.00411931
0.00417657
0.00420996
0.00422082
0.00421812
0.00419776
0.00416009
0.0041099
0.00405747
0.00401438
9.28054e-05
0.000751007
0.0014
0.00192588
0.00235519
0.00271721
0.00303033
0.00330245
0.00353917
0.00374373
0.00391714
0.00405967
0.00417273
0.00425851
0.00431975
0.00435942
0.00437978
0.00438612
0.00437744
0.00435383
0.00431853
0.00427802
0.00423957
9.2404e-05
0.000766161
0.00143807
0.00198753
0.00243354
0.00280837
0.00313015
0.00340843
0.00364957
0.00385737
0.00403367
0.0041796
0.00429652
0.00438694
0.00445409
0.00450128
0.00453133
0.0045473
0.00454907
0.00453616
0.00451124
0.00447911
0.00444578
9.34251e-05
0.000792545
0.00148655
0.00204886
0.00250872
0.00289462
0.00322403
0.00350755
0.00375228
0.00396277
0.00414159
0.00429056
0.00441179
0.00450794
0.0045821
0.00463737
0.00467642
0.00470129
0.00471212
0.00470866
0.00469273
0.00466821
0.00463966
9.52416e-05
0.000824113
0.00153351
0.00210764
0.00257952
0.00297504
0.00331135
0.00359974
0.00384796
0.00406117
0.00424263
0.00439511
0.00452114
0.00462342
0.00470476
0.0047679
0.00481516
0.00484813
0.00486721
0.00487242
0.00486498
0.00484766
0.00482366
9.75911e-05
0.000845732
0.00157364
0.00216199
0.00264516
0.00304937
0.00339213
0.00368535
0.00393731
0.00415353
0.00433824
0.00449475
0.0046259
0.00473434
0.00482265
0.0048932
0.00494799
0.00498838
0.00501497
0.00502801
0.0050283
0.00501767
0.00499831
9.95993e-05
0.000862171
0.00160839
0.00221101
0.00270492
0.00311731
0.00346638
0.00376459
0.00402051
0.00424041
0.00442906
0.00459012
0.00472664
0.00484122
0.00493624
0.00501379
0.00507561
0.00512291
0.0051564
0.00517646
0.0051837
0.00517929
0.00516474
0.000101062
0.000875734
0.00163797
0.00225391
0.00275809
0.00317847
0.00353394
0.00383729
0.00409774
0.00432205
0.00451531
0.00468146
0.00482361
0.00494436
0.00504593
0.00513022
0.00519873
0.0052526
0.00529256
0.00531907
0.00533264
0.00533407
0.00532443
0.000101998
0.000886545
0.00166213
0.00229006
0.00280406
0.0032324
0.00359432
0.0039033
0.00416898
0.00439845
0.00459701
0.00476874
0.00491685
0.00504389
0.00515198
0.00524286
0.0053179
0.00537814
0.0054243
0.00545689
0.00547638
0.00548336
0.00547861
0.00010249
0.000894277
0.00168055
0.00231908
0.00284227
0.0032784
0.00364719
0.00396245
0.00423409
0.00446943
0.00467394
0.00485178
0.0050062
0.00513972
0.00525439
0.00535183
0.00543331
0.00549981
0.00555203
0.00559049
0.00561564
0.00562795
0.00562801
0.000102689
0.00089844
0.0016929
0.00234049
0.00287228
0.0033163
0.00369238
0.00401452
0.00429282
0.00453472
0.00474578
0.00493022
0.0050913
0.00523152
0.00535287
0.00545688
0.00554477
0.00561746
0.00567564
0.00571983
0.00575046
0.00576794
0.00577269
0.000102757
0.000898739
0.00169917
0.00235448
0.00289428
0.00334615
0.00372983
0.00405937
0.00434492
0.00459396
0.00481211
0.00500359
0.00517164
0.00531876
0.00544688
0.00555748
0.00565175
0.00573056
0.00579459
0.00584438
0.00588033
0.00590283
0.00591219
0.000102593
0.000896003
0.00170002
0.00236158
0.00290865
0.00336819
0.00375965
0.00409695
0.0043902
0.00464687
0.00487252
0.00507137
0.00524664
0.00540079
0.00553571
0.00565288
0.00575343
0.00583823
0.00590799
0.00596321
0.00600433
0.00603169
0.00604555
0.000102167
0.000890843
0.00169615
0.00236244
0.00291597
0.00338285
0.0037821
0.00412739
0.00442865
0.00469325
0.00492668
0.00513311
0.00531571
0.00547691
0.00561858
0.00574218
0.00584884
0.00593945
0.00601471
0.00607517
0.00612125
0.0061533
0.00617154
0.000101498
0.000883631
0.00168817
0.00235778
0.00291693
0.00339075
0.00379768
0.004151
0.0044604
0.00473307
0.00497439
0.00518843
0.00537831
0.00554644
0.00569466
0.00582444
0.00593694
0.00603306
0.00611354
0.00617895
0.00622976
0.00626628
0.00628877
0.000100614
0.000874736
0.00167679
0.00234844
0.00291238
0.00339268
0.00380704
0.00416828
0.00448576
0.00476645
0.00501555
0.00523705
0.00543399
0.00560875
0.00576318
0.00589877
0.0060167
0.00611794
0.00620326
0.00627329
0.00632851
0.00636929
0.00639585
9.95368e-05
0.000864571
0.00166272
0.0023353
0.00290327
0.00338951
0.00381094
0.00417982
0.00450515
0.00479359
0.00505019
0.00527879
0.00548238
0.0056633
0.00582344
0.00596432
0.00608717
0.00619302
0.00628274
0.00635699
0.00641632
0.00646111
0.00649159
9.8286e-05
0.000853529
0.00164672
0.00231931
0.00289057
0.00338217
0.00381019
0.00418629
0.00451903
0.00481478
0.00507836
0.00531352
0.00552316
0.00570963
0.00587483
0.00602035
0.00614751
0.00625743
0.00635106
0.00642913
0.00649225
0.00654083
0.00657512
9.68804e-05
0.000841992
0.00162949
0.00230132
0.00287519
0.00337154
0.00380556
0.00418829
0.00452784
0.00483026
0.00510016
0.00534116
0.00555611
0.00574736
0.00591687
0.00606632
0.00619714
0.00631056
0.00640761
0.00648914
0.00655581
0.00660805
0.00664613
9.53285e-05
0.000830312
0.00161165
0.0022821
0.00285792
0.00335833
0.00379765
0.00418629
0.00453189
0.00484021
0.00511563
0.00536163
0.00558105
0.00577625
0.00594929
0.00610194
0.00623579
0.00635218
0.00645229
0.00653705
0.00660718
0.00666312
0.00670512
9.3611e-05
0.000818634
0.00159354
0.0022621
0.00283923
0.00334296
0.00378677
0.00418048
0.00453131
0.00484466
0.00512474
0.00537489
0.00559792
0.00579625
0.00597205
0.00612727
0.00626362
0.00638264
0.00648563
0.00657361
0.00664732
0.00670721
0.00675348
9.17242e-05
0.000806516
0.00157481
0.00224124
0.00281912
0.00332539
0.00377283
0.00417075
0.00452595
0.00484352
0.00512744
0.00538094
0.0056068
0.00580756
0.00598552
0.00614283
0.00628139
0.00640295
0.00650892
0.0066004
0.00667811
0.00674246
0.00679357
8.9895e-05
0.000791226
0.00155404
0.00221871
0.00279697
0.00330502
0.00375522
0.00415654
0.0045154
0.00483654
0.00512367
0.00537991
0.00560806
0.00581075
0.00599051
0.00614973
0.00629055
0.00641491
0.00652433
0.00661993
0.00670239
0.00677202
0.00682881
8.82038e-05
0.000775658
0.00153244
0.00219454
0.00277191
0.0032806
0.00373274
0.00413689
0.00449901
0.00482341
0.00511348
0.00537218
0.00560236
0.00580683
0.00598841
0.00614976
0.0062933
0.00642115
0.00653491
0.00663568
0.00672401
0.00680002
0.00686352
8.66249e-05
0.000761728
0.0015109
0.0021682
0.0027428
0.00325079
0.00370415
0.00411089
0.0044763
0.0048041
0.00509725
0.00535854
0.0055909
0.0057974
0.00598122
0.00614539
0.0062926
0.00642514
0.00654463
0.00665204
0.0067477
0.00683146
0.00690284
8.51916e-05
0.000749256
0.00148819
0.00213736
0.0027068
0.00321297
0.00366741
0.00407725
0.00444676
0.00477878
0.00507573
0.00534025
0.00557539
0.00578462
0.00597158
0.00613976
0.00629215
0.00643111
0.0065582
0.00667415
0.00677894
0.00687199
0.00695247
8.39159e-05
0.000736476
0.0014608
0.00209771
0.0026597
0.00316363
0.00362009
0.00403464
0.00441003
0.0047479
0.00505003
0.00531891
0.0055579
0.00577102
0.00596252
0.00613642
0.00629603
0.00644371
0.00658082
0.00670767
0.00682365
0.00692765
0.00701836
8.27732e-05
0.000720763
0.00142357
0.00204336
0.00259623
0.00309886
0.00355978
0.00398205
0.00436619
0.00471234
0.00502159
0.0052964
0.00554068
0.00575921
0.00595708
0.00613892
0.00630837
0.0064677
0.00661786
0.00675845
0.00688803
0.00700465
0.00710648
8.17033e-05
0.000698655
0.00136993
0.00196738
0.0025109
0.00301515
0.00348483
0.00391923
0.00431596
0.00467344
0.00499208
0.00527464
0.00552582
0.00575153
0.00595788
0.0061503
0.0063328
0.00650745
0.00667451
0.00683242
0.00697841
0.00710929
0.00722266
8.06191e-05
0.000665298
0.00129189
0.00186267
0.00239908
0.00291038
0.00339504
0.00384718
0.00426094
0.00463295
0.00496327
0.00525529
0.00551494
0.00574955
0.0059666
0.00617253
0.00637187
0.0065665
0.00675558
0.00693561
0.00710145
0.00724807
0.00737263
7.94757e-05
0.000612536
0.00117942
0.00172264
0.00225825
0.00278502
0.00329248
0.00376849
0.00420361
0.00459299
0.00493679
0.00523952
0.00550877
0.00575366
0.00598336
0.00620574
0.00642627
0.00664699
0.00686548
0.00707476
0.00726499
0.00742824
0.00756208
7.94379e-05
0.000522125
0.00101823
0.0015419
0.00208952
0.00264341
0.0031823
0.0036878
0.00414751
0.00455591
0.00491396
0.00522779
0.00550698
0.00576277
0.00600634
0.00624761
0.006494
0.0067488
0.00700836
0.00725918
0.00747983
0.0076586
0.0077968
9.90961e-05
0.00036265
0.00079176
0.00131927
0.00190031
0.00249563
0.00307373
0.00361205
0.00409716
0.00452423
0.00489575
0.00521985
0.00550824
0.00577431
0.00603156
0.00629266
0.00656874
0.00686757
0.00718778
0.00750566
0.00776328
0.00795038
0.0080821
0.000197083
0.000198032
0.000517664
0.00107118
0.0017115
0.00236089
0.00298116
0.00355065
0.00405804
0.0045006
0.0048829
0.00521502
0.00551059
0.00578482
0.00605339
0.00633215
0.00663799
0.00698948
0.00740178
0.007854
0.00814507
0.00831633
0.00842064
0.00041336
0.000163075
0.000310675
0.00086774
0.00157317
0.0022722
0.00292452
0.00351485
0.00403598
0.00448764
0.00487606
0.00521265
0.00551217
0.00579096
0.00606602
0.0063556
0.00668219
0.00708012
0.00761357
0.00842367
0.00867072
0.00876291
0.00880685
0.000129219
0.00012006
0.000121673
0.000131263
0.000999444
0.00094646
0.000943765
0.00099763
0.00186633
0.00181947
0.0018206
0.00187077
0.00253452
0.00250392
0.0025
0.00252299
0.0030429
0.00302123
0.00301021
0.00300878
0.00342862
0.00341323
0.0033991
0.00338647
0.00373495
0.00372191
0.0037089
0.00369274
0.0039904
0.00397529
0.00396086
0.00394502
0.00421534
0.00419992
0.00418471
0.00417044
0.00442231
0.00440709
0.00439208
0.0043781
0.00461709
0.00460218
0.00458702
0.00457204
0.00480229
0.0047877
0.00477236
0.00475651
0.00497875
0.00496487
0.00494976
0.00493358
0.00514756
0.0051348
0.00512039
0.00510442
0.00530998
0.00529863
0.00528527
0.00526994
0.00546707
0.00545732
0.00544524
0.00543087
0.00561944
0.00561139
0.00560075
0.00558757
0.00576714
0.00576083
0.00575175
0.00573991
0.00590964
0.00590512
0.00589767
0.0058873
0.006046
0.00604329
0.00603752
0.0060287
0.00617495
0.00617405
0.00617
0.00616279
0.00629509
0.00629599
0.00629368
0.00628813
0.00640503
0.00640772
0.00640716
0.00640331
0.00650358
0.00650806
0.00650925
0.00650714
0.00658991
0.00659619
0.00659918
0.00659887
0.00666377
0.00667191
0.00667679
0.00667837
0.00672578
0.0067359
0.0067428
0.00674643
0.00677745
0.00678976
0.00679889
0.00680479
0.0068213
0.0068361
0.00684774
0.0068562
0.00686088
0.00687852
0.00689304
0.0069044
0.00690062
0.00692151
0.00693929
0.00695389
0.00694569
0.00697023
0.00699162
0.0070098
0.0070017
0.00703024
0.00705551
0.00707746
0.00707442
0.00710714
0.0071364
0.00716215
0.0071695
0.00720636
0.00723944
0.00726874
0.00729227
0.00733284
0.00736922
0.00740145
0.00744764
0.00749101
0.00752964
0.00756371
0.0076401
0.00768458
0.00772374
0.00775794
0.0078735
0.00791635
0.00795342
0.00798533
0.00815036
0.00818746
0.00821885
0.00824537
0.00847003
0.00849599
0.00851739
0.00853509
0.00882537
0.00883474
0.00884228
0.0088484
0.000628357
0.00127594
0.00171752
0.00196463
0.00208958
0.00214301
0.00215387
0.00213776
0.00210141
0.00204546
0.0019694
0.00187342
0.00175472
0.00159978
0.0013887
0.00110519
0.000754088
0.000384935
6.7109e-05
0.00135356
0.00180438
0.00212936
0.00232829
0.00243433
0.00247891
0.00248225
0.00245667
0.00240818
0.00233761
0.00224294
0.00212235
0.00197052
0.00177655
0.00152506
0.00120086
0.00081044
0.00041576
6.99667e-05
0.00204289
0.00231268
0.00252895
0.00267199
0.00275038
0.00278057
0.00277295
0.00273612
0.00267472
0.00258799
0.00247576
0.00233528
0.00216119
0.00194521
0.00167384
0.00132722
0.000901279
0.000451865
7.82854e-05
0.002602
0.00275225
0.00288836
0.00298451
0.00303567
0.00305162
0.00303145
0.00298146
0.00290558
0.00280445
0.00267778
0.00252305
0.00233605
0.0021115
0.00183871
0.00149099
0.00104502
0.000518185
8.89215e-05
0.00303035
0.00311157
0.00319707
0.00326017
0.0032889
0.00329445
0.00325996
0.00319437
0.00310512
0.0029924
0.0028552
0.00269129
0.00249815
0.00227354
0.00200753
0.00167526
0.0012557
0.000710301
9.92148e-05
0.00337802
0.00341619
0.00346331
0.00349589
0.00351105
0.00350205
0.00345586
0.00337829
0.003277
0.00315238
0.0030033
0.00282766
0.00262247
0.00238344
0.00209957
0.00175615
0.00133948
0.00078055
0.000104183
0.00367356
0.00368592
0.00370545
0.00371548
0.00371126
0.00368607
0.00362762
0.00353917
0.00342667
0.00329046
0.00312862
0.00293826
0.00271592
0.0024572
0.00215207
0.0017928
0.00137093
0.000795787
0.000106052
0.0039268
0.00392547
0.00392578
0.00391834
0.00389609
0.0038517
0.00377886
0.00368138
0.00355878
0.00341114
0.00323532
0.00302829
0.00278706
0.00250811
0.0021855
0.00181396
0.00137817
0.000789978
0.000102681
0.0041526
0.00414087
0.00412621
0.00410192
0.00406118
0.00399911
0.0039148
0.00380853
0.00367736
0.00351856
0.00332764
0.00310227
0.00284057
0.00254078
0.00219996
0.00181324
0.00135951
0.000769654
9.5753e-05
0.00435742
0.00433508
0.00430796
0.00426945
0.00421426
0.00413971
0.00404514
0.00392954
0.00378915
0.0036178
0.00341054
0.00316521
0.00288083
0.00255788
0.00219487
0.00178728
0.00131785
0.000734847
8.9934e-05
0.00454774
0.0045157
0.00447803
0.00442864
0.00436309
0.00427891
0.00417484
0.00404944
0.00389833
0.00371305
0.00348865
0.003223
0.00291568
0.00256775
0.0021778
0.00174246
0.00125086
0.000676394
8.39267e-05
0.00472945
0.00468959
0.00464307
0.00458497
0.00451111
0.00441861
0.00430565
0.00417029
0.00400736
0.00380822
0.00356793
0.0032846
0.00295697
0.00258379
0.00216343
0.00169392
0.00117058
0.000593284
7.98837e-05
0.00490496
0.00485959
0.00480611
0.00474075
0.00465964
0.00455958
0.00443834
0.00429332
0.00411899
0.00390763
0.00365477
0.00335773
0.00301323
0.00261751
0.00216827
0.00166511
0.0011107
0.000533142
8.03768e-05
0.00507533
0.00502654
0.00496794
0.00489664
0.00480921
0.00470244
0.00457375
0.00442012
0.00423627
0.00401552
0.00375367
0.00344666
0.00308933
0.00267685
0.00220668
0.00167964
0.00110504
0.00052726
8.43493e-05
0.00524123
0.0051907
0.00512863
0.00505276
0.00496015
0.00484778
0.00471289
0.00455229
0.0043612
0.00413383
0.00386586
0.00355233
0.00318738
0.00276615
0.0022862
0.00174762
0.00115916
0.000561194
8.95769e-05
0.00540318
0.0053522
0.0052881
0.00520904
0.00511254
0.00499586
0.00485623
0.00469043
0.00449419
0.00426245
0.00399067
0.0036737
0.00330594
0.00288265
0.0024009
0.00185926
0.00126065
0.000627197
9.50877e-05
0.00556138
0.00551097
0.00544605
0.00536511
0.00526601
0.00514632
0.00500334
0.00483397
0.00463433
0.0043999
0.00412609
0.00380788
0.00343996
0.00301756
0.00253675
0.00199366
0.00138448
0.000712126
0.000100366
0.0057156
0.00566656
0.00560186
0.00552018
0.00541968
0.00529816
0.00515308
0.00498147
0.00477975
0.00454377
0.00426897
0.00395042
0.00358283
0.00316089
0.00267904
0.00213012
0.00150449
0.000791547
0.000105309
0.00586513
0.0058181
0.00575446
0.00567303
0.00557217
0.00544986
0.00530371
0.00513089
0.004928
0.0046911
0.00441562
0.00409654
0.00372823
0.00330433
0.00281704
0.00225446
0.00160216
0.000845998
0.000109761
0.00600889
0.00596438
0.00590249
0.00582212
0.00572177
0.00559955
0.00545318
0.00527991
0.00507644
0.00483888
0.00456255
0.00424219
0.00387145
0.00344256
0.00294577
0.00236716
0.00168782
0.000889077
0.000112543
0.0061455
0.00610391
0.00604433
0.0059657
0.0058666
0.00574521
0.00559932
0.00542619
0.00522255
0.00498437
0.00470685
0.0043844
0.00400991
0.00357448
0.00306651
0.00247007
0.00176345
0.000925893
0.000113926
0.00627349
0.00623514
0.00617833
0.00610201
0.00600478
0.00588487
0.00574005
0.00556759
0.00536409
0.00512552
0.00484686
0.00452191
0.00414289
0.00369982
0.0031796
0.00256466
0.00183157
0.000958809
0.000114713
0.00639141
0.00635659
0.00630295
0.00622944
0.00613466
0.00601681
0.00587364
0.00570237
0.00549959
0.00526101
0.00498132
0.00465383
0.00427004
0.00381896
0.00328623
0.00265283
0.00189415
0.000988826
0.000115395
0.00649809
0.00646708
0.00641699
0.00634677
0.00625497
0.00613976
0.00599887
0.00582948
0.00562799
0.00538991
0.00510961
0.00477991
0.00439163
0.00393283
0.00338794
0.00273653
0.00195279
0.00101592
0.000116224
0.00659282
0.0065659
0.00651977
0.00645332
0.00636505
0.00625314
0.00611525
0.00594842
0.0057489
0.00551198
0.00523172
0.00490047
0.0045084
0.00404269
0.00348652
0.00281787
0.00200895
0.00103673
0.000117684
0.0066755
0.00665305
0.00661135
0.00654919
0.00646513
0.00635723
0.00622305
0.00605951
0.00586271
0.00562774
0.00534832
0.00501638
0.00462151
0.00415002
0.00358392
0.00289945
0.00206665
0.00106086
0.000120062
0.00674704
0.00672952
0.00669276
0.00663557
0.00655636
0.00645316
0.00632343
0.00616396
0.0059707
0.0057385
0.00546079
0.00512913
0.00473251
0.00425652
0.003682
0.00298373
0.00213029
0.00109968
0.000123262
0.00680926
0.00679726
0.0067661
0.00671449
0.00664083
0.00654304
0.00641851
0.00626391
0.00607501
0.00584643
0.00557131
0.00524082
0.00484346
0.00436404
0.00378238
0.00307161
0.00219827
0.00113971
0.000127306
0.00686502
0.00685923
0.0068343
0.00678895
0.00672151
0.00662986
0.00651129
0.00636236
0.00617865
0.00595454
0.00568285
0.00535435
0.00495701
0.00447495
0.00388687
0.00316414
0.00227035
0.00117933
0.000131741
0.00691811
0.00691921
0.00690117
0.0068627
0.00680213
0.00671731
0.00660547
0.00646302
0.00628537
0.00606661
0.00579918
0.0054734
0.00507665
0.00459232
0.00399803
0.00326333
0.00234857
0.00122295
0.000136401
0.00697305
0.00698167
0.00697109
0.00694004
0.00688691
0.00680956
0.00670519
0.00657008
0.00639942
0.00618698
0.00592473
0.00560241
0.0052067
0.00472015
0.00411927
0.00337183
0.00243492
0.00127211
0.000141409
0.00703485
0.00705146
0.0070487
0.00702543
0.00698017
0.00691086
0.00681467
0.00668781
0.00652522
0.00632026
0.00606436
0.00574645
0.00535232
0.00486341
0.004255
0.00349313
0.00253171
0.00132792
0.00014697
0.00710866
0.00713341
0.00713854
0.00712317
0.007086
0.00702515
0.00693785
0.00682022
0.00666696
0.00647099
0.00622302
0.00591099
0.00551937
0.00502812
0.00441087
0.00363184
0.00264199
0.00139199
0.000153149
0.00719943
0.00723202
0.0072447
0.00723697
0.00720788
0.00715576
0.00707798
0.00697064
0.00682823
0.00664319
0.0064054
0.00610152
0.00571425
0.00522133
0.00459401
0.00379417
0.00277011
0.00146672
0.000159874
0.00731158
0.0073511
0.00737049
0.00736976
0.0073484
0.00730507
0.00723735
0.00714142
0.00701163
0.00683998
0.00661546
0.0063232
0.00594358
0.00545113
0.00481332
0.00398845
0.00292192
0.00155438
0.000167688
0.00744872
0.00749358
0.00751824
0.00752342
0.00750912
0.0074744
0.00741715
0.00733373
0.0072185
0.00706317
0.00685596
0.00658036
0.00621389
0.00572662
0.00508009
0.00422626
0.00310606
0.00165791
0.000177595
0.00761354
0.00766131
0.00768924
0.00769879
0.00769054
0.00766398
0.00761739
0.00754745
0.00744875
0.00731302
0.00712801
0.00687584
0.00653093
0.00605769
0.00540868
0.00452451
0.00333687
0.00178406
0.000190079
0.00780758
0.00785503
0.00788368
0.00789572
0.0078922
0.00787308
0.00783705
0.00778125
0.00770081
0.00758794
0.00743057
0.00721018
0.0068987
0.00645432
0.00581726
0.00490865
0.00363917
0.0019448
0.000205847
0.0080311
0.0080743
0.00810078
0.00811318
0.00811291
0.00810023
0.00807427
0.00803281
0.00797178
0.00788447
0.00775994
0.00758057
0.00731763
0.00692457
0.00632761
0.00541769
0.00405959
0.00216544
0.000226913
0.00828283
0.00831753
0.0083389
0.00834957
0.00835098
0.00834354
0.00832679
0.00829917
0.00825775
0.00819743
0.00810963
0.00797966
0.00778184
0.00747017
0.00696151
0.00611014
0.00469332
0.0025201
0.000254743
0.00855969
0.00858204
0.00859579
0.00860296
0.0086046
0.00860111
0.00859228
0.00857728
0.00855439
0.00852059
0.0084706
0.00839495
0.00827587
0.00807811
0.00772746
0.00706118
0.00573494
0.00322935
0.000293123
0.00885679
0.00886431
0.00886895
0.00887145
0.0088722
0.00887135
0.00886886
0.0088645
0.00885776
0.00884772
0.00883274
0.00880983
0.00877305
0.00870961
0.00858789
0.00831537
0.00757074
0.00519222
0.000344241
)
;

boundaryField
{
    leftWall
    {
        type            nutkWallFunction;
        Cmu             0.09;
        kappa           0.41;
        E               9.8;
        value           nonuniform List<scalar> 
50
(
3.60175e-06
5.35948e-06
6.36374e-06
7.08562e-06
7.64343e-06
8.10026e-06
8.49281e-06
8.84754e-06
9.2634e-06
9.74311e-06
1.01552e-05
9.21473e-06
1.01285e-05
1.02798e-05
8.82858e-06
4.02795e-06
3.7543e-06
3.67993e-06
3.8389e-06
4.12823e-06
4.50357e-06
4.82479e-06
5.05884e-06
5.2083e-06
5.28678e-06
5.31895e-06
5.32968e-06
5.30312e-06
5.2336e-06
5.12626e-06
4.98566e-06
4.81412e-06
4.61469e-06
4.39014e-06
4.14162e-06
3.86581e-06
3.56211e-06
3.26758e-06
2.99428e-06
2.73857e-06
2.50619e-06
2.2994e-06
2.11454e-06
1.94218e-06
1.76866e-06
1.58753e-06
1.58875e-06
4.73064e-06
1.93936e-05
4.87579e-05
)
;
    }
    rightWall
    {
        type            nutkWallFunction;
        Cmu             0.09;
        kappa           0.41;
        E               9.8;
        value           nonuniform List<scalar> 
50
(
6.13658e-06
7.42081e-06
7.89641e-06
8.03409e-06
7.95276e-06
7.93185e-06
7.9496e-06
7.99567e-06
8.11252e-06
8.4398e-06
9.41547e-06
6.10808e-06
8.72035e-06
1.04261e-05
9.17245e-06
5.34019e-06
4.24244e-06
3.30155e-06
2.33334e-06
1.83099e-06
1.91481e-06
2.46436e-06
3.37763e-06
4.27272e-06
5.10665e-06
5.88129e-06
6.54618e-06
6.85143e-06
7.0699e-06
7.19192e-06
7.29657e-06
7.42283e-06
7.64733e-06
8.10538e-06
8.62353e-06
9.23823e-06
9.91105e-06
1.0597e-05
1.13391e-05
1.21708e-05
1.30699e-05
1.39956e-05
1.5153e-05
1.66272e-05
1.84326e-05
2.06895e-05
2.36677e-05
2.75505e-05
3.28147e-05
3.96785e-05
)
;
    }
    lowerWall
    {
        type            nutkWallFunction;
        Cmu             0.09;
        kappa           0.41;
        E               9.8;
        value           nonuniform List<scalar> 
62
(
1.45407e-06
2.54266e-06
3.13386e-06
3.51525e-06
3.79078e-06
4.00141e-06
4.16764e-06
4.30158e-06
4.41141e-06
4.50318e-06
4.58122e-06
4.64886e-06
4.70844e-06
4.76029e-06
4.80065e-06
4.81459e-06
4.75134e-06
4.57981e-06
4.34723e-06
4.1464e-06
3.89224e-06
3.30659e-06
1.67112e-06
1.67112e-06
6.66149e-06
8.00811e-06
9.09994e-06
1.00217e-05
1.08902e-05
1.19561e-05
1.39505e-05
1.51054e-05
1.41209e-05
1.43048e-05
1.53543e-05
1.58994e-06
6.55152e-06
7.89209e-06
9.06503e-06
1.01893e-05
1.14129e-05
1.29004e-05
1.5242e-05
1.58994e-06
3.1137e-06
3.67573e-06
3.9152e-06
4.01884e-06
4.04774e-06
4.04712e-06
4.0527e-06
4.09511e-06
4.0769e-06
3.84255e-06
3.58287e-06
3.61492e-06
3.95873e-06
4.20464e-06
4.08368e-06
3.78205e-06
3.12188e-06
2.45097e-06
)
;
    }
    atmosphere
    {
        type            calculated;
        value           nonuniform List<scalar> 
46
(
0.009
0.000163075
0.000310675
0.00086774
0.00157317
0.0022722
0.00292452
0.00351485
0.00403598
0.00448764
0.00487606
0.00521265
0.00551217
0.00579096
0.00606602
0.0063556
0.00668219
0.00708012
0.00761357
0.009
0.009
0.009
0.009
0.009
0.009
0.009
0.009
0.009
0.009
0.009
0.009
0.009
0.009
0.009
0.009
0.009
0.009
0.009
0.009
0.009
0.009
0.009
0.009
0.009
0.009
0.000344241
)
;
    }
    defaultFaces
    {
        type            empty;
    }
}


// ************************************************************************* //
