# vtk DataFile Version 2.0
track0
ASCII
DATASET POLYDATA
POINTS 12040 float
-0.0205 0.001 1e-05
-0.02052 0.000999985 1e-05
-0.02054 0.000999974 1e-05
-0.02056 0.000999965 1e-05
-0.02058 0.000999959 1e-05
-0.0206 0.000999956 1e-05
-0.0205 0.00367778 1e-05
-0.02052 0.00367778 1e-05
-0.02054 0.00367777 1e-05
-0.02056 0.00367777 1e-05
-0.02058 0.00367777 1e-05
-0.0206 0.00367777 1e-05
-0.0205 0.00635556 1e-05
-0.02052 0.00635555 1e-05
-0.02054 0.00635555 1e-05
-0.02056 0.00635555 1e-05
-0.02058 0.00635555 1e-05
-0.0206 0.00635555 1e-05
-0.0205 0.00903333 1e-05
-0.02052 0.00903333 1e-05
-0.02054 0.00903333 1e-05
-0.02056 0.00903333 1e-05
-0.02058 0.00903333 1e-05
-0.0206 0.00903333 1e-05
-0.0205 0.0117111 1e-05
-0.02052 0.0117111 1e-05
-0.02054 0.0117111 1e-05
-0.02056 0.0117111 1e-05
-0.02058 0.0117111 1e-05
-0.0206 0.0117111 1e-05
-0.0205 0.0143889 1e-05
-0.02052 0.0143889 1e-05
-0.02054 0.0143889 1e-05
-0.02056 0.0143889 1e-05
-0.02058 0.0143889 1e-05
-0.0206 0.0143889 1e-05
-0.0205 0.0170667 1e-05
-0.02052 0.0170667 1e-05
-0.02054 0.0170667 1e-05
-0.02056 0.0170667 1e-05
-0.02058 0.0170667 1e-05
-0.0206 0.0170667 1e-05
-0.0205 0.0197444 1e-05
-0.02052 0.0197444 1e-05
-0.02054 0.0197444 1e-05
-0.02056 0.0197444 1e-05
-0.02058 0.0197444 1e-05
-0.0206 0.0197444 1e-05
-0.0205 0.0224222 1e-05
-0.02052 0.0224222 1e-05
-0.02054 0.0224222 1e-05
-0.02056 0.0224222 1e-05
-0.02058 0.0224222 1e-05
-0.0206 0.0224222 1e-05
-0.0205 0.0251 1e-05
-0.02052 0.0250998 1e-05
-0.02054 0.0250997 1e-05
-0.02056 0.0250995 1e-05
-0.02058 0.0250995 1e-05
-0.0206 0.0250994 1e-05
-0.0205 0.001 1e-05
-0.0202034 0.00100022 1e-05
-0.0199069 0.00100067 1e-05
-0.0196103 0.00100132 1e-05
-0.0193137 0.00100219 1e-05
-0.0190172 0.00100326 1e-05
-0.0187132 0.00100466 1e-05
-0.0184093 0.00100588 1e-05
-0.0181054 0.0010071 1e-05
-0.0178015 0.00100832 1e-05
-0.0174976 0.00100953 1e-05
-0.0172058 0.00101083 1e-05
-0.016914 0.00101193 1e-05
-0.0166222 0.00101303 1e-05
-0.0163305 0.00101413 1e-05
-0.0160387 0.00101522 1e-05
-0.0157586 0.00101636 1e-05
-0.0154784 0.00101744 1e-05
-0.0151983 0.00101856 1e-05
-0.0149182 0.00101971 1e-05
-0.0146381 0.0010209 1e-05
-0.0143744 0.00102208 1e-05
-0.0141107 0.00102327 1e-05
-0.013847 0.00102449 1e-05
-0.0135834 0.00102574 1e-05
-0.0133607 0.00102682 1e-05
-0.0133472 0.00102688 1e-05
-0.0133338 0.00102695 1e-05
-0.0133203 0.00102702 1e-05
-0.0133069 0.00102708 1e-05
-0.0132934 0.00102715 1e-05
-0.0130353 0.00102844 1e-05
-0.0127771 0.00102974 1e-05
-0.0125189 0.00103106 1e-05
-0.0122607 0.00103239 1e-05
-0.0120025 0.00103375 1e-05
-0.0117547 0.00103505 1e-05
-0.0115068 0.00103637 1e-05
-0.0112589 0.00103769 1e-05
-0.0110111 0.00103901 1e-05
-0.0107632 0.00104034 1e-05
-0.0105252 0.00104162 1e-05
-0.0102873 0.00104289 1e-05
-0.0100493 0.00104417 1e-05
-0.00981133 0.00104545 1e-05
-0.00957337 0.00104673 1e-05
-0.00934491 0.00104795 1e-05
-0.00911645 0.00104917 1e-05
-0.00888799 0.00105039 1e-05
-0.00865954 0.0010516 1e-05
-0.00843108 0.00105281 1e-05
-0.00821175 0.00105397 1e-05
-0.00799242 0.00105513 1e-05
-0.00777309 0.00105628 1e-05
-0.00755376 0.00105743 1e-05
-0.00733443 0.00105857 1e-05
-0.00712387 0.00105966 1e-05
-0.0069133 0.00106075 1e-05
-0.00670273 0.00106184 1e-05
-0.00649216 0.00106292 1e-05
-0.0062816 0.00106399 1e-05
-0.00607944 0.00106502 1e-05
-0.00587729 0.00106604 1e-05
-0.00567514 0.00106706 1e-05
-0.00547298 0.00106808 1e-05
-0.00527083 0.00106909 1e-05
-0.00507675 0.00107005 1e-05
-0.00488267 0.00107101 1e-05
-0.0046886 0.00107197 1e-05
-0.00449452 0.00107292 1e-05
-0.00430044 0.00107387 1e-05
-0.00411412 0.00107478 1e-05
-0.0039278 0.00107568 1e-05
-0.00374147 0.00107658 1e-05
-0.00355515 0.00107748 1e-05
-0.00336883 0.00107838 1e-05
-0.00318995 0.00107923 1e-05
-0.00301107 0.00108008 1e-05
-0.00283219 0.00108093 1e-05
-0.00265331 0.00108177 1e-05
-0.00247443 0.00108262 1e-05
-0.0023027 0.00108342 1e-05
-0.00213097 0.00108423 1e-05
-0.00195924 0.00108503 1e-05
-0.0017875 0.00108583 1e-05
-0.00161577 0.00108663 1e-05
-0.0014509 0.00108738 1e-05
-0.00128603 0.00108815 1e-05
-0.00112116 0.00108891 1e-05
-0.000956289 0.00108967 1e-05
-0.000791418 0.00109043 1e-05
-0.000633135 0.00109115 1e-05
-0.000474851 0.00109188 1e-05
-0.000316567 0.00109261 1e-05
-0.000158284 0.00109333 1e-05
0 0.00109405 1e-05
0.000105677 0.00109453 1e-05
0.000211355 0.00109501 1e-05
0.000317032 0.00109548 1e-05
0.00042271 0.00109595 1e-05
0.000528387 0.00109642 1e-05
0.000634886 0.00109689 1e-05
0.000741385 0.00109735 1e-05
0.000847885 0.00109781 1e-05
0.000954384 0.00109827 1e-05
0.00106088 0.00109872 1e-05
0.00116821 0.00109917 1e-05
0.00127554 0.00109962 1e-05
0.00138286 0.00110006 1e-05
0.00149019 0.0011005 1e-05
0.00159752 0.00110093 1e-05
0.00170568 0.00110136 1e-05
0.00181384 0.00110178 1e-05
0.001922 0.0011022 1e-05
0.00203016 0.0011026 1e-05
0.00213833 0.001103 1e-05
0.00224733 0.00110338 1e-05
0.00235633 0.00110377 1e-05
0.00246533 0.00110415 1e-05
0.00257434 0.00110451 1e-05
0.00268334 0.00110487 1e-05
0.00279319 0.00110522 1e-05
0.00290304 0.00110557 1e-05
0.00301289 0.0011059 1e-05
0.00312274 0.00110623 1e-05
0.00323259 0.00110656 1e-05
0.00334329 0.00110687 1e-05
0.003454 0.00110718 1e-05
0.0035647 0.00110748 1e-05
0.0036754 0.00110777 1e-05
0.00378611 0.00110806 1e-05
0.00389767 0.00110834 1e-05
0.00400924 0.00110861 1e-05
0.0041208 0.00110888 1e-05
0.00423237 0.00110914 1e-05
0.00434393 0.00110939 1e-05
0.00445636 0.00110963 1e-05
0.00456879 0.00110986 1e-05
0.00468123 0.00111009 1e-05
0.00479366 0.00111032 1e-05
0.00490609 0.00111053 1e-05
0.0050194 0.00111073 1e-05
0.0051327 0.00111093 1e-05
0.00524601 0.00111113 1e-05
0.00535932 0.00111131 1e-05
0.00547262 0.00111149 1e-05
0.00558681 0.00111166 1e-05
0.005701 0.00111182 1e-05
0.00581518 0.00111198 1e-05
0.00592937 0.00111212 1e-05
0.00604356 0.00111227 1e-05
0.00615863 0.0011124 1e-05
0.00627371 0.00111252 1e-05
0.00638878 0.00111264 1e-05
0.00650386 0.00111276 1e-05
0.00661893 0.00111286 1e-05
0.0067349 0.00111296 1e-05
0.00685087 0.00111305 1e-05
0.00696684 0.00111313 1e-05
0.00708281 0.0011132 1e-05
0.00719878 0.00111327 1e-05
0.00727168 0.00111331 1e-05
0.00734458 0.00111334 1e-05
0.00741748 0.00111338 1e-05
0.00749038 0.00111341 1e-05
0.00756081 0.00111343 1e-05
0.00760528 0.00111344 1e-05
0.00764974 0.00111346 1e-05
0.00769421 0.00111347 1e-05
0.00773867 0.00111348 1e-05
0.00778313 0.00111349 1e-05
0.00790091 0.00111351 1e-05
0.00801869 0.00111353 1e-05
0.00813647 0.00111353 1e-05
0.00825425 0.00111353 1e-05
0.00837203 0.00111353 1e-05
0.00849073 0.0011135 1e-05
0.00860942 0.00111348 1e-05
0.00872812 0.00111345 1e-05
0.00884682 0.00111341 1e-05
0.00896551 0.00111336 1e-05
0.00908513 0.0011133 1e-05
0.00920475 0.00111323 1e-05
0.00932437 0.00111316 1e-05
0.00944398 0.00111308 1e-05
0.0095636 0.00111299 1e-05
0.00968415 0.00111289 1e-05
0.0098047 0.00111278 1e-05
0.00992525 0.00111267 1e-05
0.0100458 0.00111255 1e-05
0.0101663 0.00111242 1e-05
0.0102878 0.00111227 1e-05
0.0104093 0.00111212 1e-05
0.0105308 0.00111197 1e-05
0.0106523 0.00111181 1e-05
0.0107738 0.00111163 1e-05
0.0108962 0.00111144 1e-05
0.0110186 0.00111125 1e-05
0.0111411 0.00111105 1e-05
0.0112635 0.00111084 1e-05
0.0113859 0.00111063 1e-05
0.0115093 0.00111039 1e-05
0.0116327 0.00111016 1e-05
0.0117561 0.00110991 1e-05
0.0118795 0.00110966 1e-05
0.0120028 0.00110941 1e-05
0.0121272 0.00110912 1e-05
0.0122515 0.00110884 1e-05
0.0123759 0.00110855 1e-05
0.0125002 0.00110826 1e-05
0.0126245 0.00110795 1e-05
0.0127498 0.00110762 1e-05
0.0128752 0.0011073 1e-05
0.0130005 0.00110696 1e-05
0.0131258 0.00110662 1e-05
0.0132511 0.00110627 1e-05
0.0133774 0.00110589 1e-05
0.0135036 0.00110552 1e-05
0.0136299 0.00110514 1e-05
0.0137562 0.00110475 1e-05
0.0138825 0.00110435 1e-05
0.0140098 0.00110393 1e-05
0.014137 0.00110351 1e-05
0.0142643 0.00110308 1e-05
0.0143915 0.00110264 1e-05
0.0145188 0.00110219 1e-05
0.0146471 0.00110172 1e-05
0.0147753 0.00110125 1e-05
0.0149036 0.00110078 1e-05
0.0150318 0.00110029 1e-05
0.0151601 0.00109979 1e-05
0.0152893 0.00109927 1e-05
0.0154186 0.00109875 1e-05
0.0155478 0.00109822 1e-05
0.0156771 0.00109769 1e-05
0.0158063 0.00109714 1e-05
0.0159366 0.00109658 1e-05
0.0160668 0.001096 1e-05
0.0161971 0.00109543 1e-05
0.0163274 0.00109484 1e-05
0.0164576 0.00109424 1e-05
0.0165889 0.00109363 1e-05
0.0167201 0.00109301 1e-05
0.0168514 0.00109238 1e-05
0.0169827 0.00109174 1e-05
0.0171139 0.00109109 1e-05
0.0172462 0.00109043 1e-05
0.0173785 0.00108976 1e-05
0.0175108 0.00108908 1e-05
0.0176431 0.00108839 1e-05
0.0177754 0.00108769 1e-05
0.0179087 0.00108698 1e-05
0.018042 0.00108626 1e-05
0.0181753 0.00108553 1e-05
0.0183087 0.00108478 1e-05
0.018442 0.00108404 1e-05
0.0185763 0.00108328 1e-05
0.0187107 0.00108251 1e-05
0.018845 0.00108172 1e-05
0.0189794 0.00108093 1e-05
0.0191137 0.00108013 1e-05
0.0192491 0.00107933 1e-05
0.0193845 0.00107851 1e-05
0.0195199 0.00107767 1e-05
0.0196553 0.00107682 1e-05
0.0197907 0.00107597 1e-05
0.0199272 0.00107512 1e-05
0.0200636 0.00107425 1e-05
0.0202001 0.00107336 1e-05
0.0203365 0.00107246 1e-05
0.020473 0.00107156 1e-05
0.0206105 0.00107066 1e-05
0.020748 0.00106974 1e-05
0.0208855 0.0010688 1e-05
0.021023 0.00106784 1e-05
0.0211606 0.0010669 1e-05
0.0212991 0.00106595 1e-05
0.0214377 0.00106498 1e-05
0.0215763 0.00106398 1e-05
0.0217149 0.00106298 1e-05
0.0218535 0.00106198 1e-05
0.0219931 0.00106098 1e-05
0.0221328 0.00105996 1e-05
0.0222724 0.00105891 1e-05
0.0224121 0.00105786 1e-05
0.0225517 0.00105681 1e-05
0.0226925 0.00105576 1e-05
0.0228332 0.00105469 1e-05
0.022974 0.00105359 1e-05
0.0231147 0.00105248 1e-05
0.0232555 0.00105139 1e-05
0.0233973 0.00105029 1e-05
0.0235391 0.00104916 1e-05
0.023681 0.00104801 1e-05
0.0238228 0.00104685 1e-05
0.0239647 0.0010457 1e-05
0.0241076 0.00104455 1e-05
0.0242505 0.00104338 1e-05
0.0243935 0.00104217 1e-05
0.0245364 0.00104096 1e-05
0.0246794 0.00103976 1e-05
0.0248234 0.00103856 1e-05
0.0249675 0.00103733 1e-05
0.0251115 0.00103608 1e-05
0.0252556 0.00103481 1e-05
[...]
POINT_DATA 12040
 FIELD attributes 3
age 1 12040 float
0 -2e-05 -4e-05 -6e-05 -8e-05 -0.0001
0 -2e-05 -4e-05 -6e-05 -8e-05 -0.0001
0 -2e-05 -4e-05 -6e-05 -8e-05 -0.0001
0 -2e-05 -4e-05 -6e-05 -8e-05 -0.0001
0 -2e-05 -4e-05 -6e-05 -8e-05 -0.0001
0 -2e-05 -4e-05 -6e-05 -8e-05 -0.0001
0 -2e-05 -4e-05 -6e-05 -8e-05 -0.0001
0 -2e-05 -4e-05 -6e-05 -8e-05 -0.0001
0 -2e-05 -4e-05 -6e-05 -8e-05 -0.0001
0 -2.00009e-05 -4.00018e-05 -6.00027e-05 -8.00036e-05 -0.000100002
0 0.000296567 0.000593135 0.000889702 0.00118627 0.00148284 0.00178676 0.00209069 0.00239461 0.00269853 0.00300245 0.00329423 0.00358601 0.00387779 0.00416957 0.00446135 0.00474147 0.00502159 0.00530171 0.00558183 0.00586196 0.00612564 0.00638932 0.006653 0.00691668 0.00713939 0.00715284 0.00716628 0.00717972 0.00719317 0.00720661 0.0074648 0.00772298 0.00798117 0.00823935 0.00849754 0.00874541 0.00899328 0.00924116 0.00948903 0.0097369 0.00997487 0.0102128 0.0104508 0.0106888 0.0109267 0.0111552 0.0113837 0.0116121 0.0118406 0.012069 0.0122884 0.0125077 0.012727 0.0129464 0.0131657 0.0133763 0.0135868 0.0137974 0.014008 0.0142186 0.0144207 0.0146229 0.014825 0.0150272 0.0152293 0.0154234 0.0156175 0.0158116 0.0160057 0.0161997 0.0163861 0.0165724 0.0167587 0.016945 0.0171314 0.0173102 0.0174891 0.017668 0.0178469 0.0180258 0.0181975 0.0183692 0.018541 0.0187127 0.0188844 0.0190493 0.0192142 0.0193791 0.0195439 0.0197088 0.0198671 0.0200254 0.0201837 0.0203419 0.0205002 0.0206059 0.0207116 0.0208173 0.0209229 0.0210286 0.0211351 0.0212416 0.0213481 0.0214546 0.0215611 0.0216684 0.0217758 0.0218831 0.0219904 0.0220978 0.0222059 0.0223141 0.0224222 0.0225304 0.0226386 0.0227476 0.0228566 0.0229656 0.0230746 0.0231836 0.0232934 0.0234033 0.0235131 0.023623 0.0237328 0.0238435 0.0239542 0.0240649 0.0241757 0.0242864 0.0243979 0.0245095 0.0246211 0.0247326 0.0248442 0.0249566 0.025069 0.0251815 0.0252939 0.0254063 0.0255196 0.025633 0.0257463 0.0258596 0.0259729 0.0260871 0.0262012 0.0263154 0.0264296 0.0265438 0.0266589 0.026774 0.026889 0.0270041 0.0271192 0.0272352 0.0273511 0.0274671 0.0275831 0.027699 0.0277719 0.0278448 0.0279177 0.0279906 0.0280611 0.0281055 0.02815 0.0281945 0.0282389 0.0282834 0.0284012 0.0285189 0.0286367 0.0287545 0.0288723 0.028991 0.0291097 0.0292284 0.0293471 0.0294658 0.0295854 0.029705 0.0298246 0.0299442 0.0300639 0.0301844 0.030305 0.0304255 0.0305461 0.0306666 0.0307881 0.0309096 0.0310311 0.0311525 0.031274 0.0313965 0.0315189 0.0316413 0.0317637 0.0318862 0.0320096 0.0321329 0.0322563 0.0323797 0.0325031 0.0326274 0.0327518 0.0328761 0.0330005 0.0331248 0.0332501 0.0333754 0.0335007 0.033626 0.0337513 0.0338776 0.0340039 0.0341302 0.0342565 0.0343828 0.03451 0.0346373 0.0347645 0.0348918 0.0350191 0.0351473 0.0352756 0.0354038 0.0355321 0.0356603 0.0357896 0.0359189 0.0360481 0.0361774 0.0363066 0.0364369 0.0365671 0.0366974 0.0368276 0.0369579 0.0370892 0.0372204 0.0373517 0.037483 0.0376142 0.0377465 0.0378788 0.0380111 0.0381434 0.0382757 0.038409 0.0385423 0.0386756 0.038809 0.0389423 0.0390766 0.039211 0.0393454 0.0394797 0.0396141 0.0397495 0.0398849 0.0400203 0.0401557 0.0402911 0.0404275 0.040564 0.0407004 0.0408369 0.0409733 0.0411109 0.0412484 0.0413859 0.0415234 0.0416609 0.0417995 0.0419381 0.0420767 0.0422153 0.0423538 0.0424935 0.0426332 0.0427728 0.0429125 0.0430521 0.0431929 0.0433336 0.0434744 0.0436151 0.0437559 0.0438977 0.0440396 0.0441814 0.0443233 0.0444651 0.0446081 0.044751 0.0448939 0.0450369 0.0451798 0.0453239 0.045468 0.045612 0.0457561 0.0459001 0.0460453 0.0461905 0.0463357 0.0464808 0.046626 0.0467723 0.0469186 0.0470649 0.0472112 0.0473576 0.047505 0.0476524 0.0477999 0.0479473 0.0480948 0.0482434 0.048392 0.0485406 0.0486891 0.0488377 0.0489875 0.0491372 0.049287 0.0494367 0.0495865 0.0497374 0.0498883 0.0500392 0.0501901 0.050341 0.0504931 0.0506452 0.0507973 0.0509494 0.0511015 0.0512547 0.051408 0.0515613 0.0517145 0.0518678 0.0520223 0.0521767 0.0523312 0.0524857 0.0526401 0.0527958 0.0529515 0.0531071 0.0532628 0.0534184 0.0535753 0.0537322 0.0538891 0.0540459 0.0542028 0.0543609 0.054519 0.0546771 0.0548352 0.0549933 0.0550795 0.0551657 0.0552519 0.0553381 0.0554224 0.0554959 0.0555694 0.0556429 0.0557164 0.0557899 0.0559505 0.056111 0.0562716 0.0564322 0.0565927 0.0567545 0.0569163 0.0570782 0.05724 0.0574018 0.0575649 0.0577279 0.057891 0.0580541 0.0582171 0.0583815 0.0585458 0.0587102 0.0588745 0.0590389 0.0592045 0.0593701 0.0595357 0.0597013 0.0598669 0.0600339 0.0602008 0.0603677 0.0605346 0.0607015 0.0608697 0.0610379 0.0612061 0.0613743 0.0615425 0.061712 0.0618816 0.0620511 0.0622206 0.0623901 0.0625609 0.0627318 0.0629026 0.0630735 0.0632443 0.0634165 0.0635886 0.0637608 0.063933 0.0641051 0.0642786 0.0644521 0.0646256 0.0647991 0.0649727 0.0651475 0.0653224 0.0654972 0.0656721 0.0658469 0.0660232 0.0661994 0.0663756 0.0665518 0.066728 0.0669056 0.0670832 0.0672608 0.0674384 0.067616 0.067795 0.0679739 0.0681529 0.0683319 0.0685109 0.0686912 0.0688716 0.069052 0.0692323 0.0694127 0.0695945 0.0697763 0.069958 0.0701398 0.0703216 0.0705048 0.070688 0.0708712 0.0710543 0.0712375 0.0714222 0.0716068 0.0717914 0.071976 0.0721606 0.0723467 0.0725327 0.0727188 0.0729049 0.0730909 0.0732784 0.0734659 0.0736534 0.0738409 0.0740285 0.0742174 0.0744064 0.0745954 0.0747843 0.0749733 0.0751384 0.0753034 0.0754684 0.0756334 0.0757892 0.0758165 0.0758437 0.075871 0.0758983 0.0759256 0.0761175 0.0763094 0.0765013 0.0766933 0.0768852 0.0770786 0.0772721 0.0774655 0.0776589 0.0778524 0.0780473 0.0782422 0.0784372 0.0786321 0.0788271 0.0790235 0.07922 0.0794164 0.0796129 0.0798094 0.0800074 0.0802054 0.0804033 0.0806013 0.0807994 0.0809989 0.0811984 0.081398 0.0815975 0.0817971 0.0819982 0.0821993 0.0824004 0.0826015 0.0828026 0.0830053 0.0832079 0.0834106 0.0836133 0.083816 0.0840202 0.0842245 0.0844288 0.084633 0.0848373 0.0850432 0.085249 0.0854549 0.0856607 0.0858666 0.0860741 0.0862816 0.086489 0.0866965 0.086904 0.0871131 0.0873222 0.0875313 0.0877404 0.0879495 0.0881602 0.088371 0.0885817 0.0887924 0.0890032 0.0892156 0.089428 0.0896403 0.0898527 0.0900651 0.0901349 0.0902046 0.0902744 0.0903442 0.0904123 0.0905569 0.0907016 0.0908462 0.0909908 0.0911354 0.0913512 0.0915669 0.0917826 0.0919984 0.0922141 0.0924316 0.092649 0.0928664 0.0930838 0.0933013 0.0935204 0.0937396 0.0939587 0.0941778 0.094397 0.0946179 0.0948387 0.0950596 0.0952805 0.0955014 0.095724 0.0959466 0.0961692 0.0963917 0.0966144 0.0968387 0.0970631 0.0972874 0.0975118 0.0977362 0.0979623 0.0981884 0.0984146 0.0986407 0.0988668 0.0990947 0.0993226 0.0995505 0.0997785 0.100006 0.100232 0.100457 0.100683 0.100908 0.101118 0.101126 0.101133 0.10114 0.101148 0.101155 0.101386 0.101618 0.10185 0.102081 0.102313 0.102546 0.102779 0.103013 0.103246 0.103479 0.103715 0.10395 0.104185 0.10442 0.104655 0.104893 0.10513 0.105367 0.105604 0.105841 0.10608 0.106319 0.106558 0.106797 0.107036 0.107276 0.107517 0.107758 0.107999 0.10824 0.108483 0.108725 0.108968 0.109211 0.109454 0.109633 0.109812 0.109991 0.110171 0.110342 0.110409 0.110476 0.110543 0.11061 0.110677 0.110924 0.11117 0.111417 0.111664 0.11191 0.112159 0.112407 0.112656 0.112905 0.113153 0.113404 0.113654 0.113905 0.114156 0.114406 0.114659 0.114911 0.115164 0.115417 0.115669 0.115924 0.116178 0.116433 0.116688 0.116942 0.117199 0.117456 0.117712 0.117969 0.118226 0.1183 0.118375 0.11845 0.118524 0.118598 0.118782 0.118966 0.119151 0.119335 0.119519 0.11978 0.120041 0.120301 0.120562 0.120823 0.121086 0.121349 0.121612 0.121875 0.122138 0.122403 0.122667 0.122932 0.123197 0.123463 0.12373 0.123997 0.124264 0.124531 0.124798 0.125068 0.125337 0.125606 0.125875 0.126145 0.126151 0.126157 0.126163 0.126169 0.126175 0.12644 0.126706 0.126971 0.127237 0.127502 0.127776 0.128049 0.128323 0.128597 0.12887 0.129146 0.129422 0.129698 0.129974 0.13025 0.130528 0.130806 0.131084 0.131362 0.131641 0.131921 0.132201 0.132482 0.132762 0.133042 0.133084 0.133125 0.133166 0.133207 0.133248 0.13349 0.133731 0.133973 0.134214 0.134456 0.134741 0.135026 0.135311 0.135596 0.135881 0.136168 0.136455 0.136743 0.13703 0.137317 0.137607 0.137897 0.138186 0.138476 0.138766 0.139001 0.139236 0.139471 0.139706 0.139932 0.13999 0.140049 0.140108 0.140167 0.140226 0.14052 0.140815 0.141109 0.141403 0.141698 0.141995 0.142291 0.142588 0.142885 0.143182 0.143481 0.143781 0.14408 0.144379 0.144679 0.14498 0.145282 0.145584 0.145885 0.146187 0.146212 0.146236 0.146261 0.146285 0.14631 0.146589 0.146869 0.147149 0.147429 0.147708 0.148015 0.148322 0.148629 0.148935 0.149242 0.149551 0.149861 0.15017 0.150479 0.150789 0.1511 0.151412 0.151724 0.152036 0.152348 0.152368 0.152388 0.152408 0.152428 0.152448 0.152743 0.153037 0.153331 0.153625 0.15392 0.154237 0.154554 0.154871 0.155187 0.155505 0.155824 0.156144 0.156463 0.156783 0.157103 0.157364 0.157626 0.157888 0.15815 0.158403 0.158466 0.158528 0.15859 0.158652 0.158714 0.159039 0.159364 0.159689 0.160013 0.160339 0.160666 0.160994 0.161321 0.161649 0.161977 0.162307 0.162637 0.162967 0.163297 0.163628 0.163748 0.163869 0.163989 0.164109 0.164228 0.164441 0.164654 0.164867 0.16508 0.165293 0.165628 0.165964 0.1663 0.166635 0.166971 0.16731 0.167648 0.167986 0.168325 0.168663 0.168927 0.169191 0.169455 0.169719 0.169978 0.170056 0.170134 0.170213 0.170291 0.170369 0.170713 0.171057 0.171401 0.171744 0.172088 0.172435 0.172782 0.173128 0.173475 0.173822 0.174171 0.17452 0.17487 0.175219 0.175569 0.175597 0.175626 0.175655 0.175684 0.175712 0.176036 0.176359 0.176682 0.177006 0.177329 0.177684 0.178039 0.178394 0.178749 0.179104 0.179461 0.179819 0.180176 0.180534 0.180892 0.18096 0.181028 0.181097 0.181165 0.181233 0.181525 0.181817 0.182109 0.182401 0.182693 0.183057 0.18342 0.183783 0.184146 0.184509 0.184875 0.185241 0.185606 0.185972 0.186338 0.186423 0.186508 0.186592 0.186677 0.186762 0.187046 0.18733 0.187613 0.187897 0.188181 0.188552 0.188923 0.189295 0.189666 0.190037 0.190411 0.190785 0.191159 0.191533 0.191907 0.192009 0.192111 0.192214 0.192316 0.192419 0.192693 0.192967 0.193242 0.193516 0.19379 0.194169 0.194548 0.194928 0.195307 0.195686 0.196068 0.19645 0.196833 0.197215 0.197596 0.197746 0.197896 0.198046 0.198196 0.198348 0.198583 0.198817 0.199051 0.199286 0.19952 0.199907 0.200295 0.200682 0.20107 0.201457 0.201847 0.202237 0.202628 0.203018 0.203407 0.203672 0.203937 0.204202 0.204467 0.204743 0.204869 0.204995 0.20512 0.205246 0.205372 0.205767 0.206163 0.206559 0.206954 0.207349 0.207748 0.208146 0.208545 0.208943 0.209341 0.209742 0.210143 0.210545 0.210946 0.211346 0.211456 0.211566 0.211676 0.211786 0.211898 0.212192 0.212485 0.212779 0.213073 0.213366 0.213773 0.21418 0.214586 0.214993 0.215399 0.215809 0.216219 0.216629 0.217038 0.217447 0.21786 0.218272 0.218685 0.219097 0.219509 0.219688 0.219866 0.220044 0.220223 0.220413 0.220648 0.220882 0.221117 0.221351 0.221586 0.222004 0.222422 0.222841 0.223259 0.223677 0.224098 0.224519 0.22494 0.225361 0.225782 0.226206 0.22663 0.227054 0.227478 0.227901 0.228312 0.228722 0.229132 0.229543 0.229952 0.230011 0.23007 0.230128 0.230187 0.230247 0.230614 0.230981 0.231348 0.231715 0.232081 0.232524 0.232966 0.233408 0.23385 0.234292 0.234752 0.235211 0.23567 0.236129 0.236588 0.236893 0.237197 0.237502 0.237806 0.238151 0.238315 0.23848 0.238644 0.238809 0.238973 0.239469 0.239964 0.240459 0.240955 0.24145 0.241965 0.24248 0.242994 0.243509 0.244024 0.244558 0.245093 0.245628 0.246163 0.246697 0.247124 0.24755 0.247976 0.248402 0.248906 0.24902 0.249134 0.249248 0.249362 0.249475 0.250053 0.25063 0.251207 0.251785 0.252362 0.252962 0.253562 0.254162 0.254761 0.255362 0.255985 0.256608 0.257232 0.257855 0.258479 0.259126 0.259774 0.260422 0.26107 0.261718 0.262391 0.263064 0.263737 0.26441 0.265084 0.265159 0.265235 0.26531 0.265386 0.265463 0.266087 0.266711 0.267334 0.267958 0.268581 0.269308 0.270035 0.270762 0.271489 0.272216 0.272972 0.273727 0.274483 0.275238 0.275994 0.276779 0.277564 0.278349 0.279134 0.279919 0.280735 0.281551 0.282367 0.283182 0.283998 0.284846 0.285694 0.286541 0.287389 0.288237 0.289118 0.289999 0.29088 0.291761 0.292642 0.293557 0.294472 0.295388 0.296303 0.297219 0.297542 0.297866 0.298189 0.298513 0.298882 0.299501 0.300119 0.300737 0.301356 0.301974 0.302963 0.303951 0.304939 0.305928 0.306916 0.307942 0.308969 0.309995 0.311022 0.312047