/*--------------------------------*- C++ -*----------------------------------*\
  =========                 |
  \\      /  F ield         | OpenFOAM: The Open Source CFD Toolbox
   \\    /   O peration     | Website:  https://openfoam.org
    \\  /    A nd           | Version:  9
     \\/     M anipulation  |
\*---------------------------------------------------------------------------*/
FoamFile
{
    format      ascii;
    class       volScalarField;
    location    "2.66";
    object      k;
}
// * * * * * * * * * * * * * * * * * * * * * * * * * * * * * * * * * * * * * //

dimensions      [0 2 -2 0 0 0 0];

internalField   nonuniform List<scalar> 
2268
(
0.00129251
0.00357849
0.00526437
0.00658258
0.00764883
0.00852602
0.0092504
0.00985069
0.0103509
0.0107693
0.0111281
0.0114238
0.0116478
0.0117998
0.0118706
0.0118174
0.0114734
0.010866
0.0101778
0.00934362
0.0079255
0.00548209
0.00218331
0.00305712
0.00852056
0.0120601
0.0148492
0.0171251
0.0190006
0.0205498
0.021834
0.0229054
0.0238046
0.0245575
0.0251559
0.0255976
0.0258689
0.0259373
0.025731
0.0251067
0.0240319
0.0225905
0.0205674
0.0173838
0.0124014
0.00484651
0.00452295
0.0115211
0.0158869
0.0193253
0.0221415
0.0244665
0.0263895
0.0279849
0.0293162
0.0304332
0.0313587
0.0320943
0.0326327
0.0329544
0.0330199
0.0327572
0.0320515
0.0308447
0.0291008
0.0265476
0.0225931
0.0164691
0.00648913
0.00581191
0.0139889
0.0188908
0.0227319
0.0258869
0.0284985
0.0306629
0.0324622
0.033966
0.0352286
0.0362722
0.0371019
0.0377084
0.0380698
0.038146
0.0378706
0.0371469
0.0358959
0.0340154
0.0311964
0.0268132
0.0198968
0.00784755
0.00696305
0.0161984
0.0215329
0.0256751
0.0290793
0.0319021
0.0342458
0.0361978
0.0378335
0.0392089
0.040347
0.0412537
0.0419192
0.0423216
0.0424229
0.0421635
0.0414587
0.0402169
0.0382996
0.035377
0.0307829
0.0232768
0.00917598
0.00801515
0.0182396
0.0239665
0.0283623
0.0319679
0.034958
0.0374424
0.0395151
0.041257
0.0427246
0.0439431
0.0449179
0.0456395
0.0460872
0.0462266
0.0460057
0.0453487
0.0441599
0.0422852
0.0393921
0.0347983
0.0269697
0.0109191
0.00898981
0.0201607
0.0262627
0.0308892
0.0346681
0.0377962
0.0403939
0.042563
0.0443913
0.0459362
0.047225
0.0482624
0.0490394
0.0495374
0.0497267
0.0495627
0.0489791
0.0478828
0.0461204
0.0433788
0.0390034
0.0313591
0.0139022
0.0099111
0.0219894
0.0284596
0.0333072
0.0372425
0.0404873
0.043176
0.0454215
0.0473195
0.0489293
0.05028
0.051376
0.0522089
0.0527623
0.0530116
0.0529207
0.0524334
0.0514663
0.0498787
0.0473906
0.0434499
0.0367447
0.021068
0.00174184
0.00534523
0.00723646
0.00807096
0.00837738
0.00840332
0.00804812
0.00716089
0.00618402
0.00596791
0.00620024
0.00615555
0.00587628
0.0059278
0.00614769
0.00578276
0.00451528
0.00277498
0.00126467
0.00476672
0.0116362
0.0155438
0.0174896
0.0183326
0.0183732
0.0175675
0.0158257
0.0141336
0.0136248
0.0137905
0.013578
0.0129396
0.0128161
0.0126948
0.0118514
0.009714
0.0065438
0.00251372
0.00694895
0.0156889
0.0203563
0.0226327
0.023581
0.023547
0.0225444
0.0207013
0.0189545
0.0182037
0.0180356
0.0176297
0.0169154
0.0164867
0.016004
0.0148269
0.0124004
0.00875809
0.0034004
0.0091128
0.0195026
0.024381
0.0266451
0.0275094
0.0273502
0.0262118
0.0243752
0.0226683
0.021748
0.0212989
0.0207191
0.01991
0.0192326
0.0184366
0.0169822
0.0144266
0.0105133
0.00413922
0.0114555
0.023399
0.0281285
0.0301688
0.0308507
0.0305477
0.0293206
0.0275198
0.0258602
0.0248091
0.0241292
0.0233893
0.0224673
0.0215771
0.0205178
0.0188108
0.016124
0.0120151
0.00479084
0.0143454
0.027419
0.0317093
0.0333952
0.0338478
0.0333981
0.0321162
0.0303707
0.0287592
0.0275981
0.0267174
0.0258218
0.0247751
0.023698
0.0224209
0.020496
0.0176021
0.0132605
0.0053257
0.0184396
0.0315857
0.0351835
0.0364216
0.0366095
0.0360103
0.0346984
0.0330307
0.0314713
0.0302126
0.0291488
0.0280939
0.0269181
0.0256777
0.024223
0.0221363
0.0190221
0.0143178
0.00590103
0.0254124
0.0360147
0.0385694
0.0392983
0.0391997
0.0384489
0.0371217
0.0355426
0.0340343
0.0326921
0.0314603
0.0302423
0.0289425
0.0275624
0.0259666
0.0237777
0.0205183
0.0154779
0.00666681
0.0112475
0.0247195
0.0317743
0.0369651
0.0411285
0.0445295
0.0473306
0.0496672
0.0516451
0.0533332
0.0547646
0.0559443
0.056864
0.0575107
0.0578684
0.0579163
0.0576186
0.0569143
0.0556856
0.053713
0.0506594
0.0460402
0.0388798
0.0127815
0.0281123
0.036005
0.0416903
0.0461455
0.0497012
0.0525795
0.0549598
0.0569809
0.0587309
0.0602502
0.0615435
0.0625968
0.0633969
0.0639409
0.0642341
0.0642819
0.0640561
0.0634728
0.0623688
0.0604944
0.0576785
0.0542522
0.0141475
0.0313101
0.0401207
0.0463527
0.0510883
0.0547225
0.0575722
0.0598894
0.0618753
0.0636414
0.0652344
0.0666562
0.0678698
0.0688517
0.0696138
0.0701864
0.0706278
0.0709592
0.0711585
0.071077
0.0702692
0.0681761
0.0657248
0.0157017
0.0346768
0.0443003
0.0511189
0.0561271
0.0597208
0.0623902
0.0644854
0.0663377
0.0680745
0.0697397
0.0713322
0.0727514
0.0739476
0.0749659
0.0757976
0.0766203
0.0775269
0.0785947
0.0798761
0.0806254
0.0780058
0.0753864
0.0192472
0.0397681
0.0488779
0.0563346
0.061541
0.064719
0.0670589
0.0687331
0.070314
0.0719873
0.0737698
0.0756054
0.0772135
0.0785256
0.0795585
0.0805435
0.0815737
0.0826921
0.0843326
0.0871646
0.0902057
0.0863273
0.0835822
0.0230677
0.0436611
0.0531789
0.0606112
0.0648438
0.0683431
0.0708183
0.0723979
0.0737384
0.0753216
0.077177
0.0791561
0.0808651
0.08235
0.0837618
0.0849904
0.0859723
0.0865232
0.0877911
0.0903877
0.0914574
0.0899167
0.0875929
0.0244307
0.0449795
0.0555963
0.0619269
0.0661814
0.0696786
0.0727789
0.0747989
0.0763532
0.0780783
0.0802414
0.0824824
0.0842066
0.0857861
0.0869355
0.0883002
0.0892624
0.0891574
0.0898218
0.0919294
0.0931696
0.0928454
0.0915583
0.0223887
0.0429902
0.0557253
0.0625072
0.0669698
0.0705646
0.0740694
0.0766843
0.0786281
0.080483
0.0829385
0.085529
0.0866777
0.087057
0.087417
0.0880903
0.0888553
0.0892587
0.0906409
0.0931237
0.0950698
0.0945867
0.0937719
0.0188715
0.0372124
0.0518671
0.0605415
0.0668806
0.0718377
0.0759788
0.078946
0.0809749
0.0821947
0.0835187
0.0849515
0.0853389
0.0853964
0.0855886
0.0858604
0.0863287
0.0869719
0.0884666
0.0906859
0.0925681
0.0928104
0.0907177
0.0156239
0.032686
0.0484751
0.059116
0.0676085
0.0737242
0.0772755
0.0792057
0.0806423
0.0812527
0.081712
0.0823159
0.0826125
0.0828216
0.0829676
0.0831052
0.0833904
0.0838781
0.0849078
0.0864124
0.0877533
0.0879919
0.0857814
0.0146751
0.0338231
0.0491066
0.0597815
0.0681158
0.0732264
0.0754989
0.0769501
0.0780054
0.0785418
0.0789216
0.0793246
0.0796265
0.0798551
0.0799826
0.0800752
0.0802442
0.0805567
0.0811469
0.0819668
0.082637
0.0824366
0.0805896
0.0168824
0.038091
0.0506543
0.0595015
0.0662363
0.0703201
0.0725137
0.0739357
0.0749197
0.0755271
0.0759533
0.0763083
0.0765779
0.0767638
0.0768646
0.0769344
0.0770441
0.077241
0.0775456
0.0778714
0.0779772
0.0774336
0.0758757
0.0196022
0.0401432
0.050718
0.0581304
0.0636295
0.067226
0.069435
0.0708943
0.0718971
0.0725687
0.0730334
0.0733694
0.0736025
0.0737518
0.0738413
0.0739122
0.0740013
0.0741198
0.074236
0.0742511
0.0739963
0.073264
0.071904
0.0205715
0.0405684
0.0499716
0.056355
0.0610365
0.0642881
0.0664665
0.0679568
0.0689931
0.0697065
0.0701948
0.0705257
0.0707429
0.0708826
0.0709805
0.0710661
0.071152
0.0712232
0.0712275
0.0710749
0.0706526
0.0698612
0.0686726
0.0205231
0.0398818
0.0485966
0.0543147
0.0584725
0.0614707
0.0635938
0.0650976
0.0661623
0.0669065
0.0674165
0.0677582
0.0679837
0.0681379
0.0682589
0.0683668
0.0684606
0.0685131
0.0684697
0.0682578
0.0678055
0.067068
0.0660541
0.0199585
0.0384894
0.046751
0.0520523
0.0558819
0.0587027
0.0607699
0.0622759
0.0633632
0.0641357
0.064673
0.0650404
0.065293
0.0654782
0.0656319
0.0657689
0.0658821
0.0659422
0.0659013
0.0657042
0.065305
0.0646843
0.063859
0.0190949
0.0366692
0.0445792
0.0496106
0.053235
0.0559374
0.0579604
0.0594661
0.0605743
0.0613773
0.0619496
0.0623548
0.0626479
0.0628751
0.0630696
0.0632433
0.0633883
0.0634788
0.063476
0.0633391
0.0630376
0.0625619
0.061927
0.0180404
0.0345995
0.042197
0.0470377
0.0505301
0.0531559
0.0551499
0.0566592
0.057791
0.0586294
0.0592449
0.0596982
0.0600423
0.0603207
0.0605641
0.0607836
0.060973
0.0611118
0.0611702
0.061118
0.0609334
0.0606098
0.0601569
0.0168485
0.0323825
0.0396862
0.0443789
0.0477817
0.0503592
0.0523387
0.0538593
0.0550206
0.0559017
0.0565689
0.0570799
0.0574847
0.0578237
0.0581252
0.0584006
0.0586462
0.0588468
0.05898
0.0590232
0.0589598
0.0587832
0.0584977
0.0155366
0.0300708
0.0371017
0.0416738
0.0450132
0.047562
0.0495399
0.0510808
0.0522798
0.053212
0.0539403
0.0545191
0.0549945
0.055404
0.0557737
0.0561154
0.0564277
0.0566998
0.0569153
0.0570568
0.0571106
0.0570698
0.0569339
0.0141185
0.0276921
0.0344842
0.0389597
0.0422543
0.0447892
0.0467767
0.0483474
0.0495931
0.0505857
0.0513848
0.0520412
0.0525975
0.0530876
0.0535357
0.0539537
0.0543418
0.0546925
0.0549938
0.0552322
0.0553959
0.0554772
0.0554727
0.0127184
0.0252541
0.0318739
0.0362771
0.0395418
0.042074
0.044081
0.0456904
0.0469917
0.0480539
0.0489332
0.0496766
0.0503232
0.0509036
0.0514395
0.0519425
0.0524136
0.0528481
0.0532366
0.0535685
0.0538334
0.0540234
0.0541331
0.0114716
0.0229014
0.0293328
0.033675
0.0369191
0.0394566
0.0414905
0.0431461
0.0445107
0.0456505
0.0466184
0.0474576
0.0482031
0.048882
0.0495136
0.0501085
0.0506683
0.0511895
0.0516651
0.0520862
0.0524439
0.0527303
0.0529388
0.0103388
0.020792
0.0269726
0.0312289
0.0344442
0.0369862
0.0390501
0.0407571
0.0421912
0.0434153
0.0444783
0.0454195
0.0462697
0.0470528
0.0477854
0.0484769
0.0491287
0.0497382
0.0502997
0.0508059
0.0512487
0.0516206
0.0519148
0.00933955
0.0189812
0.0248632
0.0290025
0.0321738
0.0347144
0.0368074
0.0385676
0.0400745
0.0413865
0.0425483
0.0435947
0.0445528
0.0454429
0.046279
0.0470691
0.0478142
0.0485121
0.0491577
0.0497449
0.0502664
0.0507151
0.0510842
0.00848847
0.0174682
0.0230332
0.0270326
0.0301469
0.0326799
0.0348002
0.0366142
0.0381952
0.0395965
0.0408582
0.0420107
0.0430771
0.0440743
0.045014
0.0459026
0.0467407
0.0475257
0.0482534
0.048918
0.0495129
0.0500315
0.0504671
0.00777973
0.0162133
0.021475
0.0253298
0.028383
0.0309069
0.0330546
0.0349231
0.0365788
0.0380695
0.0394303
0.0406875
0.0418604
0.0429628
0.0440043
0.04499
0.0459195
0.0467902
0.0475978
0.0483369
0.0490013
0.0495847
0.0500806
0.00719476
0.0151725
0.0201677
0.02389
0.0268883
0.0294076
0.0315857
0.0335103
0.0352409
0.0368198
0.0382776
0.0396364
0.0409126
0.0421172
0.0432578
0.0443384
0.0453578
0.046313
0.0471994
0.0480115
0.0487431
0.0493881
0.0499403
0.00671655
0.0143196
0.0190949
0.0227074
0.0256639
0.0281864
0.0303996
0.0323822
0.0341872
0.035852
0.0374031
0.0388596
0.0402351
0.0415387
0.0427762
0.0439503
0.0450592
0.0460991
0.0470648
0.0479503
0.0487491
0.0494548
0.0500613
0.0063372
0.0136479
0.0182518
0.0217797
0.024709
0.0272431
0.0294951
0.031536
0.0334134
0.0351604
0.0368004
0.0383503
0.0398216
0.0412218
0.0425554
0.0438238
0.0450243
0.046152
0.0472005
0.0481627
0.0490311
0.049799
0.0504601
0.00605669
0.0131617
0.0176395
0.0211063
0.0240203
0.0265714
0.0288632
0.0309603
0.032906
0.0347304
0.0364548
0.0380942
0.0396591
0.0411559
0.0425877
0.0439547
0.0452528
0.0464755
0.0476143
0.0486602
0.0496042
0.0504384
0.0511567
0.00587663
0.0128638
0.0172564
0.0206809
0.0235875
0.0261568
0.0284859
0.0306347
0.0326432
0.0345396
0.036344
0.0380706
0.0397293
0.0413259
0.0428623
0.0443372
0.0457447
0.0470753
0.0483175
0.0494591
0.0504886
0.0513967
0.0521766
0.00579389
0.0127472
0.0170899
0.0204867
0.0233897
0.0259753
0.0283367
0.0305308
0.0325959
0.0345592
0.0364404
0.0382541
0.0400101
0.041714
0.0433671
0.0449661
0.0465021
0.0479616
0.0493279
0.0505836
0.0517134
0.0527058
0.0535539
0.0057977
0.0127926
0.0171148
0.0204948
0.0233954
0.0259937
0.0283812
0.0306139
0.0327295
0.0347553
0.0367121
0.0386152
0.0404758
0.0423
0.0440888
0.0458368
0.047531
0.0491512
0.0506723
0.0520689
0.0533195
0.05441
0.0553338
0.00587059
0.0129691
0.017294
0.0206657
0.0235646
0.0261716
0.0285795
0.0308445
0.0330054
0.0350909
0.0371235
0.0391212
0.0410975
0.0430609
0.045013
0.0469462
0.0488422
0.0506702
0.0523914
0.0539666
0.055365
0.0565695
0.057576
0.00599068
0.0132374
0.0175826
0.0209536
0.0238516
0.0264647
0.0288882
0.0311806
0.0333826
0.0355257
0.0376359
0.0397353
0.0418422
0.0439696
0.0461221
0.0482915
0.0504523
0.0525578
0.0545454
0.0563514
0.057931
0.0592653
0.0603576
0.00613334
0.0135516
0.0179313
0.0213097
0.0242096
0.0268274
0.0292632
0.0315789
0.0338187
0.0360179
0.0382076
0.0404165
0.0426706
0.0449917
0.0473917
0.0498658
0.0523819
0.0548693
0.0572228
0.0593319
0.0611306
0.062605
0.0637764
0.00627165
0.0138626
0.0182927
0.0216892
0.0245948
0.0272168
0.029662
0.0319973
0.0342711
0.0365241
0.0387939
0.0411181
0.0435348
0.0460803
0.0487828
0.0516502
0.05465
0.0576798
0.0605564
0.0630676
0.0651206
0.066728
0.0679522
0.00638426
0.0141338
0.0186366
0.0220623
0.024974
0.0275962
0.030046
0.032396
0.0346989
0.037001
0.0393476
0.0417877
0.0443753
0.0471697
0.0502291
0.0535947
0.057256
0.0610841
0.0647554
0.0677993
0.0701159
0.0718083
0.0730242
0.00681221
0.0144462
0.0189931
0.0224318
0.0253302
0.0279376
0.030382
0.0327389
0.0350637
0.0374067
0.0398208
0.0423672
0.0451195
0.0481679
0.0516187
0.055583
0.0601315
0.0651758
0.0701857
0.0739026
0.0764018
0.0780476
0.0791412
0.016483
0.015706
0.0195219
0.0228303
0.0256528
0.0282149
0.030639
0.0329938
0.0353313
0.0377031
0.0401678
0.0427974
0.0456848
0.048954
0.0527739
0.0573701
0.0630163
0.0699241
0.0776117
0.0819726
0.0843213
0.085645
0.0864402
0.0840472
0.0216513
0.0203509
0.0232015
0.0258852
0.0283847
0.0307834
0.0331316
0.0354737
0.0378601
0.0403517
0.043027
0.0459911
0.0493928
0.0534529
0.0585191
0.0651834
0.0745632
0.0890384
0.0928634
0.09416
0.0947197
0.0950132
0.0271098
0.0238321
0.0242064
0.0281958
0.0517086
0.0505146
0.0500335
0.050239
0.0640297
0.0630346
0.0621763
0.0614341
0.0736399
0.0724997
0.071382
0.0703496
0.0818196
0.0804093
0.0788065
0.0770216
0.0854365
0.0838609
0.0819261
0.0797562
0.088989
0.0873319
0.0847308
0.0817547
0.0900695
0.0872017
0.0841338
0.0814267
0.0868768
0.0842593
0.0818437
0.0796547
0.0827415
0.0807445
0.0788199
0.0769762
0.0783341
0.0768062
0.0752563
0.0737059
0.0741351
0.0729349
0.0716856
0.0704089
0.0705022
0.069537
0.0685262
0.0674862
0.0675242
0.06674
0.0659204
0.0650762
0.0651165
0.0644807
0.0638179
0.0631342
0.0631101
0.0626027
0.0620724
0.0615224
0.0613494
0.0609555
0.0605404
0.0601054
0.0597334
0.0594401
0.059126
0.0587913
0.0582103
0.0580053
0.0577795
0.0575323
0.0567649
0.0566363
0.0564869
0.0563157
0.0554052
0.055342
0.055258
0.055152
0.054152
0.0541444
0.054116
0.0540653
0.053031
0.0530707
0.0530893
0.0530855
0.0520695
0.0521495
0.0522081
0.052244
0.0512925
0.0514071
0.0514998
0.0515696
0.050722
0.0508666
0.0509888
0.0510876
0.050377
0.050548
0.0506959
0.0508199
0.0502745
0.0504694
0.0506403
0.0507865
0.0504311
0.0506482
0.0508403
0.0510067
0.0508648
0.0511033
0.0513154
0.0515007
0.0515967
0.0518566
0.0520883
0.0522918
0.0526537
0.0529353
0.0531868
0.0534081
0.0540703
0.0543745
0.0546458
0.0548847
0.0558916
0.0562187
0.0565097
0.0567654
0.0581756
0.0585249
0.0588341
0.0591047
0.0609959
0.0613641
0.0616876
0.0619689
0.0644429
0.0648224
0.0651524
0.0654368
0.0686245
0.069001
0.069324
0.0695993
0.0736625
0.0740128
0.0743086
0.0745573
0.079685
0.0799765
0.0802184
0.0804188
0.0868124
0.0870071
0.0871659
0.0872957
0.0951422
0.0952083
0.0952614
0.0953044
0.0396631
0.0428975
0.0436852
0.0435982
0.0430514
0.0420773
0.0407299
0.0392559
0.0378058
0.0363583
0.0348962
0.0334421
0.0319697
0.0304005
0.0285803
0.0262299
0.0228319
0.0174969
0.00786543
0.0510814
0.050867
0.0499554
0.0489674
0.0479284
0.0466708
0.0451805
0.0436166
0.0420899
0.0405298
0.0389351
0.0373681
0.0358058
0.0340875
0.0320043
0.0294512
0.0260308
0.0207003
0.00958201
0.0602408
0.0579626
0.0557394
0.0541214
0.052721
0.0511484
0.0493495
0.0475035
0.0457388
0.0439795
0.0423434
0.0408622
0.0393627
0.0374735
0.0350394
0.0321075
0.0285054
0.0232407
0.0113631
0.0687078
0.0648728
0.0611918
0.0590755
0.0574983
0.0556374
0.0533762
0.0510633
0.0489497
0.0468162
0.0450226
0.0436839
0.0423661
0.0403716
0.0375693
0.034127
0.0301973
0.0251392
0.0121238
0.0734587
0.0689991
0.0649036
0.062587
0.0609876
0.0589171
0.0561946
0.0534716
0.0510679
0.0487834
0.0468339
0.0454275
0.0441632
0.0421795
0.0392147
0.0353168
0.0307517
0.0250899
0.0129329
0.0761768
0.0717681
0.0674591
0.0642385
0.0617907
0.0594341
0.0569668
0.0546712
0.0524448
0.050125
0.0482687
0.0465337
0.0444005
0.0416667
0.0383923
0.0346038
0.0302055
0.0242505
0.0113424
0.0778106
0.0735542
0.0689858
0.0651761
0.0621101
0.0594367
0.0569901
0.0547781
0.052567
0.0502228
0.0482299
0.0465265
0.0440648
0.0406268
0.0367035
0.0325625
0.0280763
0.0214988
0.00999802
0.0776649
0.0734234
0.0691747
0.0653602
0.0620384
0.0591311
0.0566221
0.0543344
0.0520617
0.0497144
0.0474579
0.0453027
0.0428288
0.03972
0.0358601
0.0315596
0.0266692
0.0196942
0.00907793
0.0762992
0.0721496
0.0681892
0.0645606
0.061298
0.0584497
0.0559806
0.0536734
0.0513525
0.0489635
0.0465781
0.0441589
0.041511
0.0385033
0.034991
0.0309361
0.0262444
0.0196021
0.00912091
0.074036
0.0701563
0.0664988
0.0631687
0.0601767
0.0575331
0.055166
0.0528988
0.050587
0.048186
0.0457518
0.0432478
0.0405138
0.0374614
0.0339678
0.0298367
0.0251855
0.019427
0.00968677
0.0711977
0.0677834
0.0645674
0.0616246
0.0589538
0.0565334
0.0542781
0.0520543
0.0497624
0.0473708
0.0449105
0.0423454
0.0395474
0.0364259
0.0328253
0.028489
0.0235086
0.0178431
0.00880908
0.068332
0.0654505
0.0627113
0.0601628
0.0577945
0.0555684
0.0534051
0.0512109
0.0489251
0.0465255
0.0440138
0.0413427
0.0384211
0.0351432
0.03134
0.0267118
0.0213266
0.0154176
0.00691786
0.0657907
0.063406
0.061101
0.0588999
0.0567848
0.0547141
0.0526235
0.0504497
0.0481532
0.0457133
0.043112
0.040301
0.0372118
0.0337334
0.0296842
0.0247956
0.0191449
0.0131304
0.00574201
0.0636957
0.0617274
0.0597817
0.0578651
0.0559556
0.0540136
0.05199
0.0498404
0.0475344
0.0450493
0.0423601
0.0394262
0.0361931
0.0325647
0.0283897
0.0234832
0.0179354
0.01207
0.0053569
0.0620085
0.060375
0.0587171
0.0570312
0.0552938
0.0534703
0.0515223
0.0494164
0.0471273
0.0446331
0.0419107
0.0389306
0.0356514
0.0320098
0.0279186
0.0232822
0.0181151
0.0124609
0.00587039
0.0606061
0.059246
0.0578258
0.0563365
0.0547551
0.0530516
0.0511956
0.0491617
0.0469292
0.0444808
0.0417999
0.0388683
0.0356632
0.0321539
0.0283042
0.0240584
0.0193293
0.0138241
0.00682196
0.0593681
0.058241
0.0570264
0.0557135
0.0542812
0.052704
0.0509578
0.0490226
0.046883
0.0445271
0.0419458
0.0391318
0.0360777
0.032774
0.0292058
0.025322
0.020967
0.0155926
0.00779836
0.0582107
0.0572883
0.0562581
0.0551088
0.0538218
0.052376
0.0507519
0.0489339
0.046911
0.044676
0.0422256
0.0395598
0.0366803
0.0335862
0.0302674
0.0266673
0.022587
0.0173259
0.00866396
0.0570899
0.0563501
0.0554876
0.0544914
0.0533455
0.0520324
0.050536
0.0488442
0.0469491
0.0448467
0.042537
0.0400242
0.0373127
0.034403
0.0312856
0.0278949
0.024013
0.0188689
0.00940869
0.0559947
0.0554175
0.0547073
0.0538536
0.0528424
0.051659
0.05029
0.0487255
0.0469599
0.044991
0.0428187
0.0404516
0.037895
0.0351478
0.0321903
0.0289466
0.0251922
0.0201912
0.0100912
0.0549369
0.0545032
0.0539298
0.0532067
0.0523214
0.0512613
0.0500146
0.0485729
0.0469329
0.0450932
0.0430561
0.0408266
0.038409
0.0357988
0.0329679
0.0298293
0.0261454
0.0211559
0.0106971
0.0539414
0.0536327
0.0531805
0.0525748
0.0518046
0.0508588
0.0497277
0.0484039
0.046884
0.045167
0.043255
0.0411513
0.0388569
0.0363624
0.0336321
0.030568
0.0269151
0.0218737
0.0111214
0.0530395
0.0528387
0.0524923
0.051991
0.0513246
0.0504833
0.0494586
0.0482439
0.0468354
0.045232
0.0434344
0.0414436
0.0392568
0.0368593
0.0342078
0.0311941
0.0275448
0.022415
0.0113829
0.0522644
0.0521554
0.0519003
0.0514901
0.0509155
0.0501678
0.049239
0.048123
0.0468157
0.045315
0.0436199
0.0417285
0.0396339
0.0373158
0.0347237
0.0317395
0.0280727
0.0228352
0.0115153
0.0516464
0.0516151
0.0514378
0.051106
0.0506113
0.0499456
0.0491015
0.0480731
0.0468556
0.0454456
0.04384
0.0420338
0.0400159
0.0377602
0.0352094
0.0322357
0.0285343
0.0231841
0.011616
0.0512124
0.0512469
0.0511354
0.0508703
0.0504439
0.0498488
0.0490781
0.0481256
0.0469859
0.0456539
0.0441243
0.0423887
0.0404316
0.0382217
0.0356949
0.0327153
0.0289672
0.0235105
0.0117642
0.0509863
0.0510764
0.0510204
0.0508115
0.0504428
0.0499077
0.0491993
0.0483113
0.0472373
0.0459705
0.0445031
0.0428234
0.0409115
0.038731
0.0362118
0.0332117
0.029407
0.0238465
0.0119391
0.0509893
0.0511271
0.051118
0.0509562
0.0506359
0.0501509
0.0494947
0.0486604
0.0476406
0.0464268
0.0450083
0.04337
0.041488
0.039321
0.0367938
0.0337584
0.0298844
0.0242072
0.0121185
0.051242
0.0514213
0.0514521
0.05133
0.0510501
0.0506068
0.0499938
0.0492037
0.0482279
0.0470559
0.0456742
0.0440641
0.0421975
0.0400287
0.0374775
0.0343906
0.0304295
0.0246086
0.0122902
0.0517659
0.0519821
0.0520474
0.0519589
0.0517128
0.0513043
0.0507272
0.0499737
0.0490335
0.0478941
0.046539
0.0449456
0.0430814
0.040896
0.0383044
0.0351474
0.0310758
0.0250713
0.0124099
0.0525853
0.052835
0.0529305
0.0528708
0.0526536
0.0522748
0.0517284
0.0510058
0.0500955
0.0489822
0.0476462
0.0460606
0.0441879
0.0419722
0.0393226
0.036073
0.031861
0.0256251
0.0124754
0.0537287
0.0540093
0.0541318
0.0540975
0.0539056
0.0535533
0.0530345
0.05234
0.0514568
0.0503668
0.0490464
0.0474636
0.0455749
0.0433173
0.0405924
0.0372246
0.0328372
0.0263294
0.0126486
0.0552314
0.0555404
0.055687
0.0556753
0.0555067
0.0551793
0.0546875
0.0540216
0.0531665
0.0521015
0.0507983
0.0492192
0.0473127
0.0450068
0.0421923
0.0386816
0.0340829
0.027265
0.0130512
0.0571364
0.0574706
0.0576382
0.0576469
0.0575003
0.0571983
0.0567355
0.0561018
0.0552804
0.0542475
0.05297
0.0514031
0.049486
0.0471342
0.0442238
0.0405507
0.0357037
0.0285168
0.0136587
0.0594963
0.0598504
0.060035
0.0600616
0.0599369
0.0596621
0.0592327
0.0586383
0.0578607
0.0568733
0.055638
0.0541024
0.0521943
0.0498132
0.0468144
0.0429688
0.0378351
0.0301872
0.0144511
0.0623739
0.0627399
0.0629355
0.062977
0.062874
0.0626295
0.06224
0.0616949
0.0609757
0.0600533
0.0588856
0.0574126
0.0555494
0.0531758
0.050118
0.0461092
0.0406604
0.0324368
0.0154914
0.0658433
0.0662084
0.0664067
0.066459
0.0663774
0.0661668
0.0658247
0.0653414
0.0646983
0.0638657
0.0627991
0.0614326
0.0596694
0.0573669
0.0543126
0.0501803
0.04438
0.0354297
0.0168956
0.0699889
0.0703355
0.0705255
0.070583
0.070522
0.0703487
0.0700619
0.069653
0.0691051
0.0683899
0.0674633
0.0662577
0.0646686
0.0625328
0.0595913
0.0554252
0.0492911
0.0394393
0.0188815
0.0749054
0.0752112
0.0753795
0.0754354
0.0753933
0.0752599
0.0750349
0.0747118
0.0742765
0.0737047
0.0729571
0.0719709
0.0706432
0.0688012
0.066145
0.062137
0.0557827
0.0448108
0.0215641
0.080696
0.0809364
0.081069
0.0811161
0.0810903
0.0809976
0.0808386
0.080609
0.0802987
0.0798898
0.0793525
0.0786367
0.0776558
0.0762513
0.0741151
0.0706066
0.0643425
0.0518895
0.0251618
0.0874734
0.087626
0.0877104
0.0877418
0.087729
0.0876759
0.0875836
0.0874499
0.0872693
0.0870316
0.0867195
0.0863032
0.0857276
0.0848831
0.0835243
0.0810271
0.0755611
0.0606532
0.0297301
0.095363
0.095413
0.0954407
0.0954512
0.0954475
0.0954312
0.0954026
0.0953614
0.095306
0.0952339
0.0951405
0.0950179
0.094851
0.0946068
0.0941945
0.0932803
0.09019
0.069511
0.0346113
)
;

boundaryField
{
    leftWall
    {
        type            kqRWallFunction;
        value           nonuniform List<scalar> 
50
(
0.00129251
0.00305712
0.00452295
0.00581191
0.00696305
0.00801515
0.00898981
0.0099111
0.0112475
0.0127815
0.0141475
0.0157017
0.0192472
0.0230677
0.0244307
0.0223887
0.0188715
0.0156239
0.0146751
0.0168824
0.0196022
0.0205715
0.0205231
0.0199585
0.0190949
0.0180404
0.0168485
0.0155366
0.0141185
0.0127184
0.0114716
0.0103388
0.00933955
0.00848847
0.00777973
0.00719476
0.00671655
0.0063372
0.00605669
0.00587663
0.00579389
0.0057977
0.00587059
0.00599068
0.00613334
0.00627165
0.00638426
0.00681221
0.016483
0.0840472
)
;
    }
    rightWall
    {
        type            kqRWallFunction;
        value           nonuniform List<scalar> 
50
(
0.00126467
0.00251372
0.0034004
0.00413922
0.00479084
0.0053257
0.00590103
0.00666681
0.00786543
0.00958201
0.0113631
0.0121238
0.0129329
0.0113424
0.00999802
0.00907793
0.00912091
0.00968677
0.00880908
0.00691786
0.00574201
0.0053569
0.00587039
0.00682196
0.00779836
0.00866396
0.00940869
0.0100912
0.0106971
0.0111214
0.0113829
0.0115153
0.011616
0.0117642
0.0119391
0.0121185
0.0122902
0.0124099
0.0124754
0.0126486
0.0130512
0.0136587
0.0144511
0.0154914
0.0168956
0.0188815
0.0215641
0.0251618
0.0297301
0.0346113
)
;
    }
    lowerWall
    {
        type            kqRWallFunction;
        value           nonuniform List<scalar> 
62
(
0.00129251
0.00357849
0.00526437
0.00658258
0.00764883
0.00852602
0.0092504
0.00985069
0.0103509
0.0107693
0.0111281
0.0114238
0.0116478
0.0117998
0.0118706
0.0118174
0.0114734
0.010866
0.0101778
0.00934362
0.0079255
0.00548209
0.00218331
0.00218331
0.00484651
0.00648913
0.00784755
0.00917598
0.0109191
0.0139022
0.021068
0.0271098
0.0238321
0.0242064
0.0281958
0.00174184
0.00476672
0.00694895
0.0091128
0.0114555
0.0143454
0.0184396
0.0254124
0.00174184
0.00534523
0.00723646
0.00807096
0.00837738
0.00840332
0.00804812
0.00716089
0.00618402
0.00596791
0.00620024
0.00615555
0.00587628
0.0059278
0.00614769
0.00578276
0.00451528
0.00277498
0.00126467
)
;
    }
    atmosphere
    {
        type            inletOutlet;
        inletValue      uniform 0.1;
        value           nonuniform List<scalar> 
46
(
0.1
0.0216513
0.0203509
0.0232015
0.0258852
0.0283847
0.0307834
0.0331316
0.0354737
0.0378601
0.0403517
0.043027
0.0459911
0.0493928
0.0534529
0.0585191
0.0651834
0.0745632
0.1
0.1
0.1
0.1
0.1
0.1
0.1
0.1
0.1
0.1
0.1
0.1
0.1
0.1
0.1
0.1
0.1
0.1
0.1
0.1
0.1
0.1
0.1
0.1
0.1
0.1
0.069511
0.0346113
)
;
    }
    defaultFaces
    {
        type            empty;
    }
}


// ************************************************************************* //
