/*--------------------------------*- C++ -*----------------------------------*\
  =========                 |
  \\      /  F ield         | OpenFOAM: The Open Source CFD Toolbox
   \\    /   O peration     | Website:  https://openfoam.org
    \\  /    A nd           | Version:  9
     \\/     M anipulation  |
\*---------------------------------------------------------------------------*/
FoamFile
{
    format      ascii;
    class       surfaceScalarField;
    location    "31.45";
    object      phi;
}
// * * * * * * * * * * * * * * * * * * * * * * * * * * * * * * * * * * * * * //

dimensions      [0 3 -1 0 0 0 0];

internalField   nonuniform List<scalar> 
1300
(
11.2529
1.87548
-4.16636
11.2529
-5.00988
1.87548
-4.24282
4.24282
-1.1875
1.1875
5.7123
5.54056
-2.37732
2.37732
-2.8188
2.8188
-2.86016
2.86016
-1.06194
1.06194
-1.02826
1.02826
0.693117
-0.693117
-3.42004
3.42004
-1.45619
1.45619
-2.9092
2.9092
6.1281
-6.1281
-3.24634
3.24634
-0.743765
0.743765
-4.26321
15.5161
6.98965
6.98965
-2.37111
2.37111
-1.25395
1.25395
1.41034
-1.41034
9.05086
-9.05086
-4.8845
-5.88386
1.91916
-14.0662
-3.09072
-3.09072
-2.7054
2.7054
-0.829928
1.04555
3.47681
-3.47681
-0.757143
0.757143
-4.32822
0.0854077
-4.32822
4.02735
0.215468
4.02735
-1.32878
0.14128
-1.32878
4.67819
-4.67819
1.07574
0.11176
1.07574
3.9281
-3.9281
-5.71006
11.4224
5.5428
-5.32064
20.8367
-5.93222
11.4728
-3.89953
3.89953
-2.29446
-0.0828643
-2.29446
2.37889
-0.00157307
2.37889
-4.00257
4.00257
-2.60903
-0.209765
-2.60903
2.91886
-0.100058
2.91886
3.66642
-3.66642
-2.91622
0.0560593
-2.91622
2.70845
0.151704
2.70845
0.771042
1.10443
-2.64652
3.69207
-1.10443
0.0424987
1.02614
0.0357986
1.02614
-1.01453
-0.0137252
-1.01453
1.04984
-0.0215793
1.04984
0.730133
-0.0370156
0.730133
-0.754862
0.061745
-0.754862
-8.60767
-8.97353
-3.54385
0.123817
-3.54385
-1.47421
0.0180205
-1.47421
1.49235
-0.0361557
1.49235
-2.52538
2.52538
-3.2511
0.341898
-3.2511
4.80635
1.32175
4.80635
5.04612
6.20674
16.299
-16.299
10.1709
-2.96668
-0.279664
-2.96668
-3.4118
-5.63906
3.4118
-0.165453
-0.805505
0.0617404
-0.805505
5.62659
1.36306
5.62659
2.58623
0.122226
-2.58623
0.215123
4.62615
-4.62615
1.42328
0.947822
1.42328
-1.19154
1.19154
1.12336
-0.0735237
-1.12336
-0.130582
1.38601
0.0243318
1.38601
-1.40975
-0.000595737
-1.40975
7.31064
-13.1945
-7.76787
3.23039
0.189646
-3.23039
0.139667
3.56357
-0.0867504
3.56357
-3.30969
3.30969
-3.61099
0.134179
-3.61099
-0.68222
-0.0749221
-0.68222
0.842028
-0.0848852
0.842028
-4.5761
0.247876
-4.5761
-3.69109
0.439991
3.69109
0.336258
1.25013
-1.25013
-1.43659
0.107807
-1.43659
-4.65916
0.0830607
4.65916
0.0190286
-4.77215
0.0939652
-4.77215
-3.71253
0.101533
3.71253
0.215576
4.58935
1.03724
-4.58935
0.661247
-5.36948
11.5762
-5.88338
11.4262
-3.51572
-0.38381
-3.51572
4.09052
-0.190996
4.09052
2.57064
0.338565
-2.57064
0.276181
2.5051
-0.126203
2.5051
-3.94529
-0.0572811
-3.94529
3.80545
0.197117
3.80545
2.54461
-0.0395112
-2.54461
-0.0644239
2.89355
0.0253029
2.89355
3.6724
-0.00598109
3.6724
-3.53944
-0.126985
-3.53944
3.17896
-3.17896
3.08059
0.0983706
-3.08059
0.164369
-5.07402
5.07343
-0.00799943
-5.06602
1.01814
1.01814
0.768948
-0.0388151
0.768948
-0.861792
0.10693
-0.861792
8.34421
-16.1121
8.77922
-17.3869
7.53374
-21.6
8.11624
-17.0898
3.82807
-3.82807
3.76193
0.066142
-3.76193
0.218073
-1.45605
-0.0181639
-1.45605
-2.2883
-0.237085
-2.2883
2.8574
-0.332017
2.8574
-3.74209
3.74209
-4.12478
0.382686
4.12478
0.68157
2.95473
-0.0611804
-2.95473
-0.0119457
0.924055
0.151686
-0.924055
0.11855
4.86348
-0.237329
4.86348
-4.0852
-0.540948
-4.0852
-1.47494
0.0188926
1.47494
-0.0516606
-1.25895
0.0674031
-1.25895
-5.0745
0.00847758
-5.0387
-1.40127
-1.40127
1.30414
4.9962
-3.58567
0.0462341
3.58567
-0.0221055
3.52705
0.215042
-3.52705
0.217361
-3.26327
0.0843115
3.26327
0.0464179
-0.659742
-0.0224784
-0.659742
-1.03475
1.03475
-0.91764
-0.117113
0.91764
-0.0756125
1.40558
-0.155454
1.40558
1.47054
0.0218112
-1.47054
0.0339511
-5.01127
0.239115
-5.01127
4.10111
-0.0105874
4.10111
-3.94907
-0.136137
3.94907
-0.276665
-0.00372296
5.07715
-1.01441
-0.000120147
1.01441
-5.10148
5.10136
-0.665133
0.00539074
0.665133
0.103815
1.02967
0.161873
-1.02967
0.16788
3.84897
-0.043523
-3.84897
0.0209054
-2.00736
-0.280939
-2.00736
-3.18476
-0.330954
3.18476
-0.327364
-5.11518
-0.0779364
5.19312
-5.13676
1.33688
0.0491256
-1.33688
5.15049
-1.14364
-0.106481
1.14364
-0.108891
1.60385
-0.19827
1.60385
5.12083
-0.257353
-5.12083
0.109564
-4.11883
0.173542
4.11883
-0.0177181
-1.77513
-0.232226
1.77513
-0.171281
-13.1281
14.4911
7.70865
-6.27983
-6.91466
-11.9189
4.4471
7.12912
14.618
-11.8159
-9.78405
-11.6763
2.86006
-2.69218
-3.72729
3.69028
23.5916
-23.4977
-18.3992
19.0808
20.777
-20.5615
5.70885
5.71351
15.8507
-15.9336
-20.8989
20.5151
15.3873
-15.597
22.052
-22.1093
-25.8158
25.7723
-16.0928
16.1489
-20.2944
20.1674
-21.0577
20.781
-8.3521
-9.03479
16.5172
-16.3934
19.9988
-20.2785
-19.3834
19.7253
10.0475
4.44359
11.0848
-6.24673
11.9556
-5.22605
12.9347
8.29387
-16.646
7.81821
-14.7329
9.04494
10.9539
-8.87949
-3.0394
-17.9699
17.8832
-17.257
17.3034
24.1238
-24.0384
-6.17283
11.8863
-5.25335
12.3825
-11.409
-6.99019
10.0872
4.53073
8.99238
7.52481
-9.18202
-2.49424
-24.7988
24.5414
-25.6599
25.1189
0.10018
2.42593
-2.52611
1.35413
-0.862692
3.28863
1.99737
2.10429
2.45271
-2.29084
0.239463
-2.76558
-2.89616
-5.34044
5.44825
5.15711
-5.04535
16.5466
7.04499
16.5657
-16.7495
-6.74813
-16.5104
11.3637
7.71706
11.7464
12.0617
8.71534
12.1632
10.359
-10.3317
-0.0273074
-11.4777
21.8367
1.55464
-18.4678
-13.9371
8.84633
7.00442
8.84476
-9.89164
-6.04197
-9.61546
-11.0148
-9.88415
-11.3457
12.3189
8.19623
12.1279
-15.3162
15.2984
9.27398
6.11327
9.17392
-8.96299
-6.63403
-9.02741
27.4826
-6.67814
-20.8045
-13.1817
-12.6341
12.9846
9.06741
14.3397
11.4325
14.3606
8.91494
18.5677
-17.9823
5.34829
-9.94704
-6.1458
-9.78267
9.25805
6.89085
9.40975
-11.7668
-8.52762
-11.7206
-11.987
-9.07076
11.9929
8.17449
-12.5344
-13.1255
12.6705
8.11051
7.84145
-17.6255
9.24832
-18.2831
-10.9651
-5.42829
-10.747
10.7852
6.68384
-17.469
-5.86077
23.633
-12.6792
20.5936
-10.8992
-9.37922
-10.9112
-14.8039
-4.57947
-14.3639
-7.98946
7.70852
-8.82131
8.48929
26.8768
-16.2221
-10.6547
-12.3784
-8.18309
11.7171
-0.632344
-12.8358
12.8085
-0.880182
12.0545
16.4981
15.8658
-10.8802
-6.37674
-10.6629
10.2702
7.03322
10.3545
16.1054
8.01838
16.3209
-16.8176
-7.22079
-16.5697
4.84103
-4.91596
5.71362
-5.69472
15.5794
9.5395
-15.3421
-9.45664
22.9305
-10.775
-12.1555
-5.11965
5.21412
-0.0944714
-1.83103
-0.476901
0.266864
-1.93096
-1.79633
1.86921
0.235082
5.4492
3.65287
-2.41437
2.48177
2.77875
2.70523
-0.190933
2.49875
-2.49336
18.902
-11.4321
-7.46984
13.9702
-13.8871
-2.59953
-19.3273
16.7277
2.67853
3.00333
-2.94159
-3.94841
-1.39203
-3.91446
2.95197
2.20514
3.10365
2.10716
3.34109
-8.10338
1.56298
6.54039
-5.99622
-3.48237
-13.3462
-6.26637
19.6126
16.6788
7.86257
-16.7884
0.277981
5.29305
-5.3292
-1.59829
-11.748
8.34802
-9.94631
-15.2171
-6.4609
21.678
-9.58078
-1.08208
9.36573
2.38065
-10.8773
-7.09265
10.7431
1.42012
-12.0645
23.9707
-11.9062
-18.4413
8.51577
13.3209
16.2328
-17.8628
9.31888
8.54388
-4.54188
7.43023
1.41453
7.30403
-19.9293
13.8873
11.324
8.40131
-11.6625
2.04707
-17.8822
25.1715
-22.2876
-2.88391
12.822
12.3495
13.549
13.3278
-7.78517
21.3341
-3.61815
-18.6695
21.5003
-13.099
15.7826
-28.8817
-29.1105
10.441
-17.9555
22.0744
-4.11886
-5.20545
-10.1107
23.161
-2.00657
-21.1544
10.1213
-13.9271
-11.8545
25.7816
-20.6052
18.4885
-6.26769
-12.2208
-12.6654
-9.44392
12.4918
2.80662
-25.874
31.2223
-7.30637
7.80491
1.36901
7.83021
10.6086
-15.976
5.36738
9.9966
-16.2643
6.76245
-22.7385
-12.1592
24.1942
-12.035
-17.5875
-15.7966
-1.79091
4.8752
26.3471
-16.3077
12.1169
4.19087
8.46173
1.89274
-8.5601
-1.22257
0.968057
16.0864
-17.0545
10.3778
10.5
11.7044
4.38204
10.7702
7.11295
-10.7481
-0.972415
-14.7928
5.72201
-6.61828
-14.5742
20.2962
-16.2679
1.69369
-10.3032
-13.9906
24.2938
-16.449
11.4255
12.5453
18.4587
-19.615
5.62438
-9.74633
-9.86865
10.6435
-17.2618
7.49832
12.7979
15.6088
2.48335
12.7476
11.4466
-19.4314
1.14833
18.9714
-16.4772
3.88887
10.4718
-16.0057
0.209106
-10.5379
2.66432
-15.3435
-14.8047
16.5297
-21.1092
-12.352
13.5675
2.7534
-13.9037
-0.460178
-4.9542
-3.03527
-5.18642
-3.27676
-5.54455
-11.0619
-1.92689
-9.13504
5.78164
-6.68685
-4.65886
7.01421
1.47508
-4.93546
4.82898
-5.58023
5.38196
-0.210165
13.0186
15.6556
7.4725
-8.47674
15.9492
-15.6083
23.6267
-29.725
14.1167
15.9488
-23.1696
-13.7762
2.70113
2.13991
2.61624
13.4476
-14.4144
0.966734
-13.2789
17.5982
-4.3193
-19.5805
6.30158
-6.13283
5.18669
0.526929
5.16852
1.41639
6.84597
-8.26236
-4.27834
-4.33
-9.16324
-13.8594
23.0226
4.73543
-13.1051
8.36967
-12.0625
16.7979
0.0785306
-13.1836
16.9847
-10.1387
17.5116
-11.984
5.5277
12.7918
22.3469
-9.55509
16.2481
-6.70865
7.06788
-16.623
-6.79151
-11.2883
18.1792
-13.0055
14.6992
-1.12465
15.8239
-13.7772
3.00222
-2.07284
8.42719
8.64231
16.8088
-12.4267
11.9697
-18.6783
-4.65328
-16.195
-3.39713
1.01875
-13.8256
12.8069
12.0439
-11.0252
-3.24222
8.98423
-5.74201
5.68191
-2.84832
-2.83359
-1.84642
-3.06954
1.8689
0.62985
6.31176
0.489181
-3.3375
-2.00417
-1.90036
10.3744
8.52753
-3.83185
3.73738
3.56499
-0.561655
0.95873
2.14492
4.58718
-3.62845
0.678122
3.90906
-2.26347
3.82773
1.46532
-3.84954
-0.0649172
-3.40814
11.7562
3.13225
-5.3374
1.70894
2.38209
-13.8142
19.7415
-11.4155
-8.326
22.1235
3.06347
-14.4789
16.2638
-13.5853
8.10344
-14.3698
-6.37549
-19.9607
-12.9158
-10.7095
19.0792
-12.3131
20.1757
3.86212
-20.4537
24.3158
-12.7398
6.27892
-9.44313
10.9084
-4.05809
-5.38504
11.2656
10.4123
-11.0535
-0.694425
0.212105
8.4193
-8.20719
-1.52702
-7.52323
-16.4089
17.829
-8.25569
17.5746
7.69356
-7.63403
25.2086
6.56495
-14.199
-11.8763
-12.9584
-5.6551
10.5777
-1.7954
-7.23202
-14.0162
7.27153
0.0324995
-19.0779
22.071
-2.99307
-12.0735
-1.81377
14.6358
-18.0998
1.83551
-11.3374
10.7336
12.1482
12.1807
-20.843
-0.311389
-12.6468
3.17651
-15.8233
15.526
-6.803
17.244
-16.0062
11.3473
-14.5311
14.3601
-1.4632
14.7495
-9.38211
6.05497
-15.4989
-12.6923
14.4718
-8.35852
15.8408
-10.1167
25.9575
-17.423
14.4046
11.5529
-2.71244
-8.19875
-13.9749
11.2624
0.429721
8.25993
17.8373
-10.7244
16.8649
8.92447
-18.6708
-8.33729
-25.8596
7.18882
-13.3144
-7.35658
14.5454
11.1021
12.9949
4.67675
-11.7723
17.7864
-19.5773
-5.75147
-9.05326
14.5782
-3.31575
10.1445
-19.1978
-5.19896
13.1093
-0.192355
-12.9169
3.11289
-15.4648
5.13059
-20.5954
15.9786
-16.4388
1.76945
-7.90229
-3.16601
-3.2749
-2.17181
-3.40841
-7.56669
5.39488
-1.26511
3.56387
-12.5211
12.3287
-5.07713
10.472
-4.05771
-1.12871
4.22899
1.15296
11.625
3.02522
-16.8014
-9.25468
14.6242
-5.3695
1.11976
-10.8004
3.82379
8.09958
14.024
-24.8273
1.65767
-15.1437
-4.0697
6.20961
4.91452
16.9584
2.54406
6.55204
-0.342429
9.0961
2.27381
2.1982
-11.2173
12.184
1.58956
15.7063
-1.88295
7.41065
3.28557
3.30359
2.02561
5.72248
2.91983
8.7247
0.462346
-3.86765
2.06784
-3.9682
-1.26966
-4.00701
-0.316736
3.72517
-4.04191
10.496
-1.96851
5.12654
-1.8817
-4.93338
6.81508
-9.35153
-5.49504
-1.58598
-5.60628
7.31522
6.14989
-5.72924
-3.62229
2.39094
-15.3067
11.9789
-12.6733
-2.26098
22.0548
-9.46144
1.25425
-3.18252
-6.26898
-7.66101
7.72593
24.1899
1.01868
12.2837
18.8477
11.755
1.03067
11.987
-16.1058
-10.7515
-16.4172
-0.891225
13.7446
5.61422
20.7329
17.1671
13.8513
-5.34645
-24.9238
20.7189
-8.53485
16.3996
-3.48268
-17.1127
14.6485
8.97813
-17.4019
0.963188
-16.1496
-24.6844
-0.34428
12.673
-11.2807
10.152
7.11671
2.01833
-2.42556
-0.849345
2.54267
-0.344469
8.75163
-0.188797
-8.19491
8.3837
-3.53638
2.26671
-0.429285
4.16667
6.38579
4.41728
-3.77763
-7.81954
-8.81654
-4.99768
-17.1425
2.47008
-8.61997
5.68095
-3.41424
2.84736
4.96947
10.096
-1.60166
-9.4235
7.34366
-4.4963
5.59971
)
;

boundaryField
{
    wall-4
    {
        type            calculated;
        value           uniform 0;
    }
    velocity-inlet-5
    {
        type            calculated;
        value           uniform -11.2529;
    }
    velocity-inlet-6
    {
        type            calculated;
        value           uniform -1.87548;
    }
    pressure-outlet-7
    {
        type            calculated;
        value           nonuniform List<scalar> 8(4.16636 5.00988 10.7684 12.1471 17.5812 15.0785 17.1234 15.65);
    }
    wall-8
    {
        type            calculated;
        value           uniform 0;
    }
    frontAndBackPlanes
    {
        type            empty;
        value           nonuniform List<scalar> 0();
    }
}


// ************************************************************************* //
