/*--------------------------------*- C++ -*----------------------------------*\
  =========                 |
  \\      /  F ield         | OpenFOAM: The Open Source CFD Toolbox
   \\    /   O peration     | Website:  https://openfoam.org
    \\  /    A nd           | Version:  9
     \\/     M anipulation  |
\*---------------------------------------------------------------------------*/
FoamFile
{
    format      ascii;
    class       surfaceScalarField;
    location    "3.8";
    object      alphaPhi0.water;
}
// * * * * * * * * * * * * * * * * * * * * * * * * * * * * * * * * * * * * * //

dimensions      [0 3 -1 0 0 0 0];

internalField   nonuniform List<scalar> 
4432
(
-4.48727e-07
4.48727e-07
-6.84103e-07
2.35376e-07
-8.23296e-07
1.39195e-07
-9.21926e-07
9.86312e-08
-1.00604e-06
8.41125e-08
-1.08559e-06
7.95571e-08
-1.16183e-06
7.62416e-08
-1.23429e-06
7.24574e-08
-1.30324e-06
6.89531e-08
-1.36865e-06
6.54065e-08
-1.42629e-06
5.76409e-08
-1.46682e-06
4.0529e-08
-1.47393e-06
7.11999e-09
-1.42487e-06
-4.90673e-08
-1.29583e-06
-1.29037e-07
-1.06539e-06
-2.30441e-07
-7.9119e-07
-2.742e-07
-9.20164e-07
1.34147e-07
-1.90341e-06
9.64178e-07
-2.69451e-06
7.92258e-07
-2.51007e-06
-1.79241e-07
-1.44114e-06
-1.07394e-06
-1.44615e-06
-3.46128e-07
7.94857e-07
-5.58511e-07
4.47761e-07
-7.14285e-07
2.94972e-07
-8.40406e-07
2.24753e-07
-9.5134e-07
1.95049e-07
-1.05312e-06
1.81341e-07
-1.1474e-06
1.70521e-07
-1.23438e-06
1.59442e-07
-1.31447e-06
1.49042e-07
-1.38688e-06
1.37818e-07
-1.44838e-06
1.19137e-07
-1.4919e-06
8.40588e-08
-1.50622e-06
2.14389e-08
-1.47975e-06
-7.55379e-08
-1.402e-06
-2.06796e-07
-1.27972e-06
-3.52717e-07
-1.16804e-06
-3.85808e-07
-1.25653e-06
2.39647e-07
-1.53765e-06
1.2485e-06
-1.84537e-06
1.05447e-06
-1.77813e-06
-2.51503e-07
-1.21683e-06
-1.63465e-06
-2.66846e-06
-2.75524e-07
1.07038e-06
-4.80331e-07
6.52569e-07
-6.48416e-07
4.63058e-07
-7.95068e-07
3.71405e-07
-9.27476e-07
3.27459e-07
-1.04878e-06
3.02645e-07
-1.1598e-06
2.81546e-07
-1.2608e-06
2.60438e-07
-1.35197e-06
2.40208e-07
-1.43273e-06
2.18576e-07
-1.50066e-06
1.87071e-07
-1.54999e-06
1.33387e-07
-1.57348e-06
4.49291e-08
-1.56464e-06
-8.43868e-08
-1.52365e-06
-2.47784e-07
-1.46917e-06
-4.07201e-07
-1.43394e-06
-4.15181e-07
-1.39962e-06
2.27879e-07
-1.32956e-06
1.17809e-06
-1.28235e-06
1.00691e-06
-1.19254e-06
-3.62407e-07
-8.54148e-07
-1.97305e-06
-3.5226e-06
-2.28046e-07
1.29843e-06
-4.27829e-07
8.52352e-07
-6.07355e-07
6.42586e-07
-7.72126e-07
5.36175e-07
-9.24303e-07
4.79636e-07
-1.06439e-06
4.4273e-07
-1.19215e-06
4.09313e-07
-1.30747e-06
3.75754e-07
-1.41048e-06
3.43216e-07
-1.50078e-06
3.08875e-07
-1.5764e-06
2.62687e-07
-1.63311e-06
1.90096e-07
-1.66585e-06
7.76706e-08
-1.67179e-06
-7.84468e-08
-1.65628e-06
-2.63293e-07
-1.63991e-06
-4.23577e-07
-1.64373e-06
-4.10168e-07
-1.50674e-06
1.22639e-07
-1.24867e-06
9.19666e-07
-9.86509e-07
7.44393e-07
-7.45689e-07
-6.12362e-07
-4.74638e-07
-2.24412e-06
-3.99717e-06
-1.97132e-07
1.49556e-06
-3.94299e-07
1.04952e-06
-5.8522e-07
8.33507e-07
-7.67087e-07
7.18041e-07
-9.38279e-07
6.50829e-07
-1.09692e-06
6.01371e-07
-1.24157e-06
5.53964e-07
-1.3716e-06
5.05784e-07
-1.48705e-06
4.58673e-07
-1.58767e-06
4.09499e-07
-1.67194e-06
3.46958e-07
-1.7366e-06
2.54748e-07
-1.77794e-06
1.19015e-07
-1.79473e-06
-6.1658e-08
-1.79313e-06
-2.64891e-07
-1.78937e-06
-4.27337e-07
-1.78289e-06
-4.16649e-07
-1.62669e-06
-1.92557e-08
-1.24189e-06
5.59812e-07
-8.24336e-07
3.25924e-07
-4.82571e-07
-9.72621e-07
-2.04274e-07
-2.52243e-06
-4.20145e-06
-1.78643e-07
1.67421e-06
-3.77459e-07
1.24833e-06
-5.80105e-07
1.03615e-06
-7.78564e-07
9.16499e-07
-9.68184e-07
8.40448e-07
-1.14507e-06
7.78256e-07
-1.30658e-06
7.15474e-07
-1.4515e-06
6.50701e-07
-1.57971e-06
5.86885e-07
-1.69101e-06
5.208e-07
-1.78417e-06
4.40123e-07
-1.85653e-06
3.27111e-07
-1.90504e-06
1.67524e-07
-1.92852e-06
-3.8177e-08
-1.93109e-06
-2.62314e-07
-1.92223e-06
-4.36202e-07
-1.88739e-06
-4.5148e-07
-1.72008e-06
-1.86212e-07
-1.3088e-06
1.55849e-07
-8.20524e-07
-1.63592e-07
-4.25357e-07
-1.3709e-06
-9.35673e-08
-2.85424e-06
-4.29504e-06
-1.70273e-07
1.84448e-06
-3.75638e-07
1.45369e-06
-5.90828e-07
1.25135e-06
-8.05341e-07
1.13101e-06
-1.01266e-06
1.04777e-06
-1.20722e-06
9.72809e-07
-1.38524e-06
8.93493e-07
-1.54488e-06
8.10337e-07
-1.68577e-06
7.2777e-07
-1.80759e-06
6.42617e-07
-1.90921e-06
5.41737e-07
-1.98831e-06
4.06208e-07
-2.04207e-06
2.21287e-07
-2.06863e-06
-1.16146e-08
-2.06888e-06
-2.62065e-07
-2.0462e-06
-4.58877e-07
-1.98201e-06
-5.15662e-07
-1.79119e-06
-3.77026e-07
-1.40262e-06
-2.32712e-07
-9.33253e-07
-6.32961e-07
-5.4359e-07
-1.76056e-06
-1.79544e-07
-3.21828e-06
-4.47466e-06
-1.76251e-07
2.02073e-06
-3.88582e-07
1.66602e-06
-6.15395e-07
1.47816e-06
-8.45163e-07
1.36077e-06
-1.0692e-06
1.2718e-06
-1.28047e-06
1.18408e-06
-1.47421e-06
1.08723e-06
-1.64797e-06
9.84093e-07
-1.80099e-06
8.80786e-07
-1.9326e-06
7.74219e-07
-2.04148e-06
6.50621e-07
-2.12561e-06
4.90332e-07
-2.18238e-06
2.7806e-07
-2.20924e-06
1.52435e-08
-2.20377e-06
-2.67537e-07
-2.16506e-06
-4.97586e-07
-2.07576e-06
-6.04953e-07
-1.87476e-06
-5.78021e-07
-1.52124e-06
-5.86229e-07
-1.11734e-06
-1.03685e-06
-7.98422e-07
-2.07947e-06
-5.52773e-07
-3.46392e-06
-5.02756e-06
-1.74142e-07
1.74139e-07
7.95239e-07
-9.69383e-07
1.61467e-06
-8.20296e-07
2.06283e-06
-4.48555e-07
2.21211e-06
-1.48594e-07
2.09938e-06
1.12719e-07
1.78446e-06
3.14919e-07
1.49973e-06
2.98988e-07
1.5291e-06
-3.41593e-08
1.91796e-06
-3.97816e-07
1.82982e-06
8.20543e-08
4.63347e-07
1.31655e-06
-8.0911e-07
1.27268e-06
-1.3176e-07
-6.77027e-07
2.46953e-06
-2.6247e-06
5.24687e-06
-2.8731e-06
5.6752e-06
-4.92826e-07
2.53626e-06
3.13886e-06
2.53619e-06
3.18676e-07
-1.44539e-07
9.73077e-07
-1.63014e-06
1.43969e-06
-1.29447e-06
1.68894e-06
-7.01043e-07
1.72647e-06
-1.85673e-07
1.60709e-06
2.32021e-07
1.38978e-06
5.34363e-07
1.14111e-06
5.48018e-07
1.03971e-06
6.75932e-08
1.10569e-06
-4.75115e-07
8.66966e-07
3.03156e-07
3.05816e-07
1.86302e-06
8.44537e-08
1.49361e-06
8.28823e-07
-1.40433e-06
2.27795e-06
-4.07383e-06
3.83202e-06
-4.42718e-06
4.35662e-06
-1.09057e-06
2.47008e-06
5.06722e-06
5.00619e-06
6.46648e-07
-7.92484e-07
1.02892e-06
-2.01241e-06
1.27733e-06
-1.54287e-06
1.4073e-06
-8.31005e-07
1.39545e-06
-1.74035e-07
1.27875e-06
3.48782e-07
1.09242e-06
7.20748e-07
8.66306e-07
7.69244e-07
6.99544e-07
2.31106e-07
5.93378e-07
-3.7315e-07
4.24716e-07
4.64111e-07
3.58169e-07
1.92915e-06
5.69868e-07
1.28144e-06
1.23783e-06
-2.10328e-06
1.93171e-06
-4.76772e-06
2.80898e-06
-5.30446e-06
3.11618e-06
-1.52082e-06
2.03873e-06
6.02493e-06
7.17265e-06
7.5732e-07
-1.55038e-06
9.87735e-07
-2.24267e-06
1.10562e-06
-1.66075e-06
1.16679e-06
-8.92305e-07
1.13969e-06
-1.47105e-07
1.03652e-06
4.51952e-07
8.69894e-07
8.85152e-07
6.68438e-07
9.69678e-07
4.66815e-07
4.31668e-07
2.64316e-07
-1.71986e-07
2.12095e-07
5.21142e-07
4.41216e-07
1.6991e-06
8.89115e-07
8.73821e-07
1.2714e-06
-2.47834e-06
1.53721e-06
-5.03354e-06
1.95197e-06
-5.71923e-06
2.38385e-06
-2.0632e-06
1.58403e-06
6.75913e-06
8.69227e-06
7.2977e-07
-2.28041e-06
8.67944e-07
-2.38065e-06
9.17078e-07
-1.70982e-06
9.49153e-07
-9.24382e-07
9.27497e-07
-1.25454e-07
8.51015e-07
5.28431e-07
7.10687e-07
1.02446e-06
5.41934e-07
1.13879e-06
3.41945e-07
6.32852e-07
1.15319e-07
5.53046e-08
1.30831e-07
5.09136e-07
5.23925e-07
1.34749e-06
1.02347e-06
3.83806e-07
1.14643e-06
-2.59174e-06
1.10562e-06
-4.99274e-06
1.20171e-06
-5.81532e-06
1.65336e-06
-2.58441e-06
1.17889e-06
7.20035e-06
9.82224e-06
6.15885e-07
-2.89654e-06
6.88231e-07
-2.45304e-06
7.12271e-07
-1.73387e-06
7.44392e-07
-9.56541e-07
7.45871e-07
-1.26955e-07
7.12202e-07
5.61978e-07
6.16639e-07
1.12029e-06
4.87067e-07
1.26946e-06
3.19363e-07
8.0154e-07
1.23018e-07
2.51861e-07
1.76917e-07
4.54319e-07
6.06594e-07
9.27687e-07
1.01796e-06
-2.62704e-08
9.51928e-07
-2.5259e-06
6.67296e-07
-4.70811e-06
5.12337e-07
-5.66037e-06
8.5865e-07
-2.93146e-06
8.74101e-07
7.17245e-06
1.07581e-05
3.99757e-07
-3.29712e-06
4.62608e-07
-2.51596e-06
4.94413e-07
-1.76577e-06
5.45304e-07
-1.00756e-06
5.84633e-07
-1.66379e-07
6.10595e-07
5.35681e-07
5.77768e-07
1.15323e-06
4.99529e-07
1.34756e-06
3.83678e-07
9.17254e-07
2.46257e-07
3.86761e-07
3.20099e-07
3.79729e-07
6.8135e-07
5.64526e-07
9.46251e-07
-2.91181e-07
7.35854e-07
-2.31551e-06
2.45285e-07
-4.21755e-06
-1.62792e-07
-5.2523e-06
1.77361e-08
-3.11515e-06
6.85648e-07
6.49267e-06
1.1475e-05
1.14606e-07
-3.41183e-06
2.18623e-07
-2.62014e-06
2.66485e-07
-1.81368e-06
3.46123e-07
-1.0872e-06
4.30391e-07
-2.50604e-07
5.32048e-07
4.34073e-07
5.81018e-07
1.10431e-06
5.72987e-07
1.35564e-06
5.17109e-07
9.60342e-07
4.43528e-07
4.50187e-07
5.27154e-07
2.91284e-07
7.81439e-07
3.13588e-07
8.91215e-07
-4.00967e-07
5.41125e-07
-1.96543e-06
-1.34055e-07
-3.54238e-06
-7.90593e-07
-4.59575e-06
-8.48633e-07
-3.04106e-06
3.55359e-07
5.58871e-06
1.18564e-05
-3.61394e-07
2.38212e-06
-8.72203e-07
2.17683e-06
-1.41702e-06
2.02297e-06
-1.95885e-06
1.90261e-06
-2.48746e-06
1.80041e-06
-2.98745e-06
1.68408e-06
-3.44731e-06
1.54709e-06
-3.85993e-06
1.39672e-06
-4.222e-06
1.24286e-06
-4.52961e-06
1.08183e-06
-4.77852e-06
8.99541e-07
-4.96574e-06
6.77551e-07
-5.08826e-06
4.00584e-07
-5.1401e-06
6.70847e-08
-5.10666e-06
-3.00976e-07
-4.97465e-06
-6.29596e-07
-4.72366e-06
-8.55942e-07
-4.29044e-06
-1.01125e-06
-3.66809e-06
-1.20859e-06
-3.05336e-06
-1.65158e-06
-2.72772e-06
-2.40512e-06
-2.94978e-06
-3.24186e-06
-3.68211e-06
-4.2952e-06
-4.35403e-07
1.52291e-06
-9.79311e-07
1.48717e-06
-1.5037e-06
1.40123e-06
-1.99941e-06
1.32846e-06
-2.51349e-06
1.30512e-06
-3.02513e-06
1.26969e-06
-3.51518e-06
1.20717e-06
-3.97867e-06
1.13116e-06
-4.40321e-06
1.04436e-06
-4.76004e-06
9.2972e-07
-5.03324e-06
7.76187e-07
-5.23033e-06
5.85939e-07
-5.36884e-06
3.53899e-07
-5.46496e-06
7.8194e-08
-5.46699e-06
-2.7597e-07
-5.32137e-06
-6.77636e-07
-5.03345e-06
-1.0367e-06
-4.58698e-06
-1.35914e-06
-4.03462e-06
-1.67193e-06
-3.54512e-06
-2.05317e-06
-3.28295e-06
-2.57592e-06
-3.28609e-06
-3.14435e-06
-3.46069e-06
-3.42557e-06
-1.8402e-07
1.20256e-08
-2.71682e-07
3.14116e-08
-3.7921e-07
3.0948e-08
-5.13362e-07
1.69809e-08
-6.37975e-07
2.91729e-08
-7.67505e-07
4.50171e-08
-9.26952e-07
6.19176e-08
-1.10029e-06
6.33045e-08
-1.26822e-06
8.70668e-08
-1.44156e-06
1.18047e-08
-1.61605e-06
1.92105e-09
-1.77886e-06
0
-1.92045e-06
0
-2.05034e-06
0
-2.19696e-06
-1.12353e-08
-2.33699e-06
-2.47351e-09
-2.40315e-06
-8.49303e-09
-2.33146e-06
-3.66025e-07
-2.11408e-06
-4.75135e-07
-1.85932e-06
-5.60674e-07
-1.73571e-06
-6.205e-07
-1.83526e-06
-6.7623e-07
-7.526e-07
-1.99595e-06
-9.61397e-09
1.60859e-08
-2.82341e-09
0
-2.03629e-09
0
-8.92442e-09
1.10146e-08
-9.96385e-09
0
-1.11089e-08
0
-1.4386e-08
4.43008e-09
-2.04699e-08
0
-1.86508e-08
0
-1.62057e-08
0
-1.43892e-08
0
-1.30463e-08
0
-1.18691e-08
0
-1.0841e-08
-4.19627e-09
-9.27676e-09
-1.35113e-08
-1.02796e-08
-2.24574e-09
-1.27255e-08
-6.75862e-09
-1.67179e-08
-1.18046e-08
-2.64782e-08
-2.21078e-08
-1.95196e-08
-5.83707e-08
-1.60934e-08
-5.33895e-08
-2.87814e-08
-2.10696e-08
-9.6766e-09
-4.70787e-08
-3.63031e-09
1.41575e-08
4.97963e-10
-6.52755e-09
1.50271e-09
5.87854e-09
-1.57396e-08
1.54037e-08
-1.74488e-08
1.01288e-08
-1.40443e-08
5.07286e-09
-7.79999e-09
0
-6.81879e-09
7.06738e-09
-2.43779e-08
1.4619e-09
-2.33712e-08
3.8127e-09
-2.21905e-08
3.64654e-09
-1.78845e-08
2.25206e-10
-1.23006e-08
-2.67057e-09
-3.13202e-09
-1.04822e-08
7.05276e-09
-2.07827e-08
1.94061e-09
-4.74851e-09
6.80598e-09
-9.80575e-09
2.03634e-08
-1.64957e-08
3.7301e-08
-3.53818e-08
3.39334e-08
-3.41975e-08
1.97002e-08
-2.88122e-08
9.51269e-10
0
1.02277e-09
-3.3528e-09
7.27888e-09
7.65529e-09
6.77764e-10
8.99662e-10
1.33253e-09
5.99206e-09
6.68692e-09
4.42275e-09
7.92863e-09
1.7742e-12
1.07992e-08
1.6049e-09
1.01519e-08
5.20041e-09
1.35194e-08
8.24496e-09
8.93455e-09
3.05435e-10
2.49409e-09
2.4587e-10
-6.5898e-10
5.56957e-10
-1.13938e-09
1.92882e-10
-1.03674e-09
-5.74042e-12
-8.78863e-10
-5.23695e-14
-1.61487e-09
-8.99911e-11
7.07728e-09
-9.02827e-10
1.47542e-08
-4.93978e-09
1.82094e-08
-7.39568e-09
1.32693e-08
-1.76962e-08
6.19753e-09
-4.85314e-09
3.24501e-09
-2.21142e-09
-7.75479e-10
1.18944e-09
2.50228e-09
-1.58391e-09
5.76934e-09
7.63019e-10
7.46229e-10
3.55117e-10
5.93545e-10
7.35677e-10
7.22331e-09
3.01199e-09
1.06011e-08
1.64943e-09
5.55955e-09
0
4.83653e-09
0
6.64107e-09
0
1.74739e-09
0
9.00515e-11
0
1.94165e-11
0
7.96654e-12
3.39011e-13
6.18657e-14
0
2.64655e-14
-2.18122e-12
-9.03697e-11
-1.75926e-12
4.69415e-12
-4.92933e-10
-4.94764e-12
-1.19129e-09
-4.61705e-10
-1.66162e-09
-4.46464e-10
-6.87902e-09
-1.57156e-10
-4.02309e-09
-7.26112e-10
2.14416e-12
-1.35355e-10
1.36064e-09
1.51625e-09
1.55721e-09
1.31253e-11
2.38592e-14
9.86359e-12
0
7.42979e-11
1.23032e-11
1.82797e-09
2.05661e-12
2.20587e-09
0
2.84416e-09
1.41335e-13
9.77375e-10
1.84309e-12
4.67971e-12
0
1.11742e-12
0
3.30154e-13
7.0897e-13
1.49985e-13
2.18437e-13
4.43294e-13
3.43654e-14
3.18762e-12
3.06357e-12
9.00468e-12
1.19243e-12
1.92386e-12
-1.99924e-13
-4.515e-12
-3.62714e-12
0
-7.7158e-11
-7.36926e-10
-4.15529e-10
-1.79022e-09
-4.54632e-09
-9.31663e-10
-3.61511e-09
-2.288e-10
-7.32452e-10
1.17143e-09
7.31051e-10
3.66193e-11
3.80466e-09
3.35817e-14
1.95387e-17
2.48161e-13
0
3.76322e-13
0
6.19866e-13
-1.16054e-14
1.25057e-14
-8.4562e-16
1.47057e-13
1.98557e-15
1.47443e-12
6.34527e-15
1.56392e-13
8.04257e-14
7.69753e-14
6.61622e-14
6.6581e-14
6.9699e-13
6.40003e-14
2.0977e-13
5.5699e-14
3.13304e-14
3.01884e-11
8.73388e-12
2.61796e-11
1.07363e-11
2.24359e-12
1.35794e-12
4.67409e-12
0
0
-2.01748e-15
-7.17759e-11
-2.81309e-15
-1.02221e-09
-7.14588e-10
-1.23874e-09
-2.13471e-09
5.50003e-11
-7.62325e-10
1.55206e-09
8.16243e-12
-7.02497e-10
2.00087e-09
1.96527e-14
-5.51884e-15
7.8762e-13
4.39526e-14
2.85405e-13
1.73474e-14
0
-4.0878e-15
1.75242e-15
-3.15515e-16
1.26941e-15
2.05241e-16
3.11568e-15
2.52479e-15
6.50575e-15
2.39203e-14
7.33786e-15
1.1086e-14
1.1387e-11
6.46985e-12
1.06379e-11
1.1356e-11
5.0418e-12
6.00285e-12
2.02027e-12
9.93447e-15
3.22092e-12
0
0
0
2.1235e-15
0
9.1004e-17
1.66625e-18
1.74604e-16
-2.91894e-15
-4.92944e-13
-2.61329e-13
-1.35429e-10
-8.73102e-12
-1.02257e-11
-2.05539e-11
2.02114e-10
-1.69237e-10
-5.86271e-12
6.08787e-11
9.86784e-14
-6.04318e-15
4.01687e-13
-7.541e-14
1.58534e-13
-4.61971e-16
0
-1.89624e-15
2.62855e-15
3.40799e-16
5.36208e-16
3.54867e-16
5.12499e-16
7.28458e-16
1.85328e-12
4.81126e-13
6.31066e-12
6.76248e-12
5.75967e-12
8.04272e-12
7.9321e-12
1.0228e-11
1.28459e-14
0
2.02006e-14
6.31816e-15
2.81933e-14
0
1.05193e-14
0
1.85546e-16
1.46341e-16
1.76263e-16
1.08825e-17
2.88674e-15
-5.42549e-17
1.61774e-15
-2.54516e-13
-8.79357e-16
-8.72813e-12
-1.00111e-12
-1.96548e-11
-3.42382e-15
-1.68874e-11
-5.88975e-12
-2.84544e-15
7.97056e-16
-2.47581e-15
9.01948e-16
-2.46604e-15
5.13456e-16
-7.62933e-16
4.98059e-16
2.04187e-16
-2.45899e-16
1.05277e-15
0
2.06639e-15
0
1.42127e-14
-2.19823e-13
8.90547e-13
2.34229e-13
1.70922e-12
5.2348e-13
1.55474e-13
1.69936e-14
0
0
0
3.32997e-14
6.93505e-14
7.98271e-15
2.88823e-14
3.59673e-17
9.10441e-17
7.21438e-17
5.20556e-17
7.24187e-17
1.06058e-17
6.13647e-17
-4.32673e-17
5.00146e-13
-2.56065e-12
-1.1128e-12
-1.60771e-11
-4.49712e-12
-2.07438e-11
-7.35523e-12
-1.64992e-11
-1.19121e-11
-2.16438e-12
-6.24889e-16
-4.8993e-15
-1.12e-15
-2.43846e-15
-9.41902e-17
9.26631e-16
-9.52516e-17
3.13553e-17
-3.51894e-15
5.25705e-16
-8.46663e-15
9.65022e-15
-5.25499e-14
2.7567e-14
-7.01918e-14
0
-1.0598e-14
0
-9.64434e-16
0
-5.60878e-16
0
-2.69187e-15
5.19816e-16
-1.0976e-15
1.7379e-17
-1.10609e-17
1.03919e-16
6.17058e-18
7.37832e-17
1.34842e-17
4.47401e-17
1.5507e-17
8.58134e-18
2.59128e-16
-2.8689e-16
-1.71204e-12
-4.15018e-13
-7.46491e-12
-1.03095e-11
-1.18767e-11
-1.63175e-11
-1.44872e-11
-1.38741e-11
-9.84901e-12
-1.65357e-11
-1.07708e-13
-2.62259e-14
-1.72237e-13
3.68628e-14
-1.81202e-15
6.21017e-14
-1.73395e-15
6.47072e-17
-4.90242e-15
9.25757e-16
-1.25483e-14
2.30175e-15
-1.33591e-14
2.43225e-15
-1.17938e-14
1.13274e-15
-4.28978e-15
2.92589e-16
-3.52028e-16
9.22326e-16
-1.55088e-16
1.20614e-16
-1.09569e-16
3.21314e-17
-9.47421e-17
7.61265e-18
-8.8985e-17
1.29888e-17
-1.27766e-16
9.7656e-17
-1.14729e-16
8.8435e-17
0
1.4276e-17
0
-3.03436e-17
0
-2.17532e-14
-7.91801e-12
-1.93526e-12
-1.46696e-11
-9.55109e-12
-2.15087e-11
-7.02047e-12
-5.12027e-12
-1.92962e-11
-3.23283e-13
9.12977e-14
-3.36488e-13
3.60091e-13
-2.09279e-15
1.90521e-13
-2.02965e-15
1.02311e-16
-4.0117e-15
9.76457e-16
-5.93175e-15
1.44133e-15
-6.43497e-15
1.40234e-15
-5.56459e-15
1.44013e-15
-1.86991e-15
8.03892e-16
-2.54761e-16
2.41388e-16
-5.38391e-17
4.71983e-17
-2.26148e-17
4.89356e-18
-2.07025e-17
1.79414e-18
-4.32484e-17
1.91484e-18
-8.89829e-17
9.69892e-18
-1.07749e-16
1.10055e-17
-1.0353e-16
1.09575e-18
-1.10359e-16
-3.28044e-17
-2.16497e-14
-2.16963e-16
-1.17941e-12
-4.57273e-16
-6.48006e-12
-5.21895e-16
-5.05156e-12
-4.83377e-16
-1.55211e-15
-3.09112e-13
-3.96596e-13
3.60749e-13
-3.81892e-13
6.56376e-13
-1.59833e-15
3.75105e-13
-1.54093e-15
1.41671e-16
-2.17521e-15
5.01295e-16
-2.23493e-15
6.06738e-16
-1.43849e-15
3.58437e-16
-6.68293e-16
9.76906e-17
-1.86334e-16
2.5432e-17
-2.94739e-17
7.41757e-18
-1.15697e-18
7.61928e-18
-1.8796e-19
3.16193e-19
-1.78429e-19
8.1451e-20
-5.88194e-19
9.95415e-20
-7.89447e-18
7.64605e-19
-5.31421e-17
5.6864e-19
-1.27129e-16
-7.03499e-19
-3.33941e-16
-2.7255e-17
-2.45779e-16
-9.5794e-17
-2.64694e-16
-2.14806e-16
-2.85807e-16
-2.74784e-16
-3.07039e-16
-2.31696e-16
-1.3286e-16
-1.48669e-15
-4.38138e-13
6.08494e-13
-4.80357e-13
1.00977e-12
-6.73055e-16
6.26924e-13
-6.17774e-16
1.82209e-16
-7.39968e-16
2.26556e-16
-5.77181e-16
2.23057e-16
-1.5929e-16
7.32294e-17
-3.62736e-17
5.95302e-18
-3.42907e-18
9.28386e-18
3.89777e-18
9.02276e-20
7.77604e-18
-1.49046e-18
8.04636e-18
-2.64558e-18
6.42897e-18
-2.31944e-18
3.27989e-18
-1.44228e-18
-7.35984e-19
-4.82292e-19
-4.27406e-18
4.16703e-20
-7.15884e-17
-1.60066e-19
-2.70349e-16
-2.6369e-18
-4.45314e-16
-2.57505e-17
-4.81475e-16
-6.75311e-17
-4.51208e-16
-6.06964e-17
-4.04032e-16
-8.7799e-17
-5.24251e-17
-2.44033e-16
-4.70509e-13
6.32169e-13
-5.21262e-13
1.3717e-12
-4.59677e-16
6.47329e-13
-4.07017e-16
2.2431e-16
-2.91357e-16
2.07028e-16
-1.60333e-16
1.89969e-16
-1.16174e-17
2.9055e-17
1.33613e-18
8.91409e-19
7.26417e-18
-5.78993e-19
1.06522e-17
-2.78821e-18
1.22268e-17
-3.56889e-18
1.20478e-17
-3.46483e-18
1.04977e-17
-2.72814e-18
8.00137e-18
-1.70875e-18
4.6742e-18
-7.35947e-19
-4.56093e-20
-7.14511e-20
-1.27858e-18
3.06394e-19
-3.33256e-17
3.51131e-19
-1.24042e-16
-5.35861e-19
-2.17374e-16
-2.23069e-18
-2.63538e-16
-6.94681e-18
-2.52613e-16
-1.10969e-17
-1.03984e-17
-1.28062e-16
-4.57412e-13
5.05589e-13
-4.69437e-13
1.69491e-12
-5.94661e-16
5.04317e-13
-5.4118e-16
2.66654e-16
-4.04725e-16
3.72782e-16
-8.39725e-17
3.7377e-16
-6.54359e-18
2.71742e-17
3.80953e-18
8.59814e-19
8.15666e-18
-1.67456e-18
1.05573e-17
-3.0444e-18
1.16252e-17
-3.28684e-18
1.15241e-17
-2.90762e-18
1.0501e-17
-2.1578e-18
8.91296e-18
-1.27624e-18
7.0584e-18
-4.72174e-19
5.03852e-18
1.00927e-19
2.67194e-18
4.04194e-19
-1.08945e-19
5.3206e-19
-1.16892e-18
5.09934e-19
-9.10741e-18
3.6948e-19
-2.32405e-17
1.47385e-19
-3.09074e-17
-1.89134e-19
-2.08554e-19
-2.52559e-17
-2.99758e-13
1.25238e-13
-4.6188e-13
6.30035e-13
-1.44e-15
1.75986e-14
-1.38554e-15
3.09716e-16
-1.05113e-15
1.55386e-15
-1.44588e-16
8.83801e-16
-1.26361e-17
6.51827e-17
7.32989e-19
5.58589e-18
4.33083e-18
-3.40869e-19
6.36463e-18
-1.64894e-18
7.59492e-18
-1.93874e-18
8.04493e-18
-1.76581e-18
7.77711e-18
-1.30256e-18
6.97248e-18
-7.12884e-19
5.87552e-18
-1.5196e-19
4.71058e-18
1.84763e-19
3.60716e-18
3.67235e-19
2.59442e-18
4.41469e-19
1.6238e-18
4.29661e-19
6.21442e-19
3.63648e-19
-4.80589e-20
2.71765e-19
-1.59843e-19
1.75142e-19
9.36107e-20
-4.65833e-19
-2.73135e-14
5.81685e-16
-3.24023e-15
3.87865e-16
-1.28762e-15
0
-1.71056e-15
2.30929e-15
-1.54505e-15
2.24674e-15
-2.06038e-16
1.07976e-15
-3.85235e-17
1.08419e-16
-1.6738e-17
2.51251e-17
-3.15568e-18
1.01265e-17
1.16552e-18
2.25216e-18
2.66982e-18
-3.64441e-19
3.80032e-18
-6.06511e-19
4.3137e-18
-5.55698e-19
4.23403e-18
-2.9534e-19
3.77822e-18
1.33799e-20
3.16495e-18
1.64548e-19
2.52684e-18
2.68507e-19
1.94626e-18
3.07857e-19
1.45214e-18
2.94593e-19
1.03942e-18
2.50778e-19
6.89698e-19
1.95283e-19
4.06453e-19
1.39497e-19
8.87349e-20
1.87784e-19
-1.3808e-16
1.03458e-15
-2.01935e-16
4.1876e-16
-1.1136e-15
6.98948e-16
-1.52171e-15
2.66634e-15
-8.98929e-16
2.43708e-15
-2.30715e-16
1.01994e-15
-8.72903e-17
1.56798e-16
-5.7418e-17
6.97618e-17
-3.18683e-17
3.92809e-17
-1.26735e-17
1.69123e-17
-2.41687e-18
4.92192e-18
7.76937e-19
8.30491e-19
1.5805e-18
-1.07524e-19
1.95735e-18
-7.77203e-20
1.95104e-18
2.56278e-20
1.73415e-18
1.02185e-19
1.42901e-18
1.62345e-19
1.12026e-18
1.85556e-19
8.50945e-19
1.76798e-19
6.3178e-19
1.496e-19
4.55481e-19
1.16548e-19
3.08048e-19
8.55815e-20
5.87468e-20
1.8128e-19
-5.13591e-17
1.42611e-15
-1.16289e-16
4.82202e-16
-6.99919e-16
6.25627e-16
-1.0023e-15
1.66548e-15
-6.8111e-16
1.58424e-15
-2.02939e-16
4.81199e-16
-1.29119e-16
1.90021e-16
-1.01176e-16
1.20971e-16
-7.33447e-17
7.59548e-17
-4.06668e-17
4.12524e-17
-1.54171e-17
1.59148e-17
-3.10758e-18
3.89089e-18
2.26455e-19
4.36634e-19
6.47301e-19
-7.23745e-21
7.9659e-19
1.05154e-20
7.81669e-19
4.79477e-20
6.73459e-19
8.33789e-20
5.36828e-19
9.81902e-20
4.0751e-19
9.41035e-20
3.0054e-19
7.91912e-20
2.1852e-19
6.10749e-20
1.54488e-19
4.45707e-20
3.14017e-20
9.7905e-20
-4.11187e-17
7.40808e-15
-7.29159e-17
5.12652e-16
-1.57216e-16
7.08559e-16
-3.02498e-16
8.09601e-16
-2.22303e-16
4.2837e-16
-1.51089e-16
2.73035e-16
-1.36958e-16
2.07244e-16
-1.18626e-16
1.59463e-16
-9.60009e-17
1.04818e-16
-6.30037e-17
6.19004e-17
-2.98606e-17
2.7319e-17
-8.7607e-18
7.84083e-18
-1.1442e-18
1.08031e-18
1.30855e-19
1.39003e-20
2.54051e-19
7.19009e-22
2.92497e-19
1.7965e-20
2.6713e-19
3.81042e-20
2.16612e-19
4.69341e-20
1.63541e-19
4.53024e-20
1.18266e-19
3.77384e-20
8.38447e-20
2.85174e-20
5.90844e-20
2.02895e-20
1.41896e-20
3.92209e-20
-3.04816e-17
4.26393e-14
-5.36983e-17
5.34506e-16
-7.14606e-17
7.2495e-16
-8.54543e-17
8.2204e-16
-9.75591e-17
4.38765e-16
-1.06048e-16
2.6212e-16
-1.12321e-16
2.15449e-16
-1.08904e-16
1.81458e-16
-9.26412e-17
1.25836e-16
-6.69593e-17
7.60841e-17
-3.60006e-17
3.59437e-17
-1.18179e-17
1.09041e-17
-1.76787e-18
1.44191e-18
5.16788e-21
-2.07782e-21
6.35168e-20
-1.71541e-21
9.28187e-20
6.48258e-21
9.00674e-20
1.63547e-20
7.38472e-20
2.07928e-20
5.49319e-20
2.00635e-20
3.84306e-20
1.64332e-20
2.60086e-20
1.20631e-20
1.76488e-20
8.23536e-21
5.50003e-21
1.19539e-20
0
6.11888e-14
-2.09913e-13
2.17784e-12
-2.30065e-13
7.17179e-12
-9.34536e-17
4.25651e-12
-6.44864e-17
4.08124e-16
-6.79468e-17
2.6395e-16
-7.79908e-17
2.18187e-16
-7.91966e-17
1.88056e-16
-7.03708e-17
1.38333e-16
-5.33028e-17
8.42838e-17
-2.99581e-17
3.99348e-17
-9.53595e-18
1.16159e-17
-1.16135e-18
1.42184e-18
-2.78734e-20
-1.12112e-20
1.41285e-20
-1.15398e-21
2.50939e-20
2.65998e-21
2.52869e-20
6.72232e-21
2.06619e-20
8.60361e-21
1.49458e-20
8.23203e-21
9.96274e-21
6.59652e-21
6.28487e-21
4.67919e-21
3.90949e-21
3.04411e-21
1.88702e-21
2.60809e-21
0
6.13048e-14
-1.22091e-13
2.76788e-12
-2.91461e-13
7.3855e-12
-2.15065e-13
6.06097e-12
-2.78028e-17
1.00363e-12
-3.34704e-17
2.67989e-16
-3.64752e-17
2.19562e-16
-3.73638e-17
1.91343e-16
-3.64222e-17
1.41844e-16
-2.81319e-17
8.65158e-17
-1.52678e-17
4.06078e-17
-4.11152e-18
1.1031e-17
-3.45396e-19
9.55246e-19
-5.70836e-21
-5.72837e-21
2.84977e-21
-1.81831e-22
5.10893e-21
1.19627e-21
5.1548e-21
2.70831e-21
4.10852e-21
3.36615e-21
2.82481e-21
3.13826e-21
1.73959e-21
2.43891e-21
9.77149e-22
1.66418e-21
5.08529e-22
1.02965e-21
5.9243e-22
2.92848e-22
1.88892e-14
4.34343e-14
5.58561e-14
1.67233e-12
1.79906e-13
7.30465e-12
1.54258e-13
6.12512e-12
0
1.43687e-12
7.59579e-18
6.67281e-16
3.87953e-18
2.21649e-16
2.08067e-18
1.92252e-16
1.40845e-19
1.39443e-16
-9.43683e-19
8.36632e-17
-8.37564e-19
3.56994e-17
-2.18627e-19
7.6703e-18
-1.22335e-20
4.37172e-19
-1.84879e-22
-1.07152e-21
1.45419e-22
-7.07501e-24
2.21758e-22
5.11341e-22
1.85477e-22
1.04755e-21
9.95726e-23
1.23831e-21
1.88295e-23
1.11099e-21
-5.02433e-23
8.3244e-22
-8.97967e-23
5.46601e-22
-9.7207e-23
3.24281e-22
1.77835e-22
-8.57717e-23
2.89748e-15
4.15566e-14
8.09101e-14
1.48474e-13
6.10673e-13
6.81511e-12
6.37164e-13
6.13885e-12
0
7.8175e-13
4.2425e-17
1.17012e-15
3.92522e-17
2.23136e-16
3.9834e-17
1.8445e-16
3.17778e-17
1.27031e-16
2.04541e-17
7.04234e-17
8.4344e-18
2.56147e-17
1.35887e-18
3.99079e-18
4.61575e-20
1.31108e-19
1.82441e-22
-4.43518e-23
6.54388e-24
-3.16644e-24
-3.64814e-22
2.21479e-22
-5.45168e-22
3.89832e-22
-5.35448e-22
4.30226e-22
-4.33703e-22
3.67619e-22
-3.11965e-22
2.63311e-22
-2.06539e-22
1.65009e-22
-1.28653e-22
9.30064e-23
4.81152e-23
-7.65968e-23
3.51795e-15
3.90634e-14
1.10693e-13
3.40754e-14
4.28342e-13
0
1.37447e-13
0
0
0
0
9.13801e-16
7.06065e-17
2.40292e-16
6.57872e-17
1.69461e-16
5.00071e-17
1.06595e-16
2.88252e-17
5.20961e-17
8.80511e-18
1.4445e-17
7.86976e-19
1.33733e-18
1.11339e-20
2.01327e-20
2.88892e-23
3.66449e-24
1.38057e-24
2.43422e-23
-3.27885e-22
9.10358e-23
-4.10406e-22
1.37278e-22
-3.6546e-22
1.40148e-22
-2.7193e-22
1.12505e-22
-1.79016e-22
7.60209e-23
-1.07547e-22
4.49456e-23
-6.01761e-23
2.38492e-23
1.15703e-23
-3.18366e-23
2.94991e-15
3.64988e-14
4.28664e-15
3.15083e-14
3.37338e-15
2.63372e-16
9.23541e-16
9.86932e-17
1.9126e-16
1.14224e-16
1.54652e-16
3.42119e-16
9.16839e-17
2.39864e-16
7.56167e-17
1.42676e-16
5.27287e-17
8.08387e-17
2.36348e-17
3.13875e-17
4.18618e-18
5.36641e-18
1.5268e-19
2.18043e-19
6.90027e-22
1.09724e-21
9.72649e-23
2.10832e-25
-1.07071e-22
1.12488e-23
-2.02576e-22
3.32494e-23
-2.11978e-22
4.47117e-23
-1.71355e-22
4.20072e-23
-1.17556e-22
3.13534e-23
-7.15082e-23
1.97558e-23
-3.95837e-23
1.08923e-23
-2.03e-23
5.38257e-24
2.42628e-24
-9.77656e-24
2.95442e-15
2.8963e-14
5.13005e-15
3.0572e-14
7.78945e-16
8.16794e-15
2.37054e-16
1.79766e-15
1.29542e-16
4.74448e-16
1.11095e-16
2.36312e-16
9.65594e-17
1.63171e-16
7.15559e-17
1.03015e-16
3.99481e-17
4.9039e-17
1.10327e-17
1.23725e-17
8.14385e-19
9.48714e-19
8.9198e-21
1.21776e-20
1.13926e-23
1.7678e-23
2.8957e-24
2.16136e-25
-7.2683e-23
4.10095e-24
-9.92377e-23
1.07261e-23
-8.97027e-23
1.313e-23
-6.54313e-23
1.13468e-23
-4.1064e-23
7.81288e-24
-2.29264e-23
4.54233e-24
-1.16367e-23
2.30829e-24
-5.45535e-24
1.04947e-24
4.34288e-25
-2.39174e-24
2.14548e-15
1.17693e-14
4.54704e-15
1.88712e-14
1.56447e-15
1.00034e-14
4.59862e-16
2.89911e-15
1.47087e-16
6.28528e-16
9.63135e-17
2.06145e-16
7.548e-17
1.11004e-16
4.84994e-17
5.74109e-17
1.78854e-17
1.84446e-17
2.18674e-18
2.18308e-18
4.77207e-20
5.25639e-20
1.35154e-22
1.79612e-22
2.84698e-23
1.24567e-25
-1.97992e-23
-1.99762e-24
-3.93251e-23
1.02863e-24
-4.0827e-23
2.98065e-24
-3.21664e-23
3.40765e-24
-2.10851e-23
2.70899e-24
-1.20044e-23
1.70812e-24
-6.09364e-24
9.06721e-25
-2.80926e-24
4.19528e-25
-1.19307e-24
1.73168e-25
6.4867e-26
-4.72263e-25
6.342e-16
1.26877e-15
2.20855e-15
3.97536e-15
1.65266e-15
4.27718e-15
5.23546e-16
2.06768e-15
1.41955e-16
5.31152e-16
7.09035e-17
1.4403e-16
4.32391e-17
5.70672e-17
1.88738e-17
1.90091e-17
3.31415e-18
2.91289e-18
1.2416e-19
1.10562e-19
6.62659e-22
6.87959e-22
6.9407e-25
8.60721e-25
3.3773e-25
9.76851e-26
-1.2759e-23
-1.66441e-24
-1.63977e-23
1.35425e-25
-1.42086e-23
7.00194e-25
-9.83655e-24
7.68093e-25
-5.76225e-24
5.61546e-25
-2.9485e-24
3.21637e-25
-1.34613e-24
1.54107e-25
-5.57099e-25
6.40521e-26
-2.11719e-25
2.36459e-26
7.88868e-27
-7.4722e-26
4.73548e-17
2.4979e-17
3.75808e-16
1.46182e-16
5.28658e-16
3.24322e-16
2.67837e-16
2.88845e-16
8.30193e-17
1.34419e-16
3.32123e-17
4.56023e-17
1.38811e-17
1.39317e-17
3.05293e-18
2.43811e-18
1.74023e-19
1.28912e-19
1.60208e-21
1.29183e-21
2.90383e-24
2.83481e-24
1.15034e-24
5.31605e-25
-3.37664e-24
-1.06167e-24
-5.88907e-24
-9.74424e-25
-5.70003e-24
-9.79857e-26
-4.21404e-24
1.34489e-25
-2.55934e-24
1.47893e-25
-1.32845e-24
9.94774e-26
-6.04177e-25
5.12738e-26
-2.44961e-25
2.18786e-26
-8.97421e-26
8.04083e-27
-3.00597e-26
2.60831e-27
7.60112e-28
-9.30787e-27
1.21386e-18
3.62231e-19
1.4061e-17
1.49804e-18
2.79983e-17
3.74058e-18
3.24867e-17
5.50697e-18
1.70191e-17
5.74725e-18
7.09454e-18
3.47857e-18
1.85611e-18
9.58711e-19
1.52996e-19
8.21265e-20
2.28037e-21
1.42205e-21
6.61412e-24
5.38599e-24
2.38996e-24
9.83007e-27
-5.49541e-25
-2.70244e-25
-1.95342e-24
-6.88093e-25
-2.19228e-24
-4.57126e-25
-1.69013e-24
-1.05489e-25
-1.06741e-24
1.9599e-26
-5.63733e-25
2.39213e-26
-2.56165e-25
1.48625e-26
-1.02133e-25
6.81637e-27
-3.62115e-26
2.54717e-27
-1.15428e-26
8.1165e-28
-3.34362e-27
2.26293e-28
5.62193e-29
-8.90017e-28
4.5243e-20
1.06641e-20
3.43445e-19
4.02517e-20
5.889e-19
4.14867e-20
7.37675e-19
4.27785e-20
7.97002e-19
5.09221e-20
4.41317e-19
4.40683e-20
7.17791e-20
1.16891e-20
2.14721e-21
6.00525e-22
1.12762e-23
5.83125e-24
2.33861e-26
1.913e-26
1.37603e-26
9.14622e-27
-5.27434e-25
-2.83861e-25
-8.19743e-25
-3.31475e-25
-7.05693e-25
-1.85607e-25
-4.39484e-25
-5.07726e-26
-2.31676e-25
1.59883e-27
-1.04695e-25
3.18695e-27
-4.09685e-26
1.85416e-27
-1.40679e-26
7.45911e-28
-4.2762e-27
2.38617e-28
-1.15976e-27
6.42056e-29
-2.83413e-28
1.4936e-29
3.06156e-30
-6.31456e-29
1.15778e-21
1.00463e-22
1.06505e-20
9.88476e-22
1.34041e-20
7.99004e-22
1.11049e-20
5.10925e-22
8.41143e-21
2.677e-22
4.59603e-21
1.3321e-22
5.77707e-22
2.86395e-23
1.1092e-23
1.50375e-24
4.6433e-26
1.81039e-26
1.76191e-26
1.4657e-26
-1.01667e-25
-7.33162e-26
-2.58641e-25
-1.55751e-25
-2.89553e-25
-1.37056e-25
-2.02383e-25
-6.74858e-26
-1.02692e-25
-1.87593e-26
-4.36024e-26
-1.02127e-27
-1.64139e-26
3.3855e-28
-5.40063e-27
1.92588e-28
-1.55866e-27
6.64845e-29
-3.95197e-28
1.75671e-29
-8.83829e-29
3.83459e-30
-1.76013e-29
7.11918e-31
1.14715e-31
-3.16435e-30
6.93369e-24
7.96296e-26
1.42994e-22
2.8455e-24
1.84993e-22
4.09429e-24
1.15227e-22
3.18565e-24
4.69263e-23
1.23296e-24
1.60191e-23
3.75361e-25
1.99523e-24
7.12074e-26
4.40399e-26
4.13196e-27
1.2111e-26
1.19971e-26
-1.3647e-26
-1.22372e-26
-6.33066e-26
-5.03398e-26
-1.00511e-25
-6.87809e-26
-9.07035e-26