/*--------------------------------*- C++ -*----------------------------------*\
  =========                 |
  \\      /  F ield         | OpenFOAM: The Open Source CFD Toolbox
   \\    /   O peration     | Website:  https://openfoam.org
    \\  /    A nd           | Version:  9
     \\/     M anipulation  |
\*---------------------------------------------------------------------------*/
FoamFile
{
    format      ascii;
    class       volScalarField;
    location    "3.8";
    object      nut;
}
// * * * * * * * * * * * * * * * * * * * * * * * * * * * * * * * * * * * * * //

dimensions      [0 2 -1 0 0 0 0];

internalField   nonuniform List<scalar> 
2268
(
2.27267e-05
2.65671e-05
3.2091e-05
3.56943e-05
3.82857e-05
4.02342e-05
4.17339e-05
4.28994e-05
4.38064e-05
4.45129e-05
4.5068e-05
4.55095e-05
4.58617e-05
4.6151e-05
4.63472e-05
4.63584e-05
4.59108e-05
4.43651e-05
4.21547e-05
4.02769e-05
3.7868e-05
3.30601e-05
2.04711e-05
5.19751e-05
0.000209946
0.000283072
0.000328911
0.000361138
0.000385046
0.000403306
0.000417447
0.000428438
0.000436979
0.00044367
0.00044901
0.000453384
0.000456477
0.000457833
0.000456314
0.000449121
0.000428558
0.000390326
0.000369005
0.000348526
0.000267466
6.81123e-05
6.1715e-05
0.000352415
0.000515502
0.000620576
0.00069512
0.000750634
0.000793084
0.000825957
0.000851478
0.000871242
0.000886519
0.000898305
0.000907271
0.000913131
0.000914876
0.000909953
0.000892961
0.000853266
0.00079041
0.000733334
0.000651537
0.000451575
8.13472e-05
6.88456e-05
0.000449458
0.000692482
0.000854804
0.000972038
0.00106032
0.00112836
0.00118137
0.00122275
0.00125492
0.00127974
0.00129865
0.0013125
0.00132102
0.00132274
0.00131413
0.00128851
0.00123555
0.00115424
0.00105721
0.00090284
0.00058984
9.19283e-05
7.4452e-05
0.000519768
0.000829144
0.00104263
0.00119977
0.00131968
0.00141305
0.00148646
0.00154423
0.00158946
0.0016245
0.00165113
0.00167033
0.0016818
0.00168375
0.00167207
0.00163968
0.0015769
0.00147912
0.0013435
0.00111896
0.000704183
0.000101562
7.91228e-05
0.000573799
0.00093749
0.0011954
0.00138863
0.00153806
0.00165572
0.00174913
0.00182332
0.00188189
0.00192758
0.00196237
0.00198735
0.00200223
0.00200497
0.00199123
0.00195382
0.00188333
0.00177056
0.00160068
0.00131329
0.00080527
0.000111943
8.31881e-05
0.00061737
0.00102572
0.00132176
0.0015471
0.00172357
0.00186406
0.00197669
0.00206697
0.00213886
0.00219533
0.00223856
0.00226969
0.00228842
0.00229266
0.00227795
0.0022371
0.00216043
0.00203535
0.00183779
0.00149981
0.000905745
0.000126305
8.68325e-05
0.000653979
0.0010994
0.00142811
0.00168176
0.00188275
0.00204441
0.00217526
0.00228105
0.00236598
0.00243321
0.00248498
0.00252249
0.00254548
0.00255195
0.00253738
0.00249456
0.00241349
0.00227944
0.0020636
0.0016965
0.00103694
0.000150769
1.80836e-05
3.03847e-05
3.54299e-05
3.7591e-05
3.84496e-05
3.8589e-05
3.834e-05
3.80811e-05
3.81261e-05
3.8409e-05
3.73627e-05
3.55867e-05
3.54877e-05
3.77754e-05
3.96153e-05
3.87386e-05
3.42703e-05
2.80073e-05
2.78549e-05
6.40907e-05
0.000242775
0.000315154
0.000348743
0.0003631
0.000365457
0.000363105
0.000364839
0.000372933
0.000371617
0.00035898
0.000322724
0.000317828
0.000349177
0.000346566
0.000322232
0.000266556
0.000158748
6.20253e-05
7.55885e-05
0.000407234
0.000578947
0.000663667
0.000702844
0.000716184
0.000718849
0.000723718
0.000735009
0.000733276
0.0007091
0.000659827
0.000650153
0.000676491
0.000659101
0.000599475
0.000484342
0.000292502
7.00453e-05
8.53249e-05
0.000528277
0.000791611
0.000928668
0.000996253
0.00102498
0.00103568
0.00104357
0.0010541
0.00105014
0.00101953
0.000967108
0.000946944
0.000949345
0.000906513
0.000808285
0.000643638
0.000394524
7.5457e-05
9.48318e-05
0.000631589
0.000975223
0.00115947
0.00125422
0.00129888
0.00131803
0.00132835
0.00133619
0.00132838
0.00129308
0.00123796
0.00120272
0.00117445
0.00110001
0.00096202
0.00075365
0.000462208
7.94655e-05
0.000106013
0.000731931
0.00114614
0.00136945
0.00148726
0.00154613
0.00157278
0.00158462
0.00158865
0.00157575
0.00153546
0.00147544
0.00142246
0.00136228
0.00125358
0.00107538
0.000825979
0.000501973
8.25543e-05
0.000122531
0.000842765
0.00131682
0.00156815
0.00170301
0.00177301
0.00180543
0.00181764
0.00181708
0.00179779
0.00175172
0.00168435
0.00161249
0.00152165
0.00137823
0.00115952
0.000870112
0.00052105
8.48361e-05
0.000150886
0.000988335
0.00149842
0.00176223
0.0019068
0.00198409
0.00202014
0.00203141
0.0020256
0.00199915
0.0019461
0.00186946
0.00177844
0.00165962
0.00148221
0.00122338
0.000891787
0.000525287
8.56081e-05
9.19321e-05
0.000704051
0.00119792
0.00157037
0.00186307
0.0020988
0.00229126
0.00244918
0.00257846
0.00268349
0.00276753
0.0028329
0.0028808
0.002911
0.00292149
0.00290811
0.00286397
0.00277893
0.00263693
0.00240999
0.00204942
0.00149112
0.00074458
9.82798e-05
0.000758233
0.0012985
0.00171503
0.00204814
0.00232114
0.00254793
0.00273697
0.00289388
0.00302321
0.00312822
0.00321125
0.00327355
0.003315
0.00333372
0.00332614
0.00328675
0.00320715
0.00307502
0.00287374
0.00258428
0.00219455
0.00172412
0.000106035
0.000799671
0.00137641
0.00183047
0.00219486
0.0024972
0.00275233
0.00296776
0.0031483
0.00329912
0.00342325
0.00352288
0.00359931
0.00365264
0.0036813
0.00368209
0.00365221
0.00358591
0.0034753
0.00331325
0.00309692
0.00283626
0.00256154
0.000116716
0.000811373
0.00142476
0.00192326
0.00231045
0.00263605
0.00291532
0.00315365
0.00335455
0.00352526
0.00366719
0.00378262
0.00387306
0.0039391
0.00397912
0.00398945
0.0039723
0.00392368
0.00383776
0.003713
0.00355181
0.0033709
0.00319837
0.000119992
0.000808772
0.00145498
0.00198378
0.00239343
0.00274146
0.00304123
0.003297
0.0035193
0.00371039
0.00386904
0.00399932
0.0041033
0.00418166
0.00423296
0.00425407
0.00425105
0.00422057
0.00415574
0.00405634
0.00393201
0.00380377
0.00368664
0.000114411
0.000775857
0.00147971
0.00201158
0.00242832
0.00280129
0.0031256
0.003402
0.00364525
0.00385788
0.00403459
0.0041804
0.00429701
0.00438585
0.0044466
0.0044796
0.00448848
0.00446987
0.0044187
0.00433251
0.00422709
0.00411715
0.00402911
0.000110841
0.000765157
0.00151264
0.00206923
0.00248494
0.00285515
0.00319151
0.00348866
0.00375227
0.00398107
0.00417373
0.00433412
0.00446287
0.00456172
0.00463092
0.00467156
0.0046873
0.0046761
0.00463343
0.00455901
0.00446722
0.00437343
0.00431566
0.000112499
0.000828781
0.00155638
0.00213144
0.00257655
0.00295953
0.0032988
0.00360113
0.00387001
0.0041033
0.00430377
0.00447266
0.0046099
0.00471601
0.00479188
0.00483863
0.00485817
0.00485069
0.00481676
0.00475876
0.00468577
0.00461003
0.00455908
0.000115131
0.000873307
0.00160614
0.00220369
0.00268689
0.00309183
0.0034392
0.00374168
0.00400685
0.00423797
0.00443776
0.00460714
0.00474617
0.00485508
0.00493458
0.00498587
0.00501025
0.00500917
0.00498451
0.00493737
0.00487658
0.00480907
0.00476183
0.000116588
0.000917732
0.0016873
0.00231066
0.00281715
0.00323606
0.00358827
0.00388966
0.00415079
0.0043775
0.00457319
0.00473926
0.00487624
0.00498457
0.00506517
0.00511951
0.00514907
0.00515556
0.00513968
0.00510031
0.00504551
0.00498649
0.00494026
0.000118165
0.000966599
0.00177912
0.00242616
0.00294715
0.00337415
0.00372956
0.00403053
0.00428887
0.00451178
0.00470341
0.00486583
0.00500018
0.00510743
0.00518884
0.00524606
0.00528065
0.0052936
0.00528493
0.00525417
0.0052068
0.00515498
0.00511054
0.000120027
0.0010115
0.00186045
0.00252877
0.00306189
0.00349515
0.00385368
0.00415554
0.0044131
0.00463417
0.00482329
0.00498333
0.00511613
0.00522317
0.00530603
0.00536637
0.00540558
0.00542428
0.00542237
0.00540033
0.00536265
0.00531862
0.00527691
0.000122154
0.00104057
0.00191928
0.00260723
0.00315218
0.00359327
0.00395708
0.00426201
0.00452071
0.00474157
0.00493002
0.0050895
0.00522239
0.00533057
0.00541583
0.00547977
0.00552365
0.00554799
0.00555301
0.00553977
0.005512
0.00547621
0.00543863
0.000123663
0.00105827
0.00195842
0.00266308
0.00322006
0.0036699
0.00404014
0.0043496
0.00461121
0.00483384
0.00502346
0.00518412
0.00531867
0.00542934
0.00551801
0.00558628
0.00563535
0.00566581
0.0056782
0.00567384
0.00565567
0.00562823
0.00559599
0.000124425
0.00106872
0.00198287
0.00270057
0.0032684
0.00372697
0.00410422
0.00441923
0.0046852
0.00491129
0.0051039
0.00526752
0.00540538
0.00551995
0.0056132
0.00568673
0.00574174
0.00577899
0.0057992
0.00580373
0.00579488
0.00577582
0.00574976
0.000124643
0.00107291
0.00199522
0.00272246
0.00329953
0.0037664
0.00415094
0.0044723
0.00474381
0.00497487
0.00517214
0.0053404
0.00548314
0.005603
0.00570203
0.00578185
0.00584368
0.00588839
0.00591684
0.00593028
0.00593052
0.00591981
0.00590043
0.000124492
0.00107114
0.00199695
0.00273064
0.0033153
0.00378988
0.00418182
0.00451017
0.00478828
0.00502563
0.00522905
0.00540348
0.00555255
0.00567902
0.00578499
0.00587209
0.0059416
0.00599438
0.0060314
0.00605378
0.00606293
0.00606047
0.006048
0.000124012
0.00106381
0.00198908
0.00272652
0.0033172
0.00379883
0.00419821
0.0045341
0.00481971
0.00506453
0.00527541
0.00545736
0.00561408
0.00574836
0.00586232
0.00595761
0.0060355
0.00609689
0.00614274
0.00617406
0.00619194
0.00619758
0.00619207
0.000123183
0.0010519
0.00197277
0.00271137
0.00330653
0.00379452
0.0042013
0.00454517
0.0048391
0.00509241
0.00531191
0.00550256
0.00566806
0.00581119
0.00593407
0.00603832
0.00612515
0.00619554
0.00625039
0.0062906
0.00631703
0.00633058
0.006332
0.000122004
0.00103633
0.00194918
0.00268645
0.00328456
0.00377817
0.00419225
0.00454446
0.00484738
0.00511007
0.00533917
0.00553953
0.00571477
0.00586762
0.00600014
0.00611393
0.00621013
0.00628976
0.00635368
0.00640268
0.00643748
0.00645873
0.006467
0.000120491
0.00101772
0.00191936
0.00265294
0.00325253
0.00375104
0.00417228
0.0045331
0.00484557
0.00511838
0.00535788
0.00556876
0.0057545
0.00591771
0.00606041
0.0061841
0.00628993
0.0063789
0.00645184
0.00650947
0.00655239
0.00658115
0.00659612
0.000118659
0.000996587
0.00188424
0.00261205
0.00321178
0.00371451
0.00414273
0.00451237
0.00483483
0.00511833
0.00536887
0.00559086
0.00578761
0.00596161
0.00611478
0.00624852
0.00636402
0.00646225
0.00654403
0.00661002
0.00666079
0.00669676
0.00671828
0.00011652
0.000973404
0.00184477
0.002565
0.00316373
0.0036701
0.00410514
0.00448375
0.00481654
0.00511113
0.00537311
0.00560657
0.00581459
0.00599951
0.00616314
0.00630686
0.00643184
0.00653906
0.00662933
0.0067033
0.00676151
0.00680438
0.00683218
0.000114085
0.000948635
0.00180187
0.0025131
0.00310993
0.00361949
0.00406127
0.00444895
0.00479226
0.00509817
0.00537175
0.00561675
0.005836
0.00603166
0.00620547
0.00635878
0.00649279
0.00660849
0.00670671
0.00678812
0.00685329
0.00690263
0.00693641
0.00011136
0.000922752
0.00175652
0.00245774
0.00305209
0.00356461
0.00401307
0.00440988
0.00476377
0.00508098
0.00536604
0.00562232
0.0058524
0.00605829
0.00624165
0.00640388
0.00654619
0.00666962
0.00677506
0.00686326
0.00693479
0.0069901
0.00702948
0.000108325
0.000896114
0.00170962
0.00240032
0.00299202
0.00350748
0.00396265
0.00436856
0.0047329
0.00506112
0.0053572
0.00562415
0.00586429
0.00607954
0.0062715
0.00644164
0.00659126
0.00672148
0.00683328
0.00692748
0.00700472
0.00706547
0.00711006
0.000104962
0.000868346
0.00166149
0.00234211
0.00293159
0.00345025
0.00391219
0.00432704
0.00470143
0.00504005
0.00534635
0.00562296
0.00587202
0.00609539
0.0062947
0.00647152
0.00662725
0.00676318
0.00688038
0.00697978
0.00706206
0.00712776
0.00717721
0.00010161
0.000835448
0.00161127
0.00228414
0.00287264
0.00339501
0.00386373
0.00428714
0.0046709
0.00501898
0.00533429
0.0056192
0.00587573
0.00610572
0.00631089
0.00649298
0.00665356
0.00679408
0.00691576
0.00701961
0.0071064
0.00717665
0.0072307
9.83656e-05
0.000803422
0.00156322
0.00222985
0.00281816
0.00334434
0.00381939
0.00425051
0.00464249
0.00499863
0.00532145
0.00561304
0.00587535
0.00611031
0.0063198
0.00650574
0.00666997
0.00681409
0.00693949
0.00704725
0.00713817
0.00721278
0.00727138
9.52877e-05
0.000776373
0.0015219
0.00218296
0.00277106
0.00330044
0.00378082
0.00421837
0.00461707
0.00497964
0.00530818
0.00560465
0.00587098
0.00610926
0.00632159
0.00651016
0.00667704
0.00682405
0.0069527
0.00706413
0.00715913
0.00723817
0.00730148
9.25159e-05
0.000756364
0.00149006
0.00214572
0.00273279
0.00326412
0.00374836
0.00419076
0.00459454
0.00496184
0.0052944
0.00559405
0.00586282
0.00610301
0.00631703
0.00650735
0.00667632
0.00682594
0.00695781
0.00707307
0.00717244
0.00725627
0.00732465
9.01804e-05
0.00074337
0.00146787
0.00211788
0.00270249
0.00323406
0.0037205
0.00416627
0.00457376
0.00494445
0.00527973
0.0055813
0.00585138
0.00609257
0.00630766
0.00649942
0.00667048
0.00682299
0.00695859
0.00707832
0.00718273
0.00727198
0.00734597
8.83597e-05
0.000736031
0.00145302
0.00209615
0.00267621
0.00320618
0.0036936
0.00414199
0.00455267
0.00492628
0.00526374
0.00556673
0.00583769
0.00607965
0.00629588
0.00648949
0.00666334
0.0068197
0.00696012
0.00708546
0.00719595
0.00729147
0.00737168
8.70827e-05
0.000732365
0.0014408
0.00207371
0.00264639
0.00317347
0.00366196
0.00411378
0.00452865
0.00490602
0.00524627
0.00555108
0.00582333
0.00606664
0.00628487
0.00648149
0.00665962
0.00682151
0.00696852
0.0071011
0.00721904
0.00732179
0.00740876
8.63808e-05
0.00073011
0.00142365
0.00203972
0.00260188
0.0031264
0.00361841
0.00407693
0.00449908
0.0048827
0.00522756
0.00553559
0.00581036
0.00605634
0.00627814
0.00647979
0.00666451
0.00683445
0.00699053
0.00713254
0.00725955
0.00737045
0.00746445
8.64234e-05
0.000726689
0.00139073
0.00197999
0.00252939
0.00305451
0.00355582
0.00402722
0.00446201
0.00485595
0.00520837
0.00552178
0.00580091
0.00605147
0.00627909
0.00648854
0.00668311
0.00686462
0.00703317
0.00718744
0.00732532
0.00744506
0.0075458
8.78858e-05
0.000719606
0.00133132
0.00188276
0.00241888
0.00295043
0.00346958
0.00396244
0.00441691
0.0048263
0.00518978
0.00551107
0.00579667
0.00605402
0.00629022
0.00651098
0.00671979
0.00691784
0.00710369
0.00727389
0.00742448
0.00755306
0.0076593
9.30642e-05
0.000713912
0.00125377
0.00175638
0.00227522
0.00281637
0.00336103
0.00388392
0.00436524
0.00479514
0.00517296
0.00550438
0.00579831
0.00606458
0.00631228
0.00654858
0.00677763
0.00699958
0.00721
0.00740106
0.00756575
0.00770179
0.00781064
0.000108131
0.000743917
0.00121454
0.00164929
0.0021295
0.00266988
0.00324013
0.00379773
0.00431077
0.00476462
0.00515886
0.00550168
0.00580506
0.00608176
0.00634357
0.00660016
0.00685753
0.00711506
0.00736244
0.0075809
0.00775925
0.00789835
0.00800428
0.00014248
0.000831909
0.00126686
0.00162009
0.00202714
0.0025402
0.00312467
0.00371447
0.00425937
0.00473742
0.005148
0.00550198
0.00581466
0.00610205
0.00637939
0.00666053
0.00695634
0.0072689
0.00757855
0.00783167
0.00801724
0.00814908
0.00824267
0.000214908
0.000875158
0.00133867
0.00165217
0.00198423
0.00245086
0.00303424
0.00364721
0.00421828
0.0047165
0.00514053
0.00550354
0.00582378
0.00612022
0.00641183
0.00671847
0.00706182
0.00746056
0.00789833
0.00818367
0.00835322
0.00845734
0.00852466
0.000413086
0.000756875
0.0013018
0.00166136
0.00197003
0.00240591
0.00298366
0.00360857
0.00419476
0.00470475
0.00513653
0.00550466
0.00582916
0.00613086
0.00643135
0.00675609
0.00714214
0.00765597
0.00844009
0.00868269
0.00877399
0.00881784
0.00884295
0.000155491
0.000142997
0.000141253
0.000148778
0.00136951
0.0012969
0.00127724
0.0013116
0.00239463
0.00232764
0.00229624
0.00230151
0.00310195
0.00305509
0.00302005
0.00299864
0.00362103
0.00358692
0.00355286
0.00351949
0.00399923
0.00397271
0.0039447
0.00391366
0.00429443
0.00427573
0.00425444
0.00422427
0.00453179
0.00451331
0.00449172
0.00446516
0.00473115
0.00471146
0.00469093
0.0046719
0.00491101
0.00489287
0.00487573
0.0048606
0.00508234
0.00506526
0.00504919
0.00503414
0.00524896
0.00523176
0.00521514
0.00519896
0.00541138
0.00539409
0.00537687
0.0053596
0.00557044
0.00555365
0.00553639
0.00551857
0.00572687
0.00571122
0.00569455
0.00567681
0.00588091
0.0058669
0.00585137
0.00583428
0.00603228
0.00602027
0.00600629
0.0059903
0.0061804
0.00617063
0.00615849
0.00614398
0.00632454
0.00631715
0.00630708
0.00629431
0.00646381
0.00645892
0.00645107
0.00644027
0.00659724
0.00659489
0.00658937
0.00658069
0.00672366
0.00672387
0.00672074
0.00671428
0.00684173
0.00684448
0.00684376
0.00683955
0.00694998
0.00695521
0.00695685
0.00695491
0.00704689
0.0070545
0.00705846
0.00705875
0.00713112
0.00714102
0.00714722
0.00714972
0.00720175
0.00721387
0.00722228
0.00722696
0.00725864
0.00727297
0.00728358
0.00729047
0.00730277
0.00731934
0.00733223
0.00734141
0.00733647
0.0073554
0.00737067
0.00738227
0.0073635
0.00738495
0.00740277
0.00741694
0.00738899
0.00741314
0.00743367
0.00745055
0.00741915
0.00744613
0.00746945
0.0074891
0.0074608
0.00749062
0.0075167
0.00753903
0.00752089
0.00755334
0.0075819
0.0076066
0.00760596
0.00764052
0.00767098
0.00769742
0.00772179
0.00775748
0.00778883
0.00781602
0.00787301
0.00790827
0.00793899
0.00796549
0.00806272
0.00809527
0.00812329
0.00814723
0.00829184
0.0083187
0.00834148
0.00836071
0.00855806
0.00857593
0.00859084
0.00860327
0.00885472
0.0088609
0.00886598
0.00887018
0.000774608
0.00139481
0.00181065
0.00206339
0.00221313
0.00229612
0.0023343
0.00234201
0.00232688
0.00228827
0.00222266
0.00212958
0.0020092
0.00184848
0.0016192
0.00130182
0.000904802
0.000496091
8.4353e-05
0.00161975
0.00198788
0.00227223
0.00247172
0.00260128
0.00267566
0.00270546
0.00270194
0.00267179
0.00261575
0.0025316
0.00241667
0.002266
0.00206499
0.00178406
0.00140113
0.0009217
0.000439036
8.30937e-05
0.00238182
0.00255683
0.00272886
0.00286785
0.00296491
0.00301994
0.00303541
0.00301687
0.00296948
0.00289439
0.00279118
0.00265688
0.00248469
0.00225955
0.00195163
0.00152843
0.000992709
0.000444004
9.11388e-05
0.0029945
0.00305863
0.00315112
0.0032373
0.00329963
0.00333079
0.00332602
0.00328925
0.00322467
0.00313159
0.00301036
0.0028589
0.00267115
0.00243428
0.00212148
0.00169476
0.00115652
0.000567206
0.000106986
0.00347976
0.00348473
0.00352534
0.00357024
0.00360042
0.00360654
0.00357988
0.00352422
0.00344216
0.00333297
0.00319546
0.00302783
0.00282629
0.00258298
0.00228029
0.00187864
0.00138418
0.000791243
0.000124061
0.00386878
0.00384852
0.00385523
0.00386723
0.00386644
0.00384478
0.00379768
0.00372445
0.00362559
0.00349894
0.00334304
0.00315579
0.00293378
0.00266932
0.00235372
0.00197337
0.00150343
0.000874977
0.000125386
0.00418074
0.0041527
0.00413978
0.00412627
0.00409843
0.00405347
0.00398819
0.00389698
0.00377895
0.00363169
0.00345368
0.00324308
0.00299617
0.00270776
0.00237776
0.00199479
0.00151831
0.000862049
0.000111885
0.00443194
0.00440375
0.00437966
0.0043493
0.00430219
0.00423705
0.0041526
0.00404177
0.00390257
0.00373286
0.00353148
0.00329651
0.00302415
0.00271268
0.00236553
0.00196494
0.00147445
0.000816123
0.000106062
0.0046483
0.00462016
0.00458777
0.00454331
0.00447905
0.00439467
0.00429067
0.00416099
0.00400229
0.00381202
0.00358872
0.00332961
0.00303143
0.00269503
0.00232535
0.00190827
0.00141332
0.000776368
9.94084e-05
0.0048389
0.00480842
0.00476876
0.00471308
0.00463571
0.00453666
0.00441602
0.00426956
0.00409401
0.00388647
0.00364351
0.00336073
0.00303582
0.00267122
0.00227326
0.00183176
0.00132454
0.000704529
9.20791e-05
0.00501048
0.00497512
0.0049292
0.00486596
0.00478067
0.00467221
0.00453949
0.00437979
0.00419038
0.00396846
0.00370838
0.00340482
0.00305601
0.00266493
0.00223624
0.00175985
0.00122309
0.000617368
8.6708e-05
0.00517227
0.00513136
0.00507976
0.00501101
0.00492057
0.00480593
0.00466506
0.00449578
0.00429613
0.00406308
0.00379011
0.00347192
0.00310708
0.00269733
0.00224144
0.00172923
0.00115696
0.000554721
8.7257e-05
0.00533029
0.00528442
0.00522773
0.00515439
0.00505987
0.00494078
0.00479456
0.00461895
0.0044126
0.00417231
0.00389177
0.00356649
0.00319401
0.00277391
0.00230002
0.00176347
0.0011688
0.000559505
9.30146e-05
0.0054876
0.00543786
0.00537686
0.00529946
0.00520129
0.00507871
0.0049289
0.00474959
0.00453955
0.00429566
0.00401245
0.00368534
0.00331112
0.00288573
0.00240182
0.00185439
0.00125162
0.000626676
9.9894e-05
0.00564523
0.00559284
0.00552841
0.00544753
0.00534619
0.00522088
0.00506865
0.00488757
0.004676
0.00443095
0.00414778
0.00382184
0.00344846
0.00302117
0.00253234
0.00197856
0.00136288
0.000702324
0.00010584
0.00580303
0.0057492
0.00568229
0.00559862
0.0054947
0.00536732
0.00521382
0.00503219
0.00482046
0.00457569
0.00429369
0.00396956
0.00359749
0.00316977
0.00267776
0.0021147
0.00147538
0.000763847
0.000110539
0.00596021
0.0059061
0.00583776
0.00575222
0.00564652
0.00551787
0.00536384
0.00518232
0.00497108
0.00472712
0.00444632
0.00412348
0.00375194
0.00332298
0.00282619
0.00225058
0.00158356
0.000821604
0.000114405
0.00611573
0.00606247
0.00599382
0.00590744
0.00580086
0.00567167
0.00551761
0.00533651
0.00512592
0.00488267
0.00460249
0.00427979
0.0039073
0.003475
0.00297106
0.00238096
0.00168724
0.000881619
0.000117812
0.00626846
0.00621707
0.00614917
0.00606297
0.00595639
0.00582732
0.00567364
0.00549309
0.00528302
0.00504002
0.00475955
0.00443559
0.00406014
0.00362234
0.00310891
0.0025028
0.00178387
0.000940878
0.000120991
0.00641726
0.00636859
0.00630242
0.0062173
0.00611152
0.00598316
0.00583017
0.0056502
0.0054404
0.00519707
0.00491534
0.00458875
0.00420838
0.00376289
0.00323772
0.00261329
0.00186732
0.000986819
0.000124165
0.00656087
0.00651561
0.00645201
0.00636878
0.00626446
0.00613731
0.00598527
0.00580588
0.00559607
0.00535184
0.00506797
0.00473728
0.00435056
0.00389541
0.0033567
0.00271365
0.00194109
0.00102281
0.000127036
0.00669787
0.00665654
0.00659612
0.0065155
0.00641327
0.00628774
0.00613687
0.00595807
0.00574805
0.00550247
0.00521562
0.00487988
0.00448592
0.00402106
0.0034687
0.00280686
0.00200836
0.00105455
0.000129443
0.0068267
0.00678964
0.00673286
0.00665532
0.00655567
0.00643222
0.00628281
0.0061047
0.00589434
0.00564707
0.005357
0.00501644
0.00461531
0.00414036
0.00357414
0.00289371
0.00207042
0.0010836
0.000131281
0.00694566
0.0069131
0.00686028
0.0067862
0.00668951
0.00656846
0.0064208
0.0062436
0.00603312
0.00578463
0.00549185
0.00514667
0.00473852
0.00425358
0.0036737
0.00297513
0.00212821
0.00111095
0.000132282
0.00705312
0.0070252
0.00697659
0.00690629
0.00681293
0.00669468
0.00654918
0.00637346
0.00616357
0.00591446
0.00561956
0.00527036
0.0048558
0.00436148
0.00376855
0.00305256
0.00218317
0.00113776
0.00013263
0.00714769
0.00712453
0.00708038
0.00701419
0.00692458
0.00680968
0.00666705
0.00649353
0.00628499
0.00603612
0.00574004
0.00538784
0.00496794
0.0044653
0.00386036
0.00312789
0.00223695
0.00116465
0.000132893
0.00722856
0.0072103
0.00717088
0.00710923
0.00702392
0.00691303
0.006774
0.00660354
0.00639734
0.00614984
0.00585383
0.00549998
0.00507619
0.00456672
0.00395115
0.00320328
0.00229131
0.00119221
0.000133482
0.00729577
0.00728267
0.00724835
0.00719172
0.0071113
0.00700512
0.00687054
0.00670414
0.00650144
0.00625663
0.00596217
0.00560832
0.00518236
0.00466781
0.00404321
0.00328106
0.00234816
0.00122095
0.000134933
0.00735057
0.00734296
0.00731415
0.00726305
0.00718816
0.00708746
0.00695826
0.00679701
0.00659907
0.0063584
0.00606713
0.00571504
0.00528879
0.00477102
0.00413907
0.00336371
0.00240955
0.00125186
0.000137613
0.00739554
0.00739377
0.0073709
0.00732585
0.00725713
0.00716269
0.00703982
0.00688486
0.00669302
0.00645801
0.00617161
0.00582309
0.00539843
0.00487927
0.00424153
0.00345385
0.00247785
0.00128655
0.000141246
0.00743457
0.007439
0.00742246
0.00738393
0.00732195
0.00723453
0.00711891
0.00697139
0.006787
0.00655921
0.00627938
0.00593624
0.00551496
0.00499607
0.00435383
0.00355445
0.00255583
0.00132759
0.000145357
0.00747273
0.00748359
0.00747364
0.00744196
0.00738722
0.00730747
0.0072
0.00706104
0.00688548
0.00666649
0.00639501
0.00605905
0.00564288
0.00512568
0.00447987
0.00366885
0.00264626
0.00137668
0.000149987
0.0075159
0.0075332
0.00752986
0.00750517
0.00745796
0.00738643
0.00728793
0.00715865
0.00699335
0.00678489
0.00652366
0.00619689
0.00578761
0.00527341
0.00462447
0.00380107
0.00275206
0.00143533
0.000155315
0.00757024
0.00759361
0.00759659
0.00757875
0.00753917
0.00747626
0.00738745
0.00726899
0.0071155
0.00691953
0.00667086
0.00635569
0.00595554
0.00544582
0.0047939
0.00395637
0.00287685
0.00150552
0.000161479
0.00764164
0.00767027
0.00767886
0.00766741
0.00763533
0.00758126
0.00750282
0.00739633
0.00725637
0.0070752
0.00684195
0.00654165
0.00615385
0.00565103
0.00499659
0.0041423
0.00302604
0.0015902
0.000168547
0.00773523
0.00776774
0.00778083
0.00777498
0.00774999
0.0077048
0.00763729
0.00754395
0.0074194
0.00725575
0.00704159
0.00676069
0.00639025
0.00589877
0.00524389
0.00437018
0.00320819
0.00169326
0.000177088
0.00785496
0.00788938
0.00790542
0.00790407
0.00788554
0.00784909
0.00779293
0.00771382
0.00760663
0.00746357
0.00727298
0.0070176
0.0066721
0.00620006
0.00555069
0.00465691
0.00343744
0.0018211
0.000188162
0.00800331
0.00803715
0.00805425
0.00805606
0.00804314
0.00801509
0.00797046
0.00790646
0.00781845
0.00769913
0.00753716
0.00731492
0.00700517
0.00656609
0.0059356
0.0050276
0.00373809
0.00198635
0.000202744
0.00818117
0.00821155
0.00822764
0.00823115
0.00822285
0.00820262
0.00816942
0.00812099
0.0080535
0.00796064
0.00783225
0.00765171
0.00739152
0.00700597
0.00642028
0.00551962
0.00415404
0.00221328
0.000222743
0.00838772
0.00841175
0.00842482
0.00842859
0.00842385
0.00841068
0.00838838
0.0083554
0.0083089
0.00824414
0.00815314
0.00802218
0.00782685
0.00752249
0.00702624
0.00618887
0.00477503
0.0025686
0.000250585
0.00862055
0.0086358
0.00864422
0.00864704
0.00864485
0.00863777
0.00862545
0.00860701
0.0085808
0.00854401
0.00849171
0.0084151
0.00829737
0.0081045
0.00776325
0.00710989
0.00579255
0.0032705
0.000290006
0.00887598
0.00888107
0.00888391
0.00888496
0.00888442
0.00888235
0.00887867
0.00887311
0.00886518
0.00885403
0.00883813
0.0088147
0.00877816
0.00871622
0.00859782
0.00833072
0.00759214
0.00521306
0.000343122
)
;

boundaryField
{
    leftWall
    {
        type            nutkWallFunction;
        Cmu             0.09;
        kappa           0.41;
        E               9.8;
        value           nonuniform List<scalar> 
50
(
4.25682e-06
6.30406e-06
7.47044e-06
8.31084e-06
8.96462e-06
9.50508e-06
9.97265e-06
1.03896e-05
1.09679e-05
1.1687e-05
1.26055e-05
1.27068e-05
1.32155e-05
1.31967e-05
1.20876e-05
6.97936e-06
7.30345e-06
7.52485e-06
7.76182e-06
8.04666e-06
8.37281e-06
8.60054e-06
8.71377e-06
8.74254e-06
8.71557e-06
8.64002e-06
8.51106e-06
8.32758e-06
8.09237e-06
7.8082e-06
7.47568e-06
7.09611e-06
6.66987e-06
6.19338e-06
5.66322e-06
5.133e-06
4.61782e-06
4.12718e-06
3.68389e-06
3.30936e-06
3.01685e-06
2.81156e-06
2.69894e-06
2.70652e-06
2.94314e-06
3.77593e-06
6.17248e-06
1.15098e-05
2.21521e-05
4.87277e-05
)
;
    }
    rightWall
    {
        type            nutkWallFunction;
        Cmu             0.09;
        kappa           0.41;
        E               9.8;
        value           nonuniform List<scalar> 
50
(
5.64092e-06
7.49363e-06
8.44231e-06
9.07679e-06
9.54527e-06
9.90576e-06
1.01707e-05
1.02569e-05
1.01094e-05
9.96949e-06
1.09199e-05
1.02329e-05
1.26699e-05
1.34206e-05
1.06982e-05
7.21164e-06
4.79934e-06
3.62017e-06
2.79617e-06
3.20478e-06
4.13092e-06
5.00352e-06
5.83434e-06
6.57893e-06
7.29409e-06
7.84163e-06
8.32678e-06
8.80942e-06
9.24509e-06
9.61027e-06
9.80849e-06
9.88898e-06
9.94318e-06
9.98197e-06
1.00685e-05
1.03524e-05
1.0812e-05
1.13545e-05
1.19651e-05
1.26485e-05
1.34354e-05
1.43224e-05
1.52962e-05
1.65375e-05
1.81513e-05
2.02345e-05
2.30596e-05
2.69453e-05
3.23646e-05
3.95067e-05
)
;
    }
    lowerWall
    {
        type            nutkWallFunction;
        Cmu             0.09;
        kappa           0.41;
        E               9.8;
        value           nonuniform List<scalar> 
62
(
1.79508e-06
3.12252e-06
3.83915e-06
4.29793e-06
4.62415e-06
4.86754e-06
5.05378e-06
5.19789e-06
5.3096e-06
5.3963e-06
5.46424e-06
5.51817e-06
5.56115e-06
5.59604e-06
5.61975e-06
5.62126e-06
5.56752e-06
5.38069e-06
5.10757e-06
4.87329e-06
4.57023e-06
3.96073e-06
2.30435e-06
2.30435e-06
8.21719e-06
9.75442e-06
1.09629e-05
1.20482e-05
1.3199e-05
1.47639e-05
1.74062e-05
1.79188e-05
1.65613e-05
1.63748e-05
1.71988e-05
1.99131e-06
7.75793e-06
9.09177e-06
1.02054e-05
1.1278e-05
1.25201e-05
1.43275e-05
1.73931e-05
1.99131e-06
3.6159e-06
4.26165e-06
4.53431e-06
4.64218e-06
4.65987e-06
4.62782e-06
4.59454e-06
4.5993e-06
4.6349e-06
4.50429e-06
4.28153e-06
4.27413e-06
4.56179e-06
4.79034e-06
4.67813e-06
4.10963e-06
3.3021e-06
2.2165e-06
)
;
    }
    atmosphere
    {
        type            calculated;
        value           nonuniform List<scalar> 
46
(
0.009
0.000756875
0.0013018
0.00166136
0.00197003
0.00240591
0.00298366
0.00360857
0.00419476
0.00470475
0.00513653
0.00550466
0.00582916
0.00613086
0.00643135
0.00675609
0.00714214
0.00765597
0.009
0.009
0.009
0.009
0.009
0.009
0.009
0.009
0.009
0.009
0.009
0.009
0.009
0.009
0.009
0.009
0.009
0.009
0.009
0.009
0.009
0.009
0.009
0.009
0.009
0.009
0.009
0.000343122
)
;
    }
    defaultFaces
    {
        type            empty;
    }
}


// ************************************************************************* //
