/*--------------------------------*- C++ -*----------------------------------*\
  =========                 |
  \\      /  F ield         | OpenFOAM: The Open Source CFD Toolbox
   \\    /   O peration     | Website:  https://openfoam.org
    \\  /    A nd           | Version:  9
     \\/     M anipulation  |
\*---------------------------------------------------------------------------*/
FoamFile
{
    format      ascii;
    class       volScalarField;
    location    "6.09";
    object      k;
}
// * * * * * * * * * * * * * * * * * * * * * * * * * * * * * * * * * * * * * //

dimensions      [0 2 -2 0 0 0 0];

internalField   nonuniform List<scalar> 
2268
(
0.000197424
0.000484053
0.000707248
0.000879209
0.00101881
0.00113556
0.00123526
0.00132135
0.00139592
0.00146085
0.00151765
0.00156828
0.00161432
0.00165416
0.00167992
0.0016717
0.0015858
0.00142905
0.00125696
0.00112322
0.000989068
0.000780033
0.000346502
0.000422547
0.00111997
0.00158266
0.00194498
0.00224153
0.0024903
0.00270271
0.00288595
0.00304459
0.00318158
0.00330045
0.00340447
0.00349479
0.00356676
0.00360512
0.00357822
0.00343719
0.0031569
0.00284412
0.00255851
0.00225657
0.00175325
0.000790409
0.000597118
0.0014921
0.00206235
0.00251011
0.00287853
0.00318821
0.00345229
0.00367956
0.00387593
0.00404556
0.00419275
0.00432068
0.00442972
0.0045136
0.00455527
0.0045237
0.00437806
0.00410086
0.00377317
0.00343694
0.00304251
0.00240676
0.00110585
0.000745278
0.00179036
0.00243291
0.00293545
0.00334986
0.00369855
0.0039956
0.00425085
0.00447119
0.00466165
0.00482698
0.00497027
0.00509122
0.00518263
0.0052273
0.00519728
0.00506056
0.00480381
0.00448712
0.00413854
0.00370643
0.0030055
0.0014112
0.000874137
0.00205321
0.00275571
0.00330078
0.00374987
0.00412748
0.00444869
0.00472427
0.00496201
0.00516769
0.00534627
0.00550102
0.0056311
0.00572881
0.00577757
0.00575302
0.00563096
0.00540204
0.00510839
0.00476889
0.00433124
0.00359771
0.00173434
0.000989967
0.00229371
0.00305108
0.00363304
0.00411089
0.00451168
0.00485178
0.00514302
0.00539411
0.00561153
0.00580046
0.00596443
0.00610224
0.00620607
0.00626036
0.00624429
0.00614019
0.00594433
0.00568261
0.00536657
0.00494476
0.00420124
0.00212246
0.00109723
0.00251834
0.00332849
0.00394469
0.00444789
0.00486817
0.00522358
0.00552721
0.00578878
0.00601547
0.00621273
0.00638444
0.00652926
0.00663951
0.0067009
0.00669595
0.0066123
0.00645131
0.00622815
0.00594576
0.00555756
0.00484938
0.00266218
0.00119857
0.00273123
0.00359361
0.00424293
0.00476931
0.00520642
0.00557438
0.00588786
0.00615767
0.00639169
0.00659574
0.0067741
0.00692557
0.00704284
0.00711301
0.00712159
0.00706026
0.00693339
0.00675048
0.00650665
0.00616461
0.00555947
0.00370339
0.000328527
0.000894067
0.00120116
0.001352
0.00143506
0.00147969
0.00151709
0.00155609
0.00156777
0.00146707
0.00127248
0.00105679
0.000861169
0.000928974
0.00115436
0.00109431
0.000811005
0.000557041
0.00034702
0.000652648
0.00192223
0.00254401
0.00288082
0.00306433
0.00316273
0.00322254
0.00325597
0.00321717
0.00301937
0.00266981
0.00229777
0.00196639
0.00199313
0.00227668
0.00212705
0.00165695
0.0011692
0.000548089
0.000899489
0.00247747
0.00326089
0.00367645
0.00389771
0.00401278
0.00407373
0.00409133
0.0040185
0.00378456
0.00341905
0.00302824
0.00268988
0.00266122
0.00281559
0.00259226
0.00205666
0.00145102
0.00064003
0.00117959
0.00297229
0.00383333
0.00427685
0.00450736
0.00462214
0.00467407
0.00467254
0.00457367
0.00432281
0.00395928
0.00358083
0.0032604
0.00318583
0.00321013
0.00292261
0.00233732
0.00163025
0.000698055
0.00148738
0.00348574
0.00436427
0.00480126
0.00502244
0.00512601
0.00516267
0.0051407
0.00502161
0.00476437
0.00441067
0.00405477
0.00375582
0.00364157
0.00355258
0.00320543
0.00257089
0.00176799
0.000755949
0.00186529
0.00404099
0.00488423
0.00528834
0.00548683
0.00557153
0.00558864
0.00554587
0.00541097
0.00515438
0.00481915
0.00448899
0.00421064
0.00405311
0.00386919
0.00346341
0.00277944
0.00190446
0.000809332
0.00245259
0.00465475
0.00540324
0.00575386
0.00592034
0.00598099
0.00597583
0.00591247
0.00576558
0.00551466
0.00520644
0.00490345
0.00463758
0.00442685
0.00416644
0.00370198
0.00297543
0.0020575
0.000865071
0.00359478
0.00532948
0.00592106
0.00620458
0.00633342
0.00636696
0.0063381
0.00625485
0.00609925
0.00585813
0.00557961
0.00530292
0.00503501
0.00476685
0.00444339
0.0039251
0.00316784
0.00223435
0.00093105
0.00134331
0.00305066
0.00399545
0.00469584
0.00525585
0.00571579
0.00609972
0.00642516
0.00670486
0.00694783
0.00716047
0.00734661
0.00750676
0.00763456
0.00771977
0.00775231
0.00772882
0.00765548
0.00753202
0.00734664
0.00707112
0.00663539
0.00581299
0.0015287
0.00346044
0.00451894
0.0052885
0.0058872
0.00636978
0.00676693
0.00710097
0.00738805
0.00763862
0.00785968
0.00805553
0.00822809
0.00837387
0.00848578
0.00855688
0.00858413
0.00856744
0.00850204
0.00837657
0.00818081
0.00790891
0.00753921
0.00172696
0.00386835
0.00505511
0.00589424
0.0065108
0.00700274
0.00740261
0.00773577
0.00802352
0.00827805
0.00850601
0.0087124
0.00889975
0.00906752
0.0092117
0.00932708
0.00940679
0.00943639
0.00940514
0.00932583
0.00919057
0.00901657
0.00882786
0.00190919
0.00423989
0.00564447
0.00654576
0.00710711
0.00760551
0.00800035
0.00832351
0.00860764
0.00886664
0.00910371
0.00932317
0.00952895
0.00972316
0.00990454
0.0100692
0.0102084
0.0102796
0.0102531
0.0102145
0.0101154
0.00998806
0.0098703
0.00220951
0.00466381
0.00609723
0.00698738
0.00760937
0.00816476
0.00852152
0.00882296
0.00910972
0.00938457
0.00964365
0.00988468
0.0101091
0.0103221
0.0105207
0.0107033
0.0108514
0.010907
0.0109363
0.0109706
0.0108853
0.0108032
0.0107091
0.00242762
0.00494112
0.00644417
0.00736834
0.00798151
0.00870172
0.00899642
0.00925494
0.00953767
0.00981529
0.010094
0.0103505
0.0105873
0.0108148
0.0110355
0.0112432
0.0113924
0.0114271
0.0114822
0.0115899
0.0115259
0.0114176
0.0113307
0.00225197
0.00483893
0.0063218
0.00728146
0.00797896
0.00862212
0.00906944
0.00945676
0.00980316
0.0101262
0.0104334
0.0107164
0.0109781
0.0112195
0.0114267
0.0115961
0.0117216
0.0117909
0.0118463
0.0118828
0.0118725
0.0118317
0.0117901
0.00241193
0.00476823
0.0062158
0.00722776
0.00799452
0.00863584
0.00915154
0.00959266
0.00999129
0.0103639
0.0107058
0.0110151
0.0112889
0.0115215
0.0117068
0.0118639
0.0119936
0.0120918
0.0121493
0.0121785
0.0121736
0.0121688
0.0121006
0.00241274
0.00478438
0.00623107
0.00725737
0.00804216
0.00869748
0.00925208
0.0097338
0.0101672
0.0105637
0.0109191
0.0112326
0.0115012
0.0117269
0.0119197
0.0120929
0.0122337
0.0123317
0.0123913
0.0124256
0.0124312
0.0124158
0.0123607
0.0024144
0.00483928
0.00627924
0.00730241
0.00809704
0.00876625
0.00934652
0.00985738
0.0103137
0.0107233
0.0110853
0.0113997
0.0116677
0.0118986
0.0121055
0.0122921
0.0124388
0.0125371
0.0126032
0.0126451
0.0126619
0.0126476
0.0126079
0.00240875
0.0049129
0.00634433
0.00736068
0.00816331
0.00884289
0.00943818
0.0099657
0.0104357
0.0108541
0.0112224
0.0115414
0.0118163
0.0120571
0.0122738
0.0124654
0.0126177
0.0127276
0.0128075
0.0128615
0.0128877
0.0128828
0.012853
0.00241546
0.00499475
0.00642023
0.00743231
0.00824084
0.00892767
0.00953083
0.010067
0.0105449
0.01097
0.0113447
0.0116714
0.0119563
0.0122077
0.0124321
0.0126286
0.0127904
0.012916
0.0130114
0.0130788
0.0131166
0.0131236
0.0131041
0.00240692
0.00508118
0.00650301
0.00751365
0.00832595
0.00901782
0.00962558
0.0101666
0.0106497
0.0110803
0.0114619
0.011798
0.0120942
0.0123566
0.01259
0.0127946
0.012968
0.0131096
0.0132207
0.0133022
0.013353
0.0133731
0.0133655
0.00241676
0.00516651
0.00658864
0.0075998
0.00841512
0.00911081
0.00972217
0.010267
0.0107546
0.011191
0.0115804
0.0119269
0.0122351
0.0125098
0.0127544
0.0129702
0.0131567
0.0133136
0.0134404
0.0135367
0.0136018
0.0136363
0.0136422
0.00244608
0.00524178
0.00667226
0.0076872
0.00850616
0.0092056
0.00982071
0.0103697
0.0108625
0.0113058
0.0117044
0.0120622
0.0123835
0.0126718
0.0129299
0.0131593
0.0133603
0.0135325
0.0136751
0.0137872
0.0138682
0.0139186
0.0139397
0.00248469
0.00531138
0.00675312
0.00777409
0.00859785
0.00930187
0.00992167
0.010476
0.0109755
0.0114274
0.0118366
0.0122072
0.0125427
0.0128461
0.0131197
0.0133648
0.0135818
0.0137704
0.0139298
0.0140591
0.0141576
0.0142255
0.0142634
0.00252082
0.00537617
0.00683067
0.00785945
0.00868951
0.0093995
0.0100256
0.010587
0.0110952
0.0115575
0.0119791
0.0123639
0.0127153
0.0130355
0.0133266
0.0135894
0.0138245
0.0140315
0.0142094
0.0143576
0.0144755
0.0145627
0.0146191
0.00255456
0.0054364
0.00690458
0.00794269
0.00878069
0.00949845
0.0101328
0.0107035
0.0112225
0.0116973
0.0121333
0.0125344
0.0129034
0.0132425
0.0135532
0.0138362
0.0140917
0.0143194
0.0145184
0.014688
0.0148274
0.0149359
0.015013
0.00258565
0.00549222
0.00697475
0.00802355
0.00887121
0.0095987
0.0102435
0.0108258
0.011358
0.0118478
0.0123006
0.0127201
0.0131091
0.0134694
0.0138022
0.014108
0.0143869
0.0146384
0.0148615
0.0150552
0.0152189
0.0153513
0.0154516
0.00261404
0.00554395
0.00704129
0.00810201
0.00896104
0.0097003
0.0103578
0.0109543
0.0115022
0.0120096
0.0124817
0.0129224
0.0133341
0.0137185
0.0140765
0.0144084
0.014714
0.0149927
0.0152434
0.0154649
0.0156561
0.0158156
0.0159422
0.00263967
0.00559189
0.0071044
0.0081782
0.00905028
0.00980339
0.010476
0.0110892
0.0116557
0.0121834
0.012678
0.0131429
0.0135805
0.0139924
0.0143793
0.0147411
0.0150775
0.0153875
0.01567
0.0159233
0.016146
0.0163365
0.0164931
0.00266272
0.00563622
0.00716431
0.00825237
0.0091392
0.00990827
0.0105985
0.0112311
0.011819
0.0123703
0.0128906
0.0133833
0.0138508
0.0142942
0.0147142
0.0151105
0.0154824
0.0158286
0.0161477
0.0164378
0.0166969
0.0169231
0.0171141
0.00268347
0.00567694
0.00722121
0.00832481
0.00922816
0.0100154
0.0107257
0.0113806
0.0119931
0.0125715
0.0131213
0.0136459
0.0141475
0.0146273
0.0150855
0.0155216
0.0159345
0.0163228
0.0166843
0.017017
0.0173182
0.0175856
0.0178165
0.00270102
0.00571398
0.00727535
0.0083959
0.0093176
0.0101252
0.0108583
0.0115386
0.0121792
0.0127885
0.0133719
0.0139331
0.014474
0.0149956
0.0154979
0.0159801
0.0164408
0.0168779
0.0172889
0.017671
0.0180212
0.0183363
0.0186132
0.00271487
0.00574769
0.00732713
0.00846608
0.00940805
0.0102384
0.010997
0.0117059
0.0123783
0.0130228
0.0136447
0.0142477
0.0148338
0.0154036
0.015957
0.0164928
0.017009
0.017503
0.0179717
0.0184116
0.0188188
0.0191895
0.0195198
0.00272611
0.00577877
0.00737706
0.00853582
0.00949999
0.0103556
0.0111427
0.0118837
0.012592
0.0132762
0.013942
0.0145928
0.0152307
0.0158563
0.0164689
0.017067
0.0176481
0.0182088
0.0187451
0.0192525
0.0197264
0.0201618
0.0205539
0.00273553
0.0058078
0.00742557
0.00860549
0.00959384
0.0104772
0.011296
0.0120729
0.0128215
0.0135506
0.0142661
0.0149716
0.0156691
0.0163589
0.0170404
0.0177113
0.0183683
0.0190073
0.0196229
0.0202097
0.0207616
0.0212724
0.0217361
0.00274347
0.00583499
0.00747277
0.0086752
0.0096898
0.0106036
0.0114575
0.0122742
0.0130679
0.0138475
0.0146194
0.0153872
0.016153
0.0169173
0.0176788
0.0184347
0.019181
0.019912
0.0206212
0.0213014
0.0219448
0.0225436
0.0230904
0.00274989
0.00586005
0.00751838
0.00874477
0.00978779
0.0107349
0.0116273
0.0124882
0.0133321
0.0141684
0.0150039
0.0158426
0.0166869
0.017537
0.0183916
0.0192471
0.0200984
0.0209382
0.0217582
0.0225487
0.0232998
0.0240016
0.0246446
0.00275395
0.00588186
0.00756155
0.00881362
0.00988742
0.0108708
0.0118055
0.0127151
0.0136145
0.0145141
0.015421
0.0163401
0.017274
0.0182233
0.0191863
0.0201587
0.021134
0.0221029
0.0230544
0.0239758
0.0248542
0.0256765
0.0264311
0.00275265
0.00589831
0.00760091
0.00888045
0.00998752
0.0110104
0.0119912
0.0129541
0.0139147
0.0148844
0.0158713
0.016881
0.0179172
0.0189808
0.02007
0.0211798
0.022302
0.0234248
0.0245333
0.0256109
0.0266402
0.0276039
0.0284874
0.00274729
0.00590536
0.00763271
0.00894289
0.0100866
0.0111525
0.0121834
0.0132041
0.0142317
0.0152784
0.0163539
0.0174654
0.0186176
0.0198125
0.0210485
0.0223201
0.023617
0.0249238
0.0262211
0.0274862
0.0286953
0.0298256
0.0308582
0.00273625
0.00589969
0.00765467
0.00899881
0.0101826
0.0112952
0.0123801
0.0134632
0.014563
0.0156936
0.0168665
0.0180911
0.0193741
0.0207191
0.0221255
0.0235875
0.0250926
0.0266212
0.0281471
0.0296392
0.0310644
0.0323916
0.0335962
0.0027169
0.00588019
0.00766426
0.00904569
0.0102734
0.0114364
0.012579
0.0137285
0.0149052
0.0161257
0.0174042
0.018753
0.0201818
0.0216973
0.0233006
0.0249865
0.0267405
0.028538
0.0303435
0.0321135
0.0338011
0.0353626
0.0367656
0.00268697
0.00584375
0.00765798
0.00908061
0.0103564
0.0115737
0.0127772
0.0139961
0.0152532
0.0165682
0.017959
0.019442
0.0210314
0.0227381
0.0245672
0.0265155
0.0285678
0.0306934
0.032845
0.0349606
0.0369712
0.0388137
0.0404448
0.00264122
0.00578239
0.00763031
0.00910036
0.0104298
0.0117051
0.0129717
0.0142614
0.0156003
0.0170121
0.0185195
0.0201442
0.0219068
0.0238246
0.0259095
0.0281634
0.0305726
0.0331015
0.0356874
0.0382409
0.0406574
0.0428406
0.0447322
0.00256915
0.00568278
0.00757408
0.00910263
0.0104931
0.0118296
0.0131597
0.0145189
0.0159378
0.0174453
0.0190698
0.0208399
0.0227842
0.0249296
0.0272985
0.0299031
0.032737
0.0357636
0.0389032
0.0420267
0.0449677
0.0475693
0.0497533
0.00245657
0.00552995
0.00748402
0.00908844
0.0105485
0.0119475
0.0133381
0.0147619
0.0162553
0.017853
0.0195901
0.0215031
0.0236306
0.0260125
0.0286868
0.0316842
0.0350158
0.0386554
0.0425118
0.046402
0.0500504
0.0531721
0.0556703
0.00242198
0.00532493
0.00736359
0.00906514
0.0106016
0.01206
0.0135034
0.0149822
0.0165399
0.0182174
0.0200562
0.0221017
0.0244038
0.0270181
0.0300045
0.0334224
0.0373182
0.0417006
0.0464932
0.0514589
0.0561285
0.0598981
0.0626948
0.00397845
0.00525
0.00723545
0.00904483
0.0106586
0.0121663
0.0136492
0.0151692
0.0167769
0.0185184
0.0204416
0.0225995
0.0250538
0.0278775
0.0311567
0.0349902
0.0394831
0.0447246
0.0507251
0.0572651
0.0635873
0.068126
0.0710953
0.0181466
0.00653248
0.00711719
0.00902508
0.0107169
0.0122584
0.0137638
0.0153089
0.0169496
0.0187357
0.0207193
0.0229597
0.0255284
0.028514
0.0320285
0.0362149
0.0412561
0.0473789
0.0548288
0.0637099
0.0732462
0.0784479
0.0811777
0.0840454
0.0142418
0.00719835
0.00900375
0.0107594
0.0123167
0.0138298
0.0153854
0.0170419
0.0188507
0.0208659
0.0231503
0.0257808
0.0288559
0.0325044
0.0369019
0.0422974
0.0490681
0.0578381
0.069767
0.0872982
0.0916978
0.0931624
0.00397598
0.00340856
0.00341738
0.00390943
0.0072021
0.00704962
0.00700883
0.00707513
0.00870039
0.00863043
0.00858232
0.00855817
0.00977957
0.00971992
0.00966564
0.00962233
0.0106275
0.0105777
0.0105342
0.0104798
0.0112627
0.0112045
0.0111521
0.011102
0.0117202
0.0116997
0.0116611
0.0115824
0.0120436
0.0120019
0.0119493
0.0118891
0.012323
0.0122914
0.0122445
0.0121867
0.0125739
0.0125463
0.0125075
0.0124578
0.0128194
0.0127927
0.0127587
0.0127168
0.0130739
0.0130493
0.0130187
0.0129817
0.0133416
0.0133206
0.0132938
0.0132611
0.0136267
0.0136107
0.0135887
0.0135608
0.0139342
0.0139243
0.0139081
0.0138856
0.0142694
0.0142666
0.014257
0.0142408
0.014638
0.0146432
0.0146412
0.0146322
0.0150464
0.0150604
0.0150671
0.0150662
0.0155012
0.0155254
0.0155418
0.0155503
0.0160103
0.016046
0.0160736
0.0160928
0.0165823
0.0166313
0.0166716
0.0167032
0.0172276
0.0172917
0.0173467
0.0173925
0.0179578
0.0180393
0.0181113
0.0181734
0.0187867
0.0188883
0.0189797
0.0190607
0.0197304
0.0198551
0.0199689
0.0200713
0.0208073
0.0209586
0.021098
0.0212251
0.0220389
0.0222208
0.0223895
0.0225448
0.02345
0.0236668
0.0238691
0.0240563
0.0250692
0.025326
0.0255663
0.0257894
0.0269299
0.0272319
0.0275149
0.0277783
0.0290706
0.0294236
0.0297543
0.030062
0.0315366
0.0319465
0.0323296
0.0326856
0.0343814
0.0348539
0.0352939
0.0357013
0.0376688
0.0382091
0.0387093
0.0391698
0.0414764
0.0420881
0.0426497
0.0431625
0.0458989
0.0465825
0.0472027
0.0477628
0.0510537
0.0518032
0.0524725
0.053068
0.0570858
0.0578833
0.0585807
0.0591891
0.0641713
0.064978
0.0656639
0.0662475
0.072512
0.0732542
0.0738627
0.0743646
0.0823023
0.0828587
0.0832946
0.0836411
0.0936345
0.093849
0.0940074
0.0941284
0.00558494
0.0063309
0.00669253
0.00687632
0.00694784
0.00694042
0.00687576
0.00676308
0.00659708
0.00637733
0.00613758
0.0058899
0.00560048
0.00525042
0.00484102
0.00425732
0.00347812
0.00254063
0.00105689
0.00729558
0.00753105
0.00767717
0.00774384
0.00774124
0.00768087
0.0075732
0.00742752
0.0072485
0.00703663
0.00679889
0.00653506
0.00620682
0.0057979
0.00531756
0.00470371
0.00393108
0.00296116
0.00130534
0.00854674
0.0085689
0.00858643
0.00856928
0.00850729
0.00840225
0.00825754
0.00808384
0.00788329
0.00765886
0.00740603
0.00711722
0.00675853
0.00631488
0.00579253
0.00516845
0.00440169
0.00338307
0.00155213
0.00955567
0.00947948
0.00943062
0.00935821
0.00925134
0.00910776
0.00892194
0.0087206
0.00849941
0.00825464
0.00798132
0.00766495
0.0072744
0.00679862
0.00624706
0.00561143
0.00483638
0.00373444
0.00178994
0.0103572
0.0102134
0.0101194
0.0100144
0.00992286
0.0097789
0.00954498
0.0093129
0.00906948
0.00878702
0.00846118
0.00810153
0.0077122
0.00722888
0.00663628
0.00598922
0.00519914
0.00402095
0.00191831
0.010982
0.0108452
0.0107399
0.0106085
0.0104487
0.0102652
0.010041
0.00981738
0.00956757
0.0092635
0.00887693
0.00845116
0.00800879
0.00749112
0.00691492
0.00628463
0.00548217
0.00425134
0.00199379
0.0114386
0.011306
0.01123
0.0111275
0.0109295
0.0107392
0.0104914
0.0102317
0.00994672
0.00962242
0.00922267
0.00875634
0.00823879
0.00768342
0.00709139
0.00645608
0.00565187
0.00445534
0.00214186
0.0117859
0.0116594
0.0115585
0.0114379
0.0112492
0.011026
0.0107733
0.0104902
0.0101704
0.00982121
0.00942703
0.00896915
0.00842714
0.00783437
0.00718669
0.00649644
0.005686
0.00457425
0.00228875
0.0120885
0.0119548
0.0118207
0.0116648
0.0114661
0.0112305
0.0109768
0.0106807
0.0103295
0.00994441
0.00952502
0.00905569
0.00852754
0.00792644
0.00723163
0.00647439
0.00561556
0.00449522
0.00227137
0.0123671
0.01223
0.0120832
0.011916
0.0117126
0.0114654
0.0111931
0.0108709
0.0104951
0.0100764
0.00961059
0.00909309
0.00854072
0.0079283
0.00721569
0.00640156
0.00547445
0.00429431
0.00213083
0.0126374
0.0125048
0.0123562
0.0121854
0.0119758
0.0117159
0.0114214
0.0110815
0.0106895
0.0102409
0.00973352
0.00916237
0.00854051
0.0078651
0.00711757
0.00627545
0.00529327
0.00404194
0.00195142
0.0129112
0.012786
0.0126378
0.0124619
0.0122441
0.0119757
0.0116691
0.0113194
0.0109104
0.0104392
0.00990394
0.00929466
0.00860903
0.00785388
0.00702904
0.00612894
0.00510594
0.00380236
0.00195075
0.0131979
0.0130803
0.0129331
0.0127518
0.0125264
0.0122537
0.0119406
0.0115807
0.01116
0.0106757
0.0101232
0.00948994
0.00876826
0.00796092
0.0070687
0.00609462
0.00501454
0.00367428
0.00194053
0.0135048
0.0133949
0.0132508
0.0130673
0.012838
0.0125625
0.0122434
0.0118749
0.0114466
0.010954
0.0103907
0.00974445
0.00900817
0.00818112
0.00726137
0.00624648
0.00510987
0.00371526
0.00189968
0.0138379
0.0137366
0.0135979
0.0134164
0.0131873
0.0129107
0.0125872
0.0122124
0.0117784
0.0112797
0.0107094
0.0100576
0.0093182
0.00848908
0.00756695
0.00654165
0.00537604
0.00393105
0.00193452
0.0142027
0.0141118
0.0139806
0.0138043
0.013579
0.013304
0.012979
0.0126004
0.0121624
0.0116593
0.0110846
0.0104307
0.00969191
0.00886529
0.00794604
0.00691882
0.00573577
0.00424784
0.00195331
0.0146052
0.014527
0.0144057
0.0142375
0.0140188
0.0137482
0.0134245
0.0130449
0.0126046
0.0120986
0.0115212
0.010866
0.0101275
0.00930117
0.0083797
0.00734318
0.0061355
0.00458947
0.002139
0.0150521
0.0149892
0.0148808
0.0147232
0.0145135
0.0142497
0.0139299
0.0135516
0.0131108
0.0126032
0.0120237
0.0113666
0.0106261
0.00979584
0.00886472
0.00780711
0.00655693
0.00492394
0.00232279
0.0155511
0.0155065
0.0154137
0.0152696
0.0150712
0.0148163
0.0145025
0.0141273
0.0136874
0.0131788
0.012597
0.0119366
0.0111914
0.010353
0.00940682
0.00832117
0.00702021
0.00529136
0.00252952
0.0161108
0.0160877
0.0160137
0.0158858
0.015701
0.0154569
0.0151508
0.0147802
0.014342
0.0138325
0.0132474
0.0125817
0.0118287
0.0109788
0.0100148
0.00890151
0.00755827
0.00576032
0.00278515
0.0167411
0.0167431
0.0166911
0.0165822
0.0164134
0.016182
0.0158851
0.0155202
0.0150839
0.014573
0.0139831
0.0133094
0.012545
0.0116798
0.0106955
0.0095562
0.00818149
0.00633985
0.00308762
0.0174533
0.0174843
0.0174579
0.0173711
0.0172208
0.0170039
0.0167177
0.016359
0.0159247
0.0154112
0.0148144
0.0141292
0.0133488
0.0124628
0.0114529
0.010283
0.00887338
0.00698311
0.00342088
0.0182605
0.0183249
0.018328
0.0182666
0.0181374
0.0179371
0.0176628
0.0173109
0.0168782
0.0163607
0.0157541
0.0150532
0.0142507
0.0133362
0.012291
0.0110769
0.00961322
0.0076411
0.00379432
0.019178
0.0192807
0.0193175
0.019285
0.0191797
0.0189982
0.018737
0.0183925
0.0179607
0.0174375
0.0168178
0.0160959
0.0152639
0.0143106
0.0132171
0.0119445
0.0104022
0.00829943
0.0041663
0.0202234
0.0203696
0.0204447
0.0204449
0.0203665
0.020206
0.0199594
0.0196227
0.0191914
0.0186604
0.018024
0.0172756
0.0164064
0.0154041
0.0142475
0.0128944
0.011243
0.00896451
0.0044805
0.0214168
0.0216125
0.0217308
0.0217677
0.0217194
0.0215822
0.0213518
0.0210235
0.0205922
0.0200518
0.0193954
0.0186149
0.0177
0.0166362
0.0153993
0.0139416
0.0121478
0.0096491
0.00473647
0.0227815
0.0230329
0.0231994
0.0232772
0.0232623
0.0231509
0.0229384
0.0226195
0.0221881
0.0216369
0.0209574
0.0201393
0.0191699
0.0180318
0.0166966
0.0151098
0.0131423
0.0103869
0.00499339
0.0243439
0.0246575
0.0248775
0.0250002
0.0250219
0.0249389
0.0247462
0.024438
0.024007
0.0234442
0.0227389
0.0218783
0.0208463
0.0196214
0.0181704
0.0164314
0.014262
0.01122
0.00531036
0.0261339
0.0265164
0.0267948
0.0269662
0.0270276
0.0269754
0.0268046
0.0265087
0.0260792
0.025505
0.0247727
0.0238659
0.0227644
0.0214417
0.0198583
0.017945
0.0155461
0.0121854
0.00571045
0.028186
0.0286434
0.0289846
0.0292078
0.0293112
0.029292
0.0291452
0.0288638
0.0284378
0.0278538
0.0270951
0.0261409
0.0249654
0.0235356
0.0218049
0.0196949
0.0170362
0.0133144
0.00619226
0.0305387
0.0310764
0.0314834
0.0317604
0.0319074
0.0319227
0.0318021
0.0315379
0.0311186
0.0305284
0.0297465
0.0287466
0.0274961
0.0259536
0.0240626
0.0217333
0.0187792
0.0146397
0.00675031
0.0332364
0.0338577
0.0343318
0.0346628
0.0348534
0.0349041
0.0348114
0.0345676
0.0341599
0.0335694
0.0327709
0.0317316
0.0304102
0.0287542
0.026694
0.0241236
0.0208337
0.0162061
0.0073971
0.0363297
0.0370351
0.0375746
0.0379571
0.0381895
0.038275
0.0382117
0.0379921
0.0376021
0.0370201
0.0362159
0.0351491
0.033768
0.0320057
0.0297745
0.0269456
0.0232778
0.0180818
0.00818379
0.0398765
0.0406622
0.0412611
0.0416894
0.0419592
0.0420772
0.0420439
0.0418525
0.0414879
0.040926
0.0401315
0.0390563
0.0376361
0.0357863
0.0333945
0.030299
0.0262139
0.020359
0.00917294
0.0439434
0.0447992
0.0454462
0.0459101
0.0462095
0.0463558
0.0463519
0.0461923
0.0458618
0.0453342
0.04457
0.0435132
0.0420863
0.0401836
0.0376602
0.0343082
0.0297743
0.0231549
0.0104082
0.0486068
0.0495133
0.0501901
0.0506742
0.050992
0.0511596
0.0511829
0.0510581
0.0507705
0.0502932
0.049584
0.0485803
0.0471922
0.0452913
0.0426935
0.0391259
0.0341337
0.0266299
0.0119472
0.0539529
0.0548792
0.055559
0.0560424
0.0563633
0.0565424
0.0565886
0.0565
0.0562633
0.0558525
0.055225
0.0543152
0.0530245
0.051204
0.0486269
0.0449374
0.0395286
0.0310257
0.0139037
0.0600772
0.0609777
0.061625
0.0620813
0.0623867
0.062565
0.0626274
0.0625738
0.0623934
0.062063
0.0615428
0.0607697
0.0596435
0.0580044
0.05559
0.0519537
0.0462785
0.0367232
0.0164681
0.0670805
0.0678943
0.0684658
0.0688648
0.0691337
0.069297
0.0693665
0.0693437
0.0692208
0.0689791
0.0685858
0.0679864
0.0670908
0.0657462
0.0636805
0.0603803
0.0547918
0.0443505
0.02003
0.0750619
0.0757162
0.0761653
0.0764762
0.0766875
0.0768205
0.0768858
0.0768859
0.0768158
0.076663
0.0764043
0.0760003
0.0753836
0.074433
0.0729146
0.0703325
0.0654949
0.0549331
0.025382
0.0841085
0.0845307
0.084815
0.0850113
0.0851462
0.0852343
0.0852829
0.0852941
0.0852657
0.0851913
0.0850587
0.0848468
0.084519
0.0840074
0.0831716
0.0816753
0.0785342
0.0698858
0.0338175
0.094287
0.0944263
0.0945193
0.0945838
0.0946289
0.0946596
0.0946783
0.0946858
0.094682
0.0946653
0.0946328
0.09458
0.094499
0.0943766
0.0941858
0.0938524
0.0930714
0.0897323
0.047118
)
;

boundaryField
{
    leftWall
    {
        type            kqRWallFunction;
        value           nonuniform List<scalar> 
50
(
0.000197424
0.000422547
0.000597118
0.000745278
0.000874137
0.000989967
0.00109723
0.00119857
0.00134331
0.0015287
0.00172696
0.00190919
0.00220951
0.00242762
0.00225197
0.00241193
0.00241274
0.0024144
0.00240875
0.00241546
0.00240692
0.00241676
0.00244608
0.00248469
0.00252082
0.00255456
0.00258565
0.00261404
0.00263967
0.00266272
0.00268347
0.00270102
0.00271487
0.00272611
0.00273553
0.00274347
0.00274989
0.00275395
0.00275265
0.00274729
0.00273625
0.0027169
0.00268697
0.00264122
0.00256915
0.00245657
0.00242198
0.00397845
0.0181466
0.0840454
)
;
    }
    rightWall
    {
        type            kqRWallFunction;
        value           nonuniform List<scalar> 
50
(
0.00034702
0.000548089
0.00064003
0.000698055
0.000755949
0.000809332
0.000865071
0.00093105
0.00105689
0.00130534
0.00155213
0.00178994
0.00191831
0.00199379
0.00214186
0.00228875
0.00227137
0.00213083
0.00195142
0.00195075
0.00194053
0.00189968
0.00193452
0.00195331
0.002139
0.00232279
0.00252952
0.00278515
0.00308762
0.00342088
0.00379432
0.0041663
0.0044805
0.00473647
0.00499339
0.00531036
0.00571045
0.00619226
0.00675031
0.0073971
0.00818379
0.00917294
0.0104082
0.0119472
0.0139037
0.0164681
0.02003
0.025382
0.0338175
0.047118
)
;
    }
    lowerWall
    {
        type            kqRWallFunction;
        value           nonuniform List<scalar> 
62
(
0.000197424
0.000484053
0.000707248
0.000879209
0.00101881
0.00113556
0.00123526
0.00132135
0.00139592
0.00146085
0.00151765
0.00156828
0.00161432
0.00165416
0.00167992
0.0016717
0.0015858
0.00142905
0.00125696
0.00112322
0.000989068
0.000780033
0.000346502
0.000346502
0.000790409
0.00110585
0.0014112
0.00173434
0.00212246
0.00266218
0.00370339
0.00397598
0.00340856
0.00341738
0.00390943
0.000328527
0.000652648
0.000899489
0.00117959
0.00148738
0.00186529
0.00245259
0.00359478
0.000328527
0.000894067
0.00120116
0.001352
0.00143506
0.00147969
0.00151709
0.00155609
0.00156777
0.00146707
0.00127248
0.00105679
0.000861169
0.000928974
0.00115436
0.00109431
0.000811005
0.000557041
0.00034702
)
;
    }
    atmosphere
    {
        type            inletOutlet;
        inletValue      uniform 0.1;
        value           nonuniform List<scalar> 
46
(
0.1
0.0142418
0.00719835
0.00900375
0.0107594
0.0123167
0.0138298
0.0153854
0.0170419
0.0188507
0.0208659
0.0231503
0.0257808
0.0288559
0.0325044
0.0369019
0.0422974
0.0490681
0.0578381
0.069767
0.1
0.1
0.1
0.1
0.1
0.1
0.1
0.1
0.1
0.1
0.1
0.1
0.1
0.1
0.1
0.1
0.1
0.1
0.1
0.1
0.1
0.1
0.1
0.1
0.1
0.047118
)
;
    }
    defaultFaces
    {
        type            empty;
    }
}


// ************************************************************************* //
