/*--------------------------------*- C++ -*----------------------------------*\
  =========                 |
  \\      /  F ield         | OpenFOAM: The Open Source CFD Toolbox
   \\    /   O peration     | Website:  https://openfoam.org
    \\  /    A nd           | Version:  9
     \\/     M anipulation  |
\*---------------------------------------------------------------------------*/
FoamFile
{
    format      ascii;
    class       volScalarField;
    location    "6.43";
    object      k;
}
// * * * * * * * * * * * * * * * * * * * * * * * * * * * * * * * * * * * * * //

dimensions      [0 2 -2 0 0 0 0];

internalField   nonuniform List<scalar> 
2268
(
0.000175469
0.000430349
0.000627568
0.000781657
0.00090807
0.00101479
0.00110689
0.00118758
0.00125872
0.00132205
0.00137963
0.00143347
0.00148374
0.00152616
0.00154936
0.00153058
0.00143486
0.00128595
0.00112417
0.000991364
0.000871687
0.000687483
0.000312211
0.000377987
0.00100377
0.00141657
0.00174294
0.00201211
0.00223937
0.00243457
0.00260415
0.00275237
0.00288264
0.00299855
0.00310249
0.00319274
0.0032607
0.00328822
0.00324463
0.00309207
0.00282837
0.00254363
0.0022757
0.00199899
0.00154572
0.000705723
0.000537139
0.00134332
0.00185355
0.00225714
0.00259126
0.00287363
0.00311568
0.00332525
0.00350784
0.00366778
0.00380909
0.00393375
0.00403914
0.00411558
0.00414456
0.00409754
0.0039439
0.0036859
0.00338881
0.00308026
0.00271724
0.0021369
0.000985317
0.00067316
0.00161589
0.00219157
0.00264443
0.00301984
0.00333729
0.00360916
0.00384414
0.00404849
0.0042271
0.00438411
0.00452125
0.00463549
0.00471722
0.00474933
0.00470756
0.00456798
0.00433243
0.00404864
0.00373315
0.00333873
0.0026944
0.00126106
0.00079193
0.00185603
0.00248551
0.00297603
0.00338201
0.00372513
0.00401876
0.00427229
0.00449257
0.00468482
0.00485326
0.00499954
0.00512063
0.00520754
0.00524528
0.005214
0.00509537
0.00488857
0.00462974
0.00432629
0.00392873
0.00325761
0.00157136
0.000899013
0.00207622
0.00275442
0.0032768
0.0037073
0.0040704
0.00438079
0.00464862
0.00488124
0.00508412
0.00526159
0.00541536
0.00554269
0.00563556
0.00568127
0.00566402
0.00557012
0.00539693
0.00516993
0.00489085
0.00451155
0.00384236
0.00195946
0.000998391
0.00228329
0.00300785
0.00355891
0.00400995
0.004389
0.00471246
0.00499145
0.00523382
0.00544522
0.00563012
0.00579045
0.00592396
0.00602374
0.00607934
0.00607849
0.00601124
0.0058748
0.00568441
0.0054381
0.00509497
0.00447205
0.00248113
0.00109444
0.00248263
0.00325237
0.00383018
0.00429875
0.00469036
0.00502371
0.00531116
0.0055611
0.00577933
0.00597047
0.00613675
0.00627652
0.00638405
0.00645092
0.00646777
0.00642764
0.00632827
0.00617716
0.00596841
0.00567275
0.00515531
0.00344782
0.000309616
0.000828054
0.00112005
0.00126167
0.00133499
0.00136657
0.0013924
0.00141868
0.0014223
0.00133408
0.00116101
0.000975598
0.00079087
0.000764994
0.000916997
0.000910752
0.000678252
0.000463772
0.000278414
0.000585398
0.00172774
0.00233431
0.00265186
0.00281901
0.00290237
0.00294868
0.0029707
0.00293162
0.00275759
0.00243978
0.00211217
0.00179027
0.00168937
0.00187385
0.00180684
0.00142589
0.000992608
0.000439342
0.000803567
0.00221771
0.00296599
0.00336125
0.00356834
0.0036721
0.00372397
0.00373665
0.00367133
0.00346458
0.00313249
0.0027753
0.00242793
0.00228379
0.00237687
0.00224638
0.00180141
0.00125326
0.000516549
0.001064
0.00265389
0.00347281
0.00389687
0.00411613
0.00422402
0.00427256
0.00427299
0.0041873
0.00396272
0.00362797
0.00326741
0.00292357
0.00275276
0.0027626
0.00257486
0.00208432
0.00143518
0.000580932
0.00135817
0.00311958
0.00395226
0.00437031
0.00458254
0.00468329
0.00472201
0.00470794
0.00460511
0.00437033
0.00403619
0.00368185
0.00335125
0.0031617
0.00309959
0.00286179
0.0023352
0.00160306
0.000650475
0.001728
0.00363099
0.00443035
0.00481603
0.00500695
0.00509216
0.00511593
0.0050853
0.00496708
0.00472754
0.00440026
0.00405854
0.00374308
0.0035408
0.00340895
0.00312511
0.00256922
0.00178139
0.000727394
0.00226637
0.00419764
0.00491302
0.00524568
0.00540547
0.00546922
0.00547422
0.00542545
0.00529354
0.00505281
0.00474228
0.00441811
0.00411814
0.00390039
0.00369816
0.00336892
0.00278752
0.00197308
0.000814416
0.00320116
0.00482205
0.00539583
0.00566249
0.00578541
0.00582395
0.00580768
0.00573992
0.00559635
0.0053582
0.0050716
0.00477122
0.00448326
0.00423584
0.00396995
0.00359396
0.00298905
0.00217318
0.000922669
0.00123517
0.00277903
0.0036213
0.00424077
0.00473384
0.0051409
0.00548533
0.00578219
0.00604108
0.00626808
0.00646784
0.00664286
0.0067925
0.00691305
0.00699918
0.00704523
0.00704626
0.00700184
0.00691086
0.00676185
0.00654216
0.00621252
0.00557338
0.00141436
0.00317236
0.00412797
0.00480638
0.00532241
0.00573498
0.00607889
0.00637624
0.00663838
0.00687151
0.00707936
0.00726444
0.00742763
0.00756735
0.00767978
0.0077604
0.00780614
0.00781514
0.00778259
0.00770016
0.0075653
0.0073776
0.00710896
0.00159113
0.00358315
0.00469929
0.00544765
0.00597102
0.00636184
0.00667809
0.00695789
0.00721113
0.00744246
0.00765283
0.00784388
0.00801765
0.00817427
0.0083116
0.00842386
0.00850605
0.00855412
0.00856397
0.00853543
0.00846352
0.00835636
0.00822618
0.00179221
0.00407116
0.00542788
0.00624489
0.00674229
0.00706961
0.00732031
0.00756462
0.00779471
0.00801313
0.00821595
0.00840477
0.00858288
0.00875237
0.00891379
0.00905613
0.00916801
0.00924043
0.00927987
0.00930123
0.00927366
0.00920744
0.00913114
0.00200203
0.00462065
0.00629137
0.00675225
0.00715943
0.00749096
0.00775752
0.00802859
0.00828456
0.0085238
0.00874087
0.00894571
0.00913943
0.00932789
0.00951994
0.00969869
0.00984091
0.00990737
0.00995595
0.0100052
0.00996001
0.00990588
0.00984275
0.00218104
0.00476352
0.00605518
0.00674004
0.00732995
0.0077956
0.00801475
0.00828172
0.00856786
0.00885216
0.00912312
0.00937757
0.00961003
0.00983911
0.0100531
0.0102138
0.0103172
0.0103495
0.0103503
0.0103856
0.0103865
0.0103746
0.0103593
0.00230325
0.00475143
0.00600932
0.00675146
0.00736882
0.00784861
0.0081823
0.00849835
0.00880441
0.00910322
0.00939083
0.00965715
0.00989784
0.0101166
0.0103048
0.0104472
0.0105339
0.0105813
0.0106209
0.0106618
0.0106809
0.0106987
0.0106918
0.00241225
0.00452598
0.00576599
0.0066112
0.00728797
0.00781788
0.00826272
0.0086541
0.00900816
0.00933127
0.00962905
0.00989797
0.0101272
0.0103189
0.0104892
0.0106379
0.01075
0.0108262
0.0108853
0.010934
0.010962
0.0109793
0.0109835
0.00241004
0.00436432
0.00561498
0.00652014
0.00723438
0.00781285
0.00831375
0.00875687
0.00915225
0.00950665
0.00982485
0.0101045
0.0103366
0.0105252
0.0106888
0.0108387
0.0109667
0.0110636
0.0111362
0.0111908
0.0112282
0.0112506
0.0112513
0.00240524
0.00432233
0.00557734
0.00649671
0.00722957
0.00783832
0.0083693
0.00884019
0.00926037
0.00963661
0.00997171
0.0102622
0.0105039
0.010704
0.0108796
0.0110416
0.0111808
0.0112903
0.0113749
0.0114388
0.0114801
0.0114988
0.011495
0.00240734
0.00436247
0.00561463
0.00653129
0.00726948
0.00789265
0.00843787
0.00892215
0.00935558
0.00974456
0.0100908
0.0103918
0.0106479
0.0108673
0.0110622
0.0112384
0.0113892
0.0115114
0.0116078
0.0116796
0.0117235
0.0117414
0.0117379
0.00240704
0.00443089
0.00568702
0.00659988
0.00733932
0.00796878
0.00852086
0.00901229
0.00945337
0.00985012
0.0102045
0.0105163
0.0107884
0.0110276
0.0112412
0.0114315
0.0115949
0.0117298
0.0118377
0.0119178
0.0119682
0.0119918
0.0119932
0.00240554
0.00450811
0.00577117
0.00668417
0.00742523
0.00805858
0.00861536
0.00911222
0.00955917
0.00996209
0.0103239
0.0106467
0.0109341
0.0111907
0.0114206
0.0116248
0.0118015
0.0119497
0.0120695
0.0121602
0.0122209
0.0122545
0.0122648
0.00240685
0.00458223
0.00585698
0.0067742
0.00751869
0.00815616
0.00871771
0.00922009
0.00967297
0.0100825
0.0104526
0.0107866
0.011088
0.0113598
0.0116046
0.0118227
0.0120132
0.0121755
0.0123087
0.0124123
0.0124862
0.0125328
0.0125548
0.00241353
0.00465059
0.00594147
0.00686579
0.00761557
0.00825823
0.00882536
0.00933392
0.00979369
0.0102111
0.0105909
0.0109368
0.0112516
0.011538
0.0117972
0.0120297
0.0122349
0.012412
0.0125603
0.0126791
0.0127686
0.0128305
0.0128666
0.00241303
0.00471766
0.0060244
0.00695756
0.00771412
0.0083632
0.008937
0.00945286
0.00992094
0.010348
0.010739
0.0110975
0.0114264
0.0117275
0.012002
0.0122499
0.012471
0.0126646
0.0128297
0.0129658
0.013073
0.0131524
0.0132049
0.00241236
0.00478528
0.0061061
0.00704914
0.00781371
0.00847046
0.00905227
0.00957691
0.0100549
0.0104934
0.0108971
0.0112697
0.0116138
0.011931
0.0122221
0.0124873
0.0127262
0.0129381
0.0131222
0.013278
0.0134052
0.0135043
0.0135754
0.00240521
0.0048486
0.00618666
0.00714046
0.00791417
0.00857994
0.00917132
0.00970646
0.0101963
0.0106479
0.0110662
0.0114547
0.0118158
0.012151
0.0124608
0.0127456
0.0130047
0.0132376
0.0134433
0.0136213
0.0137709
0.013892
0.0139842
0.00241319
0.00490965
0.00626621
0.00723149
0.00801554
0.00869184
0.00929451
0.00984206
0.0103457
0.0108125
0.0112476
0.0116542
0.0120346
0.0123902
0.0127215
0.0130286
0.0133109
0.0135678
0.0137982
0.0140013
0.0141762
0.014322
0.0144381
0.00240977
0.00497269
0.00634476
0.00732226
0.00811797
0.00880645
0.0094223
0.00998434
0.0105039
0.0109884
0.0114426
0.0118699
0.0122725
0.0126515
0.0130075
0.0133403
0.0136494
0.0139338
0.0141925
0.0144241
0.0146276
0.0148015
0.0149447
0.00241039
0.00503419
0.00642225
0.00741281
0.00822165
0.00892413
0.00955521
0.010134
0.010672
0.0111767
0.011653
0.012104
0.012532
0.012938
0.0133224
0.0136849
0.0140249
0.014341
0.0146321
0.0148965
0.0151325
0.0153385
0.0155125
0.00241574
0.00509433
0.00649847
0.00750319
0.00832685
0.00904527
0.00969381
0.0102918
0.010851
0.0113788
0.0118803
0.0123587
0.0128159
0.013253
0.0136702
0.0140671
0.0144427
0.0147955
0.015124
0.015426
0.0156994
0.0159421
0.0161517
0.00242784
0.00515367
0.00657281
0.00759353
0.00843387
0.00917033
0.00983869
0.0104586
0.0110419
0.0115962
0.0121265
0.0126362
0.013127
0.0136
0.0140552
0.0144919
0.0149088
0.0153042
0.0156759
0.0160215
0.0163381
0.0166232
0.0168737
0.00245335
0.00520726
0.00664565
0.00768416
0.00854306
0.00929976
0.00999046
0.0106351
0.0112458
0.0118303
0.0123937
0.0129392
0.0134687
0.0139831
0.0144823
0.0149651
0.0154301
0.015875
0.0162971
0.0166932
0.01706
0.0173941
0.017692
0.00247625
0.00525847
0.00671749
0.00777537
0.00865476
0.00943399
0.0101497
0.0108223
0.011464
0.0120827
0.0126838
0.0132704
0.0138445
0.0144068
0.0149569
0.0154935
0.0160145
0.0165172
0.016998
0.0174531
0.0178783
0.0182694
0.0186221
0.00249651
0.00530786
0.00678862
0.00786741
0.00876926
0.00957341
0.0103171
0.0110209
0.0116976
0.0123552
0.0129991
0.0136328
0.0142582
0.0148758
0.0154851
0.0160844
0.0166709
0.0172412
0.0177908
0.0183149
0.0188083
0.0192657
0.019682
0.00251522
0.00535593
0.00685931
0.00796045
0.00888672
0.0097183
0.010493
0.0112317
0.0119476
0.0126491
0.0133418
0.0140293
0.0147137
0.0153954
0.0160736
0.0167461
0.0174094
0.0180591
0.0186896
0.0192947
0.019868
0.0204027
0.0208925
0.00253289
0.00540292
0.00692959
0.00805444
0.00900712
0.00986871
0.0106776
0.0114552
0.012215
0.0129659
0.0137139
0.014463
0.0152152
0.0159711
0.0167295
0.0174877
0.0182414
0.0189846
0.0197105
0.0204111
0.0210781
0.0217031
0.0222779
0.00254954
0.00544858
0.00699907
0.00814898
0.00913011
0.0100244
0.0108709
0.0116915
0.0125003
0.0133066
0.0141172
0.0149364
0.0157665
0.0166083
0.0174603
0.0183192
0.0191793
0.0200333
0.0208721
0.0216853
0.0224624
0.0231927
0.023866
0.00256467
0.00549194
0.0070668
0.00824317
0.00925491
0.0101848
0.0110725
0.0119405
0.0128035
0.0136719
0.0145529
0.0154517
0.0163713
0.0173124
0.0182737
0.0192507
0.0202367
0.0212221
0.022195
0.0231419
0.0240489
0.0249024
0.0256894
0.00257653
0.00553085
0.00713111
0.00833561
0.00938026
0.0103488
0.0112813
0.0122013
0.0131242
0.0140614
0.0150213
0.0160102
0.0170319
0.0180878
0.0191764
0.0202927
0.021428
0.02257
0.023703
0.0248093
0.0258701
0.0268678
0.0277861
0.00258395
0.00556154
0.00718823
0.00842345
0.00950415
0.0105147
0.011496
0.0124724
0.0134608
0.0144738
0.0155215
0.0166116
0.0177495
0.0189376
0.0201746
0.0214549
0.0227678
0.0240974
0.0254228
0.0267202
0.0279642
0.0291313
0.0302009
0.00258499
0.00557828
0.00723463
0.00850407
0.00962432
0.0106805
0.0117144
0.0127517
0.0138109
0.0149065
0.0160507
0.0172537
0.0185227
0.0198622
0.0212718
0.0227455
0.0242703
0.0258258
0.0273842
0.0289126
0.0303764
0.0317431
0.0329867
0.00257657
0.00557941
0.00726748
0.00857465
0.00973819
0.0108436
0.0119338
0.013036
0.0141706
0.0153549
0.016604
0.0179311
0.0193469
0.0208585
0.0224678
0.0241691
0.0259474
0.0277767
0.0296197
0.0314306
0.0331605
0.0347641
0.0362078
0.00255673
0.00556202
0.0072831
0.00863203
0.00984314
0.0110015
0.0121511
0.0133211
0.0145347
0.0158124
0.0171733
0.0186348
0.0202123
0.0219175
0.0237561
0.0257244
0.0278064
0.0299697
0.0321645
0.034326
0.0363828
0.0382699
0.0399427
0.00252094
0.00551914
0.00727626
0.00867295
0.00993694
0.0111519
0.012363
0.0136022
0.0148961
0.0162697
0.0177468
0.0193506
0.0211029
0.0230222
0.0251208
0.0274001
0.0298455
0.0324189
0.0350545
0.0376596
0.0401261
0.042356
0.0442897
0.00246052
0.00543759
0.00723993
0.00869492
0.0100188
0.0112934
0.0125663
0.0138734
0.0152461
0.0167146
0.0183087
0.0200587
0.0219947
0.024145
0.0265325
0.029169
0.0320465
0.0351254
0.0383222
0.041503
0.0444975
0.0471478
0.0493736
0.0024104
0.00530191
0.00716856
0.00869868
0.0100905
0.011426
0.0127578
0.0141279
0.0155739
0.017132
0.0188388
0.0207328
0.0228544
0.025245
0.0279434
0.0309796
0.0343632
0.0380638
0.0419851
0.045937
0.0496394
0.0528142
0.0553554
0.00241949
0.00512063
0.00706727
0.00869141
0.0101573
0.0115503
0.0129333
0.0143573
0.0158667
0.017504
0.0193128
0.0213405
0.0236392
0.0262662
0.0292824
0.0327465
0.0367029
0.0411552
0.0460168
0.0510346
0.0557364
0.0595864
0.0624406
0.003984
0.00506415
0.00695428
0.00868343
0.0102244
0.0116651
0.0130865
0.0145508
0.0161095
0.0178107
0.0197042
0.0218455
0.0242987
0.0271388
0.030453
0.0343399
0.0389015
0.0442174
0.0502696
0.0567734
0.0629587
0.0677649
0.0708788
0.0181913
0.00637682
0.0068467
0.00867148
0.0102887
0.0117623
0.0132056
0.0146945
0.0162859
0.0180316
0.0199858
0.0222106
0.0247801
0.027785
0.0313388
0.0355842
0.0406989
0.0468861
0.0542923
0.0627187
0.0711065
0.0777114
0.0809392
0.0840456
0.0141494
0.00693446
0.00865383
0.0103336
0.0118227
0.0132736
0.0147729
0.01638
0.0181484
0.0201345
0.0224037
0.0250361
0.0281321
0.0318224
0.0362818
0.0417504
0.0485533
0.0570458
0.0672754
0.0783845
0.0902111
0.0929027
0.00400978
0.00340298
0.00328855
0.00359647
0.00683005
0.00667894
0.00660823
0.00662586
0.00812986
0.00806842
0.00801317
0.00796804
0.0090981
0.00906776
0.00901208
0.00894135
0.00981404
0.00980058
0.00975926
0.00968892
0.010435
0.0104521
0.0103952
0.0103135
0.0107267
0.0107233
0.0106847
0.0106313
0.0109673
0.010944
0.0109141
0.0108778
0.0112261
0.0111979
0.0111639
0.0111275
0.0114713
0.0114481
0.0114183
0.0113836
0.0117182
0.0116996
0.0116748
0.0116442
0.0119781
0.011963
0.0119424
0.011916
0.0122557
0.0122445
0.0122279
0.0122056
0.0125534
0.012547
0.012535
0.0125172
0.0128746
0.012874
0.0128675
0.0128548
0.0132241
0.0132302
0.0132301
0.0132234
0.0136073
0.0136213
0.0136286
0.013629
0.0140307
0.0140536
0.0140695
0.0140781
0.0145011
0.0145343
0.01456
0.0145781
0.0150265
0.0150715
0.0151086
0.0151376
0.015616
0.0156745
0.0157247
0.0157663
0.0162801
0.0163541
0.0164193
0.0164754
0.0170308
0.0171226
0.0172051
0.017278
0.0178821
0.0179945
0.018097
0.0181892
0.0188503
0.0189865
0.0191119
0.0192262
0.0199542
0.0201177
0.0202694
0.020409
0.0212154
0.0214102
0.0215921
0.0217604
0.0226588
0.0228895
0.0231056
0.0233066
0.0243133
0.0245848
0.0248396
0.0250774
0.0262124
0.0265299
0.0268283
0.0271068
0.0283948
0.0287641
0.0291107
0.0294341
0.030906
0.0313326
0.0317322
0.0321042
0.0337994
0.034289
0.0347457
0.0351692
0.037139
0.0376966
0.0382133
0.0386897
0.0410022
0.041631
0.0422086
0.0427367
0.0454836
0.0461835
0.046819
0.0473933
0.0506999
0.0514646
0.0521479
0.0527562
0.0567951
0.0576065
0.0583162
0.0589357
0.0639428
0.0647626
0.0654594
0.0660521
0.0723375
0.0730966
0.0737162
0.074226
0.0821639
0.0827516
0.0832028
0.0835574
0.093542
0.0937982
0.0939727
0.0941001
0.00507795
0.0057973
0.00612991
0.00629102
0.00635386
0.00635127
0.0063003
0.00620193
0.00604213
0.0058157
0.00556851
0.00531061
0.00502938
0.00471481
0.00435879
0.00391056
0.0032816
0.00247646
0.00110416
0.00676452
0.00694512
0.00705303
0.00709166
0.00707691
0.00701988
0.00692693
0.00679725
0.00662507
0.00641182
0.00618263
0.00594553
0.00564269
0.00524648
0.00480696
0.00429241
0.0036421
0.002814
0.00133408
0.0079127
0.00789341
0.00787958
0.0078279
0.00775319
0.00765805
0.0075396
0.00739484
0.00721928
0.00701174
0.0067864
0.00654928
0.00620677
0.00573433
0.00521842
0.00465166
0.00397723
0.00309811
0.00146967
0.00881977
0.00871709
0.00864451
0.00851489
0.00840273
0.00829442
0.00816913
0.00802401
0.00785668
0.00765822
0.00743798
0.0072032
0.00679803
0.00622422
0.00562175
0.00500317
0.00429234
0.00332515
0.00158729
0.00954971
0.00940096
0.00927842
0.00913259
0.00901481
0.00888467
0.00873284
0.00858115
0.00841421
0.00817863
0.0078738
0.00756106
0.00719642
0.00665776
0.00601121
0.00534306
0.00461666
0.00363035
0.00179711
0.0101796
0.0100564
0.00992263
0.00969197
0.00950587
0.00934261
0.00916675
0.00898465
0.00878657
0.00853119
0.0081817
0.00782919
0.00742645
0.00688178
0.00625847
0.00560058
0.00484626
0.00383093
0.00197864
0.0105455
0.0104467
0.0103249
0.0101216
0.00994291
0.00979158
0.00960622
0.00940003
0.00915287
0.008847
0.00846472
0.00803532
0.00756878
0.00704262
0.00646118
0.00582058
0.00504544
0.00399029
0.00202745
0.0108129
0.010711
0.0105879
0.0104244
0.0102633
0.0101162
0.00994231
0.00970617
0.00940806
0.00907154
0.00867487
0.00821366
0.00771194
0.00717689
0.00658719
0.00593923
0.00517884
0.00413972
0.00198156
0.0110628
0.0109514
0.0108177
0.0106608
0.0104979
0.010341
0.0101562
0.0098816
0.00955362
0.00920227
0.00879436
0.00832278
0.00783139
0.00729501
0.00666731
0.00597345
0.00518547
0.00414589
0.00198629
0.0113192
0.011205
0.0110705
0.0109148
0.0107387
0.0105512
0.0103255
0.0100203
0.00967569
0.00930046
0.00886425
0.0083682
0.00787161
0.00733531
0.00668712
0.00594592
0.00509944
0.00401046
0.00195546
0.0115849
0.0114743
0.0113416
0.0111843
0.0109934
0.0107721
0.0105085
0.0101847
0.00981851
0.00941194
0.00894514
0.00841547
0.00786458
0.0072871
0.00662818
0.00586736
0.00496962
0.00380922
0.00195101
0.0118633
0.0117586
0.0116255
0.011462
0.0112584
0.0110152
0.01073
0.01039
0.0100017
0.00956729
0.00907348
0.008513
0.00790034
0.00724586
0.00653413
0.00575074
0.00482498
0.00362628
0.00194908
0.0121593
0.0120614
0.0119284
0.0117579
0.0115449
0.0112901
0.0109914
0.0106403
0.0102377
0.00978318
0.00926652
0.00867973
0.0080246
0.00730523
0.00652137
0.00567549
0.00471103
0.00349831
0.00194975
0.0124777
0.0123876
0.0122582
0.0120859
0.0118684
0.0116069
0.0112999
0.010942
0.0105304
0.010062
0.00952859
0.00892237
0.00824056
0.00748205
0.00664598
0.00573151
0.00470666
0.0034638
0.00190742
0.0128233
0.0127424
0.01262
0.0124516
0.0122352
0.0119717
0.0116607
0.0112984
0.0108807
0.0104032
0.0098588
0.00924034
0.00854294
0.00776303
0.0068966
0.00593488
0.00485022
0.00355093
0.00193769
0.0132013
0.0131317
0.0130187
0.0128581
0.0126474
0.0123866
0.0120755
0.0117112
0.0112898
0.0108067
0.0102556
0.00962997
0.00892392
0.008132
0.00724685
0.00625249
0.00511268
0.00373199
0.00195007
0.0136179
0.0135617
0.0134606
0.0133104
0.0131085
0.012854
0.012546
0.0121823
0.0117596
0.0112734
0.0107185
0.0100887
0.0093778
0.00857855
0.00768007
0.00666041
0.00547207
0.00399899
0.00195439
0.01408
0.0140398
0.0139528
0.0138154
0.0136245
0.0133786
0.0130762
0.0127154
0.0122933
0.011806
0.0112488
0.0106164
0.00990234
0.0090981
0.00818987
0.00715048
0.00592221
0.00436567
0.00208942
0.0145951
0.0145738
0.0145036
0.014381
0.0142031
0.0139677
0.0136728
0.0133167
0.0128965
0.012409
0.0118502
0.0112153
0.0104981
0.00968959
0.00877438
0.00772251
0.00647077
0.00485888
0.00236505
0.0151721
0.0151728
0.0151222
0.015017
0.0148539
0.0146306
0.0143448
0.0139944
0.0135769
0.0130894
0.0125285
0.0118898
0.0111676
0.0103533
0.00943119
0.00837136
0.00710935
0.0054647
0.00268169
0.0158211
0.0158474
0.0158196
0.0157342
0.0155881
0.0153785
0.015103
0.0147591
0.0143445
0.0138564
0.0132916
0.0126464
0.0119153
0.0110902
0.0101561
0.00908324
0.00780549
0.00612263
0.00301926
0.0165536
0.0166096
0.0166081
0.0165456
0.0164188
0.0162246
0.0159604
0.0156235
0.0152114
0.0147213
0.0141501
0.013494
0.0127479
0.0119035
0.0109463
0.00984418
0.00852776
0.00677512
0.00338895
0.0173833
0.0174734
0.0175022
0.0174658
0.0173608
0.0171839
0.0169321
0.0166025
0.0161922
0.0156981
0.0151169
0.0144444
0.0136753
0.0128001
0.0118044
0.0106555
0.00927424
0.00740254
0.00373944
0.0183255
0.0184549
0.0185181
0.0185114
0.018431
0.0182733
0.0180351
0.017713
0.0173036
0.0168033
0.0162078
0.0155127
0.0147116
0.0137948
0.0127451
0.011526
0.0100467
0.00801029
0.00400839
0.0193981
0.0195722
0.0196747
0.0197014
0.0196486
0.0195123
0.0192888
0.0189744
0.0185649
0.0180559
0.0174425
0.0167186
0.0158768
0.0149054
0.0137841
0.0124707
0.0108609
0.00862041
0.00422132
0.0206215
0.0208463
0.020993
0.0210572
0.0210349
0.0209222
0.020715
0.0204087
0.0199985
0.0194789
0.0188435
0.0180847
0.0171929
0.0161539
0.0149434
0.0135129
0.0117452
0.00927288
0.00444651
0.0220191
0.0223008
0.0224967
0.0226025
0.022614
0.0225273
0.0223378
0.0220404
0.0216292
0.0210973
0.0204364
0.0196369
0.0186862
0.017567
0.0162506
0.0146822
0.012733
0.0100058
0.00472464
0.0236172
0.0239624
0.0242127
0.0243639
0.0244124
0.0243539
0.0241839
0.0238964
0.0234843
0.0229391
0.0222501
0.0214049
0.0203875
0.0191765
0.0177385
0.0160123
0.0138585
0.0108509
0.00507616
0.025446
0.0258611
0.0261705
0.0263707
0.0264588
0.0264309
0.0262821
0.0260059
0.0255939
0.0250354
0.0243171
0.0234228
0.0223323
0.0210192
0.0194446
0.0175404
0.0151564
0.0118341
0.00550101
0.0275395
0.0280304
0.0284029
0.0286551
0.0287848
0.0287892
0.0286635
0.0284006
0.0279907
0.0274205
0.0266736
0.0257291
0.0245615
0.023138
0.0214128
0.0193093
0.0166641
0.0129805
0.00599297
0.0299366
0.0305081
0.0309464
0.0312519
0.0314245
0.0314625
0.0313617
0.0311146
0.0307098
0.0301316
0.0293593
0.0283669
0.0271217
0.0255828
0.0236947
0.0213695
0.0184268
0.0143221
0.00655341
0.0326811
0.0333362
0.033841
0.0341996
0.0344147
0.0344867
0.0344124
0.0341841
0.0337891
0.0332089
0.0324181
0.0313843
0.0300662
0.0284119
0.0263525
0.0237845
0.0205038
0.0159076
0.00721063
0.0358236
0.0365621
0.0371312
0.0375399
0.0377952
0.0379003
0.0378536
0.0376477
0.0372688
0.0366952
0.0358971
0.0348342
0.0334549
0.031693
0.0294614
0.0266336
0.022974
0.0178081
0.00802422
0.0394217
0.0402391
0.040866
0.0413185
0.0416091
0.0417447
0.0417261
0.0415464
0.0411911
0.040636
0.0398462
0.0387736
0.0373543
0.0355041
0.0331113
0.0300165
0.0259387
0.0201126
0.00903636
0.0435418
0.0444271
0.0450996
0.0455853
0.0459031
0.0460647
0.0460733
0.0459235
0.0456005
0.0450782
0.0443175
0.0432624
0.0418357
0.0399323
0.0374079
0.0340563
0.0295289
0.0229348
0.010284
0.0482596
0.0491928
0.0498921
0.0503951
0.0507286
0.0509089
0.0509425
0.0508255
0.0505437
0.0500704
0.0493636
0.0483609
0.0469729
0.0450714
0.0424728
0.0389058
0.0339188
0.0264358
0.011834
0.0536609
0.0546103
0.0553092
0.0558082
0.0561419
0.0563313
0.0563855
0.0563028
0.0560703
0.0556623
0.0550363
0.0541272
0.0528364
0.0510156
0.0484383
0.0447498
0.0393454
0.0308582
0.0137998
0.0598405
0.0607599
0.0614225
0.0618911
0.0622063
0.0623924
0.0624607
0.0624113
0.0622338
0.0619051
0.0613859
0.0606131
0.059487
0.057848
0.0554342
0.0517994
0.0461283
0.0365843
0.0163724
0.0668985
0.0677267
0.0683096
0.0687176
0.0689936
0.0691623
0.0692357
0.0692157
0.0690946
0.0688539
0.0684611
0.0678619
0.0669666
0.0656225
0.063558
0.0602602
0.0546758
0.0442421
0.0199289
0.0749335
0.0755977
0.0760544
0.0763712
0.0765869
0.0767234
0.0767912
0.0767928
0.0767237
0.0765714
0.076313
0.0759092
0.0752929
0.0743431
0.0728263
0.070247
0.0654138
0.0548585
0.0252896
0.0840324
0.0844603
0.0847488
0.0849481
0.0850854
0.0851753
0.0852252
0.0852371
0.0852092
0.0851351
0.0850026
0.0847909
0.0844635
0.0839528
0.0831185
0.0816247
0.0784872
0.069844
0.0337445
0.0942627
0.0944039
0.0944981
0.0945635
0.0946093
0.0946404
0.0946594
0.0946672
0.0946635
0.0946468
0.0946144
0.0945617
0.094481
0.094359
0.0941688
0.0938367
0.0930573
0.0897195
0.0470941
)
;

boundaryField
{
    leftWall
    {
        type            kqRWallFunction;
        value           nonuniform List<scalar> 
50
(
0.000175469
0.000377987
0.000537139
0.00067316
0.00079193
0.000899013
0.000998391
0.00109444
0.00123517
0.00141436
0.00159113
0.00179221
0.00200203
0.00218104
0.00230325
0.00241225
0.00241004
0.00240524
0.00240734
0.00240704
0.00240554
0.00240685
0.00241353
0.00241303
0.00241236
0.00240521
0.00241319
0.00240977
0.00241039
0.00241574
0.00242784
0.00245335
0.00247625
0.00249651
0.00251522
0.00253289
0.00254954
0.00256467
0.00257653
0.00258395
0.00258499
0.00257657
0.00255673
0.00252094
0.00246052
0.0024104
0.00241949
0.003984
0.0181913
0.0840456
)
;
    }
    rightWall
    {
        type            kqRWallFunction;
        value           nonuniform List<scalar> 
50
(
0.000278414
0.000439342
0.000516549
0.000580932
0.000650475
0.000727394
0.000814416
0.000922669
0.00110416
0.00133408
0.00146967
0.00158729
0.00179711
0.00197864
0.00202745
0.00198156
0.00198629
0.00195546
0.00195101
0.00194908
0.00194975
0.00190742
0.00193769
0.00195007
0.00195439
0.00208942
0.00236505
0.00268169
0.00301926
0.00338895
0.00373944
0.00400839
0.00422132
0.00444651
0.00472464
0.00507616
0.00550101
0.00599297
0.00655341
0.00721063
0.00802422
0.00903636
0.010284
0.011834
0.0137998
0.0163724
0.0199289
0.0252896
0.0337445
0.0470941
)
;
    }
    lowerWall
    {
        type            kqRWallFunction;
        value           nonuniform List<scalar> 
62
(
0.000175469
0.000430349
0.000627568
0.000781657
0.00090807
0.00101479
0.00110689
0.00118758
0.00125872
0.00132205
0.00137963
0.00143347
0.00148374
0.00152616
0.00154936
0.00153058
0.00143486
0.00128595
0.00112417
0.000991364
0.000871687
0.000687483
0.000312211
0.000312211
0.000705723
0.000985317
0.00126106
0.00157136
0.00195946
0.00248113
0.00344782
0.00400978
0.00340298
0.00328855
0.00359647
0.000309616
0.000585398
0.000803567
0.001064
0.00135817
0.001728
0.00226637
0.00320116
0.000309616
0.000828054
0.00112005
0.00126167
0.00133499
0.00136657
0.0013924
0.00141868
0.0014223
0.00133408
0.00116101
0.000975598
0.00079087
0.000764994
0.000916997
0.000910752
0.000678252
0.000463772
0.000278414
)
;
    }
    atmosphere
    {
        type            inletOutlet;
        inletValue      uniform 0.1;
        value           nonuniform List<scalar> 
46
(
0.1
0.0141494
0.00693446
0.00865383
0.0103336
0.0118227
0.0132736
0.0147729
0.01638
0.0181484
0.0201345
0.0224037
0.0250361
0.0281321
0.0318224
0.0362818
0.0417504
0.0485533
0.0570458
0.0672754
0.0783845
0.1
0.1
0.1
0.1
0.1
0.1
0.1
0.1
0.1
0.1
0.1
0.1
0.1
0.1
0.1
0.1
0.1
0.1
0.1
0.1
0.1
0.1
0.1
0.1
0.0470941
)
;
    }
    defaultFaces
    {
        type            empty;
    }
}


// ************************************************************************* //
