/*--------------------------------*- C++ -*----------------------------------*\
  =========                 |
  \\      /  F ield         | OpenFOAM: The Open Source CFD Toolbox
   \\    /   O peration     | Website:  https://openfoam.org
    \\  /    A nd           | Version:  9
     \\/     M anipulation  |
\*---------------------------------------------------------------------------*/
FoamFile
{
    format      ascii;
    class       volScalarField;
    location    "6.43";
    object      nut;
}
// * * * * * * * * * * * * * * * * * * * * * * * * * * * * * * * * * * * * * //

dimensions      [0 2 -1 0 0 0 0];

internalField   nonuniform List<scalar> 
2268
(
1.21086e-05
1.39633e-05
1.68621e-05
1.88192e-05
2.02845e-05
2.14439e-05
2.23965e-05
2.31992e-05
2.38846e-05
2.44783e-05
2.50055e-05
2.54888e-05
2.59319e-05
2.63002e-05
2.64994e-05
2.63384e-05
2.55066e-05
2.41521e-05
2.25814e-05
2.1193e-05
1.98694e-05
1.76368e-05
1.18844e-05
2.76887e-05
0.00011171
0.000150316
0.000174907
0.000192887
0.000206988
0.000218573
0.000228349
0.000236665
0.000243688
0.000249624
0.000254769
0.000259032
0.000261903
0.000262446
0.000259182
0.000249525
0.000227166
0.000207425
0.000192106
0.000178893
0.000135942
3.78147e-05
3.30083e-05
0.000189906
0.000277755
0.000334495
0.000375962
0.000408388
0.000434895
0.000457154
0.000476032
0.000491981
0.000505462
0.000516968
0.000526312
0.000532482
0.000533609
0.000526682
0.000506603
0.000467513
0.000428702
0.000391848
0.000341905
0.000231891
4.46833e-05
3.6953e-05
0.000246343
0.000380284
0.000469034
0.000534312
0.000585379
0.000626987
0.000661743
0.000691067
0.000715758
0.000736527
0.000753953
0.000767765
0.000776612
0.000778017
0.000768026
0.000740361
0.000690644
0.000636181
0.000575146
0.00048312
0.00030999
5.05537e-05
4.00813e-05
0.000289609
0.000464331
0.000583012
0.00067101
0.000739995
0.000796116
0.000842821
0.000882046
0.000914923
0.000942386
0.000965072
0.000982663
0.000993618
0.000995135
0.000982856
0.000950407
0.000893865
0.000826689
0.000742427
0.000610325
0.000379818
5.64463e-05
4.27059e-05
0.000324542
0.000534949
0.000681008
0.000790184
0.00087602
0.000945841
0.00100382
0.00105235
0.00109285
0.00112644
0.00115383
0.00117469
0.00118742
0.0011891
0.00117535
0.00114026
0.00107972
0.00100264
0.000898495
0.000731337
0.000444804
6.30239e-05
4.50055e-05
0.000353955
0.000595719
0.000766618
0.000895308
0.000996806
0.00107943
0.00114797
0.00120522
0.00125282
0.00129205
0.0013237
0.0013475
0.00136187
0.00136394
0.00134954
0.00131342
0.00125124
0.00116736
0.00104854
0.000854379
0.000514442
7.08859e-05
4.71258e-05
0.000379588
0.000649242
0.000842665
0.000989232
0.00110517
0.00119966
0.00127804
0.00134343
0.00139764
0.0014421
0.00147768
0.00150421
0.00152021
0.001523
0.00150878
0.00147291
0.00141109
0.00132395
0.00119718
0.000988683
0.000607687
8.35604e-05
1.18649e-05
1.93652e-05
2.25187e-05
2.39002e-05
2.45845e-05
2.48724e-05
2.51068e-05
2.53433e-05
2.5375e-05
2.45718e-05
2.29164e-05
2.10034e-05
1.89087e-05
1.86199e-05
2.03755e-05
2.03076e-05
1.75278e-05
1.44879e-05
1.57361e-05
3.83235e-05
0.00015125
0.00020286
0.00022735
0.000238351
0.000242839
0.000244332
0.000243896
0.000239211
0.000225314
0.00019386
0.000168276
0.000144092
0.000139961
0.00017273
0.000172699
0.000144878
0.000104659
3.31192e-05
4.48309e-05
0.000253732
0.000381112
0.000447664
0.000479152
0.00049219
0.000496354
0.000494941
0.00048406
0.000453919
0.000396087
0.000343479
0.000298071
0.000288605
0.00033274
0.000324512
0.000262005
0.000172515
3.59304e-05
5.1566e-05
0.000321128
0.000521596
0.000634398
0.000690469
0.000714799
0.000722745
0.000720339
0.000703758
0.000661316
0.0005861
0.000514189
0.000455132
0.000437914
0.000473537
0.000448929
0.000354804
0.000217463
3.81276e-05
5.82434e-05
0.000375046
0.000638146
0.000794343
0.000874683
0.000910793
0.000922841
0.000919449
0.000897954
0.000847207
0.00076154
0.00067767
0.000610066
0.000582812
0.000599167
0.000553817
0.000432255
0.000252848
4.03695e-05
6.5664e-05
0.000426254
0.000744396
0.000937545
0.0010387
0.00108525
0.00110092
0.00109643
0.00107071
0.00101468
0.000924176
0.000833925
0.000760133
0.000721487
0.000713092
0.000645532
0.000500971
0.000287225
4.2709e-05
7.51466e-05
0.000484073
0.000851861
0.00107216
0.00118858
0.00124307
0.00126138
0.0012556
0.00122633
0.001167
0.00107587
0.000982749
0.000903737
0.000852418
0.000817339
0.000727903
0.000564289
0.000323947
4.5213e-05
8.93038e-05
0.000568128
0.000970788
0.00120418
0.001329
0.00138827
0.00140795
0.00140066
0.00136849
0.00130724
0.00121771
0.00112382
0.00103975
0.000974126
0.000913282
0.000802939
0.000622359
0.000362605
4.81472e-05
5.00578e-05
0.000414704
0.000723371
0.000948809
0.0011212
0.00125822
0.00137014
0.00146307
0.00154062
0.00160484
0.00165726
0.0016988
0.00172947
0.00174817
0.00175283
0.00174039
0.00170657
0.00164778
0.00156096
0.00143319
0.00123385
0.000916456
0.000474624
5.35697e-05
0.000455881
0.000808605
0.00107002
0.00127125
0.00143154
0.00156264
0.00167186
0.00176333
0.00183935
0.00190137
0.00195036
0.00198681
0.00201022
0.00201913
0.00201127
0.00198392
0.00193431
0.00185914
0.00175027
0.00159168
0.00136307
0.00105979
5.68269e-05
0.000489919
0.0008842
0.00117804
0.0014038
0.00158268
0.00172903
0.00185189
0.0019554
0.00204196
0.00211282
0.00216896
0.00221138
0.00224014
0.0022547
0.00225367
0.00223535
0.00219798
0.0021395
0.00205611
0.00194149
0.00179123
0.00161508
6.03486e-05
0.000527944
0.000960196
0.00128263
0.0015274
0.00171928
0.00187731
0.00201227
0.00212648
0.00222242
0.0023013
0.00236418
0.00241268
0.00244743
0.00246863
0.00247542
0.00246669
0.0024413
0.00239879
0.00233858
0.00225917
0.00216325
0.00206299
6.38893e-05
0.000585439
0.0010522
0.00136956
0.00162223
0.00182733
0.00200028
0.00214957
0.00227633
0.00238279
0.00247053
0.00254116
0.00259666
0.00263814
0.00266644
0.00268127
0.00268163
0.00266552
0.0026344
0.00259184
0.00253717
0.0024764
0.00241795
6.65458e-05
0.000588208
0.00103992
0.00137665
0.00166245
0.00189465
0.00208507
0.00225213
0.0023951
0.00251543
0.00261516
0.00269616
0.00276016
0.0028093
0.0028441
0.00286445
0.00287022
0.00286129
0.00283869
0.0028102
0.00277767
0.00274265
0.00271204
6.84136e-05
0.000585043
0.00103399
0.00138644
0.00168901
0.00194082
0.00215517
0.00233979
0.002497
0.00262923
0.00273905
0.00282849
0.00289971
0.0029549
0.00299547
0.00302286
0.00303633
0.00303788
0.00302961
0.00301395
0.00299614
0.00297723
0.00296384
0.000296337
0.000567881
0.00102587
0.00140297
0.00172117
0.00198925
0.00222035
0.00241908
0.00258853
0.00273126
0.00285014
0.0029476
0.00302591
0.00308738
0.00313587
0.00317328
0.00319768
0.00321007
0.00321356
0.00321002
0.00320207
0.00319299
0.00318987
0.000295839
0.000559475
0.0010299
0.00142521
0.00175804
0.00203958
0.00228238
0.0024918
0.00267142
0.00282402
0.00295223
0.00305849
0.00314489
0.00321461
0.00327176
0.00331832
0.00335274
0.00337561
0.0033895
0.00339567
0.00339618
0.00339506
0.00339619
6.97316e-05
0.000557939
0.00104438
0.00145418
0.00179868
0.00209081
0.00234265
0.00256062
0.00274878
0.00291016
0.00304728
0.00316222
0.00325734
0.00333611
0.00340222
0.00345742
0.00350092
0.00353335
0.00355637
0.00357093
0.00357884
0.00358317
0.00358639
0.000295503
0.000567936
0.00106722
0.00148833
0.00184219
0.00214295
0.00240225
0.0026273
0.00282279
0.00299196
0.00313722
0.00326063
0.00336472
0.00345269
0.00352755
0.00359086
0.00364264
0.00368351
0.00371447
0.00373632
0.00375045
0.00375912
0.00376406
6.9677e-05
0.000577225
0.00109201
0.00152365
0.00188642
0.00219527
0.0024617
0.00269341
0.00289559
0.00307175
0.00322446
0.0033559
0.0034686
0.00356528
0.00364835
0.00371924
0.00377847
0.00382667
0.00386448
0.00389258
0.00391206
0.00392458
0.00393137
6.96825e-05
0.000586243
0.001115
0.00155728
0.0019294
0.00224669
0.00252063
0.00275922
0.00296799
0.00315077
0.0033104
0.00344931
0.00356989
0.00367447
0.00376501
0.00384285
0.00390873
0.00396328
0.004007
0.00404049
0.0040646
0.00408059
0.00408931
6.97254e-05
0.0005948
0.00113514
0.00158816
0.00197017
0.00229646
0.00257843
0.00282429
0.00303979
0.00322908
0.00339532
0.00354113
0.00366882
0.00378043
0.00387765
0.00396172
0.00403346
0.00409351
0.00414232
0.00418043
0.00420857
0.00422765
0.00423826
6.99765e-05
0.000602859
0.00115281
0.00161651
0.0020087
0.00234432
0.00263468
0.00288807
0.00311045
0.00330625
0.00347888
0.00363109
0.00376517
0.00388299
0.00398611
0.00407567
0.00415251
0.00421728
0.00427045
0.00431253
0.00434412
0.00436588
0.00437824
6.99944e-05
0.000609057
0.0011688
0.00164298
0.00204533
0.00239035
0.00268919
0.00295018
0.00317948
0.00338171
0.00356049
0.00371865
0.00385846
0.00398178
0.00409003
0.00418436
0.00426559
0.00433438
0.00439125
0.00443668
0.00447119
0.00449527
0.00450921
0.000296544
0.000616922
0.00118376
0.00166818
0.00208051
0.00243476
0.00274195
0.00301044
0.00324653
0.00345502
0.00363961
0.00380323
0.00394818
0.00407628
0.00418897
0.00428736
0.0043723
0.00444448
0.00450445
0.00455269
0.00458965
0.0046157
0.00463106
6.9782e-05
0.000619113
0.00119804
0.00169254
0.00211458
0.00247776
0.00279302
0.00306876
0.00331138
0.00352578
0.00371578
0.00388434
0.0040338
0.00416603
0.00428246
0.00438423
0.00447226
0.00454724
0.00460976
0.00466032
0.00469932
0.00472707
0.00474375
6.99103e-05
0.000625025
0.00121195
0.00171632
0.00214775
0.00251949
0.00284244
0.00312505
0.00337381
0.00359369
0.00378858
0.0039615
0.00411486
0.00425054
0.00437005
0.00447458
0.00456507
0.00464231
0.0047069
0.00475936
0.00480009
0.00482935
0.00484732
6.98825e-05
0.000629029
0.00122548
0.00173967
0.00218015
0.00256002
0.00289021
0.00317924
0.00343364
0.00365847
0.00385766
0.00403432
0.00419091
0.00432939
0.00445134
0.00455801
0.00465043
0.00472943
0.00479568
0.00484972
0.00489195
0.00492265
0.00494196
6.99086e-05
0.000633084
0.00123885
0.00176268
0.00221181
0.00259934
0.00293627
0.00323118
0.00349065
0.00371981
0.00392266
0.0041024
0.00426157
0.00440221
0.00452598
0.00463424
0.0047281
0.00480846
0.00487606
0.00493147
0.00497512
0.00500728
0.0050281
6.99997e-05
0.000637113
0.00125225
0.00178541
0.0022427
0.00263737
0.0029805
0.00328069
0.0035446
0.00377743
0.00398327
0.00416542
0.0043265
0.00446868
0.00459372
0.0047031
0.00479801
0.00487944
0.00494821
0.00500493
0.00505005
0.00508386
0.00510651
7.0184e-05
0.000640874
0.00126597
0.00180777
0.00227269
0.00267398
0.00302272
0.00332756
0.00359524
0.00383105
0.0040392
0.00422308
0.00438547
0.00452863
0.00465448
0.0047646
0.0048603
0.00494267
0.00501258
0.00507072
0.00511755
0.00515336
0.0051783
7.05513e-05
0.000646232
0.00127967
0.00182956
0.00230164
0.002709
0.00306274
0.00337157
0.00364233
0.00388043
0.00409021
0.00427521
0.00443835
0.00458204
0.00470834
0.00481897
0.00491537
0.00499871
0.00506996
0.00512981
0.00517878
0.00521714
0.00524502
7.08821e-05
0.00065156
0.00129306
0.00185067
0.00232942
0.00274228
0.00310037
0.00341251
0.00368566
0.00392538
0.00413618
0.00432175
0.00448519
0.00462908
0.00475565
0.00486674
0.00496393
0.00504849
0.00512145
0.00518356
0.00523531
0.00527696
0.00530856
7.11735e-05
0.00065682
0.00130609
0.00187099
0.00235588
0.00277362
0.0031354
0.00345016
0.00372505
0.00396579
0.00417707
0.00436279
0.00452623
0.00467016
0.00479697
0.00490869
0.00500699
0.00509326
0.00516856
0.00523367
0.00528905
0.00533491
0.00537123
7.14419e-05
0.000662002
0.00131872
0.00189042
0.00238085
0.00280281
0.00316762
0.00348437
0.00376039
0.00400164
0.004213
0.00439859
0.0045619
0.00470591
0.00483318
0.0049459
0.00504588
0.00513457
0.00521308
0.00528217
0.00534225
0.00539343
0.00543558
7.16946e-05
0.000667079
0.00133086
0.00190878
0.00240409
0.00282962
0.0031968
0.00351496
0.00379164
0.00403302
0.00424422
0.0044296
0.00459285
0.0047372
0.00486538
0.00497973
0.00508219
0.00517428
0.00525711
0.00533137
0.00539741
0.00545517
0.00550439
7.19322e-05
0.000671989
0.00134233
0.0019258
0.0024253
0.00285372
0.00322271
0.00354181
0.00381881
0.00406012
0.00427112
0.0044564
0.00461991
0.00476508
0.00489486
0.00501173
0.00511773
0.00521443
0.0053029
0.00538375
0.00545716
0.00552289
0.00558049
7.21476e-05
0.000676597
0.00135282
0.00194104
0.00244399
0.00287471
0.00324505
0.00356479
0.00384196
0.00408322
0.00429419
0.00447973
0.00464403
0.00479076
0.00492306
0.00504357
0.00515442
0.00525717
0.00535283
0.00544186
0.00552422
0.00559942
0.00566675
7.23167e-05
0.000680559
0.00136178
0.00195384
0.00245949
0.00289201
0.00326343
0.00358374
0.00386118
0.00410264
0.00431401
0.00450038
0.00466624
0.00481547
0.00495144
0.00507695
0.00519417
0.00530465
0.00540926
0.00550826
0.00560129
0.00568753
0.00576595
7.24226e-05
0.000682854
0.00136767
0.00196289
0.00247087
0.00290496
0.00327745
0.00359852
0.0038766
0.00411878
0.00433119
0.0045192
0.00468755
0.00484043
0.00498142
0.00511347
0.00523881
0.00535893
0.0054745
0.00558543
0.005691
0.00578994
0.00588079
7.24396e-05
0.000682159
0.00136947
0.0019672
0.00247708
0.0029127
0.00328655
0.00360892
0.00388833
0.00413202
0.00434633
0.00453693
0.00470889
0.0048667
0.00501421
0.00515453
0.00528997
0.00542187
0.00555064
0.00567577
0.00579593
0.00590932
0.00601392
7.23239e-05
0.000679027
0.0013666
0.00196536
0.00247656
0.00291393
0.00328989
0.00361457
0.00389639
0.00414265
0.00435993
0.00455421
0.00473096
0.00489505
0.00505067
0.00520117
0.00534888
0.00549503
0.00563962
0.00578153
0.00591866
0.0060484
0.00616802
7.20468e-05
0.000673406
0.00135752
0.00195486
0.00246678
0.0029067
0.00328629
0.00361494
0.00390071
0.00415089
0.00437231
0.0045714
0.00475412
0.00492585
0.00509122
0.00525389
0.00541632
0.00557955
0.00574309
0.00590494
0.00606189
0.00621014
0.00634603
7.15424e-05
0.000663833
0.00133843
0.00193093
0.0024436
0.0028882
0.00327418
0.00360939
0.00390118
0.00415685
0.00438364
0.00458859
0.00477834
0.00495894
0.00513563
0.00531253
0.00549237
0.00567605
0.00586243
0.00604829
0.0062287
0.00639808
0.00655141
7.06824e-05
0.000646032
0.00130061
0.00188458
0.00240041
0.00285456
0.00325175
0.00359727
0.00389769
0.00416057
0.00439388
0.00460554
0.00480312
0.00499354
0.00518287
0.005376
0.00557614
0.00578428
0.00599858
0.00621401
0.00642292
0.00661681
0.00678854
6.99255e-05
0.000609767
0.00122515
0.0017999
0.00232755
0.00280114
0.00321733
0.00357828
0.00389037
0.00416212
0.00440283
0.00462169
0.00482744
0.00502816
0.00523101
0.00544199
0.00566535
0.00590266
0.00615158
0.00640462
0.00664947
0.00687264
0.00706324
7.02735e-05
0.00051587
0.00107183
0.00165217
0.00221357
0.00272425
0.00317059
0.00355311
0.00387984
0.00416173
0.00441019
0.00463619
0.00484989
0.00506067
0.00527709
0.00550672
0.00575563
0.00602709
0.00631918
0.0066213
0.0069135
0.00717409
0.00738307
8.99402e-05
0.000308613
0.00079554
0.00141921
0.00205288
0.00262551
0.00311475
0.00352431
0.00386758
0.00415988
0.0044157
0.00464809
0.00486875
0.00508844
0.00531724
0.00556471
0.00583968
0.00614884
0.00649271
0.00685808
0.00721478
0.00753138
0.00775691
0.000192281
0.000140056
0.000448147
0.00111943
0.00186306
0.00251958
0.00305941
0.00349724
0.00385613
0.00415746
0.00441921
0.00465647
0.00488235
0.00510876
0.00534716
0.00560913
0.00590672
0.00625147
0.00664894
0.00708638
0.00753017
0.00795849
0.00819424
0.000413263
0.000141191
0.000221206
0.000859655
0.00170822
0.0024417
0.00302193
0.00347982
0.00384886
0.00415566
0.00442079
0.00466072
0.0048894
0.00511943
0.0053631
0.00563328
0.00594428
0.00631135
0.00674473
0.00723732
0.00778394
0.00851379
0.00870875
9.06426e-05
8.34498e-05
8.20175e-05
8.58019e-05
0.000806859
0.000762016
0.000754861
0.000781802
0.00150148
0.00146092
0.00144908
0.00146538
0.00200755
0.00198408
0.00197428
0.00197891
0.00238847
0.00237696
0.00237214
0.00237366
0.00270293
0.00269976
0.0026973
0.00269712
0.00296437
0.00296461
0.00296386
0.00296399
0.00319219
0.00319304
0.00319345
0.00319362
0.00339813
0.00339851
0.00339837
0.0033977
0.00358763
0.00358762
0.00358681
0.00358518
0.00376498
0.00376462
0.00376321
0.00376071
0.00393235
0.00393175
0.00392989
0.00392668
0.00409063
0.00408997
0.0040878
0.00408403
0.00424007
0.00423947
0.00423713
0.00423296
0.00438061
0.00438017
0.00437777
0.00437335
0.00451216
0.00451192
0.00450957
0.00450505
0.00463463
0.00463467
0.00463247
0.004628
0.00474799
0.00474838
0.00474645
0.00474218
0.00485232
0.00485315
0.00485162
0.00484771
0.00494787
0.00494927
0.0049483
0.00494493
0.00503514
0.0050373
0.00503708
0.00503445
0.005115
0.00511812
0.00511889
0.00511728
0.00518865
0.00519303
0.00519509
0.00519481
0.00525774
0.00526372
0.00526743
0.00526884
0.00532429
0.00533229
0.00533807
0.00534158
0.00539069
0.00540117
0.00540947
0.00541554
0.00545958
0.00547304
0.00548436
0.00549347
0.00553378
0.00555076
0.0055656
0.00557822
0.00561616
0.00563718
0.00565605
0.00567265
0.00570956
0.00573513
0.00575849
0.0057795
0.00581671
0.00584731
0.00587556
0.00590133
0.00594024
0.00597624
0.0060097
0.00604047
0.00608268
0.00612437
0.00616323
0.00619909
0.00624654
0.00629408
0.00633835
0.00637922
0.00643453
0.00648785
0.00653732
0.00658285
0.00664973
0.00670847
0.00676257
0.00681202
0.00689587
0.00695917
0.00701678
0.00706886
0.00717759
0.00724375
0.0073029
0.00735554
0.00750043
0.00756637
0.00762385
0.00767386
0.00786997
0.00793061
0.00798146
0.00802432
0.00828994
0.00833723
0.00837449
0.00840447
0.00875959
0.00878076
0.0087956
0.00880667
0.00040452
0.000836061
0.00118827
0.00141278
0.0015396
0.00160182
0.00162179
0.00161138
0.0015748
0.00151234
0.00142708
0.00133335
0.00124057
0.0011504
0.00105039
0.000907671
0.00070333
0.000418832
5.26374e-05
0.00098455
0.00128175
0.00153143
0.00170489
0.00180995
0.00186271
0.00187711
0.00186194
0.00182112
0.00175688
0.00167271
0.00157572
0.0014683
0.00134736
0.0012055
0.0010241
0.000784462
0.000458932
5.78274e-05
0.00154675
0.00171482
0.0018731
0.00199165
0.00206755
0.00210531
0.00211115
0.0020902
0.00204537
0.00197835
0.00189298
0.00179187
0.00166843
0.00151756
0.00133809
0.0011205
0.000845494
0.000482212
6.06484e-05
0.00201055
0.0020979
0.00219034
0.00226286
0.00231114
0.00233315
0.00232947
0.00230218
0.00225257
0.00218149
0.00209199
0.00198403
0.00184358
0.0016661
0.00145542
0.00120568
0.000894992
0.000478243
6.30224e-05
0.00238638
0.00242792
0.00247478
0.00251405
0.00253869
0.00254395
0.00252859
0.00249358
0.00243796
0.0023596
0.00225896
0.00213718
0.0019855
0.00179359
0.00156254
0.00128839
0.000954237
0.000526893
6.70929e-05
0.00270165
0.00271849
0.00273589
0.00274596
0.00274735
0.00273559
0.00270696
0.00266074
0.00259499
0.00250702
0.00239431
0.00225911
0.0020934
0.00188991
0.00164687
0.00135619
0.000998813
0.000546293
7.04766e-05
0.00296601
0.00296958
0.00296785
0.00295803
0.002941
0.0029149
0.00287406
0.00281626
0.00273766
0.00263594
0.00250896
0.00235651
0.00217672
0.00196543
0.00171568
0.00141397
0.00103819
0.000563439
7.13772e-05
0.00319335
0.00318814
0.00317457
0.00315127
0.00311966
0.00308043
0.00302914
0.00295842
0.00286483
0.00274806
0.00260566
0.0024364
0.00224145
0.00201908
0.00176051
0.00145058
0.00106614
0.000582261
7.05245e-05
0.00339511
0.00338384
0.00336195
0.00332892
0.00328604
0.00323505
0.00317193
0.00308659
0.00297739
0.00284469
0.00268545
0.00249843
0.00228746
0.00205137
0.00178079
0.00146205
0.00107173
0.000583535
7.05606e-05
0.00358052
0.0035649
0.00353728
0.00349703
0.00344495
0.00338246
0.00330522
0.00320469
0.00308
0.00293055
0.00275315
0.00254702
0.00231792
0.00206441
0.00177795
0.00144868
0.00105414
0.000567684
6.99894e-05
0.00375428
0.00373509
0.00370288
0.00365682
0.00359694
0.00352328
0.00343204
0.00331743
0.00317796
0.0030123
0.00281712
0.00259142
0.00234001
0.00206384
0.00175801
0.00141495
0.00101771
0.000543577
6.99272e-05
0.0039187
0.00389629
0.00385992
0.00380859
0.00374162
0.00365813
0.00355514
0.00342834
0.00327588
0.00309581
0.00288496
0.00264173
0.0023678
0.00206434
0.00173095
0.0013672
0.000964436
0.000510885
0.000295341
0.00407475
0.00404947
0.0040094
0.00395325
0.0038801
0.00378868
0.00367637
0.00353982
0.00337683
0.00318494
0.00296114
0.00270329
0.0024107
0.00208321
0.00172211
0.00133252
0.000917285
0.000481785
0.000295339
0.00422268
0.00419504
0.0041519
0.00409185
0.00401375
0.00391621
0.00379689
0.00365298
0.00348199
0.00328122
0.00304766
0.00277874
0.0024726
0.00212814
0.00174622
0.00133292
0.000899461
0.000465266
0.000292002
0.00436237
0.00433301
0.0042876
0.0042247
0.00414305
0.00404116
0.00391693
0.00376784
0.0035913
0.00338449
0.00314437
0.00286802
0.00255293
0.00219728
0.00180109
0.00136958
0.000917355
0.000472306
0.000294522
0.00449371
0.00446326
0.00441639
0.00435167
0.00426779
0.0041632
0.00403594
0.00388367
0.00370381
0.00349349
0.00324956
0.00296882
0.0026481
0.00228459
0.0018769
0.00142781
0.000950726
0.000477643
6.98273e-05
0.00461659
0.00458567
0.0045381
0.00447252
0.00438758
0.00428172
0.00415306
0.00399938
0.00381812
0.00360639
0.00336093
0.00307817
0.00275424
0.00238508
0.00196708
0.00149964
0.000992356
0.000483075
0.00029624
0.00473101
0.0047002
0.00465264
0.00458705
0.00450208
0.00439616
0.00426749
0.00411388
0.00393282
0.00372138
0.00347619
0.00319333
0.00286827
0.00249571
0.00206991
0.00158648
0.00104966
0.000496621
7.23599e-05
0.0048371
0.00480696
0.00476011
0.0046953
0.00461119
0.00450626
0.00437869
0.00422636
0.00404676
0.00383694
0.0035934
0.00331197
0.0029876
0.00261408
0.00218413
0.00169054
0.00113264
0.000542573
7.7005e-05
0.00493521
0.00490634
0.00486086
0.00479758
0.00471518
0.00461211
0.00448658
0.00433648
0.00415929
0.00395203
0.00371111
0.00343216
0.00310976
0.00273717
0.00230612
0.00180754
0.00123594
0.000609927
8.20117e-05
0.00502602
0.00499905
0.00495566
0.00489464
0.00481469
0.00471426
0.00459153
0.00444438
0.00427028
0.00406619
0.00382841
0.00355241
0.00323246
0.00286136
0.00243006
0.00192771
0.00134421
0.000683874
8.7027e-05
0.0051106
0.00508624
0.00504565
0.00498765
0.00491088
0.00481376
0.00469446
0.00455081
0.00438021
0.00417956
0.00394504
0.00367187
0.003354
0.00298354
0.00255039
0.00204077
0.00144065
0.000745826
9.22113e-05
0.00519041
0.00516944
0.00513245
0.00507821
0.00500532
0.00491216
0.00479681
0.00465703
0.00449017
0.00429299
0.00406149
0.00379061
0.00347382
0.00310217
0.00266453
0.00214546
0.00152591
0.000793725
9.68386e-05
0.00526735
0.00525063
0.00521808
0.00516838
0.00510006
0.00501142
0.00490046
0.00476484
0.0046018
0.00440794
0.00417898
0.00390961
0.00359281
0.00321912
0.0027758
0.00224537
0.00160505
0.000836999
0.000100234
0.00534368
0.00533216
0.00530491
0.00526053
0.00519745
0.00511387
0.00500768
0.00487643
0.00471721
0.00452644
0.00429968
0.00403122
0.00371359
0.00333664
0.00288641
0.00234347
0.00168194
0.000879475
0.000102852
0.00542199
0.00541663
0.00539555
0.00535726
0.00530007
0.00522206
0.00512103
0.00499437
0.004839
0.00465116
0.00442615
0.00415792
0.00383854
0.00345719
0.00299884
0.00244233
0.00175899
0.000922307
0.000105564
0.00550503
0.00550682
0.00549279
0.00546132
0.00541063
0.00533869
0.00524315
0.00512129
0.00496982
0.00478473
0.00456105
0.00429239
0.00397032
0.0035834
0.00311563
0.00254429
0.00183803
0.000966234
0.000108824
0.00559567
0.00560554
0.00559936
0.00557538
0.00553173
0.00546629
0.00537659
0.00525974
0.00511223
0.0049298
0.00470712
0.0044374
0.00411172
0.00371801
0.00323937
0.00265163
0.00192085
0.00101219
0.000112809
0.00569671
0.00571551
0.00571783
0.00570189
0.00566573
0.00560717
0.00552363
0.00541203
0.00526866
0.0050889
0.00486702
0.00459576
0.00426562
0.00386388
0.00337276
0.00276674
0.00200935
0.00106146
0.00011744
0.0058108
0.00583919
0.00585052
0.00584299
0.00581464
0.00576326
0.00568617
0.00558015
0.00544119
0.00526431
0.00504329
0.00477023
0.00443497
0.004024
0.00351866
0.00289211
0.00210551
0.00111537
0.000122582
0.00594034
0.00597876
0.00599936
0.00600041
0.00598002
0.00593601
0.00586567
0.00576562
0.00563156
0.00545806
0.00523828
0.00496355
0.00462282
0.00420161
0.00368021
0.00303048
0.00221137
0.00117506
0.000128188
0.0060875
0.00613607
0.00616589
0.00617541
0.00616293
0.00612638
0.00606307
0.00596949
0.00584104
0.00567179
0.00545413
0.00517842
0.00483239
0.00440026
0.00386099
0.00318501
0.00232918
0.00124149
0.000134467
0.00625417
0.00631262
0.00635122
0.00636878
0.00636392
0.00633477
0.00627875
0.00619226
0.00607043
0.00590675
0.00569273
0.00541747
0.00506712
0.00462406
0.00406534
0.00335963
0.00246167
0.00131561
0.000141857
0.00644202
0.00650957
0.00655606
0.00658084
0.006583
0.00656103
0.00651251
0.00643385
0.00631994
0.00616368
0.0059556
0.00568328
0.00533077
0.00487783
0.00429873
0.00355953
0.00261277
0.00139942
0.000150543
0.00665259
0.0067278
0.00678071
0.00681145
0.00681973
0.00680448
0.00676359
0.00669358
0.00658916
0.00644274
0.00624382
0.00597824
0.0056274
0.00516742
0.00456828
0.00379196
0.00278815
0.00149596
0.000160602
0.00688727
0.0069679
0.00702512
0.00706005
0.00707315
0.00706394
0.0070307
0.00697015
0.00687701
0.00674335
0.00655777
0.00630431
0.00596123
0.00549982
0.00488354
0.00406739
0.00299633
0.00160933
0.000172283
0.00714732
0.00723012
0.0072888
0.00732563
0.00734194
0.00733781
0.00731202
0.00726163
0.0071816
0.00706396
0.00689678
0.00666255
0.00633627
0.00588319
0.00525731
0.00440161
0.00325117
0.00174604
0.000186046
0.00743369
0.00751426
0.00757081
0.00760683
0.00762437
0.00762413
0.00760534
0.00756556
0.00750026
0.0074019
0.00725868
0.00705237
0.00675528
0.00632623
0.00570652
0.00481908
0.00357722
0.00191834
0.000202649
0.00774665
0.0078194
0.00786966
0.00790183
0.0079185
0.00792073
0.0079082
0.00787907
0.00782959
0.00775325
0.00763935
0.00747044
0.0072181
0.00683625
0.006252
0.00535783
0.0040208
0.00215308
0.000223577
0.00808508
0.00814355
0.00818316
0.00820853
0.00822222
0.00822542
0.00821813
0.00819912
0.00816568
0.0081129
0.00803235
0.00790949
0.00771883
0.00741476
0.00691488
0.00607501
0.00467457
0.00252042
0.00025186
0.00844548
0.00848333
0.00850848
0.00852455
0.00853352
0.00853627
0.00853294
0.00852289
0.00850457
0.00847507
0.00842919
0.00835754
0.00824249
0.00804905
0.00770359
0.0070448
0.00573107
0.00324198
0.000290933
0.00882109
0.00883387
0.00884225
0.00884762
0.0088507
0.00885182
0.00885107
0.00884826
0.00884295
0.00883424
0.00882054
0.00879885
0.00876332
0.00870124
0.00858121
0.00831132
0.00757176
0.00520151
0.0003437
)
;

boundaryField
{
    leftWall
    {
        type            nutkWallFunction;
        Cmu             0.09;
        kappa           0.41;
        E               9.8;
        value           nonuniform List<scalar> 
50
(
2.08936e-06
3.26645e-06
3.952e-06
4.45143e-06
4.84286e-06
5.1684e-06
5.45158e-06
5.71063e-06
6.06821e-06
6.49197e-06
6.88284e-06
3.79434e-06
4.66981e-06
3.90424e-06
2.61354e-07
8.16662e-09
2.78309e-09
0
0
0
0
0
1.16189e-08
1.15115e-08
1.13892e-08
0
1.33862e-08
5.11158e-09
6.62627e-09
1.95581e-08
4.87834e-08
1.09199e-07
1.61909e-07
2.10005e-07
2.54311e-07
2.95964e-07
3.3508e-07
3.70472e-07
3.9815e-07
4.15435e-07
4.17856e-07
3.98264e-07
3.51939e-07
2.67852e-07
1.24286e-07
3.64836e-09
2.5615e-08
3.27155e-06
1.87061e-05
4.87454e-05
)
;
    }
    rightWall
    {
        type            nutkWallFunction;
        Cmu             0.09;
        kappa           0.41;
        E               9.8;
        value           nonuniform List<scalar> 
50
(
3.09819e-06
3.97225e-06
4.32688e-06
4.60043e-06
4.87742e-06
5.16509e-06
5.4707e-06
5.82635e-06
6.37367e-06
6.9991e-06
7.34219e-06
6.25897e-06
5.23949e-06
4.45735e-06
7.31399e-07
9.51871e-08
1.09201e-07
1.75426e-08
4.25016e-09
0
4.692e-10
0
3.25445e-09
0
8.69353e-09
4.53662e-07
1.31073e-06
2.12592e-06
2.93604e-06
3.76548e-06
4.44235e-06
4.91057e-06
5.32492e-06
5.75064e-06
6.27685e-06
6.90466e-06
7.62043e-06
8.40711e-06
9.24114e-06
1.01948e-05
1.13281e-05
1.26303e-05
1.41203e-05
1.58343e-05
1.783e-05
2.02072e-05
2.31768e-05
2.71307e-05
3.24977e-05
3.95979e-05
)
;
    }
    lowerWall
    {
        type            nutkWallFunction;
        Cmu             0.09;
        kappa           0.41;
        E               9.8;
        value           nonuniform List<scalar> 
62
(
6.64069e-07
1.40489e-06
1.81282e-06
2.0828e-06
2.28247e-06
2.4391e-06
2.56695e-06
2.67411e-06
2.76522e-06
2.84391e-06
2.91363e-06
2.97737e-06
3.03566e-06
3.08399e-06
3.1101e-06
3.08898e-06
2.97899e-06
2.79932e-06
2.59025e-06
2.40553e-06
2.22669e-06
1.92182e-06
1.10653e-06
1.10653e-06
4.56237e-06
5.41525e-06
6.13148e-06
6.83919e-06
7.62188e-06
8.54798e-06
1.00118e-05
1.08119e-05
9.99896e-06
9.83683e-06
1.02663e-05
1.09924e-06
4.61875e-06
5.43362e-06
6.25718e-06
7.06101e-06
7.9438e-06
9.05745e-06
1.06839e-05
1.09924e-06
2.15804e-06
2.58471e-06
2.76892e-06
2.85971e-06
2.89793e-06
2.92884e-06
2.95995e-06
2.96421e-06
2.85857e-06
2.63925e-06
2.38269e-06
2.09791e-06
2.05512e-06
2.29595e-06
2.28652e-06
1.90539e-06
1.48055e-06
1.00961e-06
)
;
    }
    atmosphere
    {
        type            calculated;
        value           nonuniform List<scalar> 
46
(
0.009
0.000141191
0.000221206
0.000859655
0.00170822
0.0024417
0.00302193
0.00347982
0.00384886
0.00415566
0.00442079
0.00466072
0.0048894
0.00511943
0.0053631
0.00563328
0.00594428
0.00631135
0.00674473
0.00723732
0.00778394
0.009
0.009
0.009
0.009
0.009
0.009
0.009
0.009
0.009
0.009
0.009
0.009
0.009
0.009
0.009
0.009
0.009
0.009
0.009
0.009
0.009
0.009
0.009
0.009
0.0003437
)
;
    }
    defaultFaces
    {
        type            empty;
    }
}


// ************************************************************************* //
