/*--------------------------------*- C++ -*----------------------------------*\
  =========                 |
  \\      /  F ield         | OpenFOAM: The Open Source CFD Toolbox
   \\    /   O peration     | Website:  https://openfoam.org
    \\  /    A nd           | Version:  9
     \\/     M anipulation  |
\*---------------------------------------------------------------------------*/
FoamFile
{
    format      ascii;
    class       surfaceScalarField;
    location    "9.27";
    object      phi;
}
// * * * * * * * * * * * * * * * * * * * * * * * * * * * * * * * * * * * * * //

dimensions      [0 3 -1 0 0 0 0];

internalField   nonuniform List<scalar> 
4432
(
-8.6748e-08
8.6748e-08
-1.84791e-07
9.8045e-08
-2.81256e-07
9.64663e-08
-3.66149e-07
8.48943e-08
-4.3644e-07
7.0291e-08
-4.90936e-07
5.44968e-08
-5.29938e-07
3.90003e-08
-5.54931e-07
2.49937e-08
-5.66794e-07
1.18618e-08
-5.63953e-07
-2.84201e-09
-5.40888e-07
-2.3066e-08
-4.87364e-07
-5.35241e-08
-3.91885e-07
-9.54789e-08
-2.51371e-07
-1.40515e-07
-8.54641e-08
-1.65908e-07
4.58676e-08
-1.31333e-07
6.70907e-08
-2.12242e-08
-3.44781e-08
1.01568e-07
-3.40008e-07
3.05528e-07
-7.40396e-07
4.00386e-07
-8.13467e-07
7.3069e-08
-5.65795e-07
-2.47672e-07
-5.65793e-07
-9.73683e-08
1.84119e-07
-1.93832e-07
1.94511e-07
-2.87872e-07
1.90508e-07
-3.73623e-07
1.70647e-07
-4.47518e-07
1.44185e-07
-5.07879e-07
1.14858e-07
-5.54529e-07
8.56489e-08
-5.88089e-07
5.85521e-08
-6.08762e-07
3.25338e-08
-6.15146e-07
3.54148e-09
-6.02841e-07
-3.53719e-08
-5.64888e-07
-9.14793e-08
-4.94162e-07
-1.66206e-07
-3.90332e-07
-2.44347e-07
-2.69503e-07
-2.86739e-07
-1.73403e-07
-2.27435e-07
-1.60731e-07
-3.38992e-08
-2.30458e-07
1.71292e-07
-3.52119e-07
4.27186e-07
-4.775e-07
5.25765e-07
-5.27423e-07
1.22993e-07
-4.51623e-07
-3.23468e-07
-1.01741e-06
-1.0272e-07
2.8684e-07
-1.98657e-07
2.90449e-07
-2.90934e-07
2.82786e-07
-3.77401e-07
2.57115e-07
-4.54464e-07
2.21248e-07
-5.19964e-07
1.80358e-07
-5.7307e-07
1.38754e-07
-6.13827e-07
9.93088e-08
-6.42042e-07
6.07478e-08
-6.56385e-07
1.78831e-08
-6.53817e-07
-3.79405e-08
-6.29292e-07
-1.16006e-07
-5.77757e-07
-2.17742e-07
-4.98541e-07
-3.23565e-07
-4.02108e-07
-3.83174e-07
-3.20355e-07
-3.0919e-07
-3.02763e-07
-5.14938e-08
-3.41122e-07
2.09649e-07
-3.5246e-07
4.38522e-07
-3.45293e-07
5.18598e-07
-3.61874e-07
1.39576e-07
-3.37338e-07
-3.48e-07
-1.35475e-06
-1.05925e-07
3.92766e-07
-2.03618e-07
3.88143e-07
-2.96849e-07
3.76017e-07
-3.85491e-07
3.45758e-07
-4.66394e-07
3.0215e-07
-5.37123e-07
2.51087e-07
-5.9631e-07
1.9794e-07
-6.43566e-07
1.46565e-07
-6.78573e-07
9.5754e-08
-7.00428e-07
3.97373e-08
-7.07174e-07
-3.11962e-08
-6.95265e-07
-1.27917e-07
-6.60517e-07
-2.52492e-07
-6.00832e-07
-3.83253e-07
-5.20055e-07
-4.63952e-07
-4.40489e-07
-3.88758e-07
-4.11045e-07
-8.09385e-08
-4.19664e-07
2.18266e-07
-3.73285e-07
3.92142e-07
-2.87112e-07
4.32426e-07
-2.63432e-07
1.15899e-07
-2.44704e-07
-3.66724e-07
-1.59945e-06
-1.07733e-07
5.005e-07
-2.08422e-07
4.88833e-07
-3.04652e-07
4.72246e-07
-3.96979e-07
4.38085e-07
-4.82669e-07
3.87842e-07
-5.59091e-07
3.27509e-07
-6.24387e-07
2.63236e-07
-6.77876e-07
2.00054e-07
-7.19268e-07
1.37146e-07
-7.48213e-07
6.86812e-08
-7.63836e-07
-1.55739e-08
-7.63835e-07
-1.2792e-07
-7.44524e-07
-2.71805e-07
-7.02334e-07
-4.25444e-07
-6.34482e-07
-5.31805e-07
-5.50071e-07
-4.73171e-07
-5.01754e-07
-1.29258e-07
-4.81818e-07
1.98327e-07
-4.05934e-07
3.16257e-07
-2.78276e-07
3.04769e-07
-2.15823e-07
5.34491e-08
-1.65764e-07
-4.16779e-07
-1.76521e-06
-1.08869e-07
6.0937e-07
-2.13366e-07
5.9333e-07
-3.1388e-07
5.72761e-07
-4.11047e-07
5.35253e-07
-5.02338e-07
4.79134e-07
-5.84888e-07
4.1006e-07
-6.56331e-07
3.3468e-07
-7.1577e-07
2.59494e-07
-7.63029e-07
1.84404e-07
-7.98358e-07
1.0401e-07
-8.21985e-07
8.0532e-09
-8.32807e-07
-1.17099e-07
-8.27709e-07
-2.76904e-07
-8.02447e-07
-4.50707e-07
-7.49712e-07
-5.84542e-07
-6.60219e-07
-5.62667e-07
-5.8227e-07
-2.07209e-07
-5.37248e-07
1.53302e-07
-4.42402e-07
2.2141e-07
-3.01831e-07
1.64198e-07
-2.0747e-07
-4.09111e-08
-6.78822e-08
-5.56366e-07
-1.8331e-06
-1.09985e-07
7.19354e-07
-2.18694e-07
7.02039e-07
-3.24154e-07
6.78222e-07
-4.26786e-07
6.37885e-07
-5.24164e-07
5.76514e-07
-6.13094e-07
4.98993e-07
-6.90597e-07
4.12186e-07
-7.55569e-07
3.24469e-07
-8.07964e-07
2.36802e-07
-8.48615e-07
1.44662e-07
-8.78842e-07
3.82814e-08
-8.9875e-07
-9.71902e-08
-9.06141e-07
-2.69514e-07
-8.97355e-07
-4.59495e-07
-8.63234e-07
-6.18666e-07
-7.82219e-07
-6.43686e-07
-6.68517e-07
-3.20915e-07
-5.74841e-07
5.96229e-08
-4.77298e-07
1.23864e-07
-3.43976e-07
3.0874e-08
-2.05423e-07
-1.79466e-07
2.83296e-08
-7.90122e-07
-1.80477e-06
-1.13218e-07
8.32571e-07
-2.24937e-07
8.13759e-07
-3.34907e-07
7.88193e-07
-4.43026e-07
7.46007e-07
-5.46587e-07
6.80079e-07
-6.41929e-07
5.94341e-07
-7.25264e-07
4.95525e-07
-7.95221e-07
3.94432e-07
-8.51841e-07
2.93426e-07
-8.96417e-07
1.89242e-07
-9.31293e-07
7.31603e-08
-9.57664e-07
-7.08179e-08
-9.74739e-07
-2.52439e-07
-9.80299e-07
-4.53935e-07
-9.64859e-07
-6.34108e-07
-9.11796e-07
-6.96752e-07
-7.71664e-07
-4.61052e-07
-6.14554e-07
-9.74907e-08
-5.00713e-07
1.00186e-08
-3.74729e-07
-9.51135e-08
-1.73884e-07
-3.80316e-07
4.66401e-08
-1.01065e-06
-1.75814e-06
-8.34432e-07
8.34432e-07
-5.83412e-07
-2.51003e-07
1.15904e-07
-6.99328e-07
7.01561e-07
-5.85647e-07
1.11953e-06
-4.17976e-07
1.43887e-06
-3.19331e-07
1.618e-06
-1.79137e-07
1.72845e-06
-1.10445e-07
1.76817e-06
-3.97266e-08
1.79104e-06
-2.28689e-08
1.58341e-06
2.07633e-07
8.18432e-07
7.64973e-07
6.46033e-08
7.53828e-07
-1.31079e-07
1.95682e-07
-1.56553e-07
2.54729e-08
-2.60958e-07
1.04405e-07
-4.80557e-07
2.19599e-07
-4.19261e-07
-6.12961e-08
-4.19262e-07
-5.91362e-07
1.42578e-06
-2.25132e-07
-6.17206e-07
2.76373e-07
-1.20084e-06
6.87224e-07
-9.96491e-07
9.82469e-07
-7.13226e-07
1.17611e-06
-5.12974e-07
1.32793e-06
-3.30956e-07
1.41563e-06
-1.98149e-07
1.39389e-06
-1.79857e-08
1.2774e-06
9.36179e-08
1.15175e-06
3.33277e-07
8.36638e-07
1.08009e-06
4.36987e-07
1.15348e-06
1.89813e-07
4.42855e-07
2.03367e-08
1.94949e-07
-1.92296e-07
3.17038e-07
-5.09138e-07
5.36441e-07
-5.73615e-07
3.1807e-09
-9.92877e-07
-2.98127e-07
1.7239e-06
6.24539e-08
-9.77764e-07
4.16093e-07
-1.55449e-06
6.91358e-07
-1.27175e-06
8.95329e-07
-9.172e-07
1.03397e-06
-6.5162e-07
1.14302e-06
-4.40001e-07
1.20055e-06
-2.55685e-07
1.14778e-06
3.47828e-08
9.85822e-07
2.55575e-07
8.23455e-07
4.95644e-07
7.39304e-07
1.16424e-06
5.96663e-07
1.29612e-06
3.79461e-07
6.60056e-07
1.49599e-07
4.24812e-07
-1.11512e-07
5.78148e-07
-4.37482e-07
8.62412e-07
-5.46412e-07
1.12111e-07
-1.53929e-06
3.25768e-08
1.69131e-06
3.34615e-07
-1.27978e-06
5.43452e-07
-1.76334e-06
7.01965e-07
-1.43026e-06
8.299e-07
-1.04514e-06
9.21493e-07
-7.43214e-07
9.96362e-07
-5.14872e-07
1.03338e-06
-2.92708e-07
9.69271e-07
9.88949e-08
8.08852e-07
4.15993e-07
6.50631e-07
6.53865e-07
6.54028e-07
1.16084e-06
6.48643e-07
1.3015e-06
4.90755e-07
8.17945e-07
2.5771e-07
6.57857e-07
2.18126e-10
8.35641e-07
-2.92314e-07
1.15495e-06
-3.821e-07
2.01897e-07
-1.92139e-06
4.08966e-07
1.28234e-06
5.92737e-07
-1.46354e-06
6.47109e-07
-1.81771e-06
7.06742e-07
-1.48989e-06
7.71016e-07
-1.10941e-06
8.21512e-07
-7.93712e-07
8.67632e-07
-5.60994e-07
8.91568e-07
-3.16646e-07
8.31762e-07
1.58701e-07
6.91889e-07
5.55865e-07
5.71085e-07
7.74669e-07
5.95007e-07
1.13692e-06
6.408e-07
1.25571e-06
5.24663e-07
9.34083e-07
3.46026e-07
8.36496e-07
1.44959e-07
1.03671e-06
-9.45191e-08
1.39443e-06
-1.72583e-07
2.79962e-07
-2.09397e-06
7.37128e-07
5.452e-07
7.7036e-07
-1.49676e-06
7.08921e-07
-1.75628e-06
6.95801e-07
-1.47676e-06
7.11191e-07
-1.1248e-06
7.26756e-07
-8.09279e-07
7.47834e-07
-5.82075e-07
7.66825e-07
-3.35639e-07
7.21704e-07
2.03821e-07
6.11964e-07
6.65604e-07
5.32664e-07
8.53969e-07
5.68191e-07
1.10139e-06
6.10512e-07
1.21339e-06
5.11332e-07
1.03326e-06
3.95698e-07
9.52133e-07
3.12577e-07
1.11983e-06
1.6814e-07
1.53886e-06
5.66806e-08
3.91423e-07
-2.03729e-06
8.51235e-07
-3.06042e-07
8.308e-07
-1.47632e-06
7.18149e-07
-1.64364e-06
6.63195e-07
-1.42181e-06
6.45467e-07
-1.10708e-06
6.3303e-07
-7.96845e-07
6.2977e-07
-5.78819e-07
6.4785e-07
-3.53722e-07
6.29343e-07
2.22326e-07
5.54558e-07
7.40389e-07
5.14948e-07
8.9358e-07
5.56753e-07
1.05959e-06
5.88118e-07
1.18203e-06
4.93195e-07
1.12819e-06
4.32003e-07
1.01333e-06
4.57255e-07
1.09458e-06
4.28047e-07
1.56808e-06
3.01529e-07
5.17942e-07
-1.73576e-06
7.80221e-07
-1.08627e-06
7.89523e-07
-1.48563e-06
6.78853e-07
-1.53298e-06
6.07208e-07
-1.35017e-06
5.71094e-07
-1.07097e-06
5.38747e-07
-7.64502e-07
5.13762e-07
-5.53838e-07
5.15043e-07
-3.55006e-07
5.43442e-07
1.93925e-07
5.18101e-07
7.65728e-07
5.11092e-07
9.00589e-07
5.60789e-07
1.00989e-06
5.84983e-07
1.15784e-06
5.01765e-07
1.21141e-06
5.09194e-07
1.0059e-06
5.51158e-07
1.05262e-06
6.44436e-07
1.4748e-06
5.24698e-07
6.37683e-07
-1.21106e-06
-2.36563e-07
1.06913e-06
-4.9202e-07
1.06922e-06
-7.45719e-07
1.04189e-06
-9.93734e-07
9.94019e-07
-1.23338e-06
9.19721e-07
-1.45716e-06
8.18115e-07
-1.65254e-06
6.90898e-07
-1.81603e-06
5.57921e-07
-1.94729e-06
4.24683e-07
-2.04938e-06
2.9133e-07
-2.13101e-06
1.54786e-07
-2.19598e-06
-5.84879e-09
-2.24999e-06
-1.9843e-07
-2.29325e-06
-4.10675e-07
-2.31135e-06
-6.16011e-07
-2.24964e-06
-7.58454e-07
-1.97842e-06
-7.32268e-07
-1.55187e-06
-5.24036e-07
-1.13063e-06
-4.1122e-07
-7.15232e-07
-5.10507e-07
-2.99825e-07
-7.95719e-07
-1.68474e-07
-1.14201e-06
-1.3503e-06
-5.76308e-07
-2.68291e-07
1.33743e-06
-5.53353e-07
1.35428e-06
-8.05124e-07
1.29366e-06
-1.03871e-06
1.22761e-06
-1.29349e-06
1.17449e-06
-1.54971e-06
1.07434e-06
-1.77012e-06
9.11302e-07
-1.94939e-06
7.37186e-07
-2.08902e-06
5.6431e-07
-2.18787e-06
3.90187e-07
-2.24661e-06
2.13521e-07
-2.27802e-06
2.5564e-08
-2.29361e-06
-1.82846e-07
-2.31558e-06
-3.88704e-07
-2.34126e-06
-5.90327e-07
-2.32035e-06
-7.79367e-07
-2.1502e-06
-9.0241e-07
-1.73318e-06
-9.41055e-07
-1.15306e-06
-9.91338e-07
-5.75007e-07
-1.08856e-06
-1.49111e-07
-1.22162e-06
4.0609e-08
-1.33173e-06
-1.39524e-06
8.55255e-08
-2.9108e-07
1.6285e-06
-5.45182e-07
1.60834e-06
-8.58141e-07
1.60656e-06
-1.16123e-06
1.53064e-06
-1.3646e-06
1.3778e-06
-1.51526e-06
1.22495e-06
-1.68922e-06
1.08521e-06
-1.86994e-06
9.17867e-07
-2.0162e-06
7.10529e-07
-2.10406e-06
4.7802e-07
-2.12009e-06
2.29531e-07
-2.0818e-06
-1.27343e-08
-2.05363e-06
-2.11006e-07
-2.04777e-06
-3.94558e-07
-2.07584e-06
-5.62221e-07
-2.11765e-06
-7.37523e-07
-2.01748e-06
-1.00252e-06
-1.61393e-06
-1.34455e-06
-1.01418e-06
-1.59102e-06
-4.04354e-07
-1.69831e-06
4.30053e-08
-1.6689e-06
2.63732e-07
-1.55238e-06
-1.41978e-06
2.88356e-07
-8.67031e-07
2.49551e-06
-1.64566e-07
9.0602e-07
-9.48545e-07
2.39064e-06
-2.34889e-06
2.93113e-06
-2.06402e-06
1.09306e-06
-1.41923e-06
5.80241e-07
-1.37765e-06
1.04371e-06
-1.64093e-06
1.18123e-06
-1.8265e-06
8.96176e-07
-1.87361e-06
5.25187e-07
-1.83065e-06
1.86618e-07
-1.67519e-06
-1.68182e-07
-1.76253e-06
-1.23665e-07
-1.81741e-06
-3.39712e-07
-1.82206e-06
-5.57634e-07
-1.69496e-06
-8.64697e-07
-1.46431e-06
-1.23328e-06
-1.09116e-06
-1.71779e-06
-8.93541e-07
-1.78872e-06
-4.52906e-07
-2.13903e-06
4.58713e-08
-2.16775e-06
4.41699e-07
-1.94833e-06
-1.32333e-06
3.45027e-07
-2.58804e-07
2.75411e-06
-7.22632e-07
1.36943e-06
-3.41433e-06
5.08198e-06
-6.3962e-06
5.91268e-06
-5.58872e-06
2.85373e-07
-4.18572e-06
-8.2295e-07
-3.45785e-06
3.15691e-07
-3.1327e-06
8.55955e-07
-2.72988e-06
4.93275e-07
-2.24347e-06
3.87336e-08
-1.6817e-06
-3.75158e-07
-9.92321e-07
-8.57517e-07
-3.65218e-07
-7.50672e-07
1.07507e-07
-8.12295e-07
7.59667e-07
-1.2096e-06
1.46643e-06
-1.57122e-06
1.69054e-06
-1.45711e-06
1.45693e-06
-1.48386e-06
5.12123e-07
-8.43529e-07
-3.92685e-07
-1.2338e-06
-4.21527e-07
-2.13838e-06
-9.40561e-08
-2.27511e-06
-4.11281e-07
-1.00468e-06
-2.4623e-07
3.00061e-06
-1.37926e-06
2.5024e-06
-1.028e-06
4.73085e-06
1.90032e-07
4.69479e-06
-7.07999e-07
1.18351e-06
-2.1585e-06
6.27664e-07
-2.54967e-06
7.06971e-07
-2.25178e-06
5.58169e-07
-1.95791e-06
1.99476e-07
-1.81902e-06
-1.00112e-07
-1.82382e-06
-3.70341e-07
-1.62839e-06
-1.05295e-06
-8.57172e-07
-1.52192e-06
-6.99387e-08
-1.59959e-06
3.80009e-07
-1.65964e-06
1.68324e-07
-1.35964e-06
-5.81765e-07
-7.07108e-07
-1.16278e-06
-9.02921e-07
-1.15658e-06
-8.498e-07
-1.57994e-06
-8.1054e-07
-2.10576e-06
-1.61278e-06
-2.30461e-06
-2.07675e-06
-9.28748e-07
-1.78779e-06
-2.86817e-07
3.28736e-06
-1.00698e-06
3.2224e-06
-3.88752e-07
4.11255e-06
5.18194e-07
3.78777e-06
-2.26968e-07
1.92862e-06
-9.80779e-07
1.38142e-06
-1.26843e-06
9.94574e-07
-1.32439e-06
6.14077e-07
-1.35972e-06
2.34765e-07
-1.44402e-06
-1.58279e-08
-1.46234e-06
-3.52027e-07
-1.33643e-06
-1.17885e-06
-8.96117e-07
-1.96221e-06
-4.63034e-07
-2.03264e-06
-3.24766e-07
-1.79786e-06
-4.25753e-07
-1.25859e-06
-6.4923e-07
-4.83573e-07
-1.1563e-06
-3.95773e-07
-1.56002e-06
-4.45942e-07
-1.88043e-06
-4.89951e-07
-2.50269e-06
-9.90372e-07
-3.08595e-06
-1.49341e-06
-1.48572e-06
-2.52897e-06
-2.75995e-07
3.56303e-06
-5.78675e-07
3.52486e-06
-1.93163e-07
3.72687e-06
2.64204e-07
3.33026e-06
-2.83471e-08
2.22106e-06
-3.15622e-07
1.6686e-06
-4.97853e-07
1.17674e-06
-6.14575e-07
7.3077e-07
-6.74819e-07
2.9503e-07
-6.60554e-07
-3.00213e-08
-6.04695e-07
-4.07768e-07
-6.52078e-07
-1.13131e-06
-8.03148e-07
-1.81095e-06
-9.15642e-07
-1.91992e-06
-1.10117e-06
-1.61207e-06
-1.17865e-06
-1.18082e-06
-1.19987e-06
-4.62042e-07
-1.4494e-06
-1.45883e-07
-1.79928e-06
-9.56066e-08
-2.11238e-06
-1.76299e-07
-2.54615e-06
-5.55996e-07
-2.97459e-06
-1.06432e-06
-1.45291e-06
-3.00671e-06
-1.61644e-07
3.72451e-06
-2.69764e-07
3.63289e-06
-6.52338e-08
3.52224e-06
1.63345e-07
3.10159e-06
5.73309e-08
2.32698e-06
-4.2578e-08
1.76843e-06
-1.36647e-07
1.27075e-06
-2.19954e-07
8.14043e-07
-2.56291e-07
3.31364e-07
-2.56007e-07
-3.0275e-08
-2.72516e-07
-3.91193e-07
-4.76579e-07
-9.27156e-07
-8.65778e-07
-1.42164e-06
-1.22317e-06
-1.5624e-06
-1.45512e-06
-1.37998e-06
-1.61968e-06
-1.01614e-06
-1.64873e-06
-4.32858e-07
-1.76973e-06
-2.47423e-08
-1.9845e-06
1.1937e-07
-2.23294e-06
7.24367e-08
-2.57407e-06
-2.14497e-07
-2.95115e-06
-6.86825e-07
-1.32092e-06
-3.08271e-06
-5.49639e-08
3.77945e-06
-7.00279e-08
3.64799e-06
4.53701e-08
3.40687e-06
1.6694e-07
2.98002e-06
1.24068e-07
2.36984e-06
7.24058e-08
1.82008e-06
2.85976e-10
1.34286e-06
-6.46474e-08
8.78973e-07
-1.2161e-07
3.8833e-07
-1.90267e-07
3.83901e-08
-3.22553e-07
-2.58891e-07
-5.93875e-07
-6.55813e-07
-9.91496e-07
-1.024e-06
-1.35193e-06
-1.20196e-06
-1.60049e-06
-1.13143e-06
-1.79065e-06
-8.26037e-07
-1.86837e-06
-3.55254e-07
-1.9352e-06
4.19006e-08
-2.04854e-06
2.32489e-07
-2.20133e-06
2.25008e-07
-2.41694e-06
9.10056e-10
-2.67371e-06
-4.30256e-07
-1.18013e-06
-2.81472e-06
7.38083e-09
3.77212e-06
3.64916e-08
3.61897e-06
1.18002e-07
3.32543e-06
1.87246e-07
2.91083e-06
1.6417e-07
2.39297e-06
1.06997e-07
1.8773e-06
3.97263e-08
1.41018e-06
-2.83591e-08
9.47096e-07
-1.2197e-07
4.8197e-07
-2.64e-07
1.80438e-07
-4.58488e-07
-6.43934e-08
-7.43831e-07
-3.70467e-07
-1.10982e-06
-6.58016e-07
-1.44007e-06
-8.71714e-07
-1.67252e-06
-8.99004e-07
-1.81709e-06
-6.815e-07
-1.90062e-06
-2.71806e-07
-1.94319e-06
8.43144e-08
-1.9851e-06
2.74171e-07
-2.03633e-06
2.75967e-07
-2.11572e-06
7.9999e-08
-2.2209e-06
-3.25397e-07
-1.02218e-06
-2.37921e-06
3.8906e-08
3.73328e-06
8.87921e-08
3.56917e-06
1.52642e-07
3.26164e-06
1.91982e-07
2.87154e-06
1.73153e-07
2.41185e-06
1.13295e-07
1.93721e-06
4.85863e-08
1.47494e-06
-2.76767e-08
1.0234e-06
-1.61537e-07
6.15863e-07
-3.48728e-07
3.67647e-07
-5.58133e-07
1.45014e-07
-8.25711e-07
-1.02899e-07
-1.14245e-06
-3.41297e-07
-1.44591e-06
-5.6828e-07
-1.67331e-06
-6.71624e-07
-1.80733e-06
-5.47497e-07
-1.85149e-06
-2.27681e-07
-1.87295e-06
1.0572e-07
-1.86352e-06
2.64632e-07
-1.83824e-06
2.50548e-07
-1.81775e-06
5.93408e-08
-1.8233e-06
-3.2003e-07
-8.89775e-07
-1.9559e-06
5.77631e-08
3.67557e-06
1.15548e-07
3.51142e-06
1.67112e-07
3.2101e-06
1.90176e-07
2.84851e-06
1.69302e-07
2.43276e-06
1.15459e-07
1.9911e-06
5.24997e-08
1.53794e-06
-3.86917e-08
1.11463e-06
-2.00268e-07
7.77465e-07
-3.92323e-07
5.59716e-07
-5.94495e-07
3.4719e-07
-8.26512e-07
1.29112e-07
-1.08402e-06
-8.38073e-08
-1.36201e-06
-2.90308e-07
-1.60644e-06
-4.27212e-07
-1.75425e-06
-3.997e-07
-1.79003e-06
-1.91904e-07
-1.78727e-06
1.0296e-07
-1.74447e-06
2.21822e-07
-1.67958e-06
1.8563e-07
-1.61856e-06
-1.71332e-09
-1.60046e-06
-3.38159e-07
-8.02966e-07
-1.6873e-06
7.28031e-08
3.6028e-06
1.32669e-07
3.45153e-06
1.77231e-07
3.16553e-06
1.93813e-07
2.83193e-06
1.73712e-07
2.45288e-06
1.22072e-07
2.04276e-06
5.75789e-08
1.60246e-06
-5.38628e-08
1.2261e-06
-2.22704e-07
9.46332e-07
-4.01107e-07
7.38142e-07
-5.85304e-07
5.31408e-07
-7.82387e-07
3.26215e-07
-9.93854e-07
1.2768e-07
-1.22895e-06
-5.5195e-08
-1.46345e-06
-1.92688e-07
-1.6345e-06
-2.28625e-07
-1.71425e-06
-1.12103e-07
-1.69705e-06
8.58121e-08
-1.63914e-06
1.6397e-07
-1.56484e-06
1.11384e-07
-1.50292e-06
-6.35622e-08
-1.49129e-06
-3.49715e-07
-7.16418e-07
-1.57775e-06
8.48226e-08
3.51796e-06
1.47491e-07
3.38881e-06
1.8925e-07
3.12374e-06
2.04706e-07
2.81645e-06
1.87388e-07
2.47019e-06
1.36923e-07
2.09323e-06
5.49567e-08
1.68444e-06
-6.91352e-08
1.35021e-06
-2.30731e-07
1.10795e-06
-3.9104e-07
8.9848e-07
-5.54346e-07
6.94749e-07
-7.24639e-07
4.96551e-07
-9.05336e-07
3.0843e-07
-1.09855e-06
1.38075e-07
-1.29783e-06
6.66125e-09
-1.47597e-06
-5.04113e-08
-1.57904e-06
-8.94752e-09
-1.57725e-06
8.41189e-08
-1.52744e-06
1.14269e-07
-1.46507e-06
4.91311e-08
-1.41931e-06
-1.09202e-07
-1.42219e-06
-3.4671e-07
-6.3325e-07
-1.50522e-06
9.37388e-08
3.42419e-06
1.60276e-07
3.3222e-06
2.00798e-07
3.08317e-06
2.16057e-07
2.80117e-06
2.00955e-07
2.48528e-06
1.51388e-07
2.14279e-06
5.18054e-08
1.78402e-06
-7.98169e-08
1.48184e-06
-2.24024e-07
1.25218e-06
-3.6651e-07
1.04099e-06
-5.11342e-07
8.39616e-07
-6.61375e-07
6.46629e-07
-8.18705e-07
4.65819e-07
-9.84801e-07
3.04242e-07
-1.1542e-06
1.7614e-07
-1.30587e-06
1.0135e-07
-1.40303e-06
8.83137e-08
-1.42405e-06
1.05243e-07
-1.39841e-06
8.8751e-08
-1.35965e-06
1.04878e-08
-1.33527e-06
-1.33453e-07
-1.35081e-06
-3.31036e-07
-5.57739e-07
-1.42618e-06
9.95699e-08
3.32457e-06
1.67747e-07
3.25396e-06
2.06361e-07
3.04451e-06
2.18633e-07
2.78886e-06
2.01738e-07
2.50214e-06
1.50007e-07
2.1945e-06
5.02415e-08
1.88377e-06
-7.62151e-08
1.6083e-06
-2.02459e-07
1.37842e-06
-3.29739e-07
1.16828e-06
-4.59059e-07
9.68959e-07
-5.92425e-07
7.80028e-07
-7.30856e-07
6.04297e-07
-8.73909e-07
4.47354e-07
-1.01592e-06
3.18221e-07
-1.14125e-06
2.2676e-07
-1.22685e-06
1.74004e-07
-1.26073e-06
1.39218e-07
-1.25851e-06
8.66319e-08
-1.24362e-06
-4.2898e-09
-1.23894e-06
-1.38011e-07
-1.26355e-06
-3.06309e-07
-4.90963e-07
-1.3302e-06
1.00947e-07
3.22358e-06
1.68442e-07
3.1864e-06
2.02329e-07
3.01057e-06
2.09817e-07
2.78132e-06
1.89687e-07
2.52223e-06
1.37175e-07
2.24697e-06
4.95782e-08
1.97134e-06
-5.9137e-08
1.71699e-06
-1.71423e-07
1.4907e-06
-2.84833e-07
1.2817e-06
-4.00339e-07
1.08448e-06
-5.18768e-07
8.9848e-07
-6.40162e-07
7.25725e-07
-7.62889e-07
5.70128e-07
-8.81606e-07
4.36996e-07
-9.85486e-07
3.30708e-07
-1.06082e-06
2.49414e-07
-1.10121e-06
1.79694e-07
-1.11548e-06
1.00997e-07
-1.11939e-06
-2.81797e-10
-1.12948e-06
-1.27819e-07
-1.15958e-06
-2.76102e-07
-4.3244e-07
-1.21798e-06
9.66531e-08
3.12689e-06
1.60279e-07
3.12271e-06
1.88649e-07
2.98214e-06
1.92785e-07
2.77713e-06
1.72092e-07
2.54287e-06
1.24503e-07
2.29452e-06
5.08053e-08
2.045e-06
-3.98482e-08
1.80762e-06
-1.36816e-07
1.58766e-06
-2.36569e-07
1.38145e-06
-3.38618e-07
1.18654e-06
-4.42808e-07
1.00269e-06
-5.48401e-07
8.3135e-07
-6.53284e-07
6.75054e-07
-7.52944e-07
5.3671e-07
-8.40079e-07
4.17907e-07
-9.06711e-07
3.1612e-07
-9.49618e-07
2.22683e-07
-9.74089e-07
1.25558e-07
-9.90431e-07
1.61582e-08
-1.01007e-06
-1.0808e-07
-1.04257e-06
-2.43481e-07
-3.81512e-07
-1.09338e-06
8.90268e-08
3.03783e-06
1.40936e-07
3.07073e-06
1.67065e-07
2.95595e-06
1.71312e-07
2.77282e-06
1.53683e-07
2.56044e-06
1.13946e-07
2.33421e-06
5.39617e-08
2.10495e-06
-2.02851e-08
1.88184e-06
-1.02044e-07
1.6694e-06
-1.87963e-07
1.46736e-06
-2.7661e-07
1.27519e-06
-3.67049e-07
1.09315e-06
-4.58015e-07
9.22348e-07
-5.47311e-07
7.64395e-07
-6.3134e-07
6.20795e-07
-7.05224e-07
4.91858e-07
-7.64317e-07
3.7529e-07
-8.07066e-07
2.65518e-07
-8.3681e-07
1.55395e-07
-8.60207e-07
3.9656e-08
-8.84912e-07
-8.32673e-08
-9.1734e-07
-2.10939e-07
-3.37722e-07
-9.61005e-07
7.56114e-08
2.96218e-06
1.16702e-07
3.02957e-06
1.42919e-07
2.92967e-06
1.49577e-07
2.7661e-06
1.37125e-07
2.57284e-06
1.06284e-07
2.365e-06
5.90452e-08
2.15215e-06
-5.48911e-10
1.94141e-06
-6.80214e-08
1.73686e-06
-1.40457e-07
1.5398e-06
-2.16053e-07
1.3508e-06
-2.93408e-07
1.17053e-06
-3.70977e-07
9.99951e-07
-4.46671e-07
8.40134e-07
-5.17677e-07
6.91856e-07
-5.80706e-07
5.54954e-07
-6.32989e-07
4.27648e-07
-6.73786e-07
3.064e-07
-7.05254e-07
1.86956e-07
-7.31676e-07
6.61768e-08
-7.58035e-07
-5.68048e-08
-7.88525e-07
-1.8034e-07
-3.00759e-07
-8.25372e-07
5.78869e-08
2.90425e-06
9.68103e-08
2.99057e-06
1.22132e-07
2.90429e-06
1.31132e-07
2.75705e-06
1.2418e-07
2.57974e-06
1.02015e-07
2.38712e-06
6.62412e-08
2.18789e-06
1.95979e-08
1.98803e-06
-3.4842e-08
1.79128e-06
-9.46364e-08
1.59959e-06
-1.57931e-07
1.4141e-06
-2.23133e-07
1.23575e-06
-2.88601e-07
1.06545e-06
-3.52429e-07
9.04003e-07
-4.12398e-07
7.51876e-07
-4.66224e-07
6.08837e-07
-5.12168e-07
4.73658e-07
-5.49849e-07
3.44154e-07
-5.80644e-07
2.17831e-07
-6.0727e-07
9.28883e-08
-6.32903e-07
-3.10844e-08
-6.60206e-07
-1.52947e-07
-2.70334e-07
-6.90537e-07
4.15656e-08
2.86264e-06
8.22153e-08
2.94985e-06
1.05807e-07
2.88064e-06
1.16883e-07
2.74592e-06
1.15275e-07
2.5813e-06
1.01202e-07
2.40116e-06
7.56411e-08
2.21342e-06
4.03875e-08
2.02326e-06
-2.39258e-09
1.83405e-06
-5.06939e-08
1.64789e-06
-1.02751e-07
1.46616e-06
-1.56944e-07
1.28996e-06
-2.11651e-07
1.12018e-06
-2.65155e-07
9.57536e-07
-3.15665e-07
8.02421e-07
-3.61506e-07
6.5472e-07
-4.01496e-07
5.13697e-07
-4.35374e-07
3.78086e-07
-4.63979e-07
2.46494e-07
-4.8899e-07
1.1796e-07
-5.12376e-07
-7.6361e-09
-5.35772e-07
-1.29489e-07
-2.46086e-07
-5.59955e-07
2.89118e-08
2.83369e-06
6.8073e-08
2.91063e-06
9.17425e-08
2.85692e-06
1.05937e-07
2.73169e-06
1.10025e-07
2.57718e-06
1.03662e-07
2.40749e-06
8.72696e-08
2.22979e-06
6.20121e-08
2.0485e-06
2.94809e-08
1.86657e-06
-8.64214e-09
1.686e-06
-5.07291e-08
1.50825e-06
-9.52029e-08
1.33444e-06
-1.40512e-07
1.1655e-06
-1.85106e-07
1.00214e-06
-2.27485e-07
8.44819e-07
-2.6634e-07
6.93598e-07
-3.00779e-07
5.48163e-07
-3.30551e-07
4.07887e-07
-3.56111e-07
2.72086e-07
-3.78449e-07
1.40332e-07
-3.98739e-07
1.26875e-08
-4.17937e-07
-1.1026e-07
-2.27547e-07
-4.36444e-07
2.23441e-08
2.81131e-06
5.34056e-08
2.87953e-06
7.91331e-08
2.83117e-06
9.80076e-08
2.71279e-06
1.08388e-07
2.56678e-06
1.09453e-07
2.40641e-06
1.01284e-07
2.23794e-06
8.47023e-08
2.06506e-06
6.09849e-08
1.89027e-06
3.16078e-08
1.71537e-06
-1.90356e-09
1.54175e-06
-3.80435e-08
1.37057e-06
-7.53304e-08
1.20278e-06
-1.12347e-07
1.03916e-06
-1.4779e-07
8.80264e-07
-1.80566e-07
7.26378e-07
-2.0993e-07
5.77533e-07
-2.35594e-07
4.33559e-07
-2.57744e-07
2.94244e-07
-2.76915e-07
1.59511e-07
-2.93763e-07
2.95416e-08
-3.08803e-07
-9.52143e-08
-2.14144e-07
-3.22204e-07
1.87358e-08
2.79255e-06
4.12756e-08
2.85697e-06
6.9923e-08
2.8025e-06
9.43655e-08
2.68833e-06
1.11186e-07
2.54994e-06
1.19112e-07
2.39847e-06
1.18078e-07
2.23896e-06
1.08775e-07
2.07435e-06
9.23562e-08
1.90668e-06
7.02002e-08
1.73751e-06
4.37698e-08
1.56817e-06
1.45286e-08
1.3998e-06
-1.61146e-08
1.23342e-06
-4.68407e-08
1.06988e-06
-7.64742e-08
9.09887e-07
-1.04052e-07
7.53946e-07
-1.28903e-07
6.02372e-07
-1.50693e-07
4.55338e-07
-1.69424e-07
3.12964e-07
-1.85335e-07
1.75411e-07
-1.98753e-07
4.2946e-08
-2.09919e-07
-8.40632e-08
-2.05221e-07
-2.1886e-07
1.17596e-08
2.78078e-06
3.36998e-08
2.83503e-06
6.69997e-08
2.7692e-06
9.70968e-08
2.65823e-06
1.19736e-07
2.5273e-06
1.33453e-07
2.38475e-06
1.3817e-07
2.23424e-06
1.34584e-07
2.07793e-06
1.23834e-07
1.91742e-06
1.07288e-07
1.75405e-06
8.63896e-08
1.58906e-06
6.25715e-08
1.42361e-06
3.7195e-08
1.25878e-06
1.15058e-08
1.09555e-06
-1.34098e-08
9.34785e-07
-3.66718e-08
7.77189e-07
-5.76466e-08
6.23326e-07
-7.59693e-08
4.73639e-07
-9.15211e-08
3.28493e-07
-1.04359e-07
1.88224e-07
-1.14607e-07
5.31685e-08
-1.22344e-07
-7.63523e-08
-2.00071e-07
-1.27523e-07
7.38094e-09
2.77339e-06
3.5638e-08
2.80678e-06
7.34513e-08
2.73139e-06
1.08114e-07
2.62357e-06
1.35202e-07
2.50021e-06
1.53182e-07
2.36677e-06
1.61992e-07
2.22543e-06
1.6239e-07
2.07753e-06
1.5558e-07
1.92423e-06
1.42969e-07
1.76665e-06
1.26018e-07
1.606e-06
1.06148e-07
1.44347e-06
8.46821e-08
1.28023e-06
6.28095e-08
1.11741e-06
4.15489e-08
9.56025e-07
2.17214e-08
7.96993e-07
3.92843e-09
6.41094e-07
-1.14495e-08
4.88991e-07
-2.42272e-08
3.41243e-07
-3.43576e-08
1.98326e-07
-4.18539e-08
6.06342e-08
-4.67087e-08
-7.15289e-08
-1.97973e-07
-4.8841e-08
1.39518e-08
2.75945e-06
4.87668e-08
2.77198e-06
8.99534e-08
2.69021e-06
1.27845e-07
2.58569e-06
1.57927e-07
2.47014e-06
1.78539e-07
2.34616e-06
1.89675e-07
2.21429e-06
1.92244e-07
2.07496e-06
1.87594e-07
1.92887e-06
1.7723e-07
1.77701e-06
1.62654e-07
1.62057e-06
1.45288e-07
1.46082e-06
1.26424e-07
1.29908e-06
1.07199e-07
1.13661e-06
8.8571e-08
9.74632e-07
7.1308e-08
8.14233e-07
5.59773e-08
6.564e-07
4.29541e-08
5.01988e-07
3.24481e-08
3.51721e-07
2.45512e-08
2.06194e-07
1.92991e-08
6.58559e-08
1.6733e-08
-6.89933e-08
-1.98211e-07
1.69381e-08
2.81221e-08
2.73133e-06
6.90958e-08
2.73102e-06
1.14239e-07
2.64509e-06
1.55204e-07
2.54473e-06
1.87435e-07
2.43792e-06
2.09265e-07
2.32434e-06
2.21001e-07
2.20256e-06
2.23926e-07
2.07204e-06
2.1967e-07
1.93313e-06
2.09902e-07
1.78678e-06
1.96193e-07
1.63427e-06
1.79968e-07
1.47704e-06
1.62479e-07
1.31655e-06
1.44808e-07
1.15427e-06
1.27852e-07
9.91572e-07
1.12319e-07
8.29746e-07
9.87364e-08
6.69961e-07
8.74533e-08
5.13247e-07
7.86714e-08
3.60479e-07
7.24847e-08
2.12355e-07
6.8932e-08
6.9382e-08
6.80508e-08
-6.81388e-08
-2.00101e-07
6.99121e-08
4.29091e-08
2.68844e-06
9.27122e-08
2.68124e-06
1.43932e-07
2.59388e-06
1.89003e-07
2.49968e-06
2.23092e-07
2.40384e-06
2.44866e-07
2.30257e-06
2.55472e-07
2.19196e-06
2.56941e-07
2.07058e-06
2.51368e-07
1.9387e-06
2.40647e-07
1.7975e-06
2.26422e-07
1.64849e-06
2.10103e-07
1.49335e-06
1.92889e-07
1.33376e-06
1.75789e-07
1.17136e-06
1.59627e-07
1.00772e-06
1.45052e-07
8.44306e-07
1.32535e-07
6.82461e-07
1.22387e-07
5.23377e-07
1.14778e-07
3.68069e-07
1.0977e-07
2.17342e-07
1.07374e-07
7.17576e-08
1.07593e-07
-6.83793e-08
-2.03003e-07
1.10472e-07
5.66512e-08
2.6318e-06
1.1861e-07
2.6193e-06
1.78369e-07
2.53414e-06
2.28895e-07
2.44916e-06
2.6456e-07
2.36819e-06
2.84757e-07
2.28239e-06
2.92319e-07
2.18441e-06
2.90497e-07
2.07241e-06
2.81998e-07
1.94721e-06
2.68947e-07
1.81055e-06
2.53018e-07
1.66442e-06
2.35565e-07
1.5108e-06
2.17695e-07
1.35162e-06
2.00325e-07
1.18872e-06
1.84196e-07
1.02384e-06
1.69884e-07
8.58606e-07
1.57807e-07
6.94525e-07
1.48226e-07
5.32945e-07
1.41261e-07
3.75019e-07
1.36926e-07
2.21662e-07
1.35169e-07
7.34981e-08
1.35944e-07
-6.91691e-08
-2.06331e-07
1.39255e-07
7.45312e-08
2.55728e-06
1.48756e-07
2.54509e-06
2.18568e-07
2.46434e-06
2.75499e-07
2.39224e-06
3.11706e-07
2.33199e-06
3.28057e-07
2.26604e-06
3.30323e-07
2.18215e-06
3.23401e-07
2.07933e-06
3.1059e-07
1.96002e-06
2.94119e-07
1.82702e-06
2.75588e-07
1.68295e-06
2.56215e-07
1.53017e-06
2.36977e-07
1.37086e-06
2.18671e-07
1.20702e-06
2.01944e-07
1.04056e-06
1.87303e-07
8.7324e-07
1.75108e-07
7.06712e-07
1.65573e-07
5.42471e-07
1.58767e-07
3.81816e-07
1.54635e-07
2.25784e-07
1.5305e-07
7.50728e-08
1.53885e-07
-7.00143e-08
-2.09556e-07
1.571e-07
9.82501e-08
2.45904e-06
1.87445e-07
2.45591e-06
2.66843e-07
2.38495e-06
3.30565e-07
2.32853e-06
3.63714e-07
2.29885e-06
3.72849e-07
2.25691e-06
3.67444e-07
2.18756e-06
3.53951e-07
2.09283e-06
3.35907e-07
1.97807e-06
3.15379e-07
1.84755e-06
2.93734e-07
1.7046e-06
2.71977e-07
1.55193e-06
2.50909e-07
1.39192e-06
2.31195e-07
1.22674e-06
2.13385e-07
1.05837e-06
1.97922e-07
8.887e-07
1.85123e-07
7.19506e-07
1.75167e-07
5.52423e-07
1.68077e-07
3.88901e-07
1.63731e-07
2.30125e-07
1.61902e-07
7.68962e-08
1.6236e-07
-7.04784e-08
-2.12208e-07
1.65006e-07
1.42854e-07
2.31619e-06
2.49184e-07
2.34959e-06
3.36199e-07
2.29794e-06
3.90493e-07
2.27424e-06
4.16871e-07
2.27248e-06
4.15146e-07
2.25865e-06
4.00545e-07
2.20217e-06
3.80022e-07
2.11336e-06
3.5663e-07
2.00147e-06
3.32011e-07
1.87218e-06
3.07194e-07
1.72942e-06
2.82929e-07
1.57619e-06
2.59831e-07
1.41502e-06
2.38432e-07
1.24813e-06
2.19197e-07
1.0776e-06
2.02517e-07
9.05378e-07
1.8869e-07
7.33332e-07
1.77885e-07
5.63227e-07
1.70104e-07
3.9668e-07
1.65166e-07
2.35061e-07
1.62732e-07
7.9327e-08
1.62435e-07
-7.01833e-08
-2.13874e-07
1.64099e-07
2.27111e-07
2.08908e-06
3.54452e-07
2.22226e-06
4.29053e-07
2.22335e-06
4.57504e-07
2.2458e-06
4.64759e-07
2.26523e-06
4.50046e-07
2.27336e-06
4.26676e-07
2.22554e-06
3.99905e-07
2.14013e-06
3.71864e-07
2.02951e-06
3.43673e-07
1.90037e-06
3.1602e-07
1.75707e-06
2.89419e-07
1.6028e-06
2.64317e-07
1.44013e-06
2.4113e-07
1.27132e-06
2.20252e-07
1.09848e-06
2.02044e-07
9.23586e-07
1.86809e-07
7.48568e-07
1.74743e-07
5.75293e-07
1.65872e-07
4.05551e-07
1.59991e-07
2.40943e-07
1.56644e-07
8.26733e-08
1.55269e-07
-6.88077e-08
-2.14195e-07
1.5559e-07
3.49893e-07
1.7392e-06
4.99805e-07
2.07235e-06
5.35186e-07
2.18797e-06
5.32443e-07
2.24855e-06
5.0642e-07
2.29126e-06
4.77049e-07
2.30274e-06
4.4563e-07
2.25697e-06
4.13543e-07
2.17222e-06
3.81731e-07
2.06133e-06
3.50679e-07
1.93143e-06
3.20714e-07
1.78704e-06
2.92126e-07
1.63139e-06
2.65206e-07
1.46705e-06
2.40266e-07
1.29627e-06
2.17635e-07
1.12111e-06
1.97655e-07
9.43567e-07
1.80658e-07
7.65566e-07
1.66909e-07
5.89044e-07
1.56521e-07
4.15941e-07
1.49335e-07
2.48132e-07
1.44802e-07
8.72074e-08
1.42078e-07
-6.60811e-08
-2.1286e-07
1.40744e-07
4.87057e-07
1.25214e-06
6.50569e-07
1.90884e-06
6.4925e-07
2.1893e-06
6.02121e-07
2.29568e-06
5.45202e-07
2.34818e-06
4.99524e-07
2.34842e-06
4.59342e-07
2.29715e-06
4.22194e-07
2.20937e-06
3.87188e-07
2.09633e-06
3.53899e-07
1.96472e-06
3.22172e-07
1.81877e-06
2.92021e-07
1.66154e-06