/*--------------------------------*- C++ -*----------------------------------*\
  =========                 |
  \\      /  F ield         | OpenFOAM: The Open Source CFD Toolbox
   \\    /   O peration     | Website:  https://openfoam.org
    \\  /    A nd           | Version:  9
     \\/     M anipulation  |
\*---------------------------------------------------------------------------*/
FoamFile
{
    format      ascii;
    class       surfaceScalarField;
    location    "7.87";
    object      alphaPhi0.water;
}
// * * * * * * * * * * * * * * * * * * * * * * * * * * * * * * * * * * * * * //

dimensions      [0 3 -1 0 0 0 0];

internalField   nonuniform List<scalar> 
4432
(
3.56889e-08
-3.56888e-08
3.99334e-08
-4.23287e-09
2.94268e-08
1.04854e-08
1.8937e-08
1.04988e-08
1.37183e-08
5.20871e-09
1.6321e-08
-2.60088e-09
2.8701e-08
-1.23788e-08
5.0544e-08
-2.18397e-08
8.01488e-08
-2.95995e-08
1.18199e-07
-3.80448e-08
1.72855e-07
-5.46499e-08
2.56521e-07
-8.36586e-08
3.86085e-07
-1.29558e-07
5.66986e-07
-1.80895e-07
7.75649e-07
-2.08657e-07
9.30314e-07
-1.54661e-07
8.79307e-07
5.10122e-08
5.62017e-07
3.17294e-07
-1.08055e-08
5.72251e-07
-6.7941e-07
6.68073e-07
-9.29778e-07
2.49238e-07
-6.25233e-07
-3.04545e-07
-6.25435e-07
1.61399e-08
-5.18504e-08
1.83362e-08
-6.40702e-09
1.06489e-08
1.8145e-08
1.95334e-09
1.92037e-08
-3.48235e-09
1.06398e-08
-3.13019e-09
-2.94875e-09
3.88522e-09
-1.93877e-08
1.76013e-08
-3.55468e-08
3.85791e-08
-5.05652e-08
6.7854e-08
-6.73076e-08
1.09189e-07
-9.59737e-08
1.72731e-07
-1.47188e-07
2.68309e-07
-2.25126e-07
3.97619e-07
-3.10196e-07
5.39514e-07
-3.50542e-07
6.33402e-07
-2.48543e-07
5.80414e-07
1.04006e-07
3.41997e-07
5.55479e-07
1.48213e-08
8.9965e-07
-3.23962e-07
1.00633e-06
-5.52049e-07
4.77387e-07
-5.29606e-07
-3.26988e-07
-1.15504e-06
4.79526e-09
-5.66673e-08
5.71907e-09
-7.30768e-09
7.31979e-10
2.3113e-08
-6.56221e-09
2.65055e-08
-1.2281e-08
1.63587e-08
-1.42728e-08
-9.51011e-10
-1.12702e-08
-2.23825e-08
-2.23712e-09
-4.45701e-08
1.1687e-08
-6.44777e-08
3.12968e-08
-8.69044e-08
6.00688e-08
-1.24736e-07
1.05724e-07
-1.92832e-07
1.74072e-07
-2.93463e-07
2.6595e-07
-4.02067e-07
3.68503e-07
-4.53089e-07
4.38449e-07
-3.18489e-07
3.97778e-07
1.44665e-07
2.23822e-07
7.29367e-07
4.06077e-08
1.08338e-06
-1.20788e-07
1.16904e-06
-3.21129e-07
6.77729e-07
-3.811e-07
-2.67017e-07
-1.53614e-06
-1.42532e-09
-5.52604e-08
-3.69606e-09
-5.01456e-09
-7.92549e-09
2.73314e-08
-1.46966e-08
3.32846e-08
-2.10572e-08
2.27239e-08
-2.52607e-08
3.26167e-09
-2.58475e-08
-2.17853e-08
-2.15721e-08
-4.88329e-08
-1.34786e-08
-7.25589e-08
-1.95672e-09
-9.84118e-08
1.53737e-08
-1.42056e-07
4.30055e-08
-2.20452e-07
8.66732e-08
-3.37122e-07
1.47601e-07
-4.62988e-07
2.20087e-07
-5.2557e-07
2.82233e-07
-3.80617e-07
2.66836e-07
1.59825e-07
1.50229e-07
8.45989e-07
5.14775e-08
1.18218e-06
-1.88478e-08
1.24043e-06
-1.63113e-07
8.21973e-07
-2.25149e-07
-2.04955e-07
-1.76129e-06
-4.9989e-09
-5.02756e-08
-1.0129e-08
1.36828e-10
-1.55021e-08
3.27012e-08
-2.27305e-08
4.05236e-08
-3.00852e-08
3.00887e-08
-3.64132e-08
9.60436e-09
-4.02097e-08
-1.79742e-08
-3.98784e-08
-4.91468e-08
-3.69223e-08
-7.55e-08
-3.28982e-08
-1.02419e-07
-2.68517e-08
-1.4809e-07
-1.57591e-08
-2.31534e-07
4.41188e-09
-3.57284e-07
3.61738e-08
-4.94745e-07
8.12104e-08
-5.70607e-07
1.38055e-07
-4.37568e-07
1.58485e-07
1.38798e-07
9.42475e-08
9.10235e-07
5.44546e-08
1.22198e-06
3.66843e-08
1.25819e-06
-5.22265e-08
9.10847e-07
-5.17274e-08
-2.04838e-07
-1.81298e-06
-6.8488e-09
-4.34359e-08
-1.46227e-08
7.93143e-09
-2.16882e-08
3.97711e-08
-2.99218e-08
4.87728e-08
-3.83471e-08
3.85314e-08
-4.6576e-08
1.78561e-08
-5.31641e-08
-1.13641e-08
-5.59928e-08
-4.6293e-08
-5.72675e-08
-7.42046e-08
-5.99236e-08
-9.97414e-08
-6.43111e-08
-1.43686e-07
-6.87915e-08
-2.27041e-07
-7.02104e-08
-3.55857e-07
-6.5927e-08
-4.99025e-07
-5.10125e-08
-5.85524e-07
-9.50416e-09
-4.79111e-07
4.75576e-08
8.17039e-08
4.8003e-08
8.92409e-07
5.47127e-08
1.21526e-06
8.0147e-08
1.23275e-06
5.92905e-08
9.18158e-07
1.3907e-07
-2.84989e-07
-1.6734e-06
-7.51338e-09
-3.59267e-08
-1.73729e-08
1.78099e-08
-2.59976e-08
4.84041e-08
-3.52453e-08
5.80368e-08
-4.44387e-08
4.77435e-08
-5.41371e-08
2.75789e-08
-6.30937e-08
-2.38386e-09
-6.8376e-08
-4.09841e-08
-7.29677e-08
-6.95904e-08
-8.12191e-08
-9.1468e-08
-9.45007e-08
-1.30387e-07
-1.12483e-07
-2.09045e-07
-1.33066e-07
-3.35266e-07
-1.54565e-07
-4.77524e-07
-1.71131e-07
-5.68961e-07
-1.63308e-07
-4.86943e-07
-8.03538e-08
-1.18592e-10
-1.10576e-09
8.12747e-07
5.80866e-08
1.13924e-06
1.27754e-07
1.13646e-06
2.14213e-07
8.24026e-07
3.16404e-07
-3.8565e-07
-1.3568e-06
-1.03638e-08
-2.55622e-08
-1.86855e-08
2.61449e-08
-2.77717e-08
5.74981e-08
-3.75296e-08
6.78053e-08
-4.67616e-08
5.69863e-08
-5.72367e-08
3.80687e-08
-6.82332e-08
8.62633e-09
-7.56262e-08
-3.35753e-08
-8.29752e-08
-6.22277e-08
-9.56281e-08
-7.88017e-08
-1.15572e-07
-1.10432e-07
-1.43988e-07
-1.8062e-07
-1.79907e-07
-2.99341e-07
-2.22878e-07
-4.3455e-07
-2.67187e-07
-5.24651e-07
-2.94467e-07
-4.59663e-07
-2.33634e-07
-5.87124e-08
-6.97957e-08
6.59243e-07
6.01134e-08
1.00464e-06
1.89561e-07
1.00233e-06
3.97942e-07
6.27132e-07
3.89445e-07
-3.73924e-07
-9.67151e-07
-1.28987e-06
1.28071e-06
-6.67874e-07
-6.21379e-07
1.29888e-07
-7.98457e-07
6.83969e-07
-5.54821e-07
1.07222e-06
-3.89367e-07
1.31754e-06
-2.50225e-07
1.48175e-06
-1.6554e-07
1.67441e-06
-1.93983e-07
1.8178e-06
-1.44727e-07
1.68149e-06
1.34712e-07
1.21065e-06
4.70833e-07
3.76376e-07
8.34263e-07
-5.73851e-07
9.50006e-07
-1.06405e-06
4.90195e-07
-1.10642e-06
4.2377e-08
-8.25232e-07
-2.81191e-07
-5.61552e-07
-2.63673e-07
-8.68034e-08
-4.74741e-07
-8.692e-08
-6.96144e-07
1.97286e-06
-2.0534e-07
-1.1124e-06
2.61823e-07
-1.2656e-06
6.12933e-07
-9.05928e-07
8.47725e-07
-6.24175e-07
1.01648e-06
-4.18994e-07
1.17032e-06
-3.19402e-07
1.30184e-06
-3.25571e-07
1.33829e-06
-1.81241e-07
1.16469e-06
3.08243e-07
8.19229e-07
8.15987e-07
3.54367e-07
1.29912e-06
-1.53996e-07
1.4584e-06
-6.01929e-07
9.35311e-07
-7.94595e-07
2.35046e-07
-7.65883e-07
-3.09898e-07
-7.31886e-07
-2.97663e-07
-4.61996e-07
-7.43973e-07
-5.46934e-07
-9.08651e-08
2.0635e-06
1.49056e-07
-1.35149e-06
3.70466e-07
-1.48699e-06
5.61963e-07
-1.09744e-06
7.05222e-07
-7.6745e-07
8.14073e-07
-5.27867e-07
9.1424e-07
-4.19556e-07
9.95582e-07
-4.06906e-07
9.86972e-07
-1.72709e-07
7.914e-07
5.03697e-07
5.06476e-07
1.10063e-06
2.54581e-07
1.55727e-06
9.55268e-09
1.71077e-06
-3.28275e-07
1.27568e-06
-5.63199e-07
4.69978e-07
-6.53103e-07
-2.19986e-07
-8.18719e-07
-1.30659e-07
-7.33782e-07
-8.26248e-07
-1.28136e-06
4.04947e-07
1.65834e-06
4.09796e-07
-1.35418e-06
4.38967e-07
-1.51618e-06
5.08468e-07
-1.16698e-06
5.7727e-07
-8.36259e-07
6.32084e-07
-5.82706e-07
6.83921e-07
-4.71442e-07
7.27717e-07
-4.50721e-07
7.07744e-07
-1.52993e-07
5.34842e-07
6.76382e-07
3.15747e-07
1.31922e-06
1.71575e-07
1.70144e-06
6.40892e-08
1.8186e-06
-1.78281e-07
1.51904e-06
-3.74979e-07
6.6338e-07
-4.97064e-07
-9.79019e-08
-7.75436e-07
1.48179e-07
-7.87663e-07
-8.11365e-07
-2.07481e-06
6.68459e-07
9.98811e-07
5.48931e-07
-1.23387e-06
4.53488e-07
-1.42074e-06
4.36787e-07
-1.15029e-06
4.46467e-07
-8.45952e-07
4.53857e-07
-5.90114e-07
4.6249e-07
-4.80267e-07
4.76771e-07
-4.65235e-07
4.63867e-07
-1.40014e-07
3.36381e-07
8.0179e-07
1.83256e-07
1.47287e-06
1.12544e-07
1.77215e-06
6.94798e-08
1.86168e-06
-1.04393e-07
1.69292e-06
-2.04845e-07
7.6141e-07
-2.86243e-07
-1.58903e-08
-5.65649e-07
4.24413e-07
-6.25337e-07
-7.56085e-07
-2.70013e-06
6.70854e-07
3.28997e-07
5.53604e-07
-1.11664e-06
4.10353e-07
-1.2775e-06
3.40991e-07
-1.08095e-06
3.07203e-07
-8.12182e-07
2.74849e-07
-5.57867e-07
2.44101e-07
-4.49554e-07
2.31137e-07
-4.52269e-07
2.37115e-07
-1.46238e-07
1.68813e-07
8.65994e-07
7.96874e-08
1.56167e-06
6.38608e-08
1.78798e-06
6.79362e-08
1.85761e-06
-4.21792e-08
1.80305e-06
-5.29823e-08
7.6983e-07
-4.57478e-08
-2.25167e-08
-2.19426e-07
5.96446e-07
-3.30373e-07
-6.45129e-07
-3.0305e-06
5.51662e-07
-2.22664e-07
4.73685e-07
-1.03867e-06
3.21214e-07
-1.12503e-06
2.22027e-07
-9.8179e-07
1.57936e-07
-7.48133e-07
9.43357e-08
-4.9428e-07
2.86848e-08
-3.83923e-07
-1.40394e-08
-4.09551e-07
2.1104e-09
-1.62034e-07
2.58648e-08
8.39467e-07
-2.36855e-09
1.58991e-06
2.32642e-08
1.76235e-06
6.08116e-08
1.82007e-06
3.54354e-08
1.80927e-06
1.15914e-07
6.89633e-07
1.78959e-07
-8.55525e-08
1.3194e-07
6.4188e-07
2.22203e-08
-5.34583e-07
-3.00827e-06
4.63362e-07
-6.86029e-07
3.62058e-07
-9.37377e-07
2.02818e-07
-9.65795e-07
8.36552e-08
-8.62631e-07
-1.01732e-09
-6.63463e-07
-8.57357e-08
-4.09566e-07
-1.77752e-07
-2.91919e-07
-2.56582e-07
-3.30723e-07
-2.48719e-07
-1.65021e-07
-1.22948e-07
7.0522e-07
-7.09598e-08
1.49904e-06
3.37472e-10
1.66217e-06
6.25686e-08
1.73353e-06
1.60449e-07
1.66724e-06
3.20901e-07
5.36399e-07
3.53718e-07
-1.18229e-07
4.44582e-07
5.49431e-07
3.31383e-07
-4.17469e-07
-2.67687e-06
-1.42014e-08
-1.13568e-08
-3.38029e-08
4.57539e-08
-5.48822e-08
7.858e-08
-7.45414e-08
8.74649e-08
-8.96906e-08
7.21328e-08
-1.11002e-07
5.93772e-08
-1.39598e-07
3.72188e-08
-1.66964e-07
-6.212e-09
-1.91557e-07
-3.76115e-08
-2.28578e-07
-4.17652e-08
-2.8328e-07
-5.5674e-08
-3.65468e-07
-9.84305e-08
-4.74798e-07
-1.90008e-07
-6.15235e-07
-2.94108e-07
-7.70693e-07
-3.69185e-07
-8.89423e-07
-3.40923e-07
-8.12592e-07
-1.35457e-07
-3.84284e-07
2.34689e-07
1.09725e-07
5.13851e-07
6.14137e-07
5.12571e-07
1.0618e-06
1.8546e-07
8.98349e-07
-2.10433e-07
-3.66114e-07
2.97736e-07
-2.02454e-08
8.89919e-09
-1.37898e-08
3.9313e-08
-1.39893e-08
7.87998e-08
-1.54366e-08
8.89373e-08
-1.06902e-08
6.74131e-08
-2.35699e-08
7.22846e-08
-6.53035e-08
7.89784e-08
-1.15645e-07
4.41291e-08
-1.73655e-07
1.63324e-08
-2.2321e-07
6.99668e-09
-2.67702e-07
-7.53763e-09
-3.17617e-07
-3.69129e-08
-4.04434e-07
-7.81486e-08
-5.3733e-07
-1.2018e-07
-6.97011e-07
-1.53629e-07
-8.10656e-07
-1.64835e-07
-7.59457e-07
-1.37679e-07
-4.21668e-07
-7.89951e-08
1.29454e-07
-2.90625e-08
6.78095e-07
-3.05082e-08
9.71281e-07
-8.53805e-08
9.38337e-07
-1.26659e-07
-1.2806e-07
7.64722e-07
-6.51869e-09
7.49852e-10
8.98449e-09
1.58021e-10
3.35022e-08
6.33802e-10
6.05017e-08
5.80263e-10
6.13124e-08
1.11379e-09
6.90055e-08
5.71452e-10
8.21149e-08
1.8777e-10
6.7442e-08
0
3.01228e-08
0
1.52362e-08
0
1.9386e-08
-3.35833e-09
2.26632e-08
-4.6307e-10
6.25998e-09
-2.3268e-10
-3.43844e-08
-1.91258e-10
-9.13665e-08
-1.7148e-10
-1.39455e-07
-2.9295e-10
-1.33084e-07
-8.11359e-10
-4.31295e-08
-1.21185e-09
1.07439e-07
-8.4274e-10
2.49429e-07
-1.0008e-09
3.15751e-07
-8.01154e-10
3.08443e-07
-3.39142e-10
-2.68928e-11
2.58511e-07
-3.3758e-10
0
-1.56569e-09
0
-7.24736e-10
-1.5302e-09
1.50194e-11
-1.24604e-09
-8.72845e-10
0
-1.04445e-09
0
1.32244e-10
-2.55585e-09
2.5994e-10
-1.24185e-10
6.70045e-11
0
1.17828e-10
-2.82355e-11
2.92905e-10
-9.08702e-10
8.01618e-11
-1.09789e-10
7.00136e-11
-9.13772e-11
1.44732e-11
0
-2.83893e-11
0
-2.55313e-11
-1.97545e-10
4.24978e-12
-7.72896e-10
7.86763e-11
-1.2394e-09
1.27586e-10
-8.60639e-10
2.42351e-10
-1.10041e-09
3.53187e-10
-9.17431e-10
4.04946e-10
-4.10185e-10
0
3.51384e-10
-2.33909e-09
0
-4.36146e-09
0
-5.6736e-09
-2.66513e-09
-5.15684e-09
-9.31348e-10
-4.71691e-09
2.29542e-10
-8.41524e-09
-6.49046e-10
-9.492e-09
-1.54826e-10
-8.954e-09
-9.08267e-10
-8.84622e-09
-3.86187e-10
-6.74097e-09
-1.31357e-11
-5.5236e-09
-2.68062e-14
-3.50772e-09
-6.6711e-14
-9.8433e-10
-4.73348e-12
1.46636e-10
-9.62884e-11
3.74502e-10
-1.35807e-10
3.2033e-10
-7.35785e-11
1.02917e-10
-7.28176e-11
8.56527e-12
-1.26629e-10
-3.29685e-10
3.57228e-11
-5.90422e-10
-1.57318e-10
-8.55491e-10
-3.63528e-10
-8.44342e-10
-1.31605e-10
1.30085e-11
-8.0927e-10
-1.2219e-10
0
6.07085e-11
3.05826e-11
-1.52893e-10
-3.27427e-10
-5.90757e-10
0
-5.91799e-10
0
-2.67311e-12
-5.53157e-11
-1.56866e-10
-6.09268e-14
-3.04261e-10
-1.19391e-14
-1.15606e-10
-1.2264e-13
-8.71567e-14
-3.84423e-13
-8.95257e-14
-3.02861e-14
-1.06399e-13
-5.56177e-14
-2.88678e-13
-4.55718e-12
-3.05566e-13
-9.62979e-11
-2.16832e-13
-1.35726e-10
-6.38919e-12
-6.64347e-11
-1.31699e-10
0
-6.22416e-10
0
-6.96601e-10
0
-1.14745e-09
0
-1.03598e-09
-3.32749e-11
-1.17062e-09
-5.12643e-11
-1.63622e-10
-1.45133e-09
1.6478e-11
8.06514e-15
3.45558e-11
0
-1.37822e-12
0
-9.73156e-12
0
-4.7358e-13
0
-2.69541e-13
0
-7.73936e-14
3.0501e-13
-9.0093e-14
0
-1.01375e-13
-1.12443e-13
-1.07528e-13
-3.86089e-13
-7.90095e-14
-6.45845e-14
-1.05149e-13
-3.54617e-14
-8.53542e-11
-2.12027e-11
-2.70177e-10
-1.24888e-10
-1.96793e-10
-1.29056e-10
-1.70427e-10
-6.85898e-11
-5.6925e-11
5.22206e-12
-3.88042e-11
0
-1.36435e-11
0
-1.27319e-11
3.13349e-12
-2.9736e-10
2.61698e-14
-3.58368e-10
-8.16371e-16
-1.45567e-15
-3.67846e-10
1.63422e-14
0
1.93798e-14
3.16214e-15
-2.94528e-14
0
-1.2367e-12
0
-1.5052e-12
0
-3.60416e-12
1.90599e-12
-1.19375e-12
1.24709e-12
-4.92549e-13
3.18982e-13
-2.44252e-12
7.32843e-14
-2.2785e-12
-1.89059e-13
0
-7.47349e-14
0
-2.96228e-13
-1.73652e-10
-1.44592e-11
-2.1309e-10
-3.05059e-11
-2.74977e-10
-1.26464e-11
-1.71865e-10
-3.20432e-11
-1.12815e-10
-8.3487e-12
-7.02012e-11
3.14528e-12
-2.89605e-12
4.80886e-12
-3.55501e-14
3.42695e-15
-9.39288e-15
0
-1.02096e-14
0
-9.61463e-16
-1.07031e-14
2.60694e-16
4.83389e-15
2.91966e-17
6.23833e-15
-6.46158e-16
8.18189e-15
0
6.02675e-15
-1.86083e-12
0
-2.34262e-12
3.03515e-12
-2.60141e-12
2.14852e-12
-9.48184e-13
8.0068e-13
-5.31612e-12
4.25723e-13
-5.89011e-12
3.91715e-13
-1.48517e-12
-7.86075e-14
-1.16611e-11
-4.18637e-13
-6.59909e-12
-7.96243e-16
-5.15219e-14
-1.04223e-14
-1.2691e-11
-2.01978e-14
-5.30933e-11
-4.33869e-13
-5.69008e-11
-3.53937e-12
-4.90734e-12
7.44244e-14
-6.78365e-14
0
-4.47862e-14
1.12994e-14
-3.2553e-14
1.45979e-14
-1.00617e-14
4.97723e-15
-4.4017e-16
-1.05833e-14
-2.98983e-16
7.47006e-15
-5.79082e-16
6.24614e-15
-1.37402e-15
8.7038e-15
-2.22624e-15
6.59926e-15
-2.90311e-13
7.08496e-16
-1.73937e-12
6.66102e-13
-8.84358e-13
1.94425e-12
0
0
-4.85859e-12
9.18406e-13
-5.39465e-12
9.34554e-13
-5.66439e-12
1.97911e-13
-1.47806e-15
-1.13146e-16
-1.65172e-15
-4.86643e-16
-1.02915e-14
-1.64065e-15
-1.16745e-14
-3.201e-14
-2.20664e-14
-4.36766e-13
-3.31632e-12
-2.54412e-13
-8.34703e-13
0
-1.02314e-13
4.80289e-14
-6.9598e-14
9.23605e-15
-7.81942e-14
1.13079e-14
-3.38316e-14
1.70635e-14
3.8469e-16
-1.14608e-16
-1.48621e-15
1.06222e-14
-2.09418e-14
2.57127e-13
-1.66039e-14
2.84494e-13
-8.93248e-16
2.68148e-14
-3.32526e-15
1.25748e-15
-2.26209e-13
6.96841e-16
-6.36512e-15
5.25987e-14
0
4.59628e-14
-3.27555e-12
1.03983e-12
-3.55564e-12
1.22144e-12
-1.50543e-15
2.35499e-13
-1.53163e-15
3.722e-17
-1.73864e-15
-1.75826e-16
-2.56945e-15
-6.99354e-16
-1.31452e-12
-1.65875e-13
-2.63784e-12
-1.62888e-12
-4.92016e-13
-2.03539e-12
-8.75545e-14
-7.89332e-15
-6.90205e-14
7.7021e-15
-1.0456e-13
1.26492e-14
-1.00855e-13
2.24808e-14
-6.39297e-14
1.16514e-14
1.23247e-15
0
-9.65247e-15
1.5487e-14
-2.62156e-14
2.97705e-13
-1.77758e-14
3.00095e-13
-3.9254e-16
5.97297e-14
-3.19254e-16
1.15436e-15
-4.22553e-16
7.67767e-16
-1.65462e-16
5.14778e-14
-4.13522e-13
4.60597e-13
-1.2948e-12
1.48622e-12
-1.62655e-12
7.4811e-13
-1.43122e-15
6.79907e-14
-1.4807e-15
1.90512e-16
-1.60514e-15
2.2667e-17
-2.04636e-15
-1.70345e-16
-5.32628e-12
-1.5734e-13
-1.55452e-11
-2.22082e-12
-1.5496e-11
-1.8606e-12
-5.04163e-14
-1.30597e-13
-4.72366e-14
4.50233e-15
-3.97334e-14
5.19875e-15
-6.32293e-14
8.08717e-15
-1.75393e-14
3.99827e-15
4.10614e-16
-1.00647e-14
-4.87026e-15
1.01453e-14
-1.98261e-14
1.77456e-13
-6.1625e-15
3.10473e-13
-1.67093e-16
5.38788e-14
-2.27906e-16
1.18796e-15
-6.00987e-16
1.11329e-15
-3.73937e-13
9.09349e-13
-1.10402e-12
2.05392e-12
-1.03041e-12
1.8339e-12
-7.01933e-14
3.3532e-13
-1.72972e-15
4.11637e-16
-9.98871e-16
3.50781e-16
-1.06789e-15
1.91938e-16
0
6.39132e-17
-5.07347e-12
-1.87413e-15
-1.54925e-11
-5.67683e-13
-1.63104e-11
-8.18648e-13
-1.61937e-11
-2.33431e-14
-1.84712e-14
8.6008e-13
-1.89546e-14
2.38056e-15
-1.64814e-14
2.28767e-15
-1.53337e-14
2.37459e-15
1.64491e-16
-8.26743e-15
-6.41953e-17
3.60782e-15
-8.02741e-15
0
-8.31624e-15
8.28626e-14
-2.24456e-16
1.25599e-14
-2.85115e-16
1.22147e-15
-1.78852e-14
1.93362e-15
-8.36817e-13
1.70035e-12
-1.0464e-12
2.65007e-12
-3.36237e-13
1.52804e-12
-1.48791e-15
1.07859e-15
-9.6434e-16
7.28295e-16
-1.07826e-15
5.91047e-16
-3.19664e-16
3.29284e-16
0
4.0424e-17
0
6.54454e-18
-4.56152e-12
0
-1.22855e-11
-1.57025e-14
-1.22495e-11
2.51003e-13
-2.48048e-14
7.45402e-14
-2.76401e-14
1.88967e-15
-2.88829e-14
4.32551e-15
-2.72137e-14
3.01583e-15
-6.22484e-16
-9.1383e-15
-6.13551e-18
2.95795e-15
-3.35289e-16
1.25258e-15
-2.25854e-16
1.15959e-15
-8.42795e-17
9.85269e-16
-1.56602e-16
1.26207e-15
-8.32376e-15
1.89298e-15
-6.83954e-13
1.04413e-12
-4.59666e-13
2.81235e-12
-2.31997e-15
1.15358e-13
-1.09161e-15
3.78e-16
-9.93981e-16
8.98519e-16
-7.48956e-16
8.42701e-16
-2.01923e-16
3.99708e-16
-9.6131e-17
3.95261e-17
-1.19201e-16
2.44081e-17
-7.61867e-14
5.80984e-18
-7.27391e-13
3.54586e-17
-3.12647e-13
0
-3.28378e-14
0
-4.15753e-14
1.71001e-15
-3.49435e-14
3.85412e-15
-1.85586e-14
1.8633e-15
-5.36109e-16
-5.98276e-15
4.64766e-20
2.57091e-15
-6.63161e-18
8.72234e-16
-1.77579e-17
7.83722e-16
-3.02824e-17
8.08384e-16
0
3.26256e-15
-1.00735e-14
3.01135e-14
-1.45901e-13
0
-3.36254e-14
1.77315e-16
-1.1736e-15
0
-6.68563e-16
4.16438e-16
-8.16172e-16
1.00808e-15
-5.66874e-16
8.29271e-16
-1.02986e-16
1.68469e-16
-8.77094e-17
3.86043e-17
-9.86136e-17
3.23255e-17
-1.18095e-16
2.22683e-17
-1.40026e-16
3.686e-18
-1.61804e-16
7.66812e-19
-3.8199e-15
1.13645e-17
-3.11605e-14
1.46376e-15
-2.85639e-14
2.97281e-15
-1.0992e-14
4.09864e-16
-3.27915e-16
-2.49385e-15
2.10738e-16
4.92641e-13
2.97257e-17
6.13372e-13
-9.361e-18
3.24848e-15
-2.20998e-16
8.15722e-16
-1.83935e-15
8.59121e-15
-1.20872e-16
3.39954e-14
-1.14135e-16
0
-8.58625e-18
5.23164e-17
-6.19204e-17
1.88738e-17
-3.78065e-16
3.14877e-16
-4.33679e-16
5.2007e-16
-1.42373e-16
2.77044e-16
-5.13515e-17
3.54045e-17
-7.23758e-17
2.82115e-17
-9.00129e-17
4.06114e-17
-9.41282e-17
3.41505e-17
-9.28061e-17
2.55634e-17
-1.05623e-16
1.93718e-17
-7.87246e-16
3.69386e-17
-2.64667e-15
1.52419e-17
-2.45925e-15
0
-1.81654e-15
-1.81687e-18
-5.88547e-17
-2.04311e-15
2.3361e-15
8.62422e-13
6.9965e-16
7.58789e-13
-2.55317e-17
3.65485e-15
-8.38355e-17
1.3514e-15
-7.00897e-16
8.13973e-15
-1.17995e-16
5.16596e-15
-5.10222e-18
5.34651e-17
-4.83905e-18
2.80239e-17
-2.84338e-17
1.86755e-17
-9.05531e-17
6.66786e-17
-7.78748e-17
6.78911e-17
-1.09189e-17
1.78514e-17
-1.51266e-17
2.22269e-18
-4.22219e-17
1.22337e-17
-6.68217e-17
2.92009e-17
-7.77279e-17
3.30919e-17
-8.11698e-17
2.95748e-17
-7.24038e-17
2.16559e-17
-4.76058e-17
7.21041e-18
-7.07819e-18
2.04601e-18
-9.95325e-18
5.10554e-19
-1.81381e-16
-1.49631e-19
-9.30639e-19
-1.91276e-16
3.42697e-15
8.59705e-13
-1.27253e-16
3.26562e-13
-2.14458e-17
8.48418e-16
-1.1676e-16
1.36168e-15
-1.09839e-16
3.73582e-15
-6.25674e-18
7.5055e-17
-4.00237e-18
3.14439e-17
-2.09671e-18
3.13983e-17
-4.4491e-18
7.07752e-18
-5.4337e-18
2.4406e-18
-2.27442e-18
1.15352e-18
-2.81726e-19
3.17805e-18
-1.25873e-18
4.89901e-19
-1.15695e-17
1.22119e-18
-2.6791e-17
6.85798e-18
-3.27132e-17
1.06335e-17
-3.33364e-17
9.33651e-18
-2.53703e-17
5.9566e-18
-1.46186e-17
2.52232e-18
-7.61736e-18
9.15041e-19
-3.84839e-18
4.695e-19
-2.28941e-18
-2.60571e-20
-9.00319e-20
-4.88542e-19
1.51504e-16
8.60261e-13
-3.35967e-16
5.24691e-14
-1.05713e-17
2.05434e-16
-3.77412e-17
8.27163e-16
-3.83853e-18
6.55247e-16
-1.94225e-18
1.44625e-17
-2.51652e-18
2.34838e-17
-5.16776e-19
2.16599e-17
-9.68373e-20
2.21337e-18
-6.07876e-20
3.50625e-19
6.42758e-20
1.31081e-19
2.06851e-19
-1.87085e-19
-1.12229e-19
-4.53133e-19
-6.14229e-19
1.85843e-19
-3.1376e-18
1.63914e-18
-3.70462e-18
4.63862e-19
-3.39189e-18
3.8818e-19
-2.16838e-18
1.79867e-19
-1.29369e-18
6.94738e-20
-8.35858e-19
2.88004e-20
-4.19011e-19
9.34278e-21
-2.54624e-19
2.17444e-23
1.78268e-22
-2.41065e-19
-1.8929e-15
8.64646e-13
-9.57878e-17
9.86368e-14
-6.32826e-18
1.84346e-16
-7.46853e-18
2.41822e-16
-4.714e-19
9.57784e-17
-7.25731e-19
1.13479e-17
-9.10272e-19
7.46116e-18
8.80261e-21
3.67685e-18
1.75354e-19
-8.28935e-20
2.73873e-19
-1.18597e-18
3.88707e-19
-1.36399e-18
4.14044e-19
-1.45037e-18
2.74677e-19
-1.16954e-18
2.32474e-20
-5.90302e-19
-4.17792e-20
-3.80378e-20
-4.82278e-20
5.187e-20
-3.50451e-20
4.56475e-20
-1.54998e-20
1.79116e-20
-7.58214e-21
5.50861e-21
-3.47292e-21
1.65424e-21
4.32185e-22
2.6455e-22
7.63675e-22
1.85386e-21
5.50614e-21
-9.52066e-22
-6.40069e-15
8.71048e-13
-9.35858e-16
8.10813e-13
-3.37377e-18
1.74264e-16
-2.0775e-18
9.06351e-17
-5.51266e-19
7.94022e-17
-1.47307e-19
1.1329e-17
-8.68407e-20
4.33763e-19
1.04093e-19
6.36804e-19
2.30714e-19
-1.25344e-18
3.18377e-19
-2.02171e-18
3.79173e-19
-2.06877e-18
3.84476e-19
-1.85348e-18
3.26334e-19
-1.4275e-18
2.37491e-19
-9.25051e-19
1.64135e-19
-5.14481e-19
1.28934e-19
-2.70722e-19
1.08687e-19
-1.60208e-19
8.97031e-20
-9.93894e-20
6.94997e-20
-5.73777e-20
4.92416e-20
-2.75949e-20
3.2252e-20
-8.39375e-21
1.97593e-20
1.3685e-21
4.52789e-21
1.13301e-20
-8.08287e-15
8.7913e-13
-4.57721e-15
9.04268e-13
-4.41836e-18
4.01096e-16
-1.56369e-18
8.70426e-17
-5.2655e-19
8.14143e-17
-1.60336e-20
1.18436e-17
9.67789e-21
1.31005e-19
9.15057e-20
-2.14681e-19
1.67481e-19
-1.48055e-18
2.2093e-19
-1.99251e-18
2.50533e-19
-1.95567e-18
2.50927e-19
-1.66886e-18
2.24655e-19
-1.26888e-18
1.84823e-19
-8.6706e-19
1.44654e-19
-5.45251e-19
1.13191e-19
-3.25054e-19
8.75655e-20
-1.91598e-19
6.53412e-20
-1.08928e-19
4.67133e-20
-5.66848e-20
3.2012e-20
-2.50863e-20
2.095e-20
-7.45171e-21
1.30045e-20
6.81356e-22
2.48199e-21
7.68392e-21
-8.5332e-15
8.87663e-13
-1.85091e-16
8.9592e-13
-4.29174e-18
3.05184e-16
-1.7533e-18
1.11139e-16
-4.80358e-19
1.18729e-16
-2.8247e-20
1.49049e-17
1.63154e-21
9.68336e-19
3.55981e-20
-5.27045e-20
7.20621e-20
-8.5557e-19
1.01032e-19
-1.27615e-18
1.18232e-19
-1.32306e-18
1.21437e-19
-1.15483e-18
1.12177e-19
-8.92657e-19
9.55452e-20
-6.24826e-19
7.6641e-20
-4.04563e-19
5.89917e-20
-2.46193e-19
4.33963e-20
-1.42299e-19
3.03899e-20
-7.67073e-20
2.04072e-20
-3.73512e-20
1.33696e-20
-1.54915e-20
8.55971e-21
-4.41663e-21
5.29043e-21
2.90522e-22
1.0948e-21
3.09471e-21
-7.34304e-15
8.95005e-13
-1.81722e-16
2.98588e-13
-4.57272e-18
1.23569e-16
-2.31224e-18
2.39985e-16
-4.50559e-19
2.06127e-16
-6.6713e-20
2.5339e-17
-4.75993e-20
6.17499e-18
-2.87306e-20
4.12162e-18
3.5678e-21
2.10056e-18
1.83684e-20
-1.17193e-19
3.17059e-20
-4.28513e-19
3.94966e-20
-5.31047e-19
4.03194e-20
-4.82234e-19
3.6102e-20
-3.63818e-19
2.9554e-20
-2.43044e-19
2.26467e-20
-1.48905e-19
1.61617e-20
-8.48662e-20
1.07851e-20
-4.40867e-20
6.81053e-21
-2.03639e-20
4.17939e-21
-7.91746e-21
2.53944e-21
-2.10628e-21
1.52912e-21
1.17436e-22
4.09036e-22
8.93065e-22
-4.258e-15
2.38305e-13
-2.31192e-18
2.9206e-16
-5.91624e-18
1.22685e-16
-2.70668e-18
5.36015e-16
-2.3008e-19
3.29896e-16
-2.18592e-20
4.83263e-17
-6.15787e-21
2.11314e-17
-1.53854e-20
1.73525e-17
-2.71929e-20
1.20614e-17
-2.40362e-20
6.58716e-18
-8.24459e-21
2.62082e-18
4.38685e-21
6.6434e-19
8.30689e-21
-1.2996e-19
8.97354e-21
-1.63706e-19
7.85503e-21
-1.23019e-19
6.20879e-21
-7.69233e-20
4.40166e-21
-4.38749e-20
2.83287e-21
-2.22286e-20
1.67999e-21
-9.80722e-21
9.46748e-22
-3.5671e-21
5.24497e-22
-8.64013e-22
2.92201e-22
4.75826e-23
1.36825e-22
1.69901e-22
-2.60451e-17
2.51282e-16
-3.95321e-18
2.69238e-16
-3.32439e-18
4.67829e-16
7.28827e-19
6.52121e-16
1.68974e-18
3.93175e-16
4.86797e-19
8.43731e-17
5.14793e-19
4.95637e-17
5.01684e-19
4.26432e-17
3.41017e-19
3.17598e-17
1.65404e-19
1.9641e-17
5.11883e-20
9.41008e-18
7.37065e-21
3.19283e-18
5.73203e-22
5.62438e-19
3.84354e-22
-3.59828e-20
6.75034e-22
-5.27768e-20
7.008e-22
-3.49972e-20
5.51673e-22
-2.03218e-20
3.5767e-22
-1.01428e-20
1.98322e-22
-4.30304e-21
9.70817e-23
-1.46932e-21
4.33124e-23
-3.19835e-22
1.75409e-23
1.94207e-23
4.4933e-23
7.01382e-24
-1.46713e-18
2.54302e-16
-1.40883e-18
2.69577e-16
2.42996e-18
6.1277e-16
8.22674e-18
6.80747e-16
5.14916e-18
3.91619e-16
2.10475e-18
1.23347e-16
2.16116e-18
8.87095e-17
2.13201e-18
7.71706e-17
1.60039e-18
5.83973e-17
9.68714e-19
3.82918e-17
4.07726e-19
1.93489e-17
1.04504e-19
6.71156e-18
1.05796e-20
1.26854e-18
1.60157e-21
5.89872e-20
-7.77565e-22
-1.7841e-20
-6.61969e-22
-1.43243e-20
-4.54242e-22
-8.62716e-21
-2.84776e-22
-4.2721e-21
-1.69966e-22
-1.74757e-21
-9.78066e-23
-5.60788e-22
-5.47751e-23
-1.08958e-22
-3.0839e-23
7.93088e-24
1.51829e-23
-1.78052e-23
-2.12201e-19
2.56815e-16
1.50663e-18
2.67813e-16
9.73798e-18
6.0445e-16
1.6164e-17
6.11907e-16
8.54523e-18
3.34908e-16
5.17937e-18
1.42847e-16
5.35732e-18
1.23632e-16
5.26262e-18
1.11685e-16
3.99703e-18
8.61477e-17
2.59371e-18
5.81301e-17
1.1594e-18
3.01464e-17
2.89461e-19
9.9749e-18
2.56092e-20
1.50052e-18
5.83218e-21
6.83479e-20
-2.78641e-22
-2.9491e-21
-5.80864e-22
-5.33793e-21
-4.51932e-22
-3.41774e-21
-2.91136e-22
-1.6845e-21
-1.66625e-22
-6.64241e-22
-8.72184e-23
-1.99982e-22
-4.3261e-23
-3.46012e-23
-2.17239e-23
3.044e-24
4.88844e-24
-1.12323e-23
1.04949e-18
2.58065e-16
3.19944e-18
2.11206e-16
1.21638e-17
3.57345e-16
1.62027e-17
2.94519e-16
9.91389e-18
1.94967e-16
8.80379e-18
1.4299e-16
9.41298e-18
1.34867e-16
9.68036e-18
1.2937e-16
7.40718e-18
1.07175e-16
4.82577e-18
7.36604e-17
2.16621e-18
3.82043e-17
4.71897e-19
1.1522e-17
3.13155e-20
1.51624e-18
2.9816e-21
5.54516e-20
5.96669e-25
3.18977e-23
-2.98966e-22
-1.86273e-21
-2.53849e-22
-1.28551e-21
-1.6343e-22
-6.28949e-22
-8.99746e-23
-2.3803e-22
-4.43937e-23
-6.72249e-23
-2.05889e-23
-1.02642e-23
-9.6709e-24
1.08205e-24
1.48873e-24
-4.7114e-24
2.95198e-18
4.15656e-16
3.81013e-18
1.75009e-16
7.28688e-18
1.7636e-16
8.72442e-18
2.67374e-16
1.08459e-17
1.48661e-16
1.17798e-17
1.40273e-16
1.25437e-17
1.34708e-16
1.29735e-17
1.30539e-16
1.10669e-17
1.14138e-16
7.08511e-18
8.02746e-17
3.0305e-18
4.07365e-17
5.71306e-19
1.16988e-17
3.02174e-20
1.31318e-18
1.81026e-22
2.60334e-20
8.42382e-24
4.6435e-23
-1.29143e-22
-6.40203e-22
-1.16281e-22
-4.67059e-22
-7.3858e-23
-2.24939e-22
-3.89086e-23
-8.12096e-23
-1.8118e-23
-2.14105e-23
-7.8785e-24
-2.8309e-24
-3.49527e-24
3.4907e-25
4.12714e-25
-1.62146e-24
1.53344e-17
1.49611e-15
5.32337e-18
1.81792e-16
8.68801e-18
1.69947e-16
1.15825e-17
2.61419e-16
1.33943e-17
1.43801e-16
1.43125e-17
1.36372e-16
1.49763e-17
1.30973e-16
1.56746e-17
1.30654e-16
1.36558e-17
1.14717e-16
8.69703e-18
8.10679e-17
3.54921e-18
4.09956e-17
5.98433e-19
1.10448e-17
1.95741e-20
8.53675e-19
4.75601e-23
8.0118e-21
3.77552e-24
8.00091e-24
-5.16013e-23
-2.21613e-22
-4.77623e-23
-1.66336e-22
-2.9477e-23
-7.78363e-23
-1.47125e-23
-2.65547e-23
-6.41464e-24
-6.47463e-24
-2.58944e-24
-7.23983e-25
-1.07985e-24
9.96113e-26
1.01511e-25
-4.6977e-25
3.7562e-17
1.68627e-15
4.92214e-16
5.53296e-14
1.28867e-17
6.46046e-16
4.50617e-14
2.07939e-12
2.88438e-17
4.51736e-14
1.73041e-17
1.44997e-16
1.73306e-17
1.28718e-16
1.81189e-17
1.29256e-16
1.56289e-17
1.13934e-16
9.78578e-18
8.02629e-17
3.7326e-18
3.86456e-17
4.82652e-19
8.4777e-18
8.30082e-21
4.0812e-19
8.36665e-24
1.92874e-21
7.60695e-25
7.59622e-25
-1.9983e-23
-7.85908e-23
-1.83338e-23
-5.86709e-23
-1.07854e-23
-2.62206e-23
-5.02495e-24
-8.33885e-24
-2.01682e-24
-1.85027e-24
-7.40499e-25
-1.70224e-25
-2.85903e-25
2.4739e-26
2.17089e-26
-1.14801e-25
2.934e-16
1.62065e-15
9.44001e-14
3.69656e-13
2.93513e-13
2.28977e-12
1.7377e-13
2.26049e-12
0
1.85308e-12
2.4068e-17
2.3611e-14
1.79703e-17
1.3261e-16
1.98214e-17
1.23653e-16
1.69252e-17
1.09069e-16
1.00383e-17
7.411e-17
3.22935e-18
3.125e-17
2.74074e-19
4.96291e-18
2.36779e-21
1.38721e-19
1.08004e-24
3.3398e-22
1.03689e-25
5.8464e-26
-7.68267e-24
-2.88201e-23
-6.70736e-24
-2.05942e-23
-3.67416e-24
-8.60581e-24
-1.56633e-24
-2.5061e-24
-5.65113e-25
-4.95475e-25
-1.84433e-25
-3.67512e-26
-6.46277e-26
5.23355e-27
3.93848e-27
-2.35125e-26
3.3598e-16
1.51168e-15
1.11265e-13
4.13799e-13
3.37008e-13
2.06499e-12
3.66254e-13
2.23215e-12
1.37054e-13
1.57096e-12
2.24627e-17
5.95632e-14
1.32777e-17
1.41114e-16
2.00687e-17
1.16298e-16
1.69892e-17
9.96026e-17
8.93389e-18
6.1618e-17
2.15943e-18
2.07916e-17
1.04844e-19
2.12096e-18
4.17834e-22
3.00641e-20
8.29757e-26
3.22365e-23
1.01734e-26
4.32782e-26
-2.97812e-24
-1.10049e-23
-2.35724e-24
-7.19071e-24
-1.1704e-24
-2.7426e-24
-4.45752e-25
-7.16196e-25
-1.40579e-25
-1.23243e-25
-3.95856e-26
-7.27389e-27
-1.22735e-26
9.2345e-28
5.89796e-28
-3.96507e-27
3.9524e-16
1.34222e-15
1.3555e-13
9.47289e-14
4.35073e-13
1.76639e-12
4.42788e-13
2.22537e-12
4.52369e-14
4.26032e-13
4.02656e-18
1.05126e-14
1.79483e-17
1.25568e-16
2.06545e-17
1.11986e-16
1.52635e-17
8.60287e-17
6.59002e-18
4.4714e-17
1.05193e-18
1.07955e-17
2.46611e-20
5.96862e-19
3.82043e-23
3.4569e-21
3.11943e-24
1.4983e-24
-2.99225e-25
-1.27217e-24
-1.17136e-24
-4.37746e-24
-7.96914e-25
-2.48762e-24
-3.48861e-25
-8.45495e-25
-1.15559e-25
-1.93575e-25
-3.08764e-26
-2.82786e-26
-7.23017e-27
-1.32339e-27
-1.92053e-27
1.33283e-28
7.0753e-29
-5.37058e-28
2.71029e-15
2.40738e-15
5.0426e-14
5.00096e-15
2.42038e-13
0
2.19298e-13
7.17239e-14
0
0
0
3.43945e-16
2.29394e-17
1.37649e-16
1.97855e-17
1.08697e-16
1.1633e-17
6.68083e-17
3.77101e-18
2.6393e-17
3.32864e-19
3.85924e-18
3.00832e-21
9.0894e-20
1.49838e-24
1.71868e-22
1.57363e-25
3.54975e-26
-3.04126e-25
-1.31644e-24
-4.54498e-25
-1.75477e-24
-2.59352e-25
-8.49645e-25
-9.75853e-26
-2.52122e-25
-2.73232e-26
-4.94774e-26
-5.97749e-27
-5.98063e-27
-1.11443e-27
-2.22888e-28
-2.42585e-28
1.54492e-29
6.56729e-30
-5.66406e-29
1.28715e-15
3.19515e-15
8.90166e-16
2.33743e-15
8.31319e-16
1.12077e-16
1.12569e-15
0
8.67339e-17
8.96895e-17
5.93074e-17
3.38541e-16
2.96414e-17
2.05112e-16
1.57622e-17
1.02867e-16
7.00219e-18
4.38604e-17
1.45515e-18
1.10659e-17
5.52086e-20
7.5125e-19
1.50372e-22
5.67986e-21
2.28381e-26
3.25894e-24
4.22933e-27
2.01441e-26
-1.74917e-25
-7.81241e-25
-1.72279e-25
-6.98375e-25
-8.17685e-26
-2.87021e-25
-2.5839e-26
-7.3139e-26
-5.93857e-27
-1.20498e-26
-1.02576e-27
-1.17557e-27
-1.44465e-28
-3.49565e-29
-2.41909e-29
1.43123e-30
4.54177e-31
-4.46835e-30
1.52572e-15
1.21199e-15
1.22019e-15
3.32149e-15
3.77808e-16
2.01239e-15
1.46223e-16
7.58185e-16
1.03071e-16
5.08714e-16
7.75662e-17
4.19921e-16
3.13367e-17
2.13516e-16
1.11809e-17