/*--------------------------------*- C++ -*----------------------------------*\
  =========                 |
  \\      /  F ield         | OpenFOAM: The Open Source CFD Toolbox
   \\    /   O peration     | Website:  https://openfoam.org
    \\  /    A nd           | Version:  9
     \\/     M anipulation  |
\*---------------------------------------------------------------------------*/
FoamFile
{
    format      ascii;
    class       volVectorField;
    location    "11.15";
    object      U;
}
// * * * * * * * * * * * * * * * * * * * * * * * * * * * * * * * * * * * * * //

dimensions      [0 1 -1 0 0 0 0];

internalField   nonuniform List<vector> 
918
(
(2.47629 -0.138941 0)
(0.108704 0.722546 0)
(0.176804 1.13009 0)
(2.31834 0.153729 0)
(-0.0560985 1.23676 -1.20687e-19)
(-0.0924034 0.643931 -5.33829e-18)
(0.521765 0.839876 -3.06147e-19)
(0.284283 0.158302 -3.00456e-20)
(3.00616 -0.0195727 0)
(-0.010043 0.489406 0)
(-0.0191677 0.614743 0)
(0.607623 0.00642346 0)
(0.0107054 0.439105 0)
(-0.00289653 0.421715 0)
(0.0146682 0.345513 -1.31619e-18)
(-0.00476433 0.744824 -9.21411e-20)
(0.320718 0.0757771 2.15791e-18)
(0.0782212 0.649576 -2.29783e-19)
(1.52891 0.128603 0)
(-0.0292058 0.724482 0)
(0.201738 0.162893 -1.27549e-18)
(3.08302 -0.39739 0)
(2.92444 -0.506 0)
(1.86114 -0.181113 0)
(0.516091 0.0399009 0)
(-0.0252514 0.5215 0)
(-0.00135357 0.494037 1.87252e-18)
(-0.0225403 1.48612 0)
(0.082731 3.01056 0)
(0.174442 1.84036 0)
(-0.0338758 3.0698 0)
(0.0285217 1.59247 9.27901e-20)
(0.0228225 0.666859 0)
(-0.147425 0.775094 -2.04069e-22)
(-0.193914 1.0291 4.44159e-18)
(-0.0415772 1.04471 0)
(0.743931 -0.00608534 0)
(0.166298 0.254088 6.69358e-19)
(0.97686 1.49248 6.72065e-19)
(0.638387 0.772508 -5.3178e-19)
(0.787837 1.55926 6.44369e-20)
(0.411766 0.845951 -3.32593e-19)
(0.572774 0.317646 2.95494e-20)
(0.307424 0.1586 0)
(0.943721 0.555618 0)
(0.553166 0.315529 1.32801e-19)
(0.268037 0.168806 -1.36274e-19)
(0.87139 -0.0555158 0)
(3.02784 -0.00172967 0)
(3.00685 0.017853 0)
(3.20085 -0.41776 0)
(3.04288 -0.074239 0)
(3.03116 -0.0388585 0)
(0.0167675 0.90349 -1.14294e-18)
(-0.053513 0.99569 0)
(0.00272022 0.466366 0)
(-0.0311855 1.00881 0)
(-0.0129869 0.498257 0)
(-0.00263809 0.854642 0)
(-0.0531233 1.15574 0)
(-0.0127428 0.564591 0)
(-0.0289882 1.21642 0)
(-0.00802463 0.652042 0)
(0.787995 0.0112808 0)
(1.17371 -0.00194729 0)
(0.620098 0.0122072 0)
(1.1313 0.0174177 0)
(0.572631 0.0083794 0)
(0.225406 0.921982 1.9692e-18)
(0.0985379 1.2081 0)
(0.176302 1.06604 0)
(0.0331901 0.755774 2.21027e-23)
(0.0372233 0.498055 -2.9451e-18)
(0.0194616 0.747943 0)
(0.00595418 0.422033 0)
(-0.000709473 0.734565 4.54479e-24)
(0.000698901 0.41483 0)
(-0.0169744 0.743243 0)
(-0.0129837 0.428059 0)
(0.0524521 0.661449 0)
(0.0508883 0.468073 0)
(0.00990593 0.628253 1.24443e-18)
(0.00173128 0.346813 0)
(-0.0607032 4.62306 0)
(0.00841988 1.41339 9.1477e-20)
(-0.00985303 0.762026 -1.17585e-19)
(0.652382 0.155093 -7.52791e-19)
(0.32881 0.0663965 -7.30105e-19)
(0.663362 0.174039 -2.26095e-18)
(0.327055 0.09809 -1.45644e-18)
(0.0792474 0.629184 0)
(0.177872 1.3202 1.9188e-19)
(0.178538 0.733299 -3.06189e-19)
(2.06047 0.260877 0)
(1.10716 0.118414 0)
(3.03313 0.103876 0)
(3.10393 0.446046 0)
(2.83923 0.377423 -1.0118e-17)
(2.57812 0.361301 7.76378e-18)
(-0.0705891 1.33461 0)
(-0.0107227 0.662652 0)
(-0.0149589 2.01577 0)
(-0.0553425 1.42909 0)
(-0.0505983 0.720281 0)
(0.4548 0.307554 4.03715e-19)
(0.233073 0.169555 0)
(2.29602 -0.266439 0)
(1.32365 -0.119301 0)
(1.08323 0.0120171 0)
(1.02093 0.0181371 0)
(0.54458 0.0102336 0)
(1.01133 0.0554373 0)
(0.829953 0.0707545 0)
(0.347136 0.0287431 3.36367e-18)
(-0.00548263 0.4514 1.78585e-18)
(-0.0271861 0.784845 0)
(-0.0478615 0.84821 0)
(-0.0153788 0.460781 0)
(0.00013043 0.839723 1.82628e-18)
(7.04793e-05 0.487527 0)
(-0.00547923 0.845554 -5.62109e-18)
(-0.0048864 0.496761 1.89656e-18)
(0.058438 3.69425 0)
(0.0493873 4.11932 0)
(-0.0151815 1.36693 -2.07115e-21)
(-0.0132314 1.32255 0)
(-0.00910563 0.719438 0)
(1.40874 0.0346609 0)
(0.759598 0.0152676 0)
(0.71016 0.0141968 0)
(1.41515 -0.0329834 0)
(0.773035 -0.0088335 0)
(0.332767 0.495612 -8.40433e-19)
(0.161648 0.239812 0)
(0.335952 0.526058 9.42097e-20)
(0.168776 0.277274 0)
(1.21885 1.3628 1.71372e-19)
(0.763759 0.727817 -4.02418e-19)
(0.408939 1.42122 0)
(0.601341 1.52521 0)
(0.300888 0.813545 0)
(0.149987 0.364949 -4.45633e-19)
(0.628279 0.28993 0)
(0.32346 0.13868 4.00527e-19)
(1.40026 1.28212 0)
(1.55642 1.14583 0)
(0.857749 0.651361 4.71246e-19)
(1.70151 0.935253 0)
(1.04857 0.430638 2.26845e-20)
(1.47225 0.00799052 0)
(1.50054 -0.0293315 0)
(0.801573 -0.00447963 0)
(1.95025 -0.199836 0)
(1.65052 -0.148248 0)
(1.05203 -0.0890044 0)
(3.06126 0.164831 0)
(3.03105 0.0687602 0)
(3.01022 0.053142 0)
(0.0317492 1.60936 6.06464e-19)
(0.0159587 0.833359 0)
(0.0152779 1.69204 1.07681e-18)
(0.00155688 0.934646 -9.68551e-19)
(0.0631911 1.16624 1.9357e-19)
(0.0468995 1.00807 0)
(0.0386305 0.539512 0)
(-0.0306724 1.0393 0)
(-0.00815109 0.536601 0)
(0.0158845 1.58984 -4.43578e-21)
(-0.0185374 0.854282 0)
(-0.053465 1.55351 -2.26158e-19)
(-0.0160992 0.804801 4.37807e-19)
(-0.00349764 1.06826 0)
(0.00985695 1.08566 0)
(-0.000788854 0.553308 0)
(0.00696847 1.23302 0)
(-0.00052834 0.647931 0)
(1.46301 -0.00451316 0)
(0.786032 0.00763447 0)
(1.43669 0.0327078 0)
(0.76002 -0.000738513 0)
(0.676554 0.00518507 0)
(1.26455 0.0164035 0)
(1.20569 0.047148 0)
(0.661218 0.0153764 0)
(-0.00580114 1.42077 -1.71141e-20)
(0.000184121 1.37708 0)
(0.00482 0.732923 0)
(0.00172876 0.417221 0)
(0.294142 0.850032 0)
(0.261718 0.4114 -2.88242e-19)
(-0.00081715 0.637457 0)
(-0.00845067 0.367895 0)
(0.0125706 4.39247 0)
(-0.0424019 4.6243 0)
(-0.0144362 4.5714 0)
(-0.0668952 3.26915 2.06114e-20)
(-0.0551131 4.51112 0)
(-0.0461082 4.07551 0)
(0.00373484 0.797697 1.0949e-20)
(0.012692 1.51804 1.65295e-19)
(-0.0345845 1.45785 1.20819e-19)
(-0.00792561 0.802321 0)
(0.678282 0.107226 1.15506e-18)
(0.331432 0.044268 -1.13205e-18)
(0.15118 1.15406 0)
(0.102405 0.58478 -2.7032e-19)
(0.119295 1.25279 -8.7646e-19)
(0.0518222 0.697799 8.71979e-19)
(0.80954 0.023987 0)
(1.55725 0.0475541 0)
(1.70999 0.127586 0)
(0.920051 0.0444769 0)
(0.00640399 1.24922 0)
(0.0241209 1.26077 0)
(0.00354263 0.665031 0)
(0.501689 0.327882 1.21104e-18)
(0.453787 0.322278 -1.39559e-18)
(0.243938 0.170763 0)
(1.91692 0.149482 1.15238e-19)
(1.12422 0.0913052 0)
(1.7109 0.116901 0)
(0.877592 0.0219752 0)
(0.689288 0.085913 0)
(0.708555 0.0463166 -5.40921e-18)
(0.350929 0.0324989 2.00016e-18)
(0.00902547 0.807086 1.70485e-18)
(0.00218527 0.462436 4.08084e-20)
(-0.0108778 1.40842 -3.59883e-20)
(0.00613612 1.38675 1.37286e-18)
(-0.0149832 0.848955 6.3274e-20)
(-0.0119261 0.524486 -2.54206e-22)
(-0.107514 1.00068 -1.17061e-18)
(-0.0529602 1.3532 8.38093e-19)
(-0.0175323 1.35275 -1.36472e-18)
(1.41983 -0.0173716 0)
(1.44022 0.0199653 0)
(0.768499 -0.000397719 0)
(1.45292 0.0252627 0)
(1.36422 0.046135 0)
(0.762009 0.0202284 0)
(1.30258 -0.00234884 0)
(1.32009 -0.0060622 0)
(0.695955 -0.00113765 0)
(0.314308 0.48843 -9.19408e-19)
(0.166345 0.250202 0)
(0.161964 0.318011 1.37828e-19)
(0.319002 0.604842 1.1291e-18)
(0.317516 0.56694 -6.68462e-19)
(0.161753 0.291197 1.30624e-18)
(0.286512 0.740432 2.19498e-18)
(0.152425 0.39256 3.95994e-19)
(0.65579 0.219715 1.54287e-18)
(0.64604 0.261879 4.00714e-19)
(0.326368 0.118451 7.52194e-19)
(1.88799 0.700727 -6.05479e-19)
(1.14824 0.329381 -7.06732e-19)
(-0.0366458 1.69294 4.63214e-19)
(-0.0125833 0.918403 0)
(1.59378 0.0223336 0)
(1.51479 0.0643661 0)
(0.848498 0.0261281 0)
(-0.00356003 1.38473 0)
(0.00507082 0.729577 2.50946e-18)
(0.00464964 0.731252 0)
(0.00206994 0.415098 -2.45619e-18)
(-0.0102812 1.38627 5.99172e-19)
(-0.00947601 1.4225 0)
(0.347054 0.503411 2.59082e-19)
(0.371131 0.56337 -8.66635e-19)
(0.177154 0.265815 7.84304e-19)
(-0.0257203 0.767104 -1.67417e-18)
(-0.0258316 0.689774 0)
(-0.0153563 0.4127 0)
(0.0285375 1.51418 -1.26712e-20)
(0.0294462 1.53992 -3.65169e-19)
(0.016337 0.803954 -1.5536e-20)
(0.216717 1.06547 8.93837e-19)
(0.121512 0.52034 -5.94798e-19)
(0.00965805 1.49637 7.30751e-19)
(0.053974 1.36762 -8.16187e-19)
(0.0254349 0.76909 3.58749e-20)
(0.007434 1.36613 -3.83166e-18)
(-0.000284993 1.39327 4.43728e-18)
(0.00376266 0.829765 1.74348e-18)
(-0.0138714 0.805045 -1.73649e-18)
(-0.00431944 0.481381 -1.74915e-18)
(-0.0106679 1.41685 -4.52686e-18)
(-0.0152431 1.40031 4.61665e-18)
(0.295863 0.696474 0)
(0.309422 0.654616 -2.3026e-18)
(0.156887 0.342224 9.96863e-19)
(0.289238 0.819414 1.19199e-18)
(0.142574 0.440104 -1.83919e-18)
(2.03211 0.3159 4.16494e-19)
(2.02104 0.536698 0)
(1.20208 0.216865 -4.03157e-19)
(-0.0733094 1.61425 -4.80974e-21)
(-0.0164655 1.67433 0)
(-0.0168337 0.911454 0)
(0.230594 0.966904 -3.24243e-19)
(0.253855 0.890431 -7.10388e-19)
(0.13135 0.475811 1.33165e-18)
(3.16438 -0.442934 0)
(3.34726 -0.414752 1.81107e-18)
(0.0640633 3.59848 0)
(0.0471486 2.95008 0)
(3.15927 0.249849 1.41821e-20)
(3.12357 0.50623 3.70847e-18)
(0.0267216 3.33369 -2.76658e-20)
(0.011183 2.58106 0)
(-0.0403915 1.19669 1.56657e-18)
(0.200093 1.33713 0)
(3.41996 1.59686 -3.27287e-19)
(3.17454 0.272389 -2.96146e-20)
(3.14791 -0.118974 0)
(3.10046 -0.000486592 3.65239e-22)
(0.0370824 2.61723 0)
(0.144614 3.3065 0)
(-0.0644953 2.60922 0)
(-0.0321951 3.43948 3.17021e-19)
(-0.0334142 3.50096 2.00102e-19)
(2.64103 0.0470124 -1.35796e-20)
(3.04211 0.0293227 0)
(3.14768 0.0835642 0)
(-0.0516005 4.58361 0)
(-0.046787 2.99108 0)
(-0.077743 3.05521 0)
(0.638985 3.09078 2.70737e-19)
(3.33879 -0.422573 0)
(3.01124 -0.345895 0)
(3.1699 -0.0531399 2.27496e-18)
(3.29269 -0.32878 -2.73937e-18)
(3.10381 -0.125833 0)
(-0.0603065 4.51939 0)
(0.0120106 4.02747 0)
(0.00622818 4.31756 0)
(-0.0335894 3.22062 0)
(-0.0161949 2.98425 0)
(-0.0384218 2.57222 0)
(2.97247 -0.00381733 0)
(2.85229 0.0480323 -1.80377e-20)
(2.203 3.00034 -3.31089e-19)
(3.15694 0.0443563 -2.27601e-18)
(3.19038 0.278101 2.76664e-18)
(3.0828 0.117279 0)
(3.39554 0.328691 2.08496e-18)
(3.35703 0.48427 -2.70382e-18)
(3.07125 0.418354 0)
(-0.0520812 3.2486 0)
(0.00935478 3.17641 8.53253e-20)
(-0.0284652 2.49151 -6.04347e-20)
(3.67773 0.543292 2.26879e-18)
(3.45315 0.201905 0)
(-0.148824 1.27166 -2.18201e-18)
(-0.0585086 0.881526 -1.36082e-19)
(-0.0783167 1.34 3.00803e-18)
(-0.0313395 1.27284 -9.06201e-19)
(0.00306402 1.09208 0)
(-0.0266763 1.23926 6.99856e-19)
(-0.113714 1.38786 2.16242e-18)
(-0.0579344 1.34068 -1.32357e-18)
(-0.0770818 1.32053 0)
(1.33389 0.614493 0)
(1.22325 0.706258 0)
(3.50709 1.99735 9.6162e-19)
(2.99497 1.90264 -1.2017e-18)
(3.79591 1.67856 0)
(3.33402 1.13674 0)
(3.34963 0.280207 -3.91234e-18)
(2.89934 0.172908 4.83413e-18)
(3.35096 -0.155866 0)
(2.85394 -0.0764058 0)
(3.43643 0.0427018 0)
(3.59383 0.144715 0)
(3.28683 0.119705 0)
(3.55041 0.298296 0)
(3.40846 0.292889 0)
(3.32758 0.21789 0)
(0.0849783 2.82898 0)
(0.0281404 2.12387 0)
(0.11349 3.07568 0)
(0.0900973 2.22931 0)
(0.197857 3.60196 0)
(0.133963 2.69222 -5.59024e-19)
(0.0393821 3.60982 0)
(0.00349056 3.0148 4.05162e-19)
(-0.0320182 3.17869 -5.17397e-19)
(-0.0686941 2.88821 0)
(-0.0316806 2.2939 0)
(-0.0841222 2.98377 0)
(-0.0578805 2.11662 0)
(-0.130321 4.7072 -2.47146e-19)
(-0.0909726 3.87307 2.79487e-19)
(-0.0836248 3.74687 3.11169e-19)
(-0.0555109 2.96024 0)
(-0.114558 3.73078 -4.60734e-19)
(-0.0433152 3.13502 -2.95891e-19)
(-0.105044 4.73617 1.93486e-19)
(-0.113182 4.39942 -3.53252e-19)
(-0.0861328 4.27907 -3.81543e-19)
(3.03845 0.0857182 3.35356e-18)
(2.29501 0.0314785 -4.22359e-18)
(2.90018 0.130082 -3.32263e-18)
(2.21978 0.0721847 4.15037e-18)
(3.36452 0.0253368 0)
(2.63896 -0.00333186 0)
(3.44647 0.0871467 0)
(3.31461 0.0168243 0)
(2.69903 0.00787276 0)
(3.6674 0.231832 0)
(3.42867 0.0912665 0)
(2.84888 0.0539032 0)
(-0.0195357 4.22238 -1.20376e-20)
(-0.0551279 4.59517 0)
(-0.0586091 4.45603 0)
(-0.0765774 3.40554 8.81997e-20)
(-0.038717 2.6934 -3.47384e-21)
(-0.0893265 4.63686 1.15919e-19)
(-0.0999212 4.46989 -1.17134e-19)
(-0.0866516 4.02542 0)
(-0.0627777 3.96036 0)
(-0.0325874 4.0709 0)
(-0.0784391 3.37533 0)
(-0.0460176 2.41801 0)
(0.925235 3.63914 -6.18405e-19)
(0.905602 2.83138 -1.80536e-19)
(0.435838 2.09404 -2.29157e-19)
(0.252159 2.33402 6.98742e-19)
(1.00014 4.21212 2.6417e-19)
(3.4328 -0.167771 0)
(3.32198 -0.256749 0)
(2.88293 -0.189631 0)
(3.47031 -0.064654 0)
(3.34581 -0.148031 0)
(3.44891 -0.261201 0)
(3.51946 -0.283787 0)
(3.57941 -0.281398 0)
(3.22576 0.0925649 3.61415e-18)
(2.55663 0.0641647 -4.57011e-18)
(3.09867 0.10563 -3.55756e-18)
(2.51196 0.0560863 4.4265e-18)
(2.19754 3.36942 0)
(1.7047 2.90499 -4.54672e-19)
(2.52461 3.30338 -4.10587e-19)
(2.32006 2.48477 5.4557e-19)
(0.800483 1.25273 2.73747e-18)
(1.47081 0.216084 1.34385e-18)
(3.70485 0.295889 0)
(3.87062 0.560313 -1.84877e-18)
(3.27513 0.238301 -8.23477e-20)
(3.73515 0.428182 0)
(0.261294 1.32418 1.81006e-18)
(-0.00378312 1.20743 -2.89855e-18)
(0.0730213 0.773841 1.62808e-18)
(0.294206 0.475118 -7.53838e-19)
(0.199218 1.40268 8.77507e-19)
(0.0583598 1.24578 0)
(0.0630486 1.09763 -1.14074e-18)
(0.20998 1.45698 -4.12395e-18)
(0.35143 1.57806 0)
(0.00849293 1.29008 1.20379e-19)
(-0.00988377 1.45728 -1.34895e-18)
(-0.0412261 1.30292 1.96108e-18)
(-0.0577568 1.41764 0)
(-0.0207082 1.3821 0)
(0.702755 1.08271 0)
(2.49498 2.4855 -1.06943e-18)
(2.59171 2.1334 4.00004e-19)
(2.74205 2.83771 0)
(3.16696 3.02436 -3.96329e-19)
(3.11461 2.37272 2.79923e-20)
(0.838509 0.61612 -1.83495e-18)
(1.60616 0.708368 -1.65484e-20)
(1.27184 0.4643 8.75268e-19)
(1.32575 0.873056 5.98534e-20)
(0.978736 0.659147 -2.38397e-18)
(1.51492 0.736233 0)
(2.05214 1.12551 1.46227e-18)
(2.09193 1.03894 0)
(1.46421 0.816313 0)
(1.10223 0.56916 0)
(3.3842 2.1693 1.00778e-18)
(3.91867 0.745599 -1.86512e-18)
(3.81118 1.1955 0)
(3.49302 0.743652 0)
(1.42783 0.371307 1.33632e-18)
(3.28523 1.84412 -8.53409e-19)
(2.88196 1.66657 1.54915e-18)
(3.76591 1.36418 -1.83574e-18)
(3.09894 0.114109 2.46075e-18)
(3.16912 0.180428 -2.57582e-18)
(2.66275 0.0914076 0)
(3.30587 -0.0403496 0)
(3.20049 -0.0847519 -2.36386e-18)
(2.63104 -0.0323728 2.34304e-18)
(3.95681 0.0915011 0)
(3.76092 0.144382 0)
(3.69376 0.154925 0)
(3.58853 0.204311 0)
(3.83267 0.0583237 0)
(3.7261 0.0517179 0)
(-0.0470847 2.56216 0)
(-0.0428344 2.06404 0)
(0.330212 3.98708 -4.15758e-19)
(0.64443 3.32829 -1.62845e-19)
(0.249356 3.04147 -3.64264e-19)
(0.335352 2.55568 5.83511e-19)
(0.433208 4.00358 0)
(0.43515 4.64755 -5.12545e-19)
(0.349546 4.70463 0)
(0.884504 4.37761 -3.80008e-19)
(0.656833 3.8401 9.7019e-19)
(0.562515 4.62853 4.49325e-19)
(0.710839 4.17443 -1.90621e-19)
(0.570642 4.30525 1.53345e-19)
(0.880292 4.62256 -6.67414e-19)
(0.715442 4.63828 0)
(0.824234 4.567 5.07344e-19)
(-0.0173523 4.53641 -1.81997e-19)
(-0.0302008 3.62212 0)
(0.0779766 4.26517 5.5e-19)
(-0.0237605 4.35995 0)
(-0.014413 3.44905 -4.50552e-19)
(-0.0212819 2.89998 0)
(-0.12323 4.32658 -2.92731e-19)
(-0.129646 4.65838 0)
(-0.0726756 3.8426 0)
(-0.0618596 3.78713 3.29234e-19)
(-0.0594171 3.8384 1.04563e-20)
(-0.0447783 3.67445 6.26575e-19)
(-0.0445971 2.91513 4.0759e-21)
(-0.136374 4.67092 1.81952e-19)
(-0.12743 4.70922 1.04122e-19)
(-0.0261868 2.72482 0)
(-0.00507974 2.23351 0)
(-0.0675143 4.7549 4.90437e-19)
(-0.0752447 4.32052 4.30772e-19)
(-0.107393 4.57591 -5.6199e-19)
(-0.0111356 4.7319 0)
(-0.0885259 4.45281 -3.13236e-19)
(-0.124011 4.06773 1.29369e-19)
(-0.0947008 4.16792 -4.16556e-20)
(-0.093292 4.68634 -2.21006e-19)
(-0.100708 4.19754 -6.90341e-20)
(-0.0977233 4.14958 3.08032e-19)
(2.87503 0.0599422 -2.36031e-18)
(2.86404 0.0481442 2.26973e-18)
(2.34249 0.0338656 0)
(3.52097 0.185952 3.04193e-18)
(2.7167 0.12365 -3.30047e-18)
(2.26734 0.0623581 3.60542e-18)
(3.69515 0.326206 -4.01092e-19)
(3.20795 -0.0494777 0)
(3.16929 -0.014967 2.23462e-18)
(2.68819 -0.012983 -2.217e-18)
(3.87214 0.116727 -1.25106e-19)
(3.76709 0.0979779 1.07716e-18)
(4.15547 0.166225 0)
(4.22583 0.173897 -3.74659e-19)
(4.01683 0.140103 0)
(3.70047 0.151382 0)
(4.03282 0.0929285 0)
(3.71345 0.0855079 0)
(4.18444 0.108878 7.84391e-19)
(4.13792 0.0751691 -1.74568e-18)
(4.13796 0.109235 -8.47079e-19)
(4.1843 0.111539 -9.23299e-19)
(4.21109 0.22096 1.77208e-18)
(3.84736 0.18294 0)
(4.05127 0.291382 0)
(-0.0831425 4.49676 -1.36703e-19)
(-0.034335 4.57546 -1.17348e-20)
(-0.0727785 4.60431 0)
(-0.0595581 4.09746 1.39163e-19)
(-0.0532472 4.12342 2.25575e-20)
(-0.0580184 3.98172 -2.18848e-20)
(-0.086148 3.44338 2.61736e-19)
(-0.151474 3.91782 -1.45404e-20)
(-0.115309 4.0547 7.50822e-20)
(-0.0783079 3.31307 -1.32244e-19)
(-0.02784 2.84299 1.58409e-19)
(-0.0874431 4.45964 5.22858e-21)
(-0.10294 4.62256 1.72579e-19)
(1.20704 4.3216 3.52188e-19)
(1.12192 4.4953 7.28358e-19)
(1.70053 3.42213 4.39611e-19)
(1.28036 3.5244 1.73548e-19)
(1.26283 2.85565 0)
(0.554209 2.36515 2.76028e-19)
(0.469721 1.78022 3.3217e-19)
(0.343918 2.60611 1.5332e-20)
(0.488134 3.21779 -1.16259e-18)
(0.629786 3.17857 8.78886e-19)
(0.435229 2.44702 0)
(0.295966 2.007 -5.59022e-19)
(0.249233 3.09939 1.39597e-18)
(0.267178 2.75071 -3.22374e-20)
(0.153936 2.30298 -1.75029e-18)
(0.609731 1.45472 1.47266e-18)
(0.590731 1.66195 0)
(3.58361 -0.0754954 8.63424e-20)
(3.61853 -0.2544 -7.25203e-20)
(3.72119 -0.218158 -1.2652e-18)
(3.75917 -0.126532 1.28106e-18)
(3.67612 -0.0493622 0)
(2.40875 3.83283 0)
(2.58626 3.87835 0)
(2.85722 3.58356 0)
(2.70645 3.6135 0)
(0.881752 1.4395 -3.68654e-21)
(0.632426 1.07372 0)
(1.73546 3.44317 1.50634e-20)
(1.42709 3.50855 0)
(1.35124 3.01868 -1.28975e-18)
(1.43218 2.95263 8.27996e-19)
(1.82134 0.310979 0)
(1.45793 0.263857 3.5261e-19)
(2.43974 0.355525 2.19222e-18)
(1.81251 0.282727 -7.86248e-19)
(1.44556 0.11146 -2.49522e-18)
(4.25476 0.771286 -2.56432e-18)
(3.86932 0.979407 -3.59291e-20)
(3.33038 0.835096 2.06749e-18)
(3.89248 0.731229 1.8125e-18)
(3.14954 0.458451 -3.04371e-18)
(2.93902 0.446595 3.74921e-19)
(3.22691 0.676093 -8.18659e-19)
(3.00957 0.673796 0)
(3.77836 0.551135 1.53635e-18)
(4.10426 0.614501 0)
(4.09994 0.758031 0)
(4.03074 0.404645 8.23155e-19)
(4.28728 0.626144 -3.04836e-20)
(4.22805 0.697722 -4.52238e-19)
(4.15691 0.625769 0)
(3.62307 0.125776 1.71558e-18)
(4.19048 0.176115 2.14086e-18)
(4.09372 0.145744 -1.67689e-18)
(4.14048 0.232083 -1.44062e-18)
(3.75385 0.230917 -2.15311e-18)
(3.32521 0.368812 0)
(3.4178 0.294608 0)
(2.57575 0.187499 -1.26471e-18)
(2.12708 0.117337 4.76435e-19)
(4.04312 0.342297 1.93731e-18)
(4.28071 0.419685 -2.34497e-18)
(4.2855 0.475141 2.06711e-18)
(4.16182 0.477922 0)
(4.25146 0.325099 0)
(4.26122 0.313744 -9.77797e-19)
(4.21402 0.305877 -1.59402e-18)
(2.24289 3.5147 6.20592e-19)
(1.96679 3.28116 -6.84961e-19)
(1.48673 2.41928 -1.03677e-18)
(1.22545 2.05463 2.68147e-19)
(0.913402 1.42311 -2.6435e-18)
(0.819436 1.25375 9.26267e-19)
(0.620287 0.93302 -1.90067e-21)
(1.15085 1.83879 -1.14358e-18)
(1.1789 1.93979 1.7071e-18)
(1.00651 1.74953 5.08456e-19)
(0.81113 1.32774 -5.15117e-19)
(0.655233 1.10639 0)
(2.48429 2.63844 -1.15528e-19)
(0.748473 1.17155 8.63654e-19)
(0.970887 0.926263 1.16391e-18)
(0.794021 0.841916 1.34821e-18)
(1.12798 0.77719 1.34936e-18)
(1.52358 1.08308 -2.28315e-18)
(1.43829 1.11217 1.85011e-18)
(1.04495 0.79853 -6.81343e-19)
(0.851408 0.592714 1.50423e-18)
(1.65775 0.500604 -7.79968e-19)
(1.60351 0.522341 0)
(1.27598 0.417912 4.92467e-21)
(2.56365 1.54021 7.78522e-19)
(2.14246 1.30076 -2.81992e-18)
(1.74674 1.22313 1.0131e-20)
(1.7198 1.1255 0)
(2.88586 2.60447 8.74534e-19)
(3.42545 2.72732 1.03709e-18)
(3.23943 2.91388 -1.19544e-18)
(3.52194 2.73355 -4.28618e-19)
(3.44129 2.56406 -1.35458e-19)
(3.47259 2.75751 1.39283e-19)
(3.66737 2.24318 -1.67881e-18)
(3.67637 2.46819 4.02254e-19)
(3.74669 2.40134 0)
(3.74633 2.16082 -5.80485e-19)
(4.04982 1.05638 5.80717e-19)
(4.25701 0.973307 1.00272e-18)
(4.2861 0.945479 1.01154e-18)
(4.04953 1.30872 -1.14969e-18)
(4.07793 1.32584 0)
(4.1256 1.21016 0)
(3.36414 1.23012 -1.4646e-20)
(2.46482 0.672534 0)
(2.76565 0.744702 9.31979e-19)
(3.27412 0.877908 -2.57372e-20)
(3.78261 1.52011 5.10753e-18)
(3.58315 1.75045 1.31149e-18)
(3.50274 1.53431 -1.3419e-18)
(3.07989 1.37406 1.43876e-18)
(2.81183 1.38092 8.25716e-19)
(2.36699 1.1754 -7.99719e-19)
(3.67153 -0.0863562 1.9825e-18)
(3.89457 -0.0298016 0)
(3.8588 -0.0673716 1.34058e-18)
(3.74263 -0.060191 -2.98453e-18)
(3.98054 0.0361801 1.46024e-18)
(3.90472 0.112273 -3.0793e-18)
(3.74032 0.126804 0)
(3.55701 0.172754 -6.27786e-19)
(3.81215 0.122261 1.60339e-18)
(3.69223 0.190735 -8.21589e-19)
(3.60069 0.170458 5.89995e-19)
(-0.087514 2.6604 0)
(-0.0592343 3.4525 0)
(-0.0401507 2.52241 0)
(-0.0264461 2.03112 0)
(0.0250829 3.95421 6.81503e-19)
(0.119354 3.73891 -1.76992e-19)
(0.285388 4.62396 -2.317e-19)
(0.223519 4.44981 2.44296e-19)
(-0.047342 4.3002 -5.03817e-19)
(-0.012372 4.32959 3.78276e-19)
(0.0733993 3.88924 2.16821e-20)
(-0.00613483 3.58856 -4.72223e-19)
(-0.0249194 3.35417 -6.31207e-20)
(-0.0551079 3.70631 -5.75195e-20)
(0.127499 4.45269 -5.8744e-19)
(0.154267 4.27352 0)
(0.245782 4.61443 2.96249e-19)
(0.236975 4.6836 2.53585e-19)
(0.5653 4.43476 -2.26365e-19)
(0.391708 3.80023 0)
(0.441322 3.6509 -1.11569e-18)
(0.542587 4.01808 7.90616e-19)
(0.449417 4.54753 -6.15295e-19)
(0.340708 4.4215 3.31136e-19)
(0.275713 4.15724 0)
(-0.0585524 4.72429 -5.57557e-19)
(-0.0940466 4.47423 -6.44012e-19)
(-0.0988471 4.69104 0)
(-0.0471747 4.3191 -6.11226e-21)
(-0.0421527 4.60253 2.76099e-19)
(-0.137406 3.93002 4.54125e-20)
(-0.0688864 3.56137 -6.65568e-19)
(-0.116396 3.98166 1.77531e-19)
(-0.164931 4.52761 2.3637e-19)
(-0.101311 4.34741 0)
(-0.0832299 3.95601 0)
(-0.0903612 3.01692 2.0603e-19)
(-0.0624842 3.73334 -6.42746e-20)
(-0.0882832 3.71299 0)
(-0.0925755 2.79694 1.62393e-19)
(-0.049311 2.29804 -3.14486e-19)
(3.75917 0.0303161 0)
(3.72982 0.00566535 -2.03056e-19)
(4.17873 0.0643898 -1.43825e-18)
(4.0871 0.0428635 0)
(3.87309 0.0146402 0)
(4.1495 0.034355 -1.23758e-20)
(4.1001 0.0326137 2.37605e-18)
(4.00112 0.0774185 2.84191e-18)
(3.75797 0.116342 0)
(3.56078 0.107925 0)
(4.01498 0.0901116 1.41571e-18)
(3.70646 0.113124 0)
(3.47608 0.126606 0)
(-0.100228 4.63659 0)
(-0.118125 4.62848 1.06501e-20)
(-0.0945442 4.6679 6.46475e-20)
(-0.0747784 3.91521 0)
(-0.12587 4.53086 1.12224e-19)
(-0.0830183 4.28902 -6.46259e-20)
(-0.0700154 4.02605 0)
(1.39278 4.20075 0)
(1.17379 4.55017 -1.30167e-18)
(1.19278 4.47303 0)
(1.53801 4.45309 1.49105e-18)
(1.55634 4.07644 0)
(1.46397 4.3315 -6.1024e-19)
(1.03745 2.30477 -3.41552e-20)
(0.731301 1.69523 -1.75578e-18)
(0.609705 1.26567 2.14214e-18)
(0.72512 1.88642 3.99164e-19)
(0.993686 2.4863 0)
(1.05953 2.44125 0)
(0.736847 1.73762 0)
(0.546781 1.37064 -1.40366e-18)
(1.20711 3.81302 -9.85719e-19)
(1.1405 3.04929 -2.36277e-19)
(1.33578 3.4562 1.93241e-19)
(0.606487 2.08778 0)
(0.632154 1.99233 0)
(0.471439 1.61247 -3.94827e-19)
(0.968829 2.77847 0)
(2.67299 3.55613 0)
(2.40715 3.03856 -1.4569e-18)
(2.56437 3.04498 -8.5939e-20)
(2.43255 3.42167 0)
(2.3148 3.18563 2.22472e-18)
(3.25921 3.06364 -3.90625e-19)
(3.09673 3.28585 0)
(3.08218 3.11274 6.32571e-19)
(2.84885 3.39397 0)
(2.87079 3.19397 0)
(1.24557 2.06851 -9.35376e-19)
(1.45374 2.47118 -7.0238e-19)
(1.78578 3.04155 1.20993e-18)
(1.72752 3.02267 -3.6385e-19)
(1.09446 1.87937 0)
(1.23697 2.27112 4.73114e-19)
(0.741868 1.33057 -7.19599e-19)
(0.600372 1.07824 -5.80675e-22)
(1.94496 3.72914 0)
(2.20021 3.75749 -5.42718e-19)
(2.32047 3.97086 0)
(2.32197 0.52716 0)
(1.65047 0.34429 0)
(1.23898 0.280524 0)
(2.25163 0.555461 -1.46728e-18)
(1.67447 0.40727 8.19129e-19)
(2.16555 0.127123 -9.84443e-19)
(2.65034 0.293252 0)
(2.49036 0.298099 4.13405e-19)
(1.79118 0.134291 1.63274e-18)
(1.54727 0.0806295 -1.0367e-18)
(0.769872 1.59751 8.6249e-19)
(0.992554 1.86942 0)
(0.556144 1.47605 1.57055e-18)
(0.546625 1.647 -1.43363e-18)
(0.789721 1.85361 -9.95672e-19)
(2.12096 2.50868 1.34257e-18)
(2.14222 2.75916 0)
(1.64366 1.73018 -2.77916e-19)
(2.06835 2.03766 1.75033e-18)
(1.41782 1.34014 -4.26023e-19)
(1.64931 1.359 4.5326e-19)
(2.17193 1.54966 1.02773e-18)
(2.5027 1.70057 0)
(2.33316 1.89428 0)
(2.0722 1.64878 0)
(3.93113 2.05164 3.86036e-19)
(3.76028 1.87184 -1.2639e-18)
(3.80941 2.00689 1.04689e-18)
(3.89554 1.75011 -1.00851e-18)
(4.13121 1.64934 0)
(4.0849 1.81289 -2.98288e-19)
(2.89079 1.16996 -1.90144e-18)
(3.0154 1.16461 -2.41543e-18)
(2.38942 1.05789 1.45983e-18)
(2.19492 0.949264 -1.42483e-18)
(2.51517 0.852875 -1.18071e-18)
(2.2314 0.788749 1.45194e-18)
(4.00832 0.0321582 -1.52708e-18)
(4.05262 0.0390825 3.12639e-18)
(3.76723 -0.0670343 1.89877e-18)
(3.79035 -0.074997 -2.2842e-18)
(3.95852 0.00856169 0)
(4.05549 0.0207884 -3.72528e-18)
(0.0679945 4.73041 1.07149e-19)
(0.0390934 4.70507 0)
(0.158582 4.70388 9.57561e-19)
(0.17929 4.72211 -8.71252e-19)
(0.198842 4.6943 4.31993e-19)
(0.09229 4.63972 0)
(-0.124413 4.72876 0)
(-0.128694 4.4107 -6.27195e-20)
(-0.126745 4.36044 5.62373e-20)
(-0.134219 4.48405 7.6268e-21)
(-0.12575 4.66772 -1.02401e-19)
(-0.104973 4.657 5.54767e-20)
(1.86586 4.01488 -1.64537e-18)
(1.8021 4.02534 1.7433e-18)
(1.65054 4.37735 -8.57023e-19)
(1.67648 4.27819 7.62872e-20)
(2.22041 4.03814 0)
(1.81786 4.17286 -6.42646e-19)
(1.94537 3.91336 6.23207e-19)
(1.7855 4.33875 8.37138e-19)
(2.04096 4.19076 0)
(2.19809 4.07092 0)
(1.13705 3.67241 1.49854e-18)
(0.8335 2.86608 2.03157e-18)
(0.960629 3.04542 -1.39513e-18)
(0.751749 3.02571 -2.32882e-19)
(0.897485 3.77327 4.67632e-19)
(0.720207 3.41178 -1.13722e-18)
(0.769078 1.51078 -1.22237e-18)
(0.767954 1.35921 0)
(0.620642 1.14978 -1.34343e-18)
(1.13988 2.12401 0)
(1.11779 2.21086 0)
(1.40734 2.24198 -1.09658e-18)
(1.10158 2.06564 -1.0415e-18)
(1.05444 2.08327 1.10514e-18)
(1.08435 1.56146 0)
(1.47041 1.81331 -6.04442e-19)
(1.68125 2.17425 -8.57509e-19)
(1.46196 2.13294 0)
(0.907896 1.85652 7.17604e-19)
(0.820706 1.71198 0)
(2.93818 2.30382 -1.8475e-18)
(3.32314 2.46413 2.60851e-18)
(3.29367 2.1908 -2.59252e-18)
(2.65824 2.04744 -2.31535e-19)
(2.77036 1.96078 -9.75409e-19)
(1.30396 2.24614 8.00433e-19)
(1.35825 2.30482 -1.36617e-18)
(1.50163 2.38592 1.80071e-18)
(1.83632 2.61356 -1.17017e-18)
(1.92716 2.98861 -1.57128e-18)
(1.60669 2.54968 -1.18911e-19)
(1.67529 2.69177 1.37704e-18)
(1.85508 2.75097 9.70129e-20)
(2.05432 3.04815 6.5221e-19)
)
;

boundaryField
{
    wall-4
    {
        type            noSlip;
    }
    velocity-inlet-5
    {
        type            fixedValue;
        value           uniform (3 0 0);
    }
    velocity-inlet-6
    {
        type            fixedValue;
        value           uniform (0 1 0);
    }
    pressure-outlet-7
    {
        type            zeroGradient;
    }
    wall-8
    {
        type            noSlip;
    }
    frontAndBackPlanes
    {
        type            empty;
    }
}


// ************************************************************************* //
