/*--------------------------------*- C++ -*----------------------------------*\
  =========                 |
  \\      /  F ield         | OpenFOAM: The Open Source CFD Toolbox
   \\    /   O peration     | Website:  https://openfoam.org
    \\  /    A nd           | Version:  9
     \\/     M anipulation  |
\*---------------------------------------------------------------------------*/
FoamFile
{
    format      ascii;
    class       volVectorField;
    location    "19.6";
    object      U;
}
// * * * * * * * * * * * * * * * * * * * * * * * * * * * * * * * * * * * * * //

dimensions      [0 1 -1 0 0 0 0];

internalField   nonuniform List<vector> 
918
(
(2.47629 -0.138943 0)
(0.108704 0.722546 0)
(0.172323 1.06611 0)
(2.31834 0.153728 0)
(-0.0597142 1.25907 -1.21345e-19)
(-0.0924034 0.643931 -5.31517e-18)
(0.527982 0.84607 -2.96359e-19)
(0.274515 0.152963 -2.98875e-20)
(3.00615 -0.0195612 0)
(-0.00828465 0.475621 0)
(-0.0174452 0.58971 0)
(0.6053 0.00675589 0)
(0.0107054 0.439105 0)
(-0.00288304 0.42169 0)
(0.0134997 0.340975 -1.30576e-18)
(-0.00516383 0.764634 -9.18685e-20)
(0.312547 0.074297 2.15199e-18)
(0.0792969 0.639578 -2.23932e-19)
(1.52885 0.128627 0)
(-0.0273321 0.689356 0)
(0.19476 0.157816 -1.266e-18)
(3.08302 -0.397374 0)
(2.92445 -0.505981 0)
(1.86116 -0.1811 0)
(0.511525 0.0400884 0)
(-0.0253681 0.521557 0)
(-0.00135315 0.494038 1.86295e-18)
(-0.0235937 1.41236 0)
(0.0726702 2.90547 0)
(0.168154 1.75222 0)
(-0.0408817 3.14371 0)
(0.0262183 1.62657 9.33008e-20)
(0.0226585 0.681518 0)
(-0.147425 0.775094 -2.0314e-22)
(-0.193914 1.0291 4.42236e-18)
(-0.0415772 1.04471 0)
(0.744554 -0.00600817 0)
(0.161393 0.246865 6.65968e-19)
(0.989904 1.50731 6.54246e-19)
(0.647631 0.781365 -5.17014e-19)
(0.795558 1.56819 6.22426e-20)
(0.414944 0.847321 -3.21452e-19)
(0.552782 0.306821 2.93939e-20)
(0.297163 0.153737 0)
(0.961303 0.565392 0)
(0.533133 0.304211 1.32035e-19)
(0.258198 0.162913 -1.35487e-19)
(0.871588 -0.0554801 0)
(3.02784 -0.00170572 0)
(3.00685 0.0178652 0)
(3.20086 -0.417734 0)
(3.04288 -0.0742127 0)
(3.03116 -0.0388412 0)
(0.0185391 0.907648 -1.14694e-18)
(-0.0541793 0.970862 0)
(0.00270559 0.453392 0)
(-0.0289251 0.978146 0)
(-0.0114613 0.479982 0)
(-0.00162384 0.871042 0)
(-0.0522881 1.11081 0)
(-0.0127476 0.541471 0)
(-0.0256601 1.16341 0)
(-0.00619887 0.622626 0)
(0.790382 0.0116101 0)
(1.16957 -0.00157486 0)
(0.618316 0.0123643 0)
(1.12597 0.0175956 0)
(0.56986 0.00867225 0)
(0.225406 0.921982 1.96028e-18)
(0.0985379 1.2081 0)
(0.176302 1.06604 0)
(0.0331901 0.755774 2.19989e-23)
(0.0372233 0.498055 -2.93176e-18)
(0.0194616 0.747943 0)
(0.00595421 0.422033 0)
(-0.000695888 0.734549 4.51885e-24)
(0.000702335 0.414825 0)
(-0.0169227 0.743182 0)
(-0.0129393 0.427983 0)
(0.0496086 0.650437 0)
(0.0485967 0.458658 0)
(0.0080827 0.622151 1.23457e-18)
(0.000782451 0.344945 0)
(-0.0756035 4.68535 0)
(0.00820316 1.45152 9.12063e-20)
(-0.0106717 0.782494 -1.17461e-19)
(0.636425 0.152223 -7.50886e-19)
(0.321753 0.0657032 -7.28637e-19)
(0.645176 0.169823 -2.2545e-18)
(0.317698 0.0956196 -1.4515e-18)
(0.0790451 0.621864 0)
(0.177405 1.30772 1.85825e-19)
(0.178755 0.726717 -2.96502e-19)
(2.06032 0.260943 0)
(1.10704 0.118448 0)
(3.03313 0.103886 0)
(3.10392 0.446058 0)
(2.83919 0.377458 -1.01266e-17)
(2.57811 0.361309 7.77029e-18)
(-0.0713698 1.26961 0)
(-0.011619 0.626152 0)
(-0.0156235 1.91567 0)
(-0.0515566 1.35571 0)
(-0.0487189 0.683854 0)
(0.440723 0.295953 4.00799e-19)
(0.225641 0.1635 0)
(2.29609 -0.266395 0)
(1.32372 -0.119275 0)
(1.07655 0.0126522 0)
(1.01226 0.0187549 0)
(0.541044 0.0108361 0)
(1.01949 0.0563413 0)
(0.821465 0.0703494 0)
(0.343717 0.0287019 3.36251e-18)
(-0.00543842 0.451591 1.77414e-18)
(-0.0270377 0.784637 0)
(-0.0473396 0.847538 0)
(-0.0152786 0.460449 0)
(0.000132388 0.839725 1.81651e-18)
(7.28918e-05 0.48753 0)
(-0.00547891 0.845554 -5.59192e-18)
(-0.00488634 0.496761 1.88686e-18)
(0.0503669 3.58633 0)
(0.0377631 4.04251 0)
(-0.016639 1.40248 -2.05182e-21)
(-0.0138253 1.354 0)
(-0.0100281 0.736837 0)
(1.41013 0.0348756 0)
(0.760513 0.0154319 0)
(0.709538 0.0142619 0)
(1.41614 -0.0328535 0)
(0.773497 -0.00874332 0)
(0.322867 0.481489 -8.36153e-19)
(0.157145 0.233191 0)
(0.325842 0.51051 9.37135e-20)
(0.1638 0.269113 0)
(1.23715 1.38176 1.66754e-19)
(0.776591 0.738429 -3.92985e-19)
(0.409863 1.41531 0)
(0.6042 1.52687 0)
(0.302042 0.810969 0)
(0.145938 0.354727 -4.4341e-19)
(0.60779 0.280928 0)
(0.313693 0.134705 3.98828e-19)
(1.42399 1.30275 0)
(1.58375 1.16574 0)
(0.87307 0.662173 4.62189e-19)
(1.73131 0.951309 0)
(1.06714 0.438025 2.31879e-20)
(1.47295 0.00813288 0)
(1.50098 -0.0292426 0)
(0.801884 -0.0044186 0)
(1.95042 -0.199781 0)
(1.65081 -0.148183 0)
(1.05215 -0.088971 0)
(3.06126 0.164852 0)
(3.03105 0.0687864 0)
(3.01022 0.0531587 0)
(0.0352945 1.6142 6.08613e-19)
(0.0177634 0.831853 0)
(0.0178381 1.70487 1.0803e-18)
(0.00290882 0.943395 -9.71158e-19)
(0.0644111 1.14709 1.88618e-19)
(0.0475745 0.984954 0)
(0.0399283 0.526537 0)
(-0.0288019 1.00266 0)
(-0.00712834 0.516285 0)
(0.017416 1.61865 -4.42793e-21)
(-0.0185474 0.868078 0)
(-0.054181 1.58592 -2.25428e-19)
(-0.0164733 0.821441 4.36528e-19)
(-0.0020828 1.02774 0)
(0.00993278 1.04281 0)
(-0.000166223 0.530706 0)
(0.0101202 1.17329 0)
(0.000548967 0.613941 0)
(1.4681 -0.00373912 0)
(0.789089 0.00804151 0)
(1.4404 0.0331484 0)
(0.761723 -0.00056482 0)
(0.675425 0.00533883 0)
(1.26205 0.0166721 0)
(1.20251 0.0473025 0)
(0.659747 0.0155496 0)
(-0.00580053 1.42077 -1.70256e-20)
(0.000184316 1.37708 0)
(0.00482012 0.732923 0)
(0.00172892 0.417221 0)
(0.28501 0.829851 0)
(0.254084 0.400357 -2.87232e-19)
(-0.00218794 0.635446 0)
(-0.00888472 0.367602 0)
(0.00445 4.34882 0)
(-0.0561745 4.66262 0)
(-0.0261277 4.57171 0)
(-0.0755215 3.34914 2.0475e-20)
(-0.0661633 4.59222 0)
(-0.0581317 4.16345 0)
(0.00438564 0.817452 1.07352e-20)
(0.0137436 1.55874 1.65102e-19)
(-0.0360219 1.498 1.20684e-19)
(-0.00778062 0.823518 0)
(0.664736 0.105753 1.15317e-18)
(0.325808 0.0441704 -1.13013e-18)
(0.150558 1.13981 0)
(0.101592 0.576462 -2.69702e-19)
(0.119139 1.2405 -8.7579e-19)
(0.0522837 0.691261 8.71285e-19)
(0.809214 0.0240607 0)
(1.55679 0.0476749 0)
(1.70971 0.12765 0)
(0.919852 0.0445211 0)
(0.00729735 1.18591 0)
(0.0253084 1.19525 0)
(0.00414701 0.630148 0)
(0.482636 0.315423 1.20382e-18)
(0.437311 0.309437 -1.38699e-18)
(0.234978 0.164324 0)
(1.93464 0.152786 1.1522e-19)
(1.13584 0.0931277 0)
(1.72378 0.11836 0)
(0.883469 0.0226564 0)
(0.678439 0.0857564 0)
(0.699948 0.0460733 -5.40681e-18)
(0.346832 0.0325998 1.99877e-18)
(0.00914098 0.807274 1.69425e-18)
(0.0022208 0.462506 4.08163e-20)
(-0.0108777 1.40842 -3.58101e-20)
(0.00613616 1.38675 1.36623e-18)
(-0.0149832 0.848955 6.29608e-20)
(-0.0119261 0.524486 -2.52973e-22)
(-0.107514 1.00068 -1.16518e-18)
(-0.0529602 1.3532 8.34204e-19)
(-0.0175323 1.35275 -1.35812e-18)
(1.42262 -0.0170964 0)
(1.44228 0.0203045 0)
(0.769819 -0.000186447 0)
(1.4522 0.0253789 0)
(1.36323 0.0462263 0)
(0.761558 0.0203042 0)
(1.30069 -0.00216076 0)
(1.31873 -0.00585652 0)
(0.695088 -0.000991928 0)
(0.305522 0.474436 -9.15646e-19)
(0.161684 0.24315 0)
(0.157679 0.309341 1.37081e-19)
(0.310614 0.587696 1.12319e-18)
(0.308306 0.55014 -6.64916e-19)
(0.157275 0.282649 1.29928e-18)
(0.279695 0.720714 2.18437e-18)
(0.148934 0.382388 3.94203e-19)
(0.63649 0.213246 1.53742e-18)
(0.626423 0.253784 3.9931e-19)
(0.316783 0.115101 7.49265e-19)
(1.91909 0.713414 -5.99801e-19)
(1.16654 0.335606 -7.01967e-19)
(-0.0355528 1.71116 4.64289e-19)
(-0.0117751 0.929069 0)
(1.60348 0.0238707 0)
(1.52162 0.0653298 0)
(0.852755 0.0268248 0)
(-0.00355885 1.38473 0)
(0.0050741 0.729574 2.49586e-18)
(0.00465033 0.731252 0)
(0.00207076 0.415097 -2.44288e-18)
(-0.0102753 1.38626 5.95836e-19)
(-0.00947278 1.4225 0)
(0.33724 0.489106 2.58062e-19)
(0.360714 0.54738 -8.63329e-19)
(0.172165 0.25828 7.81427e-19)
(-0.0256761 0.767446 -1.66321e-18)
(-0.026149 0.689713 0)
(-0.0154347 0.41292 0)
(0.0295811 1.54785 -1.27693e-20)
(0.0307454 1.57865 -3.64072e-19)
(0.0175492 0.822035 -1.55633e-20)
(0.21465 1.04957 8.91482e-19)
(0.120301 0.511508 -5.93236e-19)
(0.0118352 1.49344 7.3153e-19)
(0.0561188 1.35891 -8.16568e-19)
(0.0269215 0.764859 3.54507e-20)
(0.00750969 1.36614 -3.80879e-18)
(-0.00021795 1.39326 4.4108e-18)
(0.00377293 0.829776 1.73346e-18)
(-0.013831 0.805092 -1.72595e-18)
(-0.00430957 0.481399 -1.73909e-18)
(-0.0106518 1.41685 -4.50117e-18)
(-0.0152188 1.40032 4.59039e-18)
(0.287551 0.677372 0)
(0.300888 0.636802 -2.29012e-18)
(0.152511 0.332837 9.91428e-19)
(0.282642 0.799532 1.18678e-18)
(0.139515 0.429446 -1.83116e-18)
(2.05572 0.322168 4.15789e-19)
(2.04982 0.546951 0)
(1.21778 0.220715 -4.01772e-19)
(-0.0744227 1.6402 -4.79817e-21)
(-0.0148632 1.6971 0)
(-0.0160676 0.925278 0)
(0.228242 0.949224 -3.2327e-19)
(0.249493 0.870697 -7.07974e-19)
(0.129458 0.465478 1.32674e-18)
(3.16442 -0.442874 0)
(3.34728 -0.414687 1.8126e-18)
(0.0578597 3.50053 0)
(0.0461799 2.82549 0)
(3.15926 0.249913 1.41916e-20)
(3.12355 0.506293 3.7117e-18)
(0.0198316 3.41535 -2.74789e-20)
(0.00801109 2.64885 0)
(-0.0416176 1.19605 1.55559e-18)
(0.190616 1.31725 0)
(3.46964 1.62276 -3.24785e-19)
(3.17428 0.272566 -2.96099e-20)
(3.14836 -0.118707 0)
(3.10047 -0.000407087 3.72818e-22)
(0.0428563 2.57925 0)
(0.15758 3.31635 0)
(-0.0566513 2.53144 0)
(-0.0256154 3.49574 3.15653e-19)
(-0.028054 3.5711 1.99196e-19)
(2.6337 0.0487686 -1.36469e-20)
(3.0473 0.0310798 0)
(3.15753 0.0867141 0)
(-0.0587132 4.6167 0)
(-0.0484846 3.07332 0)
(-0.0747551 2.94554 0)
(0.649625 3.09181 2.6631e-19)
(3.33884 -0.422463 0)
(3.0114 -0.345813 0)
(3.1699 -0.0530406 2.27694e-18)
(3.2927 -0.328703 -2.74169e-18)
(3.1038 -0.125779 0)
(-0.0650056 4.51946 0)
(0.0102923 3.9487 0)
(0.00136533 4.27533 0)
(-0.0300702 3.10733 0)
(-0.0158776 2.86648 0)
(-0.032692 2.43919 0)
(2.97416 -0.00319409 0)
(2.85049 0.0486069 -1.80496e-20)
(2.24181 3.04089 -3.22251e-19)
(3.15695 0.0444516 -2.278e-18)
(3.19037 0.278177 2.76904e-18)
(3.0828 0.117336 0)
(3.3954 0.328917 2.08703e-18)
(3.35696 0.484363 -2.70624e-18)
(3.07111 0.418427 0)
(-0.0575015 3.33533 0)
(0.0034353 3.26132 8.52632e-20)
(-0.0316891 2.56243 -6.03871e-20)
(3.70662 0.554675 2.26525e-18)
(3.47029 0.208211 0)
(-0.151892 1.27128 -2.16674e-18)
(-0.0623163 0.882162 -1.35087e-19)
(-0.0846232 1.33684 2.98673e-18)
(-0.0351158 1.27052 -8.99955e-19)
(-0.000373615 1.08851 0)
(-0.0266736 1.23953 6.9511e-19)
(-0.115026 1.38787 2.14735e-18)
(-0.0590287 1.34056 -1.31462e-18)
(-0.0767567 1.32063 0)
(1.29063 0.597712 0)
(1.17883 0.683113 0)
(3.55418 2.02668 9.53653e-19)
(3.04598 1.93262 -1.19078e-18)
(3.83609 1.70449 0)
(3.38144 1.15536 0)
(3.34935 0.280485 -3.91631e-18)
(2.89886 0.173113 4.83913e-18)
(3.35143 -0.155493 0)
(2.85476 -0.0761458 0)
(3.43642 0.0430143 0)
(3.59381 0.145044 0)
(3.28683 0.119868 0)
(3.55033 0.298571 0)
(3.40841 0.293053 0)
(3.32755 0.218067 0)
(0.096162 2.78078 0)
(0.0340006 2.07133 0)
(0.12475 3.03996 0)
(0.0916721 2.19536 0)
(0.214605 3.60908 0)
(0.140524 2.68843 -5.59186e-19)
(0.0523565 3.62538 0)
(0.0109892 3.02995 4.05821e-19)
(-0.0260352 3.2148 -5.16901e-19)
(-0.0614693 2.79753 0)
(-0.0242122 2.20166 0)
(-0.0745472 2.90279 0)
(-0.0563641 2.04632 0)
(-0.11236 4.75095 -2.45366e-19)
(-0.0833892 3.94321 2.77117e-19)
(-0.077389 3.8077 3.08847e-19)
(-0.0539733 3.02156 0)
(-0.107982 3.80387 -4.58455e-19)
(-0.0393076 3.2141 -2.94836e-19)
(-0.0869124 4.78298 1.92447e-19)
(-0.0992078 4.46632 -3.5027e-19)
(-0.073395 4.33795 -3.78657e-19)
(3.03159 0.0882974 3.35805e-18)
(2.28979 0.0321568 -4.22909e-18)
(2.89163 0.132759 -3.32698e-18)
(2.20993 0.0734506 4.15559e-18)
(3.36842 0.0276337 0)
(2.64291 -0.00267757 0)
(3.45388 0.0911967 0)
(3.32003 0.0191924 0)
(2.70636 0.00917038 0)
(3.67984 0.239311 0)
(3.43846 0.0958082 0)
(2.8631 0.0563988 0)
(-0.0280496 4.32075 -1.20555e-20)
(-0.0621544 4.6494 0)
(-0.0676553 4.5385 0)
(-0.078524 3.49528 8.77279e-20)
(-0.0387705 2.77078 -3.46324e-21)
(-0.0873332 4.66832 1.13652e-19)
(-0.100689 4.4617 -1.14849e-19)
(-0.0833148 3.9635 0)
(-0.0612895 3.88645 0)
(-0.0259508 4.00334 0)
(-0.0746774 3.26552 0)
(-0.0439131 2.309 0)
(0.945425 3.64715 -6.09528e-19)
(0.917022 2.84031 -1.76678e-19)
(0.432903 2.06315 -2.28549e-19)
(0.253799 2.31156 6.98029e-19)
(1.02635 4.20791 2.6381e-19)
(3.43307 -0.167435 0)
(3.32213 -0.256553 0)
(2.88326 -0.189519 0)
(3.47032 -0.0643571 0)
(3.34581 -0.147871 0)
(3.44893 -0.261029 0)
(3.5195 -0.283608 0)
(3.57949 -0.281139 0)
(3.22419 0.0933583 3.61836e-18)
(2.55524 0.0645057 -4.57536e-18)
(3.09657 0.106544 -3.56181e-18)
(2.5092 0.0566539 4.43188e-18)
(2.23687 3.4083 0)
(1.73422 2.93735 -4.46268e-19)
(2.56459 3.34268 -4.03518e-19)
(2.36394 2.52257 5.36274e-19)
(0.776732 1.21607 2.7236e-18)
(1.44739 0.216507 1.34298e-18)
(3.72193 0.303852 0)
(3.89234 0.572182 -1.84579e-18)
(3.29799 0.243654 -8.23263e-20)
(3.72142 0.439772 0)
(0.237596 1.31279 1.79676e-18)
(-0.0162113 1.20216 -2.87737e-18)
(0.059236 0.77009 1.61513e-18)
(0.276532 0.465196 -7.48112e-19)
(0.187827 1.38451 8.71323e-19)
(0.050937 1.23746 0)
(0.0579552 1.08658 -1.13271e-18)
(0.192468 1.44353 -4.09365e-18)
(0.330102 1.55784 0)
(0.0086635 1.2902 1.19624e-19)
(-0.00972622 1.45729 -1.34064e-18)
(-0.0410244 1.30282 1.949e-18)
(-0.0574622 1.41766 0)
(-0.020492 1.38227 0)
(0.682623 1.05198 0)
(2.46136 2.45721 -1.06627e-18)
(2.6393 2.16864 3.95314e-19)
(2.78935 2.87728 0)
(3.21195 3.06288 -3.94459e-19)
(3.16302 2.40779 2.84229e-20)
(0.804901 0.590214 -1.82285e-18)
(1.55739 0.691935 -1.62309e-20)
(1.23392 0.451313 8.72109e-19)
(1.27676 0.844559 5.95117e-20)
(0.94004 0.634574 -2.36981e-18)
(1.4658 0.714759 0)
(1.99233 1.10055 1.45594e-18)
(2.03433 1.01644 0)
(1.41354 0.791425 0)
(1.06305 0.550162 0)
(3.37788 2.17955 1.00815e-18)
(3.94652 0.760026 -1.86303e-18)
(3.84645 1.21475 0)
(3.53188 0.756887 0)
(1.39226 0.364931 1.33236e-18)
(3.26069 1.84233 -8.51416e-19)
(2.83749 1.65494 1.54662e-18)
(3.75658 1.37646 -1.83542e-18)
(3.09797 0.114738 2.46354e-18)
(3.16858 0.180803 -2.57851e-18)
(2.66187 0.0916342 0)
(3.30725 -0.0395278 0)
(3.20138 -0.0842747 -2.36611e-18)
(2.63238 -0.0321195 2.34527e-18)
(3.95631 0.0931448 0)
(3.75973 0.145609 0)
(3.69369 0.155357 0)
(3.58831 0.204732 0)
(3.83261 0.0590064 0)
(3.7261 0.0522338 0)
(-0.0414603 2.5049 0)
(-0.0385322 2.00608 0)
(0.354396 3.97696 -4.10761e-19)
(0.65966 3.31947 -1.60193e-19)
(0.25735 3.01496 -3.58306e-19)
(0.341776 2.53614 5.73982e-19)
(0.45553 4.00311 0)
(0.468531 4.66921 -5.0957e-19)
(0.382479 4.72694 0)
(0.913336 4.38159 -3.79489e-19)
(0.67646 3.828 9.69295e-19)
(0.596554 4.64825 4.46593e-19)
(0.738716 4.19037 -1.87448e-19)
(0.600134 4.3159 1.50803e-19)
(0.915748 4.65151 -6.63404e-19)
(0.748053 4.66092 0)
(0.85914 4.5875 5.044e-19)
(0.00327868 4.5781 -1.81057e-19)
(-0.0208005 3.65827 0)
(0.0987566 4.29602 5.49289e-19)
(-0.00563167 4.39895 0)
(-0.00524212 3.47204 -4.5127e-19)
(-0.0163233 2.92509 0)
(-0.105188 4.3037 -2.89036e-19)
(-0.11134 4.67944 0)
(-0.0562972 3.79979 0)
(-0.0436653 3.7226 3.25059e-19)
(-0.0504105 3.89477 1.03592e-20)
(-0.0375404 3.71874 6.25689e-19)
(-0.0426383 2.95798 4.06576e-21)
(-0.120096 4.70981 1.8006e-19)
(-0.109219 4.74143 1.03124e-19)
(-0.0187682 2.62541 0)
(-6.54878e-05 2.13865 0)
(-0.046227 4.78879 4.85687e-19)
(-0.0524629 4.30272 4.23223e-19)
(-0.0877931 4.58117 -5.53329e-19)
(0.0123833 4.75561 0)
(-0.0846245 4.52926 -3.08784e-19)
(-0.122925 4.16049 1.27527e-19)
(-0.0897268 4.2444 -4.1284e-20)
(-0.0768566 4.728 -2.18733e-19)
(-0.0907566 4.26764 -6.84841e-20)
(-0.0885268 4.21397 3.06439e-19)
(2.87155 0.0609857 -2.36316e-18)
(2.85906 0.0496517 2.27263e-18)
(2.33874 0.0345335 0)
(3.5105 0.19185 3.04598e-18)
(2.70412 0.126468 -3.30421e-18)
(2.25492 0.0644305 3.60898e-18)
(3.68297 0.335077 -4.01568e-19)
(3.20982 -0.048557 0)
(3.17202 -0.0136029 2.23667e-18)
(2.69081 -0.0123978 -2.21904e-18)
(3.87853 0.122046 -1.25218e-19)
(3.7716 0.101714 1.07816e-18)
(4.15962 0.173224 0)
(4.22838 0.180879 -3.7507e-19)
(4.01382 0.145056 0)
(3.6951 0.155275 0)
(4.03232 0.0950129 0)
(3.71185 0.0872698 0)
(4.18472 0.113709 7.85368e-19)
(4.13723 0.0789999 -1.74763e-18)
(4.14058 0.113719 -8.47874e-19)
(4.18634 0.116352 -9.24337e-19)
(4.21556 0.228703 1.77377e-18)
(3.8545 0.188422 0)
(4.06095 0.301503 0)
(-0.0792288 4.57393 -1.35875e-19)
(-0.0376477 4.63855 -1.16921e-20)
(-0.0723044 4.65721 0)
(-0.0605377 4.18759 1.38285e-19)
(-0.0586644 4.21259 2.25521e-20)
(-0.0625287 4.07889 -2.18756e-20)
(-0.082922 3.52493 2.6096e-19)
(-0.148023 4.00176 -1.45095e-20)
(-0.107213 4.13142 7.47079e-20)
(-0.0769034 3.39735 -1.32249e-19)
(-0.0261581 2.92123 1.58373e-19)
(-0.0820337 4.43276 5.18838e-21)
(-0.0956622 4.64204 1.71998e-19)
(1.24233 4.34906 3.47609e-19)
(1.15908 4.52228 7.25338e-19)
(1.73266 3.45515 4.31532e-19)
(1.30428 3.54671 1.6984e-19)
(1.28109 2.87741 0)
(0.551659 2.32993 2.75228e-19)
(0.465937 1.74997 3.31177e-19)
(0.346931 2.58071 1.5219e-20)
(0.49475 3.18882 -1.16173e-18)
(0.635892 3.14634 8.77434e-19)
(0.435366 2.41642 0)
(0.295481 1.98256 -5.58067e-19)
(0.260515 3.09209 1.39625e-18)
(0.274305 2.7329 -3.15754e-20)
(0.158566 2.28864 -1.75025e-18)
(0.594056 1.41642 1.46484e-18)
(0.579345 1.62393 0)
(3.58364 -0.0751622 8.64222e-20)
(3.61861 -0.254112 -7.25873e-20)
(3.72134 -0.217728 -1.26638e-18)
(3.75926 -0.126038 1.28226e-18)
(3.67616 -0.0488741 0)
(2.44634 3.86585 0)
(2.61922 3.91095 0)
(2.89003 3.62105 0)
(2.7382 3.63986 0)
(0.856814 1.39802 -3.32663e-21)
(0.613325 1.04186 0)
(1.71594 3.39193 1.50246e-20)
(1.42681 3.47152 0)
(1.33264 2.95998 -1.28465e-18)
(1.41324 2.90119 8.24972e-19)
(1.79209 0.310469 0)
(1.43115 0.262097 3.52028e-19)
(2.41251 0.358818 2.19146e-18)
(1.7868 0.28484 -7.85332e-19)
(1.42685 0.112198 -2.49464e-18)
(4.2662 0.789301 -2.56495e-18)
(3.85315 0.994613 -3.67013e-20)
(3.29851 0.844328 2.06747e-18)
(3.87676 0.744979 1.81295e-18)
(3.12406 0.465529 -3.04453e-18)
(2.91126 0.45206 3.7493e-19)
(3.19383 0.682217 -8.18581e-19)
(2.97732 0.683201 0)
(3.75954 0.563614 1.53737e-18)
(4.09625 0.628857 0)
(4.09182 0.775802 0)
(4.04531 0.415466 8.23534e-19)
(4.29652 0.641946 -3.02627e-20)
(4.24888 0.715069 -4.52793e-19)
(4.17599 0.642479 0)
(3.61594 0.130258 1.71788e-18)
(4.19005 0.18332 2.14381e-18)
(4.09081 0.151453 -1.67912e-18)
(4.13671 0.24057 -1.44259e-18)
(3.74605 0.237983 -2.156e-18)
(3.30368 0.375822 0)
(3.40397 0.3022 0)
(2.5587 0.190584 -1.26585e-18)
(2.10906 0.119082 4.76692e-19)
(4.03748 0.352318 1.93997e-18)
(4.28758 0.432337 -2.34611e-18)
(4.28505 0.488945 2.06855e-18)
(4.15743 0.49299 0)
(4.25652 0.336832 0)
(4.26635 0.322145 -9.81616e-19)
(4.21435 0.315809 -1.59621e-18)
(2.23264 3.49065 6.20347e-19)
(1.94392 3.2362 -6.8348e-19)
(1.4505 2.36063 -1.03231e-18)
(1.18984 2.0002 2.66945e-19)
(0.886395 1.38152 -2.63007e-18)
(0.795671 1.21804 9.22509e-19)
(0.602271 0.905986 -1.93447e-21)
(1.11775 1.78848 -1.13833e-18)
(1.14541 1.88614 1.69932e-18)
(0.976889 1.70318 5.06259e-19)
(0.787776 1.29105 -5.12878e-19)
(0.636702 1.07625 0)
(2.45061 2.60911 -1.15426e-19)
(0.70712 1.14525 8.57557e-19)
(0.929572 0.891148 1.1565e-18)
(0.756858 0.814705 1.33824e-18)
(1.08472 0.747519 1.3414e-18)
(1.46939 1.04577 -2.27068e-18)
(1.38541 1.07282 1.83978e-18)
(1.00344 0.766694 -6.76931e-19)
(0.818185 0.568776 1.49497e-18)
(1.61669 0.491034 -7.78051e-19)
(1.56028 0.508689 0)
(1.24047 0.407604 4.61961e-21)
(2.51252 1.5169 7.75583e-19)
(2.08277 1.27132 -2.80871e-18)
(1.68942 1.18589 9.14085e-21)
(1.66323 1.09354 0)
(2.8663 2.59597 8.73642e-19)
(3.44804 2.75092 1.03703e-18)
(3.25747 2.92962 -1.19546e-18)
(3.55437 2.7611 -4.28213e-19)
(3.48306 2.59972 -1.34859e-19)
(3.51187 2.79153 1.38742e-19)
(3.67617 2.26542 -1.67895e-18)
(3.70527 2.49038 4.00722e-19)
(3.78303 2.43312 0)
(3.78348 2.18892 -5.79575e-19)
(4.04954 1.07264 5.80433e-19)
(4.27563 0.992191 1.00198e-18)
(4.30028 0.965895 1.01147e-18)
(4.05561 1.32837 -1.14939e-18)
(4.10243 1.3483 0)
(4.1519 1.2323 0)
(3.32972 1.23556 -1.55697e-20)
(2.41943 0.66667 0)
(2.72356 0.744095 9.30555e-19)
(3.23993 0.885673 -2.6425e-20)
(3.77435 1.53401 5.10631e-18)
(3.57177 1.76136 1.31082e-18)
(3.48305 1.54021 -1.34045e-18)
(3.03995 1.36994 1.43721e-18)
(2.76346 1.3701 8.23719e-19)
(2.30919 1.15662 -7.97756e-19)
(3.67218 -0.0855734 1.98434e-18)
(3.89469 -0.0289648 0)
(3.85894 -0.0665794 1.34187e-18)
(3.7429 -0.0594377 -2.98731e-18)
(3.98056 0.0373336 1.46175e-18)
(3.90445 0.113385 -3.08248e-18)
(3.73988 0.127991 0)
(3.55628 0.173444 -6.28452e-19)
(3.81198 0.122955 1.60504e-18)
(3.69196 0.191361 -8.22437e-19)
(3.60031 0.171056 5.90627e-19)
(-0.0818299 2.58689 0)
(-0.0496855 3.39172 0)
(-0.033108 2.45627 0)
(-0.0223916 1.96687 0)
(0.0434879 3.93139 6.70039e-19)
(0.137982 3.7114 -1.7288e-19)
(0.315024 4.63841 -2.29502e-19)
(0.250191 4.4506 2.42325e-19)
(-0.0288495 4.2871 -4.97068e-19)
(0.00840208 4.31913 3.73276e-19)
(0.0928458 3.85971 2.2357e-20)
(0.00725227 3.54712 -4.66791e-19)
(-0.0146915 3.30067 -6.22218e-20)
(-0.0423415 3.66341 -5.66834e-20)
(0.151087 4.48298 -5.8663e-19)
(0.176904 4.29887 0)
(0.27375 4.64 2.96309e-19)
(0.266164 4.70988 2.52959e-19)
(0.595895 4.45022 -2.25912e-19)
(0.40981 3.79609 0)
(0.459093 3.64253 -1.1157e-18)
(0.562943 4.01139 7.90534e-19)
(0.479957 4.56679 -6.14712e-19)
(0.36974 4.44148 3.30713e-19)
(0.299808 4.16865 0)
(-0.0393917 4.76338 -5.52637e-19)
(-0.078489 4.53306 -6.41173e-19)
(-0.0801911 4.74279 0)
(-0.0322646 4.36768 -6.24809e-21)
(-0.0225292 4.64696 2.73996e-19)
(-0.122504 3.87905 4.46917e-20)
(-0.0586215 3.48633 -6.53572e-19)
(-0.0998261 3.92433 1.74318e-19)
(-0.141057 4.5145 2.32074e-19)
(-0.0806412 4.32383 0)
(-0.0645408 3.88667 0)
(-0.0845782 2.90562 2.01028e-19)
(-0.0513985 3.63618 -6.27224e-20)
(-0.076598 3.6224 0)
(-0.0900154 2.69217 1.58288e-19)
(-0.0475716 2.1997 -3.06692e-19)
(3.76097 0.032272 0)
(3.73183 0.00767147 -2.03247e-19)
(4.17948 0.0678361 -1.43973e-18)
(4.08904 0.0461877 0)
(3.87622 0.0177086 0)
(4.14973 0.0369668 -1.25192e-20)
(4.10029 0.0348729 2.37858e-18)
(4.00014 0.0801196 2.84524e-18)
(3.75594 0.118593 0)
(3.55812 0.109986 0)
(4.01338 0.0938351 1.41726e-18)
(3.70336 0.116041 0)
(3.47224 0.128804 0)
(-0.0880782 4.69692 0)
(-0.113889 4.66504 1.06831e-20)
(-0.0846189 4.71628 6.29851e-20)
(-0.0658373 3.83667 0)
(-0.119087 4.53637 1.11175e-19)
(-0.074757 4.24597 -6.33925e-20)
(-0.0598941 3.93698 0)
(1.41543 4.19239 0)
(1.20979 4.57701 -1.29734e-18)
(1.22612 4.48885 0)
(1.575 4.4822 1.48412e-18)
(1.59125 4.10997 0)
(1.50024 4.36363 -6.06458e-19)
(1.01586 2.25004 -3.39805e-20)
(0.712458 1.65144 -1.74648e-18)
(0.593106 1.2318 2.13072e-18)
(0.712329 1.84283 3.9729e-19)
(0.979849 2.43373 0)
(1.04139 2.38824 0)
(0.72166 1.69403 0)
(0.53479 1.33567 -1.39693e-18)
(1.21498 3.78425 -9.83965e-19)
(1.13417 2.99971 -2.35671e-19)
(1.33303 3.41467 1.9274e-19)
(0.602311 2.05054 0)
(0.623402 1.95132 0)
(0.464639 1.57856 -3.93291e-19)
(0.962362 2.73129 0)
(2.69039 3.57024 0)
(2.38654 3.01115 -1.45454e-18)
(2.55074 3.02867 -8.58648e-20)
(2.42512 3.40635 0)
(2.29152 3.15287 2.2211e-18)
(3.27993 3.08505 -3.89625e-19)
(3.13412 3.3211 0)
(3.11646 3.14728 6.30315e-19)
(2.87243 3.41135 0)
(2.88519 3.20061 0)
(1.21342 2.01176 -9.30956e-19)
(1.41887 2.40922 -6.99789e-19)
(1.75948 2.98789 1.20623e-18)
(1.70184 2.96649 -3.62397e-19)
(1.06611 1.8274 0)
(1.21118 2.21477 4.71339e-19)
(0.720749 1.29234 -7.15732e-19)
(0.583487 1.04652 -5.98593e-22)
(1.94379 3.70126 0)
(2.20488 3.74541 -5.42502e-19)
(2.34253 3.98639 0)
(2.28528 0.529019 0)
(1.61824 0.342006 0)
(1.20976 0.276699 0)
(2.21046 0.554343 -1.46509e-18)
(1.63636 0.402353 8.1718e-19)
(2.14625 0.129091 -9.85004e-19)
(2.62738 0.297463 0)
(2.46646 0.301606 4.13426e-19)
(1.7705 0.13571 1.63275e-18)
(1.53076 0.0812683 -1.03688e-18)
(0.74719 1.55819 8.58341e-19)
(0.96224 1.82322 0)
(0.538767 1.44189 1.56147e-18)
(0.525253 1.61635 -1.42576e-18)
(0.759265 1.8164 -9.88762e-19)
(2.07857 2.4657 1.33798e-18)
(2.10232 2.7156 0)
(1.58739 1.68073 -2.76416e-19)
(2.01413 1.9921 1.74524e-18)
(1.3628 1.29465 -4.23663e-19)
(1.59178 1.31539 4.50802e-19)
(2.11311 1.51481 1.02329e-18)
(2.44645 1.67234 0)
(2.28012 1.85807 0)
(2.01361 1.60802 0)
(3.95699 2.07775 3.84468e-19)
(3.76133 1.88877 -1.26326e-18)
(3.81875 2.02669 1.04641e-18)
(3.90208 1.77013 -1.00809e-18)
(4.1576 1.67228 0)
(4.11642 1.83912 -2.97779e-19)
(2.84295 1.16356 -1.89712e-18)
(2.97309 1.16351 -2.41268e-18)
(2.33431 1.04404 1.4563e-18)
(2.14035 0.934939 -1.4198e-18)
(2.46547 0.846403 -1.17803e-18)
(2.18047 0.77734 1.44873e-18)
(4.00844 0.0334286 -1.52865e-18)
(4.05275 0.0406322 3.12972e-18)
(3.76794 -0.0659228 1.90061e-18)
(3.79116 -0.0738163 -2.28643e-18)
(3.95951 0.0105011 0)
(4.05602 0.022803 -3.72922e-18)
(0.0926347 4.76121 1.06582e-19)
(0.0635354 4.72936 0)
(0.186629 4.73159 9.52473e-19)
(0.208135 4.74814 -8.6652e-19)
(0.227988 4.71334 4.27989e-19)
(0.118798 4.65263 0)
(-0.108146 4.76995 0)
(-0.113616 4.40338 -6.18905e-20)
(-0.11276 4.33421 5.54751e-20)
(-0.121576 4.48247 7.26264e-21)
(-0.112274 4.71929 -1.01157e-19)
(-0.0891155 4.70733 5.50283e-20)
(1.88094 4.01267 -1.64292e-18)
(1.82143 4.02022 1.74006e-18)
(1.68547 4.40305 -8.53763e-19)
(1.69769 4.28036 7.61345e-20)
(2.25286 4.08078 0)
(1.85346 4.21187 -6.35721e-19)
(1.98021 3.9511 6.16564e-19)
(1.82448 4.37431 8.33965e-19)
(2.07827 4.21671 0)
(2.23058 4.09714 0)
(1.14423 3.6414 1.49579e-18)
(0.831311 2.82332 2.02553e-18)
(0.959316 3.00142 -1.39106e-18)
(0.751078 2.98444 -2.32201e-19)
(0.907371 3.74349 4.66732e-19)
(0.72657 3.3772 -1.13514e-18)
(0.748742 1.47057 -1.21591e-18)
(0.748797 1.32098 0)
(0.604677 1.11799 -1.3364e-18)
(1.11503 2.07024 0)
(1.09222 2.15739 0)
(1.36253 2.1937 -1.09094e-18)
(1.06727 2.01709 -1.03635e-18)
(1.01959 2.03764 1.09906e-18)
(1.0341 1.52107 0)
(1.41409 1.76432 -6.01388e-19)
(1.63163 2.12212 -8.55544e-19)
(1.41482 2.08533 0)
(0.870279 1.82019 7.12729e-19)
(0.782043 1.68092 0)
(2.91028 2.28992 -1.84662e-18)
(3.32165 2.47026 2.60854e-18)
(3.28069 2.1929 -2.59269e-18)
(2.61438 2.02235 -2.31151e-19)
(2.7287 1.9413 -9.74029e-19)
(1.26544 2.19316 7.96432e-19)
(1.31986 2.24852 -1.36033e-18)
(1.45835 2.33297 1.79323e-18)
(1.79537 2.56323 -1.1655e-18)
(1.89474 2.93717 -1.56741e-18)
(1.56788 2.49297 -1.18813e-19)
(1.63806 2.63321 1.37167e-18)
(1.81542 2.69729 9.6642e-20)
(2.02372 3.00303 6.50148e-19)
)
;

boundaryField
{
    wall-4
    {
        type            noSlip;
    }
    velocity-inlet-5
    {
        type            fixedValue;
        value           uniform (3 0 0);
    }
    velocity-inlet-6
    {
        type            fixedValue;
        value           uniform (0 1 0);
    }
    pressure-outlet-7
    {
        type            zeroGradient;
    }
    wall-8
    {
        type            noSlip;
    }
    frontAndBackPlanes
    {
        type            empty;
    }
}


// ************************************************************************* //
