/*--------------------------------*- C++ -*----------------------------------*\
  =========                 |
  \\      /  F ield         | OpenFOAM: The Open Source CFD Toolbox
   \\    /   O peration     | Website:  https://openfoam.org
    \\  /    A nd           | Version:  9
     \\/     M anipulation  |
\*---------------------------------------------------------------------------*/
FoamFile
{
    format      ascii;
    class       surfaceScalarField;
    location    "4.45";
    object      phi;
}
// * * * * * * * * * * * * * * * * * * * * * * * * * * * * * * * * * * * * * //

dimensions      [0 3 -1 0 0 0 0];

internalField   nonuniform List<scalar> 
1300
(
11.2529
1.87548
-5.15827
11.2529
-5.39782
1.87548
-4.60161
4.60161
-1.54869
1.54869
5.71312
5.53974
-3.08084
3.08084
-3.74283
3.74283
-3.29258
3.29258
-1.06194
1.06194
-1.02853
1.02853
0.742658
-0.742658
-3.63998
3.63998
-1.96922
1.96922
-3.51377
3.51377
6.13278
-6.13278
-3.95845
3.95845
-0.906656
0.906656
-4.26398
15.5168
6.98888
6.98888
-2.84314
2.84314
-1.26272
1.26272
1.41034
-1.41034
10.7353
-10.7353
-5.57701
-6.30598
2.00515
-14.4236
-3.39267
-3.39267
-2.7054
2.7054
-0.829928
1.04555
3.55436
-3.55436
-0.860814
0.860814
-4.66116
0.05955
-4.66116
4.46587
0.135744
4.46587
-1.74547
0.196784
-1.74547
4.74388
-4.74388
1.38805
0.160637
1.38805
3.93063
-3.93063
-5.70897
11.4221
5.54389
-5.31963
20.8365
-5.93323
11.473
-3.90084
3.90084
-2.9816
-0.0992401
-2.9816
3.2373
-0.156464
3.2373
-3.98726
3.98726
-3.58539
-0.157447
-3.58539
3.86203
-0.119201
3.86203
3.855
-3.855
-3.32354
0.0309639
-3.32354
3.17172
0.120859
3.17172
0.771042
1.10443
-2.64652
3.69207
-1.10443
0.0424987
1.02614
0.0357985
1.02614
-1.01459
-0.0139395
-1.01459
1.05077
-0.02224
1.05077
0.807007
-0.0643492
0.807007
-0.778122
0.0354637
-0.778122
-8.13856
-8.0979
-3.69805
0.0580796
-3.69805
-1.95854
-0.0106851
-1.95854
2.02002
-0.0507979
2.02002
-2.72688
2.72688
-3.81885
0.305083
-3.81885
4.81615
1.31663
4.81615
5.04696
6.2059
16.2998
-16.2998
10.167
-3.8008
-0.15765
-3.8008
-4.11862
-6.61665
4.11862
-0.16017
-1.01252
0.105863
-1.01252
5.62453
1.36435
5.62453
3.06634
0.105383
-3.06634
0.223194
4.74505
-4.74505
1.74759
1.09556
1.74759
-1.18879
1.18879
1.12654
-0.0757761
-1.12654
-0.136179
1.38598
0.0243609
1.38598
-1.40975
-0.000593168
-1.40975
7.74361
-14.0496
-7.56529
3.51229
0.127685
-3.51229
0.119619
3.68506
-0.130698
3.68506
-3.45147
3.45147
-3.64301
0.0886528
-3.64301
-0.772162
-0.0886521
-0.772162
0.961395
-0.100581
0.961395
-4.80799
0.14683
-4.80799
-4.20684
0.387989
4.20684
0.259026
1.42333
-1.42333
-1.88762
0.14215
-1.88762
-4.78792
-0.0200728
4.78792
-0.0440379
-4.81456
0.0706788
-4.81456
-3.72383
0.080811
3.72383
0.206801
4.58678
1.03774
-4.58678
0.656157
-5.37068
11.5766
-5.88218
11.4261
-3.64008
-0.260762
-3.64008
4.05947
-0.158626
4.05947
3.23842
0.275355
-3.23842
0.25682
3.44521
-0.207906
3.44521
-3.93972
-0.0475366
-3.93972
3.84987
0.137387
3.84987
3.54743
-0.102229
-3.54743
-0.0379523
3.86565
-0.00361376
3.86565
3.89419
-0.0391905
3.89419
-3.74314
-0.11186
-3.74314
3.47085
-3.47085
3.44747
0.0233823
-3.44747
0.123925
-5.07402
5.07343
-0.00799848
-5.06602
1.01814
1.01814
0.875756
-0.0687488
0.875756
-0.864951
0.0868293
-0.864951
8.15653
-15.7218
8.00094
-16.1395
7.19206
-21.6157
7.77236
-15.8703
3.89066
-3.89066
3.86258
0.0280748
-3.86258
0.164528
-1.89617
-0.0623673
-1.89617
-2.48129
-0.245585
-2.48129
3.08322
-0.35634
3.08322
-3.78627
3.78627
-4.14481
0.358536
4.14481
0.67134
3.87042
-0.00476758
-3.87042
0.069613
1.18894
0.199104
-1.18894
0.176426
4.93795
-0.192898
4.93795
-4.29051
-0.454543
-4.29051
-1.8379
-0.0582674
1.8379
-0.0903151
-1.25802
0.0692368
-1.25802
-5.0745
0.00847774
-5.0387
-1.40127
-1.40127
1.30414
4.9962
-3.75723
0.014082
3.75723
-0.0721658
3.61087
0.175405
-3.61087
0.159401
-3.47715
0.00629729
3.47715
-0.0256782
-0.74843
-0.0237322
-0.74843
-1.16881
1.16881
-1.04652
-0.122296
1.04652
-0.0851217
1.58681
-0.163475
1.58681
1.97599
0.0440292
-1.97599
0.0883701
-5.01412
0.199563
-5.01412
4.07502
-0.0155525
4.07502
-4.12346
-0.167049
4.12346
-0.229264
-0.00371504
5.07714
-1.01442
-0.000164446
1.01442
-5.1015
5.10134
-0.756182
0.00775259
0.756182
0.119574
1.0265
0.162288
-1.0265
0.161549
3.87899
-0.0291182
-3.87899
-0.0116716
-2.19714
-0.284153
-2.19714
-3.38576
-0.254316
3.38576
-0.302547
-5.11445
-0.078662
5.19311
-5.13669
1.33669
0.049292
-1.33669
5.15063
-1.29415
-0.129185
1.29415
-0.125335
1.80046
-0.213648
1.80046
5.14879
-0.210844
-5.14879
0.134669
-4.07721
0.137496
4.07721
-0.00219565
-1.97902
-0.218117
1.97902
-0.178565
-13.1265
14.4908
7.70999
-7.00759
-7.042
-13.6242
4.45256
7.12401
14.6196
-12.0514
-9.56424
-11.9318
2.86397
-2.70242
-4.04926
3.98491
22.9197
-22.849
-18.4299
19.1012
20.7325
-20.5257
5.70366
5.71843
18.226
-18.3253
-20.2992
20.0384
18.397
-18.5545
20.881
-20.9286
-24.4239
24.3948
-17.0899
17.1208
-20.43
20.3182
-21.1226
20.8933
-8.1372
-8.0023
16.3436
-16.2855
22.5311
-22.6888
-20.8938
21.1989
10.0445
4.44634
11.0822
-6.24912
11.9528
-5.22386
12.9338
7.78523
-15.9224
7.93658
-14.9786
10.5899
11.9413
-10.4297
-3.19455
-18.0296
17.8989
-17.6304
17.6048
24.0884
-24.0289
-6.16943
11.8879
-5.25664
12.3807
-11.4127
-7.01715
10.0961
4.52351
9.24809
7.09547
-9.37577
-2.55605
-24.2817
24.0709
-25.3376
24.883
0.062413
2.44785
-2.51026
1.32514
-0.817119
3.26497
2.04685
2.13368
2.44926
-2.28697
0.253164
-2.76342
-2.8996
-6.62666
6.76881
6.40621
-6.24557
16.3407
6.57894
16.2967
-16.4254
-6.42355
-16.2259
11.4133
7.68786
11.7719
12.0618
8.6707
12.1426
10.372
-10.3178
-0.0541865
-11.4571
21.8291
1.57007
-18.4742
-13.9507
10.902
7.32401
10.7455
-11.5176
-6.80768
-11.2608
-11.0629
-9.23627
-11.3172
12.0626
7.97577
11.904
-14.7136
14.7114
11.5075
6.88953
11.3883
-11.0612
-7.4933
-11.0992
25.1337
-6.11948
-19.0142
-12.6371
-11.7868
12.4997
8.38131
13.8073
10.5875
13.7956
8.19235
16.9414
-16.5737
4.78689
-10.5894
-6.50041
-10.4655
10.2372
6.88361
10.3581
-11.9412
-8.4888
-11.9271
-12.2348
-8.88775
12.274
8.04414
-12.7296
-12.6079
12.8967
7.99662
7.09146
-16.6557
8.7788
-16.7811
-10.8324
-5.45303
-10.6679
9.85641
6.53102
-16.3874
-6.06602
24.2392
-12.2979
21.0446
-12.8553
-9.83353
-12.7856
-15.7902
-5.10361
-15.4022
-8.45808
8.17392
-9.23233
8.87599
25.4394
-14.851
-10.5884
-12.3648
-8.16091
11.7086
-0.626372
-12.8414
12.7872
-0.8886
12.0452
16.4916
15.8652
-11.0054
-6.62504
-10.846
10.7333
6.87149
10.7396
16.5712
7.51721
16.707
-16.8351
-7.19381
-16.6882
5.46221
-5.55086
6.85116
-6.90942
15.5472
9.33583
-15.3543
-8.92741
22.6403
-10.764
-11.8763
-5.28522
5.72206
-0.436839
-2.02025
-0.695118
0.211538
-2.02363
-2.02563
1.98816
0.145519
5.86758
3.84195
-2.412
2.48123
2.78112
2.70534
-0.194262
2.83118
-2.82343
18.9296
-10.9111
-8.01847
13.9028
-13.9228
-2.78547
-18.3762
15.5908
2.37386
3.77661
-3.67075
-4.93534
-1.69133
-4.84697
3.72113
2.68509
3.92023
2.56528
4.20354
-9.38156
1.84526
7.5363
-6.81628
-4.40032
-12.907
-5.67323
18.5802
16.4351
7.63581
-16.5697
0.343848
6.54115
-6.59195
-1.71416
-11.1928
8.63147
-10.3456
-14.3378
-6.16612
20.5039
-9.63388
-1.21212
9.45848
2.3134
-10.8847
-7.14489
10.7961
1.3465
-11.8551
23.7202
-11.8651
-18.4802
8.55526
13.2738
16.2431
-17.8544
9.25249
8.60186
-4.58054
9.25921
1.48633
9.0513
-20.287
13.4793
12.9276
8.27134
-13.2029
1.94218
-18.3448
23.8938
-20.8373
-3.05647
12.5605
11.3333
12.6238
12.8156
-7.88464
20.5085
-2.95301
-17.8843
21.2978
-13.0265
14.5023
-27.5288
-27.3179
9.43362
-16.861
20.3712
-3.51022
-4.85596
-9.85759
21.7169
-2.03087
-19.6861
9.87314
-13.2667
-12.1162
25.3829
-19.3862
19.6095
-6.53337
-13.0761
-12.1694
-8.75916
12.0319
2.67945
-23.9065
28.6934
-6.96513
9.71532
1.673
9.7117
9.94751
-14.6703
4.72274
9.43867
-15.972
6.7886
-21.4589
-11.134
22.3663
-11.2323
-16.5871
-14.7064
-1.88066
4.64786
24.0455
-15.2353
11.5506
3.6847
8.99744
1.74213
-9.02082
-1.4447
1.17082
16.1531
-17.324
11.5289
11.6343
12.2027
3.95045
10.9367
6.9622
-10.8646
-1.06257
-14.4207
5.53296
-6.37657
-13.7209
19.2539
-15.5017
1.78076
-9.94961
-13.6085
23.5581
-16.45
11.5209
12.1994
18.3923
-18.8951
5.2866
-9.49211
-9.40296
10.2151
-16.5916
7.0884
12.1655
15.085
2.47709
11.5402
10.8261
-18.0713
1.29016
17.9216
-15.3655
3.54437
10.2513
-15.095
0.388577
-10.2793
2.77261
-15.0705
-13.6148
15.5245
-20.6281
-12.0044
14.2813
2.42569
-14.5403
-0.861958
-5.32971
-3.12836
-5.54783
-3.35535
-5.87699
-11.24
-2.05135
-9.18864
6.12257
-6.93936
-4.37785
7.2419
1.63409
-5.4947
5.36552
-6.10676
5.89311
-0.224588
13.0118
15.6406
7.47971
-8.43123
15.9109
-15.091
22.6082
-28.1025
13.0115
14.8573
-22.0511
-13.2452
3.06004
2.40217
2.95946
13.6587
-14.8026
1.14393
-13.6042
17.5033
-3.89913
-20.2588
6.65459
-6.60007
6.32437
0.526784
6.26201
1.83293
7.39198
-9.22491
-5.07649
-5.16681
-8.46835
-12.9841
21.4524
4.76096
-12.4755
7.71457
-12.3656
17.1266
0.261938
-12.7375
17.866
-10.474
18.3928
-12.1037
6.28906
12.1663
21.2058
-9.03956
15.4993
-6.16349
6.41218
-15.4517
-6.5719
-11.2116
18.0953
-12.3464
14.1272
-0.771297
14.8985
-14.1837
3.41968
-1.98097
9.65329
9.87648
15.9511
-12.0007
11.3769
-17.5404
-4.07484
-15.0633
-2.89782
0.794607
-13.3353
12.5407
12.1406
-11.346
-3.60366
9.72793
-6.12428
6.34706
-3.19656
-3.15051
-2.09348
-3.45738
2.11721
0.713974
7.06104
0.552552
-3.74911
-2.27088
-2.15131
10.334
8.59557
-4.67037
4.23353
4.45884
-0.682223
1.22921
2.69102
5.50895
-4.27974
0.803301
4.70565
-2.86745
4.78941
1.75174
-4.83344
-0.0135271
-3.91567
12.5471
3.62063
-6.30571
2.02597
2.49243
-13.4035
18.369
-10.3937
-7.97531
20.8614
3.06628
-13.4599
15.31
-12.9361
7.65154
-13.3248
-5.8084
-18.7445
-12.1656
-10.1076
17.8222
-11.3448
18.9806
3.48437
-19.3245
22.8089
-12.7265
6.56037
-10.3486
12.1003
-4.40011
-5.94844
10.7515
9.75245
-10.5454
-0.647419
0.206107
8.69602
-8.48992
-1.64961
-8.46589
-16.3318
17.6783
-8.24985
17.5023
7.6611
-7.46608
24.9684
6.68129
-14.1474
-11.7989
-13.011
-5.54551
10.6976
-2.0775
-9.02166
-15.1536
9.12388
-0.0725806
-19.739
22.9233
-3.18431
-12.415
-1.06435
13.6248
-18.0139
2.04188
-11.2253
11.698
13.1843
13.1117
-19.6659
-0.0202127
-11.6901
3.21548
-14.9056
14.5488
-6.69153
16.1251
-15.451
11.0732
-13.8169
13.0687
-1.8369
13.4348
-8.71208
5.57941
-14.3386
-11.6591
15.3638
-8.47428
17.0368
-9.94349
26.9803
-16.9086
15.3121
11.6682
-2.8489
-9.93675
-15.0823
12.2334
0.229813
9.94152
17.5723
-10.6101
16.5098
8.57067
-18.0628
-8.02097
-25.226
7.16321
-13.0266
-7.08701
14.2502
11.3053
13.0475
4.84726
-11.6028
16.0895
-17.9702
-4.8572
-8.75762
15.309
-3.07563
9.59498
-18.3526
-5.47551
12.4928
-0.514545
-11.9783
2.35822
-14.3626
5.271
-19.6336
15.3571
-16.219
1.96879
-8.56886
-3.52592
-3.65125
-2.31781
-3.78895
-8.06768
5.74987
-1.41309
3.95242
-12.4335
11.9189
-5.06987
10.8197
-4.43231
-1.11552
4.61088
1.28224
12.102
2.6227
-15.8679
-8.86715
14.4318
-5.56469
1.46685
-10.7126
3.71926
7.79198
13.0694
-23.3827
1.33162
-14.5363
-4.44527
6.84744
5.28266
17.4233
2.62063
7.23853
-0.39109
9.85916
2.56837
2.48324
-10.659
11.8029
1.88171
14.8932
-2.12942
8.41848
4.13259
4.1219
2.47005
6.41803
3.45846
9.8377
0.612795
-4.55401
2.30173
-4.45304
-1.44737
-4.52179
-0.536882
4.10987
-4.64675
10.8045
-2.20896
5.23984
-2.00993
-5.76949
7.77942
-10.0284
-6.45171
-1.74607
-6.0873
8.11328
6.45984
-6.36721
-3.66119
2.11671
-14.2823
11.2081
-11.8555
-2.10302
20.7058
-9.87614
1.38622
-3.31577
-7.07967
-8.771
8.78452
23.9467
1.0217
12.0817
18.7
11.5551
0.944966
11.5361
-15.0464
-9.92272
-15.0666
-0.517806
13.107
5.04572
18.9998
16.7139
13.6383
-4.71433
-22.6845
19.4508
-7.64794
15.5517
-3.57345
-16.0601
14.3574
8.25084
-16.7831
0.564041
-15.4961
-23.144
-0.478695
12.3976
-11.6233
10.5078
7.37939
1.80924
-2.7137
-0.93755
2.836
-0.352754
9.50641
-0.164386
-8.9992
9.16359
-3.94548
2.49811
-0.693106
4.92664
7.08632
4.87736
-4.12184
-8.76859
-8.28712
-5.11641
-16.2624
2.31776
-8.7776
6.27048
-3.77237
3.11997
5.39122
10.6311
-1.74182
-9.60418
7.8661
-4.74613
5.88492
)
;

boundaryField
{
    wall-4
    {
        type            calculated;
        value           uniform 0;
    }
    velocity-inlet-5
    {
        type            calculated;
        value           uniform -11.2529;
    }
    velocity-inlet-6
    {
        type            calculated;
        value           uniform -1.87548;
    }
    pressure-outlet-7
    {
        type            calculated;
        value           nonuniform List<scalar> 8(5.15827 5.39782 11.883 12.4185 16.2365 15.3089 16.1575 14.9644);
    }
    wall-8
    {
        type            calculated;
        value           uniform 0;
    }
    frontAndBackPlanes
    {
        type            empty;
        value           nonuniform List<scalar> 0();
    }
}


// ************************************************************************* //
