/*--------------------------------*- C++ -*----------------------------------*\
  =========                 |
  \\      /  F ield         | OpenFOAM: The Open Source CFD Toolbox
   \\    /   O peration     | Website:  https://openfoam.org
    \\  /    A nd           | Version:  9
     \\/     M anipulation  |
\*---------------------------------------------------------------------------*/
FoamFile
{
    format      ascii;
    class       volScalarField;
    location    "6.83";
    object      k;
}
// * * * * * * * * * * * * * * * * * * * * * * * * * * * * * * * * * * * * * //

dimensions      [0 2 -2 0 0 0 0];

internalField   nonuniform List<scalar> 
2268
(
0.000154449
0.000386232
0.000567796
0.000708243
0.000822517
0.000918203
0.000999838
0.00107026
0.00113118
0.00118385
0.00122929
0.00126974
0.00130631
0.00133689
0.00135394
0.00133982
0.00126483
0.00114644
0.00100626
0.000874161
0.000755337
0.000582069
0.000274973
0.000333739
0.000894132
0.00126975
0.00156492
0.00180687
0.00200991
0.00218294
0.00233172
0.00245971
0.00256953
0.00266402
0.00274598
0.00281596
0.002869
0.00289151
0.00285837
0.00273766
0.00252138
0.00226723
0.00200499
0.00174128
0.00132968
0.000616544
0.000474529
0.00119365
0.00165646
0.0020207
0.00232054
0.00257241
0.00278672
0.00297046
0.0031283
0.00326375
0.00338014
0.0034802
0.00356391
0.00362534
0.00365001
0.00361388
0.00348957
0.00327142
0.00300369
0.00270691
0.00236909
0.00184887
0.000867493
0.000594838
0.00143588
0.0019576
0.00236598
0.00270251
0.00298521
0.0032254
0.00343094
0.00360732
0.00375869
0.00388873
0.00400003
0.00409217
0.00415888
0.00418609
0.00415231
0.0040352
0.00382902
0.00356882
0.00326743
0.00290144
0.00233216
0.0011187
0.000700315
0.00165165
0.00222261
0.00266519
0.00302909
0.00333428
0.00359306
0.00381408
0.00400357
0.00416618
0.00430594
0.00442532
0.00452373
0.00459485
0.00462551
0.00459701
0.0044917
0.00430325
0.00405988
0.00376981
0.00340296
0.002817
0.00139261
0.00079617
0.00185156
0.00246787
0.00294
0.00332631
0.0036492
0.00392216
0.00415478
0.00435403
0.00452503
0.00467214
0.00479784
0.00490142
0.00497678
0.00501184
0.00499056
0.00489956
0.00473402
0.004514
0.00424608
0.00389815
0.0033207
0.00172817
0.000886299
0.00204091
0.00270102
0.00320041
0.00360615
0.00394356
0.00422767
0.00446917
0.00467579
0.00485322
0.00500605
0.00513692
0.00524509
0.00532481
0.00536519
0.00535269
0.00527763
0.00513893
0.00494814
0.00471046
0.00439689
0.00386381
0.00220466
0.000973182
0.00222307
0.00292663
0.00345207
0.00387522
0.0042248
0.00451774
0.00476596
0.0049781
0.00516044
0.00531778
0.00545305
0.00556551
0.00564989
0.00569655
0.00569427
0.00563645
0.00552548
0.00536843
0.00516603
0.00489745
0.00446057
0.00308125
0.000303142
0.000734883
0.00099589
0.00112219
0.00119443
0.00122873
0.00126015
0.00128574
0.00126866
0.00115253
0.000986523
0.000811754
0.000664996
0.00068679
0.000781408
0.000763293
0.000580796
0.000406026
0.000212588
0.000555894
0.00155282
0.0020884
0.0023729
0.00253137
0.00261772
0.00267042
0.00268691
0.00261737
0.00241381
0.00210326
0.00179845
0.00153986
0.00151031
0.00161427
0.00153024
0.00121129
0.000863014
0.000336133
0.000708663
0.00199156
0.00265906
0.00301594
0.00321092
0.00331654
0.0033733
0.00337706
0.00327995
0.00304946
0.00272719
0.00239578
0.00211587
0.00203609
0.00206405
0.00192045
0.00153328
0.00107632
0.000422492
0.000901819
0.00236858
0.00311225
0.00349969
0.00370718
0.00381698
0.00386962
0.00386005
0.00374528
0.00350506
0.00318776
0.00285881
0.00257917
0.00245778
0.00241658
0.00222248
0.00178957
0.0012429
0.000512409
0.00113505
0.00276909
0.00353629
0.00392366
0.0041272
0.00423138
0.00427492
0.00425253
0.0041267
0.00388578
0.00357947
0.00326414
0.00299014
0.00283284
0.00273172
0.00249519
0.00203266
0.00141747
0.000607298
0.00142762
0.0032149
0.00395686
0.00431976
0.00450706
0.00459864
0.00462977
0.00459551
0.00446375
0.00422926
0.00393864
0.00364196
0.00337424
0.00318467
0.00302744
0.00275191
0.00226832
0.00161266
0.000707983
0.0018868
0.00371692
0.00438126
0.00470043
0.00486264
0.00493682
0.00495346
0.00490848
0.00477494
0.00455289
0.00428368
0.00400716
0.00374493
0.00352579
0.00331059
0.00299501
0.00248972
0.00182176
0.000815697
0.00282035
0.00427911
0.00480831
0.00507051
0.00520202
0.00525581
0.00525693
0.00520255
0.00507068
0.00486544
0.00462435
0.00436831
0.00410942
0.0038568
0.0035828
0.00322452
0.00269415
0.00202862
0.00093466
0.00109848
0.00250056
0.00327295
0.00383778
0.00428549
0.00465096
0.00495455
0.00521045
0.00542878
0.00561674
0.00577934
0.0059198
0.00603785
0.00612903
0.00618592
0.00620106
0.00617257
0.00610675
0.00600293
0.0058562
0.00565619
0.00535957
0.00479392
0.00126856
0.00287231
0.00373888
0.00435149
0.00482473
0.00520393
0.00551493
0.0057753
0.00599732
0.00618944
0.00635746
0.00650444
0.00663123
0.00673449
0.00680898
0.0068501
0.0068586
0.00684096
0.00679451
0.00670572
0.00656851
0.00638773
0.00613962
0.00145957
0.00325718
0.0042306
0.00486936
0.0053516
0.00573421
0.00604563
0.00630486
0.00652594
0.00671951
0.00689265
0.00704905
0.00718874
0.00730916
0.00740587
0.0074741
0.00751542
0.00753533
0.00752432
0.00747662
0.00738565
0.00727095
0.00714825
0.00165239
0.00362041
0.00480456
0.00536916
0.00583963
0.00622103
0.00653046
0.00678585
0.00700435
0.00720014
0.00738109
0.00755156
0.00771093
0.00785671
0.00798438
0.00808204
0.00815045
0.00820074
0.00820359
0.00818864
0.0081295
0.00804063
0.00795549
0.00192288
0.00401759
0.00519895
0.00572213
0.00622488
0.0066058
0.0069012
0.00716336
0.00740671
0.00762004
0.00781224
0.00800224
0.00818335
0.00835087
0.00849313
0.00858162
0.00863037
0.00867792
0.00872883
0.00875909
0.00872968
0.00868449
0.00862388
0.00212233
0.00419009
0.00537691
0.00588825
0.00650672
0.00692297
0.00720494
0.00746448
0.00772001
0.00795509
0.00816185
0.00836464
0.00855912
0.00873964
0.00889051
0.00899058
0.00904948
0.00910826
0.00916971
0.00925837
0.00927165
0.00921274
0.00912976
0.00240986
0.00417011
0.00531916
0.00593244
0.0065048
0.00696342
0.00732962
0.00765176
0.00794644
0.00820386
0.00843378
0.00865549
0.00885922
0.00903587
0.00918115
0.00928385
0.00935348
0.00941231
0.00946635
0.00952419
0.00957837
0.00955591
0.00949886
0.00240967
0.00410219
0.00521087
0.00594814
0.00654055
0.00703206
0.00744233
0.0077995
0.00811644
0.00839692
0.00864996
0.00888526
0.00909453
0.00927456
0.00942435
0.00953489
0.00961529
0.00967753
0.00973032
0.00977784
0.00981773
0.00982244
0.00980242
0.00240864
0.00407995
0.00519687
0.00597012
0.00658045
0.00709607
0.00753744
0.00792195
0.00826028
0.00855886
0.00882595
0.00906817
0.00928596
0.00948204
0.00964868
0.00977119
0.00985753
0.00992495
0.00998052
0.0100244
0.0100576
0.0100792
0.0100841
0.00240781
0.0040854
0.00520309
0.00599318
0.00662125
0.00715464
0.00761791
0.00802375
0.00838101
0.00869656
0.00897733
0.00922988
0.0094594
0.00966946
0.00985086
0.00998652
0.0100843
0.010162
0.0102252
0.0102721
0.0103054
0.0103286
0.0103368
0.00240897
0.00409967
0.00521809
0.00602125
0.00666565
0.00721419
0.00769319
0.00811513
0.0084884
0.00881955
0.00911427
0.00937879
0.00961926
0.0098384
0.0100294
0.0101806
0.0102967
0.0103904
0.0104655
0.0105203
0.0105569
0.0105801
0.0105887
0.00241279
0.00412298
0.00524524
0.00605815
0.00671561
0.00727674
0.00776819
0.00820318
0.00859006
0.00893506
0.00924311
0.00951975
0.00977063
0.00999805
0.0101983
0.0103656
0.0105017
0.0106133
0.0107028
0.010769
0.0108137
0.0108416
0.0108536
0.00240935
0.00415661
0.00528439
0.00610481
0.00677218
0.00734361
0.00784561
0.00829186
0.00869075
0.00904825
0.00936904
0.00965813
0.00992021
0.0101576
0.0103688
0.0105519
0.010707
0.0108365
0.0109415
0.0110217
0.0110785
0.0111159
0.0111355
0.00241013
0.00419651
0.00533324
0.00616075
0.0068361
0.00741617
0.00792748
0.00838395
0.00879388
0.0091632
0.00949669
0.00979885
0.0100735
0.010323
0.0105473
0.0107458
0.0109186
0.0110658
0.0111874
0.0112834
0.0113552
0.0114056
0.0114364
0.00240868
0.00424172
0.00539004
0.00622504
0.00690765
0.00749554
0.00801547
0.00848155
0.00890219
0.0092834
0.00963001
0.00994607
0.0102348
0.0104984
0.0107374
0.0109521
0.011142
0.0113069
0.0114462
0.0115596
0.0116485
0.0117148
0.0117595
0.00241454
0.00428921
0.00545287
0.00629638
0.00698652
0.00758222
0.00811068
0.00858639
0.00901804
0.00941174
0.00977222
0.0101032
0.0104074
0.0106868
0.0109423
0.0111742
0.0113821
0.0115654
0.0117236
0.0118563
0.0119642
0.0120485
0.0121096
0.0024122
0.0043412
0.00552021
0.00637346
0.00707203
0.0076762
0.0082138
0.00869981
0.0091433
0.00955045
0.00992583
0.0102729
0.0105941
0.0108911
0.0111649
0.0114157
0.0116431
0.0118467
0.0120255
0.0121793
0.0123083
0.0124128
0.0124927
0.00240991
0.00439567
0.00559087
0.00645523
0.00716345
0.00777723
0.00832514
0.00882268
0.00927926
0.00970115
0.0100928
0.0104575
0.0107974
0.0111141
0.0114082
0.0116801
0.0119294
0.0121554
0.0123573
0.0125345
0.0126868
0.0128139
0.0129152
0.00240332
0.00445019
0.00566408
0.00654089
0.00726018
0.00788505
0.00844482
0.00895549
0.00942678
0.00986507
0.0102748
0.0106589
0.0110197
0.0113583
0.0116754
0.0119712
0.012245
0.0124963
0.0127242
0.0129276
0.013106
0.0132586
0.0133842
0.00240886
0.00450557
0.00573931
0.00662995
0.00736182
0.00799943
0.00857284
0.00909853
0.00958649
0.0100432
0.0104731
0.0108791
0.0112632
0.0116266
0.0119697
0.0122925
0.0125943
0.0128744
0.0131316
0.0133648
0.0135726
0.013754
0.0139074
0.00240424
0.00456401
0.00581644
0.00672214
0.00746813
0.00812025
0.00870927
0.00925209
0.00975897
0.0102365
0.0106892
0.0111198
0.0115304
0.0119218
0.0122945
0.0126481
0.012982
0.013295
0.0135858
0.0138527
0.0140942
0.0143085
0.0144937
0.00241231
0.00462285
0.00589529
0.00681732
0.00757901
0.0082475
0.00885424
0.00941654
0.00994488
0.010446
0.0109245
0.0113831
0.0118237
0.0122472
0.0126536
0.0130427
0.0134133
0.0137642
0.0140934
0.0143992
0.0146791
0.0149313
0.015153
0.00241366
0.0046816
0.00597567
0.00691539
0.00769444
0.00838129
0.00900802
0.00959234
0.010145
0.0106729
0.0111806
0.0116711
0.012146
0.0126061
0.0130514
0.0134812
0.0138943
0.0142888
0.0146625
0.0150129
0.0153374
0.0156331
0.015897
0.00240984
0.00473946
0.00605747
0.00701628
0.00781446
0.00852175
0.00917091
0.00978005
0.0103602
0.0109185
0.0114595
0.0119862
0.0125003
0.0130025
0.0134926
0.0139695
0.0144316
0.0148766
0.0153019
0.0157042
0.0160802
0.0164264
0.0167389
0.00241626
0.0047976
0.00614051
0.00711993
0.00793909
0.00866905
0.00934326
0.00998028
0.0105914
0.011184
0.0117629
0.012331
0.0128901
0.0134406
0.0139823
0.0145138
0.0150328
0.0155367
0.0160219
0.0164846
0.0169204
0.0173251
0.017694
0.00241229
0.00485808
0.0062247
0.00722629
0.00806834
0.00882332
0.0095254
0.0101936
0.0108396
0.011471
0.0120928
0.0127081
0.0133187
0.013925
0.0145264
0.0151211
0.0157065
0.0162789
0.0168341
0.0173671
0.0178727
0.0183454
0.0187796
0.00241318
0.00491735
0.0063101
0.00733528
0.00820215
0.00898459
0.00971753
0.0104205
0.0111056
0.0117807
0.0124512
0.0131203
0.0137899
0.0144604
0.0151308
0.015799
0.0164616
0.0171142
0.0177512
0.0183665
0.0189535
0.0195054
0.0200153
0.00240752
0.0049786
0.00639652
0.0074466
0.00834026
0.00915271
0.0099197
0.0106613
0.01139
0.0121142
0.0128397
0.01357
0.0143071
0.0150513
0.0158016
0.0165553
0.0173081
0.0180543
0.0187873
0.019499
0.0201813
0.0208255
0.0214231
0.00240834
0.0050383
0.00648347
0.00755975
0.00848216
0.00932725
0.0101315
0.0109157
0.011693
0.0124722
0.0132595
0.0140591
0.0148731
0.0157021
0.0165447
0.0173976
0.0182557
0.0191119
0.0199575
0.0207827
0.0215767
0.0223288
0.0230281
0.00241459
0.00509623
0.0065701
0.00767357
0.00862663
0.00950714
0.0103523
0.0111833
0.0120142
0.0128545
0.0137111
0.0145887
0.0154901
0.0164161
0.0173651
0.0183332
0.0193143
0.0202996
0.0212781
0.022237
0.0231627
0.0240411
0.0248587
0.00241247
0.00515448
0.00665393
0.00778594
0.00877206
0.00969101
0.0105806
0.0114629
0.0123526
0.0132602
0.0141938
0.0151588
0.0161589
0.0171953
0.0182665
0.0193683
0.0204931
0.0216303
0.0227658
0.0238832
0.0249647
0.0259918
0.0269474
0.00241571
0.00520482
0.00673125
0.00789424
0.00891637
0.009877
0.0108147
0.0117525
0.0127061
0.0136874
0.0147055
0.0157675
0.0168781
0.0180394
0.0192504
0.0205067
0.0217995
0.0231158
0.0244379
0.0257444
0.0270115
0.0282148
0.0293319
0.00242559
0.00524048
0.00679787
0.00799541
0.00905697
0.0100627
0.0110521
0.0120494
0.0130716
0.0141322
0.0152423
0.0164106
0.0176436
0.018945
0.020315
0.0217493
0.0232383
0.0247664
0.0263114
0.0278452
0.0293358
0.0307499
0.0320572
0.00242631
0.0052592
0.00685029
0.00808617
0.00919093
0.0102453
0.0112897
0.0123498
0.0134445
0.0145893
0.0157976
0.0170807
0.0184476
0.0199045
0.0214535
0.0230919
0.0248097
0.026589
0.0284023
0.0302124
0.0319755
0.0336448
0.0351784
0.00241535
0.00525739
0.00688435
0.00816298
0.00931524
0.0104217
0.0115239
0.0126492
0.0138188
0.0150511
0.0163622
0.0177669
0.0192777
0.0209045
0.022653
0.0245233
0.0265072
0.0285852
0.0307239
0.0328746
0.0349757
0.0369593
0.0387646
0.00241029
0.0052278
0.00689476
0.00822247
0.00942742
0.0105894
0.011751
0.0129422
0.0141872
0.0155077
0.0169237
0.018454
0.020116
0.0219247
0.0238917
0.0260227
0.0283138
0.030747
0.0332838
0.035861
0.0383904
0.0407696
0.0429057
0.00240919
0.00516424
0.00687678
0.00826258
0.00952646
0.0107464
0.0119674
0.0132227
0.0145407
0.015947
0.0174662
0.0191223
0.0209383
0.0229366
0.0251372
0.0275554
0.0301969
0.0330506
0.0360773
0.0391977
0.0422854
0.0451779
0.0477226
0.00240964
0.00505299
0.00682593
0.00828423
0.00961398
0.0108926
0.0121696
0.0134839
0.0148687
0.0163546
0.017971
0.0197475
0.0217141
0.0239024
0.026344
0.0290691
0.0321009
0.0354456
0.0390748
0.0428988
0.0467397
0.050328
0.0533845
0.00241001
0.00489667
0.00674408
0.00829314
0.0096943
0.011028
0.0123534
0.0137174
0.0151591
0.0167141
0.0184166
0.0203018
0.0224076
0.0247757
0.0274528
0.0304897
0.0339376
0.0378377
0.0421968
0.0469411
0.0518412
0.0564387
0.0601384
0.00390673
0.00485103
0.00664534
0.00829748
0.00977155
0.011151
0.0125122
0.0139129
0.0153982
0.0170078
0.0187801
0.0207554
0.022979
0.0255033
0.0283915
0.0317195
0.0355776
0.0400648
0.0452681
0.0512017
0.0576559
0.063891
0.0683614
0.0178297
0.00615584
0.00654449
0.00829293
0.00984186
0.0112529
0.0126346
0.0140573
0.015571
0.017218
0.0190394
0.0210795
0.0233893
0.0260305
0.0290812
0.0326427
0.0368484
0.0418743
0.0479443
0.0553064
0.064074
0.0734948
0.0786383
0.0840211
0.0140119
0.00663579
0.00827946
0.00988955
0.0113155
0.012704
0.0141357
0.0156628
0.0173286
0.0191755
0.0212496
0.0236051
0.0263094
0.0294497
0.0331439
0.0375572
0.0429313
0.0496388
0.0583029
0.0700833
0.08742
0.0917834
0.00334158
0.00281786
0.00274466
0.00310966
0.00587685
0.00574631
0.00570091
0.00574649
0.00706124
0.00701273
0.00697903
0.00696232
0.00790865
0.00788156
0.0078526
0.0078204
0.00861401
0.00859925
0.0085467
0.00848432
0.00909615
0.00907413
0.00903802
0.00898614
0.0094719
0.00943995
0.0094047
0.00937032
0.00977171
0.00974727
0.00972039
0.00969472
0.0100576
0.0100337
0.010009
0.0099849
0.0103197
0.0103028
0.0102827
0.0102608
0.0105788
0.0105678
0.0105527
0.0105343
0.0108491
0.010842
0.0108309
0.0108159
0.0111366
0.0111332
0.0111257
0.0111139
0.0114448
0.0114457
0.0114421
0.0114338
0.0117768
0.0117831
0.0117844
0.0117805
0.0121377
0.0121504
0.0121577
0.0121592
0.0125334
0.0125538
0.0125682
0.0125764
0.0129705
0.0129998
0.0130227
0.013039
0.0134563
0.013496
0.0135288
0.0135546
0.0139988
0.0140505
0.0140949
0.0141318
0.0146073
0.0146728
0.0147306
0.0147804
0.0152922
0.0153737
0.015447
0.0155118
0.0160657
0.0161656
0.0162568
0.0163388
0.0169417
0.0170629
0.0171746
0.0172765
0.0179361
0.0180818
0.0182172
0.0183419
0.0190671
0.0192409
0.0194035
0.0195543
0.020355
0.0205612
0.020755
0.0209357
0.021823
0.0220664
0.0222958
0.0225105
0.0234972
0.0237833
0.0240533
0.0243065
0.0254074
0.0257422
0.0260583
0.026355
0.0275876
0.0279779
0.0283462
0.0286917
0.0300774
0.0305311
0.0309582
0.0313581
0.0329241
0.0334498
0.0339429
0.0344028
0.0361853
0.0367925
0.0373589
0.0378842
0.0399327
0.0406317
0.0412785
0.0418732
0.0442588
0.0450595
0.0457917
0.0464572
0.0492849
0.0501944
0.0510125
0.0517442
0.0551738
0.0561911
0.057085
0.0578664
0.0621481
0.0632509
0.0641878
0.0649813
0.0705095
0.071626
0.0725293
0.0732618
0.0806405
0.0815951
0.0823141
0.0828639
0.0928923
0.0933407
0.0936407
0.0938515
0.00449114
0.00512596
0.00544941
0.00562371
0.00570674
0.00572902
0.00570686
0.00563987
0.00551574
0.00534402
0.00515229
0.00493074
0.00466666
0.00434944
0.00398972
0.00356083
0.00299633
0.00231255
0.00110537
0.00592385
0.00613168
0.00626733
0.00633669
0.00635553
0.00633714
0.00628968
0.00621406
0.00610718
0.00597086
0.00581784
0.00562199
0.00532263
0.00492505
0.00448247
0.0039762
0.00336303
0.00261803
0.00126892
0.00695778
0.00699475
0.00702059
0.00701084
0.00697604
0.00692445
0.00686027
0.00678208
0.00668714
0.00657262
0.00644229
0.00625356
0.00590691
0.00544552
0.00493575
0.00436694
0.00370479
0.0028789
0.00133815
0.00776958
0.00774793
0.00772206
0.00765282
0.00757287
0.00749087
0.00741317
0.0073359
0.00725072
0.00714948
0.00703833
0.00684829
0.00643464
0.00591726
0.00535047
0.00473186
0.00402126
0.00310535
0.00143736
0.00840199
0.00834823
0.00828266
0.0082085
0.00812923
0.00802993
0.00793675
0.00785615
0.00776229
0.007622
0.0074206
0.0072139
0.0069101
0.0062961
0.00565514
0.00500637
0.00425757
0.00325233
0.00151166
0.0089063
0.00884154
0.00877633
0.00867275
0.00856573
0.00846527
0.00838269
0.00830202
0.00819411
0.00800023
0.00772577
0.00750247
0.00709297
0.00654574
0.00594735
0.00530836
0.00453576
0.00350641
0.00165941
0.00931748
0.00927411
0.00921075
0.0090861
0.00896625
0.00885764
0.00875212
0.0086316
0.00846931
0.00823576
0.00794667
0.00766584
0.00726585
0.00671832
0.0061573
0.00554587
0.00478899
0.00379753
0.00187316
0.0096512
0.00959902
0.0095212
0.00940233
0.00927214
0.0091456
0.00901244
0.00883955
0.00862198
0.00836484
0.00808492
0.00779378
0.00737225
0.00682925
0.00624061
0.00561364
0.00488368
0.00394294
0.00203312
0.00994419
0.00987978
0.00978888
0.00966994
0.00953355
0.00939071
0.00922958
0.00901557
0.00876021
0.00847242
0.0081568
0.00781886
0.00742023
0.0069079
0.00629066
0.00562064
0.00487763
0.00392863
0.0020181
0.010222
0.0101545
0.0100628
0.00994377
0.00979889
0.00963529
0.00944148
0.00919932
0.0089146
0.00858996
0.00822313
0.00781893
0.00739441
0.00690019
0.00628055
0.00557386
0.00478806
0.00379028
0.00195371
0.010499
0.0104317
0.0103407
0.0102201
0.0100649
0.0098825
0.00966664
0.00940199
0.00908744
0.00872746
0.00831693
0.00785236
0.00735307
0.00681012
0.00618837
0.00547695
0.00465065
0.0035938
0.00195073
0.0107849
0.0107181
0.0106247
0.0104993
0.0103361
0.0101408
0.00990838
0.00962307
0.00928445
0.00889491
0.00844872
0.00793921
0.00737166
0.00675133
0.00608158
0.0053534
0.00450058
0.0034148
0.00194911
0.0110872
0.0110226
0.0109266
0.0107952
0.0106254
0.0104192
0.0101719
0.00987173
0.00951627
0.0091044
0.00863068
0.00808894
0.00747769
0.00679564
0.00605478
0.00526544
0.00437805
0.00329104
0.00194885
0.0114121
0.0113519
0.0112565
0.0111221
0.0109468
0.0107316
0.0104725
0.0101615
0.00979377
0.00936613
0.00887316
0.00830903
0.00766933
0.00694868
0.00614999
0.00528231
0.00432981
0.00322405
0.00192849
0.0117651
0.0117113
0.0116199
0.0114866
0.0113096
0.0110891
0.0108223
0.0105032
0.0101267
0.00968856
0.00918333
0.00860517
0.00794801
0.00720449
0.00636928
0.00543887
0.00440711
0.00324149
0.00193735
0.0121521
0.0121072
0.0120227
0.0118943
0.0117199
0.0114986
0.0112281
0.0109043
0.0105224
0.0100779
0.00956577
0.00898012
0.00831414
0.00755896
0.00670363
0.00573224
0.00462708
0.00336404
0.0019505
0.0125796
0.0125467
0.0124722
0.012352
0.0121836
0.0119654
0.0116953
0.0113701
0.0109857
0.0105383
0.010023
0.00943448
0.00876593
0.00800777
0.00714562
0.00615565
0.00500179
0.00362789
0.00192836
0.0130548
0.0130371
0.0129756
0.0128667
0.0127073
0.0124955
0.0122291
0.0119054
0.0115211
0.0110728
0.0105565
0.0099676
0.00929985
0.0085442
0.00768572
0.00669803
0.00553532
0.00410489
0.00202604
0.0135854
0.0135864
0.0135412
0.0134464
0.0132988
0.0130961
0.0128359
0.0125158
0.0121332
0.0116852
0.0111684
0.0105791
0.00991208
0.00915958
0.0083081
0.00733254
0.00618346
0.00472817
0.00234974
0.0141804
0.0142036
0.0141781
0.0141003
0.013967
0.0137756
0.0135236
0.0132088
0.0128287
0.0123808
0.0118623
0.0112703
0.0106004
0.00984621
0.00899576
0.00802534
0.00688039
0.00539498
0.00269107
0.0148498
0.0148992
0.0148968
0.0148391
0.0147226
0.0145446
0.0143024
0.0139937
0.013616
0.0131671
0.0126445
0.0120455
0.0113662
0.0106007
0.0097374
0.00875136
0.00757867
0.00602793
0.00305323
0.0156052
0.0156851
0.0157097
0.0156752
0.0155782
0.0154155
0.0151844
0.0148822
0.0145064
0.0140546
0.0135243
0.0129125
0.0122153
0.011426
0.0105314
0.00950441
0.00827631
0.00661065
0.00335384
0.0164601
0.0165752
0.0166309
0.0166231
0.0165482
0.0164029
0.016184
0.0158885
0.0155136
0.0150565
0.0145142
0.0138831
0.0131584
0.0123317
0.0113893
0.0102993
0.00897924
0.00715533
0.00356661
0.0174299
0.0175854
0.0176766
0.0176992
0.0176494
0.0175234
0.0173177
0.0170291
0.016654
0.016189
0.0156302
0.0149728
0.0142109
0.0133353
0.0123282
0.0111519
0.00971085
0.00769942
0.00375247
0.0185321
0.0187337
0.0188653
0.0189222
0.0189004
0.0187959
0.0186047
0.018323
0.0179467
0.017471
0.0168912
0.0162014
0.0153937
0.0144563
0.0133681
0.0120851
0.0105006
0.00828188
0.00395855
0.0197865
0.0200406
0.0202176
0.020313
0.0203224
0.0202416
0.0200662
0.0197918
0.0194132
0.0189249
0.0183203
0.0175918
0.0167293
0.0157181
0.0145332
0.0131253
0.0113781
0.00893411
0.00421155
0.0212157
0.0215288
0.0217568
0.0218949
0.0219388
0.021884
0.021726
0.0214595
0.0210784
0.0205756
0.0199428
0.0191699
0.0182442
0.0171477
0.0158517
0.0143015
0.0123724
0.00968206
0.00452761
0.0228447
0.0232239
0.0235085
0.0236936
0.0237753
0.0237491
0.0236101
0.0233525
0.0229691
0.0224509
0.0217873
0.0209655
0.0199693
0.018777
0.0173555
0.0156453
0.0135122
0.0105467
0.00490578
0.0247017
0.0251545
0.0255012
0.0257375
0.02586
0.0258648
0.0257469
0.0254997
0.0251149
0.0245815
0.0238862
0.0230124
0.02194
0.0206424
0.0190815
0.0171914
0.0148277
0.0115476
0.0053406
0.0268185
0.0273524
0.0277664
0.0280576
0.0282237
0.0282616
0.0281668
0.0279322
0.0275481
0.0270013
0.0262751
0.0253488
0.0241967
0.0227862
0.0210724
0.018981
0.0163543
0.0127091
0.00583192
0.0292312
0.0298534
0.0303391
0.030688
0.0308996
0.0309725
0.0309029
0.0306836
0.0303035
0.0297472
0.0289939
0.0280176
0.0267859
0.0252581
0.0233795
0.0210647
0.018138
0.0140668
0.00639416
0.0319813
0.0326979
0.0332585
0.0336663
0.0339241
0.034033
0.0339905
0.0337898
0.0334187
0.032859
0.0320858
0.0310666
0.0297605
0.0281159
0.0260649
0.0235059
0.0202396
0.0156747
0.00707216
0.035117
0.0359324
0.0365686
0.0370342
0.037337
0.0374816
0.0374678
0.0372894
0.0369336
0.0363795
0.0355977
0.0345483
0.0331801
0.0314271
0.0292033
0.026384
0.022738
0.0176025
0.0079122
0.0386954
0.0396105
0.0403191
0.0408381
0.041182
0.0413601
0.0413755
0.0412233
0.0408905
0.0403539
0.0395795
0.0385196
0.0371106
0.035269
0.0328839
0.0297974
0.0257327
0.0199348
0.00894341
0.0427843
0.0437943
0.0445666
0.0451297
0.0455071
0.0457141
0.0457578
0.0456354
0.045334
0.0448293
0.0440829
0.0430398
0.0416231
0.0397281
0.0372115
0.0338683
0.0293528
0.0227828
0.0102016
0.0474652
0.048556
0.0493751
0.0499669
0.0503655
0.0505937
0.0506626
0.0505724
0.0503112
0.0498543
0.0491607
0.0481692
0.0467906
0.0448975
0.0423069
0.0387481
0.0337719
0.026308
0.0117603
0.052835
0.0539783
0.0548164
0.0554137
0.0558162
0.0560541
0.0561429
0.0560854
0.055872
0.0554787
0.0548646
0.0539655
0.0526836
0.0508709
0.0483016
0.0446212
0.0392263
0.0307533
0.0137318
0.0590067
0.0601536
0.0609696
0.0615408
0.0619249
0.0621575
0.0622578
0.0622311
0.0620701
0.0617541
0.061245
0.0604808
0.0593625
0.0577311
0.0553248
0.0516981
0.0460355
0.0365015
0.0163083
0.0661061
0.0671811
0.0679193
0.0684257
0.0687648
0.0689746
0.0690754
0.0690741
0.0689664
0.0687357
0.0683509
0.0677585
0.0668696
0.0655319
0.0634741
0.0601836
0.0546071
0.0441806
0.0198622
0.0742609
0.0751597
0.0757537
0.076153
0.0764194
0.0765877
0.0766761
0.0766914
0.0766318
0.0764865
0.0762336
0.0758346
0.0752229
0.0742778
0.0727663
0.070193
0.0653662
0.054816
0.0252042
0.0835777
0.0841791
0.0845624
0.084816
0.0849854
0.0850949
0.085157
0.0851769
0.0851544
0.0850842
0.0849547
0.0847456
0.0844208
0.0839129
0.083082
0.0815921
0.0784588
0.0698195
0.0336797
0.0941086
0.0943123
0.0944388
0.0945219
0.094578
0.0946152
0.094638
0.0946482
0.094646
0.0946305
0.0945989
0.0945469
0.094467
0.094346
0.0941569
0.0938262
0.0930485
0.089711
0.0470736
)
;

boundaryField
{
    leftWall
    {
        type            kqRWallFunction;
        value           nonuniform List<scalar> 
50
(
0.000154449
0.000333739
0.000474529
0.000594838
0.000700315
0.00079617
0.000886299
0.000973182
0.00109848
0.00126856
0.00145957
0.00165239
0.00192288
0.00212233
0.00240986
0.00240967
0.00240864
0.00240781
0.00240897
0.00241279
0.00240935
0.00241013
0.00240868
0.00241454
0.0024122
0.00240991
0.00240332
0.00240886
0.00240424
0.00241231
0.00241366
0.00240984
0.00241626
0.00241229
0.00241318
0.00240752
0.00240834
0.00241459
0.00241247
0.00241571
0.00242559
0.00242631
0.00241535
0.00241029
0.00240919
0.00240964
0.00241001
0.00390673
0.0178297
0.0840211
)
;
    }
    rightWall
    {
        type            kqRWallFunction;
        value           nonuniform List<scalar> 
50
(
0.000212588
0.000336133
0.000422492
0.000512409
0.000607298
0.000707983
0.000815697
0.00093466
0.00110537
0.00126892
0.00133815
0.00143736
0.00151166
0.00165941
0.00187316
0.00203312
0.0020181
0.00195371
0.00195073
0.00194911
0.00194885
0.00192849
0.00193735
0.0019505
0.00192836
0.00202604
0.00234974
0.00269107
0.00305323
0.00335384
0.00356661
0.00375247
0.00395855
0.00421155
0.00452761
0.00490578
0.0053406
0.00583192
0.00639416
0.00707216
0.0079122
0.00894341
0.0102016
0.0117603
0.0137318
0.0163083
0.0198622
0.0252042
0.0336797
0.0470736
)
;
    }
    lowerWall
    {
        type            kqRWallFunction;
        value           nonuniform List<scalar> 
62
(
0.000154449
0.000386232
0.000567796
0.000708243
0.000822517
0.000918203
0.000999838
0.00107026
0.00113118
0.00118385
0.00122929
0.00126974
0.00130631
0.00133689
0.00135394
0.00133982
0.00126483
0.00114644
0.00100626
0.000874161
0.000755337
0.000582069
0.000274973
0.000274973
0.000616544
0.000867493
0.0011187
0.00139261
0.00172817
0.00220466
0.00308125
0.00334158
0.00281786
0.00274466
0.00310966
0.000303142
0.000555894
0.000708663
0.000901819
0.00113505
0.00142762
0.0018868
0.00282035
0.000303142
0.000734883
0.00099589
0.00112219
0.00119443
0.00122873
0.00126015
0.00128574
0.00126866
0.00115253
0.000986523
0.000811754
0.000664996
0.00068679
0.000781408
0.000763293
0.000580796
0.000406026
0.000212588
)
;
    }
    atmosphere
    {
        type            inletOutlet;
        inletValue      uniform 0.1;
        value           nonuniform List<scalar> 
46
(
0.1
0.0140119
0.00663579
0.00827946
0.00988955
0.0113155
0.012704
0.0141357
0.0156628
0.0173286
0.0191755
0.0212496
0.0236051
0.0263094
0.0294497
0.0331439
0.0375572
0.0429313
0.0496388
0.0583029
0.0700833
0.1
0.1
0.1
0.1
0.1
0.1
0.1
0.1
0.1
0.1
0.1
0.1
0.1
0.1
0.1
0.1
0.1
0.1
0.1
0.1
0.1
0.1
0.1
0.1
0.0470736
)
;
    }
    defaultFaces
    {
        type            empty;
    }
}


// ************************************************************************* //
