/*--------------------------------*- C++ -*----------------------------------*\
  =========                 |
  \\      /  F ield         | OpenFOAM: The Open Source CFD Toolbox
   \\    /   O peration     | Website:  https://openfoam.org
    \\  /    A nd           | Version:  9
     \\/     M anipulation  |
\*---------------------------------------------------------------------------*/
FoamFile
{
    format      ascii;
    class       volScalarField;
    location    "31";
    object      p;
}
// * * * * * * * * * * * * * * * * * * * * * * * * * * * * * * * * * * * * * //

dimensions      [0 2 -2 0 0 0 0];

internalField   nonuniform List<scalar> 
918
(
23.4691
23.5759
0.953076
22.8865
1.01731
23.0924
3.27248
13.7849
19.2423
2.93424
2.62518
14.4084
20.6353
16.8767
12.9929
0.924954
14.0519
2.24653
18.46
1.39818
12.9921
20.4478
21.5365
19.284
14.1211
14.3719
18.5976
1.14502
0.107816
0.254958
0.979327
0.410926
0.147536
21.6292
22.3059
22.2442
15.4949
10.4025
3.59766
3.8022
2.98295
2.80596
13.8275
13.9275
5.86713
13.7638
13.7595
16.6438
19.1103
19.2539
19.5471
19.3362
19.7225
5.97403
2.78544
2.60548
2.87622
2.95058
2.98304
2.69755
2.67914
2.48279
2.33684
13.8877
14.4814
14.5366
14.2678
14.2154
22.4519
21.695
22.0297
21.1361
21.2815
20.2114
19.8258
17.2524
17.6048
16.4786
16.0978
12.7833
12.7445
13.2128
13.4627
0.145444
1.07601
1.22318
14.0589
14.0954
14.0954
14.1098
8.28287
2.18837
2.19114
17.9003
17.4768
20.4817
20.7489
20.1959
20.0104
1.53002
1.52597
1.1507
1.18136
0.95056
13.3334
13.4876
19.2354
18.4023
14.1547
14.0547
14.1297
11.4999
13.9101
13.9834
15.3214
15.777
14.9662
15.4027
18.1676
17.7496
19.0342
19.4714
0.393075
0.154557
0.687566
0.31827
0.516656
15.3632
15.1578
15.6108
15.6616
15.8928
10.4073
10.3379
10.3813
10.3012
4.1495
4.4641
2.25533
2.56991
2.4208
9.86593
13.9438
13.9906
4.81105
5.5154
5.17872
6.34986
6.72424
16.0095
16.4461
16.1848
17.7312
16.9361
17.2842
19.8133
19.3025
19.603
6.3686
6.60299
5.6082
5.24947
2.23855
2.48805
2.43013
2.98192
2.95993
3.21779
3.34618
2.6985
2.55514
2.89331
2.77665
2.82878
2.16609
2.03627
13.6118
13.3978
14.1508
14.3293
15.0965
14.9482
14.6548
14.8236
19.0209
19.4244
19.4579
19.0737
11.545
10.1555
13.7172
13.9927
0.302124
0.26459
0.138295
0.380903
0.400742
0.142685
2.01566
1.82715
1.40555
1.6809
14.0564
14.0162
8.52347
8.74309
8.11935
7.86318
16.3145
16.4647
17.0988
16.6986
1.96264
1.67638
1.80624
13.6506
13.5231
13.6299
10.9349
10.3683
11.9776
12.2474
13.9915
14.0353
14.0312
15.6811
15.9995
19.8223
20.0929
19.9198
20.3056
21.3684
21.0197
20.6349
14.539
14.9475
14.7859
16.1281
15.7618
15.9812
15.1891
15.4938
15.3517
10.3696
10.4159
10.1195
10.1974
10.2459
10.193
9.80315
9.67618
14.0772
14.0322
14.0563
7.25232
7.75037
4.86923
4.54042
12.5436
13.2169
12.8924
18.6507
17.973
18.706
18.3351
17.8851
18.2086
10.4267
10.3883
10.4217
14.917
14.2549
14.6068
2.44119
2.07696
2.24003
8.93906
9.03245
6.97107
7.58769
7.25079
16.3012
16.6415
17.3217
16.4334
16.9011
17.4084
17.1865
9.93917
10.072
9.98886
9.65962
9.55317
9.73509
8.33562
8.94894
3.61276
4.26926
3.9652
9.20043
9.43037
9.27764
18.63
19.1649
0.765706
1.15298
19.5949
19.3186
0.139168
0.24206
14.2534
12.551
7.26257
17.1973
16.6299
18.9697
3.19258
6.10261
2.80997
3.38074
2.68645
14.6155
14.2494
13.3405
0.452856
1.25654
1.7094
2.89631
18.4105
17.7353
18.8514
19.1715
19.2259
0.687496
0.912664
0.584094
1.24241
1.03107
1.27607
15.5509
15.6491
4.32363
18.8584
19.1627
19.1804
17.6572
18.6099
17.6674
0.935558
0.642551
0.707437
10.0806
12.1215
14.2136
13.7662
13.9632
13.9853
13.7362
14.8695
14.539
14.5039
14.9888
13.9663
13.821
7.73436
6.38327
8.06882
7.70918
17.0986
16.6865
16.4934
16.2391
18.0849
17.6109
18.4613
17.8497
18.3116
18.5984
2.94349
3.1332
3.01212
2.52077
6.14337
6.60614
5.48817
5.63372
4.25943
2.42887
2.52742
2.75362
2.58435
2.93144
2.67898
2.94301
2.57935
2.32371
2.32183
2.93115
2.73894
2.60458
14.5939
14.5323
14.3332
14.3713
14.3537
14.4694
13.535
13.9398
13.5675
12.3986
12.9798
12.507
0.825664
0.663284
0.52491
1.32399
1.35109
1.11097
0.834579
1.17369
1.20191
0.81419
1.54553
1.44528
3.15568
2.6442
8.8403
7.96805
6.90115
16.8005
17.6023
16.772
18.0127
18.4296
18.535
18.1554
17.6472
15.7297
15.7248
15.385
15.3384
4.77097
3.73169
4.96704
4.53612
10.4778
14.0653
11.8425
10.8037
11.1001
13.4242
13.9288
13.5811
13.7181
13.2932
12.8213
13.5132
13.047
13.1483
12.9273
15.7178
16.1929
15.7994
15.2199
15.2399
10.5988
12.0155
5.46555
5.63954
7.24407
6.53792
13.5097
13.9327
13.9175
13.5559
13.7437
13.7448
13.6056
13.7798
13.8596
13.7542
11.8245
10.1439
9.04515
9.03874
14.0767
12.3461
12.9303
12.4137
16.1204
16.6369
16.2516
15.646
16.131
15.6029
15.6301
15.8433
17.2015
16.9511
16.7208
17.1077
3.05488
3.00361
3.64727
3.13347
3.03661
2.81971
3.48388
4.75835
4.41607
6.71842
7.26907
4.58009
3.37277
3.79297
4.80798
5.54141
5.51125
3.96938
4.50122
4.93015
4.44066
5.22441
4.72891
2.71801
3.02531
2.86348
2.83719
3.38194
3.88034
3.37587
2.48069
2.59267
2.25684
2.1191
3.53628
2.99614
3.03293
3.67887
1.10671
1.32891
1.44116
2.41405
1.9133
1.97917
15.1825
14.8266
14.9602
14.2394
14.3069
14.248
13.8724
15.2399
14.9619
15.0614
13.7098
13.7966
13.6099
13.9052
14.3212
14.6204
15.4523
15.1734
14.4125
14.5635
14.2144
14.1426
13.4646
12.9016
12.8411
1.1126
0.824744
0.984168
0.910941
0.606222
0.798534
2.18338
1.57295
1.97063
1.72665
1.95992
1.40353
1.30244
4.2532
5.06397
3.96387
3.36534
3.06236
8.8987
9.01023
8.1589
7.85685
8.1984
8.42713
8.37687
7.13467
7.56176
7.37479
9.91557
9.5799
17.5867
17.5308
17.2019
17.0431
17.2695
5.76242
7.66526
6.79915
7.9153
10.2066
10.5023
9.31091
8.70509
9.45643
9.53435
14.0469
14.1231
13.564
14.0499
14.0783
11.835
12.8823
13.4971
13.3116
13.8314
13.9124
12.9734
13.5621
13.4774
12.76
12.813
12.1278
12.4664
11.9945
11.7935
14.056
13.9508
14.2205
13.7714
14.1507
13.7149
14.0302
14.0281
14.3087
13.4107
12.8321
12.8505
13.2767
12.9769
13.3228
13.4869
9.30849
9.9486
10.3873
10.923
10.6303
10.4124
10.2796
10.5813
10.5582
10.8295
10.7488
10.5997
11.5606
13.4159
13.7009
13.8023
13.5994
13.6456
13.3382
13.611
13.5403
13.9196
14.0075
14.0572
13.1378
13.2939
13.4886
13.3724
11.6751
10.097
9.9492
9.5092
7.57684
8.04654
11.0254
9.90227
8.91749
8.98943
12.1686
10.8059
11.6193
12.0424
10.694
10.306
12.9712
13.7593
13.9791
13.7034
12.0602
12.186
12.6357
13.0789
13.2682
13.7239
15.8602
16.4359
16.5138
16.2379
16.0999
16.1997
15.9498
16.0529
16.5269
16.6535
16.4848
2.88021
2.99389
2.92392
2.84926
3.08585
2.86139
3.95646
3.94734
3.15673
3.33702
3.35699
3.46244
2.93137
2.97447
4.82647
5.06213
5.3338
4.83231
6.17547
6.81654
7.39788
7.08335
5.78985
5.86921
6.18454
3.50749
3.53352
3.25184
3.70934
3.76201
2.61163
2.23909
2.04426
2.56519
2.66652
2.0513
1.76836
1.81754
2.332
2.05078
1.80481
14.975
14.7333
14.7547
14.5345
14.5891
14.9839
15.2048
15.0149
15.1532
15.2043
14.8034
14.6923
14.8634
1.81865
1.49368
1.62271
1.58086
1.6436
1.54983
1.73795
7.60582
6.41582
6.80329
5.97872
4.12076
4.64165
9.53893
9.96037
9.99885
9.71002
9.49995
9.86572
9.7165
9.70925
8.2634
9.33216
8.86804
9.26094
9.28231
9.35005
9.06466
9.08076
10.5844
10.618
9.48299
10.1226
9.33136
7.93216
8.09916
9.11282
10.0864
10.4046
10.2497
9.97981
9.75121
10.1143
10.169
10.2291
10.2183
8.75177
8.71166
8.31112
13.9687
13.8752
14.0217
14.0269
14.1538
13.9787
13.8158
14.093
14.1472
13.9315
11.0776
11.1365
11.3823
12.129
12.181
12.0919
11.3366
13.1007
12.7563
13.3942
13.341
13.4134
13.0037
12.8269
13.0972
10.0808
11.4537
10.9866
11.2498
10.0632
9.30682
13.2234
13.2775
13.3429
13.6159
13.5739
14.1573
15.8302
15.7001
15.7474
15.7904
15.4021
15.4394
4.17558
3.82945
4.551
4.50657
4.06478
3.76484
2.28669
1.96877
1.78085
1.65605
1.88946
1.95061
8.16255
8.18964
6.33402
7.35556
5.87637
4.93462
4.79004
5.95566
7.13692
7.19581
8.51344
9.18958
8.74871
8.57397
7.91827
8.24786
10.1161
10.2105
10.111
10.43
9.96268
11.7123
11.2945
11.6434
13.2573
12.967
12.3689
12.2555
12.2203
12.8133
11.9476
11.1793
11.8917
12.5472
12.5054
11.118
10.873
11.2997
11.2837
10.1978
10.718
10.4799
10.8325
10.5478
)
;

boundaryField
{
    wall-4
    {
        type            zeroGradient;
    }
    velocity-inlet-5
    {
        type            zeroGradient;
    }
    velocity-inlet-6
    {
        type            zeroGradient;
    }
    pressure-outlet-7
    {
        type            fixedValue;
        value           uniform 0;
    }
    wall-8
    {
        type            zeroGradient;
    }
    frontAndBackPlanes
    {
        type            empty;
    }
}


// ************************************************************************* //
