/*--------------------------------*- C++ -*----------------------------------*\
  =========                 |
  \\      /  F ield         | OpenFOAM: The Open Source CFD Toolbox
   \\    /   O peration     | Website:  https://openfoam.org
    \\  /    A nd           | Version:  9
     \\/     M anipulation  |
\*---------------------------------------------------------------------------*/
FoamFile
{
    format      ascii;
    class       surfaceScalarField;
    location    "31";
    object      phi;
}
// * * * * * * * * * * * * * * * * * * * * * * * * * * * * * * * * * * * * * //

dimensions      [0 3 -1 0 0 0 0];

internalField   nonuniform List<scalar> 
1300
(
11.2529
1.87548
-4.16636
11.2529
-5.00975
1.87548
-4.24276
4.24276
-1.1875
1.1875
5.7123
5.54056
-2.37723
2.37723
-2.81863
2.81863
-2.86016
2.86016
-1.06194
1.06194
-1.02826
1.02826
0.693118
-0.693118
-3.42018
3.42018
-1.4562
1.4562
-2.90912
2.90912
6.1281
-6.1281
-3.2462
3.2462
-0.743766
0.743766
-4.26321
15.5161
6.98965
6.98965
-2.37111
2.37111
-1.25395
1.25395
1.41034
-1.41034
9.05071
-9.05071
-4.88434
-5.88396
1.91899
-14.0661
-3.09076
-3.09076
-2.7054
2.7054
-0.829928
1.04555
3.47681
-3.47681
-0.757147
0.757147
-4.32818
0.0854163
-4.32818
4.02728
0.215481
4.02728
-1.32878
0.14128
-1.32878
4.67817
-4.67817
1.07574
0.11176
1.07574
3.9281
-3.9281
-5.71006
11.4224
5.5428
-5.32064
20.8367
-5.93222
11.4728
-3.89968
3.89968
-2.29438
-0.0828529
-2.29438
2.37878
-0.00155262
2.37878
-4.00281
4.00281
-2.60889
-0.209742
-2.60889
2.91867
-0.100036
2.91867
3.66642
-3.66642
-2.91622
0.0560591
-2.91622
2.70846
0.151704
2.70846
0.771042
1.10443
-2.64652
3.69207
-1.10443
0.0424987
1.02614
0.0357986
1.02614
-1.01453
-0.0137252
-1.01453
1.04984
-0.0215793
1.04984
0.730134
-0.0370165
0.730134
-0.754862
0.0617445
-0.754862
-8.60735
-8.97394
-3.54403
0.123857
-3.54403
-1.47422
0.0180203
-1.47422
1.49235
-0.036156
1.49235
-2.52544
2.52544
-3.25102
0.341902
-3.25102
4.80635
1.32175
4.80635
5.04612
6.20674
16.299
-16.299
10.1709
-2.96651
-0.279693
-2.96651
-3.41167
-5.63904
3.41167
-0.165467
-0.805507
0.0617407
-0.805507
5.62659
1.36306
5.62659
2.58623
0.122226
-2.58623
0.215123
4.62615
-4.62615
1.42328
0.947823
1.42328
-1.19154
1.19154
1.12336
-0.0735237
-1.12336
-0.130582
1.38601
0.0243318
1.38601
-1.40975
-0.000595768
-1.40975
7.31029
-13.1943
-7.7681
3.23048
0.189691
-3.23048
0.139722
3.56356
-0.0867503
3.56356
-3.30969
3.30969
-3.61099
0.134179
-3.61099
-0.682224
-0.0749231
-0.682224
0.842033
-0.0848862
0.842033
-4.57606
0.247886
-4.57606
-3.69102
0.439996
3.69102
0.336261
1.25014
-1.25014
-1.43659
0.107806
-1.43659
-4.65913
0.0830702
4.65913
0.0190352
-4.77214
0.0939701
-4.77214
-3.71253
0.101533
3.71253
0.215576
4.58935
1.03724
-4.58935
0.661248
-5.36948
11.5762
-5.88338
11.4262
-3.51584
-0.38384
-3.51584
4.09072
-0.191035
4.09072
2.57055
0.338568
-2.57055
0.276175
2.50497
-0.126187
2.50497
-3.94551
-0.0572913
-3.94551
3.80569
0.197115
3.80569
2.54447
-0.0394994
-2.54447
-0.06442
2.89336
0.0253032
2.89336
3.6724
-0.00598076
3.6724
-3.53944
-0.126984
-3.53944
3.17896
-3.17896
3.08059
0.0983705
-3.08059
0.164369
-5.07402
5.07343
-0.00799946
-5.06602
1.01814
1.01814
0.768951
-0.0388166
0.768951
-0.861792
0.106929
-0.861792
8.34382
-16.1119
8.77959
-17.3869
7.53411
-21.6002
8.11602
-17.09
3.82829
-3.82829
3.76213
0.0661547
-3.76213
0.2181
-1.45605
-0.0181642
-1.45605
-2.28834
-0.237098
-2.28834
2.85748
-0.332039
2.85748
-3.74209
3.74209
-4.12478
0.382686
4.12478
0.68157
2.95456
-0.0611915
-2.95456
-0.0119498
0.924058
0.151686
-0.924058
0.118551
4.86348
-0.237327
4.86348
-4.0852
-0.540947
-4.0852
-1.47494
0.0188924
1.47494
-0.0516607
-1.25895
0.0674031
-1.25895
-5.0745
0.00847756
-5.0387
-1.40127
-1.40127
1.30414
4.9962
-3.58567
0.0462343
3.58567
-0.0221053
3.52705
0.215042
-3.52705
0.21736
-3.26327
0.0843114
3.26327
0.0464178
-0.659745
-0.0224788
-0.659745
-1.03476
1.03476
-0.917647
-0.117115
0.917647
-0.0756135
1.4056
-0.155457
1.4056
1.47054
0.0218111
-1.47054
0.0339509
-5.01126
0.239119
-5.01126
4.10132
-0.010605
4.10132
-3.94907
-0.136136
3.94907
-0.276664
-0.00372289
5.07715
-1.01441
-0.000120149
1.01441
-5.10148
5.10136
-0.665136
0.00539047
0.665136
0.103815
1.02967
0.161873
-1.02967
0.16788
3.8492
-0.0435095
-3.8492
0.0209128
-2.00739
-0.280951
-2.00739
-3.18487
-0.330976
3.18487
-0.327387
-5.11518
-0.0779364
5.19312
-5.13676
1.33688
0.0491256
-1.33688
5.15049
-1.14366
-0.106483
1.14366
-0.108893
1.60387
-0.198275
1.60387
5.12083
-0.25735
-5.12083
0.109567
-4.11906
0.173547
4.11906
-0.0177389
-1.77516
-0.232234
1.77516
-0.171286
-13.1281
14.4911
7.70865
-6.27947
-6.91478
-11.9185
4.4471
7.12912
14.618
-11.8163
-9.78397
-11.6765
2.86006
-2.69218
-3.7273
3.69028
23.5916
-23.4976
-18.3992
19.0808
20.777
-20.5615
5.70885
5.71351
15.8502
-15.9331
-20.8995
20.5157
15.3864
-15.5962
22.053
-22.1103
-25.8169
25.7734
-16.0928
16.1489
-20.2944
20.1674
-21.0577
20.781
-8.35162
-9.03533
16.518
-16.3941
19.9978
-20.2775
-19.383
19.7249
10.0475
4.44359
11.0848
-6.24673
11.9556
-5.22605
12.9347
8.2941
-16.6457
7.81782
-14.7326
9.04452
10.9533
-8.87906
-3.03945
-17.9699
17.8832
-17.257
17.3034
24.1237
-24.0382
-6.17283
11.8863
-5.25335
12.3825
-11.409
-6.99019
10.0872
4.53073
8.99273
7.52523
-9.18242
-2.49413
-24.7987
24.5414
-25.6599
25.1189
0.100179
2.42593
-2.52611
1.35412
-0.862691
3.28862
1.99737
2.1043
2.45271
-2.29084
0.239463
-2.76558
-2.89616
-5.34045
5.44826
5.15713
-5.04537
16.5466
7.045
16.5656
-16.7495
-6.7481
-16.5104
11.3637
7.71706
11.7464
12.0617
8.71534
12.1632
10.359
-10.3317
-0.0273076
-11.4777
21.8367
1.55464
-18.4678
-13.9371
8.84594
7.00427
8.84439
-9.89132
-6.04174
-9.61515
-11.0151
-9.88447
-11.346
12.3193
8.19636
12.1283
-15.3168
15.2991
9.2734
6.11303
9.17336
-8.96251
-6.63366
-9.02693
27.483
-6.67829
-20.8047
-13.1824
-12.6345
12.9853
9.06767
14.3405
11.4329
14.3614
8.91519
18.5678
-17.9829
5.34835
-9.94704
-6.1458
-9.78267
9.25805
6.89085
9.40976
-11.7668
-8.52762
-11.7206
-11.987
-9.07076
11.9929
8.17449
-12.5344
-13.1255
12.6705
8.11051
7.84189
-17.6259
9.24807
-18.2834
-10.9657
-5.42842
-10.7476
10.7854
6.68354
-17.469
-5.86031
23.6324
-12.6791
20.5929
-10.8986
-9.37891
-10.9106
-14.8037
-4.57932
-14.3637
-7.98962
7.70867
-8.82153
8.48949
26.877
-16.2223
-10.6547
-12.3784
-8.18309
11.7171
-0.632343
-12.8358
12.8085
-0.880182
12.0545
16.4981
15.8658
-10.8802
-6.37674
-10.6629
10.2702
7.03322
10.3545
16.1053
8.0184
16.3207
-16.8175
-7.22073
-16.5696
4.84107
-4.91599
5.71362
-5.69473
15.5794
9.5395
-15.3421
-9.45663
22.9305
-10.775
-12.1555
-5.11965
5.21413
-0.094479
-1.83103
-0.476904
0.266862
-1.93096
-1.79634
1.86922
0.23508
5.44921
3.65287
-2.41437
2.48177
2.77875
2.70523
-0.190933
2.49876
-2.49337
18.902
-11.4322
-7.46985
13.9701
-13.8871
-2.59949
-19.3272
16.7277
2.67855
3.00335
-2.94161
-3.94842
-1.39203
-3.91447
2.95198
2.20515
3.10366
2.10716
3.3411
-8.1034
1.56299
6.54041
-5.99624
-3.48238
-13.3463
-6.26641
19.6127
16.6788
7.86258
-16.7884
0.277993
5.29306
-5.32921
-1.59827
-11.748
8.34805
-9.94633
-15.2171
-6.46089
21.678
-9.58078
-1.08208
9.36573
2.38065
-10.8773
-7.09265
10.7431
1.42012
-12.0645
23.9707
-11.9062
-18.4413
8.51577
13.3209
16.2328
-17.8628
9.31888
8.54388
-4.54188
7.42987
1.41452
7.30369
-19.9289
13.8871
11.3237
8.40123
-11.6622
2.04708
-17.8818
25.1714
-22.2876
-2.8838
12.8218
12.3496
13.5492
13.3278
-7.7853
21.3345
-3.61825
-18.6693
21.5001
-13.0988
15.7827
-28.8815
-29.1105
10.4411
-17.9558
22.0748
-4.11906
-5.20568
-10.1111
23.1614
-2.00657
-21.1549
10.1217
-13.9268
-11.8541
25.7809
-20.6051
18.4878
-6.26739
-12.2204
-12.666
-9.44432
12.4924
2.80666
-25.8742
31.2226
-7.30641
7.80442
1.36894
7.82972
10.6085
-15.9761
5.36757
9.99658
-16.264
6.76221
-22.7383
-12.1596
24.1946
-12.035
-17.5881
-15.7972
-1.79084
4.87529
26.3473
-16.3082
12.1172
4.19098
8.46174
1.89274
-8.56011
-1.22257
0.968058
16.0865
-17.0545
10.3778
10.5
11.7044
4.38204
10.7702
7.11295
-10.7481
-0.972414
-14.7928
5.72201
-6.61828
-14.5742
20.2962
-16.2679
1.69369
-10.3032
-13.9906
24.2938
-16.449
11.4255
12.5453
18.4587
-19.615
5.62438
-9.74633
-9.86864
10.6435
-17.2618
7.49832
12.7979
15.6088
2.48335
12.7479
11.4467
-19.4314
1.14804
18.9719
-16.4778
3.88908
10.4724
-16.0063
0.209073
-10.5385
2.66411
-15.3432
-14.8048
16.5297
-21.109
-12.3518
13.5673
2.75344
-13.9036
-0.460105
-4.95428
-3.03534
-5.18651
-3.27686
-5.54467
-11.0622
-1.9269
-9.13525
5.78177
-6.68702
-4.65902
7.01441
1.47508
-4.93552
4.82903
-5.5803
5.38203
-0.210165
13.0186
15.6556
7.4725
-8.47674
15.9492
-15.6082
23.6266
-29.725
14.1168
15.9489
-23.1696
-13.7761
2.70114
2.13992
2.61626
13.4478
-14.4145
0.966682
-13.279
17.5984
-4.3194
-19.5806
6.30166
-6.13287
5.18669
0.526928
5.16853
1.41639
6.84598
-8.26236
-4.27834
-4.33
-9.16324
-13.8594
23.0226
4.73544
-13.1051
8.36966
-12.0625
16.7979
0.078537
-13.1836
16.9847
-10.1388
17.5117
-11.984
5.5277
12.7918
22.3469
-9.55509
16.2481
-6.70864
7.06787
-16.623
-6.79151
-11.2883
18.1792
-13.0055
14.6992
-1.12464
15.8239
-13.7773
3.00222
-2.07284
8.4272
8.64232
16.8088
-12.4267
11.9697
-18.6783
-4.65327
-16.195
-3.39713
1.0188
-13.8257
12.8069
12.044
-11.0252
-3.24223
8.98429
-5.74205
5.68194
-2.84833
-2.83361
-1.84643
-3.06956
1.86891
0.629852
6.31179
0.489185
-3.33752
-2.00418
-1.90037
10.3745
8.52758
-3.83187
3.73739
3.56501
-0.56166
0.958733
2.14493
4.5872
-3.62847
0.678126
3.90908
-2.26348
3.82774
1.46532
-3.84955
-0.0649186
-3.40814
11.7562
3.13227
-5.33742
1.70895
2.38207
-13.8143
19.7415
-11.4155
-8.32599
22.1235
3.06345
-14.4789
16.2638
-13.5852
8.10342
-14.3698
-6.37551
-19.9607
-12.9157
-10.7095
19.0792
-12.3131
20.1757
3.8621
-20.4537
24.3158
-12.7398
6.27894
-9.44314
10.9085
-4.0581
-5.38504
11.2657
10.4123
-11.0535
-0.694437
0.212114
8.41931
-8.2072
-1.52701
-7.52325
-16.4089
17.829
-8.25569
17.5746
7.69356
-7.63403
25.2086
6.56495
-14.199
-11.8763
-12.9584
-5.6551
10.5777
-1.79528
-7.23164
-14.0157
7.27114
0.0325432
-19.0774
22.0704
-2.99292
-12.0732
-1.81395
14.6358
-18.0994
1.83539
-11.3371
10.7332
12.1477
12.1803
-20.8434
-0.311503
-12.647
3.17644
-15.8235
15.526
-6.80302
17.2442
-16.0066
11.3476
-14.5315
14.3604
-1.46308
14.7497
-9.38216
6.05499
-15.4993
-12.6927
14.4712
-8.35821
15.8402
-10.1163
25.9565
-17.4227
14.4039
11.5526
-2.71232
-8.19825
-13.9742
11.2619
0.429722
8.25944
17.8373
-10.7244
16.8649
8.92447
-18.6708
-8.33729
-25.8596
7.18882
-13.3144
-7.35658
14.5454
11.1021
12.9949
4.67675
-11.7723
17.7867
-19.5775
-5.75173
-9.05311
14.5776
-3.31572
10.1445
-19.1976
-5.19868
13.1093
-0.192251
-12.917
3.11303
-15.4649
5.13049
-20.5954
15.9785
-16.4386
1.76948
-7.90235
-3.16604
-3.27493
-2.17185
-3.40845
-7.56678
5.39493
-1.26512
3.56391
-12.5212
12.3289
-5.07721
10.4721
-4.05777
-1.12874
4.22905
1.15297
11.6251
3.02527
-16.8014
-9.25474
14.6242
-5.36951
1.11972
-10.8004
3.82383
8.09955
14.024
-24.8273
1.6577
-15.1437
-4.06974
6.20966
4.91455
16.9585
2.5441
6.55209
-0.342429
9.09618
2.27383
2.19822
-11.2174
12.1841
1.58949
15.7063
-1.88295
7.41066
3.28558
3.3036
2.02562
5.72249
2.91983
8.72471
0.462347
-3.86766
2.06784
-3.96821
-1.26967
-4.00703
-0.316746
3.72518
-4.04193
10.4961
-1.96851
5.12658
-1.88172
-4.9334
6.81512
-9.35157
-5.49506
-1.58599
-5.6063
7.31524
6.1499
-5.72926
-3.62231
2.39096
-15.3067
11.9789
-12.6733
-2.26099
22.0548
-9.46146
1.25426
-3.18252
-6.26899
-7.66102
7.72594
24.1899
1.01868
12.2837
18.8477
11.755
1.03067
11.9868
-16.1058
-10.7515
-16.4173
-0.891332
13.7445
5.61421
20.7331
17.1668
13.8511
-5.34651
-24.9241
20.719
-8.53497
16.3996
-3.48262
-17.1127
14.6484
8.97818
-17.4019
0.963265
-16.1495
-24.6844
-0.344239
12.6732
-11.2809
10.1521
7.11679
2.01846
-2.42558
-0.849357
2.54269
-0.344475
8.75171
-0.188792
-8.19494
8.38373
-3.53639
2.26672
-0.4293
4.16669
6.38582
4.41731
-3.77763
-7.81956
-8.81657
-4.99769
-17.1426
2.47009
-8.61999
5.68098
-3.41426
2.84737
4.96947
10.0961
-1.60165
-9.42355
7.3437
-4.49634
5.59972
)
;

boundaryField
{
    wall-4
    {
        type            calculated;
        value           uniform 0;
    }
    velocity-inlet-5
    {
        type            calculated;
        value           uniform -11.2529;
    }
    velocity-inlet-6
    {
        type            calculated;
        value           uniform -1.87548;
    }
    pressure-outlet-7
    {
        type            calculated;
        value           nonuniform List<scalar> 8(4.16636 5.00975 10.7683 12.1471 17.5813 15.0784 17.1234 15.6501);
    }
    wall-8
    {
        type            calculated;
        value           uniform 0;
    }
    frontAndBackPlanes
    {
        type            empty;
        value           nonuniform List<scalar> 0();
    }
}


// ************************************************************************* //
