/*--------------------------------*- C++ -*----------------------------------*\
  =========                 |
  \\      /  F ield         | OpenFOAM: The Open Source CFD Toolbox
   \\    /   O peration     | Website:  https://openfoam.org
    \\  /    A nd           | Version:  9
     \\/     M anipulation  |
\*---------------------------------------------------------------------------*/
FoamFile
{
    format      ascii;
    class       volScalarField;
    location    "1.54";
    object      p_rgh;
}
// * * * * * * * * * * * * * * * * * * * * * * * * * * * * * * * * * * * * * //

dimensions      [1 -1 -2 0 0 0 0];

internalField   nonuniform List<scalar> 
2268
(
830.527
830.964
832.037
833.44
834.657
835.858
837.154
838.659
840.462
842.652
845.313
848.478
852.13
856.255
860.897
866.22
872.308
878.712
887.432
897.665
909.221
917.657
925.029
830.542
830.586
831.132
832.129
833.109
834.164
835.382
836.872
838.742
841.077
843.918
847.247
851.042
855.328
860.207
865.908
872.755
879.639
889.342
900.723
912.478
920.053
925.807
830.526
830.556
830.588
831.079
831.705
832.516
833.572
834.982
836.859
839.275
842.234
845.678
849.583
854.017
859.144
865.263
872.829
881.25
891.213
903.611
914.657
922.1
928.054
830.426
830.615
830.36
830.403
830.665
831.195
832.045
833.332
835.152
837.558
840.545
844.035
848.002
852.535
857.836
864.225
872.262
882.44
893.489
904.752
915.077
923.735
932.467
830.255
830.628
830.229
829.915
829.85
830.101
830.736
831.885
833.613
835.944
838.899
842.396
846.393
850.987
856.381
862.884
870.956
880.954
892.013
903.462
913.977
924.921
937.498
830.047
830.539
830.042
829.439
829.079
829.065
829.486
830.504
832.127
834.344
837.235
840.723
844.738
849.367
854.791
861.291
869.253
878.946
889.751
901.066
911.445
925.42
940.687
829.839
830.353
829.76
828.907
828.275
828.002
828.207
829.103
830.62
832.689
835.495
838.97
843.001
847.649
853.056
859.468
867.222
876.525
886.892
897.745
907.451
924.082
941.445
829.677
830.086
829.395
828.32
827.423
826.882
826.864
827.628
829.016
830.904
833.592
837.044
841.09
845.747
851.102
857.36
864.826
873.657
883.404
893.315
901.512
915.594
935.784
704.115
718.556
737.206
737.913
721.26
696.483
676.302
660.784
644.281
629.61
624.003
623.683
620.127
616.246
615.378
612.71
611.103
619.91
626.055
702.001
711.064
724.249
724.554
710.651
690.62
675.923
661.925
644.057
630.094
627.765
629.836
625.642
619.212
618.163
614.608
608.17
614.384
623.154
698.275
707.343
717.96
718.196
703.691
686.404
674.768
664.427
645.595
630.108
627.631
632.413
629.657
621.285
622.211
615.735
607.193
609.131
620.397
692.683
704.952
716.955
715.961
701.25
676.464
671.828
668.238
640.812
582.551
550.555
614.093
630.95
627.08
623.918
612.572
582.562
605.851
617.839
690.692
701.112
688.468
698.608
700.476
654.13
661.337
672.02
619.346
523.545
520.642
565.42
631.632
628.499
624.441
572.532
564.546
602.802
616.255
690.099
717.355
682.9
672.542
688.805
628.972
574.256
626.735
619.832
585.665
517.802
543.158
629.954
629.117
625.29
586.244
560.412
600.29
616.057
680.815
731.543
758.224
695.992
664.479
596.805
476.853
469.965
585.82
607.932
609.128
416.792
447.434
615.904
625.37
628.565
611.728
602.651
598.552
666.214
745.816
770.125
767.801
659.705
535.857
468.446
462.695
567.832
610.256
609.464
405.921
376.328
379.333
515.432
569.058
568.753
538.847
466.724
829.599
829.674
828.788
827.36
826.006
824.993
824.589
825.13
826.263
827.749
830.151
833.541
837.626
842.297
847.518
853.422
860.311
868.307
876.882
884.886
885.915
879.954
860.212
830.541
829.989
828.299
825.98
823.721
821.779
820.666
821.589
822.751
823.022
824.796
828.371
832.758
837.598
842.521
847.507
853.127
859.729
867.005
873.806
870.888
869.383
874.334
703.207
687.534
672.082
655.516
640.689
626.14
607.012
626.78
648.011
636.415
651.858
685.529
713.186
737.437
756.562
773.468
794.188
819.878
844.173
858.667
861.575
862.888
862.357
86.9969
92.8602
82.1156
68.9612
58.219
50.6755
53.7429
68.4574
78.9376
75.68
79.7177
90.2284
103.533
124.127
145.905
166.23
195.229
242.596
305.324
375.47
450.268
521.263
552.033
0.108404
0.133121
0.229151
0.48393
0.689237
0.68932
0.533425
0.311024
0.432257
0.888087
1.37957
1.71949
1.67036
1.3931
1.44474
1.80215
2.17684
2.31162
2.40183
2.75025
3.0269
3.5055
3.79318
0.140613
0.132841
0.219324
1.79686
5.32618
5.34698
4.94928
0.391382
0.34553
5.02722
10.7627
13.5099
9.96785
2.9203
2.66654
3.62007
6.01557
6.2024
4.7521
5.36222
13.022
14.3716
17.951
0.12194
0.11181
0.943056
2.20767
1.26282
0.818629
0.145382
0.195484
0.199982
0.176196
0.220019
8.20466
9.99535
3.46864
2.46044
7.25743
10.6472
10.9059
11.0414
10.8702
15.5404
25.7252
29.8986
0.112601
0.146336
0.601168
0.438963
0.0967794
0.111398
0.135327
0.162766
0.170031
0.159231
0.153189
0.133427
0.158476
2.33546
2.12124
5.35873
8.27619
9.72912
9.57119
5.29997
0.8659
1.118
17.0502
0.106255
0.103327
0.0937506
0.0899833
0.0983209
0.109299
0.124671
0.141623
0.149187
0.147738
0.142939
0.136702
0.146532
0.150737
0.152863
0.134781
0.145125
0.182817
0.276182
0.480441
1.07875
4.99797
4.00725
0.102471
0.100253
0.106908
0.0986623
0.0980398
0.105286
0.11559
0.125853
0.131938
0.135179
0.134002
0.130691
0.135306
0.142856
0.144983
0.14173
0.149915
0.178907
0.240773
0.340521
1.02696
13.4936
16.086
0.0989351
0.0993906
0.0973239
0.094576
0.0962871
0.100637
0.106784
0.113179
0.117461
0.119849
0.121158
0.119331
0.12203
0.126142
0.128676
0.129393
0.136335
0.154488
0.187084
0.225315
0.31248
15.8187
26.6727
0.0945574
0.095489
0.0927483
0.0916881
0.0925216
0.0950896
0.0988287
0.102743
0.105611
0.10703
0.107445
0.107434
0.108204
0.109322
0.109906
0.109853
0.112237
0.118551
0.129214
0.132585
0.0814257
12.5977
28.3083
0.0894353
0.0893763
0.0877723
0.0869363
0.0873161
0.0887979
0.0909994
0.0933049
0.0950179
0.0958108
0.0957809
0.095184
0.0944338
0.0933297
0.0914565
0.0886294
0.0854029
0.0812773
0.0749981
0.0558378
-0.0153327
2.9716
28.9814
0.0840074
0.0829951
0.0818322
0.0812066
0.0813405
0.0821376
0.0833333
0.0845316
0.0853012
0.0853749
0.0846914
0.0832906
0.0812453
0.0783586
0.0742541
0.0685135
0.0606194
0.0491
0.0313101
-3.18145e-06
-0.0620554
0.0610843
3.48026
0.0783038
0.0767511
0.0756584
0.0751341
0.0751015
0.0754336
0.0759349
0.0763363
0.076346
0.0757412
0.0743906
0.0722108
0.0691102
0.0648515
0.0590372
0.0511096
0.0402082
0.0246949
0.00188494
-0.0330372
-0.0857567
-0.155549
-0.22959
0.0724234
0.0706766
0.0696515
0.0691579
0.0689747
0.0689544
0.0689429
0.0687458
0.0681493
0.0669622
0.0650282
0.0622041
0.058325
0.0531331
0.04624
0.0370876
0.0248497
0.00821483
-0.0146573
-0.0463295
-0.0895096
-0.142722
-0.193715
0.0665539
0.0649194
0.0640612
0.0635728
0.0632353
0.0629187
0.0625015
0.0618355
0.0607553
0.0590955
0.0566968
0.0533966
0.0490087
0.0432858
0.0358856
0.0263369
0.0140016
-0.00197154
-0.0226404
-0.0489079
-0.0810171
-0.116897
-0.148925
0.0609445
0.0596417
0.0590669
0.0585704
0.0580706
0.0574881
0.0567301
0.0556829
0.0542152
0.0521845
0.0494414
0.0458261
0.04116
0.0352272
0.0277515
0.0183772
0.00666652
-0.0078726
-0.0256955
-0.0469661
-0.0710148
-0.0957251
-0.116705
0.0558588
0.0549851
0.0547825
0.0542488
0.0535792
0.0527508
0.0516974
0.0503334
0.0485547
0.0462413
0.04326
0.0394661
0.0347024
0.0287931
0.0215317
0.0126737
0.00195139
-0.0108733
-0.0259112
-0.0429644
-0.0612776
-0.0791022
-0.0937512
0.0513585
0.0511465
0.0511427
0.0505958
0.0497671
0.048714
0.0474053
0.0457787
0.0437539
0.0412327
0.0381013
0.0342361
0.0295067
0.0237775
0.0169048
0.00873678
-0.000867025
-0.0119832
-0.0245471
-0.0382405
-0.0523471
-0.0655991
-0.0763099
0.0474401
0.04788
0.048083
0.0475161
0.0465478
0.0453055
0.0437865
0.0419515
0.0397404
0.037078
0.0338682
0.0300129
0.0254086
0.019956
0.0135626
0.00614637
-0.00234534
-0.0118942
-0.022356
-0.0333947
-0.0444117
-0.0545027
-0.062605
0.043945
0.0449975
0.0453707
0.0448142
0.043762
0.0423891
0.0407193
0.0387358
0.0363996
0.0336537
0.0304274
0.0266437
0.0222252
0.0171025
0.0112226
0.00455261
-0.00290444
-0.0110799
-0.0198036
-0.0287678
-0.0374968
-0.0453412
-0.0516637
0.0407177
0.0422138
0.0427473
0.0422726
0.0412216
0.0397965
0.0380489
0.0359848
0.0335858
0.0308159
0.0276264
0.023962
0.0197681
0.0150007
0.00963469
0.00366943
-0.0028597
-0.00986187
-0.0171687
-0.0245173
-0.0315409
-0.037778
-0.0427745
0.0376296
0.0393477
0.0400453
0.039727
0.0387636
0.037369
0.0356204
0.0335461
0.0311485
0.0284116
0.0253071
0.0218002
0.0178569
0.0134531
0.008583
0.00326557
-0.00244753
-0.00845985
-0.0146178
-0.0207036
-0.0264364
-0.0314824
-0.0355249
0.0346213
0.0363809
0.0372258
0.0371013
0.0362857
0.0349893
0.0333081
0.0312885
0.0289513
0.0262991
0.0233219
0.0200035
0.0163272
0.0122846
0.00788339
0.00315306
-0.00184874
-0.0070293
-0.0122545
-0.0173474
-0.0220924
-0.0262454
-0.0295833
0.0316918
0.0333862
0.0343338
0.0343944
0.0337499
0.0325932
0.0310287
0.0291149
0.026887
0.0243626
0.0215477
0.0184412
0.015041
0.0113509
0.0073873
0.00318504
-0.00119848
-0.00567898
-0.0101425
-0.0144466
-0.0184254
-0.0218982
-0.0247045
0.0288585
0.0304375
0.0314346
0.0316435
0.0311636
0.0301619
0.0287417
0.0269677
0.0248842
0.0225202
0.0198936
0.0170152
0.0138943
0.0105437
0.00698578
0.00325704
-0.000588474
-0.00447663
-0.0083123
-0.0119812
-0.0153552
-0.0182988
-0.0206941
0.0261337
0.0275793
0.0285813
0.0288945
0.0285563
0.0277056
0.0264393
0.0248228
0.0229053
0.0207229
0.0183015
0.0156605
0.0128173
0.00979104
0.00660776
0.00330369
-7.1834e-05
-0.00345486
-0.00676671
-0.009916
-0.012803
-0.0153249
-0.0173933
0.0235247
0.0248347
0.0258111
0.0261888
0.0259633
0.0252489
0.0241333
0.0226798
0.0209384
0.0189485
0.0167408
0.0143402
0.0117692
0.009051
0.00621335
0.00329113
0.000328584
-0.00261968
-0.00548891
-0.00820596
-0.0106928
-0.0128705
-0.0146718
0.0210366
0.0222161
0.0231477
0.023558
0.0234171
0.0228202
0.0218456
0.020552
0.0189878
0.017193
0.0152006
0.0130381
0.0107308
0.00830385
0.00578522
0.0032077
0.000610513
-0.00195993
-0.00445042
-0.00680233
-0.00895424
-0.0108451
-0.0124227
0.0186734
0.0197313
0.0206065
0.0210252
0.0209448
0.0204468
0.0196003
0.0184582
0.0170662
0.0154632
0.0136821
0.0117513
0.00969685
0.00754413
0.00532016
0.0030551
0.000783421
-0.00145559
-0.0036182
-0.00565735
-0.00752447
-0.00917187
-0.0105589
0.0164401
0.0173852
0.0181972
0.0186063
0.0185673
0.0181514
0.017419
0.0164174
0.0151887
0.0137698
0.0121923
0.0104838
0.00866958
0.00677404
0.00482235
0.00284165
0.000861907
-0.00108375
-0.0029594
-0.00472719
-0.00634865
-0.00778634
-0.00900849
0.0143396
0.0151796
0.0159238
0.0163106
0.0162985
0.0159503
0.0153183
0.014445
0.0133687
0.0121237
0.0107395
0.00924184
0.00765422
0.00599904
0.004299
0.00257798
0.000861717
-0.000822027
-0.00244381
-0.00397323
-0.00537978
-0.00663409
-0.00771141
0.0123719
0.0131119
0.0137849
0.0141407
0.0141451
0.0138525
0.0133084
0.012551
0.0116154
0.010533
0.00933067
0.00803155
0.00665652
0.00522539
0.003758
0.0022749
0.000797862
-0.00065004
-0.0020448
-0.00336207
-0.00457779
-0.00566904
-0.00661685
0.0105318
0.0111728
0.0117719
0.0120919
0.0121055
0.0118588
0.0113916
0.0107388
0.00993306
0.00900251
0.00797077
0.00685789
0.00568172
0.00445914
0.00320698
0.00194254
0.000683966
-0.000549784
-0.00173927
-0.00286514
-0.00390858
-0.00485199
-0.00568123
0.00880688
0.00934452
0.0098674
0.0101505
0.0101697
0.00996214
0.0095635
0.00900693
0.00832227
0.00753428
0.00666292
0.00572474
0.00473443
0.0037059
0.00265304
0.00159016
0.000532139
-0.000505585
-0.00150743
-0.00245814
-0.00334322
-0.00414952
-0.00486701
0.00718042
0.0076008
0.00804503
0.00829596
0.008322
0.0081509
0.00781666
0.00735139
0.00678199
0.00612932
0.0054094
0.00463531
0.00381867
0.00297063
0.00210249
0.00122587
0.000352881
-0.000504041
-0.0013325
-0.00212061
-0.0028574
-0.0035334
-0.00414204
0.00564054
0.00591692
0.00628013
0.00650778
0.00654671
0.00641429
0.00614469
0.00576936
0.00531183
0.0047887
0.00421217
0.00359212
0.00293754
0.00225727
0.00156039
0.000856314
0.000154825
-0.000534122
-0.00120073
-0.00183581
-0.00243118
-0.00298036
-0.00347947
0.00416212
0.0042734
0.00456039
0.00477984
0.00484066
0.00475139
0.00454905
0.00426397
0.00391553
0.00351616
0.0030747
0.00259852
0.00209454
0.00156981
0.00103164
0.000487663
-5.42394e-05
-0.000586118
-0.00110025
-0.00158952
-0.00204788
-0.00247105
-0.00285717
0.00257001
0.00251891
0.00280504
0.00312412
0.00323202
0.00318717
0.00305179
0.00285473
0.00260993
0.00232604
0.00200941
0.00166558
0.00130002
0.00091838
0.000526607
0.000130878
-0.000262461
-0.000647036
-0.0010167
-0.00136589
-0.00168995
-0.00198602
-0.00225395
0.000661048
-7.38646e-06
0.00070565
0.00154076
0.00174494
0.00174239
0.00166882
0.0015521
0.00140096
0.00122125
0.00101753
0.000793974
0.000554831
0.000304601
4.80307e-05
-0.000209933
-0.000464198
-0.000709635
-0.000941257
-0.0011545
-0.00134556
-0.00151194
-0.00165215
0.000665052
-0.00416813
-0.00150975
-0.000158162
0.000114215
0.000183513
0.000183712
0.000148367
8.95264e-05
1.29479e-05
-7.7908e-05
-0.00018016
-0.000290906
-0.000407057
-0.000525313
-0.000642169
-0.000753946
-0.000856874
-0.00094721
-0.00102143
-0.00107647
-0.00111009
-0.00112063
787.104
785.32
797.093
792.873
860.35
846.788
833.537
828.766
851.513
845.651
840.256
838.034
549.065
530.543
457.775
390.007
3.34353
3.22202
3.31714
3.23818
29.3785
31.9652
30.9699
30.2367
29.2949
29.3157
19.208
5.96167
12.2423
2.73132
2.96627
3.49894
2.07308
2.61938
2.72227
2.4521
2.00091
2.05314
1.7027
1.50357
5.36778
2.3332
1.89818
1.00079
28.4788
21.1683
0.33947
0.289012
30.0388
20.788
-0.175128
-0.130657
5.59316
-0.388066
-0.210404
-0.105802
-0.282308
-0.295518
-0.28185
-0.257465
-0.212776
-0.216173
-0.210866
-0.201663
-0.158798
-0.162009
-0.16201
-0.159181
-0.124315
-0.127351
-0.128447
-0.127678
-0.0996731
-0.102235
-0.103527
-0.103599
-0.0809973
-0.0831404
-0.0844061
-0.0848214
-0.0663907
-0.0681862
-0.0693429
-0.069879
-0.0547451
-0.0562442
-0.0572672
-0.0578245
-0.0453195
-0.0465778
-0.0474737
-0.0480141
-0.0376427
-0.0387048
-0.0394874
-0.039996
-0.0313699
-0.0322767
-0.0329619
-0.033432
-0.0262354
-0.0270203
-0.0276241
-0.0280554
-0.0220245
-0.0227132
-0.0232501
-0.0236463
-0.0185622
-0.0191735
-0.0196563
-0.0200228
-0.0157066
-0.0162543
-0.0166935
-0.0170362
-0.0133438
-0.0138382
-0.014242
-0.0145659
-0.0113819
-0.0118308
-0.0122053
-0.012514
-0.00974582
-0.0101552
-0.0105045
-0.0108001
-0.00837278
-0.00874686
-0.00907345
-0.00935686
-0.00720931
-0.00755087
-0.00785573
-0.00812647
-0.00620903
-0.00651919
-0.00680189
-0.00705841
-0.00533149
-0.00560969
-0.00586832
-0.00610782
-0.0045416
-0.00478553
-0.00501654
-0.00523477
-0.00380974
-0.00401526
-0.00421329
-0.0044042
-0.00311227
-0.00327366
-0.00343147
-0.00358652
-0.00242956
-0.00254088
-0.00264903
-0.00275505
-0.00173119
-0.00178048
-0.0018274
-0.00187449
-0.00110698
-0.00109664
-0.00108449
-0.00107177
747.564
775.67
792.155
786.496
682.106
474.983
527.685
594.995
620.175
614.652
614.284
529.704
364.345
332.872
316.975
311.855
304.683
323.839
393.505
808.371
814.321
823.688
801.824
607.424
439.857
493.868
533.828
533.069
513.189
536.029
540.325
541.815
482.748
341.031
430.099
427.926
365.625
396.356
826.113
697.537
530.385
423.294
308.589
388.573
329.694
180.273
135.668
127.345
187.801
292.617
340.497
312.906
255.231
302.539
348.94
250.408
282.798
295.301
67.9133
11.0043
39.5495
168.798
279.937
121.415
96.2868
95.7603
93.3763
113.755
219.759
234.265
219.68
191.531
136.485
137.645
112.716
84.3144
3.86491
5.65698
7.20741
23.4198
79.6463
77.052
117.112
153.61
150.826
145.67
125.163
88.0005
69.733
82.6889
74.5606
77.6114
80.8235
74.9063
74.0062
19.4971
4.4978
5.49593
5.9647
5.52484
17.1652
122.857
155.436
133.087
80.7967
33.9914
8.551
7.83796
8.1771
45.3852
85.8183
86.466
85.8007
71.3303
7.23566
4.4809
5.12174
5.25016
5.3568
5.50838
27.2187
32.9587
15.7641
9.25162
8.97378
7.72001
7.04252
6.80585
18.6707
39.6842
62.7418
77.3695
56.5804
3.20637
3.82881
4.91547
13.9779
17.5147
10.5374
10.2603
12.7807
11.2163
10.0693
14.8193
14.8912
14.7969
6.88846
8.42857
1.13442
0.437353
1.85959
7.81327
2.57041
3.2144
15.2696
33.4967
33.3074
33.0818
32.5981
28.077
18.6068
12.8623
12.8601
12.9125
14.4627
14.3048
3.02607
0.34841
0.307895
0.281622
0.279772
2.44933
8.18088
35.2579
35.1911
33.0163
8.67854
4.5575
0.765982
1.29736
1.5009
0.930505
0.909414
2.67052
5.75636
0.43279
0.31761
0.293505
0.405939
0.262653
2.7262
17.1852
37.1357
36.0464
2.6689
-0.0360926
-0.0221305
0.0171727
0.0507689
0.0890619
0.123294
0.157604
0.27381
0.521385
0.566724
0.337466
0.541564
0.554856
0.308726
2.35791
13.0486
26.5911
12.8883
-0.0341706
0.0227798
-0.00595997
0.0138887
0.045229
0.078635
0.106847
0.132535
0.355626
0.820642
0.831939
0.831432
0.601802
0.185579
0.176037
0.825772
1.54311
0.0451774
-0.145762
-0.0715622
-0.0310675
-0.0214838
0.00605783
0.0349491
0.0645558
0.0894982
0.125701
0.638977
0.81599
0.618298
0.280608
0.177589
0.158333
0.15886
-0.26401
-0.235775
-0.19606
-0.155584
-0.0997098
-0.0594881
-0.0286203
-0.000458922
0.0258135
0.0499254
0.0705483
0.196013
0.328423
0.202436
0.124286
0.131141
0.139735
0.143378
0.142382
-0.216221
-0.192134
-0.168259
-0.134772
-0.0898424
-0.0509644
-0.0301144
-0.00535403
0.0181066
0.0392146
0.0601465
0.0816214
0.0809128
0.0926192
0.106249
0.11752
0.124857
0.127708
0.126061
-0.182149
-0.164696
-0.142002
-0.105987
-0.0648812
-0.0372042
-0.0165328
-0.00883294
0.0117326
0.0304122
0.0471861
0.0607025
0.0709119
0.0824572
0.0938454
0.103377
0.109746
0.111889
0.110607
-0.150566
-0.137801
-0.112072
-0.0782649
-0.0547273
-0.0322435
-0.011195
-0.0101828
0.00664353
0.0231718
0.0385065
0.0522154
0.0612369
0.0718353
0.0816751
0.0898167
0.0953051
0.0978914
0.0966977
-0.123775
-0.114525
-0.097139
-0.0734555
-0.0477795
-0.02819
-0.0202919
-0.0111418
0.0027904
0.01735
0.0314554
0.0440227
0.0527227
0.0617992
0.07043
0.0775219
0.0827782
0.088742
0.0847443
-0.101958
-0.0953173
-0.0848741
-0.0725943
-0.057423
-0.0420282
-0.0284227
-0.013344
0.00045117
0.0128575
0.0250082
0.0352269
0.0443168
0.0527673
0.060399
0.0667237
0.0716732
0.0783044
0.0749106
-0.084259
-0.0796639
-0.0720189
-0.0620954
-0.0507074
-0.0385871
-0.0262076
-0.0139714
-0.00204623
0.00981061
0.0201006
0.0288301
0.0371122
0.0448338
0.051647
0.0574299
0.0622205
0.0696745
0.0674982
-0.0698312
-0.0666142
-0.0608026
-0.0530278
-0.0439109
-0.03401
-0.0237416
-0.0134489
-0.00341593
0.00670353
0.0161346
0.0244568
0.0313639
0.0379645
0.0440637
0.0493725
0.0541104
0.0622907
0.110483
-0.0580212
-0.0557728
-0.0513593
-0.0452543
-0.0379403
-0.0298498
-0.0213328
-0.0126826
-0.0041417
0.00410473
0.0125759
0.0202546
0.0262546
0.0320564
0.0374751
0.0422486
0.0468198
0.0533293
0.235582
-0.0483317
-0.04677
-0.0434226
-0.0386204
-0.0327412
-0.0261244
-0.0190586
-0.0117908
-0.00452866
0.00255952
0.00938587
0.0158392
0.0217009
0.027027
0.031797
0.0360134
0.0400989
0.0424106
0.235038
-0.040378
-0.039334
-0.0367752
-0.0329886
-0.0282544
-0.0228364
-0.0169701
-0.0108619
-0.00468998
0.00139554
0.00727093
0.012839
0.0180217
0.0227549
0.0269953
0.0307357
0.034176
0.0365324
0.236411
-0.0338409
-0.0331524
-0.0312172
-0.0282315
-0.0244139
-0.0199716
-0.0150954
-0.00995738
-0.0047099
0.000514434
0.00560236
0.0104611
0.0150166
0.0192121
0.0230144
0.026423
0.0294887
0.0322512
0.226266
-0.0284725
-0.0280473
-0.0265877
-0.0242334
-0.0211512
-0.0175037
-0.0134446
-0.00911679
-0.00465002
-0.000160003
0.0042525
0.0085038
0.0125291
0.0162851
0.0197568
0.0229731
0.0260551
0.0291726
0.187446
-0.0240624
-0.0238331
-0.0227404
-0.0208872
-0.0183976
-0.015399
-0.0120152
-0.0083639
-0.00455492
-0.000687926
0.00314944
0.00688492
0.0104658
0.0138641
0.0170855
0.0201905
0.023354
0.0268107
0.222401
-0.0204348
-0.0203541
-0.0195529
-0.0180961
-0.0160864
-0.0136205
-0.0107966
-0.00771135
-0.00445657
-0.00111714
0.00223215
0.00553087
0.00873837
0.0118407
0.0148601
0.0178785
0.0210943
0.0247416
0.244357
-0.0174437
-0.0174769
-0.0169036
-0.0157713
-0.0141554
-0.0121305
-0.00977398
-0.00716418
-0.00437734
-0.00148491
0.00145017
0.00437834
0.00726969
0.0101215
0.0129679
0.0159058
0.0191608
0.0230156
0.249482
-0.0149697
-0.0150925
-0.0147041
-0.0138377
-0.0125486
-0.0108927
-0.00892984
-0.00672215
-0.00433212
-0.00181946
0.000763103
0.00337512
0.00599492
0.00862717
0.0113124
0.014154
0.0174004
0.0508431
0.254827
-0.0129148
-0.0131094
-0.0128737
-0.0122293
-0.0112158
-0.00987332
-0.00824594
-0.00638137
-0.00432985
-0.00214118
0.000140133
0.00248051
0.00486352
0.00729659
0.00981866
0.0125223
0.0156354
0.0826
0.260041
-0.0111975
-0.0114508
-0.0113434
-0.0108882
-0.0101119
-0.00904074
-0.00770408
-0.00613572
-0.00437497
-0.00246387
-0.000440881
0.00166526
0.00384134
0.00609496
0.00845806
0.0110009
0.013897
0.0820752
0.2652
-0.00974965
-0.010051
-0.0100535
-0.00976321
-0.00919621
-0.00836603
-0.00728707
-0.00597833
-0.0044692
-0.00279664
-0.000995619
0.000908472
0.0029056
0.00500529
0.00723782
0.00966355
0.0124379
0.0393368
0.270307
-0.00851236
-0.00885271
-0.00895077
-0.00880791
-0.00843119
-0.00782273
-0.00697994
-0.00590357
-0.00461348
-0.00314613
-0.00153653
0.000191716
0.00203295
0.00400426
0.0061484
0.00855114
0.0114214
0.0149628
0.2014
-0.00743401
-0.00780433
-0.00798584
-0.00797768
-0.00778092
-0.00738684
-0.00677204
-0.00590996
-0.00481056
-0.00351872
-0.00207555
-0.000505532
0.00118974
0.00303846
0.00510715
0.00753512
0.0105863
0.0145275
0.188593
-0.00646829
-0.0068581
-0.00711141
-0.00722872
-0.00720945
-0.00703716
-0.00666104
-0.00600564
-0.00506831
-0.00392227
-0.0026245
-0.0012045
0.000346201
0.00204274
0.00399619
0.00635276
0.00939793
0.0135201
0.282486
-0.00557314
-0.00596868
-0.00628
-0.0065145
-0.00667793
-0.00675436
-0.00665691
-0.00621227
-0.00539948
-0.00436338
-0.00319107
-0.00190963
-0.000522088
0.00096826
0.00267509
0.0047575
0.00752625
0.0292578
0.291742
-0.00471039
-0.00509213
-0.0054415
-0.00578037
-0.00613471
-0.00650661
-0.0067711
-0.00655152
-0.00580128
-0.00482747
-0.00375847
-0.00262072
-0.00145965
-0.000259694
0.00108345
0.00270742
0.00494236
0.0275848
0.296062
-0.00384403
-0.00418152
-0.00453345
-0.00494352
-0.00547898
-0.00620699
-0.00701462
-0.00707882
-0.00625978
-0.00527501
-0.00428322
-0.00331744
-0.00241395
-0.00160275
-0.00073819
0.000209207
0.00153998
0.00529632
0.281247
-0.00293543
-0.00318076
-0.00347001
-0.00387259
-0.0045334
-0.00574054
-0.00770614
-0.00840423
-0.00710091
-0.00590158
-0.00492871
-0.00412896
-0.00353374
-0.00315232
-0.00245463
-0.00277523
-0.00295814
0.000781309
0.279466
-0.00196277
-0.00206684
-0.00221495
-0.00250704
-0.00322823
-0.00528015
-0.0103599
-0.0125043
-0.00947812
-0.00751016
-0.00639556
-0.0057203
-0.00548634
-0.00449469
-0.00372027
-0.00671911
-0.011001
-0.000337814
0.261265
-0.00105566
-0.00102505
-0.00105782
-0.00128833
-0.00216427
-0.00554777
-0.0157816
-0.0164677
-0.0108772
-0.00806634
-0.00688435
-0.00641405
-0.00661994
-0.0060769
-0.00714361
-0.0104034
-0.0188336
-0.0247621
0.103906
)
;

boundaryField
{
    leftWall
    {
        type            fixedFluxPressure;
        gradient        uniform 0;
        value           nonuniform List<scalar> 
50
(
830.527
830.542
830.526
830.426
830.255
830.047
829.839
829.677
829.599
830.541
703.207
86.9969
0.108404
0.140613
0.12194
0.112601
0.106255
0.102471
0.0989351
0.0945574
0.0894353
0.0840074
0.0783038
0.0724234
0.0665539
0.0609445
0.0558588
0.0513585
0.0474401
0.043945
0.0407177
0.0376296
0.0346213
0.0316918
0.0288585
0.0261337
0.0235247
0.0210366
0.0186734
0.0164401
0.0143396
0.0123719
0.0105318
0.00880688
0.00718042
0.00564054
0.00416212
0.00257001
0.000661048
0.000665052
)
;
    }
    rightWall
    {
        type            fixedFluxPressure;
        gradient        uniform 0;
        value           nonuniform List<scalar> 
50
(
626.055
623.154
620.397
617.839
616.255
616.057
598.552
466.724
393.505
396.356
282.798
84.3144
74.0062
71.3303
56.5804
7.81327
0.279772
0.262653
0.308726
0.176037
0.15886
0.142382
0.126061
0.110607
0.0966977
0.0847443
0.0749106
0.0674982
0.110483
0.235582
0.235038
0.236411
0.226266
0.187446
0.222401
0.244357
0.249482
0.254827
0.260041
0.2652
0.270307
0.2014
0.188593
0.282486
0.291742
0.296062
0.281247
0.279466
0.261265
0.103906
)
;
    }
    lowerWall
    {
        type            fixedFluxPressure;
        gradient        uniform 0;
        value           nonuniform List<scalar> 
62
(
830.527
830.964
832.037
833.44
834.657
835.858
837.154
838.659
840.462
842.652
845.313
848.478
852.13
856.255
860.897
866.22
872.308
878.712
887.432
897.665
909.221
917.657
925.029
925.029
925.807
928.054
932.467
937.498
940.687
941.445
935.784
787.104
785.32
797.093
792.873
704.115
702.001
698.275
692.683
690.692
690.099
680.815
666.214
704.115
718.556
737.206
737.913
721.26
696.483
676.302
660.784
644.281
629.61
624.003
623.683
620.127
616.246
615.378
612.71
611.103
619.91
626.055
)
;
    }
    atmosphere
    {
        type            totalPressure;
        rho             rho;
        psi             none;
        gamma           1;
        p0              uniform 0;
        value           nonuniform List<scalar> 
46
(
-0.000256389
-0.000899174
-0.000857262
-0.000793721
-0.000746916
-0.000716447
-0.000701238
-0.000699452
-0.000709333
-0.000729213
-0.000757422
-0.0007922
-0.00083162
-0.000873548
-0.000915623
-0.000955258
-0.000989671
-0.00101594
-0.00103109
-0.00103222
-0.00101666
-0.000982234
-0.000927583
-0.000872019
-0.000832216
-0.000788349
-0.00074081
-0.000656783
-0.000523381
-0.000384162
-0.000248014
-0.000125407
-3.50523e-05
-1.233e-06
0
0
0
0
0
0
0
0
0
0
0
0
)
;
    }
    defaultFaces
    {
        type            empty;
    }
}


// ************************************************************************* //
