/*--------------------------------*- C++ -*----------------------------------*\
  =========                 |
  \\      /  F ield         | OpenFOAM: The Open Source CFD Toolbox
   \\    /   O peration     | Website:  https://openfoam.org
    \\  /    A nd           | Version:  9
     \\/     M anipulation  |
\*---------------------------------------------------------------------------*/
FoamFile
{
    format      ascii;
    class       surfaceScalarField;
    location    "2.32";
    object      alphaPhi0.water;
}
// * * * * * * * * * * * * * * * * * * * * * * * * * * * * * * * * * * * * * //

dimensions      [0 3 -1 0 0 0 0];

internalField   nonuniform List<scalar> 
4432
(
-5.8816e-07
5.88161e-07
-7.69415e-07
1.81255e-07
-8.4345e-07
7.40344e-08
-9.09578e-07
6.61251e-08
-1.00908e-06
9.94976e-08
-1.15e-06
1.40915e-07
-1.33635e-06
1.86349e-07
-1.57283e-06
2.36478e-07
-1.86321e-06
2.90381e-07
-2.20684e-06
3.43635e-07
-2.59508e-06
3.88249e-07
-3.00944e-06
4.14358e-07
-3.42369e-06
4.14251e-07
-3.80648e-06
3.82798e-07
-4.11739e-06
3.10915e-07
-4.29925e-06
1.81857e-07
-4.3139e-06
1.46685e-08
-4.36051e-06
1.07081e-07
-4.6636e-06
2.97101e-07
-4.33961e-06
-3.43609e-07
-3.03675e-06
-1.31597e-06
-1.37786e-06
-1.67365e-06
-1.38791e-06
-4.10086e-07
9.98247e-07
-5.62834e-07
3.34e-07
-6.8051e-07
1.91706e-07
-8.03157e-07
1.88767e-07
-9.46092e-07
2.42429e-07
-1.12027e-06
3.15095e-07
-1.33506e-06
4.01137e-07
-1.59905e-06
5.00464e-07
-1.91733e-06
6.0867e-07
-2.28862e-06
7.14926e-07
-2.70272e-06
8.02356e-07
-3.14053e-06
8.52171e-07
-3.57742e-06
8.51146e-07
-3.98631e-06
7.91693e-07
-4.33647e-06
6.61074e-07
-4.59404e-06
4.39425e-07
-4.7373e-06
1.61715e-07
-4.64989e-06
1.04128e-07
-4.3953e-06
3.67317e-08
-3.83295e-06
-9.64267e-07
-2.66796e-06
-2.48681e-06
-1.23042e-06
-3.11702e-06
-2.61841e-06
-2.67932e-07
1.26618e-06
-4.35113e-07
5.0118e-07
-5.83931e-07
3.4052e-07
-7.39442e-07
3.44274e-07
-9.09437e-07
4.12422e-07
-1.10437e-06
5.10029e-07
-1.33615e-06
6.32918e-07
-1.61526e-06
7.79571e-07
-1.9475e-06
9.40915e-07
-2.33156e-06
1.09898e-06
-2.75729e-06
1.22809e-06
-3.20661e-06
1.30148e-06
-3.65763e-06
1.30216e-06
-4.08805e-06
1.22211e-06
-4.47468e-06
1.04771e-06
-4.79091e-06
7.55649e-07
-4.99847e-06
3.69285e-07
-4.84379e-06
5.84593e-08
-4.44582e-06
-3.67008e-07
-3.72338e-06
-1.70294e-06
-2.56974e-06
-3.66272e-06
-1.06332e-06
-4.62353e-06
-3.68179e-06
-1.68873e-07
1.43505e-06
-3.44648e-07
6.76951e-07
-5.18479e-07
5.14349e-07
-6.98645e-07
5.24438e-07
-8.89558e-07
6.03335e-07
-1.10134e-06
7.21806e-07
-1.34742e-06
8.79002e-07
-1.63959e-06
1.07174e-06
-1.98425e-06
1.28558e-06
-2.38035e-06
1.49508e-06
-2.8181e-06
1.66583e-06
-3.28041e-06
1.76379e-06
-3.74784e-06
1.76959e-06
-4.20218e-06
1.67646e-06
-4.62523e-06
1.47077e-06
-4.99228e-06
1.1227e-06
-5.25119e-06
6.28198e-07
-5.17558e-06
5.28969e-08
-4.72531e-06
-7.82101e-07
-3.93201e-06
-2.51285e-06
-2.71033e-06
-4.94934e-06
-9.82332e-07
-6.35163e-06
-4.6637e-06
-1.03602e-07
1.53865e-06
-2.82571e-07
8.55918e-07
-4.75933e-07
7.07711e-07
-6.76037e-07
7.24541e-07
-8.84328e-07
8.11626e-07
-1.11072e-06
9.48202e-07
-1.36985e-06
1.13813e-06
-1.67451e-06
1.3764e-06
-2.03163e-06
1.6427e-06
-2.44057e-06
1.90403e-06
-2.89208e-06
2.11735e-06
-3.36995e-06
2.24167e-06
-3.85687e-06
2.25651e-06
-4.33835e-06
2.15794e-06
-4.80016e-06
1.93258e-06
-5.21877e-06
1.54131e-06
-5.53762e-06
9.47061e-07
-5.60689e-06
1.31345e-07
-5.23516e-06
-1.12608e-06
-4.50956e-06
-3.32791e-06
-3.20812e-06
-6.29505e-06
-1.18293e-06
-8.37693e-06
-5.84708e-06
-6.44974e-08
1.60315e-06
-2.47189e-07
1.03861e-06
-4.55678e-07
9.16201e-07
-6.72092e-07
9.40958e-07
-8.95257e-07
1.03479e-06
-1.13483e-06
1.18778e-06
-1.40645e-06
1.40976e-06
-1.72366e-06
1.69361e-06
-2.09375e-06
2.01279e-06
-2.51662e-06
2.32689e-06
-2.98364e-06
2.58437e-06
-3.47934e-06
2.73736e-06
-3.98831e-06
2.76548e-06
-4.49961e-06
2.66924e-06
-5.00301e-06
2.43598e-06
-5.47764e-06
2.01595e-06
-5.87077e-06
1.34021e-06
-6.0642e-06
3.24752e-07
-5.91883e-06
-1.27145e-06
-5.36493e-06
-3.88181e-06
-4.19894e-06
-7.46105e-06
-1.96638e-06
-1.06096e-05
-7.81393e-06
-4.9783e-08
1.65293e-06
-2.38333e-07
1.22716e-06
-4.58522e-07
1.13639e-06
-6.88347e-07
1.17079e-06
-9.24611e-07
1.27106e-06
-1.17663e-06
1.4398e-06
-1.46083e-06
1.69396e-06
-1.79109e-06
2.02387e-06
-2.17481e-06
2.39651e-06
-2.61243e-06
2.76452e-06
-3.09614e-06
3.06808e-06
-3.61111e-06
3.25233e-06
-4.14367e-06
3.29803e-06
-4.68634e-06
3.21192e-06
-5.2333e-06
2.98294e-06
-5.76849e-06
2.55114e-06
-6.24915e-06
1.82087e-06
-6.58531e-06
6.60908e-07
-6.67582e-06
-1.18094e-06
-6.46129e-06
-4.09635e-06
-5.75294e-06
-8.16939e-06
-3.80956e-06
-1.2553e-05
-1.16235e-05
-5.88111e-08
1.71174e-06
-2.54736e-07
1.42309e-06
-4.84255e-07
1.36591e-06
-7.25365e-07
1.4119e-06
-9.73671e-07
1.51937e-06
-1.23815e-06
1.70428e-06
-1.53569e-06
1.9915e-06
-1.87986e-06
2.36804e-06
-2.27767e-06
2.79432e-06
-2.73023e-06
3.21707e-06
-3.23083e-06
3.56867e-06
-3.76533e-06
3.78683e-06
-4.32161e-06
3.85432e-06
-4.89554e-06
3.78585e-06
-5.48581e-06
3.57321e-06
-6.08259e-06
3.14793e-06
-6.65645e-06
2.39473e-06
-7.14753e-06
1.15199e-06
-7.49696e-06
-8.31515e-07
-7.68945e-06
-3.90385e-06
-7.73964e-06
-8.1192e-06
-6.98461e-06
-1.3308e-05
-1.86081e-05
2.13924e-07
-2.14202e-07
2.4546e-06
-2.24096e-06
4.88689e-06
-2.43557e-06
6.8184e-06
-1.93551e-06
8.22494e-06
-1.40288e-06
9.30581e-06
-1.0817e-06
9.31963e-06
-9.72771e-08
6.06952e-06
3.1258e-06
2.38252e-06
3.76367e-06
1.13383e-07
2.26367e-06
-5.0766e-07
6.21173e-07
-6.77607e-07
1.76885e-07
-1.51594e-06
8.59534e-07
-1.55345e-06
3.75169e-08
-2.08607e-07
-1.34484e-06
1.52111e-06
-1.72972e-06
2.1259e-06
-6.04779e-07
1.3122e-06
8.13712e-07
1.33064e-06
1.1913e-06
-1.39622e-06
3.08075e-06
-4.13319e-06
4.69932e-06
-4.05462e-06
5.91022e-06
-3.14689e-06
6.73673e-06
-2.22971e-06
7.1969e-06
-1.54236e-06
6.99385e-06
3.46345e-08
5.08379e-06
4.91279e-06
2.39633e-06
6.48583e-06
4.8356e-07
4.17173e-06
-3.86917e-07
1.49179e-06
-8.39388e-07
6.57492e-07
-1.26261e-06
1.28276e-06
-1.11509e-06
-1.10004e-07
-1.03668e-07
-2.35626e-06
1.25859e-06
-3.09196e-06
1.93573e-06
-1.2754e-06
1.55738e-06
1.20456e-06
2.88985e-06
1.82591e-06
-3.21297e-06
3.23411e-06
-5.5282e-06
4.24346e-06
-5.062e-06
4.96495e-06
-3.86875e-06
5.37149e-06
-2.63651e-06
5.44801e-06
-1.61922e-06
5.11915e-06
3.63001e-07
3.8572e-06
5.81766e-06
2.20816e-06
8.13504e-06
8.44536e-07
5.53554e-06
-3.71677e-08
2.3737e-06
-6.33656e-07
1.28101e-06
-8.99538e-07
1.54871e-06
-7.78503e-07
-2.31036e-07
-1.9339e-08
-3.11905e-06
1.03783e-06
-4.11307e-06
1.61422e-06
-1.84992e-06
1.4991e-06
1.3215e-06
4.39081e-06
2.07431e-06
-5.27449e-06
2.99547e-06
-6.43226e-06
3.57386e-06
-5.63779e-06
3.94407e-06
-4.23891e-06
4.04259e-06
-2.73503e-06
3.88693e-06
-1.46433e-06
3.56303e-06
6.86424e-07
2.90752e-06
6.0237e-06
2.11613e-06
8.11799e-06
1.27249e-06
6.37936e-06
4.91054e-07
3.15532e-06
-1.69192e-07
1.94438e-06
-4.43245e-07
1.89153e-06
-4.01432e-07
-2.85342e-07
4.78189e-08
-3.69335e-06
7.22287e-07
-4.81496e-06
1.19303e-06
-2.22658e-06
1.10944e-06
1.32638e-06
4.95833e-06
1.85337e-06
-7.1544e-06
2.3652e-06
-6.94609e-06
2.66979e-06
-5.94026e-06
2.81773e-06
-4.38724e-06
2.70969e-06
-2.62699e-06
2.41603e-06
-1.17067e-06
2.06235e-06
9.21236e-07
2.03874e-06
5.81044e-06
2.15369e-06
8.00243e-06
1.79803e-06
6.44903e-06
1.18593e-06
3.70344e-06
5.3501e-07
2.59868e-06
1.71573e-07
2.25673e-06
8.45709e-08
-2.03609e-07
1.65381e-07
-3.77417e-06
3.68411e-07
-5.16402e-06
7.10729e-07
-2.57527e-06
6.81873e-07
1.35025e-06
5.63579e-06
1.14012e-06
-8.3032e-06
1.35143e-06
-7.17859e-06
1.5355e-06
-6.12432e-06
1.5924e-06
-4.44414e-06
1.38452e-06
-2.41911e-06
1.01688e-06
-8.03028e-07
8.931e-07
9.93197e-07
1.48344e-06
5.21956e-06
2.16543e-06
7.31992e-06
2.20733e-06
6.40653e-06
2.02313e-06
4.09024e-06
1.40726e-06
3.21457e-06
9.90546e-07
2.67344e-06
7.59715e-07
2.72229e-08
5.44742e-07
-3.55919e-06
2.71066e-07
-4.93904e-06
2.45018e-07
-2.80534e-06
2.70579e-07
1.32027e-06
5.90196e-06
-1.80128e-07
-8.12581e-06
-2.80667e-08
-7.33992e-06
1.97566e-07
-6.34995e-06
2.86652e-07
-4.53323e-06
9.80382e-08
-2.23049e-06
-2.30085e-07
-4.75222e-07
-7.37483e-08
8.55743e-07
1.02424e-06
4.12104e-06
2.13514e-06
6.20847e-06
2.80812e-06
6.09931e-06
2.84096e-06
4.35378e-06
2.35176e-06
3.70378e-06
1.96324e-06
3.06196e-06
1.6772e-06
3.13273e-07
1.29722e-06
-3.17921e-06
6.2092e-07
-4.26274e-06
-4.45668e-09
-2.17998e-06
-2.60596e-07
1.73797e-06
6.23575e-06
-1.97411e-06
-6.16214e-06
-1.67312e-06
-7.6409e-06
-1.30643e-06
-6.71662e-06
-1.07144e-06
-4.76821e-06
-1.08902e-06
-2.21284e-06
-1.22124e-06
-3.05472e-07
-7.91807e-07
4.66377e-07
6.93838e-07
3.06741e-06
2.2202e-06
5.03608e-06
3.36556e-06
5.25064e-06
3.50408e-06
4.2153e-06
3.29678e-06
3.91108e-06
3.06897e-06
3.28977e-06
2.82599e-06
4.63683e-07
2.41723e-06
-2.73038e-06
1.45095e-06
-3.29647e-06
2.85381e-07
-1.01446e-06
-5.29873e-07
2.55313e-06
5.85874e-06
-2.0179e-07
1.91353e-06
-6.55385e-07
1.87668e-06
-1.17968e-06
1.89021e-06
-1.72747e-06
1.95968e-06
-2.29467e-06
2.08656e-06
-2.90029e-06
2.3099e-06
-3.58269e-06
2.6739e-06
-4.36528e-06
3.15063e-06
-5.25743e-06
3.68646e-06
-6.26538e-06
4.22502e-06
-7.38275e-06
4.68604e-06
-8.58096e-06
4.98505e-06
-9.83788e-06
5.11123e-06
-1.11556e-05
5.10356e-06
-1.25438e-05
4.96142e-06
-1.40001e-05
4.60418e-06
-1.55087e-05
3.90338e-06
-1.70312e-05
2.67448e-06
-1.85514e-05
6.88644e-07
-2.0186e-05
-2.26921e-06
-2.21231e-05
-6.18189e-06
-2.4762e-05
-1.06688e-05
-1.33464e-05
-3.00231e-05
-4.83024e-07
1.29036e-06
-9.51484e-07
1.27663e-06
-1.38735e-06
1.27516e-06
-1.86518e-06
1.35507e-06
-2.42955e-06
1.50302e-06
-3.08244e-06
1.71743e-06
-3.83603e-06
2.0352e-06
-4.68551e-06
2.4406e-06
-5.62458e-06
2.91195e-06
-6.66194e-06
3.42683e-06
-7.83223e-06
3.95221e-06
-9.13661e-06
4.40633e-06
-1.05484e-05
4.73619e-06
-1.20872e-05
4.95104e-06
-1.36298e-05
5.0766e-06
-1.51818e-05
6.15622e-06
-1.67873e-05
5.50884e-06
-1.84805e-05
4.36774e-06
-2.02775e-05
2.48559e-06
-2.21188e-05
-4.16376e-07
-2.37859e-05
-4.49276e-06
-2.51203e-05
-9.3208e-06
-1.25126e-05
-2.59516e-05
-2.66846e-07
6.25371e-08
-3.1618e-07
8.54354e-08
-3.38572e-07
7.31261e-08
-4.12557e-07
5.24699e-08
-5.80415e-07
2.90053e-08
-8.26415e-07
7.44665e-09
-1.11638e-06
3.18927e-09
-1.43426e-06
0
-1.78401e-06
0
-2.14282e-06
2.77572e-08
-2.56937e-06
4.99468e-08
-3.19267e-06
1.02279e-07
-4.03099e-06
0
-4.93941e-06
5.94091e-08
-6.01929e-06
5.82534e-08
-7.15048e-06
1.79445e-07
-8.34304e-06
3.24728e-07
-9.65184e-06
4.41361e-07
-1.10266e-05
4.22485e-07
-1.26126e-05
1.55881e-07
-1.44455e-05
-8.92081e-07
-1.57486e-05
-2.13888e-06
-2.8263e-06
-1.67532e-05
-1.62579e-08
2.39967e-08
-7.83676e-09
-7.33289e-09
-3.24836e-09
-5.98304e-11
-1.31829e-09
0
-1.30137e-09
0
-4.36109e-09
5.22227e-09
-6.66477e-09
3.55443e-09
-1.34715e-08
0
-2.61587e-08
0
-3.99758e-08
0
-6.17275e-08
0
-6.37117e-08
0
-6.2065e-08
5.56657e-08
-8.21561e-08
5.47043e-08
-9.17742e-08
4.23206e-08
-1.32574e-07
0
-1.95633e-07
0
-2.74069e-07
1.59068e-10
-4.28375e-07
0
-6.22592e-07
0
-5.81725e-07
-3.97478e-08
-3.51304e-07
-9.69987e-10
-2.06499e-09
-4.23957e-07
-7.51235e-08
4.39915e-08
-6.9701e-08
-2.05333e-08
-5.08292e-08
-1.79143e-08
-3.58347e-08
-1.19112e-09
-2.31793e-09
1.58553e-08
-5.6074e-09
3.23464e-09
-1.4069e-08
6.64172e-09
-1.01778e-08
9.46846e-09
-3.79889e-08
8.46828e-09
-2.18531e-07
1.65534e-08
-2.40047e-07
3.64391e-08
-1.29349e-07
8.23022e-08
-1.27965e-07
2.95186e-08
-1.30904e-07
3.28566e-08
-1.27733e-07
1.43967e-08
-1.84047e-07
5.11642e-09
-4.84414e-08
-2.29513e-08
-3.67436e-07
-3.4367e-08
-1.31688e-07
-5.95888e-08
-3.40059e-08
2.27678e-10
-2.98925e-09
7.45869e-09
-5.32309e-09
1.3506e-09
3.48074e-10
-7.74889e-09
-6.02778e-08
7.09153e-08
-6.92823e-08
-1.03502e-08
-8.04456e-08
-5.53888e-09
-8.73388e-08
6.8456e-09
-1.21247e-08
3.99922e-08
-3.38322e-08
1.96044e-08
-2.08322e-07
6.83126e-08
-2.52916e-07
6.60157e-08
-2.87781e-07
5.51939e-08
-2.9461e-07
3.52581e-08
-2.76084e-07
2.97936e-08
0
3.99778e-08
-4.96455e-07
6.44003e-08
-6.06213e-07
1.40839e-07
-5.76413e-07
4.11379e-09
-4.40363e-07
-1.07499e-07
-4.10973e-07
-8.04104e-08
-4.46909e-07
-5.3903e-08
-2.32258e-07
-5.70211e-08
-9.59767e-09
7.86695e-10
-5.11885e-09
2.96348e-09
-7.52199e-09
3.74108e-09
1.54705e-09
-8.73785e-09
-5.34307e-09
6.90749e-08
-1.58803e-08
1.52993e-09
-7.07178e-08
3.19273e-09
-9.23357e-08
3.09909e-08
-9.32154e-08
4.36813e-08
-8.27691e-08
1.1996e-08
-1.06828e-07
4.7866e-08
-8.86477e-08
3.20062e-09
-8.9125e-08
0
-3.01214e-07
7.6277e-09
-2.94596e-07
3.80043e-08
-2.073e-07
4.11969e-08
-8.43395e-08
6.15995e-10
-2.39235e-07
1.40242e-09
-4.93187e-07
-2.80422e-10
-5.40846e-07
-2.69656e-08
-1.29373e-07
-3.53839e-08
-2.57053e-08
-9.08322e-08
-9.94166e-09
-7.8757e-08
-5.97144e-09
-3.11597e-10
-5.82621e-09
2.80571e-09
-6.72212e-09
4.61977e-09
8.33965e-10
-8.94125e-09
1.83612e-08
4.50088e-08
1.35275e-08
4.45277e-10
-5.05361e-09
0
-2.67891e-08
0
-5.48492e-08
5.01152e-09
-7.18788e-08
1.15745e-08
-1.30395e-08
0
-8.54697e-10
6.62065e-11
-1.44659e-09
8.66102e-12
-2.5288e-08
0
-4.81297e-08
0
-3.70206e-08
0
-2.99344e-09
2.08045e-10
-1.7996e-09
1.69732e-11
-1.99401e-09
7.00124e-12
-2.91709e-08
0
-2.58437e-07
-2.44906e-08
-2.43274e-07
-8.34641e-08
-2.05817e-07
-7.70333e-08
-8.44954e-09
-3.61199e-08
-6.19347e-09
5.50248e-10
-1.39327e-08
1.23311e-08
9.11529e-10
-1.06064e-07
2.55859e-08
1.04309e-08
1.32841e-08
3.75148e-09
0
1.08351e-09
-2.4206e-10
9.79766e-12
-2.31398e-09
0
-9.63479e-10
2.37529e-11
-6.24518e-11
1.38682e-11
-1.11094e-11
1.02011e-12
-2.71275e-11
8.53742e-13
-1.38671e-10
1.86281e-12
-2.44105e-10
2.52373e-12
-1.96693e-10
3.4677e-12
-1.6882e-11
2.91127e-12
-4.6858e-12
7.71835e-13
-9.92987e-11
7.58743e-13
-4.16516e-09
3.87581e-10
-1.89084e-07
-6.19306e-09
-2.24814e-07
-1.9237e-08
-2.34269e-07
-2.96999e-08
-2.03732e-07
-1.70035e-08
-1.40235e-07
-1.32794e-08
-3.15508e-08
-7.25785e-09
-1.09122e-09
-1.64702e-08
9.99967e-09
-3.67696e-09
5.58118e-11
6.16935e-10
-9.51573e-12
3.02355e-11
-9.06258e-12
1.00666e-12
-2.58203e-11
0
-1.07685e-11
0
-8.95574e-13
3.01322e-12
-1.81988e-13
9.58998e-14
-5.13062e-13
2.3919e-14
-1.50756e-12
0
-3.37494e-12
4.92183e-14
-3.08163e-12
5.02875e-14
-5.1516e-13
2.3505e-14
-1.6642e-12
5.4205e-14
-3.2507e-10
3.29928e-12
-1.09774e-09
7.0562e-11
-7.55583e-10
-1.51664e-10
-1.56739e-08
-4.42858e-10
-4.15818e-08
-1.11833e-10
-5.79492e-08
-1.26681e-10
-5.16512e-08
-5.03154e-11
-1.16386e-08
-8.12494e-15
-4.19562e-13
-2.4638e-14
-6.37805e-10
0
-2.78645e-11
4.38443e-12
-1.03837e-12
3.92081e-13
-1.17009e-12
2.35445e-13
-7.15961e-12
7.90487e-12
-2.96563e-12
2.01872e-12
-9.03396e-14
1.37517e-13
-1.62362e-14
1.71275e-14
-3.11525e-14
1.39316e-14
-4.71724e-14
1.28707e-14
-4.26175e-14
1.42911e-14
-2.89947e-14
5.65514e-15
-1.5509e-14
3.53022e-15
-2.35577e-13
1.14699e-14
0
9.29105e-14
-2.93774e-10
0
-4.47589e-10
-4.60856e-12
-3.67824e-12
-8.99105e-11
-2.69539e-12
-1.1086e-10
-9.09043e-13
-1.27283e-10
-1.14033e-15
-5.12246e-11
-9.4875e-15
-5.91514e-16
-2.58812e-14
-4.04005e-13
-4.25223e-12
0
-4.05365e-13
2.84189e-13
-8.09978e-14
1.63085e-14
-6.77082e-13
3.48678e-13
-4.0655e-12
1.25671e-11
-6.94809e-12
7.16455e-12
-2.34138e-14
1.90486e-12
-1.16102e-14
4.43732e-15
-2.8151e-14
1.45047e-14
-2.99657e-14
3.14117e-14
-1.72393e-14
2.56367e-14
-8.35999e-15
9.43992e-15
-6.66656e-15
5.18251e-15
-2.72301e-14
7.5353e-15
-7.73901e-13
9.08683e-14
-2.45209e-11
0
-3.39853e-11
0
-1.08402e-10
-8.4355e-12
-1.36599e-10
-3.90389e-12
-1.53979e-10
-3.11859e-11
-1.78985e-14
-1.13739e-14
-1.83633e-14
-4.21671e-16
-7.14005e-16
-4.38485e-14
-1.09146e-13
0
-1.68645e-14
1.98568e-13
-1.83273e-15
1.37306e-14
-2.10232e-13
1.46584e-13
-6.59464e-12
5.33374e-12
-1.22977e-11
7.93492e-12
-5.40315e-15
7.15395e-12
-5.7629e-15
4.02977e-15
-1.47973e-14
4.91545e-15
-1.51474e-14
1.42681e-14
-8.33704e-15
1.34741e-14
-2.60931e-15
4.52825e-15
-4.71556e-16
2.37534e-15
-3.36306e-15
7.55487e-15
-1.30297e-12
5.07604e-13
-3.05402e-13
7.08549e-15
-3.05049e-13
0
-1.09233e-12
-1.91436e-13
-2.10999e-12
-1.10971e-12
-5.43685e-16
-4.6793e-15
-3.92332e-16
-1.18202e-14
-5.51297e-16
-5.57599e-16
-7.49759e-16
-7.8651e-16
-7.74791e-15
8.5065e-14
-6.36171e-15
2.14172e-13
0
2.47429e-14
-4.94988e-14
2.56187e-14
-8.69309e-13
8.02908e-15
-2.76466e-12
0
-2.55743e-15
3.20561e-12
-3.3069e-15
3.97923e-15
-2.84068e-15
3.68135e-15
-2.70166e-15
2.68743e-15
-1.13262e-15
1.02943e-15
-9.6526e-16
5.94402e-16
-4.1614e-15
1.75907e-15
-1.12641e-13
4.02871e-14
-8.30915e-15
3.77337e-15
-1.1512e-15
0
-2.21512e-14
1.14696e-17
-1.76641e-13
-1.8025e-14
-1.08577e-16
-2.15583e-19
-4.74409e-15
-2.78621e-17
-3.10038e-16
-1.70432e-16
-5.09711e-16
-1.40806e-15
-1.37519e-15
-2.07055e-16
-1.44264e-13
2.26884e-13
-1.16205e-15
2.54924e-12
-1.70763e-15
1.11332e-14
-2.28918e-15
6.94004e-15
-7.89152e-15
4.64872e-15
-1.38695e-13
3.87868e-15
-4.52951e-14
4.27906e-17
-5.74346e-15
6.46849e-14
-1.21494e-15
3.79542e-15
-9.11216e-17
2.08645e-15
-5.4074e-17
1.37058e-17
-1.00095e-16
1.47015e-17
-4.02175e-15
1.50764e-15
-9.05394e-16
3.221e-15
-6.90301e-18
0
-7.4965e-18
4.65449e-20
-7.45236e-16
4.53459e-17
-3.43016e-20
-4.79392e-16
-1.17613e-18
-1.09769e-18
-6.6633e-18
-5.49219e-18
-3.63964e-16
-3.49408e-16
-3.93472e-16
-1.2566e-15
-1.18056e-15
-1.25108e-16
0
1.8727e-13
-2.15625e-12
4.49978e-12
-7.47599e-16
3.90684e-11
-6.21776e-16
5.03381e-15
-5.58483e-16
2.67612e-15
-1.24736e-15
2.52648e-15
-3.66522e-15
1.14863e-15
-1.35644e-15
4.58049e-15
-6.67893e-16
4.25167e-15
-2.90113e-18
1.85519e-15
-8.65424e-19
4.39349e-18
-1.68676e-17
5.66972e-18
-3.84411e-17
5.95809e-17
2.67092e-17
2.97424e-17
1.10961e-19
1.44736e-17
3.98117e-20
1.1299e-19
4.6361e-17
1.54692e-17
5.3742e-17
1.99881e-19
2.66232e-19
3.01372e-18
1.05128e-18
1.09067e-17
2.32581e-18
1.43249e-17
-7.5207e-17
1.29325e-17
9.2365e-18
-3.45128e-17
0
1.83326e-13
-1.3893e-12
3.40943e-12
-1.3325e-12
4.04611e-11
-1.64416e-16
2.94671e-11
-1.79706e-16
1.61723e-15
-1.01661e-16
1.45342e-15
-9.76289e-17
1.14639e-15
-1.76222e-16
1.46028e-15
-9.1375e-17
1.63931e-15
-3.5084e-19
8.0391e-16
1.21923e-19
4.17187e-18
-6.04568e-19
-6.06199e-18
1.16888e-18
5.89628e-18
2.40639e-18
6.50979e-18
-5.46501e-18
-8.38193e-18
-1.03982e-17
-7.95981e-18
-1.64657e-18
-2.66418e-19
-4.86076e-19
7.55887e-18
-2.68281e-18
1.66365e-17
-5.37001e-18
2.1768e-17
-4.23938e-18
2.17958e-17
-2.20308e-18
1.82368e-17
1.31869e-17
-7.08012e-19
9.3606e-15
1.73904e-13
4.21145e-14
1.20562e-12
6.8647e-13
4.12671e-11
4.16157e-13
3.11868e-11
0
5.36663e-13
2.70658e-17
1.48982e-15
5.27367e-17
1.13938e-15
6.57491e-17
9.52329e-16
8.93672e-17
7.52013e-16
4.04197e-17
4.12828e-16
6.87785e-18
4.95163e-17
-3.4239e-19
-1.04329e-18
-6.54817e-18
-1.35983e-17
-1.21861e-17
-1.68273e-17
-2.09258e-17
-1.79339e-17
-2.69203e-17
-1.1722e-17
-2.81971e-17
-1.87261e-18
-2.67056e-17
9.00192e-18
-2.38421e-17
1.77038e-17
-1.86859e-17
2.20446e-17
-1.25801e-17
2.1942e-17
-7.33171e-18
1.86713e-17
1.39269e-17
-3.64125e-18
9.05791e-15
1.64843e-13
1.06577e-13
3.17757e-13
3.02877e-12
3.97943e-11
7.73652e-13
1.10751e-11
0
4.44028e-13
1.06854e-16
2.46972e-15
1.74024e-16
1.27321e-15
1.7644e-16
9.86891e-16
1.591e-16
7.2545e-16
8.58359e-17
3.97413e-16
1.26914e-17
1.34374e-16
2.86809e-18
9.3702e-18
-8.12335e-18
-1.05492e-17
-1.92185e-17
-1.7366e-17
-2.95724e-17
-1.69341e-17
-3.70511e-17
-1.05467e-17
-4.04211e-17
-8.62936e-19
-3.92909e-17
7.80409e-18
-3.41733e-17
1.42869e-17
-2.6628e-17
1.74253e-17
-1.86585e-17
1.7312e-17
-1.17542e-17
1.49081e-17
1.14161e-17
-6.60006e-18
1.03149e-14
1.54526e-13
1.26996e-12
2.4363e-13
3.14553e-12
1.08421e-11
0
0
0
4.12487e-14
2.86418e-16
2.84759e-15
3.15481e-16
1.48257e-15
3.02795e-16
1.10226e-15
2.55204e-16
7.86553e-16
1.60555e-16
4.75908e-16
5.35476e-17
2.061e-16
1.70626e-17
3.11508e-17
-2.1857e-18
-2.05249e-18
-1.69753e-17
-1.12527e-17
-2.87585e-17
-1.20872e-17
-3.68579e-17
-7.42687e-18
-4.04378e-17
7.32927e-20
-3.92266e-17
5.49427e-18
-3.41268e-17
9.48375e-18
-2.68978e-17
1.13609e-17
-1.93529e-17
1.12473e-17
-1.27485e-17
9.73572e-18
7.56267e-18
-7.67129e-18
1.13971e-14
1.43126e-13
1.42764e-13
6.87203e-13
3.81686e-13
0
7.35874e-17
3.15255e-16
7.80494e-16
2.28042e-15
5.07176e-16
2.58764e-15
4.54062e-16
1.51469e-15
4.17158e-16
1.10432e-15
3.51696e-16
7.84323e-16
2.38838e-16
4.81516e-16
1.01624e-16
2.20401e-16
1.14195e-17
5.14255e-17
1.1198e-18
2.02242e-18
-1.1063e-17
-5.76963e-18
-2.18925e-17
-7.19347e-18
-2.9094e-17
-4.407e-18
-3.19825e-17
2.914e-19
-3.08287e-17
3.2302e-18
-2.67576e-17
5.31357e-18
-2.1242e-17
6.24634e-18
-1.55442e-17
6.1354e-18
-1.05181e-17
5.30209e-18
4.13247e-18
-6.59026e-18
1.38167e-14
1.28726e-13
6.32133e-14
3.11671e-13
2.23031e-15
0
4.81071e-16
1.51113e-15
6.01296e-16
1.60222e-15
6.99341e-16
1.73118e-15
5.59324e-16
1.4327e-15
5.00305e-16
1.06896e-15
4.15994e-16
7.56514e-16
2.81189e-16
4.61552e-16
1.26102e-16
2.10713e-16
2.21046e-17
5.23041e-17
5.44969e-18
3.24358e-18
-5.47381e-18
-2.35966e-18
-1.38354e-17
-3.72986e-18
-1.90863e-17
-2.29161e-18
-2.09325e-17
2.31584e-19
-1.99676e-17
1.61399e-18
-1.72236e-17
2.53788e-18
-1.36829e-17
2.9138e-18
-1.00896e-17
2.8231e-18
-6.92422e-18
2.42089e-18
1.87896e-18
-4.43223e-18
7.70846e-15
8.75172e-14
1.09222e-14
1.05818e-14
3.44642e-16
1.98619e-15
4.3105e-16
1.6261e-15
5.11506e-16
1.47956e-15
5.96152e-16
1.35073e-15
6.0853e-16
1.18971e-15
5.50112e-16
9.52982e-16
4.37747e-16
6.59175e-16
2.81354e-16
3.76747e-16
1.23634e-16
1.63264e-16
2.28248e-17
4.14099e-17
6.102e-18
3.05473e-18
-2.15045e-18
-7.95656e-19
-7.62793e-18
-1.75492e-18
-1.07928e-17
-1.07894e-18
-1.16862e-17
1.2557e-19
-1.09349e-17
6.97421e-19
-9.28498e-18
1.04353e-18
-7.31069e-18
1.15804e-18
-5.38084e-18
1.09555e-18
-3.70817e-18
9.2449e-19
7.0965e-19
-2.39524e-18
4.02687e-15
2.90383e-14
4.30114e-16
4.71054e-15
3.53348e-16
1.84839e-15
4.37848e-16
1.51837e-15
5.09855e-16
1.36148e-15
5.67832e-16
1.1837e-15
5.80287e-16
9.94503e-16
5.1895e-16
7.59006e-16
3.82109e-16
4.84161e-16
2.16251e-16
2.40115e-16
8.12033e-17
8.41537e-17
1.28945e-17
1.62362e-17
3.54534e-18
8.97577e-19
-1.0578e-18
-3.4612e-19
-3.93509e-18
-7.98345e-19
-5.45639e-18
-4.74993e-19
-5.716e-18
5.40194e-20
-5.16868e-18
2.63438e-19
-4.25571e-18
3.71588e-19
-3.27266e-18
3.92787e-19
-2.37296e-18
3.57535e-19
-1.6239e-18
2.9319e-19
2.20436e-19
-1.04788e-18
9.9161e-16
3.82035e-15
3.57835e-16
2.89249e-15
3.44797e-16
1.6615e-15
4.23889e-16
1.35934e-15
4.91558e-16
1.19794e-15
5.22311e-16
1.00589e-15
4.97668e-16
7.74325e-16
4.006e-16
5.14746e-16
2.50775e-16
2.71237e-16
1.10064e-16
1.01406e-16
2.78859e-17
2.27831e-17
2.47241e-18
2.12541e-18
6.24669e-19
4.13915e-20
-8.17206e-19
-2.42295e-19
-1.95965e-18
-3.60283e-19
-2.51278e-18
-1.97993e-19
-2.48508e-18
1.92277e-20
-2.1327e-18
8.66904e-20
-1.67248e-18
1.13831e-19
-1.23343e-18
1.12668e-19
-8.66054e-19
9.6953e-20
-5.799e-19
7.60166e-20
5.52072e-20
-3.6935e-19
1.45287e-16
7.98301e-16
3.13978e-16
1.35168e-15
3.19354e-16
1.31111e-15
3.85872e-16
1.13022e-15
4.35115e-16
9.58484e-16
4.28271e-16
7.43914e-16
3.53243e-16
4.92194e-16
2.28612e-16
2.57004e-16
1.04127e-16
9.47512e-17
2.8391e-17
2.09675e-17
3.4535e-18
2.18267e-18
9.2572e-20
5.79012e-20
2.37355e-20
9.17668e-21
-5.06393e-19
-1.38808e-19
-9.04886e-19
-1.54184e-19
-1.04628e-18
-7.69732e-20
-9.56817e-19
5.70903e-21
-7.64776e-19
2.45435e-20
-5.60266e-19
2.9527e-20
-3.8838e-19
2.68166e-20
-2.58944e-19
2.13629e-20
-1.66629e-19
1.57102e-20
1.08438e-20
-1.03123e-19
5.95042e-17
5.18932e-16
1.79089e-16
7.69758e-16
2.69758e-16
9.06513e-16
3.2134e-16
8.16098e-16
3.29453e-16
6.40389e-16
2.75604e-16
4.19432e-16
1.7655e-16
2.1165e-16
7.81994e-17
7.33539e-17
2.05023e-17
1.48619e-17
2.60035e-18
1.4635e-18
1.13413e-19
5.26782e-20
3.62548e-20
1.73176e-20
-8.86102e-20
-3.21288e-20
-2.62518e-19
-6.76519e-20
-3.74453e-19
-6.02163e-20
-3.86911e-19
-2.71922e-20
-3.21594e-19
1.41312e-21
-2.34864e-19
5.8922e-21
-1.574e-19
6.37526e-21
-1.00277e-19
5.19058e-21
-6.20719e-20
3.73258e-21
-3.76047e-20
2.51372e-21
1.61606e-21
-2.22189e-20
4.29573e-17
3.74293e-16
1.22921e-16
5.12625e-16
1.91072e-16
5.51354e-16
2.15993e-16
4.57796e-16
1.82933e-16
2.97605e-16
1.14153e-16
1.42117e-16
4.78881e-17
4.525e-17
1.16438e-17
8.27781e-18
1.39366e-18
7.466e-19
6.87641e-20
2.97156e-20
2.7163e-20
3.77072e-22
-8.25728e-21
-3.74182e-21
-6.05604e-20
-2.08811e-20
-1.12641e-19
-2.76777e-20
-1.35825e-19
-2.09131e-20
-1.24722e-19
-8.50154e-21
-9.27006e-20
2.92574e-22
-6.06924e-20
1.18462e-21
-3.64096e-20
1.13004e-21
-2.07966e-20
8.04192e-22
-1.1641e-20
5.06593e-22
-6.47603e-21
3.02922e-22
1.7654e-22
-3.57627e-21
2.70436e-17
1.94145e-16
7.18795e-17
2.74639e-16
1.06026e-16
2.32948e-16
9.33953e-17
1.5226e-16
5.65602e-17
6.80782e-17
2.2089e-17
1.94321e-17
4.97591e-18
3.19643e-18
5.71973e-19
2.74903e-19
3.13114e-20
1.23394e-20
7.13338e-22
2.4752e-22
4.14499e-22
2.2777e-22
-1.09544e-20
-4.7679e-21
-2.8191e-20
-9.35732e-21
-4.08997e-20
-9.69727e-21
-4.25235e-20
-6.33921e-21
-3.44259e-20
-2.29499e-21
-2.25197e-20
5.14861e-23
-1.29829e-20
1.97748e-22
-6.82669e-21
1.63189e-22
-3.40638e-21
9.91024e-23
-1.67224e-21
5.29372e-23
-8.27694e-22
2.7027e-23
1.37421e-23
-4.15458e-22
9.87366e-18
4.16237e-17
2.86489e-17
6.77955e-17
2.96486e-17
4.42356e-17
1.83593e-17
1.88016e-17
6.72912e-18
4.85616e-18
1.41469e-18
7.30153e-19
1.64071e-19
6.34571e-20
1.07411e-20
3.47163e-21
3.75235e-22
1.12442e-22
2.18532e-22
1.43284e-22
-1.51116e-21
-8.04965e-22
-5.79406e-21
-2.45023e-21
-1.04303e-20
-3.36997e-21
-1.25678e-20
-2.90497e-21
-1.13232e-20
-1.64836e-21
-8.00497e-21
-5.23355e-22
-4.53987e-21
7.93239e-24
-2.26908e-21
2.72665e-23
-1.02731e-21
1.91691e-23
-4.37278e-22
9.76486e-24
-1.82213e-22
4.30349e-24
-7.71346e-23
1.7976e-24
7.56761e-25
-3.38514e-23
1.32939e-18
2.05711e-18
4.54435e-18
4.24028e-18
3.2106e-18
2.20454e-18
1.1757e-18
5.9064e-19
2.42731e-19
9.02429e-20
3.04729e-20
8.87673e-21
2.5492e-21
6.49082e-22
1.31002e-22
3.33247e-23
8.18104e-23
6.35291e-23
-1.47887e-22
-9.48242e-23
-9.53723e-22
-4.98114e-22
-2.21197e-21
-9.1894e-22
-3.17077e-21
-1.00762e-21
-3.24644e-21
-7.38319e-22
-2.53012e-21
-3.6208e-22
-1.54579e-21
-9.89608e-23
-7.49604e-22
1.09949e-24
-3.20867e-22
3.09223e-24
-1.23588e-22
1.83277e-24
-4.41576e-23
7.79095e-25
-1.5201e-23
2.80512e-25
-5.27319e-24
9.31735e-26
3.06934e-26
-1.91948e-24
4.84295e-20
2.16355e-20
2.02979e-19
5.63816e-20
1.06614e-19
2.71656e-20
2.54683e-20
6.13089e-21
3.82279e-21
8.47874e-22
4.20678e-22
8.78175e-23
3.14617e-23
6.80251e-24
2.20122e-23
2.63986e-25
-5.01305e-24
-3.83944e-24
-1.18962e-22
-7.54721e-23
-3.78611e-22
-1.96128e-22
-6.68347e-22
-2.75812e-22
-7.97532e-22
-2.51869e-22
-6.99017e-22
-1.5781e-22
-4.68721e-22
-6.63222e-23
-2.44805e-22
-1.52758e-23
-1.0023e-22
1.36776e-25
-3.64056e-23
2.8626e-25
-1.18678e-23
1.41531e-25
-3.54709e-24
5.02015e-26
-9.99533e-25
1.48685e-26
-2.76188e-25
3.94256e-27
9.93876e-28
-7.87911e-26
6.64655e-22
1.46102e-22
3.19856e-21
4.11564e-22
1.60743e-21
2.19125e-22
3.54025e-22
5.72202e-23
5.09608e-23
8.93263e-24
5.20868e-24
9.09436e-25
3.02529e-25
5.82645e-26
2.25381e-25
2.05894e-25
-1.01306e-23
-7.7465e-24
-4.97184e-23
-3.15931e-23
-1.13967e-22
-5.92678e-23
-1.6402e-22
-6.80328e-23
-1.65799e-22
-5.26121e-23
-1.24417e-22
-2.81485e-23
-7.12392e-23
-1.00263e-23
-3.14429e-23
-1.90013e-24
-1.07397e-23
1.4705e-26
-3.27974e-24
2.14041e-26
-9.0105e-25
8.70633e-27
-2.25756e-25
2.56741e-27
-5.2477e-26
6.30201e-28
-1.15976e-26
1.36241e-28
2.69977e-29
-2.53531e-27
7.4262e-24
1.28294e-24
3.82691e-23
3.87532e-24
2.01931e-23
2.16545e-24
4.46994e-24
5.75961e-25
5.70619e-25
8.40529e-26
4.23213e-26
7.90108e-27
3.87215e-26
4.23484e-26
-5.54794e-25
-5.10424e-25
-4.65524e-24
-3.60021e-24
-1.49776e-23
-9.65832e-24
-2.73206e-23
-1.44529e-23
-3.29658e-23
-1.39247e-23
-2.83982e-23
-9.16954e-24
-1.81743e-23
-4.16727e-24
-8.8038e-24
-1.24199e-24
-3.24228e-24
-1.88527e-25
-9.13076e-25
1.30066e-27
-2.31846e-25
1.27723e-27
-5.32855e-26
4.19865e-28
-1.11758e-26
1.01854e-28
-2.16082e-27
2.06698e-29
-3.90117e-28
3.68297e-30
5.92387e-31
-6.71075e-29
7.36913e-26
9.86401e-27
4.17152e-25
3.33393e-26
2.16032e-25
1.85976e-26
3.94378e-26
4.46672e-27
4.80416e-27
5.77226e-26
4.09941e-27
5.41297e-27
-6.36149e-26
-7.06116e-26
-3.22741e-25
-3.03021e-25
-1.43148e-24
-1.13513e-24
-3.51883e-24
-2.33577e-24
-5.31626e-24
-2.90338e-24
-5.4439e-24
-2.37746e-24
-3.99714e-24
-1.33346e-24
-2.16737e-24
-5.11057e-25
-8.7842e-25
-1.2568e-25
-2.66023e-25
-1.48364e-26
-6.10636e-26
9.10654e-29
-1.27136e-26
6.02195e-29
-2.41417e-27
1.56569e-29
-4.20209e-28
3.06679e-30
-6.74475e-29
5.07137e-31
-1.00538e-29
7.3897e-32
9.67902e-33
-1.40436e-30
5.39099e-28
7.17113e-27
3.31672e-27
2.4305e-26
1.67813e-27
1.35242e-26
1.71171e-27
3.41495e-27
-1.2888e-26
-2.08258e-26
-2.66946e-26
-3.59744e-26
-4.13972e-26
-4.72297e-26
-1.08019e-25
-1.04903e-25
-3.34402e-25
-2.75836e-25
-6.65296e-25
-4.61655e-25
-8.48547e-25
-4.8642e-25
-7.40862e-25
-3.40547e-25
-4.62164e-25
-1.62363e-25
-2.10505e-25
-5.20701e-26
-7.04622e-26
-1.04223e-26
-1.72512e-26
-9.29723e-28
-3.19183e-27
4.93012e-30
-5.36508e-28
2.23262e-30
-8.26552e-29
4.50071e-31
-1.17311e-29
6.95492e-32
-1.54025e-30
9.1489e-33
-1.87909e-31
1.06564e-33
1.08541e-34
-2.13587e-32
-6.14938e-28
-4.07983e-27
-1.43509e-27
-5.3367e-27
-3.33343e-27
-8.65535e-27
-6.44478e-27
-1.29937e-26
-1.02717e-26
-1.6954e-26
-1.26311e-26
-1.75514e-26
-1.40766e-26
-1.66992e-26
-2.61057e-26
-2.65647e-26
-6.21746e-26
-5.41204e-26
-1.03101e-25
-7.60018e-26
-1.12133e-25
-6.87082e-26
-8.35456e-26
-4.12702e-26
-4.40513e-26
-1.66928e-26
-1.66854e-26
-4.45133e-27
-4.54531e-27
-7.17531e-28
-8.8234e-28
-4.75198e-29
-1.2993e-28
2.03706e-31
-1.73885e-29
6.46361e-32
-2.13233e-30
9.94489e-33
-2.40987e-31
1.19099e-33
-2.52239e-32
1.22042e-34
-2.45669e-33
1.10783e-35
5.75459e-37
-2.16553e-34
-3.3218e-28
-2.09403e-27
-1.08322e-27
-3.92557e-27
-1.96688e-27
-5.07904e-27
-2.87824e-27
-5.86902e-27
-3.49892e-27
-5.92389e-27
-3.54502e-27
-5.11378e-27
-3.32251e-27
-4.13498e-27
-4.89736e-27
-5.27836e-27
-9.45529e-27
-8.79766e-27
-1.33073e-26
-1.05822e-26
-1.24144e-26
-8.28369e-27
-7.88674e-27
-4.28446e-27
-3.49429e-27
-1.47058e-27
-1.08901e-27
-3.25423e-28
-2.37689e-28
-4.21513e-29
-3.58296e-29
-2.10397e-30
-4.11752e-30
6.4076e-33
-4.31013e-31
1.45119e-33
-4.13136e-32
1.64944e-34
-3.64047e-33
1.4759e-35
-2.96217e-34
1.13145e-36
-2.2366e-35
7.64703e-38
-1.09077e-38
-9.99493e-37