/*--------------------------------*- C++ -*----------------------------------*\
  =========                 |
  \\      /  F ield         | OpenFOAM: The Open Source CFD Toolbox
   \\    /   O peration     | Website:  https://openfoam.org
    \\  /    A nd           | Version:  9
     \\/     M anipulation  |
\*---------------------------------------------------------------------------*/
FoamFile
{
    format      ascii;
    class       surfaceScalarField;
    location    "2.32";
    object      phi;
}
// * * * * * * * * * * * * * * * * * * * * * * * * * * * * * * * * * * * * * //

dimensions      [0 3 -1 0 0 0 0];

internalField   nonuniform List<scalar> 
4432
(
-5.9e-07
5.9e-07
-7.77312e-07
1.87314e-07
-8.58896e-07
8.15831e-08
-9.32239e-07
7.33442e-08
-1.03816e-06
1.05923e-07
-1.18484e-06
1.46678e-07
-1.37643e-06
1.91592e-07
-1.61773e-06
2.41304e-07
-1.91251e-06
2.9478e-07
-2.25996e-06
3.4745e-07
-2.65116e-06
3.91198e-07
-3.0673e-06
4.1614e-07
-3.48197e-06
4.14662e-07
-3.8636e-06
3.81627e-07
-4.17127e-06
3.07671e-07
-4.34702e-06
1.75744e-07
-4.35356e-06
6.5471e-09
-4.45356e-06
9.99921e-08
-4.73998e-06
2.86425e-07
-4.37101e-06
-3.68979e-07
-3.03231e-06
-1.3387e-06
-1.35611e-06
-1.6762e-06
-1.35611e-06
-4.14278e-07
1.00428e-06
-5.73743e-07
3.46781e-07
-6.98626e-07
2.06465e-07
-8.28364e-07
2.03084e-07
-9.77918e-07
2.55478e-07
-1.15815e-06
3.26915e-07
-1.37852e-06
4.1196e-07
-1.64766e-06
5.10435e-07
-1.97058e-06
6.17706e-07
-2.34581e-06
7.22681e-07
-2.7629e-06
8.08278e-07
-3.20247e-06
8.55717e-07
-3.63978e-06
8.51964e-07
-4.04755e-06
7.89405e-07
-4.39476e-06
6.54874e-07
-4.64731e-06
4.28292e-07
-4.78671e-06
1.45955e-07
-4.77337e-06
8.66437e-08
-4.4919e-06
4.96093e-09
-3.84717e-06
-1.01372e-06
-2.65867e-06
-2.5272e-06
-1.20995e-06
-3.12492e-06
-2.56607e-06
-2.73939e-07
1.27821e-06
-4.48165e-07
5.21007e-07
-6.04196e-07
3.62496e-07
-7.66704e-07
3.65593e-07
-9.43273e-07
4.32048e-07
-1.14431e-06
5.27953e-07
-1.38176e-06
6.49406e-07
-1.66607e-06
7.94752e-07
-2.00296e-06
9.546e-07
-2.39091e-06
1.11063e-06
-2.81952e-06
1.23689e-06
-3.27052e-06
1.30672e-06
-3.72194e-06
1.30339e-06
-4.15139e-06
1.21885e-06
-4.53547e-06
1.03896e-06
-4.84732e-06
7.40146e-07
-5.04808e-06
3.46717e-07
-4.9912e-06
2.97662e-08
-4.56786e-06
-4.18378e-07
-3.77897e-06
-1.80262e-06
-2.56813e-06
-3.73803e-06
-1.05177e-06
-4.6413e-06
-3.61783e-06
-1.76293e-07
1.45451e-06
-3.59662e-07
7.04376e-07
-5.4081e-07
5.43643e-07
-7.27966e-07
5.5275e-07
-9.25445e-07
6.29526e-07
-1.14336e-06
7.45872e-07
-1.39517e-06
9.01215e-07
-1.69259e-06
1.09217e-06
-2.0419e-06
1.30391e-06
-2.44183e-06
1.51056e-06
-2.88237e-06
1.67744e-06
-3.34627e-06
1.77062e-06
-3.81405e-06
1.77116e-06
-4.26747e-06
1.67227e-06
-4.68818e-06
1.45967e-06
-5.05125e-06
1.10322e-06
-5.30402e-06
5.99483e-07
-5.28884e-06
1.45883e-08
-4.85479e-06
-8.52424e-07
-4.02057e-06
-2.63685e-06
-2.71843e-06
-5.04017e-06
-9.78165e-07
-6.38157e-06
-4.59599e-06
-1.12281e-07
1.56678e-06
-2.99419e-07
8.91514e-07
-5.00318e-07
7.44542e-07
-7.07477e-07
7.5991e-07
-9.2237e-07
8.4442e-07
-1.15496e-06
9.78461e-07
-1.41988e-06
1.16613e-06
-1.72983e-06
1.40212e-06
-2.0916e-06
1.66568e-06
-2.50434e-06
1.9233e-06
-2.95856e-06
2.13165e-06
-3.4379e-06
2.24996e-06
-3.92506e-06
2.25832e-06
-4.40558e-06
2.15279e-06
-4.8651e-06
1.91919e-06
-5.27993e-06
1.51805e-06
-5.59303e-06
9.12591e-07
-5.66303e-06
8.45804e-08
-5.3263e-06
-1.18914e-06
-4.55785e-06
-3.4053e-06
-3.22502e-06
-6.37299e-06
-1.18634e-06
-8.42025e-06
-5.78233e-06
-7.43762e-08
1.64116e-06
-2.65802e-07
1.08294e-06
-4.82107e-07
9.60847e-07
-7.05704e-07
9.83507e-07
-9.35553e-07
1.07427e-06
-1.1814e-06
1.22431e-06
-1.45889e-06
1.44362e-06
-1.78144e-06
1.72468e-06
-2.1562e-06
2.04044e-06
-2.58283e-06
2.34993e-06
-3.05246e-06
2.60129e-06
-3.54948e-06
2.74698e-06
-4.05853e-06
2.76737e-06
-4.56873e-06
2.66299e-06
-5.06971e-06
2.42017e-06
-5.54051e-06
1.98885e-06
-5.92799e-06
1.30007e-06
-6.11358e-06
2.70172e-07
-5.95977e-06
-1.34296e-06
-5.39795e-06
-3.96712e-06
-4.22359e-06
-7.54734e-06
-1.98021e-06
-1.06636e-05
-7.76253e-06
-6.0847e-08
1.702e-06
-2.58647e-07
1.28074e-06
-4.86953e-07
1.18915e-06
-7.24136e-07
1.22069e-06
-9.67211e-07
1.31734e-06
-1.22562e-06
1.48272e-06
-1.51577e-06
1.73377e-06
-1.85143e-06
2.06034e-06
-2.23982e-06
2.42884e-06
-2.68117e-06
2.79129e-06
-3.16738e-06
3.0875e-06
-3.68348e-06
3.26308e-06
-4.21587e-06
3.29976e-06
-4.75716e-06
3.20428e-06
-5.30138e-06
2.96439e-06
-5.83239e-06
2.51987e-06
-6.30705e-06
1.77473e-06
-6.63535e-06
5.98468e-07
-6.71744e-06
-1.26087e-06
-6.4958e-06
-4.18876e-06
-5.78251e-06
-8.26062e-06
-3.83441e-06
-1.26117e-05
-1.15969e-05
-7.10027e-08
1.77301e-06
-2.76608e-07
1.48635e-06
-5.14552e-07
1.4271e-06
-7.63253e-07
1.46939e-06
-1.01854e-06
1.57263e-06
-1.28955e-06
1.75372e-06
-1.59315e-06
2.03737e-06
-1.94277e-06
2.40996e-06
-2.34525e-06
2.83132e-06
-2.80147e-06
3.24751e-06
-3.30444e-06
3.59047e-06
-3.83983e-06
3.79847e-06
-4.39559e-06
3.85553e-06
-4.96771e-06
3.7764e-06
-5.55468e-06
3.55136e-06
-6.14661e-06
3.1118e-06
-6.71361e-06
2.34173e-06
-7.19595e-06
1.08081e-06
-7.53552e-06
-9.21292e-07
-7.71964e-06
-4.00463e-06
-7.7646e-06
-8.21566e-06
-7.00482e-06
-1.33715e-05
-1.86018e-05
2.34688e-07
-2.34688e-07
2.51526e-06
-2.28058e-06
4.96818e-06
-2.45291e-06
6.90371e-06
-1.93553e-06
8.30302e-06
-1.39931e-06
9.38075e-06
-1.07773e-06
9.48165e-06
-1.00896e-07
6.21686e-06
3.26479e-06
2.43573e-06
3.78113e-06
1.66591e-07
2.26915e-06
-4.57101e-07
6.23693e-07
-6.40652e-07
1.83548e-07
-1.53857e-06
8.97921e-07
-1.5864e-06
4.78249e-08
-1.93193e-07
-1.3932e-06
1.60198e-06
-1.79518e-06
2.22365e-06
-6.21665e-07
1.37066e-06
8.52978e-07
1.37066e-06
1.22375e-06
-1.45843e-06
3.12594e-06
-4.18278e-06
4.74002e-06
-4.06699e-06
5.95146e-06
-3.14697e-06
6.7772e-06
-2.22504e-06
7.23917e-06
-1.53971e-06
7.11058e-06
2.77045e-08
5.2058e-06
5.16959e-06
2.4609e-06
6.52602e-06
5.47142e-07
4.18291e-06
-3.28679e-07
1.49951e-06
-8.16047e-07
6.70916e-07
-1.26641e-06
1.34829e-06
-1.12369e-06
-9.4895e-08
-8.11857e-08
-2.43571e-06
1.31985e-06
-3.19621e-06
1.97538e-06
-1.2772e-06
1.58845e-06
1.23991e-06
2.95911e-06
1.86459e-06
-3.32301e-06
3.26812e-06
-5.58632e-06
4.28086e-06
-5.07974e-06
5.00425e-06
-3.87036e-06
5.41242e-06
-2.6332e-06
5.49305e-06
-1.62036e-06
5.17051e-06
3.50249e-07
4.05877e-06
6.28133e-06
2.27708e-06
8.30771e-06
9.10106e-07
5.54988e-06
2.56433e-08
2.38397e-06
-5.98401e-07
1.29496e-06
-8.81804e-07
1.63169e-06
-7.67778e-07
-2.08925e-07
1.06613e-08
-3.21415e-06
1.06463e-06
-4.25018e-06
1.64687e-06
-1.85944e-06
1.52379e-06
1.36299e-06
4.48291e-06
2.10435e-06
-5.42737e-06
3.02609e-06
-6.50805e-06
3.60793e-06
-5.66159e-06
3.98124e-06
-4.24367e-06
4.08308e-06
-2.73504e-06
3.93406e-06
-1.47134e-06
3.61778e-06
6.66529e-07
3.15972e-06
6.73938e-06
2.31977e-06
9.14765e-06
1.33939e-06
6.53026e-06
5.5745e-07
3.16591e-06
-1.04935e-07
1.95733e-06
-3.98804e-07
1.92555e-06
-3.58382e-07
-2.49351e-07
8.18938e-08
-3.65443e-06
7.69772e-07
-4.93806e-06
1.26771e-06
-2.35738e-06
1.15528e-06
1.47542e-06
5.63819e-06
1.87688e-06
-7.30426e-06
2.39668e-06
-7.02785e-06
2.70008e-06
-5.96499e-06
2.85305e-06
-4.39663e-06
2.74998e-06
-2.63197e-06
2.46394e-06
-1.18531e-06
2.21974e-06
9.10723e-07
2.38213e-06
6.577e-06
2.46923e-06
9.06055e-06
1.89495e-06
7.10454e-06
1.25764e-06
3.80322e-06
6.03087e-07
2.61189e-06
2.37197e-07
2.29144e-06
1.39293e-07
-1.51447e-07
2.03773e-07
-3.71891e-06
4.26953e-07
-5.16125e-06
8.48017e-07
-2.77844e-06
7.81344e-07
1.54208e-06
6.41952e-06
1.15221e-06
-8.45647e-06
1.37239e-06
-7.24801e-06
1.56231e-06
-6.15491e-06
1.62557e-06
-4.45989e-06
1.42397e-06
-2.43038e-06
1.06572e-06
-8.27065e-07
9.8743e-07
9.89012e-07
1.74363e-06
5.82081e-06
2.51885e-06
8.28532e-06
2.51618e-06
7.10721e-06
2.09466e-06
4.22474e-06
1.47831e-06
3.22824e-06
1.05889e-06
2.71086e-06
8.17237e-07
9.02059e-08
5.88335e-07
-3.49e-06
2.9862e-07
-4.87153e-06
2.68905e-07
-2.74873e-06
3.13801e-07
1.49719e-06
6.73333e-06
-1.75609e-07
-8.28086e-06
-1.14766e-08
-7.41214e-06
2.21539e-07
-6.38793e-06
3.18379e-07
-4.55673e-06
1.37944e-07
-2.24994e-06
-1.8117e-07
-5.07952e-07
-1.57263e-08
8.23565e-07
1.22332e-06
4.58176e-06
2.4845e-06
7.02414e-06
3.11736e-06
6.47435e-06
2.92119e-06
4.42092e-06
2.42606e-06
3.72337e-06
2.03299e-06
3.10393e-06
1.73634e-06
3.86862e-07
1.34283e-06
-3.0965e-06
6.4977e-07
-4.17847e-06
9.83956e-09
-2.10879e-06
-2.81783e-07
1.78881e-06
6.45155e-06
-1.96467e-06
-6.31619e-06
-1.6571e-06
-7.7197e-06
-1.28426e-06
-6.76077e-06
-1.0414e-06
-4.79959e-06
-1.05123e-06
-2.24011e-06
-1.17358e-06
-3.85604e-07
-7.60043e-07
4.10025e-07
7.95303e-07
3.02642e-06
2.41867e-06
5.40077e-06
3.44961e-06
5.4434e-06
3.57961e-06
4.29091e-06
3.36976e-06
3.93322e-06
3.13739e-06
3.33629e-06
2.93053e-06
5.93727e-07
2.46423e-06
-2.6302e-06
1.47899e-06
-3.19323e-06
2.92711e-07
-9.22511e-07
-5.36757e-07
2.61828e-06
5.91479e-06
-2.2983e-07
2.00284e-06
-7.05532e-07
1.96205e-06
-1.2493e-06
1.97087e-06
-1.81434e-06
2.03444e-06
-2.39713e-06
2.15542e-06
-3.01724e-06
2.37384e-06
-3.71293e-06
2.73306e-06
-4.5072e-06
3.20423e-06
-5.40914e-06
3.73327e-06
-6.42463e-06
4.26301e-06
-7.54656e-06
4.7124e-06
-8.74567e-06
4.99758e-06
-1.00001e-05
5.10991e-06
-1.13122e-05
5.08855e-06
-1.26904e-05
4.92958e-06
-1.41331e-05
4.55449e-06
-1.56223e-05
3.83092e-06
-1.71191e-05
2.57754e-06
-1.86098e-05
5.69421e-07
-2.02116e-05
-2.40277e-06
-2.21136e-05
-6.31367e-06
-2.47163e-05
-1.07688e-05
-1.33944e-05
-2.99237e-05
-5.7588e-07
2.57872e-06
-1.12889e-06
2.51505e-06
-1.63743e-06
2.4794e-06
-2.18366e-06
2.58066e-06
-2.81387e-06
2.78563e-06
-3.527e-06
3.08696e-06
-4.33048e-06
3.53654e-06
-5.21173e-06
4.08548e-06
-6.16013e-06
4.68166e-06
-7.18227e-06
5.28514e-06
-8.31178e-06
5.84191e-06
-9.55513e-06
6.24093e-06
-1.08882e-05
6.44295e-06
-1.22896e-05
6.48997e-06
-1.37715e-05
6.41146e-06
-1.52988e-05
6.08186e-06
-1.6873e-05
5.40508e-06
-1.85254e-05
4.22996e-06
-2.02759e-05
2.31989e-06
-2.20761e-05
-6.02541e-07
-2.37168e-05
-4.67294e-06
-2.50449e-05
-9.44073e-06
-1.25554e-05
-2.58839e-05
-1.86287e-06
4.44159e-06
-2.21294e-06
2.86514e-06
-2.28201e-06
2.54851e-06
-2.61456e-06
2.91323e-06
-3.40136e-06
3.57247e-06
-4.4673e-06
4.15293e-06
-5.58858e-06
4.65784e-06
-6.64314e-06
5.14005e-06
-7.64161e-06
5.68016e-06
-8.49463e-06
6.13816e-06
-9.39233e-06
6.73962e-06
-1.05844e-05
7.43303e-06
-1.20823e-05
7.94078e-06
-1.35576e-05
7.96533e-06
-1.50048e-05
7.85865e-06
-1.62792e-05
7.35624e-06
-1.73264e-05
6.4522e-06
-1.84089e-05
5.31252e-06
-1.96343e-05
3.54525e-06
-2.10836e-05
8.46788e-07
-2.25024e-05
-3.2542e-06
-2.40796e-05
-7.86351e-06
-1.11031e-05
-2.55319e-05
-8.40919e-06
1.28508e-05
-4.52648e-06
-1.01772e-06
-2.13337e-06
1.55358e-07
-1.12208e-06
1.90193e-06
-2.84405e-06
5.2944e-06
-5.61472e-06
6.92358e-06
-7.88657e-06
6.92969e-06
-9.31869e-06
6.57215e-06
-1.07738e-05
7.13516e-06
-1.08469e-05
6.21123e-06
-1.03998e-05
6.29251e-06
-1.12027e-05
8.23593e-06
-1.39156e-05
1.06537e-05
-1.54158e-05
9.46548e-06
-1.65394e-05
8.98231e-06
-1.73578e-05
8.17463e-06
-1.64338e-05
5.52828e-06
-1.58518e-05
4.7305e-06
-1.53559e-05
3.04937e-06
-1.6291e-05
1.78187e-06
-1.756e-05
-1.98514e-06
-2.09383e-05
-4.48525e-06
-6.11686e-06
-2.59245e-05
-2.01843e-05
3.30352e-05
-1.64826e-05
-4.7195e-06
-1.21921e-05
-4.13512e-06
-1.02387e-05
-5.14868e-08
-1.34395e-05
8.49518e-06
-2.66459e-05
2.013e-05
-3.59217e-05
1.62054e-05
-3.5481e-05
6.13158e-06
-3.33986e-05
5.05289e-06
-3.03804e-05
3.19296e-06
-2.81124e-05
4.02445e-06
-3.01668e-05
1.02903e-05
-3.91936e-05
1.96805e-05
-3.94308e-05
9.70267e-06
-3.40188e-05
3.57038e-06
-2.6295e-05
4.50862e-07
-1.95858e-05
-1.18085e-06
-1.3471e-05
-1.38437e-06
-7.84061e-06
-2.58107e-06
-7.26131e-06
1.20252e-06
-1.38656e-05
4.61917e-06
-2.47959e-05
6.44515e-06
3.31625e-06
-3.4229e-05
-1.44662e-05
4.75015e-05
-1.66491e-05
-2.53659e-06
-1.91349e-05
-1.64931e-06
-2.1627e-05
2.44066e-06
-2.42761e-05
1.11444e-05
-2.65193e-05
2.23732e-05
-2.92136e-05
1.88997e-05
-3.21944e-05
9.11232e-06
-3.4095e-05
6.9535e-06
-3.49935e-05
4.0915e-06
-3.51244e-05
4.15535e-06
-3.65018e-05
1.16677e-05
-4.02569e-05
2.34356e-05
-4.03232e-05
9.76895e-06
-3.67446e-05
-8.19644e-09
-3.06255e-05
-5.66829e-06
-2.5724e-05
-6.08236e-06
-2.07868e-05
-6.32152e-06
-1.53423e-05
-8.02558e-06
-1.47402e-05
6.00505e-07
-2.35623e-05
1.34414e-05
-3.44277e-05
1.73106e-05
5.50554e-06
-3.6617e-05
-3.57116e-06
5.10726e-05
-8.82547e-06
2.71765e-06
-1.74373e-05
6.9626e-06
-2.34581e-05
8.46137e-06
-2.51874e-05
1.28738e-05
-2.18874e-05
1.90732e-05
-2.19231e-05
1.89355e-05
-2.71985e-05
1.43877e-05
-3.3206e-05
1.29609e-05
-3.64658e-05
7.3513e-06
-3.71154e-05
4.80497e-06
-3.67319e-05
1.12842e-05
-3.67176e-05
2.34212e-05
-3.89824e-05
1.20337e-05
-3.85766e-05
-4.14005e-07
-3.74305e-05
-6.8145e-06
-3.60125e-05
-7.50036e-06
-3.15375e-05
-1.07965e-05
-2.89295e-05
-1.06336e-05
-2.72421e-05
-1.08702e-06
-2.63636e-05
1.25629e-05
-2.64898e-05
1.74367e-05
1.08975e-06
-2.20738e-05
1.46739e-05
3.63987e-05
7.35018e-06
1.00415e-05
-7.38706e-06
2.16998e-05
-1.92049e-05
2.02791e-05
-2.1655e-05
1.53238e-05
-1.94797e-05
1.68979e-05
-1.87729e-05
1.82287e-05
-2.38207e-05
1.94355e-05
-2.88375e-05
1.79778e-05
-3.42365e-05
1.27503e-05
-3.79042e-05
8.47273e-06
-3.81201e-05
1.15001e-05
-3.28168e-05
1.8118e-05
-3.37882e-05
1.30052e-05
-4.00851e-05
5.88294e-06
-4.86232e-05
1.72358e-06
-4.90108e-05
-7.11277e-06
-4.45046e-05
-1.53025e-05
-4.09133e-05
-1.42248e-05
-3.5496e-05
-6.50431e-06
-2.47549e-05
1.82178e-06
-1.54605e-05
8.14223e-06
-3.77308e-08
-1.4333e-05
2.51259e-05
1.12728e-05
1.61158e-05
1.90517e-05
2.75265e-06
3.50629e-05
-8.40892e-06
3.14406e-05
-1.60646e-05
2.29795e-05
-1.89732e-05
1.98065e-05
-2.07503e-05
2.00057e-05
-2.22539e-05
2.09392e-05
-2.44577e-05
2.01815e-05
-2.82025e-05
1.64952e-05
-3.27857e-05
1.30559e-05
-3.51096e-05
1.38239e-05
-3.37429e-05
1.67513e-05
-3.5715e-05
1.49774e-05
-4.12724e-05
1.14404e-05
-4.58434e-05
6.29453e-06
-4.57448e-05
-7.21145e-06
-4.45059e-05
-1.65415e-05
-4.23219e-05
-1.64088e-05
-3.68339e-05
-1.19924e-05
-2.86122e-05
-6.39992e-06
-1.80194e-05
-2.4504e-06
-4.87446e-06
-1.31827e-05
1.37713e-05
-2.49846e-06
5.23692e-06
2.75861e-05
-1.4421e-06
4.17418e-05
-7.02444e-06
3.7023e-05
-1.2789e-05
2.8744e-05
-1.68996e-05
2.39171e-05
-1.92452e-05
2.23513e-05
-2.04537e-05
2.21478e-05
-2.14131e-05
2.11409e-05
-2.35726e-05
1.86545e-05
-2.67593e-05
1.62426e-05
-2.88787e-05
1.59433e-05
-2.90181e-05
1.68907e-05
-2.99473e-05
1.59065e-05
-3.15627e-05
1.30557e-05
-3.23555e-05
7.08728e-06
-3.59567e-05
-3.61026e-06
-4.03337e-05
-1.21643e-05
-4.0966e-05
-1.57764e-05
-3.75927e-05
-1.53657e-05
-3.16246e-05
-1.23681e-05
-2.40166e-05
-1.00584e-05
-1.36804e-05
-1.52105e-05
-6.47848e-06
3.98013e-06
-1.03461e-05
3.14537e-05
-9.52773e-06
4.09235e-05
-1.02254e-05
3.77207e-05
-1.2849e-05
3.13676e-05
-1.55809e-05
2.6649e-05
-1.74436e-05
2.4214e-05
-1.83052e-05
2.30094e-05
-1.88507e-05
2.16864e-05
-1.99868e-05
1.97906e-05
-2.17411e-05
1.79968e-05
-2.29965e-05
1.71987e-05
-2.30787e-05
1.69729e-05
-2.29256e-05
1.57535e-05
-2.27332e-05
1.28633e-05
-2.30868e-05
7.4409e-06
-2.58962e-05
-8.00898e-07
-2.97178e-05
-8.34261e-06
-3.23712e-05
-1.31231e-05
-3.26609e-05
-1.50761e-05
-2.99763e-05
-1.50526e-05
-2.49355e-05
-1.50993e-05
-1.75834e-05
-2.10324e-05
-1.35757e-05
1.75559e-05
-1.58265e-05
3.37045e-05
-1.37002e-05
3.87972e-05
-1.25161e-05
3.65366e-05
-1.31227e-05
3.19742e-05
-1.44341e-05
2.79604e-05
-1.54973e-05
2.52772e-05
-1.59943e-05
2.35065e-05
-1.62399e-05
2.1932e-05
-1.66904e-05
2.02412e-05
-1.73688e-05
1.86752e-05
-1.77335e-05
1.75635e-05
-1.73834e-05
1.66229e-05
-1.66315e-05
1.50015e-05
-1.58347e-05
1.20665e-05
-1.56872e-05
7.29341e-06
-1.72638e-05
7.75658e-07
-1.99198e-05
-5.68667e-06
-2.23485e-05
-1.06943e-05
-2.35135e-05
-1.3911e-05
-2.28929e-05
-1.56731e-05
-2.09746e-05
-1.70176e-05
-1.8948e-05
-1.961e-05
-1.23013e-05
2.98572e-05
-1.48968e-05
3.63e-05
-1.36908e-05
3.75913e-05
-1.25564e-05
3.54021e-05
-1.24109e-05
3.18286e-05
-1.28509e-05
2.84004e-05
-1.32894e-05
2.57157e-05
-1.34508e-05
2.3668e-05
-1.34214e-05
2.19026e-05
-1.33959e-05
2.02156e-05
-1.33704e-05
1.86497e-05
-1.30839e-05
1.7277e-05
-1.23366e-05
1.58757e-05
-1.12755e-05
1.39403e-05
-1.02287e-05
1.10198e-05
-9.74833e-06
6.81314e-06
-1.04469e-05
1.47429e-06
-1.20975e-05
-4.03598e-06
-1.39746e-05
-8.81725e-06
-1.53847e-05
-1.25009e-05
-1.59223e-05
-1.51355e-05
-1.57721e-05
-1.71678e-05
-1.90576e-05
-1.56626e-05
-9.21728e-06
3.90744e-05
-1.17502e-05
3.8833e-05
-1.15473e-05
3.73883e-05
-1.09159e-05
3.47706e-05
-1.06419e-05
3.15546e-05
-1.06791e-05
2.84376e-05
-1.07429e-05
2.57794e-05
-1.06513e-05
2.35764e-05
-1.04016e-05
2.1653e-05
-1.00594e-05
1.98733e-05
-9.60926e-06
1.81996e-05
-8.92787e-06
1.65957e-05
-7.93498e-06
1.48829e-05
-6.73905e-06
1.27443e-05
-5.60371e-06
9.88437e-06
-4.92637e-06
6.13576e-06
-5.07886e-06
1.62671e-06
-6.01109e-06
-3.10377e-06
-7.3459e-06
-7.48241e-06
-8.66406e-06
-1.11828e-05
-9.66944e-06
-1.41301e-05
-1.03569e-05
-1.64804e-05
-1.84386e-05
-1.09758e-05
-6.04869e-06
4.51232e-05
-8.20902e-06
4.09934e-05
-8.54056e-06
3.77199e-05
-8.32822e-06
3.45582e-05
-8.12723e-06
3.13536e-05
-8.01905e-06
2.83294e-05
-7.89257e-06
2.56529e-05
-7.64391e-06
2.33277e-05
-7.24822e-06
2.12573e-05
-6.71849e-06
1.93436e-05
-6.04027e-06
1.75213e-05
-5.16195e-06
1.57173e-05
-4.06809e-06
1.3789e-05
-2.85443e-06
1.15305e-05
-1.72444e-06
8.75428e-06
-9.57159e-07
5.36845e-06
-7.96987e-07
1.46649e-06
-1.26558e-06
-2.63528e-06
-2.18037e-06
-6.5677e-06
-3.29307e-06
-1.00701e-05
-4.3971e-06
-1.30261e-05
-5.41979e-06
-1.54576e-05
-1.74415e-05
-6.41689e-06
-3.22105e-06
4.83444e-05
-4.81016e-06
4.25826e-05
-5.29897e-06
3.82087e-05
-5.32071e-06
3.45799e-05
-5.21328e-06
3.12461e-05
-5.06978e-06
2.81859e-05
-4.85848e-06
2.54416e-05
-4.52733e-06
2.29966e-05
-4.05317e-06
2.0783e-05
-3.43322e-06
1.87236e-05
-2.65977e-06
1.67478e-05
-1.71931e-06
1.47769e-05
-6.29081e-07
1.26988e-05
5.25009e-07
1.03764e-05
1.5879e-06
7.69133e-06
2.36218e-06
4.59416e-06
2.67738e-06
1.15129e-06
2.48531e-06
-2.44323e-06
1.86581e-06
-5.94828e-06
9.61347e-07
-9.1657e-06
-8.8043e-08
-1.19767e-05
-1.20036e-06
-1.43453e-05
-1.62858e-05
-2.35598e-06
-7.55569e-07
4.91e-05
-1.74477e-06
4.35719e-05
-2.17641e-06
3.86404e-05
-2.26658e-06
3.46701e-05
-2.20196e-06
3.11815e-05
-2.04603e-06
2.80299e-05
-1.79491e-06
2.51906e-05
-1.42385e-06
2.26256e-05
-9.17292e-07
2.02765e-05
-2.71096e-07
1.80774e-05
5.14983e-07
1.59618e-05
1.43468e-06
1.38572e-05
2.45644e-06
1.16771e-05
3.50495e-06
9.32793e-06
4.46149e-06
6.7348e-06
5.1841e-06
3.87155e-06
5.54961e-06
7.85826e-07
5.5046e-06
-2.39814e-06
5.07596e-06
-5.51961e-06
4.34187e-06
-8.43158e-06
3.39426e-06
-1.1029e-05
2.30624e-06
-1.32572e-05
-1.50999e-05
1.12033e-06
1.2812e-06
4.78188e-05
8.17992e-07
4.40352e-05
5.91066e-07
3.88673e-05
5.66551e-07
3.46945e-05
6.66001e-07
3.1082e-05
8.58774e-07
2.78372e-05
1.14699e-06
2.49024e-05
1.54462e-06
2.2228e-05
2.06167e-06
1.97595e-05
2.7001e-06
1.7439e-05
3.45469e-06
1.52072e-05
4.30986e-06
1.30021e-05
5.23003e-06
1.0757e-05
6.15091e-06
8.4071e-06
6.98138e-06
5.90437e-06
7.61745e-06
3.23551e-06
7.96811e-06
4.35212e-07
7.98389e-06
-2.41383e-06
7.66644e-06
-5.20207e-06
7.05651e-06
-7.82156e-06
6.21333e-06
-1.01858e-05
5.19473e-06
-1.22385e-05
-1.39518e-05
4.0467e-06
2.41825e-06
4.54006e-05
2.71028e-06
4.37433e-05
2.84046e-06
3.87371e-05
2.99903e-06
3.4536e-05
3.21606e-06
3.08649e-05
3.49252e-06
2.75607e-05
3.84034e-06
2.45546e-05
4.273e-06
2.17954e-05
4.79897e-06
1.92336e-05
5.41906e-06
1.68189e-05
6.12561e-06
1.45006e-05
6.90018e-06
1.22275e-05
7.70869e-06
9.94854e-06
8.49788e-06
7.61793e-06
9.19777e-06
5.20447e-06
9.73142e-06
2.70185e-06
1.00309e-05
1.35729e-07
1.00541e-05
-2.43704e-06
9.79228e-06
-4.94023e-06
9.26543e-06
-7.29469e-06
8.51146e-06
-9.43183e-06
7.57422e-06
-1.13013e-05
-1.28729e-05
6.49525e-06
2.83649e-06
4.25642e-05
3.90725e-06
4.26726e-05
4.48922e-06
3.81552e-05
4.93382e-06
3.40913e-05
5.34269e-06
3.0456e-05
5.75405e-06
2.71493e-05
6.19453e-06
2.41142e-05
6.68283e-06
2.13072e-05
7.22949e-06
1.8687e-05
7.83637e-06
1.62121e-05
8.49632e-06
1.38407e-05
9.19205e-06
1.15318e-05
9.89403e-06
9.24655e-06
1.05596e-05
6.95235e-06
1.11355e-05
4.62852e-06
1.15648e-05
2.2725e-06
1.1797e-05
-9.64748e-08
1.17981e-05
-2.43826e-06
1.15567e-05
-4.69884e-06
1.1082e-05
-6.82003e-06
1.03987e-05
-8.74859e-06
9.53967e-06
-1.04423e-05
-1.18732e-05
8.53996e-06
2.86094e-06
3.97033e-05
4.53051e-06
4.10031e-05
5.57836e-06
3.71073e-05
6.35901e-06
3.33106e-05
7.00894e-06
2.9806e-05
7.59573e-06
2.65625e-05
8.15983e-06
2.35501e-05
8.72693e-06
2.07401e-05
9.3115e-06
1.81025e-05
9.91827e-06
1.56053e-05
1.05428e-05
1.32162e-05
1.11714e-05
1.09032e-05
1.17807e-05
8.63726e-06
1.23379e-05
6.39511e-06
1.28035e-05
4.16292e-06
1.31358e-05
1.94013e-06
1.32979e-05
-2.58617e-07
1.3264e-05
-2.40439e-06
1.30233e-05
-4.45822e-06
1.25804e-05
-6.37713e-06
1.1952e-05
-8.12024e-06
1.11631e-05
-9.65342e-06
-1.09526e-05
1.02425e-05
2.73558e-06
3.69678e-05
4.78122e-06
3.89575e-05
6.22532e-06
3.56633e-05
7.33123e-06
3.22047e-05
8.23643e-06
2.89008e-05
9.01851e-06
2.57805e-05
9.72581e-06
2.28429e-05
1.03892e-05
2.00768e-05
1.10272e-05
1.74645e-05
1.16482e-05
1.49844e-05
1.22515e-05
1.26128e-05
1.28285e-05
1.03262e-05
1.33623e-05
8.10338e-06
1.38296e-05
5.92783e-06
1.4202e-05
3.79051e-06
1.44502e-05
1.692e-06
1.45479e-05
-3.56338e-07
1.44767e-05
-2.33318e-06
1.42284e-05
-4.20993e-06
1.38059e-05
-5.95457e-06
1.32215e-05
-7.5358e-06
1.24946e-05
-8.92654e-06
-1.01069e-05
1.1649e-05
2.59171e-06
3.43761e-05
4.83255e-06
3.67167e-05
6.56277e-06
3.39331e-05
7.94407e-06
3.08235e-05
9.08592e-06
2.7759e-05
1.00597e-05
2.48068e-05
1.09135e-05
2.19891e-05
1.16799e-05
1.93104e-05
1.238e-05
1.67645e-05
1.30255e-05
1.4339e-05
1.36201e-05
1.20183e-05
1.41602e-05
9.78615e-06
1.46358e-05
7.62777e-06
1.50317e-05
5.53199e-06
1.5329e-05
3.49319e-06
1.55082e-05
1.51282e-06
1.55519e-05
-4.00012e-07
1.54479e-05
-2.22914e-06
1.51912e-05
-3.95313e-06
1.47845e-05
-5.54781e-06
1.42378e-05
-6.98908e-06
1.35669e-05
-8.25564e-06
-9.33139e-06
1.27914e-05
2.4726e-06
3.19035e-05
4.79296e-06
3.43964e-05
6.70706e-06
3.2019e-05
8.29659e-06
2.9234e-05
9.63459e-06
2.64211e-05
1.07765e-05
2.3665e-05
1.17638e-05
2.10019e-05
1.26272e-05
1.8447e-05
1.33887e-05
1.6003e-05
1.40625e-05
1.36652e-05
1.46561e-05
1.14247e-05
1.51708e-05
9.27142e-06
1.56029e-05
7.19575e-06
1.59441e-05
5.1908e-06
1.61836e-05
3.25375e-06
1.63096e-05
1.38686e-06
1.63117e-05
-4.02146e-07
1.61831e-05
-2.1005e-06
1.59217e-05
-3.69166e-06
1.55309e-05
-5.15698e-06
1.50195e-05
-6.47772e-06
1.44009e-05
-7.63702e-06
-8.62196e-06
1.36914e-05
2.3828e-06
2.95208e-05
4.72161e-06
3.20576e-05
6.74148e-06
2.99992e-05
8.47281e-06
2.75027e-05
9.95639e-06
2.49376e-05
1.12295e-05
2.23919e-05
1.23243e-05
1.99071e-05
1.32676e-05
1.75037e-05
1.40807e-05
1.51899e-05
1.47795e-05
1.29665e-05
1.53743e-05
1.08299e-05
1.5871e-05
8.77473e-06
1.62708e-05
6.79593e-06
1.65715e-05
4.89011e-06
1.67685e-05
3.0568e-06
1.68561e-05
1.2992e-06
1.68296e-05
-3.75619e-07
1.66861e-05
-1.95703e-06
1.64262e-05
-3.43176e-06
1.60542e-05
-4.785e-06
1.55784e-05
-6.00186e-06
1.50102e-05
-7.06887e-06
-7.97559e-06
1.43638e-05
2.31283e-06
2.72079e-05
4.6433e-06
2.97271e-05
6.71548e-06
2.7927e-05
8.53139e-06
2.56868e-05
1.01089e-05
2.33601e-05
1.14703e-05
2.10306e-05
1.2639e-05
1.87384e-05
1.36375e-05
1.65052e-05
1.44858e-05
1.43416e-05
1.52005e-05
1.22518e-05
1.57945e-05
1.02359e-05
1.62767e-05
8.29255e-06
1.66524e-05
6.42022e-06
1.69239e-05
4.61854e-06
1.70915e-05
2.88922e-06
1.71541e-05
1.23653e-06
1.71111e-05
-3.32558e-07
1.69626e-05
-1.80863e-06
1.67114e-05
-3.18051e-06
1.63624e-05
-4.43601e-06
1.59235e-05
-5.56301e-06
1.54052e-05
-6.55053e-06
-7.39005e-06
1.48196e-05
2.24695e-06
2.4961e-05
4.55907e-06
2.74151e-05
6.64884e-06
2.58373e-05
8.5035e-06
2.38323e-05
1.0128e-05
2.17357e-05
1.15349e-05
1.96237e-05
1.27418e-05
1.75316e-05
1.37679e-05
1.54791e-05
1.46319e-05
1.34775e-05
1.53509e-05
1.15327e-05
1.59391e-05
9.64765e-06
1.64078e-05
7.8239e-06
1.6765e-05
6.06298e-06
1.70163e-05
4.36716e-06
1.71654e-05
2.74016e-06
1.72144e-05
1.18746e-06
1.71655e-05
-2.8365e-07
1.70212e-05
-1.66433e-06
1.67854e-05
-2.94468e-06
1.64637e-05
-4.11431e-06
1.60637e-05
-5.16304e-06
1.5595e-05
-6.08177e-06
-6.86342e-06
1.50684e-05
2.16914e-06
2.27919e-05
4.45655e-06
2.51277e-05
6.54014e-06
2.37538e-05
8.39766e-06
2.19749e-05
1.00292e-05
2.01043e-05
1.14436e-05
1.82093e-05
1.26558e-05
1.63194e-05
1.36834e-05
1.44516e-05
1.45444e-05
1.26165e-05
1.52559e-05
1.08213e-05
1.58328e-05
9.07073e-06
1.62876e-05
7.36906e-06
1.66303e-05
5.72028e-06
1.68684e-05
4.12903e-06
1.70076e-05
2.60091e-06
1.70524e-05
1.14271e-06
1.70065e-05
-2.37722e-07
1.68738e-05
-1.53166e-06
1.66591e-05
-2.72997e-06
1.63683e-05
-3.82347e-06
1.60087e-05
-4.80342e-06
1.55891e-05
-5.66213e-06
-6.39366e-06
1.51194e-05
2.07236e-06
2.07196e-05
4.3232e-06
2.28769e-05
6.3794e-06
2.16977e-05
8.21016e-06
2.01442e-05
9.81598e-06
1.84986e-05
1.12067e-05
1.68187e-05
1.23972e-05
1.5129e-05
1.34047e-05
1.3444e-05
1.42471e-05
1.17742e-05
1.49411e-05
1.01273e-05
1.55018e-05
8.51001e-06
1.59422e-05
6.92863e-06
1.62731e-05
5.38938e-06
1.65031e-05
3.89901e-06
1.66392e-05
2.46491e-06
1.66867e-05
1.09519e-06
1.66505e-05
-2.01505e-07
1.65352e-05
-1.41632e-06
1.63458e-05
-2.54054e-06
1.60882e-05
-3.56587e-06
1.57695e-05
-4.4847e-06
1.53979e-05
-5.29047e-06
-5.97816e-06
1.49824e-05
1.96436e-06
1.87552e-05
4.15693e-06
2.06844e-05
6.16027e-06
1.96945e-05
7.93679e-06
1.83678e-05
9.49004e-06
1.69454e-05
1.08327e-05
1.54761e-05
1.19811e-05
1.39806e-05
1.29526e-05
1.24725e-05
1.37647e-05
1.09621e-05
1.44337e-05
9.45826e-06
1.49744e-05
7.96936e-06
1.53996e-05
6.5034e-06
1.57204e-05
5.06862e-06
1.59457e-05
3.67366e-06
1.6083e-05
2.32766e-06
1.61381e-05
1.04007e-06
1.61162e-05
-1.79537e-07
1.60219e-05
-1.32196e-06
1.58601e-05
-2.37875e-06
1.56366e-05
-3.34235e-06
1.53581e-05
-4.20616e-06
1.50323e-05
-4.96463e-06
-5.61356e-06
1.46677e-05
1.86051e-06
1.68947e-05
3.96524e-06
1.85797e-05
5.88472e-06
1.77751e-05
7.58011e-06
1.66725e-05
9.05839e-06
1.54672e-05
1.03348e-05
1.41997e-05
1.14264e-05
1.2889e-05
1.23506e-05
1.15482e-05
1.31242e-05
1.01885e-05
1.37626e-05
8.81986e-06
1.428e-05
7.452e-06
1.46888e-05
6.09459e-06
1.49998e-05
4.75759e-06
1.52221e-05
3.45138e-06
1.5363e-05
2.18677e-06
1.54284e-05
9.74696e-07
1.54231e-05
-1.74208e-07
1.53514e-05
-1.25022e-06
1.52178e-05
-2.24511e-06
1.50275e-05
-3.1521e-06
1.4787e-05
-3.96567e-06
1.45037e-05
-4.68131e-06
-5.29555e-06
1.41857e-05
1.76805e-06
1.51267e-05
3.75457e-06
1.65932e-05
5.55934e-06
1.59703e-05
7.14971e-06
1.50821e-05
8.53528e-06
1.40816e-05
9.73202e-06
1.3003e-05
1.07567e-05
1.18643e-05
1.16257e-05
1.06792e-05
1.23546e-05
9.45963e-06
1.29578e-05
8.21669e-06
1.34486e-05
6.96125e-06
1.38388e-05
5.70433e-06
1.4139e-05
4.45739e-06
1.4358e-05
3.23242e-06
1.45029e-05
2.04193e-06
1.45791e-05
8.98507e-07
1.45908e-05
-1.85883e-07
1.45414e-05
-1.20083e-06
1.44346e-05
-2.13831e-06
1.42751e-05
-2.99265e-06
1.40691e-05
-3.75966e-06
1.38237e-05
-4.436e-06
-5.01894e-06
1.35471e-05
1.6789e-06
1.34478e-05
3.52322e-06
1.47489e-05
5.1904e-06
1.43032e-05
6.65899e-06
1.36135e-05
7.93993e-06
1.28007e-05
9.0482e-06
1.18947e-05
9.99897e-06
1.09135e-05
1.08069e-05
9.87125e-06
1.1486e-05
8.78051e-06
1.20495e-05
7.65317e-06
1.25098e-05
6.50097e-06
1.28782e-05
5.33594e-06
1.31649e-05
4.17078e-06
1.33783e-05
3.019e-06
1.35254e-05
1.89487e-06
1.3611e-05
8.12923e-07
1.36382e-05
-2.13086e-07
1.36091e-05
-1.1717e-06
1.35261e-05
-2.05531e-06
1.33933e-05
-2.85987e-06
1.32166e-05
-3.58308e-06
1.30036e-05
-4.22301e-06
-4.77765e-06
1.27623e-05
1.57837e-06
1.18695e-05
3.2659e-06
1.30614e-05
4.78453e-06
1.27845e-05
6.12371e-06
1.22743e-05
7.29435e-06
1.163e-05
8.30937e-06
1.08796e-05
9.18172e-06
1.00411e-05
9.92411e-06
9.12884e-06
1.05489e-05
8.1557e-06
1.10681e-05
7.13397e-06
1.14933e-05
6.07587e-06
1.18351e-05
4.99411e-06
1.21036e-05
3.90232e-06
1.23072e-05
2.81536e-06
1.24528e-05
1.74938e-06
1.25444e-05
7.21281e-07
1.2584e-05
-2.52606e-07
1.25714e-05
-1.15911e-06
1.25073e-05
-1.99128e-06
1.23953e-05
-2.74788e-06
1.22416e-05
-3.42938e-06
1.20541e-05
-4.03553e-06
-4.56491e-06
1.18413e-05
1.4585e-06
1.0411e-05
2.98372e-06
1.15361e-05
4.35333e-06
1.14148e-05
5.56329e-06
1.10643e-05
6.62306e-06
1.05702e-05
7.54321e-06
9.95942e-06
8.33454e-06
9.24974e-06
9.00791e-06
8.45545e-06
9.57418e-06
7.58944e-06
1.00442e-05
6.66402e-06
1.04285e-05
5.69155e-06
1.07377e-05
4.68498e-06
1.09815e-05
3.6585e-06
1.11689e-05
2.628e-06
1.13068e-05
1.61153e-06
1.13991e-05
6.28973e-07
1.14461e-05
-2.99514e-07
1.14446e-05
-1.1576e-06
1.13928e-05
-1.93948e-06
1.12938e-05
-2.64892e-06
1.11549e-05
-3.29048e-06
1.09851e-05
-3.86578e-06
-4.37353e-06
1.07937e-05
1.32405e-06
9.08691e-06
2.6898e-06
1.01703e-05
3.91688e-06
1.01877e-05
5.00248e-06
9.9786e-06
5.95378e-06
9.61878e-06
6.77934e-06
9.13381e-06
7.48825e-06
8.54079e-06
8.08987e-06
7.85382e-06
8.59367e-06
7.08563e-06
9.00932e-06
6.2484e-06
9.34661e-06
5.35429e-06
9.61558e-06
4.41605e-06
9.82628e-06
3.44784e-06
9.98829e-06
2.46604e-06
1.01096e-05
1.49027e-06
1.01947e-05
5.43928e-07
1.02422e-05
-3.46955e-07
1.02444e-05
-1.15987e-06
1.01959e-05
-1.89088e-06
1.01e-05
-2.55303e-06
9.96633e-06
-3.15684e-06
9.80595e-06
-3.70541e-06
-4.19648e-06
9.62889e-06
1.1909e-06
7.89596e-06
2.40852e-06
8.95251e-06
3.50342e-06
9.09265e-06
4.47121e-06
9.0107e-06
5.3173e-06
8.77261e-06
6.0492e-06
8.40185e-06
6.675e-06
7.91495e-06
7.20284e-06
7.32596e-06
7.64087e-06
6.64761e-06
7.99737e-06
5.89193e-06
8.28101e-06
5.07068e-06
8.50116e-06
4.19594e-06
8.668e-06
3.28105e-06
8.79226e-06
2.34182e-06
8.88414e-06
1.39845e-06
8.95037e-06
4.77744e-07
8.98901e-06
-3.85553e-07
8.98541e-06
-1.15624e-06
8.92788e-06
-1.83333e-06
8.82261e-06
-2.44773e-06
8.68357e-06
-3.01779e-06
8.52447e-06
-3.54629e-06
-4.02787e-06
8.35587e-06
1.08225e-06
6.81362e-06
2.17176e-06
7.86283e-06
3.1464e-06
8.11787e-06
4.00232e-06
8.15467e-06
4.74581e-06
8.02904e-06
5.385e-06
7.7626e-06
5.92766e-06
7.37225e-06
6.38084e-06
6.87277e-06
6.75104e-06
6.27741e-06
7.04471e-06
5.59829e-06
7.26871e-06
4.84671e-06
7.43103e-06
4.03366e-06
7.5414e-06
3.17073e-06
7.61173e-06
2.27154e-06
7.65564e-06
1.35459e-06
7.68531e-06