/*--------------------------------*- C++ -*----------------------------------*\
  =========                 |
  \\      /  F ield         | OpenFOAM: The Open Source CFD Toolbox
   \\    /   O peration     | Website:  https://openfoam.org
    \\  /    A nd           | Version:  9
     \\/     M anipulation  |
\*---------------------------------------------------------------------------*/
FoamFile
{
    format      ascii;
    class       volScalarField;
    location    "3.66";
    object      p;
}
// * * * * * * * * * * * * * * * * * * * * * * * * * * * * * * * * * * * * * //

dimensions      [1 -1 -2 0 0 0 0];

internalField   nonuniform List<scalar> 
2268
(
703.328
703.89
704.813
706.08
707.637
709.464
711.54
713.847
716.361
719.053
721.894
724.846
727.865
730.895
733.865
736.683
739.259
741.491
743.201
745.673
747.904
749.688
750.552
644.349
644.879
645.747
646.986
648.537
650.37
652.465
654.798
657.345
660.078
662.963
665.96
669.021
672.09
675.098
677.954
680.599
683.067
685.674
687.769
689.489
691.077
691.982
585.286
585.811
586.641
587.847
589.382
591.219
593.331
595.693
598.28
601.062
604.001
607.057
610.179
613.311
616.39
619.342
622.167
625.198
628.237
630.216
631.343
632.476
633.441
526.122
526.669
527.489
528.672
530.195
532.035
534.164
536.557
539.186
542.018
545.017
548.138
551.332
554.547
557.724
560.809
563.839
567.294
570.571
572.534
573.465
574.032
575.03
466.871
467.445
468.276
469.452
470.971
472.818
474.969
477.395
480.067
482.952
486.012
489.203
492.478
495.785
499.074
502.302
505.494
509.039
512.596
514.692
515.396
515.751
516.81
407.534
408.137
408.991
410.172
411.696
413.557
415.734
418.198
420.918
423.859
426.983
430.25
433.612
437.021
440.428
443.793
447.11
450.603
454.147
456.398
457.125
457.578
458.781
348.115
348.749
349.628
350.822
352.357
354.239
356.449
358.959
361.733
364.735
367.929
371.276
374.731
378.249
381.78
385.278
388.707
392.164
395.505
397.821
398.878
399.549
400.924
288.618
289.278
290.178
291.385
292.936
294.843
297.096
299.662
302.499
305.569
308.839
312.277
315.833
319.471
323.136
326.772
330.313
333.771
337.016
339.446
340.89
341.872
343.381
754.662
753.898
752.668
750.912
748.783
746.46
744.043
741.593
739.116
736.282
733.149
729.704
727.46
726.585
726.673
724.009
719.447
716.851
717.065
696.578
695.405
694.106
692.368
690.257
688.007
685.648
683.132
680.493
677.696
674.7
672.45
670.798
669.233
667.571
664.967
661.627
660.016
660.2
638.341
636.935
635.496
633.707
631.605
629.383
627.046
624.525
621.914
619.243
616.83
615.515
613.771
611.527
608.389
605.762
603.609
602.456
602.637
579.926
578.541
576.971
575.12
572.989
570.743
568.384
565.972
563.427
560.883
559.194
558.32
556.328
553.19
549.722
547.179
546.256
544.037
544.653
521.593
520.243
518.521
516.575
514.377
512.077
509.672
507.336
504.885
502.422
501.044
500.517
498.351
494.461
491.276
488.89
488.486
486.347
486.575
463.385
462.013
460.106
458.06
455.762
453.386
450.885
448.515
446.154
443.767
442.374
441.723
439.521
435.709
432.879
430.829
430.134
429.189
428.448
405.267
403.793
401.701
399.572
397.152
394.682
392.01
389.532
387.235
384.949
383.437
382.389
380.187
376.929
374.453
372.75
371.9
371.773
370.236
347.322
345.379
343.304
341.132
338.525
335.951
333.079
330.403
328.252
326.316
324.796
323.251
320.996
318.14
315.984
314.645
313.947
313.893
312.603
195.459
196.13
197.04
198.269
199.852
201.813
204.15
206.826
209.783
212.974
216.377
219.974
223.705
227.552
231.457
235.337
239.071
242.588
245.823
248.535
250.665
252.432
254.314
75.165
75.8058
76.602
77.7111
79.0479
80.6599
82.6217
84.8937
87.4393
90.2607
93.3667
96.7031
100.2
103.794
107.495
111.278
115.073
118.763
122.18
125.327
128.326
131.158
133.617
9.62902
9.91097
10.1956
10.595
11.1566
11.7979
12.5441
13.422
14.4941
15.7233
17.1035
18.5949
20.1522
21.7373
23.3497
24.9847
26.8367
28.866
30.8386
32.69
34.3372
35.9537
37.5957
-0.031876
0.0088085
-0.0123078
-0.0957634
0.0421523
0.13685
0.192231
0.251841
0.445959
0.588028
0.666539
0.720163
0.755091
0.775657
0.741739
0.549974
0.487779
0.508763
0.664549
0.873568
0.714146
0.376467
0.459768
-0.343581
-0.336917
-0.323593
-0.351585
-0.328743
-0.260535
-0.203366
-0.169316
-0.112113
-0.0446927
0.0078482
0.0497799
0.0780588
0.0929694
0.0669038
0.0186714
-0.0247418
-0.0706978
-0.151554
-0.239921
-0.412323
-0.578433
-0.596716
-0.7447
-0.748074
-0.729364
-0.721312
-0.763363
-0.782239
-0.764598
-0.769537
-0.83511
-0.866169
-0.85876
-0.842101
-0.825544
-0.803847
-0.774213
-0.727019
-0.710736
-0.731446
-0.795274
-0.876649
-0.902725
-0.891581
-0.860686
-1.13262
-1.14006
-1.13101
-1.09344
-1.11332
-1.15505
-1.19098
-1.21101
-1.23217
-1.2474
-1.2607
-1.27157
-1.27795
-1.28181
-1.28224
-1.2719
-1.25696
-1.22915
-1.18109
-1.16078
-1.16113
-1.12447
-1.09618
-1.37437
-1.37433
-1.3747
-1.37028
-1.36754
-1.36262
-1.37304
-1.38213
-1.38298
-1.38582
-1.39153
-1.3972
-1.40149
-1.40476
-1.40692
-1.40737
-1.40243
-1.39018
-1.37058
-1.34806
-1.33783
-1.32776
-1.33195
-1.50575
-1.50653
-1.50804
-1.51455
-1.51743
-1.5176
-1.51426
-1.514
-1.51404
-1.51576
-1.51947
-1.52371
-1.52754
-1.5308
-1.53339
-1.53537
-1.53645
-1.53679
-1.53679
-1.52749
-1.51887
-1.51756
-1.53855
-1.63458
-1.6352
-1.63697
-1.64031
-1.64277
-1.64348
-1.64304
-1.6431
-1.64339
-1.64482
-1.64754
-1.65084
-1.65415
-1.65709
-1.65965
-1.66224
-1.66506
-1.66941
-1.67732
-1.68099
-1.68027
-1.67612
-1.68285
-1.76252
-1.7633
-1.76497
-1.76742
-1.76937
-1.77039
-1.77072
-1.77116
-1.77184
-1.77322
-1.77536
-1.77788
-1.78048
-1.78306
-1.78557
-1.78822
-1.79123
-1.79527
-1.80097
-1.80601
-1.80751
-1.80537
-1.80409
-1.88988
-1.89092
-1.8925
-1.89441
-1.89604
-1.89716
-1.89787
-1.8986
-1.89954
-1.90085
-1.90257
-1.90455
-1.90672
-1.90897
-1.91127
-1.91371
-1.91644
-1.91972
-1.92362
-1.92668
-1.9278
-1.92717
-1.92673
-2.01679
-2.01808
-2.01963
-2.02125
-2.02266
-2.02379
-2.02468
-2.02556
-2.02657
-2.02779
-2.02925
-2.03093
-2.03279
-2.03475
-2.03679
-2.03896
-2.04131
-2.04392
-2.04673
-2.04902
-2.05011
-2.05012
-2.04987
-2.1434
-2.1449
-2.14646
-2.14792
-2.1492
-2.15029
-2.15124
-2.15217
-2.15317
-2.15431
-2.15561
-2.15708
-2.15868
-2.16039
-2.16218
-2.16407
-2.16606
-2.16817
-2.17031
-2.17218
-2.17323
-2.17352
-2.17344
-2.26982
-2.27148
-2.27307
-2.27444
-2.27562
-2.27666
-2.27761
-2.27854
-2.27951
-2.28057
-2.28175
-2.28304
-2.28444
-2.28592
-2.28748
-2.2891
-2.29078
-2.29248
-2.29415
-2.2956
-2.29662
-2.29706
-2.29708
-2.39617
-2.39792
-2.39951
-2.40082
-2.40193
-2.40292
-2.40384
-2.40474
-2.40566
-2.40664
-2.40771
-2.40885
-2.41007
-2.41137
-2.41271
-2.4141
-2.4155
-2.41689
-2.41821
-2.41935
-2.42018
-2.42064
-2.42073
-2.5225
-2.52427
-2.52583
-2.52709
-2.52814
-2.52907
-2.52994
-2.5308
-2.53166
-2.53257
-2.53353
-2.53455
-2.53562
-2.53675
-2.53791
-2.53909
-2.54027
-2.54141
-2.54247
-2.54338
-2.54407
-2.54448
-2.54463
-2.64884
-2.65057
-2.65208
-2.65328
-2.65425
-2.65513
-2.65594
-2.65674
-2.65754
-2.65837
-2.65924
-2.66015
-2.6611
-2.66208
-2.66308
-2.66409
-2.66508
-2.66603
-2.6669
-2.66764
-2.66822
-2.66859
-2.66877
-2.7752
-2.77684
-2.77827
-2.77938
-2.78029
-2.78109
-2.78185
-2.78259
-2.78332
-2.78408
-2.78486
-2.78567
-2.7865
-2.78736
-2.78823
-2.78909
-2.78993
-2.79073
-2.79145
-2.79207
-2.79256
-2.79289
-2.79307
-2.90156
-2.90309
-2.9044
-2.90541
-2.90624
-2.90698
-2.90767
-2.90834
-2.90901
-2.9097
-2.9104
-2.91112
-2.91185
-2.9126
-2.91335
-2.9141
-2.91481
-2.91549
-2.9161
-2.91662
-2.91703
-2.91733
-2.91751
-3.02792
-3.02929
-3.03046
-3.03137
-3.03212
-3.03278
-3.03341
-3.03402
-3.03462
-3.03524
-3.03586
-3.0365
-3.03715
-3.03781
-3.03846
-3.0391
-3.03972
-3.04029
-3.04081
-3.04126
-3.04162
-3.04188
-3.04205
-3.15426
-3.15545
-3.15645
-3.15725
-3.15791
-3.1585
-3.15907
-3.15961
-3.16016
-3.16071
-3.16127
-3.16183
-3.16241
-3.16298
-3.16355
-3.16411
-3.16464
-3.16513
-3.16558
-3.16596
-3.16628
-3.16652
-3.16668
-3.28054
-3.28154
-3.28237
-3.28305
-3.28362
-3.28414
-3.28464
-3.28513
-3.28562
-3.28611
-3.28661
-3.28711
-3.28762
-3.28812
-3.28862
-3.28911
-3.28957
-3.29
-3.29038
-3.29072
-3.291
-3.29122
-3.29137
-3.40675
-3.40755
-3.4082
-3.40876
-3.40925
-3.4097
-3.41014
-3.41058
-3.41102
-3.41145
-3.4119
-3.41235
-3.41279
-3.41324
-3.41368
-3.4141
-3.41451
-3.41489
-3.41523
-3.41552
-3.41578
-3.41598
-3.41612
-3.53287
-3.53346
-3.53393
-3.53437
-3.53479
-3.53518
-3.53557
-3.53596
-3.53635
-3.53674
-3.53714
-3.53754
-3.53794
-3.53834
-3.53872
-3.5391
-3.53946
-3.53979
-3.5401
-3.54037
-3.54059
-3.54078
-3.54092
-3.65888
-3.65928
-3.65958
-3.6599
-3.66025
-3.6606
-3.66094
-3.66128
-3.66163
-3.66198
-3.66234
-3.6627
-3.66306
-3.66341
-3.66376
-3.6641
-3.66442
-3.66472
-3.66499
-3.66524
-3.66545
-3.66563
-3.66577
-3.78474
-3.78499
-3.78515
-3.78538
-3.78566
-3.78595
-3.78625
-3.78655
-3.78687
-3.78719
-3.78751
-3.78783
-3.78816
-3.78848
-3.78879
-3.7891
-3.78939
-3.78966
-3.78991
-3.79014
-3.79034
-3.79051
-3.79064
-3.91048
-3.91057
-3.91063
-3.9108
-3.91101
-3.91125
-3.91151
-3.91178
-3.91206
-3.91236
-3.91265
-3.91295
-3.91325
-3.91354
-3.91382
-3.9141
-3.91437
-3.91462
-3.91485
-3.91506
-3.91525
-3.91541
-3.91555
-4.03612
-4.03606
-4.03605
-4.03616
-4.03632
-4.03651
-4.03673
-4.03698
-4.03724
-4.03751
-4.03778
-4.03805
-4.03832
-4.03859
-4.03886
-4.03911
-4.03936
-4.03959
-4.03981
-4.04001
-4.04019
-4.04035
-4.04049
-4.16169
-4.16149
-4.16141
-4.16146
-4.16158
-4.16174
-4.16194
-4.16216
-4.1624
-4.16264
-4.1629
-4.16315
-4.1634
-4.16365
-4.1639
-4.16413
-4.16436
-4.16458
-4.16478
-4.16498
-4.16515
-4.16531
-4.16545
-4.28719
-4.28689
-4.28673
-4.28673
-4.28682
-4.28696
-4.28713
-4.28734
-4.28755
-4.28778
-4.28802
-4.28825
-4.28849
-4.28872
-4.28894
-4.28916
-4.28938
-4.28958
-4.28978
-4.28996
-4.29013
-4.29029
-4.29043
-4.41265
-4.41227
-4.41206
-4.41201
-4.41207
-4.41218
-4.41234
-4.41252
-4.41272
-4.41293
-4.41315
-4.41337
-4.41358
-4.4138
-4.41401
-4.41421
-4.41441
-4.4146
-4.41479
-4.41497
-4.41513
-4.41529
-4.41543
-4.53807
-4.53765
-4.53739
-4.5373
-4.53733
-4.53742
-4.53756
-4.53772
-4.53791
-4.5381
-4.5383
-4.5385
-4.5387
-4.53889
-4.53908
-4.53927
-4.53945
-4.53963
-4.53981
-4.53999
-4.54015
-4.5403
-4.54044
-4.66347
-4.66301
-4.66272
-4.66261
-4.66262
-4.66269
-4.6628
-4.66295
-4.66311
-4.66329
-4.66347
-4.66365
-4.66383
-4.664
-4.66417
-4.66434
-4.66451
-4.66468
-4.66485
-4.66502
-4.66518
-4.66534
-4.66548
-4.78884
-4.78836
-4.78805
-4.78793
-4.78792
-4.78798
-4.78808
-4.7882
-4.78835
-4.78851
-4.78867
-4.78883
-4.78898
-4.78913
-4.78928
-4.78943
-4.78958
-4.78973
-4.7899
-4.79007
-4.79023
-4.79039
-4.79053
-4.91419
-4.91368
-4.91338
-4.91326
-4.91325
-4.9133
-4.91339
-4.9135
-4.91362
-4.91376
-4.9139
-4.91403
-4.91416
-4.91428
-4.9144
-4.91452
-4.91465
-4.91479
-4.91495
-4.91513
-4.9153
-4.91546
-4.9156
-5.03953
-5.03897
-5.03869
-5.0386
-5.03861
-5.03866
-5.03873
-5.03883
-5.03893
-5.03905
-5.03916
-5.03926
-5.03935
-5.03944
-5.03953
-5.03962
-5.03972
-5.03985
-5.04001
-5.04019
-5.04038
-5.04054
-5.04069
-5.16486
-5.16425
-5.16399
-5.16396
-5.16401
-5.16406
-5.16413
-5.1642
-5.16429
-5.16437
-5.16445
-5.16452
-5.16457
-5.16462
-5.16467
-5.16472
-5.16479
-5.16489
-5.16506
-5.16527
-5.16547
-5.16565
-5.16579
-5.2902
-5.28953
-5.28929
-5.28935
-5.28946
-5.28953
-5.28959
-5.28964
-5.28969
-5.28974
-5.28978
-5.28981
-5.28983
-5.28983
-5.28983
-5.28983
-5.28985
-5.28991
-5.29009
-5.29036
-5.29059
-5.29078
-5.29092
-5.41554
-5.41481
-5.41468
-5.41487
-5.41502
-5.41509
-5.41512
-5.41513
-5.41514
-5.41515
-5.41514
-5.41512
-5.41508
-5.41504
-5.41499
-5.41494
-5.41489
-5.41485
-5.41507
-5.41548
-5.41577
-5.41595
-5.41608
-5.5409
-5.54035
-5.54054
-5.54074
-5.54084
-5.54083
-5.54076
-5.54069
-5.54061
-5.54053
-5.54044
-5.54034
-5.54024
-5.54012
-5.53999
-5.53987
-5.53971
-5.53939
-5.53971
-5.54057
-5.541
-5.54118
-5.54128
-5.66566
-5.66791
-5.66758
-5.66717
-5.6669
-5.66667
-5.66646
-5.66628
-5.6661
-5.66594
-5.66578
-5.66562
-5.66545
-5.66526
-5.66503
-5.66472
-5.66416
-5.66335
-5.66375
-5.66558
-5.66619
-5.66638
-5.66646
256.194
256.789
256.834
256.507
134.858
135.085
134.953
134.637
38.4386
38.6514
38.6086
38.3826
0.773864
1.02524
1.1546
1.10564
-0.524407
-0.466766
-0.415709
-0.439728
-0.843723
-0.834976
-0.83718
-0.838387
-1.11543
-1.13849
-1.15822
-1.15832
-1.35535
-1.3792
-1.37662
-1.37544
-1.55141
-1.54986
-1.54401
-1.54345
-1.68151
-1.67921
-1.67677
-1.67597
-1.80344
-1.80262
-1.80154
-1.80104
-1.92621
-1.92575
-1.92527
-1.92495
-2.0495
-2.04921
-2.04893
-2.04868
-2.1732
-2.17296
-2.17272
-2.17248
-2.29688
-2.29672
-2.29655
-2.29636
-2.42065
-2.42057
-2.42047
-2.42035
-2.54464
-2.5446
-2.54455
-2.54446
-2.66881
-2.66881
-2.66878
-2.66872
-2.79314
-2.79315
-2.79314
-2.7931
-2.91758
-2.91761
-2.91761
-2.91758
-3.04213
-3.04216
-3.04217
-3.04215
-3.16675
-3.16679
-3.1668
-3.1668
-3.29145
-3.29148
-3.2915
-3.29151
-3.4162
-3.41624
-3.41626
-3.41628
-3.541
-3.54104
-3.54107
-3.54109
-3.66584
-3.66589
-3.66592
-3.66595
-3.79072
-3.79077
-3.79081
-3.79084
-3.91564
-3.91568
-3.91572
-3.91576
-4.04057
-4.04062
-4.04067
-4.04071
-4.16553
-4.16558
-4.16563
-4.16567
-4.29052
-4.29057
-4.29062
-4.29066
-4.41552
-4.41557
-4.41562
-4.41567
-4.54054
-4.54059
-4.54064
-4.54069
-4.66557
-4.66563
-4.66568
-4.66572
-4.79062
-4.79068
-4.79073
-4.79078
-4.91569
-4.91575
-4.9158
-4.91584
-5.04078
-5.04083
-5.04088
-5.04092
-5.16588
-5.16593
-5.16598
-5.16602
-5.29101
-5.29105
-5.2911
-5.29113
-5.41616
-5.41619
-5.41623
-5.41626
-5.54133
-5.54136
-5.54138
-5.5414
-5.66649
-5.66651
-5.66652
-5.66652
255.931
254.022
252.095
250.095
248.077
245.91
243.417
240.666
237.859
235.305
233.017
230.901
228.579
226.149
224.403
223.685
223.429
223.476
223.875
133.941
132.617
131.279
129.922
128.591
126.978
125.236
122.9
119.558
115.78
112.239
109.311
106.769
104.586
102.969
102.095
102.075
102.92
103.487
37.8401
37.7424
37.6081
37.1476
36.3008
35.2334
34.1865
32.9727
31.2675
28.9527
26.8288
25.0701
23.6374
22.4936
21.5553
20.7412
20.5287
20.981
21.5936
0.976289
0.923615
1.01173
0.986685
0.844512
0.637603
0.278709
-0.0693315
-0.280185
-0.293309
-0.29844
-0.320312
-0.351298
-0.394303
-0.381092
-0.356405
-0.380348
-0.463274
-0.509536
-0.492055
-0.559732
-0.58638
-0.58172
-0.535662
-0.48958
-0.497872
-0.509672
-0.519502
-0.53362
-0.551077
-0.573786
-0.602559
-0.640152
-0.658675
-0.66984
-0.678407
-0.687894
-0.694115
-0.836559
-0.821433
-0.823294
-0.82058
-0.824334
-0.832225
-0.835667
-0.852077
-0.862591
-0.871958
-0.879845
-0.888266
-0.897229
-0.910317
-0.913802
-0.917363
-0.929165
-0.942498
-0.94923
-1.13075
-1.10684
-1.10449
-1.10754
-1.13362
-1.17402
-1.18858
-1.19696
-1.20247
-1.20533
-1.20647
-1.20687
-1.20337
-1.1938
-1.19835
-1.1997
-1.19768
-1.1891
-1.18018
-1.3835
-1.38399
-1.38475
-1.38622
-1.39469
-1.40444
-1.40694
-1.40392
-1.39988
-1.39422
-1.38868
-1.38253
-1.37946
-1.37589
-1.37429
-1.37353
-1.37265
-1.37013
-1.36894
-1.55349
-1.55775
-1.55814
-1.5576
-1.55151
-1.54013
-1.53463
-1.53031
-1.52574
-1.52034
-1.51467
-1.50929
-1.50645
-1.50401
-1.50338
-1.50306
-1.50304
-1.50761
-1.50446
-1.67765
-1.67876
-1.67851
-1.67688
-1.67249
-1.6654
-1.66015
-1.65597
-1.65182
-1.64668
-1.64179
-1.63874
-1.63706
-1.63539
-1.63265
-1.63089
-1.63055
-1.63273
-1.63221
-1.8011
-1.80119
-1.8005
-1.79878
-1.79504
-1.78993
-1.78575
-1.78219
-1.77879
-1.77465
-1.77178
-1.77085
-1.76951
-1.7661
-1.7614
-1.75898
-1.75836
-1.75909
-1.75941
-1.9246
-1.92424
-1.92337
-1.92175
-1.91889
-1.91539
-1.9125
-1.90969
-1.90717
-1.90506
-1.90381
-1.90249
-1.89929
-1.89439
-1.891
-1.88929
-1.8887
-1.88863
-1.88902
-2.04824
-2.04772
-2.04688
-2.04561
-2.04384
-2.0417
-2.03954
-2.03744
-2.03551
-2.03481
-2.0338
-2.03121
-2.02748
-2.02414
-2.02218
-2.02155
-2.02129
-2.02109
-2.02083
-2.17205
-2.17151
-2.17078
-2.16985
-2.16886
-2.16759
-2.16589
-2.16391
-2.16223
-2.16155
-2.16028
-2.15788
-2.15565
-2.15436
-2.15331
-2.1525
-2.15164
-2.1516
-2.15156
-2.296
-2.2955
-2.29487
-2.29412
-2.29336
-2.29243
-2.29101
-2.28927
-2.28784
-2.28687
-2.28571
-2.28417
-2.28296
-2.28273
-2.28209
-2.28065
-2.27953
-2.27962
-2.27981
-2.42006
-2.41963
-2.41909
-2.41844
-2.4177
-2.41681
-2.41567
-2.41438
-2.41321
-2.41228
-2.4113
-2.41022
-2.40942
-2.40911
-2.40847
-2.40741
-2.40672
-2.40678
-2.40652
-2.54425
-2.54388
-2.54342
-2.54285
-2.54219
-2.54141
-2.54048
-2.53946
-2.53852
-2.53769
-2.53689
-2.53609
-2.53547
-2.53507
-2.53455
-2.53389
-2.53338
-2.5333
-2.53276
-2.66855
-2.66825
-2.66785
-2.66737
-2.6668
-2.66614
-2.66537
-2.66456
-2.66379
-2.66309
-2.66244
-2.66183
-2.66134
-2.66098
-2.66058
-2.66012
-2.65969
-2.65951
-2.65879
-2.79297
-2.79272
-2.79239
-2.79198
-2.7915
-2.79095
-2.79033
-2.78968
-2.78905
-2.78848
-2.78795
-2.78749
-2.78711
-2.78681
-2.78652
-2.78621
-2.78586
-2.78574
-2.78503
-2.91749
-2.91729
-2.91701
-2.91667
-2.91627
-2.91582
-2.91532
-2.9148
-2.91429
-2.91383
-2.91342
-2.91306
-2.91278
-2.91255
-2.91236
-2.91216
-2.91196
-2.91181
-2.91124
-3.04209
-3.04193
-3.04171
-3.04143
-3.0411
-3.04073
-3.04033
-3.03992
-3.03952
-3.03916
-3.03884
-3.03857
-3.03836
-3.0382
-3.03808
-3.03798
-3.03787
-3.0377
-3.03716
-3.16676
-3.16664
-3.16647
-3.16625
-3.16598
-3.16568
-3.16537
-3.16504
-3.16474
-3.16445
-3.16421
-3.16401
-3.16386
-3.16375
-3.16369
-3.16366
-3.16363
-3.16347
-3.16291
-3.29149
-3.29141
-3.29128
-3.29111
-3.2909
-3.29067
-3.29042
-3.29017
-3.28994
-3.28972
-3.28953
-3.28939
-3.28928
-3.28921
-3.28918
-3.28919
-3.28923
-3.28909
-3.28865
-3.41628
-3.41623
-3.41614
-3.41601
-3.41586
-3.41568
-3.41549
-3.4153
-3.41512
-3.41496
-3.41482
-3.41471
-3.41462
-3.41457
-3.41454
-3.41455
-3.41458
-3.41441
-3.4141
-3.54111
-3.54109
-3.54104
-3.54095
-3.54084
-3.54071
-3.54057
-3.54043
-3.54029
-3.54017
-3.54006
-3.53997
-3.5399
-3.53984
-3.53978
-3.53972
-3.53964
-3.53932
-3.53881
-3.66598
-3.66599
-3.66596
-3.66591
-3.66583
-3.66575
-3.66565
-3.66555
-3.66545
-3.66536
-3.66528
-3.6652
-3.66513
-3.66504
-3.66493
-3.66476
-3.66448
-3.66398
-3.66327
-3.79088
-3.79091
-3.79091
-3.79089
-3.79085
-3.79079
-3.79073
-3.79066
-3.7906
-3.79053
-3.79047
-3.7904
-3.79032
-3.79021
-3.79003
-3.78975
-3.78928
-3.78862
-3.78781
-3.91581
-3.91586
-3.91588
-3.91588
-3.91587
-3.91584
-3.91581
-3.91577
-3.91573
-3.91569
-3.91564
-3.91558
-3.9155
-3.91537
-3.91515
-3.91478
-3.91417
-3.91339
-3.91236
-4.04076
-4.04083
-4.04087
-4.04089
-4.0409
-4.0409
-4.04089
-4.04087
-4.04086
-4.04083
-4.04081
-4.04076
-4.04068
-4.04055
-4.04032
-4.03993
-4.03929
-4.03852
-4.03746
-4.16574
-4.16581
-4.16587
-4.16591
-4.16594
-4.16595
-4.16596
-4.16597
-4.16597
-4.16597
-4.16596
-4.16593
-4.16588
-4.16576
-4.16556
-4.16521
-4.16465
-4.16399
-4.16317
-4.29073
-4.29082
-4.29088
-4.29094
-4.29098
-4.29101
-4.29104
-4.29106
-4.29108
-4.2911
-4.29111
-4.29111
-4.29107
-4.29099
-4.29084
-4.29056
-4.29012
-4.28955
-4.28882
-4.41574
-4.41583
-4.41591
-4.41597
-4.41602
-4.41607
-4.41611
-4.41615
-4.41618
-4.41622
-4.41625
-4.41627
-4.41627
-4.41623
-4.41613
-4.41594
-4.4156
-4.41509
-4.41437
-4.54076
-4.54086
-4.54094
-4.54101
-4.54107
-4.54113
-4.54118
-4.54123
-4.54128
-4.54133
-4.54138
-4.54142
-4.54146
-4.54146
-4.54142
-4.54131
-4.54108
-4.54063
-4.53989
-4.6658
-4.6659
-4.66598
-4.66606
-4.66612
-4.66618
-4.66624
-4.6663
-4.66636
-4.66642
-4.66649
-4.66656
-4.66662
-4.66667
-4.66669
-4.66666
-4.66651
-4.66612
-4.66547
-4.79085
-4.79095
-4.79103
-4.79111
-4.79117
-4.79124
-4.7913
-4.79136
-4.79143
-4.7915
-4.79158
-4.79167
-4.79176
-4.79185
-4.79192
-4.79194
-4.79184
-4.79144
-4.79079
-4.91592
-4.91601
-4.91609
-4.91616
-4.91623
-4.91629
-4.91635
-4.91642
-4.91649
-4.91657
-4.91666
-4.91676
-4.91688
-4.917
-4.91711
-4.91717
-4.91708
-4.91661
-4.91576
-5.04099
-5.04108
-5.04116
-5.04123
-5.04129
-5.04134
-5.0414
-5.04146
-5.04153
-5.04161
-5.04171
-5.04182
-5.04195
-5.04211
-5.04226
-5.04239
-5.04234
-5.04185
-5.04093
-5.16608
-5.16616
-5.16623
-5.16629
-5.16634
-5.16639
-5.16645
-5.1665
-5.16656
-5.16664
-5.16673
-5.16685
-5.16699
-5.16718
-5.16739
-5.16761
-5.16768
-5.16727
-5.16638
-5.29119
-5.29125
-5.29131
-5.29136
-5.2914
-5.29144
-5.29149
-5.29153
-5.29159
-5.29165
-5.29173
-5.29184
-5.29199
-5.29219
-5.29247
-5.29282
-5.29311
-5.29284
-5.29209
-5.4163
-5.41635
-5.41639
-5.41643
-5.41646
-5.41649
-5.41652
-5.41656
-5.4166
-5.41665
-5.41671
-5.4168
-5.41693
-5.41713
-5.41743
-5.41794
-5.41861
-5.41861
-5.4182
-5.54142
-5.54145
-5.54148
-5.5415
-5.54152
-5.54154
-5.54156
-5.54158
-5.5416
-5.54163
-5.54167
-5.54173
-5.54182
-5.54196
-5.54222
-5.54284
-5.54413
-5.5448
-5.54513
-5.66653
-5.66655
-5.66656
-5.66657
-5.66657
-5.66658
-5.66659
-5.66659
-5.6666
-5.66661
-5.66662
-5.66664
-5.66667
-5.66673
-5.66689
-5.66737
-5.66892
-5.67128
-5.67305
)
;

boundaryField
{
    leftWall
    {
        type            calculated;
        value           nonuniform List<scalar> 
50
(
703.328
644.349
585.286
526.122
466.871
407.534
348.115
288.618
195.459
75.165
9.62902
-0.031876
-0.343581
-0.7447
-1.13262
-1.37437
-1.50575
-1.63458
-1.76252
-1.88988
-2.01679
-2.1434
-2.26982
-2.39617
-2.5225
-2.64884
-2.7752
-2.90156
-3.02792
-3.15426
-3.28054
-3.40675
-3.53287
-3.65888
-3.78474
-3.91048
-4.03612
-4.16169
-4.28719
-4.41265
-4.53807
-4.66347
-4.78884
-4.91419
-5.03953
-5.16486
-5.2902
-5.41554
-5.5409
-5.66566
)
;
    }
    rightWall
    {
        type            calculated;
        value           nonuniform List<scalar> 
50
(
717.065
660.2
602.637
544.653
486.575
428.448
370.236
312.603
223.875
103.487
21.5936
-0.509536
-0.694115
-0.94923
-1.18018
-1.36894
-1.50446
-1.63221
-1.75941
-1.88902
-2.02083
-2.15156
-2.27981
-2.40652
-2.53276
-2.65879
-2.78503
-2.91124
-3.03716
-3.16291
-3.28865
-3.4141
-3.53881
-3.66327
-3.78781
-3.91236
-4.03746
-4.16317
-4.28882
-4.41437
-4.53989
-4.66547
-4.79079
-4.91576
-5.04093
-5.16638
-5.29209
-5.4182
-5.54513
-5.67305
)
;
    }
    lowerWall
    {
        type            calculated;
        value           nonuniform List<scalar> 
62
(
732.757
733.319
734.242
735.509
737.067
738.893
740.97
743.276
745.79
748.483
751.323
754.275
757.294
760.324
763.295
766.113
768.689
770.92
772.349
775.01
777.261
778.936
779.8
750.552
691.982
633.441
575.03
516.81
458.781
400.924
343.381
318.791
319.386
319.431
319.104
754.662
696.578
638.341
579.926
521.593
463.385
405.267
347.322
783.789
783.025
781.795
780.042
777.943
775.616
773.199
770.899
768.502
765.571
762.422
758.592
755.725
754.849
755.272
752.472
747.705
745.109
745.323
)
;
    }
    atmosphere
    {
        type            calculated;
        value           nonuniform List<scalar> 
46
(
-5.72908
-5.72904
-5.72904
-5.72904
-5.72904
-5.72904
-5.72904
-5.72904
-5.72904
-5.72904
-5.72904
-5.72904
-5.72904
-5.72904
-5.72904
-5.72904
-5.72904
-5.72904
-5.72904
-5.72904
-5.72905
-5.72905
-5.72906
-5.72907
-5.72907
-5.72907
-5.72908
-5.72908
-5.72909
-5.72909
-5.7291
-5.7291
-5.7291
-5.7291
-5.7291
-5.7291
-5.72909
-5.72909
-5.72908
-5.72908
-5.72907
-5.72907
-5.72906
-5.72905
-5.72904
-5.73827
)
;
    }
    defaultFaces
    {
        type            empty;
    }
}


// ************************************************************************* //
