/*--------------------------------*- C++ -*----------------------------------*\
  =========                 |
  \\      /  F ield         | OpenFOAM: The Open Source CFD Toolbox
   \\    /   O peration     | Website:  https://openfoam.org
    \\  /    A nd           | Version:  9
     \\/     M anipulation  |
\*---------------------------------------------------------------------------*/
FoamFile
{
    format      ascii;
    class       volScalarField;
    location    "70";
    object      epsilon;
}
// * * * * * * * * * * * * * * * * * * * * * * * * * * * * * * * * * * * * * //

dimensions      [0 2 -3 0 0 0 0];

internalField   nonuniform List<scalar> 
12225
(
285.505
270.738
257.889
243.847
232.44
223.146
216.8
212.802
212.873
214.151
217.593
221.355
228.873
233.662
242.872
247.641
258.668
260.369
52.4923
91.8914
107.007
114.802
124.97
136.974
153.054
170.424
192.001
212.065
237.046
257.707
284.449
303.29
330.657
346.614
374.681
394.581
20.5289
34.8683
44.6864
50.4748
55.4332
59.6487
64.7618
69.7671
76.5783
83.5414
92.021
100.098
109.278
118.51
127.539
138.411
146.204
160.75
16.0015
19.4842
24.0873
27.5642
30.5121
32.8835
35.1924
37.3366
39.5825
42.0304
44.5036
47.4513
50.0029
53.5378
56.0239
60.1951
62.5977
67.707
15.0383
15.7116
17.4017
19.0783
20.6455
22.0324
23.2607
24.4521
25.4743
26.644
27.5846
28.8586
29.752
31.1755
32.0427
33.6201
34.4897
36.3582
14.7897
14.8255
15.2499
15.8677
16.5699
17.2903
17.9293
18.595
19.132
19.758
20.2206
20.8456
21.2625
21.9076
22.3002
22.9803
23.3516
24.1465
14.7658
14.6146
14.641
14.7257
14.9355
15.2213
15.4934
15.814
16.0763
16.3941
16.6309
16.9427
17.1571
17.468
17.6652
17.9865
18.1616
18.5382
14.7687
14.5866
14.466
14.3799
14.3676
14.3896
14.44
14.5349
14.62
14.7411
14.836
14.9663
15.0595
15.1952
15.2842
15.4279
15.5061
15.684
14.768
14.591
14.4348
14.2961
14.1846
14.1041
14.0393
14.0066
13.981
13.9793
13.9821
13.9943
14.0076
14.0368
14.0555
14.0958
14.1152
14.1809
14.7666
14.5941
14.432
14.2819
14.1426
14.0214
13.9107
13.8185
13.7358
13.6687
13.6091
13.5625
13.5177
13.4877
13.4534
13.4377
13.4081
13.4103
14.7659
14.5946
14.4321
14.2802
14.1358
14.0028
13.8774
13.7634
13.6568
13.5612
13.4715
13.393
13.3175
13.2537
13.1895
13.1392
13.0829
13.0458
14.7657
14.5944
14.4321
14.2798
14.1351
13.9995
13.8708
13.7509
13.6372
13.532
13.432
13.3405
13.2529
13.174
13.0969
13.0295
12.9613
12.9044
14.7657
14.5942
14.432
14.2794
14.1348
13.9986
13.8693
13.7477
13.632
13.5235
13.4201
13.3235
13.2311
13.1453
13.0629
12.9869
12.9133
12.8463
14.7657
14.594
14.4319
14.279
14.1345
13.9981
13.8688
13.7467
13.6307
13.5212
13.417
13.3186
13.2249
13.1365
13.0522
12.9728
12.8969
12.8255
14.7657
14.5939
14.4317
14.2787
14.1342
13.9976
13.8684
13.7461
13.6302
13.5203
13.4161
13.3173
13.2234
13.1343
13.0497
12.9693
12.8929
12.8203
14.7657
14.5938
14.4316
14.2786
14.1339
13.9973
13.868
13.7456
13.6297
13.5199
13.4156
13.3168
13.2229
13.1338
13.0491
12.9686
12.8921
12.8194
14.7657
14.5937
14.4315
14.2784
14.1337
13.997
13.8677
13.7453
13.6293
13.5195
13.4153
13.3164
13.2226
13.1335
13.0489
12.9685
12.8921
12.8194
14.7657
14.5937
14.4314
14.2782
14.1336
13.9968
13.8675
13.7451
13.6292
13.5193
13.4152
13.3163
13.2226
13.1335
13.0491
12.9687
12.8924
12.8197
14.7657
14.5936
14.4314
14.2782
14.1335
13.9968
13.8675
13.745
13.6292
13.5193
13.4153
13.3165
13.2229
13.1339
13.0495
12.9692
12.893
12.8205
14.7657
14.5936
14.4314
14.2782
14.1337
13.9969
13.8677
13.7453
13.6296
13.5197
13.4158
13.3171
13.2236
13.1347
13.0504
12.9702
12.8942
12.8217
14.7657
14.5937
14.4315
14.2784
14.1338
13.9972
13.868
13.7458
13.63
13.5205
13.4166
13.3182
13.2248
13.1363
13.0522
12.9724
12.8966
12.8247
14.7657
14.5937
14.4316
14.2785
14.1341
13.9976
13.8688
13.7469
13.6319
13.5231
13.4204
13.3231
13.2314
13.1444
13.0625
12.9846
12.9115
12.8415
14.7658
14.5936
14.4318
14.2788
14.1355
14.0004
13.8746
13.7566
13.6472
13.5445
13.4498
13.3607
13.2789
13.2013
13.1306
13.0627
13.0017
12.9417
14.7661
14.5927
14.4329
14.2845
14.1516
14.0324
13.9292
13.8379
13.7597
13.6898
13.631
13.5771
13.5327
13.4902
13.4567
13.4219
13.3971
13.367
14.7641
14.5936
14.461
14.3604
14.303
14.2765
14.2793
14.2933
14.319
14.3512
14.3931
14.4308
14.4773
14.5152
14.5636
14.5988
14.649
14.679
14.757
14.692
14.7578
14.917
15.1819
15.46
15.7451
16.0088
16.267
16.4968
16.7263
16.9261
17.1344
17.3109
17.5059
17.6637
17.8525
17.9933
14.9575
15.4344
16.5687
17.6875
18.7022
19.5639
20.3294
20.9871
21.6039
22.1467
22.6915
23.1769
23.6953
24.1501
24.6647
25.1011
25.625
26.0482
16.2578
20.939
25.0136
27.7563
29.7772
31.3481
32.7558
34.0307
35.3152
36.5596
37.8939
39.1949
40.624
41.9796
43.502
44.9088
46.5517
47.965
29.9424
47.2194
54.8593
58.6537
61.579
64.3799
67.4935
70.859
74.5613
78.4753
82.6606
86.9224
91.368
95.7772
100.283
104.645
109.025
113.235
165.791
160.071
154.899
149.562
144.476
139.68
135.603
132.109
129.247
126.955
125.27
123.989
123.243
122.71
122.663
122.771
123.021
123.508
12.2051
4.97645
6.47479
7.50135
8.04366
37.8059
38.2843
8.83574
41.7571
42.7223
38.7376
43.0273
46.4589
46.3379
38.9825
8.59099
8.23503
8.16756
8.59957
9.02263
42.5912
45.6719
48.6076
52.4368
57.7368
65.8653
77.1657
91.6146
109.129
129.501
152.442
176.855
202.533
229.184
256.246
283.683
311.14
338.65
365.939
393.141
420.014
446.773
473.186
499.529
525.565
551.617
577.425
603.349
629.107
655.082
680.963
707.151
733.313
759.857
786.436
813.455
840.528
868.081
895.691
923.807
951.933
980.563
1009.16
1038.22
1067.15
1096.47
1125.53
1154.85
1183.77
1212.79
1241.26
1269.62
1297.25
1324.53
1350.88
1376.67
1401.39
1425.54
1448.72
1471.63
1493.17
1513.78
1532.85
1550.76
1566.71
1580.46
1592.46
1602.25
1608.11
1611.87
1608.36
1608.06
1603.13
1595.68
1585.09
1571.06
1553.8
1533.37
1509.78
1483.18
1453.56
1421.12
1386.02
1348.99
1310.58
1271.03
1230.45
1189.14
1147.43
1105.54
1063.79
1022.37
981.436
940.125
898.55
858.42
819.63
782.263
746.423
712.073
679.332
648.336
619.305
594.802
575.475
557.844
541.164
525.218
510.019
495.504
481.693
468.523
456.013
444.099
432.785
421.989
411.828
401.974
392.369
383.156
374.377
366.01
358.056
350.502
343.315
336.483
329.929
323.608
317.518
311.655
306.019
300.598
295.396
290.384
285.536
280.836
276.287
271.887
267.632
263.513
259.525
255.672
251.949
248.354
244.879
241.51
238.243
235.058
231.932
228.837
225.753
222.605
219.396
215.938
212.418
207.971
204.135
196.933
191.882
177.732
23.0018
17.8102
16.5802
16.0478
16.1478
18.09
18.7171
17.7518
19.5932
21.1694
22.1376
23.8268
25.6825
27.161
27.456
26.3004
27.5993
30.8564
35.8032
42.6091
52.5402
60.8324
69.2166
78.3692
88.411
99.3396
110.982
123.18
135.775
148.502
160.628
172.62
184.56
195.558
206.284
216.742
226.975
237.075
247.048
256.972
266.831
276.69
286.523
296.383
306.24
316.141
326.051
336.016
345.995
356.036
366.094
376.214
386.348
396.545
406.752
417.01
427.263
437.553
447.816
458.091
468.309
478.516
488.635
498.706
508.647
518.497
528.17
537.705
547.019
556.148
565.012
573.642
581.968
590.027
597.77
605.259
612.491
619.587
626.602
633.704
640.988
647.947
654.477
660.567
666.089
671.022
675.353
678.992
681.882
683.539
684.423
683.625
682.97
681.148
678.273
674.189
668.932
662.502
654.889
646.112
636.176
625.133
613.033
600.011
586.211
571.662
556.159
540.088
523.672
507.038
490.281
473.507
456.761
440.035
423.376
407.095
391.218
375.804
360.88
346.471
332.593
319.295
306.694
295.129
284.75
275.131
266.04
257.396
249.167
241.335
233.884
226.799
220.063
213.662
207.578
201.791
196.291
190.948
185.793
180.859
176.151
171.666
167.393
163.315
159.425
155.719
152.176
148.776
145.505
142.359
139.332
136.419
133.617
130.915
128.305
125.776
123.323
120.947
118.642
116.406
114.233
112.125
110.078
108.091
106.161
104.284
102.455
100.669
98.9193
97.1941
95.487
93.7824
92.0679
90.3125
88.5412
86.6282
84.8093
82.6368
83.1219
83.4434
42.6854
28.6695
24.2016
22.2067
21.1845
20.7897
20.7561
20.9717
21.6682
22.7912
24.296
26.3233
28.9255
32.1213
35.9626
40.7624
46.6661
53.6663
61.5162
69.9477
78.6855
87.0967
95.2153
103.124
110.86
118.496
126.099
133.737
141.439
149.203
157.035
164.722
172.149
179.992
187.946
195.998
204.13
212.335
220.588
228.88
237.185
245.498
253.798
262.082
270.334
278.556
286.734
294.872
302.957
310.995
318.974
326.9
334.759
342.56
350.29
357.956
365.547
373.074
380.491
387.799
394.985
402.051
408.983
415.787
422.448
428.974
435.354
441.596
447.696
453.665
459.503
465.226
470.84
476.368
481.823
487.235
492.624
498.02
503.433
508.865
514.273
519.537
524.626
529.509
534.141
538.487
542.498
546.103
549.238
551.805
553.742
554.906
555.47
555.527
554.588
552.661
549.71
545.719
540.676
534.568
527.41
519.232
510.083
500.043
489.199
477.623
465.372
452.606
439.45
426.02
412.407
398.709
384.994
371.33
357.787
344.485
331.474
318.803
306.497
294.581
283.069
272.006
261.46
251.55
242.324
233.669
225.475
217.69
210.281
203.234
196.529
190.156
184.098
178.342
172.871
167.672
162.728
157.997
153.466
149.135
144.999
141.051
137.276
133.641
130.162
126.839
123.659
120.612
117.678
114.855
112.138
109.523
107.003
104.571
102.22
99.9435
97.7361
95.5946
93.5155
91.4946
89.5285
87.6149
85.752
83.9369
82.1676
80.4408
78.7529
77.0997
75.477
73.8777
72.2955
70.7235
69.1514
67.57
65.9733
64.3453
62.7197
61.0397
59.7606
59.6869
61.5694
38.068
31.2454
28.408
27.0481
26.4848
26.4818
26.961
27.9629
29.5393
31.7637
34.7414
38.5667
43.3054
48.9716
55.5297
62.8121
70.5323
78.3301
85.89
92.9911
99.5445
105.665
111.547
117.372
123.298
129.441
135.878
142.644
149.642
156.807
164.167
171.722
179.521
187.494
195.602
203.81
212.089
220.408
228.743
237.068
245.366
253.615
261.806
269.921
277.954
285.893
293.734
301.466
309.089
316.592
323.975
331.23
338.357
345.349
352.205
358.92
365.493
371.913
378.181
384.292
390.25
396.055
401.713
407.227
412.606
417.856
422.991
428.021
432.961
437.827
442.636
447.407
452.16
456.913
461.685
466.492
471.347
476.255
481.216
486.197
491.149
496.047
500.865
505.564
510.103
514.43
518.48
522.185
525.481
528.287
530.497
531.982
532.699
532.827
531.951
530.043
527.087
523.054
517.929
511.716
504.439
496.145
486.898
476.778
465.872
454.277
442.112
429.499
416.549
403.368
390.057
376.705
363.394
350.205
337.222
324.501
312.085
300.009
288.304
277.005
266.152
255.786
245.956
236.676
227.904
219.583
211.676
204.156
197.005
190.206
183.745
177.606
171.773
166.232
160.967
155.963
151.194
146.645
142.304
138.162
134.21
130.434
126.819
123.359
120.05
116.877
113.833
110.892
108.06
105.336
102.713
100.181
97.7369
95.3736
93.0853
90.867
88.7148
86.6242
84.5908
82.6109
80.6816
78.8004
76.9643
75.1709
73.4172
71.6997
70.0148
68.359
66.7257
65.1113
63.5104
61.9145
60.319
58.7147
57.1042
55.4843
53.8917
52.354
51.5776
79.9837
47.6911
39.0621
35.6141
34.086
33.5654
33.7291
34.514
35.9288
38.0302
40.8888
44.5705
49.1027
54.4525
60.5032
67.0581
73.8465
80.5795
87.0116
93.0131
98.5836
103.843
108.98
114.186
119.606
125.339
131.426
137.875
144.655
151.757
159.172
166.861
174.798
182.96
191.304
199.791
208.383
217.05
225.757
234.477
243.181
251.848
260.454
268.983
277.416
285.742
293.944
302.016
309.945
317.726
325.348
332.809
340.1
347.218
354.158
360.92
367.499
373.897
380.113
386.148
391.998
397.67
403.168
408.501
413.677
418.709
423.608
428.392
433.075
437.676
442.214
446.71
451.183
455.655
460.145
464.67
469.245
473.885
478.598
483.39
488.248
493.154
498.092
503.038
507.961
512.821
517.564
522.128
526.445
530.438
534.02
537.085
539.541
541.085
541.851
541.907
540.853
538.701
535.407
530.944
525.303
518.5
510.574
501.583
491.609
480.742
469.094
456.781
443.933
430.667
417.109
403.365
389.545
375.742
362.048
348.537
335.275
322.315
309.709
297.496
285.716
274.398
263.572
253.26
243.467
234.169
225.338
216.942
208.961
201.373
194.164
187.315
180.81
174.633
168.767
163.195
157.902
152.867
148.073
143.506
139.153
135.001
131.04
127.254
123.634
120.172
116.853
113.676
110.623
107.687
104.863
102.142
99.5085
96.9651
94.5058
92.1238
89.8148
87.5742
85.397
83.2783
81.2143
79.2019
77.2378
75.319
73.4427
71.6057
69.8046
68.0359
66.2964
64.579
62.8805
61.1976
59.5239
57.8557
56.1855
54.5174
52.844
51.2075
49.5848
48.3555
97.5617
58.0351
47.6389
43.6442
41.9962
41.5251
41.8192
42.8102
44.4729
46.8325
49.9164
53.7277
58.218
63.2787
68.7408
74.4014
80.0549
85.542
90.7813
95.7889
100.659
105.535
110.564
115.865
121.515
127.553
133.986
140.801
147.975
155.49
163.32
171.438
179.81
188.408
197.196
206.139
215.202
224.354
233.559
242.79
252.015
261.209
270.345
279.404
288.361
297.202
305.908
314.465
322.861
331.084
339.124
346.974
354.625
362.071
369.307
376.33
383.136
389.724
396.091
402.241
408.179
413.914
419.451
424.801
429.976
434.99
439.857
444.595
449.223
453.761
458.23
462.651
467.049
471.444
475.859
480.314
484.829
489.421
494.103
498.88
503.759
508.743
513.824
518.985
524.199
529.428
534.622
539.717
544.641
549.313
553.635
557.487
560.752
563.294
564.738
565.534
565.246
563.797
561.127
557.19
551.964
545.454
537.69
528.729
518.651
507.554
495.556
482.784
469.374
455.464
441.184
426.665
412.023
397.367
382.794
368.395
354.248
340.422
326.973
313.947
301.382
289.305
277.739
266.697
256.18
246.172
236.654
227.603
218.997
210.818
203.047
195.667
188.659
182.005
175.688
169.69
163.993
158.578
153.427
148.525
143.857
139.408
135.165
131.115
127.246
123.548
120.008
116.619
113.368
110.247
107.248
104.362
101.58
98.8958
96.2989
93.7812
91.3401
88.9703
86.6665
84.4239
82.2384
80.1068
78.0255
75.9913
74.001
72.0512
70.1384
68.2591
66.41
64.5844
62.7814
60.9965
59.2242
57.4609
55.701
53.9468
52.1929
50.4687
48.7616
47.2281
113.589
68.0737
56.1898
51.7576
50.0155
49.5609
49.9012
50.9412
52.6122
54.9005
57.7937
61.2556
65.2099
69.5435
74.1196
78.805
83.4954
88.1392
92.7432
97.3677
102.103
107.05
112.292
117.891
123.878
130.266
137.048
144.211
151.734
159.599
167.784
176.264
185.012
194.002
203.202
212.582
222.108
231.75
241.474
251.248
261.042
270.826
280.572
290.255
299.848
309.331
318.683
327.885
336.92
345.775
354.435
362.889
371.126
379.139
386.92
394.464
401.766
408.824
415.636
422.206
428.535
434.631
440.499
446.15
451.593
456.844
461.917
466.83
471.602
476.254
480.809
485.289
489.72
494.127
498.535
502.971
507.459
512.025
516.692
521.477
526.397
531.461
536.669
542.012
547.468
553.006
558.577
564.12
569.56
574.815
579.78
584.324
588.315
591.615
594.017
595.315
595.726
594.919
592.809
589.333
584.455
578.164
570.484
561.467
551.192
539.766
527.31
513.965
499.875
485.194
470.066
454.634
439.028
423.376
407.792
392.382
377.233
362.424
348.013
334.052
320.577
307.619
295.195
283.317
271.982
261.183
250.9
241.116
231.811
222.967
214.562
206.58
199
191.804
184.97
178.482
172.32
166.465
160.899
155.603
150.563
145.762
141.185
136.82
132.652
128.67
124.862
121.218
117.726
114.377
111.162
108.073
105.099
102.234
99.4699
96.7975
94.2058
91.6875
89.2369
86.8499
84.5229
82.2527
80.0361
77.8693
75.749
73.6714
71.6328
69.6295
67.658
65.7135
63.7929
61.8926
60.0081
58.1359
56.2715
54.4155
52.5644
50.7355
48.928
47.1683
127.326
76.966
63.8638
59.0837
57.2604
56.7948
57.1115
58.0798
59.5929
61.6101
64.1019
67.0287
70.3303
73.9314
77.7536
81.7326
85.8314
90.0475
94.4096
98.9686
103.783
108.909
114.389
120.25
126.504
133.152
140.185
147.595
155.366
163.484
171.931
180.689
189.735
199.048
208.6
218.365
228.311
238.408
248.625
258.929
269.288
279.671
290.048
300.39
310.668
320.858
330.933
340.872
350.653
360.259
369.671
378.875
387.857
396.605
405.108
413.358
421.349
429.075
436.534
443.724
450.646
457.303
463.7
469.845
475.747
481.417
486.871
492.124
497.195
502.106
506.879
511.538
516.109
520.621
525.103
529.584
534.096
538.671
543.339
548.128
553.061
558.156
563.421
568.855
574.445
580.165
585.973
591.81
597.607
603.28
608.722
613.799
618.366
622.279
625.392
627.291
628.195
627.937
626.304
623.219
618.629
612.508
604.87
595.763
585.265
573.485
560.554
546.618
531.836
516.369
500.38
484.026
467.462
450.828
434.253
417.849
401.712
385.925
370.553
355.651
341.257
327.404
314.108
301.379
289.218
277.615
266.558
256.029
246.01
236.482
227.425
218.819
210.645
202.881
195.508
188.506
181.853
175.532
169.523
163.807
158.367
153.186
148.25
143.543
139.05
134.76
130.66
126.737
122.981
119.382
115.929
112.614
109.427
106.36
103.405
100.553
97.7952
95.1202
92.513
89.9709
87.4921
85.0738
82.7126
80.4048
78.1467
75.9342
73.7633
71.6301
69.5309
67.4614
65.4181
63.3974
61.3954
59.4086
57.433
55.4678
53.5104
51.5692
49.6503
47.7036
138.088
84.0304
69.9524
64.8921
63.0011
62.5189
62.7948
63.6618
64.9862
66.7147
68.8191
71.2758
74.0559
77.1264
80.4559
84.0228
87.8203
91.8581
96.1591
100.754
105.673
110.943
116.584
122.608
129.018
135.813
142.988
150.537
158.451
166.72
175.333
184.276
193.532
203.084
212.908
222.981
233.276
243.764
254.414
265.195
276.076
287.024
298.007
308.996
319.958
330.866
341.689
352.403
362.982
373.403
383.646
393.69
403.518
413.114
422.463
431.554
440.375
448.918
457.176
465.144
472.82
480.203
487.295
494.099
500.623
506.875
512.867
518.614
524.133
529.443
534.567
539.528
544.354
549.072
553.715
558.314
562.906
567.525
572.208
576.991
581.903
586.97
592.209
597.626
603.216
608.962
614.829
620.764
626.702
632.569
638.256
643.631
648.539
652.827
656.335
658.74
660.007
660.117
658.817
656.003
651.606
645.582
637.936
628.707
617.977
605.851
592.466
577.975
562.55
546.366
529.606
512.439
495.036
477.544
460.098
442.816
425.801
409.138
392.9
377.142
361.909
347.229
333.127
319.608
306.677
294.323
282.538
271.304
260.606
250.423
240.738
231.529
222.776
214.458
206.554
199.042
191.904
185.117
178.664
172.524
166.68
161.115
155.812
150.756
145.931
141.325
136.923
132.714
128.686
124.827
121.127
117.578
114.168
110.889
107.733
104.691
101.754
98.9114
96.1438
93.4424
90.8081
88.2387
85.7307
83.2803
80.8831
78.5347
76.2308
73.9672
71.7401
69.5453
67.3791
65.2379
63.118
61.0156
58.9271
56.8506
54.7834
52.7281
50.6932
48.5923
145.464
88.8618
74.0429
68.7625
66.8271
66.3482
66.6209
67.4397
68.6536
70.2036
72.0681
74.2403
76.7167
79.4933
82.5666
85.9353
89.6032
93.5788
97.8749
102.506
107.486
112.826
118.536
124.62
131.08
137.919
145.133
152.722
160.678
168.999
177.677
186.705
196.072
205.765
215.764
226.051
236.601
247.389
258.385
269.561
280.884
292.324
303.849
315.43
327.033
338.626
350.176
361.655
373.034
384.287
395.388
406.314
417.043
427.553
437.826
447.846
457.596
467.065
476.24
485.112
493.673
501.92
509.849
517.46
524.756
531.741
538.425
544.818
550.934
556.791
562.408
567.808
573.017
578.062
582.974
587.786
592.533
597.255
601.99
606.778
611.656
616.654
621.797
627.098
632.56
638.172
643.907
649.72
655.557
661.345
666.992
672.36
677.302
681.654
685.251
687.828
689.239
689.464
688.266
685.526
681.162
675.109
667.359
657.952
646.96
634.497
620.702
605.74
589.793
573.047
555.689
537.897
519.849
501.699
483.582
465.619
447.915
430.56
413.628
397.178
381.257
365.896
351.12
336.937
323.351
310.355
297.94
286.091
274.793
264.028
253.778
244.023
234.742
225.914
217.518
209.532
201.936
194.71
187.834
181.29
175.057
169.121
163.462
158.066
152.917
148.001
143.303
138.812
134.514
130.399
126.455
122.672
119.04
115.55
112.192
108.958
105.839
102.824
99.8922
97.0316
94.2435
91.5258
88.8744
86.285
83.7527
81.2727
78.8402
76.4506
74.0998
71.7836
69.4983
67.2403
65.0057
62.7907
60.5914
58.4054
56.2294
54.0623
51.9125
49.6766
149.394
91.3749
76.0519
70.6182
68.6768
68.24
68.5679
69.4283
70.6545
72.1818
73.9898
76.0792
78.4584
81.1372
84.1257
87.4312
91.0603
95.0191
99.3137
103.95
108.935
114.272
119.964
126.018
132.436
139.226
146.392
153.941
161.847
170.116
178.754
187.762
197.131
206.855
216.92
227.309
238.004
248.982
260.215
271.678
283.336
295.155
307.122
319.206
331.369
343.577
355.794
367.988
380.126
392.182
404.127
415.933
427.573
439.022
450.256
461.254
471.995
482.462
492.638
502.508
512.061
521.285
530.174
538.722
546.926
554.788
562.309
569.498
576.364
582.921
589.184
595.174
600.912
606.423
611.736
616.881
621.891
626.805
631.661
636.501
641.366
646.289
651.298
656.413
661.642
666.978
672.402
677.874
683.346
688.763
694.036
699.041
703.636
707.662
710.957
713.276
714.485
714.47
713.039
710.069
705.492
699.203
691.191
681.501
670.207
657.428
643.302
628.002
611.704
594.596
576.862
558.677
540.238
521.694
503.171
484.792
466.658
448.863
431.477
414.566
398.173
382.336
367.08
352.417
338.346
324.867
311.967
299.637
287.861
276.625
265.912
255.703
245.977
236.714
227.893
219.494
211.495
203.878
196.623
189.712
183.125
176.848
170.861
165.15
159.699
154.492
149.517
144.759
140.207
135.848
131.672
127.666
123.821
120.128
116.576
113.157
109.86
106.675
103.579
100.565
97.6298
94.7715
91.9851
89.2653
86.6067
84.0036
81.451
78.9437
76.4774
74.0476
71.6506
69.2826
66.9397
64.618
62.3136
60.0232
57.743
55.4697
53.2105
50.8566
149.686
91.51
76.0382
70.5697
68.6728
68.3199
68.7785
69.7831
71.1499
72.8053
74.7228
76.8993
79.3408
82.0521
85.0637
88.3844
92.0211
95.9782
100.26
104.869
109.813
115.097
120.703
126.643
132.932
139.58
146.6
154.01
161.777
169.917
178.433
187.331
196.607
206.257
216.273
226.645
237.355
248.387
259.719
271.327
283.181
295.254
307.555
320.035
332.656
345.381
358.175
371
383.817
396.609
409.345
421.993
434.519
446.892
459.085
471.074
482.832
494.337
505.566
516.5
527.12
537.412
547.361
556.956
566.19
575.057
583.554
591.682
599.448
606.858
613.924
620.661
627.086
633.219
639.083
644.703
650.109
655.333
660.413
665.386
670.294
675.172
680.048
684.944
689.867
694.814
699.766
704.688
709.538
714.268
718.809
723.051
726.859
730.092
732.589
734.158
734.678
733.955
731.842
728.217
722.961
716.058
707.516
697.383
685.734
672.673
658.334
642.87
626.448
609.268
591.494
573.253
554.747
536.125
517.518
499.042
480.795
462.866
445.328
428.24
411.649
395.591
380.101
365.188
350.853
337.093
323.899
311.261
299.166
287.606
276.565
266.025
255.968
246.373
237.222
228.495
220.171
212.233
204.662
197.442
190.554
183.982
177.711
171.724
166.006
160.542
155.319
150.322
145.541
140.961
136.573
132.364
128.324
124.444
120.712
117.12
113.658
110.311
107.06
103.903
100.834
97.8478
94.9394
92.1022
89.3299
86.6164
83.9558
81.3427
78.7721
76.2397
73.7413
71.2732
68.8313
66.4116
64.0102
61.6232
59.2465
56.8753
54.5157
52.0601
147.981
90.2812
74.7687
69.2839
67.4474
67.2076
67.835
69.0057
70.5438
72.3686
74.4472
76.7712
79.3435
82.1689
85.2825
88.6748
92.3512
96.3148
100.57
105.122
109.981
115.159
120.636
126.432
132.558
139.025
145.842
153.014
160.539
168.436
176.716
185.389
194.457
203.922
213.781
224.028
234.653
245.644
256.983
268.65
280.618
292.858
305.348
318.066
330.983
344.066
357.281
370.593
383.969
397.414
410.869
424.295
437.652
450.898
464.016
476.977
489.746
502.297
514.6
526.632
538.369
549.789
560.874
571.605
581.968
591.951
601.544
610.743
619.546
627.956
635.976
643.616
650.886
657.799
664.372
670.621
676.569
682.239
687.663
692.873
697.906
702.794
707.564
712.231
716.801
721.265
725.603
729.781
733.753
737.487
740.917
743.959
746.493
748.406
749.563
749.744
748.714
746.432
742.875
737.954
731.614
723.874
714.738
704.153
692.177
678.899
664.445
648.953
632.577
615.504
597.886
579.832
561.623
543.339
525.077
506.932
488.999
471.353
454.065
437.185
420.772
404.814
389.382
374.493
360.151
346.35
333.086
320.348
308.124
296.418
285.215
274.498
264.249
254.452
245.088
236.141
227.591
219.422
211.618
204.163
197.042
190.24
183.742
177.532
171.596
165.92
160.49
155.292
150.316
145.548
140.978
136.593
132.383
128.339
124.449
120.704
117.092
113.597
110.212
106.931
103.746
100.651
97.6381
94.7004
91.8309
89.0227
86.2694
83.5651
80.9046
78.283
75.6962
73.1401
70.6108
68.1042
65.6163
63.1431
60.68
58.2217
55.7731
53.2319
143.458
87.2655
72.0153
66.6317
64.8953
64.7899
65.614
67.0203
68.8164
70.9074
73.2483
75.8192
78.6127
81.6256
84.8634
88.3399
92.0632
96.0372
100.266
104.754
109.506
114.519
119.801
125.371
131.243
137.43
143.947
150.805
158.024
165.62
173.601
181.979
190.759
199.949
209.551
219.563
229.982
240.8
252.007
263.59
275.532
287.816
300.414
313.305
326.46
339.851
353.445
367.205
381.086
395.051
409.079
423.141
437.202
451.232
465.223
479.116
492.862
506.435
519.804
532.939
545.812
558.395
570.663
582.592
594.16
605.347
616.137
626.517
636.479
646.017
655.129
663.815
672.078
679.922
687.354
694.382
701.015
707.268
713.158
718.712
723.956
728.918
733.612
738.048
742.218
746.107
749.69
752.921
755.761
758.167
760.087
761.457
762.172
762.091
760.917
758.728
755.639
751.672
746.597
740.324
732.816
724.093
714.048
702.77
690.323
676.794
662.283
646.91
630.798
614.098
596.936
579.37
561.662
543.889
526.145
508.52
491.095
473.94
457.117
440.672
424.659
409.085
394.048
379.523
365.494
351.957
338.906
326.329
314.217
302.571
291.396
280.678
270.402
260.552
251.114
242.074
233.415
225.123
217.183
209.585
202.315
195.361
188.707
182.341
176.248
170.415
164.83
159.48
154.353
149.437
144.723
140.197
135.85
131.671
127.65
123.776
120.037
116.426
112.935
109.555
106.278
103.096
100
96.9828
94.0356
91.1515
88.3234
85.5451
82.811
80.116
77.4557
74.8259
72.2227
69.6422
67.0803
64.5331
61.9958
59.4628
56.9386
54.3284
136.886
83.0721
68.4217
63.2526
61.6406
61.6712
62.6657
64.2627
66.2744
68.5985
71.1791
73.9859
77.0045
80.23
83.6519
87.2667
91.0749
95.0798
99.2866
103.701
108.333
113.197
118.306
123.673
129.311
135.239
141.472
148.031
154.933
162.198
169.84
177.876
186.315
195.171
204.449
214.155
224.291
234.854
245.839
257.239
269.042
281.234
293.795
306.706
319.942
333.478
347.284
361.33
375.585
390.023
404.607
419.3
434.061
448.838
463.594
478.298
492.922
507.47
521.865
536.072
550.065
563.81
577.277
590.433
603.249
615.697
627.753
639.394
650.605
661.372
671.683
681.53
690.907
699.806
708.223
716.151
723.589
730.532
736.988
742.964
748.481
753.547
758.169
762.331
766.019
769.202
771.844
773.881
775.281
775.987
775.93
775.132
773.106
770.014
766.382
761.887
756.504
750.028
742.548
734.088
724.661
714.293
702.994
690.811
677.791
664.003
649.518
634.423
618.807
602.774
586.415
569.822
553.099
536.337
519.613
503.002
486.564
470.362
454.442
438.847
423.616
408.732
394.298
380.309
366.763
353.66
340.993
328.753
316.906
305.545
294.621
284.112
274.003
264.282
254.937
245.958
237.332
229.047
221.085
213.447
206.126
199.109
192.384
185.938
179.76
173.837
168.158
162.712
157.487
152.473
147.661
143.036
138.589
134.312
130.191
126.222
122.397
118.708
115.144
111.697
108.357
105.115
101.961
98.8872
95.8847
92.9458
90.0631
87.2299
84.4404
81.6892
78.972
76.2842
73.6223
70.9824
68.3606
65.7531
63.1551
60.5616
57.9764
55.3143
128.812
78.0371
64.2191
59.3656
57.9149
58.0979
59.2505
61.0292
63.2506
65.8083
68.6378
71.6978
74.9621
78.4127
82.0355
85.8205
89.7632
93.8619
98.1198
102.542
107.14
111.924
116.911
122.117
127.56
133.261
139.24
145.519
152.119
159.063
166.37
174.06
182.15
190.654
199.586
208.955
218.769
229.031
239.742
250.899
262.495
274.522
286.966
299.81
313.036
326.62
340.539
354.768
369.278
384.041
399.022
414.188
429.498
444.917
460.408
475.945
491.474
506.928
522.284
537.514
552.592
567.481
582.143
596.538
610.627
624.373
637.742
650.704
663.232
675.302
686.894
697.989
708.568
718.611
728.096
737.005
745.313
753.001
760.052
766.464
772.232
777.352
781.795
785.537
788.533
790.748
792.126
792.584
792.098
790.651
787.758
783.615
778.753
773
766.032
758.03
749.091
739.285
728.716
717.478
705.655
693.313
680.505
667.268
653.64
639.651
625.338
610.737
595.893
580.852
565.664
550.377
535.046
519.722
504.454
489.288
474.271
459.443
444.842
430.502
416.452
402.71
389.303
376.249
363.553
351.22
339.247
327.63
316.347
305.445
294.914
284.747
274.935
265.47
256.344
247.547
239.073
230.909
223.04
215.485
208.229
201.257
194.56
188.127
181.949
176.014
170.314
164.84
159.58
154.525
149.667
144.992
140.489
136.158
131.99
127.978
124.113
120.386
116.787
113.307
109.935
106.662
103.477
100.373
97.3387
94.3675
91.4513
88.5833
85.7573
82.9681
80.2111
77.4818
74.7767
72.0926
69.4257
66.7723
64.1282
61.4889
58.858
56.1608
120.102
72.7271
59.9172
55.4763
54.2484
54.6201
55.9583
57.9445
60.4042
63.2315
66.3551
69.7258
73.3105
77.0912
81.0311
85.1078
89.3107
93.634
98.0776
102.645
107.346
112.191
117.197
122.38
127.763
133.366
139.214
145.33
151.74
158.468
165.538
172.974
180.795
189.023
197.674
206.762
216.3
226.296
236.754
247.677
259.063
270.906
283.197
295.925
309.075
322.628
336.565
350.866
365.508
380.468
395.71
411.204
426.916
442.811
458.851
475.002
491.216
507.443
523.621
539.737
555.755
571.649
587.381
602.899
618.155
633.099
647.691
661.886
675.655
688.957
701.767
714.047
725.771
736.895
747.386
757.198
766.29
774.62
782.148
788.85
794.698
799.649
803.653
806.653
808.585
809.413
809.081
807.598
804.487
799.715
793.753
786.641
778.014
768.063
756.885
744.659
731.59
717.886
703.757
689.383
674.923
660.482
646.136
631.91
617.814
603.831
589.946
576.135
562.386
548.683
535.025
521.409
507.842
494.332
480.895
467.549
454.318
441.224
428.293
415.548
403.011
390.697
378.626
366.809
355.256
343.973
332.964
322.23
311.77
301.596
291.713
282.122
272.822
263.81
255.083
246.638
238.469
230.572
222.929
215.565
208.468
201.63
195.047
188.71
182.61
176.739
171.089
165.657
160.425
155.389
150.544
145.882
141.392
137.075
132.923
128.925
125.073
121.358
117.77
114.298
110.934
107.665
104.481
101.375
98.3369
95.3594
92.4341
89.5541
86.7135
83.9068
81.1296
78.3774
75.6473
72.9363
70.2413
67.5588
64.8853
62.217
59.5576
56.8438
111.962
67.8282
56.0688
52.1179
51.2051
51.8584
53.483
55.7827
58.595
61.8297
65.3869
69.2062
73.239
77.4322
81.7463
86.1826
90.7327
95.3884
100.146
105.007
109.976
115.063
120.281
125.648
131.182
136.907
142.845
149.022
155.463
162.194
169.243
176.633
184.389
192.533
201.084
210.062
219.479
229.348
239.675
250.465
261.718
273.433
285.603
298.221
311.274
324.751
338.636
352.914
367.566
382.572
397.905
413.537
429.439
445.578
461.921
478.431
495.069
511.794
528.584
545.384
562.153
578.838
595.401
611.792
627.955
643.847
659.404
674.59
689.347
703.642
717.423
730.655
743.278
755.246
766.489
776.95
786.558
795.248
802.959
809.641
815.226
819.64
822.796
824.619
824.997
824.186
821.721
817.233
810.976
803.103
793.613
782.281
769.26
754.743
738.965
722.224
704.849
687.176
669.516
652.136
635.243
618.974
603.393
588.505
574.266
560.607
547.448
534.704
522.3
510.168
498.251
486.499
474.876
463.35