/*--------------------------------*- C++ -*----------------------------------*\
  =========                 |
  \\      /  F ield         | OpenFOAM: The Open Source CFD Toolbox
   \\    /   O peration     | Website:  https://openfoam.org
    \\  /    A nd           | Version:  9
     \\/     M anipulation  |
\*---------------------------------------------------------------------------*/
FoamFile
{
    format      ascii;
    class       volScalarField;
    location    "70";
    object      nut;
}
// * * * * * * * * * * * * * * * * * * * * * * * * * * * * * * * * * * * * * //

dimensions      [0 2 -1 0 0 0 0];

internalField   nonuniform List<scalar> 
12225
(
4.14902e-05
3.93452e-05
3.74793e-05
3.5438e-05
3.37806e-05
3.24295e-05
3.15072e-05
3.09256e-05
3.09338e-05
3.11263e-05
3.16122e-05
3.21774e-05
3.32446e-05
3.39498e-05
3.52094e-05
3.62798e-05
3.68789e-05
4.01369e-05
0.000332211
0.000215179
0.000179222
0.000157677
0.000146155
0.000138166
0.000132607
0.00013169
0.000129373
0.000130138
0.000128941
0.000129545
0.000128572
0.000128695
0.000127998
0.000127812
0.000127623
0.000126574
0.000668649
0.000450713
0.000355652
0.000309811
0.000275105
0.000250997
0.000231445
0.000217048
0.000202274
0.000191608
0.000182085
0.000174416
0.000168777
0.00016256
0.000159585
0.00015403
0.000152883
0.000147736
0.000801719
0.000691732
0.0005724
0.000500046
0.000449156
0.000411825
0.000380428
0.00035563
0.000333464
0.000314088
0.000297457
0.000280485
0.000269193
0.000254223
0.000246487
0.00023369
0.000227808
0.000216719
0.000839633
0.00081023
0.000740587
0.000676412
0.000623731
0.000581183
0.000545539
0.000514078
0.000488973
0.000463563
0.000444977
0.000422622
0.000408529
0.000388665
0.000377607
0.000360002
0.00035106
0.000334624
0.000850346
0.000843287
0.000819526
0.000786505
0.000750651
0.000715681
0.000685515
0.00065566
0.000632079
0.000606673
0.000588162
0.000565881
0.000550845
0.000531028
0.000518433
0.000500548
0.000489948
0.000472467
0.000851579
0.000851021
0.000843295
0.000833451
0.000817066
0.000796807
0.000777724
0.000756378
0.000738551
0.000718485
0.000702841
0.000684521
0.000670889
0.000654184
0.000642283
0.000626769
0.000616639
0.000600863
0.000851583
0.000851814
0.000850039
0.000847446
0.000841381
0.000833685
0.000824714
0.000813227
0.000802592
0.000790045
0.000779225
0.000766779
0.000756525
0.000744514
0.00073504
0.000723441
0.000715071
0.000702776
0.000851676
0.000851528
0.000851019
0.000850331
0.000848871
0.00084613
0.000842987
0.00083819
0.000833278
0.00082712
0.000820905
0.000814328
0.000807858
0.000800715
0.000794314
0.000787003
0.000780968
0.000772777
0.000851757
0.000851383
0.000851047
0.000850624
0.000850245
0.000849344
0.000848383
0.000846724
0.000844884
0.00084241
0.000839754
0.000836558
0.00083347
0.000829716
0.000826397
0.000822191
0.000818968
0.000814107
0.000851787
0.000851357
0.000851014
0.000850608
0.000850326
0.000849891
0.000849509
0.000848897
0.000848259
0.000847327
0.000846373
0.000845048
0.000843817
0.000842122
0.000840696
0.000838643
0.000837157
0.000834733
0.00085179
0.000851359
0.000850997
0.000850602
0.000850288
0.000849929
0.000849632
0.000849257
0.000848923
0.00084846
0.000848039
0.000847428
0.000846895
0.00084611
0.000845475
0.000844505
0.0008438
0.000842646
0.000851787
0.000851363
0.000850987
0.000850603
0.000850267
0.000849919
0.000849619
0.000849295
0.000849018
0.000848695
0.000848419
0.00084807
0.000847776
0.00084738
0.000847055
0.0008466
0.000846242
0.000845724
0.000851783
0.000851365
0.000850979
0.000850602
0.000850254
0.000849912
0.000849599
0.000849287
0.000849005
0.000848716
0.000848457
0.000848184
0.000847941
0.000847677
0.000847442
0.00084718
0.000846947
0.000846684
0.000851781
0.000851365
0.000850974
0.000850599
0.000850246
0.000849907
0.000849587
0.000849279
0.000848989
0.000848707
0.000848443
0.000848185
0.000847944
0.000847708
0.000847486
0.000847269
0.000847064
0.000846864
0.00085178
0.000851364
0.00085097
0.000850595
0.00085024
0.0008499
0.000849579
0.000849271
0.000848979
0.000848699
0.000848432
0.000848178
0.000847935
0.000847703
0.000847482
0.000847272
0.000847071
0.00084688
0.000851779
0.000851363
0.000850967
0.000850592
0.000850235
0.000849895
0.000849572
0.000849265
0.000848972
0.000848693
0.000848427
0.000848173
0.000847931
0.000847701
0.000847481
0.000847272
0.000847073
0.000846884
0.000851779
0.000851362
0.000850965
0.000850589
0.000850231
0.000849892
0.000849568
0.000849261
0.000848968
0.00084869
0.000848425
0.000848172
0.000847931
0.000847702
0.000847484
0.000847277
0.00084708
0.000846893
0.000851779
0.000851362
0.000850965
0.000850588
0.00085023
0.000849891
0.000849568
0.000849261
0.000848969
0.000848692
0.000848428
0.000848176
0.000847937
0.00084771
0.000847494
0.000847289
0.000847093
0.000846908
0.000851779
0.000851362
0.000850965
0.000850589
0.000850232
0.000849893
0.000849572
0.000849266
0.000848976
0.000848699
0.000848437
0.000848187
0.000847951
0.000847724
0.00084751
0.000847306
0.000847113
0.000846929
0.000851779
0.000851363
0.000850966
0.000850592
0.000850236
0.000849899
0.000849578
0.000849275
0.000848985
0.000848712
0.000848448
0.000848201
0.00084796
0.000847734
0.000847512
0.000847305
0.000847098
0.000846909
0.000851777
0.000851366
0.000850968
0.000850599
0.000850242
0.000849911
0.000849587
0.000849285
0.000848981
0.000848694
0.000848395
0.000848112
0.000847807
0.000847519
0.000847201
0.000846907
0.000846572
0.000846273
0.000851773
0.000851376
0.00085097
0.000850615
0.000850243
0.000849895
0.000849488
0.000849069
0.000848553
0.000848012
0.000847349
0.000846669
0.000845853
0.000845049
0.000844095
0.000843203
0.000842131
0.000841196
0.000851767
0.000851415
0.000850963
0.00085055
0.000849865
0.000848977
0.000847631
0.000846009
0.000843959
0.000841715
0.000839068
0.000836366
0.000833318
0.000830371
0.000827088
0.000824079
0.000820668
0.000817754
0.000851858
0.00085138
0.000850195
0.000848249
0.000844481
0.000839391
0.000832822
0.000825752
0.000818104
0.000810208
0.000801889
0.000793977
0.000785779
0.000778256
0.000770415
0.000763498
0.000756067
0.000749889
0.000852107
0.000847668
0.000839908
0.000827159
0.000808762
0.000789729
0.000770124
0.000751615
0.000733598
0.000717267
0.000701422
0.000687373
0.000673564
0.000661538
0.00064941
0.000639132
0.000628334
0.000619589
0.000843243
0.00082251
0.000775222
0.000726495
0.00068501
0.000649991
0.000618688
0.000592305
0.000568774
0.000548784
0.000530293
0.000514687
0.000499613
0.000486997
0.000474353
0.000464011
0.000453124
0.000444488
0.000795697
0.000668256
0.000570691
0.000509981
0.00046575
0.000431349
0.000404375
0.000382767
0.000364546
0.000349496
0.000336421
0.000325622
0.000315223
0.000306957
0.000298831
0.000292341
0.000285425
0.00028018
0.000501316
0.000348374
0.000292707
0.000259217
0.000236419
0.000221226
0.000211726
0.00020397
0.000198679
0.000195199
0.000192342
0.000190497
0.000188712
0.000187581
0.000186308
0.000185602
0.000184682
0.000184252
7.27388e-05
7.02249e-05
6.79538e-05
6.56134e-05
6.33813e-05
6.12774e-05
5.94897e-05
5.79548e-05
5.67019e-05
5.56956e-05
5.49583e-05
5.43955e-05
5.40708e-05
5.38371e-05
5.38191e-05
5.3864e-05
5.39816e-05
5.41935e-05
1.20794e-05
0.000106183
0.000142135
0.000173181
0.000196656
4.17236e-05
4.44789e-05
0.000221469
4.63067e-05
4.52951e-05
4.9583e-05
4.53947e-05
4.28719e-05
4.2847e-05
4.57306e-05
0.000237508
0.000250417
0.00032723
0.000318113
0.000402579
6.36731e-05
5.47085e-05
5.24734e-05
5.25767e-05
5.39813e-05
5.62398e-05
5.88174e-05
6.18497e-05
6.5038e-05
6.8489e-05
7.19652e-05
7.54651e-05
7.88013e-05
8.20657e-05
8.51152e-05
8.80509e-05
9.0777e-05
9.33872e-05
9.5809e-05
9.81274e-05
0.000100284
0.000102354
0.000104288
0.000106154
0.000107908
0.00010961
0.000111221
0.000112794
0.000114293
0.000115766
0.000117179
0.000118576
0.000119923
0.000121261
0.000122559
0.000123854
0.000125115
0.000126376
0.000127607
0.000128842
0.00013005
0.000131261
0.000132446
0.000133635
0.000134799
0.000135963
0.0001371
0.000138235
0.000139341
0.000140438
0.000141504
0.000142554
0.00014357
0.00014456
0.00014551
0.000146424
0.00014729
0.000148112
0.000148879
0.000149598
0.000150348
0.000151053
0.00015171
0.000152315
0.000152851
0.000153372
0.000153812
0.000154192
0.000154646
0.000154798
0.000155522
0.000155008
0.000155204
0.000155094
0.000154945
0.000154731
0.000154381
0.000153929
0.000153368
0.000152702
0.000151927
0.000151044
0.000150043
0.000148893
0.000147617
0.000146257
0.000144818
0.000143282
0.000141662
0.00013996
0.000138187
0.000136347
0.00013447
0.000132676
0.000130719
0.000128592
0.000126474
0.00012434
0.000122207
0.000120073
0.000117937
0.000115819
0.000113731
0.000111297
0.000109246
0.000107725
0.000106344
0.000104999
0.000103689
0.000102402
0.000101151
9.99249e-05
9.87375e-05
9.75764e-05
9.64532e-05
9.53614e-05
9.4292e-05
9.32919e-05
9.22781e-05
9.12774e-05
9.03055e-05
8.93629e-05
8.84512e-05
8.75716e-05
8.67251e-05
8.59066e-05
8.51188e-05
8.43513e-05
8.36036e-05
8.2875e-05
8.21671e-05
8.14778e-05
8.08081e-05
8.01574e-05
7.95241e-05
7.89047e-05
7.82997e-05
7.7707e-05
7.71283e-05
7.65618e-05
7.60068e-05
7.54623e-05
7.49289e-05
7.44061e-05
7.38938e-05
7.33913e-05
7.2899e-05
7.24159e-05
7.19419e-05
7.1475e-05
7.10177e-05
7.05589e-05
7.01188e-05
6.9641e-05
6.92424e-05
6.86564e-05
6.83613e-05
6.74352e-05
6.79098e-05
6.4231e-05
2.30214e-05
8.23462e-05
0.000154216
0.000214878
0.000255953
0.000254999
0.000267757
0.000302555
0.000286594
0.000275439
0.000273138
0.00026154
0.000253097
0.00025564
0.000282139
0.000332777
0.000363009
0.000378496
0.000377941
0.000363814
0.000325753
0.000311779
0.000306386
0.000304748
0.000305499
0.00030856
0.000314452
0.000323317
0.000334822
0.000348999
0.000366417
0.000384745
0.000403557
0.000424638
0.000446028
0.000467751
0.000489436
0.000510851
0.000531776
0.000552049
0.000571541
0.00059017
0.00060789
0.000624682
0.000640564
0.000655562
0.000669734
0.000683131
0.000695834
0.000707905
0.000719434
0.000730484
0.000741146
0.000751484
0.000761592
0.000771528
0.000781387
0.000791219
0.000801118
0.000811125
0.00082132
0.000831738
0.000842464
0.000853525
0.000864999
0.000876899
0.000889294
0.000902185
0.000915632
0.000929624
0.000944211
0.000959362
0.000975101
0.000991354
0.00100808
0.00102513
0.00104236
0.00105947
0.00107621
0.00109216
0.00110701
0.00112197
0.00113712
0.00115236
0.0011677
0.00118303
0.00119816
0.00121305
0.00122759
0.00124254
0.00125688
0.00127186
0.0012833
0.00129498
0.00130403
0.001314
0.00132215
0.00132857
0.00133349
0.00133685
0.00133862
0.00133874
0.00133705
0.00133317
0.00132686
0.00131912
0.0013108
0.00130141
0.00129075
0.00127896
0.00126618
0.00125256
0.00123835
0.00122396
0.00120954
0.00119462
0.00117943
0.00116407
0.00114862
0.00113315
0.00111771
0.00110224
0.00108663
0.00106978
0.00105113
0.00103192
0.00101272
0.000993816
0.000975356
0.000957394
0.000939964
0.000923071
0.000906722
0.000890901
0.000875603
0.000860813
0.000846513
0.000832869
0.000819553
0.000806671
0.000794209
0.000782135
0.000770441
0.000759166
0.000748251
0.000737636
0.000727246
0.000716992
0.000706951
0.000697145
0.000687569
0.000678219
0.000669094
0.000660155
0.000651355
0.000642698
0.000634202
0.000625875
0.000617712
0.000609692
0.000601814
0.000594087
0.000586508
0.000579068
0.000571752
0.000564551
0.000557457
0.000550449
0.000543498
0.000536589
0.000529689
0.00052274
0.000515703
0.000508502
0.000501049
0.000493035
0.000484912
0.000473608
0.000452212
0.000406725
4.30322e-05
0.000130334
0.000229165
0.00031378
0.000381863
0.000432512
0.00046991
0.000497763
0.000511915
0.000516658
0.000516744
0.000513213
0.000509875
0.000510815
0.000518389
0.000526761
0.000534235
0.000539648
0.000542428
0.000542596
0.000541573
0.000545674
0.000554844
0.000568472
0.000586394
0.000608652
0.000635287
0.000666145
0.000700879
0.000739057
0.000779933
0.000823969
0.000871015
0.000916966
0.000962927
0.00100848
0.00105318
0.00109668
0.00113872
0.00117913
0.0012178
0.00125468
0.00128977
0.0013231
0.00135474
0.00138477
0.0014133
0.00144043
0.00146628
0.00149096
0.00151459
0.00153729
0.00155916
0.00158032
0.00160087
0.00162091
0.00164052
0.00165977
0.00167892
0.00169805
0.00171725
0.0017366
0.00175619
0.00177609
0.00179638
0.0018171
0.00183832
0.00186007
0.0018824
0.00190532
0.00192885
0.00195299
0.00197773
0.00200301
0.00202878
0.00205493
0.00208135
0.00210789
0.00213445
0.00216093
0.00218734
0.0022141
0.00224114
0.00226834
0.00229555
0.00232258
0.00234923
0.00237536
0.00240079
0.00242552
0.00244936
0.00247229
0.00249279
0.00251008
0.00252291
0.00253706
0.00255008
0.00255862
0.00256407
0.0025665
0.00256588
0.00256218
0.00255539
0.00254547
0.00253245
0.00251679
0.00249893
0.00247885
0.00245662
0.00243246
0.00240661
0.00237935
0.00235101
0.00232193
0.00229237
0.00226225
0.00223177
0.00220111
0.00217041
0.0021398
0.00210936
0.00207911
0.0020489
0.00201824
0.00198668
0.00195475
0.00192294
0.00189158
0.00186086
0.00183087
0.00180167
0.00177328
0.00174572
0.00171899
0.00169306
0.00166792
0.00164352
0.00162003
0.00159732
0.00157534
0.00155404
0.00153333
0.00151329
0.00149414
0.00147559
0.00145748
0.00143963
0.00142178
0.00140431
0.00138724
0.00137055
0.00135422
0.00133829
0.00132264
0.00130717
0.00129194
0.00127699
0.00126237
0.00124808
0.00123404
0.00122029
0.00120685
0.00119373
0.0011809
0.00116834
0.00115604
0.00114397
0.0011321
0.00112037
0.00110875
0.00109717
0.00108552
0.00107371
0.00106158
0.00104897
0.00103528
0.00102102
0.00100278
0.00098197
0.000928736
6.26163e-05
0.000182288
0.000307767
0.000412672
0.000496179
0.000560231
0.00060729
0.000640021
0.000660002
0.000669946
0.000672827
0.000671505
0.000668969
0.00066788
0.000669899
0.000675167
0.000683459
0.00069429
0.000707235
0.000722323
0.000740368
0.000762883
0.000790527
0.000823556
0.00086203
0.000905784
0.00095443
0.00100735
0.00106375
0.0011235
0.00118605
0.00125021
0.00131499
0.00137923
0.00144265
0.00150486
0.00156551
0.00162432
0.00168112
0.00173577
0.00178823
0.00183848
0.00188654
0.00193248
0.00197638
0.00201833
0.00205845
0.00209684
0.00213362
0.00216893
0.00220287
0.00223558
0.00226717
0.00229776
0.00232745
0.00235636
0.00238461
0.00241229
0.00243955
0.0024665
0.00249322
0.00251982
0.00254637
0.00257296
0.00259965
0.00262652
0.00265361
0.00268099
0.00270868
0.00273673
0.00276516
0.00279397
0.00282317
0.00285273
0.00288262
0.0029128
0.00294322
0.0029738
0.00300448
0.00303519
0.00306602
0.00309713
0.00312841
0.00315975
0.00319099
0.00322194
0.00325239
0.00328213
0.00331095
0.00333865
0.00336492
0.00338959
0.00341258
0.00343326
0.00344752
0.00346115
0.00347454
0.00348299
0.00348757
0.00348841
0.0034855
0.00347881
0.00346835
0.00345418
0.00343639
0.00341527
0.00339109
0.00336402
0.00333426
0.00330209
0.00326781
0.00323175
0.00319425
0.00315566
0.00311625
0.0030762
0.00303572
0.00299502
0.00295431
0.00291375
0.00287347
0.00283355
0.00279392
0.00275436
0.00271467
0.00267505
0.0026358
0.00259716
0.00255929
0.0025223
0.00248625
0.00245116
0.00241705
0.00238391
0.00235172
0.00232047
0.00229011
0.0022607
0.00223219
0.00220454
0.00217767
0.00215153
0.00212609
0.00210143
0.00207745
0.00205405
0.00203118
0.00200867
0.0019869
0.00196562
0.00194476
0.00192434
0.00190445
0.00188485
0.00186534
0.00184613
0.00182732
0.00180897
0.00179108
0.00177351
0.00175635
0.00173968
0.0017235
0.00170774
0.00169241
0.0016775
0.00166296
0.00164877
0.00163484
0.00162115
0.00160758
0.00159399
0.00158028
0.0015662
0.00155159
0.00153569
0.00151896
0.0014976
0.00147879
0.001424
8.17998e-05
0.000234163
0.000383153
0.000505245
0.000600311
0.000671793
0.000723625
0.000758677
0.000780203
0.000791554
0.000796151
0.000797336
0.000798148
0.000801048
0.000807671
0.000818797
0.000834615
0.000855023
0.000879915
0.000909415
0.000943943
0.000984034
0.00102998
0.00108179
0.00113922
0.0012018
0.00126889
0.00133979
0.00141381
0.00148991
0.00156707
0.00164462
0.00172184
0.00179811
0.00187307
0.00194638
0.00201779
0.00208711
0.0021542
0.00221898
0.00228141
0.00234149
0.00239924
0.00245471
0.00250798
0.00255912
0.00260823
0.00265541
0.00270077
0.00274441
0.00278644
0.00282697
0.00286611
0.00290398
0.00294066
0.00297627
0.0030109
0.00304464
0.00307757
0.00310981
0.00314146
0.00317262
0.00320337
0.00323377
0.0032639
0.00329383
0.00332362
0.00335332
0.00338298
0.00341265
0.00344236
0.00347215
0.00350204
0.00353205
0.00356219
0.00359246
0.00362286
0.0036534
0.00368403
0.00371474
0.00374556
0.00377651
0.00380753
0.0038385
0.00386928
0.00389969
0.00392955
0.00395862
0.00398668
0.0040135
0.0040388
0.00406227
0.00408348
0.0041037
0.00411986
0.0041306
0.00414232
0.00414944
0.00415249
0.00415158
0.00414667
0.00413776
0.00412485
0.004108
0.00408733
0.00406302
0.00403531
0.0040044
0.00397056
0.00393408
0.00389526
0.00385446
0.00381201
0.00376825
0.00372349
0.003678
0.00363203
0.00358582
0.00353959
0.00349354
0.00344783
0.00340256
0.00335776
0.00331337
0.00326934
0.00322575
0.00318275
0.00314049
0.00309908
0.00305861
0.00301913
0.00298066
0.00294321
0.00290678
0.00287136
0.00283691
0.0028034
0.00277083
0.00273916
0.00270836
0.00267835
0.00264909
0.00262054
0.00259269
0.00256551
0.00253892
0.00251295
0.00248736
0.00246231
0.00243777
0.0024137
0.00239015
0.00236736
0.00234505
0.00232312
0.00230167
0.00228073
0.00226037
0.00224058
0.00222106
0.00220209
0.00218379
0.00216613
0.00214898
0.00213241
0.00211642
0.00210093
0.00208593
0.00207133
0.00205716
0.00204327
0.00202949
0.00201566
0.00200152
0.00198687
0.00197098
0.00195406
0.0019328
0.00191486
0.00185561
0.000100174
0.000278442
0.000450346
0.000588978
0.000694943
0.000773641
0.00083043
0.000868653
0.000892649
0.00090655
0.000914334
0.000919671
0.00092569
0.000934785
0.000948542
0.000967838
0.000993051
0.00102429
0.00106159
0.00110499
0.00115452
0.00121014
0.00127165
0.00133865
0.00141058
0.00148677
0.00156647
0.0016489
0.00173327
0.00181876
0.00190464
0.00199033
0.00207532
0.00215918
0.00224158
0.00232227
0.00240104
0.00247773
0.00255222
0.00262444
0.00269433
0.00276189
0.00282712
0.00289005
0.00295071
0.00300917
0.00306549
0.00311974
0.00317201
0.00322237
0.00327091
0.00331773
0.00336291
0.00340653
0.00344869
0.00348948
0.00352899
0.0035673
0.00360451
0.00364068
0.00367587
0.00371012
0.00374352
0.00377612
0.00380798
0.00383917
0.00386975
0.00389976
0.00392927
0.00395833
0.003987
0.00401532
0.00404335
0.00407114
0.00409874
0.0041262
0.00415356
0.00418087
0.00420819
0.00423557
0.00426301
0.00429046
0.00431788
0.0043452
0.00437231
0.00439908
0.00442536
0.00445097
0.0044757
0.00449935
0.00452167
0.00454238
0.00456115
0.00457781
0.00459409
0.00460286
0.00461249
0.00461832
0.00462024
0.00461827
0.00461239
0.00460255
0.00458874
0.00457098
0.00454937
0.00452405
0.00449519
0.00446302
0.00442777
0.00438973
0.00434922
0.00430656
0.0042621
0.00421618
0.00416913
0.00412125
0.00407282
0.00402413
0.0039754
0.00392684
0.00387863
0.00383089
0.00378372
0.00373715
0.0036912
0.00364591
0.00360137
0.00355767
0.00351488
0.00347305
0.00343223
0.00339242
0.00335364
0.00331588
0.00327913
0.00324334
0.0032085
0.00317455
0.00314148
0.00310923
0.00307775
0.00304698
0.00301687
0.00298741
0.00295856
0.00293027
0.00290252
0.00287523
0.00284841
0.00282206
0.00279615
0.0027707
0.00274582
0.00272142
0.00269762
0.0026745
0.00265203
0.00263029
0.00260932
0.00258905
0.00256955
0.00255089
0.002533
0.0025156
0.00249891
0.00248296
0.00246759
0.00245285
0.00243863
0.00242499
0.00241168
0.00239861
0.00238559
0.00237237
0.00235867
0.00234389
0.00232795
0.0023084
0.00229075
0.00223785
0.000116997
0.000317765
0.000509933
0.000663692
0.000780438
0.000867184
0.000930291
0.000973622
0.0010023
0.00102098
0.00103398
0.00104516
0.00105771
0.00107405
0.0010958
0.00112391
0.00115884
0.00120069
0.00124941
0.00130476
0.00136642
0.00143395
0.0015068
0.00158436
0.00166592
0.0017508
0.00183826
0.00192761
0.00201817
0.00210931
0.0022005
0.00229127
0.00238122
0.00247002
0.00255741
0.00264317
0.00272711
0.00280909
0.002889
0.00296675
0.00304227
0.00311555
0.00318654
0.00325526
0.00332171
0.00338591
0.00344791
0.00350775
0.00356547
0.00362113
0.00367479
0.00372651
0.00377635
0.00382437
0.00387065
0.00391524
0.00395821
0.00399962
0.00403953
0.004078
0.00411507
0.0041508
0.00418524
0.00421844
0.00425046
0.00428135
0.00431119
0.00434002
0.0043679
0.00439491
0.0044211
0.00444655
0.00447132
0.0044955
0.00451916
0.00454236
0.0045652
0.00458775
0.00461007
0.00463224
0.00465429
0.00467624
0.00469809
0.00471982
0.00474139
0.00476274
0.00478377
0.00480436
0.00482436
0.0048436
0.00486189
0.00487899
0.00489463
0.00490856
0.00492119
0.00493041
0.00493726
0.00494247
0.00494385
0.00494162
0.00493574
0.00492612
0.00491271
0.00489548
0.00487447
0.00484977
0.00482152
0.00478991
0.00475513
0.00471746
0.00467717
0.0046346
0.00459007
0.00454394
0.00449654
0.00444823
0.00439932
0.00435008
0.00430076
0.00425158
0.00420272
0.00415433
0.00410655
0.00405944
0.00401307
0.0039675
0.00392278
0.00387897
0.0038361
0.00379421
0.00375332
0.00371344
0.00367456
0.00363669
0.0035998
0.00356386
0.00352883
0.00349466
0.00346132
0.00342875
0.00339688
0.00336568
0.00333508
0.00330507
0.00327559
0.00324663
0.00321815
0.0031901
0.00316248
0.00313528
0.00310848
0.00308209
0.00305617
0.00303069
0.00300571
0.00298129
0.00295765
0.00293492
0.0029132
0.00289246
0.00287271
0.00285398
0.00283623
0.00281933
0.00280335
0.00278826
0.00277371
0.00275992
0.00274676
0.00273422
0.00272215
0.00271044
0.00269888
0.00268719
0.00267507
0.00266197
0.00264763
0.00263029
0.00261312
0.00256817
0.000131574
0.000350928
0.000560379
0.000727885
0.000855434
0.00095109
0.001022
0.00107245
0.00110803
0.00113368
0.00115386
0.00117246
0.00119268
0.00121698
0.00124699
0.00128371
0.00132755
0.00137854
0.00143644
0.00150081
0.00157107
0.00164661
0.00172674
0.00181077
0.00189804
0.00198789
0.00207968
0.00217283
0.0022668
0.0023611
0.0024553
0.00254903
0.00264198
0.00273388
0.00282448
0.00291361
0.00300109
0.00308679
0.00317058
0.00325238
0.0033321
0.00340967
0.00348506
0.00355824
0.00362918
0.00369788
0.00376435
0.00382859
0.00389062
0.00395047
0.00400817
0.00406374
0.00411722
0.00416865
0.00421807
0.00426552
0.00431103
0.00435465
0.00439641
0.00443635
0.0044745
0.00451091
0.00454561
0.00457865
0.00461007
0.00463992
0.00466827
0.00469516
0.00472066
0.00474483
0.00476775
0.00478951
0.00481017
0.00482985
0.00484862
0.00486659
0.00488386
0.00490055
0.00491674
0.00493256
0.00494808
0.00496338
0.00497852
0.00499355
0.0050085
0.00502337
0.00503814
0.00505277
0.00506718
0.00508126
0.00509487
0.00510781
0.00511986
0.00513072
0.00514008
0.00514869
0.00515441
0.00515879
0.00516007
0.00515824
0.00515317
0.00514471
0.00513275
0.00511718
0.00509798
0.00507518
0.00504887
0.00501919
0.00498628
0.00495036
0.00491169
0.00487058
0.00482734
0.00478235
0.00473596
0.00468853
0.00464041
0.0045919
0.00454324
0.00449466
0.00444635
0.00439846
0.00435116
0.00430454
0.00425871
0.00421374
0.00416968
0.00412657
0.00408442
0.00404326
0.00400308
0.0039639
0.0039257
0.00388847
0.0038522
0.00381685
0.00378237
0.00374873
0.00371585
0.00368369
0.00365218
0.00362127
0.00359091
0.00356106
0.00353168
0.00350275
0.00347424
0.00344613
0.00341839
0.00339102
0.00336401
0.00333737
0.00331112
0.00328528
0.00325989
0.00323499
0.00321071
0.0031873
0.00316516
0.00314427
0.00312456
0.00310601
0.0030886
0.00307225
0.00305699
0.0030428
0.00302953
0.00301721
0.00300557
0.00299458
0.00298415
0.00297414
0.00296435
0.00295447
0.00294416
0.00293293
0.00292038
0.00290525
0.0028888
0.00285108
0.000143206
0.000376748
0.000600278
0.000779993
0.000918109
0.00102325
0.00110309
0.00116222
0.00120646
0.00124082
0.00126971
0.00129696
0.00132567
0.00135823
0.00139628
0.00144075
0.00149204
0.00155011
0.00161461
0.00168502
0.00176069
0.00184096
0.00192515
0.00201262
0.00210273
0.00219493
0.00228867
0.00238348
0.00247893
0.00257462
0.0026702
0.00276536
0.00285986
0.00295344
0.00304591
0.00313709
0.00322684
0.003315
0.00340146
0.00348611
0.00356885
0.0036496
0.00372829
0.00380486
0.00387925
0.00395144
0.00402141
0.00408914
0.00415461
0.00421781
0.00427875
0.00433743
0.00439384
0.00444802
0.00449995
0.00454967
0.00459718
0.0046425
0.00468565
0.00472663
0.00476547
0.0048022
0.00483683
0.00486939
0.00489993
0.00492846
0.00495505
0.00497973
0.00500258
0.00502365
0.00504302
0.00506077
0.005077
0.00509181
0.00510531
0.00511761
0.00512886
0.00513917
0.00514871
0.00515761
0.005166
0.00517404
0.00518184
0.00518951
0.00519717
0.00520489
0.00521273
0.00522073
0.00522889
0.0052372
0.00524559
0.00525392
0.00526201
0.00526961
0.00527643
0.0052831
0.00528792
0.00529178
0.00529331
0.00529236
0.0052887
0.00528212
0.00527241
0.00525939
0.00524294
0.00522304
0.00519973
0.00517308
0.00514316
0.00511013
0.0050742
0.00503566
0.00499481
0.00495199
0.0049076
0.00486201
0.00481562
0.00476875
0.00472165
0.00467453
0.00462758
0.00458098
0.00453489
0.00448944
0.00444478
0.00440099
0.00435814
0.00431626
0.00427535
0.00423542
0.00419646
0.00415846
0.00412142
0.00408533
0.00405017
0.0040159
0.00398248
0.00394984
0.00391794
0.00388669
0.00385605
0.00382593
0.0037963
0.00376712
0.00373834
0.00370996
0.00368193
0.00365425
0.00362689
0.00359986
0.00357314
0.00354675
0.00352071
0.00349505
0.0034698
0.003445
0.00342077
0.00339727
0.00337507
0.00335436
0.00333498
0.00331685
0.00329996
0.00328428
0.0032698
0.00325651
0.00324436
0.00323333
0.00322328
0.00321414
0.00320558
0.00319747
0.00318959
0.00318158
0.00317309
0.00316367
0.00315281
0.0031396
0.00312395
0.00309163
0.000151456
0.000394596
0.000628826
0.000818935
0.000966963
0.00108174
0.00117108
0.00123981
0.00129378
0.0013379
0.00137642
0.00141297
0.00145047
0.00149118
0.00153664
0.00158777
0.00164494
0.00170811
0.00177695
0.00185098
0.00192959
0.00201216
0.0020981
0.00218681
0.00227775
0.00237044
0.00246443
0.00255932
0.00265482
0.00275058
0.00284631
0.00294174
0.00303664
0.0031308
0.00322405
0.00331622
0.00340716
0.00349675
0.00358486
0.00367139
0.00375621
0.00383924
0.00392033
0.00399941
0.00407642
0.0041513
0.004224
0.0042945
0.00436274
0.00442868
0.00449229
0.00455354
0.00461242
0.0046689
0.00472298
0.00477465
0.00482389
0.00487069
0.00491504
0.00495694
0.00499638
0.00503337
0.00506791
0.00510001
0.00512969
0.00515696
0.00518187
0.00520444
0.00522473
0.00524279
0.00525869
0.00527253
0.00528438
0.00529436
0.00530259
0.00530921
0.00531436
0.00531821
0.00532094
0.00532274
0.0053238
0.0053243
0.00532443
0.00532437
0.0053243
0.00532438
0.00532475
0.00532555
0.00532688
0.00532882
0.00533139
0.00533455
0.0053382
0.00534212
0.00534609
0.00535044
0.00535418
0.0053576
0.00535952
0.00535969
0.00535779
0.00535359
0.00534675
0.00533697
0.005324
0.00530779
0.00528836
0.00526572
0.0052398
0.00521067
0.00517852
0.00514358
0.00510607
0.00506633
0.00502477
0.0049818
0.0049379
0.00489342
0.00484858
0.0048036
0.00475867
0.00471395
0.00466961
0.00462584
0.00458279
0.00454061
0.00449938
0.00445911
0.00441982
0.00438149
0.00434409
0.00430763
0.00427209
0.00423748
0.00420377
0.00417093
0.00413891
0.00410764
0.00407707
0.00404711
0.00401769
0.00398874
0.00396021
0.00393207
0.00390428
0.00387682
0.00384966
0.00382279
0.0037962
0.00376989
0.00374386
0.00371811
0.00369269
0.00366762
0.00364294
0.00361871
0.00359502
0.00357204
0.0035503
0.00353015
0.00351138
0.00349392
0.00347774
0.00346284
0.00344921
0.00343687
0.00342579
0.00341595
0.00340725
0.00339964
0.0033929
0.00338679
0.00338083
0.00337461
0.00336779
0.00335993
0.00335052
0.00333877
0.00332379
0.00329545
0.00015612
0.000404322
0.000645792
0.0008442
0.00100104
0.00112512
0.0012241
0.00130274
0.00136678
0.00142095
0.00146928
0.00151513
0.00156122
0.00160961
0.00166172
0.00171844
0.00178014
0.00184685
0.00191834
0.0019942
0.00207396
0.00215711
0.00224315
0.00233158
0.00242193
0.00251375
0.00260663
0.00270016
0.00279456
0.00288941
0.00298435
0.00307912
0.00317351
0.00326734
0.00336045
0.0034527
0.00354394
0.00363406
0.00372294
0.00381048
0.0038966
0.00398124
0.00406404
0.0041449
0.0042238
0.00430068
0.00437549
0.00444819
0.00451869
0.0045869
0.00465276
0.00471622
0.00477724
0.00483577
0.0048918
0.00494527
0.00499614
0.00504438
0.00508996
0.00513283
0.00517299
0.0052104
0.00524504
0.00527691
0.005306
0.00533231
0.00535584
0.00537663
0.00539471
0.00541012
0.00542292
0.00543318
0.005441
0.00544648
0.00544974
0.00545094
0.00545023
0.00544781
0.00544387
0.00543866
0.0054324
0.00542534
0.00541772
0.00540976
0.0054017
0.00539378
0.00538625
0.00537932
0.00537322
0.00536815
0.00536422
0.00536154
0.00536014
0.00535976
0.00536026
0.00536175
0.00536349
0.00536547
0.00536712
0.00536808
0.00536783
0.0053663
0.00536297
0.00535742
0.00534909
0.00533796
0.0053237
0.00530606
0.00528509
0.00526086
0.00523346
0.00520317
0.00516993
0.00513413
0.00509617
0.00505647
0.0050157
0.00497431
0.0049324
0.00489018
0.00484783
0.00480553
0.00476342
0.00472174
0.00468068
0.00464047
0.00460119
0.00456287
0.00452552
0.00448908
0.00445354
0.00441888
0.00438511
0.00435224
0.00432026
0.00428912
0.00425878
0.00422917
0.00420022
0.00417184
0.00414394
0.00411645
0.00408932
0.00406252
0.00403601
0.00400978
0.0039838
0.00395806
0.00393255
0.00390728
0.00388224
0.00385747
0.003833
0.00380886
0.00378512
0.00376183
0.0037391
0.00371712
0.00369641
0.00367719
0.00365931
0.00364273
0.00362745
0.00361346
0.0036008
0.00358946
0.00357945
0.00357074
0.00356327
0.00355698
0.0035517
0.00354722
0.00354311
0.00353848
0.00353304
0.00352643
0.00351808
0.00350728
0.00349265
0.00346699
0.00015727
0.000406747
0.000652181
0.000856751
0.00102125
0.00115416
0.00126224
0.00135006
0.00142353
0.00148713
0.0015446
0.00159905
0.00165303
0.00170858
0.00176665
0.00182806
0.00189325
0.00196236
0.00203526
0.00211169
0.00219124
0.00227348
0.00235848
0.00244567
0.00253456
0.00262472
0.00271574
0.00280719
0.00289947
0.00299219
0.00308513
0.0031781
0.00327093
0.00336346
0.00345556
0.00354709
0.00363793
0.00372794
0.00381702
0.00390503
0.00399189
0.00407748
0.00416113
0.00424302
0.00432312
0.00440138
0.00447774
0.00455213
0.00462455
0.00469471
0.00476249
0.00482787
0.00489078
0.00495122
0.00500909
0.00506433
0.00511686
0.00516663
0.00521357
0.00525762
0.00529873
0.00533684
0.00537193
0.00540394
0.00543285
0.00545863
0.00548128
0.00550079
0.00551718
0.00553047
0.00554071
0.00554796
0.00555229
0.0055538
0.00555261
0.00554887
0.00554274
0.00553444
0.0055242
0.00551227
0.00549895
0.00548451