/*--------------------------------*- C++ -*----------------------------------*\
  =========                 |
  \\      /  F ield         | OpenFOAM: The Open Source CFD Toolbox
   \\    /   O peration     | Website:  https://openfoam.org
    \\  /    A nd           | Version:  9
     \\/     M anipulation  |
\*---------------------------------------------------------------------------*/
FoamFile
{
    format      ascii;
    class       volScalarField;
    location    "70";
    object      p;
}
// * * * * * * * * * * * * * * * * * * * * * * * * * * * * * * * * * * * * * //

dimensions      [0 2 -2 0 0 0 0];

internalField   nonuniform List<scalar> 
12225
(
-1.74116
-3.92793
-5.02357
-5.33771
-5.5113
-5.66943
-5.78727
-5.86812
-5.9278
-5.97278
-6.00477
-6.0281
-6.0418
-6.04311
-6.02714
-5.978
-5.91679
-5.68268
-4.90475
-5.67117
-5.82784
-5.72873
-5.70822
-5.76543
-5.82948
-5.88079
-5.92327
-5.9583
-5.9853
-6.00512
-6.01748
-6.0185
-6.00515
-5.96483
-5.91886
-5.80698
-5.3061
-5.28962
-5.41272
-5.48396
-5.571
-5.68084
-5.77498
-5.84529
-5.89969
-5.9429
-5.97634
-6.00121
-6.01791
-6.02327
-6.01604
-5.9893
-5.96367
-5.92351
-5.18445
-5.12594
-5.36266
-5.51462
-5.60875
-5.70469
-5.78952
-5.85498
-5.9063
-5.94792
-5.98108
-6.00638
-6.02404
-6.03178
-6.02974
-6.01586
-6.00745
-6.00487
-5.17459
-5.19713
-5.42083
-5.55641
-5.63218
-5.71386
-5.79246
-5.8558
-5.90627
-5.94783
-5.98173
-6.00832
-6.02788
-6.03923
-6.04353
-6.04186
-6.04746
-6.06733
-5.23325
-5.28038
-5.4507
-5.56819
-5.64191
-5.71963
-5.79541
-5.85797
-5.90845
-5.95031
-5.98501
-6.01305
-6.03489
-6.05029
-6.06092
-6.06946
-6.08586
-6.11801
-5.29453
-5.33709
-5.46829
-5.57806
-5.65458
-5.729
-5.8009
-5.86209
-5.91243
-5.9545
-5.98994
-6.01958
-6.04405
-6.06361
-6.08014
-6.09678
-6.1209
-6.15814
-5.34929
-5.38527
-5.49129
-5.59333
-5.66963
-5.73982
-5.80746
-5.86714
-5.91739
-5.95978
-5.99611
-6.02756
-6.05486
-6.07848
-6.10019
-6.12306
-6.15234
-6.19188
-5.40058
-5.43208
-5.51927
-5.61133
-5.68499
-5.75138
-5.81531
-5.87342
-5.9235
-5.96628
-6.00363
-6.03699
-6.06709
-6.09441
-6.12053
-6.14809
-6.18093
-6.22124
-5.44956
-5.47725
-5.54929
-5.63094
-5.70096
-5.76413
-5.82487
-5.88127
-5.93096
-5.97413
-6.01256
-6.04778
-6.08048
-6.11111
-6.14093
-6.17206
-6.20717
-6.24766
-5.49622
-5.52028
-5.58016
-5.65232
-5.71815
-5.77822
-5.83608
-5.89074
-5.93995
-5.9835
-6.02297
-6.05991
-6.09496
-6.12851
-6.16144
-6.19529
-6.23199
-6.27216
-5.53682
-5.55778
-5.60885
-5.67326
-5.735
-5.7922
-5.84755
-5.90066
-5.94944
-5.99338
-6.03374
-6.07197
-6.10886
-6.14463
-6.17998
-6.21584
-6.25352
-6.29353
-5.57492
-5.5933
-5.63729
-5.69469
-5.75244
-5.807
-5.85998
-5.91146
-5.95984
-6.00431
-6.04557
-6.08499
-6.12318
-6.16082
-6.19813
-6.23578
-6.27442
-6.31425
-5.61569
-5.63168
-5.66931
-5.71976
-5.77308
-5.82505
-5.87565
-5.92521
-5.97295
-6.01811
-6.06076
-6.10136
-6.14084
-6.17988
-6.21906
-6.2584
-6.29818
-6.33808
-5.65822
-5.67198
-5.70422
-5.74827
-5.79696
-5.84627
-5.89486
-5.94244
-5.98919
-6.03496
-6.07921
-6.12141
-6.16208
-6.20218
-6.24268
-6.28353
-6.32458
-6.36506
-5.70091
-5.71283
-5.74059
-5.77939
-5.82361
-5.87026
-5.91728
-5.9635
-6.00913
-6.05508
-6.10075
-6.14499
-6.18705
-6.22819
-6.26941
-6.31145
-6.35364
-6.39525
-5.74127
-5.75177
-5.77626
-5.81128
-5.85196
-5.89605
-5.94201
-5.98772
-6.03279
-6.07852
-6.12527
-6.17138
-6.21545
-6.25772
-6.2997
-6.3424
-6.38581
-6.42861
-5.77526
-5.78494
-5.80754
-5.84048
-5.8792
-5.92168
-5.96714
-6.01323
-6.05869
-6.10466
-6.15223
-6.19998
-6.24608
-6.28996
-6.33298
-6.37637
-6.4207
-6.46465
-5.79599
-5.80571
-5.82818
-5.86116
-5.90028
-5.94322
-5.9894
-6.03681
-6.08389
-6.13128
-6.18015
-6.22949
-6.27747
-6.32318
-6.36773
-6.41237
-6.45776
-6.50282
-5.79202
-5.80271
-5.82732
-5.86321
-5.90562
-5.95157
-6.00019
-6.04985
-6.09938
-6.14916
-6.20004
-6.25085
-6.3002
-6.34741
-6.39372
-6.43995
-6.48656
-6.53241
-5.7737
-5.78563
-5.81344
-5.85386
-5.90084
-5.95071
-6.00243
-6.05489
-6.10715
-6.15958
-6.2122
-6.26417
-6.31427
-6.36279
-6.41051
-6.45831
-6.50576
-6.55227
-5.74491
-5.75799
-5.79027
-5.83767
-5.89089
-5.94505
-5.99995
-6.05542
-6.11086
-6.16603
-6.22048
-6.27328
-6.32413
-6.37367
-6.42279
-6.47165
-6.51967
-6.56625
-5.70907
-5.72234
-5.75995
-5.81727
-5.87847
-5.93737
-5.99556
-6.05397
-6.11219
-6.16966
-6.22557
-6.27922
-6.33093
-6.38163
-6.432
-6.48167
-6.52996
-6.57646
-5.66874
-5.68118
-5.72637
-5.79481
-5.86294
-5.92709
-5.99046
-6.05285
-6.11351
-6.17234
-6.22895
-6.28312
-6.33554
-6.38722
-6.4384
-6.48852
-6.53683
-6.58328
-5.62415
-5.63112
-5.69753
-5.78008
-5.84798
-5.91343
-5.98245
-6.05009
-6.11383
-6.17422
-6.23163
-6.28639
-6.33947
-6.39179
-6.44333
-6.49344
-6.5415
-6.58794
-5.5824
-5.5475
-5.6606
-5.77657
-5.84544
-5.90771
-5.97735
-6.04647
-6.11135
-6.17265
-6.23077
-6.28623
-6.34011
-6.39311
-6.44497
-6.495
-6.54283
-6.58913
-5.59762
-5.44036
-5.57242
-5.73107
-5.82844
-5.90747
-5.98387
-6.054
-6.11846
-6.17928
-6.2368
-6.29171
-6.34528
-6.39819
-6.44981
-6.49931
-6.54646
-6.59214
-5.72136
-5.54264
-5.56082
-5.63674
-5.73172
-5.83893
-5.93745
-6.02068
-6.09427
-6.16201
-6.2244
-6.28251
-6.33853
-6.39364
-6.44707
-6.49777
-6.54574
-6.59243
-5.42903
-6.02113
-6.11448
-5.99472
-5.94675
-5.98144
-6.03606
-6.08889
-6.14273
-6.19783
-6.25133
-6.30264
-6.35353
-6.40499
-6.4557
-6.50396
-6.5494
-6.59462
-2.43993
-4.20489
-5.21274
-5.51698
-5.673
-5.82382
-5.94514
-6.03565
-6.11236
-6.18232
-6.24553
-6.30325
-6.35859
-6.41343
-6.4669
-6.51692
-6.56242
-6.60247
-7.94075
-7.91958
-7.90521
-7.91633
-7.93819
-7.96244
-7.98906
-8.01792
-8.04547
-8.07084
-8.09348
-8.11307
-8.1288
-8.14112
-8.15207
-8.16392
-8.17658
-8.18986
-8.20352
-8.21924
-8.23913
-8.26346
-8.29135
-8.32378
-8.36119
-8.40443
-8.45452
-8.51372
-8.58391
-8.66727
-8.76453
-8.87663
-9.00264
-9.14234
-9.29331
-9.4545
-9.6227
-9.79693
-9.97395
-10.1533
-10.3322
-10.5109
-10.687
-10.8613
-11.0319
-11.2
-11.3641
-11.5255
-11.6828
-11.8376
-11.9884
-12.1371
-12.2819
-12.4244
-12.5629
-12.6991
-12.8309
-12.9594
-13.0826
-13.2018
-13.3145
-13.4214
-13.52
-13.6113
-13.6926
-13.7648
-13.8252
-13.8745
-13.9098
-13.9312
-13.9356
-13.9227
-13.8894
-13.8348
-13.7553
-13.6491
-13.5123
-13.3426
-13.1365
-12.8922
-12.6073
-12.2807
-11.9106
-11.496
-11.0354
-10.5279
-9.97325
-9.37156
-8.7246
-8.03509
-7.30571
-6.53963
-5.74002
-4.91104
-4.05709
-3.18357
-2.2959
-1.40015
-0.502083
0.392166
1.27721
2.14761
2.99869
3.82595
4.62552
5.39413
6.1291
6.82853
7.49105
8.11601
8.70314
9.25282
9.76562
10.2426
10.685
11.0944
11.4723
11.8205
12.1408
12.4352
12.7057
12.954
13.1823
13.3925
13.5863
13.7645
13.928
14.0781
14.2158
14.3424
14.4588
14.5661
14.6651
14.7569
14.8421
14.9214
14.9951
15.0642
15.1291
15.1904
15.248
15.3026
15.3543
15.4034
15.45
15.4945
15.537
15.5778
15.6169
15.6542
15.6899
15.7242
15.7573
15.7894
15.8201
15.8492
15.8773
15.9043
15.9302
15.955
15.9786
16.0011
16.0225
16.0433
16.063
16.081
16.0986
16.1155
16.131
16.1465
16.1621
16.1765
16.1914
16.2088
16.2291
16.2564
16.2962
16.3533
16.4496
16.5776
-7.95352
-7.9443
-7.94373
-7.95888
-7.98307
-8.00963
-8.03611
-8.06041
-8.08289
-8.10341
-8.11935
-8.12947
-8.13488
-8.13778
-8.13858
-8.13895
-8.14094
-8.14627
-8.15495
-8.16633
-8.17929
-8.19468
-8.21431
-8.23987
-8.27123
-8.30864
-8.35434
-8.41124
-8.4818
-8.56813
-8.67094
-8.79037
-8.92494
-9.07301
-9.23166
-9.39896
-9.57191
-9.74896
-9.92754
-10.1068
-10.2848
-10.4614
-10.6352
-10.8064
-10.9741
-11.139
-11.3002
-11.4586
-11.6135
-11.7657
-11.9147
-12.0614
-12.2049
-12.3461
-12.4842
-12.62
-12.7522
-12.8815
-13.0066
-13.1278
-13.2437
-13.3542
-13.4576
-13.554
-13.6414
-13.7197
-13.7871
-13.8429
-13.8851
-13.9127
-13.9237
-13.9165
-13.889
-13.8393
-13.7649
-13.6638
-13.533
-13.3706
-13.1739
-12.9413
-12.6702
-12.3588
-12.005
-11.6073
-11.1644
-10.6752
-10.1392
-9.55622
-8.9279
-8.25621
-7.54399
-6.79377
-6.00878
-5.19275
-4.35011
-3.48591
-2.60563
-1.71513
-0.820262
0.0729402
0.958961
1.83224
2.68802
3.52141
4.32862
5.10589
5.85069
6.56062
7.23445
7.87102
8.4702
9.03193
9.55691
10.0459
10.5001
10.921
11.3101
11.6691
11.9997
12.3039
12.5834
12.8399
13.0751
13.2905
13.4885
13.6709
13.8386
13.9929
14.1348
14.2655
14.3857
14.4968
14.5996
14.6948
14.7832
14.8653
14.942
15.0139
15.0814
15.1449
15.2049
15.2615
15.315
15.3659
15.4143
15.4603
15.5045
15.5466
15.5866
15.625
15.6621
15.6978
15.7321
15.7648
15.7962
15.8264
15.8551
15.8828
15.9094
15.9349
15.9592
15.9823
16.0047
16.0258
16.0456
16.0648
16.0826
16.0996
16.1164
16.1321
16.147
16.1625
16.1788
16.1967
16.2184
16.2451
16.2815
16.3326
16.4218
16.5308
-7.98044
-7.97836
-7.98036
-7.99246
-8.0125
-8.03489
-8.05649
-8.0758
-8.09195
-8.10469
-8.11337
-8.11788
-8.11833
-8.11571
-8.1111
-8.10615
-8.10216
-8.10026
-8.10082
-8.10399
-8.11023
-8.12114
-8.13936
-8.16767
-8.2076
-8.25959
-8.32366
-8.40013
-8.48923
-8.59126
-8.70589
-8.83264
-8.97
-9.11663
-9.27056
-9.43057
-9.59461
-9.76165
-9.92994
-10.0989
-10.2671
-10.4344
-10.5997
-10.7633
-10.9244
-11.0832
-11.2394
-11.3932
-11.5444
-11.6933
-11.8397
-11.9839
-12.1256
-12.2652
-12.4022
-12.5368
-12.6686
-12.7976
-12.9231
-13.045
-13.1624
-13.2749
-13.3814
-13.4813
-13.5735
-13.6572
-13.7309
-13.7935
-13.8435
-13.8794
-13.8992
-13.9014
-13.8837
-13.844
-13.7802
-13.69
-13.571
-13.4212
-13.2381
-13.02
-12.7644
-12.4694
-12.1328
-11.753
-11.3285
-10.8582
-10.3414
-9.77804
-9.16888
-8.51602
-7.82173
-7.08829
-6.31893
-5.51686
-4.68674
-3.83307
-2.96159
-2.07765
-1.18748
-0.296696
0.588812
1.46362
2.32266
3.16093
3.9745
4.75935
5.51295
6.23253
6.91685
7.56439
8.175
8.74826
9.28491
9.78535
10.251
10.6829
11.083
11.4525
11.7937
12.1082
12.398
12.6645
12.9098
13.1354
13.3432
13.5346
13.711
13.8731
14.0225
14.16
14.2868
14.404
14.5124
14.6127
14.7058
14.7925
14.8734
14.9491
15.02
15.0867
15.1496
15.209
15.2651
15.3183
15.3689
15.417
15.4629
15.5067
15.5485
15.5887
15.6273
15.6643
15.6995
15.7333
15.7658
15.7971
15.8269
15.8555
15.8831
15.9094
15.9345
15.9584
15.9813
16.0029
16.0234
16.0431
16.0616
16.0792
16.0964
16.1127
16.1283
16.1446
16.1615
16.1796
16.201
16.227
16.2616
16.3077
16.3819
16.4552
-7.98826
-7.99787
-8.00463
-8.01521
-8.03082
-8.04792
-8.06388
-8.07756
-8.0881
-8.0951
-8.09827
-8.09783
-8.09414
-8.08813
-8.0809
-8.07403
-8.06882
-8.06652
-8.06787
-8.07385
-8.08538
-8.10405
-8.13171
-8.17038
-8.22126
-8.28483
-8.36072
-8.44851
-8.54741
-8.65687
-8.77594
-8.90394
-9.0396
-9.18211
-9.33001
-9.48253
-9.63814
-9.79619
-9.95536
-10.1153
-10.2749
-10.434
-10.5919
-10.7487
-10.9037
-11.0572
-11.2087
-11.3587
-11.5066
-11.6529
-11.7972
-11.9399
-12.0806
-12.2195
-12.3563
-12.4911
-12.6234
-12.7532
-12.88
-13.0035
-13.1229
-13.2378
-13.3474
-13.4509
-13.5473
-13.6357
-13.7148
-13.7835
-13.8401
-13.8833
-13.9111
-13.9218
-13.9133
-13.8836
-13.8302
-13.7511
-13.6438
-13.5061
-13.336
-13.131
-12.8891
-12.6079
-12.2855
-11.9199
-11.5098
-11.0539
-10.5513
-10.0018
-9.4062
-8.76596
-8.08337
-7.36073
-6.60059
-5.80666
-4.98299
-4.1346
-3.26664
-2.38493
-1.49531
-0.603708
0.284046
1.16238
2.0259
2.86978
3.68957
4.48164
5.24285
5.9708
6.66364
7.32017
7.93972
8.52213
9.06773
9.57719
10.0516
10.4923
10.9009
11.2791
11.6289
11.9519
12.25
12.5247
12.778
13.0113
13.2264
13.4246
13.6072
13.7754
13.9304
14.0732
14.205
14.3268
14.4394
14.5437
14.6406
14.7308
14.8149
14.8935
14.9672
15.0365
15.1018
15.1634
15.2216
15.2768
15.3292
15.3789
15.4263
15.4715
15.5148
15.5563
15.596
15.6338
15.6701
15.7049
15.7384
15.7706
15.8013
15.8307
15.8589
15.8859
15.9116
15.9361
15.9595
15.9817
16.0028
16.023
16.0421
16.0602
16.0776
16.0943
16.1105
16.127
16.1439
16.1619
16.1825
16.2072
16.2388
16.2781
16.335
16.3781
-7.94566
-7.96638
-7.98144
-7.99463
-8.00999
-8.02558
-8.03919
-8.05
-8.05755
-8.06176
-8.06265
-8.06074
-8.0567
-8.05164
-8.0467
-8.04334
-8.04288
-8.0467
-8.0558
-8.07131
-8.09414
-8.12542
-8.16605
-8.21708
-8.27895
-8.35197
-8.43574
-8.52991
-8.63356
-8.74607
-8.86632
-8.99363
-9.12677
-9.26507
-9.40737
-9.55312
-9.70117
-9.85118
-10.0021
-10.1537
-10.3053
-10.4567
-10.6074
-10.7574
-10.9063
-11.0544
-11.2012
-11.347
-11.4915
-11.635
-11.7772
-11.9183
-12.058
-12.1965
-12.3334
-12.4688
-12.6021
-12.7335
-12.8623
-12.9882
-13.1106
-13.2289
-13.3424
-13.4503
-13.5516
-13.6455
-13.7306
-13.8058
-13.8696
-13.9204
-13.9565
-13.9761
-13.9772
-13.9576
-13.9151
-13.8473
-13.7519
-13.6265
-13.4687
-13.2762
-13.0467
-12.7779
-12.4676
-12.1138
-11.715
-11.2698
-10.7774
-10.2374
-9.64994
-9.01724
-8.34052
-7.62262
-6.86566
-6.07358
-5.25019
-4.40087
-3.53058
-2.64551
-1.75131
-0.854236
0.039771
0.925012
1.79568
2.64717
3.47452
4.27451
5.0434
5.77928
6.47964
7.14383
7.77058
8.36029
8.91277
9.42924
9.91035
10.3579
10.7731
11.158
11.5139
11.8431
12.1468
12.4271
12.6853
12.9235
13.143
13.3454
13.5318
13.7038
13.8622
14.0085
14.1434
14.2681
14.3835
14.4905
14.5899
14.6824
14.7687
14.8494
14.925
14.9962
15.0632
15.1264
15.1862
15.2427
15.2964
15.3474
15.396
15.4424
15.4868
15.5291
15.5697
15.6084
15.6456
15.6813
15.7156
15.7484
15.7797
15.8098
15.8386
15.8661
15.8923
15.9173
15.9412
15.964
15.9856
16.0062
16.0256
16.0441
16.0617
16.0786
16.095
16.1114
16.128
16.1455
16.165
16.1875
16.2149
16.2462
16.2874
16.3062
-7.85365
-7.88772
-7.91599
-7.93565
-7.95373
-7.97029
-7.98388
-7.99406
-8.00084
-8.00461
-8.00586
-8.00541
-8.00424
-8.00354
-8.00456
-8.0086
-8.01691
-8.03069
-8.05096
-8.07868
-8.11448
-8.15909
-8.21283
-8.27607
-8.3487
-8.43072
-8.52152
-8.62076
-8.72753
-8.84133
-8.96115
-9.08647
-9.21626
-9.35005
-9.48685
-9.62638
-9.76769
-9.91062
-10.0544
-10.1989
-10.3435
-10.4883
-10.6327
-10.777
-10.9206
-11.064
-11.2066
-11.3488
-11.4902
-11.6313
-11.7716
-11.9115
-12.0505
-12.1889
-12.3262
-12.4626
-12.5975
-12.731
-12.8624
-12.9915
-13.1176
-13.2402
-13.3584
-13.4717
-13.5789
-13.6791
-13.7711
-13.8537
-13.9254
-13.9847
-14.0299
-14.0591
-14.0703
-14.0614
-14.0301
-13.9739
-13.8905
-13.7773
-13.6319
-13.4517
-13.2343
-12.9771
-12.678
-12.3349
-11.9459
-11.5097
-11.0252
-10.4918
-9.91009
-9.28083
-8.60686
-7.88953
-7.13185
-6.33712
-5.50988
-4.655
-3.77821
-2.88535
-1.98264
-1.07637
-0.172723
0.722105
1.60255
2.46327
3.2999
4.10847
4.88587
5.62945
6.3374
7.00843
7.64193
8.23781
8.79646
9.31871
9.80567
10.2587
10.6792
11.069
11.4298
11.7633
12.0711
12.3551
12.6168
12.8581
13.0805
13.2855
13.4745
13.6488
13.8095
13.9579
14.0949
14.2215
14.3388
14.4476
14.5487
14.6428
14.7306
14.8128
14.8899
14.9623
15.0306
15.095
15.1559
15.2135
15.2682
15.3202
15.3698
15.4171
15.4623
15.5055
15.5468
15.5864
15.6244
15.6608
15.6957
15.7291
15.761
15.7916
15.8209
15.849
15.8757
15.9013
15.9256
15.9488
15.9708
15.9917
16.0115
16.0302
16.048
16.0651
16.0815
16.0976
16.1137
16.1303
16.1483
16.1681
16.1906
16.2138
16.2412
16.24
-7.72933
-7.77727
-7.82042
-7.8486
-7.87118
-7.89032
-7.90564
-7.91724
-7.92551
-7.93128
-7.93547
-7.93919
-7.94361
-7.94996
-7.95942
-7.97313
-7.99214
-8.01739
-8.04963
-8.08955
-8.13756
-8.19399
-8.25881
-8.33208
-8.41336
-8.50246
-8.59867
-8.70167
-8.81056
-8.92498
-9.04402
-9.16734
-9.29403
-9.42388
-9.55605
-9.6904
-9.82619
-9.96341
-10.1014
-10.2401
-10.3792
-10.5187
-10.6581
-10.7978
-10.9373
-11.0769
-11.2163
-11.3558
-11.4951
-11.6345
-11.7737
-11.913
-12.0519
-12.1908
-12.3292
-12.4673
-12.6044
-12.7406
-12.8753
-13.0083
-13.1388
-13.2663
-13.3901
-13.5095
-13.6233
-13.7307
-13.8304
-13.9212
-14.0016
-14.0702
-14.1251
-14.1645
-14.1864
-14.1887
-14.1689
-14.1247
-14.0534
-13.9525
-13.8194
-13.6514
-13.4458
-13.2
-12.9116
-12.5784
-12.1984
-11.77
-11.2919
-10.7637
-10.185
-9.55788
-8.88368
-8.16442
-7.40312
-6.6029
-5.76867
-4.9052
-4.01874
-3.11511
-2.20097
-1.28288
-0.367259
0.539211
1.43107
2.30246
3.14942
3.96736
4.75373
5.50529
6.2209
6.89872
7.53883
8.14065
8.70518
9.23266
9.72462
10.182
10.6069
11.0005
11.3649
11.7016
12.0124
12.2989
12.5632
12.8065
13.031
13.2378
13.4286
13.6044
13.7667
13.9164
14.0549
14.1828
14.3015
14.4115
14.5138
14.609
14.698
14.7812
14.8593
14.9328
15.002
15.0673
15.1291
15.1876
15.2431
15.2959
15.3463
15.3943
15.4402
15.4841
15.5262
15.5665
15.6052
15.6422
15.6777
15.7117
15.7443
15.7754
15.8053
15.8338
15.8611
15.8871
15.9119
15.9355
15.9579
15.9791
15.9991
16.0181
16.0361
16.0532
16.0695
16.0853
16.1007
16.1162
16.1323
16.1489
16.1664
16.1819
16.1974
16.1799
-7.59627
-7.65528
-7.71183
-7.74843
-7.77613
-7.79876
-7.81695
-7.83142
-7.8429
-7.85253
-7.86153
-7.87117
-7.88273
-7.89735
-7.91614
-7.94
-7.96978
-8.00607
-8.04944
-8.10021
-8.15853
-8.22451
-8.29796
-8.37872
-8.4663
-8.56042
-8.66033
-8.76574
-8.87581
-8.9903
-9.10835
-9.2298
-9.35389
-9.48049
-9.60891
-9.73917
-9.87061
-10.0033
-10.1368
-10.2711
-10.4059
-10.5413
-10.677
-10.8133
-10.9497
-11.0867
-11.224
-11.3618
-11.4998
-11.6385
-11.7775
-11.9171
-12.0569
-12.1971
-12.3374
-12.4778
-12.6179
-12.7576
-12.8963
-13.0338
-13.1695
-13.3027
-13.4328
-13.5589
-13.6801
-13.7954
-13.9035
-14.0032
-14.093
-14.1714
-14.2366
-14.2869
-14.32
-14.3339
-14.326
-14.294
-14.2351
-14.1466
-14.0258
-13.8699
-13.676
-13.4414
-13.1634
-12.8396
-12.4678
-12.0464
-11.5739
-11.0493
-10.4729
-9.84547
-9.16933
-8.4464
-7.67908
-6.87132
-6.02753
-5.15333
-4.25468
-3.33812
-2.41044
-1.47855
-0.549498
0.370255
1.27442
2.15777
3.0155
3.84376
4.63922
5.39946
6.12268
6.80784
7.45437
8.06226
8.63195
9.16422
9.66025
10.1215
10.5496
10.9463
11.3133
11.6524
11.9653
12.2537
12.5196
12.7646
12.9904
13.1984
13.3903
13.5673
13.7306
13.8813
14.0207
14.1496
14.2692
14.3801
14.4832
14.5794
14.6691
14.7532
14.8321
14.9064
14.9763
15.0424
15.1048
15.164
15.2203
15.2738
15.3248
15.3734
15.42
15.4645
15.5072
15.5481
15.5874
15.625
15.6611
15.6958
15.7289
15.7607
15.7911
15.8202
15.848
15.8745
15.8997
15.9237
15.9465
15.968
15.9884
16.0075
16.0256
16.0427
16.0588
16.0741
16.0888
16.103
16.1169
16.1301
16.1426
16.1509
16.1564
16.1257
-7.47545
-7.54074
-7.60697
-7.65038
-7.68281
-7.70897
-7.73031
-7.74815
-7.76358
-7.77786
-7.79233
-7.80829
-7.82701
-7.84956
-7.87693
-7.90979
-7.94883
-7.99438
-8.04678
-8.10612
-8.17244
-8.24562
-8.32536
-8.41144
-8.50329
-8.60063
-8.70277
-8.80947
-8.91996
-9.03408
-9.15107
-9.27086
-9.39275
-9.51676
-9.64227
-9.76936
-9.89751
-10.0269
-10.157
-10.2881
-10.4198
-10.5523
-10.6854
-10.8193
-10.9538
-11.0893
-11.2254
-11.3625
-11.5003
-11.6392
-11.7788
-11.9195
-12.061
-12.2033
-12.3463
-12.4899
-12.6336
-12.7776
-12.921
-13.0639
-13.2053
-13.3449
-13.4819
-13.6154
-13.7445
-13.8683
-13.9854
-14.0945
-14.1943
-14.2831
-14.3592
-14.4207
-14.4655
-14.4913
-14.4957
-14.4761
-14.4298
-14.3539
-14.2455
-14.1017
-13.9194
-13.6958
-13.428
-13.1133
-12.7493
-12.3342
-11.8664
-11.3448
-10.7688
-10.1406
-9.4609
-8.73255
-7.95765
-7.1404
-6.28533
-5.39846
-4.48591
-3.55468
-2.61199
-1.66501
-0.721367
0.212556
1.12991
2.02587
2.89501
3.73405
4.53907
5.30837
6.03946
6.7319
7.38453
7.998
8.57225
9.10866
9.60807
10.0724
10.5031
10.9022
11.2711
11.6119
11.9261
12.2159
12.4829
12.729
12.9556
13.1646
13.3572
13.5349
13.6988
13.8504
13.9904
14.1201
14.2402
14.3518
14.4556
14.5524
14.6428
14.7276
14.8071
14.882
14.9526
15.0192
15.0823
15.1421
15.199
15.2531
15.3047
15.354
15.4011
15.4462
15.4895
15.5309
15.5708
15.609
15.6457
15.6809
15.7146
15.747
15.778
15.8077
15.836
15.863
15.8888
15.9132
15.9364
15.9583
15.9789
15.9983
16.0164
16.0334
16.0493
16.0641
16.0779
16.0906
16.1022
16.112
16.1196
16.1212
16.1181
16.0769
-7.37962
-7.44649
-7.51792
-7.56516
-7.60068
-7.62967
-7.65386
-7.6749
-7.69413
-7.71286
-7.73239
-7.75397
-7.77881
-7.80785
-7.84199
-7.88174
-7.92766
-7.97992
-8.03875
-8.10408
-8.17582
-8.25375
-8.33755
-8.42689
-8.52126
-8.6204
-8.72364
-8.83081
-8.94118
-9.05467
-9.17056
-9.28888
-9.40899
-9.53097
-9.65426
-9.77904
-9.90482
-10.0318
-10.1597
-10.2886
-10.4182
-10.549
-10.6805
-10.8132
-10.9468
-11.0817
-11.2176
-11.3549
-11.4933
-11.6332
-11.7744
-11.917
-12.0609
-12.2062
-12.3526
-12.5
-12.6482
-12.797
-12.9459
-13.0946
-13.2424
-13.389
-13.5333
-13.6748
-13.8124
-13.945
-14.0715
-14.1906
-14.3007
-14.4003
-14.4876
-14.5606
-14.6173
-14.6553
-14.6722
-14.6652
-14.6315
-14.5683
-14.4723
-14.3407
-14.17
-13.9573
-13.6994
-13.3934
-13.0369
-12.6276
-12.1637
-11.644
-11.0684
-10.4372
-9.75342
-9.01814
-8.23444
-7.40612
-6.53849
-5.63747
-4.70982
-3.76284
-2.80409
-1.84144
-0.882304
0.0660469
0.997406
1.90606
2.7874
3.6372
4.45229
5.23013
5.96905
6.66793
7.32636
7.94448
8.52283
9.06247
9.56478
10.0314
10.4642
10.8648
11.2351
11.577
11.8922
12.1828
12.4505
12.6972
12.9245
13.1341
13.3272
13.5054
13.6699
13.8219
13.9624
14.0926
14.2133
14.3254
14.4297
14.5271
14.6181
14.7034
14.7835
14.8589
14.9301
14.9973
15.0609
15.1213
15.1787
15.2334
15.2855
15.3354
15.3831
15.4287
15.4726
15.5146
15.555
15.5937
15.631
15.6668
15.7012
15.7341
15.7657
15.796
15.8249
15.8525
15.8787
15.9037
15.9273
15.9495
15.9705
15.9901
16.0083
16.0252
16.0408
16.055
16.0678
16.0789
16.0882
16.0947
16.0977
16.093
16.0825
16.0327
-7.3139
-7.3795
-7.44973
-7.4979
-7.53441
-7.56481
-7.59098
-7.61447
-7.63667
-7.65885
-7.68228
-7.70807
-7.73736
-7.77094
-7.80965
-7.85388
-7.90414
-7.96049
-8.0231
-8.09182
-8.16655
-8.24699
-8.33279
-8.42366
-8.51909
-8.61883
-8.72225
-8.8292
-8.93902
-9.05166
-9.16647
-9.28352
-9.40218
-9.52261
-9.64432
-9.76748
-9.89167
-10.0172
-10.1436
-10.2713
-10.3999
-10.5298
-10.6607
-10.7932
-10.9268
-11.062
-11.1986
-11.3369
-11.4768
-11.6186
-11.7619
-11.9073
-12.0543
-12.2032
-12.3536
-12.5056
-12.6587
-12.8129
-12.9677
-13.1228
-13.2775
-13.4314
-13.5836
-13.7334
-13.8798
-14.0217
-14.1579
-14.2871
-14.4078
-14.5184
-14.617
-14.7017
-14.7704
-14.8206
-14.8499
-14.8555
-14.8344
-14.7837
-14.7001
-14.5803
-14.421
-14.2189
-13.9705
-13.6728
-13.323
-12.9188
-12.4582
-11.9398
-11.3628
-10.7289
-10.0393
-9.29621
-8.5026
-7.66237
-6.78123
-5.86534
-4.92191
-3.95871
-2.98361
-2.00505
-1.0303
-0.0672293
0.878288
1.79978
2.69309
3.5533
4.37788
5.16364
5.90961
6.61413
7.27752
7.89942
8.48107
9.02318
9.52771
9.99598
10.4302
10.8318
11.203
11.5453
11.8612
12.1522
12.4205
12.6675
12.8953
13.1051
13.2987
13.4772
13.6422
13.7945
13.9355
14.0661
14.1873
14.2998
14.4047
14.5025
14.5941
14.6799
14.7606
14.8365
14.9082
14.976
15.0401
15.1011
15.159
15.2142
15.2669
15.3173
15.3656
15.4118
15.4562
15.4988
15.5397
15.5791
15.6169
15.6533
15.6883
15.7219
15.7541
15.785
15.8145
15.8426
15.8694
15.8949
15.9189
15.9416
15.9629
15.9827
16.001
16.0179
16.0331
16.0467
16.0584
16.068
16.0749
16.0782
16.0768
16.0665
16.0495
15.9926
-7.27843
-7.34007
-7.40397
-7.44976
-7.48518
-7.51523
-7.54177
-7.56623
-7.58991
-7.61403
-7.63973
-7.66796
-7.69975
-7.73579
-7.77684
-7.82325
-7.87548
-7.93356
-7.99765
-8.06757
-8.14321
-8.22427
-8.31044
-8.40141
-8.4967
-8.59606
-8.6989
-8.80509
-8.91401
-9.02564
-9.13935
-9.25525
-9.37277
-9.49207
-9.61267
-9.73483
-9.85812
-9.98283
-10.1086
-10.2359
-10.3643
-10.4943
-10.6255
-10.7585
-10.8929
-11.0292
-11.1673
-11.3074
-11.4494
-11.5937
-11.7401
-11.8888
-12.0395
-12.1925
-12.3474
-12.5044
-12.663
-12.8231
-12.9842
-13.146
-13.3079
-13.4695
-13.6297
-13.7881
-13.9434
-14.0947
-14.2407
-14.3801
-14.5114
-14.6329
-14.7428
-14.839
-14.9194
-14.9816
-15.023
-15.0408
-15.0319
-14.9932
-14.9214
-14.8131
-14.6646
-14.4723
-14.2328
-13.9426
-13.5989
-13.199
-12.741
-12.2229
-11.6444
-11.0062
-10.3106
-9.55931
-8.75524
-7.90294
-7.00805
-6.0773
-5.11819
-4.13874
-3.14753
-2.15283
-1.16291
-0.185028
0.773878
1.70804
2.61225
3.48241
4.31515
5.10815
5.85976
6.56918
7.23618
7.86114
8.44493
8.9889
9.49471
9.96407
10.3989
10.801
11.1725
11.5152
11.8312
12.1225
12.3909
12.6382
12.8662
13.0764
13.2703
13.4491
13.6144
13.7672
13.9086
14.0396
14.1612
14.2743
14.3796
14.478
14.5701
14.6565
14.7377
14.8142
14.8865
14.9548
15.0195
15.081
15.1395
15.1953
15.2486
15.2996
15.3484
15.3952
15.4402
15.4834
15.5249
15.5649
15.6033
15.6403
15.6759
15.7101
15.743
15.7745
15.8046
15.8333
15.8607
15.8867
15.9112
15.9343
15.9559
15.976
15.9945
16.0112
16.0261
16.0391
16.0497
16.0577
16.0623
16.0625
16.0571
16.0418
16.0191
15.9562
-7.26728
-7.3221
-7.37662
-7.41757
-7.45016
-7.47819
-7.50337
-7.52706
-7.55044
-7.57465
-7.60076
-7.62957
-7.66198
-7.69855
-7.74002
-7.78665
-7.83894
-7.89687
-7.96066
-8.03008
-8.10509
-8.18539
-8.2707
-8.36072
-8.45498
-8.55326
-8.65498
-8.76003
-8.8678
-8.97832
-9.09097
-9.20589
-9.3225
-9.44102
-9.56096
-9.68257
-9.80547
-9.92998
-10.0558
-10.1832
-10.3121
-10.4427
-10.5749
-10.7091
-10.845
-10.9832
-11.1233
-11.2659
-11.4107
-11.5582
-11.7079
-11.8605
-12.0154
-12.1729
-12.3328
-12.4951
-12.6593
-12.8256
-12.9932
-13.162
-13.3312
-13.5005
-13.6689
-13.8358
-14
-14.1606
-14.3162
-14.4657
-14.6073
-14.7394
-14.8601
-14.9675
-15.0591
-15.1327
-15.1855
-15.2148
-15.2173
-15.19
-15.1292
-15.0315
-14.8929
-14.7098
-14.4783
-14.1949
-13.8565
-13.4605
-13.0043
-12.4864
-11.9057
-11.2638
-10.5618
-9.80229
-8.98796
-8.1236
-7.21514
-6.26962
-5.29502
-4.29959
-3.29258
-2.28227
-1.27767
-0.28581
0.685628
1.6313
2.54523
3.42399
4.26356
5.0624
5.81831
6.53132
7.20072
7.82762
8.4126
8.95759
9.46389
9.93371
10.3685
10.7708
11.142
11.4847
11.8006
12.092
12.3604
12.608
12.8361
13.0466
13.2407
13.42
13.5856
13.7389
13.8808
14.0123
14.1344
14.2481
14.354
14.453
14.5457
14.6327
14.7145
14.7917
14.8645
14.9334
14.9987
15.0608
15.12
15.1764
15.2303
15.2819
15.3313
15.3788
15.4243
15.4682
15.5103
15.5509
15.59
15.6276
15.6639
15.6988
15.7323
15.7644
15.7952
15.8245
15.8525
15.879
15.904
15.9276
15.9496
15.9699
15.9885
16.0052
16.0198
16.0321
16.0416
16.048
16.0504
16.0477
16.0385
16.0187
15.991
15.9231
-7.27236
-7.31855
-7.36227
-7.39649
-7.42464
-7.44922
-7.47167
-7.49318
-7.51479
-7.53746
-7.56218
-7.58973
-7.62095
-7.65632
-7.69656
-7.74187
-7.79275
-7.84917
-7.91135
-7.97909
-8.05235
-8.13086
-8.21438
-8.30262
-8.39516
-8.49176
-8.5919
-8.69549
-8.80195
-8.9113
-9.02295
-9.137
-9.25295
-9.37096
-9.49056
-9.61203
-9.73499
-9.85974
-9.98598
-10.1141
-10.2438
-10.3756
-10.5092
-10.6451
-10.783
-10.9234
-11.0661
-11.2115
-11.3595
-11.5104
-11.664
-11.8207
-11.9801
-12.1425
-12.3076
-12.4754
-12.6456
-12.8182
-12.9925
-13.1684
-13.345
-13.5221
-13.6986
-13.8739
-14.047
-14.2168
-14.3819
-14.5411
-14.6928
-14.8352
-14.9664
-15.0843
-15.1867
-15.271
-15.3346
-15.3746
-15.3879
-15.3711
-15.3207
-15.2328
-15.1034
-14.9287
-14.7044
-14.4271
-14.0934
-13.7004
-13.2457
-12.7272
-12.1442
-11.4974
-10.7889
-10.0206
-9.19569
-8.31901
-7.39688
-6.43674
-5.44675
-4.43606
-3.41372
-2.38913
-1.37074
-0.366715
0.615993
1.57097
2.49313
3.37818
4.22308
5.02558
5.78442
6.49909
7.16972
7.79705
8.38232
8.92717
9.43332
9.9027
10.3372
10.7388
11.1096
11.452
11.7678
12.059
12.3276
12.5753
12.8038
13.0146
13.2091
13.3889
13.555
13.7089
13.8513
13.9835
14.1063
14.2206
14.3273
14.427
14.5204
14.6081
14.6907
14.7685
14.842
14.9115
14.9776
15.0403
15.1001
15.1572
15.2118
15.264
15.3141
15.3623
15.4085
15.453
15.4959
15.5371
15.5769
15.6153
15.6522
15.6878
15.722
15.7547
15.7861
15.8161
15.8447
15.8717
15.8973
15.9213
15.9437
15.9643
15.983
15.9996
16.0139
16.0256
16.0341
16.039
16.0393
16.0338
16.0211
15.9973
15.9651
15.8931
-7.28624
-7.32237
-7.35471
-7.38111
-7.40356
-7.42342
-7.44187
-7.45997
-7.47863
-7.49863
-7.52082
-7.54585
-7.57458
-7.60745
-7.64517
-7.6879
-7.73616
-7.78989
-7.84937
-7.91436
-7.9849
-8.06072
-8.14164
-8.2274
-8.31762
-8.41211
-8.51038
-8.61232
-8.71737
-8.82552
-8.93623
-9.04956
-9.16502
-9.28275
-9.40236
-9.52401
-9.64742
-9.77282
-9.89997
-10.0292
-10.1603
-10.2936
-10.429
-10.5669
-10.7072
-10.8501
-10.9957
-11.1442
-11.2956
-11.4503
-11.608
-11.769
-11.9332
-12.1007
-12.2712
-12.4447
-12.6211
-12.8
-12.9811
-13.164
-13.3481
-13.5328
-13.7174
-13.9012
-14.083
-14.2619
-14.4364
-14.6051
-14.7665
-14.9188
-15.06
-15.188
-15.3004
-15.3948
-15.4685
-15.5183
-15.5416
-15.5344
-15.4934
-15.4142
-15.293
-15.1251
-14.9068
-14.6341
-14.3038
-13.9125
-13.458
-12.9376
-12.3511
-11.6989
-10.9829
-10.2053
-9.36951
-8.48066
-7.5452
-6.57109
-5.56676
-4.54206
-3.50614
-2.46907
-1.43912
-0.425183
0.566196
1.52796
2.45569
3.34458
4.19239
4.99637
5.75612
6.47065
7.14089
7.76727
8.35165
8.89531
9.40049
9.86867
10.3023
10.7029
11.0733
11.4151
11.7307
12.0219
12.2908
12.5387
12.7677
12.9789
13.1742
13.3546
13.5215
13.676
13.8194
13.9524
14.0761
14.1913
14.2989
14.3995
14.4938
14.5823
14.6657
14.7443
14.8186
14.889
14.9558
15.0193
15.0798
15.1377
15.193
15.246
15.2968
15.3457
15.3927
15.4379
15.4815
15.5235
15.564
15.6031
15.6408
15.677
15.7119
15.7454
15.7774
15.8081
15.8372
15.8649
15.891
15.9155
15.9383
15.9591
15.978
15.9946
16.0086
16.0196
16.0271
16.0305
16.0288
16.0208
16.0048
15.9773
15.9412
15.8658
-7.30332
-7.32892
-7.35026
-7.36846
-7.38429
-7.39839
-7.41171
-7.42513
-7.43949
-7.45545
-7.47385
-7.49521
-7.52031
-7.54951
-7.58352
-7.62246
-7.6669
-7.7168
-7.7725
-7.8338
-7.90082
-7.9733
-8.0511
-8.13399
-8.22159
-8.31376
-8.40998
-8.51019
-8.61378
-8.72081
-8.83062
-8.9434
-9.05852
-9.17625
-9.29602
-9.41817
-9.54225
-9.66862
-9.79692
-9.92758
-10.0603
-10.1956
-10.3331
-10.4734
-10.6162
-10.7621
-10.9107
-11.0628
-11.2179
-11.3766
-11.5385
-11.7042
-11.8732
-12.0459
-12.2218
-12.4014
-12.5837
-12.7693
-12.957
-13.1471
-13.3384
-13.5308
-13.7234
-13.9154
-14.1056
-14.2932
-14.4765
-14.6544
-14.8249
-14.9864
-15.1368
-15.2741
-15.3956
-15.4992
-15.5817
-15.6405
-15.6724
-15.6736
-15.6406
-15.5685
-15.4533
-15.2906
-15.0764
-14.8066
-14.4779
-14.0869
-13.631
-13.1081
-12.517
-11.8588
-11.135
-10.3482
-9.50191
-8.60152
-7.65393
-6.66723
-5.65079
-4.61421
-3.56772
-2.5208
-1.4828
-0.461838
0.534528
1.50023
2.43006
3.32026
4.16792
4.97133
5.72951
6.44236
7.11039
7.73474
8.31694
8.85872
9.362
9.82867
10.2608
10.6606
11.0302
11.3717
11.6872
11.9786
12.2478
12.4964
12.726
12.9382
13.1343
13.3158
13.4837
13.6394
13.7838
13.918
14.0429
14.1593
14.268
14.3698
14.4651
14.5547
14.6391
14.7187
14.7939
14.8652
14.9329
14.9973
15.0588
15.1175
15.1736
15.2274
15.2791
15.3288
15.3766
15.4226
15.467
15.5098
15.5511
15.5909
15.6293
15.6663
15.7019
15.7361
15.7689
15.8002
15.83
15.8583
15.885
15.91
15.9331
15.9543
15.9733
15.9898
16.0035
16.014
16.0206
16.0226
16.0191
16.0086
15.9898
15.959
15.9192
15.841
-7.3166
-7.33344
-7.34525
-7.35562
-7.36451
-7.37218
-7.37948
-7.38719
-7.39607
-7.40673
-7.41997
-7.43629
-7.45647
-7.48084
-7.5101
-7.54441
-7.58431
-7.62979
-7.68121
-7.73844
-7.8016