/*--------------------------------*- C++ -*----------------------------------*\
  =========                 |
  \\      /  F ield         | OpenFOAM: The Open Source CFD Toolbox
   \\    /   O peration     | Website:  https://openfoam.org
    \\  /    A nd           | Version:  9
     \\/     M anipulation  |
\*---------------------------------------------------------------------------*/
FoamFile
{
    format      ascii;
    class       surfaceScalarField;
    location    "70";
    object      phi;
}
// * * * * * * * * * * * * * * * * * * * * * * * * * * * * * * * * * * * * * //

dimensions      [0 3 -1 0 0 0 0];

internalField   nonuniform List<scalar> 
24170
(
3.12894e-06
5.94685e-08
3.04641e-06
8.25356e-08
2.97305e-06
7.33571e-08
2.90404e-06
6.90064e-08
2.83921e-06
6.48327e-08
2.78125e-06
5.79527e-08
2.73118e-06
5.0072e-08
2.68832e-06
4.2852e-08
2.65158e-06
3.67497e-08
2.61986e-06
3.172e-08
2.59213e-06
2.77264e-08
2.56745e-06
2.4674e-08
2.54502e-06
2.24288e-08
2.52399e-06
2.10303e-08
2.50357e-06
2.04145e-08
2.48119e-06
2.23738e-08
2.4568e-06
2.43845e-08
4.83317e-08
2.40847e-06
3.45306e-06
2.3664e-08
3.45695e-06
7.86488e-08
3.45039e-06
7.99323e-08
3.43875e-06
8.06507e-08
3.42372e-06
7.98693e-08
3.40613e-06
7.55452e-08
3.38647e-06
6.97439e-08
3.36538e-06
6.39491e-08
3.34354e-06
5.85941e-08
3.32152e-06
5.37476e-08
3.29977e-06
4.94833e-08
3.27853e-06
4.59197e-08
3.25795e-06
4.30102e-08
3.23798e-06
4.10038e-08
3.2187e-06
3.96931e-08
3.19983e-06
4.12449e-08
3.18189e-06
4.23145e-08
5.8853e-08
3.17137e-06
3.66813e-06
1.80499e-08
3.67909e-06
6.76911e-08
3.68517e-06
7.38522e-08
3.68898e-06
7.68267e-08
3.6903e-06
7.85567e-08
3.68897e-06
7.68729e-08
3.68537e-06
7.33367e-08
3.67996e-06
6.93496e-08
3.67313e-06
6.54301e-08
3.66516e-06
6.17151e-08
3.65631e-06
5.83383e-08
3.64677e-06
5.54555e-08
3.63668e-06
5.30986e-08
3.62613e-06
5.15524e-08
3.61505e-06
5.07745e-08
3.604e-06
5.22947e-08
3.59176e-06
5.45513e-08
6.42448e-08
3.58637e-06
3.92581e-06
1.76322e-08
3.93577e-06
5.77359e-08
3.94225e-06
6.73841e-08
3.94754e-06
7.15435e-08
3.95163e-06
7.44712e-08
3.95417e-06
7.43396e-08
3.95533e-06
7.21741e-08
3.95536e-06
6.93255e-08
3.95443e-06
6.63667e-08
3.95266e-06
6.34902e-08
3.95016e-06
6.08425e-08
3.94702e-06
5.86005e-08
3.94329e-06
5.68341e-08
3.93904e-06
5.58052e-08
3.93423e-06
5.55846e-08
3.92943e-06
5.70963e-08
3.92427e-06
5.97124e-08
6.56995e-08
3.92281e-06
4.20815e-06
1.66104e-08
4.21582e-06
5.0064e-08
4.22132e-06
6.18785e-08
4.22615e-06
6.67103e-08
4.23054e-06
7.00775e-08
4.23407e-06
7.08126e-08
4.23669e-06
6.95457e-08
4.23853e-06
6.74883e-08
4.23966e-06
6.52339e-08
4.24016e-06
6.29915e-08
4.24008e-06
6.09166e-08
4.2395e-06
5.91833e-08
4.23844e-06
5.78933e-08
4.23698e-06
5.72598e-08
4.23517e-06
5.73941e-08
4.23347e-06
5.88034e-08
4.23199e-06
6.11967e-08
6.50542e-08
4.23264e-06
4.51066e-06
1.50433e-08
4.51671e-06
4.40223e-08
4.52174e-06
5.68472e-08
4.52626e-06
6.21963e-08
4.53059e-06
6.57503e-08
4.53436e-06
6.70429e-08
4.53746e-06
6.64478e-08
4.53995e-06
6.50081e-08
4.54188e-06
6.33088e-08
4.54329e-06
6.1578e-08
4.54424e-06
5.99725e-08
4.54476e-06
5.86579e-08
4.54491e-06
5.77482e-08
4.54476e-06
5.74085e-08
4.54442e-06
5.77396e-08
4.54423e-06
5.89873e-08
4.54447e-06
6.09604e-08
6.34832e-08
4.54604e-06
4.83427e-06
1.34892e-08
4.83944e-06
3.88531e-08
4.84434e-06
5.19438e-08
4.84873e-06
5.7802e-08
4.85296e-06
6.15198e-08
4.85678e-06
6.32237e-08
4.86005e-06
6.31732e-08
4.86281e-06
6.22475e-08
4.8651e-06
6.10157e-08
4.86696e-06
5.97175e-08
4.86842e-06
5.851e-08
4.86953e-06
5.75465e-08
4.87034e-06
5.69418e-08
4.87093e-06
5.68167e-08
4.87143e-06
5.7241e-08
4.87211e-06
5.83052e-08
4.87323e-06
5.98379e-08
6.15009e-08
4.87522e-06
5.18099e-06
1.20818e-08
5.18556e-06
3.42886e-08
5.19033e-06
4.71771e-08
5.19466e-06
5.34794e-08
5.19882e-06
5.73596e-08
5.20266e-06
5.9386e-08
5.20604e-06
5.97999e-08
5.20896e-06
5.93264e-08
5.21147e-06
5.85056e-08
5.21361e-06
5.75856e-08
5.2154e-06
5.67247e-08
5.21688e-06
5.60618e-08
5.21812e-06
5.57018e-08
5.21921e-06
5.57289e-08
5.22028e-06
5.61812e-08
5.22152e-06
5.70594e-08
5.22315e-06
5.82171e-08
5.92787e-08
5.22537e-06
5.55263e-06
1.0787e-08
5.55669e-06
3.02273e-08
5.56126e-06
4.2602e-08
5.56554e-06
4.9201e-08
5.56967e-06
5.32264e-08
5.57355e-06
5.55099e-08
5.57702e-06
5.63243e-08
5.58009e-06
5.62611e-08
5.58278e-06
5.58132e-08
5.58513e-06
5.52344e-08
5.58718e-06
5.46814e-08
5.58896e-06
5.4278e-08
5.59055e-06
5.41165e-08
5.59203e-06
5.42519e-08
5.59351e-06
5.46961e-08
5.59516e-06
5.5411e-08
5.59712e-06
5.62578e-08
5.69305e-08
5.59948e-06
5.95098e-06
9.58598e-09
5.95459e-06
2.66233e-08
5.95893e-06
3.82712e-08
5.96315e-06
4.49877e-08
5.96726e-06
4.91188e-08
5.97117e-06
5.16017e-08
5.97475e-06
5.27556e-08
5.97795e-06
5.30609e-08
5.98082e-06
5.29501e-08
5.98338e-06
5.26794e-08
5.98567e-06
5.23985e-08
5.98772e-06
5.22236e-08
5.98962e-06
5.22233e-08
5.99143e-06
5.24375e-08
5.99327e-06
5.28595e-08
5.99525e-06
5.34357e-08
5.99745e-06
5.4062e-08
5.44731e-08
5.99991e-06
6.37792e-06
8.477e-09
6.38115e-06
2.33959e-08
6.38524e-06
3.41764e-08
6.3894e-06
4.08359e-08
6.3935e-06
4.50238e-08
6.39745e-06
4.76532e-08
6.40112e-06
4.90848e-08
6.40447e-06
4.97114e-08
6.40752e-06
4.99052e-08
6.41029e-06
4.99073e-08
6.41282e-06
4.9872e-08
6.41515e-06
4.98909e-08
6.41734e-06
5.00307e-08
6.41948e-06
5.03037e-08
6.42163e-06
5.07059e-08
6.42388e-06
5.1182e-08
6.42629e-06
5.16499e-08
5.19115e-08
6.42886e-06
5.74171e-06
7.60455e-09
5.74418e-06
2.09289e-08
5.74745e-06
3.0904e-08
5.75091e-06
3.73865e-08
5.75436e-06
4.15769e-08
5.75772e-06
4.42903e-08
5.76091e-06
4.59056e-08
5.76386e-06
4.67626e-08
5.76658e-06
4.71831e-08
5.76909e-06
4.73946e-08
5.77142e-06
4.75348e-08
5.77361e-06
4.77067e-08
5.77569e-06
4.79391e-08
5.77773e-06
4.82656e-08
5.77978e-06
4.86549e-08
5.78189e-06
4.90745e-08
5.78408e-06
4.94578e-08
4.96386e-08
5.78636e-06
6.99908e-06
6.68431e-09
7.00169e-06
1.83166e-08
7.00525e-06
2.73478e-08
7.00912e-06
3.35202e-08
7.01306e-06
3.76387e-08
7.01695e-06
4.03978e-08
7.02069e-06
4.21669e-08
7.02421e-06
4.32417e-08
7.02751e-06
4.38865e-08
7.0306e-06
4.43019e-08
7.0335e-06
4.46318e-08
7.03626e-06
4.49422e-08
7.03892e-06
4.52855e-08
7.04152e-06
4.56557e-08
7.04413e-06
4.60522e-08
7.04677e-06
4.64322e-08
7.04947e-06
4.67611e-08
4.68995e-08
7.05221e-06
8.53181e-06
5.7192e-09
8.53455e-06
1.5578e-08
8.53837e-06
2.35302e-08
8.54266e-06
2.92254e-08
8.54712e-06
3.31759e-08
8.55161e-06
3.59114e-08
8.55599e-06
3.77874e-08
8.56019e-06
3.90424e-08
8.56418e-06
3.98935e-08
8.56797e-06
4.05088e-08
8.57159e-06
4.10107e-08
8.57507e-06
4.14679e-08
8.57844e-06
4.19105e-08
8.58176e-06
4.2342e-08
8.58505e-06
4.27555e-08
8.58836e-06
4.31267e-08
8.59168e-06
4.34386e-08
4.3573e-08
8.59501e-06
1.04002e-05
4.71453e-09
1.04031e-05
1.27309e-08
1.04071e-05
1.94538e-08
1.04119e-05
2.44935e-08
1.04169e-05
2.81344e-08
1.04221e-05
3.07637e-08
1.04272e-05
3.26605e-08
1.04322e-05
3.40421e-08
1.0437e-05
3.50586e-08
1.04417e-05
3.58502e-08
1.04462e-05
3.65065e-08
1.04506e-05
3.70996e-08
1.04548e-05
3.76396e-08
1.0459e-05
3.81446e-08
1.04632e-05
3.85953e-08
1.04673e-05
3.89928e-08
1.04714e-05
3.93223e-08
3.94972e-08
1.04755e-05
1.26778e-05
3.66537e-09
1.26808e-05
9.75403e-09
1.26852e-05
1.5098e-08
1.26904e-05
1.92759e-08
1.26961e-05
2.24425e-08
1.2702e-05
2.48316e-08
1.2708e-05
2.6655e-08
1.2714e-05
2.80693e-08
1.27199e-05
2.9196e-08
1.27256e-05
3.0116e-08
1.27312e-05
3.09075e-08
1.27367e-05
3.16105e-08
1.27421e-05
3.22567e-08
1.27474e-05
3.28378e-08
1.27526e-05
3.33597e-08
1.27578e-05
3.38091e-08
1.27629e-05
3.41979e-08
3.44421e-08
1.2768e-05
1.54543e-05
2.54919e-09
1.54575e-05
6.582e-09
1.54622e-05
1.03561e-08
1.5468e-05
1.34574e-08
1.54745e-05
1.59402e-08
1.54814e-05
1.7932e-08
1.54885e-05
1.95494e-08
1.54957e-05
2.08952e-08
1.55029e-05
2.20434e-08
1.551e-05
2.30413e-08
1.55169e-05
2.39267e-08
1.55238e-05
2.47313e-08
1.55306e-05
2.54716e-08
1.55373e-05
2.61487e-08
1.55439e-05
2.67588e-08
1.55504e-05
2.72974e-08
1.55568e-05
2.77743e-08
2.81235e-08
1.55631e-05
1.88389e-05
1.30666e-09
1.88424e-05
3.05112e-09
1.88478e-05
4.99475e-09
1.88545e-05
6.75483e-09
1.88621e-05
8.32081e-09
1.88703e-05
9.72272e-09
1.88789e-05
1.09906e-08
1.88876e-05
1.21513e-08
1.88964e-05
1.32326e-08
1.89052e-05
1.42445e-08
1.8914e-05
1.51936e-08
1.89226e-05
1.60848e-08
1.89312e-05
1.69229e-08
1.89396e-05
1.77051e-08
1.89479e-05
1.84271e-08
1.89562e-05
1.90844e-08
1.89642e-05
1.96825e-08
2.01653e-08
1.89722e-05
2.29648e-05
-2.0285e-10
2.29691e-05
-1.17878e-09
2.29756e-05
-1.49291e-09
2.29838e-05
-1.42706e-09
2.29931e-05
-1.0455e-09
2.30033e-05
-4.28976e-10
2.30139e-05
3.46755e-10
2.30249e-05
1.22324e-09
2.30359e-05
2.17174e-09
2.3047e-05
3.15781e-09
2.3058e-05
4.16007e-09
2.3069e-05
5.14333e-09
2.30798e-05
6.09882e-09
2.30905e-05
7.00847e-09
2.3101e-05
7.87651e-09
2.31115e-05
8.68729e-09
2.31217e-05
9.44912e-09
1.01058e-08
2.31317e-05
1.68119e-05
-1.42342e-09
1.68153e-05
-4.53864e-09
1.68204e-05
-6.65177e-09
1.68269e-05
-7.899e-09
1.68343e-05
-8.38106e-09
1.68422e-05
-8.3117e-09
1.68504e-05
-7.87787e-09
1.68588e-05
-7.17696e-09
1.68673e-05
-6.30787e-09
1.68757e-05
-5.31057e-09
1.68842e-05
-4.26265e-09
1.68925e-05
-3.18406e-09
1.69007e-05
-2.1335e-09
1.69089e-05
-1.09866e-09
1.69168e-05
-1.16774e-10
1.69247e-05
8.31956e-10
1.69324e-05
1.71753e-09
2.52079e-09
1.694e-05
1.46358e-05
-2.60515e-09
1.4639e-05
-7.83147e-09
1.46441e-05
-1.17249e-08
1.46504e-05
-1.41544e-08
1.46573e-05
-1.53323e-08
1.46647e-05
-1.56973e-08
1.46724e-05
-1.55045e-08
1.46801e-05
-1.49086e-08
1.46878e-05
-1.40302e-08
1.46955e-05
-1.29905e-08
1.47031e-05
-1.1849e-08
1.47106e-05
-1.06798e-08
1.4718e-05
-9.5055e-09
1.47252e-05
-8.36252e-09
1.47324e-05
-7.24666e-09
1.47394e-05
-6.1827e-09
1.47463e-05
-5.16308e-09
-4.23791e-09
1.4753e-05
1.27412e-05
-3.71763e-09
1.27446e-05
-1.11681e-08
1.27498e-05
-1.69137e-08
1.27559e-05
-2.03101e-08
1.27626e-05
-2.19694e-08
1.27695e-05
-2.26577e-08
1.27767e-05
-2.26241e-08
1.27838e-05
-2.20305e-08
1.27909e-05
-2.10821e-08
1.27978e-05
-1.9932e-08
1.28046e-05
-1.86769e-08
1.28113e-05
-1.73822e-08
1.28179e-05
-1.60843e-08
1.28244e-05
-1.48147e-08
1.28307e-05
-1.35742e-08
1.28369e-05
-1.23892e-08
1.2843e-05
-1.12515e-08
-1.02032e-08
1.28489e-05
1.10919e-05
-4.65826e-09
1.10953e-05
-1.4589e-08
1.11008e-05
-2.23867e-08
1.11069e-05
-2.64283e-08
1.11132e-05
-2.83338e-08
1.11198e-05
-2.92225e-08
1.11264e-05
-2.92364e-08
1.1133e-05
-2.85573e-08
1.11394e-05
-2.748e-08
1.11456e-05
-2.61942e-08
1.11518e-05
-2.47996e-08
1.11577e-05
-2.33602e-08
1.11636e-05
-2.19299e-08
1.11693e-05
-2.05217e-08
1.11749e-05
-1.91648e-08
1.11804e-05
-1.78521e-08
1.11857e-05
-1.6608e-08
-1.5439e-08
1.11909e-05
9.65591e-06
-5.35651e-09
9.65952e-06
-1.8201e-08
9.66518e-06
-2.80492e-08
9.67114e-06
-3.238e-08
9.67728e-06
-3.44747e-08
9.68354e-06
-3.54857e-08
9.68969e-06
-3.53827e-08
9.69564e-06
-3.45093e-08
9.70142e-06
-3.32562e-08
9.70703e-06
-3.18095e-08
9.7125e-06
-3.02577e-08
9.71781e-06
-2.86682e-08
9.72298e-06
-2.70923e-08
9.72801e-06
-2.55524e-08
9.73291e-06
-2.40609e-08
9.73769e-06
-2.26307e-08
9.74235e-06
-2.12672e-08
-1.99808e-08
9.74688e-06
8.4054e-06
-5.40751e-09
8.40989e-06
-2.26938e-08
8.41542e-06
-3.35789e-08
8.42086e-06
-3.78155e-08
8.42674e-06
-4.03606e-08
8.43278e-06
-4.15196e-08
8.43859e-06
-4.12013e-08
8.44413e-06
-4.0046e-08
8.44942e-06
-3.85482e-08
8.45449e-06
-3.68786e-08
8.45934e-06
-3.51131e-08
8.464e-06
-3.33271e-08
8.46849e-06
-3.15701e-08
8.47281e-06
-2.98686e-08
8.47697e-06
-2.82273e-08
8.481e-06
-2.66581e-08
8.4849e-06
-2.51633e-08
-2.37612e-08
8.48867e-06
7.31462e-06
-2.74027e-09
7.32142e-06
-2.94943e-08
7.32724e-06
-3.93985e-08
7.33255e-06
-4.31338e-08
7.3384e-06
-4.62102e-08
7.34427e-06
-4.73888e-08
7.34978e-06
-4.67151e-08
7.35491e-06
-4.51831e-08
7.3597e-06
-4.33352e-08
7.36414e-06
-4.13203e-08
7.36826e-06
-3.92322e-08
7.37208e-06
-3.71433e-08
7.37563e-06
-3.5129e-08
7.37896e-06
-3.31956e-08
7.38208e-06
-3.13526e-08
7.38503e-06
-2.96051e-08
7.38783e-06
-2.7956e-08
-2.64178e-08
7.39049e-06
6.36252e-06
4.80898e-09
6.37209e-06
-3.90666e-08
6.37974e-06
-4.70518e-08
6.3867e-06
-5.00849e-08
6.39337e-06
-5.28879e-08
6.39915e-06
-5.31688e-08
6.40398e-06
-5.15524e-08
6.40807e-06
-4.92796e-08
6.41156e-06
-4.68236e-08
6.4145e-06
-4.42691e-08
6.41697e-06
-4.16863e-08
6.419e-06
-3.9184e-08
6.42067e-06
-3.68039e-08
6.42204e-06
-3.45669e-08
6.42316e-06
-3.2473e-08
6.42408e-06
-3.05206e-08
6.42484e-06
-2.87208e-08
-2.70491e-08
6.42549e-06
5.54125e-06
9.02351e-09
5.55048e-06
-4.82966e-08
5.55867e-06
-5.52376e-08
5.56662e-06
-5.80344e-08
5.57339e-06
-5.96655e-08
5.57809e-06
-5.78783e-08
5.58078e-06
-5.4245e-08
5.58185e-06
-5.03513e-08
5.58167e-06
-4.66461e-08
5.58052e-06
-4.31187e-08
5.57863e-06
-3.97972e-08
5.57618e-06
-3.67345e-08
5.57331e-06
-3.39402e-08
5.57014e-06
-3.14005e-08
5.56677e-06
-2.91041e-08
5.56328e-06
-2.70406e-08
5.55978e-06
-2.52028e-08
-2.35636e-08
5.5563e-06
4.86005e-06
-2.34155e-08
4.86544e-06
-5.36964e-08
4.8654e-06
-5.5195e-08
4.8625e-06
-5.51278e-08
4.85755e-06
-5.47246e-08
4.85034e-06
-5.06751e-08
4.841e-06
-4.49099e-08
4.83003e-06
-3.93822e-08
4.81794e-06
-3.45595e-08
4.80521e-06
-3.03916e-08
4.79223e-06
-2.68169e-08
4.77927e-06
-2.37792e-08
4.76651e-06
-2.11938e-08
4.7541e-06
-1.89905e-08
4.74211e-06
-1.71182e-08
4.73061e-06
-1.5545e-08
4.71972e-06
-1.43087e-08
-1.394e-08
4.71012e-06
4.17926e-06
4.12556e-06
4.07037e-06
4.01524e-06
3.96052e-06
3.90984e-06
3.86493e-06
3.82555e-06
3.79099e-06
3.7606e-06
3.73378e-06
3.71e-06
3.6888e-06
3.66981e-06
3.65269e-06
3.63715e-06
3.62284e-06
3.6089e-06
5.10502e-08
-5.14388e-08
1.28837e-07
-7.82495e-08
2.06638e-07
-7.78968e-08
2.80826e-07
-7.44277e-08
3.49439e-07
-6.86143e-08
4.09411e-07
-6.01865e-08
4.60188e-07
-5.07367e-08
4.99066e-07
-3.91322e-08
5.25788e-07
-2.66807e-08
5.41176e-07
-1.56743e-08
5.44108e-07
-2.92721e-09
5.32869e-07
1.09707e-08
5.13082e-07
1.98057e-08
4.92439e-07
2.03001e-08
4.70855e-07
2.15976e-08
4.38949e-07
3.13425e-08
4.03811e-07
3.52195e-08
3.65354e-07
3.77562e-08
3.24287e-07
4.11926e-08
2.77163e-07
4.63745e-08
2.23805e-07
5.3534e-08
1.61247e-07
6.18345e-08
9.10525e-08
7.04208e-08
1.14362e-08
7.89548e-08
-7.72515e-08
8.89506e-08
-1.7885e-07
1.01134e-07
-2.92322e-07
1.13759e-07
-4.18288e-07
1.25651e-07
-5.54037e-07
1.35999e-07
-6.98466e-07
1.4417e-07
-8.48149e-07
1.49933e-07
-1.00158e-06
1.53193e-07
-1.15556e-06
1.54212e-07
-1.30911e-06
1.53291e-07
-1.45961e-06
1.5079e-07
-1.60688e-06
1.47018e-07
-1.74898e-06
1.42393e-07
-1.8864e-06
1.37181e-07
-2.01784e-06
1.31707e-07
-2.1442e-06
1.2614e-07
-2.26465e-06
1.20705e-07
-2.38033e-06
1.15476e-07
-2.49069e-06
1.10592e-07
-2.59693e-06
1.06058e-07
-2.69863e-06
1.01948e-07
-2.79702e-06
9.82195e-08
-2.8917e-06
9.49138e-08
-2.98383e-06
9.19629e-08
-3.073e-06
8.93844e-08
-3.16027e-06
8.7099e-08
-3.24523e-06
8.51207e-08
-3.3288e-06
8.33641e-08
-3.41053e-06
8.18399e-08
-3.49121e-06
8.04765e-08
-3.57037e-06
7.92795e-08
-3.64874e-06
7.81684e-08
-3.72579e-06
7.71544e-08
-3.80217e-06
7.61705e-08
-3.87727e-06
7.52259e-08
-3.9517e-06
7.42387e-08
-4.02483e-06
7.32302e-08
-4.09711e-06
7.21292e-08
-4.16788e-06
7.09481e-08
-4.23758e-06
6.96008e-08
-4.30548e-06
6.81012e-08
-4.37193e-06
6.63623e-08
-4.43616e-06
6.44027e-08
-4.49838e-06
6.21399e-08
-4.55782e-06
5.95912e-08
-4.61453e-06
5.66793e-08
-4.66779e-06
5.34066e-08
-4.71747e-06
4.96967e-08
-4.76286e-06
4.55181e-08
-4.80367e-06
4.08035e-08
-4.83911e-06
3.55149e-08
-4.86879e-06
2.95905e-08
-4.89183e-06
2.30519e-08
-4.90787e-06
1.59595e-08
-4.91633e-06
8.53327e-09
-4.91757e-06
1.21924e-09
-4.91174e-06
-5.71655e-09
-4.89912e-06
-1.25874e-08
-4.87937e-06
-1.95884e-08
-4.85255e-06
-2.68559e-08
-4.81811e-06
-3.43396e-08
-4.77619e-06
-4.20459e-08
-4.72629e-06
-4.98495e-08
-4.66843e-06
-5.78125e-08
-4.60216e-06
-6.58947e-08
-4.52747e-06
-7.39168e-08
-4.44484e-06
-8.20344e-08
-4.3545e-06
-9.01186e-08
-4.25657e-06
-9.79789e-08
-4.15126e-06
-1.05645e-07
-4.03866e-06
-1.13027e-07
-3.91911e-06
-1.20084e-07
-3.79291e-06
-1.26705e-07
-3.66056e-06
-1.32815e-07
-3.52254e-06
-1.3837e-07
-3.3795e-06
-1.43324e-07
-3.232e-06
-1.47632e-07
-3.08076e-06
-1.51252e-07
-2.92643e-06
-1.54159e-07
-2.7698e-06
-1.56326e-07
-2.61158e-06
-1.57811e-07
-2.45246e-06
-1.58617e-07
-2.29311e-06
-1.58831e-07
-2.13414e-06
-1.58417e-07
-1.97616e-06
-1.57472e-07
-1.81967e-06
-1.55958e-07
-1.66523e-06
-1.53999e-07
-1.51323e-06
-1.51547e-07
-1.36415e-06
-1.48747e-07
-1.21825e-06
-1.45575e-07
-1.07589e-06
-1.42173e-07
-9.37205e-07
-1.38502e-07
-8.02456e-07
-1.34683e-07
-6.71739e-07
-1.30695e-07
-5.45162e-07
-1.26677e-07
-4.22705e-07
-1.22535e-07
-3.04214e-07
-1.18422e-07
-1.8937e-07
-1.1457e-07
-7.7953e-08
-1.11006e-07
3.09144e-08
-1.08404e-07
1.36794e-07
-1.05562e-07
2.38089e-07
-1.01033e-07
3.34342e-07
-9.61875e-08
4.25701e-07
-9.13249e-08
5.12236e-07
-8.6683e-08
5.94307e-07
-8.22168e-08
6.72019e-07
-7.80172e-08
7.45756e-07
-7.40135e-08
8.1564e-07
-7.02936e-08
8.82034e-07
-6.6765e-08
9.45025e-07
-6.3483e-08
1.00494e-06
-6.03672e-08
1.06186e-06
-5.74887e-08
1.11609e-06
-5.47865e-08
1.16771e-06
-5.22934e-08
1.217e-06
-4.99389e-08
1.26411e-06
-4.77557e-08
1.30929e-06
-4.57235e-08
1.35266e-06
-4.38294e-08
1.39435e-06
-4.20558e-08
1.43443e-06
-4.04118e-08
1.47304e-06
-3.88892e-08
1.51027e-06
-3.74748e-08
1.54622e-06
-3.6159e-08
1.58096e-06
-3.49359e-08
1.61459e-06
-3.37916e-08
1.64717e-06
-3.27468e-08
1.67881e-06
-3.17766e-08
1.70956e-06
-3.08868e-08
1.73949e-06
-3.00633e-08
1.76866e-06
-2.92929e-08
1.79712e-06
-2.85738e-08
1.82493e-06
-2.79306e-08
1.85213e-06
-2.73056e-08
1.87873e-06
-2.67121e-08
1.90477e-06
-2.61457e-08
1.93028e-06
-2.56091e-08
1.95529e-06
-2.51021e-08
1.9798e-06
-2.46104e-08
2.00386e-06
-2.41492e-08
2.02744e-06
-2.3676e-08
2.05055e-06
-2.32007e-08
2.07323e-06
-2.27612e-08
2.09541e-06
-2.22716e-08
2.11705e-06
-2.17152e-08
2.13808e-06
-2.11186e-08
2.15838e-06
-2.03828e-08
2.1777e-06
-1.9403e-08
2.19579e-06
-1.81637e-08
2.21212e-06
-1.64131e-08
2.22576e-06
-1.37192e-08
2.23511e-06
-9.43735e-09
2.23501e-06
2.75968e-12
2.21639e-06
1.85126e-08
2.1586e-06
5.76746e-08
1.21395e-07
2.03713e-06
7.96906e-08
-1.3145e-07
1.60743e-07
-1.5964e-07
2.29287e-07
-1.46527e-07
2.83733e-07
-1.29044e-07
3.25935e-07
-1.10835e-07
3.57249e-07
-9.16455e-08
3.78378e-07
-7.18738e-08
3.90826e-07
-5.17423e-08
3.9565e-07
-3.15194e-08
3.91691e-07
-1.1892e-08
3.81522e-07
7.21112e-09
3.66849e-07
2.54798e-08
3.44751e-07
4.18763e-08
3.08399e-07
5.64927e-08
2.58956e-07
7.10081e-08
2.05561e-07
8.45484e-08
1.43853e-07
9.69037e-08
7.25613e-08
1.08847e-07
-7.79384e-09
1.21518e-07
-9.77201e-08
1.36126e-07
-1.9775e-07
1.53538e-07
-3.09516e-07
1.73489e-07
-4.33841e-07
1.94723e-07
-5.70975e-07
2.16001e-07
-7.18447e-07
2.36414e-07
-8.72599e-07
2.55224e-07
-1.03045e-06
2.71617e-07
-1.1896e-06
2.84734e-07
-1.34753e-06
2.93945e-07
-1.50246e-06
2.99043e-07
-1.65271e-06
3.00201e-07
-1.79738e-06
2.97806e-07
-1.93552e-06
2.92376e-07
-2.06688e-06
2.84583e-07
-2.1912e-06
2.75154e-07
-2.30892e-06
2.64678e-07
-2.42016e-06
2.53685e-07
-2.52564e-06
2.4259e-07
-2.62561e-06
2.31727e-07
-2.72085e-06
2.21327e-07
-2.81165e-06
2.11555e-07
-2.89873e-06
2.02503e-07
-2.98231e-06
1.94224e-07
-3.06301e-06
1.86717e-07
-3.14097e-06
1.79968e-07
-3.21671e-06
1.7393e-07
-3.29028e-06
1.68555e-07
-3.36213e-06
1.63777e-07
-3.43222e-06
1.59538e-07
-3.50091e-06
1.55761e-07
-3.56814e-06
1.52385e-07
-3.63417e-06
1.49344e-07
-3.69889e-06
1.46582e-07
-3.76249e-06
1.44034e-07
-3.82483e-06
1.41645e-07
-3.88608e-06
1.39354e-07
-3.94603e-06
1.37117e-07
-4.00479e-06
1.34876e-07
-4.06213e-06
1.32581e-07
-4.11814e-06
1.30179e-07
-4.17253e-06
1.27631e-07
-4.22533e-06
1.24882e-07
-4.27623e-06
1.21889e-07
-4.32523e-06
1.18591e-07
-4.37203e-06
1.14947e-07
-4.41658e-06
1.109e-07
-4.45855e-06
1.06417e-07
-4.49786e-06
1.01448e-07
-4.53418e-06
9.59684e-08
-4.56741e-06
8.99362e-08
-4.59727e-06
8.33269e-08
-4.62363e-06
7.61073e-08
-4.6463e-06
6.82594e-08
-4.66523e-06
5.97629e-08
-4.6803e-06
5.06243e-08
-4.69159e-06
4.08575e-08
-4.69903e-06
3.05023e-08
-4.70267e-06
1.95957e-08
-4.70228e-06
8.18159e-09
-4.69725e-06
-3.79426e-09
-4.68649e-06
-1.63949e-08
-4.66941e-06
-2.96091e-08
-4.64552e-06
-4.33937e-08
-4.61461e-06
-5.7741e-08
-4.57632e-06
-7.2581e-08
-4.53052e-06
-8.78635e-08
-4.47691e-06
-1.03478e-07
-4.41531e-06
-1.1939e-07
-4.3454e-06
-1.35465e-07
-4.26724e-06
-1.51652e-07
-4.18114e-06
-1.67814e-07
-4.0873e-06
-1.83869e-07
-3.98577e-06
-1.99619e-07
-3.87676e-06
-2.1493e-07
-3.76048e-06
-2.29638e-07
-3.63725e-06
-2.43688e-07
-3.50744e-06
-2.56837e-07
-3.37158e-06
-2.68975e-07
-3.2302e-06
-2.79959e-07
-3.08394e-06
-2.89735e-07
-2.93342e-06
-2.98178e-07
-2.77938e-06
-3.05248e-07
-2.62248e-06
-3.10875e-07
-2.46351e-06
-3.15064e-07
-2.30316e-06
-3.1783e-07
-2.14223e-06
-3.19239e-07
-1.98134e-06
-3.19364e-07
-1.82119e-06
-3.18265e-07
-1.6623e-06
-3.16023e-07
-1.50529e-06
-3.12705e-07
-1.35058e-06
-3.08421e-07
-1.19867e-06
-3.03243e-07
-1.0499e-06
-2.97301e-07
-9.0465e-07
-2.90692e-07
-7.63136e-07
-2.83556e-07
-6.25614e-07
-2.75963e-07
-4.922e-07
-2.68039e-07
-3.63049e-07
-2.59872e-07
-2.38142e-07
-2.51618e-07
-1.17262e-07
-2.43453e-07
-1.10394e-10
-2.35506e-07
1.13068e-07
-2.27613e-07
2.21895e-07
-2.19627e-07
3.25291e-07
-2.11626e-07
4.23249e-07
-2.03362e-07
5.16864e-07
-1.94562e-07
6.06426e-07
-1.85692e-07
6.92043e-07
-1.7695e-07
7.73836e-07
-1.6851e-07
8.51924e-07
-1.60393e-07
9.2646e-07
-1.52662e-07
9.97595e-07
-1.45297e-07
1.06548e-06
-1.38345e-07
1.13028e-06
-1.31765e-07
1.19216e-06
-1.25575e-07
1.25128e-06
-1.19732e-07
1.30779e-06
-1.14264e-07
1.36184e-06
-1.09144e-07
1.41357e-06
-1.04369e-07
1.46316e-06
-9.98941e-08
1.51079e-06
-9.5718e-08
1.55659e-06
-9.18231e-08
1.60071e-06
-8.81876e-08
1.64324e-06
-8.47886e-08
1.68427e-06
-8.16215e-08
1.72391e-06
-7.86772e-08
1.76223e-06
-7.59353e-08
1.79934e-06
-7.33866e-08
1.83531e-06
-7.10172e-08
1.87023e-06
-6.88119e-08
1.90417e-06
-6.67677e-08
1.93718e-06
-6.48749e-08
1.96935e-06
-6.31304e-08
2.00073e-06
-6.15174e-08
2.03137e-06
-6.0003e-08
2.06132e-06
-5.85926e-08
2.09061e-06
-5.72943e-08
2.1193e-06
-5.60642e-08
2.14742e-06
-5.48899e-08
2.17498e-06
-5.37726e-08
2.20202e-06
-5.27119e-08
2.22856e-06
-5.17046e-08
2.25463e-06
-5.07359e-08
2.28023e-06
-4.98101e-08
2.30537e-06
-4.88788e-08
2.33005e-06
-4.7948e-08
2.35427e-06
-4.70369e-08
2.378e-06
-4.6059e-08
2.40119e-06
-4.49634e-08
2.42376e-06
-4.3749e-08
2.44559e-06
-4.22703e-08
2.46647e-06
-4.03533e-08
2.48611e-06
-3.78638e-08
2.50405e-06
-3.44132e-08
2.51958e-06
-2.931e-08
2.5315e-06
-2.14274e-08
2.53939e-06
-7.96538e-09
2.54221e-06
1.56075e-08
2.53748e-06
6.23182e-08
1.49656e-07
2.50917e-06
7.10077e-08
-2.02679e-07
1.22132e-07
-2.10994e-07
1.61627e-07
-1.86089e-07
1.90873e-07
-1.58416e-07
2.10434e-07
-1.30423e-07
2.20948e-07
-1.02276e-07
2.23204e-07
-7.41512e-08
2.17564e-07
-4.6233e-08
2.04712e-07
-1.86942e-08
1.84456e-07
8.2262e-09
1.57193e-07
3.44483e-08
1.22626e-07
5.99228e-08
7.98661e-08
8.46207e-08
2.74952e-08
1.08759e-07
-3.40319e-08
1.32524e-07
-1.05142e-07
1.55568e-07
-1.86503e-07
1.78256e-07
-2.78954e-07
2.01218e-07
-3.82567e-07
2.25123e-07
-4.96961e-07
2.50457e-07
-6.20633e-07
2.77202e-07
-7.51779e-07
3.04585e-07
-8.88284e-07
3.31224e-07
-1.02796e-06
3.55632e-07
-1.16816e-06
3.76609e-07
-1.30634e-06
3.93369e-07
-1.4402e-06
4.05474e-07
-1.56828e-06
4.12771e-07
-1.68971e-06
4.15367e-07
-1.80433e-06
4.13634e-07
-1.91226e-06
4.08122e-07
-2.01398e-06
3.9949e-07
-2.11006e-06
3.88454e-07
-2.20125e-06
3.7573e-07
-2.28806e-06
3.61968e-07
-2.37114e-06
3.47716e-07
-2.45088e-06
3.33431e-07
-2.52779e-06
3.19464e-07
-2.60213e-06
3.06075e-07
-2.67429e-06
2.93443e-07
-2.7444e-06
2.81679e-07
-2.81277e-06
2.7084e-07
-2.87947e-06
2.6094e-07
-2.94474e-06
2.51961e-07
-3.0086e-06
2.43861e-07
-3.07127e-06
2.36581e-07
-3.13274e-06
2.30056e-07
-3.19318e-06
2.24211e-07
-3.25258e-06
2.18968e-07
-3.31107e-06
2.14247e-07
-3.36863e-06
2.09972e-07
-3.42536e-06
2.06066e-07
-3.48121e-06
2.02457e-07
-3.53625e-06
1.99073e-07
-3.59043e-06
1.95842e-07
-3.64378e-06
1.92695e-07
-3.69622e-06
1.89569e-07
-3.74776e-06
1.86397e-07
-3.7983e-06
1.83115e-07
-3.84781e-06
1.7966e-07
-3.89616e-06
1.75974e-07
-3.9433e-06
1.71993e-07
-3.98907e-06
1.67658e-07
-4.0334e-06
1.62903e-07
-4.07612e-06
1.57669e-07
-4.11712e-06
1.51895e-07
-4.15623e-06
1.45529e-07
-4.1933e-06
1.38518e-07
-4.22812e-06
1.30818e-07
-4.26055e-06
1.22383e-07
-4.29035e-06
1.13175e-07
-4.31735e-06
1.03154e-07
-4.34133e-06
9.22872e-08
-4.36208e-06
8.05502e-08
-4.37934e-06
6.7921e-08
-4.39285e-06
5.43829e-08
-4.40226e-06
3.99262e-08
-4.40716e-06
2.45238e-08
-4.40709e-06
8.14593e-09
-4.4016e-06
-9.25392e-09
-4.39024e-06
-2.76934e-08
-4.37265e-06
-4.71384e-08
-4.34846e-06
-6.75289e-08
-4.31736e-06
-8.88017e-08
-4.27904e-06
-1.10865e-07
-4.23327e-06
-1.33619e-07
-4.17984e-06
-1.56943e-07
-4.11847e-06
-1.80704e-07
-4.04901e-06
-2.04781e-07
-3.97138e-06
-2.28958e-07
-3.88591e-06
-2.53139e-07
-3.79269e-06
-2.771e-07
-3.69185e-06
-3.00641e-07
-3.58352e-06
-3.23489e-07
-3.46806e-06
-3.45421e-07
-3.34574e-06
-3.66272e-07
-3.21703e-06
-3.85827e-07
-3.08238e-06
-4.0381e-07
-2.94241e-06
-4.20086e-07
-2.79771e-06
-4.34483e-07
-2.64898e-06
-4.46892e-07
-2.49691e-06
-4.57204e-07
-2.34222e-06
-4.65361e-07
-2.18568e-06
-4.71361e-07
-2.028e-06
-4.75215e-07
-1.86995e-06
-4.77026e-07
-1.71215e-06
-4.7687e-07
-1.5553e-06
-4.74889e-07
-1.39989e-06
-4.71164e-07
-1.24654e-06
-4.65863e-07
-1.09565e-06
-4.59092e-07
-9.47709e-07
-4.5104e-07
-8.03011e-07
-4.41834e-07
-6.61929e-07
-4.31683e-07
-5.24648e-07
-4.20733e-07
-3.91401e-07
-4.0917e-07
-2.62268e-07
-3.97136e-07
-1.3729e-07
-3.8488e-07
-1.63651e-08
-3.72563e-07
1.00377e-07
-3.60211e-07
2.12733e-07
-3.47784e-07
3.20511e-07
-3.35281e-07
4.23742e-07
-3.2269e-07
5.22282e-07
-3.10053e-07
6.16327e-07
-2.97295e-07
7.0625e-07
-2.84449e-07
7.92307e-07
-2.71717e-07
8.74605e-07
-2.59282e-07
9.5331e-07
-2.47248e-07
1.02852e-06
-2.3569e-07
1.10041e-06
-2.24634e-07
1.16909e-06
-2.14109e-07
1.23474e-06
-2.04121e-07
1.29749e-06
-1.94673e-07
1.35751e-06
-1.8575e-07
1.41493e-06
-1.77342e-07
1.46991e-06
-1.69443e-07
1.52259e-06
-1.62047e-07
1.5731e-06
-1.55126e-07
1.62159e-06
-1.48649e-07
1.66824e-06
-1.42596e-07
1.71316e-06
-1.36941e-07
1.75646e-06
-1.31658e-07
1.79826e-06
-1.2672e-07
1.83864e-06
-1.22116e-07
1.8777e-06
-1.17827e-07
1.91552e-06
-1.1384e-07
1.95218e-06
-1.10127e-07
1.98777e-06
-1.06674e-07
2.02236e-06
-1.03461e-07
2.05601e-06
-1.00478e-07
2.08879e-06
-9.77078e-08
2.12075e-06
-9.51441e-08
2.15194e-06
-9.27612e-08
2.18242e-06
-9.05345e-08
2.21224e-06
-8.84587e-08
2.24142e-06
-8.6526e-08
2.27001e-06
-8.47006e-08
2.29804e-06
-8.29638e-08
2.32553e-06
-8.13099e-08
2.35251e-06
-7.97368e-08
2.379e-06
-7.82379e-08
2.40503e-06
-7.68005e-08
2.43058e-06
-7.54053e-08
2.45568e-06
-7.40219e-08
2.48034e-06
-7.26414e-08
2.50451e-06
-7.12484e-08
2.52819e-06
-6.97745e-08
2.55134e-06
-6.81472e-08
2.57386e-06
-6.62996e-08
2.59563e-06
-6.40728e-08
2.61649e-06
-6.1254e-08
2.63617e-06
-5.75754e-08
2.65427e-06
-5.25445e-08
2.67024e-06
-4.53182e-08
2.68325e-06
-3.44707e-08
2.69255e-06
-1.73037e-08
2.69741e-06
1.0704e-08
2.69955e-06
6.01324e-08
1.48003e-07
2.70117e-06
3.94359e-08
-2.42273e-07
5.75411e-08
-2.29268e-07
6.91267e-08
-1.97723e-07
7.44769e-08
-1.63871e-07
7.3531e-08
-1.29503e-07
6.60856e-08
-9.49298e-08
5.22326e-08
-6.03263e-08
3.1742e-08
-2.585e-08
4.64351e-09
8.37248e-09
-2.94879e-08
4.22501e-08
-7.08362e-08
7.57672e-08
-1.19929e-07
1.08923e-07
-1.77095e-07
1.41768e-07
-2.428e-07
1.74388e-07
-3.17112e-07
2.06828e-07
-4.00647e-07
2.39039e-07
-4.93487e-07
2.71092e-07
-5.95397e-07
3.03076e-07
-7.05223e-07
3.34952e-07
-8.21219e-07
3.66408e-07
-9.40789e-07
3.96776e-07
-1.06129e-06
4.25048e-07
-1.18016e-06
4.50097e-07
-1.29549e-06
4.70938e-07
-1.40579e-06
4.86905e-07
-1.51017e-06
4.97721e-07
-1.60814e-06
5.03439e-07
-1.69977e-06
5.04372e-07
-1.78541e-06
5.01006e-07
-1.86576e-06
4.93952e-07
-1.94152e-06
4.83883e-07
-2.01354e-06
4.7148e-07
-2.0825e-06
4.57405e-07
-2.14907e-06
4.42266e-07
-2.21368e-06
4.26573e-07
-2.27676e-06
4.10761e-07
-2.33851e-06
3.95183e-07
-2.3992e-06
3.80112e-07
-2.45887e-06
3.65746e-07
-2.51768e-06
3.52223e-07
-2.57563e-06
3.39627e-07
-2.63281e-06
3.27995e-07
-2.6892e-06
3.17334e-07
-2.74488e-06
3.0762e-07
-2.79982e-06
2.9881e-07
-2.8541e-06
2.90848e-07
-2.90769e-06
2.83665e-07
-2.96067e-06
2.77187e-07
-3.01301e-06
2.71336e-07
-3.06478e-06
2.6603e-07
-3.11597e-06
2.61187e-07
-3.16663e-06
2.56728e-07
-3.21671e-06
2.52573e-07
-3.26627e-06
2.48641e-07
-3.31526e-06
2.44854e-07
-3.36369e-06
2.41134e-07
-3.41151e-06
2.37406e-07
-3.4587e-06
2.33592e-07
-3.5052e-06
2.29619e-07
-3.55097e-06
2.25411e-07
-3.59591e-06
2.20897e-07
-3.63994e-06
2.16002e-07
-3.68295e-06
2.10652e-07
-3.72484e-06
2.04772e-07
-3.76548e-06
1.98289e-07
-3.80473e-06
1.9113e-07
-3.84244e-06
1.83226e-07
-3.87844e-06
1.74511e-07
-3.91253e-06
1.6492e-07
-3.94452e-06
1.54393e-07
-3.97418e-06
1.42868e-07
-4.00128e-06
1.30288e-07
-4.02555e-06
1.16599e-07
-4.0467e-06
1.01746e-07
-4.06443e-06
8.56814e-08
-4.07837e-06
6.83608e-08
-4.08816e-06
4.97379e-08
-4.09337e-06
2.97665e-08
-4.0936e-06
8.41219e-09
-4.08847e-06
-1.43488e-08
-4.0776e-06
-3.85131e-08
-4.06064e-06
-6.40418e-08
-4.03726e-06
-9.08681e-08
-4.00711e-06
-1.18904e-07
-3.96991e-06
-1.48037e-07
-3.92539e-06
-1.78131e-07
-3.87332e-06
-2.09024e-07
-3.81348e-06
-2.40548e-07
-3.74561e-06
-2.72475e-07
-3.66978e-06
-3.04617e-07
-3.58613e-06
-3.36702e-07
-3.49483e-06
-3.68488e-07
-3.39597e-06
-3.99694e-07
-3.28974e-06
-4.29998e-07
-3.1764e-06
-4.59049e-07
-3.05634e-06
-4.86611e-07
-2.92996e-06
-5.12426e-07
-2.79779e-06
-5.36154e-07
-2.6604e-06
-5.57576e-07
-2.51843e-06
-5.76471e-07
-2.37256e-06
-5.92686e-07
-2.2235e-06
-6.06092e-07
-2.072e-06
-6.16622e-07
-1.9188e-06
-6.24272e-07
-1.76466e-06
-6.29078e-07
-1.61026e-06
-6.31152e-07
-1.45629e-06
-6.30604e-07
-1.30334e-06
-6.2761e-07
-1.15199e-06
-6.22305e-07
-1.00276e-06
-6.14909e-07
-8.5611e-07
-6.05581e-07
-7.12435e-07
-5.94578e-07
-5.72076e-07
-5.82075e-07
-4.35318e-07
-5.68355e-07
-3.0238e-07
-5.53601e-07
-1.7341e-07
-5.38108e-07
-4.84386e-08
-5.22107e-07
7.24153e-08
-5.05769e-07
1.88964e-07
-4.89136e-07
3.01081e-07
-4.72328e-07
4.08758e-07
-4.5538e-07
5.11988e-07