/*--------------------------------*- C++ -*----------------------------------*\
  =========                 |
  \\      /  F ield         | OpenFOAM: The Open Source CFD Toolbox
   \\    /   O peration     | Website:  https://openfoam.org
    \\  /    A nd           | Version:  9
     \\/     M anipulation  |
\*---------------------------------------------------------------------------*/
FoamFile
{
    format      ascii;
    class       volScalarField;
    location    "0.69";
    object      k;
}
// * * * * * * * * * * * * * * * * * * * * * * * * * * * * * * * * * * * * * //

dimensions      [0 2 -2 0 0 0 0];

internalField   nonuniform List<scalar> 
2268
(
0.00384757
0.00611761
0.00859658
0.0107663
0.0125938
0.0141602
0.0155762
0.0169047
0.0181683
0.0193512
0.0204262
0.0213583
0.0221105
0.0226346
0.0228606
0.0226966
0.0220563
0.0208783
0.0191499
0.016962
0.0145637
0.0119564
0.00821617
0.00608482
0.011915
0.0173997
0.022149
0.0262551
0.0299071
0.0332371
0.0363103
0.0391421
0.0417396
0.0440748
0.0460949
0.0477344
0.0489074
0.0494947
0.0493457
0.0483155
0.0463091
0.04332
0.0394544
0.0347025
0.02742
0.015233
0.00709384
0.0147141
0.0213097
0.0273268
0.0327418
0.03761
0.0420166
0.046028
0.0496913
0.0530197
0.0559899
0.0585526
0.0606434
0.0621791
0.063049
0.0631221
0.0622781
0.0604405
0.0575745
0.0535792
0.0478571
0.0385304
0.0199152
0.0074371
0.0161547
0.0235729
0.030657
0.0371643
0.0429985
0.0482231
0.0529327
0.0571962
0.0610411
0.0644543
0.067397
0.0698159
0.0716414
0.0727839
0.0731438
0.0726412
0.0712064
0.0687745
0.0651034
0.0592971
0.0489155
0.0247209
0.00735104
0.0168122
0.02505
0.0331913
0.0407147
0.0473941
0.0533076
0.0585891
0.0633356
0.0675911
0.0713545
0.0746012
0.0772938
0.0793814
0.0807994
0.0814803
0.0813773
0.0804309
0.0785673
0.0754707
0.0700606
0.0592407
0.0303748
0.00718906
0.0169943
0.0261606
0.035411
0.0438906
0.0513085
0.0578034
0.0635614
0.068709
0.0733042
0.0773573
0.0808596
0.0837932
0.086128
0.0878242
0.0888444
0.0891666
0.0887456
0.0875134
0.0851372
0.0804826
0.069964
0.0383377
0.00719474
0.0170736
0.0272217
0.0376289
0.0469672
0.0549968
0.0619663
0.0681174
0.0736004
0.0784811
0.0827772
0.0864986
0.0896492
0.0922199
0.0941938
0.0955603
0.0963147
0.0964277
0.0958504
0.0942842
0.0907058
0.0815763
0.0513582
0.00747157
0.0174811
0.0286438
0.0400926
0.0501187
0.0586034
0.0659361
0.0724031
0.0781658
0.0832872
0.0877872
0.0916979
0.0950456
0.0978411
0.100087
0.101797
0.102979
0.103616
0.10369
0.102973
0.100722
0.0944153
0.0730922
0.240533
0.392302
0.476729
0.46962
0.37145
0.246276
0.179795
0.153469
0.143446
0.140289
0.140256
0.142141
0.144817
0.145684
0.139772
0.123857
0.100089
0.0681384
0.0294757
0.447741
0.865459
1.18725
1.30589
1.10095
0.705049
0.437612
0.323759
0.283384
0.269411
0.264204
0.263446
0.26592
0.2682
0.259977
0.232926
0.19027
0.1334
0.051994
0.451614
1.04022
1.64259
2.1545
1.99301
1.35836
0.771246
0.472263
0.373421
0.341832
0.329106
0.323807
0.322722
0.322435
0.310818
0.277505
0.226628
0.160971
0.0669501
0.397461
0.912312
1.31113
1.9425
2.47857
2.43845
1.43535
0.678683
0.458388
0.39706
0.373559
0.363287
0.358196
0.354343
0.33925
0.302159
0.247391
0.178561
0.0769112
0.330247
0.63526
0.792943
1.2656
1.89879
2.41914
2.16002
1.00129
0.558385
0.447682
0.408262
0.393055
0.384008
0.375822
0.35677
0.317236
0.26074
0.190519
0.0842561
0.247412
0.344302
0.481664
0.832259
1.39536
1.91366
1.9899
1.21591
0.638327
0.485073
0.435704
0.41751
0.405424
0.391684
0.367732
0.326619
0.269907
0.199195
0.0900858
0.159692
0.238926
0.361112
0.611335
1.07649
1.57226
1.76527
1.19563
0.656911
0.501404
0.449081
0.435058
0.425533
0.404191
0.374492
0.332602
0.276677
0.206104
0.0949295
0.128983
0.22303
0.33438
0.532417
0.899991
1.3389
1.55764
1.11035
0.653712
0.509033
0.460307
0.450182
0.445542
0.413228
0.378668
0.336932
0.282145
0.211871
0.0990346
0.00920956
0.0193236
0.0320661
0.0447268
0.055387
0.0642822
0.0719954
0.0788359
0.0849539
0.0903854
0.0951451
0.0993097
0.102938
0.106066
0.10872
0.110937
0.112721
0.114078
0.115026
0.115424
0.114909
0.112544
0.104499
0.0137253
0.0270456
0.0408495
0.0533801
0.0632956
0.0719893
0.0798354
0.0869772
0.0934584
0.0991813
0.104143
0.10855
0.112491
0.116019
0.119178
0.122018
0.12452
0.126751
0.128803
0.130691
0.132564
0.134915
0.138529
0.0186336
0.0371717
0.04982
0.0609436
0.0706678
0.0795036
0.0876226
0.0951667
0.102084
0.107924
0.11279
0.117278
0.121416
0.125227
0.128753
0.132047
0.135104
0.138072
0.141058
0.144172
0.1479
0.153265
0.161402
0.0221842
0.0449358
0.0574982
0.0671155
0.0759406
0.0846066
0.0931275
0.101507
0.109328
0.115867
0.121117
0.125739
0.129991
0.133936
0.137602
0.141099
0.144537
0.148136
0.15192
0.156077
0.161448
0.169475
0.181369
0.0232292
0.0495743
0.062846
0.0723843
0.0805224
0.0883436
0.0962306
0.104286
0.112173
0.119332
0.125706
0.13125
0.13635
0.141077
0.145346
0.149134
0.152752
0.156839
0.161439
0.166714
0.173952
0.185285
0.202518
0.0239112
0.0519275
0.0660313
0.0759689
0.0841411
0.09163
0.0989495
0.106284
0.113476
0.120205
0.1265
0.132566
0.138523
0.144168
0.149287
0.153768
0.158035
0.162985
0.168961
0.176217
0.185699
0.200884
0.226455
0.0242211
0.0530354
0.0677919
0.0782723
0.0867997
0.0943577
0.101462
0.108356
0.115039
0.121379
0.1274
0.133288
0.139143
0.144856
0.15032
0.155655
0.161308
0.167909
0.175591
0.184529
0.196117
0.214267
0.242382
0.0243871
0.0534797
0.0685957
0.0794868
0.0883973
0.0962088
0.103386
0.110176
0.116658
0.122806
0.128649
0.134319
0.139934
0.145518
0.151098
0.156858
0.163188
0.170543
0.179222
0.189685
0.203152
0.221246
0.242743
0.0244188
0.053522
0.0687528
0.0798545
0.0890304
0.0970924
0.10445
0.111326
0.117824
0.123968
0.129792
0.13539
0.140879
0.146354
0.151921
0.157783
0.164274
0.171788
0.180701
0.191516
0.205156
0.222113
0.24083
0.0243309
0.0532557
0.0684256
0.0795698
0.0888691
0.0970945
0.104615
0.111629
0.118237
0.124481
0.130396
0.136051
0.141544
0.146987
0.15251
0.15831
0.16467
0.171941
0.180496
0.190762
0.20325
0.218197
0.234538
0.0241299
0.0527188
0.0677051
0.0787685
0.0880689
0.0963538
0.103968
0.11109
0.117815
0.124186
0.130237
0.136017
0.141601
0.147088
0.152602
0.15832
0.164484
0.171397
0.179399
0.188846
0.200065
0.213173
0.227874
0.0238227
0.0519379
0.0666584
0.0775553
0.0867635
0.0950151
0.102641
0.109811
0.116612
0.123089
0.12927
0.135192
0.140909
0.146498
0.152066
0.157765
0.163799
0.170429
0.177955
0.186681
0.196868
0.208666
0.222136
0.02342
0.0509435
0.0653466
0.0760205
0.0850704
0.0932158
0.100781
0.10793
0.114751
0.121288
0.127567
0.133615
0.139472
0.145197
0.150877
0.156639
0.162657
0.169156
0.176395
0.184644
0.194143
0.205081
0.217668
0.0229306
0.049776
0.0638308
0.0742476
0.0830946
0.0910816
0.0985277
0.105598
0.112381
0.118924
0.125256
0.131398
0.137381
0.143251
0.14908
0.154974
0.161083
0.167601
0.174756
0.182792
0.191942
0.20242
0.214487
0.0223541
0.0484943
0.0621688
0.0723131
0.0809331
0.0887254
0.0960103
0.102954
0.10965
0.116151
0.122487
0.128683
0.134765
0.140772
0.146764
0.152833
0.159109
0.165763
0.173001
0.18105
0.19014
0.200501
0.21241
0.0217095
0.0471358
0.0604194
0.0702851
0.078668
0.0862484
0.0933431
0.100125
0.106695
0.113111
0.119409
0.125619
0.131766
0.137888
0.144038
0.150299
0.156785
0.163652
0.171092
0.17932
0.188571
0.199088
0.211161
0.0210224
0.0457336
0.0586421
0.0682275
0.0763709
0.0837316
0.0906235
0.0972218
0.103634
0.10993
0.116155
0.12234
0.128518
0.134727
0.141017
0.147465
0.154179
0.161301
0.169015
0.177533
0.187096
0.197966
0.210449
0.02032
0.0443291
0.0568839
0.0661983
0.0741059
0.0812451
0.0879271
0.0943304
0.100569
0.106719
0.112837
0.118966
0.125142
0.131406
0.137811
0.14443
0.151367
0.15876
0.166784
0.175654
0.185619
0.196961
0.210008
0.0196283
0.0429637
0.0551876
0.0642494
0.0719284
0.0788484
0.0853183
0.0915198
0.0975728
0.103562
0.109551
0.115593
0.121736
0.128024
0.134515
0.141282
0.148427
0.156084
0.164428
0.173675
0.184082
0.195947
0.209616
0.0189712
0.0416765
0.0535951
0.0624236
0.0698846
0.0765908
0.0828492
0.0888455
0.0947056
0.100522
0.106368
0.112302
0.118382
0.124664
0.131211
0.138097
0.145425
0.153329
0.161981
0.1716
0.182446
0.194827
0.209097
0.0183692
0.0405023
0.0521437
0.0607574
0.0680122
0.0745111
0.0805606
0.0863503
0.0920124
0.0976471
0.103335
0.109145
0.115142
0.121388
0.127959
0.134934
0.142416
0.150538
0.159473
0.169436
0.180688
0.193535
0.208324
0.0178391
0.03947
0.0508652
0.0592813
0.0663409
0.0726388
0.0784823
0.0840652
0.0895258
0.0949714
0.100491
0.106161
0.112054
0.118244
0.124807
0.131836
0.139438
0.147745
0.156926
0.16719
0.178793
0.192026
0.207215
0.017395
0.0386021
0.0497827
0.0580177
0.0648923
0.0709951
0.0766352
0.0820112
0.0872674
0.0925176
0.0978579
0.103374
0.109146
0.115255
0.121785
0.128834
0.136518
0.14497
0.154353
0.164867
0.176753
0.190279
0.205733
0.017048
0.0379112
0.0489118
0.0569826
0.0636811
0.0695933
0.0750318
0.0802003
0.0852489
0.0902979
0.0954499
0.100798
0.10643
0.112436
0.118906
0.125945
0.13367
0.142222
0.151759
0.162468
0.174567
0.188293
0.203886
0.0167999
0.0374061
0.0482614
0.0561844
0.0627148
0.0684398
0.0736774
0.0786371
0.0834747
0.0883162
0.0932706
0.0984372
0.103912
0.10979
0.116172
0.123168
0.130897
0.139502
0.149143
0.159991
0.172237
0.186082
0.201709
0.0166499
0.0370882
0.0478332
0.0556245
0.0619941
0.0675347
0.0725714
0.0773202
0.0819427
0.0865701
0.0913168
0.0962879
0.101586
0.107312
0.113576
0.120493
0.128188
0.136802
0.146491
0.157425
0.169763
0.183663
0.199252
0.0165949
0.0369535
0.0476227
0.0552983
0.0615143
0.0668732
0.0717087
0.0762441
0.0806466
0.0850526
0.0895809
0.0943416
0.0994422
0.104992
0.111105
0.117904
0.12552
0.134096
0.143785
0.154745
0.167128
0.181043
0.196558
0.0166304
0.0369944
0.0476215
0.0551972
0.0612672
0.0664471
0.0710812
0.0754005
0.0795779
0.0837545
0.0880528
0.0925871
0.0974691
0.102813
0.10874
0.115378
0.122866
0.131351
0.140986
0.151922
0.164296
0.178201
0.193639
0.0167514
0.0372023
0.0478194
0.055311
0.061243
0.0662473
0.0706802
0.0747808
0.0787279
0.0826666
0.0867228
0.0910136
0.0956538
0.100762
0.106463
0.112892
0.120196
0.128527
0.138044
0.148899
0.161218
0.17508
0.190458
0.0169529
0.0375703
0.048208
0.0556309
0.0614334
0.0662664
0.070499
0.0743787
0.0780903
0.0817825
0.085584
0.0896135
0.0939876
0.0988268
0.10426
0.110428
0.117483
0.125588
0.13491
0.145608
0.157813
0.171595
0.186923
0.0172314
0.0380964
0.0487842
0.0561535
0.0618353
0.0665017
0.0705353
0.0741924
0.0776637
0.0811011
0.0846353
0.0883855
0.0924687
0.0970056
0.102127
0.107975
0.114711
0.122505
0.131538
0.141985
0.15399
0.167635
0.182884
0.0175885
0.0387872
0.049554
0.0568847
0.0624545
0.0669589
0.0707948
0.0742278
0.077454
0.0806286
0.0838832
0.0873369
0.0911051
0.0953066
0.100071
0.105541
0.111881
0.11927
0.127904
0.137978
0.149664
0.163071
0.178188
0.0180313
0.0396621
0.0505384
0.0578453
0.0633105
0.067656
0.0712943
0.0745006
0.0774767
0.0803807
0.0833446
0.086486
0.089917
0.0937523
0.0981168
0.103151
0.109018
0.115904
0.124015
0.133571
0.144779
0.157794
0.172653
0.0185758
0.0407592
0.0517801
0.059077
0.0644417
0.0686272
0.0720642
0.0750388
0.0777587
0.0803845
0.0830477
0.0858631
0.0889381
0.092381
0.0963088
0.100855
0.106177
0.11246
0.11992
0.128796
0.139333
0.151745
0.166141
0.0192519
0.0421434
0.0533532
0.0606513
0.0659115
0.0699271
0.0731518
0.0758849
0.0783398
0.080679
0.0830326
0.0855113
0.088216
0.0912462
0.0947084
0.0987245
0.10344
0.109033
0.115718
0.123747
0.133399
0.144947
0.158592
0.0201207
0.0439249
0.05538
0.0626805
0.0678148
0.0716339
0.0746229
0.0770962
0.0792731
0.0813163
0.0833525
0.0854868
0.0878119
0.0904167
0.0933947
0.096852
0.100918
0.105752
0.111559
0.11859
0.127141
0.137537
0.150074
0.0212887
0.0462869
0.0580555
0.0653305
0.0702826
0.0738504
0.076561
0.078745
0.0806252
0.0823612
0.0840735
0.085859
0.0878007
0.0899754
0.0924615
0.0953471
0.0987394
0.102776
0.107635
0.11355
0.120814
0.129779
0.140822
0.0229121
0.0495777
0.0616936
0.0688358
0.0734809
0.0766989
0.0790634
0.0809158
0.0824752
0.0838917
0.0852753
0.0867116
0.0882716
0.0900189
0.0920161
0.0943322
0.0970502
0.100278
0.104162
0.108898
0.114752
0.122064
0.131249
0.0253333
0.0544048
0.066754
0.073485
0.0775922
0.0803059
0.0822317
0.0837009
0.0849133
0.086
0.0870535
0.0881444
0.0893297
0.0906589
0.092179
0.09394
0.0960012
0.0984401
0.101363
0.10492
0.109322
0.114861
0.121929
0.0293675
0.0618944
0.0738446
0.0795563
0.0827594
0.0847724
0.0861585
0.0871961
0.0880418
0.0887945
0.0895228
0.0902778
0.0911007
0.0920263
0.0930868
0.0943151
0.0957492
0.0974379
0.0994491
0.101881
0.104877
0.10865
0.113505
0.0375052
0.0739978
0.0834515
0.0871141
0.0889922
0.0901359
0.0909168
0.0915015
0.0919796
0.0924073
0.092824
0.0932591
0.0937368
0.0942773
0.094899
0.0956202
0.0964607
0.097446
0.0986107
0.100006
0.101708
0.103835
0.106565
0.0556054
0.0917829
0.094814
0.0956488
0.096079
0.0963633
0.0965718
0.0967363
0.0968763
0.0970056
0.0971347
0.0972725
0.0974261
0.0976022
0.0978064
0.0980445
0.0983225
0.0986472
0.0990284
0.0994796
0.100022
0.100687
0.101525
0.0847701
0.0830224
0.0886398
0.103572
0.14468
0.151194
0.160511
0.173396
0.170964
0.178421
0.187346
0.198296
0.193845
0.202532
0.211332
0.220266
0.221048
0.23315
0.24216
0.246822
0.25648
0.277454
0.29012
0.283295
0.267493
0.280747
0.295418
0.302233
0.257966
0.267213
0.278094
0.2924
0.253968
0.262595
0.273513
0.288947
0.247148
0.255987
0.266674
0.280531
0.240063
0.248743
0.258779
0.270747
0.23366
0.241916
0.251155
0.261571
0.228541
0.236338
0.244893
0.254246
0.224893
0.232346
0.240427
0.249125
0.222632
0.22994
0.237814
0.246239
0.221493
0.228872
0.236805
0.245293
0.221129
0.228758
0.236964
0.245764
0.221183
0.229171
0.237775
0.247025
0.221335
0.229713
0.238743
0.248465
0.221323
0.230056
0.239462
0.249585
0.220957
0.229962
0.239641
0.250035
0.220121
0.229292
0.239116
0.249628
0.218772
0.228
0.237841
0.24832
0.21693
0.226118
0.235865
0.246186
0.21466
0.223735
0.233307
0.243381
0.212051
0.220968
0.230319
0.240099
0.209184
0.21793
0.22705
0.236528
0.206107
0.214697
0.223607
0.232814
0.202813
0.21128
0.220027
0.229023
0.199219
0.207611
0.216255
0.225116
0.195173
0.203532
0.212135
0.220941
0.190462
0.198814
0.20742
0.216236
0.184861
0.193179
0.201801
0.210662
0.178163
0.18638
0.194957
0.203846
0.170222
0.178218
0.186642
0.195453
0.161022
0.168613
0.176706
0.185274
0.150729
0.157678
0.165198
0.17328
0.13973
0.145765
0.152414
0.159696
0.128632
0.133484
0.138939
0.14505
0.118202
0.121658
0.125624
0.130182
0.109225
0.111199
0.113499
0.116197
0.102328
0.10292
0.103605
0.104409
0.162383
0.236427
0.346056
0.513769
0.769404
1.08833
1.249
0.934895
0.633919
0.512867
0.471041
0.470014
0.464967
0.419908
0.382439
0.341601
0.288057
0.218039
0.102758
0.201374
0.26549
0.389658
0.564777
0.760284
0.929446
0.986492
0.780896
0.593024
0.507408
0.481309
0.489083
0.464729
0.423557
0.38664
0.345853
0.293582
0.225738
0.107416
0.221179
0.289708
0.412682
0.580144
0.742371
0.821934
0.809108
0.672009
0.561403
0.515576
0.50642
0.505844
0.470632
0.431024
0.391366
0.347357
0.294938
0.229197
0.109793
0.237088
0.293564
0.406179
0.55843
0.698066
0.754703
0.70459
0.604511
0.55178
0.545759
0.557484
0.531566
0.488829
0.44371
0.396949
0.347322
0.292091
0.225389
0.108979
0.252959
0.28938
0.381206
0.524674
0.663831
0.704631
0.641283
0.569872
0.56711
0.599065
0.626468
0.569972
0.514121
0.4591
0.402922
0.346425
0.286207
0.216066
0.101975
0.272102
0.286267
0.344218
0.45601
0.604657
0.666305
0.604436
0.558101
0.595241
0.675509
0.684155
0.601383
0.538952
0.475386
0.409869
0.346064
0.28002
0.204049
0.0925323
0.291065
0.291516
0.321497
0.390373
0.496739
0.598766
0.589498
0.562432
0.641193
0.767743
0.710327
0.625928
0.564119
0.495252
0.421549
0.352582
0.282463
0.19761
0.0855401
0.306073
0.3047
0.318546
0.355191
0.418979
0.503907
0.560477
0.595431
0.707574
0.825158
0.696829
0.644034
0.596034
0.525441
0.445391
0.376757
0.309182
0.205962
0.0857513
0.318679
0.329795
0.33146
0.348825
0.384713
0.439874
0.512549
0.615138
0.724829
0.711171
0.677221
0.674184
0.646522
0.572719
0.486195
0.412196
0.341733
0.220731
0.0959799
0.30878
0.349619
0.356878
0.360836
0.380675
0.416558
0.470649
0.550517
0.631536
0.653488
0.690127
0.733496
0.724036
0.628026
0.517695
0.421007
0.320939
0.223751
0.0911616
0.294322
0.336667
0.373867
0.383729
0.393674
0.419161
0.459914
0.518879
0.59002
0.660171
0.749268
0.823485
0.797292
0.65731
0.531277
0.415929
0.301839
0.204557
0.0830844
0.281254
0.31701
0.357808
0.394349
0.413837
0.437927
0.478724
0.53661
0.617096
0.727068
0.871193
0.926314
0.823244
0.680565
0.552099
0.424354
0.30518
0.207866
0.0910046
0.271322
0.300688
0.336128
0.376531
0.419674
0.460742
0.5268
0.598355
0.697153
0.848585
1.02142
0.969349
0.85108
0.726934
0.583523
0.453279
0.330645
0.22994
0.108567
0.264713
0.290233
0.321282
0.358505
0.404238
0.460268
0.543076
0.647862
0.782695
0.949431
1.00822
0.957888
0.888477
0.768324
0.610608
0.493119
0.364261
0.261443
0.132253
0.261252
0.285211
0.314495
0.351391
0.401309
0.476428
0.591118
0.725805
0.856291
0.930672
0.940954
0.925586
0.869058
0.743062
0.603017
0.495915
0.42326
0.298652
0.156519
0.260446
0.284556
0.314314
0.353096
0.407876
0.491837
0.617599
0.757783
0.851368
0.878813
0.884657
0.882404
0.835893
0.731254
0.620391
0.552374
0.494468
0.346373
0.177303
0.261543
0.286822
0.318247
0.359535
0.417458
0.502303
0.620218
0.740612
0.81084
0.826893
0.832519
0.835493
0.801113
0.725124
0.64926
0.62575
0.552271
0.387139
0.195817
0.263671
0.290492
0.323784
0.366961
0.425448
0.505743
0.608243
0.706608
0.762973
0.777715
0.784955
0.791226
0.770771
0.723276
0.679198
0.666966
0.578636
0.416276
0.211387
0.265989
0.294229
0.328926
0.372815
0.429597
0.502445
0.588289
0.667975
0.715273
0.731411
0.742496
0.755467
0.752074
0.729001
0.70532
0.688682
0.596546
0.438435
0.22223
0.267821
0.297038
0.332364
0.375736
0.429287
0.493884
0.565292
0.629623
0.670311
0.688857
0.704737
0.725285
0.739143
0.739054
0.731145
0.717269
0.619829
0.456943
0.229329
0.268713
0.298321
0.333437
0.375256
0.424711
0.481288
0.540729
0.593254
0.628801
0.649577
0.670159
0.698012
0.726669
0.746394
0.753254
0.743775
0.643637
0.47271
0.233296
0.26844
0.297844
0.331997
0.371495
0.416453
0.465655
0.515317
0.558743
0.590202
0.612517
0.63693
0.670623
0.71015
0.7452
0.76544
0.759071
0.665438
0.487578
0.234632
0.266977
0.29566
0.328265
0.364939
0.405309
0.447906
0.4896
0.525945
0.554046
0.577138
0.604174
0.641654
0.687789
0.73332
0.764654
0.762903
0.680961
0.499476
0.234007
0.264452
0.29203
0.322698
0.356294
0.392201
0.428972
0.46417
0.494972
0.520307
0.543607
0.572207
0.611725
0.661138
0.712228
0.750006
0.753148
0.686964
0.507207
0.233938
0.261094
0.287336
0.315879
0.346367
0.378094
0.409799
0.439698
0.466153
0.489245
0.512443
0.5419
0.582357
0.632987
0.686012
0.725663
0.73083
0.67749
0.518428
0.242413
0.257178
0.282005
0.308423
0.335958
0.363917
0.39129
0.41688
0.439917
0.461211
0.484161
0.514027
0.554797
0.60561
0.658867
0.698768
0.705027
0.659002
0.52004
0.257709
0.252971
0.276444
0.300891
0.325778
0.350476
0.374233
0.396349
0.416693
0.436527
0.459113
0.489007
0.529575
0.579914
0.632815
0.673453
0.683431
0.646189
0.505423
0.252468
0.248689
0.270982
0.293734
0.316386
0.338389
0.359226
0.378596
0.396818
0.415423
0.437484
0.466957
0.506668
0.555658
0.607258
0.647892
0.66066
0.628329
0.486292
0.235678
0.244451
0.265827
0.287248
0.308145
0.328048
0.346636
0.363902
0.380471
0.397998
0.419321
0.447848
0.485884
0.532393
0.581333
0.620612
0.634658
0.605097
0.468707
0.221602
0.240253
0.26103
0.281539
0.301199
0.319604
0.336577
0.352319
0.367636
0.384197
0.404558
0.431594
0.467099
0.509953
0.55485
0.591866
0.606914
0.581014
0.452983
0.209792
0.235951
0.256472
0.276511
0.295464
0.31296
0.328918
0.343666
0.358092
0.373793
0.393006
0.41807
0.450263
0.488376
0.527902
0.561505
0.577359
0.55699
0.4373
0.198656
0.231265
0.25186
0.271864
0.290628
0.307781
0.323288
0.337532
0.35141
0.366384
0.384345
0.407099
0.435401
0.467905
0.500817
0.528902
0.543799
0.528175
0.419142
0.191103
0.225808
0.24675
0.26711
0.286166
0.303504
0.319085
0.333288
0.346957
0.361378
0.378093
0.398409
0.422596
0.449116
0.474595
0.495024
0.504832
0.49017
0.410106
0.196911
0.219126
0.240592
0.261617
0.281375
0.299371
0.315505
0.330097
0.343891
0.357977
0.373571
0.391555
0.411825
0.432731
0.451212
0.463835
0.46699
0.452804
0.399296
0.213234
0.210768
0.232794
0.25467
0.27544
0.294483
0.311585
0.326956
0.341198
0.355197
0.36988
0.385812
0.402671
0.41887
0.431777
0.438632
0.437177
0.423341
0.38179
0.2187
0.200344
0.222798
0.245557
0.267523
0.287901
0.306306
0.322785
0.337768
0.351934
0.365968
0.380206
0.394245
0.406677
0.415303
0.417968
0.413245
0.39838
0.360182
0.209662
0.187713
0.210187
0.233671
0.256882
0.278783
0.29874
0.316584
0.332547
0.347113
0.360765
0.373687
0.385446
0.394793
0.39984
0.398863
0.390843
0.373576
0.334506
0.195245
0.172961
0.194715
0.218585
0.242986
0.266574
0.288287
0.307675
0.324777
0.33991
0.353407
0.365343
0.375268
0.382028
0.383937
0.379394
0.367456
0.346885
0.30701
0.179567
0.156463
0.176445
0.200038
0.225536
0.251203
0.274977
0.296055
0.314359
0.330116
0.343565
0.354718
0.363123
0.367683
0.36668
0.358131
0.340963
0.315858
0.276425
0.164044
0.138951
0.155658
0.177544
0.203999
0.233215
0.259837
0.282806
0.302283
0.318595
0.331964
0.342365
0.349353
0.351824
0.347735
0.333893
0.30829
0.276557
0.238984
0.146711
0.121535
0.132699
0.149729
0.175823
0.213782
0.245124
0.270282
0.290807
0.307512
0.320702
0.330328
0.335906
0.336206
0.328442
0.306455
0.262557
0.221156
0.186171
0.129014
0.106005
0.109501
0.115883
0.132361
0.195955
0.234411
0.261659
0.282905
0.299835
0.312907
0.322038
0.326609
0.324992
0.312904
0.278028
0.176131
0.139535
0.119206
0.106802
)
;

boundaryField
{
    leftWall
    {
        type            kqRWallFunction;
        value           nonuniform List<scalar> 
50
(
0.00384757
0.00608482
0.00709384
0.0074371
0.00735104
0.00718906
0.00719474
0.00747157
0.00920956
0.0137253
0.0186336
0.0221842
0.0232292
0.0239112
0.0242211
0.0243871
0.0244188
0.0243309
0.0241299
0.0238227
0.02342
0.0229306
0.0223541
0.0217095
0.0210224
0.02032
0.0196283
0.0189712
0.0183692
0.0178391
0.017395
0.017048
0.0167999
0.0166499
0.0165949
0.0166304
0.0167514
0.0169529
0.0172314
0.0175885
0.0180313
0.0185758
0.0192519
0.0201207
0.0212887
0.0229121
0.0253333
0.0293675
0.0375052
0.0556054
)
;
    }
    rightWall
    {
        type            kqRWallFunction;
        value           nonuniform List<scalar> 
50
(
0.0294757
0.051994
0.0669501
0.0769112
0.0842561
0.0900858
0.0949295
0.0990346
0.102758
0.107416
0.109793
0.108979
0.101975
0.0925323
0.0855401
0.0857513
0.0959799
0.0911616
0.0830844
0.0910046
0.108567
0.132253
0.156519
0.177303
0.195817
0.211387
0.22223
0.229329
0.233296
0.234632
0.234007
0.233938
0.242413
0.257709
0.252468
0.235678
0.221602
0.209792
0.198656
0.191103
0.196911
0.213234
0.2187
0.209662
0.195245
0.179567
0.164044
0.146711
0.129014
0.106802
)
;
    }
    lowerWall
    {
        type            kqRWallFunction;
        value           nonuniform List<scalar> 
62
(
0.00384757
0.00611761
0.00859658
0.0107663
0.0125938
0.0141602
0.0155762
0.0169047
0.0181683
0.0193512
0.0204262
0.0213583
0.0221105
0.0226346
0.0228606
0.0226966
0.0220563
0.0208783
0.0191499
0.016962
0.0145637
0.0119564
0.00821617
0.00821617
0.015233
0.0199152
0.0247209
0.0303748
0.0383377
0.0513582
0.0730922
0.0847701
0.0830224
0.0886398
0.103572
0.240533
0.447741
0.451614
0.397461
0.330247
0.247412
0.159692
0.128983
0.240533
0.392302
0.476729
0.46962
0.37145
0.246276
0.179795
0.153469
0.143446
0.140289
0.140256
0.142141
0.144817
0.145684
0.139772
0.123857
0.100089
0.0681384
0.0294757
)
;
    }
    atmosphere
    {
        type            inletOutlet;
        inletValue      uniform 0.1;
        value           nonuniform List<scalar> 
46
(
0.0556054
0.1
0.1
0.1
0.1
0.1
0.1
0.1
0.1
0.1
0.1
0.1
0.1
0.1
0.1
0.1
0.1
0.1
0.1
0.1
0.1
0.1
0.1
0.1
0.1
0.1
0.1
0.1
0.1
0.1
0.1
0.195955
0.234411
0.261659
0.282905
0.299835
0.312907
0.322038
0.326609
0.324992
0.312904
0.278028
0.1
0.1
0.1
0.106802
)
;
    }
    defaultFaces
    {
        type            empty;
    }
}


// ************************************************************************* //
