/*--------------------------------*- C++ -*----------------------------------*\
  =========                 |
  \\      /  F ield         | OpenFOAM: The Open Source CFD Toolbox
   \\    /   O peration     | Website:  https://openfoam.org
    \\  /    A nd           | Version:  9
     \\/     M anipulation  |
\*---------------------------------------------------------------------------*/
FoamFile
{
    format      ascii;
    class       volScalarField;
    location    "0.69";
    object      p_rgh;
}
// * * * * * * * * * * * * * * * * * * * * * * * * * * * * * * * * * * * * * //

dimensions      [1 -1 -2 0 0 0 0];

internalField   nonuniform List<scalar> 
2268
(
578.196
576.274
579.433
586.798
597.274
610.042
624.683
640.865
658.543
677.427
697.298
717.967
739.228
760.871
782.665
804.332
825.51
845.79
864.496
879.166
889.778
896.999
902.917
578.151
575.694
578.606
585.868
596.584
609.532
624.365
640.852
658.682
677.651
697.566
718.251
739.508
761.134
782.926
804.652
825.996
846.506
865.58
880.785
888.918
892.909
899.691
576.217
574.374
577.978
585.547
596.15
609.237
624.229
640.883
658.881
677.974
697.963
718.683
739.941
761.539
783.286
804.975
826.311
846.766
865.667
881.826
891.081
890.799
897.525
573.28
572.4
577.008
584.882
595.729
608.81
623.944
640.767
658.944
678.181
698.275
719.063
740.351
761.946
783.669
805.319
826.56
846.963
865.72
881.649
892.163
894.407
896.625
569.988
570.052
575.7
583.926
594.884
608.094
623.368
640.368
658.739
678.146
698.377
719.275
740.635
762.27
784.022
805.7
826.949
847.338
866.143
882.199
893.189
896.023
897.24
566.526
567.371
574.033
582.649
593.716
607.03
622.451
639.65
658.244
677.846
698.244
719.292
740.767
762.487
784.332
806.127
827.462
847.959
867.063
883.687
895.646
899.509
898.949
562.394
564.417
571.756
580.821
591.979
605.403
621.046
638.546
657.466
677.324
697.919
719.144
740.76
762.594
784.59
806.594
828.092
848.801
868.432
886.096
900.056
906.355
900.881
557.426
560.425
567.835
577.138
588.315
602.026
618.242
636.459
656.109
676.494
697.401
718.868
740.647
762.598
784.77
807.032
828.745
849.754
870.086
889.228
906.379
917.372
908.012
1251.38
893.276
727.509
618.226
507.148
428.951
394.396
384.87
399.532
432.28
486.354
583.227
751.559
979.101
1183.89
1299.11
1324.5
1287.27
1242.08
1223.86
784.421
666.12
625.553
498.477
412.93
383.609
372.576
386.017
416.853
465.611
550.799
701.517
915.611
1117.42
1239.81
1281.5
1268.43
1240.52
1127.12
693.125
624.706
532.702
385.223
305.31
322.794
348.42
370.936
399.167
439.247
511.5
645.416
851.324
1054.03
1183.77
1239.09
1247.77
1230.18
1028.87
662.422
593.181
508.335
366.273
240.648
208.908
212.51
267.966
357.435
413.048
470.102
586.981
797.589
1009.09
1143.95
1208.92
1223.74
1202.5
986.036
712.471
669.667
545.066
320.373
224.596
210.017
208.689
206.071
206.504
274.212
399.554
534.086
751.973
978.008
1112.49
1190.44
1221.71
1189.75
995.756
875.884
713.657
596.488
389.219
217.246
208.873
208.179
206.565
206.045
205.565
215.672
402.599
720.674
958.386
1086.57
1159.9
1215.86
1174.76
1141.57
917.751
626.204
440.604
339.373
210.963
207.409
207.675
206.487
206.036
205.787
205.795
251.135
631.204
952.519
1067.27
1129.32
1191.38
1159.05
1105.7
882.965
376.085
222.067
235.011
221.252
206.959
207.176
206.31
205.922
205.719
206.433
222.382
555.407
957.733
990.92
1031.96
1167.4
1143.28
366.175
377.632
395.47
423.148
455.534
498.342
547.942
597.547
641.97
673.452
695.48
717.87
740.156
762.352
784.839
807.583
829.636
851.067
872.526
894.109
915.929
935.408
952.33
3.45731
7.23391
12.2969
20.6131
39.5519
69.453
113.285
174.932
257.219
365.312
488.69
602.287
692.34
753.397
784.28
809.017
831.327
851.794
873.551
896.192
918.377
938.974
959.543
0.585441
0.57729
0.602227
0.631983
0.6502
0.655281
0.657285
0.658858
0.751526
5.24919
28.3504
74.6406
151.2
262.602
437.718
649.796
782.123
817.824
855.652
897.891
920.287
942.685
967.23
0.558208
0.551389
0.550096
0.540557
0.528605
0.517124
0.508035
0.505563
0.51791
0.539304
0.542695
0.496701
0.425037
0.435923
3.00904
13.032
45.21
151.741
332.054
498.752
564.282
649.736
774.496
0.531805
0.530253
0.532988
0.532286
0.52809
0.52133
0.513418
0.506264
0.499082
0.479171
0.448271
0.424488
0.416822
0.425717
0.437175
0.433258
0.391264
0.290067
0.260693
0.33052
0.54484
13.3062
93.6466
0.50632
0.506814
0.509121
0.510322
0.508899
0.504915
0.499118
0.49233
0.483901
0.469248
0.449104
0.431718
0.421463
0.418104
0.41748
0.418363
0.423518
0.431656
0.448765
0.475847
0.518294
0.598287
0.748213
0.48346
0.483952
0.48514
0.48559
0.484395
0.481496
0.477186
0.471751
0.464982
0.45541
0.442703
0.429945
0.420322
0.415207
0.413698
0.414988
0.419186
0.428907
0.45003
0.486228
0.533011
0.578864
0.632532
0.460639
0.461385
0.462227
0.462406
0.461433
0.459251
0.455957
0.451632
0.446165
0.439085
0.430434
0.421809
0.415178
0.411745
0.411505
0.414216
0.420325
0.431455
0.453411
0.489815
0.541163
0.606309
0.698828
0.438628
0.439324
0.440016
0.440165
0.439456
0.437841
0.435342
0.431976
0.427691
0.422384
0.416306
0.410461
0.406067
0.404013
0.404668
0.408313
0.41565
0.428106
0.44834
0.478135
0.51764
0.564311
0.61571
0.417382
0.417911
0.418449
0.418578
0.418058
0.416851
0.414957
0.412375
0.409095
0.405147
0.400791
0.39668
0.393624
0.392315
0.393237
0.396839
0.403762
0.414915
0.431344
0.453486
0.480606
0.50948
0.535584
0.396879
0.397197
0.397561
0.397646
0.397244
0.396318
0.39486
0.392861
0.390323
0.387309
0.384036
0.380946
0.378597
0.377522
0.378159
0.380907
0.386206
0.394515
0.40615
0.420864
0.43752
0.453198
0.464182
0.377079
0.377175
0.377354
0.37737
0.377026
0.376281
0.375116
0.373512
0.371465
0.369028
0.366364
0.363779
0.361663
0.360404
0.36033
0.361714
0.364793
0.369716
0.376401
0.384276
0.392099
0.397407
0.397094
0.357954
0.357808
0.357811
0.357733
0.357393
0.356741
0.355748
0.35438
0.352616
0.350483
0.348088
0.345639
0.343406
0.341655
0.340593
0.340356
0.341006
0.342482
0.344488
0.346312
0.346728
0.343701
0.334627
0.339458
0.339077
0.338912
0.338719
0.338336
0.337702
0.336777
0.335515
0.333872
0.331841
0.329477
0.326912
0.324325
0.321886
0.319697
0.31777
0.316021
0.314247
0.312045
0.308671
0.302986
0.293308
0.27745
0.321491
0.320967
0.320643
0.320313
0.319844
0.319165
0.318227
0.31697
0.315329
0.313261
0.310772
0.307932
0.304851
0.301626
0.29828
0.294726
0.290768
0.286098
0.280262
0.27255
0.26195
0.247082
0.2261
0.304048
0.303439
0.302963
0.302499
0.301911
0.301136
0.300122
0.298797
0.297078
0.294886
0.292183
0.288985
0.285347
0.281315
0.276859
0.271828
0.265944
0.258827
0.249989
0.238777
0.224329
0.205545
0.180895
0.287107
0.286452
0.285863
0.285263
0.284535
0.283626
0.282488
0.281043
0.279193
0.276832
0.273879
0.270298
0.266099
0.261292
0.25582
0.249501
0.242013
0.232926
0.22173
0.207819
0.190476
0.16886
0.141744
0.270655
0.269989
0.269321
0.268588
0.26771
0.266643
0.265347
0.263747
0.261736
0.259187
0.255982
0.25204
0.247323
0.241812
0.235441
0.228028
0.219243
0.20864
0.195695
0.179831
0.160444
0.136915
0.108287
0.254682
0.254034
0.253313
0.252462
0.251432
0.250195
0.24872
0.246942
0.244754
0.242017
0.238585
0.234333
0.229179
0.223072
0.215939
0.207617
0.197806
0.186077
0.171914
0.154763
0.134094
0.109453
0.0801018
0.239186
0.238573
0.237824
0.236872
0.235696
0.234288
0.232627
0.230659
0.228288
0.225373
0.221749
0.217259
0.211777
0.205212
0.197482
0.188443
0.177845
0.16531
0.150363
0.132482
0.11119
0.0861385
0.0567564
0.224168
0.223602
0.222842
0.221807
0.2205
0.218928
0.217083
0.214925
0.212372
0.209291
0.205514
0.200862
0.19517
0.188311
0.180175
0.170632
0.159479
0.146409
0.131017
0.112838
0.0914481
0.0665667
0.037742
0.209632
0.209117
0.208363
0.207261
0.205842
0.204121
0.202103
0.199762
0.197033
0.193799
0.189902
0.185153
0.179364
0.172371
0.164035
0.154222
0.142758
0.129405
0.113842
0.0956846
0.0745732
0.0502852
0.0224564
0.195561
0.195141
0.194384
0.193233
0.19172
0.189873
0.187701
0.185193
0.182298
0.178923
0.174926
0.170126
0.164327
0.157341
0.148998
0.139145
0.127623
0.11424
0.0987521
0.0808608
0.0602852
0.0368612
0.0102934
0.182004
0.181643
0.180897
0.179714
0.178133
0.176185
0.173886
0.171233
0.168191
0.164689
0.160606
0.155782
0.150028
0.143147
0.134948
0.125259
0.113915
0.10075
0.0855718
0.0681589
0.0483068
0.0259129
0.000738713
0.168946
0.168629
0.167902
0.166703
0.165077
0.163058
0.160663
0.157895
0.154732
0.15112
0.146965
0.142132
0.136451
0.129731
0.121776
0.112398
0.101423
0.0886896
0.0740388
0.0572998
0.0383303
0.0170823
-0.00663268
0.156378
0.156102
0.155397
0.154195
0.152546
0.150484
0.148027
0.14518
0.141929
0.138236
0.134029
0.129199
0.123603
0.117068
0.109406
0.100426
0.0899474
0.0778062
0.0638555
0.0479558
0.0300064
0.00999876
-0.0122158
0.144291
0.144056
0.143373
0.142178
0.140527
0.138451
0.135968
0.133081
0.129784
0.126047
0.121817
0.117009
0.111508
0.105166
0.0978135
0.089268
0.0793504
0.067896
0.05476
0.0398163
0.0229882
0.00429032
-0.0163995
0.132685
0.132481
0.131819
0.13064
0.129004
0.126942
0.124467
0.121582
0.118282
0.114546
0.110332
0.105577
0.100189
0.0940472
0.0870065
0.0789028
0.0695666
0.0588375
0.0465717
0.0326462
0.0169932
-0.000362855
-0.0195284
0.121525
0.121355
0.120716
0.119562
0.117958
0.115934
0.1135
0.110657
0.107401
0.103713
0.0995617
0.0948987
0.0896526
0.0837283
0.0770051
0.0693416
0.0605848
0.0505839
0.0391994
0.0263086
0.011842
-0.00417691
-0.0218463
0.110803
0.110661
0.110044
0.108922
0.107364
0.105401
0.103038
0.100275
0.0971056
0.0935137
0.0894746
0.0849505
0.0798864
0.0742079
0.0678179
0.0605978
0.0524141
0.0431304
0.0326152
0.0207479
0.00745356
-0.00725513
-0.0234732
0.100499
0.100376
0.0997789
0.0986945
0.0971981
0.0953155
0.0930497
0.0903995
0.0873563
0.0839058
0.0800276
0.0756913
0.0708545
0.0654595
0.059429
0.0526651
0.0450548
0.0364784
0.026816
0.015952
0.00380683
-0.00962224
-0.0244342
0.0905859
0.0904714
0.0898922
0.0888522
0.0874292
0.0856447
0.0834999
0.0809911
0.0781093
0.0748411
0.0711688
0.0670678
0.0625046
0.0574344
0.0517961
0.0455103
0.038483
0.0306121
0.0217917
0.011914
0.000897427
-0.0112751
-0.0247122
0.0810379
0.0809154
0.0803516
0.079363
0.0780253
0.0763551
0.0743518
0.0720097
0.0693197
0.0662693
0.0628428
0.0590194
0.0547728
0.050068
0.044857
0.0390762
0.0326488
0.0254897
0.017508
0.00860668
-0.0012939
-0.0122225
-0.0242964
0.0718248
0.0716721
0.0711213
0.0701922
0.0689517
0.067411
0.0655676
0.0634145
0.0609424
0.0581398
0.0549923
0.0514827
0.04759
0.0432874
0.0385371
0.0332889
0.0274811
0.0210445
0.0139032
0.00597343
-0.00281832
-0.012508
-0.0232171
0.0629163
0.0627061
0.0621649
0.0613042
0.0601726
0.058776
0.0571095
0.0551648
0.0529329
0.0504027
0.0475615
0.0443953
0.0408877
0.0370183
0.0327577
0.0280667
0.0228966
0.0171924
0.0108934
0.00393075
-0.00375962
-0.0122153
-0.0215549
0.0542804
0.0539848
0.0534463
0.0526619
0.0516516
0.0504138
0.0489401
0.047221
0.0452476
0.0430097
0.0404967
0.0376976
0.0346001
0.0311885
0.0274408
0.0233263
0.0188075
0.0138422
0.008384
0.00237937
-0.00422314
-0.0114572
-0.0194299
0.0459094
0.0454652
0.0449238
0.0442251
0.0433509
0.0422875
0.0410221
0.0395439
0.0378441
0.0359144
0.0337467
0.0313328
0.028664
0.0257288
0.0225105
0.0189862
0.0151276
0.010903
0.00627876
0.00121655
-0.00432083
-0.0103595
-0.0169831
0.0377494
0.0371221
0.0365508
0.035949
0.0352305
0.0343598
0.0333182
0.0320941
0.0306802
0.029071
0.0272613
0.025246
0.0230191
0.0205728
0.0178954
0.0149701
0.0117759
0.00828978
0.00448865
0.000347121
-0.00415725
-0.00904146
-0.0143526
0.0297801
0.0288881
0.0282628
0.0277917
0.0272634
0.0266076
0.0258037
0.0248433
0.0237235
0.0224427
0.0209992
0.0193905
0.0176136
0.0156638
0.0135336
0.0112113
0.00868149
0.00592821
0.00293618
-0.000309689
-0.00381942
-0.00759546
-0.011674
0.0219518
0.020655
0.0199507
0.019749
0.019493
0.0190768
0.0185139
0.0178159
0.0169885
0.0160352
0.0149577
0.013756
0.0124291
0.0109752
0.00938993
0.00766545
0.00579146
0.00375776
0.00155579
-0.000821917
-0.00337729
-0.00610257
-0.00900744
0.0138478
0.012216
0.0114579
0.0118547
0.0119788
0.0117999
0.0114562
0.0110015
0.0104531
0.00981865
0.00910168
0.00830312
0.00742285
0.0064601
0.00541264
0.00427631
0.00304598
0.00171741
0.000288192
-0.00124267
-0.00287136
-0.00458467
-0.00637387
0.0051866
0.00337926
0.00268757
0.00359199
0.00389096
0.00387004
0.00373089
0.00353102
0.0032896
0.0030134
0.00270464
0.00236329
0.00198866
0.00158005
0.00113638
0.000655956
0.000137446
-0.000418695
-0.00100945
-0.00162921
-0.00226842
-0.00291131
-0.00354337
1016.76
1037.66
1049.73
1053.77
987.448
999.168
1002.49
996.661
985.831
995.821
1002.97
1005.48
857.405
889.365
951.638
1034.36
150.158
167.45
282.668
610.387
1.36561
2.35046
3.91129
24.5438
0.753336
0.873497
1.03899
1.48008
0.810819
0.868441
0.877112
0.855858
0.652346
0.666182
0.663469
0.650645
0.549605
0.554249
0.552068
0.546974
0.466419
0.466341
0.463431
0.455825
0.38996
0.383956
0.377138
0.366524
0.320313
0.308636
0.29599
0.281459
0.257628
0.241423
0.223459
0.204476
0.202286
0.182948
0.161294
0.138823
0.154489
0.133279
0.109529
0.0851102
0.113875
0.0917754
0.0671419
0.0420303
0.0797497
0.0574473
0.0328061
0.00790077
0.0514726
0.0294023
0.00531589
-0.0187813
0.0285433
0.00701706
-0.0161966
-0.0391704
0.0104268
-0.0102758
-0.0324174
-0.0541505
-0.00358188
-0.0232273
-0.0441466
-0.0645959
-0.0142699
-0.0327288
-0.0523364
-0.0714744
-0.0223124
-0.0395743
-0.0578664
-0.0756947
-0.0282073
-0.0443315
-0.061375
-0.0779429
-0.0323557
-0.0474081
-0.0632898
-0.0786761
-0.0351346
-0.0491574
-0.0639426
-0.0782194
-0.0368863
-0.0499021
-0.0636266
-0.0768407
-0.037863
-0.0498892
-0.0625744
-0.074757
-0.0381937
-0.049255
-0.0609255
-0.0721078
-0.0379051
-0.0480322
-0.058724
-0.0689475
-0.0369665
-0.04619
-0.0559431
-0.0652579
-0.0353425
-0.0436824
-0.0525312
-0.0609853
-0.0330422
-0.0404997
-0.0484618
-0.0560896
-0.0301383
-0.0366997
-0.0437673
-0.0505794
-0.0267558
-0.0324031
-0.0385517
-0.0445318
-0.0230514
-0.0277744
-0.0329762
-0.0380908
-0.0191864
-0.0229918
-0.0272287
-0.0314422
-0.0153221
-0.0182231
-0.0214896
-0.0247791
-0.0115443
-0.0135781
-0.0158976
-0.0182579
-0.00788859
-0.00910079
-0.0104874
-0.0119172
-0.0040471
-0.00445318
-0.00492313
-0.00541998
1031.3
771.739
266.721
209.065
203.976
210.923
206.714
206.364
205.971
205.715
205.571
206.619
220.52
534.266
933.035
852.886
897.167
1111.78
1135.19
976.449
696.87
207.939
204.587
201.878
201.77
204.563
205.289
205.314
205.284
205.268
206.383
240.049
659.945
824.497
820.984
864.79
982.751
1129.56
1002.03
731.797
202.567
202.514
203.178
202.658
203.686
204.462
204.704
204.866
205.018
205.782
296.082
815.93
772.689
817.522
852.018
991.653
1135.24
1057.32
940.942
322.156
202.585
203.28
203.309
203.678
204.037
204.291
204.574
204.91
204.561
683.172
887.647
792.343
977.722
1038.36
1158.97
1167.53
968.99
1006
676.213
202.16
203.275
203.569
203.776
203.828
204.032
204.401
204.589
249.168
928.177
946.086
883.896
700.408
1037.95
1199.07
1208.77
556.189
1051.54
1044.61
289.82
203.092
203.524
203.737
203.777
203.831
204.423
202.947
770.262
987.551
1006.81
1023.52
222.877
398.253
1244.1
1258.11
29.5139
726.909
1116.94
939.936
201.76
203.358
203.544
203.646
203.692
203.971
232.651
1061.47
1059.62
1076.43
896.086
191.25
192.597
741.615
1329.66
1.11718
160.262
973.76
1112.94
787.834
202.883
203.468
203.486
203.511
201.765
940.996
1113.55
1146.24
1117.68
336.02
192.53
189.398
199.843
1019.2
0.638596
0.655932
334.868
1114.44
1178.51
708.638
202.616
202.547
200.845
280.34
1316.79
1066.35
1026.56
591.482
202.45
193.778
208.896
188.885
182.41
0.55385
0.546894
4.6514
443.687
1134.08
1198.11
818.943
283.506
253.895
1261.3
1384.98
635.984
393.402
308.072
260.761
421.517
510.21
298.96
164.657
0.44781
0.476985
0.458691
4.43933
391.809
1071.26
1250.05
1315.83
1346.69
1380.14
997.463
398.065
224.397
308.579
522.839
515.86
513.945
511.41
204.444
0.344482
0.315052
0.306521
0.288244
2.61299
208.486
680.441
874.304
892.131
726.676
181.324
148.105
253.492
486.849
493.753
497.181
496.176
517.028
504.66
0.252887
0.196794
0.135272
0.103822
0.147199
0.454701
6.8043
38.8844
39.0112
12.0974
11.5662
24.9932
129.442
195.424
216.925
147.134
95.22
338.232
532.172
0.171196
0.108792
0.0236374
-0.0732836
-0.151476
-0.316849
-0.801838
-1.19417
-0.434763
0.765339
3.13039
28.8231
34.1052
16.8926
13.0023
15.1898
24.6403
40.5477
365.653
0.101299
0.0374587
-0.0472665
-0.157975
-0.286964
-0.431625
-0.566601
-0.52415
-0.634101
-0.220674
7.5743
11.3844
12.8218
28.3004
29.372
7.92091
33.5205
173.699
182.679
0.0453215
-0.0182366
-0.096975
-0.193841
-0.310476
-0.447635
-0.554627
-0.648688
-0.730121
1.01596
2.6526
-1.14515
-0.150473
4.18246
4.25946
3.68829
34.5135
403.402
332.2
0.00190502
-0.0594884
-0.132344
-0.216544
-0.311834
-0.419971
-0.518651
-0.634424
-0.551289
0.125662
-1.04533
-1.03473
-0.914412
-0.740141
-0.499031
-0.226384
2.45981
424.165
448.839
-0.0313375
-0.0894049
-0.156502
-0.232073
-0.315057
-0.403889
-0.503319
-0.606291
-0.632822
-0.920722
-1.0861
-1.13015
-1.07707
-0.953098
-0.801833
-0.683395
-0.819534
441.923
457.719
-0.0563728
-0.110646
-0.172124
-0.240638
-0.315994
-0.397812
-0.494444
-0.60483
-0.751956
-0.93715
-1.10309
-1.18783
-1.1716
-1.10674
-1.03412
-0.915351
-1.31777
460.855
472.079
-0.0747083
-0.125041
-0.18121
-0.243426
-0.312326
-0.390354
-0.482321
-0.594677
-0.738023
-0.908746
-1.06902
-1.17194
-1.19753
-1.17177
-1.12948
-1.0545
-1.46663
406.286
488.636
-0.0875307
-0.133981
-0.185232
-0.241776
-0.304712
-0.377024
-0.463417
-0.569771
-0.701317
-0.852794
-0.997935
-1.1019
-1.1474
-1.15024
-1.12738
-1.11469
-1.39662
79.0192
506.299
-0.0958612
-0.138628
-0.185369
-0.236766
-0.29409
-0.360183
-0.439133
-0.535254
-0.65085
-0.780318
-0.904665
-0.998855
-1.04914
-1.06326
-1.03377
-1.05303
-1.04907
0.133726
523.32
-0.100669
-0.139996
-0.182607
-0.229257
-0.281179
-0.340778
-0.411143
-0.494988
-0.592784
-0.699334
-0.801079
-0.880369
-0.926155
-0.940445
-0.903426
-0.890225
-0.230191
-0.213797
537.494
-0.102843
-0.138956
-0.177751
-0.219954
-0.266621
-0.319588
-0.380887
-0.451862
-0.531902
-0.616606
-0.696546
-0.759681
-0.797717
-0.809533
-0.772907
-0.751701
-0.524625
1.36482
326.276
-0.103091
-0.136184
-0.171418
-0.209416
-0.250989
-0.297394
-0.34973
-0.408311
-0.471956
-0.537126
-0.597414
-0.644999
-0.674442
-0.685564
-0.657739
-0.662562
-0.644826
1.87715
0.210418
-0.101911
-0.132161
-0.164054
-0.19808
-0.234788
-0.27492
-0.318847
-0.366189
-0.415525
-0.464048
-0.507369
-0.540444
-0.559833
-0.566537
-0.540771
-0.554663
-0.574809
-0.509148
0.014714
-0.0996441
-0.127216
-0.155973
-0.18627
-0.218423
-0.252764
-0.289142
-0.326761
-0.364164
-0.399116
-0.428425
-0.448494
-0.456693
-0.453033
-0.39679
-0.368045
-0.371236
-0.446625
14.5814
-0.0965424
-0.121589
-0.14741
-0.174241
-0.202217
-0.231375
-0.261232
-0.290776
-0.318648
-0.343071
-0.36159
-0.371343
-0.370041
-0.357128
-0.281828
-0.228695
-0.213461
-0.238498
171.767
-0.0928067
-0.115475
-0.138554
-0.162185
-0.186392
-0.211031
-0.235446
-0.258556
-0.27917
-0.295934
-0.306952
-0.309835
-0.302518
-0.284203
-0.199445
-0.139345
-0.117862
0.102349
196.553
-0.0885745
-0.109013
-0.129548
-0.150243
-0.171075
-0.191837
-0.211828
-0.230009
-0.2454
-0.257071
-0.263646
-0.263175
-0.253731
-0.230465
-0.128517
-0.097359
-0.0473161
0.524826
202.409
-0.0839123
-0.102281
-0.120481
-0.138506
-0.156321
-0.173755
-0.19018
-0.204683
-0.216497
-0.225162
-0.2298
-0.229108
-0.221374
-0.192969
-0.0977894
-0.0805855
0.00249232
2.59359
207.848
-0.0788155
-0.0952855
-0.111378
-0.127011
-0.142143
-0.156697
-0.169816
-0.181622
-0.191348
-0.198506
-0.203011
-0.204409
-0.201712
-0.163277
-0.0954688
-0.100499
-0.0592444
8.02113
145.501
-0.0732318
-0.0879761
-0.102203
-0.115742
-0.128526
-0.140576
-0.151011
-0.161029
-0.16907
-0.17539
-0.180602
-0.185097
-0.189123
-0.126079
-0.114114
-0.159337
-0.212753
8.70791
-0.756738
-0.0671028
-0.0802737
-0.0928732
-0.104629
-0.115409
-0.125298
-0.134209
-0.139932
-0.14862
-0.154374
-0.160147
-0.166883
-0.166558
-0.164087
-0.188271
-0.139444
-0.312767
3.96328
-0.366374
-0.0604073
-0.0721172
-0.0832973
-0.0935751
-0.102698
-0.110745
-0.117872
-0.121831
-0.123668
-0.131271
-0.139922
-0.146898
-0.152977
-0.168849
-0.190741
0.0880353
-0.136301
-0.311824
-0.180821
-0.0531856
-0.0634984
-0.0734195
-0.0824972
-0.0902968
-0.096805
-0.102313
-0.105291
-0.105006
-0.1089
-0.113764
-0.12424
-0.131362
-0.140641
0.0619979
0.512702
0.418095
-0.144983
-0.0240284
-0.0455459
-0.0544747
-0.0632482
-0.0713763
-0.078157
-0.0834034
-0.0875066
-0.0908559
-0.0889206
-0.0900608
-0.0946569
-0.102713
-0.106486
0.171685
0.589423
0.579611
0.588464
-0.00251193
0.0730058
-0.0376515
-0.0451604
-0.0528467
-0.0602614
-0.0662764
-0.070461
-0.0733731
-0.0754737
-0.0768311
-0.0761073
-0.0795616
-0.0822129
0.0624044
0.639679
0.63631
0.639101
0.193233
-0.00896114
0.118363
-0.0296911
-0.0356825
-0.04225
-0.0491795
-0.0546847
-0.0578865
-0.0597954
-0.0608741
-0.061349
-0.0614795
-0.0611933
-0.0621068
0.000816059
0.219814
0.180072
-0.00951535
-0.0418722
0.0113588
0.359184
-0.0218335
-0.0261757
-0.0315171
-0.0383748
-0.0441828
-0.0463864
-0.0474726
-0.0478471
-0.0474268
-0.0462788
-0.043805
-0.0410385
-0.0402375
-0.037285
-0.0312394
-0.0290116
-0.0268432
0.00786689
0.434543
-0.0141314
-0.0168566
-0.0213338
-0.0299943
-0.0381874
-0.0390719
-0.039501
-0.0396022
-0.0386038
-0.0361838
-0.031932
-0.0256
-0.0173447
-0.00665029
0.00445162
0.00289487
-0.0220481
-0.0221693
0.348192
-0.00623636
-0.00759884
-0.0123063
-0.0296034
-0.0349793
-0.032085
-0.0312529
-0.0311138
-0.0299613
-0.0269816
-0.0214694
-0.0126265
0.00131153
0.0278739
0.0776136
0.0670399
-0.0251659
-0.112193
0.157564
)
;

boundaryField
{
    leftWall
    {
        type            fixedFluxPressure;
        gradient        uniform 0;
        value           nonuniform List<scalar> 
50
(
578.196
578.151
576.217
573.28
569.988
566.526
562.394
557.426
366.175
3.45731
0.585441
0.558208
0.531805
0.50632
0.48346
0.460639
0.438628
0.417382
0.396879
0.377079
0.357954
0.339458
0.321491
0.304048
0.287107
0.270655
0.254682
0.239186
0.224168
0.209632
0.195561
0.182004
0.168946
0.156378
0.144291
0.132685
0.121525
0.110803
0.100499
0.0905859
0.0810379
0.0718248
0.0629163
0.0542804
0.0459094
0.0377494
0.0297801
0.0219518
0.0138478
0.0051866
)
;
    }
    rightWall
    {
        type            fixedFluxPressure;
        gradient        uniform 0;
        value           nonuniform List<scalar> 
50
(
1242.08
1240.52
1230.18
1202.5
1189.75
1174.76
1159.05
1143.28
1135.19
1129.56
1135.24
1167.53
1208.77
1258.11
1329.66
1019.2
182.41
164.657
204.444
504.66
532.172
365.653
182.679
332.2
448.839
457.719
472.079
488.636
506.299
523.32
537.494
326.276
0.210418
0.014714
14.5814
171.767
196.553
202.409
207.848
145.501
-0.756738
-0.366374
-0.180821
-0.0240284
0.0730058
0.118363
0.359184
0.434543
0.348192
0.157564
)
;
    }
    lowerWall
    {
        type            fixedFluxPressure;
        gradient        uniform 0;
        value           nonuniform List<scalar> 
62
(
578.196
576.274
579.433
586.798
597.274
610.042
624.683
640.865
658.543
677.427
697.298
717.967
739.228
760.871
782.665
804.332
825.51
845.79
864.496
879.166
889.778
896.999
902.917
902.917
899.691
897.525
896.625
897.24
898.949
900.881
908.012
1016.76
1037.66
1049.73
1053.77
1251.38
1223.86
1127.12
1028.87
986.036
995.756
1141.57
1105.7
1251.38
893.276
727.509
618.226
507.148
428.951
394.396
384.87
399.532
432.28
486.354
583.227
751.559
979.101
1183.89
1299.11
1324.5
1287.27
1242.08
)
;
    }
    atmosphere
    {
        type            totalPressure;
        rho             rho;
        psi             none;
        gamma           1;
        p0              uniform 0;
        value           nonuniform List<scalar> 
46
(
0
-0.000226651
-0.000473898
-0.000609665
-0.000702117
-0.000773256
-0.000833537
-0.000888421
-0.000941153
-0.000994007
-0.00104883
-0.00110733
-0.00117117
-0.00124196
-0.00132108
-0.00140936
-0.00150651
-0.00161032
-0.00171549
-0.00181222
-0.00188506
-0.00191345
-0.00187537
-0.00178855
-0.0017193
-0.00163724
-0.0015398
-0.00134339
-0.000909949
-0.000416867
-3.18277e-05
0
0
0
0
0
0
0
0
0
0
0
-5.32613e-05
-0.00374912
-0.00858706
0
)
;
    }
    defaultFaces
    {
        type            empty;
    }
}


// ************************************************************************* //
