# vtk DataFile Version 2.0
track0
ASCII
DATASET POLYDATA
POINTS 12044 float
-0.0205 0.001 1e-05
-0.02052 0.000999985 1e-05
-0.02054 0.000999974 1e-05
-0.02056 0.000999965 1e-05
-0.02058 0.000999959 1e-05
-0.0206 0.000999956 1e-05
-0.0205 0.00367778 1e-05
-0.02052 0.00367778 1e-05
-0.02054 0.00367777 1e-05
-0.02056 0.00367777 1e-05
-0.02058 0.00367777 1e-05
-0.0206 0.00367777 1e-05
-0.0205 0.00635556 1e-05
-0.02052 0.00635555 1e-05
-0.02054 0.00635555 1e-05
-0.02056 0.00635555 1e-05
-0.02058 0.00635555 1e-05
-0.0206 0.00635555 1e-05
-0.0205 0.00903333 1e-05
-0.02052 0.00903333 1e-05
-0.02054 0.00903333 1e-05
-0.02056 0.00903333 1e-05
-0.02058 0.00903333 1e-05
-0.0206 0.00903333 1e-05
-0.0205 0.0117111 1e-05
-0.02052 0.0117111 1e-05
-0.02054 0.0117111 1e-05
-0.02056 0.0117111 1e-05
-0.02058 0.0117111 1e-05
-0.0206 0.0117111 1e-05
-0.0205 0.0143889 1e-05
-0.02052 0.0143889 1e-05
-0.02054 0.0143889 1e-05
-0.02056 0.0143889 1e-05
-0.02058 0.0143889 1e-05
-0.0206 0.0143889 1e-05
-0.0205 0.0170667 1e-05
-0.02052 0.0170667 1e-05
-0.02054 0.0170667 1e-05
-0.02056 0.0170667 1e-05
-0.02058 0.0170667 1e-05
-0.0206 0.0170667 1e-05
-0.0205 0.0197444 1e-05
-0.02052 0.0197444 1e-05
-0.02054 0.0197444 1e-05
-0.02056 0.0197444 1e-05
-0.02058 0.0197444 1e-05
-0.0206 0.0197444 1e-05
-0.0205 0.0224222 1e-05
-0.02052 0.0224222 1e-05
-0.02054 0.0224222 1e-05
-0.02056 0.0224222 1e-05
-0.02058 0.0224222 1e-05
-0.0206 0.0224222 1e-05
-0.0205 0.0251 1e-05
-0.02052 0.0250998 1e-05
-0.02054 0.0250997 1e-05
-0.02056 0.0250995 1e-05
-0.02058 0.0250995 1e-05
-0.0206 0.0250994 1e-05
-0.0205 0.001 1e-05
-0.0202034 0.00100022 1e-05
-0.0199069 0.00100067 1e-05
-0.0196103 0.00100133 1e-05
-0.0193137 0.00100219 1e-05
-0.0190172 0.00100326 1e-05
-0.0187132 0.00100467 1e-05
-0.0184093 0.00100589 1e-05
-0.0181054 0.00100711 1e-05
-0.0178015 0.00100833 1e-05
-0.0174976 0.00100954 1e-05
-0.0172058 0.00101083 1e-05
-0.016914 0.00101194 1e-05
-0.0166222 0.00101304 1e-05
-0.0163305 0.00101413 1e-05
-0.0160387 0.00101523 1e-05
-0.0157586 0.00101637 1e-05
-0.0154784 0.00101745 1e-05
-0.0151983 0.00101857 1e-05
-0.0149182 0.00101972 1e-05
-0.0146381 0.00102091 1e-05
-0.014375 0.00102209 1e-05
-0.0141119 0.00102328 1e-05
-0.0138489 0.00102449 1e-05
-0.0135858 0.00102574 1e-05
-0.0133637 0.00102682 1e-05
-0.0133496 0.00102689 1e-05
-0.0133356 0.00102696 1e-05
-0.0133215 0.00102703 1e-05
-0.0133075 0.0010271 1e-05
-0.0132934 0.00102717 1e-05
-0.0130353 0.00102845 1e-05
-0.0127771 0.00102976 1e-05
-0.0125189 0.00103108 1e-05
-0.0122607 0.00103242 1e-05
-0.0120025 0.00103377 1e-05
-0.0117547 0.00103508 1e-05
-0.0115068 0.00103639 1e-05
-0.0112589 0.00103771 1e-05
-0.0110111 0.00103904 1e-05
-0.0107632 0.00104037 1e-05
-0.0105252 0.00104165 1e-05
-0.0102873 0.00104293 1e-05
-0.0100493 0.00104421 1e-05
-0.00981133 0.00104549 1e-05
-0.00957337 0.00104677 1e-05
-0.00934491 0.00104799 1e-05
-0.00911645 0.00104922 1e-05
-0.00888799 0.00105044 1e-05
-0.00865954 0.00105166 1e-05
-0.00843108 0.00105288 1e-05
-0.00821175 0.00105403 1e-05
-0.00799242 0.0010552 1e-05
-0.00777309 0.00105635 1e-05
-0.00755376 0.00105751 1e-05
-0.00733443 0.00105865 1e-05
-0.00712387 0.00105975 1e-05
-0.0069133 0.00106084 1e-05
-0.00670273 0.00106193 1e-05
-0.00649216 0.00106302 1e-05
-0.0062816 0.0010641 1e-05
-0.00607944 0.00106513 1e-05
-0.00587729 0.00106617 1e-05
-0.00567514 0.00106719 1e-05
-0.00547298 0.00106822 1e-05
-0.00527083 0.00106924 1e-05
-0.00507675 0.00107021 1e-05
-0.00488267 0.00107118 1e-05
-0.0046886 0.00107215 1e-05
-0.00449452 0.00107312 1e-05
-0.00430044 0.00107408 1e-05
-0.00411412 0.00107499 1e-05
-0.0039278 0.00107591 1e-05
-0.00374147 0.00107683 1e-05
-0.00355515 0.00107774 1e-05
-0.00336883 0.00107865 1e-05
-0.00318995 0.00107952 1e-05
-0.00301107 0.00108039 1e-05
-0.00283219 0.00108126 1e-05
-0.00265331 0.00108213 1e-05
-0.00247443 0.001083 1e-05
-0.0023027 0.00108383 1e-05
-0.00213097 0.00108467 1e-05
-0.00195924 0.0010855 1e-05
-0.0017875 0.00108634 1e-05
-0.00161577 0.00108718 1e-05
-0.0014509 0.00108798 1e-05
-0.00128603 0.00108878 1e-05
-0.00112116 0.00108959 1e-05
-0.000956289 0.00109041 1e-05
-0.000791418 0.00109123 1e-05
-0.000633135 0.00109203 1e-05
-0.000474851 0.00109283 1e-05
-0.000316568 0.00109364 1e-05
-0.000158284 0.00109445 1e-05
0 0.00109528 1e-05
0.000105677 0.00109582 1e-05
0.000211355 0.00109637 1e-05
0.000317032 0.00109692 1e-05
0.00042271 0.00109747 1e-05
0.000528387 0.00109802 1e-05
0.000634886 0.00109857 1e-05
0.000741385 0.00109911 1e-05
0.000847885 0.00109966 1e-05
0.000954384 0.00110019 1e-05
0.00106088 0.00110072 1e-05
0.00116821 0.00110125 1e-05
0.00127554 0.00110178 1e-05
0.00138286 0.00110229 1e-05
0.00149019 0.0011028 1e-05
0.00159752 0.0011033 1e-05
0.00170568 0.00110379 1e-05
0.00181384 0.00110428 1e-05
0.001922 0.00110476 1e-05
0.00203016 0.00110523 1e-05
0.00213833 0.00110568 1e-05
0.00224733 0.00110613 1e-05
0.00235633 0.00110658 1e-05
0.00246533 0.00110701 1e-05
0.00257434 0.00110744 1e-05
0.00268334 0.00110785 1e-05
0.00279319 0.00110826 1e-05
0.00290304 0.00110866 1e-05
0.00301289 0.00110905 1e-05
0.00312274 0.00110944 1e-05
0.00323259 0.00110982 1e-05
0.00334329 0.00111018 1e-05
0.003454 0.00111054 1e-05
0.0035647 0.0011109 1e-05
0.0036754 0.00111124 1e-05
0.00378611 0.00111158 1e-05
0.00389767 0.0011119 1e-05
0.00400924 0.00111223 1e-05
0.0041208 0.00111254 1e-05
0.00423237 0.00111285 1e-05
0.00434393 0.00111314 1e-05
0.00445636 0.00111343 1e-05
0.00456879 0.00111371 1e-05
0.00468123 0.00111399 1e-05
0.00479366 0.00111425 1e-05
0.00490609 0.00111451 1e-05
0.0050194 0.00111476 1e-05
0.0051327 0.001115 1e-05
0.00524601 0.00111523 1e-05
0.00535932 0.00111546 1e-05
0.00547262 0.00111568 1e-05
0.00558681 0.00111588 1e-05
0.005701 0.00111609 1e-05
0.00581518 0.00111628 1e-05
0.00592937 0.00111647 1e-05
0.00604356 0.00111665 1e-05
0.00615863 0.00111682 1e-05
0.00627371 0.00111698 1e-05
0.00638878 0.00111714 1e-05
0.00650386 0.00111728 1e-05
0.00661893 0.00111742 1e-05
0.0067349 0.00111755 1e-05
0.00685087 0.00111768 1e-05
0.00696684 0.00111779 1e-05
0.00708281 0.0011179 1e-05
0.00719878 0.001118 1e-05
0.00731565 0.00111809 1e-05
0.00743252 0.00111817 1e-05
0.00754939 0.00111825 1e-05
0.00766626 0.00111832 1e-05
0.00778313 0.00111838 1e-05
0.00782664 0.0011184 1e-05
0.00787014 0.00111841 1e-05
0.00791365 0.00111843 1e-05
0.00795715 0.00111844 1e-05
0.00799971 0.00111846 1e-05
0.00807417 0.00111848 1e-05
0.00814864 0.0011185 1e-05
0.0082231 0.00111852 1e-05
0.00829757 0.00111853 1e-05
0.00837203 0.00111854 1e-05
0.00849073 0.00111854 1e-05
0.00860942 0.00111854 1e-05
0.00872812 0.00111853 1e-05
0.00884682 0.00111852 1e-05
0.00896551 0.00111849 1e-05
0.00908513 0.00111845 1e-05
0.00920475 0.00111841 1e-05
0.00932437 0.00111835 1e-05
0.00944398 0.00111829 1e-05
0.0095636 0.00111822 1e-05
0.00968415 0.00111813 1e-05
0.0098047 0.00111805 1e-05
0.00992525 0.00111795 1e-05
0.0100458 0.00111784 1e-05
0.0101663 0.00111772 1e-05
0.0102878 0.00111759 1e-05
0.0104093 0.00111745 1e-05
0.0105308 0.00111731 1e-05
0.0106523 0.00111715 1e-05
0.0107738 0.00111699 1e-05
0.0108962 0.0011168 1e-05
0.0110186 0.00111662 1e-05
0.0111411 0.00111642 1e-05
0.0112635 0.00111622 1e-05
0.0113859 0.00111601 1e-05
0.0115093 0.00111577 1e-05
0.0116327 0.00111554 1e-05
0.0117561 0.00111529 1e-05
0.0118795 0.00111504 1e-05
0.0120028 0.00111478 1e-05
0.0121272 0.00111449 1e-05
0.0122515 0.0011142 1e-05
0.0123759 0.00111391 1e-05
0.0125002 0.0011136 1e-05
0.0126245 0.00111329 1e-05
0.0127498 0.00111295 1e-05
0.0128752 0.00111261 1e-05
0.0130005 0.00111226 1e-05
0.0131258 0.0011119 1e-05
0.0132511 0.00111153 1e-05
0.0133774 0.00111113 1e-05
0.0135036 0.00111074 1e-05
0.0136299 0.00111034 1e-05
0.0137562 0.00110992 1e-05
0.0138825 0.0011095 1e-05
0.0140098 0.00110905 1e-05
0.014137 0.0011086 1e-05
0.0142643 0.00110814 1e-05
0.0143915 0.00110766 1e-05
0.0145188 0.00110718 1e-05
0.0146471 0.00110668 1e-05
0.0147753 0.00110617 1e-05
0.0149036 0.00110565 1e-05
0.0150318 0.00110512 1e-05
0.0151601 0.00110458 1e-05
0.0152893 0.00110402 1e-05
0.0154186 0.00110346 1e-05
0.0155478 0.00110288 1e-05
0.0156771 0.00110229 1e-05
0.0158063 0.00110169 1e-05
0.0159366 0.00110108 1e-05
0.0160668 0.00110045 1e-05
0.0161971 0.00109981 1e-05
0.0163274 0.00109916 1e-05
0.0164576 0.0010985 1e-05
0.0165889 0.00109783 1e-05
0.0167201 0.00109714 1e-05
0.0168514 0.00109644 1e-05
0.0169827 0.00109573 1e-05
0.0171139 0.00109501 1e-05
0.0172462 0.00109428 1e-05
0.0173785 0.00109354 1e-05
0.0175108 0.00109278 1e-05
0.0176431 0.001092 1e-05
0.0177754 0.00109122 1e-05
0.0179087 0.00109044 1e-05
0.018042 0.00108963 1e-05
0.0181753 0.0010888 1e-05
0.0183087 0.00108796 1e-05
0.018442 0.00108712 1e-05
0.0185763 0.00108628 1e-05
0.0187107 0.00108541 1e-05
0.018845 0.00108452 1e-05
0.0189794 0.00108362 1e-05
0.0191137 0.00108271 1e-05
0.0192491 0.00108181 1e-05
0.0193845 0.00108088 1e-05
0.0195199 0.00107992 1e-05
0.0196553 0.00107895 1e-05
0.0197907 0.00107799 1e-05
0.0199272 0.00107702 1e-05
0.0200636 0.00107603 1e-05
0.0202001 0.00107501 1e-05
0.0203365 0.00107397 1e-05
0.020473 0.00107295 1e-05
0.0206105 0.00107192 1e-05
0.020748 0.00107086 1e-05
0.0208855 0.00106977 1e-05
0.021023 0.00106868 1e-05
0.0211606 0.00106758 1e-05
0.0212991 0.00106649 1e-05
0.0214377 0.00106537 1e-05
0.0215763 0.00106422 1e-05
0.0217149 0.00106305 1e-05
0.0218535 0.0010619 1e-05
0.0219931 0.00106074 1e-05
0.0221328 0.00105955 1e-05
0.0222724 0.00105834 1e-05
0.0224121 0.00105711 1e-05
0.0225517 0.00105589 1e-05
0.0226925 0.00105466 1e-05
0.0228332 0.00105341 1e-05
0.022974 0.00105212 1e-05
0.0231147 0.00105083 1e-05
0.0232555 0.00104954 1e-05
0.0233973 0.00104825 1e-05
0.0235391 0.00104693 1e-05
0.023681 0.00104558 1e-05
0.0238228 0.00104421 1e-05
0.0239647 0.00104286 1e-05
0.0241076 0.0010415 1e-05
0.0242505 0.00104011 1e-05
0.0243935 0.00103869 1e-05
0.0245364 0.00103725 1e-05
0.0246794 0.00103583 1e-05
0.0248234 0.0010344 1e-05
0.0249675 0.00103294 1e-05
0.0251115 0.00103145 1e-05
0.0252556 0.00102995 1e-05
[...]
POINT_DATA 12044
 FIELD attributes 3
age 1 12044 float
0 -2e-05 -4e-05 -6e-05 -8e-05 -0.0001
0 -2e-05 -4e-05 -6e-05 -8e-05 -0.0001
0 -2e-05 -4e-05 -6e-05 -8e-05 -0.0001
0 -2e-05 -4e-05 -6e-05 -8e-05 -0.0001
0 -2e-05 -4e-05 -6e-05 -8e-05 -0.0001
0 -2e-05 -4e-05 -6e-05 -8e-05 -0.0001
0 -2e-05 -4e-05 -6e-05 -8e-05 -0.0001
0 -2e-05 -4e-05 -6e-05 -8e-05 -0.0001
0 -2e-05 -4e-05 -6e-05 -8e-05 -0.0001
0 -2.00009e-05 -4.00018e-05 -6.00027e-05 -8.00036e-05 -0.000100002
0 0.000296567 0.000593135 0.000889702 0.00118627 0.00148284 0.00178676 0.00209069 0.00239461 0.00269853 0.00300245 0.00329423 0.00358601 0.00387779 0.00416957 0.00446135 0.00474147 0.00502159 0.00530171 0.00558183 0.00586196 0.00612503 0.0063881 0.00665117 0.00691424 0.00713638 0.00715043 0.00716447 0.00717852 0.00719256 0.00720661 0.0074648 0.00772298 0.00798117 0.00823935 0.00849754 0.00874541 0.00899328 0.00924116 0.00948903 0.0097369 0.00997487 0.0102128 0.0104508 0.0106888 0.0109267 0.0111552 0.0113837 0.0116121 0.0118406 0.012069 0.0122884 0.0125077 0.012727 0.0129464 0.0131657 0.0133763 0.0135868 0.0137974 0.014008 0.0142186 0.0144207 0.0146229 0.014825 0.0150272 0.0152293 0.0154234 0.0156175 0.0158116 0.0160057 0.0161997 0.0163861 0.0165724 0.0167587 0.016945 0.0171314 0.0173102 0.0174891 0.017668 0.0178469 0.0180258 0.0181975 0.0183692 0.018541 0.0187127 0.0188844 0.0190493 0.0192142 0.0193791 0.0195439 0.0197088 0.0198671 0.0200254 0.0201837 0.0203419 0.0205002 0.0206059 0.0207116 0.0208173 0.0209229 0.0210286 0.0211351 0.0212416 0.0213481 0.0214546 0.0215611 0.0216685 0.0217758 0.0218831 0.0219904 0.0220978 0.0222059 0.0223141 0.0224223 0.0225304 0.0226386 0.0227476 0.0228566 0.0229656 0.0230746 0.0231836 0.0232934 0.0234033 0.0235131 0.023623 0.0237328 0.0238436 0.0239543 0.024065 0.0241757 0.0242864 0.0243979 0.0245095 0.0246211 0.0247326 0.0248442 0.0249566 0.0250691 0.0251815 0.0252939 0.0254064 0.0255197 0.025633 0.0257463 0.0258596 0.0259729 0.0260871 0.0262013 0.0263155 0.0264296 0.0265438 0.0266589 0.026774 0.0268891 0.0270041 0.0271192 0.0272352 0.0273511 0.0274671 0.0275831 0.0276991 0.0278159 0.0279328 0.0280497 0.0281665 0.0282834 0.0283269 0.0283704 0.0284139 0.0284574 0.0285 0.0285744 0.0286489 0.0287234 0.0287978 0.0288723 0.028991 0.0291097 0.0292284 0.0293471 0.0294658 0.0295854 0.029705 0.0298246 0.0299443 0.0300639 0.0301844 0.030305 0.0304255 0.0305461 0.0306666 0.0307881 0.0309096 0.0310311 0.0311526 0.031274 0.0313965 0.0315189 0.0316413 0.0317638 0.0318862 0.0320096 0.032133 0.0322563 0.0323797 0.0325031 0.0326274 0.0327518 0.0328761 0.0330005 0.0331248 0.0332501 0.0333754 0.0335007 0.033626 0.0337514 0.0338776 0.0340039 0.0341302 0.0342565 0.0343828 0.03451 0.0346373 0.0347646 0.0348918 0.0350191 0.0351473 0.0352756 0.0354039 0.0355321 0.0356604 0.0357896 0.0359189 0.0360481 0.0361774 0.0363066 0.0364369 0.0365671 0.0366974 0.0368277 0.0369579 0.0370892 0.0372205 0.0373517 0.037483 0.0376143 0.0377466 0.0378788 0.0380111 0.0381434 0.0382757 0.038409 0.0385424 0.0386757 0.038809 0.0389423 0.0390767 0.039211 0.0393454 0.0394797 0.0396141 0.0397495 0.0398849 0.0400203 0.0401557 0.0402911 0.0404276 0.040564 0.0407005 0.0408369 0.0409734 0.0411109 0.0412484 0.0413859 0.0415234 0.041661 0.0417995 0.0419381 0.0420767 0.0422153 0.0423539 0.0424936 0.0426332 0.0427729 0.0429125 0.0430522 0.043193 0.0433337 0.0434745 0.0436152 0.043756 0.0438978 0.0440396 0.0441815 0.0443233 0.0444652 0.0446081 0.0447511 0.044894 0.045037 0.0451799 0.045324 0.045468 0.0456121 0.0457562 0.0459002 0.0460454 0.0461906 0.0463358 0.0464809 0.0466261 0.0467724 0.0469187 0.0470651 0.0472114 0.0473577 0.0475051 0.0476526 0.0478 0.0479475 0.0480949 0.0482435 0.0483921 0.0485407 0.0486893 0.0488379 0.0489876 0.0491374 0.0492871 0.0494369 0.0495867 0.0497376 0.0498885 0.0500394 0.0501903 0.0503412 0.0504933 0.0506454 0.0507975 0.0509496 0.0511017 0.051255 0.0514082 0.0515615 0.0517148 0.0518681 0.0520225 0.052177 0.0523315 0.0524859 0.0526404 0.0527961 0.0529517 0.0531074 0.0532631 0.0534187 0.053571 0.0537233 0.0538756 0.0540279 0.054173 0.054179 0.054185 0.0541911 0.0541971 0.0542031 0.0543613 0.0545194 0.0546775 0.0548356 0.0549937 0.055153 0.0553123 0.0554717 0.055631 0.0557903 0.0559509 0.0561115 0.056272 0.0564326 0.0565932 0.056755 0.0569168 0.0570787 0.0572405 0.0574023 0.0575654 0.0577285 0.0578915 0.0580546 0.0582177 0.0583821 0.0585464 0.0587108 0.0588751 0.0590395 0.0592051 0.0593707 0.0595364 0.059702 0.0598676 0.0600346 0.0602015 0.0603684 0.0605353 0.0607023 0.0608705 0.0610387 0.0612069 0.0613751 0.0615434 0.0617129 0.0618824 0.062052 0.0622215 0.062391 0.0625619 0.0627327 0.0629036 0.0630744 0.0632453 0.0634175 0.0635897 0.0637619 0.063934 0.0641062 0.0642798 0.0644533 0.0646268 0.0648003 0.0649739 0.0651487 0.0653236 0.0654985 0.0656734 0.0658483 0.0660245 0.0662008 0.066377 0.0665532 0.0667295 0.0669071 0.0670847 0.0672623 0.0674399 0.0676176 0.0677966 0.0679756 0.0681546 0.0683336 0.0685126 0.068693 0.0688734 0.0690538 0.0692342 0.0694146 0.0695964 0.0697782 0.06996 0.0701418 0.0703236 0.0705069 0.0706901 0.0708733 0.0710565 0.0712398 0.0713449 0.0714499 0.071555 0.0716601 0.0717615 0.0718418 0.0719221 0.0720024 0.0720827 0.072163 0.0723491 0.0725352 0.0727213 0.0729074 0.0730935 0.0732811 0.0734686 0.0736562 0.0738437 0.0740313 0.0742203 0.0744093 0.0745983 0.0747874 0.0749764 0.0751669 0.0753574 0.0755479 0.0757384 0.0759289 0.0761208 0.0763128 0.0765048 0.0766968 0.0768888 0.0770823 0.0772757 0.0774692 0.0776627 0.0778562 0.0780512 0.0782462 0.0784412 0.0786362 0.0788312 0.0790277 0.0792242 0.0794208 0.0796173 0.0798138 0.0800119 0.0802099 0.080408 0.0806061 0.0808041 0.0810037 0.0812034 0.081403 0.0816026 0.0818022 0.0820034 0.0822045 0.0824057 0.0826069 0.0828081 0.0830108 0.0832136 0.0834163 0.0836191 0.0838218 0.0840262 0.0842305 0.0844349 0.0846392 0.0848436 0.0848677 0.0848918 0.0849159 0.08494 0.0849639 0.0851458 0.0853276 0.0855095 0.0856914 0.0858733 0.0860808 0.0862884 0.0864959 0.0867035 0.0869111 0.0871203 0.0873294 0.0875386 0.0877478 0.087957 0.0881678 0.0883787 0.0885895 0.0888003 0.0890112 0.0892236 0.0894361 0.0896486 0.0898611 0.0900736 0.0902877 0.0905019 0.090716 0.0909302 0.0911444 0.0913602 0.091576 0.0917918 0.0920077 0.0922235 0.0924411 0.0926586 0.0928761 0.0930937 0.0933112 0.0935305 0.0937497 0.0939689 0.0941882 0.0944074 0.0946004 0.0947934 0.0949864 0.0951793 0.0953627 0.0953927 0.0954226 0.0954525 0.0954824 0.0955123 0.095735 0.0959577 0.0961804 0.0964031 0.0966259 0.0968503 0.0970748 0.0972992 0.0975237 0.0977482 0.0979744 0.0982007 0.0984269 0.0986531 0.0988794 0.0991074 0.0993354 0.0995634 0.0997915 0.10002 0.100249 0.100479 0.100709 0.100939 0.101169 0.1014 0.101632 0.101864 0.102095 0.102327 0.10256 0.102794 0.103027 0.103261 0.103494 0.10373 0.103965 0.1042 0.104436 0.104671 0.104674 0.104677 0.10468 0.104684 0.104687 0.104921 0.105155 0.105389 0.105623 0.105857 0.106096 0.106335 0.106574 0.106813 0.107053 0.107294 0.107534 0.107775 0.108016 0.108258 0.1085 0.108743 0.108986 0.109229 0.109472 0.109717 0.109962 0.110207 0.110452 0.110697 0.110943 0.11119 0.111437 0.111684 0.111931 0.112144 0.112357 0.112569 0.112782 0.112982 0.11302 0.113059 0.113098 0.113136 0.113175 0.113426 0.113677 0.113927 0.114178 0.114429 0.114682 0.114935 0.115188 0.115441 0.115694 0.115949 0.116204 0.116458 0.116713 0.116969 0.117226 0.117483 0.11774 0.117997 0.118254 0.118513 0.118772 0.119031 0.11929 0.11955 0.119684 0.119818 0.119951 0.120085 0.120213 0.120342 0.12047 0.120599 0.120728 0.120856 0.12112 0.121383 0.121647 0.12191 0.122174 0.12244 0.122706 0.122971 0.123237 0.123503 0.123771 0.124039 0.124307 0.124575 0.124843 0.125113 0.125384 0.125654 0.125924 0.126195 0.126243 0.126291 0.12634 0.126388 0.126435 0.12666 0.126884 0.127109 0.127334 0.127559 0.127834 0.128109 0.128384 0.128659 0.128934 0.129212 0.129489 0.129767 0.130044 0.130323 0.130603 0.130883 0.131163 0.131443 0.131724 0.131739 0.131755 0.13177 0.131786 0.131801 0.132068 0.132335 0.132603 0.13287 0.133138 0.133423 0.133708 0.133994 0.134279 0.134565 0.134853 0.135142 0.13543 0.135718 0.136007 0.136103 0.136199 0.136295 0.13639 0.136483 0.136679 0.136875 0.137071 0.137267 0.137463 0.137757 0.138051 0.138345 0.138639 0.138935 0.139232 0.139529 0.139826 0.140123 0.140421 0.140465 0.14051 0.140554 0.140598 0.140641 0.140897 0.141154 0.14141 0.141667 0.141925 0.142228 0.142532 0.142835 0.143139 0.143445 0.14364 0.143836 0.144032 0.144228 0.14441 0.144525 0.144639 0.144753 0.144868 0.144982 0.145293 0.145603 0.145914 0.146225 0.146538 0.146815 0.147093 0.147371 0.147648 0.147903 0.147945 0.147986 0.148028 0.14807 0.148112 0.14843 0.148748 0.149066 0.149384 0.149705 0.150011 0.150318 0.150624 0.150931 0.151214 0.151235 0.151255 0.151276 0.151296 0.151317 0.151643 0.151968 0.152294 0.15262 0.152948 0.153248 0.153548 0.153848 0.154148 0.154433 0.154465 0.154498 0.154531 0.154564 0.154596 0.154929 0.155262 0.155595 0.155928 0.156262 0.156497 0.156732 0.156966 0.157201 0.157431 0.157533 0.157636 0.157739 0.157841 0.157944 0.158283 0.158622 0.158961 0.1593 0.15964 0.159788 0.159936 0.160084 0.160232 0.16038 0.160574 0.160767 0.16096 0.161154 0.161347 0.161691 0.162034 0.162378 0.162722 0.163064 0.163124 0.163184 0.163243 0.163303 0.163363 0.163649 0.163934 0.16422 0.164506 0.16479 0.165121 0.165452 0.165782 0.166113 0.166466 0.166477 0.166488 0.1665 0.166511 0.166522 0.16687 0.167219 0.167567 0.167915 0.16826 0.168563 0.168866 0.169169 0.169472 0.169803 0.169843 0.169883 0.169922 0.169962 0.170002 0.170352 0.170702 0.171052 0.171402 0.171748 0.172097 0.172447 0.172796 0.173146 0.173498 0.173508 0.173517 0.173527 0.173536 0.173546 0.173888 0.17423 0.174572 0.174915 0.175253 0.175606 0.175959 0.176312 0.176664 0.177014 0.177205 0.177397 0.177588 0.177779 0.177989 0.178147 0.178306 0.178464 0.178622 0.17878 0.179135 0.179491 0.179846 0.180201 0.180554 0.180911 0.181268 0.181624 0.181981 0.182336 0.182604 0.182873 0.183141 0.183409 0.183719 0.183801 0.183882 0.183964 0.184045 0.184127 0.184487 0.184848 0.185208 0.185568 0.185927 0.18629 0.186652 0.187015 0.187377 0.187739 0.188103 0.188468 0.188833 0.189197 0.189561 0.189928 0.190295 0.190662 0.191029 0.191396 0.19155 0.191705 0.19186 0.192015 0.192184 0.192396 0.192608 0.192819 0.193031 0.193242 0.193614 0.193986 0.194358 0.19473 0.195102 0.195476 0.195851 0.196226 0.1966 0.196975 0.197352 0.197729 0.198107 0.198484 0.198861 0.199241 0.199621 0.200001 0.200381 0.200761 0.201144 0.201527 0.20191 0.202293 0.202675 0.203061 0.203447 0.203832 0.204218 0.204604 0.204992 0.205381 0.20577 0.206158 0.206547 0.206938 0.20733 0.207722 0.208113 0.208505 0.208604 0.208703 0.208803 0.208902 0.209007 0.209301 0.209595 0.209889 0.210183 0.210477 0.210875 0.211272 0.21167 0.212068 0.212465 0.212866 0.213266 0.213667 0.214068 0.214468 0.214872 0.215275 0.215679 0.216083 0.216486 0.216893 0.2173 0.217707 0.218114 0.21852 0.21893 0.21934 0.21975 0.22016 0.22057 0.220983 0.221396 0.221809 0.222222 0.222635 0.223051 0.223468 0.223884 0.2243 0.224716 0.225136 0.225555 0.225975 0.226394 0.226814 0.227236 0.227659 0.228082 0.228504 0.228927 0.229337 0.229746 0.230155 0.230565 0.230974 0.2314 0.231825 0.232251 0.232676 0.233102 0.233544 0.233987 0.234429 0.234871 0.235313 0.235773 0.236232 0.236692 0.237152 0.237611 0.238089 0.238566 0.239044 0.239522 0.239999 0.240496 0.240992 0.241488 0.241984 0.242481 0.242996 0.243512 0.244028 0.244543 0.245059 0.245099 0.245139 0.24518 0.24522 0.24526 0.245756 0.246251 0.246747 0.247242 0.247738 0.248295 0.248852 0.249408 0.249965 0.250522 0.2511 0.251679 0.252257 0.252836 0.253414 0.254015 0.254616 0.255217 0.255818 0.256419 0.257044 0.257668 0.258293 0.258917 0.259542 0.260191 0.26084 0.261488 0.262137 0.262786 0.26346 0.264134 0.264809 0.265483 0.266157 0.266858 0.267558 0.268258 0.268959 0.26966 0.270387 0.271115 0.271843 0.272571 0.273299 0.274055 0.274811 0.275567 0.276323 0.27708 0.277866 0.278651 0.279437 0.280223 0.281009 0.281825 0.282641 0.283458 0.284274 0.285091 0.285939 0.286787 0.287635 0.288484 0.289332 0.290015 0.290698 0.29138 0.292063 0.292923 0.293087 0.29325 0.293413 0.293576 0.293739 0.294655 0.295571 0.296486 0.297402 0.298318 0.299269 0.300221 0.301172 0.302124 0.303075 0.304064 0.305053 0.306041 0.30703 0.308018 0.309045 0.310072 0.311099 0.312125 0.31315