/*--------------------------------*- C++ -*----------------------------------*\
  =========                 |
  \\      /  F ield         | OpenFOAM: The Open Source CFD Toolbox
   \\    /   O peration     | Website:  https://openfoam.org
    \\  /    A nd           | Version:  9
     \\/     M anipulation  |
\*---------------------------------------------------------------------------*/
FoamFile
{
    format      ascii;
    class       volScalarField;
    location    "4";
    object      p;
}
// * * * * * * * * * * * * * * * * * * * * * * * * * * * * * * * * * * * * * //

dimensions      [0 2 -2 0 0 0 0];

internalField   nonuniform List<scalar> 
918
(
24.9801
24.7793
1.12322
24.3847
1.02814
24.2958
4.45922
15.1205
20.7488
3.84896
3.20404
15.9277
21.8388
18.0799
14.223
1.17158
15.588
3.08319
19.9541
1.36025
14.2523
21.9583
23.0477
20.7961
15.6173
15.5257
19.8011
1.31133
0.132002
0.405494
0.956049
0.46728
0.315155
22.8327
23.5093
23.4477
17.1199
11.3353
4.89607
5.19047
4.15982
3.90254
15.1675
15.2919
7.38363
15.0743
15.0523
18.1712
20.6161
20.7584
21.0576
20.8436
21.231
6.40754
3.75207
3.59487
3.89664
3.96172
3.47612
3.3801
3.45952
3.05582
2.8902
15.511
16.0511
16.14
15.8124
15.7631
23.6554
22.8984
23.2332
22.3395
22.4849
21.4149
21.0293
18.4557
18.8083
17.6814
17.3001
13.9971
13.9365
14.4665
14.6961
0.156507
1.38295
1.55498
15.5952
15.6315
15.6135
15.6043
9.00503
3.13351
3.16847
19.3948
18.9715
21.981
22.247
21.6936
21.5081
1.59478
1.71995
1.1691
1.17887
0.962684
14.5632
14.7309
20.7481
19.9167
15.6911
15.5571
15.634
13.0229
15.4123
15.4919
16.5287
16.9785
16.1563
16.6028
19.3711
18.9531
20.2376
20.6749
0.468278
0.177387
0.944721
0.535221
0.767552
16.9969
16.7891
17.1959
17.2621
17.4645
11.3337
11.2393
11.325
11.2449
5.59993
5.93723
3.2789
3.64941
3.45143
10.7632
15.3326
15.3954
6.31176
7.03954
6.67069
7.90078
8.31284
17.5568
17.9739
17.7229
19.2472
18.4572
18.8033
21.3136
20.8058
21.1049
6.81945
7.12832
6.0776
5.74311
3.13649
3.44309
3.34355
3.97124
3.93453
3.7421
3.92333
3.21959
3.07075
3.83413
3.60307
3.72858
2.6844
2.50856
15.2676
15.0606
15.7946
16.0024
16.7058
16.5697
16.2662
16.4393
20.2244
20.6278
20.6613
20.2772
12.5954
10.985
14.9573
15.2221
0.315281
0.274568
0.153901
0.47606
0.400425
0.182205
2.36471
2.1734
1.74654
2.01173
15.6077
15.5841
9.24901
9.4798
8.82145
8.53726
17.8281
17.9685
18.594
18.197
2.3267
1.91413
2.12688
14.9292
14.7656
14.9032
12.4809
11.9219
13.5325
13.8747
15.569
15.5649
15.5746
16.8858
17.2037
21.0257
21.2964
21.1233
21.5091
22.5719
22.2231
21.8384
16.2114
16.6038
16.4463
17.6539
17.3285
17.5249
16.7991
17.0896
16.9384
11.259
11.3002
11.036
11.1169
11.184
11.1251
10.682
10.5516
15.5454
15.4461
15.508
8.83243
9.2995
5.38935
5.08555
14.1718
14.8299
14.4827
19.8541
19.1764
19.9094
19.5386
19.0886
19.4121
11.3045
11.2401
11.2883
16.1267
15.4765
15.8211
2.89159
2.47656
2.64136
9.69177
9.80086
7.51523
8.2133
7.8704
17.5047
17.8453
18.5252
17.6372
18.1045
18.6118
18.3899
10.8513
10.9916
10.9016
10.5235
10.4016
11.2659
9.85559
10.4544
4.17285
4.79714
4.49588
9.97778
10.2608
10.0935
20.1415
20.6758
0.814562
1.30377
21.0951
20.8166
0.265203
0.462131
15.4606
13.6747
8.82152
18.6877
18.1674
20.4756
4.05672
6.58173
3.41042
3.86005
3.02841
16.1272
15.8385
14.904
0.543244
1.49081
1.76064
3.84769
19.9212
19.2505
20.3584
20.6814
20.7333
0.744022
0.948936
0.608467
1.39495
1.10285
1.30258
17.1446
17.1988
5.6192
20.3632
20.6649
20.6837
19.1501
20.1069
19.1648
1.17893
0.848064
0.957217
11.6741
13.6475
15.425
14.9635
15.1745
15.1991
14.9539
16.0779
15.7634
15.7136
16.1899
15.3233
15.1097
9.28986
7.91099
9.69422
9.37752
18.5925
18.1877
18.0286
17.7804
19.592
19.1185
19.9673
19.3507
19.8114
20.1006
4.02522
4.09236
3.97003
3.55588
6.70929
7.21841
6.06134
6.11502
4.7775
3.15332
3.12323
3.42593
3.43141
3.59346
3.11101
3.46475
3.13854
2.69772
2.66667
3.47715
3.19202
3.21188
16.1173
16.1339
15.8579
15.8568
15.9621
16.141
15.1266
15.569
15.247
13.9632
14.5969
14.1714
0.837655
0.735983
0.61295
1.58394
1.66956
1.24344
0.967362
1.26488
1.18616
0.967904
1.67981
1.72586
4.26174
3.71619
9.59448
8.67834
7.72428
18.331
19.1182
18.2975
19.5202
19.9368
20.0462
19.6682
19.1606
17.2571
17.2743
16.9347
16.9021
6.10733
4.94034
6.38992
6.04715
11.4316
15.6015
13.4146
12.3481
12.65
14.8194
15.1382
14.7708
15.0245
14.5096
13.9742
14.7551
14.2362
14.3528
14.0475
16.9221
17.3962
17.0027
16.4222
16.4442
11.5071
12.8954
7.0143
7.16421
8.65421
8.10681
14.7382
15.2821
15.3118
14.8327
15.0236
15.0861
14.8229
14.9699
15.1269
15.0787
12.8832
11.7395
10.6589
10.5847
15.557
13.4366
14.0294
13.6506
17.6322
18.1398
17.7672
17.2077
17.6674
17.1918
17.1896
17.362
18.7105
18.4541
18.2347
18.6192
4.08122
4.0068
4.6756
4.24556
4.11843
3.74829
4.48804
5.67626
5.31646
7.47265
8.01061
5.5554
4.68206
4.85604
5.86503
6.43429
6.47075
4.67631
5.03307
5.49154
5.0494
5.73539
5.29882
3.44328
3.67325
3.68102
3.58257
3.92734
4.42439
3.99792
2.98712
3.1862
2.86387
2.67559
4.186
3.88246
3.85488
4.39433
1.47521
1.65125
1.77812
2.77856
2.33238
2.44744
16.7727
16.4103
16.5773
15.6716
15.8024
15.7598
15.3196
16.8385
16.5666
16.6907
15.3103
15.461
15.2091
15.4723
15.9216
16.1626
17.0353
16.7601
15.9931
16.183
15.8266
15.7402
15.0189
14.5628
14.4108
1.31556
0.969049
1.15985
1.1054
0.780609
0.945092
2.51347
1.93479
2.30996
2.04015
2.27685
1.59568
1.50187
5.44015
6.19944
5.21566
4.56999
4.2204
9.64748
9.79483
8.85168
8.60018
8.91394
9.16574
9.09909
7.7049
8.20936
8.02641
10.8149
10.4418
19.0985
19.0443
18.72
18.5672
18.7841
7.16031
8.74864
8.13224
9.07325
11.1342
11.4637
10.144
9.53471
10.2525
10.3008
15.5291
15.637
15.1562
15.526
15.5738
13.3479
14.1531
14.7376
14.5278
15.1614
15.2384
14.501
14.9561
14.8193
14.2087
14.1609
13.7278
13.9049
13.4975
13.3295
15.628
15.5068
15.775
15.3103
15.6145
15.136
15.4092
15.5723
15.7682
14.9084
14.3158
14.3001
14.6906
14.512
14.8466
14.9978
10.2063
10.7706
11.2715
11.8284
11.5551
11.3091
11.1521
11.4891
11.5069
11.7449
11.659
11.4677
12.4415
14.6323
14.8951
15.082
14.8508
14.8199
14.5411
14.8396
14.7747
15.3733
15.4166
15.5075
14.22
14.501
14.6534
14.5716
12.6059
11.3148
11.0689
10.8175
9.08759
9.4507
12.2053
11.2038
10.3212
10.445
13.6303
12.3026
13.0957
13.3617
12.1406
11.811
14.222
15.0767
15.2535
14.8968
13.2976
13.3518
13.7963
14.2195
14.3865
14.8953
17.4409
17.9687
18.0504
17.7835
17.6571
17.7355
17.4729
17.5883
18.0531
18.16
17.9922
3.72952
3.83586
3.90832
3.80533
4.1543
4.04199
4.94386
4.95429
4.04498
4.22405
4.27522
4.26751
3.91018
3.88367
5.4869
5.75561
6.01707
5.61751
6.98175
7.42702
7.95043
7.74651
6.55492
6.54702
6.83151
4.18202
4.09738
3.9109
4.30643
4.42148
3.1579
2.81906
2.60999
3.13948
3.30174
2.50623
2.09148
2.20258
2.60846
2.5331
2.25982
16.5968
16.3824
16.3583
16.1415
16.2056
16.6057
16.8086
16.5818
16.713
16.7552
16.3849
16.2612
16.4505
2.06946
1.74884
1.85387
1.95631
1.8823
1.76713
1.89132
8.41214
7.2942
7.67345
6.99661
5.39072
5.85392
10.4838
10.8402
10.8955
10.5541
10.3628
10.6399
10.5869
10.5871
9.04415
10.0979
9.65307
10.0454
10.1244
10.1863
9.85981
10.0596
11.5052
11.5825
10.4087
11.0292
10.4552
9.2249
9.36867
10.2101
11.0712
11.2912
11.1657
10.8174
10.6115
11.0441
11.0274
11.1803
11.1666
9.6393
9.63552
9.25983
15.3518
15.4089
15.528
15.4102
15.5945
15.4863
15.2598
15.5223
15.6296
15.4112
12.0108
12.0901
12.3663
13.1993
13.2941
12.9173
12.2324
14.1062
13.7073
14.5146
14.4543
14.4419
14.0648
13.8125
14.1734
11.4316
12.733
12.2685
12.5858
11.4946
10.7797
14.4602
14.5147
14.6333
14.9482
14.8739
15.4036
17.4098
17.2722
17.3145
17.3552
16.9525
16.9743
4.87322
4.60744
5.3123
5.31995
4.92971
4.63049
2.59871
2.40378
2.18418
2.06407
2.20961
2.35625
9.10434
9.03395
7.34995
8.24022
7.0902
6.12797
6.0244
7.07754
8.15361
8.26452
9.23272
9.91217
9.52689
9.35899
8.68988
8.99456
11.0202
11.1273
11.0242
11.3162
10.8968
12.693
12.2662
12.6421
14.326
13.9923
13.3371
13.2099
13.2874
13.9132
12.9553
12.2512
12.9014
13.5554
13.5467
12.0596
11.7996
12.2562
12.1605
11.0899
11.6199
11.3753
11.7198
11.398
)
;

boundaryField
{
    wall-4
    {
        type            zeroGradient;
    }
    velocity-inlet-5
    {
        type            zeroGradient;
    }
    velocity-inlet-6
    {
        type            zeroGradient;
    }
    pressure-outlet-7
    {
        type            fixedValue;
        value           uniform 0;
    }
    wall-8
    {
        type            zeroGradient;
    }
    frontAndBackPlanes
    {
        type            empty;
    }
}


// ************************************************************************* //
