/*--------------------------------*- C++ -*----------------------------------*\
  =========                 |
  \\      /  F ield         | OpenFOAM: The Open Source CFD Toolbox
   \\    /   O peration     | Website:  https://openfoam.org
    \\  /    A nd           | Version:  9
     \\/     M anipulation  |
\*---------------------------------------------------------------------------*/
FoamFile
{
    format      ascii;
    class       volScalarField;
    location    "9.73";
    object      epsilon;
}
// * * * * * * * * * * * * * * * * * * * * * * * * * * * * * * * * * * * * * //

dimensions      [0 2 -3 0 0 0 0];

internalField   nonuniform List<scalar> 
2268
(
6.98732e-05
0.000400484
0.000724313
0.00102258
0.00129382
0.00153742
0.00175302
0.0019402
0.00210007
0.00223717
0.00235748
0.00246635
0.00256426
0.00263992
0.00266539
0.00259914
0.00244121
0.00221367
0.00189536
0.00152632
0.00116832
0.000666437
0.000189838
0.000148142
0.000261174
0.000390289
0.00051279
0.00062498
0.000725918
0.000815486
0.000893984
0.000962287
0.00102192
0.00107454
0.00112119
0.0011611
0.00119023
0.00120056
0.00118262
0.00114053
0.00107085
0.000970747
0.000836542
0.000669078
0.000462357
0.000321845
0.000256561
0.000275386
0.00035673
0.000439903
0.000517613
0.000587985
0.000650646
0.000705857
0.000754313
0.000796978
0.000834726
0.000867889
0.000895658
0.000915533
0.000923363
0.00091528
0.000893281
0.000854303
0.000795723
0.000717726
0.000624439
0.000521877
0.000551983
0.000364219
0.000310282
0.000365037
0.00042893
0.000490521
0.000546878
0.000597295
0.000641911
0.000681284
0.000716154
0.000747111
0.000774277
0.000796945
0.000813335
0.000820838
0.000817479
0.000804479
0.000779984
0.000742552
0.00069614
0.000649875
0.000621816
0.000821258
0.000468511
0.000352057
0.00038722
0.000438201
0.000489408
0.000536873
0.000579579
0.00061755
0.000651249
0.000681289
0.000708125
0.000731808
0.000751758
0.000766637
0.000774641
0.00077463
0.000767595
0.000752947
0.000731066
0.000708892
0.000701589
0.000745973
0.00115519
0.000570663
0.000397487
0.000416463
0.000457419
0.00050073
0.000541454
0.000578329
0.000611316
0.000640812
0.000667343
0.000691279
0.00071265
0.000730996
0.000745291
0.000754208
0.00075703
0.000754724
0.000747921
0.000738978
0.000737459
0.000766223
0.000893586
0.00160294
0.000673078
0.000445813
0.000450446
0.00048294
0.000519605
0.000554591
0.000586492
0.000615273
0.000641289
0.00066499
0.000686677
0.000706367
0.000723702
0.000737892
0.000747933
0.00075334
0.000755145
0.000755001
0.000757024
0.000773085
0.000834939
0.00106204
0.00232585
0.000780252
0.000496888
0.000488204
0.000513211
0.000543906
0.000573595
0.000600876
0.000625807
0.000648712
0.000669958
0.000689764
0.000708125
0.000724765
0.000739089
0.00075033
0.00075815
0.000763699
0.000769358
0.000780373
0.000810215
0.000897148
0.00122176
0.00403642
0.000358688
0.00115921
0.00194532
0.00229265
0.00243282
0.00249488
0.00247304
0.00239128
0.00227139
0.0021501
0.00189298
0.00150999
0.00134736
0.00134958
0.00120354
0.000896352
0.000560292
0.000303771
0.000105598
0.000429345
0.00067189
0.000922164
0.00105133
0.00111171
0.00113926
0.00113794
0.00111239
0.00106789
0.00101099
0.000924439
0.000818087
0.000726081
0.000654765
0.000575693
0.000456564
0.000322171
0.000210926
0.00016808
0.000616659
0.000633771
0.00076624
0.000837183
0.000871907
0.000887358
0.000885765
0.000868616
0.000838337
0.000795929
0.000736569
0.000670403
0.000602958
0.00054149
0.000478955
0.000399528
0.000311168
0.000246653
0.000275304
0.000763397
0.000673175
0.000739211
0.000773724
0.000790365
0.000796686
0.000792344
0.000776991
0.000751887
0.000716375
0.000668695
0.000617993
0.000564385
0.000510781
0.000456999
0.000395777
0.000330851
0.000296073
0.000390396
0.000895284
0.000752093
0.000757478
0.000759846
0.000760438
0.000758484
0.000750722
0.000735237
0.000712419
0.000681284
0.000641044
0.000598923
0.000553976
0.000506363
0.000458649
0.000408857
0.000359777
0.000346952
0.000513029
0.00113504
0.000868499
0.000797975
0.000768214
0.000753918
0.000744339
0.000733068
0.0007168
0.000695184
0.000667204
0.00063243
0.000595935
0.000556512
0.00051384
0.000471282
0.00042996
0.000392767
0.000397174
0.000644838
0.00164125
0.00101627
0.000847072
0.000786825
0.000759467
0.00074317
0.000728668
0.000711527
0.00069076
0.000665344
0.000634833
0.000602341
0.000566652
0.000527993
0.000490176
0.000455769
0.000428302
0.000449025
0.000794627
0.00307498
0.00115935
0.000891492
0.000808775
0.000771366
0.000749578
0.000732377
0.000714571
0.000694708
0.00067162
0.00064454
0.000615054
0.000582146
0.000546676
0.000512851
0.000483853
0.000465098
0.000500912
0.000946284
0.000939343
0.000577685
0.000551334
0.000566212
0.000588318
0.000610006
0.000630255
0.000649436
0.000667818
0.00068559
0.000702812
0.000719409
0.000735205
0.000749866
0.000762942
0.000774302
0.000785187
0.00079876
0.000820872
0.000864984
0.000964072
0.00121364
0.00195382
0.00119201
0.000701691
0.000653003
0.000655751
0.00066604
0.000675523
0.000685163
0.000696192
0.000708508
0.000721808
0.000735847
0.000750314
0.000765005
0.000779883
0.000794849
0.000809984
0.000826297
0.000846686
0.000875961
0.000923117
0.0010072
0.00116473
0.00145642
0.00166477
0.00083721
0.000769439
0.000761796
0.00075878
0.000752686
0.000749852
0.000752296
0.000758399
0.000767159
0.000778186
0.000790741
0.000804305
0.0008191
0.000835388
0.000853461
0.000874196
0.000898978
0.000930288
0.000973162
0.00103722
0.0011354
0.00127106
0.000772211
0.000878206
0.000893726
0.000873645
0.000855485
0.000829698
0.000814234
0.000809627
0.000810552
0.000815463
0.000824564
0.000836394
0.000849558
0.000864668
0.000882524
0.000903835
0.000929781
0.000957684
0.000987671
0.00102323
0.00107009
0.00113502
0.00122078
0.00291568
0.00117946
0.00100522
0.000919604
0.000892001
0.000863779
0.000845142
0.000843043
0.000848432
0.000855719
0.000867505
0.000882266
0.000896054
0.000910388
0.000927544
0.000948005
0.000972692
0.000997822
0.00103702
0.00107748
0.00110621
0.00115034
0.00122747
0.00109091
0.00111379
0.000992305
0.000926027
0.000915437
0.000884052
0.000859498
0.000854915
0.000860887
0.00087301
0.000891129
0.000912265
0.000931043
0.000949211
0.000966712
0.000987523
0.00101624
0.00103748
0.00106751
0.00111113
0.00113998
0.00116056
0.0012047
0.00146307
0.00105074
0.000954271
0.000913376
0.000896029
0.000873823
0.000860798
0.000861366
0.000869866
0.000883931
0.000903576
0.000925667
0.000946472
0.00096654
0.00098538
0.00100659
0.00103252
0.00105329
0.0010766
0.00110976
0.00113919
0.00116138
0.00119953
0.00154721
0.0010508
0.000930369
0.000891531
0.000871972
0.000861631
0.000859441
0.000865615
0.000877523
0.000894001
0.00091464
0.000937218
0.000958747
0.000979606
0.000999863
0.00102043
0.00104226
0.0010636
0.00108567
0.00111184
0.00113767
0.00116039
0.00118773
0.00159081
0.00105424
0.000917589
0.000874371
0.000858825
0.000855655
0.000860387
0.000871422
0.000886991
0.000906211
0.00092861
0.000952721
0.000975688
0.000997394
0.00101863
0.00103958
0.00106018
0.0010805
0.00110116
0.00112317
0.00114541
0.00116643
0.00118668
0.00161869
0.00106225
0.000915249
0.000868063
0.000854388
0.000855451
0.000864803
0.000879837
0.000898881
0.00092096
0.000945401
0.000971134
0.000995986
0.00101959
0.00104279
0.00106527
0.00108621
0.00110596
0.00112542
0.00114511
0.00116485
0.00118389
0.00120072
0.0016405
0.00107185
0.000918307
0.000868635
0.000855996
0.00085978
0.00087242
0.000890745
0.00091296
0.000937817
0.000964367
0.000991841
0.00101883
0.00104488
0.00107053
0.00109518
0.00111769
0.00113822
0.00115785
0.00117718
0.00119619
0.00121431
0.00123007
0.00166095
0.00108359
0.000925539
0.000874147
0.000862013
0.000867655
0.000882805
0.000903926
0.000928977
0.000956397
0.000985155
0.00101471
0.00104417
0.00107307
0.00110143
0.00112864
0.00115361
0.00117628
0.0011977
0.00121854
0.00123874
0.00125776
0.00127455
0.00168102
0.00109668
0.000935615
0.000883179
0.000871451
0.000878555
0.000895819
0.000919406
0.000947019
0.000976874
0.00100806
0.00104013
0.00107252
0.00110472
0.00113625
0.00116657
0.00119481
0.00122082
0.00124546
0.00126934
0.00129239
0.0013141
0.00133365
0.00170066
0.00111071
0.000947842
0.000894993
0.000883833
0.000892328
0.000911564
0.00093744
0.000967488
0.000999919
0.00103393
0.00106907
0.00110486
0.0011408
0.00117623
0.00121049
0.00124292
0.00127341
0.00130257
0.00133081
0.00135808
0.00138392
0.00140761
0.00171969
0.00112573
0.000962121
0.0009094
0.000899039
0.000909001
0.000930236
0.000958401
0.000990979
0.00102634
0.00106371
0.00110255
0.00114238
0.00118269
0.0012228
0.00126199
0.00129971
0.00133586
0.00137077
0.0014047
0.00143752
0.00146881
0.00149787
0.00173777
0.0011422
0.000978808
0.000926584
0.000917182
0.000928706
0.000952058
0.000982715
0.00101819
0.00105702
0.00109838
0.00114167
0.00118634
0.00123185
0.00127756
0.00132278
0.00136701
0.00141007
0.00145206
0.00149306
0.00153286
0.00157099
0.00160672
0.00175366
0.00116116
0.000998656
0.000946945
0.000938509
0.000951661
0.0009773
0.00101082
0.00104976
0.00109273
0.00113885
0.00118744
0.00123791
0.00128969
0.00134215
0.00139467
0.00144675
0.00149812
0.00154867
0.00159828
0.00164662
0.00169312
0.00173699
0.00176428
0.00118564
0.00102287
0.000970945
0.000963284
0.000978149
0.00100634
0.00104323
0.00108633
0.00113422
0.00118597
0.00124086
0.00129826
0.00135758
0.0014182
0.00147952
0.00154102
0.00160231
0.00166311
0.00172308
0.00178174
0.00183838
0.00189213
0.00176416
0.00122912
0.00105362
0.000998978
0.000991732
0.00100848
0.00103965
0.00108052
0.00112854
0.00118224
0.00124063
0.00130298
0.00136863
0.00143698
0.0015074
0.00157928
0.00165205
0.00172519
0.00179824
0.00187064
0.00194172
0.00201062
0.00207633
0.0017628
0.00127813
0.00108802
0.00103071
0.00102399
0.00104299
0.0010777
0.00112326
0.00117707
0.00123758
0.0013038
0.00137496
0.00145041
0.00152953
0.00161167
0.00169619
0.00178243
0.00186973
0.00195743
0.00204475
0.0021308
0.00221451
0.00229469
0.00176123
0.00133351
0.00112589
0.00106611
0.00106023
0.00108201
0.00112095
0.00117205
0.00123263
0.00130113
0.00137654
0.0014581
0.00154517
0.0016371
0.00173323
0.00183285
0.00193519
0.00203945
0.00214472
0.00224998
0.00235408
0.0024557
0.00255343
0.00176374
0.00138021
0.00116767
0.00110533
0.0011007
0.00112589
0.00116987
0.00122747
0.00129597
0.00137382
0.00146002
0.00155384
0.00165465
0.00176181
0.00187461
0.00199228
0.00211393
0.00223853
0.00236493
0.00249183
0.00261774
0.00274106
0.00286004
0.0017666
0.00143174
0.00121298
0.0011485
0.00114566
0.00117498
0.0012249
0.00129011
0.00136787
0.00145665
0.00155551
0.00166377
0.00178083
0.00190608
0.00203878
0.00217806
0.00232287
0.00247195
0.00262385
0.00277691
0.00292925
0.00307886
0.00322362
0.00176234
0.00151053
0.00126239
0.00119582
0.00119535
0.00122961
0.00128651
0.00136058
0.00144912
0.00155066
0.00166435
0.00178961
0.00192591
0.00207267
0.00222913
0.00239432
0.002567
0.00274563
0.00292839
0.00311316
0.00329759
0.00347914
0.00365518
0.00746438
0.00158251
0.00131555
0.00124739
0.00124997
0.00129007
0.00135509
0.00143946
0.00154052
0.00165692
0.00178797
0.00193323
0.00209229
0.00226464
0.00244952
0.00264584
0.00285215
0.00306656
0.00328679
0.00351014
0.00373361
0.00395401
0.00416806
0.00176268
0.00164974
0.00137265
0.00130325
0.00130964
0.00135659
0.00143102
0.00152729
0.00164283
0.00177651
0.00192785
0.00209662
0.00228261
0.00248542
0.00270433
0.00293814
0.00318513
0.003443
0.00370884
0.00397924
0.00425037
0.00451814
0.00477841
0.00176573
0.00171452
0.00143329
0.00136339
0.00137442
0.00142933
0.00151457
0.00162451
0.00175676
0.00191046
0.00208544
0.00228181
0.00249964
0.00273874
0.00299844
0.00327747
0.00357379
0.00388457
0.00420614
0.00453411
0.00486355
0.0051892
0.00550577
0.00746227
0.00181131
0.00149755
0.00142766
0.00144427
0.00150833
0.00160592
0.00173147
0.00188289
0.00205968
0.00226215
0.00249086
0.00274628
0.00302856
0.00333718
0.00367081
0.00402706
0.00440242
0.00479225
0.00519089
0.00559191
0.00598848
0.00637378
0.00746661
0.00189254
0.00156486
0.00149585
0.00151903
0.00159355
0.00170513
0.00184839
0.00202163
0.00222493
0.00245921
0.00272566
0.00302536
0.00335895
0.0037262
0.00412577
0.00455488
0.00500923
0.00548289
0.00596853
0.00645775
0.00694154
0.00741097
0.00176452
0.00196938
0.00163497
0.00156759
0.00159841
0.00168474
0.00181206
0.00197526
0.00217322
0.00240673
0.00267755
0.0029878
0.00333944
0.00373382
0.00417118
0.00465029
0.005168
0.00571904
0.00629589
0.00688903
0.00748734
0.00807888
0.00865178
0.00748201
0.00205478
0.00170698
0.00164234
0.00168195
0.00178152
0.00192637
0.00211181
0.00233747
0.00260513
0.00291768
0.00327845
0.0036906
0.00415655
0.00467737
0.00525214
0.00587743
0.00654687
0.007251
0.00797743
0.00871143
0.0094369
0.0101378
0.00176531
0.00213685
0.00178009
0.00171936
0.00176912
0.0018834
0.00204752
0.00225743
0.00251376
0.00281957
0.00317923
0.0035977
0.00407978
0.00462944
0.00524897
0.00593819
0.00669363
0.0075079
0.00836929
0.00926177
0.0101656
0.0110589
0.0119194
0.00748231
0.00221946
0.00185264
0.00179802
0.00185948
0.0019899
0.00217486
0.00241123
0.00270093
0.00304868
0.00346077
0.00394427
0.00450619
0.00515264
0.00588783
0.00671296
0.00762511
0.00861623
0.00967224
0.0107727
0.011891
0.0129968
0.0140587
0.00747932
0.0022946
0.00192398
0.0018781
0.00195302
0.00210081
0.00230773
0.00257195
0.00289714
0.00329006
0.00375941
0.00431492
0.00496651
0.00572324
0.00659217
0.00757698
0.00867645
0.00988282
0.0111801
0.0125426
0.013935
0.0153139
0.0166334
0.00176724
0.00234967
0.0019938
0.00196078
0.00205086
0.00221655
0.0024456
0.00273805
0.00309976
0.00354001
0.00407038
0.00470387
0.00545405
0.00633397
0.00735487
0.00852458
0.0098456
0.0113126
0.0129091
0.0146046
0.0163517
0.0180878
0.0197429
0.00746968
0.00241239
0.00206614
0.00205061
0.00215644
0.00233881
0.0025883
0.0029076
0.00330522
0.0037933
0.00438669
0.0051022
0.00595787
0.00697192
0.00816151
0.00954112
0.0111203
0.0128999
0.0148673
0.0169887
0.0192023
0.021416
0.0235183
0.00176805
0.0024393
0.00215434
0.00215965
0.00227751
0.00247118
0.00273607
0.00307818
0.00350879
0.00404294
0.00469885
0.00549753
0.00646217
0.00761744
0.00898853
0.0105999
0.0124732
0.0146225
0.0170466
0.0197152
0.0225522
0.0254218
0.0281382
0.00176947
0.00251196
0.00230371
0.00231667
0.00242912
0.00261957
0.00288917
0.0032464
0.00370429
0.00428003
0.00499486
0.00587394
0.00694608
0.00824353
0.00980177
0.0116593
0.0138565
0.0164314
0.0194088
0.0227788
0.0264609
0.0302608
0.0338569
0.00176712
0.00297321
0.00266023
0.00258531
0.00263601
0.00279087
0.00304635
0.00340693
0.00388367
0.00449383
0.00526053
0.00621257
0.00738437
0.0088164
0.0105563
0.0126605
0.015196
0.0182386
0.0218634
0.026116
0.03095
0.0361193
0.0410582
0.0137203
0.00547262
0.00365624
0.00308721
0.00292781
0.00298688
0.00320132
0.003551
0.00403668
0.00467207
0.00548036
0.00649294
0.00774918
0.00929756
0.0111984
0.0135284
0.0163873
0.0199036
0.0242339
0.0295414
0.0359176
0.043172
0.0503842
0.142494
0.0216541
0.00668611
0.00400667
0.00330985
0.00318955
0.00333716
0.00366475
0.0041509
0.00480179
0.00563891
0.00669495
0.00801297
0.00964793
0.0116711
0.014178
0.0173012
0.0212279
0.0262221
0.0326425
0.0409226
0.051363
0.0631036
1.53643
0.121474
0.0150289
0.00533058
0.00367326
0.00333925
0.00342273
0.00372992
0.00421319
0.00487098
0.00572277
0.00680159
0.00815241
0.00983387
0.0119237
0.0145292
0.0178047
0.0219805
0.0274118
0.0346674
0.0447164
0.0593617
0.0823464
0.00523098
0.00405983
0.00398588
0.00486282
0.0018104
0.00184418
0.00183016
0.00177275
0.00135984
0.00138355
0.00137637
0.00134054
0.00126141
0.00126929
0.0012596
0.00123484
0.00126711
0.00126901
0.00124143
0.0012145
0.00124098
0.00124716
0.00122114
0.00120094
0.00121849
0.00121714
0.00120238
0.00118494
0.00119747
0.00119473
0.00118675
0.00117753
0.00119392
0.00119437
0.00119205
0.00118819
0.00120793
0.0012106
0.00121171
0.00121141
0.00123821
0.00124222
0.00124511
0.00124687
0.00128435
0.00128963
0.00129389
0.00129716
0.00134588
0.00135283
0.00135877
0.00136367
0.00142297
0.00143195
0.00143994
0.00144687
0.00151714
0.00152862
0.0015391
0.00154849
0.00163079
0.00164532
0.00165879
0.00167112
0.0017669
0.0017851
0.00180218
0.00181804
0.00192909
0.00195175
0.00197317
0.00199327
0.00212183
0.00214985
0.00217653
0.00220175
0.00235053
0.00238505
0.00241807
0.00244947
0.00262177
0.00266416
0.00270485
0.00274371
0.00294353
0.00299542
0.00304539
0.00309326
0.00332544
0.00338884
0.00345001
0.00350875
0.00377919
0.00385649
0.00393119
0.00400302
0.00431891
0.00441302
0.00450402
0.00459162
0.00496177
0.00507616
0.00518682
0.00529337
0.00572852
0.00586745
0.00600178
0.00613109
0.00664434
0.00681294
0.00697581
0.00713243
0.0077397
0.00794425
0.00814155
0.00833095
0.00905149
0.00929973
0.00953864
0.00976743
0.0106245
0.0109261
0.0112154
0.0114916
0.0125136
0.0128805
0.0132312
0.0135645
0.0147869
0.0152345
0.0156602
0.0160626
0.0175302
0.0180784
0.0185962
0.0190821
0.0208546
0.021529
0.0221604
0.0227471
0.0249077
0.0257417
0.0265131
0.0272204
0.0298918
0.0309284
0.0318708
0.0327188
0.0360945
0.0373869
0.0385318
0.0395345
0.0439432
0.045548
0.0469138
0.0480626
0.0541113
0.0560531
0.0576018
0.0588265
0.06773
0.0698579
0.0713774
0.0724687
0.0867155
0.0882197
0.0890799
0.0896005
0.00181793
0.00115608
0.000935495
0.000841994
0.000794799
0.00076674
0.000746434
0.000728193
0.000710134
0.000690661
0.000668033
0.000642254
0.000612871
0.00058128
0.000551676
0.000528485
0.000521166
0.000573166
0.00109868
0.00140014
0.00111032
0.000959828
0.000878067
0.000830421
0.000800448
0.000779614
0.000763021
0.000748363
0.000733716
0.000715939
0.000693695
0.000667018
0.000637568
0.000608797
0.000587393
0.000586089
0.000649663
0.00120214
0.00123314
0.00108218
0.000977446
0.000910675
0.000867989
0.00084015
0.000821196
0.000807446
0.00079688
0.000787542
0.000774549
0.000755015
0.000729096
0.000699969
0.000670846
0.000648764
0.000647117
0.000714264
0.00139688
0.00118368
0.00107961
0.000999237
0.000944412
0.000907411
0.000882794
0.000866269
0.000855353
0.000848994
0.000845859
0.000838428
0.000821743
0.000796252
0.000767381
0.000738058
0.000713864
0.000705878
0.000714906
0.000604692
0.00116365
0.00108298
0.00102101
0.000976616
0.000946206
0.000924964
0.000909894
0.000899734
0.000894045
0.000891644
0.000885785
0.000877457
0.000864937
0.000832326
0.000806955
0.000783143
0.00078847
0.000907755
0.00205984
0.00115584
0.00109306
0.00104409
0.00100853
0.000984506
0.000966252
0.000950506
0.000938458
0.000931625
0.000927968
0.00092431
0.0009243
0.000915879
0.00088522
0.000864094
0.000843078
0.000847494
0.000954707
0.000799065
0.00115518
0.00110907
0.00107185
0.0010412
0.0010206
0.00100365
0.000987542
0.000975018
0.00096748
0.000963267
0.000963601
0.000973883
0.000968997
0.000921448
0.000888516
0.000871792
0.000878588
0.000934555
0.00111628
0.00116089
0.00112741
0.00109864
0.00107503
0.00105716
0.00104076
0.00102526
0.00101303
0.00100488
0.00099943
0.000996054
0.000993879
0.000976604
0.000936441
0.000902784
0.000885869
0.00089729
0.000990642
0.00115902
0.00117923
0.00115611
0.00113367
0.00111514
0.00109877
0.00108247
0.00106721
0.00105488
0.00104572
0.00103829
0.00102952
0.00101454
0.000986831
0.000949704
0.000918588
0.000900344
0.000910165
0.00101631
0.00115683
0.00120822
0.0011944
0.00117809
0.00116352
0.00114857
0.00113207
0.00111595
0.00110206
0.00109039
0.00107955
0.00106556
0.00104175
0.00100623
0.000968124
0.000936927
0.00091673
0.000920687
0.000999343
0.00115882
0.00124766
0.0012415
0.00123137
0.00122012
0.00120644
0.0011901
0.00117309
0.00115693
0.00114157
0.00112597
0.00110684
0.001078
0.00103852
0.000997705
0.000963811
0.000941873
0.000942494
0.00101202
0.00115645
0.00130076
0.00130001
0.00129478
0.00128625
0.00127409
0.00125861
0.0012412
0.00122288
0.00120376
0.00118321
0.00115923
0.00112754
0.00108649
0.00104311
0.00100599
0.000982888
0.000983526
0.00104554
0.00115713
0.00137001
0.00137345
0.00137189
0.00136591
0.00135563
0.00134134
0.00132385
0.0013038
0.00128141
0.00125648
0.00122814
0.00119416
0.00115268
0.00110778
0.00106799
0.0010447
0.00104848
0.00111009
0.00115809
0.00145653
0.0014643
0.00146648
0.00146336
0.00145521
0.00144226
0.00142494
0.00140363
0.0013786
0.00134996
0.00131759
0.00128082
0.00123883
0.00119359
0.00115235
0.00112946
0.00113746
0.00121097
0.00115374
0.00156213
0.00157502
0.0015816
0.00158202
0.00157648
0.00156519
0.00154835
0.00152624
0.00149915
0.00146738
0.00143126
0.00139106
0.00134719
0.00130145
0.00125999
0.00123721
0.00125151
0.00135994
0.00112793
0.00168954
0.00170858
0.00172053
0.00172534
0.00172313
0.001714
0.00169812
0.00167568
0.00164701
0.00161254
0.00157291
0.00152893
0.0014819
0.00143438
0.00139232
0.00136852
0.0013856
0.00151453
0.00115153
0.00184218
0.0018686
0.00188706
0.00189732
0.0018993
0.00189307
0.00187871
0.00185641
0.00182654
0.00178965
0.0017466
0.00169863
0.00164767
0.0015971
0.00155339
0.00152957
0.00155445
0.00173689
0.00490115
0.00202428
0.00205958
0.00208591
0.00210281
0.00211005
0.00210755
0.00209537
0.00207368
0.00204288
0.00200364
0.00195702
0.00190461
0.0018489
0.00179401
0.00174738
0.00172373
0.00175846
0.00197631
0.00116053
0.00224104
0.00228701
0.00232283
0.0023478
0.0023615
0.00236371
0.00235442
0.00233378
0.00230222
0.0022605
0.00220986
0.00215222
0.00209056
0.00202977
0.00197851
0.00195404
0.00199916
0.00226609
0.00116105
0.00249878
0.00255759
0.00260482
0.00263953
0.00266109
0.00266912
0.00266349
0.00264433
0.00261208
0.00256756
0.00251218
0.00244815
0.00237894
0.00231026
0.00225216
0.00222511
0.00228146
0.00262352
0.00492405
0.00280511
0.0028794
0.00294036
0.00298678
0.00301781
0.0030329
0.00303181
0.00301458
0.00298162
0.00293383
0.00287274
0.00280085
0.00272212
0.00264311
0.00257545
0.00254282
0.00260571
0.00299544
0.00567224
0.00316926
0.00326218
0.0033396
0.00340005
0.00344245
0.00346606
0.00347047
0.00345564
0.00342195
0.0033703
0.00330234
0.00322084
0.00313027
0.00303814
0.00295786
0.00291687
0.00298509
0.00343051
0.00658225
0.00360234
0.00371764
0.00381477
0.00389198
0.00394795
0.00398173
0.00399277
0.00398091
0.00394646
0.0038903
0.00381418
0.00372109
0.00361604
0.00350763
0.00341128
0.00335874
0.00343127
0.00394135
0.00762769
0.0041178
0.00425991
0.00438056
0.0044777
0.00454977
0.00459565
0.00461464
0.00460645
0.00457128
0.00450998
0.0044243
0.0043175
0.00419512
0.00406678
0.00395015
0.00388178
0.00395527
0.00453035
0.00877873
0.00473185
0.004906
0.0050546
0.00517533
0.00526642
0.00532662
0.00535509
0.00535144
0.00531574
0.00524877
0.00515227
0.00502959
0.00488672
0.00473437
0.0045926
0.00450309
0.00457257
0.00520971
0.0100298
0.00546412
0.00567643
0.00585811
0.00600661
0.00612003
0.00619705
0.00623681
0.00623881
0.00620305
0.00613014
0.00602169
0.00588105
0.00571454
0.00553394
0.00536174
0.00524522
0.00530543
0.00600387
0.0114271
0.00633837
0.00659597
0.0068166
0.00699756
0.00713699
0.00723368
0.0072868
0.00729592
0.00726091
0.00718218
0.00706109
0.00690083
0.00670789
0.00649497
0.00628714
0.00613801
0.00618552
0.00695474
0.0131005
0.00738338
0.00769454
0.00796074
0.00817938
0.00834885
0.00846829
0.0085372
0.00855527
0.00852232
0.00843851
0.00830484
0.00812414
0.00790281
0.0076543
0.00740639
0.00722011
0.00725444
0.00811648
0.0152003
0.00863403
0.00900829
0.00932747
0.00958939
0.0097932
0.00993875
0.0100261
0.0100554
0.0100265
0.00993923
0.0097942
0.00959361
0.00934346
0.00905764
0.00876671
0.00854037
0.00856396
0.00955072
0.0178628
0.0101327
0.0105809
0.0109612
0.0112725
0.011515
0.0116901
0.0117988
0.011842
0.0118198
0.0117319
0.0115784
0.0113605
0.0110836
0.0107614
0.0104271
0.0101601
0.0101775
0.0113241
0.0211711
0.011931
0.0124657
0.0129159
0.0132825
0.013568
0.0137758
0.0139088
0.0139689
0.013957
0.0138728
0.0137158
0.0134863
0.0131882
0.0128349
0.0124613
0.012157
0.0121759
0.0135206
0.025233
0.0140925
0.0147276
0.0152569
0.0156845
0.0160165
0.0162596
0.0164194
0.0164996
0.0165024
0.0164279
0.0162751
0.0160434
0.0157352
0.0153625
0.0149613
0.014631
0.0146668
0.016261
0.0302641
0.0166961
0.017447
0.0180641
0.018557
0.0189376
0.0192174
0.0194057
0.0195093
0.0195318
0.0194744
0.0193366
0.019117
0.0188168
0.0184462
0.0180415
0.0177109
0.0177952
0.0197151
0.0365747
0.0198412
0.0207235
0.0214354
0.0219956
0.0224244
0.0227401
0.0229573
0.0230863
0.0231337
0.0231025
0.0229932
0.0228053
0.02254
0.0222067
0.0218418
0.021562
0.0217568
0.0241216
0.0445973
0.0236544
0.0246822
0.0254917
0.0261165
0.0265891
0.0269367
0.0271807
0.0273359
0.0274126
0.0274167
0.0273517
0.0272199
0.0270257
0.0267818
0.0265281
0.0263917
0.0268157
0.0298204
0.0549139
0.028299
0.0294802
0.0303825
0.031062
0.031568
0.0319391
0.0322043
0.0323838
0.0324921
0.0325393
0.0325339
0.0324849
0.0324056
0.0323207
0.0322856
0.0324507
0.0333263
0.0373227
0.0684959
0.0339872
0.0353158
0.036292
0.0370054
0.0375265
0.037907
0.0381835
0.0383817
0.0385201
0.0386142
0.0386797
0.0387367
0.0388163
0.038971
0.0392982
0.0400119
0.0417453
0.0474238
0.0871624
0.040994
0.0424358
0.0434455
0.0441574
0.0446661
0.0450356
0.0453087
0.0455149
0.0456766
0.0458142
0.0459518
0.0461251
0.0463925
0.0468561
0.0477021
0.0493009
0.0525769
0.0613069
0.114043
0.0496701
0.0511419
0.0521142
0.0527724
0.0532322
0.0535647
0.0538151
0.0540139
0.0541848
0.0543519
0.0545469
0.054821
0.0552655
0.056051
0.0575099
0.0603278
0.0661265
0.0805462
0.154965
0.0604442
0.0617884
0.0626186
0.0631572
0.0635255
0.0637919
0.0639972
0.0641683
0.0643271
0.0644974
0.0647139
0.0650365
0.06558
0.0665775
0.0685296
0.0725912
0.0817633
0.106297
0.222459
0.0737927
0.0747699
0.0753314
0.0756816
0.0759179
0.0760905
0.0762276
0.0763478
0.0764667
0.0766028
0.0767845
0.0770643
0.0775484
0.07847
0.0803868
0.0847872
0.0963276
0.134473
0.346193
0.0901494
0.0904993
0.0906865
0.0908
0.0908768
0.0909344
0.0909825
0.0910275
0.0910752
0.0911329
0.0912128
0.0913375
0.0915549
0.0919758
0.0928939
0.095241
0.102804
0.138984
0.578501
)
;

boundaryField
{
    leftWall
    {
        type            epsilonWallFunction;
        value           nonuniform List<scalar> 
50
(
6.98732e-05
0.000148142
0.000256561
0.000364219
0.000468511
0.000570663
0.000673078
0.000780252
0.000939343
0.00119201
0.00166477
0.000772211
0.00291568
0.00109091
0.00146307
0.00154721
0.00159081
0.00161869
0.0016405
0.00166095
0.00168102
0.00170066
0.00171969
0.00173777
0.00175366
0.00176428
0.00176416
0.0017628
0.00176123
0.00176374
0.0017666
0.00176234
0.00746438
0.00176268
0.00176573
0.00746227
0.00746661
0.00176452
0.00748201
0.00176531
0.00748231
0.00747932
0.00176724
0.00746968
0.00176805
0.00176947
0.00176712
0.0137203
0.142494
1.53643
)
;
    }
    rightWall
    {
        type            epsilonWallFunction;
        value           nonuniform List<scalar> 
50
(
0.000105598
0.00016808
0.000275304
0.000390396
0.000513029
0.000644838
0.000794627
0.000946284
0.00109868
0.00120214
0.00139688
0.000604692
0.00205984
0.000799065
0.00111628
0.00115902
0.00115683
0.00115882
0.00115645
0.00115713
0.00115809
0.00115374
0.00112793
0.00115153
0.00490115
0.00116053
0.00116105
0.00492405
0.00567224
0.00658225
0.00762769
0.00877873
0.0100298
0.0114271
0.0131005
0.0152003
0.0178628
0.0211711
0.025233
0.0302641
0.0365747
0.0445973
0.0549139
0.0684959
0.0871624
0.114043
0.154965
0.222459
0.346193
0.578501
)
;
    }
    lowerWall
    {
        type            epsilonWallFunction;
        value           nonuniform List<scalar> 
62
(
6.98732e-05
0.000400484
0.000724313
0.00102258
0.00129382
0.00153742
0.00175302
0.0019402
0.00210007
0.00223717
0.00235748
0.00246635
0.00256426
0.00263992
0.00266539
0.00259914
0.00244121
0.00221367
0.00189536
0.00152632
0.00116832
0.000666437
0.000189838
0.000189838
0.000321845
0.000551983
0.000821258
0.00115519
0.00160294
0.00232585
0.00403642
0.00523098
0.00405983
0.00398588
0.00486282
0.000358688
0.000429345
0.000616659
0.000763397
0.000895284
0.00113504
0.00164125
0.00307498
0.000358688
0.00115921
0.00194532
0.00229265
0.00243282
0.00249488
0.00247304
0.00239128
0.00227139
0.0021501
0.00189298
0.00150999
0.00134736
0.00134958
0.00120354
0.000896352
0.000560292
0.000303771
0.000105598
)
;
    }
    atmosphere
    {
        type            inletOutlet;
        inletValue      uniform 0.1;
        value           nonuniform List<scalar> 
46
(
0.1
0.121474
0.0150289
0.00533058
0.00367326
0.00333925
0.00342273
0.00372992
0.00421319
0.00487098
0.00572277
0.00680159
0.00815241
0.00983387
0.0119237
0.0145292
0.0178047
0.0219805
0.0274118
0.0346674
0.0447164
0.0593617
0.1
0.1
0.1
0.1
0.1
0.1
0.1
0.1
0.1
0.1
0.1
0.1
0.1
0.1
0.1
0.1
0.1
0.1
0.1
0.1
0.1
0.1
0.1
0.578501
)
;
    }
    defaultFaces
    {
        type            empty;
    }
}


// ************************************************************************* //
