/*--------------------------------*- C++ -*----------------------------------*\
  =========                 |
  \\      /  F ield         | OpenFOAM: The Open Source CFD Toolbox
   \\    /   O peration     | Website:  https://openfoam.org
    \\  /    A nd           | Version:  9
     \\/     M anipulation  |
\*---------------------------------------------------------------------------*/
FoamFile
{
    format      ascii;
    class       surfaceScalarField;
    location    "9.4";
    object      phi;
}
// * * * * * * * * * * * * * * * * * * * * * * * * * * * * * * * * * * * * * //

dimensions      [0 3 -1 0 0 0 0];

internalField   nonuniform List<scalar> 
1300
(
11.2529
1.87548
-4.55157
11.2529
-4.92058
1.87548
-4.21162
4.21162
-1.26602
1.26602
5.71242
5.54044
-2.48658
2.48658
-3.03187
3.03187
-2.88831
2.88831
-1.06194
1.06194
-1.02834
1.02834
0.708896
-0.708896
-3.30921
3.30921
-1.54158
1.54158
-2.98555
2.98555
6.12863
-6.12863
-3.51892
3.51892
-0.786017
0.786017
-4.26341
15.5163
6.98945
6.98945
-2.42882
2.42882
-1.25636
1.25636
1.41034
-1.41034
9.76964
-9.76964
-5.21807
-6.13394
1.90236
-13.6948
-3.01823
-3.01823
-2.7054
2.7054
-0.829928
1.04555
3.47124
-3.47124
-0.793661
0.793661
-4.27212
0.0605051
-4.27212
4.03002
0.181599
4.03002
-1.4147
0.148677
-1.4147
4.57415
-4.57415
1.1494
0.116622
1.1494
3.92631
-3.92631
-5.70993
11.4224
5.54293
-5.32049
20.8368
-5.93237
11.4728
-3.88517
3.88517
-2.39752
-0.0890616
-2.39752
2.52221
-0.0356266
2.52221
-3.89558
3.89558
-2.80281
-0.229053
-2.80281
3.16557
-0.133705
3.16557
3.6464
-3.6464
-2.93594
0.0476336
-2.93594
2.74531
0.142998
2.74531
0.771042
1.10443
-2.64652
3.69207
-1.10443
0.0424987
1.02614
0.0357985
1.02614
-1.01455
-0.0137907
-1.01455
1.05012
-0.0217743
1.05012
0.755393
-0.0464976
0.755393
-0.762507
0.0536114
-0.762507
-8.52358
-8.66728
-3.42013
0.110929
-3.42013
-1.55032
0.00874121
-1.55032
1.58533
-0.0437499
1.58533
-2.56989
2.56989
-3.30856
0.323008
-3.30856
4.80744
1.32119
4.80744
5.04622
6.20664
16.2991
-16.2991
10.1704
-3.24676
-0.272161
-3.24676
-3.70543
-6.06421
3.70543
-0.186505
-0.857566
0.0715487
-0.857566
5.62599
1.36346
5.62599
2.63516
0.110154
-2.63516
0.206339
4.56983
-4.56983
1.46385
0.964968
1.46385
-1.19076
1.19076
1.12428
-0.0741616
-1.12428
-0.132081
1.386
0.0243425
1.386
-1.40974
-0.000594262
-1.40974
7.63119
-13.7651
-7.85072
3.14085
0.168358
-3.14085
0.12262
3.55539
-0.0841506
3.55539
-3.31574
3.31574
-3.60678
0.135532
-3.60678
-0.714293
-0.0793681
-0.714293
0.88303
-0.089368
0.88303
-4.4938
0.221678
-4.4938
-3.72179
0.413234
3.72179
0.308228
1.30346
-1.30346
-1.52406
0.109357
-1.52406
-4.56044
0.066637
4.56044
0.0137155
-4.6686
0.0944451
-4.6686
-3.70967
0.102897
3.70967
0.216637
4.58822
1.03777
-4.58822
0.661912
-5.36963
11.5763
-5.88323
11.4262
-3.53257
-0.352593
-3.53257
4.05364
-0.168471
4.05364
2.66984
0.315713
-2.66984
0.272316
2.66995
-0.147743
2.66995
-3.86507
-0.0305143
-3.86507
3.69555
0.200032
3.69555
2.73092
-0.0609664
-2.73092
-0.071894
3.16797
-0.00239435
3.16797
3.64798
-0.00157541
3.64798
-3.52514
-0.121258
-3.52514
3.19034
-3.19034
3.09603
0.0943138
-3.09603
0.160084
-5.07402
5.07343
-0.00799891
-5.06602
1.01814
1.01814
0.805571
-0.050178
0.805571
-0.863164
0.100657
-0.863164
8.44991
-16.3006
8.60981
-17.1334
7.23861
-20.9334
7.93705
-16.6043
3.6936
-3.6936
3.62627
0.0673336
-3.62627
0.206136
-1.52047
-0.0298551
-1.52047
-2.33553
-0.234367
-2.33553
2.90156
-0.331669
2.90156
-3.74519
3.74519
-4.12664
0.381456
4.12664
0.680803
3.23382
-0.0658513
-3.23382
-0.0129425
0.988714
0.160687
-0.988714
0.131148
4.79391
-0.224078
4.79391
-4.04313
-0.526694
-4.04313
-1.52501
0.00454614
1.52501
-0.0611607
-1.25867
0.0679115
-1.25867
-5.0745
0.00847732
-5.0387
-1.40127
-1.40127
1.30414
4.9962
-3.57423
0.0490814
3.57423
-0.0188313
3.53145
0.213738
-3.53145
0.215711
-3.27185
0.0815056
3.27185
0.0438893
-0.691226
-0.0230678
-0.691226
-1.0793
1.0793
-0.960584
-0.118714
0.960584
-0.0775547
1.4596
-0.156138
1.4596
1.56227
0.0230629
-1.56227
0.0382106
-4.90712
0.238521
-4.90712
4.04961
0.00402396
4.04961
-3.91505
-0.128081
3.91505
-0.267074
-0.00371991
5.07715
-1.01442
-0.000134774
1.01442
-5.10149
5.10136
-0.697054
0.00582879
0.697054
0.108517
1.02889
0.161869
-1.02889
0.16573
3.72283
-0.0272786
-3.72283
0.0292249
-2.05548
-0.280048
-2.05548
-3.21805
-0.314524
3.21805
-0.316486
-5.11497
-0.0781441
5.19311
-5.13674
1.33682
0.0491782
-1.33682
5.15054
-1.19282
-0.110642
1.19282
-0.113525
1.66047
-0.200866
1.66047
5.0292
-0.235296
-5.0292
0.122082
-4.04421
0.179138
4.04421
0.00540626
-1.82914
-0.226337
1.82914
-0.168674
-13.1275
14.491
7.70923
-6.64974
-7.11539
-12.714
4.44774
7.12853
14.6182
-11.4212
-9.51223
-11.2986
2.86168
-2.69595
-3.83133
3.78483
23.1223
-23.0278
-18.4022
19.083
20.7725
-20.5559
5.7078
5.71455
16.2241
-16.3132
-20.8124
20.4598
16.1679
-16.397
21.5599
-21.5904
-25.0476
25.0204
-16.1912
16.2389
-20.2318
20.1105
-20.9413
20.6743
-8.35382
-8.77957
15.9055
-15.7946
21.1508
-21.4229
-19.4519
19.7749
10.0464
4.44459
11.0842
-6.24724
11.955
-5.22557
12.9348
8.28638
-16.6402
8.01425
-15.1296
9.73302
11.4178
-9.54651
-3.16744
-17.95
17.8659
-17.2799
17.3238
23.6529
-23.5924
-6.17233
11.8869
-5.25383
12.3824
-11.4095
-6.99275
10.0883
4.52988
8.6823
7.22322
-8.85066
-2.44793
-24.4834
24.2481
-25.4448
24.9181
0.0882753
2.43242
-2.5207
1.34464
-0.848172
3.2806
2.01351
2.11417
2.45174
-2.28987
0.24421
-2.76491
-2.89699
-5.6518
5.76115
5.48218
-5.36556
16.1928
6.92948
16.2065
-16.4449
-6.58291
-16.2064
11.3677
7.7153
11.7492
12.0549
8.7176
12.1578
10.3611
-10.3303
-0.03083
-11.4761
21.8372
1.5566
-18.4689
-13.939
9.19654
7.02759
9.16091
-10.1098
-6.20337
-9.8375
-11.0534
-9.75906
-11.3679
12.2451
8.21469
12.0767
-15.0902
15.0956
9.90313
6.26478
9.76943
-9.43161
-6.96536
-9.5035
26.9334
-6.41076
-20.5226
-12.8263
-12.2213
12.6263
8.93359
13.839
11.1814
13.8682
8.62702
18.3063
-17.5606
5.33932
-9.98987
-6.20136
-9.82979
9.35235
6.88651
9.49535
-11.7406
-8.49118
-11.6915
-11.9372
-9.00418
11.9387
8.17178
-12.4459
-12.9989
12.5739
8.10032
7.52799
-17.0402
9.07633
-17.8559
-10.5471
-5.24746
-10.341
10.6805
6.59697
-17.2775
-5.95972
24.2568
-12.839
21.0894
-11.6399
-9.78307
-11.6528
-14.7505
-4.70143
-14.3372
-8.14704
7.86699
-8.93968
8.60801
26.781
-15.954
-10.827
-12.3765
-8.17939
11.7146
-0.630384
-12.8371
12.8063
-0.88206
12.0527
16.4973
15.8669
-10.8897
-6.39024
-10.674
10.2938
7.03001
10.3753
15.8773
7.77557
16.0589
-16.4571
-7.13524
-16.2354
5.072
-5.15137
5.90459
-5.90004
15.4127
9.50541
-15.1886
-9.29482
23.0617
-10.7954
-12.2663
-5.16622
5.37109
-0.20487
-1.88562
-0.540984
0.245033
-1.96038
-1.87095
1.90677
0.207402
5.57849
3.70754
-2.41372
2.48163
2.77939
2.70523
-0.191758
2.61797
-2.61215
19.2323
-11.5582
-7.67408
13.6513
-13.5846
-2.58416
-18.9443
16.3601
2.62186
3.22338
-3.15183
-4.16599
-1.4858
-4.12778
3.1574
2.32478
3.31809
2.2089
3.55225
-8.48815
1.66463
6.82352
-6.27925
-3.70093
-13.3296
-6.29322
19.6228
16.4187
7.82944
-16.5408
0.334367
5.54722
-5.59097
-1.54238
-11.7872
8.6093
-10.1517
-15.2146
-6.38723
21.6018
-9.58565
-1.08832
9.37191
2.37729
-10.8688
-7.08125
10.7332
1.42454
-12.0591
23.9765
-11.9175
-18.4493
8.51981
13.3174
16.2351
-17.8633
9.3134
8.54992
-4.54591
7.76854
1.39237
7.6208
-19.9628
13.7594
11.4978
8.27716
-11.8135
1.97598
-17.9868
24.9933
-21.9965
-2.99673
12.8685
12.1247
13.4342
13.3468
-7.90615
21.3403
-3.4015
-18.595
21.3883
-13.1111
15.4565
-28.5676
-28.8033
10.2083
-17.8532
21.7375
-3.88426
-5.06622
-10.024
22.9195
-2.05668
-20.8628
10.02
-14.0038
-11.9323
25.9362
-20.4146
18.8977
-6.48982
-12.4079
-12.431
-9.15938
12.2519
2.84373
-25.333
30.6723
-7.02663
8.37711
1.39232
8.37471
10.6165
-15.7173
5.10076
9.79804
-16.2879
6.92794
-22.6452
-11.7794
23.5239
-11.7444
-17.0269
-15.3212
-1.70571
4.7005
25.9718
-15.8819
11.7266
4.15525
8.49193
1.88339
-8.58624
-1.24355
1.03031
16.1823
-17.2127
10.5257
10.6358
11.8925
4.28984
10.7516
7.11432
-10.7327
-0.958791
-14.7448
5.74058
-6.57299
-14.4811
20.2217
-16.2453
1.76425
-10.2885
-14.032
24.3205
-16.4898
11.446
12.5306
18.476
-19.6109
5.57891
-9.77049
-9.84042
10.6664
-17.2394
7.43258
12.7891
15.5329
2.53399
12.425
11.0989
-19.022
1.16608
18.3221
-15.8741
3.78659
10.0816
-15.5132
0.192031
-10.149
2.65121
-15.4902
-14.6262
16.1998
-20.9012
-12.3678
13.4547
2.60423
-13.7629
-0.574355
-5.07712
-3.06992
-5.30346
-3.29489
-5.6448
-11.201
-1.98783
-9.21321
5.87916
-6.75746
-4.61044
7.07394
1.53407
-5.13022
5.01958
-5.76009
5.55922
-0.212564
13.0188
15.6544
7.47499
-8.47292
15.9479
-15.4241
23.1997
-29.2715
13.8474
15.616
-22.7512
-13.6555
2.82986
2.24215
2.74049
13.717
-14.7875
1.07054
-13.6121
17.8031
-4.19108
-20.0846
6.47249
-6.36757
5.39788
0.506707
5.36803
1.49833
6.943
-8.44132
-4.40172
-4.46288
-9.04451
-13.7439
22.7884
4.85086
-13.0838
8.23298
-12.2299
17.0807
0.190406
-13.2742
17.2579
-10.3149
17.7646
-12.0395
5.72512
12.7468
22.3187
-9.57193
16.1074
-6.60195
6.93132
-16.5033
-6.81254
-11.3519
18.2384
-12.9685
14.7328
-1.02578
15.7586
-13.9107
3.11522
-2.01814
8.61767
8.82401
16.7738
-12.4839
11.9958
-18.5977
-4.5075
-16.0637
-3.27464
0.981168
-13.8918
12.9106
12.2814
-11.3002
-3.3848
9.33112
-5.94632
5.94126
-2.97344
-2.96782
-1.93589
-3.21548
1.95896
0.659012
6.60027
0.51488
-3.48832
-2.09726
-1.98875
10.4925
8.73978
-4.0885
3.88363
3.84346
-0.620087
1.02263
2.29545
4.87255
-3.84992
0.725226
4.14732
-2.4266
4.03067
1.51656
-4.05373
-0.0740532
-3.51584
12.1251
3.30769
-5.63247
1.78255
2.36778
-13.926
19.4843
-11.2463
-8.23807
21.8521
3.0028
-14.2491
15.9415
-13.3196
7.96105
-14.2543
-6.28801
-19.6076
-12.6782
-10.7052
18.9382
-12.0832
19.9126
3.72355
-20.247
23.9705
-12.8535
6.46628
-9.73815
11.2547
-4.22723
-5.51092
11.3036
10.2982
-11.0338
-0.75342
0.269798
8.61556
-8.34576
-1.53611
-7.81536
-16.4007
17.8253
-8.26478
17.5782
7.68314
-7.62467
25.2028
6.57436
-14.199
-11.875
-12.9633
-5.64912
10.586
-1.91388
-7.58962
-14.3218
7.65058
-0.0297853
-19.2106
22.3191
-3.10855
-12.183
-1.57641
14.4449
-18.2458
1.95793
-11.3179
11.0013
12.3936
12.3638
-20.6776
-0.185208
-12.4629
3.25356
-15.7164
15.3783
-6.87848
17.0868
-15.9959
11.3855
-14.4618
14.09
-1.6264
14.4442
-9.34342
6.07843
-15.2378
-12.3941
14.8484
-8.58358
16.2407
-10.3259
26.5666
-17.3526
14.991
11.5756
-2.88162
-8.7712
-14.5287
11.6471
0.462337
8.83705
17.8112
-10.6969
16.8524
8.87815
-18.6486
-8.36125
-25.8631
7.21444
-13.3325
-7.34459
14.559
11.1314
13.0148
4.71862
-11.7712
17.4292
-19.135
-5.6848
-8.94145
15.0712
-3.42417
10.2021
-19.1435
-5.28817
13.1376
-0.355964
-12.7817
2.81636
-15.1842
5.21639
-20.4006
15.6848
-16.2592
1.83326
-8.20083
-3.29696
-3.41049
-2.22202
-3.53807
-7.79786
5.57584
-1.32537
3.69421
-12.6911
12.3352
-5.11202
10.6879
-4.18086
-1.1226
4.34953
1.20969
11.8976
2.97331
-16.6288
-9.3247
14.8034
-5.47865
1.16783
-10.9185
3.88485
7.98417
13.8679
-24.3443
1.59306
-15.0358
-4.23132
6.47347
5.0998
17.3812
2.59363
6.83516
-0.361689
9.42879
2.3788
2.30124
-11.2034
12.2739
1.70726
15.5546
-1.92149
7.64662
3.44653
3.45528
2.1357
5.82375
3.00026
8.93898
0.497654
-3.96522
2.14654
-4.13528
-1.34179
-4.18546
-0.400631
3.85849
-4.25912
10.7633
-2.02347
5.2846
-2.00877
-5.21085
7.21961
-9.68284
-5.83094
-1.68361
-5.84208
7.62463
6.28305
-5.94102
-3.74182
2.40376
-15.0819
11.8505
-12.6039
-2.30572
21.6648
-9.68107
1.33531
-3.2148
-6.48005
-7.96586
8.03991
24.1926
1.01019
12.2752
18.8355
11.7542
1.05733
12.0688
-15.9531
-10.5764
-16.1383
-0.759988
13.685
5.65087
20.3209
17.2265
13.8023
-5.34123
-24.4762
20.5569
-8.28292
16.3658
-3.5841
-16.8165
14.468
8.73171
-17.0722
0.813076
-16.0034
-24.2863
-0.422642
12.7578
-11.4749
10.3523
7.28239
1.93083
-2.53055
-0.879941
2.64926
-0.348016
9.08077
-0.168295
-8.52819
8.69648
-3.69019
2.3484
-0.55663
4.44026
6.66298
4.63951
-3.88868
-8.14779
-8.86232
-5.06369
-17.1004
2.52246
-8.80551
5.92075
-3.57234
2.95293
5.12414
10.4087
-1.65849
-9.6417
7.60481
-4.65188
5.75685
)
;

boundaryField
{
    wall-4
    {
        type            calculated;
        value           uniform 0;
    }
    velocity-inlet-5
    {
        type            calculated;
        value           uniform -11.2529;
    }
    velocity-inlet-6
    {
        type            calculated;
        value           uniform -1.87548;
    }
    pressure-outlet-7
    {
        type            calculated;
        value           nonuniform List<scalar> 8(4.55157 4.92058 11.352 11.7925 17.1909 15.4819 17.0597 15.1757);
    }
    wall-8
    {
        type            calculated;
        value           uniform 0;
    }
    frontAndBackPlanes
    {
        type            empty;
        value           nonuniform List<scalar> 0();
    }
}


// ************************************************************************* //
