/*--------------------------------*- C++ -*----------------------------------*\
  =========                 |
  \\      /  F ield         | OpenFOAM: The Open Source CFD Toolbox
   \\    /   O peration     | Website:  https://openfoam.org
    \\  /    A nd           | Version:  9
     \\/     M anipulation  |
\*---------------------------------------------------------------------------*/
FoamFile
{
    format      ascii;
    class       volScalarField;
    location    "22.75";
    object      p;
}
// * * * * * * * * * * * * * * * * * * * * * * * * * * * * * * * * * * * * * //

dimensions      [0 2 -2 0 0 0 0];

internalField   nonuniform List<scalar> 
918
(
23.4694
23.5788
0.95751
22.8868
1.01286
23.0953
3.27741
13.7866
19.2426
2.9341
2.62352
14.4088
20.6382
16.8796
12.9958
0.924488
14.0529
2.25128
18.4603
1.39879
12.9946
20.4481
21.5368
19.2844
14.1217
14.3746
18.6005
1.14869
0.109036
0.257397
0.977649
0.409364
0.1479
21.6322
22.3088
22.2471
15.4953
10.4055
3.60177
3.80596
2.98779
2.81132
13.8291
13.929
5.8695
13.7656
13.7614
16.6442
19.1107
19.2543
19.5475
19.3365
19.7229
5.97746
2.78606
2.60687
2.87526
2.94897
2.98118
2.69598
2.67744
2.48149
2.33553
13.8882
14.4819
14.537
14.2683
14.2159
22.4549
21.6979
22.0327
21.139
21.2844
20.2143
19.8287
17.2552
17.6077
16.4815
16.1006
12.7861
12.7473
13.2157
13.4655
0.14568
1.07479
1.22253
14.0598
14.0962
14.0964
14.1109
8.29003
2.193
2.19628
17.9007
17.4772
20.4821
20.7493
20.1963
20.0108
1.53114
1.52642
1.15292
1.18242
0.951338
13.3357
13.4898
19.2358
18.4027
14.1552
14.0553
14.1302
11.5005
13.9107
13.984
15.3243
15.7798
14.969
15.4055
18.1705
17.7525
19.0371
19.4744
0.394234
0.15538
0.687126
0.317941
0.51641
15.3636
15.1582
15.6112
15.662
15.8932
10.4102
10.3405
10.3845
10.3044
4.15283
4.46732
2.26047
2.57544
2.42645
9.87077
13.9452
13.9919
4.81399
5.51795
5.18156
6.35181
6.72606
16.0099
16.4465
16.1852
17.7315
16.9364
17.2846
19.8137
19.3029
19.6034
6.37312
6.60803
5.61161
5.25254
2.24239
2.49029
2.43304
2.98013
2.95789
3.21631
3.34559
2.6969
2.55384
2.8913
2.77488
2.82674
2.16537
2.03562
13.6123
13.3984
14.1512
14.3298
15.0969
14.9486
14.6552
14.824
19.0238
19.4273
19.4608
19.0766
11.5476
10.1575
13.72
13.9955
0.302155
0.265069
0.138082
0.380797
0.400198
0.14178
2.01429
1.82587
1.40475
1.6803
14.0573
14.017
8.53065
8.75016
8.12672
7.87022
16.3148
16.4651
17.0992
16.699
1.96254
1.67657
1.80623
13.6526
13.5252
13.632
10.9356
10.3692
11.9782
12.248
13.9922
14.0359
14.0319
15.6839
16.0024
19.8252
20.0959
19.9227
20.3085
21.3713
21.0226
20.6378
14.5395
14.9479
14.7863
16.1285
15.7621
15.9816
15.1895
15.4942
15.3521
10.3721
10.4183
10.1235
10.2012
10.2493
10.1965
9.80827
9.68143
14.0783
14.0335
14.0575
7.25389
7.75185
4.87159
4.54239
12.5442
13.2174
12.893
18.6536
17.9759
18.7089
18.338
17.888
18.2115
10.429
10.3904
10.4238
14.9198
14.2577
14.6096
2.4388
2.07466
2.23745
8.94617
9.03912
6.9768
7.59429
7.25696
16.304
16.6444
17.3246
16.4363
16.9039
17.4112
17.1893
9.94386
10.0763
9.99328
9.66536
9.55905
9.73603
8.33688
8.95008
3.61232
4.27027
3.96546
9.20699
9.43643
9.28379
18.6304
19.1652
0.767179
1.1557
19.5953
19.319
0.140385
0.242289
14.2562
12.5536
7.26431
17.1976
16.6303
18.97
3.19241
6.10482
2.80681
3.38057
2.68629
14.6159
14.2499
13.3411
0.453988
1.25702
1.70821
2.90093
18.4108
17.7357
18.8518
19.1719
19.2263
0.688188
0.914009
0.584281
1.24212
1.03109
1.27548
15.5514
15.6495
4.32732
18.8588
19.1631
19.1808
17.6576
18.6102
17.6677
0.935886
0.642854
0.708069
10.0815
12.1222
14.2164
13.769
13.966
13.9881
13.739
14.8723
14.5418
14.5067
14.9916
13.9676
13.8227
7.73559
6.38504
8.07022
7.71051
17.099
16.6869
16.4938
16.2395
18.0852
17.6113
18.4617
17.8501
18.3119
18.5988
2.9415
3.13163
3.01271
2.52228
6.14498
6.61076
5.48977
5.63681
4.26045
2.42607
2.52496
2.75121
2.58236
2.93073
2.6787
2.94274
2.57858
2.32376
2.32067
2.92985
2.73755
2.60329
14.5943
14.5327
14.3336
14.3717
14.3542
14.4699
13.5356
13.9403
13.568
12.3993
12.9803
12.5076
0.826391
0.662367
0.52547
1.32459
1.35175
1.11065
0.835047
1.17427
1.20177
0.81449
1.54429
1.44499
3.1589
2.64842
8.84668
7.97513
6.90135
16.8009
17.6027
16.7723
18.0131
18.43
18.5354
18.1558
17.6476
15.7301
15.7252
15.3854
15.3388
4.77289
3.73561
4.96945
4.53861
10.4805
14.066
11.8432
10.8046
11.1008
13.4246
13.9316
13.5838
13.7209
13.2958
12.824
13.5161
13.0497
13.151
12.9299
15.7206
16.1958
15.8022
15.2227
15.2427
10.601
12.0167
5.46777
5.64149
7.24476
6.53919
13.512
13.934
13.9186
13.5576
13.7456
13.7462
13.607
13.7811
13.8612
13.7557
11.825
10.1447
9.04618
9.03979
14.0776
12.3468
12.9312
12.4141
16.1208
16.6372
16.252
15.6464
16.1314
15.6033
15.6305
15.8437
17.2018
16.9514
16.7212
17.108
3.05293
3.00139
3.64556
3.13518
3.03722
2.82229
3.48366
4.75777
4.41538
6.71977
7.26935
4.57916
3.37258
3.79197
4.80634
5.54152
5.51267
3.96953
4.5025
4.92986
4.44105
5.2273
4.73133
2.71721
3.02278
2.86093
2.83486
3.38186
3.88062
3.37588
2.47928
2.59019
2.25486
2.11765
3.53406
2.99231
3.02887
3.67693
1.10681
1.32912
1.4415
2.41311
1.91206
1.97828
15.1829
14.827
14.9606
14.2399
14.3074
14.2485
13.8729
15.2403
14.9624
15.0618
13.7103
13.7971
13.6104
13.9057
14.3216
14.6208
15.4527
15.1738
14.4129
14.5639
14.2148
14.1431
13.4652
12.9022
12.8416
1.11285
0.823672
0.983929
0.911512
0.607453
0.799628
2.18319
1.57249
1.96955
1.7273
1.96013
1.4035
1.30214
4.25327
5.06121
3.96668
3.3679
3.06745
8.90438
9.0161
8.16496
7.86106
8.20274
8.43306
8.38308
7.13953
7.56804
7.38075
9.91991
9.58515
17.587
17.5311
17.2023
17.0434
17.2699
5.76194
7.66521
6.79995
7.91654
10.2092
10.5054
9.3122
8.70704
9.45938
9.53658
14.0477
14.1239
13.5647
14.0506
14.079
11.8355
12.8829
13.4976
13.3121
13.832
13.913
12.9741
13.5627
13.4778
12.7604
12.8135
12.1284
12.4669
11.9949
11.794
14.0565
13.9512
14.2209
13.7718
14.1511
13.7154
14.0307
14.0287
14.3093
13.4112
12.8326
12.8511
13.2773
12.9773
13.3233
13.4873
9.30893
9.94985
10.3894
10.9253
10.6329
10.4146
10.2818
10.5835
10.5606
10.8316
10.751
10.6017
11.5616
13.4185
13.7034
13.8051
13.6014
13.6475
13.3401
13.6132
13.5424
13.9206
14.0086
14.0582
13.1389
13.2953
13.4904
13.374
11.6759
10.0968
9.9494
9.50933
7.57754
8.0474
11.0256
9.90277
8.91842
8.99019
12.1692
10.8066
11.6198
12.0429
10.6945
10.3066
12.9718
13.7601
13.9799
13.704
12.0607
12.1865
12.6362
13.0797
13.2691
13.725
15.8606
16.4363
16.5142
16.2382
16.1003
16.2001
15.9502
16.0533
16.5273
16.6539
16.4851
2.87797
2.99131
2.92152
2.84706
3.084
2.8591
3.95337
3.94349
3.15417
3.33483
3.35477
3.46086
2.92859
2.9719
4.82553
5.06151
5.3333
4.83197
6.17472
6.81993
7.40204
7.08508
5.78913
5.86997
6.18644
3.50526
3.53319
3.25114
3.70786
3.76063
2.60967
2.23734
2.04234
2.56109
2.66401
2.04895
1.76764
1.81657
2.33023
2.04983
1.8043
14.9754
14.7337
14.7551
14.5349
14.5895
14.9843
15.2052
15.0153
15.1536
15.2047
14.8038
14.6927
14.8638
1.81799
1.49287
1.62242
1.57996
1.64238
1.54882
1.7362
7.60785
6.41528
6.80264
5.97889
4.12152
4.64203
9.54248
9.96441
10.0028
9.71495
9.50436
9.86996
9.72087
9.71395
8.26491
9.33584
8.87016
9.26678
9.28743
9.3557
9.06879
9.08123
10.5852
10.6187
9.48338
10.1235
9.33184
7.93263
8.0997
9.11322
10.0869
10.4074
10.252
9.98127
9.75269
10.1171
10.1718
10.2321
10.2216
8.75242
8.7117
8.3114
13.9694
13.876
14.0226
14.0277
14.1547
13.9793
13.8163
14.0936
14.1479
13.9321
11.0797
11.1387
11.3845
12.1316
12.1836
12.0934
11.3381
13.1028
12.7581
13.3964
13.343
13.4149
13.0049
12.8283
13.0989
10.0813
11.4541
10.9867
11.2503
10.0639
9.30766
13.2243
13.2783
13.3439
13.617
13.5747
14.1583
15.8306
15.7005
15.7478
15.7908
15.4025
15.4398
4.1744
3.82763
4.5481
4.50461
4.063
3.76321
2.28676
1.96856
1.78098
1.65534
1.88886
1.94938
8.16207
8.19054
6.33353
7.35621
5.87706
4.93603
4.79206
5.95505
7.13644
7.19613
8.51585
9.19413
8.75248
8.57839
7.9213
8.25188
10.12
10.2139
10.1146
10.4334
9.96613
11.7146
11.2967
11.6457
13.26
12.9693
12.3711
12.2577
12.2227
12.8159
11.948
11.1795
11.8922
12.5482
12.5063
11.1201
10.8751
11.3018
11.2854
10.1993
10.7199
10.4819
10.8342
10.5491
)
;

boundaryField
{
    wall-4
    {
        type            zeroGradient;
    }
    velocity-inlet-5
    {
        type            zeroGradient;
    }
    velocity-inlet-6
    {
        type            zeroGradient;
    }
    pressure-outlet-7
    {
        type            fixedValue;
        value           uniform 0;
    }
    wall-8
    {
        type            zeroGradient;
    }
    frontAndBackPlanes
    {
        type            empty;
    }
}


// ************************************************************************* //
