/*--------------------------------*- C++ -*----------------------------------*\
  =========                 |
  \\      /  F ield         | OpenFOAM: The Open Source CFD Toolbox
   \\    /   O peration     | Website:  https://openfoam.org
    \\  /    A nd           | Version:  9
     \\/     M anipulation  |
\*---------------------------------------------------------------------------*/
FoamFile
{
    format      ascii;
    class       surfaceScalarField;
    location    "0.61";
    object      alphaPhi0.water;
}
// * * * * * * * * * * * * * * * * * * * * * * * * * * * * * * * * * * * * * //

dimensions      [0 3 -1 0 0 0 0];

internalField   nonuniform List<scalar> 
4432
(
-4.95303e-06
4.95303e-06
-7.76124e-06
2.80821e-06
-7.58122e-06
-1.80022e-07
-6.19815e-06
-1.38307e-06
-4.58405e-06
-1.6141e-06
-3.07623e-06
-1.50782e-06
-1.78134e-06
-1.29488e-06
-7.07452e-07
-1.07389e-06
1.69053e-07
-8.76505e-07
8.89524e-07
-7.20471e-07
1.49039e-06
-6.00859e-07
1.98263e-06
-4.92246e-07
2.35444e-06
-3.71811e-07
2.57498e-06
-2.20538e-07
2.57467e-06
3.07538e-10
2.21159e-06
3.63084e-07
1.29037e-06
9.21216e-07
-4.11791e-07
1.70217e-06
-3.1293e-06
2.71752e-06
-6.5781e-06
3.69824e-06
-9.74312e-06
3.13862e-06
-9.09425e-06
-6.73331e-07
-9.37653e-06
-4.13511e-06
9.08814e-06
-5.01203e-06
3.68513e-06
-4.40283e-06
-7.89224e-07
-3.24847e-06
-2.53743e-06
-1.98866e-06
-2.87392e-06
-8.33807e-07
-2.66267e-06
1.4033e-07
-2.26902e-06
9.18657e-07
-1.85222e-06
1.52005e-06
-1.4779e-06
1.97628e-06
-1.1767e-06
2.31748e-06
-9.42059e-07
2.55528e-06
-7.30048e-07
2.68418e-06
-5.00706e-07
2.69174e-06
-2.28094e-07
2.5551e-06
1.36945e-07
2.23087e-06
6.87319e-07
1.61344e-06
1.53864e-06
5.49893e-07
2.76572e-06
-1.0044e-06
4.27183e-06
-2.94041e-06
5.68105e-06
-4.42168e-06
4.86235e-06
-4.8312e-06
-3.83375e-07
-1.42277e-05
-2.54192e-06
1.16301e-05
-2.62476e-06
3.76796e-06
-1.97877e-06
-1.43521e-06
-1.05755e-06
-3.45866e-06
-1.14828e-07
-3.81663e-06
7.20988e-07
-3.49849e-06
1.40293e-06
-2.95096e-06
1.9209e-06
-2.37019e-06
2.28827e-06
-1.84526e-06
2.53078e-06
-1.41921e-06
2.67467e-06
-1.08594e-06
2.73038e-06
-7.85762e-07
2.69558e-06
-4.65898e-07
2.56782e-06
-1.00339e-07
2.35006e-06
3.54709e-07
2.03784e-06
9.99536e-07
1.6063e-06
1.97017e-06
1.01787e-06
3.35416e-06
3.07377e-07
4.98233e-06
-2.99547e-07
6.28797e-06
-1.02683e-06
5.64884e-06
-1.21494e-06
-2.65422e-07
-1.54625e-05
-9.04525e-07
1.25346e-05
-4.64844e-07
3.32828e-06
1.58777e-07
-2.05883e-06
8.54948e-07
-4.15483e-06
1.48762e-06
-4.44931e-06
2.01074e-06
-4.02161e-06
2.41004e-06
-3.35026e-06
2.68088e-06
-2.64102e-06
2.83087e-06
-1.99526e-06
2.87993e-06
-1.46827e-06
2.8516e-06
-1.05761e-06
2.75472e-06
-6.88885e-07
2.58818e-06
-2.99356e-07
2.35852e-06
1.29326e-07
2.08602e-06
6.27202e-07
1.7961e-06
1.28946e-06
1.50919e-06
2.25709e-06
1.24606e-06
3.61728e-06
1.08599e-06
5.1424e-06
1.14281e-06
6.23114e-06
1.24197e-06
5.54968e-06
1.08391e-06
-1.22546e-07
-1.43893e-05
7.78097e-07
1.17565e-05
1.51109e-06
2.59529e-06
2.13329e-06
-2.68103e-06
2.57915e-06
-4.60068e-06
2.88879e-06
-4.75895e-06
3.10219e-06
-4.23501e-06
3.23076e-06
-3.47884e-06
3.26921e-06
-2.67947e-06
3.2167e-06
-1.94274e-06
3.0874e-06
-1.33897e-06
2.90383e-06
-8.7404e-07
2.67341e-06
-4.58458e-07
2.39501e-06
-2.0954e-08
2.08225e-06
4.42082e-07
1.77017e-06
9.39279e-07
1.50684e-06
1.55279e-06
1.33898e-06
2.42494e-06
1.30996e-06
3.64631e-06
1.51375e-06
4.93861e-06
2.02197e-06
5.72293e-06
2.61159e-06
4.96006e-06
2.45728e-06
3.17528e-08
-1.19346e-05
2.29366e-06
9.46284e-06
3.38706e-06
1.50189e-06
3.93684e-06
-3.23081e-06
4.08793e-06
-4.75177e-06
4.06573e-06
-4.73675e-06
3.98442e-06
-4.1537e-06
3.86493e-06
-3.35935e-06
3.69362e-06
-2.50815e-06
3.458e-06
-1.70712e-06
3.16726e-06
-1.04824e-06
2.84483e-06
-5.51602e-07
2.49749e-06
-1.11122e-07
2.12342e-06
3.53116e-07
1.74142e-06
8.24086e-07
1.39966e-06
1.28104e-06
1.16372e-06
1.78873e-06
1.09473e-06
2.49393e-06
1.23586e-06
3.50518e-06
1.68027e-06
4.4942e-06
2.47024e-06
4.93295e-06
3.35268e-06
4.07762e-06
3.30592e-06
7.85081e-08
-8.632e-06
3.43425e-06
6.02859e-06
5.06867e-06
-1.32525e-07
5.48809e-06
-3.65025e-06
5.30773e-06
-4.57142e-06
4.96786e-06
-4.3969e-06
4.62788e-06
-3.81373e-06
4.29709e-06
-3.02854e-06
3.94834e-06
-2.15938e-06
3.5554e-06
-1.31417e-06
3.12384e-06
-6.1667e-07
2.6802e-06
-1.07964e-07
2.23272e-06
3.3636e-07
1.77832e-06
8.07505e-07
1.33969e-06
1.26271e-06
9.76316e-07
1.64441e-06
7.68155e-07
1.99689e-06
7.82298e-07
2.47978e-06
1.0469e-06
3.24058e-06
1.64886e-06
3.89223e-06
2.61541e-06
3.9664e-06
3.70426e-06
2.98878e-06
3.86372e-06
-8.09621e-08
-4.76983e-06
4.40298e-06
1.6256e-06
6.45708e-06
-2.13418e-06
6.63978e-06
-3.78751e-06
6.13051e-06
-4.06099e-06
5.53346e-06
-3.80024e-06
5.00128e-06
-3.28027e-06
4.51266e-06
-2.53851e-06
4.03107e-06
-1.67663e-06
3.51571e-06
-7.9805e-07
2.96759e-06
-6.81029e-08
2.42236e-06
4.35992e-07
1.89302e-06
8.6575e-07
1.37367e-06
1.32683e-06
8.91632e-07
1.74473e-06
5.15284e-07
2.02074e-06
3.36637e-07
2.17554e-06
4.22736e-07
2.39368e-06
7.75973e-07
2.88734e-06
1.47921e-06
3.189e-06
2.55658e-06
2.88903e-06
3.78693e-06
1.75842e-06
4.22498e-06
-5.19019e-07
-5.46457e-07
3.09998e-15
-4.70192e-15
3.62822e-11
-3.62807e-11
-2.26485e-08
2.26551e-08
-9.17152e-07
8.14029e-07
-3.10688e-05
2.59449e-06
-0.000127806
1.76972e-06
-0.000154005
-1.00722e-06
-0.000154948
-9.07439e-07
-0.00015679
-2.55032e-06
-0.000166144
-3.73693e-06
-0.000168358
-7.50467e-06
-0.000161102
-9.63485e-06
-0.000150052
-1.14478e-05
-0.00013249
-1.76999e-05
-0.000103454
-2.91091e-05
-6.73851e-05
-3.51129e-05
-3.4047e-05
-3.28205e-05
-8.15483e-06
-2.65749e-05
-8.88407e-06
6.42649e-13
-4.77899e-13
-2.91759e-10
2.59143e-10
-1.47294e-07
1.69709e-07
-7.04675e-06
3.04496e-06
-8.98101e-06
9.35401e-07
-6.22709e-07
-7.23394e-09
-1.09161e-07
-1.72799e-09
-1.00399e-06
-1.01002e-08
-3.46746e-06
-8.80605e-08
-2.05911e-05
-5.19298e-07
-8.44313e-05
-2.73568e-06
-0.000131631
-9.0904e-06
-0.000131005
-2.19567e-05
-0.000116458
-3.22547e-05
-9.31413e-05
-5.24267e-05
-6.57014e-05
-6.25526e-05
-4.01115e-05
-5.84111e-05
-1.70251e-05
-4.9663e-05
-2.59298e-05
4.17533e-11
-8.99597e-12
-5.22406e-10
9.76309e-10
-1.61186e-06
4.26844e-07
-3.65547e-06
3.81229e-06
-7.81137e-07
0
-2.73107e-09
-6.9042e-13
-4.33822e-09
-6.8158e-11
-1.40907e-08
-4.21075e-10
-1.01282e-07
-2.9032e-09
-5.98185e-07
-1.74701e-08
-3.15657e-06
-1.43816e-07
-4.07126e-05
-1.89431e-06
-9.81408e-05
-1.12278e-05
-9.95798e-05
-4.24733e-05
-8.04959e-05
-7.15106e-05
-5.85565e-05
-8.44921e-05
-3.8173e-05
-7.87941e-05
-1.86999e-05
-6.91368e-05
-4.46322e-05
1.04866e-09
0
1.10009e-09
1.71337e-10
-3.77453e-07
2.29743e-07
-1.27107e-06
6.73946e-07
-2.51086e-10
0
-1.7022e-10
9.29548e-12
-1.29267e-10
-3.59855e-11
-4.11662e-10
-7.08834e-11
-2.44368e-09
-2.09747e-10
-1.91996e-08
-1.24465e-09
-1.27144e-07
-8.70852e-09
-1.8639e-06
-1.19081e-07
-2.41979e-05
-1.63507e-06
-7.14115e-05
-2.78672e-05
-6.62361e-05
-8.3477e-05
-4.89348e-05
-0.000101793
-3.28791e-05
-9.48467e-05
-1.68746e-05
-8.51464e-05
-6.15323e-05
5.41071e-08
0
3.6316e-08
0
6.33997e-08
1.55768e-07
-1.89678e-07
0
-1.7059e-10
1.24512e-09
-1.14774e-10
2.66047e-11
-8.19087e-11
-5.62004e-12
-5.11478e-11
-3.83214e-11
-6.26427e-11
-6.58898e-11
-3.04502e-10
-1.95839e-10
-2.67547e-09
-1.44591e-09
-5.91141e-08
-2.14323e-08
-1.33068e-06
-1.98194e-07
-3.98206e-05
-1.8711e-05
-5.10498e-05
-9.3353e-05
-3.82901e-05
-0.000114553
-2.61309e-05
-0.000106976
-1.37318e-05
-9.67811e-05
-7.32526e-05
1.67399e-06
-2.62724e-05
5.72622e-07
-5.00272e-06
0
8.11908e-07
4.38001e-08
0
-9.86041e-11
0
-8.51264e-11
5.34516e-11
-4.91042e-11
0
-2.25215e-11
0
-5.70497e-12
-3.59033e-11
-4.86179e-11
-5.43188e-11
-2.76502e-10
-4.61053e-10
-1.374e-09
-7.41148e-09
0
-4.36104e-08
-2.45864e-05
-1.39046e-05
-3.63708e-05
-0.000101906
-2.79066e-05
-0.000123019
-1.93068e-05
-0.000115583
-9.75745e-06
-0.000105288
-7.44917e-05
5.25372e-06
-6.30922e-05
0
-9.96644e-06
0
5.61449e-07
7.9334e-10
1.21256e-07
6.79978e-11
8.64313e-09
-1.0888e-10
7.672e-09
-6.37528e-11
1.42381e-10
-2.475e-11
-7.43955e-11
-9.32607e-12
-1.89481e-11
-1.76331e-11
-1.76098e-11
-1.69494e-10
-7.14612e-11
-3.01222e-09
-1.52737e-09
0
-1.3683e-08
-1.60194e-05
-5.60451e-06
-2.36804e-05
-0.000100429
-1.84953e-05
-0.000128208
-1.28432e-05
-0.000121241
-6.28417e-06
-0.000111394
-8.07976e-05
6.94244e-06
-7.00344e-05
0
-1.13819e-05
0
2.17817e-07
1.52373e-09
1.32784e-07
1.5803e-10
2.38932e-08
1.09693e-09
1.82247e-08
0
2.02281e-09
-3.20505e-11
-1.11093e-10
-7.47047e-12
-1.29398e-11
-4.59409e-12
-1.46553e-11
-6.35888e-11
-7.58139e-12
-1.20049e-09
-1.81246e-10
-1.02919e-09
-2.20927e-09
-6.77245e-06
-5.49439e-07
-1.31632e-05
-9.44355e-05
-1.02246e-05
-0.000131157
-7.0051e-06
-0.000124482
-3.49452e-06
-0.000114797
-8.42989e-05
7.14461e-06
8.54589e-17
9.75634e-06
2.13927e-17
9.86606e-06
1.97463e-18
9.37951e-06
-4.91362e-07
8.95831e-06
-5.72524e-07
8.63374e-06
-5.90352e-07
8.17963e-06
-4.67718e-07
7.55178e-06
-1.84839e-07
6.64375e-06
3.25986e-07
5.41009e-06
9.75557e-07
4.04379e-06
1.46142e-06
2.74504e-06
2.16443e-06
1.48894e-06
2.58288e-06
3.67975e-07
2.86566e-06
-4.37733e-07
2.82642e-06
-7.09294e-07
2.44699e-06
-2.94188e-07
1.97856e-06
6.57184e-07
1.93597e-06
2.35886e-06
1.48732e-06
4.91629e-06
3.31599e-07
7.97155e-06
-1.29684e-06
1.11516e-05
-3.69904e-06
-5.88022e-06
1.64796e-05
-1.06221e-16
4.07774e-16
-5.59564e-17
1.3811e-16
-8.26162e-18
2.7923e-18
8.22802e-08
1.28718e-11
3.23444e-07
-1.27931e-11
5.52962e-07
3.18522e-15
8.27579e-07
9.22668e-16
1.1411e-06
1.82877e-10
1.42368e-06
2.51769e-10
1.55764e-06
0
1.33828e-06
1.14635e-07
6.66938e-07
6.36617e-07
-2.1955e-07
1.39735e-06
-1.2209e-06
2.24176e-06
-1.97572e-06
2.69159e-06
-2.00211e-06
2.47338e-06
-1.19086e-06
1.1673e-06
-1.35104e-07
8.80214e-07
1.63445e-06
-2.82236e-07
4.31094e-06
-2.34488e-06
7.35039e-06
-4.33629e-06
1.06352e-05
-6.98389e-06
-1.03898e-05
1.51446e-05
-7.14034e-17
3.97266e-16
-1.34568e-16
1.80875e-16
-1.31391e-16
2.59565e-17
1.28434e-11
2.827e-14
5.02537e-14
3.47958e-18
-3.62313e-14
-2.84256e-15
-9.88674e-14
-1.96922e-14
1.81637e-10
1.20942e-12
4.81501e-10
2.19557e-12
8.01693e-10
6.19245e-12
1.16837e-09
0
-4.8172e-08
0
-2.21012e-07
0
-5.09162e-07
0
-9.72578e-07
0
-1.48974e-06
2.47696e-07
-7.42655e-07
9.36018e-09
2.71442e-07
-8.20715e-08
2.16939e-06
-2.0125e-06
5.07147e-06
-5.24578e-06
7.91242e-06
-7.17728e-06
1.08964e-05
-9.96783e-06
-1.38506e-05
1.43573e-05
7.41022e-17
2.22722e-16
9.41705e-19
1.59269e-16
-8.0717e-17
6.87671e-17
1.19688e-15
3.48796e-17
-1.21095e-16
1.79538e-17
-1.43508e-13
2.45472e-15
-4.68187e-13
-4.44856e-14
7.27238e-13
8.44989e-14
2.1879e-12
7.63496e-13
4.27987e-12
4.10048e-12
1.15719e-11
1.77175e-12
2.03376e-11
2.39427e-12
-1.76411e-10
0
-3.32744e-10
0
-4.94117e-09
0
-3.50812e-08
0
-4.98898e-08
-1.62382e-11
5.59409e-07
-2.29995e-15
3.5066e-06
-9.08453e-07
7.28337e-06
-2.40536e-06
9.39695e-06
-4.25045e-06
1.16396e-05
-9.00587e-06
-1.62289e-05
1.41509e-05
1.69978e-17
1.16997e-16
-8.06465e-19
9.35462e-17
-3.57843e-17
5.43131e-17
-6.47896e-17
3.51545e-17
-8.21569e-17
2.157e-17
-1.31599e-13
7.97033e-15
-4.66621e-13
3.18637e-15
-9.34021e-13
-1.0922e-13
-1.30638e-12
-3.46966e-13
-1.065e-12
-4.73261e-13
5.91839e-13
1.14903e-13
1.61083e-12
1.37528e-12
3.31952e-12
2.01876e-13
3.28284e-12
1.05539e-14
2.44512e-12
0
1.62694e-11
0
1.55271e-14
-1.24389e-16
2.06098e-15
-4.76295e-15
2.35581e-08
-9.70126e-15
5.32772e-07
-7.15525e-16
2.64269e-06
-1.04463e-15
7.43164e-06
-1.07251e-15
-4.0545e-15
1.26114e-05
4.60537e-18
5.44174e-17
-1.91227e-18
4.46343e-17
-1.40582e-17
2.93473e-17
-2.64405e-17
2.07714e-17
-3.72918e-17
1.42682e-17
-3.63644e-14
8.74085e-18
-1.35461e-13
3.98631e-18
-2.97319e-13
-1.36556e-15
-5.04465e-13
-8.01e-14
-7.23557e-13
-2.12004e-13
-8.22164e-13
-3.20256e-13
-1.62679e-13
-6.97832e-14
2.59328e-14
1.32644e-14
2.05919e-14
1.58949e-14
2.16148e-14
3.03792e-15
1.00708e-13
1.93006e-17
9.97129e-14
1.17065e-14
9.41371e-15
-3.72154e-16
4.71145e-16
-7.77404e-16
3.69417e-16
-9.44759e-16
4.01064e-16
-1.41058e-15
4.51252e-16
-1.32942e-15
-9.38005e-16
4.0435e-16
9.82587e-19
2.17431e-17
-1.26545e-18
1.76377e-17
-4.88549e-18
1.23367e-17
-8.91517e-18
8.92702e-18
-1.29555e-17
6.41305e-18
-1.66576e-17
4.35333e-18
-1.95211e-17
2.53504e-18
-2.96236e-17
9.37448e-19
-3.69211e-15
-1.12888e-16
-2.24641e-14
-3.7004e-15
-6.1252e-14
-1.54802e-14
-6.16527e-14
-1.80128e-14
-2.72907e-14
-8.02733e-15
-2.45411e-15
-6.77636e-16
5.49294e-16
3.45231e-17
1.41699e-15
6.57164e-17
4.75765e-15
8.20252e-17
2.59355e-15
-1.79824e-16
2.26743e-15
-8.99626e-16
2.16256e-15
-1.63297e-15
2.09557e-15
-2.40536e-15
9.30762e-16
-2.73359e-15
-2.02204e-15
3.7523e-16
1.1747e-19
7.46262e-18
-4.86265e-19
5.96261e-18
-1.41e-18
4.22878e-18
-2.44905e-18
3.00787e-18
-3.53692e-18
2.15494e-18
-4.59944e-18
1.50244e-18
-5.43018e-18
9.15053e-19
-5.56026e-18
3.60378e-19
-5.30343e-18
1.19989e-20
-1.63335e-16
-4.29588e-18
-1.30772e-15
-1.64797e-16
-2.72106e-15
-4.85073e-16
-2.42065e-15
-4.72374e-16
-1.21714e-15
-2.30544e-16
-1.3719e-16
-2.28382e-17
9.16464e-16
6.06435e-17
2.53098e-15
7.52804e-17
5.04766e-15
-8.87103e-17
6.76188e-15
-6.65616e-16
7.13768e-15
-1.5669e-15
6.56061e-15
-2.31109e-15
5.56062e-15
-2.54023e-15
-2.03027e-15
4.48774e-15
4.6162e-20
2.21047e-18
-9.0718e-20
1.78995e-18
-3.06188e-19
1.23021e-18
-5.31936e-19
8.30279e-19
-7.59841e-19
5.67896e-19
-9.7756e-19
3.8293e-19
-1.09539e-18
2.06731e-19
-8.68165e-19
1.30832e-20
-8.20727e-20
-1.69159e-19
6.93478e-18
-4.17139e-19
1.73512e-17
-1.11588e-19
2.85575e-17
1.39525e-18
9.81696e-17
6.59607e-18
2.54794e-16
1.97503e-17
5.14765e-16
3.81633e-17
9.46008e-16
5.07653e-17
1.77069e-15
2.64206e-17
3.57393e-15
-3.97738e-17
7.00622e-15
-2.24007e-16
8.64626e-15
-6.13318e-16
8.15927e-15
-1.11338e-15
7.35895e-15
-1.37414e-15
-1.14247e-15
6.59605e-15
2.64429e-20
5.84065e-19
3.18105e-21
4.9252e-19
-4.28967e-20
3.13755e-19
-8.7199e-20
1.9408e-19
-1.26122e-19
1.21723e-19
-1.58013e-19
7.36604e-20
-1.51258e-19
2.6081e-20
-1.71565e-20
-2.5484e-20
7.46492e-19
-8.47547e-20
2.69552e-18
-1.72183e-19
7.86823e-18
-2.80339e-19
1.88036e-17
-2.88309e-19
3.83734e-17
-1.12369e-19
7.25243e-17
3.3679e-19
1.34615e-16
8.12291e-19
2.56198e-16
7.09169e-19
5.12097e-16
-1.61764e-18
1.04396e-15
-1.08092e-17
1.91177e-15
-3.58773e-17
3.0579e-15
-8.045e-17
4.18313e-15
-1.30946e-16
5.06697e-15
-1.64855e-16
-1.54901e-16
6.25524e-15
1.17522e-20
1.44715e-19
7.12968e-21
1.26918e-19
-4.11835e-22
7.22758e-20
-9.32916e-21
3.94193e-20
-1.55479e-20
2.17794e-20
-1.87865e-20
1.08268e-20
-1.19202e-20
5.2558e-22
3.69157e-20
-5.00803e-21
9.84381e-20
-1.69792e-20
3.58598e-19
-4.21266e-20
1.10002e-18
-8.03268e-20
2.58132e-18
-1.14136e-19
5.05952e-18
-1.33176e-19
9.24255e-18
-1.47776e-19
1.71728e-17
-1.88338e-19
3.4089e-17
-3.20434e-19
7.18352e-17
-6.93143e-19
1.48485e-16
-1.58897e-18
2.69334e-16
-3.35863e-18
4.06043e-16
-6.12303e-18
5.38601e-16
-8.63639e-18
7.21993e-16
-7.55217e-18
-3.11313e-18
1.13773e-15
4.15877e-21
3.46875e-20
2.9696e-21
3.05088e-20
1.1987e-21
1.52133e-20
-7.47964e-23
7.12321e-21
-1.22074e-21
3.30571e-21
-1.54745e-21
1.17421e-21
-1.45559e-22
-3.8655e-22
2.57848e-21
-1.21551e-21
1.2303e-20
-3.49579e-21
4.67825e-20
-8.43464e-21
1.3365e-19
-1.57598e-20
2.86878e-19
-2.23735e-20
5.21352e-19
-2.69276e-20
9.03747e-19
-3.09469e-20
1.64847e-18
-3.74899e-20
3.2253e-18
-5.16449e-20
6.29662e-18
-7.95822e-20
1.15754e-17
-1.22718e-19
1.96121e-17
-1.71425e-19
3.00584e-17
-2.09108e-19
3.72547e-17
-2.123e-19
3.68913e-17
-1.43597e-19
-1.66038e-20
3.35513e-17
1.22791e-21
7.85773e-21
8.55518e-22
6.62515e-21
3.96401e-22
2.88202e-21
1.25386e-22
1.14754e-21
-2.15208e-24
4.32266e-22
-7.05908e-23
1.02376e-22
1.08248e-22
-2.88568e-23
2.92764e-22
-2.00259e-22
1.46659e-21
-5.70706e-22
5.2738e-21
-1.29807e-21
1.37697e-20
-2.23342e-21
2.68314e-20
-2.95413e-21
4.45391e-20
-3.35745e-21
6.98529e-20
-3.50434e-21
1.11136e-19
-3.42059e-21
1.87154e-19
-3.28468e-21
3.17395e-19
-3.27109e-21
4.90224e-19
-3.46813e-21
6.64953e-19
-3.74849e-21
8.15851e-19
-3.62306e-21
9.01548e-19
-3.00016e-21
9.11211e-19
-1.74488e-21
1.41758e-21
9.30812e-19
3.03158e-22
1.58026e-21
1.9488e-22
1.24109e-21
8.57561e-23
4.75436e-22
2.93057e-23
1.61721e-22
4.5914e-24
4.87193e-23
-3.21307e-26
7.15219e-24
4.28507e-24
-5.24846e-24
2.79317e-23
-2.68815e-23
1.33403e-22
-7.1144e-23
4.5732e-22
-1.49252e-22
1.08258e-21
-2.24025e-22
1.91776e-21
-2.62931e-22
2.88185e-21
-2.74512e-22
3.84373e-21
-2.48415e-22
4.65901e-21
-1.92281e-22
5.41559e-21
-1.13787e-22
6.3885e-21
-5.29529e-23
7.92872e-21
-4.3265e-23
9.67994e-21
-4.15308e-23
1.08924e-20
-4.3495e-23
1.22424e-20
-5.85048e-23
1.62036e-20
-9.90309e-23
1.39585e-21
4.10633e-20
6.0983e-23
2.65144e-22
3.57295e-23
1.91331e-22
1.42335e-23
6.57962e-23
4.34257e-24
1.94693e-23
5.55081e-25
4.72907e-24
-1.53095e-25
4.23372e-25
-4.01134e-26
-5.53143e-25
1.32377e-24
-2.73818e-24
8.09627e-24
-6.78348e-24
2.78643e-23
-1.26414e-23
5.92641e-23
-1.60771e-23
9.538e-23
-1.72621e-23
1.26836e-22
-1.57964e-23
1.52535e-22
-1.19081e-23
1.33429e-22
-6.66802e-24
8.19796e-23
-2.48462e-24
5.72877e-23
-1.08394e-24
6.10107e-23
-1.01885e-24
7.66338e-23
-1.18355e-24
1.1798e-22
-2.62649e-24
3.87259e-22
-2.19969e-23
3.05479e-21
-7.20295e-23
2.18861e-21
2.945e-20
9.65011e-24
3.48658e-23
5.20003e-24
2.29376e-23
1.86967e-24
7.25512e-24
4.87871e-25
1.92294e-24
4.23864e-26
3.90687e-25
-2.58715e-26
1.15202e-26
-3.89457e-26
-4.81965e-26
-2.79829e-26
-2.15962e-25
2.44879e-25
-4.92473e-25
1.05955e-24
-7.99555e-25
2.20414e-24
-9.03587e-25
3.34439e-24
-8.74974e-25
4.34997e-24
-6.34946e-25
3.83639e-24
-3.31541e-25
2.2516e-24
-1.28516e-25
9.5052e-25
-3.65374e-26
8.33453e-25
-2.29326e-26
1.04289e-24
-3.62756e-26
1.94552e-24
-1.47421e-25
9.36605e-24
-1.21292e-24
1.94755e-22
-2.07429e-23
3.07826e-21
-5.88397e-23
6.40281e-21
4.3163e-20
1.14335e-24
3.18667e-24
5.77856e-25
1.91405e-24
1.91229e-25
5.67692e-25
4.33683e-26
1.38069e-25
1.31678e-27
2.4863e-26
-2.81362e-27
5.32105e-28
-5.27302e-27
-3.00153e-27
-1.12835e-26
-1.2712e-26
-7.56996e-27
-2.69453e-26
1.72088e-26
-3.91792e-26
5.27839e-26
-4.16901e-26
9.09484e-26
-3.48956e-26
8.4005e-26
-1.84897e-26
4.98929e-26
-5.00338e-27
2.10373e-26
-5.93415e-28
1.08075e-26
-3.48206e-28
1.18306e-26
-1.08991e-27
4.0274e-26
-1.06494e-26
3.07226e-25
-8.82706e-26
4.07431e-24
-8.10055e-25
1.45545e-22
-1.80806e-23
3.09661e-21
-4.72543e-23
1.10782e-20
5.27936e-20
9.11795e-26
1.50931e-25
4.39944e-26
8.33609e-26
1.36678e-26
2.35126e-26
2.82762e-27
5.31273e-27
6.47946e-29
8.5225e-28
-1.94855e-28
-1.68286e-29
-4.06497e-28
-1.52158e-28
-1.01574e-27
-5.3892e-28
-1.31703e-27
-1.08621e-27
-6.80928e-28
-1.4726e-27
4.37224e-28
-1.50674e-27
1.35376e-27
-1.11737e-27
9.58927e-28
-4.93914e-28
2.29526e-28
-1.00864e-28
7.43473e-29
-1.09626e-29
9.02332e-29
-2.75712e-29
7.44374e-28
-3.79895e-28
1.16416e-26
-5.29727e-27
1.42663e-25
-5.12899e-26
1.96385e-24
-4.80258e-25
8.59908e-23
-1.28798e-23
2.76407e-21
-4.99047e-23
1.5794e-20
5.89421e-20
3.67927e-27
-1.49679e-37
1.71983e-27
-6.02921e-36
5.07105e-28
-1.17029e-32
9.57639e-29
-7.20813e-31
-2.08541e-30
-3.06951e-30
-4.01234e-30
-3.6926e-30
-2.03444e-29
-3.9386e-30
-5.22916e-29
-1.50515e-29
-7.49322e-29
-2.92808e-29
-6.13449e-29
-3.7813e-29
-2.97448e-29
-3.72896e-29
1.15813e-30
-2.46803e-29
7.72177e-30
-9.01279e-30
1.84462e-30
-1.32466e-30
1.14969e-30
-4.55483e-31
7.97438e-30
-6.81507e-30
1.98961e-28
-1.3576e-28
3.93069e-27
-2.06352e-27
5.42994e-26
-2.46048e-26
7.8754e-25
-2.55308e-25
4.14525e-23
-7.47362e-24
2.14474e-21
-6.88871e-23
1.80446e-20
5.94496e-20
-1.48533e-37
-1.14633e-39
-1.30234e-35
-1.39543e-39
-1.59885e-32
-5.37583e-36
-3.31227e-31
-3.01105e-34
-2.39557e-31
-1.45911e-33
-2.5531e-31
-1.04034e-32
-5.99679e-31
-7.16349e-32
-1.60531e-30
-2.21634e-31
-2.38196e-30
-3.96516e-31
-2.1059e-30
-4.82184e-31
-1.39303e-30
-4.42291e-31
-4.0328e-31
-2.60683e-31
-1.67492e-32
-7.79258e-32
1.00389e-32
-1.07143e-32
2.29428e-32
-7.21519e-32
1.31883e-30
-1.87882e-30
4.19637e-29
-3.98472e-29
9.45207e-28
-7.19864e-28
1.71655e-26
-1.05861e-26
2.89452e-25
-1.26903e-25
1.6269e-23
-3.65184e-24
1.36989e-21
-8.43999e-23
1.73236e-20
5.61049e-20
-2.27339e-41
-3.94104e-45
-3.0873e-39
-2.71256e-41
-1.53608e-36
-1.35305e-37
-4.95208e-35
-1.02812e-35
-2.20101e-34
-7.20675e-35
-1.83489e-33
-2.47633e-34
-9.66746e-33
-6.71502e-34
-2.36853e-32
-9.74566e-34
-3.37314e-32
-7.98911e-34
-3.07705e-32
-3.38984e-34
-2.05564e-32
-5.34953e-35
-6.15728e-33
-3.01345e-36
-3.8253e-34
-1.15684e-35
-2.12215e-34
-4.35622e-34
9.34909e-34
-1.54055e-32
1.47535e-31
-4.31975e-31
6.45572e-30
-1.07487e-29
2.00922e-28
-2.28525e-28
4.85166e-27
-4.0886e-27
9.96915e-26
-5.85132e-26
5.48016e-24
-1.55748e-24
7.63709e-22
-8.10222e-23
9.70482e-21
4.12821e-20
-3.93292e-45
-2.45442e-50
-5.0445e-41
-2.07862e-46
-6.04848e-38
-6.83614e-43
-1.25751e-36
-2.59462e-39
-7.00581e-36
-5.24896e-37
-3.14247e-35
-6.7699e-36
-6.7407e-35
-2.2951e-35
-6.68748e-35
-3.45382e-35
-3.7996e-35
-2.83353e-35
-7.03046e-36
-1.18383e-35
-2.10156e-37
-1.76728e-36
-1.9682e-37
-1.06232e-37
-1.28503e-36
-2.07534e-36
-4.24365e-35
-8.67578e-35
-8.29108e-34
-2.92809e-33
-1.41725e-33
-9.25447e-32
6.63223e-31
-2.59881e-30
3.48668e-29
-6.46807e-29
1.19008e-27
-1.38344e-27
3.16755e-26
-2.43265e-26
1.64718e-24
-5.995e-25
3.73559e-22
-6.07523e-23
4.40374e-21
2.79507e-20
-2.34764e-50
-2.16304e-54
-2.04363e-46
-2.39433e-50
-5.78494e-43
-9.65386e-47
-1.83293e-39
-4.35227e-43
-1.17845e-37
-7.6477e-41
-9.72775e-37
-7.51397e-40
-2.30927e-36
-1.58185e-39
-2.3521e-36
-1.49155e-39
-1.35646e-36
-6.2193e-40
-2.43724e-37
-1.97449e-40
-8.24267e-39
-2.02887e-40
-1.1282e-38
-4.87597e-39
-3.33615e-37
-2.77839e-37
-1.10259e-35
-1.23427e-35
-2.98699e-34
-4.97195e-34
-5.85958e-33
-1.77081e-32
-2.72517e-32
-5.68864e-31
4.04354e-30
-1.6543e-29
2.39425e-28
-4.19371e-28
8.92793e-27
-8.81516e-27
4.60386e-25
-2.29992e-25
1.61846e-22
-3.75785e-23
1.06841e-21
1.66265e-20
-2.16271e-54
-1.42043e-58
-2.3945e-50
-8.40481e-60
-7.58652e-47
-3.69876e-56
-3.15045e-43
-1.04469e-52
-1.80232e-41
-2.1042e-49
-8.78568e-41
-5.70192e-46
-9.90639e-41
-4.30902e-44
-6.24985e-41
-3.33826e-43
-1.46054e-41
-9.4196e-43
-1.50371e-41
-1.76599e-42
-2.25117e-41
-1.12677e-41
-9.13756e-40
-6.81736e-40
-4.63109e-38
-3.50593e-38
-1.93588e-36
-1.74166e-36
-6.74981e-35
-7.63995e-35
-1.88778e-33
-3.10405e-33
-3.76849e-32
-1.15645e-31
-7.72368e-32
-3.94361e-30
3.59885e-29
-1.15913e-28
2.11755e-27
-2.93228e-27
1.34141e-25
-1.04553e-25
6.61829e-23
-2.49616e-23
-2.78831e-22
8.7306e-21
-6.71823e-62
-8.55797e-60
-3.05233e-60
-1.30593e-60
-3.13624e-56
-1.5795e-59
-9.65494e-53
-5.16383e-56
-3.38298e-49
-1.16135e-52
-3.12631e-46
-3.5124e-49
-8.21387e-45
-8.96512e-47
-3.93296e-44
-1.25207e-45
-7.28862e-44
-4.75027e-45
-1.47657e-43
-3.14688e-44
-2.09959e-42
-1.17084e-42
-1.21083e-40
-6.82849e-41
-6.45541e-39
-4.05205e-39
-3.01144e-37
-2.18231e-37
-1.23145e-35
-1.08362e-35
-4.36837e-34
-5.09052e-34
-1.29266e-32
-2.22231e-32
-2.3731e-31
-8.78875e-31
1.83258e-30
-3.0033e-29
4.17686e-28
-9.97859e-28
4.88556e-26
-7.42632e-26
3.25268e-23
-2.39038e-23
-5.54904e-22
4.13697e-21
-1.19368e-62
-2.59175e-61
-1.49761e-62
-3.77156e-62
-6.82817e-60
-1.77296e-61
-4.48705e-56
-9.36101e-58
-1.00166e-52
-2.40994e-55
-3.27618e-49
-1.26036e-53
-2.1561e-47
-1.27336e-51
-1.058e-46
-1.27669e-49
-3.84247e-46
-3.66174e-47
-4.13438e-45
-2.95256e-45
-2.0023e-43
-1.0559e-43
-1.28498e-41
-6.63877e-42
-7.69249e-40
-4.20572e-40
-4.06675e-38
-2.51802e-38
-1.97233e-36
-1.42486e-36
-8.70926e-35
-7.82467e-35
-3.3352e-33
-4.01641e-33
-8.94894e-32
-1.84882e-31
-9.27538e-31
-7.67985e-30
5.58368e-29
-3.64125e-28
2.46023e-26
-7.30778e-26
2.05848e-23
-2.06017e-23
-4.76248e-22
1.78266e-21
-1.00832e-64
-2.21355e-63
-4.07193e-64
-5.09671e-64
-9.23461e-62
-4.79642e-62
-2.49179e-58
-2.40952e-59
-1.63897e-56
-5.21608e-57
-1.20254e-54
-1.05134e-54
-9.85109e-53
-1.2234e-52
-3.65513e-50
-1.38205e-50
-8.65123e-48
-2.56958e-48
-3.69635e-46
-1.75752e-46
-1.81847e-44
-7.47349e-45
-1.24916e-42
-5.68394e-43
-8.21879e-41
-3.90569e-41
-4.95523e-39
-2.64223e-39
-2.85479e-37
-1.72587e-37
-1.54988e-35
-1.12536e-35
-7.27118e-34
-7.01149e-34
-2.48699e-32
-4.02941e-32
-5.03646e-31
-2.2241e-30
-1.10345e-29
-1.74315e-28
1.12346e-26
-6.19318e-26
1.00198e-23
-1.41554e-23
-3.76663e-22
7.45084e-22
-2.84023e-67
-4.21128e-65
-5.38886e-66
-1.00349e-65
-2.89746e-63
-4.2913e-63
-1.26298e-60
-1.23445e-60
-5.03932e-58
-3.10878e-58
-9.721e-56
-4.93691e-56
-1.10437e-53
-6.73068e-54
-3.23963e-51
-7.2192e-52
-4.59873e-49
-6.28968e-50
-2.12961e-47
-5.57922e-48
-1.35889e-45
-5.5901e-46
-1.06197e-43
-4.27786e-44
-7.79366e-42
-3.24718e-42
-5.40239e-40
-2.47564e-40
-3.6977e-38
-1.94595e-38
-2.46412e-36
-1.64274e-36
-1.47459e-34
-1.42752e-34
-6.84153e-33
-1.22618e-32
-2.61291e-31
-1.05737e-30
-3.10591e-29
-1.30875e-28
-2.17112e-27
-4.61493e-26
3.18408e-24
-9.57411e-24
-3.42987e-22
3.2416e-22
7.73396e-68
-5.4721e-67
-1.35571e-67
-1.65063e-67
-1.29609e-64
-1.70071e-64
-7.47571e-62
-4.10449e-62
-2.19697e-59
-1.10949e-59
-4.71301e-57
-2.02177e-57
-7.72062e-55
-3.01714e-55
-8.58681e-53
-3.71477e-53
-8.11153e-51
-4.34968e-51
-1.00079e-48
-3.99098e-49
-9.64172e-47
-3.30679e-47
-7.97591e-45
-2.76163e-45
-6.39986e-43
-2.24342e-43
-5.06358e-41
-1.92872e-41
-4.28298e-39
-2.04535e-39
-3.89149e-37
-2.72658e-37
-3.58332e-35
-3.90355e-35
-2.84671e-33
-5.48409e-33
-2.09404e-31
-7.13973e-31
-4.3564e-29
-1.13747e-28
-2.04005e-26
-3.71828e-26
1.18539e-25
-7.87344e-24
-2.98244e-22
1.28053e-22
2.15866e-69
-5.67426e-69
-2.99532e-69
-2.83636e-69
-3.89126e-66
-1.77599e-66
-2.16042e-63
-1.16281e-63
-7.49938e-61
-3.53706e-61
-1.77242e-58
-6.79957e-59
-3.0169e-56
-1.12735e-56
-4.92233e-54
-1.50019e-54
-6.19376e-52
-1.70811e-52
-6.04379e-50
-1.65461e-50
-5.69308e-48
-1.51194e-48
-5.00922e-46
-1.24001e-46
-4.05195e-44
-6.55656e-45
-3.65998e-42
-1.36693e-43
-4.54319e-40
-4.79122e-41
-7.07057e-38
-3.07192e-38
-1.16449e-35
-9.25354e-36
-1.60345e-33
-2.022e-33
-1.914e-31
-3.7402e-31
-5.20218e-29
-8.48084e-29
-3.34536e-26
-3.26333e-26
-4.2386e-24
-6.19025e-24
-1.77622e-22
5.66334e-24
3.10605e-71
-4.9138e-71
-1.25966e-71
-3.27898e-71
-6.09741e-68
-4.89779e-68
-5.96913e-65
-2.54758e-65
-2.20229e-62
-8.51541e-63
-5.75332e-60
-1.86564e-60
-1.13565e-57
-3.20454e-58
-1.83259e-55
-5.01804e-56
-2.26743e-53
-8.41931e-54
-2.53758e-51
-2.55665e-52
-3.14138e-49
-3.64566e-52
-4.72858e-47
-4.81481e-50
-6.99279e-46
-2.04887e-47
-2.51853e-44
-8.14047e-45
-1.79578e-41
-3.22181e-42
-9.6233e-39
-1.31245e-39
-2.94928e-36
-5.43455e-37
-5.85995e-34
-2.26878e-34
-1.12555e-31
-9.23815e-32
-5.79223e-29
-4.19737e-29
-4.85591e-26
-2.26857e-26
-5.80579e-24
-3.31942e-24
-6.52342e-23
-6.58036e-23
3.05834e-73
-3.09569e-73
-2.33743e-73
-3.69437e-73
-1.31756e-69
-7.01812e-70
-1.2343e-66
-4.43832e-67
-5.35037e-64
-1.53535e-64
-1.42726e-61
-4.10822e-62
-2.7593e-59
-1.21809e-59
-1.7492e-56
-4.58459e-58
-1.07183e-53
-5.56452e-58
-1.79438e-53
-5.69477e-56
-4.04891e-53
-3.11554e-53
-1.04259e-50
-1.43153e-50
-4.95083e-48
-6.50722e-48
-2.21298e-45
-2.77092e-45
-9.67556e-43
-1.14509e-42
-4.2707e-40
-4.72875e-40
-1.90764e-37
-1.97163e-37
-8.35321e-35
-8.217e-35
-3.98274e-32
-3.36447e-32
-4.60259e-29
-1.38013e-29
-3.92266e-26
-8.50314e-27
-3.38538e-24
-9.81737e-25
-1.60048e-23
-3.3351e-23
1.80767e-75
-1.23493e-75
-3.64507e-75
-1.94643e-75
-2.17442e-71
-7.36001e-72
-1.99267e-68
-5.74386e-69
-7.99151e-66
-6.28788e-66
-1.28138e-62
-5.25531e-64
-1.58708e-59
-3.13707e-64
-2.29087e-59
-1.0288e-62
-3.84716e-59
-8.31877e-60
-8.50777e-57
-5.75008e-57
-5.54265e-54
-3.56145e-54
-3.15962e-51
-1.94415e-51
-1.61863e-48
-9.57085e-49
-7.73868e-46
-4.37634e-46
-3.58367e-43
-1.91881e-43
-1.64848e-40
-8.26666e-41
-7.54639e-38
-3.52237e-38
-3.30917e-35
-1.46709e-35
-1.45245e-32
-5.85901e-33
-1.89705e-29
-2.25217e-30
-1.39195e-26
-1.29683e-27
-9.4042e-25
-1.56563e-25
-3.36543e-24
-9.80611e-24
4.67769e-78
-4.32713e-78
-5.18929e-77
-2.67054e-78
-1.63331e-73
-4.4406e-74
-1.67255e-69
-1.49193e-70
-1.38743e-65
-1.74634e-68
-1.02971e-65
-9.89277e-69
-1.30425e-65
-4.06007e-67
-1.05122e-63
-4.16475e-64
-1.01247e-60
-3.79748e-61
-8.3554e-58
-2.96933e-58
-5.91428e-55
-2.01319e-55
-3.66607e-52
-1.19978e-52
-2.0419e-49
-6.401e-50
-1.05577e-46
-3.13285e-47
-5.23946e-44
-1.44722e-44
-2.55043e-41
-6.46576e-42
-1.21877e-38
-2.82047e-39
-5.49748e-36
-1.19063e-36
-2.41743e-33
-4.76887e-34
-2.68005e-30
-1.79085e-31
-1.72264e-27
-8.79607e-29
-1.42438e-25
-1.89278e-26
-9.862e-25
-3.56076e-24
-1.8257e-81
-3.9851e-80
-1.87624e-78
-1.73201e-80
-2.12624e-74
-2.25314e-76
-3.70823e-70
-5.78567e-74
-2.63174e-70
-6.75054e-74
-3.32821e-70
-1.07618e-71
-3.34733e-68
-1.39574e-68
-4.111e-65
-1.59927e-65
-4.32663e-62
-1.59462e-62
-3.89485e-59
-1.38452e-59
-3.03093e-56
-1.04918e-56
-2.06535e-53
-6.98264e-54
-1.25631e-50
-4.13042e-51
-7.00933e-48
-2.21263e-48
-3.69874e-45
-1.09991e-45
-1.88948e-42
-5.19882e-43
-9.39505e-40
-2.36987e-40
-4.42742e-37
-1.03878e-37
-1.97016e-34
-4.30269e-35
-1.28114e-31
-1.65039e-32
-9.72758e-29
-6.00706e-30
-2.34444e-26
-2.77059e-27
-3.09471e-25
-2.05268e-24
-1.13329e-82
-1.04786e-82
-1.60388e-80
-1.51383e-85
-1.00235e-75
-3.99814e-83
-1.41483e-75
-7.60341e-80
-2.10347e-75
-1.21418e-76
-7.27056e-73
-1.74588e-73
-1.08329e-69
-2.34093e-70
-1.41499e-66
-2.8852e-67
-1.61949e-63
-3.2162e-64
-1.62015e-60
-3.19574e-61
-1.41552e-57
-2.80702e-58
-1.08461e-54
-2.17929e-55
-7.37444e-52
-1.50813e-52
-4.54228e-49
-9.45901e-50
-2.60443e-46
-5.49847e-47
-1.42522e-43
-3.02562e-44
-7.53009e-41
-1.59194e-41
-3.8044e-38
-7.95605e-39
-1.76827e-35
-3.70505e-36
-7.90115e-33
-1.57197e-33
-7.43258e-30
-6.01592e-31
-5.23972e-27
-3.17763e-28
-4.6228e-26
-8.02232e-25
-2.79051e-87
-1.24041e-91
-5.03101e-87
-1.46001e-88
-2.2759e-84
-2.24102e-85
-4.3533e-81
-2.73733e-82
-7.12252e-78
-3.71861e-79
-1.09066e-74
-5.55968e-76
-1.59664e-71
-8.67584e-73
-2.20369e-68
-1.32184e-69
-2.79742e-65
-1.81849e-66
-3.19467e-62
-2.15672e-63
-3.23761e-59
-2.29857e-60
-2.90236e-56
-2.19243e-57
-2.32013e-53
-1.88518e-54
-1.68541e-50
-1.48646e-51
-1.14098e-47
-1.09726e-48
-7.35535e-45
-7.69192e-46
-4.54727e-42
-5.11717e-43
-2.66621e-39
-3.18085e-40
-1.42787e-36
-1.80604e-37
-7.07955e-34
-9.18088e-35
-6.90734e-31
-4.64007e-32
-6.32247e-28
-2.23865e-29
-2.59013e-27
-1.16278e-25
-6.19634e-93
-5.41198e-96
-1.08663e-89