/*--------------------------------*- C++ -*----------------------------------*\
  =========                 |
  \\      /  F ield         | OpenFOAM: The Open Source CFD Toolbox
   \\    /   O peration     | Website:  https://openfoam.org
    \\  /    A nd           | Version:  9
     \\/     M anipulation  |
\*---------------------------------------------------------------------------*/
FoamFile
{
    format      ascii;
    class       volVectorField;
    location    "17.7";
    object      U;
}
// * * * * * * * * * * * * * * * * * * * * * * * * * * * * * * * * * * * * * //

dimensions      [0 1 -1 0 0 0 0];

internalField   nonuniform List<vector> 
918
(
(2.47629 -0.138943 0)
(0.108704 0.722546 0)
(0.172771 1.07327 0)
(2.31834 0.153728 0)
(-0.059419 1.25371 -1.21057e-19)
(-0.0924034 0.643931 -5.31659e-18)
(0.526351 0.843868 -2.97064e-19)
(0.274762 0.153073 -2.98894e-20)
(3.00615 -0.0195617 0)
(-0.00842612 0.47597 0)
(-0.0176559 0.591428 0)
(0.605396 0.00674461 0)
(0.0107054 0.439105 0)
(-0.00288393 0.421691 0)
(0.0135792 0.341208 -1.30644e-18)
(-0.0052576 0.76157 -9.18095e-20)
(0.312704 0.0743264 2.15166e-18)
(0.0790076 0.638925 -2.24479e-19)
(1.52885 0.128626 0)
(-0.0276013 0.69266 0)
(0.195021 0.157968 -1.26648e-18)
(3.08302 -0.397374 0)
(2.92445 -0.505982 0)
(1.86116 -0.181101 0)
(0.51168 0.0400917 0)
(-0.025366 0.521567 0)
(-0.00135318 0.494038 1.86354e-18)
(-0.0238059 1.42012 0)
(0.072656 2.91816 0)
(0.168532 1.76183 0)
(-0.04113 3.13172 0)
(0.0261283 1.6197 9.30783e-20)
(0.0224899 0.678713 0)
(-0.147424 0.775093 -2.03197e-22)
(-0.193914 1.0291 4.42354e-18)
(-0.0415772 1.04471 0)
(0.744527 -0.00601164 0)
(0.161838 0.247506 6.66337e-19)
(0.986935 1.50352 6.55313e-19)
(0.645709 0.779187 -5.1779e-19)
(0.793556 1.56444 6.24184e-20)
(0.413864 0.845375 -3.22392e-19)
(0.553357 0.307128 2.93957e-20)
(0.297397 0.153838 0)
(0.959575 0.564233 0)
(0.533816 0.304544 1.32052e-19)
(0.258498 0.16307 -1.35505e-19)
(0.87158 -0.0554816 0)
(3.02784 -0.00170673 0)
(3.00685 0.0178647 0)
(3.20086 -0.417735 0)
(3.04288 -0.0742139 0)
(3.03116 -0.038842 0)
(0.0183708 0.908676 -1.14664e-18)
(-0.0541584 0.971139 0)
(0.00263853 0.453469 0)
(-0.0289518 0.978937 0)
(-0.0115788 0.480658 0)
(-0.00182311 0.86971 0)
(-0.0524935 1.11375 0)
(-0.0128362 0.54281 0)
(-0.0259822 1.16734 0)
(-0.00638528 0.624866 0)
(0.790277 0.0115946 0)
(1.16974 -0.00158903 0)
(0.61839 0.0123584 0)
(1.12618 0.0175925 0)
(0.56997 0.00866459 0)
(0.225406 0.921982 1.96083e-18)
(0.0985378 1.2081 0)
(0.176302 1.06604 0)
(0.0331901 0.755774 2.20053e-23)
(0.0372233 0.498055 -2.93259e-18)
(0.0194616 0.747943 0)
(0.0059542 0.422033 0)
(-0.000696735 0.73455 4.52045e-24)
(0.000702121 0.414825 0)
(-0.016926 0.743186 0)
(-0.0129422 0.427988 0)
(0.0498208 0.651071 0)
(0.0487836 0.459238 0)
(0.00818946 0.622452 1.23522e-18)
(0.000836239 0.345017 0)
(-0.076667 4.68038 0)
(0.00806465 1.44605 9.11477e-20)
(-0.0106449 0.779644 -1.17342e-19)
(0.636792 0.152307 -7.50766e-19)
(0.3219 0.0657229 -7.28506e-19)
(0.645593 0.169932 -2.25418e-18)
(0.317873 0.0956701 -1.45134e-18)
(0.079205 0.623436 0)
(0.176893 1.30589 1.86364e-19)
(0.178299 0.725531 -2.9736e-19)
(2.06032 0.260941 0)
(1.10705 0.118447 0)
(3.03313 0.103886 0)
(3.10392 0.446058 0)
(2.83919 0.377457 -1.01246e-17)
(2.57811 0.361308 7.7688e-18)
(-0.0715214 1.27565 0)
(-0.0116342 0.62932 0)
(-0.0159643 1.92607 0)
(-0.0520135 1.36283 0)
(-0.0490224 0.687418 0)
(0.441297 0.296403 4.00939e-19)
(0.225897 0.163696 0)
(2.29609 -0.266397 0)
(1.32372 -0.119276 0)
(1.0768 0.0126343 0)
(1.01257 0.0187443 0)
(0.541176 0.0108198 0)
(1.01909 0.0562799 0)
(0.821735 0.070376 0)
(0.343819 0.028709 3.36173e-18)
(-0.00544285 0.451576 1.77487e-18)
(-0.027047 0.784651 0)
(-0.0473707 0.847581 0)
(-0.0152852 0.46047 0)
(0.000132261 0.839725 1.81711e-18)
(7.27251e-05 0.48753 0)
(-0.00547893 0.845554 -5.59371e-18)
(-0.00488634 0.496761 1.88746e-18)
(0.0498114 3.59924 0)
(0.03709 4.05285 0)
(-0.0166013 1.3968 -2.05311e-21)
(-0.0139901 1.3485 0)
(-0.00999802 0.73388 0)
(1.41007 0.034866 0)
(0.760474 0.0154245 0)
(0.709564 0.0142592 0)
(1.4161 -0.0328593 0)
(0.773477 -0.00874724 0)
(0.323766 0.482749 -8.36622e-19)
(0.157538 0.233744 0)
(0.3268 0.51196 9.37692e-20)
(0.16428 0.269873 0)
(1.23391 1.37784 1.66985e-19)
(0.774644 0.736389 -3.93396e-19)
(0.409126 1.41266 0)
(0.60275 1.52363 0)
(0.301348 0.809516 0)
(0.146436 0.355927 -4.43741e-19)
(0.608347 0.281158 0)
(0.313891 0.134773 3.98809e-19)
(1.42083 1.29928 0)
(1.58083 1.16311 0)
(0.87127 0.660577 4.62518e-19)
(1.72864 0.949551 0)
(1.06563 0.437272 2.31529e-20)
(1.47292 0.00812676 0)
(1.50096 -0.0292464 0)
(0.801871 -0.00442123 0)
(1.95041 -0.199784 0)
(1.6508 -0.148185 0)
(1.05214 -0.0889724 0)
(3.06126 0.164851 0)
(3.03105 0.0687853 0)
(3.01022 0.053158 0)
(0.0349117 1.61634 6.08471e-19)
(0.0175998 0.833368 0)
(0.0175495 1.70631 1.07999e-18)
(0.00272436 0.943974 -9.7087e-19)
(0.064228 1.14615 1.89079e-19)
(0.0474999 0.98471 0)
(0.0397333 0.526443 0)
(-0.0289765 1.00405 0)
(-0.00724514 0.517147 0)
(0.0170745 1.61665 -4.42498e-21)
(-0.0187039 0.867407 0)
(-0.0542599 1.58303 -2.25224e-19)
(-0.0165276 0.8198 4.36103e-19)
(-0.00226752 1.0297 0)
(0.00981581 1.04523 0)
(-0.00028157 0.531845 0)
(0.00981253 1.17801 0)
(0.000409615 0.616649 0)
(1.46787 -0.00377766 0)
(0.788949 0.00802167 0)
(1.44023 0.0331292 0)
(0.761648 -0.000572719 0)
(0.675473 0.00533256 0)
(1.26215 0.0166612 0)
(1.20264 0.0472964 0)
(0.659808 0.0155427 0)
(-0.00580057 1.42077 -1.70311e-20)
(0.000184307 1.37708 0)
(0.00482011 0.732923 0)
(0.00172891 0.417221 0)
(0.285701 0.831228 0)
(0.254652 0.401133 -2.87322e-19)
(-0.00211948 0.635516 0)
(-0.00886458 0.367595 0)
(0.00336838 4.3557 0)
(-0.0570532 4.66079 0)
(-0.0274413 4.57451 0)
(-0.0758269 3.33763 2.05101e-20)
(-0.0675412 4.58441 0)
(-0.0590509 4.15288 0)
(0.00422456 0.814953 1.0721e-20)
(0.0135467 1.5537 1.6494e-19)
(-0.0359561 1.49271 1.20563e-19)
(-0.00787465 0.820734 0)
(0.665067 0.105802 1.15294e-18)
(0.325939 0.0441776 -1.12991e-18)
(0.150854 1.14279 0)
(0.101841 0.578002 -2.69859e-19)
(0.119425 1.24355 -8.76163e-19)
(0.0523646 0.692945 8.71658e-19)
(0.809228 0.0240577 0)
(1.55681 0.0476699 0)
(1.70972 0.127647 0)
(0.919861 0.0445193 0)
(0.00713357 1.19118 0)
(0.0251159 1.20096 0)
(0.00403668 0.633075 0)
(0.483328 0.315857 1.20403e-18)
(0.437947 0.309911 -1.38731e-18)
(0.235271 0.164521 0)
(1.93371 0.152557 1.15187e-19)
(1.1352 0.0929963 0)
(1.72315 0.118271 0)
(0.883187 0.022615 0)
(0.678726 0.085776 0)
(0.700198 0.0460889 -5.40556e-18)
(0.346942 0.0326035 1.99832e-18)
(0.00913209 0.80726 1.6949e-18)
(0.00221802 0.462501 4.08155e-20)
(-0.0108777 1.40842 -3.58211e-20)
(0.00613616 1.38675 1.36664e-18)
(-0.0149832 0.848955 6.29801e-20)
(-0.0119261 0.524486 -2.53049e-22)
(-0.107514 1.00068 -1.16551e-18)
(-0.0529602 1.3532 8.34444e-19)
(-0.0175323 1.35275 -1.35853e-18)
(1.4225 -0.0171091 0)
(1.44219 0.0202893 0)
(0.769762 -0.000196093 0)
(1.45223 0.0253741 0)
(1.36327 0.0462225 0)
(0.761577 0.020301 0)
(1.30077 -0.00216856 0)
(1.31878 -0.00586506 0)
(0.695124 -0.000997935 0)
(0.306287 0.475614 -9.16027e-19)
(0.162071 0.24371 0)
(0.158168 0.310257 1.37181e-19)
(0.311563 0.589482 1.12396e-18)
(0.309236 0.551782 -6.65365e-19)
(0.157739 0.283474 1.30014e-18)
(0.28059 0.723149 2.18598e-18)
(0.149408 0.383646 3.94492e-19)
(0.636928 0.213412 1.53726e-18)
(0.626901 0.253985 3.99271e-19)
(0.316955 0.115158 7.49208e-19)
(1.91677 0.712177 -5.99815e-19)
(1.16531 0.335087 -7.01916e-19)
(-0.0358804 1.71184 4.6415e-19)
(-0.0119932 0.929312 0)
(1.60302 0.0237822 0)
(1.52131 0.0652835 0)
(0.852561 0.0267881 0)
(-0.00355892 1.38473 0)
(0.00507391 0.729574 2.4967e-18)
(0.00465029 0.731252 0)
(0.00207071 0.415097 -2.4437e-18)
(-0.0102757 1.38627 5.96042e-19)
(-0.00947298 1.4225 0)
(0.338049 0.490243 2.58157e-19)
(0.361525 0.548568 -8.63632e-19)
(0.172559 0.258845 7.81686e-19)
(-0.0256843 0.767415 -1.66389e-18)
(-0.0261409 0.68969 0)
(-0.015434 0.412896 0)
(0.0293945 1.54432 -1.27542e-20)
(0.0305078 1.57418 -3.63709e-19)
(0.0173698 0.819953 -1.554e-20)
(0.215191 1.05243 8.92019e-19)
(0.120589 0.51293 -5.93595e-19)
(0.0116712 1.49619 7.31654e-19)
(0.0560335 1.36192 -8.16775e-19)
(0.0268448 0.76647 3.5521e-20)
(0.00750414 1.36614 -3.81021e-18)
(-0.000222503 1.39326 4.41244e-18)
(0.00377222 0.829775 1.73407e-18)
(-0.0138342 0.805089 -1.7266e-18)
(-0.00431031 0.481397 -1.73972e-18)
(-0.0106529 1.41685 -4.50275e-18)
(-0.0152204 1.40032 4.59201e-18)
(0.288556 0.679627 0)
(0.301893 0.638807 -2.29181e-18)
(0.153027 0.333898 9.92173e-19)
(0.283582 0.802157 1.18766e-18)
(0.139963 0.430862 -1.8325e-18)
(2.05436 0.321726 4.15685e-19)
(2.04796 0.546138 0)
(1.21685 0.220431 -4.01695e-19)
(-0.0745634 1.6391 -4.79603e-21)
(-0.0152408 1.69686 0)
(-0.0162653 0.924961 0)
(0.228769 0.952005 -3.23466e-19)
(0.250199 0.873489 -7.08436e-19)
(0.129798 0.466939 1.32763e-18)
(3.16442 -0.442877 0)
(3.34728 -0.41469 1.81223e-18)
(0.0572838 3.51185 0)
(0.0457348 2.83833 0)
(3.15926 0.24991 1.41912e-20)
(3.12355 0.50629 3.71096e-18)
(0.0195224 3.40421 -2.75265e-20)
(0.00809567 2.63863 0)
(-0.0415686 1.19606 1.55628e-18)
(0.191301 1.31842 0)
(3.46644 1.62037 -3.24772e-19)
(3.17429 0.272559 -2.96102e-20)
(3.14835 -0.118718 0)
(3.10047 -0.000410446 3.72497e-22)
(0.0419265 2.57794 0)
(0.156578 3.32039 0)
(-0.0577992 2.5363 0)
(-0.0271898 3.49282 3.15621e-19)
(-0.0294712 3.56525 1.9916e-19)
(2.634 0.0486998 -1.36445e-20)
(3.04708 0.0310002 0)
(3.15711 0.0865767 0)
(-0.0598514 4.61551 0)
(-0.0490401 3.06315 0)
(-0.0754802 2.95613 0)
(0.647555 3.08601 2.66584e-19)
(3.33884 -0.422467 0)
(3.01139 -0.345816 0)
(3.1699 -0.0530448 2.27648e-18)
(3.2927 -0.328706 -2.74114e-18)
(3.1038 -0.125781 0)
(-0.0664599 4.52189 0)
(0.00908279 3.9585 0)
(0.000193453 4.2816 0)
(-0.0309257 3.11844 0)
(-0.0164799 2.87843 0)
(-0.0334982 2.45192 0)
(2.97409 -0.00322103 0)
(2.85057 0.0485831 -1.80492e-20)
(2.23685 3.0339 -3.22796e-19)
(3.15695 0.0444475 -2.27754e-18)
(3.19037 0.278173 2.76849e-18)
(3.0828 0.117333 0)
(3.39541 0.328908 2.08656e-18)
(3.35696 0.484359 -2.70569e-18)
(3.07112 0.418424 0)
(-0.0575978 3.32465 0)
(0.00361404 3.24991 8.52939e-20)
(-0.0316991 2.55205 -6.03888e-20)
(3.70524 0.553985 2.26472e-18)
(3.46953 0.207899 0)
(-0.151754 1.27132 -2.16767e-18)
(-0.0621442 0.88216 -1.35147e-19)
(-0.084309 1.33701 2.98803e-18)
(-0.0349339 1.27062 -9.00347e-19)
(-0.000194364 1.08867 0)
(-0.0266838 1.23951 6.95405e-19)
(-0.114978 1.38788 2.14827e-18)
(-0.058991 1.34056 -1.31517e-18)
(-0.076783 1.32064 0)
(1.29218 0.598249 0)
(1.18072 0.683951 0)
(3.55147 2.02382 9.53622e-19)
(3.04188 1.9293 -1.19076e-18)
(3.83426 1.7023 0)
(3.37842 1.15381 0)
(3.34936 0.280473 -3.91542e-18)
(2.89888 0.173104 4.83801e-18)
(3.35141 -0.155509 0)
(2.85472 -0.0761569 0)
(3.43642 0.0430012 0)
(3.59381 0.145031 0)
(3.28683 0.119862 0)
(3.55034 0.298559 0)
(3.40842 0.293046 0)
(3.32755 0.21806 0)
(0.0948499 2.78026 0)
(0.0334915 2.07167 0)
(0.123045 3.03795 0)
(0.0910379 2.19331 0)
(0.213214 3.6134 0)
(0.140192 2.69307 -5.59274e-19)
(0.0509319 3.62892 0)
(0.0101867 3.03355 4.05755e-19)
(-0.0271823 3.21523 -5.16767e-19)
(-0.0627492 2.80377 0)
(-0.0251497 2.20829 0)
(-0.0761202 2.90769 0)
(-0.0568258 2.05019 0)
(-0.11605 4.74871 -2.45348e-19)
(-0.0854633 3.93791 2.7715e-19)
(-0.0791094 3.80424 3.08809e-19)
(-0.0546371 3.01724 0)
(-0.109658 3.79767 -4.58324e-19)
(-0.0402789 3.20655 -2.94722e-19)
(-0.0906467 4.78043 1.92395e-19)
(-0.102367 4.46161 -3.50309e-19)
(-0.0762631 4.33433 -3.78615e-19)
(3.03187 0.0881984 3.35714e-18)
(2.29001 0.0321285 -4.22795e-18)
(2.89198 0.132663 -3.32607e-18)
(2.21031 0.073408 4.15446e-18)
(3.36826 0.0275305 0)
(2.64273 -0.00270713 0)
(3.45356 0.0910201 0)
(3.3198 0.0190843 0)
(2.70603 0.00910715 0)
(3.67933 0.238945 0)
(3.43805 0.0955931 0)
(2.86245 0.056268 0)
(-0.0290875 4.30997 -1.2066e-20)
(-0.0635221 4.64563 0)
(-0.0690938 4.5305 0)
(-0.0793513 3.48497 8.7683e-20)
(-0.039082 2.76151 -3.46098e-21)
(-0.0891544 4.66665 1.1391e-19)
(-0.101999 4.46396 -1.15108e-19)
(-0.0845052 3.97079 0)
(-0.0624588 3.89509 0)
(-0.027624 4.01152 0)
(-0.0756303 3.27616 0)
(-0.0444034 2.31869 0)
(0.942424 3.64047 -6.0988e-19)
(0.914388 2.83366 -1.76866e-19)
(0.433939 2.06872 -2.28686e-19)
(0.254127 2.31704 6.98322e-19)
(1.02537 4.21171 2.63773e-19)
(3.43306 -0.167449 0)
(3.32212 -0.256561 0)
(2.88325 -0.189524 0)
(3.47032 -0.0643696 0)
(3.34581 -0.147877 0)
(3.44893 -0.261036 0)
(3.5195 -0.283615 0)
(3.57948 -0.28115 0)
(3.22426 0.0933255 3.61745e-18)
(2.5553 0.0644915 -4.57423e-18)
(3.09666 0.106507 -3.56091e-18)
(2.50931 0.0566305 4.43074e-18)
(2.23231 3.40184 0)
(1.72943 2.93049 -4.46532e-19)
(2.56132 3.3372 -4.03808e-19)
(2.35833 2.51642 5.36626e-19)
(0.779068 1.2194 2.72497e-18)
(1.44808 0.216539 1.34268e-18)
(3.72123 0.303411 0)
(3.89146 0.571481 -1.84537e-18)
(3.29688 0.243323 -8.2303e-20)
(3.72209 0.439354 0)
(0.238966 1.31341 1.79761e-18)
(-0.0155697 1.20242 -2.87865e-18)
(0.0598771 0.770269 1.61589e-18)
(0.277386 0.46561 -7.48446e-19)
(0.188596 1.38556 8.71726e-19)
(0.0513588 1.2379 0)
(0.0582624 1.08718 -1.13324e-18)
(0.193513 1.44427 -4.09554e-18)
(0.33154 1.55901 0)
(0.00865011 1.29019 1.1967e-19)
(-0.00973837 1.45729 -1.34115e-18)
(-0.0410385 1.30283 1.94975e-18)
(-0.0574872 1.41766 0)
(-0.0205132 1.38225 0)
(0.684376 1.05445 0)
(2.46585 2.45926 -1.06636e-18)
(2.63437 2.16379 3.95355e-19)
(2.78561 2.87233 0)
(3.21006 3.05831 -3.94349e-19)
(3.15965 2.40382 2.83836e-20)
(0.80657 0.591391 -1.82344e-18)
(1.55922 0.692474 -1.62444e-20)
(1.23515 0.451679 8.72043e-19)
(1.27901 0.845689 5.95198e-20)
(0.941703 0.635538 -2.37021e-18)
(1.46774 0.715468 0)
(1.99537 1.10145 1.45594e-18)
(2.03715 1.01729 0)
(1.41576 0.792301 0)
(1.06448 0.550764 0)
(3.38026 2.17864 1.00777e-18)
(3.94535 0.759045 -1.86252e-18)
(3.84483 1.2133 0)
(3.52972 0.755898 0)
(1.39332 0.365128 1.33217e-18)
(3.26362 1.84228 -8.51299e-19)
(2.84101 1.65538 1.54633e-18)
(3.75801 1.37574 -1.83482e-18)
(3.09801 0.114711 2.46294e-18)
(3.1686 0.180788 -2.57791e-18)
(2.6619 0.0916247 0)
(3.3072 -0.0395633 0)
(3.20134 -0.0842952 -2.36555e-18)
(2.63233 -0.0321305 2.34471e-18)
(3.95634 0.0930762 0)
(3.75978 0.145558 0)
(3.6937 0.155339 0)
(3.58832 0.204715 0)
(3.83262 0.0589779 0)
(3.7261 0.0522122 0)
(-0.0424086 2.50577 0)
(-0.0391591 2.00768 0)
(0.351387 3.97353 -4.10742e-19)
(0.65706 3.31376 -1.60303e-19)
(0.255605 3.01127 -3.58546e-19)
(0.340404 2.53202 5.74371e-19)
(0.452605 3.999 0)
(0.465441 4.66753 -5.09467e-19)
(0.379581 4.72499 0)
(0.911986 4.38428 -3.79433e-19)
(0.676148 3.83385 9.6934e-19)
(0.593613 4.64592 4.46486e-19)
(0.735632 4.1856 -1.87508e-19)
(0.596788 4.31162 1.50847e-19)
(0.912704 4.64829 -6.63247e-19)
(0.744887 4.65984 0)
(0.856613 4.58618 5.04336e-19)
(0.000117626 4.57729 -1.8105e-19)
(-0.0224896 3.65922 0)
(0.0960713 4.29693 5.4911e-19)
(-0.00823586 4.39922 0)
(-0.00662544 3.47463 -4.512e-19)
(-0.0171773 2.92708 0)
(-0.108492 4.3047 -2.89218e-19)
(-0.115003 4.67797 0)
(-0.0588632 3.80118 0)
(-0.0463623 3.72594 3.25247e-19)
(-0.0525836 3.89236 1.03535e-20)
(-0.0392937 3.7183 6.25524e-19)
(-0.0433976 2.95682 4.06395e-21)
(-0.123578 4.70759 1.80121e-19)
(-0.11293 4.73978 1.03142e-19)
(-0.0198386 2.63303 0)
(-0.000718628 2.14602 0)
(-0.0498761 4.78672 4.85732e-19)
(-0.0559245 4.30256 4.23438e-19)
(-0.0913544 4.58026 -5.53548e-19)
(0.00886186 4.75365 0)
(-0.0863651 4.52302 -3.086e-19)
(-0.124425 4.15131 1.27342e-19)
(-0.0911609 4.23738 -4.1265e-20)
(-0.0803331 4.72541 -2.18804e-19)
(-0.0931252 4.26158 -6.84733e-20)
(-0.0907967 4.20872 3.06304e-19)
(2.87169 0.0609429 -2.36256e-18)
(2.85926 0.0495903 2.27202e-18)
(2.33889 0.0345062 0)
(3.51094 0.191644 3.04513e-18)
(2.70462 0.126382 -3.30331e-18)
(2.2554 0.0643687 3.60802e-18)
(3.68351 0.334785 -4.01453e-19)
(3.20974 -0.0485978 0)
(3.1719 -0.0136641 2.23612e-18)
(2.69069 -0.0124238 -2.21849e-18)
(3.87827 0.12182 -1.25185e-19)
(3.77142 0.10155 1.07787e-18)
(4.15945 0.172918 0)
(4.22829 0.180569 -3.74967e-19)
(4.01396 0.144849 0)
(3.69532 0.155125 0)
(4.03234 0.0949267 0)
(3.71192 0.0871969 0)
(4.18472 0.113504 7.85154e-19)
(4.13727 0.0788404 -1.74717e-18)
(4.14048 0.113524 -8.4765e-19)
(4.18626 0.116146 -9.24089e-19)
(4.21539 0.228346 1.77329e-18)
(3.85422 0.188186 0)
(4.06059 0.301031 0)
(-0.0812209 4.56724 -1.36005e-19)
(-0.038319 4.63326 -1.17022e-20)
(-0.0738502 4.65332 0)
(-0.0618242 4.17898 1.38439e-19)
(-0.0596968 4.20316 2.2563e-20)
(-0.063195 4.06802 -2.19003e-20)
(-0.0839904 3.51703 2.60846e-19)
(-0.149641 3.99345 -1.44998e-20)
(-0.109299 4.12452 7.46876e-20)
(-0.0777786 3.38832 -1.32157e-19)
(-0.0266806 2.91272 1.58263e-19)
(-0.0836405 4.43721 5.1968e-21)
(-0.0978567 4.64163 1.71809e-19)
(1.2393 4.34349 3.47692e-19)
(1.15609 4.519 7.24974e-19)
(1.72814 3.44835 4.31781e-19)
(1.30056 3.53906 1.70021e-19)
(1.27726 2.87034 0)
(0.552835 2.33616 2.75368e-19)
(0.466967 1.75491 3.31377e-19)
(0.347236 2.58681 1.52729e-20)
(0.495051 3.19605 -1.16171e-18)
(0.636712 3.15347 8.77711e-19)
(0.436156 2.42252 0)
(0.296082 1.98766 -5.58319e-19)
(0.259955 3.09735 1.39652e-18)
(0.274108 2.7385 -3.16831e-20)
(0.158436 2.29352 -1.7507e-18)
(0.59609 1.42102 1.4659e-18)
(0.58114 1.62909 0)
(3.58364 -0.0751763 8.64034e-20)
(3.6186 -0.254124 -7.25715e-20)
(3.72134 -0.217747 -1.2661e-18)
(3.75926 -0.126058 1.28197e-18)
(3.67616 -0.0488946 0)
(2.44336 3.86207 0)
(2.61889 3.90762 0)
(2.88922 3.61703 0)
(2.73834 3.63757 0)
(0.859427 1.40188 -3.32896e-21)
(0.615232 1.04486 0)
(1.72024 3.3986 1.50279e-20)
(1.42889 3.47757 0)
(1.33623 2.96773 -1.28532e-18)
(1.41703 2.90789 8.25371e-19)
(1.79301 0.310548 0)
(1.43193 0.262185 3.5196e-19)
(2.41347 0.358807 2.19093e-18)
(1.78761 0.284845 -7.85163e-19)
(1.42744 0.1122 -2.49405e-18)
(4.26606 0.788433 -2.56412e-18)
(3.85443 0.99395 -3.66795e-20)
(3.30026 0.843979 2.06689e-18)
(3.87782 0.744437 1.81243e-18)
(3.12515 0.465355 -3.04372e-18)
(2.9124 0.451948 3.74834e-19)
(3.1953 0.682103 -8.18359e-19)
(2.97867 0.682975 0)
(3.7605 0.5632 1.53694e-18)
(4.09689 0.628259 0)
(4.09252 0.775059 0)
(4.04479 0.414966 8.23303e-19)
(4.29638 0.641242 -3.02803e-20)
(4.24822 0.714155 -4.52654e-19)
(4.17533 0.641595 0)
(3.61624 0.130082 1.71739e-18)
(4.1901 0.183008 2.14319e-18)
(4.09095 0.151222 -1.67865e-18)
(4.13693 0.240229 -1.44217e-18)
(3.7464 0.237725 -2.15539e-18)
(3.30456 0.375663 0)
(3.40456 0.301968 0)
(2.55934 0.190513 -1.26551e-18)
(2.10972 0.119046 4.76569e-19)
(4.03776 0.351975 1.93938e-18)
(4.2874 0.431771 -2.34547e-18)
(4.28523 0.488356 2.06796e-18)
(4.15775 0.492386 0)
(4.25639 0.33631 0)
(4.26617 0.321867 -9.81166e-19)
(4.21439 0.315415 -1.59573e-18)
(2.23642 3.49369 6.20306e-19)
(1.94855 3.24119 -6.83607e-19)
(1.45487 2.36606 -1.03273e-18)
(1.1934 2.00465 2.67048e-19)
(0.88909 1.38522 -2.63139e-18)
(0.797854 1.22102 9.22871e-19)
(0.60392 0.908304 -1.91038e-21)
(1.12104 1.79272 -1.13881e-18)
(1.14892 1.89086 1.70004e-18)
(0.979626 1.70679 5.06445e-19)
(0.789828 1.29392 -5.13067e-19)
(0.638216 1.07851 0)
(2.45534 2.61135 -1.15416e-19)
(0.709647 1.14662 8.57918e-19)
(0.931948 0.892951 1.15683e-18)
(0.758953 0.816104 1.33879e-18)
(1.0868 0.748746 1.34163e-18)
(1.47243 1.04747 -2.27106e-18)
(1.38848 1.07472 1.84012e-18)
(1.00558 0.768172 -6.7712e-19)
(0.819709 0.569766 1.49531e-18)
(1.61803 0.49134 -7.77923e-19)
(1.56178 0.509087 0)
(1.24152 0.4079 4.63618e-21)
(2.51622 1.5179 7.75568e-19)
(2.08621 1.27254 -2.80868e-18)
(1.69275 1.18757 9.20437e-21)
(1.66625 1.09488 0)
(2.87019 2.59664 8.73461e-19)
(3.44882 2.74878 1.03654e-18)
(3.2585 2.92828 -1.19489e-18)
(3.55399 2.75868 -4.27998e-19)
(3.48128 2.59587 -1.34812e-19)
(3.51071 2.78792 1.38678e-19)
(3.67788 2.26359 -1.67835e-18)
(3.7051 2.48846 4.00676e-19)
(3.78206 2.43026 0)
(3.78224 2.18616 -5.79372e-19)
(4.05017 1.07188 5.80238e-19)
(4.27525 0.991111 1.00168e-18)
(4.30012 0.964813 1.01115e-18)
(4.05621 1.32729 -1.14904e-18)
(4.10188 1.34672 0)
(4.15117 1.23076 0)
(3.33197 1.23533 -1.55266e-20)
(2.42133 0.666855 0)
(2.72546 0.744141 9.30375e-19)
(3.24176 0.88536 -2.63891e-20)
(3.7759 1.53321 5.10463e-18)
(3.57382 1.76066 1.31039e-18)
(3.48531 1.53984 -1.34012e-18)
(3.0428 1.37004 1.43687e-18)
(2.76658 1.37049 8.23616e-19)
(2.31218 1.15734 -7.97658e-19)
(3.67216 -0.0856068 1.98387e-18)
(3.89469 -0.0290002 0)
(3.85893 -0.0666128 1.34156e-18)
(3.74289 -0.0594696 -2.98662e-18)
(3.98056 0.0372853 1.4614e-18)
(3.90446 0.113339 -3.08175e-18)
(3.7399 0.127942 0)
(3.55631 0.173416 -6.28303e-19)
(3.81199 0.122926 1.60466e-18)
(3.69198 0.191334 -8.22246e-19)
(3.60033 0.171031 5.90486e-19)
(-0.082881 2.59049 0)
(-0.0515181 3.39402 0)
(-0.0340729 2.45861 0)
(-0.0229787 1.96964 0)
(0.0408975 3.92992 6.70329e-19)
(0.135674 3.7096 -1.7305e-19)
(0.311799 4.63601 -2.29491e-19)
(0.246927 4.44732 2.42258e-19)
(-0.031915 4.28623 -4.97228e-19)
(0.0052321 4.31805 3.73394e-19)
(0.0901875 3.85858 2.23795e-20)
(0.00516591 3.54676 -4.66946e-19)
(-0.0163847 3.30177 -6.22525e-20)
(-0.0446035 3.66413 -5.67064e-20)
(0.148372 4.48377 -5.8644e-19)
(0.174523 4.30072 0)
(0.270852 4.64034 2.96202e-19)
(0.262895 4.70876 2.52922e-19)
(0.593505 4.45173 -2.25842e-19)
(0.409032 3.8017 0)
(0.458367 3.64805 -1.11578e-18)
(0.562389 4.01699 7.9059e-19)
(0.47746 4.56767 -6.14555e-19)
(0.367202 4.44347 3.30625e-19)
(0.298003 4.17283 0)
(-0.0429823 4.76149 -5.52653e-19)
(-0.0816667 4.53068 -6.41087e-19)
(-0.0837653 4.7403 0)
(-0.0350435 4.36664 -6.2379e-21)
(-0.0257731 4.6458 2.73989e-19)
(-0.125126 3.88252 4.47377e-20)
(-0.0604509 3.4921 -6.54298e-19)
(-0.102492 3.9292 1.74552e-19)
(-0.144998 4.51571 2.32287e-19)
(-0.0840662 4.32512 0)
(-0.067371 3.89261 0)
(-0.0856261 2.91565 2.01431e-19)
(-0.0531903 3.64511 -6.28485e-20)
(-0.078525 3.63051 0)
(-0.0907324 2.70096 1.58615e-19)
(-0.0480167 2.20797 -3.07316e-19)
(3.76089 0.032188 0)
(3.73175 0.0075846 -2.03196e-19)
(4.17946 0.0676883 -1.43937e-18)
(4.08897 0.0460414 0)
(3.87609 0.0175736 0)
(4.14972 0.036858 -1.25131e-20)
(4.10029 0.0347779 2.37799e-18)
(4.00018 0.0800073 2.8445e-18)
(3.75602 0.118501 0)
(3.55823 0.109901 0)
(4.01345 0.0936833 1.41689e-18)
(3.70349 0.115922 0)
(3.4724 0.128714 0)
(-0.0907026 4.69257 0)
(-0.115647 4.66184 1.07088e-20)
(-0.0870934 4.71221 6.29963e-20)
(-0.067748 3.84439 0)
(-0.121054 4.53719 1.11188e-19)
(-0.076732 4.25174 -6.34764e-20)
(-0.0617861 3.94627 0)
(1.41558 4.19623 0)
(1.20729 4.57522 -1.29691e-18)
(1.22418 4.48915 0)
(1.57274 4.47951 1.48387e-18)
(1.5882 4.10307 0)
(1.49713 4.35888 -6.06389e-19)
(1.01901 2.25651 -3.40036e-20)
(0.714949 1.65664 -1.74774e-18)
(0.595148 1.23568 2.13224e-18)
(0.71443 1.84866 3.9757e-19)
(0.982462 2.44089 0)
(1.04447 2.39525 0)
(0.723878 1.69946 0)
(0.53648 1.34007 -1.39794e-18)
(1.21637 3.79018 -9.84155e-19)
(1.13639 3.00723 -2.35759e-19)
(1.33527 3.42145 1.92813e-19)
(0.603568 2.05642 0)
(0.625044 1.9572 0)
(0.465881 1.58344 -3.93557e-19)
(0.964345 2.7385 0)
(2.69177 3.56956 0)
(2.39089 3.01375 -1.45453e-18)
(2.55463 3.03032 -8.5855e-20)
(2.42856 3.40839 0)
(2.29623 3.15626 2.22111e-18)
(3.2811 3.0831 -3.89525e-19)
(3.13313 3.31739 0)
(3.11555 3.14344 6.30136e-19)
(2.87327 3.40997 0)
(2.88727 3.20027 0)
(1.21721 2.01733 -9.31428e-19)
(1.42316 2.41528 -7.0004e-19)
(1.764 2.9938 1.20652e-18)
(1.70634 2.97286 -3.62544e-19)
(1.06946 1.83262 0)
(1.2147 2.22082 4.71536e-19)
(0.723023 1.2961 -7.1617e-19)
(0.585306 1.04968 -6.14937e-22)
(1.94675 3.70578 0)
(2.20728 3.74758 -5.42467e-19)
(2.34368 3.98535 0)
(2.28659 0.529013 0)
(1.61921 0.34211 0)
(1.21056 0.276822 0)
(2.21193 0.554417 -1.4648e-18)
(1.63755 0.402521 8.1705e-19)
(2.14694 0.129056 -9.84749e-19)
(2.62824 0.297387 0)
(2.46733 0.301561 4.13326e-19)
(1.77119 0.135701 1.63236e-18)
(1.53131 0.081269 -1.03662e-18)
(0.749096 1.56104 8.58649e-19)
(0.96496 1.82666 0)
(0.540121 1.44428 1.56211e-18)
(0.526944 1.61834 -1.42632e-18)
(0.761727 1.81885 -9.8923e-19)
(2.0837 2.46894 1.33826e-18)
(2.10757 2.71929 0)
(1.59185 1.68375 -2.76488e-19)
(2.01899 1.99496 1.74539e-18)
(1.36642 1.29711 -4.23749e-19)
(1.59555 1.31766 4.50923e-19)
(2.11716 1.51647 1.02338e-18)
(2.45063 1.67368 0)
(2.28465 1.8601 0)
(2.01786 1.61017 0)
(3.95695 2.07549 3.84367e-19)
(3.76282 1.88759 -1.26284e-18)
(3.82014 2.02512 1.04595e-18)
(3.90307 1.76863 -1.00775e-18)
(4.15719 1.67052 0)
(4.11571 1.837 -2.97686e-19)
(2.84571 1.16376 -1.8968e-18)
(2.97558 1.16353 -2.41212e-18)
(2.33697 1.04451 1.45606e-18)
(2.14273 0.935449 -1.41967e-18)
(2.46767 0.846622 -1.17785e-18)
(2.18259 0.777754 1.4485e-18)
(4.00844 0.0333754 -1.52828e-18)
(4.05275 0.0405672 3.12895e-18)
(3.76791 -0.0659702 1.90016e-18)
(3.79112 -0.0738668 -2.28588e-18)
(3.95947 0.010419 0)
(4.056 0.0227179 -3.7283e-18)
(0.0891568 4.75944 1.06601e-19)
(0.0600862 4.72733 0)
(0.183338 4.73019 9.52248e-19)
(0.204781 4.74655 -8.66316e-19)
(0.224546 4.71079 4.27958e-19)
(0.115458 4.6503 0)
(-0.111479 4.7675 0)
(-0.116627 4.40471 -6.19514e-20)
(-0.115585 4.33763 5.55315e-20)
(-0.12436 4.48367 7.34037e-21)
(-0.115168 4.71569 -1.01235e-19)
(-0.0922416 4.70391 5.50202e-20)
(1.8822 4.01458 -1.64275e-18)
(1.8221 4.02281 1.74001e-18)
(1.68359 4.40101 -8.53622e-19)
(1.69805 4.28227 7.61334e-20)
(2.25252 4.07494 0)
(1.85097 4.20577 -6.35978e-19)
(1.97796 3.94441 6.1681e-19)
(1.82181 4.37003 8.33826e-19)
(2.07611 4.2145 0)
(2.22905 4.09449 0)
(1.14559 3.64776 1.49609e-18)
(0.832925 2.83052 2.02652e-18)
(0.960958 3.00871 -1.39172e-18)
(0.752513 2.99183 -2.32321e-19)
(0.908189 3.7504 4.66857e-19)
(0.727428 3.38457 -1.13548e-18)
(0.751272 1.47508 -1.21676e-18)
(0.751101 1.32499 0)
(0.606578 1.1214 -1.33731e-18)
(1.11838 2.07618 0)
(1.09568 2.16343 0)
(1.36682 2.19715 -1.09134e-18)
(1.07041 2.02068 -1.03674e-18)
(1.02272 2.04085 1.0995e-18)
(1.0378 1.52347 0)
(1.41851 1.76739 -6.0158e-19)
(1.63638 2.12576 -8.55668e-19)
(1.41926 2.08863 0)
(0.873274 1.82252 7.13059e-19)
(0.784934 1.68282 0)
(2.91455 2.29081 -1.84611e-18)
(3.32421 2.46972 2.60762e-18)
(3.2838 2.19251 -2.59182e-18)
(2.61878 2.02379 -2.31116e-19)
(2.73283 1.94222 -9.73853e-19)
(1.26925 2.19723 7.96742e-19)
(1.32383 2.2531 -1.36082e-18)
(1.46284 2.337 1.79377e-18)
(1.80034 2.56737 -1.16584e-18)
(1.89969 2.94224 -1.56769e-18)
(1.57248 2.49784 -1.18832e-19)
(1.64281 2.63862 1.37214e-18)
(1.82051 2.70197 9.66721e-20)
(2.02868 3.00748 6.5034e-19)
)
;

boundaryField
{
    wall-4
    {
        type            noSlip;
    }
    velocity-inlet-5
    {
        type            fixedValue;
        value           uniform (3 0 0);
    }
    velocity-inlet-6
    {
        type            fixedValue;
        value           uniform (0 1 0);
    }
    pressure-outlet-7
    {
        type            zeroGradient;
    }
    wall-8
    {
        type            noSlip;
    }
    frontAndBackPlanes
    {
        type            empty;
    }
}


// ************************************************************************* //
