/*--------------------------------*- C++ -*----------------------------------*\
  =========                 |
  \\      /  F ield         | OpenFOAM: The Open Source CFD Toolbox
   \\    /   O peration     | Website:  https://openfoam.org
    \\  /    A nd           | Version:  9
     \\/     M anipulation  |
\*---------------------------------------------------------------------------*/
FoamFile
{
    format      ascii;
    class       volVectorField;
    location    "6.71";
    object      U;
}
// * * * * * * * * * * * * * * * * * * * * * * * * * * * * * * * * * * * * * //

dimensions      [0 1 -1 0 0 0 0];

internalField   nonuniform List<vector> 
2268
(
(-0.00020805 1.86826e-05 0)
(0.000130199 -0.000209951 0)
(0.00101843 -0.000278239 0)
(0.00190218 -0.000267176 0)
(0.00275719 -0.000246144 0)
(0.00356578 -0.000232221 0)
(0.0043672 -0.000234885 0)
(0.00521119 -0.000253716 0)
(0.00613011 -0.00027727 0)
(0.00711318 -0.000294709 0)
(0.00813587 -0.000314002 0)
(0.00924086 -0.000368043 0)
(0.0105791 -0.000488854 0)
(0.0123363 -0.000672542 0)
(0.0145918 -0.000840411 0)
(0.0169993 -0.000763518 0)
(0.018598 5.73784e-05 0)
(0.0159244 0.00180339 0)
(0.00790058 0.00306496 0)
(-0.00368683 0.00365233 0)
(-0.0137807 0.00157097 0)
(-0.0140473 -0.00180116 0)
(-0.00567841 -0.00276764 0)
(9.53536e-05 1.74771e-05 0)
(0.000521123 -0.000433381 0)
(0.00130489 -0.000610171 0)
(0.00216242 -0.000628864 0)
(0.00303086 -0.000607053 0)
(0.00388679 -0.000591066 0)
(0.00474462 -0.000603396 0)
(0.00562867 -0.000642548 0)
(0.00655438 -0.000688915 0)
(0.00750599 -0.000720401 0)
(0.00845409 -0.000754569 0)
(0.00941376 -0.000851283 0)
(0.0104691 -0.00106379 0)
(0.011718 -0.00136958 0)
(0.013168 -0.00159995 0)
(0.0145491 -0.00130837 0)
(0.0153065 0.00040992 0)
(0.0133637 0.00388333 0)
(0.00742874 0.00645839 0)
(-0.000211862 0.00724035 0)
(-0.00713967 0.00393814 0)
(-0.00977733 -0.0023071 0)
(-0.00593748 -0.00698452 0)
(0.000306553 -0.000213805 0)
(0.000806487 -0.000740705 0)
(0.00154466 -0.000969785 0)
(0.00236522 -0.00102172 0)
(0.00321404 -0.00100765 0)
(0.00406722 -0.000992927 0)
(0.00492563 -0.00101048 0)
(0.00579872 -0.00105963 0)
(0.00669184 -0.00111387 0)
(0.00758269 -0.00114082 0)
(0.00843122 -0.00116336 0)
(0.00922867 -0.00126161 0)
(0.0100191 -0.00150518 0)
(0.0108565 -0.00185809 0)
(0.0117323 -0.00209479 0)
(0.0124843 -0.0016449 0)
(0.0128449 0.00069899 0)
(0.0111898 0.00551721 0)
(0.00684954 0.00894584 0)
(0.00211475 0.00973744 0)
(-0.00265349 0.00604359 0)
(-0.00613119 -0.00195872 0)
(-0.00432161 -0.0101834 0)
(0.00041832 -0.00050532 0)
(0.0010069 -0.00106658 0)
(0.00175087 -0.00132506 0)
(0.00255423 -0.00140419 0)
(0.00338427 -0.00140033 0)
(0.0042222 -0.00138879 0)
(0.00506231 -0.00140957 0)
(0.00590511 -0.00146293 0)
(0.00675033 -0.0015162 0)
(0.00756909 -0.00152511 0)
(0.00830758 -0.00151453 0)
(0.00893534 -0.00158134 0)
(0.00946945 -0.0018099 0)
(0.00993996 -0.00215616 0)
(0.0103391 -0.00236355 0)
(0.0106026 -0.00180888 0)
(0.0108061 0.000915037 0)
(0.00969843 0.00678456 0)
(0.0067185 0.0106749 0)
(0.00372438 0.0114446 0)
(0.000421687 0.00783222 0)
(-0.00271294 -0.00130876 0)
(-0.0020085 -0.0121303 0)
(0.000477099 -0.00084484 0)
(0.00115055 -0.00142145 0)
(0.0019259 -0.00169061 0)
(0.00272632 -0.00178694 0)
(0.00353987 -0.00179056 0)
(0.00435522 -0.00178018 0)
(0.00516416 -0.00179957 0)
(0.005962 -0.00185021 0)
(0.00674671 -0.00189343 0)
(0.00748399 -0.00187003 0)
(0.00810515 -0.00180356 0)
(0.00856012 -0.00180623 0)
(0.00884757 -0.0019779 0)
(0.00898386 -0.00227144 0)
(0.0089607 -0.00241978 0)
(0.00876903 -0.00181152 0)
(0.00878282 0.000977495 0)
(0.00836905 0.00758907 0)
(0.00674843 0.0117956 0)
(0.00496039 0.0125404 0)
(0.00291891 0.00918142 0)
(0.00075991 -0.000674861 0)
(0.000712645 -0.0125222 0)
(0.000516616 -0.00122132 0)
(0.00126341 -0.00180295 0)
(0.00207227 -0.00206637 0)
(0.00287265 -0.00216682 0)
(0.00366774 -0.0021714 0)
(0.00445305 -0.00215734 0)
(0.00521927 -0.00216929 0)
(0.00595852 -0.00221017 0)
(0.00667033 -0.00223564 0)
(0.00731754 -0.00216739 0)
(0.00781759 -0.00202444 0)
(0.0081037 -0.00193435 0)
(0.00816263 -0.00201452 0)
(0.00800319 -0.00221728 0)
(0.00761055 -0.00227522 0)
(0.00698463 -0.0016274 0)
(0.00653736 0.00101028 0)
(0.00672624 0.00777766 0)
(0.00665478 0.0123387 0)
(0.0059895 0.0131117 0)
(0.00538148 0.00983668 0)
(0.00464333 -0.00017839 0)
(0.00388873 -0.0114563 0)
(0.000555939 -0.00164221 0)
(0.00135997 -0.00220747 0)
(0.00218957 -0.00244829 0)
(0.00298335 -0.00253903 0)
(0.00375341 -0.00253647 0)
(0.00450009 -0.00251232 0)
(0.00521244 -0.00250962 0)
(0.00587988 -0.00253367 0)
(0.00650588 -0.00253567 0)
(0.00705412 -0.00241304 0)
(0.00743198 -0.0021771 0)
(0.00756049 -0.00197183 0)
(0.00741982 -0.00193536 0)
(0.00701617 -0.00201968 0)
(0.00632773 -0.0019573 0)
(0.0053517 -0.0012545 0)
(0.00436048 0.00118736 0)
(0.0047734 0.00739143 0)
(0.00605661 0.0122454 0)
(0.00678782 0.0130809 0)
(0.00788644 0.00961553 0)
(0.0084681 0.00032572 0)
(0.0068514 -0.00915259 0)
(0.000608208 -0.00208912 0)
(0.00144493 -0.00260209 0)
(0.00227591 -0.00280972 0)
(0.00305037 -0.00288496 0)
(0.00378578 -0.00287301 0)
(0.00448474 -0.00283498 0)
(0.0051332 -0.00281069 0)
(0.00571681 -0.00281044 0)
(0.0062433 -0.00278577 0)
(0.00668174 -0.00260241 0)
(0.00693758 -0.00226157 0)
(0.00692655 -0.00192503 0)
(0.0066262 -0.00175651 0)
(0.00604314 -0.00170885 0)
(0.00515279 -0.00151153 0)
(0.00397643 -0.000749703 0)
(0.00276159 0.00149133 0)
(0.00309509 0.00674307 0)
(0.00511671 0.0114603 0)
(0.00730452 0.0123146 0)
(0.00969311 0.00873943 0)
(0.0106619 0.00104271 0)
(0.00878965 -0.00382498 0)
(-0.014415 0.00324789 0)
(-0.00944424 -0.00241 0)
(-0.000649993 -0.00250928 0)
(0.00510157 -0.00157483 0)
(0.00907081 -0.00109974 0)
(0.0116079 -0.000490701 0)
(0.0134041 -0.000647834 0)
(0.0165 -0.00115791 0)
(0.0212149 -0.00152408 0)
(0.0252337 -0.000222699 0)
(0.0215319 0.00231859 0)
(0.0101153 0.00300539 0)
(-0.00151755 0.00449761 0)
(-0.0221115 0.00335837 0)
(-0.023966 -0.00196187 0)
(-0.0121193 -0.00356861 0)
(-0.00406197 -0.00196895 0)
(0.00156019 -0.00152886 0)
(0.00758845 0.00155102 0)
(-0.00873586 0.00706598 0)
(-0.00235935 -0.00428346 0)
(0.00105036 -0.00415535 0)
(0.00395608 -0.00277637 0)
(0.00588186 -0.00193387 0)
(0.00749448 -0.00127722 0)
(0.00920252 -0.00158948 0)
(0.0116756 -0.00250755 0)
(0.0149989 -0.00274389 0)
(0.0169807 0.000119747 0)
(0.0142801 0.00499215 0)
(0.00563194 0.00694473 0)
(-0.00300309 0.00951181 0)
(-0.0167239 0.00726857 0)
(-0.0180963 -0.00254971 0)
(-0.011895 -0.00619395 0)
(-0.00753003 -0.00381949 0)
(-0.00412904 -0.00406294 0)
(0.00484217 0.00254531 0)
(-6.83886e-05 0.00784055 0)
(0.00180921 -0.00538028 0)
(0.00208469 -0.00484985 0)
(0.00306658 -0.00335639 0)
(0.00387384 -0.00239644 0)
(0.00475682 -0.00184366 0)
(0.00587734 -0.00231789 0)
(0.00756141 -0.00352137 0)
(0.00986694 -0.0036358 0)
(0.0109897 0.000500371 0)
(0.00816967 0.00702937 0)
(0.0016341 0.00994183 0)
(-0.00390714 0.0128564 0)
(-0.0122675 0.00982877 0)
(-0.0141218 -0.00297603 0)
(-0.0101928 -0.007937 0)
(-0.0087621 -0.00470669 0)
(-0.00814068 -0.00625622 0)
(-0.000392476 0.00176219 0)
(0.00516276 0.00624161 0)
(0.00397018 -0.00506035 0)
(0.00233284 -0.00477033 0)
(0.00203771 -0.00348478 0)
(0.00205109 -0.00258239 0)
(0.00229707 -0.00213105 0)
(0.0027502 -0.0027528 0)
(0.00360998 -0.00418856 0)
(0.00507673 -0.00426753 0)
(0.00591642 0.00100003 0)
(0.00346963 0.00879622 0)
(-0.0014273 0.0120936 0)
(-0.00475699 0.0148941 0)
(-0.00983569 0.0117185 0)
(-0.010806 -0.00327254 0)
(-0.00779288 -0.0088724 0)
(-0.00872919 -0.00436313 0)
(-0.011038 -0.00747549 0)
(-0.00563771 -0.00105988 0)
(0.00611139 0.00377642 0)
(0.00423453 -0.00415361 0)
(0.00181169 -0.00418199 0)
(0.000774139 -0.00326477 0)
(0.000219826 -0.00251014 0)
(-9.61215e-05 -0.00214848 0)
(-0.000313501 -0.00287812 0)
(-0.00028458 -0.00450442 0)
(0.00030397 -0.00468913 0)
(0.0010907 0.0012933 0)
(-0.000455939 0.0101955 0)
(-0.00390025 0.0135366 0)
(-0.00580548 0.0160164 0)
(-0.00810134 0.0127992 0)
(-0.00731332 -0.00390862 0)
(-0.00498523 -0.00920462 0)
(-0.0074701 -0.00293617 0)
(-0.0117549 -0.007856 0)
(-0.00861421 -0.00530595 0)
(0.00488295 0.00162179 0)
(0.00323691 -0.00313001 0)
(0.000738182 -0.00337376 0)
(-0.00068318 -0.00282436 0)
(-0.00163229 -0.00223028 0)
(-0.00241689 -0.0019108 0)
(-0.00325921 -0.00268527 0)
(-0.00405484 -0.00444532 0)
(-0.00446254 -0.00485898 0)
(-0.00385068 0.00126228 0)
(-0.00393336 0.0110667 0)
(-0.00578968 0.0144233 0)
(-0.007002 0.0164786 0)
(-0.00597461 0.0125982 0)
(-0.00298736 -0.00474141 0)
(-0.00217982 -0.00906678 0)
(-0.00491551 -0.00104927 0)
(-0.00945308 -0.00751214 0)
(-0.0085872 -0.00969333 0)
(0.00334454 0.000102265 0)
(0.00174686 -0.00218859 0)
(-0.000617718 -0.00252012 0)
(-0.00223667 -0.00225869 0)
(-0.00346436 -0.00179916 0)
(-0.00461106 -0.00145672 0)
(-0.00597662 -0.00219024 0)
(-0.00754732 -0.00399442 0)
(-0.00907094 -0.00467819 0)
(-0.00902022 0.000951047 0)
(-0.007479 0.0111109 0)
(-0.00718082 0.014805 0)
(-0.00721656 0.0162436 0)
(-0.00278555 0.0109266 0)
(0.00154917 -0.00540244 0)
(0.000154687 -0.00853792 0)
(-0.00185393 0.000434645 0)
(-0.00505415 -0.00660747 0)
(-0.00605479 -0.0131138 0)
(0.00100751 -0.000630198 0)
(0.000202902 -0.00141008 0)
(-0.0020239 -0.00168549 0)
(-0.00378525 -0.00160824 0)
(-0.0052403 -0.00125326 0)
(-0.00664032 -0.000840723 0)
(-0.00835324 -0.00144076 0)
(-0.0105166 -0.00315731 0)
(-0.0130183 -0.00403454 0)
(-0.0137251 0.000543009 0)
(-0.0110815 0.0100995 0)
(-0.00826563 0.0142719 0)
(-0.00578604 0.0149099 0)
(0.000931586 0.00836582 0)
(0.00509129 -0.00554423 0)
(0.00199192 -0.00771081 0)
(0.000940216 0.00116516 0)
(-0.000115222 -0.0056138 0)
(-0.00201759 -0.0147215 0)
(0.000691355 -0.00235778 0)
(0.00159131 -0.00297868 0)
(0.00237002 -0.00322847 0)
(0.00308143 -0.00332437 0)
(0.0037455 -0.0033255 0)
(0.00435801 -0.00327543 0)
(0.00489656 -0.0032118 0)
(0.00533595 -0.00316133 0)
(0.00568425 -0.00309265 0)
(0.00592658 -0.00280619 0)
(0.00598973 -0.00228796 0)
(0.00579924 -0.00172718 0)
(0.00532827 -0.00133676 0)
(0.00457823 -0.00108264 0)
(0.00352323 -0.000699306 0)
(0.00226145 0.000123507 0)
(0.00119171 0.00195847 0)
(0.00150703 0.00567425 0)
(0.00391192 0.00931092 0)
(0.00734391 0.0100315 0)
(0.0103348 0.00703011 0)
(0.0108831 0.00213336 0)
(0.0082587 0.000382099 0)
(0.000604028 -0.00535105 0)
(0.00132956 -0.00531925 0)
(0.00213297 -0.00511728 0)
(0.00277473 -0.00490425 0)
(0.00337467 -0.00468474 0)
(0.00389579 -0.00443768 0)
(0.00431667 -0.00415536 0)
(0.00458156 -0.00386136 0)
(0.00463533 -0.00355257 0)
(0.0044989 -0.00302264 0)
(0.00427235 -0.00224928 0)
(0.00399954 -0.00140444 0)
(0.00359685 -0.000692114 0)
(0.00293789 -9.60244e-05 0)
(0.00201445 0.00057744 0)
(0.000930196 0.00143702 0)
(9.43614e-05 0.00266453 0)
(0.000519717 0.00466944 0)
(0.00276616 0.0065344 0)
(0.00594592 0.00706419 0)
(0.0083171 0.00578549 0)
(0.00832616 0.00387779 0)
(0.00633743 0.00327607 0)
(0.00114229 -0.0046379 0)
(-0.000149326 -0.00501935 0)
(6.06744e-05 -0.00513677 0)
(-2.74084e-05 -0.00489604 0)
(0.000530128 -0.00462214 0)
(0.00108798 -0.0043921 0)
(0.00150012 -0.00408421 0)
(0.00172148 -0.00367729 0)
(0.00160347 -0.00323583 0)
(0.00117876 -0.00268213 0)
(0.00082902 -0.00197949 0)
(0.000755797 -0.00118038 0)
(0.000736013 -0.000380592 0)
(0.00045449 0.000436948 0)
(-0.000111033 0.00129127 0)
(-0.000988704 0.00209916 0)
(-0.00170264 0.00283109 0)
(-0.000921441 0.00372879 0)
(0.0014867 0.00456009 0)
(0.0045189 0.0051387 0)
(0.00678214 0.00523224 0)
(0.00684778 0.00505211 0)
(0.00526732 0.00518782 0)
(0.00772913 -0.00340655 0)
(0.00420897 -0.00393524 0)
(-0.00122435 -0.00419114 0)
(-0.00547063 -0.00438911 0)
(-0.00379714 -0.0043691 0)
(-0.00220017 -0.00395644 0)
(-0.00152672 -0.00355387 0)
(-0.001033 -0.00319294 0)
(-0.000504865 -0.00262534 0)
(-0.000441844 -0.00211386 0)
(-0.000461798 -0.00165086 0)
(-0.000352181 -0.00103765 0)
(-0.000341364 -0.000256308 0)
(-0.000509877 0.000619514 0)
(-0.000136605 0.00134623 0)
(-0.000192904 0.002217 0)
(-0.00072315 0.00236974 0)
(0.00089041 0.0023492 0)
(0.00233934 0.00272431 0)
(0.00348521 0.00312105 0)
(0.00566509 0.00400044 0)
(0.00649046 0.00446597 0)
(0.00605736 0.00438665 0)
(-0.00654394 -0.0141265 0)
(-0.00208541 -0.00193808 0)
(-0.0144571 0.0156398 0)
(-0.0211546 -0.0048666 0)
(-0.0217273 -0.00930258 0)
(-0.0224953 -0.0083166 0)
(-0.0217503 -0.00605546 0)
(-0.019271 -0.00592967 0)
(-0.0158316 -0.00413497 0)
(-0.0126588 -0.00245632 0)
(-0.00971674 -0.00236855 0)
(-0.00635548 -0.00188103 0)
(-0.0025921 -0.00065262 0)
(0.0018743 0.000298789 0)
(0.00756025 -3.20505e-05 0)
(0.0124942 0.00394288 0)
(0.0144598 0.00143064 0)
(0.0156106 -0.00454013 0)
(0.0131824 0.00133674 0)
(0.00349921 -0.00251939 0)
(-0.00051332 -0.000834803 0)
(0.00104313 0.00348025 0)
(0.00239043 0.00774508 0)
(-0.00691826 0.0036799 0)
(-0.0124386 -0.000787007 0)
(0.00339129 0.0125449 0)
(0.0163106 -0.00362907 0)
(0.00894004 0.000654318 0)
(-0.00232499 -0.0020758 0)
(-0.00800225 -0.00356467 0)
(-0.0105865 -0.00725099 0)
(-0.0118377 -0.00721615 0)
(-0.0118416 -0.00566831 0)
(-0.0118336 -0.00561235 0)
(-0.011329 -0.00659314 0)
(-0.00990198 -0.00618928 0)
(-0.00903399 -0.005975 0)
(-0.00927904 -0.00777449 0)
(-0.0071811 -0.00201687 0)
(-0.00446636 0.00107105 0)
(-0.00728253 -0.000556014 0)
(-0.0088626 0.0139173 0)
(-0.0103941 0.0123035 0)
(-0.0158368 0.00534385 0)
(-0.0209094 0.00393511 0)
(-0.0237572 0.00781072 0)
(-0.000620859 0.00503309 0)
(-0.00806875 -0.00520393 0)
(-0.000243884 -0.0110035 0)
(0.00183908 -0.00647264 0)
(-0.001079 0.00791743 0)
(-0.00106827 0.00521205 0)
(-0.0042362 9.53825e-05 0)
(-0.00696973 -0.004352 0)
(-0.0096171 -0.00573662 0)
(-0.0112913 -0.00527912 0)
(-0.0123442 -0.00494143 0)
(-0.0142229 -0.00607964 0)
(-0.017347 -0.00519487 0)
(-0.0202785 -0.00360894 0)
(-0.0210452 -0.00606051 0)
(-0.0185176 -0.00525475 0)
(-0.0151693 0.000149316 0)
(-0.0162328 0.00350217 0)
(-0.0174073 0.010025 0)
(-0.0159521 0.0128434 0)
(-0.0192618 0.0108765 0)
(-0.0267653 0.0108394 0)
(-0.0284512 0.00500829 0)
(0.00168158 0.00938174 0)
(-0.000444324 -0.000250591 0)
(-0.00303969 -0.00559559 0)
(-0.00656386 -0.00283234 0)
(-0.00725928 0.00519383 0)
(-0.00584685 0.00447318 0)
(-0.00661368 0.00152226 0)
(-0.00851609 -0.00133011 0)
(-0.0110305 -0.0026067 0)
(-0.0131873 -0.00286278 0)
(-0.015025 -0.00262803 0)
(-0.0174468 -0.0020517 0)
(-0.0204919 -0.000668237 0)
(-0.0228271 -0.000982319 0)
(-0.0236374 -0.00668783 0)
(-0.0233286 -0.00701908 0)
(-0.0226063 -0.0019082 0)
(-0.0220945 0.00474743 0)
(-0.0208253 0.00848169 0)
(-0.0192729 0.0121194 0)
(-0.0199103 0.0151492 0)
(-0.0209004 0.0146907 0)
(-0.0214662 0.00359858 0)
(0.0017955 0.00537564 0)
(0.000397975 0.000762468 0)
(-0.00342729 -0.00171572 0)
(-0.00746741 0.000306415 0)
(-0.00871811 0.0044653 0)
(-0.0083568 0.00442717 0)
(-0.00899801 0.00257571 0)
(-0.0105938 0.000755398 0)
(-0.0127064 -0.000279936 0)
(-0.0147424 -0.000829357 0)
(-0.0166159 -0.000636317 0)
(-0.018515 0.000305372 0)
(-0.0201245 0.00134671 0)
(-0.0210558 -4.65272e-05 0)
(-0.0226306 -0.0055907 0)
(-0.0250218 -0.00596261 0)
(-0.0264078 -0.00172757 0)
(-0.025942 0.00331951 0)
(-0.0243839 0.00669246 0)
(-0.0230031 0.0111912 0)
(-0.0215401 0.0145095 0)
(-0.0195684 0.0130716 0)
(-0.0194926 0.00573371 0)
(0.000691157 0.00627029 0)
(-0.000561055 0.00376791 0)
(-0.00368461 0.00219511 0)
(-0.00685225 0.00313749 0)
(-0.00842441 0.00501155 0)
(-0.00902098 0.00497216 0)
(-0.0100278 0.00376806 0)
(-0.0115606 0.00252653 0)
(-0.0133408 0.00164912 0)
(-0.0151231 0.00100019 0)
(-0.0168283 0.00107111 0)
(-0.0183471 0.00178797 0)
(-0.0193484 0.00220327 0)
(-0.0200165 0.000648425 0)
(-0.0218427 -0.00283027 0)
(-0.0247558 -0.00334788 0)
(-0.0266262 -0.000846104 0)
(-0.0267453 0.002251 0)
(-0.0259313 0.00544516 0)
(-0.0244942 0.00964372 0)
(-0.0222737 0.012049 0)
(-0.0200015 0.0110279 0)
(-0.0194892 0.00695092 0)
(0.000212656 0.00581533 0)
(-0.000979345 0.00545088 0)
(-0.00343974 0.00497709 0)
(-0.00590124 0.00546474 0)
(-0.00757721 0.0062138 0)
(-0.00870976 0.00602948 0)
(-0.00995857 0.0051378 0)
(-0.0114066 0.00411407 0)
(-0.0129273 0.00328425 0)
(-0.0145123 0.00266656 0)
(-0.0161244 0.00263565 0)
(-0.0175215 0.00302614 0)
(-0.0184795 0.00297116 0)
(-0.0193486 0.00172297 0)
(-0.0210618 -0.000265504 0)
(-0.0234389 -0.000843937 0)
(-0.02511 0.000146235 0)
(-0.0254987 0.00197498 0)
(-0.0249622 0.00457208 0)
(-0.0236654 0.00783438 0)
(-0.0217105 0.00976778 0)
(-0.0197897 0.00938223 0)
(-0.018981 0.00710824 0)
(-0.00025583 0.00667833 0)
(-0.00131806 0.00713683 0)
(-0.00319556 0.0071669 0)
(-0.00509568 0.00742388 0)
(-0.00665971 0.00763727 0)
(-0.00795131 0.00731895 0)
(-0.00924359 0.00651905 0)
(-0.0105758 0.00552903 0)
(-0.011938 0.00472958 0)
(-0.0134057 0.00422583 0)
(-0.0149237 0.00414101 0)
(-0.0162167 0.0042024 0)
(-0.0171802 0.00387972 0)
(-0.0181396 0.00291494 0)
(-0.0195811 0.00165247 0)
(-0.0213672 0.00103777 0)
(-0.0227234 0.00110022 0)
(-0.0232239 0.0019852 0)
(-0.0229247 0.00382761 0)
(-0.0218783 0.00631228 0)
(-0.0203132 0.0079907 0)
(-0.018734 0.00797448 0)
(-0.0176991 0.00662464 0)
(-0.000500052 0.00746944 0)
(-0.00145362 0.00850657 0)
(-0.00295498 0.0088453 0)
(-0.00445164 0.00902503 0)
(-0.0058103 0.00900493 0)
(-0.00703791 0.00860382 0)
(-0.0082492 0.00781112 0)
(-0.00948193 0.00682065 0)
(-0.0107714 0.00608612 0)
(-0.0121486 0.00568264 0)
(-0.0134904 0.00550266 0)
(-0.0146183 0.00528516 0)
(-0.0155317 0.00481743 0)
(-0.0164347 0.00401195 0)
(-0.0175565 0.00307617 0)
(-0.0188159 0.00241865 0)
(-0.0198917 0.0019881 0)
(-0.0205124 0.0022028 0)
(-0.0205078 0.00333365 0)
(-0.0198206 0.00515857 0)
(-0.0186028 0.00656114 0)
(-0.0172123 0.00663925 0)
(-0.0160153 0.00568833 0)
(-0.000626128 0.00844855 0)
(-0.00148789 0.00970021 0)
(-0.00273393 0.010188 0)
(-0.00394451 0.010332 0)
(-0.00508929 0.0102057 0)
(-0.00616441 0.00976074 0)
(-0.00724593 0.00898663 0)
(-0.00840385 0.00805113 0)
(-0.00963496 0.00737669 0)
(-0.0108689 0.00698143 0)
(-0.0119966 0.0066473 0)
(-0.0129467 0.00623862 0)
(-0.013755 0.00567069 0)
(-0.0145318 0.00491888 0)
(-0.0153774 0.00409977 0)
(-0.0162539 0.00339704 0)
(-0.0170804 0.00280431 0)
(-0.017729 0.00261831 0)
(-0.0179774 0.00316768 0)
(-0.0176536 0.00438546 0)
(-0.0167377 0.00534872 0)
(-0.0155046 0.00535044 0)
(-0.014294 0.00453478 0)
(-0.000642215 0.0094539 0)
(-0.00145421 0.0107678 0)
(-0.0025438 0.0113106 0)
(-0.00356272 0.0114184 0)
(-0.00453469 0.0112311 0)
(-0.00546397 0.010765 0)
(-0.0064174 0.0100423 0)
(-0.00746725 0.00921149 0)
(-0.00857795 0.00855284 0)
(-0.00962844 0.00807237 0)
(-0.0105518 0.00759156 0)
(-0.0113437 0.00704879 0)
(-0.0120338 0.00640024 0)
(-0.0126819 0.00564401 0)
(-0.0133368 0.00484756 0)
(-0.0139875 0.00410922 0)
(-0.0146097 0.00347821 0)
(-0.015173 0.00311045 0)
(-0.0155249 0.00325995 0)
(-0.015401 0.00389716 0)
(-0.0147232 0.00435781 0)
(-0.0137221 0.00420343 0)
(-0.0126614 0.00342017 0)
(-0.000606097 0.0104219 0)
(-0.00140236 0.0117601 0)
(-0.00240149 0.0122941 0)
(-0.00329275 0.012352 0)
(-0.00413839 0.0121173 0)
(-0.00495291 0.0116412 0)
(-0.00578879 0.0109731 0)
(-0.00668794 0.0102275 0)
(-0.0076129 0.00955466 0)
(-0.00847566 0.00896529 0)
(-0.00923274 0.00837018 0)
(-0.0098887 0.00772667 0)
(-0.0104667 0.00701135 0)
(-0.0110026 0.00622999 0)
(-0.011525 0.00542599 0)
(-0.0120362 0.00466323 0)
(-0.0125286 0.00400209 0)
(-0.0129742 0.00354761 0)
(-0.0132586 0.00342171 0)
(-0.0131951 0.00356886 0)
(-0.012719 0.00361809 0)
(-0.0119691 0.0032863 0)
(-0.0111319 0.00249761 0)
(-0.000599212 0.0113569 0)
(-0.00137732 0.0127099 0)
(-0.00230845 0.0131839 0)
(-0.0031056 0.0131774 0)
(-0.0038534 0.0128962 0)
(-0.00456844 0.0124087 0)
(-0.00528643 0.0117709 0)
(-0.00602939 0.0110618 0)
(-0.00677259 0.0103638 0)
(-0.007464 0.00969148 0)
(-0.00807591 0.00900784 0)
(-0.00861094 0.00828667 0)
(-0.00908551 0.00751672 0)
(-0.00952254 0.00670657 0)
(-0.0099405 0.00588733 0)
(-0.0103438 0.00510485 0)
(-0.0107256 0.00441023 0)
(-0.0110563 0.00386995 0)
(-0.0112541 0.0035337 0)
(-0.0112051 0.00334293 0)
(-0.010869 0.0030936 0)
(-0.0103266 0.00260491 0)
(-0.00970497 0.0018003 0)
(-0.000637577 0.0122938 0)
(-0.00137731 0.0136197 0)
(-0.00224451 0.0139979 0)
(-0.00296532 0.0139166 0)
(-0.00363029 0.0135837 0)
(-0.00425368 0.0130732 0)
(-0.00486021 0.0124371 0)
(-0.00546345 0.0117307 0)
(-0.00605064 0.0110036 0)
(-0.00659417 0.010271 0)
(-0.00707828 0.00952029 0)
(-0.00750449 0.00873959 0)
(-0.00788383 0.00792568 0)
(-0.00823115 0.00708823 0)
(-0.00855824 0.00625091 0)
(-0.00886777 0.00544722 0)
(-0.00915138 0.00471454 0)
(-0.00938263 0.00409147 0)
(-0.00950649 0.00359483 0)
(-0.00945701 0.00317758 0)
(-0.00921296 0.00272185 0)
(-0.00882358 0.00211482 0)
(-0.00837515 0.00129803 0)
(-0.000659086 0.01325 0)
(-0.00137791 0.0144841 0)
(-0.00218225 0.014747 0)
(-0.00284098 0.0145822 0)
(-0.00343344 0.0141891 0)
(-0.00397313 0.0136414 0)
(-0.00447958 0.0129855 0)
(-0.00496393 0.0122617 0)
(-0.0054222 0.011503 0)
(-0.00584192 0.0107233 0)
(-0.00621567 0.00992173 0)
(-0.00654511 0.00909533 0)
(-0.00683777 0.00824608 0)
(-0.00710325 0.00738383 0)
(-0.00734869 0.00652699 0)
(-0.00757468 0.00569986 0)
(-0.00777277 0.00492797 0)
(-0.00792198 0.00423267 0)
(-0.00798689 0.00361701 0)
(-0.00793072 0.00304685 0)
(-0.00774424 0.00245199 0)
(-0.00745973 0.00176332 0)
(-0.00713599 0.000941687 0)
(-0.000693858 0.0142214 0)
(-0.00136839 0.0152927 0)
(-0.00211182 0.015441 0)
(-0.00271579 0.0151835 0)
(-0.00324196 0.0147201 0)
(-0.00370514 0.0141228 0)
(-0.00412336 0.0134323 0)
(-0.00450794 0.0126794 0)
(-0.00486074 0.0118873 0)
(-0.00517821 0.0110684 0)
(-0.00545831 0.0102267 0)
(-0.00570333 0.00936441 0)
(-0.00591869 0.00848622 0)
(-0.00611061 0.00760154 0)
(-0.0062832 0.0067248 0)
(-0.00643573 0.00587349 0)
(-0.00656088 0.00506463 0)
(-0.00664336 0.00430987 0)
(-0.0066612 0.00360734 0)
(-0.00659458 0.00293357 0)
(-0.00644114 0.00224644 0)
(-0.00622333 0.00150451 0)
(-0.00598151 0.000683935 0)
(-0.000717336 0.015198 0)
(-0.00134851 0.0160475 0)
(-0.00203808 0.0160824 0)
(-0.00258457 0.0157232 0)
(-0.00304505 0.0151812 0)
(-0.00343645 0.0145257 0)
(-0.0037765 0.0137919 0)
(-0.00407708 0.0130034 0)
(-0.00434346 0.0121773 0)
(-0.00457697 0.011324 0)
(-0.00477875 0.0104494 0)
(-0.00495163 0.00955789 0)
(-0.00509972 0.00865528 0)
(-0.00522715 0.00775018 0)
(-0.00533619 0.00685395 0)
(-0.00542562 0.00597929 0)
(-0.00548969 0.00513757 0)
(-0.00551799 0.00433536 0)
(-0.00549735 0.00356987 0)
(-0.00541764 0.00282573 0)
(-0.00527996 0.00207791 0)
(-0.00510053 0.00130239 0)
(-0.00490716 0.00048612 0)
(-0.000709006 0.0161658 0)
(-0.00131634 0.0167652 0)
(-0.00196142 0.0166662 0)
(-0.00244197 0.0161981 0)
(-0.00283461 0.0155737 0)
(-0.00315748 0.0148566 0)
(-0.00342772 0.0140758 0)
(-0.00365714 0.0132494 0)
(-0.0038525 0.01239 0)
(-0.00401745 0.011506 0)
(-0.00415472 0.0106033 0)
(-0.00426731 0.00968697 0)
(-0.00435848 0.00876311 0)
(-0.00443101 0.00783926 0)
(-0.00448617 0.00692445 0)
(-0.00452274 0.0060281 0)
(-0.00453658 0.00515811 0)
(-0.00452093 0.00431858 0)
(-0.00446824 0.00350737 0)
(-0.00437376 0.00271503 0)
(-0.0042401 0.00192716 0)
(-0.00407913 0.00113062 0)
(-0.00391 0.000319467 0)
(-0.000665513 0.0171054 0)
(-0.00127822 0.0174608 0)
(-0.00186773 0.0171848 0)
(-0.00227682 0.0166036 0)
(-0.00260124 0.0158983 0)
(-0.00285963 0.0151208 0)
(-0.00306801 0.0142938 0)
(-0.00323738 0.0134304 0)
(-0.00337469 0.0125396 0)
(-0.00348433 0.0116279 0)
(-0.00356951 0.0107006 0)
(-0.00363306 0.00976268 0)
(-0.00367757 0.00881981 0)
(-0.00370495 0.00787856 0)
(-0.00371592 0.00694627 0)
(-0.00370949 0.00603015 0)
(-0.00368284 0.00513609 0)
(-0.00363183 0.00426713 0)
(-0.00355234 0.00342226 0)
(-0.00344256 0.00259622 0)
(-0.00330549 0.00178131 0)
(-0.00314981 0.000971126 0)
(-0.00298864 0.000164124 0)
(-0.000657335 0.0180135 0)
(-0.00122263 0.0181142 0)
(-0.00173583 0.0176318 0)
(-0.00207467 0.0169392 0)
(-0.00233516 0.0161582 0)
(-0.00253547 0.0153251 0)
(-0.00269049 0.0144554 0)
(-0.00281017 0.0135578 0)
(-0.00290093 0.0126384 0)
(-0.00296699 0.0117019 0)
(-0.00301138 0.0107528 0)
(-0.00303651 0.0097956 0)
(-0.00304431 0.00883536 0)
(-0.00303611 0.00787781 0)
(-0.00301229 0.00692905 0)
(-0.00297212 0.00599493 0)
(-0.0029138 0.00508019 0)
(-0.00283492 0.00418755 0)
(-0.0027334 0.00331714 0)
(-0.00260898 0.00246662 0)
(-0.00246448 0.00163249 0)
(-0.0023062 0.000812451 0)
(-0.00214302 7.53246e-06 0)
(-0.000646043 0.0188809 0)
(-0.00111514 0.0186884 0)
(-0.00154774 0.018008 0)
(-0.00182573 0.0172107 0)
(-0.00203017 0.0163607 0)
(-0.00218049 0.0154777 0)
(-0.00229107 0.0145701 0)
(-0.00237092 0.0136421 0)
(-0.00242562 0.0126974 0)
(-0.00245875 0.011739 0)
(-0.00247274 0.0107705 0)
(-0.00246939 0.00979582 0)
(-0.00245 0.00881942 0)
(-0.0024154 0.00784637 0)
(-0.00236573 0.00688196 0)
(-0.00230047 0.00593118 0)
(-0.00221852 0.00499821 0)
(-0.00211856 0.00408581 0)
(-0.00199971 0.00319506 0)
(-0.00186242 0.00232562 0)
(-0.00170914 0.00147663 0)
(-0.00154438 0.000648218 0)
(-0.00137406 -0.000157241 0)
(-0.000565089 0.0196607 0)
(-0.000948283 0.0191703 0)
(-0.00131121 0.01832 0)
(-0.00153331 0.0174261 0)
(-0.00168743 0.0165136 0)
(-0.00179468 0.0155871 0)
(-0.00186892 0.0146469 0)
(-0.00191798 0.0136932 0)
(-0.00194622 0.0127268 0)
(-0.00195615 0.0117494 0)
(-0.00194934 0.0107636 0)
(-0.00192679 0.00977283 0)
(-0.0018892 0.00878115 0)
(-0.00183687 0.00779314 0)
(-0.00176978 0.00681358 0)
(-0.00168748 0.005847 0)
(-0.00158932 0.00489736 0)
(-0.00147464 0.0039676 0)
(-0.00134323 0.0030596 0)
(-0.00119583 0.00217434 0)
(-0.00103448 0.0013126 0)
(-0.000862357 0.000475854 0)
(-0.000683359 -0.000332929 0)
(-0.000468733 0.020309 0)
(-0.000763225 0.0195623 0)
(-0.00104856 0.0185678 0)
(-0.00120931 0.0175877 0)
(-0.00131305 0.0166216 0)
(-0.00138123 0.0156597 0)
(-0.00142575 0.014694 0)
(-0.00145209 0.01372 0)
(-0.00146262 0.0127359 0)
(-0.00145831 0.0117423 0)
(-0.00143955 0.0107412 0)
(-0.00140646 0.0097355 0)
(-0.00135904 0.00872915 0)
(-0.00129715 0.00772644 0)
(-0.00122048 0.0067319 0)
(-0.00112865 0.0057499 0)
(-0.0010212 0.00478435 0)
(-0.000897863 0.0038385 0)
(-0.000758801 0.00291483 0)
(-0.000604843 0.00201521 0)
(-0.000437634 0.00114139 0)
(-0.000259447 0.000295554 0)
(-7.2783e-05 -0.000519221 0)
(-0.000383677 0.0208223 0)
(-0.000579708 0.0198592 0)
(-0.000773979 0.0187415 0)
(-0.000862757 0.01769 0)
(-0.000912388 0.0166847 0)
(-0.000943759 0.0156999 0)
(-0.000964399 0.0147182 0)
(-0.000975542 0.0137304 0)
(-0.000976521 0.0127333 0)
(-0.000966267 0.0117264 0)
(-0.000943764 0.0107117 0)
(-0.000908151 0.00969207 0)
(-0.000858706 0.00867143 0)
(-0.000794805 0.00765403 0)
(-0.000715889 0.00664437 0)
(-0.000621476 0.00564686 0)
(-0.000511232 0.00466555 0)
(-0.000385088 0.003704 0)
(-0.000243378 0.00276519 0)
(-8.69537e-05 0.0018516 0)
(8.28187e-05 0.000965527 0)
(0.000264285 0.000109465 0)
(0.000455838 -0.000713703 0)
(-0.000281953 0.021208 0)
(-0.000407268 0.0200527 0)
(-0.000492304 0.0188274 0)
(-0.000496723 0.017724 0)
(-0.000487598 0.0167017 0)
(-0.000484969 0.015712 0)
(-0.000488175 0.0147262 0)
(-0.000491741 0.0137324 0)
(-0.000491012 0.0127268 0)
(-0.000482562 0.0117096 0)
(-0.000463887 0.0106829 0)
(-0.00043312 0.00965018 0)
(-0.000388835 0.00861541 0)
(-0.000329919 0.0075831 0)
(-0.000255511 0.0065579 0)
(-0.000164996 0.00554441 0)
(-5.80451e-05 0.00454697 0)
(6.53181e-05 0.00356949 0)
(0.000204662 0.00261536 0)
(0.000359127 0.00168752 0)
(0.000527508 0.000788559 0)
(0.00070851 -7.89841e-05 0)
(0.000901066 -0.000912588 0)
(-0.000180338 0.0214639 0)
(-0.000245601 0.0201412 0)
(-0.000203724 0.0188093 0)
(-0.000108875 0.0176779 0)
(-3.79007e-05 0.0166726 0)
(-7.13896e-06 0.0157016 0)
(-1.17162e-06 0.0147255 0)
(-5.21159e-06 0.0137336 0)
(-1.03152e-05 0.0127242 0)
(-1.08275e-05 0.0116993 0)
(-2.8803e-06 0.0106621 0)
(1.63318e-05 0.00961682 0)
(4.89108e-05 0.00856789 0)
(9.64504e-05 0.00752024 0)
(0.000160142 0.00647884 0)
(0.000240786 0.00544863 0)
(0.000338769 0.00443432 0)
(0.000454043 0.00344021 0)
(0.000586115 0.00247012 0)
(0.000734087 0.00152734 0)
(0.000896791 0.000614627 0)
(0.00107308 -0.000265595 0)
(0.00126215 -0.00111128 0)
(-0.000124769 0.0216121 0)
(-7.42492e-05 0.0201067 0)
(0.000103743 0.0186712 0)
(0.000309438 0.0175423 0)
(0.000437649 0.0166022 0)
(0.000485425 0.015678 0)
(0.000490602 0.0147251 0)
(0.000478195 0.0137418 0)
(0.000460442 0.0127326 0)
(0.000444613 0.0117022 0)
(0.000435693 0.0106558 0)
(0.00043734 0.00959828 0)
(0.000452314 0.00853506 0)
(0.000482704 0.00747149 0)
(0.000530045 0.00641305 0)
(0.000595356 0.00536512 0)
(0.000679136 0.00433289 0)
(0.000781358 0.00332115 0)
(0.00090148 0.00233415 0)
(0.00103852 0.00137551 0)
(0.00119122 0.000448116 0)
(0.00135841 -0.000445823 0)
(0.00153931 -0.00130482 0)
(-1.26765e-05 0.0216347 0)
(0.000200473 0.0199394 0)
(0.000492493 0.0184155 0)
(0.000764822 0.0173334 0)
(0.000925523 0.0165001 0)
(0.000981467 0.0156516 0)
(0.000978397 0.0147325 0)
(0.000951776 0.0137635 0)
(0.000915933 0.0127578 0)
(0.000879379 0.0117242 0)
(0.000848202 0.0106695 0)
(0.000826953 0.00960021 0)
(0.000819073 0.00852245 0)
(0.000827153 0.00744229 0)
(0.000853089 0.00636582 0)
(0.000898144 0.00529901 0)
(0.000962965 0.00424761 0)
(0.00104758 0.00321698 0)
(0.00115141 0.00221189 0)
(0.00127334 0.00123635 0)
(0.00141192 0.000293361 0)
(0.00156575 -0.000615117 0)
(0.00173391 -0.00148826 0)
(0.000251366 0.0213897 0)
(0.000654457 0.0196389 0)
(0.00100513 0.0180904 0)
(0.00127434 0.0171058 0)
(0.00142312 0.0163879 0)
(0.00147157 0.0156304 0)
(0.00145628 0.0147525 0)
(0.00141125 0.0138034 0)
(0.00135238 0.012805 0)
(0.00128998 0.0117702 0)
(0.00123153 0.0107084 0)
(0.00118255 0.00962763 0)
(0.00114716 0.00853498 0)
(0.0011284 0.00743746 0)
(0.0011285 0.00634188 0)
(0.00114895 0.00525489 0)
(0.00119057 0.00418291 0)
(0.00125348 0.00313196 0)
(0.00133709 0.00210744 0)
(0.00144014 0.00111385 0)
(0.00156087 0.00015441 0)
(0.00169745 -0.000769183 0)
(0.00184863 -0.00165689 0)
(0.0006532 0.0207269 0)
(0.00126337 0.0191932 0)
(0.00163912 0.0177615 0)
(0.00186052 0.0169153 0)
(0.00195469 0.0163046 0)
(0.00196829 0.0156244 0)
(0.00193007 0.0147916 0)
(0.00185807 0.0138672 0)
(0.0017687 0.0128796 0)