/*--------------------------------*- C++ -*----------------------------------*\
  =========                 |
  \\      /  F ield         | OpenFOAM: The Open Source CFD Toolbox
   \\    /   O peration     | Website:  https://openfoam.org
    \\  /    A nd           | Version:  9
     \\/     M anipulation  |
\*---------------------------------------------------------------------------*/
FoamFile
{
    format      ascii;
    class       volScalarField;
    location    "5.75";
    object      epsilon;
}
// * * * * * * * * * * * * * * * * * * * * * * * * * * * * * * * * * * * * * //

dimensions      [0 2 -3 0 0 0 0];

internalField   nonuniform List<scalar> 
2268
(
0.000336809
0.00170536
0.00297485
0.00411646
0.00513795
0.0060541
0.00688388
0.00763982
0.00832899
0.00895572
0.00952859
0.0100614
0.0105601
0.0110022
0.0112956
0.0112104
0.010348
0.0088804
0.00733121
0.00623865
0.00522971
0.00366098
0.00105595
0.000672399
0.00115892
0.00169908
0.00220112
0.00265421
0.00306051
0.00342504
0.0037526
0.00404736
0.00431311
0.00455419
0.00477377
0.00496885
0.00512748
0.00521877
0.00517939
0.00493407
0.00458181
0.00409715
0.00357971
0.0030019
0.00237898
0.00173788
0.00112891
0.0012282
0.00158581
0.00194469
0.00227562
0.00257405
0.00284121
0.00307983
0.00329311
0.00348431
0.00365666
0.00381164
0.00394613
0.00405146
0.00410927
0.00408814
0.00396267
0.00377665
0.00350908
0.00320119
0.00288525
0.00264341
0.00286944
0.00157418
0.00137208
0.00162453
0.00191116
0.00218404
0.00243291
0.00265644
0.00285609
0.00303437
0.00319408
0.00333783
0.00346658
0.00357786
0.00366511
0.0037159
0.00371175
0.00364196
0.0035283
0.00336706
0.0031959
0.00307456
0.00312715
0.00413302
0.0019982
0.00153755
0.00171136
0.00194884
0.00218418
0.00240198
0.00259886
0.0027753
0.00293328
0.00307522
0.00320335
0.00331854
0.00341899
0.00349982
0.00355234
0.00356498
0.00353244
0.00346789
0.00338174
0.0033183
0.00336436
0.00371931
0.00571377
0.00240482
0.00171172
0.00182065
0.00202019
0.00222744
0.00242239
0.00259999
0.00276002
0.00290405
0.00303421
0.00315254
0.00325999
0.00335538
0.00343515
0.00349325
0.00352233
0.00351939
0.00349498
0.00346975
0.00349659
0.00369631
0.00439831
0.00773916
0.00280086
0.00189099
0.00194341
0.00211174
0.00229619
0.00247255
0.00263449
0.00278135
0.0029145
0.00303587
0.00314743
0.00325025
0.00334372
0.0034253
0.00349078
0.00353542
0.00355763
0.00356759
0.00359297
0.00369439
0.00402921
0.00513378
0.0106829
0.00320377
0.002076
0.00207644
0.00221812
0.00238303
0.00254306
0.00269096
0.00282605
0.00294972
0.0030638
0.00317022
0.0032702
0.00336357
0.00344851
0.003522
0.00358082
0.00362456
0.00366365
0.00372911
0.00388584
0.00431425
0.00577803
0.0169558
0.000940787
0.00401529
0.00636926
0.0076637
0.00832287
0.00860801
0.00878473
0.00900312
0.00923192
0.00881606
0.00720306
0.00558059
0.00411981
0.0047607
0.00671383
0.00639905
0.00419693
0.0023684
0.000893204
0.00109039
0.00232471
0.00320661
0.00371992
0.00399705
0.00412682
0.00418852
0.00423128
0.00423885
0.00406454
0.00366354
0.00322909
0.0028201
0.00283899
0.00301481
0.00282126
0.00216376
0.00153164
0.00107283
0.00172155
0.00231163
0.00280288
0.00308782
0.00324353
0.0033172
0.00334807
0.00335853
0.00332998
0.00319371
0.00296872
0.00273138
0.00250229
0.00242189
0.00240459
0.00222508
0.00183388
0.00143607
0.00138832
0.00257084
0.0025985
0.00281342
0.00294565
0.00301904
0.00305058
0.003058
0.00304929
0.0030034
0.00287832
0.00270743
0.00253812
0.00238025
0.0023071
0.002225
0.00203891
0.00173609
0.00143395
0.001567
0.00365199
0.00302601
0.00296666
0.00296419
0.00296718
0.00296069
0.00294528
0.00291898
0.00285981
0.00273851
0.00259261
0.00245918
0.0023521
0.00230052
0.00217928
0.00198143
0.00171194
0.00145919
0.00169883
0.00517045
0.0035445
0.00317974
0.00305204
0.00299228
0.00295034
0.00291189
0.00286777
0.00279641
0.0026762
0.00254917
0.00244671
0.00237973
0.00233328
0.00218943
0.0019779
0.00171655
0.00149174
0.00179125
0.00770225
0.00411899
0.00340803
0.0031693
0.0030555
0.00298126
0.00292013
0.00285804
0.00277521
0.00265648
0.00254774
0.00247629
0.00243455
0.00237591
0.00222222
0.00199803
0.00173436
0.00152371
0.00185366
0.0134613
0.00464265
0.0036137
0.00329386
0.0031375
0.00303501
0.00295241
0.00287291
0.00277989
0.0026646
0.00257192
0.00252504
0.00249278
0.0024164
0.00225957
0.00202964
0.00176528
0.00155782
0.00190246
0.00378816
0.00235589
0.00228958
0.00239896
0.00253875
0.00267606
0.0028033
0.00292074
0.00303049
0.00313441
0.00323429
0.00333152
0.00342628
0.0035176
0.00360367
0.00368244
0.00375466
0.00383122
0.00394272
0.0041502
0.00460376
0.00571199
0.00890622
0.00455277
0.00274561
0.00261544
0.00270163
0.00281493
0.0029206
0.00301419
0.00310223
0.00318987
0.00327897
0.00337022
0.00346446
0.00356188
0.00366233
0.00376435
0.00386515
0.00396353
0.00406721
0.00419952
0.00440086
0.00475128
0.00538927
0.00649903
0.00531184
0.00317674
0.00300431
0.00309936
0.00318949
0.00325098
0.00328956
0.00333142
0.00338735
0.00345618
0.0035352
0.00362392
0.00372271
0.00383199
0.00395042
0.00407314
0.00419299
0.00431116
0.0044477
0.00461657
0.00485437
0.00519958
0.0056303
0.00630228
0.00367138
0.0034819
0.00366004
0.00370483
0.00369515
0.00364037
0.003613
0.00362754
0.00366882
0.00372873
0.00380674
0.00390487
0.00402393
0.00416279
0.00431347
0.00445417
0.00457281
0.00472398
0.00485512
0.00499452
0.00517149
0.00535745
0.0078292
0.00405109
0.00396428
0.00408828
0.00390281
0.0038718
0.0038205
0.003794
0.0038151
0.00386276
0.00392169
0.00399764
0.0041011
0.00423835
0.00441347
0.00461829
0.00479367
0.00486162
0.00497589
0.00510461
0.00514033
0.00517572
0.00523048
0.00811239
0.00418244
0.00395717
0.00395148
0.0039045
0.00399531
0.00390342
0.0038654
0.00389588
0.00396194
0.00404731
0.0041528
0.00428382
0.00445214
0.00466379
0.00490169
0.00505405
0.00502077
0.00504828
0.00512007
0.00516384
0.00518809
0.00518245
0.00726535
0.0041413
0.00392119
0.00398574
0.00392628
0.00396232
0.00392555
0.00391553
0.00394981
0.00401996
0.00411501
0.00423191
0.0043699
0.00452564
0.00468379
0.00482054
0.00491422
0.00492662
0.00497453
0.00503888
0.0050883
0.00509062
0.00509449
0.00749805
0.00401714
0.00376439
0.00378079
0.00383205
0.0038607
0.00389366
0.00393539
0.0039936
0.00407061
0.00416347
0.00427001
0.00438695
0.00450506
0.0046121
0.00470553
0.00478373
0.00483466
0.00491235
0.0049885
0.00500431
0.00498514
0.00499736
0.00749101
0.0039924
0.00368697
0.00367129
0.00372846
0.00378115
0.00384519
0.003919
0.00399958
0.00408894
0.00418653
0.00428991
0.00439391
0.00448952
0.00456933
0.00463422
0.00469081
0.00474998
0.00482054
0.00487295
0.00487507
0.00486861
0.00487203
0.00176888
0.00405795
0.00367666
0.00362007
0.0036615
0.00372423
0.00380179
0.00388873
0.00398048
0.00407726
0.00417783
0.00427842
0.00437299
0.00445456
0.00451913
0.00456919
0.00461504
0.00466664
0.00471871
0.00475213
0.00476175
0.00476368
0.00475649
0.00763353
0.00420333
0.00370432
0.00360715
0.00362773
0.00368787
0.00376705
0.00385612
0.00395008
0.00404738
0.00414558
0.00424052
0.0043271
0.00440083
0.00445991
0.00450734
0.00455081
0.00459537
0.00463606
0.00466366
0.00467736
0.00467935
0.0046654
0.00804036
0.00431757
0.00374889
0.00361784
0.00361819
0.00366917
0.00374342
0.00382896
0.00391991
0.00401319
0.00410573
0.00419406
0.0042748
0.0043452
0.00440434
0.00445426
0.00449909
0.0045409
0.00457682
0.00460265
0.00461688
0.0046178
0.00460266
0.00839993
0.00442896
0.00380171
0.00364157
0.00362354
0.00366332
0.00373006
0.00380988
0.00389571
0.00398347
0.00407007
0.00415297
0.00423
0.00429938
0.00436036
0.00441373
0.00446106
0.0045029
0.0045377
0.0045632
0.00457768
0.00457913
0.00456617
0.00869878
0.00453046
0.00385521
0.00367067
0.00363666
0.00366555
0.00372444
0.0037982
0.0038788
0.00396162
0.00404373
0.00412314
0.00419824
0.00426772
0.00433078
0.00438727
0.00443735
0.00448075
0.00451644
0.00454296
0.00455884
0.00456263
0.00455369
0.00895637
0.0046204
0.0039054
0.00370053
0.003653
0.00367225
0.00372403
0.00379235
0.00386863
0.00394799
0.00402751
0.00410533
0.00418006
0.00425054
0.00431587
0.00437536
0.00442849
0.00447456
0.00451267
0.00454174
0.00456065
0.00456847
0.00456487
0.0091838
0.00469987
0.00395082
0.00372886
0.00367004
0.00368119
0.00372706
0.00379109
0.0038644
0.00394193
0.00402066
0.00409864
0.00417449
0.00424705
0.00431531
0.00437834
0.00443529
0.00448528
0.00452741
0.00456079
0.00458456
0.00459807
0.0046011
0.00938839
0.00477031
0.00399118
0.00375466
0.00368652
0.00369119
0.00373257
0.00379372
0.00386557
0.00394288
0.00402246
0.00410227
0.0041808
0.00425682
0.00432923
0.004397
0.00445912
0.00451462
0.00456262
0.00460226
0.00463283
0.00465378
0.00466483
0.00957361
0.00483252
0.00402646
0.00377756
0.00370193
0.00370176
0.00374021
0.00380002
0.00387197
0.00395067
0.00403279
0.00411612
0.00419904
0.00428022
0.0043585
0.00443274
0.00450188
0.0045649
0.00462086
0.00466892
0.00470835
0.00473858
0.00475926
0.00973912
0.00488658
0.00405667
0.00379741
0.00371609
0.00371279
0.00374996
0.00381011
0.00388383
0.00396565
0.00405209
0.00414081
0.00423006
0.00431844
0.00440467
0.00448757
0.00456601
0.00463889
0.00470521
0.00476404
0.00481459
0.00485617
0.00488829
0.00988368
0.00493233
0.00408177
0.00381426
0.00372909
0.00372442
0.00376209
0.00382435
0.00390169
0.00398852
0.00408126
0.00417747
0.0042753
0.00437323
0.0044699
0.00456405
0.00465445
0.0047399
0.00481929
0.00489156
0.00495576
0.00501106
0.00505677
0.0100067
0.00496963
0.00410184
0.00382827
0.00374116
0.00373699
0.00377704
0.00384335
0.00392631
0.00402027
0.00412156
0.00422766
0.00433663
0.00444684
0.00455684
0.00466524
0.0047707
0.00487187
0.00496746
0.00505624
0.00513704
0.00520884
0.00527074
0.0101087
0.00499848
0.00411706
0.00383973
0.0037527
0.00375098
0.00379542
0.00386788
0.00395868
0.00406213
0.00417452
0.00429325
0.0044163
0.00454194
0.00466861
0.00479478
0.00491891
0.00503948
0.00515497
0.00526388
0.0053648
0.00545645
0.00553765
0.0101871
0.00501877
0.00412771
0.00384906
0.0037642
0.00376701
0.00381797
0.00389885
0.00399995
0.00411553
0.0042419
0.00437639
0.00451692
0.00466166
0.00480892
0.00495697
0.00510407
0.00524842
0.00538821
0.00552162
0.00564691
0.00576245
0.00586677
0.0102382
0.00503059
0.00413422
0.00385681
0.0037763
0.0037858
0.00384556
0.00393732
0.0040514
0.00418208
0.00432568
0.00447953
0.00464148
0.00480962
0.00498207
0.00515691
0.00533211
0.00550554
0.00567498
0.00583822
0.00599306
0.00613748
0.00626959
0.0102648
0.00503479
0.00413724
0.0038636
0.00378968
0.00380813
0.00387914
0.00398444
0.00411445
0.00426354
0.00442808
0.00460541
0.00479338
0.00498997
0.00519314
0.00540068
0.00561023
0.00581919
0.00602487
0.00622447
0.00641527
0.00659467
0.0067603
0.0102727
0.00503266
0.00413753
0.00387012
0.00380508
0.00383486
0.00391969
0.00404143
0.00419063
0.00436183
0.00455151
0.00475712
0.0049765
0.00520756
0.00544806
0.0056955
0.00594704
0.00619953
0.00644959
0.00669369
0.00692836
0.00715029
0.00735649
0.0102656
0.00502529
0.00413583
0.00387708
0.00382325
0.00386684
0.00396823
0.00410952
0.0042815
0.00447894
0.00469857
0.004938
0.00519515
0.00546789
0.00575378
0.00604994
0.00635295
0.00665891
0.00696352
0.00726229
0.00755069
0.00782449
0.00807987
0.0102455
0.00501343
0.00413278
0.00388513
0.00384492
0.0039049
0.00402577
0.00418995
0.00438862
0.00461695
0.004872
0.00515169
0.00545414
0.00577723
0.00611833
0.0064741
0.00684039
0.00721228
0.00758426
0.00795045
0.00830495
0.00864216
0.00895717
0.0102119
0.00499716
0.0041288
0.00389485
0.00387076
0.00394984
0.00409323
0.00428389
0.00451353
0.00477788
0.00507457
0.00540201
0.00575866
0.00614254
0.00655086
0.00697974
0.0074241
0.00787768
0.00833323
0.008783
0.00921899
0.00963392
0.0100212
0.0101567
0.00497564
0.00412419
0.00390681
0.00390145
0.00400238
0.00417146
0.00439235
0.00465754
0.00496359
0.00530895
0.00569278
0.00611414
0.00657137
0.00706161
0.00758037
0.00812138
0.0086766
0.00923629
0.00979001
0.0103271
0.0108379
0.011313
0.0100629
0.00494861
0.00411963
0.00392172
0.00393767
0.00406319
0.00426114
0.00451613
0.00482172
0.00517561
0.00557744
0.00602752
0.00652586
0.00707147
0.00766155
0.00829097
0.00895196
0.00963404
0.0103243
0.0110084
0.0116717
0.0123007
0.012883
0.00995462
0.0049231
0.00411722
0.00394063
0.00398017
0.00413291
0.00436281
0.00465574
0.00500666
0.00541485
0.00588165
0.00640901
0.00699847
0.00765009
0.00836155
0.00912723
0.00993764
0.0107791
0.0116342
0.012483
0.013305
0.0140807
0.0147938
0.00982286
0.00489599
0.00411617
0.00396359
0.00402935
0.00421195
0.00447672
0.00481118
0.0052122
0.00568122
0.00622187
0.00683849
0.00753489
0.008313
0.00917159
0.010105
0.0111018
0.0121445
0.0132093
0.014268
0.0152911
0.0162502
0.0171237
0.00965316
0.00486049
0.0041152
0.00399115
0.00408619
0.00430102
0.00460302
0.00498195
0.00543725
0.00597317
0.00659648
0.00731484
0.00813533
0.00906294
0.0100987
0.0112379
0.0124676
0.0137656
0.0150995
0.0164289
0.0177098
0.0189006
0.0199709
0.00943428
0.00481384
0.00411539
0.00402595
0.00415328
0.00440183
0.00474211
0.00516706
0.00567945
0.00628721
0.00700112
0.00783323
0.00879537
0.00989727
0.0111442
0.0125342
0.0140546
0.0156783
0.0173618
0.0190457
0.0206628
0.0221492
0.0234617
0.00913865
0.00475642
0.00412309
0.00407544
0.00423668
0.00451797
0.00489493
0.00536492
0.00593492
0.00661726
0.00742764
0.00838377
0.00950393
0.010805
0.0122996
0.0139924
0.0158745
0.0179159
0.0200593
0.0222171
0.0242818
0.0261507
0.0277605
0.00871719
0.00469726
0.0041582
0.00415784
0.00434898
0.00465613
0.00506313
0.00557307
0.00619766
0.00695398
0.00786328
0.00895005
0.010241
0.0117632
0.0135416
0.0155938
0.0179222
0.0205008
0.0232586
0.0260662
0.0287446
0.0311151
0.0330862
0.00810345
0.00469254
0.0042814
0.00431555
0.00451426
0.00482699
0.00524859
0.00578745
0.00645895
0.00728423
0.00828995
0.00950814
0.0109758
0.012734
0.0148262
0.0172931
0.0201628
0.0234295
0.0270191
0.0307467
0.0343014
0.0373387
0.0397347
0.00760222
0.00506741
0.00468292
0.00464321
0.00477311
0.00504377
0.00545112
0.00600074
0.00670655
0.00759084
0.00868437
0.0100266
0.0116662
0.0136617
0.0160823
0.0190056
0.0225086
0.0266407
0.0313633
0.0364426
0.0413301
0.0452558
0.048108
0.0155529
0.00788199
0.00598043
0.00533387
0.00517834
0.00531318
0.00566269
0.00619969
0.00692386
0.00785295
0.00901916
0.0104682
0.0122604
0.0144736
0.0172086
0.0205941
0.0247872
0.0299539
0.0361935
0.0433308
0.0504669
0.0555289
0.0587439
0.154626
0.0269302
0.0101241
0.00668388
0.00574755
0.0056103
0.00585751
0.0063621
0.00708995
0.00804758
0.00926555
0.0107937
0.012702
0.0150861
0.0180782
0.0218644
0.0267069
0.0329656
0.0410812
0.0513704
0.0629927
0.0691897
0.0723135
1.53855
0.129603
0.0208623
0.00863178
0.00630722
0.00583901
0.00598462
0.0064574
0.007182
0.00815277
0.00939759
0.010968
0.0129397
0.0154191
0.0185597
0.022589
0.0278592
0.0349385
0.0448014
0.0592717
0.0821462
0.0877241
0.0894866
0.019724
0.0162856
0.0168041
0.021071
0.00763607
0.00766935
0.00758007
0.00732496
0.00585335
0.00587239
0.0057864
0.00559484
0.00537178
0.0053563
0.00531593
0.00521565
0.00520517
0.00517681
0.0051381
0.00507306
0.00512795
0.00510326
0.00508924
0.00506393
0.00506749
0.0050479
0.00503426
0.00498737
0.00498089
0.00495775
0.00491358
0.0048541
0.00485346
0.00482666
0.00478545
0.0047364
0.00473078
0.0047059
0.00467322
0.00463525
0.00463891
0.00461683
0.0045898
0.00455876
0.00457867
0.00455952
0.00453648
0.00451002
0.00454599
0.00452987
0.0045103
0.00448757
0.0045379
0.00452492
0.00450874
0.00448956
0.00455395
0.0045443
0.00453162
0.00451605
0.00459566
0.00458966
0.00458073
0.00456896
0.00466567
0.00466376
0.00465895
0.00465132
0.00476732
0.00477006
0.00476989
0.00476686
0.00490475
0.00491282
0.00491793
0.00492009
0.00508304
0.00509731
0.00510851
0.00511663
0.00530854
0.00533006
0.00534834
0.00536336
0.00558909
0.00561916
0.00564577
0.00566887
0.00593444
0.00597466
0.0060111
0.00604372
0.00635666
0.00640896
0.00645711
0.006501
0.00687064
0.00693741
0.00699949
0.0070567
0.00749481
0.00757886
0.00765749
0.00773055
0.00825172
0.00835641
0.0084548
0.00854673
0.00916919
0.00929861
0.00942059
0.00953491
0.0102816
0.0104407
0.0105907
0.0107315
0.0116315
0.0118258
0.012009
0.0121809
0.0132711
0.0135074
0.0137296
0.0139377
0.0152652
0.015551
0.0158188
0.0160685
0.0176941
0.018038
0.0183583
0.0186553
0.0206587
0.0210699
0.02145
0.0217996
0.0242868
0.0247749
0.0252211
0.0256273
0.0287431
0.029316
0.0298323
0.030296
0.0342418
0.0349026
0.0354873
0.036003
0.0410632
0.0418036
0.0424429
0.042994
0.0495711
0.0503586
0.0510175
0.0515695
0.0602217
0.0609809
0.0615909
0.0620842
0.0735407
0.0741327
0.0745848
0.0749356
0.0900195
0.0902529
0.0904195
0.0905427
0.00758807
0.00471753
0.00384699
0.0034806
0.00327842
0.00313926
0.00302642
0.00292221
0.00281589
0.00270785
0.00263274
0.00260242
0.00256503
0.00246635
0.00231081
0.00208992
0.00184345
0.00163445
0.00200175
0.00576007
0.00460309
0.00402263
0.00369557
0.00347642
0.00330983
0.00316953
0.00304302
0.00292607
0.00282207
0.00274499
0.00269577
0.00263672
0.00253497
0.00240154
0.00223685
0.00206703
0.00191363
0.00241361
0.00512547
0.00455606
0.00417296
0.00390169
0.00367948
0.00350186
0.00334658
0.00320769
0.00308628
0.00298147
0.00289783
0.00283532
0.00276796
0.00267281
0.00257098
0.00248614
0.00244325
0.00246196
0.00342868
0.00495236
0.00460629
0.0043582
0.00414116
0.00390222
0.00373292
0.00357016
0.00341975
0.00329604
0.00319304
0.00311115
0.00305923
0.0030075
0.00291503
0.00283067
0.0028235
0.0029442
0.00327895
0.00550504
0.00491181
0.00468406
0.00453887
0.00435793
0.00413837
0.00400256
0.00379994
0.0036084
0.0034658
0.00335032
0.00324572
0.00317413
0.00313626
0.00308055
0.00301139
0.00301918
0.00323124
0.00388986
0.00897241
0.0049392
0.00476025
0.00465832
0.00450848
0.00427832
0.0041211
0.00390283
0.00369511
0.00353321
0.00340489
0.00328862
0.00317911
0.00309687
0.00303417
0.00299667
0.00306632
0.00337856
0.00398379
0.00852399
0.00486629
0.00472134
0.00464217
0.00455713
0.00431858
0.00415887
0.00396404
0.00377445
0.00361438
0.0034784
0.00334603
0.0032104
0.00310197
0.00303195
0.00300009
0.00308445
0.00337335
0.00389104
0.00668927
0.00475248
0.00463227
0.00454246
0.00445147
0.0042867
0.00414177
0.00399709
0.00384381
0.00368909
0.00354164
0.00339482
0.00324395
0.0031127
0.00301889
0.00297407
0.00302582
0.00323817
0.00378449
0.00604939
0.00465317
0.00454402
0.00444267
0.00433625
0.00421068
0.00409477
0.00398768
0.00386104
0.00370801
0.00355836
0.00341268
0.00326143
0.00312235
0.00300646
0.00292829
0.0029243
0.00305032
0.00348313
0.00564455
0.00456783
0.00446914
0.00436837
0.00426431
0.00415765
0.00405516
0.00395825
0.00383636
0.00368898
0.00354851
0.00340433
0.00325057
0.0031097
0.00298373
0.00288014
0.00283013
0.00288475
0.00321241
0.0055018
0.00450253
0.0044147
0.0043212
0.00422557
0.00412901
0.00402957
0.0039278
0.00380469
0.00366837
0.00353413
0.00338756
0.00323043
0.00308588
0.00295567
0.00284179
0.00276651
0.00277588
0.00301882
0.00505776
0.0044615
0.00438326
0.0042978
0.00420902
0.00411709
0.00401813
0.00391162
0.0037913
0.00366088
0.00352822
0.00338585
0.00323407
0.00308786
0.00294971
0.00282291
0.00272925
0.00271254
0.00285309
0.0048966
0.00444524
0.00437522
0.00429675
0.00421232
0.00412204
0.00402409
0.00391784
0.00380097
0.00367521
0.00354802
0.00341563
0.003273
0.00312767
0.00298537
0.00285173
0.00274321
0.00270118
0.00277004
0.00479155
0.00445311
0.00439097
0.0043193
0.0042391
0.00415088
0.00405475
0.00395082
0.00383828
0.00371908
0.00359844
0.00347455
0.00334097
0.00320112
0.00306462
0.0029402
0.00284283
0.00281269
0.00292128
0.0046849
0.00448561
0.00443167
0.00436735
0.00429283
0.00420863
0.00411574
0.00401509
0.00390723
0.00379385
0.00367795
0.00355908
0.00343362
0.00330412
0.00318058
0.00307506
0.00300723
0.00302538
0.00327747
0.00492463
0.00454485
0.00449955
0.00444321
0.00437567
0.00429729
0.00420922
0.00411283
0.00400938
0.0039004
0.00378788
0.00367232
0.00355313
0.0034337
0.00332374
0.00323786
0.00320047
0.00326722
0.00363693
0.00588031
0.00463404
0.00459796
0.0045502
0.00449051
0.00441912
0.00433701
0.00424558
0.00414636
0.00404092
0.00393098
0.00381787
0.00370303
0.00359099
0.00349166
0.00342167
0.00341013
0.0035221
0.0039913
0.00674953
0.00475712
0.00473107
0.0046926
0.00464145
0.00457773
0.00450221
0.00441615
0.00432111
0.00421871
0.00411079
0.00399933
0.0038871
0.0037796
0.00368739
0.00362885
0.00363772
0.00378996
0.00435121
0.00749643
0.00491884
0.00490391
0.00487564
0.00483373
0.00477821
0.00470968
0.00462921
0.00453828
0.00443858
0.00433212
0.00422142
0.00411016
0.00400471
0.00391642
0.00386547
0.00389039
0.00408032
0.00473987
0.00820323
0.00512505
0.00512267
0.00510574
0.00507394
0.00502724
0.00496606
0.00489134
0.00480444
0.00470708
0.00460147
0.00449054
0.00437866
0.00427296
0.00418574
0.00413906
0.00417666
0.00440389
0.00518102
0.00901612
0.00538299
0.00539493
0.00539083
0.00537027
0.00533317
0.00527984
0.00521108
0.00512814
0.00503278
0.00492733
0.00481508
0.00470095
0.0045928
0.00450394
0.00445842
0.00450524
0.00476716
0.00567393
0.0100936
0.0057016
0.00573006
0.00574063
0.00573279
0.00570635
0.00566156
0.00559909
0.00552014
0.00542643
0.00532042
0.00520569
0.00508764
0.00497484
0.00488173
0.00483447
0.00488724
0.00517934
0.00621747
0.0115009
0.00609178
0.00613955
0.00616709
0.0061738
0.00615942
0.00612411
0.00606848
0.00599365
0.00590132
0.00579405
0.00567564
0.00555195
0.00543231
0.00533247
0.00528113
0.00533818
0.00565983
0.00683311
0.0131984
0.00656711
0.00663751
0.00668482
0.00670832
0.00670774
0.00668317
0.00663516
0.00656476
0.00647367
0.00636447
0.00624117
0.00611007
0.00598136
0.00587241
0.00581523
0.00587727
0.00623582
0.00756878
0.0152431
0.00714422
0.00724122
0.0073116
0.00735462
0.00736996
0.00735772
0.0073184
0.007253
0.00716316
0.00705148
0.0069221
0.00678171
0.00664138
0.00652033
0.00645444
0.00652
0.00691864
0.00843047
0.0174959
0.00784344
0.00797173
0.00806909
0.0081348
0.00816859
0.0081706
0.00814135
0.00808179
0.00799347
0.00787894
0.00774235
0.00759068
0.00743578
0.00729867
0.00721912
0.00728221
0.00771221
0.00937761
0.0196742
0.00868967
0.0088547
0.0089835
0.00907549
0.0091306
0.00914913
0.00913164
0.00907908
0.00899287
0.0088754
0.0087307
0.00856579
0.00839305
0.00823496
0.00813476
0.00818521
0.00862957
0.0104057
0.0216314
0.00971336
0.00992128
0.0100864
0.0102087
0.0102882
0.0103258
0.0103221
0.0102781
0.010195
0.010075
0.00992173
0.00974198
0.00954822
0.0093639
0.00923499
0.00926085
0.00970153
0.011556
0.023541
0.0109516
0.0112092
0.011416
0.0115725
0.0116799
0.0117391
0.0117515
0.0117179
0.0116396
0.0115182
0.0113568
0.0111616
0.0109445
0.0107295
0.0105645
0.0105556
0.0109823
0.0129243
0.0259075
0.0124496
0.0127641
0.0130178
0.0132127
0.0133509
0.0134346
0.0134655
0.0134448
0.0133736
0.0132531
0.0130854
0.0128757
0.0126351
0.012387
0.0121813
0.0121314
0.0125426
0.0146084
0.0289799
0.0142623
0.0146409
0.0149466
0.0151834
0.0153553
0.0154658
0.0155178
0.0155128
0.015452
0.0153359
0.0151658
0.0149455
0.0146844
0.014405
0.0141585
0.0140665
0.0144665
0.0166965
0.0328069
0.0164568
0.0169062
0.017268
0.0175491
0.0177566
0.0178959
0.0179713
0.0179852
0.017939
0.0178328
0.0176669
0.0174436
0.0171704
0.016868
0.016588
0.0164608
0.0168605
0.0192954
0.0374463
0.0191148
0.0196404
0.0200604
0.0203868
0.0206302
0.0207992
0.0208999
0.0209361
0.0209095
0.0208205
0.0206687
0.0204551
0.0201854
0.0198782
0.0195847
0.0194435
0.0198702
0.0225772
0.0432379
0.0223363
0.0229407
0.0234183
0.023788
0.0240657
0.0242637
0.0243906
0.0244521
0.0244509
0.0243881
0.0242636
0.0240781
0.0238368
0.023557
0.0232899
0.0231823
0.0236981
0.0268143
0.0509188
0.0262446
0.0269254
0.0274554
0.0278628
0.0281701
0.0283941
0.0285467
0.0286355
0.0286653
0.0286385
0.028557
0.0284236
0.0282457
0.0280433
0.0278713
0.0278879
0.0286147
0.0323693
0.0612236
0.0309914
0.0317385
0.0323092
0.0327436
0.0330721
0.0333164
0.0334916
0.033608
0.0336726
0.0336909
0.0336686
0.0336142
0.0335433
0.0334869
0.0335153
0.0338116
0.0349728
0.0397418
0.0750536
0.0367636
0.037555
0.038146
0.0385907
0.0389274
0.0391826
0.0393744
0.0395155
0.0396157
0.0396845
0.0397339
0.0397828
0.0398635
0.0400339
0.0404054
0.0412254
0.0432197
0.0496852
0.0940089
0.04379
0.0445874
0.0451678
0.0455992
0.0459265
0.0461795
0.0463781
0.0465367
0.0466678
0.0467853
0.0469094
0.0470733
0.0473361
0.0478041
0.0486756
0.0503531
0.053854
0.0633464
0.120993
0.0523462
0.0530916
0.0536199
0.0540084
0.0543046
0.0545384
0.0547297
0.0548933
0.0550432
0.0551968
0.055382
0.0556474
0.0560838
0.056865
0.0583335
0.0612044
0.0671919
0.0823458
0.162131
0.0627573
0.0633748
0.063802
0.0641141
0.0643545
0.0645491
0.0647149
0.064865
0.0650128
0.0651767
0.0653877
0.0657037
0.0662382
0.0672262
0.0691763
0.0732713
0.0826126
0.107953
0.231058
0.0753984
0.0758057
0.076083
0.0762862
0.0764457
0.0765788
0.0766968
0.076809
0.0769254
0.0770607
0.0772411
0.0775171
0.077994
0.0789052
0.0808135
0.0852281
0.0968983
0.135822
0.354711
0.0906999
0.090834
0.0909252
0.0909932
0.0910483
0.0910963
0.091141
0.0911857
0.0912344
0.0912934
0.0913738
0.0914977
0.0917123
0.0921284
0.0930409
0.0953873
0.102982
0.139416
0.581929
)
;

boundaryField
{
    leftWall
    {
        type            epsilonWallFunction;
        value           nonuniform List<scalar> 
50
(
0.000336809
0.000672399
0.00112891
0.00157418
0.0019982
0.00240482
0.00280086
0.00320377
0.00378816
0.00455277
0.00531184
0.00630228
0.0078292
0.00811239
0.00726535
0.00749805
0.00749101
0.00176888
0.00763353
0.00804036
0.00839993
0.00869878
0.00895637
0.0091838
0.00938839
0.00957361
0.00973912
0.00988368
0.0100067
0.0101087
0.0101871
0.0102382
0.0102648
0.0102727
0.0102656
0.0102455
0.0102119
0.0101567
0.0100629
0.00995462
0.00982286
0.00965316
0.00943428
0.00913865
0.00871719
0.00810345
0.00760222
0.0155529
0.154626
1.53855
)
;
    }
    rightWall
    {
        type            epsilonWallFunction;
        value           nonuniform List<scalar> 
50
(
0.000893204
0.00107283
0.00138832
0.001567
0.00169883
0.00179125
0.00185366
0.00190246
0.00200175
0.00241361
0.00342868
0.00550504
0.00897241
0.00852399
0.00668927
0.00604939
0.00564455
0.0055018
0.00505776
0.0048966
0.00479155
0.0046849
0.00492463
0.00588031
0.00674953
0.00749643
0.00820323
0.00901612
0.0100936
0.0115009
0.0131984
0.0152431
0.0174959
0.0196742
0.0216314
0.023541
0.0259075
0.0289799
0.0328069
0.0374463
0.0432379
0.0509188
0.0612236
0.0750536
0.0940089
0.120993
0.162131
0.231058
0.354711
0.581929
)
;
    }
    lowerWall
    {
        type            epsilonWallFunction;
        value           nonuniform List<scalar> 
62
(
0.000336809
0.00170536
0.00297485
0.00411646
0.00513795
0.0060541
0.00688388
0.00763982
0.00832899
0.00895572
0.00952859
0.0100614
0.0105601
0.0110022
0.0112956
0.0112104
0.010348
0.0088804
0.00733121
0.00623865
0.00522971
0.00366098
0.00105595
0.00105595
0.00173788
0.00286944
0.00413302
0.00571377
0.00773916
0.0106829
0.0169558
0.019724
0.0162856
0.0168041
0.021071
0.000940787
0.00109039
0.00172155
0.00257084
0.00365199
0.00517045
0.00770225
0.0134613
0.000940787
0.00401529
0.00636926
0.0076637
0.00832287
0.00860801
0.00878473
0.00900312
0.00923192
0.00881606
0.00720306
0.00558059
0.00411981
0.0047607
0.00671383
0.00639905
0.00419693
0.0023684
0.000893204
)
;
    }
    atmosphere
    {
        type            inletOutlet;
        inletValue      uniform 0.1;
        value           nonuniform List<scalar> 
46
(
0.1
0.129603
0.0208623
0.00863178
0.00630722
0.00583901
0.00598462
0.0064574
0.007182
0.00815277
0.00939759
0.010968
0.0129397
0.0154191
0.0185597
0.022589
0.0278592
0.0349385
0.0448014
0.0592717
0.1
0.1
0.1
0.1
0.1
0.1
0.1
0.1
0.1
0.1
0.1
0.1
0.1
0.1
0.1
0.1
0.1
0.1
0.1
0.1
0.1
0.1
0.1
0.1
0.1
0.581929
)
;
    }
    defaultFaces
    {
        type            empty;
    }
}


// ************************************************************************* //
