/*--------------------------------*- C++ -*----------------------------------*\
  =========                 |
  \\      /  F ield         | OpenFOAM: The Open Source CFD Toolbox
   \\    /   O peration     | Website:  https://openfoam.org
    \\  /    A nd           | Version:  9
     \\/     M anipulation  |
\*---------------------------------------------------------------------------*/
FoamFile
{
    format      ascii;
    class       volVectorField;
    location    "0.94";
    object      U;
}
// * * * * * * * * * * * * * * * * * * * * * * * * * * * * * * * * * * * * * //

dimensions      [0 1 -1 0 0 0 0];

internalField   nonuniform List<vector> 
2268
(
(0.00194563 0.00122672 0)
(-0.0201721 0.00903337 0)
(-0.0573831 0.00978436 0)
(-0.0908286 0.00977992 0)
(-0.125535 0.00979314 0)
(-0.159267 0.00959005 0)
(-0.191193 0.00910017 0)
(-0.220241 0.00830312 0)
(-0.245318 0.00715758 0)
(-0.265063 0.00553572 0)
(-0.277924 0.00322198 0)
(-0.282132 0.000190043 0)
(-0.275633 -0.00324136 0)
(-0.259647 -0.00626579 0)
(-0.235713 -0.00886858 0)
(-0.204665 -0.0112764 0)
(-0.167365 -0.0139095 0)
(-0.123666 -0.0166625 0)
(-0.0737174 -0.0195849 0)
(-0.0180028 -0.0212985 0)
(0.0354522 -0.0188727 0)
(0.0749009 -0.00185572 0)
(0.0542365 0.0169296 0)
(-0.0137063 0.00747001 0)
(-0.040944 0.0229557 0)
(-0.0801452 0.0256701 0)
(-0.11732 0.0257176 0)
(-0.15426 0.025222 0)
(-0.188884 0.0239799 0)
(-0.220173 0.0219829 0)
(-0.247053 0.019192 0)
(-0.268393 0.0154995 0)
(-0.282901 0.0107728 0)
(-0.289443 0.00497393 0)
(-0.287741 -0.00162991 0)
(-0.278776 -0.00840867 0)
(-0.262392 -0.0146002 0)
(-0.238874 -0.0201094 0)
(-0.208728 -0.0249548 0)
(-0.173292 -0.0292685 0)
(-0.134352 -0.0332106 0)
(-0.0925539 -0.0372033 0)
(-0.0478344 -0.0392717 0)
(-0.0039242 -0.0331382 0)
(0.0325158 -0.00559728 0)
(0.0433875 0.0409799 0)
(-0.0223123 0.023205 0)
(-0.0501837 0.0394207 0)
(-0.0875103 0.0429112 0)
(-0.124123 0.0427603 0)
(-0.159869 0.0414141 0)
(-0.193135 0.0387967 0)
(-0.223011 0.0349471 0)
(-0.248562 0.0298191 0)
(-0.268764 0.0232535 0)
(-0.282467 0.0151413 0)
(-0.288674 0.00568921 0)
(-0.287012 -0.00445647 0)
(-0.27781 -0.014418 0)
(-0.261429 -0.0236934 0)
(-0.238218 -0.0321095 0)
(-0.208833 -0.0393972 0)
(-0.175204 -0.0451174 0)
(-0.140096 -0.0496854 0)
(-0.104729 -0.0543009 0)
(-0.0682898 -0.0570888 0)
(-0.0317712 -0.0499016 0)
(0.00150883 -0.017939 0)
(0.0222841 0.0513577 0)
(-0.0260922 0.0410201 0)
(-0.0552715 0.0559687 0)
(-0.0916534 0.0599328 0)
(-0.127633 0.059569 0)
(-0.162345 0.0573324 0)
(-0.194574 0.0533532 0)
(-0.223527 0.0477213 0)
(-0.248361 0.0403705 0)
(-0.26811 0.0310862 0)
(-0.281656 0.0197633 0)
(-0.287971 0.00676763 0)
(-0.286532 -0.00697376 0)
(-0.277477 -0.0203869 0)
(-0.261249 -0.03289 0)
(-0.238215 -0.0442953 0)
(-0.209102 -0.0539128 0)
(-0.176488 -0.0605999 0)
(-0.14433 -0.0650046 0)
(-0.114462 -0.0695222 0)
(-0.0850817 -0.0728366 0)
(-0.0547377 -0.0654925 0)
(-0.0242975 -0.0307117 0)
(0.00397669 0.0515543 0)
(-0.0274854 0.0598176 0)
(-0.0584034 0.0727307 0)
(-0.0943675 0.076788 0)
(-0.129821 0.0761024 0)
(-0.1637 0.0729447 0)
(-0.195135 0.067636 0)
(-0.223454 0.0603021 0)
(-0.247912 0.0508367 0)
(-0.267596 0.0389494 0)
(-0.28138 0.0245079 0)
(-0.288131 0.00799806 0)
(-0.287163 -0.00937854 0)
(-0.278486 -0.0263168 0)
(-0.262531 -0.0421456 0)
(-0.23955 -0.0566465 0)
(-0.210168 -0.0685332 0)
(-0.177664 -0.0756392 0)
(-0.147549 -0.0788053 0)
(-0.122475 -0.0822197 0)
(-0.0994283 -0.0857746 0)
(-0.0746187 -0.079119 0)
(-0.0466591 -0.0443037 0)
(-0.014089 0.0413893 0)
(-0.0278701 0.0793264 0)
(-0.0603729 0.0898086 0)
(-0.0960406 0.0934974 0)
(-0.131006 0.0923238 0)
(-0.164195 0.0882208 0)
(-0.195024 0.0816369 0)
(-0.222954 0.0727102 0)
(-0.247344 0.0612762 0)
(-0.267343 0.0469407 0)
(-0.281786 0.0294992 0)
(-0.289372 0.0095173 0)
(-0.289205 -0.0115253 0)
(-0.281181 -0.0320459 0)
(-0.265693 -0.0512858 0)
(-0.242719 -0.0690644 0)
(-0.21252 -0.0833556 0)
(-0.17907 -0.0904236 0)
(-0.149928 -0.0911257 0)
(-0.128995 -0.0922475 0)
(-0.111897 -0.0957612 0)
(-0.0923837 -0.0906311 0)
(-0.0666636 -0.0588823 0)
(-0.0315348 0.0219262 0)
(-0.0278709 0.099267 0)
(-0.0614738 0.107122 0)
(-0.0967532 0.110056 0)
(-0.131202 0.108259 0)
(-0.163801 0.103216 0)
(-0.19419 0.0954396 0)
(-0.221959 0.0850618 0)
(-0.246591 0.0718448 0)
(-0.267312 0.0552534 0)
(-0.282897 0.0349443 0)
(-0.291807 0.0115132 0)
(-0.292882 -0.013249 0)
(-0.285899 -0.0374157 0)
(-0.271221 -0.060205 0)
(-0.248394 -0.0817211 0)
(-0.216919 -0.0990066 0)
(-0.181294 -0.10579 0)
(-0.151725 -0.102635 0)
(-0.134189 -0.0999891 0)
(-0.122937 -0.103002 0)
(-0.108881 -0.10016 0)
(-0.0858165 -0.07458 0)
(-0.0446023 -0.000728218 0)
(-0.0277158 0.11934 0)
(-0.0617465 0.1245 0)
(-0.0964458 0.126405 0)
(-0.130312 0.123911 0)
(-0.162399 0.117986 0)
(-0.192497 0.109143 0)
(-0.220331 0.0975015 0)
(-0.245525 0.0827417 0)
(-0.267412 0.0641389 0)
(-0.284698 0.0411103 0)
(-0.295536 0.0142089 0)
(-0.29844 -0.0143956 0)
(-0.293062 -0.0423337 0)
(-0.279797 -0.0690442 0)
(-0.257579 -0.0952165 0)
(-0.224578 -0.116278 0)
(-0.185333 -0.12216 0)
(-0.153303 -0.113684 0)
(-0.138016 -0.106117 0)
(-0.132759 -0.108192 0)
(-0.124822 -0.107832 0)
(-0.10523 -0.0923087 0)
(-0.0616432 -0.0459654 0)
(0.101731 -0.0453504 0)
(0.0201789 0.0467286 0)
(-0.276817 0.0733967 0)
(-0.525097 0.0604818 0)
(-0.681833 0.0245028 0)
(-0.713845 -0.00904739 0)
(-0.642022 -0.0325967 0)
(-0.523037 -0.0425236 0)
(-0.383801 -0.0443016 0)
(-0.263406 -0.0308223 0)
(-0.204999 -0.00571016 0)
(-0.213991 0.00944357 0)
(-0.24459 0.00754451 0)
(-0.250139 -0.00341954 0)
(-0.21305 -0.0188775 0)
(-0.142544 -0.0287229 0)
(-0.0576793 -0.0312004 0)
(0.0151369 -0.0249227 0)
(0.0805754 0.0131701 0)
(-0.0357284 -0.0138732 0)
(-0.176143 0.136861 0)
(-0.464995 0.158762 0)
(-0.623634 0.118879 0)
(-0.682241 0.0556884 0)
(-0.67652 -0.00884381 0)
(-0.622314 -0.0580731 0)
(-0.518047 -0.0824346 0)
(-0.395017 -0.0851475 0)
(-0.283301 -0.0593153 0)
(-0.2225 -0.0147527 0)
(-0.218834 0.010665 0)
(-0.230607 0.00876753 0)
(-0.222124 -0.00952303 0)
(-0.190774 -0.032373 0)
(-0.140387 -0.0474615 0)
(-0.0860006 -0.0505996 0)
(-0.040624 -0.0393973 0)
(0.032 0.0257684 0)
(-0.11729 0.0568111 0)
(-0.287189 0.221881 0)
(-0.491141 0.225948 0)
(-0.5782 0.155526 0)
(-0.625964 0.0669138 0)
(-0.631934 -0.0213282 0)
(-0.58371 -0.0913089 0)
(-0.495474 -0.12789 0)
(-0.389238 -0.132187 0)
(-0.285522 -0.0947208 0)
(-0.217929 -0.0276308 0)
(-0.205681 0.010626 0)
(-0.208069 0.00732732 0)
(-0.194711 -0.01821 0)
(-0.16233 -0.0467099 0)
(-0.120941 -0.0644029 0)
(-0.0881741 -0.0663501 0)
(-0.0681583 -0.0561089 0)
(-0.0234214 0.0108712 0)
(-0.16209 0.152408 0)
(-0.326825 0.296945 0)
(-0.470816 0.275436 0)
(-0.537677 0.181875 0)
(-0.581055 0.0765684 0)
(-0.585818 -0.0319128 0)
(-0.542331 -0.120136 0)
(-0.466567 -0.167362 0)
(-0.376375 -0.175178 0)
(-0.282341 -0.133627 0)
(-0.209841 -0.0488557 0)
(-0.184498 0.00782655 0)
(-0.179909 0.0047625 0)
(-0.161997 -0.0277592 0)
(-0.126909 -0.0621869 0)
(-0.0917787 -0.0783045 0)
(-0.0754392 -0.0735958 0)
(-0.0762882 -0.0648012 0)
(-0.0518233 -0.0146734 0)
(-0.181469 0.255352 0)
(-0.324794 0.359118 0)
(-0.426616 0.313329 0)
(-0.484518 0.204792 0)
(-0.531515 0.0855505 0)
(-0.542415 -0.0403507 0)
(-0.499478 -0.142227 0)
(-0.43033 -0.200191 0)
(-0.35285 -0.211936 0)
(-0.272657 -0.168414 0)
(-0.203133 -0.0735482 0)
(-0.163269 -0.00249518 0)
(-0.147874 -0.00169091 0)
(-0.122899 -0.04025 0)
(-0.0879631 -0.0775371 0)
(-0.0624673 -0.0874758 0)
(-0.056237 -0.0750257 0)
(-0.0692563 -0.0679177 0)
(-0.0638229 -0.0458381 0)
(-0.186826 0.358453 0)
(-0.301619 0.407488 0)
(-0.3678 0.341504 0)
(-0.415575 0.227056 0)
(-0.473614 0.100785 0)
(-0.501822 -0.041216 0)
(-0.449601 -0.158661 0)
(-0.381742 -0.223802 0)
(-0.320124 -0.240503 0)
(-0.25743 -0.198015 0)
(-0.192636 -0.0967364 0)
(-0.139071 -0.0195411 0)
(-0.110597 -0.0145491 0)
(-0.0832193 -0.0534022 0)
(-0.0541359 -0.0892044 0)
(-0.0362078 -0.0928002 0)
(-0.0333616 -0.0746988 0)
(-0.047472 -0.0700865 0)
(-0.059287 -0.0820866 0)
(-0.187414 0.456868 0)
(-0.272286 0.441334 0)
(-0.305411 0.35871 0)
(-0.340591 0.248686 0)
(-0.428108 0.13441 0)
(-0.47812 -0.0441683 0)
(-0.386395 -0.193101 0)
(-0.307239 -0.24545 0)
(-0.276788 -0.254016 0)
(-0.236038 -0.218429 0)
(-0.170973 -0.115536 0)
(-0.100192 -0.0356711 0)
(-0.0650616 -0.028341 0)
(-0.041691 -0.0645808 0)
(-0.0204941 -0.0978379 0)
(-0.00784409 -0.0978899 0)
(0.00616908 -0.0715355 0)
(0.00419418 -0.0580888 0)
(-0.0151107 -0.0874446 0)
(-0.193117 0.555618 0)
(-0.249584 0.457925 0)
(-0.251966 0.365889 0)
(-0.267726 0.283685 0)
(-0.414527 0.182328 0)
(-0.402721 -0.0771432 0)
(-0.275281 -0.254322 0)
(-0.200817 -0.288201 0)
(-0.211782 -0.260439 0)
(-0.188055 -0.239751 0)
(-0.10053 -0.139322 0)
(-0.0177274 -0.0431772 0)
(0.00534829 -0.0333286 0)
(0.0154114 -0.0731871 0)
(0.0271756 -0.107582 0)
(0.0402154 -0.10297 0)
(0.101187 -0.0736615 0)
(0.121151 -0.0453668 0)
(0.0798941 -0.0721619 0)
(-0.0274784 0.150165 0)
(-0.0606785 0.151497 0)
(-0.0941485 0.151436 0)
(-0.126991 0.147796 0)
(-0.15839 0.140696 0)
(-0.188262 0.130489 0)
(-0.216541 0.117265 0)
(-0.243131 0.100581 0)
(-0.267608 0.0793289 0)
(-0.288578 0.0523233 0)
(-0.303599 0.0198866 0)
(-0.310645 -0.0150076 0)
(-0.309339 -0.0492321 0)
(-0.300095 -0.0831946 0)
(-0.280159 -0.117836 0)
(-0.244912 -0.144309 0)
(-0.197964 -0.149107 0)
(-0.156584 -0.131295 0)
(-0.14196 -0.114054 0)
(-0.147294 -0.114804 0)
(-0.153038 -0.117426 0)
(-0.144014 -0.117586 0)
(-0.112938 -0.108358 0)
(-0.0242373 0.189381 0)
(-0.05401 0.186942 0)
(-0.0851515 0.184474 0)
(-0.116221 0.17987 0)
(-0.146891 0.17217 0)
(-0.177066 0.161306 0)
(-0.206905 0.147408 0)
(-0.236875 0.130015 0)
(-0.267259 0.107356 0)
(-0.296708 0.0768828 0)
(-0.321699 0.0377832 0)
(-0.339599 -0.0067153 0)
(-0.350479 -0.0520567 0)
(-0.352704 -0.0955869 0)
(-0.340098 -0.137294 0)
(-0.303773 -0.17952 0)
(-0.240975 -0.201526 0)
(-0.173554 -0.162559 0)
(-0.151038 -0.110008 0)
(-0.175395 -0.0980571 0)
(-0.23625 -0.10391 0)
(-0.272468 -0.133944 0)
(-0.290955 -0.0934661 0)
(-0.0162816 0.220622 0)
(-0.0395503 0.218614 0)
(-0.067373 0.215468 0)
(-0.0962258 0.210918 0)
(-0.126399 0.203078 0)
(-0.157533 0.191694 0)
(-0.189796 0.17741 0)
(-0.224066 0.160368 0)
(-0.261549 0.13838 0)
(-0.301789 0.107174 0)
(-0.342893 0.064074 0)
(-0.384439 0.013472 0)
(-0.422275 -0.0343191 0)
(-0.449146 -0.0765481 0)
(-0.45418 -0.140223 0)
(-0.433978 -0.245917 0)
(-0.380408 -0.295569 0)
(-0.288575 -0.222689 0)
(-0.202057 -0.0831754 0)
(-0.195129 -0.0345791 0)
(-0.36137 -0.0494316 0)
(-0.384216 -0.10092 0)
(-0.412475 -0.0451514 0)
(-0.0049695 0.244114 0)
(-0.0161839 0.243918 0)
(-0.0405597 0.240427 0)
(-0.0666432 0.235372 0)
(-0.0959086 0.226653 0)
(-0.12791 0.214654 0)
(-0.162852 0.200841 0)
(-0.201661 0.186191 0)
(-0.245663 0.167895 0)
(-0.297331 0.139822 0)
(-0.366041 0.0987143 0)
(-0.46621 0.0612684 0)
(-0.57273 0.0276659 0)
(-0.667056 -0.0345168 0)
(-0.705301 -0.157691 0)
(-0.667368 -0.305631 0)
(-0.613025 -0.379893 0)
(-0.542704 -0.351759 0)
(-0.346864 -0.141083 0)
(-0.115844 0.0927824 0)
(-0.31954 0.0747077 0)
(-0.38004 -0.0413181 0)
(-0.405787 -0.0129034 0)
(0.00052983 0.250734 0)
(0.0138249 0.256159 0)
(-0.00934751 0.254038 0)
(-0.0332969 0.25176 0)
(-0.0625318 0.24502 0)
(-0.0962566 0.23377 0)
(-0.134796 0.219295 0)
(-0.177788 0.204035 0)
(-0.222385 0.186697 0)
(-0.27421 0.16464 0)
(-0.374577 0.142106 0)
(-0.676643 0.132125 0)
(-0.802683 0.0885371 0)
(-0.832724 -0.0140621 0)
(-0.842352 -0.16322 0)
(-0.82417 -0.327062 0)
(-0.795016 -0.438461 0)
(-0.769518 -0.478414 0)
(-0.694868 -0.410099 0)
(-0.265014 -0.0662767 0)
(-0.128097 0.146093 0)
(-0.311437 0.0122063 0)
(-0.338711 0.01663 0)
(-0.0411778 0.237789 0)
(0.0281033 0.255655 0)
(-0.0054178 0.261387 0)
(-0.029165 0.266621 0)
(-0.055977 0.272832 0)
(-0.0877754 0.287446 0)
(-0.129856 0.321038 0)
(-0.186475 0.353493 0)
(-0.260513 0.363312 0)
(-0.375673 0.425321 0)
(-0.538856 0.606656 0)
(-0.730401 0.615251 0)
(-0.794053 0.146576 0)
(-0.815408 -0.000600668 0)
(-0.843213 -0.185511 0)
(-0.871566 -0.344567 0)
(-0.883406 -0.455692 0)
(-0.874707 -0.521228 0)
(-0.850783 -0.52882 0)
(-0.750281 -0.433637 0)
(-0.324262 -0.0278153 0)
(-0.120505 0.132474 0)
(-0.274825 0.0225359 0)
(-0.0854044 0.229312 0)
(-0.0209877 0.24661 0)
(-0.0585739 0.347223 0)
(-0.0798404 0.366362 0)
(-0.114421 0.377084 0)
(-0.151989 0.378509 0)
(-0.189853 0.373041 0)
(-0.22965 0.368674 0)
(-0.284174 0.387609 0)
(-0.358279 0.468206 0)
(-0.428231 0.60795 0)
(-0.491266 0.624308 0)
(-0.559964 0.33113 0)
(-0.658624 0.0565867 0)
(-0.728962 -0.150796 0)
(-0.864334 -0.336363 0)
(-0.904139 -0.46207 0)
(-0.912636 -0.533658 0)
(-0.904792 -0.563559 0)
(-0.872723 -0.545752 0)
(-0.767008 -0.461202 0)
(-0.376025 -0.0903401 0)
(-0.101289 0.139126 0)
(-0.0347174 0.302712 0)
(-0.0534825 0.262841 0)
(-0.0929138 0.333371 0)
(-0.112041 0.356139 0)
(-0.137545 0.364965 0)
(-0.163511 0.36928 0)
(-0.189716 0.375613 0)
(-0.219728 0.392331 0)
(-0.260398 0.43329 0)
(-0.304651 0.511391 0)
(-0.325877 0.596288 0)
(-0.332105 0.574243 0)
(-0.389686 0.393336 0)
(-0.521094 0.217972 0)
(-0.676215 0.0987797 0)
(-0.775037 -0.149647 0)
(-0.86436 -0.444925 0)
(-0.900793 -0.531731 0)
(-0.900655 -0.574775 0)
(-0.88293 -0.580478 0)
(-0.840891 -0.550879 0)
(-0.742219 -0.46828 0)
(-0.452232 -0.246848 0)
(-0.00740939 0.338514 0)
(-0.0538468 0.311311 0)
(-0.0895749 0.348061 0)
(-0.104961 0.366841 0)
(-0.121184 0.377162 0)
(-0.137523 0.386129 0)
(-0.155974 0.40011 0)
(-0.178649 0.426212 0)
(-0.205881 0.473108 0)
(-0.229645 0.5429 0)
(-0.234311 0.60552 0)
(-0.22928 0.588864 0)
(-0.266827 0.464299 0)
(-0.363537 0.312066 0)
(-0.475657 0.161646 0)
(-0.591313 -0.02317 0)
(-0.724887 -0.265078 0)
(-0.842101 -0.514841 0)
(-0.861946 -0.576413 0)
(-0.856247 -0.59686 0)
(-0.828795 -0.582181 0)
(-0.781129 -0.534758 0)
(-0.707838 -0.439832 0)
(0.00382744 0.35713 0)
(-0.0346144 0.355051 0)
(-0.0614794 0.373479 0)
(-0.0742798 0.385609 0)
(-0.085682 0.394639 0)
(-0.0969358 0.404444 0)
(-0.109718 0.420073 0)
(-0.124253 0.447507 0)
(-0.138246 0.49198 0)
(-0.145403 0.551311 0)
(-0.138864 0.603278 0)
(-0.127297 0.603141 0)
(-0.142773 0.526035 0)
(-0.199178 0.402032 0)
(-0.275655 0.249285 0)
(-0.36678 0.0583143 0)
(-0.486481 -0.151238 0)
(-0.630078 -0.362969 0)
(-0.784234 -0.560264 0)
(-0.814001 -0.603716 0)
(-0.806078 -0.602481 0)
(-0.776153 -0.561547 0)
(-0.729042 -0.491932 0)
(0.00610114 0.367108 0)
(-0.0139333 0.381729 0)
(-0.0297308 0.390456 0)
(-0.0382684 0.397346 0)
(-0.0454318 0.404626 0)
(-0.0521267 0.414455 0)
(-0.0589999 0.430319 0)
(-0.06518 0.456395 0)
(-0.0677591 0.495418 0)
(-0.0620034 0.544108 0)
(-0.0448213 0.586876 0)
(-0.0230624 0.595952 0)
(-0.0164839 0.550506 0)
(-0.0382425 0.456479 0)
(-0.0834697 0.323609 0)
(-0.150735 0.155296 0)
(-0.24781 -0.0313029 0)
(-0.374381 -0.216321 0)
(-0.521527 -0.402231 0)
(-0.688384 -0.577933 0)
(-0.786293 -0.61234 0)
(-0.768558 -0.583699 0)
(-0.729873 -0.516949 0)
(0.00570787 0.366357 0)
(0.00129981 0.392618 0)
(-0.00381156 0.397652 0)
(-0.00604243 0.402222 0)
(-0.00774974 0.408614 0)
(-0.00896319 0.418167 0)
(-0.00943013 0.433127 0)
(-0.00771515 0.456096 0)
(-0.000963817 0.488374 0)
(0.014461 0.526884 0)
(0.0403184 0.560792 0)
(0.0719107 0.572072 0)
(0.0964865 0.544714 0)
(0.102033 0.475291 0)
(0.084534 0.367581 0)
(0.0417064 0.227743 0)
(-0.0301922 0.0697667 0)
(-0.131051 -0.0887859 0)
(-0.258671 -0.239981 0)
(-0.409622 -0.387106 0)
(-0.557736 -0.524945 0)
(-0.766838 -0.600995 0)
(-0.777033 -0.546627 0)
(0.00597761 0.359408 0)
(0.0113192 0.392074 0)
(0.0149771 0.396754 0)
(0.0194028 0.400929 0)
(0.0238458 0.406998 0)
(0.0286722 0.415896 0)
(0.0346787 0.429049 0)
(0.0435089 0.44797 0)
(0.0577082 0.473175 0)
(0.0801081 0.502145 0)
(0.112 0.527495 0)
(0.15042 0.537271 0)
(0.18699 0.519595 0)
(0.211655 0.468627 0)
(0.217122 0.38467 0)
(0.198508 0.272785 0)
(0.152913 0.143484 0)
(0.0812657 0.00971646 0)
(-0.0132759 -0.119078 0)
(-0.125229 -0.236924 0)
(-0.238339 -0.343076 0)
(-0.353151 -0.474181 0)
(-0.434359 -0.641311 0)
(0.00685619 0.349135 0)
(0.0175781 0.384091 0)
(0.0276617 0.38898 0)
(0.0379463 0.393387 0)
(0.0482064 0.399307 0)
(0.0588784 0.407377 0)
(0.0708842 0.418403 0)
(0.0857756 0.433167 0)
(0.105681 0.451717 0)
(0.132803 0.472134 0)
(0.168197 0.489457 0)
(0.210083 0.495791 0)
(0.25296 0.482683 0)
(0.289099 0.444581 0)
(0.311131 0.380218 0)
(0.313315 0.292598 0)
(0.292412 0.18875 0)
(0.248819 0.0774397 0)
(0.185761 -0.0342126 0)
(0.108654 -0.141495 0)
(0.0261492 -0.244371 0)
(-0.0610716 -0.355838 0)
(-0.151946 -0.461292 0)
(0.00762673 0.336131 0)
(0.021426 0.371161 0)
(0.035827 0.375955 0)
(0.0506046 0.380406 0)
(0.0656659 0.386052 0)
(0.0813359 0.393183 0)
(0.0983963 0.402112 0)
(0.118111 0.413101 0)
(0.142134 0.425918 0)
(0.172124 0.439112 0)
(0.208932 0.449371 0)
(0.251526 0.451542 0)
(0.296327 0.439861 0)
(0.337761 0.409937 0)
(0.369716 0.360071 0)
(0.386869 0.29165 0)
(0.385778 0.208869 0)
(0.365747 0.117253 0)
(0.328647 0.0215494 0)
(0.277757 -0.0752458 0)
(0.216812 -0.173142 0)
(0.14534 -0.274935 0)
(0.0609286 -0.370219 0)
(0.00809995 0.321326 0)
(0.0237518 0.355112 0)
(0.0408657 0.359346 0)
(0.058727 0.363404 0)
(0.07729 0.368455 0)
(0.09674 0.374486 0)
(0.117631 0.381443 0)
(0.140865 0.389216 0)
(0.167613 0.397391 0)
(0.19904 0.404839 0)
(0.23577 0.409335 0)
(0.277201 0.407549 0)
(0.32102 0.395677 0)
(0.363377 0.370558 0)
(0.399676 0.330627 0)
(0.425568 0.276336 0)
(0.437849 0.209998 0)
(0.435087 0.134932 0)
(0.417586 0.0542431 0)
(0.38668 -0.0299771 0)
(0.343692 -0.116777 0)
(0.287891 -0.205413 0)
(0.217738 -0.288837 0)
(0.00835363 0.305615 0)
(0.0250816 0.337226 0)
(0.0437825 0.340508 0)
(0.0635367 0.34376 0)
(0.0843406 0.347871 0)
(0.106285 0.352625 0)
(0.129721 0.35773 0)
(0.155218 0.36283 0)
(0.183511 0.367394 0)
(0.215331 0.3705 0)
(0.251064 0.370622 0)
(0.290313 0.365605 0)
(0.331569 0.352994 0)
(0.372226 0.330644 0)
(0.409006 0.297326 0)
(0.438597 0.253063 0)
(0.458289 0.199079 0)
(0.466398 0.137339 0)
(0.462291 0.0698942 0)
(0.44606 -0.00153597 0)
(0.417835 -0.0755355 0)
(0.376845 -0.150343 0)
(0.322302 -0.221191 0)
(0.00848363 0.289417 0)
(0.0257513 0.318323 0)
(0.0452572 0.320414 0)
(0.0659896 0.322588 0)
(0.0879815 0.325516 0)
(0.111273 0.328865 0)
(0.13608 0.33222 0)
(0.162719 0.335097 0)
(0.191585 0.336904 0)
(0.223056 0.336853 0)
(0.257294 0.333853 0)
(0.293973 0.326491 0)
(0.332063 0.3132 0)
(0.3698 0.292581 0)
(0.404897 0.26376 0)
(0.434928 0.226625 0)
(0.457732 0.18183 0)
(0.471702 0.130576 0)
(0.475842 0.0742796 0)
(0.469602 0.014379 0)
(0.45257 -0.0476356 0)
(0.42407 -0.109792 0)
(0.383547 -0.168719 0)
(0.00854189 0.272979 0)
(0.0259759 0.298965 0)
(0.0457405 0.299771 0)
(0.0667823 0.300744 0)
(0.0891587 0.302376 0)
(0.112885 0.304274 0)
(0.138094 0.305984 0)
(0.164947 0.306985 0)
(0.193603 0.306679 0)
(0.224189 0.304377 0)
(0.256679 0.299258 0)
(0.290754 0.290368 0)
(0.325657 0.276701 0)
(0.360163 0.257368 0)
(0.392674 0.231798 0)
(0.421438 0.199881 0)
(0.444793 0.162003 0)
(0.461359 0.118951 0)
(0.470094 0.0717617 0)
(0.470234 0.0216401 0)
(0.461181 -0.0299895 0)
(0.44235 -0.081271 0)
(0.413299 -0.129644 0)
(0.00854906 0.256517 0)
(0.025887 0.279558 0)
(0.0455284 0.27909 0)
(0.0664053 0.278855 0)
(0.0885889 0.27919 0)
(0.112077 0.279675 0)
(0.136961 0.279864 0)
(0.163311 0.279258 0)
(0.191153 0.277301 0)
(0.22045 0.273391 0)
(0.251054 0.266882 0)
(0.282627 0.257102 0)
(0.314569 0.243391 0)
(0.345985 0.225192 0)
(0.375736 0.202156 0)
(0.402552 0.174228 0)
(0.425177 0.141683 0)
(0.442485 0.105093 0)
(0.45354 0.0652671 0)
(0.457584 0.0232321 0)
(0.454011 -0.0197235 0)
(0.44232 -0.0619473 0)
(0.422165 -0.101374 0)
(0.00851549 0.240185 0)
(0.025567 0.260384 0)
(0.0448188 0.258732 0)
(0.0652017 0.257362 0)
(0.0867944 0.25648 0)
(0.109582 0.255653 0)
(0.13363 0.25447 0)
(0.158967 0.252484 0)
(0.185551 0.249206 0)
(0.213263 0.244121 0)
(0.241887 0.236713 0)
(0.271077 0.226485 0)
(0.300323 0.212989 0)
(0.328938 0.195873 0)
(0.356077 0.174942 0)
(0.380804 0.150201 0)
(0.402168 0.121884 0)
(0.419279 0.0904526 0)
(0.431351 0.0565817 0)
(0.43772 0.0211605 0)
(0.437851 -0.0146681 0)
(0.431332 -0.0494598 0)
(0.417904 -0.0814941 0)
(0.00844499 0.224092 0)
(0.0250684 0.241638 0)
(0.0437448 0.238942 0)
(0.0634103 0.236563 0)
(0.0841484 0.234593 0)
(0.105934 0.232602 0)
(0.128817 0.230216 0)
(0.152807 0.227052 0)
(0.177839 0.222699 0)
(0.203762 0.216733 0)
(0.230339 0.208738 0)
(0.257236 0.198336 0)
(0.284007 0.185211 0)
(0.310098 0.16914 0)
(0.334858 0.150024 0)
(0.357576 0.127913 0)
(0.377524 0.103033 0)
(0.394003 0.0757843 0)
(0.406379 0.0467557 0)
(0.414103 0.0167314 0)
(0.416734 -0.0132782 0)
(0.413946 -0.0420165 0)
(0.405558 -0.0680265 0)
(0.00833402 0.208333 0)
(0.0244219 0.223454 0)
(0.0423955 0.219888 0)
(0.0611961 0.216652 0)
(0.0809132 0.213751 0)
(0.101514 0.210762 0)
(0.123039 0.207353 0)
(0.145489 0.203201 0)
(0.168796 0.197974 0)
(0.192812 0.191331 0)
(0.217309 0.182943 0)
(0.24198 0.172522 0)
(0.266437 0.159839 0)
(0.290221 0.14475 0)
(0.312814 0.127217 0)
(0.333658 0.107321 0)
(0.352186 0.0852824 0)
(0.367849 0.0614679 0)
(0.38014 0.0364036 0)
(0.38862 0.0107904 0)
(0.392941 -0.0144764 0)
(0.392851 -0.038301 0)
(0.388236 -0.0594384 0)
(0.00817538 0.192993 0)
(0.0236447 0.205932 0)
(0.0408289 0.201682 0)
(0.0586716 0.197751 0)
(0.0772702 0.194081 0)
(0.0965881 0.190268 0)
(0.116657 0.186014 0)
(0.137477 0.181054 0)
(0.158985 0.175124 0)
(0.18105 0.167959 0)
(0.203471 0.159304 0)
(0.225978 0.148943 0)
(0.248241 0.136712 0)
(0.269878 0.122518 0)
(0.290466 0.106361 0)
(0.30956 0.0883416 0)
(0.326708 0.068674 0)
(0.341475 0.0476995 0)
(0.353459 0.0258968 0)
(0.362312 0.00389691 0)
(0.367764 -0.0175036 0)
(0.369629 -0.0373451 0)
(0.367843 -0.0545572 0)
(0.00796327 0.178156 0)
(0.0227471 0.189147 0)
(0.0390831 0.184395 0)
(0.0559131 0.179929 0)
(0.0733436 0.175652 0)
(0.0913368 0.17118 0)
(0.109919 0.166252 0)
(0.129089 0.160651 0)
(0.148794 0.15417 0)
(0.168924 0.146607 0)
(0.18931 0.137775 0)
(0.209726 0.127513 0)
(0.229897 0.115708 0)
(0.249508 0.102307 0)
(0.268212 0.0873334 0)
(0.28565 0.0708982 0)
(0.301459 0.0532111 0)
(0.315291 0.0345905 0)
(0.326827 0.0154755 0)
(0.335791 -0.00356183 0)
(0.341976 -0.0218107 0)
(0.345247 -0.0384261 0)
(0.345578 -0.0524839 0)
(0.00769613 0.163904 0)
(0.0217384 0.17316 0)
(0.0371846 0.168073 0)
(0.0529733 0.163222 0)
(0.0692181 0.158486 0)
(0.0858822 0.15351 0)
(0.102988 0.148064 0)
(0.120535 0.141973 0)
(0.138479 0.135076 0)
(0.156732 0.127225 0)
(0.175157 0.118283 0)
(0.19357 0.10814 0)
(0.21175 0.0967219 0)
(0.229438 0.0840065 0)
(0.246356 0.0700363 0)
(0.262212 0.0549291 0)
(0.276716 0.0388882 0)
(0.289588 0.0222127 0)
(0.300573 0.00530768 0)
(0.309455 -0.0113063 0)
(0.316075 -0.0269907 0)
(0.320335 -0.0409983 0)
(0.322238 -0.0525271 0)
(0.0073774 0.150312 0)
(0.0206296 0.15802 0)
(0.0351555 0.152747 0)
(0.0498903 0.147644 0)
(0.0649519 0.142582 0)
(0.0803056 0.137239 0)
(0.0959708 0.131417 0)
(0.111948 0.12497 0)
(0.128202 0.117777 0)
(0.144663 0.109731 0)
(0.161223 0.100737 0)
(0.177739 0.0907234 0)
(0.194032 0.0796499 0)
(0.2099 0.0675194 0)
(0.225121 0.0543897 0)
(0.239461 0.0403838 0)
(0.252689 0.0256995 0)
(0.264582 0.0106193 0)
(0.274939 -0.00448078 0)
(0.283589 -0.0191243 0)
(0.290411 -0.032733 0)
(0.295337 -0.0446414 0)
(0.298382 -0.0541498 0)
(0.00701443 0.137445 0)
(0.019435 0.143771 0)
(0.0330168 0.138434 0)
(0.0466945 0.133194 0)
(0.0605867 0.127923 0)
(0.0746612 0.122334 0)
(0.0889355 0.116255 0)
(0.103411 0.10957 0)
(0.11806 0.102185 0)
(0.132829 0.0940246 0)
(0.147636 0.0850278 0)
(0.162368 0.0751528 0)
(0.176891 0.0643861 0)
(0.191044 0.0527511 0)
(0.204657 0.0403187 0)
(0.217546 0.0272163 0)
(0.22953 0.0136377 0)
(0.240434 -0.000148356 0)
(0.250101 -0.0137903 0)
(0.258401 -0.0268472 0)
(0.265242 -0.0387911 0)
(0.270573 -0.0490239 0)
(0.274423 -0.0569296 0)
(0.00661628 0.125357 0)
(0.0181711 0.13045 0)
(0.0307897 0.125145 0)
(0.0434119 0.119863 0)
(0.0561538 0.114482 0)
(0.0689862 0.108748 0)
(0.0819248 0.102517 0)
(0.0949721 0.0956911 0)
(0.108108 0.0882016 0)
(0.121292 0.0799963 0)
(0.134463 0.0710384 0)
(0.147535 0.06131 0)
(0.160406 0.0508182 0)
(0.172956 0.0396031 0)
(0.185054 0.0277459 0)
(0.196561 0.0153781 0)
(0.207339 0.00269036 0)
(0.217254 -0.01006 0)
(0.226188 -0.0225401 0)
(0.234042 -0.0343376 0)
(0.24075 -0.0449652 0)
(0.246278 -0.053879 0)
(0.250661 -0.0605299 0)
(0.00619133 0.114089 0)
(0.0168545 0.118085 0)
(0.0284945 0.112887 0)
(0.0400652 0.10764 0)
(0.051678 0.102228 0)
(0.0633067 0.0964354 0)
(0.0749663 0.090135 0)
(0.0866608 0.0832491 0)
(0.0983766 0.075726 0)
(0.110084 0.0675312 0)
(0.121737 0.0586463 0)
(0.133273 0.0490712 0)
(0.144616 0.0388287 0)
(0.155677 0.0279713 0)
(0.166358 0.0165881 0)
(0.176557 0.00481367 0)
(0.186173 -0.00716453 0)
(0.195108 -0.0190974 0)
(0.203277 -0.0306666 0)
(0.21061 -0.0414828 0)
(0.217062 -0.0510908 0)
(0.222614 -0.0589888 0)
(0.227306 -0.0646794 0)
(0.00574562 0.10367 0)
(0.015499 0.106698 0)
(0.0261486 0.101664 0)
(0.0366732 0.0965098 0)
(0.0471785 0.0911327 0)
(0.0576422 0.0853459 0)
(0.0680791 0.0790426 0)
(0.0784953 0.072159 0)
(0.0888825 0.0646565 0)
(0.0992196 0.0565145 0)
(0.109473 0.0477284 0)
(0.119597 0.0383112 0)
(0.129534 0.0282975 0)
(0.139219 0.017748 0)
(0.148583 0.00675715 0)
(0.157552 -0.00453945 0)
(0.166055 -0.0159573 0)
(0.174027 -0.0272532 0)
(0.181409 -0.0381217 0)
(0.188159 -0.0481912 0)
(0.194252 -0.0570313 0)
(0.199682 -0.0641723 0)
(0.204495 -0.0691551 0)
(0.00528199 0.0941222 0)
(0.0141139 0.0963067 0)
(0.023765 0.0914758 0)
(0.0332506 0.0864588 0)
(0.0426713 0.0811637 0)
(0.0520091 0.0754323 0)
(0.0612796 0.0691743 0)
(0.0704909 0.0623376 0)
(0.0796393 0.0548942 0)
(0.0887104 0.0468342 0)
(0.0976793 0.0381639 0)
(0.106511 0.0289069 0)
(0.115162 0.0191055 0)
(0.123584 0.00882539 0)
(0.131728 -0.00183692 0)
(0.139544 -0.012747 0)
(0.146987 -0.0237229 0)
(0.154016 -0.0345289 0)
(0.160599 -0.0448692 0)
(0.166714 -0.054387 0)
(0.172358 -0.0626708 0)
(0.17754 -0.0692756 0)
(0.182311 -0.0737691 0)
(0.00479991 0.0854644 0)
(0.0127036 0.0869214 0)
(0.0213524 0.0823214 0)
(0.0298095 0.0774705 0)
(0.0381717 0.0722895 0)
(0.0464252 0.0666463 0)
(0.0545865 0.0604652 0)
(0.062666 0.0537038 0)
(0.0706637 0.0463427 0)
(0.0785702 0.0383812 0)
(0.0863659 0.029836 0)
(0.0940215 0.0207391 0)
(0.101501 0.0111377 0)
(0.108767 0.00109906 0)
(0.115785 -0.00928199 0)
(0.122524 -0.0198739 0)
(0.128957 -0.0304999 0)
(0.135066 -0.0409311 0)
(0.140841 -0.0508813 0)
(0.14628 -0.0600058 0)
(0.151397 -0.0679088 0)
(0.156218 -0.074164 0)
(0.160803 -0.0783575 0)
(0.0042963 0.0777143 0)
(0.0112695 0.0785496 0)
(0.0189186 0.0741937 0)
(0.0263645 0.0695238 0)
(0.0337003 0.0644743 0)
(0.0409156 0.0589374 0)
(0.0480274 0.0528498 0)
(0.055048 0.0461772 0)
(0.0619808 0.0389078 0)
(0.0688207 0.0310503 0)
(0.0755506 0.0226323 0)
(0.082141 0.013694 0)
(0.088557 0.00428544 0)
(0.0947662 -0.00552924 0)
(0.100744 -0.0156606 0)
(0.106474 -0.025983 0)
(0.111947 -0.0363265 0)
(0.117162 -0.04647 0)
(0.122124 -0.0561363 0)
(0.126852 -0.0649922 0)
(0.131376 -0.0726559 0)
(0.135736 -0.0787164 0)
(0.140003 -0.0827727 0)
(0.00376666 0.0708927 0)
(0.00981413 0.0711927 0)
(0.0164769 0.0670779 0)
(0.0229404 0.062589 0)
(0.0292917 0.0576751 0)
(0.0355213 0.0522502 0)
(0.0416456 0.046261 0)
(0.0476788 0.0396788 0)
(0.0536291 0.0324985 0)
(0.0594955 0.0247401 0)
(0.0652607 0.0164455 0)
(0.0708888 0.0076656 0)
(0.0763383 -0.00155086 0)
(0.081578 -0.0111484 0)
(0.0865919 -0.0210475 0)
(0.0913758 -0.0311319 0)
(0.0959345 -0.0412397 0)
(0.10028 -0.0511578 0)
(0.104434 -0.0606186 0)
(0.108426 -0.0693001 0)
(0.1123 -0.076834 0)
(0.116111 -0.0828238 0)
(0.119943 -0.0868788 0)
(0.00321075 0.0650187 0)
(0.00834977 0.0648425 0)
(0.0140569 0.0609456 0)
(0.019583 0.0566237 0)
(0.0250038 0.0518398 0)
(0.0303067 0.0465248 0)
(0.0355066 0.0406313 0)
(0.0406203 0.0341328 0)
(0.0456629 0.0270296 0)
(0.0506406 0.0193558 0)
(0.0555333 0.0111769 0)
(0.0602897 0.00255869 0)
(0.064854 -0.0064574 0)
(0.0691947 -0.0158338 0)
(0.073306 -0.0255071 0)
(0.0771972 -0.0353723 0)
(0.0808852 -0.0452757 0)
(0.0843928 -0.0550118 0)
(0.0877493 -0.0643217 0)
(0.0909938 -0.0728953 0)
(0.0941789 -0.0803782 0)
(0.0973716 -0.0863896 0)
(0.100664 -0.0905495 0)
(0.00263747 0.060099 0)
(0.00690739 0.0594711 0)
(0.0117151 0.0557477 0)
(0.016369 0.051569 0)
(0.020926 0.0469058 0)
(0.025367 0.0416978 0)
(0.0297039 0.0358963 0)
(0.0339576 0.0294717 0)
(0.0381541 0.0224267 0)
(0.0423136 0.0148138 0)
(0.0464117 0.00674074 0)
(0.0503672 -0.00170339 0)
(0.0541019 -0.0104993 0)
(0.0575892 -0.0196422 0)
(0.0608417 -0.0290905 0)
(0.0638849 -0.03875 0)
(0.0667463 -0.0484724 0)
(0.0694541 -0.0580571 0)
(0.0720405 -0.0672529 0)
(0.0745463 -0.0757611 0)
(0.0770268 -0.0832431 0)
(0.0795541 -0.0893353 0)
(0.0822262 -0.0936723 0)
(0.00206446 0.0561122 0)
(0.00554655 0.0550187 0)
(0.00954354 0.0514087 0)
(0.013412 0.0473492 0)
(0.0171838 0.0428032 0)
(0.0208314 0.0377062 0)
(0.0243625 0.0319998 0)
(0.0278019 0.025643 0)
(0.0311916 0.0186327 0)
(0.03458 0.0110451 0)
(0.0379368 0.00307075 0)
(0.0411273 -0.00516791 0)
(0.0440471 -0.01371 0)
(0.0466938 -0.0226047 0)
(0.0491127 -0.0318343 0)
(0.0513488 -0.0413075 0)
(0.0534348 -0.0508741 0)
(0.0553969 -0.0603336 0)
(0.0572619 -0.06944 0)
(0.0590649 -0.0779063 0)
(0.0608564 -0.0854108 0)
(0.0627058 -0.0916102 0)
(0.0647096 -0.0961576 0)
(0.00152359 0.0529859 0)
(0.00436913 0.0513854 0)
(0.00767791 0.0478323 0)
(0.0108656 0.0438821 0)
(0.013939 0.0394641 0)
(0.0168634 0.0344958 0)
(0.0196396 0.0289016 0)
(0.02229 0.0226171 0)
(0.0248756 0.0156144 0)
(0.0275038 0.00799241 0)
(0.0301266 0.000123046 0)
(0.0325239 -0.00783917 0)
(0.0345814 -0.0160823 0)
(0.0363656 -0.0247281 0)
(0.0379691 -0.0337676 0)
(0.0394488 -0.0430939 0)
(0.0408301 -0.0525415 0)
(0.0421252 -0.0619042 0)
(0.0433467 -0.07094 0)
(0.0445168 -0.0793738 0)
(0.0456744 -0.0869025 0)
(0.0468786 -0.0932051 0)
(0.0482159 -0.0979567 0)
(0.00110948 0.0505805 0)
(0.00355522 0.0484282 0)
(0.00630988 0.0449039 0)
(0.00891923 0.0410769 0)
(0.011378 0.0368134 0)
(0.0136493 0.0320089 0)
(0.0157163 0.0265705 0)
(0.0175763 0.0203988 0)
(0.019302 0.013401 0)