/*--------------------------------*- C++ -*----------------------------------*\
  =========                 |
  \\      /  F ield         | OpenFOAM: The Open Source CFD Toolbox
   \\    /   O peration     | Website:  https://openfoam.org
    \\  /    A nd           | Version:  9
     \\/     M anipulation  |
\*---------------------------------------------------------------------------*/
FoamFile
{
    format      ascii;
    class       volScalarField;
    location    "8.52";
    object      k;
}
// * * * * * * * * * * * * * * * * * * * * * * * * * * * * * * * * * * * * * //

dimensions      [0 2 -2 0 0 0 0];

internalField   nonuniform List<scalar> 
2268
(
0.000102572
0.000262639
0.00038712
0.000484579
0.000564562
0.00063151
0.000687911
0.000735386
0.000775129
0.000808881
0.00083877
0.000865376
0.000888553
0.000905224
0.000908488
0.000887134
0.000831958
0.000760804
0.000675239
0.000588636
0.000500184
0.000368025
0.000177953
0.000224876
0.00060663
0.000862452
0.00106542
0.00123283
0.00137329
0.00149197
0.00159235
0.00167703
0.00174847
0.00181001
0.00186331
0.00190771
0.00193821
0.00194416
0.00190996
0.00182331
0.0016913
0.00152428
0.00134428
0.00115509
0.000852474
0.000395648
0.000321998
0.000811686
0.00112653
0.00137651
0.00158339
0.00175716
0.00190392
0.002028
0.00213282
0.00222149
0.00229728
0.00236206
0.00241466
0.00244954
0.00245586
0.00241898
0.00232848
0.00219043
0.00201538
0.00181297
0.00157048
0.00119242
0.000558742
0.000405134
0.00097643
0.00133058
0.00161037
0.00184228
0.00203725
0.00220191
0.00234114
0.00245889
0.0025587
0.0026436
0.00271564
0.00277334
0.00281116
0.00281901
0.00278419
0.00269805
0.00256535
0.0023965
0.00219279
0.00192966
0.00151443
0.000723904
0.000478007
0.00112232
0.00150886
0.00181152
0.00206214
0.00227276
0.00245056
0.00260086
0.00272806
0.002836
0.00292767
0.00300512
0.00306683
0.0031075
0.00311821
0.00308841
0.00301093
0.0028888
0.00273237
0.00253844
0.00227595
0.00184877
0.000908803
0.000544021
0.00125688
0.00167304
0.00199531
0.00226123
0.00248427
0.0026723
0.00283112
0.00296558
0.00307978
0.00317678
0.00325861
0.00332389
0.00336774
0.0033825
0.00335982
0.0032942
0.0031865
0.00304647
0.00286946
0.00262481
0.00221223
0.00114718
0.000605616
0.00138407
0.0018287
0.00216888
0.00244797
0.00268123
0.00287739
0.00304289
0.003183
0.00330213
0.00340349
0.00348908
0.00355782
0.0036053
0.00362514
0.00361105
0.00355964
0.00347008
0.00334938
0.00319402
0.00298134
0.00261242
0.00151431
0.000664478
0.00150668
0.00197919
0.00233621
0.00262694
0.00286866
0.00307127
0.00324192
0.00338642
0.00350949
0.00361456
0.00370355
0.00377587
0.00382755
0.00385335
0.00384885
0.00381288
0.00374458
0.00364566
0.00351452
0.00333981
0.00304616
0.00216902
0.000242614
0.000544206
0.000747104
0.00083433
0.000876588
0.000896667
0.000896323
0.000887245
0.00085349
0.00079744
0.000721798
0.000626404
0.000551553
0.000533902
0.000506757
0.000447316
0.000342142
0.000232614
0.000104801
0.000448795
0.00113491
0.0015348
0.00172427
0.00182026
0.00186647
0.00187684
0.00185502
0.00179014
0.00168811
0.00154548
0.00137122
0.00124758
0.00120458
0.00112935
0.000992534
0.000771816
0.000510073
0.000220553
0.000535676
0.00143889
0.00192045
0.00216541
0.00229128
0.00235137
0.00236662
0.00234023
0.00226508
0.00214956
0.00199614
0.00181469
0.00166922
0.00158232
0.00147
0.00129789
0.00103223
0.000698054
0.00032119
0.000626999
0.00167089
0.00221349
0.00249036
0.00263155
0.00269783
0.00271425
0.00268482
0.0026052
0.00248469
0.00232989
0.00215152
0.00199469
0.00187372
0.00173179
0.00153841
0.00125225
0.000881372
0.00041655
0.000754406
0.00191085
0.00248842
0.00277518
0.00291965
0.0029861
0.00300101
0.00296905
0.00288738
0.00276559
0.00261286
0.00243943
0.00227493
0.00212812
0.00196132
0.00175046
0.00145538
0.0010674
0.000508456
0.000958556
0.00220382
0.00277109
0.00304482
0.00318196
0.00324363
0.00325499
0.00322068
0.00313844
0.00301742
0.00286833
0.00269956
0.00252908
0.00236222
0.00217488
0.00194763
0.00164339
0.00125017
0.00060162
0.00134236
0.00256656
0.00306735
0.00330804
0.00342953
0.00348266
0.0034889
0.00345228
0.00337064
0.00325179
0.00310696
0.002942
0.00276648
0.00258351
0.0023793
0.00213661
0.00181866
0.00141708
0.000707477
0.00203903
0.0029855
0.00337109
0.0035665
0.00366719
0.00370931
0.00370936
0.00367038
0.00359025
0.00347498
0.00333451
0.00317222
0.00299228
0.00279604
0.00257734
0.00231896
0.00198539
0.00156934
0.000806849
0.000753859
0.0016948
0.00221013
0.00259207
0.00289884
0.00315129
0.00336156
0.00353822
0.00368793
0.00381593
0.00392594
0.00401972
0.00409737
0.00415566
0.00419118
0.00420236
0.00419151
0.00415972
0.00409903
0.00400658
0.00387816
0.00368202
0.00331698
0.000863763
0.00194105
0.0025128
0.00292638
0.00325028
0.00351099
0.00372613
0.00390678
0.00406075
0.004194
0.00431096
0.00441375
0.00450227
0.00457382
0.00462601
0.00465912
0.00467699
0.00468285
0.00466796
0.00461978
0.00453403
0.00441923
0.00428228
0.00101479
0.00221273
0.00282691
0.00327022
0.00360354
0.0038607
0.00407227
0.00425133
0.0044061
0.00454304
0.00466771
0.00478283
0.00488699
0.0049763
0.0050473
0.00510049
0.0051406
0.00517191
0.00518539
0.00516892
0.00511568
0.00504622
0.00498831
0.00139489
0.00256692
0.00316761
0.00364789
0.003976
0.00421134
0.00441006
0.00457874
0.00472829
0.0048654
0.00499738
0.0051276
0.00525123
0.00536236
0.00545347
0.00552396
0.00557986
0.00562711
0.00565392
0.00566131
0.00563267
0.00558617
0.00556044
0.00150539
0.00273936
0.00350643
0.00394885
0.00420878
0.00444599
0.00466858
0.00485065
0.00500735
0.0051529
0.00529699
0.00544435
0.00558453
0.00570761
0.00579419
0.00584576
0.00589347
0.00595366
0.00601163
0.00604519
0.00603802
0.00602934
0.0060382
0.00156566
0.00264772
0.00361605
0.00402324
0.00431527
0.00461807
0.00486864
0.00505882
0.00522441
0.00537886
0.00553205
0.00569241
0.00585732
0.00599186
0.00606563
0.00611347
0.00618426
0.00626504
0.00633291
0.0063998
0.00641604
0.00639873
0.00640619
0.00207669
0.00287118
0.00357118
0.0040212
0.00437957
0.00470028
0.00497009
0.0051883
0.00538037
0.00555806
0.00572775
0.0058958
0.00605883
0.00618967
0.00627543
0.0063417
0.00641229
0.00648993
0.00655892
0.00662108
0.00666504
0.00668549
0.00670552
0.0023542
0.00300869
0.00359711
0.00406226
0.00443864
0.00476017
0.00504184
0.00528764
0.00550678
0.005708
0.00589705
0.00607756
0.00624451
0.00637938
0.00647904
0.00655739
0.00663096
0.00670588
0.00677871
0.00684361
0.00689807
0.00693295
0.00694819
0.00240025
0.00307366
0.00364152
0.00410586
0.00449401
0.00482818
0.00512357
0.00538746
0.00562604
0.00584631
0.00605409
0.00625209
0.00643318
0.00657775
0.00668383
0.00676806
0.00684454
0.00691839
0.00699031
0.00705781
0.00711732
0.00715975
0.00717929
0.00240517
0.00310007
0.00367478
0.00414547
0.00454648
0.004896
0.00520706
0.00548757
0.0057434
0.00598051
0.00620429
0.00641611
0.00660727
0.00676118
0.00687775
0.00697263
0.00705667
0.00713398
0.00720684
0.00727537
0.00733679
0.00738483
0.00741443
0.00240094
0.00311493
0.00370279
0.00418479
0.0045987
0.004963
0.00528943
0.00558565
0.00585719
0.00610922
0.00634577
0.00656679
0.00676536
0.00693056
0.00706234
0.00717224
0.00726859
0.00735448
0.00743241
0.00750418
0.00756865
0.00762256
0.00766289
0.00240612
0.00312892
0.00373247
0.00422709
0.00465326
0.00503101
0.00537149
0.00568191
0.00596764
0.00623296
0.00648031
0.00670945
0.00691623
0.00709462
0.00724421
0.00737159
0.00748297
0.00758121
0.00766856
0.00774755
0.00781855
0.00788007
0.00793037
0.00240336
0.00314689
0.00376638
0.00427344
0.00471153
0.00510173
0.0054551
0.00577856
0.00607735
0.00635484
0.00661268
0.00685118
0.00706801
0.00726072
0.00742888
0.00757505
0.00770331
0.00781649
0.00791674
0.00800681
0.00808781
0.00815906
0.00821917
0.00240257
0.0031685
0.00380428
0.0043243
0.00477436
0.00517651
0.00554213
0.00587803
0.0061893
0.00647858
0.00674766
0.00699721
0.00722641
0.00743412
0.00762044
0.00778598
0.00793275
0.00806303
0.00817906
0.00828337
0.00837721
0.00846017
0.00853095
0.00240723
0.00319286
0.00384672
0.00438031
0.00484251
0.00525651
0.00563415
0.00598237
0.00630599
0.00660748
0.00688895
0.00715136
0.00739469
0.00761857
0.00782285
0.00800792
0.00817445
0.00832388
0.00845822
0.00857955
0.00868883
0.00878575
0.00886892
0.0024098
0.00322112
0.00389427
0.00444206
0.00491674
0.00534271
0.00573245
0.00609314
0.00642947
0.0067441
0.0070393
0.00731626
0.00757537
0.0078166
0.00803985
0.00824499
0.00843239
0.0086029
0.00875793
0.00889891
0.00902639
0.00913989
0.00923797
0.00240769
0.00325355
0.00394741
0.00451007
0.00499766
0.00543591
0.00583805
0.00621166
0.00656153
0.00689051
0.00720092
0.00749411
0.00777069
0.00803082
0.00827438
0.00850118
0.00871119
0.00890479
0.00908282
0.00924609
0.00939467
0.00952777
0.00964379
0.0024058
0.00329
0.00400636
0.00458469
0.0050857
0.00553677
0.00595192
0.00633922
0.00670376
0.00704847
0.00737573
0.00768699
0.00798298
0.00826394
0.00852977
0.00878022
0.00901504
0.00923421
0.00943795
0.0096264
0.00979923
0.00995526
0.0100927
0.00240911
0.00333018
0.00407125
0.00466607
0.0051812
0.00564584
0.00607493
0.00647704
0.00685758
0.00721963
0.0075656
0.007897
0.00821465
0.00851884
0.00880945
0.00908616
0.00934852
0.00959615
0.00982869
0.0100457
0.0102463
0.010429
0.0105917
0.00240035
0.00337606
0.00414199
0.0047542
0.00528435
0.00576363
0.00620787
0.00662616
0.00702427
0.00740552
0.00777234
0.0081263
0.00846825
0.00879851
0.00911695
0.0094231
0.00971635
0.00999591
0.0102609
0.0105103
0.0107428
0.0109564
0.0111486
0.00239978
0.00342382
0.00421824
0.00484901
0.00539534
0.00589052
0.00635136
0.00678752
0.00720503
0.00760766
0.00799779
0.00837708
0.00874641
0.00910611
0.00945597
0.00979541
0.0101235
0.0104392
0.0107411
0.0110275
0.0112965
0.0115459
0.0117725
0.00240895
0.00347685
0.00429986
0.00495044
0.00551429
0.00602685
0.00650599
0.00696192
0.00740103
0.00782748
0.00824376
0.00865158
0.00905187
0.00944493
0.00983047
0.0102077
0.0105756
0.0109324
0.0112764
0.0116052
0.0119164
0.0122069
0.0124735
0.00240062
0.00353289
0.00438664
0.00505847
0.00564128
0.00617287
0.0066722
0.00715009
0.00761333
0.00806636
0.00851205
0.00895208
0.00938746
0.00981846
0.0102447
0.0106652
0.0110784
0.0114824
0.0118747
0.0122524
0.0126121
0.0129504
0.0132632
0.00240554
0.00359327
0.00447854
0.00517299
0.00577631
0.00632874
0.00685034
0.00735264
0.00784285
0.00832572
0.00880441
0.0092809
0.00975613
0.0102304
0.0107031
0.0111732
0.0116386
0.0120969
0.0125449
0.012979
0.0133949
0.0137885
0.0141548
0.00240708
0.00365594
0.00457525
0.00529375
0.00591923
0.00649443
0.00704063
0.00757004
0.00809038
0.00860677
0.00912269
0.00964033
0.0101609
0.0106846
0.0112107
0.0117378
0.0122634
0.0127845
0.013297
0.0137963
0.0142774
0.0147349
0.015163
0.00240438
0.00372106
0.00467632
0.00542033
0.00606969
0.00666978
0.00724307
0.00780255
0.00835651
0.00891053
0.00946846
0.0100328
0.0106049
0.011185
0.0117725
0.0123653
0.0129607
0.0135545
0.0141419
0.0147171
0.0152738
0.0158054
0.0163048
0.00240599
0.00379161
0.00478125
0.00555207
0.00622717
0.00685438
0.00745745
0.00805022
0.00864161
0.00923777
0.00984302
0.0104602
0.0110911
0.0117359
0.0123938
0.0130626
0.0137388
0.0144173
0.0150919
0.0157555
0.0164002
0.0170176
0.0175994
0.00240671
0.00386288
0.00488901
0.00568818
0.00639091
0.00704759
0.00768329
0.00831276
0.0089457
0.00958893
0.0102474
0.0109244
0.0116221
0.012341
0.0130801
0.0138369
0.0146069
0.0153841
0.0161606
0.0169274
0.0176746
0.0183918
0.0190686
0.00240533
0.00393386
0.00499872
0.00582765
0.00655991
0.00724844
0.00791972
0.0085895
0.00926835
0.00996392
0.0106819
0.0114264
0.0122001
0.0130037
0.0138364
0.0146951
0.0155746
0.0164671
0.017363
0.0182508
0.0191178
0.019951
0.0207376
0.00240816
0.00400804
0.00510919
0.00596914
0.00673277
0.00745558
0.00816545
0.00887924
0.00960854
0.010362
0.0111464
0.0119667
0.0128263
0.0137267
0.0146671
0.015644
0.0166511
0.017679
0.0187153
0.0197454
0.0207531
0.0217218
0.0226354
0.00240826
0.00408025
0.00521891
0.00611088
0.00690766
0.00766715
0.00841865
0.00918019
0.00996455
0.0107816
0.0116395
0.0125444
0.0135009
0.0145114
0.0155755
0.0166895
0.0178458
0.0190329
0.0202352
0.0214337
0.0226075
0.0237351
0.0247961
0.00240476
0.00414914
0.0053251
0.00625029
0.00708213
0.00788079
0.00867694
0.00948986
0.0103337
0.01122
0.0121584
0.0131571
0.0142221
0.0153573
0.0165631
0.0178358
0.0191668
0.0205419
0.0219413
0.0233406
0.0247119
0.0260271
0.0272597
0.00240756
0.00421366
0.00542496
0.00638429
0.00725326
0.00809365
0.00893734
0.00980499
0.0107124
0.0116731
0.0126989
0.0138003
0.0149858
0.0162612
0.0176285
0.0190846
0.0206201
0.022218
0.0238532
0.0254936
0.0271022
0.0286408
0.0300745
0.002406
0.00426394
0.00551308
0.00650886
0.00741772
0.00830253
0.0091964
0.0101216
0.0110959
0.0121352
0.0132544
0.0144669
0.0157844
0.0172158
0.0187659
0.0204332
0.0222081
0.0240708
0.02599
0.0279234
0.0298204
0.0316282
0.0332993
0.00241082
0.00429939
0.00558394
0.00661967
0.00757202
0.0085041
0.00945027
0.0104347
0.0114779
0.0125989
0.0138158
0.0151463
0.0166062
0.0182091
0.0199638
0.0218724
0.0239266
0.0261048
0.0283687
0.0306626
0.032916
0.0350535
0.0370076
0.00240731
0.00430787
0.00563163
0.00671276
0.0077131
0.00869522
0.00969488
0.0107389
0.0118512
0.0130544
0.0143712
0.015824
0.0174343
0.0192218
0.021202
0.023383
0.0257611
0.0283152
0.0310006
0.0337446
0.036448
0.0389979
0.0412936
0.00241202
0.00428377
0.00565089
0.00678544
0.00783924
0.00887344
0.00992612
0.0110279
0.0122068
0.0134902
0.0149056
0.0164813
0.0182458
0.0202268
0.0224495
0.0249321
0.0276806
0.0306802
0.0338835
0.0371992
0.040486
0.0435676
0.0462817
0.00240748
0.00421675
0.0056367
0.00683736
0.00795069
0.00903726
0.0101399
0.0112946
0.0125346
0.0138923
0.0154009
0.017095
0.0190112
0.0211875
0.0236617
0.0264679
0.0296298
0.0331495
0.0369884
0.0410416
0.0451115
0.0489096
0.0521436
0.00241086
0.00410011
0.00558806
0.00687185
0.00804989
0.00918578
0.0103314
0.0115307
0.0128228
0.0142453
0.0158368
0.0176384
0.0196955
0.0220578
0.024779
0.027915
0.0315183
0.0356255
0.0402323
0.0452462
0.0504127
0.0552451
0.0591276
0.00364098
0.00406216
0.00551039
0.0068931
0.008139
0.00931643
0.0104941
0.0117264
0.0130585
0.0145324
0.0161915
0.0180828
0.0202599
0.0227843
0.0257277
0.0291725
0.033211
0.0379386
0.0434309
0.0496818
0.0564513
0.0629578
0.0676106
0.0173189
0.00546523
0.00542448
0.00689613
0.00821391
0.00942113
0.0106174
0.0118696
0.0132278
0.0147371
0.016444
0.0184
0.0206653
0.0233117
0.0264268
0.0301194
0.0345268
0.0398228
0.046222
0.0539547
0.0631048
0.0728658
0.0781761
0.0839908
0.0137142
0.00553405
0.00688339
0.00826164
0.00948364
0.0106864
0.0119468
0.0133174
0.0148446
0.0165763
0.0185664
0.0208788
0.0235911
0.0268009
0.0306347
0.0352624
0.0409253
0.0479908
0.0570722
0.0693193
0.0871667
0.0916332
0.00237465
0.00206488
0.00203761
0.00226779
0.00414685
0.00408364
0.00406622
0.00409554
0.00496017
0.00494412
0.00493107
0.00492114
0.00557282
0.00557491
0.00555933
0.00553147
0.00611347
0.00614756
0.00610576
0.00603007
0.00644875
0.00647505
0.00647044
0.00640378
0.0067586
0.00677273
0.00674761
0.0066929
0.00696236
0.00696646
0.006954
0.00692628
0.00718427
0.00718418
0.00717714
0.00716262
0.00742458
0.00742705
0.00742449
0.00741709
0.00768189
0.00768952
0.00769198
0.0076896
0.00795771
0.00797083
0.00797855
0.00798075
0.0082536
0.00827147
0.00828412
0.00829098
0.0085724
0.00859468
0.00861181
0.00862324
0.00891845
0.00894573
0.00896777
0.0089841
0.00929736
0.00933073
0.00935868
0.00938082
0.00971528
0.00975613
0.00979132
0.00982051
0.0101788
0.0102288
0.0102727
0.0103105
0.0106953
0.0107561
0.0108106
0.0108586
0.0112728
0.0113465
0.0114135
0.0114736
0.0119209
0.0120096
0.0120913
0.0121655
0.0126499
0.0127562
0.0128549
0.0129456
0.0134721
0.0135987
0.0137171
0.0138269
0.0144011
0.0145511
0.0146922
0.014824
0.0154526
0.0156295
0.0157966
0.0159535
0.016644
0.0168518
0.0170488
0.0172343
0.0179956
0.0182387
0.0184696
0.0186877
0.0195301
0.0198135
0.020083
0.020338
0.0212737
0.0216031
0.0219164
0.0222128
0.023257
0.0236385
0.0240012
0.0243442
0.0255152
0.025956
0.0263742
0.0267689
0.0280904
0.0285981
0.0290783
0.0295302
0.0310328
0.0316158
0.032165
0.0326793
0.0344034
0.0350711
0.0356959
0.0362774
0.038278
0.0390398
0.0397465
0.0403983
0.0427527
0.0436173
0.0444098
0.0451319
0.0479515
0.0489246
0.0498016
0.0505875
0.054039
0.0551174
0.0560664
0.0568976
0.0612373
0.0623958
0.0633814
0.0642176
0.0698462
0.0710091
0.0719512
0.0727165
0.0802431
0.0812294
0.0819735
0.0825434
0.0927684
0.0932279
0.0935359
0.0937528
0.00317914
0.00360243
0.00382496
0.00395285
0.00402083
0.00404571
0.00403626
0.00399421
0.00391882
0.00381167
0.00367798
0.0035179
0.00333161
0.00311819
0.00287759
0.00259274
0.00223441
0.00178391
0.000919549
0.00419742
0.00431357
0.00439699
0.00445013
0.00447572
0.00447649
0.00445366
0.00440691
0.00433548
0.00423771
0.00411156
0.0039503
0.00375352
0.00351928
0.00324967
0.00292762
0.00252552
0.00200088
0.00099034
0.00490841
0.00490827
0.0049138
0.00491485
0.00490679
0.00488703
0.00485246
0.00480062
0.00473086
0.00464154
0.00452338
0.0043587
0.00414966
0.00389389
0.00359266
0.00323419
0.00278498
0.00217707
0.00101283
0.00547606
0.00541985
0.00538068
0.00534739
0.00531476
0.0052789
0.00523441
0.00517794
0.00510997
0.00503001
0.00492296
0.00474918
0.00452475
0.00424351
0.00390402
0.00351235
0.00302035
0.00234577
0.00118323
0.00593019
0.00584344
0.00579236
0.0057479
0.00569912
0.00565079
0.00559499
0.00553127
0.00545491
0.00535674
0.00523013
0.00508007
0.00489015
0.00452701
0.00414204
0.00370753
0.00318587
0.00245201
0.00117025
0.00630824
0.00620728
0.00614103
0.00609209
0.00604615
0.00599543
0.0059259
0.00584672
0.00575762
0.00564695
0.00550693
0.00533445
0.00510621
0.00477155
0.00438672
0.00392407
0.00336078
0.00258415
0.00129517
0.00660587
0.00651838
0.00645599
0.00639999
0.00634001
0.00627735
0.00618957
0.00608718
0.00597924
0.00585925
0.00572508
0.00560057
0.00539346
0.00498364
0.00457904
0.00411624
0.0035625
0.00285214
0.00192993
0.00687105
0.00679744
0.00672969
0.00666198
0.00658751
0.00650454
0.00639925
0.00627882
0.00615117
0.00601911
0.00588723
0.00575404
0.00552205
0.0051138
0.00467629
0.00420355
0.00365842
0.00295993
0.00195134
0.00713041
0.00707255
0.00700246
0.00692234
0.00683588
0.0067354
0.00661396
0.00647393
0.0063222
0.00616248
0.00599425
0.00580556
0.00554419
0.00517894
0.00473781
0.00424639
0.0036857
0.0029749
0.0019505
0.00739809
0.00735191
0.00728234
0.00719428
0.00709773
0.006984
0.00684548
0.00668375
0.00650483
0.00631056
0.00609596
0.00584548
0.00553954
0.00518681
0.00475585
0.00424998
0.00366133
0.00292822
0.0019478
0.00767814
0.00763805
0.00757011
0.00747864
0.00737388
0.00724837
0.00709409
0.00691308
0.00670864
0.00648064
0.00622362
0.00592357
0.00556924
0.00517983
0.00473561
0.0042158
0.00360844
0.00286364
0.00194666
0.00797532
0.00793884
0.00787246
0.00777974
0.00766749
0.00753164
0.00736571
0.00716929
0.00694316
0.00668616
0.00639341
0.00605426
0.00565781
0.00521472
0.00472895
0.00418041
0.00355227
0.00280452
0.00195047
0.0082923
0.0082616
0.00819821
0.00810559
0.00798823
0.00784448
0.00766944
0.0074607
0.0072172
0.00693703
0.00661593
0.00624594
0.00581706
0.00532817
0.00478714
0.00419203
0.00353468
0.00277922
0.00194415
0.00863201
0.00861003
0.00855293
0.00846339
0.00834459
0.00819591
0.00801386
0.00779547
0.00753865
0.00724096
0.00689861
0.00650554
0.00605363
0.00553505
0.00494815
0.00430131
0.00360253
0.00281232
0.00194699
0.00900103
0.00898991
0.00894221
0.00885921
0.00874275
0.00859254
0.00840615
0.0081809
0.00791437
0.00760399
0.00724642
0.00683695
0.00636927
0.0058346
0.0052245
0.00454141
0.00379742
0.00292651
0.00192178
0.00940728
0.00940908
0.00937326
0.00929965
0.00918886
0.00904047
0.00885274
0.00862344
0.00835033
0.00803099
0.00766257
0.00724143
0.00676273
0.00621922
0.00560135
0.00490239
0.00411494
0.00314213
0.00190873
0.00985845
0.0098756
0.00985392
0.00979218
0.00968991
0.00954636
0.00936012
0.00912935
0.00885208
0.00852622
0.00814944
0.00771893
0.00723098
0.00667989
0.00605667
0.00534725
0.00451851
0.00344537
0.00193871
0.0103622
0.0103976
0.0103925
0.010345
0.0102538
0.0101178
0.00993544
0.00970524
0.00942543
0.00909421
0.00870964
0.00826945
0.00777056
0.00720802
0.00657276
0.00584581
0.00497838
0.00381751
0.00195136
0.0109269
0.0109837
0.010998
0.0109673
0.0108896
0.0107633
0.0105869
0.0103587
0.0100772
0.00974056
0.00934715
0.00889485
0.00838068
0.00779957
0.00714158
0.00638471
0.0054734
0.0042386
0.00200195
0.0115615
0.0116434
0.0116804
0.0116692
0.0116074
0.011493
0.011324
0.0110988
0.0108156
0.0104726
0.0100682
0.00959989
0.00906449
0.0084562
0.00776367
0.00696202
0.00599003
0.0046616
0.00218928
0.0122763
0.0123876
0.0124508
0.0124621
0.0124187
0.012318
0.0121578
0.0119361
0.0116508
0.0112999
0.0108814
0.0103924
0.00982901
0.00918442
0.00844551
0.0075844
0.00653409
0.00508994
0.00238028
0.0130832
0.0132285
0.0133217
0.0133588
0.0133364
0.0132514
0.0131011
0.0128831
0.0125949
0.0122341
0.011798
0.0112831
0.0106846
0.00999458
0.009198
0.00826397
0.00712085
0.00554645
0.00258323
0.0139953
0.0141797
0.0143074
0.0143739
0.0143751
0.0143078
0.0141685
0.0139543
0.0136623
0.0132893
0.0128318
0.0122856
0.0116448
0.0109001
0.010035
0.00901683
0.0077675
0.0060482
0.00281266
0.0150278
0.015257
0.0154238
0.0155234
0.0155513
0.0155035
0.0153764
0.0151662
0.0148692
0.0144817
0.013999
0.0134161
0.0127256
0.0119176
0.0109738
0.00985871
0.00848854
0.00660607
0.00307291
0.0161979
0.0164778
0.0166888
0.0168255
0.0168831
0.0168571
0.0167432
0.0165372
0.0162344
0.0158301
0.0153186
0.0146936
0.0139469
0.0130664
0.0120323
0.0108062
0.00929833
0.00723038
0.00335894
0.0175247
0.017862
0.0181225
0.0183006
0.018391
0.0183889
0.0182896
0.018088
0.0177788
0.017356
0.0168126
0.0161408
0.0153305
0.0143679
0.013231
0.0118781
0.0102126
0.00793166
0.00367218
0.0190303
0.0194318
0.0197474
0.019971
0.0200973
0.0201215
0.0200382
0.0198419
0.0195261
0.0190836
0.0185058
0.0177826
0.0169019
0.0158474
0.0145942
0.0130967
0.0112497
0.0087222
0.00401097
0.0207393
0.0212123
0.0215884
0.0218617
0.0220271
0.0220797
0.0220142
0.0218242
0.0215024
0.0210398
0.0204258
0.0196478
0.0186905
0.0175345
0.016151
0.0144893
0.0124339
0.0096204
0.00438216
0.0226798
0.0232317
0.0236737
0.0240005
0.0242079
0.0242911
0.0242451
0.0240631
0.0237365
0.0232546
0.0226041
0.0217692
0.0207307
0.0194645
0.0179368
0.0160903
0.013797
0.0106551
0.00481285
0.0248842
0.0255221
0.0260348
0.0264184
0.0266698
0.0267857
0.026761
0.026589
0.0262599
0.0257609
0.0250757
0.0241841
0.0230619
0.0216789
0.0199944
0.017942
0.0153796
0.0118631
0.00533411
0.0273894
0.0281199
0.0287072
0.0291496
0.0294464
0.029596
0.0295945
0.0294351
0.029107
0.0285951
0.0278794
0.0269347
0.0257299
0.0242267
0.0223746
0.0200958
0.01723
0.0132847
0.00596385
0.0302385
0.031067
0.0317309
0.0322324
0.0325744
0.0327579
0.032781
0.0326372
0.0323148
0.0317965
0.031058
0.0300678
0.0287865
0.0271647
0.0251386
0.0226137
0.0194064
0.014965
0.00670962
0.0334819
0.0344115
0.0351511
0.0357093
0.0360939
0.0363102
0.0363586
0.0362336
0.0359232
0.0354075
0.0346577
0.0336354
0.0322904
0.0305591
0.028359
0.0255723
0.0219819
0.0169621
0.00759111
0.037179
0.0382086
0.039019
0.0396276
0.0400496
0.0402953
0.0403685
0.0402657
0.0399745
0.039473
0.0387281
0.0376933
0.0363064
0.0344858
0.0321234
0.0290673
0.0250527
0.0193569
0.00864444
0.0414002
0.0425225
0.0433925
0.0440402
0.0444901
0.0447591
0.0448554
0.0447774
0.0445134
0.0440402
0.0433206
0.0423006
0.0409049
0.0390301
0.0365354
0.0332198
0.0287473
0.0222628
0.00991988
0.0462286
0.0474263
0.0483363
0.0490053
0.0494692
0.0497524
0.0498675
0.049816
0.0495874
0.0491579
0.048488
0.0475175
0.0461585
0.0442848
0.0417149
0.0381809
0.03324
0.0258428
0.0114862
0.0517622
0.0530033
0.0539225
0.0545872
0.055046
0.0553306
0.0554582
0.0554331
0.0552467
0.0548765
0.0542827
0.053402
0.0521379
0.0503434
0.0477936
0.0441356
0.038769
0.0303437
0.0134588
0.0581133
0.059345
0.0602294
0.0608563
0.061286
0.0615562
0.0616872
0.061686
0.0615463
0.0612485
0.0607558
0.0600071
0.0589045
0.0572896
0.0549017
0.0512955
0.045657
0.0361567
0.0160518
0.0654055
0.0665485
0.0673401
0.067889
0.0682623
0.0684998
0.068623
0.0686402
0.0685478
0.0683305
0.067958
0.0673779
0.0665019
0.0651786
0.0631374
0.0598662
0.0543121
0.0439133
0.0196386
0.0737626
0.0747097
0.0753404
0.0757684
0.0760575
0.0762438
0.0763466
0.0763737
0.0763239
0.0761873
0.0759426
0.0755523
0.0749503
0.0740169
0.0725193
0.0699629
0.065156
0.0546268
0.024932
0.0832851
0.0839138
0.0843173
0.0845863
0.0847677
0.0848865
0.084956
0.0849819
0.0849644
0.0848986
0.0847737
0.0845697
0.0842511
0.083751
0.08293
0.0814526
0.0783345
0.0697128
0.0334708
0.0940181
0.0942294
0.0943615
0.0944489
0.0945081
0.0945478
0.0945725
0.0945842
0.0945833
0.094569
0.0945388
0.0944885
0.0944108
0.0942927
0.0941077
0.0937824
0.0930116
0.0896796
0.0470113
)
;

boundaryField
{
    leftWall
    {
        type            kqRWallFunction;
        value           nonuniform List<scalar> 
50
(
0.000102572
0.000224876
0.000321998
0.000405134
0.000478007
0.000544021
0.000605616
0.000664478
0.000753859
0.000863763
0.00101479
0.00139489
0.00150539
0.00156566
0.00207669
0.0023542
0.00240025
0.00240517
0.00240094
0.00240612
0.00240336
0.00240257
0.00240723
0.0024098
0.00240769
0.0024058
0.00240911
0.00240035
0.00239978
0.00240895
0.00240062
0.00240554
0.00240708
0.00240438
0.00240599
0.00240671
0.00240533
0.00240816
0.00240826
0.00240476
0.00240756
0.002406
0.00241082
0.00240731
0.00241202
0.00240748
0.00241086
0.00364098
0.0173189
0.0839908
)
;
    }
    rightWall
    {
        type            kqRWallFunction;
        value           nonuniform List<scalar> 
50
(
0.000104801
0.000220553
0.00032119
0.00041655
0.000508456
0.00060162
0.000707477
0.000806849
0.000919549
0.00099034
0.00101283
0.00118323
0.00117025
0.00129517
0.00192993
0.00195134
0.0019505
0.0019478
0.00194666
0.00195047
0.00194415
0.00194699
0.00192178
0.00190873
0.00193871
0.00195136
0.00200195
0.00218928
0.00238028
0.00258323
0.00281266
0.00307291
0.00335894
0.00367218
0.00401097
0.00438216
0.00481285
0.00533411
0.00596385
0.00670962
0.00759111
0.00864444
0.00991988
0.0114862
0.0134588
0.0160518
0.0196386
0.024932
0.0334708
0.0470113
)
;
    }
    lowerWall
    {
        type            kqRWallFunction;
        value           nonuniform List<scalar> 
62
(
0.000102572
0.000262639
0.00038712
0.000484579
0.000564562
0.00063151
0.000687911
0.000735386
0.000775129
0.000808881
0.00083877
0.000865376
0.000888553
0.000905224
0.000908488
0.000887134
0.000831958
0.000760804
0.000675239
0.000588636
0.000500184
0.000368025
0.000177953
0.000177953
0.000395648
0.000558742
0.000723904
0.000908803
0.00114718
0.00151431
0.00216902
0.00237465
0.00206488
0.00203761
0.00226779
0.000242614
0.000448795
0.000535676
0.000626999
0.000754406
0.000958556
0.00134236
0.00203903
0.000242614
0.000544206
0.000747104
0.00083433
0.000876588
0.000896667
0.000896323
0.000887245
0.00085349
0.00079744
0.000721798
0.000626404
0.000551553
0.000533902
0.000506757
0.000447316
0.000342142
0.000232614
0.000104801
)
;
    }
    atmosphere
    {
        type            inletOutlet;
        inletValue      uniform 0.1;
        value           nonuniform List<scalar> 
46
(
0.1
0.0137142
0.00553405
0.00688339
0.00826164
0.00948364
0.0106864
0.0119468
0.0133174
0.0148446
0.0165763
0.0185664
0.0208788
0.0235911
0.0268009
0.0306347
0.0352624
0.0409253
0.0479908
0.0570722
0.0693193
0.1
0.1
0.1
0.1
0.1
0.1
0.1
0.1
0.1
0.1
0.1
0.1
0.1
0.1
0.1
0.1
0.1
0.1
0.1
0.1
0.1
0.1
0.1
0.1
0.0470113
)
;
    }
    defaultFaces
    {
        type            empty;
    }
}


// ************************************************************************* //
