/*--------------------------------*- C++ -*----------------------------------*\
  =========                 |
  \\      /  F ield         | OpenFOAM: The Open Source CFD Toolbox
   \\    /   O peration     | Website:  https://openfoam.org
    \\  /    A nd           | Version:  9
     \\/     M anipulation  |
\*---------------------------------------------------------------------------*/
FoamFile
{
    format      ascii;
    class       volScalarField;
    location    "8.52";
    object      p_rgh;
}
// * * * * * * * * * * * * * * * * * * * * * * * * * * * * * * * * * * * * * //

dimensions      [1 -1 -2 0 0 0 0];

internalField   nonuniform List<scalar> 
2268
(
766.374
766.217
765.961
765.612
765.178
764.668
764.093
763.462
762.786
762.076
761.344
760.598
759.848
759.098
758.35
757.615
756.918
756.31
755.752
755.318
755.12
754.992
754.896
766.411
766.258
766.004
765.654
765.217
764.703
764.121
763.482
762.798
762.079
761.336
760.578
759.812
759.045
758.287
757.559
756.895
756.333
755.779
755.342
755.151
754.927
754.83
766.471
766.321
766.067
765.716
765.276
764.755
764.165
763.516
762.821
762.09
761.334
760.56
759.778
758.996
758.229
757.505
756.859
756.326
755.798
755.288
755.14
754.842
754.751
766.556
766.404
766.147
765.794
765.348
764.821
764.221
763.561
762.853
762.108
761.337
760.548
759.752
758.959
758.186
757.446
756.78
756.266
755.859
755.234
755.075
754.734
754.656
766.667
766.51
766.247
765.888
765.435
764.899
764.288
763.616
762.894
762.133
761.346
760.541
759.732
758.931
758.155
757.382
756.53
756.165
755.795
755.456
754.967
754.201
754.536
766.801
766.637
766.366
765.999
765.537
764.989
764.367
763.681
762.942
762.164
761.358
760.536
759.715
758.908
758.134
757.332
755.915
756.026
755.636
755.324
754.807
753.446
754.445
766.959
766.787
766.507
766.129
765.655
765.095
764.458
763.756
763
762.201
761.373
760.532
759.698
758.886
758.12
757.441
755.271
751.1
753.282
755.082
751.42
752.606
754.369
767.14
766.964
766.673
766.282
765.794
765.218
764.565
763.846
763.069
762.247
761.393
760.529
759.679
758.862
758.104
757.461
755.24
750.212
749.46
750.17
749.548
753.313
754.276
756.695
757.16
757.981
758.657
759.335
759.97
760.52
761.186
761.874
762.537
763.152
763.776
764.528
765.653
766.292
766.885
767.293
767.572
767.798
756.508
756.968
757.825
758.529
759.239
759.94
760.688
761.404
762.122
762.885
763.474
763.847
764.555
765.721
766.356
766.929
767.337
767.504
767.731
755.679
756.657
757.727
758.408
759.134
759.862
760.625
761.376
762.129
762.951
763.907
764.17
764.589
765.588
766.457
767.021
767.261
767.309
767.573
755.474
756.573
757.707
758.332
759.055
759.792
760.547
761.33
762.073
762.893
763.958
765.034
765.649
766.008
766.433
767.124
767.345
767.359
768.166
755.227
756.951
757.715
758.278
758.99
759.712
760.511
761.339
762.066
762.88
763.93
765.082
765.968
766.435
766.213
766.972
767.335
768.141
768.369
756.305
757.288
757.683
758.215
758.918
759.695
760.53
761.387
762.058
763.003
764.047
765.107
765.999
766.586
766.41
764.824
765.116
768.202
768.531
757.016
757.215
757.582
758.129
758.852
759.642
760.518
761.449
761.359
761.842
764.059
765.146
766.052
766.32
765.059
766.957
765.053
767.909
768.745
756.528
756.974
757.425
758.024
758.77
759.569
760.49
761.523
759.626
757.558
761.155
765.199
766.063
763.12
763.672
767.698
764.985
767.545
769.014
767.478
767.292
766.983
766.566
766.051
765.447
764.765
764.015
763.203
762.336
761.432
760.52
759.639
758.808
758.06
757.451
757.059
755.157
751.778
749.598
753.511
754.901
754.266
765.372
765.639
765.019
763.824
762.818
762.027
760.808
759.171
757.134
754.586
751.628
748.533
746.338
744.639
743.711
743.911
744.12
743.729
743.071
741.612
738.809
736.155
733.659
326.276
323.9
321.359
318.596
314.704
309.657
305.175
300.73
296.388
292.278
288.357
284.282
279.619
274.434
269.083
264.281
261.684
261.711
261.602
259.393
254.991
251.138
249.235
0.916861
0.955021
1.01692
1.0277
1.26314
1.80109
1.53046
1.21544
0.953709
0.768951
0.671049
0.639746
0.5703
0.560113
0.550587
0.531725
0.493479
0.439459
0.391547
0.386453
0.40178
0.415331
0.408683
0.65913
0.963691
1.01533
0.902604
1.12882
1.83407
2.22389
2.34384
2.41508
2.47865
2.48085
2.48083
2.29422
2.18478
2.09263
1.92662
1.63839
1.16468
0.644185
0.652126
0.729265
0.729532
0.601413
0.319586
0.339989
0.31011
0.289703
0.323846
0.102023
0.0366739
0.0408135
0.0466762
0.0258574
0.00183637
0.00323273
0.00704043
0.00967319
0.0107156
0.0114186
0.0131625
0.174873
0.335449
0.301679
0.298677
0.342595
0.453517
0.00489352
-0.00205191
0.00723097
-0.001538
-0.00296217
-0.00229965
-0.00216039
-0.00185949
-0.00127159
-0.000199507
0.00123454
0.00446685
0.0561818
0.0866667
0.0874405
0.0616659
0.0216912
0.00873652
0.00855721
0.00912446
0.0302172
0.0624594
0.089649
-0.00224094
-0.00273718
-0.00252259
-0.00166171
-0.000808626
2.26412e-05
-0.000737801
-0.00111201
0.000139798
0.00119467
0.00108984
0.00597243
0.0550543
0.0662725
0.0426838
0.0266241
0.0198229
0.0128157
0.00828595
0.00739218
0.007272
0.00688525
0.00686679
-0.00207213
-0.00235162
-0.0021498
-0.00178149
-0.000419346
0.00124665
0.00158133
0.000448781
0.00210916
0.00417507
0.00374192
0.00171827
0.000204578
0.00050234
0.00164272
0.0141711
0.0190245
0.0079546
0.00580739
0.00620754
0.00631423
0.00627632
0.00643315
-0.00180462
-0.00195758
-0.00181845
-0.00164691
-0.00102112
0.00167176
0.00183879
-0.000251224
0.00379405
0.00444989
0.00379223
0.000529457
0.000620056
0.0010374
0.00182743
0.00304654
0.00524012
0.0046726
0.00487476
0.0052485
0.00542564
0.00547774
0.00562869
-0.00154781
-0.0016164
-0.00150291
-0.00139675
-0.00125477
-0.000248241
-0.000271764
-0.000428679
0.00327907
0.00474877
0.00159335
0.000515775
0.00076538
0.00146955
0.00344518
0.00431357
0.00342061
0.00372362
0.00412767
0.00443441
0.00457067
0.00457561
0.0045806
-0.00130331
-0.00116509
-0.00107018
-0.00115129
-0.00104771
-0.000905063
-0.000702919
-0.00046666
0.00325329
0.00395698
0.000194277
0.000496616
0.000777552
0.00135625
0.00987674
0.013151
0.0108947
0.00322063
0.00348916
0.00367526
0.00376825
0.0036869
0.00344311
-0.00108916
-0.000889053
-0.000822172
-0.000918945
-0.00084432
-0.000710914
-0.000309336
0.00233593
0.00305633
0.000763419
0.000202359
0.000466288
0.000718809
0.00121712
0.00956085
0.0133135
0.0138016
0.0112868
0.0028464
0.00299931
0.00305067
0.00297087
0.00271216
-0.000911977
-0.000711303
-0.000618459
-0.000740614
-0.000676747
-0.000534601
0.0016287
0.00310969
0.00271172
-1.21989e-05
0.000213078
0.000435171
0.000645421
0.000836854
0.00125743
0.00907825
0.0138858
0.0102561
0.00224547
0.00244299
0.00250642
0.00245435
0.00225406
-0.000756959
-0.000702809
-0.000568943
-0.000602368
-0.000537134
-0.000416956
0.00259372
0.00333747
0.00145634
3.0564e-05
0.000223675
0.000411849
0.000590772
0.000754177
0.000891606
0.0013005
0.00232557
0.00244939
0.00186886
0.00201652
0.00209641
0.00205908
0.00192267
-0.000615531
-0.000580242
-0.000534295
-0.000478238
-0.000417244
-0.000313626
0.00109013
0.00199682
-5.44121e-05
6.96378e-05
0.000236143
0.000397748
0.000552697
0.000698496
0.000828302
0.000956201
0.0011193
0.00133363
0.00155706
0.00171554
0.00177777
0.00175098
0.00164106
-0.000485101
-0.000450031
-0.000410028
-0.000363286
-0.00030856
-0.000221915
-0.000219371
-0.000135584
-2.48903e-05
0.000111623
0.000251227
0.000389419
0.000524602
0.000655078
0.000778235
0.000901201
0.00103947
0.00119628
0.0013458
0.00145165
0.00149915
0.0014869
0.00142871
-0.000214244
-0.000149994
-0.000307056
-0.000267495
-0.000214866
-0.000152441
-0.00012581
-5.68613e-05
3.88483e-05
0.000149499
0.000265875
0.000383882
0.000501537
0.000616774
0.000728341
0.000838945
0.000954141
0.00107269
0.00117962
0.00125457
0.00129083
0.00128807
0.00125012
0.000499017
0.000488329
-0.000226824
-0.000190063
-0.000141859
-9.87258e-05
-5.46413e-05
8.81539e-06
8.88739e-05
0.000180341
0.000278162
0.000379092
0.000480725
0.000581137
0.000679217
0.000775404
0.000870771
0.000962683
0.00104244
0.00109913
0.00112754
0.00112669
0.00109914
0.000576892
0.000334087
-0.000162149
-0.000126236
-8.5139e-05
-4.71401e-05
6.53523e-07
5.81618e-05
0.000126861
0.000204163
0.000287221
0.000373496
0.000460829
0.000547462
0.000632123
0.00071413
0.000792727
0.000865235
0.000926182
0.000969284
0.00099095
0.000990158
0.000968519
0.000643542
-6.23871e-05
-0.000105828
-7.39137e-05
-3.88664e-05
-7.78981e-07
4.39359e-05
9.57617e-05
0.000155445
0.000221731
0.000292731
0.000366536
0.000441348
0.000515562
0.000587801
0.000656892
0.000721454
0.000779115
0.000826236
0.000858969
0.000874697
0.000872726
0.000853975
0.000748401
-9.07417e-05
-6.31354e-05
-3.24187e-05
2.50644e-07
3.66937e-05
7.78959e-05
0.000124529
0.000176869
0.000234168
0.000295135
0.000358316
0.000422222
0.000485415
0.000546532
0.000604246
0.000657053
0.000702947
0.000739373
0.000763784
0.000774403
0.00077059
0.000752868
0.000834512
0.000418832
-2.79786e-05
7.43138e-07
3.21855e-05
6.65751e-05
0.000104609
0.000146667
0.000192829
0.000242601
0.000295085
0.000349152
0.000403574
0.000457086
0.000508413
0.000556251
0.000599173
0.000635511
0.000663383
0.000681008
0.00068711
0.000681136
0.00066335
0.00090512
0.000915513
-6.46333e-07
2.63514e-05
5.73969e-05
9.03936e-05
0.00012579
0.000163865
0.000204714
0.000248049
0.000293243
0.000339433
0.000385604
0.000430661
0.000473451
0.000512775
0.000547351
0.000575792
0.000596655
0.000608629
0.000610748
0.000602538
0.000584096
0.000968235
0.000963476
1.74949e-05
4.61198e-05
7.77536e-05
0.000109901
0.000143033
0.000177548
0.000213699
0.000251396
0.00029023
0.00032955
0.000368529
0.000406224
0.000441614
0.000473625
0.000501133
0.000522977
0.000538013
0.000545225
0.000543857
0.000533493
0.000514128
0.00103861
0.000608483
2.91618e-05
6.33804e-05
9.58437e-05
0.000127008
0.000157841
0.000188945
0.000220762
0.000253381
0.000286571
0.00031985
0.000352542
0.000383838
0.00041284
0.000438592
0.000460113
0.00047642
0.000486573
0.000489761
0.000485371
0.000473026
0.00045267
0.000721035
2.89513e-05
4.90251e-05
8.32212e-05
0.000114387
0.000143445
0.000171466
0.000199025
0.000226656
0.000254569
0.000282665
0.000310584
0.000337768
0.000363514
0.000387021
0.000407441
0.000423904
0.000435567
0.000441631
0.000441426
0.00043444
0.000420341
0.000399041
4.14738e-05
5.44628e-05
7.82029e-05
0.000106351
0.00013418
0.000160054
0.000184647
0.000208397
0.000231858
0.000255313
0.000278744
0.000301876
0.00032423
0.000345175
0.000363988
0.000379893
0.000392112
0.000399893
0.000402551
0.000399507
0.000390325
0.000374712
0.000352574
6.36631e-05
6.92636e-05
9.97132e-05
0.000128575
0.000154219
0.000176818
0.000197604
0.000217297
0.000236556
0.000255734
0.000274859
0.000293702
0.000311828
0.000328649
0.000343483
0.000355606
0.000364298
0.000368874
0.00036872
0.000363328
0.000352313
0.000335422
0.000312576
0.000102777
7.8152e-05
0.000119917
0.000151082
0.0001748
0.000193781
0.000210329
0.000225688
0.000240689
0.000255742
0.000270885
0.000285893
0.000300344
0.000313658
0.000325167
0.000334171
0.000339983
0.000341958
0.000339524
0.000332218
0.000319698
0.000301749
0.000278324
0.000102384
0.000111445
0.000146228
0.000176028
0.000196748
0.00021108
0.000222627
0.000233277
0.000243957
0.000255046
0.000266533
0.00027815
0.000289451
0.000299836
0.000308624
0.00031512
0.000318646
0.00031857
0.00031434
0.000305515
0.000291782
0.000272967
0.000249071
0.000109398
0.000132094
0.0001723
0.000203915
0.000220672
0.000228516
0.000233969
0.000239474
0.000245817
0.000253167
0.00026137
0.000270062
0.000278734
0.000286741
0.000293379
0.00029794
0.000299735
0.000298124
0.000292548
0.000282567
0.000267882
0.000248357
0.000224065
0.000118025
0.000152136
0.000202089
0.000239567
0.000246969
0.000245076
0.000243109
0.00024324
0.000245451
0.000249459
0.000254858
0.000261139
0.000267712
0.000273882
0.000278916
0.000282088
0.000282683
0.000280033
0.000273548
0.000262757
0.000247353
0.000227232
0.000202569
0.00012447
0.000232014
0.00055307
0.00220149
0.000273881
0.000260402
0.000247211
0.000242769
0.000241728
0.000243143
0.000246392
0.000250853
0.00025588
0.000260744
0.000264699
0.000267004
0.000266918
0.000263727
0.000256776
0.000245525
0.000229617
0.000208963
0.000183886
0.000115423
0.00059434
0.00383581
0.00422329
0.00306707
0.000426056
0.00024214
0.000236046
0.000233507
0.000233501
0.000235434
0.000238731
0.000242765
0.000246826
0.000250192
0.000252128
0.000251873
0.000248653
0.000241717
0.000230396
0.000214203
0.000193006
0.000167362
0.000122131
0.00069657
0.00430391
0.00430618
0.00429571
0.000516616
0.000227709
0.00022307
0.000220692
0.000220364
0.000221758
0.000224481
0.000228001
0.00023169
0.000234895
0.000236917
0.000236992
0.000234289
0.000227925
0.000217017
0.000200802
0.00017895
0.000152396
0.000170432
0.000391186
0.00319266
0.00438819
0.0023434
0.000296933
0.000209447
0.000206261
0.000204409
0.000204195
0.00020548
0.000208005
0.00021134
0.00021497
0.000218337
0.000220819
0.000221691
0.000220087
0.000214971
0.000205148
0.000189317
0.000166547
0.000138415
0.000283364
0.000332036
0.000443563
0.0013407
0.0002816
0.00020069
0.00019129
0.000187371
0.00018544
0.000185259
0.000186563
0.000189061
0.000192374
0.000196099
0.000199801
0.000202981
0.000205019
0.000205087
0.000202038
0.000194294
0.000179634
0.000155543
0.000124708
0.00045882
0.000417832
0.000322342
0.000245514
0.000202551
0.000181317
0.000170551
0.000165223
0.000163109
0.000163067
0.00016452
0.000167073
0.000170398
0.00017421
0.000178225
0.000182127
0.000185498
0.000187676
0.000187593
0.000183497
0.000171784
0.000145583
0.000109983
0.00056854
0.000490754
0.000335531
0.000237281
0.000182309
0.000156197
0.000145065
0.000140772
0.000139734
0.000140491
0.000142396
0.000145102
0.000148411
0.00015219
0.000156339
0.000160779
0.000165387
0.00016986
0.000173718
0.00017621
0.000172006
0.00014006
9.26867e-05
0.000695343
0.000468988
0.000296582
0.000204407
0.000152409
0.000132508
0.00012816
0.000128473
0.000130056
0.000132197
0.00013471
0.000137547
0.000140718
0.000144266
0.00014829
0.000152968
0.000158529
0.000165203
0.000173974
0.000188187
0.000203104
0.000156341
7.43041e-05
0.000569209
6.33864e-05
0.0001303
0.000118302
0.000107363
0.000107075
0.000110901
0.000114076
0.000116276
0.000118046
0.000119729
0.000121482
0.000123405
0.000125613
0.000128287
0.00013172
0.000136337
0.000142783
0.000153403
0.000176771
0.000219944
0.00018972
5.87563e-05
755.094
755.118
755.406
755.688
735.916
736.486
737.029
737.231
250.345
251.017
251.93
253.055
0.387571
0.386719
0.395876
0.402945
0.388229
0.406936
0.59046
0.593515
0.172106
0.125892
0.361926
0.558255
0.157804
0.10282
0.110617
0.0562708
0.00768009
0.00818079
0.00812276
0.00813164
0.00704286
0.00907971
0.0144338
0.0153387
0.00920883
0.0330312
0.0413153
0.0413815
0.0312125
0.0419722
0.0419882
0.0420115
0.00297411
0.0152961
0.0398929
0.0426702
0.0023094
0.00199928
0.00169311
0.00204287
0.00200415
0.00182604
0.00164097
0.00148686
0.00181115
0.00171299
0.00160979
0.00152141
0.00153662
0.00146851
0.00141313
0.00148652
0.00135716
0.00130735
0.00125694
0.00120711
0.00120074
0.00116484
0.00112583
0.00108264
0.00106266
0.00103491
0.00100329
0.000967465
0.000939533
0.000916725
0.000889928
0.000859116
0.0008293
0.000809496
0.000785867
0.000758545
0.00073054
0.000712553
0.000691054
0.000666246
0.000642178
0.000625299
0.000605293
0.000582386
0.000563392
0.00054721
0.000528311
0.000506909
0.000493523
0.000477805
0.000459774
0.000439609
0.000431995
0.000416612
0.000399287
0.000380155
0.000378242
0.000363117
0.000346376
0.000328107
0.00033166
0.000316745
0.000300486
0.000282926
0.000291584
0.000276845
0.000260979
0.000243992
0.000257295
0.000242705
0.000227155
0.000210624
0.000228038
0.000213573
0.000198275
0.000182104
0.000203043
0.00018868
0.000173581
0.000157696
0.00018155
0.000167264
0.000152322
0.000136671
0.000162825
0.000148581
0.000133762
0.000118316
0.000146168
0.000131917
0.00011719
0.000101945
0.000130898
0.00011657
0.000101912
8.68936e-05
0.000116329
0.000101826
8.7224e-05
7.25151e-05
0.000101672
8.68982e-05
7.23979e-05
5.81839e-05
8.57566e-05
7.08058e-05
5.66555e-05
4.33429e-05
6.66818e-05
5.22415e-05
3.93005e-05
2.77429e-05
4.23295e-05
2.93141e-05
1.95003e-05
1.15916e-05
2.63168e-05
1.49281e-05
6.77945e-06
9.94157e-07
756.057
756.564
757.117
757.821
758.278
757.763
758.494
760.329
761.768
756.188
755.835
756.744
757.682
759.089
767.5
768.133
767.474
767.485
769.162
736.795
737.337
737.939
738.619
739.791
741.52
742.778
744.913
752.638
758.3
761.195
763.475
765.518
767.42
768.243
767.934
768.049
765.218
764.603
255.547
260.148
265.38
271.819
279.322
287.497
295.588
302.383
307.365
316.419
323.7
328.904
333.672
336.296
338.141
341.182
346.692
351.594
354.774
0.408976
0.430279
0.453171
0.455481
0.449822
0.444883
0.441678
0.442416
0.44218
0.47978
0.528609
0.559922
0.351658
0.618217
0.815972
0.868831
0.915168
0.940843
1.07896
0.494653
0.794218
1.05319
1.05492
1.05188
1.06751
1.07669
1.07462
1.07158
1.06674
1.06056
0.744431
0.356226
0.715956
0.813061
0.800461
0.802666
0.789196
0.687147
0.502688
0.349
0.301456
0.313841
0.251061
0.203874
0.180421
0.179897
0.171433
0.0867408
0.0234955
0.0607946
0.173821
0.21523
0.24796
0.29311
0.306596
0.328916
0.328167
0.0351184
0.0416165
0.00945424
0.00906735
0.0101305
0.0111983
0.0112387
0.0103357
0.00987202
0.0149977
0.0283085
0.0278366
0.0363649
0.0141502
0.00226838
0.000184098
-0.000850408
-0.00167566
-0.0012425
0.00815179
0.00810537
0.00816982
0.00818087
0.018193
0.0547875
0.0627078
0.0426929
0.035332
0.0681525
0.078561
0.078202
0.0726027
0.0164097
0.0016865
0.000352902
-0.000496094
-0.000987919
-0.000706135
0.0118856
0.00745201
0.00705173
0.00720296
0.0511004
0.071314
0.0703095
0.0699079
0.067549
0.0601029
0.0760129
0.0796103
0.0787307
0.00933771
0.00138904
0.000525854
-8.67228e-05
-0.000440188
-0.000224755
0.0414852
0.0135472
0.00595096
0.00575544
0.0302134
0.042182
0.00839917
0.00123871
0.000880597
0.000427123
0.0015907
0.0284035
0.0378544
0.0182684
0.00280479
0.000740733
0.00032351
6.14684e-05
0.000144897
0.0420654
0.0423885
0.0206542
0.00359863
0.00231699
0.00134922
0.00119119
0.0018446
0.00176802
0.00035582
-0.00012726
0.00135715
0.0171032
0.0217608
0.00434128
0.00102624
0.000765274
0.000581856
0.000460396
0.0425931
0.0427486
0.0277931
0.00256401
0.0019622
0.00138935
0.00196684
0.00229868
0.00191018
0.000301506
-2.40317e-05
0.00326993
0.0139984
0.0231054
0.00141737
0.00137131
0.00120034
0.00106528
0.000777485
0.00686586
0.0105304
0.00160862
0.00185425
0.00160087
0.00127674
0.00106679
0.000833622
0.000467436
0.000208263
-7.92123e-05
-0.000361645
0.00686093
0.0217385
0.0178819
0.00497074
0.00158511
0.00151129
0.00110375
0.00125349
0.00120757
0.00140045
0.00148271
0.00133159
0.00108798
0.00085694
0.000633094
0.000402462
0.000164528
-8.27202e-05
-0.000327795
0.00783588
0.0176475
0.019082
0.0160828
0.00184052
0.00191744
0.00143047
0.00141692
0.00140311
0.00133539
0.00124664
0.00112135
0.000936409
0.000742907
0.000541513
0.000331274
0.000114044
-0.000109534
-0.000340418
-0.000589928
-0.000625386
0.00269481
0.0031313
0.0111868
0.0198178
0.0193877
0.00173939
0.00172098
0.00169867
0.00124245
0.00096329
0.000798913
0.000630928
0.000454292
0.000263176
5.74058e-05
-0.000148141
-0.000353855
-0.000542152
-0.000634582
-0.000592646
0.00389883
0.0290056
0.0288553
0.0283557
0.00136873
0.00164453
0.0015925
0.00152892
0.00107499
0.000672445
0.000545425
0.000462911
0.000282476
6.4659e-06
-0.000199567
-0.000393456
-0.000579931
-0.000732667
-0.000863313
0.00278865
0.0220826
0.0233207
0.00792936
0.0010025
0.00104152
0.00140194
0.0014176
0.00101758
0.000555788
0.000472929
0.000436267
0.000272198
4.84422e-05
-0.000256565
-0.000446233
-0.000640277
-0.000835526
-0.00105156
-0.00132342
-0.00186925
-0.00205593
-0.00213511
0.000900789
0.000819837
0.000738893
0.0007034
0.00058132
0.000457032
0.000375335
0.000357838
0.000203825
2.29738e-05
-0.000299037
-0.000497068
-0.000691507
-0.000898938
-0.0011349
-0.00142567
-0.00174482
-0.00191908
-0.00194437
0.000801612
0.000725888
0.000646411
0.000560976
0.000466663
0.000359462
0.000239793
0.000135678
3.99642e-05
-0.000169818
-0.000361936
-0.000539222
-0.000726767
-0.000927624
-0.00114706
-0.00138578
-0.00161461
-0.00175896
-0.00174634
0.000707622
0.000636565
0.000559439
0.000475369
0.000382651
0.00027901
0.000163125
3.55098e-05
-0.000102204
-0.000248801
-0.000404938
-0.000571289
-0.0007474
-0.000932869
-0.00112563
-0.00131613
-0.00147051
-0.00156854
-0.00151388
0.000620186
0.00055323
0.000479014
0.00039731
0.000307294
0.000207655
9.7559e-05
-2.27978e-05
-0.000152583
-0.000291167
-0.00043843
-0.000594155
-0.000757067
-0.00092449
-0.00109056
-0.00124404
-0.00134906
-0.00140434
0.00212072
0.000540063
0.000476716
0.000405604
0.000326815
0.000240049
0.000144593
3.99548e-05
-7.37962e-05
-0.000196171
-0.00032663
-0.000464671
-0.000609415
-0.000758944
-0.00090973
-0.0010553
-0.00118244
-0.00126593
-0.00130324
0.00581826
0.000467574
0.000407418
0.000339394
0.00026375
0.000180484
8.92579e-05
-1.01783e-05
-0.000117748
-0.000233066
-0.000355558
-0.000484449
-0.00061845
-0.000755378
-0.00089153
-0.00102097
-0.00113335
-0.0012116
-0.00124398
0.0061284
0.000402728
0.000345408
0.000280355
0.000207892
0.000128189
4.11418e-05
-5.33209e-05
-0.000155053
-0.000263649
-0.000378446
-0.000498479
-0.000622191
-0.000747268
-0.000870254
-0.000986315
-0.00108881
-0.00116685
-0.00119801
0.00643882
0.000345315
0.000290517
0.000228268
0.000158917
8.27259e-05
-2.6125e-07
-8.99794e-05
-0.000186192
-0.000288418
-0.000395878
-0.000507404
-0.000621267
-0.000735017
-0.000845357
-0.000948348
-0.0010401
-0.00111417
-0.00114459
0.00649134
0.000294964
0.00024241
0.000182773
0.000116408
4.36133e-05
-3.54726e-05
-0.000120684
-0.000211695
-0.000307929
-0.000408473
-0.000511958
-0.000616408
-0.000719087
-0.000816412
-0.000904221
-0.000978428
-0.00103265
-0.00104526
0.000252131
0.000251182
0.000200623
0.000143409
7.98791e-05
1.03389e-05
-6.50227e-05
-0.000145973
-0.000232115
-0.000322785
-0.000416942
-0.000513015
-0.000608718
-0.000700834
-0.000785011
-0.000855566
-0.000904939
-0.000921942
-0.000894569
-0.000803732
0.000213387
0.000164612
0.000109648
4.88078e-05
-1.76197e-05
-8.94311e-05
-0.000166364
-0.000247984
-0.000333579
-0.000422018
-0.000511575
-0.000599689
-0.00068266
-0.000755279
-0.000810054
-0.000835293
-0.000814596
-0.000747825
-0.000100561
0.00018094
0.000133778
8.09242e-05
2.26589e-05
-4.07705e-05
-0.000109179
-0.000182316
-0.000259762
-0.00034081
-0.000424323
-0.000508529
-0.000590742
-0.000667014
-0.000731681
-0.000776365
-0.000787644
-0.000747904
-0.000664361
0.00748288
0.000153165
0.000107496
5.66665e-05
9.11034e-07
-5.95828e-05
-0.000124683
-0.000194198
-0.000267777
-0.000344798
-0.000424219
-0.000504364
-0.000582634
-0.00065515
-0.000716316
-0.000758009
-0.000767725
-0.000729733
-0.000650273
0.00927078
0.000129376
8.51408e-05
3.63155e-05
-1.69224e-05
-7.44669e-05
-0.000136274
-0.000202256
-0.000272192
-0.000345624
-0.000421711
-0.000499017
-0.000575218
-0.000646747
-0.000708397
-0.000752715
-0.00076863
-0.000741209
-0.000666276
0.0095388
0.000108891
6.61021e-05
1.93459e-05
-3.12742e-05
-8.57575e-05
-0.000144181
-0.000206603
-0.000272987
-0.000343112
-0.000416437
-0.000491893
-0.000567591
-0.000640476
-0.000705904
-0.000756953
-0.000783413
-0.000768653
-0.000693186
0.00965824
9.1054e-05
4.98073e-05
5.28721e-06
-4.25048e-05
-9.36993e-05
-0.000148523
-0.000207214
-0.000269961
-0.000336841
-0.000407697
-0.000481953
-0.000558322
-0.000634461
-0.00070641
-0.000767621
-0.000808293
-0.000808923
-0.000732294
0.00992049
7.52428e-05
3.57408e-05
-6.25398e-06
-5.08819e-05
-9.84332e-05
-0.000149305
-0.000203931
-0.000262751
-0.000326174
-0.000394497
-0.000467756
-0.000545444
-0.000626125
-0.000706659
-0.000780962
-0.00083825
-0.000856628
-0.000781924
0.0101583
6.08875e-05
2.34702e-05
-1.55646e-05
-5.65575e-05
-9.99846e-05
-0.000146418
-0.000196483
-0.000250863
-0.000310305
-0.000375598
-0.000447478
-0.000526399
-0.000612065
-0.000702495
-0.000792023
-0.000861066
-0.000893467
-0.000818953
0.00478933
4.74914e-05
1.26837e-05
-2.27911e-05
-5.95465e-05
-9.82605e-05
-0.00013966
-0.000184524
-0.000233736
-0.000288346
-0.000349621
-0.000419066
-0.000498313
-0.000588489
-0.000689379
-0.000796513
-0.000872955
-0.000917629
-0.000835382
0.000655625
3.46768e-05
3.24912e-06
-2.78942e-05
-5.97076e-05
-9.30564e-05
-0.000128765
-0.000167691
-0.00021083
-0.000259443
-0.000315198
-0.000380336
-0.00045776
-0.000550706
-0.000661827
-0.000790547
-0.000894995
-0.000974673
-0.000881655
0.00225065
2.22993e-05
-4.64834e-06
-3.05355e-05
-5.66613e-05
-8.40011e-05
-0.00011337
-0.000145587
-0.000181628
-0.000222799
-0.000270971
-0.00032892
-0.000400737
-0.000492111
-0.000610278
-0.000763825
-0.000938358
-0.00108853
-0.000995881
0.00349872
1.07371e-05
-1.02213e-05
-2.98444e-05
-4.95923e-05
-7.03716e-05
-9.28309e-05
-0.000117602
-0.000145464
-0.000177528
-0.000215519
-0.000262241
-0.000322323
-0.000403202
-0.000516882
-0.000686584
-0.000950901
-0.00127093
-0.00123589
0.00330852
1.15384e-06
-1.22509e-05
-2.48833e-05
-3.78785e-05
-5.18194e-05
-6.70275e-05
-8.38054e-05
-0.000102561
-0.000123943
-0.000149061
-0.00017993
-0.000220309
-0.000277096
-0.000363687
-0.000516166
-0.000835986
-0.00141558
-0.00160585
0.00267771
-5.19592e-06
-1.20898e-05
-1.86356e-05
-2.56927e-05
-3.34407e-05
-4.18763e-05
-5.09717e-05
-6.07277e-05
-7.12236e-05
-8.27158e-05
-9.58739e-05
-0.00011238
-0.000136304
-0.000177307
-0.000263603
-0.000497242
-0.00114343
-0.00185803
0.00141354
)
;

boundaryField
{
    leftWall
    {
        type            fixedFluxPressure;
        gradient        uniform 0;
        value           nonuniform List<scalar> 
50
(
766.374
766.411
766.471
766.556
766.667
766.801
766.959
767.14
767.478
765.372
326.276
0.916861
0.65913
0.319586
0.00489352
-0.00224094
-0.00207213
-0.00180462
-0.00154781
-0.00130331
-0.00108916
-0.000911977
-0.000756959
-0.000615531
-0.000485101
-0.000214244
0.000499017
0.000576892
0.000643542
0.000748401
0.000834512
0.00090512
0.000968235
0.00103861
0.000721035
4.14738e-05
6.36631e-05
0.000102777
0.000102384
0.000109398
0.000118025
0.00012447
0.000115423
0.000122131
0.000170432
0.000283364
0.00045882
0.00056854
0.000695343
0.000569209
)
;
    }
    rightWall
    {
        type            fixedFluxPressure;
        gradient        uniform 0;
        value           nonuniform List<scalar> 
50
(
767.798
767.731
767.573
768.166
768.369
768.531
768.745
769.014
769.162
764.603
354.774
1.07896
0.687147
0.328167
-0.0012425
-0.000706135
-0.000224755
0.000144897
0.000460396
0.000777485
0.00110375
0.00143047
0.0193877
0.0283557
0.00792936
-0.00213511
-0.00194437
-0.00174634
-0.00151388
0.00212072
0.00581826
0.0061284
0.00643882
0.00649134
0.000252131
-0.000803732
-0.000100561
0.00748288
0.00927078
0.0095388
0.00965824
0.00992049
0.0101583
0.00478933
0.000655625
0.00225065
0.00349872
0.00330852
0.00267771
0.00141354
)
;
    }
    lowerWall
    {
        type            fixedFluxPressure;
        gradient        uniform 0;
        value           nonuniform List<scalar> 
62
(
766.374
766.217
765.961
765.612
765.178
764.668
764.093
763.462
762.786
762.076
761.344
760.598
759.848
759.098
758.35
757.615
756.918
756.31
755.752
755.318
755.12
754.992
754.896
754.896
754.83
754.751
754.656
754.536
754.445
754.369
754.276
755.094
755.118
755.406
755.688
756.695
756.508
755.679
755.474
755.227
756.305
757.016
756.528
756.695
757.16
757.981
758.657
759.335
759.97
760.52
761.186
761.874
762.537
763.152
763.776
764.528
765.653
766.292
766.885
767.293
767.572
767.798
)
;
    }
    atmosphere
    {
        type            totalPressure;
        rho             rho;
        psi             none;
        gamma           1;
        p0              uniform 0;
        value           nonuniform List<scalar> 
46
(
-5.83261e-05
0
0
0
0
0
0
0
0
0
0
0
0
0
0
0
0
0
0
0
0
-5.44823e-08
-7.76922e-07
-1.83491e-06
-2.74051e-06
-3.81143e-06
-5.03807e-06
-7.43325e-06
-1.14131e-05
-1.60377e-05
-2.11982e-05
-2.67792e-05
-3.26582e-05
-3.87034e-05
-4.47715e-05
-5.07054e-05
-5.63294e-05
-6.14431e-05
-6.58101e-05
-6.9133e-05
-7.09928e-05
-7.06963e-05
-6.68341e-05
-5.60973e-05
-2.80939e-05
0
)
;
    }
    defaultFaces
    {
        type            empty;
    }
}


// ************************************************************************* //
