/*--------------------------------*- C++ -*----------------------------------*\
  =========                 |
  \\      /  F ield         | OpenFOAM: The Open Source CFD Toolbox
   \\    /   O peration     | Website:  https://openfoam.org
    \\  /    A nd           | Version:  9
     \\/     M anipulation  |
\*---------------------------------------------------------------------------*/
FoamFile
{
    format      ascii;
    class       surfaceScalarField;
    location    "3.26";
    object      phi;
}
// * * * * * * * * * * * * * * * * * * * * * * * * * * * * * * * * * * * * * //

dimensions      [0 3 -1 0 0 0 0];

internalField   nonuniform List<scalar> 
4432
(
-1.73456e-07
1.73456e-07
-3.95087e-07
2.21634e-07
-6.43741e-07
2.48652e-07
-8.81519e-07
2.37779e-07
-1.10631e-06
2.24794e-07
-1.31566e-06
2.09344e-07
-1.50114e-06
1.85482e-07
-1.65347e-06
1.52328e-07
-1.76418e-06
1.10712e-07
-1.82266e-06
5.84723e-08
-1.8162e-06
-6.45834e-09
-1.73598e-06
-8.02154e-08
-1.57472e-06
-1.61269e-07
-1.32389e-06
-2.50827e-07
-9.72178e-07
-3.51715e-07
-5.14087e-07
-4.58094e-07
-4.73501e-08
-4.66739e-07
-1.19492e-07
7.21412e-08
-8.62053e-07
7.42562e-07
-1.43635e-06
5.74301e-07
-1.28846e-06
-1.47891e-07
-6.39356e-07
-6.49102e-07
-6.39352e-07
-2.09917e-07
3.83371e-07
-4.45723e-07
4.57446e-07
-7.06549e-07
5.09475e-07
-9.70501e-07
5.01733e-07
-1.22369e-06
4.77978e-07
-1.4568e-06
4.42461e-07
-1.65944e-06
3.8812e-07
-1.82233e-06
3.15207e-07
-1.93701e-06
2.25395e-07
-1.99461e-06
1.16074e-07
-1.98698e-06
-1.40928e-08
-1.90761e-06
-1.59579e-07
-1.75429e-06
-3.14598e-07
-1.52891e-06
-4.76209e-07
-1.24065e-06
-6.39979e-07
-9.17882e-07
-7.80862e-07
-6.37843e-07
-7.46779e-07
-5.86248e-07
2.0545e-08
-6.57962e-07
8.14276e-07
-8.30132e-07
7.46474e-07
-8.31378e-07
-1.46644e-07
-5.84527e-07
-8.95952e-07
-1.22388e-06
-2.33573e-07
6.16941e-07
-4.85411e-07
7.09287e-07
-7.52743e-07
7.76805e-07
-1.02468e-06
7.73674e-07
-1.28689e-06
7.4018e-07
-1.52793e-06
6.83506e-07
-1.73649e-06
5.96679e-07
-1.90328e-06
4.81995e-07
-2.02036e-06
3.4248e-07
-2.07961e-06
1.75331e-07
-2.07364e-06
-2.00598e-08
-1.99854e-06
-2.34684e-07
-1.85574e-06
-4.57394e-07
-1.65315e-06
-6.78807e-07
-1.40934e-06
-8.83791e-07
-1.16197e-06
-1.02823e-06
-9.61308e-07
-9.47447e-07
-7.53551e-07
-1.87217e-07
-5.58938e-07
6.19659e-07
-4.58368e-07
6.45901e-07
-4.36873e-07
-1.68142e-07
-3.91377e-07
-9.41453e-07
-1.61526e-06
-2.53932e-07
8.70871e-07
-5.23352e-07
9.78707e-07
-7.98837e-07
1.05229e-06
-1.07485e-06
1.04968e-06
-1.34046e-06
1.0058e-06
-1.58434e-06
9.27388e-07
-1.79455e-06
8.06887e-07
-1.96205e-06
6.49498e-07
-2.07967e-06
4.60096e-07
-2.13981e-06
2.35472e-07
-2.13562e-06
-2.42489e-08
-2.06481e-06
-3.05495e-07
-1.93112e-06
-5.91084e-07
-1.74521e-06
-8.64715e-07
-1.52811e-06
-1.1009e-06
-1.31346e-06
-1.24288e-06
-1.12407e-06
-1.13684e-06
-8.25924e-07
-4.85366e-07
-4.68375e-07
2.62106e-07
-1.83333e-07
3.60856e-07
-1.09003e-07
-2.42473e-07
-1.34742e-07
-9.15717e-07
-1.75001e-06
-2.71462e-07
1.14233e-06
-5.58296e-07
1.26554e-06
-8.42251e-07
1.33625e-06
-1.12055e-06
1.32798e-06
-1.38679e-06
1.27204e-06
-1.6308e-06
1.17141e-06
-1.84016e-06
1.01624e-06
-2.00633e-06
8.15667e-07
-2.12315e-06
5.76912e-07
-2.18347e-06
2.9579e-07
-2.18058e-06
-2.71468e-08
-2.11306e-06
-3.73017e-07
-1.98578e-06
-7.18365e-07
-1.80962e-06
-1.04088e-06
-1.60316e-06
-1.30736e-06
-1.3897e-06
-1.45634e-06
-1.16698e-06
-1.35956e-06
-8.19554e-07
-8.32787e-07
-3.59065e-07
-1.98382e-07
2.84778e-08
-2.66841e-08
1.71481e-07
-3.85473e-07
1.13639e-07
-8.57873e-07
-1.63637e-06
-2.86964e-07
1.4293e-06
-5.89175e-07
1.56775e-06
-8.80068e-07
1.62714e-06
-1.15876e-06
1.60668e-06
-1.42354e-06
1.53682e-06
-1.66576e-06
1.41363e-06
-1.87227e-06
1.22275e-06
-2.03527e-06
9.78666e-07
-2.14993e-06
6.91567e-07
-2.20947e-06
3.55321e-07
-2.20686e-06
-2.97526e-08
-2.14106e-06
-4.38828e-07
-2.01712e-06
-8.42302e-07
-1.8444e-06
-1.2136e-06
-1.63653e-06
-1.51524e-06
-1.40566e-06
-1.68721e-06
-1.13532e-06
-1.62991e-06
-7.39209e-07
-1.2289e-06
-2.20948e-07
-7.16642e-07
2.43149e-07
-4.90781e-07
4.58549e-07
-6.00875e-07
3.90113e-07
-7.89434e-07
-1.24625e-06
-3.01079e-07
1.73037e-06
-6.14493e-07
1.88117e-06
-9.09331e-07
1.92198e-06
-1.18606e-06
1.88341e-06
-1.44748e-06
1.79825e-06
-1.68628e-06
1.65244e-06
-1.88813e-06
1.4246e-06
-2.04606e-06
1.13661e-06
-2.15698e-06
8.02485e-07
-2.2144e-06
4.12744e-07
-2.21066e-06
-3.34916e-08
-2.14477e-06
-5.04719e-07
-2.02137e-06
-9.65699e-07
-1.8473e-06
-1.38767e-06
-1.63063e-06
-1.73191e-06
-1.37417e-06
-1.94367e-06
-1.05559e-06
-1.94849e-06
-6.10211e-07
-1.67428e-06
-4.86352e-08
-1.27822e-06
4.86696e-07
-1.02612e-06
8.26694e-07
-9.40883e-07
8.43592e-07
-8.06337e-07
-4.02667e-07
-3.12201e-07
2.04258e-06
-6.31869e-07
2.20084e-06
-9.26916e-07
2.21703e-06
-1.19905e-06
2.15555e-06
-1.45547e-06
2.05466e-06
-1.68966e-06
1.88663e-06
-1.88523e-06
1.62016e-06
-2.03611e-06
1.28749e-06
-2.1415e-06
9.07865e-07
-2.19519e-06
4.6644e-07
-2.18845e-06
-4.02392e-08
-2.12071e-06
-5.7245e-07
-1.99566e-06
-1.09076e-06
-1.81715e-06
-1.56618e-06
-1.58806e-06
-1.961e-06
-1.30433e-06
-2.2274e-06
-9.41566e-07
-2.31126e-06
-4.50182e-07
-2.16566e-06
1.59605e-07
-1.88801e-06
7.8141e-07
-1.64792e-06
1.28496e-06
-1.44443e-06
1.4206e-06
-9.41972e-07
1.01793e-06
1.25122e-09
-1.25119e-09
1.73271e-06
-1.73146e-06
3.57277e-06
-1.84007e-06
4.97458e-06
-1.40181e-06
5.85137e-06
-8.76786e-07
6.20687e-06
-3.55503e-07
5.95816e-06
2.48715e-07
5.15801e-06
8.00149e-07
4.0141e-06
1.14391e-06
3.32279e-06
6.91316e-07
3.23205e-06
9.07436e-08
2.07426e-06
1.15778e-06
6.61285e-07
1.41298e-06
5.36841e-07
1.24448e-07
2.30811e-06
-1.77127e-06
3.89883e-06
-1.59072e-06
3.26734e-06
6.31487e-07
1.13482e-06
2.13252e-06
1.13482e-06
6.08819e-07
-6.1007e-07
2.11992e-06
-3.24256e-06
3.58008e-06
-3.30023e-06
4.64385e-06
-2.46559e-06
5.26751e-06
-1.50044e-06
5.52914e-06
-6.17136e-07
5.39739e-06
3.80467e-07
4.80283e-06
1.39472e-06
3.99109e-06
1.95564e-06
3.32322e-06
1.35919e-06
2.8531e-06
5.60859e-07
2.07986e-06
1.93102e-06
1.40741e-06
2.08544e-06
1.34641e-06
1.85448e-07
2.16992e-06
-2.59478e-06
3.23894e-06
-2.65975e-06
3.00143e-06
8.69003e-07
1.48294e-06
3.65101e-06
2.61776e-06
8.32536e-07
-1.44261e-06
2.30951e-06
-4.71954e-06
3.55405e-06
-4.54476e-06
4.36867e-06
-3.28021e-06
4.80599e-06
-1.93775e-06
4.96315e-06
-7.74294e-07
4.79981e-06
5.43802e-07
4.31463e-06
1.87989e-06
3.70101e-06
2.56926e-06
3.09887e-06
1.96132e-06
2.52421e-06
1.13552e-06
2.08497e-06
2.37027e-06
1.78431e-06
2.3861e-06
1.80679e-06
1.62966e-07
1.996e-06
-2.78399e-06
2.57711e-06
-3.24086e-06
2.6954e-06
7.50715e-07
1.533e-06
4.81341e-06
4.15076e-06
8.97428e-07
-2.34004e-06
2.45448e-06
-6.27659e-06
3.52939e-06
-5.61967e-06
4.12993e-06
-3.88075e-06
4.41103e-06
-2.21884e-06
4.4924e-06
-8.55667e-07
4.3218e-06
7.14396e-07
3.92278e-06
2.27891e-06
3.4521e-06
3.03994e-06
2.91312e-06
2.5003e-06
2.33476e-06
1.71387e-06
2.14467e-06
2.56035e-06
2.06876e-06
2.46202e-06
2.01975e-06
2.11978e-07
1.80007e-06
-2.56432e-06
1.92289e-06
-3.36367e-06
2.42998e-06
2.43633e-07
1.67992e-06
5.56347e-06
5.83068e-06
1.11135e-06
-3.45138e-06
2.68235e-06
-7.84759e-06
3.53581e-06
-6.47312e-06
3.91507e-06
-4.26001e-06
4.04901e-06
-2.35278e-06
4.07731e-06
-8.83965e-07
3.92588e-06
8.65829e-07
3.603e-06
2.60179e-06
3.24959e-06
3.39335e-06
2.79796e-06
2.95193e-06
2.29901e-06
2.21282e-06
2.22092e-06
2.63844e-06
2.26932e-06
2.41362e-06
2.07841e-06
4.02892e-07
1.5847e-06
-2.07061e-06
1.333e-06
-3.11198e-06
2.01089e-06
-4.34261e-07
1.94357e-06
5.63079e-06
7.77425e-06
1.75967e-06
-5.21105e-06
3.08189e-06
-9.1698e-06
3.57387e-06
-6.9651e-06
3.7071e-06
-4.39324e-06
3.69819e-06
-2.34388e-06
3.69349e-06
-8.79258e-07
3.58451e-06
9.74814e-07
3.34394e-06
2.84235e-06
3.09753e-06
3.63976e-06
2.75331e-06
3.29616e-06
2.38083e-06
2.58531e-06
2.33779e-06
2.68147e-06
2.38473e-06
2.36668e-06
2.07245e-06
7.15175e-07
1.3896e-06
-1.38776e-06
8.52105e-07
-2.57448e-06
1.35926e-06
-9.4142e-07
2.25898e-06
4.73107e-06
1.00332e-05
2.95905e-06
-8.1701e-06
3.62824e-06
-9.83899e-06
3.60885e-06
-6.94571e-06
3.48371e-06
-4.26811e-06
3.3374e-06
-2.19756e-06
3.31661e-06
-8.58473e-07
3.27364e-06
1.01778e-06
3.13259e-06
2.9834e-06
2.99694e-06
3.77541e-06
2.77368e-06
3.51942e-06
2.52371e-06
2.83528e-06
2.49914e-06
2.70604e-06
2.46373e-06
2.40208e-06
2.05331e-06
1.1256e-06
1.23928e-06
-5.73736e-07
4.82396e-07
-1.81759e-06
6.05061e-07
-1.06408e-06
1.90122e-06
3.43491e-06
1.19345e-05
4.50892e-06
-1.2679e-05
4.1633e-06
-9.49337e-06
3.57605e-06
-6.35846e-06
3.22364e-06
-3.9157e-06
2.95834e-06
-1.93226e-06
2.90743e-06
-8.07556e-07
2.9681e-06
9.57117e-07
2.96644e-06
2.98506e-06
2.95427e-06
3.78758e-06
2.84761e-06
3.62608e-06
2.72724e-06
2.95564e-06
2.67864e-06
2.75464e-06
2.55081e-06
2.5299e-06
2.05708e-06
1.61933e-06
1.14919e-06
3.34156e-07
2.02978e-07
-8.71386e-07
-1.00418e-07
-7.6069e-07
8.6452e-07
2.46997e-06
1.2799e-05
-6.53526e-07
2.69611e-06
-1.35175e-06
2.89907e-06
-1.98018e-06
2.84547e-06
-2.53489e-06
2.71026e-06
-3.06024e-06
2.58001e-06
-3.54493e-06
2.37132e-06
-3.93525e-06
2.01049e-06
-4.22552e-06
1.57776e-06
-4.425e-06
1.10734e-06
-4.52213e-06
5.6357e-07
-4.48916e-06
-7.32057e-08
-4.33298e-06
-7.2863e-07
-4.05694e-06
-1.3668e-06
-3.65766e-06
-1.96546e-06
-3.12607e-06
-2.49258e-06
-2.43921e-06
-2.91426e-06
-1.54369e-06
-3.20677e-06
-3.59245e-07
-3.3501e-06
1.10929e-06
-3.35654e-06
2.75746e-06
-3.2961e-06
4.51503e-06
-3.202e-06
6.60406e-06
-3.031e-06
-2.72417e-06
1.03462e-05
-5.20236e-07
3.21635e-06
-1.17756e-06
3.5564e-06
-1.78226e-06
3.45016e-06
-2.31907e-06
3.24707e-06
-2.83495e-06
3.09589e-06
-3.31052e-06
2.84689e-06
-3.68367e-06
2.38363e-06
-3.932e-06
1.8261e-06
-4.07062e-06
1.24596e-06
-4.10104e-06
5.93983e-07
-4.0232e-06
-1.51039e-07
-3.84018e-06
-9.11649e-07
-3.54774e-06
-1.65924e-06
-3.12937e-06
-2.38383e-06
-2.56223e-06
-3.05972e-06
-1.80795e-06
-3.66854e-06
-8.09538e-07
-4.20519e-06
4.88071e-07
-4.64771e-06
2.07575e-06
-4.94422e-06
3.92416e-06
-5.14452e-06
6.00887e-06
-5.2867e-06
8.3504e-06
-5.37253e-06
-5.46048e-06
1.10867e-05
-4.78087e-07
3.69444e-06
-6.71248e-07
3.74956e-06
-1.238e-06
4.01693e-06
-2.04352e-06
4.05261e-06
-2.63929e-06
3.69167e-06
-2.92069e-06
3.1283e-06
-3.26038e-06
2.72333e-06
-3.51773e-06
2.08346e-06
-3.53523e-06
1.26346e-06
-3.37103e-06
4.29786e-07
-3.17105e-06
-3.51013e-07
-2.96019e-06
-1.12251e-06
-2.65494e-06
-1.96449e-06
-2.24364e-06
-2.79513e-06
-1.68794e-06
-3.61542e-06
-8.96497e-07
-4.45999e-06
1.94764e-07
-5.29645e-06
1.54351e-06
-5.99647e-06
3.05053e-06
-6.45125e-06
4.83905e-06
-6.93303e-06
6.92272e-06
-7.37037e-06
9.10157e-06
-7.55138e-06
-7.41848e-06
1.10596e-05
-4.19721e-06
7.89162e-06
5.47594e-07
-9.95279e-07
-6.22427e-09
4.57078e-06
-2.61442e-06
6.66088e-06
-3.82958e-06
4.90683e-06
-2.49437e-06
1.79307e-06
-2.991e-06
3.21996e-06
-3.86227e-06
2.95472e-06
-3.50048e-06
9.01667e-07
-2.4998e-06
-5.70894e-07
-1.9908e-06
-8.60011e-07
-1.81729e-06
-1.29605e-06
-1.35894e-06
-2.42284e-06
-8.86765e-07
-3.26728e-06
-3.49687e-07
-4.15248e-06
7.21284e-07
-5.53095e-06
2.38223e-06
-6.95741e-06
4.16949e-06
-7.78373e-06
4.8127e-06
-7.09447e-06
5.84473e-06
-7.96508e-06
7.65344e-06
-9.17909e-06
8.64237e-06
-8.54032e-06
-7.05228e-06
8.2762e-06
-1.09411e-05
1.88328e-05
-1.87415e-06
-1.00627e-05
2.32601e-07
2.46395e-06
-1.09017e-05
1.77951e-05
-1.53632e-05
9.36838e-06
-1.20955e-05
-1.47461e-06
-9.32038e-06
4.44902e-07
-6.82647e-06
4.60824e-07
-3.96387e-06
-1.96092e-06
-6.86569e-07
-3.8482e-06
1.79293e-06
-3.33953e-06
3.58563e-06
-3.08875e-06
5.48953e-06
-4.32673e-06
7.38632e-06
-5.16406e-06
9.79369e-06
-6.55985e-06
1.33371e-05
-9.07438e-06
1.69134e-05
-1.05338e-05
2.00431e-05
-1.09135e-05
1.87363e-05
-5.78769e-06
1.56208e-05
-4.84959e-06
1.2843e-05
-6.40128e-06
6.41946e-06
-2.11684e-06
-2.28753e-06
1.65461e-06
-7.03623e-07
1.95369e-05
-2.45246e-06
-8.31387e-06
-6.39452e-07
6.51039e-07
-4.18547e-06
2.13412e-05
-6.48859e-06
1.16715e-05
-6.0952e-06
-1.86801e-06
-2.72408e-06
-2.92622e-06
1.49495e-06
-3.75823e-06
3.28155e-06
-3.74753e-06
3.62596e-06
-4.19263e-06
4.30861e-06
-4.02219e-06
5.91472e-06
-4.69489e-06
7.35751e-06
-5.76953e-06
8.55467e-06
-6.36123e-06
1.03603e-05
-8.36548e-06
1.26487e-05
-1.13629e-05
1.3755e-05
-1.16401e-05
1.41029e-05
-1.12614e-05
1.57515e-05
-7.43637e-06
1.43341e-05
-3.43218e-06
1.00715e-05
-2.13866e-06
5.8401e-06
2.11464e-06
-5.04543e-07
4.0569e-06
5.18766e-06
1.43491e-05
-3.67158e-06
5.45362e-07
-5.04328e-06
2.02274e-06
1.30696e-06
1.4991e-05
5.49535e-06
7.48318e-06
5.42613e-06
-1.79879e-06
6.51797e-06
-4.01804e-06
7.93745e-06
-5.1777e-06
9.12816e-06
-4.93824e-06
7.24133e-06
-2.30582e-06
6.43967e-06
-3.22054e-06
7.15359e-06
-5.40882e-06
8.05306e-06
-6.66901e-06
8.81676e-06
-7.1249e-06
9.05835e-06
-8.60704e-06
7.36364e-06
-9.66819e-06
5.20301e-06
-9.47939e-06
2.37544e-06
-8.43382e-06
5.04867e-06
-1.01097e-05
8.82396e-06
-7.20753e-06
9.70671e-06
-3.02148e-06
9.51671e-06
2.30502e-06
4.47564e-07
8.5648e-06
2.70696e-06
1.1642e-05
-5.07108e-06
8.32343e-06
-6.99647e-06
3.94809e-06
1.75428e-06
6.24027e-06
9.00878e-06
2.28661e-07
1.24579e-05
-5.24791e-06
1.35014e-05
-5.06155e-06
1.02264e-05
-1.90264e-06
7.41695e-06
-2.12873e-06
6.59898e-06
-1.48782e-06
5.90716e-06
-2.52871e-06
4.98464e-06
-4.48628e-06
4.2344e-06
-5.91871e-06
3.79829e-06
-6.68872e-06
2.58069e-06
-7.38941e-06
7.74446e-07
-7.86193e-06
-6.56583e-07
-8.04828e-06
-1.2746e-06
-7.81558e-06
-1.09245e-07
-1.12749e-05
3.35895e-06
-1.06758e-05
6.69406e-06
-6.35684e-06
8.86985e-06
1.29154e-07
2.08628e-06
7.23112e-06
2.07915e-07
1.14341e-05
-1.34309e-06
9.87439e-06
-2.1407e-06
4.7457e-06
3.44658e-06
6.5304e-07
8.52973e-06
-4.85449e-06
9.83832e-06
-6.5565e-06
8.30188e-06
-3.52506e-06
7.10343e-06
-7.04108e-07
5.39235e-06
-4.17589e-07
4.54856e-06
-6.44023e-07
3.89401e-06
-1.87416e-06
2.97525e-06
-3.56748e-06
2.01642e-06
-4.9598e-06
1.19202e-06
-5.86424e-06
2.77462e-07
-6.47481e-06
-6.07038e-07
-6.97748e-06
-1.28787e-06
-7.36759e-06
-9.76295e-07
-8.12722e-06
-1.37025e-06
-1.08808e-05
-5.64414e-07
-1.14816e-05
1.11021e-06
-8.0313e-06
3.08603e-06
-1.84647e-06
1.94311e-06
3.22933e-06
2.7411e-06
8.69302e-06
4.48371e-06
8.13177e-06
5.64959e-06
3.57979e-06
7.0227e-06
-7.2005e-07
6.35309e-06
-4.18487e-06
4.57887e-06
-4.78225e-06
3.61101e-06
-2.55715e-06
3.24993e-06
-3.43007e-07
2.73064e-06
1.01678e-07
2.36965e-06
-2.83083e-07
1.90547e-06
-1.41006e-06
1.18308e-06
-2.84515e-06
3.47672e-07
-4.12441e-06
-4.07591e-07
-5.10899e-06
-1.0082e-06
-5.87418e-06
-1.42952e-06
-6.55605e-06
-1.51053e-06
-7.28647e-06
-1.26911e-06
-8.36855e-06
-2.04995e-06
-1.00999e-05
-3.34893e-06
-1.01826e-05
-3.82286e-06
-7.55735e-06
-2.65528e-06
-3.01415e-06
4.27257e-07
-1.13967e-06
3.66749e-06
5.02557e-06
6.10415e-06
5.69513e-06
6.72962e-06
2.95434e-06
6.15097e-06
-1.41403e-07
4.29841e-06
-2.33229e-06
2.1587e-06
-2.64249e-06
9.50879e-07
-1.34926e-06
6.2015e-07
-1.2229e-08
4.19036e-07
3.02795e-07
2.51589e-07
-1.15649e-07
-7.24854e-08
-1.08599e-06
-6.03369e-07
-2.31427e-06
-1.22904e-06
-3.49877e-06
-1.80307e-06
-4.53503e-06
-2.25007e-06
-5.42726e-06
-2.54947e-06
-6.25665e-06
-2.72404e-06
-7.1119e-06
-3.02516e-06
-8.0675e-06
-4.11721e-06
-9.00802e-06
-5.54192e-06
-8.75804e-06
-6.3541e-06
-6.74527e-06
-5.80933e-06
-3.55899e-06
-8.46735e-07
-4.53537e-06
2.67977e-06
2.34584e-06
4.54165e-06
3.83328e-06
4.85943e-06
2.63661e-06
3.87543e-06
8.42615e-07
2.0601e-06
-5.16919e-07
2.149e-07
-7.97251e-07
-9.33528e-07
-2.00786e-07
-1.3718e-06
4.26067e-07
-1.56728e-06
4.98255e-07
-1.71432e-06
3.1385e-08
-1.95669e-06
-8.43575e-07
-2.34178e-06
-1.92909e-06
-2.79498e-06
-3.04549e-06
-3.24123e-06
-4.08873e-06
-3.63289e-06
-5.0356e-06
-3.97993e-06
-5.90956e-06
-4.36265e-06
-6.72909e-06
-4.97136e-06
-7.45877e-06
-6.07389e-06
-7.90557e-06
-7.34432e-06
-7.48773e-06
-8.11341e-06
-5.97622e-06
-7.95124e-06
-3.7211e-06
-1.66395e-06
-7.13389e-06
1.14387e-06
1.20202e-06
2.05393e-06
2.92326e-06
2.05122e-06
2.63934e-06
1.1638e-06
1.73005e-06
-2.705e-07
9.17413e-07
-1.68789e-06
6.20169e-07
-2.64431e-06
7.55675e-07
-3.11783e-06
8.99626e-07
-3.34585e-06
7.26299e-07
-3.50237e-06
1.87926e-07
-3.70012e-06
-6.45768e-07
-3.97866e-06
-1.65046e-06
-4.32111e-06
-2.70295e-06
-4.69106e-06
-3.71876e-06
-5.07109e-06
-4.65562e-06
-5.48383e-06
-5.49684e-06
-5.99676e-06
-6.21611e-06
-6.71302e-06
-6.74242e-06
-7.70391e-06
-6.91458e-06
-8.73695e-06
-6.45466e-06
-9.42025e-06
-5.29291e-06
-9.47647e-06
-3.66486e-06
-2.10714e-06
-9.03323e-06
-2.23324e-07
1.42535e-06
-1.92222e-07
2.89221e-06
-5.30091e-07
2.97718e-06
-1.32866e-06
2.52859e-06
-2.41543e-06
2.00415e-06
-3.46628e-06
1.67099e-06
-4.22664e-06
1.51601e-06
-4.6658e-06
1.33876e-06
-4.90293e-06
9.63416e-07
-5.05964e-06
3.44632e-07
-5.2243e-06
-4.81095e-07
-5.43997e-06
-1.43478e-06
-5.71301e-06
-2.42991e-06
-6.03587e-06
-3.39594e-06
-6.40836e-06
-4.28322e-06
-6.85119e-06
-5.05412e-06
-7.40389e-06
-5.66347e-06
-8.1062e-06
-6.04014e-06
-8.94639e-06
-6.07435e-06
-9.76341e-06
-5.63761e-06
-1.03337e-05
-4.72262e-06
-1.04914e-05
-3.50728e-06
-2.29336e-06
-1.03052e-05
-1.21386e-06
2.63921e-06
-1.87539e-06
3.55378e-06
-2.51881e-06
3.62059e-06
-3.30299e-06
3.31273e-06
-4.17419e-06
2.87532e-06
-4.97559e-06
2.47233e-06
-5.57611e-06
2.11648e-06
-5.95498e-06
1.71758e-06
-6.17745e-06
1.18584e-06
-6.32533e-06
4.92514e-07
-6.46599e-06
-3.40393e-07
-6.64087e-06
-1.25984e-06
-6.86825e-06
-2.20247e-06
-7.1549e-06
-3.10924e-06
-7.50776e-06
-3.93036e-06
-7.94039e-06
-4.62153e-06
-8.46898e-06
-5.13497e-06
-9.09691e-06
-5.4123e-06
-9.78589e-06
-5.3854e-06
-1.04251e-05
-4.99841e-06
-1.08754e-05
-4.27231e-06
-1.10551e-05
-3.32763e-06
-2.34174e-06
-1.10068e-05
-1.83729e-06
4.47655e-06
-2.97709e-06
4.69366e-06
-3.87011e-06
4.51364e-06
-4.68519e-06
4.12782e-06
-5.44627e-06
3.6364e-06
-6.09779e-06
3.12385e-06
-6.58636e-06
2.60503e-06
-6.90903e-06
2.04022e-06
-7.10897e-06
1.38574e-06
-7.24383e-06
6.27367e-07
-7.36577e-06
-2.18411e-07
-7.51217e-06
-1.11334e-06
-7.70537e-06
-2.00916e-06
-7.95771e-06
-2.85677e-06
-8.27736e-06
-3.6106e-06
-8.67074e-06
-4.22806e-06
-9.13903e-06
-4.66667e-06
-9.66847e-06
-4.88289e-06
-1.0217e-05
-4.83687e-06
-1.07073e-05
-4.50813e-06
-1.10551e-05
-3.92453e-06
-1.12135e-05
-3.1692e-06
-2.35397e-06
-1.12013e-05
-2.15746e-06
6.63408e-06
-3.58522e-06
6.12153e-06
-4.64717e-06
5.57568e-06
-5.50315e-06
4.98385e-06
-6.21361e-06
4.3469e-06
-6.78083e-06
3.69111e-06
-7.19807e-06
3.02232e-06
-7.4785e-06
2.32068e-06
-7.65764e-06
1.56486e-06
-7.77991e-06
7.49595e-07
-7.88714e-06
-1.112e-07
-8.01208e-06
-9.88408e-07
-8.17682e-06
-1.84437e-06
-8.39466e-06
-2.63886e-06
-8.67244e-06
-3.33272e-06
-9.01131e-06
-3.88909e-06
-9.40441e-06
-4.27352e-06
-9.83193e-06
-4.45536e-06
-1.02562e-05
-4.41257e-06
-1.0623e-05
-4.14132e-06
-1.08789e-05
-3.66869e-06
-1.09946e-05
-3.05352e-06
-2.37026e-06
-1.09783e-05
-2.24409e-06
8.87824e-06
-3.80084e-06
7.67839e-06
-4.94773e-06
6.72264e-06
-5.82675e-06
5.86291e-06
-6.50874e-06
5.02894e-06
-7.02649e-06
4.20894e-06
-7.39894e-06
3.39487e-06
-7.65016e-06
2.57199e-06
-7.81335e-06
1.72809e-06
-7.9256e-06
8.61819e-07
-8.0217e-06
-1.51667e-08
-8.1299e-06
-8.80298e-07
-8.27022e-06
-1.70413e-06
-8.45473e-06
-2.4544e-06
-8.68835e-06
-3.09911e-06
-8.96899e-06
-3.60844e-06
-9.2864e-06
-3.95609e-06
-9.6203e-06
-4.12147e-06
-9.93952e-06
-4.09335e-06
-1.02054e-05
-3.87543e-06
-1.03825e-05
-3.49162e-06
-1.04512e-05
-2.9848e-06
-2.40699e-06
-1.04144e-05
-2.16033e-06
1.10386e-05
-3.71635e-06
9.23452e-06
-4.87034e-06
7.87668e-06
-5.73774e-06
6.73032e-06
-6.38995e-06
5.68119e-06
-6.87113e-06
4.6902e-06
-7.21215e-06
3.736e-06
-7.44253e-06
2.80251e-06
-7.59412e-06
1.87979e-06
-7.69927e-06
9.67009e-07
-7.78755e-06
7.30862e-08
-7.88309e-06
-7.84826e-07
-8.00319e-06
-1.58412e-06
-8.15798e-06
-2.2997e-06
-8.35061e-06
-2.90656e-06
-8.57732e-06
-3.38178e-06
-8.82716e-06
-3.70629e-06
-9.08176e-06
-3.86691e-06
-9.31618e-06
-3.85895e-06
-9.50233e-06
-3.68927e-06
-9.61567e-06
-3.37827e-06
-9.64223e-06
-2.95824e-06
-2.46719e-06
-9.58201e-06
-1.95854e-06
1.29972e-05
-3.4102e-06
1.06863e-05
-4.50055e-06
8.96705e-06
-5.31792e-06
7.54768e-06
-5.92663e-06
6.28992e-06
-6.37077e-06
5.13437e-06
-6.68418e-06
4.04951e-06
-6.89735e-06
3.01582e-06
-7.04e-06
2.02259e-06
-7.14049e-06
1.06761e-06
-7.22403e-06
1.56692e-07
-7.311e-06
-6.97847e-07
-7.41583e-06
-1.47931e-06
-7.54661e-06
-2.16896e-06
-7.7051e-06
-2.7481e-06
-7.88688e-06
-3.20002e-06
-8.08162e-06
-3.51158e-06
-8.27358e-06
-3.67497e-06
-8.44307e-06
-3.68948e-06
-8.56925e-06
-3.56309e-06
-8.6344e-06
-3.3131e-06
-8.628e-06
-2.96464e-06
-2.5467e-06
-8.54849e-06
-1.67319e-06
1.46705e-05
-2.94462e-06
1.19578e-05
-3.91224e-06
9.9347e-06
-4.6441e-06
8.27956e-06
-5.19098e-06
6.83682e-06
-5.59091e-06
5.53433e-06
-5.87497e-06
4.33362e-06
-6.07119e-06
3.21214e-06
-6.20594e-06
2.15747e-06
-6.30357e-06
1.16538e-06
-6.38525e-06
2.38476e-07
-6.46778e-06
-6.15237e-07
-6.56283e-06
-1.38421e-06
-6.67656e-06
-2.05519e-06
-6.80965e-06
-2.61498e-06
-6.95758e-06
-3.05207e-06
-7.1111e-06
-3.35806e-06
-7.25707e-06
-3.529e-06
-7.37997e-06
-3.5666e-06
-7.46398e-06
-3.47907e-06
-7.49585e-06
-3.28123e-06
-7.46726e-06
-2.99326e-06
-2.6381e-06
-7.3759e-06
-1.32725e-06
1.59978e-05
-2.36633e-06
1.2997e-05
-3.16882e-06
1.07372e-05
-3.78544e-06
8.89624e-06
-4.25316e-06
7.30459e-06
-4.6e-06
5.88121e-06
-4.85068e-06
4.58433e-06
-5.02847e-06
3.38999e-06
-5.15536e-06
2.28445e-06
-5.25141e-06
1.26152e-06
-5.33378e-06
3.20943e-07
-5.41588e-06
-5.33066e-07
-5.5067e-06
-1.29332e-06
-5.61061e-06
-1.95121e-06
-5.72743e-06
-2.4981e-06
-5.85274e-06
-2.92673e-06
-5.97844e-06
-3.23235e-06
-6.09366e-06
-3.41379e-06
-6.18604e-06
-3.47425e-06
-6.24333e-06
-3.42181e-06
-6.25528e-06
-3.26932e-06
-6.21511e-06
-3.03348e-06
-2.73308e-06
-6.12021e-06
-9.37119e-07
1.6935e-05
-1.71289e-06
1.37728e-05
-2.32124e-06
1.13457e-05
-2.80285e-06
9.37794e-06
-3.17896e-06
7.68077e-06
-3.46545e-06
6.16774e-06
-3.6788e-06
4.79769e-06
-3.8363e-06
3.54751e-06
-3.95492e-06
2.40311e-06
-4.05024e-06
1.35688e-06
-4.13545e-06
4.06196e-07
-4.22064e-06
-4.4785e-07
-4.31228e-06
-1.20167e-06
-4.41306e-06
-1.8504e-06
-4.52202e-06
-2.38912e-06
-4.63486e-06
-2.81388e-06
-4.74454e-06
-3.12271e-06
-4.842e-06
-3.31637e-06
-4.91728e-06
-3.39902e-06
-4.96067e-06
-3.37846e-06
-4.96403e-06
-3.26601e-06
-4.92173e-06
-3.07585e-06
-2.82381e-06
-4.83106e-06
-4.98225e-07
1.74332e-05
-1.00516e-06
1.42799e-05
-1.41403e-06
1.17547e-05
-1.75119e-06
9.71521e-06
-2.03015e-06
7.9598e-06
-2.25204e-06
6.38968e-06
-2.42522e-06
4.97088e-06
-2.56081e-06
3.68309e-06
-2.6706e-06
2.51289e-06
-2.76563e-06
1.45191e-06
-2.85521e-06
4.95766e-07
-2.94623e-06
-3.56861e-07
-3.04274e-06
-1.10519e-06
-3.14586e-06
-1.74731e-06
-3.25389e-06
-2.28111e-06
-3.36264e-06
-2.70517e-06
-3.46586e-06
-3.01954e-06
-3.55595e-06
-3.22634e-06
-3.62474e-06
-3.3303e-06
-3.66438e-06
-3.33888e-06
-3.66823e-06
-3.2622e-06
-3.63153e-06
-3.1126e-06
-2.90373e-06
-3.55163e-06
-1.58128e-08
1.74491e-05
-2.54514e-07
1.45187e-05
-4.84058e-07
1.19843e-05
-6.84671e-07
9.91591e-06
-8.65218e-07
8.14042e-06
-1.02086e-06
6.54535e-06
-1.15214e-06
5.10218e-06
-1.2645e-06
3.79544e-06
-1.36469e-06
2.61307e-06
-1.45934e-06
1.54654e-06
-1.55398e-06
5.90377e-07
-1.65246e-06
-2.58437e-07
-1.75654e-06
-1.00116e-06
-1.86587e-06
-1.63802e-06
-1.97804e-06
-2.16897e-06
-2.08888e-06
-2.59437e-06
-2.19278e-06
-2.91569e-06
-2.28321e-06
-3.13595e-06
-2.35339e-06
-3.26017e-06
-2.39681e-06
-3.29548e-06
-2.40795e-06
-3.25106e-06
-2.38271e-06
-3.13784e-06
-2.96783e-06
-2.31859e-06
5.13725e-07
1.69355e-05
4.86248e-07
1.45463e-05
4.26714e-07
1.20439e-05
3.48501e-07
9.9942e-06
2.61916e-07
8.22706e-06
1.72421e-07
6.63488e-06
8.39142e-08
5.1907e-06
-4.06446e-09
3.88343e-06
-9.35687e-08
2.70258e-06
-1.87024e-07
1.63999e-06
-2.86392e-07
6.8973e-07
-3.92644e-07
-1.52214e-07
-5.0544e-07
-8.88396e-07
-6.23049e-07
-1.52043e-06
-7.42403e-07
-2.04962e-06
-8.5928e-07
-2.4775e-06
-9.68549e-07
-2.80643e-06
-1.06453e-06
-3.03997e-06
-1.14143e-06
-3.18327e-06
-1.19378e-06
-3.24311e-06
-1.21689e-06
-3.22793e-06
-1.20713e-06
-3.14755e-06
-3.01273e-06
-1.16218e-06
9.14536e-07
1.6021e-05
1.16069e-06
1.43002e-05
1.2644e-06
1.19403e-05
1.30158e-06
9.95709e-06
1.3034e-06
8.22528e-06
1.27909e-06
6.65923e-06
1.23378e-06
5.23604e-06
1.17138e-06
3.94585e-06
1.09416e-06
2.77984e-06
1.00357e-06
1.73061e-06
9.00956e-07
7.92367e-07
7.87972e-07
-3.92154e-08
6.66899e-07
-7.67309e-07
5.4071e-07
-1.39422e-06
4.13089e-07
-1.92196e-06
2.88329e-07
-2.35271e-06
1.712e-07
-2.68926e-06
6.67392e-08
-2.93547e-06
-2.00347e-08
-3.09645e-06
-8.44001e-08
-3.1787e-06
-1.22256e-07
-3.19001e-06
-1.30364e-07
-3.13937e-06
-3.03652e-06
-1.06496e-07
1.19368e-06
1.48274e-05
1.70288e-06
1.37911e-05
1.9714e-06
1.16718e-05
2.1271e-06
9.80143e-06
2.21828e-06
8.13414e-06
2.25855e-06
6.619e-06
2.2571e-06
5.23754e-06
2.2219e-06
3.9811e-06
2.15919e-06
2.8426e-06
2.074e-06
1.81586e-06
1.97067e-06
8.95761e-07
1.85324e-06
7.82662e-08
1.72572e-06
-6.3973e-07
1.5922e-06
-1.26063e-06
1.45691e-06
-1.7866e-06
1.32421e-06
-2.21993e-06
1.19859e-06
-2.56357e-06
1.08457e-06
-2.82138e-06
9.86589e-07
-2.9984e-06
9.08823e-07
-3.10086e-06
8.5496e-07
-3.13609e-06
8.28e-07
-3.11235e-06
-3.03856e-06
8.30101e-07
1.32812e-06
1.34993e-05
2.06661e-06
1.30526e-05
2.50826e-06
1.12302e-05
2.79205e-06
9.51767e-06
2.97488e-06
7.95135e-06
3.08048e-06
6.51344e-06
3.12418e-06
5.19388e-06
3.1183e-06
3.98705e-06
3.07287e-06
2.8881e-06
2.99621e-06
1.89259e-06
2.89541e-06
9.96644e-07
2.77665e-06
1.97097e-07
2.6455e-06
-5.08498e-07
2.50702e-06
-1.12207e-06
2.36592e-06
-1.6454e-06
2.22658e-06
-2.08051e-06
2.09323e-06
-2.43013e-06
1.96997e-06
-2.69804e-06
1.86079e-06
-2.88915e-06
1.7695e-06
-3.0095e-06
1.69953e-06
-3.06607e-06
1.65379e-06
-3.06656e-06
-3.01917e-06
1.63444e-06
1.34614e-06
1.21532e-05
2.2635e-06
1.21353e-05
2.86992e-06
1.06238e-05
3.2812e-06
9.10641e-06
3.55652e-06
7.67606e-06
3.72832e-06
6.34168e-06
3.81841e-06
5.10383e-06
3.84379e-06
3.96172e-06
3.81825e-06
2.91371e-06
3.75321e-06
1.95772e-06
3.65823e-06
1.0917e-06
3.54147e-06
3.13932e-07
3.40987e-06
-3.76823e-07
3.26936e-06
-9.81479e-07
3.12498e-06
-1.50094e-06
2.98111e-06
-1.93655e-06
2.84166e-06
-2.29062e-06
2.71037e-06
-2.56668e-06
2.59088e-06
-2.7696e-06
2.48677e-06
-2.90534e-06
2.40139e-06
-2.98065e-06
2.33767e-06
-3.00282e-06
-2.97936e-06
2.29787e-06
1.30254e-06
1.08506e-05
2.34054e-06
1.10973e-05
3.08201e-06
9.88232e-06
3.6066e-06
8.58184e-06
3.96807e-06
7.31462e-06
4.20293e-06
6.10686e-06
4.33814e-06
4.96867e-06
4.3949e-06
3.905e-06
4.39044e-06
2.91823e-06
4.33894e-06
2.00928e-06
4.25224e-06
1.17846e-06
4.1402e-06
4.26033e-07
4.01099e-06
-2.4755e-07
3.87123e-06
-8.41665e-07
3.72623e-06
-1.35587e-06
3.58018e-06
-1.79045e-06
3.43664e-06
-2.14702e-06
3.29892e-06
-2.42891e-06
3.17039e-06
-2.64105e-06
3.05457e-06
-2.78949e-06
2.95487e-06
-2.88094e-06
2.8744e-06
-2.92235e-06
-2.92062e-06
2.81565e-06
1.24664e-06
9.60399e-06
2.35193e-06
9.99201e-06
3.18902e-06
9.04525e-06
3.80128e-06
7.96961e-06
4.23304e-06
6.88289e-06
4.52117e-06
5.81877e-06
4.6955e-06
4.79437e-06
4.78027e-06
3.82027e-06
4.79535e-06
2.9032e-06
4.75717e-06
2.04751e-06
4.67941e-06
1.25626e-06
4.57341e-06
5.32078e-07
4.44836e-06
-1.22451e-07
4.31142e-06
-7.04691e-07
4.16796e-06
-1.21238e-06
4.02185e-06
-1.64431e-06
3.87608e-06
-2.00123e-06
3.73347e-06
-2.28628e-06
3.59719e-06
-2.50475e-06
3.4708e-06
-2.6631e-06
3.35801e-06
-2.76816e-06
3.26224e-06
-2.8266e-06
-2.84471e-06
3.18629e-06
1.20792e-06
8.39607e-06
2.34359e-06
8.85636e-06
3.23701e-06
8.15186e-06
3.90552e-06
7.30113e-06
4.38465e-06
6.40379e-06
4.70991e-06
5.49355e-06
4.91224e-06
4.59208e-06
5.01751e-06
3.71503e-06
5.04721e-06
2.87353e-06
5.01929e-06
2.07546e-06
4.9488e-06
1.3268e-06
4.84817e-06
6.32735e-07
4.72741e-06
-1.66882e-09
4.59408e-06
-5.71351e-07
4.45343e-06
-1.07171e-06
4.30873e-06
-1.49961e-06
4.1621e-06
-1.85461e-06
4.01571e-06
-2.13989e-06
3.87257e-06
-2.36162e-06
3.73653e-06
-2.52709e-06
3.61179e-06
-2.64344e-06
3.50225e-06
-2.7171e-06
-2.7536e-06
3.41109e-06
1.19672e-06
7.19937e-06
2.34454e-06
7.70859e-06
3.26273e-06
7.2337e-06
3.95645e-06
6.60745e-06
4.45699e-06
5.90329e-06
4.79921e-06
5.15137e-06
5.01442e-06
4.37691e-06
5.12907e-06
3.60042e-06
5.16529e-06
2.83734e-06
5.14176e-06
2.09901e-06
5.0743e-06
1.39428e-06
4.97613e-06
7.30916e-07
4.85787e-06
1.166e-07
4.72736e-06
-4.40832e-07
4.58954e-06
-9.33905e-07
4.44679e-06
-1.35687e-06
4.29992e-06
-1.70776e-06
4.15015e-06
-1.99014e-06
4.00045e-06
-2.21195e-06
3.85528e-06
-2.38196e-06
3.71958e-06
-2.50778e-06
3.59788e-06
-2.59543e-06
-2.64951e-06
3.49373e-06
1.21179e-06
5.98761e-06
2.3682e-06
6.55223e-06
3.28991e-06
6.31204e-06
3.98233e-06
5.91507e-06
4.47901e-06
5.40665e-06
4.81673e-06
4.8137e-06
5.02766e-06
4.16601e-06
5.13833e-06
3.48978e-06
5.17073e-06
2.80496e-06
5.14352e-06
2.12624e-06
5.07272e-06
1.46509e-06
4.97198e-06
8.31666e-07
4.85238e-06
2.36195e-07
4.72205e-06
-3.10512e-07
4.58566e-06
-7.97533e-07
4.44437e-06
-1.2156e-06
4.29697e-06
-1.56039e-06
4.14332e-06
-1.83652e-06
3.98662e-06
-2.05529e-06
3.8324e-06
-2.22778e-06
3.68667e-06
-2.36209e-06
3.55465e-06
-2.46345e-06
-2.53508e-06
3.44017e-06
1.24541e-06
4.74222e-06
2.41565e-06
5.38206e-06
3.32963e-06
5.39811e-06
4.00062e-06
5.24413e-06
4.4711e-06
4.93622e-06
4.78389e-06
4.50096e-06
4.97351e-06
3.97643e-06
5.06653e-06
3.39678e-06
5.08415e-06
2.78735e-06
5.04424e-06
2.16617e-06
4.9624e-06
1.54694e-06
4.85232e-06
9.41742e-07
4.72556e-06
3.62954e-07
4.59079e-06
-1.75753e-07
4.45275e-06
-6.59515e-07
4.31128e-06
-1.07416e-06
4.16213e-06
-1.41127e-06
4.00303e-06
-1.67746e-06
3.83806e-06
-1.89035e-06
3.67459e-06
-2.06434e-06
3.52e-06
-2.20754e-06
3.38009e-06
-2.32358e-06
-2.41366e-06
3.25864e-06
1.28451e-06
3.45774e-06
2.47901e-06
4.18763e-06
3.38291e-06
4.49426e-06
4.0178e-06
4.6093e-06
4.44306e-06
4.51101e-06
4.71326e-06
4.2308e-06
4.86715e-06
3.82258e-06
4.93106e-06
3.33289e-06
4.92451e-06
2.79392e-06
4.86364e-06
2.22704e-06
4.76292e-06
1.64766e-06
4.63568e-06
1.06899e-06
4.49396e-06
5.04662e-07
4.34769e-06
-2.94907e-08
4.20274e-06
-5.14584e-07
4.05815e-06
-9.29598e-07
3.90494e-06
-1.25808e-06
3.73756e-06
-1.5101e-06
3.5623e-06
-1.71512e-06
3.38952e-06
-1.89158e-06
3.22808e-06
-2.04613e-06
3.08383e-06
-2.17936e-06
-2.28971e-06
2.95986e-06
1.32481e-06
2.13297e-06
2.55445e-06