/*--------------------------------*- C++ -*----------------------------------*\
  =========                 |
  \\      /  F ield         | OpenFOAM: The Open Source CFD Toolbox
   \\    /   O peration     | Website:  https://openfoam.org
    \\  /    A nd           | Version:  9
     \\/     M anipulation  |
\*---------------------------------------------------------------------------*/
FoamFile
{
    format      ascii;
    class       volScalarField;
    location    "1.55";
    object      alpha.water;
}
// * * * * * * * * * * * * * * * * * * * * * * * * * * * * * * * * * * * * * //

dimensions      [0 0 0 0 0 0 0];

internalField   nonuniform List<scalar> 
2268
(
1
1
1
1
1
1
1
1
1
1
1
1
1
1
1
1
0.997706
0.976354
0.976174
0.976189
0.997448
0.989358
0.98622
1
1
1
1
1
1
1
1
1
1
1
1
1
1
1
1
0.999027
0.977621
0.976174
0.982281
0.998827
0.998866
0.98622
1
1
1
1
1
1
1
1
1
1
1
1
1
1
1
1
0.999306
0.989714
0.983121
0.992775
0.999804
0.999994
0.98836
1
1
1
1
1
1
1
1
1
1
1
1
1
1
1
0.999999
0.999995
0.999976
0.99967
0.999894
0.999962
0.999995
0.995073
1
1
1
1
1
1
1
1
1
1
1
1
1
1
1
1
1
1
1
0.999995
0.999995
0.999995
0.999844
1
1
1
1
1
1
1
1
1
1
1
1
1
1
1
1
1
1
1
0.999952
0.999776
0.999763
0.99977
1
1
1
1
1
1
1
1
1
1
1
1
1
1
1
1
1
1
1
0.999988
0.999824
0.999763
0.99989
1
1
1
1
1
1
1
1
1
1
1
1
1
1
1
1
1
1
1
1
1
0.999998
0.999993
0.99804
0.997748
0.993272
0.979722
0.980651
0.987292
0.99615
0.997733
0.997734
0.997737
0.997741
0.994925
0.957089
0.953291
0.958721
0.976052
0.976076
0.966048
0.966125
0.99804
0.987321
0.971191
0.95337
0.953096
0.957846
0.982201
0.997716
0.997736
0.99774
0.997742
0.997742
0.976881
0.953291
0.958163
0.976085
0.962335
0.959659
0.96832
0.994466
0.98511
0.97865
0.977723
0.95166
0.948289
0.967332
0.996381
0.99774
0.997742
0.997742
0.997742
0.985797
0.953291
0.975393
0.976061
0.976084
0.961101
0.968324
0.981721
0.969481
0.941719
0.971281
0.959337
0.910686
0.948822
0.99592
0.96842
0.79595
0.645574
0.926004
0.984612
0.977419
0.981122
0.969856
0.863415
0.968322
0.968325
0.991461
0.961867
0.839854
0.838034
0.931379
0.844028
0.921421
0.995145
0.876515
0.505652
0.505063
0.730127
0.983159
0.98284
0.981204
0.798443
0.79814
0.965902
0.968322
0.999319
0.99989
0.871065
0.809015
0.867811
0.787068
0.707102
0.863619
0.849734
0.695072
0.50524
0.67864
0.982711
0.982478
0.982349
0.852351
0.798199
0.9539
0.968276
0.99989
0.999891
0.99989
0.915582
0.812556
0.7181
0.423211
0.417503
0.706874
0.773603
0.75772
0.37595
0.601421
0.972839
0.982193
0.981954
0.946972
0.953453
0.895111
0.999891
0.99989
0.999889
0.999874
0.885439
0.576109
0.413132
0.413196
0.63755
0.774573
0.774588
0.323914
0.308333
0.420905
0.772901
0.877264
0.853163
0.77018
0.565509
1
1
1
1
1
1
1
1
1
1
0.999999
0.999999
1
0.999999
0.999998
0.999998
0.999999
1
1
1
0.995305
0.984968
0.990384
0.999997
0.999996
0.999996
0.999995
0.999995
0.999993
0.999991
0.999988
0.999986
0.999985
0.999967
0.999958
0.999985
0.999987
0.999985
0.999968
0.999944
0.999952
0.999993
1
0.993153
0.982319
0.979804
0.802222
0.785668
0.769309
0.750746
0.733121
0.714889
0.688861
0.706953
0.730088
0.716362
0.732551
0.770078
0.801338
0.828576
0.851164
0.872753
0.899662
0.932789
0.964458
0.984182
0.986931
0.986102
0.985605
0.0761325
0.0844683
0.0753854
0.0623728
0.0512289
0.0430014
0.0448052
0.0556651
0.0633531
0.0602352
0.0628302
0.0706663
0.081291
0.0986335
0.119029
0.139553
0.168853
0.2165
0.281724
0.356708
0.437371
0.514794
0.547361
1.12504e-07
1.12072e-07
1.14437e-07
2.86867e-07
5.24824e-06
1.56394e-05
1.06697e-06
7.7212e-07
4.84434e-07
7.77353e-07
1.95861e-05
8.84344e-05
0.000197089
0.000286144
0.00030856
0.000317542
0.000337648
0.000372461
0.000411079
0.000434169
0.000455596
0.00052338
0.000628631
1.12169e-07
1.14437e-07
4.86225e-05
0.00149508
0.00403745
0.00403662
0.00370652
6.94856e-05
6.06059e-08
0.00366883
0.00807494
0.00950262
0.00713317
0.00150787
0.00112669
0.0020021
0.00378155
0.00356311
0.00207616
0.00229384
0.00787028
0.00812055
0.0106955
1.27933e-07
2.32432e-07
0.000724925
0.00149021
0.000746932
0.000432705
5.86812e-08
1.10835e-07
6.00473e-08
6.05824e-08
7.15635e-08
0.00549286
0.00671653
0.00206258
0.00121726
0.00545815
0.00753297
0.00759678
0.0076852
0.00778008
0.0098869
0.0169255
0.0195551
9.30695e-08
3.78165e-05
0.000336736
0.000210949
2.62953e-09
2.80094e-09
1.46417e-07
1.37884e-07
6.00454e-08
6.00473e-08
6.42359e-08
4.09669e-08
-1.22107e-12
0.00130714
0.00126172
0.0031861
0.00495411
0.00581098
0.00546309
0.00228869
0.000102394
0.000101381
0.0107642
9.12596e-08
4.20583e-06
1.47355e-08
3.20499e-09
2.41266e-09
1.40906e-07
3.61269e-07
3.61621e-07
3.02549e-07
1.05574e-06
1.28905e-06
1.58265e-07
-3.60748e-13
-6.72849e-13
-1.61559e-30
4.20596e-15
4.74588e-13
5.36838e-11
4.16174e-09
2.28538e-07
0.000556671
0.00291113
0.000886924
4.67274e-08
4.83585e-08
6.2828e-06
2.33398e-06
3.81489e-10
7.56642e-08
3.34034e-07
2.31323e-07
3.46369e-07
1.5925e-06
1.59263e-06
5.1094e-07
-2.36661e-12
-5.76182e-12
1.36186e-13
1.07892e-13
3.78679e-12
2.95309e-10
1.64613e-08
6.57505e-07
0.00101286
0.00988198
0.00906273
1.31387e-09
8.39214e-08
6.20148e-07
1.63208e-10
3.79925e-10
2.10297e-09
2.80753e-12
2.41328e-12
5.6871e-10
4.01289e-07
8.48475e-07
2.97387e-14
3.47586e-14
1.11937e-12
1.41474e-12
1.46388e-12
3.69975e-12
1.86725e-10
1.20936e-08
4.95938e-07
0.000337417
0.0112007
0.0146274
1.13629e-09
1.02904e-07
1.84499e-08
4.12938e-10
8.39255e-11
3.63013e-12
3.61255e-12
2.29644e-12
8.47379e-13
7.21828e-13
6.84919e-13
6.84124e-13
6.52802e-13
4.46728e-13
1.15404e-12
1.5988e-12
2.9071e-12
9.16306e-11
4.79009e-09
2.13074e-07
4.85592e-05
0.00820568
0.0146274
1.1089e-09
3.97946e-08
2.10831e-10
1.36619e-10
1.14589e-10
1.09867e-10
6.45053e-11
5.44253e-11
4.35464e-11
1.99107e-11
6.6753e-12
7.47701e-13
-4.46651e-13
-7.07759e-13
-4.27974e-13
0
2.13112e-13
1.58523e-11
1.62132e-09
4.11673e-08
1.84608e-06
0.00254373
0.0146274
7.1732e-10
4.65354e-11
4.80967e-11
5.5953e-11
6.09644e-11
6.59826e-11
6.81092e-11
6.53116e-11
4.94739e-11
2.58124e-11
8.00348e-12
9.98179e-14
-1.40279e-12
-1.86535e-12
-1.48227e-12
-4.92315e-13
-2.58689e-29
1.15681e-12
1.77424e-10
9.62192e-09
7.85288e-08
0.000107046
0.000802607
1.75569e-10
4.22031e-11
4.82655e-11
5.59743e-11
5.79057e-11
5.45955e-11
5.03668e-11
4.70125e-11
3.9458e-11
2.19134e-11
5.05792e-12
-6.1392e-13
-2.2342e-12
-2.86394e-12
-2.53813e-12
-1.45574e-12
3.18036e-34
6.77653e-14
5.89595e-12
4.33934e-08
7.71393e-07
1.33593e-09
1.42742e-10
3.69337e-11
4.21682e-11
4.92612e-11
5.57694e-11
5.76741e-11
5.56097e-11
4.99549e-11
4.3696e-11
3.43448e-11
1.75335e-11
3.19554e-12
-1.21234e-12
-2.97732e-12
-3.79961e-12
-3.64588e-12
-2.73719e-12
-1.34693e-12
3.78638e-16
1.34239e-12
1.75133e-09
4.93141e-08
1.20013e-07
1.17046e-07
2.95001e-11
4.20027e-11
4.88733e-11
5.38198e-11
5.56899e-11
5.48397e-11
4.70133e-11
3.54871e-11
2.28552e-11
9.91775e-12
1.05889e-12
-1.71605e-12
-3.48314e-12
-4.49968e-12
-4.58323e-12
-3.88672e-12
-2.7328e-12
-1.33775e-12
1.51752e-13
1.44014e-11
2.74902e-11
2.55923e-11
3.61901e-10
2.77812e-11
4.05002e-11
4.61224e-11
4.83789e-11
4.92398e-11
4.81513e-11
4.22272e-11
2.91426e-11
1.56448e-11
5.83333e-12
1.50007e-13
-1.82363e-12
-3.53556e-12
-4.69948e-12
-5.03381e-12
-4.60139e-12
-3.68626e-12
-2.56826e-12
-1.3645e-12
3.85883e-15
9.83536e-13
6.55338e-12
3.42783e-18
2.54658e-11
3.58622e-11
3.96745e-11
3.94606e-11
3.80837e-11
3.50795e-11
2.95591e-11
2.0664e-11
9.9623e-12
2.898e-12
-1.95632e-13
-1.62043e-12
-3.12198e-12
-4.28412e-12
-4.77462e-12
-4.59042e-12
-3.94469e-12
-3.07826e-12
-2.15768e-12
-1.23935e-12
-3.96339e-13
-9.19727e-16
3.94431e-34
2.174e-11
2.7941e-11
2.99865e-11
2.82945e-11
2.5152e-11
2.07077e-11
1.51445e-11
9.55048e-12
4.53746e-12
1.18054e-12
-2.42078e-13
-1.22557e-12
-2.40996e-12
-3.40069e-12
-3.89411e-12
-3.86033e-12
-3.44375e-12
-2.83015e-12
-2.16392e-12
-1.5199e-12
-9.10008e-13
-3.91448e-13
-3.96556e-15
1.593e-11
1.84824e-11
1.89144e-11
1.67522e-11
1.3289e-11
9.3386e-12
5.53653e-12
2.73513e-12
1.09622e-12
2.41316e-13
-1.90029e-13
-8.13647e-13
-1.64082e-12
-2.35386e-12
-2.73571e-12
-2.74645e-12
-2.48055e-12
-2.06987e-12
-1.62325e-12
-1.20902e-12
-8.51976e-13
-5.33012e-13
-2.74137e-13
8.12702e-12
9.15842e-12
8.85765e-12
7.19012e-12
4.83507e-12
2.71815e-12
1.22486e-12
4.46185e-13
1.22285e-13
0
-1.31372e-13
-4.94802e-13
-9.85291e-13
-1.42028e-12
-1.65345e-12
-1.65424e-12
-1.48334e-12
-1.22633e-12
-9.52683e-13
-7.07947e-13
-5.24792e-13
-3.69147e-13
-2.40954e-13
1.89537e-12
2.53751e-12
2.39167e-12
1.74235e-12
9.35957e-13
3.8799e-13
1.2518e-13
3.19637e-14
2.41775e-15
-2.15524e-14
-1.08045e-13
-2.80767e-13
-5.12496e-13
-7.33465e-13
-8.4803e-13
-8.35732e-13
-7.33306e-13
-5.90529e-13
-4.45453e-13
-3.19519e-13
-2.284e-13
-1.68934e-13
-1.18063e-13
1.14021e-13
2.54402e-13
2.50269e-13
1.63884e-13
6.80756e-14
1.99093e-14
4.61834e-15
5.05315e-16
-2.86405e-15
-2.04142e-14
-6.6916e-14
-1.46189e-13
-2.41597e-13
-3.218e-13
-3.5903e-13
-3.45757e-13
-2.95487e-13
-2.2992e-13
-1.66554e-13
-1.14282e-13
-7.53614e-14
-5.44433e-14
-3.98773e-14
1.11321e-15
5.90895e-15
6.68288e-15
4.05e-15
1.37753e-15
3.18727e-16
3.74101e-17
-2.0526e-16
-2.75288e-15
-1.2226e-14
-3.28476e-14
-6.35343e-14
-9.61653e-14
-1.19494e-13
-1.25916e-13
-1.15589e-13
-9.4752e-14
-7.09565e-14
-4.95242e-14
-3.27485e-14
-2.07758e-14
-1.33334e-14
-9.37645e-15
1.496e-18
2.56499e-17
3.70933e-17
2.33149e-17
7.63138e-18
9.82765e-19
-5.17119e-19
-2.14226e-16
-1.56662e-15
-5.55891e-15
-1.29799e-14
-2.26072e-14
-3.13852e-14
-3.61806e-14
-3.56742e-14
-3.08524e-14
-2.39451e-14
-1.70279e-14
-1.12998e-14
-7.1059e-15
-4.28669e-15
-2.50363e-15
-1.55089e-15
-2.12582e-18
1.3113e-21
3.41361e-20
3.64858e-20
6.62437e-21
-7.01109e-20
-4.89744e-18
-1.17243e-16
-6.47779e-16
-1.95857e-15
-4.05857e-15
-6.39513e-15
-8.11944e-15
-8.62409e-15
-7.8839e-15
-6.35518e-15
-4.6164e-15
-3.08113e-15
-1.92194e-15
-1.13673e-15
-6.45031e-16
-3.54417e-16
-1.90166e-16
-2.77066e-18
-1.85751e-18
-1.28403e-18
-9.57794e-19
-7.51985e-19
-6.2233e-19
-3.3277e-18
-4.33965e-17
-1.9844e-16
-5.25511e-16
-9.74549e-16
-1.38856e-15
-1.60398e-15
-1.55766e-15
-1.30813e-15
-9.73014e-16
-6.54594e-16
-4.05716e-16
-2.3542e-16
-1.29648e-16
-6.85345e-17
-3.50924e-17
-1.75282e-17
-1.01876e-18
-1.28786e-18
-1.06229e-18
-8.01383e-19
-5.81563e-19
-4.14028e-19
-1.24251e-18
-1.13076e-17
-4.44989e-17
-1.04508e-16
-1.73706e-16
-2.22882e-16
-2.32589e-16
-2.04748e-16
-1.56476e-16
-1.06338e-16
-6.55918e-17
-3.73777e-17
-1.99796e-17
-1.01486e-17
-4.95208e-18
-2.34207e-18
-1.08123e-18
-2.27972e-19
-3.75172e-19
-3.44003e-19
-2.61195e-19
-1.81711e-19
-1.2307e-19
-2.94207e-19
-2.09238e-18
-7.18087e-18
-1.49808e-17
-2.22147e-17
-2.5463e-17
-2.37767e-17
-1.87856e-17
-1.29354e-17
-7.95206e-18
-4.45316e-18
-2.31073e-18
-1.12727e-18
-5.23428e-19
-2.33745e-19
-1.01258e-19
-4.28487e-20
-3.97603e-20
-7.00601e-20
-6.34668e-20
-4.7984e-20
-3.33856e-20
-2.25413e-20
-4.73337e-20
-2.73484e-19
-8.19137e-19
-1.50702e-18
-1.97159e-18
-1.9939e-18
-1.64632e-18
-1.15462e-18
-7.08983e-19
-3.90422e-19
-1.96627e-19
-9.20559e-20
-4.06208e-20
-1.70934e-20
-6.92801e-21
-2.72717e-21
-1.04879e-21
-5.64509e-21
-1.02993e-20
-8.97745e-21
-6.54235e-21
-4.38723e-21
-2.8356e-21
-5.27106e-21
-2.51086e-20
-6.49282e-20
-1.03642e-19
-1.17586e-19
-1.03317e-19
-7.44588e-20
-4.58433e-20
-2.48545e-20
-1.21476e-20
-5.45382e-21
-2.28443e-21
-9.04447e-22
-3.42238e-22
-1.24943e-22
-4.43536e-23
-1.5026e-23
-6.3936e-22
-1.16927e-21
-9.62884e-22
-6.60408e-22
-4.1639e-22
-2.52687e-22
-4.13165e-22
-1.61046e-21
-3.51876e-21
-4.7614e-21
-4.59229e-21
-3.45314e-21
-2.14666e-21
-1.14881e-21
-5.45053e-22
-2.34449e-22
-9.30639e-23
-3.45905e-23
-1.21869e-23
-4.11274e-24
-1.34147e-24
-4.24202e-25
-3.78861e-27
-5.86629e-23
-1.04216e-22
-7.96496e-23
-5.05089e-23
-2.93847e-23
-1.64082e-23
-2.31111e-23
-7.20182e-23
-1.291e-22
-1.44561e-22
-1.16604e-22
-7.4161e-23
-3.93939e-23
-1.81687e-23
-7.48038e-24
-2.80768e-24
-9.76803e-25
-3.19319e-25
-9.92211e-26
-2.95976e-26
-8.54555e-27
-2.03878e-27
1.10559e-25
-4.42821e-24
-7.4509e-24
-5.2025e-24
-2.99997e-24
-1.58046e-24
-7.95109e-25
-9.38848e-25
-2.2667e-24
-3.24319e-24
-2.95292e-24
-1.96947e-24
-1.04984e-24
-4.72386e-25
-1.86087e-25
-6.58646e-26
-2.13598e-26
-6.44555e-27
-1.83305e-27
-4.96655e-28
-1.29423e-28
-3.25187e-29
1.18023e-28
4.25473e-26
-2.80134e-25
-4.37295e-25
-2.75046e-25
-1.419e-25
-6.64553e-26
-2.94943e-26
-2.84984e-26
-5.19517e-26
-5.81403e-26
-4.25461e-26
-2.32405e-26
-1.02823e-26
-3.87687e-27
-1.28869e-27
-3.86873e-28
-1.06823e-28
-2.75259e-29
-6.69934e-30
-1.55616e-30
-3.48181e-31
-5.30672e-32
2.99901e-29
1.00516e-26
-1.51938e-26
-2.16152e-26
-1.20837e-26
-5.49569e-27
-2.2495e-27
-8.64046e-28
-6.74799e-28
-9.14829e-28
-7.90721e-28
-4.59723e-28
-2.02831e-28
-7.32641e-29
-2.27225e-29
-6.24693e-30
-1.55742e-30
-3.58234e-31
-7.70828e-32
-1.56968e-32
-3.05573e-33
-5.73828e-34
1.68488e-32
4.9557e-30
1.42789e-27
-7.26066e-28
-9.26952e-28
-4.54094e-28
-1.79609e-28
-6.33055e-29
-2.06906e-29
-1.3074e-29
-1.32054e-29
-8.67716e-30
-3.9254e-30
-1.36635e-30
-3.92747e-31
-9.74924e-32
-2.15383e-32
-4.32733e-33
-8.03803e-34
-1.39886e-34
-2.30666e-35
-3.64001e-36
-5.49777e-37
3.06777e-33
4.67771e-31
1.0666e-28
-3.14123e-29
-3.54172e-29
-1.49848e-29
-5.10331e-30
-1.53092e-30
-4.19201e-31
-2.18867e-31
-1.6516e-31
-8.1087e-32
-2.7696e-32
-7.32814e-33
-1.6085e-33
-3.05919e-34
-5.19148e-35
-8.02798e-36
-1.1495e-36
-1.54389e-37
-1.96653e-38
-2.39886e-39
1.90153e-39
7.21221e-35
1.77184e-32
2.38041e-30
-1.26207e-30
-1.22221e-30
-4.41727e-31
-1.29181e-31
-3.28468e-32
-7.44223e-33
-3.33433e-33
-1.91434e-33
-6.7483e-34
-1.64255e-34
-3.09597e-35
-4.84416e-36
-6.57227e-37
-7.96119e-38
-8.79201e-39
-8.99427e-40
-8.63383e-41
-7.86281e-42
-6.85991e-43
8.46022e-40
7.04649e-37
2.30055e-34
5.26388e-32
-4.72481e-32
-3.74725e-32
-1.22613e-32
-3.04095e-33
-6.54302e-34
-1.20107e-34
-4.96152e-35
-2.17593e-35
-5.0482e-36
-7.80433e-37
-9.21907e-38
-8.97452e-39
-7.53759e-40
-5.63024e-41
-3.82178e-42
-2.39646e-43
-1.40669e-44
-7.81779e-46
-3.91911e-47
1.66182e-40
2.08839e-38
7.36613e-37
6.16372e-36
-1.62393e-33
-9.92799e-34
-3.33205e-34
-7.56203e-35
-1.30686e-35
-1.85548e-36
-7.96232e-37
-2.57579e-37
-3.03427e-38
-2.08485e-39
-1.02083e-40
-3.94641e-42
-1.27902e-43
-3.61199e-45
-9.12922e-47
-2.10646e-48
-4.50716e-50
-9.061e-52
-1.73146e-53
7.95596e-55
5.5115e-49
2.40018e-46
3.05303e-45
0.997725
0.998601
0.998639
0.999097
0.979941
0.974041
0.973624
0.985272
0.984327
0.981606
0.976853
0.969417
0.54149
0.529154
0.470463
0.375124
0.000772176
0.00102702
0.00134958
0.00117988
0.019323
0.0222945
0.0222879
0.0222912
0.0195556
0.0194467
0.0123956
0.00273173
0.00613978
0.00094733
0.000952437
0.00125308
0.000490555
0.000948223
0.000972972
0.000873136
0.00044268
0.000431528
0.000306617
0.000222083
0.00252133
0.000765555
0.000399941
0.000123899
0.0146274
0.00599708
7.07199e-05
7.62152e-05
0.0132604
0.00266235
6.66238e-05
8.35128e-05
0.00083761
4.92141e-12
6.48213e-05
9.1435e-05
4.92141e-12
1.58135e-12
4.60176e-12
1.00728e-10
1.21114e-08
1.24326e-12
1.58134e-12
4.60176e-12
6.88198e-10
9.06056e-13
1.982e-11
2.23252e-11
1.17568e-16
8.22406e-13
3.37985e-12
8.07897e-12
1.72309e-15
7.53493e-14
8.21738e-13
4.57311e-12
-2.63113e-16
1.12492e-14
4.21706e-13
3.80485e-12
-9.77769e-14
-2.18897e-14
1.03104e-13
4.366e-12
-1.47119e-13
-9.28399e-14
-4.30689e-14
7.56079e-14
-9.23011e-14
-6.8447e-14
-4.73033e-14
-2.24069e-14
-3.44189e-14
-2.80725e-14
-2.17485e-14
-1.56084e-14
-8.20515e-15
-7.01676e-15
-5.77726e-15
-4.57262e-15
-1.28805e-15
-1.09563e-15
-9.25273e-16
-7.6665e-16
-1.40747e-16
-1.09882e-16
-8.95644e-17
-7.47181e-17
-1.18728e-17
-8.04609e-18
-5.64986e-18
-4.26375e-18
-6.95024e-19
-4.41173e-19
-2.76063e-19
-1.73213e-19
-2.59649e-20
-1.55295e-20
-9.14944e-21
-5.29658e-21
-5.93771e-22
-3.29584e-22
-1.76174e-22
-8.65736e-23
-7.29763e-24
-2.71277e-24
6.40274e-25
5.67926e-24
5.48238e-25
1.32841e-24
3.20244e-24
6.08243e-24
3.72033e-25
8.35026e-25
2.03422e-24
4.09581e-24
1.50248e-25
3.4202e-25
8.33296e-25
1.90829e-24
3.59642e-26
8.03322e-26
2.18532e-25
7.10599e-25
5.16604e-27
1.15184e-26
4.8951e-26
2.65782e-25
3.94484e-28
9.94119e-28
1.02179e-26
7.14415e-26
1.01256e-29
4.47209e-29
1.23634e-27
7.76201e-27
3.42065e-31
2.96151e-30
9.04405e-29
4.01723e-28
7.6768e-36
2.33707e-35
1.09371e-33
3.59041e-33
1.92305e-45
3.59933e-46
2.19142e-47
0
0.999782
0.999881
0.999874
0.999855
0.91667
0.520163
0.48904
0.687168
0.774573
0.774591
0.774577
0.609247
0.307261
0.307261
0.318617
0.316005
0.302038
0.316193
0.422248
0.999428
0.999654
0.997393
0.98931
0.791224
0.470177
0.547938
0.662925
0.679296
0.655315
0.677154
0.662877
0.641348
0.560013
0.325236
0.488773
0.490412
0.428307
0.42943
0.942248
0.771962
0.533261
0.424358
0.332832
0.414008
0.380804
0.214404
0.127134
0.110804
0.196738
0.317805
0.373199
0.343493
0.250737
0.312216
0.379325
0.274794
0.348662
0.251598
0.0467571
0.00202995
0.0174113
0.156711
0.288858
0.116084
0.070526
0.0702783
0.0701933
0.0858373
0.210342
0.229986
0.212809
0.179917
0.119192
0.11692
0.102336
0.0863427
0.00105417
0.00103596
0.00201112
0.018577
0.0711904
0.0718541
0.0888118
0.120259
0.120824
0.120616
0.104878
0.079731
0.0611187
0.0725753
0.0600772
0.0586614
0.0610897
0.0580268
0.0524906
0.014874
0.00101191
0.0012416
0.00224872
0.0010371
0.0118052
0.0994083
0.12062
0.114288
0.0754202
0.0322997
0.00416205
0.00322848
0.00352567
0.0389266
0.0653455
0.065366
0.0653455
0.0460222
0.00355834
0.00100003
0.00100471
0.00101361
0.00102502
0.00104257
0.0223148
0.0299729
0.0141706
0.00580928
0.00482543
0.00327712
0.00322848
0.00322848
0.0137445
0.0303806
0.0474241
0.0559199
0.0378456
0.000905806
0.000899918
0.00136082
0.00817219
0.0100642
0.0048274
0.00491843
0.00711671
0.00621453
0.00609836
0.00861857
0.0086422
0.00850957
0.00361689
0.00515963
0.000578606
3.60741e-05
0.00127858
0.0051421
0.000867395
0.000874267
0.010721
0.0204833
0.0204899
0.0204827
0.01996
0.016772
0.0110384
0.00749458
0.00806669
0.00846788
0.00880716
0.00881529
0.00208573
3.60741e-05
3.57768e-05
3.58056e-05
3.58472e-05
0.00086894
0.00583249
0.0204694
0.0204899
0.0185029
0.00443332
0.00260859
0.0007568
0.00107214
0.00110115
0.000740848
0.000799382
0.00240474
0.00400152
0.00018809
3.57868e-05
3.58651e-05
0.000120639
3.71128e-05
0.00117946
0.0110153
0.0204656
0.0192914
0.000468975
8.70873e-07
7.10423e-07
3.92995e-07
1.21048e-06
1.21115e-06
1.45439e-06
5.50858e-06
6.33465e-05
0.000177694
0.000168793
4.51548e-05
0.000163884
0.000200592
7.00899e-05
0.0013233
0.00769962
0.0137531
0.00515206
6.73547e-06
2.62739e-05
4.1114e-06
1.15723e-07
4.33714e-07
9.46803e-07
1.19355e-06
1.40544e-06
0.000102557
0.000331461
0.000331405
0.000330322
0.000231939
1.33456e-05
1.29993e-06
0.000692085
0.000964762
1.51297e-07
1.97456e-07
6.73122e-06
9.23326e-06
4.48365e-07
1.14823e-07
1.44638e-07
9.69884e-07
1.49702e-06
1.45028e-05
0.000272634
0.000331405
0.000242851
7.53635e-05
1.80523e-05
9.32082e-10
6.05924e-10
1.57769e-08
7.59327e-08
1.49402e-07
2.43532e-07
3.03339e-07
1.1614e-07
1.14822e-07
1.14785e-07
1.1482e-07
1.614e-07
3.89747e-07
5.88562e-05
0.000115851
5.25096e-05
5.424e-06
5.83174e-09
1.07758e-09
5.69665e-10
5.68121e-10
1.27918e-08
1.22969e-07
2.95096e-07
3.71546e-07
2.06624e-06
3.41238e-06
2.50114e-07
1.14781e-07
1.14785e-07
1.15256e-07
2.03414e-06
6.67519e-06
3.16323e-07
1.05017e-08
8.34548e-09
3.94578e-09
2.95365e-09
5.68123e-10
5.68123e-10
5.9773e-10
3.26097e-08
5.86835e-07
4.5743e-06
8.06119e-06
8.05839e-06
5.30689e-06
1.14785e-07
1.14779e-07
1.30683e-07
4.79156e-07
4.80249e-07
9.04874e-09
8.38684e-09
8.15953e-09
1.0123e-08
4.63885e-09
5.69665e-10
5.90974e-10
4.95841e-10
1.72519e-08
4.06935e-06
8.06095e-06
8.06112e-06
8.06095e-06
7.91626e-06
2.19939e-07
1.14865e-07
1.14952e-07
4.23367e-07
7.99419e-07
9.61091e-09
1.01257e-08
6.40456e-09
1.05209e-08
5.63547e-08
2.23245e-07
1.55914e-08
3.13661e-10
1.75918e-08
1.63077e-06
4.57405e-06
7.42794e-06
7.69576e-06
3.56321e-06
6.77405e-07
1.14951e-07
1.14993e-07
5.35027e-07
8.15047e-07
1.89246e-07
2.48676e-10
2.24027e-09
5.90597e-09
1.69607e-07
1.55594e-06
6.16072e-08
3.66053e-10
5.07357e-08
1.59653e-07
3.80758e-08
3.99473e-07
5.74489e-07
7.99317e-08
2.76313e-07
2.69984e-07
1.46056e-07
3.46871e-07
2.37834e-07
6.56035e-08
2.49032e-10
2.48679e-10
2.54234e-10
1.31225e-07
1.6573e-06
1.25013e-07
5.05454e-10
2.40722e-09
9.11783e-14
4.46123e-11
6.7687e-11
5.48319e-12
7.20193e-11
8.94205e-12
6.42573e-08
3.23385e-07
3.29571e-07
8.37684e-08
2.72154e-10
2.71592e-10
2.87923e-10
2.89042e-10
8.14093e-08
1.68483e-06
2.76216e-07
2.56218e-11
2.01146e-14
9.09944e-14
4.31764e-13
9.94499e-14
4.49704e-14
1.35265e-12
2.9163e-13
5.56262e-10
1.84463e-07
3.26434e-07
3.19676e-07
8.6703e-08
2.70553e-10
2.70103e-10
2.35824e-10
7.29208e-08
1.84872e-06
2.1387e-05
2.2813e-13
2.01146e-14
2.20404e-14
3.13143e-14
1.76112e-14
2.83371e-14
3.45675e-13
2.6253e-13
2.79083e-13
8.01726e-10
2.07239e-07
3.21835e-07
9.40166e-08
1.23986e-09
1.92456e-10
1.77938e-10
1.25272e-07
1.54829e-06
5.78117e-05
-4.8262e-16
2.97625e-17
5.13755e-16
5.58011e-16
8.92262e-16
5.31678e-15
8.60901e-14
1.06968e-13
3.58438e-11
3.5869e-11
1.40441e-08
4.06639e-08
2.12259e-08
6.41211e-09
4.00412e-10
1.77929e-10
1.31849e-07
1.04967e-07
5.78124e-05
-6.34379e-15
-2.49262e-15
-8.20268e-16
-1.82654e-16
0
9.83955e-16
1.15921e-14
1.16618e-14
3.07639e-11
8.65911e-11
1.64597e-10
3.05676e-10
3.57987e-10
6.09908e-10
2.36672e-10
1.44087e-10
5.82241e-08
5.16408e-11
5.78073e-05
-2.48361e-15
-1.27457e-15
-5.98914e-16
-2.49553e-16
-7.53897e-17
1.7551e-16
1.94018e-15
1.95589e-14
1.16668e-11
4.92713e-11
5.96083e-11
8.99235e-11
1.56616e-10
1.69569e-10
1.53181e-10
1.44076e-10
5.16408e-11
5.09717e-11
5.30989e-05
-4.74227e-16
-2.86645e-16
-1.63676e-16
-8.32619e-17
-2.50078e-17
9.97193e-17
1.06297e-15
1.39043e-14
1.06013e-12
6.12681e-12
1.18409e-11
3.02078e-11
6.34556e-11
9.22402e-11
1.25089e-10
1.4398e-10
9.18393e-11
5.01775e-11
4.12561e-05
-5.05186e-17
-3.54432e-17
-2.42759e-17
-1.37519e-17
2.16618e-18
1.11404e-16
8.41658e-16
6.51187e-15
4.83397e-14
3.22689e-13
1.80793e-12
8.13283e-12
2.28782e-11
4.72312e-11
9.35767e-11
1.42818e-10
1.03792e-10
4.96526e-11
5.10112e-05
-2.93059e-18
-2.43915e-18
-2.00859e-18
-5.18563e-19
1.21702e-17
1.15348e-16
8.19106e-16
4.99623e-15
2.65085e-14
1.31361e-13
6.46272e-13
2.87166e-12
9.80065e-12
2.69147e-11
8.0349e-11
1.41344e-10
9.60805e-11
4.54573e-11
5.46998e-05
-9.32001e-20
-8.40588e-20
-2.32753e-20
1.03928e-18
1.31301e-17
1.174e-16
8.3395e-16
5.00283e-15
2.63724e-14
1.25267e-13
5.4413e-13
2.15497e-12
7.39111e-12
2.27132e-11
8.31777e-11
1.3248e-10
4.05741e-11
4.08455e-11
5.47186e-05
-1.83793e-21
1.46696e-21
6.85774e-20
1.08524e-18
1.25907e-17
1.16997e-16
8.7597e-16
5.36564e-15
2.81067e-14
1.30455e-13
5.56505e-13
2.17351e-12
7.4385e-12
2.30714e-11
1.08454e-10
1.2592e-10
4.01696e-11
6.84566e-06
5.47548e-05
1.89016e-22
2.79647e-20
2.62821e-19
1.84828e-18
1.51428e-17
1.30225e-16
1.01743e-15
6.61477e-15
3.53532e-14
1.60219e-13
6.54679e-13
2.47452e-12
8.35642e-12
3.13997e-11
1.66985e-10
1.67839e-10
3.97151e-11
1.44387e-05
5.47548e-05
1.97211e-21
6.48661e-19
1.16105e-17
5.57786e-17
1.52427e-16
4.30869e-16
1.92447e-15
1.11184e-14
6.18513e-14
2.94833e-13
1.19515e-12
4.5376e-12
1.48669e-11
7.88236e-11
1.86025e-10
1.8057e-10
3.92291e-11
1.44196e-05
5.47548e-05
6.57854e-21
4.26293e-18
1.14629e-16
7.41522e-16
2.3584e-15
5.99006e-15
1.62766e-14
5.01859e-14
1.79684e-13
7.2577e-13
3.02686e-12
1.10531e-11
2.57712e-11
7.69623e-11
1.69548e-10
1.26236e-10
3.89996e-11
5.15924e-06
5.47544e-05
1.13147e-20
1.12609e-17
3.99087e-16
3.72987e-15
1.60226e-14
5.18184e-14
1.60341e-13
4.33766e-13
1.01632e-12
2.56792e-12
8.07982e-12
1.49818e-11
1.95827e-11
3.71541e-11
4.97478e-11
3.90008e-11
3.90167e-11
3.90167e-11
3.8745e-05
1.26792e-20
1.61809e-17
7.92856e-16
1.09762e-14
6.2787e-14
2.52651e-13
9.05138e-13
2.6254e-12
4.98274e-12
8.82432e-12
1.19477e-11
2.36318e-11
1.95908e-11
1.9613e-11
8.83537e-11
1.69685e-09
8.14463e-10
3.03042e-10
3.48518e-05
5.03513e-21
1.36757e-17
1.04689e-15
2.0433e-14
1.63284e-13
7.83876e-13
3.43391e-12
1.0245e-11
1.46663e-11
1.45086e-11
3.52327e-11
1.5235e-10
1.94769e-09
1.86913e-09
4.79457e-09
8.38621e-09
1.86042e-09
5.67356e-10
5.32267e-05
1.52821e-21
3.10154e-18
6.36682e-16
2.54442e-14
2.81716e-13
1.73088e-12
8.44669e-12
2.6805e-11
3.17524e-11
1.98058e-11
1.98157e-11
2.2225e-09
7.85968e-09
8.73008e-09
9.12738e-09
9.11018e-09
3.76638e-10
3.21186e-06
5.40127e-05
2.51428e-22
5.91313e-19
1.61408e-16
1.45452e-14
3.09177e-13
2.64962e-12
1.61439e-11
5.70991e-11
6.92601e-11
3.77312e-11
1.98669e-11
4.59678e-09
8.4645e-09
8.50064e-09
7.0078e-09
6.32466e-09
3.55775e-10
3.36544e-06
5.40127e-05
1.25245e-23
6.17308e-20
2.65009e-17
3.56957e-15
1.31826e-13
2.21493e-12
1.73226e-11
8.56087e-11
1.41378e-10
1.08727e-10
1.31901e-10
2.72719e-09
6.19718e-09
2.37166e-09
4.03482e-10
3.57391e-10
3.5645e-10
3.56238e-10
5.05813e-05
3.0716e-25
4.5882e-21
1.99265e-18
5.05639e-16
3.90177e-14
9.07206e-13
1.34645e-11
8.45454e-11
2.16175e-10
2.33953e-10
2.50061e-10
5.3387e-10
7.52523e-10
6.19131e-10
5.33531e-08
7.08634e-09
3.56332e-10
3.97645e-10
5.02375e-05
6.78604e-33
5.69892e-26
8.95817e-21
1.96448e-17
4.44381e-15
1.95447e-13
5.0888e-12
7.20521e-11
2.35632e-10
2.67653e-10
2.34537e-10
2.12835e-10
2.12794e-10
1.77221e-07
4.69666e-07
2.02239e-07
3.97645e-10
9.35678e-10
5.00114e-05
1.92752e-43
1.3671e-35
7.72994e-27
2.90589e-21
1.12798e-17
4.2715e-15
5.92906e-13
2.53379e-11
1.2339e-10
2.49331e-10
2.2688e-10
2.12794e-10
2.12794e-10
3.14637e-07
4.69666e-07
4.69666e-07
8.53514e-08
4.40985e-08
2.55435e-05
)
;

boundaryField
{
    leftWall
    {
        type            zeroGradient;
    }
    rightWall
    {
        type            zeroGradient;
    }
    lowerWall
    {
        type            zeroGradient;
    }
    atmosphere
    {
        type            inletOutlet;
        inletValue      uniform 0;
        value           nonuniform List<scalar> 
46
(
0
0
0
0
0
0
0
0
0
0
0
0
0
0
0
0
0
0
0
0
0
0
0
0
0
0
0
0
0
0
0
0
0
0
2.53379e-11
1.2339e-10
2.49331e-10
2.2688e-10
2.12794e-10
2.12794e-10
3.14637e-07
4.69666e-07
4.69666e-07
8.53514e-08
4.40985e-08
2.55435e-05
)
;
    }
    defaultFaces
    {
        type            empty;
    }
}


// ************************************************************************* //
