/*--------------------------------*- C++ -*----------------------------------*\
  =========                 |
  \\      /  F ield         | OpenFOAM: The Open Source CFD Toolbox
   \\    /   O peration     | Website:  https://openfoam.org
    \\  /    A nd           | Version:  9
     \\/     M anipulation  |
\*---------------------------------------------------------------------------*/
FoamFile
{
    format      ascii;
    class       volScalarField;
    location    "4.03";
    object      nut;
}
// * * * * * * * * * * * * * * * * * * * * * * * * * * * * * * * * * * * * * //

dimensions      [0 2 -1 0 0 0 0];

internalField   nonuniform List<scalar> 
2268
(
2.16439e-05
2.47265e-05
2.96661e-05
3.29525e-05
3.53597e-05
3.72091e-05
3.86697e-05
3.98441e-05
4.08023e-05
4.15975e-05
4.22695e-05
4.28469e-05
4.33866e-05
4.3841e-05
4.41313e-05
4.4105e-05
4.33802e-05
4.15565e-05
3.97553e-05
3.83146e-05
3.63857e-05
3.14339e-05
1.94947e-05
4.92963e-05
0.000190002
0.000251194
0.000290372
0.000318852
0.000340917
0.000358736
0.000373541
0.000386156
0.000397238
0.00040731
0.000416583
0.000424084
0.000429842
0.000433606
0.000434168
0.000428927
0.000410817
0.000383199
0.000369773
0.000336187
0.000249216
6.41101e-05
5.84939e-05
0.00032561
0.000463705
0.000551988
0.000616348
0.000666416
0.000706965
0.000740723
0.000769489
0.000794597
0.000816997
0.000837004
0.000853588
0.000866325
0.000874065
0.000874215
0.000861956
0.00082849
0.000778097
0.00072448
0.000620997
0.000413591
7.61001e-05
6.52602e-05
0.000423529
0.000634124
0.000770824
0.00087104
0.000949267
0.00101269
0.00106546
0.00111027
0.00114903
0.00118304
0.00121276
0.00123729
0.00125571
0.00126594
0.00126426
0.00124464
0.00119869
0.00112493
0.00102348
0.000842591
0.000528426
8.59277e-05
7.05943e-05
0.000497423
0.000771925
0.000953579
0.00108775
0.00119291
0.00127833
0.00134938
0.00140952
0.00146117
0.0015059
0.0015443
0.00157561
0.00159848
0.00161013
0.001606
0.00157935
0.00152172
0.0014256
0.0012775
0.00102472
0.000616493
9.54457e-05
7.5043e-05
0.000555681
0.000885293
0.00110766
0.00127328
0.00140373
0.00150997
0.0015984
0.0016731
0.00173689
0.00179157
0.00183786
0.00187513
0.0019017
0.00191429
0.00190783
0.00187509
0.00180675
0.00169094
0.00150303
0.00118725
0.000690439
0.000106569
7.89172e-05
0.000603235
0.000980114
0.00123891
0.00143331
0.00158724
0.00171303
0.00181788
0.00190638
0.00198164
0.00204566
0.00209926
0.00214197
0.0021719
0.00218547
0.00217732
0.00213997
0.00206326
0.00193195
0.00171493
0.00134971
0.000767379
0.000122003
8.24083e-05
0.000642993
0.00106052
0.00135175
0.00157231
0.00174791
0.00189194
0.00201225
0.00211381
0.00219996
0.0022728
0.00233329
0.00238116
0.00241442
0.00242932
0.00242048
0.00238041
0.00229854
0.00215806
0.00192575
0.00153531
0.000886325
0.000145476
1.59713e-05
2.89253e-05
3.37249e-05
3.57942e-05
3.66236e-05
3.67478e-05
3.65939e-05
3.6442e-05
3.65535e-05
3.68173e-05
3.57437e-05
3.37703e-05
3.23793e-05
3.39849e-05
3.64552e-05
3.62303e-05
3.33093e-05
2.78819e-05
2.9666e-05
5.9326e-05
0.000229583
0.00030456
0.000338302
0.000351821
0.000355684
0.000352753
0.000351552
0.000353834
0.000350888
0.000336578
0.000295358
0.000278167
0.000315217
0.000319052
0.000298996
0.000251494
0.000148342
6.28016e-05
7.19928e-05
0.000384668
0.000566736
0.000655833
0.000694353
0.000707447
0.00070667
0.000704732
0.00070573
0.000698138
0.000669016
0.000606086
0.000579123
0.000613815
0.000608961
0.000558975
0.000454985
0.00027036
6.8627e-05
8.26301e-05
0.000496251
0.000777014
0.000924012
0.000991707
0.0010177
0.00102184
0.00101976
0.00101769
0.00100395
0.000964953
0.000896009
0.000860103
0.000872139
0.000845245
0.000760514
0.00060671
0.000364664
7.18353e-05
9.35502e-05
0.000592335
0.00095903
0.00115784
0.00125288
0.00129206
0.00130153
0.00129925
0.00129275
0.00127278
0.00122742
0.0011569
0.00111028
0.00109303
0.00103658
0.00091478
0.000716029
0.000429891
7.37664e-05
0.00010677
0.000689271
0.00113203
0.00137222
0.00148895
0.00153909
0.00155289
0.00154982
0.00153823
0.00151203
0.00146134
0.00138918
0.00132985
0.00128237
0.00119349
0.00103361
0.000792187
0.000469922
7.50528e-05
0.000124744
0.000802709
0.00131077
0.00157769
0.00170808
0.00176547
0.00178179
0.00177697
0.00175981
0.00172694
0.00167097
0.00159535
0.00152198
0.00144567
0.00132415
0.00112582
0.000842217
0.000489488
7.59056e-05
0.000151826
0.000961766
0.00150739
0.00178066
0.00191546
0.00197582
0.00199255
0.00198488
0.00196168
0.00192165
0.00185984
0.0017786
0.00169054
0.00158778
0.00143484
0.00119774
0.000871279
0.000494566
7.65551e-05
8.7487e-05
0.000695735
0.00116824
0.00150471
0.00176263
0.00196972
0.00214066
0.00228404
0.00240526
0.00250785
0.00259406
0.00266491
0.00272013
0.00275789
0.00277481
0.00276598
0.00272443
0.00263985
0.00249556
0.00226238
0.00189295
0.0013383
0.000650002
9.27346e-05
0.00074588
0.00127306
0.00165738
0.00195584
0.00219797
0.00239981
0.00257051
0.00271564
0.00283883
0.00294239
0.0030274
0.00309359
0.00313956
0.00316299
0.00316015
0.00312594
0.00305279
0.00292961
0.00274092
0.00246886
0.00210419
0.00167294
9.76731e-05
0.000776731
0.00134952
0.0017747
0.0021063
0.00237708
0.00260488
0.00279911
0.00296515
0.00310677
0.00322642
0.00332529
0.00340323
0.00345934
0.00349228
0.00349948
0.00347827
0.00342401
0.00333027
0.0031908
0.00300406
0.00277926
0.00254492
0.000103378
0.000787042
0.00140511
0.00186966
0.00222647
0.00251895
0.00276792
0.00298211
0.00316605
0.0033239
0.0034585
0.00357127
0.0036617
0.00372976
0.00377459
0.00379392
0.00378847
0.00375514
0.00368905
0.00358715
0.00345584
0.00331041
0.00317264
0.000105358
0.000800667
0.00144906
0.00194942
0.00231716
0.0026236
0.00288877
0.00312049
0.00332389
0.00349783
0.00364695
0.00377397
0.00387774
0.00395851
0.00401603
0.00404957
0.0040605
0.00404655
0.00400079
0.00391972
0.00381869
0.00371373
0.00362206
0.000106102
0.000810382
0.00144801
0.00194586
0.00233752
0.00266972
0.00295834
0.00320864
0.00343245
0.00362772
0.00379535
0.00393914
0.00405806
0.00415198
0.00422174
0.0042689
0.00429194
0.00428958
0.00425468
0.00418482
0.00409975
0.00401154
0.00393481
0.000104997
0.000819725
0.00145379
0.00194363
0.00233297
0.00268061
0.00299184
0.00326617
0.00351258
0.00373016
0.00391821
0.00407902
0.00421202
0.00431694
0.00439599
0.00445129
0.00448095
0.00448575
0.00445729
0.00440265
0.00433228
0.00426136
0.00420682
0.000103524
0.000794666
0.001457
0.00195978
0.0023524
0.00270937
0.00303846
0.00333467
0.00359996
0.00383181
0.00403257
0.00420462
0.00434715
0.00446033
0.00454623
0.00460676
0.00464054
0.00464947
0.00463225
0.00459468
0.00454348
0.00448647
0.00443459
0.000102955
0.000754752
0.00143397
0.00196458
0.00239114
0.00277155
0.00311746
0.0034267
0.00369929
0.00393698
0.00414384
0.0043217
0.00447025
0.00458976
0.00468125
0.00474643
0.00478561
0.00480117
0.00479435
0.0047682
0.00472791
0.00467738
0.00462669
0.000103035
0.000752523
0.00143338
0.00199347
0.00245736
0.00286184
0.00321955
0.00353401
0.0038088
0.00404828
0.00425668
0.00443628
0.00458756
0.0047109
0.00480709
0.00487723
0.00492267
0.00494538
0.00494706
0.00492935
0.00489601
0.00485207
0.00480624
0.000104086
0.000782117
0.00147794
0.00206214
0.00255171
0.00297161
0.00333557
0.00365144
0.00392571
0.00416423
0.00437165
0.00455072
0.00470263
0.00482805
0.00492768
0.00500248
0.00505383
0.00508333
0.00509241
0.00508263
0.00505681
0.00501996
0.00497901
0.000105879
0.000829395
0.00155223
0.00215615
0.00266123
0.00308962
0.00345637
0.00377197
0.00404471
0.00428134
0.0044869
0.00466459
0.00481615
0.0049426
0.00504474
0.00512343
0.00517981
0.00521526
0.00523107
0.00522868
0.00521059
0.00518084
0.00514468
0.000107877
0.000879365
0.00163253
0.00225423
0.00277036
0.00320438
0.003573
0.0038884
0.00416001
0.00439515
0.00459919
0.00477571
0.00492689
0.00505409
0.00515824
0.00524022
0.00530097
0.00534172
0.00536366
0.0053682
0.00535747
0.00533465
0.0053036
0.000109847
0.000918493
0.00170131
0.00234078
0.00286741
0.0033071
0.00367835
0.00399473
0.00426649
0.00450137
0.00470503
0.00488136
0.00503287
0.00516119
0.00526747
0.00535264
0.00541756
0.00546336
0.00549116
0.00550232
0.00549865
0.00548259
0.005457
0.000111838
0.000942181
0.00175087
0.00240787
0.00294557
0.00339212
0.00376769
0.00408693
0.00436067
0.004597
0.00480182
0.00497929
0.00513223
0.00526256
0.0053716
0.00546036
0.0055297
0.00558068
0.00561439
0.0056321
0.00563532
0.00562595
0.0056061
0.000113143
0.000956869
0.00178499
0.00245683
0.00300507
0.00345914
0.0038403
0.00416391
0.00444125
0.00468066
0.00488822
0.00506832
0.00522402
0.00535745
0.00547014
0.00556318
0.00563749
0.00569406
0.00573395
0.00575829
0.00576838
0.00576568
0.00575178
0.000113845
0.00096477
0.00180636
0.00248987
0.00304746
0.0035091
0.0038966
0.00422573
0.00450802
0.00475194
0.00496373
0.00514791
0.00530772
0.00544548
0.00556284
0.00566102
0.00574096
0.00580365
0.00585007
0.00588125
0.00589826
0.00590228
0.00589446
0.000114046
0.000967057
0.00181698
0.00250906
0.00307457
0.00354346
0.00393769
0.00427315
0.00456146
0.00481114
0.00502848
0.00521809
0.00538331
0.00552657
0.00564964
0.00575381
0.00584008
0.00590941
0.00596272
0.00600093
0.00602494
0.00603569
0.00603404
0.000113822
0.000964637
0.00181843
0.00251625
0.00308821
0.00356384
0.00396495
0.00430734
0.00460252
0.004859
0.00508303
0.00527924
0.00545101
0.00560084
0.00573054
0.00584147
0.00593467
0.00601106
0.00607155
0.00611693
0.00614798
0.00616544
0.00616997
0.000113226
0.000958277
0.00181205
0.00251308
0.00309007
0.00357189
0.0039799
0.00432961
0.00463237
0.0048965
0.00512818
0.00533196
0.00551122
0.00566847
0.00580555
0.00592384
0.00602441
0.00610817
0.00617597
0.00622856
0.00626661
0.0062907
0.00630134
0.000112301
0.000948601
0.00179902
0.00250101
0.00308175
0.00356918
0.00398404
0.0043414
0.00465226
0.00492473
0.0051648
0.00537691
0.00556438
0.00572967
0.00587464
0.00600068
0.00610884
0.00620008
0.00627521
0.00633492
0.0063798
0.00641036
0.00642697
0.000111079
0.000936149
0.00178042
0.00248141
0.00306477
0.00355729
0.00397891
0.00434413
0.00466351
0.00494481
0.00519381
0.00541476
0.00561089
0.00578459
0.00593769
0.0060716
0.00618738
0.00628601
0.00636829
0.00643487
0.00648633
0.00652309
0.00654546
0.000109585
0.000921456
0.00175725
0.00245561
0.0030406
0.00353775
0.00396604
0.00433925
0.0046674
0.00495786
0.00521608
0.00544613
0.00565108
0.00583326
0.00599447
0.00613611
0.0062593
0.00636502
0.00645409
0.00652718
0.00658483
0.00662744
0.00665531
0.000107837
0.000905037
0.0017305
0.0024249
0.00301073
0.00351211
0.00394696
0.0043282
0.00466522
0.00496493
0.00523242
0.00547154
0.0056852
0.00587564
0.00604464
0.00619363
0.00632376
0.00643608
0.00653144
0.00661052
0.0066739
0.00672197
0.00675499
0.000105851
0.00088737
0.00170115
0.00239058
0.00297664
0.00348195
0.0039232
0.00431238
0.0046582
0.00496701
0.00524355
0.00549141
0.00571335
0.00591155
0.00608777
0.00624346
0.00637989
0.00649815
0.00659915
0.00668365
0.00675223
0.00680532
0.00684317
0.000103631
0.000868881
0.00167005
0.00235387
0.0029398
0.0034488
0.00389626
0.00429316
0.00464746
0.00496498
0.00525006
0.00550604
0.00573556
0.00594074
0.00612336
0.00628494
0.00642685
0.00655028
0.00665623
0.00674552
0.00681879
0.00687648
0.00691888
0.000101157
0.000849621
0.00163779
0.00231588
0.00290158
0.00341412
0.00386751
0.00427173
0.00463398
0.00495952
0.00525236
0.0055156
0.00575175
0.00596293
0.00615097
0.0063175
0.00646401
0.0065918
0.00670201
0.00679552
0.00687302
0.00693501
0.00698175
9.84911e-05
0.000828324
0.00160434
0.00227742
0.00286319
0.00337916
0.0038381
0.00424903
0.00461844
0.00495112
0.00525071
0.00552013
0.00576182
0.00597792
0.00617034
0.00634085
0.00649109
0.00662253
0.0067364
0.00683369
0.00691514
0.00698125
0.0070323
9.5934e-05
0.000804041
0.00156971
0.00223925
0.0028256
0.00334486
0.00380876
0.00422558
0.0046012
0.00493995
0.00524518
0.00551965
0.00576577
0.00598572
0.00618154
0.00635517
0.00650843
0.00664296
0.00676011
0.00686097
0.0069463
0.0070166
0.0070721
9.34295e-05
0.000781637
0.00153755
0.00220388
0.00279051
0.00331228
0.00378015
0.00420175
0.00458244
0.00492614
0.00523592
0.00551437
0.0057639
0.00598678
0.00618522
0.00636133
0.00651716
0.00665452
0.00677489
0.00687941
0.00696886
0.00704366
0.00710399
9.10696e-05
0.000763406
0.00151041
0.00217286
0.00275854
0.00328142
0.00375192
0.00417713
0.00456187
0.0049096
0.00522306
0.00550471
0.00575692
0.00598212
0.00618271
0.00636102
0.00651934
0.00665967
0.00678359
0.00689226
0.00698639
0.00706631
0.00713203
8.89736e-05
0.000750143
0.00148886
0.00214582
0.00272844
0.00325061
0.00372241
0.00415035
0.00453858
0.00488996
0.00520679
0.00549133
0.00574597
0.00597331
0.00617602
0.00635672
0.00651794
0.00666186
0.00679015
0.00690389
0.00700365
0.00708955
0.00716142
8.72355e-05
0.000741039
0.00147098
0.00211965
0.00269639
0.003216
0.00368833
0.00411902
0.00451118
0.00486674
0.00518742
0.00547524
0.00573264
0.00596248
0.00616781
0.00635163
0.00651673
0.00666546
0.00679949
0.00691972
0.00702641
0.00711937
0.00719819
8.59144e-05
0.000734292
0.00145221
0.00208783
0.00265538
0.00317131
0.00364483
0.00407994
0.00447798
0.00483954
0.00516556
0.0054578
0.00571891
0.00595218
0.0061612
0.00634948
0.00652009
0.00667552
0.00681729
0.00694593
0.0070612
0.00716243
0.00724892
8.50607e-05
0.000727136
0.00142472
0.00203994
0.0025952
0.00310819
0.00358601
0.00402954
0.00443737
0.0048082
0.00514208
0.00544064
0.00570697
0.00594509
0.00615941
0.00635413
0.00653265
0.00669749
0.00684978
0.00698935
0.00711512
0.00722578
0.00732035
8.47892e-05
0.000715048
0.00137681
0.00196242
0.00250398
0.00301782
0.00350619
0.00396482
0.00438834
0.00477306
0.00511812
0.00542539
0.00569881
0.00594358
0.00616531
0.00636914
0.00655892
0.00673697
0.00690359
0.0070573
0.00719567
0.00731661
0.00741907
8.54379e-05
0.000690631
0.0012953
0.00184325
0.00237276
0.00289437
0.00340221
0.00388466
0.00433109
0.00473505
0.00509496
0.00541341
0.00569582
0.00594919
0.00618083
0.00639724
0.00660293
0.00679959
0.00698585
0.0071578
0.00731084
0.00744215
0.00755118
8.79086e-05
0.000645444
0.00117493
0.00168176
0.00220278
0.00273966
0.00327615
0.00379121
0.00426765
0.00469584
0.0050738
0.00540544
0.0056984
0.00596215
0.00620643
0.00643977
0.00666773
0.006891
0.00710482
0.00730032
0.00746948
0.0076096
0.00772208
9.4243e-05
0.000577333
0.0010287
0.00149593
0.00201029
0.00256631
0.00313723
0.00369095
0.00420224
0.00465784
0.00505562
0.0054014
0.00570563
0.00598094
0.00624038
0.00649563
0.0067545
0.00701695
0.00727156
0.00749739
0.00768196
0.00782601
0.00793593
0.00011184
0.000485977
0.000875278
0.00131223
0.00182131
0.00239589
0.00300148
0.00359462
0.00414125
0.00462412
0.00504113
0.00540032
0.00571524
0.0060021
0.00627805
0.00655972
0.00686036
0.00718268
0.00750467
0.00776796
0.0079607
0.00809754
0.0081948
0.000191721
0.000359397
0.000711272
0.00114579
0.0016605
0.00225352
0.00288923
0.00351613
0.00409265
0.00459819
0.00503084
0.00540069
0.00572412
0.00602063
0.0063117
0.00662081
0.0069729
0.00738773
0.00784579
0.008143
0.00831903
0.00842702
0.00849693
0.000413113
0.000256664
0.000546512
0.00101484
0.0015545
0.00216641
0.00282263
0.00347042
0.00406484
0.00458364
0.00502525
0.0054011
0.00572928
0.00603134
0.0063318
0.00666041
0.00705849
0.00759579
0.00841678
0.00866848
0.00876291
0.00880825
0.00883427
0.000151957
0.000143452
0.00014261
0.000149173
0.00135394
0.00129515
0.00128827
0.00133669
0.00240918
0.002361
0.0023466
0.00236731
0.00310225
0.00307065
0.0030499
0.0030421
0.00357605
0.00355157
0.0035283
0.00350748
0.00391247
0.00389223
0.00387159
0.00384975
0.00417802
0.00415833
0.00413926
0.00411677
0.00439736
0.00437533
0.00435525
0.0043372
0.004592
0.00457139
0.00455325
0.00453828
0.00477462
0.00475555
0.00473809
0.0047224
0.00494894
0.00493012
0.00491196
0.00489449
0.00511597
0.00509732
0.00507854
0.00505966
0.00527684
0.00525883
0.00524004
0.00522049
0.00543283
0.00541598
0.00539781
0.00537834
0.00558506
0.0055698
0.00555279
0.00553404
0.00573426
0.00572092
0.00570547
0.00568791
0.0058807
0.00586951
0.0058559
0.00583988
0.0060242
0.00601529
0.00600373
0.0059895
0.00616413
0.0061576
0.00614821
0.00613594
0.00629953
0.00629541
0.00628825
0.00627804
0.00642914
0.00642743
0.00642253
0.00641442
0.00655151
0.00655216
0.0065495
0.00654352
0.00666508
0.00666803
0.00666758
0.0066637
0.00676833
0.0067735
0.0067752
0.00677341
0.00685991
0.00686723
0.00687104
0.0068713
0.00693889
0.0069483
0.00695418
0.00695651
0.00700498
0.00701647
0.00702444
0.00702887
0.00705878
0.0070724
0.00708253
0.00708914
0.00710201
0.00711788
0.0071303
0.00713924
0.00713762
0.00715593
0.00717083
0.00718229
0.00716976
0.00719075
0.00720836
0.00722255
0.00720368
0.00722759
0.00724811
0.00726521
0.00724537
0.00727238
0.00729597
0.00731608
0.00730124
0.00733142
0.00735805
0.00738111
0.00737769
0.00741086
0.00744029
0.00746599
0.00748076
0.00751638
0.00754799
0.00757567
0.00761574
0.00765277
0.00768549
0.00771408
0.00778686
0.00782361
0.0078558
0.00788375
0.00799682
0.00803084
0.00806027
0.00808556
0.00824609
0.0082742
0.00829814
0.00831847
0.00853177
0.00855047
0.00856614
0.00857928
0.00884652
0.00885298
0.00885832
0.00886276
0.000781812
0.00142057
0.00184944
0.00209441
0.00222404
0.00228426
0.00229998
0.00228626
0.00225296
0.00220108
0.00212867
0.00203574
0.00192434
0.00178243
0.00158147
0.00128507
0.000898977
0.00048283
7.69225e-05
0.00168339
0.00206583
0.00233866
0.00251123
0.0026094
0.0026548
0.00266072
0.00263595
0.00258665
0.00251671
0.0024264
0.00231386
0.0021744
0.00199348
0.0017418
0.00138729
0.000935302
0.00046002
7.62092e-05
0.0024696
0.0026461
0.00279538
0.00289952
0.00296073
0.00298514
0.00297591
0.00293665
0.00287117
0.00278294
0.0026734
0.00254103
0.00237812
0.00216882
0.00188502
0.00149975
0.00100508
0.000476285
7.87807e-05
0.00305593
0.00312165
0.00319339
0.00324624
0.00327451
0.00327846
0.00325149
0.00319528
0.00311212
0.00300549
0.00287794
0.00272759
0.00254714
0.00232157
0.00202776
0.00164118
0.00113635
0.000584316
9.06699e-05
0.00348871
0.00350127
0.00352941
0.00354846
0.00354963
0.0035335
0.00348693
0.00341188
0.00331187
0.00318924
0.00304556
0.00287954
0.00268647
0.0024568
0.00217399
0.00181615
0.00129883
0.000684284
0.000103708
0.00382549
0.00381834
0.00381786
0.00380989
0.00378755
0.00374927
0.00368445
0.00359207
0.00347477
0.00333493
0.00317407
0.00299115
0.00278401
0.00254302
0.00225025
0.00189114
0.00141042
0.000790382
0.000111806
0.00409334
0.00407973
0.0040638
0.00403772
0.00399378
0.00393512
0.00385302
0.00374367
0.00360927
0.00345177
0.00327259
0.00307047
0.00284208
0.00257815
0.00226848
0.00190172
0.00145399
0.000838735
0.000108938
0.0043179
0.00429905
0.00427276
0.00423306
0.0041737
0.00409633
0.00399671
0.00387165
0.00372119
0.0035465
0.00334873
0.00312607
0.00287301
0.00258483
0.00225984
0.00189827
0.00145396
0.000841071
0.000104836
0.00451822
0.00449251
0.00445645
0.00440407
0.00433061
0.004237
0.00412193
0.00398293
0.00381822
0.00362724
0.00340957
0.00316316
0.00288467
0.0025724
0.00223156
0.00186636
0.00141468
0.000810893
9.89809e-05
0.00469851
0.00466503
0.00461997
0.00455721
0.00447284
0.00436718
0.00423919
0.00408737
0.00390975
0.00370338
0.00346533
0.00319409
0.00288881
0.00255174
0.00219006
0.00180525
0.00134655
0.000748046
9.26545e-05
0.00486614
0.00482437
0.00477142
0.0047009
0.00460907
0.00449474
0.00435671
0.00419407
0.00400478
0.00378389
0.00352704
0.00323289
0.00290266
0.00254077
0.00215243
0.00173387
0.00125155
0.000666326
8.69941e-05
0.00502775
0.0049788
0.00491893
0.00484232
0.00474499
0.00462441
0.00447904
0.00430785
0.00410852
0.0038753
0.00360351
0.00329173
0.00294237
0.00255764
0.00213838
0.00167932
0.00116295
0.000585894
8.30841e-05
0.00518647
0.00513233
0.00506699
0.00498551
0.00488384
0.00475873
0.00460817
0.00443072
0.00422368
0.00398168
0.00370027
0.00337793
0.00301542
0.00261146
0.00216307
0.00166654
0.00111983
0.000546707
8.54434e-05
0.00534363
0.00528645
0.00521731
0.00513214
0.00502708
0.00489875
0.00474479
0.00456324
0.00435129
0.00410431
0.00381833
0.00349088
0.0031197
0.002701
0.00223072
0.00170794
0.00114229
0.000567777
9.11502e-05
0.00549981
0.00544144
0.0053701
0.00528244
0.00517501
0.00504459
0.00488868
0.00470493
0.00449061
0.00424161
0.00395418
0.00362472
0.00324894
0.00282135
0.00233774
0.00179809
0.00121137
0.000607469
9.66293e-05
0.00565509
0.005597
0.00552486
0.0054359
0.00532712
0.00519561
0.0050388
0.0048542
0.00463911
0.00438988
0.0041026
0.00377302
0.00339575
0.00296446
0.00247382
0.00192099
0.00130842
0.000657769
0.000101568
0.00580914
0.00575249
0.00568071
0.00559152
0.00548233
0.00535054
0.00519359
0.00500904
0.00479414
0.00454547
0.00425904
0.00393016
0.00355284
0.00312012
0.0026251
0.00206143
0.00142472
0.000726503
0.000106217
0.00596132
0.00590698
0.0058365
0.00574798
0.00563917
0.00550772
0.00535122
0.00516724
0.004953
0.00470514
0.00441957
0.00409127
0.00371375
0.00327947
0.00277998
0.00220578
0.00154685
0.000804188
0.000110485
0.00611065
0.00605926
0.00599082
0.00590369
0.00579593
0.00566536
0.00550973
0.0053266
0.00511316
0.00486598
0.00458081
0.00425223
0.00387338
0.00343598
0.00293005
0.00234329
0.00166097
0.000877245
0.000114336
0.00625588
0.0062079
0.00614207
0.00605693
0.00595076
0.00582157
0.00566711
0.00548499
0.0052723
0.00502548
0.00473996
0.00440995
0.00402816
0.00358541
0.00307005
0.00246698
0.00175534
0.000927073
0.000118171
0.00639552
0.0063513
0.00628851
0.00620584
0.00610173
0.00597428
0.00582132
0.00564034
0.0054283
0.00518137
0.00489474
0.00456221
0.00417587
0.00372551
0.00319747
0.00257491
0.00183663
0.000967297
0.00012129
0.00652794
0.00648773
0.00642832
0.00634854
0.00624687
0.00612151
0.00597027
0.00579053
0.00557906
0.0053318
0.00504356
0.00470768
0.00431549
0.00385585
0.00331482
0.00267362
0.00190881
0.00100186
0.000123335
0.00665149
0.00661545
0.00655972
0.00648316
0.00638433
0.00626141
0.00611218
0.00593388
0.00572309
0.00547546
0.00518538
0.00484572
0.00444755
0.00397895
0.0034247
0.00276487
0.00197439
0.00103319
0.000124306
0.00676456
0.00673284
0.00668105
0.00660807
0.00651246
0.00639239
0.00624554
0.00606903
0.00585919
0.00561143
0.00531994
0.00497713
0.00457333
0.00409595
0.00352874
0.00285068
0.00203558
0.00106277
0.000124777
0.00686583
0.00683858
0.006791
0.00672196
0.00663
0.00651324
0.00636924
0.00619505
0.00598685
0.00573976
0.00544759
0.00510231
0.00469362
0.00420819
0.00362875
0.00293315
0.00209423
0.00109125
0.000125253
0.00695446
0.00693187
0.0068888
0.0068241
0.00673625
0.00662337
0.00648295
0.00631187
0.00610612
0.00586058
0.00556868
0.00522197
0.00480952
0.00431718
0.00372663
0.0030144
0.00215199
0.00111861
0.00012606
0.00703034
0.00701266
0.00697446
0.00691457
0.00683145
0.00672313
0.00658704
0.00641991
0.00621755
0.00597459
0.00568413
0.00533724
0.0049224
0.00442461
0.00382438
0.00309663
0.00221059
0.00114243
0.00012781
0.0070943
0.0070819
0.00704903
0.00699449
0.00691671
0.00681366
0.0066827
0.00652043
0.00632249
0.00608324
0.00579545
0.00544975
0.00503399
0.00453233
0.00392407
0.00318236
0.00227435
0.00117642
0.000130553
0.00714837
0.00714167
0.0071146
0.00706596
0.00699416
0.00689711
0.00677212
0.00661566
0.00642318
0.0061888
0.00590493
0.00556176
0.0051465
0.00464246
0.00402764
0.00327331
0.00234417
0.00121599
0.000134265
0.00719571
0.00719516
0.00717439
0.00713218
0.00706696
0.00697663
0.00685843
0.00670871
0.00652276
0.0062944
0.00601569
0.00567629
0.00526277
0.00475752
0.0041372
0.00337094
0.00242005
0.00125676
0.000138566
0.00724058
0.00724661
0.00723254
0.00719723
0.00713914
0.00705618
0.00694555
0.00680353
0.00662517
0.00640402
0.00613167
0.00579721
0.00538645
0.00488078
0.00425548
0.00347742
0.00250413
0.00130291
0.000143272
0.00728814
0.00730101
0.00729391
0.0072658
0.00721525
0.00714022
0.00703793
0.00690455
0.00673493
0.00652225
0.00625757
0.00592925
0.00552216
0.00501653
0.00438612
0.00359556
0.00259849
0.001356
0.000148538
0.00734399
0.00736374
0.00736362
0.00734279
0.00730001
0.00723337
0.00714011
0.00701635
0.00685673
0.00665401
0.0063986
0.00607791
0.00567557
0.00517029
0.00453403
0.00372918
0.00270557
0.00141732
0.000154512
0.00741383
0.00744009
0.00744659
0.00743284
0.00739784
0.00733988
0.00725631
0.00714321
0.00699504
0.00680412
0.00656009
0.00624916
0.00585328
0.00534902
0.00470593
0.00388378
0.00282899
0.00148885
0.000161185
0.00750292
0.00753479
0.00754715
0.00753992
0.00751245
0.0074633
0.00738999
0.00728866
0.00715362
0.00697681
0.00674703
0.00644908
0.00606266
0.00556127
0.00491084
0.00406749
0.00297436
0.00157329
0.000168758
0.00761569
0.0076517
0.00766865
0.00766702
0.00764655
0.00760615
0.00754356
0.0074551
0.00733508
0.00717518
0.00696347
0.0066832
0.00631134
0.00581714
0.00516076
0.00429226
0.00315034
0.00167382
0.000178067
0.00775543
0.00779342
0.00781326
0.00781596
0.0078017
0.00776975
0.00771818
0.0076436
0.00754056
0.00740075
0.00721184
0.00695576
0.00660653
0.00612789
0.00547134
0.00457597
0.00337158
0.00179642
0.000189996
0.007924
0.00796126
0.00798188
0.00798737
0.0079783
0.00795427
0.00791376
0.00785384
0.00776955
0.00765308
0.00749232
0.00726862
0.00695364
0.00650507
0.00586237
0.00494558
0.00366405
0.00195356
0.00020535
0.00812172
0.00815512
0.00817422
0.00818083
0.00817576
0.00815891
0.00812918
0.00808422
0.00801993
0.00792957
0.00780218
0.00762006
0.00735433
0.00695813
0.00635718
0.00544175
0.0040759
0.00217151
0.00022606
0.00834725
0.00837363
0.00838901
0.00839513
0.00839283
0.0083822
0.00836255
0.00833225
0.00828829
0.00822559
0.00813555
0.00800346
0.00780357
0.00748973
0.00697857
0.00612404
0.00470301
0.00252402
0.000254012
0.0085977
0.00861443
0.0086243
0.00862856
0.00862788
0.00862237
0.00861171
0.00859499
0.00857046
0.00853511
0.00848365
0.00840662
0.00828625
0.00808727
0.00773542
0.00706793
0.00574034
0.00323242
0.000292729
0.00886894
0.00887452
0.00887785
0.00887937
0.00887933
0.0088778
0.00887468
0.00886972
0.00886239
0.00885179
0.00883629
0.00881288
0.00877567
0.00871187
0.0085899
0.00831732
0.00757289
0.00519469
0.000344215
)
;

boundaryField
{
    leftWall
    {
        type            nutkWallFunction;
        Cmu             0.09;
        kappa           0.41;
        E               9.8;
        value           nonuniform List<scalar> 
50
(
4.04876e-06
5.9824e-06
7.0883e-06
7.88879e-06
8.51319e-06
9.02996e-06
9.47733e-06
9.87855e-06
1.04595e-05
1.10575e-05
1.16294e-05
1.2581e-05
1.18747e-05
1.19192e-05
1.1254e-05
7.26383e-06
5.37312e-06
5.39575e-06
5.5647e-06
5.8463e-06
6.15753e-06
6.46414e-06
6.77093e-06
6.97071e-06
7.07696e-06
7.10604e-06
7.06892e-06
6.97359e-06
6.82654e-06
6.63409e-06
6.39913e-06
6.12391e-06
5.8105e-06
5.45928e-06
5.06656e-06
4.64309e-06
4.23468e-06
3.83325e-06
3.45388e-06
3.11612e-06
2.83556e-06
2.62222e-06
2.48484e-06
2.44298e-06
2.55353e-06
2.96695e-06
4.0143e-06
6.81224e-06
1.86344e-05
4.87247e-05
)
;
    }
    rightWall
    {
        type            nutkWallFunction;
        Cmu             0.09;
        kappa           0.41;
        E               9.8;
        value           nonuniform List<scalar> 
50
(
6.01445e-06
7.58666e-06
8.27519e-06
8.65524e-06
8.88578e-06
9.0401e-06
9.13951e-06
9.21363e-06
9.25386e-06
9.1679e-06
9.47309e-06
1.07358e-05
9.9593e-06
1.19733e-05
1.09736e-05
7.29987e-06
4.71309e-06
3.71957e-06
2.81073e-06
2.41539e-06
2.83453e-06
3.57006e-06
4.37925e-06
5.29585e-06
6.0405e-06
6.70254e-06
7.29658e-06
7.88446e-06
8.35183e-06
8.53552e-06
8.672e-06
8.74428e-06
8.81576e-06
8.93619e-06
9.24942e-06
9.74029e-06
1.02984e-05
1.09433e-05
1.16409e-05
1.24253e-05
1.33108e-05
1.4231e-05
1.53138e-05
1.66865e-05
1.84227e-05
2.06211e-05
2.35498e-05
2.74505e-05
3.27625e-05
3.96731e-05
)
;
    }
    lowerWall
    {
        type            nutkWallFunction;
        Cmu             0.09;
        kappa           0.41;
        E               9.8;
        value           nonuniform List<scalar> 
62
(
1.68683e-06
2.88219e-06
3.52878e-06
3.95131e-06
4.25738e-06
4.49068e-06
4.67382e-06
4.82033e-06
4.93934e-06
5.03768e-06
5.12045e-06
5.19132e-06
5.25743e-06
5.31301e-06
5.34841e-06
5.34504e-06
5.25618e-06
5.02991e-06
4.80423e-06
4.62309e-06
4.38099e-06
3.75314e-06
2.1804e-06
2.1804e-06
7.75812e-06
9.15834e-06
1.02876e-05
1.13679e-05
1.26163e-05
1.4326e-05
1.68795e-05
1.75666e-05
1.66473e-05
1.65509e-05
1.72487e-05
1.68952e-06
7.19065e-06
8.67666e-06
9.90137e-06
1.11421e-05
1.26264e-05
1.46173e-05
1.75553e-05
1.68952e-06
3.43014e-06
4.04533e-06
4.30756e-06
4.4122e-06
4.42779e-06
4.40829e-06
4.38934e-06
4.40362e-06
4.43661e-06
4.30141e-06
4.05253e-06
3.87727e-06
4.08137e-06
4.39339e-06
4.36401e-06
3.99064e-06
3.29113e-06
2.3932e-06
)
;
    }
    atmosphere
    {
        type            calculated;
        value           nonuniform List<scalar> 
46
(
0.009
0.000256664
0.000546512
0.00101484
0.0015545
0.00216641
0.00282263
0.00347042
0.00406484
0.00458364
0.00502525
0.0054011
0.00572928
0.00603134
0.0063318
0.00666041
0.00705849
0.00759579
0.009
0.009
0.009
0.009
0.009
0.009
0.009
0.009
0.009
0.009
0.009
0.009
0.009
0.009
0.009
0.009
0.009
0.009
0.009
0.009
0.009
0.009
0.009
0.009
0.009
0.009
0.009
0.000344215
)
;
    }
    defaultFaces
    {
        type            empty;
    }
}


// ************************************************************************* //
