/*--------------------------------*- C++ -*----------------------------------*\
  =========                 |
  \\      /  F ield         | OpenFOAM: The Open Source CFD Toolbox
   \\    /   O peration     | Website:  https://openfoam.org
    \\  /    A nd           | Version:  9
     \\/     M anipulation  |
\*---------------------------------------------------------------------------*/
FoamFile
{
    format      ascii;
    class       surfaceScalarField;
    location    "0.5";
    object      phi;
}
// * * * * * * * * * * * * * * * * * * * * * * * * * * * * * * * * * * * * * //

dimensions      [0 3 -1 0 0 0 0];

internalField   nonuniform List<scalar> 
1300
(
11.2529
1.87548
-10.1445
11.2529
-9.13386
1.87548
-9.31491
9.31491
-3.38865
3.38865
5.76721
5.48565
-7.86445
7.86445
-7.70694
7.70694
-6.84741
6.84741
-1.13998
1.13998
-1.13046
1.13046
1.20449
-1.20449
-7.07547
7.07547
-4.68364
4.68364
-8.66722
8.66722
7.28881
-7.28881
-7.67473
7.67473
-1.83219
1.83219
-3.52158
14.7744
7.73128
7.73128
-6.1638
6.1638
-1.35866
1.35866
1.57068
-1.57068
16.1197
-16.1197
-5.97516
-6.46618
2.48904
-15.676
-6.64482
-6.64482
-2.72929
2.72929
-0.853816
1.02166
7.09958
-7.09958
-1.77934
1.77934
-9.40865
0.0937418
-9.40865
9.22092
0.0939939
9.22092
-3.80711
0.418459
-3.80711
8.94706
-8.94706
2.96885
0.419794
2.96885
7.10277
-7.10277
-5.66752
11.4347
5.58534
-5.14642
19.9209
-6.10644
11.5921
-6.54986
6.54986
-8.0137
0.149249
-8.0137
7.92278
-0.0583343
7.92278
-7.51452
7.51452
-7.70625
-0.000688673
-7.70625
7.62132
0.0856166
7.62132
7.26266
-7.26266
-6.91999
0.0725876
-6.91999
6.83285
0.0145597
6.83285
0.696662
1.17882
-2.57214
3.5938
-1.17881
0.0388337
1.11895
0.0210341
1.11895
-1.11565
-0.0148055
-1.11565
1.15577
-0.0253117
1.15577
1.33311
-0.128619
1.33311
-1.14069
-0.0638034
-1.14069
-6.45775
-6.61226
-7.22497
0.149498
-7.22497
-4.73186
0.0482198
-4.73186
4.60771
0.0759324
4.60771
-4.86598
4.86598
-8.93253
0.265304
-8.93253
7.01178
0.277026
7.01178
5.11181
6.14105
16.3647
-16.3647
9.07586
-7.68991
0.0151812
-7.68991
-7.6702
-8.44946
7.6702
0.00452875
-2.14353
0.311342
-2.14353
7.27748
0.453794
7.27748
6.55504
0.277807
-6.55504
0.391242
8.06711
-8.06711
4.39922
1.76458
4.39922
-1.28792
1.28792
1.21637
-0.0605973
-1.21637
-0.142297
1.54726
0.0234164
1.54726
-1.55572
-0.0149535
-1.55572
6.58482
-13.051
-6.60455
6.83958
0.235892
-6.83958
0.194752
7.14991
-0.0503253
7.14991
-7.03283
7.03283
-7.06504
-0.0345405
-7.06504
-1.59993
-0.17941
-1.59993
2.02753
-0.248193
2.02753
-9.30284
-0.105814
-9.30284
-9.11979
0.187265
9.11979
0.101126
2.98548
-2.98548
-4.09114
0.284035
-4.09114
-9.09519
-0.207654
9.09519
-0.148124
-8.90343
-0.0436314
-8.90343
-7.13201
0.0669667
7.13201
-0.0292392
7.02876
0.248728
-7.02876
-0.074015
-5.36649
11.5075
-5.88637
11.4717
-6.11276
-0.437109
-6.11276
6.91367
-0.363807
6.91367
8.53046
0.136759
-8.53046
0.516765
7.75048
0.172303
7.75048
-7.37128
-0.143237
-7.37128
7.56144
-0.0469252
7.56144
7.69225
0.0582312
-7.69225
-0.0139995
7.79367
-0.172353
7.79367
7.3299
-0.0672457
7.3299
-7.10955
-0.153102
-7.10955
7.03034
-7.03034
6.85871
0.17163
-6.85871
-0.061283
-4.83191
4.81695
-0.00467256
-4.82723
1.11427
1.11427
1.47675
-0.143637
1.47675
-1.07934
-0.0613492
-1.07934
6.58563
-13.1902
6.52306
-12.9808
6.57513
-22.2511
6.67492
-13.2872
7.51316
-7.51316
7.31092
0.20224
-7.31092
0.0859521
-4.6167
-0.115163
-4.6167
-4.42812
-0.437862
-4.42812
5.41417
-0.548187
5.41417
-7.14205
7.14205
-7.05391
-0.0881387
7.05391
-0.0421281
7.65488
0.138792
-7.65488
-0.0350245
2.56398
0.404873
-2.56398
0.420454
8.21554
-0.148431
8.21554
-7.6744
-0.392713
-7.6744
-4.48047
-0.136221
4.48047
-0.081259
-1.39387
0.105948
-1.39387
-4.85951
0.0322739
-4.83847
-1.52345
-1.52345
1.20584
4.79964
-7.11713
0.00757972
7.11713
0.032776
6.97782
0.164228
-6.97782
-0.0550159
-7.05267
0.0223268
7.05267
-0.0198337
-1.45709
-0.142832
-1.45709
-2.47787
2.47787
-2.26597
-0.211899
2.26597
-0.238442
3.28898
-0.303497
3.28898
4.42827
0.179436
-4.42827
0.337129
-8.56698
-0.336449
-8.56698
7.02049
-0.106823
7.02049
-7.46063
-0.213765
7.46063
-0.13073
-0.00283418
4.81979
-1.11144
-0.00421161
1.11144
-4.8432
4.83899
-1.35132
-0.105771
1.35132
0.125422
1.14304
0.144882
-1.14304
0.0637042
7.49187
0.0695747
-7.49187
-0.0212884
-4.0773
-0.350819
-4.0773
-5.77941
-0.333348
5.77941
-0.365242
-4.85847
-0.0937921
4.95227
-4.88379
1.48766
0.0595997
-1.48766
4.89859
-2.68792
-0.297558
2.68792
-0.210052
3.57097
-0.281996
3.57097
8.59477
-0.379229
-8.59477
0.0277875
-7.29265
-0.0786273
7.29265
-0.27216
-3.87352
-0.203774
3.87352
-0.30255
-13.1162
13.57
6.80462
-6.53485
-6.51616
-14.9843
4.92734
6.5802
14.0032
-13.7503
-8.50087
-13.5555
2.91094
-2.84724
-5.79721
5.66859
22.9476
-22.9912
-18.6095
18.5674
20.3264
-20.3556
5.57686
5.85787
21.1973
-21.048
-20.1001
19.663
20.0285
-20.0292
20.7223
-20.8655
-23.9485
24.0181
-17.9838
18.0564
-20.9408
20.7877
-21.1535
21.0228
-6.50228
-6.47853
17.4974
-17.3479
22.9124
-22.8972
-22.7488
23.0141
10.545
3.02503
10.7937
-6.19282
11.7697
-5.39927
12.2039
6.57673
-13.079
6.61345
-13.1296
11.6766
11.2357
-11.6811
-3.30316
-18.707
18.6567
-18.4249
18.405
24.8322
-24.7385
-5.91223
11.7701
-5.55949
12.1397
-10.9354
-7.67416
10.6583
3.34487
10.6951
6.80224
-10.931
-2.62449
-23.8578
23.4785
-24.5093
24.1166
-0.230291
2.38326
-2.15297
1.12837
-0.354051
2.73731
2.55689
2.49554
2.39656
-2.25168
0.450678
-2.60364
-2.74594
-8.46792
8.75196
8.48547
-8.06567
17.4659
5.48167
17.3178
-16.5741
-6.41713
-16.9105
12.2132
6.35419
12.1251
12.8204
7.50594
12.8874
9.60022
-9.73813
0.137911
-9.84236
19.4426
2.03197
-17.5165
-14.1717
13.6642
7.53311
13.6058
-14.5201
-6.52791
-14.0034
-11.8668
-8.23327
-12.2002
12.8184
6.84459
12.4546
-15.3479
15.0758
13.0657
6.96283
13.1513
-13.1485
-6.88076
-13.1625
20.4321
-5.51305
-14.919
-13.4654
-10.4831
13.5124
7.2099
14.5877
9.43041
14.5664
7.08446
13.3476
-14.2944
3.81128
-11.9435
-6.04029
-12.0048
11.515
6.54142
11.5296
-13.2817
-7.65911
-13.2741
-13.2294
-7.9241
13.2967
7.49104
-13.4269
-11.0824
13.6407
7.38213
6.17617
-14.677
7.11101
-13.5895
-12.1776
-5.17029
-12.0916
8.03867
5.24731
-13.286
-5.04034
21.4731
-10.2374
18.1699
-14.2695
-8.62771
-14.3045
-17.9405
-4.80826
-17.7533
-9.92034
9.56952
-10.7397
10.1916
20.6848
-11.8249
-8.85991
-12.5543
-7.8013
12.6283
-1.83458
-11.6919
11.8298
0.077745
12.2816
15.3067
13.4721
-12.105
-6.31991
-12.16
12.0379
6.36719
12.0602
18.1048
6.72738
18.1988
-18.5297
-6.20878
-18.6355
8.05745
-8.23686
9.39923
-9.53545
15.9326
8.18404
-15.7841
-8.07361
18.9398
-9.48676
-9.45307
-5.76458
7.58045
-1.81587
-3.02727
-1.8989
-0.0667092
-2.73054
-3.06667
2.79434
-0.298803
7.28165
4.21498
-2.30874
2.41468
2.64353
2.58293
-0.163009
4.40028
-4.50605
15.9338
-8.84948
-7.08428
15.3278
-15.5354
-3.30771
-16.0237
12.716
1.78232
5.85272
-5.54138
-6.69331
-1.77461
-6.35618
5.30894
3.17652
5.71381
3.02529
5.72667
-9.42935
1.92055
7.5088
-6.40406
-6.14512
-10.94
-4.19934
15.1394
16.9669
6.51164
-16.9947
0.0841619
8.6657
-8.58977
-1.91264
-9.02739
7.14093
-9.05357
-11.2109
-5.62283
16.8338
-10.5556
-1.60443
10.3913
1.73373
-11.9596
-6.74749
11.9941
0.893291
-9.699
19.4529
-9.75389
-16.0189
8.15536
11.2872
14.5095
-15.1335
7.62522
7.50832
-3.84633
11.5516
2.0542
11.7239
-18.1487
11.6208
15.594
7.42009
-15.7308
1.72741
-16.4213
18.7354
-16.5856
-2.14973
9.72565
9.00973
10.4549
10.2299
-6.90073
17.3557
-2.39521
-14.1904
18.8165
-11.3964
11.2558
-22.6522
-21.4857
7.29526
-13.5274
16.6796
-3.15218
-4.81562
-10.5323
18.3431
-1.81543
-16.5276
10.6391
-10.3602
-10.7603
21.1205
-15.8732
17.6411
-5.12729
-12.5138
-12.9036
-7.96193
12.9822
2.0936
-19.4955
23.3068
-6.14786
11.3974
1.75392
11.225
7.64875
-11.7565
4.10773
8.22446
-13.3518
4.96507
-16.7215
-9.58467
18.8415
-9.25684
-14.755
-13.3279
-1.42707
4.10609
19.2007
-13.5365
10.6509
2.8856
10.2943
1.7659
-10.4659
-1.53892
1.22317
14.2291
-15.4523
12.7527
13.0305
11.2431
2.98607
12.0947
6.56199
-12.1275
-1.14663
-12.5787
4.65459
-5.08764
-11.0253
15.6798
-12.4677
1.4424
-8.47408
-11.0393
19.5134
-14.5144
9.56401
9.88888
15.9312
-15.373
4.33374
-7.65811
-7.71492
8.13392
-13.2216
5.88829
9.79155
13.2704
2.188
9.39247
9.44904
-14.6398
1.05025
16.2513
-13.6268
3.20718
11.3592
-13.8581
0.530185
-11.5614
2.21193
-12.4493
-11.0741
13.1344
-17.9427
-9.51775
16.5091
1.68971
-16.6102
-1.14304
-6.8213
-3.09903
-7.02508
-3.68738
-7.05237
-10.5881
-2.07929
-8.50882
7.49023
-8.09674
-4.10341
8.46199
1.72957
-7.88313
7.58557
-8.11181
7.82981
0.398341
11.4315
13.8704
6.06912
-7.58517
13.6543
-12.7269
19.4543
-23.2118
10.4848
12.302
-18.5107
-10.9098
4.99513
3.06232
4.74693
11.3955
-12.546
1.15051
-11.7339
14.5705
-2.83653
-18.4554
6.72145
-7.05987
8.68312
0.716107
8.56796
2.34635
7.32594
-9.6723
-7.1891
-7.27036
-6.90478
-10.6341
17.5388
3.60108
-10.2862
6.68511
-10.7221
14.3232
-0.193931
-10.0923
16.3026
-8.97662
17.0187
-10.916
6.10263
9.9632
16.997
-7.03384
13.4244
-5.24035
5.28327
-12.3171
-5.35079
-9.4521
15.9935
-10.0613
11.5037
-0.541221
12.0449
-12.8201
3.3333
-1.577
11.4535
11.8448
12.8516
-9.86557
8.91853
-14.1589
-3.39858
-11.9709
-2.17933
0.681014
-10.67
9.98897
10.4773
-9.79629
-3.80867
9.86285
-6.05418
7.78808
-4.01147
-3.77661
-3.37375
-4.86311
3.51658
0.883698
8.67178
0.963201
-4.97467
-3.54285
-3.41743
8.64854
7.28522
-6.6898
4.87392
6.7565
-0.903781
1.63297
4.08085
6.40623
-4.77327
1.04008
5.36615
-4.5013
6.48
2.1857
-6.65943
0.303251
-3.90942
11.0503
3.59939
-6.77591
2.00264
2.11016
-10.9596
14.8816
-8.1251
-6.75646
16.9917
2.7984
-10.9235
13.2253
-11.443
6.46697
-10.6663
-4.45653
-15.8995
-10.4179
-7.73498
14.4201
-9.80385
16.3155
3.20916
-16.3997
19.6088
-10.9001
5.27723
-9.55217
11.7379
-3.42313
-6.12904
8.65084
8.18293
-8.73696
-0.290424
-0.086118
7.36083
-7.44695
-1.69274
-8.0968
-14.3611
15.2544
-6.79917
14.4244
6.85513
-6.12827
20.5527
5.81771
-11.946
-10.2012
-11.8056
-4.43766
10.0719
-1.67786
-11.4846
-14.1916
11.4264
0.297575
-18.0262
20.2265
-2.20034
-10.4931
-1.12768
10.8533
-14.7036
1.35185
-9.73853
10.488
12.5422
12.8398
-16.3035
-0.224137
-9.45891
2.43516
-11.8941
11.4449
-5.44843
12.7437
-13.6368
9.53339
-11.9072
10.594
-1.30012
10.7461
-6.63834
4.17296
-12.1349
-10.0413
13.9537
-6.99083
15.7076
-7.98179
23.6894
-14.1296
13.888
9.80135
-2.70511
-11.5994
-13.6525
10.9474
0.235545
11.4606
15.4582
-8.89625
14.3116
6.56907
-14.2272
-6.65249
-20.2983
6.0711
-10.4094
-5.7924
11.8635
10.1388
11.9047
4.14858
-10.3658
13.1642
-14.5913
-3.90734
-7.16672
13.4176
-2.47021
7.65944
-14.8262
-4.78986
9.90996
-0.4966
-9.41336
1.91495
-11.4327
4.65724
-16.0899
13.2854
-14.4285
2.5698
-9.62967
-5.31333
-5.52338
-2.61001
-5.5018
-8.50173
5.89172
-1.78028
5.80529
-10.3286
9.83204
-4.24182
10.1335
-6.01338
-1.0117
6.31593
1.51388
11.6474
1.85566
-12.7655
-7.08009
11.9299
-4.84982
1.56846
-8.81432
3.11559
6.54703
10.4447
-19.263
0.752312
-12.0131
-4.98444
8.04676
4.87841
15.3557
2.8097
8.51617
-0.469412
11.3259
4.27752
4.03908
-8.32848
9.47899
1.66049
12.1453
-2.66224
8.76487
5.90572
5.95394
2.63583
7.16717
4.6776
10.5005
0.828172
-6.44218
3.08961
-6.50703
-1.88506
-6.65067
-0.982083
4.85412
-5.8362
9.38004
-2.09482
4.53022
-1.75373
-6.10061
7.85434
-8.83801
-7.00439
-1.63824
-5.54822
7.55087
5.50212
-5.91263
-2.92539
1.39116
-11.809
9.27515
-9.56558
-1.38265
18.2262
-8.42974
0.982794
-3.15251
-7.11401
-8.88862
8.58536
19.4393
1.11336
9.68541
16.3677
9.62024
0.723987
8.62998
-11.7822
-8.09157
-12.0063
-0.561407
10.2919
3.71388
15.4868
13.5152
11.045
-3.78114
-18.3724
15.2883
-5.80929
12.4517
-3.03838
-13.0516
12.8646
6.58971
-14.5543
0.125809
-12.9258
-18.735
-0.507291
10.3393
-11.1401
10.1284
7.0294
1.47942
-4.31244
-1.21095
4.52434
-0.485258
10.8406
-0.174742
-9.01223
9.18697
-4.67938
2.79431
-1.03453
5.90845
6.81982
4.725
-4.28723
-10.1234
-6.54434
-4.4153
-13.3008
1.83856
-7.34069
6.81882
-4.02451
3.0422
5.16246
9.69268
-1.50217
-8.29412
7.55635
-4.51415
5.17853
)
;

boundaryField
{
    wall-4
    {
        type            calculated;
        value           uniform 0;
    }
    velocity-inlet-5
    {
        type            calculated;
        value           uniform -11.2529;
    }
    velocity-inlet-6
    {
        type            calculated;
        value           uniform -1.87548;
    }
    pressure-outlet-7
    {
        type            calculated;
        value           nonuniform List<scalar> 8(10.1445 9.13386 12.4413 13.187 13.07 13.1894 13.1087 13.25);
    }
    wall-8
    {
        type            calculated;
        value           uniform 0;
    }
    frontAndBackPlanes
    {
        type            empty;
        value           nonuniform List<scalar> 0();
    }
}


// ************************************************************************* //
