/*--------------------------------*- C++ -*----------------------------------*\
  =========                 |
  \\      /  F ield         | OpenFOAM: The Open Source CFD Toolbox
   \\    /   O peration     | Website:  https://openfoam.org
    \\  /    A nd           | Version:  9
     \\/     M anipulation  |
\*---------------------------------------------------------------------------*/
FoamFile
{
    format      ascii;
    class       volVectorField;
    location    "0.5";
    object      U;
}
// * * * * * * * * * * * * * * * * * * * * * * * * * * * * * * * * * * * * * //

dimensions      [0 1 -1 0 0 0 0];

internalField   nonuniform List<vector> 
918
(
(2.47517 -0.234195 0)
(0.103667 0.730526 0)
(-0.0199008 2.58473 0)
(2.27481 0.211268 0)
(0.0101469 2.37658 -1.41116e-19)
(-0.0878273 0.650231 -8.87679e-18)
(1.47728 2.20042 -1.43439e-18)
(0.891992 0.51776 -6.34503e-20)
(2.99501 -0.0280079 0)
(0.0149791 2.0276 0)
(0.0105011 1.99535 0)
(1.77192 0.0182408 0)
(0.00960201 0.480729 0)
(-0.00182707 0.478867 0)
(0.0431487 0.604348 -2.76625e-18)
(-0.00747835 1.8996 -2.87345e-19)
(1.2152 0.296951 4.80482e-18)
(0.276619 2.38018 -1.18325e-18)
(1.90923 0.0393711 0)
(0.0064744 1.99305 0)
(0.554424 0.452598 -2.63387e-18)
(2.89375 -0.323249 0)
(2.90027 -0.35593 0)
(2.12558 -0.0495595 0)
(1.57079 0.0768064 0)
(-0.00782513 0.557034 0)
(0.00146612 0.573603 3.31277e-18)
(-0.24211 2.57985 0)
(-0.0139418 3.3555 0)
(-0.083614 3.03792 0)
(0.0665041 3.45393 0)
(-0.0583688 2.73667 1.08763e-19)
(-0.0363897 1.84728 0)
(-0.132871 0.796333 -3.46593e-22)
(-0.175741 1.04421 7.38531e-18)
(-0.0334422 1.04124 0)
(1.825 -0.00378144 0)
(0.4079 0.605869 1.46147e-18)
(1.97494 2.84905 2.98339e-18)
(1.72832 2.00586 -2.38815e-18)
(1.59106 3.07334 3.27211e-19)
(1.15985 2.3197 -1.6804e-18)
(1.46934 0.83116 6.24046e-20)
(0.989312 0.497619 0)
(2.22172 1.22263 0)
(1.35146 0.846557 2.76849e-19)
(0.800649 0.513313 -2.84097e-19)
(1.8302 -0.0192285 0)
(3.03462 -0.0194816 0)
(2.99465 0.00257414 0)
(3.03816 -0.42765 0)
(3.05459 -0.121639 0)
(3.02627 -0.0715783 0)
(0.0271781 1.78486 -2.57193e-18)
(0.0216776 2.82892 0)
(0.0550699 2.05339 0)
(-0.0330627 2.82304 0)
(-0.0163444 2.03535 0)
(0.0079864 1.96115 0)
(0.0195164 2.74816 0)
(0.0140672 1.99326 0)
(0.00127795 2.74358 0)
(-0.00439517 1.95543 0)
(1.87759 0.0138059 0)
(2.46463 0.0309903 0)
(1.7769 0.0110213 0)
(2.43875 -0.0122294 0)
(1.76066 -0.00962985 0)
(0.197768 0.943689 3.3316e-18)
(0.100015 1.17296 0)
(0.157149 1.05277 0)
(0.0291312 0.804092 3.78868e-23)
(0.0282726 0.538528 -4.98195e-18)
(0.0112614 0.79649 0)
(0.00266171 0.473164 0)
(0.00285797 0.792018 8.37493e-24)
(0.00250715 0.471286 0)
(-0.0182904 0.803252 0)
(-0.0107763 0.487559 0)
(0.106205 1.15224 0)
(0.0893709 0.85136 0)
(0.0728746 1.00852 2.61545e-18)
(0.0383638 0.527686 0)
(-0.0102648 3.49028 0)
(-0.0169885 2.67754 2.85279e-19)
(-0.00622735 1.90928 -3.65447e-19)
(1.86265 0.434367 -1.68597e-18)
(1.25551 0.233759 -1.64823e-18)
(1.81089 0.526612 -5.00405e-18)
(1.18476 0.360439 -3.18086e-18)
(0.181241 1.36462 0)
(0.451788 3.24142 1.06339e-18)
(0.595394 2.43764 -1.6981e-18)
(2.57967 0.0251391 0)
(1.79024 0.0128133 0)
(3.01375 0.0916491 0)
(3.1124 0.413297 0)
(2.93949 0.242177 -2.28649e-17)
(2.63264 0.330772 1.74929e-17)
(0.0177016 2.73284 0)
(0.0135069 1.98458 0)
(-0.0530706 3.05921 0)
(-0.00851794 2.74964 0)
(0.00815521 1.9844 0)
(1.02347 0.800803 8.38282e-19)
(0.619226 0.486131 0)
(2.66033 -0.0420787 0)
(1.86888 -0.0178884 0)
(2.411 0.0437505 0)
(2.29865 0.124767 0)
(1.67512 0.0279233 0)
(2.11914 0.0398203 0)
(2.12431 0.105079 0)
(1.26572 0.0557253 7.90991e-18)
(-0.00722039 0.501982 3.48102e-18)
(-0.0204711 0.838523 0)
(-0.0622629 0.90516 0)
(-0.0121998 0.519041 0)
(0.00346921 0.912904 3.28429e-18)
(0.00205379 0.568016 0)
(0.00128903 0.914617 -9.99674e-18)
(-0.00139121 0.570251 3.35479e-18)
(0.0258533 3.48098 0)
(-0.000640756 3.50938 0)
(-0.0146437 2.66807 -7.48816e-21)
(-0.0431772 2.64434 0)
(-0.00524352 1.83881 0)
(2.5437 0.012126 0)
(1.84435 0.00656621 0)
(1.80431 -0.00154475 0)
(2.54917 0.007136 0)
(1.80549 0.0155788 0)
(0.730642 1.08794 -1.83464e-18)
(0.390778 0.569519 0)
(0.769002 1.17975 2.05284e-19)
(0.419395 0.670159 0)
(2.30563 2.6019 7.66057e-19)
(1.88538 1.75095 -1.68478e-18)
(0.857357 3.28232 0)
(1.24046 3.2338 0)
(0.881921 2.39928 0)
(0.392953 0.920241 -9.47525e-19)
(1.57183 0.764009 0)
(1.04502 0.461329 8.59725e-19)
(2.53564 2.29828 0)
(2.74153 1.94709 0)
(2.0494 1.48953 1.83642e-18)
(2.93591 1.57337 0)
(2.32911 0.973857 5.15426e-20)
(2.54554 0.0198543 0)
(2.53335 -0.00763293 0)
(1.84823 -0.00197682 0)
(2.56399 -0.0236839 0)
(2.54254 -0.0145587 0)
(1.79495 -0.00410628 0)
(3.04232 0.149328 0)
(3.01159 0.059422 0)
(2.99264 0.0631094 0)
(0.0277933 2.47669 1.34792e-18)
(0.0099393 1.67851 0)
(0.0326053 2.58218 2.48381e-18)
(0.0207987 1.85458 -2.28616e-18)
(0.124744 3.1326 1.00026e-18)
(0.0626045 2.97289 0)
(0.0547522 2.21581 0)
(0.00920857 2.82524 0)
(0.0107058 1.98025 0)
(-0.000687161 2.69132 -1.20165e-20)
(-0.0172532 1.93028 0)
(-0.0033321 2.73341 -6.70926e-19)
(-0.0108737 1.97257 1.28518e-18)
(0.0178319 2.78219 0)
(0.0217487 2.75648 0)
(0.014843 1.96745 0)
(-0.0204571 2.76052 0)
(-0.0116198 2.00751 0)
(2.61539 0.0183103 0)
(1.89169 0.00573912 0)
(2.56209 0.0134867 0)
(1.82142 -0.00913308 0)
(1.80024 -0.00618164 0)
(2.50913 0.0219671 0)
(2.47937 0.0151173 0)
(1.74599 0.0116802 0)
(-0.00114981 1.34799 -3.04454e-20)
(0.00275296 1.31281 0)
(0.00154956 0.787729 0)
(0.00088809 0.470777 0)
(0.541382 1.5123 0)
(0.510571 0.763996 -6.22164e-19)
(0.0594096 0.86729 0)
(0.0186001 0.467958 0)
(-0.00215261 3.53342 0)
(-0.0173075 3.44852 0)
(-0.0026512 3.4927 0)
(0.019261 3.49081 7.12035e-20)
(-0.00123302 3.54217 0)
(0.0218418 3.54085 0)
(0.0221177 1.95471 4.11195e-20)
(-0.00458507 2.73554 4.60956e-19)
(-0.00314943 2.69935 3.75407e-19)
(-0.00363862 1.90043 0)
(1.89713 0.322057 2.65251e-18)
(1.24778 0.159522 -2.58829e-18)
(0.298749 2.03413 0)
(0.225992 1.2621 -5.62444e-19)
(0.204412 2.1767 -1.85328e-18)
(0.114594 1.50665 1.84363e-18)
(1.8323 -0.0209511 0)
(2.54358 -0.0341024 0)
(2.51368 -0.00896302 0)
(1.81745 -0.00633696 0)
(0.0249385 2.77593 0)
(0.0158459 2.74922 0)
(0.0180558 1.96694 0)
(1.24502 0.852003 2.50717e-18)
(1.11791 0.853065 -2.88058e-18)
(0.711172 0.504014 0)
(2.96261 0.175804 3.18107e-19)
(2.25535 0.123088 0)
(2.78785 0.077134 0)
(1.98921 0.0206157 0)
(1.91781 0.219359 0)
(1.95763 0.144376 -1.26743e-17)
(1.25193 0.0996457 4.66009e-18)
(-0.00915663 0.863604 3.25184e-18)
(-0.00451132 0.530757 4.50836e-20)
(-0.00357431 1.34344 -6.30101e-20)
(0.00288913 1.33133 2.38386e-18)
(-0.00546014 0.913502 1.10633e-19)
(-0.00350184 0.585682 -4.41658e-22)
(-0.0814565 1.03254 -2.00115e-18)
(-0.0331943 1.3075 1.43959e-18)
(-0.0123468 1.31112 -2.38764e-18)
(2.57369 0.00169768 0)
(2.56715 0.0334629 0)
(1.80783 0.024684 0)
(2.54945 0.00353621 0)
(2.5185 -0.0071422 0)
(1.77955 0.00430527 0)
(2.52319 -0.0040982 0)
(2.52011 0.008495 0)
(1.82235 0.0040633 0)
(0.734061 1.04125 -2.03319e-18)
(0.392522 0.530664 0)
(0.402037 0.795437 2.97231e-19)
(0.720602 1.38029 2.4481e-18)
(0.758559 1.28961 -1.45679e-18)
(0.417074 0.73924 2.85255e-18)
(0.630572 1.62081 4.665e-18)
(0.37064 1.00009 8.38482e-19)
(1.7508 0.614756 3.36794e-18)
(1.66162 0.711254 8.65026e-19)
(1.13493 0.415401 1.62563e-18)
(3.02698 1.23415 -2.08844e-18)
(2.32166 0.639339 -2.30447e-18)
(-0.010424 2.63474 1.10668e-18)
(-0.00318219 1.85108 0)
(2.69866 0.0455773 0)
(2.63376 0.0178987 0)
(1.93458 0.014468 0)
(-0.00425905 1.31628 0)
(0.00616406 0.786375 4.53749e-18)
(0.00443403 0.786563 0)
(0.00256039 0.469168 -4.44138e-18)
(-0.0177931 1.31529 1.09489e-18)
(-0.014125 1.34748 0)
(0.741996 0.985931 5.66726e-19)
(0.735866 1.05123 -1.88839e-18)
(0.36989 0.520287 1.70141e-18)
(-0.0238593 0.82601 -3.261e-18)
(0.00446573 0.7987 0)
(-0.00482354 0.468059 0)
(-0.0139558 2.70582 -4.70651e-20)
(0.0280954 2.71645 -1.04723e-18)
(-0.00368386 1.96304 -3.73953e-20)
(0.360629 1.91785 1.85199e-18)
(0.248379 1.18714 -1.23504e-18)
(0.0212412 2.41294 1.58078e-18)
(0.0883999 2.30609 -1.75162e-18)
(0.0438044 1.5984 6.44565e-20)
(0.00257021 1.31082 -7.18642e-18)
(-0.00462147 1.32672 8.29763e-18)
(0.00458145 0.901782 3.21926e-18)
(-0.0202317 0.877743 -3.27829e-18)
(-0.00309625 0.556243 -3.22975e-18)
(-0.022804 1.34216 -8.32785e-18)
(-0.0242485 1.32667 8.47464e-18)
(0.665988 1.51242 0)
(0.681933 1.44762 -4.95601e-18)
(0.389041 0.846223 2.14449e-18)
(0.571938 1.71086 2.49043e-18)
(0.343177 1.06873 -3.85225e-18)
(3.09877 0.45273 1.2032e-18)
(3.12022 0.810118 0)
(2.39011 0.382025 -1.20976e-18)
(-0.0146051 2.693 -1.34781e-20)
(0.0109483 2.65404 0)
(0.0134119 1.91516 0)
(0.406108 1.86767 -6.76583e-19)
(0.508445 1.8025 -1.48944e-18)
(0.302575 1.14358 2.78919e-18)
(3.14419 -0.205785 0)
(3.22031 -0.318373 4.18756e-18)
(0.0229646 3.49461 0)
(-0.0756019 3.50147 0)
(3.13951 0.151924 2.64917e-20)
(3.09435 0.279802 8.5121e-18)
(0.0079206 3.53766 -9.52909e-20)
(0.0570892 3.45086 0)
(0.0601336 1.25731 3.14327e-18)
(0.408335 2.05492 0)
(3.4734 1.76152 -1.06668e-18)
(3.22799 -0.0147469 -4.79192e-20)
(3.20088 0.0364252 0)
(3.07539 -0.0214497 -1.43774e-21)
(0.0756061 3.67987 0)
(0.190307 3.33547 0)
(-0.035102 3.49687 0)
(0.0810316 3.46489 8.3822e-19)
(-0.0207851 3.47784 5.42768e-19)
(3.12849 -0.00176 -3.12013e-20)
(3.29643 0.0977535 0)
(3.34281 0.0717928 0)
(-0.0135049 3.46029 0)
(0.0158744 3.43959 0)
(-0.0218998 3.47942 0)
(0.621433 3.89375 1.23805e-18)
(3.18477 -0.131217 0)
(3.14336 -0.107632 0)
(3.13121 -0.0317037 5.26005e-18)
(3.21223 -0.146942 -6.37864e-18)
(3.16166 -0.142412 0)
(0.0146469 3.47627 0)
(0.00933608 3.49134 0)
(-0.00110426 3.52185 0)
(-0.0159045 3.54395 0)
(-0.0690213 3.52982 0)
(0.0115 3.40307 0)
(3.2358 0.0133954 0)
(3.20505 -0.0297807 -4.10572e-20)
(2.31509 3.36913 -1.4821e-18)
(3.12391 -0.0250595 -5.24108e-18)
(3.21237 0.155379 6.33048e-18)
(3.13367 0.0651729 0)
(3.24279 0.0171657 5.09455e-18)
(3.28292 0.214406 -6.29683e-18)
(3.1929 0.118602 0)
(0.00884633 3.51454 0)
(0.0582753 3.51263 2.75743e-19)
(-0.0299649 3.374 -2.02317e-19)
(3.66638 0.665748 6.4533e-18)
(3.45275 0.16653 0)
(0.0216786 1.17132 -4.35381e-18)
(0.133982 0.842239 -2.72189e-19)
(0.237495 1.36378 6.14214e-18)
(0.196962 1.39047 -1.80486e-18)
(0.167361 1.34329 0)
(-0.00887925 1.23889 1.37906e-18)
(-0.0122159 1.30538 4.30833e-18)
(0.0405597 1.32525 -2.60598e-18)
(-0.0717332 1.25178 0)
(2.2209 1.01374 0)
(2.00821 1.23534 0)
(3.3536 1.98822 3.19342e-18)
(3.32041 2.27335 -4.08636e-18)
(3.47939 1.62512 0)
(3.58347 1.47389 0)
(3.28337 0.0182088 -9.56184e-18)
(3.17466 -0.00787082 1.19078e-17)
(3.26661 -0.0507204 0)
(3.18291 -0.0669224 0)
(3.14615 0.0605096 0)
(3.25195 -0.0033386 0)
(3.16721 0.0504314 0)
(3.26913 -0.0276856 0)
(3.24932 -0.00203693 0)
(3.18691 0.0844549 0)
(0.059774 3.69243 0)
(0.00808478 3.55945 0)
(0.176613 3.75079 0)
(0.21626 3.7372 0)
(0.199311 3.33218 0)
(0.0842174 3.18877 -1.22305e-18)
(0.155982 3.41157 0)
(0.0849686 3.28976 9.30933e-19)
(0.101872 3.40968 -1.30911e-18)
(0.0159504 3.55477 0)
(0.0508783 3.41885 0)
(-0.0410631 3.54368 0)
(-0.0344822 3.43927 0)
(0.0145555 3.47317 -6.93784e-19)
(-0.0443262 3.52383 7.65908e-19)
(0.0496153 3.52455 9.20019e-19)
(0.0215492 3.41864 0)
(-0.0130103 3.51419 -1.32422e-18)
(0.00397616 3.41528 -7.73714e-19)
(0.0435956 3.51056 5.52794e-19)
(-0.0864797 3.45028 -9.73422e-19)
(0.048705 3.48042 -1.1287e-18)
(3.19182 0.00210589 8.20558e-18)
(3.12531 -0.0570226 -1.0519e-17)
(3.16993 0.0620581 -8.12528e-18)
(2.98879 0.0244297 1.01078e-17)
(3.33784 0.0356039 0)
(3.28695 -0.00635711 0)
(3.35096 0.0552714 0)
(3.35429 0.0564181 0)
(3.26395 0.015628 0)
(3.45611 0.152863 0)
(3.39946 0.0939921 0)
(3.33007 0.0699666 0)
(-0.120689 3.51174 -2.78473e-20)
(0.0346405 3.49719 0)
(-0.0326191 3.50675 0)
(0.00791956 3.49371 2.48359e-19)
(0.0164394 3.42865 -1.06569e-20)
(-0.0223267 3.52795 2.8136e-19)
(-0.0378987 3.4734 -2.826e-19)
(-0.0370073 3.52677 0)
(-0.017099 3.53501 0)
(0.0245021 3.48302 0)
(-0.0185702 3.52886 0)
(-0.0443083 3.47506 0)
(0.922237 3.95046 -2.61863e-18)
(1.0511 3.95231 -8.68018e-19)
(0.553883 2.72786 -4.71008e-19)
(0.377568 2.95539 1.48733e-18)
(0.704681 3.33287 6.27199e-19)
(3.26508 0.00116223 0)
(3.23609 0.0142901 0)
(3.19882 0.0655486 0)
(3.16786 -0.0166619 0)
(3.16868 -0.0417607 0)
(3.16835 -0.00713628 0)
(3.21036 0.0945682 0)
(3.25607 0.0818537 0)
(3.23495 -0.03341 8.95566e-18)
(3.17085 -0.0257376 -1.13896e-17)
(3.24203 0.00207654 -8.78701e-18)
(3.13367 0.0183923 1.09346e-17)
(2.15329 3.48365 0)
(1.95956 3.60656 -1.96108e-18)
(2.51375 3.3204 -1.65187e-18)
(2.68322 3.22914 2.18992e-18)
(1.40343 2.11005 5.89834e-18)
(2.66387 0.304724 3.09207e-18)
(3.53264 0.280105 0)
(3.67087 0.530385 -5.25628e-18)
(3.56993 0.24555 -2.29665e-19)
(3.08782 0.385321 0)
(0.967216 1.53905 3.70635e-18)
(0.520679 1.32335 -5.90092e-18)
(0.616478 0.93962 3.31086e-18)
(0.897885 0.87062 -1.49254e-18)
(0.509382 2.03208 1.85073e-18)
(0.321848 1.62402 0)
(0.213777 1.60923 -2.39377e-18)
(0.74482 1.76076 -8.42099e-18)
(0.877491 2.00837 0)
(-0.00674258 1.25699 2.30378e-19)
(-0.0102507 1.38065 -2.55801e-18)
(-0.0342193 1.2541 3.71879e-18)
(-0.0483086 1.34301 0)
(-0.0124282 1.33308 0)
(1.3292 1.89522 0)
(2.01007 2.08733 -2.2383e-18)
(3.04344 2.72706 1.45271e-18)
(2.72696 3.06898 0)
(2.5318 2.69144 -1.17994e-18)
(3.09122 2.5469 4.86721e-20)
(1.62123 1.27869 -3.7093e-18)
(2.33797 1.03901 -2.97935e-20)
(2.21277 0.939784 1.86787e-18)
(2.05671 1.35576 1.23831e-19)
(1.83451 1.25161 -4.91025e-18)
(2.27247 1.14831 0)
(2.29052 1.3471 3.0827e-18)
(2.35464 1.24112 0)
(2.14906 1.28346 0)
(2.02055 1.11678 0)
(2.51396 1.80469 2.37525e-18)
(3.73024 0.760956 -5.22447e-18)
(3.68321 1.132 0)
(3.73344 0.87909 0)
(2.43655 0.683583 2.94657e-18)
(2.50665 1.59733 -1.84868e-18)
(2.40377 1.4764 3.41722e-18)
(2.87355 1.12137 -4.30746e-18)
(3.225 0.0190251 6.12109e-18)
(3.22808 0.0863303 -6.33872e-18)
(3.1559 0.0888394 0)
(3.29156 -0.00710503 0)
(3.25791 -0.0353869 -5.90256e-18)
(3.18798 0.0133478 5.85129e-18)
(3.22318 0.0396198 0)
(3.21632 -0.00269462 0)
(3.24936 -0.00603933 0)
(3.2441 0.000345348 0)
(3.23705 -0.0257438 0)
(3.20754 -0.0260966 0)
(0.0839609 3.59006 0)
(0.0879918 3.50722 0)
(0.229712 3.64262 -1.35242e-18)
(0.505052 3.91919 -7.19152e-19)
(0.302127 3.83313 -1.56435e-18)
(0.327694 3.83965 2.53206e-18)
(0.199053 3.65215 0)
(0.352154 3.48543 -1.49687e-18)
(0.193015 3.52668 0)
(0.610705 3.32568 -9.04734e-19)
(0.497413 3.15716 2.12975e-18)
(0.414216 3.50415 1.31509e-18)
(0.424507 3.7391 -7.45666e-19)
(0.32277 3.63081 5.98803e-19)
(0.530208 3.63296 -2.00729e-18)
(0.45461 3.46022 0)
(0.515293 3.42402 1.49114e-18)
(0.0597793 3.43569 -4.9518e-19)
(0.071855 3.45011 0)
(0.0282327 3.45486 1.36999e-18)
(0.0056637 3.44581 0)
(0.0233296 3.39981 -1.03579e-18)
(-0.00605965 3.3012 0)
(0.0485859 3.52483 -8.59156e-19)
(0.0736068 3.50164 0)
(0.0663048 3.54893 0)
(0.0335058 3.56551 9.78865e-19)
(0.0500518 3.49425 3.27381e-20)
(0.0617142 3.49351 1.59884e-18)
(0.0143326 3.37222 1.13835e-20)
(0.119229 3.42405 4.87518e-19)
(0.0665416 3.39042 2.94026e-19)
(-0.0200246 3.49301 0)
(-0.074605 3.40179 0)
(0.0223181 3.4616 1.37521e-18)
(-0.0196331 3.54497 1.3251e-18)
(0.0323159 3.53961 -1.68852e-18)
(0.027367 3.49746 0)
(0.0247937 3.51952 -9.06084e-19)
(-0.0458333 3.48683 3.83859e-19)
(-0.0358518 3.55587 -1.18363e-19)
(0.115213 3.54003 -5.82399e-19)
(0.0677703 3.47857 -2.04029e-19)
(-0.00740392 3.49538 9.39544e-19)
(3.20504 0.0589067 -5.83566e-18)
(3.2038 -0.0257147 5.66123e-18)
(3.11622 0.07148 0)
(3.15199 0.0274964 7.32504e-18)
(3.0356 0.149555 -7.95169e-18)
(2.98753 0.122502 8.64148e-18)
(3.16162 0.074152 -9.63961e-19)
(3.32177 -0.0515798 0)
(3.31982 -0.0190445 5.57956e-18)
(3.23481 -0.0585533 -5.54599e-18)
(3.22056 0.0570249 -3.20311e-19)
(3.24948 0.0606704 2.72177e-18)
(3.20199 0.151268 0)
(3.18943 0.131274 -9.46876e-19)
(3.2407 0.113548 0)
(3.21016 0.103633 0)
(3.26499 0.0965129 0)
(3.22477 0.0442693 0)
(3.27173 0.117832 1.96194e-18)
(3.26859 0.051861 -4.38216e-18)
(3.13828 0.0285746 -2.12157e-18)
(3.20806 0.0755502 -2.29935e-18)
(3.25947 0.157896 4.45625e-18)
(3.33239 0.123925 0)
(3.30619 0.145451 0)
(0.038428 3.55999 -3.78764e-19)
(0.101765 3.464 -3.51971e-20)
(0.0357379 3.45887 0)
(0.0260792 3.55388 3.85763e-19)
(-0.0880694 3.47926 6.04504e-20)
(-0.0127188 3.51079 -6.61697e-20)
(-0.0482201 3.50763 6.78365e-19)
(0.00803681 3.55032 -4.12331e-20)
(0.0906241 3.50779 1.99274e-19)
(-0.0305162 3.51537 -3.51037e-19)
(-0.0642679 3.42883 4.23731e-19)
(0.00195969 3.48826 7.47677e-21)
(-0.0294271 3.52669 4.41866e-19)
(0.954781 3.70427 1.41688e-18)
(0.771972 3.59139 2.12434e-18)
(1.75061 3.73563 1.89431e-18)
(1.34004 3.95087 8.38484e-19)
(1.52085 3.89095 0)
(0.591208 2.81792 5.75675e-19)
(0.590363 2.59915 6.91605e-19)
(0.466212 2.97725 2.53153e-20)
(0.567929 3.04087 -2.56445e-18)
(0.624942 2.9955 1.87081e-18)
(0.529955 2.88193 0)
(0.417648 2.74068 -1.17354e-18)
(0.151034 3.21506 3.02071e-18)
(0.265976 3.12601 -4.14007e-20)
(0.132896 2.98074 -3.77093e-18)
(1.07027 2.38068 3.11499e-18)
(0.873363 2.53164 0)
(3.20083 0.054664 2.03333e-19)
(3.25102 -0.0176785 -1.72414e-19)
(3.22114 -0.0879234 -3.05696e-18)
(3.23111 -0.00983059 3.0698e-18)
(3.19743 0.0459635 0)
(1.94014 3.28678 0)
(1.97788 3.07476 0)
(2.42289 2.83917 0)
(1.96232 2.84173 0)
(1.44388 2.28385 -1.83389e-20)
(1.26654 2.02703 0)
(1.33625 2.74627 3.36185e-20)
(1.09606 2.86742 0)
(1.19563 2.7893 -2.79706e-18)
(1.24696 2.7337 1.79853e-18)
(2.736 0.400799 0)
(2.56574 0.408267 8.01298e-19)
(2.88613 0.318674 5.16824e-18)
(2.77835 0.294147 -1.81566e-18)
(2.64021 0.223097 -5.79704e-18)
(3.28331 0.55543 -6.54238e-18)
(2.93408 0.851379 -4.76799e-20)
(2.8652 0.773955 4.62141e-18)
(3.00426 0.585446 4.30838e-18)
(2.91932 0.436131 -7.12442e-18)
(2.87051 0.57934 8.63126e-19)
(2.74385 0.69811 -1.9499e-18)
(2.77095 0.691913 0)
(3.06997 0.406953 3.59779e-18)
(3.119 0.499917 0)
(3.10745 0.571537 0)
(3.37314 0.385296 2.12966e-18)
(3.15264 0.541556 -3.53817e-20)
(3.21206 0.49778 -1.13575e-18)
(3.33127 0.471426 0)
(3.21936 0.111278 4.2299e-18)
(3.21903 0.0720187 5.31235e-18)
(3.25812 0.117771 -4.11222e-18)
(3.22583 0.168341 -3.59097e-18)
(3.16516 0.0841412 -5.19967e-18)
(3.07315 0.3523 0)
(3.12606 0.120595 0)
(3.0081 0.167874 -3.04953e-18)
(2.90537 0.073242 1.1269e-18)
(3.21389 0.233714 4.7749e-18)
(3.26075 0.297738 -5.96729e-18)
(3.16769 0.357231 5.1945e-18)
(3.08865 0.371442 0)
(3.21461 0.23213 0)
(3.18586 0.179441 -2.47228e-18)
(3.19701 0.186863 -3.95158e-18)
(1.68904 2.74141 1.47898e-18)
(1.60384 2.70724 -1.51669e-18)
(1.65091 2.57064 -2.26909e-18)
(1.64145 2.57628 5.75777e-19)
(1.5072 2.23302 -5.63794e-18)
(1.45036 2.08281 2.04219e-18)
(1.24495 1.78058 -6.55056e-21)
(1.63415 2.46681 -2.4844e-18)
(1.64589 2.50657 3.72518e-18)
(1.55592 2.53302 1.10135e-18)
(1.44292 2.18546 -1.11566e-18)
(1.22743 1.96633 0)
(1.97874 2.32126 -2.54774e-19)
(1.49833 1.58982 1.73265e-18)
(1.65197 1.51838 2.36982e-18)
(1.54224 1.36704 2.70923e-18)
(1.89967 1.37196 2.77955e-18)
(2.02163 1.46884 -4.69228e-18)
(1.96132 1.55705 3.80255e-18)
(1.80649 1.42885 -1.38991e-18)
(1.67405 1.25054 3.09572e-18)
(2.50098 0.802488 -1.72545e-18)
(2.38318 0.944519 0)
(2.2971 0.810312 1.86497e-21)
(2.31683 1.47849 1.64666e-18)
(2.21084 1.45808 -5.95552e-18)
(2.08835 1.48761 1.4761e-20)
(2.12001 1.43185 0)
(2.20556 2.11311 1.92636e-18)
(2.53829 2.1324 2.59424e-18)
(2.44552 2.2706 -2.96985e-18)
(2.6283 2.19008 -1.12115e-18)
(2.89062 2.33377 -4.11698e-19)
(2.81796 2.38716 4.23169e-19)
(2.71099 1.76199 -3.96773e-18)
(2.75456 2.02717 1.04922e-18)
(2.98673 2.04846 0)
(2.9954 1.93065 -1.57408e-18)
(2.95669 0.88905 1.45389e-18)
(3.37997 0.901303 2.77698e-18)
(3.29973 0.719229 2.61442e-18)
(3.00332 1.06933 -2.818e-18)
(3.35058 1.10463 0)
(3.35194 1.08801 0)
(2.71033 1.0901 -3.97317e-20)
(2.62131 0.83637 0)
(2.63607 0.81726 2.04856e-18)
(2.85248 0.818811 -5.82125e-20)
(2.87594 1.2869 1.20564e-17)
(2.71676 1.43498 3.08695e-18)
(2.7077 1.31331 -2.98992e-18)
(2.5941 1.22006 3.19571e-18)
(2.49337 1.34174 1.76363e-18)
(2.40584 1.27202 -1.70755e-18)
(3.20594 0.100101 4.9207e-18)
(3.18922 -0.0708823 0)
(3.20462 -0.0117651 3.32398e-18)
(3.14078 0.0703313 -7.42941e-18)
(3.25015 -0.0247273 3.56535e-18)
(3.24912 0.0598778 -7.51813e-18)
(3.26958 -0.00177656 0)
(3.23411 -0.0287234 -1.54681e-18)
(3.2456 0.0742382 3.93165e-18)
(3.20434 0.00911555 -2.03073e-18)
(3.20302 -0.03038 1.4621e-18)
(-0.0199232 3.54629 0)
(0.137516 3.53988 0)
(0.0303868 3.56255 0)
(0.0113492 3.49306 0)
(0.100449 3.59156 2.46258e-18)
(0.110142 3.60602 -7.37135e-19)
(0.167732 3.45096 -6.92893e-19)
(0.217997 3.48616 7.52257e-19)
(-0.0160422 3.51947 -1.5788e-18)
(0.0436048 3.48583 1.19226e-18)
(0.0558405 3.58174 -3.39443e-20)
(0.052714 3.57189 -1.46821e-18)
(0.0512558 3.56522 -2.05416e-19)
(0.12232 3.56328 -1.86784e-19)
(0.0992751 3.41057 -1.46533e-18)
(0.131295 3.40037 0)
(0.176046 3.40893 6.95317e-19)
(0.136579 3.47874 6.47326e-19)
(0.335091 3.31321 -5.64582e-19)
(0.223507 3.25037 0)
(0.3064 3.16885 -2.42979e-18)
(0.369421 3.18064 1.72018e-18)
(0.344602 3.33626 -1.52222e-18)
(0.286772 3.32497 8.27931e-19)
(0.167581 3.22056 0)
(0.0440856 3.42205 -1.52244e-18)
(0.00581291 3.44141 -1.71011e-18)
(0.00356313 3.41751 0)
(0.0419139 3.51302 -1.32528e-20)
(0.0588291 3.48558 7.43737e-19)
(0.0226733 3.56764 1.28742e-19)
(0.025538 3.55176 -1.9769e-18)
(-0.0164009 3.55478 5.60506e-19)
(0.00145002 3.40335 6.89274e-19)
(0.0576427 3.55359 0)
(-0.0510528 3.57602 0)
(-0.0102685 3.53508 5.65463e-19)
(0.02652 3.54692 -1.74029e-19)
(-0.050239 3.55883 0)
(-0.0175369 3.51079 4.56795e-19)
(0.0527183 3.40716 -8.82257e-19)
(3.16342 0.144863 0)
(3.27242 0.127152 -5.13351e-19)
(3.18897 0.023756 -3.59375e-18)
(3.10038 0.0171473 0)
(3.18849 -0.0283473 0)
(3.25162 -0.0916169 -4.39171e-20)
(3.17272 -0.0781166 5.91207e-18)
(3.22189 -0.0204627 7.05485e-18)
(3.22628 0.0264719 0)
(3.255 0.0261769 0)
(3.24001 -0.00813888 3.50352e-18)
(3.23309 0.053761 0)
(3.23268 0.0625399 0)
(-0.0921868 3.53177 0)
(-0.01564 3.44026 3.38463e-20)
(-0.0444325 3.45661 1.944e-19)
(0.00679622 3.53586 0)
(0.101473 3.48074 3.1289e-19)
(0.0762483 3.51355 -1.49612e-19)
(0.0403174 3.52172 0)
(0.945838 3.17583 0)
(0.840867 3.28504 -3.64484e-18)
(0.808095 3.20887 0)
(1.0543 3.51201 4.37553e-18)
(1.23237 3.68426 0)
(1.13643 3.65567 -1.90331e-18)
(1.22199 2.69792 -7.38322e-20)
(1.13925 2.49638 -3.70313e-18)
(1.06298 2.24194 4.58969e-18)
(0.947919 2.61633 8.39749e-19)
(1.02143 2.75788 0)
(1.13331 2.72788 0)
(1.06831 2.5558 0)
(0.930046 2.36664 -2.96203e-18)
(0.937669 2.97368 -2.19706e-18)
(0.943158 2.84263 -5.09127e-19)
(1.03438 2.90167 4.16341e-19)
(0.696351 2.73883 0)
(0.857848 2.67643 0)
(0.750456 2.53083 -8.2161e-19)
(0.877072 2.81494 0)
(1.83554 2.79134 0)
(1.8927 2.45132 -3.26188e-18)
(1.90345 2.38704 -1.98161e-19)
(1.85286 2.68799 0)
(1.86026 2.61446 4.99704e-18)
(2.40294 2.46041 -1.04117e-18)
(2.46777 2.59434 0)
(2.39084 2.51007 1.79284e-18)
(1.91153 2.72606 0)
(1.98633 2.47342 0)
(1.54796 2.49168 -2.0442e-18)
(1.60794 2.58681 -1.54442e-18)
(1.61119 2.67516 2.67066e-18)
(1.56947 2.7147 -7.92853e-19)
(1.46525 2.48379 0)
(1.47493 2.5976 1.02876e-18)
(1.31255 2.2393 -1.56996e-18)
(1.18122 2.04958 1.80833e-21)
(1.39165 2.83789 0)
(1.55376 2.86765 -1.2965e-18)
(1.71285 2.98103 0)
(2.7032 0.647942 0)
(2.62509 0.54004 0)
(2.41449 0.566107 0)
(2.64314 0.719735 -3.23232e-18)
(2.53646 0.679236 1.80223e-18)
(2.97359 0.0810652 -2.32231e-18)
(2.98911 0.226464 0)
(2.91701 0.23258 9.63157e-19)
(2.79162 0.197524 3.83047e-18)
(2.70025 0.113497 -2.4342e-18)
(1.29672 2.53112 1.84745e-18)
(1.4638 2.63144 0)
(0.956661 2.38683 3.29053e-18)
(0.927035 2.46257 -3.01745e-18)
(1.20061 2.45169 -2.11343e-18)
(1.80664 2.32135 2.76399e-18)
(1.76357 2.45473 0)
(1.78776 1.85604 -5.62863e-19)
(1.83249 1.97288 3.66426e-18)
(1.80104 1.73758 -8.70829e-19)
(1.9517 1.66868 9.12245e-19)
(2.16531 1.57862 2.11683e-18)
(2.29164 1.55262 0)
(2.04309 1.80908 0)
(2.036 1.71623 0)
(2.93688 1.74747 1.22051e-18)
(2.82119 1.48717 -2.97816e-18)
(2.86526 1.62863 2.6652e-18)
(2.92967 1.40649 -2.43635e-18)
(3.29416 1.43907 0)
(3.19557 1.66123 -8.07431e-19)
(2.58865 1.11295 -4.18342e-18)
(2.61261 1.04335 -5.4244e-18)
(2.45283 1.19204 3.21205e-18)
(2.45388 1.13019 -3.06346e-18)
(2.60466 0.941972 -2.5481e-18)
(2.51645 0.999712 3.13385e-18)
(3.25608 0.00180702 -3.74879e-18)
(3.26811 0.0317934 7.75951e-18)
(3.24445 0.0988932 4.69409e-18)
(3.26078 0.0259787 -5.69034e-18)
(3.06193 0.0326134 0)
(3.04875 0.000537291 -9.32053e-18)
(0.10705 3.44453 3.02531e-19)
(0.0322948 3.48737 0)
(0.147127 3.48603 2.54595e-18)
(0.125901 3.48111 -2.33311e-18)
(0.143785 3.48243 1.28168e-18)
(0.129604 3.54073 0)
(0.0805045 3.5321 0)
(0.0309757 3.4668 -1.82694e-19)
(0.0068664 3.36447 1.63225e-19)
(0.0489451 3.37424 2.91792e-20)
(-0.113262 3.50104 -2.9587e-19)
(0.020634 3.48684 1.65669e-19)
(1.31219 3.08236 -3.93509e-18)
(1.28415 3.08448 4.15553e-18)
(1.14481 3.415 -2.48308e-18)
(1.20611 3.22316 1.8622e-19)
(1.64643 3.41594 0)
(1.39358 3.59141 -2.30226e-18)
(1.47657 3.57726 2.23065e-18)
(1.29469 3.45811 2.42408e-18)
(1.46352 3.35327 0)
(1.62545 3.26289 0)
(0.928635 2.94874 3.32963e-18)
(0.706416 2.90835 4.29463e-18)
(0.784446 2.87872 -2.94216e-18)
(0.601528 2.95699 -4.91539e-19)
(0.719142 3.05577 1.03323e-18)
(0.598406 2.96002 -2.46819e-18)
(1.18529 2.3993 -2.61327e-18)
(1.24877 2.27786 0)
(1.11717 2.12504 -2.90066e-18)
(1.42054 2.57447 0)
(1.35315 2.66917 0)
(1.52981 2.42995 -2.32781e-18)
(1.47449 2.64949 -2.22217e-18)
(1.36817 2.6133 2.34674e-18)
(1.46261 1.88545 0)
(1.67882 1.95626 -1.23212e-18)
(1.67266 2.18479 -1.78753e-18)
(1.56473 2.26235 0)
(1.32642 2.24365 1.52025e-18)
(1.26397 2.07493 0)
(2.23973 1.96632 -4.11039e-18)
(2.44356 2.0254 5.94778e-18)
(2.49521 1.84212 -5.90646e-18)
(2.1775 1.78359 -5.00341e-19)
(2.31638 1.70345 -2.12327e-18)
(1.56795 2.60288 1.71825e-18)
(1.63012 2.59873 -2.95881e-18)
(1.56679 2.49358 3.85643e-18)
(1.67991 2.49201 -2.51047e-18)
(1.67563 2.66598 -3.48667e-18)
(1.66382 2.59897 -2.72251e-19)
(1.662 2.6112 3.00905e-18)
(1.68614 2.58782 2.10883e-19)
(1.71507 2.61209 1.44122e-18)
)
;

boundaryField
{
    wall-4
    {
        type            noSlip;
    }
    velocity-inlet-5
    {
        type            fixedValue;
        value           uniform (3 0 0);
    }
    velocity-inlet-6
    {
        type            fixedValue;
        value           uniform (0 1 0);
    }
    pressure-outlet-7
    {
        type            zeroGradient;
    }
    wall-8
    {
        type            noSlip;
    }
    frontAndBackPlanes
    {
        type            empty;
    }
}


// ************************************************************************* //
