/*--------------------------------*- C++ -*----------------------------------*\
  =========                 |
  \\      /  F ield         | OpenFOAM: The Open Source CFD Toolbox
   \\    /   O peration     | Website:  https://openfoam.org
    \\  /    A nd           | Version:  9
     \\/     M anipulation  |
\*---------------------------------------------------------------------------*/
FoamFile
{
    format      ascii;
    class       surfaceScalarField;
    location    "1.8";
    object      phi;
}
// * * * * * * * * * * * * * * * * * * * * * * * * * * * * * * * * * * * * * //

dimensions      [0 3 -1 0 0 0 0];

internalField   nonuniform List<scalar> 
17280
(
6.32676e-10
-6.43044e-10
-3.61752e-12
9.75502e-10
-3.39865e-10
-2.96051e-12
4.34629e-10
5.38453e-10
2.41499e-12
-1.10223e-09
1.53033e-09
6.52598e-12
-3.56841e-09
2.45626e-09
9.91872e-12
-6.82248e-09
3.24121e-09
1.2862e-11
-1.06976e-08
3.85986e-09
1.52389e-11
-1.50249e-08
4.31029e-09
1.70009e-11
-1.96435e-08
4.60048e-09
1.81578e-11
-2.44045e-08
4.74221e-09
1.87413e-11
-2.91714e-08
4.74816e-09
1.87923e-11
-3.38204e-08
4.63064e-09
1.83549e-11
-3.82389e-08
4.40105e-09
1.74715e-11
-4.2325e-08
4.06982e-09
1.61815e-11
-4.59861e-08
3.64662e-09
1.45226e-11
-4.91394e-08
3.14079e-09
1.25319e-11
-5.17114e-08
2.56175e-09
1.02482e-11
-5.36386e-08
1.91951e-09
7.71269e-12
-5.48688e-08
1.22519e-09
4.97007e-12
-5.53622e-08
4.91338e-10
2.07035e-12
-5.50936e-08
-2.67727e-10
-9.29544e-13
-5.40538e-08
-1.03578e-09
-3.96478e-12
-5.22522e-08
-1.79468e-09
-6.96273e-12
-4.97178e-08
-2.52457e-09
-9.8442e-12
-4.6501e-08
-3.2042e-09
-1.25251e-11
-4.26746e-08
-3.81152e-09
-1.49183e-11
-3.83333e-08
-4.32434e-09
-1.69368e-11
-3.35936e-08
-4.72119e-09
-1.84964e-11
-2.85919e-08
-4.98224e-09
-1.95204e-11
-2.34817e-08
-5.09025e-09
-1.99423e-11
-1.84304e-08
-5.03157e-09
-1.97103e-11
-1.36145e-08
-4.79711e-09
-1.87918e-11
-9.21402e-09
-4.38329e-09
-1.71807e-11
-5.40571e-09
-3.79344e-09
-1.49028e-11
-2.35368e-09
-3.04003e-09
-1.20219e-11
-1.95376e-10
-2.14961e-09
-8.68578e-12
9.83839e-10
-1.174e-09
-5.16635e-12
1.19673e-09
-2.11823e-10
-1.0501e-12
6.52356e-10
5.40735e-10
3.60545e-12
6.52258e-10
3.81431e-14
3.51722e-10
-9.959e-10
1.13051e-12
-4.94078e-10
5.06462e-10
-5.28241e-13
-3.32579e-09
3.37248e-09
-2.30906e-12
-8.36499e-09
6.57482e-09
-5.30271e-12
-1.55229e-08
9.62285e-09
-8.673e-12
-2.45352e-08
1.22653e-08
-1.17649e-11
-3.50506e-08
1.43895e-08
-1.4297e-11
-4.66846e-08
1.59605e-08
-1.61953e-11
-5.90499e-08
1.69833e-08
-1.74604e-11
-7.17726e-08
1.7483e-08
-1.81231e-11
-8.45002e-08
1.7494e-08
-1.8229e-11
-9.69053e-08
1.70536e-08
-1.78279e-11
-1.08687e-07
1.61995e-08
-1.69684e-11
-1.1957e-07
1.49683e-08
-1.56961e-11
-1.29305e-07
1.33956e-08
-1.40534e-11
-1.37669e-07
1.15171e-08
-1.20803e-11
-1.44467e-07
9.36945e-09
-9.81695e-12
-1.49532e-07
6.99193e-09
-7.30573e-12
-1.5273e-07
4.42763e-09
-4.59331e-12
-1.53961e-07
1.72472e-09
-1.73158e-12
-1.53167e-07
-1.06277e-09
1.22147e-12
-1.50333e-07
-3.87457e-09
4.20125e-12
-1.4549e-07
-6.64426e-09
7.13574e-12
-1.38725e-07
-9.30005e-09
9.94655e-12
-1.30176e-07
-1.1766e-08
1.25507e-11
-1.20038e-07
-1.39643e-08
1.48626e-11
-1.08562e-07
-1.58171e-08
1.67968e-11
-9.60511e-08
-1.72501e-08
1.827e-11
-8.28568e-08
-1.81957e-08
1.92054e-11
-6.93704e-08
-1.85962e-08
1.95374e-11
-5.60134e-08
-1.84079e-08
1.9215e-11
-4.3224e-08
-1.76046e-08
1.82056e-11
-3.14414e-08
-1.61824e-08
1.65002e-11
-2.1084e-08
-1.41649e-08
1.41253e-11
-1.25238e-08
-1.16114e-08
1.11596e-11
-6.0487e-09
-8.63251e-09
7.74054e-12
-1.80937e-09
-5.41752e-09
4.151e-12
2.60403e-10
-2.28291e-09
1.34298e-12
5.53766e-10
2.47104e-10
3.50283e-13
1.20947e-09
-3.39592e-12
-5.07679e-10
-4.85314e-10
-2.91247e-12
-3.34924e-09
3.34617e-09
1.84394e-12
-9.13421e-09
9.15754e-09
-8.92105e-14
-1.8019e-08
1.54598e-08
-2.10246e-13
-2.98486e-08
2.14525e-08
-5.10363e-14
-4.42642e-08
2.6681e-08
-2.12707e-13
-6.07892e-08
3.0915e-08
-4.05104e-13
-7.88904e-08
3.40623e-08
-5.65221e-13
-9.80171e-08
3.61107e-08
-6.94845e-13
-1.17626e-07
3.70931e-08
-7.85802e-13
-1.37198e-07
3.70664e-08
-8.34658e-13
-1.56242e-07
3.60986e-08
-8.4322e-13
-1.74304e-07
3.42621e-08
-8.1523e-13
-1.90966e-07
3.16308e-08
-7.5517e-13
-2.05849e-07
2.82791e-08
-6.67679e-13
-2.18614e-07
2.42828e-08
-5.57252e-13
-2.28965e-07
1.97215e-08
-4.28277e-13
-2.36653e-07
1.46802e-08
-2.85225e-13
-2.41478e-07
9.25243e-09
-1.32687e-13
-2.43295e-07
3.54167e-09
2.47884e-14
-2.42021e-07
-2.33691e-09
1.82793e-13
-2.3764e-07
-8.25602e-09
3.36836e-13
-2.30208e-07
-1.40766e-08
4.82117e-13
-2.19859e-07
-1.96497e-08
6.13595e-13
-2.06807e-07
-2.48188e-08
7.2658e-13
-1.91348e-07
-2.94241e-08
8.17204e-13
-1.73858e-07
-3.33077e-08
8.82154e-13
-1.5479e-07
-3.63195e-08
9.18023e-13
-1.34663e-07
-3.83237e-08
9.21321e-13
-1.14053e-07
-3.92068e-08
8.89537e-13
-9.35768e-08
-3.88849e-08
8.22163e-13
-7.38703e-08
-3.73119e-08
7.20902e-13
-5.5564e-08
-3.44893e-08
5.90744e-13
-3.92522e-08
-3.04771e-08
4.40478e-13
-2.54546e-08
-2.54093e-08
2.74261e-13
-1.45686e-08
-1.95187e-08
1.24861e-13
-6.80824e-09
-1.31781e-08
1.57974e-13
-2.12907e-09
-6.9623e-09
1.67885e-13
-1.43249e-10
-1.73808e-09
-6.23183e-13
1.06526e-09
1.00789e-12
-1.51715e-09
1.03873e-09
-6.89552e-12
-6.67866e-09
8.5024e-09
5.26173e-12
-1.57387e-08
1.82173e-08
2.3172e-13
-2.86659e-08
2.8387e-08
5.25234e-14
-4.51756e-08
3.79613e-08
9.554e-13
-6.47979e-08
4.63021e-08
1.21553e-12
-8.69455e-08
5.30612e-08
1.35392e-12
-1.10967e-07
5.80818e-08
1.46466e-12
-1.36185e-07
6.13273e-08
1.51992e-12
-1.61927e-07
6.28338e-08
1.52976e-12
-1.87541e-07
6.26795e-08
1.50565e-12
-2.1241e-07
6.09658e-08
1.45333e-12
-2.35955e-07
5.78055e-08
1.37641e-12
-2.57643e-07
5.33174e-08
1.27718e-12
-2.76989e-07
4.7624e-08
1.15687e-12
-2.9356e-07
4.0853e-08
1.01615e-12
-3.06979e-07
3.31392e-08
8.55675e-13
-3.16927e-07
2.46277e-08
6.76335e-13
-3.23152e-07
1.54774e-08
4.79452e-13
-3.25474e-07
5.86362e-09
2.66946e-13
-3.23792e-07
-4.01969e-09
4.16943e-14
-3.18088e-07
-1.39596e-08
-1.9248e-13
-3.08439e-07
-2.37249e-08
-4.30743e-13
-2.95019e-07
-3.3069e-08
-6.67622e-13
-2.78103e-07
-4.17346e-08
-8.96883e-13
-2.58066e-07
-4.94601e-08
-1.11108e-12
-2.35384e-07
-5.59877e-08
-1.30157e-12
-2.10629e-07
-6.10736e-08
-1.45944e-12
-1.84452e-07
-6.4499e-08
-1.57667e-12
-1.57575e-07
-6.60821e-08
-1.64636e-12
-1.30767e-07
-6.56913e-08
-1.66198e-12
-1.04819e-07
-6.32586e-08
-1.61681e-12
-8.0512e-08
-5.87945e-08
-1.50264e-12
-5.8582e-08
-5.24057e-08
-1.31624e-12
-3.96734e-08
-4.43168e-08
-1.08616e-12
-2.429e-08
-3.49013e-08
-7.63616e-13
-1.27388e-08
-2.47293e-08
2.28404e-15
-5.06936e-09
-1.46318e-08
4.67663e-14
-1.02154e-09
-5.78265e-09
-3.27496e-12
3.89255e-11
4.81288e-12
-2.52692e-09
3.57619e-09
-1.05368e-11
-1.00917e-08
1.60579e-08
9.18933e-12
-2.25362e-08
3.06616e-08
2.20905e-13
-3.95732e-08
4.54248e-08
-7.92612e-13
-6.07386e-08
5.91266e-08
1.22439e-13
-8.54263e-08
7.09896e-08
1.33923e-13
-1.12933e-07
8.05679e-08
6.02944e-14
-1.42499e-07
8.7648e-08
4.14948e-14
-1.73343e-07
9.21706e-08
1.85255e-14
-2.04684e-07
9.41751e-08
-5.71055e-15
-2.35767e-07
9.37625e-08
-2.27487e-14
-2.6587e-07
9.10694e-08
-3.07617e-14
-2.94318e-07
8.62532e-08
-2.94829e-14
-3.20484e-07
7.94834e-08
-1.94547e-14
-3.43798e-07
7.09383e-08
-2.16988e-15
-3.63751e-07
6.0806e-08
2.02178e-14
-3.79898e-07
4.92864e-08
4.53564e-14
-3.91867e-07
3.65959e-08
7.10092e-14
-3.9936e-07
2.29708e-08
9.50407e-14
-4.02168e-07
8.67145e-09
1.15304e-13
-4.00172e-07
-6.01553e-09
1.29819e-13
-3.93355e-07
-2.07768e-08
1.37169e-13
-3.81807e-07
-3.52735e-08
1.36736e-13
-3.6573e-07
-4.91458e-08
1.28334e-13
-3.45446e-07
-6.2019e-08
1.11861e-13
-3.21393e-07
-7.35133e-08
8.76282e-14
-2.94125e-07
-8.32556e-08
5.71551e-14
-2.64305e-07
-9.08935e-08
2.33084e-14
-2.32692e-07
-9.61119e-08
-1.06714e-14
-2.00125e-07
-9.86498e-08
-4.21478e-14
-1.67496e-07
-9.83199e-08
-6.89417e-14
-1.35727e-07
-9.50277e-08
-8.77455e-14
-1.05729e-07
-8.87924e-08
-9.04229e-14
-7.83642e-08
-7.97702e-08
-7.51258e-14
-5.44005e-08
-6.82804e-08
-9.11116e-14
-3.44616e-08
-5.48402e-08
-3.94435e-14
-1.89802e-08
-4.02114e-08
7.06697e-13
-8.1538e-09
-2.54582e-08
2.84126e-14
-1.91931e-09
-1.20105e-08
-6.71574e-12
-1.88842e-09
8.0135e-12
-3.48405e-09
7.07437e-09
-1.4132e-11
-1.3412e-08
2.59728e-08
1.31002e-11
-2.92216e-08
4.64708e-08
5.04512e-13
-5.0342e-08
6.65461e-08
-1.05881e-12
-7.60994e-08
8.48839e-08
1.32835e-13
-1.05729e-07
1.00619e-07
1.30749e-13
-1.384e-07
1.13239e-07
3.61094e-14
-1.73247e-07
1.22494e-07
2.96763e-14
-2.09387e-07
1.28311e-07
2.15015e-14
-2.45952e-07
1.3074e-07
9.72362e-15
-2.82097e-07
1.29907e-07
2.92097e-15
-3.17018e-07
1.2599e-07
2.24652e-15
-3.49958e-07
1.19194e-07
7.71923e-15
-3.80218e-07
1.09743e-07
1.90323e-14
-4.07159e-07
9.7879e-08
3.5168e-14
-4.30208e-07
8.38556e-08
5.44463e-14
-4.48868e-07
6.79462e-08
7.48423e-14
-4.62719e-07
5.04462e-08
9.43837e-14
-4.71427e-07
3.16788e-08
1.11299e-13
-4.74755e-07
1.19989e-08
1.2385e-13
-4.72567e-07
-8.20361e-09
1.30246e-13
-4.6484e-07
-2.85038e-08
1.29046e-13
-4.5167e-07
-4.84433e-08
1.19733e-13
-4.3328e-07
-6.75362e-08
1.02761e-13
-4.10021e-07
-8.52774e-08
7.89554e-14
-3.82379e-07
-1.01155e-07
4.90982e-14
-3.50967e-07
-1.14668e-07
1.44684e-14
-3.16521e-07
-1.2534e-07
-2.22581e-14
-2.79886e-07
-1.32747e-07
-5.71076e-14
-2.41998e-07
-1.36538e-07
-8.61365e-14
-2.03859e-07
-1.36458e-07
-1.06731e-13
-1.66507e-07
-1.3238e-07
-1.16553e-13
-1.30975e-07
-1.24324e-07
-1.07804e-13
-9.82541e-08
-1.12491e-07
-8.25178e-14
-6.92434e-08
-9.7291e-08
-1.16703e-13
-4.47071e-08
-7.93765e-08
-7.28108e-14
-2.52334e-08
-5.96859e-08
9.33873e-13
-1.12028e-08
-3.94885e-08
-2.07554e-13
-2.77965e-09
-2.04235e-08
-1.01575e-11
-4.67942e-09
1.1328e-11
-4.37686e-09
1.14688e-08
-1.75887e-11
-1.65761e-08
3.81553e-08
1.67965e-11
-3.56641e-08
6.55579e-08
8.11744e-13
-6.0784e-08
9.16672e-08
-1.2494e-12
-9.10384e-08
1.15138e-07
2.19294e-13
-1.25488e-07
1.35068e-07
2.12264e-13
-1.63166e-07
1.50918e-07
1.02748e-13
-2.03094e-07
1.62421e-07
1.11366e-13
-2.44295e-07
1.69512e-07
1.18876e-13
-2.85816e-07
1.72261e-07
1.1901e-13
-3.26737e-07
1.70828e-07
1.2054e-13
-3.66183e-07
1.65436e-07
1.24009e-13
-4.03334e-07
1.56344e-07
1.29134e-13
-4.37429e-07
1.43838e-07
1.3572e-13
-4.67773e-07
1.28223e-07
1.43191e-13
-4.93745e-07
1.09827e-07
1.50468e-13
-5.148e-07
8.90007e-08
1.56017e-13
-5.30478e-07
6.61245e-08
1.58191e-13
-5.40414e-07
4.16146e-08
1.55616e-13
-5.44342e-07
1.59272e-08
1.47228e-13
-5.42109e-07
-1.04374e-08
1.31994e-13
-5.33678e-07
-3.69344e-08
1.08886e-13
-5.19145e-07
-6.29771e-08
7.74576e-14
-4.98737e-07
-8.79434e-08
3.84992e-14
-4.72828e-07
-1.11187e-07
-6.07676e-15
-4.4193e-07
-1.32053e-07
-5.40572e-14
-4.06703e-07
-1.49895e-07
-1.03333e-13
-3.67938e-07
-1.64105e-07
-1.51225e-13
-3.26552e-07
-1.74132e-07
-1.93662e-13
-2.83569e-07
-1.79521e-07
-2.2573e-13
-2.40088e-07
-1.79938e-07
-2.43743e-13
-1.97261e-07
-1.75207e-07
-2.45466e-13
-1.56246e-07
-1.65338e-07
-2.23327e-13
-1.1817e-07
-1.50567e-07
-1.83422e-13
-8.40788e-08
-1.31382e-07
-2.27657e-13
-5.48992e-08
-1.08556e-07
-1.80166e-13
-3.13995e-08
-8.31868e-08
1.09538e-12
-1.4164e-08
-5.67236e-08
-4.69987e-13
-3.5912e-09
-3.09827e-08
-1.34703e-11
-8.28516e-09
1.45315e-11
-5.21004e-09
1.66997e-08
-2.08665e-11
-1.95752e-08
5.25002e-08
2.02547e-11
-4.18271e-08
8.78087e-08
1.09382e-12
-7.08334e-08
1.20675e-07
-1.45166e-12
-1.0547e-07
1.49775e-07
2.53235e-13
-1.44617e-07
1.74214e-07
2.15932e-13
-1.87161e-07
1.93462e-07
6.98467e-14
-2.3201e-07
2.07269e-07
7.48934e-14
-2.78091e-07
2.15594e-07
8.46945e-14
-3.24372e-07
2.18542e-07
8.86987e-14
-3.69865e-07
2.16321e-07
9.55261e-14
-4.13635e-07
2.09206e-07
1.04809e-13
-4.54806e-07
1.97515e-07
1.15593e-13
-4.92569e-07
1.816e-07
1.27271e-13
-5.26183e-07
1.61838e-07
1.39137e-13
-5.54986e-07
1.38629e-07
1.5028e-13
-5.78394e-07
1.12408e-07
1.5939e-13
-5.95912e-07
8.36431e-08
1.64803e-13
-6.07144e-07
5.28461e-08
1.64943e-13
-6.11796e-07
2.05789e-08
1.58724e-13
-6.0969e-07
-1.25436e-08
1.45438e-13
-6.00773e-07
-4.58516e-08
1.24353e-13
-5.85126e-07
-7.86237e-08
9.47439e-14
-5.62975e-07
-1.10094e-07
5.66683e-14
-5.34696e-07
-1.39466e-07
1.16579e-14
-5.0082e-07
-1.65929e-07
-3.75782e-14
-4.62033e-07
-1.88682e-07
-8.81361e-14
-4.19172e-07
-2.06965e-07
-1.37265e-13
-3.73215e-07
-2.20089e-07
-1.81594e-13
-3.25262e-07
-2.27474e-07
-2.16636e-13
-2.76512e-07
-2.28689e-07
-2.3838e-13
-2.28227e-07
-2.23491e-07
-2.44299e-13
-1.817e-07
-2.11865e-07
-2.26398e-13
-1.38206e-07
-1.94061e-07
-1.94376e-13
-9.8958e-08
-1.70629e-07
-2.74318e-13
-6.50653e-08
-1.42448e-07
-2.50406e-13
-3.74966e-08
-1.10757e-07
1.26166e-12
-1.70531e-08
-7.71663e-08
-7.26452e-13
-4.36476e-09
-4.36544e-08
-1.66587e-11
-1.26675e-08
1.76257e-11
-5.99297e-09
2.27167e-08
-2.39761e-11
-2.24228e-08
6.89065e-08
2.34969e-11
-4.77183e-08
1.13103e-07
1.36156e-12
-8.0487e-08
1.53445e-07
-1.63422e-12
-1.19382e-07
1.8867e-07
2.93192e-13
-1.631e-07
2.17931e-07
2.24655e-13
-2.1038e-07
2.40742e-07
4.04229e-14
-2.60009e-07
2.56899e-07
3.8451e-14
-3.10824e-07
2.66408e-07
4.73471e-14
-3.61713e-07
2.69431e-07
5.26329e-14
-4.11626e-07
2.66234e-07
6.27153e-14
-4.59574e-07
2.57154e-07
7.63961e-14
-5.04637e-07
2.42578e-07
9.21855e-14
-5.45964e-07
2.22927e-07
1.09054e-13
-5.82778e-07
1.98652e-07
1.25946e-13
-6.14381e-07
1.70232e-07
1.41893e-13
-6.40157e-07
1.38184e-07
1.55815e-13
-6.59579e-07
1.03065e-07
1.66212e-13
-6.72219e-07
6.5486e-08
1.71301e-13
-6.77754e-07
2.61133e-08
1.69581e-13
-6.75976e-07
-1.43212e-08
1.60224e-13
-6.66807e-07
-5.50207e-08
1.42819e-13
-6.50306e-07
-9.51251e-08
1.16856e-13
-6.26681e-07
-1.3372e-07
8.19099e-14
-5.96299e-07
-1.69848e-07
3.855e-14
-5.59694e-07
-2.02535e-07
-1.10014e-14
-5.17566e-07
-2.3081e-07
-6.33748e-14
-4.70786e-07
-2.53745e-07
-1.15129e-13
-4.20381e-07
-2.70493e-07
-1.62961e-13
-3.67525e-07
-2.8033e-07
-2.03059e-13
-3.13511e-07
-2.82703e-07
-2.31743e-13
-2.59723e-07
-2.77279e-07
-2.46105e-13
-2.07594e-07
-2.63994e-07
-2.36848e-13
-1.58566e-07
-2.4309e-07
-2.16651e-13
-1.14037e-07
-2.15157e-07
-3.35324e-13
-7.53212e-08
-1.81164e-07
-3.36733e-13
-4.36055e-08
-1.42474e-07
1.4098e-12
-1.99191e-08
-1.00852e-07
-9.8255e-13
-5.11962e-09
-5.84342e-08
-1.97671e-11
-1.78078e-08
2.06829e-11
-6.73529e-09
2.94789e-08
-2.69398e-11
-2.51392e-08
8.72838e-08
2.65553e-11
-5.33636e-08
1.41326e-07
1.6123e-12
-8.97704e-08
1.89854e-07
-1.80297e-12
-1.32797e-07
2.31696e-07
3.38579e-13
-1.80958e-07
2.66091e-07
2.41389e-13
-2.32844e-07
2.92629e-07
2.04862e-14
-2.87124e-07
3.11179e-07
1.05471e-14
-3.4254e-07
3.21824e-07
1.71275e-14
-3.97907e-07
3.24798e-07
2.22902e-14
-4.52116e-07
3.20443e-07
3.4175e-14
-5.04132e-07
3.0917e-07
5.07559e-14
-5.52995e-07
2.91441e-07
7.01912e-14
-5.97821e-07
2.67753e-07
9.12472e-14
-6.37803e-07
2.38634e-07
1.12515e-13
-6.72215e-07
2.04644e-07
1.32731e-13
-7.00412e-07
1.66381e-07
1.50872e-13
-7.21839e-07
1.24491e-07
1.65768e-13
-7.36034e-07
7.96808e-08
1.75763e-13
-7.42641e-07
3.27209e-08
1.7897e-13
-7.41421e-07
-1.55419e-08
1.7396e-13
-7.32258e-07
-6.41838e-08
1.60132e-13
-7.15178e-07
-1.12205e-07
1.37288e-13
-6.90361e-07
-1.58537e-07
1.05153e-13
-6.58149e-07
-2.0206e-07
6.36629e-14
-6.19064e-07
-2.4162e-07
1.3974e-14
-5.73808e-07
-2.76066e-07
-4.10168e-14
-5.23269e-07
-3.04284e-07
-9.73797e-14
-4.68518e-07
-3.25244e-07
-1.51189e-13
-4.10794e-07
-3.38053e-07
-1.98725e-13
-3.51488e-07
-3.42009e-07
-2.36823e-13
-2.92108e-07
-3.36659e-07
-2.62424e-13
-2.34242e-07
-3.21859e-07
-2.64251e-13
-1.79515e-07
-2.97817e-07
-2.56933e-13
-1.29532e-07
-2.6514e-07
-4.13951e-13
-8.5831e-08
-2.24864e-07
-4.38707e-13
-4.98393e-08
-1.78467e-07
1.54888e-12
-2.28259e-08
-1.27864e-07
-1.23812e-12
-5.87787e-09
-7.53593e-08
-2.28713e-11
-2.37095e-08
2.37831e-11
-7.44521e-09
3.69539e-08
-2.9781e-11
-2.7745e-08
1.07554e-07
2.94646e-11
-5.87927e-08
1.72372e-07
1.84549e-12
-9.87175e-08
2.29781e-07
-1.96579e-12
-1.45749e-07
2.78728e-07
3.82338e-13
-1.98223e-07
3.18565e-07
2.58504e-13
-2.54584e-07
3.4899e-07
2.1796e-15
-3.13383e-07
3.69979e-07
-1.66066e-14
-3.7327e-07
3.81711e-07
-1.37027e-14
-4.3299e-07
3.84518e-07
-9.91381e-15
-4.91379e-07
3.78832e-07
2.67307e-15
-5.47361e-07
3.65152e-07
2.10637e-14
-5.99945e-07
3.44025e-07
4.30582e-14
-6.48221e-07
3.16029e-07
6.74656e-14
-6.91359e-07
2.81772e-07
9.27724e-14
-7.28609e-07
2.41893e-07
1.17354e-13
-7.59302e-07
1.97073e-07
1.39915e-13
-7.82854e-07
1.48044e-07
1.59426e-13
-7.98774e-07
9.56009e-08
1.74619e-13
-8.06671e-07
4.06169e-08
1.83654e-13
-8.06261e-07
-1.59513e-08
1.84509e-13
-7.97389e-07
-7.3056e-08
1.75791e-13
-7.80035e-07
-1.29559e-07
1.56986e-13
-7.54334e-07
-1.84238e-07
1.28046e-13
-7.20592e-07
-2.35802e-07
8.89111e-14
-6.79299e-07
-2.82913e-07
3.99444e-14
-6.31145e-07
-3.24221e-07
-1.70517e-14
-5.77022e-07
-3.58407e-07
-7.85237e-14
-5.18032e-07
-3.84234e-07
-1.40009e-13
-4.55475e-07
-4.00609e-07
-1.97215e-13
-3.90836e-07
-4.06648e-07
-2.47089e-13
-3.25754e-07
-4.01742e-07
-2.86576e-13
-2.61983e-07
-3.85629e-07
-3.0217e-13
-2.01349e-07
-3.58451e-07
-3.09372e-13
-1.45686e-07
-3.20803e-07
-5.05104e-13
-9.67822e-08
-2.73767e-07
-5.51067e-13
-5.63253e-08
-2.18926e-07
1.69037e-12
-2.58431e-08
-1.58345e-07
-1.49625e-12
-6.66206e-09
-9.45143e-08
-2.60614e-11
-3.03986e-08
2.7007e-11
-8.12918e-09
4.51156e-08
-3.25207e-11
-3.02575e-08
1.2965e-07
3.22545e-11
-6.40326e-08
2.06145e-07
2.06392e-12
-1.07361e-07
2.73111e-07
-2.12526e-12
-1.58271e-07
3.29637e-07
4.23148e-13
-2.14923e-07
3.75217e-07
2.74515e-13
-2.7562e-07
4.09687e-07
-1.578e-14
-3.38797e-07
4.33155e-07
-4.38016e-14
-4.03014e-07
4.45928e-07
-4.56655e-14
-4.66951e-07
4.48454e-07
-4.44356e-14
-5.29394e-07
4.41275e-07
-3.21406e-14
-5.89234e-07
4.24992e-07
-1.28227e-14
-6.45454e-07
4.00245e-07
1.07325e-14
-6.97126e-07
3.67701e-07
3.74059e-14
-7.43403e-07
3.28049e-07
6.59243e-14
-7.83519e-07
2.82009e-07
9.45904e-14
-8.16785e-07
2.30339e-07
1.21709e-13
-8.42594e-07
1.73852e-07
1.45979e-13
-8.60422e-07
1.13429e-07
1.66331e-13
-8.69839e-07
5.00338e-08
1.81324e-13
-8.70518e-07
-1.52723e-08
1.88874e-13
-8.62249e-07
-8.13245e-08
1.868e-13
-8.44958e-07
-1.46851e-07
1.73598e-13
-8.18721e-07
-2.10475e-07
1.48766e-13
-7.83789e-07
-2.70734e-07
1.12311e-13
-7.40605e-07
-3.26096e-07
6.44021e-14
-6.89826e-07
-3.75e-07
5.94391e-15
-6.32333e-07
-4.15899e-07
-6.04966e-14
-5.69245e-07
-4.47323e-07
-1.30591e-13
-5.01912e-07
-4.67942e-07
-1.99355e-13
-4.3191e-07
-4.76649e-07
-2.63202e-13
-3.61012e-07
-4.72639e-07
-3.1884e-13
-2.91151e-07
-4.55489e-07
-3.50546e-13
-2.24369e-07
-4.25233e-07
-3.74233e-13
-1.62753e-07
-3.82418e-07
-6.10255e-13
-1.0837e-07
-3.2815e-07
-6.75197e-13
-6.31958e-08
-2.64102e-07
1.84077e-12
-2.90416e-08
-1.92497e-07
-1.76313e-12
-7.49426e-09
-1.16032e-07
-2.943e-11
-3.79232e-08
3.04366e-11
-8.79193e-09
5.39427e-08
-3.51774e-11
-3.26906e-08
1.53514e-07
3.49485e-11
-6.91055e-08
2.42557e-07
2.27104e-12
-1.15727e-07
3.19735e-07
-2.28192e-12
-1.70387e-07
3.84297e-07
4.61131e-13
-2.31077e-07
4.35907e-07
2.88877e-13
-2.95958e-07
4.74568e-07
-3.42256e-14
-3.63353e-07
5.0055e-07
-7.16391e-14
-4.31738e-07
5.14313e-07
-7.91663e-14
-4.99729e-07
5.16446e-07
-8.17731e-14
-5.66074e-07
5.0762e-07
-7.09673e-14
-6.29635e-07
4.88553e-07
-5.16247e-14
-6.89379e-07
4.59989e-07
-2.73389e-14
-7.44367e-07
4.22689e-07
5.54178e-16
-7.93744e-07
3.77427e-07
3.11054e-14
-8.36735e-07
3.25e-07
6.29813e-14
-8.72637e-07
2.66242e-07
9.44077e-14
-9.00823e-07
2.02038e-07
1.23633e-13
-9.2074e-07
1.33345e-07
1.49297e-13
-9.31917e-07
6.1211e-08
1.70168e-13
-9.33978e-07
-1.32113e-08
1.84514e-13
-9.26654e-07
-8.86492e-08
1.89964e-13
-9.098e-07
-1.63705e-07
1.84001e-13
-8.83421e-07
-2.36854e-07
1.64968e-13
-8.47696e-07
-3.0646e-07
1.32243e-13
-8.02999e-07
-3.70793e-07
8.58322e-14
-7.49934e-07
-4.28065e-07
2.62223e-14
-6.8935e-07
-4.76483e-07
-4.49434e-14
-6.22363e-07
-5.1431e-07
-1.24043e-13
-5.50362e-07
-5.39943e-07
-2.05814e-13
-4.75004e-07
-5.52007e-07
-2.85774e-13
-3.98196e-07
-5.49447e-07
-3.59753e-13
-3.22057e-07
-5.31628e-07
-4.09572e-13
-2.48864e-07
-4.98425e-07
-4.51785e-13
-1.80983e-07
-4.50298e-07
-7.31364e-13
-1.20789e-07
-3.88343e-07
-8.14455e-13
-7.0582e-08
-3.14311e-07
2.00342e-12
-3.24913e-08
-2.30586e-07
-2.04709e-12
-8.39581e-09
-1.40095e-07
-3.30674e-11
-4.63532e-08
3.41555e-11
-9.43688e-09
6.34173e-08
-3.77661e-11
-3.50545e-08
1.79094e-07
3.75649e-11
-7.40281e-08
2.81528e-07
2.4704e-12
-1.23835e-07
3.69544e-07
-2.43532e-12
-1.82114e-07
4.42576e-07
4.97175e-13
-2.46689e-07
5.00481e-07
3.01534e-13
-3.15582e-07
5.43461e-07
-5.40395e-14
-3.87009e-07
5.71977e-07
-1.01217e-13
-4.59365e-07
5.8667e-07
-1.15205e-13
-5.31213e-07
5.88294e-07
-1.22957e-13
-6.01265e-07
5.77671e-07
-1.15152e-13
-6.68364e-07
5.55652e-07
-9.70084e-14
-7.31472e-07
5.23097e-07
-7.2821e-14
-7.89649e-07
4.80866e-07
-4.44915e-14
-8.42042e-07
4.2982e-07
-1.29738e-14
-8.87876e-07
3.70834e-07
2.08995e-14
-9.26444e-07
3.04809e-07
5.57902e-14
-9.57101e-07
2.32695e-07
8.98423e-14
-9.7927e-07
1.55514e-07
1.21191e-13
-9.92442e-07
7.43829e-08
1.48275e-13
-9.96187e-07
-9.46639e-09
1.69514e-13
-9.90169e-07
-9.46676e-08
1.82835e-13
-9.74165e-07
-1.79709e-07
1.85252e-13
-9.48092e-07
-2.62927e-07
1.73922e-13
-9.12036e-07
-3.42517e-07
1.46889e-13
-8.66283e-07
-4.16546e-07
1.03319e-13
-8.11357e-07
-4.82991e-07
4.32537e-14
-7.4805e-07
-5.3979e-07
-3.22934e-14
-6.77452e-07
-5.84908e-07
-1.20521e-13
-6.00967e-07
-6.16427e-07
-2.164e-13
-5.20322e-07
-6.32651e-07
-3.14678e-13
-4.37553e-07
-6.32216e-07
-4.09661e-13
-3.54967e-07
-6.14213e-07
-4.79872e-13
-2.75096e-07
-5.78296e-07
-5.42708e-13
-2.00609e-07
-5.24784e-07
-8.70382e-13
-1.34226e-07
-4.54725e-07
-9.72564e-13
-7.86117e-08
-3.69927e-07
2.17987e-12
-3.62604e-08
-2.72934e-07
-2.35855e-12
-9.38741e-09
-1.66931e-07
-3.70616e-11
-5.57788e-08
3.82492e-11
-1.00666e-08
7.35243e-08
-4.03195e-11
-3.73575e-08
2.06345e-07
4.01161e-11
-7.88138e-08
3.22982e-07
2.66581e-12
-1.317e-07
4.22433e-07
-2.58417e-12
-1.93461e-07
5.04336e-07
5.32966e-13
-2.61752e-07
5.68772e-07
3.13322e-13
-3.34461e-07
6.1617e-07
-7.54874e-14
-4.09699e-07
6.47215e-07
-1.33513e-13
-4.85786e-07
6.62757e-07
-1.54916e-13
-5.61237e-07
6.63746e-07
-1.69013e-13
-6.3474e-07
6.51174e-07
-1.65817e-13
-7.05131e-07
6.26043e-07
-1.50493e-13
-7.71376e-07
5.89342e-07
-1.27569e-13
-8.32547e-07
5.42037e-07
-9.95108e-14
-8.87806e-07
4.85079e-07
-6.7722e-14
-9.36388e-07
4.19417e-07
-3.28869e-14
-9.77592e-07
3.46012e-07
4.27272e-15
-1.01077e-06
2.6587e-07
4.23701e-14
-1.03532e-06
1.80064e-07
7.94087e-14
-1.0507e-06
8.97625e-08
1.13277e-13
-1.05642e-06
-3.74037e-09
1.41982e-13
-1.05209e-06
-9.90028e-08
1.63643e-13
-1.03738e-06
-1.94416e-07
1.75149e-13
-1.01212e-06
-2.88192e-07
1.73025e-13
-9.76267e-07
-3.78366e-07
1.53902e-13
-9.30006e-07
-4.62807e-07
1.15408e-13
-8.7375e-07
-5.39248e-07
5.64924e-14
-8.08202e-07
-6.05338e-07
-2.25725e-14
-7.34395e-07
-6.58715e-07
-1.19739e-13
-6.53721e-07
-6.97101e-07
-2.30514e-13
-5.67955e-07
-7.18418e-07
-3.49317e-13
-4.79245e-07
-7.20926e-07
-4.687e-13
-3.90092e-07
-7.03365e-07
-5.62718e-13
-3.0329e-07
-6.65097e-07
-6.4913e-13
-2.21843e-07
-6.06231e-07
-1.03059e-12
-1.48854e-07
-5.27713e-07
-1.1539e-12
-8.74071e-08
-4.31377e-07
2.37095e-12
-4.0415e-08
-3.19924e-07
-2.7091e-12
-1.04893e-08
-1.96815e-07
-4.15003e-11
-6.63109e-08
4.28032e-11
-1.06837e-08
8.42505e-08
-4.2516e-11
-3.96078e-08
2.35226e-07
4.26095e-11
-8.3476e-08
3.66847e-07
2.86338e-12
-1.39335e-07
4.78295e-07
-2.72574e-12
-2.04432e-07
5.69432e-07
5.71067e-13
-2.76253e-07
6.40593e-07
3.25873e-13
-3.5255e-07
6.92467e-07
-9.8109e-14
-4.31332e-07
7.25997e-07
-1.69168e-13
-5.10853e-07
7.42278e-07
-1.99568e-13
-5.89587e-07
7.42481e-07
-2.21196e-13
-6.66208e-07
7.27796e-07
-2.23974e-13
-7.39559e-07
6.99395e-07
-2.13146e-13
-8.08625e-07
6.58407e-07
-1.93038e-13
-8.72503e-07
6.05916e-07
-1.66245e-13
-9.30387e-07
5.42963e-07
-1.34704e-13
-9.81537e-07
4.70566e-07
-9.94563e-14
-1.02527e-06
3.89744e-07
-6.09687e-14
-1.06094e-06
3.01541e-07
-1.99499e-14
-1.08794e-06
2.07066e-07
2.20838e-14
-1.1057e-06
1.07522e-07
6.2907e-14
-1.11368e-06
4.24337e-09
1.0004e-13
-1.11141e-06
-1.01276e-07
1.3077e-13
-1.09848e-06
-2.07352e-07
1.52214e-13
-1.07457e-06
-3.12094e-07
1.60527e-13
-1.03955e-06
-4.13392e-07
1.51298e-13
-9.93431e-07
-5.08924e-07
1.20444e-13
-9.36499e-07
-5.96179e-07
6.51294e-14
-8.69331e-07
-6.72506e-07
-1.57444e-14
-7.92862e-07
-7.35184e-07
-1.21111e-13
-7.08437e-07
-7.81525e-07
-2.47193e-13
-6.17843e-07
-8.09011e-07
-3.88553e-13
-5.23323e-07
-8.15445e-07
-5.36266e-13
-4.27559e-07
-7.99128e-07
-6.59034e-13
-3.33619e-07
-7.59037e-07
-7.73972e-13
-2.44865e-07
-6.94983e-07
-1.21706e-12
-1.64834e-07
-6.07742e-07
-1.36445e-12
-9.70842e-08
-4.99129e-07
2.57668e-12
-4.50194e-08
-3.71986e-07
-3.11092e-12
-1.17215e-08
-2.30066e-07
-4.64714e-11
-7.80803e-08
4.79013e-11
-1.12907e-08
9.55864e-08
-4.52458e-11
-4.18154e-08
2.65706e-07
4.51221e-11
-8.80318e-08
4.13061e-07
3.07499e-12
-1.46759e-07
5.37025e-07
-2.85465e-12
-2.15038e-07
6.37711e-07
6.15196e-13
-2.9018e-07
7.15735e-07
3.41266e-13
-3.69799e-07
7.72086e-07
-1.21004e-13
-4.51806e-07
8.08004e-07
-2.08419e-13
-5.34392e-07
8.24864e-07
-2.50416e-13
-6.16004e-07
8.24093e-07
-2.81148e-13
-6.95315e-07
8.07108e-07
-2.90949e-13
-7.71189e-07
7.75269e-07
-2.85809e-13
-8.42647e-07
7.29865e-07
-2.69974e-13
-9.08832e-07
6.72101e-07
-2.45731e-13
-9.68984e-07
6.03115e-07
-2.15151e-13
-1.02241e-06
5.2399e-07
-1.79765e-13
-1.06845e-06
4.3579e-07
-1.40306e-13
-1.1065e-06
3.39588e-07
-9.71562e-14
-1.13594e-06
2.3651e-07
-5.11283e-14
-1.15619e-06
1.27772e-07
-3.95454e-15
-1.16667e-06
1.47201e-08
4.17809e-14
-1.16682e-06
-1.01124e-07
8.26412e-14
-1.15614e-06
-2.18031e-07
1.15338e-13
-1.13421e-06
-3.34032e-07
1.35559e-13
-1.1007e-06
-4.46898e-07
1.38133e-13
-1.05549e-06
-5.54134e-07
1.17493e-13
-9.98675e-07
-6.52993e-07
6.86975e-14
-9.30669e-07
-7.40512e-07
-1.14673e-14
-8.52263e-07
-8.13589e-07
-1.23576e-13
-7.64704e-07
-8.69084e-07
-2.64942e-13
-6.69749e-07
-9.03966e-07
-4.30697e-13
-5.69699e-07
-9.15495e-07
-6.10951e-13
-4.67397e-07
-9.01429e-07
-7.68726e-13
-3.66188e-07
-8.60245e-07
-9.19717e-13
-2.69819e-07
-7.9135e-07
-1.4358e-12
-1.82305e-07
-6.95255e-07
-1.61225e-12
-1.07751e-07
-5.73686e-07
2.79528e-12
-5.01362e-08
-4.29597e-07
-3.5775e-12
-1.3104e-08
-2.67046e-07
-5.20648e-11
-9.12379e-08
5.36275e-11
-1.18925e-08
1.07527e-07
-4.76546e-11
-4.39958e-08
2.97761e-07
4.76236e-11
-9.25078e-08
4.61569e-07
3.30347e-12
-1.54003e-07
5.98523e-07
-2.96964e-12
-2.25303e-07
7.0901e-07
6.68065e-13
-3.03532e-07
7.93964e-07
3.61194e-13
-3.86163e-07
8.54717e-07
-1.43516e-13
-4.71009e-07
8.92851e-07
-2.51416e-13
-5.56208e-07
9.10063e-07
-3.08562e-13
-6.40192e-07
9.08077e-07
-3.50702e-13
-7.21648e-07
8.88564e-07
-3.68546e-13
-7.99481e-07
8.53102e-07
-3.69549e-13
-8.72767e-07
8.03151e-07
-3.58631e-13
-9.40717e-07
7.40052e-07
-3.37888e-13
-1.00264e-06
6.65036e-07
-3.09106e-13
-1.0579e-06
5.79253e-07
-2.73946e-13
-1.10591e-06
4.83802e-07
-2.33533e-13
-1.14609e-06
3.79769e-07
-1.8841e-13
-1.17786e-06
2.68277e-07
-1.39001e-13
-1.20062e-06
1.5053e-07
-8.63475e-14
-1.21376e-06
2.78591e-08
-3.25949e-14
-1.21666e-06
-9.82202e-08
1.89164e-14
-1.20873e-06
-2.25968e-07
6.41227e-14
-1.18939e-06
-3.53372e-07
9.80242e-14
-1.15817e-06
-4.78118e-07
1.14603e-13
-1.11474e-06
-5.97564e-07
1.06924e-13
-1.05899e-06
-7.08743e-07
6.7901e-14
-9.9111e-07
-8.08389e-07
-8.35532e-15
-9.117e-07
-8.92999e-07
-1.24955e-13
-8.21844e-07
-9.58939e-07
-2.81081e-13
-7.23211e-07
-1.0026e-06
-4.73003e-13
-6.18109e-07
-1.0206e-06
-6.9039e-13
-5.0951e-07
-1.01003e-06
-8.90588e-13
-4.01022e-07
-9.68732e-07
-1.08774e-12
-2.96799e-07
-8.95572e-07
-1.69269e-12
-2.01384e-07
-7.90668e-07
-1.9069e-12
-1.19509e-07
-6.55565e-07
3.02239e-12
-5.58265e-08
-4.93275e-07
-4.12529e-12
-1.46573e-08
-3.08157e-07
-5.8374e-11
-1.05955e-07
6.00691e-11
-1.24962e-08
1.20073e-07
-5.01089e-11
-4.61735e-08
3.31388e-07
5.01646e-11
-9.69471e-08
5.12339e-07
3.55942e-12
-1.61122e-07
6.62701e-07
-3.06638e-12
-2.35274e-07
7.83161e-07
7.34238e-13
-3.1633e-07
8.75019e-07
3.87541e-13
-4.01611e-07
9.39999e-07
-1.65709e-13
-4.88835e-07
9.80076e-07
-2.98946e-13
-5.76096e-07
9.97325e-07
-3.75249e-13
-6.61825e-07
9.93806e-07
-4.31647e-13
-7.44744e-07
9.71484e-07
-4.58777e-13
-8.23819e-07
9.32178e-07
-4.65813e-13
-8.98209e-07
8.77541e-07
-4.59237e-13
-9.67215e-07
8.09058e-07
-4.41748e-13
-1.03024e-06
7.2806e-07
-4.14976e-13
-1.08674e-06
6.35756e-07
-3.80318e-13
-1.13621e-06
5.33271e-07
-3.38957e-13
-1.17813e-06
4.2169e-07
-2.91666e-13
-1.21196e-06
3.02111e-07
-2.38877e-13
-1.23713e-06
1.75696e-07
-1.81176e-13
-1.25301e-06
4.37352e-08
-1.20007e-13
-1.25892e-06
-9.23031e-08
-5.81626e-14
-1.25418e-06
-2.30707e-07
1.43511e-16
-1.23809e-06
-3.69466e-07
4.92992e-14
-1.20999e-06
-5.06222e-07
8.2286e-14
-1.16932e-06
-6.38227e-07
9.06936e-14
-1.11574e-06
-7.62327e-07
6.51925e-14
-1.04916e-06
-8.74968e-07
-3.19831e-15
-9.69915e-07
-9.72243e-07
-1.21065e-13
-8.78862e-07
-1.04999e-06
-2.90661e-13
-7.77503e-07
-1.10396e-06
-5.10426e-13
-6.68082e-07
-1.13002e-06
-7.70262e-13
-5.53647e-07
-1.12446e-06
-1.02185e-12
-4.38044e-07
-1.08433e-06
-1.27808e-12
-3.2584e-07
-1.00777e-06
-1.99285e-12
-2.22159e-07
-8.94346e-07
-2.25869e-12
-1.32447e-07
-7.4528e-07
3.25121e-12
-6.21508e-08
-5.63566e-07
-4.77529e-12
-1.64027e-08
-3.5384e-07
-6.54996e-11
-1.22425e-07
6.73189e-11
-1.31132e-08
1.33239e-07
-5.26396e-11
-4.83866e-08
3.66609e-07
5.28118e-11
-1.01417e-07
5.65366e-07
3.85964e-12
-1.68201e-07
7.29488e-07
-3.1387e-12
-2.45038e-07
8.59998e-07
8.2006e-13
-3.2863e-07
9.5861e-07
4.22505e-13
-4.1614e-07
1.02751e-06
-1.88747e-13
-5.05192e-07
1.06913e-06
-3.5338e-13
-5.93846e-07
1.08598e-06
-4.52796e-13
-6.80551e-07
1.08051e-06
-5.26008e-13
-7.64088e-07
1.05502e-06
-5.63488e-13
-8.43514e-07
1.0116e-06
-5.75989e-13
-9.18096e-07
9.52124e-07
-5.72044e-13
-9.87255e-07
8.78218e-07
-5.55898e-13
-1.05052e-06
7.91323e-07
-5.29787e-13
-1.10746e-06
6.92703e-07
-4.9498e-13
-1.15769e-06
5.83498e-07
-4.52367e-13
-1.20077e-06
4.64775e-07
-4.0261e-13
-1.23625e-06
3.37584e-07
-3.46125e-13
-1.26357e-06
2.03022e-07
-2.83286e-13
-1.28214e-06
6.22971e-08
-2.14963e-13
-1.29123e-06
-8.3206e-08
-1.43216e-13
-1.29009e-06
-2.31851e-07
-7.1793e-14
-1.27788e-06
-3.81679e-07
-6.40783e-15
-1.25375e-06
-5.30343e-07
4.51437e-14