/*--------------------------------*- C++ -*----------------------------------*\
  =========                 |
  \\      /  F ield         | OpenFOAM: The Open Source CFD Toolbox
   \\    /   O peration     | Website:  https://openfoam.org
    \\  /    A nd           | Version:  9
     \\/     M anipulation  |
\*---------------------------------------------------------------------------*/
FoamFile
{
    format      ascii;
    class       surfaceScalarField;
    location    "6.5";
    object      phi;
}
// * * * * * * * * * * * * * * * * * * * * * * * * * * * * * * * * * * * * * //

dimensions      [0 3 -1 0 0 0 0];

internalField   nonuniform List<scalar> 
1300
(
11.2529
1.87548
-4.77262
11.2529
-5.12184
1.87548
-4.35267
4.35267
-1.38378
1.38378
5.71266
5.5402
-2.70475
2.70475
-3.32984
3.32984
-3.01838
3.01838
-1.06194
1.06194
-1.02843
1.02843
0.726024
-0.726024
-3.40748
3.40748
-1.70608
1.70608
-3.15849
3.15849
6.12985
-6.12985
-3.71394
3.71394
-0.842122
0.842122
-4.26378
15.5166
6.98908
6.98908
-2.58733
2.58733
-1.25886
1.25886
1.41034
-1.41034
10.1537
-10.1537
-5.38106
-6.18543
1.96297
-13.9908
-3.15887
-3.15887
-2.7054
2.7054
-0.829928
1.04555
3.46823
-3.46823
-0.818583
0.818583
-4.39894
0.0462742
-4.39894
4.19355
0.159119
4.19355
-1.54714
0.163359
-1.54714
4.60382
-4.60382
1.25355
0.130227
1.25355
3.92374
-3.92374
-5.70966
11.4223
5.5432
-5.32019
20.8368
-5.93267
11.4729
-3.87266
3.87266
-2.6079
-0.0968515
-2.6079
2.79647
-0.0917207
2.79647
-3.86488
3.86488
-3.11353
-0.216308
-3.11353
3.47673
-0.14689
3.47673
3.67394
-3.67394
-3.04314
0.0247657
-3.04314
2.89578
0.122598
2.89578
0.771042
1.10443
-2.64652
3.69207
-1.10443
0.0424986
1.02614
0.0357984
1.02614
-1.01457
-0.0138563
-1.01457
1.0504
-0.0219691
1.0504
0.780271
-0.0542468
0.780271
-0.771256
0.0452325
-0.771256
-8.42922
-8.37547
-3.48711
0.0796228
-3.48711
-1.70808
0.0020024
-1.70808
1.75234
-0.0462606
1.75234
-2.61592
2.61592
-3.48024
0.321752
-3.48024
4.80997
1.31989
4.80997
5.04643
6.20643
16.2993
-16.2993
10.1694
-3.50225
-0.2117
-3.50225
-3.88254
-6.27114
3.88254
-0.1686
-0.928239
0.0861162
-0.928239
5.6249
1.36419
5.6249
2.79536
0.10042
-2.79536
0.208031
4.61171
-4.61171
1.57243
1.01489
1.57243
-1.19004
1.19004
1.12521
-0.0748131
-1.12521
-0.13365
1.38598
0.0243527
1.38598
-1.40974
-0.000592737
-1.40974
7.74173
-13.9272
-7.70386
3.26537
0.142112
-3.26537
0.106499
3.55485
-0.0866223
3.55485
-3.33326
3.33326
-3.60256
0.13433
-3.60256
-0.737171
-0.0814115
-0.737171
0.910338
-0.0917551
0.910338
-4.58404
0.185095
-4.58404
-3.89725
0.417005
3.89725
0.296305
1.33853
-1.33853
-1.66484
0.117699
-1.66484
-4.60931
0.0252686
4.60931
-0.00549062
-4.69113
0.0873126
-4.69113
-3.70626
0.1037
3.70626
0.217479
4.5863
1.0386
-4.5863
0.662567
-5.36995
11.5764
-5.88291
11.4261
-3.56515
-0.307517
-3.56515
4.01953
-0.14687
4.01953
2.87074
0.287754
-2.87074
0.262835
2.9686
-0.172128
2.9686
-3.82855
-0.0363232
-3.82855
3.6905
0.174375
3.6905
3.04738
-0.0787817
-3.04738
-0.06615
3.49171
-0.0149801
3.49171
3.69326
-0.0193223
3.69326
-3.54603
-0.127905
-3.54603
3.24039
-3.24039
3.1749
0.065489
-3.1749
0.131757
-5.07402
5.07343
-0.00799821
-5.06602
1.01814
1.01814
0.837295
-0.0570244
0.837295
-0.865097
0.0938402
-0.865097
8.41139
-16.1152
8.30344
-16.7327
7.16447
-21.1553
7.90643
-16.2819
3.71933
-3.71933
3.67119
0.048138
-3.67119
0.184089
-1.6679
-0.0401778
-1.6679
-2.3761
-0.239826
-2.3761
2.95816
-0.342238
2.95816
-3.75272
3.75272
-4.13092
0.378206
4.13092
0.679044
3.53103
-0.0393177
-3.53103
0.0287825
1.07837
0.175182
-1.07837
0.150133
4.83071
-0.219004
4.83071
-4.10545
-0.506258
-4.10545
-1.64668
-0.0212179
1.64668
-0.0742502
-1.25842
0.0683809
-1.25842
-5.0745
0.00847702
-5.0387
-1.40127
-1.40127
1.30414
4.9962
-3.58207
0.0360413
3.58207
-0.027224
3.543
0.209712
-3.543
0.209746
-3.30176
0.0613671
3.30176
0.0315022
-0.715063
-0.0221084
-0.715063
-1.10714
1.10714
-0.988799
-0.11834
0.988799
-0.0784615
1.49572
-0.157186
1.49572
1.71993
0.0324106
-1.71993
0.0550897
-4.91976
0.228632
-4.91976
4.00753
0.0120021
4.00753
-3.9568
-0.148644
3.9568
-0.263546
-0.00371661
5.07715
-1.01442
-0.000149747
1.01442
-5.1015
5.10135
-0.722842
0.00777877
0.722842
0.114453
1.02832
0.161715
-1.02832
0.163228
3.72898
-0.0384753
-3.72898
0.00964596
-2.09347
-0.282622
-2.09347
-3.27112
-0.294024
3.27112
-0.312964
-5.11475
-0.0783362
5.19309
-5.13672
1.33676
0.0492282
-1.33676
5.15058
-1.22329
-0.115238
1.22329
-0.116155
1.6993
-0.203577
1.6993
5.04986
-0.219149
-5.04986
0.130097
-3.99499
0.166437
3.99499
0.01254
-1.86998
-0.223493
1.86998
-0.170684
-13.1265
14.4907
7.71028
-6.86672
-7.06044
-13.1379
4.44922
7.12716
14.6187
-11.6089
-9.54636
-11.5024
2.86365
-2.70042
-3.93625
3.88201
22.9203
-22.833
-18.4095
19.0886
20.7636
-20.5461
5.70552
5.7168
17.0299
-17.1267
-20.5629
20.2554
17.1943
-17.4106
21.0721
-21.1084
-24.5473
24.5088
-16.5088
16.5335
-20.1884
20.0605
-20.8988
20.6353
-8.37291
-8.35975
15.9319
-15.8523
21.9177
-22.1294
-19.9777
20.2994
10.0443
4.44638
11.0829
-6.24829
11.9538
-5.22459
12.9349
8.04058
-16.4135
8.07467
-15.1351
10.1521
11.7656
-9.98349
-3.15437
-17.9257
17.8391
-17.3482
17.3797
23.7423
-23.696
-6.17121
11.888
-5.25491
12.3821
-11.4106
-6.99891
10.0907
4.52793
8.84666
7.08526
-8.98877
-2.51363
-24.3078
24.0886
-25.3077
24.8015
0.0747689
2.43953
-2.5143
1.33363
-0.832218
3.27175
2.03143
2.12527
2.45073
-2.28902
0.249691
-2.76399
-2.89764
-6.06878
6.18648
5.89576
-5.76553
16.1386
6.78174
16.1331
-16.3584
-6.47459
-16.1298
11.3775
7.71106
11.7557
12.046
8.71765
12.1497
10.3652
-10.3269
-0.0383175
-11.4722
21.8374
1.56112
-18.4711
-13.9432
9.88689
7.14299
9.79517
-10.6366
-6.4901
-10.3738
-11.0385
-9.52443
-11.3325
12.1123
8.14313
11.9654
-14.8121
14.8246
10.6567
6.53767
10.5098
-10.1297
-7.2809
-10.1959
26.1739
-6.25023
-19.9237
-12.5847
-11.9626
12.4103
8.66173
13.6534
10.8554
13.6631
8.40778
17.7661
-17.0695
5.10693
-10.1472
-6.36152
-10.0155
9.67299
6.86053
9.79559
-11.7235
-8.46494
-11.6874
-11.9447
-8.95416
11.964
8.09653
-12.4682
-12.8395
12.6169
8.01842
7.27473
-16.8211
9.00717
-17.3669
-10.5386
-5.31373
-10.3545
10.3014
6.6528
-16.9542
-6.11211
24.4016
-12.636
21.2472
-12.2665
-9.86291
-12.2377
-15.1435
-4.83417
-14.7265
-8.23461
7.95198
-9.0278
8.68556
26.3237
-15.5965
-10.7272
-12.3728
-8.17335
11.7102
-0.627279
-12.8396
12.8013
-0.88581
12.0491
16.4954
15.8682
-10.9133
-6.43493
-10.7036
10.3809
6.99887
10.4422
16.1276
7.61468
16.2867
-16.5064
-7.18965
-16.3213
5.22511
-5.30652
6.29246
-6.31368
15.3978
9.40369
-15.1788
-9.12903
22.968
-10.7997
-12.1683
-5.22165
5.53837
-0.316721
-1.9499
-0.61627
0.225852
-1.99215
-1.9441
1.94692
0.178352
5.71672
3.77262
-2.41311
2.48149
2.77998
2.70517
-0.192468
2.70903
-2.70125
19.2244
-11.3426
-7.88186
13.652
-13.6267
-2.66929
-18.6089
15.9396
2.50639
3.48486
-3.39874
-4.48106
-1.58772
-4.42597
3.41599
2.47977
3.59117
2.35208
3.83439
-8.91398
1.76778
7.14621
-6.5619
-3.99775
-13.171
-6.0901
19.2611
16.3518
7.73687
-16.4819
0.352062
5.9564
-6.00267
-1.56292
-11.6081
8.72052
-10.2834
-14.9181
-6.3077
21.2258
-9.59739
-1.10618
9.38768
2.36804
-10.8578
-7.06787
10.7235
1.42619
-12.0328
23.9694
-11.9366
-18.4677
8.52879
13.3086
16.2399
-17.8621
9.30037
8.56174
-4.5535
8.37533
1.41984
8.2032
-20.1192
13.6291
12.0192
8.28025
-12.3069
1.93314
-18.1861
24.6205
-21.5574
-3.0631
12.8246
11.7958
13.1559
13.1679
-7.88791
21.0438
-3.18824
-18.3691
21.3743
-13.094
15.1175
-28.2115
-28.2853
9.91619
-17.5032
21.1537
-3.65055
-4.91524
-9.89683
22.4184
-2.08056
-20.3378
9.88483
-13.8211
-12.0686
25.8898
-20.0713
19.3495
-6.60679
-12.7427
-12.1925
-8.91593
12.026
2.79859
-24.7402
29.8472
-6.97409
9.01301
1.49676
8.99803
10.4225
-15.3098
4.88731
9.64882
-16.2556
6.96877
-22.2786
-11.4181
22.9636
-11.5455
-16.7318
-14.9364
-1.79536
4.66221
25.185
-15.5176
11.5797
3.93788
8.6146
1.82764
-8.68008
-1.33539
1.12111
16.2281
-17.3492
10.9167
11.0171
12.0865
4.1416
10.748
7.0911
-10.7207
-0.966703
-14.6137
5.65956
-6.51719
-14.2541
19.9137
-16.0505
1.79637
-10.1771
-13.9917
24.1688
-16.5386
11.5008
12.4687
18.4996
-19.4773
5.48559
-9.75503
-9.72228
10.5649
-17.0821
7.32379
12.5899
15.3422
2.50271
11.9934
10.9702
-18.6462
1.2793
18.0554
-15.5418
3.63902
10.0241
-15.2187
0.282267
-10.0722
2.75603
-15.392
-14.1982
15.9792
-20.8134
-12.2323
13.7672
2.51953
-14.0635
-0.663015
-5.14759
-3.08702
-5.37108
-3.31623
-5.71157
-11.2041
-2.00059
-9.20355
5.95139
-6.80912
-4.52339
7.12208
1.56348
-5.24174
5.1265
-5.86052
5.65694
-0.216948
13.0182
15.6512
7.47787
-8.46475
15.9426
-15.332
22.9467
-28.7705
13.4385
15.2081
-22.3978
-13.5624
2.91318
2.31193
2.82142
13.6923
-14.8562
1.16383
-13.6345
17.6898
-4.05528
-20.1578
6.52331
-6.46547
5.77731
0.51515
5.73713
1.6387
7.13891
-8.77761
-4.67497
-4.74922
-8.81394
-13.4343
22.2482
4.84933
-12.8687
8.01934
-12.3417
17.191
0.236361
-13.105
17.5708
-10.4319
18.0859
-12.1053
5.98063
12.5361
21.919
-9.38285
15.8422
-6.43849
6.7211
-16.104
-6.71315
-11.3832
18.2437
-12.7857
14.582
-0.894481
15.4765
-14.0624
3.2627
-1.97591
9.04121
9.24924
16.4979
-12.3563
11.7743
-18.2128
-4.32963
-15.7101
-3.1202
0.839642
-13.7123
12.8726
12.2324
-11.3928
-3.49472
9.51054
-6.01582
6.11433
-3.07803
-3.03629
-2.00032
-3.30621
2.02243
0.686603
6.80093
0.527172
-3.6052
-2.17408
-2.05963
10.4992
8.7252
-4.36941
4.05269
4.14356
-0.658701
1.11122
2.47994
5.18531
-4.07408
0.768665
4.41664
-2.63008
4.33741
1.61899
-4.36982
-0.0561486
-3.66741
12.3879
3.4788
-5.95857
1.88449
2.42648
-13.769
19.0165
-10.9009
-8.1156
21.4429
3.00628
-13.9071
15.6026
-13.0962
7.80512
-13.8952
-6.10203
-19.1982
-12.4165
-10.5026
18.5219
-11.7456
19.4825
3.60378
-19.8346
23.4383
-12.8692
6.5615
-10.0389
11.6579
-4.32181
-5.7171
11.1385
10.0873
-10.8687
-0.739345
0.269804
8.71608
-8.44627
-1.56736
-8.12926
-16.3827
17.8088
-8.27761
17.578
7.665
-7.59571
25.1737
6.59815
-14.1939
-11.8696
-12.9758
-5.63212
10.6077
-2.00992
-8.18597
-14.7527
8.26475
-0.06155
-19.4789
22.6812
-3.20228
-12.336
-1.29315
14.1178
-18.2881
2.03249
-11.3193
11.3619
12.7817
12.7202
-20.2738
-0.0640056
-12.1307
3.28181
-15.4125
15.0777
-6.81267
16.7289
-15.7946
11.2712
-14.2311
13.6658
-1.74676
14.0195
-9.13217
5.90421
-14.8201
-12.0215
15.1825
-8.64479
16.6792
-10.2709
26.9501
-17.245
15.292
11.6581
-2.89525
-9.34246
-14.9082
12.013
0.383747
9.38178
17.7355
-10.6444
16.7688
8.77823
-18.5333
-8.30387
-25.8023
7.26904
-13.3336
-7.28359
14.5526
11.216
13.0437
4.83035
-11.7083
16.8292
-18.6245
-5.28369
-8.91446
15.2986
-3.28564
9.95629
-18.8708
-5.43571
12.9182
-0.419293
-12.4989
2.6783
-14.9106
5.22185
-20.1324
15.5916
-16.2546
1.87134
-8.33681
-3.3704
-3.48655
-2.24712
-3.6134
-7.87922
5.6321
-1.35591
3.77059
-12.6018
12.1825
-5.08803
10.7201
-4.25279
-1.11829
4.42348
1.23346
11.9536
2.77922
-16.3416
-9.14235
14.7258
-5.58341
1.35687
-10.9331
3.79271
7.89812
13.5448
-23.8377
1.43995
-14.9017
-4.30449
6.61642
5.20605
17.4385
2.58232
6.99429
-0.377869
9.57661
2.44356
2.36509
-10.9875
12.1513
1.88514
15.3236
-2.01259
7.99322
3.72454
3.72654
2.27612
6.06402
3.18522
9.32672
0.54911
-4.20011
2.22141
-4.28103
-1.3838
-4.33806
-0.456053
3.9826
-4.43865
10.858
-2.13284
5.27462
-2.02891
-5.49604
7.52496
-9.91077
-6.15474
-1.7381
-6.00999
7.89447
6.37794
-6.15637
-3.7544
2.30331
-14.7198
11.5919
-12.3312
-2.24396
21.1944
-9.82992
1.38365
-3.26842
-6.74561
-8.33333
8.38948
24.1789
0.994825
12.2423
18.8037
11.7358
1.09138
11.9756
-15.6261
-10.303
-15.6901
-0.612483
13.5053
5.42307
19.7619
17.0812
13.7955
-5.07521
-23.6998
20.1434
-7.99204
16.0881
-3.58918
-16.5433
14.4446
8.50211
-16.9641
0.709566
-15.8337
-23.8257
-0.444175
12.6266
-11.5094
10.3911
7.30412
1.89943
-2.59159
-0.894965
2.70993
-0.344836
9.23178
-0.17277
-8.77878
8.95155
-3.80983
2.42603
-0.625901
4.67859
6.89905
4.76621
-4.01257
-8.45121
-8.67174
-5.09729
-16.7873
2.47375
-8.85169
6.08619
-3.66016
3.0499
5.29139
10.566
-1.72709
-9.6657
7.74291
-4.69302
5.873
)
;

boundaryField
{
    wall-4
    {
        type            calculated;
        value           uniform 0;
    }
    velocity-inlet-5
    {
        type            calculated;
        value           uniform -11.2529;
    }
    velocity-inlet-6
    {
        type            calculated;
        value           uniform -1.87548;
    }
    pressure-outlet-7
    {
        type            calculated;
        value           nonuniform List<scalar> 8(4.77262 5.12184 11.5665 12.0278 16.8047 15.4456 16.7148 15.0709);
    }
    wall-8
    {
        type            calculated;
        value           uniform 0;
    }
    frontAndBackPlanes
    {
        type            empty;
        value           nonuniform List<scalar> 0();
    }
}


// ************************************************************************* //
