/*--------------------------------*- C++ -*----------------------------------*\
  =========                 |
  \\      /  F ield         | OpenFOAM: The Open Source CFD Toolbox
   \\    /   O peration     | Website:  https://openfoam.org
    \\  /    A nd           | Version:  9
     \\/     M anipulation  |
\*---------------------------------------------------------------------------*/
FoamFile
{
    format      ascii;
    class       surfaceScalarField;
    location    "1.27";
    object      alphaPhi0.water;
}
// * * * * * * * * * * * * * * * * * * * * * * * * * * * * * * * * * * * * * //

dimensions      [0 3 -1 0 0 0 0];

internalField   nonuniform List<scalar> 
4432
(
1.83765e-06
-1.83765e-06
3.79028e-06
-1.95262e-06
5.76709e-06
-1.97682e-06
7.88002e-06
-2.11292e-06
1.01308e-05
-2.25079e-06
1.24237e-05
-2.29294e-06
1.45946e-05
-2.17088e-06
1.64378e-05
-1.84322e-06
1.77262e-05
-1.28839e-06
1.82032e-05
-4.77014e-07
1.76838e-05
5.19481e-07
1.62066e-05
1.47717e-06
1.39932e-05
2.21338e-06
1.0921e-05
2.81576e-06
7.63587e-06
3.28495e-06
4.65632e-06
2.97948e-06
2.78593e-06
1.8703e-06
2.46337e-06
3.69514e-07
3.77166e-06
-1.29798e-06
6.22776e-06
-2.48696e-06
8.723e-06
-2.53268e-06
7.41201e-06
1.27584e-06
7.39449e-06
1.72085e-06
-3.55852e-06
3.67868e-06
-3.91043e-06
5.85665e-06
-4.1548e-06
8.19189e-06
-4.44815e-06
1.05746e-05
-4.63349e-06
1.28677e-05
-4.58601e-06
1.49052e-05
-4.20838e-06
1.65015e-05
-3.43954e-06
1.74775e-05
-2.26441e-06
1.77203e-05
-7.19842e-07
1.71786e-05
1.0612e-06
1.58203e-05
2.83545e-06
1.36915e-05
4.34218e-06
1.08516e-05
5.50169e-06
7.9321e-06
6.16432e-06
5.43288e-06
5.59673e-06
3.69819e-06
3.74913e-06
2.86389e-06
1.2086e-06
2.9988e-06
-1.43255e-06
3.93259e-06
-3.42043e-06
5.10259e-06
-3.70244e-06
5.3043e-06
1.0743e-06
1.27577e-05
1.69843e-06
-5.25696e-06
3.76612e-06
-5.9781e-06
6.04604e-06
-6.43473e-06
8.4382e-06
-6.84031e-06
1.08118e-05
-7.00709e-06
1.30201e-05
-6.79436e-06
1.48994e-05
-6.08761e-06
1.62805e-05
-4.82072e-06
1.7016e-05
-2.99983e-06
1.70235e-05
-7.27379e-07
1.62966e-05
1.78808e-06
1.48754e-05
4.25663e-06
1.28583e-05
6.3593e-06
1.04742e-05
7.88579e-06
8.06292e-06
8.582e-06
6.00805e-06
7.74487e-06
4.36214e-06
5.41173e-06
3.24983e-06
2.32203e-06
2.67598e-06
-8.59265e-07
2.54817e-06
-3.29158e-06
2.66836e-06
-3.82182e-06
2.81191e-06
9.30539e-07
1.56438e-05
1.68926e-06
-6.94623e-06
3.86961e-06
-8.15843e-06
6.23017e-06
-8.79528e-06
8.6453e-06
-9.25544e-06
1.09842e-05
-9.346e-06
1.30992e-05
-8.90933e-06
1.48303e-05
-7.8187e-06
1.60239e-05
-6.0143e-06
1.65596e-05
-3.53561e-06
1.63882e-05
-5.55912e-07
1.55432e-05
2.63304e-06
1.41194e-05
5.68044e-06
1.22621e-05
8.21658e-06
1.0208e-05
9.93988e-06
8.26375e-06
1.05262e-05
6.5405e-06
9.46835e-06
5.03005e-06
6.92222e-06
3.75536e-06
3.59498e-06
2.68949e-06
2.03494e-07
1.75586e-06
-2.35994e-06
9.4235e-07
-3.00672e-06
7.06617e-07
1.16619e-06
1.63505e-05
1.70623e-06
-8.65247e-06
3.97597e-06
-1.04282e-05
6.39359e-06
-1.12129e-05
8.81447e-06
-1.16763e-05
1.11095e-05
-1.16411e-05
1.3132e-05
-1.09318e-05
1.47267e-05
-9.41342e-06
1.57546e-05
-7.04221e-06
1.61197e-05
-3.90067e-06
1.58046e-05
-2.40873e-07
1.48845e-05
3.5532e-06
1.34999e-05
7.06496e-06
1.18312e-05
9.88534e-06
1.01027e-05
1.16684e-05
8.53118e-06
1.20976e-05
7.13215e-06
1.08673e-05
5.79643e-06
8.25696e-06
4.46698e-06
4.902e-06
3.1057e-06
1.55435e-06
1.59043e-06
-8.34602e-07
-2.39746e-08
-1.39235e-06
-8.99802e-07
2.04196e-06
1.54506e-05
1.75377e-06
-1.04062e-05
4.0893e-06
-1.27637e-05
6.53604e-06
-1.36596e-05
8.94358e-06
-1.40838e-05
1.11849e-05
-1.38824e-05
1.31146e-05
-1.28615e-05
1.4583e-05
-1.08818e-05
1.54647e-05
-7.92394e-06
1.56846e-05
-4.12062e-06
1.52558e-05
1.87939e-07
1.42938e-05
4.51526e-06
1.29799e-05
8.37887e-06
1.15186e-05
1.13466e-05
1.01131e-05
1.30739e-05
8.90278e-06
1.3308e-05
7.83167e-06
1.19384e-05
6.70954e-06
9.36632e-06
5.44494e-06
6.09691e-06
3.98071e-06
2.99015e-06
2.13206e-06
1.04757e-06
-1.5243e-07
8.92359e-07
-1.67958e-06
3.5687e-06
1.37678e-05
1.82921e-06
-1.22355e-05
4.20699e-06
-1.51414e-05
6.65214e-06
-1.61048e-05
9.02321e-06
-1.64549e-05
1.11971e-05
-1.60563e-05
1.30304e-05
-1.46948e-05
1.43801e-05
-1.22314e-05
1.51343e-05
-8.6782e-06
1.52351e-05
-4.22135e-06
1.47217e-05
7.0133e-07
1.37485e-05
5.48849e-06
1.25328e-05
9.59457e-06
1.12956e-05
1.25838e-05
1.02162e-05
1.41533e-05
9.37076e-06
1.41534e-05
8.6515e-06
1.26577e-05
7.82571e-06
1.01921e-05
6.70586e-06
7.03313e-06
5.37502e-06
4.35236e-06
3.42758e-06
3.02097e-06
7.38248e-07
3.58116e-06
-1.69281e-06
5.99998e-06
1.20748e-05
1.92215e-06
-1.41576e-05
4.31564e-06
-1.75349e-05
6.72711e-06
-1.85163e-05
9.03507e-06
-1.87629e-05
1.11236e-05
-1.81449e-05
1.28538e-05
-1.6425e-05
1.40908e-05
-1.34685e-05
1.47368e-05
-9.32415e-06
1.47457e-05
-4.23027e-06
1.41778e-05
1.26921e-06
1.32237e-05
6.44266e-06
1.21327e-05
1.06856e-05
1.11365e-05
1.358e-05
1.03898e-05
1.49e-05
9.918e-06
1.46252e-05
9.58369e-06
1.2992e-05
8.99463e-06
1.04678e-05
8.15392e-06
7.75563e-06
7.20819e-06
5.492e-06
5.39926e-06
4.82927e-06
2.7603e-06
6.21869e-06
-4.24414e-07
9.18272e-06
1.16503e-05
3.0524e-06
-3.05186e-06
1.15097e-05
-8.45678e-06
2.02235e-05
-8.71265e-06
2.53725e-05
-5.14737e-06
2.42042e-05
1.01765e-06
1.83519e-05
5.73226e-06
1.11818e-05
7.10886e-06
7.51101e-06
2.94314e-06
8.02568e-06
-4.65061e-07
9.02774e-06
-9.71228e-07
7.97254e-06
1.05631e-06
6.04414e-06
1.92956e-06
4.08826e-06
1.91812e-06
8.32205e-07
3.13312e-06
-3.19815e-06
4.03034e-06
-6.85832e-06
3.65987e-06
-8.32477e-06
1.46617e-06
-6.00337e-06
-2.32166e-06
-6.0036e-06
4.16867e-06
-7.22002e-06
1.15783e-05
-1.5866e-05
1.87827e-05
-1.59154e-05
2.39988e-05
-1.03619e-05
2.52808e-05
-2.80922e-07
2.20949e-05
8.89589e-06
1.40474e-05
1.1686e-05
6.98495e-06
2.04688e-06
7.23504e-06
3.28908e-08
1.06731e-05
-6.06393e-07
1.00903e-05
2.01481e-06
7.96258e-06
4.05839e-06
5.42612e-06
4.45672e-06
2.46244e-06
6.1586e-06
-1.23118e-06
7.72353e-06
-4.45405e-06
6.88238e-06
-5.79563e-06
2.80744e-06
-4.75543e-06
-3.36211e-06
-1.07594e-05
4.50382e-06
-1.16476e-05
1.08746e-05
-2.19352e-05
1.70586e-05
-2.03453e-05
2.21238e-05
-1.48897e-05
2.35705e-05
-1.77356e-06
2.11954e-05
1.12484e-05
7.92351e-06
1.22858e-05
4.418e-06
5.22461e-06
5.49445e-06
-1.16307e-07
6.39077e-06
-5.78743e-07
1.0268e-05
1.14945e-06
8.96628e-06
4.95449e-06
6.45009e-06
6.97519e-06
3.58286e-06
8.59071e-06
2.87027e-07
1.05683e-05
-2.18907e-06
7.22286e-06
-3.29538e-06
3.29875e-06
-3.0741e-06
-3.55761e-06
-1.38338e-05
4.33558e-06
-1.62715e-05
9.64257e-06
-2.80166e-05
1.44612e-05
-2.57007e-05
1.88345e-05
-1.6991e-05
2.12155e-05
-3.19044e-06
1.91222e-05
1.3308e-05
5.87641e-06
1.15721e-05
5.97708e-06
9.10448e-06
6.53132e-06
-6.44321e-07
6.11233e-06
-1.09559e-06
5.96459e-06
3.38599e-07
8.70808e-06
2.32845e-06
7.17511e-06
6.14191e-06
4.52483e-06
9.66655e-06
1.32931e-06
1.17579e-05
-3.02987e-07
8.5146e-06
-8.20196e-07
3.46934e-06
-8.55287e-07
-3.52726e-06
-1.46911e-05
4.58085e-06
-2.0843e-05
8.76925e-06
-3.21963e-05
1.23455e-05
-3.14107e-05
1.50954e-05
-2.20758e-05
1.67952e-05
-3.7025e-06
1.24571e-05
7.57144e-06
7.25042e-06
1.03215e-05
9.65582e-06
9.31082e-06
9.78883e-06
-7.26457e-07
5.12759e-06
-2.96253e-06
2.47109e-06
1.6483e-06
3.05448e-06
1.24213e-06
4.67265e-06
2.63306e-06
4.97331e-06
5.18658e-06
2.4647e-06
9.0112e-06
1.47466e-06
9.1641e-06
1.59827e-06
4.30398e-06
1.13608e-06
-3.16514e-06
-1.35592e-05
4.57082e-06
-2.54054e-05
7.07372e-06
-3.46898e-05
1.01131e-05
-3.44339e-05
1.02676e-05
-2.66184e-05
5.32444e-06
-4.16392e-06
5.49441e-06
5.44626e-06
5.52386e-06
9.92573e-06
9.76337e-06
8.43372e-06
9.23355e-06
-1.76579e-07
9.27683e-06
-2.98562e-06
3.15394e-06
1.88224e-06
1.80082e-06
2.40919e-06
1.84458e-06
2.43556e-06
2.19518e-06
3.04829e-06
3.94559e-06
4.28567e-06
4.86058e-06
9.77318e-06
4.22568e-06
5.19773e-06
2.53939e-06
-1.48274e-06
-1.1024e-05
4.65064e-06
-3.00448e-05
5.28182e-06
-3.53048e-05
7.21692e-06
-3.63738e-05
9.6074e-06
-2.89931e-05
5.67019e-06
-4.0365e-06
5.11147e-06
5.64611e-06
4.9524e-06
9.72265e-06
9.69416e-06
8.88765e-06
8.50639e-06
1.03138e-06
7.72181e-06
-2.18095e-06
3.09355e-06
1.8077e-06
1.94826e-06
3.39734e-06
1.94045e-06
2.29557e-06
1.83326e-06
3.03215e-06
2.48282e-06
3.54611e-06
7.37499e-06
6.46999e-06
6.21122e-06
6.3615e-06
3.46753e-06
1.2593e-06
-7.56051e-06
4.66136e-06
-2.99231e-05
3.21021e-06
-2.58431e-05
4.65066e-06
-3.68668e-05
5.91091e-06
-3.02125e-05
4.80439e-06
-1.07903e-05
4.52726e-06
5.54752e-06
6.24268e-06
1.04849e-05
1.02031e-05
8.60799e-06
8.3835e-06
2.86761e-06
6.73873e-06
-5.15999e-07
4.26177e-06
2.18694e-06
2.44318e-06
6.32941e-06
1.80514e-06
2.80219e-06
2.03817e-06
2.7048e-06
2.09689e-06
3.37675e-06
8.71718e-06
5.0016e-06
7.92199e-06
7.62375e-06
3.95727e-06
5.22248e-06
-3.60542e-06
4.34385e-06
-1.85015e-05
9.38684e-06
-2.25779e-05
1.42996e-05
-2.34291e-05
1.88974e-05
-2.33607e-05
2.29843e-05
-2.22317e-05
2.62948e-05
-1.97355e-05
2.85764e-05
-1.575e-05
2.96723e-05
-1.04201e-05
2.94956e-05
-4.05359e-06
2.8208e-05
2.55685e-06
2.63406e-05
8.30998e-06
2.45217e-05
1.25045e-05
2.32613e-05
1.48404e-05
2.28059e-05
1.53552e-05
2.30659e-05
1.43653e-05
2.31867e-05
1.23909e-05
2.30481e-05
9.96492e-06
2.26415e-05
7.99286e-06
2.21818e-05
6.7716e-06
1.9453e-05
7.55952e-06
1.53041e-05
1.03689e-05
1.14475e-05
1.30408e-05
7.75603e-06
1.24512e-05
4.51596e-06
-2.30174e-05
9.07269e-06
-2.71346e-05
1.32962e-05
-2.76525e-05
1.71582e-05
-2.72227e-05
2.05335e-05
-2.5607e-05
2.32136e-05
-2.24156e-05
2.50442e-05
-1.75806e-05
2.59912e-05
-1.13671e-05
2.59025e-05
-3.96476e-06
2.48355e-05
3.62385e-06
2.34725e-05
9.673e-06
2.25398e-05
1.34372e-05
2.25504e-05
1.48297e-05
2.36465e-05
1.42591e-05
2.5564e-05
1.24477e-05
2.77797e-05
1.01752e-05
2.88679e-05
8.13423e-06
3.02721e-05
6.41936e-06
3.13943e-05
6.44814e-06
2.84412e-05
7.06889e-06
2.00255e-05
6.48763e-06
1.17763e-05
3.66234e-06
4.05475e-07
6.21635e-06
4.07644e-06
-2.70924e-05
7.77014e-06
-3.08266e-05
1.09211e-05
-3.08023e-05
1.36612e-05
-2.99618e-05
1.59809e-05
-2.79259e-05
1.77681e-05
-2.42023e-05
1.90863e-05
-1.88987e-05
2.02869e-05
-1.25674e-05
2.08726e-05
-4.55055e-06
2.05571e-05
3.93941e-06
2.01089e-05
1.01212e-05
2.02801e-05
1.32659e-05
2.16155e-05
1.34943e-05
2.41667e-05
1.17079e-05
2.74935e-05
9.12097e-06
3.09494e-05
6.71928e-06
3.3951e-05
5.02427e-06
3.55307e-05
3.89742e-06
2.8862e-05
3.31562e-06
1.05981e-05
1.44444e-06
1.73768e-06
1.0777e-07
2.754e-07
0
4.64306e-08
1.8258e-07
3.44711e-06
-2.64559e-05
5.83707e-06
-2.97059e-05
7.45003e-06
-2.98788e-05
8.4908e-06
-2.89507e-05
9.02821e-06
-2.65668e-05
9.29412e-06
-2.29032e-05
9.42564e-06
-1.63608e-05
1.03787e-05
-9.8764e-06
1.22176e-05
-4.81816e-06
1.49466e-05
1.37452e-06
1.67014e-05
7.15114e-06
1.84126e-05
1.15548e-05
2.09259e-05
1.0981e-05
2.44895e-05
8.14435e-06
2.85805e-05
5.03e-06
3.24924e-05
2.8073e-06
3.17803e-05
1.51428e-06
1.91284e-05
6.15785e-07
2.3184e-06
2.66552e-08
6.71403e-08
1.4125e-07
1.38206e-07
0
1.70516e-07
1.21259e-08
6.16619e-08
1.54881e-07
2.39821e-06
-4.93985e-12
2.1781e-06
-6.5066e-12
2.02044e-06
-9.01548e-12
1.25507e-06
-1.49361e-10
-3.16632e-07
-2.24173e-08
-1.73745e-06
-1.30672e-06
-1.70265e-06
-4.68619e-06
-2.94478e-07
-8.49228e-06
2.60495e-06
-9.22157e-06
4.67369e-06
-9.99547e-07
9.85361e-06
2.51399e-07
1.61427e-05
2.42262e-06
2.03758e-05
4.27742e-06
2.373e-05
2.94463e-06
2.47016e-05
7.86716e-07
1.70479e-05
-3.26363e-07
3.78634e-06
-2.37472e-07
1.57998e-07
1.24103e-08
1.433e-07
4.12287e-08
2.36342e-07
9.01058e-09
5.02538e-07
-1.17043e-07
4.7012e-07
-8.6011e-08
1.33486e-07
1.7074e-07
1.83115e-12
-6.86126e-12
6.2305e-13
-5.38976e-12
2.77675e-13
-8.76037e-12
-3.62907e-11
-1.13035e-10
-2.06505e-08
-1.80766e-09
-1.2843e-06
-4.1179e-08
-1.57382e-06
-2.81453e-06
-3.69529e-06
-9.06797e-06
-3.01095e-06
-1.35529e-05
1.29643e-07
-4.33123e-06
1.37425e-06
-7.85046e-07
2.2753e-06
0
4.98692e-06
0
5.85795e-06
0
3.94189e-06
-1.41674e-07
7.29684e-07
-5.14965e-08
9.67479e-08
2.5077e-08
7.37333e-08
3.64504e-08
9.73188e-08
1.85504e-08
7.66765e-07
-1.58848e-07
1.00707e-06
-3.18548e-07
1.1095e-06
-1.49646e-07
1.01833e-07
2.30502e-07
-3.96207e-13
-6.55781e-12
-2.93989e-13
-5.58224e-12
0
-9.46943e-12
0
-1.22455e-10
0
-8.85141e-09
0
-1.57663e-07
-2.21099e-06
-8.76682e-07
-6.13609e-06
-1.04729e-06
-8.54213e-06
-6.1329e-06
-3.57155e-06
-7.36885e-06
0
-2.82101e-06
2.3047e-08
-1.18752e-06
1.31501e-07
-3.02416e-08
1.21582e-07
0
9.27269e-08
0
4.57025e-08
1.96698e-08
2.90635e-08
5.96743e-08
4.43457e-08
2.96529e-08
3.57259e-07
-1.12164e-07
8.26129e-07
-5.90717e-07
7.15755e-07
-1.70275e-07
3.69983e-07
-5.79326e-08
0
3.71919e-07
-2.06609e-12
-4.73702e-12
-2.21978e-12
-1.74522e-11
0
-1.28037e-11
-1.87041e-10
-3.27038e-11
-2.38593e-07
-3.54984e-09
-9.37114e-08
-1.55945e-12
-1.14698e-08
-4.49772e-10
-1.04968e-06
-8.51847e-09
-2.52507e-06
-3.66572e-07
-3.27928e-06
-2.86172e-06
-1.43883e-06
-2.95706e-06
-3.61813e-07
-2.55527e-06
0
-4.27977e-07
4.31875e-10
5.10872e-09
-1.21051e-09
1.96929e-08
-2.45914e-08
6.02089e-08
3.78229e-09
4.06172e-08
1.56534e-07
-1.14608e-07
6.47363e-07
-4.50774e-07
3.25464e-07
-1.16229e-07
5.89168e-08
-1.31108e-09
9.90077e-10
-5.93729e-12
0
2.21485e-08
-5.66727e-13
-1.73871e-13
0
-1.97206e-12
0
-2.62089e-11
-4.06427e-09
-6.85375e-11
-1.18334e-12
-1.05137e-09
-8.93989e-12
-5.8728e-13
-4.47416e-10
-1.80485e-11
-8.86584e-09
-9.22926e-11
-3.72494e-07
-2.43011e-09
-2.18417e-06
-9.5841e-08
-2.67331e-06
-1.76046e-06
-1.99374e-06
-2.53308e-06
-1.60222e-07
-7.66109e-07
-6.81227e-08
-1.4166e-08
-1.1894e-08
3.2888e-08
-6.77249e-09
3.891e-08
2.82914e-08
-4.56448e-08
1.84449e-07
-1.20955e-07
1.1754e-07
-2.51771e-08
1.31177e-09
2.25306e-15
6.91253e-13
4.69398e-15
-5.26566e-12
1.96236e-14
0
-2.65257e-11
-2.14563e-13
-2.86609e-14
-1.29694e-12
-9.5217e-13
-3.13111e-10
-6.66581e-12
-3.70757e-10
-1.4343e-11
-1.12716e-11
-2.14684e-13
-1.13606e-11
-1.48894e-13
-6.25206e-12
-1.4424e-12
-4.26615e-11
-3.31664e-11
-2.29042e-09
-1.52171e-10
-9.78356e-08
-2.13003e-10
-7.26048e-07
-5.88662e-09
-1.12329e-06
-1.57992e-07
-2.83898e-07
-4.14917e-07
-1.32979e-07
-9.22843e-08
-2.68666e-08
1.95089e-10
-4.60289e-08
1.21891e-08
-9.35581e-09
-6.66379e-08
2.51771e-08
1.90723e-17
1.23326e-15
1.1801e-17
1.2353e-14
-8.70542e-18
1.15935e-14
-2.10791e-15
-3.8526e-13
-3.81886e-15
0
-1.73143e-12
-5.18682e-14
-1.0215e-14
-8.8221e-12
-9.48082e-14
-1.28615e-11
-1.15229e-13
-1.6031e-14
0
-2.04016e-13
-2.43395e-15
0
-1.0679e-14
-1.39455e-12
-3.09625e-14
-5.22268e-11
-3.3667e-12
-5.51028e-11
-4.67871e-11
-9.97606e-11
-7.51782e-11
-5.77234e-09
-9.66774e-11
-1.62906e-07
-8.30009e-10
-3.3169e-07
-3.03434e-08
-1.32217e-07
-1.13677e-08
-4.18286e-08
-1.80323e-08
-8.71918e-09
-7.4624e-18
1.37936e-17
-1.75455e-16
3.48451e-17
-1.68403e-17
-1.05014e-16
-3.11091e-18
4.26888e-16
1.96789e-17
1.18143e-15
-8.83006e-17
-1.02257e-14
-2.94495e-16
1.59154e-17
-3.74629e-14
-4.40278e-14
-2.28165e-16
-1.45315e-13
0
-1.15189e-13
0
-2.34185e-14
0
-2.62413e-15
9.57731e-16
-2.23999e-15
-1.82649e-16
-1.89023e-14
-3.71387e-15
-3.26771e-12
-1.00989e-13
-4.83035e-11
-4.1492e-15
-1.92017e-11
-8.47267e-15
-5.55127e-12
-6.91931e-15
-8.35556e-10
-3.97478e-15
-3.11799e-08
-6.34454e-15
-2.17759e-08
-9.49698e-17
-4.06996e-17
-9.69413e-17
-3.58284e-17
-6.88394e-17
-1.26211e-16
-1.41061e-16
-3.50797e-16
-3.47769e-17
-4.31405e-16
3.51575e-17
-2.61423e-16
5.6371e-17
-7.65774e-17
4.221e-17
-1.08973e-16
1.48862e-17
1.61872e-17
-9.80449e-16
-1.03931e-15
1.10806e-16
-4.156e-15
1.32133e-16
-3.98527e-15
1.65938e-16
-2.63095e-15
2.77025e-16
-1.65916e-15
3.05317e-16
-4.68004e-15
1.30551e-16
-5.67497e-14
-1.48303e-16
-5.52797e-16
-1.95202e-15
-5.95815e-16
-4.07299e-15
-5.28964e-16
-8.46223e-15
-4.39055e-16
-6.90782e-15
-2.83481e-16
-3.96816e-15
-2.01041e-16
-6.44464e-15
-2.06506e-16
-1.15152e-16
-2.55675e-16
-7.30708e-17
-4.38071e-16
-5.48801e-17
-7.21286e-16
-6.26823e-17
-6.30064e-16
-1.02848e-17
-3.46731e-16
2.12823e-17
-9.10458e-17
1.89703e-17
-4.13676e-17
7.79559e-18
-4.15353e-17
6.02939e-18
2.65284e-18
-1.49646e-16
-2.75994e-16
3.05847e-16
-4.89314e-16
4.42438e-16
-7.17411e-16
4.50174e-16
-1.07327e-15
4.9335e-16
-1.34823e-15
4.87406e-16
-1.63068e-15
3.43992e-16
-2.29692e-15
1.19576e-16
-6.29222e-15
-1.19369e-16
-1.36538e-14
-3.3448e-16
-1.06338e-14
-5.68554e-16
-7.1933e-15
-7.65591e-16
-1.04897e-14
-6.80207e-16
-2.0602e-16
-4.10738e-16
-2.09865e-16
-1.29583e-16
-2.4516e-16
-6.34222e-17
-2.85895e-16
-2.96453e-17
-2.68249e-16
4.93812e-18
-4.80663e-17
5.33796e-18
1.02966e-18
6.91379e-19
7.82901e-18
-3.42818e-20
3.6088e-18
-5.03028e-19
-4.11595e-18
-3.40243e-19
5.42537e-19
-1.84074e-17
-2.26995e-16
4.60394e-16
-4.82913e-16
6.47089e-16
-7.1011e-16
6.98166e-16
-9.69599e-16
6.9816e-16
-1.23757e-15
6.65633e-16
-1.42649e-15
5.38927e-16
-1.43624e-15
3.2769e-16
-1.5263e-15
8.37207e-17
-1.78e-15
-1.31384e-16
-2.02305e-15
-3.71655e-16
-2.04185e-15
-5.74673e-16
-1.44531e-15
-6.42449e-16
-7.48625e-16
-4.98387e-16
-3.60092e-16
-2.69833e-16
-1.49376e-16
-7.73356e-17
3.2827e-17
2.4032e-18
7.2677e-17
1.71624e-17
8.24485e-17
1.6299e-17
6.85119e-17
8.75499e-18
4.52239e-17
2.12219e-18
2.39071e-17
-6.0997e-19
8.71642e-18
-1.00604e-18
-6.63828e-19
-2.7002e-18
-1.62674e-16
5.44699e-16
-3.74302e-16
7.27717e-16
-5.58405e-16
8.16469e-16
-7.56091e-16
8.03574e-16
-9.92803e-16
7.71318e-16
-1.15186e-15
6.88371e-16
-1.20014e-15
5.01885e-16
-1.25538e-15
2.52028e-16
-1.53975e-15
4.23496e-17
-1.79301e-15
-1.58688e-16
-1.78781e-15
-3.29703e-16
-1.68916e-15
-4.22574e-16
-1.1228e-15
-3.46177e-16
-4.57607e-16
-1.75495e-16
1.00041e-17
-3.3854e-17
9.41483e-17
2.05555e-17
1.38153e-16
3.52457e-17
1.41593e-16
3.39114e-17
1.12237e-16
2.30728e-17
7.26745e-17
1.21037e-17
3.91991e-17
4.72944e-18
1.77584e-17
9.7331e-19
-2.64277e-19
5.46474e-18
-8.91361e-17
5.35725e-16
-2.20501e-16
6.77644e-16
-3.44191e-16
7.60498e-16
-4.69557e-16
7.63352e-16
-6.37344e-16
7.40972e-16
-7.86554e-16
7.12935e-16
-8.65061e-16
5.94455e-16
-8.31379e-16
3.67984e-16
-9.56811e-16
1.51531e-16
-1.1973e-15
-6.01987e-18
-1.20022e-15
-1.4924e-16
-9.55197e-16
-1.89199e-16
-5.22562e-16
-1.28615e-16
-1.24312e-16
-3.42512e-17
6.98699e-17
1.4283e-17
1.45379e-16
4.20433e-17
1.82259e-16
5.52431e-17
1.70926e-16
5.09221e-17
1.3023e-16
3.72458e-17
8.30959e-17
2.27107e-17
4.49503e-17
1.16324e-17
2.11727e-17
4.86185e-18
1.53759e-18
8.81143e-18
-2.53364e-17
4.2635e-16
-7.8311e-17
5.31427e-16
-1.37317e-16
5.85228e-16
-1.96675e-16
5.93182e-16
-2.6959e-16
5.73177e-16
-3.65497e-16
5.47796e-16
-4.32116e-16
4.94465e-16
-4.39526e-16
3.79141e-16
-3.94651e-16
1.75924e-16
-4.76639e-16
4.72065e-17
-4.57597e-16
-2.5238e-17
-2.74532e-16
-4.00698e-17
-7.89758e-17
-1.44159e-17
3.252e-17
7.81471e-18
1.04385e-16
3.22864e-17
1.56022e-16
5.38324e-17
1.69481e-16
6.19792e-17
1.48852e-16
5.60596e-17
1.09933e-16
4.21872e-17
6.94014e-17
2.71941e-17
3.76627e-17
1.5147e-17
1.80061e-17
7.23155e-18
2.91962e-18
8.75866e-18
1.18427e-17
2.44041e-16
8.65959e-18
3.31187e-16
-4.07501e-18
3.58945e-16
-1.81776e-17
3.54831e-16
-3.33284e-17
3.34621e-16
-5.26527e-17
2.99824e-16
-7.73727e-17
2.61161e-16
-9.83988e-17
2.12294e-16
-9.49135e-17
1.22653e-16
-9.30456e-17
3.81732e-17
-6.44202e-17
1.63145e-18
-2.0474e-17
-2.49351e-18
1.06816e-17
3.61516e-18
4.51821e-17
1.66898e-17
8.05268e-17
3.44912e-17
1.0196e-16
4.86373e-17
1.03157e-16
5.28192e-17
8.7246e-17
4.70013e-17
6.3103e-17
3.55624e-17
3.94919e-17
2.33753e-17
2.14646e-17
1.34709e-17
1.02558e-17
6.79717e-18
2.9711e-18
5.5583e-18
1.50414e-17
7.70475e-17
3.22047e-17
1.4091e-16
3.75085e-17
1.54604e-16
3.99801e-17
1.43763e-16
4.14254e-17
1.2696e-16
4.16911e-17
1.04632e-16
3.88426e-17
7.8124e-17
3.34906e-17
5.44882e-17
2.09364e-17
3.21297e-17
7.30081e-18
1.11412e-17
6.45824e-19
7.45626e-19
4.49126e-19
5.90902e-19
4.67004e-18
5.31779e-18
1.35267e-17
1.49168e-17
2.38316e-17
2.61406e-17
3.07342e-17
3.3943e-17
3.14337e-17
3.52632e-17
2.65838e-17
3.06479e-17
1.90567e-17
2.29409e-17
1.17482e-17
1.50645e-17
6.26382e-18
8.76423e-18
2.88717e-18
4.52863e-18
2.06605e-18
1.58193e-18
4.87801e-18
8.59573e-18
1.81996e-17
3.12999e-17
2.281e-17
3.6639e-17
2.5067e-17
3.11447e-17
2.55123e-17
2.45331e-17
2.42715e-17
1.77498e-17
2.05254e-17
1.09018e-17
1.59047e-17
5.62993e-18
1.014e-17
2.29914e-18
3.26469e-18
4.87225e-19
7.93443e-19
2.05955e-19
-2.87487e-18
3.87076e-19
-8.25575e-18
3.80083e-18
-1.28604e-17
9.58848e-18
-1.47153e-17
1.55007e-17
-1.35984e-17
1.89204e-17
-1.08326e-17
1.87538e-17
-7.90148e-18
1.57331e-17
-5.54936e-18
1.14715e-17
-3.84274e-18
7.39582e-18
-2.60261e-18
4.25927e-18
-1.68061e-18
2.20063e-18
1.01783e-18
-1.00853e-18
4.42435e-19
2.32349e-19
3.93271e-18
2.56844e-18
5.35342e-18
3.3813e-18
5.41454e-18
2.66628e-18
4.96257e-18
1.81808e-18
4.11902e-18
1.09756e-18
2.89078e-18
5.55282e-19
1.57403e-18
1.91331e-19
4.22833e-19
2.7151e-20
1.66835e-19
6.02242e-20
-2.29854e-18
-3.9233e-19
-8.06075e-18
8.22164e-20
-1.56815e-17
2.03026e-18
-2.24958e-17
4.88119e-18
-2.60768e-17
7.38833e-18
-2.5604e-17
8.47662e-18
-2.20545e-17
7.95349e-18
-1.709e-17
6.36374e-18
-1.21193e-17
4.45598e-18
-7.94751e-18
2.77682e-18
-4.84367e-18
1.55621e-18
-2.74629e-18
7.88531e-19
3.61159e-19
-1.4462e-18
1.12726e-20
1.87641e-21
2.95906e-19
6.41449e-20
4.4313e-19
9.93367e-20
4.20354e-19
7.64533e-20
3.39054e-19
4.70074e-20
2.40064e-19
2.44482e-20
1.32942e-19
9.80746e-21
2.50324e-20
1.21012e-21
9.67538e-21
4.06425e-21
-8.7939e-19
-2.35226e-19
-3.7217e-18
-4.76192e-19
-8.65798e-18
5.91234e-21
-1.43612e-17
9.09423e-19
-1.87679e-17
2.03834e-18
-2.03282e-17
2.85672e-18
-1.88921e-17
3.04885e-18
-1.55017e-17
2.67772e-18
-1.14691e-17
2.01863e-18
-7.76444e-18
1.34012e-18
-4.85791e-18
7.96461e-19
-2.82662e-18
4.28221e-19
-1.53464e-18
2.09493e-19
9.33258e-20
-7.78355e-19
1.18743e-22
9.23644e-24
8.2021e-21
6.31969e-22
1.37616e-20
1.21382e-21
1.31141e-20
9.79323e-22
9.83202e-21
6.0252e-22
5.99663e-21
2.97752e-22
1.59045e-21
6.06903e-23
6.71837e-22
3.18339e-22
-1.79845e-19
-5.97774e-20
-1.02383e-18
-2.12259e-19
-2.99259e-18
-2.8366e-19
-5.88084e-18
1.98745e-20
-8.73054e-18
3.57426e-19
-1.0439e-17
7.05508e-19
-1.04514e-17
8.94533e-19
-9.04329e-18
8.74458e-19
-6.94515e-18
7.09544e-19
-4.82989e-18
4.97741e-19
-3.08474e-18
3.09472e-19
-1.8273e-18
1.73269e-19
-1.01079e-18
8.82468e-20
-5.24408e-19
4.1123e-20
1.75552e-20
-2.5582e-19
7.54703e-25
4.86438e-24
1.04981e-22
1.21492e-23
2.16674e-22
9.06216e-24
2.26093e-22
7.92917e-24
1.664e-22
5.10975e-24
8.15479e-23
2.1222e-24
4.93174e-23
2.61066e-23
-1.56371e-20
-6.05034e-21
-1.62069e-19
-4.29369e-20
-6.62524e-19
-1.046e-19
-1.63427e-18
-1.02017e-19
-2.85072e-18
2.35643e-20
-3.82722e-18
1.21565e-19
-4.17475e-18
2.0013e-19
-3.83333e-18
2.2384e-19
-3.0591e-18
1.97055e-19
-2.17715e-18
1.45732e-19
-1.40923e-18
9.39638e-20
-8.41341e-19
5.40673e-20
-4.67888e-19
2.81843e-20
-2.44084e-19
1.34379e-20
-1.20035e-19
5.89251e-21
2.37939e-21
-5.58357e-20
-9.14713e-24
-2.71433e-23
1.08836e-24
1.91368e-24
1.78573e-24
4.50007e-24
1.94288e-24
3.82497e-24
1.42329e-24
2.36434e-24
1.57301e-24
9.23395e-25
-2.5021e-22
-1.091e-22
-1.22345e-20
-3.80462e-21
-8.78226e-20
-1.79158e-20
-3.00711e-19
-3.31879e-20
-6.53873e-19
-1.77755e-20
-1.02093e-18
1.30132e-20
-1.23713e-18
3.37722e-20
-1.22251e-18
4.5089e-20
-1.02101e-18
4.36065e-20
-7.45011e-19
3.4038e-20
-4.87177e-19
2.26483e-20
-2.90979e-19
1.3267e-20
-1.60969e-19
6.98558e-21
-8.33034e-20
3.35218e-21
-4.0619e-20
1.47927e-21
-1.87585e-20
6.0338e-22
2.2775e-22
-8.23643e-21
-7.87816e-24
-1.8832e-23
-9.8226e-24
-1.67225e-23
-8.72473e-24
-1.03101e-23
-7.2807e-24
-6.27709e-24
-6.09485e-24
-3.91643e-24
-5.74795e-24
-2.74626e-24
-2.25341e-22
-7.80389e-23
-5.80837e-21
-1.37558e-21
-3.38214e-20
-4.8296e-21
-1.00827e-19
-6.08023e-21
-1.9464e-19
5.80703e-22
-2.70658e-19
4.28649e-21
-2.93922e-19
7.1567e-21
-2.60757e-19
7.71416e-21
-1.96367e-19
6.37384e-21
-1.29864e-19
4.35921e-21
-7.73656e-20
2.57968e-21
-4.22835e-20
1.35804e-21
-2.14868e-20
6.47546e-22
-1.02536e-20
2.83073e-22
-4.62881e-21
1.14366e-22
-1.98753e-21
4.29096e-23
1.49678e-23
-8.15053e-22
-3.81176e-24
-6.49478e-24
-7.96219e-24
-1.06474e-23
-8.65666e-24
-8.13934e-24
-7.84144e-24
-5.36512e-24
-6.66075e-24
-3.35455e-24
-5.89311e-24
-2.15383e-24
-1.07498e-22
-2.72569e-23
-1.93763e-21
-3.08398e-22
-9.58022e-21
-7.40311e-22
-2.50579e-20
-1.22302e-22
-4.24498e-20
4.24136e-22
-5.23355e-20
9.00287e-22
-5.04205e-20
1.08915e-21
-3.97541e-20
9.53955e-22
-2.67612e-20
6.69116e-22
-1.59043e-20
3.97659e-22
-8.55637e-21
2.07389e-22
-4.24221e-21
9.71485e-23
-1.96322e-21
4.15273e-23
-8.56113e-22
1.63732e-23
-3.54349e-22
5.99661e-24
-1.39997e-22
2.04857e-24
6.53274e-25
-5.30284e-23
-1.28175e-24
-1.17586e-24
-3.56035e-24
-3.31858e-24
-4.21843e-24
-2.85845e-24
-3.9278e-24
-1.93503e-24
-3.32294e-24
-1.17829e-24
-2.83235e-24
-6.93475e-25
-3.38654e-23
-5.19185e-24
-4.67072e-22
-3.47132e-23
-1.98429e-21
-8.99539e-24
-4.49581e-21
3.5621e-23
-6.64248e-21
9.01356e-23
-7.19358e-21
1.21688e-22
-6.07587e-21
1.13108e-22
-4.21505e-21
8.12129e-23
-2.51349e-21
4.82292e-23
-1.3316e-21
2.47493e-23
-6.41617e-22
1.12931e-23
-2.86013e-22
4.67073e-24
-1.19439e-22
1.77436e-24
-4.71599e-23
6.24973e-25
-1.77299e-23
2.05425e-25
-6.38157e-24
6.32565e-26
1.81541e-26
-2.20842e-24
-3.166e-25
-9.97691e-27
-1.06931e-24
-5.15923e-25
-1.31804e-24
-5.11477e-25
-1.23087e-24
-3.47084e-25
-1.02237e-24
-1.94824e-25
-8.36893e-25
-9.34143e-26
-7.36948e-24
-3.09198e-25
-8.04086e-23
2.17677e-25
-2.89679e-22
2.49362e-24
-5.63579e-22
6.99129e-24
-7.25388e-22
1.0517e-23
-6.79994e-22
1.04368e-23
-4.97019e-22
7.68573e-24
-3.00713e-22
4.55526e-24
-1.57527e-22
2.29013e-24
-7.37775e-23
1.01082e-24
-3.15905e-23
4.01013e-25
-1.25626e-23
1.45368e-25
-4.69378e-24
4.87132e-26
-1.66247e-24
1.52134e-26
-5.62124e-25
4.45281e-27
-1.82468e-25
1.22383e-27
2.58751e-28
-5.67748e-26
-5.80833e-26
8.8429e-27
-2.26708e-25
7.5657e-28
-2.82533e-25
-1.83126e-26
-2.59626e-25
-1.20558e-26
-2.08552e-25
-1.39068e-27
-1.61994e-25
8.85307e-28
-1.09609e-24
1.02638e-26
-9.43853e-24
1.09577e-25
-2.88807e-23
3.80375e-25
-4.85127e-23
6.6863e-25
-5.33982e-23
7.27788e-25
-4.25867e-23
5.5714e-25
-2.66525e-23
3.31142e-25
-1.39506e-23
1.63056e-25
-6.37785e-24
6.94268e-26
-2.62254e-24
2.63039e-26
-9.90166e-25
9.04217e-27
-3.48462e-25
2.85887e-27
-1.15584e-25
8.39583e-28
-3.64422e-26
2.30695e-28
-1.09943e-26
5.96053e-29
-3.18647e-27
1.39307e-29
-3.09416e-29
-7.29482e-28
-8.08781e-27
2.10944e-27
-3.40467e-26
2.52415e-27
-4.19309e-26
1.51566e-27
-3.71519e-26
9.27015e-28
-2.82485e-26
6.04065e-28
-2.04099e-26
4.18134e-28
-1.08229e-25
1.92887e-27
-7.54652e-25
1.1977e-26
-1.962e-24
2.86387e-26
-2.78028e-24
3.6754e-26
-2.55631e-24
3.03463e-26
-1.70867e-24
1.83841e-26
-9.09666e-25
8.92792e-27
-4.09766e-25
3.67346e-27
-1.62584e-25
1.32659e-27
-5.83851e-26
4.30512e-28
-1.9336e-26
1.27648e-28
-5.9861e-27
3.49964e-29
-1.75019e-27
8.95063e-30
-4.8723e-28
2.1496e-30
-1.29984e-28
4.84043e-31
-3.20395e-29
-2.94108e-32
-2.91139e-29
1.5607e-28
-8.81403e-28
2.98605e-28
-3.74603e-27
4.52755e-28
-4.37593e-27
2.87208e-28
-3.65303e-27
1.6225e-28
-2.59999e-27
8.89493e-29
-1.7444e-27
4.97241e-29
-7.39344e-27
1.61833e-28
-4.13834e-26
7.14872e-28
-8.89581e-26
1.26438e-27
-1.0312e-25
1.21884e-27
-7.75312e-26
7.81538e-28
-4.31866e-26
3.81076e-28
-1.94863e-26
1.5262e-28
-7.53135e-27
5.26249e-29
-2.58394e-27
1.61042e-29
-8.06159e-28
4.46391e-30
-2.32673e-28
1.13687e-30
-6.29225e-29
2.68807e-31
-1.61021e-29
5.94777e-32
-3.93007e-30
1.23928e-32
-9.15074e-31
2.1699e-33
1.02695e-30
-7.23062e-32
-2.24284e-29
9.57458e-29
-7.63668e-29
3.04748e-29
-3.16442e-28
4.87039e-29
-3.43728e-28
2.94272e-29
-2.65005e-28
1.51018e-29
-1.73037e-28
7.25787e-30
-1.05457e-28
3.46328e-30
-3.5314e-28
8.3287e-30
-1.54674e-27
2.66679e-29
-2.6523e-27
3.50924e-29
-2.44821e-27
2.5738e-29
-1.49479e-27
1.30566e-29
-6.93409e-28
5.17584e-30
-2.64838e-28
1.71668e-30
-8.75035e-29
4.96153e-31
-2.58291e-29
1.28242e-31
-6.9624e-30
3.01732e-32
-1.74085e-30
6.54506e-33
-4.08528e-31
1.32151e-33
-9.08271e-32
2.50224e-34
-1.92823e-32
4.46987e-35
-3.49497e-33
-9.4721e-36
2.48659e-31
-4.32262e-32
-1.24577e-29
5.759e-29
-5.33699e-30
2.4143e-30
-2.10025e-29
3.78179e-30
-2.0844e-29
2.10116e-30
-1.45629e-29
9.63354e-31
-8.53744e-30
4.03903e-31
-4.61674e-30
1.64415e-31
-1.19401e-29
2.92154e-31
-3.9595e-29
6.73435e-31
-5.25498e-29
6.58561e-31
-3.81841e-29
3.72879e-31
-1.89778e-29
1.51225e-31
-7.32637e-30
4.89002e-32
-2.36148e-30
1.33831e-32
-6.63922e-31
3.21432e-33
-1.67504e-31
6.93585e-34
-3.86796e-32
1.36653e-34
-8.29482e-33
2.48764e-35
-1.67072e-33
4.22283e-36
-3.18973e-34
6.73478e-37
-5.81769e-35
1.01533e-37
8.48367e-35
-3.39621e-36
8.1542e-32
-1.35333e-32
-3.74479e-30
2.30901e-29
-3.0868e-31
1.55759e-31
-1.12513e-30
2.29002e-31
-1.00129e-30
1.14656e-31
-6.21452e-31
4.63494e-32
-3.20283e-31
1.67837e-32
-1.50189e-31
5.77826e-33
-2.93162e-31
7.57163e-33
-7.16221e-31
1.24557e-32
-7.22744e-31
9.09821e-33
-4.14152e-31
4.00828e-33
-1.6772e-31
1.29432e-33
-5.36923e-32
3.37679e-34
-1.44805e-32
7.51464e-35
-3.42224e-33
1.47474e-35
-7.2753e-34
2.60905e-36
-1.41719e-34
4.22581e-37
-2.56492e-35
6.3377e-38
-4.36133e-36
8.8791e-39
-7.03303e-37
1.17038e-39
-1.08432e-37
1.44283e-40
6.00467e-36
-2.41781e-36
1.92182e-32
-2.41907e-33
-5.98031e-31
4.99292e-30
-1.54053e-32
8.52259e-33
-5.00221e-32
1.13906e-32
-3.90448e-32
5.07815e-33
-2.11307e-32
1.79337e-33
-9.39859e-33
5.56131e-34
-3.75002e-33
1.60555e-34
-5.45437e-33
1.56077e-34
-9.63386e-33
1.83877e-34
-7.36397e-33
9.9792e-35
-3.32964e-33
3.3918e-35
-1.0879e-33
8.58756e-36
-2.84374e-34
1.77049e-36
-6.30176e-35
3.12657e-37
-1.22779e-35
4.88031e-38
-2.15578e-36
6.87664e-39
-3.47244e-37
8.87971e-40
-5.20102e-38
1.06285e-40
-7.32278e-39
1.19002e-41
-9.78085e-40
1.25584e-42
-1.23452e-40
-5.54984e-44
3.3917e-36
-1.14395e-36
2.53194e-33
-2.31104e-34
-4.73847e-32
5.91249e-31
-6.89937e-34
4.07992e-34
-1.88141e-33
4.83981e-34
-1.26074e-33
1.91698e-34
-5.86229e-34
5.89573e-35
-2.21953e-34
1.55658e-35
-7.42966e-35
3.73701e-36
-8.05528e-35
2.76699e-36
-1.02668e-34
2.32392e-36
-5.88452e-35
9.3385e-37
-2.07292e-35
2.38746e-37
-5.36213e-36
4.57577e-38
-1.11773e-36
7.16764e-39
-1.98156e-37
9.64315e-40
-3.09234e-38
1.14908e-40
-4.34973e-39
1.23772e-41
-5.61194e-40
1.22256e-42
-6.73221e-41
1.11942e-43
-7.59421e-42
9.58445e-45
-8.13365e-43
7.71625e-46
9.1442e-43
-1.05974e-43
9.59153e-37
-3.32961e-38
1.76426e-34