/*--------------------------------*- C++ -*----------------------------------*\
  =========                 |
  \\      /  F ield         | OpenFOAM: The Open Source CFD Toolbox
   \\    /   O peration     | Website:  https://openfoam.org
    \\  /    A nd           | Version:  9
     \\/     M anipulation  |
\*---------------------------------------------------------------------------*/
FoamFile
{
    format      ascii;
    class       volScalarField;
    location    "1.27";
    object      alpha.water;
}
// * * * * * * * * * * * * * * * * * * * * * * * * * * * * * * * * * * * * * //

dimensions      [0 0 0 0 0 0 0];

internalField   nonuniform List<scalar> 
2268
(
1
1
1
1
1
1
1
1
1
1
1
1
1
0.990073
0.975709
0.975708
0.975708
0.982032
0.993906
0.995005
0.995096
0.986294
0.984037
1
1
1
1
1
1
1
1
1
1
1
1
1
0.996422
0.976093
0.975906
0.994449
0.999951
0.999994
0.999994
0.999992
0.999991
0.984813
1
1
1
1
1
1
1
1
1
1
1
1
1
1
0.9932
0.995226
0.999813
0.99999
0.99993
0.999345
0.999734
0.99993
0.997159
1
1
1
1
1
1
1
1
1
1
1
1
0.999998
0.999997
0.999998
0.99999
0.999987
0.999967
0.99896
0.998683
0.999604
0.99992
0.999919
1
1
1
1
1
1
1
1
1
1
1
1
1
1
1
1
0.999994
0.999355
0.995432
0.999217
0.999919
0.999919
0.999919
1
1
1
1
1
1
1
1
1
1
1
1
1
1
1
1
0.999936
0.995406
0.991345
0.9996
0.999918
0.999902
0.9999
1
1
1
1
1
1
1
1
1
1
1
1
1
1
1
1
1
0.992871
0.991657
0.999651
0.999913
0.999875
0.99987
1
1
1
1
1
1
1
1
1
1
1
1
1
1
1
1
0.996195
0.97
0.996748
0.999862
0.999865
0.99982
0.999871
0.998116
0.998116
0.998112
0.998107
0.996799
0.990082
0.990065
0.97445
0.972894
0.979481
0.979629
0.979627
0.973097
0.943839
0.966214
0.96823
0.96823
0.96823
0.968229
0.998116
0.998111
0.998107
0.998108
0.998076
0.998043
0.964046
0.644218
0.575811
0.784613
0.976512
0.979629
0.979605
0.945116
0.968232
0.968231
0.96823
0.968229
0.968223
0.982853
0.960181
0.965198
0.991817
0.997456
0.997991
0.825974
0.382389
0.377714
0.377092
0.654966
0.930185
0.979583
0.978619
0.962821
0.885658
0.886269
0.947544
0.968223
0.970714
0.926673
0.918226
0.921163
0.987726
0.997931
0.767408
0.512989
0.512839
0.35812
0.357901
0.642147
0.892763
0.960508
0.931258
0.715129
0.715909
0.861746
0.968225
0.990527
0.990531
0.933554
0.877815
0.914628
0.849631
0.442487
0.7273
0.772525
0.632065
0.209868
0.200551
0.352686
0.75377
0.824334
0.715129
0.752187
0.939223
0.968231
0.990533
0.990527
0.990293
0.945514
0.554596
0.354054
0.346133
0.700116
0.773286
0.773284
0.401887
0.147611
0.145386
0.174404
0.440978
0.840859
0.964205
0.968266
0.968234
0.990397
0.990293
0.990236
0.989905
0.494323
0.346048
0.346363
0.677923
0.773284
0.773285
0.570308
0.145362
0.145361
0.145337
0.145372
0.693394
0.9683
0.968296
0.968254
0.858191
0.84547
0.986615
0.989611
0.655782
0.347514
0.346208
0.762659
0.773271
0.773284
0.724585
0.305303
0.145349
0.145416
0.145343
0.445785
0.965603
0.968268
0.968253
1
1
1
1
1
1
0.999999
1
1
1
0.999999
0.999998
0.999998
0.999998
1
0.999067
0.961345
0.958706
0.991726
0.999889
0.99989
0.999889
0.983038
1
1
1
1
1
1
0.999999
1
0.999999
1
1
0.999999
0.999998
0.999998
1
1
0.970555
0.95871
0.991781
0.975286
0.856212
0.664538
0.437158
0.999991
0.999989
0.99999
0.999992
0.999993
0.999995
0.999996
0.999996
0.999998
1
1
1
1
0.999999
1
1
0.998722
0.994402
0.923097
0.58938
0.206833
0.0361853
0.00335277
0.986687
0.990095
0.993898
0.995259
0.995111
0.994876
0.977278
0.932888
0.82503
0.880775
0.984559
1
1
1
1
1
0.972099
0.78613
0.319413
0.0202968
0.00330196
0.00269406
0.00243979
0.408549
0.440377
0.474055
0.489422
0.489223
0.494427
0.417273
0.365868
0.405669
0.325854
0.448399
0.705156
0.884191
0.946369
0.923478
0.771788
0.368035
0.0531201
0.00397921
0.00420705
0.00801769
0.0113868
0.00586044
1.24592e-07
1.24538e-07
1.24592e-07
1.25635e-07
1.86202e-07
9.53271e-06
0.0654809
0.257605
0.399613
0.143831
0.0886021
0.0891386
0.157258
0.223651
0.181285
0.0703694
0.00733662
0.00394522
0.0039616
0.0114508
0.0292749
0.0292749
0.0143081
1.24525e-07
1.24592e-07
1.27885e-07
1.8609e-07
1.48432e-05
0.000516101
0.0875635
0.244363
0.328621
0.262976
0.0864099
0.0160329
0.00490781
0.00428626
0.00401983
0.00390215
0.00391241
0.00393461
0.00641557
0.0289118
0.0290933
0.0254017
0.00489159
1.27891e-07
7.46629e-07
6.97815e-07
1.47515e-06
0.00225739
0.00872055
0.00313422
8.58578e-06
0.0424528
0.125683
0.137828
0.0942153
0.00863417
0.00391665
0.00388555
0.0038875
0.00391442
0.00393714
0.026167
0.0284317
0.00972178
2.67469e-09
0.000100327
8.22559e-08
1.05377e-06
1.74005e-06
9.8218e-05
0.000265898
7.52904e-08
7.50862e-08
2.57451e-07
1.88795e-06
0.0217837
0.104546
0.103463
0.0329886
0.00376457
0.00371619
0.00402591
0.0147515
0.0226568
0.0148631
-7.12618e-12
0
0
5.57558e-08
9.49509e-10
1.25699e-09
5.09256e-06
2.69084e-05
1.72144e-05
9.94322e-09
3.69975e-07
3.79205e-07
4.07724e-07
1.04254e-06
0.00245517
0.0278217
0.0337434
0.00375158
0.00367499
0.00502603
0.014297
0.0107323
-3.46945e-21
-2.02872e-10
-8.29213e-10
-5.0188e-10
2.96525e-09
6.20658e-10
9.43197e-08
8.21582e-07
8.14554e-07
6.61956e-10
9.63378e-09
2.40276e-10
1.18319e-06
3.18241e-06
1.404e-06
1.92704e-07
5.0817e-07
0.00427601
0.00775499
0.00372012
9.81412e-05
0.000546878
-1.30702e-12
-1.80315e-12
3.80556e-12
-1.21783e-11
-2.97126e-11
5.06616e-11
6.10666e-10
8.22403e-09
1.11536e-08
4.17444e-09
6.57205e-10
7.44339e-11
8.9184e-11
2.4425e-10
3.57729e-07
1.46948e-06
1.29837e-07
7.68719e-12
-5.46483e-09
0.000615189
0.000256204
7.58266e-13
7.52481e-13
2.86762e-12
8.19278e-12
8.92893e-12
5.28082e-12
1.40947e-12
4.33674e-12
3.85088e-11
2.00508e-10
3.0559e-10
1.77009e-10
1.04585e-10
6.65782e-11
5.10557e-10
1.7305e-09
1.30102e-11
1.00445e-11
7.69699e-12
6.02651e-12
3.50669e-12
3.44363e-12
3.4376e-12
4.28426e-12
9.3926e-12
1.22138e-11
1.07834e-11
4.00668e-12
1.22014e-12
7.53316e-13
1.10269e-12
2.87803e-11
3.89884e-11
3.98573e-11
4.74597e-11
5.68551e-11
6.02184e-11
6.46562e-11
1.05452e-10
2.38893e-10
3.40558e-10
2.35683e-10
1.43444e-10
1.90227e-10
3.45715e-12
3.44363e-12
4.12557e-12
4.64135e-12
3.49375e-12
4.04594e-13
-1.76874e-14
-1.41047e-13
-6.8373e-14
5.41726e-14
2.73364e-11
4.09072e-11
4.73838e-11
5.166e-11
5.69979e-11
5.98008e-11
5.78906e-11
5.04646e-11
4.85147e-11
4.98936e-11
5.0468e-11
3.89067e-11
2.24256e-11
1.02612e-11
4.4882e-12
1.39213e-12
-5.72386e-13
-1.27142e-12
-1.48077e-12
-1.28671e-12
-8.96259e-13
-5.02538e-13
-1.95443e-13
2.56506e-11
3.88092e-11
4.6651e-11
5.05754e-11
5.53546e-11
5.91224e-11
5.83797e-11
5.15117e-11
4.88699e-11
5.3463e-11
5.43348e-11
4.88499e-11
3.41908e-11
1.86058e-11
5.74191e-12
-2.09928e-13
-1.94667e-12
-2.86908e-12
-3.01818e-12
-2.49938e-12
-1.70957e-12
-9.81297e-13
-4.76461e-13
2.29301e-11
3.36398e-11
4.13926e-11
4.53731e-11
4.95368e-11
5.49265e-11
5.66174e-11
5.07377e-11
4.47715e-11
4.55908e-11
4.94197e-11
3.77503e-11
2.46258e-11
1.02252e-11
1.17394e-12
-1.91409e-12
-3.90427e-12
-4.90051e-12
-4.70108e-12
-3.73025e-12
-2.51096e-12
-1.44661e-12
-7.32048e-13
1.86994e-11
2.6387e-11
3.22834e-11
3.58369e-11
3.88947e-11
4.32712e-11
4.68221e-11
4.58634e-11
3.66067e-11
3.06982e-11
3.1766e-11
2.07937e-11
9.29708e-12
1.4883e-12
-1.38236e-12
-4.20181e-12
-6.08978e-12
-6.56815e-12
-5.86101e-12
-4.48537e-12
-2.9796e-12
-1.72223e-12
-8.86683e-13
1.27697e-11
1.79319e-11
2.15372e-11
2.36838e-11
2.5296e-11
2.6936e-11
2.89132e-11
2.99275e-11
2.48828e-11
1.71547e-11
1.23008e-11
5.51369e-12
8.45109e-13
-9.59441e-13
-3.58159e-12
-5.83334e-12
-6.97323e-12
-6.87062e-12
-5.82482e-12
-4.33009e-12
-2.84314e-12
-1.6494e-12
-8.54596e-13
6.08322e-12
9.53327e-12
1.13315e-11
1.19678e-11
1.22502e-11
1.22209e-11
1.18884e-11
1.14615e-11
9.69853e-12
6.26504e-12
2.4636e-12
3.16116e-13
-7.38629e-13
-2.5048e-12
-4.40782e-12
-5.78241e-12
-6.21727e-12
-5.73517e-12
-4.64996e-12
-3.35697e-12
-2.17124e-12
-1.25941e-12
-6.54738e-13
1.46827e-12
3.29558e-12
3.9934e-12
3.92753e-12
3.71126e-12
3.36387e-12
2.81085e-12
2.21345e-12
1.57915e-12
7.76208e-13
1.03654e-13
-4.38847e-13
-1.46174e-12
-2.73265e-12
-3.8599e-12
-4.47251e-12
-4.43114e-12
-3.85064e-12
-2.98391e-12
-2.08386e-12
-1.31962e-12
-7.59704e-13
-3.97348e-13
1.21589e-13
5.65241e-13
7.25844e-13
6.60293e-13
5.55408e-13
4.37152e-13
3.06892e-13
1.83908e-13
7.08817e-14
1.02515e-14
-1.86916e-13
-6.78858e-13
-1.38976e-12
-2.12276e-12
-2.63687e-12
-2.77537e-12
-2.5473e-12
-2.0793e-12
-1.53036e-12
-1.02529e-12
-6.29177e-13
-3.54888e-13
-1.84207e-13
2.76584e-15
3.62866e-14
5.18185e-14
4.45238e-14
3.32652e-14
2.23703e-14
1.33552e-14
4.04089e-15
1.50968e-16
-5.66977e-14
-2.38394e-13
-5.59221e-13
-9.46758e-13
-1.27418e-12
-1.42901e-12
-1.37756e-12
-1.17054e-12
-8.92832e-13
-6.19224e-13
-3.94121e-13
-2.31701e-13
-1.26348e-13
-6.40591e-14
2.00462e-17
8.02364e-16
1.34934e-15
1.16088e-15
8.23472e-16
5.14148e-16
1.85052e-16
1.53066e-18
-1.08204e-14
-5.95143e-14
-1.70633e-13
-3.33179e-13
-4.96662e-13
-6.0103e-13
-6.12223e-13
-5.40382e-13
-4.2344e-13
-2.9994e-13
-1.94522e-13
-1.16569e-13
-6.49811e-14
-3.38568e-14
-1.65404e-14
3.32393e-20
5.75025e-18
1.59772e-17
1.52074e-17
1.14966e-17
6.50891e-18
7.34108e-19
-9.67994e-16
-9.45661e-15
-3.70508e-14
-8.88406e-14
-1.52427e-13
-2.03223e-13
-2.21762e-13
-2.04756e-13
-1.6481e-13
-1.18446e-13
-7.73943e-14
-4.6576e-14
-2.60547e-14
-1.36408e-14
-6.71786e-15
-3.1239e-15
-4.52887e-18
0
3.67016e-20
5.48937e-20
5.26665e-20
1.35765e-20
-1.71487e-17
-7.69596e-16
-5.17369e-15
-1.68653e-14
-3.53899e-14
-5.39248e-14
-6.43459e-14
-6.30528e-14
-5.24842e-14
-3.82944e-14
-2.50832e-14
-1.5013e-14
-8.31827e-15
-4.30674e-15
-2.09799e-15
-9.66651e-16
-4.22982e-16
-4.45662e-18
-2.40931e-18
-1.36418e-18
-8.49195e-19
-5.77311e-19
-4.66236e-19
-1.62318e-17
-3.81591e-16
-2.06863e-15
-5.83636e-15
-1.08055e-14
-1.45678e-14
-1.54715e-14
-1.35145e-14
-1.00709e-14
-6.61318e-15
-3.91997e-15
-2.1336e-15
-1.0798e-15
-5.12914e-16
-2.30291e-16
-9.82609e-17
-4.00131e-17
-2.43904e-18
-2.18843e-18
-1.50018e-18
-1.00337e-18
-6.86025e-19
-5.15846e-19
-8.3018e-18
-1.35683e-16
-6.21144e-16
-1.52929e-15
-2.47116e-15
-2.93713e-15
-2.75124e-15
-2.12313e-15
-1.40584e-15
-8.2472e-16
-4.38954e-16
-2.1557e-16
-9.8857e-17
-4.27117e-17
-1.75074e-17
-6.84602e-18
-2.56541e-18
-9.2292e-19
-1.0999e-18
-8.16955e-19
-5.57797e-19
-3.77256e-19
-2.71562e-19
-2.84817e-18
-3.5429e-17
-1.38661e-16
-2.94276e-16
-4.12693e-16
-4.28731e-16
-3.50305e-16
-2.36641e-16
-1.38093e-16
-7.18504e-17
-3.40822e-17
-1.49777e-17
-6.17007e-18
-2.40348e-18
-8.9123e-19
-3.16275e-19
-1.07878e-19
-2.56326e-19
-3.72792e-19
-2.87331e-19
-1.95867e-19
-1.29385e-19
-8.89792e-20
-6.83867e-19
-6.69794e-18
-2.2129e-17
-4.01493e-17
-4.88355e-17
-4.37224e-17
-3.07781e-17
-1.80522e-17
-9.21299e-18
-4.21901e-18
-1.77076e-18
-6.91295e-19
-2.53761e-19
-8.83228e-20
-2.93437e-20
-9.35649e-21
-2.85896e-21
-5.30383e-20
-8.96681e-20
-6.98273e-20
-4.66952e-20
-2.97127e-20
-1.93078e-20
-1.13547e-19
-8.7412e-19
-2.44321e-18
-3.81238e-18
-3.9503e-18
-2.99726e-18
-1.79955e-18
-9.09541e-19
-4.03523e-19
-1.61609e-19
-5.95797e-20
-2.05063e-20
-6.65799e-21
-2.05537e-21
-6.07103e-22
-1.72227e-22
-3.85816e-23
-8.37254e-21
-1.53768e-20
-1.18346e-20
-7.61462e-21
-4.57269e-21
-2.75495e-21
-1.26555e-20
-7.86296e-20
-1.86121e-19
-2.44196e-19
-2.10657e-19
-1.33505e-19
-6.79529e-20
-2.94555e-20
-1.13023e-20
-3.93949e-21
-1.26959e-21
-3.83092e-22
-1.09268e-22
-2.96839e-23
-7.72716e-24
-1.85789e-24
4.28666e-24
-1.04318e-21
-1.94567e-21
-1.42097e-21
-8.6012e-22
-4.82538e-22
-2.69384e-22
-9.86861e-22
-4.91028e-21
-9.58574e-21
-1.02606e-20
-7.21773e-21
-3.80089e-21
-1.63476e-21
-6.06151e-22
-2.00501e-22
-6.05295e-23
-1.69478e-23
-4.45354e-24
-1.10838e-24
-2.63168e-25
-5.95997e-26
2.89379e-27
3.31523e-24
-1.04153e-22
-1.90419e-22
-1.29323e-22
-7.22604e-23
-3.71722e-23
-1.88383e-23
-5.44724e-23
-2.11802e-22
-3.29266e-22
-2.80073e-22
-1.59623e-22
-6.98292e-23
-2.5356e-23
-8.01576e-24
-2.27496e-24
-5.9176e-25
-1.43145e-25
-3.25513e-26
-7.01862e-27
-1.44534e-27
-2.5404e-28
8.60308e-27
2.20809e-24
-8.46477e-24
-1.47307e-23
-9.14749e-24
-4.63981e-24
-2.14697e-24
-9.66712e-25
-2.16004e-24
-6.35702e-24
-7.64123e-24
-5.10873e-24
-2.36559e-24
-8.59366e-25
-2.62739e-25
-7.0508e-26
-1.70623e-26
-3.79281e-27
-7.84975e-28
-1.52831e-28
-2.82266e-29
-4.98066e-30
9.97063e-31
3.24646e-27
9.9989e-25
-5.70663e-25
-9.22031e-25
-5.16271e-25
-2.34117e-25
-9.57492e-26
-3.7523e-26
-6.3404e-26
-1.3755e-25
-1.25652e-25
-6.61689e-26
-2.49235e-26
-7.49339e-27
-1.91285e-27
-4.30574e-28
-8.76066e-29
-1.63924e-29
-2.85713e-30
-4.68597e-31
-7.29383e-32
-1.08539e-32
2.83129e-31
8.89833e-28
2.50155e-25
-3.26427e-26
-4.7899e-26
-2.39412e-26
-9.59655e-27
-3.41905e-27
-1.14664e-27
-1.44802e-27
-2.27327e-27
-1.5724e-27
-6.52563e-28
-1.9797e-28
-4.85051e-29
-1.01532e-29
-1.88028e-30
-3.15351e-31
-4.87e-32
-7.01172e-33
-9.50489e-34
-1.22313e-34
-1.48709e-35
1.95991e-31
1.4048e-28
3.52109e-26
-1.62534e-27
-2.1278e-27
-9.44677e-28
-3.32058e-28
-1.01934e-28
-2.88725e-29
-2.72608e-29
-3.09017e-29
-1.60138e-29
-5.1692e-30
-1.23902e-30
-2.41565e-31
-4.03681e-32
-5.97607e-33
-8.0149e-34
-9.89783e-35
-1.13965e-35
-1.23597e-36
-1.27352e-37
4.80364e-39
6.91908e-32
1.2217e-29
2.52998e-27
-7.19812e-29
-8.32611e-29
-3.2905e-29
-1.011e-29
-2.65278e-30
-6.27366e-31
-4.53086e-31
-3.67827e-31
-1.41838e-31
-3.46155e-32
-6.31269e-33
-9.39576e-34
-1.20135e-34
-1.36273e-35
-1.40134e-36
-1.32683e-37
-1.17051e-38
-9.71527e-40
-7.63712e-41
1.03146e-38
1.62754e-33
3.95114e-31
4.72195e-29
-2.87031e-30
-2.94339e-30
-1.04618e-30
-2.81248e-31
-6.28675e-32
-1.23365e-32
-7.05686e-33
-4.16451e-33
-1.14729e-33
-2.00414e-34
-2.61565e-35
-2.78349e-36
-2.54275e-37
-2.06029e-38
-1.5138e-39
-1.02469e-40
-6.46688e-42
-3.84218e-43
-2.13403e-44
5.34022e-39
1.15224e-35
4.05042e-33
8.75695e-31
-1.01801e-31
-9.56959e-32
-3.09764e-32
-7.39871e-33
-1.41463e-33
-2.28261e-34
-1.10578e-34
-4.78393e-35
-8.71284e-36
-9.80574e-37
-8.12711e-38
-5.43508e-39
-3.09528e-40
-1.55405e-41
-7.04367e-43
-2.93196e-44
-1.1356e-45
-4.13601e-47
1.52514e-47
1.69617e-39
2.6995e-37
9.30453e-36
5.95016e-35
-3.15177e-33
-2.92715e-33
-9.0787e-34
-1.95866e-34
-3.22989e-35
-4.23535e-36
-1.92093e-36
-6.05789e-37
-5.9549e-38
-3.14222e-39
-1.1235e-40
-3.07734e-42
-6.93863e-44
-1.34791e-45
-2.32641e-47
-3.64625e-49
-5.27528e-51
-7.13568e-53
-9.11859e-55
1.13979e-53
1.62704e-47
6.75838e-45
7.30979e-44
0.954042
0.935305
0.909048
0.904613
0.327218
0.271704
0.178647
0.103029
0.00243844
0.00244035
0.00243953
0.00610883
0.00244075
0.00243953
0.00243915
0.00243953
0.00243212
0.0024392
0.0024355
0.00697352
0.00708597
0.0157587
0.016231
0.0162399
0.0144252
0.0162384
0.0162403
0.0162384
0.00325221
0.00487232
0.00160076
0.000535016
4.95158e-07
2.61071e-07
3.55293e-07
2.48134e-06
1.74696e-08
9.38565e-09
2.92935e-08
7.88083e-08
2.90434e-10
3.17303e-10
4.45323e-10
7.72747e-10
1.23653e-11
2.04008e-11
3.25427e-11
8.1468e-11
4.28636e-12
1.01117e-11
1.69125e-11
2.17459e-11
7.11814e-13
3.92976e-12
9.54936e-12
1.2833e-11
2.42745e-14
5.26647e-13
1.69595e-12
1.7429e-12
-1.58722e-13
-2.47272e-14
1.5059e-14
1.31018e-13
-3.30837e-13
-1.71041e-13
-6.84749e-14
0
-4.70266e-13
-2.64248e-13
-1.36081e-13
-5.92702e-14
-5.10911e-13
-3.03388e-13
-1.69219e-13
-8.50397e-14
-4.22093e-13
-2.61268e-13
-1.54123e-13
-8.60317e-14
-2.64028e-13
-1.68122e-13
-1.02915e-13
-6.05471e-14
-1.23022e-13
-7.92013e-14
-4.93073e-14
-2.97112e-14
-4.24223e-14
-2.72131e-14
-1.69553e-14
-1.02748e-14
-1.07455e-14
-6.78687e-15
-4.17733e-15
-2.50946e-15
-1.97205e-15
-1.2136e-15
-7.29613e-16
-4.29203e-16
-2.57133e-16
-1.52671e-16
-8.87137e-17
-5.05321e-17
-2.32141e-17
-1.31706e-17
-7.3215e-18
-3.99428e-18
-1.40711e-18
-7.55299e-19
-3.97413e-19
-2.05121e-19
-5.53662e-20
-2.77544e-20
-1.35141e-20
-6.22305e-21
-1.33135e-21
-5.59742e-22
-1.48405e-22
1.38302e-22
-5.0886e-25
5.13758e-23
1.57207e-22
3.06532e-22
1.65802e-23
3.62194e-23
8.80918e-23
1.73092e-22
1.14727e-23
2.591e-23
6.33812e-23
1.33445e-22
7.77113e-24
1.74625e-23
4.4421e-23
1.13452e-22
3.55454e-24
7.92003e-24
2.40728e-23
8.95646e-23
8.98212e-25
2.06981e-24
9.77602e-24
5.01931e-23
1.30387e-25
3.46164e-25
3.4949e-24
2.12495e-23
1.02588e-26
3.80788e-26
8.46142e-25
4.97156e-24
2.52154e-28
2.02749e-27
7.16651e-26
3.33466e-25
7.91723e-30
1.05535e-28
2.94372e-27
8.8362e-27
5.76729e-35
3.98932e-34
1.84414e-32
3.21387e-32
3.14803e-44
2.84265e-45
6.7832e-47
0
0.401407
0.340606
0.614237
0.877615
0.879451
0.699953
0.544308
0.554774
0.617632
0.732244
0.731374
0.729943
0.618652
0.479281
0.480919
0.472781
0.371679
0.446919
0.794364
0.0423471
0.0636811
0.127805
0.282069
0.416826
0.356737
0.203538
0.181405
0.180928
0.235436
0.40811
0.492812
0.616899
0.615813
0.444038
0.127189
0.0766357
0.0817417
0.197086
0.025099
0.0277445
0.0339985
0.0788151
0.158758
0.20893
0.237991
0.238046
0.125052
0.00996206
0.0445511
0.131162
0.15085
0.113902
0.0832685
0.077504
0.0764214
0.0621858
0.0471632
0.00289409
0.00561047
0.0126602
0.0350756
0.0961953
0.19817
0.23806
0.237991
0.137076
0.00998774
0.00994735
0.0103344
0.101413
0.185268
0.185247
0.185244
0.165254
0.104765
0.0467989
0.00510659
0.000356733
0.00033943
0.000338455
0.00033943
0.021698
0.0508157
0.0408849
0.049934
0.0102928
0.114573
0.185055
0.185129
0.185247
0.185168
0.185128
0.151379
0.0467989
0.046783
0.0138019
0.000687318
0.000338455
0.000338455
0.000445827
0.000535675
0.000822328
0.00648692
0.00661585
0.00874224
0.115716
0.184978
0.18503
0.182552
0.185052
0.184584
0.172694
0.0467875
0.046795
0.00701465
0.000762665
0.000490414
0.000336353
0.00439313
0.0235972
0.0237869
0.00686231
0.00657716
0.00667862
0.0289324
0.0567736
0.0556678
0.0313122
0.05806
0.107498
0.109987
0.130345
0.126379
0.000620444
0.000492079
0.000171918
0.000330943
0.000805917
0.0149131
0.0239871
0.0221535
0.0065939
0.00659467
0.00660554
0.00693991
0.0029812
5.2148e-05
4.99643e-05
4.5744e-05
4.50114e-05
0.0176897
0.0160478
9.1123e-07
7.34558e-06
7.76993e-06
8.54249e-05
2.43339e-05
0.00113103
0.0169766
0.023426
0.0228964
0.0162065
0.0230215
0.0249393
0.021356
0.00673857
0.000268357
4.49209e-05
4.40004e-05
4.25699e-05
4.19321e-05
5.64095e-08
8.10588e-08
2.26889e-07
2.23106e-06
7.04894e-06
1.94458e-05
0.000499286
0.0109679
0.0237309
0.0254303
0.0254303
0.0254303
0.0237697
0.00992191
0.000240181
0.000122415
7.55436e-05
0.000106309
4.12206e-05
2.65323e-09
2.11389e-08
8.02601e-08
2.53077e-06
2.29652e-05
7.47844e-05
0.000101165
0.000170404
0.00294074
0.00818591
0.00945988
0.00606846
1.85873e-06
0.000914856
0.000890029
0.00016494
0.00026661
0.000265181
4.08053e-05
3.94902e-10
1.55812e-08
1.5083e-07
2.95678e-06
1.4427e-05
2.94481e-05
2.68932e-05
1.95439e-05
6.84414e-06
4.30605e-06
1.91595e-06
1.85873e-06
1.83834e-06
1.85873e-06
0.000171801
0.000253213
0.000293605
0.000141475
1.89875e-06
9.08668e-11
1.9737e-08
7.67105e-07
1.88227e-06
1.58062e-06
8.21445e-07
1.68066e-07
1.28801e-07
5.07224e-07
4.56898e-06
8.2027e-06
5.37446e-06
1.80364e-06
8.19275e-06
0.000141504
0.000300069
0.00026744
5.63942e-10
5.63943e-10
8.33616e-11
3.74748e-09
2.44275e-06
8.16254e-06
7.88825e-06
4.17756e-06
1.28801e-07
1.22382e-07
5.54665e-07
2.36136e-06
1.64679e-06
1.53537e-07
3.36227e-07
0.000147981
0.00029578
0.000273654
2.92043e-06
5.63943e-10
5.63942e-10
5.2264e-11
2.7875e-09
1.35801e-06
8.42301e-06
8.74749e-06
8.74749e-06
2.25723e-06
1.15535e-07
1.8427e-07
1.13929e-07
1.12769e-07
1.12769e-07
7.81094e-06
0.000192534
0.000208237
9.31021e-07
5.64339e-10
5.63946e-10
5.63943e-10
6.46448e-12
4.89093e-10
4.18748e-08
1.49532e-06
7.99064e-06
8.66738e-06
5.44752e-07
1.13085e-07
1.12783e-07
1.12769e-07
1.12769e-07
1.12769e-07
1.37251e-05
2.33881e-05
5.33658e-09
5.32711e-09
6.40573e-09
5.89012e-10
5.63946e-10
3.46918e-14
1.03747e-12
6.637e-12
2.62892e-09
5.3978e-07
1.87882e-06
1.46198e-06
1.18678e-07
1.12775e-07
1.12779e-07
3.41826e-07
1.42043e-06
3.57193e-06
1.1989e-08
1.19556e-08
1.15951e-08
1.16765e-08
7.14678e-10
5.64052e-10
-8.9899e-15
2.74807e-16
6.20707e-14
2.54906e-12
3.95683e-11
3.31426e-08
7.47342e-07
7.74825e-07
1.69655e-07
1.12775e-07
7.40538e-07
1.43368e-06
3.88069e-07
6.91312e-08
1.68023e-08
1.76024e-08
8.86358e-09
6.82157e-10
5.66843e-10
-2.69044e-14
-3.3229e-15
0
1.24017e-14
9.14642e-13
3.70239e-12
1.53585e-08
3.12426e-07
2.04024e-07
1.25513e-07
3.61931e-07
3.98886e-07
9.7779e-08
3.11212e-10
3.10425e-10
1.10639e-08
5.84571e-10
6.77925e-10
6.82345e-10
-2.80708e-14
-7.30246e-15
-9.59567e-16
6.26539e-15
7.69016e-13
3.20078e-12
4.59828e-12
1.12389e-09
2.72683e-07
3.63147e-07
2.4898e-07
6.1263e-09
3.18807e-10
3.18076e-10
3.09994e-10
1.50536e-10
1.68736e-10
9.03368e-07
8.4562e-08
-2.12909e-14
-6.64195e-15
-1.74483e-15
-3.07615e-18
2.42392e-14
6.37246e-13
4.78281e-12
7.17713e-13
1.19809e-07
3.63797e-07
3.63788e-07
1.14935e-07
9.93207e-10
6.51363e-10
3.93831e-10
1.49425e-10
2.0289e-09
1.88677e-06
7.86641e-07
-1.09494e-14
-3.71877e-15
-1.13258e-15
-2.34717e-16
2.46015e-15
4.98678e-14
6.0909e-13
6.14953e-13
7.17713e-13
1.41021e-07
2.8181e-07
1.21489e-07
1.33167e-09
5.85713e-10
3.70721e-10
1.48301e-10
5.70194e-08
1.88696e-06
1.30961e-06
-3.85272e-15
-1.35947e-15
-4.43544e-16
-9.36442e-17
9.9313e-16
3.0477e-14
3.09045e-14
5.81827e-12
5.88514e-10
7.04802e-10
6.95983e-09
1.32595e-08
5.02679e-09
1.15874e-09
2.57997e-10
1.47748e-10
5.06944e-07
1.88677e-06
1.64798e-06
-9.34942e-16
-3.32198e-16
-1.09617e-16
-1.15603e-17
4.96232e-16
6.28885e-15
4.2462e-14
2.12673e-12
2.09135e-10
2.27223e-10
3.48622e-10
4.56967e-10
5.76567e-10
3.20421e-10
1.4761e-10
1.47704e-10
6.80474e-07
1.82874e-06
3.74745e-06
-1.55748e-16
-5.43137e-17
-1.63227e-17
1.95121e-17
3.42674e-16
2.9552e-15
3.11563e-14
4.15641e-13
1.07653e-11
3.60985e-11
1.36242e-10
1.74358e-10
1.68771e-10
1.57261e-10
1.47516e-10
1.4761e-10
1.71384e-07
3.91264e-07
5.22754e-05
-1.75464e-17
-5.79625e-18
-6.17439e-19
2.95342e-17
3.31098e-16
2.64682e-15
1.98094e-14
1.52876e-13
1.05899e-12
6.49452e-12
3.0787e-11
6.33109e-11
9.06108e-11
1.31347e-10
1.47627e-10
1.50631e-10
1.4969e-10
1.4974e-10
6.92543e-05
-1.30347e-18
-3.31226e-19
1.99645e-18
3.48129e-17
3.6281e-16
2.72889e-15
1.70201e-14
9.81951e-14
5.29537e-13
2.5163e-12
9.60099e-12
2.66841e-11
5.3645e-11
1.00834e-10
1.53669e-10
1.64383e-10
1.49667e-10
1.49752e-10
6.92623e-05
-5.99412e-20
6.92648e-20
2.5416e-18
3.81255e-17
3.95572e-16
3.01679e-15
1.78125e-14
8.92344e-14
3.94401e-13
1.54658e-12
5.47327e-12
1.60636e-11
3.93939e-11
9.37081e-11
1.65115e-10
1.6649e-10
1.4971e-10
1.49783e-10
6.84203e-05
-6.12634e-22
1.07177e-19
2.60646e-18
3.84203e-17
4.00864e-16
3.18457e-15
1.95739e-14
9.66283e-14
4.10908e-13
1.54877e-12
5.3447e-12
1.55436e-11
3.92797e-11
1.0239e-10
2.08121e-10
1.57464e-10
1.49783e-10
1.49817e-10
7.00387e-05
2.71482e-21
1.13442e-19
2.43321e-18
3.52277e-17
3.79262e-16
3.27028e-15
2.20696e-14
1.16034e-13
4.96928e-13
1.83069e-12
6.13195e-12
1.79774e-11
4.98786e-11
1.46347e-10
3.29346e-10
2.28766e-10
1.49817e-10
1.63414e-05
7.03773e-05
8.67327e-21
5.95689e-19
5.66963e-18
4.57594e-17
4.33242e-16
3.92835e-15
3.04076e-14
1.7842e-13
7.94511e-13
2.89844e-12
9.52765e-12
3.03092e-11
8.94731e-11
2.69225e-10
3.70994e-10
3.16639e-10
1.50126e-10
2.79788e-05
7.03773e-05
7.04945e-20
1.31649e-17
2.04795e-16
5.57391e-16
1.71436e-15
9.09659e-15
6.07733e-14
3.96313e-13
2.18715e-12
9.21453e-12
2.90367e-11
6.35675e-11
1.10815e-10
2.59215e-10
3.12474e-10
1.72819e-10
1.50931e-10
2.57675e-05
7.03773e-05
2.35305e-19
8.34107e-17
2.04832e-15
8.15534e-15
2.32732e-14
9.87292e-14
3.84742e-13
1.30036e-12
4.73551e-12
1.72543e-11
3.34611e-11
3.50626e-11
3.84727e-11
6.89444e-11
6.92548e-11
3.62212e-10
1.51096e-10
9.2806e-06
7.03752e-05
3.88828e-19
2.0546e-16
6.73212e-15
4.67364e-14
1.73425e-13
7.80705e-13
2.98362e-12
7.05185e-12
1.31935e-11
1.90451e-11
1.89923e-11
9.54632e-11
2.4109e-10
6.61973e-10
6.89693e-09
1.16744e-08
1.51996e-10
6.15294e-06
5.04104e-05
4.24647e-19
2.78169e-16
1.19262e-14
1.35332e-13
6.59523e-13
3.15897e-12
1.20329e-11
1.91223e-11
1.75722e-11
1.75685e-11
7.74796e-10
9.03697e-09
9.03571e-09
5.50955e-09
1.66314e-08
1.65962e-08
1.93996e-10
1.29971e-05
5.24037e-05
1.68283e-19
2.44529e-16
1.44268e-14
2.27111e-13
1.57721e-12
7.76646e-12
3.00505e-11
3.34907e-11
2.08654e-11
1.75808e-11
7.55938e-09
1.33415e-08
1.33408e-08
6.13769e-09
1.01439e-08
1.34935e-08
2.71523e-10
2.45063e-05
6.41612e-05
4.50742e-20
5.61679e-17
8.95796e-15
2.60684e-13
2.32938e-12
1.39822e-11
5.56544e-11
7.66791e-11
5.60546e-11
1.76126e-11
5.70821e-09
1.2908e-08
8.85071e-09
4.9933e-09
4.84054e-09
5.49222e-09
3.34554e-10
2.85097e-05
7.09392e-05
6.9067e-21
9.41984e-18
2.08945e-15
1.43914e-13
2.31566e-12
1.74202e-11
8.6959e-11
1.53301e-10
1.43084e-10
1.98573e-10
1.38024e-09
2.94363e-09
2.71655e-09
2.71708e-09
2.71656e-09
4.48382e-09
3.66214e-10
4.23495e-05
7.09882e-05
2.76973e-22
8.1352e-19
2.97485e-16
3.09644e-14
8.56188e-13
1.18653e-11
8.29104e-11
2.3829e-10
2.49952e-10
2.25783e-10
2.09736e-10
2.08066e-10
1.80599e-08
6.91568e-07
2.57349e-07
4.51076e-09
1.87247e-06
7.04597e-05
7.09898e-05
5.03259e-24
5.21616e-20
1.92183e-17
3.77772e-15
2.12528e-13
3.38739e-12
4.81147e-11
2.48502e-10
3.1909e-10
2.47189e-10
2.08066e-10
2.07866e-10
6.40294e-07
8.25966e-07
7.7758e-07
5.69168e-09
2.42665e-05
7.09895e-05
7.09885e-05
4.74991e-32
4.90043e-25
6.52626e-20
1.16747e-16
2.02998e-14
6.32138e-13
1.10563e-11
1.89633e-10
3.19153e-10
3.19152e-10
2.07817e-10
2.07866e-10
4.50809e-07
8.25871e-07
5.29357e-07
9.89104e-09
1.40668e-05
7.09083e-05
4.44387e-05
3.32582e-42
1.73259e-34
7.15721e-26
1.88405e-20
4.85409e-17
1.15637e-14
1.00523e-12
3.33704e-11
1.69414e-10
2.91776e-10
2.31464e-10
2.07808e-10
1.52331e-08
2.99491e-07
1.25833e-07
7.73409e-08
5.62218e-07
1.85807e-05
1.89007e-05
)
;

boundaryField
{
    leftWall
    {
        type            zeroGradient;
    }
    rightWall
    {
        type            zeroGradient;
    }
    lowerWall
    {
        type            zeroGradient;
    }
    atmosphere
    {
        type            inletOutlet;
        inletValue      uniform 0;
        value           nonuniform List<scalar> 
46
(
0
0
0
0
0
0
0
0
0
0
0
0
0
0
0
0
0
0
0
0
0
0
0
0
0
0
0
0
0
0
0
0
0
1.00523e-12
3.33704e-11
1.69414e-10
2.91776e-10
2.31464e-10
2.07808e-10
1.52331e-08
2.99491e-07
1.25833e-07
7.73409e-08
5.62218e-07
1.85807e-05
1.89007e-05
)
;
    }
    defaultFaces
    {
        type            empty;
    }
}


// ************************************************************************* //
