/*--------------------------------*- C++ -*----------------------------------*\
  =========                 |
  \\      /  F ield         | OpenFOAM: The Open Source CFD Toolbox
   \\    /   O peration     | Website:  https://openfoam.org
    \\  /    A nd           | Version:  9
     \\/     M anipulation  |
\*---------------------------------------------------------------------------*/
FoamFile
{
    format      ascii;
    class       volScalarField;
    location    "2.06";
    object      nut;
}
// * * * * * * * * * * * * * * * * * * * * * * * * * * * * * * * * * * * * * //

dimensions      [0 2 -1 0 0 0 0];

internalField   nonuniform List<scalar> 
2268
(
3.70864e-05
4.22473e-05
5.25038e-05
6.00847e-05
6.62045e-05
7.1363e-05
7.58354e-05
7.97896e-05
8.33122e-05
8.64829e-05
8.93413e-05
9.18882e-05
9.40917e-05
9.58988e-05
9.72442e-05
9.81334e-05
9.83801e-05
9.76058e-05
9.52428e-05
9.1518e-05
8.47433e-05
7.12858e-05
4.50413e-05
8.15905e-05
0.000357468
0.000508013
0.000614577
0.00069692
0.000762656
0.000816277
0.000860775
0.000898709
0.000931528
0.000960041
0.000984542
0.00100504
0.00102134
0.00103254
0.00103504
0.00102941
0.00100863
0.000963733
0.000909858
0.000833778
0.000633552
0.00014941
9.60958e-05
0.000626644
0.000967335
0.00121231
0.00140081
0.00154983
0.0016697
0.00176794
0.00185005
0.00191952
0.00197842
0.00202764
0.00206738
0.00209729
0.00211573
0.00211732
0.00210002
0.00205249
0.00195926
0.00182088
0.00158797
0.00109107
0.000181114
0.000107674
0.000829245
0.0013443
0.00171715
0.00200358
0.00222946
0.00241068
0.0025585
0.00268093
0.00278336
0.00286906
0.00293962
0.00299554
0.00303638
0.00305993
0.00306003
0.00303098
0.00295795
0.00281859
0.00258882
0.00218772
0.00142713
0.000209032
0.000118245
0.000990609
0.00165913
0.00214271
0.00251273
0.00280385
0.003037
0.0032266
0.00338283
0.00351265
0.00362035
0.00370824
0.00377722
0.00382687
0.00385451
0.00385332
0.0038141
0.00371894
0.00353852
0.00322717
0.00267803
0.00168963
0.000236638
0.000128052
0.00112831
0.0019296
0.00250746
0.00294724
0.00329211
0.00356769
0.00379119
0.00397464
0.00412631
0.00425139
0.00435287
0.00443212
0.00448882
0.00451997
0.00451818
0.00447109
0.00435868
0.00414608
0.00377225
0.00310807
0.00192642
0.000265007
0.000137426
0.00125168
0.00216797
0.00282596
0.00332379
0.00371259
0.00402233
0.00427278
0.00447764
0.00464629
0.00478472
0.00489656
0.00498374
0.00504611
0.00508036
0.00507857
0.00502659
0.00490284
0.00466979
0.00425801
0.00352006
0.00217766
0.000300555
0.000146689
0.00136559
0.00238259
0.00310934
0.00365583
0.00408058
0.00441766
0.00468927
0.00491069
0.00509228
0.0052407
0.00536027
0.00545348
0.00552041
0.00555749
0.00555636
0.00550245
0.0053735
0.00513283
0.00471044
0.00395287
0.00251185
0.000362656
5.22996e-05
7.38197e-05
8.8621e-05
9.44109e-05
9.57671e-05
9.53314e-05
9.25105e-05
8.65676e-05
7.87545e-05
7.25776e-05
7.04649e-05
6.87814e-05
6.56681e-05
6.2294e-05
6.05537e-05
5.98597e-05
5.59309e-05
4.74595e-05
5.53219e-05
0.000171262
0.000504695
0.000704867
0.000800947
0.000839005
0.000837312
0.000804295
0.000730514
0.000618306
0.000581979
0.000605452
0.000631273
0.000619421
0.000588342
0.000586727
0.000579549
0.000515712
0.000367481
0.000119667
0.000190173
0.000841688
0.00122885
0.00144192
0.00153775
0.00155024
0.00149589
0.00137351
0.00120466
0.00114166
0.00117071
0.00120056
0.00118073
0.00113878
0.00111847
0.00106969
0.000920414
0.000617364
0.000136307
0.000201192
0.00106788
0.00161122
0.00192915
0.0020843
0.00212098
0.00206421
0.00192433
0.00173996
0.00165812
0.00167027
0.00168436
0.00164992
0.0015931
0.00153857
0.00143776
0.00121334
0.000795783
0.000149917
0.000210573
0.00123093
0.00191036
0.00231543
0.00252316
0.00258699
0.00254055
0.00240129
0.00222316
0.00212983
0.00211613
0.00210525
0.00204993
0.00197027
0.00187543
0.00172028
0.00143054
0.00092397
0.000161402
0.0002267
0.00136816
0.00216974
0.0026411
0.00289016
0.00297926
0.00294736
0.00282068
0.00265879
0.00255916
0.00251845
0.00247816
0.00239724
0.00228803
0.00214994
0.00194048
0.00159253
0.00101684
0.000171046
0.000258636
0.00152579
0.00242154
0.00293371
0.00321013
0.00331988
0.00330274
0.00319452
0.00305195
0.00294886
0.00288302
0.0028118
0.00270216
0.0025591
0.00237583
0.00211277
0.0017104
0.00108128
0.000179089
0.000322527
0.00175672
0.00268812
0.00321143
0.00349932
0.00362168
0.00362
0.00353184
0.00340763
0.00330194
0.00321346
0.00311195
0.00297182
0.00279238
0.00256281
0.00224666
0.00179181
0.00111914
0.000185556
0.000161235
0.00153455
0.0026916
0.00351165
0.00412232
0.00459289
0.0049636
0.00526047
0.0055012
0.00569755
0.00585718
0.00598545
0.00608583
0.00615874
0.00620024
0.00620164
0.00614898
0.0060217
0.00578797
0.00538976
0.00471219
0.00356961
0.00186909
0.000182903
0.00175093
0.00306543
0.00398655
0.00466146
0.00517297
0.00557027
0.00588525
0.00613909
0.00634501
0.00651149
0.00664506
0.00675022
0.00682745
0.00687256
0.00687787
0.00683331
0.00672612
0.00653702
0.00623056
0.00573917
0.00497391
0.00388643
0.000208096
0.00196637
0.0034296
0.00443918
0.00516088
0.00569458
0.00610125
0.0064205
0.00667736
0.00688581
0.00705425
0.00718967
0.00729604
0.00737261
0.00741538
0.00742083
0.00738719
0.00731029
0.00717333
0.00695084
0.00659966
0.00607858
0.0053884
0.000242166
0.00220212
0.00383018
0.00491461
0.00566056
0.00619339
0.00658873
0.00689709
0.00714789
0.00735466
0.0075238
0.00766152
0.0077657
0.00783232
0.00785968
0.007856
0.00784065
0.00782057
0.00773775
0.00756055
0.00726895
0.00685282
0.00634263
0.000312194
0.00246826
0.00424062
0.00536627
0.00610663
0.0066173
0.00698846
0.00726964
0.00749477
0.00768248
0.00783941
0.00797678
0.00808427
0.00813664
0.00813776
0.0081093
0.00810131
0.00812325
0.00811168
0.00797419
0.00771942
0.00735173
0.00689133
0.000318189
0.00247711
0.00434906
0.00556368
0.00634302
0.00686321
0.00722909
0.00749696
0.00770288
0.00787299
0.00801786
0.00814255
0.00824066
0.00829302
0.00829815
0.0082782
0.00826009
0.00825584
0.0082655
0.00817879
0.00797605
0.00765749
0.00725989
0.000307449
0.00241222
0.0043402
0.0056306
0.00645642
0.00700132
0.00737961
0.00765141
0.00785319
0.00801113
0.00814574
0.00826355
0.00835197
0.00840449
0.00842067
0.00841348
0.00839343
0.00840028
0.00842779
0.00836716
0.00819778
0.00791848
0.00757544
0.000292355
0.00232666
0.00425194
0.00557339
0.00645279
0.00704588
0.00745183
0.00773859
0.00794652
0.00810194
0.00822646
0.00833421
0.00842144
0.00848032
0.00850876
0.00851053
0.0085005
0.00851361
0.00855085
0.00853345
0.00840831
0.00817065
0.00788124
0.000280585
0.00222854
0.00409054
0.00542435
0.00635445
0.00700147
0.00744798
0.00776153
0.0079848
0.0081466
0.00826969
0.00836952
0.00845131
0.00851356
0.00855115
0.00856159
0.0085612
0.00857156
0.0085993
0.00860105
0.00852982
0.00836872
0.00814316
0.00026957
0.00210051
0.00388804
0.00522689
0.00619368
0.00688432
0.00737411
0.00772139
0.00796834
0.00814498
0.00827485
0.0083749
0.00845405
0.00851444
0.00855489
0.00857369
0.00858123
0.0085939
0.0086158
0.00861913
0.0085789
0.00847921
0.0083159
0.000256236
0.00194391
0.00366226
0.00499772
0.00599041
0.00671662
0.00724368
0.00762477
0.00789965
0.00809797
0.00824261
0.00835054
0.00843236
0.00849325
0.00853528
0.00856054
0.00857698
0.00859556
0.008618
0.00862716
0.00860377
0.00853488
0.00841687
0.000242556
0.00175735
0.0034173
0.0047471
0.00575769
0.00651224
0.00707124
0.00748372
0.00778725
0.00801025
0.00817441
0.00829584
0.00838561
0.00845091
0.00849677
0.00852823
0.0085527
0.00857771
0.00860345
0.00861835
0.00860788
0.00856238
0.00848015
0.0002293
0.00161053
0.00318207
0.00448868
0.00550881
0.00628391
0.00686893
0.00730926
0.00764009
0.00788822
0.00807394
0.00821234
0.00831443
0.00838847
0.00844139
0.00848001
0.00851175
0.00854255
0.00857245
0.00859353
0.00859505
0.00856965
0.00851649
0.00021731
0.00150979
0.00299156
0.0042486
0.00525611
0.00604311
0.00664752
0.00711118
0.00746666
0.00773881
0.00794644
0.00810366
0.00822117
0.00830764
0.00837084
0.0084184
0.00845766
0.008494
0.00852814
0.00855513
0.00856748
0.00855954
0.00853027
0.000207132
0.00144496
0.00284312
0.00404114
0.0050186
0.00579923
0.00641605
0.00689781
0.00727454
0.00756867
0.00779756
0.00797436
0.00810928
0.0082109
0.00828713
0.00834566
0.00839356
0.00843605
0.0084747
0.00850697
0.00852806
0.00853367
0.00852159
0.000198792
0.00140023
0.00272513
0.00386249
0.00480237
0.0055665
0.00618227
0.00667569
0.00707013
0.00738367
0.00763258
0.00782899
0.0079824
0.008101
0.00819238
0.00826383
0.00832199
0.00837191
0.0084159
0.00845318
0.00848097
0.00849589
0.00849653
0.000191926
0.00136342
0.00262543
0.00370545
0.00460527
0.00534731
0.00595583
0.00645321
0.00685888
0.00718872
0.00745613
0.00767178
0.00784407
0.00798072
0.00808875
0.00817481
0.00824498
0.00830402
0.00835468
0.00839748
0.00843073
0.00845303
0.008463
0.000186047
0.00132773
0.00253478
0.00356268
0.00442332
0.00514097
0.00573832
0.00623506
0.00664781
0.0069902
0.00727348
0.00750682
0.00769774
0.00785296
0.00797867
0.00808074
0.00816454
0.00823448
0.00829346
0.00834264
0.00838184
0.00841058
0.00842778
0.000180715
0.00128996
0.00244705
0.00342805
0.00425222
0.00494562
0.00553012
0.0060236
0.00644058
0.00679282
0.00708987
0.00733951
0.00754827
0.00772188
0.00786564
0.00798456
0.00808325
0.00816563
0.00823463
0.00829165
0.00833767
0.00837273
0.00839614
0.00017558
0.00124857
0.00235843
0.00329709
0.00408834
0.00475929
0.00533119
0.00582058
0.00624042
0.00660093
0.00691029
0.00717511
0.0074009
0.00759246
0.00775423
0.00789036
0.00800471
0.00810067
0.00818095
0.00824727
0.00830106
0.00834275
0.0083721
0.000170379
0.00120287
0.00226685
0.00316711
0.00392936
0.00458078
0.00514185
0.00562789
0.00605058
0.00641893
0.00673994
0.00701923
0.00726138
0.00747037
0.00764981
0.0078031
0.00793339
0.00804355
0.00813598
0.00821255
0.00827482
0.00832353
0.00835882
0.000164927
0.00115303
0.002172
0.00303746
0.00377485
0.00441043
0.00496349
0.00544813
0.00587485
0.00625157
0.00658431
0.00687781
0.00713587
0.00736174
0.00755832
0.00772833
0.00787434
0.00799873
0.00810358
0.00819074
0.00826181
0.00831774
0.00835894
0.000159122
0.00110042
0.00207559
0.00290989
0.00362679
0.00425068
0.00479926
0.00528525
0.00571795
0.00610425
0.00644931
0.00675708
0.0070307
0.00727281
0.00748573
0.00767166
0.00783266
0.00797071
0.00808761
0.00818512
0.00826481
0.00832777
0.00837465
0.000152968
0.00104785
0.00198167
0.00278889
0.00348991
0.00410653
0.00465446
0.00514488
0.00558582
0.00598316
0.00634122
0.00666331
0.00695201
0.00720948
0.0074376
0.00763817
0.0078129
0.00796347
0.00809145
0.00819848
0.0082861
0.00835551
0.0084075
0.000146599
0.00099948
0.0018966
0.00268166
0.00337168
0.00398548
0.00453652
0.00503426
0.00548545
0.00589495
0.00626636
0.00660241
0.00690525
0.00717669
0.00741835
0.00763176
0.00781842
0.00797979
0.00811732
0.00823254
0.00832697
0.00840184
0.00845812
0.000140297
0.00096028
0.00182839
0.00259749
0.00328171
0.0038969
0.00445425
0.0049615
0.00542411
0.00584604
0.00623027
0.00657909
0.00689437
0.00717772
0.00743063
0.00765449
0.00785072
0.0080207
0.00816577
0.00828743
0.00838717
0.00846627
0.00852575
0.000134484
0.000934943
0.00178526
0.00254614
0.00323005
0.00385038
0.00441629
0.00493399
0.00540789
0.00584124
0.00623656
0.00659588
0.00692096
0.00721335
0.00747453
0.00770592
0.00790892
0.00808489
0.00823518
0.00836125
0.00846458
0.00854648
0.00860801
0.000129645
0.000926585
0.00177355
0.00253553
0.00322476
0.0038532
0.00442862
0.00495623
0.00543976
0.00588207
0.00628547
0.00665196
0.00698333
0.00728121
0.00754719
0.00778276
0.00798941
0.00816856
0.00832157
0.0084499
0.00855504
0.00863828
0.0087007
0.000126197
0.000935813
0.00179579
0.00256909
0.00326905
0.00390756
0.0044921
0.00502764
0.00551779
0.00596542
0.00637295
0.00674253
0.00707613
0.00737558
0.00764263
0.00787893
0.00808608
0.00826557
0.00841882
0.00854731
0.00865252
0.00873573
0.00879801
0.000124369
0.000960757
0.00184959
0.00264399
0.00335922
0.00400871
0.0046009
0.00514143
0.00563445
0.00608323
0.00649059
0.00685901
0.00719075
0.00748792
0.00775245
0.00798621
0.00819089
0.00836809
0.00851929
0.00864601
0.00874973
0.00883172
0.00889298
0.000124189
0.000998082
0.00192826
0.00275126
0.00348478
0.00414516
0.00474299
0.00528541
0.0057776
0.00622362
0.00662687
0.00699031
0.00731657
0.00760806
0.00786698
0.00809535
0.00829502
0.00846769
0.00861485
0.00873815
0.00883905
0.00891879
0.00897834
0.000125554
0.00104422
0.00202268
0.00287805
0.00363086
0.00430132
0.00490288
0.00544462
0.00593308
0.00637329
0.00676937
0.00712484
0.00744278
0.00772595
0.00797682
0.00819757
0.00839021
0.00855651
0.00869808
0.00881661
0.00891359
0.00899024
0.00904752
0.000128325
0.00109599
0.00212353
0.00301088
0.00378211
0.00446151
0.00506542
0.00560489
0.00608783
0.00652028
0.00690715
0.00725261
0.00756025
0.00783322
0.00807428
0.00828584
0.00846999
0.00862859
0.00876339
0.00887612
0.00896827
0.0090411
0.0090956
0.000132373
0.00115036
0.00222264
0.00313843
0.00392607
0.00461337
0.00521901
0.00575561
0.00623226
0.00665598
0.0070325
0.00736669
0.00766275
0.0079243
0.00815443
0.00835576
0.00853053
0.00868058
0.00880782
0.00891397
0.00900057
0.00906894
0.00912015
0.000137562
0.0012041
0.00231347
0.00325275
0.00405466
0.00474935
0.00535684
0.00589077
0.00636113
0.00677582
0.00714144
0.00746367
0.00774738
0.00799677
0.00821533
0.00840595
0.00857091
0.00871209
0.00883139
0.00893047
0.00901095
0.00907426
0.00912162
0.000143703
0.00125371
0.00239107
0.00334911
0.00416385
0.00486615
0.00547628
0.00600827
0.00647278
0.00687857
0.00723315
0.00754308
0.00781407
0.00805096
0.00825777
0.00843768
0.00859298
0.00872555
0.00883696
0.00892879
0.00900273
0.00906045
0.00910341
0.000150497
0.00129584
0.00245209
0.00342519
0.00425232
0.00496313
0.00557712
0.00610825
0.00656766
0.00696496
0.00730867
0.00760636
0.00786461
0.00808911
0.00828453
0.00845444
0.00860106
0.00872589
0.00882996
0.00891463
0.00898176
0.0090334
0.0090714
0.000157511
0.00132796
0.00249482
0.00348043
0.00432019
0.00504079
0.00566003
0.00619148
0.00664672
0.00703626
0.00736967
0.00765558
0.0079016
0.0081144
0.00829963
0.00846136
0.00860139
0.00872026
0.00881799
0.00889573
0.00895578
0.00900083
0.00903331
0.000164208
0.00134857
0.00251927
0.00351569
0.00436849
0.00509991
0.00572555
0.00625842
0.00671054
0.00709335
0.00741749
0.00769266
0.00792761
0.00813034
0.00830797
0.00846526
0.00860272
0.00871838
0.00881077
0.00888138
0.00893367
0.00897144
0.00899782
0.000170007
0.00135722
0.00252735
0.00353344
0.00439913
0.00514154
0.00577398
0.00630897
0.00675902
0.00713642
0.00745284
0.007719
0.00794487
0.00814032
0.00831492
0.00847482
0.00861777
0.00873379
0.00882039
0.008882
0.00892476
0.00895403
0.00897364
0.000174365
0.0013552
0.00252366
0.00353833
0.00441527
0.00516719
0.0058056
0.00634276
0.00679161
0.00716522
0.00747602
0.00773558
0.00795514
0.00814694
0.00832454
0.00849887
0.00866823
0.00878657
0.00886132
0.00890808
0.00893766
0.00895658
0.00896865
0.000176738
0.00135024
0.00251732
0.00353744
0.00442128
0.00517892
0.00582094
0.00635949
0.00680784
0.00717947
0.00748728
0.00774332
0.00795973
0.00815078
0.00833465
0.00853552
0.00880753
0.00890712
0.00894769
0.00896761
0.0089787
0.00898531
0.00898935
0.000411585
0.000375856
0.000358621
0.000359397
0.00292003
0.00265289
0.00250113
0.00245128
0.00482502
0.00452888
0.00430437
0.00416963
0.00592388
0.00567146
0.00545583
0.00529181
0.00653847
0.00633683
0.00615711
0.00600179
0.00694254
0.00676354
0.006605
0.00646727
0.00730773
0.00716458
0.0070359
0.00691854
0.00764757
0.0075137
0.00739223
0.00728183
0.00794203
0.00782249
0.00771213
0.00761016
0.00816239
0.00806705
0.00797637
0.00789061
0.00830376
0.0082312
0.00816053
0.00809252
0.00839883
0.00834513
0.00829174
0.00823971
0.00846179
0.00842446
0.0083856
0.00834578
0.00849518
0.00846958
0.00844155
0.00841159
0.00850078
0.00848431
0.00846496
0.00844295
0.00848637
0.00847677
0.00846408
0.00844835
0.00846057
0.00845603
0.00844832
0.00843742
0.0084311
0.00843032
0.00842637
0.00841916
0.00840408
0.00840626
0.00840525
0.00840094
0.0083841
0.00838881
0.00839025
0.00838832
0.00837463
0.00838163
0.00838524
0.00838538
0.00837838
0.0083875
0.00839308
0.00839504
0.00839746
0.00840851
0.00841582
0.00841936
0.00843326
0.00844597
0.00845475
0.00845957
0.00848625
0.00850027
0.00851015
0.0085159
0.00855559
0.0085705
0.0085811
0.00858741
0.00863885
0.00865424
0.00866518
0.00867169
0.00873187
0.00874738
0.00875833
0.00876478
0.00882897
0.0088443
0.00885505
0.00886126
0.00892332
0.0089383
0.00894874
0.00895466
0.0090078
0.00902233
0.00903242
0.0090381
0.00907589
0.00908992
0.0090997
0.00910524
0.0091227
0.00913618
0.00914566
0.00915114
0.00914574
0.00915856
0.00916769
0.00917313
0.00914539
0.00915739
0.00916603
0.00917134
0.00912497
0.0091359
0.00914386
0.00914886
0.00909035
0.00909997
0.009107
0.00911148
0.00904929
0.00905735
0.00906323
0.00906698
0.00901049
0.00901682
0.00902139
0.00902426
0.00898275
0.00898723
0.00899041
0.00899236
0.00897407
0.00897668
0.0089785
0.00897957
0.00899112
0.00899196
0.00899253
0.00899286
0.00124778
0.00236796
0.00314963
0.00363477
0.00391829
0.00405259
0.00407452
0.00401705
0.00391668
0.00380559
0.00368424
0.00353713
0.00334765
0.00310592
0.00279829
0.00239687
0.00186394
0.00113825
0.000191132
0.00278734
0.00336918
0.00385133
0.004198
0.00442624
0.00455192
0.00459002
0.00455755
0.00447214
0.00435111
0.0041976
0.00400346
0.00375231
0.00342904
0.00301772
0.00249574
0.00184342
0.00107166
0.0001918
0.0041194
0.00429543
0.00452229
0.00472954
0.00489449
0.00500675
0.00505067
0.00502823
0.00494614
0.00481281
0.0046319
0.00439375
0.00408816
0.00369797
0.00319578
0.00254876
0.00175071
0.000932699
0.000187455
0.00511173
0.00505527
0.0051125
0.00522016
0.00533594
0.00542893
0.0054667
0.00544399
0.00536073
0.00521792
0.00501287
0.00474389
0.00440329
0.00397503
0.00342049
0.00267604
0.00172536
0.000815193
0.000195824
0.00579388
0.00564813
0.00562953
0.00567752
0.0057503
0.00581643
0.00584096
0.00581299
0.00572877
0.00558137
0.00536601
0.00508737
0.00473645
0.00430172
0.00374728
0.00300469
0.00202452
0.000985663
0.000223632
0.00628652
0.00614366
0.0060889
0.00609428
0.00612997
0.00616619
0.0061739
0.0061342
0.00604502
0.00590079
0.00569394
0.00541568
0.00505571
0.00460711
0.00406472
0.00338298
0.00252725
0.0014992
0.000256548
0.00675422
0.00658283
0.00649092
0.00646929
0.00647495
0.00648327
0.00646841
0.00641121
0.00630854
0.00616376
0.00595392
0.00564829
0.00526263
0.00479905
0.00425218
0.00359832
0.00279112
0.00169268
0.000269217
0.00712515
0.00695975
0.00686424
0.00682574
0.00680804
0.00678118
0.00673401
0.00665546
0.00653566
0.00637002
0.00613007
0.00579927
0.00539169
0.00490938
0.00435051
0.00369124
0.00287737
0.00172407
0.000259454
0.00746169
0.00730607
0.00721101
0.00715712
0.00711412
0.00706117
0.00698253
0.00687491
0.00673231
0.00653188
0.00625487
0.00589572
0.00545669
0.00494464
0.00435861
0.00367356
0.00283586
0.00169704
0.000245043
0.00775987
0.00761592
0.00751947
0.00744966
0.00738237
0.00730336
0.00720051
0.00706574
0.00689194
0.00665656
0.00634658
0.0059532
0.00547522
0.00492491
0.0043021
0.00357594
0.00270338
0.00158626
0.000235365
0.0079862
0.00786327
0.00776642
0.00768238
0.00759497
0.00749283
0.0073653
0.00720387
0.00699966
0.00673679
0.00639955
0.00597771
0.00546792
0.00487708
0.00420634
0.00343616
0.0025337
0.00145502
0.000220762
0.0081552
0.00804956
0.00795509
0.00786139
0.00775754
0.00763417
0.00748231
0.00729557
0.00706765
0.00678487
0.00642835
0.0059848
0.00544691
0.00481568
0.00409092
0.00326491
0.00232872
0.00129666
0.000201322
0.0082788
0.00818655
0.00809408
0.00799386
0.00787791
0.00773869
0.00756915
0.00736445
0.00711878
0.00681912
0.00644638
0.00598349
0.00541955
0.00475118
0.00397577
0.00309033
0.00210333
0.00107698
0.000181997
0.00835898
0.00827838
0.0081892
0.00808612
0.00796318
0.00781444
0.00763408
0.00741763
0.00715896
0.00684572
0.00645908
0.00597921
0.00539365
0.00469583
0.00388187
0.00295169
0.00192972
0.00092377
0.00016302
0.00840219
0.00833225
0.00824796
0.00814538
0.00801993
0.00786681
0.00768115
0.00745807
0.00719065
0.00686702
0.00646979
0.00597783
0.00537794
0.00466232
0.00382737
0.00287835
0.00185157
0.000873668
0.000153798
0.0084172
0.00835699
0.00827874
0.0081793
0.00805492
0.0079015
0.0077145
0.00748859
0.00721629
0.00688618
0.0064825
0.0059855
0.00538041
0.00466066
0.00382336
0.0028766
0.00185854
0.000883689
0.000153079
0.00841386
0.00836229
0.00829053
0.00819584
0.00807488
0.00792388
0.00773835
0.00751264
0.00723906
0.00690681
0.00650186
0.00600707
0.00540667
0.00469587
0.00387194
0.00294111
0.00193088
0.000929461
0.000157803
0.00840153
0.00835737
0.00829195
0.00820266
0.00808637
0.0079394
0.00775725
0.00753415
0.00726248
0.00693225
0.0065312
0.00604519
0.00545877
0.00476734
0.00396821
0.00306249
0.00206035
0.00101338
0.000165579
0.00838802
0.00835013
0.0082905
0.00820661
0.00809541
0.00795328
0.00777571
0.00755698
0.00728979
0.00696505
0.00657212
0.00609932
0.00553451
0.0048688
0.00410033
0.00322426
0.00223271
0.00113042
0.000174338
0.00837928
0.0083467
0.0082922
0.00821333
0.00810714
0.00797007
0.00779769
0.00758446
0.00732352
0.00700669
0.00662468
0.00616766
0.00562577
0.00498997
0.00425119
0.00340185
0.00241846
0.00126851
0.00018273
0.00837965
0.00835159
0.00830151
0.00822709
0.00812551
0.00799331
0.00782623
0.00761899
0.00736523
0.00705754
0.00668767
0.00624684
0.00572596
0.00511532
0.00440295
0.00357096
0.00258646
0.00140559
0.000190189
0.00839218
0.00836794
0.00832154
0.00825087
0.00815327
0.00802544
0.00786332
0.00766196
0.00741547
0.00711703
0.00675904
0.00633318
0.00583013
0.00523857
0.00454247
0.00371604
0.00271643
0.00148809
0.000196423
0.00841892
0.00839777
0.00835426
0.00828651
0.00819207
0.00806783
0.00790997
0.00771384
0.00747394
0.00718388
0.00683638
0.00642308
0.00593388
0.00535534
0.00466743
0.00383812
0.00281699
0.00154317
0.000199899
0.00846102
0.00844215
0.00840067
0.00833491
0.00824263
0.00812097
0.00796632
0.00777433
0.00753976
0.00725649
0.00691729
0.00651347
0.00603387
0.00546294
0.00477722
0.00394012
0.00289642
0.00158365
0.000201948
0.00851868
0.00850122
0.00846082
0.00839604
0.00830486
0.00818461
0.00803191
0.00784261
0.0076117
0.00733315
0.00699965
0.00660199
0.00612793
0.00556006
0.00487235
0.00402507
0.0029602
0.00161468
0.000203577
0.0085909
0.00857399
0.00853378
0.00846901
0.00837786
0.00825782
0.00810571
0.00791754
0.00768842
0.00741233
0.00708177
0.00668701
0.00621484
0.00564642
0.00495384
0.00409545
0.00301158
0.00163898
0.000204652
0.00867534
0.00865824
0.00861747
0.00855191
0.00845987
0.00833899
0.00818622
0.00799768
0.00776852
0.00749269
0.00716246
0.00676764
0.00629427
0.00572244
0.00502306
0.00415336
0.00305281
0.00165808
0.00020515
0.00876817
0.00875039
0.0087086
0.00864176
0.00854827
0.00842584
0.00827148
0.00808136
0.00785064
0.00757318
0.00724103
0.00684365
0.00636653
0.0057891
0.00508162
0.00420079
0.00308573
0.00167287
0.000205209
0.00886419
0.00884556
0.00880269
0.00873455
0.00863953
0.00851536
0.00835903
0.00816669
0.00793344
0.00765301
0.00731727
0.0069154
0.00643256
0.00584789
0.00513141
0.00423976
0.00311205
0.00168431
0.000204955
0.00895713
0.00893786
0.00889431
0.00882537
0.00872937
0.00860394
0.008446
0.00825157
0.0080156
0.00773167
0.00739142
0.00698384
0.00649394
0.0059008
0.0051746
0.00427232
0.00313341
0.00169351
0.00020447
0.00904032
0.00902094
0.00897751
0.00890879
0.00881295
0.0086875
0.00852914
0.0083337
0.00809587
0.00780892
0.00746426
0.00705062
0.00655296
0.00595049
0.00521385
0.00430073
0.00315131
0.00170107
0.000203808
0.00910748
0.00908872
0.00904648
0.00897938
0.0088854
0.00876182
0.0086051
0.00841073
0.00817302
0.00788482
0.00753708
0.00711819
0.0066129
0.00600064
0.00525265
0.00432774
0.0031673
0.00170714
0.000202943
0.00915367
0.00913626
0.00909636
0.00903244
0.0089423
0.00882298
0.00867063
0.00848035
0.00824595
0.00795966
0.00761175
0.00718992
0.00667842
0.00605658
0.00529624
0.00435763
0.00318416
0.0017132
0.00020159
0.00917607
0.00916058
0.00912402
0.00906476
0.00898045
0.00886793
0.00872308
0.00854059
0.00831373
0.00803397
0.00769061
0.00727023
0.00675594
0.00612626
0.00535302
0.00439781
0.00320705
0.00172176
0.000200004
0.00917464
0.00916135
0.00912882
0.00907537
0.0089986
0.00889523
0.00876098
0.00859026
0.00837583
0.00810846
0.00777632
0.00736446
0.00685401
0.00622129
0.00543649
0.00446125
0.00324502
0.00173496
0.000199455
0.00915231
0.00914119
0.00911299
0.00906607
0.00899808
0.00890577
0.00878484
0.00862963
0.0084327
0.00818432
0.00787177
0.00747848
0.00698289
0.00635737
0.0055673
0.00457041
0.00331601
0.00175985
0.000200367
0.00911474
0.00910556
0.0090817
0.00904166
0.0089832
0.00890328
0.00879781
0.00866131
0.00848655
0.00826386
0.00798026
0.00761813
0.00715328
0.00655271
0.00577306
0.00476038
0.00345396
0.00181437
0.00020274
0.00906974
0.00906222
0.00904259
0.00900952
0.00896104
0.00889443
0.00880599
0.0086908
0.00854225
0.00835144
0.00810613
0.00778891
0.00737415
0.0068236
0.00608177
0.00507333
0.00370797
0.00192921
0.000207729
0.00902631
0.00902027
0.0090048
0.0089788
0.00894066
0.00888807
0.00881796
0.00872621
0.00860731
0.0084538
0.00825524
0.00799604
0.00765129
0.00717973
0.00651341
0.00554645
0.00412967
0.00213853
0.000218954
0.00899364
0.0089891
0.00897786
0.00895912
0.00893167
0.00889379
0.00884316
0.00877672
0.00869039
0.00857868
0.00843381
0.00824357
0.00798667
0.00762339
0.00707805
0.00620733
0.00476097
0.00244984
0.000238635
0.00898019
0.00897731
0.00897048
0.00895923
0.0089428
0.00892014
0.00888984
0.00885005
0.00879833
0.00873146
0.00864483
0.00853091
0.00837533
0.00814767
0.00777873
0.00710056
0.00570488
0.00282917
0.000266524
0.00899303
0.00899204
0.00898977
0.00898605
0.00898065
0.00897323
0.00896332
0.00895034
0.00893354
0.00891194
0.00888415
0.00884789
0.00879844
0.00872441
0.00859316
0.00829084
0.00733026
0.00322865
0.000294787
)
;

boundaryField
{
    leftWall
    {
        type            nutkWallFunction;
        Cmu             0.09;
        kappa           0.41;
        E               9.8;
        value           nonuniform List<scalar> 
50
(
7.01065e-06
9.78594e-06
1.14252e-05
1.27119e-05
1.38716e-05
1.49381e-05
1.5949e-05
1.6941e-05
1.84873e-05
2.0768e-05
2.34956e-05
2.58191e-05
3.67213e-05
3.75644e-05
3.7244e-05
3.52236e-05
3.24066e-05
2.95367e-05
2.76506e-05
2.5731e-05
2.38771e-05
2.22064e-05
2.07905e-05
1.96275e-05
1.86638e-05
1.78308e-05
1.70672e-05
1.63242e-05
1.55646e-05
1.47616e-05
1.39007e-05
1.29825e-05
1.20272e-05
1.10777e-05
1.01991e-05
9.4665e-06
8.94517e-06
8.67132e-06
8.64925e-06
8.86298e-06
9.29065e-06
9.9116e-06
1.07046e-05
1.16402e-05
1.26723e-05
1.37354e-05
1.47485e-05
1.56251e-05
1.62848e-05
1.66465e-05
)
;
    }
    rightWall
    {
        type            nutkWallFunction;
        Cmu             0.09;
        kappa           0.41;
        E               9.8;
        value           nonuniform List<scalar> 
50
(
1.10876e-05
1.4099e-05
1.59232e-05
1.74034e-05
1.86491e-05
1.96885e-05
2.05542e-05
2.12511e-05
2.18684e-05
2.19704e-05
2.14386e-05
2.21175e-05
2.55798e-05
2.988e-05
3.19229e-05
3.07989e-05
2.66382e-05
2.53207e-05
2.32582e-05
2.03221e-05
1.73896e-05
1.46127e-05
1.32066e-05
1.30432e-05
1.39176e-05
1.52965e-05
1.65619e-05
1.77765e-05
1.88531e-05
1.95549e-05
1.98873e-05
2.04373e-05
2.06708e-05
2.08268e-05
2.08955e-05
2.08962e-05
2.08646e-05
2.07952e-05
2.07003e-05
2.05751e-05
2.02132e-05
1.99975e-05
2.00303e-05
2.01477e-05
2.04611e-05
2.10656e-05
2.25353e-05
2.52145e-05
2.907e-05
3.29109e-05
)
;
    }
    lowerWall
    {
        type            nutkWallFunction;
        Cmu             0.09;
        kappa           0.41;
        E               9.8;
        value           nonuniform List<scalar> 
62
(
3.22339e-06
5.11263e-06
6.35786e-06
7.25952e-06
7.97882e-06
8.58046e-06
9.09904e-06
9.55558e-06
9.96065e-06
1.0324e-05
1.06508e-05
1.09415e-05
1.11928e-05
1.13988e-05
1.15519e-05
1.16536e-05
1.16828e-05
1.15975e-05
1.13336e-05
1.09141e-05
1.01434e-05
8.58869e-06
5.45269e-06
5.45269e-06
1.72727e-05
2.06531e-05
2.35859e-05
2.64529e-05
2.9371e-05
3.29979e-05
3.92174e-05
4.42069e-05
4.07682e-05
3.90831e-05
3.91209e-05
6.38471e-06
1.97053e-05
2.16819e-05
2.28063e-05
2.37635e-05
2.54756e-05
2.88194e-05
3.53306e-05
6.38471e-06
8.93563e-06
1.0645e-05
1.13035e-05
1.14558e-05
1.14083e-05
1.10967e-05
1.04259e-05
9.53789e-06
8.79546e-06
8.52276e-06
8.31493e-06
7.93935e-06
7.52732e-06
7.3056e-06
7.21727e-06
6.76325e-06
5.75701e-06
4.78266e-06
)
;
    }
    atmosphere
    {
        type            calculated;
        value           nonuniform List<scalar> 
46
(
0.000176738
0.00135024
0.00251732
0.00353744
0.00442128
0.00517892
0.00582094
0.00635949
0.00680784
0.00717947
0.00748728
0.00774332
0.00795973
0.00815078
0.00833465
0.00853552
0.009
0.009
0.009
0.009
0.009
0.009
0.009
0.009
0.009
0.009
0.009
0.009
0.009
0.009
0.009
0.009
0.009
0.009
0.009
0.009
0.009
0.009
0.009
0.009
0.009
0.009
0.009
0.009
0.00322865
0.000294787
)
;
    }
    defaultFaces
    {
        type            empty;
    }
}


// ************************************************************************* //
