/*--------------------------------*- C++ -*----------------------------------*\
  =========                 |
  \\      /  F ield         | OpenFOAM: The Open Source CFD Toolbox
   \\    /   O peration     | Website:  https://openfoam.org
    \\  /    A nd           | Version:  9
     \\/     M anipulation  |
\*---------------------------------------------------------------------------*/
FoamFile
{
    format      ascii;
    class       volScalarField;
    location    "2.06";
    object      p;
}
// * * * * * * * * * * * * * * * * * * * * * * * * * * * * * * * * * * * * * //

dimensions      [1 -1 -2 0 0 0 0];

internalField   nonuniform List<scalar> 
2268
(
702.684
702.282
702.11
701.937
701.72
701.483
701.263
701.096
701.01
701.021
701.143
701.393
701.794
702.372
703.152
704.139
705.318
706.717
708.032
710.496
713.88
716.573
718.33
643.962
643.437
643.168
642.941
642.695
642.442
642.202
642.007
641.885
641.86
641.957
642.204
642.639
643.302
644.226
645.426
646.909
648.999
651.656
653.923
656.089
657.619
659.203
585.219
584.772
584.368
584.05
583.736
583.43
583.141
582.893
582.715
582.638
582.696
582.931
583.394
584.136
585.196
586.6
588.368
590.911
594.484
596.712
597.801
598.367
600.227
526.487
526.155
525.662
525.255
524.852
524.471
524.113
523.801
523.56
523.428
523.442
523.654
524.125
524.912
526.06
527.599
529.547
532.196
536.05
538.39
539.006
539.082
541.73
467.77
467.556
467.017
466.509
466.014
465.547
465.114
464.734
464.432
464.245
464.215
464.396
464.853
465.65
466.835
468.437
470.455
473.031
476.552
479
479.518
479.907
483.715
409.077
408.953
408.394
407.789
407.195
406.638
406.126
405.678
405.317
405.077
405.001
405.14
405.565
406.345
407.532
409.148
411.163
413.583
416.564
418.83
419.424
420.601
426.023
350.419
350.354
349.781
349.08
348.381
347.727
347.136
346.621
346.201
345.909
345.781
345.865
346.235
346.97
348.134
349.739
351.713
353.951
356.454
358.344
358.931
360.844
368.426
291.808
291.766
291.178
290.373
289.555
288.799
288.128
287.547
287.068
286.721
286.531
286.533
286.804
287.451
288.562
290.146
292.067
294.097
296.138
297.671
298.196
300.315
312.365
776.712
772.082
772.888
772.63
770.504
766.147
759.871
753.674
753.152
757.395
760.799
763.674
765.859
767.034
769.483
772.065
773.254
772.146
771.203
719.081
712.975
712.68
712.203
710.324
706.337
701.503
697.886
697.235
700.892
703.427
705.371
707.799
710.373
712.576
714.568
715.489
713.867
712.861
660.668
654.47
653.766
652.756
650.899
647.37
643.888
642.993
643.603
644.708
645.83
647.296
649.67
653.171
655.288
656.977
657.25
655.067
653.882
601.753
596.457
595.985
594.551
592.599
589.402
586.616
587.452
590.418
590.293
588.007
589.343
591.406
595.33
597.826
599.243
598.669
596.174
595.491
542.891
539.102
538.844
537.033
534.934
531.913
529.599
531.599
536.537
536.516
532.834
531.443
532.855
536.692
539.835
541.527
541.422
539.717
540.613
484.1
482.193
481.929
479.827
477.555
474.537
472.441
475.545
482.409
482.299
477.728
473.351
473.888
477.331
481.071
484.211
488.345
486.835
488.471
424.733
425.362
424.966
422.791
420.365
417.119
414.754
418.129
425.894
425.91
420.412
414.682
414.39
417.332
421.87
426.836
432.72
434.089
436.12
364.524
367.676
367.801
365.958
363.551
359.433
356.208
359.271
366.697
367.469
360.666
355.353
354.375
357.372
362.748
369.048
374.946
378.234
381.296
200.265
200.209
199.575
198.583
197.546
196.617
195.824
195.151
194.589
194.161
193.867
193.708
193.765
194.208
195.205
196.768
198.61
200.3
201.652
202.658
203.316
204.998
211.222
81.2253
81.258
80.7324
79.7884
78.737
77.7902
77.022
76.4227
75.917
75.5484
75.3031
75.1419
75.0805
75.2408
75.8428
77.062
78.6472
80.0001
80.6917
81.2152
81.993
85.007
92.1341
12.0047
12.0827
12.0497
11.9107
11.6313
11.1982
10.7595
10.4937
10.3068
10.2305
10.2846
10.5593
11.0088
11.3388
11.3928
11.4047
11.7395
12.9136
14.6378
16.0144
16.1268
15.6087
16.2862
-0.197133
-0.199283
-0.0522934
0.250734
0.463713
0.430075
0.253341
0.214477
0.247777
0.370027
0.5524
0.919839
1.51888
1.88911
1.7532
1.32723
0.959045
1.54951
3.46301
4.8333
4.7645
3.743
2.39905
-0.276719
-0.28727
-0.237279
-0.159464
-0.0105516
0.0846821
0.0957077
0.0910683
0.0837319
0.152826
0.371372
0.601461
0.833239
1.08764
1.20646
1.18404
1.30453
1.62349
2.23302
2.84486
2.95536
1.968
1.30704
-0.543891
-0.611464
-0.648443
-0.671532
-0.622799
-0.477006
-0.351555
-0.331683
-0.338638
-0.378955
-0.367216
-0.282011
-0.195777
-0.0377199
0.059309
0.0143235
0.175471
0.451864
0.520522
0.950509
1.24058
1.0732
0.984859
-0.904327
-1.01241
-1.09021
-1.12795
-1.12109
-1.05772
-1.00061
-0.964179
-0.942099
-1.01315
-1.11991
-1.12957
-1.06416
-0.910483
-0.881126
-0.994447
-0.965004
-0.918816
-0.858981
-0.309384
-0.0295578
-0.0841877
0.364513
-1.25631
-1.32023
-1.3444
-1.35418
-1.36834
-1.39089
-1.39166
-1.38165
-1.37544
-1.37404
-1.35564
-1.35415
-1.36597
-1.37713
-1.37484
-1.3476
-1.33168
-1.33837
-1.34404
-1.29235
-1.28771
-1.28612
-0.93292
-1.47512
-1.49469
-1.49332
-1.50061
-1.51033
-1.52117
-1.52572
-1.5272
-1.52099
-1.50814
-1.49704
-1.49578
-1.50435
-1.51075
-1.50578
-1.487
-1.47267
-1.47593
-1.49505
-1.49612
-1.47892
-1.49378
-1.51663
-1.62013
-1.62687
-1.6272
-1.63152
-1.63724
-1.6437
-1.64712
-1.64728
-1.64297
-1.63575
-1.62905
-1.62704
-1.62939
-1.63085
-1.62686
-1.61688
-1.60937
-1.61028
-1.61851
-1.61953
-1.61474
-1.60981
-1.61139
-1.75044
-1.75682
-1.75664
-1.75963
-1.76341
-1.7673
-1.76959
-1.76965
-1.76719
-1.76315
-1.75926
-1.75744
-1.75737
-1.75693
-1.75418
-1.74961
-1.74693
-1.74833
-1.75292
-1.75553
-1.75784
-1.76188
-1.76756
-1.88115
-1.88402
-1.884
-1.88665
-1.88953
-1.89214
-1.89371
-1.89387
-1.89256
-1.89035
-1.88816
-1.88681
-1.88617
-1.88538
-1.88381
-1.88197
-1.88154
-1.88343
-1.88703
-1.89078
-1.89606
-1.90423
-1.91634
-2.01005
-2.0105
-2.01079
-2.013
-2.01539
-2.01744
-2.01875
-2.01913
-2.01859
-2.01747
-2.01627
-2.0154
-2.01484
-2.0143
-2.01362
-2.01319
-2.01383
-2.01598
-2.01943
-2.02364
-2.0293
-2.03725
-2.04786
-2.13828
-2.13724
-2.13746
-2.13922
-2.14123
-2.143
-2.14425
-2.14486
-2.14486
-2.14445
-2.14392
-2.1435
-2.14324
-2.14309
-2.14307
-2.14345
-2.14466
-2.14695
-2.1503
-2.15457
-2.16003
-2.16704
-2.17584
-2.26623
-2.26444
-2.26438
-2.26561
-2.26723
-2.26877
-2.26999
-2.27078
-2.27116
-2.27125
-2.27121
-2.27119
-2.27128
-2.2715
-2.27195
-2.27282
-2.27435
-2.2767
-2.27991
-2.28396
-2.28899
-2.29511
-2.30236
-2.39378
-2.39182
-2.39143
-2.39214
-2.39337
-2.39468
-2.39583
-2.39674
-2.39737
-2.3978
-2.39813
-2.39846
-2.39886
-2.39941
-2.4002
-2.40137
-2.40307
-2.40541
-2.40843
-2.41216
-2.41665
-2.42192
-2.4279
-2.5209
-2.51904
-2.51837
-2.51866
-2.51954
-2.52062
-2.52169
-2.52264
-2.52343
-2.5241
-2.5247
-2.5253
-2.52597
-2.52678
-2.52781
-2.52916
-2.53094
-2.53322
-2.53605
-2.53943
-2.54339
-2.5479
-2.55285
-2.64766
-2.64596
-2.6451
-2.64509
-2.64568
-2.64654
-2.6475
-2.64844
-2.64932
-2.65014
-2.65094
-2.65175
-2.65263
-2.65363
-2.65483
-2.65629
-2.6581
-2.6603
-2.66293
-2.66598
-2.66946
-2.67332
-2.67745
-2.77409
-2.77256
-2.7716
-2.77137
-2.77171
-2.77238
-2.77322
-2.77412
-2.77504
-2.77595
-2.77688
-2.77784
-2.77887
-2.78002
-2.78133
-2.78286
-2.78467
-2.78677
-2.78921
-2.79197
-2.79503
-2.79836
-2.80184
-2.90024
-2.89886
-2.89784
-2.89746
-2.89761
-2.89812
-2.89883
-2.89968
-2.90059
-2.90156
-2.90256
-2.90363
-2.90477
-2.90601
-2.9074
-2.90897
-2.91075
-2.91276
-2.91502
-2.91752
-2.92024
-2.92312
-2.92609
-3.02614
-3.02488
-3.02383
-3.02333
-3.02335
-3.02372
-3.02433
-3.02511
-3.02601
-3.02699
-3.02805
-3.02917
-3.03038
-3.03169
-3.03312
-3.0347
-3.03644
-3.03836
-3.04046
-3.04274
-3.04516
-3.04769
-3.05026
-3.15183
-3.15063
-3.14956
-3.149
-3.14892
-3.14919
-3.14972
-3.15045
-3.15132
-3.1523
-3.15338
-3.15454
-3.15578
-3.15712
-3.15857
-3.16014
-3.16183
-3.16367
-3.16563
-3.16772
-3.1699
-3.17215
-3.1744
-3.27735
-3.27615
-3.27507
-3.27447
-3.27433
-3.27454
-3.27501
-3.27569
-3.27654
-3.27752
-3.2786
-3.27978
-3.28104
-3.28239
-3.28383
-3.28538
-3.28702
-3.28877
-3.29061
-3.29253
-3.29451
-3.29653
-3.29852
-3.40276
-3.4015
-3.40041
-3.3998
-3.39963
-3.3998
-3.40023
-3.40089
-3.40172
-3.40269
-3.40377
-3.40494
-3.40621
-3.40755
-3.40898
-3.41048
-3.41207
-3.41373
-3.41546
-3.41724
-3.41905
-3.42087
-3.42266
-3.52813
-3.52677
-3.52567
-3.52505
-3.52487
-3.52501
-3.52543
-3.52607
-3.52689
-3.52784
-3.52891
-3.53008
-3.53133
-3.53265
-3.53405
-3.53551
-3.53703
-3.53861
-3.54023
-3.54189
-3.54356
-3.54522
-3.54684
-3.65352
-3.65205
-3.65093
-3.65031
-3.65011
-3.65025
-3.65066
-3.65129
-3.65209
-3.65303
-3.65408
-3.65523
-3.65645
-3.65774
-3.65909
-3.6605
-3.66195
-3.66345
-3.66497
-3.66651
-3.66806
-3.66958
-3.67106
-3.779
-3.77743
-3.77629
-3.77564
-3.77544
-3.77557
-3.77597
-3.77658
-3.77736
-3.77828
-3.77931
-3.78042
-3.7816
-3.78285
-3.78415
-3.78549
-3.78687
-3.78828
-3.78971
-3.79114
-3.79257
-3.79397
-3.79533
-3.90459
-3.90297
-3.9018
-3.90113
-3.9009
-3.90102
-3.9014
-3.90199
-3.90274
-3.90363
-3.90461
-3.90568
-3.90681
-3.908
-3.90923
-3.9105
-3.9118
-3.91312
-3.91446
-3.91579
-3.91712
-3.91841
-3.91966
-4.03031
-4.02869
-4.02749
-4.02679
-4.02654
-4.02664
-4.02699
-4.02754
-4.02825
-4.02909
-4.03002
-4.03103
-4.03209
-4.03321
-4.03436
-4.03555
-4.03677
-4.038
-4.03924
-4.04048
-4.0417
-4.0429
-4.04405
-4.15614
-4.15455
-4.15335
-4.15263
-4.15236
-4.15243
-4.15274
-4.15324
-4.1539
-4.15467
-4.15553
-4.15646
-4.15745
-4.15848
-4.15955
-4.16065
-4.16178
-4.16292
-4.16407
-4.16521
-4.16634
-4.16744
-4.16851
-4.28208
-4.28053
-4.27935
-4.27863
-4.27834
-4.27837
-4.27864
-4.27908
-4.27967
-4.28036
-4.28114
-4.28198
-4.28288
-4.28382
-4.2848
-4.28581
-4.28684
-4.28788
-4.28894
-4.28999
-4.29103
-4.29204
-4.29302
-4.40808
-4.4066
-4.40546
-4.40475
-4.40445
-4.40444
-4.40465
-4.40503
-4.40554
-4.40615
-4.40683
-4.40758
-4.40838
-4.40922
-4.4101
-4.41101
-4.41194
-4.41289
-4.41385
-4.41482
-4.41577
-4.4167
-4.4176
-4.53414
-4.53274
-4.53164
-4.53096
-4.53065
-4.53061
-4.53077
-4.53107
-4.5315
-4.53201
-4.5326
-4.53325
-4.53394
-4.53467
-4.53545
-4.53625
-4.53709
-4.53795
-4.53882
-4.53969
-4.54056
-4.54141
-4.54224
-4.66021
-4.6589
-4.65788
-4.65723
-4.65692
-4.65684
-4.65694
-4.65718
-4.65752
-4.65794
-4.65843
-4.65897
-4.65955
-4.66017
-4.66083
-4.66154
-4.66227
-4.66304
-4.66383
-4.66462
-4.66541
-4.66619
-4.66694
-4.78627
-4.78508
-4.78414
-4.78353
-4.78322
-4.78312
-4.78317
-4.78333
-4.78359
-4.78392
-4.7843
-4.78473
-4.7852
-4.7857
-4.78625
-4.78685
-4.78749
-4.78817
-4.78888
-4.7896
-4.79031
-4.79101
-4.79169
-4.91231
-4.91125
-4.9104
-4.90984
-4.90954
-4.90941
-4.90941
-4.90952
-4.9097
-4.90993
-4.91021
-4.91053
-4.91088
-4.91126
-4.91169
-4.91217
-4.91272
-4.91333
-4.91397
-4.91462
-4.91526
-4.91589
-4.9165
-5.0383
-5.03737
-5.03663
-5.03613
-5.03584
-5.0357
-5.03567
-5.03572
-5.03582
-5.03597
-5.03615
-5.03635
-5.03657
-5.03683
-5.03712
-5.03748
-5.03795
-5.0385
-5.03909
-5.03969
-5.04027
-5.04083
-5.04137
-5.16423
-5.16344
-5.16281
-5.16238
-5.16212
-5.16198
-5.16192
-5.16192
-5.16196
-5.16203
-5.1621
-5.16219
-5.16228
-5.16239
-5.16254
-5.16276
-5.16315
-5.16369
-5.16426
-5.16481
-5.16533
-5.16582
-5.16629
-5.29007
-5.28943
-5.28891
-5.28856
-5.28834
-5.28821
-5.28814
-5.28811
-5.2881
-5.28809
-5.28807
-5.28805
-5.28801
-5.28797
-5.28793
-5.28797
-5.28831
-5.2889
-5.28947
-5.28999
-5.29045
-5.29088
-5.29128
-5.4158
-5.4153
-5.4149
-5.41465
-5.41451
-5.41442
-5.41436
-5.4143
-5.41424
-5.41416
-5.41406
-5.41392
-5.41373
-5.41351
-5.41324
-5.41299
-5.41332
-5.41414
-5.41478
-5.41526
-5.41566
-5.416
-5.41632
-5.54137
-5.54105
-5.54084
-5.54076
-5.54074
-5.54071
-5.54066
-5.54058
-5.54046
-5.5403
-5.54007
-5.53976
-5.53937
-5.53886
-5.53816
-5.53738
-5.53765
-5.5393
-5.5402
-5.54064
-5.54095
-5.5412
-5.54142
-5.66695
-5.66681
-5.66679
-5.66685
-5.66691
-5.66692
-5.66688
-5.66678
-5.66662
-5.66639
-5.66609
-5.66569
-5.66516
-5.66438
-5.66293
-5.66036
-5.66067
-5.66434
-5.66565
-5.66609
-5.66632
-5.66647
-5.66659
216.972
224.861
234.285
243.978
100.1
106.77
115.221
124.863
18.2145
20.0861
22.7504
27.2776
1.94359
1.77312
1.6671
1.6784
1.18817
1.17057
1.17462
1.18861
1.04192
1.06698
1.08214
1.07528
0.644895
0.735262
0.779274
0.790125
-0.464731
-0.267981
-0.17115
-0.108846
-1.44341
-1.36788
-1.34728
-1.32834
-1.6681
-1.7137
-1.75021
-1.77483
-1.78366
-1.80051
-1.81803
-1.8318
-1.93235
-1.94359
-1.95447
-1.96326
-2.05847
-2.06562
-2.0728
-2.07959
-2.18398
-2.18934
-2.1946
-2.1996
-2.30863
-2.31274
-2.31679
-2.3207
-2.43283
-2.43606
-2.43926
-2.44236
-2.55681
-2.5594
-2.56198
-2.56446
-2.68069
-2.6828
-2.6849
-2.68691
-2.80452
-2.80627
-2.808
-2.80966
-2.92834
-2.9298
-2.93125
-2.93263
-3.05218
-3.05342
-3.05464
-3.05581
-3.17605
-3.17711
-3.17817
-3.17917
-3.29997
-3.3009
-3.30182
-3.30269
-3.42395
-3.42477
-3.42558
-3.42635
-3.548
-3.54873
-3.54945
-3.55014
-3.67211
-3.67277
-3.67342
-3.67404
-3.79629
-3.79689
-3.79748
-3.79804
-3.92054
-3.92109
-3.92163
-3.92214
-4.04486
-4.04537
-4.04586
-4.04633
-4.16925
-4.16972
-4.17017
-4.1706
-4.29371
-4.29414
-4.29455
-4.29496
-4.41823
-4.41863
-4.41901
-4.41938
-4.54282
-4.54318
-4.54353
-4.54387
-4.66746
-4.66779
-4.66811
-4.66843
-4.79217
-4.79247
-4.79276
-4.79304
-4.91693
-4.9172
-4.91746
-4.91771
-5.04175
-5.04198
-5.04221
-5.04244
-5.16662
-5.16682
-5.16702
-5.16722
-5.29155
-5.29172
-5.29188
-5.29204
-5.41653
-5.41667
-5.41679
-5.41692
-5.54157
-5.54166
-5.54175
-5.54183
-5.66667
-5.66671
-5.66676
-5.6668
269.433
275.867
278.673
277.731
275.534
276.025
277.974
281.715
284.543
283.558
281.764
279.162
277.086
275.619
276.318
279.984
284.585
286.612
291.792
141.868
153.471
159.69
162.409
167.462
177.55
183.364
186.469
188.354
188.56
188.805
186.975
182.549
174.878
167.003
164.29
165.045
167.329
174.866
37.6867
50.2047
60.6483
70.5315
81.1374
89.2804
91.7252
92.9586
95.2151
97.9991
98.5043
96.3946
91.0316
82.4872
73.5798
67.6707
65.8099
69.4345
73.7992
2.14168
5.47149
13.0249
20.8756
25.4791
26.367
26.9119
27.6642
28.6495
29.0306
28.3515
26.8764
23.915
20.5719
17.4709
13.7067
11.7055
13.1387
13.377
1.26238
1.81071
3.39521
4.65617
4.18553
4.43343
5.49267
5.6786
4.99607
3.25946
1.44135
0.976784
0.900872
1.37443
1.18431
0.508572
0.0621322
-0.418072
-0.743604
1.04333
1.07372
1.34053
1.229
1.00122
1.13901
1.27288
1.32352
1.27676
0.890266
0.720201
0.602119
0.538409
0.229734
-0.211414
-0.421237
-0.563763
-0.672547
-0.740262
0.762618
0.643026
0.469736
0.380019
0.330194
0.171323
-0.0506661
-0.228845
-0.237776
-0.065027
0.00886211
-0.0843294
-0.237544
-0.55222
-0.753739
-0.866229
-0.903856
-0.959792
-0.972733
-0.0499787
-0.160439
-0.23452
-0.233702
-0.234704
-0.347815
-0.556734
-0.722799
-0.721044
-0.670201
-0.70779
-0.826741
-1.02054
-1.20029
-1.26163
-1.26126
-1.27367
-1.26223
-1.22849
-1.26867
-1.2669
-1.22844
-1.10407
-1.03667
-1.08551
-1.19548
-1.26122
-1.29068
-1.31268
-1.37171
-1.42835
-1.48136
-1.47522
-1.45686
-1.4428
-1.44292
-1.44568
-1.43119
-1.78792
-1.77769
-1.75739
-1.72507
-1.69983
-1.69103
-1.67159
-1.66224
-1.69049
-1.70919
-1.708
-1.6839
-1.6527
-1.62326
-1.60594
-1.59718
-1.58606
-1.58773
-1.57897
-1.85214
-1.86886
-1.87261
-1.88029
-1.88496
-1.88085
-1.87096
-1.85934
-1.853
-1.83994
-1.81679
-1.80029
-1.78069
-1.76042
-1.74429
-1.73469
-1.72819
-1.72987
-1.72599
-1.97252
-1.98253
-1.9876
-1.98969
-1.98966
-1.98624
-1.9788
-1.97072
-1.96548
-1.9571
-1.9426
-1.9285
-1.91313
-1.89719
-1.88402
-1.87413
-1.87006
-1.87113
-1.86859
-2.08941
-2.09856
-2.10364
-2.10603
-2.10618
-2.10352
-2.09799
-2.09158
-2.0862
-2.07935
-2.06937
-2.05775
-2.04466
-2.03139
-2.02202
-2.01393
-2.00903
-2.00781
-2.00446
-2.20726
-2.21491
-2.21954
-2.22195
-2.22246
-2.22073
-2.21689
-2.21199
-2.20697
-2.20117
-2.19376
-2.18373
-2.17191
-2.16097
-2.15278
-2.14653
-2.14095
-2.13665
-2.13442
-2.32673
-2.33305
-2.3371
-2.33922
-2.33972
-2.33857
-2.33581
-2.33199
-2.32755
-2.32236
-2.31579
-2.30696
-2.29758
-2.28851
-2.28068
-2.27386
-2.268
-2.26366
-2.26263
-2.44715
-2.45247
-2.45609
-2.45803
-2.45846
-2.45754
-2.45541
-2.45232
-2.44846
-2.44366
-2.43782
-2.43069
-2.42298
-2.41532
-2.40822
-2.40174
-2.39614
-2.39196
-2.39071
-2.56831
-2.57266
-2.57588
-2.57771
-2.57816
-2.57741
-2.57571
-2.57314
-2.5698
-2.56563
-2.56062
-2.55476
-2.54841
-2.54203
-2.53591
-2.53021
-2.5252
-2.52115
-2.51956
-2.69004
-2.6936
-2.69628
-2.69793
-2.69843
-2.69794
-2.69661
-2.6945
-2.69168
-2.68815
-2.68395
-2.67915
-2.674
-2.66885
-2.66394
-2.65946
-2.65566
-2.65274
-2.65116
-2.81222
-2.81517
-2.81742
-2.81884
-2.81938
-2.8191
-2.81807
-2.81637
-2.81404
-2.81111
-2.80765
-2.80378
-2.79971
-2.79572
-2.79206
-2.78902
-2.78694
-2.78675
-2.78405
-2.93477
-2.93725
-2.93915
-2.9404
-2.94094
-2.94081
-2.94004
-2.93869
-2.9368
-2.93442
-2.93162
-2.92855
-2.92539
-2.92239
-2.9198
-2.91793
-2.91701
-2.91906
-2.91527
-3.05763
-3.05973
-3.06137
-3.06248
-3.06302
-3.06299
-3.06243
-3.06138
-3.05988
-3.05798
-3.05576
-3.05335
-3.05091
-3.04866
-3.04682
-3.04565
-3.04524
-3.04684
-3.04471
-3.18073
-3.18255
-3.18398
-3.18498
-3.18551
-3.18557
-3.18519
-3.18439
-3.18322
-3.18172
-3.17999
-3.17811
-3.17622
-3.17449
-3.1731
-3.17219
-3.17181
-3.17214
-3.17145
-3.30405
-3.30564
-3.30692
-3.30783
-3.30835
-3.30849
-3.30825
-3.30766
-3.30677
-3.30561
-3.30426
-3.30279
-3.30131
-3.29994
-3.29877
-3.29786
-3.29711
-3.29633
-3.29452
-3.42755
-3.42897
-3.43012
-3.43096
-3.43148
-3.43168
-3.43156
-3.43116
-3.43049
-3.4296
-3.42855
-3.4274
-3.42622
-3.42508
-3.42403
-3.42305
-3.42195
-3.42052
-3.41771
-3.55121
-3.55249
-3.55354
-3.55433
-3.55486
-3.55511
-3.55509
-3.55483
-3.55434
-3.55367
-3.55286
-3.55195
-3.55099
-3.55002
-3.54905
-3.54802
-3.54674
-3.54505
-3.54245
-3.67501
-3.67618
-3.67715
-3.6779
-3.67843
-3.67872
-3.67879
-3.67864
-3.67831
-3.67782
-3.67719
-3.67647
-3.67568
-3.67483
-3.6739
-3.67284
-3.67145
-3.66956
-3.66695
-3.79893
-3.80001
-3.80092
-3.80164
-3.80217
-3.8025
-3.80263
-3.80259
-3.80238
-3.80203
-3.80155
-3.80097
-3.8003
-3.79954
-3.79865
-3.79755
-3.79607
-3.794
-3.79134
-3.92296
-3.92397
-3.92482
-3.92552
-3.92605
-3.92641
-3.92661
-3.92664
-3.92654
-3.9263
-3.92594
-3.92548
-3.92491
-3.92421
-3.92334
-3.92222
-3.92065
-3.91841
-3.91566
-4.04709
-4.04803
-4.04885
-4.04953
-4.05006
-4.05044
-4.05069
-4.05079
-4.05077
-4.05062
-4.05037
-4.05
-4.04951
-4.04887
-4.04804
-4.04691
-4.04529
-4.0429
-4.04011
-4.17131
-4.1722
-4.17297
-4.17363
-4.17416
-4.17457
-4.17485
-4.17501
-4.17506
-4.175
-4.17483
-4.17454
-4.17413
-4.17355
-4.17277
-4.17168
-4.17008
-4.16772
-4.16483
-4.29561
-4.29645
-4.29719
-4.29783
-4.29836
-4.29878
-4.29909
-4.2993
-4.29941
-4.29942
-4.29932
-4.29911
-4.29877
-4.29826
-4.29754
-4.29651
-4.29502
-4.29282
-4.28981
-4.41999
-4.42078
-4.42148
-4.4221
-4.42262
-4.42305
-4.42339
-4.42364
-4.4238
-4.42387
-4.42385
-4.42371
-4.42344
-4.423
-4.42233
-4.42134
-4.41988
-4.41774
-4.41513
-4.54444
-4.54517
-4.54584
-4.54643
-4.54694
-4.54737
-4.54773
-4.54801
-4.54822
-4.54835
-4.54839
-4.54833
-4.54814
-4.54777
-4.54715
-4.54615
-4.54457
-4.54223
-4.53976
-4.66895
-4.66963
-4.67025
-4.67081
-4.67131
-4.67174
-4.6721
-4.67241
-4.67265
-4.67283
-4.67294
-4.67296
-4.67286
-4.67259
-4.67204
-4.67106
-4.66935
-4.66675
-4.66358
-4.79352
-4.79414
-4.79472
-4.79524
-4.79571
-4.79613
-4.79649
-4.79681
-4.79708
-4.7973
-4.79747
-4.79759
-4.79761
-4.79747
-4.79708
-4.79623
-4.7946
-4.79201
-4.78861
-4.91814
-4.91871
-4.91923
-4.91971
-4.92014
-4.92054
-4.92089
-4.92121
-4.92149
-4.92175
-4.92198
-4.92218
-4.92234
-4.9224
-4.92227
-4.92174
-4.92043
-4.91805
-4.91482
-5.04281
-5.04332
-5.04378
-5.04421
-5.0446
-5.04496
-5.04529
-5.04559
-5.04587
-5.04614
-5.04642
-5.04671
-5.04701
-5.04731
-5.04754
-5.04749
-5.0467
-5.04458
-5.04139
-5.16754
-5.16797
-5.16837
-5.16874
-5.16908
-5.16939
-5.16968
-5.16995
-5.17021
-5.17048
-5.17077
-5.17112
-5.17155
-5.1721
-5.17277
-5.1734
-5.17338
-5.17156
-5.16823
-5.29231
-5.29266
-5.29299
-5.29329
-5.29357
-5.29382
-5.29406
-5.29428
-5.29451
-5.29474
-5.29502
-5.29537
-5.29588
-5.29663
-5.29776
-5.29926
-5.3005
-5.29917
-5.29569
-5.41712
-5.41739
-5.41764
-5.41787
-5.41808
-5.41827
-5.41844
-5.41861
-5.41877
-5.41894
-5.41916
-5.41946
-5.41993
-5.42072
-5.42212
-5.42456
-5.42787
-5.42778
-5.425
-5.54198
-5.54216
-5.54233
-5.54248
-5.54261
-5.54272
-5.54282
-5.54292
-5.54301
-5.5431
-5.54322
-5.5434
-5.54371
-5.54429
-5.54556
-5.54885
-5.55623
-5.55877
-5.55946
-5.66687
-5.66696
-5.66703
-5.66709
-5.66713
-5.66716
-5.66717
-5.66718
-5.66719
-5.66719
-5.66721
-5.66725
-5.66738
-5.66773
-5.66873
-5.67258
-5.68748
-5.6914
-5.69754
)
;

boundaryField
{
    leftWall
    {
        type            calculated;
        value           nonuniform List<scalar> 
50
(
702.684
643.962
585.219
526.487
467.77
409.077
350.419
291.808
200.265
81.2253
12.0047
-0.197133
-0.276719
-0.543891
-0.904327
-1.25631
-1.47512
-1.62013
-1.75044
-1.88115
-2.01005
-2.13828
-2.26623
-2.39378
-2.5209
-2.64766
-2.77409
-2.90024
-3.02614
-3.15183
-3.27735
-3.40276
-3.52813
-3.65352
-3.779
-3.90459
-4.03031
-4.15614
-4.28208
-4.40808
-4.53414
-4.66021
-4.78627
-4.91231
-5.0383
-5.16423
-5.29007
-5.4158
-5.54137
-5.66695
)
;
    }
    rightWall
    {
        type            calculated;
        value           nonuniform List<scalar> 
50
(
771.203
712.861
653.882
595.491
540.613
488.471
436.12
381.296
291.792
174.866
73.7992
13.377
-0.743604
-0.740262
-0.972733
-1.22849
-1.43119
-1.57897
-1.72599
-1.86859
-2.00446
-2.13442
-2.26263
-2.39071
-2.51956
-2.65116
-2.78405
-2.91527
-3.04471
-3.17145
-3.29452
-3.41771
-3.54245
-3.66695
-3.79134
-3.91566
-4.04011
-4.16483
-4.28981
-4.41513
-4.53976
-4.66358
-4.78861
-4.91482
-5.04139
-5.16823
-5.29569
-5.425
-5.55946
-5.69754
)
;
    }
    lowerWall
    {
        type            calculated;
        value           nonuniform List<scalar> 
62
(
732.114
731.711
731.54
731.366
731.149
730.912
730.692
730.526
730.439
730.45
730.573
730.823
731.223
731.801
732.581
733.569
734.747
735.978
736.805
739.546
743.163
745.663
747.419
718.33
659.203
600.227
541.73
483.715
426.023
368.426
312.365
279.57
287.458
296.883
306.576
776.712
719.081
660.668
601.753
542.891
484.1
424.733
364.524
805.909
801.175
801.981
801.727
799.615
795.353
788.523
782.248
782.245
786.652
790.082
793.038
795.166
795.401
797.742
800.325
801.513
800.406
799.518
)
;
    }
    atmosphere
    {
        type            calculated;
        value           nonuniform List<scalar> 
46
(
-5.72904
-5.72904
-5.72904
-5.72904
-5.72904
-5.72904
-5.72904
-5.72904
-5.72904
-5.72904
-5.72904
-5.72904
-5.72904
-5.72904
-5.72904
-5.72904
-5.72904
-5.72905
-5.72907
-5.7291
-5.72914
-5.72919
-5.72924
-5.72927
-5.72929
-5.72931
-5.72933
-5.72936
-5.72938
-5.7294
-5.72939
-5.72938
-5.72935
-5.72932
-5.72928
-5.72923
-5.72919
-5.72915
-5.72912
-5.7291
-5.72909
-5.72908
-5.72908
-5.72905
-5.72904
-5.78303
)
;
    }
    defaultFaces
    {
        type            empty;
    }
}


// ************************************************************************* //
