/*--------------------------------*- C++ -*----------------------------------*\
  =========                 |
  \\      /  F ield         | OpenFOAM: The Open Source CFD Toolbox
   \\    /   O peration     | Website:  https://openfoam.org
    \\  /    A nd           | Version:  9
     \\/     M anipulation  |
\*---------------------------------------------------------------------------*/
FoamFile
{
    format      ascii;
    class       volVectorField;
    location    "3.17";
    object      U;
}
// * * * * * * * * * * * * * * * * * * * * * * * * * * * * * * * * * * * * * //

dimensions      [0 1 -1 0 0 0 0];

internalField   nonuniform List<vector> 
2268
(
(-0.00349855 0.00158186 0)
(-0.00802977 0.00122412 0)
(-0.0117769 0.00100371 0)
(-0.0152956 0.000802966 0)
(-0.0181428 0.000658974 0)
(-0.0206076 0.000549715 0)
(-0.022645 0.000435973 0)
(-0.0241951 0.000295398 0)
(-0.0251797 0.000141246 0)
(-0.0255384 -2.8662e-05 0)
(-0.0252018 -0.000239228 0)
(-0.0240772 -0.000474658 0)
(-0.0220968 -0.000744023 0)
(-0.0192038 -0.00105628 0)
(-0.0152676 -0.00143822 0)
(-0.0103664 -0.00195113 0)
(-0.00373432 -0.00224968 0)
(0.00103161 0.00012831 0)
(-0.00375983 0.00353304 0)
(-0.0135746 0.00272515 0)
(-0.016185 -0.000567471 0)
(-0.0115653 -0.00255398 0)
(-0.00341183 -0.00184644 0)
(-0.00315251 0.00388722 0)
(-0.00750683 0.00317594 0)
(-0.0113747 0.00278549 0)
(-0.0152342 0.00238113 0)
(-0.0185849 0.00203597 0)
(-0.021526 0.0017228 0)
(-0.0239734 0.00137627 0)
(-0.025839 0.000973002 0)
(-0.0270423 0.000524413 0)
(-0.0275349 3.32106e-05 0)
(-0.0272596 -0.00052051 0)
(-0.0261396 -0.00112577 0)
(-0.0241583 -0.00176796 0)
(-0.0213387 -0.00244702 0)
(-0.017736 -0.00316525 0)
(-0.0136281 -0.00388045 0)
(-0.00927522 -0.00387638 0)
(-0.00620686 -0.000140705 0)
(-0.00598283 0.00427485 0)
(-0.00804375 0.00392488 0)
(-0.0089173 -0.000576445 0)
(-0.00776802 -0.00420809 0)
(-0.00391588 -0.00528445 0)
(-0.00274601 0.00613805 0)
(-0.00722358 0.00510955 0)
(-0.0112516 0.00461109 0)
(-0.0153344 0.0040787 0)
(-0.0189884 0.0035572 0)
(-0.0222256 0.00303047 0)
(-0.0249382 0.00242733 0)
(-0.0270207 0.0017268 0)
(-0.0283904 0.000949665 0)
(-0.0289943 9.77155e-05 0)
(-0.0287793 -0.000831578 0)
(-0.0276981 -0.00182715 0)
(-0.0257613 -0.00284645 0)
(-0.0230452 -0.0038581 0)
(-0.019701 -0.00481533 0)
(-0.0161117 -0.00555883 0)
(-0.0128166 -0.00526421 0)
(-0.009819 -0.00120602 0)
(-0.00699592 0.00344326 0)
(-0.00507457 0.00370945 0)
(-0.00407665 -0.000622456 0)
(-0.00389352 -0.0046648 0)
(-0.00253835 -0.00733462 0)
(-0.00255699 0.00837672 0)
(-0.00714923 0.00719708 0)
(-0.0114073 0.00659311 0)
(-0.0156975 0.00593271 0)
(-0.0195898 0.00523063 0)
(-0.0230578 0.00447768 0)
(-0.0259789 0.00359683 0)
(-0.0282315 0.00257287 0)
(-0.0297307 0.0014405 0)
(-0.0304263 0.000209852 0)
(-0.0302706 -0.00112168 0)
(-0.0292303 -0.00252152 0)
(-0.0273359 -0.00391758 0)
(-0.024696 -0.00524097 0)
(-0.0215066 -0.00638863 0)
(-0.0181595 -0.0071135 0)
(-0.0151843 -0.00659635 0)
(-0.0119053 -0.00283288 0)
(-0.00750766 0.00171313 0)
(-0.00307926 0.00244067 0)
(-0.000475467 -0.00103271 0)
(-0.000283344 -0.00475713 0)
(-0.000356675 -0.0082939 0)
(-0.00249722 0.0105807 0)
(-0.00722429 0.00939592 0)
(-0.0117455 0.00869933 0)
(-0.0162412 0.0079071 0)
(-0.0203415 0.0070211 0)
(-0.024007 0.00603381 0)
(-0.0271069 0.00485903 0)
(-0.0295031 0.00349058 0)
(-0.0311098 0.0019829 0)
(-0.031884 0.000354915 0)
(-0.0317822 -0.00139281 0)
(-0.0307765 -0.00320659 0)
(-0.0289086 -0.0049797 0)
(-0.026302 -0.00660438 0)
(-0.0231583 -0.00792699 0)
(-0.0198092 -0.00864898 0)
(-0.0166249 -0.00804513 0)
(-0.0128513 -0.00482337 0)
(-0.00746808 -0.00075731 0)
(-0.00155394 0.000376905 0)
(0.00220943 -0.00180485 0)
(0.00297162 -0.00458691 0)
(0.00180555 -0.00797914 0)
(-0.0025254 0.0128106 0)
(-0.00743115 0.0116923 0)
(-0.0122126 0.0109072 0)
(-0.0169033 0.00997263 0)
(-0.0211862 0.00889779 0)
(-0.0250235 0.00767144 0)
(-0.0282785 0.00619082 0)
(-0.0307951 0.00446148 0)
(-0.0324883 0.00256473 0)
(-0.0333259 0.000528533 0)
(-0.0332675 -0.00164464 0)
(-0.0322841 -0.00387966 0)
(-0.0304213 -0.00603323 0)
(-0.027803 -0.00796291 0)
(-0.0246108 -0.00947901 0)
(-0.0210927 -0.0102696 0)
(-0.0174447 -0.00974805 0)
(-0.0130083 -0.00711732 0)
(-0.00691327 -0.00367274 0)
(-0.000169641 -0.00217162 0)
(0.00455865 -0.00294917 0)
(0.0062647 -0.00420279 0)
(0.00427893 -0.00497961 0)
(-0.00264834 0.0150816 0)
(-0.00774421 0.0140909 0)
(-0.012757 0.0132111 0)
(-0.0176197 0.0121202 0)
(-0.0220576 0.0108499 0)
(-0.0260402 0.00938069 0)
(-0.029426 0.00758275 0)
(-0.0320384 0.00547616 0)
(-0.0337945 0.00317817 0)
(-0.0346758 0.000725442 0)
(-0.0346452 -0.00188213 0)
(-0.0336688 -0.00454833 0)
(-0.0317893 -0.00709261 0)
(-0.0291209 -0.00934542 0)
(-0.0258127 -0.011097 0)
(-0.0220314 -0.0120499 0)
(-0.0178383 -0.0117579 0)
(-0.0126859 -0.00972752 0)
(-0.00595628 -0.00688816 0)
(0.00147957 -0.0051193 0)
(0.00733764 -0.00461482 0)
(0.0109445 -0.00403759 0)
(0.00914527 -0.0064566 0)
(-0.00285786 0.0172878 0)
(-0.00812863 0.0166411 0)
(-0.0133092 0.0156458 0)
(-0.0183154 0.0143782 0)
(-0.022879 0.0129006 0)
(-0.0269784 0.0111796 0)
(-0.0304675 0.00904605 0)
(-0.0331481 0.00653853 0)
(-0.0349394 0.00382142 0)
(-0.0358393 0.000939358 0)
(-0.0358158 -0.00211957 0)
(-0.0348296 -0.00523678 0)
(-0.0329149 -0.00819326 0)
(-0.0301697 -0.0108039 0)
(-0.0267058 -0.0128527 0)
(-0.0226212 -0.0140719 0)
(-0.0178829 -0.0141365 0)
(-0.0120358 -0.012732 0)
(-0.00465567 -0.0104881 0)
(0.00357442 -0.00864929 0)
(0.0108647 -0.00726161 0)
(0.0161601 -0.00444273 0)
(0.0181847 0.00779951 0)
(0.00180503 -0.00198103 0)
(0.0219328 -0.00752047 0)
(0.047809 -0.00678373 0)
(0.0671327 -0.00487987 0)
(0.0796559 -0.00291821 0)
(0.086342 -0.000908368 0)
(0.0861759 0.00130668 0)
(0.0781503 0.00346951 0)
(0.0622461 0.00489217 0)
(0.0479917 0.00219007 0)
(0.0459267 -7.32218e-05 0)
(0.0390349 0.00479174 0)
(0.0189842 0.0049368 0)
(0.00869979 -0.000269109 0)
(0.021334 -0.00723056 0)
(0.0435808 -0.00512844 0)
(0.0517589 0.00238278 0)
(0.0301984 0.00712745 0)
(0.00271367 0.00372398 0)
(0.00966131 -0.0077167 0)
(0.0269119 -0.015346 0)
(0.0477423 -0.0137044 0)
(0.0627512 -0.00987388 0)
(0.0721932 -0.00588314 0)
(0.0772737 -0.00199593 0)
(0.0779105 0.00259521 0)
(0.0723901 0.00724084 0)
(0.0612477 0.00947896 0)
(0.0498639 0.00552572 0)
(0.0433263 0.00248504 0)
(0.0367048 0.00907277 0)
(0.0254004 0.00873241 0)
(0.0201919 -2.06505e-05 0)
(0.0248913 -0.0110853 0)
(0.0360283 -0.00942255 0)
(0.0433712 0.00525657 0)
(0.0313256 0.0152996 0)
(0.00763467 0.0102528 0)
(0.0104993 -0.0157915 0)
(0.0280239 -0.023684 0)
(0.0468159 -0.0202575 0)
(0.0591517 -0.0142781 0)
(0.0664562 -0.00844159 0)
(0.0703308 -0.00300778 0)
(0.0703613 0.0036105 0)
(0.0653491 0.0102423 0)
(0.0571535 0.0131813 0)
(0.0485222 0.00909142 0)
(0.0409264 0.00561259 0)
(0.0348804 0.011814 0)
(0.0292612 0.0108911 0)
(0.0264614 0.000202869 0)
(0.0261726 -0.0124378 0)
(0.029357 -0.0126186 0)
(0.0354635 0.00589848 0)
(0.0298964 0.0218096 0)
(0.00970455 0.0183194 0)
(0.00833348 -0.0234132 0)
(0.0279371 -0.0323612 0)
(0.0459234 -0.0264209 0)
(0.0561672 -0.0180337 0)
(0.0617147 -0.0104897 0)
(0.0646581 -0.00371934 0)
(0.0644869 0.00470312 0)
(0.0601884 0.0127613 0)
(0.0541721 0.0160702 0)
(0.047426 0.0123214 0)
(0.0397057 0.00874424 0)
(0.0347252 0.0134674 0)
(0.0326695 0.0121122 0)
(0.0306032 0.000960895 0)
(0.0264123 -0.0115394 0)
(0.0231673 -0.0138396 0)
(0.0279023 0.00467065 0)
(0.0297696 0.0268468 0)
(0.0139854 0.0268133 0)
(0.00768984 -0.029538 0)
(0.0290537 -0.0413149 0)
(0.0458544 -0.0320502 0)
(0.053837 -0.0210435 0)
(0.0576241 -0.0120097 0)
(0.0597676 -0.00427553 0)
(0.0597121 0.00564224 0)
(0.0563178 0.0147479 0)
(0.051995 0.0182481 0)
(0.0468183 0.0151665 0)
(0.0398961 0.0116176 0)
(0.0359579 0.0143517 0)
(0.0355779 0.0127104 0)
(0.0331981 0.00260265 0)
(0.026053 -0.00886214 0)
(0.0178691 -0.0130218 0)
(0.0193114 0.00183842 0)
(0.0277008 0.0289537 0)
(0.0208594 0.0363809 0)
(0.0139487 -0.0362695 0)
(0.0334138 -0.0500431 0)
(0.0470365 -0.0366797 0)
(0.0521177 -0.0231227 0)
(0.0539749 -0.0129463 0)
(0.0553413 -0.00475636 0)
(0.0556333 0.00631573 0)
(0.0533668 0.0162041 0)
(0.0505464 0.0198057 0)
(0.0468244 0.0174657 0)
(0.041358 0.0139546 0)
(0.0383476 0.0149 0)
(0.038119 0.0131945 0)
(0.034892 0.00498695 0)
(0.0257799 -0.00491513 0)
(0.01435 -0.0103664 0)
(0.0108436 -0.00073834 0)
(0.0214258 0.0264147 0)
(0.0284365 0.047202 0)
(0.0330589 -0.0516147 0)
(0.0418411 -0.0572402 0)
(0.0492633 -0.0394193 0)
(0.050791 -0.0240483 0)
(0.0505652 -0.0132275 0)
(0.0510631 -0.00519279 0)
(0.0517915 0.00662563 0)
(0.0509936 0.0170616 0)
(0.0497778 0.0207817 0)
(0.0474713 0.0191379 0)
(0.043666 0.0156364 0)
(0.041481 0.0153915 0)
(0.0406445 0.013991 0)
(0.0363401 0.00792322 0)
(0.0259742 -8.73183e-05 0)
(0.0125628 -0.00622856 0)
(0.00413692 -0.00142629 0)
(0.00992731 0.0208798 0)
(0.0260942 0.0573333 0)
(0.0664206 -0.0758358 0)
(0.0533045 -0.0600143 0)
(0.0516762 -0.0391208 0)
(0.0494264 -0.023597 0)
(0.0472443 -0.0128286 0)
(0.0466891 -0.00546527 0)
(0.0477935 0.00637853 0)
(0.048924 0.0170814 0)
(0.0495955 0.0210812 0)
(0.0488532 0.0201176 0)
(0.0467541 0.0167136 0)
(0.045055 0.0160396 0)
(0.0432309 0.0152844 0)
(0.0379386 0.0113148 0)
(0.026847 0.00536767 0)
(0.0121882 -0.000862623 0)
(-6.26756e-05 0.000564059 0)
(-0.00290665 0.0167074 0)
(0.0105339 0.0645098 0)
(-0.00286818 0.0229831 0)
(-0.00845391 0.0211643 0)
(-0.0140099 0.0198156 0)
(-0.0192272 0.0181956 0)
(-0.0239527 0.0163499 0)
(-0.0281879 0.0141976 0)
(-0.0317873 0.0114853 0)
(-0.0345268 0.00829167 0)
(-0.0363256 0.00487155 0)
(-0.0372046 0.00128201 0)
(-0.0371475 -0.00253426 0)
(-0.0361159 -0.00641121 0)
(-0.0341246 -0.0100671 0)
(-0.0312376 -0.0133211 0)
(-0.0275088 -0.0159657 0)
(-0.0229479 -0.0177904 0)
(-0.0174233 -0.0186211 0)
(-0.0105842 -0.018295 0)
(-0.00217904 -0.0170886 0)
(0.00748459 -0.0156562 0)
(0.0178187 -0.0140392 0)
(0.0292728 -0.0107817 0)
(0.0461403 -0.00242336 0)
(-0.00296624 0.0243436 0)
(-0.00844356 0.025818 0)
(-0.0142843 0.0246358 0)
(-0.0196056 0.0226191 0)
(-0.0244572 0.020325 0)
(-0.0287101 0.017662 0)
(-0.0322433 0.0142145 0)
(-0.0349171 0.0101526 0)
(-0.0365838 0.00586309 0)
(-0.0372325 0.00141455 0)
(-0.0369427 -0.00328669 0)
(-0.0357662 -0.00804127 0)
(-0.0336722 -0.0125688 0)
(-0.0306411 -0.0166937 0)
(-0.0266664 -0.0202461 0)
(-0.0216513 -0.0230906 0)
(-0.0153974 -0.025175 0)
(-0.00769501 -0.0263975 0)
(0.00159687 -0.0268059 0)
(0.0124569 -0.0268619 0)
(0.0247452 -0.026989 0)
(0.0386593 -0.0274564 0)
(0.0557551 -0.0293602 0)
(-0.00668739 0.0318436 0)
(-0.00812074 0.0315699 0)
(-0.0125294 0.0292008 0)
(-0.0185833 0.0258652 0)
(-0.0250916 0.0232978 0)
(-0.0292188 0.0207218 0)
(-0.0316778 0.0167216 0)
(-0.0341827 0.0116856 0)
(-0.0358824 0.0067274 0)
(-0.0358659 0.00172267 0)
(-0.0347266 -0.00361258 0)
(-0.0331592 -0.00903449 0)
(-0.0309373 -0.0142578 0)
(-0.0278616 -0.0190316 0)
(-0.0238433 -0.0232284 0)
(-0.018461 -0.0267422 0)
(-0.0114414 -0.0297754 0)
(-0.00333815 -0.0322149 0)
(0.00570089 -0.0338394 0)
(0.0164736 -0.0348891 0)
(0.0292982 -0.0360016 0)
(0.0433915 -0.0373722 0)
(0.0584544 -0.0394543 0)
(-0.0638166 0.0465829 0)
(-0.0120753 0.0303473 0)
(-0.00321207 0.0315965 0)
(-0.0138313 0.0286537 0)
(-0.0317576 0.0262467 0)
(-0.0345034 0.0217212 0)
(-0.0291322 0.0188094 0)
(-0.0323024 0.0140607 0)
(-0.0363203 0.00800529 0)
(-0.0335314 0.00142331 0)
(-0.0286311 -0.00384247 0)
(-0.026323 -0.00918784 0)
(-0.0238522 -0.0152214 0)
(-0.0208126 -0.0201103 0)
(-0.0174957 -0.0247968 0)
(-0.0115315 -0.0292754 0)
(-0.00159018 -0.0332079 0)
(0.00683317 -0.0352406 0)
(0.0123117 -0.0375381 0)
(0.0204149 -0.0399622 0)
(0.033739 -0.0421196 0)
(0.0463876 -0.0423627 0)
(0.0558654 -0.04415 0)
(-0.0658095 0.110417 0)
(-0.0232519 -0.0376314 0)
(0.0220888 0.0247942 0)
(-0.00543718 0.0890916 0)
(-0.0858409 0.0665965 0)
(-0.0861938 0.00739258 0)
(-0.0740426 0.0136852 0)
(-0.0583452 0.0232364 0)
(-0.04398 0.00609366 0)
(-0.0292777 -0.0140562 0)
(-0.0142717 -0.0163097 0)
(-0.0010608 -0.0185053 0)
(0.00971968 -0.0283433 0)
(0.0208934 -0.034269 0)
(0.0340478 -0.0438405 0)
(0.0530015 -0.0588093 0)
(0.0765232 -0.0715898 0)
(0.100183 -0.0651309 0)
(0.0988325 -0.0589791 0)
(0.0852398 -0.0779696 0)
(0.0807082 -0.0898451 0)
(0.0671547 -0.0700595 0)
(0.0172266 -0.0651162 0)
(0.0127545 0.146041 0)
(0.00925768 -0.0518704 0)
(0.00350902 0.00216538 0)
(0.00452885 0.134592 0)
(-0.031794 0.100117 0)
(-0.0378117 0.00313252 0)
(-0.0335833 -0.00965205 0)
(-0.0134039 -0.00699003 0)
(0.00333617 -0.00991669 0)
(0.00689221 -0.024153 0)
(0.008222 -0.0260458 0)
(0.0149638 -0.0282632 0)
(0.0232252 -0.0355639 0)
(0.0319009 -0.0417601 0)
(0.0423294 -0.05247 0)
(0.0534895 -0.0674975 0)
(0.0629359 -0.0764225 0)
(0.0739346 -0.0607804 0)
(0.0918812 -0.0208762 0)
(0.089604 -0.0397502 0)
(0.0726359 -0.04649 0)
(0.0510766 0.00476895 0)
(0.0313189 -0.0184122 0)
(0.0535914 0.0844906 0)
(0.0130056 -0.0138942 0)
(-0.0340219 0.0142024 0)
(-0.0114383 0.12976 0)
(0.0262632 0.10241 0)
(0.0377923 0.0128194 0)
(0.028379 -0.0113272 0)
(0.0317001 -0.0184681 0)
(0.0390434 -0.0191278 0)
(0.0375082 -0.0224154 0)
(0.0276083 -0.0258872 0)
(0.0275663 -0.033277 0)
(0.0317743 -0.0410688 0)
(0.0366969 -0.0480335 0)
(0.0416371 -0.0577509 0)
(0.0404077 -0.0708334 0)
(0.0280649 -0.0829165 0)
(0.0196919 -0.0771339 0)
(0.0348102 -0.0469028 0)
(0.0633995 -0.0414067 0)
(0.0645864 -0.0333686 0)
(0.0599678 0.00765112 0)
(0.0586474 -0.0173532 0)
(0.0385719 0.0625783 0)
(-0.00679179 0.0374848 0)
(-0.0499898 0.0298979 0)
(-0.0160136 0.078517 0)
(0.0389708 0.0532336 0)
(0.0723559 0.00820694 0)
(0.0779914 -0.0123056 0)
(0.0667874 -0.0156841 0)
(0.0512867 -0.0159761 0)
(0.0425764 -0.0101828 0)
(0.0369321 -0.0205893 0)
(0.0329597 -0.0353194 0)
(0.0290568 -0.0448823 0)
(0.0254893 -0.0529903 0)
(0.0202709 -0.0590824 0)
(0.0114927 -0.0634494 0)
(0.00390354 -0.070624 0)
(-0.00429556 -0.0781927 0)
(0.00374973 -0.0757231 0)
(0.0261444 -0.0654035 0)
(0.0453817 -0.039404 0)
(0.0584457 -0.00117225 0)
(0.0581969 -0.00789014 0)
(-0.000986843 0.056424 0)
(0.00863057 0.0750905 0)
(-0.0108902 0.0356129 0)
(0.00898365 0.0368024 0)
(0.0466845 0.00985693 0)
(0.0665623 -0.0113583 0)
(0.0670488 -0.00735452 0)
(0.0566989 0.00542763 0)
(0.0473134 -0.000176297 0)
(0.0403455 -0.00473171 0)
(0.035226 -0.0148218 0)
(0.0297378 -0.027463 0)
(0.0235361 -0.0375316 0)
(0.0176314 -0.0449247 0)
(0.0122185 -0.0490156 0)
(0.00740321 -0.0534434 0)
(0.0028355 -0.0622078 0)
(-0.00346617 -0.0730989 0)
(-0.00429438 -0.086511 0)
(0.00261862 -0.0816617 0)
(0.0128734 -0.053977 0)
(0.0235147 -0.0116499 0)
(0.026593 0.00322483 0)
(0.00751596 0.0471641 0)
(0.026931 0.0617804 0)
(0.0337193 0.033014 0)
(0.0402759 0.0119816 0)
(0.0502802 -0.00969691 0)
(0.0476522 -0.0140293 0)
(0.040558 -0.000965641 0)
(0.036839 0.00747828 0)
(0.0340669 0.00496564 0)
(0.0307299 -0.0010966 0)
(0.0271958 -0.0104716 0)
(0.0225852 -0.0211897 0)
(0.0170402 -0.0308502 0)
(0.0114546 -0.0387239 0)
(0.00689491 -0.0444058 0)
(0.00383822 -0.0504784 0)
(0.00143339 -0.0585436 0)
(-0.000710291 -0.0685812 0)
(-0.00616385 -0.0841578 0)
(-0.0139959 -0.0846021 0)
(-0.018667 -0.0586148 0)
(-0.016057 -0.0189335 0)
(-0.00959118 0.00158022 0)
(0.0103036 0.026401 0)
(0.0284575 0.0391032 0)
(0.038087 0.0258505 0)
(0.0403272 0.0109511 0)
(0.0377073 -0.000977214 0)
(0.0295909 -0.0028294 0)
(0.0227057 0.00386631 0)
(0.0201075 0.00863463 0)
(0.0190545 0.00698547 0)
(0.0175693 0.00129184 0)
(0.0153536 -0.00712914 0)
(0.0119843 -0.0166733 0)
(0.00773848 -0.0258443 0)
(0.00336653 -0.0340692 0)
(-0.000341845 -0.0412033 0)
(-0.00312803 -0.0483944 0)
(-0.00568685 -0.0563687 0)
(-0.00913646 -0.064875 0)
(-0.0162584 -0.0736563 0)
(-0.0284077 -0.0743008 0)
(-0.0391721 -0.0533435 0)
(-0.0399731 -0.0240916 0)
(-0.0340631 -0.00539272 0)
(0.00529527 0.0115323 0)
(0.017887 0.0251723 0)
(0.0245429 0.0211238 0)
(0.02487 0.013164 0)
(0.0202766 0.00626632 0)
(0.0129532 0.00493926 0)
(0.00730514 0.00792099 0)
(0.00494251 0.00987342 0)
(0.0041668 0.0079148 0)
(0.00337723 0.00263745 0)
(0.0019658 -0.00487317 0)
(-0.000345128 -0.0134731 0)
(-0.00337803 -0.0221648 0)
(-0.00670328 -0.0304387 0)
(-0.00993269 -0.0380942 0)
(-0.0130246 -0.0454779 0)
(-0.0165618 -0.0527199 0)
(-0.0215881 -0.0592337 0)
(-0.0297525 -0.0634671 0)
(-0.0411689 -0.0606125 0)
(-0.0509335 -0.0459048 0)
(-0.0535297 -0.0260697 0)
(-0.0501538 -0.0109351 0)
(-0.000487927 0.00538035 0)
(0.00515421 0.0185147 0)
(0.00772755 0.0190708 0)
(0.00671169 0.0156289 0)
(0.00259077 0.0119766 0)
(-0.00286027 0.0107618 0)
(-0.00705943 0.0113952 0)
(-0.00908247 0.0112209 0)
(-0.00981507 0.0085632 0)
(-0.0103333 0.00347363 0)
(-0.0112331 -0.00339556 0)
(-0.0127748 -0.0112622 0)
(-0.01494 -0.0194298 0)
(-0.0175761 -0.0274072 0)
(-0.0205464 -0.0349003 0)
(-0.0239299 -0.0418262 0)
(-0.0281452 -0.0479438 0)
(-0.0338329 -0.0525345 0)
(-0.0416505 -0.0541836 0)
(-0.0510359 -0.050373 0)
(-0.0588381 -0.0397529 0)
(-0.0618994 -0.0258991 0)
(-0.0605368 -0.0141558 0)
(-0.00499204 0.0072932 0)
(-0.00529006 0.0175389 0)
(-0.00640838 0.0196076 0)
(-0.00879784 0.0184181 0)
(-0.0124926 0.0163597 0)
(-0.0165586 0.0149816 0)
(-0.0196709 0.0140972 0)
(-0.0213361 0.01244 0)
(-0.0220174 0.00910608 0)
(-0.0224035 0.00402833 0)
(-0.0229867 -0.00242266 0)
(-0.0240413 -0.00971347 0)
(-0.0256624 -0.0173109 0)
(-0.0278514 -0.0247639 0)
(-0.0306094 -0.0317159 0)
(-0.0340387 -0.0378794 0)
(-0.0383814 -0.0428576 0)
(-0.0439098 -0.0459926 0)
(-0.0506985 -0.0463089 0)
(-0.058024 -0.0426144 0)
(-0.0639947 -0.0347228 0)
(-0.0668559 -0.0247075 0)
(-0.0666689 -0.0156343 0)
(-0.00792513 0.015033 0)
(-0.0124867 0.0210656 0)
(-0.0164736 0.0225104 0)
(-0.0201654 0.0217592 0)
(-0.0238422 0.0200393 0)
(-0.0271956 0.0182002 0)
(-0.0296709 0.0162155 0)
(-0.0310807 0.0135003 0)
(-0.0317195 0.00959049 0)
(-0.0320513 0.00443007 0)
(-0.0324709 -0.0017475 0)
(-0.0332462 -0.00856095 0)
(-0.0345289 -0.015587 0)
(-0.0363976 -0.0224203 0)
(-0.0389082 -0.0286898 0)
(-0.0421382 -0.0340421 0)
(-0.0461864 -0.038067 0)
(-0.0510895 -0.0402453 0)
(-0.0566656 -0.0399786 0)
(-0.0622627 -0.0367606 0)
(-0.0667233 -0.0307606 0)
(-0.0690881 -0.0232897 0)
(-0.0694128 -0.0161081 0)
(-0.00948871 0.0262832 0)
(-0.0167006 0.0277044 0)
(-0.0226776 0.0272882 0)
(-0.0274224 0.0257605 0)
(-0.0313149 0.0235243 0)
(-0.03441 0.0209465 0)
(-0.0365921 0.0180211 0)
(-0.03788 0.0144695 0)
(-0.0385188 0.0100601 0)
(-0.0388549 0.00477297 0)
(-0.0392111 -0.00122333 0)
(-0.0398364 -0.00764096 0)
(-0.0408997 -0.0141371 0)
(-0.0425077 -0.0203568 0)
(-0.0447264 -0.025952 0)
(-0.0475971 -0.0305805 0)
(-0.0511246 -0.0338844 0)
(-0.0552238 -0.035488 0)
(-0.0596365 -0.0350483 0)
(-0.0638456 -0.0323892 0)
(-0.0671375 -0.0277676 0)
(-0.0689764 -0.0220204 0)
(-0.0693813 -0.0161826 0)
(-0.00995137 0.0392267 0)
(-0.0185306 0.0361708 0)
(-0.0256742 0.0333289 0)
(-0.031112 0.0303413 0)
(-0.0352424 0.0270678 0)
(-0.0382903 0.0235408 0)
(-0.0403743 0.0197126 0)
(-0.0416372 0.0154257 0)
(-0.042315 0.0105596 0)
(-0.0426935 0.00511932 0)
(-0.0430454 -0.000762936 0)
(-0.0435948 -0.00686184 0)
(-0.044506 -0.0128983 0)
(-0.0458863 -0.0185712 0)
(-0.0477934 -0.0235767 0)
(-0.0502384 -0.0276188 0)
(-0.0531748 -0.030412 0)
(-0.0564705 -0.031698 0)
(-0.059873 -0.0312918 0)
(-0.0629949 -0.0291655 0)
(-0.0653859 -0.0255649 0)
(-0.0667311 -0.0210374 0)
(-0.067025 -0.0162248 0)
(-0.00961283 0.0526008 0)
(-0.01857 0.045443 0)
(-0.0261696 0.0400254 0)
(-0.0319032 0.0352817 0)
(-0.036148 0.0307036 0)
(-0.0391848 0.0261092 0)
(-0.0412403 0.0213873 0)
(-0.0425187 0.0164149 0)
(-0.0432522 0.0111159 0)
(-0.0436901 0.00550299 0)
(-0.0440675 -0.000318956 0)
(-0.0445821 -0.00617216 0)
(-0.0453822 -0.0118319 0)
(-0.0465641 -0.0170508 0)
(-0.0481719 -0.021578 0)
(-0.0501971 -0.025174 0)
(-0.0525717 -0.0276235 0)
(-0.0551573 -0.0287552 0)
(-0.057737 -0.0284765 0)
(-0.0600267 -0.0268206 0)
(-0.061733 -0.0239939 0)
(-0.0626582 -0.0203669 0)
(-0.0627833 -0.0163615 0)
(-0.00875049 0.0654272 0)
(-0.0173239 0.0547057 0)
(-0.0247898 0.0468352 0)
(-0.0304347 0.040294 0)
(-0.0345995 0.0343371 0)
(-0.0375615 0.028651 0)
(-0.039576 0.0230617 0)
(-0.0408638 0.0174444 0)
(-0.0416459 0.0117333 0)
(-0.0421423 0.0059361 0)
(-0.0425566 0.000132339 0)
(-0.0430594 -0.00554032 0)
(-0.043779 -0.0109052 0)
(-0.0447965 -0.015766 0)
(-0.0461431 -0.0199247 0)
(-0.0477995 -0.0231968 0)
(-0.049694 -0.0254261 0)
(-0.0517003 -0.0265032 0)
(-0.0536427 -0.0263879 0)
(-0.0553133 -0.0251348 0)
(-0.0565131 -0.0229098 0)
(-0.0571099 -0.0199733 0)
(-0.0570775 -0.0166178 0)
(-0.00756125 0.0769748 0)
(-0.0151901 0.0633241 0)
(-0.0220495 0.0532957 0)
(-0.0272659 0.0450853 0)
(-0.0311455 0.0378193 0)
(-0.0339264 0.0310992 0)
(-0.0358441 0.0247028 0)
(-0.0371066 0.0184925 0)
(-0.0379137 0.0123985 0)
(-0.0384565 0.00641665 0)
(-0.0389086 0.000601909 0)
(-0.0394142 -0.00494345 0)
(-0.0400804 -0.0100853 0)
(-0.0409722 -0.0146739 0)
(-0.0421104 -0.018559 0)
(-0.043471 -0.0216044 0)
(-0.0449867 -0.0237014 0)
(-0.0465499 -0.0247829 0)
(-0.0480215 -0.0248387 0)
(-0.0492479 -0.0239277 0)
(-0.050089 -0.0221821 0)
(-0.0504502 -0.0197925 0)
(-0.0503024 -0.0169718 0)
(-0.00615598 0.0867523 0)
(-0.0124556 0.0708361 0)
(-0.01836 0.0590322 0)
(-0.0228767 0.0493995 0)
(-0.0262898 0.0409934 0)
(-0.028777 0.0333618 0)
(-0.030528 0.0262542 0)
(-0.0317193 0.0195223 0)
(-0.0325206 0.0130885 0)
(-0.0330926 0.00693521 0)
(-0.0335789 0.00109452 0)
(-0.034098 -0.00436244 0)
(-0.0347358 -0.00933878 0)
(-0.0355423 -0.0137251 0)
(-0.0365294 -0.0174125 0)
(-0.0376721 -0.0203049 0)
(-0.0389103 -0.0223299 0)
(-0.0401549 -0.02345 0)
(-0.0412967 -0.0236718 0)
(-0.0422201 -0.0230522 0)
(-0.0428227 -0.0216979 0)
(-0.043033 -0.0197536 0)
(-0.0428219 -0.0173816 0)
(-0.00460453 0.0944378 0)
(-0.0093223 0.0769319 0)
(-0.0140449 0.0637711 0)
(-0.0176691 0.053036 0)
(-0.0204767 0.0437238 0)
(-0.0225767 0.0353503 0)
(-0.0240976 0.0276571 0)
(-0.0251735 0.0204938 0)
(-0.0259389 0.0137779 0)
(-0.0265223 0.00747997 0)
(-0.0270379 0.00161237 0)
(-0.0275788 -0.00378049 0)
(-0.0282109 -0.00863326 0)
(-0.02897 -0.0128706 0)
(-0.0298607 -0.0164177 0)
(-0.0308575 -0.0192105 0)
(-0.0319085 -0.0212044 0)
(-0.03294 -0.0223821 0)
(-0.0338659 -0.02276 0)
(-0.0345976 -0.0223911 0)
(-0.0350573 -0.0213631 0)
(-0.0351889 -0.0197901 0)
(-0.0349646 -0.0178006 0)
(-0.00291022 0.0997973 0)
(-0.00592229 0.0814285 0)
(-0.00935461 0.0673395 0)
(-0.0119735 0.0558596 0)
(-0.0140935 0.0459158 0)
(-0.0157462 0.036997 0)
(-0.0169912 0.0288628 0)
(-0.0179169 0.0213724 0)
(-0.0186214 0.014444 0)
(-0.0192007 0.0080398 0)
(-0.0197405 0.00215655 0)
(-0.0203095 -0.00318327 0)
(-0.0209546 -0.00794019 0)
(-0.0216985 -0.0120665 0)
(-0.0225392 -0.0155149 0)
(-0.0234511 -0.0182459 0)
(-0.0243888 -0.0202356 0)
(-0.0252914 -0.0214809 0)
(-0.02609 -0.0220038 0)
(-0.026715 -0.021853 0)
(-0.0271055 -0.0211024 0)
(-0.0272163 -0.0198452 0)
(-0.0270217 -0.0181862 0)
(-0.00090833 0.10281 0)
(-0.00225098 0.0842645 0)
(-0.00447055 0.0696948 0)
(-0.0060807 0.0578166 0)
(-0.00749137 0.0475208 0)
(-0.00866797 0.0382615 0)
(-0.00960956 0.0298382 0)
(-0.0103611 0.0221323 0)
(-0.0109855 0.0150685 0)
(-0.0115478 0.00860503 0)
(-0.0121063 0.00272704 0)
(-0.0127066 -0.00255999 0)
(-0.013378 -0.00723692 0)
(-0.0141309 -0.0112777 0)
(-0.0149571 -0.0146559 0)
(-0.0158309 -0.017351 0)
(-0.0167118 -0.0193539 0)
(-0.0175488 -0.0206711 0)
(-0.0182856 -0.0213278 0)
(-0.0188665 -0.0213691 0)
(-0.0192424 -0.0208585 0)
(-0.0193759 -0.0198741 0)
(-0.019244 -0.0185039 0)
(0.00132736 0.102756 0)
(0.00157504 0.0856952 0)
(0.000449988 0.0709658 0)
(-0.000245614 0.0589456 0)
(-0.000987486 0.0485336 0)
(-0.00168561 0.0391276 0)
(-0.00231114 0.0305644 0)
(-0.00287353 0.0227559 0)
(-0.00340366 0.0156373 0)
(-0.00393732 0.00916663 0)
(-0.00450722 0.00332151 0)
(-0.00513781 -0.00190489 0)
(-0.00584178 -0.00650842 0)
(-0.00661857 -0.0104791 0)
(-0.00745412 -0.0138059 0)
(-0.00832197 -0.0164819 0)
(-0.00918548 -0.0185083 0)
(-0.010001 -0.0198982 0)
(-0.0107217 -0.0206783 0)
(-0.0113018 -0.0208903 0)
(-0.0117009 -0.0205898 0)
(-0.0118875 -0.0198442 0)
(-0.0118411 -0.0187288 0)
(0.00340362 0.099587 0)
(0.00516959 0.0857555 0)
(0.00515564 0.0712551 0)
(0.00525961 0.0593366 0)
(0.00513622 0.0489852 0)
(0.00489907 0.0395973 0)
(0.00459165 0.0310333 0)
(0.00422741 0.0232314 0)
(0.00380344 0.0161384 0)
(0.00331059 0.00971463 0)
(0.00273955 0.00393388 0)
(0.00208527 -0.00121847 0)
(0.00134993 -0.0057484 0)
(0.000544206 -0.00965685 0)
(-0.000312512 -0.0129435 0)
(-0.0011928 -0.0156104 0)
(-0.00206276 -0.0176657 0)
(-0.00288427 -0.0191263 0)
(-0.00361763 -0.0200195 0)
(-0.00422448 -0.0203839 0)
(-0.00467068 -0.0202692 0)
(-0.00492921 -0.0197343 0)
(-0.00498166 -0.0188452 0)
(0.00495786 0.0939871 0)
(0.00810783 0.0842622 0)
(0.00928093 0.0705823 0)
(0.0101454 0.0590497 0)
(0.0106136 0.0489099 0)
(0.0108256 0.0396793 0)
(0.0108361 0.0312418 0)
(0.0106774 0.0235495 0)
(0.010372 0.0165595 0)
(0.00993449 0.0102362 0)
(0.0093768 0.00455314 0)
(0.0087113 -0.000508222 0)
(0.00795346 -0.00495942 0)
(0.00712298 -0.00880793 0)
(0.00624403 -0.0120597 0)
(0.00534511 -0.0147223 0)
(0.00445806 -0.0168077 0)
(0.00361679 -0.0183347 0)
(0.0028556 -0.0193304 0)
(0.00220737 -0.0198309 0)
(0.00170155 -0.0198809 0)
(0.0013619 -0.0195332 0)
(0.00120523 -0.018846 0)
(0.00568689 0.0867521 0)
(0.0100612 0.0812023 0)
(0.0124818 0.0689461 0)
(0.0141462 0.0580728 0)
(0.0152232 0.0483108 0)
(0.0158859 0.0393763 0)
(0.0162167 0.0311851 0)
(0.016273 0.0236991 0)
(0.0161007 0.0168855 0)
(0.0157362 0.0107148 0)
(0.0152105 0.00516309 0)
(0.0145515 0.00021186 0)
(0.0137865 -0.00415207 0)
(0.0129429 -0.0079386 0)
(0.0120494 -0.0111563 0)
(0.0111354 -0.013815 0)
(0.0102311 -0.0159281 0)
(0.00936695 -0.0175151 0)
(0.00857322 -0.0186021 0)
(0.00787863 -0.019223 0)
(0.00730929 -0.0194188 0)
(0.00688666 -0.0192372 0)
(0.00662667 -0.0187305 0)
(0.00562813 0.0787629 0)
(0.0109911 0.0767845 0)
(0.0146039 0.0663108 0)
(0.0171094 0.0563553 0)
(0.0188188 0.0471702 0)
(0.0199396 0.0386817 0)
(0.0205976 0.0308538 0)
(0.0208806 0.0236662 0)
(0.0208575 0.0170986 0)
(0.0205853 0.0111304 0)
(0.0201122 0.00574343 0)
(0.0194801 0.000922763 0)
(0.0187269 -0.00334287 0)
(0.0178869 -0.00706213 0)
(0.0169923 -0.0102429 0)
(0.0160734 -0.0128944 0)
(0.0151587 -0.0150299 0)
(0.0142761 -0.016668 0)
(0.0134524 -0.0178339 0)
(0.0127131 -0.0185596 0)
(0.0120822 -0.0188833 0)
(0.0115799 -0.0188487 0)
(0.0112217 -0.0185035 0)
(0.00511649 0.0707768 0)
(0.0111564 0.0713426 0)
(0.0157544 0.0627154 0)
(0.0190443 0.0538852 0)
(0.0213675 0.0454785 0)
(0.0229425 0.0375877 0)
(0.0239296 0.030238 0)
(0.0244461 0.0234369 0)
(0.0245844 0.0171812 0)
(0.0244204 0.011463 0)
(0.0240183 0.00627312 0)
(0.0234325 0.00160372 0)
(0.02271 -0.00255106 0)
(0.0218912 -0.00619542 0)
(0.0210114 -0.00933358 0)
(0.020101 -0.0119719 0)
(0.019187 -0.0141215 0)
(0.0182943 -0.0157996 0)
(0.017447 -0.0170305 0)
(0.0166685 -0.017845 0)
(0.0159814 -0.0182792 0)
(0.0154054 -0.0183739 0)
(0.0149568 -0.0181726 0)
(0.00452451 0.0631896 0)
(0.0109069 0.0652406 0)
(0.0161949 0.0583291 0)
(0.0201225 0.0507414 0)
(0.0229785 0.0432687 0)
(0.0249641 0.0361085 0)
(0.026257 0.0293415 0)
(0.0269969 0.0230069 0)
(0.0272957 0.0171232 0)
(0.027246 0.0116983 0)
(0.0269254 0.00673555 0)
(0.026399 0.00223711 0)
(0.0257218 -0.00179422 0)
(0.0249393 -0.00535519 0)
(0.0240887 -0.00844359 0)
(0.0232001 -0.0110607 0)
(0.0222983 -0.0132139 0)
(0.0214051 -0.0149188 0)
(0.0205418 -0.0161993 0)
(0.0197306 -0.0170857 0)
(0.0189936 -0.0176132 0)
(0.0183512 -0.0178205 0)
(0.0178209 -0.0177474 0)
(0.00408096 0.0560565 0)
(0.0105456 0.0588045 0)
(0.0162304 0.0533965 0)
(0.0205971 0.0470776 0)
(0.0238502 0.0406313 0)
(0.0261577 0.0342978 0)
(0.0276993 0.0281954 0)
(0.0286272 0.0223923 0)
(0.0290665 0.01693 0)
(0.0291215 0.0118344 0)
(0.0288802 0.00712376 0)
(0.0284161 0.00281289 0)
(0.0277905 -0.00108423 0)
(0.0270527 -0.00455418 0)
(0.0262412 -0.00758564 0)
(0.0253847 -0.0101725 0)
(0.0245046 -0.0123173 0)
(0.0236187 -0.014034 0)
(0.0227458 -0.015347 0)
(0.0219072 -0.016288 0)
(0.0211258 -0.0168922 0)
(0.0204237 -0.0171966 0)
(0.0198203 -0.0172379 0)
(0.00385073 0.0492567 0)
(0.010262 0.0522638 0)
(0.0161162 0.0481611 0)
(0.02072 0.0430826 0)
(0.0242071 0.0377003 0)
(0.0267151 0.0322475 0)
(0.0284189 0.0268613 0)
(0.0294746 0.0216331 0)
(0.0300132 0.0166263 0)
(0.0301457 0.0118853 0)
(0.0299661 0.00744433 0)
(0.0295539 0.00333223 0)
(0.0289749 -0.000423904 0)
(0.0282812 -0.00379809 0)
(0.0275117 -0.00676726 0)
(0.0266924 -0.0093154 0)
(0.0258394 -0.011439 0)
(0.0249653 -0.0131509 0)
(0.0240856 -0.0144784 0)
(0.0232219 -0.0154564 0)
(0.0223994 -0.0161216 0)
(0.0216432 -0.0165096 0)
(0.0209751 -0.0166541 0)
(0.00380408 0.0426214 0)
(0.0101394 0.0457337 0)
(0.0160235 0.0428144 0)
(0.0206942 0.0389408 0)
(0.0242532 0.0346274 0)
(0.026827 0.0300738 0)
(0.0285883 0.0254247 0)
(0.0296929 0.0207911 0)
(0.0302723 0.0162561 0)
(0.0304386 0.0118821 0)
(0.0302884 0.00771879 0)
(0.0299041 0.00380939 0)
(0.0293544 0.000195131 0)
(0.0286936 -0.0030835 0)
(0.0279602 -0.0059889 0)
(0.0271764 -0.00849214 0)
(0.0263508 -0.0105817 0)
(0.0254878 -0.012271 0)
(0.0245994 -0.0135941 0)
(0.023709 -0.0145922 0)
(0.0228461 -0.0153047 0)
(0.02204 -0.0157662 0)
(0.0213157 -0.0160058 0)
(0.00388756 0.035993 0)
(0.010197 0.039235 0)
(0.0160486 0.0374816 0)
(0.0206611 0.0348079 0)
(0.0241488 0.03156 0)
(0.0266561 0.0279008 0)
(0.0283647 0.0239843 0)
(0.0294304 0.0199424 0)
(0.0299813 0.015878 0)
(0.0301268 0.0118701 0)
(0.0299618 0.00798237 0)
(0.0295692 0.00427163 0)
(0.0290194 0.000793174 0)
(0.0283686 -0.00239671 0)
(0.0276557 -0.00524283 0)
(0.0268985 -0.00769905 0)
(0.0260947 -0.00974258 0)
(0.0252362 -0.0113902 0)
(0.0243313 -0.0126896 0)
(0.0234081 -0.013693 0)
(0.0225034 -0.0144433 0)
(0.0216518 -0.0149725 0)
(0.0208813 -0.015304 0)
(0.00405768 0.0292438 0)
(0.0104182 0.0327296 0)
(0.0162294 0.032232 0)
(0.020703 0.0308054 0)
(0.024001 0.0286297 0)
(0.0263217 0.0258481 0)
(0.0278726 0.0226404 0)
(0.028813 0.0191685 0)
(0.0292654 0.0155579 0)
(0.0293317 0.0119033 0)
(0.0291017 0.00828053 0)
(0.028656 0.00475765 0)
(0.0280658 0.00140248 0)