/*--------------------------------*- C++ -*----------------------------------*\
  =========                 |
  \\      /  F ield         | OpenFOAM: The Open Source CFD Toolbox
   \\    /   O peration     | Website:  https://openfoam.org
    \\  /    A nd           | Version:  9
     \\/     M anipulation  |
\*---------------------------------------------------------------------------*/
FoamFile
{
    format      ascii;
    class       volScalarField;
    location    "4.14";
    object      epsilon;
}
// * * * * * * * * * * * * * * * * * * * * * * * * * * * * * * * * * * * * * //

dimensions      [0 2 -3 0 0 0 0];

internalField   nonuniform List<scalar> 
2268
(
0.00114994
0.00582204
0.0100332
0.0137431
0.0169811
0.0197994
0.0222521
0.0243906
0.026267
0.0279347
0.0294396
0.0308049
0.0320758
0.0332182
0.0340207
0.0341166
0.0324619
0.0288781
0.0254721
0.023014
0.0195612
0.0124001
0.00271478
0.00232825
0.0040587
0.00594994
0.00766317
0.00915731
0.0104418
0.011539
0.0124739
0.0132724
0.0139581
0.0145505
0.0150621
0.0155156
0.0158921
0.0161114
0.0160533
0.0155083
0.0145657
0.0134411
0.0120741
0.0104175
0.00790752
0.00502748
0.00391609
0.00428243
0.00556776
0.00681816
0.00792499
0.00887476
0.00967874
0.0103557
0.010926
0.0114088
0.01182
0.0121712
0.0124736
0.0127136
0.0128471
0.0128116
0.0125307
0.0120506
0.0114316
0.0106637
0.00979092
0.00863593
0.00844503
0.00546113
0.0047585
0.00569024
0.00670253
0.00762229
0.00841626
0.00908746
0.00965043
0.0101228
0.0105215
0.010861
0.0111522
0.011402
0.0116019
0.0117252
0.0117365
0.0116043
0.0113602
0.011044
0.0106942
0.0104057
0.0102147
0.012129
0.00692594
0.00531266
0.00597923
0.00682759
0.0076247
0.00832007
0.00890975
0.00940481
0.00982071
0.0101731
0.0104757
0.0107388
0.0109683
0.0111599
0.0112979
0.0113634
0.0113458
0.0112741
0.0111979
0.0112009
0.0114629
0.0122833
0.0164804
0.00832193
0.00590022
0.00634802
0.00706819
0.00777215
0.00839444
0.00892523
0.0093726
0.00975023
0.0100727
0.0103534
0.0106026
0.0108264
0.011024
0.0111879
0.0113096
0.0113906
0.0114616
0.0115888
0.0119065
0.0127273
0.0148343
0.0225583
0.00966681
0.00650559
0.00676382
0.00737699
0.00800422
0.00856698
0.00905062
0.00946065
0.00980916
0.0101099
0.0103761
0.0106184
0.010844
0.0110551
0.0112499
0.0114274
0.011596
0.0117895
0.0120888
0.0126762
0.0140327
0.0178163
0.0331476
0.0109822
0.00712364
0.00721162
0.0077321
0.00829288
0.00880406
0.00924717
0.00962553
0.00994975
0.0102329
0.0104881
0.010727
0.0109582
0.0111866
0.0114145
0.0116457
0.0118929
0.0121921
0.0126315
0.0134216
0.0151689
0.0206136
0.0562603
0.00172401
0.00964932
0.0155182
0.0185501
0.0198419
0.0201033
0.0198632
0.0195655
0.0197305
0.0202261
0.0183517
0.015172
0.013379
0.0159633
0.0198269
0.0193473
0.0154283
0.00898915
0.00302644
0.00267195
0.00581595
0.00793686
0.00913914
0.00971775
0.00990035
0.00988212
0.00975755
0.00964258
0.0095684
0.00902396
0.00840315
0.00786584
0.00809651
0.00863911
0.00822135
0.00698766
0.00549355
0.0034882
0.00481535
0.00605628
0.00717191
0.00781121
0.00811778
0.00820021
0.00815661
0.00804181
0.0079008
0.00773429
0.00738288
0.00704052
0.00674027
0.00672114
0.00676295
0.00636093
0.00552401
0.00466986
0.00444378
0.00738939
0.00706256
0.00742607
0.00765787
0.00775532
0.00773891
0.00764734
0.00751121
0.00734832
0.00714768
0.00685576
0.00660017
0.00640368
0.0063225
0.00620722
0.00578378
0.00506061
0.00440937
0.00494997
0.0106998
0.00846669
0.00803291
0.00788587
0.00779319
0.00767888
0.00753277
0.00736391
0.00717641
0.00695512
0.00668982
0.0064807
0.00633551
0.00623419
0.00606385
0.00561572
0.00492129
0.00436036
0.00515779
0.0155336
0.0101583
0.00879058
0.00827768
0.00800974
0.00780189
0.00759982
0.00739354
0.00717842
0.00694053
0.00668874
0.00650318
0.00637973
0.00627738
0.0060943
0.00562949
0.00492157
0.00439255
0.00531852
0.0240036
0.0120438
0.00958416
0.00873766
0.0083158
0.00802316
0.0077675
0.00752263
0.00727808
0.00702401
0.00677665
0.00659632
0.00647765
0.00638197
0.00620566
0.00573522
0.00499553
0.00446074
0.00550674
0.0432053
0.0137732
0.0103046
0.00920972
0.00866556
0.00830108
0.00799725
0.007715
0.00744014
0.00716822
0.00691775
0.00673099
0.00660788
0.00651934
0.00635789
0.00589345
0.00512246
0.00457125
0.00566831
0.0130042
0.00809775
0.00794682
0.00834147
0.0088099
0.00924795
0.00963367
0.00996739
0.0102574
0.0105156
0.0107559
0.0109916
0.0112339
0.0114916
0.0117717
0.0120827
0.0124408
0.012882
0.0134907
0.0144649
0.0163007
0.0203963
0.0310673
0.0153588
0.0093828
0.00901111
0.00928689
0.00965119
0.00999882
0.0103126
0.0105896
0.0108338
0.0110558
0.0112717
0.0114993
0.0117543
0.012049
0.0123946
0.012801
0.0132805
0.0138573
0.0145793
0.0155491
0.0169673
0.0191332
0.0222535
0.0174712
0.0107322
0.0101905
0.0103893
0.010648
0.0108921
0.011126
0.0113389
0.011525
0.011691
0.0118629
0.0120665
0.0123209
0.0126417
0.0130432
0.0135351
0.0141193
0.0148059
0.0156034
0.0165309
0.0176428
0.0189252
0.0200692
0.0196683
0.0121929
0.0115101
0.0117156
0.0118406
0.0119404
0.0120829
0.012223
0.0123302
0.0123971
0.0124875
0.0126406
0.0128747
0.0132043
0.013646
0.014216
0.0149017
0.0156932
0.0165765
0.0174972
0.0185007
0.0195666
0.0203928
0.0216387
0.0132563
0.012829
0.0131821
0.0128222
0.0127282
0.0128221
0.012973
0.0130933
0.0130924
0.0130876
0.0131722
0.0133632
0.0136758
0.0141293
0.0147233
0.0154546
0.0162884
0.0171154
0.017922
0.018862
0.019998
0.0208539
0.0242862
0.0139306
0.0133511
0.013621
0.0132823
0.0133368
0.0135279
0.0135607
0.013561
0.0135196
0.0134745
0.0135392
0.0137273
0.0140642
0.0145666
0.0152097
0.0160197
0.0168853
0.0175983
0.0181754
0.0189667
0.019753
0.0203686
0.0252712
0.0141078
0.0135875
0.0135763
0.0134407
0.0134494
0.0135835
0.0135872
0.0136398
0.0136888
0.0137141
0.0137963
0.0139686
0.0142753
0.0147444
0.0153493
0.016107
0.0169128
0.0174491
0.0179932
0.0186744
0.0194761
0.0204097
0.0232212
0.0140067
0.0136731
0.0138626
0.0135986
0.0134115
0.0134178
0.0134972
0.01361
0.0136728
0.0137441
0.0138528
0.0140117
0.0142709
0.0146661
0.0151797
0.0157549
0.0163434
0.0168446
0.0174694
0.0182268
0.0189408
0.0193913
0.0211016
0.0137605
0.0132673
0.0134371
0.0133124
0.0132397
0.0132648
0.0133455
0.0134227
0.0134945
0.0135941
0.0137276
0.0138982
0.0141319
0.0144506
0.0148474
0.0152803
0.0157259
0.0161672
0.0166783
0.0172503
0.0176556
0.0176857
0.020509
0.0135817
0.0128391
0.012848
0.0128768
0.0129372
0.0130217
0.0131089
0.0131904
0.0132831
0.0133996
0.013543
0.0137149
0.0139261
0.0141871
0.0144937
0.0148253
0.0151605
0.0154903
0.0158234
0.016136
0.0163133
0.0162483
0.0209801
0.0136063
0.0126104
0.0124786
0.0125272
0.0126261
0.0127358
0.0128402
0.0129426
0.0130543
0.0131819
0.013327
0.0134908
0.0136787
0.0138951
0.0141368
0.0143916
0.0146424
0.0148748
0.0150758
0.0152225
0.0152708
0.0151798
0.0221934
0.0137616
0.0125188
0.0122605
0.0122641
0.0123496
0.012458
0.0125713
0.012688
0.0128122
0.0129458
0.0130885
0.0132414
0.0134074
0.0135882
0.0137807
0.0139764
0.0141614
0.0143204
0.0144361
0.0144917
0.0144698
0.0143581
0.0236735
0.0139667
0.0124828
0.0121085
0.0120502
0.0121037
0.0121986
0.0123103
0.0124315
0.01256
0.0126939
0.0128316
0.012973
0.0131194
0.0132709
0.0134247
0.0135737
0.0137069
0.0138112
0.0138717
0.0138762
0.0138177
0.0136925
0.0253313
0.0142307
0.0124782
0.011984
0.0118586
0.0118739
0.0119491
0.0120523
0.0121704
0.0122965
0.0124263
0.0125568
0.0126867
0.0128157
0.012943
0.0130657
0.013178
0.0132715
0.0133363
0.0133613
0.0133381
0.0132627
0.0131341
0.026909
0.0145074
0.0124775
0.0118642
0.0116721
0.0116479
0.0117002
0.0117903
0.0119001
0.0120195
0.0121424
0.0122644
0.0123832
0.0124973
0.0126051
0.0127038
0.0127888
0.012854
0.0128924
0.0128963
0.0128601
0.0127809
0.012658
0.0280275
0.0146888
0.012443
0.0117295
0.0114783
0.011417
0.0114456
0.0115202
0.011619
0.0117296
0.0118442
0.0119577
0.0120667
0.0121689
0.0122622
0.0123442
0.0124111
0.0124586
0.0124821
0.0124763
0.0124375
0.0123632
0.0122527
0.0287297
0.0147517
0.0123564
0.0115682
0.0112695
0.0111761
0.0111827
0.0112418
0.0113291
0.0114305
0.0115372
0.0116433
0.0117448
0.011839
0.0119235
0.0119959
0.0120534
0.012093
0.0121113
0.0121051
0.0120714
0.0120081
0.0119142
0.0290517
0.0146998
0.0122131
0.011375
0.0110418
0.0109233
0.0109115
0.0109572
0.0110343
0.0111279
0.0112285
0.0113297
0.0114272
0.0115179
0.0115992
0.0116691
0.0117252
0.0117652
0.0117867
0.0117872
0.0117643
0.0117162
0.0116414
0.0290404
0.014544
0.0120149
0.0111489
0.0107939
0.0106583
0.0106335
0.0106692
0.0107392
0.0108279
0.0109255
0.0110254
0.0111231
0.0112152
0.0112993
0.0113732
0.0114349
0.0114823
0.0115136
0.0115265
0.0115189
0.0114888
0.0114348
0.0287381
0.0142965
0.0117659
0.0108913
0.0105266
0.0103822
0.0103502
0.010381
0.0104481
0.0105359
0.0106346
0.0107376
0.0108402
0.0109391
0.0110316
0.0111156
0.011189
0.0112498
0.0112963
0.0113261
0.0113373
0.0113277
0.0112957
0.0281832
0.0139683
0.0114714
0.010605
0.0102415
0.0100963
0.0100637
0.0100951
0.0101642
0.010256
0.0103607
0.0104718
0.0105846
0.0106956
0.0108021
0.0109018
0.0109924
0.0110719
0.0111382
0.011189
0.011222
0.0112351
0.0112265
0.0274146
0.0135703
0.011137
0.0102933
0.00994083
0.00980267
0.00977612
0.00981382
0.00989062
0.00999174
0.0101078
0.0102323
0.0103606
0.0104893
0.0106153
0.0107361
0.0108493
0.0109523
0.0110429
0.0111185
0.0111765
0.0112147
0.0112311
0.0264656
0.0131121
0.010768
0.00995992
0.0096275
0.0095037
0.0094896
0.00953967
0.0096298
0.00974586
0.00987879
0.0100224
0.010172
0.010324
0.0104751
0.0106226
0.0107636
0.0108952
0.0110147
0.0111191
0.0112056
0.0112718
0.0113154
0.0253652
0.0126026
0.0103699
0.00960882
0.00930477
0.00920229
0.0092069
0.00927527
0.00938454
0.0095213
0.00967693
0.00984542
0.0100222
0.0102034
0.0103857
0.0105657
0.0107403
0.010906
0.0110595
0.0111974
0.0113166
0.0114143
0.0114882
0.0241409
0.0120503
0.00994827
0.00924459
0.00897661
0.00890202
0.0089314
0.00902391
0.0091581
0.0093214
0.0095057
0.00970521
0.0099154
0.0101323
0.0103522
0.0105714
0.010786
0.0109921
0.0111857
0.0113627
0.0115197
0.0116534
0.0117613
0.0228155
0.0114631
0.00950943
0.00887273
0.00864795
0.00860742
0.00866736
0.0087897
0.00895457
0.00915033
0.00936944
0.00960642
0.00985678
0.0101164
0.0103813
0.0106471
0.0109095
0.0111635
0.0114043
0.0116274
0.0118285
0.0120038
0.0121506
0.0213965
0.0108502
0.00906144
0.00850023
0.00832498
0.00832416
0.00842012
0.0085778
0.00877902
0.00901321
0.00927353
0.00955485
0.00985283
0.0101632
0.0104815
0.010803
0.0111222
0.0114333
0.0117305
0.0120081
0.0122611
0.0124851
0.0126768
0.0198993
0.010229
0.00861648
0.00813637
0.00801552
0.00805927
0.00819624
0.00839447
0.00863759
0.00891626
0.00922445
0.00955757
0.00991147
0.0102818
0.0106637
0.0110516
0.011439
0.0118187
0.0121835
0.0125264
0.0128411
0.0131224
0.0133664
0.0184855
0.00964521
0.00819279
0.0077928
0.00772904
0.00782123
0.00800362
0.00824721
0.00853755
0.00886672
0.00922974
0.00962279
0.0100421
0.0104833
0.010941
0.0114087
0.0118784
0.0123413
0.012788
0.0132097
0.0135984
0.0139477
0.0142528
0.0171988
0.00910401
0.00780126
0.00748068
0.00747624
0.00762012
0.00785166
0.0081448
0.00848722
0.00887276
0.00929787
0.0097598
0.0102554
0.0107805
0.0113291
0.0118934
0.0124636
0.0130282
0.0135752
0.0140929
0.0145711
0.0150016
0.0153788
0.0160309
0.00860644
0.00745047
0.00721106
0.00726871
0.00746725
0.007751
0.00809707
0.00849574
0.00894316
0.00943779
0.00997849
0.0105632
0.011188
0.0118463
0.0125288
0.0132231
0.0139138
0.014585
0.0152209
0.015808
0.016336
0.0167981
0.0150202
0.0081709
0.00715658
0.00700003
0.00712204
0.00737708
0.00771453
0.00811526
0.00857296
0.00908692
0.00965845
0.0102888
0.0109776
0.0117216
0.0125137
0.0133425
0.0141918
0.0150412
0.0158681
0.016651
0.0173716
0.0180165
0.0185782
0.014194
0.00782282
0.00694289
0.00687018
0.00705742
0.00736837
0.00775806
0.00821222
0.00872921
0.0093127
0.009968
0.0106998
0.0115103
0.0123977
0.0133545
0.0143666
0.0154126
0.016464
0.0174889
0.0184565
0.0193414
0.0201267
0.0208042
0.0135606
0.0075912
0.00684189
0.00685383
0.00710415
0.0074657
0.00790078
0.00840209
0.00897452
0.0096277
0.0103723
0.0112179
0.0121707
0.0132315
0.0143929
0.0156375
0.0169367
0.01825
0.0195302
0.0207322
0.0218202
0.0227729
0.0235831
0.0131192
0.00751637
0.00690348
0.00699958
0.0073038
0.00770118
0.00816536
0.00869938
0.00931706
0.0100357
0.0108731
0.011845
0.0129637
0.0142345
0.0156519
0.0171951
0.0188254
0.0204838
0.0220989
0.0236016
0.0249408
0.0260909
0.0270489
0.0128798
0.00767195
0.00721213
0.00738316
0.00771525
0.00811554
0.00857666
0.0091166
0.00976045
0.0105345
0.0114645
0.0125745
0.0138853
0.0154102
0.017149
0.0190793
0.0211485
0.0232705
0.0253331
0.027227
0.0288767
0.0302545
0.03137
0.0129021
0.00820701
0.00791577
0.00812213
0.00841864
0.00875592
0.00915716
0.00965946
0.0102995
0.0111118
0.0121298
0.0133874
0.0149172
0.0167465
0.0188869
0.0213201
0.0239784
0.0267348
0.0294092
0.0318211
0.0338538
0.0354853
0.0367554
0.0133914
0.0094279
0.00927158
0.00939013
0.00951155
0.00966553
0.00991647
0.0103186
0.0109144
0.0117411
0.0128376
0.0142478
0.0160208
0.0182058
0.0208395
0.02392
0.0273697
0.031005
0.034537
0.0376577
0.0401645
0.042063
0.0434626
0.0150865
0.012028
0.0117286
0.0114196
0.0110842
0.0108576
0.0108325
0.0110582
0.0115642
0.0123785
0.0135392
0.0150994
0.017129
0.0197111
0.0229255
0.026812
0.0313032
0.0361509
0.0409179
0.0450761
0.0481813
0.0503341
0.051801
0.0246593
0.0184819
0.0161999
0.0144793
0.0131532
0.0122668
0.0118251
0.011804
0.0121829
0.0129619
0.0141693
0.015865
0.0181432
0.0211309
0.0249737
0.0297878
0.0355595
0.0420194
0.04861
0.0545067
0.0583877
0.0607209
0.0621339
0.156542
0.0440211
0.0251276
0.0187681
0.0155178
0.0136782
0.0127306
0.0124385
0.0126826
0.0134169
0.0146529
0.0164539
0.018937
0.0222762
0.0266941
0.032413
0.0395371
0.0479216
0.0572159
0.0667237
0.0714896
0.073739
0.074877
1.53798
0.156117
0.0419922
0.0234696
0.0174488
0.0146616
0.0133052
0.0128173
0.0129683
0.0136699
0.0149183
0.0167775
0.0193789
0.022929
0.0277077
0.0340279
0.0421372
0.0522134
0.0650382
0.0841488
0.0886677
0.0899926
0.0904852
0.0651955
0.0551545
0.0556437
0.066394
0.0249214
0.0247288
0.0240012
0.0226669
0.0201676
0.0198395
0.0191937
0.0182636
0.0197039
0.0191896
0.018578
0.0178428
0.020139
0.0195591
0.0189689
0.0181823
0.0202408
0.0196029
0.0190645
0.018282
0.0198671
0.0193164
0.0188802
0.0181147
0.0187339
0.0182423
0.0178043
0.017288
0.0172772
0.0169806
0.016688
0.0163896
0.0160177
0.0158468
0.0156607
0.0154556
0.0150139
0.0148862
0.0147387
0.0145703
0.0142082
0.0140939
0.0139624
0.0138136
0.0135489
0.0134421
0.0133216
0.0131874
0.0129985
0.0128998
0.01279
0.0126693
0.012534
0.012445
0.0123466
0.0122393
0.0121433
0.0120651
0.0119789
0.011885
0.0118209
0.0117541
0.0116803
0.0115996
0.0115651
0.0115099
0.0114483
0.0113804
0.0113757
0.0113321
0.0112825
0.011227
0.0112541
0.0112219
0.0111841
0.0111405
0.0112028
0.0111821
0.0111559
0.0111241
0.0112259
0.0112171
0.0112027
0.0111826
0.0113299
0.0113335
0.0113313
0.0113232
0.0115239
0.0115409
0.0115517
0.0115562
0.0118205
0.011852
0.0118769
0.011895
0.0122362
0.012284
0.0123244
0.0123573
0.0127924
0.0128586
0.0129164
0.012966
0.0135165
0.0136036
0.0136813
0.0137496
0.0144428
0.0145541
0.0146545
0.0147438
0.0156149
0.0157541
0.0158802
0.0159935
0.0170875
0.0172583
0.0174137
0.0175538
0.0189286
0.0191353
0.0193232
0.0194928
0.0212232
0.0214696
0.021693
0.0218943
0.0240772
0.0243662
0.0246268
0.0248606
0.0276219
0.0279542
0.0282517
0.0285167
0.0320198
0.0323925
0.0327227
0.0330141
0.0374705
0.0378744
0.0382276
0.0385358
0.0442159
0.0446333
0.0449924
0.0453014
0.0525446
0.0529468
0.0532858
0.0535727
0.0627943
0.0631403
0.0634249
0.0636611
0.0753527
0.075592
0.0757833
0.0759388
0.09066
0.0907433
0.0908077
0.0908591
0.022654
0.0140022
0.0111514
0.00991373
0.00923891
0.00878622
0.00841934
0.00808377
0.00776156
0.00745752
0.0071914
0.00698614
0.00684906
0.0067641
0.00661843
0.00616746
0.00536756
0.00483255
0.00580869
0.0177184
0.0139428
0.0119098
0.0107446
0.0100126
0.00949915
0.00907958
0.00868971
0.00830739
0.00794861
0.00764312
0.00741408
0.00727369
0.00719876
0.00706671
0.00664937
0.00583756
0.00518324
0.00575729
0.0164079
0.0141706
0.0125967
0.0115173
0.0107621
0.0102209
0.00976705
0.00933145
0.00888977
0.00846683
0.00811686
0.00787693
0.00775675
0.00771954
0.00763832
0.00730092
0.00659416
0.00606911
0.00658991
0.0165101
0.0147492
0.0133791
0.0123247
0.0115081
0.0109646
0.0104763
0.00997886
0.00946342
0.00896892
0.00857426
0.00833205
0.00825747
0.00832099
0.00842445
0.00828805
0.00777997
0.00818972
0.0109915
0.0168059
0.0152371
0.0140701
0.0131245
0.0122097
0.0116183
0.0110314
0.0104101
0.0098355
0.00933956
0.00893853
0.00868904
0.00863362
0.00877871
0.00906053
0.00940667
0.00881646
0.00908131
0.013155
0.0169196
0.0154532
0.0143298
0.0134204
0.0125853
0.0119566
0.0113163
0.0106355
0.0100033
0.00946962
0.00906717
0.00880081
0.00871333
0.00880037
0.00896734
0.00950918
0.00925446
0.00976803
0.015909
0.0168285
0.015457
0.0143879
0.0135258
0.0126919
0.0120739
0.0114441
0.0107504
0.0100923
0.00953947
0.00911836
0.00880802
0.00859986
0.00850341
0.00856634
0.00878683
0.00879389
0.00934659
0.0167548
0.0164262
0.015256
0.0142391
0.013396
0.0126371
0.0120011
0.0113772
0.0107342
0.0101003
0.00953941
0.00908869
0.00873105
0.00843251
0.00826916
0.00830545
0.00854326
0.00851829
0.00897167
0.0166431
0.015832
0.0149048
0.0139834
0.0131559
0.0124096
0.0117594
0.0111629
0.0105831
0.0100045
0.00945802
0.0089778
0.0085708
0.00821976
0.00797562
0.00789829
0.00807497
0.00802099
0.00819333
0.014376
0.015057
0.0143376
0.0135562
0.0127924
0.0120754
0.0114429
0.010873
0.010339
0.00981174
0.00928645
0.00879554
0.00836327
0.00798284
0.00768016
0.00749833
0.00751845
0.0073668
0.0072555
0.0114654
0.0142522
0.0136806
0.0130348
0.0123666
0.0117166
0.0111221
0.010579
0.0100762
0.00958652
0.00908707
0.00860915
0.0081649
0.00775203
0.00740794
0.00716004
0.00701125
0.00675218
0.00651404
0.00919623
0.0135399
0.013065
0.012525
0.0119513
0.0113769
0.0108314
0.0103207
0.00984344
0.00938108
0.00891275
0.00845232
0.00799776
0.00757052
0.00720822
0.00690838
0.0066443
0.00634747
0.00615755
0.0078969
0.0129448
0.0125369
0.0120762
0.0115821
0.0110771
0.0105825
0.0101072
0.00965479
0.00921653
0.00877623
0.00833238
0.00789253
0.00748452
0.00712901
0.0068192
0.0065484
0.00634857
0.00643528
0.00832104
0.0124534
0.0120976
0.0116985
0.0112689
0.0108237
0.0103774
0.00993849
0.00951193
0.00909627
0.00868277
0.00826836
0.00786565
0.00749576
0.00717222
0.0069012
0.0067111
0.00670881
0.0072004
0.00988927
0.0120483
0.0117366
0.0113881
0.0110118
0.0106181
0.0102168
0.00981472
0.00941697
0.0090265
0.00864203
0.00826354
0.00790249
0.00757741
0.00730155
0.00709221
0.00700392
0.00718408
0.00804382
0.0117645
0.0117178
0.0114454
0.0111404
0.0108096
0.0104607
0.0101007
0.00973495
0.00936852
0.00900642
0.00865175
0.00830781
0.00798482
0.0077002
0.00747152
0.00732435
0.00732339
0.00764005
0.00881762
0.0138044
0.0114554
0.0112189
0.0109525
0.0106615
0.0103519
0.0100291
0.00969787
0.00936288
0.00902988
0.00870412
0.00839123
0.0081013
0.0078509
0.00766115
0.00756432
0.00763153
0.00805313
0.00950096
0.0159746
0.0112581
0.0110548
0.0108231
0.0105674
0.0102926
0.0100032
0.00970341
0.00939799
0.00909268
0.0087937
0.00850812
0.00824635
0.00802458
0.00786595
0.00780763
0.00792746
0.0084332
0.0101046
0.0181557
0.0111255
0.0109529
0.0107527
0.0105287
0.0102847
0.0100249
0.00975336
0.00947459
0.0091943
0.00891917
0.00865696
0.00841861
0.00822039
0.00808682
0.00805908
0.00822245
0.00880407
0.0106781
0.0203766
0.011059
0.0109151
0.0107439
0.0105483
0.0103319
0.0100984
0.00985158
0.00959611
0.00933755
0.00908271
0.00883977
0.00862019
0.00844072
0.0083273
0.00832513
0.00852905
0.00918923
0.0112708
0.0225998
0.011062
0.0109453
0.0108009
0.0106313
0.0104397
0.0102293
0.0100041
0.00976857
0.00952826
0.00928975
0.00906179
0.00885634
0.00869075
0.00859265
0.00861067
0.0088458
0.00956353
0.0117898
0.0242688
0.0111397
0.0110494
0.0109303
0.0107848
0.0106156
0.0104259
0.0102194
0.0100006
0.00977471
0.00954868
0.00933137
0.00913537
0.00897871
0.00889006
0.00892018
0.00917361
0.0099218
0.012213
0.0252068
0.0112999
0.0112357
0.0111413
0.0110185
0.01087
0.0106987
0.0105083
0.010303
0.0100883
0.00987105
0.00966044
0.0094691
0.0093156
0.00922946
0.00926259
0.00952076
0.0102751
0.0125701
0.0256322
0.0115533
0.0115156
0.0114455
0.0113447
0.0112155
0.011061
0.0108845
0.0106903
0.0104839
0.0102721
0.0100639
0.00987218
0.00971585
0.00962494
0.0096521
0.00990363
0.0106497
0.0129288
0.0259514
0.0119139
0.0119039
0.0118585
0.0117794
0.0116689
0.0115299
0.0113658
0.0111807
0.0109799
0.0107701
0.0105603
0.0103632
0.010198
0.0100951
0.010108
0.0103446
0.0110781
0.013354
0.0263668
0.0124
0.0124196
0.0124
0.0123429
0.0122509
0.0121268
0.0119739
0.0117962
0.0115987
0.0113878
0.0111725
0.0109652
0.0107852
0.0106635
0.0106549
0.0108709
0.0115963
0.0139213
0.027151
0.013035
0.0130866
0.0130943
0.0130603
0.0129871
0.0128777
0.0127352
0.0125636
0.0123675
0.012153
0.0119287
0.0117069
0.0115067
0.0113598
0.0113232
0.0115148
0.0122406
0.0146851
0.0286743
0.013848
0.0139346
0.0139719
0.0139623
0.0139087
0.013814
0.0136817
0.0135155
0.0133195
0.0130996
0.0128637
0.0126236
0.0123986
0.012221
0.0121509
0.0123149
0.0130446
0.0156174
0.0308785
0.0148753
0.0150006
0.0150699
0.0150864
0.0150533
0.0149742
0.0148524
0.0146914
0.0144952
0.0142689
0.0140198
0.0137592
0.013506
0.0132936
0.0131859
0.0133212
0.0140671
0.0168555
0.0339088
0.016162
0.0163298
0.0164337
0.016478
0.0164668
0.0164042
0.0162937
0.0161388
0.015943
0.0157109
0.0154487
0.0151671
0.0148845
0.0146352
0.0144875
0.0145932
0.0153621
0.0183996
0.0374453
0.0177633
0.0179773
0.0181182
0.0181919
0.018204
0.0181592
0.0180615
0.0179145
0.0177213
0.0174857
0.0172131
0.0169131
0.0166031
0.016318
0.0161303
0.016206
0.0169995
0.0203017
0.0415547
0.0197471
0.0200101
0.0201896
0.020294
0.0203305
0.0203049
0.0202222
0.0200859
0.0198991
0.0196649
0.0193878
0.0190758
0.0187456
0.0184315
0.0182092
0.0182582
0.0190801
0.0226702
0.0464749
0.0221958
0.0225092
0.0227277
0.0228629
0.0229243
0.0229194
0.0228542
0.0227326
0.0225579
0.0223327
0.0220608
0.0217492
0.0214129
0.0210853
0.020844
0.0208803
0.0217444
0.0256636
0.0524603
0.0252098
0.0255721
0.0258277
0.0259922
0.0260781
0.0260949
0.0260499
0.025948
0.0257927
0.025587
0.0253347
0.0250421
0.0247235
0.0244116
0.0241842
0.0242419
0.0251833
0.029488
0.0596244
0.0289103
0.029316
0.0296036
0.0297936
0.0299021
0.0299409
0.0299185
0.0298414
0.0297141
0.0295407
0.029326
0.0290781
0.0288125
0.0285633
0.0284102
0.0285623
0.0296645
0.0344743
0.0685225
0.0334437
0.0338815
0.0341919
0.034401
0.0345281
0.0345874
0.0345894
0.0345417
0.0344507
0.0343229
0.0341662
0.0339935
0.0338267
0.0337082
0.0337289
0.0341149
0.0355684
0.0411993
0.0807714
0.0389855
0.0394374
0.0397568
0.039975
0.0401145
0.0401912
0.0402172
0.0402016
0.0401533
0.0400821
0.0400019
0.0399343
0.0399163
0.0400133
0.0403508
0.0412077
0.0433935
0.0505139
0.098415
0.0457468
0.046187
0.0464967
0.0467111
0.0468541
0.0469427
0.0469897
0.0470056
0.0470017
0.0469921
0.0469981
0.0470552
0.0472248
0.0476173
0.0484381
0.0501082
0.0537049
0.0636621
0.124492
0.0539806
0.0543767
0.0546545
0.0548494
0.0549848
0.0550769
0.0551383
0.0551802
0.0552153
0.0552616
0.0553476
0.0555238
0.0558825
0.0565988
0.0580178
0.0608635
0.0668949
0.0824519
0.166328
0.063992
0.0643084
0.0645303
0.0646887
0.0648034
0.0648879
0.0649531
0.0650092
0.0650691
0.0651515
0.0652887
0.0655399
0.0660201
0.0669652
0.0688853
0.0729696
0.0823601
0.108106
0.235799
0.0761535
0.0763568
0.0765004
0.0766055
0.076685
0.0767481
0.076802
0.0768545
0.0769154
0.0770002
0.0771361
0.077375
0.0778237
0.0787173
0.0806213
0.0850541
0.0968129
0.136199
0.360139
0.0909291
0.0909956
0.0910434
0.0910797
0.0911087
0.0911337
0.0911572
0.0911822
0.0912129
0.0912557
0.0913224
0.0914359
0.0916443
0.0920594
0.0929784
0.0953438
0.10299
0.139641
0.583953
)
;

boundaryField
{
    leftWall
    {
        type            epsilonWallFunction;
        value           nonuniform List<scalar> 
50
(
0.00114994
0.00232825
0.00391609
0.00546113
0.00692594
0.00832193
0.00966681
0.0109822
0.0130042
0.0153588
0.0174712
0.0196683
0.0216387
0.0242862
0.0252712
0.0232212
0.0211016
0.020509
0.0209801
0.0221934
0.0236735
0.0253313
0.026909
0.0280275
0.0287297
0.0290517
0.0290404
0.0287381
0.0281832
0.0274146
0.0264656
0.0253652
0.0241409
0.0228155
0.0213965
0.0198993
0.0184855
0.0171988
0.0160309
0.0150202
0.014194
0.0135606
0.0131192
0.0128798
0.0129021
0.0133914
0.0150865
0.0246593
0.156542
1.53798
)
;
    }
    rightWall
    {
        type            epsilonWallFunction;
        value           nonuniform List<scalar> 
50
(
0.00302644
0.0034882
0.00444378
0.00494997
0.00515779
0.00531852
0.00550674
0.00566831
0.00580869
0.00575729
0.00658991
0.0109915
0.013155
0.015909
0.0167548
0.0166431
0.014376
0.0114654
0.00919623
0.0078969
0.00832104
0.00988927
0.0117645
0.0138044
0.0159746
0.0181557
0.0203766
0.0225998
0.0242688
0.0252068
0.0256322
0.0259514
0.0263668
0.027151
0.0286743
0.0308785
0.0339088
0.0374453
0.0415547
0.0464749
0.0524603
0.0596244
0.0685225
0.0807714
0.098415
0.124492
0.166328
0.235799
0.360139
0.583953
)
;
    }
    lowerWall
    {
        type            epsilonWallFunction;
        value           nonuniform List<scalar> 
62
(
0.00114994
0.00582204
0.0100332
0.0137431
0.0169811
0.0197994
0.0222521
0.0243906
0.026267
0.0279347
0.0294396
0.0308049
0.0320758
0.0332182
0.0340207
0.0341166
0.0324619
0.0288781
0.0254721
0.023014
0.0195612
0.0124001
0.00271478
0.00271478
0.00502748
0.00844503
0.012129
0.0164804
0.0225583
0.0331476
0.0562603
0.0651955
0.0551545
0.0556437
0.066394
0.00172401
0.00267195
0.00481535
0.00738939
0.0106998
0.0155336
0.0240036
0.0432053
0.00172401
0.00964932
0.0155182
0.0185501
0.0198419
0.0201033
0.0198632
0.0195655
0.0197305
0.0202261
0.0183517
0.015172
0.013379
0.0159633
0.0198269
0.0193473
0.0154283
0.00898915
0.00302644
)
;
    }
    atmosphere
    {
        type            inletOutlet;
        inletValue      uniform 0.1;
        value           nonuniform List<scalar> 
46
(
0.1
0.156117
0.0419922
0.0234696
0.0174488
0.0146616
0.0133052
0.0128173
0.0129683
0.0136699
0.0149183
0.0167775
0.0193789
0.022929
0.0277077
0.0340279
0.0421372
0.0522134
0.0650382
0.1
0.1
0.1
0.1
0.1
0.1
0.1
0.1
0.1
0.1
0.1
0.1
0.1
0.1
0.1
0.1
0.1
0.1
0.1
0.1
0.1
0.1
0.1
0.1
0.1
0.1
0.583953
)
;
    }
    defaultFaces
    {
        type            empty;
    }
}


// ************************************************************************* //
