/*--------------------------------*- C++ -*----------------------------------*\
  =========                 |
  \\      /  F ield         | OpenFOAM: The Open Source CFD Toolbox
   \\    /   O peration     | Website:  https://openfoam.org
    \\  /    A nd           | Version:  9
     \\/     M anipulation  |
\*---------------------------------------------------------------------------*/
FoamFile
{
    format      ascii;
    class       volScalarField;
    location    "4.14";
    object      p;
}
// * * * * * * * * * * * * * * * * * * * * * * * * * * * * * * * * * * * * * //

dimensions      [1 -1 -2 0 0 0 0];

internalField   nonuniform List<scalar> 
2268
(
761.262
760.809
759.881
758.452
756.618
754.394
751.836
749
745.941
742.715
739.358
735.971
732.591
729.251
725.972
722.728
719.55
716.518
714.154
712.669
711.769
711.155
710.505
702.491
702.035
701.121
699.724
697.874
695.643
693.078
690.234
687.164
683.917
680.552
677.134
673.712
670.325
667.001
663.741
660.646
657.973
655.922
653.993
652.851
652.184
651.638
643.825
643.36
642.449
641.04
639.194
636.952
634.372
631.509
628.413
625.143
621.752
618.298
614.834
611.409
608.065
604.853
602.039
599.881
597.906
595.555
593.91
593.09
592.57
585.272
584.798
583.881
582.46
580.596
578.33
575.722
572.825
569.693
566.387
562.956
559.459
555.956
552.503
549.165
546.031
543.465
541.728
539.665
537.358
535.184
533.943
533.362
526.834
526.35
525.418
523.977
522.084
519.78
517.128
514.183
511.004
507.649
504.167
500.618
497.07
493.591
490.258
487.178
484.68
483.104
481.235
478.845
476.231
474.739
474.062
468.512
468.017
467.064
465.59
463.659
461.303
458.593
455.588
452.348
448.933
445.386
441.774
438.172
434.657
431.312
428.245
425.695
423.974
422.181
419.747
417.059
415.516
414.681
410.308
409.8
408.823
407.312
405.326
402.903
400.12
397.041
393.726
390.238
386.617
382.927
379.259
375.693
372.314
369.224
366.591
364.593
362.617
360.257
357.84
356.336
355.172
352.229
351.709
350.701
349.143
347.089
344.58
341.707
338.54
335.14
331.57
327.863
324.081
320.333
316.703
313.269
310.129
307.403
305.187
303.068
300.788
298.623
297.267
295.237
714.665
715.405
716.388
717.615
719.156
721.01
723.136
725.469
727.917
730.257
731.868
733.519
734.902
737.716
741.706
743.487
742.937
740.955
741.423
656.32
656.659
657.55
658.833
660.442
662.38
664.591
666.919
669.177
671.435
673.243
675.463
678.285
680.753
682.841
683.975
683.559
683.455
684.715
597.644
597.815
598.54
599.826
601.485
603.494
605.791
608.161
610.48
612.837
615.212
618.313
621.493
623.399
624.033
624.957
624.884
625.67
627.458
538.587
538.828
539.502
540.778
542.473
544.538
546.889
549.381
551.919
554.47
557.784
561.425
564.372
565.495
565.701
566.529
566.819
567.698
570.181
479.363
479.671
480.353
481.657
483.388
485.508
487.929
490.63
493.362
496.128
499.996
504.34
507.189
507.395
507.635
508.487
509.057
509.401
513.03
420.046
420.327
421.068
422.443
424.222
426.408
428.895
431.724
434.665
437.652
441.652
446.285
449.032
449.168
449.695
450.699
451.458
451.531
455.549
360.366
360.771
361.633
363.139
364.983
367.24
369.774
372.68
375.808
379.01
383.012
387.403
390.138
390.891
391.839
393.111
394.088
395.34
397.966
300.891
301.134
302.07
303.715
305.663
307.986
310.535
313.5
316.828
320.417
324.551
328.601
331.397
332.706
334.059
335.71
337.232
339.676
340.7
261.663
261.106
260.032
258.382
256.195
253.515
250.477
247.158
243.608
239.896
236.03
232.064
228.163
224.41
220.856
217.595
214.716
212.241
209.974
207.825
206.062
205.144
204.106
138.955
138.413
137.316
135.541
133.122
130.074
126.759
123.209
119.37
115.399
111.375
107.475
103.708
100.146
96.892
93.9922
91.4182
89.1615
87.1784
85.4627
84.0732
82.9754
82.3068
40.9842
40.6171
39.8953
38.7625
37.2801
35.5412
33.5311
31.4373
29.2616
27.0684
24.9549
23.0883
21.2973
19.6244
18.1539
16.8709
15.7523
14.8006
13.9999
13.3832
12.916
12.5725
12.2362
1.07888
1.04646
0.960914
0.849539
0.778409
0.674395
0.560603
0.600209
0.678285
0.662386
0.646335
0.619993
0.593831
0.552897
0.467131
0.271873
0.131037
0.0508818
-0.012123
0.000213356
-0.0464677
-0.122292
-0.31107
-0.442433
-0.446945
-0.453204
-0.45381
-0.385059
-0.321742
-0.269191
-0.202089
-0.128778
-0.0989837
-0.105689
-0.116975
-0.138273
-0.17301
-0.227597
-0.27818
-0.326367
-0.364033
-0.398734
-0.467874
-0.519337
-0.576844
-0.637144
-0.82099
-0.82716
-0.835724
-0.859263
-0.845092
-0.827503
-0.820896
-0.828958
-0.860979
-0.881495
-0.894602
-0.900636
-0.910701
-0.923691
-0.933289
-0.879675
-0.87486
-0.86557
-0.866278
-0.922701
-0.94433
-0.950069
-0.909662
-1.17906
-1.18112
-1.17962
-1.18355
-1.19215
-1.20102
-1.21199
-1.23295
-1.25583
-1.27193
-1.28038
-1.28142
-1.27739
-1.26948
-1.26082
-1.2559
-1.24793
-1.23137
-1.2088
-1.17774
-1.1619
-1.15595
-1.12569
-1.42781
-1.42773
-1.42281
-1.41407
-1.41803
-1.41841
-1.41818
-1.42005
-1.41804
-1.413
-1.40959
-1.40696
-1.40308
-1.3981
-1.39324
-1.38951
-1.38024
-1.37123
-1.35875
-1.34426
-1.33484
-1.33167
-1.32048
-1.56642
-1.564
-1.56431
-1.56118
-1.56076
-1.55893
-1.55593
-1.55093
-1.54518
-1.54007
-1.53611
-1.53277
-1.52917
-1.52517
-1.52131
-1.51786
-1.51391
-1.51309
-1.5117
-1.50609
-1.50016
-1.49962
-1.50149
-1.68685
-1.68556
-1.68498
-1.68301
-1.68217
-1.68054
-1.67792
-1.67423
-1.66977
-1.66556
-1.66194
-1.65874
-1.65562
-1.65232
-1.64912
-1.64643
-1.6442
-1.64373
-1.64503
-1.64664
-1.64517
-1.64368
-1.64397
-1.80843
-1.80756
-1.8068
-1.80556
-1.80444
-1.80286
-1.80059
-1.79763
-1.79415
-1.79072
-1.78759
-1.78469
-1.78185
-1.77904
-1.77639
-1.77418
-1.77246
-1.77179
-1.77198
-1.77222
-1.77201
-1.77031
-1.76938
-1.93061
-1.93005
-1.92935
-1.92838
-1.92727
-1.92578
-1.92382
-1.92138
-1.91863
-1.91583
-1.91311
-1.91048
-1.90791
-1.90547
-1.90325
-1.90137
-1.8999
-1.89908
-1.89875
-1.89846
-1.89787
-1.89683
-1.89594
-2.05321
-2.05291
-2.05238
-2.05157
-2.05053
-2.04917
-2.04747
-2.04543
-2.04318
-2.04082
-2.03844
-2.03609
-2.03383
-2.03172
-2.02981
-2.02817
-2.02688
-2.02601
-2.0255
-2.02511
-2.02447
-2.02364
-2.02286
-2.17612
-2.17607
-2.17572
-2.17505
-2.17412
-2.1729
-2.17141
-2.16967
-2.16775
-2.16572
-2.16365
-2.1616
-2.15963
-2.15779
-2.15612
-2.15469
-2.15352
-2.15265
-2.15209
-2.1517
-2.15116
-2.15047
-2.14975
-2.29927
-2.29944
-2.29927
-2.29875
-2.29794
-2.29687
-2.29556
-2.29405
-2.29239
-2.29063
-2.28884
-2.28706
-2.28534
-2.28372
-2.28226
-2.28097
-2.2799
-2.27906
-2.27843
-2.27796
-2.27752
-2.27695
-2.27625
-2.42266
-2.42301
-2.423
-2.42261
-2.42193
-2.421
-2.41986
-2.41855
-2.41711
-2.41558
-2.41402
-2.41246
-2.41096
-2.40954
-2.40823
-2.40708
-2.40609
-2.40527
-2.40462
-2.40408
-2.40359
-2.40307
-2.40254
-2.54628
-2.54676
-2.54688
-2.54662
-2.54606
-2.54526
-2.54428
-2.54314
-2.54188
-2.54055
-2.53919
-2.53782
-2.5365
-2.53524
-2.53408
-2.53303
-2.53212
-2.53135
-2.53069
-2.53014
-2.52964
-2.52918
-2.52874
-2.67012
-2.67068
-2.6709
-2.67075
-2.6703
-2.66962
-2.66878
-2.66779
-2.66669
-2.66553
-2.66434
-2.66314
-2.66197
-2.66085
-2.65981
-2.65887
-2.65803
-2.6573
-2.65667
-2.65612
-2.65565
-2.65522
-2.65485
-2.79418
-2.79478
-2.79507
-2.79499
-2.79463
-2.79407
-2.79334
-2.79248
-2.79153
-2.79051
-2.78946
-2.78841
-2.78737
-2.78638
-2.78545
-2.78459
-2.78382
-2.78314
-2.78255
-2.78203
-2.78158
-2.78119
-2.78086
-2.91843
-2.91903
-2.91936
-2.91934
-2.91906
-2.91858
-2.91795
-2.91721
-2.91638
-2.91549
-2.91457
-2.91364
-2.91272
-2.91184
-2.911
-2.91023
-2.90953
-2.9089
-2.90834
-2.90785
-2.90744
-2.90708
-2.90679
-3.04284
-3.04343
-3.04376
-3.04378
-3.04355
-3.04315
-3.04262
-3.04197
-3.04125
-3.04047
-3.03966
-3.03884
-3.03802
-3.03723
-3.03649
-3.03579
-3.03515
-3.03457
-3.03406
-3.03361
-3.03323
-3.0329
-3.03265
-3.16739
-3.16794
-3.16826
-3.1683
-3.16812
-3.16778
-3.16732
-3.16676
-3.16612
-3.16544
-3.16473
-3.164
-3.16328
-3.16258
-3.16191
-3.16129
-3.16071
-3.16018
-3.15971
-3.1593
-3.15895
-3.15866
-3.15844
-3.29207
-3.29256
-3.29284
-3.29288
-3.29274
-3.29245
-3.29205
-3.29156
-3.29101
-3.29041
-3.28979
-3.28915
-3.28851
-3.28789
-3.28729
-3.28673
-3.28621
-3.28573
-3.28531
-3.28494
-3.28462
-3.28436
-3.28416
-3.41685
-3.41726
-3.4175
-3.41753
-3.4174
-3.41715
-3.41681
-3.41638
-3.4159
-3.41538
-3.41483
-3.41427
-3.41371
-3.41316
-3.41263
-3.41213
-3.41166
-3.41123
-3.41085
-3.41052
-3.41024
-3.41
-3.40983
-3.5417
-3.54204
-3.54221
-3.54222
-3.54211
-3.54189
-3.54159
-3.54122
-3.5408
-3.54035
-3.53987
-3.53937
-3.53888
-3.53839
-3.53793
-3.53748
-3.53707
-3.53669
-3.53635
-3.53605
-3.5358
-3.53559
-3.53544
-3.66661
-3.66686
-3.66696
-3.66695
-3.66684
-3.66665
-3.66639
-3.66607
-3.66571
-3.66531
-3.66489
-3.66446
-3.66403
-3.6636
-3.66319
-3.6628
-3.66243
-3.6621
-3.66179
-3.66153
-3.66131
-3.66113
-3.661
-3.79156
-3.79171
-3.79174
-3.7917
-3.7916
-3.79143
-3.79121
-3.79093
-3.79062
-3.79027
-3.78991
-3.78954
-3.78916
-3.78879
-3.78842
-3.78808
-3.78776
-3.78746
-3.7872
-3.78697
-3.78678
-3.78662
-3.78651
-3.91653
-3.9166
-3.91656
-3.91649
-3.91639
-3.91624
-3.91604
-3.9158
-3.91553
-3.91523
-3.91492
-3.9146
-3.91427
-3.91395
-3.91363
-3.91333
-3.91305
-3.9128
-3.91257
-3.91237
-3.9122
-3.91207
-3.91197
-4.0415
-4.0415
-4.04142
-4.04133
-4.04122
-4.04107
-4.04089
-4.04068
-4.04045
-4.04019
-4.03993
-4.03965
-4.03937
-4.03909
-4.03882
-4.03856
-4.03832
-4.0381
-4.0379
-4.03773
-4.03759
-4.03748
-4.0374
-4.16648
-4.1664
-4.16628
-4.16619
-4.16607
-4.16592
-4.16576
-4.16558
-4.16538
-4.16516
-4.16493
-4.1647
-4.16446
-4.16422
-4.16399
-4.16377
-4.16356
-4.16337
-4.1632
-4.16306
-4.16294
-4.16285
-4.16279
-4.29146
-4.2913
-4.29115
-4.29104
-4.29092
-4.29078
-4.29064
-4.29048
-4.29031
-4.29013
-4.28994
-4.28974
-4.28954
-4.28934
-4.28914
-4.28895
-4.28878
-4.28862
-4.28848
-4.28836
-4.28826
-4.28819
-4.28815
-4.41644
-4.4162
-4.41602
-4.4159
-4.41578
-4.41566
-4.41553
-4.4154
-4.41526
-4.41511
-4.41495
-4.41479
-4.41462
-4.41445
-4.41428
-4.41412
-4.41398
-4.41385
-4.41373
-4.41364
-4.41356
-4.41351
-4.41348
-4.54142
-4.54113
-4.54091
-4.54077
-4.54066
-4.54056
-4.54045
-4.54034
-4.54023
-4.5401
-4.53997
-4.53984
-4.5397
-4.53956
-4.53942
-4.53929
-4.53916
-4.53906
-4.53897
-4.53889
-4.53884
-4.5388
-4.53879
-4.66639
-4.66607
-4.66582
-4.66568
-4.66558
-4.66549
-4.6654
-4.66531
-4.66521
-4.66511
-4.66501
-4.6649
-4.66478
-4.66466
-4.66455
-4.66444
-4.66434
-4.66425
-4.66418
-4.66413
-4.6641
-4.66408
-4.66408
-4.79136
-4.79101
-4.79076
-4.79062
-4.79053
-4.79045
-4.79037
-4.7903
-4.79022
-4.79015
-4.79006
-4.78997
-4.78988
-4.78978
-4.78968
-4.78959
-4.78951
-4.78944
-4.78939
-4.78936
-4.78934
-4.78935
-4.78936
-4.91632
-4.91596
-4.91572
-4.9156
-4.91551
-4.91544
-4.91538
-4.91532
-4.91526
-4.9152
-4.91513
-4.91506
-4.91498
-4.9149
-4.91481
-4.91474
-4.91467
-4.91461
-4.91458
-4.91457
-4.91458
-4.9146
-4.91463
-5.04124
-5.0409
-5.0407
-5.0406
-5.04054
-5.04048
-5.04043
-5.04038
-5.04033
-5.04028
-5.04023
-5.04017
-5.0401
-5.04002
-5.03995
-5.03988
-5.03982
-5.03978
-5.03976
-5.03977
-5.0398
-5.03985
-5.0399
-5.16612
-5.16583
-5.1657
-5.16565
-5.1656
-5.16556
-5.16552
-5.16548
-5.16544
-5.1654
-5.16535
-5.16529
-5.16523
-5.16516
-5.16509
-5.16502
-5.16497
-5.16493
-5.16491
-5.16495
-5.16502
-5.16509
-5.16516
-5.29094
-5.29075
-5.29073
-5.29074
-5.29072
-5.29068
-5.29065
-5.29062
-5.29058
-5.29055
-5.2905
-5.29044
-5.29038
-5.29031
-5.29024
-5.29018
-5.29011
-5.29007
-5.29005
-5.29012
-5.29024
-5.29035
-5.29043
-5.41577
-5.41574
-5.41583
-5.41588
-5.41588
-5.41586
-5.41583
-5.41579
-5.41576
-5.41571
-5.41566
-5.4156
-5.41554
-5.41547
-5.41539
-5.41532
-5.41525
-5.41519
-5.41513
-5.41524
-5.41547
-5.41562
-5.41572
-5.54041
-5.54077
-5.541
-5.5411
-5.54111
-5.54108
-5.54103
-5.54098
-5.54091
-5.54084
-5.54077
-5.54069
-5.5406
-5.54051
-5.54042
-5.54034
-5.54026
-5.54016
-5.53994
-5.54014
-5.54068
-5.54093
-5.54103
-5.66557
-5.66695
-5.66657
-5.6665
-5.66644
-5.66637
-5.66628
-5.6662
-5.6661
-5.66601
-5.66591
-5.66581
-5.66571
-5.66561
-5.6655
-5.66539
-5.66522
-5.66491
-5.66447
-5.66474
-5.66586
-5.66623
-5.66634
204.061
203.885
203.963
204.392
82.2392
82.2415
82.3542
82.7858
12.1148
12.1022
12.1685
12.3597
-0.221442
-0.194795
-0.216451
-0.272332
-0.596757
-0.578017
-0.601404
-0.612955
-0.920055
-0.884434
-0.913829
-0.916289
-1.15063
-1.1611
-1.16419
-1.16393
-1.33768
-1.35024
-1.35337
-1.35396
-1.50515
-1.50614
-1.50452
-1.50275
-1.64187
-1.63935
-1.63726
-1.63601
-1.76812
-1.76711
-1.76606
-1.76529
-1.89507
-1.89446
-1.89389
-1.89342
-2.02214
-2.0217
-2.02132
-2.021
-2.1491
-2.14874
-2.14844
-2.14821
-2.27575
-2.27548
-2.27526
-2.27509
-2.40218
-2.40199
-2.40183
-2.40171
-2.52846
-2.52832
-2.5282
-2.52812
-2.65463
-2.65451
-2.65443
-2.65437
-2.78068
-2.78059
-2.78052
-2.78048
-2.90664
-2.90656
-2.90651
-2.90648
-3.03252
-3.03245
-3.03241
-3.03239
-3.15832
-3.15827
-3.15824
-3.15822
-3.28406
-3.28402
-3.28399
-3.28398
-3.40974
-3.4097
-3.40968
-3.40967
-3.53537
-3.53533
-3.53531
-3.5353
-3.66094
-3.66091
-3.66089
-3.66088
-3.78646
-3.78643
-3.78642
-3.78641
-3.91193
-3.91191
-3.9119
-3.91189
-4.03736
-4.03735
-4.03734
-4.03734
-4.16276
-4.16275
-4.16275
-4.16275
-4.28813
-4.28812
-4.28812
-4.28812
-4.41347
-4.41347
-4.41347
-4.41348
-4.53879
-4.53879
-4.5388
-4.53881
-4.66409
-4.6641
-4.66411
-4.66412
-4.78938
-4.78939
-4.7894
-4.78942
-4.91466
-4.91467
-4.91469
-4.91471
-5.03993
-5.03995
-5.03997
-5.03999
-5.1652
-5.16523
-5.16525
-5.16527
-5.29048
-5.29051
-5.29053
-5.29055
-5.41577
-5.41579
-5.41582
-5.41584
-5.54108
-5.5411
-5.54111
-5.54112
-5.66638
-5.66639
-5.66641
-5.66641
205.848
207.155
208.808
211.028
213.73
216.689
219.752
222.812
225.953
229.416
233.206
236.99
239.915
241.885
243.778
246.09
248.6
251.253
251.886
84.1394
85.8344
87.9265
90.5045
93.5689
96.9195
100.529
103.987
107.102
110
112.866
115.823
118.602
121.078
123.445
125.807
128.482
131.428
131.588
12.9196
13.9206
15.0674
16.2931
17.6685
19.2873
21.1797
23.147
24.882
26.2178
27.2951
28.4784
29.8506
31.427
33.006
34.0892
35.0127
36.4629
36.5358
-0.376846
-0.453517
-0.471348
-0.49379
-0.442876
-0.359388
-0.373964
-0.40069
-0.415084
-0.406204
-0.382145
-0.250003
-0.108063
0.0979793
0.326141
0.395004
0.17248
-0.346369
-0.510744
-0.627045
-0.640847
-0.646664
-0.655076
-0.63646
-0.607622
-0.59871
-0.599119
-0.602315
-0.606262
-0.608982
-0.613869
-0.61717
-0.624023
-0.649418
-0.721838
-0.714076
-0.707033
-0.718693
-0.897601
-0.89021
-0.894682
-0.900557
-0.91272
-0.934145
-0.941749
-0.944794
-0.943623
-0.940614
-0.936092
-0.937398
-0.936453
-0.937264
-0.951869
-0.986034
-0.97107
-0.975766
-0.970675
-1.17148
-1.16922
-1.17204
-1.17303
-1.19483
-1.21796
-1.2271
-1.23093
-1.23149
-1.23063
-1.22912
-1.22868
-1.22916
-1.22909
-1.22783
-1.21805
-1.22161
-1.22648
-1.22673
-1.36645
-1.37132
-1.37492
-1.37651
-1.38175
-1.38297
-1.38444
-1.38704
-1.3895
-1.3916
-1.39405
-1.39678
-1.40118
-1.40682
-1.41128
-1.40079
-1.40912
-1.40931
-1.41104
-1.50428
-1.50965
-1.5112
-1.51283
-1.51194
-1.51151
-1.51249
-1.51427
-1.51569
-1.51668
-1.51902
-1.52255
-1.52692
-1.53221
-1.5376
-1.53746
-1.54143
-1.54187
-1.5415
-1.63532
-1.63745
-1.63851
-1.63938
-1.63895
-1.63889
-1.64004
-1.64153
-1.64233
-1.64419
-1.64766
-1.65166
-1.65528
-1.6577
-1.66025
-1.66088
-1.6635
-1.6643
-1.66449
-1.7645
-1.76532
-1.76594
-1.76635
-1.76628
-1.76678
-1.76812
-1.76965
-1.77101
-1.77432
-1.77852
-1.78139
-1.78247
-1.78219
-1.78347
-1.78457
-1.78619
-1.78717
-1.7879
-1.8928
-1.89311
-1.89357
-1.89402
-1.8945
-1.89553
-1.89692
-1.89901
-1.90193
-1.90542
-1.90798
-1.90819
-1.90767
-1.90815
-1.90932
-1.91046
-1.91154
-1.91221
-1.91294
-2.02056
-2.02072
-2.02124
-2.02213
-2.02315
-2.02432
-2.02583
-2.02805
-2.03153
-2.03399
-2.0347
-2.03488
-2.03498
-2.03618
-2.03778
-2.03874
-2.03919
-2.03934
-2.03958
-2.1479
-2.14804
-2.1486
-2.14973
-2.15113
-2.15235
-2.15357
-2.15521
-2.15766
-2.15946
-2.1604
-2.16168
-2.16314
-2.16425
-2.16495
-2.16503
-2.16493
-2.16513
-2.16553
-2.27488
-2.27502
-2.27554
-2.27651
-2.27783
-2.27897
-2.2799
-2.28125
-2.28305
-2.2846
-2.28584
-2.28736
-2.28931
-2.29027
-2.29
-2.28979
-2.28983
-2.29013
-2.29037
-2.40157
-2.4017
-2.40215
-2.4029
-2.40389
-2.40488
-2.40587
-2.40707
-2.40851
-2.40987
-2.41111
-2.41248
-2.41384
-2.4146
-2.41477
-2.41488
-2.41515
-2.41567
-2.41567
-2.52803
-2.52816
-2.52853
-2.52915
-2.52994
-2.5308
-2.53172
-2.53279
-2.534
-2.53519
-2.53634
-2.5375
-2.5386
-2.53936
-2.53981
-2.5402
-2.54071
-2.54159
-2.5415
-2.65431
-2.65443
-2.65475
-2.65527
-2.65594
-2.65669
-2.65752
-2.65846
-2.6595
-2.66055
-2.66158
-2.66261
-2.66357
-2.66435
-2.66496
-2.66556
-2.66622
-2.66727
-2.66711
-2.78044
-2.78056
-2.78084
-2.78128
-2.78186
-2.78252
-2.78327
-2.7841
-2.785
-2.78592
-2.78685
-2.78777
-2.78865
-2.78943
-2.79013
-2.79085
-2.79161
-2.79255
-2.79251
-2.90646
-2.90657
-2.90682
-2.9072
-2.9077
-2.90829
-2.90895
-2.90969
-2.91048
-2.91131
-2.91214
-2.91297
-2.91378
-2.91453
-2.91526
-2.91602
-2.91683
-2.91759
-2.91777
-3.03239
-3.03248
-3.0327
-3.03303
-3.03347
-3.03399
-3.03458
-3.03524
-3.03594
-3.03668
-3.03743
-3.03818
-3.03891
-3.03962
-3.04031
-3.04103
-3.04178
-3.04235
-3.04259
-3.15822
-3.15831
-3.15851
-3.1588
-3.15918
-3.15964
-3.16017
-3.16076
-3.16138
-3.16204
-3.16271
-3.16338
-3.16404
-3.16467
-3.16527
-3.16588
-3.16645
-3.16677
-3.16673
-3.28398
-3.28407
-3.28424
-3.2845
-3.28484
-3.28525
-3.28572
-3.28624
-3.2868
-3.28739
-3.28798
-3.28857
-3.28914
-3.28968
-3.29018
-3.29063
-3.29098
-3.29107
-3.29081
-3.40968
-3.40975
-3.40991
-3.41014
-3.41045
-3.41081
-3.41123
-3.4117
-3.41219
-3.41271
-3.41324
-3.41375
-3.41424
-3.41469
-3.41507
-3.41535
-3.41549
-3.4154
-3.41507
-3.53531
-3.53538
-3.53552
-3.53573
-3.536
-3.53633
-3.53671
-3.53712
-3.53756
-3.53802
-3.53849
-3.53893
-3.53935
-3.5397
-3.53997
-3.5401
-3.54004
-3.5398
-3.53941
-3.66089
-3.66096
-3.66109
-3.66128
-3.66152
-3.66181
-3.66215
-3.66252
-3.66292
-3.66332
-3.66373
-3.66412
-3.66447
-3.66475
-3.66492
-3.66493
-3.6647
-3.66433
-3.66375
-3.78642
-3.78648
-3.7866
-3.78677
-3.78699
-3.78726
-3.78756
-3.7879
-3.78825
-3.78862
-3.78898
-3.78932
-3.78962
-3.78985
-3.78996
-3.78991
-3.78962
-3.78922
-3.78854
-3.9119
-3.91197
-3.91208
-3.91223
-3.91243
-3.91267
-3.91295
-3.91325
-3.91357
-3.9139
-3.91423
-3.91453
-3.9148
-3.915
-3.9151
-3.91505
-3.91481
-3.91449
-3.91397
-4.03735
-4.03741
-4.03752
-4.03766
-4.03784
-4.03806
-4.03831
-4.03859
-4.03888
-4.03918
-4.03948
-4.03976
-4.04001
-4.04021
-4.04031
-4.0403
-4.04014
-4.0399
-4.03947
-4.16276
-4.16282
-4.16292
-4.16306
-4.16323
-4.16343
-4.16365
-4.16391
-4.16418
-4.16445
-4.16473
-4.165
-4.16524
-4.16544
-4.16557
-4.16561
-4.16552
-4.1653
-4.16488
-4.28814
-4.28821
-4.2883
-4.28843
-4.28858
-4.28877
-4.28898
-4.28921
-4.28946
-4.28972
-4.28999
-4.29025
-4.29049
-4.29069
-4.29085
-4.29093
-4.2909
-4.29069
-4.29021
-4.4135
-4.41356
-4.41365
-4.41377
-4.41392
-4.41409
-4.41428
-4.4145
-4.41473
-4.41498
-4.41523
-4.41549
-4.41573
-4.41595
-4.41614
-4.41626
-4.41629
-4.41608
-4.41554
-4.53884
-4.5389
-4.53899
-4.5391
-4.53923
-4.53939
-4.53957
-4.53977
-4.53999
-4.54022
-4.54047
-4.54072
-4.54097
-4.54121
-4.54142
-4.54158
-4.54165
-4.54146
-4.541
-4.66415
-4.66422
-4.6643
-4.6644
-4.66453
-4.66467
-4.66484
-4.66503
-4.66523
-4.66545
-4.66569
-4.66594
-4.6662
-4.66645
-4.66667
-4.66685
-4.66691
-4.66667
-4.66619
-4.78945
-4.78952
-4.7896
-4.7897
-4.78981
-4.78994
-4.79009
-4.79026
-4.79046
-4.79067
-4.7909
-4.79115
-4.79141
-4.79167
-4.79191
-4.79208
-4.79208
-4.7917
-4.79094
-4.91475
-4.91481
-4.91489
-4.91497
-4.91508
-4.9152
-4.91533
-4.91549
-4.91566
-4.91586
-4.91608
-4.91633
-4.9166
-4.91688
-4.91715
-4.91734
-4.91732
-4.91685
-4.91593
-5.04003
-5.04009
-5.04016
-5.04024
-5.04033
-5.04044
-5.04056
-5.04069
-5.04085
-5.04103
-5.04124
-5.04149
-5.04177
-5.04208
-5.0424
-5.04267
-5.04272
-5.04225
-5.0413
-5.16531
-5.16537
-5.16543
-5.1655
-5.16557
-5.16566
-5.16577
-5.16588
-5.16602
-5.16618
-5.16638
-5.16661
-5.1669
-5.16724
-5.16765
-5.16807
-5.1683
-5.1679
-5.16695
-5.29059
-5.29064
-5.29069
-5.29074
-5.29081
-5.29088
-5.29096
-5.29106
-5.29117
-5.29131
-5.29148
-5.2917
-5.29198
-5.29235
-5.29285
-5.29349
-5.29408
-5.29381
-5.29289
-5.41586
-5.4159
-5.41594
-5.41598
-5.41603
-5.41609
-5.41615
-5.41622
-5.41631
-5.41641
-5.41655
-5.41672
-5.41697
-5.41733
-5.4179
-5.41883
-5.42004
-5.42007
-5.41949
-5.54114
-5.54117
-5.54119
-5.54122
-5.54125
-5.54128
-5.54132
-5.54137
-5.54143
-5.54149
-5.54158
-5.54169
-5.54186
-5.54213
-5.54263
-5.54374
-5.54586
-5.5467
-5.54728
-5.66642
-5.66644
-5.66645
-5.66646
-5.66648
-5.66649
-5.66651
-5.66653
-5.66655
-5.66657
-5.6666
-5.66665
-5.66671
-5.66684
-5.66713
-5.66794
-5.67041
-5.67417
-5.67695
)
;

boundaryField
{
    leftWall
    {
        type            calculated;
        value           nonuniform List<scalar> 
50
(
761.262
702.491
643.825
585.272
526.834
468.512
410.308
352.229
261.663
138.955
40.9842
1.07888
-0.442433
-0.82099
-1.17906
-1.42781
-1.56642
-1.68685
-1.80843
-1.93061
-2.05321
-2.17612
-2.29927
-2.42266
-2.54628
-2.67012
-2.79418
-2.91843
-3.04284
-3.16739
-3.29207
-3.41685
-3.5417
-3.66661
-3.79156
-3.91653
-4.0415
-4.16648
-4.29146
-4.41644
-4.54142
-4.66639
-4.79136
-4.91632
-5.04124
-5.16612
-5.29094
-5.41577
-5.54041
-5.66557
)
;
    }
    rightWall
    {
        type            calculated;
        value           nonuniform List<scalar> 
50
(
741.423
684.715
627.458
570.181
513.03
455.549
397.966
340.7
251.886
131.588
36.5358
-0.510744
-0.718693
-0.970675
-1.22673
-1.41104
-1.5415
-1.66449
-1.7879
-1.91294
-2.03958
-2.16553
-2.29037
-2.41567
-2.5415
-2.66711
-2.79251
-2.91777
-3.04259
-3.16673
-3.29081
-3.41507
-3.53941
-3.66375
-3.78854
-3.91397
-4.03947
-4.16488
-4.29021
-4.41554
-4.541
-4.66619
-4.79094
-4.91593
-5.0413
-5.16695
-5.29289
-5.41949
-5.54728
-5.67695
)
;
    }
    lowerWall
    {
        type            calculated;
        value           nonuniform List<scalar> 
62
(
790.692
790.239
789.31
787.881
786.047
783.823
781.265
778.429
775.37
772.144
768.788
765.4
762.021
758.681
755.401
752.158
748.979
745.905
743.5
742.007
741.089
740.449
739.798
710.505
651.638
592.57
533.362
474.062
414.681
355.172
295.237
266.636
266.457
266.545
266.982
714.665
656.32
597.644
538.587
479.363
420.046
360.366
300.891
743.793
744.541
745.542
746.766
748.312
750.166
752.292
754.647
757.288
759.643
761.209
762.86
763.307
765.989
770.476
772.779
772.242
769.253
769.688
)
;
    }
    atmosphere
    {
        type            calculated;
        value           nonuniform List<scalar> 
46
(
-5.72917
-5.72904
-5.72904
-5.72904
-5.72904
-5.72904
-5.72904
-5.72904
-5.72904
-5.72904
-5.72904
-5.72904
-5.72904
-5.72904
-5.72904
-5.72904
-5.72904
-5.72904
-5.72904
-5.72904
-5.72904
-5.72905
-5.72905
-5.72906
-5.72906
-5.72906
-5.72907
-5.72907
-5.72908
-5.72909
-5.72909
-5.7291
-5.72911
-5.72911
-5.72912
-5.72912
-5.72913
-5.72913
-5.72914
-5.72914
-5.72915
-5.72915
-5.72914
-5.72911
-5.72904
-5.74479
)
;
    }
    defaultFaces
    {
        type            empty;
    }
}


// ************************************************************************* //
