/*--------------------------------*- C++ -*----------------------------------*\
  =========                 |
  \\      /  F ield         | OpenFOAM: The Open Source CFD Toolbox
   \\    /   O peration     | Website:  https://openfoam.org
    \\  /    A nd           | Version:  9
     \\/     M anipulation  |
\*---------------------------------------------------------------------------*/
FoamFile
{
    format      ascii;
    class       surfaceScalarField;
    location    "8.19";
    object      alphaPhi0.water;
}
// * * * * * * * * * * * * * * * * * * * * * * * * * * * * * * * * * * * * * //

dimensions      [0 3 -1 0 0 0 0];

internalField   nonuniform List<scalar> 
4432
(
3.90352e-08
-3.90351e-08
1.11645e-07
-7.26088e-08
1.97025e-07
-8.53802e-08
2.86315e-07
-8.92877e-08
3.77966e-07
-9.16502e-08
4.71368e-07
-9.33995e-08
5.65836e-07
-9.44665e-08
6.59956e-07
-9.41168e-08
7.4992e-07
-8.99589e-08
8.32416e-07
-8.24911e-08
9.0989e-07
-7.74683e-08
9.92269e-07
-8.23746e-08
1.09449e-06
-1.02219e-07
1.22497e-06
-1.30479e-07
1.36761e-06
-1.42638e-07
1.45368e-06
-8.60699e-08
1.35224e-06
1.01439e-07
1.01603e-06
3.36215e-07
4.10697e-07
6.04083e-07
-3.43641e-07
7.53868e-07
-7.28376e-07
3.83992e-07
-6.07569e-07
-1.20818e-07
-6.07732e-07
5.45954e-08
-9.36298e-08
1.29131e-07
-1.47141e-07
2.14118e-07
-1.70367e-07
3.04349e-07
-1.79514e-07
3.9662e-07
-1.83918e-07
4.89398e-07
-1.86173e-07
5.81685e-07
-1.86749e-07
6.7176e-07
-1.84185e-07
7.56484e-07
-1.74677e-07
8.32873e-07
-1.58871e-07
9.01683e-07
-1.46272e-07
9.68838e-07
-1.49525e-07
1.04268e-06
-1.76054e-07
1.12648e-06
-2.14283e-07
1.20707e-06
-2.2323e-07
1.24034e-06
-1.19334e-07
1.14598e-06
1.95793e-07
8.70432e-07
6.11763e-07
4.64519e-07
1.00935e-06
5.87427e-09
1.21204e-06
-3.33535e-07
7.23669e-07
-4.46679e-07
-7.68323e-09
-1.05441e-06
6.74393e-08
-1.61068e-07
1.44452e-07
-2.24153e-07
2.27995e-07
-2.53911e-07
3.16467e-07
-2.67984e-07
4.06701e-07
-2.74152e-07
4.96804e-07
-2.76275e-07
5.8559e-07
-2.75535e-07
6.71273e-07
-2.69866e-07
7.50691e-07
-2.54093e-07
8.20389e-07
-2.28567e-07
8.79671e-07
-2.05552e-07
9.31757e-07
-2.0161e-07
9.81961e-07
-2.26257e-07
1.0325e-06
-2.64822e-07
1.07529e-06
-2.6602e-07
1.08038e-06
-1.24437e-07
9.85626e-07
2.90543e-07
7.54784e-07
8.42604e-07
4.76957e-07
1.28719e-06
2.14928e-07
1.4736e-06
-7.93408e-08
1.01836e-06
-2.69446e-07
1.82412e-07
-1.32387e-06
7.62094e-08
-2.37279e-07
1.56869e-07
-3.04813e-07
2.40566e-07
-3.3761e-07
3.27726e-07
-3.55145e-07
4.15858e-07
-3.62286e-07
5.03082e-07
-3.635e-07
5.88226e-07
-3.60682e-07
6.69583e-07
-3.51226e-07
7.4378e-07
-3.28292e-07
8.06603e-07
-2.91392e-07
8.55967e-07
-2.54917e-07
8.93139e-07
-2.38783e-07
9.21845e-07
-2.54963e-07
9.44753e-07
-2.87731e-07
9.59987e-07
-2.81253e-07
9.53603e-07
-1.18152e-07
8.73159e-07
3.70659e-07
6.89467e-07
1.02627e-06
4.91992e-07
1.48485e-06
3.37692e-07
1.63073e-06
1.03931e-07
1.2525e-06
-1.01844e-07
3.87827e-07
-1.42568e-06
8.22634e-08
-3.19544e-07
1.66909e-07
-3.8946e-07
2.51986e-07
-4.22691e-07
3.38565e-07
-4.41727e-07
4.24787e-07
-4.48512e-07
5.09001e-07
-4.47719e-07
5.90258e-07
-4.41944e-07
6.67068e-07
-4.28041e-07
7.35852e-07
-3.97081e-07
7.91526e-07
-3.4707e-07
8.3073e-07
-2.94124e-07
8.53208e-07
-2.61263e-07
8.61766e-07
-2.63523e-07
8.59849e-07
-2.85814e-07
8.50962e-07
-2.72365e-07
8.38704e-07
-1.06134e-07
7.849e-07
4.2395e-07
6.46459e-07
1.16519e-06
5.06585e-07
1.62472e-06
4.1618e-07
1.72115e-06
2.35068e-07
1.43362e-06
5.9549e-08
5.60637e-07
-1.36573e-06
8.71091e-08
-4.06656e-07
1.75563e-07
-4.77916e-07
2.62517e-07
-5.09649e-07
3.48919e-07
-5.28132e-07
4.33244e-07
-5.32841e-07
5.14132e-07
-5.28612e-07
5.90985e-07
-5.18802e-07
6.62705e-07
-4.99766e-07
7.25639e-07
-4.6002e-07
7.73894e-07
-3.95329e-07
8.03023e-07
-3.23257e-07
8.1151e-07
-2.69751e-07
8.01462e-07
-2.53476e-07
7.76605e-07
-2.60957e-07
7.43796e-07
-2.39555e-07
7.18869e-07
-8.12052e-08
7.04119e-07
4.35665e-07
6.0841e-07
1.25285e-06
5.20325e-07
1.71281e-06
4.73953e-07
1.76753e-06
3.3745e-07
1.57013e-06
2.29035e-07
6.67191e-07
-1.13636e-06
9.17141e-08
-4.98373e-07
1.83651e-07
-5.69855e-07
2.72338e-07
-5.9834e-07
3.58518e-07
-6.14315e-07
4.40668e-07
-6.14995e-07
5.17654e-07
-6.05601e-07
5.89283e-07
-5.90435e-07
6.55015e-07
-5.65502e-07
7.11377e-07
-5.16385e-07
7.51932e-07
-4.35887e-07
7.7144e-07
-3.42766e-07
7.67327e-07
-2.65639e-07
7.40981e-07
-2.27131e-07
6.95618e-07
-2.15593e-07
6.38816e-07
-1.82753e-07
5.90525e-07
-3.29131e-08
5.89692e-07
4.31007e-07
5.66479e-07
1.26534e-06
5.42872e-07
1.72314e-06
5.08686e-07
1.786e-06
4.61611e-07
1.597e-06
4.36433e-07
6.98245e-07
-6.99955e-07
9.67989e-08
-5.95175e-07
1.91575e-07
-6.64632e-07
2.81471e-07
-6.88239e-07
3.66955e-07
-6.998e-07
4.46369e-07
-6.94408e-07
5.18666e-07
-6.77897e-07
5.83976e-07
-6.55744e-07
6.42445e-07
-6.23969e-07
6.91183e-07
-5.6512e-07
7.237e-07
-4.68401e-07
7.34425e-07
-3.53488e-07
7.19929e-07
-2.5114e-07
6.80803e-07
-1.88002e-07
6.19204e-07
-1.53992e-07
5.41862e-07
-1.05408e-07
4.69321e-07
3.96287e-08
4.53532e-07
4.46506e-07
5.10953e-07
1.20066e-06
5.55643e-07
1.67118e-06
5.39929e-07
1.77625e-06
6.20042e-07
1.50516e-06
6.19937e-07
7.08676e-07
-8.00489e-08
-1.2444e-06
1.24023e-06
-8.1169e-07
-4.326e-07
-1.64065e-07
-6.4791e-07
2.61305e-07
-4.25765e-07
5.49078e-07
-2.88359e-07
7.32217e-07
-1.85644e-07
8.33024e-07
-1.01873e-07
9.65251e-07
-1.33098e-07
1.04472e-06
-8.02757e-08
9.23399e-07
1.20717e-07
5.47434e-07
3.75653e-07
-2.12258e-07
7.59378e-07
-1.00439e-06
7.86577e-07
-1.24547e-06
2.41062e-07
-1.1906e-06
-5.48992e-08
-9.25921e-07
-2.64707e-07
-6.73212e-07
-2.52737e-07
-2.09433e-07
-4.63807e-07
-2.09718e-07
-8.35386e-07
2.06396e-06
-4.42049e-07
-8.25673e-07
-8.81893e-08
-1.00178e-06
1.47154e-07
-6.61107e-07
2.87319e-07
-4.28534e-07
3.77764e-07
-2.76099e-07
4.742e-07
-1.98315e-07
5.48483e-07
-2.07402e-07
5.20763e-07
-5.2578e-08
3.40112e-07
3.01469e-07
8.3888e-08
6.34261e-07
-2.61766e-07
1.10472e-06
-6.11993e-07
1.13647e-06
-8.64394e-07
4.91789e-07
-9.40597e-07
2.12782e-08
-8.8784e-07
-3.17489e-07
-8.56519e-07
-2.83892e-07
-5.95837e-07
-7.21593e-07
-8.03742e-07
-3.19261e-07
2.38321e-06
-1.3746e-07
-1.00823e-06
-1.76482e-08
-1.1216e-06
7.03646e-08
-7.49128e-07
1.21688e-07
-4.79867e-07
1.58493e-07
-3.12911e-07
2.08035e-07
-2.47843e-07
2.42051e-07
-2.41412e-07
1.79822e-07
9.62579e-09
-1.36112e-08
4.94928e-07
-2.08302e-07
8.29139e-07
-3.20375e-07
1.22629e-06
-4.24951e-07
1.2458e-06
-6.28119e-07
6.93665e-07
-7.50415e-07
1.43549e-07
-7.98078e-07
-2.69854e-07
-9.26093e-07
-1.52611e-07
-8.06882e-07
-8.41004e-07
-1.61082e-06
1.36558e-07
2.24664e-06
9.36146e-08
-9.64368e-07
2.24886e-08
-1.05048e-06
-5.5527e-09
-7.21098e-07
-2.24347e-08
-4.62986e-07
-3.36509e-08
-3.01654e-07
-2.27393e-08
-2.58719e-07
-1.36509e-08
-2.50473e-07
-7.63198e-08
7.22687e-08
-2.45714e-07
6.63951e-07
-3.8311e-07
9.66592e-07
-3.89637e-07
1.23287e-06
-3.76999e-07
1.23488e-06
-4.98547e-07
8.16185e-07
-5.94309e-07
2.3838e-07
-6.56028e-07
-2.08157e-07
-8.52301e-07
4.48749e-08
-7.65262e-07
-9.28243e-07
-2.38154e-06
4.73955e-07
1.77268e-06
2.26682e-07
-7.14963e-07
1.84357e-08
-8.42223e-07
-9.3912e-08
-6.08741e-07
-1.64186e-07
-3.92699e-07
-2.15466e-07
-2.50312e-07
-2.3845e-07
-2.35807e-07
-2.44357e-07
-2.44577e-07
-2.90104e-07
1.18243e-07
-4.17005e-07
7.89756e-07
-4.9373e-07
1.04321e-06
-4.47439e-07
1.18658e-06
-3.88331e-07
1.17577e-06
-4.50291e-07
8.78456e-07
-4.52157e-07
2.39789e-07
-4.53913e-07
-2.05354e-07
-6.14909e-07
2.0347e-07
-5.59937e-07
-9.86316e-07
-2.94148e-06
5.6488e-07
1.22066e-06
2.36716e-07
-3.86085e-07
-3.57213e-08
-5.69776e-07
-1.97745e-07
-4.4671e-07
-3.05629e-07
-2.84806e-07
-3.9012e-07
-1.65848e-07
-4.44408e-07
-1.81537e-07
-4.60029e-07
-2.28679e-07
-4.75535e-07
1.33481e-07
-5.5407e-07
8.65479e-07
-5.75214e-07
1.06403e-06
-4.94935e-07
1.1063e-06
-4.05179e-07
1.08601e-06
-4.22023e-07
8.95301e-07
-3.41048e-07
1.58364e-07
-2.20259e-07
-3.23719e-07
-2.65054e-07
2.46095e-07
-2.74296e-07
-9.77076e-07
-3.21577e-06
4.47005e-07
7.73657e-07
1.42503e-07
-8.15821e-08
-1.31078e-07
-2.9619e-07
-3.13715e-07
-2.64073e-07
-4.44778e-07
-1.53752e-07
-5.55063e-07
-5.5566e-08
-6.39062e-07
-9.75471e-08
-6.70041e-07
-1.97364e-07
-6.45812e-07
1.13168e-07
-6.54718e-07
8.53294e-07
-6.35257e-07
1.04456e-06
-5.28617e-07
9.99662e-07
-4.15157e-07
9.716e-07
-3.68508e-07
8.32968e-07
-2.08732e-07
-1.97688e-09
-3.19256e-08
-5.00512e-07
5.37129e-08
1.6034e-07
5.56436e-08
-9.79137e-07
-3.16013e-06
2.19783e-07
5.53878e-07
-4.25935e-09
1.42461e-07
-2.48334e-07
-5.21138e-08
-4.35387e-07
-7.70193e-08
-5.77839e-07
-1.13002e-08
-7.04976e-07
7.15708e-08
-8.13008e-07
1.04839e-08
-8.7818e-07
-1.31673e-07
-8.17996e-07
5.97847e-08
-7.25253e-07
7.6283e-07
-6.65306e-07
9.62352e-07
-5.38214e-07
8.64513e-07
-4.10381e-07
8.41164e-07
-2.61887e-07
6.80692e-07
-4.99047e-08
-2.1821e-07
1.05677e-07
-6.5608e-07
3.36039e-07
-6.91634e-08
3.34101e-07
-9.7809e-07
-2.82603e-06
2.26944e-07
-8.22124e-07
4.34349e-07
-8.7204e-07
6.26981e-07
-8.80871e-07
8.03587e-07
-8.76407e-07
9.60761e-07
-8.51582e-07
1.0962e-06
-8.13331e-07
1.20954e-06
-7.69085e-07
1.30406e-06
-7.18485e-07
1.37823e-06
-6.39287e-07
1.41896e-06
-5.0912e-07
1.41716e-06
-3.51685e-07
1.36158e-06
-1.95562e-07
1.25249e-06
-7.89093e-08
1.08843e-06
1.00753e-08
8.82272e-07
1.00745e-07
6.79643e-07
2.42257e-07
6.12453e-07
5.13783e-07
8.21538e-07
1.00393e-06
1.09471e-06
1.40579e-06
1.37005e-06
1.53049e-06
1.65491e-06
1.2494e-06
1.58693e-06
7.78569e-07
5.42113e-07
9.64766e-07
2.54484e-07
-7.61615e-07
4.50502e-07
-7.55757e-07
6.17518e-07
-7.42684e-07
7.7574e-07
-7.37382e-07
9.18333e-07
-7.1276e-07
1.03059e-06
-6.67175e-07
1.10546e-06
-6.12593e-07
1.14264e-06
-5.53565e-07
1.14993e-06
-4.79807e-07
1.14086e-06
-3.77245e-07
1.1231e-06
-2.56097e-07
1.08758e-06
-1.24058e-07
1.01509e-06
-2.02557e-09
8.87835e-07
1.07048e-07
7.08767e-07
2.16993e-07
5.14316e-07
3.40425e-07
4.0947e-07
5.49608e-07
5.75158e-07
8.29122e-07
9.33537e-07
1.0473e-06
1.31445e-06
1.14956e-06
1.46753e-06
1.09631e-06
1.2565e-06
9.89599e-07
9.91815e-07
8.06786e-07
2.9643e-08
-5.53231e-10
6.49386e-08
-2.44944e-09
1.10241e-07
-2.2885e-09
1.42242e-07
-1.5502e-09
1.69691e-07
-1.30425e-09
2.00481e-07
-2.86441e-09
2.26017e-07
-3.6211e-09
2.32373e-07
-3.17164e-09
2.21389e-07
-1.6633e-09
2.14438e-07
-1.47462e-09
2.20601e-07
-1.19494e-09
2.39605e-07
-6.44807e-10
2.47388e-07
-6.26691e-11
2.28101e-07
0
1.77854e-07
0
1.15029e-07
0
6.52701e-08
0
1.50176e-07
9.23812e-10
3.14856e-07
5.38411e-09
4.86142e-07
9.24304e-09
5.50229e-07
1.27515e-08
4.57072e-07
1.67889e-08
2.04007e-08
2.87155e-07
-3.77194e-10
-2.61735e-10
-3.67184e-11
-2.88915e-09
1.22476e-10
-2.55241e-09
6.71308e-11
-1.59933e-09
-7.08149e-11
-1.26526e-09
-7.83376e-12
-3.02477e-09
1.14483e-10
-3.83088e-09
1.93804e-10
-3.31928e-09
1.91399e-10
-2.1064e-09
1.88495e-10
-1.6868e-09
1.98965e-10
-1.36653e-09
2.16121e-10
-9.06581e-10
2.49302e-10
-3.30405e-10
2.91778e-10
0
2.78106e-10
0
2.98038e-10
0
6.32337e-10
0
8.71881e-10
0
6.47911e-10
0
9.64491e-10
0
1.30489e-09
0
1.34686e-09
0
0
1.06025e-09
-1.21151e-10
7.08687e-11
-1.23001e-09
-2.18305e-09
-1.60755e-09
-5.77492e-11
-5.83142e-10
2.65168e-10
-7.30151e-10
4.621e-11
-1.22681e-09
-5.70864e-14
-2.24222e-09
-1.31096e-13
-2.94107e-09
-8.99169e-14
-2.82939e-09
-7.52946e-14
-2.27455e-09
-6.26975e-14
-1.49536e-09
-5.94237e-14
1.6765e-10
-4.61185e-12
2.48876e-09
-8.61782e-11
1.84124e-09
-7.91349e-10
2.53546e-09
2.28808e-10
2.85487e-09
2.9738e-10
1.85203e-09
2.92909e-10
8.44157e-10
2.47573e-10
6.25637e-10
1.19314e-10
4.93297e-10
5.41014e-11
2.5544e-10
3.68993e-11
2.07395e-10
2.81292e-11
2.897e-11
1.10084e-10
9.53641e-10
-6.28693e-15
3.34068e-10
-9.38586e-12
1.0637e-11
0
-1.39097e-10
4.43847e-12
-1.8038e-14
1.40918e-12
-4.05083e-14
-3.40899e-14
-5.91646e-14
-1.12961e-13
-6.53204e-14
-8.4277e-14
-5.84194e-14
-8.2716e-14
-5.28803e-14
-6.87525e-14
-5.75945e-14
-5.52196e-14
-4.42842e-12
-2.41477e-13
-1.02908e-11
-6.49349e-11
-3.0229e-11
-1.59458e-10
2.68154e-11
-8.90702e-11
4.43385e-11
0
-6.04652e-11
0
-2.73781e-10
0
-3.98152e-10
1.11628e-11
-7.22569e-10
1.81929e-11
-8.22591e-10
0
-1.22356e-09
0
9.40354e-11
-1.46392e-09
-2.48918e-15
-3.80434e-15
-9.38556e-12
-2.80635e-15
-3.68901e-13
0
-8.0159e-14
0
-9.02093e-14
0
-9.21429e-14
-1.37923e-13
-5.532e-14
-2.29301e-14
-6.94028e-14
-7.07147e-14
-7.62531e-14
-7.63817e-14
-6.78311e-14
-7.76845e-14
-1.00442e-13
-2.30634e-14
-7.03612e-12
-1.7307e-12
-1.51406e-10
-7.65206e-11
-1.31025e-10
-1.66727e-10
-1.09467e-10
-9.74608e-11
-3.93091e-11
2.28069e-13
-2.3167e-11
5.71736e-13
-2.47372e-11
0
-1.67239e-11
0
-5.48399e-11
1.39961e-12
-2.45759e-10
0
-3.56544e-10
0
0
-5.66712e-10
-3.22342e-15
-5.87686e-16
-6.49454e-15
4.58473e-16
-9.29625e-14
3.90523e-15
-3.92654e-13
3.40426e-13
-1.84233e-12
5.15464e-13
-3.17275e-12
-1.52131e-14
-8.62165e-13
-8.08967e-13
-9.74558e-13
-4.107e-13
-2.53643e-12
-2.49819e-13
-3.80996e-13
-2.11661e-12
0
-4.31542e-13
-2.95802e-11
-1.54326e-12
-1.19197e-10
-3.22822e-11
-2.70893e-10
-1.30477e-13
-1.89903e-10
-3.25947e-11
-9.8135e-11
-3.45651e-12
-5.51492e-11
6.50773e-12
-2.14122e-11
2.60649e-12
-1.67482e-12
2.89446e-12
-2.66165e-13
1.40508e-14
-2.21904e-13
0
-2.77875e-13
1.59435e-14
2.35857e-14
-1.20195e-12
-1.63492e-15
1.08192e-15
-3.00877e-15
1.82339e-15
-2.81188e-15
3.70063e-15
0
4.80596e-16
-2.74008e-12
8.98002e-14
-2.87266e-12
4.01715e-13
-3.08428e-12
-3.09235e-13
-9.20737e-13
-3.55226e-13
-7.59612e-12
-9.13366e-13
-6.70004e-12
-1.85387e-12
-1.02279e-11
-1.20808e-12
-2.29136e-12
-5.16332e-16
-5.52418e-15
-5.94418e-15
-1.66328e-13
-4.30169e-15
-3.276e-11
-3.41555e-14
-5.45783e-11
-8.76002e-13
-1.35792e-11
9.46623e-12
-2.94214e-12
1.13846e-12
-4.58524e-14
2.53104e-14
-2.6853e-14
2.1065e-14
-1.85335e-14
1.16408e-14
-1.68076e-14
6.93861e-15
6.94726e-15
-1.7492e-14
-1.52162e-15
3.21085e-15
-2.48321e-15
2.77897e-15
-2.93405e-15
4.14443e-15
-5.34637e-15
2.88445e-15
-1.43288e-12
1.2021e-14
-2.93863e-12
3.31389e-13
-1.04865e-12
1.02012e-13
-1.73009e-12
-1.53397e-14
-7.63704e-12
-6.84723e-13
-7.04091e-12
-1.2912e-12
-2.62867e-15
-1.28764e-12
-1.60719e-15
-3.05705e-16
-5.3178e-15
-9.95812e-16
0
-4.38717e-14
-2.76406e-13
0
-6.88103e-12
-8.74628e-14
-4.2836e-12
0
-9.48236e-14
1.64394e-13
-5.53707e-14
1.43209e-14
-4.80888e-14
3.11773e-14
-5.07241e-14
3.10011e-14
-1.5355e-14
3.88857e-14
6.46191e-15
-3.08737e-14
-3.49717e-15
6.30199e-15
-3.81855e-14
1.38205e-13
-7.92936e-15
1.97759e-13
-4.86353e-15
3.82017e-15
-1.07136e-13
3.39458e-15
-4.02829e-13
8.22077e-16
0
2.51472e-14
-6.40104e-13
1.31489e-14
-5.3074e-12
-1.40946e-13
-4.76836e-12
-6.71437e-13
-4.31184e-15
-2.08082e-16
-3.21858e-15
-1.73834e-16
-2.67583e-15
-2.48301e-16
-1.14112e-12
-2.60962e-15
-2.7502e-12
-5.02225e-13
-1.81577e-12
-1.01181e-13
-1.56678e-13
1.37657e-12
-1.18291e-13
1.97391e-13
-7.57463e-14
4.28687e-14
-1.00544e-13
4.48182e-14
-8.05732e-14
5.45042e-14
0
3.66006e-14
1.13026e-14
0
-2.06851e-14
1.38319e-14
-6.30687e-14
1.91951e-13
-5.46657e-14
1.92647e-13
-3.20174e-15
2.44613e-14
-7.37102e-16
6.76928e-16
-7.01967e-16
3.12289e-16
-1.25324e-14
3.46594e-14
-8.44419e-13
2.36262e-13
-4.07478e-12
1.98973e-13
-3.4251e-15
4.51451e-14
-2.41349e-15
2.06388e-18
-1.33272e-15
-3.50611e-17
-1.71066e-16
-7.17689e-17
-6.42247e-16
-7.12414e-16
-2.26628e-11
-2.66315e-13
-2.30597e-11
4.88785e-13
-1.24947e-11
2.55791e-12
-6.9755e-14
3.09101e-12
-7.19372e-14
1.89646e-14
-7.36595e-14
2.01155e-14
-8.1451e-14
2.74573e-14
0
1.35757e-14
5.25764e-15
0
-2.59101e-14
1.50666e-14
-4.79185e-14
2.15184e-13
-2.58587e-14
1.71828e-13
-4.29262e-16
2.9662e-14
-7.72649e-16
7.68173e-16
-1.80576e-15
1.09321e-15
-1.09063e-12
6.80331e-13
-1.90769e-12
9.55948e-13
-3.16093e-12
4.15568e-13
-3.36148e-15
1.55865e-13
-2.27319e-15
1.27392e-16
-1.194e-15
9.42674e-17
-5.99263e-17
6.07668e-17
-2.08178e-15
4.45198e-16
-2.08952e-11
2.60816e-13
-2.14975e-11
1.28852e-12
-2.13372e-11
2.59086e-12
-1.39508e-11
4.51788e-12
-4.17012e-14
7.03866e-13
-3.42653e-14
8.16842e-15
-1.83591e-14
6.29832e-15
-1.08219e-14
9.19492e-15
3.87944e-15
-9.95691e-15
-2.12047e-15
3.46596e-15
-2.84078e-14
1.98094e-14
-2.84524e-14
8.87031e-14
-2.48973e-15
1.08978e-14
-2.84609e-15
8.72215e-16
-2.00771e-13
2.34997e-14
-2.01964e-12
1.31191e-12
-2.05846e-12
1.41356e-12
-1.57166e-13
4.60103e-13
-2.12531e-15
2.85593e-16
-1.7126e-15
3.64589e-16
-1.38917e-15
3.35167e-16
-2.3134e-16
1.63836e-16
0
3.7213e-17
-2.72285e-13
0
-1.84028e-11
0
-1.83709e-11
2.76171e-12
-8.98067e-12
1.9722e-12
-2.62343e-14
6.27869e-14
-2.93169e-14
6.75098e-15
-2.86817e-14
1.09362e-14
-1.68423e-14
1.25241e-14
5.40855e-15
-1.25153e-14
-1.1319e-16
1.40038e-15
-3.83347e-15
1.20882e-15
-1.87856e-15
5.2143e-16
-3.13791e-16
1.13677e-15
-7.14501e-16
1.0158e-15
-1.85269e-13
2.45197e-14
-1.53546e-12
8.48428e-13
-1.21055e-12
1.50745e-12
-1.50344e-15
1.0058e-13
-2.02108e-15
2.63975e-16
-1.63373e-15
5.36383e-16
-1.03158e-15
5.31549e-16
-2.06085e-16
2.65466e-16
-3.64956e-17
3.46275e-17
-4.4198e-15
1.40173e-17
-1.01123e-12
0
-1.49523e-12
0
-3.99302e-13
0
-3.91257e-14
7.31018e-15
-4.24894e-14
5.60333e-15
-3.3125e-14
1.27894e-14
-1.21343e-14
1.13854e-14
3.92667e-15
-1.30295e-14
-2.68538e-17
1.40853e-15
-6.69471e-17
1.23019e-15
-1.05879e-16
4.90986e-16
-1.03407e-16
7.65433e-16
0
1.73039e-15
-8.03359e-14
3.01684e-14
-5.25041e-13
0
-1.42591e-13
2.77154e-16
-6.94905e-16
0
-1.29535e-15
3.24183e-16
-1.35956e-15
7.44984e-16
-7.86488e-16
6.02566e-16
-1.53326e-16
1.18059e-16
-1.41068e-16
3.97475e-17
-1.67517e-16
3.89173e-17
-3.73716e-16
1.11339e-17
-4.77902e-16
5.34103e-17
-8.21219e-16
0
-1.22709e-14
0
-3.503e-14
7.02779e-15
-2.80647e-14
1.19366e-14
-8.2081e-15
6.20041e-15
3.83244e-16
-3.15544e-15
-1.75138e-17
1.40739e-15
-8.52238e-17
1.27925e-15
-8.00706e-17
1.53059e-15
-5.84907e-16
8.27748e-16
-5.60039e-15
7.3555e-15
-4.45456e-16
1.36167e-14
-2.82256e-16
3.38458e-16
-2.51105e-17
1.64426e-17
-2.00151e-16
2.70887e-17
-7.91156e-16
3.76045e-16
-8.12912e-16
4.85054e-16
-2.25292e-16
2.33333e-16
-9.32511e-17
3.62879e-17
-1.21355e-16
3.35603e-17
-1.28247e-16
4.59431e-17
-1.21846e-16
4.19561e-17
-1.22613e-16
3.89373e-17
-1.78559e-16
3.82838e-17
-2.60575e-15
7.5777e-17
-6.07808e-15
1.40619e-16
-4.92953e-15
8.79411e-17
-2.52742e-15
2.50841e-17
2.42606e-16
-1.73482e-15
-9.03463e-15
7.0497e-13
-1.53288e-15
7.91554e-13
-7.62917e-17
7.54788e-17
-3.6905e-16
1.08264e-15
-3.12441e-15
7.34744e-15
-3.15442e-16
7.12871e-15
-1.12172e-17
2.64524e-17
-1.25418e-17
2.18304e-17
-1.0601e-16
2.43956e-17
-2.29524e-16
9.6496e-17
-1.70412e-16
8.87525e-17
-2.68673e-17
2.24019e-17
-3.58322e-17
4.31839e-18
-7.95011e-17
1.86885e-17
-1.0519e-16
3.78305e-17
-1.09475e-16
4.39504e-17
-1.07682e-16
4.3399e-17
-9.65579e-17
3.6864e-17
-6.66307e-17
1.27255e-17
-1.55374e-17
4.78721e-18
-3.12733e-17
2.00542e-18
-2.53684e-16
8.45488e-19
5.82606e-18
-1.99351e-16
-1.03566e-14
7.21977e-13
-9.09895e-17
4.34206e-13
-8.93566e-17
7.44742e-17
-6.2831e-16
1.26976e-15
-7.36143e-16
3.99716e-15
-3.44573e-17
2.61223e-16
-9.24128e-18
3.09337e-17
-6.76476e-18
2.34202e-17
-1.8057e-17
7.22835e-18
-2.04561e-17
5.00283e-18
-7.42674e-18
2.61718e-18
-1.33357e-18
2.32587e-19
-5.33094e-18
1.20062e-18
-2.79338e-17
3.14118e-18
-4.8513e-17
1.15908e-17
-5.33098e-17
1.62541e-17
-5.08059e-17
1.57802e-17
-3.30837e-17
1.07362e-17
-1.71528e-17
4.25695e-18
-8.19335e-18
1.79409e-18
-3.89763e-18
1.04378e-18
-2.93749e-18
1.40763e-19
4.93115e-20
-1.00164e-18
-3.67728e-15
7.32343e-13
-6.49471e-17
6.53879e-14
-6.65847e-17
7.6193e-17
-2.33591e-16
8.96957e-16
-2.46406e-17
1.02924e-15
-6.60458e-18
1.25392e-17
-6.83979e-18
2.44771e-17
-1.72808e-18
1.92273e-17
-5.79573e-19
5.5078e-19
-3.38529e-19
8.91978e-19
-7.93537e-20
3.92528e-19
1.21483e-19
5.41527e-21
-6.63153e-19
-1.37607e-19
-2.69683e-18
6.26139e-19
-7.51171e-18
5.19799e-19
-7.77379e-18
1.00355e-18
-6.60832e-18
8.70262e-19
-3.6927e-18
4.39056e-19
-1.98417e-18
1.90394e-19
-1.25844e-18
9.91134e-20
-4.88171e-19
6.16457e-20
-2.92566e-19
1.40525e-20
5.18146e-21
-2.63977e-19
-5.78005e-15
7.44844e-13
-3.42466e-17
3.38051e-14
-3.58498e-17
7.76833e-17
-4.51482e-17
3.50317e-16
-1.82363e-18
1.26127e-16
-2.76192e-18
9.36655e-18
-3.18894e-18
1.01683e-17
-2.19087e-19
6.02932e-18
2.72717e-19
4.38505e-21
4.47137e-19
-7.2847e-19
6.21149e-19
-9.54363e-19
6.34841e-19
-1.07679e-18
3.13985e-19
-9.06023e-19
-5.07388e-20
-3.73261e-19
-1.62529e-19
5.07864e-20
-1.66446e-19
1.39909e-19
-1.06964e-19
1.15673e-19
-4.70464e-20
5.01956e-20
-2.32891e-20
1.9116e-20
-1.28215e-20
8.11257e-21
-2.60814e-21
3.2555e-21
-8.70846e-22
4.55884e-22
1.06622e-22
-2.15446e-21
-7.98199e-15
7.58462e-13
-9.87422e-18
3.22462e-13
-1.13254e-17
7.89985e-17
-8.65654e-18
9.68092e-17
-1.46382e-18
6.78304e-17
-8.10753e-19
9.35741e-18
-4.88398e-19
1.16887e-18
2.14005e-19
2.73288e-19
4.84227e-19
-9.03365e-19
6.36323e-19
-1.61518e-18
7.25412e-19
-1.70531e-18
6.92706e-19
-1.58405e-18
5.32401e-19
-1.24705e-18
3.38835e-19
-7.98025e-19
2.19417e-19
-4.26425e-19
1.66615e-19
-2.33424e-19
1.39447e-19
-1.50466e-19
1.12898e-19
-1.06804e-19
8.49888e-20
-7.25266e-20
5.85006e-20
-4.44254e-20
3.72591e-20
-2.32721e-20
2.20689e-20
-9.71728e-21
-2.39702e-21
1.21401e-20
-1.41946e-14
7.72683e-13
-5.4328e-18
7.68454e-13
-6.68561e-18
8.01169e-17
-4.79944e-18
7.88578e-17
-1.52853e-18
6.91046e-17
-6.1162e-20
9.54792e-18
-2.95596e-20
2.68941e-19
2.41578e-19
2.15059e-21
4.22938e-19
-1.27513e-18
5.21368e-19
-1.77861e-18
5.55202e-19
-1.77063e-18
5.19141e-19
-1.54081e-18
4.29891e-19
-1.18921e-18
3.26153e-19
-8.19619e-19
2.39381e-19
-5.20938e-19
1.78781e-19
-3.21691e-19
1.32992e-19
-2.02326e-19
9.54307e-20
-1.26109e-19
6.53967e-20
-7.46197e-20
4.27249e-20
-4.06654e-20
2.65376e-20
-1.9571e-20
1.55759e-20
-7.50878e-21
-1.43765e-21
8.6752e-21
-1.34458e-14
7.86156e-13
-5.322e-18
7.55031e-13
-6.32673e-18
8.09857e-17
-4.47237e-18
8.48073e-17
-1.4163e-18
8.8496e-17
-7.05676e-20
1.14382e-17
1.02084e-20
4.065e-19
1.36014e-19
-8.66961e-20
2.41049e-19
-9.17572e-19
3.01962e-19
-1.30496e-18
3.20522e-19
-1.32546e-18
3.00583e-19
-1.1519e-18
2.54554e-19
-8.9206e-19
1.99933e-19
-6.28299e-19
1.49302e-19
-4.12572e-19
1.08193e-19
-2.58263e-19
7.54239e-20
-1.56673e-19
5.01438e-20
-9.07017e-20
3.19218e-20
-4.90914e-20
1.97237e-20
-2.43984e-20
1.18339e-20
-1.07801e-20
6.8165e-21
-3.73765e-21
-4.45961e-22
3.70118e-21
-1.24532e-14
7.98635e-13
-7.10876e-18
4.56506e-13
-7.83693e-18
8.15796e-17
-5.64443e-18
1.56987e-16
-1.52543e-18
1.48567e-16
-2.10406e-19
1.8153e-17
-1.42639e-19
3.49571e-18
-4.19945e-20
2.13858e-18
5.17147e-20
8.70174e-19
9.94111e-20
-3.74583e-19
1.277e-19
-5.84583e-19
1.32446e-19
-6.14496e-19
1.18117e-19
-5.25536e-19
9.48728e-20
-3.89007e-19
7.08574e-20
-2.60567e-19
5.01306e-20
-1.62605e-19
3.33273e-20
-9.5883e-20
2.08146e-20
-5.261e-20
1.23169e-20
-2.65109e-20
7.06006e-21
-1.20764e-20
3.97762e-21
-4.81965e-21
2.20423e-21
-1.45276e-21
-3.30237e-23
1.17765e-21
-3.70138e-15
8.02353e-13
-1.19728e-17
5.17364e-16
-1.23927e-17
8.1881e-17
-9.01546e-18
3.76853e-16
-1.81486e-18
2.53027e-16
-5.1927e-19
3.46391e-17
-4.84912e-19
1.36746e-17
-4.2808e-19
1.11326e-17
-2.80515e-19
7.67778e-18
-1.2386e-19
3.92165e-18
7.38271e-21
1.50966e-18
3.40109e-20
-5.04617e-20
4.13477e-20
-1.90518e-19
3.60801e-20
-1.91222e-19
2.72173e-20
-1.3854e-19
1.90558e-20
-8.70037e-20
1.22199e-20
-5.06074e-20
7.20909e-21
-2.66961e-20
3.94839e-21
-1.26514e-20
2.05753e-21
-5.29094e-21
1.04803e-21
-1.87922e-21
5.32705e-22
-4.67888e-22
1.61736e-23
2.81167e-22
-4.95609e-16
2.38154e-16
-8.57356e-18
2.43045e-16
-1.22025e-17
2.98121e-16
-1.00108e-17
5.93513e-16
-1.83723e-18
3.44446e-16
-7.91755e-19
6.38649e-17
-8.17343e-19
3.53892e-17
-8.22956e-19
3.07453e-17
-6.87057e-19
2.30672e-17
-4.45656e-19
1.42471e-17
-1.99331e-19
6.82305e-18
-3.76916e-20
2.27006e-18
8.12674e-21
3.7397e-19
1.07261e-20
-5.79115e-20
8.44346e-21
-6.28351e-20
5.94614e-21
-4.09328e-20
3.70622e-21
-2.38914e-20
2.06727e-21
-1.22601e-20
1.04178e-21
-5.51228e-21
4.84014e-22
-2.12929e-21
2.13753e-22
-6.70145e-22
9.151e-23
-1.3101e-22
1.13531e-23
4.54413e-23
-2.57463e-18
2.34216e-16
-5.16213e-18
2.45366e-16
-6.58565e-18
5.38536e-16
-3.99513e-18
6.03062e-16
-7.31368e-19
3.55436e-16
-3.80793e-19
1.01117e-16
-4.47068e-19
6.89371e-17
-5.59809e-19
6.05226e-17
-5.97719e-19
4.63233e-17
-4.83543e-19
3.04985e-17
-2.65692e-19
1.55272e-17
-8.11267e-20
5.50309e-18
-4.36085e-21
1.08248e-18
2.15887e-21
4.59275e-20
1.97175e-21
-2.32336e-20
1.42287e-21
-1.72955e-20
8.61211e-22
-1.03203e-20
4.46551e-22
-5.19803e-21
1.99816e-22
-2.2286e-21
7.74965e-23
-7.98335e-22
2.60598e-23
-2.23045e-22
6.80148e-24
-3.25017e-23
5.64457e-24
3.67735e-25
-1.0618e-18
2.34011e-16
-1.17282e-18
2.44746e-16
1.44649e-18
5.52359e-16
5.02583e-18
5.99975e-16
3.01071e-18
3.32943e-16
1.53449e-18
1.28418e-16
1.39905e-18
1.05043e-16
1.1249e-18
9.4216e-17
6.16351e-19
7.28357e-17
2.14516e-19
4.94668e-17
4.30159e-21
2.59329e-17
-1.79479e-20
8.86604e-18
-2.13702e-21
1.43054e-18
1.36961e-22
6.34792e-20
2.29645e-22
-5.32221e-21
1.74973e-22
-6.64142e-21
9.68051e-23
-4.1505e-21
3.8712e-23
-2.06311e-21
8.68393e-24
-8.45135e-22
-4.60833e-24
-2.81071e-22
-9.35738e-24
-7.01399e-23
-7.96631e-24
-7.00328e-24
2.31486e-24
-5.61675e-24
3.11521e-19
2.32432e-16
1.81556e-18
2.16509e-16
8.50435e-18
4.28241e-16
1.26038e-17
3.89757e-16
6.62259e-18
2.27808e-16
4.88268e-18
1.31834e-16
4.86051e-18
1.23367e-16
4.54865e-18
1.17371e-16
3.14807e-18
9.58065e-17
1.83688e-18
6.61641e-17
7.28351e-19
3.48998e-17
1.42267e-19
1.09704e-17
8.4347e-21
1.47243e-18
1.71394e-21
6.00758e-20
-1.06326e-23
-3.778e-22
-7.67831e-23
-2.36394e-21
-6.85984e-23
-1.57874e-21
-5.13113e-23
-7.75054e-22
-3.39746e-23
-3.02925e-22
-2.00504e-23
-9.38069e-23
-1.08417e-23
-2.09701e-23
-5.74859e-24
-1.06798e-24
8.29683e-25
-3.11746e-24
1.814e-18
2.95773e-16
3.15902e-18
1.66141e-16
7.91262e-18
2.06031e-16
7.96865e-18
1.728e-16
8.49622e-18
1.53184e-16
8.37387e-18
1.30428e-16
8.4767e-18
1.24874e-16
8.35936e-18
1.20961e-16
6.58944e-18
1.06395e-16
3.99896e-18
7.5397e-17
1.63546e-18
3.90137e-17
2.99716e-19
1.13615e-17
1.59077e-20
1.38616e-18
1.09527e-22
3.38648e-20
2.72235e-24
3.43983e-23
-7.15031e-23
-8.11804e-22
-6.34677e-23
-5.77314e-22
-4.16063e-23
-2.78852e-22
-2.31513e-23
-1.03616e-22
-1.14683e-23
-2.97932e-23
-5.28154e-24
-5.90153e-24
-2.45028e-24
7.71188e-29
2.58095e-25
-1.20086e-24
8.77943e-18
9.76381e-16
4.46843e-18
1.70329e-16
7.23528e-18
2.03232e-16
9.50163e-18
1.70503e-16
1.08396e-17
1.51815e-16
1.13273e-17
1.2991e-16
1.15168e-17
1.22539e-16
1.15389e-17
1.21969e-16
9.71773e-18
1.079e-16
5.97645e-18
7.70908e-17
2.37101e-18
3.96243e-17
4.02643e-19
1.127e-17
1.50695e-20
1.00756e-18
4.65417e-23
1.20944e-20
3.29688e-24
2.25801e-23
-3.68203e-23
-2.78426e-22
-3.34584e-23
-2.06165e-22
-2.07952e-23
-9.69827e-23
-1.0599e-23
-3.40014e-23
-4.73879e-24
-9.00792e-24
-1.95473e-24
-1.55628e-24
-8.23304e-25
2.01504e-26
6.90576e-26
-3.7015e-25
2.86202e-17
1.4067e-15
6.52415e-18
1.92393e-16
1.00815e-17
1.99644e-16
1.2936e-17
1.67618e-16
1.42944e-17
1.50426e-16
1.45881e-17
1.29586e-16
1.42917e-17
1.21078e-16
1.44383e-17
1.21695e-16
1.2177e-17
1.08347e-16
7.48387e-18
7.7699e-17
2.86704e-18
3.87826e-17
4.03002e-19
9.40566e-18
8.39822e-21
5.44204e-19
1.08049e-23
3.26177e-21
9.33638e-25
1.7402e-24
-1.61367e-23
-9.74527e-23
-1.46348e-23
-7.27782e-23
-8.60904e-24
-3.28395e-23
-4.04005e-24
-1.07335e-23
-1.63499e-24
-2.58227e-24
-6.01826e-25
-3.80594e-25
-2.29414e-25
8.5119e-27
1.57339e-26
-9.41273e-26
5.12128e-16
1.35295e-15
3.63822e-14
1.8931e-13
1.69313e-13
2.25234e-12
1.62418e-13
2.03634e-12
0
1.10471e-12
2.01092e-17
1.40391e-14
1.62437e-17
1.23223e-16
1.67187e-17
1.17852e-16
1.41068e-17
1.05537e-16
8.41035e-18
7.40854e-17
2.84233e-18
3.34488e-17
2.78559e-19
6.11248e-18
3.00434e-21
2.12124e-19
1.71791e-24
6.54464e-22
1.40165e-25
1.25969e-25
-6.65053e-24
-3.52184e-23
-5.80792e-24
-2.5574e-23
-3.18017e-24
-1.08526e-23
-1.35751e-24
-3.2526e-24
-4.89514e-25
-6.96471e-25
-1.58065e-25
-8.5756e-26
-5.38472e-26
2.33176e-27
2.99707e-27
-1.98322e-26
5.44075e-16
1.26663e-15
1.81364e-13
3.17301e-13
3.3011e-13
2.11089e-12
3.03109e-13
2.06621e-12
1.27122e-13
1.89336e-12
1.7829e-17
8.27216e-14
9.70388e-18
1.30807e-16
1.744e-17
1.09618e-16
1.51395e-17
9.82048e-17
8.20871e-18
6.44587e-17
2.1819e-18
2.40952e-17
1.29082e-19
2.95831e-18
6.68788e-22
5.47796e-20
1.68788e-25
7.8068e-23
1.49643e-26
8.31924e-26
-2.68734e-24
-1.32421e-23
-2.16331e-24
-8.96159e-24
-1.07661e-24
-3.49391e-24
-4.09693e-25
-9.41107e-25
-1.28525e-25
-1.75269e-25
-3.54364e-26
-1.76427e-26
-1.05363e-26
4.79427e-28
4.66475e-28
-3.41735e-27
5.96884e-16
1.12659e-15
9.57916e-14
1.66241e-13
3.99893e-13
1.80949e-12
4.07572e-13
2.05997e-12
1.21159e-13
9.5021e-13
1.21628e-19
5.0639e-14
1.14694e-17
1.2238e-16
1.80019e-17
1.06129e-16
1.44778e-17
8.74025e-17
6.68124e-18
4.96735e-17
1.23667e-18
1.3886e-17
3.77312e-20
9.86279e-19
8.03725e-23
8.00365e-21
6.05828e-24
4.45272e-24
-7.70495e-26
-4.1079e-25
-1.09013e-24
-5.21409e-24
-7.66893e-25
-3.12525e-24
-3.37655e-25
-1.09236e-24
-1.1176e-25
-2.58694e-25
-2.96402e-26
-4.08817e-26
-6.73813e-27
-3.29169e-27
-1.69104e-27
7.64511e-29
5.77791e-29
-4.71005e-28
3.62431e-15
1.53761e-15
1.11576e-13
4.35289e-15
4.43691e-13
6.74657e-14
2.76547e-13
5.99294e-13
0
0
0
1.35983e-15
1.90741e-17
1.19682e-16
1.8602e-17
1.05333e-16
1.1924e-17
7.1927e-17
4.30002e-18
3.21418e-17
4.75153e-19
5.82505e-18
6.0722e-21
1.9279e-19
4.34216e-24
5.40913e-22
3.65191e-25
1.25501e-25
-2.17924e-25
-1.14721e-24
-4.39912e-25
-2.10811e-24
-2.60294e-25
-1.08074e-24
-9.88158e-26
-3.31443e-25
-2.76929e-26
-6.75116e-26
-6.01511e-27
-8.82816e-27
-1.08199e-27
-5.56561e-28
-2.188e-28
9.50627e-30
5.5203e-30
-5.04345e-29
1.07295e-15
2.55129e-15
1.35233e-15
2.35118e-15
2.96296e-15
0
2.94307e-14
0
2.29623e-17
2.47605e-16
3.67277e-17
3.08361e-16
2.40249e-17
1.8612e-16
1.60075e-17
1.04315e-16
7.95476e-18
5.13598e-17
1.97447e-18
1.56894e-17
1.0397e-19
1.46707e-18
4.34119e-22
1.71315e-20
9.07409e-26
1.42046e-23
1.16524e-26
1.75534e-27
-1.52718e-25
-8.10842e-25
-1.7329e-25
-8.5197e-25
-8.5177e-26
-3.70469e-25
-2.72495e-26
-9.80121e-26
-6.2886e-27
-1.68292e-26
-1.08159e-27
-1.77769e-27
-1.46733e-28
-8.57259e-29
-2.23998e-29
9.30611e-31
3.93839e-31
-4.03871e-30
1.50763e-15
1.19996e-15
1.09124e-15
2.86872e-15
3.10707e-16
1.50521e-15
1.55357e-16
2.17945e-16
8.8495e-17
3.49632e-16
7.76012e-17