/*--------------------------------*- C++ -*----------------------------------*\
  =========                 |
  \\      /  F ield         | OpenFOAM: The Open Source CFD Toolbox
   \\    /   O peration     | Website:  https://openfoam.org
    \\  /    A nd           | Version:  9
     \\/     M anipulation  |
\*---------------------------------------------------------------------------*/
FoamFile
{
    format      ascii;
    class       surfaceScalarField;
    location    "7.22";
    object      alphaPhi0.water;
}
// * * * * * * * * * * * * * * * * * * * * * * * * * * * * * * * * * * * * * //

dimensions      [0 3 -1 0 0 0 0];

internalField   nonuniform List<scalar> 
4432
(
1.46916e-07
-1.46916e-07
2.73354e-07
-1.26442e-07
3.81422e-07
-1.08066e-07
4.76966e-07
-9.55453e-08
5.62734e-07
-8.57693e-08
6.4247e-07
-7.97362e-08
7.18332e-07
-7.58644e-08
7.9178e-07
-7.345e-08
8.6142e-07
-6.96401e-08
9.27668e-07
-6.62475e-08
9.94774e-07
-6.71054e-08
1.07457e-06
-7.97962e-08
1.18456e-06
-1.09989e-07
1.33647e-06
-1.51906e-07
1.51254e-06
-1.76071e-07
1.63145e-06
-1.18916e-07
1.50543e-06
1.26022e-07
1.00812e-06
4.97315e-07
2.20783e-07
7.863e-07
-6.40942e-07
8.61125e-07
-1.00693e-06
3.65219e-07
-6.69906e-07
-3.37703e-07
-6.70372e-07
1.35024e-07
-2.81937e-07
2.56991e-07
-2.48415e-07
3.66473e-07
-2.17549e-07
4.6386e-07
-1.92933e-07
5.5186e-07
-1.73772e-07
6.32948e-07
-1.60827e-07
7.08802e-07
-1.5172e-07
7.78666e-07
-1.43315e-07
8.42075e-07
-1.33049e-07
8.98477e-07
-1.2265e-07
9.51196e-07
-1.19824e-07
1.00835e-06
-1.36952e-07
1.08048e-06
-1.82118e-07
1.17178e-06
-2.43202e-07
1.26708e-06
-2.71374e-07
1.30883e-06
-1.60663e-07
1.18159e-06
2.53251e-07
7.98571e-07
8.80331e-07
2.76931e-07
1.30766e-06
-2.31994e-07
1.36945e-06
-5.8623e-07
7.19823e-07
-5.77797e-07
-3.46131e-07
-1.24817e-06
1.2975e-07
-4.11684e-07
2.49862e-07
-3.6853e-07
3.60361e-07
-3.28048e-07
4.59606e-07
-2.92179e-07
5.49253e-07
-2.63421e-07
6.31416e-07
-2.4299e-07
7.06868e-07
-2.27174e-07
7.74474e-07
-2.10921e-07
8.32626e-07
-1.912e-07
8.80638e-07
-1.70661e-07
9.20359e-07
-1.59543e-07
9.57057e-07
-1.73649e-07
9.97488e-07
-2.22548e-07
1.04411e-06
-2.89827e-07
1.08791e-06
-3.15176e-07
1.09305e-06
-1.65807e-07
9.74972e-07
3.71212e-07
6.77562e-07
1.17767e-06
3.29313e-07
1.65631e-06
7.21154e-09
1.69529e-06
-3.01073e-07
1.02812e-06
-4.02231e-07
-2.44973e-07
-1.6504e-06
1.27106e-07
-5.38789e-07
2.4716e-07
-4.88589e-07
3.59109e-07
-4.39998e-07
4.60469e-07
-3.93539e-07
5.51986e-07
-3.54939e-07
6.35437e-07
-3.26439e-07
7.11153e-07
-3.02889e-07
7.77185e-07
-2.76953e-07
8.31155e-07
-2.45169e-07
8.71535e-07
-2.1104e-07
8.98687e-07
-1.86695e-07
9.15703e-07
-1.90664e-07
9.27092e-07
-2.33936e-07
9.35185e-07
-2.9792e-07
9.37727e-07
-3.1772e-07
9.23387e-07
-1.51689e-07
8.33369e-07
4.5987e-07
6.10006e-07
1.40098e-06
3.74657e-07
1.89163e-06
1.74951e-07
1.89498e-06
-8.42993e-08
1.28734e-06
-1.98231e-07
-1.3106e-07
-1.84864e-06
1.26707e-07
-6.65495e-07
2.47594e-07
-6.09479e-07
3.61785e-07
-5.54189e-07
4.65707e-07
-4.9746e-07
5.59436e-07
-4.48669e-07
6.44672e-07
-4.11674e-07
7.21225e-07
-3.79441e-07
7.86437e-07
-3.42162e-07
8.36927e-07
-2.95657e-07
8.70205e-07
-2.44316e-07
8.85213e-07
-2.01701e-07
8.83278e-07
-1.88728e-07
8.67425e-07
-2.18082e-07
8.39993e-07
-2.70487e-07
8.03725e-07
-2.81454e-07
7.66889e-07
-1.1534e-07
7.17185e-07
5.07577e-07
5.59539e-07
1.54537e-06
4.1047e-07
2.04067e-06
2.88008e-07
2.01742e-06
9.23406e-08
1.48298e-06
2.98091e-08
-6.84357e-08
-1.81878e-06
1.28391e-07
-7.93885e-07
2.50983e-07
-7.32072e-07
3.68477e-07
-6.71685e-07
4.75632e-07
-6.04614e-07
5.72009e-07
-5.45046e-07
6.59451e-07
-4.99114e-07
7.37382e-07
-4.5737e-07
8.02327e-07
-4.07103e-07
8.49874e-07
-3.43201e-07
8.76654e-07
-2.71093e-07
8.8035e-07
-2.05395e-07
8.60853e-07
-1.69229e-07
8.20013e-07
-1.77241e-07
7.59607e-07
-2.10081e-07
6.84551e-07
-2.06399e-07
6.12554e-07
-4.33451e-08
5.8001e-07
5.34523e-07
5.14046e-07
1.5911e-06
4.40476e-07
2.08266e-06
3.71306e-07
2.05135e-06
2.70955e-07
1.55534e-06
2.57484e-07
-5.25553e-08
-1.56126e-06
1.31558e-07
-9.25442e-07
2.57537e-07
-8.58054e-07
3.79492e-07
-7.93641e-07
4.90631e-07
-7.15752e-07
5.90124e-07
-6.4454e-07
6.80107e-07
-5.89098e-07
7.59646e-07
-5.3691e-07
8.24509e-07
-4.71965e-07
8.69401e-07
-3.88094e-07
8.90318e-07
-2.9201e-07
8.83992e-07
-1.99069e-07
8.49168e-07
-1.34405e-07
7.86733e-07
-1.14806e-07
6.9743e-07
-1.20778e-07
5.85889e-07
-9.4859e-08
4.72125e-07
7.04161e-08
4.20827e-07
5.84031e-07
4.48428e-07
1.56319e-06
4.52318e-07
2.07859e-06
4.43415e-07
2.06013e-06
4.82022e-07
1.51646e-06
4.1724e-07
1.97526e-08
-1.14402e-06
1.35343e-07
-1.06079e-06
2.66792e-07
-9.89504e-07
3.94804e-07
-9.21654e-07
5.1068e-07
-8.31631e-07
6.13722e-07
-7.47585e-07
7.06376e-07
-6.81757e-07
7.87281e-07
-6.1782e-07
8.51661e-07
-5.3635e-07
8.93744e-07
-4.30182e-07
9.09369e-07
-3.07638e-07
8.94728e-07
-1.84431e-07
8.47691e-07
-8.73699e-08
7.68422e-07
-3.55382e-08
6.56811e-07
-9.16628e-09
5.17139e-07
4.48129e-08
3.71956e-07
2.15591e-07
2.8613e-07
6.69644e-07
3.68611e-07
1.49363e-06
4.45165e-07
2.00192e-06
5.18646e-07
1.98653e-06
6.35682e-07
1.42428e-06
4.20942e-07
2.35883e-07
-7.23079e-07
-1.49824e-06
1.49189e-06
-1.05494e-06
-4.47908e-07
-4.77026e-07
-5.79498e-07
-8.63121e-08
-3.91173e-07
2.00735e-07
-2.87732e-07
3.71329e-07
-1.71773e-07
5.4543e-07
-1.75795e-07
8.14961e-07
-2.71213e-07
1.11396e-06
-3.01035e-07
1.05645e-06
5.69028e-08
4.78624e-07
5.77823e-07
-3.56547e-07
8.35165e-07
-1.44225e-06
1.08569e-06
-2.17928e-06
7.30539e-07
-2.02387e-06
-1.55411e-07
-1.30506e-06
-7.18808e-07
-7.15537e-07
-5.8941e-07
-7.2724e-09
-7.09352e-07
-7.28054e-09
-8.40627e-07
2.33113e-06
-6.02382e-07
-6.89092e-07
-3.70136e-07
-8.1174e-07
-1.92785e-07
-5.68518e-07
-6.45043e-08
-4.16012e-07
5.7906e-08
-2.94185e-07
2.06431e-07
-3.24328e-07
4.02324e-07
-4.67257e-07
5.60479e-07
-4.59134e-07
4.61776e-07
1.5567e-07
7.17587e-08
9.71808e-07
-4.91461e-07
1.40793e-06
-1.14105e-06
1.74177e-06
-1.6705e-06
1.2541e-06
-1.69738e-06
-1.28531e-07
-1.32692e-06
-1.08926e-06
-9.69013e-07
-9.47314e-07
-3.58122e-07
-1.32024e-06
-3.65167e-07
-2.40569e-07
2.57024e-06
-2.89587e-07
-6.40485e-07
-3.04999e-07
-7.96604e-07
-2.76842e-07
-5.96684e-07
-2.39528e-07
-4.53331e-07
-1.78437e-07
-3.55288e-07
-8.77989e-08
-4.14978e-07
4.09826e-08
-5.96051e-07
1.35886e-07
-5.53988e-07
2.05991e-08
2.70957e-07
-2.87099e-07
1.27961e-06
-6.4469e-07
1.76575e-06
-9.92078e-07
2.09304e-06
-1.3511e-06
1.61594e-06
-1.43897e-06
-4.17882e-08
-1.2412e-06
-1.28703e-06
-1.1146e-06
-1.07391e-06
-7.3977e-07
-1.6857e-06
-1.10303e-06
1.74894e-07
2.40683e-06
-1.09826e-07
-3.55633e-07
-2.96609e-07
-6.09869e-07
-3.75793e-07
-5.17539e-07
-4.07463e-07
-4.21675e-07
-4.04861e-07
-3.57789e-07
-3.71616e-07
-4.48072e-07
-3.00526e-07
-6.67128e-07
-2.32804e-07
-6.21377e-07
-3.29489e-07
3.66085e-07
-5.61132e-07
1.5102e-06
-7.7723e-07
1.98185e-06
-9.57405e-07
2.27321e-06
-1.18554e-06
1.84617e-06
-1.21795e-06
-1.06269e-08
-1.09457e-06
-1.41043e-06
-1.17099e-06
-9.93915e-07
-9.89345e-07
-1.86875e-06
-2.09379e-06
2.99959e-07
2.11474e-06
-8.04293e-08
2.48841e-08
-3.54681e-07
-3.35624e-07
-5.02585e-07
-3.69642e-07
-5.86826e-07
-3.37436e-07
-6.3676e-07
-3.07581e-07
-6.58191e-07
-4.26795e-07
-6.39333e-07
-6.86139e-07
-5.83262e-07
-6.76284e-07
-6.28596e-07
4.09609e-07
-7.88272e-07
1.66853e-06
-8.93189e-07
2.08677e-06
-9.54701e-07
2.33472e-06
-1.09026e-06
1.98411e-06
-1.00313e-06
-9.99475e-08
-8.8682e-07
-1.52527e-06
-1.06831e-06
-8.08779e-07
-9.71919e-07
-1.97084e-06
-3.07427e-06
1.88969e-07
1.92576e-06
-1.77578e-07
3.91422e-07
-4.73818e-07
-3.93925e-08
-6.58913e-07
-1.84555e-07
-7.80707e-07
-2.15628e-07
-8.75041e-07
-2.13196e-07
-9.48376e-07
-3.53545e-07
-9.82256e-07
-6.52509e-07
-9.391e-07
-7.15064e-07
-9.03569e-07
3.67176e-07
-9.89872e-07
1.75483e-06
-9.99635e-07
2.09653e-06
-9.58971e-07
2.29406e-06
-9.92571e-07
1.98706e-06
-7.8732e-07
-3.10094e-07
-6.32226e-07
-1.67061e-06
-7.69064e-07
-6.72707e-07
-7.62699e-07
-1.9772e-06
-3.83697e-06
4.08086e-09
1.92168e-06
-3.50437e-07
7.45927e-07
-6.39156e-07
2.49326e-07
-8.39814e-07
1.61149e-08
-9.86526e-07
-6.89382e-08
-1.11517e-06
-8.45627e-08
-1.23499e-06
-2.33745e-07
-1.3262e-06
-5.61303e-07
-1.31858e-06
-7.2015e-07
-1.17675e-06
2.47117e-07
-1.14076e-06
1.65999e-06
-1.09337e-06
2.04914e-06
-9.77659e-07
2.17727e-06
-8.04931e-07
1.78053e-06
-5.35048e-07
-5.90251e-07
-4.0687e-07
-1.79643e-06
-3.94067e-07
-6.88029e-07
-4.21917e-07
-1.95119e-06
-4.25889e-06
-2.50896e-07
2.17256e-06
-5.71902e-07
1.06693e-06
-8.33645e-07
5.11068e-07
-1.03818e-06
2.20655e-07
-1.1991e-06
9.1943e-08
-1.35074e-06
6.69773e-08
-1.5053e-06
-7.87685e-08
-1.64673e-06
-4.20326e-07
-1.70947e-06
-6.53245e-07
-1.4785e-06
6.48129e-08
-1.25559e-06
1.41185e-06
-1.13317e-06
1.87088e-06
-9.56437e-07
1.96768e-06
-5.49021e-07
1.35041e-06
-2.84581e-07
-8.62178e-07
-1.98978e-07
-1.87967e-06
-6.64341e-08
-8.23092e-07
-2.42147e-08
-1.98745e-06
-4.2831e-06
3.08108e-07
-1.36889e-06
6.04306e-07
-1.2857e-06
9.01706e-07
-1.21905e-06
1.16651e-06
-1.09644e-06
1.39862e-06
-9.7969e-07
1.60398e-06
-8.87114e-07
1.77751e-06
-7.91348e-07
1.90917e-06
-6.68004e-07
1.98628e-06
-5.07287e-07
2.00355e-06
-3.24908e-07
1.95166e-06
-1.32536e-07
1.8232e-06
4.1087e-08
1.6177e-06
1.69966e-07
1.33439e-06
2.74134e-07
9.86971e-07
3.92235e-07
6.30023e-07
5.72537e-07
4.16305e-07
8.83361e-07
5.76465e-07
1.33347e-06
9.06777e-07
1.67362e-06
1.20119e-06
1.69487e-06
1.23598e-06
1.38948e-06
4.66191e-07
1.00566e-06
7.7565e-07
-1.03254e-06
2.79541e-07
-1.43112e-06
6.37647e-07
-1.42701e-06
9.89041e-07
-1.36028e-06
1.28422e-06
-1.19794e-06
1.53709e-06
-1.05385e-06
1.75209e-06
-9.33753e-07
1.90584e-06
-7.91309e-07
1.99112e-06
-6.24166e-07
2.01996e-06
-4.44093e-07
2.00468e-06
-2.5692e-07
1.94489e-06
-6.51206e-08
1.83156e-06
1.09583e-07
1.64696e-06
2.57937e-07
1.38202e-06
3.91734e-07
1.05473e-06
5.20923e-07
7.2596e-07
6.49881e-07
5.19497e-07
7.82636e-07
5.59237e-07
9.3206e-07
7.93841e-07
1.0541e-06
9.5393e-07
1.1122e-06
7.6347e-07
1.10765e-06
1.4577e-07
1.11769e-06
1.13303e-06
-7.28013e-07
1.86333e-07
-4.09029e-09
3.15886e-07
-3.45586e-09
4.13335e-07
-1.99984e-09
5.50035e-07
-8.20334e-09
6.65473e-07
-5.78708e-09
7.35006e-07
-3.60876e-09
7.74574e-07
-5.66116e-09
7.84581e-07
-6.00185e-09
7.7367e-07
-3.18966e-09
7.48181e-07
-1.1932e-09
7.21024e-07
-8.74944e-09
6.87247e-07
0
6.28523e-07
0
5.39661e-07
1.44661e-09
4.31567e-07
4.44564e-09
3.2567e-07
9.17368e-09
2.51186e-07
1.80546e-08
2.37775e-07
9.61849e-09
2.64129e-07
0
2.62138e-07
5.20647e-11
1.70087e-07
4.53509e-10
9.45998e-09
0
0
-2.09067e-07
5.13256e-10
-4.76845e-09
6.04259e-10
-3.71576e-09
-8.97336e-11
-1.47075e-09
6.99218e-10
-9.16128e-09
9.58955e-10
-6.2269e-09
7.99887e-10
-3.64432e-09
1.00326e-09
-6.07077e-09
1.30764e-09
-6.54672e-09
1.3835e-09
-3.54356e-09
1.36548e-09
-1.47989e-09
1.66379e-09
-3.58972e-10
1.81674e-09
0
1.9913e-09
0
2.15041e-09
0
2.21449e-09
0
2.36363e-09
0
2.01441e-09
0
1.48759e-09
0
9.01492e-10
2.39438e-13
4.75854e-10
3.33435e-13
5.07083e-10
6.41485e-13
3.03709e-10
0
0
-4.86542e-10
-1.61927e-09
-1.60362e-09
-3.00838e-10
-3.25881e-10
-7.6013e-09
1.15023e-09
-5.90085e-09
-5.42895e-09
-4.65904e-09
-2.02865e-09
-1.86021e-09
-1.12249e-09
-6.80652e-09
-4.40776e-09
-8.08021e-09
-3.26007e-09
-7.69789e-09
-1.94538e-09
-5.64588e-09
-1.55144e-09
-3.68488e-09
-3.70125e-10
-1.63148e-09
-9.42163e-11
2.39631e-10
-3.33954e-11
1.05639e-09
6.4661e-10
1.59854e-09
1.1602e-09
1.61385e-09
1.23372e-09
7.52202e-10
1.50393e-09
2.4381e-10
1.15795e-09
-5.98412e-10
4.96232e-10
-1.39044e-09
3.27423e-10
-1.97176e-09
2.11826e-10
-2.04139e-09
3.23552e-10
1.8731e-10
-1.24149e-09
-1.81937e-10
-2.17213e-10
-5.10672e-10
4.66786e-12
-2.56112e-10
0
-4.81831e-10
-4.34534e-10
-9.4424e-10
-1.33689e-10
-7.79026e-10
-1.70902e-10
-2.83223e-11
-3.09234e-12
-1.04914e-10
-6.64169e-13
-2.05917e-10
-5.35536e-14
-2.41736e-10
-7.37195e-13
-1.9248e-10
-6.71107e-13
-4.71283e-13
-3.19636e-13
-3.49842e-11
2.74328e-17
-7.75388e-11
0
-7.32213e-11
0
-1.12809e-10
0
-5.00243e-10
0
-1.40898e-09
0
-1.24893e-09
0
-1.8053e-09
0
-2.08884e-09
6.29479e-11
-1.95516e-09
0
1.85828e-11
-1.36257e-09
-1.02764e-11
0
-1.23647e-10
0
-8.55913e-12
6.19122e-14
-3.86121e-11
-2.22456e-12
-1.03597e-11
-6.50348e-12
-8.10451e-14
-4.43434e-12
-9.8998e-14
-3.11347e-12
-1.08199e-13
-6.9208e-13
-1.22261e-13
-7.69769e-14
-1.31898e-13
-7.6467e-13
-1.4165e-13
-7.04809e-13
-5.03736e-13
-6.92705e-15
-5.84606e-13
2.92441e-14
-1.76221e-10
8.50604e-13
-3.4134e-10
-2.41968e-11
-3.36369e-10
2.18417e-11
-1.59521e-10
1.91542e-11
-1.96315e-10
0
-2.29401e-10
0
-4.92862e-11
0
-1.94482e-10
9.0948e-12
-9.10444e-10
0
3.46001e-11
-8.79032e-10
-4.56428e-15
3.99013e-15
-5.67138e-14
4.78623e-15
-3.11752e-15
1.77323e-14
-2.21991e-12
2.04062e-19
-6.34579e-12
0
-4.73896e-12
-3.71028e-13
-6.13861e-12
-1.64411e-12
-9.43072e-13
-8.76175e-13
-1.60716e-12
-1.76037e-14
-6.12605e-12
-3.46234e-13
-1.51019e-12
-3.61636e-13
0
2.05163e-13
-6.39762e-11
5.93392e-13
-4.21612e-10
-5.52293e-12
-4.09514e-10
-9.89146e-12
-3.64167e-10
2.89782e-12
-2.91872e-10
1.30921e-11
-2.31475e-10
6.78036e-12
-1.18971e-10
1.41449e-11
-9.41986e-12
7.58821e-12
-5.84615e-13
1.29233e-13
-2.15417e-12
7.6786e-14
0
-6.27488e-13
-6.09499e-16
4.4211e-15
-1.51384e-15
5.63253e-15
-1.91801e-15
1.884e-14
0
5.19154e-15
-5.59423e-13
2.11974e-17
-5.81364e-12
5.66825e-14
-5.56723e-12
1.66533e-14
-3.17163e-12
-5.1597e-14
-3.7876e-12
-5.51275e-15
-1.16492e-11
-4.47013e-14
-9.54972e-12
4.1824e-13
0
8.16452e-13
-2.41387e-11
3.15321e-13
-9.01458e-11
-1.33118e-15
-7.12685e-11
-8.20283e-15
-6.5312e-11
0
-1.23576e-10
0
-9.46766e-11
1.17538e-11
-7.42646e-12
0
-2.54529e-14
8.1167e-14
-2.2751e-14
1.44726e-14
-2.19143e-14
1.26568e-14
0
-1.51757e-14
-3.96217e-16
4.64748e-15
-1.32132e-14
6.41458e-14
-1.05244e-14
1.56086e-13
0
1.58411e-14
-1.13116e-15
9.40289e-16
-2.6097e-12
0
-2.58347e-12
2.3763e-13
-1.74099e-13
1.68986e-13
-4.02007e-12
8.55533e-14
-1.15584e-11
8.82783e-13
-9.44608e-12
1.18526e-12
-3.19833e-13
8.88105e-13
-4.00517e-15
5.83416e-16
-4.2392e-15
2.62118e-17
-1.13327e-14
0
-3.94215e-14
0
-4.60526e-12
0
-4.5325e-12
0
-3.16879e-14
8.37393e-13
-6.80373e-14
1.20529e-14
-8.43877e-14
5.79143e-14
-1.27961e-13
6.70862e-14
4.86935e-14
-4.01366e-14
-4.16737e-15
5.37626e-15
-3.20809e-14
1.69655e-13
-4.16028e-14
2.00596e-13
-2.86e-15
4.89297e-14
-2.80301e-15
7.87488e-16
-7.83643e-14
1.13588e-15
-9.58854e-14
1.00735e-14
-2.27708e-13
4.89303e-14
-3.2514e-12
3.35694e-13
-8.49582e-12
6.41973e-13
-5.32425e-12
1.05128e-12
-7.04542e-15
1.06374e-13
-5.88559e-15
5.79502e-16
-5.13313e-15
4.24551e-16
-3.35969e-14
3.08247e-15
-1.95352e-12
1.90591e-13
-2.56528e-12
2.0778e-12
-1.68145e-13
2.19573e-12
-8.88487e-14
8.21333e-13
-5.83099e-14
4.49155e-14
-1.36232e-13
5.07275e-14
-8.64009e-14
7.50213e-14
3.11938e-14
-1.32287e-14
-1.49145e-14
5.76594e-15
-3.69886e-14
2.26255e-13
-1.8779e-14
2.16887e-13
-5.34345e-16
5.12592e-14
-7.82322e-16
9.41517e-16
-5.85723e-16
8.45712e-16
-5.82781e-14
6.7656e-14
-6.67029e-13
1.09073e-12
-1.01097e-12
1.6824e-12
-4.72459e-12
3.28675e-13
-1.10704e-13
3.58854e-13
-4.29174e-15
7.38004e-16
-3.2806e-15
7.37419e-16
0
7.28092e-16
0
1.24834e-15
-1.11719e-11
7.12841e-13
-2.02413e-11
3.35597e-12
-2.26173e-11
4.62411e-12
-5.61299e-14
6.70825e-12
-5.75262e-14
1.57186e-14
-5.2738e-14
1.55446e-14
-5.1107e-14
1.2914e-14
7.80346e-15
-9.76901e-15
-6.39341e-16
3.65003e-15
-2.70191e-14
5.4341e-15
-3.6123e-14
1.0107e-13
-5.70525e-16
1.80034e-14
-7.88246e-16
1.06714e-15
-1.52655e-15
1.48874e-15
-1.16832e-12
8.8576e-13
-2.65065e-12
2.29225e-12
-2.80238e-12
2.01222e-12
-3.60444e-13
2.39904e-13
-2.98172e-15
1.53475e-15
-2.40707e-15
9.44372e-16
-1.40441e-15
8.87559e-16
0
3.14571e-16
-4.56172e-15
1.67756e-15
-1.98491e-11
9.21636e-13
-2.03879e-11
3.94721e-12
-2.01474e-11
4.43599e-12
-1.77816e-11
4.39478e-12
-5.57919e-14
2.53127e-12
-3.70125e-14
1.07324e-14
-2.16976e-14
1.17854e-14
1.02466e-14
-9.88989e-15
-1.59298e-16
2.284e-15
-4.01695e-15
2.59444e-15
-2.44032e-15
1.49812e-15
-4.40525e-16
1.53751e-15
-6.51155e-16
1.18254e-15
-1.34039e-15
2.07403e-15
-2.13128e-12
1.02347e-12
-2.48926e-12
2.75972e-12
-1.61854e-12
1.31548e-12
-3.75111e-15
1.03993e-13
-3.20451e-15
1.12867e-15
-2.05318e-15
1.11062e-15
-1.02686e-15
1.0119e-15
-9.0979e-17
2.27933e-16
0
6.63346e-17
0
0
-1.00298e-11
0
-1.88106e-11
1.89302e-12
-2.52938e-12
1.56056e-12
-3.05111e-14
1.06882e-15
-2.27275e-14
1.15555e-14
-3.64138e-14
1.39136e-14
1.19002e-14
-1.09849e-14
-3.24126e-17
6.27609e-15
-7.50428e-17
1.66082e-15
-1.03748e-16
5.47134e-16
-1.59974e-16
5.93114e-16
0
1.49971e-15
0
2.37607e-14
-8.25562e-13
2.80994e-13
-1.4891e-12
3.89995e-13
-1.05081e-13
1.08271e-15
-2.01815e-15
2.24359e-16
-1.993e-15
1.24649e-15
-1.54377e-15
1.5176e-15
-4.47355e-16
8.72126e-16
-1.4214e-16
9.77262e-17
-1.48928e-16
6.45581e-17
-2.27971e-16
3.25143e-17
-7.90439e-14
5.50861e-18
-1.68002e-13
7.73872e-17
-7.44794e-15
0
-3.95972e-14
1.8203e-15
-4.69431e-14
1.36202e-14
-2.92651e-14
1.82768e-14
7.69169e-15
-4.04553e-15
-7.38213e-15
1.76286e-14
-2.21758e-15
5.41665e-13
-9.21579e-17
8.81447e-16
-1.11621e-15
6.16534e-16
-1.26509e-15
7.07983e-15
-2.67855e-14
2.8376e-14
-2.75765e-14
0
-1.24845e-15
4.91483e-17
-1.61397e-16
0
-9.15821e-16
2.70889e-16
-1.40033e-15
1.07536e-15
-9.76997e-16
1.07642e-15
-1.52447e-16
2.5865e-16
-1.20251e-16
5.95016e-17
-1.25518e-16
7.01966e-17
-1.31002e-16
6.39049e-17
-1.61159e-16
5.64296e-17
-1.72517e-16
2.18814e-17
-3.3164e-16
1.23111e-17
-1.19433e-14
8.40824e-16
-3.13088e-14
5.56578e-15
-2.062e-14
7.38501e-15
5.88388e-16
-2.45962e-15
-3.32808e-14
7.22598e-13
-9.17207e-16
5.75787e-13
-1.14631e-16
7.66756e-17
-3.97236e-16
1.03584e-15
-5.01459e-15
7.88571e-15
-5.39026e-16
1.05596e-14
-3.81046e-17
4.81258e-18
-1.07613e-17
1.48589e-17
-4.53537e-17
1.74274e-17
-4.29857e-16
1.33393e-16
-4.6484e-16
2.87224e-16
-1.59739e-16
1.77258e-16
-5.49679e-17
2.44479e-17
-8.24901e-17
2.73017e-17
-1.09755e-16
6.25773e-17
-1.24752e-16
7.14014e-17
-1.19342e-16
6.78848e-17
-1.14463e-16
5.51661e-17
-1.84808e-16
4.58786e-17
-9.36998e-16
3.53193e-17
-9.53788e-16
0
-1.11043e-15
0
7.70716e-17
-2.42169e-15
-2.37489e-14
7.52819e-13
-1.38432e-16
3.39998e-13
-1.40648e-16
7.76535e-17
-9.54867e-16
1.21163e-15
-1.23908e-15
4.37702e-15
-6.55209e-17
6.19914e-16
-1.44358e-17
3.71272e-17
-7.4619e-18
3.83233e-17
-1.6249e-17
1.4421e-17
-5.28084e-17
1.34099e-17
-4.23886e-17
1.32167e-17
-5.14159e-18
3.47295e-18
-7.75955e-18
3.68815e-19
-3.46425e-17
5.79629e-18
-6.97358e-17
2.83004e-17
-9.05174e-17
4.77857e-17
-9.2335e-17
5.16063e-17
-8.35321e-17
4.66554e-17
-5.86085e-17
2.92201e-17
-2.0426e-17
8.68905e-18
-1.18736e-17
3.43994e-18
-6.24246e-17
1.31331e-18
2.82005e-18
-2.5199e-16
-1.30123e-14
7.72155e-13
-1.0426e-16
1.49207e-13
-1.0724e-16
8.00638e-17
-3.50835e-16
8.40336e-16
-7.87419e-17
1.00322e-15
-9.7322e-18
2.52875e-17
-1.09421e-17
3.53345e-17
-3.64953e-18
3.35922e-17
-1.11573e-18
2.57032e-18
-1.09684e-18
2.42046e-18
-4.116e-19
2.03947e-18
-2.88621e-20
4.3691e-19
-1.62997e-19
4.65283e-20
-4.82956e-18
1.45647e-18
-1.98249e-17
2.81736e-18
-2.92245e-17
8.39979e-18
-2.9296e-17
9.61113e-18
-2.49177e-17
7.60283e-18
-1.68129e-17
4.88405e-18
-9.33345e-18
2.72831e-18
-4.49356e-18
1.66075e-18
-2.48236e-18
4.4884e-19
6.03731e-20
-5.47406e-19
-2.34238e-14
8.01854e-13
-5.89938e-17
1.70901e-13
-6.14498e-17
8.22128e-17
-6.05511e-17
2.67892e-16
-4.77449e-18
1.26383e-16
-4.38093e-18
1.28682e-17
-4.62104e-18
1.0851e-17
-4.72709e-19
7.48658e-18
2.85034e-19
4.07357e-19
4.55623e-19
-7.96776e-19
6.53612e-19
-1.08413e-18
6.60505e-19
-1.33363e-18
2.59809e-19
-1.16047e-18
-3.24148e-19
-3.93641e-19
-1.10007e-18
4.23441e-19
-1.89107e-18
1.59553e-18
-1.76876e-18
1.44011e-19
-1.29186e-18
9.02688e-20
-9.18566e-19
7.94331e-19
-6.5381e-19
4.77989e-19
-4.06571e-19
2.68834e-19
-2.58876e-19
1.50893e-20
4.4784e-20
-2.28005e-19
-2.85738e-14
8.32111e-13
-1.58919e-17
5.66404e-13
-1.81659e-17
8.4219e-17
-1.32767e-17
8.84517e-17
-3.03818e-18
7.84662e-17
-8.42906e-19
1.21573e-17
-5.23997e-19
5.57676e-19
2.98222e-19
1.4288e-18
6.74058e-19
-1.16621e-18
8.45444e-19
-2.24384e-18
9.18387e-19
-2.41452e-18
8.59474e-19
-2.26243e-18
6.44936e-19
-1.83169e-18
3.66728e-19
-1.18987e-18
1.00766e-19
-5.85127e-19
-3.23415e-21
-1.38731e-19
-2.48587e-21
3.82854e-21
8.0632e-21
1.87272e-21
9.47129e-21
-6.91078e-21
1.08909e-21
-6.70313e-21
-1.13532e-22
-6.01788e-22
6.69301e-22
4.28856e-23
-1.14702e-22
-4.74162e-22
-3.05624e-14
8.62696e-13
-1.08376e-17
8.8677e-13
-1.29248e-17
8.60388e-17
-8.51527e-18
8.37041e-17
-2.96189e-18
8.00677e-17
-7.62793e-20
1.236e-17
6.58831e-20
5.974e-20
4.05483e-19
-3.57141e-19
6.43751e-19
-1.87893e-18
7.5032e-19
-2.56834e-18
7.63171e-19
-2.59143e-18
6.96366e-19
-2.28995e-18
5.6986e-19
-1.81829e-18
4.24791e-19
-1.29455e-18
2.9699e-19
-8.37988e-19
2.10843e-19
-5.07019e-19
1.58017e-19
-3.09841e-19
1.17519e-19
-1.98154e-19
8.28325e-20
-1.23789e-19
5.40897e-20
-7.10299e-20
3.27201e-20
-3.53429e-20
1.84949e-20
-1.39481e-20
-3.01755e-21
9.78334e-21
-2.9562e-14
8.9228e-13
-1.10053e-17
8.57269e-13
-1.28106e-17
8.75766e-17
-9.39419e-18
1.01639e-16
-2.84886e-18
1.12005e-16
-1.10027e-19
1.42031e-17
8.01999e-20
2.37586e-19
2.71679e-19
-5.14013e-19
4.09208e-19
-1.51056e-18
4.69928e-19
-1.98318e-18
4.69299e-19
-1.99161e-18
4.24604e-19
-1.74259e-18
3.53832e-19
-1.38194e-18
2.75982e-19
-1.00833e-18
2.05016e-19
-6.86854e-19
1.48584e-19
-4.43683e-19
1.05517e-19
-2.77735e-19
7.2655e-20
-1.68496e-19
4.83705e-20
-9.72176e-20
3.10856e-20
-5.22755e-20
1.91224e-20
-2.51491e-20
1.1104e-20
-9.64589e-21
-1.65479e-21
6.08396e-21
-2.45698e-14
9.16872e-13
-1.61038e-17
3.90032e-13
-1.76072e-17
8.88128e-17
-1.3677e-17
2.07949e-16
-3.30854e-18
2.02331e-16
-3.83433e-19
2.25451e-17
-1.72853e-19
3.75436e-18
4.08047e-20
1.84282e-18
1.31357e-19
-2.78494e-19
1.89022e-19
-7.91884e-19
2.08606e-19
-1.00781e-18
1.98124e-19
-9.84093e-19
1.69357e-19
-8.26524e-19
1.34052e-19
-6.23777e-19
9.99976e-20
-4.34657e-19
7.12061e-20
-2.84132e-19
4.83424e-20
-1.76024e-19
3.13407e-20
-1.02737e-19
1.95608e-20
-5.60622e-20
1.19156e-20
-2.82862e-20
7.0589e-21
-1.27952e-20
4.00097e-21
-4.52963e-21
-4.53849e-22
2.1138e-21
-1.52108e-14
2.94555e-13
-2.92118e-17
4.11321e-16
-3.04404e-17
8.97718e-17
-2.44371e-17
5.1304e-16
-4.53682e-18
3.31863e-16
-1.18089e-18
4.39166e-17
-9.10068e-19
1.64655e-17
-6.35358e-19
1.24107e-17
-3.20168e-19
7.57487e-18
-7.64431e-20
3.47662e-18
3.78439e-20
1.11209e-18
6.12724e-20
-2.36925e-19
6.15557e-20
-3.4303e-19
5.10671e-20
-3.07709e-19
3.82455e-20
-2.27423e-19
2.67841e-20
-1.51201e-19
1.74087e-20
-9.34534e-20
1.05629e-20
-5.30604e-20
6.04193e-21
-2.75848e-20
3.32591e-21
-1.29992e-20
1.77137e-21
-5.39545e-21
9.04921e-22
-1.67783e-21
2.7289e-24
4.24183e-22
-1.30216e-16
2.64793e-16
-1.71199e-17
2.89248e-16
-3.51055e-17
4.68457e-16
-3.13987e-17
6.8971e-16
-5.90436e-18
4.21264e-16
-2.41583e-18
7.96935e-17
-2.10263e-18
4.34799e-17
-1.72272e-18
3.6063e-17
-1.13557e-18
2.55545e-17
-5.8218e-19
1.45854e-17
-1.9434e-19
6.48105e-18
-1.93677e-20
1.89183e-18
1.42373e-20
2.72751e-19
1.49444e-20
-1.0535e-19
1.14005e-20
-1.00516e-19
7.86172e-21
-6.97663e-20
4.82189e-21
-4.38034e-20
2.64977e-21
-2.44444e-20
1.30551e-21
-1.21645e-20
5.76229e-22
-5.34203e-21
2.165e-22
-1.99815e-21
5.33012e-23
-5.13711e-22
2.59564e-23
-2.45579e-23
-5.96259e-18
2.71181e-16
-1.90667e-17
2.94715e-16
-2.85435e-17
6.94977e-16
-1.7873e-17
7.48485e-16
-5.96603e-18
4.27743e-16
-3.29726e-18
1.21149e-16
-2.92168e-18
8.33623e-17
-2.44749e-18
7.10099e-17
-1.73931e-18
5.23228e-17
-9.73245e-19
3.27417e-17
-3.87338e-19
1.57482e-17
-9.17217e-20
5.3242e-18
-3.25059e-21
1.04594e-18
2.99289e-21
4.39042e-20
2.3583e-21
-3.75228e-20
1.52924e-21
-2.86808e-20
7.94272e-22
-1.86406e-20
3.11067e-22
-1.03065e-20
5.98736e-23
-4.93415e-21
-7.27189e-23
-2.02481e-21
-1.19226e-22
-6.77517e-22
-1.09991e-22
-1.34409e-22
1.59223e-23
-8.64417e-23
-4.13515e-18
2.76859e-16
-1.37612e-17
2.96329e-16
-1.7592e-17
6.94946e-16
-1.30394e-17
7.15157e-16
-3.83166e-18
3.79241e-16
-2.57696e-18
1.49421e-16
-2.1959e-18
1.24323e-16
-1.76182e-18
1.08942e-16
-1.25591e-18
8.16346e-17
-7.0904e-19
5.38252e-17
-2.7217e-19
2.69502e-17
-5.53241e-20
8.92301e-18
-3.24058e-21
1.47529e-18
1.86115e-22
7.16574e-20
9.4734e-23
-1.08224e-20
-5.65682e-23
-1.07925e-20
-1.95277e-22
-7.36918e-21
-2.52327e-22
-4.05365e-21
-2.34084e-22
-1.8678e-21
-1.78575e-22
-7.15044e-22
-1.20526e-22
-2.12464e-22
-7.60303e-23
-2.94186e-23
7.50229e-24
-4.70906e-23
-2.4853e-18
2.8089e-16
-6.2733e-18
2.45417e-16
-4.87967e-18
4.57625e-16
-1.87466e-18
4.08802e-16
-1.46914e-19
2.32342e-16
3.46846e-19
1.53342e-16
6.61808e-19
1.44051e-16
8.44315e-19
1.3534e-16
7.4328e-19
1.0695e-16
5.58959e-19
7.19677e-17
2.89557e-19
3.66249e-17
7.97791e-20
1.11815e-17
7.44455e-21
1.51267e-18
2.37382e-21
6.75129e-20
-6.36418e-23
-1.30371e-21
-2.70178e-22
-3.80217e-21
-2.91552e-22
-2.75781e-21
-2.4367e-22
-1.50513e-21
-1.72569e-22
-6.64066e-22
-1.07949e-22
-2.36364e-22
-6.26152e-23
-6.253e-23
-3.5455e-23
-4.74102e-24
2.97501e-24
-1.99589e-23
-7.89009e-19
3.46035e-16
-1.26475e-19
1.93796e-16
1.49051e-18
2.16612e-16
2.66224e-18
2.22818e-16
3.62532e-18
1.68169e-16
4.16973e-18
1.5197e-16
4.60756e-18
1.45188e-16
4.9029e-18
1.39747e-16
4.04317e-18
1.19934e-16
2.64553e-18
8.21083e-17
1.18502e-18
4.11498e-17
2.42765e-19
1.1518e-17
1.54581e-20
1.39454e-18
1.31231e-21
3.46416e-20
2.48874e-25
8.34961e-24
-1.66158e-22
-1.29484e-21
-1.73458e-22
-9.9357e-22
-1.32817e-22
-5.32902e-22
-8.51712e-23
-2.23715e-22
-4.84274e-23
-7.40506e-23
-2.57868e-23
-1.72702e-23
-1.35326e-23
-4.7761e-27
1.04334e-24
-7.12575e-24
3.76867e-19
1.28336e-15
1.65278e-18
1.86742e-16
3.84827e-18
2.09063e-16
5.82412e-18
2.15743e-16
7.09303e-18
1.61992e-16
8.05733e-18
1.49131e-16
8.42882e-18
1.43605e-16
8.82654e-18
1.40706e-16
7.61329e-18
1.21359e-16
4.83216e-18
8.36694e-17
2.00678e-18
4.15658e-17
3.53504e-19
1.1267e-17
1.41731e-20
9.49604e-19
4.4897e-23
1.02752e-20
1.58044e-24
1.00748e-23
-7.82663e-23
-4.42867e-22
-8.13015e-23
-3.49715e-22
-5.88013e-23
-1.82024e-22
-3.50223e-23
-7.2159e-23
-1.8449e-23
-2.20482e-23
-9.13112e-24
-4.43202e-24
-4.51107e-24
1.10389e-25
3.18445e-25
-2.24599e-24
1.71243e-17
2.58871e-15
3.76147e-18
1.94211e-16
6.97046e-18
2.00264e-16
3.93614e-15
1.28295e-12
1.17283e-17
4.08169e-15
1.15746e-17
1.44566e-16
1.17079e-17
1.37171e-16
1.25303e-17
1.39731e-16
1.06839e-17
1.21208e-16
6.65832e-18
8.37973e-17
2.59731e-18
4.01397e-17
3.59378e-19
9.06668e-18
7.22392e-21
4.6729e-19
8.39662e-24
2.33677e-21
6.15337e-25
1.16756e-24
-3.33891e-23
-1.54643e-22
-3.38993e-23
-1.21616e-22
-2.30922e-23
-6.04609e-23
-1.27714e-23
-2.23764e-23
-6.22832e-24
-6.24053e-24
-2.85181e-24
-1.04801e-24
-1.32603e-24
5.2447e-26
8.36423e-26
-6.14161e-25
1.37738e-15
2.53153e-15
5.08029e-14
4.52986e-13
1.785e-13
2.63448e-12
1.28157e-13
2.4469e-12
0
1.21304e-12
2.13817e-17
6.3784e-16
1.51206e-17
1.36481e-16
1.5787e-17
1.35993e-16
1.31918e-17
1.16907e-16
7.88043e-18
7.85065e-17
2.64009e-18
3.35701e-17
2.43584e-19
5.58522e-18
2.38495e-21
1.68304e-19
1.2027e-24
4.3264e-22
1.16515e-25
9.21091e-26
-1.3682e-23
-5.57048e-23
-1.3146e-23
-4.20246e-23
-8.3156e-24
-1.95819e-23
-4.22384e-24
-6.6645e-24
-1.87927e-24
-1.66486e-24
-7.83093e-25
-2.2449e-25
-3.37775e-25
1.64488e-26
1.86846e-26
-1.43862e-25
1.41964e-15
2.43246e-15
1.14767e-13
6.24078e-13
2.68116e-13
2.49831e-12
2.82632e-13
2.44829e-12
4.01466e-14
1.53032e-12
3.71445e-17
1.53302e-14
1.61785e-17
1.38506e-16
1.82345e-17
1.28917e-16
1.45523e-17
1.07424e-16
7.84008e-18
6.62955e-17
2.0215e-18
2.31421e-17
1.09634e-19
2.55086e-18
5.07606e-22
4.10535e-20
1.13133e-25
5.05513e-23
1.27769e-26
5.74854e-26
-5.53475e-24
-2.08207e-23
-4.82335e-24
-1.44204e-23
-2.77538e-24
-6.16252e-24
-1.27155e-24
-1.89298e-24
-5.0467e-25
-4.141e-25
-1.88102e-25
-4.32378e-26
-7.38617e-26
3.95011e-27
3.48359e-27
-2.84785e-26
1.48946e-15
2.26397e-15
9.99075e-14
3.27659e-13
3.58312e-13
2.25568e-12
3.74021e-13
2.44859e-12
2.34909e-14
7.33135e-13
2.16393e-17
3.70645e-15
1.95797e-17
1.33175e-16
1.97721e-17
1.21343e-16
1.42339e-17
9.29674e-17
6.40032e-18
4.92514e-17
1.12217e-18
1.26484e-17
3.08292e-20
7.93853e-19
5.93489e-23
5.63873e-21
4.93768e-24
3.02217e-24
-6.08635e-25
-2.59159e-24
-2.2308e-24
-8.05612e-24
-1.68063e-24
-4.8853e-24
-8.59052e-25
-1.87183e-24
-3.47053e-25
-5.08223e-25
-1.19602e-25
-9.50644e-26
-3.88855e-26
-7.43012e-27
-1.36103e-26
7.4789e-28
5.2917e-28
-4.6644e-27
5.88529e-15
2.45493e-15
1.31478e-13
8.06763e-15
3.57037e-13
2.09053e-13
2.14867e-13
4.04419e-13
0
0
0
3.78564e-16
2.22187e-17
1.35447e-16
1.97287e-17
1.13517e-16
1.18484e-17
7.27955e-17
4.08927e-18
3.03662e-17
4.12364e-19
4.93309e-18
4.64908e-21
1.40754e-19
3.08968e-24
3.49569e-22
3.12808e-25
8.67204e-26
-5.70151e-25
-2.36683e-24
-8.73125e-25
-3.12212e-24
-5.56113e-25
-1.62444e-24
-2.4649e-25
-5.46289e-25
-8.54887e-26
-1.28127e-25
-2.47837e-26
-1.99835e-26
-6.79971e-27
-1.14404e-27
-2.06587e-27
1.11606e-28
6.36277e-29
-6.15021e-28
1.17679e-15
5.28475e-15
1.42167e-15
2.58813e-15
7.45881e-15
0
1.10236e-14
0
6.23719e-17
0
4.17911e-17
3.50679e-16
2.67522e-17
1.92183e-16
1.62335e-17
1.0308e-16
7.83574e-18
4.85871e-17
1.81411e-18
1.37308e-17
8.32292e-20
1.1129e-18
3.01923e-22
1.09832e-20
6.219e-26
8.39685e-24
1.01894e-26
4.63354e-26
-3.1855e-25
-1.31963e-24
-3.29635e-25
-1.19701e-24
-1.75579e-25
-5.3033e-25
-6.58562e-26
-1.53471e-25
-1.90255e-26
-3.0356e-26
-4.47155e-27
-3.84225e-27
-9.92489e-28
-1.61234e-28
-2.51993e-28
1.29641e-29
5.84206e-30
-6.31133e-29
1.69286e-15
4.42799e-15
1.00141e-15
4.3037e-15
2.7185e-16
1.4676e-15
1.29815e-16
4.28078e-16
9.18697e-17
4.15222e-16
7.71515e-17
3.8425e-16
2.92321e-17
1.99448e-16
1.18471e-17
7.96498e-17
3.74294e-18
2.46604e-17
4.46579e-19
3.6401e-18
6.97792e-21
1.06161e-19
6.72916e-24
2.88767e-22
6.78118e-25
8.04095e-26
-1.90442e-26
-8.65083e-26
-1.55827e-25
-6.55637e-25
-1.21291e-25
-4.56265e-25
-5.34568e-26
-1.71043e-25
-1.65705e-26
-4.1874e-26
-3.86179e-27
-6.8269e-27
-7.05633e-28
-6.81901e-28
-1.19553e-28
-2.13689e-29
-2.401e-29
1.16039e-30
3.91579e-31
-4.82403e-30
1.40452e-15
8.11825e-16
1.72e-15
3.73519e-15
7.25134e-16
3.14423e-15
3.14766e-16
2.01039e-15
1.61447e-16
1.11568e-15
7.16971e-17
4.97979e-16
2.33062e-17
1.78444e-16
6.22042e-18
4.63294e-17
1.02233e-18
7.50644e-18