/*--------------------------------*- C++ -*----------------------------------*\
  =========                 |
  \\      /  F ield         | OpenFOAM: The Open Source CFD Toolbox
   \\    /   O peration     | Website:  https://openfoam.org
    \\  /    A nd           | Version:  9
     \\/     M anipulation  |
\*---------------------------------------------------------------------------*/
FoamFile
{
    format      ascii;
    class       volScalarField;
    location    "7.22";
    object      p;
}
// * * * * * * * * * * * * * * * * * * * * * * * * * * * * * * * * * * * * * //

dimensions      [1 -1 -2 0 0 0 0];

internalField   nonuniform List<scalar> 
2268
(
740.26
740.153
739.899
739.49
738.932
738.234
737.408
736.466
735.425
734.306
733.128
731.915
730.683
729.448
728.221
727.024
725.907
724.946
724.168
723.537
723.144
722.96
722.876
681.421
681.309
681.053
680.642
680.082
679.382
678.553
677.607
676.562
675.438
674.255
673.033
671.789
670.539
669.304
668.118
667.054
666.177
665.518
664.934
664.368
664.039
663.96
622.611
622.495
622.236
621.82
621.256
620.551
619.717
618.765
617.713
616.582
615.391
614.158
612.903
611.643
610.406
609.235
608.201
607.356
606.737
606.174
605.491
605.094
605.025
563.833
563.716
563.455
563.033
562.463
561.751
560.908
559.947
558.885
557.742
556.539
555.295
554.03
552.764
551.53
550.371
549.333
548.441
547.818
547.251
546.519
546.115
546.077
505.089
504.973
504.71
504.282
503.704
502.983
502.129
501.156
500.079
498.92
497.701
496.442
495.166
493.898
492.671
491.528
490.507
489.444
488.793
488.203
487.454
487.155
487.115
446.379
446.266
446
445.566
444.979
444.247
443.38
442.391
441.295
440.115
438.874
437.596
436.308
435.036
433.82
432.706
431.783
430.796
429.912
429.217
428.598
428.267
428.138
387.705
387.594
387.326
386.883
386.286
385.541
384.658
383.651
382.531
381.324
380.056
378.755
377.45
376.17
374.969
373.894
373.103
372.601
371.575
370.76
370.271
369.403
369.123
329.067
328.957
328.684
328.232
327.621
326.862
325.963
324.934
323.787
322.549
321.248
319.918
318.593
317.299
316.111
315.067
314.356
314.118
313.42
312.617
311.758
310.568
310.047
725.848
726.375
726.994
727.673
728.414
729.201
730.077
730.971
731.839
732.679
733.688
734.858
735.884
736.854
737.745
738.646
739.21
739.525
739.636
667.345
667.415
668.053
668.741
669.51
670.386
671.3
672.193
673.069
674.001
675.204
676.482
677.585
678.302
678.947
679.791
680.372
680.701
680.885
608.794
608.692
609.168
609.809
610.582
611.463
612.382
613.291
614.2
615.175
616.531
617.876
619.06
619.708
620.229
621.031
621.603
622.004
622.283
550.192
550.011
550.319
550.896
551.662
552.545
553.48
554.42
555.387
556.384
557.733
559.12
560.324
560.996
561.58
562.361
562.898
563.499
563.828
491.319
491.192
491.426
491.968
492.734
493.629
494.604
495.596
496.623
497.642
498.901
500.345
501.547
502.197
503.054
503.791
504.257
505.021
505.349
432.19
432.206
432.449
433.002
433.787
434.703
435.719
436.787
437.906
438.979
440.004
441.578
442.784
443.343
444.672
445.41
445.871
446.444
446.806
372.982
373.103
373.389
373.995
374.816
375.755
376.82
377.99
379.267
380.605
381.619
382.836
384.085
385.323
386.439
387.059
387.671
387.781
388.224
313.708
313.857
314.259
314.956
315.829
316.782
317.899
319.208
320.72
322.747
324.138
324.716
325.966
328.138
328.351
328.71
329.478
329.206
329.704
237.447
237.335
237.051
236.582
235.951
235.168
234.24
233.175
231.978
230.68
229.316
227.932
226.576
225.282
224.072
223.032
222.276
221.904
221.294
220.488
219.589
218.624
218.244
113.275
113.195
112.922
112.407
111.723
110.889
109.896
108.79
107.621
106.405
105.15
103.872
102.595
101.346
100.157
99.0832
98.1957
97.5311
96.979
96.3405
95.6851
95.3072
95.271
25.5835
25.5509
25.403
25.1507
24.7822
24.3328
23.8206
23.2611
22.6985
22.1435
21.5964
21.0316
20.4337
19.8246
19.2356
18.6927
18.219
17.8382
17.5269
17.2625
17.0742
17.0452
17.1071
-0.701966
-0.698218
-0.711198
-0.621804
-0.611273
-0.593499
-0.520839
-0.465831
-0.450906
-0.444117
-0.435074
-0.428443
-0.424917
-0.433046
-0.447137
-0.467186
-0.522019
-0.595838
-0.66805
-0.676719
-0.645104
-0.642168
-0.675104
-0.921389
-0.919647
-0.923556
-0.900075
-0.894295
-0.88345
-0.859671
-0.840388
-0.832844
-0.829798
-0.827462
-0.827447
-0.831194
-0.839066
-0.849065
-0.86061
-0.874008
-0.886089
-0.897057
-0.900394
-0.896633
-0.897758
-0.901536
-1.13744
-1.13845
-1.13977
-1.15114
-1.15203
-1.15299
-1.15885
-1.16412
-1.16343
-1.16103
-1.15866
-1.1563
-1.15258
-1.14688
-1.1402
-1.13492
-1.12889
-1.12078
-1.11057
-1.10734
-1.10647
-1.10122
-1.09258
-1.29143
-1.29155
-1.28904
-1.29215
-1.28985
-1.29079
-1.29135
-1.28982
-1.28889
-1.28758
-1.28576
-1.28319
-1.27993
-1.27535
-1.27125
-1.26819
-1.26666
-1.26671
-1.2663
-1.26558
-1.26596
-1.26337
-1.26061
-1.41769
-1.41801
-1.41711
-1.41704
-1.41592
-1.41561
-1.41536
-1.41446
-1.41346
-1.41221
-1.41069
-1.40884
-1.40673
-1.40452
-1.40287
-1.4011
-1.3992
-1.39775
-1.39739
-1.39689
-1.3965
-1.39784
-1.39923
-1.5413
-1.54148
-1.54118
-1.54107
-1.54046
-1.54015
-1.53969
-1.53893
-1.53804
-1.53698
-1.53578
-1.53446
-1.53337
-1.53304
-1.53244
-1.53098
-1.52892
-1.52718
-1.52613
-1.52488
-1.52426
-1.52452
-1.52489
-1.66567
-1.66568
-1.66551
-1.66535
-1.66496
-1.66464
-1.66421
-1.66354
-1.66275
-1.66189
-1.66095
-1.65998
-1.65917
-1.65881
-1.65819
-1.65693
-1.65548
-1.65427
-1.65293
-1.6518
-1.65119
-1.65111
-1.65118
-1.79014
-1.79011
-1.78999
-1.78981
-1.78952
-1.7892
-1.78879
-1.7882
-1.78754
-1.78688
-1.78615
-1.78534
-1.78457
-1.78397
-1.78327
-1.78222
-1.781
-1.77994
-1.77902
-1.77826
-1.77777
-1.7776
-1.77757
-1.91469
-1.91466
-1.91456
-1.9144
-1.91415
-1.91384
-1.91344
-1.91293
-1.9124
-1.91189
-1.91128
-1.91055
-1.90986
-1.90923
-1.90855
-1.9077
-1.90673
-1.90585
-1.90508
-1.90452
-1.90415
-1.90398
-1.90397
-2.03931
-2.0393
-2.03922
-2.03908
-2.03885
-2.03857
-2.03821
-2.03779
-2.03736
-2.03692
-2.03635
-2.03573
-2.03513
-2.03455
-2.03396
-2.03335
-2.03271
-2.03198
-2.03129
-2.03078
-2.03042
-2.03025
-2.03026
-2.164
-2.164
-2.16394
-2.16381
-2.16363
-2.16338
-2.16309
-2.16276
-2.16238
-2.16195
-2.16144
-2.16091
-2.16039
-2.15989
-2.1594
-2.15895
-2.15854
-2.15802
-2.15747
-2.15693
-2.15654
-2.15637
-2.15638
-2.28875
-2.28875
-2.2887
-2.2886
-2.28845
-2.28825
-2.28802
-2.28775
-2.28741
-2.28699
-2.28655
-2.2861
-2.28565
-2.28521
-2.28479
-2.2844
-2.28407
-2.28374
-2.2833
-2.2828
-2.28248
-2.28234
-2.28234
-2.41354
-2.41356
-2.41353
-2.41345
-2.41332
-2.41315
-2.41295
-2.41272
-2.41241
-2.41205
-2.41167
-2.41128
-2.4109
-2.41052
-2.41015
-2.40981
-2.4095
-2.40919
-2.40885
-2.40851
-2.40828
-2.40816
-2.40816
-2.53839
-2.53844
-2.5384
-2.53833
-2.53822
-2.53808
-2.5379
-2.53768
-2.53742
-2.53712
-2.5368
-2.53647
-2.53613
-2.53581
-2.53549
-2.5352
-2.53492
-2.53465
-2.53438
-2.53413
-2.53396
-2.53386
-2.53386
-2.66333
-2.66335
-2.66332
-2.66327
-2.66317
-2.66304
-2.66288
-2.66269
-2.66246
-2.6622
-2.66193
-2.66165
-2.66137
-2.66109
-2.66081
-2.66055
-2.66031
-2.66008
-2.65987
-2.65968
-2.65955
-2.65947
-2.65947
-2.7883
-2.78829
-2.78828
-2.78823
-2.78815
-2.78804
-2.78789
-2.78772
-2.78753
-2.78731
-2.78708
-2.78683
-2.78659
-2.78635
-2.78612
-2.78589
-2.78568
-2.78549
-2.78532
-2.78517
-2.78507
-2.78501
-2.78501
-2.91327
-2.91329
-2.91328
-2.91324
-2.91316
-2.91306
-2.91293
-2.91278
-2.91261
-2.91243
-2.91223
-2.91202
-2.91181
-2.9116
-2.9114
-2.91121
-2.91103
-2.91087
-2.91073
-2.91061
-2.91053
-2.91049
-2.91049
-3.03827
-3.03833
-3.03831
-3.03827
-3.0382
-3.03811
-3.038
-3.03787
-3.03772
-3.03756
-3.03738
-3.03721
-3.03703
-3.03685
-3.03668
-3.03651
-3.03636
-3.03623
-3.03611
-3.03602
-3.03595
-3.03592
-3.03592
-3.16333
-3.16336
-3.16336
-3.16332
-3.16326
-3.16318
-3.16308
-3.16297
-3.16284
-3.1627
-3.16255
-3.1624
-3.16224
-3.16209
-3.16194
-3.1618
-3.16167
-3.16156
-3.16146
-3.16139
-3.16134
-3.16131
-3.16132
-3.2884
-3.28844
-3.28843
-3.2884
-3.28834
-3.28827
-3.28818
-3.28808
-3.28797
-3.28785
-3.28772
-3.28759
-3.28745
-3.28732
-3.2872
-3.28708
-3.28697
-3.28687
-3.28679
-3.28673
-3.28669
-3.28667
-3.28668
-3.41348
-3.41356
-3.41353
-3.41349
-3.41344
-3.41338
-3.4133
-3.41321
-3.41311
-3.413
-3.41289
-3.41278
-3.41266
-3.41255
-3.41244
-3.41234
-3.41225
-3.41217
-3.4121
-3.41205
-3.41202
-3.412
-3.41201
-3.53862
-3.53865
-3.53863
-3.5386
-3.53855
-3.53849
-3.53842
-3.53834
-3.53825
-3.53816
-3.53806
-3.53797
-3.53787
-3.53777
-3.53768
-3.53759
-3.53751
-3.53744
-3.53739
-3.53735
-3.53732
-3.53731
-3.53732
-3.66376
-3.66374
-3.66374
-3.66371
-3.66367
-3.66361
-3.66355
-3.66348
-3.66341
-3.66333
-3.66324
-3.66316
-3.66307
-3.66299
-3.66291
-3.66283
-3.66277
-3.66271
-3.66266
-3.66263
-3.66261
-3.6626
-3.66261
-3.78886
-3.78887
-3.78886
-3.78883
-3.78879
-3.78874
-3.78869
-3.78863
-3.78856
-3.78849
-3.78842
-3.78835
-3.78827
-3.7882
-3.78813
-3.78807
-3.78801
-3.78796
-3.78792
-3.7879
-3.78788
-3.78788
-3.78789
-3.91398
-3.914
-3.91398
-3.91396
-3.91392
-3.91388
-3.91383
-3.91378
-3.91372
-3.91366
-3.9136
-3.91354
-3.91347
-3.91341
-3.91335
-3.9133
-3.91325
-3.91321
-3.91318
-3.91316
-3.91315
-3.91315
-3.91316
-4.03912
-4.03914
-4.03912
-4.03909
-4.03906
-4.03902
-4.03898
-4.03894
-4.03889
-4.03884
-4.03878
-4.03873
-4.03867
-4.03862
-4.03857
-4.03852
-4.03848
-4.03845
-4.03842
-4.0384
-4.0384
-4.0384
-4.03842
-4.16425
-4.1643
-4.16426
-4.16422
-4.16419
-4.16417
-4.16413
-4.1641
-4.16406
-4.16401
-4.16397
-4.16392
-4.16387
-4.16383
-4.16378
-4.16374
-4.16371
-4.16368
-4.16366
-4.16365
-4.16364
-4.16365
-4.16367
-4.28943
-4.28943
-4.28939
-4.28936
-4.28933
-4.28931
-4.28929
-4.28926
-4.28922
-4.28919
-4.28915
-4.28911
-4.28907
-4.28903
-4.28899
-4.28896
-4.28893
-4.28891
-4.28889
-4.28888
-4.28888
-4.28889
-4.28891
-4.4146
-4.41458
-4.41452
-4.41448
-4.41447
-4.41446
-4.41444
-4.41442
-4.4144
-4.41437
-4.41434
-4.4143
-4.41427
-4.41424
-4.4142
-4.41418
-4.41415
-4.41413
-4.41412
-4.41412
-4.41412
-4.41413
-4.41415
-4.53977
-4.53973
-4.53966
-4.53963
-4.53962
-4.53962
-4.53961
-4.53959
-4.53957
-4.53955
-4.53953
-4.5395
-4.53947
-4.53944
-4.53941
-4.53939
-4.53937
-4.53935
-4.53934
-4.53934
-4.53935
-4.53936
-4.53938
-4.66494
-4.66488
-4.66483
-4.6648
-4.66479
-4.66479
-4.66478
-4.66477
-4.66476
-4.66474
-4.66472
-4.66469
-4.66467
-4.66464
-4.66462
-4.6646
-4.66458
-4.66457
-4.66457
-4.66456
-4.66457
-4.66459
-4.66461
-4.79013
-4.79002
-4.78999
-4.78998
-4.78998
-4.78997
-4.78996
-4.78995
-4.78994
-4.78992
-4.78991
-4.78989
-4.78987
-4.78985
-4.78983
-4.78981
-4.7898
-4.78979
-4.78978
-4.78978
-4.78979
-4.78981
-4.78983
-4.91526
-4.91516
-4.91515
-4.91515
-4.91515
-4.91515
-4.91514
-4.91513
-4.91513
-4.91512
-4.9151
-4.91509
-4.91507
-4.91505
-4.91504
-4.91502
-4.91501
-4.915
-4.915
-4.915
-4.91501
-4.91503
-4.91505
-5.04033
-5.04027
-5.04026
-5.04029
-5.04031
-5.04031
-5.04032
-5.04032
-5.04032
-5.04031
-5.0403
-5.04029
-5.04027
-5.04026
-5.04024
-5.04023
-5.04022
-5.04021
-5.04021
-5.04021
-5.04022
-5.04024
-5.04027
-5.1654
-5.16532
-5.16536
-5.16542
-5.16546
-5.16549
-5.1655
-5.16551
-5.16551
-5.16551
-5.1655
-5.16549
-5.16548
-5.16547
-5.16545
-5.16544
-5.16543
-5.16542
-5.16542
-5.16542
-5.16543
-5.16545
-5.16549
-5.29041
-5.29038
-5.29049
-5.29058
-5.29064
-5.29068
-5.2907
-5.29071
-5.29071
-5.29071
-5.2907
-5.2907
-5.29069
-5.29068
-5.29067
-5.29066
-5.29064
-5.29063
-5.29063
-5.29063
-5.29063
-5.29066
-5.2907
-5.41542
-5.41549
-5.41567
-5.41578
-5.41585
-5.41588
-5.4159
-5.41591
-5.41591
-5.41591
-5.41591
-5.4159
-5.4159
-5.41589
-5.41588
-5.41587
-5.41586
-5.41585
-5.41584
-5.41583
-5.41583
-5.41586
-5.41592
-5.54042
-5.5407
-5.54091
-5.54101
-5.54107
-5.54109
-5.5411
-5.5411
-5.5411
-5.5411
-5.54109
-5.54109
-5.54109
-5.54108
-5.54107
-5.54106
-5.54105
-5.54104
-5.54102
-5.541
-5.54097
-5.54103
-5.54114
-5.66576
-5.66639
-5.6663
-5.6663
-5.66631
-5.66631
-5.6663
-5.6663
-5.66629
-5.66629
-5.66629
-5.66629
-5.66629
-5.66629
-5.66628
-5.66628
-5.66627
-5.66626
-5.66624
-5.6662
-5.66613
-5.66616
-5.66635
218.479
218.552
218.716
219.019
95.4088
95.4986
95.6334
95.9133
17.1034
17.1237
17.1866
17.3116
-0.684558
-0.685586
-0.685525
-0.686366
-0.901643
-0.90162
-0.901229
-0.900398
-1.0901
-1.08978
-1.08978
-1.09025
-1.26148
-1.26159
-1.26158
-1.2618
-1.39816
-1.39759
-1.39765
-1.39795
-1.52453
-1.5243
-1.52419
-1.52413
-1.65097
-1.65084
-1.65071
-1.65054
-1.77748
-1.77745
-1.77742
-1.77736
-1.90403
-1.90413
-1.9043
-1.90456
-2.03041
-2.03057
-2.03082
-2.03118
-2.15653
-2.15667
-2.15687
-2.15713
-2.28246
-2.28257
-2.28271
-2.28288
-2.40825
-2.40833
-2.40843
-2.40855
-2.53393
-2.53399
-2.53406
-2.53414
-2.65952
-2.65957
-2.65962
-2.65968
-2.78505
-2.78508
-2.78513
-2.78517
-2.91052
-2.91055
-2.91058
-2.91062
-3.03595
-3.03597
-3.036
-3.03603
-3.16134
-3.16136
-3.16138
-3.16141
-3.2867
-3.28672
-3.28674
-3.28676
-3.41203
-3.41205
-3.41207
-3.41209
-3.53734
-3.53736
-3.53738
-3.5374
-3.66263
-3.66265
-3.66267
-3.66269
-3.78791
-3.78793
-3.78795
-3.78797
-3.91318
-3.9132
-3.91322
-3.91324
-4.03844
-4.03846
-4.03847
-4.03849
-4.16369
-4.16371
-4.16372
-4.16374
-4.28893
-4.28895
-4.28897
-4.28899
-4.41417
-4.41419
-4.4142
-4.41422
-4.5394
-4.53942
-4.53944
-4.53946
-4.66463
-4.66465
-4.66466
-4.66468
-4.78985
-4.78987
-4.78989
-4.78991
-4.91508
-4.91509
-4.91511
-4.91513
-5.04029
-5.04031
-5.04033
-5.04035
-5.16551
-5.16553
-5.16555
-5.16556
-5.29073
-5.29075
-5.29077
-5.29078
-5.41595
-5.41597
-5.41599
-5.416
-5.54118
-5.5412
-5.54121
-5.54122
-5.6664
-5.66642
-5.66643
-5.66644
220.416
220.988
221.728
222.617
223.681
224.883
226.159
227.562
229.306
231.69
233.71
235.075
236.238
237.276
237.305
237.515
238.425
238.084
238.341
96.6994
97.3618
98.205
99.2089
100.449
101.899
103.362
104.729
106.203
108.026
110.205
111.914
113.074
113.606
113.552
113.923
114.853
114.716
114.86
17.6216
17.9744
18.4324
18.9757
19.6023
20.3479
21.1575
21.8877
22.4065
22.9185
23.9763
24.9417
25.5528
25.7981
25.7396
25.9387
26.464
26.4506
26.586
-0.691897
-0.697049
-0.656801
-0.595301
-0.600514
-0.625412
-0.646841
-0.656878
-0.654845
-0.663032
-0.704791
-0.755734
-0.805503
-0.752052
-0.704194
-0.69389
-0.701678
-0.697021
-0.706459
-0.898572
-0.897616
-0.891478
-0.885008
-0.882732
-0.885771
-0.889754
-0.893591
-0.897808
-0.903636
-0.913151
-0.925747
-0.932113
-0.922588
-0.918254
-0.914295
-0.913756
-0.915114
-0.917461
-1.09182
-1.09184
-1.09659
-1.10702
-1.11098
-1.11424
-1.11721
-1.12022
-1.12349
-1.12838
-1.13474
-1.13953
-1.1383
-1.13643
-1.13516
-1.13394
-1.13347
-1.13241
-1.13088
-1.26236
-1.26244
-1.2655
-1.26751
-1.27011
-1.26992
-1.26941
-1.2699
-1.27135
-1.27258
-1.27286
-1.27233
-1.27523
-1.28262
-1.28591
-1.28774
-1.28834
-1.28762
-1.28569
-1.39824
-1.3985
-1.39869
-1.39821
-1.39741
-1.39656
-1.39618
-1.39722
-1.39846
-1.39949
-1.40027
-1.40126
-1.40467
-1.40849
-1.41088
-1.41248
-1.41336
-1.41362
-1.41317
-1.52404
-1.52415
-1.52452
-1.52467
-1.52471
-1.52451
-1.52545
-1.52757
-1.52916
-1.53001
-1.53042
-1.53098
-1.53221
-1.53373
-1.53567
-1.53708
-1.53791
-1.53817
-1.53777
-1.65033
-1.65033
-1.65069
-1.65135
-1.65227
-1.65366
-1.65597
-1.65753
-1.65851
-1.65935
-1.65996
-1.66003
-1.65918
-1.65937
-1.66065
-1.6618
-1.66249
-1.66271
-1.66244
-1.77729
-1.77739
-1.77755
-1.77818
-1.77963
-1.7819
-1.78377
-1.78414
-1.78443
-1.78529
-1.78644
-1.78677
-1.78572
-1.7856
-1.7861
-1.78657
-1.78706
-1.78727
-1.78722
-1.90495
-1.90502
-1.90511
-1.90547
-1.90647
-1.90793
-1.90897
-1.90946
-1.90995
-1.91063
-1.91137
-1.91193
-1.91213
-1.91187
-1.91134
-1.91119
-1.9116
-1.91186
-1.91203
-2.03185
-2.03229
-2.03252
-2.03269
-2.03279
-2.03352
-2.03426
-2.0348
-2.03533
-2.0359
-2.03646
-2.03704
-2.03754
-2.03728
-2.03641
-2.03611
-2.03621
-2.03644
-2.0368
-2.15766
-2.15838
-2.15872
-2.15862
-2.15865
-2.1591
-2.15964
-2.16012
-2.16059
-2.16106
-2.16153
-2.16197
-2.1623
-2.16238
-2.16208
-2.16171
-2.16141
-2.16138
-2.16166
-2.28322
-2.28368
-2.28397
-2.28408
-2.28424
-2.28459
-2.28501
-2.28542
-2.28584
-2.28625
-2.28665
-2.28701
-2.28732
-2.28758
-2.28756
-2.2873
-2.28697
-2.28657
-2.28683
-2.40878
-2.4091
-2.40935
-2.40952
-2.40972
-2.41003
-2.41038
-2.41074
-2.4111
-2.41146
-2.4118
-2.41212
-2.41238
-2.41256
-2.41261
-2.41245
-2.4121
-2.41159
-2.41197
-2.53431
-2.53455
-2.53477
-2.53496
-2.53517
-2.53544
-2.53574
-2.53605
-2.53637
-2.53669
-2.537
-2.53728
-2.53752
-2.53769
-2.53775
-2.53767
-2.53749
-2.53718
-2.53757
-2.6598
-2.66
-2.6602
-2.66039
-2.66059
-2.66082
-2.66109
-2.66137
-2.66165
-2.66194
-2.66223
-2.6625
-2.66275
-2.66296
-2.66313
-2.66326
-2.66342
-2.66366
-2.66381
-2.78527
-2.78543
-2.78561
-2.78579
-2.78598
-2.78619
-2.78643
-2.78668
-2.78694
-2.78721
-2.78748
-2.78775
-2.78802
-2.78829
-2.78858
-2.78893
-2.78942
-2.79027
-2.79009
-2.9107
-2.91083
-2.91099
-2.91116
-2.91134
-2.91153
-2.91175
-2.91198
-2.91223
-2.91248
-2.91274
-2.91301
-2.91329
-2.9136
-2.91396
-2.91441
-2.915
-2.91588
-2.9158
-3.0361
-3.03621
-3.03635
-3.03651
-3.03667
-3.03686
-3.03706
-3.03728
-3.03751
-3.03774
-3.03799
-3.03826
-3.03854
-3.03885
-3.03921
-3.03966
-3.04017
-3.04067
-3.04062
-3.16147
-3.16157
-3.1617
-3.16184
-3.16199
-3.16217
-3.16235
-3.16255
-3.16277
-3.163
-3.16323
-3.16349
-3.16376
-3.16405
-3.16438
-3.16475
-3.16512
-3.16538
-3.16524
-3.28681
-3.28691
-3.28702
-3.28715
-3.2873
-3.28746
-3.28763
-3.28782
-3.28802
-3.28824
-3.28846
-3.2887
-3.28895
-3.28922
-3.2895
-3.28978
-3.29002
-3.29013
-3.28995
-3.41214
-3.41222
-3.41233
-3.41245
-3.41259
-3.41274
-3.4129
-3.41308
-3.41327
-3.41347
-3.41368
-3.4139
-3.41412
-3.41436
-3.41459
-3.4148
-3.41494
-3.41495
-3.41472
-3.53744
-3.53753
-3.53762
-3.53774
-3.53787
-3.53801
-3.53816
-3.53833
-3.5385
-3.53869
-3.53888
-3.53908
-3.53929
-3.53949
-3.53968
-3.53983
-3.53991
-3.53986
-3.53961
-3.66273
-3.66281
-3.6629
-3.66301
-3.66313
-3.66327
-3.66341
-3.66357
-3.66373
-3.6639
-3.66408
-3.66427
-3.66445
-3.66462
-3.66478
-3.6649
-3.66494
-3.66487
-3.66465
-3.78801
-3.78809
-3.78817
-3.78827
-3.78839
-3.78851
-3.78865
-3.7888
-3.78895
-3.78911
-3.78928
-3.78944
-3.78961
-3.78976
-3.78989
-3.78999
-3.79002
-3.78996
-3.78977
-3.91328
-3.91335
-3.91343
-3.91353
-3.91364
-3.91375
-3.91388
-3.91402
-3.91416
-3.91431
-3.91447
-3.91462
-3.91477
-3.9149
-3.91501
-3.91509
-3.91512
-3.91506
-3.9149
-4.03853
-4.0386
-4.03868
-4.03877
-4.03887
-4.03899
-4.03911
-4.03923
-4.03937
-4.03951
-4.03965
-4.03979
-4.03992
-4.04004
-4.04014
-4.0402
-4.04021
-4.04014
-4.04
-4.16378
-4.16385
-4.16392
-4.16401
-4.16411
-4.16421
-4.16432
-4.16445
-4.16457
-4.1647
-4.16483
-4.16496
-4.16508
-4.16519
-4.16526
-4.1653
-4.16527
-4.16517
-4.16499
-4.28902
-4.28909
-4.28916
-4.28924
-4.28933
-4.28943
-4.28954
-4.28965
-4.28977
-4.28989
-4.29001
-4.29013
-4.29024
-4.29033
-4.2904
-4.29041
-4.29034
-4.2902
-4.28994
-4.41426
-4.41432
-4.41439
-4.41447
-4.41455
-4.41464
-4.41474
-4.41485
-4.41496
-4.41508
-4.41519
-4.41531
-4.41541
-4.41549
-4.41555
-4.41555
-4.41546
-4.4153
-4.41501
-4.53949
-4.53955
-4.53961
-4.53968
-4.53976
-4.53985
-4.53994
-4.54004
-4.54015
-4.54026
-4.54037
-4.54048
-4.54058
-4.54066
-4.54072
-4.54072
-4.54065
-4.54048
-4.54021
-4.66472
-4.66477
-4.66483
-4.6649
-4.66497
-4.66505
-4.66514
-4.66523
-4.66533
-4.66544
-4.66554
-4.66565
-4.66575
-4.66584
-4.66591
-4.66593
-4.66587
-4.66571
-4.66543
-4.78994
-4.78999
-4.79005
-4.79011
-4.79018
-4.79025
-4.79033
-4.79042
-4.79051
-4.79061
-4.79071
-4.79082
-4.79093
-4.79103
-4.79111
-4.79115
-4.79112
-4.79096
-4.79065
-4.91516
-4.91521
-4.91526
-4.91532
-4.91538
-4.91545
-4.91552
-4.9156
-4.91568
-4.91578
-4.91588
-4.91599
-4.9161
-4.91622
-4.91632
-4.9164
-4.9164
-4.91624
-4.91591
-5.04038
-5.04042
-5.04047
-5.04052
-5.04057
-5.04063
-5.0407
-5.04077
-5.04085
-5.04093
-5.04103
-5.04114
-5.04126
-5.0414
-5.04153
-5.04165
-5.0417
-5.04153
-5.04117
-5.16559
-5.16563
-5.16568
-5.16572
-5.16577
-5.16582
-5.16587
-5.16593
-5.166
-5.16608
-5.16617
-5.16628
-5.16641
-5.16656
-5.16673
-5.16691
-5.16702
-5.16685
-5.16642
-5.29081
-5.29084
-5.29088
-5.29091
-5.29095
-5.29099
-5.29104
-5.29109
-5.29115
-5.29122
-5.2913
-5.2914
-5.29153
-5.29169
-5.2919
-5.29216
-5.29239
-5.29224
-5.29179
-5.41602
-5.41605
-5.41608
-5.4161
-5.41613
-5.41617
-5.4162
-5.41624
-5.41629
-5.41634
-5.41641
-5.41649
-5.4166
-5.41676
-5.417
-5.41737
-5.41783
-5.41777
-5.41739
-5.54124
-5.54125
-5.54127
-5.54129
-5.54131
-5.54133
-5.54135
-5.54138
-5.54141
-5.54145
-5.54149
-5.54155
-5.54163
-5.54175
-5.54196
-5.54241
-5.54323
-5.54349
-5.54345
-5.66644
-5.66645
-5.66646
-5.66647
-5.66648
-5.6665
-5.66651
-5.66652
-5.66654
-5.66656
-5.66657
-5.6666
-5.66663
-5.66669
-5.66681
-5.66714
-5.66806
-5.66911
-5.67007
)
;

boundaryField
{
    leftWall
    {
        type            calculated;
        value           nonuniform List<scalar> 
50
(
740.26
681.421
622.611
563.833
505.089
446.379
387.705
329.067
237.447
113.275
25.5835
-0.701966
-0.921389
-1.13744
-1.29143
-1.41769
-1.5413
-1.66567
-1.79014
-1.91469
-2.03931
-2.164
-2.28875
-2.41354
-2.53839
-2.66333
-2.7883
-2.91327
-3.03827
-3.16333
-3.2884
-3.41348
-3.53862
-3.66376
-3.78886
-3.91398
-4.03912
-4.16425
-4.28943
-4.4146
-4.53977
-4.66494
-4.79013
-4.91526
-5.04033
-5.1654
-5.29041
-5.41542
-5.54042
-5.66576
)
;
    }
    rightWall
    {
        type            calculated;
        value           nonuniform List<scalar> 
50
(
739.636
680.885
622.283
563.828
505.349
446.806
388.224
329.704
238.341
114.86
26.586
-0.706459
-0.917461
-1.13088
-1.28569
-1.41317
-1.53777
-1.66244
-1.78722
-1.91203
-2.0368
-2.16166
-2.28683
-2.41197
-2.53757
-2.66381
-2.79009
-2.9158
-3.04062
-3.16524
-3.28995
-3.41472
-3.53961
-3.66465
-3.78977
-3.9149
-4.04
-4.16499
-4.28994
-4.41501
-4.54021
-4.66543
-4.79065
-4.91591
-5.04117
-5.16642
-5.29179
-5.41739
-5.54345
-5.67007
)
;
    }
    lowerWall
    {
        type            calculated;
        value           nonuniform List<scalar> 
62
(
769.69
769.582
769.328
768.919
768.361
767.664
766.837
765.895
764.855
763.735
762.558
761.344
760.113
758.877
757.651
756.453
755.336
754.375
753.55
752.883
752.505
752.382
752.292
722.876
663.96
605.025
546.077
487.115
428.138
369.123
310.047
281.076
281.149
281.313
281.616
725.848
667.345
608.794
550.192
491.319
432.19
372.982
313.708
755.062
755.786
756.386
757.062
757.8
758.487
759.318
760.212
761.089
761.896
762.888
764.058
765.084
766.226
767.135
768.036
768.599
768.909
769.021
)
;
    }
    atmosphere
    {
        type            calculated;
        value           nonuniform List<scalar> 
46
(
-5.72912
-5.72904
-5.72904
-5.72904
-5.72904
-5.72904
-5.72904
-5.72904
-5.72904
-5.72904
-5.72904
-5.72904
-5.72904
-5.72904
-5.72904
-5.72904
-5.72904
-5.72904
-5.72904
-5.72904
-5.72904
-5.72904
-5.72904
-5.72904
-5.72904
-5.72905
-5.72905
-5.72905
-5.72906
-5.72906
-5.72907
-5.72908
-5.72909
-5.72909
-5.7291
-5.72911
-5.72912
-5.72913
-5.72913
-5.72914
-5.72914
-5.72914
-5.72913
-5.72911
-5.72907
-5.73471
)
;
    }
    defaultFaces
    {
        type            empty;
    }
}


// ************************************************************************* //
