/*--------------------------------*- C++ -*----------------------------------*\
  =========                 |
  \\      /  F ield         | OpenFOAM: The Open Source CFD Toolbox
   \\    /   O peration     | Website:  https://openfoam.org
    \\  /    A nd           | Version:  9
     \\/     M anipulation  |
\*---------------------------------------------------------------------------*/
FoamFile
{
    format      ascii;
    class       volScalarField;
    location    "6.52";
    object      epsilon;
}
// * * * * * * * * * * * * * * * * * * * * * * * * * * * * * * * * * * * * * //

dimensions      [0 2 -3 0 0 0 0];

internalField   nonuniform List<scalar> 
2268
(
0.000220623
0.00115584
0.00203879
0.0028382
0.00355759
0.00420632
0.00479527
0.00533193
0.00581883
0.00625941
0.00666351
0.00704544
0.00740656
0.00771505
0.00788437
0.00774343
0.00709932
0.0060829
0.00497887
0.00403416
0.00328312
0.00224497
0.000685191
0.000447518
0.000771486
0.00113636
0.00147811
0.00178838
0.0020679
0.00231957
0.00254638
0.00275092
0.00293618
0.00310574
0.00326185
0.00340217
0.00351483
0.00357317
0.00353221
0.0033624
0.00311589
0.00277019
0.00238253
0.00195437
0.00149838
0.00110939
0.00075889
0.000819219
0.00105663
0.00129724
0.00152049
0.00172275
0.00190452
0.00206752
0.00221392
0.00234621
0.00246666
0.00257591
0.00267153
0.00274589
0.00278404
0.00276444
0.00267855
0.00255066
0.002358
0.00212526
0.00188027
0.0016759
0.00183386
0.00106543
0.000920423
0.00108526
0.00127542
0.00145766
0.00162462
0.00177518
0.00191026
0.00203157
0.00214114
0.00224068
0.00233049
0.00240849
0.00246909
0.00250246
0.0024961
0.00244725
0.00236855
0.00224797
0.00210751
0.00199179
0.001989
0.00266432
0.00136035
0.00103815
0.00114892
0.0013049
0.00146058
0.00160528
0.0017366
0.00185484
0.00196133
0.00205773
0.00214546
0.00222477
0.00229403
0.00234906
0.00238303
0.00238804
0.00236294
0.00231537
0.00224401
0.00217439
0.00216701
0.00237283
0.00374694
0.00164671
0.00116382
0.00122995
0.00135942
0.00149495
0.00162296
0.00174004
0.00184608
0.0019421
0.00202946
0.00210939
0.00218226
0.00224686
0.00230009
0.00233717
0.00235284
0.00234629
0.00232337
0.00229095
0.00227989
0.00237109
0.00281399
0.00518113
0.00193043
0.00129565
0.00132261
0.00142989
0.00154859
0.00166254
0.00176767
0.0018636
0.00195118
0.00203151
0.00210572
0.00217429
0.00223641
0.00228984
0.00233121
0.00235701
0.00236641
0.00236522
0.00236528
0.00240224
0.00257988
0.00328838
0.0072677
0.00222726
0.00143503
0.0014254
0.00151302
0.00161656
0.00171755
0.00181155
0.00189816
0.00197816
0.00205245
0.00212204
0.0021875
0.00224837
0.00230305
0.00234915
0.00238413
0.00240763
0.00242578
0.002453
0.0025262
0.00276254
0.00370751
0.0119771
0.000755414
0.00303559
0.00475004
0.00565827
0.00616041
0.0063753
0.00656946
0.00677198
0.00678651
0.00610293
0.00488739
0.00372811
0.00272849
0.00275997
0.00354447
0.0034953
0.00226864
0.00127181
0.000398609
0.000811756
0.00170972
0.00232964
0.00268514
0.00289199
0.00300327
0.00307847
0.00312819
0.0030981
0.00289179
0.0026096
0.00222733
0.00185053
0.00172359
0.0017119
0.0015936
0.00118273
0.000799383
0.000471082
0.00122243
0.00167186
0.00200775
0.00219923
0.00231527
0.00238494
0.00243104
0.00245223
0.00241319
0.00227957
0.0021232
0.0019001
0.00166301
0.00152408
0.00143271
0.0013114
0.00104267
0.0007764
0.000618968
0.00182024
0.00187126
0.00200279
0.00208222
0.00213707
0.00217491
0.00220137
0.00220736
0.00216286
0.0020515
0.00192982
0.00176854
0.00159224
0.00146756
0.00136725
0.00124855
0.00103313
0.000814013
0.000761669
0.00259316
0.00218715
0.00210664
0.00208539
0.00208795
0.00209738
0.00210638
0.0021002
0.00205081
0.00194935
0.00184139
0.00171133
0.00157142
0.00146457
0.00136677
0.00125251
0.00106762
0.00088053
0.000923727
0.0036516
0.00257284
0.00225562
0.00213991
0.00209592
0.00207929
0.00207171
0.0020544
0.00200062
0.00190533
0.00180664
0.00169678
0.00158298
0.00149363
0.00139389
0.00128303
0.00111936
0.000964504
0.00111426
0.00535511
0.00298401
0.00241443
0.00221608
0.00213223
0.0020921
0.00206864
0.00204069
0.00198312
0.00189319
0.00180626
0.00171341
0.00162065
0.00154355
0.00143469
0.00132429
0.00117577
0.00105675
0.00134656
0.00910949
0.00333337
0.00255296
0.00229712
0.0021824
0.00212197
0.00208372
0.00204564
0.00198521
0.00190139
0.0018296
0.00175497
0.00167849
0.00160097
0.00148248
0.00136987
0.00123379
0.00115278
0.00164696
0.00265667
0.00164835
0.0015932
0.00165593
0.00173866
0.00182067
0.00189782
0.00197033
0.00203909
0.00210481
0.00216824
0.00222995
0.00228996
0.00234742
0.00240061
0.0024481
0.00249052
0.00253464
0.0025953
0.00270394
0.00295281
0.00362039
0.00573628
0.00326856
0.00197147
0.00187039
0.00190542
0.00195929
0.00201106
0.00206019
0.00210977
0.00216095
0.00221413
0.00226918
0.0023261
0.00238525
0.00244581
0.00250636
0.00256539
0.00262352
0.00268597
0.00276324
0.0028753
0.00307093
0.00345303
0.0042076
0.00393836
0.00236377
0.00222833
0.00223518
0.00225367
0.00226256
0.00227129
0.00228985
0.00231741
0.00235401
0.00239799
0.00244792
0.00250412
0.0025663
0.00263273
0.00270051
0.00276816
0.00283856
0.00291908
0.00302019
0.00316017
0.00337251
0.00368098
0.00486536
0.00284893
0.00269581
0.00265414
0.00262833
0.00258101
0.00253601
0.00251827
0.0025151
0.00252957
0.00255879
0.00259794
0.00264801
0.00271033
0.00278232
0.00285864
0.0029314
0.00300013
0.0030822
0.00317551
0.00327167
0.00338754
0.00353558
0.00616744
0.00323816
0.00310492
0.00282489
0.00273198
0.00268133
0.00264211
0.00264039
0.00265188
0.00267568
0.00271309
0.00275773
0.00281161
0.00288266
0.00296427
0.0030535
0.00313449
0.00318212
0.00325892
0.00334333
0.0033769
0.00342694
0.00348168
0.00641061
0.00336366
0.00302266
0.00284037
0.00284659
0.00278845
0.00267531
0.00265086
0.00267298
0.00272156
0.0027856
0.00285534
0.00293446
0.00302716
0.00311383
0.00318836
0.00324187
0.00325451
0.00328064
0.00333438
0.00336716
0.00340236
0.00344794
0.00707025
0.00333659
0.00297324
0.00279233
0.00275246
0.00271973
0.00267769
0.00267312
0.0026966
0.00274178
0.00280526
0.00287629
0.00295204
0.00303167
0.00309869
0.00315038
0.00318042
0.00319929
0.00322936
0.00326558
0.00329352
0.00332629
0.00335549
0.00747124
0.00314718
0.00277602
0.00268873
0.00265054
0.00264343
0.00265513
0.00268188
0.00272091
0.00276728
0.00282336
0.0028841
0.00294079
0.00299401
0.00304647
0.00309419
0.00313237
0.00316339
0.00319522
0.0032231
0.00324393
0.00326413
0.00327548
0.00176861
0.00295224
0.00264689
0.00259246
0.0025771
0.00258921
0.00262474
0.00267167
0.00272406
0.00277852
0.00283544
0.00289123
0.00293919
0.00297988
0.0030204
0.00306271
0.00310392
0.00313966
0.00316905
0.00319342
0.0032136
0.00322662
0.00322186
0.00748538
0.00287513
0.00257549
0.00252134
0.00252201
0.00254926
0.00259622
0.00265266
0.00271269
0.00277341
0.00283293
0.00288709
0.00293173
0.00296903
0.00300632
0.00304705
0.00308697
0.00312158
0.00314997
0.00317383
0.00319046
0.00319506
0.00318435
0.00176782
0.00288309
0.00255112
0.00248395
0.00248778
0.00252144
0.00257243
0.00263191
0.00269489
0.00275836
0.00281916
0.00287334
0.00291891
0.00295864
0.00299781
0.00303838
0.00307699
0.00311097
0.00313962
0.00316219
0.00317485
0.00317563
0.00316534
0.00748011
0.00293275
0.00255644
0.00247305
0.00247247
0.00250582
0.00255639
0.00261555
0.00267865
0.00274235
0.00280329
0.00285846
0.00290717
0.00295139
0.00299399
0.0030357
0.00307444
0.00310876
0.00313788
0.00315992
0.00317193
0.00317362
0.00316672
0.00176942
0.00297598
0.00257925
0.00247926
0.00247121
0.00250091
0.00254905
0.00260655
0.00266845
0.00273124
0.00279197
0.00284866
0.00290092
0.00294962
0.00299595
0.00303993
0.00308033
0.00311618
0.00314666
0.00317
0.00318429
0.0031897
0.00318772
0.00176921
0.00304121
0.00260918
0.00249544
0.00247957
0.00250456
0.00254962
0.00260508
0.00266551
0.0027274
0.00278834
0.00284689
0.00290252
0.00295531
0.00300547
0.00305266
0.00309601
0.00313476
0.00316802
0.00319448
0.00321295
0.00322359
0.00322739
0.00176817
0.00309867
0.00264305
0.00251761
0.00249443
0.00251471
0.00255672
0.00261028
0.00266965
0.00273135
0.00279328
0.00285413
0.00291318
0.00297004
0.00302437
0.00307566
0.00312315
0.00316611
0.00320371
0.0032349
0.00325894
0.00327585
0.00328623
0.00748243
0.00316548
0.00267944
0.00254352
0.00251374
0.0025298
0.00256923
0.00262143
0.00268051
0.00274302
0.00280686
0.0028707
0.00293364
0.00299502
0.00305425
0.00311066
0.00316352
0.00321207
0.00325551
0.00329299
0.00332393
0.00334824
0.00336616
0.00176735
0.0032071
0.0027171
0.00257179
0.00253624
0.00254885
0.00258647
0.00263817
0.00269797
0.00276234
0.00282913
0.00289688
0.00296457
0.00303138
0.00309657
0.00315937
0.003219
0.00327467
0.00332559
0.00337098
0.00341031
0.00344331
0.00346996
0.00748869
0.00327502
0.00275567
0.00260171
0.00256127
0.00257133
0.00260813
0.00266041
0.00272206
0.00278947
0.00286036
0.0029332
0.00300684
0.00308036
0.0031529
0.00322363
0.00329169
0.00335625
0.00341648
0.0034716
0.003521
0.00356424
0.00360104
0.00748373
0.00333146
0.00279501
0.00263293
0.0025885
0.00259708
0.00263418
0.00268825
0.00275302
0.00282477
0.00290114
0.00298049
0.00306159
0.00314343
0.00322505
0.00330556
0.00338402
0.00345952
0.00353116
0.00359807
0.00365952
0.00371486
0.00376357
0.00748432
0.00338857
0.00283469
0.00266526
0.00261785
0.0026261
0.00266477
0.00272198
0.00279128
0.00286886
0.00295228
0.00303983
0.0031302
0.0032223
0.0033151
0.00340761
0.0034988
0.00358766
0.00367316
0.0037543
0.00383014
0.00389984
0.00396261
0.00748925
0.00344047
0.00287487
0.00269866
0.00264936
0.00265856
0.00270019
0.002762
0.0028374
0.0029225
0.0030148
0.00311252
0.00321432
0.003319
0.00342548
0.00353264
0.00363935
0.00374444
0.00384673
0.00394501
0.00403812
0.00412495
0.00420445
0.00747496
0.00350613
0.00291537
0.00273311
0.00268317
0.00269473
0.00274082
0.00280885
0.00289211
0.00298664
0.00308991
0.00320013
0.00331587
0.0034359
0.00355902
0.00368402
0.0038096
0.00393441
0.00405702
0.00417601
0.0042899
0.00439727
0.00449678
0.00747021
0.00356785
0.0029561
0.00276867
0.00271952
0.00273496
0.00278713
0.00286315
0.00295622
0.00306236
0.00317904
0.00330443
0.0034371
0.00357576
0.0037191
0.00386576
0.00401426
0.00416301
0.0043103
0.00445435
0.00459335
0.0047255
0.00484907
0.00748841
0.00362851
0.0029965
0.00280539
0.00275869
0.00277966
0.00283967
0.00292563
0.00303069
0.00315091
0.00328376
0.00342748
0.0035806
0.00374179
0.00390963
0.0040826
0.00425898
0.00443687
0.00461418
0.00478871
0.00495818
0.00512032
0.00527295
0.00753263
0.00368918
0.00303537
0.00284342
0.00280104
0.00282929
0.00289903
0.00299705
0.00311654
0.00325363
0.00340588
0.00357159
0.00374933
0.00393771
0.00413524
0.00434019
0.00455054
0.00476398
0.00497794
0.00518965
0.00539624
0.00559484
0.00578267
0.00763295
0.00373486
0.00307333
0.00288329
0.002847
0.00288432
0.0029658
0.00307822
0.00321486
0.00337199
0.00354735
0.00373933
0.00394662
0.00416782
0.00440134
0.0046452
0.00489703
0.005154
0.00541287
0.00567014
0.00592213
0.00616516
0.00639573
0.00772845
0.00377833
0.00311185
0.00292545
0.00289694
0.0029452
0.00304059
0.00316995
0.00332676
0.00350753
0.00371024
0.00393352
0.00417621
0.00443698
0.00471416
0.0050055
0.00530815
0.00561859
0.00593273
0.00624604
0.00655373
0.0068511
0.00713366
0.00781989
0.00382106
0.00315137
0.00297017
0.00295114
0.0030123
0.00312392
0.003273
0.00345333
0.00366177
0.00389671
0.00415714
0.00444218
0.00475066
0.00508086
0.00543024
0.00579536
0.00617179
0.00655424
0.00693677
0.0073131
0.00767707
0.00802289
0.00790737
0.00386309
0.00319193
0.00301759
0.00300982
0.00308595
0.00321625
0.00338804
0.00359554
0.00383618
0.00410889
0.00441326
0.00474886
0.00511484
0.00550952
0.00593004
0.00637223
0.00683043
0.00729771
0.0077662
0.0082274
0.0086731
0.0090958
0.00798845
0.00390382
0.00323339
0.00306771
0.00307309
0.00316635
0.00331791
0.00351557
0.0037542
0.00403199
0.00434873
0.00470485
0.00510067
0.00553591
0.00600905
0.00651699
0.0070546
0.00761466
0.00818784
0.00876344
0.00933007
0.00987664
0.010393
0.0080553
0.00394197
0.00327543
0.00312051
0.00314106
0.00325365
0.00342909
0.00365587
0.00392978
0.00425008
0.00461777
0.00503451
0.00550181
0.00602032
0.006589
0.00720454
0.00786072
0.00854812
0.00925427
0.00996442
0.0106628
0.0113343
0.0119648
0.00809802
0.00397698
0.00331805
0.00317607
0.00321381
0.00334793
0.00354985
0.00380898
0.00412235
0.00449075
0.00491684
0.00540409
0.00595576
0.00657402
0.00725885
0.00800701
0.00881106
0.00965872
0.010533
0.0114133
0.0122774
0.0131042
0.0138743
0.00811457
0.00401041
0.00336107
0.00323424
0.00329138
0.00344921
0.00367999
0.00397444
0.00433129
0.00475334
0.00524559
0.00581403
0.00646455
0.00720175
0.00802747
0.00893912
0.00992808
0.0109784
0.0120669
0.0131642
0.0142384
0.0152593
0.0162005
0.00808554
0.00403602
0.0034032
0.00329531
0.0033744
0.00355786
0.00381933
0.00415141
0.00455512
0.00503595
0.00560197
0.0062627
0.00702781
0.00790569
0.0089014
0.0100142
0.0112346
0.0125423
0.0139053
0.0152819
0.0166251
0.0178909
0.0190426
0.00800114
0.00404957
0.00344497
0.00336145
0.00346501
0.00367515
0.00396793
0.00433866
0.00479138
0.00533499
0.00598158
0.00674534
0.00764128
0.0086835
0.0098824
0.011241
0.0127503
0.0143853
0.0161022
0.0178413
0.0195335
0.0211124
0.0225251
0.00784149
0.00404953
0.00349157
0.00343925
0.00356853
0.00380412
0.00412639
0.0045345
0.00503627
0.00564473
0.00637689
0.00725293
0.00829508
0.00952566
0.0109636
0.0126189
0.0144857
0.0165348
0.0187085
0.0209225
0.0230746
0.0250618
0.0268031
0.00757369
0.00404357
0.0035613
0.00354548
0.00369637
0.00395065
0.00429599
0.00473655
0.00528431
0.00595677
0.00677652
0.00777095
0.00897158
0.0104121
0.012124
0.0141293
0.0164302
0.0189964
0.021757
0.0245978
0.0273692
0.0299064
0.0320716
0.00747064
0.00407833
0.00371117
0.00371967
0.00387044
0.00412422
0.00447828
0.0049411
0.00552777
0.0062596
0.00716468
0.00827845
0.00964361
0.0113084
0.0133219
0.0157247
0.0185345
0.0217294
0.0252329
0.0289056
0.032538
0.0358544
0.0385843
0.00748242
0.00452391
0.00413214
0.00405091
0.00412749
0.00433633
0.00467281
0.00514161
0.00575596
0.00653832
0.00752115
0.00874789
0.0102735
0.0121634
0.0144888
0.0173159
0.0206895
0.0246123
0.029029
0.0338067
0.0386868
0.0431962
0.0466978
0.0160695
0.00743727
0.005406
0.00471358
0.00451314
0.0045918
0.00487195
0.00532625
0.00595445
0.00677499
0.00782226
0.00914651
0.0108146
0.0129098
0.0155276
0.0187656
0.0227071
0.0274062
0.032882
0.0391042
0.0458748
0.0524359
0.0569697
0.155154
0.0260027
0.00931447
0.00596422
0.00503815
0.00486653
0.00505219
0.0054754
0.00610512
0.00694986
0.00804311
0.00943972
0.0112161
0.0134708
0.0163213
0.0198959
0.0243231
0.0297325
0.036293
0.0442725
0.0539508
0.0646932
0.0703255
1.53825
0.127153
0.0193604
0.0077356
0.00554375
0.00507418
0.00516829
0.00556227
0.00618826
0.00704411
0.00816125
0.00959665
0.0114321
0.0137749
0.0167561
0.0205243
0.0252413
0.0311066
0.0384638
0.048069
0.0616387
0.0830124
0.0881902
0.0151625
0.0115813
0.0109265
0.0128495
0.00520453
0.00523814
0.00514596
0.00497172
0.00391335
0.00396905
0.00393827
0.00383067
0.00364743
0.00367525
0.00364283
0.00356523
0.00353071
0.00354662
0.00352051
0.00345849
0.00352749
0.00353888
0.0034965
0.00343586
0.0033923
0.0033933
0.00336759
0.00333236
0.00327077
0.00326362
0.00325125
0.00323285
0.00320517
0.00319192
0.00317794
0.00316261
0.00316742
0.00315488
0.00314119
0.00312648
0.00315152
0.00314127
0.00312964
0.00311677
0.00315663
0.00314884
0.00313958
0.00312894
0.00318169
0.00317646
0.00316968
0.00316138
0.00322577
0.00322333
0.00321924
0.00321354
0.00328948
0.00329011
0.00328904
0.00328627
0.00337491
0.00337901
0.00338132
0.00338186
0.003485
0.00349306
0.00349924
0.00350353
0.00362336
0.00363599
0.00364662
0.00365522
0.00379437
0.00381232
0.00382812
0.00384174
0.00400339
0.0040276
0.00404948
0.00406899
0.00425706
0.00428867
0.00431776
0.00434425
0.00456351
0.00460395
0.00464162
0.00467641
0.00493274
0.00498376
0.00503172
0.0050764
0.005377
0.00544076
0.005501
0.00555754
0.00591131
0.00599037
0.00606536
0.00613609
0.00655406
0.0066515
0.0067442
0.00683192
0.00732776
0.00744731
0.00756124
0.00766927
0.00825999
0.0084061
0.00854542
0.00867762
0.0093848
0.00956275
0.00973232
0.00989311
0.0107444
0.0109603
0.0111657
0.0113601
0.012391
0.0126521
0.0128996
0.0131331
0.0143899
0.0147043
0.0150009
0.0152794
0.0168225
0.0171994
0.0175526
0.0178822
0.019791
0.0202405
0.0206582
0.0210446
0.023423
0.0239563
0.0244463
0.0248943
0.0278783
0.0285075
0.0290766
0.0295892
0.0333577
0.034095
0.0347482
0.0353245
0.0401192
0.0409748
0.0417112
0.0423429
0.0485118
0.0494827
0.0502856
0.0509485
0.0590319
0.0600711
0.0608834
0.0615204
0.0723848
0.0733294
0.0740109
0.0745097
0.0894175
0.089889
0.0901869
0.0903841
0.00519943
0.00335303
0.00270233
0.00241686
0.00226999
0.00218371
0.00212498
0.00207274
0.00200997
0.00193858
0.00188994
0.00184567
0.00178454
0.00168825
0.00155769
0.00144146
0.00132845
0.00129676
0.00209753
0.00400323
0.00322361
0.00279461
0.0025459
0.00239213
0.00228991
0.00221569
0.00215386
0.00209448
0.00203867
0.00200329
0.00197868
0.00191602
0.00179386
0.00165901
0.00155065
0.00147789
0.0015268
0.00271992
0.00353384
0.00314636
0.00286636
0.00265954
0.00251538
0.00241454
0.00233974
0.00228031
0.00222961
0.00218565
0.00215724
0.00213894
0.00206133
0.00191636
0.00177236
0.00167309
0.00163656
0.00175023
0.00305789
0.00338984
0.00315727
0.00296904
0.00277952
0.00265243
0.00256841
0.0025056
0.00245838
0.00242427
0.00239606
0.00238113
0.0023757
0.00226302
0.00208215
0.0019074
0.00180778
0.00180593
0.00201507
0.00341433
0.00332711
0.00316489
0.00302507
0.00288321
0.00278955
0.0027118
0.00264489
0.00260343
0.00257549
0.00252391
0.00245438
0.00241161
0.00234869
0.00220458
0.00204456
0.00193228
0.00194627
0.00218364
0.00415918
0.00333274
0.00322743
0.00312628
0.00297361
0.00286082
0.00277552
0.00270449
0.00265247
0.00261234
0.00255647
0.00247064
0.00242564
0.00235458
0.00222821
0.00209778
0.0020249
0.00205975
0.00235447
0.00495018
0.00327218
0.00320169
0.00312395
0.00300145
0.00290575
0.0028403
0.00277863
0.0027253
0.00266764
0.00259511
0.00250212
0.00241425
0.00232284
0.00222094
0.00213715
0.00209499
0.00213691
0.00247547
0.00525643
0.00319574
0.0031397
0.00307556
0.00299278
0.00292439
0.00287799
0.00283278
0.00277127
0.00269572
0.00261723
0.00252629
0.002427
0.00232501
0.00223158
0.00215471
0.00212306
0.00218859
0.00256298
0.0050709
0.00313389
0.00308539
0.00302919
0.00296745
0.00291594
0.00288016
0.00283988
0.00276713
0.00268711
0.00261325
0.002527
0.00242803
0.00234309
0.0022628
0.00217593
0.0021283
0.00218536
0.00256137
0.0049852
0.00310044
0.00305788
0.00301078
0.00296192
0.00291649
0.00287718
0.00282678
0.00275003
0.00267299
0.00259978
0.00251274
0.00241253
0.00233542
0.00226988
0.0021867
0.00212333
0.00214606
0.00245061
0.0048922
0.00309368
0.00305617
0.00301602
0.00297439
0.00292941
0.00288167
0.00282228
0.00274638
0.00266827
0.00259048
0.00250216
0.00240114
0.00231254
0.00224314
0.00217221
0.00211266
0.002106
0.00230436
0.00115797
0.00310921
0.00307591
0.00303921
0.00299969
0.00295374
0.00290107
0.0028383
0.00276235
0.0026818
0.00259949
0.00250936
0.00240898
0.00230949
0.00222291
0.00214953
0.00210255
0.00209369
0.00223265
0.00489341
0.00314523
0.00311618
0.00308155
0.00304154
0.00299447
0.00293999
0.00287613
0.00280147
0.00272079
0.00263601
0.00254398
0.00244359
0.00234038
0.00224196
0.00215663
0.00210539
0.00210066
0.00219514
0.00115874
0.00320147
0.00317739
0.00314588
0.00310664
0.00305937
0.00300426
0.00294058
0.00286788
0.00278815
0.00270241
0.00260931
0.00250871
0.00240419
0.00230136
0.00220961
0.00214746
0.00213867
0.0022232
0.00112775
0.00327888
0.00326067
0.0032338
0.0031976
0.00315208
0.00309784
0.00303516
0.00296408
0.00288532
0.00279946
0.00270617
0.00260596
0.0025017
0.00239881
0.00230676
0.0022407
0.00222583
0.00231184
0.00114808
0.00337977
0.00336828
0.00334726
0.00331585
0.00327398
0.00322227
0.00316144
0.00309187
0.00301404
0.00292845
0.00283548
0.00273623
0.00263369
0.00253366
0.00244628
0.00238759
0.00238715
0.0025142
0.00491282
0.00350748
0.00350364
0.00348948
0.00346409
0.00342722
0.00337934
0.0033212
0.00325342
0.0031766
0.00309148
0.002999
0.00290097
0.00280096
0.00270564
0.00262686
0.00258584
0.00262771
0.00287157
0.00116106
0.0036661
0.00367107
0.00366483
0.00364647
0.0036156
0.00357248
0.00351775
0.00345216
0.00337653
0.00329193
0.00319987
0.00310288
0.00300538
0.00291519
0.0028465
0.0028274
0.00292646
0.00336489
0.0053351
0.00386069
0.0038759
0.00387883
0.00386854
0.00384456
0.00380697
0.00375628
0.00369328
0.00361899
0.00353483
0.00344286
0.00334632
0.00325056
0.00316465
0.003105
0.00310526
0.00325165
0.00383602
0.00649946
0.00409742
0.00412467
0.00413829
0.00413734
0.00412126
0.00408999
0.00404393
0.00398387
0.00391101
0.00382707
0.0037346
0.00363756
0.0035422
0.00345894
0.00340638
0.00342294
0.00360892
0.00432955
0.00789471
0.00438391
0.00442538
0.00445159
0.00446153
0.00445457
0.00443054
0.00438975
0.004333
0.00426158
0.00417749
0.00408371
0.00398486
0.00388814
0.00380543
0.0037579
0.00378919
0.00401258
0.00485662
0.00945651
0.00472944
0.00478782
0.00482894
0.00485169
0.00485535
0.00483969
0.00480495
0.00475188
0.00468188
0.00459713
0.004501
0.00439868
0.00429837
0.00421362
0.00416881
0.00421486
0.00448409
0.00548095
0.0112774
0.0051454
0.00522393
0.00528273
0.0053206
0.00533674
0.00533082
0.00530304
0.00525413
0.00518549
0.00509947
0.00499971
0.00489192
0.00478523
0.00469499
0.00464886
0.0047044
0.00501099
0.00613841
0.0129115
0.00564565
0.00574818
0.00582797
0.00588369
0.00591448
0.00591997
0.00590027
0.00585607
0.00578878
0.00570081
0.00559599
0.00548044
0.00536409
0.00526365
0.00520947
0.00526428
0.00558913
0.0067961
0.0141683
0.00624706
0.00637813
0.00648276
0.00655952
0.00660749
0.00662628
0.00661599
0.00657726
0.00651144
0.00642089
0.0063095
0.0061836
0.00605362
0.0059373
0.00586699
0.00590925
0.00623361
0.00748352
0.015272
0.00697019
0.00713508
0.00726892
0.00737029
0.0074383
0.00747262
0.00747333
0.00744102
0.00737694
0.00728329
0.00716384
0.00702489
0.00687709
0.00673889
0.00664429
0.00666357
0.00697602
0.00826559
0.0165466
0.00783997
0.00804466
0.00821266
0.00834263
0.00843387
0.00848616
0.00849968
0.00847499
0.00841317
0.00831616
0.00818741
0.00803295
0.00786335
0.00769757
0.00757132
0.00755958
0.00785583
0.00920417
0.0181916
0.0088867
0.00913796
0.00934552
0.00950837
0.00962618
0.00969908
0.00972745
0.00971186
0.00965321
0.00955308
0.00941438
0.00924259
0.00904796
0.00884976
0.0086857
0.00863709
0.00891722
0.0103541
0.0203242
0.0101473
0.0104526
0.0107054
0.0109055
0.0110532
0.0111494
0.0111948
0.0111902
0.0111362
0.0110339
0.0108856
0.010696
0.0104745
0.0102405
0.010034
0.00994426
0.0102097
0.0117639
0.0229679
0.0116669
0.0120339
0.0123377
0.0125791
0.01276
0.0128821
0.0129469
0.0129553
0.0129082
0.0128059
0.01265
0.0124438
0.0121959
0.0119253
0.0116742
0.0115406
0.0117928
0.0134883
0.0261415
0.0135006
0.0139371
0.014297
0.0145834
0.0148
0.0149502
0.0150366
0.0150607
0.0150234
0.0149248
0.0147652
0.0145468
0.0142765
0.0139726
0.0136787
0.0135022
0.0137447
0.0156052
0.0299135
0.0157158
0.0162289
0.016649
0.0169828
0.0172366
0.0174164
0.0175262
0.0175689
0.0175455
0.0174558
0.0172994
0.017077
0.0167938
0.0164663
0.0161391
0.0159286
0.0161742
0.018245
0.0345757
0.0183954
0.0189905
0.019473
0.0198542
0.0201452
0.0203548
0.0204895
0.0205536
0.0205488
0.0204753
0.0203322
0.0201191
0.0198396
0.0195085
0.0191702
0.0189502
0.0192323
0.0216054
0.0406646
0.0216412
0.0223208
0.0228642
0.0232903
0.0236157
0.0238536
0.0240134
0.0241013
0.0241205
0.024072
0.0239555
0.0237707
0.0235208
0.0232198
0.0229126
0.0227339
0.023119
0.0259382
0.0486645
0.0255783
0.0263398
0.0269378
0.0274018
0.027756
0.0280182
0.0282015
0.0283146
0.0283628
0.0283489
0.0282747
0.0281425
0.027958
0.0277382
0.0275324
0.0274875
0.0280978
0.0315798
0.0591306
0.0303601
0.0311932
0.0318329
0.0323227
0.0326955
0.0329751
0.033178
0.0333157
0.0333963
0.0334256
0.0334098
0.033357
0.0332817
0.0332125
0.0332143
0.0334597
0.0345181
0.0390295
0.0730372
0.0361742
0.0370579
0.0377176
0.0382146
0.0385916
0.0388778
0.0390932
0.039252
0.0393651
0.0394427
0.0394974
0.0395481
0.0396264
0.0397883
0.0401406
0.0409203
0.0428254
0.0490442
0.0920155
0.0432499
0.0441477
0.0447954
0.0452742
0.045636
0.0459145
0.0461317
0.0463037
0.0464442
0.046568
0.0466958
0.0468614
0.0471232
0.0475864
0.0484452
0.050092
0.0535158
0.0627673
0.118949
0.0518666
0.052721
0.053313
0.0537419
0.0540653
0.0543181
0.0545225
0.054695
0.0548506
0.0550078
0.055195
0.0554614
0.0558977
0.0566766
0.0581374
0.0609853
0.0669035
0.0818008
0.159719
0.0623618
0.0630893
0.0635716
0.0639146
0.0641738
0.0643805
0.0645539
0.0647085
0.0648587
0.0650237
0.0652351
0.0655512
0.0660859
0.0670733
0.0690193
0.0730975
0.0823764
0.107448
0.22836
0.0751304
0.0756256
0.0759409
0.0761628
0.0763323
0.076471
0.076592
0.0767053
0.0768217
0.0769565
0.0771361
0.0774117
0.0778886
0.0788001
0.0807071
0.085112
0.096734
0.135405
0.352087
0.0906108
0.0907778
0.0908813
0.0909545
0.091012
0.091061
0.0911059
0.0911503
0.0911985
0.0912567
0.0913365
0.09146
0.0916745
0.0920908
0.0930034
0.0953476
0.102929
0.139272
0.580728
)
;

boundaryField
{
    leftWall
    {
        type            epsilonWallFunction;
        value           nonuniform List<scalar> 
50
(
0.000220623
0.000447518
0.00075889
0.00106543
0.00136035
0.00164671
0.00193043
0.00222726
0.00265667
0.00326856
0.00393836
0.00486536
0.00616744
0.00641061
0.00707025
0.00747124
0.00176861
0.00748538
0.00176782
0.00748011
0.00176942
0.00176921
0.00176817
0.00748243
0.00176735
0.00748869
0.00748373
0.00748432
0.00748925
0.00747496
0.00747021
0.00748841
0.00753263
0.00763295
0.00772845
0.00781989
0.00790737
0.00798845
0.0080553
0.00809802
0.00811457
0.00808554
0.00800114
0.00784149
0.00757369
0.00747064
0.00748242
0.0160695
0.155154
1.53825
)
;
    }
    rightWall
    {
        type            epsilonWallFunction;
        value           nonuniform List<scalar> 
50
(
0.000398609
0.000471082
0.000618968
0.000761669
0.000923727
0.00111426
0.00134656
0.00164696
0.00209753
0.00271992
0.00305789
0.00341433
0.00415918
0.00495018
0.00525643
0.0050709
0.0049852
0.0048922
0.00115797
0.00489341
0.00115874
0.00112775
0.00114808
0.00491282
0.00116106
0.0053351
0.00649946
0.00789471
0.00945651
0.0112774
0.0129115
0.0141683
0.015272
0.0165466
0.0181916
0.0203242
0.0229679
0.0261415
0.0299135
0.0345757
0.0406646
0.0486645
0.0591306
0.0730372
0.0920155
0.118949
0.159719
0.22836
0.352087
0.580728
)
;
    }
    lowerWall
    {
        type            epsilonWallFunction;
        value           nonuniform List<scalar> 
62
(
0.000220623
0.00115584
0.00203879
0.0028382
0.00355759
0.00420632
0.00479527
0.00533193
0.00581883
0.00625941
0.00666351
0.00704544
0.00740656
0.00771505
0.00788437
0.00774343
0.00709932
0.0060829
0.00497887
0.00403416
0.00328312
0.00224497
0.000685191
0.000685191
0.00110939
0.00183386
0.00266432
0.00374694
0.00518113
0.0072677
0.0119771
0.0151625
0.0115813
0.0109265
0.0128495
0.000755414
0.000811756
0.00122243
0.00182024
0.00259316
0.0036516
0.00535511
0.00910949
0.000755414
0.00303559
0.00475004
0.00565827
0.00616041
0.0063753
0.00656946
0.00677198
0.00678651
0.00610293
0.00488739
0.00372811
0.00272849
0.00275997
0.00354447
0.0034953
0.00226864
0.00127181
0.000398609
)
;
    }
    atmosphere
    {
        type            inletOutlet;
        inletValue      uniform 0.1;
        value           nonuniform List<scalar> 
46
(
0.1
0.127153
0.0193604
0.0077356
0.00554375
0.00507418
0.00516829
0.00556227
0.00618826
0.00704411
0.00816125
0.00959665
0.0114321
0.0137749
0.0167561
0.0205243
0.0252413
0.0311066
0.0384638
0.048069
0.0616387
0.1
0.1
0.1
0.1
0.1
0.1
0.1
0.1
0.1
0.1
0.1
0.1
0.1
0.1
0.1
0.1
0.1
0.1
0.1
0.1
0.1
0.1
0.1
0.1
0.580728
)
;
    }
    defaultFaces
    {
        type            empty;
    }
}


// ************************************************************************* //
