/*--------------------------------*- C++ -*----------------------------------*\
  =========                 |
  \\      /  F ield         | OpenFOAM: The Open Source CFD Toolbox
   \\    /   O peration     | Website:  https://openfoam.org
    \\  /    A nd           | Version:  9
     \\/     M anipulation  |
\*---------------------------------------------------------------------------*/
FoamFile
{
    format      ascii;
    class       volScalarField;
    location    "1.08";
    object      epsilon;
}
// * * * * * * * * * * * * * * * * * * * * * * * * * * * * * * * * * * * * * //

dimensions      [0 2 -3 0 0 0 0];

internalField   nonuniform List<scalar> 
2268
(
0.0108583
0.0379539
0.0689365
0.0997385
0.132666
0.173458
0.229099
0.307483
0.415682
0.543495
0.671841
0.782707
0.869819
0.921405
0.941089
0.942392
0.937679
0.93362
0.955167
0.906704
0.705755
0.356276
0.0779289
0.0199187
0.0309059
0.0477405
0.06362
0.0789565
0.0965361
0.119915
0.152949
0.199198
0.2567
0.319123
0.379468
0.433497
0.474789
0.498971
0.505713
0.498506
0.484282
0.477736
0.451301
0.374692
0.234023
0.105174
0.0348721
0.0355434
0.0478501
0.0603856
0.0732214
0.0887868
0.110296
0.140852
0.181875
0.231361
0.284362
0.336102
0.382702
0.420011
0.444762
0.456193
0.457188
0.453746
0.452132
0.435578
0.380694
0.273519
0.155975
0.0513931
0.0411026
0.0504343
0.061816
0.0749156
0.092183
0.116835
0.151419
0.195944
0.247218
0.300013
0.350429
0.395138
0.431505
0.457856
0.474625
0.484797
0.492277
0.498451
0.49005
0.447911
0.357182
0.230657
0.0677322
0.0468194
0.0539052
0.0651151
0.0798288
0.100663
0.130964
0.172688
0.224391
0.281205
0.337179
0.388992
0.43407
0.471169
0.500299
0.523416
0.543572
0.562038
0.576181
0.575691
0.548739
0.486947
0.359196
0.083529
0.0525446
0.0579292
0.0697015
0.0870943
0.113043
0.151096
0.202422
0.263761
0.32817
0.388962
0.443595
0.490427
0.529603
0.562744
0.593195
0.623666
0.652209
0.672719
0.678725
0.670907
0.668359
0.642654
0.0986726
0.0582418
0.06242
0.0754387
0.096557
0.129216
0.177165
0.240399
0.313277
0.386488
0.452888
0.511243
0.560984
0.603603
0.642046
0.680556
0.720813
0.75705
0.780505
0.788685
0.799006
0.891333
1.25061
0.113094
0.063907
0.0673527
0.0823178
0.108293
0.149439
0.209628
0.287018
0.372907
0.455499
0.527746
0.590505
0.64434
0.691974
0.737103
0.784039
0.83258
0.87279
0.894149
0.897367
0.911662
1.0928
2.45706
0.197902
0.2689
0.575595
1.08084
1.65815
2.28126
2.76367
2.84607
2.46928
2.22001
2.1132
1.93039
1.63409
1.34336
1.09646
0.833675
0.557044
0.286567
0.064658
0.219289
0.297624
0.536992
0.768031
0.946446
1.10305
1.26047
1.30766
1.21076
1.11823
1.05404
0.96564
0.838546
0.705656
0.582298
0.454554
0.322915
0.195015
0.0934974
0.321335
0.350258
0.53234
0.694216
0.804729
0.903303
1.02553
1.0788
1.02509
0.959168
0.909784
0.846813
0.752462
0.644688
0.538714
0.432537
0.32492
0.220039
0.151418
0.418177
0.391802
0.536265
0.666463
0.757412
0.835571
0.948623
1.0154
0.982681
0.929418
0.890995
0.844194
0.765177
0.665413
0.562459
0.460954
0.36005
0.263082
0.227772
0.495694
0.428161
0.545555
0.657888
0.736289
0.802707
0.902133
0.977616
0.979218
0.936116
0.907581
0.873977
0.804728
0.708287
0.606327
0.505015
0.405095
0.311457
0.321248
0.562063
0.461162
0.555056
0.656921
0.722884
0.783308
0.869787
0.947387
0.983265
0.950049
0.931743
0.909607
0.847681
0.754904
0.656934
0.55589
0.454329
0.361825
0.424885
0.653969
0.495066
0.563847
0.655374
0.713955
0.773413
0.852042
0.932888
0.979882
0.961373
0.951008
0.932624
0.879262
0.798
0.710222
0.611221
0.506489
0.413143
0.526749
0.964757
0.537046
0.578958
0.654869
0.711045
0.772967
0.84715
0.928808
0.974467
0.970592
0.968258
0.951474
0.900343
0.832549
0.765213
0.671892
0.560876
0.460809
0.597275
0.135246
0.0726945
0.07572
0.0949005
0.130443
0.18786
0.270391
0.372326
0.479808
0.578079
0.660641
0.731331
0.794027
0.852932
0.911076
0.971329
1.02868
1.06609
1.07065
1.04834
1.0187
1.04931
1.33402
0.155071
0.08239
0.0878676
0.11668
0.172212
0.262569
0.387524
0.531448
0.671378
0.790106
0.882746
0.960342
1.0359
1.11751
1.20335
1.28621
1.34323
1.35795
1.34955
1.30057
1.21108
1.1212
1.08181
0.167659
0.0905571
0.101156
0.144138
0.228637
0.365391
0.545993
0.73853
0.910124
1.04581
1.14371
1.22578
1.32064
1.45138
1.60229
1.73623
1.78215
1.7603
1.74195
1.65332
1.4878
1.30516
1.16318
0.171641
0.0970307
0.115217
0.177163
0.301391
0.501359
0.752528
0.996815
1.19271
1.33896
1.44086
1.54171
1.66879
1.82894
2.06943
2.28378
2.32572
2.35987
2.33759
2.1499
1.8448
1.53764
1.30983
0.171876
0.103284
0.130259
0.214993
0.390042
0.674344
1.01623
1.30565
1.48779
1.60208
1.70335
1.83771
2.04717
2.41801
2.82821
2.91062
2.84333
3.01674
3.14495
2.79595
2.25775
1.77621
1.45277
0.177787
0.112136
0.148468
0.258146
0.49187
0.886152
1.34848
1.61799
1.66207
1.70768
1.81232
1.97385
2.22085
2.65454
3.19333
3.42369
3.3966
3.45603
3.5673
3.21724
2.56301
1.94805
1.55017
0.198426
0.127398
0.174416
0.314132
0.616997
1.15353
1.78659
1.78259
1.68601
1.70918
1.81801
1.96523
2.13976
2.39401
2.69966
3.00156
3.35262
3.61792
3.69152
3.33054
2.58428
1.92706
1.53782
0.246283
0.153552
0.212915
0.38726
0.76146
1.35456
1.75323
1.717
1.65034
1.68843
1.81196
1.92451
1.98247
2.09753
2.27534
2.50882
2.8142
3.1101
3.18592
2.83181
2.2127
1.72211
1.4334
0.297531
0.186788
0.266455
0.469473
0.81371
1.20427
1.44667
1.52349
1.55835
1.60847
1.67779
1.73946
1.78862
1.84955
1.95044
2.09143
2.27391
2.41264
2.36747
2.10437
1.76151
1.46707
1.28729
0.398075
0.232323
0.311643
0.493054
0.753534
1.02512
1.22091
1.32423
1.39601
1.44611
1.4879
1.52854
1.57117
1.63098
1.70201
1.79176
1.91226
1.96607
1.86363
1.64035
1.4198
1.24949
1.14279
0.457409
0.244256
0.313721
0.466822
0.672191
0.879222
1.03685
1.1413
1.22244
1.28123
1.32092
1.35121
1.3833
1.42502
1.46703
1.51183
1.56491
1.58834
1.50492
1.33491
1.18772
1.08207
1.01467
0.455529
0.233277
0.289037
0.414498
0.5798
0.746355
0.878669
0.975216
1.05455
1.11708
1.1594
1.18652
1.20929
1.23338
1.25255
1.26179
1.26017
1.2391
1.18139
1.09645
1.01379
0.949444
0.904331
0.408908
0.206479
0.249394
0.349611
0.482711
0.62047
0.73574
0.823873
0.89668
0.956438
0.999016
1.0252
1.04175
1.05363
1.05873
1.05413
1.04033
1.0159
0.977814
0.929417
0.880847
0.841007
0.812982
0.341908
0.173483
0.205289
0.282952
0.388434
0.502362
0.603749
0.684565
0.750264
0.804005
0.843582
0.86819
0.881168
0.886371
0.884569
0.87596
0.862936
0.845664
0.822885
0.795233
0.76725
0.744616
0.730781
0.273819
0.142162
0.164519
0.222564
0.303816
0.395998
0.48362
0.557128
0.616513
0.663666
0.698553
0.720627
0.731501
0.733904
0.729831
0.721237
0.711308
0.700793
0.688867
0.675326
0.662311
0.653367
0.651564
0.217756
0.117251
0.13156
0.17332
0.233883
0.30617
0.379279
0.443463
0.496094
0.537679
0.56841
0.588255
0.598218
0.600256
0.596536
0.589503
0.582373
0.576437
0.571367
0.567005
0.564402
0.565651
0.573035
0.181613
0.100805
0.107948
0.136988
0.180795
0.234916
0.292318
0.345863
0.391626
0.428453
0.456063
0.47452
0.48456
0.487638
0.485647
0.48085
0.476074
0.47303
0.471848
0.472658
0.476141
0.483598
0.496634
0.158987
0.0906267
0.0925684
0.11197
0.142578
0.181511
0.224636
0.267167
0.30545
0.337501
0.362426
0.380008
0.390669
0.395427
0.395752
0.393472
0.390845
0.389735
0.390564
0.393748
0.399931
0.410073
0.425357
0.144753
0.0844034
0.0829721
0.0955109
0.11646
0.143794
0.175135
0.207521
0.23819
0.265144
0.287175
0.303745
0.31492
0.321293
0.32388
0.324027
0.3234
0.323753
0.325622
0.32961
0.336401
0.346834
0.361873
0.135578
0.0804043
0.0769847
0.084889
0.099131
0.118154
0.140537
0.164517
0.188235
0.210084
0.228889
0.24396
0.255091
0.262519
0.266852
0.268998
0.270118
0.271639
0.274131
0.278246
0.284668
0.294171
0.307601
0.129098
0.0773737
0.0728869
0.0778003
0.0875576
0.100875
0.11684
0.134397
0.152363
0.169591
0.185125
0.198297
0.208772
0.216549
0.221929
0.225466
0.22794
0.230362
0.233303
0.237346
0.243116
0.25131
0.262681
0.123778
0.0745464
0.0695366
0.0725782
0.0794117
0.0889159
0.100452
0.113363
0.126906
0.140311
0.152874
0.164041
0.173464
0.181021
0.186815
0.19115
0.194517
0.197598
0.200878
0.204831
0.209989
0.216949
0.226364
0.118758
0.0715647
0.0663258
0.0682045
0.0731522
0.0801427
0.088684
0.0983439
0.108648
0.119091
0.129182
0.138501
0.146744
0.153754
0.159525
0.1642
0.168069
0.171581
0.175101
0.178993
0.183681
0.189656
0.197468
0.113668
0.0683469
0.0630346
0.0641769
0.067899
0.073232
0.0797631
0.0871849
0.095185
0.10343
0.111586
0.11935
0.126482
0.13283
0.138339
0.143061
0.147146
0.150915
0.154595
0.158456
0.162825
0.168092
0.174706
0.10845
0.0649686
0.059671
0.0603293
0.0632337
0.067457
0.0726301
0.0785158
0.0848973
0.0915509
0.0982499
0.104781
0.110964
0.116669
0.121828
0.126442
0.130587
0.134481
0.138261
0.142118
0.146295
0.151096
0.156879
0.103229
0.061575
0.0563474
0.0566744
0.0590115
0.0624698
0.0667072
0.0715274
0.0767707
0.082282
0.0879057
0.0934923
0.0989099
0.104055
0.108861
0.113308
0.117434
0.121377
0.125221
0.129094
0.133177
0.137702
0.142952
0.0982075
0.0583257
0.0532027
0.0532955
0.0552221
0.0581321
0.0617043
0.0657683
0.0701995
0.0748858
0.0797182
0.0845914
0.0894095
0.0940921
0.0985819
0.10285
0.106927
0.110885
0.114772
0.11868
0.122738
0.127126
0.132067
0.0935996
0.0553626
0.0503617
0.0502848
0.0519029
0.0544037
0.057485
0.0609945
0.0648307
0.0689095
0.0731526
0.0774849
0.0818364
0.086146
0.0903654
0.0944642
0.0984862
0.102442
0.106365
0.110317
0.114397
0.118741
0.123528
0.0895948
0.0527968
0.0479179
0.0477149
0.0490937
0.0512782
0.0539833
0.0570711
0.0604566
0.0640748
0.0678681
0.0717823
0.0757665
0.079774
0.0837655
0.0877295
0.0916828
0.095623
0.0995695
0.103567
0.10769
0.112046
0.116776
0.0863452
0.0507068
0.0459326
0.0456313
0.0468193
0.0487518
0.0511587
0.0539145
0.0569466
0.0602036
0.0636429
0.067225
0.0709124
0.0746698
0.0784672
0.0823132
0.0861934
0.0901042
0.0940581
0.0980883
0.102253
0.10664
0.111365
0.083967
0.0491444
0.0444404
0.0440554
0.0450862
0.0468123
0.0489763
0.0514627
0.0542091
0.0571745
0.0603271
0.0636379
0.0670791
0.070623
0.074263
0.0779882
0.0817842
0.0856459
0.0895819
0.0936186
0.0978043
0.102212
0.10694
0.0825497
0.048143
0.0434584
0.0429917
0.0438862
0.0454375
0.0473983
0.0496613
0.0521723
0.0548981
0.0578147
0.0609007
0.0641345
0.0675012
0.0709934
0.0745938
0.0782896
0.0820758
0.0859591
0.0899623
0.0941275
0.0985187
0.103222
0.0821632
0.0477263
0.0429937
0.0424344
0.0432013
0.0445979
0.046384
0.0484594
0.0507762
0.0533068
0.056032
0.0589342
0.0619964
0.0652107
0.0685596
0.0720272
0.0756019
0.0792793
0.083066
0.0869831
0.0910696
0.0953844
0.100007
0.0828566
0.0479121
0.0430479
0.0423707
0.0430061
0.0442577
0.0458904
0.04781
0.0499729
0.0523543
0.0549352
0.0576972
0.0606265
0.0637045
0.0669131
0.0702369
0.0736652
0.0771948
0.080833
0.0846012
0.0885372
0.0926974
0.0971574
0.0846439
0.0487097
0.0436146
0.0427789
0.0432667
0.0443751
0.0458734
0.0476727
0.0497315
0.0520219
0.0545184
0.0571947
0.0600249
0.0629851
0.0660555
0.0692212
0.0724731
0.0758104
0.0792424
0.0827916
0.086496
0.0904113
0.0946113
0.0874734
0.0501065
0.0446709
0.0436222
0.0439362
0.0449002
0.0462891
0.04802
0.050049
0.0523344
0.0548281
0.0574805
0.0602518
0.0631123
0.066042
0.069029
0.0720685
0.0751638
0.0783275
0.0815841
0.0849725
0.0885478
0.0923824
0.0911899
0.0520488
0.0461627
0.0448384
0.0449482
0.0457719
0.0470964
0.048849
0.0509744
0.0533885
0.0559884
0.0586915
0.0614426
0.0642115
0.066985
0.0697606
0.0725423
0.0753401
0.0781712
0.0810626
0.0840535
0.0871977
0.0905648
0.0955028
0.0544199
0.0479892
0.0463284
0.0462096
0.046916
0.0482654
0.0502104
0.0526614
0.0554074
0.058254
0.0610781
0.0638243
0.0664805
0.0690559
0.071567
0.0740321
0.0764706
0.0789049
0.0813637
0.0838853
0.0865199
0.0893319
0.0999765
0.0570252
0.0499905
0.0479488
0.0475961
0.0482456
0.0497966
0.0522806
0.0554851
0.0588596
0.0620835
0.0650404
0.0677282
0.0701914
0.0724826
0.0746471
0.0767209
0.0787325
0.0807081
0.0826764
0.0846721
0.0867392
0.088933
0.104053
0.0595916
0.0519434
0.0495099
0.0489506
0.0496627
0.0517671
0.0555829
0.060334
0.0646433
0.0682152
0.0711395
0.0735777
0.0756751
0.0775396
0.0792442
0.0808371
0.0823512
0.0838124
0.0852452
0.0866778
0.0881448
0.0896889
0.107133
0.0617743
0.053564
0.0507816
0.0500835
0.0510492
0.0544367
0.0618961
0.0692048
0.074259
0.0776347
0.0800191
0.0818252
0.083286
0.0845341
0.0856447
0.0866614
0.0876104
0.0885104
0.0893782
0.090232
0.0910938
0.0919905
0.108636
0.0630747
0.0545118
0.0515144
0.0507728
0.0521796
0.0582131
0.0781104
0.0860046
0.0894845
0.0911689
0.092152
0.0928311
0.0933587
0.0938013
0.0941909
0.0945441
0.09487
0.0951746
0.0954636
0.095743
0.0960207
0.0963058
2.6907
2.18552
1.93479
1.86608
1.1052
1.06459
1.01367
0.953428
1.09091
1.05217
1.02183
0.999099
1.19991
1.15016
1.11869
1.1033
1.30933
1.24718
1.20974
1.19188
1.38056
1.30695
1.26464
1.24556
1.38599
1.31551
1.26554
1.23854
1.32056
1.26361
1.2157
1.18686
1.20945
1.1657
1.13118
1.10847
1.08924
1.05918
1.03649
1.02183
0.97895
0.95981
0.945426
0.936447
0.881797
0.871026
0.863894
0.860363
0.801208
0.796779
0.7954
0.797086
0.728439
0.729694
0.733727
0.740548
0.657258
0.663405
0.672086
0.683307
0.58461
0.594394
0.606478
0.620864
0.51162
0.523553
0.537489
0.553444
0.44138
0.45396
0.468333
0.484525
0.37713
0.389125
0.402739
0.418012
0.321059
0.331702
0.343783
0.357356
0.273989
0.282978
0.293204
0.304732
0.235627
0.243004
0.251407
0.260906
0.205017
0.211013
0.217835
0.225549
0.180937
0.185849
0.191412
0.197687
0.162163
0.16628
0.170905
0.17609
0.147595
0.151161
0.155125
0.159532
0.136306
0.139512
0.143035
0.146912
0.127533
0.13052
0.133764
0.137297
0.120663
0.123524
0.126602
0.129923
0.115199
0.117992
0.120973
0.124165
0.110747
0.113496
0.116415
0.119521
0.106995
0.1097
0.112561
0.115594
0.10371
0.106347
0.109131
0.112075
0.100731
0.103263
0.105931
0.108751
0.0979809
0.100354
0.102856
0.105501
0.0954631
0.0976207
0.0998968
0.102305
0.0932721
0.0951576
0.0971486
0.0992584
0.0915921
0.0931571
0.094811
0.0965667
0.0906926
0.0919034
0.0931839
0.0945451
0.0909218
0.0917643
0.0926554
0.093604
0.0927013
0.0931833
0.0936928
0.0942357
0.0965299
0.0966806
0.0968399
0.09701
0.688462
0.584205
0.623858
0.675927
0.726923
0.788638
0.856957
0.936466
0.981218
0.985828
0.998983
0.988877
0.936558
0.877617
0.853872
0.774498
0.629941
0.523787
0.69599
0.810053
0.746435
0.78087
0.837368
0.853516
0.876718
0.922111
0.991112
1.04835
1.04995
1.08392
1.08649
1.01225
0.937076
0.911302
0.810303
0.672557
0.63169
0.946094
0.973294
0.986039
1.06698
1.16978
1.13625
1.05306
1.03696
1.08807
1.19218
1.18329
1.25289
1.28949
1.14971
1.00323
0.917341
0.831271
0.743014
0.748093
1.20197
1.101
1.15181
1.2468
1.33845
1.29942
1.20368
1.15386
1.17646
1.24612
1.30391
1.53378
1.68829
1.36812
1.10041
1.00628
0.912727
0.820882
0.850487
1.36835
1.18712
1.22559
1.28243
1.3268
1.3218
1.27759
1.23456
1.21503
1.27255
1.36739
1.74103
2.11625
1.60684
1.23205
1.08119
0.964237
0.883935
0.92844
1.49729
1.23817
1.27322
1.32177
1.3493
1.35948
1.32996
1.27848
1.24909
1.24969
1.30042
1.52595
1.87373
1.71848
1.32694
1.14
1.01116
0.932954
0.967668
1.53909
1.22644
1.26269
1.30339
1.3209
1.3206
1.28837
1.22987
1.19346
1.1846
1.22145
1.35866
1.55532
1.57007
1.39886
1.24895
1.09921
0.983689
0.975009
1.44404
1.16693
1.18321
1.20528
1.22099
1.21832
1.19623
1.1612
1.13611
1.13276
1.16515
1.2578
1.39291
1.45563
1.4718
1.42096
1.23654
1.04235
0.967956
1.2962
1.08887
1.09229
1.10838
1.12813
1.13997
1.13042
1.11181
1.10051
1.10632
1.1401
1.2162
1.33935
1.44679
1.53653
1.47427
1.26132
1.04736
0.914618
1.11662
1.00885
1.01251
1.03088
1.05812
1.08226
1.08787
1.08809
1.09073
1.10281
1.14034
1.20647
1.32606
1.4637
1.55111
1.42251
1.19209
0.982035
0.849276
0.921518
0.929802
0.936924
0.957013
0.985941
1.01736
1.04428
1.06659
1.08564
1.10615
1.14497
1.20332
1.29206
1.39864
1.43202
1.30324
1.09124
0.897952
0.762437
0.728545
0.860192
0.874531
0.900526
0.93568
0.976173
1.01623
1.0519
1.08212
1.10845
1.13863
1.17558
1.22133
1.2633
1.24428
1.12463
0.962047
0.820077
0.678292
0.602793
0.804391
0.828158
0.862827
0.906234
0.955391
1.00532
1.05122
1.08952
1.11731
1.13626
1.14936
1.1565
1.1481
1.09969
1.00486
0.900478
0.808532
0.713985
0.667308
0.755681
0.789534
0.833762
0.886095
0.943557
1.00154
1.055
1.09911
1.12883
1.14254
1.14202
1.12923
1.10082
1.04925
0.974854
0.889311
0.799298
0.723603
0.775298
0.705512
0.748413
0.801097
0.861054
0.924977
0.988372
1.04629
1.0937
1.12551
1.13878
1.13451
1.11597
1.0832
1.03314
0.962712
0.872992
0.777915
0.719122
0.860225
0.648351
0.697716
0.756232
0.821142
0.888724
0.954399
1.01332
1.06069
1.09201
1.10456
1.09927
1.07882
1.04374
0.991766
0.919824
0.830175
0.74421
0.70312
0.922531
0.583507
0.635852
0.696853
0.763528
0.831826
0.896937
0.953907
0.998252
1.02627
1.03614
1.02888
1.00627
0.968952
0.915961
0.846979
0.7675
0.699336
0.678352
0.961375
0.514669
0.565647
0.625797
0.691172
0.75753
0.819943
0.873328
0.913339
0.936995
0.943445
0.933827
0.909626
0.872037
0.821842
0.761104
0.698865
0.650661
0.650015
0.982972
0.446385
0.493333
0.548691
0.610202
0.672507
0.730788
0.780024
0.815961
0.836023
0.840015
0.829323
0.805572
0.770765
0.727183
0.678496
0.63439
0.605125
0.623989
0.998445
0.382638
0.424069
0.472991
0.527541
0.584267
0.637547
0.682617
0.715344
0.733406
0.73683
0.727216
0.706453
0.677171
0.642452
0.607775
0.579357
0.566548
0.60238
1.00957
0.326296
0.361536
0.403394
0.450397
0.499707
0.547165
0.588276
0.618617
0.636145
0.640821
0.63429
0.618601
0.596716
0.572072
0.550221
0.535139
0.535176
0.58358
1.01101
0.278742
0.307889
0.342766
0.382305
0.424312
0.465524
0.502129
0.5305
0.548417
0.555549
0.553376
0.543934
0.530199
0.515929
0.504815
0.500277
0.510064
0.567202
1.00508
0.240062
0.263767
0.292318
0.325008
0.360231
0.3955
0.427781
0.454129
0.472528
0.482472
0.485131
0.482301
0.476647
0.471377
0.469112
0.472856
0.489864
0.552593
0.992526
0.209479
0.22868
0.251896
0.278704
0.307994
0.337945
0.366256
0.390618
0.409338
0.42188
0.429049
0.432295
0.433829
0.436007
0.440877
0.451018
0.473212
0.538999
0.973314
0.185797
0.201491
0.220465
0.242505
0.266881
0.29232
0.317143
0.33961
0.358349
0.373
0.383923
0.392228
0.399623
0.407767
0.418215
0.433151
0.458898
0.525783
0.947661
0.167724
0.18082
0.196584
0.214939
0.235436
0.257216
0.279105
0.299838
0.318396
0.33449
0.348242
0.360428
0.372256
0.384962
0.39956
0.417894
0.445877
0.51248
0.917138
0.154056
0.16531
0.178742
0.194363
0.211914
0.230843
0.25035
0.269549
0.287777
0.304714
0.320397
0.335327
0.350299
0.366192
0.383635
0.404134
0.433257
0.498804
0.886337
0.143749
0.153747
0.165547
0.179205
0.194592
0.211366
0.229003
0.246904
0.264662
0.281965
0.298808
0.315486
0.332474
0.350282
0.369439
0.391058
0.420455
0.484806
0.861725
0.135934
0.145107
0.155797
0.168085
0.181923
0.197108
0.213309
0.230144
0.247332
0.264635
0.282018
0.299623
0.317687
0.336448
0.356255
0.3782
0.407326
0.470569
0.842009
0.129899
0.138542
0.148493
0.159845
0.172592
0.186623
0.201731
0.217679
0.23426
0.251305
0.268757
0.286651
0.305052
0.32401
0.343718
0.365312
0.3939
0.455899
0.820466
0.125072
0.133365
0.142822
0.153533
0.165516
0.178711
0.192985
0.20819
0.224165
0.240782
0.257968
0.275686
0.293886
0.312498
0.331632
0.35241
0.38014
0.440689
0.795501
0.120991
0.129027
0.138128
0.148382
0.159818
0.172401
0.186037
0.200615
0.216005
0.232098
0.248806
0.26604
0.28368
0.301596
0.319871
0.339643
0.366189
0.425057
0.769283
0.117304
0.125095
0.133893
0.143782
0.154798
0.166913
0.18005
0.194101
0.208951
0.224491
0.240612
0.257189
0.274067
0.291099
0.308385
0.327094
0.35242
0.409111
0.744209
0.113755
0.121251
0.129725
0.139264
0.149905
0.161628
0.174358
0.187974
0.202353
0.217369
0.232886
0.248751
0.264789
0.28087
0.297139
0.3148
0.338888
0.392981
0.716826
0.110194
0.117294
0.125358
0.134485
0.144724
0.156067
0.168439
0.181698
0.195698
0.210279
0.225261
0.240455
0.25568
0.270834
0.286129
0.302816
0.325802
0.377596
0.68763
0.106585
0.113144
0.120656
0.129241
0.138975
0.149875
0.161883
0.17485
0.188589
0.202882
0.217481
0.232141
0.246665
0.260993
0.275419
0.291274
0.313449
0.364122
0.667458
0.103015
0.108862
0.115636
0.123486
0.13253
0.142838
0.154403
0.167114
0.180732
0.194955
0.209412
0.223762
0.237778
0.251444
0.265159
0.28039
0.30216
0.352923
0.655462
0.0996998
0.10466
0.110486
0.117356
0.125445
0.134911
0.145861
0.158296
0.171968
0.186419
0.20107
0.215417
0.229179
0.242393
0.25559
0.270451
0.292302
0.344059
0.647988
0.0969803
0.100902
0.105578
0.111204
0.118011
0.126272
0.136298
0.148364
0.162348
0.177437
0.192699
0.207397
0.221187
0.234173
0.247057
0.261806
0.284254
0.337961
0.645908
0.0953047
0.0980891
0.101458
0.105602
0.110778
0.117371
0.125983
0.137473
0.152299
0.168574
0.184874
0.200236
0.214285
0.227233
0.239983
0.254838
0.278295
0.335355
0.655128
0.0952113
0.0968321
0.0988213
0.101321
0.104556
0.108942
0.115352
0.125691
0.142815
0.160952
0.178551
0.194693
0.209088
0.222093
0.234823
0.249921
0.274645
0.336814
0.684378
0.0973168
0.0978338
0.0984761
0.0992982
0.100398
0.102004
0.104816
0.111643
0.135659
0.156108
0.174804
0.191525
0.206179
0.219251
0.232011
0.247383
0.273526
0.342956
0.735265
)
;

boundaryField
{
    leftWall
    {
        type            epsilonWallFunction;
        value           nonuniform List<scalar> 
50
(
0.0108583
0.0199187
0.0348721
0.0513931
0.0677322
0.083529
0.0986726
0.113094
0.135246
0.155071
0.167659
0.171641
0.171876
0.177787
0.198426
0.246283
0.297531
0.398075
0.457409
0.455529
0.408908
0.341908
0.273819
0.217756
0.181613
0.158987
0.144753
0.135578
0.129098
0.123778
0.118758
0.113668
0.10845
0.103229
0.0982075
0.0935996
0.0895948
0.0863452
0.083967
0.0825497
0.0821632
0.0828566
0.0846439
0.0874734
0.0911899
0.0955028
0.0999765
0.104053
0.107133
0.108636
)
;
    }
    rightWall
    {
        type            epsilonWallFunction;
        value           nonuniform List<scalar> 
50
(
0.064658
0.0934974
0.151418
0.227772
0.321248
0.424885
0.526749
0.597275
0.69599
0.946094
1.20197
1.36835
1.49729
1.53909
1.44404
1.2962
1.11662
0.921518
0.728545
0.602793
0.667308
0.775298
0.860225
0.922531
0.961375
0.982972
0.998445
1.00957
1.01101
1.00508
0.992526
0.973314
0.947661
0.917138
0.886337
0.861725
0.842009
0.820466
0.795501
0.769283
0.744209
0.716826
0.68763
0.667458
0.655462
0.647988
0.645908
0.655128
0.684378
0.735265
)
;
    }
    lowerWall
    {
        type            epsilonWallFunction;
        value           nonuniform List<scalar> 
62
(
0.0108583
0.0379539
0.0689365
0.0997385
0.132666
0.173458
0.229099
0.307483
0.415682
0.543495
0.671841
0.782707
0.869819
0.921405
0.941089
0.942392
0.937679
0.93362
0.955167
0.906704
0.705755
0.356276
0.0779289
0.0779289
0.105174
0.155975
0.230657
0.359196
0.642654
1.25061
2.45706
2.6907
2.18552
1.93479
1.86608
0.197902
0.219289
0.321335
0.418177
0.495694
0.562063
0.653969
0.964757
0.197902
0.2689
0.575595
1.08084
1.65815
2.28126
2.76367
2.84607
2.46928
2.22001
2.1132
1.93039
1.63409
1.34336
1.09646
0.833675
0.557044
0.286567
0.064658
)
;
    }
    atmosphere
    {
        type            inletOutlet;
        inletValue      uniform 0.1;
        value           nonuniform List<scalar> 
46
(
0.108636
0.0630747
0.0545118
0.0515144
0.0507728
0.0521796
0.0582131
0.1
0.1
0.1
0.1
0.1
0.1
0.1
0.1
0.1
0.1
0.1
0.1
0.1
0.1
0.1
0.1
0.1
0.1
0.1
0.1
0.1
0.1
0.1
0.1
0.1
0.1
0.1
0.1
0.135659
0.156108
0.174804
0.191525
0.206179
0.219251
0.232011
0.247383
0.273526
0.342956
0.735265
)
;
    }
    defaultFaces
    {
        type            empty;
    }
}


// ************************************************************************* //
