/*--------------------------------*- C++ -*----------------------------------*\
  =========                 |
  \\      /  F ield         | OpenFOAM: The Open Source CFD Toolbox
   \\    /   O peration     | Website:  https://openfoam.org
    \\  /    A nd           | Version:  9
     \\/     M anipulation  |
\*---------------------------------------------------------------------------*/
FoamFile
{
    format      ascii;
    class       volScalarField;
    location    "3.58";
    object      alpha.water;
}
// * * * * * * * * * * * * * * * * * * * * * * * * * * * * * * * * * * * * * //

dimensions      [0 0 0 0 0 0 0];

internalField   nonuniform List<scalar> 
2268
(
1
1
1
0.999999
1
1
1
1
0.999999
0.999999
1
1
1
1
1
1
1
1
0.987613
0.99617
0.997646
0.993899
0.99359
1
0.999999
0.999999
0.999999
1
0.999999
0.999998
0.999998
0.999999
1
1
1
1
1
1
1
1
0.996039
0.979699
0.983636
0.998567
0.99987
0.996779
0.999999
0.999998
0.999998
0.999999
0.999999
1
1
1
1
1
1
1
1
1
1
1
1
0.983055
0.979679
0.979672
0.988976
0.999953
0.999982
1
0.999998
0.999999
1
1
1
1
1
1
1
1
1
1
1
1
1
1
0.99258
0.979672
0.979672
0.98938
0.99996
0.999981
1
0.999999
0.999999
1
1
1
1
1
1
1
1
1
1
1
1
0.999997
1
1
0.988593
0.984861
0.996786
0.999984
0.999945
1
1
1
1
1
1
1
1
1
1
1
1
1
1
1
1
1
1
0.999918
0.999568
0.999972
0.999994
0.999945
1
1
1
1
1
1
1
1
1
1
1
1
1
1
1
1
1
1
1
1
1
1
0.999945
1
1
1
1
1
1
1
1
1
1
1
1
1
1
1
1
1
1
1
1
1
1
0.999983
0.989723
0.989723
0.989725
0.989783
0.990823
0.990731
0.990731
0.995602
0.998365
0.995194
0.994785
0.983217
0.960224
0.96022
0.965889
0.961654
0.960436
0.960166
0.960166
0.989723
0.99642
0.997389
0.99841
0.999851
0.999747
0.999278
0.999284
0.999039
0.995285
0.992908
0.968693
0.96022
0.962621
0.998306
0.995431
0.979013
0.968969
0.971273
0.998529
0.999952
0.999952
0.999952
0.999796
0.9999
0.9999
0.998489
0.995135
0.996462
0.985896
0.960232
0.960224
0.971534
0.998306
0.998301
0.961731
0.976197
0.976202
0.999714
0.999856
0.999952
0.999946
0.999855
0.99994
0.999843
0.996017
0.99495
0.996807
0.98637
0.960238
0.960543
0.99058
0.998306
0.997301
0.961722
0.970376
0.976202
0.999619
0.999711
0.999952
0.999952
0.999952
0.999952
0.999925
0.997691
0.994947
0.998599
0.996488
0.976246
0.969922
0.997508
0.998307
0.998301
0.980962
0.941558
0.976201
0.99962
0.999947
0.999953
0.999952
0.999892
0.999759
0.999938
0.999846
0.999446
0.999904
0.999777
0.99829
0.997531
0.998307
0.998307
0.998307
0.998306
0.941558
0.97616
0.999913
0.999946
0.999956
0.999959
0.999728
0.999218
0.999938
0.999938
0.999938
0.999834
0.997988
0.997473
0.998307
0.998307
0.998307
0.998307
0.997078
0.953075
0.969569
0.999966
0.99996
0.999962
0.999962
0.999962
0.998707
0.992726
0.997662
0.997823
0.990859
0.98825
0.995369
0.998307
0.998307
0.998308
0.998307
0.998305
0.97822
0.939403
0.999999
0.999998
0.999999
0.999999
0.999999
0.999999
0.999999
1
0.999999
0.999999
0.999998
0.999998
1
1
1
1
1
1
1
1
1
1
1
0.93559
0.937784
0.940382
0.942617
0.945573
0.949246
0.952905
0.957145
0.961011
0.962844
0.96322
0.964253
0.966187
0.96912
0.972314
0.975954
0.98021
0.985142
0.989846
0.992884
0.993461
0.993638
0.996796
0.232499
0.237486
0.243622
0.25028
0.255248
0.260139
0.26504
0.26987
0.274741
0.281399
0.28931
0.297019
0.304024
0.310193
0.316071
0.32301
0.329342
0.336185
0.343294
0.350835
0.363348
0.383411
0.408848
0.000925452
0.000920535
0.000919086
0.000920358
0.000919086
0.000925681
0.000935969
0.000941219
0.000944143
0.000952727
0.000964358
0.000971803
0.000975804
0.00101279
0.00129161
0.00182556
0.00262015
0.00358793
0.00483555
0.00575183
0.00382741
0.00147364
0.00108975
0.00198517
0.00236579
0.00172808
0.00105823
0.00394444
0.00395014
0.00298174
0.0029859
0.00636689
0.00758006
0.007581
0.00758006
0.00682882
0.00662664
0.00647629
0.00325715
0.00300519
0.00337421
0.00605247
0.00606127
0.00408837
0.00074825
0.000372947
0.00204567
0.00291515
0.00291495
0.00134677
0.00148737
0.00369315
0.00455981
0.00455981
0.00441355
0.00449349
0.00502002
0.00539613
0.00586607
0.00623811
0.00630025
0.00629975
0.00629609
0.00579824
0.00329957
0.00177683
0.0015882
0.00036667
0.000367089
0.00193523
0.00191609
0.00253417
0.00240489
0.00127859
0.000689099
0.000736322
0.000951501
0.00017707
3.56937e-09
3.71999e-09
3.91681e-09
3.95943e-09
4.42954e-09
4.92613e-09
0.000201558
0.000191171
0.000201393
0.000773523
0.000378521
0.000365532
0.000365913
0.000585066
0.000348617
0.000208772
7.9216e-10
0.00067986
0.000925535
0.000688111
0.00018017
3.46446e-10
3.82887e-10
3.55222e-09
3.56937e-09
3.71999e-09
6.96348e-07
3.36536e-06
4.96399e-07
1.4482e-05
8.3562e-05
0.000144036
0.00061769
0.000619483
0.000432295
0.000373423
0.00109317
1.47785e-09
7.9216e-10
3.53447e-10
3.46217e-10
3.45692e-10
3.45694e-10
3.45692e-10
3.45695e-10
3.46446e-10
1.0357e-08
3.91659e-07
6.71378e-07
7.43628e-06
8.01347e-06
9.48573e-07
6.69897e-07
1.01991e-05
3.49569e-05
0.000290544
0.000618834
0.000617958
0.000281381
0.000268602
1.82344e-08
3.20171e-07
1.05489e-07
1.68491e-09
4.50772e-10
3.45692e-10
3.45695e-10
7.40165e-10
7.64042e-08
1.23618e-06
2.97148e-06
2.44409e-06
1.4624e-08
1.58993e-07
5.03807e-08
1.33981e-09
1.14375e-09
1.11704e-09
5.25248e-06
9.32066e-05
0.000136611
0.000132242
1.64609e-07
9.48815e-09
3.40357e-07
3.24414e-07
1.39982e-08
2.69635e-09
3.45695e-10
3.45968e-10
6.51405e-09
1.59949e-06
2.98034e-06
2.96948e-06
7.14226e-07
1.45494e-08
1.44452e-08
1.0947e-08
4.77418e-11
4.87464e-11
1.99022e-10
4.45972e-08
3.46408e-07
1.50259e-06
2.49154e-06
3.86872e-08
3.71283e-09
7.34493e-08
4.41932e-10
1.10515e-08
3.7112e-09
3.51226e-10
2.30651e-09
8.51341e-08
1.21755e-06
1.47225e-06
1.44746e-07
4.46769e-10
3.50579e-08
2.54611e-08
4.77418e-11
4.77418e-11
4.77418e-11
4.90918e-11
3.71272e-08
2.04544e-06
5.1394e-06
5.63379e-06
5.3002e-06
2.56757e-09
5.72638e-10
4.00253e-10
7.9124e-11
2.6956e-10
1.78457e-09
1.441e-08
1.95093e-08
5.13534e-11
5.15663e-11
5.13486e-11
1.45387e-10
8.85623e-10
8.55543e-10
4.77446e-11
4.77418e-11
5.19756e-11
7.15808e-11
2.75926e-07
5.69679e-06
6.97516e-06
6.97664e-06
6.97516e-06
1.826e-08
8.08038e-08
6.28512e-08
7.81386e-11
3.17743e-10
1.65097e-09
3.66509e-09
4.2969e-09
4.06656e-09
2.30764e-09
2.64743e-10
4.77842e-11
5.03313e-11
5.82383e-11
6.0637e-11
1.16194e-10
1.9249e-10
2.12471e-10
1.50275e-08
7.50861e-07
4.59558e-06
6.9762e-06
6.1905e-06
5.43638e-08
3.42148e-07
1.56964e-07
7.69876e-11
3.72132e-10
1.0992e-09
1.49038e-09
1.64327e-09
1.54939e-09
6.03398e-10
9.76967e-11
1.96144e-11
8.08416e-12
6.27122e-12
8.58562e-12
1.95525e-11
3.4955e-11
3.65222e-11
3.69481e-11
1.73226e-09
2.58294e-07
1.27891e-06
6.37742e-07
1.08821e-07
3.54022e-07
2.03357e-07
7.63629e-11
2.65207e-10
5.21688e-10
5.19695e-10
3.15887e-10
1.47515e-10
4.45831e-11
7.55684e-12
2.37859e-13
-5.72362e-13
-6.15369e-13
-9.85894e-14
7.93046e-13
1.37046e-11
5.03481e-11
8.5371e-11
1.32965e-10
4.18222e-10
1.49831e-10
1.19592e-10
1.32539e-07
3.54069e-07
2.66034e-07
7.62676e-11
8.81319e-11
1.69007e-10
1.38832e-10
3.82044e-11
1.01341e-11
1.67664e-12
-6.12563e-13
-1.60395e-12
-2.07352e-12
-2.05482e-12
-1.62059e-12
-7.88792e-13
4.38138e-13
1.18624e-11
6.03174e-11
1.20586e-10
1.42859e-10
1.40447e-10
1.12503e-10
1.34496e-07
3.54069e-07
2.93446e-07
7.61941e-11
7.6145e-11
7.62709e-11
4.45888e-11
3.96341e-12
-4.57242e-14
-9.68702e-13
-1.84231e-12
-2.40414e-12
-2.66142e-12
-2.59525e-12
-2.27373e-12
-1.75805e-12
-1.02533e-12
5.35522e-14
3.73593e-12
2.40896e-11
4.86707e-11
6.11917e-11
5.95789e-11
1.01864e-07
3.54069e-07
2.39006e-07
7.62676e-11
1.01041e-10
1.59879e-10
2.5437e-11
2.44503e-12
-1.0915e-13
-1.19452e-12
-1.81438e-12
-2.21202e-12
-2.39952e-12
-2.37337e-12
-2.1756e-12
-1.86752e-12
-1.49937e-12
-1.09001e-12
-5.79611e-13
9.72831e-14
1.02692e-12
3.06843e-12
4.99785e-12
3.164e-08
1.59602e-07
6.95106e-08
7.63945e-11
3.85054e-10
3.75798e-10
5.09053e-11
3.95941e-12
9.82842e-13
-4.87315e-13
-9.97164e-13
-1.37708e-12
-1.62435e-12
-1.71749e-12
-1.65937e-12
-1.48975e-12
-1.25989e-12
-1.01325e-12
-7.77792e-13
-5.61155e-13
-3.57911e-13
-1.23437e-13
1.10093e-14
2.2807e-10
6.16094e-11
1.15589e-10
4.00901e-10
5.84453e-10
4.41634e-10
6.32928e-11
1.06503e-11
5.5182e-12
1.459e-12
9.60306e-14
-3.3649e-13
-7.0257e-13
-9.47595e-13
-1.03156e-12
-9.91686e-13
-8.76378e-13
-7.27974e-13
-5.77465e-13
-4.42024e-13
-3.276e-13
-2.31233e-13
-1.47483e-13
1.7032e-10
5.8278e-11
8.57075e-11
3.94231e-10
5.63691e-10
3.29913e-10
6.50868e-11
2.47112e-11
1.67688e-11
9.50103e-12
4.07532e-12
9.76295e-13
-4.6266e-14
-3.21607e-13
-4.99695e-13
-5.48754e-13
-5.20604e-13
-4.49453e-13
-3.6429e-13
-2.83151e-13
-2.14289e-13
-1.58623e-13
-1.12311e-13
2.53077e-10
5.82672e-11
5.82691e-11
1.7802e-10
2.92296e-10
1.59823e-10
5.85391e-11
3.97846e-11
3.05515e-11
2.22762e-11
1.2538e-11
4.9479e-12
1.11853e-12
-2.86177e-15
-1.70565e-13
-2.47749e-13
-2.65285e-13
-2.41782e-13
-2.00749e-13
-1.57189e-13
-1.18789e-13
-8.84615e-14
-6.50975e-14
2.06745e-09
5.82691e-11
5.82691e-11
5.82691e-11
7.29533e-11
6.31092e-11
5.36185e-11
5.01458e-11
4.14696e-11
3.31458e-11
2.14546e-11
1.02846e-11
3.08923e-12
4.16334e-13
-3.03106e-14
-9.06326e-14
-1.184e-13
-1.15716e-13
-9.84636e-14
-7.7261e-14
-5.77471e-14
-4.22464e-14
-3.10819e-14
5.3737e-09
5.80265e-08
1.96736e-07
6.58044e-09
5.25681e-11
5.25496e-11
5.32661e-11
5.55341e-11
4.93746e-11
4.05168e-11
2.83012e-11
1.49045e-11
4.84887e-12
7.28255e-13
1.23684e-14
-2.74033e-14
-4.8521e-14
-5.08535e-14
-4.40371e-14
-3.43212e-14
-2.50884e-14
-1.77337e-14
-1.26601e-14
5.49153e-09
2.54416e-07
8.52557e-07
6.98029e-07
2.49846e-08
5.25496e-11
5.25496e-11
5.74107e-11
5.39929e-11
4.4874e-11
3.20439e-11
1.69713e-11
5.1485e-12
6.10453e-13
1.18584e-14
-8.78259e-15
-1.93495e-14
-2.10847e-14
-1.82969e-14
-1.40109e-14
-9.91663e-15
-6.68731e-15
-4.4878e-15
3.80932e-09
2.40314e-07
8.52557e-07
8.52557e-07
2.12803e-07
5.25496e-11
5.25496e-11
5.74184e-11
5.48218e-11
4.57801e-11
3.1896e-11
1.53277e-11
3.71742e-12
3.00382e-13
3.58843e-15
-3.65737e-15
-7.60544e-15
-8.2888e-15
-7.11042e-15
-5.30791e-15
-3.61237e-15
-2.30849e-15
-1.42712e-15
3.53116e-09
9.71658e-08
8.52557e-07
8.52438e-07
2.30517e-07
1.25498e-10
5.25534e-11
5.67777e-11
5.31241e-11
4.31235e-11
2.76242e-11
1.09858e-11
1.86391e-12
8.60736e-14
4.37119e-16
-1.72103e-15
-2.99154e-15
-3.12305e-15
-2.592e-15
-1.86569e-15
-1.2141e-15
-7.33225e-16
-4.20403e-16
3.53118e-09
3.92919e-09
6.03009e-07
4.98976e-07
8.37476e-08
1.91193e-10
5.40528e-11
5.4492e-11
4.79413e-11
3.61384e-11
1.98753e-11
5.82137e-12
5.89819e-13
1.2865e-14
1.55291e-37
-7.68451e-16
-1.15382e-15
-1.12441e-15
-8.87594e-16
-6.09832e-16
-3.77856e-16
-2.16048e-16
-1.16064e-16
3.54747e-09
3.54749e-09
1.94864e-08
4.74342e-09
6.5304e-10
1.33081e-10
6.03114e-11
4.94466e-11
3.99542e-11
2.64382e-11
1.11093e-11
1.98677e-12
9.48907e-14
6.74507e-16
-6.93402e-17
-3.56561e-16
-4.3441e-16
-3.86131e-16
-2.8548e-16
-1.84879e-16
-1.07929e-16
-5.78983e-17
-2.89676e-17
3.49331e-09
3.55739e-09
9.93714e-10
1.8672e-10
5.84763e-11
5.84237e-11
5.00231e-11
4.09671e-11
2.97854e-11
1.5508e-11
4.09544e-12
3.43959e-13
5.73112e-15
8.32222e-18
-8.72626e-17
-1.49762e-16
-1.54559e-16
-1.24566e-16
-8.51209e-17
-5.12837e-17
-2.78878e-17
-1.39126e-17
-6.44759e-18
2.5337e-09
3.25231e-09
1.40228e-09
3.64686e-10
8.33328e-11
4.63956e-11
3.81591e-11
2.9468e-11
1.74975e-11
5.93238e-12
7.47794e-13
2.1799e-14
8.33755e-17
-6.08018e-18
-4.61081e-17
-5.73434e-17
-5.09919e-17
-3.70311e-17
-2.31441e-17
-1.28225e-17
-6.42145e-18
-2.94832e-18
-1.25493e-18
8.63767e-10
1.77999e-09
1.11957e-09
3.68853e-10
8.77259e-11
3.90827e-11
2.65207e-11
1.62871e-11
6.40139e-12
1.06157e-12
4.64987e-14
3.62745e-16
3.09211e-19
-1.21131e-17
-1.95736e-17
-1.95904e-17
-1.52597e-17
-9.94935e-18
-5.63574e-18
-2.83985e-18
-1.29443e-18
-5.40498e-19
-2.08873e-19
8.92348e-11
3.30641e-10
3.43479e-10
1.78593e-10
5.72723e-11
2.43983e-11
1.30061e-11
5.27065e-12
1.0272e-12
5.99294e-14
7.14329e-16
1.12947e-18
-2.54222e-18
-6.10204e-18
-7.02735e-18
-5.94524e-18
-4.07645e-18
-2.37307e-18
-1.20693e-18
-5.46947e-19
-2.24085e-19
-8.39599e-20
-2.90488e-20
3.73529e-12
1.46226e-11
2.61744e-11
2.34426e-11
1.43127e-11
7.60847e-12
3.17553e-12
6.92468e-13
4.98072e-14
8.13376e-16
2.30399e-18
2.80667e-22
-1.68192e-18
-2.3404e-18
-2.18746e-18
-1.59265e-18
-9.59116e-19
-4.94521e-19
-2.23437e-19
-8.99387e-20
-3.26596e-20
-1.0812e-20
-3.29396e-21
3.13203e-13
7.48298e-13
9.89409e-13
1.11774e-12
1.1461e-12
7.77308e-13
2.45609e-13
2.50905e-14
5.95824e-16
3.21878e-18
2.61175e-21
-3.9471e-19
-7.51424e-19
-7.70611e-19
-5.97586e-19
-3.74556e-19
-1.96655e-19
-8.88547e-20
-3.52176e-20
-1.24097e-20
-3.9284e-21
-1.12791e-21
-2.96522e-22
1.96161e-14
6.77217e-14
6.3139e-14
4.84639e-14
3.46944e-14
1.81646e-14
3.73028e-15
1.92858e-16
2.3311e-18
4.72223e-21
-6.84253e-20
-2.14255e-19
-2.75535e-19
-2.25305e-19
-1.44175e-19
-7.71723e-20
-3.492e-20
-1.36371e-20
-4.66773e-21
-1.41411e-21
-3.82166e-22
-9.29466e-23
-2.05494e-23
2.57226e-16
2.10082e-15
1.85878e-15
1.0846e-15
3.919e-16
9.67152e-17
1.20505e-17
5.37996e-19
4.34467e-21
-7.0607e-21
-4.82659e-20
-8.71912e-20
-8.87933e-20
-5.97567e-20
-3.1091e-20
-1.39894e-20
-5.36944e-21
-1.77967e-21
-5.15312e-22
-1.31022e-22
-2.93839e-23
-5.86269e-24
-1.05293e-24
3.09666e-19
7.96088e-18
9.52808e-18
5.96227e-18
1.73281e-18
2.93928e-19
3.28991e-20
1.0078e-21
1.74949e-24
-8.28464e-21
-2.21892e-20
-3.04745e-20
-2.59524e-20
-1.47972e-20
-6.29966e-21
-2.29254e-21
-7.25375e-22
-1.98132e-22
-4.70149e-23
-9.67074e-24
-1.72402e-24
-2.69051e-25
-3.73305e-26
3.93997e-23
2.12645e-21
8.26276e-21
9.40165e-21
5.1639e-21
1.09322e-21
5.18587e-23
5.41978e-25
-1.16607e-21
-4.44632e-21
-8.44512e-21
-9.58719e-21
-7.04434e-21
-3.49603e-21
-1.24489e-21
-3.51957e-22
-8.79534e-23
-1.88672e-23
-3.47986e-24
-5.43852e-25
-7.15736e-26
-8.06638e-27
-7.97134e-28
-6.45985e-24
0
1.32528e-25
3.25042e-24
5.98273e-24
9.55411e-25
-5.79696e-23
-2.4645e-22
-7.84932e-22
-1.86663e-21
-2.84432e-21
-2.78643e-21
-1.81407e-21
-8.03187e-22
-2.46446e-22
-5.49915e-23
-1.001e-23
-1.54597e-24
-1.98606e-25
-2.05294e-26
-1.69544e-27
-1.16868e-28
-6.99053e-30
-4.18345e-25
-6.27717e-24
-1.41701e-23
-1.77646e-23
-3.27394e-23
-6.02085e-23
-1.09703e-22
-1.89363e-22
-3.7252e-22
-6.73691e-22
-8.72104e-22
-7.61981e-22
-4.52434e-22
-1.8446e-22
-5.16363e-23
-9.87487e-24
-1.28056e-24
-1.16081e-25
-6.79312e-27
-2.63185e-28
-7.78516e-30
-1.93545e-31
-4.20868e-33
1
1
1
1
0.994973
0.991331
0.989476
0.987702
0.422989
0.428621
0.433245
0.441023
0.00217456
0.00416954
0.00554074
0.00483469
0.000467335
0.00315999
0.00528589
0.00363947
0.00149486
0.00319609
0.00300224
0.00257868
0.00211017
0.0021117
0.000518198
0.000949773
0.00131446
0.000678244
1.48613e-05
3.00393e-06
7.13909e-05
9.68023e-06
1.5126e-05
2.90835e-06
3.86872e-08
3.45956e-08
4.2186e-06
2.36923e-06
3.45956e-08
3.29921e-08
3.1393e-08
3.29494e-07
2.4014e-06
4.17767e-07
3.11907e-08
3.09846e-08
6.97122e-06
6.16986e-06
9.41602e-07
3.10042e-08
1.98676e-06
2.2994e-06
1.02438e-06
8.20273e-08
1.58602e-10
1.80183e-08
1.35117e-07
1.01799e-07
1.37705e-10
9.37485e-10
2.91859e-09
8.01758e-09
7.37043e-11
4.19481e-11
2.08886e-11
1.21079e-11
3.58231e-11
2.29548e-11
1.60951e-11
1.11422e-11
4.83108e-12
4.39478e-12
4.18777e-12
3.51576e-12
3.77872e-14
6.29029e-14
9.12993e-14
1.16514e-13
-7.9611e-14
-5.70673e-14
-3.95038e-14
-2.52891e-14
-7.02864e-14
-5.42831e-14
-4.18054e-14
-3.2813e-14
-4.40638e-14
-3.45976e-14
-2.66503e-14
-2.06852e-14
-2.22673e-14
-1.77352e-14
-1.37012e-14
-1.03191e-14
-9.4123e-15
-7.50918e-15
-5.84088e-15
-4.31058e-15
-3.40204e-15
-2.66703e-15
-2.06791e-15
-1.53416e-15
-1.08071e-15
-8.16512e-16
-6.13169e-16
-4.58548e-16
-3.0948e-16
-2.23262e-16
-1.59463e-16
-1.13298e-16
-8.12116e-17
-5.55367e-17
-3.7375e-17
-2.48607e-17
-1.92383e-17
-1.24384e-17
-7.86693e-18
-4.88262e-18
-4.05262e-18
-2.47226e-18
-1.46883e-18
-8.51607e-19
-7.42091e-19
-4.25028e-19
-2.36423e-19
-1.27912e-19
-1.15116e-19
-6.13425e-20
-3.16828e-20
-1.58829e-20
-1.47368e-20
-7.21451e-21
-3.41658e-21
-1.56754e-21
-1.5143e-21
-6.70183e-22
-2.86263e-22
-1.18219e-22
-1.21095e-22
-4.74635e-23
-1.79051e-23
-6.5145e-24
-7.26336e-24
-2.45453e-24
-7.95591e-25
-2.47969e-25
-3.10893e-25
-8.73537e-26
-2.34417e-26
-6.02622e-27
-8.74875e-27
-1.94098e-27
-4.09174e-28
-8.22331e-29
-1.36699e-28
-2.20782e-29
-3.36766e-30
-4.86101e-31
-7.47579e-31
-7.49435e-32
-7.04087e-33
-6.21051e-34
-1.69299e-34
-6.32436e-36
-2.17547e-37
-6.8932e-39
1
1
1
0.994582
0.973375
0.967327
0.953921
0.944929
0.961994
0.979613
0.995868
0.998182
0.998307
0.998307
0.998309
0.998307
0.998263
0.98257
0.939403
0.976741
0.947161
0.922053
0.911552
0.918521
0.925615
0.921517
0.911928
0.90926
0.919414
0.930445
0.940167
0.9453
0.944362
0.943541
0.965578
0.979676
0.978521
0.959623
0.455205
0.473551
0.486359
0.495797
0.502694
0.507478
0.52143
0.53218
0.529508
0.508634
0.485583
0.468781
0.455483
0.444847
0.435953
0.425716
0.431334
0.454801
0.47452
0.00489214
0.00590061
0.00987099
0.011944
0.0115144
0.00962557
0.00749154
0.00542656
0.00203514
0.000811915
0.00081174
0.000811696
0.000811694
0.000811692
0.000811663
0.000811587
0.000811533
0.000811539
0.000811536
0.00253378
0.000814365
0.00081426
0.000814216
0.00121402
0.00185891
0.00114668
0.00114739
0.00114975
0.00107911
0.000954672
0.000842022
0.000811696
0.000811693
0.000838033
0.000862217
0.000856712
0.000811533
0.000811539
0.00145305
0.00081426
0.000814217
0.000814217
0.00145728
0.00226576
0.00226563
0.00226584
0.00226564
0.00226502
0.00226397
0.00226231
0.00164937
0.00136359
0.00157736
0.00157744
0.00157713
0.00101735
0.000952056
0.00145989
0.00163942
0.0016497
0.0017415
0.00174336
0.00171455
0.00169635
0.00147903
0.00126848
0.00112908
0.00106782
0.000907065
0.00104714
0.000962693
0.000873978
0.000788493
0.000757435
0.0006469
0.000900023
0.000781838
0.000840954
0.000891929
0.000983075
0.000673777
9.6468e-05
2.9473e-05
6.08743e-05
2.45566e-05
2.08592e-06
2.08725e-06
2.08592e-06
3.25501e-05
1.14203e-05
1.53854e-06
1.5385e-06
1.56777e-05
0.000264867
0.000214803
7.6053e-06
8.97612e-07
4.60437e-06
2.21399e-06
1.21177e-08
3.75571e-07
1.38453e-06
1.37749e-06
2.15463e-06
2.48045e-06
2.08592e-06
3.5207e-06
2.10903e-05
4.23479e-05
7.19e-06
1.53845e-06
1.53839e-06
1.53839e-06
1.53839e-06
3.73286e-08
1.22364e-08
1.21406e-08
1.22798e-08
1.21152e-08
1.21177e-08
1.21815e-08
1.22727e-08
9.54762e-07
9.78391e-07
7.61026e-06
6.19471e-05
7.39305e-05
7.39305e-05
1.98437e-05
1.5385e-06
1.53845e-06
1.53839e-06
1.53839e-06
3.47752e-08
1.21406e-08
1.2114e-08
1.21139e-08
1.21153e-08
4.547e-06
1.85444e-05
9.86495e-06
9.55481e-07
1.80123e-05
7.38049e-05
7.38109e-05
7.03836e-05
1.45456e-05
5.44249e-06
1.04942e-05
1.3444e-05
3.15836e-06
2.12761e-06
1.19356e-07
2.03691e-08
1.21113e-08
1.2114e-08
8.28294e-06
2.25383e-05
2.2638e-05
2.24178e-05
9.27382e-06
5.30225e-05
7.38109e-05
6.41405e-05
4.76197e-06
7.68448e-06
2.6188e-05
4.61795e-05
4.61897e-05
3.62286e-05
3.36767e-05
6.33591e-08
1.27881e-08
1.21113e-08
1.21113e-08
1.03702e-05
2.26422e-05
2.26422e-05
1.5609e-05
5.08129e-06
2.62357e-05
3.29077e-05
5.98999e-06
5.19121e-07
2.98399e-05
4.61769e-05
4.61897e-05
4.25386e-05
4.25522e-05
4.24978e-05
7.75903e-08
1.21165e-08
1.21113e-08
1.2734e-07
3.56283e-06
1.11944e-05
1.06487e-05
1.27369e-06
8.91116e-09
5.05646e-08
1.70095e-10
9.85113e-10
4.23707e-07
2.94598e-05
4.6184e-05
3.201e-05
8.53619e-10
1.61118e-06
2.51791e-05
5.77191e-08
3.42146e-08
1.27743e-07
1.46209e-07
5.66537e-08
2.89605e-08
3.11405e-09
1.62947e-10
1.59503e-10
1.59554e-10
1.646e-10
2.96661e-10
5.09908e-07
9.98963e-06
1.24414e-05
1.59712e-10
1.62478e-10
6.2012e-07
5.71243e-06
1.0915e-08
2.23226e-08
3.56956e-08
3.83626e-08
9.11665e-08
1.72548e-07
1.10497e-08
1.59503e-10
1.59465e-10
1.59465e-10
1.59557e-10
3.16623e-09
2.00628e-07
1.99524e-07
1.58067e-10
1.58056e-10
1.59712e-10
1.86081e-06
8.41954e-06
1.00149e-10
9.04267e-10
1.35402e-11
2.88962e-08
2.76835e-07
3.08228e-07
2.8055e-07
5.85789e-08
1.59465e-10
1.59463e-10
1.59465e-10
2.18273e-09
1.2664e-08
1.58067e-10
1.5805e-10
1.61345e-10
1.61406e-10
1.77746e-08
6.60809e-06
6.19733e-12
2.36408e-12
1.4759e-12
4.3191e-09
1.4301e-07
3.08206e-07
3.08228e-07
3.08199e-07
6.63295e-08
1.59464e-10
1.59463e-10
1.58843e-10
1.58135e-10
1.5805e-10
1.74923e-10
2.46751e-10
1.63265e-10
1.09779e-09
2.256e-06
2.53809e-12
1.84399e-12
1.3808e-12
1.52161e-11
2.9209e-09
8.27018e-08
1.77889e-07
1.72495e-07
8.00391e-08
2.47396e-08
6.08503e-08
4.53373e-08
6.90504e-09
2.62833e-10
2.59827e-10
2.95909e-10
1.68187e-10
2.46545e-09
1.71516e-05
1.92449e-13
3.34296e-13
3.31377e-13
4.81393e-14
5.52056e-12
5.25462e-11
1.12772e-09
1.28187e-09
9.07181e-09
6.19073e-08
9.54169e-08
9.54167e-08
5.57914e-08
1.67143e-09
2.64648e-10
2.93163e-10
1.15767e-10
4.0827e-12
1.71516e-05
-1.10807e-14
3.8066e-15
8.22707e-15
1.65223e-15
1.43126e-34
1.36697e-15
5.67557e-15
1.38045e-13
7.09795e-13
1.36028e-08
5.26743e-08
7.17695e-08
3.07633e-08
2.01092e-09
2.74654e-10
2.38201e-10
4.30527e-11
3.53625e-12
1.71324e-05
-2.64316e-14
-1.41769e-14
-6.97096e-15
-3.17723e-15
-7.83983e-19
0
3.48063e-15
1.36105e-13
9.08272e-13
9.15169e-13
4.70184e-10
7.62021e-10
5.95906e-12
1.43167e-10
1.9349e-10
1.04962e-10
1.31472e-11
3.5293e-12
1.68015e-05
-1.68824e-14
-1.03891e-14
-6.1606e-15
-3.49625e-15
-1.81896e-15
-7.65365e-16
1.39407e-16
1.50889e-14
2.59165e-13
1.6233e-12
3.34801e-12
2.71036e-12
5.95498e-12
1.47597e-11
1.87746e-11
1.95553e-11
7.57343e-12
3.52637e-12
1.67955e-05
-8.08318e-15
-5.09472e-15
-3.15304e-15
-1.91861e-15
-1.14361e-15
-6.49501e-16
-3.06057e-16
3.27002e-17
1.08709e-14
1.77486e-13
8.69748e-13
2.71018e-12
5.96315e-12
5.33662e-12
5.06735e-12
8.22839e-12
4.54639e-12
3.5259e-12
1.54446e-05
-3.09521e-15
-1.92961e-15
-1.18914e-15
-7.24308e-16
-4.35728e-16
-2.62384e-16
-1.53223e-16
-7.51408e-17
7.25277e-17
3.57678e-15
3.29172e-14
1.60237e-13
5.71252e-13
1.0603e-12
1.6911e-12
4.40788e-12
3.5259e-12
3.52637e-12
1.66987e-06
-9.80392e-16
-5.89355e-16
-3.4801e-16
-2.03681e-16
-1.19296e-16
-7.04801e-17
-4.10952e-17
-2.14745e-17
-3.16087e-18
1.35185e-16
1.21343e-15
6.52965e-15
2.94493e-14
1.14504e-13
5.1866e-13
3.03816e-12
3.54297e-12
3.58032e-12
3.58037e-12
-2.53011e-16
-1.44988e-16
-8.34519e-17
-4.77289e-17
-2.70492e-17
-1.51815e-17
-8.29195e-18
-3.69777e-18
1.20781e-18
3.15436e-17
2.31638e-16
1.50255e-15
9.4635e-15
5.08517e-14
3.52888e-13
2.87393e-12
5.34146e-12
3.79351e-12
3.6917e-12
-5.73598e-17
-3.0086e-17
-1.60515e-17
-8.6148e-18
-4.59981e-18
-2.37635e-18
-1.13242e-18
-2.21583e-19
2.51919e-18
2.26673e-17
1.59676e-16
1.05202e-15
6.94744e-15
3.96241e-14
3.16789e-13
3.98246e-12
1.06561e-11
3.7983e-12
2.2727e-07
-1.11846e-17
-5.16253e-18
-2.44204e-18
-1.1659e-18
-5.36346e-19
-8.34652e-20
4.22083e-20
5.16975e-19
2.99975e-18
2.00925e-17
1.39899e-16
9.29558e-16
6.25503e-15
3.64563e-14
3.19521e-13
6.15488e-12
1.65242e-11
3.80778e-12
9.96562e-06
-1.93533e-18
-7.69406e-19
-3.07661e-19
-9.82703e-20
6.98498e-21
4.04459e-19
2.48843e-18
8.44787e-18
2.04746e-17
4.82897e-17
1.69833e-16
9.32452e-16
6.17305e-15
3.5959e-14
4.82607e-13
8.8814e-12
2.08177e-11
3.84573e-12
1.4479e-05
-3.00058e-19
-1.03332e-19
-3.11311e-20
2.61829e-20
6.93655e-19
5.05414e-18
2.46079e-17
9.01957e-17
2.49548e-16
5.40064e-16
1.0726e-15
2.72958e-15
1.10614e-14
5.49154e-14
7.92475e-13
1.16262e-11
2.23724e-11
3.86766e-12
1.44801e-05
-4.04538e-20
-1.22243e-20
-2.70515e-22
1.97124e-19
3.04239e-18
2.60118e-17
1.44699e-16
5.95262e-16
1.86954e-15
4.58616e-15
9.45997e-15
1.93438e-14
4.83358e-14
1.48622e-13
1.18672e-12
1.33129e-11
2.23746e-11
3.8803e-12
1.42078e-05
-4.50093e-21
-1.14186e-21
8.58039e-21
4.47385e-19
9.29258e-18
1.01294e-16
6.70761e-16
3.10587e-15
1.09134e-14
2.97667e-14
6.94659e-14
1.475e-13
2.99809e-13
5.83603e-13
1.76706e-12
1.20977e-11
2.14259e-11
3.90056e-12
1.42061e-05
-3.93311e-22
-4.7542e-23
1.10965e-20
7.76208e-19
2.1429e-17
3.03343e-16
2.49257e-15
1.33061e-14
5.40114e-14
1.69873e-13
4.39526e-13
9.31677e-13
1.63641e-12
2.48905e-12
3.57654e-12
1.10291e-11
1.56687e-11
3.91876e-12
1.40676e-05
-2.57906e-23
3.71492e-23
1.16208e-20
1.04886e-18
3.8315e-17
7.04156e-16
7.33375e-15
4.64667e-14
2.23995e-13
8.63831e-13
2.41324e-12
4.50969e-12
6.33312e-12
8.14086e-12
9.68998e-12
1.35886e-11
1.24419e-11
3.9351e-12
7.18036e-06
-1.20595e-24
1.68987e-23
8.03068e-21
1.15457e-18
5.40538e-17
1.27253e-15
1.71465e-14
1.35626e-13
7.83884e-13
3.69782e-12
1.09989e-11
1.61356e-11
1.74983e-11
2.03369e-11
2.60262e-11
2.77421e-11
3.49423e-11
3.94672e-12
5.57989e-06
-3.72853e-26
8.17665e-24
3.49966e-21
8.75971e-19
6.11824e-17
1.77403e-15
3.20178e-14
3.43411e-13
2.38059e-12
1.24737e-11
3.79694e-11
4.29275e-11
4.01328e-11
4.7394e-11
7.68316e-11
3.0937e-10
3.05187e-10
3.97451e-12
6.44022e-06
-6.13614e-28
3.11596e-24
1.51557e-21
3.6361e-19
4.79388e-17
1.94833e-15
4.66581e-14
7.33443e-13
5.93926e-12
3.07872e-11
8.59494e-11
9.42661e-11
8.77864e-11
1.21573e-10
3.44374e-10
2.29784e-09
2.14806e-09
1.043e-09
6.74953e-06
1.2536e-29
7.53568e-25
3.93599e-22
1.41198e-19
2.09162e-17
1.20842e-15
5.25286e-14
1.18577e-12
1.05797e-11
5.19437e-11
1.27592e-10
1.52743e-10
1.63552e-10
2.21217e-10
1.9565e-09
3.28445e-09
3.10047e-09
3.55394e-10
6.73511e-06
2.33543e-30
9.94221e-26
4.95184e-23
2.94745e-20
7.1333e-18
4.30989e-16
3.09171e-14
1.38036e-12
1.28847e-11
6.11961e-11
1.36998e-10
1.72624e-10
2.11409e-10
3.26563e-10
1.80453e-09
1.61152e-09
8.459e-10
3.55586e-10
6.73463e-06
-2.21569e-35
5.12972e-30
8.48595e-25
2.50598e-21
8.8388e-19
7.55209e-17
5.99719e-15
7.07483e-13
7.54177e-12
3.45253e-11
7.42998e-11
1.11315e-10
1.49684e-10
8.79679e-16
2.75408e-09
3.66928e-08
1.82934e-08
3.55394e-10
6.55865e-06
-8.71103e-41
2.74792e-40
1.61636e-31
7.43632e-26
4.19315e-22
2.9443e-19
1.35959e-16
2.55069e-14
2.85994e-13
1.73476e-12
5.24164e-12
9.68378e-12
8.01894e-12
1.00974e-31
1.78196e-08
3.9826e-08
3.74161e-08
3.65296e-10
1.33769e-06
)
;

boundaryField
{
    leftWall
    {
        type            zeroGradient;
    }
    rightWall
    {
        type            zeroGradient;
    }
    lowerWall
    {
        type            zeroGradient;
    }
    atmosphere
    {
        type            inletOutlet;
        inletValue      uniform 0;
        value           nonuniform List<scalar> 
46
(
0
0
-1.41701e-23
-1.77646e-23
-3.27394e-23
-6.02085e-23
-1.09703e-22
-1.89363e-22
-3.7252e-22
-6.73691e-22
-8.72104e-22
-7.61981e-22
-4.52434e-22
-1.8446e-22
-5.16363e-23
-9.87487e-24
-1.28056e-24
-1.16081e-25
0
0
0
0
0
0
0
0
0
0
0
0
0
0
0
0
0
0
0
0
0
0
0
0
0
0
3.65296e-10
1.33769e-06
)
;
    }
    defaultFaces
    {
        type            empty;
    }
}


// ************************************************************************* //
