/*--------------------------------*- C++ -*----------------------------------*\
  =========                 |
  \\      /  F ield         | OpenFOAM: The Open Source CFD Toolbox
   \\    /   O peration     | Website:  https://openfoam.org
    \\  /    A nd           | Version:  9
     \\/     M anipulation  |
\*---------------------------------------------------------------------------*/
FoamFile
{
    format      ascii;
    class       volScalarField;
    location    "13.85";
    object      p;
}
// * * * * * * * * * * * * * * * * * * * * * * * * * * * * * * * * * * * * * //

dimensions      [0 2 -2 0 0 0 0];

internalField   nonuniform List<scalar> 
918
(
23.4487
23.6225
0.987083
22.8659
0.995981
23.139
3.33147
13.8077
19.2218
2.95338
2.64668
14.3877
20.6819
16.9233
13.0425
0.927935
14.0486
2.2835
18.4393
1.40516
13.0361
20.4274
21.5161
19.2637
14.1038
14.4151
18.6443
1.18578
0.114514
0.276869
0.968792
0.409299
0.155875
21.6759
22.3525
22.2908
15.4749
10.4341
3.65146
3.85314
3.04196
2.86273
13.8477
13.9453
5.89583
13.79
13.7879
16.6236
19.0899
19.2334
19.5268
19.3157
19.7021
5.96539
2.81078
2.63018
2.90052
2.97047
2.97252
2.72178
2.70178
2.50712
2.36089
13.8686
14.4608
14.5157
14.2475
14.1954
22.4985
21.7416
22.0763
21.1827
21.3281
20.258
19.8724
17.299
17.6514
16.5252
16.1443
12.8321
12.792
13.2635
13.5118
0.148378
1.07453
1.22241
14.0539
14.0882
14.0948
14.1113
8.30931
2.23166
2.23544
17.8796
17.4561
20.4611
20.7283
20.1753
19.9898
1.5432
1.54184
1.17197
1.19476
0.963372
13.372
13.5241
19.2151
18.3821
14.1353
14.0366
14.1105
11.4843
13.8931
13.9675
15.3684
15.8234
15.0119
15.449
18.2142
17.7962
19.0808
19.518
0.406218
0.160016
0.692155
0.323048
0.520599
15.3432
15.138
15.5899
15.6416
15.8728
10.4373
10.364
10.4145
10.3345
4.19633
4.50818
2.30409
2.62615
2.47202
9.90494
13.9592
14.0025
4.85095
5.5474
5.21653
6.36858
6.74022
15.9894
16.4259
16.1647
17.7109
16.9158
17.264
19.7928
19.282
19.5825
6.36243
6.60491
5.59895
5.24192
2.27501
2.51519
2.45804
3.00278
2.98085
3.20393
3.33681
2.68957
2.54718
2.91534
2.7994
2.85046
2.18992
2.0578
13.5928
13.3789
14.1313
14.3098
15.0754
14.9272
14.6339
14.8025
19.0675
19.471
19.5045
19.1203
11.5821
10.1728
13.7666
14.0413
0.303977
0.267654
0.136136
0.379082
0.398531
0.1426
2.01197
1.82326
1.40402
1.67819
14.048
14.006
8.55179
8.77434
8.14349
7.88422
16.2936
16.4439
17.0781
16.6779
1.98192
1.69377
1.82402
13.681
13.557
13.6625
10.9205
10.3571
11.9606
12.2297
13.9801
14.021
14.0182
15.7278
16.0462
19.8689
20.1395
19.9664
20.3522
21.415
21.0663
20.6815
14.5195
14.9277
14.7662
16.1073
15.7409
15.9603
15.1681
15.4729
15.3307
10.3943
10.4394
10.1564
10.2337
10.2799
10.2277
9.84172
9.71449
14.081
14.0418
14.0624
7.26214
7.75732
4.86111
4.53211
12.5255
13.1982
12.8742
18.6973
18.0196
18.7526
18.3817
17.9317
18.2552
10.4493
10.408
10.4425
14.9641
14.3029
14.6542
2.43172
2.07124
2.23505
8.97206
9.06524
6.97702
7.60219
7.26266
16.3478
16.6882
17.3683
16.4801
16.9477
17.455
17.2331
9.97857
10.1107
10.0276
9.69923
9.59183
9.72665
8.33639
8.94638
3.60214
4.25742
3.95463
9.23421
9.46704
9.31309
18.6097
19.1445
0.781238
1.18486
19.5743
19.298
0.146449
0.243462
14.3003
12.5919
7.27702
17.1765
16.6097
18.9492
3.20051
6.1031
2.82371
3.37878
2.68735
14.594
14.2308
13.3229
0.46285
1.25804
1.71498
2.92527
18.3901
17.715
18.831
19.1511
19.2055
0.693581
0.928408
0.587298
1.25939
1.04269
1.2842
15.5312
15.628
4.36904
18.8379
19.1421
19.1599
17.6365
18.5892
17.6467
0.936368
0.64252
0.713625
10.071
12.1077
14.2607
13.8129
14.0104
14.0326
13.7838
14.9165
14.587
14.551
15.0352
13.9787
13.8445
7.73654
6.40129
8.07401
7.71375
17.0779
16.6657
16.4732
16.219
18.0644
17.5904
18.4408
17.8291
18.291
18.5778
2.95811
3.1454
3.026
2.54153
6.14354
6.61464
5.48673
5.62998
4.25403
2.45492
2.54646
2.76646
2.60396
2.93514
2.68309
2.94301
2.57695
2.32498
2.32195
2.93089
2.74297
2.60566
14.5721
14.511
14.3119
14.35
14.3349
14.4501
13.5171
13.9209
13.5484
12.3836
12.9615
12.4887
0.826631
0.657329
0.530326
1.32918
1.35566
1.12101
0.847013
1.188
1.2053
0.834957
1.54428
1.46183
3.18091
2.68014
8.87218
7.99446
6.89792
16.7803
17.582
16.7517
17.9922
18.4092
18.5146
18.1351
17.6269
15.7086
15.7038
15.3639
15.3171
4.794
3.77296
4.99287
4.56886
10.5083
14.0528
11.828
10.7918
11.085
13.4025
13.9768
13.626
13.7706
13.3389
12.8646
13.5625
13.0929
13.1941
12.9684
15.7644
16.2395
15.846
15.2665
15.2865
10.6225
12.0208
5.49267
5.65824
7.24335
6.54296
13.5472
13.9413
13.9234
13.5799
13.7728
13.7587
13.6195
13.7899
13.8795
13.7715
11.8119
10.1321
9.0395
9.0341
14.0737
12.3405
12.9295
12.395
16.0994
16.6161
16.2307
15.6262
16.111
15.5829
15.6094
15.8221
17.1809
16.9304
16.7003
17.0872
3.07357
3.02042
3.6553
3.15295
3.05339
2.84144
3.49599
4.75898
4.41922
6.72256
7.26514
4.58192
3.39565
3.80097
4.80734
5.53871
5.52057
3.97335
4.49785
4.92335
4.43973
5.22121
4.72469
2.73079
3.03222
2.87512
2.85092
3.38227
3.87447
3.37297
2.48844
2.60608
2.27878
2.14102
3.53811
3.01111
3.04656
3.68397
1.10969
1.33253
1.44847
2.41827
1.91628
1.97745
15.1614
14.8053
14.939
14.2179
14.2864
14.2278
13.8512
15.2201
14.9425
15.0417
13.6908
13.7775
13.5911
13.8858
14.2996
14.5991
15.4316
15.1524
14.3916
14.5433
14.1947
14.1227
13.4464
12.8818
12.8221
1.11272
0.820103
0.986881
0.922929
0.613864
0.80862
2.18277
1.57502
1.97588
1.72633
1.95862
1.42075
1.30477
4.2608
5.05559
3.98259
3.39001
3.10607
8.92803
9.04182
8.18206
7.87318
8.21667
8.45304
8.40267
7.14416
7.57995
7.38926
9.95411
9.61881
17.5662
17.5104
17.1817
17.0227
17.2491
5.77403
7.65497
6.80484
7.92343
10.2333
10.5364
9.31743
8.71772
9.47974
9.54823
14.0355
14.1131
13.5494
14.0354
14.0631
11.816
12.8656
13.478
13.2894
13.8136
13.8965
12.9619
13.5479
13.4555
12.7349
12.7919
12.1104
12.4467
11.9732
11.7748
14.0344
13.9298
14.1994
13.7498
14.1289
13.6956
14.0091
14.0093
14.2899
13.3899
12.8128
12.8337
13.2578
12.955
13.3023
13.4642
9.3043
9.95482
10.4092
10.9487
10.6593
10.4352
10.3011
10.6053
10.5854
10.8531
10.773
10.6194
11.562
13.4599
13.7419
13.8514
13.6295
13.6743
13.3682
13.6473
13.5725
13.9178
14.012
14.0588
13.1437
13.3092
13.5127
13.3923
11.6727
10.0728
9.93657
9.49843
7.5705
8.04593
11.0071
9.89567
8.9144
8.98173
12.1536
10.7899
11.6009
12.0232
10.6759
10.2906
12.9586
13.7525
13.97
13.6877
12.0446
12.1728
12.6233
13.0725
13.2662
13.7293
15.8401
16.4154
16.4934
16.2176
16.0795
16.179
15.929
16.0322
16.5063
16.6328
16.464
2.89897
3.01001
2.94307
2.86794
3.09816
2.87916
3.96057
3.95155
3.16912
3.34793
3.36615
3.47507
2.94611
2.9882
4.82083
5.05364
5.32927
4.83353
6.17223
6.82399
7.40541
7.08789
5.78655
5.86608
6.18279
3.51151
3.53172
3.25305
3.70457
3.76302
2.62583
2.25495
2.0555
2.58045
2.67913
2.06415
1.78328
1.83549
2.33994
2.07202
1.82236
14.9549
14.7135
14.7348
14.5147
14.5693
14.9636
15.1843
14.994
15.1321
15.183
14.7827
14.671
14.8423
1.82334
1.48371
1.63453
1.59103
1.63602
1.55124
1.73653
7.61043
6.40996
6.79234
5.9828
4.13587
4.64892
9.57104
9.99604
10.0348
9.74646
9.53332
9.89754
9.75237
9.74577
8.2727
9.35357
8.8812
9.29399
9.31655
9.38571
9.09099
9.07347
10.5831
10.6122
9.47772
10.1253
9.32798
7.93349
8.09743
9.10772
10.0773
10.4327
10.2732
9.99082
9.76442
10.144
10.1952
10.2613
10.2515
8.75418
8.70433
8.29374
13.958
13.8671
14.0149
14.0181
14.1485
13.9603
13.7973
14.076
14.1311
13.9139
11.102
11.1646
11.4106
12.1681
12.2215
12.103
11.349
13.1289
12.7753
13.428
13.3692
13.4298
13.0126
12.8396
13.1185
10.0667
11.4382
10.9686
11.2344
10.0501
9.29897
13.2188
13.2688
13.3436
13.6196
13.5682
14.1572
15.8099
15.6796
15.7273
15.7704
15.382
15.419
4.17672
3.83399
4.54689
4.50757
4.06905
3.77274
2.29167
1.97779
1.79422
1.66753
1.89195
1.95216
8.1591
8.19218
6.32952
7.35655
5.89071
4.95281
4.80676
5.95892
7.13825
7.20353
8.52396
9.2153
8.77104
8.59846
7.93161
8.26569
10.152
10.2437
10.1451
10.4648
9.99768
11.7418
11.3237
11.6747
13.298
12.9993
12.3974
12.2853
12.2554
12.8544
11.9411
11.1633
11.8807
12.5512
12.5071
11.1435
10.8974
11.3241
11.3006
10.2108
10.7391
10.4999
10.8493
10.5553
)
;

boundaryField
{
    wall-4
    {
        type            zeroGradient;
    }
    velocity-inlet-5
    {
        type            zeroGradient;
    }
    velocity-inlet-6
    {
        type            zeroGradient;
    }
    pressure-outlet-7
    {
        type            fixedValue;
        value           uniform 0;
    }
    wall-8
    {
        type            zeroGradient;
    }
    frontAndBackPlanes
    {
        type            empty;
    }
}


// ************************************************************************* //
