/*--------------------------------*- C++ -*----------------------------------*\
  =========                 |
  \\      /  F ield         | OpenFOAM: The Open Source CFD Toolbox
   \\    /   O peration     | Website:  https://openfoam.org
    \\  /    A nd           | Version:  9
     \\/     M anipulation  |
\*---------------------------------------------------------------------------*/
FoamFile
{
    format      ascii;
    class       volScalarField;
    location    "4.36";
    object      alpha.water;
}
// * * * * * * * * * * * * * * * * * * * * * * * * * * * * * * * * * * * * * //

dimensions      [0 0 0 0 0 0 0];

internalField   nonuniform List<scalar> 
2268
(
1
0.999999
0.999999
0.999999
0.999999
0.999999
1
0.999999
0.999998
0.999999
1
1
1
1
1
1
1
0.999489
0.999279
0.997345
0.996139
0.995543
0.995451
0.999999
0.999999
0.999998
0.999998
1
0.999999
0.999998
0.999998
0.999998
0.999999
1
1
1
1
1
1
0.999912
0.997109
0.986681
0.997882
0.999976
0.999995
0.998776
0.999998
0.999998
0.999998
0.999999
1
0.999999
1
0.999999
1
1
1
1
1
1
1
1
0.997721
0.981869
0.979795
0.982859
0.996199
0.999995
0.999995
0.999999
0.999999
0.999999
1
1
1
1
1
1
1
1
1
1
1
1
1
0.999028
0.979795
0.979795
0.979795
0.990445
0.999993
0.999968
1
1
1
1
1
1
1
1
1
1
1
1
1
1
1
1
1
0.991002
0.979795
0.979801
0.997117
0.999996
0.999953
1
1
1
1
1
1
1
1
1
1
1
1
1
1
1
1
1
0.999918
0.992056
0.995296
0.999864
0.999996
0.999953
1
1
1
1
1
1
1
1
1
1
1
1
1
1
1
1
0.999999
0.999999
0.999999
0.999997
0.999998
0.999997
0.999987
1
1
1
1
1
1
1
1
1
1
1
1
1
1
1
0.999999
0.999999
0.999999
0.999999
0.999999
0.999999
0.999998
0.999998
0.989782
0.990302
0.991128
0.990659
0.990659
0.990659
0.990659
0.991825
0.998497
0.998633
0.997182
0.995819
0.965248
0.965223
0.986711
0.996914
0.998453
0.985052
0.963559
0.989782
0.999412
0.999958
0.999565
0.999669
0.999081
0.998158
0.998664
0.998848
0.998634
0.995586
0.980915
0.960593
0.968864
0.998454
0.998453
0.998453
0.995921
0.963516
0.996028
0.999824
0.999958
0.99995
0.999869
0.999888
0.999888
0.999404
0.998081
0.997147
0.976957
0.960526
0.960554
0.985939
0.998454
0.998454
0.998453
0.992584
0.961743
0.999815
0.999815
0.99994
0.999958
0.999929
0.999962
0.999582
0.997016
0.996972
0.995504
0.963406
0.960525
0.960524
0.995615
0.998454
0.998454
0.998299
0.993331
0.961665
0.999741
0.999741
0.99991
0.999965
0.999965
0.999965
0.999095
0.996637
0.99725
0.997737
0.976337
0.960526
0.965907
0.998454
0.998454
0.998452
0.998452
0.998417
0.961664
0.999785
0.999952
0.99997
0.999965
0.999925
0.999912
0.999616
0.998956
0.999125
0.999103
0.995429
0.985869
0.995482
0.998455
0.998454
0.99843
0.993553
0.985415
0.961665
0.999964
0.999974
0.999978
0.999938
0.999758
0.999757
0.999918
0.999975
0.99992
0.999027
0.998027
0.998279
0.998455
0.998455
0.998455
0.998417
0.976576
0.958651
0.972722
0.999984
0.999983
0.999983
0.999982
0.999982
0.999982
0.999982
0.999981
0.998587
0.993418
0.993455
0.997752
0.998455
0.998455
0.998454
0.998453
0.975453
0.958599
0.984002
1
1
1
1
1
1
1
1
1
1
1
1
1
1
1
1
1
1
1
1
1
1
1
0.966276
0.966377
0.968282
0.970322
0.972601
0.975116
0.977943
0.981271
0.985332
0.99002
0.995247
0.997394
0.9993
1
1
1
1
1
1
1
1
0.998148
0.996169
0.310028
0.314978
0.320727
0.327768
0.335191
0.343251
0.351653
0.359498
0.367044
0.37417
0.38103
0.387741
0.394656
0.402989
0.411078
0.420171
0.430684
0.439526
0.44549
0.447005
0.44494
0.446892
0.453009
0.00182098
0.00182088
0.00182088
0.00182088
0.00182088
0.00182237
0.00182562
0.00182848
0.00183436
0.00184238
0.00184772
0.00326304
0.00425167
0.00459903
0.00505899
0.00438306
0.00332056
0.00258111
0.00272931
0.003749
0.00478896
0.00453723
0.00301937
0.00188692
0.00188551
0.00182088
0.00182088
0.00263064
0.00326929
0.00327253
0.00550645
0.00641523
0.00641739
0.00641789
0.00641739
0.00610884
0.00648995
0.00648935
0.00542104
0.00226005
0.00226034
0.00225989
0.00256204
0.00410144
0.00361276
0.00127742
0.0017799
0.00186774
0.00186723
0.0018278
0.00203814
0.00225632
0.00270242
0.00212406
0.00237927
0.00282277
0.00337671
0.0037048
0.00379692
0.0037959
0.00356559
0.00376701
0.00336371
0.00321445
0.00313014
0.00199333
0.00160949
0.00174106
0.000303568
0.000860739
0.000866222
0.00104273
0.000954282
0.000677211
0.000358082
0.000225852
0.000171573
1.604e-09
2.11339e-09
2.61461e-09
2.63558e-09
2.70065e-09
4.74601e-06
8.19153e-05
0.000393098
0.000546287
0.000516631
0.000492731
0.000409504
0.000241937
0.000305776
0.00030357
2.08519e-06
1.51965e-09
1.51965e-09
0.000111035
4.32418e-05
2.83855e-05
2.55395e-05
1.05061e-09
1.61482e-09
1.20724e-08
1.21469e-08
2.3921e-08
7.33457e-07
2.24584e-06
8.83619e-07
1.16084e-07
4.23388e-05
0.000255019
0.000358638
0.000320953
0.000234797
0.000234093
0.00044792
1.41758e-09
8.60262e-09
9.7391e-09
5.42598e-10
5.41075e-10
5.41077e-10
5.41076e-10
1.03777e-09
4.37489e-08
1.23559e-08
1.35401e-08
1.65506e-06
4.80224e-06
4.75265e-06
7.27022e-07
8.3852e-08
3.65316e-06
5.70411e-05
0.000208574
0.000313066
0.000239703
0.000219414
0.000379155
1.41758e-09
1.43088e-07
1.86056e-07
5.33936e-08
1.23437e-09
5.41075e-10
5.41077e-10
1.04195e-09
4.63777e-09
2.0386e-07
1.22265e-06
2.23894e-06
3.22921e-06
2.31866e-06
2.93987e-07
8.33542e-08
3.78585e-07
1.62783e-08
3.66956e-06
3.08394e-05
5.65029e-05
2.22557e-05
1.63493e-05
1.41759e-09
1.50963e-07
1.86007e-07
4.45599e-08
5.41342e-10
5.41077e-10
5.41342e-10
2.94888e-08
1.29309e-06
2.28973e-06
2.28982e-06
1.38376e-06
4.86283e-09
1.39214e-08
7.81954e-09
5.30075e-09
1.10305e-10
2.7468e-09
4.16177e-08
1.37779e-07
1.73607e-07
1.60151e-07
1.1778e-07
1.97429e-09
1.00988e-08
2.57115e-08
7.72327e-09
1.45168e-09
6.46161e-10
9.33931e-10
3.6784e-07
2.2888e-06
2.28982e-06
1.58546e-06
3.90258e-08
4.83108e-09
4.81108e-09
3.11685e-10
7.62217e-11
8.77421e-11
1.12952e-10
1.19637e-06
4.92525e-06
5.90506e-06
5.47242e-06
1.58332e-06
1.43543e-09
1.16141e-10
4.84182e-11
4.69085e-11
1.16103e-09
3.68923e-09
7.96496e-09
2.94109e-07
6.43339e-07
4.41647e-07
6.12735e-08
5.66097e-10
6.8744e-09
4.24907e-09
7.62217e-11
7.62217e-11
7.60367e-11
1.80022e-10
3.36519e-06
6.7209e-06
6.7211e-06
6.7209e-06
5.33009e-06
5.14151e-08
1.34897e-07
1.91575e-08
4.5208e-11
9.85571e-10
5.26937e-09
1.38949e-08
1.6417e-08
1.31848e-09
1.94125e-10
6.60097e-11
5.67174e-10
1.77917e-09
6.54238e-10
9.11916e-11
9.92117e-11
7.58051e-11
6.42945e-10
2.25775e-07
3.00205e-06
6.72108e-06
6.62893e-06
9.41649e-07
1.28757e-07
2.76108e-07
4.03747e-08
4.34432e-11
1.13369e-09
2.46325e-09
2.53048e-09
9.17805e-10
3.85565e-10
8.32041e-11
2.39862e-11
3.56003e-11
2.62194e-11
2.67553e-11
5.39976e-11
6.36989e-11
6.02579e-11
7.00792e-11
9.66345e-11
2.26483e-08
3.0297e-07
3.00788e-07
1.23e-08
1.65976e-07
2.76288e-07
5.38451e-08
4.2517e-11
6.03454e-10
7.59042e-10
4.76943e-10
2.20836e-10
1.0501e-10
2.44317e-11
4.26302e-12
5.39598e-13
1.58056e-13
1.38584e-12
9.97264e-12
2.48769e-11
5.27215e-11
7.76775e-11
8.18439e-11
9.21585e-11
9.45423e-11
7.08886e-11
7.07924e-10
1.77843e-07
2.76424e-07
5.28473e-08
4.22141e-11
2.10945e-10
2.18517e-10
7.93514e-11
2.79798e-11
8.02544e-12
1.43823e-12
1.00974e-31
-8.53816e-13
-8.83782e-13
-4.24898e-13
2.07394e-13
4.31394e-12
2.94985e-11
7.23836e-11
9.90408e-11
1.01504e-10
9.11324e-11
6.35232e-11
3.22242e-11
2.43224e-07
2.76634e-07
8.23849e-08
4.21417e-11
5.39342e-11
5.38019e-11
9.9745e-12
8.88482e-13
0
-9.14661e-13
-1.61641e-12
-1.98875e-12
-1.91572e-12
-1.5557e-12
-9.37006e-13
1.88806e-14
2.27133e-12
1.53316e-11
3.55707e-11
4.81934e-11
4.98333e-11
4.52281e-11
2.32814e-11
2.78385e-07
2.78385e-07
9.70505e-08
4.20785e-11
4.20392e-11
3.5935e-11
1.75916e-12
-1.86247e-13
-1.02499e-12
-1.71627e-12
-2.10558e-12
-2.25921e-12
-2.176e-12
-1.93138e-12
-1.57429e-12
-1.12584e-12
-5.49304e-13
1.14519e-13
9.70277e-13
3.20244e-12
5.5162e-12
6.76548e-12
5.88554e-12
2.44736e-07
2.7824e-07
6.50364e-08
4.21417e-11
7.45704e-11
4.39655e-11
1.99021e-12
-2.68396e-13
-9.08226e-13
-1.43098e-12
-1.70776e-12
-1.81996e-12
-1.78668e-12
-1.64237e-12
-1.42426e-12
-1.16808e-12
-9.02569e-13
-6.41052e-13
-3.97885e-13
-1.11929e-13
1.49716e-14
5.15609e-14
1.53567e-13
9.14086e-08
2.4023e-07
1.19586e-09
4.2241e-11
2.25735e-10
6.32365e-11
4.36389e-12
5.64356e-13
-1.7749e-13
-6.06645e-13
-8.65894e-13
-1.03397e-12
-1.10766e-12
-1.08426e-12
-9.84415e-13
-8.42653e-13
-6.89272e-13
-5.41487e-13
-4.10289e-13
-2.97036e-13
-2.03597e-13
-1.29677e-13
-6.75378e-14
2.44523e-09
3.62531e-08
2.19315e-10
2.6218e-10
3.2581e-10
1.03122e-10
1.14219e-11
5.33328e-12
2.77375e-12
8.34812e-13
-2.87256e-14
-3.03317e-13
-4.66192e-13
-5.43754e-13
-5.48803e-13
-5.01738e-13
-4.27652e-13
-3.45831e-13
-2.6962e-13
-2.0501e-13
-1.52424e-13
-1.09332e-13
-7.27908e-14
8.19518e-11
5.37438e-11
2.19374e-10
3.59156e-10
3.31522e-10
1.0289e-10
2.42671e-11
1.65009e-11
1.15383e-11
6.24182e-12
2.47925e-12
5.5146e-13
-4.10454e-14
-1.82366e-13
-2.41493e-13
-2.5011e-13
-2.27961e-13
-1.90509e-13
-1.50626e-13
-1.15143e-13
-8.64654e-14
-6.40747e-14
-4.56331e-14
8.21662e-11
5.28001e-11
1.89595e-10
3.36991e-10
2.72664e-10
8.38078e-11
3.85954e-11
3.12127e-11
2.42395e-11
1.58343e-11
7.81536e-12
2.75888e-12
5.71892e-13
-9.61287e-16
-7.91266e-14
-1.04438e-13
-1.06353e-13
-9.29806e-14
-7.45305e-14
-5.67349e-14
-4.20519e-14
-3.09353e-14
-2.25511e-14
9.58168e-11
5.27881e-11
8.0383e-11
1.59267e-10
1.38623e-10
6.22364e-11
4.94838e-11
4.4498e-11
3.61266e-11
2.62947e-11
1.48763e-11
6.03648e-12
1.50372e-12
1.67265e-13
-1.67238e-14
-3.72429e-14
-4.48917e-14
-4.13506e-14
-3.35123e-14
-2.5205e-14
-1.8165e-14
-1.29208e-14
-9.31951e-15
3.01685e-10
5.27689e-11
5.27676e-11
5.27677e-11
5.35489e-11
5.37296e-11
5.37883e-11
5.38612e-11
4.53732e-11
3.48751e-11
2.15201e-11
9.22994e-12
2.22887e-12
2.20283e-13
-2.02334e-15
-1.25301e-14
-1.78921e-14
-1.72072e-14
-1.39879e-14
-1.03232e-14
-7.18389e-15
-4.84814e-15
-3.32094e-15
1.77031e-09
5.27678e-11
5.27677e-11
5.27669e-11
5.27647e-11
5.2763e-11
5.36306e-11
5.6602e-11
5.16673e-11
4.03682e-11
2.53964e-11
1.04605e-11
2.21144e-12
1.64703e-13
-1.26496e-16
-4.46113e-15
-6.88922e-15
-6.77879e-15
-5.51132e-15
-3.98775e-15
-2.6673e-15
-1.69498e-15
-1.06453e-15
3.3743e-09
1.37394e-07
6.91289e-07
4.9572e-07
1.7499e-08
5.26577e-11
5.2655e-11
5.6602e-11
5.32363e-11
4.19015e-11
2.59878e-11
9.95639e-12
1.63814e-12
7.13478e-14
-4.42583e-17
-1.7381e-15
-2.63174e-15
-2.57682e-15
-2.05682e-15
-1.44339e-15
-9.25519e-16
-5.55524e-16
-3.18889e-16
3.50018e-09
2.80009e-07
8.41608e-07
8.41635e-07
2.14497e-07
5.2655e-11
5.26513e-11
5.62854e-11
5.21691e-11
4.07291e-11
2.38697e-11
7.74319e-12
8.87083e-13
2.13378e-14
-1.24803e-17
-6.66739e-16
-9.76241e-16
-9.33116e-16
-7.24275e-16
-4.92358e-16
-3.04143e-16
-1.74753e-16
-9.50928e-17
3.45089e-09
2.09114e-07
8.41635e-07
8.41635e-07
2.77308e-07
8.57641e-11
5.26494e-11
5.44125e-11
4.87776e-11
3.6093e-11
1.86662e-11
4.66513e-12
3.3613e-13
3.94651e-15
-1.44318e-18
-2.67592e-16
-3.59479e-16
-3.26285e-16
-2.43188e-16
-1.58809e-16
-9.39993e-17
-5.15031e-17
-2.65199e-17
3.45089e-09
4.61822e-08
7.84566e-07
6.94554e-07
1.35581e-07
1.70421e-10
5.18993e-11
5.10374e-11
4.27429e-11
2.86479e-11
1.20632e-11
2.03262e-12
7.82735e-14
3.59964e-16
-1.92737e-17
-1.13696e-16
-1.30435e-16
-1.10027e-16
-7.75491e-17
-4.80669e-17
-2.69576e-17
-1.3939e-17
-6.73777e-18
3.45089e-09
3.56466e-09
9.70552e-08
4.98231e-08
5.06222e-09
1.42743e-10
5.73918e-11
4.58885e-11
3.45094e-11
1.96382e-11
5.90302e-12
5.52805e-13
9.18178e-15
1.50138e-17
-2.53162e-17
-4.56009e-17
-4.55651e-17
-3.53187e-17
-2.31975e-17
-1.34508e-17
-7.0549e-18
-3.40357e-18
-1.52964e-18
3.45776e-09
2.93118e-09
8.83608e-10
2.24343e-10
7.42799e-11
7.3911e-11
5.13693e-11
3.73044e-11
2.4272e-11
1.04207e-11
1.83765e-12
7.50133e-14
4.20511e-16
1.80858e-19
-1.2948e-17
-1.71578e-17
-1.501e-17
-1.05762e-17
-6.39305e-18
-3.42357e-18
-1.65791e-18
-7.36846e-19
-3.0409e-19
3.25312e-09
3.07172e-09
1.21382e-09
4.33062e-10
1.44957e-10
6.10876e-11
3.81928e-11
2.50596e-11
1.29458e-11
3.4893e-12
2.81678e-13
3.91957e-15
5.74137e-18
-2.06716e-18
-5.81247e-18
-5.93126e-18
-4.55204e-18
-2.89455e-18
-1.59248e-18
-7.77847e-19
-3.43236e-19
-1.38608e-19
-5.17758e-20
1.82471e-09
2.20895e-09
1.28496e-09
5.55687e-10
1.779e-10
5.48137e-11
2.49445e-11
1.24412e-11
4.19827e-12
5.52426e-13
1.57857e-14
6.33103e-17
2.23485e-20
-1.62728e-18
-2.23281e-18
-1.86247e-18
-1.25179e-18
-7.11466e-19
-3.51886e-19
-1.54671e-19
-6.13015e-20
-2.21472e-20
-7.36428e-21
3.46963e-10
6.55054e-10
6.58265e-10
3.78026e-10
1.33243e-10
3.62118e-11
1.15446e-11
3.64056e-12
6.24794e-13
3.08432e-14
2.62116e-16
2.70382e-19
-2.93947e-19
-8.03737e-19
-7.82416e-19
-5.35921e-19
-3.09578e-19
-1.54861e-19
-6.78059e-20
-2.63979e-20
-9.23994e-21
-2.93209e-21
-8.50578e-22
1.20203e-11
4.39244e-11
9.38896e-11
8.13598e-11
3.89092e-11
1.08968e-11
2.59143e-12
4.62698e-13
3.3364e-14
5.34956e-16
1.42149e-18
3.57469e-22
-2.42749e-19
-3.34349e-19
-2.55465e-19
-1.43172e-19
-6.8864e-20
-2.95981e-20
-1.12364e-20
-3.79716e-21
-1.14921e-21
-3.12898e-22
-7.71669e-23
5.127e-14
4.15222e-13
2.15979e-12
3.22063e-12
2.34498e-12
8.59576e-13
1.82899e-13
1.93561e-14
6.0238e-16
3.7892e-18
2.86661e-21
-5.12375e-20
-1.26203e-19
-1.25649e-19
-7.89348e-20
-3.6208e-20
-1.38974e-20
-4.96873e-21
-1.58759e-21
-4.52833e-22
-1.15096e-22
-2.6029e-23
-5.2647e-24
6.40163e-17
7.79543e-16
6.6366e-15
1.72113e-14
1.96197e-14
1.13588e-14
2.79556e-15
2.30877e-16
4.63218e-18
1.5648e-20
-4.55817e-21
-3.72472e-20
-5.46275e-20
-4.40007e-20
-2.34224e-20
-8.94828e-21
-2.70912e-21
-7.53315e-22
-1.92424e-22
-4.42385e-23
-9.01079e-24
-1.60747e-24
-2.52162e-25
5.73605e-20
1.70438e-18
9.43223e-18
2.66104e-17
3.42786e-17
2.8756e-17
9.78082e-18
9.81758e-19
2.19506e-20
4.54962e-23
-7.88164e-21
-1.89797e-20
-2.13285e-20
-1.46319e-20
-6.75799e-21
-2.20392e-21
-5.33009e-22
-1.0835e-22
-2.04232e-23
-3.48538e-24
-5.22296e-25
-6.6906e-26
-7.37459e-27
1.0171e-24
2.406e-21
2.36784e-20
7.38341e-20
8.17477e-20
6.62147e-20
2.51673e-20
3.14533e-21
5.066e-23
-1.14059e-21
-5.00358e-21
-8.27143e-21
-7.76862e-21
-4.68621e-21
-1.92037e-21
-5.47892e-22
-1.09548e-22
-1.59492e-23
-1.98065e-24
-2.1434e-25
-1.96348e-26
-1.46099e-27
-9.12343e-29
-1.88964e-25
2.93504e-25
2.89446e-23
6.66433e-22
1.2579e-21
3.10089e-22
5.75081e-23
4.79807e-24
-1.60106e-22
-1.00944e-21
-2.473e-21
-3.27353e-21
-2.68985e-21
-1.46535e-21
-5.4711e-22
-1.41333e-22
-2.48653e-23
-2.86406e-24
-2.13471e-25
-1.00091e-26
-2.83653e-28
-5.616e-30
-9.13264e-32
1
1
1
1
0.997287
0.995923
0.993872
0.992524
0.444351
0.438214
0.433021
0.427971
0.00349891
0.00349533
0.0026448
0.00177536
0.00201923
0.00285034
0.00207834
0.00114944
0.000817376
0.00280868
0.00155259
0.00119763
0.000303564
0.00101207
0.000930601
0.000368273
0.0007846
0.000786166
0.000536176
6.36038e-05
0.000381904
0.000143714
6.76919e-05
6.83337e-06
2.97081e-06
9.83817e-08
1.23212e-06
2.76011e-06
2.40186e-08
3.13927e-08
2.44926e-07
3.25917e-07
2.40045e-08
2.40047e-08
2.60343e-08
5.0347e-08
2.40047e-08
2.40043e-08
2.40047e-08
5.59105e-08
2.40042e-08
4.25754e-08
2.44348e-08
2.53639e-08
1.00037e-07
1.11832e-07
7.05044e-08
1.08962e-08
1.47395e-08
2.64708e-08
2.12891e-08
1.08511e-08
1.16157e-11
2.70084e-11
4.72733e-10
2.00741e-09
1.03604e-11
6.24962e-12
3.71464e-12
4.39558e-12
4.10116e-12
3.20061e-12
2.53637e-12
2.17856e-12
2.49386e-13
3.00183e-13
3.76582e-13
4.33005e-13
-1.81178e-14
-2.14587e-15
1.57679e-15
4.22989e-15
-4.24847e-14
-3.28932e-14
-2.56751e-14
-2.03546e-14
-2.91582e-14
-2.31851e-14
-1.86046e-14
-1.53182e-14
-1.52427e-14
-1.21102e-14
-9.53046e-15
-7.62408e-15
-6.57716e-15
-5.22045e-15
-4.03671e-15
-3.05607e-15
-2.41556e-15
-1.89933e-15
-1.46579e-15
-1.07738e-15
-7.8867e-16
-5.9956e-16
-4.53523e-16
-3.3781e-16
-2.36469e-16
-1.72153e-16
-1.24147e-16
-8.91597e-17
-6.78028e-17
-4.72333e-17
-3.23686e-17
-2.19221e-17
-1.80912e-17
-1.20325e-17
-7.83326e-18
-5.00605e-18
-4.3863e-18
-2.77961e-18
-1.7188e-18
-1.03883e-18
-9.44565e-19
-5.66916e-19
-3.31361e-19
-1.88826e-19
-1.76434e-19
-9.9321e-20
-5.43518e-20
-2.89426e-20
-2.78828e-20
-1.45354e-20
-7.35027e-21
-3.60951e-21
-3.62535e-21
-1.72247e-21
-7.91675e-22
-3.52482e-22
-3.75412e-22
-1.59299e-22
-6.51621e-23
-2.57413e-23
-2.97557e-23
-1.09783e-23
-3.88777e-24
-1.32462e-24
-1.70998e-24
-5.28427e-25
-1.5596e-25
-4.40971e-26
-6.52105e-26
-1.59564e-26
-3.71115e-27
-8.2355e-28
-1.37785e-27
-2.43019e-28
-4.06566e-29
-6.47751e-30
-1.00353e-29
-1.0527e-30
-1.05579e-31
-1.01395e-32
-2.87313e-33
-9.40267e-35
-3.14457e-36
-1.04803e-37
1
1
1
0.999798
0.989653
0.981594
0.977448
0.9777
0.984247
0.992503
0.998056
0.998321
0.998455
0.998454
0.998454
0.99834
0.986984
0.958521
0.984007
0.989945
0.978377
0.96907
0.9612
0.956091
0.948688
0.935992
0.921252
0.912663
0.918189
0.927495
0.932147
0.92648
0.909971
0.900216
0.914368
0.935277
0.951122
0.953762
0.419418
0.408014
0.401427
0.398052
0.396491
0.395936
0.397309
0.395816
0.386161
0.364769
0.343212
0.325735
0.31293
0.304759
0.295627
0.282553
0.277733
0.277266
0.265061
0.0010749
0.000784651
0.000725038
0.000699771
0.000734066
0.000641897
0.00044943
0.000413224
0.000413094
0.000413224
0.000413478
0.000413729
0.000413969
0.000414222
0.000414671
0.00041507
0.000414989
0.000415074
0.000415769
0.000676067
0.000673104
0.00066885
0.000667171
0.000675506
0.00183865
0.00152195
0.0013187
0.00122345
0.00120578
0.00117502
0.00114134
0.00113692
0.00123058
0.00132708
0.000987947
0.000766665
0.000814639
0.000730594
0.00108522
0.00115711
0.00115677
0.000667171
0.00150908
0.00190115
0.00190115
0.00190115
0.00190096
0.00190024
0.00189889
0.00189698
0.00189456
0.00189157
0.00188761
0.0012011
0.00110662
0.00110606
0.00110452
0.00103325
0.00115652
0.00115724
0.00115705
0.00110427
0.000690131
0.00043561
0.000419674
0.000400569
0.000372815
0.00037391
0.000358242
0.00033639
0.000349102
0.000406693
0.000499571
0.00073671
0.000675347
0.000544211
0.000245372
0.000395063
0.000337589
0.000367921
0.00014521
7.33738e-06
3.22922e-07
1.59208e-07
1.59257e-07
1.59208e-07
1.63907e-07
2.16624e-07
3.20236e-07
4.29538e-07
4.8304e-07
0.000151802
5.67913e-05
1.1576e-06
1.16687e-06
1.06533e-07
2.12072e-08
6.21335e-08
2.40937e-08
3.69318e-08
5.56929e-08
2.82793e-07
5.29254e-07
1.48475e-06
5.35033e-06
3.18871e-05
4.14873e-05
4.14731e-05
1.55846e-05
1.1309e-06
1.14019e-06
1.1463e-06
1.15471e-06
1.34205e-06
2.1245e-08
1.27546e-08
1.27564e-08
1.61816e-08
1.70002e-08
1.78179e-08
1.79316e-08
4.24601e-07
2.23312e-06
5.98184e-05
7.02726e-05
7.02726e-05
5.24835e-05
6.93704e-06
1.47366e-06
1.14661e-06
1.15207e-06
1.30615e-06
1.60013e-06
3.97969e-08
1.27416e-08
1.2749e-08
1.27564e-08
5.99217e-06
1.35616e-05
4.59883e-06
1.21615e-06
4.83803e-05
7.02194e-05
6.82415e-05
2.28252e-05
1.15665e-05
1.82858e-05
1.95687e-05
1.58202e-05
1.1015e-05
5.78494e-06
2.68829e-06
5.5914e-08
1.27416e-08
1.27416e-08
7.35374e-06
2.17432e-05
2.17424e-05
1.14763e-05
1.38702e-05
6.72993e-05
6.6718e-05
7.21405e-06
1.08644e-05
2.74353e-05
4.45327e-05
4.45407e-05
4.45327e-05
4.44966e-05
3.87078e-05
1.78575e-05
5.59322e-08
1.27487e-08
6.65065e-08
1.32265e-05
2.17431e-05
2.17433e-05
1.88419e-05
1.05224e-05
1.68674e-05
3.7717e-06
2.51101e-08
2.53301e-05
4.44982e-05
4.45407e-05
3.73766e-05
1.85224e-05
1.02768e-05
1.02397e-05
1.79059e-05
4.04295e-08
1.27879e-08
2.03453e-08
5.07309e-06
1.62438e-05
1.56114e-05
2.39676e-06
1.42324e-07
1.65118e-10
1.65115e-10
1.67023e-08
7.94545e-06
3.40935e-05
2.30129e-05
1.5953e-10
1.59578e-10
1.65676e-10
6.2787e-07
7.93293e-06
1.99359e-08
9.23434e-08
9.52735e-08
9.63371e-08
4.87965e-07
4.2036e-07
1.64081e-10
1.61613e-10
1.64921e-10
2.17703e-10
3.21811e-07
1.23167e-06
1.59239e-10
1.59237e-10
1.59239e-10
1.6019e-10
1.58809e-07
4.87408e-06
1.43801e-05
1.75211e-08
5.33457e-08
6.61696e-08
6.52894e-08
6.43333e-08
1.34422e-08
1.61614e-10
1.61552e-10
1.61614e-10
5.18366e-09
3.60359e-08
3.55654e-10
3.55501e-10
1.59237e-10
1.59236e-10
1.59298e-10
8.60976e-10
8.57549e-06
1.69563e-05
2.44742e-09
1.29493e-09
2.40607e-08
2.4379e-07
3.04491e-07
2.32217e-07
3.02474e-09
1.61565e-10
1.63431e-10
6.5552e-10
2.11437e-09
3.48196e-09
2.51971e-09
1.59237e-10
1.6618e-10
1.66e-10
6.79435e-11
3.17949e-06
1.69563e-05
1.7414e-12
1.20388e-12
2.62503e-09
1.75823e-07
3.04485e-07
3.04493e-07
2.91698e-07
7.95226e-08
1.63434e-10
1.84946e-10
1.01735e-09
3.25906e-10
1.80775e-10
1.80774e-10
2.307e-10
2.19708e-10
6.34482e-11
2.10568e-07
1.69562e-05
1.73983e-12
1.16768e-12
3.59178e-12
6.74205e-09
1.04223e-07
2.45759e-07
2.90291e-07
1.10144e-07
1.53329e-08
2.36922e-08
6.16496e-08
4.00491e-08
1.06529e-08
1.80775e-10
2.49987e-10
2.50076e-10
6.34558e-11
4.42729e-12
1.49896e-05
4.57633e-13
4.07371e-13
1.3706e-13
6.11378e-13
3.9231e-10
1.00358e-08
1.69471e-08
1.03551e-08
2.57487e-08
8.74849e-08
8.98107e-08
8.98107e-08
4.41367e-08
3.44904e-10
2.25142e-10
2.23141e-10
5.8894e-11
4.39807e-12
6.41792e-07
9.56785e-15
1.83581e-14
8.42197e-15
0
9.95827e-14
6.31064e-14
2.76849e-14
2.21603e-13
7.58576e-10
1.89765e-08
5.0182e-08
5.20946e-08
1.3379e-08
9.29429e-10
1.71044e-10
9.38822e-11
1.95346e-11
4.39203e-12
4.39807e-12
-1.6137e-14
-7.6797e-15
-3.46854e-15
-1.47727e-15
2.52435e-32
-8.04926e-31
2.39855e-14
2.20888e-13
2.20908e-13
2.20942e-13
2.21183e-13
2.21482e-13
2.22218e-13
2.43349e-11
4.56292e-11
2.66851e-11
7.71547e-12
4.38877e-12
4.39203e-12
-1.29574e-14
-8.081e-15
-4.84505e-15
-2.77037e-15
-1.376e-15
-4.61679e-16
4.17863e-16
1.97837e-14
2.7311e-13
1.18166e-12
6.31968e-13
1.38171e-12
3.99574e-12
5.43758e-12
4.888e-12
5.40744e-12
4.26317e-12
4.2559e-12
4.44834e-12
-6.39468e-15
-4.18487e-15
-2.68382e-15
-1.68341e-15
-1.02256e-15
-5.81106e-16
-2.73503e-16
-6.08005e-18
6.08675e-15
9.27784e-14
4.15466e-13
1.26017e-12
2.69763e-12
2.01397e-12
1.50407e-12
2.83866e-12
2.91431e-12
2.91656e-12
2.02513e-11
-2.40128e-15
-1.55566e-15
-9.95942e-16
-6.25993e-16
-3.83874e-16
-2.37133e-16
-1.42244e-16
-7.44308e-17
1.29442e-18
1.11153e-15
8.86364e-15
3.67348e-14
1.14361e-13
2.08855e-13
3.88128e-13
1.99476e-12
1.82881e-12
2.16405e-08
2.20478e-07
-7.45841e-16
-4.62327e-16
-2.79993e-16
-1.69215e-16
-1.02992e-16
-6.31498e-17
-3.82113e-17
-2.1323e-17
-6.94139e-18
3.43585e-17
3.0955e-16
1.57621e-15
7.04716e-15
2.96004e-14
1.70489e-13
1.82674e-12
1.82751e-12
1.56877e-07
9.40677e-06
-1.92079e-16
-1.1207e-16
-6.71569e-17
-4.01753e-17
-2.38444e-17
-1.39825e-17
-7.99897e-18
-4.03449e-18
-6.09548e-19
1.04254e-17
8.0145e-17
5.02365e-16
3.18196e-15
1.81891e-14
1.42336e-13
2.19753e-12
1.82881e-12
2.15435e-07
1.35451e-05
-4.56637e-17
-2.46375e-17
-1.36068e-17
-7.5941e-18
-4.23158e-18
-2.26629e-18
-1.15346e-18
-3.12241e-19
7.55122e-19
8.71389e-18
5.85297e-17
3.77574e-16
2.53659e-15
1.53592e-14
1.35431e-13
3.26651e-12
1.83018e-12
3.04127e-08
1.35458e-05
-1.00481e-17
-4.75302e-18
-2.30948e-18
-1.13563e-18
-5.41774e-19
-7.00173e-20
5.83744e-20
5.42201e-19
2.3909e-18
9.48112e-18
5.41001e-17
3.45491e-16
2.35547e-15
1.44323e-14
1.55446e-13
4.27185e-12
1.40569e-11
5.94867e-12
1.35431e-05
-2.05799e-18
-8.49342e-19
-3.52303e-19
-1.28716e-19
4.81482e-38
4.4875e-19
3.1036e-18
1.19141e-17
3.35301e-17
7.62873e-17
1.67024e-16
5.02237e-16
2.5575e-15
1.47138e-14
2.30365e-13
5.55034e-12
1.45145e-11
5.94667e-12
1.17977e-05
-3.87845e-19
-1.42086e-19
-4.8836e-20
4.43659e-21
5.83679e-19
4.75323e-18
2.50427e-17
1.01599e-16
3.23911e-16
8.17595e-16
1.71979e-15
3.56736e-15
9.70065e-15
3.57276e-14
3.41603e-13
5.77602e-12
1.45093e-11
5.94353e-12
1.05391e-05
-6.43172e-20
-2.11907e-20
-3.96753e-21
1.14071e-19
2.09287e-18
2.07719e-17
1.31119e-16
6.03138e-16
2.1431e-15
5.93232e-15
1.37322e-14
2.98067e-14
6.87859e-14
1.62882e-13
5.99891e-13
5.65223e-12
1.34372e-11
5.94151e-12
1.0542e-05
-8.92719e-21
-2.61596e-21
2.2397e-21
2.17509e-19
5.37768e-18
7.00619e-17
5.46054e-16
2.8731e-15
1.1509e-14
3.57666e-14
9.23924e-14
2.21063e-13
4.83901e-13
9.0065e-13
1.56422e-12
5.74182e-12
1.08575e-11
5.94033e-12
8.58901e-06
-9.93155e-22
-2.40834e-22
3.71568e-21
3.24172e-19
1.08384e-17
1.8558e-16
1.82147e-15
1.1139e-14
5.16583e-14
1.93945e-13
5.83003e-13
1.41176e-12
2.59079e-12
3.87466e-12
4.90367e-12
7.83263e-12
9.56301e-12
5.94092e-12
5.17565e-07
-8.4836e-23
-1.04565e-23
3.58596e-21
3.84874e-19
1.73457e-17
3.88546e-16
4.92268e-15
3.65424e-14
2.02893e-13
9.49775e-13
3.45295e-12
7.38981e-12
9.98679e-12
1.18311e-11
1.32314e-11
1.56067e-11
1.19655e-11
5.94033e-12
1.27859e-06
-5.28945e-24
3.17642e-24
1.99972e-21
3.88572e-19
2.19672e-17
6.27589e-16
1.07875e-14
1.07248e-13
7.36234e-13
4.01583e-12
1.62878e-11
2.87758e-11
2.93783e-11
3.03401e-11
3.299e-11
6.81671e-11
6.72745e-11
6.05947e-12
4.73433e-06
-2.25229e-25
2.0577e-24
9.02919e-22
2.34888e-19
2.29467e-17
7.64353e-16
1.83384e-14
2.74533e-13
2.28545e-12
1.29192e-11
4.85004e-11
7.50007e-11
7.23353e-11
7.47616e-11
1.15639e-10
5.77661e-10
5.87338e-10
6.13311e-12
4.73439e-06
-5.92554e-27
7.55655e-25
3.68859e-22
9.81842e-20
1.46854e-17
7.57318e-16
2.28976e-14
5.27711e-13
4.9615e-12
2.71212e-11
8.52348e-11
1.27208e-10
1.35753e-10
1.44882e-10
4.71105e-10
1.74123e-09
1.79331e-09
6.52607e-12
4.65627e-06
-7.82677e-29
1.76107e-25
8.76318e-23
3.55627e-20
6.02893e-18
3.63294e-16
2.2373e-14
6.84581e-13
6.79113e-12
3.57298e-11
1.00593e-10
1.4721e-10
1.72495e-10
1.80922e-10
9.76243e-10
2.80631e-09
2.34192e-09
8.06603e-12
4.301e-06
-8.48426e-32
2.15329e-26
1.03244e-23
6.77661e-21
1.76577e-18
1.11194e-16
8.46329e-15
6.45657e-13
6.65374e-12
3.37389e-11
8.34207e-11
1.24424e-10
1.5896e-10
1.06057e-10
1.76543e-09
1.38663e-08
7.16379e-09
1.06065e-11
4.29861e-06
-4.15797e-34
1.23725e-30
1.91822e-25
5.53285e-22
1.88947e-19
1.60134e-17
1.27259e-15
1.72895e-13
1.95139e-12
9.42889e-12
2.19892e-11
3.66159e-11
5.42432e-11
9.19661e-17
6.65376e-09
2.65721e-08
2.53071e-08
8.05145e-12
4.29541e-06
-1.46692e-39
1.73615e-41
2.33584e-32
9.7092e-27
5.03149e-23
3.31545e-20
1.5032e-17
2.76688e-15
3.03147e-14
1.83415e-13
5.70701e-13
1.11282e-12
8.65256e-13
0
6.50872e-09
1.95119e-08
1.55772e-08
1.65436e-27
2.68069e-06
)
;

boundaryField
{
    leftWall
    {
        type            zeroGradient;
    }
    rightWall
    {
        type            zeroGradient;
    }
    lowerWall
    {
        type            zeroGradient;
    }
    atmosphere
    {
        type            inletOutlet;
        inletValue      uniform 0;
        value           nonuniform List<scalar> 
46
(
0
2.93504e-25
2.89446e-23
6.66433e-22
1.2579e-21
3.10089e-22
5.75081e-23
4.79807e-24
-1.60106e-22
-1.00944e-21
-2.473e-21
-3.27353e-21
-2.68985e-21
-1.46535e-21
-5.4711e-22
-1.41333e-22
-2.48653e-23
-2.86406e-24
-2.13471e-25
0
0
0
0
0
0
0
0
0
0
0
0
0
0
0
0
0
0
0
0
0
0
0
0
0
0
2.68069e-06
)
;
    }
    defaultFaces
    {
        type            empty;
    }
}


// ************************************************************************* //
