/*--------------------------------*- C++ -*----------------------------------*\
  =========                 |
  \\      /  F ield         | OpenFOAM: The Open Source CFD Toolbox
   \\    /   O peration     | Website:  https://openfoam.org
    \\  /    A nd           | Version:  9
     \\/     M anipulation  |
\*---------------------------------------------------------------------------*/
FoamFile
{
    format      ascii;
    class       volScalarField;
    location    "6.54";
    object      epsilon;
}
// * * * * * * * * * * * * * * * * * * * * * * * * * * * * * * * * * * * * * //

dimensions      [0 2 -3 0 0 0 0];

internalField   nonuniform List<scalar> 
2268
(
0.000218954
0.00114867
0.0020275
0.00282328
0.00353938
0.00418508
0.0047711
0.00530467
0.00578806
0.00622419
0.00662258
0.00699761
0.00735116
0.0076527
0.0078179
0.00767905
0.00705528
0.00605852
0.00496273
0.00400742
0.0032489
0.0022091
0.000674356
0.000444108
0.000763701
0.00112396
0.00146189
0.0017691
0.00204622
0.00229607
0.00252152
0.00272498
0.0029092
0.0030776
0.00323255
0.00337187
0.00348396
0.0035427
0.00350425
0.00334241
0.00310331
0.00276235
0.00237367
0.0019428
0.0014801
0.00109349
0.000753202
0.000811919
0.00104525
0.00128235
0.00150277
0.00170282
0.00188293
0.00204475
0.00219029
0.00232187
0.00244167
0.00255039
0.00264573
0.00272021
0.00275917
0.00274164
0.00266026
0.00253697
0.00234748
0.00211459
0.00186731
0.00165569
0.00180876
0.00105752
0.000913565
0.00107482
0.00126177
0.00144137
0.00160624
0.00175519
0.00188908
0.0020095
0.00211834
0.00221726
0.0023066
0.00238438
0.00244515
0.00247924
0.00247441
0.0024283
0.00235243
0.00223363
0.00209265
0.00197416
0.00196467
0.00263053
0.0013504
0.00103161
0.00113921
0.00129221
0.00144538
0.00158804
0.00171775
0.00183474
0.00194025
0.00203584
0.00212286
0.00220163
0.00227061
0.00232574
0.00236026
0.0023663
0.00234269
0.00229645
0.00222561
0.00215482
0.00214399
0.0023426
0.00370645
0.00163499
0.00115762
0.00122089
0.00134753
0.00148065
0.00160662
0.00172204
0.00182673
0.00192165
0.00200808
0.0020872
0.00215943
0.00222367
0.00227689
0.00231432
0.00233058
0.0023245
0.00230154
0.00226848
0.00225558
0.0023426
0.00277615
0.00511803
0.00191763
0.00128999
0.00131429
0.00141882
0.00153514
0.00164703
0.00175039
0.00184484
0.00193117
0.00201043
0.00208371
0.00215153
0.00221319
0.00226649
0.00230801
0.00233396
0.00234302
0.00234062
0.00233902
0.00237363
0.00254675
0.00324279
0.00716951
0.00221467
0.00143014
0.00141793
0.00150286
0.00160405
0.00170293
0.00179502
0.00187996
0.00195853
0.00203158
0.0021001
0.00216469
0.00222498
0.0022794
0.00232541
0.00236013
0.00238267
0.00239877
0.00242354
0.00249422
0.00272669
0.00365817
0.0118061
0.000760173
0.00300349
0.00469526
0.00558804
0.00608346
0.00629689
0.00649348
0.00669857
0.00670815
0.00601302
0.0048003
0.00365087
0.00268224
0.00274777
0.00351285
0.0034562
0.00224872
0.00126153
0.000389316
0.000813323
0.00169504
0.00230952
0.00266168
0.00286661
0.00297637
0.00305106
0.00310034
0.00306841
0.00285915
0.00257487
0.00218948
0.00181834
0.00170091
0.00168891
0.00157153
0.00116671
0.000790153
0.00046012
0.00121076
0.00165584
0.00199153
0.00218251
0.00229792
0.00236689
0.00241254
0.00243303
0.00239237
0.00225691
0.00209849
0.00187243
0.00163706
0.00150243
0.00141313
0.00129296
0.00102782
0.000767662
0.000609374
0.00178979
0.00184889
0.00198508
0.00206617
0.00212146
0.00215934
0.0021857
0.00219097
0.00214485
0.00203216
0.001909
0.00174572
0.00157042
0.00144822
0.00134971
0.00123156
0.00101884
0.000806164
0.000755395
0.00254302
0.00215541
0.00208545
0.0020683
0.00207235
0.00208243
0.00209165
0.00208487
0.00203394
0.00193145
0.00182261
0.0016915
0.00155263
0.00144749
0.00135059
0.00123612
0.00105369
0.000873662
0.000920473
0.00356944
0.00252825
0.00223046
0.00212131
0.00207973
0.00206421
0.00205711
0.00203934
0.00198422
0.00188825
0.00178929
0.0016792
0.00156662
0.00147846
0.00137855
0.00126689
0.0011059
0.000958703
0.00111517
0.00521944
0.00292493
0.00238536
0.00219593
0.00211519
0.0020765
0.00205372
0.0020255
0.00196686
0.00187673
0.00179015
0.00169771
0.00160628
0.00152997
0.00141982
0.00130839
0.00116313
0.00105206
0.00135287
0.00892449
0.00326802
0.00252145
0.00227556
0.00216439
0.00210562
0.00206824
0.00203012
0.00196898
0.00188549
0.00181475
0.001741
0.00166583
0.00158866
0.00146793
0.00135439
0.00122236
0.00114894
0.00165687
0.00263939
0.00164365
0.00158673
0.00164702
0.00172757
0.00180743
0.00188247
0.00195303
0.00202005
0.00208425
0.00214638
0.00220702
0.00226624
0.00232317
0.00237589
0.00242255
0.00246326
0.00250452
0.00256211
0.00266863
0.00291637
0.0035825
0.00569583
0.00325082
0.00196931
0.00186609
0.00189858
0.00195066
0.00200049
0.00204737
0.00209459
0.00214348
0.00219463
0.00224796
0.00230342
0.00236133
0.00242086
0.00248034
0.00253797
0.00259395
0.00265357
0.00272829
0.00283926
0.00303629
0.00342322
0.00418902
0.00392788
0.00236445
0.00222292
0.00222643
0.00224476
0.00225357
0.00226115
0.00227765
0.00230268
0.00233686
0.00237878
0.00242684
0.00248136
0.00254203
0.00260684
0.0026728
0.00273814
0.00280611
0.00288497
0.00298548
0.00312717
0.00334471
0.00366254
0.00488703
0.00285144
0.00267637
0.00262907
0.00260815
0.00256681
0.00252465
0.00250695
0.0025023
0.0025149
0.00254242
0.00257965
0.00262783
0.00268845
0.00275823
0.00283231
0.00290252
0.00296901
0.00305036
0.00314257
0.0032393
0.00335907
0.00351429
0.00626437
0.00322339
0.00304351
0.00278694
0.00270598
0.0026609
0.00262406
0.00262355
0.00263546
0.00265962
0.00269722
0.0027411
0.00279386
0.00286382
0.00294198
0.00302687
0.00310488
0.00315011
0.00322812
0.0033123
0.00334545
0.00339776
0.00345708
0.00642678
0.00333232
0.00299153
0.00281017
0.00282615
0.00276574
0.00265754
0.00263283
0.00265411
0.00270278
0.00276668
0.00283606
0.00291539
0.00300826
0.00309172
0.00316385
0.00321673
0.00322724
0.0032541
0.00330882
0.00334105
0.0033762
0.00342298
0.00170015
0.00327263
0.00293409
0.00275711
0.002723
0.00269417
0.00265478
0.00265183
0.00267616
0.00272173
0.00278515
0.00285607
0.00293185
0.00301164
0.0030771
0.00312732
0.00315645
0.00317433
0.00320415
0.0032397
0.00326738
0.00329992
0.00333073
0.00746456
0.00312075
0.00274972
0.00266296
0.00262368
0.00261844
0.00263089
0.0026588
0.00269875
0.00274563
0.00280167
0.00286201
0.00291818
0.00297119
0.00302303
0.00306987
0.00310734
0.00313809
0.00317005
0.00319702
0.003217
0.00323693
0.00324905
0.00176891
0.00293306
0.00262677
0.00257198
0.00255433
0.00256647
0.00260219
0.00264943
0.00270195
0.00275611
0.00281228
0.00286702
0.00291402
0.00295437
0.00299509
0.00303752
0.00307862
0.00311455
0.0031441
0.00316809
0.00318759
0.0031999
0.00319467
0.00748282
0.00285999
0.00255526
0.00250234
0.00250182
0.0025286
0.00257542
0.00263177
0.00269151
0.00275156
0.00281
0.00286287
0.00290638
0.00294316
0.00298063
0.0030216
0.00306163
0.00309659
0.00312526
0.00314906
0.0031652
0.00316896
0.0031574
0.00176908
0.0028638
0.00253047
0.00246454
0.0024682
0.00250161
0.00255245
0.00261177
0.00267442
0.00273725
0.00279704
0.00284999
0.00289441
0.00293338
0.00297231
0.00301285
0.00305155
0.00308587
0.00311485
0.00313748
0.0031498
0.00314992
0.00313891
0.0017686
0.00289804
0.00253461
0.00245267
0.00245244
0.00248578
0.00253627
0.00259531
0.00265817
0.00272139
0.00278154
0.0028357
0.00288336
0.00292671
0.00296876
0.00301017
0.00304887
0.00308341
0.00311283
0.00313501
0.00314684
0.00314813
0.0031408
0.00746607
0.00297538
0.00255688
0.0024581
0.0024505
0.0024803
0.0025284
0.00258579
0.00264752
0.00270995
0.0027701
0.002826
0.00287737
0.00292526
0.00297095
0.0030145
0.00305471
0.00309065
0.00312135
0.00314486
0.00315915
0.00316442
0.00316227
0.00747501
0.00303344
0.00258655
0.00247368
0.00245826
0.00248339
0.00252842
0.00258379
0.00264405
0.00270565
0.00276613
0.00282407
0.002879
0.00293111
0.00298067
0.00302741
0.00307052
0.00310925
0.00314266
0.00316929
0.00318789
0.00319856
0.00320237
0.00747614
0.00308541
0.00261997
0.00249537
0.00247269
0.00249315
0.00253516
0.00258862
0.00264781
0.00270925
0.0027708
0.00283118
0.00288968
0.00294598
0.00299982
0.00305071
0.00309796
0.00314085
0.00317852
0.00320988
0.00323408
0.00325112
0.00326162
0.0074703
0.00314252
0.00265573
0.00252089
0.00249173
0.00250804
0.0025475
0.00259959
0.0026585
0.00272076
0.00278427
0.00284773
0.00291024
0.00297119
0.00303002
0.00308611
0.00313875
0.00318722
0.00323069
0.00326829
0.00329939
0.00332385
0.00334194
0.00746089
0.00319816
0.00269293
0.00254889
0.00251411
0.00252703
0.00256472
0.00261633
0.00267596
0.0027401
0.0028066
0.00287403
0.00294138
0.00300786
0.00307273
0.00313527
0.00319472
0.00325031
0.00330122
0.0033467
0.00338616
0.00341931
0.00344613
0.0017667
0.00323702
0.00273099
0.00257865
0.00253911
0.00254957
0.00258647
0.00263868
0.00270018
0.00276737
0.00283802
0.00291059
0.00298396
0.0030572
0.00312949
0.0032
0.00326791
0.00333239
0.0033926
0.00344777
0.00349727
0.00354065
0.00357763
0.00746415
0.00330729
0.00277002
0.00260982
0.00256642
0.00257546
0.0026127
0.00266673
0.00273136
0.00280292
0.00287906
0.00295818
0.00303905
0.00312065
0.00320207
0.00328239
0.00336072
0.00343614
0.00350775
0.00357469
0.00363621
0.00369168
0.00374056
0.0074823
0.00336005
0.00280935
0.0026422
0.00259594
0.00260469
0.00264353
0.0027007
0.00276988
0.00284729
0.00293051
0.00301784
0.00310801
0.00319991
0.00329252
0.00338487
0.00347594
0.00356472
0.00365018
0.00373133
0.00380724
0.00387706
0.00394001
0.00176797
0.00340128
0.00284938
0.00267578
0.0026277
0.00263742
0.00267922
0.00274101
0.0028163
0.00290124
0.00299334
0.00309087
0.00319247
0.00329697
0.00340327
0.00351028
0.00361688
0.0037219
0.00382414
0.00392243
0.0040156
0.00410255
0.00418222
0.00749394
0.00346629
0.00288984
0.00271054
0.00266186
0.00267392
0.00272016
0.00278817
0.00287132
0.00296569
0.00306878
0.0031788
0.00329435
0.0034142
0.00353716
0.00366201
0.00378747
0.0039122
0.00403478
0.00415377
0.00426771
0.00437521
0.00447491
0.00176794
0.00351742
0.00293081
0.00274657
0.00269861
0.00271451
0.00276682
0.00284281
0.00293576
0.00304174
0.00315822
0.00328341
0.00341589
0.00355436
0.00369753
0.00384405
0.00399243
0.0041411
0.00428836
0.00443242
0.00457148
0.00470376
0.00482753
0.00749168
0.00359193
0.00297193
0.00278391
0.00273825
0.00275961
0.00281972
0.00290563
0.00301056
0.00313059
0.00326325
0.00340675
0.00355967
0.00372066
0.00388832
0.00406115
0.00423741
0.00441522
0.0045925
0.00476704
0.00493659
0.00509887
0.00525172
0.0074825
0.00366044
0.00301253
0.00282263
0.00278109
0.00280965
0.00287946
0.0029774
0.00309673
0.00323362
0.00338565
0.00355112
0.00372864
0.00391682
0.00411417
0.00431896
0.00452919
0.00474255
0.00495649
0.00516823
0.00537491
0.00557366
0.00576174
0.00758072
0.003708
0.00305136
0.00286308
0.00282753
0.00286511
0.00294661
0.00305892
0.00319537
0.00335227
0.00352737
0.0037191
0.00392615
0.00414713
0.00438045
0.00462416
0.00487588
0.00513277
0.00539164
0.00564895
0.00590104
0.00614426
0.00637509
0.00767743
0.00375237
0.00309056
0.0029058
0.00287795
0.00292642
0.00302179
0.00315099
0.00330758
0.00348807
0.00369049
0.0039135
0.00415592
0.00441646
0.00469343
0.00498462
0.00528716
0.00559755
0.0059117
0.00622507
0.0065329
0.00683047
0.0071133
0.00777031
0.00379594
0.00313074
0.00295109
0.00293265
0.00299396
0.0031055
0.00325438
0.00343443
0.00364256
0.00387717
0.00413729
0.00442205
0.00473028
0.00506027
0.00540951
0.00577453
0.00615092
0.0065334
0.00691603
0.00729253
0.00765675
0.00800293
0.00785937
0.00383887
0.003172
0.00299909
0.00299183
0.00306804
0.00319821
0.00336973
0.0035769
0.00381718
0.00408954
0.00439356
0.00472886
0.00509458
0.00548906
0.00590944
0.00635155
0.00680975
0.00727709
0.0077457
0.00820711
0.00865309
0.00907621
0.00794217
0.00388054
0.00321418
0.00304981
0.00305561
0.00314887
0.00330023
0.00349756
0.0037358
0.00401318
0.00432953
0.00468527
0.00508078
0.00551575
0.00598871
0.00649652
0.00703407
0.00759415
0.00816741
0.00874317
0.00931002
0.00985687
0.0103737
0.00801103
0.00391963
0.00325695
0.0031032
0.00312407
0.00323658
0.00341174
0.00363813
0.00391159
0.00423143
0.00459869
0.00501503
0.005482
0.00600024
0.00656875
0.00718419
0.00784032
0.00852772
0.00923392
0.00994419
0.0106428
0.0113147
0.0119458
0.00805531
0.00395543
0.00330024
0.00315935
0.00319731
0.00333127
0.00353282
0.00379148
0.00410434
0.00447223
0.00489785
0.00538469
0.00593603
0.00655403
0.00723868
0.00798669
0.00879059
0.0096381
0.0105123
0.0113925
0.0122568
0.013084
0.0138549
0.00807424
0.00398979
0.00334397
0.0032181
0.00327536
0.00343293
0.00366325
0.00395715
0.00431343
0.00473493
0.00522668
0.00579469
0.00644487
0.00718179
0.00800723
0.00891854
0.00990698
0.0109566
0.0120443
0.0131411
0.0142152
0.0152367
0.0161792
0.00804763
0.00401643
0.00338684
0.00327975
0.00335883
0.00354193
0.00380286
0.00413432
0.00453739
0.00501761
0.00558311
0.00624338
0.00700811
0.0078856
0.00888074
0.00999252
0.0112113
0.0125169
0.0138775
0.0152521
0.0165949
0.0178619
0.0190162
0.0079655
0.00403101
0.00342932
0.00334643
0.00344986
0.00365953
0.00395168
0.00432172
0.00477374
0.0053167
0.00596273
0.006726
0.00762144
0.00866292
0.00986044
0.0112165
0.0127216
0.0143507
0.0160614
0.0177957
0.0194866
0.0210682
0.0224867
0.00780823
0.00403198
0.00347659
0.00342472
0.00355373
0.00378875
0.0041103
0.00451765
0.00501867
0.00562645
0.00635801
0.00723345
0.00827479
0.00950383
0.0109385
0.0125878
0.0144447
0.0164805
0.0186403
0.0208442
0.022994
0.0249877
0.0267415
0.00754442
0.00402701
0.00354692
0.00353134
0.00368183
0.00393545
0.00428
0.00471974
0.00526671
0.00593846
0.00675753
0.00775115
0.00895034
0.0103877
0.0120928
0.0140853
0.0163655
0.0189047
0.0216377
0.0244599
0.0272294
0.0297815
0.031972
0.00749974
0.00404975
0.00369714
0.00370576
0.00385601
0.00410906
0.00446228
0.00492426
0.00551013
0.0062412
0.00714548
0.00825806
0.00962066
0.0112794
0.01328
0.0156586
0.0184302
0.021576
0.0250315
0.0286749
0.0323095
0.0356575
0.0384334
0.00749191
0.00450189
0.00411867
0.00403695
0.00411291
0.00432102
0.0046567
0.00512467
0.00573821
0.00651978
0.00750165
0.00872661
0.010248
0.0121277
0.0144312
0.0172178
0.0205283
0.0243721
0.0287153
0.0334547
0.0383503
0.04292
0.046496
0.016105
0.00742733
0.00539157
0.00469866
0.00449795
0.00457613
0.00485561
0.00530915
0.00593657
0.00675628
0.00780237
0.0091241
0.0107859
0.0128657
0.0154508
0.0186287
0.0224782
0.0270649
0.0324423
0.0386254
0.0454403
0.0521063
0.0567443
0.155101
0.0259652
0.00929117
0.00594612
0.00502166
0.00485026
0.00503554
0.00545812
0.0060871
0.00693098
0.00802285
0.00941623
0.0111843
0.0134187
0.0162262
0.0197224
0.024031
0.0292994
0.0357446
0.0436968
0.0534679
0.0643836
0.0701359
1.53823
0.127051
0.0193131
0.00771202
0.00552569
0.00505733
0.00515139
0.00554486
0.00617014
0.00702512
0.00814075
0.00957247
0.0113983
0.0137178
0.0166495
0.0203281
0.0249106
0.0306186
0.0378545
0.047451
0.061173
0.082847
0.0881115
0.0149609
0.0113841
0.01074
0.012752
0.00519746
0.00522707
0.00512936
0.00495155
0.00390125
0.0039576
0.00392491
0.00381398
0.00362956
0.00365792
0.0036249
0.00354657
0.0035086
0.00352492
0.00349802
0.00343495
0.0034985
0.00350764
0.00346563
0.0034062
0.00336787
0.00336853
0.0033426
0.00330778
0.00324597
0.00324024
0.00322873
0.0032109
0.00317883
0.00316665
0.00315388
0.00313953
0.00314066
0.00312858
0.0031156
0.0031017
0.003125
0.00311489
0.0031036
0.00309122
0.0031306
0.00312284
0.00311374
0.00310336
0.0031562
0.003151
0.0031443
0.00313614
0.00320079
0.00319839
0.00319438
0.00318877
0.00326496
0.00326565
0.00326465
0.00326196
0.00335081
0.00335499
0.00335739
0.00335801
0.00346132
0.00346947
0.00347575
0.00348014
0.0036001
0.00361283
0.00362357
0.00363229
0.00377152
0.00378958
0.0038055
0.00381925
0.00398095
0.00400527
0.00402728
0.00404692
0.00423501
0.00426673
0.00429595
0.00432258
0.00454182
0.00458239
0.0046202
0.00465516
0.00491139
0.00496256
0.00501066
0.00505554
0.00535598
0.00541988
0.00548032
0.00553705
0.0058906
0.00596985
0.00604504
0.00611599
0.0065337
0.00663134
0.00672425
0.00681221
0.00730774
0.00742751
0.00754168
0.00764996
0.00824037
0.00838671
0.00852628
0.00865873
0.00936558
0.00954378
0.0097136
0.00987468
0.0107255
0.0109418
0.0111474
0.0113421
0.0123724
0.0126338
0.0128817
0.0131155
0.0143711
0.0146859
0.014983
0.015262
0.0168024
0.01718
0.017534
0.0178643
0.0197668
0.0202179
0.0206371
0.0210248
0.0233897
0.0239262
0.0244191
0.0248699
0.0278272
0.0284629
0.029038
0.0295558
0.0332778
0.0340272
0.0346914
0.0352772
0.0400017
0.0408772
0.0416314
0.0422783
0.048359
0.0493582
0.0501858
0.0508693
0.0588668
0.0599393
0.0607797
0.0614396
0.0722519
0.0732259
0.0739311
0.0744487
0.0893666
0.0898508
0.0901581
0.0903625
0.00511168
0.00329911
0.00267039
0.00239375
0.00225051
0.00216607
0.00210845
0.00205665
0.00199391
0.00192367
0.00187719
0.00183451
0.0017744
0.00167748
0.00154364
0.00142682
0.00131874
0.00129255
0.00209881
0.00396385
0.00318717
0.00276577
0.0025219
0.00237099
0.00227071
0.00219806
0.00213762
0.00207967
0.00202609
0.00199411
0.00197209
0.00190962
0.00178508
0.00164647
0.00153759
0.00146924
0.00152092
0.00270686
0.00350962
0.00311952
0.00284079
0.00263594
0.00249392
0.00239517
0.00232255
0.00226544
0.00221741
0.0021767
0.0021527
0.00213754
0.00205877
0.00191042
0.00176196
0.00166119
0.00162733
0.00173983
0.00302857
0.00336976
0.00313547
0.00294591
0.00275677
0.00263114
0.00254897
0.00248891
0.00244501
0.00241469
0.0023905
0.00238114
0.00237909
0.00226247
0.00207798
0.00189888
0.00179635
0.00179532
0.0019931
0.00337819
0.00330343
0.00314139
0.00300108
0.00286017
0.00276823
0.00269252
0.00262871
0.00259037
0.00256535
0.00251641
0.00245055
0.00241247
0.00235001
0.0022002
0.00203612
0.00192081
0.00193231
0.0021689
0.00412357
0.00330485
0.00320012
0.00309923
0.00295015
0.00283975
0.00275546
0.00268626
0.00263698
0.00259984
0.00254584
0.00246234
0.00242356
0.00235202
0.00222322
0.00209066
0.00201576
0.00205038
0.0023432
0.00491133
0.00324808
0.00317786
0.00309953
0.00297681
0.00288143
0.00281621
0.00275613
0.00270538
0.00265054
0.00258001
0.00248921
0.00240571
0.00231561
0.00221214
0.00212749
0.00208435
0.00212545
0.00246522
0.00523881
0.00317437
0.00311884
0.00305389
0.0029695
0.00290022
0.00285366
0.00280955
0.00275025
0.00267696
0.00260011
0.00251093
0.00241478
0.0023136
0.00221943
0.00214203
0.00210969
0.00217413
0.00255149
0.0050814
0.00311206
0.00306458
0.00300815
0.00294554
0.00289386
0.00285855
0.00281937
0.00274854
0.00267035
0.00259771
0.0025123
0.00241439
0.0023295
0.00224875
0.00216165
0.002114
0.00217041
0.00254514
0.00498284
0.00307698
0.00303582
0.00298918
0.00294047
0.00289593
0.00285805
0.00280905
0.0027341
0.00265865
0.00258656
0.00250011
0.0023997
0.00232128
0.00225471
0.00217106
0.00210792
0.00213021
0.00242586
0.00491211
0.00306907
0.00303287
0.00299367
0.00295296
0.00290954
0.00286382
0.00280615
0.00273174
0.00265495
0.00257823
0.00249052
0.00238917
0.00229907
0.00222813
0.00215609
0.00209619
0.00208915
0.00229143
0.00489925
0.00308418
0.00305186
0.00301625
0.00297806
0.00293393
0.00288338
0.00282229
0.00274757
0.00266814
0.00258679
0.00249725
0.00239684
0.00229667
0.00220901
0.00213432
0.00208623
0.00207652
0.00221198
0.00115755
0.00312029
0.00309189
0.00305823
0.00301958
0.00297429
0.00292171
0.00285935
0.00278578
0.00270606
0.00262211
0.00253065
0.00243056
0.0023274
0.00222859
0.0021423
0.00208978
0.00208363
0.00217351
0.00115922
0.00317688
0.00315324
0.00312249
0.00308442
0.00303868
0.00298517
0.0029228
0.00285111
0.00277224
0.00268723
0.0025947
0.00249457
0.0023904
0.0022876
0.00219531
0.002132
0.0021215
0.0022138
0.00477228
0.00325473
0.00323687
0.0032106
0.00317534
0.00313104
0.00307811
0.00301657
0.00294642
0.00286847
0.0027833
0.00269058
0.00259089
0.00248708
0.00238439
0.00229206
0.0022249
0.00220828
0.00228897
0.00114855
0.00335608
0.00334492
0.00332442
0.00329377
0.00325288
0.00320224
0.0031424
0.0030737
0.00299663
0.00291172
0.00281934
0.00272064
0.00261859
0.00251883
0.00243126
0.00237149
0.00236872
0.00249132
0.00115926
0.00348426
0.00348077
0.00346709
0.00344236
0.00340631
0.00335933
0.00330206
0.00323509
0.00315901
0.00307456
0.0029827
0.00288525
0.00278575
0.00269075
0.00261187
0.00256996
0.00260993
0.00286571
0.00490028
0.00364337
0.00364871
0.00364295
0.00362519
0.00359504
0.00355271
0.00349878
0.00343396
0.00335905
0.00327512
0.0031837
0.0030873
0.00299033
0.00290052
0.00283186
0.00281217
0.00290995
0.00334785
0.00532149
0.00383843
0.00385404
0.00385746
0.00384775
0.00382445
0.0037876
0.00373766
0.0036754
0.00360183
0.00351834
0.00342701
0.00333107
0.00323584
0.00315034
0.00309081
0.0030907
0.00323611
0.00382033
0.0064975
0.00407562
0.00410329
0.00411742
0.00411706
0.00410164
0.00407108
0.00402576
0.00396643
0.00389428
0.00381102
0.0037192
0.00362275
0.00352792
0.00344508
0.00339272
0.00340908
0.00359424
0.00431431
0.00790061
0.00436254
0.00440447
0.00443122
0.00444177
0.00443547
0.00441215
0.0043721
0.00431607
0.00424537
0.00416196
0.00406883
0.00397056
0.00387436
0.00379208
0.00374482
0.00377613
0.00399935
0.00484315
0.00947315
0.0047085
0.00476737
0.00480905
0.00483243
0.00483678
0.00482184
0.00478783
0.00473551
0.00466622
0.00458216
0.00448667
0.00438493
0.00428513
0.0042008
0.00415629
0.00420255
0.00447189
0.00546914
0.0112913
0.00512487
0.00520392
0.00526332
0.00530184
0.00531869
0.00531351
0.00528648
0.00523832
0.00517041
0.00508508
0.00498596
0.00487872
0.00477251
0.00468262
0.00463666
0.00469207
0.00499785
0.00612213
0.012887
0.00562552
0.0057286
0.00580902
0.00586543
0.00589696
0.0059032
0.00588427
0.00584083
0.00577428
0.005687
0.00558281
0.0054678
0.00535186
0.00525163
0.00519734
0.00525142
0.00557406
0.00677375
0.0141082
0.00622734
0.006359
0.00646428
0.00654176
0.00659049
0.00661006
0.00660056
0.00656261
0.00649753
0.00640768
0.0062969
0.00617149
0.00604182
0.00592555
0.00585482
0.00589582
0.00621701
0.00745806
0.0152038
0.00695088
0.00711639
0.00725093
0.00735304
0.00742184
0.00745696
0.00745848
0.00742696
0.00736362
0.00727066
0.00715179
0.00701327
0.00686569
0.00672737
0.00663211
0.00664978
0.00695873
0.00823972
0.0164827
0.00782109
0.00802644
0.00819516
0.00832591
0.00841796
0.00847107
0.00848542
0.00846152
0.00840044
0.0083041
0.00817589
0.0080218
0.00785233
0.0076863
0.00755922
0.00754573
0.00783854
0.00917937
0.018137
0.00886827
0.00912022
0.00932854
0.00949219
0.00961083
0.00968457
0.00971377
0.00969897
0.00964105
0.00954156
0.00940337
0.0092319
0.00903732
0.00883878
0.00867381
0.00862342
0.00890032
0.0103307
0.0202769
0.0101294
0.0104353
0.0106889
0.0108898
0.0110384
0.0111355
0.0111817
0.0111779
0.0111246
0.0110229
0.0108751
0.0106857
0.0104642
0.0102299
0.0100224
0.00993092
0.0101933
0.0117415
0.0229223
0.0116495
0.0120172
0.0123218
0.0125641
0.0127458
0.0128688
0.0129343
0.0129436
0.0128971
0.0127955
0.0126399
0.012434
0.012186
0.011915
0.011663
0.0115277
0.011777
0.0134664
0.026094
0.0134836
0.0139209
0.0142816
0.0145689
0.0147864
0.0149374
0.0150246
0.0150495
0.0150129
0.0149148
0.0147556
0.0145374
0.0142671
0.0139628
0.013668
0.0134898
0.0137295
0.0155839
0.0298637
0.0156991
0.0162131
0.0166342
0.0169688
0.0172236
0.0174041
0.0175148
0.0175582
0.0175354
0.0174463
0.0172903
0.0170682
0.0167849
0.0164571
0.016129
0.015917
0.01616
0.0182251
0.03453
0.0183785
0.018975
0.0194586
0.0198408
0.0201327
0.0203431
0.0204786
0.0205434
0.0205393
0.0204663
0.0203236
0.0201108
0.0198313
0.0194999
0.0191609
0.0189396
0.0192194
0.0215878
0.040627
0.0216233
0.0223051
0.02285
0.0232773
0.0236037
0.0238425
0.0240031
0.0240916
0.0241114
0.0240635
0.0239474
0.023763
0.0235131
0.0232119
0.0229042
0.0227245
0.0231077
0.0259232
0.0486338
0.0255578
0.026323
0.0269235
0.0273892
0.0277444
0.0280075
0.0281917
0.0283055
0.0283542
0.0283409
0.0282672
0.0281353
0.027951
0.0277312
0.0275251
0.0274795
0.0280885
0.0315673
0.0591031
0.0303344
0.0311743
0.031818
0.0323102
0.0326844
0.032965
0.0331687
0.0333071
0.0333883
0.0334182
0.0334029
0.0333505
0.0332754
0.0332064
0.0332082
0.0334533
0.0345109
0.0390197
0.0730126
0.0361404
0.0370356
0.0377018
0.0382022
0.038581
0.0388683
0.0390846
0.0392441
0.0393578
0.0394359
0.0394912
0.0395423
0.039621
0.0397832
0.0401357
0.0409155
0.0428203
0.0490373
0.091993
0.0432064
0.0441216
0.0447785
0.0452619
0.0456261
0.0459058
0.0461238
0.0462966
0.0464377
0.046562
0.0466903
0.0468563
0.0471186
0.0475822
0.0484414
0.0500887
0.0535127
0.062763
0.118927
0.0518158
0.0526927
0.0532961
0.0537304
0.0540564
0.0543105
0.0545157
0.0546888
0.054845
0.0550027
0.0551903
0.0554572
0.0558939
0.0566733
0.0581346
0.0609831
0.0669018
0.0817976
0.159689
0.0623119
0.0630628
0.0635567
0.063905
0.0641666
0.0643744
0.0645485
0.0647036
0.0648543
0.0650197
0.0652315
0.065548
0.066083
0.0670708
0.0690174
0.073096
0.0823752
0.107444
0.228315
0.0750938
0.0756069
0.0759307
0.0761564
0.0763275
0.076467
0.0765885
0.0767021
0.0768188
0.0769538
0.0771338
0.0774096
0.0778868
0.0787986
0.0807059
0.0851111
0.096733
0.135401
0.35205
0.0905983
0.0907716
0.090878
0.0909525
0.0910105
0.0910597
0.0911047
0.0911492
0.0911975
0.0912558
0.0913357
0.0914592
0.0916739
0.0920903
0.0930029
0.0953472
0.102929
0.139271
0.580718
)
;

boundaryField
{
    leftWall
    {
        type            epsilonWallFunction;
        value           nonuniform List<scalar> 
50
(
0.000218954
0.000444108
0.000753202
0.00105752
0.0013504
0.00163499
0.00191763
0.00221467
0.00263939
0.00325082
0.00392788
0.00488703
0.00626437
0.00642678
0.00170015
0.00746456
0.00176891
0.00748282
0.00176908
0.0017686
0.00746607
0.00747501
0.00747614
0.0074703
0.00746089
0.0017667
0.00746415
0.0074823
0.00176797
0.00749394
0.00176794
0.00749168
0.0074825
0.00758072
0.00767743
0.00777031
0.00785937
0.00794217
0.00801103
0.00805531
0.00807424
0.00804763
0.0079655
0.00780823
0.00754442
0.00749974
0.00749191
0.016105
0.155101
1.53823
)
;
    }
    rightWall
    {
        type            epsilonWallFunction;
        value           nonuniform List<scalar> 
50
(
0.000389316
0.00046012
0.000609374
0.000755395
0.000920473
0.00111517
0.00135287
0.00165687
0.00209881
0.00270686
0.00302857
0.00337819
0.00412357
0.00491133
0.00523881
0.0050814
0.00498284
0.00491211
0.00489925
0.00115755
0.00115922
0.00477228
0.00114855
0.00115926
0.00490028
0.00532149
0.0064975
0.00790061
0.00947315
0.0112913
0.012887
0.0141082
0.0152038
0.0164827
0.018137
0.0202769
0.0229223
0.026094
0.0298637
0.03453
0.040627
0.0486338
0.0591031
0.0730126
0.091993
0.118927
0.159689
0.228315
0.35205
0.580718
)
;
    }
    lowerWall
    {
        type            epsilonWallFunction;
        value           nonuniform List<scalar> 
62
(
0.000218954
0.00114867
0.0020275
0.00282328
0.00353938
0.00418508
0.0047711
0.00530467
0.00578806
0.00622419
0.00662258
0.00699761
0.00735116
0.0076527
0.0078179
0.00767905
0.00705528
0.00605852
0.00496273
0.00400742
0.0032489
0.0022091
0.000674356
0.000674356
0.00109349
0.00180876
0.00263053
0.00370645
0.00511803
0.00716951
0.0118061
0.0149609
0.0113841
0.01074
0.012752
0.000760173
0.000813323
0.00121076
0.00178979
0.00254302
0.00356944
0.00521944
0.00892449
0.000760173
0.00300349
0.00469526
0.00558804
0.00608346
0.00629689
0.00649348
0.00669857
0.00670815
0.00601302
0.0048003
0.00365087
0.00268224
0.00274777
0.00351285
0.0034562
0.00224872
0.00126153
0.000389316
)
;
    }
    atmosphere
    {
        type            inletOutlet;
        inletValue      uniform 0.1;
        value           nonuniform List<scalar> 
46
(
0.1
0.127051
0.0193131
0.00771202
0.00552569
0.00505733
0.00515139
0.00554486
0.00617014
0.00702512
0.00814075
0.00957247
0.0113983
0.0137178
0.0166495
0.0203281
0.0249106
0.0306186
0.0378545
0.047451
0.061173
0.1
0.1
0.1
0.1
0.1
0.1
0.1
0.1
0.1
0.1
0.1
0.1
0.1
0.1
0.1
0.1
0.1
0.1
0.1
0.1
0.1
0.1
0.1
0.1
0.580718
)
;
    }
    defaultFaces
    {
        type            empty;
    }
}


// ************************************************************************* //
