/*--------------------------------*- C++ -*----------------------------------*\
  =========                 |
  \\      /  F ield         | OpenFOAM: The Open Source CFD Toolbox
   \\    /   O peration     | Website:  https://openfoam.org
    \\  /    A nd           | Version:  9
     \\/     M anipulation  |
\*---------------------------------------------------------------------------*/
FoamFile
{
    format      ascii;
    class       volScalarField;
    location    "6.54";
    object      k;
}
// * * * * * * * * * * * * * * * * * * * * * * * * * * * * * * * * * * * * * //

dimensions      [0 2 -2 0 0 0 0];

internalField   nonuniform List<scalar> 
2268
(
0.000170393
0.000419526
0.00061276
0.000764117
0.000888406
0.000993415
0.00108411
0.00116349
0.00123313
0.00129429
0.00134889
0.00139928
0.00144596
0.00148517
0.00150644
0.00148856
0.001407
0.00127133
0.00111306
0.000964997
0.000838811
0.000648369
0.000293957
0.000366934
0.000970593
0.00137084
0.00168641
0.0019466
0.00216638
0.0023552
0.00251908
0.00266189
0.00278663
0.00289657
0.00299423
0.00307853
0.00314211
0.00316881
0.00313101
0.00299525
0.00275705
0.00248695
0.00222034
0.00193731
0.00148092
0.000668778
0.000521843
0.00129777
0.00179202
0.00218137
0.00250338
0.00277569
0.00300935
0.00321165
0.00338753
0.00354078
0.00367505
0.00379259
0.00389169
0.0039642
0.00399364
0.00395405
0.00381799
0.00358357
0.00330067
0.00299586
0.00263889
0.00205726
0.000935437
0.000654322
0.00156198
0.00211989
0.00255646
0.00291762
0.00322306
0.00348488
0.00371121
0.00390767
0.0040785
0.00422748
0.0043568
0.00446457
0.00454281
0.00457616
0.00454185
0.00441699
0.00419973
0.00392701
0.00361607
0.00322963
0.00260012
0.00120084
0.000770154
0.00179571
0.00240661
0.00287962
0.00326982
0.0035993
0.00388131
0.00412477
0.00433586
0.00451913
0.0046785
0.00481624
0.00493065
0.00501437
0.00505371
0.00502909
0.00492014
0.0047239
0.00447144
0.00417195
0.00378241
0.00313361
0.00150942
0.000874888
0.00201098
0.00267052
0.00317478
0.00358841
0.00393644
0.0042336
0.00448977
0.00471173
0.00490431
0.0050716
0.00521606
0.00533643
0.00542624
0.00547361
0.00546183
0.00537139
0.0051995
0.00497298
0.0046962
0.00432532
0.00368685
0.00187156
0.000973046
0.002215
0.00292127
0.00345406
0.00388754
0.0042502
0.00455868
0.00482415
0.00505413
0.00525373
0.00542724
0.00557742
0.0057036
0.00580026
0.00585729
0.00585954
0.00579
0.00564593
0.00544928
0.00520316
0.00486994
0.00427977
0.00234294
0.00107116
0.0024136
0.0031655
0.0037253
0.00417606
0.0045501
0.00486656
0.00513829
0.00537379
0.00557851
0.00575691
0.00591208
0.00604401
0.00614817
0.00621567
0.00623253
0.00618508
0.00607102
0.00590747
0.0056973
0.005414
0.00492535
0.00326695
0.000318845
0.000796015
0.00107213
0.001204
0.00127414
0.00130379
0.00133086
0.00135881
0.00136003
0.00126409
0.00108761
0.000906008
0.000737904
0.000750473
0.000883742
0.000874072
0.000656408
0.000446527
0.00025531
0.000589559
0.00166562
0.00225218
0.00256454
0.00273014
0.00281325
0.00286212
0.00288566
0.00284106
0.00265456
0.00232868
0.00199983
0.00169222
0.00163089
0.00179101
0.0017235
0.00136519
0.00096209
0.000402607
0.000768089
0.00214862
0.00287466
0.00325913
0.00346258
0.00356659
0.00362149
0.00363482
0.00356167
0.00334063
0.00299802
0.00263698
0.00231031
0.00220006
0.00227651
0.00214393
0.00171879
0.00120495
0.000485789
0.000996237
0.0025682
0.00337158
0.0037823
0.00399727
0.00410631
0.00415837
0.00415839
0.00406305
0.00382399
0.00347928
0.00311973
0.00279871
0.0026546
0.00265281
0.00245914
0.00198563
0.00137975
0.000560854
0.00125888
0.00301402
0.00383663
0.00424264
0.00445145
0.0045545
0.00459721
0.00458196
0.00446811
0.00422034
0.00388081
0.00353324
0.00322547
0.00305674
0.00298414
0.00273541
0.0022255
0.00154655
0.000640046
0.00157785
0.00350816
0.00429778
0.00467464
0.00486403
0.00495268
0.00498073
0.00494875
0.00481969
0.00456985
0.00424294
0.00391296
0.00362057
0.00343458
0.00328937
0.00299024
0.00245422
0.00172745
0.00072759
0.00203242
0.00405326
0.00476204
0.00509096
0.00525119
0.00531924
0.00532852
0.00527869
0.00513731
0.00489055
0.00458631
0.00427824
0.00400146
0.00379761
0.00357555
0.00322846
0.00267349
0.00192398
0.000827821
0.00290713
0.00464856
0.00522551
0.00549416
0.00561948
0.00566289
0.00565153
0.00558327
0.00543264
0.00519356
0.00492016
0.00463969
0.00437509
0.00413877
0.00384559
0.00345242
0.00288273
0.00212985
0.000947663
0.00120401
0.00270145
0.0035291
0.00413284
0.00460961
0.00499853
0.00532377
0.00560188
0.00584338
0.00605458
0.00624007
0.00640311
0.00654474
0.00666177
0.00674548
0.00678564
0.0067727
0.00670609
0.00659648
0.00644519
0.00624209
0.00593735
0.00530445
0.00138353
0.00309856
0.00404093
0.00470708
0.00521282
0.00560876
0.00593094
0.00620458
0.00644346
0.00665568
0.00684547
0.00701542
0.0071675
0.00729846
0.00740219
0.00747037
0.00749648
0.00748068
0.00742859
0.00734191
0.00722051
0.00705319
0.00679384
0.0015698
0.00351774
0.00460709
0.00534384
0.00587417
0.00626055
0.00656111
0.00681664
0.00704094
0.007245
0.00743249
0.0076038
0.00776132
0.00790445
0.00802783
0.00812316
0.00818305
0.00820747
0.00820182
0.00816601
0.00809928
0.00800802
0.00789932
0.00181675
0.00399174
0.00526113
0.00605495
0.00660536
0.00696921
0.00723278
0.00746519
0.00766476
0.00785181
0.00803087
0.00819687
0.0083543
0.00850774
0.00865057
0.00877311
0.00885913
0.00890583
0.00893977
0.00894619
0.00890706
0.00884728
0.00880258
0.00214519
0.00453276
0.00587416
0.00644638
0.00694165
0.0073278
0.00762315
0.00790367
0.00814864
0.00837092
0.00858124
0.0087709
0.00894583
0.00912519
0.00929217
0.00944421
0.00955845
0.00958936
0.00964338
0.00967907
0.00960722
0.00954525
0.00949131
0.00218046
0.00460352
0.00581426
0.00652216
0.00720012
0.00762366
0.00784715
0.0081151
0.00839643
0.00867707
0.00894649
0.00919258
0.00942544
0.00965527
0.00984189
0.00998434
0.0100712
0.0100622
0.0100547
0.0100805
0.0100594
0.0100342
0.0100312
0.00235286
0.00459976
0.00578284
0.00652099
0.00715202
0.00763117
0.00798187
0.00830753
0.00861484
0.00890762
0.00919063
0.00945198
0.0096909
0.00991012
0.0100795
0.0102003
0.010263
0.0102862
0.0103113
0.0103343
0.0103401
0.010351
0.010368
0.00240313
0.00443268
0.00562503
0.00647913
0.00710529
0.00762503
0.00806925
0.00846129
0.00881143
0.0091219
0.00940571
0.009661
0.00987771
0.0100621
0.0102234
0.0103564
0.010452
0.0105167
0.0105692
0.0106019
0.0106163
0.0106307
0.010643
0.0024123
0.00429492
0.00552857
0.00642663
0.00709213
0.00764691
0.00813841
0.00857402
0.00895813
0.00929434
0.00959137
0.00984955
0.0100626
0.0102384
0.0103956
0.0105373
0.0106569
0.0107495
0.010817
0.0108631
0.0108938
0.0109114
0.0109038
0.00240846
0.00425413
0.00548934
0.00639499
0.00709563
0.0076825
0.00820102
0.00866143
0.00906859
0.00942691
0.00974047
0.0100081
0.0102279
0.0104111
0.0105765
0.0107303
0.0108637
0.0109712
0.0110532
0.0111139
0.0111521
0.0111645
0.0111493
0.00241275
0.004277
0.00550354
0.00640433
0.00712202
0.00772858
0.00826202
0.00873604
0.00915785
0.00953195
0.00985969
0.0101395
0.0103739
0.0105742
0.010755
0.0109208
0.0110656
0.0111859
0.0112819
0.011353
0.0113947
0.0114073
0.0113952
0.00241257
0.00433294
0.00555417
0.00644848
0.00717148
0.00778718
0.00832832
0.00881019
0.00924138
0.0096261
0.00996524
0.0102589
0.0105116
0.0107323
0.0109304
0.0111092
0.0112657
0.0113983
0.0115062
0.0115868
0.0116361
0.0116565
0.0116533
0.00240339
0.00439823
0.00562313
0.00651444
0.00723905
0.00785901
0.00840478
0.00889216
0.00932999
0.00972257
0.0100717
0.0103795
0.0106504
0.0108907
0.0111063
0.0112993
0.0114687
0.0116137
0.0117335
0.0118251
0.0118862
0.0119191
0.011928
0.00240576
0.00446473
0.00569914
0.00659215
0.00731901
0.00794242
0.00849236
0.00898485
0.00942857
0.00982839
0.0101875
0.010509
0.0107968
0.0110551
0.0112875
0.0114956
0.0116792
0.0118379
0.0119706
0.0120753
0.0121507
0.0121984
0.0122211
0.00240938
0.00452891
0.00577709
0.00667574
0.0074069
0.00803476
0.00858964
0.00908776
0.00953803
0.009946
0.0103158
0.0106509
0.0109546
0.0112298
0.0114789
0.0117029
0.0119019
0.0120756
0.0122231
0.0123429
0.0124343
0.0124981
0.012536
0.00240562
0.00459215
0.00585523
0.00676223
0.00749975
0.00813361
0.00869473
0.00919967
0.00965794
0.0100757
0.0104574
0.0108065
0.011126
0.011418
0.0116841
0.0119251
0.012141
0.0123314
0.0124955
0.0126324
0.0127413
0.0128228
0.0128776
0.00240403
0.00465376
0.00593316
0.00685024
0.00759581
0.00823728
0.00880622
0.00931972
0.00978782
0.0102171
0.0106121
0.0109763
0.0113123
0.0116219
0.0119061
0.0121655
0.0124001
0.0126093
0.0127924
0.0129485
0.0130772
0.0131782
0.0132517
0.00241281
0.00471504
0.00601087
0.0069392
0.00769424
0.00834489
0.00892342
0.00944741
0.00992734
0.01037
0.0107801
0.011161
0.0115149
0.0118435
0.0121476
0.0124275
0.012683
0.0129135
0.0131183
0.0132964
0.0134472
0.0135701
0.0136648
0.00240555
0.00477394
0.00608835
0.00702892
0.00779474
0.00845616
0.00904614
0.00958265
0.0100765
0.0105347
0.0109619
0.0113615
0.0117355
0.0120853
0.0124116
0.0127146
0.0129938
0.0132486
0.0134781
0.0136813
0.0138572
0.0140049
0.0141233
0.00240979
0.00483261
0.00616563
0.00711939
0.00789731
0.00857116
0.00917449
0.00972566
0.0102357
0.0107117
0.0111585
0.0115792
0.0119758
0.0123497
0.0127012
0.0130305
0.0133368
0.0136195
0.0138774
0.0141092
0.0143136
0.0144894
0.014635
0.00241556
0.00489258
0.00624295
0.00721069
0.00800209
0.00869009
0.00930881
0.00987688
0.0104056
0.010902
0.0113711
0.0118158
0.0122383
0.0126395
0.01302
0.0133793
0.0137169
0.0140316
0.014322
0.0145867
0.0148238
0.0150317
0.0152085
0.0024166
0.0049486
0.00632015
0.00730291
0.00810926
0.00881328
0.00944954
0.010037
0.0105869
0.0111068
0.0116012
0.0120735
0.0125255
0.0129582
0.0133717
0.0137658
0.0141393
0.014491
0.014819
0.0151215
0.0153963
0.0156412
0.0158537
0.00241618
0.00500985
0.00639735
0.0073961
0.00821903
0.00894108
0.00959722
0.0102066
0.0107808
0.0113272
0.0118507
0.0123545
0.0128403
0.0133091
0.0137609
0.0141951
0.0146103
0.0150048
0.0153764
0.0157227
0.016041
0.0163285
0.0165822
0.00241332
0.00506642
0.0064742
0.00749029
0.00833162
0.00907388
0.00975239
0.0103866
0.0109882
0.0115649
0.0121216
0.0126613
0.0131861
0.0136965
0.0141925
0.0146731
0.0151367
0.015581
0.0160033
0.0164005
0.0167693
0.0171062
0.0174076
0.00241172
0.00512534
0.00655055
0.00758551
0.00844726
0.00921205
0.00991562
0.0105777
0.0112104
0.0118214
0.0124158
0.0129968
0.0135662
0.0141247
0.014672
0.0152066
0.0157265
0.0162289
0.0167104
0.017167
0.0175945
0.0179888
0.0183454
0.00243273
0.00517866
0.00662589
0.00768191
0.00856617
0.00935591
0.0100874
0.0107808
0.0114484
0.0120982
0.0127355
0.0133637
0.0139846
0.0145987
0.0152054
0.015803
0.0163889
0.0169593
0.01751
0.018036
0.0185323
0.0189933
0.0194139
0.00245342
0.00523053
0.00670104
0.00777969
0.00868849
0.00950567
0.0102681
0.0109964
0.0117032
0.0123969
0.0130831
0.0137652
0.0144452
0.0151236
0.0157995
0.0164708
0.0171338
0.0177842
0.0184162
0.0190239
0.0196004
0.0201393
0.020634
0.00247321
0.00528157
0.00677609
0.00787878
0.00881411
0.00966133
0.0104579
0.011225
0.0119757
0.0127188
0.0134603
0.0142041
0.0149521
0.015705
0.0164616
0.017219
0.0179728
0.0187173
0.0194454
0.020149
0.0208198
0.0214495
0.02203
0.00249211
0.0053315
0.00685063
0.00797871
0.00894262
0.00982258
0.0106567
0.0114667
0.0122663
0.0130649
0.0138691
0.014683
0.0155093
0.0163484
0.017199
0.0180575
0.0189185
0.0197743
0.0206159
0.0214329
0.0222144
0.0229498
0.0236294
0.00250963
0.00537933
0.00692359
0.00807853
0.00907317
0.00998871
0.010864
0.0117213
0.0125751
0.0134357
0.0143104
0.0152042
0.0161202
0.0170591
0.0180194
0.0189968
0.0199843
0.0209722
0.0219485
0.0228998
0.0238117
0.0246708
0.0254646
0.00252417
0.00542297
0.00699315
0.00817673
0.00920443
0.0101585
0.0110786
0.0119878
0.0129015
0.0138309
0.0147846
0.0157688
0.0167873
0.0178415
0.0189298
0.020047
0.0211844
0.0223294
0.0234663
0.0245772
0.0256435
0.0266476
0.0275731
0.0025335
0.00545917
0.00705654
0.00827078
0.00933443
0.0103304
0.0112992
0.0122647
0.0132438
0.0142491
0.0152908
0.0163765
0.0175116
0.0186985
0.0199357
0.0212174
0.0225326
0.0238652
0.0251944
0.0264963
0.027746
0.0289202
0.0299979
0.00253752
0.00548155
0.00710911
0.00835762
0.00946076
0.0105022
0.0115234
0.0125498
0.0135996
0.0146876
0.015826
0.0170248
0.0182916
0.0196302
0.0210403
0.0225152
0.0240415
0.0255986
0.0271591
0.0286907
0.0301598
0.0315348
0.0327887
0.00253198
0.00548786
0.00714786
0.00843427
0.00958067
0.0106713
0.0117486
0.0128396
0.0139649
0.0151416
0.0163851
0.0177084
0.0191222
0.0206331
0.0222422
0.023943
0.0257195
0.0275456
0.0293853
0.0311952
0.0329292
0.0345436
0.0360027
0.00251477
0.00547516
0.00716902
0.00849747
0.00969142
0.0108349
0.0119714
0.0131301
0.0143342
0.0156045
0.0169598
0.0184178
0.0199933
0.021697
0.0235329
0.0254955
0.0275668
0.0297146
0.0318924
0.0340424
0.0361005
0.0380048
0.0397055
0.00248159
0.00543682
0.00716746
0.0085439
0.00979069
0.0109906
0.0121884
0.0134161
0.0147005
0.0160666
0.0175384
0.0191386
0.0208881
0.0228033
0.0248931
0.0271545
0.0295691
0.0320992
0.0346873
0.0372575
0.0397202
0.0419841
0.0439748
0.00242544
0.00536002
0.00713636
0.00857111
0.00987757
0.0111369
0.0123963
0.0136917
0.0150548
0.0165159
0.0181046
0.0198505
0.0217816
0.0239222
0.0262883
0.0288825
0.0316889
0.0346681
0.0377537
0.0408501
0.0438327
0.0465593
0.0489074
0.00241841
0.00522781
0.00707036
0.00857983
0.00995383
0.0112736
0.0125916
0.0139499
0.0153863
0.0169369
0.018638
0.0205266
0.0226395
0.0250103
0.0276651
0.0306163
0.0338562
0.0373518
0.0410374
0.0448037
0.0484808
0.0518355
0.0546365
0.00241808
0.00505653
0.00697467
0.00857709
0.0100245
0.0114013
0.0127702
0.0141823
0.015682
0.0173117
0.0191143
0.0211345
0.0234184
0.0260105
0.0289495
0.0322621
0.0359582
0.0400258
0.0444234
0.0490535
0.0537052
0.0579815
0.0613658
0.00402068
0.00500788
0.00686605
0.00857252
0.0100944
0.0115186
0.0129257
0.0143779
0.0159269
0.0176203
0.0195068
0.0216381
0.0240689
0.026855
0.030049
0.0336963
0.037834
0.0424935
0.0476995
0.053437
0.0595256
0.0653236
0.0694306
0.0182059
0.00632531
0.00675978
0.0085622
0.0101602
0.0116172
0.0130462
0.014523
0.0161046
0.0178423
0.0197888
0.022001
0.0245406
0.0274727
0.0308627
0.0347752
0.0392805
0.0444728
0.0504982
0.0575636
0.0658102
0.0746162
0.079389
0.0840422
0.0141086
0.0068467
0.00854497
0.0102056
0.0116782
0.0131148
0.014602
0.0161993
0.0179597
0.0199375
0.0221925
0.0247903
0.0278014
0.031299
0.0353609
0.0400827
0.0456146
0.0522388
0.0605173
0.0715982
0.0879511
0.0920605
0.00383912
0.00319908
0.00307732
0.00345269
0.0065075
0.00635364
0.00628737
0.00631686
0.00781786
0.00776218
0.00771
0.00766777
0.00880462
0.00878218
0.00872515
0.00865382
0.00948991
0.00948508
0.00944063
0.00936477
0.0101101
0.0101115
0.0100464
0.00996442
0.0104168
0.010414
0.0103726
0.0103217
0.0106381
0.0106288
0.0106104
0.0105833
0.0108793
0.0108595
0.0108384
0.0108144
0.0111224
0.0111019
0.011079
0.0110535
0.0113723
0.0113541
0.0113326
0.0113077
0.0116365
0.0116216
0.0116028
0.0115799
0.0119187
0.0119082
0.0118929
0.0118727
0.0122207
0.0122153
0.0122045
0.0121883
0.0125456
0.0125461
0.0125409
0.0125297
0.0128986
0.012906
0.0129072
0.0129021
0.0132856
0.013301
0.0133098
0.0133118
0.0137133
0.0137377
0.0137552
0.0137656
0.0141886
0.0142233
0.0142508
0.0142708
0.0147193
0.014766
0.0148049
0.014836
0.0153146
0.0153748
0.015427
0.0154709
0.0159848
0.0160608
0.0161282
0.0161868
0.0167423
0.0168363
0.0169213
0.0169968
0.017601
0.0177159
0.017821
0.0179159
0.0185774
0.0187162
0.0188444
0.0189616
0.0196903
0.0198566
0.0200113
0.0201539
0.0209614
0.0211592
0.0213442
0.0215158
0.0224156
0.0226494
0.0228688
0.0230731
0.0240817
0.0243564
0.0246147
0.0248559
0.0259929
0.0263139
0.0266158
0.0268979
0.0281875
0.0285604
0.0289107
0.029238
0.0307094
0.0311403
0.031544
0.0319203
0.0336096
0.0341046
0.0345666
0.0349952
0.0369465
0.0375121
0.0380367
0.0385206
0.0407877
0.0414308
0.042022
0.0425625
0.0452134
0.0459407
0.0466013
0.047198
0.0503226
0.0511401
0.05187
0.0525184
0.0562472
0.0571556
0.0579477
0.058635
0.0631741
0.0641584
0.0649877
0.0656844
0.0713753
0.0723778
0.0731815
0.0738273
0.0812227
0.0820894
0.0827357
0.0832245
0.0930928
0.0935059
0.0937791
0.0939685
0.00487285
0.00559095
0.00593642
0.00610485
0.00617159
0.00617333
0.00612781
0.00603175
0.00587016
0.00565167
0.00542891
0.00519785
0.00493915
0.00462649
0.00423083
0.00376997
0.00318961
0.00242591
0.00110908
0.00647111
0.00668466
0.00681861
0.00687155
0.00686572
0.00681708
0.00673437
0.00661618
0.00645697
0.0062657
0.00607629
0.00587718
0.00559103
0.00517859
0.00468928
0.00416316
0.0035584
0.00275122
0.00131362
0.00761789
0.00762036
0.00762721
0.00758744
0.00752559
0.00744634
0.00734667
0.00722429
0.00707644
0.00690418
0.0067296
0.00653803
0.00619842
0.00569404
0.00512224
0.00453657
0.00389273
0.00300693
0.00141531
0.00853542
0.00845256
0.00839747
0.00827019
0.0081737
0.00808922
0.00799294
0.0078824
0.00775732
0.00760697
0.00744942
0.00726475
0.00683343
0.00622975
0.00555963
0.00491119
0.00422048
0.00322696
0.00152217
0.00922649
0.00910545
0.00900796
0.00887917
0.00878871
0.00868372
0.00856145
0.00844793
0.00832287
0.00812146
0.00785486
0.00759335
0.007229
0.00665178
0.00597336
0.00526528
0.00453977
0.00354883
0.00173877
0.00983589
0.0097299
0.00962495
0.00942602
0.00926229
0.00911147
0.00895644
0.00880681
0.00864682
0.00842104
0.00810463
0.00782397
0.00742611
0.0068679
0.00622303
0.00555162
0.00481175
0.00377948
0.00195369
0.010239
0.0101473
0.0100337
0.00983092
0.00965453
0.00950891
0.00934787
0.00917677
0.00896556
0.00868938
0.00833717
0.00795525
0.00751005
0.00698248
0.00640585
0.00576632
0.00500128
0.00396119
0.00204019
0.0105275
0.0104355
0.0103141
0.0101432
0.00998136
0.0098439
0.00969149
0.00948423
0.00921663
0.00890482
0.00852978
0.00809863
0.00761037
0.00707999
0.00650152
0.00586713
0.00512078
0.00411004
0.00199995
0.0107669
0.0106732
0.0105465
0.010391
0.010239
0.0101025
0.00994055
0.00968894
0.0093876
0.00905766
0.00866123
0.00819601
0.00770657
0.00717184
0.00655476
0.00588085
0.00511352
0.00409678
0.0019737
0.0110057
0.0109129
0.0107912
0.0106462
0.0104918
0.0103338
0.0101338
0.00985147
0.00953097
0.00917627
0.00874913
0.0082473
0.0077363
0.00719194
0.0065496
0.00582922
0.00500773
0.00394002
0.0019562
0.0112605
0.0111694
0.0110528
0.0109125
0.0107478
0.0105597
0.0103234
0.0100205
0.00967484
0.00928724
0.00883084
0.00829671
0.00773124
0.00714289
0.00648142
0.00573299
0.00485887
0.0037365
0.00194868
0.0115347
0.0114444
0.0113275
0.0111842
0.0110077
0.0107961
0.0105355
0.0102135
0.00984331
0.00942579
0.0089428
0.00838416
0.00776763
0.00710883
0.00639469
0.00561759
0.00471262
0.00355406
0.00194872
0.011831
0.0117427
0.0116232
0.0114718
0.0112839
0.0110562
0.0107791
0.0104445
0.0100579
0.00961808
0.00911256
0.00853307
0.00788359
0.00716826
0.00638711
0.00554829
0.00460072
0.00342741
0.00195241
0.012152
0.0120684
0.0119494
0.0117927
0.0115962
0.0113571
0.0110691
0.0107268
0.0103296
0.00987454
0.00935256
0.00875649
0.00808453
0.00733472
0.00650551
0.00559898
0.00458998
0.00338482
0.00191475
0.0125009
0.0124254
0.0123109
0.0121548
0.0119551
0.0117098
0.0114155
0.0110678
0.0106636
0.0101987
0.00966603
0.00905892
0.00837275
0.00760305
0.00674468
0.00578924
0.00471596
0.00345408
0.00194047
0.0128828
0.012818
0.0127119
0.0125613
0.0123639
0.0121181
0.0118215
0.0114709
0.0110624
0.0105917
0.0100527
0.00943911
0.00874501
0.00796398
0.00708712
0.00609734
0.00496327
0.00361449
0.00195044
0.0133038
0.0132525
0.0131578
0.0130164
0.0128256
0.0125837
0.0122887
0.0119378
0.0115276
0.0110538
0.0105114
0.00989431
0.0091962
0.008409
0.00752024
0.00650631
0.00532201
0.00386991
0.00194931
0.0137708
0.0137358
0.0136553
0.013526
0.013345
0.0131103
0.0128198
0.0124712
0.0120613
0.0115864
0.0110421
0.010423
0.00972275
0.00893238
0.00803715
0.00700913
0.00579298
0.00426394
0.00206189
0.0142914
0.0142756
0.0142121
0.0140975
0.0139289
0.0137039
0.0134203
0.0130759
0.0126678
0.0121928
0.011647
0.0110259
0.0103234
0.00953068
0.00863235
0.00759941
0.0063729
0.00480343
0.00235575
0.0148743
0.0148811
0.0148374
0.0147402
0.0145863
0.014373
0.0140981
0.0137592
0.0133536
0.0128786
0.0123308
0.0117061
0.0109992
0.0102018
0.00929929
0.00826368
0.00703509
0.00543816
0.00268391
0.0155298
0.0155625
0.015542
0.0154649
0.0153279
0.0151283
0.0148634
0.0145309
0.014128
0.0136523
0.0131005
0.0124692
0.0117533
0.0109453
0.0100311
0.00898387
0.00773975
0.00610486
0.00302939
0.0162694
0.0163321
0.0163383
0.0162842
0.0161666
0.0159825
0.0157289
0.0154032
0.0150027
0.0145247
0.0139661
0.0133235
0.0125919
0.0117638
0.0108242
0.00974589
0.00845985
0.00674106
0.00340538
0.0171066
0.0172039
0.0172406
0.0172129
0.0171173
0.0169504
0.0167092
0.0163906
0.0159917
0.0155094
0.0149404
0.0142805
0.0135247
0.0126649
0.0116861
0.0105567
0.00919795
0.00734726
0.00371831
0.018057
0.0181939
0.0182655
0.0182677
0.0181967
0.0180491
0.0178214
0.0175101
0.0171117
0.0166228
0.0160391
0.0153561
0.0145676
0.0136642
0.0126286
0.0114242
0.00995924
0.00793311
0.00394905
0.0191386
0.0193206
0.0194316
0.0194674
0.0194241
0.0192979
0.0190848
0.018781
0.0183824
0.0178844
0.0172822
0.0165696
0.0157391
0.0147791
0.013669
0.012366
0.010765
0.00853077
0.0041509
0.0203719
0.0206048
0.0207601
0.0208336
0.020821
0.0207183
0.0205213
0.0202255
0.0198258
0.0193167
0.0186918
0.0179433
0.0170615
0.016032
0.0148302
0.0134072
0.0116457
0.00918017
0.0043807
0.02178
0.0220702
0.022275
0.02239
0.0224112
0.0223344
0.022155
0.0218678
0.0214666
0.0209447
0.0202935
0.0195033
0.0185614
0.0174501
0.0161406
0.0145779
0.0126341
0.00991582
0.00466938
0.0233896
0.0237434
0.0240027
0.0241632
0.0242213
0.0241726
0.0240124
0.0237346
0.0233322
0.0227963
0.0221163
0.0212794
0.0202696
0.0190651
0.0176327
0.0159112
0.0137628
0.010766
0.00503003
0.0252305
0.0256544
0.0259728
0.0261824
0.0262799
0.0262615
0.0261222
0.0258553
0.0254524
0.0249026
0.0241925
0.0233056
0.0222217
0.0209142
0.0193442
0.0174441
0.0150654
0.0117544
0.00545864
0.0273368
0.0278366
0.0282182
0.0284795
0.0286185
0.0286321
0.0285154
0.0282613
0.0278599
0.0272978
0.0265582
0.0256204
0.0244586
0.02304
0.0213187
0.0192187
0.0165785
0.0129054
0.00595129
0.0297469
0.0303275
0.0307749
0.0310894
0.0312709
0.0313177
0.0312255
0.0309866
0.0305897
0.0300189
0.0292534
0.028267
0.027027
0.0254923
0.0236076
0.0212856
0.0183472
0.0142517
0.00651154
0.0325042
0.0331688
0.0336828
0.0340502
0.0342739
0.0343542
0.0342879
0.0340674
0.0336797
0.0331063
0.0323217
0.0312933
0.0299799
0.0283295
0.0262733
0.0237081
0.0204314
0.0158436
0.00717346
0.035658
0.0364072
0.0369859
0.0374034
0.037667
0.03778
0.0377408
0.0375421
0.0371698
0.0366026
0.0358101
0.0347523
0.0333774
0.0316191
0.0293906
0.0265657
0.0229099
0.0177523
0.00799501
0.0392642
0.0400951
0.0407328
0.0411945
0.0414932
0.0416363
0.0416247
0.0414516
0.0411024
0.0405531
0.0397686
0.0387008
0.0372856
0.035439
0.0330494
0.0299576
0.0258838
0.0200657
0.00901385
0.0433863
0.0442908
0.0449772
0.0454731
0.0457992
0.045968
0.0459831
0.0458393
0.0455219
0.045005
0.0442491
0.0431985
0.041776
0.0398762
0.0373552
0.0340068
0.0294834
0.0228963
0.0102651
0.0480967
0.04906
0.0497785
0.0502939
0.0506362
0.0508236
0.0508632
0.0507518
0.0504751
0.0500067
0.0493043
0.048306
0.0469219
0.0450241
0.0424291
0.0388657
0.0338827
0.0264055
0.0118184
0.0534792
0.0544762
0.0552025
0.0557173
0.0560609
0.0562572
0.0563171
0.0562394
0.0560116
0.0556079
0.0549861
0.054081
0.0527941
0.050977
0.0484034
0.0447187
0.0393183
0.030836
0.0137869
0.0596312
0.0606219
0.0613221
0.0618105
0.0621367
0.0623298
0.0624033
0.0623584
0.062185
0.0618601
0.0613446
0.0605754
0.0594529
0.0578175
0.0554075
0.0517767
0.0461097
0.0365698
0.0163613
0.0666643
0.0675882
0.068218
0.0686487
0.0689362
0.0691116
0.0691897
0.0691735
0.0690558
0.0688184
0.0684287
0.0678326
0.0669405
0.0655996
0.0635386
0.0602446
0.0546644
0.0442342
0.0199135
0.0746999
0.0754722
0.075978
0.0763171
0.0765435
0.0766857
0.0767572
0.0767618
0.0766953
0.0765456
0.0762896
0.0758882
0.0752744
0.0743272
0.0728133
0.0702372
0.0654076
0.0548558
0.0252728
0.0838519
0.0843704
0.0846974
0.0849133
0.0850581
0.0851519
0.0852041
0.085218
0.0851918
0.0851193
0.0849884
0.0847783
0.0844525
0.0839435
0.0831111
0.0816194
0.0784843
0.0698438
0.0337315
0.0941962
0.0943725
0.0944807
0.0945519
0.0946002
0.0946327
0.0946525
0.0946609
0.0946578
0.0946417
0.0946098
0.0945576
0.0944774
0.0943561
0.0941665
0.093835
0.0930564
0.0897189
0.0470918
)
;

boundaryField
{
    leftWall
    {
        type            kqRWallFunction;
        value           nonuniform List<scalar> 
50
(
0.000170393
0.000366934
0.000521843
0.000654322
0.000770154
0.000874888
0.000973046
0.00107116
0.00120401
0.00138353
0.0015698
0.00181675
0.00214519
0.00218046
0.00235286
0.00240313
0.0024123
0.00240846
0.00241275
0.00241257
0.00240339
0.00240576
0.00240938
0.00240562
0.00240403
0.00241281
0.00240555
0.00240979
0.00241556
0.0024166
0.00241618
0.00241332
0.00241172
0.00243273
0.00245342
0.00247321
0.00249211
0.00250963
0.00252417
0.0025335
0.00253752
0.00253198
0.00251477
0.00248159
0.00242544
0.00241841
0.00241808
0.00402068
0.0182059
0.0840422
)
;
    }
    rightWall
    {
        type            kqRWallFunction;
        value           nonuniform List<scalar> 
50
(
0.00025531
0.000402607
0.000485789
0.000560854
0.000640046
0.00072759
0.000827821
0.000947663
0.00110908
0.00131362
0.00141531
0.00152217
0.00173877
0.00195369
0.00204019
0.00199995
0.0019737
0.0019562
0.00194868
0.00194872
0.00195241
0.00191475
0.00194047
0.00195044
0.00194931
0.00206189
0.00235575
0.00268391
0.00302939
0.00340538
0.00371831
0.00394905
0.0041509
0.0043807
0.00466938
0.00503003
0.00545864
0.00595129
0.00651154
0.00717346
0.00799501
0.00901385
0.0102651
0.0118184
0.0137869
0.0163613
0.0199135
0.0252728
0.0337315
0.0470918
)
;
    }
    lowerWall
    {
        type            kqRWallFunction;
        value           nonuniform List<scalar> 
62
(
0.000170393
0.000419526
0.00061276
0.000764117
0.000888406
0.000993415
0.00108411
0.00116349
0.00123313
0.00129429
0.00134889
0.00139928
0.00144596
0.00148517
0.00150644
0.00148856
0.001407
0.00127133
0.00111306
0.000964997
0.000838811
0.000648369
0.000293957
0.000293957
0.000668778
0.000935437
0.00120084
0.00150942
0.00187156
0.00234294
0.00326695
0.00383912
0.00319908
0.00307732
0.00345269
0.000318845
0.000589559
0.000768089
0.000996237
0.00125888
0.00157785
0.00203242
0.00290713
0.000318845
0.000796015
0.00107213
0.001204
0.00127414
0.00130379
0.00133086
0.00135881
0.00136003
0.00126409
0.00108761
0.000906008
0.000737904
0.000750473
0.000883742
0.000874072
0.000656408
0.000446527
0.00025531
)
;
    }
    atmosphere
    {
        type            inletOutlet;
        inletValue      uniform 0.1;
        value           nonuniform List<scalar> 
46
(
0.1
0.0141086
0.0068467
0.00854497
0.0102056
0.0116782
0.0131148
0.014602
0.0161993
0.0179597
0.0199375
0.0221925
0.0247903
0.0278014
0.031299
0.0353609
0.0400827
0.0456146
0.0522388
0.0605173
0.0715982
0.1
0.1
0.1
0.1
0.1
0.1
0.1
0.1
0.1
0.1
0.1
0.1
0.1
0.1
0.1
0.1
0.1
0.1
0.1
0.1
0.1
0.1
0.1
0.1
0.0470918
)
;
    }
    defaultFaces
    {
        type            empty;
    }
}


// ************************************************************************* //
