/*--------------------------------*- C++ -*----------------------------------*\
  =========                 |
  \\      /  F ield         | OpenFOAM: The Open Source CFD Toolbox
   \\    /   O peration     | Website:  https://openfoam.org
    \\  /    A nd           | Version:  9
     \\/     M anipulation  |
\*---------------------------------------------------------------------------*/
FoamFile
{
    format      ascii;
    class       surfaceScalarField;
    location    "4";
    object      alphaPhi0.water;
}
// * * * * * * * * * * * * * * * * * * * * * * * * * * * * * * * * * * * * * //

dimensions      [0 3 -1 0 0 0 0];

internalField   nonuniform List<scalar> 
4432
(
-2.68137e-07
2.68137e-07
-5.98592e-07
3.30458e-07
-9.47515e-07
3.48912e-07
-1.27884e-06
3.31323e-07
-1.59074e-06
3.11898e-07
-1.87927e-06
2.88526e-07
-2.1385e-06
2.59228e-07
-2.36385e-06
2.25353e-07
-2.55157e-06
1.87724e-07
-2.69607e-06
1.44503e-07
-2.78707e-06
9.10011e-08
-2.80713e-06
2.00711e-08
-2.73385e-06
-7.32762e-08
-2.54329e-06
-1.90555e-07
-2.21185e-06
-3.3144e-07
-1.75082e-06
-4.6103e-07
-1.34959e-06
-4.00942e-07
-1.55801e-06
2.12791e-07
-2.3272e-06
7.58506e-07
-2.58249e-06
2.56963e-07
-1.95943e-06
-6.22599e-07
-8.80313e-07
-1.08213e-06
-8.83323e-07
-3.24473e-07
5.92598e-07
-6.63855e-07
6.69845e-07
-1.02161e-06
7.06658e-07
-1.37628e-06
6.8599e-07
-1.71367e-06
6.49278e-07
-2.02456e-06
5.99417e-07
-2.30157e-06
5.36241e-07
-2.5391e-06
4.62883e-07
-2.73221e-06
3.80838e-07
-2.87481e-06
2.87113e-07
-2.95869e-06
1.74886e-07
-2.97419e-06
3.55689e-08
-2.91046e-06
-1.36994e-07
-2.75822e-06
-3.428e-07
-2.51891e-06
-5.70742e-07
-2.22142e-06
-7.58512e-07
-1.9684e-06
-6.50137e-07
-1.92861e-06
2.01654e-07
-1.98087e-06
7.97634e-07
-1.95806e-06
2.11257e-07
-1.54988e-06
-1.03169e-06
-8.68185e-07
-1.76473e-06
-1.75387e-06
-3.53794e-07
9.46382e-07
-7.03295e-07
1.01935e-06
-1.06354e-06
1.0669e-06
-1.42513e-06
1.04757e-06
-1.77135e-06
9.95492e-07
-2.09064e-06
9.18707e-07
-2.37455e-06
8.20146e-07
-2.61684e-06
7.05178e-07
-2.8124e-06
5.76394e-07
-2.95574e-06
4.30446e-07
-3.04044e-06
2.59586e-07
-3.05991e-06
5.50461e-08
-3.00938e-06
-1.87526e-07
-2.89023e-06
-4.6195e-07
-2.71683e-06
-7.4414e-07
-2.5204e-06
-9.54941e-07
-2.28481e-06
-8.41392e-07
-2.07903e-06
-4.19962e-09
-1.80061e-06
5.19171e-07
-1.56442e-06
-3.40617e-08
-1.22312e-06
-1.38764e-06
-6.87889e-07
-2.29996e-06
-2.44176e-06
-3.7533e-07
1.3217e-06
-7.41476e-07
1.3855e-06
-1.11016e-06
1.43557e-06
-1.47796e-06
1.41537e-06
-1.82996e-06
1.34748e-06
-2.15395e-06
1.2427e-06
-2.4409e-06
1.10709e-06
-2.68436e-06
9.48635e-07
-2.8795e-06
7.7153e-07
-3.02175e-06
5.72691e-07
-3.10644e-06
3.4427e-07
-3.12969e-06
7.82901e-08
-3.09097e-06
-2.26241e-07
-2.99785e-06
-5.55069e-07
-2.8699e-06
-8.72088e-07
-2.73377e-06
-1.09108e-06
-2.55704e-06
-1.00279e-06
-2.19589e-06
-3.31333e-07
-1.77561e-06
9.88383e-08
-1.37209e-06
-4.37636e-07
-9.68429e-07
-1.81901e-06
-4.78933e-07
-2.78946e-06
-2.92067e-06
-3.92542e-07
1.71423e-06
-7.78583e-07
1.77155e-06
-1.15954e-06
1.81652e-06
-1.53452e-06
1.79035e-06
-1.89131e-06
1.70427e-06
-2.21814e-06
1.56952e-06
-2.50582e-06
1.39476e-06
-2.74809e-06
1.1909e-06
-2.94076e-06
9.64192e-07
-3.08039e-06
7.12322e-07
-3.16397e-06
4.27853e-07
-3.18979e-06
1.04111e-07
-3.15999e-06
-2.56038e-07
-3.0848e-06
-6.30261e-07
-2.98371e-06
-9.73182e-07
-2.87389e-06
-1.20089e-06
-2.72111e-06
-1.15555e-06
-2.32814e-06
-6.94832e-07
-1.81061e-06
-4.08501e-07
-1.31635e-06
-9.62068e-07
-8.73994e-07
-2.27764e-06
-3.7734e-07
-3.28612e-06
-3.29801e-06
-4.09104e-07
2.12333e-06
-8.1562e-07
2.17808e-06
-1.20992e-06
2.21081e-06
-1.59228e-06
2.17271e-06
-1.953e-06
2.06498e-06
-2.28108e-06
1.89761e-06
-2.56749e-06
1.68117e-06
-2.80642e-06
1.42984e-06
-2.99464e-06
1.15241e-06
-3.12997e-06
8.47653e-07
-3.21092e-06
5.08807e-07
-3.2374e-06
1.30599e-07
-3.21292e-06
-2.80522e-07
-3.148e-06
-6.95176e-07
-3.05904e-06
-1.06214e-06
-2.95413e-06
-1.30581e-06
-2.79171e-06
-1.31795e-06
-2.44214e-06
-1.04417e-06
-1.91926e-06
-9.36158e-07
-1.38799e-06
-1.50614e-06
-9.61729e-07
-2.7039e-06
-4.51061e-07
-3.79678e-06
-3.74908e-06
-4.28301e-07
2.55163e-06
-8.53249e-07
2.60303e-06
-1.25946e-06
2.61702e-06
-1.64814e-06
2.56139e-06
-2.01141e-06
2.42825e-06
-2.33896e-06
2.22516e-06
-2.622e-06
1.96421e-06
-2.85545e-06
1.6633e-06
-3.03718e-06
1.33414e-06
-3.16634e-06
9.76813e-07
-3.2428e-06
5.85278e-07
-3.26771e-06
1.55515e-07
-3.24507e-06
-3.03163e-07
-3.18449e-06
-7.55751e-07
-3.09843e-06
-1.1482e-06
-2.9885e-06
-1.41574e-06
-2.81431e-06
-1.49215e-06
-2.48354e-06
-1.37494e-06
-2.01194e-06
-1.40776e-06
-1.54445e-06
-1.97363e-06
-1.18716e-06
-3.06119e-06
-7.53062e-07
-4.23088e-06
-4.5023e-06
-4.51527e-07
3.00315e-06
-8.909e-07
3.04241e-06
-1.30561e-06
3.03174e-06
-1.69837e-06
2.95416e-06
-2.06225e-06
2.79214e-06
-2.38727e-06
2.55019e-06
-2.66477e-06
2.24171e-06
-2.89062e-06
1.88915e-06
-3.06387e-06
1.50739e-06
-3.18494e-06
1.09789e-06
-3.25494e-06
6.55284e-07
-3.27603e-06
1.76607e-07
-3.25241e-06
-3.26783e-07
-3.19235e-06
-8.1581e-07
-3.10472e-06
-1.23583e-06
-2.98748e-06
-1.53298e-06
-2.8071e-06
-1.67253e-06
-2.50167e-06
-1.68037e-06
-2.0958e-06
-1.81363e-06
-1.71852e-06
-2.35091e-06
-1.48738e-06
-3.29232e-06
-1.31234e-06
-4.40592e-06
-5.81464e-06
-2.90524e-07
2.90489e-07
7.47301e-07
-1.03925e-06
1.69529e-06
-9.51565e-07
2.29464e-06
-6.02887e-07
2.60288e-06
-3.08376e-07
2.66269e-06
-5.9888e-08
2.51923e-06
1.43416e-07
2.36828e-06
1.65579e-07
2.49341e-06
-1.17068e-07
2.9704e-06
-4.90939e-07
3.01372e-06
-5.19917e-08
1.70433e-06
1.26415e-06
-1.08563e-07
1.78504e-06
-1.06022e-07
-2.57942e-09
2.04715e-06
-2.13608e-06
4.77886e-06
-2.77766e-06
6.0618e-06
-1.42063e-06
3.40482e-06
2.65627e-06
3.40409e-06
3.69246e-07
-7.87909e-08
1.05091e-06
-1.72526e-06
1.63636e-06
-1.54255e-06
2.05232e-06
-1.02173e-06
2.27772e-06
-5.34484e-07
2.34543e-06
-1.28729e-07
2.30486e-06
1.83604e-07
2.20821e-06
2.63508e-07
2.17638e-06
-8.48794e-08
2.30132e-06
-6.24565e-07
2.13228e-06
9.43717e-08
1.37854e-06
1.93088e-06
8.3405e-07
2.32943e-06
1.1977e-06
-3.66486e-07
2.42242e-06
-3.35096e-06
3.8208e-06
-4.17616e-06
4.77144e-06
-2.37141e-06
3.22985e-06
4.13358e-06
6.63323e-06
7.47482e-07
-8.27672e-07
1.17804e-06
-2.15533e-06
1.54293e-06
-1.90747e-06
1.84069e-06
-1.31953e-06
2.02106e-06
-7.15073e-07
2.09111e-06
-1.98733e-07
2.07569e-06
1.98449e-07
1.98295e-06
3.52884e-07
1.87999e-06
1.20455e-08
1.79303e-06
-5.46113e-07
1.55108e-06
2.94349e-07
1.30247e-06
2.17939e-06
1.33693e-06
2.29486e-06
1.854e-06
-8.28969e-07
2.37953e-06
-3.8766e-06
3.06629e-06
-4.86321e-06
3.36482e-06
-2.7344e-06
2.35693e-06
5.16644e-06
8.98926e-06
8.30956e-07
-1.65852e-06
1.16453e-06
-2.48879e-06
1.41357e-06
-2.1564e-06
1.64049e-06
-1.54648e-06
1.79941e-06
-8.74163e-07
1.87729e-06
-2.76643e-07
1.87302e-06
2.0268e-07
1.78165e-06
4.35143e-07
1.64024e-06
1.50573e-07
1.42082e-06
-3.35208e-07
1.2804e-06
4.21405e-07
1.34368e-06
2.116e-06
1.68471e-06
1.95372e-06
2.05555e-06
-1.14142e-06
2.18592e-06
-4.00718e-06
2.41627e-06
-5.09404e-06
2.49271e-06
-2.85988e-06
1.48659e-06
6.09559e-06
1.07247e-05
7.55219e-07
-2.41407e-06
1.04402e-06
-2.77793e-06
1.23858e-06
-2.35073e-06
1.43195e-06
-1.73989e-06
1.58715e-06
-1.0294e-06
1.68216e-06
-3.71695e-07
1.69229e-06
1.9251e-07
1.62615e-06
4.96823e-07
1.47914e-06
2.95173e-07
1.22613e-06
-8.09521e-08
1.12093e-06
5.11935e-07
1.39681e-06
1.8666e-06
1.88859e-06
1.52782e-06
2.04403e-06
-1.26488e-06
1.89307e-06
-3.85657e-06
1.79758e-06
-4.99887e-06
1.77466e-06
-2.83755e-06
8.03871e-07
6.88816e-06
1.14978e-05
5.96537e-07
-3.01127e-06
8.48193e-07
-3.02964e-06
1.01837e-06
-2.52102e-06
1.20297e-06
-1.9246e-06
1.36992e-06
-1.19634e-06
1.49522e-06
-4.96913e-07
1.53858e-06
1.49148e-07
1.50814e-06
5.27174e-07
1.38738e-06
4.16987e-07
1.16429e-06
1.42692e-07
1.1194e-06
5.55997e-07
1.49137e-06
1.51349e-06
1.94582e-06
1.09369e-06
1.90203e-06
-1.22114e-06
1.53099e-06
-3.48583e-06
1.18034e-06
-4.64822e-06
9.92591e-07
-2.65009e-06
3.55177e-07
7.36807e-06
1.18201e-05
4.03893e-07
-3.41518e-06
5.9743e-07
-3.22328e-06
7.55452e-07
-2.67904e-06
9.45951e-07
-2.1151e-06
1.13683e-06
-1.38764e-06
1.3064e-06
-6.66864e-07
1.4031e-06
5.28913e-08
1.4204e-06
5.09833e-07
1.34791e-06
4.89409e-07
1.19025e-06
2.98886e-07
1.19467e-06
5.48912e-07
1.53667e-06
1.16916e-06
1.8616e-06
7.68617e-07
1.68784e-06
-1.04752e-06
1.13054e-06
-2.92889e-06
5.27187e-07
-4.04514e-06
1.92299e-07
-2.30986e-06
4.80091e-08
7.49952e-06
1.18307e-05
2.02474e-07
-3.61764e-06
3.04196e-07
-3.32501e-06
4.52012e-07
-2.82686e-06
6.57513e-07
-2.3206e-06
8.77616e-07
-1.60779e-06
1.10458e-06
-8.93726e-07
1.27068e-06
-1.12964e-07
1.35773e-06
4.2279e-07
1.34952e-06
4.97632e-07
1.26107e-06
3.72798e-07
1.30789e-06
4.93774e-07
1.57534e-06
9.04614e-07
1.75424e-06
5.89585e-07
1.45206e-06
-7.4548e-07
7.26774e-07
-2.20376e-06
-1.32545e-07
-3.18634e-06
-6.38359e-07
-1.77575e-06
-2.33905e-07
7.08254e-06
1.12035e-05
-9.99335e-07
4.00249e-06
-1.98932e-06
4.03239e-06
-2.90359e-06
3.946e-06
-3.74618e-06
3.79675e-06
-4.51501e-06
3.56096e-06
-5.19176e-06
3.22694e-06
-5.75694e-06
2.80688e-06
-6.20591e-06
2.33813e-06
-6.54017e-06
1.84165e-06
-6.76489e-06
1.3226e-06
-6.88566e-06
7.76051e-07
-6.91117e-06
2.02113e-07
-6.85143e-06
-3.86513e-07
-6.71908e-06
-9.48116e-07
-6.52344e-06
-1.43142e-06
-6.25644e-06
-1.79993e-06
-5.87137e-06
-2.05758e-06
-5.31089e-06
-2.24084e-06
-4.65032e-06
-2.47417e-06
-4.13185e-06
-2.86933e-06
-4.04038e-06
-3.38371e-06
-4.56374e-06
-3.88242e-06
-4.2086e-06
-6.16863e-06
-1.01136e-06
5.01385e-06
-2.022e-06
5.04303e-06
-2.942e-06
4.866e-06
-3.77224e-06
4.627e-06
-4.52163e-06
4.31035e-06
-5.16611e-06
3.87142e-06
-5.68069e-06
3.32146e-06
-6.0748e-06
2.15308e-06
-6.34022e-06
1.65699e-06
-6.47288e-06
1.14211e-06
-6.49172e-06
6.27632e-07
-6.43862e-06
1.30911e-07
-6.33756e-06
-3.6294e-07
-6.20148e-06
-7.98737e-07
-6.00031e-06
-1.17951e-06
-5.71973e-06
-1.49218e-06
-5.3371e-06
-1.74498e-06
-4.84453e-06
-1.94064e-06
-4.31344e-06
-2.10718e-06
-3.89704e-06
-2.26549e-06
-3.75878e-06
-2.38219e-06
-3.89885e-06
-2.50615e-06
-2.63086e-06
-4.19594e-06
-4.51632e-07
3.58106e-07
-8.48996e-07
3.08908e-07
-1.30431e-06
2.56482e-07
-1.69474e-06
1.92045e-07
-1.94923e-06
1.24131e-07
-2.10939e-06
6.84841e-08
-2.22731e-06
2.45129e-08
-2.27283e-06
0
-2.24254e-06
0
-2.16859e-06
0
-2.06764e-06
0
-1.95435e-06
0
-1.83202e-06
-6.76018e-09
-1.72524e-06
-1.48505e-08
-1.63262e-06
-2.36602e-08
-1.54263e-06
-8.6731e-09
-1.41915e-06
-1.10015e-08
-1.25592e-06
-1.11752e-08
-1.08247e-06
-1.09005e-08
-9.42266e-07
-2.72945e-08
-8.86633e-07
-2.56285e-08
-9.40472e-07
-1.68859e-08
-1.10788e-09
-1.08169e-06
-7.84684e-09
0
-4.34522e-09
0
-1.04491e-08
4.85157e-09
-1.99891e-08
0
-2.15384e-08
0
-1.9871e-08
0
-2.17774e-08
7.15232e-09
-2.37266e-08
0
-1.77027e-08
0
-1.45586e-08
0
-1.18472e-08
0
-1.6926e-09
-2.35624e-09
-1.6822e-09
-6.01503e-09
-1.59832e-09
-1.42767e-08
-1.38125e-09
-2.33252e-08
-1.50238e-09
-8.05968e-09
-1.45196e-09
-1.06304e-08
-1.27384e-09
-1.09942e-08
-1.09136e-09
-1.08251e-08
-8.64905e-10
-2.74575e-08
-7.00593e-10
-2.59012e-08
-7.22316e-10
-1.70291e-08
-3.30506e-10
-1.65145e-09
-2.35944e-09
0
-2.29549e-10
0
-2.98511e-09
8.39192e-10
-1.18961e-08
1.8529e-09
-1.76461e-08
3.45285e-09
-2.22216e-08
9.52614e-10
-1.19506e-08
3.60747e-10
-4.36156e-08
5.5986e-09
-3.61177e-08
-3.86461e-09
-2.90949e-08
-3.39565e-09
-1.999e-08
-5.47682e-09
-1.23902e-08
-6.32771e-09
-5.63912e-09
-9.13788e-09
-5.98264e-10
-1.5706e-08
1.4641e-09
-2.3792e-08
1.3152e-09
-9.71436e-09
4.80807e-09
-1.33167e-08
1.15905e-08
-1.50952e-08
2.48627e-08
-1.69497e-08
3.07659e-08
-1.61409e-08
2.64694e-08
-4.40484e-09
4.28502e-09
-2.42856e-09
2.21219e-09
-6.75517e-10
-3.79644e-09
2.7286e-09
-1.90895e-09
3.94737e-09
1.82381e-10
4.78771e-09
-9.7244e-10
2.87189e-09
-3.95065e-09
1.91378e-09
-5.80744e-09
1.73317e-09
-5.43484e-09
3.47463e-09
-1.78739e-09
2.1622e-09
-1.20395e-09
-3.45317e-09
-1.7975e-09
-1.46304e-09
-2.03069e-09
-1.7261e-09
-1.23851e-09
-4.44186e-11
-5.09638e-10
-6.92242e-14
-1.53574e-09
-2.9575e-12
-7.23923e-09
-2.91244e-10
-1.49592e-09
-9.50264e-10
3.07407e-09
-3.37971e-09
7.0553e-09
-4.60079e-09
1.39377e-08
-9.43343e-09
2.04956e-09
-4.70343e-09
1.45206e-09
-1.08159e-09
-7.06349e-11
5.94521e-10
1.59035e-09
4.75285e-10
-1.65696e-09
3.162e-09
-2.43721e-09
2.51458e-09
4.23339e-10
3.96701e-09
3.86216e-09
2.52975e-09
5.5237e-09
2.69632e-10
5.36908e-09
0
5.18076e-09
0
5.8568e-09
0
2.51358e-09
0
2.41348e-10
0
4.44244e-11
0
1.44126e-14
-8.34951e-15
-7.24267e-15
-4.20658e-14
-2.98314e-13
-2.65832e-12
-2.89556e-10
-1.93931e-12
-5.00527e-11
-3.72571e-12
-7.98309e-11
-8.19337e-11
-1.41401e-10
-1.26259e-09
-1.44246e-09
-4.82514e-09
-7.12193e-10
-4.63453e-09
-6.16643e-10
-1.25468e-09
-1.24049e-10
2.59432e-11
2.68762e-11
1.36053e-09
2.58063e-10
2.13541e-12
-1.53176e-10
0
-6.36667e-11
1.74692e-12
2.10203e-09
5.71972e-12
2.40857e-09
0
2.44619e-09
0
1.8609e-09
0
3.44923e-10
0
1.38302e-12
0
8.48742e-14
0
5.17514e-14
6.62201e-14
2.7409e-14
1.36712e-14
1.21557e-13
2.75707e-13
-1.05975e-12
-1.98824e-12
-2.8221e-13
-2.29619e-12
-1.8021e-12
-1.10535e-12
-6.70807e-11
-1.56427e-11
-7.88403e-10
-2.28797e-10
-2.00927e-09
-2.00493e-09
-1.7493e-09
-3.292e-09
-2.69767e-10
-2.81764e-09
1.68922e-10
-1.25788e-09
-1.49732e-09
3.03037e-09
1.90919e-12
1.20315e-13
1.46946e-12
0
3.19305e-12
0
8.57371e-12
0
5.90443e-12
0
2.85756e-12
0
1.55767e-12
1.39167e-15
1.14022e-12
0
1.28734e-13
1.76313e-13
4.70406e-14
3.70026e-14
3.49195e-14
7.60194e-14
2.59325e-14
2.03911e-14
6.08115e-12
3.52658e-12
4.09582e-12
3.19609e-12
-1.86653e-13
-3.17424e-13
0
-7.84149e-14
0
-2.03427e-15
0
-4.03986e-15
-8.72451e-10
-2.41539e-13
-1.44139e-09
-2.1632e-10
-5.33086e-10
-7.61784e-10
1.50276e-10
-1.14928e-09
-7.54927e-13
3.43572e-10
7.80783e-14
4.89641e-14
9.23014e-13
3.40737e-13
6.18233e-13
2.31922e-13
6.8289e-14
9.3225e-14
1.34426e-14
0
7.56412e-15
2.60343e-15
5.84725e-15
2.84557e-15
9.70172e-15
7.00759e-15
8.5775e-15
1.91668e-13
2.39364e-14
3.90974e-14
5.32978e-12
4.92521e-12
5.45476e-12
5.01868e-12
2.48352e-12
0
1.67279e-12
0
8.09428e-14
0
1.82919e-15
-2.11368e-15
5.8145e-18
-1.78313e-16
-9.87979e-17
-3.78391e-15
-2.09366e-13
-3.20636e-14
-2.15667e-10
-8.65703e-13
-1.31921e-10
-3.70084e-11
-3.53871e-14
-3.60799e-11
-7.61584e-13
-3.30956e-14
4.64768e-14
9.405e-15
7.27801e-13
4.5629e-13
4.33411e-13
4.50792e-13
0
7.96731e-14
1.79932e-15
4.74852e-15
2.26641e-15
1.87337e-15
2.93511e-15
1.80468e-15
7.76448e-15
1.91525e-15
7.54133e-12
4.78869e-12
7.92233e-12
7.74163e-12
7.68875e-12
8.37171e-12
1.69908e-12
3.16264e-12
0
0
1.63171e-14
0
1.15859e-14
0
2.09666e-16
-4.36696e-17
1.04545e-16
-7.34146e-17
1.12032e-15
-1.43374e-16
-2.50555e-16
-2.76332e-13
-2.42898e-14
-1.87497e-12
-9.95444e-14
-3.79301e-11
-2.69854e-13
-3.67773e-11
-3.99739e-12
-9.681e-14
8.13264e-15
8.22364e-15
6.43711e-14
6.12086e-14
6.75155e-14
1.85371e-14
6.15976e-15
4.06904e-16
3.44803e-15
8.1094e-15
2.12623e-15
2.82516e-15
1.69819e-15
1.8657e-15
2.53168e-12
3.39723e-13
7.20984e-12
3.63582e-12
3.27658e-12
2.55498e-12
1.09616e-12
4.97298e-13
0
0
2.8275e-15
8.51661e-15
1.3062e-14
1.90457e-14
1.13457e-16
2.95758e-16
7.92898e-17
-9.72372e-18
6.86489e-17
-6.30909e-17
4.82445e-17
-1.23284e-16
4.34132e-13
-3.33292e-12
-2.11074e-12
-2.4383e-11
-7.81472e-12
-3.54692e-11
-1.57357e-11
-3.48433e-11
-2.57462e-11
-8.75336e-12
9.02638e-16
2.29944e-14
2.71378e-16
6.11492e-14
3.18545e-16
1.82097e-14
3.94161e-16
1.72859e-16
3.01223e-15
2.62512e-15
1.65942e-14
1.77517e-14
7.56621e-14
3.63245e-14
2.3538e-13
2.61856e-13
3.86362e-13
0
5.32788e-14
0
1.71944e-15
0
1.71741e-15
0
1.06086e-14
2.62368e-15
4.02553e-15
1.45074e-15
8.46274e-17
8.03826e-17
6.03101e-17
-9.44906e-18
9.80048e-17
-1.27069e-16
7.84399e-17
-1.04035e-16
-1.01923e-13
-4.26968e-13
-5.77332e-12
-1.85614e-11
-1.21252e-11
-2.89797e-11
-1.72171e-11
-2.96138e-11
-2.2593e-11
-2.02326e-11
-8.28355e-15
1.56429e-13
-1.16864e-15
6.682e-13
4.69935e-17
2.03421e-13
0
2.16461e-16
6.36091e-17
2.61128e-15
-4.65899e-17
1.04603e-14
-2.16093e-16
1.46443e-14
3.88967e-17
0
1.57132e-16
0
6.15103e-17
0
2.39416e-17
8.23667e-17
3.30024e-17
3.83704e-17
1.27642e-16
0
5.77049e-17
6.63368e-18
5.22984e-17
2.91988e-17
7.07215e-17
-1.2464e-18
6.84157e-17
-4.48349e-17
5.82759e-17
-9.42095e-17
0
-5.39692e-16
-4.00782e-12
-2.62921e-13
-1.07451e-11
-1.19708e-11
-2.37716e-11
-1.64497e-11
-9.27335e-15
-8.22183e-12
-1.25493e-13
3.86217e-13
-1.21603e-13
8.97134e-13
-7.17203e-16
3.425e-13
-7.2256e-16
2.1778e-16
-1.51684e-15
2.50231e-15
-2.15432e-15
3.11231e-15
-1.86123e-15
2.16458e-15
-1.15648e-15
1.05788e-15
-3.37997e-16
7.79958e-16
-4.77963e-17
2.25353e-16
-1.06213e-17
5.63821e-17
-2.99481e-18
7.38867e-18
-1.94584e-18
6.91307e-19
-3.07027e-18
1.40744e-18
-3.74931e-18
8.97426e-18
-5.96852e-18
2.77951e-19
-1.41386e-17
-3.19364e-17
-2.96914e-17
-1.03942e-16
-3.03683e-16
-2.90936e-16
-2.62953e-13
-2.93093e-16
-1.77345e-12
-4.65588e-16
-3.6187e-16
-4.4065e-16
-3.53651e-16
-9.28279e-15
-2.29913e-13
6.50842e-13
-1.28044e-13
1.02844e-12
-9.47806e-16
4.76515e-13
-9.62288e-16
2.29586e-16
-1.20444e-15
1.21431e-15
-1.14675e-15
1.14712e-15
-7.90877e-16
5.87903e-16
-3.76343e-16
2.74354e-16
-1.05683e-16
8.19972e-17
-1.66126e-17
1.9154e-17
-1.2664e-18
3.73498e-18
-1.59415e-19
1.21356e-18
-1.43211e-19
2.43101e-19
-4.68727e-19
2.94736e-19
-3.13408e-18
1.19997e-18
-1.58177e-17
4.03627e-20
-5.14977e-17
-1.0247e-17
-1.17005e-16
-7.72763e-17
-9.54266e-17
-1.71127e-16
-1.24905e-16
-2.48167e-16
-1.58308e-16
-4.23116e-16
-1.92779e-16
-4.00617e-16
-1.39635e-16
-4.0849e-16
-2.73517e-13
1.00031e-12
-2.30194e-13
1.21864e-12
-4.87026e-16
6.64005e-13
-5.04871e-16
2.45573e-16
-5.11677e-16
3.59822e-16
-3.53937e-16
3.58801e-16
-1.12445e-16
1.01342e-16
-2.56778e-17
1.03903e-17
-2.90596e-18
4.8697e-18
-9.24841e-19
1.90517e-18
2.78358e-18
2.64745e-20
2.80581e-18
-2.76241e-18
2.1075e-18
-2.37663e-18
8.48073e-19
-1.34554e-18
-6.09708e-19
-3.00232e-19
-3.26278e-18
1.16329e-21
-3.97084e-17
-5.34422e-19
-1.43129e-16
-8.20185e-18
-2.23028e-16
-5.26754e-17
-2.46825e-16
-7.50601e-17
-2.78339e-16
-1.53355e-16
-2.47945e-16
-1.51787e-16
-9.43269e-17
-9.48486e-17
-3.14193e-13
9.20734e-13
-2.99572e-13
1.43755e-12
-2.57685e-16
7.18972e-13
-2.80087e-16
2.6623e-16
-1.75112e-16
2.53101e-16
-8.2895e-17
2.381e-16
-5.76397e-18
2.41752e-17
-1.31769e-18
2.9453e-18
3.51227e-18
3.91722e-20
5.10452e-18
-3.27631e-18
5.92505e-18
-4.29472e-18
5.59856e-18
-4.34677e-18
4.6631e-18
-3.35522e-18
3.36749e-18
-2.00517e-18
1.77904e-18
-7.50353e-19
-2.95813e-20
4.24415e-20
-1.47713e-18
5.31402e-19
-2.17538e-17
4.90179e-19
-7.92133e-17
-6.26404e-19
-1.24234e-16
-4.18909e-18
-1.51857e-16
-1.19779e-17
-1.47133e-16
-1.79875e-17
-1.76661e-17
-7.186e-17
-3.22945e-13
5.65318e-13
-3.05784e-13
1.65392e-12
-2.8127e-16
5.77967e-13
-3.06671e-16
2.89776e-16
-1.89262e-16
2.77723e-16
-3.26807e-17
2.58338e-16
-3.21514e-19
1.9616e-17
2.62258e-18
1.1009e-21
5.15758e-18
-2.40471e-18
6.32383e-18
-4.20376e-18
6.64837e-18
-4.50397e-18
6.28682e-18
-3.98928e-18
5.49861e-18
-2.96533e-18
4.52391e-18
-1.77441e-18
3.49817e-18
-6.92092e-19
2.41195e-18
9.22548e-20
1.20055e-18
5.09258e-19
-4.39591e-21
6.91764e-19
-1.30125e-18
6.70445e-19
-6.54908e-18
4.83904e-19
-1.44745e-17
2.02914e-19
-1.773e-17
4.7584e-21
-3.14654e-19
-1.55958e-17
-3.12561e-13
2.76928e-13
-1.83417e-13
1.75817e-12
-5.98875e-16
1.21266e-13
-6.25938e-16
3.15101e-16
-4.26376e-16
1.04273e-15
-4.74372e-17
5.70377e-16
-3.30511e-18
3.49338e-17
1.55081e-18
1.87944e-18
3.57035e-18
-1.36539e-18
4.57428e-18
-2.7204e-18
4.99944e-18
-2.95893e-18
4.94594e-18
-2.63893e-18
4.53462e-18
-1.9764e-18
3.91396e-18
-1.17599e-18
3.21589e-18
-4.21858e-19
2.554e-18
1.08684e-19
1.96081e-18
3.66685e-19
1.42052e-18
4.90264e-19
8.87331e-19
5.04502e-19
3.55615e-19
4.463e-19
8.57938e-21
3.48719e-19
-1.66559e-19
2.37508e-19
1.35836e-19
-3.37501e-19
-1.26866e-13
0
-6.09492e-14
1.0535e-14
-3.76523e-15
7.79844e-16
-1.09786e-15
1.12425e-15
-7.72087e-16
1.91786e-15
-7.99136e-17
8.42142e-16
-1.48308e-17
7.00771e-17
-4.91825e-18
1.63281e-17
5.18896e-19
5.57247e-18
1.51523e-18
-3.91178e-19
2.24096e-18
-9.44471e-19
2.67421e-18
-1.10578e-18
2.75692e-18
-9.61438e-19
2.55421e-18
-6.04873e-19
2.20371e-18
-1.88975e-19
1.81956e-18
9.10967e-20
1.4532e-18
2.32027e-19
1.1341e-18
3.01109e-19
8.65715e-19
3.08247e-19
6.37331e-19
2.76189e-19
4.36664e-19
2.25553e-19
2.6409e-19
1.69295e-19
1.13867e-19
1.21942e-19
-4.42591e-16
1.92843e-16
-2.06876e-16
3.69745e-16
-8.44122e-16
9.06308e-16
-1.03045e-15
2.43921e-15
-5.55279e-16
2.17636e-15
-1.1496e-16
9.2702e-16
-4.3448e-17
1.23739e-16
-2.69945e-17
5.60144e-17
-1.3372e-17
3.14817e-17
-4.56486e-18
1.28188e-17
8.54041e-20
3.66717e-18
7.62411e-19
-4.17034e-20
1.13639e-18
-2.60861e-19
1.25957e-18
-2.20708e-19
1.19895e-18
-5.70526e-20
1.042e-18
5.76141e-20
8.53343e-19
1.29146e-19
6.73997e-19
1.65855e-19
5.21454e-19
1.68778e-19
3.97188e-19
1.50075e-19
2.94458e-19
1.22393e-19
2.04314e-19
9.40664e-20
6.75224e-20
1.23961e-19
-4.48351e-17
8.21638e-16
-1.18443e-16
4.41815e-16
-7.33606e-16
1.00647e-15
-8.6847e-16
2.42555e-15
-5.6204e-16
1.9646e-15
-1.30009e-16
5.81199e-16
-7.83722e-17
1.76854e-16
-5.95808e-17
1.11205e-16
-4.02598e-17
7.16262e-17
-2.05072e-17
3.8465e-17
-7.09737e-18
1.48578e-17
-1.19883e-18
3.75249e-18
2.3095e-19
4.78058e-19
4.48583e-19
-4.16474e-20
5.13647e-19
-7.94908e-21
4.87367e-19
2.82924e-20
4.14396e-19
6.35357e-20
3.30707e-19
8.27007e-20
2.54321e-19
8.40692e-20
1.91861e-19
7.39436e-20
1.43332e-19
5.93602e-20
1.03775e-19
4.51342e-20
3.31062e-20
6.72907e-20
-3.5929e-17
1.54383e-15
-7.18011e-17
4.76764e-16
-3.36365e-16
5.40662e-16
-4.18791e-16
8.94959e-16
-2.37608e-16
8.38431e-16
-1.16607e-16
3.16927e-16
-9.63022e-17
2.09138e-16
-8.03353e-17
1.57667e-16
-6.18177e-17
1.06171e-16
-3.76863e-17
6.36975e-17
-1.65214e-17
2.85527e-17
-4.498e-18
8.65589e-18
-5.24527e-19
1.43971e-18
1.023e-19
7.87466e-20
1.71678e-19
1.39487e-22
1.87996e-19
1.12155e-20
1.68286e-19
2.84404e-20
1.35919e-19
3.80778e-20
1.03456e-19
3.86828e-20
7.62048e-20
3.34812e-20
5.54665e-20
2.61763e-20
4.01556e-20
1.92932e-20
1.40011e-20
2.72001e-20
-2.8168e-17
1.02488e-14
-4.87101e-17
4.96197e-16
-6.61398e-17
5.54353e-16
-9.50761e-17
6.89747e-16
-9.14754e-17
3.94609e-16
-8.89e-17
2.5989e-16
-8.88128e-17
2.20276e-16
-8.04644e-17
1.86416e-16
-6.56135e-17
1.30589e-16
-4.47453e-17
8.15092e-17
-2.24076e-17
3.98563e-17
-6.86319e-18
1.30135e-17
-9.61852e-19
2.17068e-18
8.65673e-21
1.0334e-19
4.4878e-20
-1.83904e-22
6.08628e-20
4.18426e-21
5.75836e-20
1.20635e-20
4.6864e-20
1.64897e-20
3.50312e-20
1.66479e-20
2.48862e-20
1.40998e-20
1.72693e-20
1.06529e-20
1.20844e-20
7.48734e-21
5.16985e-21
8.37349e-21
-6.63638e-16
3.98247e-14
-3.36202e-17
3.93449e-13
-4.30267e-17
5.5984e-16
-5.00113e-17
6.93746e-16
-5.52037e-17
3.97645e-16
-5.8969e-17
2.61576e-16
-6.50717e-17
2.22529e-16
-6.31707e-17
1.95222e-16
-5.35025e-17
1.45838e-16
-3.8581e-17
9.20055e-17
-2.0415e-17
4.59064e-17
-6.07071e-18
1.44465e-17
-7.00579e-19
2.21181e-18
-1.49128e-20
8.93439e-20
1.0075e-20
-2.23179e-22
1.6455e-20
1.70271e-21
1.61483e-20
4.92328e-21
1.30809e-20
6.74295e-21
9.49825e-21
6.72415e-21
6.42369e-21
5.55197e-21
4.15451e-21
4.03828e-21
2.67923e-21
2.69101e-21
1.71442e-21
1.84592e-21
0
5.15253e-14
-1.35509e-13
2.53996e-12
-2.92452e-13
6.86021e-12
-8.68721e-14
5.80407e-12
-3.37951e-17
3.17584e-13
-3.59525e-17
2.63537e-16
-3.41226e-17
2.20505e-16
-3.43188e-17
1.95972e-16
-3.02585e-17
1.49241e-16
-2.19773e-17
9.40574e-17
-1.11565e-17
4.64208e-17
-2.84086e-18
1.41936e-17
-2.25581e-19
1.67377e-18
-3.36768e-21
3.38155e-20
1.89678e-21
-6.02779e-23
3.18933e-21
7.5063e-22
3.13093e-21
1.97304e-21
2.46957e-21
2.62462e-21
1.70457e-21
2.54683e-21
1.06805e-21
2.03598e-21
6.18921e-22
1.42211e-21
3.38583e-22
8.99632e-22
5.29816e-22
2.09289e-22
6.70096e-15
4.06222e-14
9.63947e-15
2.40894e-12
3.51932e-15
6.88175e-12
-3.23582e-15
5.82758e-12
-1.51389e-15
1.58978e-12
-1.66126e-18
3.10419e-16
-2.34352e-18
2.20993e-16
-2.50733e-18
1.96316e-16
-2.39749e-18
1.48292e-16
-1.67232e-18
9.34743e-17
-7.10639e-19
4.32813e-17
-1.14582e-19
1.07481e-17
-4.01672e-21
8.28495e-19
-3.33003e-23
8.16859e-21
8.78895e-24
-7.91925e-24
-9.70666e-24
3.11674e-22
-4.92177e-23
7.53844e-22
-8.83379e-23
9.61637e-22
-1.09601e-22
9.02286e-22
-1.11704e-22
6.97658e-22
-1.00443e-22
4.69929e-22
-8.26047e-23
2.8537e-22
1.60198e-22
-6.3568e-23
2.30988e-15
3.88849e-14
8.6108e-14
1.09662e-12
3.59337e-13
6.62528e-12
3.90376e-13
5.8133e-12
0
1.40409e-12
2.66648e-17
9.88077e-16
2.64453e-17
2.21019e-16
2.79826e-17
1.89275e-16
2.39666e-17
1.37927e-16
1.63845e-17
8.17402e-17
7.36611e-18
3.30074e-17
1.33717e-18
6.20394e-18
5.1556e-20
2.97145e-19
2.32515e-22
1.45635e-21
1.48591e-23
-2.7445e-24
-3.01887e-22
1.31146e-22
-4.60442e-22
2.80143e-22
-4.5129e-22
3.35875e-22
-3.60463e-22
3.01344e-22
-2.53959e-22
2.23444e-22
-1.64178e-22
1.44019e-22
-9.98651e-23
8.32698e-23
4.41741e-23
-5.82079e-23
2.3125e-15
3.71489e-14
2.88734e-13
3.52572e-14
6.85773e-13
2.87447e-12
2.97697e-13
1.98134e-12
0
2.88736e-13
5.27511e-17
1.17768e-15
5.35961e-17
2.20908e-16
5.40444e-17
1.76486e-16
4.21286e-17
1.19551e-16
2.57123e-17
6.34902e-17
8.92962e-18
2.06236e-17
9.73902e-19
2.5265e-18
1.73003e-20
6.08297e-20
2.78517e-23
1.16011e-22
2.21748e-24
5.94409e-24
-2.44842e-22
5.52436e-23
-3.23085e-22
9.99285e-23
-2.91514e-22
1.11052e-22
-2.17453e-22
9.39194e-23
-1.4286e-22
6.59038e-23
-8.54658e-23
4.01867e-23
-4.75924e-23
2.19274e-23
1.09313e-23
-2.50737e-23
3.08772e-15
3.46447e-14
1.53933e-14
2.39663e-14
1.36376e-13
0
4.34415e-14
0
0
5.72315e-16
5.53272e-17
6.52904e-16
7.31408e-17
2.40628e-16
6.49332e-17
1.56556e-16
4.79215e-17
9.47412e-17
2.43346e-17
4.24212e-17
5.45342e-18
9.46121e-18
2.7638e-19
5.84129e-19
1.75675e-21
5.24299e-21
2.28208e-22
3.48831e-24
-6.03571e-23
2.82802e-24
-1.52634e-22
2.04437e-23
-1.66298e-22
3.32099e-23
-1.3684e-22
3.40901e-23
-9.48053e-23
2.68913e-23
-5.80181e-23
1.76499e-23
-3.22515e-23
1.00651e-23
-1.66e-23
5.12734e-24
2.37997e-24
-8.02642e-24
2.67001e-15
3.22878e-14
3.72396e-15
2.74401e-14
1.08596e-15
1.06713e-15
3.6757e-16
3.41657e-16
1.35756e-16
4.15372e-16
1.24652e-16
2.75444e-16
8.60062e-17
2.00845e-16
6.60422e-17
1.23331e-16
4.14476e-17
6.50576e-17
1.46742e-17
2.11252e-17
1.60659e-18
2.48766e-18
2.80657e-20
5.62831e-20
5.38729e-23
1.49801e-22
9.86996e-24
1.99104e-24
-5.01131e-23
6.25975e-25
-7.60942e-23
6.70832e-24
-7.16048e-23
1.00273e-23
-5.33674e-23
9.50492e-24
-3.3985e-23
6.94044e-24
-1.91901e-23
4.21675e-24
-9.83499e-24
2.22299e-24
-4.65261e-24
1.04465e-24
4.46127e-25
-2.05866e-24
2.59822e-15
2.30218e-14
4.2664e-15
2.45515e-14
9.99421e-16
8.90839e-15
3.44526e-16
2.66723e-15
1.36021e-16
6.62831e-16
9.43527e-17
2.31707e-16
7.62936e-17
1.35453e-16
5.27932e-17
7.8399e-17
2.45072e-17
3.20287e-17
4.57911e-18
5.86285e-18
1.74728e-19
2.59704e-19
8.2374e-22
1.66371e-21
1.31576e-22
1.40939e-24
-2.32493e-24
-4.83265e-25
-2.87529e-23
-3.62984e-25
-3.24994e-23
1.86725e-24
-2.65105e-23
2.68446e-24
-1.77838e-23
2.35732e-24
-1.031e-23
1.5829e-24
-5.31493e-24
8.81218e-25
-2.4846e-24
4.24369e-25
-1.0692e-24
1.81579e-25
7.03617e-26
-4.28812e-25
1.5796e-15
6.72481e-15
3.46836e-15
1.14605e-14
1.58402e-15
8.4705e-15
5.42631e-16
2.98424e-15
1.56722e-16
7.36194e-16
7.74577e-17
1.99468e-16
5.11154e-17
8.34159e-17
2.75899e-17
3.49044e-17
7.41736e-18
8.28802e-18
5.17017e-19
5.9956e-19
5.22712e-21
7.46483e-21
7.26677e-24
1.4099e-23
2.17883e-24
8.84624e-25
-8.49359e-24
-1.92356e-24
-1.28641e-23
-6.35623e-25
-1.18073e-23
4.2648e-25
-8.44679e-24
6.24962e-25
-5.07282e-24
5.10259e-25
-2.65117e-24
3.12854e-25
-1.23354e-24
1.57841e-25
-5.1955e-25
6.85315e-26
-2.00776e-25
2.63111e-26
9.10463e-27
-7.20269e-26
3.21148e-16
3.97028e-16
1.18725e-15
1.4213e-15
1.33761e-15
2.13029e-15
5.02553e-16
1.36123e-15
1.31655e-16
4.31987e-16
4.79744e-17
1.07168e-16
2.23685e-17
3.20393e-17
7.2415e-18
7.75057e-18
7.92317e-19
7.60026e-19
1.51477e-20
1.59756e-20
4.02722e-23
5.62324e-23
1.016e-23
5.99569e-26
-1.23888e-24
-5.23687e-25
-4.54621e-24
-1.16458e-24
-4.76822e-24
-4.24077e-25
-3.68224e-24
7.3645e-26
-2.30858e-24
1.24068e-25
-1.23047e-24
9.47615e-26
-5.73043e-25
5.26172e-26
-2.37516e-25
2.37487e-26
-8.88488e-26
9.1551e-27
-3.03594e-26
3.09989e-27
9.39808e-28
-9.58322e-27
1.38501e-17
3.57328e-18
1.31458e-16
2.45744e-17
2.16358e-16
8.01616e-17
1.58872e-16
9.25107e-17
5.20999e-17
5.45039e-17
1.58438e-17
1.84287e-17
4.77839e-18
4.53355e-18
7.06811e-19
5.67853e-19
2.31429e-20
1.90526e-20
1.1567e-22
1.19165e-22
1.55746e-25
2.13538e-25
7.9832e-26
4.8674e-26
-1.37166e-24
-6.26479e-25
-1.89471e-24
-5.64347e-25
-1.53238e-24
-2.06565e-25
-9.90373e-25
6.77865e-27
-5.3846e-25
2.05461e-26
-2.51444e-25
1.48803e-26
-1.02853e-25
7.40889e-27
-3.7378e-26
2.94346e-27
-1.2203e-26
9.88397e-28
-3.61705e-27
2.8884e-28
7.48971e-29
-9.84175e-28
1.81487e-19
1.89561e-20
2.49163e-18
1.18287e-19
7.02326e-18
4.17241e-19
8.43464e-18
7.49888e-19
5.2044e-18
8.4754e-19
1.86788e-18
5.38399e-19
3.76541e-19
1.41635e-19
2.18811e-20
1.04473e-20
2.11843e-22
1.4905e-22
4.49883e-25
5.03052e-25
1.85855e-25
1.46687e-25
-3.03271e-25
-1.98109e-25
-6.97192e-25
-3.54466e-25
-6.76352e-25
-2.39484e-25
-4.38712e-25
-8.39447e-26
-2.31586e-25
-5.49422e-27
-1.06894e-25
2.74205e-27
-4.2912e-26
1.95358e-27
-1.51284e-26
8.61405e-28
-4.72316e-27
2.94628e-28
-1.31567e-27
8.39814e-29
-3.29958e-28
2.05697e-29
4.41511e-30
-7.5342e-29
2.65304e-21
1.59277e-22
3.05453e-20
1.22038e-21
6.34694e-20
1.71733e-21
8.3917e-20
2.15958e-21
8.90058e-20
2.57233e-21
5.07438e-20
2.38554e-21
8.18698e-21
7.64805e-22
2.29474e-22
4.95984e-23
1.07631e-24
6.18961e-25
3.15878e-25
1.98674e-27
-2.46114e-26
-2.07467e-26
-2.07928e-25
-1.49078e-25
-2.80195e-25
-1.62377e-25
-2.14956e-25
-9.21809e-26
-1.14105e-25
-3.01896e-26
-4.76692e-26
-4.24342e-27
-1.8121e-26
2.71488e-28
-6.08356e-27
2.13933e-28
-1.79974e-27
8.19743e-29
-4.69155e-28
2.32919e-29
-1.08027e-28
5.41458e-30
-2.2138e-29
1.06274e-30
1.79704e-31
-4.0878e-30
2.43887e-23
3.59855e-25
3.90215e-22
1.03419e-23
5.23962e-22
1.22952e-23
5.48672e-22
1.11084e-23
4.55416e-22
8.15779e-24
2.78063e-22
5.13039e-24
4.68884e-23
1.58543e-24
1.20985e-24
1.32972e-25
5.19325e-27
2.15661e-27
1.59703e-27
1.63149e-27
-4.55251e-26
-4.17051e-26
-9.60661e-26
-7.69031e-26
-9.82261e-26
-6.60031e-26