/*--------------------------------*- C++ -*----------------------------------*\
  =========                 |
  \\      /  F ield         | OpenFOAM: The Open Source CFD Toolbox
   \\    /   O peration     | Website:  https://openfoam.org
    \\  /    A nd           | Version:  9
     \\/     M anipulation  |
\*---------------------------------------------------------------------------*/
FoamFile
{
    format      ascii;
    class       volScalarField;
    location    "4";
    object      p;
}
// * * * * * * * * * * * * * * * * * * * * * * * * * * * * * * * * * * * * * //

dimensions      [1 -1 -2 0 0 0 0];

internalField   nonuniform List<scalar> 
2268
(
748.833
748.212
747.367
746.283
745.003
743.561
741.987
740.312
738.565
736.776
734.971
733.173
731.398
729.647
727.903
726.118
724.243
722.259
720.697
719.943
719.565
719.162
718.356
690.119
689.528
688.699
687.626
686.346
684.895
683.305
681.607
679.831
678.007
676.161
674.314
672.479
670.661
668.847
667.023
665.215
663.603
662.433
661.222
660.547
660.055
659.398
631.465
630.889
630.071
629.012
627.731
626.27
624.659
622.932
621.12
619.253
617.357
615.453
613.556
611.677
609.82
608.008
606.403
605.411
604.364
602.778
601.537
600.858
600.255
572.883
572.294
571.47
570.414
569.129
567.652
566.017
564.257
562.404
560.491
558.542
556.583
554.634
552.713
550.844
549.081
547.677
547.044
546.071
544.509
542.861
541.678
541.003
514.367
513.745
512.896
511.831
510.532
509.034
507.37
505.574
503.678
501.715
499.715
497.705
495.712
493.76
491.889
490.169
488.841
488.346
487.6
486.047
483.997
482.511
481.711
455.912
455.245
454.359
453.271
451.948
450.421
448.724
446.888
444.945
442.931
440.877
438.818
436.782
434.803
432.926
431.224
429.88
429.24
428.571
427.058
424.938
423.403
422.38
397.514
396.796
395.864
394.742
393.386
391.824
390.088
388.207
386.212
384.14
382.03
379.918
377.841
375.832
373.937
372.226
370.833
369.962
369.101
367.693
365.891
364.453
362.899
339.174
338.407
337.43
336.266
334.868
333.26
331.478
329.544
327.487
325.349
323.174
321.005
318.882
316.836
314.908
313.161
311.7
310.64
309.641
308.341
306.89
305.723
303.289
723.418
724.374
725.29
726.107
726.969
727.959
729.091
730.344
731.662
732.793
733.401
733.887
734.5
736.496
739.541
740.56
739.635
738.039
739.074
665.031
665.553
666.34
667.219
668.169
669.264
670.498
671.748
672.917
674.021
674.841
676.086
678.004
679.607
680.843
681.262
680.762
680.998
682.51
606.315
606.631
607.247
608.125
609.14
610.326
611.658
612.967
614.219
615.486
616.918
619.133
621.237
622.234
622.188
622.39
622.254
623.452
625.394
547.235
547.629
548.193
549.051
550.102
551.347
552.738
554.19
555.656
557.145
559.493
562.216
564.126
564.273
563.898
564.08
564.344
565.359
568.089
488.018
488.514
489.102
489.969
491.041
492.331
493.779
495.436
497.09
498.785
501.623
504.981
506.778
506.17
505.836
506.108
506.508
506.663
510.245
428.72
429.275
429.931
430.847
431.942
433.275
434.764
436.525
438.373
440.274
443.21
446.759
448.487
447.922
447.881
448.344
448.752
449.008
452.123
369.326
369.949
370.672
371.673
372.801
374.177
375.676
377.476
379.49
381.593
384.504
387.788
389.546
389.61
389.988
390.766
391.327
392.671
394.279
309.807
310.542
311.325
312.445
313.589
314.998
316.479
318.303
320.493
322.981
326.028
328.964
330.783
331.374
332.156
333.334
334.313
336.538
337.063
248.083
247.237
246.194
244.95
243.465
241.77
239.904
237.872
235.697
233.434
231.139
228.867
226.663
224.55
222.547
220.701
219.105
217.808
216.656
215.507
214.525
213.933
213.175
124.449
123.374
122.193
120.772
119.092
117.236
115.256
113.161
110.99
108.831
106.712
104.618
102.555
100.542
98.7027
97.0613
95.612
94.3429
93.2301
92.2522
91.4422
90.8615
90.3469
31.8583
31.0767
30.3108
29.4634
28.6134
27.6915
26.6807
25.697
24.7883
23.8544
22.9215
21.9608
20.9506
19.9688
19.1206
18.3892
17.785
17.2498
16.754
16.3068
15.911
15.598
15.3546
0.195973
0.108269
0.0394798
0.00455072
0.16218
0.280568
0.331289
0.430563
0.672884
0.714334
0.692707
0.635153
0.537586
0.468288
0.373516
0.176616
0.085417
0.0279526
-0.0257002
-0.0609124
-0.117473
-0.224463
-0.403173
-0.421425
-0.421494
-0.424878
-0.444251
-0.390652
-0.322877
-0.267294
-0.20216
-0.112713
-0.0619055
-0.0527094
-0.0628543
-0.0871226
-0.127244
-0.192334
-0.234728
-0.271905
-0.301715
-0.34354
-0.435113
-0.505265
-0.586135
-0.629592
-0.807204
-0.792796
-0.78931
-0.807629
-0.815375
-0.803564
-0.794946
-0.787865
-0.823601
-0.851256
-0.871619
-0.884475
-0.899414
-0.916862
-0.931098
-0.861296
-0.857187
-0.848383
-0.858808
-0.927443
-0.952409
-0.952416
-0.905159
-1.16899
-1.1605
-1.15636
-1.14974
-1.16523
-1.17668
-1.1909
-1.21112
-1.23826
-1.26043
-1.27473
-1.28017
-1.2785
-1.27239
-1.26592
-1.26376
-1.25947
-1.24437
-1.21943
-1.17893
-1.16562
-1.15684
-1.12726
-1.40752
-1.41026
-1.40744
-1.39487
-1.39858
-1.40081
-1.40266
-1.40897
-1.41175
-1.40851
-1.4066
-1.40571
-1.40341
-1.39997
-1.3966
-1.39569
-1.38835
-1.37964
-1.36609
-1.34845
-1.33727
-1.33366
-1.32154
-1.5444
-1.54546
-1.54491
-1.54416
-1.54445
-1.54499
-1.54408
-1.54155
-1.53843
-1.53512
-1.53271
-1.53103
-1.52905
-1.52665
-1.5244
-1.52298
-1.52029
-1.51978
-1.52014
-1.51378
-1.5055
-1.50511
-1.50982
-1.66879
-1.66871
-1.66806
-1.66727
-1.66747
-1.66765
-1.66692
-1.6653
-1.663
-1.66039
-1.65831
-1.6567
-1.65515
-1.65344
-1.65178
-1.65071
-1.64979
-1.65038
-1.65295
-1.65631
-1.65497
-1.65291
-1.65427
-1.79325
-1.79274
-1.7922
-1.79174
-1.79163
-1.79146
-1.79073
-1.7894
-1.78761
-1.78567
-1.78399
-1.78254
-1.78113
-1.77975
-1.77853
-1.77771
-1.77725
-1.77772
-1.77912
-1.78067
-1.78189
-1.77997
-1.77861
-1.91775
-1.91725
-1.9168
-1.91643
-1.91615
-1.91577
-1.91505
-1.91394
-1.91255
-1.91107
-1.90965
-1.90831
-1.90703
-1.90588
-1.90492
-1.90426
-1.90393
-1.90415
-1.90486
-1.9056
-1.90583
-1.90498
-1.90407
-2.0422
-2.04192
-2.04158
-2.04124
-2.04088
-2.0404
-2.03969
-2.03875
-2.03763
-2.0364
-2.03516
-2.03396
-2.03286
-2.03189
-2.03109
-2.03053
-2.03025
-2.0303
-2.03067
-2.03109
-2.0311
-2.03059
-2.02994
-2.16661
-2.16658
-2.16639
-2.1661
-2.16572
-2.16521
-2.16454
-2.16369
-2.16272
-2.16166
-2.1606
-2.15957
-2.15862
-2.15779
-2.1571
-2.15661
-2.15634
-2.1563
-2.15649
-2.15679
-2.1568
-2.15647
-2.15596
-2.291
-2.2912
-2.29118
-2.29096
-2.2906
-2.29011
-2.28948
-2.28872
-2.28787
-2.28695
-2.28603
-2.28514
-2.28432
-2.28359
-2.28299
-2.28255
-2.28226
-2.28215
-2.2822
-2.28232
-2.28238
-2.28216
-2.28173
-2.41544
-2.41582
-2.41594
-2.41581
-2.4155
-2.41505
-2.41448
-2.4138
-2.41305
-2.41225
-2.41145
-2.41067
-2.40995
-2.40932
-2.40878
-2.40836
-2.40807
-2.4079
-2.40784
-2.40783
-2.40777
-2.40759
-2.40729
-2.53995
-2.54047
-2.5407
-2.54065
-2.5404
-2.54001
-2.5395
-2.53891
-2.53824
-2.53755
-2.53685
-2.53617
-2.53553
-2.53496
-2.53447
-2.53408
-2.53379
-2.53358
-2.53345
-2.53336
-2.53325
-2.53308
-2.53286
-2.66458
-2.66517
-2.66549
-2.66551
-2.66532
-2.66499
-2.66454
-2.66402
-2.66344
-2.66283
-2.66221
-2.66161
-2.66105
-2.66053
-2.66009
-2.65972
-2.65942
-2.6592
-2.65903
-2.65889
-2.65875
-2.6586
-2.65842
-2.78932
-2.78995
-2.79032
-2.79039
-2.79025
-2.78997
-2.78959
-2.78913
-2.78862
-2.78809
-2.78754
-2.78701
-2.78651
-2.78605
-2.78564
-2.78529
-2.785
-2.78476
-2.78457
-2.78441
-2.78426
-2.78412
-2.78397
-2.91416
-2.9148
-2.91519
-2.91529
-2.9152
-2.91496
-2.91463
-2.91424
-2.91379
-2.91332
-2.91284
-2.91237
-2.91192
-2.9115
-2.91113
-2.9108
-2.91052
-2.91028
-2.91008
-2.90992
-2.90976
-2.90963
-2.9095
-3.03911
-3.03972
-3.0401
-3.04022
-3.04015
-3.03996
-3.03968
-3.03933
-3.03894
-3.03853
-3.0381
-3.03768
-3.03728
-3.0369
-3.03656
-3.03626
-3.03599
-3.03576
-3.03556
-3.0354
-3.03525
-3.03512
-3.03501
-3.16412
-3.16469
-3.16504
-3.16516
-3.16511
-3.16495
-3.16471
-3.16441
-3.16407
-3.1637
-3.16333
-3.16296
-3.1626
-3.16226
-3.16195
-3.16167
-3.16142
-3.1612
-3.16101
-3.16085
-3.16071
-3.16059
-3.1605
-3.28921
-3.2897
-3.29
-3.29011
-3.29007
-3.28994
-3.28973
-3.28947
-3.28917
-3.28886
-3.28853
-3.2882
-3.28788
-3.28757
-3.28729
-3.28703
-3.2868
-3.2866
-3.28642
-3.28627
-3.28614
-3.28604
-3.28596
-3.41434
-3.41475
-3.41499
-3.41507
-3.41504
-3.41492
-3.41474
-3.41451
-3.41426
-3.41398
-3.41369
-3.4134
-3.41312
-3.41285
-3.4126
-3.41236
-3.41215
-3.41197
-3.4118
-3.41166
-3.41155
-3.41146
-3.41139
-3.5395
-3.53982
-3.53998
-3.54003
-3.54
-3.53989
-3.53974
-3.53954
-3.53932
-3.53908
-3.53883
-3.53857
-3.53833
-3.53809
-3.53786
-3.53765
-3.53747
-3.5373
-3.53715
-3.53703
-3.53693
-3.53685
-3.53679
-3.66467
-3.66489
-3.66497
-3.66499
-3.66495
-3.66486
-3.66472
-3.66455
-3.66436
-3.66415
-3.66394
-3.66372
-3.6635
-3.66329
-3.66309
-3.66291
-3.66275
-3.6626
-3.66247
-3.66236
-3.66228
-3.66221
-3.66217
-3.78984
-3.78997
-3.78996
-3.78994
-3.7899
-3.78982
-3.7897
-3.78955
-3.78939
-3.78921
-3.78903
-3.78884
-3.78865
-3.78847
-3.7883
-3.78814
-3.788
-3.78787
-3.78776
-3.78767
-3.7876
-3.78755
-3.78752
-3.915
-3.91505
-3.91497
-3.91492
-3.91486
-3.91478
-3.91467
-3.91455
-3.91441
-3.91426
-3.9141
-3.91394
-3.91378
-3.91363
-3.91348
-3.91335
-3.91323
-3.91312
-3.91303
-3.91295
-3.9129
-3.91286
-3.91285
-4.04013
-4.04009
-4.03998
-4.0399
-4.03983
-4.03974
-4.03964
-4.03953
-4.03942
-4.03929
-4.03916
-4.03903
-4.0389
-4.03877
-4.03865
-4.03853
-4.03843
-4.03835
-4.03827
-4.03822
-4.03818
-4.03816
-4.03815
-4.16525
-4.16512
-4.16498
-4.16489
-4.1648
-4.1647
-4.16461
-4.16452
-4.16442
-4.16432
-4.16421
-4.16411
-4.164
-4.16389
-4.16379
-4.1637
-4.16362
-4.16355
-4.1635
-4.16346
-4.16344
-4.16343
-4.16344
-4.29036
-4.29014
-4.28996
-4.28985
-4.28976
-4.28967
-4.28959
-4.28951
-4.28944
-4.28935
-4.28927
-4.28918
-4.2891
-4.28901
-4.28893
-4.28886
-4.2888
-4.28875
-4.28871
-4.28869
-4.28868
-4.28868
-4.2887
-4.41546
-4.41516
-4.41494
-4.41481
-4.41472
-4.41465
-4.41458
-4.41452
-4.41446
-4.41439
-4.41433
-4.41426
-4.41419
-4.41413
-4.41407
-4.41401
-4.41397
-4.41393
-4.41391
-4.4139
-4.41391
-4.41393
-4.41396
-4.54055
-4.5402
-4.53995
-4.5398
-4.53971
-4.53964
-4.53959
-4.53954
-4.53949
-4.53944
-4.5394
-4.53935
-4.53929
-4.53924
-4.5392
-4.53916
-4.53913
-4.53911
-4.5391
-4.53911
-4.53913
-4.53916
-4.5392
-4.66564
-4.66525
-4.66498
-4.66482
-4.66473
-4.66467
-4.66462
-4.66458
-4.66455
-4.66451
-4.66448
-4.66444
-4.6644
-4.66436
-4.66433
-4.6643
-4.66428
-4.66427
-4.66428
-4.6643
-4.66434
-4.66438
-4.66443
-4.79071
-4.79031
-4.79003
-4.78988
-4.78979
-4.78973
-4.78969
-4.78965
-4.78963
-4.7896
-4.78958
-4.78955
-4.78952
-4.78949
-4.78946
-4.78944
-4.78943
-4.78943
-4.78945
-4.78949
-4.78954
-4.7896
-4.78966
-4.91577
-4.91536
-4.9151
-4.91496
-4.91488
-4.91482
-4.91478
-4.91476
-4.91474
-4.91472
-4.9147
-4.91468
-4.91465
-4.91462
-4.91459
-4.91457
-4.91457
-4.91458
-4.91462
-4.91467
-4.91474
-4.91481
-4.91488
-5.04081
-5.04041
-5.04018
-5.04007
-5.04001
-5.03996
-5.03992
-5.0399
-5.03988
-5.03987
-5.03985
-5.03982
-5.03979
-5.03976
-5.03973
-5.0397
-5.0397
-5.03971
-5.03977
-5.03985
-5.03994
-5.04003
-5.04011
-5.1658
-5.16546
-5.16529
-5.16522
-5.16518
-5.16514
-5.1651
-5.16508
-5.16507
-5.16505
-5.16503
-5.165
-5.16496
-5.16491
-5.16487
-5.16483
-5.16481
-5.16483
-5.16491
-5.16503
-5.16515
-5.16525
-5.16534
-5.29075
-5.29049
-5.29042
-5.29041
-5.29039
-5.29036
-5.29033
-5.29031
-5.29029
-5.29027
-5.29024
-5.2902
-5.29014
-5.29008
-5.29002
-5.28996
-5.28992
-5.28992
-5.29003
-5.29021
-5.29037
-5.29049
-5.29058
-5.41568
-5.41557
-5.41561
-5.41566
-5.41566
-5.41564
-5.41562
-5.41559
-5.41555
-5.41552
-5.41547
-5.41541
-5.41534
-5.41526
-5.41517
-5.41508
-5.41501
-5.41497
-5.41511
-5.41541
-5.41562
-5.41576
-5.41585
-5.54034
-5.54068
-5.54089
-5.54099
-5.54102
-5.54099
-5.54094
-5.54088
-5.54081
-5.54073
-5.54064
-5.54054
-5.54043
-5.54031
-5.54018
-5.54004
-5.5399
-5.53977
-5.53993
-5.5406
-5.54093
-5.54106
-5.54113
-5.66555
-5.66693
-5.66659
-5.66652
-5.66647
-5.6664
-5.66631
-5.66621
-5.6661
-5.66598
-5.66586
-5.66573
-5.66559
-5.66543
-5.66525
-5.66499
-5.66453
-5.66374
-5.66418
-5.6657
-5.6662
-5.66635
-5.66641
215.61
215.927
216.281
216.86
91.1176
91.4929
91.7198
91.9692
15.6
15.7526
15.8586
15.9802
-0.304172
-0.269463
-0.278874
-0.315998
-0.58332
-0.548774
-0.578157
-0.594717
-0.923675
-0.885102
-0.923433
-0.919022
-1.15558
-1.16834
-1.16789
-1.1661
-1.34549
-1.35858
-1.36013
-1.36045
-1.51434
-1.51524
-1.51352
-1.51219
-1.65186
-1.64883
-1.64663
-1.64561
-1.77714
-1.77607
-1.77498
-1.77429
-1.90315
-1.90254
-1.90197
-1.90152
-2.0293
-2.02888
-2.02851
-2.0282
-2.15544
-2.15509
-2.1548
-2.15456
-2.28131
-2.28107
-2.28085
-2.28067
-2.40702
-2.40686
-2.40672
-2.40659
-2.53268
-2.53257
-2.53247
-2.53238
-2.65829
-2.65821
-2.65815
-2.6581
-2.78387
-2.78382
-2.78377
-2.78374
-2.90942
-2.90938
-2.90936
-2.90934
-3.03495
-3.03492
-3.0349
-3.0349
-3.16045
-3.16043
-3.16042
-3.16042
-3.28592
-3.2859
-3.2859
-3.2859
-3.41136
-3.41135
-3.41135
-3.41136
-3.53677
-3.53677
-3.53677
-3.53678
-3.66216
-3.66216
-3.66216
-3.66218
-3.78752
-3.78752
-3.78753
-3.78754
-3.91285
-3.91286
-3.91287
-3.91289
-4.03816
-4.03817
-4.03819
-4.03821
-4.16345
-4.16347
-4.16348
-4.16351
-4.28873
-4.28874
-4.28876
-4.28879
-4.41398
-4.414
-4.41403
-4.41405
-4.53923
-4.53925
-4.53928
-4.53931
-4.66447
-4.66449
-4.66452
-4.66455
-4.7897
-4.78973
-4.78976
-4.78979
-4.91493
-4.91496
-4.91499
-4.91502
-5.04016
-5.04019
-5.04022
-5.04025
-5.1654
-5.16543
-5.16546
-5.16549
-5.29064
-5.29067
-5.2907
-5.29073
-5.4159
-5.41592
-5.41595
-5.41597
-5.54117
-5.54119
-5.5412
-5.54122
-5.66643
-5.66644
-5.66645
-5.66646
216.428
217.426
218.415
219.936
221.805
223.811
225.804
227.795
229.753
232.007
234.616
237.254
239.208
240.431
241.756
243.546
245.355
247.574
248.293
92.6413
94.5919
96.5506
98.7644
101.304
103.9
106.575
108.942
110.912
112.552
114.074
115.817
117.613
119.354
121.177
123.139
125.017
127.017
127.375
16.3667
17.634
18.9019
20.1403
21.4175
22.7716
24.3112
25.8043
26.9174
27.5275
27.8446
28.3002
29.0207
30.018
31.1961
32.1873
32.8807
33.8068
33.575
-0.384959
-0.457783
-0.478797
-0.489737
-0.459745
-0.36657
-0.370226
-0.389269
-0.397305
-0.374193
-0.28482
-0.211151
-0.160066
-0.080379
0.00481865
0.0420382
0.00841144
-0.156516
-0.256038
-0.61479
-0.631236
-0.637123
-0.640241
-0.623927
-0.587751
-0.57735
-0.576899
-0.58113
-0.587357
-0.595973
-0.605959
-0.614357
-0.629237
-0.664848
-0.717685
-0.70453
-0.698696
-0.691857
-0.894317
-0.883752
-0.886889
-0.892998
-0.903212
-0.924478
-0.929787
-0.930589
-0.927895
-0.92504
-0.924211
-0.922825
-0.918464
-0.922073
-0.942641
-0.968757
-0.957767
-0.963683
-0.940526
-1.17111
-1.15396
-1.16127
-1.16469
-1.18929
-1.21809
-1.22638
-1.2285
-1.22777
-1.22586
-1.22297
-1.22139
-1.21963
-1.21729
-1.21416
-1.2046
-1.21163
-1.21135
-1.2065
-1.37384
-1.37579
-1.37946
-1.3831
-1.38881
-1.38827
-1.39005
-1.39219
-1.39332
-1.39341
-1.3935
-1.39413
-1.3971
-1.40193
-1.40304
-1.39252
-1.40103
-1.40124
-1.40193
-1.51587
-1.52429
-1.52399
-1.52511
-1.52069
-1.51817
-1.51824
-1.51895
-1.51903
-1.51837
-1.51822
-1.52001
-1.5232
-1.52752
-1.5303
-1.52921
-1.53237
-1.53565
-1.53624
-1.64569
-1.64893
-1.6494
-1.64921
-1.64706
-1.6453
-1.64516
-1.64559
-1.64523
-1.64498
-1.64645
-1.64898
-1.65185
-1.65354
-1.65405
-1.65388
-1.65603
-1.65827
-1.65923
-1.77377
-1.77496
-1.77522
-1.77484
-1.77339
-1.77248
-1.77259
-1.77303
-1.77313
-1.77443
-1.77732
-1.77957
-1.77991
-1.77881
-1.77831
-1.77858
-1.77994
-1.78152
-1.78275
-1.90099
-1.90136
-1.90146
-1.90127
-1.9006
-1.90053
-1.90093
-1.90181
-1.90327
-1.90558
-1.90756
-1.90759
-1.9057
-1.9049
-1.90488
-1.90544
-1.90642
-1.90735
-1.90836
-2.02775
-2.02783
-2.02796
-2.02821
-2.02849
-2.02876
-2.02939
-2.03046
-2.03274
-2.0347
-2.03504
-2.03409
-2.0332
-2.03316
-2.03395
-2.03474
-2.03518
-2.03559
-2.03607
-2.15421
-2.1542
-2.15439
-2.15491
-2.15576
-2.15631
-2.15679
-2.15749
-2.15913
-2.16043
-2.16061
-2.16072
-2.16145
-2.16188
-2.16218
-2.1621
-2.16194
-2.16232
-2.16295
-2.2804
-2.28039
-2.28059
-2.28108
-2.28189
-2.28252
-2.28282
-2.2834
-2.28448
-2.28545
-2.28597
-2.2866
-2.28789
-2.2886
-2.28824
-2.28758
-2.28745
-2.28779
-2.28816
-2.40641
-2.40641
-2.40659
-2.40696
-2.40752
-2.40803
-2.40847
-2.40905
-2.40987
-2.41067
-2.4113
-2.41201
-2.41294
-2.41343
-2.41332
-2.41308
-2.41314
-2.41354
-2.41358
-2.53227
-2.53228
-2.53244
-2.53275
-2.53317
-2.53362
-2.53406
-2.53461
-2.5353
-2.53599
-2.53662
-2.53728
-2.53799
-2.53846
-2.53862
-2.53872
-2.53901
-2.53965
-2.53961
-2.65802
-2.65806
-2.6582
-2.65847
-2.65882
-2.65922
-2.65964
-2.66014
-2.66073
-2.66134
-2.66194
-2.66256
-2.66318
-2.66368
-2.66404
-2.66439
-2.66486
-2.66569
-2.66559
-2.78371
-2.78375
-2.78389
-2.78412
-2.78443
-2.78479
-2.78519
-2.78565
-2.78617
-2.78672
-2.78729
-2.78787
-2.78845
-2.78898
-2.78946
-2.78996
-2.79055
-2.79141
-2.79129
-2.90933
-2.90938
-2.90951
-2.90972
-2.91
-2.91033
-2.9107
-2.91112
-2.9116
-2.9121
-2.91263
-2.91318
-2.91374
-2.91428
-2.91483
-2.91542
-2.91608
-2.9168
-2.91679
-3.0349
-3.03496
-3.03508
-3.03527
-3.03552
-3.03583
-3.03618
-3.03657
-3.03701
-3.03748
-3.03797
-3.03849
-3.03902
-3.03955
-3.04011
-3.04072
-3.04142
-3.04202
-3.0422
-3.16043
-3.16049
-3.16061
-3.16079
-3.16102
-3.1613
-3.16163
-3.16199
-3.16239
-3.16283
-3.16329
-3.16377
-3.16426
-3.16476
-3.16528
-3.16585
-3.16647
-3.16692
-3.16712
-3.28592
-3.28599
-3.28611
-3.28627
-3.28649
-3.28675
-3.28705
-3.28739
-3.28776
-3.28816
-3.28858
-3.28902
-3.28946
-3.2899
-3.29035
-3.29081
-3.29125
-3.29146
-3.29133
-3.41138
-3.41145
-3.41157
-3.41173
-3.41193
-3.41217
-3.41245
-3.41277
-3.41311
-3.41348
-3.41386
-3.41424
-3.41463
-3.415
-3.41535
-3.41566
-3.41588
-3.41587
-3.41557
-3.53681
-3.53688
-3.53699
-3.53715
-3.53734
-3.53757
-3.53783
-3.53812
-3.53844
-3.53877
-3.53911
-3.53945
-3.53978
-3.54008
-3.54032
-3.54048
-3.54049
-3.54031
-3.53993
-3.66221
-3.66228
-3.66239
-3.66254
-3.66272
-3.66294
-3.66318
-3.66345
-3.66374
-3.66405
-3.66435
-3.66465
-3.66493
-3.66516
-3.6653
-3.66532
-3.66514
-3.6648
-3.66431
-3.78758
-3.78766
-3.78777
-3.78791
-3.78808
-3.78829
-3.78851
-3.78877
-3.78903
-3.78931
-3.78959
-3.78985
-3.79009
-3.79026
-3.79034
-3.79026
-3.78995
-3.7895
-3.78882
-3.91293
-3.91301
-3.91312
-3.91325
-3.91342
-3.91361
-3.91383
-3.91406
-3.91431
-3.91457
-3.91482
-3.91506
-3.91527
-3.91541
-3.91546
-3.91535
-3.91503
-3.91462
-3.91393
-4.03825
-4.03833
-4.03844
-4.03858
-4.03873
-4.03892
-4.03912
-4.03934
-4.03957
-4.03981
-4.04005
-4.04027
-4.04047
-4.0406
-4.04066
-4.04058
-4.04033
-4.04002
-4.03952
-4.16355
-4.16364
-4.16375
-4.16388
-4.16403
-4.1642
-4.16439
-4.1646
-4.16482
-4.16505
-4.16528
-4.16549
-4.16568
-4.16583
-4.1659
-4.16588
-4.16571
-4.16545
-4.16499
-4.28884
-4.28892
-4.28903
-4.28916
-4.2893
-4.28947
-4.28965
-4.28985
-4.29006
-4.29028
-4.2905
-4.29071
-4.29091
-4.29107
-4.29117
-4.2912
-4.29111
-4.29086
-4.29038
-4.41411
-4.41419
-4.4143
-4.41442
-4.41456
-4.41472
-4.41489
-4.41508
-4.41528
-4.41549
-4.41571
-4.41592
-4.41613
-4.41631
-4.41645
-4.41653
-4.41651
-4.41628
-4.41574
-4.53936
-4.53945
-4.53955
-4.53967
-4.5398
-4.53995
-4.54011
-4.54029
-4.54049
-4.54069
-4.54091
-4.54113
-4.54134
-4.54154
-4.54172
-4.54185
-4.54189
-4.54169
-4.54121
-4.66461
-4.66469
-4.66479
-4.66491
-4.66503
-4.66517
-4.66532
-4.66549
-4.66568
-4.66587
-4.66609
-4.66631
-4.66654
-4.66676
-4.66696
-4.66712
-4.66718
-4.66696
-4.6665
-4.78984
-4.78993
-4.79003
-4.79013
-4.79025
-4.79037
-4.79052
-4.79067
-4.79085
-4.79104
-4.79125
-4.79147
-4.79171
-4.79195
-4.79217
-4.79235
-4.79237
-4.79204
-4.79136
-4.91508
-4.91516
-4.91525
-4.91534
-4.91545
-4.91557
-4.9157
-4.91584
-4.916
-4.91618
-4.91639
-4.91661
-4.91686
-4.91712
-4.91737
-4.91757
-4.91757
-4.91715
-4.91628
-5.04031
-5.04038
-5.04047
-5.04055
-5.04064
-5.04075
-5.04086
-5.04099
-5.04114
-5.04131
-5.0415
-5.04172
-5.04198
-5.04227
-5.04258
-5.04284
-5.04291
-5.04247
-5.04155
-5.16554
-5.16561
-5.16568
-5.16575
-5.16583
-5.16592
-5.16602
-5.16613
-5.16626
-5.16641
-5.16659
-5.1668
-5.16707
-5.16739
-5.16777
-5.16817
-5.16841
-5.16804
-5.16714
-5.29077
-5.29083
-5.29088
-5.29094
-5.29101
-5.29108
-5.29116
-5.29125
-5.29136
-5.29149
-5.29164
-5.29184
-5.2921
-5.29245
-5.29292
-5.29353
-5.29409
-5.29387
-5.29305
-5.416
-5.41605
-5.41609
-5.41613
-5.41618
-5.41623
-5.41629
-5.41636
-5.41644
-5.41654
-5.41666
-5.41683
-5.41706
-5.41739
-5.41792
-5.41879
-5.41995
-5.42003
-5.41957
-5.54123
-5.54126
-5.54129
-5.54132
-5.54135
-5.54138
-5.54142
-5.54146
-5.54151
-5.54157
-5.54165
-5.54176
-5.54191
-5.54216
-5.54263
-5.54367
-5.54567
-5.54655
-5.54724
-5.66647
-5.66648
-5.66649
-5.6665
-5.66652
-5.66653
-5.66655
-5.66656
-5.66658
-5.6666
-5.66663
-5.66667
-5.66673
-5.66684
-5.66711
-5.66787
-5.67019
-5.67384
-5.67666
)
;

boundaryField
{
    leftWall
    {
        type            calculated;
        value           nonuniform List<scalar> 
50
(
748.833
690.119
631.465
572.883
514.367
455.912
397.514
339.174
248.083
124.449
31.8583
0.195973
-0.421425
-0.807204
-1.16899
-1.40752
-1.5444
-1.66879
-1.79325
-1.91775
-2.0422
-2.16661
-2.291
-2.41544
-2.53995
-2.66458
-2.78932
-2.91416
-3.03911
-3.16412
-3.28921
-3.41434
-3.5395
-3.66467
-3.78984
-3.915
-4.04013
-4.16525
-4.29036
-4.41546
-4.54055
-4.66564
-4.79071
-4.91577
-5.04081
-5.1658
-5.29075
-5.41568
-5.54034
-5.66555
)
;
    }
    rightWall
    {
        type            calculated;
        value           nonuniform List<scalar> 
50
(
739.074
682.51
625.394
568.089
510.245
452.123
394.279
337.063
248.293
127.375
33.575
-0.256038
-0.691857
-0.940526
-1.2065
-1.40193
-1.53624
-1.65923
-1.78275
-1.90836
-2.03607
-2.16295
-2.28816
-2.41358
-2.53961
-2.66559
-2.79129
-2.91679
-3.0422
-3.16712
-3.29133
-3.41557
-3.53993
-3.66431
-3.78882
-3.91393
-4.03952
-4.16499
-4.29038
-4.41574
-4.54121
-4.6665
-4.79136
-4.91628
-5.04155
-5.16714
-5.29305
-5.41957
-5.54724
-5.67666
)
;
    }
    lowerWall
    {
        type            calculated;
        value           nonuniform List<scalar> 
62
(
778.262
777.642
776.797
775.713
774.432
772.99
771.417
769.741
767.994
766.205
764.401
762.603
760.827
759.077
757.332
755.548
753.672
751.646
750.007
749.282
748.888
748.449
747.642
718.356
659.398
600.255
541.003
481.711
422.38
362.899
303.289
278.19
278.498
278.858
279.445
723.418
665.031
606.315
547.235
488.018
428.72
369.326
309.807
752.545
753.505
754.429
755.247
756.124
757.114
758.246
759.55
761.049
762.165
762.717
763.144
762.82
764.765
768.297
769.748
768.507
766.299
767.334
)
;
    }
    atmosphere
    {
        type            calculated;
        value           nonuniform List<scalar> 
46
(
-5.72913
-5.72904
-5.72904
-5.72904
-5.72904
-5.72904
-5.72904
-5.72904
-5.72904
-5.72904
-5.72904
-5.72904
-5.72904
-5.72904
-5.72904
-5.72904
-5.72904
-5.72904
-5.72904
-5.72904
-5.72905
-5.72905
-5.72906
-5.72907
-5.72907
-5.72907
-5.72908
-5.72908
-5.72909
-5.7291
-5.7291
-5.72911
-5.72911
-5.72912
-5.72912
-5.72912
-5.72912
-5.72913
-5.72913
-5.72913
-5.72913
-5.72913
-5.72912
-5.7291
-5.72904
-5.74423
)
;
    }
    defaultFaces
    {
        type            empty;
    }
}


// ************************************************************************* //
