/*--------------------------------*- C++ -*----------------------------------*\
  =========                 |
  \\      /  F ield         | OpenFOAM: The Open Source CFD Toolbox
   \\    /   O peration     | Website:  https://openfoam.org
    \\  /    A nd           | Version:  9
     \\/     M anipulation  |
\*---------------------------------------------------------------------------*/
FoamFile
{
    format      ascii;
    class       surfaceScalarField;
    location    "9.74";
    object      alphaPhi0.water;
}
// * * * * * * * * * * * * * * * * * * * * * * * * * * * * * * * * * * * * * //

dimensions      [0 3 -1 0 0 0 0];

internalField   nonuniform List<scalar> 
4432
(
-1.47428e-08
1.47428e-08
-2.63321e-09
-1.21123e-08
2.58806e-08
-2.85082e-08
6.37101e-08
-3.78304e-08
1.08916e-07
-4.52024e-08
1.60388e-07
-5.14721e-08
2.16399e-07
-5.60088e-08
2.73243e-07
-5.68431e-08
3.26074e-07
-5.28311e-08
3.73539e-07
-4.74645e-08
4.19047e-07
-4.55078e-08
4.70856e-07
-5.18092e-08
5.40024e-07
-6.91692e-08
6.31494e-07
-9.14706e-08
7.3096e-07
-9.94668e-08
7.88772e-07
-5.78137e-08
7.3303e-07
5.57418e-08
5.71055e-07
1.61973e-07
2.11225e-07
3.59213e-07
-2.73078e-07
4.8423e-07
-4.96098e-07
2.22493e-07
-4.38894e-07
-5.7201e-08
-4.38931e-07
-2.12655e-09
1.68757e-08
1.38323e-08
-2.80751e-08
4.23528e-08
-5.70206e-08
7.8648e-08
-7.41255e-08
1.20593e-07
-8.71436e-08
1.67399e-07
-9.82769e-08
2.17561e-07
-1.06169e-07
2.67991e-07
-1.07273e-07
3.14881e-07
-9.97206e-08
3.56617e-07
-8.92014e-08
3.95163e-07
-8.40539e-08
4.35721e-07
-9.23686e-08
4.84756e-07
-1.18205e-07
5.44129e-07
-1.50846e-07
6.02598e-07
-1.57937e-07
6.27523e-07
-8.27425e-08
5.73637e-07
1.09628e-07
4.31332e-07
3.04276e-07
2.14598e-07
5.7498e-07
-3.0169e-08
7.28927e-07
-2.15192e-07
4.07459e-07
-2.89734e-07
1.73418e-08
-7.28664e-07
7.4697e-09
9.41219e-09
2.66846e-08
-4.72944e-08
5.33985e-08
-8.37287e-08
8.63e-08
-1.07027e-07
1.2408e-07
-1.24921e-07
1.66135e-07
-1.40332e-07
2.11145e-07
-1.51178e-07
2.56226e-07
-1.52353e-07
2.9775e-07
-1.41245e-07
3.33817e-07
-1.25269e-07
3.65232e-07
-1.15469e-07
3.95273e-07
-1.2241e-07
4.28395e-07
-1.51328e-07
4.66276e-07
-1.88728e-07
5.01771e-07
-1.93432e-07
5.10594e-07
-9.15708e-08
4.54045e-07
1.6618e-07
3.30806e-07
4.27513e-07
2.10145e-07
6.95898e-07
9.60994e-08
8.42902e-07
-4.55114e-08
5.49197e-07
-1.61362e-07
1.33189e-07
-8.90031e-07
1.48559e-08
-5.43835e-09
3.6305e-08
-6.87478e-08
6.15326e-08
-1.08952e-07
9.11545e-08
-1.3665e-07
1.24935e-07
-1.58702e-07
1.62573e-07
-1.7797e-07
2.0288e-07
-1.91486e-07
2.43099e-07
-1.92573e-07
2.79486e-07
-1.77632e-07
3.09822e-07
-1.55605e-07
3.33995e-07
-1.39643e-07
3.53865e-07
-1.42281e-07
3.72926e-07
-1.70389e-07
3.93689e-07
-2.09493e-07
4.14157e-07
-2.13903e-07
4.18009e-07
-9.54396e-08
3.6715e-07
2.17012e-07
2.66232e-07
5.28429e-07
2.02758e-07
7.5962e-07
1.6646e-07
8.79128e-07
6.75722e-08
6.48344e-07
-6.44111e-08
2.6517e-07
-9.54422e-07
2.00559e-08
-2.54897e-08
4.32257e-08
-9.19222e-08
6.73086e-08
-1.33033e-07
9.39448e-08
-1.63289e-07
1.23892e-07
-1.88653e-07
1.57194e-07
-2.11276e-07
1.92843e-07
-2.27139e-07
2.28203e-07
-2.27937e-07
2.59343e-07
-2.08776e-07
2.8378e-07
-1.80045e-07
3.00644e-07
-1.56509e-07
3.10644e-07
-1.52282e-07
3.1672e-07
-1.76465e-07
3.22429e-07
-2.15202e-07
3.30964e-07
-2.22438e-07
3.36573e-07
-1.01105e-07
2.99262e-07
2.54125e-07
2.23683e-07
6.03959e-07
1.91002e-07
7.9229e-07
2.02792e-07
8.68345e-07
1.38711e-07
7.12579e-07
1.04518e-08
3.92542e-07
-9.43792e-07
2.39841e-08
-4.94706e-08
4.82812e-08
-1.16225e-07
7.12271e-08
-1.55981e-07
9.49826e-08
-1.87052e-07
1.21072e-07
-2.14752e-07
1.49822e-07
-2.40037e-07
1.80457e-07
-2.57785e-07
2.10581e-07
-2.58072e-07
2.36125e-07
-2.34331e-07
2.54506e-07
-1.98436e-07
2.64251e-07
-1.66262e-07
2.64997e-07
-1.53034e-07
2.59164e-07
-1.70634e-07
2.50862e-07
-2.069e-07
2.46835e-07
-2.18411e-07
2.56074e-07
-1.10506e-07
2.41459e-07
2.67964e-07
1.91457e-07
6.53993e-07
1.79396e-07
8.04382e-07
2.12274e-07
8.35645e-07
1.75398e-07
7.4963e-07
9.13141e-08
4.7567e-07
-8.51769e-07
2.74001e-08
-7.68693e-08
5.22387e-08
-1.41069e-07
7.38108e-08
-1.77558e-07
9.4598e-08
-2.07846e-07
1.16565e-07
-2.3673e-07
1.40209e-07
-2.63695e-07
1.65068e-07
-2.82659e-07
1.89181e-07
-2.82201e-07
2.08558e-07
-2.53722e-07
2.20771e-07
-2.10661e-07
2.23913e-07
-1.69415e-07
2.16563e-07
-1.45692e-07
2.00397e-07
-1.54474e-07
1.7916e-07
-1.85666e-07
1.60968e-07
-2.00215e-07
1.64238e-07
-1.13776e-07
1.78882e-07
2.51428e-07
1.72802e-07
6.56674e-07
1.70541e-07
8.06675e-07
2.02254e-07
8.03963e-07
2.04395e-07
7.43991e-07
2.13485e-07
4.654e-07
-6.37504e-07
3.06382e-08
-1.07509e-07
5.55399e-08
-1.65975e-07
7.56882e-08
-1.9771e-07
9.3326e-08
-2.25487e-07
1.10669e-07
-2.54077e-07
1.28309e-07
-2.8134e-07
1.46203e-07
-3.00559e-07
1.63126e-07
-2.99129e-07
1.75529e-07
-2.66131e-07
1.81516e-07
-2.16654e-07
1.78965e-07
-1.66869e-07
1.65386e-07
-1.32118e-07
1.41448e-07
-1.30539e-07
1.098e-07
-1.5402e-07
7.85153e-08
-1.68932e-07
6.1804e-08
-9.70623e-08
1.05101e-07
2.08562e-07
1.53124e-07
6.06105e-07
1.68943e-07
7.88044e-07
1.94271e-07
7.73849e-07
2.5504e-07
6.8023e-07
3.54333e-07
3.68667e-07
-2.82711e-07
-7.63139e-07
7.63133e-07
-7.6024e-07
-2.7143e-09
-2.71093e-07
-4.89291e-07
1.60442e-07
-4.3168e-07
4.67868e-07
-3.07481e-07
7.03518e-07
-2.35752e-07
8.43454e-07
-1.43386e-07
9.02706e-07
-5.97892e-08
9.36122e-07
-3.38381e-08
1.0395e-06
-1.0485e-07
9.11926e-07
1.27147e-07
1.82369e-07
7.29153e-07
-4.80272e-07
6.59732e-07
-5.15006e-07
3.47219e-08
-4.2356e-07
-9.14587e-08
-4.74269e-07
5.06967e-08
-6.82546e-07
2.08268e-07
-5.89783e-07
-9.27697e-08
-5.89789e-07
-5.99773e-07
1.36285e-06
-4.67194e-07
-1.35341e-07
-1.40419e-07
-8.16123e-07
1.33142e-07
-7.05226e-07
3.23783e-07
-4.98118e-07
4.44655e-07
-3.56632e-07
5.3151e-07
-2.30253e-07
5.81769e-07
-1.10061e-07
5.5478e-07
-6.8629e-09
4.87722e-07
-3.78069e-08
4.16995e-07
1.96944e-07
1.62358e-07
9.83093e-07
-1.38872e-07
9.59983e-07
-2.60326e-07
1.56164e-07
-3.0516e-07
-4.66369e-08
-4.2856e-07
1.74085e-07
-6.67273e-07
4.47536e-07
-6.47961e-07
-1.12112e-07
-1.23881e-06
-3.97279e-07
1.76007e-06
-2.38657e-07
-2.93567e-07
-3.05639e-08
-1.02423e-06
1.24436e-07
-8.60216e-07
2.31741e-07
-6.05422e-07
2.97841e-07
-4.2274e-07
3.47513e-07
-2.79927e-07
3.6672e-07
-1.29272e-07
3.0451e-07
5.53158e-08
1.7943e-07
8.7201e-08
9.5309e-08
2.80921e-07
7.50724e-08
1.00265e-06
9.22671e-09
1.02513e-06
-9.03432e-08
2.55401e-07
-2.06499e-07
6.95064e-08
-3.60806e-07
3.291e-07
-5.72487e-07
6.59117e-07
-5.75603e-07
-1.09096e-07
-1.81483e-06
-1.9699e-07
1.94425e-06
-2.60989e-08
-4.6503e-07
6.54193e-08
-1.11575e-06
1.18219e-07
-9.13005e-07
1.56702e-07
-6.43903e-07
1.78787e-07
-4.44806e-07
1.99335e-07
-3.00466e-07
1.97893e-07
-1.27838e-07
1.19832e-07
1.33272e-07
-1.44854e-08
2.21488e-07
-1.0062e-07
3.67096e-07
-9.78885e-09
9.18363e-07
6.47704e-08
9.55078e-07
3.60325e-09
3.17438e-07
-1.24585e-07
1.97682e-07
-2.7924e-07
4.83745e-07
-4.26865e-07
8.06919e-07
-4.14002e-07
-1.22589e-07
-2.22922e-06
6.96634e-08
1.87455e-06
1.76555e-07
-5.70794e-07
1.42322e-07
-1.08152e-06
1.06419e-07
-8.77086e-07
8.69112e-08
-6.24382e-07
7.17252e-08
-4.2968e-07
6.8402e-08
-2.97212e-07
5.38434e-08
-1.13317e-07
-2.10661e-08
2.08124e-07
-1.38172e-07
3.38537e-07
-2.0467e-07
4.3356e-07
-8.64156e-08
8.00101e-07
4.70887e-08
8.2401e-07
2.41284e-08
3.40564e-07
-5.84285e-08
2.79179e-07
-1.52011e-07
5.74973e-07
-2.47469e-07
9.00518e-07
-2.24306e-07
-1.46115e-07
-2.45391e-06
3.6856e-07
1.50594e-06
3.34798e-07
-5.35061e-07
1.87539e-07
-9.34258e-07
8.34694e-08
-7.72998e-07
1.83619e-08
-5.59268e-07
-2.81694e-08
-3.83143e-07
-5.07868e-08
-2.74603e-07
-6.67032e-08
-9.73846e-08
-1.31753e-07
2.7308e-07
-2.21884e-07
4.2863e-07
-2.53989e-07
4.65654e-07
-1.35096e-07
6.81199e-07
-4.42521e-09
6.93329e-07
-1.06174e-08
3.46713e-07
-2.82193e-08
2.96196e-07
-1.1663e-08
5.57366e-07
-2.12112e-08
9.07864e-07
-1.1918e-08
-1.55345e-07
-2.46599e-06
5.78571e-07
9.33628e-07
4.11535e-07
-3.6614e-07
1.92238e-07
-7.14955e-07
4.63152e-08
-6.27067e-07
-5.00119e-08
-4.62928e-07
-1.22367e-07
-3.10778e-07
-1.63001e-07
-2.33932e-07
-1.7385e-07
-8.63096e-08
-2.17757e-07
3.15246e-07
-2.76534e-07
4.87395e-07
-2.76729e-07
4.65838e-07
-1.64503e-07
5.68962e-07
-5.03727e-08
5.7919e-07
-5.68168e-08
3.52482e-07
-1.75079e-08
2.57565e-07
1.09892e-07
4.29252e-07
2.10458e-07
8.06584e-07
2.19633e-07
-1.62619e-07
-2.24652e-06
5.40159e-07
3.95638e-07
3.80681e-07
-2.06514e-07
1.55866e-07
-4.90142e-07
-5.96886e-09
-4.6523e-07
-1.18257e-07
-3.50637e-07
-2.09309e-07
-2.19716e-07
-2.69595e-07
-1.7362e-07
-2.78239e-07
-7.62755e-08
-2.81587e-07
3.16034e-07
-3.02019e-07
5.00254e-07
-2.81247e-07
4.42628e-07
-1.73117e-07
4.60822e-07
-7.77001e-08
4.81865e-07
-7.28028e-08
3.44552e-07
1.53368e-08
1.68328e-07
1.80076e-07
2.6677e-07
3.97168e-07
5.86219e-07
4.25417e-07
-1.90305e-07
-1.82126e-06
7.8813e-08
-1.86326e-07
1.32886e-07
-2.20049e-07
1.70103e-07
-2.34921e-07
1.95157e-07
-2.50534e-07
2.1403e-07
-2.7294e-07
2.27327e-07
-2.94628e-07
2.36462e-07
-3.09685e-07
2.43975e-07
-3.06633e-07
2.43278e-07
-2.65427e-07
2.35233e-07
-2.08602e-07
2.15967e-07
-1.47599e-07
1.74865e-07
-9.10142e-08
1.11283e-07
-6.69566e-08
2.46544e-08
-6.73167e-08
-7.52915e-08
-6.89369e-08
-1.39088e-07
-3.32659e-08
-5.37884e-08
1.24132e-07
1.39344e-07
4.16044e-07
3.31772e-07
5.90319e-07
5.07493e-07
5.96917e-07
7.31991e-07
4.59687e-07
8.82749e-07
2.19041e-07
3.15232e-08
5.685e-07
6.7686e-08
-1.82017e-07
1.28377e-07
-2.01512e-07
1.77643e-07
-2.04325e-07
1.96597e-07
-1.93599e-07
1.85798e-07
-1.88574e-07
1.57728e-07
-1.92973e-07
1.15857e-07
-1.95544e-07
6.28325e-08
-1.87082e-07
1.32263e-08
-1.61366e-07
-2.18872e-08
-1.31751e-07
-4.28852e-08
-9.77111e-08
-5.86971e-08
-5.89313e-08
-8.36651e-08
-3.32656e-08
-1.37007e-07
-1.10298e-08
-2.15369e-07
7.15101e-09
-2.90584e-07
3.12743e-08
-2.72708e-07
1.05924e-07
-7.7112e-08
2.20152e-07
2.21353e-07
2.91663e-07
5.07625e-07
3.10559e-07
6.9112e-07
2.76149e-07
7.16881e-07
1.93243e-07
1.69305e-07
5.79061e-07
3.45317e-09
-1.39664e-09
-1.30065e-08
-9.27578e-10
-2.31189e-08
-1.10571e-09
-2.50818e-08
-1.1357e-09
-2.45732e-08
-2.06095e-09
-3.95036e-08
-1.44282e-09
-7.14495e-08
-9.518e-10
-1.09447e-07
-1.04472e-09
-1.37627e-07
-1.34586e-09
-1.54525e-07
-1.27249e-09
-1.586e-07
-1.32126e-09
-1.47892e-07
-1.41752e-09
-1.37777e-07
-1.34157e-09
-1.39821e-07
-2.6029e-09
-1.56178e-07
0
-1.81256e-07
0
-1.82298e-07
0
-9.64127e-08
-1.36487e-09
2.96026e-08
-2.44603e-09
1.5728e-07
6.28977e-11
2.44099e-07
5.14097e-10
2.61418e-07
1.23767e-09
2.54971e-09
2.10661e-07
1.36155e-10
-7.20364e-10
1.00439e-10
-9.67363e-11
-2.28127e-10
0
-2.22433e-10
-3.46267e-10
-8.96096e-11
-1.37964e-09
-6.24496e-11
-6.20541e-10
-1.30765e-10
0
-1.54328e-10
-1.16278e-10
-1.4262e-10
-4.27664e-10
-1.44905e-10
-3.0899e-10
-1.42593e-10
-3.38243e-10
-1.28142e-10
-4.20874e-10
-1.71235e-10
-2.66862e-10
-2.20283e-10
0
-3.55261e-10
0
-5.07752e-10
0
-7.02738e-11
-7.89377e-10
1.74391e-10
-6.26309e-10
5.23651e-11
0
1.1307e-10
-1.05191e-10
3.27166e-10
-2.60651e-10
4.5221e-10
-5.32744e-11
0
1.91719e-10
-5.33489e-10
-1.65807e-11
-6.49009e-10
1.95969e-10
0
1.18923e-10
-7.71177e-10
-2.21814e-10
-1.87192e-09
-1.55389e-10
-1.82721e-09
-8.8678e-13
-1.26749e-09
1.31858e-10
-1.41828e-09
-4.56128e-14
-1.74044e-09
-1.07008e-13
-1.32834e-09
-1.15224e-13
-6.18486e-10
-4.81763e-14
2.72762e-10
-6.18541e-11
9.49784e-10
-7.18824e-11
1.52395e-09
-2.53297e-10
2.16459e-09
-2.30789e-10
2.74271e-09
-1.60663e-10
1.55832e-09
-7.49721e-10
4.05794e-10
-5.04436e-10
1.91802e-10
1.48379e-10
4.47578e-10
7.12091e-11
2.8125e-10
-9.44319e-11
1.7654e-10
-2.65041e-11
7.47935e-11
-1.10505e-10
-1.79785e-10
0
-2.30767e-10
0
1.75239e-10
1.29784e-10
1.55346e-10
-2.79384e-14
-3.2733e-14
-9.56802e-15
-9.12685e-13
-6.87264e-15
-8.10333e-14
2.12406e-14
-8.02363e-14
-4.6617e-14
-8.54858e-14
-1.01969e-13
-9.41348e-14
-1.06783e-13
-1.08391e-13
-3.44951e-12
-6.46316e-14
-6.53198e-11
5.51218e-15
-7.53224e-11
1.13921e-11
-6.42608e-11
2.01628e-11
-4.96489e-11
1.6844e-11
-6.3324e-12
-6.9697e-12
-5.89729e-13
-1.30201e-10
-3.27936e-12
-8.08511e-11
3.10417e-11
-1.57728e-10
9.66007e-12
-3.50338e-10
0
-3.51738e-10
0
0
-4.08559e-11
-3.12865e-14
1.4908e-16
-3.46885e-12
0
-5.50003e-15
0
-3.34429e-14
0
-6.64703e-14
2.3455e-14
-8.79443e-14
1.4597e-14
-8.20923e-14
1.53639e-14
-8.59634e-14
-4.28733e-14
-3.08027e-14
-1.57337e-13
-1.27066e-13
-1.22931e-14
-1.58665e-11
-2.00142e-12
-3.81298e-11
-4.13821e-11
-2.99443e-11
-4.52472e-11
-2.81292e-11
-2.787e-11
-1.29605e-11
-2.55862e-11
-4.86077e-13
-1.46059e-12
-1.0779e-12
2.75025e-15
-1.24462e-11
0
-9.66107e-13
2.74367e-14
-1.62756e-12
8.51426e-15
-5.53151e-11
0
-1.4332e-10
0
0
-5.12769e-11
-4.75104e-16
1.89911e-15
-1.62639e-15
1.72861e-15
-5.60896e-14
1.45222e-16
-4.61187e-13
1.5533e-13
-1.19394e-12
4.97963e-13
-4.67055e-13
3.44414e-13
-3.69474e-13
7.52467e-14
-1.20142e-12
-2.30844e-13
-6.76307e-13
-1.54516e-12
0
-8.25955e-13
-5.67808e-12
-8.10296e-13
-2.2928e-11
-1.008e-15
-2.48842e-11
-6.03713e-14
-1.37244e-11
-3.84812e-12
-1.64892e-11
-7.36694e-12
-2.47777e-14
-1.92904e-12
-2.48509e-14
3.35708e-15
-3.11513e-14
6.26521e-15
-1.64308e-14
1.24982e-14
-1.71125e-14
8.91973e-15
-5.04015e-14
8.44362e-15
-1.44204e-12
4.04839e-15
0
-2.84548e-12
-5.1794e-16
3.77656e-15
-6.87984e-16
3.02388e-15
-1.72755e-15
2.24899e-15
-1.79509e-12
2.3093e-13
-2.01841e-12
1.00103e-12
-2.01318e-12
6.11255e-13
-1.14998e-12
2.70339e-13
-3.84469e-12
-3.07271e-13
-4.03079e-12
-1.33723e-12
-3.03969e-12
-1.51922e-12
-7.60531e-16
-8.08105e-14
-9.71324e-16
-1.89845e-15
-1.53747e-14
-4.70521e-14
-3.84583e-12
-1.87181e-14
-1.39539e-11
-9.51102e-13
-8.39314e-12
-4.74844e-13
-2.11055e-14
1.37184e-13
-2.12389e-14
6.37511e-15
-1.71638e-14
8.41266e-15
-1.73247e-14
9.09719e-15
-1.66551e-14
7.78924e-15
-4.428e-14
3.17535e-14
1.04478e-12
-8.51579e-12
-4.73949e-16
4.66735e-15
-2.64999e-16
3.60984e-15
0
2.80464e-15
-5.09995e-13
2.25792e-14
-1.99075e-12
4.39325e-13
-1.92086e-12
8.13442e-13
-1.09076e-12
1.23494e-13
-3.7266e-12
-2.1686e-13
-3.97466e-12
-1.06727e-12
-2.13518e-12
-1.57818e-12
-2.74875e-14
-2.57796e-16
-8.39805e-14
-7.84601e-16
-3.56226e-14
-3.78483e-13
0
0
-1.74287e-12
0
-1.99719e-12
-2.46707e-16
-1.77929e-14
2.16161e-13
-1.7774e-14
6.34786e-15
-1.75498e-14
8.18006e-15
-1.76795e-14
9.21856e-15
-1.92889e-14
9.36889e-15
-1.23102e-11
7.62156e-13
-4.03474e-13
-5.47172e-11
-3.05419e-16
5.49659e-15
-6.45999e-16
3.7619e-15
-1.35919e-15
3.32261e-15
-6.79955e-15
3.8646e-15
-8.71018e-13
0
-4.32512e-13
1.39463e-13
-1.32155e-13
2.81058e-14
-2.8638e-12
1.39932e-14
-3.07662e-12
-8.32677e-13
-2.97799e-15
-4.34189e-13
-3.05676e-15
-1.63169e-16
-3.15549e-15
-6.48503e-16
-3.57535e-12
-3.47131e-13
-5.20644e-12
-1.43664e-12
-7.0852e-14
-1.53023e-12
-1.30419e-13
1.03724e-15
-3.84144e-14
1.44537e-14
-4.88924e-14
1.13263e-14
-2.99504e-14
1.71755e-14
0
1.75569e-14
-2.42134e-14
1.08124e-14
-1.48448e-11
7.06732e-13
-5.0393e-13
-4.62801e-11
-2.08944e-16
9.5394e-15
-5.378e-16
3.89678e-15
-7.08481e-16
6.39478e-14
-2.87837e-15
2.67676e-15
-2.73929e-14
5.7446e-15
-2.27033e-14
3.86894e-15
-1.57505e-13
2.34331e-14
-1.74742e-12
1.41538e-13
-2.40073e-12
-1.54017e-13
-2.80586e-15
-4.61584e-17
-2.89866e-15
-6.73596e-17
-3.27265e-15
-2.58646e-16
-5.22766e-12
-1.68317e-13
-1.24915e-11
-2.50644e-12
-1.22802e-11
-1.53143e-12
-4.73033e-14
3.49848e-13
-4.32863e-14
7.22837e-15
-4.31448e-14
7.93437e-15
-3.89258e-14
1.79028e-14
-7.3145e-15
1.50854e-14
0
9.45854e-15
0
0
-1.37505e-14
-3.51884e-13
-2.99164e-15
2.34795e-14
-1.43587e-14
2.07142e-13
-9.60931e-15
2.00615e-13
-3.82721e-16
5.40398e-15
-5.48541e-16
1.09503e-15
-4.31004e-15
2.81498e-15
-3.50344e-13
2.21936e-13
-1.1787e-12
4.91749e-13
-7.67344e-16
4.68951e-14
-8.61049e-16
4.70938e-17
-9.50029e-16
2.1172e-17
-1.19769e-15
-7.9923e-18
-3.63141e-12
-2.98274e-15
-1.34654e-11
-4.05057e-13
-1.4242e-11
-5.44785e-13
-1.40571e-11
3.75005e-13
-3.09409e-14
1.54473e-12
-2.75515e-14
4.34478e-15
-2.26762e-14
5.66267e-15
-2.32492e-14
5.89831e-15
-1.03423e-14
6.34612e-15
-6.60955e-15
9.17838e-17
-4.85542e-16
-3.88871e-15
-4.06307e-15
2.62872e-14
-1.18962e-14
2.19664e-13
-6.42637e-15
1.99712e-13
-8.80984e-16
2.0403e-14
-5.8644e-15
1.26351e-15
-1.16587e-13
6.35654e-14
-9.38025e-13
9.1691e-13
-1.11019e-12
7.7829e-13
-4.89229e-16
9.60974e-14
-5.72331e-16
1.29747e-16
-6.51217e-16
9.95655e-17
-4.95683e-17
7.20115e-17
0
2.67112e-18
-3.34374e-12
0
-1.14864e-11
3.73974e-14
-1.16826e-11
7.66304e-13
-1.32473e-14
9.70457e-13
-1.28172e-14
3.71386e-15
-1.16642e-14
4.30954e-15
-1.19246e-14
4.31023e-15
-1.29098e-14
5.55546e-15
-1.72393e-14
3.69581e-15
-3.47395e-16
-2.18056e-14
-2.0518e-15
1.83256e-14
-7.22918e-15
2.29409e-13
-2.60625e-15
1.99761e-13
0
2.00464e-14
-4.8815e-15
1.43008e-15
-5.84381e-13
2.59904e-13
-7.61516e-13
1.20934e-12
-7.14731e-13
8.48665e-13
-9.76676e-16
1.86443e-13
-1.05094e-15
2.03554e-16
-6.98299e-16
1.99778e-16
-1.94509e-16
1.72195e-16
0
3.82083e-17
-1.3978e-13
0
-1.74447e-12
0
-2.10102e-12
0
-7.85676e-13
0
-1.79572e-14
4.48136e-14
-1.74132e-14
3.56475e-15
-1.71639e-14
3.61541e-15
-1.39976e-14
5.31363e-15
-1.7528e-14
2.29845e-15
-2.6364e-17
-2.28325e-14
-2.15252e-18
4.19606e-15
-2.1085e-15
2.97532e-15
-2.9464e-15
4.16968e-14
0
5.93809e-15
-3.59479e-15
1.605e-15
-5.49073e-13
1.09479e-13
-7.30206e-13
1.50587e-12
-1.86664e-13
5.08526e-13
-6.51388e-16
2.51e-16
-7.22624e-16
2.98898e-16
-6.37139e-16
3.81832e-16
-2.50976e-16
2.45763e-16
-1.01301e-16
3.89743e-17
-1.1987e-16
1.60801e-17
-1.94265e-16
1.54986e-17
-1.75624e-15
1.40584e-17
-3.50249e-14
0
-1.80648e-14
0
-2.30589e-14
4.45518e-15
-2.03959e-14
5.79905e-15
-1.42017e-14
3.96706e-15
-3.40182e-15
4.90556e-16
7.47145e-19
-1.08214e-15
9.13902e-18
1.32915e-15
-1.77569e-17
1.12476e-15
-6.59232e-17
1.06923e-15
-5.08724e-17
7.98749e-16
-3.01502e-15
1.80871e-15
-5.8528e-14
9.65646e-15
-1.08783e-13
0
-4.45478e-16
3.72973e-17
-4.60401e-16
8.6746e-17
-6.18495e-16
3.71333e-16
-5.24947e-16
4.45394e-16
-1.25216e-16
1.40639e-16
-8.05808e-17
3.11773e-17
-8.71293e-17
2.59596e-17
-9.35363e-17
2.51566e-17
-1.01098e-16
2.50288e-17
-3.93034e-16
2.46776e-17
-4.749e-15
0
-8.78963e-15
6.7952e-16
-8.88079e-15
8.54429e-16
-3.46393e-15
3.27549e-16
-8.58961e-16
4.08896e-17
1.97607e-18
-3.64125e-17
8.94581e-18
1.19823e-15
5.50269e-18
1.00255e-15
-9.50148e-18
9.54918e-16
-3.90806e-17
8.75431e-16
-1.99221e-15
6.20172e-15
-1.92496e-16
1.62887e-15
-6.27131e-17
0
-3.52679e-17
7.7463e-18
-2.27064e-16
9.93823e-17
-3.31934e-16
2.69625e-16
-1.86172e-16
2.12077e-16
-4.63888e-17
4.10405e-17
-5.82439e-17
1.64276e-17
-7.7364e-17
2.75616e-17
-8.38132e-17
3.10102e-17
-8.73053e-17
2.95797e-17
-9.19418e-17
2.36539e-17
-2.47802e-16
1.17996e-17
-3.01099e-16
3.60641e-18
-2.09515e-16
0
-1.55732e-16
0
-1.41443e-16
1.48371e-18
7.25145e-19
-1.23262e-17
1.16454e-17
1.06343e-15
8.91416e-16
4.2245e-13
-9.96494e-18
6.71969e-15
-1.68187e-16
1.02373e-15
-6.35896e-16
6.40853e-15
-9.37491e-17
2.2153e-15
-5.06043e-18
3.3006e-17
-1.34491e-17
1.54669e-17
-8.84168e-17
4.43274e-17
-9.63538e-17
7.00126e-17
-2.55801e-17
2.99916e-17
-1.20414e-17
3.68638e-18
-2.72097e-17
3.37358e-18
-4.86907e-17
1.47835e-17
-5.5155e-17
2.02128e-17
-5.54904e-17
1.948e-17
-3.90948e-17
1.40008e-17
-1.97031e-17
4.59951e-18
-8.50855e-18
1.07091e-18
-3.74488e-18
3.8836e-19
-2.77259e-18
1.37155e-19
-2.67511e-18
3.92453e-20
4.9758e-21
-5.68389e-19
4.43442e-15
6.66716e-13
3.58068e-15
5.77023e-13
-1.29385e-17
1.06736e-14
-1.7145e-16
1.07749e-15
-2.33949e-16
4.87015e-15
-1.6716e-17
4.70226e-16
-3.72387e-18
2.63993e-17
-5.54415e-18
1.66175e-17
-1.11848e-17
6.74239e-18
-8.05128e-18
4.11676e-18
-6.69573e-19
6.93284e-19
-7.75185e-19
8.62079e-19
-5.23265e-18
1.17071e-18
-1.41892e-17
2.05664e-18
-1.65991e-17
3.76612e-18
-1.56732e-17
3.61603e-18
-8.48334e-18
2.10777e-18
-3.36828e-18
6.72754e-19
-1.60908e-18
1.96757e-19
-7.74042e-19
8.3415e-20
-3.22507e-19
2.56565e-20
-2.3329e-19
3.69289e-21
3.49483e-22
-1.96253e-19
6.64742e-15
6.60426e-13
1.75457e-15
3.69584e-13
-1.2839e-17
4.02272e-15
-8.91751e-17
9.8669e-16
-2.70539e-17
2.10783e-15
-3.79015e-18
3.53688e-17
-3.33868e-18
1.90747e-17
-8.54007e-19
1.33813e-17
-4.06733e-19
2.14635e-19
-1.08234e-19
7.35149e-19
1.07254e-19
5.74368e-20
3.09752e-20
-1.75767e-19
-3.74586e-19
-4.00611e-20
-9.03514e-19
3.89649e-19
-1.17503e-18
8.49397e-19
-9.5042e-19
7.15071e-20
-3.87754e-19
5.26905e-20
-1.32813e-19
1.32028e-19
-5.85022e-20
3.84441e-20
-2.1022e-20
1.31333e-20
-1.55416e-21
2.91303e-21
-4.61365e-22
1.27073e-22
7.3164e-24
-1.24494e-21
5.45204e-15
6.55331e-13
0
2.34665e-14
-5.67515e-18
1.0302e-15
-2.35575e-17
6.605e-16
-1.71542e-18
3.86208e-16
-1.5309e-18
8.97109e-18
-1.76452e-18
1.11348e-17
-8.77733e-20
6.83437e-18
1.14847e-19
2.56716e-21
2.43523e-19
-4.16173e-19
3.73871e-19
-6.60724e-19
3.47581e-19
-7.8215e-19
1.69935e-19
-5.73231e-19
7.34518e-22
-2.24841e-19
-3.92125e-21
-7.90964e-22
-3.46414e-21
3.47516e-21
4.90453e-20
1.80198e-22
6.07389e-20
-2.96339e-20
5.33089e-20
-2.95561e-20
4.05606e-20
-1.98172e-20
2.76822e-20
-1.03139e-20
1.71299e-20
-3.68076e-21
-1.76611e-22
9.83475e-21
1.36892e-15
6.53058e-13
1.43133e-18
2.41573e-14
-1.86084e-18
3.56755e-16
-4.49069e-18
2.46994e-16
-3.78446e-19
6.8509e-17
-5.00292e-19
8.2208e-18
-4.96576e-19
3.20102e-18
8.27702e-20
9.81265e-19
2.21654e-19
-5.38571e-19
3.25734e-19
-1.03715e-18
3.96745e-19
-1.13931e-18
3.78096e-19
-1.06754e-18
2.8665e-19
-7.99839e-19
1.97238e-19
-4.84736e-19
1.45079e-19
-2.69988e-19
1.18716e-19
-1.62076e-19
9.91138e-20
-1.0845e-19
7.64128e-20
-7.34311e-20
5.47028e-20
-4.47671e-20
3.66083e-20
-2.39923e-20
2.29233e-20
-1.07214e-20
1.3487e-20
-3.35257e-21
2.86003e-24
7.54772e-21
-2.68015e-16
6.53512e-13
0
4.87571e-13
-1.33238e-18
5.57596e-16
-1.18647e-18
7.60209e-17
-4.13249e-19
6.07303e-17
-1.01203e-19
8.36874e-18
-5.1273e-20
6.21463e-19
9.15111e-20
8.4318e-20
1.93681e-19
-7.92364e-19
2.63667e-19
-1.19942e-18
2.98181e-19
-1.21355e-18
2.83163e-19
-1.04996e-18
2.32299e-19
-7.79764e-19
1.76797e-19
-5.08605e-19
1.32401e-19
-3.11395e-19
9.9215e-20
-1.88842e-19
7.19209e-20
-1.14565e-19
4.9149e-20
-6.6525e-20
3.17233e-20
-3.54282e-20
1.95726e-20
-1.68265e-20
1.15962e-20
-6.76914e-21
6.56303e-21
-1.89031e-21
5.84328e-23
3.50587e-21
-1.43662e-15
6.54948e-13
-2.39998e-16
6.63643e-13
-3.70646e-18
3.18367e-15
-5.93297e-19
6.64858e-17
-3.1247e-19
6.40092e-17
-3.48724e-20
9.63393e-18
-1.96938e-20
5.71851e-19
4.8844e-20
8.3633e-20
1.07241e-19
-5.96135e-19
1.49674e-19
-9.20568e-19
1.7041e-19
-9.41423e-19
1.64704e-19
-8.10326e-19
1.39601e-19
-6.06375e-19
1.08686e-19
-4.05046e-19
8.04239e-20
-2.51579e-19
5.72139e-20
-1.49462e-19
3.84245e-20
-8.52735e-20
2.41279e-20
-4.53862e-20
1.4239e-20
-2.19368e-20
8.04811e-21
-9.38177e-21
4.45209e-21
-3.37561e-21
2.417e-21
-8.19196e-22
4.73413e-23
1.26703e-21
-1.59049e-15
6.56539e-13
-5.05955e-17
6.62103e-13
-4.74101e-18
3.78811e-15
-3.6785e-19
7.97245e-17
-1.96338e-19
8.86202e-17
-3.18092e-20
1.37029e-17
-3.3285e-20
1.85588e-18
4.56727e-22
1.31036e-18
2.23194e-20
-8.85613e-21
4.6594e-20
-2.90628e-19
6.54448e-20
-4.29503e-19
7.21901e-20
-4.44371e-19
6.60942e-20
-3.71996e-19
5.28856e-20
-2.64206e-19
3.87604e-20
-1.66476e-19
2.66763e-20
-9.68532e-20
1.69701e-20
-5.28952e-20
9.94189e-21
-2.63878e-20
5.39142e-21
-1.17659e-20
2.76088e-21
-4.55959e-21
1.38735e-21
-1.45062e-21
7.02622e-22
-2.92615e-22
2.4803e-23
3.74816e-22
-1.60251e-15
6.58142e-13
-9.60831e-16
3.03226e-13
-6.04434e-19
5.43634e-16
1.81189e-19
1.79679e-16
1.3807e-19
1.51342e-16
-1.31927e-20
2.38271e-17
-4.56697e-20
7.264e-18
-7.6602e-20
6.40472e-18
-7.70283e-20
4.7553e-18
-4.84534e-20
2.65648e-18
2.32368e-21
1.13832e-18
1.73734e-20
-2.50882e-20
2.33326e-20
-1.36146e-19
2.08366e-20
-1.37396e-19
1.54199e-20
-9.43717e-20
1.04625e-20
-5.44435e-20
6.40624e-21
-2.88911e-20
3.5421e-21
-1.37029e-20
1.7771e-21
-5.70064e-21
8.22719e-22
-2.01689e-21
3.69024e-22
-5.66122e-22
1.67421e-22
-9.13187e-23
1.09055e-23
9.38109e-23
-1.64117e-15
2.82283e-13
-8.26174e-17
2.13993e-16
5.8783e-19
3.14229e-16
2.85195e-18
3.79736e-16
2.02791e-18
2.47666e-16
2.33273e-19
4.37736e-17
1.45655e-19
2.03361e-17
4.4844e-20
1.87891e-17
-6.49991e-20
1.52744e-17
-1.10725e-19
1.02427e-17
-8.0716e-20
5.33981e-18
-2.12338e-20
1.92672e-18
4.48084e-21
3.31424e-19
6.34739e-21
-4.42724e-20
5.01734e-21
-4.58133e-20
3.44654e-21
-2.72549e-20
2.06633e-21
-1.4284e-20
1.08947e-21
-6.51569e-21
5.08709e-22
-2.54963e-21
2.13691e-22
-8.28696e-22
8.58437e-23
-2.06194e-22
3.48794e-23
-2.59936e-23
4.61137e-24
2.00249e-23
-2.7962e-17
1.85379e-16
7.72089e-19
1.84674e-16
4.36858e-18
3.10157e-16
9.63014e-18
4.4871e-16
5.50102e-18
2.95585e-16
1.17307e-18
7.4685e-17
1.01302e-18
4.35956e-17
8.3285e-19
4.01671e-17
4.75687e-19
3.2913e-17
1.53749e-19
2.30725e-17
-1.30436e-20
1.26559e-17
-2.61178e-20
4.82467e-18
-1.90665e-21
9.94267e-19
1.20073e-21
3.84824e-20
1.23341e-21
-1.74212e-20
9.05319e-22
-1.22718e-20
5.46158e-22
-6.49543e-21
2.78585e-22
-2.87878e-21
1.21843e-22
-1.06672e-21
4.6736e-23
-3.20353e-22
1.71602e-23
-7.14374e-23
6.39134e-24
-6.9691e-24
1.77895e-24
3.36719e-24
1.08602e-18
1.83739e-16
2.34623e-18
1.83528e-16
9.2264e-18
3.81035e-16
1.69725e-17
4.62799e-16
9.56817e-18
2.94525e-16
3.46781e-18
1.05567e-16
3.15009e-18
7.41758e-17
2.83498e-18
6.83102e-17
1.97076e-18
5.56542e-17
1.0815e-18
3.94981e-17
3.87706e-19
2.21136e-17
6.5601e-20
8.19134e-18
1.95364e-21
1.43905e-18
3.60884e-23
6.28243e-20
1.52893e-22
-3.45342e-21
1.4996e-22
-4.96943e-21
9.96005e-23
-2.74958e-21
5.10891e-23
-1.19408e-21
2.11821e-23
-4.20801e-22
7.3645e-24
-1.17573e-22
2.33183e-24
-2.38085e-23
6.96502e-25
-1.68396e-24
6.22955e-25
2.30962e-25
1.98699e-18
1.81867e-16
4.48277e-18
1.81149e-16
1.72922e-17
3.76961e-16
2.35495e-17
4.0545e-16
1.30599e-17
2.55601e-16
6.98048e-18
1.11874e-16
6.73541e-18
9.76963e-17
6.28877e-18
9.27979e-17
4.56209e-18
7.77777e-17
2.74466e-18
5.58211e-17
1.15145e-18
3.13014e-17
2.38722e-19
1.08259e-17
1.3858e-20
1.55384e-18
2.13038e-21
6.42294e-20
-5.02908e-24
-2.22368e-22
-2.27569e-23
-1.8577e-21
-2.95639e-24
-1.09711e-21
1.05486e-24
-4.69627e-22
5.35747e-25
-1.57712e-22
4.10101e-26
-4.10806e-23
-2.86932e-25
-7.53265e-24
-2.73825e-25
-3.45633e-25
1.93305e-25
-1.95798e-25
3.58204e-18
2.11024e-16
6.00366e-18
1.45472e-16
1.7027e-17
2.39376e-16
1.8188e-17
1.92514e-16
1.35442e-17
1.45432e-16
1.03258e-17
1.09292e-16
1.02197e-17
1.01962e-16
9.87539e-18
1.00348e-16
7.82801e-18
8.99533e-17
4.85261e-18
6.6762e-17
2.05389e-18
3.68447e-17
3.99509e-19
1.17559e-17
2.09943e-20
1.57896e-18
1.55944e-22
4.92265e-20
5.81917e-24
9.27906e-23
-3.8142e-23
-6.59087e-22
-2.39927e-23
-4.18485e-22
-1.11266e-23
-1.76849e-22
-4.57082e-24
-5.65206e-23
-1.7685e-24
-1.36873e-23
-6.58947e-25
-2.25481e-24
-2.56989e-25
-5.38723e-26
5.21607e-26
-1.15856e-25
9.19505e-18
4.58926e-16
6.22098e-18
1.37299e-16
1.02601e-17
1.27375e-16
1.11739e-17
1.91413e-16
1.26321e-17
1.09313e-16
1.28444e-17
1.04978e-16
1.27537e-17
1.02218e-16
1.23881e-17
1.01948e-16
1.06015e-17
9.24163e-17
6.71e-18
6.99872e-17
2.74802e-18
3.81156e-17
4.99234e-19
1.1962e-17
2.23044e-20
1.35642e-18
9.68362e-23
2.4855e-20
6.89326e-24
5.88543e-23
-2.12645e-23
-2.2954e-22
-1.52599e-23
-1.54904e-22
-7.30939e-24
-6.4295e-23
-2.87025e-24
-1.94454e-23
-9.89693e-25
-4.3374e-24
-3.10818e-25
-6.31437e-25
-1.00549e-25
-3.7057e-27
1.20916e-26
-3.85593e-26
2.74932e-17
7.28458e-16
8.21678e-18
1.56284e-16
1.15164e-17
1.23888e-16
1.4103e-17
1.88632e-16
1.53405e-17
1.07909e-16
1.5471e-17
1.04681e-16
1.58947e-17
1.08807e-16
1.45488e-17
1.03284e-16
1.23277e-17
9.35918e-17
7.93255e-18
7.10458e-17
3.19871e-18
3.86721e-17
5.28667e-19
1.11466e-17
1.55079e-20
9.05547e-19
3.21718e-23
8.9876e-21
2.59567e-24
8.08043e-24
-9.54148e-24
-8.10356e-23
-7.20649e-24
-5.64413e-23
-3.38551e-24
-2.27233e-23
-1.24275e-24
-6.42984e-24
-3.84288e-25
-1.30064e-24
-1.03957e-25
-1.64136e-25
-2.86066e-26
2.334e-28
2.36133e-27
-9.53249e-27
1.1498e-16
6.85846e-16
2.22361e-15
2.80195e-14
5.72588e-17
2.28994e-15
9.89666e-14
1.55374e-12
4.85895e-17
9.90258e-14
1.8011e-17
1.35093e-16
1.76996e-17
1.05891e-16
1.58366e-17
9.82575e-17
1.38045e-17
9.23678e-17
8.77668e-18
7.06425e-17
3.2939e-18
3.62447e-17
4.21435e-19
8.50031e-18
7.03863e-21
4.44935e-19
6.63318e-24
2.29609e-21
4.52612e-25
6.97826e-25
-3.96181e-24
-2.9465e-23
-2.9936e-24
-2.04464e-23
-1.33876e-24
-7.84123e-24
-4.49728e-25
-2.04275e-24
-1.22487e-25
-3.67354e-25
-2.80331e-26
-3.929e-26
-6.43264e-27
9.71915e-29
3.80037e-28
-1.83978e-27
1.38142e-16
6.20619e-16
8.6219e-14
3.58201e-14
3.45476e-13
1.58226e-12
2.52594e-13
1.64893e-12
1.09608e-13
1.53855e-12
3.07e-17
3.06993e-13
3.11608e-18
1.28422e-16
1.45695e-17
8.17411e-17
1.45391e-17
8.70212e-17
8.9156e-18
6.5876e-17
2.80155e-18
2.96433e-17
2.36224e-19
5.0113e-18
2.00831e-21
1.48752e-19
8.27611e-25
3.5773e-22
5.58892e-26
4.91864e-26
-1.60067e-24
-1.11032e-23
-1.1584e-24
-7.40573e-24
-4.7912e-25
-2.64622e-24
-1.43762e-25
-6.22503e-25
-3.36285e-26
-9.7335e-26
-6.32194e-27
-8.6063e-27
-1.16634e-27
2.02722e-29
4.92957e-29
-2.78077e-28
1.72943e-16
5.21023e-16
9.49129e-14
5.64758e-15
3.92979e-13
1.28651e-12
3.91297e-13
1.65292e-12
3.41444e-13
1.59072e-12
0
3.5078e-13
1.39254e-18
1.52317e-16
1.44841e-17
8.18959e-17
1.4147e-17
8.05367e-17
7.86583e-18
5.59189e-17
1.85401e-18
2.0132e-17
8.7991e-20
2.14729e-18
3.25182e-22
3.01188e-20
5.18068e-26
2.80189e-23
4.35113e-27
3.03091e-26
-6.47731e-25
-4.3668e-24
-4.28915e-25
-2.68829e-24
-1.59309e-25
-8.7383e-25
-4.15932e-26
-1.81847e-25
-8.12269e-27
-2.41721e-26
-1.21209e-27
-1.72347e-27
-1.7134e-28
2.90977e-30
5.03696e-30
-3.24858e-29
6.05777e-16
7.81394e-16
5.9139e-15
1.2059e-15
2.97421e-13
1.15255e-13
4.28522e-13
1.52413e-12
1.29518e-13
5.88228e-13
0
6.93313e-14
1.61318e-18
1.42593e-16
1.45919e-17
8.35079e-17
1.27916e-17
7.239e-17
5.68427e-18
4.14111e-17
8.88521e-19
1.05827e-17
1.97655e-20
5.95261e-19
2.56728e-23
3.1305e-21
1.67057e-24
9.94072e-25
-2.39346e-26
-1.65282e-25
-2.6797e-25
-1.80485e-24
-1.54266e-25
-9.78089e-25
-5.00486e-26
-2.82761e-25
-1.10765e-26
-5.1059e-26
-1.75332e-27
-5.65107e-27
-2.00211e-28
-3.17483e-28
-2.04042e-29
3.04752e-31
4.00276e-31
-2.86799e-30
9.96829e-16
7.39906e-16
2.1768e-15
1.90921e-15
3.49793e-14
6.2511e-16
1.62079e-13
0
4.05381e-15
0
0
8.43908e-17
1.5638e-17
1.41258e-16
1.43581e-17
9.90765e-17
9.26991e-18