/*--------------------------------*- C++ -*----------------------------------*\
  =========                 |
  \\      /  F ield         | OpenFOAM: The Open Source CFD Toolbox
   \\    /   O peration     | Website:  https://openfoam.org
    \\  /    A nd           | Version:  9
     \\/     M anipulation  |
\*---------------------------------------------------------------------------*/
FoamFile
{
    format      ascii;
    class       volScalarField;
    location    "9.05";
    object      k;
}
// * * * * * * * * * * * * * * * * * * * * * * * * * * * * * * * * * * * * * //

dimensions      [0 2 -2 0 0 0 0];

internalField   nonuniform List<scalar> 
2268
(
9.02191e-05
0.000234105
0.00034638
0.000434589
0.000507188
0.00056809
0.000619424
0.000662477
0.00069845
0.0007286
0.000754438
0.000777399
0.000797861
0.00081382
0.000819298
0.000804467
0.000764978
0.000709596
0.00063235
0.000544798
0.000460092
0.00032382
0.000152004
0.000199382
0.000544156
0.00077575
0.000959818
0.00111199
0.00123968
0.00134722
0.00143767
0.00151368
0.00157778
0.00163235
0.00167911
0.00171778
0.00174442
0.00175049
0.0017241
0.00165729
0.00155431
0.00141152
0.0012465
0.00106817
0.000773486
0.000344291
0.000286664
0.000727739
0.00101226
0.00123829
0.00142575
0.0015833
0.00171609
0.00182799
0.00192232
0.00200209
0.00206992
0.00212743
0.00217401
0.00220532
0.00221278
0.00218528
0.00211589
0.00200696
0.00185661
0.00167286
0.00144904
0.00108828
0.000489052
0.000361375
0.000876229
0.00119608
0.00144856
0.00165812
0.00183434
0.00198291
0.00210821
0.00221405
0.00230376
0.00238004
0.00244441
0.00249608
0.00253074
0.00254034
0.00251497
0.00244847
0.00234271
0.00219702
0.00201237
0.00177133
0.00137906
0.000635179
0.000426731
0.00100826
0.0013574
0.00163021
0.00185621
0.00204605
0.00220598
0.00234084
0.00245491
0.00255179
0.00263423
0.0027037
0.00275937
0.00279712
0.00280959
0.0027881
0.00272711
0.00262854
0.00249289
0.00231685
0.00207565
0.00167112
0.000795668
0.000485874
0.00113026
0.00150628
0.00179668
0.00203622
0.00223688
0.00240555
0.00254764
0.00266789
0.00277021
0.00285743
0.00293099
0.00299011
0.00303097
0.00304697
0.00303057
0.00297693
0.00288805
0.00276569
0.0026046
0.00237684
0.00198049
0.000993919
0.000541182
0.00124548
0.00164748
0.00195431
0.00220582
0.00241553
0.00259113
0.00273875
0.00286371
0.00297023
0.00306127
0.00313825
0.00320048
0.00324453
0.00326456
0.00325411
0.00320938
0.00313205
0.00302502
0.00288329
0.00268135
0.00232182
0.00128738
0.000594544
0.00135582
0.00178385
0.00210685
0.0023695
0.002587
0.0027681
0.00291985
0.00304831
0.00315807
0.00325215
0.00333204
0.00339714
0.00344444
0.00346889
0.00346499
0.00343012
0.00336599
0.00327558
0.00315582
0.00298874
0.00270398
0.00184591
0.000227629
0.000480899
0.000665047
0.000739108
0.000774552
0.000791494
0.000788234
0.000776747
0.000746992
0.000704919
0.000643306
0.000558483
0.000514735
0.000512448
0.000475805
0.000405927
0.000304604
0.000204422
0.000106148
0.000437019
0.00102169
0.00138039
0.00155759
0.00164415
0.00168415
0.00168884
0.00166404
0.00160641
0.00152686
0.00140499
0.00124771
0.00115666
0.00112696
0.00103697
0.00089064
0.0006842
0.000456579
0.000219087
0.000538515
0.00131512
0.00174867
0.00196755
0.00207737
0.00212753
0.00213502
0.00210481
0.0020371
0.00194125
0.00181034
0.00165362
0.00153906
0.00146312
0.00134236
0.00116438
0.000918978
0.000635486
0.000313311
0.000603316
0.00155224
0.00203086
0.00227024
0.00239016
0.0024439
0.00245132
0.00241735
0.0023441
0.00224173
0.00211007
0.00196005
0.00183173
0.00172191
0.00157794
0.00138223
0.00111849
0.000806774
0.000401203
0.000685069
0.00177901
0.00228843
0.00253323
0.00265378
0.00270633
0.00271166
0.00267468
0.00259839
0.0024938
0.00236444
0.00222002
0.00208206
0.00194799
0.0017854
0.00157787
0.00130411
0.000974986
0.000484745
0.000819541
0.00203261
0.00254419
0.00277867
0.0028922
0.00293989
0.00294174
0.00290232
0.0028248
0.00272036
0.00259439
0.00245352
0.00230778
0.00215589
0.00197842
0.00176087
0.00147986
0.00113658
0.00056601
0.00105893
0.00233658
0.00280527
0.00301487
0.0031156
0.00315586
0.00315334
0.00311206
0.00303482
0.00293206
0.00280965
0.00267056
0.0025181
0.00235221
0.00216232
0.00193471
0.00164458
0.00128675
0.000651606
0.00160919
0.00269355
0.00306993
0.00324448
0.00332879
0.00336008
0.00335275
0.00331011
0.00323452
0.00313474
0.00301556
0.00287685
0.00271844
0.00254079
0.00233907
0.00209983
0.0017992
0.00142276
0.000733793
0.000670646
0.00152267
0.00199313
0.0023419
0.00262112
0.00284912
0.00303671
0.00319281
0.00332495
0.00343841
0.00353626
0.0036198
0.00368871
0.00374069
0.00377208
0.00377914
0.00376104
0.0037194
0.00365657
0.00357211
0.00346058
0.0032932
0.002942
0.000773955
0.00174935
0.00228186
0.00266762
0.00296685
0.00320387
0.00339359
0.00354896
0.00368088
0.00379585
0.00389681
0.00398451
0.00405834
0.00411703
0.00415854
0.00418115
0.004185
0.00417226
0.0041435
0.00409926
0.00404173
0.00396745
0.00385049
0.000907142
0.00199599
0.00259529
0.0030197
0.00332986
0.00356545
0.00374701
0.00389304
0.00401951
0.00413385
0.0042381
0.00433167
0.00441288
0.00448012
0.00453282
0.00457158
0.00459775
0.0046103
0.00460739
0.00459067
0.00456656
0.00454502
0.00452575
0.00113878
0.00225218
0.00293562
0.00340671
0.00369559
0.00391756
0.00408328
0.00421258
0.00433136
0.00444658
0.00455847
0.00466411
0.00475887
0.00483885
0.00490495
0.00496228
0.00501347
0.00504533
0.00505413
0.00505099
0.00504439
0.00505189
0.00508975
0.00132909
0.0025653
0.00325149
0.00365779
0.00389667
0.00413644
0.00433975
0.00447634
0.00459688
0.00472276
0.00484853
0.00497052
0.00507876
0.00516323
0.00522755
0.00527971
0.00532887
0.0053709
0.00542946
0.00546652
0.00546513
0.00549111
0.00559033
0.00165556
0.00267152
0.00326128
0.00367504
0.00397806
0.00426057
0.00447735
0.00464704
0.00478964
0.00493072
0.00507338
0.00521532
0.0053453
0.00544474
0.00550395
0.00555593
0.00562484
0.00567203
0.00572952
0.00581181
0.00584162
0.00584668
0.00590895
0.00208025
0.00275361
0.00328286
0.00370481
0.00403786
0.00433178
0.00457025
0.0047598
0.0049301
0.00509386
0.00525295
0.00540587
0.00554196
0.00564836
0.00572249
0.00578768
0.00585862
0.00591368
0.00595905
0.00602545
0.00608417
0.00612098
0.00618288
0.00223878
0.00281535
0.00331418
0.00373285
0.00408638
0.0043887
0.00464372
0.00485977
0.00505326
0.00523467
0.00540736
0.00557009
0.00571181
0.00582566
0.00591591
0.00599192
0.00606126
0.00612245
0.0061757
0.00623757
0.00630028
0.00635048
0.00639761
0.00232148
0.00286661
0.00335347
0.00377172
0.00413294
0.00444648
0.00471808
0.00495465
0.00516733
0.00536489
0.00555143
0.00572635
0.00587989
0.00600408
0.00610508
0.00619102
0.00626599
0.00633183
0.00639167
0.00645283
0.00651394
0.00656758
0.00661165
0.00237045
0.0029079
0.00339256
0.00381341
0.00418163
0.00450574
0.0047919
0.0050464
0.00527691
0.00549008
0.00568988
0.00587607
0.00604123
0.00617879
0.00629392
0.00639347
0.00647904
0.00655211
0.0066171
0.00667898
0.00673876
0.00679331
0.00683846
0.00239393
0.00293908
0.00342929
0.00385612
0.00423249
0.0045673
0.00486693
0.00513745
0.00538456
0.00561268
0.00582491
0.00602145
0.00619791
0.00635012
0.00648124
0.00659616
0.00669512
0.00677855
0.00685092
0.00691702
0.00697876
0.00703497
0.00708213
0.00240419
0.00296441
0.00346552
0.00390094
0.00428639
0.00463195
0.00494435
0.00522943
0.00549175
0.00573401
0.00595816
0.00616527
0.00635347
0.00652054
0.00666783
0.00679814
0.00691149
0.00700778
0.00709092
0.0071655
0.0072335
0.00729434
0.00734527
0.00240732
0.00298754
0.00350324
0.00394906
0.00434431
0.00470068
0.00502531
0.00532377
0.0055998
0.00585514
0.00609142
0.00630999
0.00651059
0.00669254
0.00685596
0.00700177
0.00713024
0.00724128
0.00733809
0.00742466
0.00750263
0.00757161
0.00762932
0.00240174
0.00301074
0.00354381
0.00400119
0.00440697
0.00477436
0.00511091
0.00542187
0.00571049
0.00597829
0.00622709
0.00645833
0.00667245
0.00686937
0.00704897
0.00721114
0.00735586
0.0074834
0.00759632
0.0076976
0.00778853
0.00786874
0.00793634
0.00240341
0.00303615
0.00358738
0.00405774
0.00447489
0.00485364
0.00520208
0.00552512
0.00582592
0.00610638
0.00636844
0.00661351
0.00684226
0.0070549
0.00725127
0.00743092
0.00759349
0.00773945
0.00787069
0.00798922
0.00809591
0.00819034
0.00827082
0.00240812
0.00306403
0.00363472
0.00411922
0.00454857
0.00493909
0.00529955
0.00563481
0.0059482
0.00624213
0.00651858
0.00677885
0.00702366
0.00725327
0.00746757
0.00766611
0.00784847
0.00801496
0.00816679
0.00830516
0.0084305
0.00854222
0.00863866
0.00240181
0.00309513
0.00368677
0.00418625
0.00462848
0.00503129
0.0054041
0.00575221
0.00607921
0.00638785
0.00668008
0.00695715
0.00721977
0.0074682
0.00770231
0.00792172
0.00812605
0.00831538
0.00849027
0.00865124
0.00879823
0.00893038
0.00904598
0.00240022
0.00312937
0.00374367
0.00425923
0.00471508
0.00513084
0.0055167
0.00587867
0.00622064
0.00654549
0.00685516
0.0071509
0.00743339
0.00770288
0.00795923
0.00820208
0.00843102
0.00864586
0.00884661
0.00903319
0.00920504
0.009361
0.00949914
0.0024024
0.00316671
0.00380599
0.00433852
0.00480883
0.0052384
0.00563842
0.00601554
0.00637401
0.00671677
0.00704582
0.00736239
0.00766716
0.00796036
0.00824183
0.00851115
0.00876781
0.00901132
0.00924121
0.00945683
0.00965715
0.00984061
0.010005
0.00240548
0.00320793
0.00387384
0.00442438
0.00491014
0.00535468
0.00577021
0.00616402
0.0065407
0.00690333
0.00725396
0.00759385
0.00792369
0.00824367
0.00855357
0.00885288
0.00914092
0.00941685
0.00967974
0.00992842
0.0101613
0.0103765
0.0105714
0.00240903
0.00325311
0.00394725
0.00451699
0.00501941
0.00548027
0.0059129
0.00632516
0.00672202
0.00710675
0.00748149
0.00784757
0.00820567
0.00855595
0.00889811
0.00923151
0.00955519
0.00986798
0.0101684
0.0104549
0.0107252
0.0109769
0.0112071
0.00240832
0.00330247
0.00402621
0.00461648
0.00513695
0.0056157
0.00606719
0.00649989
0.00691918
0.00732856
0.00773031
0.00812585
0.00851589
0.00890053
0.00927939
0.00965162
0.010016
0.0103708
0.0107143
0.011044
0.0113573
0.0116511
0.0119221
0.00240279
0.00335607
0.00411068
0.00472295
0.00526302
0.00576137
0.00623367
0.00668905
0.00713331
0.00757023
0.00800232
0.00843108
0.00885727
0.00928098
0.00970167
0.0101183
0.0105291
0.0109323
0.011325
0.0117046
0.0120674
0.0124099
0.0127279
0.00240515
0.0034125
0.00420065
0.00483645
0.00539774
0.00591754
0.00641279
0.00689333
0.00736541
0.00783317
0.00829936
0.00876565
0.00923286
0.00970104
0.0101695
0.010637
0.0111013
0.0115599
0.0120095
0.0124464
0.0128665
0.0132651
0.0136374
0.00240636
0.00347268
0.00429594
0.00495684
0.00554109
0.00608434
0.00660484
0.00711325
0.00761635
0.00811865
0.00862321
0.00913193
0.00964573
0.0101646
0.0106878
0.0112136
0.0117395
0.0122621
0.0127774
0.0132806
0.0137668
0.0142301
0.014665
0.00240595
0.00353661
0.00439626
0.00508384
0.00569284
0.00626169
0.00680996
0.00734918
0.00788675
0.00842772
0.00897547
0.00953217
0.0100989
0.0106757
0.0112617
0.0118546
0.0124514
0.0130479
0.0136391
0.0142193
0.0147818
0.0153201
0.015827
0.00240509
0.00360355
0.00450111
0.00521691
0.00585252
0.00644922
0.00702798
0.00760123
0.00817711
0.00876121
0.00935745
0.00996837
0.0105953
0.0112382
0.011896
0.0125662
0.0132449
0.013927
0.0146063
0.0152755
0.0159266
0.0165514
0.0171413
0.00241135
0.00367235
0.00460975
0.00535522
0.00601937
0.00664627
0.00725838
0.00786913
0.00848745
0.00911964
0.00977022
0.0104422
0.0111372
0.0118555
0.0125956
0.0133547
0.014128
0.0149093
0.0156908
0.0164634
0.0172173
0.0179422
0.0186279
0.00240518
0.00374342
0.00472106
0.0054977
0.00619229
0.00685181
0.00750024
0.00815211
0.00881727
0.00950284
0.0102141
0.0109547
0.0117267
0.0125306
0.0133649
0.0142261
0.0151086
0.0160047
0.0169049
0.0177979
0.0186713
0.0195125
0.0203086
0.00240772
0.00381673
0.004834
0.00564296
0.00636983
0.00706439
0.00775219
0.00844891
0.00916543
0.00990989
0.0106885
0.0115057
0.0123644
0.0132652
0.0142067
0.015185
0.0161934
0.0172227
0.018261
0.0192943
0.0203073
0.0212838
0.0222081
0.00240951
0.00388885
0.00494668
0.00578908
0.00655004
0.00728208
0.00801227
0.00875755
0.00952999
0.0103389
0.0111917
0.0120939
0.0130493
0.0140592
0.0151223
0.0162344
0.0173878
0.0185713
0.0197706
0.0209683
0.0221449
0.0232801
0.0243536
0.00240568
0.00395838
0.00505682
0.00593358
0.00673045
0.00750239
0.00827796
0.00907537
0.00990807
0.0107868
0.0117204
0.012716
0.0137784
0.0149101
0.0161102
0.0173743
0.0186941
0.0200564
0.0214439
0.0228349
0.0242049
0.0255275
0.0267765
0.00240561
0.00402408
0.00516097
0.0060733
0.00690808
0.00772237
0.00854611
0.00939888
0.0102957
0.011249
0.0122696
0.0133663
0.0145458
0.0158119
0.0171649
0.0186009
0.0201109
0.0216802
0.0232884
0.0249086
0.0265094
0.0280559
0.0295135
0.00240684
0.00408151
0.00525508
0.00620445
0.00707951
0.00793866
0.00881305
0.00972377
0.0106876
0.0117193
0.0128318
0.0140363
0.0153419
0.0167544
0.0182763
0.0199046
0.0216311
0.02344
0.0253079
0.0272021
0.0290818
0.0309002
0.0326093
0.00241109
0.00412073
0.00533289
0.00632242
0.00724107
0.00814772
0.00907473
0.0100449
0.0110775
0.0121896
0.0133971
0.0147142
0.0161529
0.0177223
0.0194276
0.0212689
0.0232397
0.0253254
0.0275003
0.0297259
0.031949
0.034104
0.0361216
0.00240992
0.00413737
0.00538803
0.00642278
0.00738943
0.00834622
0.00932682
0.0103565
0.0114574
0.0126498
0.0139529
0.0153846
0.0169605
0.018694
0.0205947
0.0226678
0.0249116
0.0273156
0.0298556
0.0324883
0.0351444
0.037728
0.0401317
0.00240633
0.00412199
0.00541419
0.00650237
0.00752251
0.00853143
0.00956499
0.010652
0.0118182
0.0130879
0.014484
0.0160283
0.0177412
0.0196413
0.0217447
0.0240643
0.026608
0.0293757
0.0323528
0.0354973
0.0387196
0.0418695
0.0447659
0.00240942
0.00406029
0.00540641
0.00656066
0.00764036
0.00870161
0.00978482
0.010924
0.0121497
0.0134902
0.0149725
0.016623
0.0184669
0.0205295
0.0228351
0.0254085
0.0282735
0.0314526
0.0349579
0.0387669
0.0427678
0.0467053
0.0502372
0.00241212
0.00394616
0.0053632
0.00660073
0.00774512
0.00885552
0.00998138
0.0111643
0.0124401
0.0138414
0.0153992
0.0171439
0.0191062
0.0213184
0.0238152
0.026637
0.0298335
0.0334687
0.0376173
0.0423206
0.0474591
0.0525712
0.0569108
0.00360767
0.00390645
0.00528856
0.00662624
0.00783857
0.0089903
0.0101478
0.0113628
0.0126767
0.0141257
0.015744
0.0175656
0.0196262
0.0219649
0.0246278
0.0276746
0.0311909
0.0353102
0.040229
0.0461518
0.0530388
0.0600866
0.0653718
0.017251
0.00533263
0.00520456
0.00663203
0.00791639
0.00909774
0.0102735
0.0115076
0.0128461
0.0143276
0.015988
0.0178643
0.0199955
0.022427
0.0252147
0.0284381
0.0322248
0.0368013
0.0425571
0.0500349
0.059612
0.0703906
0.0764318
0.0839841
0.0136607
0.00531559
0.00662034
0.00796549
0.00916156
0.0103435
0.0115855
0.0129357
0.0144333
0.0161155
0.0180201
0.0201885
0.0226692
0.0255248
0.0288477
0.0327979
0.0376821
0.0440894
0.0530471
0.0661525
0.0859645
0.0909603
0.00203271
0.00175932
0.00178013
0.00204316
0.00370656
0.003641
0.00362635
0.00366007
0.00450208
0.0044837
0.00446594
0.00445045
0.00511913
0.00511702
0.00509592
0.00505378
0.00570342
0.00570965
0.00562756
0.00553854
0.00598312
0.00603867
0.00598452
0.00589908
0.00625337
0.00626612
0.00622835
0.00616648
0.00643522
0.00643956
0.00641979
0.00638726
0.0066352
0.00664006
0.00663295
0.00661753
0.00685956
0.00686614
0.00686578
0.00685957
0.00710472
0.00711357
0.00711706
0.00711571
0.00737146
0.00738336
0.00739025
0.00739243
0.00766065
0.00767635
0.00768727
0.00769336
0.00797455
0.00799479
0.0080104
0.00802114
0.00831793
0.00834382
0.00836504
0.00838134
0.00869681
0.00872963
0.00875763
0.00878054
0.00911743
0.00915854
0.0091946
0.00922535
0.00958629
0.0096372
0.00968278
0.00972274
0.0101106
0.0101729
0.0102297
0.0102804
0.0106983
0.0107741
0.0108438
0.0109071
0.0113588
0.01145
0.0115348
0.0116126
0.0121024
0.0122116
0.0123137
0.0124084
0.0129413
0.0130711
0.0131932
0.0133073
0.0138888
0.0140423
0.0141874
0.0143236
0.0149601
0.0151408
0.0153122
0.0154738
0.0161722
0.0163841
0.0165855
0.016776
0.017544
0.0177915
0.0180272
0.0182504
0.0190964
0.0193846
0.0196593
0.0199198
0.0208527
0.0211875
0.0215067
0.0218094
0.0228391
0.0232272
0.0235971
0.0239476
0.0250851
0.0255346
0.0259623
0.026367
0.0276249
0.0281451
0.028639
0.0291053
0.0304988
0.0311012
0.0316713
0.0322075
0.0337567
0.0344552
0.035113
0.0357284
0.0374627
0.0382741
0.039033
0.0397377
0.0417055
0.0426492
0.043523
0.0443259
0.0466169
0.0477117
0.0487109
0.0496154
0.0524035
0.0536583
0.0547795
0.0557735
0.0593899
0.0607797
0.0619839
0.063021
0.0680409
0.0694621
0.0706391
0.0716135
0.0788911
0.0800957
0.0810291
0.0817618
0.092277
0.092826
0.0932065
0.0934834
0.00283288
0.00325277
0.00347153
0.00358915
0.00364685
0.00366408
0.00364965
0.003606
0.0035356
0.00344256
0.00332753
0.00318774
0.00302094
0.00282697
0.00260485
0.00234354
0.002024
0.00160866
0.000815281
0.00375906
0.00388546
0.00397453
0.00402836
0.00405271
0.00405247
0.00403031
0.00398705
0.00392359
0.00383935
0.00372828
0.00358424
0.00340519
0.00318953
0.00293602
0.0026376
0.00227732
0.00179895
0.000873684
0.00442997
0.00442882
0.00443703
0.00444219
0.00443888
0.00442394
0.00439518
0.00435145
0.00429275
0.00421653
0.00410856
0.0039579
0.00376539
0.00352997
0.00324742
0.00291341
0.002509
0.00197114
0.000953308
0.00497606
0.00491074
0.00486657
0.00483357
0.0048065
0.0047777
0.00474113
0.00469402
0.00463659
0.00456622
0.00446008
0.00430162
0.0041
0.00384976
0.00354175
0.0031761
0.00273094
0.00214803
0.00124737
0.0054124
0.00531284
0.00525034
0.00519791
0.00515507
0.00511515
0.00506805
0.00501042
0.00494114
0.00485654
0.00474172
0.00459741
0.00441424
0.00412902
0.00380245
0.00341133
0.00293495
0.00229475
0.00113563
0.00578097
0.0056578
0.00558027
0.0055183
0.00547153
0.00542527
0.00536349
0.00528772
0.00520342
0.00511059
0.00499136
0.00485471
0.00467216
0.00438634
0.00406234
0.00365958
0.0031603
0.00248591
0.00140494
0.00607098
0.0059653
0.00588984
0.00581803
0.00575652
0.00569647
0.00561682
0.00552334
0.00542543
0.00532428
0.00521672
0.00511519
0.00493604
0.00458364
0.00422305
0.00382204
0.00334051
0.00272499
0.0019439
0.00632831
0.00624349
0.00616783
0.0060935
0.00602248
0.00594676
0.0058536
0.00574687
0.00563327
0.00551472
0.0053876
0.00524371
0.00501765
0.00467332
0.00429316
0.0038815
0.003404
0.00279594
0.00194903
0.00658397
0.00651736
0.006443
0.00636582
0.0062878
0.00619832
0.00609155
0.00596983
0.00583864
0.00569657
0.00553537
0.00533516
0.00506287
0.00472245
0.00433402
0.00390249
0.00340659
0.00278493
0.00194909
0.00684132
0.00679124
0.00672161
0.00664404
0.00656013
0.00645866
0.00633667
0.00619802
0.00604634
0.00587879
0.00568295
0.00543554
0.00511783
0.00475636
0.00435435
0.00389979
0.00337737
0.00273738
0.00194481
0.00710601
0.00706821
0.00700661
0.00693089
0.00684154
0.00672973
0.00659419
0.0064393
0.00626612
0.00607092
0.00584213
0.00555878
0.00520586
0.00480742
0.00437386
0.00389146
0.00334564
0.00269575
0.00194773
0.00738843
0.00735818
0.00730391
0.00722985
0.00713558
0.00701637
0.00687113
0.00670209
0.00650885
0.00628753
0.00602886
0.00571711
0.00533833
0.00490385
0.00443028
0.00391259
0.00334008
0.00267668
0.00194419
0.00769542
0.00767208
0.00762326
0.00755063
0.00745359
0.00732954
0.00717706
0.00699624
0.00678584
0.00654227
0.00625858
0.0059239
0.0055262
0.00506442
0.00455176
0.00399561
0.00339087
0.00269853
0.00194348
0.00803067
0.00801612
0.0079737
0.00790409
0.00780677
0.00767996
0.00752202
0.00733185
0.0071077
0.00684634
0.00654256
0.00618899
0.00577659
0.00529774
0.00475579
0.00416392
0.0035208
0.00277357
0.00194257
0.00839985
0.0083964
0.00836273
0.00829873
0.00820376
0.0080764
0.007915
0.00771796
0.00748332
0.00720821
0.00688861
0.00651924
0.00609357
0.00560357
0.00504541
0.00442624
0.00373686
0.00290247
0.00191857
0.00880974
0.00881977
0.00879737
0.00874168
0.00865178
0.00852632
0.00836371
0.00816225
0.00791992
0.00763421
0.00730192
0.00691901
0.00648056
0.00598009
0.00541125
0.00476999
0.0040319
0.00310297
0.001918
0.00926719
0.00929328
0.00928472
0.00924002
0.00915786
0.0090368
0.00887527
0.00867154
0.00842368
0.00812945
0.00778621
0.00739075
0.00693906
0.0064257
0.00584295
0.00517718
0.00438987
0.00336419
0.00194931
0.00977944
0.00982448
0.00983249
0.00980145
0.00972961
0.00961533
0.00945695
0.00925269
0.00900069
0.0086989
0.00834499
0.00793621
0.00746897
0.00693798
0.00633412
0.00563814
0.00480069
0.00367605
0.00195046
0.0103545
0.0104217
0.0104493
0.0104346
0.0103756
0.0102703
0.0101168
0.00991332
0.00965785
0.00934842
0.00898281
0.00855837
0.00807149
0.0075165
0.00688294
0.00614829
0.0052573
0.00404626
0.00195153
0.0110015
0.0110945
0.0111448
0.0111494
0.0111057
0.0110114
0.0108643
0.0106624
0.0104035
0.0100855
0.00970609
0.00926246
0.00875065
0.00816431
0.00749164
0.00670776
0.00575303
0.00444888
0.00207792
0.0117306
0.0118535
0.0119301
0.011957
0.0119312
0.0118498
0.0117103
0.0115104
0.0112476
0.0109196
0.0105236
0.0100564
0.00951367
0.00888808
0.00816651
0.007322
0.00629038
0.00487687
0.00227245
0.0125535
0.0127109
0.0128178
0.0128702
0.0128648
0.0127982
0.0126674
0.0124698
0.0122024
0.0118623
0.0114465
0.0109511
0.0103709
0.00969781
0.00891734
0.00800078
0.00687982
0.0053451
0.0024874
0.0134836
0.0136804
0.0138218
0.0139033
0.0139209
0.013871
0.0137501
0.0135548
0.0132819
0.0129277
0.0124885
0.0119597
0.0113353
0.0106063
0.00975726
0.00875683
0.00753172
0.00585576
0.00273073
0.0145358
0.0147775
0.014958
0.0150723
0.0151159
0.0150847
0.0149747
0.0147819
0.0145024
0.0141319
0.0136657
0.0130985
0.0124232
0.0116299
0.0107013
0.00960378
0.00825855
0.00641991
0.00299305
0.0157268
0.0160195
0.016244
0.0163951
0.0164677
0.0164573
0.0163594
0.0161694
0.0158825
0.0154936
0.0149972
0.0143866
0.0136535
0.0127864
0.0117664
0.0105572
0.00907356
0.00704746
0.00327593
0.0170753
0.0174255
0.0176995
0.0178915
0.0179963
0.018009
0.0179245
0.0177377
0.017443
0.0170343
0.0165045
0.0158456
0.0150476
0.014097
0.0129729
0.0116356
0.00999213
0.00774879
0.00357778
0.0186022
0.019017
0.0193461
0.0195835
0.0197238
0.0197619
0.0196925
0.0195098
0.0192074
0.0187777
0.0182121
0.0175005
0.0166307
0.015587
0.0143452
0.0128616
0.011034
0.00853905
0.00390391
0.0203309
0.020818
0.0212081
0.0214953
0.0216745
0.0217406
0.0216882
0.0215109
0.0212014
0.0207505
0.0201475
0.0193799
0.0184324
0.0172861
0.0159129
0.0142637
0.0122258
0.00944232
0.00427763
0.0222874
0.0228548
0.0233121
0.0236537
0.0238752
0.0239719
0.0239386
0.0237687
0.0234535
0.0229823
0.0223419
0.0215164
0.0204869
0.0192296
0.0177116
0.0158768
0.0136007
0.0104894
0.00472631
0.0245009
0.0251575
0.0256881
0.0260885
0.0263554
0.0264852
0.0264734
0.0263132
0.025995
0.025506
0.0248302
0.0239474
0.0228337
0.0214592
0.0197839
0.0177433
0.0151984
0.0117141
0.00526819
0.027005
0.0277599
0.0283699
0.0288328
0.0291476
0.0293128
0.0293249
0.0291774
0.0288599
0.0283577
0.027651
0.0267147
0.0255181
0.0240232
0.0221803
0.0199133
0.0170652
0.0131518
0.0059089
0.0298385
0.0307011
0.0313958
0.0319238
0.032288
0.0324899
0.032528
0.0323968
0.0320854
0.0315767
0.0308469
0.029865
0.0285918
0.0269782
0.0249612
0.022448
0.0192576
0.0148457
0.00665855
0.0330474
0.0340266
0.0348095
0.0354034
0.0358166
0.0360552
0.036121
0.03601
0.035711
0.035205
0.0344641
0.03345
0.032113
0.03039
0.028199
0.0254234
0.0218486
0.0168549
0.00754296
0.0366872
0.0377902
0.038662
0.0393193
0.0397783
0.0400516
0.0401454
0.0400581
0.0397792
0.0392878
0.0385518
0.0375253
0.0361465
0.0343341
0.0319806
0.028935
0.0249343
0.0192608
0.00859866
0.040827
0.0420566
0.0430127
0.0437256
0.044223
0.044526
0.0446464
0.0445858
0.044335
0.0438723
0.0431617
0.04215
0.0407623
0.0388957
0.0364096
0.0331036
0.0286431
0.0221767
0.00987471
0.0455534
0.0469039
0.0479308
0.0486842
0.0492071
0.0495307
0.0496734
0.049641
0.0494262
0.0490075
0.0483466
0.0473843
0.0460331
0.0441673
0.0416056
0.0380804
0.0331492
0.0257654
0.0114369
0.0509777
0.0524263
0.0534963
0.054265
0.0547932
0.0551235
0.0552812
0.0552762
0.0551039
0.0547442
0.0541591
0.0532863
0.0520297
0.0502428
0.0477008
0.0440507
0.0386921
0.0302759
0.0134081
0.0572403
0.0587343
0.0597995
0.0605453
0.061051
0.0613693
0.0615309
0.0615495
0.0614233
0.0611355
0.0606508
0.0599093
0.0588136
0.0572057
0.054825
0.0512263
0.045595
0.0361021
0.0160098
0.0645105
0.0659512
0.0669377
0.067609
0.0680575
0.068341
0.0684925
0.0685275
0.068447
0.0682383
0.0678727
0.0672987
0.0664287
0.0651115
0.0630769
0.0598126
0.0542657
0.0438744
0.019608
0.0729652
0.0741987
0.0750086
0.0755446
0.0758977
0.076122
0.0762475
0.0762886
0.0762481
0.076118
0.0758787
0.0754931
0.0748958
0.0739672
0.072475
0.0699244
0.0651242
0.0546032
0.0249132
0.0827352
0.0835717
0.0841008
0.0844431
0.0846668
0.0848101
0.0848939
0.0849285
0.0849167
0.084855
0.0847334
0.0845324
0.0842169
0.08372
0.0829026
0.0814292
0.0783154
0.0696977
0.0334264
0.0938317
0.0941154
0.0942902
0.0944021
0.0944752
0.0945228
0.094552
0.0945665
0.0945674
0.0945544
0.0945253
0.094476
0.0943994
0.0942825
0.0940988
0.0937751
0.0930058
0.089675
0.0470013
)
;

boundaryField
{
    leftWall
    {
        type            kqRWallFunction;
        value           nonuniform List<scalar> 
50
(
9.02191e-05
0.000199382
0.000286664
0.000361375
0.000426731
0.000485874
0.000541182
0.000594544
0.000670646
0.000773955
0.000907142
0.00113878
0.00132909
0.00165556
0.00208025
0.00223878
0.00232148
0.00237045
0.00239393
0.00240419
0.00240732
0.00240174
0.00240341
0.00240812
0.00240181
0.00240022
0.0024024
0.00240548
0.00240903
0.00240832
0.00240279
0.00240515
0.00240636
0.00240595
0.00240509
0.00241135
0.00240518
0.00240772
0.00240951
0.00240568
0.00240561
0.00240684
0.00241109
0.00240992
0.00240633
0.00240942
0.00241212
0.00360767
0.017251
0.0839841
)
;
    }
    rightWall
    {
        type            kqRWallFunction;
        value           nonuniform List<scalar> 
50
(
0.000106148
0.000219087
0.000313311
0.000401203
0.000484745
0.00056601
0.000651606
0.000733793
0.000815281
0.000873684
0.000953308
0.00124737
0.00113563
0.00140494
0.0019439
0.00194903
0.00194909
0.00194481
0.00194773
0.00194419
0.00194348
0.00194257
0.00191857
0.001918
0.00194931
0.00195046
0.00195153
0.00207792
0.00227245
0.0024874
0.00273073
0.00299305
0.00327593
0.00357778
0.00390391
0.00427763
0.00472631
0.00526819
0.0059089
0.00665855
0.00754296
0.00859866
0.00987471
0.0114369
0.0134081
0.0160098
0.019608
0.0249132
0.0334264
0.0470013
)
;
    }
    lowerWall
    {
        type            kqRWallFunction;
        value           nonuniform List<scalar> 
62
(
9.02191e-05
0.000234105
0.00034638
0.000434589
0.000507188
0.00056809
0.000619424
0.000662477
0.00069845
0.0007286
0.000754438
0.000777399
0.000797861
0.00081382
0.000819298
0.000804467
0.000764978
0.000709596
0.00063235
0.000544798
0.000460092
0.00032382
0.000152004
0.000152004
0.000344291
0.000489052
0.000635179
0.000795668
0.000993919
0.00128738
0.00184591
0.00203271
0.00175932
0.00178013
0.00204316
0.000227629
0.000437019
0.000538515
0.000603316
0.000685069
0.000819541
0.00105893
0.00160919
0.000227629
0.000480899
0.000665047
0.000739108
0.000774552
0.000791494
0.000788234
0.000776747
0.000746992
0.000704919
0.000643306
0.000558483
0.000514735
0.000512448
0.000475805
0.000405927
0.000304604
0.000204422
0.000106148
)
;
    }
    atmosphere
    {
        type            inletOutlet;
        inletValue      uniform 0.1;
        value           nonuniform List<scalar> 
46
(
0.1
0.0136607
0.00531559
0.00662034
0.00796549
0.00916156
0.0103435
0.0115855
0.0129357
0.0144333
0.0161155
0.0180201
0.0201885
0.0226692
0.0255248
0.0288477
0.0327979
0.0376821
0.0440894
0.0530471
0.0661525
0.1
0.1
0.1
0.1
0.1
0.1
0.1
0.1
0.1
0.1
0.1
0.1
0.1
0.1
0.1
0.1
0.1
0.1
0.1
0.1
0.1
0.1
0.1
0.1
0.0470013
)
;
    }
    defaultFaces
    {
        type            empty;
    }
}


// ************************************************************************* //
