/*--------------------------------*- C++ -*----------------------------------*\
  =========                 |
  \\      /  F ield         | OpenFOAM: The Open Source CFD Toolbox
   \\    /   O peration     | Website:  https://openfoam.org
    \\  /    A nd           | Version:  9
     \\/     M anipulation  |
\*---------------------------------------------------------------------------*/
FoamFile
{
    format      ascii;
    class       volScalarField;
    location    "9.05";
    object      nut;
}
// * * * * * * * * * * * * * * * * * * * * * * * * * * * * * * * * * * * * * //

dimensions      [0 2 -1 0 0 0 0];

internalField   nonuniform List<scalar> 
2268
(
8.68609e-06
1.03023e-05
1.25315e-05
1.40364e-05
1.5163e-05
1.60469e-05
1.67556e-05
1.73277e-05
1.77916e-05
1.81712e-05
1.84904e-05
1.87694e-05
1.9014e-05
1.92025e-05
1.92675e-05
1.90928e-05
1.86163e-05
1.79305e-05
1.69266e-05
1.57163e-05
1.44439e-05
1.21204e-05
8.30264e-06
2.01173e-05
8.45388e-05
0.000115063
0.000134371
0.000148292
0.000158915
0.000167213
0.000173773
0.000179011
0.000183237
0.000186685
0.000189504
0.000191684
0.000192977
0.000192857
0.000190456
0.000183946
0.000173629
0.000159872
0.000146723
0.000135014
9.98281e-05
2.64395e-05
2.4121e-05
0.000143872
0.000214427
0.000260347
0.000293559
0.000318872
0.000338621
0.000354189
0.000366544
0.00037642
0.000384376
0.000390788
0.000395701
0.000398616
0.000398356
0.000392905
0.000379376
0.000358793
0.00033231
0.000301793
0.0002608
0.000172324
3.1513e-05
2.70819e-05
0.000185627
0.000292999
0.000365648
0.000418987
0.000459931
0.000492018
0.000517388
0.00053756
0.000553666
0.00056657
0.000576857
0.000584627
0.000589184
0.000588852
0.000580814
0.000561681
0.000532673
0.000494807
0.000445066
0.000369147
0.000229484
3.59141e-05
2.94289e-05
0.00021711
0.000356325
0.000453839
0.000526609
0.000582958
0.000627372
0.000662644
0.000690789
0.000713295
0.000731282
0.000745495
0.000756074
0.000762195
0.000761886
0.000751916
0.00072859
0.00069273
0.000644308
0.000575453
0.000465429
0.000278892
4.01954e-05
3.14019e-05
0.000242211
0.000408773
0.000528943
0.000620003
0.000691124
0.000747503
0.000792487
0.000828506
0.000857378
0.000880425
0.000898507
0.000911797
0.000919409
0.000919249
0.000907973
0.000881709
0.000840403
0.000782532
0.000696258
0.000555651
0.000325428
4.49255e-05
3.31404e-05
0.000262985
0.000453243
0.000593997
0.000702125
0.000787244
0.000855072
0.000909427
0.000953112
0.000988202
0.00101621
0.00103806
0.00105398
0.00106306
0.00106322
0.00105121
0.00102316
0.000977815
0.00091222
0.000811788
0.000646587
0.000374751
5.11485e-05
3.47339e-05
0.000280636
0.00049174
0.000651285
0.000775307
0.000873597
0.00095228
0.00101559
0.00106665
0.00110778
0.0011406
0.00116615
0.00118464
0.00119524
0.00119598
0.00118377
0.00115488
0.00110704
0.00103609
0.000926382
0.000746689
0.000443026
6.12654e-05
1.01513e-05
1.47632e-05
1.7364e-05
1.83107e-05
1.87456e-05
1.89504e-05
1.89112e-05
1.87721e-05
1.84091e-05
1.78852e-05
1.70871e-05
1.59214e-05
1.52762e-05
1.5242e-05
1.46839e-05
1.35615e-05
1.1748e-05
9.62231e-06
9.73757e-06
3.30817e-05
0.000117725
0.000158064
0.000176882
0.000185333
0.000188671
0.000189158
0.000186888
0.000182048
0.000176436
0.000164265
0.000147455
0.000142677
0.000149839
0.000143959
0.000130376
0.000107233
7.2337e-05
2.34342e-05
3.67284e-05
0.00020683
0.000303547
0.000352008
0.000375259
0.000385011
0.000386939
0.000382513
0.00037228
0.000358636
0.000339039
0.000314013
0.000302856
0.000303862
0.000288166
0.000256189
0.000202487
0.000122228
2.80196e-05
3.88783e-05
0.000271177
0.000423088
0.000504852
0.000545758
0.000563781
0.000568359
0.000562775
0.000548136
0.00052816
0.000503779
0.000474807
0.000455657
0.000443637
0.000414688
0.000363825
0.000282159
0.000164223
3.17035e-05
4.14461e-05
0.000317935
0.000523717
0.000638691
0.000697581
0.000724453
0.000732389
0.000726569
0.000708848
0.000684284
0.00065608
0.000623668
0.000595706
0.000569169
0.000525705
0.00045712
0.000352149
0.000204243
3.48449e-05
4.53308e-05
0.000359794
0.000615277
0.000759803
0.000834846
0.000869984
0.000881372
0.000875903
0.000856197
0.000828257
0.000796534
0.000760079
0.000723093
0.000682472
0.000624531
0.000539466
0.000415159
0.000242348
3.76508e-05
5.1533e-05
0.000409733
0.000707094
0.000874003
0.000961566
0.00100344
0.00101781
0.00101288
0.000991898
0.000961336
0.000926123
0.000884956
0.000839074
0.000785383
0.000713565
0.00061296
0.000470639
0.000275142
4.0405e-05
6.35882e-05
0.000482578
0.000807401
0.000985858
0.00108103
0.00112747
0.00114393
0.00113932
0.00111741
0.00108466
0.00104587
0.000999512
0.000945074
0.000879459
0.000794549
0.000679195
0.000519652
0.000302319
4.28765e-05
3.68923e-05
0.000304877
0.000544965
0.000731583
0.000878893
0.000996681
0.00109159
0.00116843
0.00123079
0.00128126
0.00132159
0.0013528
0.00137522
0.00138816
0.00139
0.00137827
0.00134974
0.00130053
0.00122536
0.00111027
0.000932677
0.000668567
0.000329903
3.96277e-05
0.000330636
0.000604259
0.000823237
0.000997745
0.0011379
0.00125136
0.00134382
0.00141944
0.00148115
0.00153085
0.00156962
0.00159772
0.00161483
0.00161992
0.0016113
0.00158656
0.00154213
0.0014727
0.00136973
0.00122103
0.0010185
0.000775352
4.28988e-05
0.000351478
0.000658752
0.000908436
0.00110533
0.00126302
0.00139116
0.00149644
0.00158347
0.0016553
0.00171392
0.00176046
0.00179518
0.00181776
0.00182784
0.00182465
0.00180675
0.00177116
0.00171423
0.00163149
0.00151823
0.00137696
0.00122829
4.79833e-05
0.00036334
0.000713703
0.000994985
0.00120716
0.00137737
0.00151649
0.00163174
0.00172832
0.00180923
0.00187644
0.00193107
0.00197314
0.0020021
0.00201845
0.00202247
0.00201322
0.00198707
0.00194303
0.00188157
0.00180118
0.00170779
0.0016209
5.18284e-05
0.000411009
0.000788665
0.00107919
0.00130125
0.00148375
0.00163389
0.00175643
0.00186006
0.00194872
0.00202348
0.00208565
0.00213466
0.00216948
0.00219136
0.00220112
0.00219851
0.00218123
0.00215124
0.00210982
0.00205633
0.00199686
0.00194589
0.000245084
0.000458095
0.000823555
0.00111351
0.00135377
0.00155776
0.00172507
0.00186249
0.00197697
0.00207432
0.0021568
0.00222616
0.00228199
0.002323
0.00234934
0.00236381
0.0023679
0.00235891
0.00233935
0.00231582
0.00228392
0.00224641
0.00221337
0.000254884
0.000560591
0.000878609
0.00116192
0.00140822
0.00162138
0.00180138
0.00195185
0.00207878
0.00218656
0.00227796
0.00235499
0.00241744
0.00246438
0.00249674
0.00251685
0.00252662
0.00252591
0.00251557
0.00250246
0.0024871
0.0024675
0.0024498
0.000274252
0.0006021
0.000921195
0.00120753
0.00146013
0.00168044
0.00187004
0.00203168
0.00216964
0.00228747
0.00238794
0.00247294
0.00254235
0.00259582
0.00263469
0.00266102
0.00267683
0.00268381
0.0026833
0.00268007
0.00267583
0.00266904
0.00266187
0.000284372
0.000622822
0.000952413
0.00124705
0.00150724
0.00173532
0.00193357
0.00210466
0.00225207
0.00237903
0.00248808
0.0025809
0.00265754
0.00271791
0.00276359
0.00279675
0.00281943
0.00283384
0.00284217
0.00284749
0.00285133
0.0028533
0.00285397
0.000290371
0.000635817
0.000975776
0.00128016
0.00154909
0.00178544
0.00199202
0.00217173
0.00232772
0.00246292
0.00257976
0.00267977
0.00276335
0.00283085
0.00288382
0.00292436
0.00295445
0.00297623
0.00299211
0.00300435
0.00301423
0.00302193
0.00302751
0.000293263
0.000644057
0.000993407
0.00130795
0.00158625
0.00183122
0.00204603
0.00223389
0.00239784
0.00254053
0.00266439
0.00277102
0.00286121
0.0029357
0.00299596
0.00304383
0.00308113
0.00310983
0.00313216
0.00314997
0.00316436
0.00317569
0.00318378
0.000294537
0.000648842
0.00100699
0.00133185
0.00161977
0.00187344
0.00209635
0.00229194
0.00246329
0.00261296
0.00274323
0.00285594
0.0029523
0.00303334
0.00310038
0.00315501
0.00319886
0.00323371
0.0032615
0.00328381
0.0033016
0.00331518
0.00332428
0.000294937
0.000650082
0.00101763
0.00135308
0.00165065
0.00191292
0.00214368
0.00234659
0.00252476
0.00268079
0.00281702
0.00293535
0.0030373
0.00312417
0.00319722
0.00325779
0.00330735
0.00334746
0.00337982
0.00340578
0.00342614
0.00344117
0.00345055
0.000294281
0.00064352
0.00102567
0.00137261
0.0016797
0.00195033
0.00218861
0.00239835
0.00258277
0.00274455
0.00288614
0.00300959
0.00311657
0.00320846
0.00328659
0.00335221
0.0034066
0.00345113
0.00348729
0.00351623
0.00353862
0.00355468
0.00356413
0.000294496
0.000642472
0.00103401
0.00139123
0.00170748
0.00198615
0.00223158
0.00244766
0.00263774
0.00280468
0.00295105
0.00307897
0.00319026
0.00328641
0.00336877
0.00343855
0.00349692
0.00354516
0.00358451
0.00361594
0.00364004
0.00365704
0.00366672
0.000295082
0.000643415
0.00104225
0.00140917
0.00173435
0.00202076
0.0022729
0.00249482
0.00269002
0.00286156
0.00301209
0.00314386
0.00325877
0.00335841
0.00344419
0.00351734
0.00357899
0.0036303
0.00367234
0.00370595
0.00373166
0.00374971
0.00375997
0.000294341
0.000633096
0.00104938
0.00142669
0.00176057
0.00205442
0.00231282
0.00254007
0.00273986
0.00291544
0.00306956
0.00320456
0.00332246
0.00342493
0.00351346
0.00358931
0.00365364
0.00370751
0.00375188
0.0037875
0.00381487
0.00383425
0.00384556
0.000294168
0.000627322
0.0010567
0.00144405
0.00178641
0.00208731
0.00235152
0.0025836
0.00278748
0.00296655
0.00312368
0.00326136
0.00338167
0.00348643
0.00357716
0.00365522
0.00372176
0.00377783
0.00382432
0.00386193
0.00389113
0.00391219
0.00392508
0.0002945
0.000625663
0.00106399
0.00146139
0.00181199
0.00211956
0.00238914
0.00262558
0.00283304
0.00301506
0.00317469
0.00331451
0.00343676
0.00354334
0.00363587
0.00371577
0.00378424
0.00384233
0.0038909
0.00393061
0.00396193
0.00398512
0.00400016
0.000294936
0.000624487
0.00107162
0.00147886
0.00183739
0.00215125
0.00242579
0.00266612
0.00287666
0.00306114
0.00322277
0.0033643
0.00348808
0.00359613
0.00369018
0.00377172
0.00384201
0.00390211
0.00395286
0.00399494
0.00402878
0.00405463
0.00407245
0.000295397
0.000623376
0.00107955
0.00149644
0.00186266
0.00218246
0.00246154
0.00270532
0.00291846
0.00310494
0.00326816
0.00341102
0.00353602
0.00364531
0.00374074
0.00382387
0.00389602
0.00395828
0.0040115
0.00405635
0.00409323
0.00412235
0.00414365
0.000295344
0.000618738
0.00108758
0.00151416
0.0018878
0.0022132
0.00249643
0.00274323
0.00295856
0.00314665
0.00331109
0.00345499
0.00358101
0.00369144
0.00378823
0.00387305
0.00394727
0.00401201
0.00406815
0.0041163
0.00415685
0.00418995
0.00421548
0.000294711
0.000610845
0.00109583
0.00153201
0.00191284
0.00224349
0.0025305
0.00277994
0.00299708
0.00318643
0.00335183
0.00349659
0.00362354
0.00373512
0.00383342
0.00392018
0.00399683
0.00406453
0.00412414
0.00417626
0.00422122
0.00425908
0.00428967
0.000295031
0.000609283
0.0011045
0.00155003
0.00193776
0.00227333
0.00256376
0.00281549
0.00303413
0.00322449
0.00339068
0.00353622
0.00366414
0.00377703
0.00387711
0.0039662
0.00404579
0.00411706
0.00418086
0.00423772
0.00428791
0.0043314
0.00436791
0.000295219
0.000607194
0.0011136
0.00156821
0.00196254
0.00230271
0.0025962
0.00284992
0.00306983
0.00326104
0.00342795
0.00357432
0.00370337
0.00381787
0.00392013
0.00401208
0.00409526
0.00417083
0.00423962
0.00430209
0.00435842
0.00440847
0.0044518
0.000295213
0.000604296
0.00112302
0.00158646
0.0019871
0.00233154
0.00262781
0.00288327
0.00310427
0.00329629
0.00346397
0.00361134
0.00374181
0.00385832
0.00396331
0.00405878
0.0041463
0.00422701
0.00430169
0.00437074
0.00443418
0.00449174
0.00454285
0.00029495
0.000601846
0.00113261
0.00160464
0.00201128
0.00235971
0.00265852
0.00291556
0.00313759
0.00333043
0.00349905
0.0036477
0.00378001
0.00389907
0.00400744
0.00410718
0.00419988
0.00428666
0.00436823
0.00444486
0.00451644
0.00458253
0.00464237
0.000295906
0.000603735
0.00114245
0.00162262
0.00203489
0.00238703
0.0026882
0.00294673
0.00316984
0.00336366
0.00353349
0.00368381
0.00381847
0.00394071
0.00405319
0.00415804
0.00425685
0.00435071
0.00444021
0.00452549
0.00460629
0.00468195
0.00475151
6.96312e-05
0.000597481
0.00115221
0.00164012
0.00205765
0.00241325
0.00271665
0.0029767
0.00320102
0.0033961
0.00356751
0.00372
0.00385761
0.00398373
0.00410113
0.00421199
0.0043179
0.00441989
0.00451844
0.00461352
0.00470465
0.00479097
0.00487126
0.000295302
0.000599916
0.00116158
0.00165681
0.0020792
0.002438
0.00274359
0.00300528
0.00323107
0.00342779
0.00360127
0.0037565
0.00389771
0.00402846
0.00415163
0.00426945
0.00438351
0.00449475
0.00460353
0.00470961
0.00481228
0.00491039
0.00500245
0.000295557
0.000600616
0.00117082
0.00167237
0.00209902
0.00246078
0.0027686
0.00303218
0.00325984
0.00345869
0.0036348
0.00379338
0.0039389
0.00407506
0.00420488
0.00433065
0.00445394
0.00457564
0.00469592
0.00481432
0.00492982
0.00504094
0.00514589
6.96895e-05
0.000598037
0.00117938
0.00168606
0.00211627
0.00248082
0.00279105
0.00305696
0.00328705
0.00348863
0.00366799
0.0038306
0.00398112
0.00412347
0.00426082
0.00439555
0.00452925
0.0046627
0.00479588
0.00492805
0.00505783
0.00518334
0.00530236
6.97053e-05
0.000601765
0.00118652
0.00169649
0.00212961
0.00249696
0.0028101
0.00307902
0.00331229
0.00351732
0.00370063
0.00386791
0.00402412
0.00417341
0.00431917
0.00446391
0.00460923
0.00475584
0.0049035
0.00505112
0.00519686
0.00533834
0.00547281
0.000295339
0.000602897
0.00118896
0.00170136
0.00213702
0.00250764
0.00282459
0.00309758
0.00333501
0.00354435
0.00373231
0.00390491
0.00406742
0.00422436
0.00437936
0.00453515
0.0046934
0.00485473
0.00501868
0.00518373
0.00534751
0.00550689
0.00565845
0.000295875
0.000601557
0.00118533
0.00169766
0.00213567
0.00251064
0.00283302
0.00311167
0.00335458
0.00356921
0.00376254
0.00394101
0.00411036
0.00427552
0.00444054
0.00460838
0.00478089
0.00495867
0.00514104
0.00532606
0.00551056
0.00569041
0.00586112
0.000295733
0.000594518
0.00117114
0.00168036
0.0021212
0.00250296
0.00283356
0.00312024
0.00337032
0.00359133
0.00379072
0.00397551
0.00415205
0.00432587
0.00450149
0.00468228
0.00487037
0.0050665
0.00526997
0.00547841
0.00568756
0.00589153
0.00608405
0.000295272
0.000580878
0.0011377
0.00164037
0.002087
0.00248064
0.00282414
0.00312222
0.00338159
0.00361017
0.00381619
0.00400755
0.00419142
0.00437407
0.00456062
0.00475501
0.00495989
0.00517656
0.00540475
0.00564184
0.00588182
0.00611546
0.00633331
0.000295572
0.000546282
0.00106451
0.00156178
0.00202372
0.00243916
0.0028029
0.00311692
0.00338801
0.00362526
0.00383828
0.0040362
0.00422724
0.0044185
0.00461589
0.00482413
0.00504683
0.00528662
0.0055447
0.0058187
0.00609965
0.00637187
0.00661965
0.000296361
0.00044446
0.000913034
0.00142216
0.00192124
0.00237518
0.00276935
0.00310459
0.00338973
0.00363642
0.00385643
0.00406052
0.00425814
0.00445734
0.00466492
0.00488665
0.00512778
0.0053936
0.00568851
0.00601158
0.00634964
0.00667573
0.00695965
8.55742e-05
0.000241728
0.000651874
0.00120537
0.00177591
0.00229053
0.00272621
0.00308716
0.00338766
0.00364375
0.00387017
0.0040796
0.00428276
0.00448869
0.00470509
0.00493906
0.00519825
0.00549212
0.00583066
0.0062171
0.00663689
0.00704825
0.00737596
0.000187208
0.000115524
0.000348094
0.000933812
0.0016051
0.0021986
0.00268182
0.00306901
0.00338373
0.0036478
0.00387926
0.00409268
0.00429989
0.00451075
0.00473379
0.00497744
0.00525204
0.00557198
0.00595465
0.00641375
0.00695223
0.00753398
0.00790139
0.000413112
0.000137132
0.000162884
0.000701371
0.00146572
0.00213053
0.00265116
0.00305672
0.00338055
0.00364939
0.0038837
0.00409928
0.00430865
0.00452213
0.00474879
0.00499792
0.00528171
0.00561801
0.00603051
0.00655013
0.00724279
0.00827918
0.00858584
6.45955e-05
6.00951e-05
6.0424e-05
6.47053e-05
0.000598636
0.00056764
0.000565442
0.000593704
0.00114771
0.00112346
0.00112326
0.00114733
0.00158399
0.0015738
0.00157544
0.00158726
0.00193199
0.00192919
0.0019304
0.00193556
0.00220442
0.00220867
0.00221198
0.00221533
0.00244657
0.00244846
0.0024514
0.00245422
0.00266146
0.00266276
0.00266457
0.00266646
0.00285563
0.00285678
0.00285772
0.00285816
0.00303018
0.00303113
0.00303122
0.00303026
0.00318659
0.00318714
0.00318637
0.00318417
0.00332671
0.00332673
0.00332518
0.00332194
0.00345239
0.0034519
0.00344969
0.00344566
0.0035655
0.0035646
0.00356192
0.00355737
0.00366789
0.00366681
0.00366391
0.00365912
0.00376134
0.00376037
0.00375755
0.00375283
0.00384757
0.003847
0.00384458
0.00384025
0.0039282
0.00392836
0.00392667
0.00392306
0.00400488
0.0040061
0.00400547
0.00400294
0.00407929
0.00408191
0.00408269
0.00408158
0.00415315
0.00415753
0.00416009
0.00416077
0.00422822
0.00423473
0.00423944
0.00424228
0.00430626
0.00431528
0.00432252
0.0043279
0.00438897
0.00440092
0.00441108
0.00441938
0.00447799
0.00449326
0.00450675
0.00451834
0.00457482
0.00459382
0.00461102
0.00462628
0.00468079
0.00470392
0.00472521
0.00474452
0.00479703
0.0048247
0.00485047
0.00487417
0.00492455
0.00495715
0.00498776
0.00501621
0.00506418
0.00510212
0.00513794
0.00517148
0.00521674
0.00526041
0.00530181
0.00534075
0.00538306
0.00543287
0.00548021
0.00552484
0.00556414
0.00562052
0.00567414
0.00572474
0.00576127
0.00582468
0.00588492
0.00594172
0.00597643
0.00604732
0.00611447
0.00617758
0.00621289
0.00629166
0.00636582
0.00643511
0.0064765
0.0065632
0.00664399
0.00671872
0.00677715
0.00687092
0.00695679
0.00703499
0.00712937
0.00722748
0.0073148
0.00739239
0.00755091
0.00764704
0.0077288
0.00779875
0.0080606
0.00814095
0.00820474
0.00825642
0.00867221
0.00870943
0.00873593
0.00875583
0.000344358
0.000708116
0.000986687
0.00116083
0.00126011
0.00131047
0.00132868
0.00132406
0.00130126
0.00126529
0.00122042
0.00116527
0.00109792
0.0010152
0.000910848
0.000773244
0.000588157
0.00033844
4.52008e-05
0.000786862
0.00104976
0.00125927
0.00140211
0.00148901
0.00153426
0.00154919
0.00154138
0.00151538
0.0014743
0.001421
0.0013543
0.00127191
0.00117027
0.00104333
0.00087901
0.000662971
0.000375039
4.6795e-05
0.00123586
0.00139616
0.00153821
0.00164231
0.00170825
0.0017417
0.00174885
0.00173478
0.0017033
0.00165638
0.00159448
0.00151669
0.00142115
0.00130342
0.00115703
0.00097071
0.000729968
0.000410648
4.88649e-05
0.00162552
0.00171774
0.00180667
0.00187448
0.0019173
0.00193583
0.00193239
0.00190985
0.00187097
0.00181676
0.00174585
0.00165727
0.00154984
0.00141766
0.00125423
0.00104959
0.000789094
0.000443196
5.57686e-05
0.00195121
0.00200343
0.00205598
0.00209463
0.00211628
0.00211988
0.00210494
0.00207279
0.00202494
0.00196151
0.00188064
0.00178191
0.00166361
0.00151665
0.0013372
0.00111274
0.000822671
0.000441771
5.33244e-05
0.00222271
0.00225108
0.00227914
0.00229713
0.00230227
0.0022923
0.00226545
0.00222232
0.00216376
0.00208999
0.00199915
0.00189108
0.0017633
0.00160956
0.00142108
0.00118464
0.000877543
0.000470752
0.000250994
0.0024596
0.00247219
0.00248232
0.00248355
0.00247405
0.00245122
0.00241218
0.00235717
0.00228724
0.00220298
0.00210349
0.00198913
0.00185288
0.00168619
0.00148757
0.00124575
0.000945699
0.00058561
0.000294171
0.00266921
0.00267064
0.00266684
0.00265481
0.00263304
0.00259829
0.00254791
0.00248172
0.0024004
0.00230432
0.00219309
0.00206575
0.00191531
0.00173619
0.00152485
0.00127239
0.000959625
0.000561887
0.00029523
0.00285758
0.00285035
0.00283573
0.00281287
0.00278051
0.00273507
0.00267414
0.00259733
0.00250478
0.00239612
0.00227078
0.00212664
0.00195942
0.0017656
0.00153996
0.00127571
0.000954611
0.000556389
0.000295195
0.00302662
0.0030129
0.00299008
0.00295847
0.00291687
0.00286201
0.00279161
0.00270497
0.00260166
0.00248091
0.00234119
0.00217983
0.00199384
0.00178264
0.00154259
0.0012665
0.000941477
0.000554241
0.000294331
0.00317796
0.00315941
0.00313063
0.00309214
0.00304279
0.00297991
0.00290144
0.00280628
0.00269341
0.00256148
0.00240845
0.00223146
0.00202782
0.00179748
0.00153942
0.00124957
0.000921883
0.000553615
0.000294853
0.0033137
0.00329149
0.00325847
0.00321473
0.00315925
0.00308996
0.00300494
0.00290276
0.00278192
0.00264056
0.00247624
0.00228595
0.00206685
0.00181845
0.00154161
0.00123579
0.000901838
0.000540253
6.9507e-05
0.00343595
0.00341117
0.00337514
0.00332761
0.00326762
0.00319349
0.00310344
0.00299581
0.0028688
0.00272016
0.00254716
0.00234658
0.0021153
0.001852
0.00155781
0.00123507
0.000889846
0.000528874
6.94878e-05
0.00354673
0.00352037
0.0034824
0.00343238
0.00336935
0.00329186
0.00319824
0.00308675
0.00295539
0.00280173
0.00262284
0.00241539
0.00217595
0.00190226
0.00159429
0.00125547
0.000893738
0.000520814
0.000294088
0.00364807
0.00362099
0.00358205
0.00353069
0.00346593
0.00338644
0.00329065
0.00317679
0.0030428
0.0028862
0.00270401
0.00249285
0.00224916
0.00196993
0.00165352
0.00130128
0.000917162
0.000511402
0.000293003
0.0037419
0.0037149
0.0036759
0.00362423
0.0035589
0.00347864
0.00338194
0.00326706
0.00313193
0.00297409
0.00279063
0.0025782
0.00233316
0.00205199
0.00173149
0.00136913
0.00096286
0.000517063
0.000292818
0.00382999
0.00380387
0.00376567
0.00371465
0.00364978
0.00356984
0.00347334
0.00335856
0.00322347
0.00306566
0.00288226
0.00266996
0.00242497
0.00214315
0.00181966
0.00144817
0.00102095
0.000537297
0.000295133
0.00391403
0.00388962
0.00385307
0.00380358
0.00374011
0.00366142
0.00356604
0.00345225
0.00331805
0.00316105
0.00297839
0.00276668
0.00252185
0.00223895
0.00191147
0.00153001
0.00108162
0.000558111
6.98704e-05
0.00399572
0.00397384
0.00393976
0.00389265
0.00383142
0.00375478
0.00366126
0.00354913
0.00341637
0.00326057
0.00307881
0.00286753
0.00262228
0.00233726
0.00200449
0.00161237
0.00114491
0.000589799
6.99021e-05
0.00407678
0.00405825
0.00402748
0.00398354
0.00392528
0.00385137
0.00376029
0.00365027
0.00351925
0.00336474
0.00318371
0.00297239
0.00272586
0.00243757
0.00209832
0.00169486
0.00120889
0.000625024
7.21736e-05
0.00415897
0.00414463
0.00411795
0.00407792
0.0040233
0.00395269
0.0038645
0.00375689
0.00362771
0.00347438
0.00329373
0.00308169
0.00283296
0.00254028
0.00219344
0.00177785
0.00127327
0.00066137
7.54777e-05
0.00424411
0.00423478
0.00421295
0.00417752
0.00412713
0.0040603
0.00397533
0.0038703
0.00374294
0.00359056
0.0034098
0.00319633
0.00294444
0.00264629
0.00229072
0.00186208
0.00133856
0.000699463
7.8969e-05
0.00433398
0.00433047
0.00431424
0.00428404
0.00423841
0.00417575
0.00409426
0.00399189
0.00386626
0.00371452
0.00353311
0.00331746
0.00306144
0.00275677
0.00239159
0.00194887
0.00140475
0.000735891
8.27437e-05
0.00443032
0.00443343
0.00442349
0.00439912
0.00435872
0.00430058
0.00422276
0.00412309
0.00399904
0.0038476
0.00366498
0.00344641
0.0031855
0.00287339
0.00249747
0.00203948
0.00147357
0.000773584
8.66289e-05
0.00453476
0.00454526
0.00454227
0.00452427
0.00448953
0.0044362
0.00436222
0.00426527
0.00414265
0.00399119
0.00380692
0.0035848
0.00331808
0.00299745
0.00260958
0.00213507
0.00154609
0.000813553
9.06309e-05
0.00464878
0.0046674
0.00467199
0.00466085
0.00463217
0.00458392
0.00451393
0.00441973
0.00429847
0.00414675
0.00396039
0.00373403
0.0034606
0.00313032
0.00272921
0.00223674
0.00162318
0.00085632
9.47139e-05
0.00477367
0.00480111
0.00481384
0.00481004
0.00478775
0.00474486
0.00467905
0.00458769
0.00446775
0.00431559
0.00412675
0.00389555
0.00361455
0.00327349
0.00285772
0.00234565
0.00170565
0.000902307
9.89371e-05
0.00491054
0.00494745
0.00496885
0.0049728
0.00495724
0.00491996
0.00485853
0.00477017
0.00465161
0.00449895
0.00430739
0.00407088
0.00378152
0.00342854
0.00299662
0.00246308
0.00179436
0.000951715
0.000103568
0.00506034
0.00510731
0.00513783
0.00514988
0.00514135
0.00510994
0.00505314
0.004968
0.00485102
0.00469798
0.00450368
0.00426158
0.00396323
0.00359727
0.00314761
0.00259049
0.00189034
0.00100492
0.000108868
0.00522386
0.00528141
0.00532143
0.00534187
0.00534059
0.00531531
0.00526342
0.00518185
0.00506684
0.0049138
0.00471701
0.00446933
0.0041616
0.0037817
0.00331269
0.00272964
0.00199497
0.00106273
0.000114944
0.00540185
0.00547041
0.00552019
0.00554916
0.00555529
0.00553634
0.0054897
0.00541218
0.00529976
0.0051474
0.00494877
0.00469593
0.00437879
0.00398422
0.00349424
0.00288269
0.00210995
0.00112634
0.000121735
0.00559507
0.00567493
0.00573453
0.00577204
0.00578559
0.00577312
0.00573209
0.00565923
0.00555026
0.00539966
0.00520033
0.00494331
0.00461727
0.0042077
0.00369524
0.00305229
0.00223732
0.00119699
0.000129228
0.00580442
0.00589564
0.00596491
0.00601068
0.00603146
0.00602549
0.00599041
0.00592294
0.00581858
0.00567125
0.005473
0.00521355
0.00487994
0.0044557
0.0039195
0.00324196
0.00237963
0.00127589
0.000137543
0.00603104
0.00613339
0.00621177
0.00626519
0.00629272
0.00629307
0.00626419
0.00620293
0.0061046
0.0059626
0.00576796
0.00550886
0.00517014
0.00473264
0.0041721
0.00345651
0.00254044
0.00136471
0.000146855
0.00627648
0.00638924
0.00647566
0.00653561
0.00656899
0.00657519
0.00655265
0.00649843
0.0064078
0.00627368
0.00608607
0.00583138
0.00549171
0.00504412
0.00445992
0.00370293
0.00272507
0.00146597
0.000157375
0.00654302
0.00666462
0.00675719
0.00682188
0.00685969
0.00687089
0.00685457
0.00680818
0.00672706
0.00660385
0.00642765
0.00618299
0.00584875
0.00539703
0.00479242
0.00399166
0.00294199
0.00158367
0.000169367
0.00683395
0.00696139
0.00705708
0.00712382
0.007164
0.00717892
0.00716839
0.00713041
0.00706062
0.00695165
0.00679204
0.00656476
0.00624527
0.00579952
0.00518247
0.00433862
0.00320528
0.00172438
0.000183383
0.0071538
0.00728176
0.00737592
0.007441
0.00748082
0.00749767
0.00749214
0.00746281
0.00740591
0.00731449
0.00717719
0.00697615
0.0066841
0.00626038
0.00564711
0.00476852
0.00353995
0.00190068
0.000200389
0.00750774
0.00762777
0.00771385
0.0077725
0.00780863
0.00782525
0.00782353
0.00780268
0.00775969
0.0076886
0.00757907
0.00741397
0.00716519
0.00678703
0.00620728
0.00531966
0.00399305
0.00214086
0.000221769
0.00789952
0.00799987
0.00806977
0.00811661
0.0081455
0.00815956
0.00816017
0.00814707
0.00811818
0.008069
0.0079914
0.00787107
0.00768272
0.00738102
0.00688414
0.00604907
0.0046574
0.00251693
0.000249978
0.00832769
0.00839503
0.00844054
0.00847055
0.00848905
0.00849843
0.00849981
0.00849322
0.00847751
0.00845006
0.00840584
0.0083356
0.00822184
0.00802972
0.00768598
0.00703028
0.00572327
0.00324575
0.000289558
0.00878184
0.00880513
0.00882049
0.00883051
0.00883671
0.00883996
0.00884069
0.00883896
0.00883445
0.00882638
0.0088132
0.00879198
0.00875688
0.00869527
0.00857588
0.00830714
0.00757018
0.00520501
0.00034336
)
;

boundaryField
{
    leftWall
    {
        type            nutkWallFunction;
        Cmu             0.09;
        kappa           0.41;
        E               9.8;
        value           nonuniform List<scalar> 
50
(
1.34271e-06
2.25909e-06
2.79628e-06
3.18612e-06
3.49127e-06
3.74543e-06
3.96781e-06
4.17055e-06
4.44275e-06
4.78577e-06
5.18797e-06
6.69669e-07
1.30088e-06
2.40329e-09
0
0
0
0
0
0
0
0
0
0
0
0
0
0
3.30589e-09
1.59763e-09
0
0
0
0
0
6.83875e-09
0
0
1.46985e-09
0
0
0
5.31451e-09
2.46237e-09
0
1.26602e-09
7.81403e-09
2.56995e-06
1.79802e-05
4.87257e-05
)
;
    }
    rightWall
    {
        type            nutkWallFunction;
        Cmu             0.09;
        kappa           0.41;
        E               9.8;
        value           nonuniform List<scalar> 
50
(
1.73497e-06
2.70425e-06
3.308e-06
3.78406e-06
4.18467e-06
4.53861e-06
4.88179e-06
5.18824e-06
5.47364e-06
5.66845e-06
5.92168e-06
1.42475e-06
9.87887e-07
6.07253e-09
0
0
0
0
0
0
0
0
3.02515e-09
0
0
0
1.31959e-10
3.71297e-07
9.31189e-07
1.51333e-06
2.12867e-06
2.75764e-06
3.40055e-06
4.0355e-06
4.70261e-06
5.43278e-06
6.2769e-06
7.22743e-06
8.27365e-06
9.41809e-06
1.06767e-05
1.20739e-05
1.36364e-05
1.53862e-05
1.74259e-05
1.9878e-05
2.29159e-05
2.68639e-05
3.23052e-05
3.95489e-05
)
;
    }
    lowerWall
    {
        type            nutkWallFunction;
        Cmu             0.09;
        kappa           0.41;
        E               9.8;
        value           nonuniform List<scalar> 
62
(
2.72121e-07
8.71788e-07
1.19861e-06
1.41467e-06
1.57438e-06
1.6986e-06
1.79755e-06
1.87701e-06
1.94119e-06
1.99355e-06
2.03746e-06
2.07576e-06
2.10937e-06
2.13524e-06
2.14405e-06
2.12011e-06
2.05512e-06
1.9607e-06
1.82173e-06
1.65201e-06
1.47238e-06
1.13843e-06
5.69824e-07
5.69824e-07
3.10131e-06
3.75859e-06
4.31817e-06
4.85462e-06
5.43918e-06
6.19504e-06
7.40262e-06
7.79909e-06
7.26734e-06
7.30937e-06
7.81861e-06
8.50427e-07
3.96106e-06
4.42226e-06
4.69151e-06
5.00903e-06
5.4881e-06
6.24228e-06
7.67283e-06
8.50427e-07
1.51814e-06
1.88166e-06
2.01151e-06
2.07105e-06
2.09896e-06
2.09359e-06
2.07465e-06
2.02486e-06
1.95249e-06
1.84195e-06
1.67947e-06
1.59019e-06
1.58542e-06
1.50704e-06
1.34744e-06
1.08525e-06
7.70891e-07
3.57902e-07
)
;
    }
    atmosphere
    {
        type            calculated;
        value           nonuniform List<scalar> 
46
(
0.009
0.000137132
0.000162884
0.000701371
0.00146572
0.00213053
0.00265116
0.00305672
0.00338055
0.00364939
0.0038837
0.00409928
0.00430865
0.00452213
0.00474879
0.00499792
0.00528171
0.00561801
0.00603051
0.00655013
0.00724279
0.009
0.009
0.009
0.009
0.009
0.009
0.009
0.009
0.009
0.009
0.009
0.009
0.009
0.009
0.009
0.009
0.009
0.009
0.009
0.009
0.009
0.009
0.009
0.009
0.00034336
)
;
    }
    defaultFaces
    {
        type            empty;
    }
}


// ************************************************************************* //
