/*--------------------------------*- C++ -*----------------------------------*\
  =========                 |
  \\      /  F ield         | OpenFOAM: The Open Source CFD Toolbox
   \\    /   O peration     | Website:  https://openfoam.org
    \\  /    A nd           | Version:  9
     \\/     M anipulation  |
\*---------------------------------------------------------------------------*/
FoamFile
{
    format      ascii;
    class       volVectorField;
    location    "9.05";
    object      U;
}
// * * * * * * * * * * * * * * * * * * * * * * * * * * * * * * * * * * * * * //

dimensions      [0 1 -1 0 0 0 0];

internalField   nonuniform List<vector> 
2268
(
(-0.000588188 0.000250278 0)
(-0.00144823 0.000168792 0)
(-0.00201696 0.000116624 0)
(-0.00245736 7.90615e-05 0)
(-0.00274505 4.18175e-05 0)
(-0.00289416 3.40059e-06 0)
(-0.00290911 -3.33197e-05 0)
(-0.00281262 -5.94077e-05 0)
(-0.00263369 -8.08305e-05 0)
(-0.00239912 -9.82868e-05 0)
(-0.00207999 -0.000128277 0)
(-0.00161143 -0.000196376 0)
(-0.000858177 -0.000307989 0)
(0.00033044 -0.000450202 0)
(0.00189797 -0.000547657 0)
(0.0035577 -0.000428233 0)
(0.00429977 6.31466e-05 0)
(0.00328165 0.000563407 0)
(0.000648512 0.00153083 0)
(-0.00554143 0.00206074 0)
(-0.00994083 0.000549692 0)
(-0.00962319 -0.000978137 0)
(-0.00472285 -0.00209004 0)
(-0.000508604 0.00071733 0)
(-0.00129329 0.000509907 0)
(-0.00185184 0.000372177 0)
(-0.00228879 0.000265349 0)
(-0.00259074 0.000164677 0)
(-0.0027682 6.86393e-05 0)
(-0.00282991 -1.84438e-05 0)
(-0.00280256 -8.3512e-05 0)
(-0.00270988 -0.000136318 0)
(-0.00256769 -0.000187266 0)
(-0.00235364 -0.000266169 0)
(-0.00201894 -0.000420862 0)
(-0.00147916 -0.000657084 0)
(-0.000650777 -0.000930313 0)
(0.000409855 -0.00108708 0)
(0.00148102 -0.000803067 0)
(0.00192313 0.000156256 0)
(0.000998978 0.00128788 0)
(-0.000776285 0.00276147 0)
(-0.00363908 0.00346995 0)
(-0.00562148 0.00123347 0)
(-0.00656844 -0.00140717 0)
(-0.00434663 -0.00496153 0)
(-0.000436006 0.00110806 0)
(-0.00118003 0.000808954 0)
(-0.00173628 0.000605315 0)
(-0.00218975 0.000435728 0)
(-0.00252114 0.00027712 0)
(-0.0027387 0.000127668 0)
(-0.00285349 -1.33739e-06 0)
(-0.00289271 -9.79936e-05 0)
(-0.00287736 -0.000172469 0)
(-0.00281879 -0.000248393 0)
(-0.0027031 -0.0003658 0)
(-0.00249583 -0.000582309 0)
(-0.00213778 -0.000913394 0)
(-0.00157383 -0.00128607 0)
(-0.000836705 -0.00148349 0)
(-6.10687e-05 -0.001078 0)
(0.000262081 0.000270545 0)
(-0.000540193 0.0018393 0)
(-0.00167689 0.00340671 0)
(-0.00257589 0.00405493 0)
(-0.00320807 0.00174542 0)
(-0.00442803 -0.00133819 0)
(-0.00328789 -0.00717363 0)
(-0.000390645 0.00147308 0)
(-0.00110069 0.00111066 0)
(-0.00165678 0.00085204 0)
(-0.0021317 0.000628225 0)
(-0.00249927 0.000417534 0)
(-0.00276428 0.000219535 0)
(-0.00293734 5.06312e-05 0)
(-0.00304451 -7.4392e-05 0)
(-0.00310585 -0.000169347 0)
(-0.00313124 -0.000266223 0)
(-0.00311367 -0.0004143 0)
(-0.00303233 -0.000677913 0)
(-0.00284398 -0.00108095 0)
(-0.00250322 -0.00153498 0)
(-0.00201165 -0.00178236 0)
(-0.00140126 -0.00131297 0)
(-0.00105666 0.000354536 0)
(-0.00161535 0.00223672 0)
(-0.00228885 0.00365112 0)
(-0.00212297 0.00410517 0)
(-0.00186949 0.00203665 0)
(-0.00289192 -0.00114896 0)
(-0.00222133 -0.00872605 0)
(-0.000367236 0.00181511 0)
(-0.00104941 0.00140486 0)
(-0.00160718 0.00110338 0)
(-0.00210812 0.00083465 0)
(-0.00251932 0.00057861 0)
(-0.00284064 0.000336853 0)
(-0.0030796 0.00013267 0)
(-0.00326054 -1.66952e-05 0)
(-0.00340229 -0.000129431 0)
(-0.00351376 -0.000242389 0)
(-0.00359501 -0.00041122 0)
(-0.00363773 -0.000707374 0)
(-0.00361004 -0.00116299 0)
(-0.00347 -0.00168442 0)
(-0.00318974 -0.00200033 0)
(-0.00269297 -0.00154815 0)
(-0.00222857 0.00035049 0)
(-0.00245118 0.00248936 0)
(-0.00275844 0.00364146 0)
(-0.00204759 0.00380458 0)
(-0.00129721 0.00211407 0)
(-0.0018477 -0.00099653 0)
(-0.00109665 -0.00967836 0)
(-0.000355514 0.00214453 0)
(-0.00101798 0.0016958 0)
(-0.00158325 0.0013612 0)
(-0.00211705 0.00105768 0)
(-0.00258165 0.000763996 0)
(-0.00297039 0.000483948 0)
(-0.00328552 0.000248631 0)
(-0.0035486 7.7918e-05 0)
(-0.00377592 -5.03072e-05 0)
(-0.00397506 -0.000175395 0)
(-0.00415284 -0.000356692 0)
(-0.0043128 -0.000671866 0)
(-0.00443288 -0.00116301 0)
(-0.00447579 -0.00173946 0)
(-0.00439709 -0.00213877 0)
(-0.00403366 -0.00179376 0)
(-0.00340712 0.0002041 0)
(-0.00319524 0.00258691 0)
(-0.00315752 0.00347728 0)
(-0.0022401 0.00333813 0)
(-0.00130416 0.00199606 0)
(-0.00108799 -0.00113901 0)
(0.000414926 -0.0101397 0)
(-0.000345012 0.00249987 0)
(-0.000994571 0.00198035 0)
(-0.00158021 0.00162273 0)
(-0.00215638 0.00129797 0)
(-0.00268576 0.000976654 0)
(-0.00315481 0.000664596 0)
(-0.00355868 0.000401944 0)
(-0.00391411 0.000212171 0)
(-0.00423273 6.92853e-05 0)
(-0.00451968 -6.64652e-05 0)
(-0.00478756 -0.000254329 0)
(-0.00505096 -0.000577196 0)
(-0.00529842 -0.00108924 0)
(-0.00550205 -0.00170635 0)
(-0.0056189 -0.00219007 0)
(-0.00546147 -0.00201475 0)
(-0.00476742 -0.000119122 0)
(-0.00397355 0.00244758 0)
(-0.00348146 0.00324599 0)
(-0.00265155 0.00285673 0)
(-0.00165814 0.00163525 0)
(-0.000379018 -0.00189784 0)
(0.00204806 -0.0102303 0)
(-0.000345101 0.00266341 0)
(-0.000994467 0.00223499 0)
(-0.00159653 0.00189898 0)
(-0.00222147 0.0015728 0)
(-0.00282642 0.00123429 0)
(-0.00338932 0.000894873 0)
(-0.0038961 0.000605815 0)
(-0.00435526 0.000395529 0)
(-0.0047709 0.000234106 0)
(-0.00514382 8.42208e-05 0)
(-0.00549058 -0.000108217 0)
(-0.00583572 -0.000428959 0)
(-0.00618001 -0.000950509 0)
(-0.00651035 -0.00159137 0)
(-0.00680011 -0.00214438 0)
(-0.00689535 -0.00214868 0)
(-0.00630787 -0.000567209 0)
(-0.00501006 0.00195395 0)
(-0.00391777 0.00290722 0)
(-0.00307006 0.00238278 0)
(-0.00189211 0.000949851 0)
(0.000278104 -0.00302174 0)
(0.00226253 -0.00956426 0)
(-0.0106705 0.00271896 0)
(-0.0102725 -0.000540547 0)
(-0.00356114 -0.00224369 0)
(0.00366043 -0.00172521 0)
(0.00809913 -0.00123949 0)
(0.0118269 -0.000989062 0)
(0.0141542 -0.000416394 0)
(0.0154523 -0.000356336 0)
(0.0164571 -0.000254266 0)
(0.0166232 -0.000260156 0)
(0.0159759 0.000774988 0)
(0.0106267 0.00285484 0)
(-0.000916495 0.00257383 0)
(-0.00513087 0.000153507 0)
(-0.00457191 -0.000237995 0)
(-0.00446344 -0.000153655 0)
(-0.00569019 5.81007e-05 0)
(-0.00682784 -0.000740942 0)
(-0.0017681 -0.000772555 0)
(-0.0105477 0.00619132 0)
(-0.00562385 -0.00212456 0)
(-0.00105723 -0.00441284 0)
(0.00368217 -0.00350564 0)
(0.00665949 -0.00247511 0)
(0.00882023 -0.00181079 0)
(0.010372 -0.00107476 0)
(0.0116325 -0.000739401 0)
(0.0120218 -0.000169439 0)
(0.0108492 0.000274494 0)
(0.00933505 0.00170645 0)
(0.00718101 0.0048693 0)
(0.00227816 0.00462277 0)
(-0.000458242 0.00113825 0)
(-0.00202098 0.000173394 0)
(-0.00318087 0.00040847 0)
(-0.00577368 0.00110378 0)
(-0.00849925 -0.000816558 0)
(-0.00514251 -0.00311859 0)
(-0.00692893 0.00870581 0)
(-0.00194421 -0.00391892 0)
(0.00106158 -0.00605223 0)
(0.00389296 -0.00470802 0)
(0.00575242 -0.00331535 0)
(0.00711103 -0.00236914 0)
(0.0081587 -0.0015931 0)
(0.00908708 -0.00100193 0)
(0.00914345 0.000115963 0)
(0.00756361 0.00105675 0)
(0.00543511 0.00238045 0)
(0.00446667 0.00546946 0)
(0.00356984 0.00543182 0)
(0.00200302 0.00205371 0)
(-0.000239687 0.00100712 0)
(-0.00203669 0.00133692 0)
(-0.00505436 0.00242986 0)
(-0.00826958 -0.000733508 0)
(-0.00571755 -0.00648209 0)
(-0.00224647 0.00991738 0)
(0.00165282 -0.00524242 0)
(0.00288754 -0.00696212 0)
(0.00408855 -0.00537684 0)
(0.00501289 -0.00383186 0)
(0.00575913 -0.00274262 0)
(0.00639306 -0.00194079 0)
(0.00703871 -0.00115707 0)
(0.00695702 0.000464641 0)
(0.00539859 0.0018742 0)
(0.00328937 0.00304384 0)
(0.00287637 0.00548461 0)
(0.00371899 0.00554927 0)
(0.00305144 0.00280177 0)
(0.000938902 0.00190393 0)
(-0.000822529 0.0023811 0)
(-0.00362869 0.00373775 0)
(-0.0064941 -0.000587825 0)
(-0.00407078 -0.00928198 0)
(0.00286753 0.00914074 0)
(0.00483716 -0.0058235 0)
(0.00424246 -0.00713583 0)
(0.00414037 -0.00557213 0)
(0.00430915 -0.00405555 0)
(0.00455859 -0.0029311 0)
(0.00483571 -0.00215418 0)
(0.00525647 -0.00125334 0)
(0.00518105 0.000800671 0)
(0.0038476 0.00259825 0)
(0.00213488 0.00355647 0)
(0.00206461 0.00524732 0)
(0.00338436 0.00532503 0)
(0.00314174 0.00334298 0)
(0.00154181 0.00260904 0)
(0.000542104 0.00321877 0)
(-0.00143865 0.00485419 0)
(-0.00379142 -0.000531256 0)
(-0.00199609 -0.0110644 0)
(0.00714391 0.00643584 0)
(0.00690988 -0.00558293 0)
(0.00489772 -0.00667556 0)
(0.00395035 -0.00540109 0)
(0.00358604 -0.00404511 0)
(0.003452 -0.00295615 0)
(0.00341852 -0.00225174 0)
(0.00366005 -0.00133121 0)
(0.00370476 0.00106354 0)
(0.00270657 0.00318468 0)
(0.0014728 0.00387811 0)
(0.00169988 0.00492575 0)
(0.00303102 0.00502139 0)
(0.0028136 0.00374752 0)
(0.00167237 0.00299406 0)
(0.00177379 0.00353274 0)
(0.00129744 0.00560472 0)
(-0.00035332 -0.000337937 0)
(0.00014549 -0.0117643 0)
(0.0082791 0.00290155 0)
(0.00719108 -0.00483156 0)
(0.00477653 -0.0058859 0)
(0.00348638 -0.00502008 0)
(0.00282195 -0.00387913 0)
(0.00242128 -0.00284944 0)
(0.00211643 -0.00224124 0)
(0.00216484 -0.00141366 0)
(0.00240135 0.00119411 0)
(0.00187106 0.00360532 0)
(0.00112656 0.00402222 0)
(0.00159692 0.00457418 0)
(0.00281946 0.00475098 0)
(0.00255711 0.00408668 0)
(0.0018792 0.00305625 0)
(0.00275192 0.00327805 0)
(0.00364841 0.00577624 0)
(0.00315965 -6.8384e-06 0)
(0.00261649 -0.0111776 0)
(0.00525173 -0.000197783 0)
(0.00598333 -0.00423009 0)
(0.00404019 -0.0051219 0)
(0.00279092 -0.00457456 0)
(0.0020136 -0.00362717 0)
(0.0014632 -0.00264768 0)
(0.000951614 -0.00211776 0)
(0.000713447 -0.0014523 0)
(0.00108496 0.00112786 0)
(0.00124073 0.00376538 0)
(0.00108991 0.00399159 0)
(0.00172943 0.00421248 0)
(0.0027989 0.00450973 0)
(0.00269903 0.00430213 0)
(0.00267839 0.00283427 0)
(0.00369531 0.00281728 0)
(0.00529762 0.0052945 0)
(0.00618089 0.000322192 0)
(0.00487948 -0.0093177 0)
(-0.000283065 0.00382502 0)
(-0.000948781 0.00307521 0)
(-0.00160765 0.0026104 0)
(-0.00233571 0.00222631 0)
(-0.00307824 0.00183432 0)
(-0.00381034 0.00143432 0)
(-0.00450316 0.00108804 0)
(-0.00514374 0.000828185 0)
(-0.00571844 0.000614145 0)
(-0.00621845 0.000418892 0)
(-0.00666223 0.000204964 0)
(-0.00708775 -0.000112234 0)
(-0.00751779 -0.000642508 0)
(-0.00796724 -0.00129316 0)
(-0.00843628 -0.00191724 0)
(-0.00877408 -0.0021936 0)
(-0.00846462 -0.00130466 0)
(-0.0071296 0.000674666 0)
(-0.00526591 0.00183463 0)
(-0.00345177 0.00131973 0)
(-0.00172458 -0.000483169 0)
(8.26715e-05 -0.0039458 0)
(-0.00194332 -0.00673099 0)
(-0.000143472 0.00276988 0)
(-0.000952051 0.00264065 0)
(-0.00169878 0.00255576 0)
(-0.00253673 0.00238941 0)
(-0.00343785 0.00215109 0)
(-0.0044272 0.00184341 0)
(-0.00544423 0.00154476 0)
(-0.00639028 0.00128964 0)
(-0.00719492 0.00104878 0)
(-0.00783109 0.000815475 0)
(-0.00829865 0.000576809 0)
(-0.00862528 0.00027455 0)
(-0.00888597 -0.000196344 0)
(-0.00917491 -0.000754952 0)
(-0.00955049 -0.00132714 0)
(-0.00995994 -0.00178359 0)
(-0.00997881 -0.00169063 0)
(-0.00891671 -0.000895499 0)
(-0.00672199 -0.000322318 0)
(-0.00414674 -0.000657991 0)
(-0.00202222 -0.00181074 0)
(-0.000951342 -0.00326966 0)
(-0.00205853 -0.00406505 0)
(-0.000533416 0.00450829 0)
(-0.00194078 0.00418924 0)
(-0.00287861 0.00375755 0)
(-0.00436045 0.00342683 0)
(-0.00568747 0.00327466 0)
(-0.00676965 0.00306054 0)
(-0.0077968 0.00269416 0)
(-0.00880047 0.00223697 0)
(-0.00970507 0.00176369 0)
(-0.0103586 0.0013148 0)
(-0.0106759 0.000875674 0)
(-0.0106684 0.000419868 0)
(-0.0105356 -9.79301e-05 0)
(-0.0105234 -0.00063118 0)
(-0.0107051 -0.00112105 0)
(-0.0110353 -0.00156407 0)
(-0.0110724 -0.00194012 0)
(-0.00998739 -0.00216723 0)
(-0.00765153 -0.00241927 0)
(-0.00482595 -0.0026456 0)
(-0.00250498 -0.00296337 0)
(-0.00148859 -0.00345346 0)
(-0.00208714 -0.00390771 0)
(0.00159545 0.00730507 0)
(0.00126055 0.00468195 0)
(-0.00108193 0.00451036 0)
(-0.00690997 0.00441915 0)
(-0.0103188 0.00392348 0)
(-0.00990414 0.00369787 0)
(-0.00864712 0.00332011 0)
(-0.00832091 0.00294231 0)
(-0.00910692 0.00233988 0)
(-0.00973274 0.00168485 0)
(-0.00992748 0.0010567 0)
(-0.00976467 0.000379291 0)
(-0.00941661 -0.000183504 0)
(-0.00956072 -0.000670497 0)
(-0.0100109 -0.0011819 0)
(-0.0098398 -0.00169684 0)
(-0.00849002 -0.00231816 0)
(-0.00689321 -0.00292618 0)
(-0.00596549 -0.00353993 0)
(-0.00458888 -0.00385684 0)
(-0.00246137 -0.00384897 0)
(-0.000805377 -0.00395999 0)
(-0.000897496 -0.00438186 0)
(0.000498303 0.00101459 0)
(0.000444416 0.00699149 0)
(-0.00904347 0.0155099 0)
(-0.0229989 0.0208421 0)
(-0.0292295 0.00714739 0)
(-0.0272841 0.00142655 0)
(-0.0210341 0.000549151 0)
(-0.0153582 0.00361596 0)
(-0.0120432 0.00411459 0)
(-0.0094121 0.00206402 0)
(-0.00655491 0.000695353 0)
(-0.00330202 -0.000725559 0)
(0.000309587 -0.00107302 0)
(0.0033177 0.000252013 0)
(0.00572604 -0.000676205 0)
(0.0085984 -0.00361075 0)
(0.01148 -0.00763677 0)
(0.0138004 -0.00826964 0)
(0.0111958 -0.0060016 0)
(0.00352684 -0.00941867 0)
(-0.000542235 -0.0100019 0)
(0.000648933 -0.00708567 0)
(0.000172156 -0.00162298 0)
(-0.00176005 0.0076654 0)
(-0.00648235 0.0126933 0)
(-0.00802398 0.0214001 0)
(0.000262444 0.02275 0)
(0.00272132 0.00837872 0)
(-0.00442769 -0.00247556 0)
(-0.00825959 -0.00706287 0)
(-0.00897087 -0.0035784 0)
(-0.00744244 -0.00155032 0)
(-0.00628151 -0.00284059 0)
(-0.00580332 -0.00318856 0)
(-0.00497687 -0.00495992 0)
(-0.00267052 -0.00610394 0)
(0.00182217 -0.00477359 0)
(0.00611737 -0.00521347 0)
(0.00707596 -0.00592604 0)
(0.00321504 -0.005792 0)
(-0.00099228 -0.00391655 0)
(-0.00208323 0.00648346 0)
(-0.00457494 0.0048283 0)
(-0.00892975 -0.00229829 0)
(-0.0109453 -0.0053958 0)
(-0.0108705 0.00462639 0)
(-0.00262155 0.00832929 0)
(-0.00495758 0.0141381 0)
(-0.00498049 0.0153392 0)
(-0.00128461 0.013814 0)
(0.000909919 0.0106738 0)
(-0.000559569 0.00625607 0)
(-0.00348789 0.000610725 0)
(-0.00560494 -0.000667974 0)
(-0.00580198 -0.000944746 0)
(-0.00578127 -0.00164937 0)
(-0.00604143 -0.00254945 0)
(-0.0057872 -0.00590137 0)
(-0.00405004 -0.00963746 0)
(-0.00108802 -0.00944534 0)
(0.00119636 -0.00740045 0)
(0.00175955 -0.00385101 0)
(0.000100307 -0.000597531 0)
(-0.00387921 -0.000697805 0)
(-0.00666397 0.00270166 0)
(-0.00812478 0.00340851 0)
(-0.011175 -0.000136654 0)
(-0.0152275 -0.00391755 0)
(-0.0164676 0.000551287 0)
(-0.00251032 0.0138599 0)
(-0.00330818 0.0156388 0)
(-0.00316344 0.0147133 0)
(-0.00204733 0.0125904 0)
(-0.00108666 0.00964344 0)
(-0.00124757 0.00547001 0)
(-0.00263942 0.00164813 0)
(-0.00424014 8.09386e-05 0)
(-0.00492409 -0.000787537 0)
(-0.00498893 -0.00146752 0)
(-0.00472264 -0.00249293 0)
(-0.00445831 -0.0060515 0)
(-0.00477765 -0.0102055 0)
(-0.00532265 -0.0101811 0)
(-0.00582503 -0.00744956 0)
(-0.00620399 -0.00362584 0)
(-0.00661992 0.000628485 0)
(-0.00823803 0.00291577 0)
(-0.00986713 0.00546935 0)
(-0.0106453 0.0058734 0)
(-0.0122023 0.00320593 0)
(-0.0150813 -0.000141962 0)
(-0.0167138 -0.000919008 0)
(-0.00132429 0.0146389 0)
(-0.00169237 0.0157675 0)
(-0.00185716 0.0145842 0)
(-0.00177316 0.0123835 0)
(-0.00166471 0.00941603 0)
(-0.00192507 0.00609186 0)
(-0.00285854 0.00315335 0)
(-0.00401642 0.00120199 0)
(-0.00467667 -0.000451524 0)
(-0.0048067 -0.00158289 0)
(-0.00468568 -0.00284746 0)
(-0.00500729 -0.00561333 0)
(-0.00658462 -0.00858453 0)
(-0.00878202 -0.00867155 0)
(-0.0103821 -0.00636393 0)
(-0.0111868 -0.00323746 0)
(-0.0114729 0.000851153 0)
(-0.0118942 0.00401646 0)
(-0.0123505 0.00616473 0)
(-0.0125749 0.00648921 0)
(-0.0133456 0.00471177 0)
(-0.0149892 0.00195018 0)
(-0.01618 -0.000644914 0)
(-0.000890138 0.0160757 0)
(-0.00101674 0.0161621 0)
(-0.00118083 0.014715 0)
(-0.00132865 0.0125031 0)
(-0.00158972 0.0096848 0)
(-0.00210568 0.0067276 0)
(-0.00296369 0.00415841 0)
(-0.00390812 0.00205587 0)
(-0.00460228 -1.94726e-06 0)
(-0.00508212 -0.00135845 0)
(-0.00558872 -0.00253037 0)
(-0.00657172 -0.00442442 0)
(-0.0084431 -0.00626492 0)
(-0.0106768 -0.0065056 0)
(-0.0123424 -0.00506425 0)
(-0.013304 -0.00253795 0)
(-0.013704 0.000980043 0)
(-0.0137287 0.00414532 0)
(-0.0135522 0.00613018 0)
(-0.0133124 0.00657855 0)
(-0.0134259 0.00540829 0)
(-0.014075 0.00302557 0)
(-0.0146038 -0.000471549 0)
(-0.000649507 0.0167921 0)
(-0.000641357 0.0163855 0)
(-0.000780339 0.0148633 0)
(-0.000950883 0.0127456 0)
(-0.00132016 0.0101649 0)
(-0.00195827 0.00745605 0)
(-0.00279313 0.00505434 0)
(-0.00363689 0.00286197 0)
(-0.00443241 0.000701775 0)
(-0.00529007 -0.000602044 0)
(-0.00628676 -0.00155083 0)
(-0.00761011 -0.0028873 0)
(-0.00946682 -0.00411638 0)
(-0.0114934 -0.00456095 0)
(-0.013012 -0.00386179 0)
(-0.013832 -0.0018747 0)
(-0.0141062 0.00111311 0)
(-0.0139695 0.00391477 0)
(-0.013535 0.00571841 0)
(-0.0129595 0.00622301 0)
(-0.0124922 0.00537156 0)
(-0.0122639 0.00324868 0)
(-0.0121631 -0.000448748 0)
(-0.000411921 0.0172108 0)
(-0.000371578 0.0165011 0)
(-0.000499021 0.0149831 0)
(-0.000673071 0.0130127 0)
(-0.00105864 0.0106795 0)
(-0.00168734 0.00820638 0)
(-0.00244413 0.00587159 0)
(-0.00320994 0.00366095 0)
(-0.00411119 0.00165125 0)
(-0.00523849 0.000537104 0)
(-0.0064674 -0.000287067 0)
(-0.00784884 -0.00130099 0)
(-0.00952389 -0.00222161 0)
(-0.011291 -0.00284052 0)
(-0.0127123 -0.00275818 0)
(-0.0135217 -0.00137766 0)
(-0.0136892 0.00108064 0)
(-0.013407 0.00354813 0)
(-0.0128439 0.00509575 0)
(-0.0120597 0.0055023 0)
(-0.0112066 0.00473311 0)
(-0.0104224 0.00278397 0)
(-0.0099222 -0.00053861 0)
(-0.000224548 0.0174786 0)
(-0.000155147 0.0165889 0)
(-0.000272644 0.0151013 0)
(-0.000440513 0.0132842 0)
(-0.000805211 0.0111659 0)
(-0.00136851 0.00889028 0)
(-0.00202653 0.00659527 0)
(-0.00275677 0.004467 0)
(-0.00373717 0.00276152 0)
(-0.00494927 0.00181596 0)
(-0.00619096 0.00100576 0)
(-0.00747043 0.000151831 0)
(-0.00887041 -0.000627173 0)
(-0.0103486 -0.0013064 0)
(-0.0117287 -0.00159932 0)
(-0.0126693 -0.000847203 0)
(-0.0129165 0.000950745 0)
(-0.0126097 0.00309413 0)
(-0.0119734 0.00435646 0)
(-0.0111003 0.00458374 0)
(-0.0101227 0.0037956 0)
(-0.00920868 0.00200488 0)
(-0.0086055 -0.000763872 0)
(-5.91855e-05 0.0175678 0)
(3.38164e-05 0.0166354 0)
(-6.18786e-05 0.0152126 0)
(-0.000207291 0.013537 0)
(-0.000527333 0.011602 0)
(-0.00101892 0.00948932 0)
(-0.00161542 0.00725169 0)
(-0.00236052 0.00531286 0)
(-0.00337614 0.00391455 0)
(-0.00453685 0.00303451 0)
(-0.00567293 0.00220376 0)
(-0.00679936 0.00139893 0)
(-0.00795382 0.000665047 0)
(-0.0091538 1.55041e-05 0)
(-0.0103723 -0.000395772 0)
(-0.0113736 -0.000155822 0)
(-0.0118581 0.000990577 0)
(-0.0117155 0.00263685 0)
(-0.0110954 0.00358646 0)
(-0.0102382 0.00364313 0)
(-0.00931853 0.00285548 0)
(-0.00851691 0.00127295 0)
(-0.00806553 -0.000977363 0)
(7.87886e-05 0.0174906 0)
(0.000196727 0.0166357 0)
(0.0001442 0.0153031 0)
(2.61527e-05 0.0137511 0)
(-0.000239221 0.0119778 0)
(-0.000666835 0.0100256 0)
(-0.0012645 0.00791526 0)
(-0.00205706 0.00619869 0)
(-0.00304565 0.00501615 0)
(-0.00409119 0.00412052 0)
(-0.00509011 0.00326444 0)
(-0.00606965 0.00245838 0)
(-0.00704751 0.00172704 0)
(-0.00803354 0.00110201 0)
(-0.00903205 0.000673696 0)
(-0.00995829 0.000648601 0)
(-0.0105668 0.00128063 0)
(-0.010604 0.00229939 0)
(-0.0101262 0.00289436 0)
(-0.0094023 0.002811 0)
(-0.00864336 0.00206606 0)
(-0.00802529 0.000724931 0)
(-0.00773525 -0.00105774 0)
(0.000139911 0.017288 0)
(0.000326741 0.0165845 0)
(0.000319059 0.0153609 0)
(0.000226483 0.0139241 0)
(4.43033e-06 0.0122994 0)
(-0.000376579 0.0105209 0)
(-0.000984245 0.00863101 0)
(-0.00180689 0.00709551 0)
(-0.0027258 0.00600673 0)
(-0.00363475 0.00506909 0)
(-0.00450518 0.00419008 0)
(-0.00535989 0.00337235 0)
(-0.00620715 0.00263367 0)
(-0.00705168 0.00200566 0)
(-0.00789166 0.00155616 0)
(-0.00866961 0.00140502 0)
(-0.00921715 0.00165627 0)
(-0.00934158 0.00213204 0)
(-0.00904959 0.00237866 0)
(-0.00853057 0.00216799 0)
(-0.00797454 0.00147312 0)
(-0.00754094 0.000350908 0)
(-0.00737335 -0.001059 0)
(0.000174818 0.0170101 0)
(0.000416276 0.0164766 0)
(0.000441035 0.0153896 0)
(0.000358839 0.0140738 0)
(0.000150781 0.0125909 0)
(-0.000211461 0.0109906 0)
(-0.000791941 0.00935115 0)
(-0.00156333 0.00795379 0)
(-0.00238122 0.00686767 0)
(-0.00316908 0.00589758 0)
(-0.00393313 0.00500042 0)
(-0.004684 0.00417112 0)
(-0.00542491 0.00342257 0)
(-0.00615505 0.00278106 0)
(-0.00686343 0.0022937 0)
(-0.00750103 0.00202439 0)
(-0.0079564 0.001999 0)
(-0.00811161 0.00209365 0)
(-0.00796565 0.00205815 0)
(-0.00763726 0.00173046 0)
(-0.00726943 0.00106992 0)
(-0.00699115 0.000116719 0)
(-0.00690879 -0.0010203 0)
(0.000221813 0.0166809 0)
(0.000466547 0.0163331 0)
(0.00050286 0.0154107 0)
(0.000415777 0.0142211 0)
(0.000209075 0.0128734 0)
(-0.000139619 0.0114374 0)
(-0.00065987 0.0100009 0)
(-0.00131972 0.00871108 0)
(-0.00202246 0.00761354 0)
(-0.00271113 0.00662529 0)
(-0.00338338 0.00571342 0)
(-0.00404309 0.00487194 0)
(-0.00468999 0.00410957 0)
(-0.00531888 0.00344523 0)
(-0.00591405 0.00290757 0)
(-0.00643561 0.00252559 0)
(-0.00681262 0.00229481 0)
(-0.00697784 0.00213069 0)
(-0.00693176 0.00188914 0)
(-0.00674844 0.00146429 0)
(-0.00652815 0.00082118 0)
(-0.00636687 -1.35073e-05 0)
(-0.00634092 -0.00096136 0)
(0.000237259 0.0163283 0)
(0.000461987 0.016184 0)
(0.00049456 0.0154358 0)
(0.000410186 0.0143675 0)
(0.000216364 0.0131432 0)
(-9.95643e-05 0.0118456 0)
(-0.000545822 0.0105513 0)
(-0.00109426 0.00934431 0)
(-0.00168536 0.00825691 0)
(-0.0022786 0.00726114 0)
(-0.00286395 0.00633821 0)
(-0.00343872 0.0054839 0)
(-0.00399906 0.00470382 0)
(-0.00453691 0.00401004 0)
(-0.00503589 0.00341783 0)
(-0.00546545 0.0029371 0)
(-0.00578134 0.00255382 0)
(-0.00594664 0.00221098 0)
(-0.00596413 0.00182283 0)
(-0.00588093 0.00132242 0)
(-0.00576517 0.000684836 0)
(-0.00568481 -7.19889e-05 0)
(-0.00569322 -0.000893712 0)
(0.000223156 0.0159913 0)
(0.000402286 0.0160636 0)
(0.000425811 0.0154564 0)
(0.000363651 0.0144972 0)
(0.000199736 0.0133817 0)
(-6.82232e-05 0.0121968 0)
(-0.000437483 0.0110063 0)
(-0.000885372 0.00986576 0)
(-0.00137473 0.00880124 0)
(-0.00187668 0.00780787 0)
(-0.00237823 0.00687873 0)
(-0.00287238 0.00601254 0)
(-0.00335239 0.00521316 0)
(-0.00380873 0.00448763 0)
(-0.0042264 0.00384292 0)
(-0.00458285 0.00327977 0)
(-0.00485062 0.002783 0)
(-0.00500981 0.0023143 0)
(-0.00506443 0.00182163 0)
(-0.0050452 0.00126342 0)
(-0.00499774 0.000623614 0)
(-0.00496874 -8.52834e-05 0)
(-0.00499472 -0.00082621 0)
(0.000170662 0.0157052 0)
(0.000321315 0.0159805 0)
(0.000343023 0.0154618 0)
(0.000307396 0.0145971 0)
(0.000180569 0.0135765 0)
(-3.38879e-05 0.0124839 0)
(-0.000329445 0.0113745 0)
(-0.000688548 0.01029 0)
(-0.00108711 0.0092532 0)
(-0.00150408 0.00826934 0)
(-0.00192632 0.00733886 0)
(-0.00234471 0.00646312 0)
(-0.00275085 0.00564527 0)
(-0.0031348 0.00488931 0)
(-0.00348355 0.00419771 0)
(-0.00378064 0.00356757 0)
(-0.00400886 0.00298575 0)
(-0.00415748 0.00242666 0)
(-0.00423064 0.00185835 0)
(-0.00424873 0.00125542 0)
(-0.00424205 0.00060831 0)
(-0.00424205 -7.38688e-05 0)
(-0.0042733 -0.000765863 0)
(7.97512e-05 0.0154933 0)
(0.000247573 0.0159031 0)
(0.000279894 0.0154515 0)
(0.000262975 0.0146664 0)
(0.000171773 0.0137257 0)
(9.44081e-06 0.0127087 0)
(-0.00021853 0.0116652 0)
(-0.000499833 0.0106291 0)
(-0.000818149 0.00962147 0)
(-0.00115786 0.00865159 0)
(-0.0015069 0.00772393 0)
(-0.00185559 0.0068417 0)
(-0.00219486 0.0060079 0)
(-0.00251504 0.00522503 0)
(-0.00280506 0.00449359 0)
(-0.00305277 0.00380987 0)
(-0.00324701 0.00316373 0)
(-0.00338186 0.00253828 0)
(-0.00346085 0.00191391 0)
(-0.0034976 0.00127541 0)
(-0.00351212 0.000617622 0)
(-0.00352526 -5.25261e-05 0)
(-0.00355327 -0.00071771 0)
(3.10334e-06 0.0153598 0)
(0.000183661 0.0158038 0)
(0.000234404 0.0154283 0)
(0.000233048 0.0147086 0)
(0.000176308 0.0138317 0)
(6.33461e-05 0.012876 0)
(-0.000103547 0.0118869 0)
(-0.000316523 0.0108937 0)
(-0.000564328 0.00991518 0)
(-0.000835121 0.00896204 0)
(-0.00111826 0.00804061 0)
(-0.00140425 0.00715515 0)
(-0.00168408 0.00630881 0)
(-0.00194865 0.00550357 0)
(-0.0021885 0.00473944 0)
(-0.00239437 0.00401329 0)
(-0.00255862 0.00331794 0)
(-0.00267767 0.0026426 0)
(-0.00275417 0.00197541 0)
(-0.00279713 0.0013076 0)
(-0.00281965 0.00063688 0)
(-0.00283537 -3.13019e-05 0)
(-0.0028548 -0.000684843 0)
(-2.51424e-05 0.0152854 0)
(0.000130375 0.015694 0)
(0.000187782 0.0153917 0)
(0.000211484 0.0147224 0)
(0.000192295 0.0138953 0)
(0.000127475 0.0129897 0)
(1.63329e-05 0.0120471 0)
(-0.000136456 0.0110929 0)
(-0.000322771 0.0101432 0)
(-0.000533247 0.00920881 0)
(-0.000758483 0.00829646 0)
(-0.000989478 0.00741097 0)
(-0.00121756 0.00655574 0)
(-0.00143428 0.00573283 0)
(-0.00163144 0.00494255 0)
(-0.00180163 0.00418293 0)
(-0.00193918 0.00344946 0)
(-0.0020416 0.00273561 0)
(-0.00211059 0.0020346 0)
(-0.00215196 0.00134177 0)
(-0.00217415 0.000656634 0)
(-0.0021859 -1.63596e-05 0)
(-0.00219388 -0.000668564 0)
(-2.52359e-05 0.0152427 0)
(8.62688e-05 0.0156053 0)
(0.000136959 0.0153374 0)
(0.000198986 0.0147018 0)
(0.000221257 0.0139147 0)
(0.000203478 0.0130526 0)
(0.000143092 0.0121522 0)
(4.28923e-05 0.0112348 0)
(-9.07316e-05 0.0103144 0)
(-0.000249727 0.0094004 0)
(-0.000425552 0.0084996 0)
(-0.000609688 0.00761704 0)
(-0.000793874 0.0067564 0)
(-0.00097024 0.00592015 0)
(-0.00113152 0.00510932 0)
(-0.00127147 0.00432327 0)
(-0.00138553 0.00355976 0)
(-0.0014716 0.00281538 0)
(-0.00153051 0.00208671 0)
(-0.00156585 0.0013718 0)
(-0.00158294 0.000671342 0)
(-0.00158724 -1.09076e-05 0)
(-0.00158285 -0.000668704 0)
(-2.19787e-05 0.0152192 0)
(4.75064e-05 0.0155464 0)
(0.000100103 0.0152599 0)
(0.000206188 0.0146415 0)
(0.000270441 0.0138891 0)
(0.000296361 0.0130681 0)
(0.000280387 0.0122087 0)
(0.000224573 0.0113281 0)
(0.000134605 0.0104376 0)
(1.79157e-05 0.00954566 0)
(-0.000117372 0.00865859 0)
(-0.000263076 0.00778152 0)
(-0.000411296 0.0069185 0)
(-0.000554632 0.00607258 0)
(-0.000686481 0.00524571 0)
(-0.000801344 0.00443862 0)
(-0.000895257 0.00365093 0)
(-0.000966207 0.00288157 0)
(-0.00101433 0.0021295 0)
(-0.00104167 0.00139457 0)
(-0.00105143 0.000678253 0)
(-0.00104698 -1.61628e-05 0)
(-0.00103071 -0.000684005 0)
(-4.78742e-05 0.0152201 0)
(1.75072e-05 0.0154933 0)
(0.000102124 0.0151512 0)
(0.000247141 0.0145411 0)
(0.000349412 0.013822 0)
(0.000412455 0.0130425 0)
(0.000432594 0.0122247 0)
(0.000411857 0.0113817 0)
(0.000355853 0.0105224 0)
(0.000271917 0.0096539 0)
(0.000168037 0.00878228 0)
(5.21771e-05 0.00791269 0)
(-6.80142e-05 0.00704967 0)
(-0.000185491 0.00619696 0)
(-0.000294136 0.00535749 0)
(-0.000388943 0.00453329 0)
(-0.000466286 0.00372559 0)
(-0.000524136 0.00293511 0)
(-0.000562103 0.00216255 0)
(-0.000581188 0.00140906 0)
(-0.000583246 0.00067664 0)
(-0.000570247 -3.17161e-05 0)
(-0.000543513 -0.00071239 0)
(-7.02065e-05 0.0152397 0)
(3.60598e-05 0.0154121 0)
(0.00016361 0.0150077 0)
(0.000333316 0.0144063 0)
(0.000465433 0.0137214 0)
(0.000556586 0.0129846 0)
(0.00060308 0.0122098 0)
(0.000607257 0.0114056 0)
(0.000575048 0.0105786 0)
(0.000514021 0.0097347 0)
(0.000432248 0.00887967 0)
(0.00033766 0.0080189 0)
(0.00023771 0.00715749 0)
(0.000139117 0.00629998 0)
(4.76441e-05 0.00545029 0)
(-3.20662e-05 0.00461169 0)
(-9.66154e-05 0.00378681 0)
(-0.000143945 0.00297782 0)
(-0.000173324 0.00218674 0)
(-0.000185091 0.00141569 0)
(-0.000180254 0.000667131 0)
(-0.000159948 -5.61486e-05 0)
(-0.000124865 -0.000751277 0)
(-5.50969e-05 0.0152349 0)
(0.00011931 0.0152869 0)
(0.00027584 0.0148344 0)
(0.000464533 0.0142456 0)
(0.000619311 0.0135965 0)
(0.000730001 0.0129043 0)
(0.000793053 0.0121743 0)
(0.000811786 0.0114102 0)
(0.000793063 0.0106164 0)
(0.0007451 0.00979769 0)
(0.000676289 0.00895973 0)
(0.000594619 0.00810834 0)
(0.000507385 0.00724931 0)
(0.000421012 0.00638807 0)
(0.000340935 0.00552958 0)
(0.000271499 0.00467826 0)
(0.000215899 0.00383798 0)
(0.000176157 0.00301212 0)
(0.000153197 0.00220378 0)
(0.000147051 0.00141587 0)
(0.00015719 0.000651222 0)
(0.000182941 -8.74659e-05 0)
(0.000223917 -0.000797825 0)
(-2.31165e-06 0.0151576 0)
(0.000228391 0.0151184 0)
(0.00042014 0.0146348 0)
(0.000632138 0.0140629 0)
(0.000807306 0.0134536 0)
(0.000931178 0.0128101 0)
(0.00100171 0.012128 0)
(0.00102482 0.011406 0)
(0.00100943 0.0106459 0)
(0.000964975 0.00985231 0)
(0.000900396 0.0090311 0)
(0.000823778 0.0081888 0)
(0.000742242 0.00733207 0)
(0.000661902 0.00646732 0)
(0.000587843 0.00560058 0)
(0.000524103 0.00473734 0)
(0.000473655 0.00388257 0)
(0.00043843 0.00304075 0)
(0.000419399 0.00221587 0)
(0.000416754 0.00141154 0)
(0.000430171 0.00063093 0)
(0.000459161 -0.000123283 0)
(0.000503417 -0.000849097 0)
(7.21944e-05 0.014991 0)
(0.000340394 0.0149031 0)
(0.00058473 0.0144018 0)
(0.000829168 0.0138548 0)
(0.00102621 0.0132951 0)
(0.0011581 0.0127092 0)
(0.00122699 0.0120807 0)
(0.00124423 0.0114029 0)
(0.00122227 0.0106769 0)
(0.00117232 0.00990753 0)
(0.00110397 0.00910183 0)
(0.00102533 0.00826743 0)
(0.000943245 0.0074121 0)
(0.000863424 0.0065433 0)
(0.000790548 0.0056681 0)
(0.000728309 0.00479301 0)
(0.000679425 0.00392403 0)
(0.000645679 0.00306657 0)
(0.000627988 0.00222547 0)
(0.000626546 0.00140494 0)
(0.00064104 0.000608503 0)
(0.000670949 -0.000161121 0)
(0.000715882 -0.000902218 0)
(0.000124658 0.0147399 0)
(0.000458325 0.0146276 0)
(0.000766351 0.0141219 0)
(0.00105474 0.0136134 0)
(0.00127583 0.0131222 0)
(0.00140912 0.0126093 0)
(0.00146564 0.0120423 0)
(0.00146617 0.0114113 0)
(0.00142811 0.0107186 0)
(0.00136458 0.0099715 0)
(0.0012856 0.00917902 0)
(0.00119902 0.00835047 0)
(0.00111118 0.00749489 0)
(0.00102725 0.00662086 0)
(0.000951427 0.00573641 0)
(0.000887008 0.00484903 0)
(0.000836433 0.0039656 0)
(0.000801304 0.00309239 0)
(0.000782426 0.00223503 0)
(0.000779897 0.00139834 0)
(0.000793269 0.000586232 0)
(0.000821828 -0.000198524 0)
(0.000864955 -0.000954456 0)
(0.000172841 0.0144087 0)
(0.000594764 0.0142752 0)
(0.000975081 0.0137803 0)
(0.00131556 0.0133298 0)
(0.00155841 0.0129383 0)
(0.00168145 0.0125215 0)
(0.00171173 0.0120251 0)
(0.0016842 0.0114415 0)
(0.00162156 0.0107794 0)
(0.001538 0.010051 0)
(0.00144321 0.00926842 0)
(0.00134431 0.00844287 0)
(0.00124683 0.00758483 0)
(0.00115525 0.00670394 0)