# vtk DataFile Version 2.0
track0
ASCII
DATASET POLYDATA
POINTS 12080 float
-0.0205 0.001 1e-05
-0.02052 0.000999985 1e-05
-0.02054 0.000999974 1e-05
-0.02056 0.000999965 1e-05
-0.02058 0.000999959 1e-05
-0.0206 0.000999956 1e-05
-0.0205 0.00367778 1e-05
-0.02052 0.00367778 1e-05
-0.02054 0.00367777 1e-05
-0.02056 0.00367777 1e-05
-0.02058 0.00367777 1e-05
-0.0206 0.00367777 1e-05
-0.0205 0.00635556 1e-05
-0.02052 0.00635555 1e-05
-0.02054 0.00635555 1e-05
-0.02056 0.00635555 1e-05
-0.02058 0.00635555 1e-05
-0.0206 0.00635555 1e-05
-0.0205 0.00903333 1e-05
-0.02052 0.00903333 1e-05
-0.02054 0.00903333 1e-05
-0.02056 0.00903333 1e-05
-0.02058 0.00903333 1e-05
-0.0206 0.00903333 1e-05
-0.0205 0.0117111 1e-05
-0.02052 0.0117111 1e-05
-0.02054 0.0117111 1e-05
-0.02056 0.0117111 1e-05
-0.02058 0.0117111 1e-05
-0.0206 0.0117111 1e-05
-0.0205 0.0143889 1e-05
-0.02052 0.0143889 1e-05
-0.02054 0.0143889 1e-05
-0.02056 0.0143889 1e-05
-0.02058 0.0143889 1e-05
-0.0206 0.0143889 1e-05
-0.0205 0.0170667 1e-05
-0.02052 0.0170667 1e-05
-0.02054 0.0170667 1e-05
-0.02056 0.0170667 1e-05
-0.02058 0.0170667 1e-05
-0.0206 0.0170667 1e-05
-0.0205 0.0197444 1e-05
-0.02052 0.0197444 1e-05
-0.02054 0.0197444 1e-05
-0.02056 0.0197444 1e-05
-0.02058 0.0197444 1e-05
-0.0206 0.0197444 1e-05
-0.0205 0.0224222 1e-05
-0.02052 0.0224222 1e-05
-0.02054 0.0224222 1e-05
-0.02056 0.0224222 1e-05
-0.02058 0.0224222 1e-05
-0.0206 0.0224222 1e-05
-0.0205 0.0251 1e-05
-0.02052 0.0250998 1e-05
-0.02054 0.0250997 1e-05
-0.02056 0.0250995 1e-05
-0.02058 0.0250995 1e-05
-0.0206 0.0250994 1e-05
-0.0205 0.001 1e-05
-0.0202034 0.00100022 1e-05
-0.0199069 0.00100067 1e-05
-0.0196103 0.00100132 1e-05
-0.0193137 0.00100219 1e-05
-0.0190172 0.00100326 1e-05
-0.0187132 0.00100466 1e-05
-0.0184093 0.00100589 1e-05
-0.0181054 0.0010071 1e-05
-0.0178015 0.00100832 1e-05
-0.0174976 0.00100954 1e-05
-0.0172058 0.00101083 1e-05
-0.016914 0.00101193 1e-05
-0.0166222 0.00101303 1e-05
-0.0163305 0.00101413 1e-05
-0.0160387 0.00101523 1e-05
-0.0157586 0.00101637 1e-05
-0.0154784 0.00101745 1e-05
-0.0151983 0.00101857 1e-05
-0.0149182 0.00101973 1e-05
-0.0146381 0.00102092 1e-05
-0.0143755 0.0010221 1e-05
-0.0141128 0.00102328 1e-05
-0.0138502 0.00102449 1e-05
-0.0135876 0.00102574 1e-05
-0.0133658 0.00102682 1e-05
-0.0133513 0.00102689 1e-05
-0.0133369 0.00102696 1e-05
-0.0133224 0.00102703 1e-05
-0.0133079 0.0010271 1e-05
-0.0132934 0.00102718 1e-05
-0.0130353 0.00102847 1e-05
-0.0127771 0.00102977 1e-05
-0.0125189 0.00103109 1e-05
-0.0122607 0.00103243 1e-05
-0.0120025 0.00103378 1e-05
-0.0117547 0.0010351 1e-05
-0.0115068 0.00103641 1e-05
-0.0112589 0.00103774 1e-05
-0.0110111 0.00103906 1e-05
-0.0107632 0.0010404 1e-05
-0.0105252 0.00104168 1e-05
-0.0102873 0.00104296 1e-05
-0.0100493 0.00104424 1e-05
-0.00981133 0.00104552 1e-05
-0.00957337 0.00104681 1e-05
-0.00934491 0.00104803 1e-05
-0.00911645 0.00104926 1e-05
-0.00888799 0.00105048 1e-05
-0.00865954 0.0010517 1e-05
-0.00843108 0.00105292 1e-05
-0.00821175 0.00105409 1e-05
-0.00799242 0.00105525 1e-05
-0.00777309 0.00105641 1e-05
-0.00755376 0.00105757 1e-05
-0.00733443 0.00105872 1e-05
-0.00712387 0.00105982 1e-05
-0.0069133 0.00106092 1e-05
-0.00670273 0.00106201 1e-05
-0.00649216 0.0010631 1e-05
-0.0062816 0.00106419 1e-05
-0.00607944 0.00106523 1e-05
-0.00587729 0.00106627 1e-05
-0.00567514 0.0010673 1e-05
-0.00547298 0.00106833 1e-05
-0.00527083 0.00106936 1e-05
-0.00507675 0.00107034 1e-05
-0.00488267 0.00107132 1e-05
-0.0046886 0.0010723 1e-05
-0.00449452 0.00107327 1e-05
-0.00430044 0.00107425 1e-05
-0.00411412 0.00107517 1e-05
-0.0039278 0.0010761 1e-05
-0.00374147 0.00107703 1e-05
-0.00355515 0.00107796 1e-05
-0.00336883 0.00107889 1e-05
-0.00318995 0.00107977 1e-05
-0.00301107 0.00108066 1e-05
-0.00283219 0.00108156 1e-05
-0.00265331 0.00108245 1e-05
-0.00247443 0.00108334 1e-05
-0.0023027 0.0010842 1e-05
-0.00213097 0.00108506 1e-05
-0.00195924 0.00108593 1e-05
-0.0017875 0.00108681 1e-05
-0.00161577 0.00108768 1e-05
-0.0014509 0.00108853 1e-05
-0.00128603 0.00108938 1e-05
-0.00112116 0.00109024 1e-05
-0.00095629 0.00109112 1e-05
-0.000791418 0.00109201 1e-05
-0.000633135 0.00109287 1e-05
-0.000474851 0.00109375 1e-05
-0.000316568 0.00109464 1e-05
-0.000158284 0.00109556 1e-05
0 0.00109648 1e-05
0.000105677 0.0010971 1e-05
0.000211355 0.00109773 1e-05
0.000317032 0.00109837 1e-05
0.00042271 0.001099 1e-05
0.000528387 0.00109964 1e-05
0.000634886 0.00110027 1e-05
0.000741385 0.00110091 1e-05
0.000847885 0.00110153 1e-05
0.000954384 0.00110215 1e-05
0.00106088 0.00110277 1e-05
0.00116821 0.00110338 1e-05
0.00127554 0.00110398 1e-05
0.00138286 0.00110457 1e-05
0.00149019 0.00110515 1e-05
0.00159752 0.00110571 1e-05
0.00170568 0.00110627 1e-05
0.00181384 0.00110682 1e-05
0.001922 0.00110736 1e-05
0.00203016 0.00110789 1e-05
0.00213833 0.0011084 1e-05
0.00224733 0.0011089 1e-05
0.00235633 0.0011094 1e-05
0.00246533 0.00110988 1e-05
0.00257434 0.00111036 1e-05
0.00268334 0.00111082 1e-05
0.00279319 0.00111127 1e-05
0.00290304 0.00111172 1e-05
0.00301289 0.00111215 1e-05
0.00312274 0.00111258 1e-05
0.00323259 0.00111299 1e-05
0.00334329 0.00111339 1e-05
0.003454 0.00111379 1e-05
0.0035647 0.00111417 1e-05
0.0036754 0.00111455 1e-05
0.00378611 0.00111492 1e-05
0.00389767 0.00111527 1e-05
0.00400924 0.00111562 1e-05
0.0041208 0.00111596 1e-05
0.00423237 0.00111629 1e-05
0.00434393 0.0011166 1e-05
0.00445636 0.00111691 1e-05
0.00456879 0.00111721 1e-05
0.00468123 0.0011175 1e-05
0.00479366 0.00111778 1e-05
0.00490609 0.00111805 1e-05
0.0050194 0.00111831 1e-05
0.0051327 0.00111856 1e-05
0.00524601 0.0011188 1e-05
0.00535932 0.00111904 1e-05
0.00547262 0.00111926 1e-05
0.00558681 0.00111947 1e-05
0.005701 0.00111967 1e-05
0.00581518 0.00111987 1e-05
0.00592937 0.00112005 1e-05
0.00604356 0.00112023 1e-05
0.00615863 0.00112039 1e-05
0.00627371 0.00112055 1e-05
0.00638878 0.0011207 1e-05
0.00650386 0.00112084 1e-05
0.00661893 0.00112097 1e-05
0.0067349 0.00112108 1e-05
0.00685087 0.00112119 1e-05
0.00696684 0.00112129 1e-05
0.00708281 0.00112138 1e-05
0.00719878 0.00112147 1e-05
0.00731565 0.00112154 1e-05
0.00743252 0.0011216 1e-05
0.00754939 0.00112165 1e-05
0.00766626 0.0011217 1e-05
0.00778313 0.00112173 1e-05
0.00788527 0.00112175 1e-05
0.00798741 0.00112176 1e-05
0.00808955 0.00112177 1e-05
0.00819169 0.00112177 1e-05
0.00828797 0.00112176 1e-05
0.00830478 0.00112176 1e-05
0.0083216 0.00112176 1e-05
0.00833841 0.00112175 1e-05
0.00835522 0.00112175 1e-05
0.00837203 0.00112175 1e-05
0.00849073 0.00112172 1e-05
0.00860942 0.00112169 1e-05
0.00872812 0.00112164 1e-05
0.00884682 0.00112159 1e-05
0.00896551 0.00112152 1e-05
0.00908513 0.00112144 1e-05
0.00920475 0.00112136 1e-05
0.00932437 0.00112126 1e-05
0.00944398 0.00112115 1e-05
0.0095636 0.00112104 1e-05
0.00968415 0.0011209 1e-05
0.0098047 0.00112076 1e-05
0.00992525 0.00112062 1e-05
0.0100458 0.00112046 1e-05
0.0101663 0.00112029 1e-05
0.0102878 0.0011201 1e-05
0.0104093 0.0011199 1e-05
0.0105308 0.0011197 1e-05
0.0106523 0.00111949 1e-05
0.0107738 0.00111926 1e-05
0.0108962 0.00111901 1e-05
0.0110186 0.00111876 1e-05
0.0111411 0.0011185 1e-05
0.0112635 0.00111823 1e-05
0.0113859 0.00111795 1e-05
0.0115093 0.00111764 1e-05
0.0116327 0.00111734 1e-05
0.0117561 0.00111702 1e-05
0.0118795 0.00111669 1e-05
0.0120028 0.00111635 1e-05
0.0121272 0.00111598 1e-05
0.0122515 0.00111561 1e-05
0.0123759 0.00111523 1e-05
0.0125002 0.00111484 1e-05
0.0126245 0.00111444 1e-05
0.0127498 0.00111401 1e-05
0.0128752 0.00111358 1e-05
0.0130005 0.00111314 1e-05
0.0131258 0.00111268 1e-05
0.0132511 0.00111222 1e-05
0.0133774 0.00111173 1e-05
0.0135036 0.00111123 1e-05
0.0136299 0.00111073 1e-05
0.0137562 0.00111021 1e-05
0.0138825 0.00110968 1e-05
0.0140098 0.00110912 1e-05
0.014137 0.00110856 1e-05
0.0142643 0.00110799 1e-05
0.0143915 0.0011074 1e-05
0.0145188 0.0011068 1e-05
0.0146471 0.00110619 1e-05
0.0147753 0.00110556 1e-05
0.0149036 0.00110492 1e-05
0.0150318 0.00110426 1e-05
0.0151601 0.00110359 1e-05
0.0152893 0.00110291 1e-05
0.0154186 0.00110221 1e-05
0.0155478 0.0011015 1e-05
0.0156771 0.00110078 1e-05
0.0158063 0.00110004 1e-05
0.0159366 0.00109929 1e-05
0.0160668 0.00109852 1e-05
0.0161971 0.00109774 1e-05
0.0163273 0.00109694 1e-05
0.0164576 0.00109614 1e-05
0.0165889 0.00109532 1e-05
0.0167201 0.00109448 1e-05
0.0168514 0.00109362 1e-05
0.0169827 0.00109275 1e-05
0.0171139 0.00109188 1e-05
0.0172462 0.00109099 1e-05
0.0173785 0.00109008 1e-05
0.0175108 0.00108915 1e-05
0.0176431 0.0010882 1e-05
0.0177754 0.00108725 1e-05
0.0179087 0.00108629 1e-05
0.018042 0.00108531 1e-05
0.0181753 0.0010843 1e-05
0.0183087 0.00108328 1e-05
0.018442 0.00108226 1e-05
0.0185763 0.00108123 1e-05
0.0187107 0.00108017 1e-05
0.018845 0.00107908 1e-05
0.0189794 0.00107798 1e-05
0.0191137 0.00107688 1e-05
0.0192491 0.00107578 1e-05
0.0193845 0.00107464 1e-05
0.0195199 0.00107348 1e-05
0.0196553 0.00107229 1e-05
0.0197907 0.00107112 1e-05
0.0199272 0.00106994 1e-05
0.0200636 0.00106872 1e-05
0.0202001 0.00106748 1e-05
0.0203365 0.00106621 1e-05
0.020473 0.00106496 1e-05
0.0206105 0.0010637 1e-05
0.020748 0.0010624 1e-05
0.0208855 0.00106108 1e-05
0.021023 0.00105973 1e-05
0.0211606 0.0010584 1e-05
0.0212991 0.00105705 1e-05
0.0214377 0.00105568 1e-05
0.0215763 0.00105427 1e-05
0.0217149 0.00105284 1e-05
0.0218535 0.00105142 1e-05
0.0219931 0.00105 1e-05
0.0221328 0.00104854 1e-05
0.0222724 0.00104704 1e-05
0.0224121 0.00104553 1e-05
0.0225517 0.00104403 1e-05
0.0226925 0.00104252 1e-05
0.0228332 0.00104097 1e-05
0.022974 0.00103939 1e-05
0.0231147 0.0010378 1e-05
0.0232555 0.00103621 1e-05
0.0233973 0.00103461 1e-05
0.0235391 0.00103298 1e-05
0.023681 0.00103131 1e-05
0.0238228 0.00102962 1e-05
0.0239647 0.00102794 1e-05
0.0241076 0.00102626 1e-05
0.0242505 0.00102453 1e-05
0.0243935 0.00102277 1e-05
0.0245364 0.001021 1e-05
0.0246794 0.00101922 1e-05
0.0248234 0.00101744 1e-05
0.0249675 0.00101562 1e-05
0.0251115 0.00101377 1e-05
0.0252556 0.0010119 1e-05
0.0253996 0.00101003 1e-05
[...]
POINT_DATA 12080
 FIELD attributes 1
U 3 12080 float
10.0004 	0.00731864 	0 10.0004 	0.00585491 	0 10.0003 	0.00439118 	0 10.0002 	0.00292745 	0 10.0001 	0.00146373 	0 10 	0 	0
10.0001 	0.000881959 	0 10 	0.000705567 	0 10 	0.000529175 	0 10 	0.000352783 	0 10 	0.000176392 	0 10 	0 	0
10.0001 	0.000470452 	0 10.0001 	0.00037617 	0 10.0001 	0.000281888 	0 10 	0.000187606 	0 10 	9.33241e-05 	0 10 	0 	0
10 	0.000270542 	0 10 	0.000216434 	0 10 	0.000162325 	0 10 	0.000108217 	0 10 	5.41085e-05 	0 10 	0 	0
10 	8.4487e-05 	0 10 	6.75896e-05 	0 10 	5.06922e-05 	0 10 	3.37948e-05 	0 10 	1.68974e-05 	0 10 	0 	0
10 	-2.27409e-05 	0 10 	-1.81927e-05 	0 10 	-1.36445e-05 	0 10 	-9.09635e-06 	0 10 	-4.54818e-06 	0 10 	0 	0
10 	-0.000213903 	0 10 	-0.000171123 	0 10 	-0.000128342 	0 10 	-8.55613e-05 	0 10 	-4.27807e-05 	0 10 	0 	0
10 	-0.000376456 	0 10 	-0.000301165 	0 10 	-0.000225873 	0 10 	-0.000150582 	0 10 	-7.52911e-05 	0 10 	0 	0
9.99999 	-0.000426737 	0 9.99999 	-0.00034139 	0 9.99999 	-0.000256042 	0 10 	-0.000170695 	0 10 	-8.53474e-05 	0 10 	0 	0
9.17387 	0.0870993 	0 9.1308 	0.0696794 	0 9.08741 	0.0522593 	0 9.04368 	0.0348389 	0 8.99962 	0.0174184 	0 8.95524 	0 	0
10.0004 	0.00731864 	0 10.0024 	0.0151708 	0 10.0045 	0.0221916 	0 10.0065 	0.0291681 	0 10.0085 	0.0361007 	0 10.0135 	0.0463178 	0 10.0163 	0.0402194 	0 10.0207 	0.0401805 	0 10.0251 	0.0401418 	0 10.0296 	0.0401033 	0 10.0355 	0.0445662 	0 10.0384 	0.0379296 	0 10.0424 	0.0378884 	0 10.0464 	0.0378471 	0 10.0504 	0.0378058 	0 10.0545 	0.0409076 	0 10.0566 	0.0388349 	0 10.0591 	0.0401474 	0 10.0615 	0.0414616 	0 10.0639 	0.0427775 	0 10.0661 	0.0452366 	0 10.0676 	0.0453504 	0 10.0689 	0.0465529 	0 10.0702 	0.0477566 	0 10.0715 	0.0489614 	0 10.0726 	0.0499798 	0 10.0727 	0.0500467 	0 10.0728 	0.0501136 	0 10.0729 	0.0501805 	0 10.0729 	0.0502474 	0 10.073 	0.0503043 	0 10.0735 	0.0509369 	0 10.074 	0.0515631 	0 10.0745 	0.0521899 	0 10.075 	0.0528172 	0 10.0755 	0.0532798 	0 10.0754 	0.0535836 	0 10.075 	0.0537815 	0 10.0746 	0.0539794 	0 10.0743 	0.0541776 	0 10.0737 	0.0541368 	0 10.0732 	0.054293 	0 10.0721 	0.0542803 	0 10.071 	0.0542676 	0 10.0699 	0.054255 	0 10.0683 	0.0539729 	0 10.0679 	0.0540688 	0 10.0662 	0.0539504 	0 10.0646 	0.0538319 	0 10.0629 	0.0537133 	0 10.0603 	0.0533089 	0 10.0603 	0.053385 	0 10.0582 	0.0532118 	0 10.0562 	0.0530387 	0 10.0541 	0.0528654 	0 10.0505 	0.0523947 	0 10.051 	0.0524794 	0 10.0487 	0.0522902 	0 10.0463 	0.0521008 	0 10.0439 	0.0519115 	0 10.0392 	0.0514183 	0 10.0406 	0.0515384 	0 10.038 	0.0513604 	0 10.0354 	0.0511823 	0 10.0328 	0.0510042 	0 10.027 	0.0505115 	0 10.0294 	0.0506837 	0 10.0266 	0.0505462 	0 10.0239 	0.0504087 	0 10.0211 	0.0502711 	0 10.0141 	0.0498174 	0 10.0176 	0.0500695 	0 10.0147 	0.0499899 	0 10.0119 	0.0499104 	0 10.009 	0.0498308 	0 10.0007 	0.0494218 	0 10.0055 	0.0497838 	0 10.0026 	0.0498563 	0 9.99965 	0.0499287 	0 9.99675 	0.0500012 	0 9.98727 	0.0497762 	0 9.99341 	0.0503501 	0 9.99051 	0.0505685 	0 9.98762 	0.0507869 	0 9.98472 	0.0510054 	0 9.974 	0.0508512 	0 9.98163 	0.0516263 	0 9.97895 	0.0523361 	0 9.97627 	0.0530462 	0 9.9736 	0.0537563 	0 9.96185 	0.0542025 	0 9.97136 	0.0554461 	7.6141e-22 9.96983 	0.0563989 	5.50666e-21 9.9683 	0.0573518 	1.0251e-20 9.96678 	0.0583049 	1.49943e-20 9.95503 	0.0586127 	1.24993e-20 9.96638 	0.05942 	9.04481e-20 9.96549 	0.0596018 	8.42377e-20 9.96459 	0.0597837 	7.80294e-20 9.9637 	0.0599656 	7.18232e-20 9.95185 	0.0594476 	-1.46387e-20 9.96343 	0.0592638 	-3.98057e-20 9.96256 	0.0586411 	-4.41726e-20 9.96169 	0.0580183 	-4.85364e-20 9.96082 	0.0573955 	-5.28971e-20 9.94882 	0.0564927 	-1.97034e-20 9.95995 	0.0558716 	-1.74656e-20 9.95848 	0.0547681 	-1.20601e-20 9.957 	0.0536645 	-6.65532e-21 9.95551 	0.0525608 	-1.25137e-21 9.94305 	0.051323 	7.17651e-21 9.9537 	0.0507841 	-4.32757e-21 9.95163 	0.0495841 	-2.18574e-20 9.94956 	0.048384 	-3.93901e-20 9.94748 	0.0471835 	-5.69256e-20 9.93453 	0.0456599 	-8.23996e-20 9.94472 	0.0453518 	-1.21352e-19 9.94212 	0.0442815 	-1.09762e-19 9.93952 	0.0432108 	-9.81628e-20 9.9369 	0.0421398 	-8.65541e-20 9.92352 	0.0405127 	-2.76942e-20 9.93318 	0.0403353 	3.89703e-20 9.93005 	0.03937 	5.17715e-20 9.92691 	0.0384044 	6.45613e-20 9.92376 	0.0374385 	7.73396e-20 9.91005 	0.0358097 	3.43722e-20 9.91909 	0.035615 	-5.51376e-20 9.9154 	0.0346752 	-6.09796e-20 9.91171 	0.0337351 	-6.68036e-20 9.90801 	0.0327947 	-7.26095e-20 9.89402 	0.0312211 	-2.32896e-22 9.90231 	0.0309742 	6.88951e-20 9.89804 	0.0300516 	6.01382e-20 9.89376 	0.0291286 	5.13633e-20 9.88947 	0.0282053 	4.25706e-20 9.87526 	0.0267248 	-2.50571e-20 9.88263 	0.0264308 	-8.34315e-20 9.87776 	0.0255252 	-1.04472e-19 9.87288 	0.0246192 	-1.25507e-19 9.86799 	0.0237129 	-1.46534e-19 9.85368 	0.0223271 	-1.25223e-19 9.85991 	0.0219987 	-1.5136e-19 9.85443 	0.0211116 	-1.39624e-19 9.84895 	0.0202241 	-1.27883e-19 9.84346 	0.0193363 	-1.16137e-19 9.82925 	0.0180348 	-7.57298e-20 9.83403 	0.0176819 	-6.47295e-20 9.82797 	0.0168172 	-4.72488e-20 9.8219 	0.0159521 	-2.97703e-20 9.81582 	0.0150867 	-1.22938e-20 9.80201 	0.0138631 	2.85272e-21 9.80496 	0.0134751 	0 9.79833 	0.0126291 	0 9.7917 	0.0117826 	0 9.78505 	0.0109357 	0 9.77201 	0.00979041 	0 9.7727 	0.00934291 	-1.40474e-20 9.76553 	0.00851184 	-3.19805e-20 9.75834 	0.0076803 	-4.99156e-20 9.75115 	0.00684829 	-6.78529e-20 9.73934 	0.00579575 	-8.74613e-20 9.73727 	0.0052589 	-9.68521e-20 9.72957 	0.00444104 	-9.74544e-20 9.72186 	0.00362265 	-9.80504e-20 9.71414 	0.00280373 	-9.86401e-20 9.70406 	0.00186884 	-9.48675e-20 9.69981 	0.0013136 	-6.47761e-20 9.69271 	0.000613278 	-4.08901e-20 9.6856 	-8.74758e-05 	-1.70128e-20 9.67849 	-0.000788663 	6.85576e-21 9.67177 	-0.00145001 	2.93461e-20 9.67059 	-0.00156627 	3.32776e-20 9.6694 	-0.00168253 	3.72089e-20 9.66821 	-0.00179881 	4.11399e-20 9.66702 	-0.0019151 	4.50707e-20 9.6649 	-0.00207398 	4.99006e-20 9.65701 	-0.0028413 	5.08511e-20 9.64826 	-0.0036466 	5.1826e-20 9.6395 	-0.00445257 	5.27983e-20 9.63072 	-0.00525921 	5.37679e-20 9.61465 	-0.00637593 	5.57484e-20 9.61205 	-0.00690982 	4.41667e-20 9.60286 	-0.00771238 	3.25832e-20 9.59365 	-0.00851567 	2.09982e-20 9.58443 	-0.0093197 	9.41181e-21 9.56205 	-0.0106376 	-6.62092e-22 9.56433 	-0.0110004 	-8.91594e-21 9.55474 	-0.011805 	-1.99802e-20 9.54513 	-0.0126105 	-3.10431e-20 9.53551 	-0.0134167 	-4.21045e-20 9.50747 	-0.014872 	-5.31764e-20 9.5141 	-0.0151251 	-5.46936e-20 9.50415 	-0.0159344 	-6.15028e-20 9.49417 	-0.0167446 	-6.8308e-20 9.48418 	-0.0175557 	-7.51093e-20 9.45125 	-0.0190813 	-9.0711e-20 9.46164 	-0.0192856 	-1.30902e-19 9.45135 	-0.0201007 	-1.21938e-19 9.44105 	-0.0209167 	-1.12991e-19 9.43072 	-0.0217336 	-1.0406e-19 9.39372 	-0.0232618 	-3.83495e-20 9.40721 	-0.0234809 	-2.52972e-20 9.39664 	-0.0243028 	-1.7917e-20 9.38604 	-0.0251256 	-1.05359e-20 9.37542 	-0.0259494 	-3.15371e-21 9.33516 	-0.0274121 	0 9.35115 	-0.0277086 	0 9.34031 	-0.0285377 	0 9.32946 	-0.0293678 	0 9.31858 	-0.0301989 	0 9.27586 	-0.0315303 	0 9.29374 	-0.0319594 	2.01817e-21 9.28268 	-0.0327953 	8.85103e-21 9.2716 	-0.0336323 	1.56829e-20 9.2605 	-0.0344703 	2.25138e-20 9.21607 	-0.0356126 	3.85875e-20 9.23529 	-0.0362218 	1.42206e-19 9.22404 	-0.0370639 	1.45164e-19 9.21276 	-0.037907 	1.48141e-19 9.20146 	-0.0387513 	1.51137e-19 9.156 	-0.0396551 	3.88094e-20 9.17608 	-0.0404817 	2.12137e-20 9.16466 	-0.0413298 	1.49612e-20 9.15322 	-0.0421791 	8.70761e-21 9.14158 	-0.0430283 	2.54972e-21 9.09586 	-0.0436576 	1.54511e-20 9.11479 	-0.0447221 	9.80756e-20 9.10482 	-0.0455872 	1.03762e-19 9.09324 	-0.0464424 	1.05248e-19 9.07795 	-0.0472412 	9.54755e-20 9.03583 	-0.0476213 	3.60432e-21 9.05164 	-0.0488932 	-9.39587e-20 9.04477 	-0.0498258 	-1.18901e-19 9.03307 	-0.0506873 	-1.2847e-19 9.01487 	-0.0513833 	-1.20498e-19 8.97607 	-0.0515506 	-5.67791e-20 8.98904 	-0.0530035 	-1.67564e-19 8.98473 	-0.0540475 	-2.02756e-19 8.97295 	-0.0549157 	-2.05355e-19 8.9525 	-0.0554651 	-1.63749e-19 8.91674 	-0.0554494 	-4.39593e-20 8.92716 	-0.0570524 	-2.30674e-20 8.92492 	-0.0582414 	-1.02163e-20 8.91308 	-0.0591163 	-3.46799e-21 8.89095 	-0.0594861 	0 8.85796 	-0.0593212 	0 8.86609 	-0.0610524 	0 8.86552 	-0.0624152 	0 8.85363 	-0.0632978 	0 8.83033 	-0.0634617 	1.90787e-21 8.79987 	-0.0631737 	5.01478e-21 8.80597 	-0.0650065 	2.06978e-21 8.8067 	-0.0665606 	0 8.7948 	-0.0674523 	0 8.77075 	-0.067397 	2.31842e-21 8.74255 	-0.0670175 	5.43002e-21 8.74685 	-0.0689326 	2.48538e-21 8.74858 	-0.0706914 	9.44887e-22 8.73668 	-0.0715939 	7.01259e-21 8.71225 	-0.0713101 	2.30404e-20 8.6861 	-0.0708632 	4.04372e-20 8.68883 	-0.0728456 	1.59146e-19 8.69133 	-0.0748188 	2.76635e-19 8.67925 	-0.0757116 	2.78365e-19 8.65492 	-0.0752217 	1.59705e-19 8.63061 	-0.0747315 	4.10415e-20 8.63194 	-0.0767793 	2.39429e-20 8.63321 	-0.0788292 	6.84612e-21 8.62148 	-0.0796855 	4.68944e-22 8.5988 	-0.0791586 	3.46314e-21 8.57614 	-0.0786313 	6.45722e-21 8.57628 	-0.0807258 	3.63801e-21 8.57634 	-0.0828224 	8.19899e-22 8.56517 	-0.0836473 	9.52586e-22 8.54394 	-0.0830862 	-2.61697e-21 8.52272 	-0.0825248 	-6.18574e-21 8.52182 	-0.0846292 	-4.73731e-20 8.52085 	-0.0867357 	-8.85655e-20 8.51026 	-0.0875283 	-9.03386e-20 8.49031 	-0.0869676 	-5.27179e-20 8.47038 	-0.0864066 	-1.50955e-20 8.46859 	-0.0885122 	7.83498e-20 8.46673 	-0.0906198 	1.71788e-19 8.45673 	-0.0913876 	1.80534e-19 8.43792 	-0.0908493 	1.02503e-19 8.41912 	-0.0903106 	2.44706e-20 8.41656 	-0.0924061 	1.35238e-20 8.41392 	-0.0945035 	2.57267e-21 8.40453 	-0.0952529 	-1.97299e-21 8.38673 	-0.0947582 	2.48183e-21 8.36894 	-0.0942633 	6.93763e-21 8.36569 	-0.0963506 	1.4386e-21 8.36237 	-0.0984397 	-4.06683e-21 8.35359 	-0.0991758 	-1.68364e-20 8.3367 	-0.0987303 	-6.41399e-20 8.31982 	-0.0982846 	-1.11445e-19 8.31596 	-0.100363 	-2.34775e-19 8.31172 	-0.102348 	-3.48278e-19 8.30306 	-0.103049 	-3.27367e-19 8.28779 	-0.102775 	-1.99002e-19 8.27173 	-0.102382 	-5.75177e-20 8.26734 	-0.104451 	5.99366e-20 8.26194 	-0.106209 	1.49573e-19 8.25339 	-0.106936 	1.4692e-19 8.23999 	-0.1069 	8.53592e-20 8.22466 	-0.106562 	4.21731e-22 8.21979 	-0.108622 	-8.38127e-20 8.21347 	-0.110162 	-1.37754e-19 8.20503 	-0.110916 	-1.45991e-19 8.19325 	-0.111114 	-1.10558e-19 8.17859 	-0.110831 	-3.73744e-20 8.17329 	-0.112885 	-2.7016e-20 8.16625 	-0.114215 	-1.67627e-20 8.1579 	-0.114997 	-6.58862e-21 8.14753 	-0.115425 	6.84353e-21 8.13347 	-0.115201 	2.62675e-20 8.12779 	-0.117249 	5.37199e-21 8.1202 	-0.118379 	-4.03045e-21 8.11194 	-0.119192 	-9.45617e-21 8.10279 	-0.119845 	-1.16825e-20 8.08927 	-0.119679 	2.43439e-21 8.08325 	-0.121724 	-1.36238e-20 8.07526 	-0.122664 	-2.035e-20 8.06706 	-0.123508 	-2.6273e-20 8.05884 	-0.124353 	-3.2199e-20 8.04595 	-0.124276 	-5.20423e-20 8.03945 	-0.126202 	3.95442e-20 8.03135 	-0.12708 	4.10745e-20 8.02322 	-0.127959 	4.25855e-20 8.01506 	-0.128837 	4.4077e-20 8.00346 	-0.129004 	-2.2846e-20 7.99647 	-0.130726 	3.88712e-20 7.98843 	-0.13164 	4.09113e-20 7.98035 	-0.132553 	4.29335e-20 7.97223 	-0.133467 	4.49376e-20 7.96178 	-0.133872 	5.18423e-21 7.95441 	-0.1354 	-2.76905e-22 7.94641 	-0.13635 	-2.00808e-22 7.93837 	-0.137301 	-1.24727e-22 7.9303 	-0.138253 	-4.8664e-23 7.92084 	-0.138891 	6.70139e-21 7.91321 	-0.140236 	0 7.90524 	-0.141226 	0 7.89723 	-0.142217 	0 7.88919 	-0.143208 	0 7.8806 	-0.144077 	2.73425e-21 7.8754 	-0.144906 	0 7.87009 	-0.145596 	0 7.86476 	-0.146287 	0 7.85941 	-0.146977 	0 7.85426 	-0.14764 	0 7.85147 	-0.147987 	0 7.84868 	-0.148335 	0 7.84588 	-0.148682 	0 7.84308 	-0.149029 	0 7.84062 	-0.149306 	0 7.83233 	-0.150442 	0 7.82413 	-0.151517 	0 7.81588 	-0.152592 	0 7.8076 	-0.153668 	0 7.80067 	-0.154469 	0 7.79199 	-0.155832 	0 7.78379 	-0.156952 	0 7.77554 	-0.158073 	0 7.76725 	-0.159194 	0 7.76135 	-0.159842 	0 7.75228 	-0.161428 	0 7.74407 	-0.162597 	0 7.7358 	-0.163766 	0 7.7275 	-0.164935 	0 7.7226 	-0.16544 	0 7.71313 	-0.167247 	-1.71772e-21 7.70489 	-0.168467 	-1.05041e-20 7.69661 	-0.169688 	-1.92875e-20 7.68828 	-0.170909 	-2.80682e-20 7.68436 	-0.171279 	-3.68862e-20 7.67458 	-0.173262 	-2.7215e-20 7.66621 	-0.17458 	-2.5804e-20 7.6579 	-0.175856 	-2.49215e-20 7.65044 	-0.176961 	-2.59728e-20 7.64657 	-0.177376 	-3.48432e-20 7.63678 	-0.179395 	-2.50854e-20 7.62798 	-0.18095 	-1.52975e-20 7.61962 	-0.182283 	-5.49374e-21 7.61318 	-0.183248 	0 7.60919 	-0.183744 	0 7.59939 	-0.185802 	0 7.59013 	-0.187591 	-1.7202e-21 7.58173 	-0.188985 	-5.97947e-21 7.57628 	-0.18982 	-1.02646e-20 7.57217 	-0.190399 	-1.45616e-20 7.56234 	-0.192499 	-4.57405e-20 7.55263 	-0.194519 	-7.53165e-20 7.54416 	-0.195978 	-9.35393e-20 7.53968 	-0.196691 	-8.06221e-20 7.53544 	-0.197356 	-6.56847e-20 7.52558 	-0.199503 	-4.22657e-20 7.51565 	-0.20165 	-1.8835e-20 7.50771 	-0.203126 	-1.2317e-20 7.50335 	-0.20388 	-3.40747e-20 7.49896 	-0.204634 	-5.58331e-20 7.48906 	-0.206833 	-6.81849e-20 7.47908 	-0.209032 	-8.0534e-20 7.47172 	-0.210561 	-7.12946e-20 7.46721 	-0.211406 	-4.15307e-20 7.46267 	-0.212252 	-1.17675e-20 7.45272 	-0.214508 	-8.40023e-21 7.44269 	-0.216764 	-5.04067e-21 7.4359 	-0.21835 	0 7.43122 	-0.219291 	0 7.4265 	-0.220232 	0 7.4165 	-0.222551 	0 7.40649 	-0.224857 	0 7.40029 	-0.226467 	0 7.39531 	-0.227557 	0 7.39041 	-0.228596 	0 7.38034 	-0.230984 	0 7.37138 	-0.233158 	0 7.36503 	-0.234853 	0 7.35942 	-0.236224 	-9.13329e-21 7.35432 	-0.237363 	-2.47543e-20 7.34417 	-0.239824 	-7.01769e-21 7.33623 	-0.241876 	4.48898e-23 7.32973 	-0.243659 	1.19177e-22 7.32349 	-0.245311 	1.05451e-21 7.31817 	-0.246554 	4.64847e-21 7.30793 	-0.249093 	3.33251e-20 7.30099 	-0.25103 	3.40196e-20 7.29431 	-0.252907 	3.19067e-20 7.28757 	-0.254784 	2.97777e-20 7.28189 	-0.256193 	1.75576e-20 7.27235 	-0.258672 	2.13996e-21 7.26556 	-0.260648 	1.0461e-20 7.2587 	-0.262623 	1.87862e-20 7.25177 	-0.264598 	2.71153e-20 7.24541 	-0.266305 	3.5432e-20 7.23688 	-0.268671 	5.92089e-20 7.22989 	-0.270749 	5.59337e-20 7.22282 	-0.272826 	5.26323e-20 7.21569 	-0.274903 	4.93047e-20 7.20865 	-0.276908 	3.85159e-20 7.2056 	-0.277788 	3.78432e-20 7.20297 	-0.278591 	3.81549e-20 7.20033 	-0.279394 	3.84678e-20 7.19767 	-0.280197 	3.8782e-20 7.19509 	-0.280976 	3.90877e-20 7.19029 	-0.282356 	3.81597e-20 7.18546 	-0.283737 	3.72278e-20 7.1806 	-0.285117 	3.62921e-20 7.17571 	-0.286497 	3.53527e-20 7.17179 	-0.287758 	3.54224e-20 7.16362 	-0.290156 	3.33464e-20 7.15589 	-0.292445 	3.21914e-20 7.14807 	-0.294734 	3.10265e-20 7.14017 	-0.297022 	2.98517e-20 7.13479 	-0.299009 	3.12331e-20 7.12555 	-0.301695 	2.52682e-20 7.11755 	-0.304102 	1.69499e-20 7.10947 	-0.306508 	8.62651e-21 7.10131 	-0.308914 	2.97992e-22 7.09727 	-0.310839 	-3.83033e-21 7.08718 	-0.313759 	-4.60296e-22 7.07865 	-0.316338 	0 7.07028 	-0.318862 	0 7.06333 	-0.321215 	0 7.05912 	-0.32325 	0 7.04877 	-0.32628 	0 7.03906 	-0.329156 	0 7.03037 	-0.331799 	0 7.02479 	-0.334088 	-2.82093e-21 7.02022 	-0.336257 	-6.59904e-21 7.00958 	-0.339404 	-3.44114e-21 6.99882 	-0.342549 	-2.86545e-22 6.99029 	-0.345282 	5.30509e-21 6.98541 	-0.347594 	7.99474e-21 6.98045 	-0.349906 	1.06781e-20 6.96949 	-0.353179 	-2.14816e-20 6.95842 	-0.35645 	-5.36509e-20 6.95036 	-0.359316 	-5.21555e-20 6.94506 	-0.361772 	-1.53622e-20 6.93968 	-0.364227 	2.14278e-20 6.92838 	-0.367629 	-1.81647e-20 6.91703 	-0.371022 	-5.70441e-20 6.9096 	-0.373985 	-5.51062e-20 6.90361 	-0.376628 	-2.9013e-20 6.89776 	-0.379222 	7.45635e-22 6.88608 	-0.38275 	-4.03471e-21 6.87618 	-0.386078 	-3.47784e-21 6.86832 	-0.38918 	3.10742e-21 6.86089 	-0.392168 	1.06126e-20 6.85454 	-0.394906 	2.01593e-20 6.84245 	-0.398567 	9.90747e-21 6.83397 	-0.401839 	1.31772e-20 6.82563 	-0.405083 	1.73708e-20 6.81719 	-0.408325 	2.15735e-20 6.80984 	-0.411305 	3.21551e-20 6.79894 	-0.414931 	3.7337e-20 6.79021 	-0.418317 	3.23897e-20 6.78136 	-0.421702 	2.74263e-20 6.7724 	-0.425085 	2.24466e-20 6.76349 	-0.428429 	1.56201e-20 6.76162 	-0.429054 	1.51607e-20 6.76008 	-0.429645 	1.46874e-20 6.75854 	-0.430235 	1.42141e-20 6.757 	-0.430826 	1.3741e-20 6.75547 	-0.431407 	1.32758e-20 6.74738 	-0.434326 	1.0306e-20 6.7392 	-0.437243 	7.3337e-21 6.73093 	-0.44016 	4.35902e-21 6.72258 	-0.443074 	1.38192e-21 6.71511 	-0.44583 	2.88828e-21 6.70464 	-0.449659 	1.11137e-21 6.69427 	-0.453298 	3.69478e-21 6.68377 	-0.456934 	6.27451e-21 6.67314 	-0.460567 	8.85247e-21 6.66453 	-0.463853 	2.45099e-20 6.65324 	-0.467955 	3.46614e-20 6.64208 	-0.471819 	4.10636e-20 6.63089 	-0.475583 	4.5922e-20 6.62078 	-0.479149 	4.12594e-20 6.61144 	-0.48257 	2.9491e-20 6.59946 	-0.486798 	4.06987e-20 6.58733 	-0.491022 	5.1906e-20 6.57572 	-0.494871 	5.1789e-20 6.56572 	-0.498416 	4.01109e-20 6.55559 	-0.501961 	2.84269e-20 6.54286 	-0.506305 	3.94817e-20 6.52997 	-0.510646 	5.05358e-20 6.51856 	-0.514688 	4.95936e-20 6.50772 	-0.518354 	3.12249e-20 6.49674 	-0.52202 	1.28567e-20 6.48321 	-0.526479 	1.11787e-20 6.47036 	-0.530797 	8.2277e-21 6.4585 	-0.53492 	3.51415e-21 6.44656 	-0.538951 	-2.31388e-21 6.43467 	-0.54272 	-1.14455e-20 6.42044 	-0.547251 	-4.4567e-22 6.40783 	-0.551471 	-5.92251e-21 6.39507 	-0.555689 	-1.14064e-20 6.38215 	-0.559903 	-1.68973e-20 6.36914 	-0.563998 	-2.4556e-20 6.36418 	-0.565524 	-1.71684e-20 6.35964 	-0.566968 	-1.88224e-20 6.35509 	-0.568411 	-2.04819e-20 6.35052 	-0.569854 	-2.2147e-20 6.34609 	-0.571247 	-2.37607e-20 6.3375 	-0.574104 	-2.89165e-20 6.32884 	-0.576959 	-3.41058e-20 6.32012 	-0.579813 	-3.93286e-20 6.31132 	-0.582666 	-4.45851e-20 6.30234 	-0.58536 	-1.28678e-20 6.28953 	-0.589954 	-1.58253e-20 6.27573 	-0.594279 	-1.02682e-20 6.26177 	-0.598602 	-4.70388e-21 6.2476 	-0.602866 	1.67998e-21 6.23298 	-0.606827 	1.24906e-20 6.21967 	-0.611594 	4.79857e-21 6.20566 	-0.616199 	0 6.19063 	-0.620535 	0 6.17508 	-0.624563 	0 6.1593 	-0.62855 	0 6.14492 	-0.633339 	0 6.13036 	-0.638125 	0 6.11488 	-0.642555 	-1.50771e-21 6.09807 	-0.646554 	-3.84508e-21 6.08108 	-0.650554 	-6.18836e-21 6.06557 	-0.655356 	-2.10896e-20 6.04964 	-0.659999 	-2.52423e-20 6.03322 	-0.664416 	-1.40124e-20 6.01638 	-0.668755 	-1.36634e-21 5.99811 	-0.672708 	1.85292e-20 5.98192 	-0.677212 	-4.08325e-21 5.96507 	-0.681381 	6.58872e-21 5.94805 	-0.685547 	1.73394e-20 5.93085 	-0.689709 	2.81694e-20 5.91508 	-0.693483 	3.80707e-20 5.91412 	-0.693728 	3.90571e-20 5.91315 	-0.693973 	4.0044e-20 5.91218 	-0.694217 	4.10313e-20 5.91121 	-0.694462 	4.20191e-20 5.91024 	-0.694688 	3.87336e-20 5.89261 	-0.698976 	1.56228e-20 5.87471 	-0.703225 	-6.00035e-21 5.85664 	-0.707471 	-2.76738e-20 5.83838 	-0.711715 	-4.93979e-20 5.81975 	-0.715595 	-3.71168e-20 5.80191 	-0.720231 	-7.85261e-20 5.78305 	-0.724494 	-1.01299e-19 5.76361 	-0.728586 	-1.15696e-19 5.74383 	-0.732362 	-8.7637e-20 5.72378 	-0.736017 	-4.28888e-20 5.7046 	-0.740498 	-5.05608e-20 5.68522 	-0.744975 	-5.81908e-20 5.66506 	-0.748968 	-5.15553e-20 5.6438 	-0.752394 	-2.85724e-20 5.62232 	-0.755823 	-5.53635e-21 5.60177 	-0.760097 	2.05549e-21 5.58088 	-0.764098 	6.27552e-21 5.55966 	-0.76783 	7.16481e-21 5.53824 	-0.771559 	8.06539e-21 5.51543 	-0.774746 	1.10802e-20 5.50239 	-0.7771 	-1.69056e-21 5.48912 	-0.779123 	-1.44589e-21 5.47579 	-0.781144 	-1.18551e-21 5.46239 	-0.783164 	-9.09338e-22 5.44963 	-0.785077 	-6.32731e-22 5.44066 	-0.786527 	1.33801e-21 5.43166 	-0.787977 	3.32289e-21 5.42263 	-0.789427 	5.32196e-21 5.41357 	-0.790876 	7.33529e-21 5.40459 	-0.792093 	-1.12755e-20 5.38266 	-0.795649 	-3.55033e-20 5.35994 	-0.79879 	-4.85763e-20 5.33704 	-0.80193 	-6.17006e-20 5.31406 	-0.804844 	-6.066e-20 5.29107 	-0.807315 	-3.12958e-20 5.26819 	-0.810718 	-2.02796e-20 5.2451 	-0.814119 	-9.24781e-21 5.22114 	-0.816747 	-2.55036e-21 5.19709 	-0.818751 	-1.66668e-22 5.17281 	-0.820757 	2.23642e-21 5.14864 	-0.82372 	4.67429e-21 5.12441 	-0.826441 	4.27962e-21 5.10028 	-0.82864 	-2.25718e-21 5.07585 	-0.830758 	-8.57227e-21 5.05034 	-0.832276 	-1.3221e-20 5.03444 	-0.833838 	-2.53111e-20 5.01877 	-0.83491 	-2.31601e-20 5.00304 	-0.835959 	-2.03639e-20 4.98725 	-0.837007 	-1.75547e-20 4.97214 	-0.838004 	-1.48669e-20 4.96289 	-0.838705 	-1.43317e-20 4.9536