/*--------------------------------*- C++ -*----------------------------------*\
  =========                 |
  \\      /  F ield         | OpenFOAM: The Open Source CFD Toolbox
   \\    /   O peration     | Website:  https://openfoam.org
    \\  /    A nd           | Version:  9
     \\/     M anipulation  |
\*---------------------------------------------------------------------------*/
FoamFile
{
    format      ascii;
    class       surfaceScalarField;
    location    "8.14";
    object      phi;
}
// * * * * * * * * * * * * * * * * * * * * * * * * * * * * * * * * * * * * * //

dimensions      [0 3 -1 0 0 0 0];

internalField   nonuniform List<scalar> 
4432
(
9.49986e-08
-9.49986e-08
2.16535e-07
-1.21536e-07
3.4514e-07
-1.28605e-07
4.73773e-07
-1.28631e-07
6.0115e-07
-1.27376e-07
7.26305e-07
-1.25152e-07
8.48021e-07
-1.21714e-07
9.64414e-07
-1.16389e-07
1.07129e-06
-1.06868e-07
1.16525e-06
-9.39601e-08
1.24908e-06
-8.38268e-08
1.33314e-06
-8.40466e-08
1.43263e-06
-9.94945e-08
1.55579e-06
-1.23151e-07
1.68569e-06
-1.299e-07
1.75143e-06
-6.57403e-08
1.61886e-06
1.3257e-07
1.24312e-06
3.75738e-07
5.95417e-07
6.47703e-07
-2.01345e-07
7.96759e-07
-6.27612e-07
4.26261e-07
-5.47375e-07
-8.02457e-08
-5.47382e-07
1.07049e-07
-2.02046e-07
2.29199e-07
-2.43685e-07
3.579e-07
-2.57305e-07
4.88145e-07
-2.58872e-07
6.16676e-07
-2.55903e-07
7.41538e-07
-2.50008e-07
8.61251e-07
-2.41422e-07
9.73706e-07
-2.28836e-07
1.07542e-06
-2.0857e-07
1.16324e-06
-1.81778e-07
1.23815e-06
-1.58732e-07
1.30649e-06
-1.52378e-07
1.37682e-06
-1.69821e-07
1.45223e-06
-1.98562e-07
1.51899e-06
-1.96655e-07
1.53157e-06
-7.83255e-08
1.40747e-06
2.56671e-07
1.09473e-06
6.88479e-07
6.50912e-07
1.09151e-06
1.48568e-07
1.29909e-06
-2.35863e-07
8.10681e-07
-3.92813e-07
7.66904e-08
-9.40198e-07
1.17803e-07
-3.19848e-07
2.41924e-07
-3.67805e-07
3.69383e-07
-3.84765e-07
4.98405e-07
-3.87892e-07
6.25493e-07
-3.8299e-07
7.48228e-07
-3.7274e-07
8.64946e-07
-3.58138e-07
9.73495e-07
-3.37383e-07
1.07034e-06
-3.05411e-07
1.15177e-06
-2.63211e-07
1.21723e-06
-2.24183e-07
1.27025e-06
-2.054e-07
1.31634e-06
-2.15912e-07
1.35753e-06
-2.39746e-07
1.38532e-06
-2.24444e-07
1.36877e-06
-6.17702e-08
1.24375e-06
3.81688e-07
9.77079e-07
9.55148e-07
6.6227e-07
1.40632e-06
3.59381e-07
1.60198e-06
1.64393e-08
1.15362e-06
-2.17982e-07
3.11105e-07
-1.15818e-06
1.25267e-07
-4.45116e-07
2.52969e-07
-4.95507e-07
3.80959e-07
-5.12757e-07
5.09385e-07
-5.16319e-07
6.35244e-07
-5.08851e-07
7.55993e-07
-4.93492e-07
8.6995e-07
-4.72097e-07
9.75039e-07
-4.42473e-07
1.06743e-06
-3.97807e-07
1.14255e-06
-3.38329e-07
1.19832e-06
-2.79953e-07
1.23627e-06
-2.43353e-07
1.26029e-06
-2.39927e-07
1.27285e-06
-2.52304e-07
1.27189e-06
-2.23484e-07
1.24318e-06
-3.30621e-08
1.13266e-06
4.92211e-07
9.14181e-07
1.17363e-06
6.80245e-07
1.64026e-06
4.83994e-07
1.79823e-06
2.0331e-07
1.4343e-06
-4.69894e-08
5.61405e-07
-1.20517e-06
1.30664e-07
-5.75781e-07
2.62569e-07
-6.27413e-07
3.92531e-07
-6.42723e-07
5.21348e-07
-6.45138e-07
6.46493e-07
-6.34e-07
7.65486e-07
-6.12489e-07
8.76792e-07
-5.83409e-07
9.78535e-07
-5.44221e-07
1.06658e-06
-4.85856e-07
1.13531e-06
-4.07067e-07
1.18128e-06
-3.25926e-07
1.20445e-06
-2.66518e-07
1.20774e-06
-2.43217e-07
1.19438e-06
-2.3895e-07
1.16787e-06
-1.96968e-07
1.1322e-06
2.60815e-09
1.04868e-06
5.75743e-07
8.75392e-07
1.34692e-06
7.00208e-07
1.81544e-06
5.66179e-07
1.93226e-06
3.36576e-07
1.66391e-06
1.14011e-07
7.83975e-07
-1.09115e-06
1.35407e-07
-7.1119e-07
2.71661e-07
-7.6367e-07
4.04365e-07
-7.75431e-07
5.34282e-07
-7.75059e-07
6.59078e-07
-7.58801e-07
7.76337e-07
-7.29754e-07
8.84789e-07
-6.91868e-07
9.82924e-07
-6.42364e-07
1.06642e-06
-5.69355e-07
1.12867e-06
-4.69322e-07
1.16503e-06
-3.62294e-07
1.17416e-06
-2.75648e-07
1.15828e-06
-2.27335e-07
1.12083e-06
-2.01496e-07
1.06851e-06
-1.44655e-07
1.01811e-06
5.30196e-08
9.74697e-07
6.19158e-07
8.44314e-07
1.47731e-06
7.20831e-07
1.93893e-06
6.32485e-07
2.02061e-06
4.46962e-07
1.84944e-06
2.92961e-07
9.37984e-07
-7.98181e-07
1.40372e-07
-8.51566e-07
2.81035e-07
-9.04335e-07
4.16616e-07
-9.11016e-07
5.47921e-07
-9.06367e-07
6.7243e-07
-8.83315e-07
7.87675e-07
-8.45004e-07
8.92687e-07
-7.96886e-07
9.86507e-07
-7.36189e-07
1.06488e-06
-6.47731e-07
1.12047e-06
-5.24922e-07
1.14776e-06
-3.89579e-07
1.14429e-06
-2.72187e-07
1.11162e-06
-1.9466e-07
1.05252e-06
-1.42395e-07
9.74249e-07
-6.63853e-08
8.97495e-07
1.29777e-07
8.71066e-07
6.45591e-07
8.18194e-07
1.53019e-06
7.54457e-07
2.00267e-06
6.79467e-07
2.09561e-06
5.93316e-07
1.9356e-06
5.11594e-07
1.01972e-06
-2.86581e-07
1.46145e-07
-9.97713e-07
2.9075e-07
-1.04894e-06
4.29029e-07
-1.0493e-06
5.61622e-07
-1.03896e-06
6.8561e-07
-1.0073e-06
7.98274e-07
-9.57667e-07
8.98865e-07
-8.97476e-07
9.87164e-07
-8.24486e-07
1.05941e-06
-7.19976e-07
1.10804e-06
-5.73548e-07
1.1271e-06
-4.08638e-07
1.11329e-06
-2.5837e-07
1.06748e-06
-1.48853e-07
9.91252e-07
-6.61603e-08
8.90916e-07
3.39534e-08
7.87406e-07
2.3329e-07
7.37592e-07
6.95406e-07
7.72176e-07
1.4956e-06
7.81157e-07
1.99369e-06
7.25863e-07
2.1509e-06
7.78277e-07
1.88319e-06
6.99729e-07
1.09827e-06
4.13146e-07
-1.33338e-06
1.33338e-06
-9.47582e-07
-3.85802e-07
-3.43101e-07
-6.04493e-07
4.62735e-08
-3.89379e-07
3.05986e-07
-2.59718e-07
4.67247e-07
-1.61266e-07
5.54977e-07
-8.77346e-08
6.83166e-07
-1.28189e-07
7.70124e-07
-8.69588e-08
6.52901e-07
1.17222e-07
2.81737e-07
3.71164e-07
-4.67537e-07
7.49276e-07
-1.25321e-06
7.85675e-07
-1.48655e-06
2.33338e-07
-1.3996e-06
-8.69421e-08
-1.08199e-06
-3.17607e-07
-7.68644e-07
-3.13347e-07
-2.44683e-07
-5.23958e-07
-2.44681e-07
-9.04584e-07
2.23795e-06
-5.68864e-07
-7.21523e-07
-2.62126e-07
-9.11247e-07
-6.41845e-08
-5.87329e-07
4.39307e-08
-3.67842e-07
1.14241e-07
-2.31579e-07
1.93085e-07
-1.66583e-07
2.62239e-07
-1.97342e-07
2.39644e-07
-6.43638e-08
6.92166e-08
2.87652e-07
-1.86599e-07
6.26981e-07
-5.24894e-07
1.08757e-06
-8.59369e-07
1.12015e-06
-1.09707e-06
4.71044e-07
-1.1417e-06
-4.23099e-08
-1.04292e-06
-4.16383e-07
-9.53341e-07
-4.02921e-07
-6.34184e-07
-8.43113e-07
-8.78864e-07
-3.76809e-07
2.61475e-06
-2.61536e-07
-8.36794e-07
-1.90964e-07
-9.81828e-07
-1.42426e-07
-6.35871e-07
-1.2106e-07
-3.89213e-07
-1.09545e-07
-2.43093e-07
-7.49907e-08
-2.01138e-07
-4.78912e-08
-2.2444e-07
-1.05688e-07
-6.565e-09
-2.944e-07
4.76365e-07
-4.81598e-07
8.14181e-07
-5.85153e-07
1.19113e-06
-6.72938e-07
1.20794e-06
-8.53795e-07
6.51903e-07
-9.47471e-07
5.13681e-08
-9.51435e-07
-4.12418e-07
-1.03192e-06
-3.22433e-07
-8.5977e-07
-1.01527e-06
-1.73863e-06
7.86986e-08
2.53604e-06
-3.0838e-08
-7.27253e-07
-1.54671e-07
-8.57998e-07
-2.23551e-07
-5.66989e-07
-2.71659e-07
-3.41106e-07
-3.07419e-07
-2.07331e-07
-3.13582e-07
-1.94973e-07
-3.12929e-07
-2.25089e-07
-3.72903e-07
5.3411e-08
-5.3417e-07
6.37635e-07
-6.61604e-07
9.41617e-07
-6.58148e-07
1.18768e-06
-6.26285e-07
1.17608e-06
-7.23622e-07
7.4924e-07
-7.88275e-07
1.1602e-07
-8.08839e-07
-3.91855e-07
-9.6238e-07
-1.68892e-07
-8.31576e-07
-1.14607e-06
-2.57021e-06
4.07204e-07
2.12883e-06
9.20063e-08
-4.12046e-07
-1.67908e-07
-5.98083e-07
-3.20339e-07
-4.14552e-07
-4.22486e-07
-2.38958e-07
-4.99133e-07
-1.3068e-07
-5.40974e-07
-1.53128e-07
-5.57563e-07
-2.08496e-07
-6.01604e-07
9.74553e-08
-7.18247e-07
7.54279e-07
-7.82607e-07
1.00598e-06
-7.22656e-07
1.12773e-06
-6.41806e-07
1.09523e-06
-6.77924e-07
7.85355e-07
-6.46475e-07
8.45689e-08
-6.08657e-07
-4.29676e-07
-7.27715e-07
-4.98367e-08
-6.30353e-07
-1.24344e-06
-3.20057e-06
4.75052e-07
1.65378e-06
8.59463e-08
-2.29286e-08
-2.34903e-07
-2.77228e-07
-4.36152e-07
-2.13295e-07
-5.76124e-07
-9.89822e-08
-6.86723e-07
-2.00773e-08
-7.61158e-07
-7.86892e-08
-7.90313e-07
-1.79338e-07
-8.04498e-07
1.11643e-07
-8.70638e-07
8.2042e-07
-8.77098e-07
1.01244e-06
-7.79715e-07
1.03034e-06
-6.64243e-07
9.79753e-07
-6.53498e-07
7.74607e-07
-5.35156e-07
-3.37759e-08
-3.76059e-07
-5.88777e-07
-3.74921e-07
-5.09776e-08
-3.43391e-07
-1.27497e-06
-3.54396e-06
3.41113e-07
1.31267e-06
-2.58588e-08
3.44053e-07
-3.45601e-07
4.25219e-08
-5.67047e-07
8.15737e-09
-7.30243e-07
6.42173e-08
-8.67237e-07
1.1692e-07
-9.72197e-07
2.6273e-08
-1.01931e-06
-1.32227e-07
-1.0004e-06
9.27423e-08
-9.88711e-07
8.0873e-07
-9.52302e-07
9.7603e-07
-8.25336e-07
9.03376e-07
-6.85156e-07
8.39571e-07
-6.06424e-07
6.95873e-07
-4.0378e-07
-2.36423e-07
-1.87124e-07
-8.05436e-07
-5.21498e-08
-1.85954e-07
-2.99352e-09
-1.32413e-06
-3.54695e-06
9.70286e-08
1.21565e-06
-1.90009e-07
6.31093e-07
-4.80612e-07
3.33126e-07
-7.05794e-07
2.3334e-07
-8.80053e-07
2.38476e-07
-1.03475e-06
2.71614e-07
-1.16382e-06
1.5535e-07
-1.24621e-06
-4.98453e-08
-1.20019e-06
4.67264e-08
-1.08926e-06
6.97795e-07
-1.00092e-06
8.87689e-07
-8.47992e-07
7.50452e-07
-6.94493e-07
6.86072e-07
-5.09069e-07
5.10448e-07
-2.37007e-07
-5.08485e-07
-4.39498e-08
-9.98493e-07
2.26629e-07
-4.56533e-07
2.7745e-07
-1.37495e-06
-3.2695e-06
3.30313e-07
-1.32803e-06
6.48726e-07
-1.36735e-06
9.51745e-07
-1.35231e-06
1.23714e-06
-1.32436e-06
1.49777e-06
-1.26792e-06
1.72647e-06
-1.18636e-06
1.92085e-06
-1.09185e-06
2.0843e-06
-9.87932e-07
2.21319e-06
-8.48865e-07
2.2914e-06
-6.51747e-07
2.30921e-06
-4.26449e-07
2.25501e-06
-2.04163e-07
2.13053e-06
-2.43705e-08
1.93456e-06
1.29805e-07
1.6781e-06
2.90418e-07
1.40554e-06
5.05848e-07
1.25635e-06
8.44596e-07
1.4022e-06
1.34974e-06
1.60269e-06
1.7932e-06
1.79906e-06
1.95454e-06
1.99249e-06
1.68975e-06
1.80398e-06
1.28678e-06
1.08554e-06
1.13158e-06
3.59188e-07
-1.68721e-06
6.86948e-07
-1.69511e-06
9.84565e-07
-1.64993e-06
1.26831e-06
-1.6081e-06
1.52749e-06
-1.5271e-06
1.74135e-06
-1.40022e-06
1.90122e-06
-1.25172e-06
2.00588e-06
-1.0926e-06
2.06461e-06
-9.07593e-07
2.09226e-06
-6.79396e-07
2.09558e-06
-4.29764e-07
2.06244e-06
-1.71027e-07
1.97027e-06
6.78043e-08
1.80554e-06
2.94534e-07
1.57435e-06
5.21605e-07
1.31912e-06
7.61077e-07
1.13978e-06
1.02393e-06
1.21306e-06
1.27646e-06
1.47393e-06
1.53233e-06
1.74794e-06
1.68053e-06
1.78003e-06
1.65766e-06
1.41523e-06
1.65158e-06
1.64845e-06
8.5231e-07
2.77875e-07
-1.96509e-06
5.23256e-07
-1.94054e-06
8.21446e-07
-1.9482e-06
1.06694e-06
-1.85368e-06
1.27457e-06
-1.73482e-06
1.47692e-06
-1.60265e-06
1.63949e-06
-1.41436e-06
1.70974e-06
-1.16292e-06
1.69967e-06
-8.9758e-07
1.68663e-06
-6.66408e-07
1.69891e-06
-4.42075e-07
1.7321e-06
-2.04242e-07
1.71402e-06
8.58749e-08
1.60161e-06
4.06938e-07
1.40601e-06
7.17212e-07
1.18649e-06
9.80622e-07
9.97815e-07
1.21263e-06
1.0709e-06
1.20341e-06
1.32543e-06
1.27786e-06
1.58024e-06
1.42578e-06
1.57976e-06
1.65822e-06
1.13329e-06
2.09814e-06
2.13503e-06
6.46829e-07
-3.42907e-07
-1.62219e-06
9.64775e-08
-2.3795e-06
6.5403e-07
-2.50549e-06
7.108e-07
-1.91023e-06
4.33575e-07
-1.45739e-06
7.01854e-07
-1.87073e-06
1.08526e-06
-1.7976e-06
1.33175e-06
-1.40926e-06
1.36082e-06
-9.26525e-07
1.38095e-06
-6.86443e-07
1.41942e-06
-4.80474e-07
1.46959e-06
-2.54361e-07
1.55632e-06
-8.34983e-10
1.4335e-06
5.29757e-07
1.18816e-06
9.62524e-07
1.07865e-06
1.09009e-06
1.23515e-06
1.05607e-06
1.39907e-06
1.03944e-06
1.25202e-06
1.42485e-06
1.38164e-06
1.29608e-06
1.38801e-06
1.65178e-06
1.3102e-06
2.17586e-06
2.502e-06
9.43041e-07
-2.07454e-06
4.52181e-07
-2.18952e-06
-2.2648e-06
-2.99766e-06
-1.6974e-06
-4.33384e-06
-5.7411e-07
-5.13985e-06
-6.51462e-07
-4.93432e-06
-2.07631e-06
-3.75876e-06
-2.97319e-06
-2.53322e-06
-2.63481e-06
-1.78283e-06
-1.67692e-06
-1.11967e-06
-1.34961e-06
-4.83464e-07
-1.11668e-06
2.66357e-07
-1.00418e-06
1.2625e-06
-9.96974e-07
1.97972e-06
-1.87464e-07
2.43281e-06
5.09433e-07
2.85237e-06
6.70501e-07
2.97532e-06
9.33081e-07
2.66304e-06
1.35167e-06
1.32708e-06
2.76077e-06
4.14234e-07
2.20892e-06
1.77617e-07
1.88847e-06
2.52421e-07
2.1013e-06
2.54331e-06
2.1187e-07
2.21367e-06
-1.76104e-06
1.83822e-06
-1.88902e-06
-3.04424e-07
4.45624e-07
-1.27906e-06
4.00866e-07
-9.20099e-07
-1.01017e-06
-1.82658e-06
-1.16964e-06
-2.5678e-06
-2.23185e-06
-2.82171e-06
-2.38081e-06
-2.55877e-06
-1.9398e-06
-2.35637e-06
-1.55198e-06
-2.25212e-06
-1.22094e-06
-2.20338e-06
-1.05295e-06
-1.89202e-06
-1.30839e-06
-9.37723e-07
-1.14182e-06
-8.15319e-08
-3.46835e-07
-5.50076e-08
6.4388e-07
-8.34492e-07
1.71242e-06
-1.45316e-06
1.97013e-06
-1.54357e-06
2.85092e-06
-2.21235e-06
2.87737e-06
-2.80502e-06
2.48065e-06
-3.01389e-06
2.30924e-06
2.17708e-06
-2.64868e-06
-9.1988e-08
-1.66919e-06
-1.03977e-06
-9.41037e-07
-1.16245e-06
5.68333e-07
-1.17795e-06
4.16365e-07
-1.59491e-06
-5.93237e-07
-1.85189e-06
-9.12691e-07
-2.55311e-06
-1.53066e-06
-3.17324e-06
-1.76069e-06
-3.52461e-06
-1.58843e-06
-3.76972e-06
-1.30686e-06
-4.00799e-06
-9.82613e-07
-4.18651e-06
-8.74361e-07
-3.89334e-06
-1.60147e-06
-3.15611e-06
-1.87895e-06
-2.47292e-06
-1.02991e-06
-2.22175e-06
3.92839e-07
-2.25812e-06
1.74891e-06
-2.70101e-06
2.41312e-06
-2.97172e-06
3.12177e-06
-3.41747e-06
3.32332e-06
-3.82829e-06
2.89176e-06
-3.76555e-06
2.24666e-06
2.14062e-06
-3.72904e-06
-1.18464e-06
-4.84559e-07
-1.82204e-06
-3.03393e-07
-1.65721e-06
4.03615e-07
-1.59763e-06
3.56846e-07
-1.96458e-06
-2.2623e-07
-2.28497e-06
-5.9224e-07
-2.8233e-06
-9.92259e-07
-3.40674e-06
-1.17717e-06
-3.83062e-06
-1.16447e-06
-4.10266e-06
-1.03475e-06
-4.25533e-06
-8.2987e-07
-4.2694e-06
-8.60207e-07
-4.30887e-06
-1.56192e-06
-4.39843e-06
-1.78931e-06
-4.36193e-06
-1.06633e-06
-4.192e-06
2.22973e-07
-3.86228e-06
1.41923e-06
-3.81106e-06
2.3619e-06
-3.73109e-06
3.0418e-06
-3.64175e-06
3.23406e-06
-3.67046e-06
2.92066e-06
-3.84164e-06
2.41808e-06
2.09754e-06
-3.79835e-06
-5.92264e-07
1.07964e-07
-1.23757e-06
3.42213e-07
-1.46669e-06
6.32944e-07
-1.64297e-06
5.33303e-07
-2.01537e-06
1.46325e-07
-2.38955e-06
-2.1792e-07
-2.85425e-06
-5.27426e-07
-3.33399e-06
-6.97325e-07
-3.69425e-06
-8.04133e-07
-3.92115e-06
-8.07808e-07
-4.01491e-06
-7.36101e-07
-4.05095e-06
-8.24193e-07
-4.40669e-06
-1.20621e-06
-4.90884e-06
-1.28722e-06
-5.21249e-06
-7.62768e-07
-5.11317e-06
1.23519e-07
-4.80298e-06
1.10885e-06
-4.50276e-06
2.0614e-06
-4.18391e-06
2.72258e-06
-3.9101e-06
2.95986e-06
-3.79156e-06
2.80172e-06
-3.80521e-06
2.43135e-06
2.03752e-06
-3.74561e-06
-6.43807e-07
7.52033e-07
-1.10074e-06
7.99365e-07
-1.33853e-06
8.7091e-07
-1.56488e-06
7.59835e-07
-1.89511e-06
4.76725e-07
-2.26629e-06
1.5343e-07
-2.67162e-06
-1.21936e-07
-3.05894e-06
-3.09887e-07
-3.36869e-06
-4.94294e-07
-3.60349e-06
-5.72966e-07
-3.77903e-06
-5.60558e-07
-3.98798e-06
-6.15284e-07
-4.39146e-06
-8.02782e-07
-4.87493e-06
-8.0383e-07
-5.17567e-06
-4.6212e-07
-5.20081e-06
1.48551e-07
-5.01324e-06
9.21121e-07
-4.67981e-06
1.72775e-06
-4.3003e-06
2.34276e-06
-3.96503e-06
2.62421e-06
-3.74717e-06
2.58342e-06
-3.63872e-06
2.32245e-06
1.92669e-06
-3.52837e-06
-4.45461e-07
1.19764e-06
-8.39781e-07
1.19376e-06
-1.12401e-06
1.15522e-06
-1.38294e-06
1.01886e-06
-1.68314e-06
7.77044e-07
-2.02432e-06
4.94738e-07
-2.37479e-06
2.28643e-07
-2.6917e-06
7.12613e-09
-2.98592e-06
-2.00003e-07
-3.25226e-06
-3.06586e-07
-3.51383e-06
-2.98976e-07
-3.79189e-06
-3.37234e-07
-4.17756e-06
-4.17134e-07
-4.59487e-06
-3.86537e-07
-4.87719e-06
-1.7981e-07
-4.9216e-06
1.92981e-07
-4.76606e-06
7.65619e-07
-4.4847e-06
1.44643e-06
-4.13827e-06
1.99633e-06
-3.79857e-06
2.28449e-06
-3.51915e-06
2.30395e-06
-3.30504e-06
2.10828e-06
1.73059e-06
-3.10898e-06
-3.65031e-07
1.56269e-06
-6.80478e-07
1.50917e-06
-9.41174e-07
1.41591e-06
-1.18907e-06
1.26678e-06
-1.45926e-06
1.04727e-06
-1.75297e-06
7.88498e-07
-2.04708e-06
5.2279e-07
-2.31842e-06
2.7851e-07
-2.60378e-06
8.53855e-08
-2.90461e-06
-5.7333e-09
-3.18977e-06
-1.37979e-08
-3.48205e-06
-4.4947e-08
-3.82149e-06
-7.76889e-08
-4.16306e-06
-4.49642e-08
-4.40785e-06
6.50101e-08
-4.48134e-06
2.66535e-07
-4.38116e-06
6.65547e-07
-4.13375e-06
1.19916e-06
-3.8336e-06
1.69636e-06
-3.5093e-06
1.96036e-06
-3.19543e-06
1.99027e-06
-2.90649e-06
1.81955e-06
1.45968e-06
-2.63535e-06
-2.79408e-07
1.84205e-06
-5.40308e-07
1.77e-06
-7.73801e-07
1.64937e-06
-9.99776e-07
1.49274e-06
-1.23833e-06
1.28582e-06
-1.49214e-06
1.04231e-06
-1.74114e-06
7.71784e-07
-1.98886e-06
5.26239e-07
-2.2669e-06
3.63433e-07
-2.56722e-06
2.94599e-07
-2.84049e-06
2.59482e-07
-3.11099e-06
2.25579e-07
-3.39127e-06
2.02614e-07
-3.65608e-06
2.19882e-07
-3.86586e-06
2.74827e-07
-3.98356e-06
3.84301e-07
-3.94637e-06
6.28446e-07
-3.75682e-06
1.00976e-06
-3.49936e-06
1.43907e-06
-3.1943e-06
1.65549e-06
-2.876e-06
1.67218e-06
-2.56671e-06
1.51048e-06
1.17946e-06
-2.28624e-06
-2.06555e-07
2.04854e-06
-4.19957e-07
1.98336e-06
-6.23674e-07
1.85307e-06
-8.23543e-07
1.6926e-06
-1.03171e-06
1.49398e-06
-1.25243e-06
1.26302e-06
-1.47547e-06
9.94809e-07
-1.71749e-06
7.68259e-07
-1.98488e-06
6.30825e-07
-2.25305e-06
5.62778e-07
-2.50035e-06
5.06797e-07
-2.73537e-06
4.60631e-07
-2.96174e-06
4.29014e-07
-3.1655e-06
4.23681e-07
-3.33828e-06
4.47653e-07
-3.464e-06
5.10063e-07
-3.48483e-06
6.49341e-07
-3.38563e-06
9.10635e-07
-3.16709e-06
1.22063e-06
-2.89044e-06
1.37895e-06
-2.59588e-06
1.37773e-06
-2.31184e-06
1.22655e-06
9.37387e-07
-2.06964e-06
-1.50739e-07
2.19925e-06
-3.20664e-07
2.15332e-06
-4.9467e-07
2.02711e-06
-6.69041e-07
1.86699e-06
-8.50565e-07
1.67551e-06
-1.04398e-06
1.45644e-06
-1.25938e-06
1.21021e-06
-1.49459e-06
1.00346e-06
-1.74231e-06
8.78546e-07
-1.97323e-06
7.93704e-07
-2.18829e-06
7.21872e-07
-2.38869e-06
6.61046e-07
-2.57441e-06
6.14744e-07
-2.73949e-06
5.88779e-07
-2.87796e-06
5.86143e-07
-2.9838e-06
6.15913e-07
-3.03768e-06
7.03239e-07
-2.99236e-06
8.65328e-07
-2.8225e-06
1.05079e-06
-2.59223e-06
1.14869e-06
-2.34183e-06
1.12735e-06
-2.10338e-06
9.88111e-07
7.42824e-07
-1.90882e-06
-1.09167e-07
2.30843e-06
-2.43545e-07
2.28779e-06
-3.911e-07
2.17472e-06
-5.44336e-07
2.02027e-06
-7.05393e-07
1.8366e-06
-8.7971e-07
1.63077e-06
-1.08293e-06
1.41345e-06
-1.30561e-06
1.22615e-06
-1.52273e-06
1.09567e-06
-1.72289e-06
9.93872e-07
-1.90819e-06
9.0717e-07
-2.0793e-06
8.32154e-07
-2.23533e-06
7.70766e-07
-2.37298e-06
7.26422e-07
-2.48934e-06
7.02481e-07
-2.57931e-06
7.05851e-07
-2.62541e-06
7.49305e-07
-2.59593e-06
8.35809e-07
-2.47581e-06
9.30621e-07
-2.29824e-06
9.71073e-07
-2.09955e-06
9.28592e-07
-1.9103e-06
7.98799e-07
5.91077e-07
-1.75863e-06
-7.82614e-08
2.38675e-06
-1.86215e-07
2.39587e-06
-3.14878e-07
2.30347e-06
-4.51443e-07
2.1569e-06
-5.96944e-07
1.98215e-06
-7.56785e-07
1.79065e-06
-9.39313e-07
1.596e-06
-1.13539e-06
1.42225e-06
-1.32286e-06
1.28315e-06
-1.497e-06
1.16802e-06
-1.65729e-06
1.06746e-06
-1.80418e-06
9.79028e-07
-1.93681e-06
9.03382e-07
-2.05306e-06
8.42646e-07
-2.15018e-06
7.99565e-07
-2.22277e-06
7.78391e-07
-2.2576e-06
7.84071e-07
-2.23549e-06
8.13635e-07
-2.14895e-06
8.44002e-07
-2.01674e-06
8.3879e-07
-1.86519e-06
7.76947e-07
-1.71958e-06
6.53106e-07
4.74026e-07
-1.60262e-06
-6.00626e-08
2.44689e-06
-1.5197e-07
2.4879e-06
-2.64203e-07
2.41579e-06
-3.85295e-07
2.27806e-06
-5.15868e-07
2.11279e-06
-6.59278e-07
1.93411e-06
-8.17578e-07
1.75434e-06
-9.83484e-07
1.58819e-06
-1.14436e-06
1.44406e-06
-1.29444e-06
1.31811e-06
-1.43266e-06
1.20569e-06
-1.55862e-06
1.10498e-06
-1.67138e-06
1.01613e-06
-1.76915e-06
9.40388e-07
-1.84912e-06
8.79502e-07
-1.90629e-06
8.35507e-07
-1.93159e-06
8.09317e-07
-1.91414e-06
7.96124e-07
-1.85074e-06
7.80526e-07
-1.75298e-06
7.40953e-07
-1.63912e-06
6.63004e-07
-1.52835e-06
5.42253e-07
3.83518e-07
-1.43793e-06
-5.16959e-08
2.49867e-06
-1.37046e-07
2.57336e-06
-2.32686e-07
2.51152e-06
-3.37711e-07
2.38317e-06
-4.52006e-07
2.22715e-06
-5.76614e-07
2.05878e-06
-7.11045e-07
1.88883e-06
-8.50056e-07
1.72724e-06
-9.85746e-07
1.57978e-06
-1.1135e-06
1.44589e-06
-1.23145e-06
1.32366e-06
-1.33858e-06
1.21211e-06
-1.43371e-06
1.11125e-06
-1.51509e-06
1.02175e-06
-1.58008e-06
9.44473e-07
-1.62459e-06
8.79982e-07
-1.64268e-06
8.27361e-07
-1.62847e-06
7.81855e-07
-1.58114e-06
7.33134e-07
-1.50832e-06
6.68068e-07
-1.42262e-06
5.77237e-07
-1.33799e-06
4.57546e-07
3.1249e-07
-1.26704e-06
-5.16729e-08
2.55041e-06
-1.2924e-07
2.65103e-06
-2.10843e-07
2.59321e-06
-3.00558e-07
2.47296e-06
-3.98306e-07
2.32498e-06
-5.03965e-07
2.16451e-06
-6.16271e-07
2.00119e-06
-7.31451e-07
1.84247e-06
-8.44423e-07
1.69279e-06
-9.51583e-07
1.55308e-06
-1.05085e-06
1.42295e-06
-1.1408e-06
1.30208e-06
-1.22007e-06
1.19052e-06
-1.28694e-06
1.0886e-06
-1.33908e-06
9.96592e-07
-1.37336e-06
9.14237e-07
-1.38602e-06
8.39982e-07
-1.37403e-06
7.69816e-07
-1.33774e-06
6.96784e-07
-1.28246e-06
6.12725e-07
-1.21693e-06
5.11646e-07
-1.15107e-06
3.91611e-07
2.55233e-07
-1.09389e-06
-5.60481e-08
2.60651e-06
-1.21885e-07
2.71696e-06
-1.92177e-07
2.66358e-06
-2.68372e-07
2.54924e-06
-3.50493e-07
2.40717e-06
-4.383e-07
2.25239e-06
-5.30625e-07
2.09358e-06
-6.24851e-07
1.93675e-06
-7.17609e-07
1.78559e-06
-8.061e-07
1.6416e-06
-8.88317e-07
1.50518e-06
-9.62698e-07
1.37646e-06
-1.02777e-06
1.25559e-06
-1.08188e-06
1.14271e-06
-1.12307e-06
1.03776e-06
-1.14904e-06
9.40169e-07
-1.15743e-06
8.48329e-07
-1.14677e-06
7.59115e-07
-1.1179e-06
6.6785e-07
-1.07464e-06
5.69404e-07
-1.02311e-06
4.60043e-07
-9.70259e-07
3.38688e-07
2.07349e-07
-9.22457e-07
-6.22258e-08
2.66879e-06
-1.14218e-07
2.76905e-06
-1.75033e-07
2.72448e-06
-2.38907e-07
2.61319e-06
-3.06418e-07
2.47476e-06
-3.77744e-07
2.32378e-06
-4.52184e-07
2.16808e-06
-5.28015e-07
2.01263e-06
-6.02937e-07
1.86055e-06
-6.74772e-07
1.71346e-06
-7.41696e-07
1.57212e-06
-8.02147e-07
1.43692e-06
-8.54648e-07
1.30808e-06
-8.97672e-07
1.18571e-06
-9.29579e-07
1.06964e-06
-9.48681e-07
9.59233e-07
-9.53517e-07
8.5312e-07
-9.43446e-07
7.48991e-07
-9.19387e-07
6.4373e-07
-8.84163e-07
5.34112e-07
-8.42063e-07
4.17871e-07
-7.97955e-07
2.94504e-07
1.65594e-07
-7.56285e-07
-6.32201e-08
2.73207e-06
-1.09309e-07
2.81524e-06
-1.60098e-07
2.77536e-06
-2.11553e-07
2.66473e-06
-2.64957e-07
2.52823e-06
-3.20998e-07
2.37988e-06
-3.79427e-07
2.22656e-06
-4.39128e-07
2.07237e-06
-4.98456e-07
1.91991e-06
-5.55667e-07
1.77069e-06
-6.09132e-07
1.6256e-06
-6.57354e-07
1.48514e-06
-6.98914e-07
1.34963e-06
-7.32416e-07
1.21919e-06
-7.56492e-07
1.09369e-06
-7.69882e-07
9.72585e-07
-7.71656e-07
8.54848e-07
-7.61578e-07
7.3886e-07
-7.40496e-07
6.22587e-07
-7.10488e-07
5.04039e-07
-6.74581e-07
3.81895e-07
-6.36171e-07
2.56022e-07
1.27692e-07
-5.98345e-07
-5.90712e-08
2.79119e-06
-1.064e-07
2.86266e-06
-1.46559e-07
2.81559e-06
-1.85146e-07
2.70338e-06
-2.24827e-07
2.56798e-06
-2.66748e-07
2.42186e-06
-3.10941e-07
2.2708e-06
-3.56622e-07
2.11809e-06
-4.0251e-07
1.96582e-06
-4.47136e-07
1.81533e-06
-4.89023e-07
1.66749e-06
-5.26756e-07
1.52287e-06
-5.58993e-07
1.38186e-06
-5.84467e-07
1.24465e-06
-6.02014e-07
1.11121e-06
-6.1066e-07
9.81198e-07
-6.09778e-07
8.53925e-07
-5.99306e-07
7.28342e-07
-5.79953e-07
6.03183e-07
-5.53243e-07
4.77273e-07
-5.21313e-07
3.49909e-07
-4.86532e-07
2.21184e-07
9.21352e-08
-4.51036e-07
-5.81172e-08
2.84936e-06
-1.02981e-07
2.9076e-06
-1.31618e-07
2.84429e-06
-1.57408e-07
2.72923e-06
-1.84222e-07
2.59484e-06
-2.1348e-07
2.45116e-06
-2.45313e-07
2.30267e-06
-2.79077e-07
2.15188e-06
-3.13664e-07
2.00043e-06
-3.47753e-07
1.84944e-06
-3.79969e-07
1.69971e-06
-4.0897e-07
1.55187e-06
-4.33491e-07
1.40637e-06
-4.5237e-07
1.26352e-06
-4.64595e-07
1.12341e-06
-4.69374e-07
9.85953e-07
-4.66245e-07
8.50768e-07
-4.55205e-07
7.17268e-07
-4.36807e-07
5.84748e-07
-4.12158e-07
4.52585e-07
-3.82771e-07
3.20482e-07
-3.50299e-07
1.88672e-07
5.80112e-08
-3.16215e-07
-5.82847e-08
2.90769e-06
-9.43717e-08
2.94374e-06
-1.11483e-07
2.86145e-06
-1.25649e-07
2.74344e-06
-1.41215e-07
2.61044e-06
-1.59691e-07
2.46967e-06
-1.81238e-07
2.32424e-06
-2.05253e-07
2.17592e-06
-2.30693e-07
2.02589e-06
-2.56303e-07
1.87506e-06
-2.80764e-07
1.72418e-06
-3.02789e-07
1.5739e-06
-3.21174e-07
1.42476e-06
-3.34844e-07
1.27718e-06
-3.42896e-07
1.13146e-06
-3.44653e-07
9.87697e-07
-3.39739e-07
8.45839e-07
-3.28153e-07
7.05664e-07
-3.10306e-07
5.66881e-07
-2.86999e-07
4.29257e-07
-2.59304e-07
2.92768e-07
-2.28381e-07
1.57729e-07
2.48583e-08
-1.95247e-07
-5.3048e-08
2.96078e-06
-7.57706e-08
2.9665e-06
-8.33316e-08
2.86904e-06
-8.80105e-08
2.74814e-06
-9.44287e-08
2.61688e-06
-1.04252e-07
2.47951e-06
-1.177e-07
2.33771e-06
-1.34172e-07
2.19241e-06
-1.52621e-07
2.04435e-06
-1.71797e-07
1.89425e-06
-1.90399e-07
1.74279e-06
-2.07173e-07
1.59068e-06
-2.20967e-07
1.43855e-06
-2.30771e-07
1.28699e-06
-2.35759e-07
1.13644e-06
-2.35332e-07
9.87268e-07
-2.29159e-07
8.39663e-07
-2.17218e-07
6.93719e-07
-1.99807e-07
5.49465e-07
-1.77506e-07
4.06951e-07
-1.51084e-07
2.66342e-07
-1.21362e-07
1.28005e-07
-7.45607e-09
-8.90486e-08
-3.76464e-08
2.99844e-06
-4.87679e-08
2.97763e-06
-4.77886e-08
2.86807e-06
-4.45221e-08
2.74488e-06
-4.352e-08
2.61589e-06
-4.66452e-08
2.48264e-06
-5.4102e-08
2.34517e-06
-6.51841e-08
2.2035e-06
-7.87507e-08
2.05793e-06
-9.34849e-08
1.90899e-06
-1.0807e-07
1.75738e-06
-1.21264e-07
1.60388e-06
-1.31953e-07
1.44925e-06
-1.3918e-07
1.29422e-06
-1.4218e-07
1.13945e-06
-1.40406e-07
9.855e-07
-1.33554e-07
8.32818e-07
-1.21583e-07
6.81755e-07
-1.04708e-07
5.32597e-07
-8.33563e-08
3.85607e-07
-5.80952e-08
2.4109e-07
-2.95199e-08
9.94398e-08
-3.88304e-08
1.86619e-09
-1.90245e-08
3.01748e-06
-1.76877e-08
2.97629e-06
-7.55175e-09
2.85793e-06
3.68507e-09
2.73364e-06
1.12018e-08
2.60837e-06
1.31924e-08
2.48065e-06
9.78097e-09
2.34858e-06
2.02364e-09
2.21125e-06
-8.66932e-09
2.06862e-06
-2.08648e-08
1.92119e-06
-3.31827e-08
1.76971e-06
-4.43779e-08
1.61508e-06
-5.33651e-08
1.45824e-06
-5.92358e-08
1.3001e-06
-6.12748e-08
1.1415e-06
-5.89776e-08
9.83214e-07
-5.20639e-08
8.25917e-07
-4.04817e-08
6.70187e-07
-2.43922e-08
5.16522e-07
-4.12851e-09
3.65359e-07
1.98719e-08
2.17106e-07
4.71557e-08
7.21733e-08
-6.90066e-08
7.7351e-08
-1.4731e-09
3.01895e-06
1.44369e-08
2.96037e-06
3.5749e-08
2.8366e-06
5.58889e-08
2.71349e-06
6.95281e-08
2.59472e-06
7.52218e-08
2.47495e-06
7.39726e-08
2.34982e-06
6.75521e-08
2.21767e-06
5.77825e-08
2.07839e-06
4.6335e-08
1.93263e-06
3.46619e-08
1.78138e-06
2.4011e-08
1.62574e-06
1.54342e-08
1.46683e-06
9.79237e-09
1.30575e-06
7.75153e-09
1.14355e-06
9.7762e-09
9.81202e-07
1.6123e-08
8.19585e-07
2.68433e-08
6.59483e-07
4.18014e-08
5.01581e-07
6.07153e-08
3.46463e-07
8.3219e-08
1.94622e-07
1.08941e-07
4.64717e-08
-9.76309e-08
1.37587e-07
1.74623e-08
3.00148e-06
4.6643e-08
2.93116e-06
8.18054e-08
2.80142e-06
1.12296e-07
2.68298e-06
1.31628e-07
2.57538e-06
1.39359e-07
2.46721e-06
1.38227e-07
2.35095e-06
1.31138e-07
2.22475e-06
1.20485e-07
2.08904e-06
1.08163e-07
1.94495e-06
9.56898e-08
1.79386e-06
8.42958e-08
1.63713e-06
7.49847e-08
1.47614e-06
6.85615e-08
1.31218e-06
6.56413e-08
1.14648e-06
6.66485e-08
9.80208e-07
7.18138e-08
8.14434e-07
8.11777e-08
6.50136e-07
9.46086e-08
4.88168e-07
1.11841e-07
3.2925e-07
1.32535e-07
1.73946e-07
1.56355e-07
2.26718e-08
-1.24301e-07
1.83046e-07
3.39637e-08
2.9675e-06
8.08411e-08
2.88426e-06
1.32124e-07
2.75012e-06
1.74112e-07
2.64098e-06
1.97928e-07
2.55154e-06
2.05312e-07
2.45981e-06
2.01959e-07
2.35429e-06
1.92233e-07
2.23447e-06
1.79058e-07
2.10221e-06
1.64475e-07
1.95953e-06
1.49994e-07
1.80834e-06
1.36783e-07
1.65035e-06
1.25772e-07
1.48716e-06
1.177e-07
1.32026e-06
1.13127e-07
1.15106e-06
1.1244e-07
9.80906e-07
1.15843e-07
8.11044e-07
1.23362e-07
6.42632e-07
1.34855e-07
4.76691e-07
1.50046e-07
3.14075e-07
1.68587e-07
1.55422e-07
1.90138e-07
1.13792e-09
-1.48601e-07
2.14457e-07
5.66083e-08
2.91087e-06
1.22312e-07
2.81853e-06
1.90036e-07
2.68238e-06
2.43701e-07
2.5873e-06
2.68117e-07
2.52711e-06
2.71868e-07
2.45605e-06
2.63888e-07
2.36226e-06
2.49834e-07
2.24852e-06
2.32869e-07
2.11917e-06
2.1499e-07
1.97741e-06
1.97598e-07
1.82573e-06
1.81751e-07
1.66619e-06
1.68282e-07
1.50063e-06
1.57854e-07
1.33069e-06
1.50975e-07
1.15795e-06
1.47996e-07
9.83894e-07
1.49104e-07
8.09947e-07
1.54312e-07
6.37436e-07
1.63463e-07
4.67554e-07
1.76255e-07
3.01296e-07
1.92301e-07
1.39391e-07
2.11222e-07
-1.77696e-08
-1.70128e-07
2.32764e-07
1.00918e-07
2.80994e-06
1.8872e-07
2.73071e-06
2.6724e-07
2.60384e-06
3.16886e-07
2.53764e-06
3.39427e-07
2.50456e-06
3.36071e-07
2.45939e-06
3.21906e-07
2.37641e-06
3.02619e-07
2.2678e-06
2.81184e-07
2.14059e-06
2.59418e-07
1.99917e-06
2.3856e-07
1.84658e-06
2.19532e-07
1.68522e-06
2.03064e-07
1.5171e-06
1.89742e-07
1.34402e-06
1.80024e-07
1.16767e-06
1.7424e-07
9.89684e-07
1.72571e-07
8.11624e-07
1.75032e-07
6.34984e-07
1.81457e-07
4.61138e-07
1.91513e-07
2.91251e-07
2.04748e-07
1.26167e-07
2.20706e-07
-3.37175e-08
-1.88509e-07
2.39099e-07
1.8085e-07
2.62908e-06
2.94696e-07
2.61685e-06
3.66998e-07
2.53152e-06
3.98024e-07
2.5066e-06
4.07238e-07
2.49533e-06
3.95113e-07
2.4715e-06
3.74373e-07
2.39714e-06
3.49655e-07
2.29251e-06
3.23555e-07
2.16669e-06
2.97675e-07
2.02504e-06
2.73089e-07
1.87116e-06
2.50582e-07
1.70772e-06
2.30779e-07
1.5369e-06
2.14187e-07
1.36061e-06
2.01222e-07
1.18064e-06
1.92203e-07
9.98708e-07
1.87323e-07
8.16508e-07
1.86626e-07
6.35688e-07
1.89962e-07
4.57809e-07
1.96972e-07
2.84247e-07
2.0712e-07
1.16027e-07
2.19825e-07
-4.64155e-08
-2.03412e-07
2.34736e-07
2.94699e-07
2.33437e-06
4.36451e-07
2.47508e-06
4.84053e-07
2.48391e-06
4.91252e-07
2.49939e-06
4.73385e-07
2.51319e-06
4.50236e-07
2.49464e-06
4.21827e-07
2.42554e-06
3.91143e-07
2.32318e-06
3.60131e-07
2.1977e-06
3.30012e-07
2.05516e-06
3.01607e-07
1.89957e-06
2.75516e-07
1.73381e-06
2.52222e-07
1.56019e-06
2.32141e-07
1.38069e-06
2.15643e-07
1.19714e-06
2.03038e-07
1.01131e-06
1.94558e-07
8.24992e-07
1.90305e-07
6.39945e-07
1.90191e-07
4.57927e-07
1.93868e-07
2.80575e-07
2.00703e-07
1.09196e-07
2.09918e-07
-5.56264e-08
-2.1455e-07
2.21062e-07
4.269e-07
1.90746e-06
5.93333e-07
2.30864e-06
6.14599e-07
2.46264e-06
5.86087e-07
2.52789e-06
5.43327e-07
2.55594e-06
5.04261e-07
2.5337e-06
4.65522e-07
2.46428e-06
4.27643e-07
2.36106e-06
3.91257e-07
2.23408e-06
3.56813e-07
2.0896e-06
3.24647e-07
1.93173e-06
2.95047e-07
1.76341e-06
2.68292e-07
1.58695e-06
2.44671e-07
1.40431e-06
2.24486e-07
1.21732e-06
2.0804e-07
1.02776e-06
1.95612e-07
8.37422e-07
1.87405e-07
6.48155e-07
1.83455e-07
4.61879e-07
1.83504e-07
2.80529e-07
1.86845e-07
1.05858e-07
1.92391e-07
-6.11689e-08
-2.21686e-07
1.9953e-07
5.67494e-07
1.33996e-06
7.49017e-07
2.12711e-06
7.43374e-07
2.46827e-06
6.79148e-07
2.59211e-06
6.12752e-07
2.62234e-06
5.54938e-07
2.59151e-06
5.04166e-07
2.51505e-06
4.58491e-07
2.40673e-06
4.16746e-07