/*--------------------------------*- C++ -*----------------------------------*\
  =========                 |
  \\      /  F ield         | OpenFOAM: The Open Source CFD Toolbox
   \\    /   O peration     | Website:  https://openfoam.org
    \\  /    A nd           | Version:  9
     \\/     M anipulation  |
\*---------------------------------------------------------------------------*/
FoamFile
{
    format      ascii;
    class       volVectorField;
    location    "8.14";
    object      U;
}
// * * * * * * * * * * * * * * * * * * * * * * * * * * * * * * * * * * * * * //

dimensions      [0 1 -1 0 0 0 0];

internalField   nonuniform List<vector> 
2268
(
(0.0005164 -0.00028112 0)
(0.00177147 -0.000381979 0)
(0.00320883 -0.000399752 0)
(0.00467652 -0.000398954 0)
(0.00613731 -0.000397461 0)
(0.00757883 -0.000394351 0)
(0.00898879 -0.000387438 0)
(0.010354 -0.000374857 0)
(0.0116389 -0.00034693 0)
(0.0127873 -0.000306853 0)
(0.0137863 -0.000278708 0)
(0.01471 -0.000290683 0)
(0.0157202 -0.000365272 0)
(0.0169808 -0.00047944 0)
(0.0184803 -0.000541444 0)
(0.0198714 -0.000339043 0)
(0.0199143 0.000389695 0)
(0.0170614 0.00125986 0)
(0.011388 0.00239386 0)
(0.00190795 0.0030633 0)
(-0.00629607 0.00136996 0)
(-0.00809913 -0.000732006 0)
(-0.00407208 -0.00182163 0)
(0.000625001 -0.000795224 0)
(0.00192607 -0.00100226 0)
(0.0033444 -0.00106574 0)
(0.00483741 -0.00106974 0)
(0.00631983 -0.0010583 0)
(0.00777002 -0.00103678 0)
(0.0091693 -0.00100482 0)
(0.0105019 -0.000956645 0)
(0.0117368 -0.000875749 0)
(0.0128244 -0.000768191 0)
(0.0137434 -0.000680602 0)
(0.0145366 -0.000671647 0)
(0.015303 -0.000774698 0)
(0.0161329 -0.000932912 0)
(0.0169923 -0.000951852 0)
(0.017617 -0.00042857 0)
(0.0172928 0.00108737 0)
(0.0148122 0.0030168 0)
(0.0104181 0.00496875 0)
(0.00444303 0.00599634 0)
(-0.00101105 0.00347003 0)
(-0.00459599 -0.000149108 0)
(-0.00399473 -0.00424158 0)
(0.000717 -0.00139892 0)
(0.00207283 -0.00164292 0)
(0.00348005 -0.00173313 0)
(0.00496128 -0.00174956 0)
(0.00643089 -0.00173015 0)
(0.00786199 -0.00168793 0)
(0.00923246 -0.00162644 0)
(0.0105259 -0.0015373 0)
(0.0117116 -0.00139727 0)
(0.012738 -0.0012128 0)
(0.013572 -0.0010488 0)
(0.0142317 -0.000987176 0)
(0.0147799 -0.00107118 0)
(0.0152757 -0.00122108 0)
(0.0156982 -0.00117452 0)
(0.0158986 -0.000397273 0)
(0.0153324 0.00174791 0)
(0.0130307 0.0045132 0)
(0.00947513 0.00685859 0)
(0.00581487 0.00794714 0)
(0.00220061 0.00537856 0)
(-0.00191595 0.00101568 0)
(-0.00273965 -0.0058886 0)
(0.000774719 -0.00206338 0)
(0.00218698 -0.00232012 0)
(0.00361165 -0.00241561 0)
(0.00509021 -0.00243636 0)
(0.00655039 -0.00240487 0)
(0.00796363 -0.0023374 0)
(0.00930687 -0.00224168 0)
(0.0105648 -0.00210697 0)
(0.0117068 -0.00190179 0)
(0.012675 -0.00163018 0)
(0.0134226 -0.00137175 0)
(0.0139467 -0.00122852 0)
(0.0142869 -0.00125499 0)
(0.0144891 -0.00135896 0)
(0.0145597 -0.00123932 0)
(0.0144738 -0.000268589 0)
(0.0138897 0.00238989 0)
(0.0119401 0.00580365 0)
(0.00906313 0.00829159 0)
(0.00667314 0.00923683 0)
(0.00414488 0.00704476 0)
(0.000270593 0.00238918 0)
(-0.00116965 -0.00660563 0)
(0.000813389 -0.00275377 0)
(0.00227705 -0.00302237 0)
(0.00373738 -0.00311195 0)
(0.00522634 -0.00313006 0)
(0.00668511 -0.00308173 0)
(0.00808432 -0.00298407 0)
(0.00940179 -0.00284945 0)
(0.0106254 -0.00266503 0)
(0.0117251 -0.00238862 0)
(0.0126353 -0.00201834 0)
(0.0132949 -0.00164622 0)
(0.0136829 -0.00139309 0)
(0.0138227 -0.00132768 0)
(0.0137542 -0.00135547 0)
(0.0135089 -0.00116525 0)
(0.0131716 -9.85227e-05 0)
(0.0126766 0.00290925 0)
(0.0111836 0.00687374 0)
(0.00891118 0.0093916 0)
(0.00728035 0.0101089 0)
(0.00538267 0.00845006 0)
(0.00214632 0.00368646 0)
(0.000736108 -0.00635621 0)
(0.000846001 -0.00346573 0)
(0.0023592 -0.00374408 0)
(0.00386204 -0.00381892 0)
(0.00537059 -0.00382658 0)
(0.00683419 -0.00375499 0)
(0.00822138 -0.00362093 0)
(0.00951167 -0.00344237 0)
(0.0106979 -0.00320469 0)
(0.0117525 -0.0028519 0)
(0.0126025 -0.00237214 0)
(0.013174 -0.00186833 0)
(0.0134304 -0.00147969 0)
(0.0133826 -0.00129259 0)
(0.013065 -0.00121742 0)
(0.0125201 -0.000954626 0)
(0.0118891 0.000125233 0)
(0.011474 0.00323433 0)
(0.0105249 0.00770409 0)
(0.00889785 0.0102068 0)
(0.00777429 0.010715 0)
(0.00632312 0.00959344 0)
(0.0040588 0.0046883 0)
(0.00291557 -0.00527215 0)
(0.000878784 -0.00420006 0)
(0.00244635 -0.00448697 0)
(0.00398982 -0.00453864 0)
(0.00552179 -0.00452774 0)
(0.00699271 -0.00442467 0)
(0.00836671 -0.00424612 0)
(0.00962467 -0.00401725 0)
(0.0107655 -0.00372263 0)
(0.0117668 -0.00328925 0)
(0.0125516 -0.00269047 0)
(0.013036 -0.00203941 0)
(0.0131716 -0.0014934 0)
(0.0129585 -0.00115965 0)
(0.0124231 -0.000955978 0)
(0.0116 -0.000604181 0)
(0.0106201 0.000459836 0)
(0.0100512 0.0034106 0)
(0.00968591 0.00818394 0)
(0.00900093 0.0107231 0)
(0.00821694 0.0111956 0)
(0.00727974 0.0103048 0)
(0.00642081 0.00527356 0)
(0.00527361 -0.00355321 0)
(0.000924408 -0.00499845 0)
(0.00254199 -0.00526359 0)
(0.00412005 -0.00528345 0)
(0.0056745 -0.00524483 0)
(0.00715155 -0.00509964 0)
(0.00850834 -0.00486568 0)
(0.00972561 -0.00457669 0)
(0.010808 -0.0042187 0)
(0.0117414 -0.00369969 0)
(0.0124511 -0.00297303 0)
(0.0128505 -0.00216262 0)
(0.012883 -0.00144045 0)
(0.012539 -0.0009389 0)
(0.0118338 -0.000581898 0)
(0.0107855 -0.000113301 0)
(0.00949555 0.000957706 0)
(0.00856002 0.00361713 0)
(0.00855305 0.00820637 0)
(0.00887962 0.0108475 0)
(0.00862099 0.011514 0)
(0.00850239 0.0103675 0)
(0.00879977 0.00573171 0)
(0.00743032 0.000682252 0)
(-0.0158057 0.00388579 0)
(-0.0142687 -0.00134751 0)
(-0.00686293 -0.00230198 0)
(-0.00118121 -0.00144085 0)
(0.0022325 -0.00100346 0)
(0.00464013 -0.000616898 0)
(0.00584309 -0.000248076 0)
(0.00694942 -0.000470978 0)
(0.00860739 -0.000473252 0)
(0.00878571 0.000201547 0)
(0.00626116 0.00117843 0)
(-4.28102e-05 0.00276167 0)
(-0.0107562 0.00291431 0)
(-0.0171663 0.000570278 0)
(-0.0173049 -0.000506491 0)
(-0.0142351 -0.00130962 0)
(-0.0107174 -0.00125481 0)
(-0.00708977 -0.00190223 0)
(0.00160172 -0.000214755 0)
(-0.013477 0.00912789 0)
(-0.00784237 -0.00279392 0)
(-0.00459632 -0.00396515 0)
(-0.00155031 -0.00258493 0)
(2.08041e-05 -0.00166231 0)
(0.000959113 -0.00104083 0)
(0.00169748 -0.000677329 0)
(0.00262201 -0.000858737 0)
(0.0032459 -0.000422093 0)
(0.00213112 0.000997502 0)
(-0.000492551 0.00259566 0)
(-0.00371814 0.00485175 0)
(-0.00822525 0.00504236 0)
(-0.0117074 0.00183491 0)
(-0.0133568 -0.000401469 0)
(-0.0124147 -0.00194765 0)
(-0.0115286 -0.00195607 0)
(-0.0104731 -0.00340659 0)
(-0.00374185 -0.00225537 0)
(-0.0061532 0.0122396 0)
(-0.00298167 -0.00399884 0)
(-0.00265089 -0.00477977 0)
(-0.00179096 -0.00309564 0)
(-0.00147297 -0.00191378 0)
(-0.00133633 -0.00120466 0)
(-0.0011248 -0.00094412 0)
(-0.000659554 -0.00106026 0)
(-0.000513649 -0.000178363 0)
(-0.00200735 0.00189789 0)
(-0.00457135 0.00359239 0)
(-0.00617457 0.00565558 0)
(-0.00706571 0.00577968 0)
(-0.00877433 0.00282603 0)
(-0.0107397 4.06765e-05 0)
(-0.0106372 -0.00202883 0)
(-0.0112632 -0.00183367 0)
(-0.0121684 -0.00455252 0)
(-0.00723869 -0.00618722 0)
(0.000808316 0.0131156 0)
(0.0007515 -0.00397117 0)
(-0.00135443 -0.00459866 0)
(-0.00220893 -0.00301192 0)
(-0.00286786 -0.00183309 0)
(-0.00336183 -0.00113914 0)
(-0.00363814 -0.00100279 0)
(-0.00357647 -0.00111318 0)
(-0.00363351 0.000126633 0)
(-0.00499717 0.00275839 0)
(-0.00710494 0.00433474 0)
(-0.00777614 0.00583816 0)
(-0.00709557 0.00584637 0)
(-0.00761396 0.00347995 0)
(-0.00900092 0.000488993 0)
(-0.00879537 -0.00189053 0)
(-0.00990289 -0.00117141 0)
(-0.011643 -0.00535022 0)
(-0.00752345 -0.0106445 0)
(0.00572388 0.0115723 0)
(0.00304085 -0.00283614 0)
(-0.000889386 -0.00361531 0)
(-0.00294205 -0.00244709 0)
(-0.00432758 -0.00145605 0)
(-0.00533438 -0.000861514 0)
(-0.00604927 -0.000882624 0)
(-0.00633418 -0.00107061 0)
(-0.00643701 0.000393588 0)
(-0.00741876 0.0034492 0)
(-0.00887423 0.00479054 0)
(-0.00886435 0.00566789 0)
(-0.00753878 0.00555324 0)
(-0.00744693 0.0038047 0)
(-0.00791052 0.000593582 0)
(-0.0068342 -0.00189524 0)
(-0.00730345 -0.000431538 0)
(-0.00890719 -0.00591589 0)
(-0.0056215 -0.0143943 0)
(0.00704258 0.0090679 0)
(0.00327006 -0.00105707 0)
(-0.00133256 -0.00215377 0)
(-0.00402625 -0.00156273 0)
(-0.00588431 -0.000856165 0)
(-0.00728446 -0.000400645 0)
(-0.00838588 -0.000597972 0)
(-0.00899449 -0.000964264 0)
(-0.00906032 0.000539471 0)
(-0.00949066 0.00391246 0)
(-0.0102388 0.00496783 0)
(-0.00969999 0.005278 0)
(-0.0080259 0.00507088 0)
(-0.00752799 0.00388419 0)
(-0.00710318 0.000225779 0)
(-0.00496226 -0.00239642 0)
(-0.00393121 -9.74774e-05 0)
(-0.00470958 -0.00616765 0)
(-0.00278865 -0.0168398 0)
(0.00552937 0.00701354 0)
(0.00185239 0.000822142 0)
(-0.00249517 -0.000561844 0)
(-0.00539488 -0.000519995 0)
(-0.00751095 -0.000113182 0)
(-0.00918592 0.000209509 0)
(-0.0106119 -0.000159057 0)
(-0.0115778 -0.000788271 0)
(-0.0116529 0.000519866 0)
(-0.0113361 0.00405396 0)
(-0.0112531 0.00491865 0)
(-0.010333 0.00473864 0)
(-0.00849966 0.00447064 0)
(-0.00748612 0.00368947 0)
(-0.00596674 -0.000589664 0)
(-0.00329259 -0.00334511 0)
(-0.00103643 -0.000435552 0)
(-0.000381239 -0.0062897 0)
(0.000390648 -0.0177312 0)
(0.00223203 0.00590249 0)
(-0.000284307 0.00237922 0)
(-0.00405101 0.000934745 0)
(-0.00691977 0.000583328 0)
(-0.00915649 0.000723582 0)
(-0.0109922 0.00093316 0)
(-0.0126429 0.000424948 0)
(-0.0139962 -0.000475127 0)
(-0.014232 0.0003482 0)
(-0.0131587 0.0037241 0)
(-0.0120383 0.00460067 0)
(-0.0106883 0.00407085 0)
(-0.00877673 0.00376608 0)
(-0.0069812 0.00302178 0)
(-0.0042157 -0.00177536 0)
(-0.00173439 -0.00438213 0)
(0.00106145 -0.0014883 0)
(0.00342158 -0.00653937 0)
(0.00350353 -0.0167953 0)
(0.00100429 -0.00630954 0)
(0.00269231 -0.00656262 0)
(0.0043156 -0.00653455 0)
(0.00589848 -0.00643395 0)
(0.00737919 -0.00620014 0)
(0.0087018 -0.00585569 0)
(0.00984139 -0.00544691 0)
(0.0108049 -0.00496808 0)
(0.0115951 -0.00430001 0)
(0.01216 -0.00335863 0)
(0.012429 -0.00228728 0)
(0.0123419 -0.00126276 0)
(0.0118692 -0.000464208 0)
(0.0110023 0.000182118 0)
(0.00974108 0.00089186 0)
(0.00819521 0.00201582 0)
(0.00692075 0.00415865 0)
(0.00692908 0.00772189 0)
(0.00800781 0.0103325 0)
(0.00914504 0.0112332 0)
(0.0102837 0.00969552 0)
(0.0106012 0.00654043 0)
(0.00871702 0.00490727 0)
(0.00118149 -0.00847315 0)
(0.00284412 -0.0086754 0)
(0.00451078 -0.00846648 0)
(0.006093 -0.00820672 0)
(0.00755017 -0.00778587 0)
(0.0088223 -0.00720159 0)
(0.00984482 -0.00653276 0)
(0.0105606 -0.00579835 0)
(0.0109824 -0.00488296 0)
(0.0111987 -0.00368838 0)
(0.0112866 -0.00234504 0)
(0.0112297 -0.00099355 0)
(0.0109216 0.000192603 0)
(0.0102359 0.00125833 0)
(0.00912758 0.00233166 0)
(0.00770419 0.00356128 0)
(0.00638164 0.0051513 0)
(0.0060734 0.0072075 0)
(0.00710965 0.00907892 0)
(0.00873805 0.00990114 0)
(0.00978544 0.00913897 0)
(0.00900329 0.00809635 0)
(0.00650807 0.00769792 0)
(0.0014916 -0.0105576 0)
(0.00176697 -0.0101459 0)
(0.00368855 -0.00965153 0)
(0.00518178 -0.00932916 0)
(0.00631019 -0.00878683 0)
(0.00738655 -0.00794695 0)
(0.00843809 -0.00697881 0)
(0.00909021 -0.00600683 0)
(0.00920945 -0.00494046 0)
(0.00909819 -0.00368927 0)
(0.00909402 -0.00232009 0)
(0.00925198 -0.000893205 0)
(0.00934932 0.000488287 0)
(0.00902052 0.00180447 0)
(0.00813644 0.00312504 0)
(0.00689656 0.00448369 0)
(0.00565321 0.00585807 0)
(0.00532564 0.00701877 0)
(0.00631835 0.00814593 0)
(0.00793995 0.00897079 0)
(0.0088668 0.00924621 0)
(0.00764248 0.00961963 0)
(0.00501701 0.00981849 0)
(-0.000423536 -0.0111583 0)
(-0.00149371 -0.00998503 0)
(0.00241969 -0.00982674 0)
(0.00379936 -0.00940584 0)
(0.00295466 -0.00864718 0)
(0.00296405 -0.00802333 0)
(0.00491054 -0.00700757 0)
(0.00667443 -0.00583602 0)
(0.00730556 -0.00460266 0)
(0.00732103 -0.00345206 0)
(0.00745551 -0.00221892 0)
(0.00774844 -0.000924774 0)
(0.00823752 0.000508759 0)
(0.00818125 0.0020088 0)
(0.00711905 0.00349788 0)
(0.0060425 0.00479408 0)
(0.00599296 0.00603017 0)
(0.00675194 0.00647596 0)
(0.00690723 0.00742282 0)
(0.00728005 0.00814625 0)
(0.00798991 0.00874952 0)
(0.00752447 0.010207 0)
(0.00615985 0.0101105 0)
(-0.0123297 -0.00366302 0)
(-0.0108302 -0.0162116 0)
(-0.0132861 -0.0179655 0)
(-0.0203837 -0.0111002 0)
(-0.0265453 -0.00746486 0)
(-0.0273414 -0.0133451 0)
(-0.0234432 -0.0140881 0)
(-0.0167965 -0.0106735 0)
(-0.0114007 -0.00608183 0)
(-0.00764241 -0.00446653 0)
(-0.00433035 -0.00353579 0)
(-0.000709823 -0.00251195 0)
(0.00399716 -0.000842448 0)
(0.00879444 0.00361932 0)
(0.0121866 0.00729844 0)
(0.0145144 0.0073715 0)
(0.0158265 0.00611224 0)
(0.0154797 0.00476865 0)
(0.0112726 0.008015 0)
(0.00415383 0.00563761 0)
(0.000981151 0.0090498 0)
(0.000803631 0.0148739 0)
(0.0025205 0.0184739 0)
(0.00733086 0.00645176 0)
(0.0145276 -0.00892763 0)
(0.00368093 -0.000820256 0)
(-0.006311 0.00279586 0)
(-0.00551858 -0.00211625 0)
(-0.00646066 -0.00841715 0)
(-0.0124287 -0.0151449 0)
(-0.0149492 -0.0148187 0)
(-0.0145403 -0.0103078 0)
(-0.0131006 -0.00845747 0)
(-0.0123599 -0.00702108 0)
(-0.0121804 -0.00651088 0)
(-0.0113991 -0.00748868 0)
(-0.00778394 -0.0046482 0)
(-0.00211101 -0.000249688 0)
(0.000804826 0.00217879 0)
(-0.00174661 0.00602647 0)
(-0.00620681 0.00872737 0)
(-0.00800211 0.0165113 0)
(-0.0101016 0.0145387 0)
(-0.0138592 0.0117385 0)
(-0.0160804 0.0110841 0)
(-0.0155458 0.0125982 0)
(0.00130782 -0.0208564 0)
(-0.00272765 -0.00971913 0)
(-0.00667492 0.00446734 0)
(-0.00650567 0.00235115 0)
(-0.00712704 -0.00574439 0)
(-0.00887712 -0.00548158 0)
(-0.0119188 -0.0103969 0)
(-0.0156686 -0.0119484 0)
(-0.0181917 -0.0103654 0)
(-0.0196428 -0.00849501 0)
(-0.020987 -0.00651322 0)
(-0.0222584 -0.00567512 0)
(-0.0220676 -0.00855475 0)
(-0.0191387 -0.00911226 0)
(-0.0148986 -0.0042994 0)
(-0.0120884 0.00309342 0)
(-0.0116406 0.0101672 0)
(-0.0133413 0.0123749 0)
(-0.0151805 0.0166569 0)
(-0.0169965 0.0172489 0)
(-0.0195564 0.0146537 0)
(-0.0207492 0.0121982 0)
(-0.0213034 0.0113055 0)
(-0.00414232 -0.000732802 0)
(-0.00867304 -0.0019925 0)
(-0.00967847 0.0024362 0)
(-0.00845505 0.00202601 0)
(-0.0093376 -0.00196213 0)
(-0.0112578 -0.0039107 0)
(-0.0136303 -0.00664771 0)
(-0.0168598 -0.00779348 0)
(-0.0196228 -0.00738535 0)
(-0.0214428 -0.00624089 0)
(-0.0225262 -0.00475228 0)
(-0.0229343 -0.00462584 0)
(-0.0231275 -0.00883125 0)
(-0.0235041 -0.0104615 0)
(-0.0236201 -0.00615942 0)
(-0.0229689 0.00154792 0)
(-0.0215067 0.00887421 0)
(-0.0205322 0.0133029 0)
(-0.0201781 0.0169993 0)
(-0.0196597 0.0181422 0)
(-0.0196064 0.0160032 0)
(-0.020284 0.0127111 0)
(-0.0212325 0.0111498 0)
(-0.00163501 -0.0031935 0)
(-0.00511967 -0.000549522 0)
(-0.00757292 0.00236399 0)
(-0.00822001 0.00215165 0)
(-0.00969513 -0.000214133 0)
(-0.0117537 -0.00218048 0)
(-0.0140393 -0.0039849 0)
(-0.0167005 -0.00490853 0)
(-0.0190255 -0.00521415 0)
(-0.0205852 -0.00491779 0)
(-0.0213397 -0.00423546 0)
(-0.0215361 -0.0046297 0)
(-0.0225656 -0.00766219 0)
(-0.0250748 -0.00857512 0)
(-0.0274519 -0.00517058 0)
(-0.0280058 0.000779466 0)
(-0.0267387 0.00680829 0)
(-0.0249808 0.0120484 0)
(-0.0232811 0.0156979 0)
(-0.0215988 0.0169026 0)
(-0.0205114 0.0156357 0)
(-0.0203767 0.0132016 0)
(-0.0206497 0.0111564 0)
(-0.0023005 0.00395671 0)
(-0.00479991 0.00374333 0)
(-0.00666879 0.00418717 0)
(-0.00771336 0.00351418 0)
(-0.009203 0.00174845 0)
(-0.0111339 -0.0001261 0)
(-0.0132545 -0.0016636 0)
(-0.0154451 -0.00262486 0)
(-0.0173516 -0.00345784 0)
(-0.0188002 -0.00375444 0)
(-0.0198253 -0.00359018 0)
(-0.0207106 -0.00398378 0)
(-0.0223367 -0.00546605 0)
(-0.0249363 -0.00562987 0)
(-0.0272728 -0.00331843 0)
(-0.0281877 0.000656204 0)
(-0.0276165 0.00538064 0)
(-0.0260933 0.0101987 0)
(-0.0241004 0.0136728 0)
(-0.0220833 0.0151055 0)
(-0.0205542 0.0146214 0)
(-0.0197693 0.0129457 0)
(-0.0194088 0.0107583 0)
(-0.00157898 0.00479518 0)
(-0.003463 0.00528588 0)
(-0.00535159 0.00545798 0)
(-0.00669359 0.00481652 0)
(-0.00817732 0.00343588 0)
(-0.00993383 0.00181 0)
(-0.0118205 0.000365233 0)
(-0.0136331 -0.000750266 0)
(-0.0152776 -0.00185465 0)
(-0.0167768 -0.00240627 0)
(-0.0181516 -0.00237968 0)
(-0.0195165 -0.00261206 0)
(-0.0213077 -0.00325588 0)
(-0.023621 -0.00313042 0)
(-0.0256595 -0.00168796 0)
(-0.0265743 0.000886068 0)
(-0.0262193 0.00447225 0)
(-0.0249502 0.00850097 0)
(-0.0231681 0.0116619 0)
(-0.0212512 0.0132334 0)
(-0.0195532 0.0132374 0)
(-0.0182609 0.0120519 0)
(-0.0172403 0.00993179 0)
(-0.00128772 0.00762465 0)
(-0.00281038 0.00736266 0)
(-0.00439676 0.00697317 0)
(-0.00570011 0.00620095 0)
(-0.00707684 0.00497351 0)
(-0.00861226 0.00352445 0)
(-0.0102079 0.00208976 0)
(-0.0117197 0.00081899 0)
(-0.0132107 -0.000296254 0)
(-0.0147921 -0.000848916 0)
(-0.016353 -0.000853213 0)
(-0.0178662 -0.00101371 0)
(-0.0195716 -0.00126706 0)
(-0.0214956 -0.00107305 0)
(-0.0231779 -0.00026992 0)
(-0.0240814 0.00121147 0)
(-0.0239873 0.00378947 0)
(-0.0229839 0.00705442 0)
(-0.0214401 0.00990603 0)
(-0.0197056 0.0114272 0)
(-0.0179613 0.0116036 0)
(-0.016334 0.0106455 0)
(-0.0148059 0.0086427 0)
(-0.000969364 0.00928096 0)
(-0.00218164 0.00891765 0)
(-0.00355529 0.00831721 0)
(-0.00475129 0.00748444 0)
(-0.00598921 0.00634007 0)
(-0.00732081 0.00499028 0)
(-0.00867363 0.00353337 0)
(-0.00999409 0.00219896 0)
(-0.0114062 0.00122992 0)
(-0.0129792 0.00079792 0)
(-0.0145231 0.000692693 0)
(-0.0159669 0.000532168 0)
(-0.01745 0.000409787 0)
(-0.0189613 0.000553691 0)
(-0.0203028 0.000954615 0)
(-0.021234 0.00173217 0)
(-0.0214588 0.00341742 0)
(-0.0208165 0.00587603 0)
(-0.0195602 0.00839027 0)
(-0.0179955 0.0097145 0)
(-0.016287 0.00986115 0)
(-0.0145731 0.00897248 0)
(-0.0129335 0.0071023 0)
(-0.000683512 0.0105595 0)
(-0.0016523 0.0101837 0)
(-0.00281848 0.00949386 0)
(-0.00387815 0.00863204 0)
(-0.0049656 0.00753891 0)
(-0.00611664 0.00625529 0)
(-0.00730535 0.00479158 0)
(-0.00854897 0.00350997 0)
(-0.00992456 0.00270885 0)
(-0.0113851 0.0023482 0)
(-0.0127766 0.00211087 0)
(-0.0140634 0.00189975 0)
(-0.0153046 0.00176408 0)
(-0.0164785 0.00179808 0)
(-0.0175211 0.00198859 0)
(-0.0183657 0.00240677 0)
(-0.018797 0.00339778 0)
(-0.0185852 0.00510916 0)
(-0.0176893 0.00710231 0)
(-0.0163078 0.00812926 0)
(-0.0147285 0.0081772 0)
(-0.0131345 0.00733243 0)
(-0.0116625 0.00565598 0)
(-0.000478608 0.0115118 0)
(-0.00122681 0.0112086 0)
(-0.00219647 0.0105072 0)
(-0.00311643 0.00963683 0)
(-0.00406229 0.00858264 0)
(-0.00506336 0.0073627 0)
(-0.00615926 0.00596914 0)
(-0.00737556 0.00479964 0)
(-0.0086884 0.00410278 0)
(-0.00998897 0.00370048 0)
(-0.0111903 0.00335686 0)
(-0.0123019 0.00306878 0)
(-0.0133413 0.00286093 0)
(-0.0142897 0.0027755 0)
(-0.0151151 0.00282435 0)
(-0.0158021 0.00305084 0)
(-0.0162738 0.00363173 0)
(-0.0163154 0.00474287 0)
(-0.0157132 0.00606637 0)
(-0.014588 0.0067519 0)
(-0.0132478 0.00669107 0)
(-0.0118926 0.00590929 0)
(-0.0106795 0.00447291 0)
(-0.000337361 0.0121997 0)
(-0.000900373 0.0120196 0)
(-0.0017028 0.0113675 0)
(-0.00250194 0.0105138 0)
(-0.00333609 0.00949944 0)
(-0.00422839 0.00835212 0)
(-0.00524475 0.00710102 0)
(-0.00640222 0.0060436 0)
(-0.00760063 0.00536054 0)
(-0.00873072 0.0048616 0)
(-0.00976515 0.00443107 0)
(-0.0107206 0.00406353 0)
(-0.0116009 0.00377208 0)
(-0.0123933 0.00357959 0)
(-0.0130815 0.00350463 0)
(-0.0136529 0.00358811 0)
(-0.0140508 0.00392198 0)
(-0.0141211 0.00456502 0)
(-0.0137055 0.0052972 0)
(-0.012863 0.00565434 0)
(-0.0118099 0.0054796 0)
(-0.0107295 0.0047581 0)
(-0.00977414 0.00354718 0)
(-0.00023323 0.0126923 0)
(-0.000658136 0.0126626 0)
(-0.00134011 0.012106 0)
(-0.00204662 0.0112909 0)
(-0.00279689 0.010323 0)
(-0.0036099 0.00925404 0)
(-0.00453282 0.0081475 0)
(-0.00556519 0.00717884 0)
(-0.00661003 0.00645425 0)
(-0.00758638 0.00586664 0)
(-0.00848344 0.00535833 0)
(-0.00930789 0.0049157 0)
(-0.0100599 0.00454444 0)
(-0.0107311 0.00425872 0)
(-0.0113094 0.00407557 0)
(-0.0117778 0.00402428 0)
(-0.012088 0.00414656 0)
(-0.0121393 0.00443854 0)
(-0.0118394 0.00475098 0)
(-0.011222 0.00483049 0)
(-0.0104262 0.00454478 0)
(-0.00959646 0.00386474 0)
(-0.00886118 0.00283301 0)
(-0.000175124 0.0130516 0)
(-0.000515146 0.0131929 0)
(-0.00111104 0.0127508 0)
(-0.00173257 0.0119849 0)
(-0.00240388 0.0110683 0)
(-0.00313604 0.0100733 0)
(-0.00394984 0.00906955 0)
(-0.00483302 0.00815651 0)
(-0.00572153 0.00739208 0)
(-0.0065603 0.00673774 0)
(-0.00733489 0.00616038 0)
(-0.00804462 0.00564816 0)
(-0.00868705 0.0052027 0)
(-0.00925503 0.00483268 0)
(-0.00973715 0.00455003 0)
(-0.0101148 0.00437069 0)
(-0.0103499 0.00430729 0)
(-0.0103805 0.00433587 0)
(-0.0101576 0.00435662 0)
(-0.00970468 0.00422292 0)
(-0.00911146 0.0038413 0)
(-0.0084839 0.00318462 0)
(-0.00792139 0.00228316 0)
(-0.000137356 0.0133444 0)
(-0.000461147 0.013666 0)
(-0.000987673 0.0133095 0)
(-0.00152056 0.0125949 0)
(-0.00210689 0.01173 0)
(-0.00274762 0.010797 0)
(-0.00344687 0.00985836 0)
(-0.00418958 0.00897684 0)
(-0.0049349 0.00818876 0)
(-0.00564592 0.0074848 0)
(-0.00630702 0.00684917 0)
(-0.00691239 0.00627446 0)
(-0.00745705 0.00576087 0)
(-0.00793357 0.00531325 0)
(-0.00833082 0.00493819 0)
(-0.00863154 0.00464171 0)
(-0.00880781 0.004422 0)
(-0.00882294 0.00425216 0)
(-0.00865307 0.00406539 0)
(-0.00831669 0.00377339 0)
(-0.0078732 0.00331421 0)
(-0.0073979 0.00266778 0)
(-0.00696403 0.00185579 0)
(-0.000153018 0.013621 0)
(-0.000446956 0.0141036 0)
(-0.000910943 0.0137874 0)
(-0.00136351 0.0131194 0)
(-0.00186545 0.0123017 0)
(-0.00241217 0.0114176 0)
(-0.0030006 0.0105217 0)
(-0.00361708 0.00965908 0)
(-0.00423508 0.00885642 0)
(-0.00482945 0.0081161 0)
(-0.00538555 0.00743302 0)
(-0.00589508 0.00680396 0)
(-0.00635121 0.00622905 0)
(-0.00674602 0.00571069 0)
(-0.007069 0.00525149 0)
(-0.00730563 0.00485156 0)
(-0.00743641 0.00450328 0)
(-0.00744019 0.00418277 0)
(-0.00730673 0.00384512 0)
(-0.00705127 0.00343584 0)
(-0.00671431 0.00291518 0)
(-0.00634866 0.00227002 0)
(-0.00600679 0.00151636 0)
(-0.000199977 0.0139116 0)
(-0.000444623 0.0144905 0)
(-0.000841591 0.0141969 0)
(-0.00122935 0.0135657 0)
(-0.00165344 0.0127859 0)
(-0.00211041 0.011938 0)
(-0.00259643 0.0110711 0)
(-0.00310112 0.0102207 0)
(-0.00360701 0.00940838 0)
(-0.00409652 0.00864135 0)
(-0.00455689 0.00792035 0)
(-0.00497906 0.00724512 0)
(-0.00535531 0.00661622 0)
(-0.00567752 0.00603472 0)
(-0.00593612 0.00550086 0)
(-0.00611952 0.00501192 0)
(-0.0062144 0.00455894 0)
(-0.00620888 0.00412274 0)
(-0.00609963 0.00367307 0)
(-0.00589919 0.00317583 0)
(-0.00563583 0.00260601 0)
(-0.00534648 0.00195592 0)
(-0.00506812 0.00123774 0)
(-0.000262022 0.01423 0)
(-0.000443386 0.0148079 0)
(-0.000775692 0.0145493 0)
(-0.00110689 0.013943 0)
(-0.00145858 0.0131887 0)
(-0.00183163 0.0123658 0)
(-0.00222453 0.0115186 0)
(-0.00263055 0.0106766 0)
(-0.00303812 0.00985785 0)
(-0.00343457 0.00907126 0)
(-0.00380914 0.00832031 0)
(-0.00415292 0.00760661 0)
(-0.00445799 0.00693118 0)
(-0.00471642 0.00629454 0)
(-0.00491973 0.00569591 0)
(-0.00505876 0.00513172 0)
(-0.00512449 0.00459378 0)
(-0.00511031 0.00406759 0)
(-0.00501617 0.00353287 0)
(-0.00485217 0.00296816 0)
(-0.00463836 0.00235809 0)
(-0.00440053 0.00169871 0)
(-0.00416456 0.000999536 0)
(-0.000277554 0.0145671 0)
(-0.000439013 0.0150725 0)
(-0.000725238 0.0148489 0)
(-0.000995721 0.0142542 0)
(-0.00127559 0.0135144 0)
(-0.00156922 0.012708 0)
(-0.00187746 0.0118749 0)
(-0.00219639 0.0110395 0)
(-0.0025181 0.0102173 0)
(-0.00283307 0.00941675 0)
(-0.00313213 0.00864263 0)
(-0.00340692 0.00789745 0)
(-0.0036497 0.00718269 0)
(-0.00385296 0.00649886 0)
(-0.00400923 0.005845 0)
(-0.00411126 0.00521786 0)
(-0.00415278 0.00461088 0)
(-0.0041301 0.00401366 0)
(-0.00404447 0.00341281 0)
(-0.00390384 0.0027949 0)
(-0.00372252 0.0021508 0)
(-0.00351855 0.00147901 0)
(-0.00330996 0.000787129 0)
(-0.00024748 0.0148992 0)
(-0.000430385 0.0153238 0)
(-0.000687373 0.0150943 0)
(-0.00089003 0.0144972 0)
(-0.00109764 0.0137649 0)
(-0.00131621 0.0129708 0)
(-0.00154798 0.0121495 0)
(-0.0017906 0.0113212 0)
(-0.00203819 0.0104984 0)
(-0.00228306 0.00968883 0)
(-0.00251713 0.00889735 0)
(-0.0027326 0.00812697 0)
(-0.00292209 0.00737956 0)
(-0.00307857 0.00665591 0)
(-0.00319545 0.0059555 0)
(-0.00326682 0.00527595 0)
(-0.00328813 0.00461258 0)
(-0.00325722 0.00395836 0)
(-0.00317565 0.00330476 0)
(-0.0030495 0.00264361 0)
(-0.00288902 0.00196982 0)
(-0.00270684 0.00128341 0)
(-0.00251548 0.000590545 0)
(-0.000261262 0.0152172 0)
(-0.000419409 0.0155733 0)
(-0.000644158 0.0152811 0)
(-0.000775921 0.0146704 0)
(-0.000914027 0.0139429 0)
(-0.00106396 0.0131608 0)
(-0.00122841 0.0123522 0)
(-0.00140566 0.0115329 0)
(-0.00159072 0.0107127 0)
(-0.00177682 0.00989851 0)
(-0.00195655 0.00909473 0)
(-0.00212255 0.00830464 0)
(-0.00226778 0.00753049 0)
(-0.00238569 0.00677361 0)
(-0.00247036 0.00603415 0)
(-0.00251683 0.0053109 0)
(-0.00252157 0.00460102 0)
(-0.00248316 0.00390024 0)
(-0.00240301 0.00320345 0)
(-0.00228567 0.00250608 0)
(-0.00213846 0.00180562 0)
(-0.00197026 0.00110307 0)
(-0.00178976 0.000403463 0)
(-0.000270049 0.0155358 0)
(-0.000406472 0.015795 0)
(-0.000567302 0.0154055 0)
(-0.000636061 0.0147768 0)
(-0.000712809 0.0140551 0)
(-0.000803578 0.0132871 0)
(-0.000911429 0.0124935 0)
(-0.00103483 0.0116859 0)
(-0.00116909 0.0108719 0)
(-0.0013078 0.0100569 0)
(-0.0014439 0.00924511 0)
(-0.00157029 0.00843996 0)
(-0.00168024 0.00764413 0)
(-0.00176757 0.00685955 0)
(-0.00182691 0.00608728 0)
(-0.00185393 0.00532733 0)
(-0.0018457 0.00457857 0)
(-0.00180113 0.00383893 0)
(-0.00172129 0.00310586 0)
(-0.00160955 0.00237722 0)
(-0.00147113 0.00165229 0)
(-0.00131228 0.000932599 0)
(-0.00113909 0.00022235 0)
(-0.000257834 0.0158429 0)
(-0.000347648 0.0159581 0)
(-0.000439095 0.0154719 0)
(-0.000458801 0.0148258 0)
(-0.000485653 0.0141121 0)
(-0.000528522 0.0133609 0)
(-0.000591385 0.0125852 0)
(-0.000672816 0.0117924 0)
(-0.000768072 0.0109875 0)
(-0.000870738 0.0101751 0)
(-0.00097381 0.00935881 0)
(-0.00107034 0.00854237 0)
(-0.0011538 0.00772891 0)
(-0.00121834 0.00692111 0)
(-0.00125898 0.00612099 0)
(-0.00127183 0.00532977 0)
(-0.00125434 0.00454789 0)
(-0.00120552 0.00377506 0)
(-0.00112614 0.00301068 0)
(-0.00101862 0.00225436 0)
(-0.000886756 0.00150657 0)
(-0.000735007 0.000769189 0)
(-0.000567651 4.57463e-05 0)
(-0.000208338 0.0160932 0)
(-0.000228818 0.0160521 0)
(-0.000269831 0.0154892 0)
(-0.000246188 0.0148285 0)
(-0.000231422 0.0141249 0)
(-0.000236309 0.0133935 0)
(-0.000265232 0.012639 0)
(-0.00031627 0.0118639 0)
(-0.000384067 0.0110712 0)
(-0.000461761 0.010264 0)
(-0.000542134 0.00944596 0)
(-0.000618239 0.00862106 0)
(-0.000683699 0.00779304 0)
(-0.000732914 0.0069654 0)
(-0.000761227 0.00614115 0)
(-0.000765072 0.00532274 0)
(-0.000742137 0.00451196 0)
(-0.000691489 0.00371006 0)
(-0.00061362 0.00291795 0)
(-0.000510336 0.00213654 0)
(-0.000384433 0.00136715 0)
(-0.000239179 0.000611871 0)
(-7.76612e-05 -0.000126318 0)
(-0.000142403 0.0162497 0)
(-9.05299e-05 0.0160788 0)
(-7.76721e-05 0.0154601 0)
(-7.08026e-06 0.0147897 0)
(4.67165e-05 0.0141011 0)
(7.27666e-05 0.0133947 0)
(6.79682e-05 0.0126658 0)
(3.63556e-05 0.0119121 0)
(-1.50708e-05 0.011134 0)
(-7.84123e-05 0.0103342 0)
(-0.000145922 0.0095163 0)
(-0.000210555 0.00868485 0)
(-0.00026603 0.00784435 0)
(-0.000306973 0.00699919 0)
(-0.000329003 0.00615346 0)
(-0.000328822 0.00531072 0)
(-0.000304312 0.00447405 0)
(-0.000254586 0.00364598 0)
(-0.000179973 0.00282867 0)
(-8.18727e-05 0.00202406 0)
(3.75389e-05 0.0012341 0)
(0.00017575 0.00046097 0)
(0.000330432 -0.000292778 0)
(-6.9404e-05 0.0163059 0)
(4.60495e-05 0.0160327 0)
(0.000127456 0.0153773 0)
(0.000252408 0.0147064 0)
(0.000346694 0.0140434 0)
(0.000398193 0.013372 0)
(0.000408098 0.0126758 0)
(0.000385131 0.0119477 0)
(0.000339405 0.0111867 0)
(0.000280435 0.0103957 0)
(0.000216624 0.00957898 0)
(0.000155208 0.00874196 0)
(0.000102352 0.00789013 0)
(6.31889e-05 0.00702886 0)
(4.18273e-05 0.00616329 0)
(4.13127e-05 0.0052981 0)
(6.35847e-05 0.00443752 0)
(0.000109457 0.00358525 0)
(0.000178665 0.0027445 0)
(0.00027002 0.00191806 0)
(0.000381685 0.00110837 0)
(0.000511572 0.000317666 0)
(0.000657797 -0.000451914 0)
(-4.76102e-06 0.0162608 0)
(0.000178706 0.0159131 0)
(0.000345193 0.0152273 0)
(0.000533043 0.0145708 0)
(0.000669852 0.0139535 0)
(0.000740247 0.0133333 0)
(0.000754203 0.0126794 0)
(0.000728752 0.0119815 0)
(0.000678406 0.0112395 0)
(0.000614561 0.0104577 0)
(0.000546242 0.00964233 0)
(0.000480734 0.00879986 0)
(0.000423983 0.00793699 0)
(0.000380824 0.00706019 0)
(0.000355065 0.00617562 0)
(0.000349503 0.00528904 0)
(0.000365895 0.00440574 0)
(0.000404957 0.0035305 0)
(0.000466409 0.00266747 0)
(0.000549119 0.00182018 0)
(0.000651371 0.000991491 0)
(0.000771241 0.000183652 0)
(0.000907054 -0.000601629 0)
(3.21962e-05 0.0161231 0)
(0.000317867 0.0157086 0)
(0.000580599 0.0149941 0)
(0.000842288 0.0143731 0)
(0.00102051 0.0138349 0)
(0.0010988 0.0132893 0)
(0.00110343 0.0126885 0)
(0.00106384 0.0120244 0)
(0.000999274 0.0113018 0)
(0.000922538 0.0105287 0)
(0.000842818 0.00971361 0)
(0.000767134 0.00886496 0)
(0.000701037 0.00799067 0)
(0.00064897 0.00709828 0)
(0.000614413 0.00619493 0)
(0.000599909 0.00528739 0)
(0.000607049 0.00438196 0)
(0.000636444 0.0034844 0)
(0.000687751 0.00259978 0)
(0.00075979 0.00173232 0)
(0.00085079 0.000885281 0)
(0.000958784 6.08679e-05 0)
(0.00108211 -0.000739676 0)
(0.000116675 0.0158902 0)
(0.000492565 0.0154059 0)
(0.000860515 0.0146667 0)
(0.00119483 0.0141083 0)
(0.00140137 0.013698 0)
(0.00146906 0.0132556 0)
(0.00144859 0.0127163 0)
(0.00138406 0.0120867 0)
(0.00129761 0.0113817 0)
(0.00120196 0.0106151 0)
(0.00110572 0.00979858 0)
(0.00101529 0.00894243 0)
(0.000935631 0.00805585 0)
(0.000870729 0.00714737 0)
(0.000823714 0.00622507 0)
(0.000796902 0.00529659 0)
(0.000791749 0.00436918 0)
(0.000808797 0.00344954 0)
(0.000847641 0.00254364 0)
(0.000906998 0.00165645 0)
(0.000984914 0.000791615 0)
(0.00107918 -4.86962e-05 0)
(0.00118798 -0.000863819 0)
(0.000315192 0.0154941 0)
(0.000806983 0.014996 0)
(0.00126296 0.0142611 0)
(0.00160417 0.0138164 0)
(0.00179198 0.0135603 0)
(0.00183252 0.0132496 0)
(0.001776 0.0127741 0)
(0.00168044 0.0121756 0)
(0.00156806 0.0114846 0)
(0.0014502 0.0107214 0)