/*--------------------------------*- C++ -*----------------------------------*\
  =========                 |
  \\      /  F ield         | OpenFOAM: The Open Source CFD Toolbox
   \\    /   O peration     | Website:  https://openfoam.org
    \\  /    A nd           | Version:  9
     \\/     M anipulation  |
\*---------------------------------------------------------------------------*/
FoamFile
{
    format      ascii;
    class       surfaceScalarField;
    location    "25.95";
    object      phi;
}
// * * * * * * * * * * * * * * * * * * * * * * * * * * * * * * * * * * * * * //

dimensions      [0 3 -1 0 0 0 0];

internalField   nonuniform List<scalar> 
1300
(
11.2529
1.87548
-4.172
11.2529
-5.00249
1.87548
-4.24097
4.24097
-1.18759
1.18759
5.7123
5.54056
-2.37488
2.37488
-2.81577
2.81577
-2.86019
2.86019
-1.06194
1.06194
-1.02826
1.02826
0.693148
-0.693148
-3.41971
3.41971
-1.45626
1.45626
-2.90674
2.90674
6.1281
-6.1281
-3.2464
3.2464
-0.743824
0.743824
-4.26321
15.5161
6.98965
6.98965
-2.37116
2.37116
-1.25395
1.25395
1.41034
-1.41034
9.05804
-9.05804
-4.88604
-5.89111
1.91417
-14.052
-3.08832
-3.08832
-2.7054
2.7054
-0.829928
1.04555
3.47681
-3.47681
-0.757299
0.757299
-4.32664
0.08567
-4.32664
4.0251
0.21587
4.0251
-1.32887
0.141282
-1.32887
4.67746
-4.67746
1.07584
0.111754
1.07584
3.9281
-3.9281
-5.71006
11.4224
5.5428
-5.32064
20.8367
-5.93222
11.4728
-3.90398
3.90398
-2.2922
-0.0826759
-2.2922
2.37602
-0.00114594
2.37602
-4.00723
4.00723
-2.60604
-0.209735
-2.60604
2.91589
-0.10012
2.91589
3.66639
-3.66639
-2.91624
0.0560506
-2.91624
2.70849
0.151699
2.70849
0.771042
1.10443
-2.64652
3.69207
-1.10443
0.0424987
1.02614
0.0357986
1.02614
-1.01453
-0.0137253
-1.01453
1.04984
-0.0215797
1.04984
0.730194
-0.0370458
0.730194
-0.754875
0.0617267
-0.754875
-8.59948
-8.98045
-3.54481
0.1251
-3.54481
-1.47427
0.0180122
-1.47427
1.49243
-0.0361652
1.49243
-2.52728
2.52728
-3.24869
0.34195
-3.24869
4.80635
1.32175
4.80635
5.04612
6.20674
16.299
-16.299
10.1709
-2.96551
-0.280892
-2.96551
-3.41281
-5.64523
3.41281
-0.166412
-0.805576
0.0617515
-0.805576
5.62659
1.36306
5.62659
2.58628
0.122216
-2.58628
0.215117
4.62601
-4.62601
1.42332
0.947843
1.42332
-1.19154
1.19154
1.12336
-0.073525
-1.12337
-0.130585
1.38601
0.0243319
1.38601
-1.40975
-0.000595743
-1.40975
7.30824
-13.1994
-7.77668
3.2291
0.19061
-3.2291
0.140788
3.56355
-0.0867459
3.56355
-3.3097
3.3097
-3.61099
0.134182
-3.61099
-0.682347
-0.0749517
-0.682347
0.842216
-0.0849173
0.842216
-4.57483
0.248195
-4.57483
-3.68878
0.440091
3.68878
0.336315
1.25056
-1.25056
-1.43667
0.107801
-1.43667
-4.65821
0.0833765
4.65821
0.0192511
-4.77159
0.0941327
-4.77159
-3.71252
0.101536
3.71252
0.215577
4.58935
1.03724
-4.58935
0.661249
-5.36948
11.5762
-5.88338
11.4262
-3.51948
-0.384495
-3.51948
4.09581
-0.191837
4.09581
2.56817
0.338574
-2.56817
0.275968
2.50201
-0.125984
2.50201
-3.9504
-0.0568334
-3.9504
3.80978
0.197454
3.80978
2.54147
-0.0394656
-2.54147
-0.0645665
2.89113
0.024762
2.89113
3.67235
-0.00596909
3.67235
-3.53941
-0.126974
-3.53941
3.17897
-3.17897
3.08061
0.0983656
-3.08061
0.164365
-5.07402
5.07343
-0.00799942
-5.06602
1.01814
1.01814
0.769057
-0.0388637
0.769057
-0.861793
0.106918
-0.861793
8.33796
-16.1146
8.78813
-17.3876
7.53693
-21.589
8.1074
-17.0879
3.83057
-3.83057
3.76369
0.0668787
-3.76369
0.218875
-1.4561
-0.0181727
-1.4561
-2.2898
-0.237479
-2.2898
2.85994
-0.33266
2.85994
-3.74209
3.74209
-4.12478
0.382684
4.12478
0.681569
2.95305
-0.0619173
-2.95305
-0.0124572
0.92414
0.151695
-0.92414
0.118565
4.86327
-0.237262
4.86327
-4.08511
-0.540906
-4.08511
-1.47499
0.018884
1.47499
-0.051667
-1.25895
0.0674043
-1.25895
-5.0745
0.00847758
-5.0387
-1.40127
-1.40127
1.30414
4.9962
-3.58565
0.0462401
3.58565
-0.0220995
3.52705
0.21504
-3.52705
0.217358
-3.26328
0.0843076
3.26328
0.0464143
-0.659856
-0.0224905
-0.659856
-1.03503
1.03503
-0.917859
-0.117174
0.917859
-0.0756434
1.40611
-0.155553
1.40611
1.47062
0.021809
-1.47062
0.0339442
-5.01084
0.239248
-5.01084
4.10661
-0.0108012
4.10661
-3.949
-0.136107
3.949
-0.276645
-0.00372296
5.07715
-1.01441
-0.000120167
1.01441
-5.10148
5.10136
-0.665239
0.00538225
0.665239
0.103819
1.02967
0.161873
-1.02967
0.167877
3.85226
-0.0424804
-3.85226
0.0216921
-2.00847
-0.281332
-2.00847
-3.18794
-0.331542
3.18794
-0.327993
-5.11518
-0.0779369
5.19312
-5.13676
1.33688
0.0491257
-1.33688
5.15049
-1.144
-0.106559
1.144
-0.108963
1.60455
-0.198446
1.60455
5.12052
-0.25725
-5.12052
0.109681
-4.12442
0.174023
4.12442
-0.0178091
-1.776
-0.232473
1.776
-0.171446
-13.1281
14.4911
7.70865
-6.27663
-6.92272
-11.9219
4.4471
7.12912
14.618
-11.8131
-9.7759
-11.6723
2.86006
-2.69218
-3.72753
3.69049
23.5901
-23.496
-18.3992
19.0808
20.777
-20.5615
5.70885
5.71351
15.8354
-15.9181
-20.9174
20.5329
15.3707
-15.5804
22.0739
-22.1307
-25.836
25.7935
-16.093
16.149
-20.2943
20.1673
-21.0575
20.7809
-8.34037
-9.04725
16.5224
-16.3973
19.9913
-20.2722
-19.3707
19.7127
10.0475
4.44359
11.0848
-6.24673
11.9556
-5.22605
12.9347
8.30218
-16.6425
7.81247
-14.7352
9.04469
10.9466
-8.87828
-3.04358
-17.9699
17.8832
-17.257
17.3034
24.119
-24.0333
-6.17283
11.8863
-5.25335
12.3825
-11.409
-6.9902
10.0873
4.53073
8.99186
7.5305
-9.18247
-2.4898
-24.7981
24.5408
-25.6595
25.1186
0.100159
2.42595
-2.5261
1.35411
-0.862665
3.28861
1.99739
2.10431
2.45271
-2.29084
0.23947
-2.76558
-2.89616
-5.3409
5.4487
5.15766
-5.0459
16.5448
7.04526
16.5641
-16.7486
-6.74732
-16.5094
11.3637
7.71706
11.7464
12.0617
8.71534
12.1632
10.359
-10.3317
-0.0273127
-11.4776
21.8367
1.55465
-18.4678
-13.9371
8.83583
6.99959
8.83468
-9.88216
-6.03594
-9.60619
-11.0242
-9.89313
-11.3558
12.3323
8.2006
12.1404
-15.3325
15.3147
9.26411
6.10654
9.16399
-8.95247
-6.62792
-9.01704
27.4893
-6.67744
-20.8119
-13.1962
-12.6398
12.9988
9.0751
14.352
11.4415
14.3737
8.91742
18.5719
-17.9925
5.35274
-9.9471
-6.14587
-9.78273
9.25816
6.89086
9.40986
-11.7667
-8.52756
-11.7205
-11.9869
-9.07065
11.9928
8.17449
-12.5343
-13.1253
12.6704
8.11052
7.8487
-17.6246
9.23916
-18.2864
-10.9714
-5.4259
-10.7525
10.7923
6.67319
-17.4655
-5.85021
23.629
-12.6823
20.5854
-10.8927
-9.37954
-10.9051
-14.7958
-4.57487
-14.3558
-7.99446
7.71313
-8.82819
8.49553
26.8836
-16.2271
-10.6565
-12.3784
-8.18309
11.7171
-0.632341
-12.8358
12.8085
-0.880185
12.0545
16.4981
15.8658
-10.8802
-6.37676
-10.6629
10.2702
7.03321
10.3545
16.1
8.01894
16.3159
-16.8147
-7.21863
-16.5665
4.84213
-4.91708
5.71381
-5.69493
15.5791
9.53953
-15.3418
-9.45627
22.9309
-10.7751
-12.1558
-5.11973
5.21446
-0.0947288
-1.83112
-0.477012
0.266812
-1.93102
-1.79652
1.86929
0.235023
5.44948
3.65297
-2.41437
2.48177
2.77875
2.70523
-0.190935
2.49919
-2.49381
18.9043
-11.434
-7.47032
13.9682
-13.8849
-2.59822
-19.3262
16.728
2.67921
3.00374
-2.94199
-3.94869
-1.39221
-3.91475
2.95231
2.20534
3.10401
2.1073
3.34141
-8.10416
1.56321
6.54094
-5.99686
-3.48269
-13.3464
-6.26744
19.6139
16.6781
7.86273
-16.7878
0.278406
5.29334
-5.3295
-1.59783
-11.7486
8.34909
-9.94692
-15.2176
-6.46069
21.6783
-9.58078
-1.08209
9.36574
2.38065
-10.8773
-7.09263
10.7431
1.42012
-12.0645
23.9708
-11.9062
-18.4413
8.51578
13.3209
16.2328
-17.8628
9.31888
8.54389
-4.54188
7.42131
1.41337
7.29533
-19.9177
13.8817
11.3142
8.39843
-11.6528
2.04663
-17.871
25.168
-22.2867
-2.88139
12.8168
12.3513
13.5567
13.3269
-7.78922
21.3459
-3.6205
-18.6661
21.4915
-13.0931
15.784
-28.8771
-29.1109
10.4447
-17.9637
22.0851
-4.12149
-5.21042
-10.1221
23.1741
-2.00756
-21.1665
10.1329
-13.9234
-11.8445
25.7679
-20.6009
18.4724
-6.2628
-12.2096
-12.6796
-9.4511
12.5056
2.8091
-25.8726
31.2253
-7.30067
7.79782
1.36617
7.82258
10.6078
-15.9766
5.36875
9.99305
-16.2558
6.7588
-22.7354
-12.1665
24.1971
-12.0306
-17.5924
-15.8069
-1.78552
4.87339
26.352
-16.3149
12.1188
4.1961
8.46178
1.89273
-8.56014
-1.22259
0.968121
16.0866
-17.0547
10.378
10.5002
11.7047
4.38195
10.7702
7.11295
-10.7481
-0.972392
-14.7927
5.72205
-6.61821
-14.574
20.2961
-16.2678
1.6938
-10.3032
-13.9907
24.2939
-16.4491
11.4255
12.5452
18.4587
-19.615
5.62431
-9.74637
-9.86861
10.6435
-17.2617
7.49822
12.7979
15.6087
2.48347
12.7539
11.4433
-19.4271
1.14065
18.9738
-16.4839
3.89436
10.4793
-16.0131
0.206254
-10.5462
2.65739
-15.3397
-14.8081
16.5288
-21.1036
-12.3483
13.5614
2.75447
-13.8977
-0.458016
-4.95687
-3.03759
-5.18935
-3.2798
-5.54838
-11.069
-1.92727
-9.14176
5.78586
-6.69227
-4.66351
7.02026
1.47526
-4.93727
4.83071
-5.58274
5.38429
-0.210169
13.0186
15.6556
7.4725
-8.47674
15.9492
-15.6058
23.6247
-29.7246
14.1188
15.9496
-23.1682
-13.775
2.70178
2.14035
2.61686
13.4524
-14.4175
0.965064
-13.2824
17.6049
-4.32247
-19.5866
6.30425
-6.13422
5.1869
0.526908
5.16873
1.41646
6.84611
-8.26258
-4.27847
-4.33013
-9.16308
-13.8593
23.0224
4.73579
-13.1052
8.36944
-12.0629
16.7987
0.078764
-13.184
16.9852
-10.1391
17.5121
-11.9841
5.52797
12.7918
22.3471
-9.55525
16.248
-6.70847
7.06763
-16.6229
-6.79172
-11.2884
18.1793
-13.0055
14.6993
-1.12452
15.8238
-13.7775
3.00235
-2.0728
8.4274
8.64252
16.8088
-12.4269
11.9698
-18.6783
-4.65303
-16.1948
-3.39697
1.02034
-13.8277
12.8073
12.0473
-11.0269
-3.2427
8.98628
-5.74357
5.68308
-2.84872
-2.83436
-1.84679
-3.07029
1.86928
0.629914
6.31299
0.489328
-3.33805
-2.00448
-1.90066
10.3752
8.52916
-3.8324
3.73767
3.56559
-0.561843
0.958822
2.14519
4.58781
-3.62899
0.67824
3.90957
-2.26375
3.82797
1.46537
-3.84978
-0.0649672
-3.40825
11.7573
3.13269
-5.33803
1.70904
2.38151
-13.8155
19.7419
-11.4162
-8.32564
22.1234
3.06265
-14.4789
16.2635
-13.5843
8.1029
-14.3703
-6.37597
-19.9603
-12.915
-10.7098
19.0792
-12.3126
20.1754
3.86161
-20.4538
24.3154
-12.7402
6.2795
-9.44369
10.9091
-4.05847
-5.38521
11.2662
10.4121
-11.0537
-0.694849
0.212413
8.41996
-8.20754
-1.52697
-7.52383
-16.4089
17.829
-8.2557
17.5746
7.69354
-7.63402
25.2086
6.56496
-14.199
-11.8763
-12.9584
-5.65509
10.5777
-1.79386
-7.22318
-14.0035
7.26264
0.0326886
-19.0643
22.0545
-2.99011
-12.0647
-1.81698
14.6337
-18.0898
1.83396
-11.331
10.7234
12.1368
12.1695
-20.8532
-0.313352
-12.6526
3.17531
-15.8279
15.5266
-6.80382
17.2486
-16.0173
11.3538
-14.5421
14.3672
-1.46071
14.7537
-9.38494
6.0582
-15.5093
-12.7002
14.4609
-8.35438
15.8271
-10.1129
25.94
-17.4135
14.3962
11.5438
-2.71284
-8.1923
-13.9646
11.2517
0.431631
8.25422
17.8373
-10.7243
16.8649
8.92441
-18.6708
-8.33733
-25.8596
7.18885
-13.3144
-7.35656
14.5454
11.1022
12.9949
4.67681
-11.7723
17.7926
-19.5781
-5.76195
-9.04619
14.5714
-3.3197
10.1478
-19.194
-5.19189
13.11
-0.189162
-12.9209
3.11703
-15.4654
5.12755
-20.5929
15.9761
-16.4341
1.77025
-7.90447
-3.16702
-3.27598
-2.17299
-3.40975
-7.56966
5.39667
-1.26541
3.5653
-12.5249
12.3358
-5.07992
10.4766
-4.05965
-1.12969
4.2311
1.15319
11.6298
3.02667
-16.8017
-9.25663
14.6263
-5.36962
1.11853
-10.801
3.82525
8.09874
14.0246
-24.8267
1.65852
-15.1432
-4.07092
6.21126
4.91536
16.9626
2.54514
6.55371
-0.34245
9.09885
2.27442
2.19877
-11.2203
12.1853
1.58709
15.7059
-1.883
7.41097
3.28574
3.30375
2.02576
5.72261
2.91991
8.72495
0.462377
-3.86776
2.06803
-3.9687
-1.27001
-4.00756
-0.317074
3.72554
-4.04262
10.4975
-1.96838
5.12792
-1.88244
-4.93408
6.81651
-9.35275
-5.49592
-1.58635
-5.60706
7.3161
6.15029
-5.72976
-3.623
2.39152
-15.3066
11.9788
-12.6737
-2.26153
22.0539
-9.46205
1.2545
-3.18255
-6.26933
-7.66153
7.7265
24.1899
1.01867
12.2837
18.8477
11.755
1.03071
11.9848
-16.1063
-10.7505
-16.4197
-0.893087
13.7407
5.61822
20.7337
17.162
13.8423
-5.35175
-24.9298
20.7239
-8.53857
16.4014
-3.48055
-17.1124
14.6452
8.97956
-17.3996
0.965529
-16.1469
-24.6854
-0.343025
12.6788
-11.2868
10.1571
7.11948
2.02228
-2.42625
-0.849737
2.54342
-0.344648
8.75421
-0.188609
-8.19616
8.38476
-3.53693
2.26692
-0.429819
4.16749
6.38669
4.41831
-3.77784
-7.82046
-8.81762
-4.9979
-17.1433
2.47061
-8.6209
5.68197
-3.41505
2.84761
4.96972
10.0976
-1.60151
-9.42541
7.34508
-4.49748
5.60016
)
;

boundaryField
{
    wall-4
    {
        type            calculated;
        value           uniform 0;
    }
    velocity-inlet-5
    {
        type            calculated;
        value           uniform -11.2529;
    }
    velocity-inlet-6
    {
        type            calculated;
        value           uniform -1.87548;
    }
    pressure-outlet-7
    {
        type            calculated;
        value           nonuniform List<scalar> 8(4.172 5.00249 10.7772 12.1379 17.5799 15.0849 17.1261 15.6443);
    }
    wall-8
    {
        type            calculated;
        value           uniform 0;
    }
    frontAndBackPlanes
    {
        type            empty;
        value           nonuniform List<scalar> 0();
    }
}


// ************************************************************************* //
