/*--------------------------------*- C++ -*----------------------------------*\
  =========                 |
  \\      /  F ield         | OpenFOAM: The Open Source CFD Toolbox
   \\    /   O peration     | Website:  https://openfoam.org
    \\  /    A nd           | Version:  9
     \\/     M anipulation  |
\*---------------------------------------------------------------------------*/
FoamFile
{
    format      ascii;
    class       volScalarField;
    location    "4.71";
    object      p;
}
// * * * * * * * * * * * * * * * * * * * * * * * * * * * * * * * * * * * * * //

dimensions      [1 -1 -2 0 0 0 0];

internalField   nonuniform List<scalar> 
2268
(
741.205
740.948
740.616
740.218
739.767
739.277
738.756
738.214
737.658
737.089
736.512
735.923
735.318
734.68
733.979
733.162
732.235
731.229
730.621
730.378
730.473
730.674
730.543
682.409
682.168
681.842
681.452
681.002
680.509
679.98
679.424
678.847
678.252
677.643
677.019
676.373
675.69
674.945
674.105
673.233
672.433
672.007
671.688
671.651
671.739
671.703
623.634
623.403
623.083
622.7
622.252
621.755
621.216
620.645
620.046
619.423
618.781
618.121
617.437
616.72
615.957
615.142
614.394
613.927
613.718
613.101
612.764
612.763
612.767
564.883
564.647
564.326
563.946
563.498
562.996
562.447
561.861
561.242
560.595
559.925
559.235
558.525
557.79
557.037
556.29
555.75
555.852
555.626
554.913
554.237
553.832
553.813
506.152
505.902
505.573
505.19
504.739
504.229
503.67
503.07
502.434
501.767
501.075
500.362
499.634
498.894
498.162
497.489
497.114
497.541
497.397
496.736
495.686
494.914
494.868
447.439
447.17
446.827
446.436
445.977
445.458
444.887
444.273
443.622
442.938
442.228
441.498
440.756
440.012
439.299
438.679
438.353
438.799
438.907
438.215
436.871
436.007
435.93
388.742
388.451
388.091
387.688
387.219
386.688
386.102
385.475
384.81
384.111
383.384
382.638
381.884
381.132
380.427
379.832
379.491
379.719
379.865
379.186
377.869
377.077
377.008
330.06
329.752
329.376
328.958
328.477
327.928
327.324
326.68
326.001
325.288
324.547
323.785
323.014
322.245
321.528
320.924
320.539
320.544
320.473
319.835
318.754
318.027
318.039
725.66
726.903
727.649
728.075
728.319
728.497
728.662
728.829
728.894
728.737
728.12
728.013
727.263
728.092
730.295
731.118
730.795
730.566
732.441
667.226
668
668.623
669.133
669.51
669.801
670.055
670.218
670.145
669.875
669.389
669.56
670.161
670.848
671.414
671.77
671.483
671.508
674.146
608.466
609.021
609.515
610.036
610.487
610.872
611.216
611.428
611.411
611.288
610.979
611.8
613.322
613.246
612.747
612.787
612.491
612.352
614.858
549.339
549.992
550.482
551.007
551.493
551.93
552.327
552.628
552.807
552.989
553.734
554.911
556.176
555.315
554.399
554.171
553.742
553.19
554.974
490.091
490.878
491.466
492.022
492.528
492.997
493.465
493.935
494.302
494.819
496.713
497.926
498.918
497.433
496.253
495.836
495.235
494.265
496.087
430.774
431.759
432.458
433.061
433.579
434.068
434.604
435.193
435.754
436.529
438.8
440.542
441.166
439.307
438.195
437.752
437.405
435.743
438.597
371.28
372.778
373.504
374.125
374.645
375.129
375.703
376.386
377.113
378.063
380.177
382.172
382.533
380.943
380.168
379.909
380.52
378.046
381.727
311.64
314.059
314.663
315.236
315.717
316.153
316.737
317.481
318.374
319.577
321.47
323.154
323.531
322.557
322.166
322.271
323.64
321.946
325.142
238.36
238.02
237.616
237.171
236.663
236.078
235.435
234.761
234.062
233.33
232.566
231.779
230.977
230.158
229.388
228.726
228.237
227.951
227.617
226.987
226.108
225.351
224.854
113.802
113.379
112.977
112.544
112.026
111.419
110.758
110.098
109.435
108.726
107.983
107.248
106.531
105.849
105.215
104.658
104.183
103.755
103.263
102.617
101.811
100.98
100.191
25.7757
25.4901
25.2781
25.0743
24.8838
24.6944
24.4942
24.2175
23.9022
23.5497
23.1789
22.8103
22.4809
22.2322
22.0162
21.8119
21.5963
21.3864
21.1461
20.8148
20.402
19.9531
19.5021
-0.245466
-0.265301
-0.270224
-0.255955
-0.155089
-0.00807147
0.198642
0.269302
0.267325
0.258595
0.243696
0.200657
0.155279
0.110003
0.0573521
-0.0120215
-0.174149
-0.289279
-0.35047
-0.404205
-0.4202
-0.439248
-0.510172
-0.627901
-0.624766
-0.628082
-0.621718
-0.59173
-0.540136
-0.466196
-0.423296
-0.400448
-0.390599
-0.385058
-0.388365
-0.406566
-0.43294
-0.460838
-0.496758
-0.533258
-0.566828
-0.595839
-0.633463
-0.658552
-0.679584
-0.708161
-0.969174
-0.964558
-0.963048
-0.962272
-0.966826
-0.974352
-0.99067
-1.01269
-1.02037
-1.01991
-1.02004
-1.02305
-1.03299
-1.04601
-1.05799
-1.05995
-1.01557
-0.997928
-0.996285
-1.01092
-1.02415
-1.02076
-0.99928
-1.23806
-1.23878
-1.23702
-1.23878
-1.24738
-1.25914
-1.27277
-1.27614
-1.28261
-1.28654
-1.2883
-1.28803
-1.28519
-1.28071
-1.2743
-1.27013
-1.272
-1.26315
-1.25227
-1.23521
-1.22368
-1.21425
-1.19209
-1.4104
-1.41151
-1.41041
-1.41084
-1.41161
-1.41138
-1.41123
-1.41055
-1.41046
-1.41092
-1.41097
-1.41011
-1.40815
-1.40545
-1.40222
-1.39958
-1.39795
-1.39412
-1.38786
-1.3816
-1.37505
-1.37083
-1.36733
-1.53605
-1.53631
-1.53565
-1.53557
-1.53595
-1.53621
-1.53633
-1.53563
-1.5353
-1.53529
-1.53513
-1.53443
-1.53307
-1.53129
-1.52926
-1.52776
-1.5276
-1.52902
-1.52904
-1.52663
-1.52303
-1.52363
-1.52844
-1.66137
-1.66126
-1.66092
-1.66082
-1.66092
-1.66094
-1.66081
-1.66039
-1.66008
-1.6599
-1.65968
-1.65921
-1.65837
-1.65719
-1.65586
-1.65503
-1.6552
-1.65637
-1.65792
-1.6583
-1.65817
-1.65943
-1.66109
-1.78652
-1.78634
-1.78614
-1.78604
-1.786
-1.7859
-1.78571
-1.78538
-1.78508
-1.78485
-1.78461
-1.78426
-1.78366
-1.78284
-1.78201
-1.78152
-1.78158
-1.78229
-1.78297
-1.78326
-1.78344
-1.78411
-1.7849
-1.9116
-1.91147
-1.91134
-1.91123
-1.91113
-1.91099
-1.9108
-1.91053
-1.91028
-1.91007
-1.90981
-1.90944
-1.90895
-1.90839
-1.90787
-1.90758
-1.90761
-1.90799
-1.90837
-1.90863
-1.90882
-1.9092
-1.90961
-2.03665
-2.03659
-2.03652
-2.03643
-2.03631
-2.03616
-2.03597
-2.03577
-2.03557
-2.03534
-2.03506
-2.0347
-2.03431
-2.03392
-2.03359
-2.03341
-2.03344
-2.0337
-2.03409
-2.03435
-2.03451
-2.03469
-2.03477
-2.16167
-2.1617
-2.16168
-2.16162
-2.16151
-2.16136
-2.16118
-2.161
-2.1608
-2.16057
-2.1603
-2.16
-2.1597
-2.15942
-2.1592
-2.15909
-2.15913
-2.15934
-2.15971
-2.16001
-2.16017
-2.16023
-2.1601
-2.28669
-2.2868
-2.28684
-2.2868
-2.28671
-2.28657
-2.28641
-2.28623
-2.28603
-2.28581
-2.28558
-2.28534
-2.2851
-2.28489
-2.28473
-2.28466
-2.28469
-2.28484
-2.28509
-2.28537
-2.28553
-2.2855
-2.28538
-2.41172
-2.4119
-2.41199
-2.41198
-2.4119
-2.41179
-2.41164
-2.41147
-2.41128
-2.41109
-2.41088
-2.41068
-2.41049
-2.41033
-2.41021
-2.41015
-2.41017
-2.41027
-2.41042
-2.41058
-2.41068
-2.41068
-2.41063
-2.53677
-2.537
-2.53713
-2.53715
-2.5371
-2.537
-2.53687
-2.53671
-2.53654
-2.53637
-2.53619
-2.53601
-2.53586
-2.53572
-2.53563
-2.53558
-2.53558
-2.53564
-2.53572
-2.53582
-2.53588
-2.53589
-2.53587
-2.66184
-2.66211
-2.66227
-2.66232
-2.66229
-2.66221
-2.66209
-2.66195
-2.6618
-2.66164
-2.66148
-2.66133
-2.6612
-2.66108
-2.661
-2.66095
-2.66094
-2.66097
-2.66102
-2.66107
-2.66111
-2.66112
-2.66112
-2.78694
-2.78724
-2.78743
-2.78749
-2.78748
-2.78741
-2.78731
-2.78718
-2.78705
-2.78691
-2.78677
-2.78663
-2.78652
-2.78642
-2.78634
-2.78629
-2.78627
-2.78628
-2.7863
-2.78633
-2.78635
-2.78636
-2.78637
-2.91208
-2.91239
-2.91259
-2.91267
-2.91267
-2.91261
-2.91252
-2.91242
-2.91229
-2.91217
-2.91204
-2.91193
-2.91182
-2.91173
-2.91166
-2.91161
-2.91159
-2.91158
-2.91159
-2.9116
-2.91161
-2.91162
-2.91163
-3.03724
-3.03755
-3.03776
-3.03784
-3.03785
-3.03781
-3.03773
-3.03764
-3.03753
-3.03742
-3.03731
-3.03721
-3.03711
-3.03703
-3.03696
-3.03691
-3.03688
-3.03687
-3.03687
-3.03687
-3.03688
-3.03688
-3.03689
-3.16241
-3.16272
-3.16292
-3.16301
-3.16302
-3.16299
-3.16293
-3.16285
-3.16275
-3.16266
-3.16256
-3.16247
-3.16238
-3.16231
-3.16225
-3.1622
-3.16217
-3.16215
-3.16214
-3.16214
-3.16214
-3.16215
-3.16216
-3.2876
-3.28789
-3.28808
-3.28817
-3.28819
-3.28816
-3.28811
-3.28804
-3.28796
-3.28788
-3.28779
-3.28771
-3.28763
-3.28757
-3.28751
-3.28747
-3.28744
-3.28742
-3.28741
-3.2874
-3.28741
-3.28741
-3.28743
-3.4128
-3.41306
-3.41324
-3.41333
-3.41335
-3.41333
-3.41329
-3.41323
-3.41316
-3.41309
-3.41301
-3.41294
-3.41287
-3.41281
-3.41276
-3.41272
-3.41269
-3.41268
-3.41266
-3.41266
-3.41266
-3.41267
-3.41268
-3.53802
-3.53825
-3.5384
-3.53848
-3.5385
-3.53849
-3.53846
-3.53841
-3.53835
-3.53828
-3.53822
-3.53815
-3.5381
-3.53804
-3.538
-3.53796
-3.53794
-3.53792
-3.53791
-3.53791
-3.53791
-3.53792
-3.53793
-3.66325
-3.66344
-3.66356
-3.66362
-3.66364
-3.66364
-3.66361
-3.66357
-3.66352
-3.66347
-3.66341
-3.66336
-3.6633
-3.66326
-3.66322
-3.66319
-3.66317
-3.66315
-3.66314
-3.66314
-3.66314
-3.66315
-3.66317
-3.78849
-3.78864
-3.78872
-3.78876
-3.78878
-3.78878
-3.78876
-3.78872
-3.78868
-3.78863
-3.78859
-3.78854
-3.7885
-3.78846
-3.78843
-3.7884
-3.78838
-3.78837
-3.78836
-3.78836
-3.78837
-3.78838
-3.7884
-3.91374
-3.91384
-3.91387
-3.91389
-3.91391
-3.91391
-3.91389
-3.91386
-3.91383
-3.91379
-3.91375
-3.91371
-3.91368
-3.91365
-3.91362
-3.9136
-3.91358
-3.91358
-3.91357
-3.91358
-3.91359
-3.91361
-3.91363
-4.03899
-4.03904
-4.03903
-4.03903
-4.03904
-4.03904
-4.03902
-4.039
-4.03897
-4.03894
-4.03891
-4.03888
-4.03885
-4.03882
-4.0388
-4.03879
-4.03878
-4.03877
-4.03878
-4.03878
-4.0388
-4.03882
-4.03885
-4.16424
-4.16425
-4.16422
-4.1642
-4.16419
-4.16418
-4.16416
-4.16414
-4.16411
-4.16409
-4.16406
-4.16403
-4.16401
-4.16399
-4.16398
-4.16397
-4.16396
-4.16396
-4.16397
-4.16398
-4.164
-4.16403
-4.16406
-4.28948
-4.28945
-4.28939
-4.28936
-4.28934
-4.28931
-4.28929
-4.28927
-4.28925
-4.28923
-4.28921
-4.28919
-4.28917
-4.28916
-4.28915
-4.28914
-4.28914
-4.28915
-4.28916
-4.28918
-4.2892
-4.28923
-4.28926
-4.41471
-4.41462
-4.41455
-4.41451
-4.41448
-4.41444
-4.41442
-4.4144
-4.41438
-4.41437
-4.41435
-4.41434
-4.41433
-4.41432
-4.41431
-4.41431
-4.41431
-4.41432
-4.41434
-4.41436
-4.41439
-4.41442
-4.41446
-4.53991
-4.53977
-4.53968
-4.53963
-4.53959
-4.53956
-4.53954
-4.53953
-4.53952
-4.53951
-4.5395
-4.53949
-4.53948
-4.53947
-4.53947
-4.53947
-4.53948
-4.53949
-4.53951
-4.53954
-4.53957
-4.53961
-4.53965
-4.66509
-4.66491
-4.66478
-4.66473
-4.66469
-4.66468
-4.66466
-4.66466
-4.66465
-4.66464
-4.66464
-4.66463
-4.66463
-4.66462
-4.66462
-4.66463
-4.66464
-4.66465
-4.66468
-4.66471
-4.66475
-4.66479
-4.66483
-4.79024
-4.79003
-4.78989
-4.78983
-4.7898
-4.78979
-4.78979
-4.78979
-4.78979
-4.78979
-4.78978
-4.78978
-4.78977
-4.78977
-4.78977
-4.78978
-4.78979
-4.78981
-4.78984
-4.78988
-4.78992
-4.78997
-4.79001
-4.91536
-4.91513
-4.91498
-4.91493
-4.91492
-4.91492
-4.91493
-4.91493
-4.91493
-4.91494
-4.91493
-4.91493
-4.91492
-4.91492
-4.91492
-4.91492
-4.91494
-4.91496
-4.915
-4.91504
-4.9151
-4.91515
-4.9152
-5.04044
-5.0402
-5.04008
-5.04005
-5.04006
-5.04007
-5.04008
-5.04009
-5.04009
-5.04009
-5.04009
-5.04009
-5.04008
-5.04007
-5.04007
-5.04007
-5.04008
-5.0401
-5.04015
-5.04021
-5.04027
-5.04033
-5.04039
-5.16545
-5.16524
-5.16519
-5.1652
-5.16522
-5.16524
-5.16525
-5.16526
-5.16527
-5.16527
-5.16526
-5.16525
-5.16524
-5.16523
-5.16522
-5.16521
-5.16521
-5.16524
-5.1653
-5.16538
-5.16546
-5.16553
-5.16559
-5.2904
-5.29027
-5.29033
-5.29039
-5.29042
-5.29044
-5.29045
-5.29046
-5.29047
-5.29046
-5.29045
-5.29044
-5.29042
-5.2904
-5.29037
-5.29036
-5.29035
-5.29037
-5.29044
-5.29055
-5.29065
-5.29073
-5.29079
-5.41539
-5.4154
-5.41557
-5.41564
-5.41566
-5.41567
-5.41568
-5.41569
-5.41568
-5.41567
-5.41565
-5.41562
-5.4156
-5.41556
-5.41553
-5.41549
-5.41546
-5.41546
-5.41556
-5.41574
-5.41587
-5.41595
-5.416
-5.54029
-5.54062
-5.54086
-5.54093
-5.54093
-5.54093
-5.54091
-5.54089
-5.54086
-5.54083
-5.54079
-5.54075
-5.5407
-5.54065
-5.5406
-5.54054
-5.54046
-5.54039
-5.54056
-5.54093
-5.54111
-5.54119
-5.54123
-5.66569
-5.66662
-5.66643
-5.66635
-5.66628
-5.66622
-5.66617
-5.66612
-5.66607
-5.66602
-5.66597
-5.66592
-5.66586
-5.66579
-5.66571
-5.66561
-5.66541
-5.66506
-5.66527
-5.66607
-5.66633
-5.66641
-5.66644
224.829
224.552
224.309
224.045
99.7152
99.552
99.466
99.2166
19.2725
19.1764
19.1027
18.9965
-0.474842
-0.443816
-0.436202
-0.446735
-0.687478
-0.672587
-0.675628
-0.692264
-0.991304
-0.980263
-0.980989
-0.975321
-1.19909
-1.20821
-1.20843
-1.20393
-1.37497
-1.38089
-1.38352
-1.38341
-1.5302
-1.53014
-1.52881
-1.52801
-1.66038
-1.6587
-1.65744
-1.65688
-1.78443
-1.78393
-1.78337
-1.78301
-1.90935
-1.90911
-1.90887
-1.90865
-2.03459
-2.03446
-2.03433
-2.03419
-2.15995
-2.15987
-2.15978
-2.1597
-2.28528
-2.28523
-2.28518
-2.28513
-2.41058
-2.41055
-2.41052
-2.4105
-2.53585
-2.53584
-2.53583
-2.53582
-2.66111
-2.66111
-2.66111
-2.66112
-2.78637
-2.78637
-2.78639
-2.7864
-2.91163
-2.91164
-2.91166
-2.91168
-3.0369
-3.03691
-3.03693
-3.03695
-3.16217
-3.16219
-3.16221
-3.16223
-3.28744
-3.28745
-3.28747
-3.28749
-3.4127
-3.41271
-3.41273
-3.41275
-3.53795
-3.53796
-3.53798
-3.538
-3.66319
-3.6632
-3.66322
-3.66324
-3.78842
-3.78844
-3.78846
-3.78848
-3.91365
-3.91367
-3.91369
-3.91371
-4.03887
-4.03889
-4.03891
-4.03894
-4.16409
-4.16411
-4.16413
-4.16415
-4.28929
-4.28931
-4.28934
-4.28936
-4.41449
-4.41451
-4.41453
-4.41456
-4.53968
-4.5397
-4.53972
-4.53975
-4.66486
-4.66489
-4.66491
-4.66494
-4.79005
-4.79007
-4.7901
-4.79012
-4.91524
-4.91526
-4.91529
-4.91531
-5.04043
-5.04046
-5.04048
-5.0405
-5.16563
-5.16565
-5.16568
-5.1657
-5.29083
-5.29085
-5.29087
-5.29089
-5.41604
-5.41606
-5.41607
-5.41609
-5.54125
-5.54126
-5.54127
-5.54128
-5.66646
-5.66646
-5.66647
-5.66647
221.639
222.505
222.765
223.245
223.959
224.743
225.496
226.229
227.028
228.173
229.731
231.057
231.568
231.3
231.464
232.403
234.476
234.828
235.699
98.3886
99.1419
99.8724
100.781
101.992
103.358
104.657
105.725
106.528
107.115
107.775
108.494
109.086
109.524
110.09
110.901
112.37
113.266
113.148
18.7602
19.082
19.5694
20.198
20.9846
21.8681
22.7812
23.6008
23.9784
24.0168
23.9443
24.0046
24.2731
24.7018
25.0779
25.1262
25.1685
25.694
25.6453
-0.486839
-0.479787
-0.491899
-0.523609
-0.455858
-0.383596
-0.405115
-0.438172
-0.443605
-0.439812
-0.424114
-0.412013
-0.406477
-0.383125
-0.312953
-0.383974
-0.476808
-0.548101
-0.519169
-0.708426
-0.704894
-0.704882
-0.711784
-0.678846
-0.647176
-0.645255
-0.650755
-0.657895
-0.66547
-0.673889
-0.683957
-0.690884
-0.693122
-0.694277
-0.710419
-0.729086
-0.744411
-0.742727
-0.946527
-0.935974
-0.937085
-0.940193
-0.953162
-0.971913
-0.978677
-0.977625
-0.977976
-0.97742
-0.978544
-0.982874
-0.984657
-0.983347
-0.983381
-0.973315
-0.978911
-0.990213
-0.985004
-1.19283
-1.19069
-1.19342
-1.18789
-1.22034
-1.24014
-1.24638
-1.2474
-1.24694
-1.24553
-1.24451
-1.24199
-1.24063
-1.24108
-1.24112
-1.23535
-1.23095
-1.22795
-1.22364
-1.39065
-1.39489
-1.39678
-1.39583
-1.40011
-1.39803
-1.3966
-1.39631
-1.39462
-1.39265
-1.39137
-1.39131
-1.3925
-1.39398
-1.39633
-1.39751
-1.39986
-1.39922
-1.39936
-1.53043
-1.53354
-1.53361
-1.53309
-1.52897
-1.52586
-1.52381
-1.52229
-1.51994
-1.51851
-1.51828
-1.51847
-1.51972
-1.5211
-1.52295
-1.52584
-1.5262
-1.52695
-1.52839
-1.65685
-1.65787
-1.65773
-1.65658
-1.6542
-1.65201
-1.65048
-1.64892
-1.64734
-1.6476
-1.64847
-1.64854
-1.64797
-1.64752
-1.64855
-1.65028
-1.65133
-1.65224
-1.65314
-1.78271
-1.7829
-1.78244
-1.78119
-1.77954
-1.77826
-1.77751
-1.77676
-1.77702
-1.77855
-1.77911
-1.77763
-1.77546
-1.77461
-1.77502
-1.77585
-1.77644
-1.77733
-1.77819
-1.90835
-1.90825
-1.90777
-1.90683
-1.90593
-1.90525
-1.9051
-1.90603
-1.90764
-1.9084
-1.907
-1.90495
-1.90368
-1.90346
-1.90375
-1.9037
-1.90343
-1.90344
-1.90363
-2.03397
-2.03389
-2.03377
-2.03354
-2.03317
-2.03293
-2.03313
-2.03455
-2.03581
-2.03522
-2.03412
-2.03325
-2.03295
-2.03291
-2.03258
-2.03201
-2.03123
-2.03032
-2.03003
-2.15956
-2.15958
-2.15983
-2.16026
-2.16028
-2.16016
-2.16017
-2.16059
-2.16108
-2.16081
-2.16065
-2.16106
-2.1609
-2.16022
-2.15902
-2.15812
-2.15743
-2.15691
-2.15703
-2.28506
-2.28513
-2.28542
-2.286
-2.28626
-2.28601
-2.28575
-2.28591
-2.28615
-2.28611
-2.2862
-2.28664
-2.28651
-2.28559
-2.28471
-2.28415
-2.28395
-2.28412
-2.28434
-2.41047
-2.41055
-2.41076
-2.41108
-2.41125
-2.41118
-2.41109
-2.41118
-2.41132
-2.41136
-2.41145
-2.41161
-2.41148
-2.41098
-2.41053
-2.41038
-2.41069
-2.41166
-2.41158
-2.53582
-2.5359
-2.53605
-2.53624
-2.53636
-2.53637
-2.53636
-2.53644
-2.53654
-2.5366
-2.53668
-2.53676
-2.53669
-2.53647
-2.53635
-2.5365
-2.5371
-2.53839
-2.53848
-2.66113
-2.66121
-2.66132
-2.66146
-2.66156
-2.66159
-2.66163
-2.6617
-2.66179
-2.66186
-2.66193
-2.662
-2.662
-2.66196
-2.66202
-2.66233
-2.66297
-2.66399
-2.66441
-2.78643
-2.7865
-2.78659
-2.78671
-2.7868
-2.78685
-2.7869
-2.78697
-2.78705
-2.78713
-2.7872
-2.78728
-2.78733
-2.78738
-2.78753
-2.78786
-2.7884
-2.78907
-2.78928
-2.91171
-2.91178
-2.91186
-2.91195
-2.91204
-2.91211
-2.91218
-2.91224
-2.91232
-2.9124
-2.91249
-2.91257
-2.91265
-2.91274
-2.9129
-2.91317
-2.91356
-2.91394
-2.91401
-3.03699
-3.03705
-3.03712
-3.0372
-3.03729
-3.03736
-3.03744
-3.03751
-3.0376
-3.03768
-3.03777
-3.03786
-3.03795
-3.03805
-3.03818
-3.03837
-3.03859
-3.03879
-3.03879
-3.16226
-3.16232
-3.16238
-3.16246
-3.16254
-3.16262
-3.1627
-3.16278
-3.16287
-3.16296
-3.16305
-3.16314
-3.16322
-3.16331
-3.1634
-3.16349
-3.16356
-3.1636
-3.16358
-3.28753
-3.28758
-3.28764
-3.28772
-3.28779
-3.28787
-3.28796
-3.28804
-3.28814
-3.28823
-3.28832
-3.28841
-3.28849
-3.28855
-3.2886
-3.28859
-3.28851
-3.2884
-3.28831
-3.41278
-3.41284
-3.4129
-3.41297
-3.41305
-3.41313
-3.41322
-3.41331
-3.4134
-3.4135
-3.41359
-3.41368
-3.41375
-3.4138
-3.41381
-3.41374
-3.41353
-3.41331
-3.41299
-3.53804
-3.53809
-3.53815
-3.53822
-3.5383
-3.53838
-3.53847
-3.53857
-3.53867
-3.53877
-3.53886
-3.53895
-3.53903
-3.53908
-3.53907
-3.53899
-3.53877
-3.53857
-3.53815
-3.66328
-3.66333
-3.6634
-3.66347
-3.66355
-3.66363
-3.66372
-3.66382
-3.66393
-3.66403
-3.66413
-3.66423
-3.66432
-3.66438
-3.6644
-3.66436
-3.66422
-3.66417
-3.66389
-3.78852
-3.78857
-3.78864
-3.78871
-3.78879
-3.78888
-3.78897
-3.78907
-3.78918
-3.78929
-3.7894
-3.78951
-3.78961
-3.7897
-3.78976
-3.78978
-3.78975
-3.78978
-3.78954
-3.91375
-3.91381
-3.91387
-3.91394
-3.91402
-3.91411
-3.91421
-3.91432
-3.91443
-3.91455
-3.91467
-3.91479
-3.91491
-3.91502
-3.91512
-3.9152
-3.91526
-3.91529
-3.91509
-4.03897
-4.03903
-4.0391
-4.03917
-4.03925
-4.03934
-4.03944
-4.03955
-4.03967
-4.03979
-4.03993
-4.04006
-4.0402
-4.04034
-4.04047
-4.04059
-4.0407
-4.04071
-4.04055
-4.16419
-4.16425
-4.16431
-4.16439
-4.16447
-4.16456
-4.16466
-4.16478
-4.1649
-4.16503
-4.16517
-4.16532
-4.16547
-4.16563
-4.16578
-4.16593
-4.16605
-4.16601
-4.16576
-4.2894
-4.28946
-4.28952
-4.2896
-4.28968
-4.28977
-4.28988
-4.28999
-4.29012
-4.29026
-4.29041
-4.29056
-4.29073
-4.2909
-4.29107
-4.29123
-4.29134
-4.29126
-4.29085
-4.4146
-4.41466
-4.41472
-4.4148
-4.41488
-4.41498
-4.41508
-4.4152
-4.41533
-4.41547
-4.41563
-4.41579
-4.41597
-4.41615
-4.41632
-4.41648
-4.41659
-4.41649
-4.41612
-4.53979
-4.53985
-4.53992
-4.53999
-4.54008
-4.54017
-4.54028
-4.54039
-4.54052
-4.54067
-4.54083
-4.541
-4.54119
-4.54137
-4.54155
-4.54169
-4.54175
-4.54157
-4.54117
-4.66498
-4.66504
-4.66511
-4.66518
-4.66526
-4.66536
-4.66546
-4.66558
-4.66571
-4.66586
-4.66602
-4.6662
-4.66639
-4.66658
-4.66675
-4.66686
-4.66682
-4.6665
-4.66586
-4.79017
-4.79023
-4.79029
-4.79037
-4.79045
-4.79053
-4.79063
-4.79075
-4.79088
-4.79103
-4.79119
-4.79138
-4.79157
-4.79177
-4.79195
-4.79205
-4.79195
-4.79153
-4.79075
-4.91536
-4.91542
-4.91548
-4.91555
-4.91562
-4.9157
-4.9158
-4.91591
-4.91603
-4.91618
-4.91635
-4.91654
-4.91675
-4.91697
-4.91717
-4.9173
-4.91722
-4.91677
-4.91595
-5.04055
-5.0406
-5.04066
-5.04072
-5.04079
-5.04087
-5.04095
-5.04105
-5.04117
-5.04131
-5.04148
-5.04167
-5.0419
-5.04216
-5.04242
-5.04263
-5.04264
-5.04219
-5.04134
-5.16573
-5.16578
-5.16584
-5.16589
-5.16595
-5.16602
-5.16609
-5.16618
-5.16629
-5.16642
-5.16658
-5.16678
-5.16702
-5.16731
-5.16766
-5.16801
-5.16819
-5.16779
-5.16688
-5.29092
-5.29097
-5.29101
-5.29105
-5.2911
-5.29116
-5.29122
-5.2913
-5.29139
-5.2915
-5.29165
-5.29183
-5.29208
-5.29241
-5.29285
-5.29341
-5.2939
-5.29358
-5.29267
-5.41611
-5.41614
-5.41618
-5.41621
-5.41625
-5.41629
-5.41634
-5.4164
-5.41647
-5.41656
-5.41667
-5.41683
-5.41705
-5.41738
-5.41789
-5.41871
-5.41976
-5.41967
-5.41899
-5.5413
-5.54132
-5.54134
-5.54136
-5.54138
-5.54141
-5.54144
-5.54148
-5.54152
-5.54158
-5.54165
-5.54176
-5.54191
-5.54216
-5.54262
-5.54363
-5.54551
-5.54614
-5.54635
-5.66648
-5.66649
-5.6665
-5.66651
-5.66652
-5.66653
-5.66655
-5.66656
-5.66658
-5.6666
-5.66663
-5.66667
-5.66673
-5.66685
-5.66711
-5.66786
-5.67007
-5.67304
-5.67534
)
;

boundaryField
{
    leftWall
    {
        type            calculated;
        value           nonuniform List<scalar> 
50
(
741.205
682.409
623.634
564.883
506.152
447.439
388.742
330.06
238.36
113.802
25.7757
-0.245466
-0.627901
-0.969174
-1.23806
-1.4104
-1.53605
-1.66137
-1.78652
-1.9116
-2.03665
-2.16167
-2.28669
-2.41172
-2.53677
-2.66184
-2.78694
-2.91208
-3.03724
-3.16241
-3.2876
-3.4128
-3.53802
-3.66325
-3.78849
-3.91374
-4.03899
-4.16424
-4.28948
-4.41471
-4.53991
-4.66509
-4.79024
-4.91536
-5.04044
-5.16545
-5.2904
-5.41539
-5.54029
-5.66569
)
;
    }
    rightWall
    {
        type            calculated;
        value           nonuniform List<scalar> 
50
(
732.441
674.146
614.858
554.974
496.087
438.597
381.727
325.142
235.699
113.148
25.6453
-0.519169
-0.742727
-0.985004
-1.22364
-1.39936
-1.52839
-1.65314
-1.77819
-1.90363
-2.03003
-2.15703
-2.28434
-2.41158
-2.53848
-2.66441
-2.78928
-2.91401
-3.03879
-3.16358
-3.28831
-3.41299
-3.53815
-3.66389
-3.78954
-3.91509
-4.04055
-4.16576
-4.29085
-4.41612
-4.54117
-4.66586
-4.79075
-4.91595
-5.04134
-5.16688
-5.29267
-5.41899
-5.54635
-5.67534
)
;
    }
    lowerWall
    {
        type            calculated;
        value           nonuniform List<scalar> 
62
(
770.634
770.377
770.045
769.647
769.197
768.706
768.186
767.644
767.087
766.519
765.941
765.353
764.747
764.109
763.408
762.591
761.664
760.651
760.042
759.731
759.784
759.986
759.855
730.543
671.703
612.767
553.813
494.868
435.93
377.008
318.039
287.421
287.141
286.894
286.63
725.66
667.226
608.466
549.339
490.091
430.774
371.28
311.64
754.789
756.07
756.864
757.265
757.477
757.651
757.817
757.984
758.177
758.129
757.512
757.405
756.128
756.6
759.363
760.494
760.18
759.864
761.48
)
;
    }
    atmosphere
    {
        type            calculated;
        value           nonuniform List<scalar> 
46
(
-5.72918
-5.72904
-5.72904
-5.72904
-5.72904
-5.72904
-5.72904
-5.72904
-5.72904
-5.72904
-5.72904
-5.72904
-5.72904
-5.72904
-5.72904
-5.72904
-5.72904
-5.72904
-5.72904
-5.72904
-5.72904
-5.72905
-5.72905
-5.72906
-5.72906
-5.72906
-5.72906
-5.72907
-5.72907
-5.72908
-5.72909
-5.72909
-5.7291
-5.72911
-5.72911
-5.72912
-5.72913
-5.72913
-5.72914
-5.72914
-5.72914
-5.72914
-5.72912
-5.72909
-5.72904
-5.74256
)
;
    }
    defaultFaces
    {
        type            empty;
    }
}


// ************************************************************************* //
