/*--------------------------------*- C++ -*----------------------------------*\
  =========                 |
  \\      /  F ield         | OpenFOAM: The Open Source CFD Toolbox
   \\    /   O peration     | Website:  https://openfoam.org
    \\  /    A nd           | Version:  9
     \\/     M anipulation  |
\*---------------------------------------------------------------------------*/
FoamFile
{
    format      ascii;
    class       surfaceScalarField;
    location    "8";
    object      phi;
}
// * * * * * * * * * * * * * * * * * * * * * * * * * * * * * * * * * * * * * //

dimensions      [0 3 -1 0 0 0 0];

internalField   nonuniform List<scalar> 
1300
(
11.2529
1.87548
-4.63506
11.2529
-4.99621
1.87548
-4.25774
4.25774
-1.30999
1.30999
5.7125
5.54036
-2.5606
2.5606
-3.1459
3.1459
-2.92528
2.92528
-1.06194
1.06194
-1.02838
1.02838
0.716225
-0.716225
-3.33432
3.33432
-1.60277
1.60277
-3.04593
3.04593
6.12903
-6.12903
-3.60481
3.60481
-0.808133
0.808133
-4.26355
15.5164
6.98931
6.98931
-2.485
2.485
-1.2574
1.2574
1.41034
-1.41034
9.92667
-9.92667
-5.29161
-6.14989
1.93143
-13.798
-3.06478
-3.06478
-2.7054
2.7054
-0.829928
1.04555
3.46851
-3.46851
-0.80464
0.80464
-4.31056
0.0528226
-4.31056
4.08755
0.170189
4.08755
-1.4639
0.153903
-1.4639
4.5761
-4.5761
1.18904
0.120951
1.18904
3.92515
-3.92515
-5.70984
11.4223
5.54302
-5.32038
20.8368
-5.93248
11.4728
-3.87936
3.87936
-2.4662
-0.0943992
-2.4662
2.62086
-0.0602682
2.62086
-3.86745
3.86745
-2.91954
-0.22636
-2.91954
3.28787
-0.141978
3.28787
3.64365
-3.64365
-2.9619
0.036622
-2.9619
2.79287
0.132411
2.79287
0.771042
1.10443
-2.64652
3.69207
-1.10443
0.0424987
1.02614
0.0357984
1.02614
-1.01456
-0.0138193
-1.01456
1.05024
-0.0218581
1.05024
0.766191
-0.0499659
0.766191
-0.766257
0.0500321
-0.766257
-8.50772
-8.53335
-3.43154
0.0972166
-3.43154
-1.60888
0.00610772
-1.60888
1.64763
-0.0448635
1.64763
-2.58116
2.58116
-3.3736
0.327673
-3.3736
4.80827
1.32077
4.80827
5.04629
6.20657
16.2991
-16.2991
10.1701
-3.35591
-0.248899
-3.35591
-3.78313
-6.14354
3.78313
-0.178327
-0.8851
0.0769667
-0.8851
5.62557
1.36374
5.62557
2.68965
0.103221
-2.68965
0.204647
4.57419
-4.57419
1.50277
0.982234
1.50277
-1.19045
1.19045
1.12468
-0.0744368
-1.12468
-0.132728
1.38599
0.0243472
1.38599
-1.40974
-0.000593508
-1.40974
7.69922
-13.8491
-7.78637
3.17773
0.156587
-3.17773
0.112951
3.55174
-0.0832277
3.55174
-3.32047
3.32047
-3.60438
0.135861
-3.60438
-0.724569
-0.0800702
-0.724569
0.894661
-0.0900216
0.894661
-4.5175
0.206938
-4.5175
-3.78821
0.414606
3.78821
0.299344
1.31495
-1.31495
-1.57615
0.112248
-1.57615
-4.56841
0.0509093
4.56841
0.00769104
-4.66833
0.0922253
-4.66833
-3.70793
0.10355
3.70793
0.217224
4.58746
1.03812
-4.58746
0.662309
-5.36973
11.5763
-5.88313
11.4261
-3.54126
-0.338107
-3.54126
4.03888
-0.159514
4.03888
2.73756
0.308372
-2.73756
0.27136
2.78073
-0.159861
2.78073
-3.83841
-0.0290474
-3.83841
3.67568
0.191775
3.67568
2.84957
-0.0688481
-2.84957
-0.0699623
3.2963
-0.00842971
3.2963
3.64903
-0.00538505
3.64903
-3.5222
-0.121447
-3.5222
3.20139
-3.20139
3.11363
0.0877601
-3.11363
0.151724
-5.07402
5.07343
-0.00799859
-5.06602
1.01814
1.01814
0.819616
-0.0534249
0.819616
-0.864
0.0977429
-0.864
8.46313
-16.2495
8.47395
-16.9817
7.18696
-20.985
7.93473
-16.4681
3.6871
-3.6871
3.62795
0.0591558
-3.62795
0.196411
-1.57479
-0.0340877
-1.57479
-2.34503
-0.23613
-2.34503
2.91658
-0.335428
2.91658
-3.74758
3.74758
-4.12805
0.380469
4.12805
0.680219
3.35457
-0.0582699
-3.35457
-0.00133689
1.02323
0.165811
-1.02323
0.138132
4.79926
-0.225064
4.79926
-4.05138
-0.522813
-4.05138
-1.56952
-0.00527236
1.56952
-0.0667463
-1.25856
0.0681117
-1.25856
-5.0745
0.00847716
-5.0387
-1.40127
-1.40127
1.30414
4.9962
-3.57011
0.0479053
3.57011
-0.018366
3.53492
0.212658
-3.53492
0.214452
-3.27905
0.0776629
3.27905
0.0414185
-0.701949
-0.02262
-0.701949
-1.08985
1.08985
-0.972023
-0.117824
0.972023
-0.0773621
1.47054
-0.15559
1.47054
1.62066
0.0269738
-1.62066
0.0445122
-4.90333
0.235001
-4.90333
4.0286
0.0102772
4.0286
-3.91602
-0.135366
3.91602
-0.266982
-0.00371841
5.07715
-1.01442
-0.000141443
1.01442
-5.1015
5.10135
-0.708596
0.00664664
0.708596
0.11102
1.02865
0.1618
-1.02865
0.164652
3.70812
-0.0324441
-3.70812
0.0210194
-2.0645
-0.280526
-2.0645
-3.23233
-0.308927
3.23233
-0.315744
-5.11488
-0.0782271
5.1931
-5.13673
1.33679
0.0492005
-1.33679
5.15055
-1.20361
-0.111343
1.20361
-0.113764
1.67131
-0.200769
1.67131
5.0268
-0.227538
-5.0268
0.123468
-4.01591
0.1775
4.01591
0.0126926
-1.83973
-0.224769
1.83973
-0.168419
-13.1272
14.4909
7.70962
-6.76131
-7.0878
-12.9048
4.44821
7.12809
14.6183
-11.4626
-9.52238
-11.3496
2.86254
-2.69789
-3.87647
3.82651
23.0112
-22.919
-18.4046
19.0848
20.7692
-20.552
5.70704
5.7153
16.4992
-16.5936
-20.7203
20.3822
16.5809
-16.8072
21.3295
-21.3585
-24.7912
24.7587
-16.2901
16.3267
-20.1974
20.076
-20.8927
20.6258
-8.39011
-8.59156
15.862
-15.7648
21.5051
-21.754
-19.6537
19.9814
10.0456
4.44529
11.0837
-6.2476
11.9546
-5.22523
12.9349
8.18268
-16.5728
8.06682
-15.1546
9.92262
11.5825
-9.7443
-3.16055
-17.9383
17.8551
-17.2988
17.3402
23.6449
-23.5921
-6.17196
11.8873
-5.25419
12.3823
-11.4099
-6.99473
10.0891
4.52924
8.71727
7.14476
-8.87386
-2.47578
-24.3888
24.1612
-25.362
24.8392
0.0825806
2.43538
-2.51796
1.33998
-0.841356
3.27674
2.02119
2.11893
2.45132
-2.28952
0.246569
-2.76453
-2.89726
-5.81266
5.9249
5.6433
-5.52235
16.1429
6.86834
16.1506
-16.3874
-6.53158
-16.1524
11.3709
7.71395
11.7513
12.0507
8.71846
12.1543
10.3626
-10.3292
-0.0334574
-11.4749
21.8375
1.55809
-18.4696
-13.9404
9.44467
7.05456
9.38441
-10.2897
-6.30395
-10.0183
-11.0401
-9.68014
-11.3491
12.1932
8.18899
12.0337
-14.9693
14.982
10.2066
6.37431
10.0646
-9.70611
-7.10112
-9.77607
26.6393
-6.33299
-20.3063
-12.6945
-12.0967
12.5027
8.82677
13.7186
11.0401
13.7396
8.52801
18.1113
-17.3548
5.25811
-10.0309
-6.25915
-9.87922
9.45549
6.87123
9.5879
-11.7263
-8.47113
-11.6784
-11.9171
-8.9756
11.9225
8.15344
-12.4233
-12.9387
12.5587
8.0671
7.40527
-16.9277
9.0628
-17.6544
-10.5031
-5.26172
-10.3067
10.5298
6.62979
-17.1595
-6.04304
24.3582
-12.7757
21.1977
-11.9106
-9.84342
-11.9119
-14.902
-4.75172
-14.4874
-8.16588
7.88536
-8.9599
8.62448
26.6135
-15.8237
-10.7898
-12.3751
-8.17685
11.7128
-0.629062
-12.838
12.8046
-0.883394
12.0515
16.4967
15.8677
-10.8972
-6.40164
-10.6827
10.3154
7.02482
10.3931
15.9481
7.69684
16.1183
-16.4439
-7.14818
-16.237
5.13978
-5.21985
6.04965
-6.05492
15.3822
9.45698
-15.1571
-9.23168
23.0508
-10.8005
-12.2503
-5.18874
5.44152
-0.252781
-1.912
-0.572016
0.236117
-1.97393
-1.90254
1.9239
0.195033
5.63655
3.73401
-2.41346
2.48157
2.77964
2.70521
-0.192051
2.65863
-2.65198
19.257
-11.501
-7.75599
13.6242
-13.5733
-2.61273
-18.7967
16.184
2.57723
3.32857
-3.2516
-4.28651
-1.52614
-4.242
3.25893
2.38437
3.42474
2.26407
3.66083
-8.66082
1.70761
6.95321
-6.39675
-3.81473
-13.28
-6.22935
19.5093
16.3705
7.79078
-16.4939
0.341529
5.70395
-5.74881
-1.54316
-11.7368
8.67284
-10.216
-15.1147
-6.35948
21.4742
-9.5894
-1.09333
9.37674
2.37458
-10.8636
-7.07472
10.7277
1.42653
-12.0538
23.9783
-11.9245
-18.4555
8.52286
13.3146
16.2368
-17.8635
9.30929
8.55418
-4.54884
7.99599
1.38842
7.83613
-20.0236
13.7197
11.6818
8.29959
-11.9902
1.97184
-18.0518
24.8726
-21.8613
-3.01131
12.858
12.0146
13.3322
13.2813
-7.89026
21.2225
-3.34777
-18.5135
21.3996
-13.1
15.3526
-28.4526
-28.6339
10.1204
-17.7455
21.5153
-3.7698
-4.99679
-9.97255
22.7423
-2.07138
-20.6709
9.96228
-13.9621
-11.9996
25.9617
-20.2951
19.1008
-6.55853
-12.5422
-12.3183
-9.0402
12.1408
2.84118
-25.1083
30.3664
-6.99701
8.63501
1.42957
8.62658
10.5677
-15.5577
4.99005
9.72743
-16.286
6.98306
-22.5408
-11.6178
23.2832
-11.6655
-16.8795
-15.1405
-1.73901
4.67969
25.6868
-15.7198
11.6484
4.07141
8.52223
1.87085
-8.60999
-1.26923
1.07517
16.2181
-17.2933
10.6631
10.7663
11.9852
4.23287
10.7432
7.11192
-10.7248
-0.953575
-14.7
5.72442
-6.54658
-14.4069
20.1313
-16.2009
1.79401
-10.2568
-14.047
24.3038
-16.516
11.4625
12.5159
18.4873
-19.5898
5.54282
-9.78154
-9.80825
10.6581
-17.2047
7.39631
12.735
15.4634
2.52473
12.246
11.0372
-18.8758
1.22148
18.182
-15.7062
3.71884
10.0208
-15.3672
0.226755
-10.0799
2.69378
-15.4695
-14.4658
16.1281
-20.8798
-12.3246
13.5646
2.55362
-13.864
-0.6234
-5.09422
-3.07166
-5.31899
-3.30022
-5.65969
-11.1905
-1.98954
-9.20094
5.89582
-6.7681
-4.58096
7.08384
1.54064
-5.16833
5.05699
-5.78885
5.58809
-0.214282
13.0189
15.6534
7.47655
-8.47003
15.9466
-15.3861
23.0829
-29.0618
13.6758
15.4452
-22.5934
-13.6166
2.86547
2.27431
2.77545
13.71
-14.8456
1.13555
-13.6423
17.7591
-4.11672
-20.1287
6.48636
-6.4187
5.54192
0.507727
5.50783
1.5527
7.01622
-8.56892
-4.50222
-4.56896
-8.96095
-13.6311
22.592
4.85788
-13.0149
8.15703
-12.2838
17.1417
0.213811
-13.2287
17.3897
-10.3735
17.8974
-12.07
5.82739
12.6773
22.1897
-9.51233
16.0039
-6.5469
6.85885
-16.3712
-6.7722
-11.3869
18.2582
-12.9169
14.7109
-0.964895
15.6758
-13.9782
3.17766
-1.99295
8.77334
8.97799
16.693
-12.4601
11.9285
-18.4754
-4.44271
-15.9506
-3.21564
0.915232
-13.8393
12.9241
12.2745
-11.3592
-3.43597
9.41732
-5.98135
6.01981
-3.02006
-2.99975
-1.96459
-3.25526
1.98721
0.67142
6.69123
0.52064
-3.5407
-2.13134
-2.02032
10.5033
8.75366
-4.20478
3.952
3.96866
-0.640094
1.05593
2.36881
4.99978
-3.94385
0.744658
4.25512
-2.50695
4.14755
1.5564
-4.17452
-0.0674753
-3.5733
12.2461
3.37991
-5.76428
1.82042
2.38443
-13.8854
19.3077
-11.1167
-8.19099
21.6921
2.99905
-14.1157
15.7977
-13.2205
7.89939
-14.1287
-6.21635
-19.4368
-12.5685
-10.6305
18.7876
-11.9615
19.7522
3.67283
-20.0938
23.7666
-12.8722
6.51275
-9.862
11.4184
-4.26949
-5.59252
11.2555
10.2187
-10.9803
-0.756519
0.27523
8.66834
-8.39311
-1.54766
-7.94441
-16.3948
17.8214
-8.27021
17.5795
7.67637
-7.61679
25.1963
6.58162
-14.1984
-11.8738
-12.9672
-5.64422
10.5926
-1.95787
-7.8182
-14.5001
7.88705
-0.0509228
-19.3032
22.4655
-3.16226
-12.2487
-1.47101
14.329
-18.2912
2.00528
-11.3082
11.1573
12.5457
12.4948
-20.538
-0.132872
-12.349
3.26212
-15.6112
15.2767
-6.84547
16.9659
-15.9177
11.3367
-14.377
13.9546
-1.65656
14.2726
-9.28259
6.03369
-15.0739
-12.2327
15.0047
-8.63043
16.4343
-10.3343
26.7686
-17.3313
15.1495
11.6191
-2.90385
-9.00809
-14.7097
11.8059
0.439789
9.06636
17.7892
-10.6773
16.8357
8.84013
-18.6217
-8.36453
-25.857
7.23533
-13.3411
-7.33092
14.5662
11.1564
13.0272
4.75799
-11.758
17.1984
-18.9374
-5.53294
-8.93282
15.1918
-3.38594
10.1211
-19.0539
-5.3484
13.0684
-0.396234
-12.6722
2.7553
-15.0799
5.23416
-20.314
15.6456
-16.269
1.84355
-8.26224
-3.32479
-3.43855
-2.22645
-3.56241
-7.82535
5.5989
-1.33899
3.718
-12.6652
12.269
-5.09388
10.6928
-4.20051
-1.11848
4.36893
1.21916
11.9119
2.90076
-16.5174
-9.26864
14.7925
-5.52383
1.23467
-10.9386
3.85392
7.94541
13.7467
-24.1294
1.53598
-14.9814
-4.26254
6.53685
5.15478
17.4292
2.58368
6.90682
-0.369968
9.4905
2.40548
2.32812
-11.1206
12.2561
1.80352
15.4793
-1.95577
7.78316
3.55206
3.55817
2.19064
5.91009
3.0679
9.08775
0.518829
-4.05013
2.17923
-4.19955
-1.36147
-4.25298
-0.426472
3.91248
-4.33895
10.8172
-2.06352
5.29335
-2.03053
-5.32799
7.35851
-9.78652
-5.96808
-1.71295
-5.92001
7.74043
6.32613
-6.02748
-3.75904
2.37363
-14.9421
11.7551
-12.5116
-2.29291
21.4737
-9.75047
1.35736
-3.23773
-6.58705
-8.1132
8.18067
24.1915
1.00482
12.267
18.8262
11.7515
1.07416
12.073
-15.8428
-10.4677
-15.9757
-0.699002
13.63
5.57426
20.1125
17.1934
13.8074
-5.24649
-24.1839
20.3956
-8.1395
16.2789
-3.6067
-16.7073
14.464
8.61891
-17.0176
0.748591
-15.9587
-24.0982
-0.436945
12.7059
-11.475
10.3565
7.28486
1.91608
-2.55512
-0.883426
2.67295
-0.344829
9.14567
-0.168556
-8.64204
8.81059
-3.74393
2.38245
-0.593094
4.54509
6.76542
4.70189
-3.94015
-8.2791
-8.80589
-5.07952
-16.9969
2.51243
-8.83856
5.99678
-3.61433
2.99703
5.19627
10.4896
-1.69165
-9.66757
7.67301
-4.67597
5.81365
)
;

boundaryField
{
    wall-4
    {
        type            calculated;
        value           uniform 0;
    }
    velocity-inlet-5
    {
        type            calculated;
        value           uniform -11.2529;
    }
    velocity-inlet-6
    {
        type            calculated;
        value           uniform -1.87548;
    }
    pressure-outlet-7
    {
        type            calculated;
        value           nonuniform List<scalar> 8(4.63506 4.99621 11.4415 11.8666 17.0411 15.4856 16.9371 15.1217);
    }
    wall-8
    {
        type            calculated;
        value           uniform 0;
    }
    frontAndBackPlanes
    {
        type            empty;
        value           nonuniform List<scalar> 0();
    }
}


// ************************************************************************* //
