/*--------------------------------*- C++ -*----------------------------------*\
  =========                 |
  \\      /  F ield         | OpenFOAM: The Open Source CFD Toolbox
   \\    /   O peration     | Website:  https://openfoam.org
    \\  /    A nd           | Version:  9
     \\/     M anipulation  |
\*---------------------------------------------------------------------------*/
FoamFile
{
    format      ascii;
    class       surfaceScalarField;
    location    "3.96";
    object      alphaPhi0.water;
}
// * * * * * * * * * * * * * * * * * * * * * * * * * * * * * * * * * * * * * //

dimensions      [0 3 -1 0 0 0 0];

internalField   nonuniform List<scalar> 
4432
(
-3.87665e-07
3.87665e-07
-7.86628e-07
3.98966e-07
-1.17721e-06
3.90577e-07
-1.53797e-06
3.60767e-07
-1.8721e-06
3.34121e-07
-2.17783e-06
3.05735e-07
-2.45011e-06
2.72277e-07
-2.6848e-06
2.34691e-07
-2.87868e-06
1.93873e-07
-3.02691e-06
1.48228e-07
-3.12043e-06
9.35231e-08
-3.14336e-06
2.29244e-08
-3.07413e-06
-6.92215e-08
-2.88874e-06
-1.85392e-07
-2.56252e-06
-3.26222e-07
-2.09832e-06
-4.64195e-07
-1.65917e-06
-4.39084e-07
-1.78766e-06
1.35086e-07
-2.55133e-06
7.5158e-07
-2.84222e-06
2.92749e-07
-2.22349e-06
-6.17748e-07
-1.05764e-06
-1.16949e-06
-1.06127e-06
-4.19983e-07
8.07641e-07
-8.20147e-07
7.99138e-07
-1.22051e-06
7.90928e-07
-1.60699e-06
7.47254e-07
-1.96933e-06
6.9645e-07
-2.30016e-06
6.36569e-07
-2.59313e-06
5.65242e-07
-2.8433e-06
4.84868e-07
-3.04634e-06
3.96906e-07
-3.19665e-06
2.98542e-07
-3.28651e-06
1.8338e-07
-3.30647e-06
4.28848e-08
-3.24546e-06
-1.30223e-07
-3.09325e-06
-3.376e-07
-2.84915e-06
-5.70321e-07
-2.53882e-06
-7.74517e-07
-2.25696e-06
-7.18486e-07
-2.17526e-06
8.6745e-08
-2.20214e-06
7.67862e-07
-2.17089e-06
2.32889e-07
-1.74915e-06
-1.04023e-06
-1.00723e-06
-1.91215e-06
-2.0715e-06
-4.31348e-07
1.23899e-06
-8.38432e-07
1.20623e-06
-1.24334e-06
1.19583e-06
-1.64036e-06
1.14428e-06
-2.01541e-06
1.07149e-06
-2.35847e-06
9.79633e-07
-2.6621e-06
8.68872e-07
-2.92077e-06
7.43543e-07
-3.12981e-06
6.05949e-07
-3.28394e-06
4.52679e-07
-3.37684e-06
2.7628e-07
-3.40161e-06
6.76609e-08
-3.35257e-06
-1.79264e-07
-3.22951e-06
-4.60662e-07
-3.0449e-06
-7.54922e-07
-2.82936e-06
-9.90054e-07
-2.58963e-06
-9.343e-07
-2.33373e-06
-1.40257e-07
-2.0195e-06
4.53531e-07
-1.74391e-06
-5.06963e-08
-1.37603e-06
-1.42695e-06
-7.9295e-07
-2.49523e-06
-2.86444e-06
-4.41195e-07
1.68018e-06
-8.63008e-07
1.62805e-06
-1.27852e-06
1.61134e-06
-1.68554e-06
1.5513e-06
-2.07055e-06
1.4565e-06
-2.42252e-06
1.33161e-06
-2.7333e-06
1.17966e-06
-2.99706e-06
1.00731e-06
-3.20924e-06
8.18133e-07
-3.36515e-06
6.08593e-07
-3.45988e-06
3.71009e-07
-3.48894e-06
9.67306e-08
-3.45056e-06
-2.17651e-07
-3.35041e-06
-5.60801e-07
-3.20662e-06
-8.98715e-07
-3.04646e-06
-1.15021e-06
-2.8503e-06
-1.11678e-06
-2.45755e-06
-4.9334e-07
-1.99367e-06
-1.04505e-08
-1.54162e-06
-5.0285e-07
-1.08858e-06
-1.90774e-06
-5.55078e-07
-3.02873e-06
-3.4195e-06
-4.50889e-07
2.13106e-06
-8.91564e-07
2.06873e-06
-1.32178e-06
2.04155e-06
-1.73998e-06
1.9695e-06
-2.13429e-06
1.85082e-06
-2.49367e-06
1.69099e-06
-2.80963e-06
1.49562e-06
-3.07636e-06
1.27404e-06
-3.28971e-06
1.0315e-06
-3.44582e-06
7.64704e-07
-3.54114e-06
4.66336e-07
-3.57319e-06
1.28788e-07
-3.54268e-06
-2.48166e-07
-3.45796e-06
-6.45518e-07
-3.33749e-06
-1.01918e-06
-3.20027e-06
-1.28743e-06
-3.02095e-06
-1.2961e-06
-2.60037e-06
-8.83085e-07
-2.0357e-06
-5.65158e-07
-1.47865e-06
-1.08742e-06
-9.7102e-07
-2.43928e-06
-4.26564e-07
-3.57319e-06
-3.84607e-06
-4.63321e-07
2.59438e-06
-9.24528e-07
2.52994e-06
-1.37087e-06
2.48789e-06
-1.80079e-06
2.39942e-06
-2.20383e-06
2.25385e-06
-2.56929e-06
2.05645e-06
-2.88864e-06
1.81498e-06
-3.15631e-06
1.54172e-06
-3.36888e-06
1.24407e-06
-3.52337e-06
9.19202e-07
-3.61758e-06
5.60543e-07
-3.65056e-06
1.61768e-07
-3.62432e-06
-2.744e-07
-3.54771e-06
-7.22132e-07
-3.43651e-06
-1.13038e-06
-3.30125e-06
-1.42269e-06
-3.10703e-06
-1.49033e-06
-2.72725e-06
-1.2625e-06
-2.1526e-06
-1.14523e-06
-1.55166e-06
-1.70598e-06
-1.04593e-06
-2.945e-06
-4.72056e-07
-4.14706e-06
-4.31814e-06
-4.81469e-07
3.07584e-06
-9.62293e-07
3.01077e-06
-1.42383e-06
2.94942e-06
-1.86475e-06
2.84035e-06
-2.27534e-06
2.66445e-06
-2.64522e-06
2.42633e-06
-2.96593e-06
2.13568e-06
-3.23234e-06
1.80813e-06
-3.44192e-06
1.45365e-06
-3.59267e-06
1.06995e-06
-3.6836e-06
6.51462e-07
-3.71498e-06
1.9315e-07
-3.68939e-06
-2.99986e-07
-3.61499e-06
-7.96541e-07
-3.50401e-06
-1.24135e-06
-3.36068e-06
-1.56602e-06
-3.15029e-06
-1.70072e-06
-2.782e-06
-1.63079e-06
-2.25533e-06
-1.6719e-06
-1.71301e-06
-2.2483e-06
-1.27063e-06
-3.38738e-06
-7.56421e-07
-4.66125e-06
-5.07473e-06
-5.06826e-07
3.58266e-06
-1.00379e-06
3.50774e-06
-1.47762e-06
3.42325e-06
-1.92774e-06
3.29047e-06
-2.34402e-06
3.08071e-06
-2.71621e-06
2.79852e-06
-3.03594e-06
2.4554e-06
-3.29868e-06
2.07087e-06
-3.5029e-06
1.65787e-06
-3.64756e-06
1.2146e-06
-3.73276e-06
7.36655e-07
-3.75988e-06
2.20269e-07
-3.73179e-06
-3.28077e-07
-3.65557e-06
-8.72754e-07
-3.54021e-06
-1.35671e-06
-3.38628e-06
-1.71995e-06
-3.16491e-06
-1.92209e-06
-2.81515e-06
-1.98055e-06
-2.35027e-06
-2.13677e-06
-1.89775e-06
-2.70081e-06
-1.58174e-06
-3.70338e-06
-1.32711e-06
-4.91586e-06
-6.40182e-06
-1.76933e-07
1.7692e-07
9.28837e-07
-1.10695e-06
1.92529e-06
-9.99732e-07
2.55617e-06
-6.34123e-07
2.88384e-06
-3.27507e-07
2.94988e-06
-6.58894e-08
2.80243e-06
1.47613e-07
2.65403e-06
1.65916e-07
2.77751e-06
-1.16164e-07
3.22993e-06
-4.71354e-07
3.2269e-06
-5.02578e-09
1.85581e-06
1.31385e-06
1.2081e-07
1.71314e-06
2.01104e-07
-8.01621e-08
2.41248e-06
-2.1906e-06
5.10746e-06
-2.75234e-06
6.17378e-06
-1.19637e-06
3.30406e-06
2.86915e-06
3.30349e-06
4.50244e-07
-2.73338e-07
1.21095e-06
-1.87253e-06
1.85014e-06
-1.64542e-06
2.29908e-06
-1.0865e-06
2.54173e-06
-5.70679e-07
2.61642e-06
-1.41941e-07
2.57638e-06
1.87157e-07
2.47256e-06
2.71113e-07
2.43558e-06
-7.87331e-08
2.54624e-06
-5.94383e-07
2.34092e-06
1.71182e-07
1.58708e-06
1.98427e-06
1.05977e-06
2.24077e-06
1.46776e-06
-4.87928e-07
2.68266e-06
-3.38567e-06
4.05145e-06
-4.12121e-06
4.88308e-06
-2.02808e-06
3.16336e-06
4.53477e-06
6.46629e-06
8.26547e-07
-1.10278e-06
1.33192e-06
-2.37742e-06
1.75124e-06
-2.06477e-06
2.08319e-06
-1.41848e-06
2.28169e-06
-7.69437e-07
2.36005e-06
-2.20261e-07
2.34609e-06
2.00367e-07
2.24755e-06
3.65369e-07
2.13892e-06
2.24759e-08
2.04237e-06
-5.08839e-07
1.78728e-06
3.80793e-07
1.55079e-06
2.22108e-06
1.57471e-06
2.21716e-06
2.08935e-06
-9.44591e-07
2.58306e-06
-3.87945e-06
3.23903e-06
-4.77743e-06
3.4709e-06
-2.34298e-06
2.33607e-06
5.69176e-06
8.80165e-06
9.17184e-07
-2.02003e-06
1.32245e-06
-2.78254e-06
1.6253e-06
-2.36752e-06
1.88755e-06
-1.68076e-06
2.06658e-06
-9.48679e-07
2.15438e-06
-3.08088e-07
2.15356e-06
2.01158e-07
2.05845e-06
4.49487e-07
1.91303e-06
1.64496e-07
1.68872e-06
-2.95102e-07
1.5415e-06
5.11616e-07
1.60836e-06
2.15453e-06
1.92898e-06
1.89682e-06
2.25952e-06
-1.21196e-06
2.35079e-06
-3.971e-06
2.54767e-06
-4.97497e-06
2.62703e-06
-2.48147e-06
1.56962e-06
6.6892e-06
1.07087e-05
8.52888e-07
-2.87328e-06
1.21397e-06
-3.14399e-06
1.46256e-06
-2.61583e-06
1.69227e-06
-1.9105e-06
1.86945e-06
-1.12589e-06
1.9765e-06
-4.15163e-07
1.99165e-06
1.85982e-07
1.92558e-06
5.09864e-07
1.77684e-06
3.10507e-07
1.5232e-06
-3.9881e-08
1.41577e-06
5.99667e-07
1.68376e-06
1.91285e-06
2.14399e-06
1.51053e-06
2.23646e-06
-1.27036e-06
2.03838e-06
-3.77362e-06
1.90281e-06
-4.84001e-06
1.90869e-06
-2.48801e-06
9.53414e-07
7.33171e-06
1.15373e-05
7.04762e-07
-3.57902e-06
1.03729e-06
-3.47654e-06
1.26258e-06
-2.84126e-06
1.48422e-06
-2.13227e-06
1.67496e-06
-1.31662e-06
1.81473e-06
-5.54852e-07
1.86534e-06
1.35379e-07
1.83792e-06
5.37011e-07
1.71775e-06
4.31806e-07
1.49452e-06
1.84069e-07
1.45222e-06
6.40837e-07
1.80624e-06
1.5763e-06
2.20794e-06
1.12592e-06
2.09534e-06
-1.15784e-06
1.66723e-06
-3.3457e-06
1.26743e-06
-4.44027e-06
1.09087e-06
-2.31196e-06
5.28659e-07
7.83995e-06
1.19347e-05
5.23123e-07
-4.1021e-06
8.13497e-07
-3.76707e-06
1.02629e-06
-3.05404e-06
1.25377e-06
-2.35975e-06
1.47038e-06
-1.53377e-06
1.65756e-06
-7.4247e-07
1.76418e-06
2.93524e-08
1.78623e-06
5.14896e-07
1.71579e-06
5.02171e-07
1.55795e-06
3.39913e-07
1.55946e-06
6.35941e-07
1.87542e-06
1.25811e-06
2.14104e-06
8.59681e-07
1.89537e-06
-9.12264e-07
1.27131e-06
-2.72198e-06
6.05258e-07
-3.77467e-06
2.59829e-07
-1.96376e-06
2.00838e-07
7.89231e-06
1.19929e-05
3.64284e-07
-4.46635e-06
5.56244e-07
-3.959e-06
7.52633e-07
-3.25042e-06
9.94254e-07
-2.60136e-06
1.24284e-06
-1.78237e-06
1.49161e-06
-9.9067e-07
1.67093e-06
-1.49482e-07
1.76452e-06
4.2136e-07
1.7583e-06
5.05651e-07
1.6666e-06
4.13338e-07
1.70549e-06
5.87203e-07
1.94337e-06
1.02684e-06
2.06054e-06
7.41729e-07
1.68324e-06
-5.3542e-07
8.84077e-07
-1.92293e-06
-5.604e-08
-2.83525e-06
-5.94222e-07
-1.39818e-06
-1.30691e-07
7.42201e-06
1.13965e-05
-1.11828e-06
4.70094e-06
-2.24481e-06
4.63427e-06
-3.30536e-06
4.48379e-06
-4.28937e-06
4.27448e-06
-5.18524e-06
3.97658e-06
-5.97679e-06
3.59006e-06
-6.64547e-06
3.12409e-06
-7.1839e-06
2.6093e-06
-7.59271e-06
2.06668e-06
-7.87226e-06
1.49415e-06
-8.02574e-06
8.90132e-07
-8.06072e-06
2.55251e-07
-7.98493e-06
-4.03871e-07
-7.80951e-06
-1.04813e-06
-7.54462e-06
-1.62154e-06
-7.1876e-06
-2.07692e-06
-6.69957e-06
-2.41009e-06
-6.02545e-06
-2.65465e-06
-5.22837e-06
-2.93384e-06
-4.54981e-06
-3.37933e-06
-4.28677e-06
-3.96637e-06
-4.66099e-06
-4.54157e-06
-4.86027e-06
-6.20174e-06
-1.16954e-06
4.58418e-06
-2.35711e-06
4.53368e-06
-3.4147e-06
4.27675e-06
-4.36877e-06
3.99523e-06
-5.24114e-06
3.69638e-06
-5.99324e-06
3.30627e-06
-6.61199e-06
2.83627e-06
-7.09864e-06
2.3421e-06
-7.45677e-06
1.83525e-06
-7.65817e-06
1.28794e-06
-7.71944e-06
7.26906e-07
-7.68014e-06
1.70434e-07
-7.56584e-06
-4.05037e-07
-7.39162e-06
-9.41424e-07
-7.12477e-06
-1.43139e-06
-6.75064e-06
-1.85599e-06
-6.25541e-06
-2.21108e-06
-5.63331e-06
-2.4947e-06
-4.95596e-06
-2.73559e-06
-4.38344e-06
-2.96407e-06
-4.09023e-06
-3.15271e-06
-4.09316e-06
-3.33873e-06
-3.48233e-06
-4.23532e-06
-4.82917e-07
2.35503e-08
-9.00071e-07
5.42764e-10
-1.33534e-06
0
-1.71142e-06
0
-1.98937e-06
0
-2.20012e-06
1.88144e-09
-2.37505e-06
7.76359e-09
-2.48913e-06
1.00033e-08
-2.53723e-06
0
-2.53492e-06
0
-2.4938e-06
0
-2.42991e-06
0
-2.33562e-06
-7.91202e-09
-2.23745e-06
-1.79313e-08
-2.14894e-06
-2.85227e-08
-2.05181e-06
-1.05615e-08
-1.904e-06
-1.30831e-08
-1.69622e-06
-1.33295e-08
-1.46006e-06
-1.37802e-08
-1.24981e-06
-3.60721e-08
-1.13819e-06
-3.49325e-08
-1.17016e-06
-2.00437e-08
-1.60202e-09
-1.28699e-06
-8.80147e-09
0
-4.24099e-09
0
-8.413e-09
2.71748e-09
-2.02239e-08
0
-2.39111e-08
0
-2.41315e-08
2.78981e-11
-2.62783e-08
7.90451e-09
-2.86941e-08
2.89016e-09
-2.2669e-08
0
-1.8659e-08
0
-1.58011e-08
0
-2.22115e-09
-2.31566e-09
-2.19457e-09
-7.38413e-09
-2.08044e-09
-1.75433e-08
-1.80217e-09
-2.83784e-08
-1.88424e-09
-1.01259e-08
-1.78441e-09
-1.29166e-08
-1.5464e-09
-1.33927e-08
-1.29477e-09
-1.39948e-08
-1.003e-09
-3.65711e-08
-7.65503e-10
-3.55476e-08
-8.2047e-10
-2.03888e-08
-1.17613e-09
-1.63782e-09
-2.34326e-09
1.03405e-10
4.85088e-10
1.12902e-09
-1.21571e-09
2.25404e-09
-8.7437e-09
5.47015e-09
-1.30525e-08
6.41997e-09
-1.715e-08
2.07668e-09
-1.17351e-08
4.95011e-10
-1.69064e-08
6.07232e-09
-3.71667e-08
8.11551e-10
-3.31813e-08
-5.1217e-10
-2.63876e-08
-3.31042e-09
-1.91529e-08
-6.07506e-09
-1.1942e-08
-1.11116e-08
-6.79666e-09
-1.92135e-08
6.50146e-11
-3.12665e-08
9.76053e-10
-1.3616e-08
4.68394e-09
-1.75477e-08
1.25204e-08
-2.00521e-08
2.75662e-08
-2.19596e-08
3.50305e-08
-2.08725e-08
2.95405e-08
-6.92947e-09
2.77207e-09
-2.85228e-09
1.78876e-09
-8.93165e-10
-1.04694e-09
3.67823e-09
-4.2315e-10
4.31316e-09
3.98388e-10
5.38061e-09
-2.08099e-10
4.11742e-09
-2.41573e-09
1.36932e-09
-4.04685e-09
2.33222e-09
-4.08786e-09
4.85535e-09
-1.05075e-09
3.67678e-09
-9.476e-10
5.59158e-11
-2.61512e-09
1.13668e-10
-3.60829e-09
-7.45078e-10
-3.22208e-09
-8.95979e-11
-2.43233e-09
-1.36388e-13
-2.58583e-09
-4.20827e-12
-7.85951e-09
-2.41791e-10
-1.33635e-09
-1.24333e-09
4.23128e-09
-4.22035e-09
9.01289e-09
-5.94625e-09
1.72974e-08
-1.14279e-08
2.432e-09
-5.81024e-09
1.62876e-09
-1.26047e-09
-8.51795e-11
5.89365e-10
1.33795e-09
2.58798e-10
1.96536e-10
3.15337e-09
-1.6301e-09
3.09221e-09
5.54412e-10
4.41573e-09
4.40847e-09
3.47187e-09
6.64179e-09
6.25043e-10
6.27914e-09
0
5.66528e-09
0
6.39751e-09
0
2.67445e-09
0
2.68424e-10
0
8.96532e-11
0
6.28426e-14
-6.9841e-15
-1.43153e-15
-6.29418e-14
-1.70194e-13
-4.02664e-12
-2.38961e-10
-2.96623e-12
-8.85921e-11
-4.30559e-12
-1.57402e-10
-1.87403e-10
-2.8343e-10
-1.84796e-09
-1.38101e-09
-6.34699e-09
-6.4775e-10
-5.76544e-09
-5.95312e-10
-1.4128e-09
-1.2737e-10
1.6525e-11
-2.86948e-10
1.3906e-09
2.21015e-10
1.31633e-12
-4.8759e-11
0
4.82461e-11
2.24497e-12
2.29185e-09
6.52084e-12
2.64886e-09
0
2.72694e-09
0
1.96911e-09
0
2.73214e-10
0
1.30876e-12
0
2.35504e-13
0
9.39714e-14
1.53369e-13
6.57334e-14
1.6941e-14
7.01151e-13
1.1398e-13
1.19671e-12
-4.91743e-12
-7.44897e-14
-3.80842e-12
-1.31585e-12
-1.59642e-12
-1.62373e-10
-2.48734e-11
-8.09934e-10
-3.73739e-10
-2.14542e-09
-2.85177e-09
-1.63138e-09
-4.11915e-09
-3.67561e-10
-2.77869e-09
5.72664e-10
-1.23982e-09
-4.3886e-09
3.14497e-09
1.29166e-12
0
1.73691e-12
0
3.6555e-12
0
9.48917e-12
0
6.59744e-12
0
3.85904e-12
0
2.4825e-12
3.27498e-15
1.41686e-12
0
1.17888e-13
2.1853e-13
6.7154e-14
4.49314e-14
5.38439e-14
1.62366e-13
4.40869e-14
2.24638e-14
1.33587e-11
3.42123e-12
1.34514e-11
1.30975e-12
0
-1.05471e-12
0
-9.42913e-14
0
-5.346e-15
0
-5.13109e-15
-8.94794e-10
-1.43543e-13
-1.5666e-09
-2.12336e-10
-4.96981e-10
-9.46453e-10
3.00181e-10
-1.53915e-09
-6.08694e-13
4.77051e-10
1.4432e-13
4.38793e-14
1.00031e-12
4.1018e-13
7.0603e-13
4.02949e-14
6.35371e-14
8.16447e-14
1.67117e-14
2.61927e-17
1.1481e-14
3.28466e-15
1.00844e-14
4.03681e-15
1.62336e-14
1.18964e-14
1.25781e-14
2.40174e-13
4.28377e-13
6.21581e-13
8.69934e-12
6.2729e-12
8.76505e-12
5.43801e-12
3.98949e-12
0
3.19895e-12
0
1.586e-13
-1.25034e-15
5.1544e-15
-3.06669e-15
5.33008e-17
-2.35248e-16
1.64047e-17
-5.03845e-15
-1.25708e-13
-1.7728e-14
-2.11647e-10
-8.1673e-13
-1.63627e-10
-4.01673e-11
-1.95547e-14
-3.82788e-11
-6.12466e-13
-2.09831e-14
3.92884e-14
9.92829e-15
7.24375e-13
5.02148e-13
4.744e-13
4.97108e-13
0
6.59119e-14
1.87356e-15
5.43322e-15
2.42856e-15
2.09488e-15
3.68449e-15
2.03424e-15
1.2658e-14
2.28811e-15
1.16607e-11
6.62586e-12
1.11814e-11
7.01255e-12
1.09594e-11
9.36896e-12
1.79828e-12
2.48894e-12
0
1.28153e-15
2.57468e-14
0
1.76048e-14
0
2.82274e-16
-6.99667e-17
1.38805e-16
-9.20132e-17
2.0125e-15
-1.66208e-16
1.93551e-15
-1.41206e-13
-9.81402e-15
-9.86101e-13
-7.50141e-14
-4.0298e-11
-1.56654e-13
-3.84032e-11
-3.11281e-12
-8.42237e-14
6.06733e-15
9.2401e-15
5.12771e-14
5.78851e-14
5.0153e-14
2.15419e-14
6.79802e-15
1.04787e-15
1.97512e-15
8.46729e-15
2.81311e-15
4.02934e-15
2.08625e-15
2.01342e-15
3.48492e-12
5.91502e-13
7.97992e-12
3.82042e-12
4.08005e-12
1.93268e-12
1.23531e-12
1.07737e-13
0
0
9.05243e-15
1.16861e-14
2.04749e-14
1.85248e-14
1.68349e-16
1.68174e-16
1.19928e-16
-2.17744e-17
1.05293e-16
-7.7649e-17
8.02241e-17
-1.41416e-16
1.2092e-12
-3.94415e-12
-1.01218e-12
-2.64212e-11
-6.32651e-12
-3.8714e-11
-1.37794e-11
-3.75416e-11
-2.92122e-11
-7.8662e-12
9.14881e-16
2.70014e-14
2.41435e-16
5.70263e-14
2.88108e-16
2.08801e-14
3.77952e-16
5.41648e-16
3.1172e-15
2.74269e-15
1.96569e-14
2.05172e-14
8.49756e-14
4.4852e-14
2.5237e-13
1.09087e-13
4.231e-13
0
3.70255e-14
0
2.04699e-15
0
2.69488e-15
0
1.55333e-14
2.58495e-15
4.84889e-15
9.88693e-16
9.76929e-17
5.73133e-17
8.81439e-17
-3.30604e-17
1.48097e-16
-1.59797e-16
1.2538e-16
-1.18972e-16
1.65107e-12
-5.4181e-13
-3.93246e-12
-2.06922e-11
-1.07151e-11
-3.18043e-11
-1.62594e-11
-3.18701e-11
-2.49759e-11
-2.03687e-11
-1.51614e-14
1.82387e-13
-8.58839e-15
7.38245e-13
-3.40106e-16
2.32299e-13
-2.04747e-17
2.21138e-16
-7.31313e-17
2.72878e-15
-2.31174e-16
9.32165e-15
7.17953e-17
1.12302e-14
4.76944e-16
0
6.96313e-16
0
1.24161e-16
0
4.73044e-17
1.09185e-16
5.9796e-17
3.8462e-17
1.7513e-16
0
8.59294e-17
7.6924e-18
8.36314e-17
2.56984e-17
1.16913e-16
-1.39047e-17
1.30738e-16
-5.62281e-17
1.18674e-16
-1.07184e-16
0
-7.5706e-16
-3.55397e-12
-4.94519e-13
-1.00755e-11
-1.50922e-11
-2.31223e-11
-1.86962e-11
-4.19767e-15
-1.07836e-11
-1.39145e-13
4.33699e-13
-1.38729e-13
9.73754e-13
-7.76451e-16
3.79756e-13
-7.86351e-16
2.26656e-16
-1.57336e-15
2.49287e-15
-2.0909e-15
2.98944e-15
-1.87184e-15
2.10616e-15
-1.15993e-15
1.66867e-15
-3.19172e-16
8.36265e-16
-3.90251e-17
2.47207e-16
-6.8678e-18
5.93809e-17
-1.334e-18
6.78726e-18
-6.96778e-20
7.7761e-19
1.31691e-18
1.50694e-18
6.24679e-18
7.21981e-18
5.87745e-18
-2.60589e-18
-2.56838e-18
-4.06169e-17
-1.96012e-17
-1.18716e-16
-4.64333e-16
-3.4089e-16
-4.94607e-13
-3.98704e-16
-2.43521e-12
-6.15568e-16
-3.05154e-16
-5.7178e-16
-3.73083e-16
-4.06036e-15
-2.43523e-13
7.05646e-13
-1.44079e-13
1.11066e-12
-9.4999e-16
5.26938e-13
-9.67062e-16
2.39004e-16
-1.21056e-15
1.15879e-15
-1.14724e-15
1.14603e-15
-7.87049e-16
6.02993e-16
-3.6135e-16
2.5489e-16
-9.87452e-17
7.16262e-17
-1.47482e-17
1.61623e-17
-9.89565e-19
1.42113e-17
-1.36364e-19
1.00883e-18
-1.17595e-19
2.19448e-19
-3.50982e-19
2.41529e-19
-2.53178e-18
8.70662e-19
-1.34782e-17
-2.14314e-19
-4.4399e-17
-1.28033e-17
-1.1132e-16
-8.91294e-17
-9.30475e-17
-1.93312e-16
-1.24558e-16
-2.81006e-16
-1.60155e-16
-4.98527e-16
-1.95987e-16
-4.59229e-16
-1.54727e-16
-3.43281e-16
-2.85634e-13
1.02105e-12
-2.50499e-13
1.31198e-12
-4.59972e-16
7.33455e-13
-4.80896e-16
2.5571e-16
-5.04197e-16
3.679e-16
-3.51018e-16
3.56805e-16
-1.04446e-16
1.01201e-16
-2.27459e-17
9.15174e-18
-2.24794e-18
5.01972e-18
3.85211e-19
1.25673e-18
2.90375e-18
-4.17409e-19
2.86658e-18
-2.83505e-18
2.13804e-18
-2.34685e-18
8.94039e-19
-1.26136e-18
-5.34181e-19
-2.4815e-19
-2.93606e-18
1.40674e-19
-3.7944e-17
-7.10814e-19
-1.41188e-16
-9.25151e-18
-2.28814e-16
-5.95717e-17
-2.60107e-16
-8.42386e-17
-2.96795e-16
-1.75616e-16
-2.66019e-16
-1.74527e-16
-1.10331e-16
-1.13892e-16
-3.25974e-13
9.04595e-13
-3.18361e-13
1.54082e-12
-2.53737e-16
7.62497e-13
-2.793e-16
2.772e-16
-1.79121e-16
2.62027e-16
-8.5365e-17
2.43788e-16
-5.65803e-18
2.64819e-17
-1.24286e-18
2.94235e-18
3.74361e-18
3.26915e-20
5.33653e-18
-3.43514e-18
6.06629e-18
-4.3786e-18
5.71206e-18
-4.27702e-18
4.75541e-18
-3.20264e-18
3.44872e-18
-1.80375e-18
1.8453e-18
-5.48833e-19
-2.57282e-20
2.71585e-19
-1.35229e-18
7.20691e-19
-2.17252e-17
6.0191e-19
-7.99853e-17
-6.64658e-19
-1.31752e-16
-4.69394e-18
-1.63263e-16
-1.35894e-17
-1.60993e-16
-2.08269e-17
-2.069e-17
-7.9404e-17
-3.32563e-13
5.88043e-13
-3.17347e-13
1.76206e-12
-2.94184e-16
5.97728e-13
-3.22615e-16
3.01416e-16
-2.03892e-16
3.12418e-16
-3.64953e-17
2.94329e-16
-2.71214e-19
2.19748e-17
2.67011e-18
9.26085e-22
5.23319e-18
-2.42275e-18
6.41707e-18
-4.18527e-18
6.7454e-18
-4.43038e-18
6.39197e-18
-3.84989e-18
5.60658e-18
-2.7743e-18
4.62934e-18
-1.54917e-18
3.59726e-18
-4.55403e-19
2.50627e-18
2.81873e-19
1.26671e-18
6.83347e-19
-4.40762e-21
8.40519e-19
-1.45577e-18
7.86706e-19
-6.76337e-18
5.60559e-19
-1.55478e-17
2.31823e-19
-1.94722e-17
3.32196e-21
-3.70983e-19
-1.71008e-17
-3.19639e-13
2.69453e-13
-1.80035e-13
1.85879e-12
-6.67632e-16
9.84361e-14
-6.97783e-16
3.27505e-16
-4.83428e-16
1.20191e-15
-5.50295e-17
6.57701e-16
-4.00963e-18
4.13713e-17
1.39775e-18
2.67455e-18
3.48464e-18
-1.22113e-18
4.53516e-18
-2.60821e-18
5.00596e-18
-2.84108e-18
4.99232e-18
-2.50344e-18
4.60872e-18
-1.81852e-18
4.00246e-18
-9.98324e-19
3.30834e-18
-2.34402e-19
2.64337e-18
2.33295e-19
2.04269e-18
4.8494e-19
1.49144e-18
5.94871e-19
9.40761e-19
5.91504e-19
3.76704e-19
5.14547e-19
5.59392e-21
3.98743e-19
-1.89097e-19
2.70644e-19
1.54926e-19
-3.60825e-19
-1.03932e-13
0
-4.1057e-14
6.91612e-16
-2.90402e-15
7.35918e-16
-1.15599e-15
1.62634e-15
-8.49639e-16
2.08517e-15
-9.10955e-17
9.27835e-16
-1.70215e-17
8.00632e-17
-6.01145e-18
1.87856e-17
3.44241e-19
6.63293e-18
1.38853e-18
-2.55816e-19
2.1687e-18
-8.40075e-19
2.65647e-18
-1.01388e-18
2.78081e-18
-8.66177e-19
2.60284e-18
-4.97447e-19
2.26406e-18
-7.13968e-20
1.88167e-18
1.59404e-19
1.51182e-18
3.0026e-19
1.18641e-18
3.63199e-19
9.10359e-19
3.60768e-19
6.73583e-19
3.18189e-19
4.6368e-19
2.57601e-19
2.82055e-19
1.92525e-19
1.29349e-19
1.31525e-19
-3.71378e-16
3.86716e-16
-1.87073e-16
4.30229e-16
-8.90982e-16
9.08315e-16
-1.06738e-15
2.6206e-15
-5.82983e-16
2.31174e-15
-1.25445e-16
9.93468e-16
-4.73664e-17
1.35395e-16
-2.96752e-17
6.11514e-17
-1.49942e-17
3.43966e-17
-5.31819e-18
1.41506e-17
4.08857e-21
4.04291e-18
7.20867e-19
-1.89753e-21
1.12712e-18
-2.23323e-19
1.27388e-18
-1.73981e-19
1.2263e-18
4.69959e-22
1.07406e-18
8.84842e-20
8.85454e-19
1.62966e-19
7.03434e-19
1.98006e-19
5.47039e-19
1.96478e-19
4.18653e-19
1.72292e-19
3.11861e-19
1.39318e-19
2.1753e-19
1.06526e-19
7.63024e-20
1.32516e-19
-4.47117e-17
9.56974e-16
-1.1369e-16
4.85039e-16
-7.2566e-16
9.882e-16
-8.59072e-16
2.36514e-15
-5.62898e-16
1.97913e-15
-1.35436e-16
5.86023e-16
-8.20689e-17
1.86444e-16
-6.25386e-17
1.17438e-16
-4.26769e-17
7.5274e-17
-2.19823e-17
4.04458e-17
-7.74268e-18
1.55394e-17
-1.35192e-18
3.88893e-18
2.16942e-19
4.73411e-19
4.48158e-19
-3.02459e-20
5.21229e-19
3.66725e-21
4.99349e-19
3.97432e-20
4.27866e-19
7.81773e-20
3.43735e-19
9.74812e-20
2.65873e-19
9.70739e-20
2.01578e-19
8.43786e-20
1.51318e-19
6.72162e-20
1.1018e-19
5.08235e-20
3.71481e-20
7.18548e-20
-3.57377e-17
1.91517e-15
-7.37139e-17
5.0948e-16
-2.76608e-16
5.65073e-16
-3.84429e-16
7.54399e-16
-2.24187e-16
7.58166e-16
-1.16625e-16
3.14911e-16
-9.75498e-17
2.15528e-16
-8.15843e-17
1.63221e-16
-6.31556e-17
1.09362e-16
-3.89e-17
6.53703e-17
-1.72413e-17
2.91305e-17
-4.74485e-18
8.68082e-18
-5.66057e-19
1.37795e-18
9.98758e-20
6.28822e-20
1.72102e-19
6.67565e-22
1.90845e-19
1.47748e-20
1.7239e-19
3.42028e-20
1.40316e-19
4.42884e-20
1.07538e-19
4.42423e-20
7.96914e-20
3.7913e-20
5.83173e-20
2.94403e-20
4.24654e-20
2.15809e-20
1.55915e-20
2.89735e-20
-2.76661e-17
1.46054e-14
-4.75878e-17
5.15888e-16
-6.26903e-17
5.66634e-16
-8.38637e-17
7.06678e-16
-8.63955e-17
4.29695e-16
-8.63871e-17
2.65674e-16
-8.70654e-17
2.24748e-16
-7.94844e-17
1.90671e-16
-6.50572e-17
1.33292e-16
-4.46942e-17
8.26535e-17
-2.26036e-17
4.00779e-17
-6.99107e-18
1.2845e-17
-9.89356e-19
2.03638e-18
7.65627e-21
7.69678e-20
4.41558e-20
-4.88087e-22
6.09145e-20
5.27591e-21
5.82456e-20
1.4233e-20
4.78372e-20
1.89372e-20
3.60599e-20
1.88517e-20
2.58154e-20
1.58299e-20
1.80389e-20
1.18887e-20
1.27089e-20
8.31451e-21
5.71305e-21
8.88491e-21
-2.25712e-15
4.6431e-14
-8.92632e-15
6.39821e-13
-4.07621e-17
3.37186e-12
-4.72597e-17
7.10475e-16
-5.21715e-17
4.32837e-16
-5.57089e-17
2.67623e-16
-6.16962e-17
2.26766e-16
-6.00649e-17
1.97029e-16
-5.10526e-17
1.47928e-16
-3.69805e-17
9.26607e-17
-1.97067e-17
4.57234e-17
-5.91311e-18
1.40605e-17
-6.87841e-19
2.06497e-18
-1.49942e-20
6.43659e-20
9.6334e-21
-4.35579e-22
1.60469e-20
2.09203e-21
1.59425e-20
5.71921e-21
1.30607e-20
7.65379e-21
9.58789e-21
7.53965e-21
6.55376e-21
6.17826e-21
4.28215e-21
4.46957e-21
2.78856e-21
2.9651e-21
1.88047e-21
1.9448e-21
0
5.50285e-14
-1.22749e-13
2.76003e-12
-3.02823e-13
7.03222e-12
-1.02472e-13
5.94873e-12
-2.69297e-17
4.27148e-13
-3.01457e-17
2.69434e-16
-2.94742e-17
2.24766e-16
-2.8465e-17
1.99038e-16
-2.6228e-17
1.51006e-16
-1.91051e-17
9.45403e-17
-9.74977e-18
4.61658e-17
-2.4939e-18
1.38379e-17
-1.99113e-19
1.52898e-18
-3.03121e-21
2.33279e-20
1.67698e-21
-9.74198e-23
2.87396e-21
9.07457e-22
2.86812e-21
2.26402e-21
2.30102e-21
2.94859e-21
1.6164e-21
2.82923e-21
1.03117e-21
2.24578e-21
6.08621e-22
1.56052e-21
3.39332e-22
9.82809e-22
5.76322e-22
2.14661e-22
1.26218e-14
4.12068e-14
2.83755e-14
2.36866e-12
6.4076e-14
7.00853e-12
4.64708e-14
5.97973e-12
0
1.62763e-12
4.67408e-18
4.11243e-16
3.02606e-18
2.25085e-16
3.0358e-18
1.99212e-16
2.63473e-18
1.49345e-16
1.92531e-18
9.33018e-17
1.05779e-18
4.25165e-17
2.86011e-19
1.02522e-17
2.13416e-20
7.45554e-19
2.32906e-22
5.6009e-21
1.69679e-23
-1.0632e-23
-1.18114e-22
3.73594e-22
-2.08574e-22
8.58112e-22
-2.30153e-22
1.07136e-21
-2.0906e-22
9.93599e-22
-1.71408e-22
7.62507e-22
-1.32346e-22
5.10721e-22
-9.81587e-23
3.08641e-22
1.72463e-22
-7.06328e-23
1.75208e-15
3.98404e-14
9.89289e-14
8.90062e-13
4.31137e-13
6.68971e-12
4.70997e-13
5.95326e-12
0
1.34937e-12
3.37144e-17
1.07963e-15
3.23616e-17
2.25109e-16
3.42937e-17
1.91477e-16
2.9247e-17
1.38177e-16
1.99029e-17
8.08561e-17
8.84993e-18
3.20006e-17
1.57585e-18
5.8e-18
5.93657e-20
2.58779e-19
2.61452e-22
9.76488e-22
1.62128e-23
-3.81545e-24
-3.60251e-22
1.56447e-22
-5.40755e-22
3.16485e-22
-5.22157e-22
3.71145e-22
-4.10723e-22
3.28973e-22
-2.84809e-22
2.41978e-22
-1.81183e-22
1.55005e-22
-1.08493e-22
8.91414e-23
4.7046e-23
-6.23167e-23
2.29192e-15
3.79401e-14
2.7009e-13
2.82398e-14
6.91539e-13
2.34106e-12
2.95777e-13
1.44578e-12
0
1.89381e-13
6.65948e-17
1.19925e-15
5.99361e-17
2.24511e-16
6.03228e-17
1.779e-16
4.65663e-17
1.18869e-16
2.82141e-17
6.21642e-17
9.60369e-18
1.96181e-17
1.01169e-18
2.28069e-18
1.72418e-20
5.02457e-20
2.64849e-23
7.55163e-23
2.21667e-24
9.84176e-24
-2.76428e-22
6.52558e-23
-3.59603e-22
1.11945e-22
-3.21594e-22
1.21677e-22
-2.3795e-22
1.01615e-22
-1.55036e-22
7.06933e-23
-9.196e-23
4.28181e-23
-5.07643e-23
2.32253e-23
1.15129e-23
-2.65138e-23
3.19035e-15
3.51533e-14
9.00379e-15
2.58778e-14
9.41873e-14
0
2.33332e-14
0
2.1225e-16
5.76087e-16
7.85052e-17
5.86737e-16
7.92094e-17
2.46603e-16
6.93772e-17
1.56319e-16
5.09063e-17
9.33476e-17
2.53735e-17
4.07809e-17
5.46272e-18
8.67277e-18
2.6091e-19
4.95491e-19
1.55772e-21
3.98643e-21
2.06939e-22
2.22757e-24
-7.22039e-23
4.76491e-24
-1.68058e-22
2.39888e-23
-1.81088e-22
3.69005e-23
-1.47968e-22
3.7021e-23
-1.01872e-22
2.88201e-23
-6.19547e-23
1.8743e-23
-3.42201e-23
1.06107e-23
-1.74975e-23
5.37051e-24
2.47755e-24
-8.40358e-24
2.80455e-15
3.27689e-14
4.04682e-15
2.81303e-14
9.0031e-16
2.4108e-15
2.78703e-16
9.07237e-16
1.31183e-16
3.98802e-16
1.2586e-16
2.67091e-16
9.10065e-17
1.94442e-16
6.90672e-17
1.21006e-16
4.2567e-17
6.27777e-17
1.44627e-17
1.95167e-17
1.47644e-18
2.12751e-18
2.36636e-20
4.32686e-20
4.22767e-23
1.02691e-22
8.34781e-24
1.37751e-24
-5.5514e-23
1.4542e-24
-8.24727e-23
7.84361e-24
-7.68768e-23
1.10497e-23
-5.69274e-23
1.02263e-23
-3.60473e-23
7.36393e-24
-2.02424e-23
4.43027e-24
-1.03163e-23
2.31716e-24
-4.85223e-24
1.08131e-24
4.5873e-25
-2.13429e-24
2.60477e-15
2.14442e-14
4.4257e-15
2.38078e-14
1.14418e-15
9.19434e-15
3.77418e-16
2.81403e-15
1.40225e-16
7.01123e-16
9.62779e-17
2.28747e-16
7.76102e-17
1.31661e-16
5.33538e-17
7.50781e-17
2.38697e-17
2.95192e-17
4.14252e-18
5.00863e-18
1.4263e-19
1.98287e-19
6.08967e-22
1.1246e-21
1.02535e-22
9.10369e-25
-6.79395e-24
-1.20956e-24
-3.14139e-23
1.40334e-25
-3.47454e-23
2.19002e-24
-2.81146e-23
2.93591e-24
-1.87471e-23
2.51204e-24
-1.08095e-23
1.66182e-24
-5.54296e-24
9.15413e-25
-2.57739e-24
4.37071e-25
-1.1031e-24
1.85598e-25
7.14079e-26
-4.39936e-25
1.39796e-15
5.21798e-15
3.31276e-15
9.90189e-15
1.65872e-15
8.02405e-15
5.50501e-16
2.9352e-15
1.5673e-16
7.14826e-16
7.75698e-17
1.91445e-16
5.05332e-17
7.91295e-17
2.63956e-17
3.18457e-17
6.60702e-18
7.01455e-18
4.117e-19
4.516e-19
3.68102e-21
4.91425e-21
4.83064e-24
8.51989e-24
1.60699e-24
6.03475e-25
-9.41845e-24
-1.88871e-24
-1.375e-23
-3.85615e-25
-1.2465e-23
5.08483e-25
-8.85379e-24
6.79179e-25
-5.28635e-24
5.38502e-25
-2.74783e-24
3.24856e-25
-1.27174e-24
1.62026e-25
-5.32787e-25
6.9695e-26
-2.04781e-25
2.65377e-26
9.11265e-27
-7.30601e-26
2.34449e-16
2.42811e-16
9.71679e-16
9.84987e-16
1.23363e-15
1.58913e-15
4.71046e-16
1.09773e-15
1.24063e-16
3.65745e-16
4.55894e-17
9.38994e-17
2.08966e-17
2.81121e-17
6.35275e-18
6.4324e-18
6.19821e-19
5.64862e-19
1.0306e-20
1.03001e-20
2.49964e-23
3.25739e-23
6.91522e-24
3.59954e-26
-1.78064e-24
-7.04138e-25
-4.873e-24
-1.13232e-24
-5.00983e-24
-3.44724e-25
-3.83879e-24
9.2486e-26
-2.39107e-24
1.34271e-25
-1.26712e-24
9.90544e-26
-5.86884e-25
5.40213e-26
-2.41935e-25
2.40792e-26
-9.00095e-26
9.18827e-27
-3.0587e-26
3.08318e-27
9.26995e-28
-9.60149e-27
8.39529e-18
1.9826e-18
8.8974e-17
1.36199e-17
1.53232e-16
4.59246e-17
1.23995e-16
5.64419e-17
4.33366e-17
3.67798e-17
1.38186e-17
1.37664e-17
4.10138e-18
3.48711e-18
5.50802e-19
4.10648e-19
1.55726e-20
1.21746e-20
6.88537e-23
6.79709e-23
9.35962e-26
1.20789e-25
5.23423e-26
3.04566e-26
-1.49959e-24
-6.46651e-25
-1.9778e-24
-5.43956e-25
-1.58074e-24
-1.81781e-25
-1.01825e-24
1.08423e-26
-5.50609e-25
2.22386e-26
-2.55694e-25
1.54137e-26
-1.04018e-25
7.52035e-27
-3.75921e-26
2.94695e-27
-1.22039e-26
9.78544e-28
-3.59672e-27
2.83145e-28
7.27605e-29
-9.73063e-28
1.21212e-19
1.51023e-20
1.51662e-18
8.10671e-20
4.18375e-18
2.21004e-19
5.12375e-18
3.79449e-19
3.65538e-18
4.65549e-19
1.4505e-18
3.3459e-19
2.87654e-19
9.16602e-20
1.48604e-20
6.41012e-21
1.25843e-22
8.37805e-23
2.61522e-25
2.76422e-25
1.17129e-25
8.92174e-26
-3.48408e-25
-2.18431e-25
-7.3058e-25
-3.53383e-25
-6.90459e-25
-2.28802e-25
-4.43583e-25
-7.58967e-26
-2.34338e-25
-1.48054e-27
-1.07754e-25
3.00028e-27
-4.30491e-26
2.00743e-27
-1.50967e-26
8.64543e-28
-4.68696e-27
2.91241e-28
-1.29799e-27
8.19954e-29
-3.23595e-28
1.98657e-29
4.22252e-30
-7.34523e-29
2.20678e-21
1.57697e-22
2.32118e-20
1.17633e-21
4.0107e-20
1.30488e-21
5.0286e-20
1.38081e-21
5.40238e-20
1.4717e-21
3.35034e-20
1.32756e-21
5.27726e-21
4.17946e-22
1.35558e-22
2.62907e-23
6.03304e-25
3.23625e-25
1.86449e-25
1.04612e-27
-4.58336e-26
-3.74432e-26
-2.2099e-25
-1.52814e-25
-2.85457e-25
-1.58407e-25
-2.14819e-25
-8.71269e-26
-1.12921e-25
-2.74614e-26
-4.72771e-26
-3.31068e-27
-1.79702e-26
3.10885e-28
-6.01248e-27
2.18416e-28
-1.77054e-27
8.13413e-29
-4.59049e-28
2.27256e-29
-1.05072e-28
5.2113e-30
-2.13998e-29
1.01074e-30
1.69141e-31
-3.92734e-30
2.01837e-23
3.12148e-25
3.16752e-22
9.20352e-24
4.00116e-22
1.05068e-23
3.79103e-22
8.66777e-24
2.78269e-22
5.44713e-24
1.60741e-22
3.03147e-24
2.63591e-23
8.69031e-25
6.62607e-25
7.0041e-26
2.69941e-27
1.08034e-27
8.85385e-28
8.82538e-28
-4.98479e-26
-4.44204e-26
-9.81484e-26
-7.61113e-26
-9.77327e-26
-6.32401e-26