/*--------------------------------*- C++ -*----------------------------------*\
  =========                 |
  \\      /  F ield         | OpenFOAM: The Open Source CFD Toolbox
   \\    /   O peration     | Website:  https://openfoam.org
    \\  /    A nd           | Version:  9
     \\/     M anipulation  |
\*---------------------------------------------------------------------------*/
FoamFile
{
    format      ascii;
    class       volVectorField;
    location    "9.92";
    object      U;
}
// * * * * * * * * * * * * * * * * * * * * * * * * * * * * * * * * * * * * * //

dimensions      [0 1 -1 0 0 0 0];

internalField   nonuniform List<vector> 
2268
(
(-0.000774 0.000355943 0)
(-0.00212844 0.000332375 0)
(-0.00330589 0.000287684 0)
(-0.0043637 0.000241326 0)
(-0.00524111 0.000189223 0)
(-0.00592739 0.000135353 0)
(-0.00641016 8.03701e-05 0)
(-0.00670279 3.52495e-05 0)
(-0.00684576 1.83237e-06 0)
(-0.00686263 -3.00625e-05 0)
(-0.00673447 -8.1997e-05 0)
(-0.00638688 -0.00016273 0)
(-0.00569909 -0.000289623 0)
(-0.00455285 -0.000432207 0)
(-0.00299342 -0.000528915 0)
(-0.00127783 -0.000445409 0)
(-0.000290555 -0.00010106 0)
(-0.000486822 0.000205771 0)
(-0.00161572 0.00101533 0)
(-0.00604341 0.00158264 0)
(-0.00897072 0.000282443 0)
(-0.00817546 -0.000838966 0)
(-0.0041843 -0.00180265 0)
(-0.00076566 0.00101772 0)
(-0.00206627 0.000926929 0)
(-0.00322534 0.000826541 0)
(-0.00430658 0.000709588 0)
(-0.00523159 0.000577594 0)
(-0.00598251 0.0004364 0)
(-0.00654613 0.000295834 0)
(-0.0069308 0.000171589 0)
(-0.00716415 7.10324e-05 0)
(-0.00726319 -2.6298e-05 0)
(-0.00721405 -0.00015832 0)
(-0.00696829 -0.000353317 0)
(-0.00644954 -0.0006299 0)
(-0.00558927 -0.000931455 0)
(-0.00442835 -0.00111498 0)
(-0.00316883 -0.000926982 0)
(-0.00240473 -0.000255364 0)
(-0.0025702 0.000452053 0)
(-0.00320295 0.00167296 0)
(-0.00470168 0.0023584 0)
(-0.00548202 0.000523926 0)
(-0.00564392 -0.00141165 0)
(-0.00358254 -0.00423077 0)
(-0.000731224 0.0016527 0)
(-0.00201801 0.00148932 0)
(-0.00317817 0.00134824 0)
(-0.0042845 0.00117627 0)
(-0.00525253 0.000974076 0)
(-0.00605995 0.000753464 0)
(-0.00669317 0.000532405 0)
(-0.00715557 0.000333304 0)
(-0.00746634 0.000165524 0)
(-0.00763973 1.60204e-06 0)
(-0.00766871 -0.00020568 0)
(-0.0075226 -0.000500175 0)
(-0.00714874 -0.000902154 0)
(-0.00649629 -0.00133728 0)
(-0.00558199 -0.00160178 0)
(-0.00453653 -0.00134282 0)
(-0.00385185 -0.000384179 0)
(-0.0039466 0.000599676 0)
(-0.00408415 0.00183129 0)
(-0.00397185 0.00242133 0)
(-0.00366172 0.000606053 0)
(-0.0039523 -0.00159383 0)
(-0.00267229 -0.00606327 0)
(-0.000702719 0.00228522 0)
(-0.00198986 0.00207324 0)
(-0.00317515 0.00189392 0)
(-0.0043172 0.00167135 0)
(-0.00533257 0.00140259 0)
(-0.00619759 0.00110599 0)
(-0.00689881 0.000806565 0)
(-0.00743536 0.000533 0)
(-0.00782125 0.000297612 0)
(-0.00806945 6.77268e-05 0)
(-0.00817875 -0.000211255 0)
(-0.00813258 -0.000593715 0)
(-0.00789366 -0.00110458 0)
(-0.0074162 -0.00166078 0)
(-0.00668461 -0.0020198 0)
(-0.00574285 -0.00173711 0)
(-0.00502984 -0.000541764 0)
(-0.00497732 0.000633749 0)
(-0.00473859 0.00163717 0)
(-0.00373569 0.00206454 0)
(-0.00269789 0.000481497 0)
(-0.0028004 -0.00169414 0)
(-0.00196663 -0.00741848 0)
(-0.000681925 0.00290472 0)
(-0.00197616 0.00267065 0)
(-0.00320234 0.00245998 0)
(-0.0043906 0.00219134 0)
(-0.00546074 0.00185985 0)
(-0.00638938 0.00149114 0)
(-0.00716315 0.00111604 0)
(-0.00777661 0.000768648 0)
(-0.00823966 0.000465423 0)
(-0.00856479 0.000170719 0)
(-0.00875582 -0.000175001 0)
(-0.00880847 -0.000634319 0)
(-0.00869746 -0.00124002 0)
(-0.00837846 -0.00190997 0)
(-0.00780481 -0.00238548 0)
(-0.00691573 -0.00214816 0)
(-0.00608494 -0.000758686 0)
(-0.00579224 0.000552077 0)
(-0.00528365 0.0012271 0)
(-0.00381218 0.00139885 0)
(-0.00231172 0.000160242 0)
(-0.002071 -0.00176737 0)
(-0.00135567 -0.00838951 0)
(-0.00066375 0.00351823 0)
(-0.00197633 0.00328068 0)
(-0.00325483 0.00304518 0)
(-0.00449726 0.00273479 0)
(-0.00562921 0.00234494 0)
(-0.00662852 0.00190857 0)
(-0.00748121 0.00146076 0)
(-0.00817619 0.00104025 0)
(-0.00871914 0.000669112 0)
(-0.00912195 0.000310512 0)
(-0.00939256 -9.71151e-05 0)
(-0.00953804 -0.000622801 0)
(-0.00954478 -0.00130999 0)
(-0.00937267 -0.00208591 0)
(-0.0089564 -0.00269769 0)
(-0.00812953 -0.00259532 0)
(-0.00712495 -0.00107877 0)
(-0.00649055 0.000349403 0)
(-0.00573936 0.00070353 0)
(-0.0041066 0.000569859 0)
(-0.00243508 -0.000311373 0)
(-0.00156929 -0.0020525 0)
(-0.000204847 -0.00910364 0)
(-0.000643901 0.00415242 0)
(-0.00198864 0.00390299 0)
(-0.00332878 0.00365257 0)
(-0.0046286 0.0033056 0)
(-0.00582741 0.00286212 0)
(-0.00690399 0.00236266 0)
(-0.00784203 0.00184447 0)
(-0.00862331 0.00135026 0)
(-0.00924847 0.000909836 0)
(-0.00972766 0.000486421 0)
(-0.0100715 1.94261e-05 0)
(-0.0102974 -0.000564012 0)
(-0.0104048 -0.00131995 0)
(-0.0103642 -0.00219001 0)
(-0.0101118 -0.00294408 0)
(-0.00943354 -0.0030515 0)
(-0.00827387 -0.00155882 0)
(-0.00712677 -3.01904e-05 0)
(-0.00605912 0.000138091 0)
(-0.00451014 -0.0002624 0)
(-0.00283176 -0.000967366 0)
(-0.0010138 -0.002894 0)
(0.00151511 -0.00933184 0)
(-0.00065089 0.00461151 0)
(-0.00203394 0.00456031 0)
(-0.00341619 0.00430637 0)
(-0.00476974 0.00392339 0)
(-0.00603834 0.00342843 0)
(-0.00719803 0.00286944 0)
(-0.00822698 0.00228155 0)
(-0.00909878 0.00170981 0)
(-0.0098078 0.00119531 0)
(-0.0103602 0.000701388 0)
(-0.0107667 0.000172107 0)
(-0.0110534 -0.000464018 0)
(-0.0112342 -0.0012784 0)
(-0.0112973 -0.00222634 0)
(-0.0111993 -0.0031091 0)
(-0.0107523 -0.00344801 0)
(-0.00953867 -0.00223699 0)
(-0.00784725 -0.000685997 0)
(-0.00632818 -0.000483958 0)
(-0.0048029 -0.00103357 0)
(-0.00307394 -0.00189459 0)
(-0.000387923 -0.00420076 0)
(0.00244471 -0.00867566 0)
(-0.00624735 0.00183036 0)
(-0.00762295 -0.000145871 0)
(-0.0024472 -0.00204201 0)
(0.0055082 -0.00186792 0)
(0.0105607 -0.00134374 0)
(0.0146796 -0.00107952 0)
(0.017663 -0.000720118 0)
(0.0193977 -0.000246648 0)
(0.019949 -0.000166973 0)
(0.0204767 -0.000648649 0)
(0.0217916 0.000277675 0)
(0.0174144 0.00294334 0)
(0.00486254 0.00260255 0)
(0.000393871 0.000206468 0)
(0.00118947 -0.000290369 0)
(0.00073707 0.000368939 0)
(-0.00295912 0.000939828 0)
(-0.00739159 2.94392e-05 0)
(-0.00382237 -0.00139065 0)
(-0.00588854 0.00399567 0)
(-0.00370124 -0.00109507 0)
(0.000631189 -0.00423639 0)
(0.00619346 -0.0039108 0)
(0.00996449 -0.0028685 0)
(0.012781 -0.00211908 0)
(0.0146661 -0.00142639 0)
(0.0160007 -0.000659692 0)
(0.0164083 -0.000196824 0)
(0.0156659 -0.000453008 0)
(0.0150621 0.000740261 0)
(0.0138879 0.00497154 0)
(0.00817791 0.00499908 0)
(0.00477784 0.00129455 0)
(0.00326595 0.000199049 0)
(0.00153009 0.00139364 0)
(-0.00235752 0.00267662 0)
(-0.00688438 0.000609274 0)
(-0.00476853 -0.00368782 0)
(-0.00408144 0.00540126 0)
(-0.000749349 -0.00250127 0)
(0.00304626 -0.00612992 0)
(0.00691961 -0.00547487 0)
(0.00962796 -0.00404001 0)
(0.0116371 -0.00290232 0)
(0.0129818 -0.00196117 0)
(0.0139566 -0.000975223 0)
(0.0140456 -2.54791e-05 0)
(0.0127784 0.00012949 0)
(0.0110617 0.00119461 0)
(0.0104271 0.00549 0)
(0.00900165 0.00612418 0)
(0.00713029 0.00229195 0)
(0.00488698 0.00118363 0)
(0.0023217 0.00265211 0)
(-0.00132429 0.00436646 0)
(-0.00548496 0.00125855 0)
(-0.00410795 -0.00625867 0)
(-0.00231849 0.00603089 0)
(0.00210122 -0.004065 0)
(0.00523495 -0.00757579 0)
(0.00766741 -0.00656835 0)
(0.00943784 -0.00487273 0)
(0.0107886 -0.00347855 0)
(0.0117124 -0.00236044 0)
(0.0124045 -0.00115341 0)
(0.0122798 0.00026762 0)
(0.0108554 0.000848509 0)
(0.00880142 0.00187627 0)
(0.00837214 0.00547345 0)
(0.00901404 0.00635622 0)
(0.00835806 0.00306968 0)
(0.00602765 0.00233243 0)
(0.00317201 0.00398315 0)
(-3.96579e-05 0.00583938 0)
(-0.0034108 0.00190757 0)
(-0.00242378 -0.00800273 0)
(0.000613266 0.00559045 0)
(0.00521574 -0.00561792 0)
(0.00721983 -0.00850011 0)
(0.00836053 -0.00721385 0)
(0.00930824 -0.00539483 0)
(0.0100937 -0.00385418 0)
(0.0106495 -0.00263404 0)
(0.0111163 -0.00124622 0)
(0.0108933 0.000614016 0)
(0.00952752 0.0015592 0)
(0.00763935 0.00250483 0)
(0.00733199 0.00522662 0)
(0.0086709 0.00609549 0)
(0.00862322 0.00364955 0)
(0.00658471 0.00340834 0)
(0.0042155 0.00519393 0)
(0.0017221 0.00705618 0)
(-0.000999915 0.00246774 0)
(-0.000600418 -0.00885987 0)
(0.0047095 0.00359105 0)
(0.00825755 -0.00682508 0)
(0.00880544 -0.00883537 0)
(0.00889355 -0.00745146 0)
(0.00917262 -0.00564367 0)
(0.00948802 -0.00404568 0)
(0.00971789 -0.00279508 0)
(0.0100158 -0.00129585 0)
(0.00980765 0.000953323 0)
(0.00863272 0.00218891 0)
(0.00712166 0.00299741 0)
(0.00695996 0.00494217 0)
(0.00827328 0.00570447 0)
(0.00825734 0.00411382 0)
(0.0065681 0.00422931 0)
(0.00512618 0.00601296 0)
(0.00385708 0.00793089 0)
(0.00183322 0.00305255 0)
(0.00124281 -0.00877125 0)
(0.00820294 0.000471992 0)
(0.0104852 -0.00748515 0)
(0.00978779 -0.00867876 0)
(0.00917633 -0.00737939 0)
(0.00897566 -0.00568142 0)
(0.00892475 -0.00407982 0)
(0.00886212 -0.00285252 0)
(0.00901453 -0.00134431 0)
(0.00892385 0.00123149 0)
(0.00806226 0.00269577 0)
(0.00696475 0.00334079 0)
(0.00694126 0.00468295 0)
(0.00800158 0.00539777 0)
(0.00775829 0.00455922 0)
(0.00635095 0.0047592 0)
(0.00582851 0.00629456 0)
(0.00591375 0.00831585 0)
(0.00489616 0.00368547 0)
(0.00365431 -0.00757382 0)
(0.00885641 -0.00508114 0)
(0.0110647 -0.00787439 0)
(0.0100636 -0.00827146 0)
(0.00916257 -0.00711719 0)
(0.00867511 -0.00556827 0)
(0.00837079 -0.00398659 0)
(0.00806131 -0.00279725 0)
(0.00801358 -0.00138214 0)
(0.00809837 0.00135985 0)
(0.00774183 0.00301367 0)
(0.00708341 0.00355284 0)
(0.00714902 0.00445993 0)
(0.00792235 0.00521998 0)
(0.00750806 0.0050016 0)
(0.00645906 0.00502202 0)
(0.00644511 0.00620918 0)
(0.00736437 0.00815724 0)
(0.00749948 0.00429269 0)
(0.00594199 -0.00534454 0)
(-0.000610271 0.00631952 0)
(-0.0020501 0.00592054 0)
(-0.00352033 0.00552283 0)
(-0.00496282 0.00503512 0)
(-0.00634675 0.00444289 0)
(-0.00764446 0.00379004 0)
(-0.00882171 0.00308961 0)
(-0.00984065 0.00238296 0)
(-0.0106838 0.00173726 0)
(-0.0113451 0.00111277 0)
(-0.0118282 0.000469597 0)
(-0.0121662 -0.000249645 0)
(-0.0123981 -0.00115128 0)
(-0.0125481 -0.00219535 0)
(-0.0126028 -0.00323901 0)
(-0.0123701 -0.00394173 0)
(-0.0113125 -0.00349628 0)
(-0.00934274 -0.00222875 0)
(-0.00708387 -0.00189727 0)
(-0.00489179 -0.00246895 0)
(-0.00272649 -0.00370597 0)
(6.48275e-05 -0.00591058 0)
(-0.0003568 -0.00792818 0)
(-0.000839775 0.00596339 0)
(-0.0022846 0.00656859 0)
(-0.00367177 0.00643087 0)
(-0.00510177 0.00607083 0)
(-0.0065802 0.00551953 0)
(-0.00804354 0.00484119 0)
(-0.00940948 0.00406787 0)
(-0.0106397 0.00325176 0)
(-0.0116857 0.00245669 0)
(-0.0124866 0.00165424 0)
(-0.0130025 0.000838768 0)
(-0.0132393 -1.64372e-05 0)
(-0.0132717 -0.00101198 0)
(-0.0132086 -0.0021083 0)
(-0.013124 -0.00324302 0)
(-0.0129599 -0.004271 0)
(-0.0123068 -0.00473352 0)
(-0.0105933 -0.00444438 0)
(-0.00789138 -0.00447927 0)
(-0.00481904 -0.0049915 0)
(-0.0019463 -0.00596283 0)
(0.000490088 -0.00704734 0)
(0.00118072 -0.00790247 0)
(-0.00146992 0.00892028 0)
(-0.0027992 0.00834814 0)
(-0.00468447 0.0076259 0)
(-0.0064155 0.00738501 0)
(-0.00749165 0.00695361 0)
(-0.00862392 0.00611703 0)
(-0.0100056 0.00517016 0)
(-0.0113881 0.00423775 0)
(-0.0125448 0.00325702 0)
(-0.0134162 0.0021942 0)
(-0.0138975 0.00111287 0)
(-0.0139396 2.32041e-05 0)
(-0.013653 -0.00110195 0)
(-0.0132644 -0.00223919 0)
(-0.0129747 -0.00337369 0)
(-0.0128625 -0.00447642 0)
(-0.0125136 -0.00541147 0)
(-0.010939 -0.00607459 0)
(-0.00810273 -0.00676045 0)
(-0.00479681 -0.00735008 0)
(-0.00160955 -0.00786333 0)
(0.000913179 -0.00841103 0)
(0.00174229 -0.00897872 0)
(-0.00317352 0.0114332 0)
(0.00113783 0.0085346 0)
(-0.00707724 0.0087312 0)
(-0.0118413 0.00783203 0)
(-0.00917941 0.00714659 0)
(-0.00766214 0.00657548 0)
(-0.00905171 0.00583171 0)
(-0.0105432 0.00482723 0)
(-0.0111697 0.00377325 0)
(-0.0119065 0.00256505 0)
(-0.0123924 0.00126959 0)
(-0.0124305 -5.10897e-05 0)
(-0.0121588 -0.00123436 0)
(-0.0118183 -0.00236794 0)
(-0.0115998 -0.00345704 0)
(-0.0112998 -0.00448112 0)
(-0.0102517 -0.00560503 0)
(-0.00804503 -0.00693666 0)
(-0.00605459 -0.00784527 0)
(-0.00428718 -0.00855734 0)
(-0.0014918 -0.00891311 0)
(0.0017071 -0.0091105 0)
(0.00211204 -0.00921782 0)
(-0.00116597 0.0101526 0)
(0.00365193 0.0126845 0)
(-0.0156885 0.0351049 0)
(-0.0226027 0.00774265 0)
(-0.0168875 0.0022676 0)
(-0.0149391 0.00844692 0)
(-0.0154988 0.0124403 0)
(-0.0146345 0.00746394 0)
(-0.0118306 0.00594203 0)
(-0.00923676 0.00440869 0)
(-0.00713628 0.00159491 0)
(-0.00454604 -0.000732126 0)
(-0.00145578 -0.00288874 0)
(0.00106635 -0.00386237 0)
(0.00317734 -0.0047234 0)
(0.00632496 -0.00720114 0)
(0.0101853 -0.0119923 0)
(0.0126681 -0.0160068 0)
(0.0113204 -0.0137259 0)
(0.00473293 -0.0165171 0)
(0.0014351 -0.0201573 0)
(0.00321185 -0.0170082 0)
(-0.000966212 -0.00745807 0)
(-0.00268597 0.0127864 0)
(-0.00778349 0.0158256 0)
(0.00293578 0.0348384 0)
(0.011578 0.00323333 0)
(0.00246221 0.000852404 0)
(-0.00444712 0.00673458 0)
(-0.00495515 0.00873607 0)
(-0.0045168 0.00130868 0)
(-0.00517064 -0.000461257 0)
(-0.00453892 -0.000505741 0)
(-0.00377384 -0.00210991 0)
(-0.00219586 -0.0047933 0)
(0.000532724 -0.00607863 0)
(0.00342709 -0.00643115 0)
(0.00609416 -0.00735056 0)
(0.00676376 -0.00911842 0)
(0.00340577 -0.0101841 0)
(-0.00145818 -0.00904059 0)
(-0.00203765 -0.0021829 0)
(-0.00173947 -0.0021977 0)
(-0.00429856 -0.00988947 0)
(-0.0062714 -0.0103368 0)
(-0.00564012 0.00168398 0)
(0.000414368 0.016172 0)
(-0.00538817 0.0131687 0)
(0.00270864 0.0196281 0)
(0.00596771 0.00829036 0)
(-1.16476e-05 0.0129946 0)
(-0.000650366 0.0117498 0)
(-0.000378408 0.00882804 0)
(-0.000374203 0.00503642 0)
(-0.00115356 0.00251232 0)
(-0.00135678 0.000842363 0)
(-0.00115101 -0.00173784 0)
(-0.000318239 -0.00666075 0)
(0.00116609 -0.00886282 0)
(0.00271088 -0.00906967 0)
(0.00371121 -0.00894456 0)
(0.00352198 -0.00725238 0)
(0.00169743 -0.00565176 0)
(-0.00173524 -0.00647861 0)
(-0.00433036 -0.00673746 0)
(-0.00537846 -0.00582585 0)
(-0.00814969 -0.00868533 0)
(-0.0120034 -0.0104031 0)
(-0.010366 -0.00576728 0)
(0.000886954 0.017504 0)
(-0.00205832 0.0143192 0)
(0.000330944 0.0154463 0)
(0.000666697 0.0107024 0)
(-0.00134369 0.011857 0)
(-0.000277038 0.0105664 0)
(0.000445145 0.00810903 0)
(0.000753532 0.00475164 0)
(0.000627943 0.00208444 0)
(0.000916367 0.000186585 0)
(0.00144161 -0.00225584 0)
(0.0013043 -0.00668038 0)
(0.000585655 -0.0090286 0)
(-1.7672e-05 -0.00912207 0)
(-0.000798684 -0.00844432 0)
(-0.00153287 -0.00623038 0)
(-0.00240602 -0.00380566 0)
(-0.00433459 -0.00348435 0)
(-0.00660473 -0.00316803 0)
(-0.00835189 -0.00312814 0)
(-0.0105371 -0.00523676 0)
(-0.0133127 -0.00775416 0)
(-0.013425 -0.00812399 0)
(0.000354507 0.0175167 0)
(-0.00109503 0.0153339 0)
(-0.000794605 0.0149588 0)
(-0.00100614 0.0118327 0)
(-0.00163545 0.0112776 0)
(-0.000647196 0.00960005 0)
(0.000131691 0.00741984 0)
(0.000592972 0.00450581 0)
(0.000781184 0.0018633 0)
(0.00103929 -0.000159838 0)
(0.00115128 -0.00233437 0)
(0.000395641 -0.00560473 0)
(-0.0011835 -0.00769098 0)
(-0.00266649 -0.00795938 0)
(-0.00388641 -0.00725541 0)
(-0.00493454 -0.00542436 0)
(-0.00579619 -0.00285297 0)
(-0.00697768 -0.00174851 0)
(-0.00854633 -0.00124427 0)
(-0.0100801 -0.00144377 0)
(-0.0118779 -0.00311902 0)
(-0.0139107 -0.00582538 0)
(-0.0142752 -0.00901448 0)
(6.11775e-06 0.0178756 0)
(-0.000661421 0.0160976 0)
(-0.000853393 0.0149019 0)
(-0.00104235 0.0124284 0)
(-0.00128459 0.0108732 0)
(-0.000771455 0.00895638 0)
(-0.000263926 0.00685402 0)
(5.12697e-05 0.00423201 0)
(0.000158297 0.00170527 0)
(6.42338e-05 -0.000137113 0)
(-0.000360323 -0.00185355 0)
(-0.00142925 -0.00419173 0)
(-0.00306721 -0.00595225 0)
(-0.00457718 -0.00657372 0)
(-0.00579136 -0.00601505 0)
(-0.0068935 -0.00436028 0)
(-0.0077525 -0.00206835 0)
(-0.00854701 -0.000626628 0)
(-0.00950252 4.59549e-05 0)
(-0.0104839 -0.000140252 0)
(-0.0115998 -0.00158636 0)
(-0.01283 -0.00449419 0)
(-0.01339 -0.00919431 0)
(-2.48003e-05 0.0181404 0)
(-0.000287954 0.0165437 0)
(-0.000459453 0.0149175 0)
(-0.000564592 0.0127338 0)
(-0.000730262 0.0107468 0)
(-0.000626493 0.00866997 0)
(-0.000465319 0.00658364 0)
(-0.000391058 0.00414716 0)
(-0.000529538 0.00183303 0)
(-0.000978335 0.00036757 0)
(-0.00174278 -0.00100695 0)
(-0.00292003 -0.0027557 0)
(-0.00447073 -0.00432731 0)
(-0.00589548 -0.00530888 0)
(-0.00697423 -0.0049471 0)
(-0.00784491 -0.00339364 0)
(-0.00852365 -0.00139746 0)
(-0.0090618 5.41675e-05 0)
(-0.00953574 0.000734072 0)
(-0.00991327 0.000524855 0)
(-0.0102503 -0.000836955 0)
(-0.0106939 -0.00371624 0)
(-0.0115644 -0.00849636 0)
(6.66981e-05 0.0181478 0)
(2.7508e-05 0.0166996 0)
(-2.83759e-05 0.0149498 0)
(-9.37453e-05 0.0129004 0)
(-0.000259071 0.0108266 0)
(-0.00038091 0.00869745 0)
(-0.000451038 0.00657866 0)
(-0.000566076 0.00429453 0)
(-0.000959711 0.00227505 0)
(-0.00166118 0.00114549 0)
(-0.00255341 -1.83162e-05 0)
(-0.00368356 -0.00140575 0)
(-0.00507713 -0.00283385 0)
(-0.00646233 -0.00408977 0)
(-0.00755756 -0.0040371 0)
(-0.00827043 -0.00273784 0)
(-0.00870471 -0.000921235 0)
(-0.0089913 0.000395637 0)
(-0.00911909 0.000931708 0)
(-0.00906624 0.000599948 0)
(-0.00890765 -0.000760958 0)
(-0.00889371 -0.00336606 0)
(-0.0096515 -0.00722967 0)
(0.000152872 0.0179992 0)
(0.000258715 0.0166822 0)
(0.000299726 0.0149572 0)
(0.000252349 0.0130244 0)
(8.858e-05 0.0109965 0)
(-0.000117653 0.00888894 0)
(-0.000298456 0.00673011 0)
(-0.000554461 0.00462418 0)
(-0.00113783 0.00296337 0)
(-0.00195863 0.0020039 0)
(-0.00283665 0.000956537 0)
(-0.00382998 -0.000223524 0)
(-0.00500559 -0.00149576 0)
(-0.0063467 -0.00278503 0)
(-0.00756758 -0.00309502 0)
(-0.00832766 -0.00224937 0)
(-0.00865147 -0.00066981 0)
(-0.00873439 0.000485207 0)
(-0.0086399 0.000823744 0)
(-0.00838074 0.000358569 0)
(-0.00807639 -0.000972419 0)
(-0.00797923 -0.00319783 0)
(-0.00850159 -0.0060752 0)
(0.000228531 0.0177369 0)
(0.000418182 0.0165571 0)
(0.000529806 0.0149206 0)
(0.000514849 0.0131242 0)
(0.000371398 0.0111885 0)
(0.000138177 0.00913269 0)
(-0.000110872 0.00698101 0)
(-0.000491199 0.00509801 0)
(-0.00117622 0.00376147 0)
(-0.00199962 0.00284196 0)
(-0.00281389 0.00184493 0)
(-0.00367564 0.000772898 0)
(-0.00465166 -0.000352229 0)
(-0.0058272 -0.00146649 0)
(-0.00704776 -0.00203537 0)
(-0.00797022 -0.00165705 0)
(-0.00840068 -0.000509831 0)
(-0.00841441 0.000414502 0)
(-0.00820456 0.000574286 0)
(-0.00789114 3.89156e-05 0)
(-0.00761594 -0.00118082 0)
(-0.00759785 -0.00301 0)
(-0.00812235 -0.00515946 0)
(0.000294951 0.0173784 0)
(0.000533538 0.0163559 0)
(0.000697324 0.0148446 0)
(0.000722577 0.0131862 0)
(0.000615129 0.0113691 0)
(0.000388811 0.00940476 0)
(5.72466e-05 0.00733274 0)
(-0.000446859 0.00567823 0)
(-0.00115923 0.00455829 0)
(-0.00192839 0.00362215 0)
(-0.00266958 0.00264143 0)
(-0.00343666 0.00162816 0)
(-0.00427849 0.000612697 0)
(-0.00525183 -0.000324015 0)
(-0.00632992 -0.000943378 0)
(-0.00728977 -0.000894136 0)
(-0.00784011 -0.000267277 0)
(-0.0079203 0.000305705 0)
(-0.00772827 0.000312096 0)
(-0.00746738 -0.000232757 0)
(-0.00728784 -0.00129065 0)
(-0.00736335 -0.00274972 0)
(-0.00787256 -0.00435141 0)
(0.000344405 0.0169448 0)
(0.000616419 0.0161034 0)
(0.000817378 0.0147325 0)
(0.000876848 0.0132067 0)
(0.00080697 0.0115244 0)
(0.000592158 0.009702 0)
(0.000183508 0.00779835 0)
(-0.000418376 0.00632591 0)
(-0.00111429 0.00529809 0)
(-0.00180337 0.00433311 0)
(-0.00247498 0.00336097 0)
(-0.00317057 0.00239006 0)
(-0.00392307 0.00145181 0)
(-0.0047639 0.000618353 0)
(-0.00567405 3.5522e-05 0)
(-0.00650906 -0.000124336 0)
(-0.00705455 7.60731e-05 0)
(-0.00722606 0.000277845 0)
(-0.00714928 0.000137747 0)
(-0.00700547 -0.000397959 0)
(-0.0069383 -0.00129732 0)
(-0.00708241 -0.00245267 0)
(-0.00754583 -0.00366114 0)
(0.000364808 0.0164634 0)
(0.000663013 0.0158145 0)
(0.000886897 0.0145963 0)
(0.000960212 0.0132007 0)
(0.000902799 0.0116615 0)
(0.00068818 0.0100134 0)
(0.000249624 0.00834051 0)
(-0.000371597 0.0069937 0)
(-0.00101869 0.00596087 0)
(-0.00163357 0.00497778 0)
(-0.00224601 0.00401656 0)
(-0.00288132 0.00308112 0)
(-0.00355888 0.00219851 0)
(-0.00429058 0.00142358 0)
(-0.00505206 0.000844619 0)
(-0.00574594 0.000536887 0)
(-0.00623663 0.000445038 0)
(-0.00646523 0.000363651 0)
(-0.00650396 8.93876e-05 0)
(-0.00648043 -0.000444364 0)
(-0.00651178 -0.00121942 0)
(-0.00669823 -0.00215096 0)
(-0.00710583 -0.00309203 0)
(0.000361737 0.0159644 0)
(0.00067782 0.0155051 0)
(0.000904668 0.0144542 0)
(0.000970306 0.0131948 0)
(0.000901631 0.0118014 0)
(0.000678186 0.0103297 0)
(0.000264303 0.0088719 0)
(-0.000290807 0.00761502 0)
(-0.00086903 0.00655605 0)
(-0.00142893 0.00556607 0)
(-0.00199022 0.00461625 0)
(-0.00256916 0.00370782 0)
(-0.00317585 0.00286102 0)
(-0.00381058 0.00211312 0)
(-0.00444849 0.00151332 0)
(-0.00502496 0.00109113 0)
(-0.00545902 0.000802977 0)
(-0.00571536 0.000528649 0)
(-0.00583585 0.00014758 0)
(-0.00590462 -0.000392454 0)
(-0.00600719 -0.00108198 0)
(-0.00621475 -0.00186042 0)
(-0.00656851 -0.00262652 0)
(0.00033998 0.0154693 0)
(0.000671848 0.0151934 0)
(0.00087763 0.0143251 0)
(0.00092423 0.0132044 0)
(0.000844532 0.0119499 0)
(0.00062776 0.0106336 0)
(0.000264967 0.00933504 0)
(-0.00020421 0.00815122 0)
(-0.000706964 0.00709112 0)
(-0.00121066 0.0061019 0)
(-0.00171984 0.0051621 0)
(-0.0022419 0.00427158 0)
(-0.0027801 0.00344396 0)
(-0.00332909 0.00270242 0)
(-0.0038671 0.0020724 0)
(-0.0043519 0.00156274 0)
(-0.00473621 0.00114121 0)
(-0.00500035 0.000736426 0)
(-0.0051695 0.000276501 0)
(-0.00529768 -0.00027399 0)
(-0.00544365 -0.000909601 0)
(-0.00565602 -0.00158896 0)
(-0.00596072 -0.00224437 0)
(0.000305058 0.0149953 0)
(0.000631373 0.0149015 0)
(0.000801914 0.0142156 0)
(0.000838906 0.0132243 0)
(0.000763172 0.0120938 0)
(0.000571293 0.0109047 0)
(0.000266598 0.00972126 0)
(-0.000122038 0.00860198 0)
(-0.000550229 0.00756143 0)
(-0.000992954 0.00658151 0)
(-0.00144608 0.00565176 0)
(-0.00190979 0.00477269 0)
(-0.00238232 0.00395313 0)
(-0.0028559 0.00320661 0)
(-0.0033129 0.00254536 0)
(-0.00372576 0.00196947 0)
(-0.00406686 0.00145605 0)
(-0.0043257 0.000962143 0)
(-0.00451793 0.00044495 0)
(-0.00467784 -0.000117887 0)
(-0.0048443 -0.00072262 0)
(-0.00504944 -0.00134154 0)
(-0.00530942 -0.00193018 0)
(0.000278749 0.0145604 0)
(0.00054947 0.0146595 0)
(0.00068779 0.0141167 0)
(0.000732697 0.0132388 0)
(0.000676281 0.0122161 0)
(0.000520601 0.0111308 0)
(0.000274073 0.010037 0)
(-4.22809e-05 0.00897603 0)
(-0.000400313 0.00796481 0)
(-0.000780901 0.00700122 0)
(-0.00117602 0.00608302 0)
(-0.00158137 0.00521222 0)
(-0.00199196 0.00439486 0)
(-0.00239926 0.00363867 0)
(-0.00278935 0.00294906 0)
(-0.00314397 0.00232318 0)
(-0.00344663 0.00174526 0)
(-0.00369171 0.00118928 0)
(-0.0038891 0.000629902 0)
(-0.00406035 5.37441e-05 0)
(-0.00423047 -0.00053618 0)
(-0.00442008 -0.00112142 0)
(-0.004639 -0.00167311 0)
(0.000232996 0.0141857 0)
(0.00045013 0.0144732 0)
(0.000575543 0.0140185 0)
(0.00063155 0.0132368 0)
(0.00059941 0.0123074 0)
(0.000482931 0.0113088 0)
(0.000290962 0.010289 0)
(3.87333e-05 0.00928144 0)
(-0.000255034 0.00830356 0)
(-0.000575542 0.00736084 0)
(-0.000913599 0.0064561 0)
(-0.00126259 0.00559275 0)
(-0.00161584 0.00477545 0)
(-0.00196485 0.0040089 0)
(-0.00229854 0.00329539 0)
(-0.00260434 0.00263176 0)
(-0.00287195 0.00200755 0)
(-0.00309809 0.00140708 0)
(-0.00328888 0.000815571 0)
(-0.00345767 0.000225459 0)
(-0.00362015 -0.000360617 0)
(-0.00378912 -0.00093034 0)
(-0.00397024 -0.00146514 0)
(0.000142496 0.0138928 0)
(0.000362181 0.014305 0)
(0.000489115 0.0139189 0)
(0.000550848 0.0132177 0)
(0.000541357 0.0123669 0)
(0.000462179 0.0114412 0)
(0.00031954 0.0104845 0)
(0.000123915 0.00952569 0)
(-0.000111991 0.00858227 0)
(-0.000376621 0.00766309 0)
(-0.000660863 0.0067736 0)
(-0.000957257 0.00591822 0)
(-0.00125843 0.00510112 0)
(-0.00155627 0.00432561 0)
(-0.00184168 0.00359294 0)
(-0.00210551 0.00290073 0)
(-0.00234078 0.00224246 0)
(-0.00254519 0.00160894 0)
(-0.00272226 0.000991837 0)
(-0.00288001 0.000387294 0)
(-0.00302796 -0.000202305 0)
(-0.00317374 -0.000768662 0)
(-0.00332032 -0.00129991 0)
(5.94048e-05 0.0136848 0)
(0.00028858 0.0141232 0)
(0.000423141 0.0138187 0)
(0.00048968 0.013184 0)
(0.000502421 0.012397 0)
(0.000458569 0.0115319 0)
(0.000360594 0.0106295 0)
(0.000214957 0.00971568 0)
(3.05205e-05 0.00880666 0)
(-0.000183538 0.00791253 0)
(-0.000418814 0.00703985 0)
(-0.000667622 0.00619365 0)
(-0.000922464 0.00537799 0)
(-0.00117568 0.00459582 0)
(-0.00141952 0.00384834 0)
(-0.00164684 0.00313439 0)
(-0.00185236 0.00245035 0)
(-0.00203407 0.00179125 0)
(-0.00219366 0.00115281 0)
(-0.00233564 0.000533469 0)
(-0.0024655 -6.45361e-05 0)
(-0.00258753 -0.000635528 0)
(-0.00270298 -0.00117196 0)
(1.95222e-05 0.0135408 0)
(0.000229057 0.0139392 0)
(0.000358774 0.0137157 0)
(0.000440111 0.0131329 0)
(0.000479663 0.0123972 0)
(0.000471233 0.0115834 0)
(0.000414473 0.0107293 0)
(0.000313198 0.00985761 0)
(0.000173932 0.00898284 0)
(4.33139e-06 0.00811479 0)
(-0.000187809 0.00726032 0)
(-0.000394879 0.00642473 0)
(-0.000609461 0.0056122 0)
(-0.000824312 0.00482579 0)
(-0.00103254 0.00406722 0)
(-0.00122814 0.00333656 0)
(-0.00140671 0.00263243 0)
(-0.00156616 0.00195268 0)
(-0.00170688 0.00129564 0)
(-0.00183111 0.000661258 0)
(-0.00194175 5.16693e-05 0)
(-0.00204092 -0.000529107 0)
(-0.00212884 -0.00107629 0)
(1.43944e-05 0.0134304 0)
(0.000179146 0.0137878 0)
(0.000294544 0.0136033 0)
(0.000402929 0.0130572 0)
(0.000474526 0.0123645 0)
(0.000501764 0.011597 0)
(0.000482854 0.0107882 0)
(0.000420347 0.00995745 0)
(0.000319692 0.00911717 0)
(0.000187836 0.0082762 0)
(3.22602e-05 0.00744125 0)
(-0.000139514 0.00661769 0)
(-0.000320176 0.00580996 0)
(-0.000502787 0.0050215 0)
(-0.000681008 0.00425476 0)
(-0.000849459 0.00351104 0)
(-0.00100416 0.00279067 0)
(-0.00114285 0.00209352 0)
(-0.00126503 0.00141968 0)
(-0.00137145 0.000770114 0)
(-0.00146336 0.000146944 0)
(-0.00154157 -0.000446825 0)
(-0.00160571 -0.00100815 0)
(2.12747e-05 0.0133386 0)
(0.000135007 0.0136776 0)
(0.000247624 0.0134744 0)
(0.000389455 0.0129509 0)
(0.000494349 0.0122972 0)
(0.000554997 0.0115747 0)
(0.000569045 0.0108111 0)
(0.000538772 0.0100216 0)
(0.000469454 0.00921662 0)
(0.000367955 0.00840378 0)
(0.000241757 0.00758947 0)
(9.83999e-05 0.00677914 0)
(-5.48737e-05 0.00597756 0)
(-0.000211334 0.00518876 0)
(-0.000364978 0.004416 0)
(-0.000510802 0.00366173 0)
(-0.000645024 0.0029277 0)
(-0.000765239 0.00221525 0)
(-0.000870337 0.00152577 0)
(-0.000960163 0.000860978 0)
(-0.00103496 0.000223047 0)
(-0.00109476 -0.000385616 0)
(-0.00113892 -0.000962997 0)
(-2.21803e-05 0.0132764 0)
(0.000103059 0.013577 0)
(0.00024055 0.01332 0)
(0.000414045 0.0128126 0)
(0.000548574 0.0121978 0)
(0.000636972 0.0115218 0)
(0.000676877 0.0108046 0)
(0.000670903 0.0100577 0)
(0.000624721 0.00928897 0)
(0.000545526 0.00850516 0)
(0.000441041 0.00771228 0)
(0.000318924 0.00691595 0)
(0.000186408 0.00612139 0)
(5.00733e-05 0.00533334 0)
(-8.43266e-05 0.00455594 0)
(-0.000212031 0.0037927 0)
(-0.000329394 0.00304659 0)
(-0.000433917 0.00232016 0)
(-0.000524148 0.00161577 0)
(-0.000599401 0.000935745 0)
(-0.000659362 0.000282407 0)
(-0.000703663 -0.000342158 0)
(-0.000731567 -0.000936528 0)
(-4.84976e-05 0.0132385 0)
(0.000121258 0.013447 0)
(0.000294565 0.0131373 0)
(0.00048827 0.0126472 0)
(0.000644295 0.0120734 0)
(0.000752133 0.011446 0)
(0.000809053 0.0107773 0)
(0.000818283 0.0100743 0)
(0.000786269 0.00934279 0)
(0.000720844 0.00858851 0)
(0.000630142 0.00781731 0)
(0.000522009 0.00703514 0)
(0.000403677 0.00624783 0)
(0.000281583 0.00546093 0)
(0.000161258 0.00467949 0)
(4.72381e-05 0.00390809 0)
(-5.69702e-05 0.00315074 0)
(-0.000148873 0.00241102 0)
(-0.000226869 0.0016921 0)
(-0.000290026 0.000996877 0)
(-0.000337778 0.000327838 0)
(-0.000369616 -0.00031305 0)
(-0.000384863 -0.000924683 0)
(-7.00477e-06 0.0131722 0)
(0.000202806 0.0132769 0)
(0.000402244 0.0129323 0)
(0.000610819 0.0124628 0)
(0.000781872 0.0119324 0)
(0.000901137 0.0113565 0)
(0.000965909 0.0107385 0)
(0.000980779 0.0100809 0)
(0.000953618 0.00938711 0)
(0.000893282 0.00866221 0)
(0.00080848 0.00791221 0)
(0.000707266 0.00714361 0)
(0.000596828 0.00636305 0)
(0.000483406 0.00557698 0)
(0.000372266 0.00479144 0)
(0.00026769 0.00401199 0)
(0.00017299 0.00324363 0)
(9.05602e-05 0.00249083 0)
(2.19963e-05 0.00175753 0)
(-3.17261e-05 0.0010471 0)
(-7.00113e-05 0.00036228 0)
(-9.23938e-05 -0.000294966 0)
(-9.83534e-05 -0.000923705 0)
(6.52857e-05 0.0130277 0)
(0.000311259 0.0130687 0)
(0.000544147 0.0127065 0)
(0.000772142 0.0122626 0)
(0.000956917 0.0117807 0)
(0.00108163 0.0112612 0)
(0.0011455 0.0106976 0)
(0.00115637 0.010087 0)
(0.00112476 0.00943098 0)
(0.00106106 0.00873454 0)
(0.000974686 0.00800435 0)
(0.00087385 0.0072479 0)
(0.000765572 0.00647282 0)
(0.000655781 0.00568658 0)
(0.000549389 0.00489623 0)
(0.000450353 0.00410827 0)
(0.000361725 0.00332864 0)
(0.000285718 0.00256262 0)
(0.000223806 0.00181484 0)
(0.000176864 0.00108916 0)
(0.000145365 0.000388624 0)
(0.000129589 -0.000284768 0)
(0.000129822 -0.000930167 0)
(0.000125139 0.0127968 0)
(0.000428916 0.0128119 0)
(0.000708317 0.0124503 0)
(0.000965252 0.0120423 0)
(0.0011656 0.0116203 0)
(0.00129048 0.0111674 0)
(0.00134424 0.010664 0)
(0.00134118 0.0101022 0)
(0.001296 0.00948321 0)
(0.0012211 0.00881323 0)
(0.00112653 0.00810046 0)
(0.00102044 0.00735382 0)
(0.000909456 0.00658222 0)
(0.000799021 0.00579421 0)
(0.000693571 0.00499782 0)
(0.000596655 0.00420048 0)
(0.000511007 0.00340895 0)
(0.000438603 0.00262927 0)
(0.000380725 0.00186673 0)
(0.000338061 0.00112572 0)
(0.000310846 0.000409579 0)
(0.000299068 -0.000279573 0)
(0.000302702 -0.000940984 0)
(0.000183217 0.0124813 0)
(0.000558703 0.0124905 0)
(0.00089626 0.0121507 0)
(0.00119033 0.0117943 0)
(0.00140689 0.0114531 0)
(0.00152428 0.0110831 0)
(0.00155666 0.0106478 0)
(0.00152904 0.0101361 0)
(0.00146173 0.00955204 0)
(0.00136897 0.00890507 0)
(0.00126098 0.00820613 0)
(0.00114535 0.00746611 0)
(0.00102799 0.00669535 0)
(0.000913633 0.00590351 0)