/*--------------------------------*- C++ -*----------------------------------*\
  =========                 |
  \\      /  F ield         | OpenFOAM: The Open Source CFD Toolbox
   \\    /   O peration     | Website:  https://openfoam.org
    \\  /    A nd           | Version:  9
     \\/     M anipulation  |
\*---------------------------------------------------------------------------*/
FoamFile
{
    format      ascii;
    class       surfaceScalarField;
    location    "14.55";
    object      phi;
}
// * * * * * * * * * * * * * * * * * * * * * * * * * * * * * * * * * * * * * //

dimensions      [0 3 -1 0 0 0 0];

internalField   nonuniform List<scalar> 
1300
(
11.2529
1.87548
-4.32368
11.2529
-4.89279
1.87548
-4.19413
4.19413
-1.19819
1.19819
5.71232
5.54054
-2.3847
2.3847
-2.86021
2.86021
-2.86324
2.86324
-1.06194
1.06194
-1.02828
1.02828
0.696378
-0.696378
-3.35701
3.35701
-1.46265
1.46265
-2.89667
2.89667
6.12817
-6.12817
-3.32685
3.32685
-0.751122
0.751122
-4.26323
15.5161
6.98963
6.98963
-2.376
2.376
-1.25448
1.25448
1.41034
-1.41034
9.32491
-9.32491
-5.00123
-6.02834
1.86789
-13.772
-3.0249
-3.0249
-2.7054
2.7054
-0.829928
1.04555
3.47602
-3.47602
-0.76764
0.76764
-4.27338
0.0792451
-4.27338
3.98578
0.208349
3.98578
-1.33941
0.141222
-1.33941
4.6313
-4.6313
1.08703
0.111157
1.08703
3.92786
-3.92786
-5.71004
11.4224
5.54282
-5.32062
20.8367
-5.93224
11.4728
-3.92351
3.92351
-2.29665
-0.0880539
-2.29665
2.39313
-0.00842971
2.39313
-3.97484
3.97484
-2.64195
-0.218266
-2.64195
2.97057
-0.11035
2.97057
3.66322
-3.66322
-2.91852
0.0552869
-2.91852
2.71201
0.15123
2.71201
0.771042
1.10443
-2.64652
3.69207
-1.10443
0.0424987
1.02614
0.0357986
1.02614
-1.01454
-0.0137395
-1.01454
1.0499
-0.0216223
1.0499
0.735828
-0.0394494
0.735828
-0.756327
0.0599483
-0.756327
-8.53343
-8.94525
-3.4863
0.129288
-3.4863
-1.47962
0.0169758
-1.47962
1.5001
-0.0374579
1.5001
-2.55926
2.55926
-3.22823
0.331563
-3.22823
4.80649
1.32168
4.80649
5.04613
6.20673
16.299
-16.299
10.1708
-3.03821
-0.288637
-3.03821
-3.50751
-5.8174
3.50751
-0.180662
-0.814246
0.0631239
-0.814246
5.62651
1.36311
5.62651
2.59062
0.121388
-2.59062
0.21462
4.61414
-4.61414
1.42627
0.949726
1.42627
-1.19136
1.19136
1.12356
-0.073664
-1.12356
-0.130911
1.38601
0.0243342
1.38601
-1.40975
-0.000595447
-1.40975
7.40442
-13.4328
-7.88272
3.1672
0.189803
-3.1672
0.142307
3.56237
-0.0863527
3.56237
-3.31047
3.31047
-3.6104
0.134388
-3.6104
-0.691117
-0.0765233
-0.691117
0.8542
-0.08656
0.8542
-4.5193
0.245921
-4.5193
-3.65953
0.4313
3.65953
0.32625
1.27009
-1.27009
-1.44611
0.106698
-1.44611
-4.60684
0.0875386
4.60684
0.0244672
-4.73211
0.10081
-4.73211
-3.71213
0.101728
3.71213
0.215725
4.5892
1.03731
-4.5892
0.66134
-5.3695
11.5762
-5.88336
11.4262
-3.5488
-0.374704
-3.5488
4.10572
-0.18221
4.10572
2.56752
0.329152
-2.56752
0.270867
2.52639
-0.13326
2.52639
-3.93121
-0.0436327
-3.93121
3.77236
0.202487
3.77236
2.5729
-0.0465056
-2.5729
-0.0690491
2.95426
0.0163047
2.95426
3.66817
-0.00494252
3.66817
-3.53718
-0.126039
-3.53718
3.18041
-3.18041
3.08249
0.0979199
-3.08249
0.163963
-5.07402
5.07343
-0.00799934
-5.06602
1.01814
1.01814
0.778005
-0.0421772
0.778005
-0.86197
0.105643
-0.86197
8.35092
-16.2336
8.82054
-17.354
7.44997
-21.2219
7.98742
-16.9327
3.77711
-3.77711
3.70565
0.071463
-3.70565
0.219349
-1.46045
-0.0191687
-1.46045
-2.32015
-0.23911
-2.32015
2.8947
-0.335432
2.8947
-3.74249
3.74249
-4.12502
0.382527
4.12502
0.68147
3.02072
-0.0664551
-3.02072
-0.017493
0.934463
0.152566
-0.934463
0.120218
4.84617
-0.232034
4.84617
-4.07669
-0.537451
-4.07669
-1.47848
0.0180296
1.47848
-0.0522109
-1.25888
0.0675242
-1.25888
-5.0745
0.00847752
-5.0387
-1.40127
-1.40127
1.30414
4.9962
-3.58394
0.0467597
3.58394
-0.0215753
3.52762
0.214874
-3.52762
0.21715
-3.26438
0.0839692
3.26438
0.0460946
-0.668171
-0.0229464
-0.668171
-1.04978
1.04978
-0.930957
-0.11882
0.930957
-0.0767566
1.4275
-0.157414
1.4275
1.47903
0.0210738
-1.47903
0.0329242
-4.97789
0.245773
-4.97789
4.10793
-0.00221233
4.10793
-3.94307
-0.133614
3.94307
-0.274905
-0.00372232
5.07715
-1.01442
-0.000123256
1.01442
-5.10148
5.10136
-0.673363
0.00519231
0.673363
0.104642
1.02945
0.161907
-1.02945
0.167483
3.80593
-0.0335767
-3.80593
0.0288243
-2.03562
-0.284534
-2.03562
-3.22071
-0.32809
3.22072
-0.32602
-5.11514
-0.0779852
5.19312
-5.13676
1.33687
0.0491375
-1.33687
5.1505
-1.16121
-0.10888
1.16121
-0.11143
1.62929
-0.201785
1.62929
5.09549
-0.249317
-5.09549
0.117602
-4.11271
0.181496
4.11271
-0.00477523
-1.80213
-0.233493
1.80213
-0.17284
-13.128
14.4911
7.70873
-6.37583
-7.05693
-12.1932
4.44718
7.12905
14.618
-11.6063
-9.61569
-11.4639
2.86033
-2.69285
-3.75038
3.71093
23.4658
-23.365
-18.3996
19.0811
20.7764
-20.5607
5.70871
5.71365
15.8116
-15.8997
-21.0233
20.6486
15.5256
-15.7439
21.9813
-22.025
-25.6314
25.5978
-16.1046
16.1598
-20.2854
20.1593
-21.0409
20.766
-8.28289
-9.07107
16.2824
-16.1531
20.328
-20.6166
-19.2248
19.5563
10.0474
4.44372
11.0847
-6.2468
11.9555
-5.22598
12.9347
8.37895
-16.6618
7.85469
-14.9116
9.25999
11.068
-9.07933
-3.11389
-17.9672
17.8808
-17.2599
17.306
23.8953
-23.8161
-6.17277
11.8864
-5.25341
12.3825
-11.4091
-6.99053
10.0874
4.53062
8.83335
7.44906
-9.02315
-2.4408
-24.7419
24.4926
-25.6275
25.09
0.0978411
2.42729
-2.52513
1.35232
-0.859752
3.28704
2.00058
2.10623
2.4525
-2.2906
0.240347
-2.76547
-2.89638
-5.38822
5.49492
5.21376
-5.1026
16.421
7.04482
16.4455
-16.6743
-6.69067
-16.4286
11.3642
7.71683
11.7468
12.0608
8.71567
12.1625
10.3593
-10.3315
-0.027775
-11.4774
21.8367
1.5549
-18.468
-13.9374
8.85513
6.95648
8.8467
-9.84622
-6.05344
-9.57536
-11.1137
-9.90959
-11.4418
12.3841
8.2645
12.2019
-15.324
15.3192
9.40205
6.12358
9.2917
-9.03479
-6.7091
-9.10384
27.3749
-6.58017
-20.7948
-13.1117
-12.5197
12.9092
9.07214
14.2001
11.3977
14.2289
8.83248
18.5425
-17.9046
5.38489
-9.95238
-6.15218
-9.78841
9.26822
6.89162
9.41945
-11.763
-8.52235
-11.7163
-11.9797
-9.06122
11.9846
8.17474
-12.521
-13.1065
12.6546
8.11133
7.80146
-17.4172
9.1312
-18.2023
-10.8179
-5.33519
-10.5986
10.8312
6.59304
-17.4242
-5.83065
23.8562
-12.7881
20.7423
-11.0899
-9.52678
-11.1074
-14.6532
-4.57153
-14.2219
-8.09608
7.81155
-8.92759
8.59216
26.9524
-16.2058
-10.7466
-12.3781
-8.18259
11.7168
-0.632078
-12.8359
12.8082
-0.880434
12.0543
16.498
15.8659
-10.8814
-6.37847
-10.6643
10.2732
7.03285
10.3571
15.9406
7.95469
16.149
-16.6524
-7.16364
-16.4065
4.90984
-4.98637
5.73141
-5.71338
15.549
9.54106
-15.3169
-9.42499
22.9612
-10.7825
-12.1787
-5.12878
5.24792
-0.119136
-1.84174
-0.489426
0.261696
-1.93707
-1.81331
1.87712
0.229105
5.47702
3.66371
-2.41422
2.48174
2.7789
2.70524
-0.191145
2.53097
-2.52578
19.0399
-11.5261
-7.51376
13.8423
-13.7548
-2.56416
-19.2359
16.6717
2.69065
3.04664
-2.98352
-3.97719
-1.41103
-3.94426
2.98943
2.22433
3.14199
2.1198
3.37512
-8.17678
1.58626
6.59052
-6.05698
-3.51634
-13.352
-6.32591
19.6779
16.6189
7.87369
-16.7365
0.307964
5.32119
-5.35865
-1.5612
-11.7908
8.43322
-9.99442
-15.2588
-6.43849
21.6973
-9.58141
-1.08288
9.36654
2.38022
-10.8761
-7.09105
10.7417
1.42075
-12.0639
23.9716
-11.9078
-18.4423
8.5163
13.3204
16.2331
-17.8628
9.31816
8.54469
-4.54242
7.45964
1.38706
7.32638
-19.8279
13.7745
11.2462
8.31012
-11.5754
2
-17.8279
25.1247
-22.196
-2.9287
12.8425
12.2823
13.5997
13.3527
-7.87723
21.4769
-3.54499
-18.651
21.3729
-13.0628
15.6926
-28.7553
-29.0453
10.3942
-18.0282
22.0525
-4.02426
-5.17338
-10.1506
23.2016
-2.04909
-21.1525
10.1528
-13.9709
-11.8369
25.8078
-20.5511
18.546
-6.33363
-12.2124
-12.6493
-9.37562
12.4678
2.85138
-25.7332
31.118
-7.1907
7.93053
1.36116
7.94684
10.6425
-15.9091
5.26654
9.9086
-16.2422
6.83882
-22.7479
-12.0884
24.0181
-11.9297
-17.4236
-15.6905
-1.73307
4.80864
26.3094
-16.2064
11.9887
4.21767
8.46548
1.89165
-8.5634
-1.22501
0.973824
16.1011
-17.0749
10.3933
10.5147
11.7276
4.37344
10.7675
7.11331
-10.7459
-0.970333
-14.7869
5.72571
-6.61218
-14.5622
20.2879
-16.266
1.70381
-10.3022
-13.9969
24.2991
-16.4543
11.4281
12.5435
18.461
-19.6154
5.61851
-9.74994
-9.86549
10.6475
-17.2597
7.48936
12.7985
15.6007
2.49422
12.7079
11.3102
-19.301
1.09871
18.7592
-16.3184
3.88286
10.3461
-15.8716
0.181059
-10.4175
2.62387
-15.412
-14.8004
16.4148
-20.9864
-12.3405
13.4239
2.72505
-13.7502
-0.471762
-5.02385
-3.07223
-5.25734
-3.30947
-5.61811
-11.1867
-1.95432
-9.23238
5.85722
-6.7621
-4.67973
7.08812
1.50403
-5.01178
4.9029
-5.6643
5.46252
-0.210487
13.0187
15.6554
7.47284
-8.47624
15.9491
-15.5339
23.4886
-29.6421
14.1082
15.9014
-23.0651
-13.7407
2.74068
2.16916
2.65412
13.5969
-14.5607
0.963778
-13.4203
17.753
-4.33269
-19.8079
6.38759
-6.21105
5.20691
0.524502
5.18774
1.42353
6.85853
-8.28206
-4.28985
-4.34206
-9.14837
-13.8541
23.0024
4.76743
-13.1149
8.34745
-12.0965
16.8639
0.100371
-13.2153
17.0252
-10.1667
17.5497
-11.9961
5.55366
12.7945
22.3636
-9.56912
16.2337
-6.69264
7.04535
-16.6145
-6.80871
-11.2965
18.1882
-13.0025
14.7063
-1.11329
15.8196
-13.7963
3.01376
-2.06865
8.44601
8.66063
16.8103
-12.4369
11.9828
-18.6755
-4.63164
-16.1812
-3.38273
1.04405
-13.8926
12.8485
12.168
-11.124
-3.27985
9.09919
-5.81934
5.7582
-2.8803
-2.8779
-1.87157
-3.11479
1.89452
0.636447
6.39464
0.497702
-3.378
-2.02807
-1.92343
10.4209
8.61902
-3.88648
3.76735
3.62479
-0.578143
0.968421
2.17357
4.64713
-3.67871
0.689729
3.9574
-2.29379
3.85241
1.46878
-3.87348
-0.0707769
-3.4176
11.8508
3.17292
-5.39725
1.71854
2.359
-13.8851
19.7253
-11.423
-8.30236
22.0843
3.02803
-14.451
16.2078
-13.5172
8.06216
-14.3881
-6.38885
-19.906
-12.8612
-10.732
19.0794
-12.2704
20.1441
3.82063
-20.4521
24.2727
-12.7686
6.33009
-9.49503
10.9638
-4.09531
-5.39972
11.3034
10.3939
-11.0641
-0.726705
0.239308
8.47395
-8.23464
-1.52047
-7.57746
-16.4078
17.8286
-8.25694
17.5751
7.69214
-7.63283
25.2079
6.56618
-14.199
-11.8761
-12.959
-5.65432
10.5788
-1.82893
-7.27491
-14.0413
7.32141
0.00496933
-19.013
22.0527
-3.03969
-12.0565
-1.71794
14.5604
-18.1242
1.88197
-11.2854
10.7673
12.1544
12.1593
-20.8988
-0.253672
-12.6343
3.22283
-15.8571
15.5051
-6.85911
17.2533
-16.1218
11.4421
-14.6178
14.3246
-1.53251
14.6843
-9.4178
6.11043
-15.486
-12.6347
14.5491
-8.42554
15.9103
-10.1916
26.1019
-17.3823
14.5698
11.5321
-2.77334
-8.33402
-14.1162
11.3428
0.453639
8.40048
17.8339
-10.7206
16.8636
8.91838
-18.6683
-8.34127
-25.8605
7.1922
-13.317
-7.35512
14.5473
11.1059
12.9975
4.68183
-11.7725
17.7387
-19.4717
-5.80893
-8.99144
14.7269
-3.38405
10.2119
-19.2033
-5.20012
13.1463
-0.202918
-12.9434
3.05943
-15.3999
5.13034
-20.5303
15.856
-16.3278
1.79808
-8.00913
-3.2137
-3.32513
-2.20286
-3.46144
-7.67163
5.46877
-1.28404
3.61885
-12.6254
12.4225
-5.12762
10.5964
-4.11811
-1.13923
4.29095
1.17157
11.768
3.04601
-16.7867
-9.32513
14.7193
-5.39421
1.09575
-10.8466
3.87278
8.06005
14.0243
-24.7318
1.66666
-15.12
-4.12905
6.29821
4.97014
17.1382
2.5775
6.6446
-0.346386
9.2221
2.30773
2.23098
-11.2732
12.2369
1.57536
15.6836
-1.88632
7.43998
3.30141
3.31839
2.04026
5.73352
2.92711
8.74729
0.465229
-3.87684
2.08612
-4.00955
-1.29188
-4.05173
-0.340798
3.75716
-4.09796
10.5903
-1.97133
5.19614
-1.92979
-4.99546
6.92524
-9.44355
-5.5736
-1.6162
-5.67059
7.38913
6.18023
-5.77293
-3.67062
2.42281
-15.284
11.9653
-12.692
-2.29804
21.9747
-9.51318
1.27854
-3.18309
-6.29891
-7.70995
7.78073
24.1904
1.01752
12.2826
18.8461
11.755
1.03439
12.0632
-16.0874
-10.6847
-16.3411
-0.836028
13.7244
5.66416
20.6452
17.1962
13.8122
-5.39116
-24.8629
20.7659
-8.52899
16.4332
-3.48982
-17.0405
14.5516
8.93696
-17.2767
0.948878
-16.0916
-24.6206
-0.352534
12.775
-11.4154
10.2762
7.20395
2.02843
-2.46133
-0.863802
2.58015
-0.349171
8.87293
-0.1794
-8.28701
8.46641
-3.57776
2.28588
-0.467854
4.2352
6.45739
4.48606
-3.80095
-7.89891
-8.87169
-5.01344
-17.174
2.50382
-8.68406
5.75015
-3.46426
2.87225
5.00215
10.1983
-1.60915
-9.51482
7.42849
-4.55624
5.64204
)
;

boundaryField
{
    wall-4
    {
        type            calculated;
        value           uniform 0;
    }
    velocity-inlet-5
    {
        type            calculated;
        value           uniform -11.2529;
    }
    velocity-inlet-6
    {
        type            calculated;
        value           uniform -1.87548;
    }
    pressure-outlet-7
    {
        type            calculated;
        value           nonuniform List<scalar> 8(4.32368 4.89279 11.0296 11.9041 17.4787 15.2871 17.1715 15.4374);
    }
    wall-8
    {
        type            calculated;
        value           uniform 0;
    }
    frontAndBackPlanes
    {
        type            empty;
        value           nonuniform List<scalar> 0();
    }
}


// ************************************************************************* //
