/*--------------------------------*- C++ -*----------------------------------*\
  =========                 |
  \\      /  F ield         | OpenFOAM: The Open Source CFD Toolbox
   \\    /   O peration     | Website:  https://openfoam.org
    \\  /    A nd           | Version:  9
     \\/     M anipulation  |
\*---------------------------------------------------------------------------*/
FoamFile
{
    format      ascii;
    class       volScalarField;
    location    "8.42";
    object      epsilon;
}
// * * * * * * * * * * * * * * * * * * * * * * * * * * * * * * * * * * * * * //

dimensions      [0 2 -3 0 0 0 0];

internalField   nonuniform List<scalar> 
2268
(
0.000104377
0.00058394
0.00104698
0.0014667
0.00184418
0.00218104
0.00247867
0.00273866
0.00296271
0.00315682
0.00332812
0.00348307
0.00362188
0.00372732
0.00375776
0.00364398
0.0033273
0.00292392
0.00243969
0.00196691
0.00153841
0.000959811
0.000321965
0.000217828
0.000386365
0.000577525
0.000755437
0.000916102
0.00105908
0.00118493
0.00129469
0.00138979
0.00147267
0.00154532
0.00160948
0.00166447
0.00170449
0.00171699
0.00168401
0.00159568
0.00147876
0.00131887
0.00112039
0.000897237
0.000655043
0.000506687
0.000373425
0.000402732
0.000525261
0.000647581
0.000760516
0.00086197
0.000951745
0.00103045
0.00109915
0.00115931
0.0012122
0.00125851
0.00129735
0.00132498
0.00133448
0.00131771
0.00127242
0.00120739
0.00111398
0.000994624
0.00086519
0.000753269
0.000850263
0.000527092
0.000450377
0.000534831
0.000629526
0.000719782
0.000801941
0.000875144
0.000939661
0.00099631
0.00104619
0.00109031
0.00112893
0.00116116
0.00118419
0.00119343
0.00118441
0.00115684
0.00111481
0.00105494
0.00098305
0.000918593
0.000908455
0.0012514
0.000675525
0.000508494
0.000565166
0.000641377
0.000717033
0.000787004
0.00084982
0.00090546
0.000954579
0.000998103
0.00103685
0.00107098
0.00109963
0.00112055
0.0011305
0.00112685
0.00111009
0.00108303
0.00104683
0.00101126
0.00100256
0.0010956
0.00174896
0.000820198
0.000571654
0.000605625
0.000667638
0.00073239
0.000793366
0.000848536
0.000897633
0.000941204
0.000980082
0.00101498
0.00104602
0.00107241
0.00109235
0.00110345
0.0011042
0.00109579
0.00108074
0.00106358
0.00105815
0.00110172
0.00131462
0.00244756
0.000963544
0.000638037
0.000652298
0.000702533
0.000758393
0.000812061
0.000860995
0.000904729
0.000943748
0.000978849
0.00101067
0.00103936
0.0010642
0.00108371
0.00109613
0.00110079
0.00109967
0.00109552
0.00109432
0.00111364
0.00120452
0.00156152
0.00366418
0.00110771
0.000707101
0.000703569
0.000743494
0.000791633
0.000838928
0.000882375
0.000921357
0.000956346
0.000988139
0.00101734
0.00104408
0.00106776
0.00108715
0.00110097
0.0011092
0.0011146
0.00112078
0.00113306
0.00117086
0.00129355
0.00177458
0.00630954
0.000523873
0.00172931
0.00275855
0.0032522
0.00351172
0.0036377
0.00364608
0.00360145
0.00339418
0.0030455
0.00259818
0.00208574
0.00174238
0.00168728
0.0015664
0.0013143
0.000884095
0.000503732
0.000105842
0.000558402
0.000942257
0.00127926
0.00145453
0.00155805
0.00161758
0.00163801
0.00162381
0.00155726
0.0014475
0.00129763
0.00112039
0.000972889
0.000883973
0.000786655
0.000660248
0.000484394
0.000320927
0.000191022
0.00072854
0.000892046
0.00106863
0.00116546
0.00122487
0.00126072
0.00127394
0.00126158
0.00121747
0.00114772
0.00104692
0.000927635
0.000822917
0.000746055
0.000667027
0.000573883
0.000456901
0.000352209
0.000336635
0.000919709
0.000956984
0.00103983
0.00108706
0.00111842
0.00113825
0.00114397
0.00113027
0.00109372
0.00103886
0.000959571
0.00086622
0.000781187
0.000712428
0.000643521
0.000569138
0.000482828
0.000417019
0.000498818
0.00120922
0.00109028
0.00107483
0.00107554
0.0010829
0.00108934
0.00108822
0.00107278
0.00104003
0.000993122
0.000927326
0.000850461
0.000777507
0.000714175
0.000651495
0.000589187
0.000523945
0.000489323
0.000673749
0.00171069
0.00128236
0.00113995
0.00109306
0.00107856
0.00107329
0.00106618
0.00104921
0.00101905
0.000977637
0.000921755
0.000856786
0.000792325
0.000732935
0.000674723
0.000620399
0.000569168
0.000561232
0.000864798
0.00276161
0.00152005
0.00121498
0.00112332
0.00108995
0.00107475
0.00106261
0.00104456
0.00101674
0.000979922
0.000931984
0.000876095
0.00081806
0.000761616
0.000706927
0.000658039
0.000616219
0.000634962
0.00109696
0.00523971
0.00173781
0.0012802
0.00115704
0.00110949
0.00108642
0.00107032
0.00105174
0.00102641
0.000994065
0.000952785
0.000904019
0.000851068
0.000796921
0.000744752
0.000699215
0.00066483
0.000707343
0.00133594
0.0013333
0.000819518
0.000790003
0.000815068
0.000852119
0.00089019
0.000925617
0.000957617
0.000986712
0.00101374
0.00103926
0.00106337
0.00108562
0.00110508
0.00112108
0.00113438
0.00114867
0.00116913
0.00119936
0.00125498
0.00138065
0.00169925
0.00268633
0.00164193
0.000985224
0.000921445
0.000927712
0.00095088
0.000976957
0.00100178
0.00102455
0.00104603
0.00106721
0.00108871
0.00111053
0.00113219
0.00115278
0.00117193
0.00119083
0.00121315
0.00124407
0.00128564
0.00134313
0.00143668
0.0016135
0.00194875
0.0020938
0.00119022
0.00107212
0.00105603
0.00106281
0.00107344
0.00108575
0.00109847
0.00111217
0.00112799
0.00114676
0.00116843
0.00119208
0.00121604
0.00123906
0.00126234
0.00128944
0.00132437
0.00136635
0.00141596
0.00147891
0.00157438
0.00171295
0.0032458
0.00150127
0.0012501
0.00120557
0.00118557
0.00117083
0.00116924
0.00117151
0.00117765
0.00118887
0.00120651
0.00123081
0.00126029
0.00129172
0.00132043
0.0013473
0.00137694
0.00141272
0.0014488
0.00148943
0.00152948
0.00157704
0.00164443
0.00344234
0.00168067
0.0014698
0.00134075
0.00125325
0.00122074
0.00122259
0.00122847
0.00123278
0.00124227
0.00125993
0.00128726
0.00132194
0.00135651
0.00137792
0.00139048
0.0014089
0.00144042
0.00148186
0.00152118
0.00155049
0.00158577
0.00163508
0.00083532
0.00193268
0.001584
0.00135182
0.00126873
0.0012555
0.00125837
0.00126192
0.00126671
0.00127609
0.001294
0.00132245
0.00135992
0.0013913
0.0014071
0.00141775
0.00144463
0.00148216
0.00152401
0.0015716
0.00159394
0.00160321
0.00162514
0.00161276
0.00151218
0.00139149
0.00130149
0.00126103
0.00125208
0.00125826
0.00126594
0.00127608
0.00129188
0.00131434
0.00134405
0.00137796
0.00140436
0.00142184
0.00143724
0.00146134
0.00149303
0.00152489
0.00155911
0.0015849
0.00160003
0.00161639
0.00176623
0.00145697
0.00132913
0.00127354
0.00124916
0.00124554
0.00125324
0.00126532
0.00128108
0.00130197
0.00132855
0.00136054
0.00139356
0.001419
0.00143763
0.00145485
0.00147627
0.00150223
0.00152942
0.00155686
0.0015812
0.00159746
0.0016066
0.00176569
0.00150722
0.00131242
0.001253
0.00123636
0.0012392
0.00125122
0.00126764
0.00128766
0.00131228
0.00134241
0.00137773
0.00141333
0.00144026
0.00145826
0.00147429
0.00149291
0.00151407
0.00153648
0.00155952
0.00158116
0.00159696
0.00160463
0.00746659
0.00152183
0.0013024
0.00124065
0.0012273
0.00123421
0.00125034
0.00127117
0.00129544
0.00132359
0.0013565
0.00139369
0.00143031
0.00145877
0.00147881
0.00149634
0.0015146
0.00153359
0.00155291
0.0015725
0.0015912
0.00160638
0.00161601
0.00176698
0.00150071
0.00129871
0.00123598
0.00122364
0.00123272
0.00125183
0.00127627
0.00130427
0.00133558
0.00137053
0.00140824
0.00144506
0.00147589
0.0015
0.00152116
0.00154155
0.00156109
0.0015797
0.0015978
0.0016151
0.0016304
0.00164263
0.00746631
0.00152018
0.00130097
0.00123738
0.00122509
0.00123533
0.00125656
0.0012838
0.00131488
0.00134896
0.00138564
0.00142396
0.00146153
0.00149526
0.00152418
0.00154992
0.00157382
0.00159588
0.00161607
0.00163508
0.00165316
0.00166993
0.00168492
0.00176567
0.0015171
0.00130861
0.00124355
0.00123096
0.00124194
0.00126485
0.00129438
0.00132809
0.00136466
0.00140325
0.00144295
0.00148216
0.00151917
0.00155301
0.00158379
0.00161208
0.00163799
0.00166158
0.00168357
0.00170444
0.00172415
0.00174242
0.00176932
0.00152411
0.00132036
0.00125382
0.0012408
0.0012524
0.00127678
0.00130838
0.0013445
0.00138353
0.00142446
0.00146644
0.00150832
0.00154899
0.00158768
0.00162384
0.00165736
0.00168825
0.00171669
0.00174332
0.00176862
0.00179261
0.00181501
0.00176795
0.00155174
0.00133699
0.00126799
0.00125447
0.00126665
0.00129245
0.00132609
0.00136464
0.00140637
0.00145023
0.00149535
0.00154085
0.00158583
0.00162957
0.00167147
0.00171102
0.00174803
0.00178264
0.00181537
0.00184653
0.00187609
0.00190376
0.00176441
0.001592
0.0013578
0.00128598
0.00127191
0.00128471
0.00131199
0.0013478
0.00138904
0.00143394
0.0014814
0.00153055
0.00158057
0.0016307
0.00168024
0.00172849
0.00177491
0.00181918
0.00186129
0.00190151
0.00193997
0.00197653
0.00201079
0.00176499
0.00162618
0.00138247
0.00130774
0.0012931
0.00130662
0.00133557
0.00137386
0.00141827
0.00146698
0.00151882
0.00157291
0.00162845
0.00168474
0.00174108
0.00179678
0.00185122
0.001904
0.00195498
0.00200418
0.00205148
0.0020966
0.00213899
0.00176471
0.00166568
0.00141129
0.00133324
0.00131807
0.00133253
0.0013635
0.00140474
0.00145296
0.00150623
0.00156335
0.0016234
0.00168561
0.00174927
0.00181369
0.00187819
0.00194211
0.00200496
0.00206639
0.00212622
0.0021841
0.00223955
0.00229187
0.00176715
0.00170227
0.0014438
0.00136243
0.0013469
0.00136265
0.00139612
0.00144093
0.0014937
0.00155243
0.00161586
0.00168307
0.00175327
0.00182576
0.00189984
0.0019748
0.00204997
0.00212473
0.00219855
0.00227096
0.00234147
0.00240933
0.00247367
0.00746825
0.00176998
0.00148018
0.00139533
0.00137971
0.00139721
0.00143381
0.00148293
0.00154114
0.00160636
0.00167732
0.00175306
0.00183282
0.00191587
0.00200148
0.00208894
0.00217748
0.00226638
0.0023549
0.00244232
0.00252791
0.00261069
0.00268955
0.00176721
0.00180652
0.00152017
0.00143198
0.00141666
0.00143649
0.00147694
0.00153126
0.00159593
0.00166887
0.00174876
0.00183466
0.0019258
0.00202144
0.00212085
0.00222323
0.00232775
0.00243352
0.0025396
0.00264497
0.00274864
0.00284938
0.00294579
0.00176492
0.0018723
0.00156393
0.00147248
0.00145791
0.00148074
0.0015259
0.00158644
0.00165878
0.00174084
0.00183131
0.00192927
0.00203395
0.00214462
0.00226051
0.00238077
0.00250443
0.00263043
0.00275757
0.00288455
0.00300998
0.00313238
0.00325
0.00176445
0.001936
0.00161138
0.00151689
0.00150363
0.00153024
0.00158107
0.00164901
0.00173041
0.00182323
0.00192621
0.00203846
0.00215924
0.00228785
0.00242347
0.00256517
0.00271184
0.00286218
0.00301471
0.00316776
0.00331952
0.00346815
0.00361145
0.00176658
0.00199777
0.00166217
0.00156522
0.00155394
0.00158522
0.00164285
0.00171953
0.0018116
0.00191707
0.00203479
0.00216397
0.0023039
0.00245392
0.00261319
0.00278068
0.00295509
0.00313486
0.00331812
0.00350278
0.00368651
0.00386695
0.0040414
0.00176572
0.00207431
0.00171674
0.00161747
0.00160894
0.00164591
0.00171159
0.00179854
0.00190312
0.00202347
0.00215854
0.0023077
0.0024704
0.00264601
0.00283366
0.00303224
0.00324022
0.00345569
0.00367634
0.00389947
0.00412212
0.00434127
0.00455351
0.00176605
0.00214376
0.00177437
0.00167351
0.00166867
0.0017125
0.00178765
0.00188658
0.00200577
0.00214351
0.00229899
0.00247178
0.0026615
0.00286766
0.00308945
0.0033256
0.00357432
0.00383328
0.00409954
0.00436968
0.00463988
0.00490623
0.00516443
0.00176632
0.00222563
0.00183448
0.00173316
0.00173313
0.00178512
0.0018713
0.00198415
0.0021203
0.00227832
0.00245772
0.00265838
0.00288021
0.00312291
0.00338575
0.00366736
0.00396566
0.00427776
0.00459991
0.00492771
0.00525621
0.00558025
0.0058944
0.00746897
0.00231375
0.00189677
0.00179624
0.00180228
0.00186384
0.00196277
0.00209163
0.00224736
0.00242892
0.00263627
0.00286973
0.00312966
0.00341606
0.00372835
0.00406512
0.00442391
0.00480112
0.00519199
0.00559077
0.00599098
0.00638578
0.00676818
0.00747894
0.00238453
0.00196081
0.00186272
0.00187608
0.00194867
0.00206215
0.0022093
0.00238748
0.0025962
0.00283604
0.00310798
0.00341299
0.00375158
0.00412348
0.00452726
0.00496006
0.0054174
0.00589315
0.00637973
0.00686852
0.00735041
0.0078162
0.00176928
0.00244293
0.00202783
0.00193251
0.00195433
0.00203945
0.00216939
0.00233724
0.00254095
0.00278078
0.00305816
0.00337502
0.0037332
0.004134
0.00457767
0.00506293
0.0055865
0.00614281
0.0067239
0.00731967
0.00791848
0.00850806
0.00907612
0.00176659
0.00253984
0.00209717
0.00200502
0.00203664
0.00213592
0.00228427
0.0024753
0.00270774
0.00298287
0.0033033
0.00367223
0.0040928
0.0045675
0.00509746
0.00568181
0.00631692
0.00699591
0.00770842
0.00844084
0.00917724
0.00990076
0.0105948
0.00176715
0.00259718
0.00216376
0.00207931
0.00212261
0.00223772
0.00240641
0.00262302
0.00288738
0.00320211
0.00357139
0.00400018
0.00449345
0.00505545
0.00568882
0.00639356
0.00716593
0.00799758
0.00887499
0.00977971
0.0106896
0.0115809
0.0124308
0.00176785
0.00266054
0.00223084
0.00215548
0.00221206
0.00234455
0.00253529
0.00277965
0.00307887
0.00343733
0.0038613
0.00435809
0.00493525
0.00559965
0.00635631
0.00720694
0.0081483
0.00917057
0.0102563
0.0113801
0.0125108
0.0136144
0.0146585
0.00176571
0.00273197
0.00229827
0.00223369
0.00230524
0.00245642
0.00267042
0.00294409
0.0032805
0.00368631
0.00417044
0.00474333
0.00541605
0.00619927
0.00710174
0.00812833
0.00927745
0.0105384
0.0118889
0.0132944
0.0147097
0.016085
0.0173731
0.00176663
0.00278473
0.0023646
0.00231518
0.00240353
0.00257398
0.00281148
0.00311492
0.00348977
0.00394547
0.00449431
0.00515068
0.00593037
0.0068494
0.00792227
0.00915928
0.0105628
0.0121229
0.0138124
0.0155841
0.0173721
0.0191005
0.0206979
0.00748163
0.00283678
0.00243458
0.00240514
0.00251088
0.00269931
0.00295851
0.00329031
0.00370311
0.00420962
0.00482604
0.00557164
0.00646827
0.00753933
0.0088078
0.010293
0.0120055
0.0139396
0.0160653
0.0183195
0.0206048
0.0228015
0.0247962
0.00746886
0.00287522
0.00252232
0.0025169
0.00263604
0.0028366
0.00311206
0.00346793
0.00391574
0.0044716
0.00515595
0.00599373
0.00701424
0.00825053
0.00973769
0.0115093
0.0135908
0.0159892
0.0186774
0.0215761
0.0245414
0.0273765
0.0298881
0.00176649
0.00295152
0.00267956
0.00268253
0.00279589
0.00299267
0.00327274
0.00364439
0.00412124
0.00472208
0.00547142
0.00640019
0.00754631
0.00895485
0.0106772
0.0127679
0.0152783
0.0182422
0.021652
0.0254219
0.0293459
0.0330871
0.03628
0.00746488
0.00341482
0.00305852
0.0029713
0.00301802
0.00317557
0.00343958
0.0038142
0.00431108
0.00494951
0.00575698
0.00677014
0.00803608
0.00961363
0.0115743
0.0140017
0.0169868
0.0206144
0.0249316
0.0298842
0.035209
0.0403194
0.044413
0.0141187
0.00600915
0.00413388
0.00351872
0.00333609
0.00338783
0.00360596
0.00396788
0.0044741
0.00514037
0.0059952
0.00707987
0.00845014
0.0101789
0.0123601
0.015112
0.0185801
0.0229319
0.028332
0.0348612
0.0423061
0.0497123
0.0549481
0.144575
0.0227693
0.00740095
0.0045278
0.00375674
0.00360981
0.00375331
0.00409021
0.00459656
0.00528011
0.00616823
0.0073052
0.00875359
0.0105984
0.0129536
0.0159722
0.0198602
0.0248939
0.0314343
0.0399046
0.050578
0.0625392
0.0688945
1.53684
0.123187
0.0162468
0.00597599
0.00415873
0.00377506
0.00384688
0.00416076
0.00466368
0.00535499
0.00626024
0.00742497
0.00891553
0.0108239
0.0132767
0.0164497
0.0205931
0.0260757
0.0334713
0.0437437
0.0586829
0.0820158
0.0876739
0.00721325
0.00576522
0.00562541
0.00670651
0.00236256
0.00240072
0.00238578
0.00232877
0.00181175
0.00184133
0.00183828
0.00180352
0.00169384
0.00171301
0.00171144
0.0016885
0.00170224
0.00173172
0.00171021
0.00166239
0.00166115
0.00168173
0.00168326
0.00164558
0.00164499
0.00165567
0.0016484
0.00162319
0.00161497
0.00161878
0.00161536
0.00160367
0.00160748
0.00160843
0.00160664
0.00160141
0.00161996
0.00162148
0.00162143
0.00161976
0.00164936
0.00165263
0.00165457
0.00165529
0.00169443
0.00169965
0.00170364
0.00170636
0.00175454
0.00176157
0.00176753
0.00177223
0.00183006
0.00183896
0.00184685
0.00185357
0.00192242
0.00193358
0.00194372
0.00195269
0.002034
0.002048
0.00206091
0.00207259
0.00216785
0.00218538
0.00220172
0.00221675
0.00232768
0.00234955
0.00237011
0.00238925
0.00251796
0.00254513
0.00257085
0.002595
0.00274412
0.00277773
0.00280973
0.00283998
0.00301279
0.00305421
0.00309382
0.00313145
0.00333205
0.00338292
0.00343172
0.00347829
0.00371171
0.00377399
0.00383391
0.00389126
0.00416368
0.00423976
0.0043131
0.00438345
0.00470245
0.00479519
0.00488471
0.00497069
0.00534561
0.00545848
0.00556747
0.00567222
0.00611463
0.00625178
0.0063842
0.00651145
0.0070357
0.00720216
0.00736273
0.00751689
0.00814101
0.00834284
0.0085372
0.00872347
0.00947039
0.00971484
0.00994963
0.0101741
0.0110733
0.0113691
0.0116522
0.0119218
0.0130119
0.0133694
0.0137099
0.0140326
0.0153644
0.0157961
0.0162047
0.0165893
0.018231
0.0187516
0.0192402
0.0196962
0.0217412
0.0223675
0.022949
0.0234857
0.0260643
0.026815
0.0275018
0.0281263
0.031426
0.0323188
0.0331195
0.0338334
0.0381308
0.0391764
0.0400888
0.040881
0.0465965
0.047782
0.0487779
0.049612
0.0573951
0.0586473
0.059644
0.0604393
0.0712763
0.0723875
0.0732059
0.0738178
0.0890446
0.0895814
0.0899289
0.0901653
0.00265039
0.00166437
0.00133598
0.00120556
0.00114557
0.00111404
0.00109368
0.00107529
0.00105434
0.00102939
0.000997189
0.00095719
0.000910623
0.000859439
0.000809103
0.000766092
0.000741956
0.000812754
0.00161603
0.00191834
0.00156616
0.00136813
0.00125995
0.00119998
0.00116562
0.00114425
0.00112846
0.00111395
0.00109795
0.00107588
0.00104361
0.00100165
0.000951742
0.000901371
0.00085846
0.00083975
0.00092452
0.00179656
0.00169079
0.00152336
0.00139515
0.00130926
0.00125548
0.00122314
0.00120361
0.0011911
0.00118235
0.00117461
0.00116168
0.00113528
0.00109708
0.00104834
0.000997325
0.000953985
0.000937232
0.00102309
0.00185524
0.00162419
0.00152047
0.00142838
0.00135859
0.0013117
0.00128316
0.00126621
0.00125671
0.00125305
0.00125352
0.00124995
0.00122813
0.00119747
0.00115073
0.00109698
0.00105521
0.00104424
0.00115709
0.0023664
0.00159297
0.00151533
0.00145468
0.00140545
0.00136828
0.00134505
0.00132991
0.00132258
0.00132155
0.00132012
0.00131336
0.00131145
0.00130219
0.00122593
0.00116484
0.00112622
0.00113535
0.00129069
0.00236781
0.0015864
0.00152233
0.00147385
0.00143794
0.00141404
0.00139987
0.00138759
0.0013807
0.00137873
0.00137535
0.00137002
0.00136352
0.00134404
0.00128733
0.00124023
0.00120559
0.00121788
0.00142668
0.00274351
0.00157876
0.00153223
0.00149946
0.00147209
0.00144883
0.001435
0.00142118
0.00140965
0.00140414
0.00140241
0.00140773
0.00143253
0.0014281
0.00134123
0.00128872
0.00125767
0.00126584
0.00135343
0.00115828
0.00157838
0.00154596
0.00151916
0.00149577
0.00147434
0.00145824
0.00144253
0.00142854
0.0014196
0.00141824
0.00142915
0.00145224
0.00144031
0.00136319
0.0013005
0.00126912
0.00129652
0.00152116
0.00489346
0.00158928
0.00156996
0.00154888
0.00152689
0.00150706
0.0014896
0.00147229
0.00145513
0.00144117
0.00143314
0.00143223
0.00143394
0.00141499
0.00136732
0.00131094
0.00127648
0.00130466
0.00153433
0.00115909
0.00161503
0.00160448
0.00158851
0.0015683
0.00154942
0.00153133
0.00151146
0.00149008
0.00147019
0.00145345
0.00143873
0.00142026
0.00139014
0.00135638
0.0013131
0.00127855
0.00129462
0.0014807
0.00115809
0.00165473
0.00164906
0.001637
0.00161936
0.00160145
0.00158256
0.00155995
0.00153483
0.00150943
0.00148451
0.00145867
0.001427
0.00138558
0.00134558
0.0013073
0.00127558
0.0012798
0.0014142
0.00489744
0.00170879
0.00170613
0.00169689
0.00168183
0.00166437
0.00164439
0.00162014
0.00159231
0.00156225
0.0015305
0.0014961
0.0014558
0.00140634
0.00135468
0.00131038
0.00127725
0.00127472
0.00136548
0.00115905
0.00177774
0.00177842
0.00177186
0.001759
0.00174204
0.00172135
0.001696
0.00166606
0.00163228
0.0015951
0.00155414
0.00150771
0.00145359
0.00139416
0.00133882
0.00129851
0.00129239
0.00137161
0.00115689
0.00186246
0.00186738
0.00186432
0.00185414
0.00183842
0.0018177
0.00179158
0.00175998
0.0017233
0.00168198
0.00163611
0.00158527
0.00152876
0.00146706
0.00140514
0.00135795
0.00135189
0.00142892
0.00489389
0.00196533
0.00197529
0.00197678
0.00197028
0.00195683
0.00193699
0.00191071
0.00187801
0.00183922
0.00179483
0.00174538
0.00169137
0.00163352
0.00157286
0.00151275
0.00146745
0.00147308
0.00158478
0.0047911
0.00208968
0.00210563
0.00211268
0.00211087
0.00210076
0.00208282
0.00205721
0.00202412
0.00198396
0.00193738
0.00188527
0.00182885
0.00176992
0.00171094
0.00165657
0.00162072
0.00164281
0.00181006
0.00473552
0.00223927
0.00226242
0.00227612
0.00228002
0.00227433
0.00225934
0.00223531
0.00220259
0.00216172
0.00211354
0.00205928
0.00200075
0.00194057
0.00188265
0.00183373
0.00180894
0.00184843
0.00207321
0.00482909
0.00241842
0.00245026
0.00247189
0.00248269
0.00248253
0.00247155
0.00245002
0.00241838
0.0023773
0.00232782
0.00227148
0.00221057
0.00214844
0.00209027
0.00204491
0.00203046
0.00209323
0.00239876
0.00490558
0.00263229
0.00267464
0.00270577
0.00272483
0.00273144
0.00272557
0.00270742
0.00267748
0.00263652
0.00258575
0.00252698
0.0024629
0.00239751
0.00233709
0.00229245
0.00228538
0.00237135
0.00276023
0.00521959
0.00288714
0.0029422
0.00298473
0.00301369
0.00302847
0.00302886
0.00301498
0.00298729
0.00294662
0.00289431
0.00283239
0.00276388
0.00269336
0.00262807
0.00258058
0.00257611
0.00267825
0.00312708
0.00598098
0.00319059
0.00326099
0.00331723
0.00335805
0.00338261
0.00339054
0.00338184
0.0033569
0.00331657
0.00326226
0.00319616
0.00312158
0.0030436
0.00297033
0.00291599
0.00290913
0.00302188
0.00352613
0.00676713
0.00355191
0.00364082
0.00371351
0.00376848
0.00380471
0.00382162
0.00381909
0.00379741
0.00375739
0.00370047
0.00362894
0.00354635
0.00345822
0.00337354
0.00330818
0.00329422
0.00341265
0.00397005
0.00761948
0.00398235
0.00409351
0.00418588
0.00425772
0.00430779
0.00433535
0.00434011
0.00432225
0.00428251
0.00422228
0.0041439
0.00405113
0.00394991
0.00385017
0.00376961
0.00374427
0.00386552
0.00448198
0.00862489
0.00449557
0.00463339
0.00474921
0.00484106
0.0049075
0.0049476
0.00496093
0.00494756
0.00490809
0.00484384
0.00475713
0.00465188
0.00453445
0.00441585
0.00431584
0.00427503
0.0043975
0.0050826
0.00982246
0.00510808
0.00527771
0.00542137
0.00553683
0.00562249
0.0056773
0.0057007
0.00569263
0.00565355
0.00558464
0.00548816
0.00536811
0.00523136
0.00508986
0.00496575
0.00490513
0.0050269
0.00578819
0.0112072
0.00583987
0.00604732
0.00622383
0.00636698
0.00647507
0.00654702
0.00658221
0.00658047
0.0065421
0.00646812
0.00636066
0.00622369
0.00606437
0.00589573
0.00574253
0.00565714
0.00577515
0.00661837
0.0127983
0.00671522
0.00696741
0.00718241
0.00735776
0.00749182
0.0075836
0.00763254
0.00763843
0.00760146
0.00752242
0.00740314
0.0072474
0.00706255
0.00686259
0.00667505
0.00655917
0.00666909
0.00759772
0.0146071
0.00776365
0.00806842
0.00832818
0.00854061
0.00870441
0.00881892
0.00888382
0.00889902
0.00886459
0.00878104
0.00864979
0.00847422
0.00826158
0.00802666
0.00779974
0.00764745
0.00774449
0.0087622
0.0166709
0.00902115
0.00938727
0.00969854
0.0099532
0.0101506
0.0102909
0.0103742
0.0104007
0.0103706
0.0102839
0.0101416
0.00994649
0.00970525
0.00943312
0.00916298
0.00896952
0.00905135
0.0101734
0.0191535
0.0105318
0.0109689
0.0113388
0.0116408
0.0118756
0.0120445
0.0121487
0.012189
0.0121656
0.0120784
0.0119277
0.0117153
0.011447
0.0111381
0.0108237
0.0105874
0.0106571
0.0119184
0.0222988
0.0123498
0.0128682
0.0133037
0.0136577
0.0139331
0.0141332
0.0142608
0.0143175
0.0143042
0.0142205
0.0140661
0.0138416
0.0135518
0.0132109
0.012856
0.0125805
0.0126481
0.0140997
0.0263179
0.0145424
0.0151525
0.0156598
0.0160693
0.0163875
0.0166205
0.0167734
0.0168495
0.0168503
0.0167758
0.0166252
0.016398
0.0160973
0.0157361
0.0153525
0.01505
0.015134
0.0168381
0.0313779
0.017193
0.0179043
0.0184878
0.0189544
0.0193157
0.0195819
0.0197613
0.0198594
0.0198791
0.0198213
0.019685
0.0194691
0.0191755
0.0188155
0.0184276
0.0181246
0.0182589
0.0202967
0.0377326
0.0204059
0.0212254
0.0218863
0.0224082
0.0228099
0.0231074
0.023313
0.023435
0.0234787
0.0234463
0.0233378
0.0231528
0.022893
0.0225694
0.0222208
0.0219692
0.0222179
0.0247131
0.0458238
0.0243114
0.0252412
0.025975
0.0265454
0.0269811
0.0273048
0.027534
0.0276806
0.0277525
0.0277546
0.0276896
0.0275598
0.0273702
0.0271349
0.0268971
0.0267902
0.027274
0.0304315
0.0563007
0.029073
0.0301057
0.0308995
0.0315047
0.0319624
0.0323036
0.0325509
0.0327202
0.0328228
0.0328673
0.0328612
0.0328132
0.0327374
0.03266
0.0326399
0.0328355
0.0337777
0.0379565
0.0701229
0.034895
0.0360077
0.0368359
0.0374536
0.0379154
0.0382606
0.0385168
0.0387035
0.0388359
0.0389268
0.0389909
0.039048
0.0391297
0.0392901
0.0396306
0.0403738
0.0421758
0.0480527
0.0889058
0.0420296
0.0431753
0.0439968
0.0445943
0.0450358
0.045367
0.0456189
0.0458138
0.0459694
0.0461036
0.0462394
0.0464118
0.0466797
0.0471469
0.0480029
0.0496267
0.0529656
0.0618859
0.115733
0.0507818
0.051881
0.0526365
0.0531718
0.0535632
0.0538586
0.0540894
0.054278
0.0544437
0.0546077
0.0548006
0.0550731
0.0555165
0.0563028
0.0577674
0.0606031
0.0664526
0.0810388
0.156528
0.061507
0.0624431
0.0630584
0.0634839
0.0637931
0.0640291
0.0642191
0.0643827
0.0645376
0.0647056
0.0649201
0.0652405
0.0657817
0.0667775
0.0687306
0.0728019
0.0820113
0.106687
0.2238
0.0745949
0.0752274
0.0756263
0.0758974
0.0760949
0.0762486
0.0763768
0.0764929
0.0766098
0.0767445
0.0769248
0.0772026
0.0776841
0.0786026
0.0805171
0.0849202
0.0964882
0.134805
0.348158
0.0904444
0.0906553
0.0907843
0.0908717
0.0909365
0.0909887
0.0910344
0.0910785
0.0911258
0.0911832
0.0912626
0.0913865
0.0916027
0.0920218
0.0929379
0.0952836
0.102851
0.139078
0.579254
)
;

boundaryField
{
    leftWall
    {
        type            epsilonWallFunction;
        value           nonuniform List<scalar> 
50
(
0.000104377
0.000217828
0.000373425
0.000527092
0.000675525
0.000820198
0.000963544
0.00110771
0.0013333
0.00164193
0.0020938
0.0032458
0.00344234
0.00083532
0.00161276
0.00176623
0.00176569
0.00746659
0.00176698
0.00746631
0.00176567
0.00176932
0.00176795
0.00176441
0.00176499
0.00176471
0.00176715
0.00746825
0.00176721
0.00176492
0.00176445
0.00176658
0.00176572
0.00176605
0.00176632
0.00746897
0.00747894
0.00176928
0.00176659
0.00176715
0.00176785
0.00176571
0.00176663
0.00748163
0.00746886
0.00176649
0.00746488
0.0141187
0.144575
1.53684
)
;
    }
    rightWall
    {
        type            epsilonWallFunction;
        value           nonuniform List<scalar> 
50
(
0.000105842
0.000191022
0.000336635
0.000498818
0.000673749
0.000864798
0.00109696
0.00133594
0.00161603
0.00179656
0.00185524
0.0023664
0.00236781
0.00274351
0.00115828
0.00489346
0.00115909
0.00115809
0.00489744
0.00115905
0.00115689
0.00489389
0.0047911
0.00473552
0.00482909
0.00490558
0.00521959
0.00598098
0.00676713
0.00761948
0.00862489
0.00982246
0.0112072
0.0127983
0.0146071
0.0166709
0.0191535
0.0222988
0.0263179
0.0313779
0.0377326
0.0458238
0.0563007
0.0701229
0.0889058
0.115733
0.156528
0.2238
0.348158
0.579254
)
;
    }
    lowerWall
    {
        type            epsilonWallFunction;
        value           nonuniform List<scalar> 
62
(
0.000104377
0.00058394
0.00104698
0.0014667
0.00184418
0.00218104
0.00247867
0.00273866
0.00296271
0.00315682
0.00332812
0.00348307
0.00362188
0.00372732
0.00375776
0.00364398
0.0033273
0.00292392
0.00243969
0.00196691
0.00153841
0.000959811
0.000321965
0.000321965
0.000506687
0.000850263
0.0012514
0.00174896
0.00244756
0.00366418
0.00630954
0.00721325
0.00576522
0.00562541
0.00670651
0.000523873
0.000558402
0.00072854
0.000919709
0.00120922
0.00171069
0.00276161
0.00523971
0.000523873
0.00172931
0.00275855
0.0032522
0.00351172
0.0036377
0.00364608
0.00360145
0.00339418
0.0030455
0.00259818
0.00208574
0.00174238
0.00168728
0.0015664
0.0013143
0.000884095
0.000503732
0.000105842
)
;
    }
    atmosphere
    {
        type            inletOutlet;
        inletValue      uniform 0.1;
        value           nonuniform List<scalar> 
46
(
0.1
0.123187
0.0162468
0.00597599
0.00415873
0.00377506
0.00384688
0.00416076
0.00466368
0.00535499
0.00626024
0.00742497
0.00891553
0.0108239
0.0132767
0.0164497
0.0205931
0.0260757
0.0334713
0.0437437
0.0586829
0.1
0.1
0.1
0.1
0.1
0.1
0.1
0.1
0.1
0.1
0.1
0.1
0.1
0.1
0.1
0.1
0.1
0.1
0.1
0.1
0.1
0.1
0.1
0.1
0.579254
)
;
    }
    defaultFaces
    {
        type            empty;
    }
}


// ************************************************************************* //
