/*--------------------------------*- C++ -*----------------------------------*\
  =========                 |
  \\      /  F ield         | OpenFOAM: The Open Source CFD Toolbox
   \\    /   O peration     | Website:  https://openfoam.org
    \\  /    A nd           | Version:  9
     \\/     M anipulation  |
\*---------------------------------------------------------------------------*/
FoamFile
{
    format      ascii;
    class       volScalarField;
    location    "8.42";
    object      p_rgh;
}
// * * * * * * * * * * * * * * * * * * * * * * * * * * * * * * * * * * * * * //

dimensions      [1 -1 -2 0 0 0 0];

internalField   nonuniform List<scalar> 
2268
(
758.709
758.694
758.715
758.78
758.891
759.045
759.239
759.468
759.724
760.002
760.295
760.593
760.885
761.156
761.391
761.581
761.73
761.884
761.986
762.089
762.31
762.476
762.528
758.714
758.705
758.728
758.795
758.905
759.057
759.247
759.471
759.724
759.997
760.283
760.572
760.852
761.111
761.338
761.537
761.725
761.927
762.041
762.141
762.375
762.439
762.491
758.713
758.708
758.733
758.803
758.915
759.066
759.254
759.475
759.723
759.992
760.273
760.554
760.826
761.077
761.303
761.511
761.724
761.96
762.113
762.137
762.423
762.41
762.47
758.704
758.699
758.726
758.799
758.912
759.064
759.252
759.472
759.719
759.986
760.264
760.543
760.812
761.064
761.294
761.5
761.699
761.96
762.243
762.184
762.441
762.391
762.47
758.685
758.678
758.705
758.779
758.895
759.05
759.241
759.463
759.711
759.979
760.256
760.536
760.809
761.068
761.312
761.513
761.521
761.943
762.257
762.504
762.459
761.973
762.474
758.656
758.645
758.671
758.747
758.866
759.024
759.22
759.447
759.699
759.969
760.249
760.532
760.813
761.086
761.351
761.572
760.996
761.916
762.216
762.499
762.455
761.415
762.535
758.616
758.601
758.626
758.703
758.825
758.989
759.19
759.424
759.682
759.957
760.24
760.529
760.821
761.114
761.409
761.725
760.826
757.093
759.67
762.493
759.238
760.816
762.69
758.562
758.549
758.574
758.653
758.778
758.947
759.157
759.4
759.666
759.945
760.232
760.526
760.831
761.147
761.479
761.855
761.049
756.286
756.295
757.771
757.242
761.322
762.842
762.574
762.882
763.302
763.374
763.29
763.046
762.645
762.307
761.957
761.574
761.18
760.848
760.715
760.965
760.856
760.876
760.795
760.761
760.826
762.374
762.719
763.178
763.27
763.217
763.048
762.84
762.539
762.213
761.935
761.479
760.913
760.713
761.038
760.905
760.895
760.81
760.67
760.738
761.725
762.489
763.126
763.192
763.149
762.998
762.796
762.525
762.226
762
761.926
761.22
760.746
760.895
760.97
760.937
760.689
760.42
760.516
761.633
762.567
763.186
763.183
763.125
762.97
762.745
762.498
762.173
761.938
761.969
762.053
761.81
761.238
760.883
760.97
760.666
760.388
760.992
761.54
763.047
763.307
763.222
763.136
762.946
762.75
762.526
762.178
761.894
761.929
762.045
761.962
761.55
760.457
760.604
760.515
761.087
761.134
762.88
763.522
763.419
763.278
763.158
763.001
762.823
762.611
762.162
762.014
761.99
762.013
761.923
761.62
760.473
758.624
758.136
761.016
761.147
763.763
763.646
763.497
763.337
763.208
763.038
762.877
762.717
761.379
760.417
761.956
761.986
761.857
760.735
758.99
760.735
757.895
760.605
761.174
763.61
763.669
763.556
763.405
763.261
763.065
762.921
762.841
759.419
756.206
758.897
761.96
761.58
756.748
757.775
761.085
757.618
760.049
761.221
758.482
758.467
758.488
758.563
758.691
758.869
759.094
759.357
759.641
759.929
760.22
760.52
760.845
761.199
761.595
762.058
762.637
761.634
759.166
757.473
761.607
763.658
763.217
744.289
744.625
744.801
744.76
745.171
746.117
747.142
748.074
748.753
748.976
748.872
748.603
749.097
750.126
751.884
754.671
757.135
757.752
757.944
757.755
756.986
756.222
754.827
271.679
270.287
269.463
269.638
269.835
269.668
270.542
272.066
274.248
277.146
280.56
284.032
286.981
289.167
290.944
292.812
296.647
303.132
308.47
310.316
308.596
305.679
303.816
0.770802
0.928318
1.02762
0.995977
1.17111
1.70225
1.52501
1.22916
0.976602
0.792871
0.689674
0.649401
0.60363
0.596556
0.58131
0.561528
0.523512
0.465904
0.412928
0.40664
0.420391
0.434087
0.425224
0.605819
0.936785
1.02512
0.928235
1.09208
1.76437
2.20323
2.38327
2.45957
2.5271
2.52867
2.52906
2.41777
2.37181
2.21285
2.05909
1.77229
1.26471
0.702617
0.704463
0.77886
0.777458
0.623032
0.385558
0.349258
0.274235
0.268738
0.305438
0.0746977
0.0210598
0.0171728
0.0220596
0.0129848
0.00376799
0.0039272
0.00613787
0.00744831
0.00805065
0.00942785
0.0495434
0.238613
0.390602
0.375565
0.36449
0.381928
0.495581
0.0107284
0.0049751
0.0154095
0.006034
0.00463671
0.00470386
0.00387977
0.00320837
0.00283554
0.00267013
0.00289069
0.004618
0.0541122
0.0881483
0.0879984
0.0615749
0.0175811
0.00840561
0.00407447
0.00174419
0.0431232
0.0926596
0.122824
0.00459859
0.00410146
0.00440262
0.00505266
0.00595504
0.00620824
0.00458083
0.00330994
0.00371298
0.00375474
0.00258525
0.00628531
0.0588216
0.0748836
0.0503288
0.0244072
0.0155871
0.00808851
0.00271714
0.0008295
9.3184e-05
-0.000658564
-0.000726045
0.00423145
0.00386311
0.0039628
0.00406854
0.00510895
0.00637972
0.00606452
0.00425806
0.00520169
0.00634763
0.0050053
0.00220836
-0.00048088
-0.0011936
-0.000874945
0.0129962
0.0155095
0.00423544
0.000569676
0.000463593
0.000129159
-0.000179471
-0.000104084
0.0037806
0.00356226
0.00356373
0.00350439
0.003747
0.0061292
0.00558575
0.00299849
0.00637431
0.00632551
0.00488531
0.000838856
4.05989e-05
-0.000387104
-0.00034137
0.000396395
0.00229446
0.0006879
0.000306555
0.000253932
8.56381e-05
-7.8175e-05
-7.2716e-06
0.00339174
0.00326542
0.00325265
0.0031246
0.00297933
0.00326753
0.00301228
0.00243629
0.00549654
0.00637152
0.00254513
0.000762246
0.000280063
0.000219832
0.00131119
0.00154291
0.000386611
0.000180372
0.000163901
0.00010229
-4.34825e-05
-0.00021038
-0.000327055
0.00305995
0.00313898
0.00310243
0.00281747
0.00265584
0.00246146
0.00225301
0.0020734
0.00517192
0.00528427
0.00101212
0.000706661
0.000366308
0.000230527
0.00753024
0.0111349
0.00866823
0.000148695
2.20237e-05
-9.26363e-05
-0.000228019
-0.000452012
-0.000739431
0.00274987
0.00288253
0.00283775
0.00256227
0.00239631
0.002229
0.00237458
0.00464725
0.00477006
0.00196204
0.000917321
0.000653243
0.000371185
0.000251989
0.0077408
0.0115892
0.0116435
0.00943387
-0.00016704
-0.000272302
-0.00042061
-0.000627943
-0.000935397
0.00246201
0.00258537
0.00259562
0.00230981
0.00216223
0.00204843
0.00405153
0.00501777
0.00418016
0.00106144
0.000841036
0.00060437
0.000352407
9.09839e-05
2.53837e-05
0.00695969
0.0120394
0.00889368
-0.000352932
-0.000397813
-0.00051468
-0.000682295
-0.000937947
0.00221063
0.00220106
0.00221939
0.00207432
0.00195201
0.00184697
0.00443747
0.00500795
0.00271483
0.000972997
0.000777624
0.000566412
0.000343309
0.000111244
-0.000132644
-8.4792e-05
0.000649075
0.000555696
-0.000385741
-0.000457813
-0.000535709
-0.000677826
-0.000868951
0.00199347
0.00198283
0.0019452
0.00187388
0.00176653
0.00166671
0.00266581
0.00318248
0.00107913
0.000899638
0.000726631
0.000539856
0.000344487
0.000145468
-5.70703e-05
-0.000244681
-0.000375375
-0.000422488
-0.000419007
-0.000441285
-0.0005161
-0.000636674
-0.000797629
0.00180573
0.00180243
0.00176786
0.00170171
0.00160864
0.00150966
0.0013025
0.00113446
0.000991163
0.000843646
0.00068653
0.000520669
0.000350341
0.000179924
1.25593e-05
-0.000139703
-0.000255966
-0.000326668
-0.000371478
-0.000424927
-0.000500146
-0.000596667
-0.000700355
0.00189932
0.00191823
0.00160455
0.00154522
0.00146714
0.00136795
0.00120964
0.00106829
0.000932509
0.000795441
0.000652847
0.000505587
0.000356742
0.000209421
6.738e-05
-6.20525e-05
-0.000168605
-0.000248469
-0.000312126
-0.000377672
-0.000450141
-0.000528045
-0.000606737
0.00223978
0.00223821
0.00145114
0.00140097
0.00133372
0.00123613
0.00111795
0.000997346
0.000875389
0.000750823
0.000622756
0.00049229
0.000361454
0.000232802
0.000109593
-3.57994e-06
-0.000101573
-0.000182883
-0.000252756
-0.000319813
-0.000387393
-0.000454914
-0.000519039
0.00212442
0.00178182
0.00130712
0.00126847
0.0012093
0.00112547
0.00103068
0.000927315
0.000819619
0.000708463
0.000594478
0.000478912
0.000363471
0.000250275
0.000141861
4.12108e-05
-4.89071e-05
-0.000127808
-0.000198051
-0.000263717
-0.000326708
-0.000386581
-0.000441001
0.00203054
0.00123922
0.00118075
0.00114896
0.0010974
0.00102911
0.000949132
0.000860384
0.0007661
0.000667898
0.000566985
0.000464712
0.000362636
0.000262516
0.000166287
7.59667e-05
-6.78082e-06
-8.14993e-05
-0.000149345
-0.000212189
-0.000270955
-0.000325196
-0.000373279
0.00195749
0.00108388
0.00106872
0.00104153
0.000998307
0.00094157
0.000873783
0.000797596
0.000715501
0.000629215
0.000540174
0.000449739
0.000359331
0.000270431
0.000184548
0.000103124
2.72855e-05
-4.25488e-05
-0.00010679
-0.00016621
-0.000221133
-0.00027112
-0.000315006
0.00189567
0.00156294
0.000965503
0.000943871
0.000909011
0.000861942
0.000804715
0.00073946
0.000668224
0.000592689
0.000514267
0.000434322
0.00035415
0.000274998
0.000198081
0.000124499
5.5099e-05
-9.69475e-06
-6.9903e-05
-0.00012574
-0.00017721
-0.000223887
-0.00026492
0.00185003
0.00180571
0.000868129
0.000854593
0.000828019
0.000789801
0.000741894
0.000686193
0.000624537
0.000558531
0.000489577
0.000418847
0.000347686
0.000277081
0.000208045
0.000141463
7.80197e-05
1.81418e-05
-3.79968e-05
-9.0334e-05
-0.000138712
-0.000182732
-0.000221756
0.00177535
0.00175628
0.000785097
0.000775588
0.000755775
0.00072522
0.000685367
0.000637915
0.000584591
0.00052692
0.000466239
0.000403716
0.000340446
0.000277362
0.000215309
0.000155012
9.70484e-05
4.18259e-05
-1.03961e-05
-5.9428e-05
-0.000105039
-0.00014687
-0.000184423
0.00171782
0.00120265
0.000710671
0.0007065
0.000692544
0.000668327
0.000635182
0.000594669
0.000548438
0.000497948
0.000444464
0.000389082
0.000332761
0.000276327
0.000220491
0.000165856
0.000112911
6.20277e-05
1.34871e-05
-3.24746e-05
-7.56052e-05
-0.000115584
-0.000152014
0.00118566
0.00064005
0.000648461
0.000648445
0.000638662
0.000619155
0.00059127
0.000556372
0.000516014
0.000471585
0.000424271
0.000375077
0.00032485
0.000274299
0.000224017
0.000174497
0.00012614
7.92702e-05
3.41519e-05
-8.97719e-06
-4.98718e-05
-8.82463e-05
-0.00012378
0.000563504
0.000594799
0.000600032
0.000600681
0.000593496
0.000577299
0.00055331
0.000522752
0.000487102
0.000447676
0.000405579
0.000361717
0.000316822
0.000271484
0.00022618
0.000181293
0.000137139
9.39762e-05
5.20301e-05
1.1515e-05
-2.73449e-05
-6.4299e-05
-9.90794e-05
0.000540381
0.000537829
0.000553438
0.000559647
0.00055557
0.000541979
0.00052074
0.000493353
0.000461327
0.00042594
0.000388203
0.000348914
0.000308688
0.00026799
0.000227173
0.000186511
0.000146225
0.000106499
6.75033e-05
2.94137e-05
-7.57538e-06
-4.32427e-05
-7.73546e-05
0.00052555
0.000484534
0.000512932
0.000525897
0.000524646
0.000512636
0.000492936
0.000467576
0.000438173
0.000405963
0.000371845
0.000336486
0.000300375
0.000263842
0.000227109
0.000190338
0.000153647
0.000117137
8.09102e-05
4.50927e-05
9.84514e-06
-2.46344e-05
-5.81276e-05
0.000489171
0.000451922
0.00048492
0.000501318
0.000501134
0.000488878
0.000469165
0.00044465
0.000416962
0.000387195
0.00035609
0.000324151
0.000291721
0.000258983
0.000226025
0.000192891
0.000159591
0.000126134
9.25431e-05
5.88841e-05
2.52792e-05
-8.08958e-06
-4.09968e-05
0.000431855
0.000438178
0.000468678
0.000487075
0.000485298
0.000469946
0.000448367
0.000423543
0.000396808
0.000368936
0.000340411
0.000311537
0.000282483
0.00025328
0.000223883
0.000194215
0.000164179
0.000133678
0.000102646
7.10755e-05
3.90417e-05
6.71655e-06
-2.56391e-05
0.000390976
0.000417216
0.0004598
0.000485841
0.000476302
0.000453942
0.00042866
0.000402757
0.000376577
0.00035034
0.000324192
0.000298197
0.000272347
0.000246527
0.00022057
0.000194285
0.000167464
0.000139899
0.000111416
8.19138e-05
5.14059e-05
2.00543e-05
-1.18068e-05
0.000355873
0.000478894
0.00105083
0.00282101
0.000558931
0.000441499
0.000406563
0.000380055
0.000354839
0.00033045
0.000306756
0.00028364
0.000260955
0.000238467
0.000215913
0.000193007
0.000169434
0.000144867
0.000119004
9.16165e-05
6.26194e-05
3.21525e-05
6.78592e-07
0.000310228
0.000846544
0.00422161
0.00439892
0.0034517
0.000582482
0.000377759
0.000353205
0.000330259
0.000308407
0.000287508
0.000267423
0.000247958
0.000228819
0.000209693
0.000190225
0.00017001
0.000148597
0.000125528
0.000100393
7.29359e-05
4.32225e-05
1.19331e-05
0.00030795
0.000857278
0.00445712
0.00445486
0.00439931
0.000574039
0.000342318
0.00032215
0.000302605
0.000283925
0.000266156
0.000249268
0.000233084
0.000217325
0.000201671
0.000185738
0.000169054
0.000151052
0.000131086
0.000108486
8.26789e-05
5.35048e-05
2.20155e-05
0.00035053
0.000509578
0.00305764
0.00451574
0.00199944
0.000378256
0.000305525
0.000289016
0.000272762
0.000257289
0.000242715
0.000229054
0.000216146
0.000203753
0.000191588
0.000179276
0.000166328
0.000152089
0.00013571
0.000116161
9.22904e-05
6.33094e-05
3.09136e-05
0.000405032
0.000461793
0.000496003
0.00103552
0.000341186
0.000288573
0.000270075
0.000254875
0.000241078
0.000228493
0.000216996
0.000206476
0.000196753
0.000187633
0.000178886
0.00017021
0.000161167
0.000151089
0.00013897
0.000123354
0.000102122
7.28563e-05
3.83907e-05
0.000516707
0.000521977
0.000416912
0.000332836
0.00028142
0.000251649
0.000232153
0.000217857
0.000206439
0.000196769
0.000188343
0.000180882
0.000174198
0.000168157
0.000162629
0.000157443
0.000152318
0.000146712
0.000139656
0.00012947
0.000112596
8.21858e-05
4.35391e-05
0.000608972
0.000552894
0.000399216
0.000298118
0.000238469
0.000206652
0.000189365
0.000178666
0.000170983
0.000164879
0.000159753
0.00015534
0.000151537
0.000148316
0.000145685
0.000143672
0.000142251
0.000141205
0.000140119
0.000138253
0.000130213
9.50069e-05
4.50518e-05
0.000727167
0.000504657
0.000333135
0.000240362
0.000186269
0.000163296
0.000155472
0.000152061
0.000149717
0.000147747
0.000146011
0.000144519
0.000143344
0.000142604
0.000142468
0.00014319
0.000145068
0.000148396
0.000154205
0.000165809
0.000178148
0.000129183
4.4591e-05
0.000576145
7.74236e-05
0.000141962
0.000130522
0.00011939
0.000118461
0.0001214
0.000123497
0.000124437
0.000124798
0.000124963
0.000125123
0.000125417
0.000125999
0.000127088
0.000129021
0.000132267
0.000137519
0.000147206
0.000170145
0.000213615
0.000181164
4.81112e-05
764.295
764.205
764.314
764.348
756.353
756.666
756.796
756.626
305.89
306.44
306.523
306.106
0.400028
0.396188
0.404256
0.414112
0.422976
0.444929
0.607327
0.610139
0.217139
0.135011
0.346014
0.55952
0.16452
0.104109
0.134732
0.107453
0.000363416
0.00364489
0.000897949
0.000834325
0.000565052
0.00119669
0.00465295
0.00598525
0.00126969
0.0156791
0.0358507
0.035985
0.0199193
0.0372452
0.0372837
0.0373524
-0.00105725
0.00950056
0.0361744
0.0386283
-0.00132006
-0.00160653
-0.00188987
-0.000768432
-0.00118855
-0.00135201
-0.00151826
-0.00164684
-0.000986679
-0.00107186
-0.00115676
-0.0012256
-0.000907442
-0.000967143
-0.00100482
-0.000936374
-0.00077759
-0.000821437
-0.000856587
-0.000884464
-0.000661634
-0.000692413
-0.000718344
-0.000740902
-0.000560804
-0.000584439
-0.000605066
-0.000623239
-0.000475091
-0.000494674
-0.00051226
-0.000528036
-0.000402863
-0.000420137
-0.00043603
-0.000450551
-0.000341964
-0.000357967
-0.000372974
-0.00038692
-0.000290358
-0.000305707
-0.00032032
-0.000334103
-0.000246333
-0.000261394
-0.000275911
-0.000289772
-0.000208538
-0.000223517
-0.000238098
-0.000252156
-0.000175911
-0.000190913
-0.000205621
-0.000219904
-0.000147595
-0.000162656
-0.00017749
-0.00019197
-0.000122873
-0.000137988
-0.000152911
-0.00016753
-0.000101139
-0.000116279
-0.00013124
-0.000145937
-8.18787e-05
-9.70094e-05
-0.000111961
-0.000126681
-6.46769e-05
-7.97657e-05
-9.46705e-05
-0.000109374
-4.92129e-05
-6.42369e-05
-7.90726e-05
-9.37337e-05
-3.52575e-05
-5.02085e-05
-6.49666e-05
-7.95703e-05
-2.26662e-05
-3.75546e-05
-5.22398e-05
-6.67763e-05
-1.13749e-05
-2.62349e-05
-4.08627e-05
-5.53183e-05
-1.40639e-06
-1.63007e-05
-3.08924e-05
-4.52351e-05
7.10617e-06
-7.91839e-06
-2.24868e-05
-3.66379e-05
1.38402e-05
-1.41167e-06
-1.59187e-05
-2.9697e-05
1.8015e-05
2.62875e-06
-1.15732e-05
-2.45781e-05
1.80253e-05
3.22417e-06
-9.812e-06
-2.12203e-05
1.16041e-05
-1.76187e-06
-1.16977e-05
-1.95227e-05
1.49548e-05
3.30393e-06
-4.97555e-06
-1.07683e-05
763.889
763.796
763.655
763.523
762.976
761.383
761.067
761.736
761.976
754.924
752.879
752.662
752.549
754.025
761.501
761.172
759.76
759.228
760.961
755.571
754.69
753.459
751.911
750.549
749.518
748.076
747.789
753.434
755.626
755.791
755.768
755.731
755.605
755.3
751.847
751.115
747.075
745.664
304.641
305.166
306.167
307.594
309.276
310.984
311.995
311.255
308.49
310.771
311.121
309.223
307.163
303.434
296.819
296.434
298.177
301.162
303.68
0.427564
0.449415
0.475441
0.477795
0.472407
0.468139
0.465721
0.467191
0.468825
0.49902
0.521268
0.570372
0.341077
0.62497
0.836067
0.855743
0.858968
0.822038
0.813042
0.515523
0.777483
1.09455
1.09668
1.08077
1.09914
1.1057
1.10363
1.10058
1.0957
1.05231
0.716396
0.347526
0.719547
0.826203
0.818055
0.821024
0.815579
0.707867
0.542651
0.404678
0.370978
0.37305
0.316154
0.253807
0.218756
0.203536
0.180027
0.0906052
0.0243739
0.0516543
0.181079
0.20523
0.238385
0.286605
0.298215
0.319243
0.351459
0.0722826
0.0631906
0.00332081
0.00354634
0.00531612
0.00757219
0.00958256
0.0100242
0.0108485
0.015555
0.0290964
0.0294917
0.0427887
0.017642
0.008279
0.0068763
0.00626348
0.00564071
0.00587343
0.000985211
0.00165327
0.0025646
0.00327488
0.0101697
0.0478549
0.0610035
0.0438505
0.0358618
0.0640924
0.0810022
0.0816527
0.0770166
0.0207272
0.00702521
0.00615439
0.0056415
0.00534781
0.00564039
0.00464014
0.00188296
0.00213057
0.00238385
0.0391153
0.0715995
0.0714151
0.0718374
0.070222
0.0643981
0.0784218
0.0825552
0.082156
0.0150054
0.00601657
0.00556571
0.00525577
0.00511214
0.00533411
0.0362167
0.00896404
0.00168482
0.00150812
0.026282
0.0447941
0.0109465
0.000341045
0.000801299
0.00115941
0.00406367
0.031341
0.0435464
0.0249538
0.00785929
0.00512272
0.00499502
0.00494417
0.00500851
0.0375278
0.0381985
0.018609
0.00113681
0.000276149
-0.000847594
-0.000392302
0.000918422
0.00173849
0.000960624
0.00113972
0.00298973
0.0197689
0.0270411
0.00807821
0.00484244
0.00483691
0.00482205
0.00475738
0.0386685
0.0391007
0.0313988
-6.62871e-05
-0.000451486
-0.000544713
0.000454715
0.00161138
0.00191508
0.000878134
0.0010317
0.00520163
0.0143694
0.0280638
0.00440734
0.00471874
0.00476181
0.00475203
0.00461905
0.00583433
0.0115185
-0.000627829
-0.000734834
-0.000546701
-0.000431141
-0.000126819
0.000169485
0.00031606
0.000588765
0.000815355
0.00101712
0.00752744
0.0209019
0.0218346
0.0105392
0.00471237
0.00477151
0.00451486
-0.00182111
-0.00170419
-0.00123711
-0.000800322
-0.000568406
-0.000409974
-0.000211023
2.1564e-05
0.000257141
0.000483381
0.000686892
0.000872
0.0088723
0.0194126
0.022146
0.0211646
0.00494927
0.00478773
0.00435892
-0.00127891
-0.0011434
-0.000965169
-0.000755367
-0.0005523
-0.000384049
-0.000199201
-2.8146e-06
0.000193363
0.00038148
0.00055265
0.000698832
0.000802402
0.00107079
0.00491189
0.00413771
0.0125952
0.0209066
0.0215547
-0.000635466
-0.000476026
-0.000302828
-0.000497551
-0.000506258
-0.000363438
-0.000200996
-3.14157e-05
0.000132804
0.000281304
0.000420538
0.000543632
0.000660601
0.000836979
0.00111082
0.00353012
0.0292773
0.0316167
0.0310727
-0.000670976
-0.000270766
-0.000154108
-6.11239e-06
-0.000181273
-0.000349957
-0.000194533
2.3769e-05
0.000161426
0.000195717
0.000287417
0.000379885
0.000459004
0.000543099
0.000620477
0.00372337
0.0257293
0.0289038
0.0130739
-0.000773886
-0.000627414
-0.000117252
7.41023e-05
-5.26273e-05
-0.000343447
-0.000184981
5.27178e-05
0.000157863
0.000210827
0.000159168
0.000218386
0.000254438
0.0002642
0.000220032
0.000137838
-0.000291068
-0.000541823
-0.000528812
-0.000649174
-0.000638906
-0.000594125
-0.000454858
-0.000403011
-0.000332855
-0.000202947
1.54048e-05
9.6424e-05
0.00015634
6.131e-05
7.27308e-05
7.74212e-05
4.65757e-05
-3.98567e-05
-0.000215299
-0.000465808
-0.000604144
-0.000586276
-0.000550518
-0.000547368
-0.000518272
-0.000468511
-0.00040487
-0.000335474
-0.000264717
-0.000168848
-5.55842e-05
-6.06103e-05
-6.13771e-05
-5.14969e-05
-6.64972e-05
-0.000114775
-0.000206034
-0.000345119
-0.000507718
-0.000616413
-0.000569426
-0.000471459
-0.000474472
-0.000457839
-0.000424995
-0.00038095
-0.000331542
-0.000282159
-0.000236457
-0.000197008
-0.00016684
-0.000150874
-0.000154163
-0.000180465
-0.000233479
-0.000314701
-0.000417165
-0.000510253
-0.000577084
-0.000494157
-0.000407373
-0.000415759
-0.000409081
-0.000389758
-0.000361421
-0.000328474
-0.000295215
-0.000265072
-0.000240913
-0.00022586
-0.000223552
-0.000237524
-0.000270109
-0.000321975
-0.000390146
-0.00046357
-0.000509828
-0.000530302
0.00170061
-0.000354748
-0.00036782
-0.000369239
-0.000360804
-0.000345225
-0.000325892
-0.000306268
-0.000289429
-0.000278128
-0.000275113
-0.000283158
-0.000304603
-0.000340553
-0.000390153
-0.000449008
-0.000504566
-0.000532212
-0.00053295
0.00664405
-0.000310945
-0.000328089
-0.000336177
-0.000336603
-0.000331448
-0.000323369
-0.000315173
-0.000309515
-0.000308837
-0.000315434
-0.000331376
-0.000358146
-0.000396068
-0.000443718
-0.000496766
-0.000545525
-0.000573041
-0.000570891
0.00684829
-0.00027399
-0.000294643
-0.000308257
-0.000315944
-0.00031934
-0.000320554
-0.000321868
-0.000325507
-0.000333528
-0.000347768
-0.000369713
-0.000400221
-0.000439135
-0.000484895
-0.000534063
-0.000580636
-0.000613719
-0.000613546
0.00706773
-0.000242398
-0.00026604
-0.000284235
-0.00029789
-0.000308309
-0.000317186
-0.000326369
-0.00033768
-0.000352775
-0.000373057
-0.000399497
-0.000432442
-0.000471343
-0.000514565
-0.000559471
-0.000602948
-0.000638774
-0.000641936
0.00727961
-0.000215044
-0.000241195
-0.000263174
-0.000281725
-0.000297906
-0.000313079
-0.000328739
-0.000346344
-0.000367177
-0.000392216
-0.000421968
-0.000456263
-0.000494056
-0.000533294
-0.000571166
-0.000604803
-0.000628825
-0.000621311
0.00188911
-0.000191071
-0.000219291
-0.000244368
-0.000266911
-0.000287789
-0.000308108
-0.000329071
-0.000351824
-0.000377319
-0.000406155
-0.000438393
-0.000473327
-0.00050924
-0.000543179
-0.000570821
-0.000586119
-0.000579399
-0.000537416
-0.000441596
-0.000169824
-0.000199716
-0.000227288
-0.000253043
-0.000277703
-0.000302182
-0.000327453
-0.000354416
-0.000383751
-0.000415748
-0.000450091
-0.000485583
-0.00051982
-0.000548802
-0.000566204
-0.000561591
-0.000519648
-0.000438776
-7.70301e-05
-0.00015081
-0.000182008
-0.000211536
-0.00023981
-0.000267448
-0.000295223
-0.000323948
-0.000354348
-0.000386918
-0.000421738
-0.000458243
-0.000494909
-0.000528872
-0.000555444
-0.000567085
-0.000551023
-0.000489891
-0.000390455
0.00676534
-0.00013366
-0.000165828
-0.000196814
-0.000226971
-0.000256851
-0.000287141
-0.00031856
-0.00035174
-0.000387084
-0.000424592
-0.000463613
-0.000502528
-0.000538349
-0.000566251
-0.000578667
-0.000563291
-0.000504186
-0.000408243
0.00958688
-0.000118108
-0.000150924
-0.00018289
-0.000214322
-0.000245744
-0.00027781
-0.00031121
-0.000346561
-0.00038428
-0.00042441
-0.000466386
-0.000508708
-0.000548549
-0.000581321
-0.000599992
-0.000593592
-0.000547135
-0.000458061
0.00981832
-0.000103971
-0.000137113
-0.000169578
-0.000201677
-0.000233944
-0.000267052
-0.000301719
-0.000338623
-0.000378283
-0.000420911
-0.000466175
-0.00051288
-0.000558588
-0.000599162
-0.000628034
-0.000635071
-0.000603709
-0.000516068
0.00993063
-9.11337e-05
-0.000124255
-0.000156709
-0.000188841
-0.000221234
-0.000254622
-0.000289803
-0.000327571
-0.00036863
-0.00041346
-0.000462109
-0.000513876
-0.000566942
-0.000617769
-0.000660094
-0.000684157
-0.00067037
-0.000582775
0.0101671
-7.95329e-05
-0.000112235
-0.000144109
-0.000175587
-0.000207344
-0.000240203
-0.000275074
-0.000312906
-0.00035464
-0.000401111
-0.000452884
-0.000509954
-0.000571343
-0.000634272
-0.00069289
-0.000736597
-0.000742963
-0.000658024
0.0103836
-6.91389e-05
-0.000100927
-0.000131563
-0.000161631
-0.000191932
-0.000223399
-0.000257055
-0.000294011
-0.000335463
-0.000382655
-0.000436778
-0.000498722
-0.000568604
-0.000644778
-0.000721816
-0.000781091
-0.000804962
-0.000721646
0.00569943
-5.99276e-05
-9.01565e-05
-0.000118775
-0.0001466
-0.000174583
-0.00020375
-0.000235212
-0.000270208
-0.000310162
-0.000356728
-0.0004118
-0.0004774
-0.000555033
-0.00064485
-0.000742675
-0.000812033
-0.000851495
-0.000763407
0.000946989
-5.18249e-05
-7.96284e-05
-0.000105315
-0.00013001
-0.000154802
-0.000180762
-0.000209017
-0.000240852
-0.000277835
-0.00032196
-0.000375805
-0.000442621
-0.000526001
-0.000628966
-0.000751267
-0.000850356
-0.000927237
-0.000829846
0.00226331
-4.45983e-05
-6.88046e-05
-9.05235e-05
-0.000111197
-0.000131981
-0.000153883
-0.000177933
-0.000205336
-0.000237641
-0.000276985
-0.00032643
-0.000390379
-0.000474869
-0.000587524
-0.000737387
-0.000908112
-0.00105897
-0.000963361
0.00363091
-3.7628e-05
-5.66809e-05
-7.33329e-05
-8.91771e-05
-0.000105256
-0.000122359
-0.000141272
-0.000162942
-0.000188664
-0.000220364
-0.000261073
-0.000315692
-0.000391985
-0.000502391
-0.000670826
-0.000936683
-0.00126046
-0.00122341
0.00342099
-2.95218e-05
-4.17444e-05
-5.25324e-05
-6.30859e-05
-7.40746e-05
-8.59096e-05
-9.89905e-05
-0.000113832
-0.000131199
-0.000152334
-0.000179407
-0.000216371
-0.000270393
-0.000355282
-0.000508067
-0.000832734
-0.0014239
-0.00161596
0.00277381
-1.67866e-05
-2.32936e-05
-2.92052e-05
-3.53981e-05
-4.20834e-05
-4.92892e-05
-5.70221e-05
-6.53204e-05
-7.43059e-05
-8.42829e-05
-9.59807e-05
-0.000111168
-0.000134058
-0.000174601
-0.000261741
-0.000500069
-0.00116158
-0.00189565
0.00145024
)
;

boundaryField
{
    leftWall
    {
        type            fixedFluxPressure;
        gradient        uniform 0;
        value           nonuniform List<scalar> 
50
(
758.709
758.714
758.713
758.704
758.685
758.656
758.616
758.562
758.482
744.289
271.679
0.770802
0.605819
0.385558
0.0107284
0.00459859
0.00423145
0.0037806
0.00339174
0.00305995
0.00274987
0.00246201
0.00221063
0.00199347
0.00180573
0.00189932
0.00223978
0.00212442
0.00203054
0.00195749
0.00189567
0.00185003
0.00177535
0.00171782
0.00118566
0.000563504
0.000540381
0.00052555
0.000489171
0.000431855
0.000390976
0.000355873
0.000310228
0.00030795
0.00035053
0.000405032
0.000516707
0.000608972
0.000727167
0.000576145
)
;
    }
    rightWall
    {
        type            fixedFluxPressure;
        gradient        uniform 0;
        value           nonuniform List<scalar> 
50
(
760.826
760.738
760.516
760.992
761.134
761.147
761.174
761.221
760.961
745.664
303.68
0.813042
0.707867
0.351459
0.00587343
0.00564039
0.00533411
0.00500851
0.00475738
0.00461905
0.00451486
0.00435892
0.0215547
0.0310727
0.0130739
-0.000528812
-0.000586276
-0.000569426
-0.000494157
0.00170061
0.00664405
0.00684829
0.00706773
0.00727961
0.00188911
-0.000441596
-7.70301e-05
0.00676534
0.00958688
0.00981832
0.00993063
0.0101671
0.0103836
0.00569943
0.000946989
0.00226331
0.00363091
0.00342099
0.00277381
0.00145024
)
;
    }
    lowerWall
    {
        type            fixedFluxPressure;
        gradient        uniform 0;
        value           nonuniform List<scalar> 
62
(
758.709
758.694
758.715
758.78
758.891
759.045
759.239
759.468
759.724
760.002
760.295
760.593
760.885
761.156
761.391
761.581
761.73
761.884
761.986
762.089
762.31
762.476
762.528
762.528
762.491
762.47
762.47
762.474
762.535
762.69
762.842
764.295
764.205
764.314
764.348
762.574
762.374
761.725
761.633
761.54
762.88
763.763
763.61
762.574
762.882
763.302
763.374
763.29
763.046
762.645
762.307
761.957
761.574
761.18
760.848
760.715
760.965
760.856
760.876
760.795
760.761
760.826
)
;
    }
    atmosphere
    {
        type            totalPressure;
        rho             rho;
        psi             none;
        gamma           1;
        p0              uniform 0;
        value           nonuniform List<scalar> 
46
(
-5.88114e-05
0
0
0
0
0
0
0
0
0
0
0
0
0
0
0
0
0
0
0
0
-7.87927e-08
-8.66546e-07
-1.97516e-06
-2.91504e-06
-4.0226e-06
-5.28869e-06
-7.75502e-06
-1.18335e-05
-1.65514e-05
-2.17959e-05
-2.74493e-05
-3.33872e-05
-3.94758e-05
-4.55702e-05
-5.1511e-05
-5.712e-05
-6.21945e-05
-6.64955e-05
-6.97226e-05
-7.14531e-05
-7.09854e-05
-6.68882e-05
-5.58006e-05
-2.72755e-05
0
)
;
    }
    defaultFaces
    {
        type            empty;
    }
}


// ************************************************************************* //
