/*--------------------------------*- C++ -*----------------------------------*\
  =========                 |
  \\      /  F ield         | OpenFOAM: The Open Source CFD Toolbox
   \\    /   O peration     | Website:  https://openfoam.org
    \\  /    A nd           | Version:  9
     \\/     M anipulation  |
\*---------------------------------------------------------------------------*/
FoamFile
{
    format      ascii;
    class       surfaceScalarField;
    location    "15";
    object      phi;
}
// * * * * * * * * * * * * * * * * * * * * * * * * * * * * * * * * * * * * * //

dimensions      [0 3 -1 0 0 0 0];

internalField   nonuniform List<scalar> 
1300
(
11.2529
1.87548
-4.30873
11.2529
-4.9004
1.87548
-4.19669
4.19669
-1.19604
1.19604
5.71232
5.54054
-2.38137
2.38137
-2.85396
2.85396
-2.86274
2.86274
-1.06194
1.06194
-1.02828
1.02828
0.695865
-0.695865
-3.36218
3.36218
-1.46134
1.46134
-2.89504
2.89504
6.12815
-6.12815
-3.31823
3.31823
-0.749813
0.749813
-4.26323
15.5161
6.98963
6.98963
-2.3752
2.3752
-1.2544
1.2544
1.41034
-1.41034
9.29779
-9.29779
-4.98906
-6.01645
1.87051
-13.7943
-3.02989
-3.02989
-2.7054
2.7054
-0.829928
1.04555
3.47614
-3.47614
-0.766437
0.766437
-4.27706
0.0803715
-4.27706
3.98712
0.20957
3.98712
-1.33722
0.141178
-1.33722
4.63689
-4.63689
1.08489
0.111156
1.08489
3.9279
-3.9279
-5.71004
11.4224
5.54282
-5.32062
20.8367
-5.93224
11.4728
-3.92461
3.92461
-2.2938
-0.08757
-2.2938
2.38871
-0.00734908
2.38871
-3.97978
3.97978
-2.63613
-0.217834
-2.63613
2.96359
-0.109626
2.96359
3.66374
-3.66374
-2.91815
0.0554114
-2.91815
2.71143
0.151307
2.71143
0.771042
1.10443
-2.64652
3.69207
-1.10443
0.0424987
1.02614
0.0357986
1.02614
-1.01454
-0.0137375
-1.01454
1.04989
-0.0216163
1.04989
0.735007
-0.0391417
0.735007
-0.756073
0.060208
-0.756073
-8.53855
-8.95238
-3.49138
0.129194
-3.49138
-1.47858
0.0172448
-1.47858
1.49849
-0.0371492
1.49849
-2.55727
2.55727
-3.22748
0.332442
-3.22748
4.80647
1.32169
4.80647
5.04613
6.20673
16.299
-16.299
10.1708
-3.03016
-0.288068
-3.03016
-3.49744
-5.80035
3.49744
-0.179211
-0.812659
0.0628453
-0.812659
5.62652
1.36311
5.62652
2.58991
0.121523
-2.58991
0.214709
4.61601
-4.61601
1.42578
0.94942
1.42578
-1.19138
1.19138
1.12354
-0.0736444
-1.12354
-0.130866
1.38601
0.0243338
1.38601
-1.40975
-0.000595495
-1.40975
7.39356
-13.41
-7.87493
3.17218
0.190005
-3.17218
0.14229
3.56256
-0.0864165
3.56256
-3.31034
3.31034
-3.6105
0.134355
-3.6105
-0.690064
-0.0763733
-0.690064
0.852844
-0.0864067
0.852844
-4.52413
0.247063
-4.52413
-3.65976
0.432278
3.65976
0.32736
1.26817
-1.26817
-1.4441
0.106875
-1.4441
-4.61225
0.0881195
4.61225
0.0246401
-4.73739
0.100502
-4.73739
-3.7122
0.101697
3.7122
0.215701
4.58922
1.0373
-4.58922
0.661325
-5.3695
11.5762
-5.88336
11.4262
-3.54847
-0.376145
-3.54847
4.10817
-0.183555
4.10817
2.56496
0.33008
-2.56496
0.271166
2.52123
-0.132514
2.52123
-3.93556
-0.0442219
-3.93556
3.77727
0.20251
3.77727
2.56719
-0.0459632
-2.56719
-0.0689353
2.94673
0.0168549
2.94673
3.66884
-0.00510576
3.66884
-3.53755
-0.126191
-3.53755
3.18017
-3.18017
3.08218
0.0979927
-3.08218
0.164028
-5.07402
5.07343
-0.00799936
-5.06602
1.01814
1.01814
0.776813
-0.0418059
0.776813
-0.861919
0.105845
-0.861919
8.34846
-16.2234
8.82099
-17.3595
7.46036
-21.2546
7.99714
-16.9495
3.7823
-3.7823
3.71094
0.0713538
-3.71094
0.219566
-1.45967
-0.0189155
-1.45967
-2.31803
-0.239239
-2.31803
2.89287
-0.335598
2.89287
-3.74243
3.74243
-4.12498
0.382552
4.12498
0.681486
3.01304
-0.0663066
-3.01304
-0.017125
0.932533
0.152355
-0.932533
0.119874
4.84882
-0.232806
4.84882
-4.07803
-0.537985
-4.07803
-1.47789
0.0182212
1.47789
-0.0521065
-1.25889
0.067509
-1.25889
-5.0745
0.00847754
-5.0387
-1.40127
-1.40127
1.30414
4.9962
-3.58422
0.0466761
3.58422
-0.0216603
3.52753
0.214901
-3.52753
0.217184
-3.2642
0.0840244
3.2642
0.0461467
-0.667139
-0.0229246
-0.667139
-1.04824
1.04824
-0.929521
-0.118722
0.929521
-0.0766769
1.42548
-0.157313
1.42548
1.47721
0.0212726
-1.47721
0.0331164
-4.98267
0.245277
-4.98267
4.1111
-0.00293499
4.1111
-3.94402
-0.134005
3.94402
-0.275181
-0.00372242
5.07715
-1.01442
-0.000122795
1.01442
-5.10148
5.10136
-0.67232
0.00518091
0.67232
0.104493
1.02947
0.161909
-1.02947
0.167555
3.81094
-0.0336685
-3.81094
0.0286394
-2.03352
-0.284512
-2.03352
-3.21955
-0.328913
3.21955
-0.326685
-5.11514
-0.0779789
5.19312
-5.13676
1.33687
0.0491359
-1.33687
5.1505
-1.15947
-0.108693
1.15947
-0.111231
1.62706
-0.201582
1.62706
5.09928
-0.250464
-5.09928
0.116617
-4.11689
0.181332
4.11689
-0.00578848
-1.7999
-0.233614
1.7999
-0.172842
-13.128
14.4911
7.70871
-6.36485
-7.04516
-12.1652
4.44717
7.12906
14.618
-11.6247
-9.62991
-11.4824
2.86028
-2.69272
-3.74702
3.70787
23.4844
-23.3839
-18.3995
19.081
20.7765
-20.5608
5.70874
5.71363
15.8008
-15.8884
-21.026
20.6499
15.5005
-15.7183
22.0021
-22.0463
-25.659
25.6253
-16.1027
16.1581
-20.2868
20.1606
-21.0436
20.7684
-8.2875
-9.07203
16.3054
-16.1762
20.2919
-20.58
-19.2276
19.56
10.0474
4.4437
11.0847
-6.24679
11.9555
-5.22599
12.9347
8.37349
-16.661
7.8499
-14.8951
9.23703
11.0549
-9.05782
-3.10738
-17.9676
17.8812
-17.2594
17.3056
23.9156
-23.8352
-6.17278
11.8864
-5.2534
12.3825
-11.4091
-6.99048
10.0874
4.53064
8.8474
7.45801
-9.03741
-2.44504
-24.7509
24.5005
-25.6327
25.0947
0.098233
2.42708
-2.52531
1.35264
-0.860224
3.2873
2.00005
2.1059
2.45253
-2.29062
0.240186
-2.7655
-2.89636
-5.37961
5.48649
5.20401
-5.09286
16.4369
7.04747
16.4616
-16.6859
-6.69797
-16.4406
11.3641
7.71687
11.7467
12.0609
8.71562
12.1626
10.3592
-10.3315
-0.0276996
-11.4775
21.8367
1.55486
-18.468
-13.9373
8.84426
6.95657
8.83691
-9.84108
-6.04732
-9.56991
-11.1115
-9.91452
-11.4404
12.3881
8.26177
12.2046
-15.335
15.3292
9.38333
6.11717
9.2737
-9.01956
-6.69876
-9.0885
27.3903
-6.58693
-20.8034
-13.1265
-12.5325
12.924
9.0781
14.2183
11.407
14.2469
8.84058
18.5498
-17.9187
5.38621
-9.95151
-6.15115
-9.78749
9.26657
6.8915
9.41788
-11.7636
-8.52319
-11.717
-11.9808
-9.06275
11.9859
8.1747
-12.5232
-13.1095
12.6572
8.11122
7.80874
-17.4386
9.14078
-18.2128
-10.8333
-5.34288
-10.6138
10.8292
6.6
-17.4292
-5.83176
23.8342
-12.7793
20.7268
-11.0678
-9.51221
-11.0849
-14.6593
-4.56827
-14.227
-8.08897
7.80445
-8.92216
8.58657
26.9524
-16.2135
-10.7389
-12.3782
-8.18267
11.7168
-0.632121
-12.8359
12.8082
-0.880393
12.0543
16.498
15.8659
-10.8812
-6.37819
-10.6641
10.2727
7.03291
10.3567
15.9526
7.96301
16.1622
-16.6694
-7.16583
-16.4223
4.9021
-4.97847
5.72836
-5.71014
15.5538
9.54093
-15.321
-9.42999
22.9564
-10.7814
-12.175
-5.1273
5.24287
-0.115567
-1.84
-0.487367
0.262446
-1.93612
-1.8109
1.87591
0.22999
5.47286
3.66196
-2.41424
2.48175
2.77889
2.70524
-0.191122
2.52704
-2.52186
19.0249
-11.5186
-7.50632
13.8575
-13.7694
-2.56484
-19.2488
16.6839
2.6922
3.03968
-2.97684
-3.97187
-1.40774
-3.93875
2.9831
2.22091
3.13545
2.11746
3.36903
-8.16483
1.58265
6.58218
-6.04737
-3.51021
-13.3514
-6.32115
19.6726
16.6282
7.87232
-16.7448
0.304139
5.31606
-5.35321
-1.56533
-11.7861
8.42211
-9.98744
-15.2535
-6.44241
21.6959
-9.58131
-1.08276
9.36641
2.38029
-10.8763
-7.09131
10.742
1.42065
-12.064
23.9715
-11.9075
-18.4422
8.51622
13.3205
16.2331
-17.8628
9.31828
8.54456
-4.54233
7.44881
1.38809
7.3163
-19.8282
13.7809
11.2437
8.31634
-11.5737
2.00382
-17.8243
25.1287
-22.2063
-2.92248
12.8375
12.2912
13.602
13.3504
-7.87107
21.4731
-3.55443
-18.6518
21.3788
-13.0624
15.7044
-28.7668
-29.0548
10.4029
-18.0295
22.0638
-4.03424
-5.17959
-10.1554
23.2091
-2.04623
-21.1629
10.1583
-13.967
-11.8311
25.7981
-20.554
18.5298
-6.32575
-12.2041
-12.6604
-9.38588
12.4791
2.85008
-25.7452
31.1314
-7.19544
7.91408
1.35962
7.93094
10.641
-15.9164
5.27543
9.91302
-16.2388
6.83102
-22.7474
-12.0988
24.0385
-11.9397
-17.4417
-15.7055
-1.73618
4.81276
26.3186
-16.2198
12.001
4.21881
8.46488
1.89182
-8.56287
-1.22462
0.97288
16.0987
-17.0716
10.3908
10.5123
11.7238
4.37487
10.7679
7.11325
-10.7463
-0.970667
-14.7879
5.72512
-6.61317
-14.5641
20.2892
-16.2663
1.70219
-10.3023
-13.9959
24.2982
-16.4535
11.4277
12.5438
18.4606
-19.6154
5.61946
-9.74936
-9.866
10.6468
-17.26
7.49081
12.7984
15.602
2.49253
12.715
11.3235
-19.315
1.10219
18.7815
-16.3365
3.88654
10.3604
-15.8875
0.18205
-10.4317
2.62625
-15.4056
-14.803
16.4269
-20.9951
-12.3399
13.4315
2.73061
-13.7589
-0.468102
-5.0186
-3.07037
-5.25221
-3.30863
-5.61353
-11.1797
-1.95169
-9.22802
5.85277
-6.75877
-4.68165
7.08546
1.50111
-5.00464
4.89595
-5.65718
5.4556
-0.210435
13.0187
15.6555
7.47279
-8.47632
15.9491
-15.5396
23.5026
-29.6554
14.1158
15.9123
-23.0781
-13.7431
2.73635
2.16575
2.64994
13.5855
-14.5466
0.961123
-13.4078
17.7431
-4.33533
-19.7884
6.38062
-6.20294
5.20327
0.525091
5.18435
1.42221
6.8566
-8.27881
-4.28792
-4.34003
-9.151
-13.8551
23.0061
4.76219
-13.1138
8.35157
-12.0912
16.8534
0.0964474
-13.2102
17.0188
-10.1622
17.5438
-11.9948
5.54909
12.7943
22.3612
-9.56695
16.2361
-6.69519
7.04902
-16.616
-6.80612
-11.2952
18.1867
-13.003
14.7052
-1.11515
15.8204
-13.7932
3.0118
-2.06937
8.44291
8.65762
16.8101
-12.4353
11.9809
-18.676
-4.63511
-16.1835
-3.3851
1.04472
-13.8882
12.8435
12.1582
-11.1134
-3.27509
9.08697
-5.81188
5.74944
-2.87617
-2.87327
-1.86861
-3.10986
1.89153
0.635503
6.38495
0.496829
-3.373
-2.02503
-1.92054
10.4149
8.60996
-3.87822
3.76265
3.61577
-0.576086
0.966597
2.16886
4.63787
-3.67127
0.68811
3.94976
-2.28873
3.84777
1.46829
-3.86904
-0.0697146
-3.4153
11.8374
3.16688
-5.38779
1.71652
2.35955
-13.8781
19.7313
-11.4268
-8.3045
22.0908
3.03033
-14.4571
16.2184
-13.5262
8.06705
-14.3882
-6.39004
-19.9163
-12.8688
-10.7287
19.0803
-12.2774
20.1498
3.82674
-20.4539
24.2806
-12.7646
6.32218
-9.48628
10.9546
-4.0888
-5.39748
11.2988
10.3971
-11.0633
-0.722767
0.235519
8.46613
-8.23061
-1.52131
-7.56868
-16.408
17.8286
-8.25674
17.575
7.69237
-7.63303
25.208
6.56598
-14.199
-11.8762
-12.9589
-5.65445
10.5786
-1.82535
-7.26314
-14.0294
7.30911
0.00719312
-19.0081
22.0419
-3.03378
-12.0516
-1.7293
14.5668
-18.1163
1.87748
-11.2852
10.7567
12.1448
12.152
-20.9026
-0.260341
-12.6408
3.21773
-15.8585
15.5089
-6.85438
17.2573
-16.1198
11.4382
-14.6187
14.3348
-1.52367
14.6937
-9.41827
6.10971
-15.4956
-12.6455
14.5355
-8.41835
15.8951
-10.1843
26.0795
-17.3798
14.5506
11.5289
-2.76763
-8.31726
-14.098
11.3303
0.452628
8.38356
17.8345
-10.7212
16.8638
8.91937
-18.6687
-8.34063
-25.8604
7.19165
-13.3166
-7.35536
14.547
11.1053
12.9971
4.68101
-11.7725
17.7475
-19.4836
-5.80774
-8.99524
14.7103
-3.37993
10.2075
-19.2028
-5.19806
13.1443
-0.198462
-12.9459
3.06921
-15.4091
5.12798
-20.5371
15.8672
-16.3353
1.7956
-7.99854
-3.20904
-3.32027
-2.20057
-3.45661
-7.66265
5.46208
-1.28203
3.61392
-12.6181
12.4196
-5.12504
10.5871
-4.11314
-1.13907
4.28598
1.16961
11.7567
3.04733
-16.7904
-9.32113
14.7108
-5.38971
1.09381
-10.8409
3.86998
8.06309
14.0277
-24.747
1.6689
-15.1215
-4.12327
6.28901
4.9637
17.1219
2.57525
6.6348
-0.345788
9.21005
2.30416
2.22748
-11.2716
12.2327
1.57187
15.6876
-1.88588
7.43497
3.29847
3.31571
2.03749
5.73172
2.9259
8.74352
0.464713
-3.87532
2.08356
-4.0041
-1.28944
-4.0459
-0.33803
3.75276
-4.09079
10.5795
-1.96955
5.1898
-1.92498
-4.98623
6.91121
-9.4313
-5.56232
-1.61256
-5.66187
7.37839
6.17555
-5.76583
-3.66546
2.42008
-15.2889
11.9681
-12.6909
-2.29378
21.9869
-9.50536
1.27475
-3.18318
-6.29393
-7.70167
7.77139
24.1903
1.01771
12.2828
18.8463
11.755
1.03379
12.0568
-16.091
-10.6906
-16.3514
-0.842452
13.7244
5.66331
20.6553
17.1922
13.8122
-5.39051
-24.8741
20.7682
-8.53552
16.4329
-3.48703
-17.0501
14.5582
8.94437
-17.2888
0.953572
-16.0965
-24.632
-0.350313
12.7699
-11.4064
10.2673
7.19698
2.03104
-2.45768
-0.862587
2.57641
-0.348928
8.86113
-0.180148
-8.27548
8.45563
-3.57261
2.28318
-0.463463
4.22611
6.44775
4.4782
-3.79728
-7.88807
-8.86738
-5.01075
-17.1719
2.50067
-8.67621
5.74196
-3.45879
2.86869
4.99684
10.1866
-1.60727
-9.50617
7.41915
-4.55046
5.63619
)
;

boundaryField
{
    wall-4
    {
        type            calculated;
        value           uniform 0;
    }
    velocity-inlet-5
    {
        type            calculated;
        value           uniform -11.2529;
    }
    velocity-inlet-6
    {
        type            calculated;
        value           uniform -1.87548;
    }
    pressure-outlet-7
    {
        type            calculated;
        value           nonuniform List<scalar> 8(4.30873 4.9004 11.0055 11.9238 17.4909 15.2685 17.1694 15.4575);
    }
    wall-8
    {
        type            calculated;
        value           uniform 0;
    }
    frontAndBackPlanes
    {
        type            empty;
        value           nonuniform List<scalar> 0();
    }
}


// ************************************************************************* //
