/*--------------------------------*- C++ -*----------------------------------*\
  =========                 |
  \\      /  F ield         | OpenFOAM: The Open Source CFD Toolbox
   \\    /   O peration     | Website:  https://openfoam.org
    \\  /    A nd           | Version:  9
     \\/     M anipulation  |
\*---------------------------------------------------------------------------*/
FoamFile
{
    format      ascii;
    class       volVectorField;
    location    "15";
    object      U;
}
// * * * * * * * * * * * * * * * * * * * * * * * * * * * * * * * * * * * * * //

dimensions      [0 1 -1 0 0 0 0];

internalField   nonuniform List<vector> 
918
(
(2.47629 -0.138943 0)
(0.108704 0.722546 0)
(0.173788 1.09007 0)
(2.31834 0.153729 0)
(-0.0587783 1.24312 -1.20477e-19)
(-0.0924034 0.643931 -5.32139e-18)
(0.523563 0.840474 -2.99218e-19)
(0.276155 0.153746 -2.99085e-20)
(3.00615 -0.0195634 0)
(-0.00883305 0.478103 0)
(-0.0180522 0.596833 0)
(0.605737 0.00670463 0)
(0.0107054 0.439105 0)
(-0.00288681 0.421697 0)
(0.013837 0.342163 -1.30863e-18)
(-0.00538149 0.755842 -9.20345e-20)
(0.313377 0.0744252 2.15129e-18)
(0.0785745 0.639652 -2.25808e-19)
(1.52886 0.128623 0)
(-0.0282221 0.700181 0)
(0.196311 0.158834 -1.26834e-18)
(3.08302 -0.397377 0)
(2.92445 -0.505985 0)
(1.86116 -0.181102 0)
(0.512228 0.0401027 0)
(-0.0253427 0.52156 0)
(-0.00135327 0.494038 1.86552e-18)
(-0.0243326 1.43805 0)
(0.0726604 2.94695 0)
(0.16939 1.78421 0)
(-0.0415782 3.10693 0)
(0.0258432 1.60604 9.263e-20)
(0.0220993 0.673411 0)
(-0.147425 0.775094 -2.03389e-22)
(-0.193914 1.0291 4.42753e-18)
(-0.0415772 1.04471 0)
(0.744432 -0.00602394 0)
(0.162982 0.249197 6.67064e-19)
(0.981432 1.49701 6.58917e-19)
(0.641789 0.775131 -5.20566e-19)
(0.790193 1.55902 6.29148e-20)
(0.412252 0.843161 -3.2493e-19)
(0.556293 0.308626 2.94146e-20)
(0.298718 0.154394 0)
(0.954495 0.5611 0)
(0.537091 0.30623 1.32164e-19)
(0.260067 0.163936 -1.3562e-19)
(0.87155 -0.0554871 0)
(3.02784 -0.00171033 0)
(3.00685 0.0178628 0)
(3.20086 -0.417739 0)
(3.04288 -0.0742178 0)
(3.03116 -0.0388446 0)
(0.0178536 0.909101 -1.14563e-18)
(-0.054014 0.97469 0)
(0.00257852 0.455218 0)
(-0.0292395 0.983876 0)
(-0.0119428 0.483839 0)
(-0.00213903 0.865161 0)
(-0.0528374 1.12334 0)
(-0.0129197 0.547582 0)
(-0.0266621 1.17872 0)
(-0.006719 0.631225 0)
(0.789905 0.01154 0)
(1.17035 -0.00163866 0)
(0.618654 0.0123377 0)
(1.12693 0.0175831 0)
(0.570361 0.00863787 0)
(0.225406 0.921982 1.96268e-18)
(0.0985379 1.2081 0)
(0.176302 1.06604 0)
(0.0331901 0.755774 2.20268e-23)
(0.0372233 0.498055 -2.93535e-18)
(0.0194616 0.747943 0)
(0.0059542 0.422033 0)
(-0.000699642 0.734553 4.52582e-24)
(0.000701386 0.414826 0)
(-0.0169371 0.743199 0)
(-0.0129516 0.428004 0)
(0.0504641 0.653429 0)
(0.0493115 0.461283 0)
(0.00857948 0.623728 1.23729e-18)
(0.00103754 0.345399 0)
(-0.0792319 4.66745 0)
(0.00790654 1.43544 9.13711e-20)
(-0.0105127 0.773962 -1.17441e-19)
(0.638289 0.152606 -7.506e-19)
(0.322479 0.0657765 -7.28282e-19)
(0.647397 0.17034 -2.25384e-18)
(0.318696 0.0958607 -1.45133e-18)
(0.0794266 0.626195 0)
(0.176417 1.30571 1.87736e-19)
(0.177768 0.725193 -2.99549e-19)
(2.06034 0.260931 0)
(1.10707 0.118442 0)
(3.03313 0.103884 0)
(3.10392 0.446056 0)
(2.8392 0.377451 -1.01197e-17)
(2.57811 0.361307 7.76506e-18)
(-0.0717414 1.28954 0)
(-0.0115746 0.636824 0)
(-0.0169417 1.95009 0)
(-0.0531383 1.37917 0)
(-0.0497477 0.695563 0)
(0.443918 0.298494 4.01495e-19)
(0.227201 0.16472 0)
(2.29608 -0.266404 0)
(1.32371 -0.11928 0)
(1.0777 0.0125723 0)
(1.01365 0.0187064 0)
(0.541641 0.0107611 0)
(1.01769 0.0560787 0)
(0.822698 0.0704728 0)
(0.344172 0.0287344 3.35994e-18)
(-0.00545268 0.451534 1.77729e-18)
(-0.0270783 0.784695 0)
(-0.0474783 0.847721 0)
(-0.0153061 0.46054 0)
(0.000131822 0.839724 1.81914e-18)
(7.21932e-05 0.487529 0)
(-0.005479 0.845554 -5.59976e-18)
(-0.00488636 0.496761 1.88947e-18)
(0.0482608 3.62781 0)
(0.0352571 4.07506 0)
(-0.0165814 1.38608 -2.06397e-21)
(-0.0143466 1.3379 0)
(-0.00999503 0.728397 0)
(1.40985 0.0348321 0)
(0.760333 0.0153981 0)
(0.709657 0.0142495 0)
(1.41595 -0.0328799 0)
(0.773408 -0.00876121 0)
(0.326084 0.486063 -8.3754e-19)
(0.15859 0.235281 0)
(0.329169 0.515618 9.38764e-20)
(0.165447 0.271785 0)
(1.22696 1.37015 1.67832e-19)
(0.770011 0.732149 -3.94977e-19)
(0.408131 1.41064 0)
(0.600827 1.51981 0)
(0.300392 0.808236 0)
(0.147437 0.358415 -4.4428e-19)
(0.611126 0.282257 0)
(0.314991 0.135139 3.98913e-19)
(1.41286 1.29168 0)
(1.57257 1.15653 0)
(0.866364 0.656749 4.63866e-19)
(1.72058 0.944661 0)
(1.06092 0.435112 2.30373e-20)
(1.47282 0.00810496 0)
(1.5009 -0.02926 0)
(0.801824 -0.00443061 0)
(1.95039 -0.199792 0)
(1.65075 -0.148195 0)
(1.05212 -0.0889774 0)
(3.06126 0.164848 0)
(3.03105 0.0687814 0)
(3.01022 0.0531555 0)
(0.0338908 1.61786 6.07964e-19)
(0.0171219 0.835242 0)
(0.0166997 1.70556 1.07898e-18)
(0.00223427 0.943013 -9.69972e-19)
(0.0639032 1.14777 1.902e-19)
(0.0473948 0.987505 0)
(0.0393731 0.52811 0)
(-0.0295269 1.01063 0)
(-0.00755503 0.520898 0)
(0.0166419 1.60903 -4.42026e-21)
(-0.0188156 0.86387 0)
(-0.0542112 1.574 -2.24986e-19)
(-0.0164148 0.814883 4.35654e-19)
(-0.00271049 1.03758 0)
(0.00966225 1.05401 0)
(-0.000497624 0.536282 0)
(0.00928185 1.1906 0)
(0.000240935 0.623772 0)
(1.46706 -0.0039129 0)
(0.788453 0.00795221 0)
(1.43965 0.0330616 0)
(0.761383 -0.000600538 0)
(0.675641 0.00531021 0)
(1.26252 0.0166223 0)
(1.20311 0.0472752 0)
(0.660026 0.0155182 0)
(-0.0058007 1.42077 -1.70494e-20)
(0.000184266 1.37708 0)
(0.00482009 0.732923 0)
(0.00172888 0.417221 0)
(0.28777 0.835697 0)
(0.256379 0.403597 -2.87527e-19)
(-0.00183419 0.635925 0)
(-0.0087742 0.367649 0)
(0.00029657 4.36927 0)
(-0.0595934 4.65486 0)
(-0.0308745 4.57868 0)
(-0.0765411 3.31372 2.07207e-20)
(-0.0705182 4.56587 0)
(-0.0610772 4.12938 0)
(0.00407231 0.809423 1.07049e-20)
(0.0132835 1.54276 1.64922e-19)
(-0.0357012 1.48187 1.20666e-19)
(-0.00794239 0.81493 0)
(0.666338 0.105969 1.15251e-18)
(0.326417 0.0441916 -1.1295e-18)
(0.151313 1.14805 0)
(0.10225 0.580795 -2.70103e-19)
(0.119789 1.24871 -8.76685e-19)
(0.0523867 0.695773 8.72184e-19)
(0.809276 0.0240467 0)
(1.55688 0.0476519 0)
(1.70976 0.127638 0)
(0.91989 0.0445127 0)
(0.00706604 1.20432 0)
(0.0248338 1.21454 0)
(0.00392379 0.64027 0)
(0.486606 0.31792 1.20516e-18)
(0.440909 0.312139 -1.38879e-18)
(0.23678 0.165558 0)
(1.93049 0.151802 1.15111e-19)
(1.13304 0.092565 0)
(1.72095 0.117978 0)
(0.882199 0.0224745 0)
(0.679775 0.0858393 0)
(0.701095 0.0461482 -5.40275e-18)
(0.347324 0.032612 1.99734e-18)
(0.00910698 0.807219 1.6971e-18)
(0.00221031 0.462486 4.08139e-20)
(-0.0108777 1.40842 -3.5858e-20)
(0.00613615 1.38675 1.36801e-18)
(-0.0149832 0.848955 6.3045e-20)
(-0.0119261 0.524486 -2.53305e-22)
(-0.107514 1.00068 -1.16663e-18)
(-0.0529602 1.3532 8.35249e-19)
(-0.0175323 1.35275 -1.35989e-18)
(1.42206 -0.0171537 0)
(1.44187 0.0202353 0)
(0.769558 -0.000230259 0)
(1.45234 0.0253567 0)
(1.36342 0.0462089 0)
(0.761645 0.0202898 0)
(1.30105 -0.00219631 0)
(1.31898 -0.00589551 0)
(0.695253 -0.00101938 0)
(0.308337 0.478862 -9.16804e-19)
(0.163151 0.245333 0)
(0.159211 0.312328 1.37351e-19)
(0.313609 0.593586 1.12527e-18)
(0.311412 0.555753 -6.6615e-19)
(0.158802 0.285474 1.30166e-18)
(0.282343 0.728093 2.18857e-18)
(0.150328 0.386169 3.94963e-19)
(0.638983 0.214078 1.5373e-18)
(0.629252 0.254885 3.99294e-19)
(0.317868 0.115416 7.49314e-19)
(1.90932 0.708562 -6.0019e-19)
(1.16126 0.333473 -7.02082e-19)
(-0.0365762 1.70909 4.63729e-19)
(-0.0124142 0.927546 0)
(1.60141 0.023478 0)
(1.52022 0.0651209 0)
(0.851878 0.0266601 0)
(-0.00355917 1.38473 0)
(0.0050732 0.729575 2.49952e-18)
(0.00465014 0.731252 0)
(0.00207054 0.415097 -2.44646e-18)
(-0.010277 1.38627 5.96733e-19)
(-0.0094737 1.4225 0)
(0.340318 0.493526 2.58367e-19)
(0.363905 0.552178 -8.64309e-19)
(0.173707 0.260555 7.82272e-19)
(-0.0256957 0.76734 -1.66616e-18)
(-0.0260773 0.689695 0)
(-0.0154185 0.412846 0)
(0.0293216 1.53498 -1.26462e-20)
(0.030263 1.56368 -3.63647e-19)
(0.0171291 0.814758 -1.54622e-20)
(0.216111 1.05767 8.92866e-19)
(0.121084 0.515593 -5.94158e-19)
(0.011127 1.49962 7.31685e-19)
(0.0556081 1.36655 -8.16963e-19)
(0.0265195 0.768887 3.56688e-20)
(0.00748778 1.36614 -3.81494e-18)
(-0.000236872 1.39327 4.41792e-18)
(0.00376996 0.829773 1.73615e-18)
(-0.013843 0.805078 -1.72879e-18)
(-0.00431247 0.481394 -1.7418e-18)
(-0.0106564 1.41685 -4.50807e-18)
(-0.0152257 1.40032 4.59745e-18)
(0.290604 0.684344 0)
(0.303992 0.64316 -2.29467e-18)
(0.154096 0.336174 9.93424e-19)
(0.285403 0.807339 1.18907e-18)
(0.140824 0.433638 -1.83466e-18)
(2.04973 0.320269 4.15483e-19)
(2.04178 0.543557 0)
(1.21368 0.219506 -4.01599e-19)
(-0.0745906 1.63276 -4.79234e-21)
(-0.0159763 1.69219 0)
(-0.0166508 0.92193 0)
(0.229693 0.957254 -3.23775e-19)
(0.251533 0.878902 -7.09172e-19)
(0.13042 0.469765 1.32906e-18)
(3.16441 -0.442886 0)
(3.34728 -0.4147 1.81133e-18)
(0.0555671 3.53659 0)
(0.0444723 2.86752 0)
(3.15926 0.249901 1.41898e-20)
(3.12355 0.506281 3.70911e-18)
(0.01866 3.38083 -2.78101e-20)
(0.00783605 2.61819 0)
(-0.0413165 1.19619 1.55855e-18)
(0.193424 1.32267 0)
(3.45561 1.61319 -3.24908e-19)
(3.17433 0.272533 -2.96109e-20)
(3.14828 -0.118758 0)
(3.10047 -0.000422363 3.71362e-22)
(0.0400789 2.58165 0)
(0.153374 3.32345 0)
(-0.0597892 2.5531 0)
(-0.0298488 3.47966 3.15623e-19)
(-0.0309028 3.5479 1.99194e-19)
(2.63506 0.0484544 -1.36353e-20)
(3.04627 0.0307175 0)
(3.1556 0.0860925 0)
(-0.0631162 4.6112 0)
(-0.0491803 3.04213 0)
(-0.0765196 2.98038 0)
(0.643879 3.07979 2.67451e-19)
(3.33883 -0.422484 0)
(3.01136 -0.345829 0)
(3.1699 -0.0530597 2.27532e-18)
(3.2927 -0.328718 -2.73977e-18)
(3.1038 -0.125789 0)
(-0.069904 4.52543 0)
(0.00595556 3.97907 0)
(-0.00302957 4.29389 0)
(-0.0325879 3.14366 0)
(-0.0179628 2.90543 0)
(-0.0353752 2.48124 0)
(2.97383 -0.00331692 0)
(2.85084 0.0484982 -1.80476e-20)
(2.22463 3.0204 -3.24603e-19)
(3.15695 0.0444333 -2.27638e-18)
(3.19037 0.278162 2.76711e-18)
(3.0828 0.117325 0)
(3.39543 0.328874 2.0854e-18)
(3.35697 0.484345 -2.7043e-18)
(3.07114 0.418413 0)
(-0.0573778 3.30254 0)
(0.00336575 3.22661 8.56164e-20)
(-0.0316225 2.5319 -6.06283e-20)
(3.70039 0.55164 2.26368e-18)
(3.46685 0.206799 0)
(-0.15112 1.2714 -2.17083e-18)
(-0.0613719 0.882048 -1.35353e-19)
(-0.083002 1.33766 2.99242e-18)
(-0.0341501 1.2711 -9.01642e-19)
(0.000524472 1.08941 0)
(-0.0266872 1.23945 6.96387e-19)
(-0.114709 1.38788 2.15139e-18)
(-0.0587683 1.34058 -1.31702e-18)
(-0.0768517 1.32062 0)
(1.29884 0.600445 0)
(1.18864 0.687595 0)
(3.54181 2.01564 9.54102e-19)
(3.0288 1.92029 -1.1915e-18)
(3.82736 1.69555 0)
(3.36831 1.14899 0)
(3.34941 0.280432 -3.91318e-18)
(2.89895 0.173074 4.83519e-18)
(3.35134 -0.155566 0)
(2.8546 -0.0761965 0)
(3.43642 0.0429544 0)
(3.59381 0.144981 0)
(3.28683 0.119837 0)
(3.55035 0.298518 0)
(3.40842 0.293022 0)
(3.32756 0.218033 0)
(0.0917654 2.78638 0)
(0.0321353 2.07913 0)
(0.119614 3.04064 0)
(0.0902577 2.1957 0)
(0.209029 3.61727 0)
(0.138803 2.69878 -5.59364e-19)
(0.0469811 3.63062 0)
(0.0077932 3.03485 4.05542e-19)
(-0.0296932 3.20905 -5.16478e-19)
(-0.0644225 2.82347 0)
(-0.026711 2.22815 0)
(-0.0787458 2.92515 0)
(-0.0576054 2.06467 0)
(-0.122765 4.74036 -2.45477e-19)
(-0.0878482 3.9211 2.77397e-19)
(-0.0816315 3.79003 3.08921e-19)
(-0.055453 3.00147 0)
(-0.111419 3.7798 -4.58391e-19)
(-0.0412186 3.18628 -2.94812e-19)
(-0.0967222 4.77137 1.92366e-19)
(-0.106619 4.44679 -3.50618e-19)
(-0.0806766 4.32128 -3.78761e-19)
(3.03287 0.0878438 3.35481e-18)
(2.29077 0.0320284 -4.22505e-18)
(2.89322 0.132318 -3.32375e-18)
(2.2117 0.0732561 4.15158e-18)
(3.36767 0.0271643 0)
(2.64212 -0.00281175 0)
(3.45245 0.0903978 0)
(3.31897 0.0187023 0)
(2.70487 0.00888388 0)
(3.67751 0.237653 0)
(3.4366 0.0948364 0)
(2.86015 0.0558148 0)
(-0.0311833 4.28552 -1.20976e-20)
(-0.0662183 4.63555 0)
(-0.0719471 4.51172 0)
(-0.0794985 3.46271 8.78632e-20)
(-0.0390984 2.74142 -3.4648e-21)
(-0.0920105 4.66172 1.14388e-19)
(-0.104626 4.4676 -1.1559e-19)
(-0.086431 3.98615 0)
(-0.0647475 3.91335 0)
(-0.0314773 4.02839 0)
(-0.0767567 3.30072 0)
(-0.0449343 2.34189 0)
(0.936355 3.63239 -6.11407e-19)
(0.909789 2.82536 -1.77557e-19)
(0.435606 2.07883 -2.28904e-19)
(0.254359 2.32629 6.9876e-19)
(1.02134 4.216 2.63772e-19)
(3.43302 -0.1675 0)
(3.3221 -0.256591 0)
(2.8832 -0.189541 0)
(3.47032 -0.064414 0)
(3.34581 -0.147901 0)
(3.44893 -0.261062 0)
(3.51949 -0.283642 0)
(3.57947 -0.281189 0)
(3.22449 0.0932081 3.61517e-18)
(2.55551 0.0644409 -4.57138e-18)
(3.09697 0.106372 -3.55862e-18)
(2.50972 0.0565467 4.42786e-18)
(2.22073 3.38959 0)
(1.71942 2.91821 -4.47796e-19)
(2.55069 3.32567 -4.04921e-19)
(2.34434 2.50312 5.38053e-19)
(0.784741 1.22805 2.72789e-18)
(1.45067 0.216617 1.34203e-18)
(3.71871 0.301896 0)
(3.88827 0.569094 -1.84457e-18)
(3.29301 0.24221 -8.22504e-20)
(3.7245 0.437828 0)
(0.243973 1.31572 1.80037e-18)
(-0.0130023 1.20347 -2.88301e-18)
(0.0626483 0.770975 1.61853e-18)
(0.280943 0.467449 -7.49618e-19)
(0.191106 1.38942 8.73017e-19)
(0.0529261 1.23963 0)
(0.0593544 1.08951 -1.13491e-18)
(0.197241 1.44706 -4.10182e-18)
(0.336241 1.56325 0)
(0.00861311 1.29016 1.19827e-19)
(-0.0097724 1.45729 -1.34287e-18)
(-0.0410814 1.30285 1.95225e-18)
(-0.0575509 1.41766 0)
(-0.0205608 1.38222 0)
(0.689081 1.06151 0)
(2.47662 2.466 -1.06689e-18)
(2.62038 2.15208 3.95797e-19)
(2.77331 2.86054 0)
(3.20115 3.0477 -3.94318e-19)
(3.14814 2.39353 2.82477e-20)
(0.813212 0.596266 -1.82574e-18)
(1.56685 0.694501 -1.62869e-20)
(1.24048 0.453181 8.72158e-19)
(1.28812 0.850414 5.95701e-20)
(0.948757 0.639726 -2.37243e-18)
(1.47588 0.718383 0)
(2.00683 1.10493 1.45657e-18)
(2.04789 1.02038 0)
(1.42484 0.796024 0)
(1.07081 0.553468 0)
(3.38545 2.17562 1.00706e-18)
(3.94112 0.755786 -1.86144e-18)
(3.83896 1.2086 0)
(3.5223 0.75269 0)
(1.3976 0.365771 1.332e-18)
(3.27195 1.84177 -8.51293e-19)
(2.85204 1.65666 1.54608e-18)
(3.76228 1.37285 -1.83359e-18)
(3.09816 0.114618 2.46142e-18)
(3.16868 0.180732 -2.5764e-18)
(2.66203 0.091591 0)
(3.30699 -0.0396896 0)
(3.20121 -0.0843683 -2.36414e-18)
(2.63212 -0.0321697 2.34332e-18)
(3.95641 0.0928313 0)
(3.75995 0.145377 0)
(3.69371 0.155274 0)
(3.58835 0.204652 0)
(3.83262 0.058876 0)
(3.7261 0.0521349 0)
(-0.0444546 2.51479 0)
(-0.0406667 2.01753 0)
(0.344898 3.97095 -4.11317e-19)
(0.652306 3.30898 -1.60756e-19)
(0.252777 3.01091 -3.5954e-19)
(0.338172 2.53033 5.75973e-19)
(0.446658 3.99441 0)
(0.457445 4.66266 -5.09675e-19)
(0.371652 4.71987 0)
(0.9071 4.38629 -3.79428e-19)
(0.673474 3.84167 9.69519e-19)
(0.586046 4.64049 4.46669e-19)
(0.728823 4.1781 -1.87979e-19)
(0.589432 4.30533 1.51218e-19)
(0.904983 4.64071 -6.63603e-19)
(0.737399 4.65536 0)
(0.84959 4.58171 5.04649e-19)
(-0.00750221 4.57034 -1.81147e-19)
(-0.0262761 3.65411 0)
(0.0892092 4.29366 5.48945e-19)
(-0.0147168 4.39379 0)
(-0.0100401 3.47373 -4.5097e-19)
(-0.0192211 2.92455 0)
(-0.114115 4.31076 -2.89956e-19)
(-0.121519 4.67439 0)
(-0.0641502 3.81008 0)
(-0.0514794 3.74027 3.26066e-19)
(-0.0564386 3.88004 1.03603e-20)
(-0.0426224 3.71014 6.25204e-19)
(-0.0446477 2.94721 4.06093e-21)
(-0.12814 4.70056 1.80398e-19)
(-0.11806 4.73436 1.03281e-19)
(-0.0212005 2.65458 0)
(-0.00154745 2.16618 0)
(-0.0577691 4.78016 4.86372e-19)
(-0.0634914 4.30635 4.24765e-19)
(-0.0986458 4.5798 -5.55007e-19)
(0.00041368 4.74887 0)
(-0.0881355 4.50691 -3.09605e-19)
(-0.125298 4.13007 1.27719e-19)
(-0.0921631 4.22032 -4.1366e-20)
(-0.0843409 4.71791 -2.19141e-19)
(-0.0955055 4.2458 -6.85476e-20)
(-0.0929295 4.19418 3.06315e-19)
(2.87221 0.0607899 -2.36102e-18)
(2.86 0.0493713 2.27048e-18)
(2.33944 0.0344088 0)
(3.51254 0.190902 3.04297e-18)
(2.70639 0.126074 -3.30108e-18)
(2.25711 0.0641485 3.60562e-18)
(3.68544 0.333725 -4.01163e-19)
(3.20946 -0.0487426 0)
(3.17149 -0.0138817 2.23474e-18)
(2.69029 -0.0125162 -2.21712e-18)
(3.87733 0.121021 -1.25102e-19)
(3.77075 0.100965 1.07717e-18)
(4.15884 0.171829 0)
(4.22796 0.179461 -3.74711e-19)
(4.01445 0.144108 0)
(3.69611 0.154585 0)
(4.03242 0.0946187 0)
(3.71215 0.0869364 0)
(4.18472 0.112772 7.84611e-19)
(4.1374 0.0782709 -1.74603e-18)
(4.14013 0.11283 -8.47096e-19)
(4.18599 0.115413 -9.23468e-19)
(4.21481 0.227081 1.77209e-18)
(3.85325 0.187358 0)
(4.0593 0.299361 0)
(-0.0836277 4.55096 -1.36383e-19)
(-0.040749 4.62046 -1.17238e-20)
(-0.0760109 4.64294 0)
(-0.0633008 4.15861 1.38834e-19)
(-0.0615221 4.18236 2.26129e-20)
(-0.0644187 4.0447 -2.19764e-20)
(-0.0846517 3.49669 2.60874e-19)
(-0.150527 3.97359 -1.45062e-20)
(-0.111208 4.10683 7.47473e-20)
(-0.0781769 3.36731 -1.3213e-19)
(-0.0269874 2.89251 1.58244e-19)
(-0.0856887 4.44589 5.18169e-21)
(-0.100799 4.63972 1.71468e-19)
(1.2311 4.3342 3.48376e-19)
(1.14813 4.51177 7.24937e-19)
(1.71867 3.43611 4.32989e-19)
(1.293 3.52769 1.70685e-19)
(1.27048 2.85912 0)
(0.554658 2.34745 2.75597e-19)
(0.468691 1.76411 3.31693e-19)
(0.347337 2.59707 1.53412e-20)
(0.494764 3.20788 -1.16184e-18)
(0.637194 3.16541 8.78165e-19)
(0.437197 2.43326 0)
(0.296939 1.99665 -5.58717e-19)
(0.257641 3.10433 1.39681e-18)
(0.272933 2.74727 -3.18882e-20)
(0.15763 2.30104 -1.75126e-18)
(0.600118 1.43066 1.46768e-18)
(0.584522 1.63925 0)
(3.58364 -0.0752262 8.63562e-20)
(3.61859 -0.254168 -7.25319e-20)
(3.72131 -0.217811 -1.26539e-18)
(3.75925 -0.126133 1.28126e-18)
(3.67615 -0.0489677 0)
(2.43445 3.85423 0)
(2.6137 3.90033 0)
(2.88278 3.60822 0)
(2.73362 3.63237 0)
(0.865483 1.41172 -3.39538e-21)
(0.619767 1.05238 0)
(1.72679 3.41311 1.5033e-20)
(1.43107 3.48895 0)
(1.3422 2.98358 -1.28636e-18)
(1.42307 2.92195 8.25974e-19)
(1.79644 0.31074 0)
(1.4349 0.262449 3.51832e-19)
(2.41695 0.358688 2.18971e-18)
(1.79062 0.284801 -7.84809e-19)
(1.42958 0.112195 -2.49272e-18)
(4.26536 0.785351 -2.56212e-18)
(3.8588 0.991313 -3.65818e-20)
(3.3064 0.842416 2.06554e-18)
(3.88149 0.742388 1.81116e-18)
(3.12904 0.464646 -3.04176e-18)
(2.91649 0.451426 3.7461e-19)
(3.20062 0.681455 -8.17836e-19)
(2.98354 0.681936 0)
(3.76387 0.56166 1.53586e-18)
(4.09909 0.626118 0)
(4.09488 0.772347 0)
(4.04286 0.41321 8.22758e-19)
(4.29574 0.638734 -3.03422e-20)
(4.24573 0.711001 -4.52304e-19)
(4.17287 0.63854 0)
(3.61729 0.129452 1.71617e-18)
(4.19028 0.181893 2.14161e-18)
(4.09145 0.150396 -1.67745e-18)
(4.1377 0.239004 -1.44111e-18)
(3.74764 0.236797 -2.15386e-18)
(3.30773 0.375048 0)
(3.40668 0.301125 0)
(2.56165 0.190249 -1.26468e-18)
(2.11208 0.118916 4.7627e-19)
(4.03876 0.350742 1.93787e-18)
(4.28671 0.429758 -2.34395e-18)
(4.28584 0.486256 2.06655e-18)
(4.15886 0.490212 0)
(4.25591 0.334442 0)
(4.26548 0.320873 -9.79808e-19)
(4.21454 0.31401 -1.59449e-18)
(2.24122 3.50147 6.20153e-19)
(1.95607 3.25376 -6.83812e-19)
(1.4643 2.38042 -1.03363e-18)
(1.20208 2.01733 2.67298e-19)
(0.895574 1.395 -2.63423e-18)
(0.803476 1.22929 9.23638e-19)
(0.608162 0.91459 -1.89304e-21)
(1.12907 1.80448 -1.13989e-18)
(1.15713 1.90353 1.70164e-18)
(0.986685 1.71739 5.06896e-19)
(0.795307 1.30229 -5.13527e-19)
(0.642488 1.08531 0)
(2.46624 2.61877 -1.15404e-19)
(0.71849 1.15186 8.59164e-19)
(0.9406 0.899854 1.1582e-18)
(0.766704 0.821475 1.34079e-18)
(1.09512 0.753943 1.34289e-18)
(1.48356 1.05421 -2.27312e-18)
(1.39951 1.08211 1.84187e-18)
(1.01386 0.774135 -6.77922e-19)
(0.826019 0.574045 1.49691e-18)
(1.62345 0.492342 -7.77737e-19)
(1.56799 0.510573 0)
(1.24599 0.408994 4.70847e-21)
(2.52824 1.52146 7.75857e-19)
(2.09852 1.27713 -2.80981e-18)
(1.70467 1.19414 9.41346e-21)
(1.67754 1.1002 0)
(2.8785 2.59888 8.73319e-19)
(3.44745 2.74311 1.03574e-18)
(3.25796 2.92464 -1.19397e-18)
(3.54985 2.75196 -4.27664e-19)
(3.47364 2.58599 -1.34765e-19)
(3.50423 2.77887 1.38596e-19)
(3.68032 2.25783 -1.67725e-18)
(3.70221 2.48274 4.00727e-19)
(3.77699 2.42214 0)
(3.77678 2.17844 -5.79019e-19)
(4.05211 1.06891 5.79808e-19)
(4.27357 0.987302 1.00102e-18)
(4.29921 0.961003 1.0104e-18)
(4.05765 1.32332 -1.14823e-18)
(4.09935 1.34139 0)
(4.1481 1.22568 0)
(3.33957 1.23392 -1.53344e-20)
(2.42851 0.667231 0)
(2.73241 0.74392 9.30041e-19)
(3.24826 0.883859 -2.62341e-20)
(3.78028 1.52992 5.10118e-18)
(3.57939 1.75768 1.30963e-18)
(3.49208 1.53796 -1.33959e-18)
(3.05216 1.36984 1.43632e-18)
(2.7772 1.37141 8.23604e-19)
(2.3232 1.15967 -7.97651e-19)
(3.67206 -0.0857257 1.98271e-18)
(3.89467 -0.0291266 0)
(3.85891 -0.0667321 1.34078e-18)
(3.74285 -0.0595836 -2.98488e-18)
(3.98056 0.037113 1.46053e-18)
(3.90451 0.113173 -3.07991e-18)
(3.73996 0.127765 0)
(3.55642 0.173313 -6.27926e-19)
(3.81201 0.122822 1.60372e-18)
(3.69201 0.191241 -8.21763e-19)
(3.60038 0.170942 5.90131e-19)
(-0.0848679 2.60544 0)
(-0.0551242 3.40624 0)
(-0.0362237 2.47087 0)
(-0.0242625 1.98197 0)
(0.0348703 3.93205 6.71932e-19)
(0.130286 3.71176 -1.73679e-19)
(0.303817 4.63159 -2.29734e-19)
(0.239345 4.44384 2.42431e-19)
(-0.0388226 4.28816 -4.98348e-19)
(-0.00211558 4.31928 3.74222e-19)
(0.0838981 3.86209 2.23773e-20)
(0.000450249 3.55291 -4.67781e-19)
(-0.0200245 3.31131 -6.24038e-20)
(-0.0494572 3.67205 -5.68516e-20)
(0.14117 4.48062 -5.86273e-19)
(0.168048 4.2994 0)
(0.263155 4.63737 2.96093e-19)
(0.254644 4.704 2.5296e-19)
(0.586993 4.45103 -2.25839e-19)
(0.405659 3.80861 0)
(0.455252 3.65528 -1.11589e-18)
(0.559242 4.02395 7.90676e-19)
(0.470554 4.566 -6.14521e-19)
(0.360136 4.44293 3.3063e-19)
(0.292418 4.17597 0)
(-0.0504741 4.75416 -5.53229e-19)
(-0.0879166 4.51899 -6.41087e-19)
(-0.0908816 4.7302 0)
(-0.0410803 4.35794 -6.2018e-21)
(-0.0332614 4.63814 2.74214e-19)
(-0.128876 3.89484 4.48969e-20)
(-0.0625689 3.50941 -6.5669e-19)
(-0.106074 3.94341 1.75168e-19)
(-0.15113 4.52071 2.3316e-19)
(-0.0899227 4.33157 0)
(-0.0712212 3.90958 0)
(-0.0869009 2.94008 2.02247e-19)
(-0.0553699 3.66771 -6.31034e-20)
(-0.0808545 3.65171 0)
(-0.091149 2.72376 1.59345e-19)
(-0.0482842 2.22883 -3.08644e-19)
(3.76063 0.0318891 0)
(3.73145 0.00727543 -2.03069e-19)
(4.17937 0.0671611 -1.43845e-18)
(4.0887 0.0455201 0)
(3.87564 0.017094 0)
(4.14969 0.0364697 -1.24913e-20)
(4.10027 0.0344391 2.3765e-18)
(4.00033 0.0796062 2.84264e-18)
(3.75633 0.11817 0)
(3.55863 0.109599 0)
(4.01369 0.0931407 1.41596e-18)
(3.70395 0.115497 0)
(3.47297 0.128395 0)
(-0.0931206 4.68088 0)
(-0.116995 4.65468 1.0771e-20)
(-0.0900841 4.70307 6.34446e-20)
(-0.0696285 3.86312 0)
(-0.122412 4.53822 1.11287e-19)
(-0.0788649 4.26377 -6.36315e-20)
(-0.0642085 3.96757 0)
(1.41321 4.20149 0)
(1.20014 4.56964 -1.29689e-18)
(1.21812 4.48713 0)
(1.56546 4.47333 1.48435e-18)
(1.5795 4.09173 0)
(1.4886 4.35003 -6.06735e-19)
(1.02489 2.27052 -3.40418e-20)
(0.719826 1.66771 -1.74986e-18)
(0.59934 1.24408 2.13481e-18)
(0.718309 1.86024 3.98022e-19)
(0.987032 2.4551 0)
(1.04991 2.40941 0)
(0.728071 1.71064 0)
(0.539733 1.34902 -1.39957e-18)
(1.21717 3.80004 -9.84417e-19)
(1.13969 3.02144 -2.35877e-19)
(1.33806 3.43394 1.92911e-19)
(0.605624 2.06743 0)
(0.627996 1.96856 0)
(0.46815 1.59289 -3.93986e-19)
(0.967458 2.75208 0)
(2.68997 3.56813 0)
(2.39861 3.02168 -1.4546e-18)
(2.56104 3.03542 -8.58365e-20)
(2.43279 3.41409 0)
(2.30442 3.16583 2.22125e-18)
(3.27981 3.0784 -3.89437e-19)
(3.12671 3.30868 0)
(3.10979 3.1343 6.29981e-19)
(2.87014 3.40693 0)
(2.88713 3.19978 0)
(1.22537 2.03117 -9.32355e-19)
(1.43222 2.43057 -7.00527e-19)
(1.77189 3.00812 1.20713e-18)
(1.71409 2.98781 -3.62817e-19)
(1.07662 1.84528 0)
(1.22158 2.23497 4.71878e-19)
(0.728154 1.30526 -7.16996e-19)
(0.589395 1.05726 -6.21438e-22)
(1.94946 3.71518 0)
(2.20842 3.7529 -5.42335e-19)
(2.34124 3.98296 0)
(2.29146 0.528797 0)
(1.62295 0.342397 0)
(1.21378 0.277229 0)
(2.21751 0.554439 -1.46427e-18)
(1.64226 0.403 8.16867e-19)
(2.14942 0.128922 -9.84129e-19)
(2.63132 0.297084 0)
(2.47048 0.30136 4.13092e-19)
(1.77369 0.13565 1.63143e-18)
(1.5333 0.0812685 -1.03602e-18)
(0.754369 1.56985 8.59497e-19)
(0.972155 1.83713 0)
(0.544082 1.45188 1.564e-18)
(0.531836 1.62503 -1.42795e-18)
(0.768751 1.82698 -9.90689e-19)
(2.09607 2.47939 1.33919e-18)
(2.1194 2.73053 0)
(1.60518 1.69422 -2.76778e-19)
(2.03269 2.00477 1.74624e-18)
(1.37854 1.30619 -4.24161e-19)
(1.60823 1.32614 4.51403e-19)
(2.13049 1.52272 1.02404e-18)
(2.46392 1.67852 0)
(2.29802 1.86733 0)
(2.03143 1.61802 0)
(3.95527 2.06881 3.84227e-19)
(3.76617 1.8833 -1.2621e-18)
(3.82211 2.01994 1.04515e-18)
(3.90499 1.76363 -1.00707e-18)
(4.15475 1.66486 0)
(4.11206 1.83031 -2.97524e-19)
(2.85537 1.16398 -1.89646e-18)
(2.98422 1.16308 -2.41108e-18)
(2.34695 1.0459 1.45585e-18)
(2.15196 0.937019 -1.4198e-18)
(2.47596 0.847001 -1.17766e-18)
(2.1908 0.779004 1.44822e-18)
(4.00842 0.0331852 -1.52735e-18)
(4.05273 0.0403354 3.12703e-18)
(3.76781 -0.0661392 1.89902e-18)
(3.791 -0.0740468 -2.2845e-18)
(3.95933 0.0101264 0)
(4.05592 0.0224148 -3.72597e-18)
(0.0806785 4.75356 1.06681e-19)
(0.0516936 4.72218 0)
(0.174792 4.7251 9.52629e-19)
(0.196235 4.74143 -8.66681e-19)
(0.21599 4.70566 4.28379e-19)
(0.107155 4.64652 0)
(-0.114997 4.76029 0)
(-0.119576 4.40828 -6.20892e-20)
(-0.118492 4.34557 5.56592e-20)
(-0.127081 4.48588 7.47199e-21)
(-0.118014 4.70604 -1.01436e-19)
(-0.0956098 4.69444 5.5081e-20)
(1.88129 4.01798 -1.64237e-18)
(1.82012 4.02695 1.73984e-18)
(1.67702 4.39612 -8.53897e-19)
(1.69566 4.2843 7.6136e-20)
(2.24835 4.06234 0)
(1.84299 4.1947 -6.36925e-19)
(1.97051 3.93236 6.17706e-19)
(1.81352 4.36193 8.34092e-19)
(2.06855 4.21021 0)
(2.22191 4.09014 0)
(1.14647 3.65832 1.49649e-18)
(0.835251 2.8436 2.02805e-18)
(0.963202 3.02198 -1.39274e-18)
(0.754521 3.00501 -2.32517e-19)
(0.908236 3.7615 4.6707e-19)
(0.727947 3.39694 -1.13604e-18)
(0.756458 1.48506 -1.21821e-18)
(0.755938 1.33429 0)
(0.610578 1.12914 -1.33887e-18)
(1.12498 2.08967 0)
(1.10247 2.17695 0)
(1.37795 2.20818 -1.09252e-18)
(1.07863 2.03169 -1.03782e-18)
(1.03106 2.05109 1.10078e-18)
(1.04922 1.53195 0)
(1.4317 1.7779 -6.02217e-19)
(1.64894 2.13759 -8.56058e-19)
(1.43099 2.09937 0)
(0.882002 1.83038 7.14086e-19)
(0.793741 1.68941 0)
(2.92469 2.29376 -1.84547e-18)
(3.32882 2.46808 2.60613e-18)
(3.29082 2.19136 -2.59036e-18)
(2.63098 2.02873 -2.31114e-19)
(2.74449 1.94554 -9.73737e-19)
(1.27873 2.20948 7.97576e-19)
(1.33337 2.26631 -1.36201e-18)
(1.47383 2.34937 1.79528e-18)
(1.81166 2.57976 -1.16678e-18)
(1.90917 2.95578 -1.5683e-18)
(1.5827 2.51162 -1.18831e-19)
(1.65281 2.6532 1.3732e-18)
(1.83154 2.71544 9.67456e-20)
(2.03802 3.01973 6.50737e-19)
)
;

boundaryField
{
    wall-4
    {
        type            noSlip;
    }
    velocity-inlet-5
    {
        type            fixedValue;
        value           uniform (3 0 0);
    }
    velocity-inlet-6
    {
        type            fixedValue;
        value           uniform (0 1 0);
    }
    pressure-outlet-7
    {
        type            zeroGradient;
    }
    wall-8
    {
        type            noSlip;
    }
    frontAndBackPlanes
    {
        type            empty;
    }
}


// ************************************************************************* //
