# vtk DataFile Version 2.0
track0
ASCII
DATASET POLYDATA
POINTS 12190 float
-0.0205 0.001 1e-05
-0.02052 0.000999985 1e-05
-0.02054 0.000999973 1e-05
-0.02056 0.000999964 1e-05
-0.02058 0.000999958 1e-05
-0.0206 0.000999955 1e-05
-0.0205 0.00367778 1e-05
-0.02052 0.00367778 1e-05
-0.02054 0.00367778 1e-05
-0.02056 0.00367778 1e-05
-0.02058 0.00367778 1e-05
-0.0206 0.00367777 1e-05
-0.0205 0.00635556 1e-05
-0.02052 0.00635555 1e-05
-0.02054 0.00635555 1e-05
-0.02056 0.00635555 1e-05
-0.02058 0.00635555 1e-05
-0.0206 0.00635555 1e-05
-0.0205 0.00903333 1e-05
-0.02052 0.00903334 1e-05
-0.02054 0.00903334 1e-05
-0.02056 0.00903334 1e-05
-0.02058 0.00903334 1e-05
-0.0206 0.00903334 1e-05
-0.0205 0.0117111 1e-05
-0.02052 0.0117111 1e-05
-0.02054 0.0117111 1e-05
-0.02056 0.0117111 1e-05
-0.02058 0.0117111 1e-05
-0.0206 0.0117111 1e-05
-0.0205 0.0143889 1e-05
-0.02052 0.0143889 1e-05
-0.02054 0.0143889 1e-05
-0.02056 0.0143889 1e-05
-0.02058 0.0143889 1e-05
-0.0206 0.0143889 1e-05
-0.0205 0.0170667 1e-05
-0.02052 0.0170667 1e-05
-0.02054 0.0170667 1e-05
-0.02056 0.0170667 1e-05
-0.02058 0.0170667 1e-05
-0.0206 0.0170667 1e-05
-0.0205 0.0197444 1e-05
-0.02052 0.0197444 1e-05
-0.02054 0.0197444 1e-05
-0.02056 0.0197444 1e-05
-0.02058 0.0197444 1e-05
-0.0206 0.0197444 1e-05
-0.0205 0.0224222 1e-05
-0.02052 0.0224222 1e-05
-0.02054 0.0224222 1e-05
-0.02056 0.0224222 1e-05
-0.02058 0.0224222 1e-05
-0.0206 0.0224222 1e-05
-0.0205 0.0251 1e-05
-0.02052 0.0250998 1e-05
-0.02054 0.0250997 1e-05
-0.02056 0.0250995 1e-05
-0.02058 0.0250995 1e-05
-0.0206 0.0250994 1e-05
-0.0205 0.001 1e-05
-0.0202034 0.00100022 1e-05
-0.0199069 0.00100069 1e-05
-0.0196103 0.00100136 1e-05
-0.0193137 0.00100225 1e-05
-0.0190172 0.00100335 1e-05
-0.0187132 0.00100479 1e-05
-0.0184093 0.00100603 1e-05
-0.0181054 0.00100726 1e-05
-0.0178015 0.00100849 1e-05
-0.0174976 0.00100973 1e-05
-0.0172058 0.00101105 1e-05
-0.016914 0.00101217 1e-05
-0.0166222 0.00101328 1e-05
-0.0163305 0.00101438 1e-05
-0.0160387 0.00101546 1e-05
-0.0157586 0.00101656 1e-05
-0.0154784 0.00101762 1e-05
-0.0151983 0.00101872 1e-05
-0.0149182 0.00101986 1e-05
-0.0146381 0.00102105 1e-05
-0.0143818 0.0010222 1e-05
-0.0141255 0.00102339 1e-05
-0.0138692 0.00102463 1e-05
-0.0136129 0.00102594 1e-05
-0.013447 0.00102682 1e-05
-0.0134163 0.00102698 1e-05
-0.0133856 0.00102715 1e-05
-0.0133549 0.00102732 1e-05
-0.0133242 0.00102749 1e-05
-0.0132934 0.00102766 1e-05
-0.0130353 0.00102911 1e-05
-0.0127771 0.00103058 1e-05
-0.0125189 0.00103209 1e-05
-0.0122607 0.00103363 1e-05
-0.0120025 0.0010352 1e-05
-0.0117547 0.00103673 1e-05
-0.0115068 0.00103825 1e-05
-0.0112589 0.00103978 1e-05
-0.0110111 0.0010413 1e-05
-0.0107632 0.00104281 1e-05
-0.0105252 0.00104425 1e-05
-0.0102873 0.00104569 1e-05
-0.0100493 0.00104711 1e-05
-0.00981133 0.00104852 1e-05
-0.00957337 0.00104992 1e-05
-0.00934491 0.00105125 1e-05
-0.00911645 0.00105258 1e-05
-0.00888799 0.00105391 1e-05
-0.00865954 0.00105523 1e-05
-0.00843108 0.00105654 1e-05
-0.00821175 0.0010578 1e-05
-0.00799242 0.00105906 1e-05
-0.00777309 0.00106033 1e-05
-0.00755376 0.00106161 1e-05
-0.00733443 0.0010629 1e-05
-0.00712387 0.00106414 1e-05
-0.0069133 0.00106541 1e-05
-0.00670273 0.0010667 1e-05
-0.00649217 0.00106802 1e-05
-0.0062816 0.00106936 1e-05
-0.00607944 0.00107067 1e-05
-0.00587729 0.00107202 1e-05
-0.00567514 0.00107343 1e-05
-0.00547298 0.00107489 1e-05
-0.00527083 0.0010764 1e-05
-0.00507675 0.0010779 1e-05
-0.00488268 0.0010795 1e-05
-0.0046886 0.00108119 1e-05
-0.00449453 0.00108298 1e-05
-0.00430044 0.00108487 1e-05
-0.00411412 0.00108679 1e-05
-0.0039278 0.00108887 1e-05
-0.00374148 0.00109112 1e-05
-0.00355516 0.00109356 1e-05
-0.00336883 0.00109618 1e-05
-0.00318995 0.0010989 1e-05
-0.00301107 0.0011019 1e-05
-0.00283221 0.00110524 1e-05
-0.00265334 0.00110892 1e-05
-0.00247443 0.00111296 1e-05
-0.0023027 0.00111724 1e-05
-0.00213098 0.00112197 1e-05
-0.00195928 0.00112723 1e-05
-0.00178759 0.00113301 1e-05
-0.00161577 0.00113933 1e-05
-0.0014509 0.00114592 1e-05
-0.00128606 0.00115314 1e-05
-0.00112125 0.00116121 1e-05
-0.000956505 0.00117038 1e-05
-0.000791418 0.00118077 1e-05
-0.000633135 0.0011919 1e-05
-0.000474933 0.00120413 1e-05
-0.000316818 0.00121745 1e-05
-0.000158765 0.00123148 1e-05
0 0.00124578 1e-05
0.000105677 0.00125542 1e-05
0.000211359 0.00126502 1e-05
0.000317045 0.00127458 1e-05
0.000422753 0.00128388 1e-05
0.000528387 0.00129276 1e-05
0.000634886 0.00130127 1e-05
0.000741431 0.00130919 1e-05
0.000848015 0.00131656 1e-05
0.000954632 0.00132344 1e-05
0.00106088 0.00132973 1e-05
0.00116821 0.00133542 1e-05
0.00127557 0.00134044 1e-05
0.00138296 0.00134485 1e-05
0.00149037 0.0013487 1e-05
0.00159752 0.00135195 1e-05
0.00170568 0.00135454 1e-05
0.00181385 0.0013565 1e-05
0.00192204 0.00135786 1e-05
0.00203023 0.00135863 1e-05
0.00213833 0.00135879 1e-05
0.00224733 0.00135824 1e-05
0.00235633 0.00135705 1e-05
0.00246531 0.00135525 1e-05
0.00257429 0.00135285 1e-05
0.00268334 0.00134982 1e-05
0.00279319 0.00134605 1e-05
0.00290301 0.00134164 1e-05
0.00301281 0.00133662 1e-05
0.00312258 0.00133102 1e-05
0.00323259 0.00132476 1e-05
0.00334329 0.0013178 1e-05
0.00345395 0.00131021 1e-05
0.00356457 0.00130201 1e-05
0.00367515 0.00129326 1e-05
0.00378611 0.00128386 1e-05
0.00389767 0.0012738 1e-05
0.00400918 0.00126316 1e-05
0.00412064 0.00125196 1e-05
0.00423204 0.00124018 1e-05
0.00434393 0.00122779 1e-05
0.00445636 0.00121476 1e-05
0.00456873 0.00120122 1e-05
0.00468104 0.00118716 1e-05
0.00479328 0.00117255 1e-05
0.00490609 0.00115731 1e-05
0.00500425 0.00114357 1e-05
0.00510236 0.00112949 1e-05
0.00520042 0.00111504 1e-05
0.00529842 0.00110022 1e-05
0.00537459 0.00108839 1e-05
0.0053942 0.00108528 1e-05
0.0054138 0.00108215 1e-05
0.0054334 0.00107901 1e-05
0.005453 0.00107585 1e-05
0.00547262 0.00107267 1e-05
0.00558681 0.00105406 1e-05
0.00570091 0.00103493 1e-05
0.00581492 0.00101528 1e-05
0.00592884 0.000995083 1e-05
0.00604356 0.000974167 1e-05
0.00615863 0.000952606 1e-05
0.0062736 0.000930479 1e-05
0.00638845 0.00090777 1e-05
0.00650319 0.000884461 1e-05
0.00661893 0.000860303 1e-05
0.0067349 0.000835419 1e-05
0.00685073 0.000809875 1e-05
0.0069664 0.000783647 1e-05
0.00708191 0.000756708 1e-05
0.00719878 0.000728663 1e-05
0.00720842 0.000726282 1e-05
0.00721805 0.000723894 1e-05
0.00722768 0.000721501 1e-05
0.00723732 0.000719103 1e-05
0.00724673 0.000716753 1e-05
0.00735401 0.000689907 1e-05
0.00746111 0.000662344 1e-05
0.00756801 0.000634036 1e-05
0.00767471 0.000604956 1e-05
0.00778313 0.000574563 1e-05
0.00790091 0.000540619 1e-05
0.00801839 0.000505626 1e-05
0.00813553 0.000469542 1e-05
0.00825235 0.000432423 1e-05
0.00837203 0.00039318 1e-05
0.0083962 0.000384991 1e-05
0.00842034 0.000376749 1e-05
0.00844447 0.000368454 1e-05
0.00846858 0.000360111 1e-05
0.00849121 0.00035223 1e-05
0.00858607 0.000318988 1e-05
0.00868065 0.000284951 1e-05
0.00877493 0.000250093 1e-05
0.00886889 0.000214387 1e-05
0.00896551 0.000176725 1e-05
0.00905384 0.00014138 1e-05
0.00914186 0.000105259 1e-05
0.00922954 6.83375e-05 1e-05
0.00931692 3.06991e-05 1e-05
0.00938656 0 1e-05
0.00942197 -1.59016e-05 1e-05
0.00945732 -3.19274e-05 1e-05
0.00949262 -4.80789e-05 1e-05
0.00952785 -6.43565e-05 1e-05
0.0095636 -8.1011e-05 1e-05
0.00968415 -0.00013766 1e-05
0.00980404 -0.000195696 1e-05
0.00992322 -0.000255165 1e-05
0.0100417 -0.000315973 1e-05
0.0101663 -0.000381694 1e-05
0.010169 -0.00038313 1e-05
0.0101716 -0.000384568 1e-05
0.0101743 -0.000386005 1e-05
0.0101769 -0.000387444 1e-05
0.0101795 -0.000388876 1e-05
0.0102984 -0.000453634 1e-05
0.0104165 -0.000519643 1e-05
0.010534 -0.000586939 1e-05
0.0106506 -0.000655528 1e-05
0.0107738 -0.000729587 1e-05
0.0108035 -0.000747949 1e-05
0.0108333 -0.000766392 1e-05
0.0108629 -0.000784919 1e-05
0.0108926 -0.000803521 1e-05
0.0109209 -0.000821383 1e-05
0.0110139 -0.000880415 1e-05
0.0111064 -0.000940166 1e-05
0.0111985 -0.00100065 1e-05
0.0112901 -0.00106186 1e-05
0.0113859 -0.00112692 1e-05
0.0114365 -0.00116182 1e-05
0.0114869 -0.00119694 1e-05
0.0115371 -0.00123227 1e-05
0.0115873 -0.00126781 1e-05
0.0116343 -0.0013014 1e-05
0.011708 -0.00135451 1e-05
0.0117814 -0.00140804 1e-05
0.0118545 -0.00146199 1e-05
0.0119273 -0.00151637 1e-05
0.0120028 -0.00157346 1e-05
0.0120709 -0.00162547 1e-05
0.0121386 -0.00167784 1e-05
0.0122061 -0.00173057 1e-05
0.0122734 -0.00178364 1e-05
0.0123358 -0.00183346 1e-05
0.0123936 -0.00187995 1e-05
0.0124511 -0.0019267 1e-05
0.0125085 -0.00197368 1e-05
0.0125656 -0.00202091 1e-05
0.0126245 -0.00207001 1e-05
0.0127085 -0.00214057 1e-05
0.0127921 -0.00221163 1e-05
0.0128752 -0.00228321 1e-05
0.0129578 -0.00235529 1e-05
0.0130342 -0.00242267 1e-05
0.0130776 -0.00246138 1e-05
0.0131208 -0.00250021 1e-05
0.013164 -0.00253918 1e-05
0.013207 -0.00257828 1e-05
0.0132511 -0.00261858 1e-05
0.0133503 -0.00270985 1e-05
0.013449 -0.0028018 1e-05
0.0135469 -0.00289445 1e-05
0.0136442 -0.00298776 1e-05
0.0137337 -0.00307474 1e-05
0.0137635 -0.00310404 1e-05
0.0137932 -0.0031334 1e-05
0.0138228 -0.00316282 1e-05
0.0138524 -0.0031923 1e-05
0.0138825 -0.00322243 1e-05
0.0139967 -0.00333719 1e-05
0.0141101 -0.00345283 1e-05
0.0142225 -0.00356939 1e-05
0.014334 -0.00368681 1e-05
0.0144361 -0.00379598 1e-05
0.0144527 -0.00381392 1e-05
0.0144692 -0.00383189 1e-05
0.0144857 -0.00384987 1e-05
0.0145022 -0.00386787 1e-05
0.0145188 -0.00388611 1e-05
0.0146471 -0.0040268 1e-05
0.0147741 -0.0041686 1e-05
0.0148999 -0.00431151 1e-05
0.0150244 -0.0044555 1e-05
0.0151416 -0.00459338 1e-05
0.0151453 -0.00459779 1e-05
0.015149 -0.0046022 1e-05
0.0151527 -0.00460662 1e-05
0.0151564 -0.00461103 1e-05
0.0151601 -0.00461545 1e-05
0.0152893 -0.00477046 1e-05
0.0154173 -0.00492656 1e-05
0.0155438 -0.00508378 1e-05
0.015669 -0.00524208 1e-05
0.0158063 -0.00541872 1e-05
0.0158149 -0.00542991 1e-05
0.0158234 -0.00544111 1e-05
0.0158319 -0.00545232 1e-05
0.0158404 -0.00546353 1e-05
0.0158489 -0.00547469 1e-05
0.0159706 -0.00563543 1e-05
0.0160911 -0.00579712 1e-05
[...]
POINT_DATA 12190
 FIELD attributes 1
U 3 12190 float
10.0027 	0.00754502 	0 10.0022 	0.00603602 	0 10.0016 	0.00452701 	0 10.0011 	0.00301801 	0 10.0005 	0.001509 	0 10 	0 	0
10.0014 	0.000483659 	0 10.0012 	0.000386927 	0 10.0009 	0.000290196 	0 10.0006 	0.000193464 	0 10.0003 	9.67319e-05 	0 10 	0 	0
10.0003 	0.000639166 	0 10.0002 	0.000503234 	0 10.0002 	0.000367295 	0 10.0001 	0.00023135 	0 10.0001 	9.53979e-05 	0 10 	0 	0
10.0008 	-0.000943546 	0 10.0006 	-0.000754836 	0 10.0005 	-0.000566127 	0 10.0003 	-0.000377418 	0 10.0002 	-0.000188709 	0 10 	0 	0
10.0003 	-0.000644322 	0 10.0002 	-0.000515458 	0 10.0002 	-0.000386593 	0 10.0001 	-0.000257729 	0 10.0001 	-0.000128864 	0 10 	0 	0
10.0004 	-0.000508803 	0 10.0004 	-0.000407042 	0 10.0003 	-0.000305282 	0 10.0002 	-0.000203521 	0 10.0001 	-0.000101761 	0 10 	0 	0
10.0007 	-0.000445546 	0 10.0005 	-0.000356437 	0 10.0004 	-0.000267328 	0 10.0003 	-0.000178219 	0 10.0001 	-8.91093e-05 	0 10 	0 	0
10.0011 	-0.000385554 	0 10.0008 	-0.000308444 	0 10.0006 	-0.000231333 	0 10.0004 	-0.000154222 	0 10.0002 	-7.71109e-05 	0 10 	0 	0
10.0013 	-0.0002596 	0 10.001 	-0.00020768 	0 10.0008 	-0.00015576 	0 10.0005 	-0.00010384 	0 10.0003 	-5.19199e-05 	0 10 	0 	0
9.1768 	0.0872793 	0 9.13315 	0.0698235 	0 9.08917 	0.0523673 	0 9.04486 	0.0349109 	0 9.00022 	0.0174544 	0 8.95525 	0 	0
10.0027 	0.00754502 	0 10.0063 	0.0156114 	0 10.0097 	0.0228175 	0 10.013 	0.0299769 	0 10.0163 	0.0370896 	0 10.0204 	0.0474091 	0 10.0212 	0.0408433 	0 10.0247 	0.0407741 	0 10.0281 	0.0407052 	0 10.0316 	0.0406364 	0 10.0373 	0.0454694 	0 10.0407 	0.038681 	0 10.0445 	0.0381914 	0 10.0482 	0.0377018 	0 10.052 	0.0372123 	0 10.0555 	0.0397361 	0 10.0545 	0.0379441 	0 10.0532 	0.0394868 	0 10.052 	0.0410308 	0 10.0508 	0.042576 	0 10.049 	0.0452226 	0 10.0462 	0.0464675 	0 10.0432 	0.0487476 	0 10.0402 	0.0510288 	0 10.0371 	0.0533109 	0 10.0352 	0.0547892 	0 10.0348 	0.0550635 	0 10.0344 	0.0553379 	0 10.0341 	0.0556122 	0 10.0337 	0.0558866 	0 10.0334 	0.0561539 	0 10.0304 	0.057337 	0 10.0275 	0.058508 	0 10.0245 	0.0596799 	0 10.0215 	0.0608526 	0 10.0186 	0.0618709 	0 10.0157 	0.0617289 	0 10.0123 	0.0615141 	0 10.0089 	0.0612993 	0 10.0054 	0.0610844 	0 10.0016 	0.0607211 	0 9.99841 	0.060284 	0 9.99379 	0.0597703 	0 9.98917 	0.0592564 	0 9.98455 	0.0587423 	0 9.97903 	0.0581525 	0 9.97601 	0.0580086 	0 9.97064 	0.0577754 	0 9.96527 	0.057542 	0 9.95991 	0.0573086 	0 9.953 	0.0570278 	0 9.95074 	0.0574001 	0 9.94515 	0.0576949 	0 9.93955 	0.0579898 	0 9.93397 	0.0582848 	0 9.92604 	0.0585949 	0 9.92466 	0.0597435 	0 9.91896 	0.0608146 	0 9.91326 	0.061886 	0 9.90758 	0.0629578 	0 9.89867 	0.0641504 	0 9.89792 	0.0665351 	0 9.89162 	0.0689297 	0 9.88534 	0.0713254 	0 9.87908 	0.073722 	0 9.86848 	0.0765142 	0 9.86779 	0.0810699 	0 9.86013 	0.0859423 	0 9.85251 	0.0908169 	0 9.84493 	0.0956935 	0 9.83207 	0.101498 	0 9.83171 	0.109661 	0 9.82226 	0.11897 	0 9.81289 	0.128282 	0 9.80361 	0.137597 	0 9.78822 	0.149034 	0 9.78981 	0.163968 	0 9.78105 	0.182696 	0 9.77249 	0.20142 	0 9.76391 	0.220306 	0 9.75104 	0.242809 	0 9.75956 	0.269188 	0 9.75625 	0.298476 	0 9.75098 	0.328316 	0 9.74427 	0.358416 	0 9.73416 	0.389087 	0 9.75026 	0.427475 	0 9.77053 	0.478301 	0 9.79623 	0.545234 	0 9.83062 	0.618489 	0 9.86869 	0.69391 	0 9.93046 	0.767935 	0 9.9929 	0.841591 	0 10.0665 	0.893915 	9.86587e-21 10.1466 	0.913727 	4.88221e-20 10.227 	0.933481 	8.81046e-20 10.3248 	0.937753 	-4.07633e-19 10.4227 	0.942061 	-9.03428e-19 10.4897 	0.923127 	-8.22143e-19 10.5456 	0.886196 	-3.1457e-19 10.5999 	0.847301 	2.46157e-19 10.6999 	0.795227 	3.69209e-19 10.7782 	0.745509 	4.03898e-19 10.828 	0.698717 	3.23058e-19 10.8608 	0.643362 	2.02175e-19 10.8702 	0.576363 	2.64774e-20 10.9406 	0.511022 	-1.00082e-21 10.9756 	0.451407 	-2.77731e-20 10.998 	0.393951 	-5.41518e-20 11.0113 	0.334112 	-8.08974e-20 10.9815 	0.262664 	-1.10115e-19 11.0257 	0.199547 	-8.19686e-20 11.032 	0.138871 	-4.29307e-20 11.0325 	0.078601 	-2.12837e-21 11.0262 	0.0166568 	3.62109e-20 10.9766 	-0.0557353 	5.87409e-20 11.0032 	-0.120273 	1.06647e-19 10.9953 	-0.181371 	1.11297e-19 10.9795 	-0.241724 	1.06182e-19 10.9498 	-0.304561 	8.55644e-20 10.8865 	-0.373353 	2.69049e-20 10.8928 	-0.437277 	-1.18449e-20 10.8785 	-0.497278 	-3.83212e-20 10.8464 	-0.553927 	-5.42652e-20 10.7863 	-0.613145 	-4.79222e-20 10.7087 	-0.674194 	-2.76823e-20 10.6914 	-0.732618 	-2.90718e-20 10.6735 	-0.791147 	-3.02547e-20 10.6212 	-0.841001 	-2.05344e-20 10.5325 	-0.891552 	-9.52228e-21 10.4432 	-0.942584 	1.52553e-21 10.4038 	-0.991934 	2.0577e-20 10.3641 	-1.04155 	3.96178e-20 10.295 	-1.08873 	3.56885e-20 10.1971 	-1.12928 	9.50678e-21 10.0985 	-1.17035 	-1.68074e-20 10.0405 	-1.20971 	-8.09911e-21 9.96964 	-1.24837 	-2.67539e-21 9.88152 	-1.286 	-1.66018e-21 9.79085 	-1.32306 	-2.44914e-21 9.68501 	-1.35497 	-1.47546e-20 9.61829 	-1.38057 	3.7252e-21 9.53397 	-1.40492 	3.84408e-22 9.44941 	-1.42951 	-3.02918e-21 9.36462 	-1.45435 	-6.51727e-21 9.29848 	-1.47385 	-9.28934e-21 9.2815 	-1.47951 	-1.0419e-20 9.2645 	-1.48517 	-1.15541e-20 9.24749 	-1.49086 	-1.26947e-20 9.23045 	-1.49655 	-1.38195e-20 9.20904 	-1.50084 	-9.78777e-21 9.10903 	-1.52702 	-6.77308e-21 9.00546 	-1.55241 	-4.34785e-21 8.90154 	-1.57823 	-1.91113e-21 8.79358 	-1.60329 	-4.70857e-22 8.67106 	-1.62465 	-2.64373e-21 8.56923 	-1.64919 	-1.451e-21 8.46692 	-1.67416 	-2.72072e-22 8.3564 	-1.69765 	-7.76786e-22 8.23715 	-1.71924 	-2.98698e-21 8.11623 	-1.74152 	-5.23054e-21 8.00832 	-1.76614 	-4.10642e-21 7.8966 	-1.79051 	-3.02874e-21 7.78188 	-1.81485 	-1.99047e-21 7.66656 	-1.83971 	-9.70165e-22 7.54875 	-1.86575 	9.55857e-22 7.53955 	-1.86814 	7.07883e-22 7.5303 	-1.87048 	8.6446e-22 7.52101 	-1.87281 	1.2613e-21 7.51172 	-1.87515 	1.65795e-21 7.50263 	-1.87743 	2.04545e-21 7.39511 	-1.90323 	2.23061e-21 7.2869 	-1.92952 	2.2804e-21 7.17798 	-1.95633 	2.18953e-21 7.07038 	-1.98195 	6.12979e-21 6.96243 	-2.00662 	1.47581e-20 6.84388 	-2.03865 	7.22078e-21 6.7244 	-2.07136 	-3.955e-22 6.61195 	-2.10093 	-3.39989e-22 6.49945 	-2.13106 	4.70995e-22 6.38469 	-2.16361 	2.90559e-21 6.36053 	-2.17117 	2.958e-22 6.33691 	-2.17854 	-1.54778e-21 6.31511 	-2.1852 	-9.70965e-22 6.29327 	-2.19189 	-3.90767e-22 6.27273 	-2.19819 	1.57297e-22 6.18032 	-2.2242 	2.72755e-21 6.08715 	-2.25063 	5.35956e-21 5.9932 	-2.27748 	8.05538e-21 5.90777 	-2.30271 	4.21499e-21 5.82012 	-2.32889 	-5.84349e-22 5.73597 	-2.35403 	-5.91718e-21 5.65118 	-2.37955 	-1.12337e-20 5.57723 	-2.40242 	-8.59192e-21 5.50285 	-2.4256 	-5.83004e-21 5.44292 	-2.44442 	-3.56792e-21 5.41127 	-2.45308 	-3.53845e-21 5.37953 	-2.46179 	-3.50681e-21 5.34788 	-2.47049 	-3.47942e-21 5.31943 	-2.47823 	-3.55776e-21 5.29043 	-2.48614 	-3.63558e-21 5.19212 	-2.51341 	-2.04597e-21 5.09284 	-2.54121 	-4.44926e-22 5.00127 	-2.56628 	0 4.91218 	-2.59058 	0 4.81734 	-2.61706 	0 4.81528 	-2.61766 	0 4.81322 	-2.61825 	0 4.81133 	-2.61875 	7.58505e-25 4.80952 	-2.61921 	1.8222e-24 4.80771 	-2.61968 	2.88082e-24 4.72449 	-2.63942 	8.90775e-24 4.64049 	-2.65948 	1.43968e-23 4.55725 	-2.67898 	2.07584e-22 4.48023 	-2.6949 	1.2438e-21 4.39774 	-2.71208 	2.34826e-21 4.37766 	-2.71649 	3.4556e-21 4.35754 	-2.72091 	4.56178e-21 4.33864 	-2.72449 	4.42754e-21 4.32031 	-2.72768 	3.69933e-21 4.30273 	-2.73075 	2.99999e-21 4.24466 	-2.74028 	2.28128e-21 4.1862 	-2.74995 	1.55308e-21 4.12842 	-2.75892 	1.2033e-21 4.07361 	-2.76537 	2.03912e-21 4.01561 	-2.77229 	2.91271e-21 3.98541 	-2.77646 	5.66188e-22 3.95509 	-2.78067 	-1.77372e-21 3.92597 	-2.78372 	-1.62852e-21 3.89746 	-2.78616 	-1.69655e-22 3.87055 	-2.7885 	1.21207e-21 3.82883 	-2.79185 	1.97313e-21 3.78691 	-2.79527 	2.74593e-21 3.74538 	-2.79806 	3.03156e-21 3.70522 	-2.79914 	2.05062e-21 3.66315 	-2.80033 	1.03715e-21 3.62628 	-2.80228 	1.22649e-21 3.58923 	-2.80429 	1.41951e-21 3.55306 	-2.80504 	1.46999e-21 3.51731 	-2.80512 	1.44352e-21 3.4838 	-2.80523 	1.42185e-21 3.45367 	-2.80512 	8.95531e-22 3.42343 	-2.80504 	3.68893e-22 3.39338 	-2.80446 	8.65206e-23 3.36396 	-2.80266 	3.75131e-22 3.33341 	-2.80084 	6.73919e-22 3.29136 	-2.79971 	6.50076e-22 3.24907 	-2.79865 	6.28858e-22 3.20734 	-2.79624 	8.60332e-22 3.16584 	-2.7931 	1.23284e-21 3.12707 	-2.79025 	1.58137e-21 3.10593 	-2.78847 	2.18942e-21 3.08472 	-2.78671 	2.79966e-21 3.06364 	-2.78456 	2.56748e-21 3.04292 	-2.78155 	4.54413e-22 3.02157 	-2.77848 	-1.71511e-21 2.97504 	-2.77378 	-1.18572e-20 2.9282 	-2.76915 	-2.19559e-20 2.88187 	-2.76309 	-2.05513e-20 2.83569 	-2.75628 	-1.28441e-20 2.79266 	-2.75004 	-5.66846e-21 2.77904 	-2.74787 	-4.88474e-21 2.76539 	-2.7457 	-4.10026e-21 2.75186 	-2.74327 	-3.66502e-21 2.7386 	-2.74025 	-3.98821e-21 2.72504 	-2.73718 	-4.31713e-21 2.67474 	-2.72873 	-2.58007e-20 2.62404 	-2.72035 	-4.71131e-20 2.57403 	-2.71027 	-4.16181e-20 2.5242 	-2.69931 	-2.17117e-20 2.47786 	-2.68926 	-3.20039e-21 2.47075 	-2.6876 	-6.65657e-22 2.46363 	-2.68594 	1.87176e-21 2.4566 	-2.68413 	2.69198e-21 2.44978 	-2.68201 	-1.29306e-22 2.44286 	-2.67987 	-2.98147e-21 2.38995 	-2.66744 	-1.75205e-21 2.33657 	-2.65508 	-5.28978e-22 2.28416 	-2.64076 	-2.25716e-21 2.23208 	-2.62539 	-5.63187e-21 2.18215 	-2.61084 	-8.83966e-21 2.18067 	-2.61038 	-9.19489e-21 2.17918 	-2.60992 	-9.55017e-21 2.17773 	-2.60943 	-9.65092e-21 2.17633 	-2.60887 	-9.22712e-21 2.17493 	-2.60831 	-8.80217e-21 2.12515 	-2.59307 	1.63169e-20 2.07481 	-2.57767 	3.94097e-20 2.02523 	-2.56106 	4.49439e-20 1.97697 	-2.54261 	2.44416e-20 1.92303 	-2.52226 	1.89245e-21 1.91955 	-2.52124 	1.44263e-21 1.91607 	-2.52023 	9.92918e-22 1.91269 	-2.51911 	7.81732e-22 1.90941 	-2.5179 	7.75041e-22 1.90614 	-2.5167 	7.684e-22 1.86247 	-2.49964 	4.67536e-22 1.81844 	-2.48262 	1.68191e-22 1.77533 	-2.46463 	2.45201e-21 1.73436 	-2.44467 	9.7776e-21 1.68852 	-2.42258 	1.78874e-20 1.681 	-2.41982 	2.28453e-20 1.67347 	-2.41706 	2.77942e-20 1.66626 	-2.41404 	2.81415e-20 1.65934 	-2.4108 	2.45744e-20 1.65249 	-2.4076 	2.10424e-20 1.6161 	-2.38971 	1.47095e-20 1.57943 	-2.37184 	8.34492e-21 1.54424 	-2.35298 	-1.03064e-21 1.51214 	-2.33221 	-1.60677e-20 1.47646 	-2.30933 	-3.26663e-20 1.46604 	-2.30446 	-4.36459e-20 1.45559 	-2.2996 	-5.46021e-20 1.44589 	-2.2943 	-5.59642e-20 1.43683 	-2.28866 	-4.93618e-20 1.42787 	-2.2831 	-4.28491e-20 1.39936 	-2.26456 	-2.92722e-20 1.37064 	-2.24603 	-1.56907e-20 1.34489 	-2.2268 	-3.73414e-21 1.3249 	-2.20626 	5.1625e-21 1.30314 	-2.18402 	1.48044e-20 1.29104 	-2.17647 	1.77871e-20 1.27891 	-2.16891 	2.0777e-20 1.2689 	-2.16088 	1.97264e-20 1.26048 	-2.15249 	1.56804e-20 1.25215 	-2.14423 	1.16991e-20 1.2331 	-2.12537 	2.96678e-21 1.21396 	-2.10651 	-5.72283e-21 1.19911 	-2.08711 	-9.80481e-21 1.18825 	-2.06722 	-9.64947e-21 1.17698 	-2.04655 	-9.4903e-21 1.16937 	-2.03893 	-5.77217e-21 1.16175 	-2.03132 	-2.05648e-21 1.15565 	-2.0235 	2.32431e-21 1.15146 	-2.01545 	7.53202e-21 1.14728 	-2.00743 	1.27111e-20 1.13688 	-1.98683 	1.23889e-20 1.12648 	-1.96622 	1.20746e-20 1.1208 	-1.94496 	1.1555e-20 1.11887 	-1.92319 	1.09066e-20 1.11712 	-1.9019 	1.0334e-20 1.11408 	-1.89527 	2.34967e-20 1.11104 	-1.88864 	3.66687e-20 1.10927 	-1.88183 	3.73684e-20 1.10898 	-1.87479 	2.3629e-20 1.1087 	-1.86774 	9.86329e-21 1.1082 	-1.84603 	-4.79949e-20 1.10781 	-1.82435 	-1.05599e-19 1.11167 	-1.80208 	-1.17809e-19 1.11941 	-1.7793 	-8.91519e-20 1.12665 	-1.75867 	-6.23942e-20 1.12694 	-1.7518 	-8.7708e-20 1.12724 	-1.74494 	-1.13067e-19 1.12897 	-1.73785 	-1.15653e-19 1.13182 	-1.7306 	-1.00534e-19 1.13473 	-1.72325 	-8.52137e-20 1.14299 	-1.70324 	-5.8031e-20 1.15141 	-1.68328 	-3.0876e-20 1.16214 	-1.66308 	-2.19508e-20 1.17611 	-1.64251 	-3.91063e-20 1.18844 	-1.62473 	-5.42217e-20 1.19328 	-1.61474 	-4.5915e-20 1.19815 	-1.60477 	-3.75488e-20 1.20494 	-1.59454 	-4.09163e-20 1.21251 	-1.58421 	-4.88475e-20 1.22044 	-1.5735 	-5.70583e-20 1.2311 	-1.55948 	-8.83969e-20 1.24186 	-1.5455 	-1.19526e-19 1.25294 	-1.53151 	-1.2961e-19 1.26497 	-1.51732 	-6.47447e-20 1.2758 	-1.50468 	-6.29708e-21 1.28976 	-1.48796 	7.75052e-20 1.30384 	-1.47134 	1.62092e-19 1.31918 	-1.45444 	1.37198e-19 1.33478 	-1.43761 	9.945e-20 1.35213 	-1.41918 	5.83043e-20 1.3562 	-1.41498 	5.5187e-20 1.36028 	-1.41079 	5.20787e-20 1.36437 	-1.40661 	4.89795e-20 1.36818 	-1.40233 	5.38091e-20 1.37187 	-1.39818 	5.87257e-20 1.39233 	-1.37855 	3.51722e-20 1.41287 	-1.35904 	1.35433e-20 1.43257 	-1.3393 	2.71005e-21 1.45142 	-1.31941 	-2.42081e-21 1.46785 	-1.30238 	-6.62213e-21 1.47753 	-1.29402 	-6.37679e-20 1.48709 	-1.28566 	-1.06203e-19 1.49608 	-1.27716 	-9.23363e-20 1.5051 	-1.26871 	-7.86512e-20 1.51485 	-1.25965 	-6.41225e-20 1.52437 	-1.25098 	-6.3759e-20 1.53393 	-1.24235 	-6.34854e-20 1.54352 	-1.23377 	-6.33016e-20 1.55185 	-1.22513 	-7.43549e-20 1.55931 	-1.21693 	-8.90393e-20 1.57931 	-1.20104 	-2.14292e-19 1.59947 	-1.18533 	-3.40836e-19 1.61718 	-1.16949 	-3.22299e-19 1.63256 	-1.1535 	-1.67496e-19 1.64664 	-1.13909 	-2.56474e-20 1.6588 	-1.13026 	5.98041e-20 1.67001 	-1.12142 	1.03139e-19 1.68013 	-1.11256 	9.84334e-20 1.69029 	-1.10376 	9.40117e-20 1.70156 	-1.0941 	8.94405e-20 1.70771 	-1.08894 	9.52868e-20 1.71388 	-1.08379 	1.01184e-19 1.72006 	-1.07867 	1.07133e-19 1.72555 	-1.07354 	1.13277e-19 1.73007 	-1.06852 	1.19492e-19 1.74858 	-1.05534 	8.01793e-20 1.76567 	-1.04206 	4.7503e-20 1.78236 	-1.02883 	1.71366e-20 1.79507 	-1.01561 	4.54249e-21 1.80695 	-1.00327 	-6.45879e-21 1.82552 	-0.991073 	-1.35895e-19 1.84307 	-0.97898 	-2.27193e-19 1.85769 	-0.966937 	-2.16796e-19 1.87242 	-0.955019 	-2.06882e-19 1.88445 	-0.943461 	-1.32971e-19 1.89152 	-0.939148 	-1.71792e-19 1.8974 	-0.934826 	-1.69148e-19 1.90293 	-0.930513 	-1.53952e-19 1.90847 	-0.926216 	-1.38807e-19 1.91439 	-0.921655 	-1.22722e-19 1.92336 	-0.91484 	-1.04704e-19 1.93236 	-0.908068 	-8.67538e-20 1.94139 	-0.901337 	-6.88704e-20 1.94993 	-0.894646 	-5.70643e-20 1.95616 	-0.888129 	-7.01597e-20 1.97329 	-0.877771 	-4.43523e-20 1.98883 	-0.867315 	-2.24204e-20 2.00356 	-0.856855 	-2.5381e-21 2.01455 	-0.846483 	-9.82791e-21 2.02471 	-0.836531 	-2.07225e-20 2.04195 	-0.826825 	-1.44011e-20 2.05927 	-0.817225 	-8.01292e-21 2.07264 	-0.807718 	-1.25277e-20 2.08376 	-0.798048 	-3.18589e-20 2.09401 	-0.788641 	-5.51312e-20 2.1113 	-0.779523 	3.98508e-20 2.12461 	-0.770499 	1.24055e-20 2.13783 	-0.76156 	-1.97498e-20 2.15113 	-0.752706 	-5.15539e-20 2.16388 	-0.744089 	-8.90479e-20 2.16518 	-0.743436 	-9.29867e-20 2.16618 	-0.742784 	-9.23978e-20 2.16718 	-0.742133 	-9.18096e-20 2.16819 	-0.741482 	-9.12221e-20 2.1692 	-0.740823 	-9.06278e-20 2.18142 	-0.732941 	-9.82203e-20 2.19369 	-0.725127 	-1.05698e-19 2.20602 	-0.717379 	-1.13063e-19 2.21841 	-0.709697 	-1.20315e-19 2.22678 	-0.702182 	-8.02517e-20 2.24323 	-0.694462 	-1.24893e-19 2.25754 	-0.686566 	-1.39034e-19 2.27093 	-0.678632 	-1.39456e-19 2.28112 	-0.670739 	-9.99558e-20 2.28998 	-0.663021 	-4.59698e-20 2.30652 	-0.655782 	4.71571e-20 2.32313 	-0.648616 	1.40416e-19 2.33595 	-0.641314 	1.45771e-19 2.34499 	-0.633829 	6.31709e-20 2.35395 	-0.626498 	-1.84683e-20 2.37053 	-0.619709 	-8.0278e-21 2.38577 	-0.612965 	3.23612e-21 2.39813 	-0.60624 	1.62331e-20 2.40946 	-0.599434 	3.14357e-20 2.4185 	-0.592475 	5.09481e-20 2.43482 	-0.58611 	-3.74085e-20 2.44718 	-0.579751 	-2.09646e-20 2.4596 	-0.573445 	-4.77079e-21 2.47207 	-0.567191 	1.11759e-20 2.48339 	-0.560901 	4.78919e-20 2.48867 	-0.558834 	4.61537e-20 2.49295 	-0.556764 	3.89925e-20 2.49724 	-0.554701 	3.18292e-20 2.50153 	-0.552643 	2.46639e-20 2.50607 	-0.550478 	1.71019e-20 2.51414 	-0.546645 	3.5777e-21 2.52223 	-0.542832 	-9.9521e-21 2.53035 	-0.53904 	-2.34874e-20 2.53848 	-0.535267 	-3.70281e-20 2.54432 	-0.53147 	-4.48268e-20 2.55911 	-0.526207 	-8.8869e-20 2.57148 	-0.520684 	-9.7718e-20 2.58389 	-0.515204 	-1.06435e-19 2.59604 	-0.509767 	-1.10544e-19 2.60315 	-0.504403 	-4.3777e-20 2.61973 	-0.499749 	-2.83684e-20 2.63371 	-0.494842 	-2.01821e-20 2.64602 	-0.489784 	-1.66895e-20 2.65488 	-0.484869 	-1.32079e-20 2.66192 	-0.480069 	-9.7638e-21 2.67837 	-0.475799 	7.26099e-20 2.69487 	-0.471566 	1.54984e-19 2.70645 	-0.467039 	1.55827e-19 2.71335 	-0.46267 	7.18765e-20 2.72025 	-0.458347 	-1.17537e-20 2.73648 	-0.454455 	-5.44219e-21 2.75275 	-0.450595 	8.47663e-22 2.76438 	-0.446839 	-3.44574e-21 2.77113 	-0.442763 	-1.17259e-21 2.7779 	-0.438726 	1.11421e-21 2.79384 	-0.435104 	-4.73701e-21 2.80842 	-0.431537 	-7.49909e-21 2.81943 	-0.428065 	-2.41953e-21 2.82819 	-0.424354 	4.56743e-21 2.83487 	-0.42044 	1.32633e-20 2.85055 	-0.416961 	2.42741e-21 2.86251 	-0.413521 	1.07484e-20 2.87343 	-0.410108 	2.45905e-20 2.88438 	-0.406718 	3.84198e-20 2.89136 	-0.402897 	5.21944e-20 2.90565 	-0.399474 	4.79546e-20 2.91648 	-0.396047 	6.47912e-20 2.92734 	-0.392642 	8.15832e-20 2.93823 	-0.389257 	9.83308e-20 2.94759 	-0.385728 	1.26192e-19 2.95621 	-0.38342 	1.08904e-19 2.96349 	-0.381111 	1.02952e-19 2.97079 	-0.378811 	9.69782e-20 2.97809 	-0.37652 	9.09817e-20 2.98608 	-0.374034 	8.44226e-20 2.98947 	-0.372989 	8.24091e-20 2.99286 	-0.371945 	8.03879e-20 2.99626 	-0.370904 	7.8359e-20 2.99966 	-0.369864 	7.63224e-20 3.00215 	-0.368807 	6.37748e-20 3.01386 	-0.365528 	4.8872e-20 3.02462 	-0.362185 	3.47102e-20 3.03541 	-0.35886 	2.05612e-20 3.04622 	-0.355554 	6.42494e-21 3.05339 	-0.35217 	4.94814e-21 3.06799 	-0.349197 	4.03991e-21 3.07871 	-0.34591 	1.55157e-20 3.08946 	-0.342641 	2.70076e-20 3.10023 	-0.339389 	3.85155e-20 3.10489 	-0.335958 	4.13089e-20 3.12153 	-0.333168 	3.56085e-20 3.13285 	-0.329992 	3.31925e-20 3.14356 	-0.326785 	3.11844e-20 3.15229 	-0.323552 	3.05235e-20 3.1566 	-0.320244 	3.27968e-20 3.17312 	-0.317507 	2.72309e-20 3.18691 	-0.314596 	2.42246e-20 3.19757 	-0.311484 	2.41228e-20 3.204 	-0.308329 	3.72576e-20 3.20833 	-0.305162 	5.695e-20 3.22474 	-0.302507 	1.51934e-19 3.24077 	-0.29984 	2.40662e-19 3.25132 	-0.29683 	2.44872e-19 3.25563 	-0.293776 	1.22609e-19 3.25997 	-0.290739 	5.0357e-22 3.27623 	-0.288162 	-1.137e-19 3.29251 	-0.285601 	-2.27886e-19 3.30273 	-0.282805 	-2.49968e-19 3.30703 	-0.27991 	-1.70605e-19 3.31136 	-0.277029 	-9.13133e-20 3.32745 	-0.274547 	-1.72403e-19 3.34358 	-0.272078 	-2.53496e-19 3.35382 	-0.269528 	-2.56724e-19 3.35809 	-0.266789 	-1.87155e-19 3.36237 	-0.264063 	-1.17651e-19 3.37829 	-0.261662 	-3.03211e-19 3.39423 	-0.259273 	-4.88797e-19 3.40446 	-0.256953 	-4.90013e-19 3.40869 	-0.254368 	-2.79462e-19 3.41292 	-0.251795 	-6.90498e-20 3.42866 	-0.249492 	-4.68227e-20 3.44319 	-0.247218 	-2.88377e-20 3.45298 	-0.245019 	-2.75392e-20 3.45876 	-0.242641 	-2.19754e-20 3.46293 	-0.240197 	-1.46798e-20 3.47844 	-0.238002 	-2.64183e-20 3.49122 	-0.235861 	-3.35805e-20 3.50087 	-0.233781 	-3.55269e-20 3.50818 	-0.2316 	-3.91015e-20 3.51229 	-0.229282 	-4.48965e-20 3.52756 	-0.227192 	-4.27518e-20 3.53869 	-0.225171 	-3.87103e-20 3.5482 	-0.223183 	-3.39133e-20 3.5569 	-0.221164 	-2.94625e-20 3.56095 	-0.218935 	-2.70293e-20 3.57603 	-0.216908 	8.64213e-20 3.58564 	-0.214994 	6.74008e-20 3.59503 	-0.213092 	4.25411e-20 3.60443 	-0.211197 	1.77719e-20 3.60898 	-0.209109 	-9.30482e-20 3.62281 	-0.207196 	-9.3812e-20 3.63204 	-0.205395 	-8.73342e-20 3.64129 	-0.2036 	-8.08298e-20 3.65055 	-0.201811 	-7.42989e-20 3.6563 	-0.19989 	-8.47943e-20 3.66871 	-0.198091 	1.49864e-21 3.67779 	-0.196367 	1.49152e-20 3.68688 	-0.19465 	2.84035e-20 3.69599 	-0.192938 	4.19631e-20 3.70283 	-0.19114 	-1.12839e-20 3.71392 	-0.189426 	-5.79082e-20 3.72287 	-0.187756 	-7.69749e-20 3.73183 	-0.186091 	-9.6089e-20 3.7408 	-0.184433 	-1.1525e-19 3.74868 	-0.182736 	-1.05785e-19 3.75849 	-0.181132 	-1.10189e-19 3.76726 	-0.179556 	-1.14626e-19 3.77605 	-0.177986 	-1.1904e-19 3.78485 	-0.176421 	-1.23433e-19 3.79393 	-0.174809 	-1.27886e-19 3.79411 	-0.174782 	-1.27804e-19 3.79426 	-0.174755 	-1.27633e-19 3.79442 	-0.174728 	-1.27463e-19 3.79457 	-0.174702 	-1.27292e-19 3.79473 	-0.174675 	-1.27121e-19 3.80327 	-0.173212 	-1.1478e-19 3.81182 	-0.171753 	-1.02456e-19 3.82037 	-0.1703 	-9.01485e-20 3.82895 	-0.16885 	-7.78574e-20 3.83