# vtk DataFile Version 2.0
track0
ASCII
DATASET POLYDATA
POINTS 12190 float
-0.0205 0.001 1e-05
-0.02052 0.000999985 1e-05
-0.02054 0.000999973 1e-05
-0.02056 0.000999964 1e-05
-0.02058 0.000999958 1e-05
-0.0206 0.000999955 1e-05
-0.0205 0.00367778 1e-05
-0.02052 0.00367778 1e-05
-0.02054 0.00367778 1e-05
-0.02056 0.00367778 1e-05
-0.02058 0.00367778 1e-05
-0.0206 0.00367777 1e-05
-0.0205 0.00635556 1e-05
-0.02052 0.00635555 1e-05
-0.02054 0.00635555 1e-05
-0.02056 0.00635555 1e-05
-0.02058 0.00635555 1e-05
-0.0206 0.00635555 1e-05
-0.0205 0.00903333 1e-05
-0.02052 0.00903334 1e-05
-0.02054 0.00903334 1e-05
-0.02056 0.00903334 1e-05
-0.02058 0.00903334 1e-05
-0.0206 0.00903334 1e-05
-0.0205 0.0117111 1e-05
-0.02052 0.0117111 1e-05
-0.02054 0.0117111 1e-05
-0.02056 0.0117111 1e-05
-0.02058 0.0117111 1e-05
-0.0206 0.0117111 1e-05
-0.0205 0.0143889 1e-05
-0.02052 0.0143889 1e-05
-0.02054 0.0143889 1e-05
-0.02056 0.0143889 1e-05
-0.02058 0.0143889 1e-05
-0.0206 0.0143889 1e-05
-0.0205 0.0170667 1e-05
-0.02052 0.0170667 1e-05
-0.02054 0.0170667 1e-05
-0.02056 0.0170667 1e-05
-0.02058 0.0170667 1e-05
-0.0206 0.0170667 1e-05
-0.0205 0.0197444 1e-05
-0.02052 0.0197444 1e-05
-0.02054 0.0197444 1e-05
-0.02056 0.0197444 1e-05
-0.02058 0.0197444 1e-05
-0.0206 0.0197444 1e-05
-0.0205 0.0224222 1e-05
-0.02052 0.0224222 1e-05
-0.02054 0.0224222 1e-05
-0.02056 0.0224222 1e-05
-0.02058 0.0224222 1e-05
-0.0206 0.0224222 1e-05
-0.0205 0.0251 1e-05
-0.02052 0.0250998 1e-05
-0.02054 0.0250997 1e-05
-0.02056 0.0250995 1e-05
-0.02058 0.0250995 1e-05
-0.0206 0.0250994 1e-05
-0.0205 0.001 1e-05
-0.0202034 0.00100022 1e-05
-0.0199069 0.00100069 1e-05
-0.0196103 0.00100136 1e-05
-0.0193137 0.00100225 1e-05
-0.0190172 0.00100335 1e-05
-0.0187132 0.00100479 1e-05
-0.0184093 0.00100603 1e-05
-0.0181054 0.00100726 1e-05
-0.0178015 0.00100849 1e-05
-0.0174976 0.00100973 1e-05
-0.0172058 0.00101105 1e-05
-0.016914 0.00101217 1e-05
-0.0166222 0.00101328 1e-05
-0.0163305 0.00101438 1e-05
-0.0160387 0.00101546 1e-05
-0.0157586 0.00101656 1e-05
-0.0154784 0.00101762 1e-05
-0.0151983 0.00101872 1e-05
-0.0149182 0.00101986 1e-05
-0.0146381 0.00102105 1e-05
-0.0143818 0.0010222 1e-05
-0.0141255 0.00102339 1e-05
-0.0138692 0.00102463 1e-05
-0.0136129 0.00102594 1e-05
-0.013447 0.00102682 1e-05
-0.0134163 0.00102698 1e-05
-0.0133856 0.00102715 1e-05
-0.0133549 0.00102732 1e-05
-0.0133242 0.00102749 1e-05
-0.0132934 0.00102766 1e-05
-0.0130353 0.00102911 1e-05
-0.0127771 0.00103058 1e-05
-0.0125189 0.00103209 1e-05
-0.0122607 0.00103363 1e-05
-0.0120025 0.0010352 1e-05
-0.0117547 0.00103673 1e-05
-0.0115068 0.00103825 1e-05
-0.0112589 0.00103978 1e-05
-0.0110111 0.0010413 1e-05
-0.0107632 0.00104281 1e-05
-0.0105252 0.00104425 1e-05
-0.0102873 0.00104569 1e-05
-0.0100493 0.00104711 1e-05
-0.00981133 0.00104852 1e-05
-0.00957337 0.00104992 1e-05
-0.00934491 0.00105125 1e-05
-0.00911645 0.00105258 1e-05
-0.00888799 0.00105391 1e-05
-0.00865954 0.00105523 1e-05
-0.00843108 0.00105654 1e-05
-0.00821175 0.0010578 1e-05
-0.00799242 0.00105906 1e-05
-0.00777309 0.00106033 1e-05
-0.00755376 0.00106161 1e-05
-0.00733443 0.0010629 1e-05
-0.00712387 0.00106414 1e-05
-0.0069133 0.00106541 1e-05
-0.00670273 0.0010667 1e-05
-0.00649217 0.00106802 1e-05
-0.0062816 0.00106936 1e-05
-0.00607944 0.00107067 1e-05
-0.00587729 0.00107202 1e-05
-0.00567514 0.00107343 1e-05
-0.00547298 0.00107489 1e-05
-0.00527083 0.0010764 1e-05
-0.00507675 0.0010779 1e-05
-0.00488268 0.0010795 1e-05
-0.0046886 0.00108119 1e-05
-0.00449453 0.00108298 1e-05
-0.00430044 0.00108487 1e-05
-0.00411412 0.00108679 1e-05
-0.0039278 0.00108887 1e-05
-0.00374148 0.00109112 1e-05
-0.00355516 0.00109356 1e-05
-0.00336883 0.00109618 1e-05
-0.00318995 0.0010989 1e-05
-0.00301107 0.0011019 1e-05
-0.00283221 0.00110524 1e-05
-0.00265334 0.00110892 1e-05
-0.00247443 0.00111296 1e-05
-0.0023027 0.00111724 1e-05
-0.00213098 0.00112197 1e-05
-0.00195928 0.00112723 1e-05
-0.00178759 0.00113301 1e-05
-0.00161577 0.00113933 1e-05
-0.0014509 0.00114592 1e-05
-0.00128606 0.00115314 1e-05
-0.00112125 0.00116121 1e-05
-0.000956505 0.00117038 1e-05
-0.000791418 0.00118077 1e-05
-0.000633135 0.0011919 1e-05
-0.000474933 0.00120413 1e-05
-0.000316818 0.00121745 1e-05
-0.000158765 0.00123148 1e-05
0 0.00124578 1e-05
0.000105677 0.00125542 1e-05
0.000211359 0.00126502 1e-05
0.000317045 0.00127458 1e-05
0.000422753 0.00128388 1e-05
0.000528387 0.00129276 1e-05
0.000634886 0.00130127 1e-05
0.000741431 0.00130919 1e-05
0.000848015 0.00131656 1e-05
0.000954632 0.00132344 1e-05
0.00106088 0.00132973 1e-05
0.00116821 0.00133542 1e-05
0.00127557 0.00134044 1e-05
0.00138296 0.00134485 1e-05
0.00149037 0.0013487 1e-05
0.00159752 0.00135195 1e-05
0.00170568 0.00135454 1e-05
0.00181385 0.0013565 1e-05
0.00192204 0.00135786 1e-05
0.00203023 0.00135863 1e-05
0.00213833 0.00135879 1e-05
0.00224733 0.00135824 1e-05
0.00235633 0.00135705 1e-05
0.00246531 0.00135525 1e-05
0.00257429 0.00135285 1e-05
0.00268334 0.00134982 1e-05
0.00279319 0.00134605 1e-05
0.00290301 0.00134164 1e-05
0.00301281 0.00133662 1e-05
0.00312258 0.00133102 1e-05
0.00323259 0.00132476 1e-05
0.00334329 0.0013178 1e-05
0.00345395 0.00131021 1e-05
0.00356457 0.00130201 1e-05
0.00367515 0.00129326 1e-05
0.00378611 0.00128386 1e-05
0.00389767 0.0012738 1e-05
0.00400918 0.00126316 1e-05
0.00412064 0.00125196 1e-05
0.00423204 0.00124018 1e-05
0.00434393 0.00122779 1e-05
0.00445636 0.00121476 1e-05
0.00456873 0.00120122 1e-05
0.00468104 0.00118716 1e-05
0.00479328 0.00117255 1e-05
0.00490609 0.00115731 1e-05
0.00500425 0.00114357 1e-05
0.00510236 0.00112949 1e-05
0.00520042 0.00111504 1e-05
0.00529842 0.00110022 1e-05
0.00537459 0.00108839 1e-05
0.0053942 0.00108528 1e-05
0.0054138 0.00108215 1e-05
0.0054334 0.00107901 1e-05
0.005453 0.00107585 1e-05
0.00547262 0.00107267 1e-05
0.00558681 0.00105406 1e-05
0.00570091 0.00103493 1e-05
0.00581492 0.00101528 1e-05
0.00592884 0.000995083 1e-05
0.00604356 0.000974167 1e-05
0.00615863 0.000952606 1e-05
0.0062736 0.000930479 1e-05
0.00638845 0.00090777 1e-05
0.00650319 0.000884461 1e-05
0.00661893 0.000860303 1e-05
0.0067349 0.000835419 1e-05
0.00685073 0.000809875 1e-05
0.0069664 0.000783647 1e-05
0.00708191 0.000756708 1e-05
0.00719878 0.000728663 1e-05
0.00720842 0.000726282 1e-05
0.00721805 0.000723894 1e-05
0.00722768 0.000721501 1e-05
0.00723732 0.000719103 1e-05
0.00724673 0.000716753 1e-05
0.00735401 0.000689907 1e-05
0.00746111 0.000662344 1e-05
0.00756801 0.000634036 1e-05
0.00767471 0.000604956 1e-05
0.00778313 0.000574563 1e-05
0.00790091 0.000540619 1e-05
0.00801839 0.000505626 1e-05
0.00813553 0.000469542 1e-05
0.00825235 0.000432423 1e-05
0.00837203 0.00039318 1e-05
0.0083962 0.000384991 1e-05
0.00842034 0.000376749 1e-05
0.00844447 0.000368454 1e-05
0.00846858 0.000360111 1e-05
0.00849121 0.00035223 1e-05
0.00858607 0.000318988 1e-05
0.00868065 0.000284951 1e-05
0.00877493 0.000250093 1e-05
0.00886889 0.000214387 1e-05
0.00896551 0.000176725 1e-05
0.00905384 0.00014138 1e-05
0.00914186 0.000105259 1e-05
0.00922954 6.83375e-05 1e-05
0.00931692 3.06991e-05 1e-05
0.00938656 0 1e-05
0.00942197 -1.59016e-05 1e-05
0.00945732 -3.19274e-05 1e-05
0.00949262 -4.80789e-05 1e-05
0.00952785 -6.43565e-05 1e-05
0.0095636 -8.1011e-05 1e-05
0.00968415 -0.00013766 1e-05
0.00980404 -0.000195696 1e-05
0.00992322 -0.000255165 1e-05
0.0100417 -0.000315973 1e-05
0.0101663 -0.000381694 1e-05
0.010169 -0.00038313 1e-05
0.0101716 -0.000384568 1e-05
0.0101743 -0.000386005 1e-05
0.0101769 -0.000387444 1e-05
0.0101795 -0.000388876 1e-05
0.0102984 -0.000453634 1e-05
0.0104165 -0.000519643 1e-05
0.010534 -0.000586939 1e-05
0.0106506 -0.000655528 1e-05
0.0107738 -0.000729587 1e-05
0.0108035 -0.000747949 1e-05
0.0108333 -0.000766392 1e-05
0.0108629 -0.000784919 1e-05
0.0108926 -0.000803521 1e-05
0.0109209 -0.000821383 1e-05
0.0110139 -0.000880415 1e-05
0.0111064 -0.000940166 1e-05
0.0111985 -0.00100065 1e-05
0.0112901 -0.00106186 1e-05
0.0113859 -0.00112692 1e-05
0.0114365 -0.00116182 1e-05
0.0114869 -0.00119694 1e-05
0.0115371 -0.00123227 1e-05
0.0115873 -0.00126781 1e-05
0.0116343 -0.0013014 1e-05
0.011708 -0.00135451 1e-05
0.0117814 -0.00140804 1e-05
0.0118545 -0.00146199 1e-05
0.0119273 -0.00151637 1e-05
0.0120028 -0.00157346 1e-05
0.0120709 -0.00162547 1e-05
0.0121386 -0.00167784 1e-05
0.0122061 -0.00173057 1e-05
0.0122734 -0.00178364 1e-05
0.0123358 -0.00183346 1e-05
0.0123936 -0.00187995 1e-05
0.0124511 -0.0019267 1e-05
0.0125085 -0.00197368 1e-05
0.0125656 -0.00202091 1e-05
0.0126245 -0.00207001 1e-05
0.0127085 -0.00214057 1e-05
0.0127921 -0.00221163 1e-05
0.0128752 -0.00228321 1e-05
0.0129578 -0.00235529 1e-05
0.0130342 -0.00242267 1e-05
0.0130776 -0.00246138 1e-05
0.0131208 -0.00250021 1e-05
0.013164 -0.00253918 1e-05
0.013207 -0.00257828 1e-05
0.0132511 -0.00261858 1e-05
0.0133503 -0.00270985 1e-05
0.013449 -0.0028018 1e-05
0.0135469 -0.00289445 1e-05
0.0136442 -0.00298776 1e-05
0.0137337 -0.00307474 1e-05
0.0137635 -0.00310404 1e-05
0.0137932 -0.0031334 1e-05
0.0138228 -0.00316282 1e-05
0.0138524 -0.0031923 1e-05
0.0138825 -0.00322243 1e-05
0.0139967 -0.00333719 1e-05
0.0141101 -0.00345283 1e-05
0.0142225 -0.00356939 1e-05
0.014334 -0.00368681 1e-05
0.0144361 -0.00379598 1e-05
0.0144527 -0.00381392 1e-05
0.0144692 -0.00383189 1e-05
0.0144857 -0.00384987 1e-05
0.0145022 -0.00386787 1e-05
0.0145188 -0.00388611 1e-05
0.0146471 -0.0040268 1e-05
0.0147741 -0.0041686 1e-05
0.0148999 -0.00431151 1e-05
0.0150244 -0.0044555 1e-05
0.0151416 -0.00459338 1e-05
0.0151453 -0.00459779 1e-05
0.015149 -0.0046022 1e-05
0.0151527 -0.00460662 1e-05
0.0151564 -0.00461103 1e-05
0.0151601 -0.00461545 1e-05
0.0152893 -0.00477046 1e-05
0.0154173 -0.00492656 1e-05
0.0155438 -0.00508378 1e-05
0.015669 -0.00524208 1e-05
0.0158063 -0.00541872 1e-05
0.0158149 -0.00542991 1e-05
0.0158234 -0.00544111 1e-05
0.0158319 -0.00545232 1e-05
0.0158404 -0.00546353 1e-05
0.0158489 -0.00547469 1e-05
0.0159706 -0.00563543 1e-05
0.0160911 -0.00579712 1e-05
[...]
POINT_DATA 12190
 FIELD attributes 3
age 1 12190 float
0 -2e-05 -4e-05 -6e-05 -8e-05 -0.0001
0 -2e-05 -4e-05 -6e-05 -8e-05 -0.0001
0 -2e-05 -4e-05 -6e-05 -8e-05 -0.0001
0 -2e-05 -4e-05 -6e-05 -8e-05 -0.0001
0 -2e-05 -4e-05 -6e-05 -8e-05 -0.0001
0 -2e-05 -4e-05 -6e-05 -8e-05 -0.0001
0 -2e-05 -4e-05 -6e-05 -8e-05 -0.0001
0 -2e-05 -4e-05 -6e-05 -8e-05 -0.0001
0 -2e-05 -4e-05 -6e-05 -8e-05 -0.0001
0 -2.00009e-05 -4.00018e-05 -6.00027e-05 -8.00036e-05 -0.000100002
0 0.000296567 0.000593135 0.000889702 0.00118627 0.00148284 0.00178676 0.00209069 0.00239461 0.00269853 0.00300245 0.00329423 0.00358601 0.00387779 0.00416957 0.00446135 0.00474147 0.00502159 0.00530171 0.00558183 0.00586196 0.00611825 0.00637454 0.00663083 0.00688712 0.00705307 0.00708378 0.00711449 0.00714519 0.0071759 0.00720661 0.0074648 0.00772299 0.00798117 0.00823936 0.00849755 0.00874542 0.00899329 0.00924117 0.00948904 0.00973691 0.00997488 0.0102129 0.0104508 0.0106888 0.0109268 0.0111552 0.0113837 0.0116121 0.0118406 0.0120691 0.0122884 0.0125077 0.0127271 0.0129464 0.0131657 0.0133763 0.0135869 0.0137974 0.014008 0.0142186 0.0144207 0.0146229 0.0148251 0.0150272 0.0152294 0.0154235 0.0156175 0.0158116 0.0160057 0.0161998 0.0163861 0.0165725 0.0167588 0.0169451 0.0171315 0.0173104 0.0174893 0.0176682 0.0178471 0.018026 0.0181978 0.0183696 0.0185414 0.0187132 0.0188851 0.0190501 0.0192151 0.0193801 0.0195451 0.0197105 0.0198692 0.0200279 0.0201866 0.0203452 0.0205046 0.0206108 0.0207169 0.020823 0.0209291 0.0210351 0.021142 0.0212488 0.0213556 0.0214625 0.0215689 0.0216764 0.0217839 0.0218913 0.0219988 0.022106 0.0222142 0.0223224 0.0224306 0.0225388 0.0226469 0.0227559 0.0228649 0.0229739 0.0230829 0.023192 0.0233019 0.0234118 0.0235217 0.0236316 0.0237418 0.0238528 0.0239637 0.0240746 0.0241855 0.0242969 0.0244089 0.0245209 0.0246329 0.0247449 0.0248575 0.0249707 0.0250839 0.0251971 0.0253103 0.0254241 0.0255232 0.0256223 0.0257214 0.0258206 0.0258976 0.0259175 0.0259373 0.0259572 0.025977 0.0259969 0.0261126 0.0262283 0.026344 0.0264597 0.0265763 0.0266934 0.0268105 0.0269275 0.0270446 0.0271629 0.0272815 0.0274001 0.0275187 0.0276373 0.0277575 0.0277674 0.0277773 0.0277873 0.0277972 0.0278069 0.0279175 0.0280281 0.0281387 0.0282492 0.0283618 0.0284844 0.028607 0.0287296 0.0288521 0.0289781 0.0290036 0.0290291 0.0290546 0.0290802 0.0291041 0.0292046 0.0293051 0.0294057 0.0295062 0.0296099 0.029705 0.0298002 0.0298953 0.0299904 0.0300666 0.0301054 0.0301442 0.030183 0.0302218 0.0302612 0.0303944 0.0305276 0.0306608 0.030794 0.0309349 0.0309379 0.0309409 0.0309439 0.030947 0.0309499 0.0310853 0.0312206 0.031356 0.0314913 0.031635 0.03167 0.031705 0.0317399 0.0317749 0.0318084 0.0319185 0.0320287 0.0321389 0.032249 0.0323649 0.0324263 0.0324877 0.0325492 0.0326106 0.0326684 0.0327592 0.0328501 0.0329409 0.0330318 0.0331265 0.0332121 0.0332978 0.0333834 0.0334691 0.033549 0.0336231 0.0336973 0.0337714 0.0338455 0.0339222 0.0340319 0.0341416 0.0342513 0.0343609 0.0344628 0.0345209 0.0345791 0.0346372 0.0346953 0.0347551 0.0348899 0.0350247 0.0351596 0.0352944 0.0354192 0.035461 0.0355027 0.0355445 0.0355862 0.0356288 0.0357908 0.0359527 0.0361146 0.0362766 0.036426 0.0364504 0.0364748 0.0364992 0.0365237 0.0365483 0.0367387 0.0369291 0.0371195 0.0373099 0.0374908 0.0374966 0.0375023 0.0375081 0.0375138 0.0375196 0.0377214 0.0379232 0.0381251 0.0383269 0.0385506 0.0385647 0.0385788 0.0385929 0.0386069 0.0386209 0.0388226 0.0390242 0.0392259 0.0394275 0.0396513 0.0396861 0.0397208 0.0397556 0.0397903 0.0398247 0.0400218 0.0402189 0.0404159 0.040613 0.0408305 0.0408872 0.0409439 0.0410006 0.0410573 0.0411132 0.0413057 0.0414981 0.0416905 0.041883 0.0420913 0.0421738 0.0422563 0.0423388 0.0424213 0.0425027 0.0426841 0.0428655 0.0430469 0.0432284 0.0434169 0.0434928 0.0435688 0.0436447 0.0437207 0.0437962 0.043991 0.0441858 0.0443806 0.0445754 0.0447658 0.0448305 0.0448953 0.04496 0.0450247 0.0450896 0.0452905 0.0454914 0.0456922 0.0458931 0.0460754 0.0461411 0.0462069 0.0462727 0.0463385 0.0464052 0.0465882 0.0467711 0.0469541 0.0471371 0.0472959 0.0473909 0.047486 0.0475811 0.0476762 0.047775 0.0479058 0.0480365 0.0481673 0.048298 0.0484148 0.0485773 0.0487398 0.0489023 0.0490647 0.0492438 0.0492851 0.0493265 0.0493679 0.0494092 0.0494493 0.0496488 0.0498482 0.0500476 0.050247 0.0504194 0.0505091 0.0505988 0.0506885 0.0507782 0.0508748 0.0509682 0.0510616 0.0511551 0.0512485 0.0513371 0.051517 0.0516969 0.0518769 0.0520568 0.0522206 0.0523265 0.0524324 0.0525383 0.0526442 0.0527611 0.0528244 0.0528876 0.0529509 0.0530141 0.0530759 0.0532452 0.0534145 0.0535838 0.0537531 0.0539126 0.0540786 0.0542447 0.0544107 0.0545768 0.0547349 0.054797 0.0548592 0.0549214 0.0549836 0.0550498 0.0551495 0.0552491 0.0553488 0.0554485 0.0555459 0.0557079 0.0558698 0.0560317 0.0561936 0.0563504 0.0565112 0.0566719 0.0568327 0.0569935 0.0571499 0.0573099 0.0574699 0.0576299 0.0577899 0.0579464 0.0579586 0.0579707 0.0579828 0.057995 0.0580073 0.0581546 0.0583019 0.0584492 0.0585965 0.0587414 0.0589008 0.0590603 0.0592197 0.0593792 0.0595362 0.0596958 0.0598553 0.0600149 0.0601744 0.0603319 0.0604917 0.0606516 0.0608114 0.0609712 0.0611293 0.0612896 0.0614498 0.0616101 0.0617703 0.0619292 0.061985 0.0620408 0.0620966 0.0621524 0.0622112 0.0623155 0.0624197 0.0625239 0.0626282 0.0627319 0.0628934 0.0630549 0.0632164 0.0633779 0.0635384 0.0637007 0.0638629 0.0640252 0.0641875 0.0643489 0.064512 0.0646752 0.0648383 0.0650015 0.0651639 0.065328 0.065492 0.0656561 0.0658202 0.0659837 0.0661488 0.0663138 0.0664789 0.066644 0.0668086 0.0669747 0.0671408 0.0673069 0.067473 0.0676387 0.0678059 0.0679731 0.0681403 0.0683075 0.0684743 0.0685881 0.0687018 0.0688155 0.0689293 0.0690532 0.0691057 0.0691582 0.0692106 0.0692631 0.0693155 0.069485 0.0696544 0.0698239 0.0699933 0.0701624 0.0703331 0.0705037 0.0706743 0.0708449 0.0710152 0.0711871 0.0713589 0.0715307 0.0717025 0.071874 0.0720471 0.0722201 0.0723931 0.0725661 0.0727389 0.0729132 0.0730874 0.0732617 0.073436 0.07361 0.0737855 0.0739611 0.0741366 0.0743121 0.0744874 0.0746643 0.0748411 0.0750179 0.0751947 0.0753713 0.0755494 0.0757275 0.0759056 0.0760837 0.0762617 0.0764411 0.0766205 0.0767999 0.0769794 0.0771587 0.0773394 0.0775202 0.0777009 0.0778817 0.0780624 0.0782445 0.0784266 0.0786087 0.0787908 0.0789728 0.0791563 0.0793398 0.0795233 0.0797068 0.0798902 0.0800751 0.08026 0.0804448 0.0806297 0.0808145 0.0810008 0.0811871 0.0813733 0.0815596 0.0817458 0.0819335 0.0821212 0.0823089 0.0824966 0.0826843 0.0828722 0.0830601 0.083248 0.0834359 0.0836299 0.0836333 0.0836367 0.0836401 0.0836436 0.083647 0.0838341 0.0840213 0.0842084 0.0843956 0.0845827 0.0847747 0.0849668 0.0851588 0.0853508 0.0855428 0.0857363 0.0859299 0.0861234 0.0863169 0.0865104 0.0867053 0.0869003 0.0870953 0.0872903 0.0874853 0.0876818 0.0878783 0.0880748 0.0882713 0.0884678 0.0886658 0.0888638 0.0890618 0.0892598 0.0894578 0.0896574 0.0898569 0.0900564 0.090256 0.0904555 0.0906566 0.0908577 0.0910587 0.0912598 0.0914609 0.0916635 0.0918661 0.0920688 0.0922714 0.092474 0.0926782 0.0928824 0.0930866 0.0932908 0.093495 0.0937008 0.0939066 0.0941124 0.0943181 0.0945239 0.0947313 0.0949387 0.095146 0.0953534 0.0955608 0.0957697 0.0959787 0.0961877 0.0963967 0.0966056 0.0968162 0.0970268 0.0972374 0.097448 0.0976586 0.0978708 0.0980831 0.0982953 0.0985075 0.0987197 0.0989336 0.0991475 0.0993614 0.0995752 0.0997891 0.100005 0.10022 0.100436 0.100651 0.100867 0.101084 0.101301 0.101518 0.101736 0.101953 0.102172 0.102391 0.102609 0.102828 0.103047 0.103268 0.103488 0.103709 0.10393 0.10415 0.104372 0.104595 0.104817 0.105039 0.105262 0.105486 0.10571 0.105934 0.106158 0.106382 0.106608 0.106833 0.107059 0.107285 0.107511 0.107738 0.107966 0.108193 0.108421 0.108648 0.108877 0.109107 0.109336 0.109565 0.109795 0.110026 0.110257 0.110488 0.110719 0.11095 0.111183 0.111416 0.111648 0.111881 0.112114 0.112349 0.112583 0.112818 0.113053 0.113287 0.113524 0.11376 0.113997 0.114233 0.11447 0.114708 0.114947 0.115185 0.115423 0.115662 0.115902 0.116142 0.116382 0.116622 0.116862 0.117105 0.117347 0.117589 0.117831 0.118073 0.118317 0.118561 0.118804 0.119048 0.119292 0.119538 0.119784 0.12003 0.120276 0.120521 0.120769 0.121017 0.121265 0.121512 0.12176 0.12201 0.122259 0.122509 0.122759 0.123008 0.12326 0.123512 0.123763 0.124015 0.124266 0.12452 0.124773 0.125027 0.125281 0.125534 0.12579 0.126045 0.126301 0.126556 0.126812 0.127069 0.127327 0.127584 0.127842 0.128099 0.128359 0.128618 0.128878 0.129137 0.129397 0.129658 0.12992 0.130181 0.130443 0.130704 0.130968 0.131232 0.131495 0.131759 0.132022 0.132288 0.132553 0.132819 0.133085 0.13335 0.133618 0.133886 0.134153 0.134421 0.134689 0.134958 0.135228 0.135498 0.135768 0.136037 0.136309 0.136581 0.136853 0.137125 0.137397 0.137671 0.137945 0.138219 0.138493 0.138766 0.139043 0.139319 0.139595 0.139871 0.140147 0.140425 0.140703 0.140982 0.14126 0.141538 0.141819 0.142099 0.142379 0.14266 0.14294 0.143223 0.143505 0.143788 0.144071 0.144353 0.144638 0.144923 0.145207 0.145492 0.145777 0.146064 0.146351 0.146638 0.146925 0.147212 0.147501 0.14779 0.14808 0.148369 0.148658 0.14895 0.149241 0.149532 0.149824 0.150115 0.150409 0.150703 0.150997 0.15129 0.151584 0.15188 0.152176 0.152472 0.152768 0.153064 0.153363 0.153661 0.153959 0.154258 0.154556 0.154857 0.155157 0.155458 0.155758 0.156059 0.156362 0.156665 0.156968 0.157271 0.157574 0.157879 0.158185 0.15849 0.158795 0.159101 0.159408 0.159716 0.160024 0.160332 0.160639 0.160949 0.161259 0.16157 0.16188 0.16219 0.162502 0.162815 0.163127 0.16344 0.163752 0.164067 0.164382 0.164697 0.165012 0.165327 0.165644 0.165962 0.166279 0.166597 0.166914 0.167234 0.167554 0.167874 0.168193 0.168513 0.168836 0.169158 0.16948 0.169803 0.170125 0.17045 0.170775 0.1711 0.171424 0.171749 0.172077 0.172404 0.172731 0.173059 0.173386 0.173716 0.174046 0.174376 0.174706 0.175036 0.175368 0.175701 0.176033 0.176366 0.176698 0.177033 0.177368 0.177703 0.178038 0.178374 0.178711 0.179049 0.179387 0.179724 0.180062 0.180402 0.180743 0.181083 0.181423 0.181763 0.182106 0.182449 0.182792 0.183135 0.183478 0.183824 0.184169 0.184515 0.184861 0.185206 0.185555 0.185903 0.186251 0.186599 0.186948 0.187299 0.18765 0.188001 0.188352 0.188703 0.189057 0.18941 0.189764 0.190118 0.190472 0.190828 0.191184 0.191541 0.191897 0.192254 0.192613 0.192972 0.193332 0.193691 0.19405 0.194412 0.194774 0.195136 0.195498 0.195861 0.196225 0.19659 0.196955 0.19732 0.197685 0.198053 0.19842 0.198788 0.199156 0.199523 0.199894 0.200265 0.200635 0.201006 0.201376 0.20175 0.202123 0.202497 0.20287 0.203243 0.20362 0.203996 0.204372 0.204749 0.205125 0.205504 0.205884 0.206263 0.206642 0.207022 0.207404 0.207786 0.208168 0.20855 0.208933 0.209318 0.209703 0.210088 0.210473 0.210859 0.211247 0.211635 0.212023 0.212411 0.2128 0.213191 0.213582 0.213973 0.214364 0.214756 0.21515 0.215544 0.215938 0.216333 0.216727 0.217124 0.217522 0.217919 0.218316 0.218713 0.219114 0.219514 0.219915 0.220315 0.220716 0.221119 0.221523 0.221926 0.22233 0.222733 0.22314 0.223546 0.223953 0.22436 0.224766 0.225176 0.225586 0.225996 0.226406 0.226816 0.227229 0.227642 0.228055 0.228468 0.228881 0.229297 0.229713 0.230129 0.230546 0.230962 0.231381 0.231801 0.23222 0.23264 0.23306 0.233483 0.233905 0.234328 0.234751 0.235174 0.235584 0.235994 0.236404 0.236814 0.237224 0.237651 0.238077 0.238503 0.238929 0.239357 0.2398 0.240243 0.240686 0.24113 0.241573 0.242034 0.242495 0.242955 0.243416 0.243877 0.244356 0.244835 0.245313 0.245792 0.246271 0.246768 0.247266 0.247763 0.248261 0.248758 0.249275 0.249792 0.250309 0.250826 0.251343 0.25188 0.252417 0.252954 0.253491 0.254028 0.254586 0.255144 0.255702 0.25626 0.256818 0.257398 0.257977 0.258557 0.259137 0.259716 0.260319 0.260921 0.261523 0.262126 0.262728 0.263354 0.263979 0.264605 0.265231 0.265857 0.266507 0.267157 0.267807 0.268457 0.269107 0.269783 0.270458 0.271134 0.271809 0.272485 0.273187 0.273888 0.27459 0.275292 0.275994 0.276723 0.277452 0.278181 0.27891 0.279639 0.280397 0.281154 0.281912 0.282669 0.283427 0.284214 0.285001 0.285788 0.286575 0.287362 0.28818 0.288997 0.289815 0.290633 0.29145 0.2923 0.293149 0.293999 0.294848 0.295698 0.29658 0.297463 0.298345 0.299228 0.30011 0.301027 0.301944 0.302861 0.303778 0.304694 0.305647 0.306599 0.307552 0.308504 0.309457 0.310446 0.311436 0.312426 0.313415 0.314406 0.315434 0.316462 0.317491 0.318519 0.319548