/*--------------------------------*- C++ -*----------------------------------*\
  =========                 |
  \\      /  F ield         | OpenFOAM: The Open Source CFD Toolbox
   \\    /   O peration     | Website:  https://openfoam.org
    \\  /    A nd           | Version:  9
     \\/     M anipulation  |
\*---------------------------------------------------------------------------*/
FoamFile
{
    format      ascii;
    class       volScalarField;
    location    "2.81";
    object      nut;
}
// * * * * * * * * * * * * * * * * * * * * * * * * * * * * * * * * * * * * * //

dimensions      [0 2 -1 0 0 0 0];

internalField   nonuniform List<scalar> 
2268
(
3.28701e-05
3.87956e-05
4.67769e-05
5.20005e-05
5.58001e-05
5.86997e-05
6.09621e-05
6.27472e-05
6.41628e-05
6.52815e-05
6.61495e-05
6.68155e-05
6.73069e-05
6.76006e-05
6.76721e-05
6.74428e-05
6.65977e-05
6.48586e-05
6.25802e-05
5.96752e-05
5.50292e-05
4.62889e-05
2.87942e-05
7.67474e-05
0.000319842
0.000432951
0.000498018
0.000541325
0.000572405
0.000595586
0.000613183
0.000626557
0.00063658
0.000643861
0.00064871
0.000651441
0.000652536
0.000651625
0.000646887
0.000633074
0.000602773
0.000573773
0.000544073
0.000490213
0.000366139
9.27492e-05
9.20288e-05
0.000531028
0.000791534
0.000947011
0.00104978
0.00112228
0.00117532
0.00121475
0.00124405
0.00126545
0.00128047
0.00129021
0.00129518
0.00129574
0.00129094
0.00127747
0.00124784
0.00119408
0.00113059
0.00104833
0.000908364
0.000634808
0.000108924
0.00010324
0.000672854
0.00106139
0.00130587
0.0014705
0.00158706
0.00167206
0.00173487
0.00178118
0.00181471
0.00183806
0.00185309
0.00186046
0.00186032
0.00185112
0.00182868
0.00178503
0.00171237
0.00161567
0.00147837
0.00125007
0.000835735
0.000121409
0.000112061
0.000776278
0.00126913
0.00159359
0.00181707
0.00197689
0.00209379
0.00218007
0.00224351
0.00228931
0.00232115
0.00234162
0.00235156
0.00235092
0.00233771
0.00230726
0.00225165
0.00216259
0.00203631
0.00184893
0.00154025
0.000998747
0.000132505
0.000119397
0.000855609
0.00143325
0.00182777
0.00210544
0.00230638
0.00245417
0.0025634
0.00264366
0.00270156
0.00274183
0.00276781
0.00278049
0.00277975
0.0027633
0.00272625
0.0026608
0.00255777
0.00240687
0.00217775
0.00180079
0.00114459
0.000144183
0.000125792
0.000918069
0.00156543
0.00202096
0.00234793
0.0025874
0.00276465
0.00289601
0.00299258
0.00306226
0.00311079
0.00314231
0.00315799
0.00315766
0.00313893
0.00309685
0.00302378
0.00290972
0.00274009
0.00247996
0.00205094
0.00129288
0.000160378
0.000131681
0.000968328
0.00167366
0.00218236
0.00255399
0.0028293
0.00303443
0.00318693
0.00329918
0.00338023
0.00343677
0.0034739
0.00349288
0.00349355
0.00347357
0.00342809
0.00334967
0.00322793
0.00304615
0.00276768
0.00231034
0.00147924
0.000192863
2.64086e-05
4.49774e-05
5.23331e-05
5.5505e-05
5.68031e-05
5.66465e-05
5.49624e-05
5.17708e-05
4.96622e-05
5.01911e-05
5.06543e-05
4.99221e-05
4.95537e-05
5.05482e-05
5.11938e-05
4.91194e-05
4.32362e-05
3.45229e-05
3.14468e-05
0.00010149
0.000353409
0.000470821
0.000520747
0.000532269
0.000525498
0.000497104
0.000456256
0.000444004
0.000465695
0.000485814
0.000470164
0.000463694
0.000474
0.000469436
0.000442633
0.000382116
0.000275759
7.46818e-05
0.000121609
0.00059999
0.000875842
0.000996053
0.00103207
0.00102495
0.000978464
0.000917996
0.000901725
0.00093276
0.000959001
0.000943231
0.000929515
0.000927611
0.000900988
0.000829618
0.000694799
0.000475011
8.71433e-05
0.000138158
0.000793154
0.00120704
0.00139709
0.00146414
0.00146476
0.00141417
0.00134893
0.00132872
0.00135495
0.00137702
0.00136105
0.00133557
0.001308
0.00124687
0.00112511
0.000920834
0.000606082
9.68796e-05
0.000153858
0.00096529
0.00149204
0.00174315
0.00184149
0.0018544
0.00180784
0.00174501
0.0017203
0.00173506
0.00174697
0.00172567
0.00168464
0.0016263
0.00152581
0.00135195
0.00108204
0.000690599
0.000104711
0.000171664
0.00111997
0.0017484
0.00205259
0.00217839
0.00220471
0.0021661
0.00210852
0.002079
0.00207976
0.00207799
0.00204654
0.00198669
0.00189809
0.00175878
0.00153526
0.00120067
0.000740267
0.000109024
0.000193189
0.00127767
0.00199563
0.00233898
0.0024854
0.00252371
0.00249415
0.00244241
0.0024079
0.0023941
0.0023767
0.00233151
0.00225195
0.0021353
0.00196081
0.00169366
0.00129893
0.000759907
0.000113772
0.000227168
0.00147837
0.00225149
0.00261198
0.00276993
0.00281703
0.00279584
0.00274926
0.00270973
0.0026817
0.00264777
0.00258646
0.00248768
0.0023459
0.00214131
0.00183859
0.001395
0.000783295
0.000120041
0.000138481
0.00103232
0.00181096
0.0023906
0.00282487
0.00315241
0.00339944
0.00358465
0.00372196
0.00382189
0.00389225
0.00393882
0.00396352
0.00396668
0.00394624
0.00389772
0.00381422
0.00368564
0.00349497
0.00320881
0.00276205
0.00204426
0.00100156
0.000146995
0.00109811
0.00194712
0.00260094
0.00310509
0.00349238
0.00378752
0.00401033
0.00417682
0.00429918
0.00438609
0.00444372
0.00447579
0.00448361
0.00446588
0.00441896
0.0043375
0.00421417
0.00403701
0.00378487
0.00342191
0.0028989
0.00220712
0.000155373
0.001161
0.00205826
0.00277194
0.00333706
0.00377508
0.00410895
0.00436127
0.0045516
0.00469352
0.00479507
0.00486326
0.00490352
0.00491814
0.00490674
0.0048665
0.00479364
0.00468498
0.00453497
0.0043343
0.00406765
0.00371342
0.00329427
0.000166057
0.00123722
0.00215346
0.00292296
0.00355042
0.0040319
0.00439266
0.00466288
0.00486995
0.00502879
0.0051431
0.00522064
0.00526938
0.00529221
0.00528973
0.00525947
0.00519823
0.00510774
0.00498769
0.00483712
0.00465254
0.00440876
0.00414691
0.000177707
0.00129873
0.00220987
0.00305648
0.00375342
0.00425132
0.00464073
0.00492508
0.00514056
0.00531367
0.005441
0.00552719
0.00558389
0.00561421
0.0056192
0.00559803
0.00555089
0.00547821
0.00538244
0.00526983
0.00514012
0.00496208
0.00479439
0.000186353
0.00132522
0.0023381
0.00315176
0.00383386
0.00437305
0.00480278
0.00511861
0.00535158
0.00553816
0.00568103
0.00578133
0.00584822
0.00588638
0.00589882
0.00588544
0.00584841
0.00578645
0.00570194
0.00560309
0.00547628
0.00535821
0.00527426
0.000182659
0.00131574
0.00242136
0.00323992
0.00387531
0.00442909
0.00489231
0.00524693
0.0055139
0.00572394
0.0058823
0.00599535
0.00607227
0.00611751
0.00613551
0.00612945
0.00610207
0.00604338
0.00595923
0.00586777
0.00575262
0.00568098
0.00563936
0.000169996
0.00118745
0.00238788
0.00328274
0.00395485
0.00451434
0.0049921
0.00536962
0.00566459
0.00589247
0.00605849
0.0061774
0.00625717
0.00630197
0.00632044
0.00631696
0.00629315
0.00623781
0.0061564
0.00606934
0.00598903
0.00593931
0.00590982
0.000164493
0.00109226
0.00235934
0.00334029
0.00408178
0.0046662
0.00514464
0.00551719
0.00581358
0.00603944
0.00619882
0.00630984
0.00638679
0.00643423
0.00645488
0.00645211
0.00642817
0.00637706
0.00630569
0.00623137
0.00616875
0.00612611
0.00608663
0.000173624
0.00124746
0.00249786
0.00348681
0.00424066
0.00483436
0.00529632
0.0056493
0.00592793
0.00613834
0.00628828
0.00639596
0.00647453
0.00652679
0.00655253
0.00655412
0.00653257
0.0064858
0.00642208
0.00635685
0.00630398
0.00626746
0.00623266
0.000188025
0.00150978
0.00274905
0.00368442
0.00440048
0.00495956
0.00539678
0.00573426
0.00599649
0.00619492
0.00634155
0.00645085
0.00653278
0.00658997
0.00662233
0.00663079
0.00661598
0.00657907
0.00652746
0.00647352
0.0064295
0.00639916
0.00637521
0.00019771
0.00161899
0.00289968
0.00382499
0.0045158
0.00504774
0.00546245
0.00578456
0.00603379
0.00622521
0.00637118
0.00648319
0.00656908
0.00663186
0.00667215
0.00669047
0.00668772
0.00666635
0.00663207
0.00659406
0.00656132
0.00653792
0.00652133
0.000201715
0.00166393
0.00297209
0.00390032
0.00457976
0.00509533
0.00549441
0.00580463
0.00604634
0.00623506
0.00638265
0.00649885
0.00659034
0.00666055
0.00671084
0.00674199
0.00675507
0.00675244
0.00673829
0.00671863
0.00669928
0.00668384
0.00667239
0.000201475
0.001673
0.00298712
0.00391752
0.0045929
0.00510067
0.00549151
0.00579604
0.00603569
0.00622575
0.00637765
0.00650017
0.00659951
0.00667938
0.00674174
0.00678771
0.00681843
0.00683558
0.00684189
0.00684084
0.0068359
0.0068297
0.00682318
0.000198334
0.00165499
0.00295735
0.00388514
0.00455932
0.00506513
0.00545435
0.0057594
0.00600189
0.00619706
0.00635609
0.00648734
0.00659679
0.00668835
0.00676432
0.00682608
0.00687466
0.00691104
0.00693663
0.0069532
0.00696259
0.00696645
0.00696557
0.000193322
0.00161455
0.0028918
0.00381171
0.00448534
0.00499317
0.00538599
0.00569621
0.00594547
0.00614897
0.00631775
0.00645997
0.00658149
0.00668628
0.00677683
0.0068546
0.00692032
0.0069746
0.0070177
0.0070504
0.0070734
0.00708752
0.00709312
0.000188141
0.00155617
0.00279944
0.00370719
0.00437957
0.00489126
0.00529057
0.00560902
0.00586794
0.00608232
0.00626305
0.00641811
0.00655326
0.00667242
0.00677806
0.00687158
0.00695352
0.00702417
0.00708336
0.00713067
0.00716642
0.00719073
0.00720356
0.000182749
0.00148847
0.00268994
0.00358076
0.00424991
0.00476552
0.0051726
0.00550112
0.00577167
0.00599885
0.00619326
0.00636268
0.00651268
0.00664705
0.00676815
0.00687717
0.00697456
0.00706035
0.00713415
0.00719532
0.00724322
0.00727765
0.00729843
0.000176915
0.00141632
0.00256997
0.00343938
0.0041028
0.00462148
0.00503663
0.00537619
0.00565966
0.00590101
0.00611045
0.00629545
0.00646131
0.00661161
0.00674851
0.00687298
0.0069854
0.00708562
0.0071731
0.00724711
0.00730692
0.00735188
0.00738137
0.000170655
0.00134246
0.00244401
0.00328821
0.00394344
0.00446402
0.00488705
0.00523811
0.00553535
0.0057919
0.00601745
0.00621902
0.0064016
0.00656847
0.00672155
0.00686164
0.006989
0.00710335
0.00720409
0.00729046
0.00736166
0.00741695
0.00745568
0.000163917
0.00126824
0.0023148
0.00313094
0.00377602
0.00429745
0.00472807
0.0050909
0.00540253
0.00567512
0.00591766
0.00613667
0.00633672
0.00652076
0.00669042
0.00684637
0.00698872
0.00711712
0.00723095
0.00732944
0.00741181
0.00747733
0.00752533
0.000156567
0.00119345
0.00218346
0.0029701
0.00360401
0.00412575
0.00456387
0.00493877
0.00526537
0.00555474
0.00581506
0.00605225
0.00627039
0.00647207
0.00665864
0.0068306
0.00698795
0.00713029
0.00725701
0.00736737
0.00746065
0.00753617
0.00759333
0.000148627
0.00111516
0.00204945
0.00280759
0.00343077
0.003953
0.00439888
0.00478628
0.00512845
0.00543526
0.00571401
0.00596996
0.00620663
0.00642622
0.00662978
0.00681768
0.00698981
0.00714575
0.00728492
0.00740667
0.00751037
0.00759542
0.00766135
0.000141127
0.00102373
0.0019109
0.00264583
0.00326036
0.0037839
0.00423806
0.00463849
0.00499678
0.00532157
0.0056192
0.00589419
0.00614951
0.00638691
0.00660719
0.00681056
0.00699686
0.0071657
0.00731655
0.00744888
0.00756217
0.00765598
0.00772996
0.000134074
0.000943896
0.00178236
0.00249277
0.00309865
0.00362402
0.004087
0.00450092
0.00487572
0.00521874
0.00553533
0.00582922
0.00610281
0.00635744
0.00659365
0.00681156
0.00701096
0.00719153
0.00735287
0.00749457
0.00761628
0.00771772
0.00779871
0.000127532
0.000881684
0.00167373
0.0023594
0.00295576
0.00348221
0.0039535
0.00438056
0.00477152
0.00513233
0.00546727
0.00577924
0.00607005
0.00634067
0.00659141
0.0068223
0.00703319
0.00722385
0.00739403
0.00754353
0.00767218
0.0077799
0.00786669
0.0001217
0.000837623
0.00158972
0.00225198
0.00283875
0.00336572
0.00384461
0.00428396
0.00469007
0.00506746
0.00541931
0.00574772
0.00605394
0.00633857
0.00660176
0.00684352
0.00706377
0.00726242
0.00743944
0.00759483
0.00772867
0.0078411
0.00793228
0.000116708
0.000809156
0.0015309
0.00217382
0.00275241
0.00327998
0.00376573
0.00421612
0.0046357
0.00502768
0.00539419
0.00573661
0.00605566
0.00635168
0.00662468
0.0068747
0.00710177
0.00730599
0.00748755
0.00764674
0.00778387
0.0078993
0.00799342
0.000112575
0.000793082
0.00149577
0.00212565
0.00269897
0.00322786
0.00371982
0.00417964
0.00461047
0.00501437
0.00539262
0.00574596
0.00607473
0.00637903
0.00665882
0.00691418
0.00714529
0.00735248
0.00753621
0.00769703
0.00783552
0.00795227
0.00804788
0.000109267
0.000786845
0.00148191
0.00210613
0.00267792
0.00320929
0.00370681
0.00417421
0.00461366
0.00502639
0.00541305
0.00577391
0.00610902
0.00641831
0.00670174
0.00695945
0.00719181
0.00739941
0.00758298
0.00774336
0.00788142
0.00799797
0.00809379
0.000106754
0.000788564
0.00148635
0.00211202
0.00268606
0.00322104
0.00372339
0.00419642
0.00464177
0.0050602
0.00545194
0.00581696
0.00615511
0.00646623
0.00675029
0.00700754
0.00723856
0.00744422
0.00762555
0.00778371
0.00791984
0.00803497
0.00812999
0.000105023
0.000796444
0.00150514
0.00213815
0.00271755
0.00325701
0.00376347
0.00424031
0.00468911
0.00511043
0.00550431
0.00587055
0.00620887
0.00651906
0.00680114
0.00705551
0.00728299
0.00748475
0.0076622
0.0078168
0.00794995
0.00806283
0.00815645
0.000104041
0.000808361
0.00153323
0.0021776
0.00276454
0.0033091
0.0038191
0.00429841
0.0047488
0.00517088
0.00556466
0.00592983
0.00626608
0.00657318
0.00685126
0.00710088
0.00732317
0.00751967
0.00769216
0.00784246
0.00797214
0.00808251
0.00817454
0.000103724
0.000821955
0.00156493
0.00222261
0.00281836
0.00336851
0.00388188
0.00436297
0.00481392
0.00523549
0.00562773
0.00599035
0.00632302
0.00662559
0.0068983
0.007142
0.00735816
0.00754876
0.007716
0.00786197
0.00798842
0.00809657
0.0081873
0.000103933
0.000834923
0.00159473
0.00226568
0.00287072
0.00342701
0.00394413
0.00442712
0.00487844
0.00529907
0.00568917
0.00604852
0.00637684
0.00667414
0.00694092
0.00717838
0.00738841
0.00757342
0.007736
0.0078785
0.00800264
0.00810943
0.00819949
0.000104478
0.000844964
0.00161744
0.00229984
0.00291416
0.00347751
0.00399951
0.00448536
0.00493771
0.00535774
0.00574579
0.0061018
0.00642568
0.00671774
0.00697896
0.00721101
0.00741619
0.00759718
0.00775681
0.00789755
0.00802092
0.00812751
0.00821757
0.000105128
0.000849159
0.00162688
0.00231737
0.00294122
0.00351365
0.00404292
0.00453365
0.00498849
0.0054089
0.00579553
0.00614865
0.00646861
0.00675634
0.0070136
0.00724274
0.00744622
0.00762648
0.00778624
0.00792773
0.00805205
0.00815933
0.00824954
0.000105649
0.000843657
0.00161249
0.00230639
0.00294232
0.00352881
0.00407001
0.00456909
0.00502873
0.00545099
0.00583721
0.00618832
0.00650549
0.00679079
0.00704734
0.00727837
0.00748598
0.00767137
0.00783622
0.00798146
0.00810778
0.00821534
0.00830443
0.000106762
0.000830651
0.00155479
0.00224642
0.00290401
0.00351586
0.00407737
0.00459001
0.00505748
0.00548335
0.00587033
0.00622056
0.0065366
0.00682236
0.00708306
0.00732324
0.00754431
0.00774517
0.00792341
0.00807539
0.00820249
0.00830709
0.0083913
0.00012594
0.000908485
0.00146084
0.00211568
0.00281231
0.00347001
0.00406433
0.00459682
0.0050751
0.00550608
0.00589483
0.0062453
0.00656197
0.00685127
0.00712121
0.00737874
0.00762756
0.0078656
0.00807087
0.00822991
0.00835144
0.00844524
0.00851751
0.000224573
0.00153428
0.00160826
0.00197536
0.00267613
0.00339812
0.00403687
0.00459334
0.00508354
0.00551999
0.00591088
0.00626225
0.00658063
0.00687489
0.00715592
0.0074362
0.00773594
0.00807161
0.00831563
0.00846764
0.00856665
0.00863591
0.00868631
0.000416
0.00328665
0.00225373
0.00201061
0.00257073
0.00333477
0.0040119
0.00458737
0.00508618
0.00552636
0.00591874
0.00627087
0.00659056
0.00688804
0.00717586
0.00747497
0.0078518
0.00849452
0.00871908
0.00880598
0.00884953
0.0088763
0.00889462
0.000219194
0.000200701
0.000199887
0.000217411
0.00168719
0.00160874
0.00161058
0.00169591
0.00304508
0.0029672
0.00296043
0.00302245
0.00400769
0.00395212
0.00393359
0.0039512
0.00470565
0.00465924
0.00462488
0.00460182
0.00520761
0.00516384
0.00511923
0.00507665
0.00558638
0.00554684
0.00549969
0.00545216
0.00585566
0.00581334
0.00576958
0.00573207
0.00603748
0.00600603
0.00597795
0.00595432
0.00620124
0.00618295
0.00616632
0.00615112
0.00635778
0.00634754
0.00633738
0.00632701
0.00651137
0.00650524
0.00649841
0.00649053
0.00666566
0.00666112
0.00665538
0.00664803
0.00681803
0.00681385
0.00680792
0.00679981
0.00696187
0.00695784
0.00695143
0.00694226
0.00709151
0.00708809
0.00708169
0.00707201
0.00720503
0.00720299
0.00719748
0.00718829
0.00730402
0.00730418
0.00730051
0.00729286
0.007392
0.00739505
0.00739401
0.00738877
0.00747211
0.00747865
0.00748091
0.00747881
0.00754779
0.00755803
0.00756385
0.00756519
0.00762183
0.0076358
0.00764524
0.0076501
0.00769567
0.00771325
0.00772621
0.00773449
0.00776966
0.00779062
0.00780687
0.00781836
0.0078432
0.00786721
0.00788644
0.00790086
0.00791521
0.00794183
0.00796361
0.00798054
0.00798396
0.00801264
0.00803647
0.00805546
0.00804731
0.00807748
0.00810285
0.00812342
0.0081031
0.00813421
0.00816062
0.00818233
0.00814955
0.00818114
0.00820815
0.00823061
0.0081857
0.00821739
0.0082447
0.00826763
0.00821173
0.00824333
0.00827073
0.00829397
0.0082293
0.00826074
0.00828818
0.00831166
0.00824167
0.00827301
0.00830054
0.00832428
0.00825373
0.00828509
0.00831276
0.00833678
0.00827186
0.00830326
0.00833103
0.00835522
0.00830358
0.00833475
0.00836229
0.00838628
0.00835701
0.00838714
0.00841363
0.00843663
0.00843983
0.00846735
0.00849135
0.00851205
0.00855788
0.00858049
0.00859999
0.00861667
0.00871349
0.0087285
0.0087413
0.00875216
0.00890419
0.00890942
0.00891384
0.00891756
0.00113282
0.00207032
0.00269168
0.00302909
0.00318971
0.00324429
0.00323326
0.00319223
0.00314452
0.00309521
0.00303472
0.00294498
0.0028159
0.0026376
0.00239169
0.00204438
0.00154791
0.00086325
0.000130064
0.00224154
0.00285873
0.00329214
0.00355313
0.00368816
0.00373668
0.00372781
0.00368705
0.00362932
0.00355803
0.00346414
0.00333801
0.00317058
0.00295085
0.00266585
0.00228718
0.00176618
0.00103641
0.000142364
0.00324402
0.00358157
0.00385265
0.00403465
0.00413277
0.00416348
0.00414705
0.00410132
0.004032
0.00393574
0.00380902
0.00364711
0.00343891
0.00317732
0.00285187
0.00244019
0.00189386
0.00112762
0.000153101
0.00403054
0.00418799
0.00434219
0.00446057
0.00452275
0.00453096
0.00450049
0.00444321
0.00435798
0.00423645
0.00407598
0.00387733
0.00362652
0.0033164
0.00293886
0.00248274
0.00191213
0.00113709
0.000156636
0.00459091
0.00465872
0.00474885
0.00482414
0.00485831
0.00484385
0.00479561
0.00472034
0.00461209
0.00446041
0.00426129
0.00400908
0.00369619
0.00332299
0.00288912
0.00238905
0.00179636
0.00105532
0.000153572
0.00501956
0.00502709
0.00507782
0.00512475
0.00513703
0.0051054
0.00504252
0.00495121
0.00482041
0.00463685
0.00439544
0.00408991
0.00371321
0.00326972
0.00276655
0.00221042
0.00160438
0.000903959
0.000143637
0.00538892
0.0053673
0.00537742
0.0053877
0.00537458
0.00532478
0.00524443
0.00513302
0.00497574
0.00475971
0.00448122
0.00414684
0.00374268
0.00327071
0.00273342
0.00214153
0.00151197
0.000797192
0.000136427
0.00568479
0.00565403
0.00564191
0.005624
0.00558528
0.00551318
0.00540992
0.00527274
0.00509013
0.00485457
0.00455995
0.00421552
0.00381566
0.0033518
0.00282677
0.00224606
0.00160576
0.000856255
0.000137874
0.00592415
0.00589284
0.00586746
0.00582835
0.00576533
0.00567123
0.00554561
0.00538421
0.00518171
0.00493418
0.00463765
0.00429644
0.0039077
0.00346236
0.00295935
0.00239688
0.00175636
0.000985228
0.000141847
0.00613
0.00609756
0.00605994
0.00600355
0.00592121
0.00580856
0.00566391
0.00548454
0.00526788
0.00501164
0.00471383
0.00437541
0.00399161
0.00355115
0.00304628
0.00247089
0.00180748
0.00101133
0.000141161
0.00631023
0.00627606
0.00622892
0.00615936
0.00606223
0.00593447
0.00577469
0.00558146
0.00535342
0.00508908
0.00478674
0.00444431
0.00405424
0.0036054
0.00308496
0.00248195
0.00178308
0.000968595
0.000130587
0.00647504
0.00643832
0.00638333
0.00630329
0.00619432
0.00605438
0.00588259
0.0056782
0.00544032
0.00516758
0.00485749
0.00450493
0.00410206
0.00363558
0.00308855
0.00244875
0.00170967
0.000885198
0.00012023
0.00663145
0.00659055
0.00652817
0.00643916
0.00632059
0.00617108
0.00599003
0.00577689
0.00553073
0.00524975
0.0049304
0.00456607
0.00414731
0.0036595
0.00308747
0.00241953
0.00164932
0.000811109
0.000116217
0.0067807
0.00673453
0.00666521
0.0065687
0.00644276
0.00628631
0.00609876
0.00587943
0.00562704
0.00533921
0.00501164
0.00463717
0.00420548
0.003703
0.00311637
0.00243265
0.00164147
0.000784136
0.000119033
0.0069206
0.00686963
0.00679476
0.00669284
0.00656205
0.00640139
0.00621013
0.00598728
0.00573121
0.00543909
0.00510633
0.00472592
0.00428805
0.00378051
0.00319047
0.00250144
0.00169806
0.000813152
0.000126069
0.00704902
0.00699521
0.00691719
0.00681249
0.00667958
0.00651742
0.00632507
0.0061013
0.00584417
0.00555067
0.00521626
0.00483433
0.00439597
0.00389011
0.00330315
0.00261483
0.001804
0.000888141
0.000134018
0.00716581
0.00711188
0.00703353
0.00692882
0.00679639
0.00663518
0.00644407
0.00622163
0.00596576
0.00567337
0.00534003
0.00495946
0.00452306
0.00402093
0.00343819
0.00275289
0.00193351
0.000982166
0.000141371
0.00727273
0.00722139
0.00714537
0.00704312
0.00691342
0.00675516
0.00656715
0.0063478
0.0060949
0.00580532
0.00547458
0.0050966
0.00466338
0.00416379
0.00358153
0.00289279
0.00206638
0.00108156
0.000147834
0.00737249
0.00732595
0.00725439
0.00715653
0.00703125
0.00687745
0.00669386
0.00647879
0.00622993
0.00594401
0.00561667
0.0052418
0.00481079
0.0043113
0.00372522
0.00302656
0.00218193
0.00116806
0.000153734
0.00746765
0.00742755
0.00736195
0.00726979
0.00715006
0.00700169
0.00682333
0.00661321
0.00636881
0.00608707
0.00576322
0.00539073
0.0049602
0.00445794
0.00386399
0.00315002
0.00227931
0.00122321
0.000158435
0.00755968
0.00752701
0.00746841
0.00738291
0.00726953
0.00712717
0.00695442
0.00674942
0.00650983
0.00623206
0.00591111
0.00553981
0.00510782
0.0046001
0.00399503
0.0032623
0.00236279
0.00126522
0.000161456
0.00765039
0.00762536
0.00757399
0.00749537
0.00738852
0.00725233
0.00708544
0.00688587
0.00665092
0.00637675
0.00605788
0.00568646
0.00525118
0.00473583
0.00411736
0.00336404
0.00243541
0.00129954
0.000163019
0.00774046
0.00772293
0.00767865
0.00760683
0.00750653
0.00737661
0.00721554
0.00702116
0.0067905
0.00651933
0.00620166
0.00582893
0.00538896
0.00486449
0.00423137
0.00345681
0.00249977
0.0013289
0.00016352
0.00782963
0.00781916
0.00778172
0.00771652
0.00762262
0.00749876
0.00734327
0.00715379
0.00692699
0.00665827
0.00634107
0.00596619
0.00552066
0.00498634
0.00433823
0.00354279
0.00255858
0.00135513
0.000164046
0.00791692
0.00791295
0.00788191
0.00782299
0.00773518
0.00761713
0.00746698
0.0072821
0.00705886
0.0067922
0.00647507
0.00609764
0.00564626
0.00510207
0.00443937
0.00362402
0.00261406
0.00137934
0.000165126
0.00800078
0.00800261
0.0079774
0.00792432
0.00784228
0.0077298
0.00758479
0.00740438
0.00718459
0.00691992
0.00660284
0.00622293
0.00576594
0.0052124
0.00453602
0.00370205
0.00266778
0.00140294
0.000166447
0.00807918
0.00808602
0.00806605
0.00801837
0.00794181
0.00783472
0.00769481
0.00751892
0.00730273
0.00704032
0.00672366
0.0063418
0.00587992
0.00531798
0.00462912
0.00377794
0.00272083
0.00142688
0.000167804
0.00814988
0.00816097
0.00814565
0.00810299
0.00803169
0.00792994
0.00779525
0.00762417
0.00741201
0.00715246
0.00683699
0.00645413
0.00598849
0.00541943
0.00471948
0.0038525
0.00277386
0.00145155
0.00016911
0.00821087
0.00822549
0.00821433
0.00817636
0.00811021
0.0080139
0.0078847
0.00771892
0.0075115
0.00725573
0.00694259
0.00656006
0.00609213
0.00551753
0.00480801
0.0039266
0.00282757
0.00147765
0.000170075
0.00826067
0.00827825
0.00827083
0.00823736
0.00817635
0.00808567
0.00796242
0.00780261
0.00760088
0.00735008
0.0070407
0.00666015
0.00619175
0.00561343
0.00489607
0.00400163
0.00288325
0.00150652
0.000170481
0.00829879
0.00831888
0.00831494
0.00828586
0.00823007
0.00814534
0.00802859
0.0078756
0.00768069
0.0074363
0.0071324
0.00675576
0.00628894
0.00570898
0.00498567
0.00407964
0.00294257
0.00153853
0.000171101
0.00832597
0.00834832
0.0083477
0.00832298
0.00827257
0.00819417
0.00808458
0.00793937
0.00775258
0.00751625
0.00721979
0.00684926
0.00638633
0.00580695
0.00507961
0.00416329
0.00300734
0.00157313
0.000173106
0.00834441
0.00836889
0.0083715
0.00835117
0.00830633
0.00823469
0.00813298
0.00799664
0.00781946
0.00759306
0.00730628
0.00694434
0.00648783
0.00591136
0.00518177
0.00425597
0.00308025
0.00161207
0.000176544
0.00835777
0.00838429
0.00839004
0.00837411
0.00833503
0.0082706
0.00817757
0.0080513
0.00788541
0.00767112
0.00739664
0.00704621
0.00659903
0.00602792
0.00529755
0.00436232
0.00316512
0.00165877
0.000180967
0.00837098
0.00839935
0.00840806
0.00839645
0.00836328
0.00830649
0.00822296
0.00810811
0.00795542
0.00775583
0.00749684
0.00716155
0.00672733
0.00616447
0.00543455
0.00448872
0.00326649
0.00171606
0.000186486
0.00838988
0.00841965
0.00843093
0.0084234
0.00839615
0.00834739
0.00827422
0.00817222
0.00803493
0.00785306
0.00761353
0.0072981
0.00688177
0.00633119
0.00560321
0.00464403
0.0033896
0.00178576
0.000193346
0.00842074
0.00845102
0.00846413
0.00846022
0.00843874
0.00839828
0.00833627
0.0082486
0.00812906
0.00796843
0.0077532
0.00746383
0.00707245
0.00654055
0.00581737
0.00484069
0.00354157
0.00186862
0.000202186
0.0084696
0.00849892
0.00851275
0.00851172
0.00849569
0.00846362
0.0084134
0.00834142
0.00824199
0.00810634
0.00792106
0.00766569
0.00730939
0.00680686
0.00609522
0.00509632
0.00373152
0.00196575
0.000213438
0.00854159
0.00856792
0.00858104
0.00858194
0.0085708
0.00854699
0.0085089
0.00845361
0.00837628
0.00826916
0.00811981
0.00790801
0.00760093
0.00714579
0.0064617
0.00543919
0.00397269
0.00207808
0.000227026
0.00864031
0.00866131
0.00867214
0.00867389
0.00866693
0.00865097
0.00862491
0.00858666
0.00853259
0.00845667
0.00834863
0.00819069
0.00795113
0.00757259
0.00695229
0.00592098
0.00428352
0.00220356
0.000242471
0.00876744
0.00878094
0.00878805
0.00878963
0.00878606
0.00877722
0.00876255
0.00874083
0.00870991
0.00866604
0.00860256
0.00850709
0.00835523
0.00809572
0.00761396
0.0066472
0.00467976
0.00233484
0.000258512
0.00892278
0.00892737
0.00892982
0.00893047
0.00892947
0.0089268
0.00892232
0.00891565
0.00890613
0.00889259
0.00887286
0.00884267
0.00879275
0.00869942
0.00848821
0.00785766
0.00510894
0.0024413
0.000272242
)
;

boundaryField
{
    leftWall
    {
        type            nutkWallFunction;
        Cmu             0.09;
        kappa           0.41;
        E               9.8;
        value           nonuniform List<scalar> 
50
(
6.20867e-06
9.22797e-06
1.09797e-05
1.22451e-05
1.32304e-05
1.40437e-05
1.47482e-05
1.53939e-05
1.61371e-05
1.70578e-05
1.79636e-05
1.85799e-05
2.01055e-05
2.24918e-05
2.23249e-05
2.06794e-05
1.94289e-05
1.59006e-05
1.80076e-05
1.94601e-05
2.00678e-05
2.0048e-05
1.96041e-05
1.889e-05
1.815e-05
1.73713e-05
1.65236e-05
1.56081e-05
1.46151e-05
1.35232e-05
1.23379e-05
1.12156e-05
1.01512e-05
9.15766e-06
8.26683e-06
7.49973e-06
6.86069e-06
6.34622e-06
5.95385e-06
5.68301e-06
5.52969e-06
5.48157e-06
5.5168e-06
5.6055e-06
5.71103e-06
5.79488e-06
5.94978e-06
8.72405e-06
2.3072e-05
4.90977e-05
)
;
    }
    rightWall
    {
        type            nutkWallFunction;
        Cmu             0.09;
        kappa           0.41;
        E               9.8;
        value           nonuniform List<scalar> 
50
(
6.39055e-06
8.98944e-06
1.04213e-05
1.15218e-05
1.23992e-05
1.28889e-05
1.34247e-05
1.41273e-05
1.5222e-05
1.65632e-05
1.77985e-05
1.65472e-05
1.70453e-05
1.61897e-05
1.57156e-05
1.38944e-05
1.13731e-05
1.13058e-05
9.708e-06
8.06799e-06
7.47007e-06
8.26766e-06
9.34007e-06
1.04242e-05
1.12423e-05
1.24903e-05
1.33676e-05
1.4072e-05
1.45222e-05
1.45504e-05
1.45769e-05
1.48187e-05
1.49784e-05
1.51712e-05
1.53692e-05
1.556e-05
1.55895e-05
1.55808e-05
1.57056e-05
1.61135e-05
1.66107e-05
1.72505e-05
1.80459e-05
1.90049e-05
2.02409e-05
2.18496e-05
2.37689e-05
2.59391e-05
2.81982e-05
3.01032e-05
)
;
    }
    lowerWall
    {
        type            nutkWallFunction;
        Cmu             0.09;
        kappa           0.41;
        E               9.8;
        value           nonuniform List<scalar> 
62
(
2.80816e-06
4.68636e-06
5.67317e-06
6.30869e-06
6.76683e-06
7.11445e-06
7.38467e-06
7.59745e-06
7.76609e-06
7.89947e-06
8.00313e-06
8.0826e-06
8.14107e-06
8.17608e-06
8.18483e-06
8.15842e-06
8.05806e-06
7.8537e-06
7.58501e-06
7.23955e-06
6.68142e-06
5.6186e-06
3.42146e-06
3.42146e-06
1.10649e-05
1.28704e-05
1.42426e-05
1.54503e-05
1.67141e-05
1.84589e-05
2.19164e-05
2.46688e-05
2.27557e-05
2.26805e-05
2.4505e-05
3.10132e-06
1.20504e-05
1.42866e-05
1.60963e-05
1.77919e-05
1.96934e-05
2.19615e-05
2.54872e-05
3.10132e-06
5.46151e-06
6.35857e-06
6.73967e-06
6.89572e-06
6.87831e-06
6.67785e-06
6.29078e-06
6.02793e-06
6.08943e-06
6.14752e-06
6.06056e-06
6.01222e-06
6.13105e-06
6.2107e-06
5.96217e-06
5.24099e-06
4.14634e-06
2.57097e-06
)
;
    }
    atmosphere
    {
        type            calculated;
        value           nonuniform List<scalar> 
46
(
0.009
0.009
0.00225373
0.00201061
0.00257073
0.00333477
0.0040119
0.00458737
0.00508618
0.00552636
0.00591874
0.00627087
0.00659056
0.00688804
0.00717586
0.00747497
0.0078518
0.009
0.009
0.009
0.009
0.009
0.009
0.009
0.009
0.009
0.009
0.009
0.009
0.009
0.009
0.009
0.009
0.009
0.009
0.009
0.009
0.009
0.009
0.009
0.009
0.009
0.009
0.00510894
0.0024413
0.000272242
)
;
    }
    defaultFaces
    {
        type            empty;
    }
}


// ************************************************************************* //
