/*--------------------------------*- C++ -*----------------------------------*\
  =========                 |
  \\      /  F ield         | OpenFOAM: The Open Source CFD Toolbox
   \\    /   O peration     | Website:  https://openfoam.org
    \\  /    A nd           | Version:  9
     \\/     M anipulation  |
\*---------------------------------------------------------------------------*/
FoamFile
{
    format      ascii;
    class       volScalarField;
    location    "9.39";
    object      p;
}
// * * * * * * * * * * * * * * * * * * * * * * * * * * * * * * * * * * * * * //

dimensions      [1 -1 -2 0 0 0 0];

internalField   nonuniform List<scalar> 
2268
(
741.61
741.455
741.146
740.681
740.072
739.329
738.465
737.495
736.436
735.309
734.135
732.934
731.726
730.528
729.354
728.226
727.171
726.232
725.408
724.744
724.337
724.028
723.885
682.785
682.629
682.319
681.852
681.24
680.493
679.625
678.65
677.587
676.454
675.272
674.062
672.843
671.634
670.454
669.333
668.302
667.392
666.639
666.004
665.497
665.121
664.973
623.995
623.837
623.525
623.054
622.436
621.682
620.807
619.824
618.751
617.609
616.416
615.193
613.961
612.741
611.554
610.437
609.417
608.529
607.826
607.186
606.608
606.178
606.036
565.241
565.081
564.765
564.289
563.663
562.9
562.014
561.02
559.934
558.776
557.567
556.329
555.083
553.851
552.657
551.535
550.504
549.62
548.93
548.295
547.669
547.193
547.077
506.523
506.361
506.041
505.557
504.921
504.146
503.248
502.238
501.133
499.955
498.727
497.47
496.207
494.963
493.761
492.632
491.567
490.662
489.962
489.334
488.674
488.186
488.104
447.843
447.677
447.352
446.859
446.211
445.422
444.507
443.478
442.35
441.147
439.893
438.612
437.331
436.075
434.866
433.74
432.63
431.646
430.949
430.322
429.63
429.234
429.106
389.201
389.031
388.699
388.196
387.532
386.726
385.793
384.741
383.584
382.35
381.064
379.755
378.453
377.184
375.972
374.858
373.818
372.769
371.909
371.273
370.688
370.387
370.075
330.596
330.422
330.082
329.565
328.883
328.057
327.102
326.025
324.833
323.562
322.24
320.898
319.57
318.289
317.077
315.988
315.139
314.168
313.03
312.323
311.938
311.496
311.008
724.66
724.866
725.575
726.308
727.109
727.944
728.819
729.746
730.694
731.656
732.546
733.321
734.28
735.33
736.17
736.845
737.305
737.646
737.892
665.773
665.904
666.589
667.334
668.164
669.024
669.972
670.954
671.939
672.943
673.979
674.955
675.827
676.618
677.431
678.114
678.58
678.923
679.157
606.802
607.005
607.646
608.377
609.221
610.104
611.069
612.074
613.092
614.149
615.284
616.546
617.438
618.024
618.75
619.424
619.964
620.321
620.573
547.957
548.232
548.755
549.449
550.291
551.19
552.175
553.207
554.254
555.358
556.529
557.928
558.94
559.474
560.092
560.749
561.343
561.713
561.949
489.297
489.491
489.89
490.533
491.366
492.279
493.285
494.348
495.423
496.572
497.775
499.139
500.26
500.826
501.47
502.072
502.651
503.077
503.316
430.612
430.724
431.01
431.604
432.433
433.358
434.389
435.489
436.577
437.756
439.006
440.324
441.457
442.119
442.903
443.601
444.103
444.422
444.727
371.713
371.809
372.065
372.642
373.486
374.421
375.487
376.645
377.746
378.904
380.216
381.53
382.666
383.458
384.432
385.316
385.783
385.87
386.194
312.566
312.707
313.032
313.64
314.526
315.467
316.581
317.837
319.12
320.204
321.44
322.76
323.908
324.849
326.13
326.896
327.496
327.468
327.719
239.031
238.843
238.486
237.944
237.228
236.365
235.375
234.254
233.001
231.663
230.275
228.866
227.497
226.192
224.98
223.91
223.064
222.226
221.341
220.527
219.839
219.259
218.623
114.671
114.476
114.13
113.553
112.747
111.807
110.776
109.649
108.447
107.185
105.89
104.607
103.334
102.107
100.929
99.814
98.8254
98.0907
97.4179
96.6686
95.9094
95.3121
94.9542
26.113
26.0002
25.8063
25.5038
25.1178
24.638
24.0874
23.495
22.9272
22.3508
21.7749
21.1918
20.5838
19.967
19.3561
18.78
18.3128
17.9592
17.64
17.3268
17.0442
16.8461
16.7423
-0.763433
-0.762047
-0.777773
-0.763665
-0.661803
-0.616081
-0.619568
-0.633804
-0.63591
-0.640634
-0.647723
-0.663962
-0.683567
-0.688939
-0.688349
-0.695755
-0.72489
-0.767556
-0.809446
-0.810114
-0.796448
-0.791006
-0.803182
-0.970319
-0.969429
-0.972086
-0.968447
-0.950473
-0.940964
-0.936968
-0.933465
-0.928052
-0.924794
-0.923288
-0.923766
-0.927067
-0.930088
-0.931573
-0.936812
-0.946296
-0.954681
-0.961274
-0.964298
-0.963006
-0.963214
-0.968604
-1.15262
-1.15279
-1.15231
-1.15332
-1.16293
-1.16435
-1.16373
-1.16171
-1.16145
-1.16072
-1.1592
-1.15642
-1.15308
-1.15118
-1.15036
-1.14943
-1.14693
-1.14246
-1.13618
-1.13496
-1.13439
-1.13207
-1.12869
-1.29287
-1.29318
-1.29234
-1.29182
-1.29254
-1.29109
-1.29008
-1.28935
-1.28812
-1.28644
-1.28466
-1.28263
-1.28043
-1.2789
-1.27807
-1.2771
-1.27582
-1.27532
-1.27477
-1.27376
-1.27336
-1.2726
-1.27006
-1.41705
-1.41719
-1.41666
-1.41629
-1.41608
-1.41497
-1.41439
-1.41371
-1.41274
-1.41155
-1.41048
-1.40974
-1.40886
-1.4077
-1.40637
-1.40452
-1.40292
-1.40199
-1.40126
-1.40048
-1.40008
-1.39985
-1.39915
-1.54131
-1.54134
-1.54104
-1.54073
-1.54038
-1.53969
-1.53907
-1.53839
-1.53755
-1.53665
-1.53587
-1.53536
-1.53472
-1.53361
-1.53224
-1.53085
-1.52941
-1.52841
-1.52766
-1.52698
-1.52652
-1.52613
-1.52544
-1.66568
-1.66566
-1.66546
-1.6652
-1.66489
-1.66438
-1.66383
-1.66321
-1.66249
-1.66176
-1.66106
-1.6604
-1.65965
-1.65868
-1.65763
-1.65663
-1.65552
-1.6546
-1.6539
-1.65334
-1.65293
-1.6526
-1.65215
-1.79017
-1.79012
-1.78997
-1.78975
-1.78948
-1.78909
-1.78861
-1.78806
-1.78746
-1.78685
-1.78619
-1.78551
-1.78479
-1.78389
-1.78296
-1.78209
-1.78132
-1.78061
-1.78004
-1.7796
-1.77931
-1.77922
-1.77934
-1.91475
-1.91469
-1.91456
-1.91437
-1.91413
-1.91381
-1.91338
-1.91291
-1.91244
-1.91193
-1.91131
-1.91069
-1.91004
-1.9093
-1.90849
-1.90771
-1.90703
-1.90652
-1.90607
-1.90573
-1.90554
-1.9056
-1.90601
-2.03941
-2.03935
-2.03923
-2.03907
-2.03884
-2.03855
-2.03819
-2.03781
-2.03744
-2.03697
-2.03643
-2.0359
-2.03537
-2.03486
-2.03424
-2.03352
-2.03284
-2.03239
-2.032
-2.03171
-2.03157
-2.03163
-2.03191
-2.16413
-2.16408
-2.16398
-2.16383
-2.16363
-2.16338
-2.16306
-2.16276
-2.16244
-2.16202
-2.16156
-2.1611
-2.16067
-2.16029
-2.15987
-2.15934
-2.15875
-2.15822
-2.15783
-2.15756
-2.15743
-2.15744
-2.1576
-2.28892
-2.28887
-2.28878
-2.28865
-2.28848
-2.28827
-2.28802
-2.28776
-2.28747
-2.28709
-2.28669
-2.2863
-2.28592
-2.28558
-2.28526
-2.2849
-2.28444
-2.28391
-2.28354
-2.28329
-2.28315
-2.28313
-2.2832
-2.41376
-2.41371
-2.41363
-2.41351
-2.41337
-2.41321
-2.41303
-2.41279
-2.4125
-2.41217
-2.41182
-2.41148
-2.41115
-2.41083
-2.41052
-2.4102
-2.40983
-2.40944
-2.40913
-2.40891
-2.40878
-2.40873
-2.40875
-2.53863
-2.53858
-2.53852
-2.53842
-2.5383
-2.53816
-2.53802
-2.53781
-2.53754
-2.53725
-2.53695
-2.53665
-2.53636
-2.53607
-2.53579
-2.5355
-2.53519
-2.53489
-2.53464
-2.53445
-2.53433
-2.53426
-2.53426
-2.66354
-2.6635
-2.66344
-2.66336
-2.66326
-2.66313
-2.66299
-2.66281
-2.66259
-2.66234
-2.66209
-2.66182
-2.66156
-2.66131
-2.66105
-2.6608
-2.66054
-2.6603
-2.66009
-2.65993
-2.65981
-2.65975
-2.65973
-2.78848
-2.78845
-2.7884
-2.78833
-2.78824
-2.78813
-2.788
-2.78784
-2.78765
-2.78744
-2.78722
-2.78699
-2.78677
-2.78654
-2.78631
-2.78609
-2.78588
-2.78567
-2.7855
-2.78536
-2.78526
-2.78519
-2.78516
-2.91345
-2.91346
-2.9134
-2.91334
-2.91326
-2.91316
-2.91304
-2.9129
-2.91273
-2.91255
-2.91236
-2.91217
-2.91197
-2.91177
-2.91157
-2.91138
-2.91119
-2.91102
-2.91087
-2.91075
-2.91066
-2.9106
-2.91057
-3.03849
-3.03847
-3.03843
-3.03837
-3.03829
-3.0382
-3.0381
-3.03797
-3.03783
-3.03768
-3.03751
-3.03734
-3.03716
-3.03699
-3.03682
-3.03665
-3.03649
-3.03635
-3.03622
-3.03612
-3.03604
-3.03598
-3.03595
-3.16354
-3.16351
-3.16347
-3.16342
-3.16335
-3.16327
-3.16318
-3.16307
-3.16294
-3.16281
-3.16266
-3.16251
-3.16236
-3.16221
-3.16206
-3.16192
-3.16178
-3.16166
-3.16155
-3.16146
-3.16139
-3.16134
-3.16131
-3.2886
-3.28857
-3.28853
-3.28849
-3.28843
-3.28835
-3.28827
-3.28817
-3.28806
-3.28795
-3.28782
-3.28769
-3.28756
-3.28743
-3.2873
-3.28717
-3.28705
-3.28695
-3.28685
-3.28678
-3.28671
-3.28667
-3.28665
-3.41369
-3.41363
-3.41361
-3.41357
-3.41352
-3.41345
-3.41338
-3.41329
-3.4132
-3.41309
-3.41298
-3.41287
-3.41275
-3.41264
-3.41253
-3.41242
-3.41232
-3.41223
-3.41215
-3.41208
-3.41203
-3.41199
-3.41197
-3.53876
-3.53875
-3.53871
-3.53867
-3.53862
-3.53856
-3.53849
-3.53842
-3.53833
-3.53824
-3.53815
-3.53805
-3.53795
-3.53785
-3.53775
-3.53766
-3.53757
-3.53749
-3.53743
-3.53737
-3.53732
-3.53729
-3.53727
-3.66385
-3.66388
-3.66383
-3.66378
-3.66374
-3.66368
-3.66362
-3.66355
-3.66348
-3.6634
-3.66332
-3.66323
-3.66315
-3.66306
-3.66297
-3.66289
-3.66282
-3.66275
-3.66269
-3.66264
-3.66261
-3.66258
-3.66257
-3.78899
-3.78899
-3.78894
-3.7889
-3.78886
-3.78881
-3.78875
-3.78869
-3.78863
-3.78856
-3.78849
-3.78841
-3.78834
-3.78826
-3.78819
-3.78812
-3.78806
-3.788
-3.78795
-3.78791
-3.78788
-3.78786
-3.78785
-3.91414
-3.9141
-3.91406
-3.91403
-3.91399
-3.91394
-3.91389
-3.91384
-3.91378
-3.91372
-3.91366
-3.9136
-3.91353
-3.91347
-3.91341
-3.91335
-3.91329
-3.91324
-3.9132
-3.91317
-3.91314
-3.91312
-3.91312
-4.03925
-4.03923
-4.03919
-4.03916
-4.03912
-4.03908
-4.03904
-4.03899
-4.03894
-4.03889
-4.03884
-4.03878
-4.03873
-4.03867
-4.03862
-4.03857
-4.03852
-4.03848
-4.03844
-4.03842
-4.03839
-4.03838
-4.03838
-4.16437
-4.16436
-4.16433
-4.16429
-4.16426
-4.16422
-4.16418
-4.16415
-4.1641
-4.16406
-4.16402
-4.16397
-4.16392
-4.16387
-4.16383
-4.16379
-4.16375
-4.16371
-4.16368
-4.16366
-4.16364
-4.16363
-4.16363
-4.28949
-4.2895
-4.28946
-4.28943
-4.28939
-4.28936
-4.28933
-4.2893
-4.28927
-4.28923
-4.28919
-4.28916
-4.28912
-4.28908
-4.28904
-4.289
-4.28897
-4.28894
-4.28891
-4.28889
-4.28888
-4.28888
-4.28888
-4.41465
-4.41463
-4.41459
-4.41456
-4.41453
-4.41451
-4.41449
-4.41446
-4.41444
-4.41441
-4.41438
-4.41434
-4.41431
-4.41428
-4.41424
-4.41421
-4.41419
-4.41416
-4.41414
-4.41413
-4.41412
-4.41411
-4.41412
-4.53981
-4.53976
-4.53973
-4.5397
-4.53967
-4.53966
-4.53965
-4.53963
-4.53961
-4.53959
-4.53956
-4.53953
-4.53951
-4.53948
-4.53945
-4.53942
-4.5394
-4.53938
-4.53937
-4.53935
-4.53935
-4.53935
-4.53935
-4.66494
-4.66492
-4.66487
-4.66483
-4.66481
-4.66481
-4.66481
-4.6648
-4.66479
-4.66477
-4.66475
-4.66473
-4.6647
-4.66468
-4.66466
-4.66464
-4.66462
-4.6646
-4.66459
-4.66458
-4.66458
-4.66458
-4.66458
-4.7901
-4.79006
-4.79
-4.78996
-4.78996
-4.78997
-4.78998
-4.78998
-4.78997
-4.78996
-4.78994
-4.78992
-4.7899
-4.78988
-4.78986
-4.78985
-4.78983
-4.78982
-4.78981
-4.7898
-4.7898
-4.7898
-4.78981
-4.91525
-4.91519
-4.91515
-4.91514
-4.91514
-4.91516
-4.91516
-4.91516
-4.91516
-4.91515
-4.91514
-4.91512
-4.91511
-4.91509
-4.91507
-4.91506
-4.91504
-4.91503
-4.91503
-4.91502
-4.91502
-4.91503
-4.91504
-5.04039
-5.04033
-5.04032
-5.04033
-5.04035
-5.04036
-5.04036
-5.04036
-5.04035
-5.04035
-5.04034
-5.04032
-5.04031
-5.0403
-5.04028
-5.04027
-5.04026
-5.04025
-5.04024
-5.04024
-5.04024
-5.04025
-5.04026
-5.16551
-5.16544
-5.16549
-5.16553
-5.16556
-5.16556
-5.16556
-5.16556
-5.16555
-5.16555
-5.16554
-5.16553
-5.16552
-5.16551
-5.16549
-5.16548
-5.16547
-5.16547
-5.16546
-5.16546
-5.16546
-5.16547
-5.16548
-5.29053
-5.29056
-5.29064
-5.29072
-5.29076
-5.29076
-5.29076
-5.29076
-5.29076
-5.29075
-5.29074
-5.29073
-5.29073
-5.29072
-5.29071
-5.2907
-5.29069
-5.29068
-5.29068
-5.29068
-5.29068
-5.29069
-5.2907
-5.41559
-5.41567
-5.41581
-5.4159
-5.41595
-5.41596
-5.41597
-5.41597
-5.41596
-5.41596
-5.41595
-5.41594
-5.41594
-5.41593
-5.41592
-5.41591
-5.41591
-5.4159
-5.4159
-5.4159
-5.4159
-5.4159
-5.41592
-5.54066
-5.54086
-5.54101
-5.5411
-5.54115
-5.54116
-5.54116
-5.54116
-5.54115
-5.54115
-5.54114
-5.54114
-5.54113
-5.54113
-5.54112
-5.54112
-5.54111
-5.54111
-5.54111
-5.5411
-5.5411
-5.5411
-5.54112
-5.66593
-5.66641
-5.66634
-5.66635
-5.66636
-5.66636
-5.66635
-5.66635
-5.66635
-5.66634
-5.66634
-5.66634
-5.66634
-5.66633
-5.66633
-5.66633
-5.66633
-5.66633
-5.66633
-5.66633
-5.66631
-5.66628
-5.66631
218.703
218.625
218.768
218.897
94.9046
94.9365
95.001
95.0945
16.6916
16.691
16.732
16.8105
-0.796697
-0.782627
-0.774402
-0.776707
-0.967385
-0.965772
-0.963299
-0.963053
-1.12818
-1.12978
-1.12961
-1.12925
-1.2697
-1.27101
-1.27254
-1.27268
-1.39834
-1.39816
-1.39838
-1.39841
-1.52492
-1.52468
-1.52461
-1.52456
-1.65186
-1.65177
-1.65166
-1.65152
-1.77935
-1.77927
-1.77918
-1.77911
-1.90632
-1.90645
-1.90648
-1.9065
-2.03226
-2.03251
-2.03268
-2.03275
-2.15778
-2.1579
-2.15798
-2.15803
-2.28329
-2.28335
-2.2834
-2.28343
-2.40879
-2.40882
-2.40885
-2.40888
-2.53427
-2.53429
-2.53431
-2.53433
-2.65973
-2.65974
-2.65975
-2.65977
-2.78516
-2.78516
-2.78517
-2.78519
-2.91056
-2.91056
-2.91057
-2.91058
-3.03594
-3.03594
-3.03595
-3.03596
-3.1613
-3.1613
-3.1613
-3.16131
-3.28664
-3.28664
-3.28664
-3.28665
-3.41196
-3.41196
-3.41197
-3.41197
-3.53727
-3.53727
-3.53727
-3.53728
-3.66256
-3.66256
-3.66257
-3.66258
-3.78784
-3.78785
-3.78785
-3.78786
-3.91312
-3.91312
-3.91312
-3.91313
-4.03838
-4.03838
-4.03839
-4.0384
-4.16363
-4.16364
-4.16364
-4.16365
-4.28888
-4.28889
-4.28889
-4.2889
-4.41412
-4.41413
-4.41414
-4.41414
-4.53936
-4.53937
-4.53937
-4.53938
-4.66459
-4.6646
-4.66461
-4.66462
-4.78982
-4.78983
-4.78984
-4.78985
-4.91505
-4.91506
-4.91507
-4.91508
-5.04028
-5.04028
-5.04029
-5.0403
-5.1655
-5.16551
-5.16552
-5.16553
-5.29072
-5.29073
-5.29074
-5.29075
-5.41594
-5.41595
-5.41597
-5.41598
-5.54116
-5.54118
-5.54119
-5.5412
-5.66638
-5.6664
-5.66642
-5.66642
219.801
220.11
220.631
221.365
222.328
223.427
224.649
226.033
227.653
229.142
230.42
231.659
232.838
233.874
234.832
235.482
236.112
236.201
236.413
95.785
96.2537
96.9893
97.9101
98.9847
100.116
101.325
102.601
104.063
105.56
106.826
107.979
109.087
110.077
110.87
111.625
112.23
112.49
112.731
17.0322
17.3306
17.7266
18.2015
18.7335
19.3108
19.8987
20.4548
20.9994
21.6067
22.1865
22.7393
23.279
23.7829
24.176
24.5643
24.9351
25.1871
25.3573
-0.799653
-0.763175
-0.756181
-0.761031
-0.767782
-0.771788
-0.775545
-0.778081
-0.783137
-0.791076
-0.80378
-0.828999
-0.851527
-0.819049
-0.794799
-0.788154
-0.785326
-0.784273
-0.787424
-0.96561
-0.962119
-0.959406
-0.960109
-0.96157
-0.962938
-0.964577
-0.966908
-0.969787
-0.973275
-0.978766
-0.985697
-0.990437
-0.986448
-0.984649
-0.983569
-0.983355
-0.983851
-0.984813
-1.1276
-1.1369
-1.13658
-1.13796
-1.13955
-1.14137
-1.14329
-1.14522
-1.14715
-1.14863
-1.1489
-1.14824
-1.14691
-1.15063
-1.15263
-1.15297
-1.15295
-1.15283
-1.15282
-1.27094
-1.27254
-1.2735
-1.27331
-1.27232
-1.2722
-1.273
-1.27429
-1.27475
-1.27498
-1.2756
-1.27602
-1.27748
-1.28159
-1.28501
-1.28707
-1.28815
-1.28861
-1.28837
-1.39806
-1.39879
-1.39939
-1.39941
-1.39933
-1.3999
-1.40082
-1.40163
-1.40255
-1.40371
-1.40459
-1.40516
-1.40652
-1.40895
-1.41057
-1.41179
-1.41256
-1.41292
-1.41278
-1.52446
-1.52527
-1.52612
-1.5269
-1.5278
-1.52894
-1.52992
-1.53043
-1.53145
-1.53279
-1.53376
-1.53442
-1.53504
-1.53558
-1.53594
-1.53659
-1.53712
-1.53742
-1.53735
-1.65138
-1.65185
-1.65291
-1.65416
-1.65564
-1.65662
-1.65716
-1.65782
-1.65849
-1.6591
-1.66005
-1.66077
-1.66102
-1.6608
-1.66097
-1.66137
-1.66173
-1.66199
-1.66203
-1.77901
-1.779
-1.7796
-1.78052
-1.78163
-1.78231
-1.7827
-1.78322
-1.78379
-1.78437
-1.785
-1.78542
-1.78569
-1.78578
-1.78589
-1.78613
-1.78639
-1.78662
-1.7868
-1.9065
-1.90632
-1.90613
-1.90653
-1.90719
-1.90774
-1.90818
-1.90865
-1.90914
-1.90964
-1.91017
-1.91061
-1.91082
-1.9108
-1.91078
-1.91092
-1.91109
-1.91129
-1.91157
-2.03274
-2.03245
-2.03218
-2.03237
-2.03279
-2.03323
-2.03363
-2.03406
-2.03449
-2.03494
-2.03543
-2.03595
-2.03616
-2.03603
-2.03586
-2.03582
-2.03586
-2.03603
-2.0364
-2.15807
-2.15797
-2.15789
-2.15805
-2.15835
-2.1587
-2.15905
-2.15943
-2.15982
-2.16024
-2.16068
-2.16116
-2.16151
-2.1615
-2.16121
-2.16086
-2.16082
-2.16098
-2.16139
-2.28348
-2.28347
-2.28348
-2.28362
-2.28386
-2.28415
-2.28446
-2.28479
-2.28515
-2.28552
-2.28591
-2.28631
-2.28667
-2.28681
-2.28666
-2.28639
-2.28641
-2.2866
-2.28703
-2.40893
-2.40895
-2.409
-2.40913
-2.40934
-2.40958
-2.40985
-2.41015
-2.41047
-2.4108
-2.41114
-2.41148
-2.41179
-2.41199
-2.41213
-2.41235
-2.41253
-2.41274
-2.41305
-2.53438
-2.53443
-2.53449
-2.53461
-2.53478
-2.53499
-2.53523
-2.53549
-2.53578
-2.53607
-2.53638
-2.53669
-2.53698
-2.53723
-2.53751
-2.53793
-2.53819
-2.53828
-2.53843
-2.65981
-2.65987
-2.65994
-2.66006
-2.6602
-2.66038
-2.6606
-2.66083
-2.66108
-2.66135
-2.66162
-2.6619
-2.66217
-2.66243
-2.66271
-2.66302
-2.66325
-2.66328
-2.66344
-2.78522
-2.78528
-2.78536
-2.78546
-2.78559
-2.78575
-2.78594
-2.78616
-2.78638
-2.78662
-2.78687
-2.78712
-2.78737
-2.78761
-2.78785
-2.78809
-2.78825
-2.78829
-2.78843
-2.91061
-2.91066
-2.91074
-2.91084
-2.91096
-2.9111
-2.91128
-2.91147
-2.91167
-2.91188
-2.91211
-2.91233
-2.91256
-2.91278
-2.91299
-2.91318
-2.9133
-2.91335
-2.91339
-3.03598
-3.03603
-3.0361
-3.03619
-3.0363
-3.03644
-3.03659
-3.03676
-3.03694
-3.03714
-3.03734
-3.03755
-3.03775
-3.03795
-3.03814
-3.0383
-3.0384
-3.03847
-3.03844
-3.16133
-3.16138
-3.16144
-3.16153
-3.16163
-3.16175
-3.16189
-3.16205
-3.16221
-3.16239
-3.16257
-3.16276
-3.16294
-3.16312
-3.16329
-3.16343
-3.16354
-3.16361
-3.16359
-3.28667
-3.28671
-3.28677
-3.28685
-3.28695
-3.28706
-3.28718
-3.28732
-3.28747
-3.28763
-3.2878
-3.28797
-3.28813
-3.2883
-3.28845
-3.28858
-3.28869
-3.28876
-3.28874
-3.41199
-3.41203
-3.41209
-3.41216
-3.41225
-3.41235
-3.41246
-3.41259
-3.41273
-3.41287
-3.41302
-3.41317
-3.41332
-3.41347
-3.41361
-3.41373
-3.41384
-3.41391
-3.4139
-3.5373
-3.53734
-3.53739
-3.53746
-3.53754
-3.53763
-3.53774
-3.53785
-3.53798
-3.53811
-3.53824
-3.53838
-3.53851
-3.53864
-3.53877
-3.53888
-3.53897
-3.53903
-3.53902
-3.66259
-3.66263
-3.66268
-3.66274
-3.66281
-3.6629
-3.663
-3.6631
-3.66322
-3.66334
-3.66346
-3.66358
-3.6637
-3.66382
-3.66392
-3.664
-3.66407
-3.66409
-3.66406
-3.78787
-3.78791
-3.78796
-3.78801
-3.78808
-3.78816
-3.78825
-3.78835
-3.78845
-3.78856
-3.78867
-3.78878
-3.78889
-3.78899
-3.78907
-3.78913
-3.78915
-3.78914
-3.78906
-3.91315
-3.91318
-3.91322
-3.91328
-3.91334
-3.91342
-3.9135
-3.91359
-3.91369
-3.91379
-3.91389
-3.91399
-3.91408
-3.91416
-3.91423
-3.91426
-3.91425
-3.91421
-3.91408
-4.03841
-4.03844
-4.03849
-4.03854
-4.0386
-4.03867
-4.03874
-4.03883
-4.03892
-4.03901
-4.0391
-4.03919
-4.03928
-4.03935
-4.0394
-4.03943
-4.0394
-4.03935
-4.03921
-4.16367
-4.1637
-4.16374
-4.16379
-4.16384
-4.16391
-4.16398
-4.16406
-4.16414
-4.16423
-4.16431
-4.1644
-4.16448
-4.16454
-4.16459
-4.16462
-4.1646
-4.16455
-4.16444
-4.28892
-4.28895
-4.28899
-4.28903
-4.28909
-4.28915
-4.28921
-4.28928
-4.28936
-4.28944
-4.28952
-4.2896
-4.28968
-4.28974
-4.2898
-4.28982
-4.28981
-4.28977
-4.28965
-4.41416
-4.41419
-4.41423
-4.41427
-4.41432
-4.41438
-4.41444
-4.41451
-4.41458
-4.41465
-4.41473
-4.41481
-4.41488
-4.41495
-4.41501
-4.41504
-4.41504
-4.41499
-4.41487
-4.5394
-4.53943
-4.53946
-4.53951
-4.53955
-4.53961
-4.53966
-4.53973
-4.53979
-4.53987
-4.53994
-4.54002
-4.54009
-4.54016
-4.54022
-4.54026
-4.54028
-4.54023
-4.54008
-4.66463
-4.66466
-4.6647
-4.66474
-4.66478
-4.66483
-4.66488
-4.66494
-4.665
-4.66507
-4.66514
-4.66522
-4.6653
-4.66537
-4.66544
-4.66549
-4.66552
-4.66547
-4.66532
-4.78987
-4.78989
-4.78993
-4.78996
-4.79
-4.79005
-4.7901
-4.79015
-4.79021
-4.79028
-4.79035
-4.79042
-4.7905
-4.79058
-4.79065
-4.79072
-4.79075
-4.7907
-4.79055
-4.91509
-4.91512
-4.91515
-4.91518
-4.91522
-4.91526
-4.91531
-4.91536
-4.91541
-4.91547
-4.91554
-4.91561
-4.91569
-4.91578
-4.91586
-4.91594
-4.91597
-4.9159
-4.91571
-5.04032
-5.04035
-5.04037
-5.0404
-5.04044
-5.04047
-5.04051
-5.04056
-5.04061
-5.04066
-5.04073
-5.0408
-5.04088
-5.04097
-5.04107
-5.04115
-5.04119
-5.04109
-5.04083
-5.16554
-5.16557
-5.16559
-5.16562
-5.16565
-5.16568
-5.16571
-5.16575
-5.1658
-5.16585
-5.1659
-5.16597
-5.16606
-5.16616
-5.16627
-5.16638
-5.16644
-5.16633
-5.16605
-5.29077
-5.29079
-5.29081
-5.29083
-5.29085
-5.29088
-5.29091
-5.29094
-5.29098
-5.29102
-5.29107
-5.29114
-5.29122
-5.29132
-5.29145
-5.29161
-5.29175
-5.29165
-5.29138
-5.41599
-5.41601
-5.41602
-5.41604
-5.41606
-5.41608
-5.4161
-5.41612
-5.41615
-5.41619
-5.41623
-5.41628
-5.41635
-5.41645
-5.41659
-5.41682
-5.41709
-5.41706
-5.41683
-5.54121
-5.54122
-5.54123
-5.54124
-5.54126
-5.54127
-5.54128
-5.5413
-5.54132
-5.54134
-5.54137
-5.5414
-5.54145
-5.54153
-5.54166
-5.54192
-5.54241
-5.54258
-5.54256
-5.66643
-5.66644
-5.66644
-5.66645
-5.66646
-5.66646
-5.66647
-5.66648
-5.66649
-5.6665
-5.66651
-5.66653
-5.66655
-5.66658
-5.66665
-5.66685
-5.66739
-5.66797
-5.6685
)
;

boundaryField
{
    leftWall
    {
        type            calculated;
        value           nonuniform List<scalar> 
50
(
741.61
682.785
623.995
565.241
506.523
447.843
389.201
330.596
239.031
114.671
26.113
-0.763433
-0.970319
-1.15262
-1.29287
-1.41705
-1.54131
-1.66568
-1.79017
-1.91475
-2.03941
-2.16413
-2.28892
-2.41376
-2.53863
-2.66354
-2.78848
-2.91345
-3.03849
-3.16354
-3.2886
-3.41369
-3.53876
-3.66385
-3.78899
-3.91414
-4.03925
-4.16437
-4.28949
-4.41465
-4.53981
-4.66494
-4.7901
-4.91525
-5.04039
-5.16551
-5.29053
-5.41559
-5.54066
-5.66593
)
;
    }
    rightWall
    {
        type            calculated;
        value           nonuniform List<scalar> 
50
(
737.892
679.157
620.573
561.949
503.316
444.727
386.194
327.719
236.413
112.731
25.3573
-0.787424
-0.984813
-1.15282
-1.28837
-1.41278
-1.53735
-1.66203
-1.7868
-1.91157
-2.0364
-2.16139
-2.28703
-2.41305
-2.53843
-2.66344
-2.78843
-2.91339
-3.03844
-3.16359
-3.28874
-3.4139
-3.53902
-3.66406
-3.78906
-3.91408
-4.03921
-4.16444
-4.28965
-4.41487
-4.54008
-4.66532
-4.79055
-4.91571
-5.04083
-5.16605
-5.29138
-5.41683
-5.54256
-5.6685
)
;
    }
    lowerWall
    {
        type            calculated;
        value           nonuniform List<scalar> 
62
(
771.039
770.885
770.575
770.111
769.502
768.759
767.895
766.924
765.866
764.739
763.564
762.363
761.156
759.957
758.783
757.655
756.601
755.662
754.815
754.122
753.75
753.457
753.312
723.885
664.973
606.036
547.077
488.104
429.106
370.075
311.008
281.294
281.217
281.362
281.493
724.66
665.773
606.802
547.957
489.297
430.612
371.713
312.566
754.083
754.287
754.991
755.725
756.531
757.371
758.173
759.05
759.998
760.949
761.751
762.527
763.594
764.721
765.561
766.236
766.696
767.037
767.282
)
;
    }
    atmosphere
    {
        type            calculated;
        value           nonuniform List<scalar> 
46
(
-5.72909
-5.72904
-5.72904
-5.72904
-5.72904
-5.72904
-5.72904
-5.72904
-5.72904
-5.72904
-5.72904
-5.72904
-5.72904
-5.72904
-5.72904
-5.72904
-5.72904
-5.72904
-5.72904
-5.72904
-5.72904
-5.72904
-5.72904
-5.72904
-5.72904
-5.72904
-5.72904
-5.72905
-5.72905
-5.72905
-5.72906
-5.72906
-5.72907
-5.72907
-5.72908
-5.72908
-5.72909
-5.72909
-5.72909
-5.7291
-5.7291
-5.7291
-5.7291
-5.72909
-5.72907
-5.73234
)
;
    }
    defaultFaces
    {
        type            empty;
    }
}


// ************************************************************************* //
