/*--------------------------------*- C++ -*----------------------------------*\
  =========                 |
  \\      /  F ield         | OpenFOAM: The Open Source CFD Toolbox
   \\    /   O peration     | Website:  https://openfoam.org
    \\  /    A nd           | Version:  9
     \\/     M anipulation  |
\*---------------------------------------------------------------------------*/
FoamFile
{
    format      ascii;
    class       volScalarField;
    location    "3.35";
    object      epsilon;
}
// * * * * * * * * * * * * * * * * * * * * * * * * * * * * * * * * * * * * * //

dimensions      [0 2 -3 0 0 0 0];

internalField   nonuniform List<scalar> 
2268
(
0.00241375
0.0126868
0.0222276
0.030726
0.0381271
0.044463
0.0498331
0.0543647
0.0581919
0.0614445
0.0642161
0.066657
0.0686673
0.0701309
0.0709046
0.070681
0.0683641
0.0616222
0.0534505
0.0460765
0.0369209
0.0229621
0.00423518
0.00495098
0.00874047
0.0129231
0.0167515
0.0200956
0.0229406
0.0253182
0.0272843
0.028904
0.0302364
0.0313336
0.0322611
0.0329866
0.0334619
0.0336175
0.0333218
0.0322862
0.0301974
0.0276005
0.0243159
0.0200284
0.0146119
0.00882381
0.00838431
0.00923212
0.0120637
0.0148353
0.0172934
0.0193854
0.0211235
0.0225491
0.0237128
0.0246625
0.02544
0.026083
0.0265787
0.0268987
0.0269954
0.0267857
0.0261339
0.0249447
0.0233828
0.0213452
0.0187904
0.0158552
0.0155203
0.01177
0.0103108
0.0123817
0.0146325
0.016676
0.0184225
0.0198711
0.0210558
0.0220215
0.0228115
0.0234623
0.0240013
0.0244246
0.0247129
0.0248315
0.0247246
0.0243195
0.0235784
0.0225642
0.0212704
0.0198367
0.0186635
0.0229903
0.0150364
0.0115922
0.01311
0.0150195
0.0168012
0.0183312
0.0195985
0.0206339
0.0214798
0.0221772
0.0227599
0.0232514
0.0236526
0.0239505
0.0241196
0.0241225
0.0239198
0.0234981
0.022899
0.0222053
0.021749
0.022414
0.0323166
0.0182141
0.0129857
0.0140613
0.0157176
0.0173067
0.0186747
0.0198045
0.0207264
0.0214826
0.0221133
0.0226513
0.023119
0.0235205
0.0238475
0.024082
0.0241988
0.0241773
0.0240195
0.0237772
0.0236233
0.024136
0.0270925
0.0450515
0.0213457
0.0144695
0.0151756
0.0166313
0.0180639
0.0192942
0.0203037
0.0211251
0.0218024
0.0223761
0.0228788
0.0233331
0.023746
0.0241133
0.0244221
0.0246547
0.0248006
0.0248734
0.0249444
0.0252736
0.0267309
0.032644
0.0667926
0.0244768
0.0160493
0.0164377
0.0177271
0.0190212
0.0201215
0.0210134
0.0217355
0.0223346
0.0228523
0.0233216
0.0237665
0.0241962
0.02461
0.0249983
0.0253473
0.0256495
0.0259244
0.0262625
0.026983
0.0291833
0.0382033
0.121472
0.00470258
0.0230036
0.0361507
0.0427311
0.0452134
0.0448285
0.0423209
0.0389898
0.0357233
0.0344066
0.0342948
0.0308795
0.0281518
0.0294441
0.0340769
0.0307731
0.0202057
0.0111609
0.00275706
0.00747261
0.0147439
0.0190428
0.0210503
0.0218345
0.0217791
0.0211391
0.0202077
0.0191116
0.0181608
0.0174394
0.0166947
0.0158093
0.0152664
0.0155672
0.0141807
0.0111449
0.0079721
0.00448012
0.0124686
0.016116
0.0179318
0.0183863
0.0183549
0.0180407
0.0175107
0.0168679
0.0161234
0.015384
0.0147157
0.0141228
0.0134791
0.0129364
0.0126386
0.0115759
0.00968437
0.00764507
0.00698737
0.0179501
0.0192997
0.0192044
0.0184396
0.0177214
0.0170834
0.0164566
0.0158342
0.0151833
0.0145405
0.01392
0.0133441
0.0127944
0.0123149
0.0118751
0.0109115
0.00943173
0.00786812
0.00945217
0.0249228
0.0235991
0.0213632
0.0193697
0.0179887
0.0170127
0.0162335
0.0155583
0.0149209
0.0143179
0.0137278
0.0131692
0.0126702
0.0122415
0.0117831
0.010873
0.00960028
0.00835085
0.011885
0.0359093
0.0290288
0.0239507
0.0206489
0.0186287
0.0173267
0.0163848
0.0156348
0.0149798
0.014386
0.0138144
0.0132761
0.0128046
0.0124111
0.0119745
0.0111199
0.00995561
0.00901158
0.0141191
0.0557067
0.0355413
0.0266142
0.0220061
0.0194151
0.017825
0.0167336
0.0159087
0.0152246
0.0146233
0.0140606
0.0135374
0.0130784
0.0127056
0.012302
0.0115156
0.0104149
0.00971996
0.015514
0.0926898
0.0416718
0.0288502
0.0232472
0.0202241
0.0184081
0.0171951
0.0163066
0.0155914
0.0149729
0.0144091
0.0138912
0.0134346
0.0130702
0.0126977
0.0119921
0.0109544
0.0103438
0.0157233
0.0294735
0.0186955
0.0186496
0.0197156
0.0208022
0.0216927
0.0223892
0.0229451
0.0234131
0.0238367
0.0242498
0.0246782
0.0251355
0.0256255
0.0261418
0.0266705
0.0272008
0.0277504
0.0284234
0.029551
0.0320921
0.039018
0.0623341
0.0361371
0.022953
0.0224778
0.023287
0.0240427
0.0245585
0.024901
0.0251595
0.0253938
0.0256477
0.0259514
0.0263345
0.0268198
0.0274155
0.0281121
0.0288814
0.0296815
0.0304861
0.0313516
0.0324957
0.0344339
0.0381606
0.0454892
0.0448543
0.0290856
0.0277112
0.0281059
0.0283164
0.0282436
0.0280501
0.0278847
0.0277944
0.0278074
0.0279346
0.0282191
0.0287043
0.0293977
0.0302803
0.0313013
0.0323655
0.0333675
0.0342907
0.035236
0.036491
0.0383329
0.0408368
0.065099
0.0395909
0.0348878
0.0346225
0.0338325
0.0328451
0.031834
0.0310918
0.0305678
0.0302513
0.0300882
0.0301908
0.0306363
0.0314126
0.0324889
0.0337945
0.0351483
0.0363333
0.037281
0.0380584
0.0389137
0.0399529
0.0407136
0.100355
0.0514427
0.0424363
0.042418
0.0389126
0.0367695
0.0355081
0.0343904
0.03346
0.0327034
0.0321573
0.0319579
0.0322174
0.0329092
0.0339791
0.0352282
0.0363525
0.0372868
0.0381703
0.0394847
0.0414419
0.0431696
0.0420234
0.0857456
0.0508024
0.046122
0.0439723
0.0412621
0.039516
0.0389223
0.0373782
0.0355373
0.0341717
0.0332832
0.0329593
0.0331167
0.0337003
0.0346802
0.035807
0.0368377
0.0378686
0.0384904
0.0395472
0.0411052
0.0419107
0.0410407
0.0773857
0.0540332
0.046938
0.0465951
0.0441381
0.0410063
0.0394878
0.0375983
0.0358908
0.0346884
0.0338851
0.0335741
0.0337138
0.0342679
0.0351666
0.036136
0.0370855
0.0379818
0.0381832
0.0388866
0.0396143
0.0399246
0.0399015
0.0743966
0.0514172
0.0455647
0.0476033
0.0456133
0.0410939
0.0384872
0.0369996
0.035834
0.0347891
0.0341924
0.0339519
0.0339739
0.034313
0.0348756
0.0354326
0.0358932
0.0364043
0.0367748
0.0376067
0.0384856
0.0386055
0.0383674
0.0707558
0.0442452
0.0413269
0.0427163
0.0414214
0.0386783
0.0368513
0.0358129
0.0350008
0.0342359
0.033836
0.0336487
0.0335775
0.0336724
0.0338926
0.0341421
0.0344077
0.0347648
0.0351149
0.0356161
0.0362737
0.0366577
0.0365648
0.0603793
0.0395236
0.0371776
0.0373597
0.0369715
0.035909
0.0348058
0.0340734
0.0336035
0.0332323
0.0330202
0.0328871
0.0327926
0.0327675
0.0328162
0.032925
0.0331014
0.0333488
0.033573
0.0338076
0.0341427
0.0345029
0.0346432
0.0537451
0.0366348
0.0344628
0.0344001
0.0343603
0.0337637
0.0329879
0.0324728
0.032208
0.0320579
0.0319726
0.0318956
0.0318119
0.0317481
0.0317279
0.0317638
0.0318592
0.031992
0.0320951
0.0321652
0.0322708
0.0324415
0.0325346
0.0521047
0.0348501
0.0326408
0.0323929
0.0322916
0.0318718
0.0313529
0.0310122
0.0308673
0.0308217
0.0308032
0.0307653
0.0307007
0.0306315
0.0305827
0.0305689
0.0305886
0.0306175
0.0306129
0.030567
0.0305189
0.0304972
0.0304288
0.0544577
0.0340843
0.03134
0.0307668
0.0305211
0.0301894
0.0298458
0.0296295
0.0295521
0.029548
0.0295546
0.0295351
0.0294838
0.0294166
0.0293524
0.0293024
0.0292628
0.029215
0.0291335
0.0290111
0.0288647
0.0287043
0.0284914
0.0585592
0.0339835
0.0303979
0.0294191
0.0290001
0.0286846
0.0284325
0.0282855
0.0282373
0.0282409
0.0282482
0.0282312
0.0281849
0.0281191
0.0280465
0.0279738
0.0278976
0.0278054
0.0276817
0.0275197
0.0273218
0.0270858
0.0267877
0.0633839
0.0343067
0.0297055
0.0282798
0.0276664
0.0273125
0.0270867
0.0269639
0.0269184
0.0269115
0.0269073
0.0268846
0.0268386
0.0267749
0.0267009
0.0266206
0.026531
0.0264238
0.0262886
0.0261176
0.0259061
0.0256458
0.0253206
0.0662667
0.0343572
0.0290282
0.0272484
0.0264588
0.0260393
0.0257991
0.0256692
0.0256086
0.0255823
0.0255627
0.0255324
0.0254871
0.025429
0.0253621
0.0252882
0.0252046
0.025105
0.024981
0.0248242
0.024626
0.0243768
0.0240651
0.0673163
0.0339946
0.0282493
0.0262365
0.0253147
0.0248297
0.0245578
0.0244063
0.0243246
0.0242789
0.0242461
0.0242115
0.0241705
0.0241235
0.0240719
0.0240157
0.023952
0.0238751
0.023777
0.0236486
0.0234806
0.0232632
0.0229881
0.0668339
0.0332352
0.0273309
0.0251972
0.0241934
0.023659
0.0233572
0.0231838
0.0230838
0.023024
0.0229838
0.0229508
0.0229198
0.0228896
0.0228597
0.022829
0.0227937
0.0227478
0.0226834
0.0225912
0.0224617
0.022286
0.0220578
0.0651011
0.0321325
0.0262711
0.0241113
0.0230753
0.0225158
0.022196
0.0220088
0.0218985
0.0218328
0.021793
0.0217684
0.021753
0.0217445
0.0217412
0.0217403
0.0217376
0.0217265
0.0216989
0.0216457
0.0215577
0.021427
0.0212484
0.0623788
0.0307468
0.0250849
0.0229757
0.0219521
0.0213941
0.0210729
0.0208841
0.0207739
0.0207119
0.0206809
0.0206712
0.0206766
0.0206938
0.02072
0.0207514
0.0207829
0.0208077
0.0208175
0.0208035
0.0207572
0.0206712
0.0205411
0.0588876
0.0291363
0.0237941
0.0217962
0.0208227
0.0202909
0.0199856
0.0198086
0.0197097
0.0196609
0.0196466
0.019658
0.0196887
0.0197349
0.0197929
0.019858
0.0199246
0.0199854
0.0200325
0.0200571
0.0200515
0.0200089
0.019925
0.0548122
0.0273537
0.0224236
0.0205834
0.0196902
0.0192057
0.018932
0.0187794
0.0187022
0.0186754
0.0186852
0.0187234
0.0187839
0.0188623
0.0189543
0.0190547
0.0191572
0.0192547
0.0193391
0.0194023
0.0194367
0.0194362
0.0193965
0.0503093
0.025446
0.0209989
0.0193515
0.0185612
0.0181407
0.0179117
0.0177941
0.0177478
0.0177509
0.0177914
0.017862
0.0179566
0.0180708
0.0181996
0.0183376
0.0184781
0.0186139
0.018737
0.0188396
0.0189145
0.0189558
0.0189592
0.0454919
0.0234568
0.0195473
0.0181171
0.0174454
0.0171007
0.0169263
0.0168525
0.0168449
0.0168849
0.0169622
0.0170705
0.0172041
0.0173582
0.0175278
0.0177069
0.0178888
0.018066
0.0182306
0.018375
0.0184921
0.0185761
0.0186228
0.0404703
0.0214462
0.0181026
0.0169006
0.0163553
0.0160937
0.0159808
0.0159576
0.0159951
0.0160781
0.0161981
0.0163496
0.0165275
0.0167268
0.0169423
0.0171676
0.0173958
0.0176191
0.0178296
0.0180196
0.018182
0.0183111
0.0184024
0.0357265
0.019546
0.0167091
0.0157246
0.0153054
0.0151299
0.0150831
0.0151155
0.0152036
0.0153352
0.0155036
0.0157042
0.0159324
0.0161832
0.016451
0.0167292
0.0170103
0.0172862
0.0175487
0.0177896
0.0180019
0.0181795
0.018318
0.0314916
0.0177669
0.0153908
0.0146085
0.0143108
0.0142215
0.0142432
0.0143351
0.0144785
0.014664
0.0148865
0.0151425
0.0154281
0.0157379
0.0160662
0.0164058
0.0167484
0.0170853
0.0174074
0.0177064
0.0179745
0.0182054
0.0183945
0.0277033
0.0160959
0.0141517
0.013563
0.0133837
0.0133805
0.0134725
0.0136272
0.0138301
0.0140747
0.0143576
0.0146761
0.0150271
0.0154053
0.0158041
0.0162156
0.0166306
0.017039
0.0174308
0.0177965
0.0181278
0.018418
0.0186621
0.0244619
0.0145758
0.0130157
0.0126057
0.0125388
0.0126198
0.0127829
0.0130027
0.0132692
0.0135784
0.0139285
0.014318
0.0147445
0.0152024
0.0156846
0.0161817
0.0166829
0.0171762
0.01765
0.0180933
0.0184968
0.0188532
0.0191575
0.02185
0.0132584
0.0120122
0.0117569
0.0117921
0.0119531
0.0121866
0.0124733
0.012807
0.0131864
0.0136115
0.0140823
0.0145967
0.0151492
0.0157313
0.0163318
0.016937
0.0175324
0.0181037
0.018638
0.0191246
0.0195555
0.0199257
0.0198749
0.0121799
0.0111658
0.0110347
0.0111586
0.0113938
0.0116957
0.0120501
0.0124543
0.0129098
0.0134193
0.0139839
0.0146021
0.0152685
0.0159726
0.0166998
0.0174327
0.0181524
0.018841
0.0194826
0.0200651
0.0205799
0.0210222
0.0184723
0.01135
0.0104913
0.0104543
0.0106532
0.0109556
0.0113225
0.0117442
0.0122215
0.0127597
0.0133643
0.0140385
0.0147816
0.0155876
0.016443
0.0173284
0.0182203
0.0190935
0.0199244
0.0206934
0.0213864
0.0219949
0.0225154
0.0175408
0.0107594
0.0099984
0.0100324
0.0102941
0.0106556
0.011082
0.0115679
0.0121195
0.0127467
0.0134591
0.0142629
0.0151585
0.0161383
0.0171851
0.0182717
0.019365
0.0204299
0.0214348
0.022355
0.0231749
0.0238869
0.02449
0.0169824
0.0103982
0.00970629
0.00979903
0.0101124
0.0105208
0.0109951
0.011537
0.01216
0.012881
0.0137154
0.0146738
0.0157579
0.0169581
0.0182512
0.0195982
0.0209507
0.0222584
0.0234774
0.0245768
0.0255402
0.0263635
0.027051
0.0167383
0.0102885
0.00967479
0.0098231
0.0101695
0.0105986
0.0110945
0.011672
0.0123557
0.0131716
0.0141431
0.0152862
0.0166056
0.0180888
0.0197036
0.0213932
0.0230851
0.0247043
0.0261882
0.0274984
0.0286206
0.0295587
0.0303268
0.016843
0.0105625
0.010078
0.0102642
0.0105871
0.0109704
0.0114293
0.0119992
0.0127184
0.0136232
0.0147455
0.016109
0.0177228
0.0195719
0.0216113
0.023758
0.0259019
0.0279273
0.0297415
0.031297
0.0325885
0.0336369
0.0344736
0.017597
0.0117028
0.0113929
0.011482
0.0115968
0.0117689
0.0120665
0.0125461
0.0132535
0.0142298
0.0155134
0.0171366
0.0191159
0.0214366
0.0240368
0.0267995
0.029557
0.0321257
0.0343569
0.036194
0.0376558
0.038797
0.0396784
0.0203008
0.015366
0.0149013
0.0142591
0.0136109
0.0131857
0.0130808
0.0133295
0.0139498
0.0149664
0.0164147
0.0183352
0.0207573
0.0236725
0.0270058
0.0306009
0.0342123
0.0375396
0.0403108
0.0424644
0.0440798
0.0452768
0.0461633
0.0308265
0.0270048
0.0238083
0.020127
0.017256
0.0154332
0.0145154
0.014329
0.0147634
0.0157773
0.0173834
0.0196273
0.0225583
0.0261888
0.0304493
0.03516
0.04
0.044471
0.0479638
0.0504534
0.0521709
0.0533574
0.0541905
0.0773717
0.0608062
0.044018
0.0311805
0.0231063
0.0185713
0.0162935
0.0154478
0.0156014
0.0165692
0.0183127
0.0208773
0.0243409
0.0287596
0.0341152
0.0402792
0.0469587
0.0533861
0.0578419
0.0606099
0.0623032
0.0633688
0.0640693
0.287953
0.135156
0.0789203
0.047496
0.0306286
0.0221213
0.0180917
0.0164779
0.0163179
0.0172159
0.0190617
0.0218954
0.0258285
0.0309832
0.0374611
0.0453753
0.0548604
0.065312
0.070818
0.0735262
0.0749181
0.0756946
0.0761675
1.5698
0.208235
0.113037
0.0621085
0.0367255
0.0247272
0.0193004
0.0171219
0.0167413
0.0175848
0.0194846
0.022475
0.0266928
0.0323218
0.0396141
0.0491244
0.0623668
0.0832068
0.0883119
0.0898819
0.0904844
0.0907688
0.0909278
0.181401
0.143801
0.12844
0.128836
0.0552955
0.0564305
0.0555601
0.0536299
0.042667
0.0431941
0.0430367
0.0422725
0.0406509
0.0403592
0.039906
0.0392406
0.0408219
0.0402746
0.0396503
0.0389067
0.0405217
0.0401565
0.0395895
0.0386836
0.0403734
0.0407656
0.0403174
0.038942
0.038409
0.0383225
0.0378954
0.037161
0.0364143
0.0362636
0.0359803
0.0354693
0.0345609
0.0344325
0.0341764
0.033734
0.032425
0.0322709
0.0320073
0.0316126
0.0302318
0.0300384
0.0297652
0.0294044
0.0282178
0.0279949
0.0277181
0.0273847
0.0264757
0.0262425
0.0259732
0.025667
0.0250063
0.0247809
0.0245303
0.0242549
0.0237733
0.023568
0.0233442
0.0231026
0.022732
0.0225536
0.0223605
0.0221534
0.0218433
0.0216935
0.0215315
0.0213576
0.0210759
0.0209542
0.0208215
0.0206783
0.0204086
0.0203133
0.0202077
0.0200919
0.0198297
0.0197588
0.0196778
0.019587
0.019336
0.0192877
0.0192296
0.0191616
0.0189318
0.0189049
0.0188683
0.0188219
0.0186278
0.0186217
0.0186058
0.0185801
0.0184399
0.0184546
0.0184592
0.0184538
0.018389
0.0184248
0.0184502
0.0184651
0.0185007
0.0185584
0.0186051
0.0186408
0.0188055
0.0188864
0.0189553
0.0190124
0.0193407
0.0194461
0.0195384
0.0196176
0.0201516
0.020283
0.0203996
0.0205016
0.0212933
0.0214519
0.0215937
0.021719
0.0228337
0.0230203
0.0231876
0.023336
0.0248564
0.0250708
0.0252628
0.0254334
0.0274637
0.0277041
0.0279189
0.0281092
0.0307804
0.031043
0.0312762
0.0314819
0.0349575
0.0352351
0.0354797
0.0356942
0.040175
0.0404567
0.0407027
0.0409166
0.0466474
0.0469182
0.0471522
0.0473537
0.0546288
0.0548701
0.0550761
0.0552518
0.0644226
0.0646138
0.064775
0.064911
0.0763959
0.0765174
0.0766187
0.0767034
0.0910016
0.0910404
0.0910724
0.0910991
0.0649722
0.0419209
0.0307342
0.0247817
0.021409
0.0193675
0.0180211
0.0170597
0.0162995
0.0156441
0.0150605
0.0145336
0.0140695
0.0136987
0.0133491
0.0127676
0.0118762
0.0113548
0.015237
0.0462789
0.0376345
0.0306876
0.025862
0.0227214
0.0206669
0.0192611
0.01825
0.0174421
0.0167245
0.0160793
0.0155055
0.0150021
0.0145857
0.0142291
0.0138072
0.0132519
0.0130704
0.0170191
0.03996
0.0353729
0.030595
0.0267384
0.0239239
0.0219501
0.0205297
0.0194763
0.0186299
0.0178516
0.0171268
0.0164794
0.0159093
0.0154178
0.0150156
0.014693
0.0144315
0.0147067
0.0208237
0.0377971
0.0351971
0.0312589
0.027757
0.0251104
0.0232533
0.0218275
0.0207004
0.0198033
0.0189554
0.0181388
0.0174045
0.0167589
0.0161945
0.015772
0.0155694
0.0156322
0.0164259
0.0248556
0.0373806
0.0348376
0.0318728
0.0287346
0.0262496
0.0245527
0.023024
0.021742
0.02075
0.0198916
0.0190411
0.0182456
0.0175391
0.0168882
0.0164759
0.0163799
0.0167387
0.0184647
0.030257
0.0370612
0.0349858
0.0320651
0.0292713
0.0269616
0.0252102
0.0236853
0.0223958
0.0213774
0.0204413
0.0195486
0.0187179
0.0179723
0.0173246
0.0168908
0.0166564
0.0165535
0.0186365
0.0360993
0.0365923
0.0345361
0.0320984
0.0295407
0.0272457
0.0255289
0.024015
0.0227959
0.0218381
0.0208853
0.0198993
0.018974
0.018206
0.0175561
0.0168764
0.016033
0.0157372
0.0169983
0.0336036
0.0354142
0.0332735
0.0311614
0.0290396
0.0271106
0.0255774
0.0241295
0.0229418
0.0220396
0.0210658
0.0199136
0.0188635
0.0180191
0.0172153
0.016295
0.015139
0.0145162
0.0153576
0.0250633
0.0341381
0.0319966
0.0300218
0.0281442
0.0264631
0.0250439
0.0237257
0.022562
0.0216021
0.02057
0.0193493
0.0182355
0.017273
0.0163153
0.0152646
0.0141539
0.0134176
0.0140033
0.0190083
0.032647
0.0307151
0.0288513
0.0270651
0.0254358
0.0240502
0.0228063
0.0216714
0.0206428
0.0195642
0.0183724
0.0172441
0.0161984
0.0151805
0.0141842
0.013262
0.0127478
0.0132351
0.0163865
0.0307268
0.0290935
0.0274145
0.025776
0.0242642
0.0229381
0.0217469
0.020645
0.0195986
0.0185262
0.0173997
0.0162991
0.015252
0.0142521
0.0133462
0.0126533
0.012373
0.0127465
0.0150443
0.0286662
0.0273182
0.0258752
0.0244457
0.023105
0.0218897
0.0207782
0.0197324
0.0187145
0.0176865
0.0166359
0.015598
0.0146008
0.0136529
0.0128387
0.0122696
0.012027
0.0123223
0.0145775
0.0267502
0.0256361
0.0244289
0.0232193
0.0220648
0.0209877
0.0199792
0.0190116
0.0180535
0.0170856
0.0161113
0.0151535
0.0142302
0.0133707
0.0126635
0.0121802
0.0120348
0.012713
0.0165263
0.0251132
0.0241845
0.0231821
0.0221694
0.0211857
0.0202464
0.0193469
0.0184675
0.0175836
0.0166842
0.0157852
0.0149126
0.0140823
0.0133256
0.0127186
0.0123573
0.0124544
0.0137794
0.0199811
0.0237719
0.0229915
0.0221557
0.0213054
0.020466
0.0196484
0.0188504
0.0180571
0.0172501
0.0164249
0.0156018
0.0148102
0.014069
0.0134074
0.0128994
0.0126816
0.0130501
0.015016
0.023961
0.0226854
0.0220264
0.0213236
0.020603
0.019881
0.0191649
0.0184536
0.0177365
0.0170017
0.0162496
0.0155002
0.0147823
0.0141196
0.0135463
0.0131405
0.0130596
0.0136462
0.0160839
0.0278797
0.0217976
0.0212401
0.0206441
0.0200267
0.0193985
0.0187648
0.0181247
0.0174721
0.0168009
0.0161151
0.0154333
0.0147825
0.0141915
0.0137023
0.0133982
0.0134426
0.0142058
0.0169688
0.0314429
0.021058
0.0205864
0.0200777
0.0195431
0.0189903
0.0184231
0.0178416
0.0172432
0.0166267
0.0159988
0.0153771
0.0147876
0.0142629
0.0138521
0.0136423
0.0138035
0.0147424
0.0178601
0.0342764
0.020429
0.0200312
0.0195949
0.0191285
0.0186376
0.0181254
0.0175932
0.0170414
0.0164725
0.0158951
0.0153266
0.0147926
0.014328
0.0139859
0.0138561
0.0141126
0.0151678
0.0184597
0.0353964
0.0198875
0.0195535
0.0191792
0.0187705
0.0183321
0.0178673
0.0173785
0.0168683
0.0163419
0.0158094
0.0152883
0.0148039
0.0143923
0.0141079
0.0140409
0.0143622
0.0154824
0.0188589
0.03601
0.0194227
0.0191451
0.018825
0.018467
0.0180753
0.0176531
0.0172039
0.0167322
0.0162448
0.015753
0.0152745
0.0148344
0.0144693
0.0142331
0.0142129
0.0145778
0.0157433
0.0192269
0.037166
0.0190343
0.0188074
0.0185363
0.0182244
0.0178754
0.0174929
0.0170812
0.0166458
0.0161949
0.0157406
0.0153005
0.0149004
0.014576
0.0143786
0.0143942
0.0147927
0.0160035
0.0196429
0.0388024
0.0187293
0.0185499
0.0183241
0.0180552
0.0177464
0.0174016
0.0170256
0.0166249
0.0162082
0.0157881
0.0153836
0.015019
0.0147282
0.0145617
0.0146053
0.0150321
0.01629
0.0200988
0.0405387
0.0185211
0.0183872
0.0182047
0.0179765
0.0177061
0.0173973
0.0170555
0.0166874
0.0163027
0.0159147
0.0155413
0.015206
0.0149418
0.014799
0.0148639
0.0153139
0.0166144
0.0205754
0.0422745
0.0184279
0.0183385
0.018198
0.0180092
0.0177756
0.0175013
0.0171917
0.0168545
0.0164993
0.0161392
0.0157912
0.0154783
0.0152334
0.0151068
0.0151861
0.0156529
0.0169873
0.0210708
0.0439485
0.0184725
0.018427
0.0183275
0.0181768
0.0179785
0.0177371
0.0174581
0.0171491
0.0168195
0.0164818
0.0161528
0.0158552
0.0156216
0.0155029
0.0155884
0.0160637
0.0174195
0.021583
0.0453228
0.0186819
0.0186799
0.0186206
0.0185069
0.0183424
0.0181317
0.0178805
0.017596
0.0172872
0.0169664
0.0166497
0.0163594
0.0161283
0.0160079
0.0160894
0.0165617
0.01792
0.0220971
0.0460308
0.0190879
0.0191295
0.0191096
0.0190313
0.0188986
0.018716
0.0184892
0.0182249
0.0179319
0.0176217
0.0173099
0.0170184
0.0167799
0.0166468
0.0167118
0.0171665
0.0185066
0.022642
0.0462668
0.0197284
0.0198133
0.0198316
0.019787
0.0196836
0.0195262
0.01932
0.0190715
0.0187888
0.0184826
0.0181678
0.0178658
0.0176092
0.017451
0.0174858
0.017908
0.0192172
0.0233202
0.0467929
0.0206483
0.020776
0.0208311
0.0208179
0.0207411
0.0206054
0.0204159
0.0201786
0.0199006
0.0195917
0.0192657
0.0189433
0.018657
0.0184605
0.0184507
0.0188278
0.0201065
0.0242535
0.0483426
0.0219017
0.0220709
0.0221607
0.0221763
0.022123
0.0220055
0.0218289
0.0215982
0.0213196
0.0210014
0.0206562
0.0203034
0.0199751
0.0197263
0.0196577
0.0199796
0.021237
0.0255348
0.0511949
0.023554
0.0237626
0.0238841
0.0239252
0.023892
0.0237894
0.023622
0.023394
0.02311
0.0227768
0.0224046
0.0220114
0.0216288
0.0213129
0.0211705
0.0214269
0.0226715
0.027196
0.0549732
0.0256845
0.0259285
0.0260777
0.0261405
0.0261238
0.0260329
0.0258718
0.0256435
0.0253509
0.0249981
0.0245927
0.02415
0.0237003
0.0233014
0.0230678
0.0232448
0.0244757
0.029262
0.059444
0.0283891
0.0286625
0.0288339
0.0289137
0.0289099
0.028828
0.0286714
0.0284416
0.0281391
0.0277647
0.0273221
0.0268226
0.0262935
0.0257937
0.0254468
0.0255235
0.0267309
0.0318036
0.0647439
0.0317835
0.0320777
0.0322641
0.0323555
0.0323609
0.0322861
0.0321336
0.0319033
0.0315928
0.0311987
0.0307192
0.0301589
0.0295392
0.0289178
0.0284281
0.0283729
0.0295366
0.0349162
0.0709484
0.0360069
0.0363101
0.0365026
0.0365995
0.0366108
0.0365421
0.0363954
0.0361685
0.0358559
0.0354493
0.0349392
0.0343202
0.0336025
0.032836
0.0321614
0.0319246
0.033011
0.038723
0.0781855
0.0412264
0.0415239
0.0417123
0.0418081
0.0418221
0.0417599
0.0416225
0.0414061
0.0411023
0.040697
0.0401717
0.0395064
0.0386907
0.0377532
0.0368308
0.0363156
0.0372585
0.0433786
0.0870201
0.0476433
0.0479182
0.0480912
0.0481795
0.0481938
0.0481393
0.0480166
0.0478209
0.0475411
0.0471587
0.0466449
0.0459607
0.0450624
0.0439304
0.0426619
0.0416988
0.0423866
0.04905
0.0986089
0.055502
0.0557367
0.0558833
0.055958
0.0559707
0.0559262
0.0558246
0.0556611
0.0554241
0.0550922
0.0546289
0.0539742
0.053037
0.0517052
0.0499443
0.0481856
0.0483891
0.0557481
0.113228
0.0651031
0.0652814
0.0653919
0.0654481
0.0654581
0.0654257
0.0653514
0.0652311
0.0650552
0.0648036
0.0644383
0.0638854
0.063002
0.0615275
0.0590902
0.0557446
0.0549955
0.0631544
0.130464
0.0768222
0.0769316
0.0769991
0.0770336
0.0770401
0.0770216
0.0769785
0.0769089
0.0768068
0.0766591
0.0764369
0.0760735
0.0754059
0.074017
0.0708574
0.0639526
0.0614151
0.0703463
0.148796
0.0911363
0.0911706
0.0911919
0.091203
0.0912059
0.0912014
0.0911903
0.0911721
0.0911458
0.0911079
0.0910494
0.0909437
0.0907028
0.0899752
0.0870754
0.0711848
0.0659655
0.075477
0.163665
)
;

boundaryField
{
    leftWall
    {
        type            epsilonWallFunction;
        value           nonuniform List<scalar> 
50
(
0.00241375
0.00495098
0.00838431
0.01177
0.0150364
0.0182141
0.0213457
0.0244768
0.0294735
0.0361371
0.0448543
0.065099
0.100355
0.0857456
0.0773857
0.0743966
0.0707558
0.0603793
0.0537451
0.0521047
0.0544577
0.0585592
0.0633839
0.0662667
0.0673163
0.0668339
0.0651011
0.0623788
0.0588876
0.0548122
0.0503093
0.0454919
0.0404703
0.0357265
0.0314916
0.0277033
0.0244619
0.02185
0.0198749
0.0184723
0.0175408
0.0169824
0.0167383
0.016843
0.017597
0.0203008
0.0308265
0.0773717
0.287953
1.5698
)
;
    }
    rightWall
    {
        type            epsilonWallFunction;
        value           nonuniform List<scalar> 
50
(
0.00275706
0.00448012
0.00698737
0.00945217
0.011885
0.0141191
0.015514
0.0157233
0.015237
0.0170191
0.0208237
0.0248556
0.030257
0.0360993
0.0336036
0.0250633
0.0190083
0.0163865
0.0150443
0.0145775
0.0165263
0.0199811
0.023961
0.0278797
0.0314429
0.0342764
0.0353964
0.03601
0.037166
0.0388024
0.0405387
0.0422745
0.0439485
0.0453228
0.0460308
0.0462668
0.0467929
0.0483426
0.0511949
0.0549732
0.059444
0.0647439
0.0709484
0.0781855
0.0870201
0.0986089
0.113228
0.130464
0.148796
0.163665
)
;
    }
    lowerWall
    {
        type            epsilonWallFunction;
        value           nonuniform List<scalar> 
62
(
0.00241375
0.0126868
0.0222276
0.030726
0.0381271
0.044463
0.0498331
0.0543647
0.0581919
0.0614445
0.0642161
0.066657
0.0686673
0.0701309
0.0709046
0.070681
0.0683641
0.0616222
0.0534505
0.0460765
0.0369209
0.0229621
0.00423518
0.00423518
0.00882381
0.0155203
0.0229903
0.0323166
0.0450515
0.0667926
0.121472
0.181401
0.143801
0.12844
0.128836
0.00470258
0.00747261
0.0124686
0.0179501
0.0249228
0.0359093
0.0557067
0.0926898
0.00470258
0.0230036
0.0361507
0.0427311
0.0452134
0.0448285
0.0423209
0.0389898
0.0357233
0.0344066
0.0342948
0.0308795
0.0281518
0.0294441
0.0340769
0.0307731
0.0202057
0.0111609
0.00275706
)
;
    }
    atmosphere
    {
        type            inletOutlet;
        inletValue      uniform 0.1;
        value           nonuniform List<scalar> 
46
(
0.1
0.1
0.113037
0.0621085
0.0367255
0.0247272
0.0193004
0.0171219
0.0167413
0.0175848
0.0194846
0.022475
0.0266928
0.0323218
0.0396141
0.0491244
0.0623668
0.1
0.1
0.1
0.1
0.1
0.1
0.1
0.1
0.1
0.1
0.1
0.1
0.1
0.1
0.1
0.1
0.1
0.1
0.1
0.1
0.1
0.1
0.1
0.1
0.1
0.0711848
0.0659655
0.075477
0.163665
)
;
    }
    defaultFaces
    {
        type            empty;
    }
}


// ************************************************************************* //
