/*--------------------------------*- C++ -*----------------------------------*\
  =========                 |
  \\      /  F ield         | OpenFOAM: The Open Source CFD Toolbox
   \\    /   O peration     | Website:  https://openfoam.org
    \\  /    A nd           | Version:  9
     \\/     M anipulation  |
\*---------------------------------------------------------------------------*/
FoamFile
{
    format      ascii;
    class       volScalarField;
    location    "3.35";
    object      p_rgh;
}
// * * * * * * * * * * * * * * * * * * * * * * * * * * * * * * * * * * * * * //

dimensions      [1 -1 -2 0 0 0 0];

internalField   nonuniform List<scalar> 
2268
(
786.068
785.561
784.545
782.987
780.974
778.542
775.748
772.66
769.336
765.848
762.302
758.753
755.265
751.898
748.69
745.643
742.761
739.91
737.145
736.645
736.62
736.538
736.368
786.169
785.661
784.665
783.12
781.104
778.668
775.857
772.752
769.411
765.9
762.312
758.714
755.174
751.753
748.495
745.425
742.6
739.248
737.162
736
736.663
736.751
736.414
786.383
785.866
784.869
783.329
781.308
778.861
776.017
772.889
769.514
765.963
762.321
758.664
755.063
751.587
748.297
745.249
742.47
738.239
736.859
735.422
735.653
736.679
736.762
786.72
786.194
785.195
783.641
781.599
779.117
776.246
773.071
769.645
766.037
762.33
758.604
754.938
751.41
748.099
745.094
742.6
739.668
736.162
734.759
736.329
736.527
736.624
787.181
786.645
785.635
784.058
781.981
779.451
776.531
773.299
769.805
766.123
762.338
758.534
754.796
751.21
747.868
744.886
742.44
741.071
738.486
737.652
736.956
736.267
736.441
787.768
787.22
786.194
784.588
782.458
779.863
776.882
773.577
769.998
766.224
762.347
758.453
754.63
750.972
747.579
744.573
742.096
740.559
739.449
737.976
736.365
735.868
736.287
788.483
787.923
786.876
785.24
783.038
780.356
777.297
773.907
770.228
766.343
762.357
758.357
754.435
750.688
747.221
744.148
741.59
739.802
738.431
736.933
735.448
735.084
735.661
789.334
788.762
787.687
786.022
783.719
780.928
777.775
774.288
770.491
766.475
762.364
758.243
754.203
750.346
746.774
743.595
740.913
738.889
737.297
735.709
734.202
733.769
735.653
737.634
739.676
742.285
745.312
748.477
751.868
755.6
759.838
764.086
767.967
771.696
773.717
775.443
778.635
782.605
783.676
783.137
783.582
784.586
737.458
739.363
741.802
745.046
748.529
752.149
756.103
760.329
764.6
768.372
772.022
773.21
775.667
778.488
783.424
783.72
783.763
784.936
785.499
737.856
739.465
741.713
744.801
748.152
751.985
756.173
760.403
764.39
768.977
772.775
771.817
775.632
778.92
785.412
786.852
781.214
784.958
786.171
737.014
738.855
741.21
744.369
747.84
751.841
756.182
760.35
764.56
769.38
773.971
772.233
775.333
781.563
786.274
786.926
779.842
780.776
786.318
735.937
738.201
740.763
743.989
747.549
751.676
756.123
760.872
764.962
770.203
774.723
777.864
776.841
784.08
787.438
789.168
782.856
775.564
786.452
735.046
737.797
740.359
743.599
747.187
751.353
755.98
760.841
766.205
771.007
775.574
781.286
785.1
787.387
788.695
790.681
793.872
774.678
786.448
733.611
737.483
740.007
743.177
746.752
750.791
755.052
760.548
766.097
771.2
775.773
780.67
785.458
788.069
790.002
792.338
795.203
779.897
770.944
730.893
737.135
739.69
742.753
746.152
751.088
745.308
748.345
760.001
766.131
769.265
779.783
786.018
788.889
791.329
794.068
797.044
791.57
764.117
790.912
790.312
789.173
787.375
784.955
781.947
778.634
774.987
770.975
766.705
762.367
758.023
753.758
749.684
745.899
742.495
739.568
737.189
735.223
733.454
731.743
730.299
729.355
793.646
793.06
791.943
790.09
787.35
783.79
780.296
776.487
769.376
758.945
748.52
738.481
727.314
716.553
706.592
697.744
690.397
684.881
680.702
676.8
672.403
667.958
664.135
500.899
497.613
490.366
477.6
458.065
433.676
409.438
379.718
348.528
320.499
293.864
266.813
242.327
220.333
200.975
184.835
172.412
162.833
155.202
148.003
140.375
132.848
126.357
17.823
15.3257
14.6548
12.5298
10.445
8.58592
5.7201
4.15884
3.55896
3.65808
2.7975
2.69711
2.63507
2.55139
2.43069
2.30554
2.18171
1.97759
1.73505
1.42408
1.23697
1.15866
1.27408
3.24746
5.96486
2.37983
2.02469
4.72244
7.42748
3.90647
3.97583
8.73039
9.94662
9.67161
7.92953
8.00284
7.94606
6.41478
5.45775
6.83151
6.67013
6.49169
3.50963
2.40442
1.21724
1.25938
2.6349
3.67329
4.12461
1.9101
3.06408
6.60724
7.80549
7.85205
7.78687
9.52748
9.42998
9.44585
9.42523
8.61374
8.60915
8.58638
6.6369
4.34475
2.01207
0.712691
0.681093
0.962817
1.34136
3.35221
3.28627
4.10084
1.82828
2.07058
2.03313
2.30912
3.62115
2.6937
0.522701
0.0193445
0.236018
0.00601448
0.0115538
0.0156262
0.0274237
0.0595683
0.102219
1.32438
0.757159
0.613371
0.604115
1.30447
3.25948
2.16046
2.5959
2.5939
2.59026
2.55542
1.47686
0.0122314
0.00276428
0.0095952
0.0116653
0.0107346
0.0145269
0.022386
0.0249486
0.0481154
0.202665
0.190921
0.867924
1.26066
1.00876
0.561563
0.748469
0.172162
-0.00768828
0.0835547
1.02065
1.32989
0.654912
0.0880931
-0.00360024
-0.00110403
0.00370158
0.00757619
0.0096052
0.0216943
0.0343487
0.0228802
0.0262619
0.0321384
0.0376947
0.175355
0.833232
0.929955
0.543457
0.0569215
-0.0372372
-0.0303919
-0.0319576
-0.0355655
-0.0365509
-0.0294357
-0.0177862
-0.00956466
-0.00428356
0.000821452
0.00942411
0.0128377
0.0114404
0.0140421
0.0178505
0.0219215
0.0259302
0.0283404
0.0256815
0.0216366
0.0241106
0.0443088
0.0389211
-0.0300121
-0.025316
-0.0256098
-0.0271802
-0.0273233
-0.0238771
-0.0174265
-0.0109879
-0.00571876
0.00377767
0.00821898
0.010014
0.00886209
0.0121115
0.0154469
0.0186509
0.0215381
0.0232752
0.0227722
0.0225646
0.0250582
0.0341389
0.0368227
-0.0251912
-0.0228307
-0.0225124
-0.0228294
-0.0224419
-0.0199496
-0.0156042
-0.0108086
-0.00568034
0.000685146
0.00314184
0.00421595
0.00738224
0.0103372
0.0131796
0.015835
0.0181379
0.0196889
0.0202068
0.0225567
0.0341705
0.0380702
0.0397518
-0.0214272
-0.0205176
-0.0200143
-0.0197971
-0.0190134
-0.0169866
-0.013819
-0.0101421
-0.00650786
-0.00317081
4.58906e-05
0.00304951
0.00588104
0.00856697
0.0110979
0.0134
0.0153581
0.0168026
0.0176225
0.0206707
0.0328672
0.035254
0.0362667
-0.0181711
-0.0180251
-0.0177528
-0.017432
-0.0165189
-0.014809
-0.0123453
-0.00945925
-0.00646173
-0.00348935
-0.00063642
0.0020714
0.0046359
0.00704867
0.00928888
0.0113063
0.0130318
0.0143843
0.0153328
0.0160464
0.0168079
0.0264855
0.0332494
-0.0152319
-0.0152925
-0.0153569
-0.0155298
-0.0146289
-0.0131518
-0.0111392
-0.00877226
-0.00624186
-0.0036751
-0.00115934
0.00126035
0.00355976
0.0057194
0.0077146
0.00950905
0.0110599
0.0123265
0.0133031
0.0140701
0.0147153
0.0152226
0.015641
-0.0125085
-0.0128647
-0.0133577
-0.013882
-0.0130856
-0.011812
-0.0101236
-0.00813824
-0.00598432
-0.00376384
-0.00155364
0.000593809
0.00264524
0.0045756
0.00635978
0.00796983
0.00937766
0.0105606
0.0115173
0.0122826
0.012893
0.0133521
0.0136208
-0.0102487
-0.0109376
-0.011606
-0.0122159
-0.0117581
-0.0106733
-0.00924189
-0.00755559
-0.00570885
-0.00378346
-0.00184582
5.39012e-05
0.00187979
0.00360455
0.00520411
0.00665565
0.00793876
0.00903821
0.00995081
0.0106896
0.0112687
0.011687
0.01192
-0.00849742
-0.00928162
-0.0101058
-0.0108661
-0.010583
-0.00966947
-0.00845233
-0.00701106
-0.00542098
-0.00374891
-0.00205115
-0.000373137
0.00124994
0.00279069
0.00422652
0.00553789
0.00670819
0.00772485
0.00858226
0.00928237
0.00982841
0.0102169
0.0104327
-0.00726879
-0.00808136
-0.00888728
-0.00988347
-0.00952537
-0.0087608
-0.00772573
-0.00649
-0.00511747
-0.00366384
-0.00217674
-0.00069628
0.000744777
0.0021202
0.0034089
0.00459351
0.00565934
0.0065946
0.0073917
0.00804705
0.00855869
0.00892224
0.00912801
-0.00637011
-0.00774943
-0.0085216
-0.00886818
-0.00855965
-0.00792101
-0.00704016
-0.00597894
-0.00479231
-0.00352779
-0.00222581
-0.000921272
0.000356165
0.00158209
0.00273694
0.00380489
0.00477239
0.00562781
0.00636235
0.00696967
0.00744546
0.00778509
0.00798195
-0.00569878
-0.00698833
-0.0077353
-0.00791223
-0.00766708
-0.00713064
-0.00637916
-0.00546635
-0.00443971
-0.00333973
-0.00220087
-0.00105333
7.65172e-05
0.00116638
0.00219823
0.00315752
0.0040315
0.00480874
0.00547985
0.00603727
0.00647569
0.00679043
0.00697666
-0.00523196
-0.0062959
-0.00689317
-0.00703539
-0.00682833
-0.00637246
-0.00572903
-0.00494339
-0.00405567
-0.0031
-0.00210577
-0.001099
-0.000102926
0.00086235
0.00178035
0.00263766
0.0034223
0.00412315
0.00473077
0.00523717
0.00563673
0.00592476
0.00609745
-0.00488888
-0.00570861
-0.0061263
-0.00621028
-0.00602413
-0.00563218
-0.0050799
-0.00440455
-0.00363882
-0.00281104
-0.00194615
-0.00106649
-0.000192391
0.000658175
0.00147024
0.00223147
0.00293062
0.0035571
0.00410169
0.00455647
0.00491581
0.00517507
0.00533097
-0.00459231
-0.00502496
-0.00514496
-0.00540896
-0.00523875
-0.0049002
-0.00442672
-0.00384822
-0.00319077
-0.00247755
-0.0017294
-0.000965385
-0.00020318
0.000541256
0.00125439
0.00192491
0.00254232
0.00309664
0.0035791
0.0039821
0.00430018
0.00452875
0.00466487
-0.00429683
-0.00382246
-0.00172282
-0.00269074
-0.00442505
-0.00417573
-0.00377027
-0.00327712
-0.00271644
-0.00210658
-0.00146457
-0.000806422
-0.000147355
0.000498551
0.00111912
0.00170396
0.00224336
0.00272798
0.00314961
0.00350113
0.00377733
0.00397375
0.00408765
-0.0039515
-0.00327413
-0.000849451
-0.000764794
-0.0030887
-0.00346382
-0.00311592
-0.00269795
-0.00222397
-0.00170767
-0.00116246
-0.000601496
-3.76643e-05
0.000516705
0.00105069
0.00155478
0.00201999
0.00243766
0.00280021
0.00310105
0.00333532
0.00349873
0.00358875
-0.00355815
-0.00313159
-7.9227e-05
5.05588e-05
-0.00208203
-0.00277112
-0.00247218
-0.00212065
-0.00172437
-0.00129269
-0.00083564
-0.000363647
0.000112467
0.000582078
0.00103542
0.0014638
0.0018589
0.00221277
0.00251848
0.00277003
0.00296296
0.00309323
0.00315856
-0.00314688
-0.00290472
0.000120389
-1.17097e-05
-0.00186673
-0.00210505
-0.00185033
-0.00155796
-0.00123114
-0.000875492
-0.000498097
-0.000106952
0.000289063
0.000680869
0.00105977
0.00141781
0.00174732
0.00204104
0.00229271
0.00249698
0.00264984
0.00274758
0.00278825
-0.00274263
-0.00234312
-0.00182512
-0.00175302
-0.00166088
-0.00147999
-0.00126523
-0.00102512
-0.000759523
-0.000471173
-0.000164658
0.00015413
0.000478113
0.000799529
0.00111067
0.00140426
0.00167324
0.00191102
0.00211202
0.00227163
0.00238635
0.0024529
0.00246969
-0.00236045
-0.00185252
-0.0014969
-0.00127069
-0.00108963
-0.000915613
-0.000734281
-0.000538338
-0.000324984
-9.4598e-05
0.000150367
0.000405873
0.000666411
0.000925442
0.00117613
0.00141176
0.00162582
0.00181237
0.00196658
0.00208463
0.0021637
0.002201
0.00219535
-0.00201667
-0.00144513
-0.0010395
-0.00077783
-0.000589961
-0.000428431
-0.000272296
-0.000111375
5.93303e-05
0.000241526
0.000434675
0.000636402
0.000842607
0.00104784
0.00124596
0.00143067
0.0015959
0.0017363
0.00184787
0.00192776
0.00197395
0.00198432
0.00195814
-0.00171488
-0.0011135
-0.000668446
-0.000377044
-0.000180447
-2.56578e-05
0.000112805
0.000247331
0.000384643
0.000528221
0.000679229
0.00083681
0.000998124
0.00115859
0.00131251
0.00145377
0.00157652
0.00167593
0.00174896
0.00179399
0.0018101
0.00179595
0.00175135
-0.00144506
-0.000834553
-0.000366649
-5.68e-05
0.000144516
0.000294207
0.000420031
0.000535094
0.000647041
0.000760688
0.000878692
0.00100158
0.00112754
0.00125255
0.00137099
0.00147655
0.00156321
0.00162651
0.00166457
0.00167754
0.00166595
0.00162952
0.00156859
-0.00120136
-0.000584746
-0.00011302
0.000197391
0.000394872
0.000537709
0.000653253
0.000753636
0.000846507
0.00093762
0.00103095
0.0011282
0.00122832
0.0013274
0.00141939
0.00149718
0.00155403
0.00158538
0.00159095
0.0015736
0.00153598
0.00147908
0.00140376
-0.000980225
-0.000354322
0.000106804
0.000399246
0.000581469
0.000713094
0.000818365
0.000906724
0.000985055
0.00105976
0.00113596
0.0012163
0.00130008
0.00138305
0.00145804
0.00151632
0.0015495
0.00155187
0.00152552
0.00147799
0.00141498
0.00133891
0.00125097
-0.000776445
-0.000133855
0.000303817
0.000559225
0.000712931
0.000826882
0.000919992
0.000997403
0.00106456
0.00112824
0.00119449
0.0012666
0.00134384
0.00142104
0.00148921
0.00153711
0.00155304
0.00152758
0.00146663
0.00138661
0.0012976
0.00120323
0.00110447
-0.000587937
8.54331e-05
0.000488504
0.000684672
0.000792979
0.000880429
0.000958361
0.00102551
0.00108488
0.00114319
0.00120706
0.00128007
0.00136111
0.00144379
0.00151685
0.00156548
0.00157208
0.00151719
0.0014133
0.00129486
0.00117787
0.00106599
0.000958634
-0.000419966
0.000303481
0.000665443
0.000775417
0.000816762
0.000867403
0.000927789
0.000986657
0.00104293
0.00110256
0.00117222
0.00125544
0.00135079
0.00145109
0.00154318
0.00160733
0.00161646
0.00152663
0.00136263
0.00119586
0.00104832
0.000920473
0.000807897
-0.000288271
0.000501304
0.000817436
0.000809013
0.000763631
0.000772717
0.000818298
0.000874428
0.000934495
0.00100313
0.00108656
0.00118815
0.0013067
0.00143538
0.00156096
0.00165956
0.00169602
0.00155945
0.00130185
0.00107401
0.000896614
0.000758097
0.000646532
-0.000203771
0.000637957
0.0008525
0.000694129
0.000570453
0.000558884
0.000611003
0.000684215
0.000766485
0.000860789
0.00097261
0.001105
0.00125732
0.00142213
0.00158369
0.00174253
0.00189254
0.00167841
0.00121715
0.000898065
0.000700698
0.000566574
0.000468147
-6.0961e-05
0.00056581
0.000376696
0.000154787
7.29713e-05
0.000129296
0.000259744
0.00041442
0.000577273
0.000748983
0.000934729
0.0011376
0.00135792
0.00158819
0.00181314
0.00207743
0.00261392
0.00225013
0.00116773
0.000652268
0.00044628
0.000338989
0.00026954
0.000707882
-0.00230729
-0.00168608
-0.00113998
-0.00077445
-0.000461298
-0.000170181
9.53064e-05
0.000344083
0.000590379
0.000842943
0.0011097
0.00140161
0.00174043
0.00220178
0.00298307
0.00403519
0.00357088
0.00122885
0.000445516
0.000208246
0.000113951
6.8678e-05
727.989
728.425
729.639
731.018
656.804
651.335
649.5
650.788
120.406
119.073
122.87
129.107
1.50235
1.66797
1.82725
2.01323
1.4241
4.04763
5.29415
5.30521
3.10107
4.22189
2.80229
2.67827
1.26807
0.30585
0.15288
1.1245
0.568097
0.177234
0.0854558
0.203317
0.0508132
0.0711069
0.0546236
0.0428778
0.0397421
0.0393338
0.0385909
0.034561
0.0322905
0.0314203
0.0303966
0.028571
0.0397865
0.0373418
0.0263094
0.0239606
0.0361322
0.0359153
0.0350673
0.0221986
0.0199314
0.0180302
0.0182588
0.0180876
0.0156291
0.0154888
0.0153086
0.0150592
0.0135954
0.0135156
0.0133655
0.013159
0.011904
0.0118385
0.0117179
0.0115523
0.0104339
0.0103859
0.010292
0.0101613
0.00914535
0.00911338
0.00904199
0.00893838
0.00801174
0.0079928
0.00793925
0.00785688
0.00701431
0.00700488
0.00696482
0.00689848
0.00613821
0.00613478
0.00610415
0.00604939
0.0053705
0.0053699
0.00534519
0.00529828
0.00469945
0.00469907
0.00467743
0.00463537
0.00411434
0.00411216
0.00409137
0.00405187
0.00360544
0.00359994
0.00357835
0.0035397
0.00316395
0.00315407
0.00313045
0.00309139
0.00278174
0.00276679
0.00274029
0.00269995
0.00245127
0.00243091
0.00240105
0.00235892
0.00216561
0.00213988
0.00210646
0.0020623
0.00191809
0.00188732
0.00185045
0.0018043
0.00170226
0.001667
0.00162703
0.00157914
0.00151181
0.00147275
0.00143021
0.00138106
0.0013406
0.00129853
0.00125408
0.00120432
0.00118271
0.00113846
0.00109293
0.00104338
0.00103248
0.000987023
0.000941395
0.000893104
0.000884568
0.00083917
0.000794716
0.000748961
0.000734124
0.000690466
0.000648836
0.000607176
0.000576881
0.000537261
0.00050052
0.000464812
0.000409264
0.000377127
0.000348065
0.000320622
0.000229236
0.000209104
0.000191616
0.000175228
4.7497e-05
3.78651e-05
3.00143e-05
2.31442e-05
732.501
736.321
738.964
736.065
720.941
727.856
733.126
726.233
737.436
753.887
774.089
782.819
786.99
790.366
793.281
796.825
800.406
799.951
768.987
642.011
630.389
613.228
627.165
656.485
683.227
701.457
709.162
713.811
722.637
735.623
748.685
760.405
767.145
770.724
784.137
801.861
807.197
808.281
144.901
195.03
249.837
285.024
312.672
336.843
372.879
415.686
445.054
460.046
467.54
478.536
494.046
510.677
526.483
540.684
557.665
589.701
607.395
2.22259
1.55333
1.34831
1.34633
1.58492
1.7554
1.73919
3.30045
8.74702
15.0644
21.2384
27.162
32.4055
37.5503
42.3255
44.8824
47.9134
47.4517
47.8938
4.60108
1.36952
1.34959
1.35724
1.71868
2.46323
1.77543
1.6512
1.93836
2.03564
2.01212
1.99989
2.03562
2.08851
2.16211
1.99717
1.80646
1.98266
2.01283
1.78171
1.33615
1.33576
1.33186
2.74976
3.07042
3.06977
3.05393
3.00778
3.01542
2.99671
2.78283
2.00126
2.41041
2.45009
2.43086
1.39458
1.17698
2.04108
2.38155
2.44809
2.55505
2.54123
2.41855
2.47082
2.29476
2.08625
2.06729
2.22557
1.95485
1.84748
1.75556
1.66398
1.85597
1.86212
1.5004
0.934866
1.5099
1.04543
1.04551
1.28218
1.2338
0.446776
0.0234732
0.202249
0.184768
0.0809335
0.104148
0.0943162
0.156534
0.190735
0.122391
0.132855
0.303284
0.606244
0.458636
0.337885
0.0269141
0.020925
0.0137043
0.0109356
0.0138873
0.0156589
0.0143643
0.0137014
0.012757
0.0110909
0.0107939
0.0113346
0.0330199
0.0752518
0.00559452
-0.00220344
-0.00571254
-0.00410541
-0.00663215
0.0263766
0.0212131
0.0164582
0.0136638
0.0135581
0.0133098
0.0116585
0.0108365
0.010945
0.0102452
0.0109017
0.0686273
0.12976
0.127006
0.0879714
0.000199668
-0.00120104
-0.000840208
-0.00303357
0.0240769
0.0201851
0.0163371
0.013857
0.0131411
0.0258001
0.0489767
0.0431039
0.0143246
0.0256338
0.115006
0.137536
0.134373
0.11521
0.00323187
0.00253443
0.00288948
0.00204908
-0.000212198
0.0219057
0.0185401
0.015596
0.0133654
0.027192
0.0544458
0.0525082
0.0507287
0.0271103
0.0513075
0.144077
0.141479
0.0613473
0.00960026
0.0116961
0.0580813
0.0887467
0.0631441
0.0361203
0.0188969
0.0166975
0.0144012
0.0123356
0.017954
0.0535533
0.0530372
0.0370515
0.0095593
0.0215315
0.0462022
0.0286281
-0.00313824
0.00523549
0.0790883
0.0917128
0.0907013
0.0902772
0.0899306
0.0171002
0.0148911
0.0130618
0.011582
0.0108471
0.013467
0.0168956
0.00593729
0.00217357
-5.66506e-05
-0.00280956
-0.0043612
-0.00490507
0.0129748
0.094413
0.0932319
0.0499047
0.022986
0.0789043
0.0145174
0.0132991
0.0119945
0.0104738
0.00856925
0.00659687
0.00483059
0.00335626
0.00179522
-0.000195802
-0.00234342
-0.0040289
-0.00537275
0.00578374
0.0392454
0.0194653
-0.0106972
-0.0112625
0.00784463
0.0127279
0.0117657
0.0105639
0.0091974
0.0079202
0.00675588
0.00495681
0.00311329
0.00154546
-0.000256118
-0.00215735
-0.00387653
-0.00534392
-0.0058219
-0.00797084
-0.0105047
-0.0109753
-0.00625283
0.0407999
0.0112083
0.0104315
0.00943802
0.00829048
0.00747051
0.00641531
0.00501906
0.00341939
0.0013483
-0.000337623
-0.00206226
-0.00372918
-0.00535568
-0.00708827
-0.00880388
-0.00999405
-0.0108888
-0.010117
0.0430584
0.00988576
0.0092531
0.00842132
0.00743048
0.00638556
0.00567161
0.00463798
0.00331438
0.00150629
-0.000431623
-0.00200434
-0.00356987
-0.00512264
-0.00668183
-0.00815172
-0.00932134
-0.0102363
-0.0110897
0.00330495
0.00871447
0.00819061
0.00748484
0.00662619
0.00563878
0.0045752
0.00360673
0.00247612
0.00106126
-0.000422465
-0.00176254
-0.00325818
-0.00481083
-0.00620693
-0.00746647
-0.00846054
-0.00913938
-0.00948295
-0.00920933
0.00767242
0.00723152
0.00662497
0.00587458
0.00500113
0.00402389
0.00296288
0.00183078
0.000634558
-0.000476746
-0.00164952
-0.00295713
-0.00437351
-0.00573397
-0.00680405
-0.00760884
-0.00804587
-0.00809972
0.0240995
0.00674385
0.00636635
0.00583846
0.00517697
0.00439931
0.00352139
0.00255914
0.00152458
0.000426186
-0.00070166
-0.00176221
-0.00287576
-0.00414125
-0.00529404
-0.00621941
-0.0068948
-0.00722097
-0.00719995
0.0479139
0.00591667
0.00558754
0.00512235
0.00453431
0.00383802
0.00304687
0.00217444
0.00123276
0.000233069
-0.00081097
-0.00187794
-0.00293508
-0.00396232
-0.00490615
-0.0057166
-0.00631684
-0.00661906
-0.00659413
0.0506587
0.00518111
0.00488872
0.00447374
0.00394683
0.00332028
0.00260565
0.00181509
0.000960514
5.44105e-05
-0.000888349
-0.0018479
-0.002799
-0.00371172
-0.00455143
-0.00527386
-0.00582274
-0.00612347
-0.00608043
0.0527109
0.0045287
0.00426412
0.00388961
0.00341396
0.00284767
0.00220089
0.00148479
0.000711004
-0.000107629
-0.000956053
-0.00181584
-0.0026646
-0.00347634
-0.0042216
-0.00486679
-0.00537479
-0.00568457
-0.00562913
0.0554045
0.00395183
0.00370822
0.00336662
0.00293437
0.00242051
0.00183414
0.00118565
0.000486291
-0.000251225
-0.0010122
-0.00177939
-0.00253256
-0.00324874
-0.00390294
-0.00447061
-0.0049322
-0.00524475
-0.00519755
0.0579039
0.00344342
0.00321563
0.00290107
0.00250595
0.0020381
0.00150574
0.000918579
0.000287417
-0.000375356
-0.00105547
-0.00173642
-0.0023991
-0.00302185
-0.0035814
-0.00405671
-0.00443489
-0.00467993
-0.00458256
0.0267199
0.0029968
0.00278107
0.00248907
0.00212611
0.00169896
0.00121505
0.000683468
0.000114492
-0.000479866
-0.00108566
-0.00168663
-0.00226357
-0.002794
-0.00325236
-0.00361225
-0.00384807
-0.00390553
-0.00361383
-0.00306392
0.00260566
0.00239942
0.00212666
0.00179194
0.00140108
0.000960788
0.000479466
-3.31458e-05
-0.00056548
-0.00110386
-0.00163195
-0.00212968
-0.0025723
-0.00292927
-0.00316276
-0.00322074
-0.00301663
-0.0024712
-0.00165014
0.00226412
0.00206576
0.00180987
0.00150036
0.00114215
0.000741214
0.000305249
-0.000156658
-0.000633506
-0.00111201
-0.00157581
-0.00200407
-0.0023699
-0.00263812
-0.00276025
-0.00266037
-0.00222871
-0.00147851
0.00283809
0.00196663
0.00177528
0.00153469
0.0012481
0.000919565
0.000554307
0.000159216
-0.000257403
-0.000685324
-0.00111195
-0.00152135
-0.00189277
-0.00219872
-0.00240251
-0.0024521
-0.0022648
-0.00173346
-0.00092775
0.0525701
0.00170778
0.0015232
0.00129699
0.00103167
0.000730468
0.000397788
3.96131e-05
-0.000336696
-0.000721935
-0.00110457
-0.00146976
-0.0017979
-0.00206285
-0.00222999
-0.00225153
-0.00205533
-0.00155505
-0.000828256
0.0652818
0.00148218
0.00130466
0.00109243
0.000847346
0.000571739
0.000269165
-5.53977e-05
-0.000395685
-0.00074375
-0.00108949
-0.00141969
-0.00171673
-0.00195713
-0.00211007
-0.00213498
-0.00197506
-0.00156075
-0.00091713
0.0669992
0.00128443
0.00111467
0.000916554
0.000691188
0.000440042
0.000165779
-0.000127704
-0.000435353
-0.000750661
-0.00106521
-0.00136782
-0.00164334
-0.00187137
-0.00202516
-0.00207078
-0.00196378
-0.00164052
-0.00105431
0.068735
0.00110914
0.000948245
0.000764812
0.000559178
0.000331949
8.48919e-05
-0.000179201
-0.000456557
-0.000742218
-0.00102963
-0.00130985
-0.00157043
-0.00179409
-0.0019576
-0.00203196
-0.00198087
-0.00174123
-0.00120581
0.0702459
0.000951144
0.000800588
0.000632826
0.000447403
0.000244092
2.38038e-05
-0.000211748
-0.000460077
-0.000717821
-0.000980382
-0.00124119
-0.00149055
-0.00171411
-0.00189119
-0.00199478
-0.00198979
-0.00180592
-0.00128953
0.0523969
0.000805652
0.000667297
0.000516559
0.000352217
0.000173291
-2.00825e-05
-0.00022717
-0.000446717
-0.000676933
-0.000915214
-0.00115748
-0.00139701
-0.00162231
-0.00181444
-0.00194497
-0.00197015
-0.00180142
-0.00124801
0.0370975
0.000668489
0.000544536
0.000412454
0.000270344
0.00011661
-4.92465e-05
-0.000227306
-0.000417413
-0.000619257
-0.000832231
-0.00105497
-0.00128432
-0.0015124
-0.00172267
-0.00188411
-0.00193629
-0.00177131
-0.00116668
0.036643
0.000536174
0.000429132
0.000317516
0.000198939
7.14045e-05
-6.60254e-05
-0.000214015
-0.000373283
-0.000544802
-0.000729877
-0.00093016
-0.00114709
-0.00137827
-0.00161256
-0.00181906
-0.00190634
-0.0017787
-0.00118416
0.0387274
0.000406098
0.000318782
0.000229544
0.000135838
3.55817e-05
-7.2351e-05
-0.000188928
-0.000315399
-0.000453642
-0.000606564
-0.000778864
-0.000977236
-0.00120758
-0.001471
-0.00173945
-0.00190354
-0.00185786
-0.00133803
0.0394302
0.000277308
0.000212827
0.000147877
8.02919e-05
8.30414e-06
-6.90886e-05
-0.000152829
-0.00024424
-0.000345461
-0.000460188
-0.000595162
-0.000761452
-0.000977042
-0.00127541
-0.00167766
-0.00197043
-0.00202638
-0.00163393
0.0398273
0.000149596
0.000110558
7.149e-05
3.10319e-05
-1.18843e-05
-5.78494e-05
-0.000107462
-0.000161629
-0.000221986
-0.000291821
-0.000377873
-0.000493081
-0.000674467
-0.00105282
-0.00181052
-0.00213424
-0.00229505
-0.00218185
0.0304701
1.31799e-05
-1.44722e-06
-1.51765e-05
-2.85947e-05
-4.2007e-05
-5.55906e-05
-6.95926e-05
-8.44771e-05
-0.00010131
-0.000122915
-0.000156737
-0.000220562
-0.000371592
-0.000896464
-0.00269147
-0.00284094
-0.00238461
-0.00240271
0.00272614
)
;

boundaryField
{
    leftWall
    {
        type            fixedFluxPressure;
        gradient        uniform 0;
        value           nonuniform List<scalar> 
50
(
786.068
786.169
786.383
786.72
787.181
787.768
788.483
789.334
790.912
793.646
500.899
17.823
3.24746
2.6349
3.35221
3.25948
0.172162
-0.0372372
-0.0300121
-0.0251912
-0.0214272
-0.0181711
-0.0152319
-0.0125085
-0.0102487
-0.00849742
-0.00726879
-0.00637011
-0.00569878
-0.00523196
-0.00488888
-0.00459231
-0.00429683
-0.0039515
-0.00355815
-0.00314688
-0.00274263
-0.00236045
-0.00201667
-0.00171488
-0.00144506
-0.00120136
-0.000980225
-0.000776445
-0.000587937
-0.000419966
-0.000288271
-0.000203771
-6.0961e-05
0.000707882
)
;
    }
    rightWall
    {
        type            fixedFluxPressure;
        gradient        uniform 0;
        value           nonuniform List<scalar> 
50
(
784.586
785.499
786.171
786.318
786.452
786.448
770.944
764.117
768.987
808.281
607.395
47.8938
2.01283
2.04108
1.5099
0.337885
-0.00663215
-0.00303357
-0.000212198
0.0361203
0.0899306
0.0789043
0.00784463
0.0407999
0.0430584
0.00330495
-0.00920933
0.0240995
0.0479139
0.0506587
0.0527109
0.0554045
0.0579039
0.0267199
-0.00306392
-0.00165014
0.00283809
0.0525701
0.0652818
0.0669992
0.068735
0.0702459
0.0523969
0.0370975
0.036643
0.0387274
0.0394302
0.0398273
0.0304701
0.00272614
)
;
    }
    lowerWall
    {
        type            fixedFluxPressure;
        gradient        uniform 0;
        value           nonuniform List<scalar> 
62
(
786.068
785.561
784.545
782.987
780.974
778.542
775.748
772.66
769.336
765.848
762.302
758.753
755.265
751.898
748.69
745.643
742.761
739.91
737.145
736.645
736.62
736.538
736.368
736.368
736.414
736.762
736.624
736.441
736.287
735.661
735.653
727.989
728.425
729.639
731.018
737.634
737.458
737.856
737.014
735.937
735.046
733.611
730.893
737.634
739.676
742.285
745.312
748.477
751.868
755.6
759.838
764.086
767.967
771.696
773.717
775.443
778.635
782.605
783.676
783.137
783.582
784.586
)
;
    }
    atmosphere
    {
        type            totalPressure;
        rho             rho;
        psi             none;
        gamma           1;
        p0              uniform 0;
        value           nonuniform List<scalar> 
46
(
-8.47366e-05
-2.08828e-05
0
0
0
0
0
0
0
0
0
0
0
0
0
0
0
-1.32272e-06
-4.59683e-06
-1.12029e-05
-2.01137e-05
-3.00159e-05
-3.98942e-05
-4.65426e-05
-5.05564e-05
-5.41908e-05
-5.74185e-05
-6.22042e-05
-6.69547e-05
-6.97274e-05
-7.05225e-05
-6.93989e-05
-6.64627e-05
-6.18623e-05
-5.57915e-05
-4.85003e-05
-4.03091e-05
-3.16209e-05
-2.29082e-05
-1.46528e-05
-7.24846e-06
-1.49192e-06
0
0
0
0
)
;
    }
    defaultFaces
    {
        type            empty;
    }
}


// ************************************************************************* //
