/*--------------------------------*- C++ -*----------------------------------*\
  =========                 |
  \\      /  F ield         | OpenFOAM: The Open Source CFD Toolbox
   \\    /   O peration     | Website:  https://openfoam.org
    \\  /    A nd           | Version:  9
     \\/     M anipulation  |
\*---------------------------------------------------------------------------*/
FoamFile
{
    format      ascii;
    class       volScalarField;
    location    "9.18";
    object      nut;
}
// * * * * * * * * * * * * * * * * * * * * * * * * * * * * * * * * * * * * * //

dimensions      [0 2 -1 0 0 0 0];

internalField   nonuniform List<scalar> 
2268
(
8.62055e-06
1.02113e-05
1.24155e-05
1.39036e-05
1.50167e-05
1.58876e-05
1.65829e-05
1.71428e-05
1.75976e-05
1.79723e-05
1.82957e-05
1.85787e-05
1.88202e-05
1.89919e-05
1.90287e-05
1.88267e-05
1.83059e-05
1.76204e-05
1.66646e-05
1.55669e-05
1.43143e-05
1.20888e-05
8.24727e-06
1.99403e-05
8.27913e-05
0.000112211
0.00013109
0.000144898
0.000155591
0.000164081
0.000170901
0.000176454
0.000181022
0.000184763
0.000187967
0.000190559
0.00019225
0.000192451
0.000190266
0.000184615
0.00017463
0.000161054
0.000147651
0.000135492
9.93257e-05
2.62456e-05
2.38904e-05
0.000142474
0.000210821
0.000255555
0.0002882
0.000313307
0.000333094
0.000348876
0.000361607
0.000371988
0.000380472
0.000387583
0.000393205
0.000396728
0.000396883
0.000391684
0.000379041
0.000359012
0.000333152
0.000302479
0.000259795
0.000169818
3.13046e-05
2.68136e-05
0.000184868
0.000289588
0.000360557
0.000412958
0.000453404
0.000485299
0.00051073
0.000531191
0.000547794
0.000561272
0.000572341
0.000580897
0.000586093
0.000586165
0.000578374
0.000560011
0.000531537
0.000494262
0.00044407
0.000365907
0.000224862
3.56904e-05
2.91348e-05
0.000216875
0.00035334
0.000448915
0.00052052
0.000576165
0.000620206
0.000655401
0.000683731
0.000706666
0.000725194
0.000740131
0.000751459
0.00075818
0.000758253
0.000748563
0.000725953
0.000690461
0.000642289
0.000572556
0.000460348
0.00027317
3.99846e-05
3.10872e-05
0.000242423
0.000406336
0.000524441
0.000614174
0.000684423
0.000740272
0.000785046
0.000821151
0.000850364
0.000873924
0.000892588
0.000906565
0.000914754
0.000915014
0.000904126
0.000878603
0.000837485
0.000779417
0.000691913
0.000549578
0.000320364
4.48428e-05
3.28029e-05
0.000263707
0.000451549
0.00059016
0.000696783
0.000780825
0.000847941
0.000901938
0.000945584
0.000980918
0.00100936
0.0010317
0.00104828
0.00105799
0.00105871
0.00104728
0.00102005
0.000974932
0.000908756
0.000807057
0.000640761
0.00037254
5.14102e-05
3.43606e-05
0.000282064
0.00049106
0.000648367
0.000770621
0.000867545
0.000945276
0.00100804
0.00105892
0.00110016
0.00113332
0.00115929
0.00117853
0.00118992
0.00119145
0.00118012
0.00115226
0.00110494
0.00103336
0.000922626
0.000742877
0.000443145
6.17651e-05
9.86502e-06
1.4581e-05
1.7246e-05
1.82662e-05
1.87044e-05
1.89119e-05
1.88677e-05
1.87102e-05
1.83524e-05
1.78745e-05
1.71147e-05
1.59694e-05
1.51558e-05
1.50453e-05
1.44726e-05
1.33464e-05
1.15502e-05
9.3936e-06
9.68339e-06
3.24142e-05
0.000118635
0.000159458
0.000177117
0.000184632
0.000187206
0.00018717
0.000184627
0.000179831
0.000174548
0.000162581
0.000145076
0.000140339
0.000147046
0.000142786
0.000128554
0.000104741
7.0847e-05
2.31952e-05
3.60867e-05
0.000207091
0.000303826
0.000351814
0.000374349
0.00038323
0.000384412
0.000379559
0.000369409
0.000356365
0.000336865
0.000310249
0.000298047
0.000298888
0.000284658
0.000252886
0.000199382
0.000120975
2.7643e-05
3.8379e-05
0.000267961
0.000419591
0.000502325
0.000543372
0.000560934
0.000564939
0.000559039
0.000544614
0.000525242
0.000500749
0.000470078
0.000449551
0.000437584
0.00040962
0.000359605
0.000279271
0.000163455
3.12056e-05
4.12115e-05
0.000309377
0.000515529
0.000633063
0.000693109
0.00072008
0.000727763
0.00072182
0.000704394
0.000680334
0.000651826
0.000617938
0.000588781
0.00056238
0.000519414
0.000451658
0.000349255
0.000203987
3.42487e-05
4.51913e-05
0.000345932
0.000602526
0.00075122
0.000828323
0.000864053
0.000875474
0.000870023
0.000850589
0.000822991
0.000790836
0.000753189
0.000715377
0.000674955
0.000617205
0.000532749
0.000410973
0.000242127
3.70711e-05
5.22669e-05
0.000390468
0.00069088
0.00086328
0.000953424
0.00099616
0.00101071
0.00100581
0.000984962
0.000954535
0.00091881
0.000876735
0.000830419
0.000777073
0.000705441
0.000605514
0.000465627
0.000273937
3.99002e-05
6.57344e-05
0.000459101
0.000790288
0.000974302
0.00107189
0.00111914
0.00113573
0.00113103
0.001109
0.00107613
0.00103678
0.000989796
0.000935312
0.000870306
0.000785928
0.000671662
0.000514625
0.000301079
4.23527e-05
3.65654e-05
0.000307637
0.000546257
0.000730408
0.000875337
0.000991142
0.00108463
0.00116059
0.0012225
0.00127286
0.00131339
0.00134501
0.00136816
0.00138202
0.00138494
0.00137446
0.00134737
0.0012997
0.00122479
0.00110963
0.000933221
0.000670885
0.000332531
3.92236e-05
0.000335732
0.000608218
0.000823422
0.00099366
0.0011304
0.00124165
0.00133294
0.00140808
0.0014698
0.00152
0.00155979
0.00158932
0.00160817
0.00161519
0.00160867
0.00158617
0.00154428
0.00147726
0.00137649
0.00123144
0.00103575
0.000802006
4.23533e-05
0.000359285
0.000665995
0.000909905
0.00109958
0.00125222
0.00137752
0.00148168
0.00156842
0.00164052
0.00170012
0.00174837
0.00178534
0.00181056
0.00182344
0.00182295
0.00180761
0.00177519
0.00172148
0.00164262
0.001535
0.00140179
0.00126336
4.64589e-05
0.000374361
0.000724301
0.000997627
0.0011988
0.00136326
0.00149883
0.00161309
0.00170958
0.00179093
0.00185951
0.00191647
0.00196107
0.00199334
0.00201309
0.00201982
0.00201259
0.00199026
0.00194959
0.00189241
0.00181794
0.00173108
0.00165017
4.96458e-05
0.000400935
0.00078643
0.00107275
0.00128537
0.00146509
0.00161025
0.00173152
0.00183591
0.00192576
0.00200273
0.00206805
0.00212002
0.00215847
0.00218405
0.00219626
0.00219503
0.0021813
0.00215371
0.0021154
0.00206682
0.00201215
0.00196291
5.70706e-05
0.000449445
0.000813467
0.0010998
0.00133398
0.00153877
0.00170124
0.00183458
0.00194874
0.00204742
0.00213224
0.00220467
0.00226413
0.00230836
0.00233805
0.00235518
0.00236172
0.00235714
0.00234057
0.00231804
0.00228972
0.00225589
0.00222606
0.000248977
0.000550449
0.000866655
0.00114698
0.00138698
0.00159753
0.00177366
0.0019216
0.00204823
0.00215711
0.00225034
0.00232984
0.0023954
0.00244554
0.00248093
0.00250381
0.00251615
0.00251954
0.00251365
0.00250248
0.00248865
0.00247159
0.00245699
0.000269702
0.000594162
0.000909787
0.00119202
0.00143835
0.00165392
0.00184046
0.00200089
0.00213875
0.00225738
0.0023593
0.00244615
0.00251802
0.00257425
0.00261588
0.0026449
0.00266354
0.00267432
0.0026781
0.00267701
0.00267341
0.00266758
0.00266191
0.000279982
0.000615409
0.000941408
0.0012318
0.00148634
0.00170969
0.00190501
0.00207506
0.00222257
0.00235018
0.00246028
0.00255441
0.00263283
0.00269519
0.00274298
0.00277836
0.00280361
0.00282124
0.0028329
0.0028401
0.00284445
0.00284659
0.00284755
0.000286112
0.000628568
0.00096567
0.00126576
0.00152971
0.00176188
0.00196579
0.00214442
0.00230037
0.00243601
0.00255351
0.0026544
0.00273896
0.00280754
0.00286173
0.0029037
0.00293561
0.00295979
0.00297815
0.00299203
0.00300248
0.00301022
0.00301558
0.000289872
0.000638416
0.000984916
0.00129505
0.0015687
0.00180988
0.00202223
0.00220884
0.00237242
0.00251531
0.00263944
0.00274639
0.00283691
0.00291172
0.00297235
0.00302083
0.00305918
0.00308949
0.00311355
0.00313277
0.00314799
0.00315956
0.00316749
0.000292189
0.000645752
0.00100069
0.00132069
0.001604
0.00185407
0.00207455
0.00226868
0.00243931
0.00258875
0.00271894
0.00283152
0.00292771
0.00300852
0.00307534
0.00312996
0.00317426
0.00321009
0.0032391
0.00326262
0.00328135
0.00329546
0.00330469
0.000293616
0.000650779
0.00101363
0.0013434
0.00163627
0.00189504
0.00212334
0.00232457
0.00250176
0.00265715
0.00279292
0.00291083
0.00301228
0.00309858
0.00317105
0.00323124
0.00328084
0.0033215
0.00335472
0.00338168
0.003403
0.0034187
0.00342846
0.000294343
0.000652738
0.00102391
0.00136379
0.00166618
0.00193342
0.00216923
0.00237717
0.00256042
0.00272128
0.00286214
0.00298493
0.00309119
0.00318232
0.00325971
0.00332475
0.00337893
0.00342371
0.00346045
0.00349017
0.0035134
0.00353013
0.00354012
0.000294381
0.000649638
0.00103171
0.00138256
0.0016944
0.00196981
0.00221277
0.00242703
0.00261585
0.00278168
0.00292712
0.00305423
0.00316469
0.00326
0.00334152
0.00341063
0.00346865
0.0035169
0.00355657
0.00358854
0.00361328
0.00363086
0.00364111
0.000294806
0.000648462
0.00103952
0.00140058
0.00172152
0.00200475
0.00225444
0.00247455
0.00266841
0.00283872
0.00298819
0.00311902
0.00323304
0.00333182
0.00341677
0.0034892
0.00355039
0.00360152
0.00364365
0.00367758
0.00370371
0.00372221
0.003733
6.93932e-05
0.000633866
0.00104686
0.00141818
0.00174795
0.00203864
0.00229461
0.00252004
0.00271842
0.00289265
0.0030456
0.00317956
0.00329651
0.00339809
0.00348579
0.00356093
0.00362472
0.00367829
0.00372259
0.00375833
0.00378595
0.00380563
0.00381739
0.000295161
0.00064101
0.00105392
0.00143557
0.00177395
0.00207173
0.00233351
0.00256371
0.00276609
0.00294372
0.00309957
0.00323611
0.00335541
0.00345923
0.00354913
0.00362647
0.00369245
0.00374815
0.00379447
0.00383208
0.0038614
0.00388267
0.00389594
0.000294333
0.000629168
0.0010607
0.00145296
0.00179969
0.00210417
0.0023713
0.00260577
0.00281161
0.00299211
0.00315035
0.00328895
0.00341011
0.00351572
0.0036074
0.00368658
0.00375449
0.00381219
0.00386054
0.0039002
0.00393157
0.00395492
0.00397032
0.000295068
0.000629895
0.0010683
0.00147049
0.00182526
0.00213604
0.00240809
0.00264635
0.00285514
0.00303801
0.00319817
0.00333839
0.00346102
0.00356807
0.00366126
0.00374209
0.00381183
0.00387155
0.0039221
0.00396412
0.00399801
0.00402402
0.00404222
0.000294552
0.000621354
0.00107597
0.00148817
0.00185069
0.00216741
0.00244393
0.00268554
0.00289682
0.00308162
0.00324329
0.00338477
0.00350857
0.00361684
0.0037114
0.00379384
0.00386548
0.00392741
0.00398048
0.00402531
0.00406229
0.00409162
0.00411334
0.000295049
0.000620402
0.00108409
0.00150599
0.00187598
0.00219828
0.0024789
0.00272343
0.00293678
0.00312312
0.00328597
0.00342845
0.00355324
0.00366263
0.00375858
0.00384275
0.00391651
0.00398099
0.00403703
0.00408524
0.00412597
0.00415936
0.0041854
0.000295159
0.000617013
0.00109238
0.00152393
0.00190113
0.00222869
0.00251302
0.00276011
0.00297518
0.00316271
0.00332649
0.00346981
0.00359553
0.00370608
0.00380357
0.00388973
0.00396599
0.00403351
0.00409312
0.00414539
0.00419062
0.00422888
0.00426006
0.000294845
0.000610974
0.00110105
0.00154203
0.00192617
0.00225865
0.00254634
0.00279565
0.00301215
0.00320062
0.00336516
0.00350927
0.00363596
0.00374786
0.00384717
0.00393572
0.004015
0.00408617
0.00415006
0.00420717
0.00425775
0.00430174
0.00433895
0.000294414
0.000606196
0.00111
0.00156027
0.00195104
0.00228812
0.00257885
0.0028301
0.00304781
0.00323709
0.00340232
0.00354725
0.00367511
0.00378864
0.00389018
0.00398166
0.0040646
0.00414017
0.00420914
0.00427197
0.0043288
0.00437945
0.00442359
0.000295676
0.000609122
0.00111949
0.00157858
0.00197568
0.00231703
0.00261054
0.0028635
0.00308228
0.00327232
0.00343829
0.00358421
0.00371349
0.00382908
0.0039334
0.00402845
0.00411581
0.00419661
0.00427158
0.00434108
0.00440512
0.0044634
0.00451541
0.000295388
0.000604974
0.00112901
0.0015968
0.00199992
0.00234528
0.00264133
0.00289586
0.00311564
0.00330648
0.00347336
0.00362054
0.00375166
0.00386981
0.00397755
0.00407694
0.00416957
0.00425653
0.0043385
0.00441569
0.00448797
0.00455486
0.00461569
0.000295909
0.000605398
0.0011387
0.00161474
0.00202358
0.00237269
0.0026711
0.00292712
0.00314794
0.00333974
0.00350779
0.00365661
0.00379007
0.00391141
0.0040233
0.00412788
0.00422673
0.00432089
0.00441092
0.00449689
0.00457849
0.00465503
0.00472564
6.9609e-05
0.00059806
0.00114805
0.00163214
0.00204638
0.00239899
0.00269965
0.00295717
0.00317917
0.00337218
0.00354177
0.00369272
0.0038291
0.00395434
0.00407123
0.00418195
0.00428806
0.00439053
0.00448978
0.00458571
0.00467775
0.00476502
0.00484638
0.000294996
0.000599002
0.00115727
0.00164876
0.00206797
0.00242385
0.0027267
0.00298583
0.00320925
0.00340382
0.00357541
0.00372906
0.00386905
0.003999
0.0041218
0.00423969
0.00435421
0.00446623
0.00457598
0.00468313
0.00478685
0.00488595
0.00497904
0.000295151
0.000599028
0.00116604
0.00166421
0.00208785
0.00244675
0.00275182
0.00301278
0.003238
0.00343461
0.00360875
0.00376574
0.00391009
0.00404561
0.00417533
0.00430155
0.00442576
0.00454871
0.00467039
0.00479017
0.00490689
0.00501902
0.00512485
0.000295712
0.000601063
0.00117434
0.00167784
0.00210519
0.00246691
0.00277437
0.00303758
0.00326512
0.00346436
0.0036417
0.00380273
0.00395225
0.00409427
0.00423201
0.00436783
0.00450318
0.00463862
0.00477386
0.00490788
0.00503911
0.00516558
0.00528521
0.000295458
0.000601249
0.00118127
0.00168842
0.00211869
0.0024832
0.00279349
0.00305961
0.0032902
0.0034928
0.00367407
0.0038399
0.00399542
0.00414493
0.00429187
0.00443869
0.0045868
0.00473654
0.00488723
0.00503736
0.00518484
0.00532715
0.00546174
6.97237e-05
0.000601244
0.00118464
0.00169368
0.00212635
0.00249403
0.00280803
0.00307809
0.00331271
0.00351955
0.00370553
0.00387694
0.0040393
0.00419732
0.00435471
0.00451407
0.00467676
0.00484282
0.00501114
0.0051796
0.00534542
0.0055054
0.00565633
6.97522e-05
0.000598922
0.00118145
0.00169039
0.00212527
0.0024972
0.0028165
0.00309208
0.00333206
0.00354415
0.00373567
0.0039134
0.00408342
0.00425092
0.00442002
0.00459351
0.0047727
0.00495734
0.00514578
0.00533523
0.00552206
0.00570211
0.00587117
6.97392e-05
0.000592273
0.00116758
0.00167337
0.00211105
0.00248968
0.00281708
0.00310052
0.00334757
0.00356609
0.00376396
0.00394867
0.00412701
0.00430485
0.00448679
0.00467589
0.00487347
0.00507904
0.00529048
0.00550431
0.00571583
0.00591938
0.0061091
0.000296205
0.000583218
0.0011341
0.00163348
0.00207705
0.00246754
0.00280771
0.0031024
0.00335866
0.00358486
0.00378979
0.00398193
0.00416904
0.00435777
0.00455333
0.00475916
0.00497672
0.00520552
0.00544334
0.00568619
0.00592793
0.00616031
0.00637432
0.000295476
0.00054576
0.00106056
0.00155496
0.00201404
0.0024263
0.00278657
0.00309704
0.00336496
0.00360002
0.00381248
0.00401221
0.00420812
0.00440778
0.00461713
0.00484009
0.00507857
0.0053327
0.00560101
0.00587963
0.0061605
0.00643042
0.00667388
6.97159e-05
0.000441346
0.000909123
0.00141564
0.00191197
0.00236266
0.00275317
0.00308469
0.00336663
0.00361134
0.00383137
0.00403837
0.00424254
0.00445249
0.00467486
0.00491426
0.00517355
0.00545455
0.00575821
0.00608244
0.00641734
0.00674026
0.00701991
8.51481e-05
0.000240315
0.000648273
0.00119944
0.00176724
0.00227846
0.00271024
0.0030673
0.00336457
0.00361889
0.0038459
0.00405923
0.00427048
0.00448918
0.0047227
0.00497647
0.00525484
0.00556276
0.0059062
0.00628902
0.00670311
0.00711078
0.00743283
0.000186884
0.000114859
0.000345504
0.000928767
0.00159716
0.00218701
0.00266607
0.0030492
0.00336065
0.00362314
0.00385564
0.00407373
0.00429019
0.00451528
0.00475697
0.00502146
0.00531493
0.00564634
0.00602971
0.00648266
0.00701566
0.00758976
0.00794582
0.000413108
0.000136996
0.000161245
0.00069694
0.00145828
0.00211926
0.00263556
0.00303694
0.00335749
0.00362484
0.00386044
0.00408112
0.00430033
0.0045288
0.00477481
0.00504505
0.00534695
0.00569273
0.00610428
0.00661954
0.00730739
0.00831313
0.00860523
6.50393e-05
6.06915e-05
6.0635e-05
6.44531e-05
0.000626526
0.000598522
0.000597011
0.000622778
0.00118898
0.0011671
0.00116636
0.00118653
0.00161734
0.00160866
0.00160938
0.00161813
0.00194979
0.00194923
0.00195069
0.00195443
0.00221882
0.00222167
0.00222377
0.00222632
0.00245449
0.00245485
0.00245621
0.00245796
0.00266128
0.00266172
0.00266254
0.00266338
0.00284862
0.0028492
0.0028494
0.002849
0.00301773
0.00301829
0.00301784
0.00301624
0.00317006
0.00317042
0.00316932
0.00316665
0.0033072
0.00330725
0.00330555
0.00330203
0.00343066
0.00343036
0.00342817
0.00342399
0.00354199
0.00354139
0.00353882
0.00353422
0.00364284
0.00364211
0.00363937
0.00363459
0.00373492
0.0037343
0.00373167
0.00372699
0.00381993
0.00381971
0.00381749
0.00381322
0.00389956
0.00390007
0.00389858
0.00389507
0.00397554
0.0039771
0.00397669
0.00397428
0.00404957
0.00405254
0.00405357
0.00405262
0.00412339
0.00412815
0.00413099
0.00413186
0.00419874
0.00420566
0.00421069
0.00421377
0.00427731
0.00428679
0.0042944
0.00430006
0.00436074
0.00437318
0.00438376
0.00439239
0.00445058
0.00446638
0.00448031
0.00449229
0.00454824
0.00456781
0.00458549
0.00460118
0.00465502
0.00467875
0.00470056
0.00472032
0.0047721
0.00480038
0.00482668
0.00485086
0.00490059
0.0049338
0.00496493
0.00499385
0.00504162
0.0050801
0.00511639
0.00515032
0.00519637
0.00524045
0.00528218
0.00532137
0.00536622
0.00541621
0.00546361
0.00550823
0.00555281
0.00560896
0.00566221
0.00571237
0.00575804
0.0058206
0.00587983
0.00593552
0.00598422
0.00605343
0.00611867
0.00617976
0.0062343
0.00631037
0.00638154
0.00644767
0.00651256
0.00659551
0.00667216
0.00674253
0.00682559
0.00691483
0.00699574
0.00706864
0.00718364
0.00727698
0.00735916
0.00743121
0.00760162
0.00769316
0.00777027
0.0078353
0.00809828
0.0081745
0.00823461
0.00828267
0.00868707
0.00872211
0.00874694
0.00876536
0.000345908
0.000696933
0.000973168
0.00114878
0.00124931
0.00130018
0.00131844
0.00131359
0.00129035
0.00125385
0.0012084
0.00115304
0.00108625
0.00100474
0.00090194
0.000766461
0.00058425
0.000338098
4.48399e-05
0.000810569
0.00105489
0.00125463
0.00139381
0.00147925
0.00152353
0.00153746
0.00152853
0.00150118
0.00145869
0.00140441
0.00133773
0.00125651
0.00115707
0.00103345
0.000873241
0.000661025
0.00037536
4.65505e-05
0.00126398
0.00140752
0.00153946
0.00163839
0.00170125
0.00173248
0.00173747
0.00172128
0.00168757
0.00163831
0.00157497
0.00149723
0.00140309
0.0012878
0.00114531
0.00096375
0.000725487
0.000404658
4.82257e-05
0.00164792
0.00172943
0.00181043
0.00187381
0.00191318
0.001929
0.00192258
0.00189713
0.00185545
0.00179864
0.00172571
0.00163682
0.00153034
0.00139937
0.00123878
0.00103702
0.000773011
0.000416232
5.34067e-05
0.00196541
0.00201227
0.00205975
0.00209523
0.00211334
0.00211383
0.00209515
0.00205938
0.00200847
0.00194242
0.00185944
0.00176003
0.00164162
0.00149397
0.00131533
0.001091
0.000798585
0.0004159
5.26189e-05
0.00223216
0.00225556
0.00227996
0.00229537
0.00229732
0.00228378
0.00225291
0.00220603
0.00214443
0.00206781
0.00197446
0.0018648
0.00173619
0.00158169
0.00139358
0.00115586
0.000848272
0.000452538
5.9234e-05
0.00246141
0.00247053
0.00247781
0.00247682
0.00246469
0.00243826
0.00239515
0.00233643
0.00226344
0.00217642
0.00207495
0.0019597
0.00182301
0.00165617
0.00145836
0.00121731
0.000920767
0.000577096
0.000289048
0.00266421
0.00266291
0.0026569
0.00264293
0.0026187
0.00258059
0.00252652
0.00245695
0.00237291
0.00227472
0.00216265
0.00203614
0.00188779
0.00170881
0.00149909
0.00124865
0.000941952
0.000564319
0.00029528
0.00284684
0.00283754
0.00282118
0.0027967
0.00276213
0.00271384
0.00264984
0.00257018
0.00247526
0.00236498
0.00223931
0.00209654
0.00193211
0.00174141
0.00151994
0.00125774
0.000942436
0.000557341
0.000295178
0.00301137
0.00299611
0.0029719
0.00293892
0.0028955
0.00283841
0.00276565
0.00267672
0.00257142
0.00244932
0.00230945
0.00214964
0.00196711
0.00176052
0.00152523
0.00125346
0.0009347
0.00055565
6.95347e-05
0.0031595
0.00313972
0.00310977
0.00307008
0.0030193
0.00295482
0.00287466
0.00277781
0.00266341
0.00253045
0.00237745
0.00220215
0.00200224
0.00177716
0.0015247
0.00124001
0.000917423
0.000554002
0.000294632
0.00329308
0.00326987
0.00323581
0.00319101
0.00313445
0.00306409
0.002978
0.00287472
0.0027529
0.00261096
0.00244697
0.00225846
0.00204302
0.00179995
0.001529
0.00122884
0.000899618
0.000541761
6.95035e-05
0.00341378
0.00338823
0.00335133
0.00330292
0.00324215
0.00316738
0.00307677
0.00296862
0.00284119
0.0026925
0.0025202
0.0023215
0.00209365
0.00183532
0.00154689
0.00122993
0.000889592
0.000533501
0.000294431
0.00352324
0.00349635
0.00345775
0.00340711
0.0033436
0.00326581
0.00317206
0.00306053
0.00292927
0.00277605
0.00259822
0.00239275
0.0021565
0.00188725
0.00158459
0.00125139
0.000894236
0.000527699
0.000295051
0.00362332
0.00359594
0.00355666
0.00350496
0.00344001
0.00336053
0.00326493
0.00315141
0.00301795
0.00286217
0.00268132
0.00247221
0.0022315
0.00195618
0.00164441
0.00129713
0.000916952
0.000513194
0.000292828
0.00371592
0.00368884
0.00364975
0.00359803
0.00353278
0.00345278
0.00335653
0.00324227
0.00310796
0.00295122
0.00276926
0.00255888
0.00231656
0.00203877
0.00172211
0.00136364
0.000961134
0.000517515
6.91911e-05
0.00380289
0.00377687
0.00373882
0.00368799
0.00362344
0.00354395
0.00344808
0.00333411
0.00320002
0.00304345
0.00286162
0.00265128
0.00240871
0.00212969
0.00180916
0.0014404
0.00101586
0.000533674
6.97291e-05
0.00388603
0.00386186
0.00382565
0.00377657
0.00371359
0.00363551
0.00354089
0.00342802
0.00329491
0.00313919
0.00295807
0.00274818
0.00250546
0.00222486
0.00189964
0.00152017
0.00107402
0.000558404
0.000296609
0.00396712
0.0039456
0.00391203
0.00386549
0.00380489
0.00372897
0.00363629
0.00352512
0.00339347
0.00323894
0.00305864
0.00284904
0.00260564
0.00232257
0.00199164
0.00160115
0.00113555
0.000585292
7.01009e-05
0.00404794
0.00402989
0.00399975
0.0039565
0.00389898
0.00382587
0.00373567
0.00362662
0.00349669
0.0033434
0.00316375
0.00295395
0.0027091
0.00242255
0.00208498
0.00168303
0.00119857
0.000617628
7.16162e-05
0.00413027
0.00411651
0.00409057
0.00405133
0.00399752
0.00392776
0.00384046
0.00373381
0.00360568
0.00345351
0.00327414
0.00306352
0.00281634
0.00252532
0.00218017
0.00176624
0.00126348
0.000654847
7.49524e-05
0.00421588
0.00420724
0.00418625
0.00415167
0.00410216
0.0040362
0.00395213
0.00384804
0.00372169
0.00357039
0.00339081
0.00317867
0.00292825
0.00263171
0.00227795
0.00185121
0.00132976
0.0006938
7.84782e-05
0.00430651
0.00430379
0.00428847
0.00425919
0.00421448
0.00415272
0.00407213
0.00397067
0.00384599
0.00369526
0.00351495
0.00330053
0.00304593
0.00274279
0.00237915
0.00193833
0.00139666
0.000731449
8.22759e-05
0.00440378
0.00440778
0.00439883
0.00437544
0.00433601
0.00427879
0.00420186
0.00410308
0.00397993
0.00382943
0.00364784
0.00343039
0.00317063
0.00285982
0.00248544
0.00202936
0.00146598
0.000769623
8.61871e-05
0.00450924
0.00452072
0.0045188
0.00450185
0.00446813
0.00441574
0.00434266
0.00424658
0.00412482
0.00397422
0.00379082
0.00356962
0.00330393
0.0029845
0.00259809
0.00212543
0.00153896
0.000809923
9.01914e-05
0.00462428
0.00464396
0.0046497
0.0046397
0.00461207
0.00456481
0.00449574
0.00440239
0.00428191
0.00413095
0.00394535
0.00371981
0.00344729
0.00311811
0.00271835
0.00222763
0.00161648
0.000852992
9.42489e-05
0.00475014
0.00477872
0.00479267
0.00479007
0.00476891
0.00472704
0.00466215
0.00457163
0.00445244
0.00430098
0.00411282
0.00388235
0.00360216
0.00326208
0.00284755
0.0023371
0.00169936
0.000899203
9.84742e-05
0.00488793
0.00492602
0.00494869
0.0049539
0.00493952
0.00490332
0.00484285
0.00475533
0.00463751
0.00448551
0.00429459
0.00405872
0.00377008
0.00341798
0.00298716
0.0024551
0.00178845
0.000948747
0.00010316
0.00503865
0.00508679
0.00511861
0.00513195
0.00512465
0.00509437
0.00503857
0.0049543
0.00483807
0.00468569
0.00449197
0.00425046
0.00395275
0.00358755
0.00313888
0.00258309
0.00188484
0.00100209
0.000108541
0.00520328
0.0052619
0.00530315
0.00532485
0.00532482
0.00530071
0.00524987
0.0051692
0.00505497
0.00490258
0.00470635
0.0044592
0.00415204
0.00377281
0.00330468
0.00272284
0.00198989
0.00106011
0.000114677
0.00538282
0.00545217
0.00550297
0.00553311
0.00554044
0.00552266
0.0054771
0.00540051
0.00528888
0.00513718
0.0049391
0.00468675
0.00437011
0.00397613
0.00348694
0.00287648
0.00210533
0.00112399
0.000121492
0.00557838
0.00565849
0.00571872
0.00575712
0.00577172
0.00576036
0.0057204
0.00564849
0.00554033
0.00539038
0.00519159
0.00493503
0.00460944
0.00420039
0.00368861
0.00304666
0.00223314
0.0011949
0.000129003
0.00579125
0.00588183
0.00595102
0.00599721
0.00601876
0.00601374
0.00597965
0.00591311
0.00580955
0.00566289
0.00546515
0.00520614
0.00487292
0.00444912
0.00391352
0.00323686
0.00237587
0.00127403
0.000137333
0.00602294
0.00612328
0.00620052
0.00625361
0.00628143
0.00628246
0.00625444
0.00619405
0.00609649
0.00595512
0.00576098
0.00550227
0.0051639
0.00472678
0.00416674
0.00345193
0.00253706
0.00136305
0.000146654
0.00627524
0.00638405
0.00646783
0.0065264
0.00655941
0.00656591
0.00654401
0.00649054
0.00640062
0.00626709
0.00607994
0.0058256
0.00548622
0.00503894
0.00445516
0.00369885
0.00272205
0.00146451
0.000157177
0.0065502
0.00666541
0.00675346
0.00681548
0.0068521
0.00686312
0.00684716
0.00680135
0.00672084
0.00659816
0.00642236
0.00617801
0.00584401
0.00539251
0.00478825
0.00398806
0.00293933
0.0015824
0.000169166
0.0068503
0.00696862
0.00705772
0.00712041
0.00715855
0.00717276
0.00716229
0.0071247
0.00705539
0.00694686
0.0067876
0.00656056
0.00624125
0.00579567
0.00517888
0.00433549
0.00320297
0.00172328
0.000183193
0.0071783
0.00729477
0.00738051
0.00744037
0.00747742
0.00749312
0.00748736
0.00745825
0.0074017
0.00731063
0.0071736
0.00697275
0.00668082
0.0062572
0.00564411
0.00476588
0.00353799
0.00189974
0.000200222
0.00753688
0.00764428
0.00772106
0.00777392
0.00780693
0.00782218
0.00782004
0.00779925
0.0077565
0.00768565
0.00757632
0.00741135
0.00716264
0.00678454
0.00620489
0.00531753
0.00399145
0.0021401
0.000221628
0.00792746
0.00801617
0.00807745
0.00811894
0.00814494
0.00815769
0.00815786
0.00814473
0.00811597
0.00806695
0.00798948
0.00786922
0.00768091
0.00737923
0.00688239
0.00604748
0.0046562
0.00251639
0.000249868
0.00834782
0.00840687
0.00844628
0.00847252
0.00848902
0.00849747
0.00849853
0.00849188
0.00847624
0.00844887
0.00840471
0.00833451
0.00822076
0.00802864
0.0076849
0.00702928
0.00572253
0.00324551
0.00028948
0.00878903
0.00880932
0.00882252
0.00883124
0.00883674
0.00883967
0.00884029
0.00883854
0.00883405
0.008826
0.00881284
0.00879163
0.00875654
0.00869493
0.00857554
0.00830683
0.00756998
0.0052051
0.000343329
)
;

boundaryField
{
    leftWall
    {
        type            nutkWallFunction;
        Cmu             0.09;
        kappa           0.41;
        E               9.8;
        value           nonuniform List<scalar> 
50
(
1.32766e-06
2.2345e-06
2.76498e-06
3.15021e-06
3.4523e-06
3.70404e-06
3.92364e-06
4.12183e-06
4.40002e-06
4.73325e-06
5.11953e-06
4.77334e-07
8.60501e-07
0
0
0
0
0
0
0
0
0
0
0
0
0
0
0
0
0
0
0
0
5.69906e-09
0
7.67036e-09
0
0
0
4.22985e-09
0
0
0
0
6.98733e-09
0
0
2.50004e-06
1.79312e-05
4.87251e-05
)
;
    }
    rightWall
    {
        type            nutkWallFunction;
        Cmu             0.09;
        kappa           0.41;
        E               9.8;
        value           nonuniform List<scalar> 
50
(
1.7226e-06
2.67292e-06
3.25949e-06
3.72074e-06
4.10938e-06
4.4653e-06
4.81885e-06
5.1231e-06
5.42847e-06
5.63754e-06
5.84311e-06
1.24601e-06
7.48034e-07
0
0
1.3515e-09
0
0
0
0
0
8.15832e-10
2.32968e-09
0
0
1.39791e-08
1.65957e-08
2.8117e-07
8.49642e-07
1.43345e-06
2.05311e-06
2.68676e-06
3.32821e-06
3.95908e-06
4.62963e-06
5.36971e-06
6.22916e-06
7.18624e-06
8.23655e-06
9.38396e-06
1.0645e-05
1.2044e-05
1.36057e-05
1.53559e-05
1.73984e-05
1.98543e-05
2.28958e-05
2.68484e-05
3.22944e-05
3.95446e-05
)
;
    }
    lowerWall
    {
        type            nutkWallFunction;
        Cmu             0.09;
        kappa           0.41;
        E               9.8;
        value           nonuniform List<scalar> 
62
(
2.64202e-07
8.58057e-07
1.18163e-06
1.3955e-06
1.55341e-06
1.67586e-06
1.77297e-06
1.85078e-06
1.91371e-06
1.96542e-06
2.00986e-06
2.04864e-06
2.0817e-06
2.10523e-06
2.11038e-06
2.08295e-06
2.01176e-06
1.91743e-06
1.78467e-06
1.63076e-06
1.45385e-06
1.13368e-06
5.61263e-07
5.61263e-07
3.07565e-06
3.73169e-06
4.2897e-06
4.82762e-06
5.42717e-06
6.22533e-06
7.46229e-06
7.84649e-06
7.33217e-06
7.32672e-06
7.78014e-06
8.07656e-07
3.87637e-06
4.3421e-06
4.62893e-06
4.98069e-06
5.47051e-06
6.32424e-06
7.9224e-06
8.07656e-07
1.49189e-06
1.86453e-06
2.00501e-06
2.06521e-06
2.09367e-06
2.08764e-06
2.06617e-06
2.01705e-06
1.951e-06
1.84571e-06
1.68604e-06
1.57267e-06
1.55779e-06
1.47673e-06
1.31622e-06
1.0562e-06
7.36642e-07
3.51965e-07
)
;
    }
    atmosphere
    {
        type            calculated;
        value           nonuniform List<scalar> 
46
(
0.009
0.000136996
0.000161245
0.00069694
0.00145828
0.00211926
0.00263556
0.00303694
0.00335749
0.00362484
0.00386044
0.00408112
0.00430033
0.0045288
0.00477481
0.00504505
0.00534695
0.00569273
0.00610428
0.00661954
0.00730739
0.009
0.009
0.009
0.009
0.009
0.009
0.009
0.009
0.009
0.009
0.009
0.009
0.009
0.009
0.009
0.009
0.009
0.009
0.009
0.009
0.009
0.009
0.009
0.009
0.000343329
)
;
    }
    defaultFaces
    {
        type            empty;
    }
}


// ************************************************************************* //
