/*--------------------------------*- C++ -*----------------------------------*\
  =========                 |
  \\      /  F ield         | OpenFOAM: The Open Source CFD Toolbox
   \\    /   O peration     | Website:  https://openfoam.org
    \\  /    A nd           | Version:  9
     \\/     M anipulation  |
\*---------------------------------------------------------------------------*/
FoamFile
{
    format      ascii;
    class       volScalarField;
    location    "7.68";
    object      alpha.water;
}
// * * * * * * * * * * * * * * * * * * * * * * * * * * * * * * * * * * * * * //

dimensions      [0 0 0 0 0 0 0];

internalField   nonuniform List<scalar> 
2268
(
1
1
0.999999
0.999999
1
1
0.999999
0.999999
0.999998
0.999998
1
1
1
1
1
1
1
0.999999
0.998562
0.997449
0.99807
0.999988
0.99973
0.999999
0.999999
0.999997
0.999998
1
1
0.999998
0.999998
0.999998
0.999999
1
1
1
1
1
0.999998
0.999997
0.999998
0.998667
0.997449
0.999682
0.999995
0.999992
0.999997
0.999997
0.999997
0.999999
1
1
0.999999
0.999999
1
1
1
1
1
1
0.999999
0.999978
0.999997
0.999997
0.999406
0.997674
0.999995
0.999995
0.999995
0.999999
0.999999
0.999999
1
1
1
1
1
1
1
1
1
1
1
1
0.999924
0.999654
0.999942
0.99998
0.999734
0.999968
0.999837
0.999988
1
1
1
1
1
1
1
1
1
1
1
1
1
1
1
0.999894
0.998394
0.999991
0.999991
0.999991
0.999974
0.997947
0.999983
1
1
1
1
1
1
1
1
1
1
1
1
1
1
1
1
0.996916
0.993048
0.999991
0.999991
0.996292
0.995979
0.999978
1
1
1
1
1
1
1
1
1
1
1
1
1
1
1
1
0.996478
0.983091
0.983807
0.987622
0.983603
0.996893
0.999978
1
1
1
1
1
1
1
1
1
1
1
1
1
1
1
1
0.999133
0.984381
0.98147
0.98147
0.9824
0.999375
0.999978
0.995956
0.999965
0.999115
0.998938
0.998955
0.996314
0.994192
0.994192
0.994463
0.993148
0.992197
0.992197
0.992197
0.998664
0.998672
0.998672
0.998672
0.998672
0.998516
0.992546
0.999889
0.999988
0.999988
0.999989
0.999989
0.999989
0.999915
0.999915
0.999869
0.996837
0.992347
0.992197
0.997661
0.998672
0.998672
0.998672
0.998668
0.998289
0.992222
0.998023
0.999988
0.999983
0.999988
0.999979
0.999973
0.999973
0.999859
0.999864
0.999645
0.998842
0.996727
0.997029
0.998672
0.998672
0.998609
0.995445
0.994888
0.992222
0.998776
0.999983
0.999983
0.999997
0.999948
0.999743
0.999782
0.999353
0.999024
0.999596
0.999634
0.999634
0.998716
0.997276
0.998672
0.997504
0.994889
0.994887
0.995207
0.999621
0.999998
0.999998
0.999998
0.999837
0.999666
0.999666
0.999477
0.998373
0.999594
0.999634
0.999634
0.999459
0.994106
0.996782
0.995664
0.997077
0.998232
0.999998
0.999998
0.999998
0.999992
0.999969
0.999927
0.999919
0.999994
0.999038
0.997702
0.999629
0.999634
0.999634
0.999634
0.993888
0.992741
0.987876
0.998426
0.998435
0.999998
0.999998
0.999996
0.999981
0.999982
0.999994
0.999994
0.999994
0.998166
0.988356
0.99795
0.999634
0.999634
0.98331
0.992419
0.997548
0.987876
0.99804
0.998435
0.999998
0.999997
0.999997
0.999997
0.999997
0.999994
0.999949
0.999866
0.996558
0.977051
0.978602
0.991603
0.991397
0.974206
0.991495
0.997558
0.989007
0.996213
0.998435
1
1
1
1
1
1
1
1
1
1
1
1
1
1
1
0.999997
0.999987
0.999138
0.993459
0.993456
0.99939
0.999944
0.999978
0.985075
0.984912
0.985413
0.985916
0.985904
0.986287
0.987588
0.98836
0.988044
0.987102
0.985737
0.984387
0.984462
0.985292
0.987164
0.989468
0.989936
0.990323
0.989772
0.988841
0.987303
0.984571
0.982624
0.347022
0.345483
0.343274
0.341596
0.341435
0.341281
0.340071
0.340954
0.342913
0.345451
0.348307
0.350942
0.353125
0.353894
0.354391
0.355889
0.360444
0.366757
0.371127
0.370614
0.36588
0.360355
0.355641
0.000736021
0.000737791
0.00103692
0.00146608
0.00147571
0.00160946
0.00217443
0.00180019
0.00147098
0.00124072
0.00111815
0.00103652
0.000338157
0.000337571
0.000336662
0.000335379
0.000333697
0.000332435
0.000331782
0.000331011
0.000330175
0.000329552
0.00032928
0.000694315
0.000639897
0.00103573
0.00146626
0.00137623
0.00147279
0.00253338
0.00274151
0.00274023
0.00290906
0.0029636
0.00296347
0.00293251
0.00267186
0.00240318
0.00220668
0.00187607
0.00138527
0.000763752
0.000779506
0.000816722
0.000816798
0.00059996
0.000405123
0.000412283
0.000383428
0.000170019
0.000205295
0.000255399
3.06947e-05
1.21353e-05
3.85378e-05
2.17671e-05
2.63728e-08
2.63728e-08
2.6374e-08
2.68343e-08
5.01254e-05
5.88083e-05
9.92386e-05
0.000257106
0.000402317
0.000407674
0.00047031
0.000338928
0.000396545
1.21041e-05
1.08083e-05
3.90674e-05
4.72154e-06
8.68355e-06
2.43189e-07
6.08914e-08
5.28736e-08
3.08719e-08
2.65087e-08
2.63728e-08
2.63736e-08
6.61156e-07
3.74638e-05
8.05535e-05
6.63364e-05
2.8869e-05
2.0461e-05
3.34061e-05
2.59773e-05
2.63579e-05
0.000146248
0.000182726
2.86215e-09
2.81804e-09
6.27727e-09
2.65515e-07
1.54018e-06
1.79856e-06
1.47085e-06
2.35387e-07
2.59012e-07
1.03403e-06
5.33833e-07
1.17183e-07
1.62233e-05
7.03013e-05
7.05745e-05
4.98831e-05
2.28993e-05
1.76723e-05
1.63651e-05
2.39945e-07
2.76975e-09
2.76567e-09
2.76568e-09
2.717e-09
2.71756e-09
2.80673e-09
4.07302e-09
1.37157e-07
2.01469e-06
2.01469e-06
1.4257e-06
3.99994e-07
2.81928e-06
2.16118e-06
4.68948e-07
5.64878e-06
5.66783e-06
2.70388e-06
7.15068e-06
1.95554e-05
1.15609e-05
1.31402e-08
1.31328e-08
1.31318e-08
7.86459e-09
2.76567e-09
2.717e-09
2.717e-09
9.25149e-09
3.23593e-09
8.9368e-10
9.36346e-07
1.78218e-06
2.8505e-07
1.15976e-06
2.81928e-06
2.81928e-06
1.02062e-06
6.66634e-10
6.6688e-10
6.67237e-10
7.43586e-10
3.49155e-07
1.51649e-06
1.63915e-07
1.31402e-08
1.43688e-08
2.58419e-08
7.29956e-09
3.42829e-09
6.58855e-08
1.00411e-07
8.88488e-09
4.90701e-10
1.54003e-08
1.31231e-07
7.39996e-08
1.01169e-06
2.81928e-06
2.06091e-06
1.79366e-09
6.66338e-10
6.6589e-10
1.04194e-07
4.02561e-07
5.16811e-07
3.67714e-08
1.88287e-08
2.11595e-08
3.39161e-08
3.39161e-08
1.55123e-08
5.39947e-09
1.07508e-07
1.07519e-07
2.43157e-08
4.89423e-10
4.84289e-10
5.0731e-10
3.47331e-08
1.35842e-06
2.52048e-06
1.69255e-07
6.66338e-10
6.66111e-10
6.38727e-10
1.03207e-07
4.21408e-06
5.95407e-06
4.44501e-06
1.02974e-08
1.02807e-08
1.68605e-08
2.49617e-08
5.91127e-09
3.39081e-09
8.74426e-08
1.07516e-07
2.02039e-08
4.8668e-10
4.84137e-10
2.49337e-07
1.57335e-06
1.63308e-06
7.73762e-07
6.8445e-10
6.84381e-10
6.65828e-10
3.90445e-10
2.34548e-07
4.78791e-06
5.95407e-06
5.95407e-06
4.43525e-06
4.84575e-09
5.57029e-09
6.58224e-09
5.4929e-09
1.41913e-09
1.13725e-08
5.68986e-08
6.93951e-09
4.83689e-10
4.83958e-10
9.26625e-07
1.67983e-06
1.63337e-06
4.5737e-10
7.77829e-10
8.25963e-10
6.83432e-10
2.18847e-10
1.32931e-09
4.5959e-07
4.31583e-06
5.95322e-06
2.62316e-06
4.84497e-09
6.95712e-09
1.41189e-08
9.89842e-09
9.30643e-10
4.57948e-10
6.43156e-10
4.8991e-10
4.76056e-10
2.48962e-09
7.5808e-07
1.65063e-06
6.37305e-07
2.9452e-10
8.17579e-10
9.67615e-10
6.38379e-10
1.04779e-10
6.33381e-11
2.88186e-09
1.38159e-07
4.58503e-07
1.16696e-07
4.87508e-09
1.54495e-08
1.8207e-08
1.0901e-08
2.13121e-10
2.13121e-10
2.13121e-10
2.44627e-10
1.13777e-09
1.57598e-08
1.27259e-07
1.8245e-07
2.25996e-10
2.94513e-10
8.24593e-10
8.76536e-10
3.29286e-10
7.07642e-11
6.33376e-11
6.30293e-11
5.90932e-11
5.9079e-11
5.90932e-11
4.84497e-09
1.64263e-08
1.72034e-08
2.91025e-09
7.84747e-08
1.14096e-07
4.40407e-10
2.98275e-10
3.2897e-09
1.3103e-08
6.9581e-11
1.35288e-11
1.50893e-11
2.16598e-10
5.01448e-10
4.03791e-10
9.19447e-11
4.47403e-11
6.23767e-11
6.74332e-11
6.49924e-11
5.90583e-11
9.77469e-11
7.38099e-10
1.71379e-09
1.65209e-09
1.20048e-09
2.75246e-07
2.36215e-07
3.71931e-10
4.79534e-10
3.04582e-09
4.0453e-09
2.60613e-11
1.2056e-11
1.20532e-11
7.0519e-11
1.14938e-10
5.70916e-11
1.03722e-11
2.10213e-11
4.61945e-11
5.91511e-11
6.20445e-11
5.74869e-11
4.49907e-11
2.71287e-11
7.82292e-12
1.87093e-11
1.45815e-10
2.7525e-07
1.63256e-07
1.05275e-10
4.55963e-10
1.62855e-09
2.94815e-10
1.54465e-11
1.47084e-11
5.33654e-12
6.03289e-12
5.58602e-12
1.28961e-12
2.43174e-13
3.84181e-12
1.65921e-11
2.73298e-11
2.98919e-11
2.65141e-11
1.78939e-11
9.85776e-12
5.13581e-12
2.68571e-12
1.66029e-12
2.75253e-07
4.86718e-08
4.3033e-11
2.92409e-10
4.18363e-10
1.437e-11
1.1726e-11
1.0501e-11
6.65747e-13
5.09423e-14
1.27642e-14
-3.62267e-13
-4.43008e-13
8.03109e-14
1.30611e-12
3.35877e-12
3.73664e-12
2.82688e-12
1.7522e-12
1.07042e-12
7.00247e-13
3.71136e-13
2.64362e-13
2.75693e-07
1.69168e-08
4.28821e-11
1.03899e-10
5.54762e-11
4.64251e-12
4.26633e-12
2.63212e-12
-2.26656e-13
-7.47556e-13
-9.21079e-13
-1.04719e-12
-9.387e-13
-5.83105e-13
-1.56077e-13
3.59242e-14
4.80228e-14
2.63205e-14
1.20581e-14
6.62812e-15
4.08729e-15
9.79038e-16
-1.1118e-16
2.76485e-07
1.49946e-07
4.27386e-11
3.17369e-11
2.62618e-11
4.03909e-12
3.84209e-13
7.68022e-14
-6.72265e-13
-1.09442e-12
-1.22289e-12
-1.20604e-12
-1.05098e-12
-7.97433e-13
-5.37949e-13
-3.40439e-13
-2.44071e-13
-1.9001e-13
-1.47963e-13
-1.10291e-13
-7.68107e-14
-5.00485e-14
-3.05824e-14
2.76485e-07
2.76485e-07
6.19408e-11
2.80989e-11
2.80007e-11
4.16495e-12
3.28617e-14
-1.47922e-13
-6.88255e-13
-9.88102e-13
-1.06813e-12
-1.01556e-12
-8.76124e-13
-6.93779e-13
-5.15653e-13
-3.69637e-13
-2.67126e-13
-1.93773e-13
-1.38098e-13
-9.59778e-14
-6.48837e-14
-4.23217e-14
-2.62593e-14
2.76485e-07
2.76485e-07
2.93573e-11
3.50372e-11
3.8543e-11
5.03312e-12
3.12269e-13
-1.22027e-15
-3.28119e-13
-5.66183e-13
-6.65903e-13
-6.58556e-13
-5.81839e-13
-4.7201e-13
-3.60101e-13
-2.63297e-13
-1.87658e-13
-1.30081e-13
-8.74651e-14
-5.74039e-14
-3.72464e-14
-2.38281e-14
-1.47803e-14
2.76485e-07
1.54923e-07
2.69187e-11
7.08371e-11
6.43567e-11
8.13195e-12
1.94477e-12
1.35785e-12
6.30773e-13
7.57377e-14
-1.56421e-13
-2.67605e-13
-2.93021e-13
-2.60541e-13
-2.06109e-13
-1.52183e-13
-1.07508e-13
-7.2243e-14
-4.63772e-14
-2.87454e-14
-1.75905e-14
-1.07555e-14
-6.56272e-15
1.53034e-07
3.95848e-09
5.0156e-11
1.60658e-10
1.04359e-10
1.53198e-11
6.80784e-12
5.8507e-12
4.22308e-12
2.42331e-12
9.77294e-13
1.9619e-13
-6.03357e-14
-1.09668e-13
-9.99834e-14
-7.57842e-14
-5.38807e-14
-3.55094e-14
-2.1916e-14
-1.2829e-14
-7.31387e-15
-4.1607e-15
-2.41578e-15
1.10993e-09
8.41041e-11
1.36498e-10
2.2216e-10
1.34216e-10
2.71758e-11
1.64755e-11
1.4964e-11
1.17739e-11
7.68038e-12
3.90748e-12
1.40012e-12
2.52367e-13
-1.98596e-14
-4.1301e-14
-3.34505e-14
-2.43663e-14
-1.59044e-14
-9.50237e-15
-5.28176e-15
-2.80384e-15
-1.46637e-15
-7.79657e-16
7.64452e-11
8.4072e-11
2.00185e-10
2.27009e-10
1.35116e-10
4.13927e-11
3.06705e-11
2.81911e-11
2.26521e-11
1.58174e-11
8.55662e-12
3.23825e-12
6.98149e-13
3.35834e-14
-1.35741e-14
-1.33772e-14
-1.01615e-14
-6.61306e-15
-3.83607e-15
-2.03112e-15
-1.01002e-15
-4.90912e-16
-2.42386e-16
7.64452e-11
8.15662e-11
1.91901e-10
2.07195e-10
1.18939e-10
5.15744e-11
4.53252e-11
4.27823e-11
3.4794e-11
2.51391e-11
1.40413e-11
5.16164e-12
9.28959e-13
4.9197e-14
-2.32883e-15
-4.91901e-15
-3.97511e-15
-2.58541e-15
-1.45605e-15
-7.34676e-16
-3.46265e-16
-1.61604e-16
-7.67613e-17
7.7348e-11
6.6576e-11
1.23763e-10
1.13761e-10
7.49818e-11
5.30715e-11
5.26088e-11
5.3018e-11
4.5383e-11
3.32805e-11
1.87547e-11
6.37102e-12
9.45503e-13
4.10944e-14
0
-1.70532e-15
-1.48259e-15
-9.59864e-16
-5.22525e-16
-2.51738e-16
-1.13036e-16
-5.03762e-17
-2.30484e-17
1.18317e-10
5.08206e-11
5.08437e-11
5.08072e-11
5.08071e-11
5.24796e-11
5.31846e-11
5.47419e-11
5.05206e-11
3.786e-11
2.09703e-11
6.57806e-12
8.41549e-13
2.25703e-14
2.25388e-17
-5.84251e-16
-5.35445e-16
-3.41846e-16
-1.78779e-16
-8.19155e-17
-3.48589e-17
-1.48409e-17
-6.54593e-18
4.47138e-10
5.08075e-11
5.08072e-11
5.08072e-11
5.08072e-11
5.08071e-11
5.17564e-11
5.47419e-11
5.10968e-11
3.86376e-11
2.10569e-11
6.23895e-12
5.90566e-13
8.18086e-15
8.07904e-18
-2.02024e-16
-1.89688e-16
-1.17773e-16
-5.85839e-17
-2.52916e-17
-1.00758e-17
-4.0674e-18
-1.69675e-18
5.46503e-10
9.92123e-09
8.30785e-08
3.37641e-07
8.60671e-09
5.0809e-11
5.08148e-11
5.42073e-11
5.06196e-11
3.80946e-11
1.99741e-11
5.02207e-12
3.13695e-13
2.24438e-15
1.21398e-18
-7.15728e-17
-6.64709e-17
-3.94166e-17
-1.83799e-17
-7.34727e-18
-2.68377e-18
-1.01134e-18
-3.92213e-19
5.46437e-10
1.12457e-07
7.74339e-07
8.26863e-07
3.96444e-07
6.78148e-09
5.08006e-11
5.21975e-11
4.86087e-11
3.54835e-11
1.66887e-11
3.1939e-12
1.22844e-13
4.59763e-16
8.24097e-20
-2.61858e-17
-2.31006e-17
-1.27977e-17
-5.48811e-18
-1.98418e-18
-6.50107e-19
-2.24286e-19
-7.93716e-20
5.46553e-10
1.63952e-07
8.26863e-07
8.26863e-07
6.78462e-07
1.44281e-08
4.83128e-11
4.92444e-11
4.46349e-11
3.0088e-11
1.1712e-11
1.53443e-12
3.28069e-14
5.73421e-17
8.87286e-22
-9.95348e-18
-7.94191e-18
-4.00968e-18
-1.54624e-18
-4.92144e-19
-1.40616e-19
-4.33655e-20
-1.3738e-20
5.46729e-10
7.13789e-08
7.67096e-07
8.26863e-07
3.76246e-07
3.85538e-09
4.65073e-11
4.65058e-11
3.86923e-11
2.25189e-11
6.58768e-12
5.14973e-13
5.17221e-15
3.69866e-18
-1.4119e-18
-3.89124e-18
-2.68606e-18
-1.20626e-18
-4.08136e-19
-1.11011e-19
-2.67123e-20
-7.14888e-21
-1.98041e-21
1.46282e-09
7.10679e-09
1.17062e-07
2.65526e-07
2.6174e-08
2.74759e-10
5.45258e-11
4.41088e-11
3.03898e-11
1.4053e-11
2.70296e-12
1.04371e-13
3.98958e-16
1.03672e-19
-1.09002e-18
-1.51386e-18
-8.90896e-19
-3.48301e-19
-1.00809e-19
-2.26969e-20
-4.41376e-21
-9.84198e-22
-2.30825e-22
2.3157e-09
1.36933e-09
8.31976e-10
2.23974e-10
1.23746e-10
1.23436e-10
7.41152e-11
4.04787e-11
2.06061e-11
6.58475e-12
6.80437e-13
1.02695e-14
1.238e-17
7.29622e-22
-5.88597e-19
-5.82314e-19
-2.90614e-19
-9.71003e-20
-2.34628e-20
-4.23328e-21
-6.32662e-22
-1.10955e-22
-2.10071e-23
1.94169e-09
1.65965e-09
8.27618e-10
3.21146e-10
1.93935e-10
1.43065e-10
7.52939e-11
3.20268e-11
1.08968e-11
1.92883e-12
8.1209e-14
3.77107e-16
1.33889e-19
-7.62049e-20
-2.91492e-19
-2.22578e-19
-9.39596e-20
-2.64872e-20
-5.24382e-21
-7.38041e-22
-8.0382e-23
-1.01751e-23
-1.43516e-24
2.85586e-10
1.10032e-09
9.87056e-10
6.64993e-10
3.78911e-10
1.82218e-10
6.92199e-11
1.99564e-11
3.73548e-12
2.67212e-13
3.3551e-15
4.17028e-18
3.61963e-22
-8.50394e-20
-1.38126e-19
-8.48359e-20
-3.04067e-20
-7.20319e-21
-1.15801e-21
-1.25085e-22
-9.47448e-24
-7.6624e-25
-6.96763e-26
-1.5769e-26
2.41443e-10
7.4407e-10
6.58363e-10
4.20815e-10
1.8499e-10
5.56942e-11
9.32181e-12
6.67931e-13
1.26516e-14
3.64444e-17
1.33757e-20
-1.16697e-20
-5.90675e-20
-6.32699e-20
-3.23235e-20
-9.94583e-21
-1.99353e-21
-2.61322e-22
-2.15856e-23
-1.0962e-24
-4.8429e-26
-2.17827e-27
-4.39326e-27
9.77997e-12
2.23437e-10
3.54591e-10
2.73325e-10
1.25752e-10
2.72628e-11
2.05723e-12
3.74487e-14
1.2679e-16
8.25476e-20
1.76683e-23
-1.59655e-20
-3.45398e-20
-2.82226e-20
-1.23442e-20
-3.31906e-21
-5.7425e-22
-6.30188e-23
-4.11009e-24
-1.42964e-25
-2.70415e-27
-3.14228e-29
0.999944
0.999925
0.999942
0.999962
0.984565
0.984742
0.984657
0.984133
0.356588
0.355884
0.3547
0.352854
0.00032919
0.00032928
0.000329096
0.000328958
0.000473947
0.000365671
0.000517345
0.000517361
0.000474584
0.000457101
0.000214387
0.000511248
0.000133129
0.000115759
0.000169094
0.000154506
2.76567e-09
2.76568e-09
2.76639e-09
2.77335e-09
2.76568e-09
3.41298e-09
4.66178e-09
1.35773e-08
2.76842e-09
7.40056e-09
2.20149e-06
8.94803e-06
2.90409e-09
2.34948e-07
1.43013e-05
2.10167e-05
2.94684e-09
3.06039e-09
4.9529e-06
1.92448e-05
2.97593e-09
4.7147e-09
3.52846e-09
3.4255e-09
3.35465e-09
9.70656e-09
1.00772e-08
3.41029e-09
5.83172e-09
3.46589e-08
3.9083e-08
3.90833e-08
1.50098e-09
2.85274e-09
1.34493e-08
2.54907e-08
1.50203e-09
5.764e-10
3.86417e-13
3.71444e-13
1.86287e-10
3.03351e-11
3.86022e-13
3.11932e-13
6.15098e-13
3.75908e-13
4.74587e-13
3.24482e-13
2.5433e-13
2.58973e-13
2.35239e-13
1.61188e-13
2.26329e-15
5.57019e-15
4.81408e-15
3.39515e-15
-1.73677e-14
-1.3677e-14
-1.082e-14
-8.57903e-15
-1.54401e-14
-1.229e-14
-9.90073e-15
-8.041e-15
-8.66522e-15
-6.66583e-15
-5.2057e-15
-4.14802e-15
-3.89312e-15
-2.90136e-15
-2.15581e-15
-1.62033e-15
-1.48009e-15
-1.08916e-15
-7.90103e-16
-5.56761e-16
-5.06532e-16
-3.62266e-16
-2.60445e-16
-1.80605e-16
-1.63746e-16
-1.13157e-16
-7.82948e-17
-5.33098e-17
-5.10311e-17
-3.41283e-17
-2.26644e-17
-1.48846e-17
-1.49364e-17
-9.69003e-18
-6.21134e-18
-3.92275e-18
-4.10048e-18
-2.55895e-18
-1.57437e-18
-9.52099e-19
-1.01657e-18
-6.04932e-19
-3.54491e-19
-2.03969e-19
-2.22505e-19
-1.25028e-19
-6.90751e-20
-3.74246e-20
-4.20909e-20
-2.20541e-20
-1.13392e-20
-5.70782e-21
-6.70533e-21
-3.22536e-21
-1.51862e-21
-6.98469e-22
-8.72135e-22
-3.77454e-22
-1.5941e-22
-6.55769e-23
-8.92121e-23
-3.37954e-23
-1.24477e-23
-4.45038e-24
-6.83604e-24
-2.17646e-24
-6.71238e-25
-2.00192e-25
-3.66209e-25
-9.16102e-26
-2.21603e-26
-5.1715e-27
-1.21445e-26
-2.10151e-27
-3.53906e-28
-5.77388e-29
-1.91033e-28
-1.70727e-29
-1.52807e-30
-1.3609e-31
-5.63423e-31
-9.79319e-33
-1.75315e-34
-3.37174e-36
0.999998
0.999997
0.999997
0.999997
0.998702
0.995021
0.994246
0.996617
0.996617
0.991435
0.973462
0.97346
0.973462
0.985695
0.997558
0.997558
0.991475
0.992618
0.998041
0.981895
0.981759
0.979572
0.976671
0.973442
0.970058
0.965493
0.963097
0.97321
0.986125
0.986092
0.986038
0.985989
0.985934
0.980739
0.974216
0.975166
0.968947
0.962986
0.348632
0.346522
0.346471
0.348178
0.351077
0.354802
0.357716
0.357391
0.351782
0.350292
0.356825
0.357095
0.354164
0.346907
0.338922
0.338992
0.341536
0.345144
0.350333
0.000328915
0.000328958
0.000328917
0.000329375
0.000330038
0.000330507
0.000330915
0.000331205
0.000331348
0.000355958
0.000449424
0.000507321
0.000315122
0.000537429
0.000890868
0.000900835
0.000917018
0.000873947
0.000915759
0.000474413
0.000460805
0.00107245
0.00115901
0.00115896
0.00112063
0.00112514
0.00112606
0.00112612
0.00112617
0.00112612
0.000761626
0.000314296
0.000733573
0.000890461
0.000879164
0.000883292
0.000851204
0.000729505
0.0005112
0.000443335
0.000412903
0.000396112
0.00039614
0.000325568
0.00029362
0.000281538
0.000270363
0.000188689
1.19792e-05
3.2412e-05
0.000181348
0.000233307
0.000276912
0.000331422
0.00034066
0.00038095
0.000366023
0.000136935
0.000130255
5.16937e-05
1.23101e-05
2.74287e-08
2.74209e-08
3.486e-08
7.59005e-08
1.31406e-07
1.64606e-07
1.92437e-06
7.98161e-06
2.14712e-05
4.50265e-06
5.22876e-07
5.20204e-07
5.20609e-07
5.34618e-07
1.10214e-05
2.81043e-09
2.94152e-09
3.04319e-09
3.04176e-09
3.14895e-08
8.35629e-06
3.44789e-05
3.65802e-05
2.59554e-05
3.34324e-05
5.11401e-05
5.20936e-05
3.58944e-05
1.40714e-06
5.19912e-07
5.1915e-07
5.19157e-07
5.19164e-07
5.19185e-07
8.17155e-08
4.23391e-08
3.87204e-09
4.16581e-09
2.15644e-06
4.12728e-05
5.19431e-05
5.19819e-05
5.20152e-05
5.20701e-05
5.20825e-05
5.20936e-05
3.24118e-05
3.12602e-06
5.19137e-07
5.19139e-07
5.1915e-07
5.19156e-07
5.19163e-07
1.32599e-05
1.12056e-05
1.11398e-06
1.06283e-08
5.99119e-06
3.90151e-05
3.48199e-05
4.69013e-06
6.95693e-07
7.1573e-07
1.96813e-05
3.15718e-05
3.03044e-05
1.81245e-05
4.15398e-06
5.1915e-07
5.19152e-07
5.19158e-07
5.19161e-07
2.10167e-05
2.10167e-05
1.62952e-05
2.64622e-06
2.86942e-06
2.45374e-06
4.07629e-09
5.21569e-09
8.66445e-07
2.2982e-07
1.8002e-07
1.75454e-06
2.17126e-05
2.17094e-05
7.48695e-06
5.19152e-07
5.19155e-07
5.19798e-07
5.19798e-07
2.10167e-05
2.101e-05
2.09987e-05
1.39928e-05
1.9042e-09
1.90417e-09
1.00419e-08
8.33294e-07
1.35737e-06
7.9771e-07
1.73723e-07
3.70089e-06
1.24634e-05
1.60953e-05
6.90207e-07
6.88108e-07
5.19157e-07
5.19159e-07
5.1919e-07
4.4205e-06
1.42613e-05
1.16204e-05
4.11188e-07
1.90417e-09
1.90524e-09
4.32414e-08
1.63747e-07
1.85188e-07
2.37889e-10
2.37843e-10
2.38277e-10
3.87967e-08
7.93928e-06
1.14713e-05
8.36328e-06
5.19159e-07
5.19162e-07
5.19164e-07
2.11247e-09
2.09008e-09
2.07427e-09
2.07476e-09
2.73663e-09
7.59812e-09
6.81289e-09
2.37872e-10
2.3792e-10
2.37843e-10
2.3792e-10
2.4479e-10
1.07969e-06
9.68661e-06
1.14722e-05
1.14722e-05
1.1088e-05
9.0891e-07
5.19167e-07
3.44511e-08
1.84768e-08
2.01121e-08
2.07262e-09
1.81771e-09
1.75496e-09
1.76922e-09
6.26481e-10
2.37872e-10
3.78009e-10
8.26628e-10
8.51828e-10
4.47272e-10
1.95688e-07
3.03336e-06
3.38422e-06
1.74119e-06
1.75359e-06
2.20269e-06
9.16952e-08
2.30211e-07
2.41572e-07
1.11961e-07
1.65855e-08
2.21494e-10
2.21461e-10
2.62613e-10
6.4348e-10
7.62819e-10
9.7328e-10
1.03819e-09
4.46824e-10
2.79519e-11
2.7946e-11
3.18522e-11
5.84244e-07
8.28944e-06
1.28904e-05
4.39035e-08
2.45542e-07
2.45542e-07
2.45542e-07
1.99467e-07
2.21462e-10
4.35783e-10
1.54727e-08
3.21329e-08
1.16761e-08
5.5194e-11
5.51795e-11
4.95041e-11
4.68991e-11
3.54565e-11
6.5486e-11
5.96924e-06
1.31763e-05
1.31768e-05
3.89632e-14
3.27149e-08
2.08272e-07
2.45524e-07
2.45351e-07
5.03315e-08
4.56241e-10
4.73513e-08
6.77205e-08
6.10508e-08
4.46374e-09
4.69999e-11
7.91528e-11
8.61495e-11
4.30856e-11
5.38481e-11
4.17515e-06
1.26254e-05
1.1295e-05
3.88926e-14
1.23545e-15
-6.61744e-27
5.69148e-08
6.43478e-08
6.95429e-09
5.58858e-09
5.61349e-08
6.77209e-08
6.7716e-08
3.16943e-08
4.693e-11
4.6915e-11
6.71858e-11
2.99641e-11
1.70555e-09
2.75395e-07
3.84773e-07
1.11398e-12
7.2931e-14
2.44457e-15
-3.92546e-17
0
4.92238e-19
2.19245e-16
6.21595e-10
1.55519e-08
4.20136e-08
3.77431e-08
5.26237e-09
2.0527e-10
4.53721e-11
2.89645e-11
9.93258e-12
2.91247e-12
1.11177e-12
1.11177e-12
1.11177e-12
9.40368e-16
-2.56289e-16
-3.61628e-16
-1.43689e-16
4.20526e-16
4.20978e-16
4.29248e-16
4.52383e-16
4.92947e-16
5.65774e-16
6.7116e-16
1.43942e-11
8.89691e-11
1.11592e-11
2.99164e-12
1.53264e-12
1.11177e-12
1.11177e-12
1.11177e-12
-6.80749e-15
-3.56121e-15
-1.7799e-15
-3.92205e-16
1.83644e-15
1.80826e-14
4.03442e-14
7.05263e-14
1.28663e-13
1.65161e-13
2.0211e-13
6.35774e-13
1.32976e-12
1.09559e-12
6.93251e-13
9.90049e-13
1.17475e-12
1.11295e-12
1.11241e-12
-6.49597e-15
-3.80386e-15
-2.17742e-15
-1.18173e-15
-5.34544e-16
0
1.08194e-15
3.3578e-14
1.54868e-13
2.22615e-13
2.54528e-13
6.30817e-13
9.04739e-13
3.15287e-13
1.51844e-13
6.67498e-13
1.60085e-12
1.113e-12
3.43079e-08
-3.32517e-15
-2.00155e-15
-1.19142e-15
-7.00409e-16
-4.02589e-16
-2.20504e-16
-1.00984e-16
0
9.71097e-16
9.49298e-15
1.91426e-14
4.12881e-14
1.42241e-13
5.24333e-14
4.39226e-14
5.66793e-13
2.19819e-12
1.11313e-12
1.54806e-06
-1.23799e-15
-7.30115e-16
-4.29286e-16
-2.51322e-16
-1.46355e-16
-8.60421e-17
-4.97004e-17
-2.56847e-17
-3.97433e-18
2.2869e-17
1.47154e-16
4.65052e-16
1.24665e-15
3.5224e-15
1.7847e-14
5.52598e-13
2.59277e-12
1.11427e-12
2.27263e-06
-3.753e-16
-2.13435e-16
-1.20623e-16
-6.8484e-17
-3.93971e-17
-2.28715e-17
-1.31374e-17
-7.08592e-18
-2.73229e-18
1.36375e-18
1.59198e-17
7.9616e-17
4.04561e-16
2.00802e-15
1.49101e-14
5.67395e-13
2.7135e-12
1.11477e-12
2.27265e-06
-1.00074e-16
-5.36642e-17
-2.92738e-17
-1.62285e-17
-9.05288e-18
-4.97778e-18
-2.53206e-18
-1.0799e-18
1.01981e-24
1.98672e-18
1.31153e-17
6.65298e-17
3.49143e-16
1.80025e-15
1.4449e-14
5.68193e-13
2.7219e-12
1.11507e-12
2.27252e-06
-2.57241e-17
-1.25413e-17
-6.28744e-18
-3.22232e-18
-1.63583e-18
-7.01446e-19
5.15452e-21
6.88984e-19
3.95361e-18
1.47562e-17
3.70122e-17
9.25654e-17
3.64495e-16
1.84003e-15
1.77464e-14
5.50605e-13
2.72376e-12
1.11554e-12
1.45685e-06
-6.44453e-18
-2.79284e-18
-1.23951e-18
-5.53684e-19
-1.58461e-19
2.39656e-19
2.64714e-18
1.5502e-17
6.06375e-17
1.76406e-16
3.79243e-16
6.98675e-16
1.73067e-15
7.5648e-15
6.08324e-14
5.81301e-13
2.9602e-12
1.15275e-12
1.15275e-12
-1.5681e-18
-6.13977e-19
-2.40495e-19
-7.96398e-20
1.77326e-19
3.33387e-18
2.21943e-17
1.08451e-16
4.12195e-16
1.23596e-15
2.93551e-15
7.32532e-15
2.40005e-14
9.8381e-14
3.71858e-13
1.24626e-12
3.82297e-12
1.15275e-12
2.50745e-08
-3.54078e-19
-1.27261e-19
-4.41578e-20
5.79179e-21
9.14703e-19
1.25579e-17
1.03835e-16
5.4246e-16
2.24493e-15
8.16296e-15
3.10025e-14
1.35149e-13
4.63372e-13
1.25858e-12
2.35864e-12
3.98678e-12
5.51719e-12
1.15283e-12
1.5896e-06
-7.02815e-20
-2.32542e-20
-6.66768e-21
5.13405e-20
1.81073e-18
3.46056e-17
3.95433e-16
2.51701e-15
1.38807e-14
7.50914e-14
4.49317e-13
2.09566e-12
5.76859e-12
1.04369e-11
1.16381e-11
1.27093e-11
1.11576e-11
1.15665e-12
2.41657e-06
-1.17991e-20
-3.55481e-21
-3.82804e-22
6.13833e-20
2.83073e-18
7.04529e-17
1.1364e-15
1.10209e-14
8.9603e-14
6.0842e-13
3.54061e-12
1.34957e-11
2.99498e-11
4.16724e-11
3.84527e-11
3.44528e-11
3.28683e-11
1.159e-12
2.41661e-06
-1.61897e-21
-4.34819e-22
3.52058e-22
6.35174e-20
3.48217e-18
1.04533e-16
2.29921e-15
3.67268e-14
3.71038e-13
2.51865e-12
1.21704e-11
3.83977e-11
7.1811e-11
8.47447e-11
8.16277e-11
7.40215e-11
8.89046e-11
1.16406e-12
2.39481e-06
-1.74667e-22
-4.01322e-23
2.65115e-22
5.11785e-20
3.65035e-18
1.1992e-16
3.29133e-15
7.83582e-14
8.39786e-13
5.33304e-12
2.18319e-11
6.0671e-11
1.00994e-10
1.07048e-10
1.19013e-10
1.53348e-10
2.1126e-10
1.18339e-12
2.39465e-06
-1.41062e-23
-2.39304e-24
1.09658e-22
2.51381e-20
2.98875e-18
1.18645e-16
3.64611e-15
1.10159e-13
1.17748e-12
7.03869e-12
2.58937e-11
6.79121e-11
1.07036e-10
1.07047e-10
1.33256e-10
6.62479e-10
7.2567e-10
1.23713e-12
2.28438e-06
-7.97895e-25
-1.41019e-26
4.18704e-23
9.82798e-21
1.37284e-18
6.97426e-17
3.25609e-15
1.1888e-13
1.25724e-12
7.26181e-12
2.5023e-11
5.55218e-11
9.07752e-11
6.12913e-11
1.09569e-10
3.42672e-09
3.40615e-09
1.43819e-12
7.82825e-07
-2.86502e-26
3.10957e-26
1.09163e-23
3.19887e-21
4.62999e-19
2.26333e-17
1.40065e-15
8.96664e-14
9.03058e-13
4.58075e-12
1.27094e-11
2.08216e-11
3.97992e-11
1.30992e-11
6.0764e-11
6.78541e-09
6.99395e-09
2.44342e-12
6.38163e-07
-5.53461e-28
5.23878e-27
1.69775e-24
6.96012e-22
1.18254e-19
5.40878e-18
3.14959e-16
2.8453e-14
2.70018e-13
1.22538e-12
2.92974e-12
4.50086e-12
7.90855e-12
2.46769e-15
9.16292e-11
7.00885e-09
7.07232e-09
1.06843e-09
9.66778e-07
-4.10022e-30
4.30492e-28
1.38687e-25
8.47596e-23
1.74548e-20
8.66905e-19
4.4247e-17
4.44776e-15
4.00113e-14
1.68096e-13
3.67703e-13
5.60485e-13
8.83096e-13
2.46872e-16
1.06432e-10
2.1627e-09
4.29396e-09
8.09378e-14
9.66689e-07
-5.26259e-33
2.58017e-32
2.4896e-27
4.85384e-24
1.06e-21
6.03717e-20
3.2202e-18
3.15688e-16
2.67988e-15
1.04593e-14
2.1616e-14
3.28807e-14
4.47528e-14
2.44217e-16
1.81315e-11
6.78887e-11
2.55508e-10
2.62035e-25
9.56179e-07
-3.01121e-38
-2.85047e-40
4.96237e-35
9.84824e-30
2.51188e-26
8.45344e-24
2.08701e-21
2.14509e-19
1.37155e-18
5.04669e-18
1.03729e-17
1.50163e-17
6.577e-18
1.00821e-19
4.92195e-14
-7.88861e-34
-2.88587e-49
4.70198e-41
8.61555e-07
)
;

boundaryField
{
    leftWall
    {
        type            zeroGradient;
    }
    rightWall
    {
        type            zeroGradient;
    }
    lowerWall
    {
        type            zeroGradient;
    }
    atmosphere
    {
        type            inletOutlet;
        inletValue      uniform 0;
        value           nonuniform List<scalar> 
46
(
0
9.77997e-12
2.23437e-10
3.54591e-10
2.73325e-10
1.25752e-10
2.72628e-11
2.05723e-12
3.74487e-14
1.2679e-16
8.25476e-20
1.76683e-23
-1.59655e-20
-3.45398e-20
-2.82226e-20
-1.23442e-20
-3.31906e-21
-5.7425e-22
-6.30188e-23
-4.11009e-24
-1.42964e-25
0
0
0
0
0
0
0
0
0
0
0
0
0
0
0
0
0
0
0
0
0
0
0
0
8.61555e-07
)
;
    }
    defaultFaces
    {
        type            empty;
    }
}


// ************************************************************************* //
