/*--------------------------------*- C++ -*----------------------------------*\
  =========                 |
  \\      /  F ield         | OpenFOAM: The Open Source CFD Toolbox
   \\    /   O peration     | Website:  https://openfoam.org
    \\  /    A nd           | Version:  9
     \\/     M anipulation  |
\*---------------------------------------------------------------------------*/
FoamFile
{
    format      ascii;
    class       surfaceScalarField;
    location    "13.25";
    object      phi;
}
// * * * * * * * * * * * * * * * * * * * * * * * * * * * * * * * * * * * * * //

dimensions      [0 3 -1 0 0 0 0];

internalField   nonuniform List<scalar> 
1300
(
11.2529
1.87548
-4.37248
11.2529
-4.87488
1.87548
-4.18828
4.18828
-1.20699
1.20699
5.71233
5.54053
-2.39827
2.39827
-2.88204
2.88204
-2.86529
2.86529
-1.06194
1.06194
-1.02829
1.02829
0.698206
-0.698206
-3.34003
3.34003
-1.46917
1.46917
-2.90493
2.90493
6.12821
-6.12821
-3.35846
3.35846
-0.756037
0.756037
-4.26325
15.5161
6.98961
6.98961
-2.37944
2.37944
-1.25474
1.25474
1.41034
-1.41034
9.41622
-9.41622
-5.04374
-6.06238
1.86447
-13.7109
-3.01041
-3.01041
-2.7054
2.7054
-0.829928
1.04555
3.47549
-3.47549
-0.771827
0.771827
-4.26413
0.0758459
-4.26413
3.98406
0.204226
3.98406
-1.34872
0.141726
-1.34872
4.61376
-4.61376
1.09551
0.111484
1.09551
3.9277
-3.9277
-5.71003
11.4224
5.54283
-5.32061
20.8367
-5.93225
11.4728
-3.9172
3.9172
-2.30885
-0.089422
-2.30885
2.41049
-0.0122168
2.41049
-3.95917
3.95917
-2.66267
-0.219364
-2.66267
2.99513
-0.113091
2.99513
3.66114
-3.66114
-2.92006
0.054767
-2.92006
2.71439
0.150901
2.71439
0.771042
1.10443
-2.64652
3.69207
-1.10443
0.0424987
1.02614
0.0357986
1.02614
-1.01454
-0.0137467
-1.01454
1.04993
-0.0216437
1.04993
0.738729
-0.0405229
0.738729
-0.757232
0.0590257
-0.757232
-8.52377
-8.90999
-3.46943
0.129403
-3.46943
-1.48484
0.0156685
-1.48484
1.50796
-0.038783
1.50796
-2.56447
2.56447
-3.2335
0.32857
-3.2335
4.80659
1.32163
4.80659
5.04614
6.20672
16.299
-16.299
10.1708
-3.06817
-0.290288
-3.06817
-3.54352
-5.8727
3.54352
-0.185062
-0.820297
0.0642596
-0.820297
5.62646
1.36315
5.62646
2.59358
0.120805
-2.59358
0.214142
4.60664
-4.60664
1.42849
0.950951
1.42849
-1.19128
1.19128
1.12367
-0.0737341
-1.12367
-0.131075
1.38601
0.0243353
1.38601
-1.40975
-0.000595288
-1.40975
7.44603
-13.5084
-7.90015
3.15161
0.188418
-3.15161
0.141206
3.56158
-0.0860913
3.56158
-3.31099
3.31099
-3.61001
0.134526
-3.61001
-0.694778
-0.0770491
-0.694778
0.85893
-0.0871032
0.85893
-4.50636
0.242236
-4.50636
-3.66137
0.427872
3.66137
0.322685
1.2767
-1.2767
-1.45506
0.106335
-1.45505
-4.59106
0.0846917
4.59106
0.0227048
-4.71434
0.100576
-4.71434
-3.71187
0.101857
3.71187
0.215823
4.5891
1.03736
-4.5891
0.661401
-5.36951
11.5762
-5.88335
11.4262
-3.54731
-0.369893
-3.54731
4.09532
-0.178117
4.09532
2.57894
0.325991
-2.57894
0.270087
2.54587
-0.135376
2.54587
-3.91675
-0.0424158
-3.91675
3.75726
0.201906
3.75726
2.59384
-0.0479722
-2.59384
-0.0688332
2.98149
0.0136408
2.98149
3.66544
-0.00430438
3.66544
-3.53571
-0.125427
-3.53571
3.18137
-3.18137
3.08376
0.0976183
-3.08376
0.163699
-5.07402
5.07343
-0.00799929
-5.06602
1.01814
1.01814
0.782182
-0.0434532
0.782182
-0.862154
0.104922
-0.862154
8.36676
-16.2669
8.80607
-17.3298
7.4091
-21.12
7.96298
-16.873
3.76052
-3.76052
3.68827
0.0722485
-3.68827
0.218832
-1.46435
-0.0204921
-1.46435
-2.32619
-0.238276
-2.32619
2.89884
-0.334366
2.89884
-3.74276
3.74276
-4.12518
0.38242
4.12519
0.681403
3.04907
-0.0675802
-3.04907
-0.0191
0.941952
0.153557
-0.941952
0.121656
4.83584
-0.229206
4.83584
-4.07131
-0.535326
-4.07131
-1.48131
0.0169599
1.48131
-0.0528178
-1.25885
0.0675781
-1.25885
-5.0745
0.0084775
-5.0387
-1.40127
-1.40127
1.30414
4.9962
-3.58281
0.0470983
3.58281
-0.0212285
3.528
0.214762
-3.528
0.21701
-3.26511
0.08374
3.26511
0.0458787
-0.67176
-0.0230176
-0.67176
-1.05509
1.05509
-0.935965
-0.119124
0.935965
-0.0770351
1.43437
-0.157675
1.43437
1.48754
0.0204153
-1.48754
0.0324855
-4.96081
0.246469
-4.96081
4.09564
-0.000328084
4.09564
-3.93922
-0.132089
3.93922
-0.27378
-0.00372199
5.07715
-1.01442
-0.000124863
1.01442
-5.10149
5.10136
-0.677001
0.0052412
0.677001
0.105181
1.02938
0.161897
-1.02938
0.167226
3.7903
-0.0330415
-3.7903
0.0297865
-2.04201
-0.284178
-2.04201
-3.22225
-0.325052
3.22225
-0.323418
-5.11511
-0.0780073
5.19312
-5.13676
1.33686
0.0491431
-1.33686
5.1505
-1.16719
-0.109511
1.16719
-0.112096
1.63666
-0.202294
1.63666
5.08129
-0.245448
-5.08129
0.120484
-4.09798
0.181232
4.09798
-0.00233874
-1.80927
-0.232741
1.80927
-0.172609
-13.1279
14.4911
7.70878
-6.41912
-7.08928
-12.2918
4.44724
7.12899
14.618
-11.5459
-9.57418
-11.4046
2.86055
-2.69332
-3.76234
3.72182
23.3984
-23.2978
-18.3999
19.0813
20.776
-20.5602
5.70862
5.71374
15.8606
-15.9501
-21.0012
20.6313
15.6141
-15.8334
21.9093
-21.9517
-25.5396
25.5066
-16.1124
16.1672
-20.2794
20.154
-21.0298
20.756
-8.27686
-9.05299
16.2026
-16.0732
20.459
-20.7493
-19.228
19.5565
10.0473
4.44381
11.0846
-6.24684
11.9555
-5.22594
12.9347
8.38883
-16.6657
7.87808
-14.9674
9.34273
11.1163
-9.15767
-3.13415
-17.9653
17.8792
-17.2619
17.3078
23.8337
-23.7578
-6.17272
11.8865
-5.25345
12.3824
-11.4091
-6.99075
10.0875
4.53055
8.78673
7.41588
-8.97515
-2.4295
-24.7054
24.46
-25.6063
25.071
0.0964304
2.42804
-2.52447
1.35117
-0.858065
3.2861
2.00248
2.1074
2.4524
-2.2905
0.240924
-2.76539
-2.89647
-5.42312
5.52945
5.25148
-5.14
16.3684
7.03003
16.3911
-16.6306
-6.66725
-16.3841
11.3646
7.71668
11.747
12.0601
8.71589
12.162
10.3595
-10.3314
-0.0280859
-11.4773
21.8368
1.55508
-18.4681
-13.9375
8.8997
6.96093
8.88748
-9.87261
-6.07744
-9.60253
-11.1138
-9.88744
-11.4389
12.3631
8.2682
12.185
-15.2819
15.2796
9.46783
6.14624
9.35474
-9.08974
-6.7437
-9.15857
27.3206
-6.56173
-20.7589
-13.0622
-12.4774
12.8603
9.04899
14.1402
11.3664
14.17
8.80673
18.5139
-17.8557
5.37834
-9.95595
-6.15649
-9.79225
9.27511
6.89209
9.42601
-11.7605
-8.51886
-11.7134
-11.9748
-9.05497
11.9791
8.17483
-12.5122
-13.0941
12.6443
8.11175
7.76682
-17.341
9.10616
-18.1591
-10.7657
-5.30751
-10.5469
10.8338
6.57074
-17.4045
-5.8319
23.9334
-12.8171
20.7993
-11.1701
-9.57924
-11.1892
-14.6412
-4.58674
-14.2134
-8.11655
7.83237
-8.94043
8.60606
26.9452
-16.1728
-10.7724
-12.3779
-8.18226
11.7165
-0.631901
-12.8361
12.808
-0.880602
12.0541
16.4979
15.866
-10.8823
-6.37962
-10.6653
10.2752
7.03261
10.3589
15.9071
7.92659
16.1113
-16.602
-7.15586
-16.3597
4.93664
-5.01369
5.74519
-5.72823
15.5295
9.54145
-15.3003
-9.40512
22.9802
-10.786
-12.1941
-5.13418
5.26599
-0.131811
-1.84808
-0.49691
0.259127
-1.94048
-1.82186
1.88145
0.22595
5.49194
3.67008
-2.41415
2.48173
2.77897
2.70524
-0.191228
2.54464
-2.5394
19.0867
-11.5455
-7.54124
13.7946
-13.7099
-2.56516
-19.1899
16.6247
2.68123
3.0723
-3.00804
-3.99982
-1.4233
-3.96733
3.0134
2.23809
3.16695
2.1302
3.39926
-8.22261
1.59902
6.62359
-6.09241
-3.54098
-13.3549
-6.33464
19.6895
16.5834
7.87655
-16.7039
0.319776
5.3442
-5.38299
-1.55135
-11.8035
8.46945
-10.0208
-15.2735
-6.42501
21.6985
-9.58184
-1.08342
9.36707
2.37993
-10.8753
-7.08999
10.7408
1.42118
-12.0634
23.9722
-11.9088
-18.443
8.51666
13.3201
16.2333
-17.8629
9.31768
8.54522
-4.54277
7.50147
1.38601
7.36609
-19.8365
13.759
11.2649
8.29162
-11.5909
1.98839
-17.8481
25.1109
-22.161
-2.94998
12.859
12.252
13.5845
13.3608
-7.89529
21.4797
-3.51177
-18.6492
21.3599
-13.0682
15.6497
-28.7179
-29.0104
10.3613
-18.0134
22.0083
-3.99488
-5.15292
-10.129
23.1663
-2.05573
-21.1106
10.1293
-13.9801
-11.8595
25.8396
-20.5418
18.6032
-6.35733
-12.2458
-12.6093
-9.34242
12.4281
2.85147
-25.6894
31.0678
-7.17554
7.98923
1.36551
8.00287
10.6432
-15.8847
5.24156
9.89866
-16.256
6.8602
-22.7449
-12.0512
23.943
-11.8918
-17.3587
-15.6398
-1.71884
4.79335
26.2744
-16.1597
11.9445
4.21526
8.46798
1.89091
-8.5656
-1.22665
0.97779
16.1107
-17.0885
10.4038
10.5246
11.7435
4.36721
10.7657
7.11354
-10.7445
-0.968963
-14.783
5.72802
-6.60816
-14.554
20.282
-16.2646
1.71059
-10.3014
-14.0011
24.3025
-16.4579
11.4299
12.5423
18.4625
-19.6157
5.61457
-9.75232
-9.86336
10.65
-17.2582
7.48373
12.7983
15.5955
2.50139
12.6805
11.2625
-19.2512
1.09207
18.6784
-16.2489
3.87176
10.2982
-15.8162
0.176375
-10.3705
2.61471
-15.4318
-14.7898
16.3728
-20.9595
-12.3451
13.405
2.70626
-13.7277
-0.485641
-5.04008
-3.07647
-5.27283
-3.30972
-5.6307
-11.205
-1.96339
-9.24161
5.86898
-6.76896
-4.66989
7.09238
1.51368
-5.03594
4.92643
-5.68759
5.4853
-0.210701
13.0187
15.6553
7.47307
-8.4759
15.949
-15.5137
23.4403
-29.5918
14.0781
15.862
-23.0179
-13.7298
2.75569
2.18096
2.66858
13.6325
-14.6062
0.97369
-13.4611
17.7816
-4.32049
-19.8711
6.40997
-6.23856
5.22373
0.521463
5.20324
1.42985
6.86613
-8.29598
-4.29838
-4.35119
-9.1371
-13.8481
22.9852
4.78727
-13.1179
8.3306
-12.1169
16.9042
0.11679
-13.2347
17.0522
-10.1861
17.5737
-12.0001
5.57353
12.7941
22.3718
-9.57766
16.2231
-6.68163
7.03017
-16.6078
-6.81796
-11.3021
18.1942
-13.0004
14.711
-1.10567
15.8167
-13.8087
3.02272
-2.06524
8.45937
8.67351
16.8103
-12.4431
11.9917
-18.6733
-4.61614
-16.1719
-3.37364
1.04088
-13.904
12.8631
12.199
-11.1581
-3.29628
9.14046
-5.84418
5.78834
-2.89469
-2.89366
-1.88187
-3.13182
1.90489
0.639756
6.4281
0.500684
-3.39537
-2.03872
-1.93354
10.4397
8.64698
-3.91631
3.7845
3.65719
-0.584886
0.975814
2.19114
4.68103
-3.70522
0.695245
3.98578
-2.31279
3.87268
1.47152
-3.8931
-0.0742369
-3.4292
11.8986
3.19439
-5.43248
1.72727
2.35988
-13.9053
19.6988
-11.4025
-8.29631
22.0587
3.02312
-14.4257
16.1668
-13.4855
8.04714
-14.3818
-6.37851
-19.864
-12.834
-10.7422
19.0728
-12.2431
20.1196
3.79926
-20.4394
24.2386
-12.7834
6.3584
-9.53022
11.0017
-4.12077
-5.40945
11.3165
10.382
-11.0659
-0.737615
0.250606
8.50145
-8.25085
-1.51934
-7.61176
-16.4071
17.8283
-8.25777
17.5755
7.6912
-7.63203
25.2075
6.56699
-14.199
-11.876
-12.9595
-5.6538
10.5795
-1.83967
-7.3189
-14.0855
7.36687
-0.000775592
-19.0383
22.0961
-3.05777
-12.0774
-1.68167
14.5407
-18.1506
1.89459
-11.2904
10.8057
12.1917
12.1909
-20.8772
-0.2334
-12.609
3.23836
-15.8474
15.4903
-6.87419
17.2354
-16.1192
11.4493
-14.6056
14.2855
-1.5619
14.6523
-9.4107
6.10663
-15.4491
-12.5976
14.5949
-8.44869
15.9604
-10.2153
26.1758
-17.3909
14.6374
11.5384
-2.79509
-8.39409
-14.1785
11.3835
0.458804
8.46167
17.8317
-10.7182
16.8627
8.91431
-18.6666
-8.34388
-25.8611
7.19445
-13.3188
-7.35415
14.5486
11.1084
12.9993
4.68525
-11.7727
17.7065
-19.4254
-5.81469
-8.97513
14.7844
-3.40096
10.2266
-19.2018
-5.20518
13.152
-0.222088
-12.9299
3.02081
-15.3659
5.14047
-20.5064
15.8191
-16.3047
1.80634
-8.0449
-3.2296
-3.3417
-2.20988
-3.47772
-7.70101
5.49113
-1.29104
3.63539
-12.6476
12.4255
-5.13397
10.6251
-4.13416
-1.13866
4.30677
1.17852
11.8036
3.04046
-16.7702
-9.33503
14.7445
-5.40945
1.10468
-10.8636
3.8809
8.0504
14.0083
-24.6751
1.65722
-15.113
-4.14861
6.32957
4.99184
17.1908
2.58461
6.67804
-0.348476
9.26265
2.32011
2.24307
-11.2746
12.2483
1.58853
15.6666
-1.88822
7.46175
3.31501
3.33068
2.0523
5.74105
2.93246
8.76376
0.467781
-3.88341
2.09515
-4.02868
-1.30023
-4.07214
-0.350321
3.77262
-4.12294
10.6255
-1.9785
5.21603
-1.94463
-5.0288
6.97343
-9.48587
-5.61369
-1.6279
-5.7005
7.42777
6.19815
-5.79986
-3.686
2.42799
-15.262
11.9538
-12.6914
-2.30938
21.9293
-9.54223
1.29138
-3.18382
-6.32038
-7.74368
7.81791
24.1907
1.01675
12.2819
18.845
11.755
1.03686
12.0782
-16.073
-10.6668
-16.3064
-0.816122
13.7245
5.66862
20.6058
17.207
13.8061
-5.39569
-24.8211
20.7512
-8.50294
16.4308
-3.50086
-17.0055
14.5301
8.91023
-17.2364
0.931638
-16.0739
-24.5768
-0.361973
12.7875
-11.4417
10.303
7.22652
2.01509
-2.47385
-0.867848
2.59297
-0.349903
8.91275
-0.177023
-8.32658
8.5036
-3.5956
2.29537
-0.482469
4.26697
6.49096
4.51247
-3.81411
-7.93705
-8.88145
-5.02389
-17.1778
2.51174
-8.70989
5.77821
-3.48284
2.88456
5.02076
10.2368
-1.61565
-9.54242
7.45983
-4.57527
5.66152
)
;

boundaryField
{
    wall-4
    {
        type            calculated;
        value           uniform 0;
    }
    velocity-inlet-5
    {
        type            calculated;
        value           uniform -11.2529;
    }
    velocity-inlet-6
    {
        type            calculated;
        value           uniform -1.87548;
    }
    pressure-outlet-7
    {
        type            calculated;
        value           nonuniform List<scalar> 8(4.37248 4.87488 11.1061 11.8465 17.4338 15.3462 17.1728 15.3721);
    }
    wall-8
    {
        type            calculated;
        value           uniform 0;
    }
    frontAndBackPlanes
    {
        type            empty;
        value           nonuniform List<scalar> 0();
    }
}


// ************************************************************************* //
