/*--------------------------------*- C++ -*----------------------------------*\
  =========                 |
  \\      /  F ield         | OpenFOAM: The Open Source CFD Toolbox
   \\    /   O peration     | Website:  https://openfoam.org
    \\  /    A nd           | Version:  9
     \\/     M anipulation  |
\*---------------------------------------------------------------------------*/
FoamFile
{
    format      ascii;
    class       volScalarField;
    location    "2.5";
    object      p;
}
// * * * * * * * * * * * * * * * * * * * * * * * * * * * * * * * * * * * * * //

dimensions      [0 2 -2 0 0 0 0];

internalField   nonuniform List<scalar> 
6400
(
6.74575e-06
-0.000360035
-0.00120237
-0.00231146
-0.0034842
-0.00457681
-0.00548822
-0.00615015
-0.0065194
-0.00657161
-0.00629643
-0.00569409
-0.00477308
-0.00354857
-0.00204147
-0.000277915
0.00171095
0.00388909
0.00621566
0.0086452
0.011128
0.0136107
0.0160374
0.0183505
0.0204928
0.0224091
0.0240485
0.0253669
0.0263291
0.0269118
0.0271055
0.0269173
0.0263726
0.0255178
0.0244226
0.0231821
0.02192
0.0207925
0.0199974
0.0197066
0.000382767
9.87921e-06
-0.000662202
-0.00150986
-0.00240256
-0.00323505
-0.00392761
-0.00442234
-0.00467973
-0.00467527
-0.00439643
-0.00384025
-0.00301151
-0.00192145
-0.000586929
0.000970068
0.00272279
0.00463988
0.00668559
0.00882005
0.0109997
0.0131779
0.0153059
0.017334
0.019213
0.0208958
0.0223396
0.0235077
0.0243718
0.0249139
0.0251287
0.0250251
0.0246276
0.0239782
0.0231369
0.0221827
0.0212125
0.020341
0.0197028
0.0194158
0.00123399
0.000676959
-6.23733e-06
-0.00077237
-0.00154929
-0.00225766
-0.00283609
-0.00323874
-0.00343287
-0.00339722
-0.00312023
-0.00259837
-0.00183487
-0.000838738
0.000375833
0.00178991
0.00338007
0.00511858
0.00697356
0.0089093
0.0108866
0.0128635
0.0147961
0.0166394
0.0183492
0.0198833
0.0212031
0.0222762
0.0230775
0.0235915
0.0238142
0.023754
0.0234333
0.022889
0.0221724
0.021349
0.0204968
0.0197059
0.0190624
0.0186245
0.00237712
0.00153045
0.000732399
-5.38031e-05
-0.000808548
-0.00147162
-0.0019979
-0.00235408
-0.00251558
-0.00246618
-0.002197
-0.00170548
-0.000994535
-7.19373e-05
0.00105005
0.0023549
0.00382197
0.00542658
0.00714011
0.00893022
0.0107612
0.0125945
0.0143895
0.0161047
0.0176988
0.0191324
0.0203693
0.021379
0.0221378
0.0226306
0.022853
0.0228119
0.0225262
0.0220276
0.0213595
0.0205758
0.0197402
0.0189264
0.0181772
0.0174854
0.00362791
0.00244908
0.00148713
0.00062944
-0.000152464
-0.000813568
-0.00132326
-0.00166031
-0.00180859
-0.00175748
-0.00150153
-0.00103986
-0.000375704
0.00048387
0.0015281
0.00274255
0.00410905
0.00560564
0.0072066
0.00888253
0.0106006
0.012325
0.0140178
0.0156396
0.0171512
0.0185145
0.0196947
0.0206616
0.0213916
0.0218691
0.022088
0.0220526
0.0217785
0.0212918
0.0206288
0.0198333
0.0189575
0.0180638
0.0171553
0.0161607
0.00485247
0.00333002
0.00217718
0.0012135
0.000368624
-0.000323886
-0.00084571
-0.00118655
-0.0013383
-0.00129597
-0.00105782
-0.000625011
-1.50153e-06
0.000805975
0.00178781
0.0029313
0.00422045
0.00563569
0.00715379
0.00874779
0.0103872
0.0120383
0.0136649
0.0152289
0.0166919
0.0180164
0.0191673
0.0201139
0.0208312
0.021302
0.0215177
0.0214796
0.0211992
0.0206977
0.020005
0.0191569
0.0181973
0.0171818
0.0160801
0.0147641
0.00594981
0.00408805
0.00273209
0.0016416
0.000710118
-3.71761e-05
-0.000592144
-0.000954072
-0.00112213
-0.00109666
-0.000879525
-0.000474034
0.000114962
0.000880848
0.00181492
0.00290597
0.00413987
0.00549916
0.00696274
0.00850568
0.0100993
0.0117113
0.0133064
0.0148473
0.0162953
0.0176124
0.0187623
0.0197123
0.0204354
0.0209114
0.0211287
0.0210848
0.020787
0.020252
0.0195045
0.0185739
0.0174988
0.016332
0.0150159
0.013373
0.00684106
0.0046512
0.00308924
0.00186133
0.000829458
1.26487e-05
-0.000589378
-0.000984197
-0.00117742
-0.00117419
-0.000979727
-0.000599353
-3.87967e-05
0.000695379
0.00159525
0.00265096
0.00385005
0.00517692
0.00661232
0.008133
0.00971164
0.0113169
0.012914
0.0144653
0.0159314
0.0172726
0.0184504
0.0194296
0.0201795
0.0206766
0.0209049
0.0208581
0.0205389
0.0199598
0.019141
0.0181076
0.0168951
0.0155566
0.0140126
0.0120415
0.0074622
0.00495747
0.00319172
0.00182229
0.000682965
-0.000211809
-0.000869362
-0.00130444
-0.00152828
-0.00155028
-0.0013786
-0.00102035
-0.000482013
0.000229972
0.00110846
0.00214485
0.00332827
0.00464481
0.0060769
0.00760272
0.009196
0.010826
0.0124577
0.0140528
0.0155704
0.0169683
0.0182052
0.0192418
0.0200434
0.0205816
0.0208358
0.0207947
0.0204566
0.0198298
0.0189307
0.0177815
0.0164162
0.0148915
0.0131086
0.0108066
0.00775863
0.004952
0.00298725
0.00147626
0.000226993
-0.000749661
-0.00146707
-0.00194626
-0.00220337
-0.00225149
-0.00210134
-0.00176149
-0.00123896
-0.000539943
0.00032929
0.00136143
0.00254717
0.00387425
0.00532664
0.00688385
0.00852045
0.010206
0.011905
0.0135778
0.0151815
0.0166707
0.0180002
0.0191261
0.0200084
0.020613
0.0209135
0.0208931
0.020545
0.0198732
0.0188911
0.0176186
0.0160902
0.0143676
0.0123355
0.00969494
0.00768143
0.00458474
0.00242697
0.00077687
-0.000581748
-0.00164095
-0.00241944
-0.00294384
-0.00323462
-0.00330806
-0.00317703
-0.00285125
-0.00233803
-0.00164309
-0.000771691
0.000270287
0.00147518
0.00283243
0.00432757
0.00594138
0.00764924
0.00942077
0.0112199
0.0130053
0.0147313
0.0163489
0.0178081
0.0190594
0.0200564
0.0207582
0.0211317
0.0211534
0.0208108
0.0201033
0.0190413
0.0176429
0.0159444
0.014014
0.0117209
0.00872823
0.00718494
0.00380871
0.0014643
-0.000320959
-0.00178632
-0.00292645
-0.00376495
-0.00433355
-0.00465662
-0.00475323
-0.00463802
-0.00432158
-0.00381117
-0.00311187
-0.00222767
-0.00116282
7.68226e-05
0.00148258
0.00304169
0.00473632
0.00654268
0.00843054
0.010363
0.012297
0.0141836
0.0159696
0.0175995
0.0190172
0.0201687
0.0210052
0.0214852
0.0215776
0.0212631
0.0205359
0.0194027
0.0178804
0.0160076
0.0138603
0.0112922
0.00792701
0.0062252
0.00257868
5.40505e-05
-0.00186155
-0.00342968
-0.0046475
-0.00554322
-0.0061534
-0.006506
-0.00662256
-0.00651922
-0.00620709
-0.00569319
-0.00498162
-0.00407487
-0.00297532
-0.00168668
-0.000215505
0.00142744
0.00322594
0.00515729
0.00719153
0.00929108
0.0114108
0.0134986
0.0154965
0.0173426
0.0189731
0.0203255
0.0213413
0.0219694
0.0221692
0.0219133
0.0211893
0.0200001
0.0183604
0.0163117
0.013939
0.0110794
0.00731426
0.00475901
0.000850375
-0.00184822
-0.00388884
-0.00555487
-0.00684593
-0.00779476
-0.00844258
-0.00882076
-0.00895315
-0.00885715
-0.00854418
-0.00802073
-0.00728964
-0.00635161
-0.0052068
-0.00385645
-0.00230458
-0.00055954
0.00136451
0.00344632
0.00565655
0.00795716
0.0103012
0.012633
0.0148897
0.0170022
0.0188983
0.0205052
0.0217532
0.0225797
0.0229329
0.022775
0.0220856
0.0208622
0.019117
0.016894
0.0142878
0.0111176
0.00691833
0.00274339
-0.00142015
-0.00428674
-0.00644679
-0.00820513
-0.00956397
-0.0105606
-0.0112409
-0.0116396
-0.0117828
-0.0116891
-0.0113699
-0.0108311
-0.0100739
-0.00909692
-0.00789773
-0.00647465
-0.00482865
-0.0029651
-0.000895545
0.00136083
0.00377587
0.00631149
0.0089192
0.0115402
0.014106
0.0165403
0.018761
0.0206839
0.0222263
0.0233118
0.0238746
0.0238646
0.0232508
0.0220233
0.0201907
0.0177987
0.0149523
0.0114502
0.0067758
0.000135312
-0.00427695
-0.00730595
-0.00957963
-0.011424
-0.0128442
-0.013882
-0.0145882
-0.0150011
-0.015149
-0.0150516
-0.0147205
-0.0141606
-0.0133713
-0.0123488
-0.0110876
-0.00958257
-0.00783105
-0.00583477
-0.00360186
-0.00114865
0.00149866
0.00430269
0.00721401
0.0101708
0.0130995
0.0159157
0.0185269
0.0208359
0.0227449
0.024161
0.0250019
0.0252016
0.0247158
0.0235244
0.0216301
0.0190795
0.0159881
0.0121311
0.00693424
-0.00310813
-0.00776448
-0.0109509
-0.0133323
-0.0152557
-0.0167293
-0.0178001
-0.0185239
-0.0189428
-0.0190876
-0.0189794
-0.0186299
-0.0180428
-0.0172158
-0.016142
-0.0148125
-0.0132182
-0.011352
-0.00921125
-0.00679964
-0.00412971
-0.00122466
0.00187988
0.00513442
0.00847491
0.0118227
0.0150855
0.0181597
0.0209335
0.023292
0.0251231
0.0263241
0.0268096
0.0265176
0.0254145
0.023494
0.0208017
0.0174638
0.0132279
0.00745524
-0.00703061
-0.0119282
-0.0152678
-0.0177507
-0.0197451
-0.0212626
-0.0223557
-0.0230861
-0.0235001
-0.0236317
-0.0235035
-0.0231275
-0.0225063
-0.0216355
-0.0205052
-0.0191023
-0.0174132
-0.0154255
-0.0131311
-0.0105284
-0.00762485
-0.00443926
-0.00100429
0.0026318
0.00640376
0.0102287
0.0140068
0.0176225
0.0209487
0.0238509
0.0261947
0.0278532
0.0287164
0.0287002
0.0277523
0.0258533
0.0230452
0.019464
0.0148253
0.00841777
-0.0116761
-0.016815
-0.0203047
-0.0228826
-0.0249382
-0.0264872
-0.0275886
-0.0283107
-0.0287052
-0.0288097
-0.028649
-0.0282358
-0.0275717
-0.0266502
-0.0254578
-0.0239772
-0.022189
-0.0200752
-0.017621
-0.014818
-0.0116673
-0.00818187
-0.00438968
-0.00033612
0.00391389
0.00827454
0.0126389
0.0168801
0.0208543
0.0244059
0.0273744
0.0296045
0.0309561
0.0313163
0.0306083
0.0287938
0.0259073
0.0220929
0.0170288
0.00992203
-0.0170897
-0.0224745
-0.0261129
-0.0287785
-0.0308831
-0.0324472
-0.0335377
-0.034231
-0.0345854
-0.0346434
-0.0344329
-0.0339675
-0.0332486
-0.0322672
-0.0310062
-0.0294432
-0.0275529
-0.0253101
-0.0226924
-0.0196834
-0.0162761
-0.0124757
-0.00830362
-0.00380036
0.000971526
0.00592513
0.010948
0.0159023
0.0206275
0.0249448
0.0286649
0.0315987
0.0335699
0.0344293
0.0340673
0.0324193
0.0295066
0.0254787
0.0199694
0.0120941
-0.0233186
-0.0289604
-0.0327483
-0.035493
-0.0376304
-0.0391872
-0.0402401
-0.0408759
-0.0411614
-0.0411457
-0.0408609
-0.0403226
-0.039532
-0.0384779
-0.0371394
-0.0354884
-0.0334929
-0.0311195
-0.0283371
-0.0251197
-0.0214502
-0.0173245
-0.012755
-0.00777482
-0.0024416
0.0031591
0.00891142
0.0146683
0.0202528
0.0254621
0.0300751
0.033864
0.0366087
0.0381151
0.0382309
0.036855
0.0339873
0.0297787
0.0238092
0.0150914
-0.0304141
-0.0363334
-0.0402745
-0.0430875
-0.0452354
-0.0467536
-0.0477315
-0.0482695
-0.0484457
-0.0483182
-0.0479248
-0.0472843
-0.0463982
-0.0452533
-0.0438243
-0.0420774
-0.0399726
-0.0374676
-0.0345209
-0.0310955
-0.0271627
-0.0227064
-0.0177277
-0.0122495
-0.00632156
-2.48211e-05
0.00652452
0.0131727
0.0197279
0.0259633
0.031624
0.0364386
0.0401357
0.0424658
0.0432213
0.042252
0.0395252
0.0351854
0.0287482
0.0191096
-0.0384347
-0.0446651
-0.0487664
-0.051633
-0.05376
-0.0551951
-0.0560453
-0.056429
-0.0564399
-0.0561478
-0.0555985
-0.0548154
-0.0538008
-0.0525395
-0.0510019
-0.0491471
-0.0469267
-0.0442883
-0.0411787
-0.0375482
-0.0333544
-0.0285673
-0.0231738
-0.0171836
-0.010635
-0.00360054
0.00380729
0.0114317
0.0190691
0.0264702
0.0333453
0.0393753
0.04423
0.0475925
0.0491854
0.0487926
0.0463335
0.0419353
0.0350331
0.0243912
-0.0474507
-0.054044
-0.0583164
-0.0612148
-0.0632755
-0.0645641
-0.0652125
-0.0653636
-0.065132
-0.0646034
-0.0638344
-0.062854
-0.0616662
-0.0602537
-0.0585817
-0.056602
-0.0542563
-0.0514809
-0.0482095
-0.0443779
-0.0399286
-0.0348149
-0.0290072
-0.0224987
-0.0153121
-0.00750728
0.000811942
0.00949079
0.0183186
0.027027
0.0352923
0.0427456
0.0489903
0.0536299
0.0562998
0.0566971
0.054672
0.0503181
0.0429686
0.0312363
-0.0575519
-0.0645846
-0.0690428
-0.0719395
-0.0738669
-0.0749184
-0.0752607
-0.0750714
-0.074493
-0.0736318
-0.0725583
-0.0713088
-0.0698892
-0.0682795
-0.066439
-0.0643107
-0.0618254
-0.0589064
-0.0554729
-0.0514449
-0.0467473
-0.0413152
-0.0350995
-0.0280736
-0.0202408
-0.0116433
-0.00237041
0.00743146
0.0175511
0.0277065
0.037544
0.0466445
0.0545396
0.0607409
0.0647765
0.0662309
0.0648573
0.0606907
0.0529323
0.0400169
-0.0688596
-0.0764414
-0.0811017
-0.0839432
-0.0856378
-0.086322
-0.0862133
-0.0855366
-0.0844719
-0.0831523
-0.0816651
-0.0800548
-0.0783289
-0.0764639
-0.0744114
-0.0721038
-0.0694592
-0.0663863
-0.0627884
-0.0585676
-0.0536301
-0.0478903
-0.0412774
-0.0337418
-0.0252637
-0.0158619
-0.00560515
0.00537622
0.0168788
0.0286156
0.0402098
0.0511954
0.0610296
0.0691208
0.0748689
0.0777141
0.0772757
0.0734944
0.0653945
0.0511962
-0.0815442
-0.0898291
-0.0947053
-0.0974039
-0.0987165
-0.0988469
-0.0980859
-0.096724
-0.0949903
-0.0930509
-0.0910126
-0.0889284
-0.0868057
-0.084615
-0.0822978
-0.0797735
-0.076945
-0.0737044
-0.069937
-0.065526
-0.0603566
-0.0543214
-0.0473255
-0.0392937
-0.0301788
-0.0199717
-0.00871353
0.00349024
0.0164543
0.029898
0.0434322
0.0565522
0.0686429
0.0790014
0.0868777
0.0915314
0.0923998
0.0892777
0.0809463
0.0653554
-0.0958543
-0.105054
-0.110147
-0.112558
-0.113263
-0.112572
-0.110882
-0.108571
-0.105933
-0.103172
-0.100416
-0.0977229
-0.0950979
-0.092501
-0.0898596
-0.0870762
-0.0840357
-0.0806109
-0.0766674
-0.0720672
-0.0666739
-0.0603562
-0.0529938
-0.0444835
-0.0347474
-0.0237435
-0.0114783
0.00197672
0.0164665
0.0317311
0.0473847
0.0628981
0.0775923
0.090651
0.101155
0.108143
0.110808
0.108728
0.10034
0.083233
-0.112162
-0.122562
-0.127836
-0.129718
-0.129473
-0.127578
-0.124581
-0.120978
-0.117139
-0.11331
-0.109639
-0.106185
-0.102941
-0.0998517
-0.0968238
-0.0937382
-0.0904575
-0.0868323
-0.0827059
-0.0779181
-0.0723089
-0.0657227
-0.0580121
-0.0490444
-0.0387083
-0.0269243
-0.0136578
0.00106354
0.0171284
0.034315
0.0522611
0.0704349
0.0881114
0.104368
0.118103
0.128092
0.133211
0.132716
0.124547
0.105785
-0.131042
-0.143013
-0.148352
-0.149299
-0.147585
-0.143939
-0.139124
-0.133786
-0.128381
-0.123197
-0.11839
-0.11401
-0.110028
-0.106363
-0.102891
-0.0994651
-0.0959214
-0.0920843
-0.0877724
-0.0828015
-0.0769873
-0.0701488
-0.0621114
-0.0527112
-0.0418016
-0.0292621
-0.0150108
0.000978581
0.0186527
0.0378479
0.0582522
0.0793608
0.100433
0.120462
0.138164
0.15201
0.160473
0.162352
0.15485
0.134283
-0.153399
-0.167403
-0.172516
-0.171843
-0.167865
-0.161697
-0.154383
-0.146753
-0.139348
-0.132486
-0.126311
-0.120843
-0.116015
-0.111702
-0.107744
-0.103956
-0.10014
-0.0960909
-0.0916005
-0.0864591
-0.0804575
-0.0733891
-0.0650518
-0.0552501
-0.0438011
-0.03054
-0.0153321
0.00191213
0.0212126
0.0424866
0.0655036
0.0898269
0.114747
0.139214
0.161785
0.180603
0.193643
0.199067
0.19298
0.170482
-0.18072
-0.197248
-0.201481
-0.198035
-0.190587
-0.180811
-0.170112
-0.15951
-0.149616
-0.140736
-0.132969
-0.126275
-0.120522
-0.115524
-0.111068
-0.106921
-0.102847
-0.0986064
-0.0939621
-0.0886778
-0.0825195
-0.0752554
-0.0666561
-0.0564956
-0.0445533
-0.0306187
-0.0144992
0.00396667
0.0248876
0.0482866
0.0740521
0.101868
0.131121
0.160796
0.189347
0.214605
0.233959
0.244711
0.241339
0.216933
-0.215527
-0.234894
-0.236851
-0.228685
-0.215948
-0.201071
-0.185863
-0.171504
-0.158602
-0.147388
-0.137855
-0.129853
-0.123153
-0.117486
-0.112566
-0.108106
-0.103823
-0.0994426
-0.0946953
-0.089319
-0.0830558
-0.0756499
-0.0668462
-0.0563888
-0.0440204
-0.0294836
-0.0125246
0.00709801
0.0295967
0.0551268
0.0837381
0.1153
0.149391
0.185142
0.221035
0.254666
0.282812
0.301667
0.303332
0.277552
-0.262308
-0.283986
-0.28077
-0.26464
-0.243917
-0.221944
-0.200874
-0.181914
-0.165529
-0.151751
-0.140378
-0.131089
-0.123513
-0.11727
-0.11199
-0.107319
-0.102926
-0.0984972
-0.0937337
-0.0883487
-0.0820623
-0.0745974
-0.0656758
-0.0550139
-0.0423196
-0.0272892
-0.00960622
0.0110566
0.0350289
0.0626242
0.0941006
0.129591
0.168986
0.211742
0.256589
0.301117
0.3416
0.372924
0.383884
0.358782
-0.329485
-0.35018
-0.335864
-0.306451
-0.273877
-0.24228
-0.213862
-0.189534
-0.169357
-0.152979
-0.139877
-0.129481
-0.121233
-0.114619
-0.109168
-0.104461
-0.100115
-0.0957799
-0.0911315
-0.0858617
-0.0796726
-0.0722699
-0.0633563
-0.0526248
-0.0397524
-0.0243922
-0.00616676
0.0153387
0.04058
0.0700501
0.104261
0.143696
0.188705
0.239317
0.294877
0.353444
0.411243
0.461926
0.490187
0.471957
-0.433338
-0.441973
-0.404664
-0.353544
-0.303892
-0.259796
-0.222703
-0.192599
-0.168717
-0.150058
-0.135632
-0.124541
-0.116004
-0.109356
-0.104032
-0.0995452
-0.0954701
-0.0914292
-0.0870779
-0.0820941
-0.0761686
-0.0689956
-0.0602651
-0.049653
-0.0368122
-0.0213599
-0.00286477
0.0191698
0.0453239
0.0762802
0.112837
0.155904
0.206458
0.265402
0.333229
0.409342
0.491071
0.571749
0.632275
0.637306
-0.604337
-0.570652
-0.48845
-0.40334
-0.33015
-0.270836
-0.224451
-0.188948
-0.162122
-0.142028
-0.127067
-0.115964
-0.107712
-0.101508
-0.0967058
-0.0927703
-0.08925
-0.0857518
-0.0819232
-0.0774373
-0.0719819
-0.0652483
-0.0569217
-0.0466701
-0.0341321
-0.0189018
-0.000508632
0.0216088
0.0481372
0.0799347
0.118088
0.163981
0.219352
0.286308
0.367183
0.464105
0.577713
0.70337
0.821951
0.88869
-0.905533
-0.747625
-0.583083
-0.449269
-0.346277
-0.270419
-0.215764
-0.176571
-0.148499
-0.128425
-0.114103
-0.103911
-0.0966611
-0.0914643
-0.0876319
-0.0846144
-0.0819571
-0.0792702
-0.0762072
-0.0724484
-0.0676883
-0.0616249
-0.053948
-0.0443291
-0.0324065
-0.0177682
7.17395e-05
0.0217076
0.0478911
0.079604
0.118166
0.165395
0.223833
0.29704
0.389952
0.509273
0.662229
0.850735
1.07108
1.2932
-1.51433
-0.976318
-0.650294
-0.457781
-0.328485
-0.242763
-0.186546
-0.149067
-0.123734
-0.106541
-0.0949075
-0.0871143
-0.0819734
-0.0786285
-0.0764339
-0.0748808
-0.0735506
-0.0720842
-0.0701614
-0.0674855
-0.0637717
-0.0587367
-0.0520888
-0.0435183
-0.0326835
-0.019194
-0.00258765
0.0177054
0.0424155
0.0725183
0.109373
0.154955
0.212251
0.285936
0.383604
0.517946
0.707236
0.973647
1.38718
2.03614
-2.65469
-1.20473
-0.592957
-0.358114
-0.233531
-0.16208
-0.120977
-0.0962761
-0.0809326
-0.0714247
-0.0657552
-0.0626764
-0.0613486
-0.0611641
-0.0616534
-0.062434
-0.0631796
-0.0636011
-0.063433
-0.0624236
-0.0603268
-0.0568956
-0.0518756
-0.0449954
-0.0359597
-0.024436
-0.0100372
0.00770338
0.0293717
0.0557362
0.0878574
0.127288
0.176466
0.239537
0.32433
0.446974
0.63917
0.970253
1.69811
3.27102
1.25282e-05
-0.000356069
-0.00120554
-0.00232007
-0.0034973
-0.0045938
-0.00550836
-0.00617261
-0.00654339
-0.00659637
-0.00632125
-0.00571834
-0.00479616
-0.00356995
-0.00206065
-0.000294471
0.00169741
0.0038789
0.00620909
0.00864247
0.0111292
0.013616
0.0160466
0.0183635
0.0205093
0.0224288
0.0240709
0.0253913
0.0263549
0.0269381
0.0271315
0.0269421
0.0263953
0.0255375
0.0244384
0.0231936
0.0219268
0.0207938
0.0199926
0.0197066
0.00038133
1.04999e-05
-0.000659584
-0.00150387
-0.00239277
-0.00322178
-0.00391148
-0.00440407
-0.00466003
-0.00465482
-0.00437587
-0.00382014
-0.00299237
-0.00190374
-0.000571078
0.000983694
0.00273386
0.00464812
0.00669077
0.008822
0.0109983
0.0131731
0.0152978
0.0173228
0.0191988
0.020879
0.0223207
0.0234871
0.0243501
0.0248919
0.0251071
0.0250045
0.024609
0.0239622
0.0231243
0.022174
0.0212079
0.0203394
0.0197024
0.0194203
0.00123785
0.000674892
-6.12737e-06
-0.000772127
-0.00154923
-0.00225742
-0.00283563
-0.00323811
-0.00343209
-0.00339633
-0.00311928
-0.00259742
-0.00183395
-0.000837886
0.000376586
0.00179054
0.00338056
0.0051189
0.00697371
0.00890928
0.0108864
0.0128632
0.0147955
0.0166387
0.0183484
0.0198823
0.0212021
0.0222752
0.0230764
0.0235905
0.0238133
0.0237532
0.0234327
0.0228885
0.0221721
0.0213488
0.0204967
0.0197057
0.0190631
0.0186231
0.00238624
0.00152452
0.000732144
-5.38577e-05
-0.000809622
-0.00147299
-0.00199943
-0.00235573
-0.0025173
-0.00246791
-0.0021987
-0.00170712
-0.000996086
-7.33771e-05
0.00104874
0.00235375
0.00382101
0.00542582
0.00713957
0.00892992
0.0107612
0.0125947
0.01439
0.0161055
0.0176998
0.0191336
0.0203708
0.0213807
0.0221395
0.0226325
0.0228549
0.0228137
0.0225279
0.0220291
0.0213607
0.0205767
0.0197402
0.0189264
0.0181809
0.0174791
0.00364184
0.00243871
0.00148688
0.000630337
-0.000152599
-0.000813717
-0.00132333
-0.00166036
-0.00180861
-0.00175747
-0.0015015
-0.00103982
-0.00037567
0.000483893
0.00152811
0.00274253
0.004109
0.00560556
0.0072065
0.0088824
0.0106005
0.0123249
0.0140177
0.0156395
0.017151
0.0185144
0.0196946
0.0206616
0.0213916
0.0218691
0.022088
0.0220527
0.0217786
0.0212919
0.0206289
0.0198334
0.0189567
0.0180638
0.0171629
0.0161501
0.00487114
0.00331525
0.00217661
0.0012147
0.000368476
-0.000324032
-0.000845749
-0.00118658
-0.00133832
-0.00129598
-0.00105782
-0.000625014
-1.51019e-06
0.000805955
0.00178777
0.00293124
0.00422036
0.00563558
0.00715366
0.00874765
0.0103871
0.0120382
0.0136647
0.0152287
0.0166918
0.0180163
0.0191673
0.0201139
0.0208313
0.0213021
0.0215178
0.0214798
0.0211993
0.0206978
0.0200052
0.019157
0.0181963
0.017182
0.0160916
0.0147492
0.00597305
0.00406911
0.00273117
0.00164301
0.000709873
-3.74143e-05
-0.000592259
-0.000954197
-0.00112226
-0.00109679
-0.00087966
-0.000474174
0.000114816
0.000880695
0.00181476
0.0029058
0.00413969
0.00549899
0.00696257
0.00850551
0.0100991
0.0117111
0.0133063
0.0148472
0.0162953
0.0176125
0.0187624
0.0197125
0.0204356
0.0209117
0.0211289
0.021085
0.0207873
0.0202522
0.0195047
0.0185741
0.0174976
0.0163325
0.0150311
0.0133539
0.00686863
0.00462836
0.00308801
0.00186297
0.000829174
1.24063e-05
-0.000589456
-0.000984281
-0.00117751
-0.00117429
-0.000979834
-0.000599471
-3.89274e-05
0.000695235
0.0015951
0.00265079
0.00384987
0.00517673
0.00661213
0.00813282
0.00971148
0.0113168
0.0129139
0.0144652
0.0159314
0.0172726
0.0184505
0.0194297
0.0201798
0.0206768
0.0209052
0.0208583
0.0205391
0.01996
0.0191413
0.0181079
0.0168937
0.0155575
0.0140314
0.0120182
0.00749388
0.00493097
0.00319018
0.00182413
0.000682635
-0.000212061
-0.000869406
-0.00130448
-0.00152834
-0.00155034
-0.00137867
-0.00102044
-0.000482116
0.000229849
0.00110832
0.00214469
0.00332809
0.00464463
0.0060767
0.00760253
0.00919582
0.0108258
0.0124576
0.0140528
0.0155704
0.0169684
0.0182052
0.0192419
0.0200436
0.0205818
0.0208361
0.020795
0.0204569
0.01983
0.0189311
0.0177818
0.0164146
0.0148926
0.0131309
0.0107792
0.00779422
0.00492205
0.00298543
0.00147829
0.000226612
-0.000749932
-0.00146709
-0.00194627
-0.00220339
-0.00225152
-0.00210137
-0.00176155
-0.00123904
-0.000540046
0.000329163
0.00136128
0.002547
0.00387406
0.00532645
0.00688365
0.00852025
0.0102058
0.0119048
0.0135777
0.0151814
0.0166707
0.0180003
0.0191262
0.0200086
0.0206132
0.0209138
0.0208933
0.0205453
0.0198735
0.0188916
0.0176191
0.0160885
0.014369
0.0123613
0.00966352
0.00772078
0.00455151
0.00242489
0.000779087
-0.000582179
-0.00164124
-0.00241944
-0.00294382
-0.00323461
-0.00330805
-0.00317703
-0.00285128
-0.00233808
-0.00164317
-0.000771796
0.000270154
0.00147502
0.00283225
0.00432738
0.00594118
0.00764903
0.00942057
0.0112197
0.0130052
0.0147312
0.0163489
0.0178081
0.0190595
0.0200566
0.0207584
0.021132
0.0211537
0.0208111
0.0201037
0.0190419
0.0176435
0.0159425
0.0140157
0.0117503
0.00869255
0.00722791
0.00377233
0.00146197
-0.000318562
-0.00178679
-0.00292676
-0.00376493
-0.0043335
-0.00465657
-0.00475318
-0.00463799
-0.00432156
-0.00381119
-0.00311191
-0.00222774
-0.00116293
7.66845e-05
0.00148241
0.00304151
0.00473612
0.00654247
0.00843033
0.0103628
0.0122968
0.0141834
0.0159696
0.0175995
0.0190173
0.0201689
0.0210054
0.0214855
0.021578
0.0212635
0.0205363
0.0194034
0.0178812
0.0160055
0.0138623
0.0113254
0.0078868
0.00627168
0.00253926
5.14897e-05
-0.00185897
-0.0034302
-0.00464783
-0.00554318
-0.00615332
-0.00650591
-0.00662247
-0.00651914
-0.00620703
-0.00569316
-0.00498162
-0.00407491
-0.00297539
-0.00168678
-0.000215645
0.00142727
0.00322575
0.00515708
0.00719131
0.00929087
0.0114106
0.0134984
0.0154964
0.0173425
0.0189732
0.0203257
0.0213415
0.0219697
0.0221696
0.0219138
0.0211898
0.0200009
0.0183614
0.0163094
0.0139413
0.0111167
0.00726913
0.0048089
0.000808004
-0.00185101
-0.00388609
-0.00555543
-0.00684627
-0.0077947
-0.00844246
-0.00882063
-0.00895301
-0.00885702
-0.00854407
-0.00802064
-0.00728959
-0.0063516
-0.00520682
-0.00385652
-0.00230468
-0.000559677
0.00136434
0.00344612
0.00565635
0.00795695
0.010301
0.0126328
0.0148896
0.0170022
0.0188983
0.0205053
0.0217534
0.0225801
0.0229333
0.0227755
0.0220863
0.0208631
0.0191181
0.0168915
0.0142905
0.0111594
0.0068678
0.00279666
-0.0014654
-0.00428975
-0.00644387
-0.00820573
-0.00956432
-0.0105605
-0.0112407
-0.0116394
-0.0117826
-0.0116889
-0.0113697
-0.0108309
-0.0100738
-0.00909684
-0.0078977
-0.00647466
-0.00482869
-0.00296519
-0.000895673
0.00136067
0.00377568
0.00631129
0.008919
0.01154
0.0141059
0.0165402
0.018761
0.0206841
0.0222266
0.0233122
0.0238751
0.0238652
0.0232516
0.0220245
0.020192
0.017796
0.0149554
0.011497
0.00671925
0.000192038
-0.00432501
-0.00730918
-0.00957656
-0.0114247
-0.0128445
-0.0138819
-0.014588
-0.0150008
-0.0151487
-0.0150513
-0.0147203
-0.0141603
-0.0133711
-0.0123486
-0.0110875
-0.0095825
-0.00783103
-0.0058348
-0.00360193
-0.00114876
0.00149851
0.00430251
0.00721383
0.0101707
0.0130994
0.0159156
0.0185269
0.020836
0.0227451
0.0241614
0.0250025
0.0252024
0.0247167
0.0235258
0.0216317
0.0190765
0.0159916
0.0121835
0.00687096
-0.00304835
-0.00781537
-0.0109544
-0.013329
-0.0152564
-0.0167297
-0.0178
-0.0185237
-0.0189425
-0.0190873
-0.0189791
-0.0186296
-0.0180425
-0.0172155
-0.0161417
-0.0148123
-0.013218
-0.0113519
-0.00921119
-0.00679964
-0.00412976
-0.00122475
0.00187975
0.00513426
0.00847475
0.0118226
0.0150855
0.0181597
0.0209337
0.0232923
0.0251236
0.0263248
0.0268104
0.0265186
0.0254161
0.0234958
0.0207986
0.0174678
0.0132866
0.0073844
-0.00696766
-0.0119819
-0.0152715
-0.0177473
-0.0197459
-0.021263
-0.0223555
-0.0230858
-0.0234998
-0.0236313
-0.0235031
-0.0231271
-0.0225059
-0.0216352
-0.0205048
-0.019102
-0.0174129
-0.0154253
-0.013131
-0.0105283
-0.00762482
-0.00443928
-0.00100437
0.00263169
0.00640363
0.0102286
0.0140067
0.0176225
0.0209488
0.0238512
0.0261952
0.027854
0.0287174
0.0287014
0.0277542
0.0258554
0.0230418
0.0194686
0.0148911
0.00833841
-0.0116099
-0.0168716
-0.0203088
-0.0228791
-0.0249391
-0.0264876
-0.0275885
-0.0283104
-0.0287048
-0.0288092
-0.0286485
-0.0282352
-0.0275712
-0.0266497
-0.0254574
-0.0239767
-0.0221887
-0.0200749
-0.0176207
-0.0148178
-0.0116672
-0.00818181
-0.00438968
-0.000336176
0.00391379
0.00827444
0.0126388
0.0168801
0.0208545
0.0244062
0.027375
0.0296054
0.0309572
0.0313178
0.0306106
0.0287964
0.0259036
0.0220983
0.0171026
0.0098331
-0.0170201
-0.022534
-0.0261173
-0.0287749
-0.030884
-0.0324476
-0.0335375
-0.0342306
-0.0345849
-0.0346428
-0.0344322
-0.0339668
-0.033248
-0.0322666
-0.0310056
-0.0294427
-0.0275524
-0.0253097
-0.022692
-0.0196831
-0.0162758
-0.0124755
-0.00830354
-0.00380036
0.000971475
0.00592505
0.0109479
0.0159023
0.0206276
0.0249451
0.0286655
0.0315997
0.0335712
0.0344309
0.0340699
0.0324223
0.0295026
0.025485
0.0200523
0.0119944
-0.0232455
-0.0290232
-0.0327531
-0.0354894
-0.0376314
-0.0391877
-0.0402399
-0.0408754
-0.0411608
-0.041145
-0.0408601
-0.0403218
-0.0395312
-0.0384771
-0.0371386
-0.0354877
-0.0334922
-0.0311189
-0.0283366
-0.0251192
-0.0214499
-0.0173243
-0.0127549
-0.00777475
-0.00244161
0.00315903
0.00891134
0.0146683
0.0202529
0.0254624
0.0300757
0.033865
0.0366101
0.0381171
0.038234
0.0368586
0.0339832
0.029786
0.0239024
0.0149796
-0.0303372
-0.0363998
-0.0402798
-0.0430839
-0.0452367
-0.0467542
-0.0477313
-0.0482689
-0.048445
-0.0483173
-0.0479238
-0.0472833
-0.0463973
-0.0452524
-0.0438235
-0.0420766
-0.0399718
-0.0374669
-0.0345203
-0.031095
-0.0271623
-0.0227061
-0.0177275
-0.0122494
-0.00632155
-2.48982e-05
0.0065244
0.0131726
0.0197279
0.0259635
0.0316246
0.0364396
0.0401373
0.042468
0.0432249
0.0422562
0.0395208
0.0351941
0.0288531
0.0189842
-0.0383533
-0.0447357
-0.0487724
-0.0516294
-0.0537614
-0.0551957
-0.056045
-0.0564283
-0.056439
-0.0561467
-0.0555974
-0.0548143
-0.0537997
-0.0525385
-0.0510009
-0.0491461
-0.0469259
-0.0442875
-0.041178
-0.0375476
-0.0333539
-0.0285669
-0.0231735
-0.0171835
-0.010635
-0.00360066
0.00380708
0.0114314
0.0190689
0.0264703
0.0333457
0.0393763
0.0442316
0.0475949
0.0491895
0.0487976
0.046329
0.0419455
0.0351512
0.0242505
-0.0473639
-0.0541198
-0.0583234
-0.0612114
-0.0632772
-0.0645649
-0.065212
-0.0653627
-0.0651309
-0.0646021
-0.0638331
-0.0628527
-0.0616649
-0.0602525
-0.0585806
-0.0566009
-0.0542554
-0.0514801
-0.0482087
-0.0443773
-0.0399281
-0.0348146
-0.029007
-0.0224986
-0.0153122
-0.00750751
0.000811576
0.00949035
0.0183182
0.0270267
0.0352924
0.0427463
0.0489918
0.0536324
0.0563045
0.056703
0.0546674
0.0503303
0.043102
0.0310783
-0.0574586
-0.0646671
-0.069051
-0.0719362
-0.0738689
-0.0749191
-0.0752601
-0.0750702
-0.0744915
-0.0736302
-0.0725568
-0.0713073
-0.0698877
-0.0682782
-0.0664378
-0.0643096
-0.0618245
-0.0589055
-0.0554722
-0.0514443
-0.0467469
-0.0413149
-0.0350994
-0.0280736
-0.0202411
-0.0116437
-0.00237103
0.0074307
0.0175503
0.0277058
0.0375437
0.0466448
0.0545408
0.0607433
0.0647816
0.0662377
0.0648527
0.0607055
0.0530831
0.0398395
-0.0687577
-0.0765327
-0.0811118
-0.0839401
-0.0856401
-0.0863227
-0.0862123
-0.085535
-0.08447
-0.0831504
-0.0816632
-0.0800531
-0.0783274
-0.0764625
-0.0744102
-0.0721028
-0.0694584
-0.0663856
-0.0627878
-0.0585672
-0.0536298
-0.0478902
-0.0412774
-0.0337421
-0.0252642
-0.0158626
-0.00560616
0.00537498
0.0168774
0.0286142
0.0402087
0.0511949
0.0610301
0.0691229
0.0748743
0.0777218
0.0772712
0.0735123
0.0655657
0.0509968
-0.0814312
-0.0899325
-0.0947178
-0.097401
-0.0987191
-0.0988473
-0.0980844
-0.0967218
-0.0949878
-0.0930484
-0.0910103
-0.0889264
-0.086804
-0.0846136
-0.0822967
-0.0797726
-0.0769443
-0.0737039
-0.0699367
-0.0655258
-0.0603566
-0.0543216
-0.0473259
-0.0392943
-0.0301797
-0.0199729
-0.00871508
0.00348835
0.0164521
0.0298957
0.04343
0.0565506
0.0686423
0.0790027
0.0868829
0.0915399
0.0923952
0.0892996
0.0811419
0.0651309
-0.0957263
-0.105174
-0.110163
-0.112555
-0.113265
-0.112572
-0.110879
-0.108568
-0.10593
-0.103169
-0.100413
-0.0977206
-0.0950961
-0.0924997
-0.0898586
-0.0870755
-0.0840353
-0.0806107
-0.0766673
-0.0720674
-0.0666743
-0.0603568
-0.0529946
-0.0444846
-0.0347488
-0.0237453
-0.0114806
0.00197399
0.0164633
0.0317275
0.047381
0.0628947
0.0775899
0.0906506
0.101159
0.108151
0.110803
0.108755
0.100565
0.0829794
-0.112014
-0.122706
-0.127856
-0.129714
-0.129475
-0.127577
-0.124577
-0.120973
-0.117134
-0.113307
-0.109636
-0.106182
-0.102939
-0.0998505
-0.0968231
-0.0937378
-0.0904574
-0.0868325
-0.0827063
-0.0779187
-0.0723098
-0.0657238
-0.0580135
-0.0490461
-0.0387103
-0.0269268
-0.0136609
0.00105979
0.0171239
0.0343098
0.0522554
0.0704291
0.0881062
0.104365
0.118106
0.1281
0.133205
0.132749
0.124809
0.105497
-0.130866
-0.143193
-0.148379
-0.149293
-0.147585
-0.143935
-0.139117
-0.133779
-0.128375
-0.123192