/*--------------------------------*- C++ -*----------------------------------*\
  =========                 |
  \\      /  F ield         | OpenFOAM: The Open Source CFD Toolbox
   \\    /   O peration     | Website:  https://openfoam.org
    \\  /    A nd           | Version:  9
     \\/     M anipulation  |
\*---------------------------------------------------------------------------*/
FoamFile
{
    format      ascii;
    class       surfaceScalarField;
    location    "7.8";
    object      phi;
}
// * * * * * * * * * * * * * * * * * * * * * * * * * * * * * * * * * * * * * //

dimensions      [0 3 -1 0 0 0 0];

internalField   nonuniform List<scalar> 
1300
(
11.2529
1.87548
-4.64948
11.2529
-5.01013
1.87548
-4.26712
4.26712
-1.31797
1.31797
5.71252
5.54034
-2.57555
2.57555
-3.16598
3.16598
-2.93386
2.93386
-1.06194
1.06194
-1.02839
1.02839
0.717438
-0.717438
-3.34081
3.34081
-1.61387
1.61387
-3.05673
3.05673
6.12911
-6.12911
-3.6182
3.6182
-0.812023
0.812023
-4.26358
15.5164
6.98928
6.98928
-2.49577
2.49577
-1.25758
1.25758
1.41034
-1.41034
9.95186
-9.95186
-5.30238
-6.15314
1.93573
-13.8187
-3.0744
-3.0744
-2.7054
2.7054
-0.829928
1.04555
3.46817
-3.46817
-0.806285
0.806285
-4.31899
0.0518637
-4.31899
4.09885
0.168273
4.09885
-1.47284
0.154865
-1.47284
4.57799
-4.57799
1.19616
0.121816
1.19616
3.92495
-3.92495
-5.70982
11.4223
5.54304
-5.32036
20.8368
-5.9325
11.4728
-3.87863
3.87863
-2.48004
-0.09551
-2.48004
2.63982
-0.0642744
2.63982
-3.86471
3.86471
-2.94037
-0.225616
-2.94037
3.30922
-0.143232
3.30922
3.64471
-3.64471
-2.9685
0.0346414
-2.9685
2.80305
0.13081
2.80305
0.771042
1.10443
-2.64652
3.69207
-1.10443
0.0424987
1.02614
0.0357984
1.02614
-1.01456
-0.0138239
-1.01456
1.05026
-0.0218716
1.05026
0.76794
-0.0505021
0.76794
-0.766883
0.0494451
-0.766883
-8.50187
-8.51314
-3.43585
0.0950404
-3.43585
-1.61957
0.00569958
-1.61957
1.65889
-0.0450233
1.65889
-2.58422
2.58422
-3.38488
0.328149
-3.38488
4.80843
1.32068
4.80843
5.0463
6.20656
16.2992
-16.2992
10.17
-3.37388
-0.244316
-3.37388
-3.79498
-6.15688
3.79498
-0.176782
-0.889978
0.0779549
-0.889978
5.6255
1.36379
5.6255
2.70053
0.102518
-2.70053
0.204761
4.57707
-4.57707
1.51013
0.985638
1.51013
-1.1904
1.1904
1.12474
-0.0744817
-1.12474
-0.132835
1.38599
0.024348
1.38599
-1.40974
-0.000593392
-1.40974
7.7068
-13.8599
-7.77616
3.18603
0.154775
-3.18603
0.111632
3.55137
-0.0831948
3.55137
-3.32145
3.32145
-3.60402
0.135843
-3.60402
-0.72611
-0.0801744
-0.72611
0.896425
-0.0901402
0.896425
-4.5234
0.204417
-4.5234
-3.80052
0.415647
3.80052
0.298327
1.31712
-1.31712
-1.58562
0.112782
-1.58562
-4.57144
0.0480402
4.57144
0.00655017
-4.66964
0.0916491
-4.66964
-3.70764
0.103626
3.70764
0.217307
4.58732
1.03818
-4.58732
0.662371
-5.36975
11.5763
-5.88311
11.4261
-3.54368
-0.334943
-3.54368
4.0363
-0.157668
4.0363
2.7506
0.30613
-2.7506
0.270557
2.80119
-0.161364
2.80119
-3.83516
-0.0295503
-3.83516
3.6748
0.189916
3.6748
2.87098
-0.0697886
-2.87098
-0.0693916
3.31849
-0.00926868
3.31849
3.6514
-0.00668797
3.6514
-3.52276
-0.121952
-3.52276
3.20412
-3.20412
3.11814
0.0859729
-3.11814
0.149642
-5.07402
5.07343
-0.00799854
-5.06602
1.01814
1.01814
0.821822
-0.0538818
0.821822
-0.864145
0.0972614
-0.864145
8.46099
-16.2372
8.45279
-16.9547
7.18179
-21.0005
7.93319
-16.4463
3.68857
-3.68857
3.63076
0.0578118
-3.63076
0.19491
-1.58485
-0.0347214
-1.58485
-2.34767
-0.236547
-2.34767
2.92037
-0.336152
2.92037
-3.74806
3.74806
-4.12833
0.380271
4.12833
0.680105
3.37517
-0.0566894
-3.37517
0.00129553
1.02939
0.166767
-1.02939
0.13941
4.8019
-0.224831
4.8019
-4.05549
-0.521587
-4.05549
-1.57776
-0.0070924
1.57776
-0.0676217
-1.25855
0.0681434
-1.25855
-5.0745
0.00847714
-5.0387
-1.40127
-1.40127
1.30414
4.9962
-3.56998
0.0472186
3.56998
-0.0186098
3.53562
0.212434
-3.53562
0.214168
-3.28069
0.0765728
3.28069
0.0407647
-0.703578
-0.0225326
-0.703578
-1.09157
1.09157
-0.973808
-0.117762
0.973808
-0.0773829
1.47278
-0.155665
1.47278
1.63126
0.0276316
-1.63126
0.0456424
-4.90415
0.234508
-4.90415
4.02515
0.0111468
4.02515
-3.91849
-0.136992
3.91849
-0.267096
-0.00371817
5.07715
-1.01442
-0.000142512
1.01442
-5.1015
5.10135
-0.710376
0.00679862
0.710376
0.111446
1.02862
0.161786
-1.02862
0.164472
3.70815
-0.0333535
-3.70815
0.0195788
-2.06692
-0.280749
-2.06692
-3.23594
-0.307745
3.23594
-0.315568
-5.11486
-0.0782402
5.1931
-5.13673
1.33679
0.0492041
-1.33679
5.15056
-1.20548
-0.11164
1.20548
-0.113907
1.67372
-0.20094
1.67372
5.02794
-0.22604
-5.02794
0.123791
-4.0118
0.176639
4.0118
0.0133466
-1.8423
-0.224624
1.8423
-0.168577
-13.1271
14.4909
7.7097
-6.7765
-7.08343
-12.9334
4.44831
7.12801
14.6184
-11.4752
-9.52522
-11.3636
2.86269
-2.69822
-3.88384
3.83334
22.9964
-22.9047
-18.4051
19.0852
20.7686
-20.5513
5.70689
5.71545
16.5533
-16.6488
-20.7042
20.3693
16.6509
-16.8765
21.2941
-21.3237
-24.7552
24.7219
-16.3114
16.346
-20.1928
20.0708
-20.8882
20.6211
-8.39303
-8.56163
15.8629
-15.7678
21.5595
-21.8038
-19.6882
20.0164
10.0455
4.44542
11.0837
-6.24767
11.9546
-5.22516
12.9349
8.1653
-16.5583
8.07185
-15.1553
9.95148
11.608
-9.77469
-3.15868
-17.9364
17.8532
-17.3029
17.3436
23.6506
-23.5988
-6.17188
11.8873
-5.25426
12.3823
-11.4099
-6.99514
10.0892
4.52911
8.72821
7.13468
-8.88298
-2.48062
-24.3763
24.1502
-25.3522
24.8306
0.0816243
2.43588
-2.5175
1.3392
-0.840226
3.2761
2.02246
2.11972
2.45125
-2.28946
0.246965
-2.76446
-2.8973
-5.84108
5.95386
5.67159
-5.54977
16.1386
6.85779
16.1451
-16.3807
-6.524
-16.1462
11.3715
7.71369
11.7518
12.05
8.71852
12.1537
10.3629
-10.3289
-0.0339732
-11.4746
21.8375
1.55838
-18.4698
-13.9406
9.49251
7.06075
9.42824
-10.3238
-6.32494
-10.0533
-11.0395
-9.66467
-11.3473
12.1839
8.18539
12.0262
-14.9486
14.962
10.2583
6.39263
10.1151
-9.75394
-7.1226
-9.82333
26.5884
-6.32328
-20.2651
-12.6765
-12.0788
12.4866
8.80757
13.7048
11.0171
13.7244
8.51331
18.0751
-17.3209
5.24212
-10.0404
-6.27096
-9.8908
9.47719
6.86886
9.608
-11.7243
-8.46853
-11.677
-11.9159
-8.97225
11.9226
8.14822
-12.4237
-12.9284
12.5607
8.06034
7.38734
-16.9126
9.05899
-17.6206
-10.5018
-5.26605
-10.3069
10.5029
6.63485
-17.1377
-6.05547
24.3694
-12.7614
21.2108
-11.9543
-9.84952
-11.953
-14.9297
-4.75853
-14.514
-8.17157
7.89082
-8.96597
8.62981
26.583
-15.8011
-10.7819
-12.3748
-8.1764
11.7125
-0.628827
-12.8382
12.8042
-0.883651
12.0512
16.4966
15.8678
-10.8987
-6.40423
-10.6845
10.3204
7.02323
10.397
15.9642
7.68642
16.1325
-16.4466
-7.15214
-16.2422
5.14997
-5.23015
6.07608
-6.08317
15.3808
9.44974
-15.156
-9.22024
23.0447
-10.8009
-12.2438
-5.1926
5.45323
-0.260636
-1.91649
-0.577295
0.234728
-1.97617
-1.90767
1.92673
0.192996
5.64623
3.73856
-2.41342
2.48156
2.77968
2.7052
-0.192097
2.66486
-2.65806
19.2569
-11.4869
-7.77006
13.6238
-13.5758
-2.61841
-18.7734
16.155
2.56937
3.34671
-3.26875
-4.30791
-1.53317
-4.26227
3.27671
2.39488
3.44348
2.2738
3.68006
-8.69023
1.71484
6.97539
-6.41643
-3.83493
-13.27
-6.21507
19.4851
16.3654
7.78483
-16.4892
0.34294
5.73176
-5.77679
-1.54468
-11.7253
8.68105
-10.2257
-15.0959
-6.35354
21.4495
-9.59015
-1.09433
9.37772
2.37403
-10.8628
-7.07365
10.7269
1.42675
-12.0525
23.9783
-11.9258
-18.4567
8.52347
13.3141
16.2372
-17.8634
9.30849
8.55496
-4.54938
8.03797
1.39026
7.87661
-20.0333
13.7084
11.7154
8.301
-12.0215
1.96821
-18.0651
24.8481
-21.8322
-3.01592
12.857
11.9911
13.3141
13.2689
-7.88898
21.2031
-3.33382
-18.4984
21.399
-13.098
15.3316
-28.4295
-28.6005
10.1021
-17.7226
21.4744
-3.75184
-4.9853
-9.96333
22.7079
-2.07402
-20.6338
9.95218
-13.9502
-12.0105
25.9607
-20.2735
19.1331
-6.56604
-12.567
-12.3006
-9.02311
12.1239
2.83805
-25.0684
30.3105
-6.99334
8.67875
1.43632
8.66948
10.5543
-15.5301
4.97575
9.71914
-16.2852
6.98676
-22.5168
-11.5925
23.2443
-11.6518
-16.8585
-15.1134
-1.74511
4.67722
25.6333
-15.6943
11.6381
4.05616
8.52947
1.86752
-8.61544
-1.27536
1.08165
16.2218
-17.3034
10.6896
10.7922
11.9987
4.22304
10.7423
7.11092
-10.7237
-0.953363
-14.6909
5.7187
-6.54273
-14.3926
20.1113
-16.189
1.79642
-10.2492
-14.0464
24.2957
-16.5202
11.466
12.5123
18.4892
-19.5828
5.53636
-9.78208
-9.80073
10.6526
-17.1954
7.38966
12.7216
15.45
2.52157
12.2159
11.0284
-18.8507
1.23012
18.1631
-15.6824
3.70829
10.0161
-15.3464
0.232985
-10.0739
2.70149
-15.4629
-14.4362
16.1154
-20.8739
-12.3142
13.5875
2.54496
-13.8859
-0.628156
-5.09866
-3.07291
-5.32328
-3.30182
-5.66415
-11.1908
-1.99013
-9.20067
5.90069
-6.77168
-4.5756
7.08725
1.54256
-5.17515
5.06351
-5.79499
5.59405
-0.214605
13.0189
15.6532
7.47679
-8.46948
15.9463
-15.382
23.0684
-29.0269
13.6449
15.4162
-22.5684
-13.6106
2.87089
2.27908
2.78075
13.7076
-14.8506
1.14297
-13.6435
17.7509
-4.10742
-20.1326
6.4891
-6.42501
5.56772
0.508359
5.533
1.56231
7.02961
-8.59192
-4.52086
-4.58848
-8.94495
-13.6099
22.5549
4.85756
-13.0006
8.14307
-12.2918
17.1494
0.216916
-13.2175
17.4114
-10.3818
17.9197
-12.0749
5.84484
12.6629
22.1625
-9.49959
15.9857
-6.53591
6.84452
-16.3441
-6.76542
-11.3905
18.2594
-12.9052
14.7016
-0.955966
15.6575
-13.9887
3.18781
-1.98997
8.8022
9.00696
16.6746
-12.4516
11.9133
-18.4492
-4.43085
-15.9276
-3.20597
0.903883
-13.8278
12.9239
12.2705
-11.3666
-3.44375
9.42949
-5.98574
6.03157
-3.02737
-3.0042
-1.96895
-3.2612
1.99148
0.673384
6.70495
0.521413
-3.54878
-2.13665
-2.02521
10.5039
8.75301
-4.22441
3.96377
3.98968
-0.64297
1.06191
2.38156
5.02143
-3.95952
0.747779
4.27365
-2.52097
4.16835
1.56341
-4.19598
-0.0662901
-3.58353
12.2646
3.39186
-5.78674
1.82722
2.38795
-13.8748
19.2755
-11.093
-8.18259
21.6635
2.99913
-14.0921
15.7743
-13.2049
7.8891
-14.1042
-6.20299
-19.4079
-12.5501
-10.6163
18.7594
-11.9386
19.7234
3.66347
-20.0663
23.7298
-12.8734
6.51991
-9.88268
11.4461
-4.27592
-5.60675
11.2453
10.2042
-10.9696
-0.755675
0.275621
8.67593
-8.40031
-1.54981
-7.96624
-16.3937
17.8205
-8.27108
17.5796
7.67518
-7.61513
25.1947
6.58301
-14.1981
-11.8737
-12.968
-5.64319
10.594
-1.96392
-7.85941
-14.5309
7.9292
-0.0525951
-19.3209
22.4917
-3.17081
-12.2601
-1.44826
14.3053
-18.2952
2.00998
-11.3084
11.1833
12.5736
12.521
-20.5116
-0.122254
-12.3262
3.26535
-15.5916
15.2565
-6.84062
16.9427
-15.905
11.3294
-14.3624
13.9268
-1.66474
14.2438
-9.26804
6.0213
-15.0444
-12.2064
15.0285
-8.63583
16.4648
-10.3315
26.7963
-17.3248
15.1711
11.6252
-2.90552
-9.04749
-14.7364
11.8308
0.434705
9.10418
17.7844
-10.6735
16.831
8.83288
-18.615
-8.36249
-25.8545
7.23957
-13.3422
-7.32741
14.567
11.1618
13.0293
4.76625
-11.7539
17.1572
-18.9023
-5.50547
-8.93075
15.208
-3.3772
10.1044
-19.0351
-5.35853
13.0533
-0.399606
-12.6536
2.74786
-15.062
5.2328
-20.2948
15.6411
-16.2692
1.84583
-8.27083
-3.32932
-3.44323
-2.22798
-3.56701
-7.82993
5.60196
-1.34083
3.72267
-12.6586
12.259
-5.09237
10.6943
-4.20497
-1.11831
4.37355
1.2205
11.9148
2.88709
-16.4977
-9.25636
14.7879
-5.53156
1.24756
-10.9407
3.84719
7.93892
13.7246
-24.094
1.52557
-14.9721
-4.26706
6.54614
5.16243
17.4329
2.58232
6.91729
-0.371149
9.49961
2.4096
2.33222
-11.1054
12.2484
1.81855
15.4634
-1.96207
7.80691
3.57093
3.57663
2.20016
5.92646
3.08049
9.11427
0.522352
-4.06613
2.18449
-4.2097
-1.36429
-4.26358
-0.430242
3.92122
-4.35146
10.8242
-2.07119
5.29264
-2.03234
-5.34775
7.38009
-9.80239
-5.99072
-1.71707
-5.93189
7.75911
6.33269
-6.04204
-3.76035
2.36641
-14.9165
11.7378
-12.4934
-2.28925
21.4405
-9.76122
1.36092
-3.24131
-6.60532
-8.13849
8.20478
24.1909
1.00383
12.2651
18.8243
11.7506
1.07717
12.0691
-15.8209
-10.4477
-15.9432
-0.68671
13.6186
5.55865
20.0746
17.1839
13.8067
-5.22847
-24.1308
20.3676
-8.11924
16.2602
-3.60653
-16.6883
14.466
8.6024
-17.011
0.741742
-15.9466
-24.0658
-0.437921
12.6969
-11.4769
10.3586
7.28568
1.91499
-2.55896
-0.884273
2.67672
-0.344502
9.1551
-0.168962
-8.65977
8.82873
-3.75225
2.38797
-0.598048
4.56182
6.78204
4.71085
-3.94892
-8.30038
-8.79319
-5.08163
-16.9758
2.50929
-8.84198
6.00827
-3.6203
3.00407
5.20842
10.5011
-1.69697
-9.66962
7.6827
-4.67863
5.82244
)
;

boundaryField
{
    wall-4
    {
        type            calculated;
        value           uniform 0;
    }
    velocity-inlet-5
    {
        type            calculated;
        value           uniform -11.2529;
    }
    velocity-inlet-6
    {
        type            calculated;
        value           uniform -1.87548;
    }
    pressure-outlet-7
    {
        type            calculated;
        value           nonuniform List<scalar> 8(4.64948 5.01013 11.4555 11.8829 17.015 15.483 16.9138 15.115);
    }
    wall-8
    {
        type            calculated;
        value           uniform 0;
    }
    frontAndBackPlanes
    {
        type            empty;
        value           nonuniform List<scalar> 0();
    }
}


// ************************************************************************* //
