/*--------------------------------*- C++ -*----------------------------------*\
  =========                 |
  \\      /  F ield         | OpenFOAM: The Open Source CFD Toolbox
   \\    /   O peration     | Website:  https://openfoam.org
    \\  /    A nd           | Version:  9
     \\/     M anipulation  |
\*---------------------------------------------------------------------------*/
FoamFile
{
    format      ascii;
    class       surfaceScalarField;
    location    "4.99";
    object      alphaPhi0.water;
}
// * * * * * * * * * * * * * * * * * * * * * * * * * * * * * * * * * * * * * //

dimensions      [0 3 -1 0 0 0 0];

internalField   nonuniform List<scalar> 
4432
(
2.70799e-07
-2.70799e-07
5.46605e-07
-2.75802e-07
8.01554e-07
-2.54952e-07
1.02925e-06
-2.27697e-07
1.22719e-06
-1.97932e-07
1.39394e-06
-1.66752e-07
1.53285e-06
-1.38913e-07
1.65112e-06
-1.1827e-07
1.75574e-06
-1.04623e-07
1.85115e-06
-9.54095e-08
1.94284e-06
-9.16892e-08
2.03805e-06
-9.52131e-08
2.14854e-06
-1.10499e-07
2.29181e-06
-1.43273e-07
2.4838e-06
-1.91987e-07
2.70065e-06
-2.16852e-07
2.7077e-06
-7.05345e-09
1.9445e-06
7.62416e-07
6.28559e-07
1.31535e-06
-4.67709e-07
1.09539e-06
-8.23113e-07
3.55074e-07
-4.76907e-07
-3.4713e-07
-4.77836e-07
2.73377e-07
-5.44179e-07
5.36396e-07
-5.38814e-07
7.83512e-07
-5.0207e-07
1.00898e-06
-4.53159e-07
1.20839e-06
-3.97338e-07
1.38049e-06
-3.38859e-07
1.52797e-06
-2.86392e-07
1.65578e-06
-2.46083e-07
1.76819e-06
-2.17038e-07
1.86747e-06
-1.94692e-07
1.95544e-06
-1.79662e-07
2.03591e-06
-1.75684e-07
2.1139e-06
-1.88492e-07
2.19432e-06
-2.23705e-07
2.27696e-06
-2.74621e-07
2.33422e-06
-2.74115e-07
2.24682e-06
8.02022e-08
1.74239e-06
1.26702e-06
8.86854e-07
2.17105e-06
1.00761e-07
1.88165e-06
-3.34186e-07
7.90816e-07
-3.88488e-07
-2.92798e-07
-8.67356e-07
2.75955e-07
-8.20136e-07
5.32948e-07
-7.95803e-07
7.75256e-07
-7.44375e-07
1.00021e-06
-6.78114e-07
1.20235e-06
-5.9947e-07
1.37944e-06
-5.15948e-07
1.53327e-06
-4.40222e-07
1.66751e-06
-3.80327e-07
1.78461e-06
-3.34135e-07
1.88447e-06
-2.9456e-07
1.96669e-06
-2.6188e-07
2.032e-06
-2.40988e-07
2.08074e-06
-2.37229e-07
2.11045e-06
-2.5342e-07
2.1127e-06
-2.76871e-07
2.06503e-06
-2.26439e-07
1.91797e-06
2.19604e-07
1.55116e-06
1.58299e-06
1.08432e-06
2.59477e-06
5.42172e-07
2.39729e-06
1.02859e-07
1.22216e-06
-1.33448e-07
-5.64614e-08
-1.00077e-06
2.75265e-07
-1.0954e-06
5.31618e-07
-1.05215e-06
7.7426e-07
-9.87016e-07
1.00212e-06
-9.05976e-07
1.20917e-06
-8.06515e-07
1.39221e-06
-6.98987e-07
1.55233e-06
-6.00337e-07
1.69232e-06
-5.20311e-07
1.81317e-06
-4.54989e-07
1.91276e-06
-3.94145e-07
1.98857e-06
-3.37693e-07
2.03902e-06
-2.91441e-07
2.06114e-06
-2.59348e-07
2.04782e-06
-2.40092e-07
1.9865e-06
-2.15559e-07
1.85881e-06
-9.87437e-08
1.6596e-06
3.97519e-07
1.45442e-06
1.78743e-06
1.23882e-06
2.80976e-06
8.95647e-07
2.73987e-06
5.37084e-07
1.58587e-06
1.93344e-07
2.87827e-07
-8.07439e-07
2.73715e-07
-1.36912e-06
5.3246e-07
-1.31089e-06
7.79458e-07
-1.23401e-06
1.01337e-06
-1.13988e-06
1.22735e-06
-1.0205e-06
1.4173e-06
-8.8893e-07
1.58386e-06
-7.669e-07
1.72932e-06
-6.65768e-07
1.85352e-06
-5.79193e-07
1.95239e-06
-4.93013e-07
2.02163e-06
-4.0693e-07
2.0581e-06
-3.27913e-07
2.05689e-06
-2.58142e-07
2.00864e-06
-1.91839e-07
1.90029e-06
-1.07218e-07
1.72027e-06
8.12807e-08
1.49713e-06
6.12371e-07
1.41985e-06
1.86549e-06
1.35159e-06
2.87743e-06
1.19847e-06
2.89239e-06
9.48057e-07
1.87072e-06
5.02444e-07
7.33593e-07
-3.05014e-07
2.73301e-07
-1.64242e-06
5.36813e-07
-1.5744e-06
7.91094e-07
-1.48829e-06
1.03348e-06
-1.38226e-06
1.25594e-06
-1.24296e-06
1.45347e-06
-1.08645e-06
1.62654e-06
-9.39973e-07
1.7772e-06
-8.16434e-07
1.90443e-06
-7.06422e-07
2.00231e-06
-5.90893e-07
2.06513e-06
-4.69742e-07
2.08905e-06
-3.51839e-07
2.06862e-06
-2.37706e-07
1.99442e-06
-1.17647e-07
1.85638e-06
3.08278e-08
1.65338e-06
2.84278e-07
1.43725e-06
8.28502e-07
1.39697e-06
1.90082e-06
1.45013e-06
2.84539e-06
1.46585e-06
2.92357e-06
1.25409e-06
2.1078e-06
7.53424e-07
1.23426e-06
4.48395e-07
2.74928e-07
-1.91735e-06
5.45769e-07
-1.84524e-06
8.09276e-07
-1.7518e-06
1.06166e-06
-1.63465e-06
1.29349e-06
-1.47478e-06
1.49886e-06
-1.29182e-06
1.67828e-06
-1.1194e-06
1.83375e-06
-9.71908e-07
1.96354e-06
-8.36212e-07
2.06012e-06
-6.87464e-07
2.11678e-06
-5.26402e-07
2.12987e-06
-3.64931e-07
2.09456e-06
-2.02396e-07
2.00305e-06
-2.61282e-08
1.85055e-06
1.83325e-07
1.64619e-06
4.88628e-07
1.45362e-06
1.02107e-06
1.43149e-06
1.92278e-06
1.56064e-06
2.73519e-06
1.64847e-06
2.85868e-06
1.4682e-06
2.28993e-06
9.68897e-07
1.73356e-06
1.41729e-06
2.79686e-07
-2.19704e-06
5.59191e-07
-2.12475e-06
8.33023e-07
-2.02563e-06
1.09594e-06
-1.89756e-06
1.33728e-06
-1.71612e-06
1.55032e-06
-1.50487e-06
1.7357e-06
-1.30478e-06
1.89538e-06
-1.13159e-06
2.02703e-06
-9.6786e-07
2.12176e-06
-7.82199e-07
2.17245e-06
-5.7709e-07
2.17639e-06
-3.6887e-07
2.13039e-06
-1.56396e-07
2.02893e-06
7.53344e-08
1.8732e-06
3.39047e-07
1.68042e-06
6.81409e-07
1.5143e-06
1.18719e-06
1.50228e-06
1.9348e-06
1.63988e-06
2.59757e-06
1.74435e-06
2.75419e-06
1.6213e-06
2.41298e-06
1.1938e-06
2.16106e-06
2.61109e-06
-1.07976e-06
1.07784e-06
-6.02709e-07
-4.7951e-07
-1.03263e-07
-5.03171e-07
1.98719e-07
-3.04208e-07
2.99345e-07
-1.01733e-07
2.68282e-07
3.10599e-08
1.85701e-07
8.25777e-08
2.01984e-07
-1.62869e-08
5.70102e-07
-3.6653e-07
1.24993e-06
-6.77736e-07
1.25697e-06
-6.89336e-09
1.97545e-07
1.05957e-06
-2.10912e-06
2.31647e-06
-3.03884e-06
8.89635e-07
-8.70699e-07
-2.19598e-06
1.55205e-06
-2.42275e-06
2.93015e-06
-1.37809e-06
2.41181e-06
5.14598e-07
2.39864e-06
-3.60848e-07
1.43676e-06
-2.63864e-07
-5.78334e-07
-1.25438e-07
-6.41596e-07
-4.17553e-08
-3.87887e-07
-3.05632e-08
-1.12925e-07
-8.3131e-08
8.39566e-08
-1.39957e-07
1.40303e-07
-1.04952e-07
-5.1437e-08
1.35556e-07
-6.09172e-07
4.5158e-07
-9.94214e-07
3.08692e-07
1.36103e-07
-4.82288e-07
1.85072e-06
-1.59598e-06
3.37264e-06
-1.42212e-06
6.7572e-07
-7.41403e-08
-3.55281e-06
1.41619e-06
-3.91309e-06
2.32256e-06
-2.28446e-06
2.24328e-06
5.93869e-07
4.62875e-06
1.56031e-08
1.43431e-06
-1.22515e-07
-4.40607e-07
-1.81118e-07
-5.83014e-07
-2.23678e-07
-3.45327e-07
-2.86059e-07
-5.05511e-08
-3.77436e-07
1.7534e-07
-4.55358e-07
2.18229e-07
-4.66356e-07
-4.04344e-08
-3.72975e-07
-7.02631e-07
-2.52194e-07
-1.11547e-06
-4.77371e-07
3.56052e-07
-9.70064e-07
2.30311e-06
-1.08892e-06
3.49109e-06
-5.38338e-07
9.80463e-08
2.60868e-07
-4.35202e-06
1.24114e-06
-4.89336e-06
1.80092e-06
-2.84425e-06
1.80329e-06
5.91489e-07
6.45826e-06
7.30292e-08
1.36127e-06
-1.15652e-07
-2.52037e-07
-2.79223e-07
-4.19505e-07
-4.06072e-07
-2.18475e-07
-5.24918e-07
6.82892e-08
-6.5201e-07
3.02427e-07
-7.67012e-07
3.33668e-07
-8.44991e-07
3.81393e-08
-8.89567e-07
-6.5957e-07
-9.14127e-07
-1.081e-06
-1.05437e-06
5.02567e-07
-1.20394e-06
2.45259e-06
-7.79214e-07
3.06615e-06
-1.23063e-07
-5.56524e-07
3.78855e-07
-4.85499e-06
1.02463e-06
-5.53915e-06
1.33878e-06
-3.1584e-06
1.38262e-06
5.47646e-07
7.84416e-06
1.28943e-08
1.34831e-06
-1.83432e-07
-5.57289e-08
-4.13223e-07
-1.89718e-07
-6.01815e-07
-2.98905e-08
-7.65479e-07
2.31947e-07
-9.2745e-07
4.64395e-07
-1.07952e-06
4.87697e-07
-1.22094e-06
1.79022e-07
-1.37808e-06
-5.03474e-07
-1.54808e-06
-8.92325e-07
-1.48911e-06
5.00926e-07
-1.30191e-06
2.26531e-06
-6.03964e-07
2.36811e-06
4.34809e-08
-1.216e-06
3.07518e-07
-5.1195e-06
7.11876e-07
-5.94351e-06
8.52515e-07
-3.27847e-06
9.6692e-07
4.35742e-07
8.81179e-06
-2.68075e-08
1.37518e-06
-2.84692e-07
2.02157e-07
-5.74746e-07
1.00331e-07
-8.12694e-07
2.08092e-07
-1.01211e-06
4.31283e-07
-1.2027e-06
6.55002e-07
-1.38622e-06
6.72849e-07
-1.57127e-06
3.6401e-07
-1.79903e-06
-2.77568e-07
-2.05507e-06
-6.36528e-07
-1.8712e-06
4.02099e-07
-1.39501e-06
1.78904e-06
-5.55656e-07
1.52867e-06
-2.59083e-08
-1.77576e-06
5.05698e-08
-5.19596e-06
2.34693e-07
-6.12728e-06
3.16285e-07
-3.34338e-06
5.17278e-07
2.3829e-07
9.32979e-06
-5.14383e-09
1.38032e-06
-3.98675e-07
5.9569e-07
-7.55313e-07
4.56964e-07
-1.03619e-06
4.89039e-07
-1.2633e-06
6.58437e-07
-1.47231e-06
8.63768e-07
-1.67282e-06
8.73153e-07
-1.8785e-06
5.69675e-07
-2.12866e-06
-2.74152e-08
-2.36222e-06
-4.01886e-07
-2.18958e-06
2.57843e-07
-1.54336e-06
1.20611e-06
-6.71034e-07
6.77584e-07
-2.82528e-07
-2.16425e-06
-3.94118e-07
-5.08436e-06
-3.89314e-07
-6.12717e-06
-3.43131e-07
-3.36259e-06
-8.50165e-08
-1.95669e-08
9.08028e-06
-2.17311e-08
1.40203e-06
-5.37376e-07
1.11132e-06
-9.48236e-07
8.67815e-07
-1.26731e-06
8.08106e-07
-1.51666e-06
9.07775e-07
-1.73346e-06
1.08056e-06
-1.93031e-06
1.07e-06
-2.13144e-06
7.70801e-07
-2.35865e-06
2.06171e-07
-2.53668e-06
-2.26032e-07
-2.35759e-06
7.47604e-08
-1.69663e-06
5.45104e-07
-9.22275e-07
-9.67443e-08
-6.76612e-07
-2.40989e-06
-9.32398e-07
-4.82856e-06
-1.16325e-06
-5.89628e-06
-1.10925e-06
-3.39001e-06
-1.0232e-06
-1.14548e-07
7.79121e-06
6.11035e-07
-2.80807e-06
1.23892e-06
-2.75263e-06
1.8575e-06
-2.6442e-06
2.45135e-06
-2.4914e-06
2.99506e-06
-2.25982e-06
3.47194e-06
-1.98174e-06
3.88431e-06
-1.71715e-06
4.23478e-06
-1.48206e-06
4.51881e-06
-1.25189e-06
4.71135e-06
-9.74727e-07
4.79837e-06
-6.64109e-07
4.78064e-06
-3.51135e-07
4.65908e-06
-3.48354e-08
4.43133e-06
3.03084e-07
4.11386e-06
6.56509e-07
3.75937e-06
1.0359e-06
3.48535e-06
1.46121e-06
3.47609e-06
1.94405e-06
3.71212e-06
2.36154e-06
3.91298e-06
2.55332e-06
3.80529e-06
2.52067e-06
3.5024e-06
2.46395e-06
2.51367e-06
3.59982e-06
5.88933e-07
-2.95236e-06
1.2681e-06
-2.9908e-06
1.91315e-06
-2.86727e-06
2.52252e-06
-2.69551e-06
3.08652e-06
-2.43891e-06
3.59331e-06
-2.12796e-06
4.03761e-06
-1.827e-06
4.4015e-06
-1.53872e-06
4.66228e-06
-1.24019e-06
4.80374e-06
-9.12566e-07
4.83871e-06
-5.71492e-07
4.77384e-06
-2.38128e-07
4.62004e-06
7.28863e-08
4.38821e-06
3.70692e-07
4.11712e-06
6.49893e-07
3.85132e-06
9.11606e-07
3.66924e-06
1.14895e-06
3.65163e-06
1.37264e-06
3.75948e-06
1.57239e-06
3.80572e-06
1.73255e-06
3.62473e-06
1.84508e-06
3.23841e-06
1.93672e-06
2.03219e-06
2.75691e-06
3.52817e-07
-1.51586e-08
6.04023e-07
-9.71884e-09
8.22772e-07
-9.03711e-09
9.92575e-07
-4.4599e-09
1.17566e-06
-8.5437e-09
1.38871e-06
-3.05571e-08
1.57345e-06
-2.94132e-08
1.68545e-06
-2.16385e-08
1.71993e-06
-1.54933e-08
1.7117e-06
-1.03899e-08
1.67324e-06
-5.46809e-09
1.60531e-06
-6.09394e-10
1.50865e-06
2.22446e-09
1.4089e-06
3.50178e-09
1.31438e-06
6.83148e-09
1.23701e-06
1.26687e-08
1.18508e-06
2.05806e-08
1.14404e-06
2.71285e-08
1.11221e-06
0
1.07483e-06
1.62998e-08
1.00073e-06
3.38757e-09
8.54417e-07
2.45063e-08
0
6.17879e-07
1.0882e-09
-1.8516e-08
1.02889e-09
-1.19113e-08
1.09895e-09
-1.13528e-08
7.64158e-10
-6.38556e-09
6.92425e-10
-1.06944e-08
1.43575e-09
-3.34701e-08
1.96167e-09
-3.20531e-08
2.19538e-09
-2.39406e-08
2.31323e-09
-1.76451e-08
2.37973e-09
-1.24667e-08
2.4127e-09
-7.50271e-09
2.42133e-09
-2.62487e-09
2.64053e-09
0
3.33517e-09
0
4.4496e-09
0
6.32308e-09
0
8.9407e-09
0
8.9741e-09
0
6.11354e-09
1.52208e-09
8.58722e-09
0
9.30672e-09
0
8.74241e-09
7.32637e-12
0
2.08065e-09
-2.58054e-09
-1.50112e-08
-3.28836e-09
-1.02759e-08
-4.84654e-09
-4.32154e-09
-2.28985e-12
-1.57955e-10
-6.01073e-09
-7.16112e-09
-4.09806e-09
-2.8277e-08
-5.19299e-09
-2.48546e-08
-3.46364e-09
-1.98177e-08
1.68069e-09
-1.68478e-08
7.26372e-09
-1.41088e-08
1.2916e-08
-9.30322e-09
1.87832e-08
-4.64062e-09
2.36283e-08
-9.84242e-10
2.65035e-08
9.76197e-10
2.65313e-08
3.8331e-09
2.56318e-08
4.78596e-09
3.59983e-09
2.64949e-10
2.89232e-09
2.92127e-09
7.65918e-09
2.79186e-10
7.23273e-09
1.24132e-09
3.06127e-09
1.68583e-09
6.94224e-10
2.77839e-09
3.27405e-09
-6.77513e-10
-2.28461e-09
-7.13646e-09
-2.13094e-09
-7.68827e-09
-8.02279e-10
-6.02278e-09
1.54112e-09
-3.99473e-09
5.04433e-09
-1.03178e-08
8.95245e-10
-3.83501e-09
-1.00075e-09
-2.64918e-10
-1.59964e-09
-2.12841e-11
-1.28373e-09
-2.44438e-13
-3.86582e-10
-2.59605e-14
9.45861e-10
-4.91763e-14
2.39926e-09
-1.40738e-12
3.25476e-09
-2.22362e-12
3.0237e-09
-3.4568e-12
1.7322e-09
9.91615e-13
-5.6097e-11
3.62663e-12
-1.42572e-09
0
-9.30882e-10
1.07531e-09
-9.05612e-11
2.98061e-09
-1.38581e-09
6.00218e-11
-3.05363e-09
0
-2.25058e-09
0
1.43592e-09
-1.33462e-09
-2.87302e-10
-3.61485e-15
-4.75061e-10
-3.71054e-14
3.96483e-10
-8.48244e-14
1.71497e-09
-1.1339e-14
6.36967e-10
-3.11334e-14
2.27263e-10
-2.071e-11
2.40155e-14
-3.7626e-11
-8.42596e-15
-2.12436e-11
-1.26574e-14
-2.40936e-13
-1.42268e-14
-2.51705e-14
-1.66346e-14
-4.7498e-14
-2.04552e-14
-1.40433e-12
-2.87889e-14
-2.22574e-12
-3.50571e-12
0
-4.02942e-12
1.50149e-12
-5.05782e-12
0
-6.16046e-11
0
-4.24522e-10
0
-4.60584e-10
0
-5.39115e-10
0
-4.36714e-10
1.83564e-11
-1.14833e-09
1.66035e-10
4.85071e-10
-1.13546e-09
1.7912e-16
-7.36622e-15
1.55923e-16
-4.21071e-14
4.33095e-17
-9.10389e-14
-1.21072e-16
-1.73187e-14
-2.10466e-14
-1.5892e-14
-2.07322e-11
-1.52926e-15
-1.05774e-11
-1.01992e-15
-7.16983e-12
-5.87333e-14
-3.06787e-14
-6.11981e-14
-3.71279e-14
-1.94508e-14
-3.10846e-14
-5.74811e-14
-7.70091e-12
-2.88299e-12
-1.25775e-11
-1.82189e-12
-2.29621e-12
3.38158e-12
-8.41174e-13
3.69061e-14
0
2.68266e-13
-9.9642e-10
1.02266e-10
-9.71931e-10
4.1239e-10
-1.00261e-09
4.68903e-10
0
7.22589e-11
-3.91461e-11
3.12805e-10
-5.88891e-10
5.15336e-10
3.14503e-10
-8.53905e-10
9.4985e-16
-4.61523e-15
1.51441e-15
-1.38603e-13
-3.86791e-15
-5.3179e-13
-5.0389e-15
-1.09707e-13
-1.2799e-15
-1.75134e-15
-1.56367e-15
-1.24567e-15
-1.83862e-15
-9.15293e-16
-5.91115e-14
-1.54586e-15
0
0
-1.89248e-14
-1.3083e-15
-5.45372e-12
-1.31154e-13
-2.62244e-11
-2.4119e-12
-2.09762e-11
7.55412e-13
-5.46849e-13
3.28319e-12
-5.35655e-13
2.72912e-14
0
2.26512e-13
-3.35725e-11
0
-2.46767e-10
5.44176e-13
-2.89061e-10
1.02938e-12
-3.80485e-10
6.54007e-11
-4.00772e-10
1.70091e-10
-2.98979e-10
0
0
-1.56417e-10
3.6646e-15
-5.09834e-15
-3.34529e-14
-3.55293e-13
-5.18558e-14
-4.49166e-13
-8.95641e-16
-1.64609e-13
-1.38524e-15
-1.26192e-15
-1.70097e-15
-9.30131e-16
-1.93114e-15
-6.85301e-16
-2.49827e-15
-9.80095e-16
-5.21911e-16
-2.31506e-15
0
-9.65848e-13
-3.61309e-12
-7.41727e-13
-2.26726e-11
-4.17617e-13
-2.06053e-11
1.47284e-12
-7.86436e-13
0
-7.78686e-13
2.39121e-14
-5.95358e-13
1.5602e-13
-3.86892e-13
3.08596e-14
-4.41181e-13
0
-2.52963e-12
0
-1.47155e-11
0
-1.42431e-12
0
-2.40661e-13
0
2.91738e-14
-3.53921e-13
-5.66571e-15
-4.93374e-15
-8.00487e-14
-1.74111e-13
-7.20839e-14
-1.18488e-13
-1.38759e-15
-8.82113e-14
-1.40814e-15
-1.24154e-15
-1.71691e-15
-6.21543e-16
-1.21093e-15
-1.19264e-15
0
-2.54207e-13
-5.5504e-12
-9.75113e-13
-9.61272e-12
-6.48318e-13
-1.39067e-11
-1.08394e-13
-1.19525e-12
3.52535e-13
-3.90905e-14
0
-6.05629e-14
0
-4.94279e-14
1.74731e-14
-8.89541e-15
5.51831e-16
-1.77865e-14
1.73169e-15
-7.44263e-13
1.43278e-13
-6.77365e-12
7.25252e-12
-6.31908e-12
5.76865e-12
-1.49101e-12
6.80842e-12
-1.26105e-13
1.92873e-12
2.96522e-14
-1.26963e-13
-3.73569e-16
0
-3.45804e-14
-3.5731e-15
-4.28801e-14
-6.23457e-15
-1.02001e-14
-2.09966e-15
-1.6841e-15
-1.13232e-15
-1.78611e-15
-5.21361e-16
-2.62675e-15
-4.29781e-16
-7.8173e-12
-7.06145e-14
-8.21565e-12
-8.77237e-15
-8.62283e-12
3.18689e-13
-3.66042e-13
2.49146e-13
-2.19582e-14
1.26721e-15
-1.33742e-14
2.5604e-15
-6.07354e-15
3.36797e-15
-6.04965e-16
5.65017e-16
-3.20218e-16
1.71126e-16
-1.25459e-15
1.98456e-15
-7.72697e-12
1.03434e-12
-2.17676e-11
9.48025e-12
-2.52088e-11
9.23343e-12
-2.6878e-11
8.84172e-12
-1.02623e-13
6.30735e-12
2.76598e-14
-1.00703e-13
-1.72835e-16
-1.29543e-14
-3.94312e-17
-1.48073e-14
-5.47073e-17
-6.25177e-15
-2.13832e-15
-3.51721e-17
-3.17081e-15
-5.56443e-16
-1.22554e-16
-8.63452e-16
0
3.65894e-16
-3.19637e-12
1.02066e-13
-6.43185e-12
1.06777e-13
-2.31215e-12
9.36032e-15
-2.21337e-14
0
-2.95016e-14
1.43128e-15
-1.32482e-14
5.22999e-15
-9.51052e-16
3.98411e-15
-4.1848e-16
1.48711e-16
-3.0597e-16
1.61219e-16
-6.99185e-16
2.12558e-15
-8.26612e-12
8.94156e-13
-2.43362e-11
4.9237e-12
-2.27901e-11
7.71104e-12
-2.01493e-11
6.22465e-12
-6.34778e-14
4.04238e-12
2.59131e-14
-6.18035e-14
-6.30721e-14
-7.08054e-14
-4.33948e-14
-2.72177e-13
-1.5243e-15
-1.20594e-14
-1.55196e-15
-1.32159e-17
-1.18615e-15
-6.23889e-17
0
1.36471e-15
-3.24812e-13
1.08509e-14
-1.04602e-13
0
-1.58143e-14
0
-1.1955e-15
0
-3.6394e-15
0
-1.10427e-14
1.61951e-15
-5.70775e-15
2.02128e-15
-4.874e-16
2.97929e-16
-3.57732e-16
1.35641e-16
-2.00413e-16
1.34263e-16
0
2.49468e-16
0
2.87649e-16
-7.50942e-12
0
-1.48144e-11
5.5808e-13
-6.35085e-12
1.01863e-12
-7.24887e-14
0
2.39754e-14
-7.06241e-14
-1.5616e-13
-8.46413e-14
-3.97425e-14
-1.46304e-13
-2.91131e-15
-6.70643e-15
-2.91754e-15
2.49859e-18
-7.88016e-15
5.37763e-16
-1.98812e-14
2.24008e-15
-3.47254e-15
3.6303e-16
-9.25079e-16
0
-1.77573e-16
4.11788e-17
-2.09664e-16
1.71407e-17
-1.36942e-15
4.15216e-17
-1.22241e-15
1.07852e-16
-2.84722e-16
2.08127e-17
-2.67037e-16
1.82314e-17
-2.59498e-16
8.24574e-17
-2.26038e-16
8.61318e-17
-3.0536e-16
8.58845e-17
-3.82518e-16
5.69475e-17
-1.83717e-14
7.53173e-16
-5.2695e-14
7.32705e-16
-1.32736e-14
8.48789e-17
-1.65117e-13
0
5.82342e-14
-1.5972e-13
-2.50262e-13
-3.48605e-14
-1.08816e-13
-4.53835e-14
-2.23729e-15
4.45956e-15
-2.23567e-15
1.66699e-17
-3.52478e-15
5.16175e-16
-2.90533e-15
3.81863e-16
-6.17638e-16
6.62265e-17
-3.47248e-16
6.0815e-17
-8.84667e-17
4.55961e-17
-2.79239e-17
8.76988e-18
-4.25071e-17
8.78817e-19
-6.72742e-18
9.37114e-19
-1.27137e-17
2.67658e-18
-6.02482e-17
1.48707e-18
-1.2356e-16
1.56916e-17
-2.21485e-16
4.60886e-17
-2.5655e-16
8.84205e-17
-2.09755e-16
9.14818e-17
-2.29333e-16
6.55355e-17
-2.00088e-16
5.01129e-17
-1.17556e-17
3.47534e-17
-2.22833e-14
1.05635e-16
3.60197e-16
-8.59313e-14
-2.69688e-13
-2.30703e-14
-1.44588e-13
8.87083e-14
-8.93659e-16
2.91933e-15
-8.88995e-16
2.94011e-17
-8.689e-16
1.85244e-16
-3.06171e-16
1.00314e-16
-1.55313e-16
1.97733e-17
-7.81321e-17
1.55545e-17
-1.35968e-17
4.85126e-18
-4.17415e-19
3.02145e-18
-1.80448e-19
9.40349e-20
7.37604e-19
1.77553e-20
-5.58049e-19
-2.87797e-19
-2.03029e-18
2.1563e-19
-3.02646e-17
2.32881e-18
-1.37417e-16
1.272e-17
-2.54903e-16
5.57668e-17
-2.7447e-16
8.89398e-17
-2.61765e-16
8.48158e-17
-2.16755e-16
7.59671e-17
-8.64065e-17
4.48726e-17
-5.68958e-17
2.09182e-17
4.0088e-18
-2.05196e-16
-1.99015e-13
1.76253e-13
-1.4816e-13
2.47705e-13
-2.17669e-16
5.52769e-15
-2.12265e-16
4.16491e-17
-1.9777e-16
5.69295e-17
-4.63865e-17
3.65732e-17
-1.34363e-17
3.00323e-18
-2.71075e-18
3.05794e-18
9.28835e-19
5.44714e-19
4.09325e-18
-4.20175e-19
4.90285e-18
-1.77797e-18
4.48662e-18
-2.05661e-18
2.8504e-18
-1.82389e-18
-1.14968e-20
-1.12307e-18
-2.7255e-18
4.37165e-21
-1.708e-17
1.78654e-18
-6.97129e-17
2.76466e-18
-1.1812e-16
1.04203e-17
-1.15461e-16
1.66765e-17
-1.12532e-16
1.6197e-17
-8.85849e-17
2.05316e-17
-3.68916e-17
1.90051e-17
4.52554e-18
-1.08348e-17
-1.94128e-13
3.70622e-13
-1.91888e-13
4.57559e-13
-9.14178e-17
2.66254e-14
-8.5894e-17
5.37643e-17
-6.58579e-17
5.42531e-17
-4.71116e-18
2.9405e-17
-3.4872e-19
4.36764e-19
2.70729e-18
1.86954e-21
4.72528e-18
-1.42507e-18
6.18317e-18
-2.33179e-18
6.53968e-18
-2.8809e-18
6.02611e-18
-2.89202e-18
4.94873e-18
-2.53678e-18
3.50386e-18
-1.98323e-18
1.7232e-18
-1.33257e-18
-2.15572e-19
-6.18185e-19
-7.16813e-19
7.2419e-20
-4.55801e-18
6.70444e-19
-9.99818e-18
2.0781e-18
-1.4377e-17
3.58856e-19
-1.4287e-17
5.67009e-19
-1.12036e-17
9.17686e-19
1.08555e-18
-6.36991e-18
-1.95539e-13
5.66401e-13
-2.12384e-13
4.74645e-13
-1.04464e-16
4.1155e-14
-9.85558e-17
6.55076e-17
-6.24924e-17
7.77507e-17
-2.45229e-18
3.32923e-17
1.4642e-18
3.99869e-19
3.44084e-18
-9.32125e-19
4.87575e-18
-1.99928e-18
5.61449e-18
-2.61335e-18
5.70859e-18
-2.79707e-18
5.29453e-18
-2.6569e-18
4.56918e-18
-2.30835e-18
3.69518e-18
-1.86649e-18
2.78666e-18
-1.41109e-18
1.91884e-18
-9.90733e-19
1.1503e-18
-6.32401e-19
4.22784e-19
-3.5087e-19
-1.52626e-20
-1.19955e-19
-1.49307e-20
4.08957e-21
-1.28865e-19
1.15205e-20
-4.15872e-19
6.87668e-20
1.52448e-19
-7.05741e-19
-1.89188e-13
7.5583e-13
-4.10948e-14
3.49628e-13
-1.26611e-16
1.68746e-16
-1.59753e-16
8.04905e-17
-7.51154e-17
2.50112e-16
-3.70801e-18
4.31785e-17
7.57414e-19
1.91497e-18
2.04421e-18
-5.41614e-19
3.02708e-18
-1.31313e-18
3.52499e-18
-1.76678e-18
3.66106e-18
-1.88407e-18
3.49238e-18
-1.80101e-18
3.1012e-18
-1.5853e-18
2.59017e-18
-1.29931e-18
2.0579e-18
-9.99896e-19
1.56597e-18
-7.29824e-19
1.14577e-18
-5.08852e-19
8.04575e-19
-3.41153e-19
5.38423e-19
-2.20799e-19
3.40756e-19
-1.38118e-19
1.87132e-19
-8.35442e-20
6.94762e-20
-4.50152e-20
-1.67872e-20
-3.69943e-22
-1.06729e-13
0
-2.47153e-16
4.19681e-14
-1.90653e-16
9.62262e-17
-3.26332e-16
4.19136e-16
-1.13461e-16
5.25654e-16
-1.14929e-17
8.50522e-17
-4.22653e-18
1.04759e-17
-1.15354e-18
4.36836e-18
6.83573e-19
1.64803e-18
1.27026e-18
-4.37766e-19
1.60777e-18
-7.34545e-19
1.70939e-18
-8.43565e-19
1.63308e-18
-8.15621e-19
1.43715e-18
-7.08651e-19
1.1862e-18
-5.66179e-19
9.31151e-19
-4.23115e-19
7.0182e-19
-3.00023e-19
5.13647e-19
-2.04278e-19
3.67343e-19
-1.35722e-19
2.5557e-19
-8.91549e-20
1.69125e-19
-5.80463e-20
1.02147e-19
-3.67667e-20
-2.1706e-20
5.43124e-20
-1.02361e-15
2.6656e-16
-1.83077e-16
1.95796e-16
-4.01285e-16
6.89112e-16
-4.57685e-16
8.12147e-16
-1.52143e-16
6.38394e-16
-2.91053e-17
1.30094e-16
-1.89065e-17
3.41191e-17
-1.27956e-17
2.22409e-17
-6.32174e-18
1.31583e-17
-1.95578e-18
5.59449e-18
1.63137e-19
1.73614e-18
5.0656e-19
-9.25029e-20
6.39466e-19
-2.57501e-19
6.38525e-19
-2.91244e-19
5.66188e-19
-2.5993e-19
4.63819e-19
-2.05275e-19
3.56752e-19
-1.49238e-19
2.62982e-19
-1.01674e-19
1.88811e-19
-6.64956e-20
1.33217e-19
-4.26508e-20
9.16985e-20
-2.72233e-20
5.94978e-20
-1.7227e-20
-1.04317e-20
3.46985e-20
-3.63206e-17
3.0619e-16
-1.77558e-16
2.5079e-16
-3.944e-16
8.42174e-16
-3.64024e-16
9.89866e-16
-1.48601e-16
6.84264e-16
-5.26098e-17
1.52022e-16
-4.23401e-17
7.1714e-17
-3.36052e-17
5.33365e-17
-2.14826e-17
3.55971e-17
-1.0273e-17
1.90389e-17
-3.35045e-18
7.6933e-18
-5.001e-19
2.16015e-18
1.40142e-19
3.45969e-19
2.20878e-19
-6.81617e-20
2.24925e-19
-9.44234e-20
1.98209e-19
-8.40355e-20
1.56792e-19
-6.42915e-20
1.15845e-19
-4.38602e-20
8.208e-20
-2.7795e-20
5.68715e-20
-1.68354e-20
3.88978e-20
-9.95786e-21
2.57741e-20
-5.80172e-21
-3.24463e-21
1.54728e-20
-3.10411e-17
3.40529e-16
-1.45134e-16
2.78884e-16
-3.28722e-16
8.10224e-16
-3.42441e-16
9.58034e-16
-1.18102e-16
5.0987e-16
-7.08341e-17
1.61246e-16
-6.33155e-17
1.10553e-16
-5.40119e-17
8.74577e-17
-3.9149e-17
6.13503e-17
-2.17495e-17
3.6818e-17
-8.60208e-18
1.6755e-17
-2.08272e-18
5.38791e-18
-1.92036e-19
1.04694e-18
5.6721e-20
7.9447e-20
7.53365e-20
-2.60084e-20
7.4477e-20
-2.95467e-20
6.10141e-20
-2.46807e-20
4.50333e-20
-1.68223e-20
3.11529e-20
-1.01291e-20
2.07562e-20
-5.56631e-21
1.36411e-20
-2.82801e-21
8.91772e-21
-1.31347e-21
-5.05024e-22
5.45384e-21
-2.32383e-17
4.62194e-16
-6.78256e-17
2.64548e-16
-1.6039e-16
3.70502e-16
-1.57081e-16
3.88157e-16
-8.20339e-17
2.41871e-16
-7.43233e-17
1.60614e-16
-7.32219e-17
1.35959e-16
-6.50606e-17
1.16115e-16
-5.08648e-17
8.34975e-17
-3.15476e-17
5.34975e-17
-1.35361e-17
2.6221e-17
-3.32227e-18
8.56754e-18
-3.29892e-19
1.50475e-18
1.12291e-20
1.00049e-19
2.25688e-20
-5.68031e-21
2.53808e-20
-9.53102e-21
2.14595e-20
-8.76285e-21
1.57368e-20
-5.87415e-21
1.05649e-20
-3.25527e-21
6.69283e-21
-1.51634e-21
4.10706e-21
-5.49268e-22
2.5319e-21
-8.1487e-23
3.86987e-23
1.55549e-21
-1.78928e-17
1.24064e-15
-3.12067e-17
2.77392e-16
-4.13197e-17
3.80144e-16
-4.95497e-17
3.73408e-16
-5.68135e-17
2.03968e-16
-6.2348e-17
1.58188e-16
-6.69865e-17
1.42915e-16
-6.51284e-17
1.29398e-16
-5.32552e-17
1.00181e-16
-3.48295e-17
6.50773e-17
-1.49706e-17
3.23883e-17
-3.23866e-18
9.90659e-18
-2.52401e-19
1.52338e-18
2.02266e-21
8.58731e-20
6.50432e-21
-1.17276e-21
7.96657e-21
-3.06585e-21
6.8714e-21
-2.95154e-21
4.99921e-21
-1.89185e-21
3.24522e-21
-9.19224e-22
1.93852e-21
-3.03825e-22
1.09145e-21
-1.70602e-24
6.04788e-22
3.61432e-23
4.00279e-23
3.63249e-22
-1.42644e-17
5.89789e-15
-2.42362e-17
2.86893e-16
-3.133e-17
3.86768e-16
-3.71109e-17
3.78718e-16
-4.22286e-17
2.08584e-16
-4.68809e-17
1.61073e-16
-5.31248e-17
1.45089e-16
-5.3863e-17
1.3309e-16
-4.66237e-17
1.07234e-16
-3.09305e-17
6.97222e-17
-1.26937e-17
3.38696e-17
-2.33109e-18
9.94638e-18
-1.13862e-19
1.22354e-18
4.11355e-22
3.26763e-20
1.87429e-21
-2.88572e-22
2.33706e-21
-1.03936e-21
2.00907e-21
-9.73413e-22
1.42108e-21
-5.7008e-22
8.79791e-22
-2.16024e-22
4.9162e-22
-1.36543e-23
2.51912e-22
2.20983e-23
1.21088e-22
2.52451e-23
1.99853e-23
6.75554e-23
0
1.57627e-14
-8.76727e-14
6.88705e-13
-1.49523e-13
3.73041e-12
-4.08402e-14
3.36519e-12
-3.85478e-17
1.66735e-13
-3.65503e-17
1.61876e-16
-3.71773e-17
1.43021e-16
-3.65029e-17
1.35368e-16
-3.40052e-17
1.08842e-16
-2.25886e-17
7.06148e-17
-8.69095e-18
3.39948e-17
-1.16878e-18
8.51551e-18
-3.01485e-20
6.58416e-19
7.23974e-23
8.10791e-21
4.97209e-22
-6.67089e-23
6.16695e-22
-3.52249e-22
5.15727e-22
-3.12298e-22
3.48788e-22
-1.58516e-22
2.03267e-22
-3.52894e-23
1.04653e-22
8.50829e-24
4.77403e-23
1.33537e-23
1.90453e-23
1.13384e-23
7.71117e-24
8.13196e-24
0
1.82672e-14
-8.16023e-14
1.41818e-12
-1.75034e-13
3.82684e-12
-1.69834e-13
3.36321e-12
-3.22522e-17
1.02465e-12
-3.18224e-17
1.64321e-16
-2.12336e-17
1.44787e-16
-2.2609e-17
1.35508e-16
-2.00997e-17
1.05469e-16
-1.30061e-17
6.69216e-17
-4.19728e-18
2.8578e-17
-3.61387e-19
5.4034e-18
-4.43313e-21
2.43734e-19
6.08099e-24
1.25952e-21
1.20576e-22
-8.48784e-24
1.40528e-22
-1.26325e-22
1.09724e-22
-1.0041e-22
6.8457e-23
-4.11039e-23
3.57819e-23
1.06325e-25
1.55998e-23
5.39011e-24
5.33061e-24
5.64302e-24
9.76641e-25
4.13916e-24
2.54968e-24
-9.26111e-25
2.60789e-15
1.80879e-14
7.71135e-15
1.14768e-12
1.11935e-14
3.82658e-12
-3.28011e-15
3.38053e-12
-8.36099e-18
9.59495e-13
-7.08237e-18
1.66002e-16
-5.67792e-18
1.46393e-16
-7.08133e-18
1.29784e-16
-6.78506e-18
9.64671e-17
-4.25359e-18
5.61527e-17
-1.07895e-18
1.98835e-17
-5.56644e-20
2.57822e-18
-2.98352e-22
6.16917e-20
1.87855e-25
1.23224e-22
2.20284e-23
-5.5581e-25
2.18638e-23
-4.84338e-23
1.46532e-23
-3.2276e-23
7.28468e-24
-9.91313e-24
2.40544e-24
1.05828e-24
3.2962e-26
2.24394e-24
-1.43588e-24
1.94265e-24
-1.57759e-24
1.27575e-24
7.1698e-25
-1.20882e-24
2.91413e-15
1.76234e-14
3.56871e-14
2.27109e-13
1.9584e-13
3.66945e-12
1.89019e-13
3.39039e-12
0
2.93066e-13
0
5.03786e-16
8.09118e-18
1.43983e-16
6.54796e-18
1.20524e-16
3.58538e-18
8.24667e-17
1.32338e-18
4.17822e-17
1.98093e-19
1.10934e-17
5.4745e-21
8.38695e-19
1.44718e-23
9.00342e-21
1.03961e-24
7.24829e-24
-3.69872e-25
-1.10891e-23
-1.49343e-24
-1.85905e-23
-2.42683e-24
-1.03773e-23
-2.83351e-24
-2.25395e-24
-2.63955e-24
5.33304e-25
-2.06729e-24
7.45085e-25
-1.41042e-24
5.63305e-25
-8.61072e-25
3.34073e-25
1.70926e-25
-4.80031e-25
2.72044e-15
1.85832e-14
3.65931e-14
2.01517e-15
1.33049e-13
7.50527e-15
2.61919e-14
0
0
2.88592e-16
9.87349e-18
4.38027e-16
1.93793e-17
1.59882e-16
1.53284e-17
1.07198e-16
9.23721e-18
6.36024e-17
3.34268e-18
2.58179e-17
3.9053e-19
4.33216e-18
6.55507e-21
1.50107e-19
8.82794e-24
5.72782e-22
7.61191e-25
1.82729e-25
-2.41829e-24
-7.13183e-24
-3.62162e-24
-7.03724e-24
-3.34866e-24
-3.33756e-24
-2.53612e-24
-5.05321e-25
-1.68948e-24
1.82407e-25
-1.01279e-24
2.058e-25
-5.54624e-25
1.38304e-25
-2.80748e-25
7.39307e-26
3.41595e-26
-1.32681e-25
1.25475e-15
1.79129e-14
9.71863e-16
7.84962e-15
7.94254e-16
1.19665e-16
2.34221e-16
1.12135e-17
6.55681e-17
2.70612e-16
5.48875e-17
2.62277e-16
2.86124e-17
1.57371e-16
1.84829e-17
8.44111e-17
9.37793e-18
4.07733e-17
2.29729e-18
1.13175e-17
1.24348e-19
9.35646e-19
7.07126e-22
1.13277e-20
2.94646e-25
1.29347e-23
3.89729e-26
8.70275e-26
-1.98998e-24
-3.41406e-24
-2.22259e-24
-2.58723e-24
-1.71826e-24
-1.05885e-24
-1.11289e-24
-1.23369e-25
-6.38366e-25
4.87093e-26
-3.30296e-25
4.75615e-26
-1.56495e-25
2.85092e-26
-6.86936e-26
1.36298e-26
5.6181e-27
-2.82107e-26
1.71807e-15
1.64242e-14
1.46084e-15
1.18896e-14
3.98939e-16
4.01333e-15
1.92859e-16
1.55579e-15
9.51208e-17
6.41227e-16
5.06857e-17
2.53356e-16
2.84798e-17
1.11527e-16
1.51747e-17
5.16576e-17
5.51046e-18
1.80909e-17
6.87461e-19
2.69472e-18
1.27731e-20
8.20196e-20
2.03524e-23
2.88172e-22
2.3626e-24
1.17186e-25
-4.44034e-25
-7.56785e-25
-1.16906e-24
-1.55268e-24
-9.99839e-25
-9.20063e-25
-6.52311e-25
-3.27065e-25
-3.66872e-25
-3.54318e-26
-1.84197e-25
1.04465e-26
-8.3376e-26
9.13188e-27
-3.44729e-26
4.85997e-27
-1.31624e-26
2.05175e-27
7.42012e-28
-4.68735e-27
1.60356e-15
7.49374e-15
2.10618e-15
8.94769e-15
9.25121e-16
5.29641e-15
4.09641e-16
2.3308e-15
1.44738e-16
8.48302e-16
4.67198e-17
2.51141e-16
1.93589e-17
6.95984e-17
7.56034e-18
2.14586e-17
1.55156e-18
4.16403e-18
7.25706e-20
2.43714e-19
3.73877e-22
2.1773e-21
1.81537e-25
2.37832e-24
3.86519e-26
6.77908e-26
-4.47083e-25
-6.6464e-25
-5.56139e-25
-6.55814e-25
-3.78452e-25
-3.1711e-25
-2.04748e-25
-9.75089e-26
-9.83987e-26
-1.11681e-26
-4.28272e-26
1.79742e-27
-1.68232e-26
1.4397e-27
-6.0144e-27
6.72422e-28
-1.97472e-27
2.46006e-28
7.62986e-29
-6.01263e-28
6.40667e-16
7.29602e-16
1.34269e-15
1.96589e-15
1.0839e-15
2.61134e-15
4.90062e-16
1.80002e-15
1.51254e-16
7.02436e-16
3.55786e-17
1.72404e-16
8.44239e-18
3.01512e-17
1.78771e-18
4.59974e-18
1.51682e-19
3.49316e-19
2.10014e-21
6.1965e-21
3.03104e-24
1.65408e-23
5.29548e-25
9.40201e-27
-7.80828e-26
-1.27527e-25
-2.65907e-25
-3.74148e-25
-2.3216e-25
-2.64914e-25
-1.27689e-25
-1.0684e-25
-5.57761e-26
-2.80137e-26
-2.21475e-26
-3.40388e-27
-8.1496e-27
2.4394e-28
-2.72197e-27
1.84073e-28
-8.24472e-28
7.38872e-29
-2.27703e-28
2.27672e-29
5.85847e-30
-5.7865e-29
4.77527e-17
5.34427e-18
2.75066e-16
5.45302e-17
3.95921e-16
2.60867e-16
2.85663e-16
3.25056e-16
9.20208e-17
1.91864e-16
1.54597e-17
4.78836e-17
1.82207e-18
5.52784e-18
1.52588e-19
3.49818e-19
4.08504e-21
8.38037e-21
1.64731e-23
4.56339e-23
1.09795e-26
5.71486e-26
3.70573e-27
6.53696e-27
-9.30994e-26
-1.49283e-25
-1.29818e-25
-1.82844e-25
-8.82268e-26
-1.03492e-25
-3.97201e-26
-3.54884e-26
-1.36313e-26
-7.79496e-27
-4.27868e-27
-9.41339e-28
-1.27859e-27
2.53527e-29
-3.50879e-28
1.90254e-29
-8.7047e-29
6.29911e-30
-1.95162e-29
1.55674e-30
3.14886e-31
-3.98706e-30
3.37065e-19
1.28615e-21
7.37492e-18
1.34858e-19
3.22384e-17
2.97435e-18
3.5812e-17
8.39253e-18
1.75024e-17
8.01885e-18
2.59566e-18
2.67905e-18
1.51611e-19
2.54733e-19