/*--------------------------------*- C++ -*----------------------------------*\
  =========                 |
  \\      /  F ield         | OpenFOAM: The Open Source CFD Toolbox
   \\    /   O peration     | Website:  https://openfoam.org
    \\  /    A nd           | Version:  9
     \\/     M anipulation  |
\*---------------------------------------------------------------------------*/
FoamFile
{
    format      ascii;
    class       surfaceScalarField;
    location    "26.2";
    object      phi;
}
// * * * * * * * * * * * * * * * * * * * * * * * * * * * * * * * * * * * * * //

dimensions      [0 3 -1 0 0 0 0];

internalField   nonuniform List<scalar> 
1300
(
11.2529
1.87548
-4.17136
11.2529
-5.00319
1.87548
-4.24115
4.24115
-1.18758
1.18758
5.7123
5.54056
-2.37507
2.37507
-2.81592
2.81592
-2.86019
2.86019
-1.06194
1.06194
-1.02826
1.02826
0.693145
-0.693145
-3.4199
3.4199
-1.45625
1.45625
-2.90696
2.90696
6.1281
-6.1281
-3.24623
3.24623
-0.743818
0.743818
-4.26321
15.5161
6.98965
6.98965
-2.37116
2.37116
-1.25395
1.25395
1.41034
-1.41034
9.05707
-9.05707
-4.88571
-5.8904
1.91457
-14.0535
-3.08862
-3.08862
-2.7054
2.7054
-0.829928
1.04555
3.47681
-3.47681
-0.757284
0.757284
-4.32679
0.0856461
-4.32679
4.02531
0.215834
4.02531
-1.32886
0.141282
-1.32886
4.67753
-4.67753
1.07583
0.111755
1.07583
3.9281
-3.9281
-5.71006
11.4224
5.5428
-5.32064
20.8367
-5.93222
11.4728
-3.9036
3.9036
-2.29239
-0.0826817
-2.29239
2.37624
-0.00117049
2.37624
-4.00697
4.00697
-2.60622
-0.209706
-2.60622
2.916
-0.100082
2.916
3.66639
-3.66639
-2.91624
0.0560515
-2.91624
2.70849
0.151699
2.70849
0.771042
1.10443
-2.64652
3.69207
-1.10443
0.0424987
1.02614
0.0357986
1.02614
-1.01453
-0.0137253
-1.01453
1.04984
-0.0215797
1.04984
0.730188
-0.0370428
0.730188
-0.754873
0.0617285
-0.754873
-8.60008
-8.98011
-3.54491
0.125006
-3.54491
-1.47427
0.0180131
-1.47427
1.49242
-0.0361642
1.49242
-2.52711
2.52711
-3.24891
0.341953
-3.24891
4.80635
1.32175
4.80635
5.04612
6.20674
16.299
-16.299
10.1709
-2.96543
-0.280793
-2.96543
-3.41255
-5.64451
3.41255
-0.166324
-0.805569
0.0617504
-0.805569
5.62659
1.36306
5.62659
2.58627
0.122217
-2.58627
0.215117
4.62603
-4.62603
1.42331
0.947841
1.42331
-1.19154
1.19154
1.12336
-0.0735248
-1.12336
-0.130585
1.38601
0.0243319
1.38601
-1.40975
-0.000595739
-1.40975
7.30815
-13.1986
-7.77593
3.22935
0.190555
-3.22935
0.140723
3.56355
-0.0867464
3.56355
-3.3097
3.3097
-3.61099
0.134181
-3.61099
-0.682335
-0.0749488
-0.682335
0.842198
-0.0849143
0.842198
-4.57496
0.248165
-4.57496
-3.689
0.440086
3.689
0.336314
1.25051
-1.25051
-1.43666
0.107801
-1.43666
-4.65831
0.083346
4.65831
0.0192294
-4.77165
0.0941162
-4.77165
-3.71252
0.101535
3.71252
0.215577
4.58935
1.03724
-4.58935
0.661248
-5.36948
11.5762
-5.88338
11.4262
-3.51915
-0.384451
-3.51915
4.09538
-0.191787
4.09538
2.56838
0.338581
-2.56838
0.27599
2.50223
-0.125985
2.50223
-3.95006
-0.0569091
-3.95006
3.80956
0.197407
3.80956
2.54168
-0.0394502
-2.54168
-0.0645386
2.89118
0.0248247
2.89118
3.67236
-0.00597032
3.67236
-3.53941
-0.126975
-3.53941
3.17897
-3.17897
3.08061
0.0983661
-3.08061
0.164365
-5.07402
5.07343
-0.00799942
-5.06602
1.01814
1.01814
0.769047
-0.0388589
0.769047
-0.861792
0.106919
-0.861792
8.33827
-16.1142
8.78753
-17.3876
7.53695
-21.5905
8.10817
-17.0883
3.83054
-3.83054
3.76373
0.0668136
-3.76373
0.218819
-1.4561
-0.0181718
-1.4561
-2.28966
-0.237444
-2.28966
2.85971
-0.332603
2.85971
-3.74209
3.74209
-4.12478
0.382684
4.12478
0.681569
2.95303
-0.0618486
-2.95303
-0.0124072
0.924132
0.151694
-0.924132
0.118563
4.86329
-0.237269
4.86329
-4.08512
-0.54091
-4.08512
-1.47498
0.0188849
1.47498
-0.0516663
-1.25895
0.0674042
-1.25895
-5.0745
0.00847758
-5.0387
-1.40127
-1.40127
1.30414
4.9962
-3.58565
0.0462395
3.58565
-0.0221002
3.52705
0.21504
-3.52705
0.217358
-3.26328
0.084308
3.26328
0.0464147
-0.659845
-0.0224894
-0.659845
-1.03501
1.03501
-0.917838
-0.117168
0.917838
-0.0756405
1.40606
-0.155543
1.40606
1.47061
0.0218092
-1.47061
0.0339449
-5.01089
0.239235
-5.01089
4.10619
-0.0108011
4.10619
-3.94901
-0.13611
3.94901
-0.276647
-0.00372296
5.07715
-1.01441
-0.000120168
1.01441
-5.10148
5.10136
-0.665228
0.00538303
0.665228
0.103818
1.02967
0.161873
-1.02967
0.167877
3.85215
-0.0425884
-3.85215
0.0216123
-2.00837
-0.281295
-2.00837
-3.18765
-0.331496
3.18765
-0.327942
-5.11518
-0.0779368
5.19312
-5.13676
1.33688
0.0491257
-1.33688
5.15049
-1.14396
-0.106551
1.14396
-0.108956
1.60449
-0.198429
1.60449
5.12055
-0.25726
-5.12055
0.109669
-4.12402
0.173963
4.12402
-0.0178379
-1.77592
-0.23245
1.77592
-0.17143
-13.1281
14.4911
7.70865
-6.2766
-6.92195
-11.9211
4.4471
7.12912
14.618
-11.8137
-9.77673
-11.673
2.86006
-2.69218
-3.72751
3.69046
23.5902
-23.4961
-18.3992
19.0808
20.777
-20.5615
5.70885
5.71351
15.8367
-15.9194
-20.9158
20.5313
15.3716
-15.5813
22.0724
-22.1293
-25.835
25.7924
-16.093
16.149
-20.2943
20.1673
-21.0575
20.7809
-8.34116
-9.04645
16.5226
-16.3976
19.9911
-20.2719
-19.3719
19.7138
10.0475
4.44359
11.0848
-6.24673
11.9556
-5.22605
12.9347
8.30151
-16.6427
7.81269
-14.7346
9.04426
10.9468
-8.87793
-3.04318
-17.9699
17.8832
-17.257
17.3034
24.1194
-24.0338
-6.17283
11.8863
-5.25335
12.3825
-11.409
-6.9902
10.0873
4.53073
8.99229
7.53033
-9.18284
-2.49017
-24.7982
24.5409
-25.6596
25.1186
0.100161
2.42594
-2.52611
1.35411
-0.862668
3.28861
1.99739
2.10431
2.45271
-2.29084
0.23947
-2.76558
-2.89616
-5.34085
5.44866
5.1576
-5.04585
16.545
7.04523
16.5642
-16.7487
-6.7474
-16.5095
11.3637
7.71706
11.7464
12.0617
8.71534
12.1632
10.359
-10.3317
-0.0273121
-11.4776
21.8367
1.55465
-18.4678
-13.9371
8.83667
7.00004
8.8355
-9.88298
-6.03641
-9.60699
-11.0234
-9.89238
-11.3549
12.3311
8.20017
12.1394
-15.3313
15.3134
9.26456
6.10707
9.16448
-8.95315
-6.62819
-9.01769
27.4891
-6.67778
-20.8113
-13.1953
-12.6397
12.9979
9.07448
14.3515
11.4409
14.3731
8.91747
18.5716
-17.9919
5.35227
-9.94709
-6.14586
-9.78273
9.25815
6.89086
9.40985
-11.7668
-8.52757
-11.7205
-11.9869
-9.07066
11.9929
8.17449
-12.5343
-13.1253
12.6704
8.11052
7.84836
-17.6251
9.23992
-18.2864
-10.9713
-5.42629
-10.7525
10.7918
6.67403
-17.4658
-5.85088
23.6287
-12.6819
20.5855
-10.8927
-9.37917
-10.9051
-14.7966
-4.57527
-14.3565
-7.99398
7.71269
-8.82754
8.49494
26.883
-16.2266
-10.6563
-12.3784
-8.18309
11.7171
-0.632341
-12.8358
12.8085
-0.880185
12.0545
16.4981
15.8658
-10.8802
-6.37676
-10.6629
10.2702
7.03321
10.3545
16.1005
8.01889
16.3164
-16.815
-7.21884
-16.5668
4.84202
-4.91697
5.71379
-5.69491
15.5791
9.53953
-15.3419
-9.45631
22.9308
-10.7751
-12.1557
-5.11972
5.21443
-0.0947037
-1.83111
-0.477001
0.266817
-1.93101
-1.7965
1.86928
0.235029
5.44946
3.65296
-2.41437
2.48177
2.77875
2.70523
-0.190935
2.49915
-2.49376
18.9041
-11.4338
-7.47027
13.9684
-13.8851
-2.59835
-19.3263
16.7279
2.67915
3.0037
-2.94195
-3.94866
-1.39219
-3.91472
2.95228
2.20532
3.10397
2.10728
3.34137
-8.10408
1.56319
6.54089
-5.9968
-3.48266
-13.3464
-6.26734
19.6137
16.6782
7.86272
-16.7879
0.278363
5.29331
-5.32947
-1.59787
-11.7485
8.34899
-9.94686
-15.2176
-6.46071
21.6783
-9.58078
-1.08209
9.36574
2.38065
-10.8773
-7.09263
10.7431
1.42012
-12.0645
23.9708
-11.9062
-18.4413
8.51578
13.3209
16.2328
-17.8628
9.31888
8.54389
-4.54188
7.42198
1.41352
7.29599
-19.9187
13.8823
11.3151
8.39873
-11.6537
2.04671
-17.872
25.1683
-22.2868
-2.88156
12.8171
12.3512
13.556
13.327
-7.78884
21.3448
-3.62036
-18.6664
21.4924
-13.0936
15.7839
-28.8776
-29.1109
10.4444
-17.9629
22.0843
-4.12147
-5.21011
-10.1212
23.173
-2.00741
-21.1656
10.132
-13.9235
-11.8453
25.7688
-20.6013
18.4735
-6.26297
-12.2105
-12.6786
-9.45074
12.5046
2.8088
-25.873
31.2253
-7.30144
7.79806
1.36642
7.82288
10.6078
-15.9766
5.36889
9.99354
-16.2565
6.75888
-22.7355
-12.1662
24.1973
-12.0311
-17.5925
-15.8064
-1.78603
4.87371
26.3516
-16.3146
12.119
4.19564
8.46177
1.89273
-8.56014
-1.22259
0.968114
16.0866
-17.0547
10.378
10.5002
11.7046
4.38196
10.7702
7.11295
-10.7481
-0.972394
-14.7927
5.72205
-6.61822
-14.5741
20.2961
-16.2678
1.69379
-10.3032
-13.9907
24.2939
-16.4491
11.4255
12.5452
18.4587
-19.615
5.62432
-9.74637
-9.86861
10.6435
-17.2617
7.49823
12.7979
15.6087
2.48346
12.7535
11.4438
-19.4276
1.14119
18.9741
-16.4839
3.89398
10.4792
-16.013
0.206529
-10.546
2.65791
-15.3398
-14.8079
16.5289
-21.1042
-12.3487
13.562
2.75437
-13.8983
-0.458206
-4.95662
-3.03737
-5.18906
-3.27952
-5.54802
-11.0684
-1.92723
-9.14114
5.78546
-6.69177
-4.66311
7.01971
1.47523
-4.93709
4.83054
-5.58249
5.38406
-0.210168
13.0186
15.6556
7.4725
-8.47674
15.9492
-15.606
23.6249
-29.7246
14.1186
15.9495
-23.1683
-13.7751
2.70172
2.1403
2.6168
13.4519
-14.4172
0.965224
-13.282
17.6042
-4.32217
-19.586
6.30399
-6.13408
5.18688
0.52691
5.16871
1.41645
6.8461
-8.26255
-4.27845
-4.33012
-9.1631
-13.8594
23.0225
4.73575
-13.1052
8.36946
-12.0628
16.7986
0.0787404
-13.184
16.9851
-10.139
17.512
-11.9841
5.52794
12.7918
22.3471
-9.55524
16.248
-6.70849
7.06765
-16.6229
-6.7917
-11.2884
18.1792
-13.0055
14.6993
-1.12453
15.8238
-13.7774
3.00233
-2.0728
8.42738
8.6425
16.8088
-12.4268
11.9698
-18.6783
-4.65306
-16.1949
-3.39699
1.02019
-13.8275
12.8073
12.0469
-11.0267
-3.24265
8.98607
-5.74342
5.68297
-2.84868
-2.83428
-1.84675
-3.07022
1.86924
0.629907
6.31287
0.489313
-3.338
-2.00445
-1.90063
10.3751
8.529
-3.83235
3.73764
3.56553
-0.561825
0.958813
2.14516
4.58775
-3.62894
0.678229
3.90952
-2.26373
3.82795
1.46536
-3.84976
-0.0649622
-3.40824
11.7572
3.13265
-5.33797
1.70903
2.38156
-13.8154
19.7418
-11.4161
-8.32567
22.1234
3.06273
-14.4789
16.2636
-13.5844
8.10295
-14.3703
-6.37593
-19.9603
-12.9151
-10.7098
19.0792
-12.3127
20.1754
3.86166
-20.4538
24.3154
-12.7401
6.27944
-9.44363
10.909
-4.05844
-5.38519
11.2661
10.4122
-11.0537
-0.694807
0.212382
8.41989
-8.20751
-1.52697
-7.52377
-16.4089
17.829
-8.2557
17.5746
7.69354
-7.63402
25.2086
6.56496
-14.199
-11.8763
-12.9584
-5.65509
10.5777
-1.79389
-7.2238
-14.0044
7.26325
0.0327426
-19.0655
22.0557
-2.99025
-12.0654
-1.81685
14.634
-18.0905
1.83396
-11.3316
10.7242
12.1377
12.1704
-20.8523
-0.313285
-12.6521
3.17535
-15.8275
15.5265
-6.80372
17.2482
-16.0163
11.3532
-14.5411
14.3666
-1.46085
14.7535
-9.38461
6.05778
-15.5085
-12.6997
14.4615
-8.35447
15.828
-10.1129
25.9408
-17.4143
14.3964
11.5445
-2.71266
-8.19245
-13.9649
11.2523
0.431419
8.2543
17.8373
-10.7243
16.8649
8.92441
-18.6708
-8.33733
-25.8596
7.18885
-13.3144
-7.35657
14.5454
11.1021
12.9949
4.6768
-11.7723
17.7922
-19.5782
-5.7611
-9.0468
14.5715
-3.31924
10.1474
-19.1942
-5.19235
13.11
-0.189451
-12.9205
3.11668
-15.4653
5.12782
-20.5932
15.9763
-16.4345
1.77017
-7.90426
-3.16692
-3.27588
-2.17287
-3.40962
-7.56937
5.3965
-1.26538
3.56516
-12.5246
12.3351
-5.07965
10.4761
-4.05947
-1.1296
4.2309
1.15317
11.6293
3.02653
-16.8016
-9.25644
14.6261
-5.36961
1.11865
-10.8009
3.82511
8.09882
14.0246
-24.8268
1.65843
-15.1432
-4.0708
6.2111
4.91528
16.9622
2.54504
6.55355
-0.342448
9.09858
2.27436
2.19872
-11.22
12.1852
1.58733
15.7059
-1.88299
7.41093
3.28572
3.30373
2.02574
5.72259
2.9199
8.72493
0.462374
-3.86775
2.06802
-3.96865
-1.26998
-4.00751
-0.317041
3.72551
-4.04255
10.4974
-1.96839
5.12778
-1.88236
-4.93401
6.81637
-9.35263
-5.49583
-1.58631
-5.60698
7.31602
6.15025
-5.7297
-3.62292
2.39146
-15.3066
11.9788
-12.6736
-2.26147
22.054
-9.46198
1.25448
-3.18255
-6.26929
-7.66148
7.72644
24.1899
1.01867
12.2837
18.8477
11.755
1.03071
11.9848
-16.1063
-10.7507
-16.4196
-0.893021
13.741
5.61775
20.7338
17.1622
13.843
-5.35123
-24.9295
20.7234
-8.53823
16.4012
-3.48074
-17.1124
14.6455
8.97943
-17.3999
0.965318
-16.1471
-24.6853
-0.343139
12.6782
-11.2862
10.1566
7.11921
2.02193
-2.42618
-0.849699
2.54335
-0.34463
8.75395
-0.188627
-8.19603
8.38466
-3.53688
2.2669
-0.429766
4.16741
6.3866
4.41821
-3.77782
-7.82037
-8.81751
-4.99788
-17.1432
2.47056
-8.6208
5.68187
-3.41497
2.84758
4.96969
10.0975
-1.60152
-9.42522
7.34494
-4.49736
5.60011
)
;

boundaryField
{
    wall-4
    {
        type            calculated;
        value           uniform 0;
    }
    velocity-inlet-5
    {
        type            calculated;
        value           uniform -11.2529;
    }
    velocity-inlet-6
    {
        type            calculated;
        value           uniform -1.87548;
    }
    pressure-outlet-7
    {
        type            calculated;
        value           nonuniform List<scalar> 8(4.17136 5.00319 10.7761 12.139 17.5802 15.0841 17.1258 15.6451);
    }
    wall-8
    {
        type            calculated;
        value           uniform 0;
    }
    frontAndBackPlanes
    {
        type            empty;
        value           nonuniform List<scalar> 0();
    }
}


// ************************************************************************* //
