/*--------------------------------*- C++ -*----------------------------------*\
  =========                 |
  \\      /  F ield         | OpenFOAM: The Open Source CFD Toolbox
   \\    /   O peration     | Website:  https://openfoam.org
    \\  /    A nd           | Version:  9
     \\/     M anipulation  |
\*---------------------------------------------------------------------------*/
FoamFile
{
    format      ascii;
    class       surfaceScalarField;
    location    "8.23";
    object      alphaPhi0.water;
}
// * * * * * * * * * * * * * * * * * * * * * * * * * * * * * * * * * * * * * //

dimensions      [0 3 -1 0 0 0 0];

internalField   nonuniform List<scalar> 
4432
(
-1.08242e-08
1.08242e-08
1.38605e-08
-2.46879e-08
5.48138e-08
-4.09591e-08
1.027e-07
-4.78901e-08
1.56212e-07
-5.35179e-08
2.15209e-07
-5.90034e-08
2.79636e-07
-6.44348e-08
3.48638e-07
-6.901e-08
4.18922e-07
-7.02925e-08
4.87494e-07
-6.85783e-08
5.56801e-07
-6.93124e-08
6.36631e-07
-7.98342e-08
7.41755e-07
-1.05126e-07
8.80688e-07
-1.38934e-07
1.03775e-06
-1.57063e-07
1.14562e-06
-1.07868e-07
1.07552e-06
7.01039e-08
7.78374e-07
2.97151e-07
2.16332e-07
5.61172e-07
-4.9196e-07
7.07863e-07
-8.29677e-07
3.36803e-07
-6.62792e-07
-1.66882e-07
-6.62954e-07
5.57665e-09
5.24119e-09
3.33129e-08
-5.24306e-08
7.37619e-08
-8.14184e-08
1.2215e-07
-9.6288e-08
1.75743e-07
-1.07122e-07
2.33648e-07
-1.16921e-07
2.95491e-07
-1.26292e-07
3.60094e-07
-1.33623e-07
4.24816e-07
-1.35025e-07
4.87043e-07
-1.30814e-07
5.47629e-07
-1.29905e-07
6.12379e-07
-1.44587e-07
6.89559e-07
-1.82307e-07
7.82567e-07
-2.31939e-07
8.78435e-07
-2.52925e-07
9.3341e-07
-1.62835e-07
8.68561e-07
1.34962e-07
6.30206e-07
5.35506e-07
2.65831e-07
9.25174e-07
-1.44186e-07
1.11746e-06
-4.33984e-07
6.2677e-07
-4.99279e-07
-1.01581e-07
-1.16223e-06
1.88554e-08
-1.362e-08
4.92508e-08
-8.28312e-08
8.83009e-08
-1.20477e-07
1.34679e-07
-1.42673e-07
1.85818e-07
-1.58269e-07
2.40567e-07
-1.71678e-07
2.98397e-07
-1.84129e-07
3.58075e-07
-1.93309e-07
4.16982e-07
-1.93939e-07
4.72114e-07
-1.85951e-07
5.22948e-07
-1.80743e-07
5.72674e-07
-1.94316e-07
6.26589e-07
-2.36222e-07
6.87057e-07
-2.92405e-07
7.4618e-07
-3.12046e-07
7.74307e-07
-1.90966e-07
7.1013e-07
1.99141e-07
5.16008e-07
7.29634e-07
2.79166e-07
1.16218e-06
6.25839e-08
1.33362e-06
-1.77918e-07
8.67372e-07
-3.23171e-07
4.36798e-08
-1.4854e-06
2.78628e-08
-4.1488e-08
6.1658e-08
-1.1663e-07
1.00549e-07
-1.59374e-07
1.45093e-07
-1.8722e-07
1.93435e-07
-2.06615e-07
2.44523e-07
-2.22768e-07
2.97894e-07
-2.37502e-07
3.52422e-07
-2.47839e-07
4.05345e-07
-2.46864e-07
4.53004e-07
-2.33611e-07
4.9358e-07
-2.21319e-07
5.28372e-07
-2.29107e-07
5.61134e-07
-2.68984e-07
5.94736e-07
-3.26006e-07
6.27385e-07
-3.44695e-07
6.45124e-07
-2.08755e-07
5.9556e-07
2.48495e-07
4.4807e-07
8.77099e-07
2.90442e-07
1.31999e-06
1.82793e-07
1.44394e-06
-6.596e-09
1.05701e-06
-1.59779e-07
1.96869e-07
-1.64514e-06
3.39908e-08
-7.54828e-08
7.12117e-08
-1.53853e-07
1.10843e-07
-1.99007e-07
1.53962e-07
-2.30339e-07
1.99372e-07
-2.52023e-07
2.46352e-07
-2.69745e-07
2.94725e-07
-2.85871e-07
3.4362e-07
-2.96729e-07
3.90152e-07
-2.93392e-07
4.29913e-07
-2.73368e-07
4.59892e-07
-2.51295e-07
4.79919e-07
-2.49131e-07
4.92861e-07
-2.81923e-07
5.02456e-07
-3.356e-07
5.12242e-07
-3.54481e-07
5.25315e-07
-2.21988e-07
5.02977e-07
2.70505e-07
4.00336e-07
9.80083e-07
3.00171e-07
1.42015e-06
2.55344e-07
1.48889e-06
1.25982e-07
1.18637e-06
5.3166e-09
3.15902e-07
-1.63946e-06
3.86425e-08
-1.14128e-07
7.88507e-08
-1.94061e-07
1.19444e-07
-2.396e-07
1.61241e-07
-2.72133e-07
2.03424e-07
-2.942e-07
2.45699e-07
-3.12013e-07
2.8832e-07
-3.28483e-07
3.30842e-07
-3.39242e-07
3.70394e-07
-3.32934e-07
4.01879e-07
-3.04845e-07
4.21284e-07
-2.70693e-07
4.27208e-07
-2.55049e-07
4.21829e-07
-2.76542e-07
4.09319e-07
-3.23091e-07
3.96615e-07
-3.4178e-07
3.98586e-07
-2.23965e-07
4.15921e-07
2.51463e-07
3.55595e-07
1.03412e-06
3.06438e-07
1.46931e-06
3.04577e-07
1.49075e-06
2.20287e-07
1.27066e-06
1.64953e-07
3.69905e-07
-1.4744e-06
4.26834e-08
-1.56813e-07
8.53068e-08
-2.36682e-07
1.26551e-07
-2.80843e-07
1.66747e-07
-3.12327e-07
2.05181e-07
-3.32629e-07
2.41976e-07
-3.48801e-07
2.7788e-07
-3.64379e-07
3.13028e-07
-3.74382e-07
3.44804e-07
-3.64703e-07
3.67692e-07
-3.27726e-07
3.76947e-07
-2.79943e-07
3.70124e-07
-2.48222e-07
3.48662e-07
-2.55077e-07
3.16395e-07
-2.90826e-07
2.81169e-07
-3.06558e-07
2.61872e-07
-2.04672e-07
2.95725e-07
2.15116e-07
3.08806e-07
1.01235e-06
3.21865e-07
1.44229e-06
3.28773e-07
1.47264e-06
3.3016e-07
1.25432e-06
3.62935e-07
3.41207e-07
-1.1115e-06
4.65862e-08
-2.03399e-07
9.10692e-08
-2.81164e-07
1.32413e-07
-3.22187e-07
1.70361e-07
-3.50275e-07
2.04323e-07
-3.66589e-07
2.34756e-07
-3.79232e-07
2.6282e-07
-3.92441e-07
2.8933e-07
-4.0089e-07
3.12303e-07
-3.87673e-07
3.26288e-07
-3.41708e-07
3.26253e-07
-2.79905e-07
3.08879e-07
-2.30846e-07
2.74744e-07
-2.20942e-07
2.2681e-07
-2.42892e-07
1.72272e-07
-2.5202e-07
1.29615e-07
-1.62016e-07
1.47797e-07
1.96906e-07
2.44527e-07
9.12579e-07
3.27715e-07
1.35606e-06
3.50026e-07
1.42809e-06
4.71062e-07
1.12478e-06
5.39769e-07
2.80053e-07
-5.71773e-07
-1.16748e-06
1.16396e-06
-6.87218e-07
-4.80215e-07
4.88373e-09
-6.92384e-07
4.76369e-07
-4.71961e-07
7.97991e-07
-3.2232e-07
1.00727e-06
-2.12575e-07
1.1228e-06
-1.16925e-07
1.26008e-06
-1.38237e-07
1.33468e-06
-7.54896e-08
1.20894e-06
1.24588e-07
8.24953e-07
3.83966e-07
4.6745e-08
7.78182e-07
-7.53233e-07
7.95821e-07
-1.01284e-06
2.59586e-07
-9.92517e-07
-2.03456e-08
-7.77909e-07
-2.14631e-07
-5.84302e-07
-1.93632e-07
-1.76301e-07
-4.08024e-07
-1.76547e-07
-7.68887e-07
1.92172e-06
-3.18289e-07
-9.3028e-07
8.72052e-08
-1.09785e-06
3.65892e-07
-7.50644e-07
5.39521e-07
-4.95948e-07
6.53876e-07
-3.26925e-07
7.67179e-07
-2.30236e-07
8.47714e-07
-2.18807e-07
8.1721e-07
-4.50207e-08
6.29238e-07
3.12442e-07
3.65746e-07
6.48572e-07
9.1232e-09
1.13478e-06
-3.61923e-07
1.16681e-06
-6.36216e-07
5.32809e-07
-7.46091e-07
8.95073e-08
-7.38183e-07
-2.22561e-07
-7.64351e-07
-1.67206e-07
-5.58965e-07
-6.10991e-07
-7.33986e-07
-2.59196e-07
2.18094e-06
-5.81263e-09
-1.18404e-06
1.63813e-07
-1.26745e-06
2.9271e-07
-8.79555e-07
3.78107e-07
-5.81343e-07
4.39042e-07
-3.87869e-07
5.06019e-07
-2.97195e-07
5.47753e-07
-2.60522e-07
4.84318e-07
1.83579e-08
2.81182e-07
5.15605e-07
8.02454e-08
8.49088e-07
-4.9569e-08
1.27196e-06
-1.77438e-07
1.29993e-06
-4.0359e-07
7.58752e-07
-5.59537e-07
2.45433e-07
-6.4843e-07
-1.3369e-07
-8.2838e-07
1.56417e-08
-7.59078e-07
-6.80536e-07
-1.49331e-06
2.01649e-07
1.97931e-06
2.21242e-07
-1.20197e-06
2.10684e-07
-1.25687e-06
2.23463e-07
-8.92358e-07
2.40105e-07
-5.97983e-07
2.54531e-07
-4.02292e-07
2.82478e-07
-3.25154e-07
2.99976e-07
-2.78023e-07
2.35264e-07
8.29459e-08
5.80111e-08
6.92567e-07
-9.27481e-08
9.99911e-07
-1.14005e-07
1.29349e-06
-1.254e-07
1.31318e-06
-2.74147e-07
9.08596e-07
-4.04969e-07
3.74685e-07
-5.06995e-07
-3.16834e-08
-7.47395e-07
2.55865e-07
-7.05498e-07
-7.24383e-07
-2.20366e-06
5.48359e-07
1.43097e-06
3.68361e-07
-1.01966e-06
2.16018e-07
-1.10452e-06
1.45371e-07
-8.21713e-07
1.08244e-07
-5.6086e-07
8.28818e-08
-3.76918e-07
7.73532e-08
-3.19703e-07
8.04423e-08
-2.81119e-07
3.02953e-08
1.33038e-07
-1.03907e-07
8.25861e-07
-1.95769e-07
1.09175e-06
-1.66168e-07
1.26389e-06
-1.3139e-07
1.27841e-06
-2.24061e-07
1.001e-06
-2.64052e-07
4.13598e-07
-3.03584e-07
8.16959e-09
-5.09167e-07
4.57358e-07
-4.95791e-07
-7.37758e-07
-2.69945e-06
6.56247e-07
7.84588e-07
3.94305e-07
-7.5688e-07
1.74747e-07
-8.84943e-07
5.49281e-08
-7.01902e-07
-2.03591e-08
-4.85578e-07
-7.88961e-08
-3.18442e-07
-1.1435e-07
-2.84273e-07
-1.19722e-07
-2.75722e-07
-1.37423e-07
1.50446e-07
-2.28093e-07
9.13998e-07
-2.66094e-07
1.1294e-06
-2.05119e-07
1.20292e-06
-1.43198e-07
1.21649e-06
-1.92042e-07
1.04985e-06
-1.49664e-07
3.7016e-07
-7.48163e-08
-6.57453e-08
-1.62683e-07
5.44241e-07
-2.11182e-07
-6.89257e-07
-2.91064e-06
5.5367e-07
2.30925e-07
3.18117e-07
-5.21342e-07
9.50526e-08
-6.61875e-07
-4.70221e-08
-5.59836e-07
-1.45038e-07
-3.87581e-07
-2.29313e-07
-2.34181e-07
-2.93911e-07
-2.19681e-07
-3.13357e-07
-2.5606e-07
-2.93014e-07
1.31139e-07
-3.15628e-07
9.17459e-07
-3.13154e-07
1.12693e-06
-2.28464e-07
1.11824e-06
-1.46783e-07
1.13245e-06
-1.35695e-07
1.01909e-06
-1.79218e-08
2.52615e-07
1.19405e-07
-2.02975e-07
1.60454e-07
5.01901e-07
1.11404e-07
-6.39135e-07
-2.79923e-06
3.45801e-07
-1.14869e-07
1.92715e-07
-3.68259e-07
-4.32561e-09
-4.64833e-07
-1.52655e-07
-4.11504e-07
-2.62888e-07
-2.77344e-07
-3.64109e-07
-1.32943e-07
-4.52431e-07
-1.31307e-07
-5.05488e-07
-2.02647e-07
-4.46598e-07
7.63691e-08
-3.76895e-07
8.44352e-07
-3.30942e-07
1.06231e-06
-2.27615e-07
1.00375e-06
-1.34224e-07
1.03019e-06
-2.44306e-08
9.00531e-07
1.44469e-07
8.42492e-08
2.49376e-07
-3.0779e-07
4.4201e-07
3.08097e-07
3.88216e-07
-5.85472e-07
-2.41102e-06
1.20741e-07
-3.2414e-07
2.17659e-07
-3.78078e-07
3.00441e-07
-4.04966e-07
3.69319e-07
-4.19153e-07
4.23437e-07
-4.20706e-07
4.6418e-07
-4.19975e-07
4.93668e-07
-4.21927e-07
5.16136e-07
-4.23358e-07
5.31934e-07
-4.0347e-07
5.30864e-07
-3.40636e-07
5.04668e-07
-2.53708e-07
4.42482e-07
-1.68658e-07
3.43632e-07
-1.2209e-07
2.10563e-07
-1.09813e-07
5.36398e-08
-9.50476e-08
-8.36885e-08
-2.46865e-08
-6.3352e-08
1.7676e-07
2.16219e-07
6.44279e-07
5.77483e-07
1.0009e-06
9.32782e-07
1.09298e-06
1.29966e-06
7.78665e-07
1.32216e-06
2.58626e-07
-5.66983e-09
7.56051e-07
1.50645e-07
-3.31532e-07
2.34502e-07
-3.2131e-07
2.8813e-07
-3.18875e-07
3.35858e-07
-3.26612e-07
3.71984e-07
-3.216e-07
3.85279e-07
-3.06845e-07
3.72319e-07
-2.92052e-07
3.36284e-07
-2.79796e-07
2.86516e-07
-2.59452e-07
2.36362e-07
-2.17051e-07
1.92603e-07
-1.5991e-07
1.47616e-07
-9.57461e-08
7.9802e-08
-4.19923e-08
-2.6931e-08
-1.20115e-09
-1.68618e-07
3.62428e-08
-3.06121e-07
8.6592e-08
-3.32124e-07
2.02758e-07
-7.67414e-08
3.88892e-07
3.77078e-07
5.47057e-07
8.66509e-07
6.03509e-07
1.1342e-06
5.10973e-07
1.051e-06
3.41826e-07
2.93498e-07
7.51831e-07
-1.47333e-08
-3.57898e-10
-1.16046e-08
-1.55978e-09
2.19672e-09
-9.79369e-10
-1.8063e-09
-3.4146e-10
-7.55058e-09
-1.81624e-10
-9.89359e-09
-1.22404e-09
-1.53012e-08
-1.81405e-09
-3.53253e-08
-1.52169e-09
-6.76914e-08
-7.81794e-10
-9.48383e-08
-7.26462e-10
-1.06901e-07
-8.14209e-10
-1.03513e-07
-7.46503e-10
-1.02517e-07
-5.93802e-10
-1.20789e-07
0
-1.65017e-07
0
-2.24497e-07
0
-2.47387e-07
0
-1.33935e-07
5.33329e-10
7.31789e-08
8.47848e-10
3.00157e-07
1.88542e-09
4.27809e-07
4.5149e-09
4.01315e-07
8.40386e-09
1.13894e-08
3.05178e-07
-5.41439e-10
0
-1.16746e-10
-2.15583e-09
-1.66117e-11
-1.17691e-09
-1.37923e-10
-2.40688e-10
-3.15118e-10
-1.0544e-11
-2.82894e-10
-1.2768e-09
-1.89719e-10
-1.92029e-09
-1.33845e-10
-1.57168e-09
-1.51936e-10
-7.32587e-10
-1.6637e-10
-6.53988e-10
-1.62695e-10
-7.34703e-10
-1.5207e-10
-6.54089e-10
-1.36191e-10
-4.93664e-10
-1.40555e-10
0
-3.63729e-10
0
-6.68329e-10
0
-3.59629e-10
0
4.50965e-11
-5.62612e-10
1.47225e-10
-1.03489e-10
5.48574e-10
-4.83034e-10
1.04207e-09
-2.00321e-10
1.29042e-09
0
0
1.21404e-09
-1.13249e-10
1.2688e-10
-7.61402e-10
-1.67115e-09
-1.38114e-09
4.46741e-10
-4.61561e-10
6.51207e-10
-7.00834e-10
4.29259e-10
-1.23689e-09
-2.13297e-14
-2.27379e-09
-8.33353e-14
-3.0678e-09
-6.68171e-14
-3.08567e-09
-5.51701e-14
-2.66054e-09
-4.79595e-14
-1.96842e-09
-4.7754e-14
-4.49142e-10
-1.03585e-12
1.60547e-09
-3.25856e-10
1.70039e-09
-1.20282e-09
2.24163e-09
-9.81234e-11
2.59284e-09
-4.26732e-11
1.683e-09
-2.4993e-10
7.56359e-10
-1.86355e-10
6.07488e-10
8.18073e-11
5.61221e-10
1.19876e-11
3.70386e-10
5.32963e-13
3.1815e-10
0
2.1067e-12
1.76308e-10
1.10643e-09
-6.05779e-15
3.37354e-10
-8.59546e-12
2.59529e-11
0
-9.94378e-11
8.14173e-12
-9.59107e-15
0
-3.23995e-14
0
-5.0968e-14
-6.50483e-14
-5.71258e-14
-6.09356e-14
-5.08453e-14
-6.17318e-14
-4.5415e-14
-5.3666e-14
-4.59143e-14
-4.75237e-14
-4.25022e-13
-3.47596e-13
-5.65806e-12
-7.08963e-11
-1.65788e-11
-1.74522e-10
5.16752e-11
-1.38147e-10
8.06403e-11
-2.64311e-11
2.13794e-11
0
-1.69036e-10
0
-3.00173e-10
9.74491e-12
-6.36192e-10
1.4756e-11
-7.67894e-10
0
-1.17083e-09
0
3.0377e-11
-1.28495e-09
-2.6792e-15
-3.31302e-15
-8.59809e-12
4.69215e-18
-4.95277e-13
0
-9.18153e-14
0
-6.19947e-14
0
-5.74103e-14
5.10064e-13
-3.8878e-14
-5.99567e-15
-5.16156e-14
-4.84795e-14
-5.74998e-14
-5.61239e-14
-4.57659e-14
-6.56689e-14
-8.05713e-14
-1.25595e-14
-7.58736e-12
-1.98751e-12
-6.74777e-11
-8.07178e-11
-7.36743e-11
-1.89899e-10
-9.25443e-11
-1.74695e-10
-2.03367e-11
-2.00934e-11
-1.44268e-11
5.71222e-14
-1.84185e-11
0
-1.51753e-11
0
-5.33758e-11
8.98865e-13
-2.27921e-10
0
-3.6861e-10
0
0
-5.90942e-10
-3.55422e-15
3.00063e-16
-5.40334e-15
1.77824e-15
-8.39798e-14
5.56028e-15
-2.96677e-13
4.54855e-13
-1.2865e-12
1.30845e-12
-2.06948e-12
1.06616e-12
-5.98115e-13
-5.87963e-14
-7.65058e-13
-1.9232e-13
-1.9038e-12
-1.84556e-13
-1.83819e-13
-1.64707e-12
0
-4.46435e-13
-2.36785e-11
-1.49538e-12
-8.69077e-11
-2.80693e-15
-2.09281e-10
-1.17352e-13
-1.37884e-10
-3.11964e-11
-7.21845e-11
-1.37139e-11
-4.06139e-11
3.392e-12
-1.54831e-11
1.54752e-12
-1.12366e-12
2.13497e-12
-2.14594e-13
9.88999e-15
-1.19819e-13
0
-1.39094e-13
2.13275e-14
2.56103e-14
-2.05767e-12
-1.72467e-15
2.08698e-15
-2.98777e-15
3.00897e-15
-2.74784e-15
5.30386e-15
0
7.641e-16
-2.14299e-12
1.96693e-13
-2.10297e-12
1.27602e-12
-2.30974e-12
4.02818e-13
-7.18021e-13
-6.32326e-14
-5.90272e-12
-5.4e-13
-5.10738e-12
-1.34379e-12
-7.49944e-12
-1.04778e-12
-1.11542e-15
-5.87608e-16
-1.57358e-15
-1.24541e-15
-1.14081e-13
-3.6935e-15
-3.12609e-11
-4.71795e-14
-4.381e-11
-2.58444e-12
-1.11085e-11
4.61708e-12
-2.17757e-12
8.78928e-13
-3.76202e-14
1.65634e-14
-2.28891e-14
1.58045e-14
-1.70532e-14
9.53893e-15
-1.70681e-14
5.44587e-15
4.50672e-15
-1.9657e-14
-1.50548e-15
4.40614e-15
-2.33197e-15
3.82161e-15
-2.56227e-15
5.51873e-15
-5.77192e-15
3.95676e-15
-1.12743e-12
2.11126e-14
-2.32525e-12
6.13898e-13
-7.6663e-13
2.8591e-13
-1.54039e-12
1.07589e-14
-5.90117e-12
-2.66453e-13
-5.2673e-12
-8.79037e-13
-2.96365e-15
-1.0213e-12
-2.20917e-15
-2.91835e-16
-1.85e-15
-5.48123e-16
0
-6.95845e-14
-3.53307e-13
0
-6.31846e-12
-3.60347e-13
-3.62334e-12
0
-7.66507e-14
1.09298e-13
-4.7889e-14
1.06462e-14
-4.41341e-14
1.30934e-14
-4.51678e-14
2.43131e-14
-1.61699e-14
2.59111e-14
4.66765e-15
-3.95191e-14
-3.25976e-15
7.98148e-15
-3.21303e-14
1.67222e-13
-5.17036e-15
2.39998e-13
-5.85002e-15
4.60709e-15
-1.01737e-13
3.27289e-15
-3.11692e-13
1.00413e-15
0
3.89715e-14
-6.07315e-13
3.37558e-14
-4.20052e-12
1.45382e-13
-3.67578e-12
-3.05152e-13
-3.53406e-15
-1.53352e-16
-2.6143e-15
-1.67686e-16
-1.87029e-15
-2.67272e-16
-1.21863e-12
-3.26205e-15
-2.43356e-12
-8.55829e-13
-1.39695e-12
-1.35186e-12
-1.28062e-13
6.38522e-13
-9.23433e-14
9.18299e-14
-9.74896e-14
3.34078e-14
-9.17349e-14
4.28841e-14
-7.38257e-14
4.19324e-14
0
2.66145e-14
8.69341e-15
0
-1.82531e-14
1.72577e-14
-5.48718e-14
2.28174e-13
-4.37241e-14
2.28728e-13
-2.8716e-15
2.72635e-14
-6.22039e-16
8.46074e-16
-5.60503e-16
4.4563e-16
-1.24149e-14
4.75822e-14
-8.06992e-13
3.43254e-13
-3.37115e-12
2.94597e-13
-2.85078e-15
1.11791e-13
-1.9842e-15
2.35014e-17
-1.07811e-15
-3.61375e-17
-5.07265e-16
-9.45294e-17
-1.27744e-15
-1.47845e-15
-2.01005e-11
-7.95761e-13
-2.05206e-11
-6.62206e-13
-9.40367e-12
1.26674e-12
-5.70599e-14
1.87756e-12
-6.80429e-14
1.49105e-14
-7.1616e-14
1.68453e-14
-7.71079e-14
2.36948e-14
0
9.96039e-15
3.6787e-15
0
-2.19957e-14
1.81965e-14
-4.01934e-14
2.47995e-13
-1.78765e-14
2.0805e-13
-3.45243e-16
3.37623e-14
-5.80538e-16
9.05583e-16
-1.60325e-15
1.2925e-15
-8.57058e-13
8.43741e-13
-1.57712e-12
1.189e-12
-2.49293e-12
5.06218e-13
-2.773e-15
1.65226e-13
-1.85092e-15
1.38924e-16
-9.38786e-16
8.69507e-17
-6.83952e-18
3.55401e-17
-2.72981e-13
1.00304e-16
-1.88327e-11
-7.53539e-15
-1.94997e-11
2.77051e-13
-1.93953e-11
1.43129e-12
-1.11111e-11
3.26994e-12
-3.8976e-14
3.54114e-13
-3.22948e-14
6.63625e-15
-1.75212e-14
4.96051e-15
-1.05774e-14
6.89505e-15
2.5095e-15
-9.89592e-15
-2.00119e-15
4.20104e-15
-2.29901e-14
2.88311e-14
-2.28659e-14
1.03995e-13
-1.98545e-15
1.25999e-14
-2.24802e-15
9.92333e-16
-1.73426e-13
3.10261e-14
-1.61222e-12
1.55759e-12
-1.64396e-12
1.62512e-12
-1.66252e-13
4.91621e-13
-1.81398e-15
3.34577e-16
-1.4556e-15
3.80512e-16
-1.14449e-15
3.23966e-16
-1.83948e-16
1.36447e-16
0
1.88204e-17
-6.4645e-13
0
-1.68269e-11
1.95686e-14
-1.68884e-11
1.76779e-12
-7.39703e-12
1.44923e-12
-1.85079e-14
2.07531e-14
-2.02959e-14
5.43081e-15
-2.71734e-14
8.30365e-15
-1.59471e-14
8.9186e-15
3.24606e-15
-1.29512e-14
-8.22184e-17
1.53022e-15
-3.1298e-15
1.37716e-15
-1.55767e-15
5.91447e-16
-2.26931e-16
1.36422e-15
-4.42217e-16
1.12306e-15
-1.63946e-13
3.2107e-14
-1.2498e-12
9.56081e-13
-9.31331e-13
1.71103e-12
-1.30159e-15
1.12439e-13
-1.71038e-15
2.89072e-16
-1.39034e-15
5.46711e-16
-8.7662e-16
5.15197e-16
-1.74356e-16
2.37738e-16
0
2.92432e-17
-1.01469e-14
5.74436e-18
-1.10827e-12
0
-1.42825e-12
0
-3.63686e-13
0
-3.67493e-14
2.99787e-14
-3.92959e-14
4.44935e-15
-3.12258e-14
9.56214e-15
-1.11649e-14
7.77246e-15
2.18487e-15
-1.50707e-14
-1.67625e-17
1.53248e-15
-4.63726e-17
1.39245e-15
-7.62676e-17
5.23171e-16
-7.4743e-17
8.58076e-16
0
1.80593e-15
-6.79265e-14
3.46615e-14
-4.33026e-13
0
-1.24884e-13
2.52909e-16
-5.80598e-16
0
-1.09479e-15
3.47914e-16
-1.16234e-15
7.5788e-16
-6.70868e-16
5.88938e-16
-1.35184e-16
1.091e-16
-1.27181e-16
3.61845e-17
-1.54984e-16
3.29021e-17
-3.11577e-16
6.21831e-18
-3.9115e-16
6.18162e-17
-9.94704e-16
0
-1.24536e-14
0
-3.32673e-14
5.58666e-15
-2.66202e-14
8.76951e-15
-7.83414e-15
4.10643e-15
1.85539e-16
-3.17177e-15
-8.7278e-18
1.52696e-15
-5.00756e-17
1.41935e-15
-5.45487e-17
1.59068e-15
-5.57261e-16
8.97569e-16
-4.19237e-15
7.90662e-15
-3.4911e-16
1.4012e-14
-2.48312e-16
3.01789e-16
-2.15476e-17
1.83525e-17
-1.75131e-16
3.07621e-17
-6.79908e-16
3.98702e-16
-7.04067e-16
5.00414e-16
-1.9527e-16
2.30748e-16
-8.38471e-17
3.5342e-17
-1.09409e-16
3.16876e-17
-1.16909e-16
4.07743e-17
-1.13108e-16
3.56445e-17
-1.15283e-16
3.23038e-17
-1.81143e-16
3.07965e-17
-2.7301e-15
5.5477e-17
-6.09095e-15
1.21815e-16
-4.94537e-15
8.35607e-17
-2.52615e-15
2.19908e-17
1.03882e-16
-1.67023e-15
-2.72915e-15
7.53295e-13
-1.55721e-15
8.56769e-13
-4.44917e-17
7.98516e-17
-2.57862e-16
1.13929e-15
-2.29511e-15
7.86343e-15
-2.69174e-16
7.48287e-15
-8.90144e-18
2.81661e-17
-1.04112e-17
2.26641e-17
-9.40883e-17
2.70426e-17
-2.00933e-16
1.05382e-16
-1.49758e-16
9.41754e-17
-2.4418e-17
2.30812e-17
-3.30675e-17
4.53045e-18
-7.28192e-17
1.84227e-17
-9.59216e-17
3.51386e-17
-1.00945e-16
3.91425e-17
-9.98798e-17
3.69755e-17
-9.0894e-17
3.0151e-17
-6.48021e-17
9.99015e-18
-1.7357e-17
3.59168e-18
-3.4602e-17
1.38663e-18
-2.51892e-16
5.25698e-19
2.17742e-18
-1.93383e-16
-3.20096e-15
7.6051e-13
-5.99382e-17
4.73827e-13
-5.72145e-17
7.80104e-17
-4.41112e-16
1.34245e-15
-5.65261e-16
4.32468e-15
-2.82785e-17
3.29325e-16
-7.15819e-18
3.12657e-17
-5.78393e-18
2.40983e-17
-1.61943e-17
7.7576e-18
-1.866e-17
5.67149e-18
-6.80047e-18
2.92606e-18
-1.29354e-18
2.6073e-19
-5.18987e-18
1.29644e-18
-2.61454e-17
3.2986e-18
-4.49366e-17
1.13011e-17
-4.95647e-17
1.5106e-17
-4.75768e-17
1.41442e-17
-3.08881e-17
9.20192e-18
-1.60699e-17
3.41841e-18
-7.72857e-18
1.33542e-18
-3.73598e-18
6.55708e-19
-2.89888e-18
8.26274e-20
1.43351e-20
-9.74441e-19
-1.54326e-15
7.66066e-13
-4.28804e-17
7.33528e-14
-4.39529e-17
7.92757e-17
-1.6901e-16
9.61723e-16
-2.03078e-17
1.14388e-15
-5.09919e-18
1.32121e-17
-5.39294e-18
2.61892e-17
-1.45641e-18
1.98553e-17
-5.3638e-19
6.01471e-19
-3.23101e-19
1.02072e-18
-5.63756e-20
4.4721e-19
7.36774e-20
7.3201e-21
-6.61549e-19
-9.383e-20
-2.65669e-18
6.8029e-19
-7.08948e-18
5.4901e-19
-7.421e-18
9.87427e-19
-6.31501e-18
8.27099e-19
-3.51952e-18
4.0045e-19
-1.90168e-18
1.65037e-19
-1.20863e-18
8.0867e-20
-4.69926e-19
4.51087e-20
-2.87658e-19
8.24175e-21
1.08114e-21
-2.63719e-19
-3.16966e-15
7.73704e-13
-2.36929e-17
3.40241e-14
-2.48506e-17
8.03612e-17
-3.31598e-17
3.8401e-16
-1.36852e-18
1.4038e-16
-2.1537e-18
9.62643e-18
-2.56593e-18
1.10419e-17
-1.6843e-19
6.56543e-18
2.10796e-19
8.943e-21
3.62292e-19
-6.94868e-19
5.172e-19
-9.27862e-19
5.3591e-19
-1.04661e-18
2.57147e-19
-8.68172e-19
-5.39582e-20
-3.37021e-19
-1.60046e-19
5.7728e-20
-1.65333e-19
1.42227e-19
-1.059e-19
1.13152e-19
-4.69467e-20
4.7358e-20
-2.35152e-20
1.73035e-20
-1.31454e-20
6.95147e-21
-2.71984e-21
2.54282e-21
-9.14497e-22
2.84036e-22
1.2377e-23
-2.23638e-21
-5.02637e-15
7.83243e-13
-6.82819e-18
2.91663e-13
-7.88449e-18
8.13058e-17
-6.31776e-18
1.03916e-16
-1.03609e-18
6.95885e-17
-6.42909e-19
9.5388e-18
-4.13598e-19
1.349e-18
1.65674e-19
2.26615e-19
3.87537e-19
-8.95996e-19
5.21588e-19
-1.60901e-18
6.07058e-19
-1.69293e-18
5.89209e-19
-1.56318e-18
4.56975e-19
-1.2178e-18
2.92404e-19
-7.65058e-19
1.9118e-19
-3.99307e-19
1.47329e-19
-2.13944e-19
1.25627e-19
-1.35241e-19
1.03342e-19
-9.40202e-20
7.89269e-20
-6.17915e-20
5.51535e-20
-3.59164e-20
3.57139e-20
-1.71115e-20
2.15307e-20
-5.61995e-21
9.53934e-23
1.20582e-20
-1.00732e-14
7.93331e-13
-3.73964e-18
7.81477e-13
-4.63945e-18
8.20945e-17
-3.40031e-18
8.16149e-17
-1.0912e-18
7.05111e-17
-5.11149e-20
9.69239e-18
-2.65719e-20
3.1106e-19
1.87261e-19
2.6855e-21
3.37225e-19
-1.28426e-18
4.25174e-19
-1.79065e-18
4.62095e-19
-1.77386e-18
4.39623e-19
-1.53399e-18
3.69194e-19
-1.1732e-18
2.83552e-19
-7.98366e-19
2.10913e-19
-4.99611e-19
1.59794e-19
-3.03557e-19
1.20602e-19
-1.8746e-19
8.77679e-20
-1.14152e-19
6.09915e-20
-6.53534e-20
4.04208e-20
-3.38197e-20
2.54933e-20
-1.47779e-20
1.52154e-20
-4.35598e-21
2.80078e-22
8.62683e-21
-1.00812e-14
8.03427e-13
-3.77034e-18
7.71398e-13
-4.45766e-18
8.26702e-17
-3.0992e-18
8.51076e-17
-9.90487e-19
8.86611e-17
-5.01052e-20
1.1468e-17
7.61229e-21
3.64825e-19
1.04885e-19
-8.86608e-20
1.89984e-19
-9.42296e-19
2.43126e-19
-1.32985e-18
2.63391e-19
-1.34075e-18
2.51603e-19
-1.15652e-18
2.16604e-19
-8.87764e-19
1.72712e-19
-6.1861e-19
1.30886e-19
-4.01133e-19
9.6258e-20
-2.47526e-19
6.80934e-20
-1.47632e-19
4.5931e-20
-8.36103e-20
2.96709e-20
-4.38624e-20
1.86116e-20
-2.07421e-20
1.1348e-20
-8.32337e-21
6.6527e-21
-2.15736e-21
2.30189e-22
3.68401e-21
-9.92703e-15
8.13368e-13
-5.02208e-18
4.81901e-13
-5.46558e-18
8.30028e-17
-3.8063e-18
1.53878e-16
-1.02064e-18
1.47065e-16
-1.37385e-19
1.79634e-17
-9.43913e-20
3.33515e-18
1.04623e-22
2.0158e-18
4.16988e-20
-1.30989e-21
7.91658e-20
-4.07123e-19
1.02961e-19
-6.07244e-19
1.08626e-19
-6.26195e-19
9.8619e-20
-5.28539e-19
8.06019e-20
-3.86765e-19
6.1213e-20
-2.56052e-19
4.40107e-20
-1.57706e-19
2.97244e-20
-9.15346e-20
1.88584e-20
-4.92035e-20
1.13405e-20
-2.40786e-20
6.61131e-21
-1.04609e-20
3.79348e-21
-3.79458e-21
2.1453e-21
-8.22926e-22
1.26538e-22
1.17414e-21
-3.30716e-15
8.16686e-13
-8.36953e-18
6.0514e-16
-8.53537e-18
8.30707e-17
-5.70343e-18
3.68843e-16
-1.10511e-18
2.50932e-16
-3.07601e-19
3.40991e-17
-2.92775e-19
1.32483e-17
-2.67409e-19
1.07478e-17
-1.80829e-19
7.38342e-18
-8.08158e-20
3.72795e-18
7.15695e-21
1.41877e-18
2.71867e-20
-6.57178e-20
3.3332e-20
-1.96908e-19
2.96631e-20
-1.92377e-19
2.28348e-20
-1.37454e-19
1.6293e-20
-8.52361e-20
1.0641e-20
-4.88391e-20
6.39234e-21
-2.52728e-20
3.56701e-21
-1.16532e-20
1.89632e-21
-4.65888e-21
9.87604e-22
-1.5047e-21
5.15224e-22
-2.53836e-22
5.52573e-23
2.81214e-22
-5.68207e-16
2.4241e-16
-6.72857e-18
2.46124e-16
-7.7277e-18
2.86394e-16
-5.28883e-18
5.96248e-16
-8.20518e-19
3.45938e-16
-3.27017e-19
6.30363e-17
-3.52501e-19
3.46151e-17
-3.91752e-19
3.00525e-17
-3.62892e-19
2.25164e-17
-2.5784e-19
1.3859e-17
-1.23192e-19
6.61378e-18
-2.40529e-20
2.17483e-18
6.14979e-21
3.53817e-19
8.22016e-21
-6.00165e-20
6.65924e-21
-6.29446e-20
4.81119e-21
-4.04615e-20
3.07029e-21
-2.32737e-20
1.75155e-21
-1.1729e-20
9.03033e-22
-5.13989e-21
4.30094e-22
-1.90211e-21
1.95561e-22
-5.4429e-22
8.70225e-23
-6.49354e-23
2.19512e-23
4.58175e-23
-1.96073e-18
2.37027e-16
-3.16383e-18
2.4776e-16
-2.39748e-18
5.38128e-16
5.96327e-19
6.08484e-16
1.1602e-18
3.58318e-16
4.16243e-19
1.00477e-16
3.6109e-19
6.79747e-17
2.28022e-19
5.96631e-17
2.88064e-20
4.56398e-17
-9.09873e-20
2.99868e-17
-9.19561e-20
1.52315e-17
-3.69244e-20
5.39005e-18
-2.22629e-21
1.05915e-18
1.34572e-21
4.3905e-20
1.30679e-21
-2.35649e-20
9.89336e-22
-1.72343e-20
6.21444e-22
-1.01358e-20
3.31916e-22
-5.01865e-21
1.52261e-22
-2.10059e-21
6.04238e-23
-7.22359e-22
2.08457e-23
-1.83336e-22
5.70182e-24
-1.31373e-23
8.59505e-24
5.7701e-25
-6.23189e-19
2.36073e-16
4.1635e-19
2.46638e-16
4.63984e-18
5.56189e-16
9.67112e-18
6.0498e-16
5.26957e-18
3.38115e-16
2.63023e-18
1.28853e-16
2.52544e-18
1.04486e-16
2.27277e-18
9.35394e-17
1.53863e-18
7.22298e-17
8.44981e-19
4.89831e-17
3.0319e-19
2.56407e-17
5.71687e-20
8.76966e-18
3.39318e-21
1.42113e-18
3.27118e-22
6.24581e-20
2.22974e-25
-5.57805e-21
1.86025e-23
-6.66689e-21
1.11708e-23
-4.10526e-21
-1.36772e-24
-2.00796e-21
-1.40359e-23
-8.04229e-22
-1.6186e-23
-2.57239e-22
-1.26925e-23
-5.82277e-23
-8.5827e-24
-1.4253e-24
3.09575e-24
-5.49358e-24
6.52156e-19
2.33845e-16
2.56457e-18
2.20028e-16
1.11549e-17
4.40772e-16
1.60708e-17
4.06546e-16
8.35219e-18
2.35512e-16
6.10303e-18
1.3259e-16
6.18588e-18
1.23745e-16
5.94709e-18
1.1743e-16
4.27445e-18
9.55398e-17
2.6174e-18
6.58876e-17
1.10147e-18
3.47369e-17
2.31439e-19
1.09427e-17
1.48398e-20
1.46777e-18
3.19468e-21
6.03708e-20
-2.28343e-23
-4.21221e-22
-1.44712e-22
-2.38614e-21
-1.16484e-22
-1.57084e-21
-7.63737e-23
-7.59718e-22
-4.45453e-23
-2.90805e-22
-2.36781e-23
-8.67928e-23
-1.18217e-23
-1.75686e-23
-5.90916e-24
1.36965e-25
1.02485e-24
-3.07763e-24
2.20329e-18
2.90438e-16
3.70331e-18
1.68253e-16
9.32552e-18
2.11996e-16
9.31237e-18
1.79719e-16
9.61545e-18
1.56027e-16
9.51006e-18
1.31185e-16
9.73153e-18
1.25362e-16
9.74936e-18
1.21258e-16
7.79881e-18
1.06574e-16
4.83254e-18
7.54489e-17
2.02251e-18
3.90497e-17
3.79915e-19
1.13641e-17
2.06103e-20
1.3944e-18
1.45843e-22
3.47746e-20
3.0063e-24
2.88835e-23
-9.28884e-23
-8.21978e-22
-7.94852e-23
-5.77186e-22
-4.98932e-23
-2.75044e-22
-2.6511e-23
-1.00266e-22
-1.25617e-23
-2.78448e-23
-5.55809e-24
-4.98489e-24
-2.49002e-24
1.09441e-25
3.02675e-25
-1.18953e-24
9.21265e-18
9.33582e-16
4.83336e-18
1.72819e-16
7.7504e-18
2.09044e-16
1.01599e-17
1.77276e-16
1.16358e-17
1.54517e-16
1.22514e-17
1.30536e-16
1.25828e-17
1.23121e-16
1.27287e-17
1.22273e-16
1.08503e-17
1.08121e-16
6.75801e-18
7.72612e-17
2.717e-18
3.96991e-17
4.68364e-19
1.13313e-17
1.80107e-20
1.02697e-18
5.76614e-23
1.26694e-20
4.0189e-24
2.83997e-23
-4.34737e-23
-2.82315e-22
-3.86771e-23
-2.06903e-22
-2.3446e-23
-9.61805e-23
-1.16267e-23
-3.31404e-23
-5.05433e-24
-8.49862e-24
-2.02889e-24
-1.32484e-24
-8.32726e-25
4.40611e-26
7.81676e-26
-3.67361e-25
2.94449e-17
1.38669e-15
6.81981e-18
1.95409e-16
1.04917e-17
2.05338e-16
1.34682e-17
1.74266e-16
1.49495e-17
1.53003e-16
1.53574e-17
1.30095e-16
1.51752e-17
1.21484e-16
1.54357e-17
1.21996e-16
1.3138e-17
1.08613e-16
8.15374e-18
7.7907e-17
3.16057e-18
3.89841e-17
4.53026e-19
9.5431e-18
9.74261e-21
5.63047e-19
1.305e-23
3.47154e-21
1.16301e-24
2.028e-24
-1.82163e-23
-9.8865e-23
-1.63023e-23
-7.32628e-23
-9.43144e-24
-3.27254e-23
-4.34218e-24
-1.05315e-23
-1.72157e-24
-2.45837e-24
-6.20465e-25
-3.26668e-25
-2.31551e-25
1.321e-26
1.73734e-26
-9.35432e-26
5.36107e-16
1.33253e-15
3.19557e-14
1.73105e-13
1.55685e-13
2.25633e-12
1.61993e-13
2.03297e-12
0
1.03258e-12
2.07614e-17
1.33712e-14
1.70189e-17
1.2345e-16
1.75394e-17
1.18227e-16
1.49107e-17
1.05915e-16
8.97561e-18
7.45257e-17
3.07648e-18
3.38533e-17
3.09092e-19
6.27729e-18
3.44906e-21
2.23143e-19
2.04859e-24
7.09683e-22
1.70694e-25
1.42418e-25
-7.30901e-24
-3.57291e-23
-6.33267e-24
-2.58122e-23
-3.42761e-24
-1.08632e-23
-1.44251e-24
-3.21156e-24
-5.11882e-25
-6.6893e-25
-1.62395e-25
-7.42997e-26
-5.42948e-26
3.14387e-27
3.25161e-27
-1.97308e-26
5.6618e-16
1.24781e-15
1.91938e-13
3.05888e-13
3.38656e-13
2.13415e-12
3.00679e-13
2.07193e-12
1.24695e-13
1.94408e-12
1.84496e-17
8.5334e-14
9.81636e-18
1.31734e-16
1.80485e-17
1.09691e-16
1.58204e-17
9.86969e-17
8.66807e-18
6.51452e-17
2.34539e-18
2.46065e-17
1.42964e-19
3.08241e-18
7.69353e-22
5.88309e-20
2.0247e-25
8.69716e-23
1.82886e-26
9.55911e-26
-2.89923e-24
-1.34289e-23
-2.32615e-24
-9.06774e-24
-1.1486e-24
-3.5124e-24
-4.32421e-25
-9.34947e-25
-1.33908e-25
-1.69815e-25
-3.63524e-26
-1.54596e-26
-1.06208e-26
6.00655e-28
4.99811e-28
-3.40325e-27
6.17397e-16
1.11101e-15
9.31166e-14
1.78011e-13
4.0121e-13
1.82704e-12
4.10905e-13
2.06322e-12
1.32797e-13
1.05275e-12
0
5.94802e-14
1.11261e-17
1.24017e-16
1.84099e-17
1.06136e-16
1.50309e-17
8.80618e-17
7.02689e-18
5.05248e-17
1.33034e-18
1.43466e-17
4.20954e-20
1.04763e-18
9.37392e-23
8.84059e-21
7.10674e-24
5.1183e-24
-5.2471e-26
-2.66798e-25
-1.15974e-24
-5.285e-24
-8.1667e-25
-3.17063e-24
-3.57818e-25
-1.10287e-24
-1.1749e-25
-2.58561e-25
-3.08338e-26
-3.9955e-26
-6.91198e-27
-2.92401e-27
-1.70511e-27
9.1867e-29
6.13777e-29
-4.69514e-28
3.77079e-15
1.31117e-15
1.19715e-13
5.0233e-15
4.71084e-13
1.03884e-13
2.83438e-13
6.71835e-13
0
0
0
1.81212e-15
1.88964e-17
1.19384e-16
1.89205e-17
1.05542e-16
1.23488e-17
7.28937e-17
4.52916e-18
3.30148e-17
5.15785e-19
6.12456e-18
6.89777e-21
2.10636e-19
5.19118e-24
6.2e-22
4.34997e-25
1.49767e-25
-2.18901e-25
-1.11164e-24
-4.63681e-25
-2.14021e-24
-2.75225e-25
-1.09959e-24
-1.04225e-25
-3.36063e-25
-2.90457e-26
-6.78792e-26
-6.25668e-27
-8.70242e-27
-1.11126e-27
-5.02313e-28
-2.20828e-28
1.1161e-29
5.83267e-30
-5.03289e-29
1.0756e-15
2.52033e-15
1.46463e-15
2.30022e-15
5.27792e-15
0
3.60108e-14
0
1.05969e-18
2.26477e-16
3.56398e-17
2.97251e-16
2.38111e-17
1.84044e-16
1.63491e-17
1.04896e-16
8.26557e-18
5.2525e-17
2.09996e-18
1.63805e-17
1.15236e-19
1.5869e-18
5.08425e-22
1.94911e-20
1.12103e-25
1.70002e-23
1.43094e-26
2.20263e-27
-1.56501e-25
-8.09397e-25
-1.81418e-25
-8.67141e-25
-8.95496e-26
-3.78026e-25
-2.86366e-26
-9.9787e-26
-6.58683e-27
-1.70178e-26
-1.12601e-27
-1.76709e-27
-1.51077e-28
-7.87444e-29
-2.2649e-29
1.08184e-30
4.15206e-31
-4.03593e-30
1.49494e-15
1.22877e-15
1.08542e-15
2.82206e-15
3.1136e-16
1.41738e-15
1.60515e-16
1.96915e-16
8.78616e-17
3.42628e-16
7.68141e-17
3.53867e-16
3.1961e-17
2.13792e-16
1.25762e-17