/*--------------------------------*- C++ -*----------------------------------*\
  =========                 |
  \\      /  F ield         | OpenFOAM: The Open Source CFD Toolbox
   \\    /   O peration     | Website:  https://openfoam.org
    \\  /    A nd           | Version:  9
     \\/     M anipulation  |
\*---------------------------------------------------------------------------*/
FoamFile
{
    format      ascii;
    class       volScalarField;
    location    "8.23";
    object      alpha.water;
}
// * * * * * * * * * * * * * * * * * * * * * * * * * * * * * * * * * * * * * //

dimensions      [0 0 0 0 0 0 0];

internalField   nonuniform List<scalar> 
2268
(
1
1
0.999999
0.999998
0.999999
1
0.999999
0.999999
0.999997
0.999998
1
1
1
1
0.999999
0.999999
1
1
0.998918
0.997762
0.998564
0.999995
0.999826
0.999998
0.999999
0.999997
0.999998
1
1
0.999998
0.999997
0.999997
0.999998
0.999999
0.999999
0.999999
0.999999
0.999999
0.999998
0.999998
1
0.998755
0.997762
0.99956
0.999995
0.999992
0.999997
0.999997
0.999997
0.999999
0.999999
1
0.999999
0.999999
0.999999
0.999999
0.999999
0.999999
0.999999
1
0.999999
0.999984
1
1
0.999191
0.997762
0.999809
0.999995
0.999995
0.999998
0.999999
0.999999
1
1
1
1
0.999999
0.999999
0.999999
1
1
1
1
1
0.999935
0.999841
0.999938
0.999916
0.998691
0.999874
0.999995
0.999983
1
1
1
1
1
1
1
1
1
1
1
1
1
1
1
0.999903
0.999086
0.999927
0.999988
0.999985
0.999988
0.998251
0.99988
1
1
1
1
1
1
1
1
1
1
1
1
1
1
1
1
0.997165
0.999943
0.999988
0.999988
0.999988
0.996547
0.999737
1
1
1
1
1
1
1
1
1
1
1
1
1
1
1
1
0.997455
0.985498
0.990745
0.999259
0.990137
0.995258
0.999965
1
1
1
1
1
1
1
1
0.999999
0.999999
0.999999
1
1
1
1
1
0.998298
0.984682
0.984681
0.986809
0.985523
0.995673
0.999969
0.999268
0.999812
0.999334
0.999239
0.999382
0.998025
0.994729
0.994716
0.994965
0.993663
0.992222
0.992222
0.993834
0.998685
0.998685
0.998685
0.998685
0.998685
0.998626
0.995635
0.999906
0.999997
0.999984
0.999992
0.999992
0.999992
0.999939
0.999939
0.999856
0.996487
0.992222
0.992223
0.99863
0.998685
0.998685
0.998668
0.997669
0.997441
0.992266
0.997893
0.999997
0.999988
0.999992
0.999985
0.999968
0.999968
0.999889
0.999904
0.999639
0.9952
0.99359
0.996743
0.998685
0.998685
0.997524
0.995007
0.995007
0.992266
0.998059
0.999997
0.999994
0.999996
0.999946
0.999758
0.999779
0.999427
0.999337
0.999689
0.99968
0.999209
0.998395
0.997914
0.998684
0.997082
0.995045
0.99732
0.992266
0.999099
0.999998
0.999998
0.999995
0.999822
0.999757
0.999762
0.999397
0.99899
0.999512
0.999685
0.999685
0.999319
0.995355
0.996551
0.99618
0.998434
0.998434
0.997791
0.999923
0.999998
0.999992
0.999969
0.999953
0.999938
0.9999
0.999198
0.999562
0.999676
0.999685
0.999685
0.999685
0.995358
0.990947
0.989335
0.998434
0.998434
0.999999
0.999999
0.999997
0.999988
0.999991
0.999996
0.999996
0.999967
0.99657
0.992614
0.999685
0.999685
0.999163
0.993532
0.991481
0.997344
0.988844
0.997794
0.998434
0.999999
0.999999
0.999998
0.999997
0.999997
0.999997
0.999996
0.999964
0.991264
0.984303
0.991061
0.99843
0.997339
0.984322
0.990455
0.997345
0.988874
0.996103
0.998434
1
1
1
1
1
1
1
1
0.999999
0.999999
0.999999
1
1
1
1
1
0.999997
0.997596
0.992545
0.988884
0.996237
0.999928
1
0.954418
0.954948
0.956856
0.958542
0.960756
0.963984
0.967762
0.971661
0.975169
0.977565
0.979297
0.980616
0.982812
0.986032
0.990115
0.995249
0.999998
0.999998
0.999998
0.999999
1
1
1
0.260211
0.261808
0.263883
0.267445
0.271946
0.277063
0.283204
0.290621
0.29967
0.310545
0.322795
0.33573
0.348259
0.360111
0.371381
0.382219
0.394868
0.41132
0.425439
0.433877
0.436945
0.437958
0.44013
0.000411189
0.000411035
0.000411144
0.000411208
0.00041121
0.000411208
0.000411443
0.000411953
0.000412431
0.000412704
0.000412908
0.000413172
0.000413426
0.000436279
0.000617421
0.000896141
0.00124962
0.00120828
0.000876489
0.000924055
0.00105119
0.00118195
0.00121126
0.0004901
0.000815319
0.000899767
0.000874406
0.000973935
0.00155212
0.00194522
0.00217775
0.00226044
0.00235658
0.00241041
0.00241254
0.00241269
0.00236932
0.00204228
0.00193565
0.00169521
0.00121925
0.00068603
0.00070597
0.000736383
0.000715347
0.000541397
0.000412803
0.000262015
0.000133336
0.000141932
0.000188473
2.71171e-08
2.71097e-08
2.71099e-08
2.71097e-08
2.71099e-08
2.71101e-08
2.79668e-08
2.88245e-08
6.39145e-06
6.73852e-05
8.10329e-05
0.000137413
0.000292468
0.000360049
0.000379047
0.000367549
0.000340557
0.000431458
2.32049e-09
2.32128e-09
7.80375e-06
2.0593e-07
8.38249e-08
8.06628e-08
5.52686e-08
2.71097e-08
2.71099e-08
2.71101e-08
2.71115e-08
2.99249e-07
3.55903e-05
6.62857e-05
6.7409e-05
4.92544e-05
1.25968e-05
1.34068e-05
9.6635e-06
7.68598e-06
4.9191e-05
0.00010699
0.000133203
2.3204e-09
2.32028e-09
6.62462e-09
3.65126e-07
1.43988e-06
1.75621e-06
8.16083e-07
1.47225e-07
6.60098e-07
9.06264e-07
1.95639e-07
2.41401e-06
4.56662e-05
6.48067e-05
5.16968e-05
2.02362e-05
1.10828e-05
6.05256e-06
1.97453e-06
6.63069e-09
1.80128e-08
6.94907e-09
4.41601e-08
2.32364e-09
2.32026e-09
2.32028e-09
1.52106e-08
6.63136e-07
1.85841e-06
1.85857e-06
9.25819e-07
1.62057e-06
2.74471e-06
2.04039e-06
1.05633e-06
4.53301e-10
4.54474e-10
5.03644e-10
1.03604e-05
1.16152e-05
3.07108e-06
6.63069e-09
6.6047e-09
6.51821e-09
4.66442e-09
4.62531e-09
2.49371e-09
2.32027e-09
2.32026e-09
2.32037e-09
1.809e-07
1.66648e-06
1.60309e-06
2.26873e-07
2.3834e-06
2.74471e-06
2.27202e-06
4.50741e-10
4.5139e-10
2.1999e-09
1.32198e-08
4.65728e-07
1.62049e-06
4.56732e-07
6.68843e-09
7.30697e-09
1.40434e-08
9.78519e-09
4.62531e-09
3.20435e-09
2.4812e-08
4.83994e-08
2.32697e-09
9.84226e-09
1.63935e-07
2.47792e-07
9.50598e-08
1.8863e-06
2.74471e-06
9.38169e-07
4.49854e-10
4.49604e-10
6.65123e-08
5.34162e-07
6.36917e-07
1.79951e-07
1.48124e-08
1.47917e-08
2.71864e-08
2.71865e-08
2.2429e-08
5.6065e-09
7.3002e-09
1.05045e-07
1.05216e-07
9.77278e-09
5.11761e-10
5.22608e-10
6.21106e-10
4.10279e-08
1.71692e-06
2.18342e-06
4.49573e-10
4.49431e-10
4.46002e-10
4.67065e-10
2.78426e-06
5.87109e-06
5.21154e-06
3.08658e-07
1.25562e-08
1.25456e-08
2.65702e-08
1.56111e-08
4.51077e-09
7.75562e-09
1.05434e-07
1.05434e-07
1.75137e-08
5.11761e-10
5.11761e-10
2.23275e-07
1.4635e-06
1.60345e-06
4.73752e-07
4.48905e-10
4.48494e-10
4.26055e-10
1.70737e-09
2.97973e-06
5.87087e-06
5.8711e-06
5.48628e-06
3.6385e-07
5.83258e-09
5.85421e-09
6.45634e-09
4.31053e-09
3.29425e-09
5.77424e-08
9.766e-08
1.06589e-08
5.11761e-10
1.86292e-08
1.07184e-06
1.60713e-06
1.36844e-06
3.26747e-10
6.26527e-10
7.62398e-10
4.25365e-10
2.18766e-10
5.29184e-08
2.55514e-06
5.87058e-06
5.30934e-06
2.45345e-08
5.83422e-09
6.21669e-09
1.24109e-08
6.81081e-09
1.15747e-09
1.71341e-09
1.69919e-08
2.42213e-09
5.21909e-10
1.79575e-08
1.12435e-06
1.60713e-06
6.75082e-07
3.266e-10
7.27961e-10
8.21827e-10
4.62949e-10
7.69798e-11
2.35995e-10
7.73875e-08
4.94441e-07
5.31965e-07
4.6284e-08
5.83259e-09
1.35692e-08
1.42309e-08
8.64572e-09
3.27839e-10
3.27847e-10
3.30616e-10
3.64951e-10
6.18438e-10
1.87427e-08
4.03745e-07
6.34912e-07
2.5255e-09
3.26524e-10
8.15526e-10
7.85542e-10
2.52115e-10
6.74039e-11
6.3998e-11
7.67976e-11
8.09417e-11
8.71457e-11
1.75207e-09
1.03857e-08
1.56968e-08
1.34939e-08
1.57162e-09
3.27847e-10
3.2784e-10
6.06116e-10
3.65312e-10
2.8624e-09
1.35274e-08
1.47448e-10
1.44177e-11
3.42417e-11
3.26637e-10
6.09831e-10
4.23674e-10
9.37383e-11
5.24589e-11
6.39982e-11
6.33711e-11
5.82863e-11
5.77107e-11
3.70561e-10
2.241e-09
3.3957e-09
2.15141e-09
1.11779e-09
1.69103e-07
1.7886e-07
2.83577e-11
4.1442e-10
3.53239e-09
8.08172e-09
1.41111e-11
1.34283e-11
2.40366e-11
1.52169e-10
2.07096e-10
9.01937e-11
1.94112e-11
3.26218e-11
5.46965e-11
6.12158e-11
6.09321e-11
5.54069e-11
4.73923e-11
2.87987e-11
1.00618e-11
5.38594e-11
1.7064e-10
2.74638e-07
2.5154e-07
2.83254e-11
5.18823e-10
2.57105e-09
1.45581e-09
1.5379e-11
1.3427e-11
9.79256e-12
2.27058e-11
2.03344e-11
4.4453e-12
1.21586e-12
1.02726e-11
2.6336e-11
3.45266e-11
3.54282e-11
2.86192e-11
1.63955e-11
8.42829e-12
4.23657e-12
2.35633e-12
1.82396e-12
2.74638e-07
1.16521e-07
2.83041e-11
4.28503e-10
1.05642e-09
4.07662e-11
1.36632e-11
1.16199e-11
1.82091e-12
6.17801e-13
2.92132e-13
1.38157e-15
-8.25231e-14
6.69486e-13
3.89379e-12
6.30933e-12
6.25687e-12
4.20875e-12
2.22554e-12
1.25366e-12
7.89298e-13
3.34612e-13
2.47125e-13
2.74636e-07
9.06779e-09
2.82949e-11
2.32187e-10
1.96497e-10
5.63209e-12
7.93274e-12
5.95277e-12
2.50393e-15
-4.15424e-13
-6.14543e-13
-7.72591e-13
-7.18781e-13
-3.14977e-13
5.88516e-14
1.69655e-13
1.56279e-13
7.65732e-14
3.39091e-14
1.75542e-14
9.25362e-15
1.92835e-15
9.67272e-16
2.75925e-07
1.68425e-08
2.82933e-11
7.1363e-11
3.15715e-11
3.97475e-12
2.03306e-12
8.01591e-13
-4.69475e-13
-9.25228e-13
-1.07498e-12
-1.10336e-12
-9.62376e-13
-6.82253e-13
-4.05454e-13
-2.50076e-13
-1.84678e-13
-1.53347e-13
-1.24808e-13
-9.56935e-14
-6.79106e-14
-4.49786e-14
-2.77898e-14
2.76482e-07
2.26415e-07
2.82933e-11
2.93192e-11
2.67537e-11
3.92092e-12
1.33725e-13
1.22601e-17
-6.55197e-13
-9.99486e-13
-1.09046e-12
-1.04606e-12
-8.94575e-13
-6.86925e-13
-4.90317e-13
-3.44402e-13
-2.50352e-13
-1.84197e-13
-1.32713e-13
-9.25982e-14
-6.23244e-14
-4.02308e-14
-2.46609e-14
2.76482e-07
2.76481e-07
2.82933e-11
2.98325e-11
3.03897e-11
4.2869e-12
1.45692e-13
-4.09039e-14
-4.71306e-13
-7.25831e-13
-8.04159e-13
-7.68181e-13
-6.58738e-13
-5.18015e-13
-3.83731e-13
-2.74704e-13
-1.94027e-13
-1.33993e-13
-8.96346e-14
-5.82572e-14
-3.72159e-14
-2.33205e-14
-1.41302e-14
2.76482e-07
2.72388e-07
2.82933e-11
4.34698e-11
4.49733e-11
5.927e-12
8.51094e-13
4.83141e-13
-6.4586e-16
-2.18554e-13
-3.57543e-13
-4.07739e-13
-3.8419e-13
-3.17332e-13
-2.40341e-13
-1.72252e-13
-1.18999e-13
-7.86077e-14
-4.96193e-14
-3.01642e-14
-1.80298e-14
-1.07321e-14
-6.35433e-15
2.76482e-07
7.91212e-08
2.82937e-11
9.62757e-11
7.58974e-11
1.04666e-11
3.62456e-12
3.03202e-12
2.09165e-12
1.03334e-12
3.13817e-13
-4.21559e-14
-1.40926e-13
-1.55452e-13
-1.27237e-13
-9.2061e-14
-6.30695e-14
-4.03858e-14
-2.42767e-14
-1.38236e-14
-7.6392e-15
-4.20758e-15
-2.35969e-15
7.92873e-08
6.89241e-11
6.88872e-11
1.90448e-10
1.16908e-10
1.95221e-11
1.03052e-11
9.45271e-12
7.48941e-12
4.83087e-12
2.42199e-12
8.14125e-13
9.55157e-14
-4.79445e-14
-5.76766e-14
-4.33686e-14
-2.99507e-14
-1.87995e-14
-1.08512e-14
-5.82404e-15
-2.97421e-15
-1.49719e-15
-7.65766e-16
7.71249e-11
8.19155e-11
1.59993e-10
2.17991e-10
1.34822e-10
3.29343e-11
2.19667e-11
2.05072e-11
1.67787e-11
1.17237e-11
6.39296e-12
2.46999e-12
5.42141e-13
1.17915e-14
-2.14293e-14
-1.83772e-14
-1.3028e-14
-8.08471e-15
-4.50282e-15
-2.2884e-15
-1.08704e-15
-5.05677e-16
-2.39419e-16
7.68136e-11
8.20478e-11
1.92385e-10
2.18262e-10
1.31297e-10
4.70907e-11
3.71797e-11
3.48937e-11
2.86767e-11
2.08336e-11
1.17875e-11
4.52705e-12
9.04625e-13
4.91e-14
-5.04182e-15
-7.08259e-15
-5.27724e-15
-3.25485e-15
-1.75242e-15
-8.44739e-16
-3.77579e-16
-1.67902e-16
-7.68359e-17
7.68136e-11
7.73927e-11
1.71255e-10
1.78175e-10
1.06064e-10
5.30517e-11
4.94741e-11
4.85724e-11
4.08371e-11
3.00974e-11
1.731e-11
6.27009e-12
1.01324e-12
4.80509e-14
-3.78635e-16
-2.52677e-15
-2.02028e-15
-1.23943e-15
-6.44221e-16
-2.95636e-16
-1.25432e-16
-5.30391e-17
-2.34116e-17
8.57623e-11
5.91085e-11
8.91132e-11
7.19562e-11
6.24381e-11
5.28681e-11
5.29862e-11
5.42532e-11
4.90916e-11
3.69589e-11
2.1069e-11
6.98847e-12
9.81809e-13
3.46285e-14
2.3902e-17
-8.67305e-16
-7.42304e-16
-4.51279e-16
-2.25594e-16
-9.82887e-17
-3.93581e-17
-1.58029e-17
-6.73042e-18
2.20131e-10
5.11878e-11
5.11766e-11
5.11765e-11
5.11765e-11
5.11765e-11
5.24313e-11
5.45387e-11
5.13484e-11
3.94306e-11
2.20239e-11
6.94799e-12
8.06595e-13
1.64884e-14
2.44183e-17
-2.96481e-16
-2.65723e-16
-1.58439e-16
-7.55645e-17
-3.10022e-17
-1.1577e-17
-4.37567e-18
-1.7655e-18
4.73836e-10
5.11766e-11
5.11765e-11
5.11765e-11
5.11765e-11
5.11765e-11
5.12575e-11
5.43298e-11
5.1283e-11
3.94475e-11
2.17034e-11
6.25051e-12
5.1746e-13
5.62966e-15
5.44708e-18
-1.03153e-16
-9.37624e-17
-5.39835e-17
-2.42527e-17
-9.22376e-18
-3.14575e-18
-1.09974e-18
-4.13134e-19
4.73606e-10
2.93112e-08
2.88019e-07
6.67982e-07
7.57862e-08
2.11751e-09
5.12419e-11
5.30398e-11
5.02549e-11
3.82535e-11
1.97406e-11
4.63267e-12
2.49678e-13
1.45171e-15
5.48696e-19
-3.6951e-17
-3.28287e-17
-1.78833e-17
-7.43572e-18
-2.56407e-18
-7.79931e-19
-2.47497e-19
-8.47155e-20
4.7381e-10
1.18734e-07
8.24957e-07
8.25257e-07
7.23518e-07
3.44582e-08
4.94311e-11
4.94244e-11
4.7372e-11
3.45812e-11
1.55592e-11
2.67516e-12
8.58931e-14
2.52971e-16
2.72294e-20
-1.37285e-17
-1.1423e-17
-5.74664e-18
-2.1643e-18
-6.5929e-19
-1.73647e-19
-4.87185e-20
-1.4874e-20
4.74115e-10
9.73457e-08
8.25257e-07
8.25257e-07
7.12784e-07
2.91374e-08
4.6613e-11
4.66034e-11
4.28136e-11
2.824e-11
1.01728e-11
1.13959e-12
1.89862e-14
2.38835e-17
-2.2602e-19
-5.32479e-18
-3.94152e-18
-1.7848e-18
-5.94578e-19
-1.5552e-19
-3.42369e-20
-8.20699e-21
-2.17866e-21
5.49514e-10
1.79803e-08
4.25528e-07
7.29166e-07
2.11745e-07
5.208e-09
4.70506e-11
4.52927e-11
3.63991e-11
2.00383e-11
5.18961e-12
3.23726e-13
2.30467e-15
1.09366e-18
-9.2517e-19
-2.11847e-18
-1.34352e-18
-5.35124e-19
-1.53939e-19
-3.35711e-20
-5.93712e-21
-1.16193e-21
-2.58809e-22
1.85872e-09
1.64327e-09
3.41056e-09
5.4438e-08
2.26829e-09
1.88417e-10
6.44936e-11
4.43911e-11
2.77542e-11
1.15065e-11
1.83004e-12
5.15279e-14
1.26868e-16
1.8118e-20
-6.60201e-19
-8.40657e-19
-4.52094e-19
-1.5546e-19
-3.77581e-20
-6.67117e-21
-9.06975e-22
-1.36201e-22
-2.41454e-23
2.00852e-09
1.56316e-09
6.05427e-10
2.31726e-10
1.32811e-10
1.32718e-10
8.30069e-11
4.10373e-11
1.79314e-11
4.71609e-12
3.62909e-13
3.59256e-15
2.59343e-18
4.89373e-23
-3.6043e-19
-3.313e-19
-1.50874e-19
-4.41976e-20
-8.90286e-21
-1.24474e-21
-1.24907e-22
-1.32476e-23
-1.71272e-24
4.65908e-10
1.23024e-09
9.33288e-10
4.62954e-10
2.61844e-10
1.68918e-10
8.31426e-11
3.16648e-11
8.67779e-12
1.11636e-12
3.04114e-14
8.36714e-17
1.71376e-20
-6.3697e-20
-1.82249e-19
-1.30154e-19
-5.03292e-20
-1.24865e-20
-2.06596e-21
-2.25278e-22
-1.61745e-23
-1.09492e-24
-8.8956e-26
-1.19598e-26
4.17346e-10
8.50379e-10
6.89939e-10
4.409e-10
2.11732e-10
7.74718e-11
1.95554e-11
2.63648e-12
1.13942e-13
7.83845e-16
5.52646e-19
2.4052e-23
-6.04385e-20
-8.8132e-20
-5.11171e-20
-1.69313e-20
-3.57102e-21
-4.86382e-22
-4.12595e-23
-2.07064e-24
-7.99071e-26
-3.18995e-27
-2.61889e-27
3.29647e-11
3.9743e-10
5.1773e-10
3.80825e-10
1.8347e-10
5.13406e-11
6.50997e-12
2.86511e-13
2.81258e-15
3.97187e-18
9.7284e-22
-1.08527e-20
-4.08637e-20
-4.12743e-20
-2.01158e-20
-5.79459e-21
-1.0556e-21
-1.20988e-22
-8.22338e-24
-3.01445e-25
-5.46718e-27
-6.14345e-29
1
1
1
1
1
1
1
1
0.442165
0.441868
0.440316
0.437686
0.00114322
0.00114117
0.00117168
0.00108318
0.000372643
0.000394198
0.000510649
0.000528237
0.000256849
0.000135439
0.000241834
0.000444643
0.000143179
0.000101554
0.000109755
0.000127669
1.00066e-06
3.66877e-06
1.45062e-06
2.16361e-07
4.95707e-09
3.31213e-08
1.41251e-07
4.68699e-07
4.62531e-09
1.00054e-06
1.48727e-05
2.10217e-05
2.74915e-06
2.04882e-05
2.10212e-05
2.10221e-05
1.02346e-07
2.95376e-06
1.8201e-05
2.10222e-05
4.31053e-09
1.18465e-08
1.40893e-07
7.10955e-07
8.96817e-09
1.3314e-08
5.47638e-09
2.15778e-09
2.74099e-08
3.73598e-08
3.73617e-08
3.73294e-08
2.11909e-09
4.32601e-09
1.0645e-08
3.83055e-08
8.20728e-10
8.83322e-11
2.16526e-12
4.55431e-11
1.03913e-10
6.92477e-12
3.05291e-13
1.84604e-13
6.01082e-13
3.86717e-13
3.67006e-13
1.86078e-13
2.38671e-13
2.34282e-13
1.84607e-13
1.10399e-13
3.06437e-15
4.29556e-15
2.42822e-15
7.89366e-16
-1.59041e-14
-1.26008e-14
-1.00135e-14
-7.94476e-15
-1.43539e-14
-1.13796e-14
-9.11152e-15
-7.33947e-15
-8.10772e-15
-6.18808e-15
-4.80251e-15
-3.79352e-15
-3.6671e-15
-2.70663e-15
-1.99571e-15
-1.48718e-15
-1.4076e-15
-1.02567e-15
-7.36756e-16
-5.13875e-16
-4.86933e-16
-3.44812e-16
-2.45462e-16
-1.68586e-16
-1.59303e-16
-1.08996e-16
-7.47248e-17
-5.04713e-17
-5.03827e-17
-3.33644e-17
-2.19716e-17
-1.43181e-17
-1.49494e-17
-9.60168e-18
-6.10711e-18
-3.83041e-18
-4.15502e-18
-2.56758e-18
-1.568e-18
-9.42294e-19
-1.04271e-18
-6.14465e-19
-3.57445e-19
-2.04424e-19
-2.31019e-19
-1.28561e-19
-7.05148e-20
-3.79794e-20
-4.42566e-20
-2.29645e-20
-1.17235e-20
-5.86756e-21
-7.14475e-21
-3.40309e-21
-1.59116e-21
-7.27821e-22
-9.42709e-22
-4.03898e-22
-1.69415e-22
-6.93284e-23
-9.80029e-23
-3.67272e-23
-1.3435e-23
-4.77909e-24
-7.65825e-24
-2.4081e-24
-7.37204e-25
-2.18717e-25
-4.21718e-25
-1.03759e-25
-2.48628e-26
-5.76425e-27
-1.4675e-26
-2.47094e-27
-4.09502e-28
-6.60616e-29
-2.57246e-28
-2.17935e-29
-1.88061e-30
-1.62991e-31
-1.04385e-30
-1.68961e-32
-2.775e-34
-4.88087e-36
1
1
1
1
0.999088
0.996259
0.995974
0.997245
0.997025
0.98373
0.977714
0.977713
0.977746
0.983986
0.997327
0.997344
0.993888
0.993537
0.997676
1
0.997573
0.994069
0.989913
0.985678
0.981515
0.976954
0.974578
0.981204
0.985057
0.985058
0.984319
0.98179
0.978307
0.970797
0.963952
0.96256
0.954786
0.949842
0.431935
0.4233
0.415252
0.407988
0.400861
0.393623
0.384848
0.373384
0.359583
0.350673
0.341586
0.33077
0.320628
0.309511
0.298757
0.293297
0.291238
0.291084
0.29153
0.000925624
0.000964465
0.00120416
0.00115081
0.00102568
0.000721618
0.000489123
0.000368275
0.000317732
0.000259847
0.00025938
0.000259155
0.000259017
0.000259155
0.000259352
0.000259577
0.000259679
0.000260531
0.000260562
0.000455709
0.00058142
0.00103265
0.00101174
0.000979677
0.000996724
0.00101667
0.00101891
0.00101892
0.00101881
0.000926009
0.000638251
0.000258762
0.000619189
0.000739351
0.000739371
0.000739365
0.000739366
0.00064572
0.000455906
0.000369077
0.000357089
0.000364017
0.000333192
0.000265844
0.00021007
0.000179447
0.000154455
8.22749e-05
5.71119e-06
5.71178e-06
0.000136569
0.00014055
0.000165665
0.000211676
0.000217173
0.000231251
0.00029648
0.000107546
8.00556e-05
1.41069e-05
2.20124e-08
5.15195e-07
8.89121e-07
2.86187e-06
2.88155e-06
2.90794e-06
2.92453e-06
9.35878e-06
1.10633e-05
2.45259e-05
2.9562e-06
5.17749e-07
5.17764e-07
5.17746e-07
5.17754e-07
5.17743e-07
1.2907e-07
1.49039e-08
8.05748e-09
2.10622e-08
7.94822e-07
2.2927e-05
3.74145e-05
2.95799e-05
2.13318e-05
3.31017e-05
5.07208e-05
5.07202e-05
4.61962e-05
7.72022e-06
5.17739e-07
5.17739e-07
5.17741e-07
5.17742e-07
5.17742e-07
6.99329e-07
8.05748e-09
8.05748e-09
8.05748e-09
1.40751e-05
4.76304e-05
4.76343e-05
4.6503e-05
4.64134e-05
4.31188e-05
4.97167e-05
5.07208e-05
4.74499e-05
6.46012e-06
5.43546e-07
5.1774e-07
5.17741e-07
5.17741e-07
5.17742e-07
2.10214e-05
5.74654e-06
8.05748e-09
8.06469e-09
1.27669e-05
3.11282e-05
1.25664e-05
1.14759e-07
1.13491e-07
1.11522e-07
4.48237e-06
1.97662e-05
2.90595e-05
1.56162e-05
3.18327e-06
5.1774e-07
5.1774e-07
5.17749e-07
5.17935e-07
2.10212e-05
2.10208e-05
1.18183e-05
1.20251e-06
1.07737e-06
2.09736e-09
2.09747e-09
3.38987e-07
7.41816e-07
1.11192e-07
6.68288e-08
1.27542e-06
1.13993e-05
1.60434e-05
2.85128e-06
5.1774e-07
5.1774e-07
5.19254e-07
5.19254e-07
2.10216e-05
2.1014e-05
1.99868e-05
2.49521e-06
2.09645e-09
2.09589e-09
2.50656e-07
8.72022e-07
8.72022e-07
2.49728e-07
6.43832e-08
2.71514e-06
5.85395e-06
1.40675e-05
5.41618e-07
5.1774e-07
5.17739e-07
5.1774e-07
5.17742e-07
5.3117e-06
9.59174e-06
2.04054e-06
2.09575e-09
2.09477e-09
8.71927e-09
6.35209e-08
8.34682e-08
3.52296e-08
2.5089e-10
2.50891e-10
2.56307e-10
1.99714e-06
9.3063e-06
9.30805e-06
5.2963e-06
5.17738e-07
5.17738e-07
5.17739e-07
2.13612e-09
2.10982e-09
2.0983e-09
2.09682e-09
4.02712e-09
4.96216e-09
2.50715e-10
2.50699e-10
2.50715e-10
2.50715e-10
2.50939e-10
2.59945e-10
3.28819e-06
8.47663e-06
9.30442e-06
9.29904e-06
2.95044e-06
5.17736e-07
5.17738e-07
4.6103e-08
5.94629e-08
3.47255e-08
1.62597e-09
1.39042e-09
1.29436e-09
7.49878e-10
3.21175e-10
2.51909e-10
6.21951e-10
8.19955e-10
6.4442e-10
5.03469e-11
5.07691e-11
1.96082e-06
1.44056e-06
2.75379e-06
6.05461e-06
7.47968e-06
1.73216e-07
2.43605e-07
2.43605e-07
9.02639e-08
6.61643e-09
2.53563e-10
3.98774e-10
1.10819e-09
2.02882e-09
7.36128e-10
7.52087e-10
4.92367e-10
5.03469e-11
5.03469e-11
5.07653e-11
1.22725e-07
8.54099e-06
1.25765e-05
1.25771e-05
9.2317e-08
2.43605e-07
2.43588e-07
2.43571e-07
1.43162e-07
2.53563e-10
4.11824e-09
3.23539e-08
4.0464e-08
8.22569e-09
4.73599e-11
4.73512e-11
5.19943e-11
5.10913e-11
5.22711e-11
7.84213e-07
1.03427e-05
1.25768e-05
8.65136e-06
3.48918e-14
4.48764e-08
2.12304e-07
2.43502e-07
1.93653e-07
7.72594e-10
9.51958e-09
6.46977e-08
6.46992e-08
5.39317e-08
1.27945e-10
4.72896e-11
7.24401e-11
7.27407e-11
1.12914e-10
3.44932e-08
1.08059e-06
2.0788e-06
1.1154e-12
3.48555e-14
-3.50659e-33
-1.67726e-36
3.39434e-08
1.97943e-08
3.18773e-09
1.30656e-08
6.27487e-08
6.46941e-08
6.42127e-08
1.28026e-08
4.70461e-11
4.73381e-11
5.35698e-11
3.54913e-10
2.36816e-09
1.11177e-12
1.11177e-12
1.11177e-12
4.56687e-14
-2.2605e-17
-8.43239e-17
4.93038e-35
2.54975e-19
3.06273e-16
8.18593e-10
1.2593e-08
3.40589e-08
1.79044e-08
1.21166e-09
4.69947e-11
4.83327e-11
1.94154e-11
5.38987e-12
1.11182e-12
1.11177e-12
1.11177e-12
1.11177e-12
-3.41461e-16
-6.5152e-16
-4.94972e-16
-4.95129e-17
6.70116e-16
6.70246e-16
6.75036e-16
6.89157e-16
7.19339e-16
7.8124e-16
8.77003e-16
1.33222e-11
6.00865e-11
6.38174e-12
1.70701e-12
1.24527e-12
1.14303e-12
1.11177e-12
1.11178e-12
-6.30795e-15
-3.32053e-15
-1.61883e-15
-1.73671e-16
2.3245e-15
1.69185e-14
3.57626e-14
7.05658e-14
1.30107e-13
1.71266e-13
2.21024e-13
6.29956e-13
1.23037e-12
6.74845e-13
3.71039e-13
7.23852e-13
1.3914e-12
1.11178e-12
1.43924e-07
-5.89052e-15
-3.40403e-15
-1.92655e-15
-1.03473e-15
-4.59497e-16
0
1.14868e-15
2.86822e-14
1.22893e-13
1.71251e-13
1.95959e-13
4.34994e-13
5.75807e-13
1.91676e-13
8.46892e-14
5.21121e-13
1.85262e-12
1.11181e-12
1.85268e-06
-3.01396e-15
-1.78122e-15
-1.04328e-15
-6.04882e-16
-3.43845e-16
-1.87011e-16
-8.5721e-17
-1.65353e-18
6.09272e-16
5.26955e-15
1.01155e-14
2.00128e-14
6.52e-14
2.69557e-14
2.65843e-14
4.68713e-13
2.20932e-12
1.11255e-12
2.17168e-06
-1.12461e-15
-6.50052e-16
-3.7513e-16
-2.16015e-16
-1.24079e-16
-7.19432e-17
-4.10835e-17
-2.11026e-17
-3.85662e-18
1.16567e-17
7.60257e-17
2.40781e-16
6.93753e-16
2.27281e-15
1.32695e-14
4.60575e-13
2.33384e-12
1.11283e-12
2.17169e-06
-3.42219e-16
-1.90443e-16
-1.05485e-16
-5.8814e-17
-3.3315e-17
-1.90537e-17
-1.0756e-17
-5.66692e-18
-2.14494e-18
9.60466e-19
1.29866e-17
6.34416e-17
3.18955e-16
1.58484e-15
1.19422e-14
4.62588e-13
2.34356e-12
1.11302e-12
2.17156e-06
-9.16533e-17
-4.80542e-17
-2.56837e-17
-1.39705e-17
-7.652e-18
-4.11079e-18
-1.99983e-18
-5.91791e-19
4.72527e-20
2.58465e-18
1.24409e-17
5.78329e-17
2.94343e-16
1.49761e-15
1.18483e-14
4.48927e-13
2.34411e-12
1.11334e-12
1.40095e-06
-2.39101e-17
-1.14061e-17
-5.59221e-18
-2.80396e-18
-1.377e-18
-5.04649e-19
6.3573e-20
1.41626e-18
8.51214e-18
2.86774e-17
6.41967e-17
1.22044e-16
3.65954e-16
1.79812e-15
2.00576e-14
4.48011e-13
2.51082e-12
1.14081e-12
1.14081e-12
-6.11055e-18
-2.59669e-18
-1.1275e-18
-4.91058e-19
-1.00858e-19
4.23541e-19
4.36329e-18
2.40839e-17
9.36873e-17
2.71956e-16
5.76258e-16
1.11936e-15
3.0812e-15
1.51335e-14
1.07232e-13
6.4432e-13
3.10804e-12
1.14081e-12
1.14086e-12
-1.51392e-18
-5.83453e-19
-2.2441e-19
-7.14155e-20
2.2387e-19
4.32327e-18
3.04992e-17
1.49369e-16
5.68901e-16
1.77901e-15
5.0074e-15
1.78148e-14
7.11934e-14
2.78122e-13
8.11482e-13
2.05628e-12
4.21686e-12
1.14086e-12
1.10807e-06
-3.47053e-19
-1.23121e-19
-4.21588e-20
6.47001e-21
9.69668e-19
1.48709e-17
1.37701e-16
7.43546e-16
3.35215e-15
1.47441e-14
7.98722e-14
4.27837e-13
1.50637e-12
3.71038e-12
5.33649e-12
7.24957e-12
7.41748e-12
1.14351e-12
2.32019e-06
-6.98116e-20
-2.28317e-20
-6.54248e-21
4.54779e-20
1.77078e-18
3.74571e-17
4.9107e-16
3.61356e-15
2.43821e-14
1.59294e-13
1.04326e-12
4.79267e-12
1.30393e-11
2.26618e-11
2.29756e-11
2.14544e-11
1.86898e-11
1.14507e-12
2.32024e-06
-1.18725e-20
-3.53898e-21
-4.59775e-22
5.21243e-20
2.5599e-18
6.84322e-17
1.2549e-15
1.51424e-14
1.43063e-13
1.02486e-12
5.69342e-12
2.07953e-11
4.59061e-11
6.25521e-11
6.04205e-11
4.88998e-11
4.8847e-11
1.14778e-12
2.30315e-06
-1.65079e-21
-4.39434e-22
2.34519e-22
5.25401e-20
2.96476e-18
9.21517e-17
2.21841e-15
4.27931e-14
4.59171e-13
3.11047e-12
1.41649e-11
4.37182e-11
8.29011e-11
9.61933e-11
1.01203e-10
9.35992e-11
1.10702e-10
1.15727e-12
2.30311e-06
-1.80605e-22
-4.13858e-23
1.93412e-22
3.7873e-20
3.00835e-18
1.00085e-16
2.8497e-15
7.62191e-14
8.29709e-13
5.19802e-12
2.05393e-11
5.7438e-11
9.82182e-11
1.0582e-10
1.19433e-10
2.32349e-10
2.97825e-10
1.18162e-12
2.30292e-06
-1.48044e-23
-2.6009e-24
7.76206e-23
1.73576e-20
2.14904e-18
9.06634e-17
2.99628e-15
9.40985e-14
1.00504e-12
5.98623e-12
2.22311e-11
5.91322e-11
9.69599e-11
9.11667e-11
1.05991e-10
1.34271e-09
1.52408e-09
1.25393e-12
1.55568e-06
-8.50843e-25
-4.40981e-26
2.85059e-23
6.59381e-21
8.94871e-19
4.41837e-17
2.23722e-15
9.4908e-14
9.95321e-13
5.58326e-12
1.8113e-11
3.60663e-11
6.7241e-11
3.9507e-11
2.24568e-11
4.39855e-09
4.91446e-09
1.63276e-12
3.79437e-07
-3.10819e-26
2.20581e-26
7.02669e-24
2.03826e-21
2.87469e-19
1.32066e-17
7.83155e-16
5.51838e-14
5.36853e-13
2.59179e-12
6.87567e-12
1.08575e-11
2.07319e-11
7.05645e-12
5.69056e-12
6.23202e-09
6.44304e-09
2.99191e-12
5.34039e-07
-6.12112e-28
3.4221e-27
1.04366e-24
4.16683e-22
6.84837e-20
2.98119e-18
1.60572e-16
1.43e-14
1.30508e-13
5.72119e-13
1.33847e-12
2.03623e-12
3.49861e-12
1.94652e-13
5.58496e-12
4.35958e-09
6.01111e-09
2.03633e-09
8.43161e-07
-4.65387e-30
2.71417e-28
8.18655e-26
4.83245e-23
9.38525e-21
4.42291e-19
2.11407e-17
2.01409e-15
1.73256e-14
7.02152e-14
1.50202e-13
2.25101e-13
3.47512e-13
1.01926e-15
5.27485e-11
6.06563e-10
1.92857e-09
5.70549e-15
8.43125e-07
-6.14802e-33
1.61723e-32
1.45491e-27
2.64975e-24
5.37434e-22
2.85879e-20
1.42643e-18
1.31297e-16
1.06006e-15
3.97225e-15
7.96418e-15
1.18042e-14
1.58086e-14
1.01912e-15
6.19242e-12
2.2263e-17
2.06176e-11
6.28623e-25
8.25061e-07
-4.0027e-38
-3.53692e-40
2.27536e-35
4.01486e-30
9.15017e-27
2.76716e-24
6.17998e-22
5.78994e-20
3.40922e-19
1.16466e-18
2.24784e-18
3.09563e-18
1.31472e-18
3.07027e-20
6.96557e-15
2.2208e-17
-2.30616e-49
0
7.42914e-07
)
;

boundaryField
{
    leftWall
    {
        type            zeroGradient;
    }
    rightWall
    {
        type            zeroGradient;
    }
    lowerWall
    {
        type            zeroGradient;
    }
    atmosphere
    {
        type            inletOutlet;
        inletValue      uniform 0;
        value           nonuniform List<scalar> 
46
(
0
3.29647e-11
3.9743e-10
5.1773e-10
3.80825e-10
1.8347e-10
5.13406e-11
6.50997e-12
2.86511e-13
2.81258e-15
3.97187e-18
9.7284e-22
-1.08527e-20
-4.08637e-20
-4.12743e-20
-2.01158e-20
-5.79459e-21
-1.0556e-21
-1.20988e-22
-8.22338e-24
-3.01445e-25
0
0
0
0
0
0
0
0
0
0
0
0
0
0
0
0
0
0
0
0
0
0
0
0
7.42914e-07
)
;
    }
    defaultFaces
    {
        type            empty;
    }
}


// ************************************************************************* //
