/*--------------------------------*- C++ -*----------------------------------*\
  =========                 |
  \\      /  F ield         | OpenFOAM: The Open Source CFD Toolbox
   \\    /   O peration     | Website:  https://openfoam.org
    \\  /    A nd           | Version:  9
     \\/     M anipulation  |
\*---------------------------------------------------------------------------*/
FoamFile
{
    format      ascii;
    class       volVectorField;
    location    "8.23";
    object      U;
}
// * * * * * * * * * * * * * * * * * * * * * * * * * * * * * * * * * * * * * //

dimensions      [0 1 -1 0 0 0 0];

internalField   nonuniform List<vector> 
2268
(
(-0.000181731 3.9265e-05 0)
(-0.000111509 -9.09148e-05 0)
(0.000317454 -0.000140802 0)
(0.000801487 -0.000158724 0)
(0.00135762 -0.000176514 0)
(0.00197874 -0.000195575 0)
(0.00266472 -0.000214838 0)
(0.00341545 -0.000232013 0)
(0.00420769 -0.000236886 0)
(0.00499386 -0.000230648 0)
(0.00576089 -0.000234788 0)
(0.00657706 -0.000277345 0)
(0.00759693 -0.000380771 0)
(0.00898145 -0.000524587 0)
(0.0107233 -0.000619984 0)
(0.0125013 -0.000464208 0)
(0.0131438 0.000206614 0)
(0.0111391 0.00101783 0)
(0.0064811 0.00211947 0)
(-0.0019849 0.00279654 0)
(-0.00913361 0.00111373 0)
(-0.0100253 -0.000958298 0)
(-0.00484624 -0.00217553 0)
(-2.38752e-05 9.68825e-05 0)
(0.000125919 -0.000179482 0)
(0.000526601 -0.000315652 0)
(0.00101979 -0.000378181 0)
(0.00158205 -0.000425781 0)
(0.00219877 -0.000470695 0)
(0.00286446 -0.000514903 0)
(0.00357534 -0.000551459 0)
(0.00431098 -0.000562784 0)
(0.00503132 -0.000550978 0)
(0.00571727 -0.00055687 0)
(0.00640664 -0.000636506 0)
(0.00719252 -0.000824615 0)
(0.00816481 -0.00107052 0)
(0.00929383 -0.0011871 0)
(0.0103337 -0.00078747 0)
(0.0105813 0.000561494 0)
(0.00889862 0.00235516 0)
(0.00543432 0.00425389 0)
(0.00043541 0.00524713 0)
(-0.00388237 0.00269644 0)
(-0.0064074 -0.000905535 0)
(-0.00466671 -0.00520504 0)
(0.000103918 1.98352e-05 0)
(0.000315319 -0.000325254 0)
(0.00069848 -0.00051407 0)
(0.00117137 -0.000619787 0)
(0.00170853 -0.000695164 0)
(0.00229293 -0.000761753 0)
(0.00291713 -0.000824865 0)
(0.00357616 -0.000873858 0)
(0.00424996 -0.000884193 0)
(0.00489821 -0.000856992 0)
(0.00549267 -0.000847884 0)
(0.00604805 -0.00093403 0)
(0.00662242 -0.00116102 0)
(0.00727632 -0.00145828 0)
(0.00799377 -0.00157217 0)
(0.00863237 -0.000988072 0)
(0.00867588 0.000902881 0)
(0.00717493 0.00346101 0)
(0.00450985 0.005721 0)
(0.0018022 0.00671598 0)
(-0.000678002 0.00407517 0)
(-0.00369364 -0.000224192 0)
(-0.00338445 -0.00741242 0)
(0.000179711 -9.74451e-05 0)
(0.000452421 -0.000484822 0)
(0.000842228 -0.000707849 0)
(0.0013004 -0.000848487 0)
(0.00181063 -0.000947959 0)
(0.00235736 -0.00103291 0)
(0.00293425 -0.00111175 0)
(0.00353761 -0.00117021 0)
(0.00414791 -0.00117582 0)
(0.00472121 -0.00112633 0)
(0.00521854 -0.00108854 0)
(0.00563545 -0.00115732 0)
(0.00600736 -0.00139019 0)
(0.00638322 -0.00170689 0)
(0.00677433 -0.00181526 0)
(0.00715328 -0.0011126 0)
(0.00719745 0.00121114 0)
(0.00604045 0.00435741 0)
(0.00402118 0.00672979 0)
(0.00258075 0.00751975 0)
(0.00122761 0.00520802 0)
(-0.00153546 0.000631973 0)
(-0.00186584 -0.00872526 0)
(0.000224815 -0.000252449 0)
(0.000551612 -0.000664827 0)
(0.000960818 -0.000907542 0)
(0.00141156 -0.00107303 0)
(0.00189576 -0.0011899 0)
(0.00240091 -0.00128774 0)
(0.00292432 -0.00137783 0)
(0.00346586 -0.00144216 0)
(0.00400773 -0.00143848 0)
(0.00450136 -0.00135812 0)
(0.00489658 -0.00127642 0)
(0.00517258 -0.00130416 0)
(0.00534889 -0.00151363 0)
(0.00547004 -0.00182516 0)
(0.00557342 -0.00193455 0)
(0.00573487 -0.00120529 0)
(0.0058925 0.00139346 0)
(0.0051862 0.00503632 0)
(0.00375118 0.00740961 0)
(0.00306743 0.00789494 0)
(0.0023491 0.00607529 0)
(0.000219254 0.001398 0)
(-9.01145e-05 -0.00908744 0)
(0.00025661 -0.000430683 0)
(0.000628721 -0.000861845 0)
(0.00105892 -0.00111275 0)
(0.00150507 -0.00129146 0)
(0.00196191 -0.00141643 0)
(0.00241996 -0.00151983 0)
(0.00288168 -0.00161585 0)
(0.00335237 -0.00168259 0)
(0.00381792 -0.00166578 0)
(0.00422596 -0.00154674 0)
(0.00451638 -0.00140723 0)
(0.00465455 -0.00137295 0)
(0.00464734 -0.00153405 0)
(0.00453543 -0.00181933 0)
(0.00437001 -0.00193332 0)
(0.00428209 -0.00125872 0)
(0.00455428 0.00137985 0)
(0.00438016 0.00548448 0)
(0.0035742 0.00781168 0)
(0.00338781 0.00801225 0)
(0.0030663 0.00666292 0)
(0.00191882 0.00185405 0)
(0.00204265 -0.00868886 0)
(0.000284042 -0.000634896 0)
(0.000695346 -0.00107576 0)
(0.00114086 -0.00132268 0)
(0.00158029 -0.00150128 0)
(0.00200522 -0.00162275 0)
(0.00240864 -0.00172272 0)
(0.00279852 -0.00181855 0)
(0.00318658 -0.00188456 0)
(0.00356474 -0.00185223 0)
(0.0038799 -0.00168888 0)
(0.00406534 -0.00148103 0)
(0.00407549 -0.00136805 0)
(0.00390591 -0.00146052 0)
(0.00359042 -0.00169962 0)
(0.00317732 -0.00180951 0)
(0.00279259 -0.00122596 0)
(0.00295542 0.00121183 0)
(0.00335717 0.00558965 0)
(0.00349804 0.00791639 0)
(0.00362015 0.00803384 0)
(0.00366906 0.00685111 0)
(0.00390087 0.00185046 0)
(0.00442888 -0.00761339 0)
(0.000316029 -0.000891973 0)
(0.000756712 -0.00129069 0)
(0.0012117 -0.0015199 0)
(0.00163766 -0.00168625 0)
(0.00202324 -0.00179344 0)
(0.00236357 -0.0018823 0)
(0.0026707 -0.00197274 0)
(0.00296216 -0.00203631 0)
(0.00323829 -0.0019889 0)
(0.00345106 -0.00177913 0)
(0.00353345 -0.00149792 0)
(0.00343303 -0.00129471 0)
(0.00313428 -0.00130327 0)
(0.00265989 -0.00147785 0)
(0.00204531 -0.00156605 0)
(0.00139206 -0.00106931 0)
(0.00122736 0.00103958 0)
(0.00201034 0.00523946 0)
(0.00318713 0.00762227 0)
(0.0037933 0.00792089 0)
(0.00451187 0.00644752 0)
(0.00587644 0.00158226 0)
(0.0065159 -0.00429531 0)
(-0.0145531 0.00348937 0)
(-0.0117394 -0.00155163 0)
(-0.0032307 -0.00253164 0)
(0.00351453 -0.00166085 0)
(0.00763921 -0.00117037 0)
(0.0107192 -0.000768291 0)
(0.0124287 -0.000323562 0)
(0.0137676 -0.000495981 0)
(0.0153935 -0.000433822 0)
(0.0153894 0.000204492 0)
(0.0127569 0.00121774 0)
(0.00626699 0.00286539 0)
(-0.00491672 0.00294217 0)
(-0.011393 0.000622995 0)
(-0.012019 -0.000305616 0)
(-0.0100512 -0.00100438 0)
(-0.00787304 -0.000923383 0)
(-0.00560474 -0.0015914 0)
(0.00176015 -4.21366e-05 0)
(-0.0125213 0.00795423 0)
(-0.0055838 -0.00356845 0)
(-0.00103885 -0.00466903 0)
(0.00311481 -0.00321307 0)
(0.00545648 -0.00214931 0)
(0.00705495 -0.00141567 0)
(0.00826515 -0.00091139 0)
(0.00945084 -0.000935951 0)
(0.0100798 -0.000341667 0)
(0.00880548 0.00108144 0)
(0.00606409 0.00268674 0)
(0.00271704 0.00508499 0)
(-0.00219926 0.00520769 0)
(-0.00603844 0.00205587 0)
(-0.0082713 0.000102095 0)
(-0.00828311 -0.0011871 0)
(-0.00864047 -0.00104502 0)
(-0.00891981 -0.00252894 0)
(-0.00353691 -0.00173535 0)
(-0.00556037 0.0104339 0)
(-0.000780415 -0.00539913 0)
(0.000907759 -0.00595383 0)
(0.00290993 -0.00411264 0)
(0.00403971 -0.00271326 0)
(0.00484065 -0.00180427 0)
(0.00553155 -0.00133946 0)
(0.00628737 -0.0012002 0)
(0.00647819 -6.66608e-05 0)
(0.00481362 0.0020564 0)
(0.0020303 0.00372659 0)
(0.000239949 0.00599241 0)
(-0.000983164 0.00614531 0)
(-0.00314985 0.00325037 0)
(-0.00577416 0.000862789 0)
(-0.00656068 -0.000856249 0)
(-0.00831578 -0.000437941 0)
(-0.0104069 -0.0031661 0)
(-0.00671159 -0.00527765 0)
(0.0012964 0.0107253 0)
(0.00306331 -0.00601292 0)
(0.00234039 -0.00630599 0)
(0.00260858 -0.00443068 0)
(0.00279122 -0.0029514 0)
(0.00297112 -0.00198372 0)
(0.00319053 -0.00156332 0)
(0.00357372 -0.00133073 0)
(0.00359976 0.000264138 0)
(0.00205681 0.002991 0)
(-0.000333036 0.00456471 0)
(-0.00125231 0.00629856 0)
(-0.000907959 0.00642071 0)
(-0.00196451 0.00414498 0)
(-0.00408349 0.00162196 0)
(-0.00475564 -0.000305494 0)
(-0.0069006 0.000699674 0)
(-0.00965753 -0.00347273 0)
(-0.00665099 -0.00916726 0)
(0.00649977 0.00854704 0)
(0.00562463 -0.00552407 0)
(0.00304513 -0.00587633 0)
(0.00208497 -0.00427491 0)
(0.00155127 -0.00289835 0)
(0.00122777 -0.00195885 0)
(0.00102659 -0.00161826 0)
(0.00109412 -0.00138007 0)
(0.00111278 0.000557396 0)
(-6.33623e-05 0.00376463 0)
(-0.00184589 0.005148 0)
(-0.00214567 0.00626775 0)
(-0.00122522 0.006351 0)
(-0.00174021 0.00474077 0)
(-0.00299292 0.00206223 0)
(-0.00278505 0.000127934 0)
(-0.00426348 0.00189796 0)
(-0.00683024 -0.00360209 0)
(-0.00463486 -0.0122521 0)
(0.00826313 0.00522196 0)
(0.00625613 -0.00440383 0)
(0.00292123 -0.00493473 0)
(0.00129221 -0.00379568 0)
(0.000283823 -0.00262095 0)
(-0.000426838 -0.00175433 0)
(-0.000998341 -0.00152083 0)
(-0.00122326 -0.00138275 0)
(-0.00112747 0.00072899 0)
(-0.00177483 0.00433203 0)
(-0.00290293 0.00547249 0)
(-0.0027284 0.00604457 0)
(-0.00153856 0.00611802 0)
(-0.00172614 0.00510987 0)
(-0.00215442 0.00205917 0)
(-0.000890205 3.07797e-05 0)
(-0.00089281 0.00266825 0)
(-0.00265565 -0.00345151 0)
(-0.00185325 -0.0140358 0)
(0.00696042 0.00212645 0)
(0.00529497 -0.00318287 0)
(0.00213722 -0.00383467 0)
(0.000279347 -0.00314928 0)
(-0.000996937 -0.00219816 0)
(-0.0019812 -0.00140423 0)
(-0.0028654 -0.0012797 0)
(-0.00342373 -0.00133126 0)
(-0.00328298 0.000720501 0)
(-0.00320124 0.00461892 0)
(-0.00357382 0.00558366 0)
(-0.00306538 0.0057022 0)
(-0.00178627 0.00579695 0)
(-0.00155221 0.00522803 0)
(-0.000981815 0.00164489 0)
(0.000798138 -0.000557202 0)
(0.00198416 0.00278134 0)
(0.00161262 -0.00314306 0)
(0.00126824 -0.0143015 0)
(0.00393528 -0.000363144 0)
(0.00365042 -0.00226148 0)
(0.00101044 -0.00282536 0)
(-0.000850808 -0.00245288 0)
(-0.00226397 -0.00169574 0)
(-0.00341034 -0.000951193 0)
(-0.00451268 -0.000901257 0)
(-0.00545173 -0.00114556 0)
(-0.00541574 0.000529424 0)
(-0.00455869 0.00447937 0)
(-0.00397043 0.00544665 0)
(-0.00310558 0.00526236 0)
(-0.00183457 0.00538799 0)
(-0.000901622 0.00491566 0)
(0.000819638 0.000913429 0)
(0.00235798 -0.00116189 0)
(0.00406683 0.00216722 0)
(0.00534234 -0.00285908 0)
(0.00424679 -0.0127965 0)
(0.000417371 -0.000874363 0)
(0.000900563 -0.00138078 0)
(0.00133484 -0.00168144 0)
(0.00170878 -0.00185611 0)
(0.00201516 -0.00194853 0)
(0.00224505 -0.00202551 0)
(0.00240843 -0.00211001 0)
(0.00252552 -0.00217391 0)
(0.0026121 -0.00210976 0)
(0.00264328 -0.00182982 0)
(0.00256944 -0.0014361 0)
(0.00233717 -0.00108089 0)
(0.00191108 -0.000940128 0)
(0.00128617 -0.000988921 0)
(0.000476113 -0.00102147 0)
(-0.000414164 -0.000670329 0)
(-0.000921155 0.000849327 0)
(-6.32347e-05 0.00414714 0)
(0.0019366 0.00641265 0)
(0.00396544 0.00695632 0)
(0.00599265 0.00502918 0)
(0.0073531 0.00112992 0)
(0.0060408 -0.00134037 0)
(0.000711909 -0.00288761 0)
(0.00102922 -0.00297276 0)
(0.00141281 -0.00292791 0)
(0.00166608 -0.00287919 0)
(0.00185877 -0.00278066 0)
(0.00196184 -0.00267041 0)
(0.00194191 -0.00257685 0)
(0.00177837 -0.00247963 0)
(0.00150041 -0.00227422 0)
(0.00119105 -0.00185868 0)
(0.000923399 -0.00132334 0)
(0.000693703 -0.00078527 0)
(0.000411191 -0.000410474 0)
(-5.06179e-05 -0.000198484 0)
(-0.000747204 -1.2325e-05 0)
(-0.00158752 0.000311571 0)
(-0.00221517 0.0011242 0)
(-0.00163334 0.00286503 0)
(0.000495493 0.00427815 0)
(0.00327142 0.00470219 0)
(0.00555887 0.00353499 0)
(0.00621611 0.0017647 0)
(0.00500442 0.00103733 0)
(6.88837e-05 -0.0029655 0)
(-0.000667827 -0.00261775 0)
(-1.44842e-05 -0.00255232 0)
(-5.89804e-05 -0.00264948 0)
(-0.000259451 -0.0025809 0)
(-0.000370359 -0.00236848 0)
(-0.000406698 -0.00214281 0)
(-0.000637169 -0.00197552 0)
(-0.00116362 -0.00178699 0)
(-0.00172365 -0.00147805 0)
(-0.00201895 -0.0010822 0)
(-0.00199115 -0.000634265 0)
(-0.00183209 -0.000217629 0)
(-0.00185578 0.000126825 0)
(-0.0022869 0.000483733 0)
(-0.00308811 0.000885397 0)
(-0.00377345 0.00124413 0)
(-0.00306699 0.00177264 0)
(-0.000732396 0.00230155 0)
(0.00225345 0.00264965 0)
(0.00471676 0.00255581 0)
(0.00538401 0.00225906 0)
(0.00436303 0.00234407 0)
(-0.00803876 -0.000343505 0)
(-0.00323837 -0.00261001 0)
(-0.000286497 -0.00239551 0)
(-0.000990088 -0.0023286 0)
(-0.00325178 -0.0020296 0)
(-0.00413475 -0.00194738 0)
(-0.00318913 -0.00167237 0)
(-0.00217182 -0.00140879 0)
(-0.00203355 -0.00114573 0)
(-0.0023588 -0.00101213 0)
(-0.00245752 -0.00084284 0)
(-0.00233118 -0.000604174 0)
(-0.00200025 -0.000258941 0)
(-0.00164486 0.000141147 0)
(-0.0021223 0.000615833 0)
(-0.00289549 0.000986308 0)
(-0.00265856 0.000982152 0)
(-0.00115411 0.00030536 0)
(0.000254114 0.000360879 0)
(0.00192756 0.000483947 0)
(0.00431253 0.00113322 0)
(0.00543362 0.00170051 0)
(0.0051585 0.00185506 0)
(-0.00879774 0.0117771 0)
(-0.00241899 -0.0121317 0)
(-0.00720635 -0.00453497 0)
(-0.0169848 0.00212286 0)
(-0.0252695 0.00270929 0)
(-0.0273529 -0.00312569 0)
(-0.0244298 -0.00537234 0)
(-0.0184476 -0.00382857 0)
(-0.013256 -0.00105962 0)
(-0.00945993 -0.000907174 0)
(-0.00618659 -0.00151384 0)
(-0.00304344 -0.0017422 0)
(0.00126806 -0.00176746 0)
(0.00677789 -0.000494358 0)
(0.0110577 0.00296966 0)
(0.0132098 0.00204535 0)
(0.0144546 -0.00143652 0)
(0.0149799 -0.00449361 0)
(0.0117846 -0.00247318 0)
(0.0055284 -0.0056635 0)
(0.00309246 -0.00372329 0)
(0.0030902 0.000622543 0)
(0.00476762 0.00411489 0)
(0.0153618 0.00596174 0)
(0.0200474 -0.00449033 0)
(0.00509057 0.0105985 0)
(-0.0024175 0.0146625 0)
(-0.00178245 0.00640617 0)
(-0.00321044 -3.90011e-05 0)
(-0.00880436 -0.00836673 0)
(-0.0111136 -0.00982412 0)
(-0.0107319 -0.0068795 0)
(-0.0093763 -0.00598405 0)
(-0.00870044 -0.00558892 0)
(-0.00837766 -0.00539384 0)
(-0.00683797 -0.00788236 0)
(-0.00362493 -0.00834338 0)
(0.001282 -0.0036675 0)
(0.00486555 -0.00200242 0)
(0.00299034 -0.000423959 0)
(-0.00137768 0.00153294 0)
(-0.00366825 0.00970153 0)
(-0.00657098 0.00696435 0)
(-0.0109463 0.00305244 0)
(-0.0133711 0.00142886 0)
(-0.012937 0.00329184 0)
(0.000272635 -0.0195116 0)
(-0.00398257 -0.000103351 0)
(-0.00563699 0.0151457 0)
(-0.00298801 0.0136315 0)
(-0.00250529 0.00454802 0)
(-0.00346794 0.00333494 0)
(-0.0055263 -0.00323395 0)
(-0.00852349 -0.00648834 0)
(-0.0104896 -0.00639923 0)
(-0.0115707 -0.00565743 0)
(-0.0126877 -0.00482255 0)
(-0.0136584 -0.0052534 0)
(-0.013029 -0.0102296 0)
(-0.0102124 -0.0120623 0)
(-0.00643694 -0.00805712 0)
(-0.00389804 -0.00133079 0)
(-0.00405176 0.0038813 0)
(-0.00686324 0.00468312 0)
(-0.00965068 0.00852172 0)
(-0.0123287 0.00823851 0)
(-0.0160153 0.00523718 0)
(-0.0185684 0.0025357 0)
(-0.0206009 0.00202353 0)
(-0.00589553 0.00166996 0)
(-0.0101515 0.00436394 0)
(-0.00902789 0.0110838 0)
(-0.00574181 0.0107247 0)
(-0.00491578 0.00595502 0)
(-0.00535826 0.00307037 0)
(-0.0065528 -0.000893513 0)
(-0.00896662 -0.00325209 0)
(-0.0111009 -0.00394869 0)
(-0.0124333 -0.0037846 0)
(-0.0131376 -0.00337047 0)
(-0.0132216 -0.00453461 0)
(-0.0133612 -0.0103999 0)
(-0.0140491 -0.0129362 0)
(-0.0145798 -0.00931738 0)
(-0.0143257 -0.00259302 0)
(-0.0136123 0.00350431 0)
(-0.0138213 0.00702759 0)
(-0.0145526 0.0103072 0)
(-0.0150624 0.0107444 0)
(-0.0162995 0.00802461 0)
(-0.0184386 0.00462674 0)
(-0.0209489 0.00338605 0)
(-0.00251865 0.00052011 0)
(-0.0060119 0.00497524 0)
(-0.00705024 0.00908418 0)
(-0.00597843 0.00900815 0)
(-0.00589039 0.00620174 0)
(-0.00653877 0.00353845 0)
(-0.00769536 0.000763621 0)
(-0.00954894 -0.00114524 0)
(-0.0112563 -0.00239988 0)
(-0.012326 -0.00294404 0)
(-0.0127091 -0.0032117 0)
(-0.0126753 -0.00470763 0)
(-0.0137842 -0.00894548 0)
(-0.0166462 -0.0107127 0)
(-0.0193637 -0.00791727 0)
(-0.0203075 -0.00280373 0)
(-0.0197191 0.0024582 0)
(-0.018939 0.00695603 0)
(-0.0182636 0.0100931 0)
(-0.0176317 0.0107435 0)
(-0.0177374 0.00907517 0)
(-0.0188661 0.00655832 0)
(-0.0203789 0.00469756 0)
(-0.00247183 0.00810488 0)
(-0.00473713 0.00848133 0)
(-0.00570412 0.00950792 0)
(-0.00559365 0.00887601 0)
(-0.00593185 0.00681359 0)
(-0.00677594 0.00444441 0)
(-0.00798573 0.00220513 0)
(-0.00947814 0.000461148 0)
(-0.0108476 -0.00117524 0)
(-0.0118791 -0.00218631 0)
(-0.0126093 -0.00282508 0)
(-0.01335 -0.00413122 0)
(-0.0150475 -0.00652324 0)
(-0.0179002 -0.00744742 0)
(-0.0205288 -0.00574387 0)
(-0.0218281 -0.00240019 0)
(-0.0218257 0.00179147 0)
(-0.0210543 0.00603922 0)
(-0.0199189 0.0090159 0)
(-0.0188144 0.00999783 0)
(-0.0182741 0.00919733 0)
(-0.018504 0.00740457 0)
(-0.0191092 0.00526647 0)
(-0.00154479 0.00924756 0)
(-0.00311181 0.00979779 0)
(-0.00429846 0.0100354 0)
(-0.0047824 0.00924544 0)
(-0.00541414 0.00756519 0)
(-0.00636366 0.00551203 0)
(-0.00754615 0.00351735 0)
(-0.00879314 0.00176909 0)
(-0.0100034 -6.32002e-07 0)
(-0.0111757 -0.00115545 0)
(-0.01232 -0.00180259 0)
(-0.0135826 -0.00279005 0)
(-0.0154363 -0.00416444 0)
(-0.0179415 -0.00469075 0)
(-0.0202162 -0.0038317 0)
(-0.0214491 -0.00172077 0)
(-0.0215557 0.00146397 0)
(-0.0208768 0.00506978 0)
(-0.019773 0.00779186 0)
(-0.0185864 0.008975 0)
(-0.0176639 0.00870144 0)
(-0.0171569 0.00737488 0)
(-0.0168824 0.00521455 0)
(-0.00111059 0.0114959 0)
(-0.00223635 0.0112656 0)
(-0.003292 0.0108571 0)
(-0.0039694 0.0099094 0)
(-0.00471983 0.00839883 0)
(-0.00565758 0.00657438 0)
(-0.00671879 0.00468092 0)
(-0.00778719 0.00289144 0)
(-0.00893877 0.00122644 0)
(-0.0102682 0.000162266 0)
(-0.0116523 -0.000425053 0)
(-0.0130939 -0.00120577 0)
(-0.0148521 -0.0020621 0)
(-0.0169306 -0.00243252 0)
(-0.0188213 -0.00217899 0)
(-0.019993 -0.00104445 0)
(-0.0202511 0.00123102 0)
(-0.0196878 0.00417958 0)
(-0.0186704 0.00666095 0)
(-0.017512 0.00782973 0)
(-0.0163684 0.00775193 0)
(-0.0153489 0.00664155 0)
(-0.0144097 0.00456081 0)
(-0.000773426 0.0128232 0)
(-0.00158027 0.01238 0)
(-0.00249787 0.0116746 0)
(-0.00320022 0.010649 0)
(-0.00395421 0.00923616 0)
(-0.00482808 0.00754996 0)
(-0.00576847 0.00569488 0)
(-0.00674455 0.00392924 0)
(-0.0078944 0.0025013 0)
(-0.00927043 0.00162144 0)
(-0.0106797 0.0010116 0)
(-0.0120748 0.000335949 0)
(-0.0136017 -0.000291503 0)
(-0.0152372 -0.000632848 0)
(-0.0167788 -0.000719409 0)
(-0.0179513 -0.000248254 0)
(-0.0184471 0.00119769 0)
(-0.0181321 0.00341365 0)
(-0.0172706 0.00563287 0)
(-0.0161563 0.00663261 0)
(-0.0149254 0.00654604 0)
(-0.0137012 0.00550658 0)
(-0.0125496 0.00355527 0)
(-0.000493932 0.0137025 0)
(-0.00107274 0.0132297 0)
(-0.00184344 0.01241 0)
(-0.0024935 0.0113589 0)
(-0.003188 0.010018 0)
(-0.00397413 0.00843211 0)
(-0.00483717 0.00661706 0)
(-0.00580852 0.0049712 0)
(-0.00697496 0.00378226 0)
(-0.00827844 0.00302014 0)
(-0.00956733 0.00235226 0)
(-0.0108213 0.00170505 0)
(-0.0120993 0.00114087 0)
(-0.0133768 0.000760495 0)
(-0.0146019 0.000546188 0)
(-0.0156715 0.00065963 0)
(-0.0163352 0.0014448 0)
(-0.0163796 0.00295518 0)
(-0.0157786 0.00471231 0)
(-0.0147467 0.00546005 0)
(-0.0135601 0.00530065 0)
(-0.0123792 0.00431759 0)
(-0.0113328 0.00257151 0)
(-0.000306917 0.0142907 0)
(-0.000690778 0.0138766 0)
(-0.00131241 0.0130417 0)
(-0.00188155 0.0119953 0)
(-0.00249595 0.0107179 0)
(-0.00319507 0.00922941 0)
(-0.00402708 0.00752649 0)
(-0.00502279 0.00604374 0)
(-0.00616166 0.00501372 0)
(-0.00733521 0.00425532 0)
(-0.00845937 0.00354138 0)
(-0.00954978 0.00287919 0)
(-0.0106242 0.0023032 0)
(-0.0116634 0.00186222 0)
(-0.0126394 0.00157621 0)
(-0.0135263 0.00152145 0)
(-0.0142115 0.00190404 0)
(-0.0144686 0.00283378 0)
(-0.014104 0.00395805 0)
(-0.0132618 0.00442113 0)
(-0.0122497 0.00418437 0)
(-0.0112484 0.00328441 0)
(-0.0104069 0.00179575 0)
(-0.000158886 0.0146451 0)
(-0.000414578 0.0143495 0)
(-0.000905854 0.0135677 0)
(-0.00140047 0.0125544 0)
(-0.00194912 0.0113424 0)
(-0.0025846 0.00995963 0)
(-0.00338108 0.0084398 0)
(-0.0043563 0.0071078 0)
(-0.0054089 0.00613455 0)
(-0.00643419 0.00532486 0)
(-0.00740843 0.00457359 0)
(-0.00835065 0.0038831 0)
(-0.00926493 0.0032742 0)
(-0.0101382 0.00277664 0)
(-0.0109545 0.00241799 0)
(-0.0116938 0.00225638 0)
(-0.0122786 0.00239513 0)
(-0.0125424 0.00286687 0)
(-0.0123353 0.00342583 0)
(-0.0117348 0.00360726 0)
(-0.0109606 0.00328876 0)
(-0.0101852 0.00247152 0)
(-0.00955282 0.00122419 0)
(-6.66558e-05 0.0148295 0)
(-0.000220538 0.0146914 0)
(-0.000624963 0.0140117 0)
(-0.00106522 0.0130545 0)
(-0.00156769 0.0119134 0)
(-0.00215941 0.01064 0)
(-0.00289432 0.00930266 0)
(-0.00377242 0.00809221 0)
(-0.00469457 0.00711292 0)
(-0.00558331 0.0062553 0)
(-0.00643175 0.00546889 0)
(-0.00724793 0.00474684 0)
(-0.00803201 0.00410132 0)
(-0.00877486 0.00355283 0)
(-0.00946309 0.00312581 0)
(-0.0100738 0.00285941 0)
(-0.0105462 0.0027994 0)
(-0.0107712 0.00293072 0)
(-0.01066 0.00309117 0)
(-0.0102566 0.00302808 0)
(-0.00970305 0.0026267 0)
(-0.00913802 0.00187156 0)
(-0.00868273 0.000816055 0)
(-1.74418e-05 0.0149101 0)
(-0.000119353 0.0149519 0)
(-0.000469853 0.0143977 0)
(-0.000859526 0.0135071 0)
(-0.00131595 0.0124398 0)
(-0.00185676 0.0112681 0)
(-0.00250756 0.0100661 0)
(-0.00325709 0.00894142 0)
(-0.00404074 0.00795336 0)
(-0.00480573 0.00706422 0)
(-0.00554027 0.00624572 0)
(-0.00624472 0.00549154 0)
(-0.00691652 0.0048088 0)
(-0.00754758 0.00421156 0)
(-0.00812453 0.0037175 0)
(-0.00862417 0.00334846 0)
(-0.00900091 0.00311915 0)
(-0.00918747 0.00300086 0)
(-0.00913581 0.00288827 0)
(-0.00887426 0.00263625 0)
(-0.00849407 0.00216132 0)
(-0.00809742 0.00144639 0)
(-0.00777768 0.000530289 0)
(-3.10605e-06 0.0149518 0)
(-0.000102896 0.0151819 0)
(-0.00041654 0.0147306 0)
(-0.00074628 0.0139073 0)
(-0.00114591 0.0129115 0)
(-0.00162049 0.0118259 0)
(-0.00217769 0.0107164 0)
(-0.00280387 0.00965043 0)
(-0.00345867 0.00866695 0)
(-0.0041068 0.00775881 0)
(-0.00473434 0.00691404 0)
(-0.00533622 0.00612971 0)
(-0.00590725 0.00541057 0)
(-0.00643902 0.00476596 0)
(-0.00691844 0.00420686 0)
(-0.00732481 0.00374317 0)
(-0.00762548 0.00337474 0)
(-0.00778025 0.00307313 0)
(-0.00776501 0.0027698 0)
(-0.00759996 0.00237838 0)
(-0.00734464 0.00184327 0)
(-0.00707134 0.00115156 0)
(-0.00684818 0.000331162 0)
(-2.57731e-05 0.0150028 0)
(-0.000128403 0.015405 0)
(-0.000406081 0.0150109 0)
(-0.000679597 0.0142487 0)
(-0.00101852 0.0133178 0)
(-0.00142043 0.012302 0)
(-0.00188486 0.0112585 0)
(-0.00239963 0.0102357 0)
(-0.00293915 0.00926304 0)
(-0.00347949 0.00834538 0)
(-0.00400715 0.00748095 0)
(-0.00451427 0.00667023 0)
(-0.00499382 0.00591713 0)
(-0.00543695 0.00522774 0)
(-0.00583143 0.0046081 0)
(-0.0061602 0.00406121 0)
(-0.00640059 0.00358101 0)
(-0.00652898 0.00314373 0)
(-0.00653426 0.00270458 0)
(-0.00643169 0.00221116 0)
(-0.00626097 0.00162813 0)
(-0.00607217 0.000947451 0)
(-0.00591342 0.00018948 0)
(-8.26937e-05 0.01509 0)
(-0.000161809 0.0156063 0)
(-0.000395918 0.0152467 0)
(-0.000626638 0.0145346 0)
(-0.000908137 0.0136574 0)
(-0.00123876 0.0126963 0)
(-0.00161661 0.011702 0)
(-0.00203267 0.0107129 0)
(-0.00247047 0.00975309 0)
(-0.00291341 0.00883226 0)
(-0.00334952 0.00795409 0)
(-0.00377005 0.00712146 0)
(-0.00416703 0.00633806 0)
(-0.00453153 0.005608 0)
(-0.0048526 0.00493432 0)
(-0.0051167 0.00431663 0)
(-0.00530828 0.00374754 0)
(-0.00541355 0.00320874 0)
(-0.00542803 0.00267099 0)
(-0.00536345 0.00210222 0)
(-0.00524673 0.00148073 0)
(-0.00511222 0.000802467 0)
(-0.00499319 8.25853e-05 0)
(-0.000176389 0.0152277 0)
(-0.000192794 0.0157617 0)
(-0.000381989 0.0154454 0)
(-0.000576005 0.014771 0)
(-0.000803131 0.0139339 0)
(-0.00106612 0.013014 0)
(-0.00136487 0.0120573 0)
(-0.00169383 0.0110954 0)
(-0.00204238 0.010149 0)
(-0.00239869 0.0092292 0)
(-0.00275256 0.00834216 0)
(-0.0030953 0.00749212 0)
(-0.00341875 0.00668275 0)
(-0.0037143 0.00591715 0)
(-0.00397234 0.00519681 0)
(-0.00418225 0.00452018 0)
(-0.0043333 0.0038806 0)
(-0.00441732 0.00326482 0)
(-0.004433 0.00265387 0)
(-0.00438926 0.00202821 0)
(-0.00430455 0.00137502 0)
(-0.00420228 0.000693047 0)
(-0.00410507 -6.19163e-06 0)
(-0.000186222 0.0154066 0)
(-0.000218615 0.0158814 0)
(-0.000375579 0.0156099 0)
(-0.000527567 0.0149592 0)
(-0.000699361 0.0141497 0)
(-0.000897423 0.0132605 0)
(-0.0011239 0.0123333 0)
(-0.00137596 0.0113947 0)
(-0.00164659 0.0104621 0)
(-0.00192698 0.00954639 0)
(-0.00220841 0.00865454 0)
(-0.00248267 0.00779135 0)
(-0.0027418 0.00696057 0)
(-0.00297774 0.00616485 0)
(-0.00318211 0.00540522 0)
(-0.00334649 0.00468016 0)
(-0.00346325 0.00398461 0)
(-0.0035274 0.00330948 0)
(-0.00353891 0.0026428 0)
(-0.00350442 0.00197288 0)
(-0.0034366 0.00129262 0)
(-0.00335128 0.000602554 0)
(-0.00326368 -8.84204e-05 0)
(-0.000185295 0.0155994 0)
(-0.000235147 0.0160011 0)
(-0.00037934 0.0157376 0)
(-0.000478147 0.0150956 0)
(-0.000591911 0.0143047 0)
(-0.000727495 0.0134402 0)
(-0.000888259 0.0125383 0)
(-0.00107287 0.0116211 0)
(-0.00127625 0.0107032 0)
(-0.00149132 0.00979419 0)
(-0.00171039 0.00890099 0)
(-0.00192576 0.00802857 0)
(-0.00212986 0.00718074 0)
(-0.00231519 0.00636015 0)
(-0.00247441 0.00556796 0)
(-0.00260068 0.00480336 0)
(-0.00268833 0.00406305 0)
(-0.00273405 0.00334132 0)
(-0.00273819 0.00263098 0)
(-0.00270554 0.00192543 0)
(-0.00264474 0.00122121 0)
(-0.00256643 0.00051991 0)
(-0.0024807 -0.000171493 0)
(-0.000181555 0.0157954 0)
(-0.000248946 0.0161345 0)
(-0.000373983 0.0158223 0)
(-0.00041508 0.0151761 0)
(-0.000471593 0.0143998 0)
(-0.000549266 0.0135579 0)
(-0.000651911 0.0126805 0)
(-0.000778729 0.0117849 0)
(-0.000925458 0.0108829 0)
(-0.00108584 0.00998303 0)
(-0.0012528 0.00909149 0)
(-0.00141903 0.00821329 0)
(-0.00157733 0.00735235 0)
(-0.00172074 0.00651158 0)
(-0.00184275 0.00569264 0)
(-0.00193758 0.00489568 0)
(-0.00200079 0.00411916 0)
(-0.00202993 0.00336002 0)
(-0.00202529 0.00261443 0)
(-0.00199019 0.00187915 0)
(-0.00193049 0.00115306 0)
(-0.00185325 0.00043833 0)
(-0.00176506 -0.000259502 0)
(-0.000193185 0.0160003 0)
(-0.000257683 0.0162599 0)
(-0.0003341 0.0158586 0)
(-0.000322462 0.0152016 0)
(-0.000327614 0.0144395 0)
(-0.000355084 0.0136212 0)
(-0.000408904 0.012769 0)
(-0.000488321 0.0118963 0)
(-0.000589249 0.0110121 0)
(-0.000705712 0.0101235 0)
(-0.00083089 0.00923615 0)
(-0.00095774 0.00835505 0)
(-0.00107937 0.00748432 0)
(-0.00118927 0.00662728 0)
(-0.00128153 0.00578631 0)
(-0.00135116 0.00496263 0)
(-0.00139443 0.00415628 0)
(-0.00140933 0.00336632 0)
(-0.00139595 0.00259135 0)
(-0.00135649 0.0018304 0)
(-0.00129485 0.00108388 0)
(-0.00121571 0.000354236 0)
(-0.00112328 -0.000354065 0)
(-0.000230497 0.0162126 0)
(-0.000220781 0.0163394 0)
(-0.000241508 0.0158462 0)
(-0.000188499 0.0151789 0)
(-0.000151967 0.0144326 0)
(-0.000139176 0.0136396 0)
(-0.00015468 0.0128146 0)
(-0.000197654 0.0119664 0)
(-0.000263837 0.0111017 0)
(-0.000347178 0.0102261 0)
(-0.000440871 0.00934504 0)
(-0.000537982 0.00846329 0)
(-0.000631851 0.00758533 0)
(-0.000716327 0.00671507 0)
(-0.000785981 0.00585568 0)
(-0.000836347 0.0050095 0)
(-0.000864174 0.00417797 0)
(-0.000867679 0.00336186 0)
(-0.00084671 0.00256159 0)
(-0.000802681 0.00177779 0)
(-0.000738183 0.00101186 0)
(-0.000656271 0.000266387 0)
(-0.000559633 -0.000454985 0)
(-0.000174013 0.0163902 0)
(-0.00012412 0.0163571 0)
(-0.000100356 0.0157934 0)
(-1.31556e-05 0.0151185 0)
(5.66875e-05 0.0143895 0)
(0.000100423 0.0136238 0)
(0.000112931 0.012828 0)
(9.55221e-05 0.0120062 0)
(5.31429e-05 0.0111626 0)
(-7.70919e-06 0.0103016 0)
(-7.99874e-05 0.00942812 0)
(-0.000156709 0.00854722 0)
(-0.000231394 0.0076638 0)
(-0.000298181 0.00678244 0)
(-0.000352009 0.00590719 0)
(-0.000388831 0.00504149 0)
(-0.000405727 0.00418803 0)
(-0.000401038 0.00334901 0)
(-0.000374463 0.00252625 0)
(-0.000326887 0.00172153 0)
(-0.000260052 0.000936966 0)
(-0.000175991 0.00017519 0)
(-7.64317e-05 -0.000560803 0)
(-9.34978e-05 0.0164823 0)
(-3.00102e-06 0.0163175 0)
(6.92427e-05 0.0157059 0)
(0.000193614 0.0150256 0)
(0.000294564 0.0143171 0)
(0.000362679 0.0135827 0)
(0.000393992 0.0128196 0)
(0.000391762 0.0120267 0)
(0.00036256 0.0112056 0)
(0.000313956 0.0103601 0)
(0.0002535 0.00949496 0)
(0.000188279 0.00861566 0)
(0.000124681 0.00772772 0)
(6.83088e-05 0.00683651 0)
(2.39258e-05 0.005947 0)
(-4.80999e-06 0.00506367 0)
(-1.5248e-05 0.00419042 0)
(-5.8057e-06 0.00333063 0)
(2.38516e-05 0.00248724 0)
(7.31379e-05 0.00166295 0)
(0.000140812 0.000860383 0)
(0.000225436 8.21541e-05 0)
(0.000325837 -0.00066924 0)
(-2.73911e-05 0.016478 0)
(0.000122156 0.0162189 0)
(0.000255938 0.0155734 0)
(0.000423797 0.0148964 0)
(0.000558301 0.0142178 0)
(0.000646158 0.0135235 0)
(0.000687518 0.012799 0)
(0.000690256 0.0120381 0)
(0.00066398 0.011241 0)
(0.000617901 0.0104114 0)
(0.000560281 0.00955459 0)
(0.000498368 0.00867685 0)
(0.000438434 0.00778454 0)
(0.000385815 0.0068839 0)
(0.000344919 0.00598089 0)
(0.000319149 0.00508095 0)
(0.000310904 0.00418914 0)
(0.000321558 0.00330986 0)
(0.000351462 0.00244703 0)
(0.00040014 0.00160408 0)
(0.000466571 0.000784035 0)
(0.000549596 -1.05318e-05 0)
(0.000648311 -0.000777556 0)
(3.13272e-05 0.0163781 0)
(0.000246012 0.0160573 0)
(0.000455181 0.0153814 0)
(0.000677794 0.0147222 0)
(0.000848563 0.0140924 0)
(0.00095038 0.0134532 0)
(0.000991823 0.0127758 0)
(0.000988887 0.0120507 0)
(0.000955566 0.0112786 0)
(0.00090301 0.0104645 0)
(0.000840148 0.00961525 0)
(0.000774273 0.00873826 0)
(0.000711431 0.00784098 0)
(0.000656629 0.00693064 0)
(0.000613924 0.00601414 0)
(0.000586427 0.00509796 0)
(0.000576291 0.00418809 0)
(0.000584704 0.00328996 0)
(0.000611928 0.00240834 0)
(0.000657453 0.00154733 0)
(0.000720274 0.000710264 0)
(0.000799267 -0.000100332 0)
(0.000893584 -0.000882809 0)
(6.29482e-05 0.0161944 0)
(0.000376254 0.015816 0)
(0.000672229 0.0151152 0)
(0.000961864 0.014493 0)
(0.00116888 0.0139437 0)
(0.00127463 0.0133815 0)
(0.00130347 0.0127614 0)
(0.0012836 0.0120751 0)
(0.0012339 0.0113276 0)
(0.00116702 0.0105276 0)
(0.00109212 0.00968412 0)
(0.00101623 0.00880634 0)
(0.000944976 0.00790288 0)
(0.000882952 0.00698201 0)
(0.000833834 0.00605154 0)
(0.000800435 0.00511888 0)
(0.000784675 0.00419095 0)
(0.000787568 0.00327411 0)
(0.000809238 0.00237396 0)
(0.000849044 0.00149523 0)
(0.000905828 0.000641558 0)
(0.000978313 -0.000184603 0)
(0.00106554 -0.000982058 0)
(0.000134892 0.015923 0)
(0.000539909 0.0154823 0)
(0.000932087 0.0147623 0)
(0.00128966 0.014202 0)
(0.00152169 0.0137804 0)
(0.00161398 0.0133233 0)
(0.00161491 0.0127686 0)
(0.00156747 0.0121212 0)
(0.00149382 0.011396 0)
(0.00140671 0.0106071 0)
(0.00131473 0.00976691 0)
(0.00122428 0.00888623 0)
(0.00114038 0.00797501 0)
(0.00106711 0.00704243 0)
(0.00100776 0.00609716 0)
(0.000964857 0.00514744 0)
(0.000940141 0.00420109 0)
(0.000934485 0.00326531 0)
(0.000947884 0.00234657 0)
(0.000979514 0.00145026 0)
(0.00102795 0.000580356 0)