/*--------------------------------*- C++ -*----------------------------------*\
  =========                 |
  \\      /  F ield         | OpenFOAM: The Open Source CFD Toolbox
   \\    /   O peration     | Website:  https://openfoam.org
    \\  /    A nd           | Version:  9
     \\/     M anipulation  |
\*---------------------------------------------------------------------------*/
FoamFile
{
    format      ascii;
    class       surfaceScalarField;
    location    "15.9";
    object      phi;
}
// * * * * * * * * * * * * * * * * * * * * * * * * * * * * * * * * * * * * * //

dimensions      [0 3 -1 0 0 0 0];

internalField   nonuniform List<scalar> 
1300
(
11.2529
1.87548
-4.28238
11.2529
-4.91575
1.87548
-4.20241
4.20241
-1.19289
1.19289
5.71231
5.54055
-2.37638
2.37638
-2.8432
2.8432
-2.86198
2.86198
-1.06194
1.06194
-1.02827
1.02827
0.695011
-0.695011
-3.3716
3.3716
-1.45958
1.45958
-2.89307
2.89307
6.12814
-6.12814
-3.30368
3.30368
-0.747743
0.747743
-4.26322
15.5161
6.98964
6.98964
-2.37399
2.37399
-1.25428
1.25428
1.41034
-1.41034
9.2509
-9.2509
-4.96852
-5.99418
1.87662
-13.8367
-3.03913
-3.03913
-2.7054
2.7054
-0.829928
1.04555
3.47634
-3.47634
-0.764325
0.764325
-4.28495
0.0825435
-4.28495
3.99061
0.211798
3.99061
-1.33409
0.141191
-1.33409
4.64681
-4.64681
1.08164
0.111254
1.08164
3.92796
-3.92796
-5.71005
11.4224
5.54281
-5.32063
20.8367
-5.93223
11.4728
-3.92541
3.92541
-2.28969
-0.0866901
-2.28969
2.38189
-0.00551872
2.38189
-3.98856
3.98856
-2.6264
-0.216795
-2.6264
2.95142
-0.108221
2.95142
3.66453
-3.66453
-2.91758
0.0556024
-2.91758
2.71055
0.151424
2.71055
0.771042
1.10443
-2.64652
3.69207
-1.10443
0.0424987
1.02614
0.0357986
1.02614
-1.01454
-0.013734
-1.01454
1.04988
-0.0216061
1.04988
0.733619
-0.0386073
0.733619
-0.755658
0.0606467
-0.755658
-8.54924
-8.96182
-3.50078
0.129174
-3.50078
-1.47716
0.0175798
-1.47716
1.49631
-0.0367278
1.49631
-2.5533
2.5533
-3.22711
0.334037
-3.22711
4.80643
1.32171
4.80643
5.04613
6.20673
16.299
-16.299
10.1709
-3.01647
-0.287218
-3.01647
-3.48045
-5.77045
3.48045
-0.176768
-0.810178
0.0624358
-0.810178
5.62654
1.36309
5.62654
2.58882
0.12173
-2.58882
0.214835
4.61895
-4.61895
1.42504
0.948946
1.42504
-1.19142
1.19142
1.12349
-0.0736113
-1.12349
-0.13079
1.38601
0.0243332
1.38601
-1.40975
-0.000595581
-1.40975
7.37628
-13.3705
-7.8592
3.18125
0.190355
-3.18125
0.142114
3.56286
-0.0865151
3.56286
-3.31015
3.31015
-3.61065
0.134303
-3.61065
-0.688219
-0.0761058
-0.688219
0.85046
-0.0861356
0.85046
-4.5337
0.248749
-4.5337
-3.66118
0.434063
3.66118
0.329436
1.26478
-1.26478
-1.4413
0.107213
-1.4413
-4.62236
0.0886571
4.62236
0.0244534
-4.74637
0.0995583
-4.74637
-3.71229
0.101648
3.71229
0.215664
4.58926
1.03728
-4.58926
0.661302
-5.36949
11.5762
-5.88337
11.4262
-3.54684
-0.378576
-3.54684
4.11133
-0.18592
4.11133
2.56141
0.331668
-2.56141
0.271721
2.51303
-0.131135
2.51303
-3.9429
-0.0456621
-3.9429
3.78627
0.202288
3.78627
2.55789
-0.044856
-2.55789
-0.068518
2.93366
0.0177606
2.93366
3.66989
-0.00536079
3.66989
-3.5381
-0.126424
-3.5381
3.17981
-3.17981
3.08171
0.0981046
-3.08171
0.164128
-5.07402
5.07343
-0.00799939
-5.06602
1.01814
1.01814
0.774761
-0.0411427
0.774761
-0.86184
0.106182
-0.86184
8.34597
-16.2052
8.81869
-17.3679
7.47663
-21.3133
8.01607
-16.9779
3.79203
-3.79203
3.72081
0.0712184
-3.72081
0.22003
-1.45855
-0.0186103
-1.45855
-2.31397
-0.239329
-2.31397
2.88899
-0.335687
2.88899
-3.74233
3.74233
-4.12492
0.382592
4.12492
0.681511
2.99984
-0.0661783
-2.99984
-0.0166271
0.929558
0.152083
-0.929558
0.119379
4.853
-0.234051
4.853
-4.08012
-0.538829
-4.08012
-1.47701
0.0184595
1.47701
-0.0519666
-1.25891
0.0674828
-1.25891
-5.0745
0.00847755
-5.0387
-1.40127
-1.40127
1.30414
4.9962
-3.58465
0.0465464
3.58465
-0.0217916
3.52739
0.214943
-3.52739
0.217236
-3.26392
0.0841094
3.26392
0.0462271
-0.665341
-0.0228781
-0.665341
-1.04553
1.04553
-0.926994
-0.11854
0.926994
-0.0765339
1.4219
-0.157123
1.4219
1.47475
0.0215625
-1.47475
0.0334484
-4.99051
0.244136
-4.99051
4.11574
-0.00440602
4.11574
-3.9455
-0.134617
3.9455
-0.275615
-0.00372259
5.07715
-1.01442
-0.00012201
1.01442
-5.10148
5.10136
-0.670512
0.00517156
0.670512
0.104249
1.02951
0.161911
-1.02951
0.167672
3.82029
-0.0340139
-3.82029
0.0282599
-2.02963
-0.284342
-2.02963
-3.21665
-0.330189
3.21665
-0.327661
-5.11515
-0.0779681
5.19312
-5.13676
1.33687
0.0491331
-1.33687
5.15049
-1.15641
-0.108368
1.15641
-0.110878
1.62309
-0.201189
1.62309
5.10535
-0.252351
-5.10535
0.114845
-4.12362
0.180719
4.12362
-0.00787874
-1.79589
-0.233737
1.79589
-0.172802
-13.128
14.4911
7.7087
-6.34679
-7.02367
-12.1172
4.44715
7.12908
14.618
-11.6576
-9.65572
-11.5155
2.86018
-2.69251
-3.74135
3.70274
23.5146
-23.4151
-18.3994
19.0809
20.7767
-20.561
5.70877
5.71359
15.7867
-15.8734
-21.0257
20.6471
15.4581
-15.6749
22.0366
-22.0823
-25.7079
25.6739
-16.0997
16.1553
-20.2891
20.1626
-21.0478
20.7721
-8.29634
-9.07158
16.3465
-16.2173
20.2296
-20.5168
-19.2367
19.5707
10.0474
4.44367
11.0847
-6.24677
11.9555
-5.22601
12.9347
8.36275
-16.6591
7.84242
-14.8661
9.19801
11.0316
-9.02124
-3.096
-17.9683
17.8818
-17.2587
17.3049
23.9543
-23.8718
-6.17279
11.8864
-5.25338
12.3825
-11.409
-6.99039
10.0873
4.53067
8.87248
7.47398
-9.06284
-2.45263
-24.7649
24.5125
-25.6407
25.1019
0.0988746
2.42673
-2.52561
1.35315
-0.861005
3.28774
1.99918
2.10536
2.45258
-2.29067
0.239924
-2.76553
-2.89632
-5.36666
5.47387
5.18887
-5.07761
16.4645
7.0501
16.489
-16.7043
-6.71076
-16.4602
11.364
7.71693
11.7466
12.0611
8.71553
12.1628
10.3592
-10.3316
-0.0275835
-11.4775
21.8367
1.5548
-18.4679
-13.9373
8.82826
6.95842
8.82274
-9.83522
-6.03815
-9.5635
-11.1049
-9.92077
-11.4351
12.3918
8.25531
12.2059
-15.3514
15.3436
9.35096
6.1071
9.24273
-8.99447
-6.68039
-9.06299
27.4169
-6.60091
-20.8159
-13.1521
-12.5558
12.9498
9.08681
14.2512
11.4227
14.2794
8.85585
18.561
-17.9427
5.38688
-9.95019
-6.14956
-9.78606
9.26404
6.89131
9.41546
-11.7646
-8.5245
-11.718
-11.9826
-9.06511
11.988
8.17464
-12.5265
-13.1142
12.6611
8.11103
7.81961
-17.4753
9.15827
-18.2299
-10.8613
-5.35602
-10.6412
10.8258
6.61075
-17.4365
-5.83333
23.7954
-12.7638
20.6994
-11.0295
-9.48738
-11.0461
-14.6732
-4.5635
-14.2391
-8.07537
7.79103
-8.91086
8.57518
26.9502
-16.2252
-10.725
-12.3782
-8.1828
11.7169
-0.632187
-12.8359
12.8083
-0.880331
12.0544
16.498
15.8659
-10.8809
-6.37776
-10.6637
10.2719
7.033
10.356
15.9767
7.97766
16.1885
-16.7009
-7.17092
-16.4521
4.88848
-4.96458
5.72384
-5.70538
15.5612
9.54065
-15.3272
-9.4377
22.9488
-10.7796
-12.1693
-5.1249
5.23445
-0.109554
-1.83716
-0.484007
0.263736
-1.93453
-1.80682
1.87388
0.231476
5.46593
3.65911
-2.41427
2.48175
2.77885
2.70524
-0.191081
2.5202
-2.51503
18.9976
-11.5029
-7.49464
13.8845
-13.7959
-2.5676
-19.2703
16.7027
2.69312
3.02842
-2.96598
-3.96408
-1.40257
-3.93063
2.97309
2.21577
3.12517
2.11413
3.35974
-8.14606
1.57668
6.56937
-6.03192
-3.50093
-13.3508
-6.31069
19.6614
16.6427
7.86983
-16.7575
0.297378
5.30865
-5.34538
-1.57352
-11.7772
8.40271
-9.97623
-15.244
-6.44869
21.6927
-9.58115
-1.08256
9.36621
2.3804
-10.8766
-7.0917
10.7423
1.42049
-12.0641
23.9713
-11.9071
-18.4419
8.51608
13.3206
16.233
-17.8628
9.31846
8.54436
-4.5422
7.43198
1.39076
7.30084
-19.832
13.7939
11.2426
8.32813
-11.5743
2.01075
-17.8213
25.136
-22.2238
-2.9122
12.8297
12.3063
13.6037
13.3465
-7.85941
21.4631
-3.57008
-18.6537
21.3914
-13.0632
15.724
-28.7872
-29.0705
10.4168
-18.0283
22.0811
-4.05287
-5.19027
-10.1612
23.2185
-2.04032
-21.1782
10.1656
-13.9588
-11.8227
25.7815
-20.5597
18.5031
-6.31103
-12.1921
-12.6781
-9.40416
12.4974
2.84614
-25.7672
31.154
-7.20616
7.88548
1.35726
7.90324
10.6367
-15.9295
5.29284
9.92301
-16.234
6.81594
-22.7455
-12.1173
24.0731
-11.9558
-17.4733
-15.7323
-1.74101
4.82071
26.3333
-16.2434
12.0229
4.22052
8.46394
1.8921
-8.56205
-1.22401
0.971442
16.095
-17.0665
10.3869
10.5086
11.718
4.37703
10.7686
7.11316
-10.7468
-0.971183
-14.7893
5.72421
-6.61468
-14.5671
20.2913
-16.2668
1.69966
-10.3026
-13.9943
24.2969
-16.4522
11.4271
12.5442
18.4601
-19.6152
5.62092
-9.74846
-9.86679
10.6458
-17.2605
7.49301
12.7983
15.604
2.48981
12.7273
11.3458
-19.3381
1.1082
18.8198
-16.3671
3.89306
10.3864
-15.916
0.183651
-10.4576
2.6294
-15.3932
-14.8071
16.448
-21.0115
-12.3392
13.4479
2.74061
-13.7773
-0.461803
-5.0089
-3.06647
-5.24264
-3.30627
-5.60459
-11.1657
-1.94711
-9.21858
5.84392
-6.75147
-4.68365
7.07913
1.49605
-4.99193
4.88357
-5.64431
5.44312
-0.210355
13.0186
15.6555
7.4727
-8.47645
15.9491
-15.5494
23.527
-29.6766
14.1272
15.9294
-23.1003
-13.7472
2.72873
2.15975
2.6426
13.5641
-14.5209
0.956787
-13.3847
17.7238
-4.33915
-19.7525
6.36784
-6.1884
5.19803
0.525806
5.17942
1.42035
6.85352
-8.27387
-4.28503
-4.33699
-9.15478
-13.8567
23.0115
4.75405
-13.1116
8.35759
-12.0829
16.837
0.090795
-13.2024
17.0087
-10.1552
17.5345
-11.9921
5.54239
12.7936
22.3572
-9.56357
16.2398
-6.69916
7.05457
-16.6181
-6.80211
-11.2932
18.1845
-13.0038
14.7034
-1.11798
15.8214
-13.7884
3.00887
-2.07043
8.43821
8.65304
16.8098
-12.4328
11.9776
-18.6768
-4.64052
-16.187
-3.38866
1.04539
-13.8792
12.8338
12.1397
-11.0943
-3.2668
9.06517
-5.79837
5.73406
-2.86905
-2.86501
-1.86343
-3.10116
1.88631
0.633893
6.36795
0.495262
-3.36431
-2.01977
-1.91552
10.4046
8.59299
-3.86454
3.75499
3.60081
-0.572391
0.963883
2.16129
4.62279
-3.65891
0.685311
3.93748
-2.28067
3.84106
1.46759
-3.86262
-0.0680112
-3.41253
11.8152
3.15685
-5.37262
1.71371
2.36203
-13.865
19.7393
-11.4303
-8.30898
22.1013
3.03563
-14.4659
16.2347
-13.5416
8.07602
-14.3867
-6.38993
-19.9315
-12.8814
-10.7233
19.0809
-12.2882
20.158
3.83685
-20.4554
24.2922
-12.758
6.30936
-9.47294
10.9405
-4.07892
-5.39401
11.2906
10.4021
-11.0617
-0.715501
0.228853
8.45315
-8.2243
-1.52307
-7.555
-16.4083
17.8287
-8.25643
17.5749
7.69272
-7.63332
25.2082
6.56567
-14.199
-11.8762
-12.9588
-5.65464
10.5784
-1.81861
-7.24438
-14.0107
7.28923
0.0116119
-19.0032
22.0264
-3.02318
-12.0448
-1.74911
14.5788
-18.1028
1.86879
-11.2869
10.7395
12.1303
12.1419
-20.9059
-0.27231
-12.6506
3.20873
-15.8593
15.515
-6.84602
17.2628
-16.1131
11.4295
-14.6171
14.3506
-1.50872
14.71
-9.41712
6.10599
-15.5101
-12.664
14.5119
-8.40481
15.8692
-10.1705
26.0397
-17.3767
14.5166
11.5231
-2.75803
-8.28806
-14.0656
11.3076
0.450999
8.35424
17.8353
-10.7222
16.8641
8.92088
-18.6693
-8.33964
-25.8602
7.19081
-13.3159
-7.35572
14.5465
11.1043
12.9964
4.67975
-11.7724
17.7623
-19.5033
-5.80656
-9.00056
14.6807
-3.37311
10.1999
-19.2005
-5.19329
13.1399
-0.191383
-12.9486
3.08521
-15.4244
5.12393
-20.5484
15.8876
-16.3494
1.79118
-7.97958
-3.20075
-3.31163
-2.19633
-3.44797
-7.64631
5.44998
-1.27847
3.6051
-12.604
12.4126
-5.11985
10.5698
-4.10413
-1.13851
4.27693
1.16619
11.736
3.0488
-16.796
-9.31231
14.6946
-5.38226
1.09228
-10.8304
3.86417
8.06927
14.0321
-24.772
1.67166
-15.1243
-4.11291
6.27266
4.95226
17.0919
2.57104
6.61741
-0.344755
9.18845
2.29784
2.22131
-11.2674
12.2242
1.56644
15.6937
-1.88513
7.42752
3.29429
3.31187
2.03351
5.72897
2.92407
8.73784
0.463973
-3.87302
2.07921
-3.99473
-1.2851
-4.03587
-0.333132
3.74528
-4.07841
10.5601
-1.96713
5.17786
-1.91583
-4.97106
6.88689
-9.41047
-5.54345
-1.60597
-5.64699
7.36071
6.16824
-5.75474
-3.65574
2.41426
-15.2956
11.9725
-12.688
-2.28582
22.0064
-9.49277
1.26847
-3.18341
-6.28653
-7.6891
7.75711
24.1902
1.01799
12.2831
18.8467
11.755
1.03287
12.0438
-16.0966
-10.7017
-16.3689
-0.853895
13.7249
5.66109
20.6722
17.1842
13.8111
-5.3894
-24.8927
20.7698
-8.54565
16.4307
-3.4821
-17.0663
14.5704
8.95664
-17.311
0.961617
-16.1046
-24.6503
-0.346765
12.7593
-11.3893
10.2507
7.18427
2.03431
-2.45123
-0.860406
2.56977
-0.348459
8.83999
-0.1816
-8.25545
8.43705
-3.56368
2.27858
-0.455547
4.21054
6.43134
4.46421
-3.79124
-7.86965
-8.85821
-5.00676
-17.1672
2.49425
-8.66249
5.72761
-3.44904
2.86261
4.98801
10.1659
-1.60412
-9.49016
7.40249
-4.53988
5.62599
)
;

boundaryField
{
    wall-4
    {
        type            calculated;
        value           uniform 0;
    }
    velocity-inlet-5
    {
        type            calculated;
        value           uniform -11.2529;
    }
    velocity-inlet-6
    {
        type            calculated;
        value           uniform -1.87548;
    }
    pressure-outlet-7
    {
        type            calculated;
        value           nonuniform List<scalar> 8(4.28238 4.91575 10.9627 11.9601 17.5111 15.2355 17.1647 15.4927);
    }
    wall-8
    {
        type            calculated;
        value           uniform 0;
    }
    frontAndBackPlanes
    {
        type            empty;
        value           nonuniform List<scalar> 0();
    }
}


// ************************************************************************* //
