/*--------------------------------*- C++ -*----------------------------------*\
  =========                 |
  \\      /  F ield         | OpenFOAM: The Open Source CFD Toolbox
   \\    /   O peration     | Website:  https://openfoam.org
    \\  /    A nd           | Version:  9
     \\/     M anipulation  |
\*---------------------------------------------------------------------------*/
FoamFile
{
    format      ascii;
    class       volScalarField;
    location    "0.25";
    object      p;
}
// * * * * * * * * * * * * * * * * * * * * * * * * * * * * * * * * * * * * * //

dimensions      [1 -1 -2 0 0 0 0];

internalField   nonuniform List<scalar> 
2268
(
1524.89
1531.3
1545.22
1563.06
1579.16
1593.26
1605
1614.34
1621.34
1626.07
1628.78
1630.05
1631.02
1633.81
1642.09
1662.1
1702.53
1771.19
1871.03
1990.17
2103.16
2147.93
2211.5
1464.77
1469.41
1481.34
1496.51
1510.78
1523.3
1533.64
1541.68
1547.44
1551.08
1552.94
1553.75
1554.83
1558.48
1568.47
1590.32
1632.29
1703.99
1810.11
1940.47
2064.69
2099.67
2159.48
1403.73
1408.72
1418.35
1430.58
1442.21
1452.31
1460.41
1466.33
1470.11
1471.98
1472.42
1472.34
1473.3
1477.76
1489.6
1514.24
1559.13
1632.68
1740.01
1872.36
2003.82
2055.29
2131.59
1341.88
1347.85
1356.18
1366.03
1375.19
1382.82
1388.54
1392.15
1393.73
1393.6
1392.36
1391.07
1391.43
1396.03
1408.71
1434.67
1480.45
1553.2
1657.36
1785.62
1918.43
1998.38
2111.1
1279.19
1286.35
1293.99
1302.11
1309.24
1314.72
1318.24
1319.69
1319.16
1317.05
1314.07
1311.36
1310.7
1314.67
1326.98
1352.45
1396.82
1466.04
1563.71
1684.53
1813.39
1920.31
2067.6
1215.65
1223.91
1231.13
1237.9
1243.37
1246.99
1248.55
1248
1245.5
1241.5
1236.76
1232.49
1230.48
1233.23
1244.19
1267.73
1308.78
1372.17
1460.63
1570.44
1688.15
1814.02
1973.75
1151.27
1160.45
1167.31
1172.94
1176.98
1178.95
1178.75
1176.36
1172
1166.16
1159.66
1153.74
1150.15
1151.23
1160.1
1180.57
1216.76
1272.37
1349.02
1443.19
1539.89
1669.03
1789.26
1086.06
1095.93
1102.45
1107.03
1109.78
1110.3
1108.51
1104.44
1098.34
1090.77
1082.55
1074.94
1069.6
1068.68
1074.83
1091.25
1121.18
1167.15
1229.25
1302.08
1366.3
1457.61
1464.57
5.55745
5.54593
5.52578
5.5066
5.49399
5.48558
5.4779
5.46813
5.45509
5.43876
5.41997
5.39987
5.37965
5.36041
5.34306
5.32749
5.31606
5.30872
5.30383
5.50186
5.4926
5.46965
5.44721
5.43258
5.42312
5.41503
5.40539
5.39283
5.37711
5.35892
5.33934
5.31951
5.30054
5.28331
5.26798
5.2565
5.24866
5.24384
5.44433
5.43719
5.41057
5.38653
5.37043
5.35996
5.35153
5.34205
5.33003
5.315
5.29746
5.27842
5.25898
5.24023
5.22311
5.20785
5.19637
5.18878
5.18407
5.38313
5.37985
5.34778
5.32406
5.30773
5.29712
5.28878
5.27954
5.2679
5.25333
5.2362
5.21747
5.1982
5.17949
5.16226
5.14708
5.13544
5.12761
5.12315
5.31421
5.32164
5.28195
5.26003
5.24464
5.23481
5.22712
5.21829
5.20687
5.19245
5.17537
5.1566
5.13722
5.11833
5.10085
5.08558
5.07376
5.06577
5.0615
5.23116
5.26281
5.21378
5.19469
5.18115
5.17291
5.16639
5.15818
5.14688
5.13233
5.11496
5.09579
5.07599
5.0567
5.03887
5.02337
5.01132
5.0032
4.99905
5.12701
5.20352
5.14366
5.128
5.11715
5.11128
5.10647
5.09912
5.08786
5.0729
5.05491
5.03502
5.01451
4.9946
4.97629
4.96045
4.94813
4.93986
4.93579
4.97746
5.15576
5.07141
5.05938
5.05108
5.0493
5.04716
5.04104
5.02982
5.01419
4.99525
4.97435
4.95287
4.93212
4.91315
4.89682
4.88417
4.87573
4.87171
982.811
993.146
999.114
1002.17
1003.09
1001.61
997.596
991.152
982.587
972.474
961.682
951.408
943.172
938.695
939.841
948.67
967.115
995.878
1032.19
1065.45
1066.41
984.321
547.148
838.864
849.116
853.824
854.866
853.488
849.487
842.722
833.317
821.609
808.171
793.835
779.727
767.196
757.385
750.949
748.462
750.485
756.385
762.379
757.584
714.588
591.112
392.968
692.072
701.632
704.42
703.254
699.592
693.133
683.695
671.401
656.581
639.755
621.638
603.341
586.321
571.319
557.546
543.997
530.606
517.115
502.224
482.365
446.539
380.602
314.701
543.333
551.646
552.009
548.567
542.647
533.684
521.438
506.033
487.772
467.022
444.264
420.824
399.121
380.013
360.342
336.859
309.726
280.123
250.289
224.91
201.401
168.121
126.757
392.894
398.935
397.086
391.341
382.714
370.627
354.88
335.633
313.116
287.498
259.112
230.026
205.324
187.136
167.778
140.626
107.761
72.2064
36.522
17.0908
6.1941
-5.1676
-23.1959
240.932
244.3
239.578
230.317
217.962
202.578
184.04
162.584
138.408
111.964
84.622
59.6204
43.6392
37.6173
31.762
23.4069
13.6749
3.67083
-5.72619
-11.7774
-15.1105
-20.4118
-33.2613
100.856
99.6702
91.0184
79.259
67.4946
55.6002
43.5616
32.1804
22.1902
14.8749
7.47019
1.37233
-1.37029
-1.93494
-3.12377
-3.5071
-3.64563
-4.08975
-4.66594
-5.1984
-5.64462
-6.24294
-8.52863
24.8471
13.0867
9.68811
7.22623
4.76123
2.27819
-0.10013
-2.06149
-3.2798
-3.38956
-3.34743
-3.44282
-3.49254
-3.60379
-3.74511
-3.81641
-3.88848
-4.03206
-4.20787
-4.36251
-4.48905
-4.657
-5.17513
-3.94484
-2.74487
-2.74376
-3.08915
-3.14597
-3.17128
-3.21479
-3.25986
-3.24229
-3.22602
-3.26259
-3.36262
-3.50172
-3.67605
-3.86761
-4.02774
-4.17491
-4.36445
-4.60061
-4.8638
-5.12343
-5.30443
-5.44638
-3.09613
-3.08039
-3.09638
-3.08919
-3.06444
-3.06654
-3.1075
-3.18715
-3.31003
-3.4271
-3.52438
-3.63709
-3.7724
-3.92688
-4.09459
-4.26503
-4.44077
-4.64486
-4.88053
-5.1361
-5.40046
-5.67282
-5.98179
-3.29243
-3.25086
-3.23169
-3.24602
-3.2711
-3.30567
-3.35981
-3.4363
-3.5343
-3.63918
-3.74399
-3.86152
-3.99593
-4.14678
-4.31275
-4.48907
-4.6764
-4.8839
-5.11525
-5.36825
-5.64342
-5.94838
-6.29625
-3.41513
-3.39111
-3.39151
-3.41191
-3.44806
-3.49453
-3.55484
-3.63081
-3.72122
-3.82226
-3.93253
-4.05543
-4.19278
-4.34478
-4.51095
-4.68918
-4.88026
-5.08913
-5.31984
-5.57513
-5.86021
-6.18419
-6.5582
-3.55646
-3.54697
-3.55439
-3.57823
-3.61658
-3.6666
-3.7291
-3.80505
-3.89411
-3.99509
-4.10751
-4.23237
-4.37027
-4.52119
-4.68484
-4.86095
-5.05108
-5.25877
-5.4885
-5.74591
-6.04022
-6.38574
-6.79985
-3.70098
-3.70195
-3.71301
-3.73869
-3.77804
-3.82931
-3.8924
-3.96776
-4.05547
-4.15525
-4.26689
-4.39054
-4.52618
-4.67359
-4.83278
-5.0044
-5.19044
-5.39459
-5.62224
-5.88133
-6.18513
-6.55504
-7.01947
-3.83597
-3.84539
-3.8607
-3.88856
-3.92869
-3.98016
-4.04275
-4.11671
-4.20226
-4.29949
-4.40833
-4.52863
-4.66006
-4.80232
-4.95561
-5.1211
-5.30131
-5.50051
-5.72497
-5.98428
-6.29446
-6.68242
-7.18556
-3.96261
-3.97661
-3.99558
-4.02587
-4.06651
-4.11745
-4.17869
-4.25045
-4.33306
-4.42673
-4.53147
-4.64701
-4.77289
-4.90882
-5.05518
-5.21353
-5.38687
-5.57989
-5.79943
-6.05555
-6.36476
-6.75532
-7.26323
-4.07906
-4.0953
-4.11869
-4.15059
-4.19124
-4.24106
-4.30028
-4.36918
-4.44815
-4.53748
-4.6372
-4.74702
-4.86644
-4.99519
-5.13383
-5.28419
-5.44956
-5.63485
-5.84682
-6.09497
-6.3945
-6.77085
-7.25197
-4.18522
-4.20379
-4.23012
-4.26321
-4.30344
-4.35168
-4.40836
-4.47388
-4.54864
-4.633
-4.72703
-4.83043
-4.9427
-5.06361
-5.19381
-5.33525
-5.49129
-5.66661
-5.86742
-6.10203
-6.38308
-6.73032
-7.16288
-4.28263
-4.30296
-4.33123
-4.36489
-4.40426
-4.45052
-4.50428
-4.56597
-4.63608
-4.71499
-4.8028
-4.89925
-5.00384
-5.11633
-5.23738
-5.36887
-5.51392
-5.67668
-5.86232
-6.07756
-6.33186
-6.63884
-7.01157
-4.37277
-4.39411
-4.42341
-4.45701
-4.49511
-4.53907
-4.58959
-4.64716
-4.71226
-4.78532
-4.86651
-4.95558
-5.05203
-5.15559
-5.26677
-5.38722
-5.5196
-5.66724
-5.83408
-6.02497
-6.24622
-6.50621
-6.81424
-4.45699
-4.47857
-4.50803
-4.54099
-4.57746
-4.61886
-4.66593
-4.71914
-4.77899
-4.84593
-4.92016
-5.0015
-5.08943
-5.18359
-5.28425
-5.39268
-5.51094
-5.64144
-5.78679
-5.95001
-6.13463
-6.34487
-6.5866
-4.53646
-4.55759
-4.58642
-4.6182
-4.65273
-4.6914
-4.73487
-4.78359
-4.83805
-4.89868
-4.96573
-5.03905
-5.11814
-5.20251
-5.29216
-5.38787
-5.49103
-5.60314
-5.72558
-5.85971
-6.00685
-6.16798
-6.34516
-4.61214
-4.63225
-4.65978
-4.68993
-4.72229
-4.75807
-4.79788
-4.84208
-4.8911
-4.94536
-5.0051
-5.07024
-5.14026
-5.21458
-5.29291
-5.37553
-5.46319
-5.55653
-5.65589
-5.7613
-5.87243
-5.98806
-6.10668
-4.68481
-4.70351
-4.72922
-4.75736
-4.78734
-4.82017
-4.8563
-4.89603
-4.93968
-4.98761
-5.04007
-5.09698
-5.15786
-5.22205
-5.28898
-5.35852
-5.43079
-5.50577
-5.58297
-5.66143
-5.73974
-5.81541
-5.88452
-4.75507
-4.7721
-4.79564
-4.82151
-4.84897
-4.87878
-4.91128
-4.94664
-4.98508
-5.02687
-5.0722
-5.12102
-5.17289
-5.22707
-5.28283
-5.33965
-5.39719
-5.45487
-5.51163
-5.56587
-5.61554
-5.65766
-5.68718
-4.82336
-4.83861
-4.85977
-4.8832
-4.90804
-4.93482
-4.96375
-4.99489
-5.02835
-5.06428
-5.10281
-5.14386
-5.18703
-5.23159
-5.27668
-5.32152
-5.36538
-5.40733
-5.44595
-5.47928
-5.50496
-5.52002
-5.51928
-4.88998
-4.90345
-4.92217
-4.94306
-4.96522
-4.98899
-5.01444
-5.04155
-5.07031
-5.10076
-5.13293
-5.1667
-5.20169
-5.23722
-5.27239
-5.30625
-5.33782
-5.36595
-5.38903
-5.40497
-5.41138
-5.40554
-5.38268
-4.95515
-4.9669
-4.98324
-5.00158
-5.02107
-5.04186
-5.06395
-5.08723
-5.1116
-5.137
-5.16334
-5.19045
-5.21797
-5.24526
-5.27144
-5.2955
-5.31634
-5.33268
-5.3429
-5.34493
-5.33653
-5.31532
-5.27719
-5.01905
-5.02921
-5.04328
-5.05914
-5.07599
-5.09388
-5.11274
-5.13241
-5.15273
-5.17352
-5.19462
-5.21579
-5.23665
-5.25662
-5.27488
-5.29043
-5.30217
-5.30877
-5.30868
-5.3
-5.28072
-5.24887
-5.20105
-5.08185
-5.09056
-5.10254
-5.11604
-5.13035
-5.14545
-5.16123
-5.17751
-5.1941
-5.21075
-5.22722
-5.2432
-5.25828
-5.27192
-5.28338
-5.29176
-5.29598
-5.29481
-5.28678
-5.27021
-5.24339
-5.20473
-5.15152
-5.14372
-5.15114
-5.16121
-5.17254
-5.18446
-5.19692
-5.20979
-5.22291
-5.23608
-5.24903
-5.26145
-5.27297
-5.28316
-5.2915
-5.29732
-5.29982
-5.29804
-5.29087
-5.277
-5.25498
-5.22337
-5.18096
-5.12566
-5.20483
-5.2111
-5.21951
-5.22886
-5.23858
-5.24857
-5.25873
-5.26893
-5.27899
-5.28863
-5.29753
-5.30529
-5.31145
-5.31548
-5.31678
-5.31465
-5.30827
-5.29667
-5.27876
-5.2533
-5.21913
-5.17535
-5.1204
-5.26536
-5.27064
-5.27759
-5.28521
-5.29293
-5.30067
-5.30834
-5.31587
-5.3231
-5.3298
-5.33565
-5.34026
-5.34314
-5.34378
-5.34161
-5.33602
-5.32631
-5.31168
-5.29124
-5.26398
-5.22899
-5.18563
-5.13276
-5.32547
-5.32993
-5.33564
-5.34175
-5.34769
-5.35339
-5.35882
-5.36394
-5.36865
-5.37275
-5.37598
-5.37794
-5.37819
-5.37622
-5.37151
-5.3635
-5.3516
-5.33516
-5.31347
-5.28573
-5.25127
-5.20965
-5.1601
-5.38537
-5.38921
-5.39385
-5.39866
-5.40301
-5.40689
-5.41032
-5.41332
-5.41581
-5.41766
-5.41862
-5.41838
-5.41653
-5.41259
-5.4061
-5.39656
-5.38345
-5.36624
-5.34437
-5.31724
-5.28435
-5.24546
-5.20005
-5.44516
-5.44872
-5.45238
-5.45606
-5.459
-5.46127
-5.46296
-5.46412
-5.46471
-5.46464
-5.4637
-5.46165
-5.45812
-5.45273
-5.44505
-5.43467
-5.42113
-5.404
-5.38282
-5.35717
-5.32667
-5.29119
-5.25048
-5.50444
-5.50866
-5.5114
-5.51405
-5.51571
-5.51656
-5.51677
-5.51639
-5.51541
-5.51375
-5.51126
-5.50774
-5.50291
-5.49647
-5.48806
-5.47735
-5.46397
-5.44756
-5.42776
-5.40424
-5.37673
-5.34516
-5.30945
-5.56285
-5.56906
-5.57086
-5.57257
-5.57306
-5.57269
-5.57167
-5.57005
-5.56782
-5.5649
-5.56119
-5.55653
-5.55074
-5.54359
-5.53482
-5.52418
-5.51138
-5.49614
-5.47821
-5.45731
-5.43322
-5.40588
-5.37527
-5.62184
-5.63049
-5.63082
-5.63169
-5.63115
-5.62975
-5.62774
-5.62516
-5.62196
-5.61808
-5.61345
-5.60797
-5.60152
-5.59395
-5.5851
-5.57481
-5.5629
-5.54916
-5.53341
-5.51547
-5.49514
-5.47223
-5.4466
-5.68214
-5.6968
-5.69295
-5.69243
-5.69093
-5.68867
-5.68588
-5.68254
-5.6786
-5.674
-5.66869
-5.66263
-5.65575
-5.64799
-5.63929
-5.62956
-5.6187
-5.60662
-5.59323
-5.57841
-5.56201
-5.54353
-5.52236
-5.73309
-5.77631
-5.75954
-5.75506
-5.75227
-5.74925
-5.74582
-5.7419
-5.7374
-5.73227
-5.7265
-5.72007
-5.713
-5.70528
-5.69692
-5.68793
-5.6783
-5.66802
-5.65706
-5.64541
-5.63282
-5.61825
-5.60016
-5.75858
-5.86072
-5.82133
-5.81141
-5.8069
-5.80303
-5.79901
-5.7946
-5.78967
-5.78418
-5.77814
-5.7716
-5.76461
-5.75725
-5.7496
-5.74175
-5.73378
-5.72573
-5.71764
-5.70942
-5.70069
-5.68971
-5.67198
-335.318
-205.868
-56.3806
-19.3604
186.736
117.034
15.292
-41.031
237.249
165.15
101.322
65.8342
78.9738
49.813
32.6038
23.5586
-45.193
-52.524
-53.5416
-52.7461
-55.2453
-67.1333
-74.619
-80.6333
-11.5881
-13.9123
-17.741
-24.5038
-5.91614
-6.60653
-7.62356
-9.3847
-5.65589
-5.81392
-5.98819
-6.23025
-6.31379
-6.53969
-6.74995
-6.88326
-6.60837
-6.82721
-7.05063
-7.20792
-6.88902
-7.12007
-7.35499
-7.53063
-7.17768
-7.4434
-7.71379
-7.92938
-7.45749
-7.76596
-8.0791
-8.33885
-7.6643
-7.99997
-8.33998
-8.6363
-7.72968
-8.04975
-8.37342
-8.68526
-7.67869
-7.97057
-8.25907
-8.53757
-7.5398
-7.80134
-8.0659
-8.32919
-7.33447
-7.5622
-7.80248
-8.05238
-7.07903
-7.26624
-7.47081
-7.69927
-6.7902
-6.93189
-7.0871
-7.26581
-6.48785
-6.58355
-6.68489
-6.7978
-6.19413
-6.24844
-6.30173
-6.35611
-5.92639
-5.94731
-5.96293
-5.97477
-5.69414
-5.69044
-5.6794
-5.66314
-5.50107
-5.4804
-5.45197
-5.41854
-5.34739
-5.31581
-5.27681
-5.23367
-5.23128
-5.19341
-5.14874
-5.10068
-5.14945
-5.10878
-5.06215
-5.01297
-5.09773
-5.05663
-5.01042
-4.96204
-5.07224
-5.03236
-4.98818
-4.94221
-5.0691
-5.03147
-4.99028
-4.94762
-5.08473
-5.04999
-5.0123
-4.97343
-5.11606
-5.08455
-5.05062
-5.01576
-5.16045
-5.13235
-5.10229
-5.07152
-5.21558
-5.19101
-5.16485
-5.13819
-5.2794
-5.25839
-5.23617
-5.21362
-5.35004
-5.33261
-5.31434
-5.29594
-5.42589
-5.41194
-5.39766
-5.38352
-5.50525
-5.49457
-5.48457
-5.47495
-5.58333
-5.5756
-5.57233
-5.56846
-5.64727
-5.64476
-5.65446
-5.66079
4.89733
5.18364
4.96018
4.93659
4.94038
4.95044
4.95514
4.95183
4.94074
4.92375
4.90282
4.87982
4.8564
4.83397
4.81364
4.79628
4.78301
4.77425
4.77021
-0.975997
5.14459
4.94368
4.80386
4.79367
4.81684
4.83457
4.83649
4.82462
4.80459
4.77932
4.75188
4.72445
4.69864
4.67566
4.65649
4.64169
4.63225
4.6281
10.0626
-10.7625
4.43451
4.74949
4.70723
4.70508
4.72396
4.73048
4.7147
4.68978
4.65796
4.62396
4.59081
4.56038
4.53385
4.51207
4.49571
4.48555
4.4813
-9.7513
-42.2737
-9.83275
4.04991
4.65702
4.65643
4.63411
4.63309
4.61454
4.58025
4.53863
4.49556
4.45473
4.4183
4.3874
4.36257
4.34437
4.33341
4.32913
-51.2042
-59.8425
-41.3098
-1.89343
4.18565
4.62783
4.57873
4.54704
4.52076
4.4753
4.42069
4.36576
4.31517
4.27131
4.23525
4.20698
4.18677
4.17499
4.17072
-82.317
-82.0414
-61.751
-19.8983
2.87442
4.42985
4.51256
4.47463
4.43264
4.37339
4.30267
4.23298
4.17062
4.11822
4.07613
4.04413
4.02185
4.00929
4.00511
-47.3691
-85.7882
-80.7779
-44.8037
-2.6196
3.94972
4.48035
4.43308
4.3502
4.27057
4.18122
4.09445
4.01892
3.95684
3.90844
3.87267
3.84844
3.83523
3.83126
-15.1329
-39.7016
-91.1525
-66.5465
-10.8968
3.42752
4.39438
4.37278
4.2608
4.15815
4.05013
3.9462
3.85691
3.78512
3.73048
3.69117
3.66531
3.65173
3.6481
-6.93896
-13.1657
-72.7622
-83.1883
-23.3659
2.15261
4.1376
4.3164
4.16782
4.03069
3.90267
3.7824
3.68091
3.60051
3.54042
3.49825
3.47131
3.45774
3.45465
-6.9932
-9.36514
-38.435
-89.5031
-34.4899
0.285028
3.92524
4.26887
4.05926
3.87998
3.73086
3.59729
3.48685
3.40035
3.3365
3.29263
3.26542
3.25237
3.25006
-7.22623
-8.98801
-25.641
-84.991
-36.3843
-0.464446
3.86215
4.16387
3.89969
3.69107
3.52575
3.38489
3.27095
3.1823
3.11732
3.0734
3.04695
3.035
3.03372
-7.55926
-8.99077
-18.3471
-69.2943
-31.6474
-0.250537
3.71262
3.93026
3.65943
3.44739
3.27906
3.14092
3.03079
2.94501
2.88214
2.84016
2.81562
2.80539
2.80537
-8.04021
-9.4208
-17.6206
-58.9366
-23.2446
0.488614
3.44869
3.55478
3.32509
3.14018
2.988
2.86495
2.76652
2.68873
2.63125
2.59318
2.57166
2.56366
2.56505
-8.54435
-9.83508
-16.8713
-51.4822
-16.749
0.771704
3.01544
3.0543
2.90338
2.7729
2.65729
2.56123
2.48126
2.41557
2.36604
2.33344
2.31575
2.3103
2.31313
-8.94241
-9.93181
-13.8903
-43.0778
-12.8357
0.632907
2.48514
2.49697
2.42234
2.36375
2.29975
2.23848
2.18076
2.12917
2.08883
2.06245
2.04894
2.04608
2.05027
-9.08602
-8.71797
-6.3954
-27.9505
-17.1836
0.317047
2.02477
1.97227
1.93806
1.94565
1.93479
1.90845
1.87221
1.83396
1.80239
1.78204
1.77248
1.77192
1.77722
-8.95279
-8.83384
-9.77313
-13.1458
-26.7711
-1.74604
1.4752
1.56195
1.51503
1.55381
1.58213
1.58242
1.56217
1.53391
1.5093
1.49395
1.48762
1.48881
1.49482
-8.7463
-8.93988
-8.83139
-4.42708
-17.1323
-6.83672
0.71628
1.09272
1.13631
1.20314
1.2534
1.26717
1.25459
1.23148
1.21127
1.19949
1.19544
1.19766
1.20393
-8.45015
-8.81472
-8.78735
-8.52414
-4.28418
-2.68236
0.0108296
0.612443
0.788062
0.891935
0.951526
0.964355
0.949986
0.927037
0.908904
0.899403
0.896703
0.89931
0.905416
-8.07786
-8.48748
-8.81153
-8.54362
-7.38687
-2.47127
0.310703
0.542766
0.486161
0.622336
0.674419
0.670205
0.645235
0.618948
0.601758
0.593851
0.591964
0.59457
0.600222
-7.57949
-7.95441
-8.27241
-8.27266
-8.21811
-6.76155
-1.61239
0.49801
0.396445
0.416786
0.403871
0.370732
0.332561
0.303851
0.288683
0.282694
0.281693
0.284317
0.289431
-6.99881
-7.24496
-7.40458
-7.37667
-6.87317
-5.93233
-3.25105
-0.323427
0.284061
0.164749
0.0900603
0.0413171
0.00166484
-0.0217157
-0.0313858
-0.0340646
-0.0334157
-0.030336
-0.0256387
-6.44521
-6.52351
-6.50762
-6.30221
-5.74791
-4.76425
-3.09613
-1.25397
-0.31671
-0.279149
-0.306081
-0.330983
-0.350252
-0.357955
-0.358128
-0.355611
-0.352145
-0.347948
-0.343397
-5.98365
-5.93025
-5.76998
-5.44071
-4.87061
-3.99794
-2.84067
-1.6936
-1.02244
-0.819667
-0.75595
-0.728122
-0.713481
-0.70054
-0.68913
-0.679975
-0.672683
-0.666788
-0.662045
-5.6227
-5.49454
-5.26339
-4.89366
-4.35826
-3.64629
-2.80938
-2.04063
-1.55232
-1.31282
-1.18964
-1.11996
-1.0751
-1.04338
-1.02065
-1.00442
-0.99288
-0.985049
-0.979685
-5.35068
-5.19007
-4.94084
-4.5846
-4.11465
-3.54484
-2.92546
-2.36802
-1.97769
-1.73977
-1.59101
-1.49384
-1.42763
-1.38146
-1.34902
-1.32622
-1.3106
-1.30093
-1.29466
-5.15219
-4.98341
-4.74354
-4.42379
-4.02616
-3.56956
-3.09571
-2.66951
-2.3441
-2.11663
-1.95802
-1.84646
-1.7675
-1.71133
-1.67132
-1.64311
-1.62403
-1.61268
-1.60582
-5.01339
-4.84862
-4.62862
-4.35039
-4.01908
-3.65137
-3.27786
-2.93825
-2.66192
-2.45112
-2.29389
-2.17791
-2.09288
-2.03071
-1.98557
-1.95345
-1.93177
-1.91909
-1.91218
-4.92634
-4.76918
-4.571
-4.33113
-4.05524
-3.75641
-3.45574
-3.17819
-2.94211
-2.75199
-2.60347
-2.48961
-2.40334
-2.33859
-2.2907
-2.25626
-2.23295
-2.21943
-2.2128
-4.87774
-4.73275
-4.55629
-4.34974
-4.11863
-3.87296
-3.62722
-3.3975
-3.19609
-3.02778
-2.89155
-2.78364
-2.69952
-2.63495
-2.58638
-2.55108
-2.5271
-2.51321
-2.50704
-4.86271
-4.73085
-4.57497
-4.39719
-4.20248
-3.9985
-3.79534
-3.60375
-3.43219
-3.28486
-3.16217
-3.06236
-2.9827
-2.92036
-2.87278
-2.83786
-2.81403
-2.80025
-2.79465
-4.87433
-4.75602
-4.61938
-4.4667
-4.3022
-4.13173
-3.96249
-3.80186
-3.65581
-3.52776
-3.41873
-3.3281
-3.25437
-3.19573
-3.15041
-3.11686
-3.09386
-3.08058
-3.07561
-4.90706
-4.80222
-4.68343
-4.5528
-4.41386
-4.27103
-4.12951
-3.99453
-3.87037
-3.7598
-3.664
-3.58299
-3.51605
-3.4621
-3.41996
-3.38852
-3.36689
-3.35442
-3.3501
-4.95659
-4.86486
-4.76251
-4.65144
-4.53445
-4.41492
-4.29663
-4.18334
-4.07822
-3.98345
-3.90024
-3.8289
-3.7692
-3.72055
-3.6822
-3.65342
-3.63356
-3.62213
-3.61846
-5.01962
-4.94045
-4.85329
-4.75968
-4.66186
-4.56235
-4.46394
-4.36937
-4.28102
-4.20062
-4.12926
-4.06742
-4.01513
-3.97212
-3.93798
-3.91221
-3.8944
-3.88419
-3.88116
-5.0935
-5.02636
-4.95326
-4.87543
-4.79457
-4.71258
-4.63152
-4.5534
-4.48002
-4.41275
-4.35254
-4.2999
-4.25501
-4.21782
-4.18812
-4.16561
-4.15003
-4.14114
-4.13872
-5.17608
-5.12048
-5.06051
-4.99708
-4.93147
-4.86508
-4.79943
-4.73601
-4.67617
-4.621
-4.57128
-4.52751
-4.48993
-4.4586
-4.43345
-4.41434
-4.4011
-4.39358
-4.39174
-5.26557
-5.22113
-5.17355
-5.12344
-5.07173
-5.01946
-4.96773
-4.91766
-4.87024
-4.82632
-4.78652
-4.75128
-4.72085
-4.69536
-4.6748
-4.65913
-4.64828
-4.64214
-4.64084
-5.36045
-5.32697
-5.29121
-5.25356
-5.21472
-5.17542
-5.13649
-5.09873
-5.06285
-5.02949
-4.99912
-4.9721
-4.94866
-4.92893
-4.91295
-4.90072
-4.89225
-4.88748
-4.88664
-5.45942
-5.43691
-5.41262
-5.38682
-5.36006
-5.3329
-5.30592
-5.27967
-5.25466
-5.23132
-5.20998
-5.19091
-5.17427
-5.16019
-5.14871
-5.13987
-5.13372
-5.13026
-5.12979
-5.56101
-5.55001
-5.53716
-5.52287
-5.50771
-5.49213
-5.47652
-5.46125
-5.44661
-5.43286
-5.42021
-5.40881
-5.39876
-5.39015
-5.38303
-5.37742
-5.37341
-5.37109
-5.37079
-5.66623
-5.66667
-5.6644
-5.6609
-5.65673
-5.65219
-5.64747
-5.64274
-5.6381
-5.63366
-5.62947
-5.62561
-5.62209
-5.61897
-5.61626
-5.61398
-5.61219
-5.61102
-5.61071
)
;

boundaryField
{
    leftWall
    {
        type            calculated;
        value           nonuniform List<scalar> 
50
(
1524.89
1464.77
1403.73
1341.88
1279.19
1215.65
1151.27
1086.06
982.811
838.864
692.072
543.333
392.894
240.932
100.856
24.8471
-3.94484
-3.09613
-3.29243
-3.41513
-3.55646
-3.70098
-3.83597
-3.96261
-4.07906
-4.18522
-4.28263
-4.37277
-4.45699
-4.53646
-4.61214
-4.68481
-4.75507
-4.82336
-4.88998
-4.95515
-5.01905
-5.08185
-5.14372
-5.20483
-5.26536
-5.32547
-5.38537
-5.44516
-5.50444
-5.56285
-5.62184
-5.68214
-5.73309
-5.75858
)
;
    }
    rightWall
    {
        type            calculated;
        value           nonuniform List<scalar> 
50
(
5.30383
5.24384
5.18407
5.12315
5.0615
4.99905
4.93579
4.87171
4.77021
4.6281
4.4813
4.32913
4.17072
4.00511
3.83126
3.6481
3.45465
3.25006
3.03372
2.80537
2.56505
2.31313
2.05027
1.77722
1.49482
1.20393
0.905416
0.600222
0.289431
-0.0256387
-0.343397
-0.662045
-0.979685
-1.29466
-1.60582
-1.91218
-2.2128
-2.50704
-2.79465
-3.07561
-3.3501
-3.61846
-3.88116
-4.13872
-4.39174
-4.64084
-4.88664
-5.12979
-5.37079
-5.61071
)
;
    }
    lowerWall
    {
        type            calculated;
        value           nonuniform List<scalar> 
62
(
1554.32
1560.73
1574.65
1592.49
1608.58
1622.69
1634.43
1643.77
1650.77
1655.5
1658.21
1659.48
1660.45
1663.23
1671.52
1691.53
1731.96
1800.62
1900.46
2019.6
2132.59
2175.97
2238.39
2211.5
2159.48
2131.59
2111.1
2067.6
1973.75
1789.26
1464.57
-273.124
-143.295
-6.45274
-18.9775
5.55745
5.50186
5.44433
5.38313
5.31421
5.23116
5.12701
4.97746
5.58688
5.57536
5.55521
5.53603
5.52342
5.51501
5.50733
5.49756
5.48452
5.46819
5.4494
5.4293
5.40908
5.38984
5.37249
5.35692
5.34549
5.33815
5.33326
)
;
    }
    atmosphere
    {
        type            calculated;
        value           nonuniform List<scalar> 
46
(
-5.79469
-5.84227
-5.8343
-5.83024
-5.82658
-5.82284
-5.81877
-5.81423
-5.80917
-5.80358
-5.79752
-5.79104
-5.78426
-5.77727
-5.77022
-5.76323
-5.75645
-5.75003
-5.74415
-5.73897
-5.73469
-5.73153
-5.72968
-5.72908
-5.72904
-5.72904
-5.72904
-5.72904
-5.72904
-5.72904
-5.72904
-5.72904
-5.72904
-5.72904
-5.72904
-5.72904
-5.72904
-5.72904
-5.72904
-5.72904
-5.72904
-5.72904
-5.72904
-5.72904
-5.72904
-5.72904
)
;
    }
    defaultFaces
    {
        type            empty;
    }
}


// ************************************************************************* //
