/*--------------------------------*- C++ -*----------------------------------*\
  =========                 |
  \\      /  F ield         | OpenFOAM: The Open Source CFD Toolbox
   \\    /   O peration     | Website:  https://openfoam.org
    \\  /    A nd           | Version:  9
     \\/     M anipulation  |
\*---------------------------------------------------------------------------*/
FoamFile
{
    format      ascii;
    class       volScalarField;
    location    "0.17";
    object      p;
}
// * * * * * * * * * * * * * * * * * * * * * * * * * * * * * * * * * * * * * //

dimensions      [1 -1 -2 0 0 0 0];

internalField   nonuniform List<scalar> 
2268
(
2393.17
2405.82
2422.39
2439.85
2454.98
2466.59
2474.04
2476.65
2473.65
2464.42
2448.73
2427.08
2401.34
2375.52
2356.99
2357.98
2397.81
2504.92
2711.25
3028.06
3426.93
3769.68
4013.6
2331.87
2342.88
2356.21
2370.63
2383.18
2392.43
2397.65
2398.05
2392.83
2381.38
2363.5
2339.84
2312.42
2285.53
2266.74
2268.22
2307.91
2409.12
2608.87
2926
3352.07
3742.46
4028.32
2269.57
2280.13
2290.47
2301.23
2310.23
2316
2317.77
2314.7
2305.96
2290.96
2269.59
2242.64
2212.4
2183.38
2163.38
2164.51
2204.47
2307.07
2497.93
2802.28
3227.18
3661.37
4033.07
2205.58
2216.83
2225.26
2233.01
2238.72
2241.06
2239.3
2232.59
2220.07
2201.18
2175.85
2144.97
2110.93
2078.36
2055.02
2052.81
2088.82
2184.85
2365.98
2653.85
3060.64
3517.27
3982.02
2140.1
2152.22
2159.53
2165.12
2168.25
2167.72
2162.89
2152.9
2136.91
2114.3
2085
2049.87
2011.26
1973.7
1944.7
1935.67
1962.81
2046.4
2210.47
2474.15
2850.46
3307.09
3831.35
2073.1
2085.98
2092.51
2096.52
2097.63
2094.77
2087.32
2074.45
2055.28
2029.15
1995.88
1956.24
1912.39
1868.58
1831.9
1813
1826.92
1892.26
2030.78
2259.21
2587.93
3017.39
3540.49
2004.58
2018
2023.93
2026.68
2026.2
2021.41
2011.72
1996.3
1974.2
1944.68
1907.43
1863.01
1813.32
1762.21
1716.12
1684.74
1681.54
1722.8
1826.81
2007.28
2267.73
2634.15
3058.84
1934.56
1948.14
1953.62
1955.38
1953.63
1947.3
1935.74
1918.08
1893.33
1860.59
1819.41
1770.07
1714.12
1654.85
1597.9
1551.67
1527.54
1538.45
1597.67
1714.65
1883.6
2139.69
2341.28
-2.04375
-2.16706
-2.28891
-2.35771
-2.36984
-2.33644
-2.27451
-2.19719
-2.11377
-2.0305
-1.95138
-1.87889
-1.81453
-1.75916
-1.71321
-1.67679
-1.64998
-1.63288
-1.62517
-2.08704
-2.22491
-2.35757
-2.42978
-2.44242
-2.40774
-2.34372
-2.26398
-2.17834
-2.09323
-2.01266
-1.93906
-1.87389
-1.81792
-1.77155
-1.73488
-1.70794
-1.69091
-1.68311
-2.13752
-2.28886
-2.43519
-2.51004
-2.5235
-2.48622
-2.41828
-2.33437
-2.24502
-2.15691
-2.07406
-1.99878
-1.93239
-1.87556
-1.82862
-1.79161
-1.76451
-1.7475
-1.73947
-2.19651
-2.36355
-2.52746
-2.60286
-2.61372
-2.57086
-2.49661
-2.40667
-2.31223
-2.22017
-2.13441
-2.05707
-1.98927
-1.9315
-1.88396
-1.84663
-1.81939
-1.80236
-1.7942
-2.26836
-2.45374
-2.63834
-2.70993
-2.71388
-2.66179
-2.57849
-2.48054
-2.37964
-2.2827
-2.19346
-2.11375
-2.04439
-1.98563
-1.93753
-1.89993
-1.87257
-1.85552
-1.84726
-2.36674
-2.5662
-2.77151
-2.83347
-2.82509
-2.75947
-2.66402
-2.55593
-2.44713
-2.3444
-2.25115
-2.16878
-2.09773
-2.03799
-1.98935
-1.95151
-1.92407
-1.90697
-1.89863
-2.52466
-2.71445
-2.93171
-2.97622
-2.94838
-2.8642
-2.75315
-2.63267
-2.51453
-2.40514
-2.30738
-2.22211
-2.1493
-2.08856
-2.03943
-2.00138
-1.97388
-1.95673
-1.94829
-2.77599
-2.93069
-3.12575
-3.14193
-3.08483
-2.97622
-2.84569
-2.71045
-2.58155
-2.46468
-2.36199
-2.27365
-2.19904
-2.13733
-2.08774
-2.04952
-2.022
-2.00477
-1.99623
1822.8
1835.82
1840.85
1841.33
1837.98
1829.77
1815.83
1795.21
1766.76
1729.38
1682.27
1625.22
1559.07
1486.07
1410.29
1337.74
1275.61
1229.91
1202.54
1191.28
1174.91
1154.58
712.208
1664.78
1676.62
1680.58
1679.79
1674.88
1664.76
1648.39
1624.61
1592.01
1549.07
1494.41
1427.05
1346.64
1253.84
1150.56
1039.38
921.097
790.233
631.57
434.033
259.76
203.656
77.6768
1501.7
1511.81
1514.39
1512.43
1506.22
1494.55
1476.27
1449.99
1414
1366.39
1305.18
1228.49
1134.74
1023.16
894.016
747.246
578.511
378.436
176.748
58.7885
26.2245
10.6388
0.0152321
1334.71
1342.77
1343.9
1340.77
1333.33
1320.32
1300.48
1272.28
1233.81
1182.82
1116.76
1032.81
928.224
800.992
649.763
472.435
268.881
90.6125
17.5174
2.19778
0.246346
-0.150809
11.9725
1165.02
1170.9
1170.62
1166.31
1157.65
1143.4
1122.3
1092.8
1052.94
1000.26
931.73
843.632
731.986
592.757
421.736
223.782
60.2783
5.31712
-0.727243
-1.95877
-2.12438
-1.28024
0.182112
993.842
997.55
995.942
990.416
980.497
965.073
942.988
912.835
872.804
820.464
752.478
664.407
550.384
401.984
218.212
56.854
2.92058
-1.7064
-2.47075
-2.37657
-2.25289
-2.15321
-1.91084
822.461
824.024
821.223
814.405
803.189
786.647
763.841
733.7
694.783
644.921
580.885
497.776
386.281
234.608
72.9242
4.4835
-2.15265
-2.74223
-2.66122
-2.50555
-2.45819
-2.53149
-2.52173
652.484
651.568
647.811
639.711
627.198
609.587
586.234
556.537
519.627
473.964
417.314
344.597
240.801
102.299
11.1038
-2.28358
-2.88277
-2.85492
-2.75928
-2.66924
-2.59395
-2.53228
-2.44112
484.011
480.455
476.373
467.204
453.215
434.149
409.754
380.014
344.928
304.442
259.671
206.544
122.89
25.8135
-1.31312
-2.82283
-2.9919
-2.9215
-2.84318
-2.73568
-2.59446
-2.42487
-2.22493
314.773
311.7
307.163
296.078
279.708
258.369
232.533
202.99
170.762
137.62
110.156
89.3516
43.7305
2.2037
-2.80003
-3.08027
-3.06054
-2.99176
-2.89214
-2.74427
-2.55583
-2.33549
-2.07706
153.631
151.859
144.276
130.534
113.528
94.3129
74.1385
54.8981
38.2243
25.1941
18.547
19.4019
3.66218
-2.94613
-3.1997
-3.18308
-3.12239
-3.03882
-2.91273
-2.73939
-2.52854
-2.2906
-2.02329
43.7906
34.167
29.9361
23.8346
18.6153
12.8639
7.20863
2.48858
-0.833467
-2.6498
-2.78912
-2.8336
-2.94269
-3.07914
-3.18617
-3.18641
-3.14133
-3.05221
-2.91554
-2.7363
-2.52518
-2.29467
-2.05108
-2.60575
-0.808061
-1.88404
-2.39623
-2.45529
-2.50631
-2.60866
-2.68031
-2.60724
-2.54151
-2.64967
-2.82879
-3.00776
-3.11256
-3.17543
-3.18272
-3.14049
-3.04928
-2.9137
-2.74207
-2.5458
-2.3382
-2.1294
-2.43572
-2.05254
-2.14456
-2.19218
-2.2267
-2.26945
-2.3327
-2.40952
-2.49645
-2.63134
-2.77199
-2.91279
-3.04323
-3.13248
-3.18044
-3.18016
-3.13411
-3.04388
-2.91609
-2.75985
-2.58655
-2.40883
-2.23716
-2.43026
-2.32907
-2.31611
-2.35272
-2.40103
-2.45545
-2.51967
-2.59295
-2.67603
-2.77635
-2.88172
-2.98696
-3.08318
-3.15369
-3.18678
-3.17743
-3.12818
-3.04214
-2.92625
-2.78944
-2.64224
-2.49562
-2.35878
-2.48104
-2.43743
-2.45911
-2.49279
-2.5423
-2.59687
-2.657
-2.72367
-2.79723
-2.87846
-2.96334
-3.04686
-3.12059
-3.17249
-3.19174
-3.17549
-3.12593
-3.04705
-2.94557
-2.82961
-2.70816
-2.59008
-2.48269
-2.57081
-2.57005
-2.5929
-2.62483
-2.66774
-2.71619
-2.76959
-2.82862
-2.89327
-2.96236
-3.03249
-3.09867
-3.15386
-3.18935
-3.19786
-3.17764
-3.13067
-3.06114
-2.9751
-2.87947
-2.78142
-2.68773
-2.60399
-2.68078
-2.69178
-2.71661
-2.74787
-2.7854
-2.82745
-2.87377
-2.92465
-2.97972
-3.03726
-3.09394
-3.14516
-3.18525
-3.20816
-3.20931
-3.18777
-3.14554
-3.08644
-3.01558
-2.93848
-2.86065
-2.78717
-2.72228
-2.78812
-2.80576
-2.83221
-2.86253
-2.89598
-2.9324
-2.97195
-3.01476
-3.06026
-3.10676
-3.15129
-3.18996
-3.21842
-3.23248
-3.22934
-3.20873
-3.17251
-3.12393
-3.06705
-3.00612
-2.9453
-2.8884
-2.83864
-2.894
-2.91467
-2.942
-2.9711
-3.00107
-3.03246
-3.06571
-3.10093
-3.13759
-3.17423
-3.20841
-3.23706
-3.25693
-3.26521
-3.26021
-3.24204
-3.21231
-3.17361
-3.12903
-3.08184
-3.03515
-2.99182
-2.95432
-2.99971
-3.02127
-3.04857
-3.07614
-3.1029
-3.12977
-3.15735
-3.18579
-3.21472
-3.243
-3.26877
-3.28973
-3.30354
-3.30833
-3.30312
-3.28816
-3.26475
-3.23485
-3.20081
-3.16509
-3.13003
-3.09777
-3.07022
-3.10676
-3.128
-3.15439
-3.18007
-3.20383
-3.22668
-3.24928
-3.27188
-3.2943
-3.31577
-3.33494
-3.3502
-3.3599
-3.36281
-3.35835
-3.34679
-3.32911
-3.30679
-3.28157
-3.2553
-3.22972
-3.20642
-3.18689
-3.21644
-3.2366
-3.26137
-3.28492
-3.3059
-3.32522
-3.34356
-3.36129
-3.37841
-3.39447
-3.40862
-3.41974
-3.42673
-3.42876
-3.42549
-3.41714
-3.40443
-3.38844
-3.37046
-3.35183
-3.33385
-3.31771
-3.30456
-3.32947
-3.3481
-3.37079
-3.39206
-3.4105
-3.42683
-3.44166
-3.45545
-3.46838
-3.48027
-3.49065
-3.4988
-3.50401
-3.50573
-3.50373
-3.49819
-3.48961
-3.47875
-3.46655
-3.45399
-3.442
-3.43149
-3.42331
-3.4461
-3.46292
-3.48329
-3.50227
-3.51842
-3.53225
-3.54429
-3.55502
-3.56475
-3.57352
-3.58112
-3.58716
-3.59119
-3.59285
-3.592
-3.58876
-3.58346
-3.57663
-3.56892
-3.56104
-3.55367
-3.54746
-3.54309
-3.56617
-3.58111
-3.59908
-3.61581
-3.62991
-3.64168
-3.65153
-3.65995
-3.66731
-3.6738
-3.67941
-3.68396
-3.68719
-3.6889
-3.68899
-3.68752
-3.68471
-3.68093
-3.6766
-3.67224
-3.66832
-3.66533
-3.66378
-3.68934
-3.70242
-3.71808
-3.73266
-3.7449
-3.75493
-3.76307
-3.76976
-3.77539
-3.78026
-3.78446
-3.78797
-3.79067
-3.79244
-3.79322
-3.79305
-3.79207
-3.7905
-3.78863
-3.78682
-3.78542
-3.78477
-3.78525
-3.81515
-3.8265
-3.84
-3.85259
-3.86314
-3.87167
-3.87843
-3.88379
-3.88817
-3.89187
-3.89509
-3.89788
-3.9002
-3.90201
-3.90327
-3.904
-3.90428
-3.90426
-3.90412
-3.90412
-3.90449
-3.90549
-3.9074
-3.94315
-3.95295
-3.9645
-3.97527
-3.98428
-3.99151
-3.99711
-4.00143
-4.00485
-4.00771
-4.01022
-4.01248
-4.01452
-4.01632
-4.01787
-4.01918
-4.02029
-4.02131
-4.02235
-4.02358
-4.02517
-4.02731
-4.03018
-4.07292
-4.08135
-4.09118
-4.10033
-4.10796
-4.11402
-4.11863
-4.1221
-4.12478
-4.127
-4.12897
-4.13083
-4.13262
-4.13435
-4.13603
-4.13766
-4.13928
-4.14095
-4.14275
-4.14479
-4.14719
-4.15007
-4.15358
-4.20411
-4.21133
-4.21967
-4.22738
-4.23377
-4.23879
-4.24254
-4.2453
-4.24738
-4.24909
-4.25063
-4.25214
-4.25369
-4.2553
-4.25698
-4.25875
-4.26063
-4.26267
-4.26491
-4.26743
-4.27033
-4.27367
-4.27754
-4.33639
-4.34255
-4.34957
-4.35603
-4.36133
-4.36542
-4.36842
-4.37057
-4.37215
-4.37344
-4.37461
-4.37581
-4.37711
-4.37855
-4.38014
-4.3819
-4.38386
-4.38605
-4.3885
-4.39126
-4.3944
-4.39797
-4.40201
-4.46948
-4.4747
-4.48059
-4.48596
-4.4903
-4.49358
-4.49591
-4.49753
-4.49867
-4.49958
-4.50043
-4.50133
-4.50238
-4.5036
-4.50502
-4.50668
-4.50857
-4.51075
-4.51322
-4.51604
-4.51923
-4.52283
-4.52688
-4.60317
-4.60756
-4.61247
-4.61692
-4.62042
-4.62297
-4.62471
-4.62584
-4.62659
-4.62715
-4.62769
-4.6283
-4.62907
-4.63004
-4.63125
-4.63271
-4.63444
-4.63648
-4.63883
-4.64155
-4.64464
-4.64814
-4.65205
-4.73732
-4.74097
-4.74505
-4.7487
-4.75146
-4.75337
-4.75456
-4.75525
-4.75562
-4.75586
-4.75609
-4.75641
-4.75689
-4.75758
-4.75852
-4.75972
-4.76121
-4.76301
-4.76514
-4.76763
-4.77051
-4.77379
-4.77746
-4.87179
-4.87481
-4.87818
-4.88118
-4.88328
-4.88459
-4.88528
-4.88555
-4.88558
-4.88549
-4.88542
-4.88543
-4.88561
-4.88599
-4.88661
-4.8875
-4.88869
-4.89018
-4.89199
-4.89416
-4.89674
-4.89973
-4.90309
-5.00631
-5.00911
-5.01187
-5.01428
-5.01575
-5.01649
-5.01671
-5.01659
-5.01628
-5.01589
-5.0155
-5.0152
-5.01505
-5.01509
-5.01537
-5.01592
-5.01675
-5.01786
-5.01928
-5.02104
-5.02326
-5.02593
-5.02896
-5.14078
-5.14415
-5.14624
-5.148
-5.14881
-5.14897
-5.14874
-5.14826
-5.14763
-5.14692
-5.14622
-5.14559
-5.1451
-5.14479
-5.14471
-5.14488
-5.14531
-5.146
-5.14695
-5.14822
-5.15003
-5.15239
-5.15509
-5.27579
-5.2804
-5.2814
-5.28227
-5.28234
-5.28195
-5.2813
-5.28049
-5.27954
-5.27853
-5.2775
-5.27653
-5.27568
-5.27501
-5.27455
-5.27432
-5.27433
-5.27456
-5.27497
-5.2756
-5.27697
-5.27911
-5.28153
-5.41179
-5.41901
-5.41754
-5.41685
-5.41615
-5.4153
-5.4143
-5.41318
-5.41193
-5.41059
-5.40923
-5.40791
-5.4067
-5.40566
-5.40482
-5.4042
-5.4038
-5.40356
-5.40328
-5.40289
-5.40375
-5.40593
-5.40825
-5.54532
-5.56386
-5.55558
-5.55186
-5.55035
-5.54914
-5.54783
-5.54638
-5.5448
-5.54312
-5.5414
-5.53972
-5.53814
-5.53672
-5.5355
-5.53451
-5.53371
-5.53294
-5.53152
-5.52868
-5.52888
-5.53209
-5.53492
-5.66744
-5.71655
-5.69529
-5.6886
-5.68627
-5.68452
-5.68276
-5.68089
-5.67888
-5.67676
-5.67461
-5.6725
-5.6705
-5.66867
-5.66704
-5.66561
-5.66431
-5.66285
-5.65986
-5.65233
-5.65245
-5.65842
-5.66188
-112.463
-8.19197
-3.58662
-4.89179
-96.6275
-4.90452
-0.80474
-1.53307
-13.5823
-15.0287
-2.96218
-2.87286
1.13314
-24.7577
-10.4012
-5.99792
-12.1178
-22.1595
-14.9865
-7.31847
-4.44038
-11.9101
-14.3607
-6.26222
-2.38181
-3.37973
-6.63075
-8.59669
-2.09964
-1.86513
-2.29869
-3.53594
-1.92765
-1.68031
-1.46825
-1.53281
-1.80369
-1.60003
-1.37745
-1.17288
-1.78378
-1.62036
-1.45113
-1.27561
-1.85792
-1.73187
-1.60679
-1.48317
-1.97691
-1.87992
-1.78544
-1.6945
-2.11901
-2.04546
-1.97549
-1.91008
-2.26879
-2.21371
-2.16242
-2.11599
-2.41417
-2.37277
-2.33483
-2.30126
-2.55159
-2.5203
-2.49199
-2.46727
-2.68226
-2.65864
-2.6375
-2.61923
-2.8084
-2.79075
-2.77515
-2.76182
-2.93191
-2.91901
-2.90778
-2.89833
-3.05413
-3.04502
-3.03726
-3.0309
-3.17586
-3.16976
-3.16474
-3.1608
-3.29753
-3.2938
-3.29092
-3.28885
-3.41938
-3.41747
-3.4162
-3.41556
-3.5415
-3.54094
-3.54088
-3.5413
-3.6639
-3.66433
-3.66515
-3.66636
-3.78658
-3.78771
-3.78918
-3.79096
-3.90957
-3.9112
-3.91312
-3.91531
-4.03292
-4.03488
-4.03711
-4.03956
-4.15668
-4.15886
-4.16126
-4.16385
-4.28085
-4.28314
-4.2856
-4.28821
-4.40539
-4.4077
-4.41014
-4.41268
-4.53021
-4.53246
-4.53481
-4.53725
-4.65524
-4.65738
-4.6596
-4.66189
-4.78044
-4.78244
-4.7845
-4.78664
-4.90581
-4.90764
-4.90954
-4.9115
-5.0314
-5.03304
-5.03476
-5.03655
-5.15724
-5.15869
-5.16023
-5.16182
-5.2834
-5.28466
-5.28599
-5.28736
-5.40991
-5.41098
-5.41209
-5.41322
-5.53666
-5.53763
-5.53853
-5.53942
-5.66319
-5.66402
-5.66487
-5.66564
-3.51823
-3.45568
-3.49999
-3.44633
-3.32323
-3.16389
-2.99505
-2.83235
-2.68439
-2.55479
-2.44403
-2.35085
-2.27356
-2.21051
-2.16036
-2.122
-2.09452
-2.07716
-2.06845
-3.12153
-4.14159
-4.20581
-3.99672
-3.7185
-3.44724
-3.20286
-2.99125
-2.81257
-2.66439
-2.54306
-2.44431
-2.36446
-2.30059
-2.2505
-2.21251
-2.18541
-2.16806
-2.15891
-4.01837
-5.2486
-5.23382
-4.72723
-4.18148
-3.74181
-3.39885
-3.13093
-2.92063
-2.75544
-2.62601
-2.52397
-2.44352
-2.38038
-2.33148
-2.29458
-2.26859
-2.25162
-2.2416
-5.84422
-7.02659
-6.65431
-5.61122
-4.65316
-4.00238
-3.55119
-3.23076
-2.99604
-2.82046
-2.68897
-2.58771
-2.50966
-2.44944
-2.40329
-2.36865
-2.34384
-2.32746
-2.31782
-7.48518
-8.90046
-8.09294
-6.43383
-4.98179
-4.15553
-3.61861
-3.26737
-3.02647
-2.85411
-2.72805
-2.63381
-2.56237
-2.50779
-2.46615
-2.43485
-2.41211
-2.39678
-2.3877
-6.53984
-9.69986
-9.21793
-6.87448
-5.02703
-4.07287
-3.54501
-3.21897
-3.00328
-2.85253
-2.74361
-2.66311
-2.6025
-2.55628
-2.52091
-2.49406
-2.4742
-2.4604
-2.45201
-5.79294
-9.29061
-8.79595
-6.43948
-4.59357
-3.73635
-3.3307
-3.08998
-2.93148
-2.8202
-2.73889
-2.67821
-2.63212
-2.59658
-2.56896
-2.54755
-2.5312
-2.51937
-2.51183
-4.63837
-6.50877
-6.07648
-4.80451
-3.7044
-3.21073
-3.01973
-2.90912
-2.82934
-2.76845
-2.72098
-2.68384
-2.65454
-2.63109
-2.61216
-2.59685
-2.58443
-2.57485
-2.56834
-1.93509
-1.32284
-1.93374
-2.59617
-2.66047
-2.66633
-2.70577
-2.72486
-2.72321
-2.7125
-2.69913
-2.68593
-2.67375
-2.66266
-2.65263
-2.64374
-2.6353
-2.62811
-2.6227
-0.817557
-0.355366
-0.457919
-1.41505
-2.02009
-2.30543
-2.47909
-2.58157
-2.63702
-2.66652
-2.68224
-2.69031
-2.69374
-2.69413
-2.69239
-2.68902
-2.68512
-2.68048
-2.67621
-0.934153
-0.607737
-0.767964
-1.33801
-1.82994
-2.14788
-2.3589
-2.49611
-2.58316
-2.63944
-2.67664
-2.70146
-2.71781
-2.72807
-2.73377
-2.73599
-2.73567
-2.73334
-2.73021
-1.26557
-1.08365
-1.18613
-1.51092
-1.85322
-2.12293
-2.32156
-2.46342
-2.56352
-2.63467
-2.68571
-2.72237
-2.74844
-2.76646
-2.77823
-2.78508
-2.78798
-2.78773
-2.78566
-1.54849
-1.44444
-1.51389
-1.72158
-1.96068
-2.17124
-2.34132
-2.47371
-2.575
-2.65204
-2.71041
-2.75434
-2.78695
-2.81058
-2.82696
-2.83743
-2.84301
-2.84453
-2.84342
-1.81112
-1.75128
-1.79938
-1.93371
-2.09888
-2.25846
-2.39876
-2.51641
-2.61237
-2.68927
-2.75009
-2.79753
-2.83392
-2.86114
-2.8807
-2.89384
-2.90148
-2.90446
-2.90416
-2.04887
-2.01194
-2.04278
-2.12991
-2.24525
-2.3663
-2.48071
-2.58268
-2.67017
-2.74329
-2.80317
-2.85132
-2.88925
-2.91837
-2.93987
-2.95476
-2.96388
-2.96798
-2.96837
-2.25421
-2.22922
-2.24907
-2.30818
-2.39158
-2.48497
-2.57834
-2.66559
-2.74353
-2.81092
-2.86777
-2.91467
-2.95249
-2.98215
-3.00453
-3.02042
-3.03049
-3.03539
-3.03635
-2.43327
-2.41576
-2.42984
-2.47262
-2.53552
-2.60913
-2.68577
-2.76
-2.82844
-2.88931
-2.94195
-2.98636
-3.02291
-3.05211
-3.07456
-3.0908
-3.10138
-3.10682
-3.10821
-2.59446
-2.58262
-2.59413
-2.62717
-2.67648
-2.73572
-2.79913
-2.86218
-2.92179
-2.97605
-3.02397
-3.06519
-3.09972
-3.12777
-3.14966
-3.16578
-3.1765
-3.18225
-3.18398
-2.74407
-2.73689
-2.74746
-2.77446
-2.81443
-2.863
-2.91589
-2.96952
-3.02122
-3.06919
-3.11232
-3.15004
-3.18212
-3.20856
-3.22948
-3.2451
-3.25569
-3.26157
-3.26355
-2.88613
-2.88282
-2.89318
-2.9162
-2.94949
-2.98996
-3.03447
-3.08024
-3.12503
-3.16722
-3.20574
-3.2399
-3.26934
-3.29391
-3.31359
-3.32848
-3.33874
-3.34461
-3.34676
-3.02309
-3.02291
-3.03333
-3.05355
-3.08188
-3.11611
-3.15392
-3.19314
-3.23197
-3.26901
-3.30323
-3.33394
-3.3607
-3.38328
-3.40157
-3.41559
-3.42539
-3.43114
-3.4334
-3.15643
-3.15873
-3.16924
-3.18738
-3.21192
-3.24126
-3.27367
-3.30746
-3.3412
-3.37367
-3.40397
-3.43143
-3.4556
-3.47619
-3.49304
-3.50609
-3.51535
-3.52092
-3.52323
-3.28713
-3.29131
-3.30188
-3.31839
-3.33996
-3.36541
-3.39342
-3.42271
-3.45209
-3.48057
-3.50735
-3.53181
-3.55353
-3.57219
-3.58761
-3.59967
-3.60834
-3.61368
-3.616
-3.41584
-3.42141
-3.43196
-3.44716
-3.46635
-3.48864
-3.51305
-3.53855
-3.56423
-3.58922
-3.61286
-3.63461
-3.65406
-3.6709
-3.68493
-3.69602
-3.7041
-3.70917
-3.71147
-3.54307
-3.54964
-3.56009
-3.57418
-3.59141
-3.61111
-3.63251
-3.65483
-3.67732
-3.69928
-3.72015
-3.73946
-3.75684
-3.77199
-3.78471
-3.79486
-3.80234
-3.80713
-3.80938
-3.66922
-3.67646
-3.68674
-3.69985
-3.71542
-3.73294
-3.75182
-3.77143
-3.79118
-3.81051
-3.82894
-3.84607
-3.86157
-3.87517
-3.88667
-3.89592
-3.90281
-3.90731
-3.9095
-3.79461
-3.80226
-3.81227
-3.8245
-3.83863
-3.85429
-3.87101
-3.8883
-3.90569
-3.92272
-3.93901
-3.9542
-3.96801
-3.98019
-3.99056
-3.99896
-4.00529
-4.00948
-4.01162
-3.91949
-3.92733
-3.937
-3.94839
-3.96125
-3.97529
-3.99014
-4.00543
-4.02077
-4.0358
-4.0502
-4.06366
-4.07594
-4.08683
-4.09615
-4.10376
-4.10953
-4.11341
-4.11556
-4.04407
-4.0519
-4.06115
-4.07173
-4.08344
-4.09605
-4.10928
-4.12282
-4.13638
-4.14965
-4.16237
-4.17429
-4.1852
-4.1949
-4.20325
-4.21011
-4.21538
-4.21897
-4.22102
-4.16848
-4.17614
-4.18491
-4.1947
-4.20536
-4.21669
-4.22848
-4.24049
-4.25247
-4.26419
-4.27542
-4.28595
-4.29561
-4.30423
-4.31168
-4.31784
-4.32262
-4.32594
-4.32787
-4.29281
-4.30018
-4.30842
-4.31743
-4.32711
-4.33729
-4.34779
-4.35844
-4.36902
-4.37935
-4.38923
-4.39851
-4.40703
-4.41466
-4.42129
-4.4268
-4.43111
-4.43416
-4.43598
-4.41713
-4.42411
-4.43177
-4.44003
-4.44878
-4.4579
-4.46725
-4.47666
-4.48598
-4.49505
-4.50372
-4.51186
-4.51935
-4.52607
-4.53192
-4.53682
-4.5407
-4.54348
-4.54519
-4.54146
-4.54799
-4.55505
-4.56257
-4.57045
-4.57858
-4.58686
-4.59514
-4.60332
-4.61124
-4.61881
-4.62591
-4.63244
-4.63832
-4.64346
-4.6478
-4.65126
-4.65377
-4.65536
-4.66584
-4.67188
-4.67832
-4.6851
-4.69214
-4.69935
-4.70663
-4.71388
-4.72099
-4.72787
-4.73443
-4.74057
-4.74622
-4.75132
-4.7558
-4.7596
-4.76267
-4.76492
-4.76639
-4.7903
-4.79581
-4.80162
-4.80768
-4.81391
-4.82023
-4.82657
-4.83285
-4.83898
-4.84489
-4.85051
-4.85577
-4.86061
-4.86498
-4.86884
-4.87213
-4.87482
-4.87681
-4.87815
-4.91486
-4.91983
-4.925
-4.93033
-4.93576
-4.94123
-4.94668
-4.95204
-4.95725
-4.96226
-4.967
-4.97144
-4.97552
-4.97922
-4.98249
-4.9853
-4.98761
-4.98935
-4.99054
-5.03958
-5.04398
-5.0485
-5.0531
-5.05774
-5.06238
-5.06696
-5.07144
-5.07578
-5.07993
-5.08386
-5.08752
-5.09089
-5.09395
-5.09666
-5.099
-5.10094
-5.10243
-5.10347
-5.1645
-5.1683
-5.17214
-5.176
-5.17985
-5.18366
-5.1874
-5.19104
-5.19454
-5.19788
-5.20103
-5.20396
-5.20665
-5.2091
-5.21127
-5.21315
-5.21472
-5.21595
-5.21683
-5.28966
-5.29282
-5.29595
-5.29905
-5.3021
-5.30509
-5.308
-5.31081
-5.3135
-5.31606
-5.31845
-5.32068
-5.32273
-5.32458
-5.32622
-5.32765
-5.32885
-5.32981
-5.33051
-5.41509
-5.41759
-5.41999
-5.42231
-5.42455
-5.42671
-5.42879
-5.43079
-5.43268
-5.43446
-5.43613
-5.43767
-5.43907
-5.44034
-5.44145
-5.44242
-5.44324
-5.44391
-5.44442
-5.54089
-5.54277
-5.54445
-5.54599
-5.54742
-5.54875
-5.55
-5.55117
-5.55226
-5.55326
-5.55419
-5.55503
-5.55578
-5.55643
-5.55699
-5.55744
-5.55782
-5.55814
-5.55841
-5.66669
-5.6678
-5.66867
-5.66938
-5.66996
-5.67045
-5.67086
-5.67121
-5.67151
-5.67177
-5.67198
-5.67215
-5.67228
-5.67237
-5.67241
-5.67242
-5.67239
-5.67238
-5.6724
)
;

boundaryField
{
    leftWall
    {
        type            calculated;
        value           nonuniform List<scalar> 
50
(
2393.17
2331.87
2269.57
2205.58
2140.1
2073.1
2004.58
1934.56
1822.8
1664.78
1501.7
1334.71
1165.02
993.842
822.461
652.484
484.011
314.773
153.631
43.7906
-2.60575
-2.43572
-2.43026
-2.48104
-2.57081
-2.68078
-2.78812
-2.894
-2.99971
-3.10676
-3.21644
-3.32947
-3.4461
-3.56617
-3.68934
-3.81515
-3.94315
-4.07292
-4.20411
-4.33639
-4.46948
-4.60317
-4.73732
-4.87179
-5.00631
-5.14078
-5.27579
-5.41179
-5.54532
-5.66744
)
;
    }
    rightWall
    {
        type            calculated;
        value           nonuniform List<scalar> 
50
(
-1.62517
-1.68311
-1.73947
-1.7942
-1.84726
-1.89863
-1.94829
-1.99623
-2.06845
-2.15891
-2.2416
-2.31782
-2.3877
-2.45201
-2.51183
-2.56834
-2.6227
-2.67621
-2.73021
-2.78566
-2.84342
-2.90416
-2.96837
-3.03635
-3.10821
-3.18398
-3.26355
-3.34676
-3.4334
-3.52323
-3.616
-3.71147
-3.80938
-3.9095
-4.01162
-4.11556
-4.22102
-4.32787
-4.43598
-4.54519
-4.65536
-4.76639
-4.87815
-4.99054
-5.10347
-5.21683
-5.33051
-5.44442
-5.55841
-5.6724
)
;
    }
    lowerWall
    {
        type            calculated;
        value           nonuniform List<scalar> 
62
(
2422.6
2435.25
2451.82
2469.28
2484.41
2496.02
2503.47
2506.08
2503.08
2493.85
2478.16
2456.51
2430.77
2404.95
2386.42
2387.41
2427.24
2534.35
2740.68
3057.48
3456.36
3799.11
4039.78
4013.6
4028.32
4033.07
3982.02
3831.35
3540.49
3058.84
2341.28
-68.7827
-8.12937
-3.52403
-4.82919
-2.04375
-2.08704
-2.13752
-2.19651
-2.26836
-2.36674
-2.52466
-2.77599
-2.01432
-2.13763
-2.25948
-2.32828
-2.34041
-2.30701
-2.24508
-2.16776
-2.08434
-2.00107
-1.92195
-1.84946
-1.7851
-1.72973
-1.68378
-1.64736
-1.62055
-1.60345
-1.59574
)
;
    }
    atmosphere
    {
        type            calculated;
        value           nonuniform List<scalar> 
46
(
-5.74358
-5.76293
-5.7595
-5.75725
-5.7553
-5.75338
-5.75137
-5.74921
-5.74692
-5.74453
-5.74211
-5.73974
-5.73748
-5.73541
-5.73358
-5.73203
-5.73078
-5.72987
-5.7293
-5.72907
-5.72904
-5.72904
-5.72904
-5.72904
-5.72904
-5.72904
-5.72904
-5.72904
-5.72904
-5.72904
-5.72904
-5.72904
-5.72904
-5.72904
-5.72904
-5.72904
-5.72904
-5.72904
-5.72904
-5.72904
-5.72904
-5.72904
-5.72904
-5.72904
-5.72904
-5.72904
)
;
    }
    defaultFaces
    {
        type            empty;
    }
}


// ************************************************************************* //
