/*--------------------------------*- C++ -*----------------------------------*\
  =========                 |
  \\      /  F ield         | OpenFOAM: The Open Source CFD Toolbox
   \\    /   O peration     | Website:  https://openfoam.org
    \\  /    A nd           | Version:  9
     \\/     M anipulation  |
\*---------------------------------------------------------------------------*/
FoamFile
{
    format      ascii;
    class       volVectorField;
    location    "9.35";
    object      U;
}
// * * * * * * * * * * * * * * * * * * * * * * * * * * * * * * * * * * * * * //

dimensions      [0 1 -1 0 0 0 0];

internalField   nonuniform List<vector> 
918
(
(2.47628 -0.13894 0)
(0.108704 0.722546 0)
(0.178751 1.15337 0)
(2.31834 0.153729 0)
(-0.0548309 1.24896 -1.21997e-19)
(-0.0924034 0.643931 -5.35818e-18)
(0.524237 0.845834 -3.13377e-19)
(0.292581 0.163113 -3.02274e-20)
(3.00616 -0.019585 0)
(-0.0113151 0.50014 0)
(-0.0198685 0.635174 0)
(0.610935 0.00566585 0)
(0.0107054 0.439105 0)
(-0.00290583 0.421732 0)
(0.0154252 0.348708 -1.325e-18)
(-0.00331824 0.744252 -9.34737e-20)
(0.331455 0.0782252 2.17116e-18)
(0.0787605 0.662092 -2.34306e-19)
(1.52899 0.128578 0)
(-0.028768 0.743759 0)
(0.207078 0.166952 -1.28397e-18)
(3.08302 -0.397408 0)
(2.92443 -0.506021 0)
(1.86111 -0.181126 0)
(0.523943 0.0396112 0)
(-0.0251605 0.521453 0)
(-0.00135388 0.494037 1.88076e-18)
(-0.0198899 1.51585 0)
(0.0932181 3.04239 0)
(0.178711 1.87399 0)
(-0.026867 3.07295 0)
(0.0300897 1.60373 9.37989e-20)
(0.0238186 0.672225 0)
(-0.147425 0.775094 -2.04868e-22)
(-0.193914 1.0291 4.45814e-18)
(-0.0415772 1.04471 0)
(0.743337 -0.00614313 0)
(0.168945 0.258056 6.72246e-19)
(0.980084 1.49904 6.86829e-19)
(0.640389 0.776297 -5.44497e-19)
(0.791589 1.57124 6.60372e-20)
(0.414677 0.855012 -3.40654e-19)
(0.589501 0.326995 2.97282e-20)
(0.316617 0.163207 0)
(0.941081 0.554486 0)
(0.568889 0.32496 1.33613e-19)
(0.275929 0.173703 -1.37107e-19)
(0.871187 -0.0555495 0)
(3.02784 -0.00175544 0)
(3.00685 0.0178399 0)
(3.20085 -0.417788 0)
(3.04288 -0.0742669 0)
(3.03116 -0.0388769 0)
(0.0160263 0.900704 -1.1465e-18)
(-0.0527508 1.01657 0)
(0.00311471 0.478071 0)
(-0.0340048 1.03364 0)
(-0.0145061 0.51253 0)
(-0.00295623 0.847472 0)
(-0.0526727 1.19224 0)
(-0.0124355 0.584422 0)
(-0.0310009 1.25737 0)
(-0.0090413 0.674815 0)
(0.786088 0.0111872 0)
(1.1795 -0.00277665 0)
(0.622442 0.0118523 0)
(1.13977 0.0165468 0)
(0.577406 0.00776327 0)
(0.225406 0.921982 1.97687e-18)
(0.0985379 1.2081 0)
(0.176302 1.06604 0)
(0.0331901 0.755774 2.21919e-23)
(0.0372233 0.498055 -2.95657e-18)
(0.0194616 0.747943 0)
(0.00595416 0.422033 0)
(-0.000718954 0.734576 4.56711e-24)
(0.000696489 0.414834 0)
(-0.0170101 0.743285 0)
(-0.0130141 0.428112 0)
(0.0542092 0.66897 0)
(0.0522363 0.474353 0)
(0.011156 0.632586 1.25276e-18)
(0.00239194 0.34818 0)
(-0.0392303 4.5856 0)
(0.0101686 1.40899 9.28002e-20)
(-0.00896607 0.758562 -1.18835e-19)
(0.672513 0.159191 -7.57402e-19)
(0.339018 0.0678793 -7.34473e-19)
(0.684226 0.179582 -2.27479e-18)
(0.338238 0.101449 -1.46525e-18)
(0.0792486 0.629627 0)
(0.181178 1.34071 1.96478e-19)
(0.181037 0.745796 -3.13581e-19)
(2.06063 0.260804 0)
(1.10729 0.118377 0)
(3.03313 0.103864 0)
(3.10394 0.446034 0)
(2.83928 0.377385 -1.01411e-17)
(2.57813 0.361292 7.78138e-18)
(-0.0670689 1.37086 0)
(-0.00858353 0.686186 0)
(-0.0116473 2.05788 0)
(-0.0556196 1.46473 0)
(-0.0503692 0.737405 0)
(0.465395 0.316408 4.06374e-19)
(0.238872 0.174334 0)
(2.29594 -0.266486 0)
(1.32359 -0.119329 0)
(1.09443 0.0108833 0)
(1.03484 0.0174157 0)
(0.551048 0.00946931 0)
(1.00757 0.0552996 0)
(0.843757 0.0710451 0)
(0.353432 0.0288151 3.38131e-18)
(-0.00550985 0.451273 1.79592e-18)
(-0.0272888 0.784987 0)
(-0.0482264 0.848676 0)
(-0.0154481 0.46101 0)
(0.000129035 0.839722 1.8347e-18)
(6.88077e-05 0.487525 0)
(-0.00547948 0.845554 -5.64618e-18)
(-0.00488645 0.496761 1.9049e-18)
(0.0717924 3.72763 0)
(0.0666199 4.13233 0)
(-0.013043 1.36839 -2.11183e-21)
(-0.0110978 1.32868 0)
(-0.00800489 0.721727 0)
(1.40746 0.0344872 0)
(0.758743 0.0151457 0)
(0.71085 0.0141217 0)
(1.4142 -0.0330835 0)
(0.772574 -0.00891178 0)
(0.338091 0.503301 -8.4406e-19)
(0.164156 0.243619 0)
(0.341184 0.534202 9.46154e-20)
(0.171311 0.281579 0)
(1.21949 1.36684 1.75414e-19)
(0.763236 0.729188 -4.11191e-19)
(0.412435 1.44066 0)
(0.606467 1.54129 0)
(0.303779 0.824126 0)
(0.151403 0.368914 -4.46983e-19)
(0.646166 0.298419 0)
(0.332919 0.142984 4.02911e-19)
(1.3975 1.28271 0)
(1.55177 1.14339 0)
(0.855589 0.650771 4.80182e-19)
(1.69561 0.93231 0)
(1.04509 0.429634 2.25653e-20)
(1.47156 0.00785786 0)
(1.50009 -0.0294138 0)
(0.80126 -0.00453491 0)
(1.95008 -0.199892 0)
(1.65023 -0.148311 0)
(1.0519 -0.0890381 0)
(3.06127 0.164807 0)
(3.03105 0.0687318 0)
(3.01022 0.0531239 0)
(0.0299632 1.60466 6.0819e-19)
(0.0152067 0.832846 0)
(0.0144327 1.68494 1.08086e-18)
(0.00111683 0.930568 -9.72913e-19)
(0.0628486 1.18831 1.97401e-19)
(0.0465738 1.03034 0)
(0.0383642 0.551995 0)
(-0.0326317 1.06926 0)
(-0.00920856 0.553092 0)
(0.014824 1.57637 -4.46702e-21)
(-0.0185971 0.848917 0)
(-0.0524211 1.53879 -2.27905e-19)
(-0.0156696 0.79789 4.41053e-19)
(-0.0051392 1.10187 0)
(0.00941606 1.1217 0)
(-0.00145281 0.572328 0)
(0.00496721 1.27717 0)
(-0.000843839 0.673273 0)
(1.45939 -0.00463808 0)
(0.783959 0.00752079 0)
(1.43371 0.0324457 0)
(0.758655 -0.000816405 0)
(0.677816 0.00496197 0)
(1.26752 0.0159969 0)
(1.20979 0.0467172 0)
(0.66295 0.0150606 0)
(-0.0058016 1.42077 -1.71903e-20)
(0.000183972 1.37708 0)
(0.00481992 0.732923 0)
(0.00172864 0.417221 0)
(0.299734 0.862967 0)
(0.266415 0.418395 -2.89388e-19)
(0.000166323 0.638944 0)
(-0.00813773 0.368144 0)
(0.0310159 4.3895 0)
(-0.0215834 4.58993 0)
(0.00673305 4.5483 0)
(-0.0570562 3.26255 2.10627e-20)
(-0.0356575 4.47236 0)
(-0.030575 4.05117 0)
(0.00439788 0.791429 1.10766e-20)
(0.0134349 1.50586 1.6629e-19)
(-0.0331274 1.44896 1.22096e-19)
(-0.00715853 0.796906 0)
(0.697044 0.109777 1.162e-18)
(0.340608 0.0448681 -1.13882e-18)
(0.151122 1.15511 0)
(0.102379 0.585585 -2.70827e-19)
(0.119523 1.25356 -8.78441e-19)
(0.0518769 0.698363 8.73948e-19)
(0.809895 0.0239038 0)
(1.55776 0.0474183 0)
(1.71028 0.127516 0)
(0.920265 0.044428 0)
(0.00638517 1.29354 0)
(0.0259848 1.30303 0)
(0.00389864 0.689519 0)
(0.516385 0.337624 1.21844e-18)
(0.466324 0.332171 -1.40404e-18)
(0.25101 0.175908 0)
(1.90999 0.149146 1.15989e-19)
(1.12028 0.0909396 0)
(1.70472 0.116359 0)
(0.874744 0.0219666 0)
(0.705862 0.0862432 0)
(0.722442 0.0467029 -5.43794e-18)
(0.358228 0.0325332 2.01116e-18)
(0.00894908 0.806961 1.71396e-18)
(0.00216192 0.462389 4.08022e-20)
(-0.0108778 1.40842 -3.61415e-20)
(0.0061361 1.38675 1.37857e-18)
(-0.0149833 0.848955 6.35434e-20)
(-0.0119261 0.524486 -2.55266e-22)
(-0.107514 1.00068 -1.17528e-18)
(-0.0529602 1.3532 8.41437e-19)
(-0.0175323 1.35275 -1.37039e-18)
(1.41753 -0.0174763 0)
(1.43841 0.0197007 0)
(0.767322 -0.000537743 0)
(1.4537 0.0251318 0)
(1.36532 0.0460302 0)
(0.762504 0.0201418 0)
(1.30474 -0.00259303 0)
(1.3216 -0.00629816 0)
(0.696913 -0.00131751 0)
(0.319205 0.496393 -9.23162e-19)
(0.169037 0.254381 0)
(0.163718 0.321986 1.38332e-19)
(0.322473 0.612799 1.13337e-18)
(0.321958 0.575343 -6.71065e-19)
(0.163855 0.295555 1.31149e-18)
(0.288527 0.747331 2.20141e-18)
(0.153372 0.396082 3.97022e-19)
(0.67616 0.227176 1.55224e-18)
(0.664731 0.27032 4.03009e-19)
(0.336877 0.122618 7.56701e-19)
(1.88043 0.698997 -6.14195e-19)
(1.14334 0.328098 -7.15421e-19)
(-0.0364451 1.68444 4.65479e-19)
(-0.0128135 0.913791 0)
(1.58851 0.0224536 0)
(1.51017 0.0638178 0)
(0.845636 0.0259711 0)
(-0.00356091 1.38473 0)
(0.00506846 0.72958 2.52116e-18)
(0.00464913 0.731253 0)
(0.00206934 0.415099 -2.46765e-18)
(-0.0102854 1.38627 6.02043e-19)
(-0.00947832 1.4225 0)
(0.352735 0.511867 2.60149e-19)
(0.377382 0.573212 -8.70172e-19)
(0.180119 0.270434 7.87468e-19)
(-0.0257413 0.766885 -1.68359e-18)
(-0.0255895 0.689863 0)
(-0.0152944 0.412567 0)
(0.0282236 1.49961 -1.28041e-20)
(0.0301204 1.5253 -3.67637e-19)
(0.0162183 0.797012 -1.55948e-20)
(0.216598 1.06728 8.9549e-19)
(0.12144 0.521784 -5.95887e-19)
(0.0090275 1.49494 7.32728e-19)
(0.0537648 1.36805 -8.18284e-19)
(0.025036 0.769422 3.58663e-20)
(0.00738324 1.36612 -3.85134e-18)
(-0.000330804 1.39327 4.46006e-18)
(0.00375558 0.829758 1.7521e-18)
(-0.0138981 0.805013 -1.74556e-18)
(-0.00432603 0.481369 -1.7578e-18)
(-0.010679 1.41684 -4.54897e-18)
(-0.0152598 1.40031 4.63925e-18)
(0.298884 0.70381 0)
(0.31271 0.662025 -2.31091e-18)
(0.15857 0.346122 1.00041e-18)
(0.290765 0.825348 1.1949e-18)
(0.143245 0.443183 -1.84372e-18)
(2.02401 0.313894 4.19865e-19)
(2.01254 0.534234 0)
(1.1971 0.215813 -4.0701e-19)
(-0.0723352 1.6028 -4.85383e-21)
(-0.0173411 1.66402 0)
(-0.0171699 0.90571 0)
(0.230419 0.970169 -3.24872e-19)
(0.254507 0.895355 -7.11841e-19)
(0.131527 0.47833 1.33455e-18)
(3.16433 -0.442997 0)
(3.34724 -0.41482 1.81544e-18)
(0.07707 3.63128 0)
(0.0531719 3.00458 0)
(3.15928 0.24978 1.41719e-20)
(3.12361 0.506161 3.71716e-18)
(0.0355494 3.3225 -2.82724e-20)
(0.0155838 2.58036 0)
(-0.0394984 1.19717 1.576e-18)
(0.206038 1.35061 0)
(3.40063 1.58863 -3.31287e-19)
(3.17483 0.272196 -2.96197e-20)
(3.14743 -0.119245 0)
(3.10046 -0.000570906 3.57252e-22)
(0.0363851 2.65421 0)
(0.140469 3.29145 0)
(-0.0692777 2.66874 0)
(-0.0360408 3.40628 3.1981e-19)
(-0.0336734 3.46082 2.01216e-19)
(2.65017 0.0441083 -1.3416e-20)
(3.03731 0.027893 0)
(3.13901 0.0817264 0)
(-0.0317979 4.54986 0)
(-0.0397485 2.96874 0)
(-0.0732282 3.11289 0)
(0.640092 3.11731 2.75298e-19)
(3.33873 -0.422688 0)
(3.01107 -0.345981 0)
(3.1699 -0.0532452 2.2805e-18)
(3.29268 -0.328861 -2.74599e-18)
(3.10381 -0.125891 0)
(-0.0409617 4.4982 0)
(0.0253314 4.0486 0)
(0.0235708 4.31718 0)
(-0.0278468 3.27832 0)
(-0.0113129 3.03858 0)
(-0.0367841 2.63907 0)
(2.97081 -0.00436509 0)
(2.8543 0.047393 -1.80215e-20)
(2.19419 2.9969 -3.38321e-19)
(3.15693 0.0442557 -2.28154e-18)
(3.19038 0.278019 2.77317e-18)
(3.0828 0.117217 0)
(3.39569 0.328446 2.09036e-18)
(3.35711 0.484171 -2.71034e-18)
(3.0714 0.418276 0)
(-0.0430534 3.2257 0)
(0.0173267 3.16306 8.6532e-20)
(-0.0233282 2.48654 -6.1351e-20)
(3.66023 0.53955 2.28529e-18)
(3.43965 0.199543 0)
(-0.146655 1.27189 -2.19511e-18)
(-0.0557969 0.881006 -1.36933e-19)
(-0.073858 1.3422 3.02646e-18)
(-0.0286469 1.27449 -9.11573e-19)
(0.00549851 1.09463 0)
(-0.0266608 1.23909 7.03934e-19)
(-0.112766 1.38784 2.17536e-18)
(-0.0571325 1.34078 -1.33126e-18)
(-0.0772972 1.32044 0)
(1.36873 0.629663 0)
(1.25592 0.724523 0)
(3.48557 1.98642 9.73989e-19)
(2.98038 1.89536 -1.21807e-18)
(3.77194 1.66767 0)
(3.31854 1.13214 0)
(3.34993 0.279902 -3.92273e-18)
(2.89986 0.172682 4.84714e-18)
(3.35046 -0.156229 0)
(2.85312 -0.0766575 0)
(3.43643 0.0423685 0)
(3.59386 0.144362 0)
(3.28683 0.11953 0)
(3.55049 0.297999 0)
(3.4085 0.292715 0)
(3.3276 0.2177 0)
(0.0793121 2.87183 0)
(0.0234116 2.16925 0)
(0.111695 3.11348 0)
(0.0920708 2.26891 0)
(0.193234 3.58411 0)
(0.131386 2.68579 -5.60705e-19)
(0.0369257 3.59151 0)
(0.00219869 3.00204 4.06919e-19)
(-0.0345479 3.15872 -5.21247e-19)
(-0.0714025 2.95606 0)
(-0.0355104 2.36381 0)
(-0.0904049 3.04419 0)
(-0.0590767 2.17333 0)
(-0.142151 4.66942 -2.50064e-19)
(-0.091604 3.83 2.82003e-19)
(-0.0861671 3.70938 3.146e-19)
(-0.0560873 2.92881 0)
(-0.112969 3.68865 -4.63771e-19)
(-0.0418587 3.09597 -2.97467e-19)
(-0.114743 4.69571 1.9558e-19)
(-0.117058 4.35131 -3.56426e-19)
(-0.0927173 4.23635 -3.85788e-19)
(3.04647 0.0817801 3.36368e-18)
(2.30158 0.0303869 -4.23636e-18)
(2.9107 0.124903 -3.33331e-18)
(2.2341 0.0691605 4.16426e-18)
(3.36056 0.0234579 0)
(2.63554 -0.00377172 0)
(3.43875 0.0846603 0)
(3.30907 0.0152107 0)
(2.69328 0.00724296 0)
(3.65455 0.228696 0)
(3.41893 0.089419 0)
(2.83954 0.0535431 0)
(-0.00287957 4.18815 -1.20776e-20)
(-0.0362449 4.55569 0)
(-0.0391522 4.41666 0)
(-0.0669879 3.37513 8.89727e-20)
(-0.0353464 2.66981 -3.50519e-21)
(-0.0730078 4.60487 1.17038e-19)
(-0.0836044 4.45557 -1.18266e-19)
(-0.0767308 4.04756 0)
(-0.0513225 3.98588 0)
(-0.0228913 4.0895 0)
(-0.0728448 3.43282 0)
(-0.0431537 2.48637 0)
(0.92248 3.66326 -6.2863e-19)
(0.909007 2.85602 -1.84497e-19)
(0.434997 2.09727 -2.2959e-19)
(0.252022 2.33422 7.00348e-19)
(0.984044 4.19619 2.65408e-19)
(3.43251 -0.168114 0)
(3.32182 -0.25695 0)
(2.88258 -0.189743 0)
(3.47031 -0.06497 0)
(3.34581 -0.148198 0)
(3.44889 -0.261381 0)
(3.51943 -0.283976 0)
(3.57933 -0.281665 0)
(3.2275 0.0916581 3.6243e-18)
(2.55818 0.0637788 -4.58286e-18)
(3.10101 0.104549 -3.5677e-18)
(2.51517 0.0554003 4.43917e-18)
(2.18354 3.36522 0)
(1.70285 2.9131 -4.63283e-19)
(2.5069 3.2925 -4.18247e-19)
(2.31268 2.48323 5.55812e-19)
(0.812231 1.27226 2.75002e-18)
(1.50225 0.216143 1.3511e-18)
(3.68931 0.293473 0)
(3.85161 0.556134 -1.86207e-18)
(3.26293 0.237455 -8.28857e-20)
(3.74037 0.419302 0)
(0.277473 1.33214 1.8215e-18)
(0.00495885 1.21121 -2.91679e-18)
(0.0829524 0.776655 1.63911e-18)
(0.306819 0.482588 -7.58706e-19)
(0.20661 1.41509 8.82889e-19)
(0.0635126 1.2516 0)
(0.0665108 1.10531 -1.14773e-18)
(0.22189 1.46627 -4.15007e-18)
(0.365189 1.59185 0)
(0.00838055 1.29 1.21029e-19)
(-0.00998829 1.45727 -1.3561e-18)
(-0.041363 1.30299 1.97148e-18)
(-0.0579476 1.41761 0)
(-0.0208432 1.38198 0)
(0.713901 1.10071 0)
(2.50169 2.49724 -1.07367e-18)
(2.5814 2.1296 4.06397e-19)
(2.72389 2.82672 0)
(3.13808 3.00812 -4.00145e-19)
(3.09569 2.36197 2.79005e-20)
(0.862442 0.635006 -1.84606e-18)
(1.64484 0.723994 -1.6847e-20)
(1.30458 0.477712 8.80127e-19)
(1.36094 0.894651 6.02153e-20)
(1.00732 0.677786 -2.39849e-18)
(1.55249 0.755007 0)
(2.09188 1.14558 1.47028e-18)
(2.13067 1.05774 0)
(1.50101 0.836403 0)
(1.13311 0.585369 0)
(3.37141 2.15989 1.01199e-18)
(3.89822 0.741236 -1.87887e-18)
(3.79043 1.18827 0)
(3.47714 0.740642 0)
(1.46422 0.380046 1.34441e-18)
(3.28467 1.84361 -8.57067e-19)
(2.90016 1.67414 1.5555e-18)
(3.75519 1.35789 -1.84397e-18)
(3.10001 0.113395 2.46759e-18)
(3.1697 0.180009 -2.58279e-18)
(2.66372 0.091154 0)
(3.30446 -0.0410801 0)
(3.19958 -0.0851891 -2.37093e-18)
(2.62973 -0.0325953 2.35006e-18)
(3.95725 0.0897121 0)
(3.76223 0.142959 0)
(3.69382 0.154454 0)
(3.58876 0.203853 0)
(3.8327 0.057573 0)
(3.72608 0.0511666 0)
(-0.050881 2.60925 0)
(-0.046389 2.11191 0)
(0.324926 4.0052 -4.21788e-19)
(0.643731 3.36221 -1.65793e-19)
(0.250999 3.08047 -3.7076e-19)
(0.336285 2.5929 5.93969e-19)
(0.429183 4.01712 0)
(0.425773 4.63019 -5.1775e-19)
(0.339712 4.68707 0)
(0.8697 4.35822 -3.81797e-19)
(0.64586 3.82356 9.7335e-19)
(0.551514 4.6158 4.54026e-19)
(0.702423 4.1794 -1.94287e-19)
(0.56292 4.31051 1.56306e-19)
(0.865944 4.60861 -6.7451e-19)
(0.705561 4.61865 0)
(0.809436 4.55108 5.12337e-19)
(-0.0256787 4.50383 -1.83767e-19)
(-0.0335448 3.59896 0)
(0.0721885 4.2386 5.53901e-19)
(-0.0294326 4.32944 0)
(-0.0165908 3.4313 -4.52512e-19)
(-0.0223613 2.88569 0)
(-0.134429 4.33382 -2.97862e-19)
(-0.141246 4.63393 0)
(-0.0849234 3.86893 0)
(-0.0750773 3.82941 3.34961e-19)
(-0.0643276 3.80284 1.0844e-20)
(-0.0484348 3.64698 6.31472e-19)
(-0.0456779 2.89354 4.11337e-21)
(-0.140449 4.635 1.84315e-19)
(-0.13383 4.67693 1.05494e-19)
(-0.0281672 2.7966 0)
(-0.00688451 2.3029 0)
(-0.0801895 4.72401 4.97025e-19)
(-0.0913337 4.32503 4.39213e-19)
(-0.120973 4.56264 -5.72148e-19)
(-0.0232668 4.70843 0)
(-0.0748653 4.40722 -3.18174e-19)
(-0.110926 4.02529 1.3167e-19)
(-0.0855887 4.12387 -4.20803e-20)
(-0.0948422 4.64919 -2.23878e-19)
(-0.0951959 4.15428 -6.98125e-20)
(-0.0958009 4.1079 3.10411e-19)
(2.87903 0.0585903 -2.36712e-18)
(2.86982 0.0460231 2.27659e-18)
(2.34698 0.0329459 0)
(3.5309 0.17726 3.05241e-18)
(2.73334 0.11838 -3.31228e-18)
(2.28523 0.0587202 3.61934e-18)
(3.70423 0.314882 -4.02676e-19)
(3.20607 -0.0502097 0)
(3.16663 -0.0160477 2.24192e-18)
(2.68587 -0.0134305 -2.22422e-18)
(3.86412 0.112797 -1.25574e-19)
(3.76153 0.0944778 1.08109e-18)
(4.14837 0.160014 0)
(4.22025 0.167195 -3.76014e-19)
(4.0192 0.13376 0)
(3.70626 0.145757 0)
(4.03319 0.0905319 0)
(3.71514 0.0834664 0)
(4.1827 0.10403 7.84656e-19)
(4.13716 0.0705892 -1.75133e-18)
(4.13416 0.104525 -8.50159e-19)
(4.18154 0.106678 -9.23209e-19)
(4.20253 0.214839 1.77911e-18)
(3.83799 0.1792 0)
(4.03781 0.286039 0)
(-0.0684348 4.45137 -1.38092e-19)
(-0.0170331 4.53433 -1.18785e-20)
(-0.057153 4.56522 0)
(-0.0458606 4.05695 1.40577e-19)
(-0.0385174 4.08749 2.27286e-20)
(-0.0446577 3.94645 -2.21427e-20)
(-0.0820405 3.40277 2.63052e-19)
(-0.142245 3.87617 -1.46313e-20)
(-0.108696 4.00995 7.55344e-20)
(-0.0719961 3.27812 -1.3272e-19)
(-0.0253791 2.81211 1.59031e-19)
(-0.0762047 4.45437 5.35037e-21)
(-0.0889584 4.59504 1.75341e-19)
(1.19079 4.32153 3.57986e-19)
(1.1042 4.48435 7.35463e-19)
(1.69312 3.42749 4.47924e-19)
(1.27796 3.54122 1.77356e-19)
(1.26589 2.87317 0)
(0.552476 2.36876 2.76676e-19)
(0.46879 1.78514 3.32814e-19)
(0.343122 2.60487 1.52129e-20)
(0.485202 3.213 -1.16653e-18)
(0.624333 3.17528 8.8082e-19)
(0.4336 2.4481 0)
(0.2954 2.00866 -5.60169e-19)
(0.245155 3.08916 1.39991e-18)
(0.264936 2.74656 -3.21362e-20)
(0.152775 2.30222 -1.75476e-18)
(0.614681 1.46902 1.47791e-18)
(0.592558 1.67274 0)
(3.58356 -0.0758463 8.65698e-20)
(3.61844 -0.254701 -7.27113e-20)
(3.72103 -0.218597 -1.26864e-18)
(3.75906 -0.127054 1.28454e-18)
(3.67607 -0.0498829 0)
(2.38413 3.81877 0)
(2.55736 3.86025 0)
(2.83181 3.56397 0)
(2.67673 3.59697 0)
(0.893181 1.46109 -4.0316e-21)
(0.641736 1.0902 0)
(1.73251 3.45913 1.51193e-20)
(1.41631 3.51431 0)
(1.35064 3.037 -1.29411e-18)
(1.43115 2.96913 8.30709e-19)
(1.85603 0.313755 0)
(1.49059 0.267456 3.54684e-19)
(2.47238 0.352775 2.20396e-18)
(1.84593 0.280642 -7.91011e-19)
(1.47193 0.110901 -2.5078e-18)
(4.23261 0.761802 -2.57939e-18)
(3.86344 0.971508 -3.52896e-20)
(3.34523 0.831735 2.07614e-18)
(3.88916 0.723428 1.8209e-18)
(3.17111 0.453625 -3.05774e-18)
(2.96388 0.444595 3.76589e-19)
(3.24947 0.673992 -8.2268e-19)
(3.03614 0.667968 0)
(3.78581 0.540986 1.54303e-18)
(4.09508 0.605727 0)
(4.09053 0.746874 0)
(4.01268 0.399026 8.27186e-19)
(4.26793 0.616974 -3.0371e-20)
(4.20224 0.689511 -4.54127e-19)
(4.13422 0.618568 0)
(3.63026 0.11867 1.7213e-18)
(4.18755 0.167916 2.14822e-18)
(4.09493 0.138202 -1.68248e-18)
(4.13991 0.222199 -1.44562e-18)
(3.75951 0.221253 -2.1605e-18)
(3.34583 0.360815 0)
(3.43052 0.28526 0)
(2.59841 0.183029 -1.26981e-18)
(2.15186 0.115012 4.78586e-19)
(4.04285 0.331643 1.94495e-18)
(4.26531 0.411184 -2.35585e-18)
(4.27167 0.465561 2.0763e-18)
(4.15454 0.466665 0)
(4.23871 0.316896 0)
(4.25023 0.305167 -9.81727e-19)
(4.20757 0.295805 -1.60027e-18)
(2.23301 3.51954 6.22917e-19)
(1.96559 3.29773 -6.87377e-19)
(1.50003 2.44907 -1.04131e-18)
(1.24265 2.08567 2.69361e-19)
(0.926554 1.44564 -2.65561e-18)
(0.831992 1.27409 9.30133e-19)
(0.629867 0.948147 -1.99602e-21)
(1.16693 1.86705 -1.14877e-18)
(1.19422 1.96894 1.71478e-18)
(1.02203 1.77703 5.10717e-19)
(0.823952 1.34958 -5.17417e-19)
(0.665997 1.12484 0)
(2.48993 2.64959 -1.1595e-19)
(0.775891 1.19003 8.68977e-19)
(0.998757 0.95074 1.1709e-18)
(0.819381 0.861075 1.3569e-18)
(1.15874 0.799307 1.35752e-18)
(1.55933 1.10957 -2.29595e-18)
(1.47307 1.13957 1.86061e-18)
(1.07401 0.82139 -6.8551e-19)
(0.875564 0.610623 1.51333e-18)
(1.69604 0.512634 -7.84626e-19)
(1.64036 0.537492 0)
(1.31006 0.429873 5.00082e-21)
(2.58881 1.55611 7.82428e-19)
(2.17957 1.32251 -2.8345e-18)
(1.78354 1.24941 1.07824e-20)
(1.75739 1.14892 0)
(2.88093 2.60292 8.77908e-19)
(3.39901 2.70918 1.04276e-18)
(3.2162 2.90025 -1.20184e-18)
(3.49356 2.71406 -4.31505e-19)
(3.41424 2.54889 -1.36872e-19)
(3.44364 2.74031 1.40766e-19)
(3.64382 2.22838 -1.68603e-18)
(3.64891 2.45146 4.04892e-19)
(3.71759 2.38383 0)
(3.71808 2.14691 -5.846e-19)
(4.03265 1.04747 5.84187e-19)
(4.23108 0.964879 1.00991e-18)
(4.26128 0.934943 1.01777e-18)
(4.02657 1.29698 -1.15581e-18)
(4.05103 1.31541 0)
(4.09867 1.20098 0)
(3.3767 1.22874 -1.43801e-20)
(2.49868 0.682522 0)
(2.79503 0.750235 9.36744e-19)
(3.2906 0.876327 -2.56309e-20)
(3.77032 1.51167 5.13122e-18)
(3.5726 1.74246 1.31754e-18)
(3.49829 1.53095 -1.34754e-18)
(3.09579 1.37884 1.44469e-18)
(2.83606 1.39047 8.29338e-19)
(2.40431 1.19165 -8.03243e-19)
(3.6708 -0.087118 1.98841e-18)
(3.8944 -0.0306465 0)
(3.85862 -0.06819 1.3444e-18)
(3.74231 -0.0609457 -2.9933e-18)
(3.98044 0.0349268 1.46438e-18)
(3.90498 0.111022 -3.088e-18)
(3.74076 0.12547 0)
(3.55782 0.171984 -6.29532e-19)
(3.81232 0.12151 1.60781e-18)
(3.6925 0.190043 -8.23836e-19)
(3.60109 0.169793 5.91631e-19)
(-0.0920996 2.71728 0)
(-0.0671138 3.49558 0)
(-0.0468651 2.57474 0)
(-0.0304407 2.08306 0)
(0.0184292 3.97078 6.93454e-19)
(0.112146 3.76325 -1.80975e-19)
(0.276525 4.61136 -2.34589e-19)
(0.216651 4.45203 2.47178e-19)
(-0.0591365 4.3033 -5.1155e-19)
(-0.0241735 4.33161 3.84025e-19)
(0.0632564 3.91026 2.0699e-20)
(-0.013949 3.61796 -4.77775e-19)
(-0.0328804 3.39253 -6.40723e-20)
(-0.0648487 3.73421 -5.84722e-20)
(0.1214 4.42422 -5.91642e-19)
(0.148692 4.24642 0)
(0.239143 4.58775 2.97831e-19)
(0.231754 4.66131 2.55398e-19)
(0.555167 4.41142 -2.27792e-19)
(0.384844 3.78172 0)
(0.434233 3.63502 -1.11859e-18)
(0.533322 3.99821 7.92725e-19)
(0.440688 4.52304 -6.18844e-19)
(0.332997 4.39402 3.32939e-19)
(0.269182 4.13191 0)
(-0.0698913 4.69081 -5.64653e-19)
(-0.102714 4.43116 -6.50174e-19)
(-0.110267 4.64887 0)
(-0.0552745 4.28383 -6.09409e-21)
(-0.0516112 4.56735 2.79361e-19)
(-0.143277 3.96111 4.63308e-20)
(-0.0708859 3.61103 -6.80603e-19)
(-0.119496 4.01381 1.81931e-19)
(-0.174469 4.52485 2.41324e-19)
(-0.113585 4.35537 0)
(-0.0867857 3.99594 0)
(-0.0875222 3.08092 2.1073e-19)
(-0.0608743 3.78777 -6.5662e-20)
(-0.0871007 3.76512 0)
(-0.0890997 2.8662 1.66537e-19)
(-0.0470828 2.36465 -3.22211e-19)
(3.75706 0.0285038 0)
(3.72752 0.00386845 -2.03726e-19)
(4.17698 0.0608413 -1.44287e-18)
(4.08413 0.0396266 0)
(3.86943 0.0119492 0)
(4.14882 0.0315963 -1.221e-20)
(4.09953 0.0303043 2.38326e-18)
(4.00197 0.0744135 2.85046e-18)
(3.7601 0.113635 0)
(3.56359 0.105416 0)
(4.01634 0.0855209 1.42039e-18)
(3.70969 0.109317 0)
(3.48031 0.123672 0)
(-0.0923083 4.59161 0)
(-0.105122 4.59668 1.05647e-20)
(-0.0828926 4.62839 6.58626e-20)
(-0.0692535 3.95546 0)
(-0.114601 4.51362 1.13899e-19)
(-0.0735213 4.30064 -6.57285e-20)
(-0.0646969 4.06672 0)
(1.37097 4.18852 0)
(1.15476 4.53246 -1.31188e-18)
(1.17327 4.45508 0)
(1.51489 4.4384 1.50387e-18)
(1.54131 4.07665 0)
(1.44737 4.32313 -6.16467e-19)
(1.04238 2.32574 -3.42808e-20)
(0.737025 1.71183 -1.76203e-18)
(0.615572 1.27934 2.15003e-18)
(0.726683 1.89928 4.00333e-19)
(0.993504 2.5012 0)
(1.0612 2.45758 0)
(0.740211 1.75274 0)
(0.54973 1.38246 -1.40781e-18)
(1.19366 3.81087 -9.88354e-19)
(1.135 3.05948 -2.36891e-19)
(1.32644 3.46279 1.93744e-19)
(0.604819 2.09439 0)
(0.632431 2.00233 0)
(0.471896 1.62066 -3.95731e-19)
(0.965023 2.78767 0)
(2.64951 3.54227 0)
(2.40474 3.04703 -1.46283e-18)
(2.55693 3.04702 -8.63102e-20)
(2.42166 3.42284 0)
(2.31333 3.19618 2.23367e-18)
(3.23515 3.04675 -3.93295e-19)
(3.06769 3.26731 0)
(3.05506 3.09554 6.37967e-19)
(2.82376 3.37983 0)
(2.84855 3.18386 0)
(1.25789 2.09623 -9.39371e-19)
(1.46607 2.50134 -7.05241e-19)
(1.78861 3.06331 1.21484e-18)
(1.72966 3.04502 -3.65336e-19)
(1.10529 1.90427 0)
(1.24418 2.29591 4.7491e-19)
(0.751214 1.3494 -7.22723e-19)
(0.607843 1.09369 -4.62256e-22)
(1.93048 3.73246 0)
(2.18251 3.75539 -5.44748e-19)
(2.29386 3.95649 0)
(2.35779 0.529198 0)
(1.68689 0.349375 0)
(1.27244 0.286561 0)
(2.29005 0.56094 -1.47475e-18)
(1.71316 0.415269 8.23864e-19)
(2.1923 0.124617 -9.88842e-19)
(2.67759 0.288447 0)
(2.51946 0.294232 4.15388e-19)
(1.81965 0.132901 1.64073e-18)
(1.57165 0.0797015 -1.04161e-18)
(0.782769 1.62194 8.66675e-19)
(1.00883 1.8975 0)
(0.566585 1.49767 1.57899e-18)
(0.559346 1.66697 -1.4411e-18)
(0.807506 1.87764 -1.00179e-18)
(2.13366 2.52947 1.34799e-18)
(2.15246 2.77835 0)
(1.67471 1.76067 -2.79372e-19)
(2.09431 2.06349 1.75722e-18)
(1.45213 1.37039 -4.28389e-19)
(1.68462 1.38792 4.55607e-19)
(2.20474 1.5723 1.03275e-18)
(2.531 1.71812 0)
(2.3584 1.91473 0)
(2.10466 1.67434 0)
(3.90064 2.03665 3.90125e-19)
(3.74203 1.86004 -1.26975e-18)
(3.78625 1.99394 1.05297e-18)
(3.87457 1.73828 -1.01361e-18)
(4.102 1.63738 0)
(4.05464 1.7996 -3.00415e-19)
(2.917 1.17788 -1.91081e-18)
(3.03687 1.16831 -2.42649e-18)
(2.42636 1.07186 1.46711e-18)
(2.23449 0.963823 -1.43279e-18)
(2.55056 0.862753 -1.1865e-18)
(2.26949 0.801744 1.45908e-18)
(4.00809 0.0308061 -1.53159e-18)
(4.05233 0.0374428 3.13553e-18)
(3.7664 -0.0681006 1.90448e-18)
(3.78943 -0.0761064 -2.29105e-18)
(3.95727 0.00667693 0)
(4.05468 0.0187898 -3.73653e-18)
(0.0584877 4.70424 1.08187e-19)
(0.0286576 4.68311 0)
(0.151332 4.67968 9.66952e-19)
(0.172022 4.69976 -8.79839e-19)
(0.189358 4.6778 4.37218e-19)
(0.0826089 4.62628 0)
(-0.122523 4.69065 0)
(-0.125239 4.40599 -6.37012e-20)
(-0.121529 4.3652 5.7131e-20)
(-0.12668 4.47265 7.77561e-21)
(-0.119073 4.62573 -1.03974e-19)
(-0.101795 4.61556 5.61072e-20)
(1.84429 4.00597 -1.65251e-18)
(1.77945 4.01661 1.75073e-18)
(1.6267 4.36184 -8.64071e-19)
(1.65375 4.26562 7.66174e-20)
(2.19527 4.02248 0)
(1.79873 4.16275 -6.51524e-19)
(1.92664 3.90771 6.31782e-19)
(1.76099 4.32367 8.44018e-19)
(2.01354 4.17371 0)
(2.17164 4.05472 0)
(1.12457 3.67007 1.50258e-18)
(0.828378 2.87128 2.0363e-18)
(0.954133 3.05104 -1.39846e-18)
(0.747138 3.02861 -2.33415e-19)
(0.887648 3.7671 4.68818e-19)
(0.713439 3.40899 -1.13991e-18)
(0.776109 1.5275 -1.22692e-18)
(0.775069 1.37666 0)
(0.626666 1.16389 -1.3485e-18)
(1.14706 2.14694 0)
(1.12511 2.23294 0)
(1.42934 2.27068 -1.10211e-18)
(1.11961 2.09507 -1.04661e-18)
(1.07298 2.1115 1.11091e-18)
(1.11464 1.58797 0)
(1.50227 1.84386 -6.07425e-19)
(1.70491 2.20435 -8.60409e-19)
(1.48535 2.16145 0)
(0.929811 1.8801 7.2195e-19)
(0.844026 1.73245 0)
(2.93813 2.30643 -1.85468e-18)
(3.30643 2.45499 2.6191e-18)
(3.28362 2.18576 -2.60251e-18)
(2.67389 2.05943 -2.32469e-19)
(2.78424 1.9706 -9.79321e-19)
(1.32262 2.27711 8.04376e-19)
(1.37592 2.33666 -1.37231e-18)
(1.52117 2.41619 1.80889e-18)
(1.85016 2.63932 -1.17539e-18)
(1.93337 3.01137 -1.57737e-18)
(1.62116 2.57965 -1.1924e-19)
(1.68747 2.72084 1.38295e-18)
(1.86731 2.77757 9.74316e-20)
(2.05863 3.06672 6.54791e-19)
)
;

boundaryField
{
    wall-4
    {
        type            noSlip;
    }
    velocity-inlet-5
    {
        type            fixedValue;
        value           uniform (3 0 0);
    }
    velocity-inlet-6
    {
        type            fixedValue;
        value           uniform (0 1 0);
    }
    pressure-outlet-7
    {
        type            zeroGradient;
    }
    wall-8
    {
        type            noSlip;
    }
    frontAndBackPlanes
    {
        type            empty;
    }
}


// ************************************************************************* //
