/*--------------------------------*- C++ -*----------------------------------*\
  =========                 |
  \\      /  F ield         | OpenFOAM: The Open Source CFD Toolbox
   \\    /   O peration     | Website:  https://openfoam.org
    \\  /    A nd           | Version:  9
     \\/     M anipulation  |
\*---------------------------------------------------------------------------*/
FoamFile
{
    format      ascii;
    class       volScalarField;
    location    "8.4";
    object      nut;
}
// * * * * * * * * * * * * * * * * * * * * * * * * * * * * * * * * * * * * * //

dimensions      [0 2 -1 0 0 0 0];

internalField   nonuniform List<scalar> 
2268
(
9.33838e-06
1.10246e-05
1.33942e-05
1.49873e-05
1.61762e-05
1.71065e-05
1.78517e-05
1.84553e-05
1.89458e-05
1.93508e-05
1.96935e-05
1.99937e-05
2.02558e-05
2.04518e-05
2.05107e-05
2.03071e-05
1.97075e-05
1.88824e-05
1.77732e-05
1.6533e-05
1.52316e-05
1.30062e-05
9.03535e-06
2.15574e-05
8.92846e-05
0.000121086
0.0001413
0.000155966
0.000167308
0.000176361
0.000183678
0.000189559
0.000194222
0.000198051
0.000201209
0.000203711
0.000205278
0.000205225
0.000202429
0.000195293
0.000181888
0.000165866
0.000151372
0.000139705
0.000104194
2.8558e-05
2.58024e-05
0.000152837
0.000226444
0.000274346
0.000309059
0.000335702
0.000356769
0.000373624
0.000387081
0.000397736
0.000406333
0.000413261
0.000418584
0.00042173
0.000421261
0.000414731
0.000398976
0.000372927
0.000342247
0.000309594
0.000267774
0.000177846
3.39358e-05
2.89448e-05
0.00019759
0.000309842
0.000385672
0.000441361
0.000484273
0.000518202
0.000545307
0.000566937
0.000584073
0.000597747
0.000608586
0.000616683
0.000621248
0.000620303
0.00061054
0.000588004
0.000552221
0.000508936
0.000456493
0.000378938
0.000236704
3.85995e-05
3.14409e-05
0.000231199
0.000376856
0.000478675
0.000554645
0.000613624
0.000660424
0.000697888
0.000727848
0.000751655
0.000770485
0.000785247
0.000796018
0.000801873
0.000800549
0.000788375
0.000761083
0.0007179
0.000663472
0.000591548
0.000479368
0.000289383
4.3148e-05
3.35422e-05
0.000257934
0.000432249
0.000557675
0.000652672
0.000727026
0.000786307
0.000833923
0.000872124
0.000902565
0.000926561
0.00094521
0.000958591
0.000965716
0.000964242
0.000950477
0.000920142
0.000871534
0.000807599
0.000718112
0.000575231
0.000340826
4.82355e-05
3.5393e-05
0.000280165
0.000479316
0.000626061
0.00073868
0.0008275
0.000898663
0.000956045
0.00100225
0.00103918
0.00106827
0.00109076
0.00110676
0.00111526
0.00111397
0.00109938
0.00106738
0.0010153
0.000944024
0.000840533
0.000673609
0.000395924
5.51331e-05
3.70781e-05
0.000299369
0.000520363
0.000686393
0.000815234
0.000917522
0.000999858
0.00106652
0.00112039
0.00116359
0.0011977
0.00122398
0.00124268
0.00125276
0.00125209
0.00123744
0.00120492
0.0011514
0.00107546
0.000963284
0.000783396
0.000472039
6.6073e-05
1.06443e-05
1.58306e-05
1.84865e-05
1.95278e-05
2.00356e-05
2.02731e-05
2.02909e-05
2.02105e-05
1.98143e-05
1.91052e-05
1.81124e-05
1.68281e-05
1.5859e-05
1.57054e-05
1.53239e-05
1.44616e-05
1.26737e-05
1.05121e-05
9.80823e-06
3.39786e-05
0.000126801
0.000169956
0.000188821
0.00019709
0.000200207
0.0002005
0.000197879
0.000191747
0.000182052
0.000168656
0.000153128
0.000146701
0.000151179
0.000149508
0.000137816
0.000114299
7.73078e-05
2.37526e-05
3.71309e-05
0.000217277
0.000321076
0.000373931
0.000398812
0.000408821
0.000410591
0.000405586
0.000392818
0.000372963
0.000350189
0.000325785
0.000311732
0.000309575
0.000299118
0.000271369
0.000215771
0.000129751
2.86933e-05
4.01041e-05
0.000274679
0.000441147
0.000532577
0.000577787
0.000597206
0.000602093
0.000596117
0.000578734
0.000551585
0.000522568
0.000492887
0.000470632
0.000455826
0.000431594
0.000385525
0.000300559
0.000173014
3.27171e-05
4.39249e-05
0.000316639
0.000541176
0.000670103
0.000735832
0.000765378
0.000774256
0.000768413
0.000748108
0.000716305
0.000682653
0.000648327
0.000617373
0.000588497
0.000548738
0.000484043
0.000375447
0.000215738
3.61693e-05
4.9255e-05
0.000357743
0.000632944
0.000794327
0.000878163
0.000917084
0.000930006
0.000924888
0.000902956
0.000868152
0.000830679
0.000791472
0.000751626
0.00070901
0.000653788
0.000571226
0.000442462
0.000258654
3.93031e-05
5.76897e-05
0.000407403
0.000726279
0.000911897
0.00100946
0.0010559
0.00107225
0.00106793
0.00104514
0.00100829
0.00096737
0.000922991
0.000874406
0.000818991
0.000749127
0.000649804
0.000501913
0.000294866
4.25305e-05
7.14471e-05
0.00047986
0.000830255
0.00102785
0.00113337
0.00118477
0.00120345
0.00119958
0.00117619
0.00113783
0.00109359
0.00104389
0.000986962
0.000919911
0.000836442
0.000721321
0.000555055
0.000325065
4.54194e-05
3.94334e-05
0.000326344
0.000577725
0.000771202
0.000923485
0.00104545
0.00114432
0.0012249
0.00129044
0.0013433
0.00138522
0.00141726
0.00144002
0.00145254
0.00145306
0.00143914
0.00140783
0.00135582
0.00127783
0.00116201
0.000986126
0.000720612
0.000372547
4.22764e-05
0.000357064
0.000642509
0.000867085
0.00104564
0.00118949
0.00130701
0.00140373
0.00148322
0.00154799
0.00159999
0.0016404
0.0016698
0.00168746
0.00169209
0.00168224
0.00165615
0.00161131
0.00154263
0.00144106
0.00129405
0.00109219
0.0008468
4.58378e-05
0.000385595
0.000701521
0.000954024
0.0011545
0.00131553
0.00144795
0.00155807
0.00164956
0.00172501
0.0017866
0.00183579
0.001873
0.00189756
0.00190826
0.00190452
0.00188601
0.00185154
0.00179707
0.00171723
0.00160585
0.00146453
0.00131421
5.29177e-05
0.000403939
0.000751507
0.00103437
0.00125467
0.00142917
0.0015737
0.00169468
0.00179615
0.00188088
0.00195134
0.00200926
0.00205497
0.00208772
0.00210556
0.00210889
0.00209868
0.00207483
0.00203429
0.00197627
0.0018976
0.0018029
0.00171205
5.40029e-05
0.000405477
0.000794179
0.00110201
0.00133885
0.00152994
0.00168763
0.00181863
0.00192835
0.00202098
0.00209933
0.00216566
0.00221958
0.00225999
0.00228331
0.0022913
0.0022871
0.00227208
0.00224464
0.00220563
0.00215435
0.00209502
0.00203926
5.41688e-05
0.000325993
0.000768138
0.00111882
0.00138464
0.0016007
0.00177807
0.00192367
0.00204492
0.00214704
0.0022336
0.00230716
0.00236871
0.00241508
0.00244343
0.00245668
0.00246005
0.00245456
0.0024388
0.00241641
0.00238616
0.00234991
0.00231618
0.000273183
0.000525321
0.000863265
0.00117558
0.00143915
0.00166225
0.00185162
0.00201138
0.00214568
0.00225919
0.00235529
0.00243702
0.00250548
0.00255766
0.0025923
0.00261222
0.00262184
0.0026238
0.00261795
0.00260719
0.00259308
0.00257545
0.00255762
0.00029478
0.000588824
0.000925963
0.00123081
0.00149563
0.00172382
0.00192102
0.00209106
0.00223677
0.00236099
0.00246697
0.00255738
0.00263304
0.00269174
0.00273315
0.0027602
0.00277683
0.0027861
0.00278952
0.00278904
0.00278614
0.00278042
0.00277287
0.000294877
0.000589886
0.000956445
0.00127262
0.00154577
0.00178204
0.00198757
0.00216644
0.00232146
0.00245522
0.00257043
0.00266925
0.00275224
0.00281775
0.00286602
0.00290028
0.00292418
0.00294068
0.00295198
0.00295978
0.00296503
0.00296741
0.00296714
0.000294064
0.000589591
0.000975214
0.00130493
0.00158883
0.00183487
0.00204938
0.00223686
0.00240045
0.00254272
0.00266609
0.00277241
0.00286207
0.00293428
0.00298987
0.00303178
0.0030632
0.00308688
0.0031051
0.00311949
0.00313075
0.00313876
0.00314355
0.000295121
0.000600581
0.000989685
0.00133158
0.0016266
0.00188266
0.00210627
0.00230214
0.00247376
0.00262378
0.00275442
0.00286731
0.00296321
0.00304213
0.00310518
0.00315478
0.00319364
0.00322419
0.00324859
0.00326839
0.00328423
0.00329619
0.00330417
0.00029411
0.000597821
0.00100187
0.00135492
0.00166065
0.00192645
0.00215887
0.00236283
0.002542
0.0026991
0.00283635
0.00295534
0.00305722
0.00314266
0.00321286
0.00326975
0.00331558
0.00335247
0.00338234
0.00340664
0.0034261
0.00344081
0.00345062
0.000294872
0.000604123
0.00101269
0.0013762
0.00169203
0.00196715
0.00220806
0.00241975
0.00260599
0.00276964
0.00291299
0.00303781
0.00314535
0.00323685
0.00331355
0.00337704
0.00342913
0.00347166
0.0035063
0.00353441
0.00355671
0.00357334
0.00358409
0.000295389
0.000608235
0.00102283
0.00139604
0.00172149
0.00200554
0.00225458
0.00247363
0.0026665
0.0028362
0.00298519
0.00311539
0.00322829
0.00332521
0.00340759
0.00347678
0.00353431
0.00358173
0.0036205
0.00365182
0.00367639
0.00369438
0.0037056
0.000295038
0.000605418
0.00103183
0.00141492
0.00174968
0.00204228
0.00229904
0.00252505
0.00272409
0.00289936
0.00305349
0.00318856
0.00330624
0.00340798
0.00349514
0.0035691
0.00363119
0.00368274
0.00372502
0.00375907
0.00378552
0.00380458
0.00381615
0.000294154
0.000599325
0.00104058
0.0014334
0.00177717
0.00207794
0.00234197
0.00257441
0.00277912
0.00295946
0.0031182
0.00325756
0.00337936
0.00348516
0.00357635
0.00365421
0.00372002
0.00377498
0.0038202
0.00385658
0.0038847
0.00390479
0.00391681
6.94741e-05
0.000596762
0.00104945
0.00145185
0.00180439
0.00211291
0.0023837
0.00262203
0.00283187
0.00301672
0.0031795
0.00332254
0.00344779
0.0035569
0.00365132
0.00373235
0.00380118
0.00385895
0.00390664
0.00394507
0.00397476
0.00399599
0.00400877
0.000295468
0.000603414
0.00105842
0.00147048
0.00183154
0.0021474
0.00242445
0.00266809
0.0028825
0.00307129
0.0032375
0.0033836
0.00351165
0.0036234
0.00372038
0.0038039
0.00387518
0.00393527
0.00398511
0.00402543
0.00405675
0.00407935
0.00409329
6.94905e-05
0.000594413
0.00106769
0.00148943
0.00185872
0.0021815
0.00246431
0.00271271
0.00293112
0.00312327
0.00329232
0.00344088
0.00357114
0.00368494
0.0037839
0.0038694
0.00394266
0.00400474
0.00405654
0.00409874
0.00413185
0.00415615
0.00417174
0.00029437
0.000594724
0.00107733
0.00150866
0.0018859
0.00221521
0.0025033
0.00275592
0.00297778
0.00317271
0.00334404
0.00349452
0.00362646
0.00374183
0.00384233
0.00392943
0.00400439
0.00406828
0.00412198
0.00416619
0.00420137
0.00422782
0.00424564
0.000295315
0.00059752
0.00108735
0.00152808
0.00191303
0.00224848
0.00254139
0.00279773
0.00302249
0.00321967
0.00339277
0.00354468
0.00367786
0.00379442
0.00389617
0.00398464
0.00406117
0.00412687
0.00418261
0.00422909
0.00426676
0.00429589
0.00431657
0.000294512
0.000592949
0.00109748
0.00154765
0.00194004
0.00228127
0.00257854
0.00283813
0.00306526
0.00326422
0.00343862
0.00359157
0.00372567
0.00384317
0.00394599
0.00403578
0.00411393
0.00418159
0.00423967
0.00428885
0.00432955
0.00436201
0.00438628
0.000295776
0.000597208
0.00110806
0.00156731
0.00196689
0.0023135
0.0026147
0.00287707
0.00310612
0.00330641
0.00348176
0.00363544
0.00377025
0.00388857
0.00399246
0.00408367
0.00416366
0.00423363
0.00429451
0.00434694
0.00439134
0.00442788
0.00445655
0.000295873
0.000596699
0.00111875
0.0015871
0.00199353
0.00234513
0.00264982
0.00291455
0.00314511
0.00334637
0.00352238
0.00367662
0.00381204
0.00393121
0.00403631
0.00412921
0.00421144
0.00428423
0.00434852
0.00440493
0.00445383
0.00449529
0.00452924
0.000294968
0.00059293
0.00112968
0.00160695
0.00201988
0.00237605
0.00268383
0.00295053
0.00318229
0.00338425
0.00356074
0.00371545
0.00385155
0.00397175
0.00407838
0.0041734
0.00425842
0.0043347
0.00440316
0.0044644
0.0045187
0.00456604
0.00460621
0.00029488
0.000592484
0.00114101
0.00162681
0.00204581
0.00240614
0.00271663
0.00298498
0.0032177
0.00342021
0.00359713
0.00375238
0.00388934
0.00401089
0.00411951
0.00421724
0.00430577
0.00438636
0.00445991
0.00452695
0.00458766
0.00464188
0.00468927
0.000296045
0.000596838
0.00115278
0.00164658
0.00207117
0.00243524
0.0027481
0.00301787
0.0032514
0.00345443
0.00363186
0.00378786
0.003926
0.00404938
0.00416059
0.00426178
0.00435467
0.00444053
0.00452021
0.00459413
0.00466234
0.00472453
0.00478018
6.96687e-05
0.000593712
0.00116491
0.00166605
0.00209569
0.00246312
0.00277808
0.00304912
0.00328343
0.00348708
0.00366524
0.00382232
0.00396214
0.00408795
0.0042025
0.00430802
0.00440627
0.00449849
0.00458543
0.00466741
0.0047443
0.00481559
0.00488056
0.000296388
0.000602942
0.00117709
0.00168471
0.00211898
0.00248946
0.00280636
0.00307864
0.00331383
0.00351832
0.00369755
0.0038562
0.0039983
0.00412729
0.00424606
0.00435691
0.00446162
0.00456139
0.00465686
0.00474817
0.00483498
0.00491655
0.00499192
0.000295303
0.000602675
0.00118807
0.00170212
0.00214061
0.00251388
0.00283265
0.00310625
0.00334256
0.00354825
0.00372904
0.00388986
0.00403497
0.00416799
0.00429196
0.00440926
0.00452166
0.00463028
0.00473564
0.00483765
0.00493571
0.00502881
0.00511569
0.000295748
0.000603722
0.0011981
0.00171786
0.00216004
0.00253587
0.00285655
0.00313173
0.00336955
0.00357695
0.0037599
0.00392359
0.00407252
0.00421052
0.00434076
0.00446571
0.00458713
0.00470604
0.00482276
0.00493696
0.00504772
0.00515366
0.00525318
0.000295485
0.000608004
0.00120767
0.00173128
0.00217644
0.00255469
0.0028775
0.00315469
0.0033946
0.00360436
0.00379019
0.00395754
0.00411117
0.00425515
0.00439279
0.00452667
0.00465854
0.00478929
0.00491903
0.00504709
0.00517214
0.00529237
0.00540574
6.98026e-05
0.000609941
0.0012144
0.00174081
0.00218849
0.00256926
0.00289468
0.0031746
0.0034174
0.00363034
0.00381986
0.00399171
0.00415095
0.0043019
0.00444812
0.00459227
0.00473612
0.00488044
0.00502504
0.00516887
0.00531006
0.00544623
0.00557477
0.000296248
0.000613003
0.00121646
0.00174449
0.00219435
0.00257806
0.00290702
0.00319077
0.00343752
0.00365461
0.00384871
0.0040259
0.00419162
0.00435052
0.00450645
0.00466226
0.00481974
0.00497955
0.00514118
0.00530305
0.00546263
0.00561672
0.00576196
0.000296325
0.000610323
0.00121191
0.00173942
0.0021912
0.00257893
0.00291306
0.00320228
0.00345441
0.00367679
0.00387638
0.00405971
0.00423267
0.00440041
0.00456713
0.00473596
0.00490882
0.00508629
0.00526753
0.0054503
0.00563112
0.00580566
0.00596944
0.000296023
0.000602502
0.0011964
0.00172048
0.00217467
0.00256885
0.00291097
0.00320813
0.00346748
0.00369642
0.00390239
0.0040925
0.00427331
0.00445056
0.00462896
0.0048121
0.00500215
0.00519975
0.00540377
0.00561115
0.0058171
0.00601552
0.00620018
6.98516e-05
0.000587817
0.00116187
0.00167871
0.00213816
0.00254382
0.00289867
0.00320729
0.00347615
0.00371302
0.00392611
0.00412345
0.00431242
0.00449954
0.00469025
0.00488873
0.00509773
0.00531819
0.00554888
0.00578591
0.00602255
0.00624984
0.00645852
0.000295857
0.000553586
0.00108781
0.00159836
0.00207233
0.00249932
0.00287436
0.00319913
0.00348011
0.00372618
0.0039469
0.00415155
0.00434861
0.00454553
0.00474864
0.00496305
0.00519241
0.00543853
0.00570063
0.00597424
0.00625009
0.00651414
0.00675113
6.9891e-05
0.000452909
0.000936412
0.00145698
0.00196693
0.00243201
0.00283758
0.00318399
0.00347958
0.00373572
0.00396412
0.00417572
0.00438028
0.00458634
0.00480126
0.00503133
0.00528162
0.00555567
0.00585442
0.00617413
0.00650298
0.00681784
0.00708885
8.65626e-05
0.000252088
0.000673745
0.00123751
0.00181817
0.00234382
0.00279126
0.00316398
0.00347559
0.00374178
0.00397724
0.00419487
0.0044058
0.00461963
0.00484482
0.00508899
0.00535912
0.00566159
0.00600132
0.00637908
0.00678416
0.00717939
0.00748992
0.000187949
0.000119769
0.00036473
0.000962336
0.00164387
0.00224861
0.00274414
0.00314375
0.00347019
0.00374492
0.00398595
0.00420809
0.00442367
0.00464319
0.00487605
0.00513108
0.00541733
0.00574476
0.00612506
0.00657107
0.00708946
0.00764281
0.00798521
0.000413132
0.000137658
0.000172874
0.000726473
0.00150199
0.00217838
0.00271179
0.00313024
0.00346619
0.00374602
0.00399019
0.00421477
0.00443281
0.00465535
0.00489232
0.00515332
0.00544875
0.00579148
0.00620011
0.00670615
0.0073719
0.00833837
0.00861982
6.96197e-05
6.45545e-05
6.40125e-05
6.79336e-05
0.000652606
0.000621593
0.00062069
0.000647894
0.00122895
0.00120247
0.00120009
0.00122089
0.0016692
0.00165484
0.0016534
0.00166332
0.00201481
0.00200851
0.00200851
0.00201343
0.00230016
0.00229695
0.00229938
0.00230291
0.00255049
0.00254865
0.00254935
0.00255106
0.00276941
0.0027688
0.00276926
0.00277013
0.00296674
0.00296682
0.00296697
0.00296675
0.00314529
0.00314587
0.00314567
0.00314445
0.00330705
0.00330781
0.00330723
0.00330514
0.00345387
0.00345451
0.00345348
0.00345062
0.00358722
0.00358757
0.00358603
0.00358248
0.00370843
0.00370842
0.00370641
0.00370227
0.00381873
0.00381847
0.00381611
0.00381157
0.00391939
0.00391906
0.00391657
0.00391188
0.00401167
0.00401152
0.00400919
0.00400463
0.00409692
0.00409724
0.00409537
0.00409127
0.00417656
0.00417766
0.00417658
0.00417328
0.00425213
0.00425435
0.0042544
0.00425227
0.00432528
0.00432897
0.00433053
0.00432993
0.00439777
0.00440331
0.00440676
0.00440809
0.00447144
0.00447923
0.00448497
0.00448861
0.00454818
0.00455864
0.00456708
0.00457345
0.00462988
0.00464343
0.00465499
0.00466449
0.00471838
0.00473546
0.00475056
0.00476359
0.00481543
0.00483647
0.00485553
0.00487249
0.00492266
0.00494809
0.0049715
0.00499276
0.00504158
0.00507182
0.00509996
0.00512587
0.00517358
0.00520903
0.00524226
0.00527313
0.00531999
0.00536103
0.00539968
0.00543578
0.00548213
0.00552911
0.00557346
0.00561501
0.00566143
0.00571468
0.00576497
0.0058121
0.00585955
0.00591937
0.00597576
0.00602851
0.00607866
0.00614528
0.0062078
0.00626604
0.0063217
0.00639523
0.00646371
0.006527
0.00659284
0.00667311
0.00674696
0.00681441
0.00689821
0.00698443
0.00706226
0.00713207
0.00724694
0.00733682
0.00741566
0.00748451
0.00765232
0.00774021
0.00781402
0.00787605
0.00813172
0.00820486
0.00826238
0.0083082
0.00869868
0.0087324
0.00875621
0.00877381
0.000349837
0.000722548
0.00101923
0.0012089
0.00131812
0.00137395
0.00139483
0.00139109
0.00136731
0.00132688
0.00127722
0.00121885
0.00114946
0.00106588
0.000962404
0.000823518
0.000629988
0.00036504
4.83737e-05
0.000834897
0.00109252
0.00130842
0.00146093
0.00155571
0.00160588
0.00162318
0.00161583
0.00158859
0.00154385
0.00148659
0.00141713
0.00133327
0.00123123
0.00110439
0.000936842
0.000709608
0.000402343
5.01013e-05
0.0013012
0.00145485
0.00160062
0.00171195
0.00178419
0.00182178
0.00183072
0.00181648
0.00178315
0.00173317
0.00166846
0.00158848
0.0014914
0.00137222
0.00122373
0.001031
0.000774397
0.000431429
5.06355e-05
0.00169854
0.00178603
0.00188021
0.00195473
0.00200277
0.00202476
0.00202252
0.00199926
0.00195822
0.00190175
0.00182903
0.00173797
0.00162766
0.00149097
0.00132157
0.00110643
0.000822862
0.000445706
5.49287e-05
0.00203098
0.00208088
0.00213954
0.0021849
0.00221045
0.00221638
0.00220185
0.00216869
0.00211903
0.00205333
0.00196969
0.00186811
0.00174432
0.00158712
0.00139667
0.00115761
0.000845921
0.000440101
5.50105e-05
0.00231314
0.00233888
0.00237015
0.00239337
0.00240164
0.00239351
0.00236691
0.00232285
0.00226243
0.00218516
0.00208947
0.00197527
0.00184022
0.00167726
0.00147547
0.00122161
0.000890319
0.000452829
5.77434e-05
0.00255614
0.00256744
0.00257903
0.00258356
0.00257573
0.00255407
0.00251486
0.00245819
0.00238552
0.002297
0.00219256
0.00207359
0.00193176
0.0017568
0.0015468
0.00128743
0.000960989
0.000568218
0.000294556
0.00277159
0.00277201
0.00276837
0.00275739
0.00273588
0.00270141
0.00265
0.00258131
0.00249649
0.00239646
0.00228215
0.0021535
0.00200016
0.00181303
0.00159107
0.00132184
0.000982859
0.000549042
0.000295892
0.00296523
0.00295765
0.00294282
0.0029194
0.00288613
0.00283993
0.00277711
0.00269691
0.00259996
0.00248679
0.00235785
0.00221235
0.00204382
0.0018452
0.00161027
0.00133005
0.000982154
0.000542039
0.00029536
0.00314042
0.00312673
0.00310357
0.00307039
0.00302691
0.00297023
0.002897
0.00280601
0.0026972
0.00257046
0.0024253
0.00226012
0.00207152
0.00185749
0.00161022
0.00131968
0.000967283
0.00053842
0.000294801
0.003299
0.0032805
0.00325106
0.00321034
0.00315834
0.00309261
0.00301025
0.0029097
0.00279011
0.0026506
0.00248993
0.00230596
0.00209633
0.00186114
0.00159622
0.00129398
0.000943383
0.000538322
0.000295337
0.00344271
0.00342043
0.00338622
0.00333982
0.00328098
0.00320785
0.00311791
0.0030093
0.00288052
0.00273001
0.00255584
0.00235557
0.00212674
0.00186919
0.00158289
0.00126497
0.000911844
0.000528177
0.00029541
0.00357316
0.00354808
0.0035104
0.00345981
0.00339583
0.00331697
0.00322106
0.00310606
0.00297001
0.00281084
0.00262609
0.0024129
0.00216848
0.00189154
0.00158335
0.00124582
0.000884822
0.000514563
0.000295009
0.00369187
0.00366487
0.00362486
0.00357141
0.00350388
0.00342093
0.00332066
0.003201
0.00305976
0.00289451
0.00270245
0.00248039
0.00222506
0.00193405
0.00160746
0.00124931
0.000873276
0.000503249
0.000294835
0.00380044
0.00377228
0.00373094
0.00367582
0.00360614
0.00352064
0.0034176
0.003295
0.00315057
0.00298175
0.00278555
0.0025586
0.00229729
0.00199844
0.00166046
0.00128577
0.000887909
0.000490575
0.0002932
0.00390047
0.00387188
0.00383008
0.00377434
0.00370377
0.00361712
0.00351278
0.00338883
0.00324301
0.00307276
0.00287507
0.00264655
0.00238352
0.00208239
0.00174033
0.00135679
0.00093767
0.000494412
6.89516e-05
0.00399346
0.00396522
0.00392381
0.00386841
0.00379804
0.00371146
0.00360712
0.00348317
0.00333743
0.00316739
0.00297011
0.00274225
0.0024801
0.00217978
0.00183738
0.00144906
0.001011
0.000526053
0.0002944
0.00408088
0.00405381
0.00401364
0.00395949
0.00389031
0.00380485
0.00370159
0.00357873
0.00343415
0.0032654
0.00306959
0.00284337
0.00258287
0.00228365
0.00194037
0.00154574
0.0010886
0.000561339
7.00449e-05
0.00416428
0.00413922
0.00410113
0.00404909
0.00398199
0.00389854
0.00379722
0.00367626
0.00353357
0.00336669
0.00317271
0.00294815
0.00268881
0.00238942
0.00204299
0.0016394
0.00116357
0.0006023
7.15278e-05
0.00424526
0.00422306
0.00418791
0.0041388
0.00407457
0.00399389
0.0038952
0.0037767
0.00363629
0.00347146
0.0032792
0.0030558
0.00279657
0.00249533
0.00214353
0.00172882
0.00123364
0.000642441
7.48643e-05
0.00432555
0.00430708
0.00427569
0.0042303
0.00416967
0.00409238
0.00399684
0.00388117
0.0037432
0.00358035
0.00338942
0.00316643
0.00290614
0.0026015
0.00224259
0.00181517
0.00129943
0.000678441
7.80036e-05
0.00440697
0.00439311
0.0043663
0.00432537
0.00426898
0.00419562
0.00410361
0.00399099
0.00385548
0.00369436
0.00350425
0.00328082
0.00301836
0.00270902
0.00234173
0.0019006
0.00136473
0.000713914
8.11361e-05
0.00449142
0.00448304
0.00446161
0.00442584
0.00437427
0.0043053
0.00421712
0.00410766
0.00397452
0.00381481
0.00362492
0.00340024
0.00313457
0.00281937
0.00244274
0.0019878
0.00143103
0.000749772
8.45442e-05
0.00458084
0.0045788
0.00456351
0.00453355
0.00448734
0.00442314
0.00433902
0.00423278
0.00410187
0.0039432
0.00375295
0.0035262
0.00325631
0.00293444
0.00254777
0.00207799
0.00149946
0.000786847
8.82783e-05
0.00467714
0.00468227
0.00467385
0.0046503
0.00460992
0.00455083
0.00447096
0.00436797
0.00423912
0.00408114
0.00388994
0.0036604
0.0033856
0.00305604
0.00265819
0.00217244
0.00157111
0.000825995
9.22392e-05
0.00478213
0.00479524
0.00479436
0.00477777
0.00474364
0.00468995
0.00461451
0.00451478
0.00438785
0.00423026
0.00403772
0.00380475
0.00352409
0.00318575
0.00277545
0.00227245
0.00164701
0.000867835
9.64086e-05
0.00489754
0.00491936
0.00492662
0.00491748
0.00488996
0.00484194
0.00477107
0.00467467
0.00454964
0.00439226
0.00419796
0.00396092
0.0036735
0.00332522
0.00290112
0.00237932
0.00172813
0.000912892
0.000100751
0.0050249
0.00505609
0.00507202
0.00507073
0.00505014
0.00500803
0.00494193
0.00484898
0.00472587
0.0045686
0.00437225
0.00413062
0.00383562
0.00347623
0.00303684
0.00249447
0.00181545
0.000961691
0.000105286
0.00516562
0.00520675
0.00523176
0.00523862
0.00522521
0.00518922
0.00512808
0.00503877
0.00491774
0.00476064
0.00456216
0.0043156
0.00401233
0.00364073
0.00318444
0.00261941
0.00190999
0.00101453
0.000110264
0.00532095
0.00537245
0.00540683
0.00542203
0.00541593
0.00538623
0.00533027
0.0052449
0.00512626
0.00496964
0.00476922
0.00451768
0.00420569
0.00382087
0.00334602
0.00275595
0.00201302
0.00107181
0.000115987
0.00549203
0.00555417
0.00559801
0.00562157
0.00562282
0.00559952
0.00554899
0.00546794
0.00535224
0.00519673
0.00499494
0.00473877
0.00441796
0.00401914
0.00352406
0.00290631
0.00212619
0.0011345
0.000122566
0.00567994
0.00575278
0.00580594
0.00583766
0.00584613
0.00582925
0.00578441
0.00570821
0.00559625
0.00544285
0.00524078
0.0049809
0.00465172
0.00423851
0.00372164
0.00307326
0.0022517
0.00120403
0.00012996
0.00588579
0.00596908
0.00603112
0.00607052
0.00608585
0.00607529
0.00603639
0.0059657
0.00585856
0.00570874
0.00550809
0.00524621
0.00490993
0.0044826
0.00394263
0.00326039
0.00239225
0.00128192
0.000138196
0.00611082
0.0062039
0.00627393
0.00632016
0.00634171
0.00633719
0.00630441
0.00624
0.00613906
0.0059948
0.00579807
0.0055369
0.00519595
0.00475587
0.00419217
0.00347259
0.00255147
0.00136989
0.000147438
0.00635648
0.00645809
0.00653469
0.00658641
0.00661316
0.00661415
0.00658759
0.00653026
0.00643717
0.006301
0.00611158
0.00585515
0.00551362
0.00506393
0.00447716
0.00371686
0.00273469
0.00147041
0.000157909
0.00662453
0.0067326
0.00681357
0.00686885
0.00689935
0.00690504
0.00688461
0.00683516
0.00675172
0.00662667
0.0064489
0.00620279
0.00586706
0.00541366
0.00480701
0.0040036
0.00295035
0.00158745
0.000169896
0.00691708
0.00702834
0.00711056
0.00716681
0.00719914
0.00720834
0.00719372
0.0071528
0.00708088
0.00697029
0.00680936
0.00658089
0.00626022
0.00581318
0.00519457
0.00434867
0.00321249
0.00172766
0.000183879
0.00723649
0.00734607
0.00742534
0.00747925
0.00751103
0.00752225
0.00751283
0.00748082
0.00742203
0.00732923
0.00719084
0.00698887
0.00669593
0.00627124
0.00565683
0.00477674
0.00354601
0.00190359
0.00020077
0.00758498
0.00768595
0.00775696
0.00780467
0.00783321
0.00784471
0.00783956
0.00781642
0.00777188
0.00769968
0.00758931
0.00742351
0.00717407
0.00679524
0.00621469
0.00532599
0.00399779
0.0021432
0.000222024
0.00796354
0.00804686
0.00810352
0.00814099
0.0081636
0.00817355
0.0081715
0.00815666
0.00812661
0.00807664
0.00799845
0.00787763
0.00768885
0.0073867
0.00688928
0.00605344
0.00466052
0.00251818
0.000250119
0.00837004
0.00842546
0.00846186
0.00848558
0.00849997
0.00850672
0.00850644
0.00849879
0.00848239
0.00845447
0.00840991
0.00833939
0.00822538
0.008033
0.00768893
0.00703269
0.00572454
0.00324494
0.000289813
0.0087963
0.00881534
0.00882753
0.0088354
0.00884022
0.00884261
0.0088428
0.00884073
0.008836
0.00882778
0.00881449
0.00879318
0.008758
0.00869629
0.00857677
0.00830783
0.00757045
0.0052045
0.000343405
)
;

boundaryField
{
    leftWall
    {
        type            nutkWallFunction;
        Cmu             0.09;
        kappa           0.41;
        E               9.8;
        value           nonuniform List<scalar> 
50
(
1.48706e-06
2.4533e-06
3.01783e-06
3.42802e-06
3.74984e-06
4.01828e-06
4.25304e-06
4.46555e-06
4.75995e-06
5.11364e-06
5.5492e-06
1.373e-06
9.57665e-07
2.92912e-08
0
0
0
0
0
0
0
2.39238e-09
0
0
0
2.99625e-09
0
0
0
0
6.60535e-09
7.64569e-09
0
0
7.68411e-09
0
1.16319e-08
0
2.60608e-09
0
0
1.03823e-08
1.1575e-08
5.6822e-09
6.36434e-09
4.76432e-09
9.58989e-09
2.73356e-06
1.80883e-05
4.87283e-05
)
;
    }
    rightWall
    {
        type            nutkWallFunction;
        Cmu             0.09;
        kappa           0.41;
        E               9.8;
        value           nonuniform List<scalar> 
50
(
1.75302e-06
2.74729e-06
3.39595e-06
3.91404e-06
4.35226e-06
4.7452e-06
5.14507e-06
5.50087e-06
5.86055e-06
6.06976e-06
6.13406e-06
1.94126e-06
1.62512e-06
3.83346e-07
0
7.53482e-09
1.10495e-09
0
1.42168e-09
3.93931e-09
0
0
8.0649e-10
0
7.23932e-09
1.29575e-08
2.67145e-07
8.20179e-07
1.3363e-06
1.85389e-06
2.42323e-06
3.02539e-06
3.66032e-06
4.32444e-06
4.99734e-06
5.70331e-06
6.48123e-06
7.38399e-06
8.40261e-06
9.53109e-06
1.07769e-05
1.21628e-05
1.37182e-05
1.54727e-05
1.74993e-05
1.99316e-05
2.29525e-05
2.6884e-05
3.23406e-05
3.95553e-05
)
;
    }
    lowerWall
    {
        type            nutkWallFunction;
        Cmu             0.09;
        kappa           0.41;
        E               9.8;
        value           nonuniform List<scalar> 
62
(
3.48025e-07
9.78535e-07
1.32273e-06
1.54934e-06
1.71633e-06
1.84584e-06
1.94891e-06
2.032e-06
2.09926e-06
2.1546e-06
2.20125e-06
2.24202e-06
2.27761e-06
2.3043e-06
2.31253e-06
2.28533e-06
2.20428e-06
2.09198e-06
1.93927e-06
1.76655e-06
1.58411e-06
1.26661e-06
6.81172e-07
6.81172e-07
3.37723e-06
4.06748e-06
4.65508e-06
5.21956e-06
5.84141e-06
6.67116e-06
7.9663e-06
8.38497e-06
7.78817e-06
7.7234e-06
8.18682e-06
9.233e-07
4.07526e-06
4.47379e-06
4.84394e-06
5.31642e-06
5.96475e-06
6.97318e-06
8.59186e-06
9.233e-07
1.66784e-06
2.0353e-06
2.17757e-06
2.24673e-06
2.27899e-06
2.28153e-06
2.27084e-06
2.21697e-06
2.11987e-06
1.9832e-06
1.80528e-06
1.67094e-06
1.65055e-06
1.59716e-06
1.47591e-06
1.22011e-06
9.0407e-07
3.66561e-07
)
;
    }
    atmosphere
    {
        type            calculated;
        value           nonuniform List<scalar> 
46
(
0.009
0.000137658
0.000172874
0.000726473
0.00150199
0.00217838
0.00271179
0.00313024
0.00346619
0.00374602
0.00399019
0.00421477
0.00443281
0.00465535
0.00489232
0.00515332
0.00544875
0.00579148
0.00620011
0.00670615
0.0073719
0.009
0.009
0.009
0.009
0.009
0.009
0.009
0.009
0.009
0.009
0.009
0.009
0.009
0.009
0.009
0.009
0.009
0.009
0.009
0.009
0.009
0.009
0.009
0.009
0.000343405
)
;
    }
    defaultFaces
    {
        type            empty;
    }
}


// ************************************************************************* //
