/*--------------------------------*- C++ -*----------------------------------*\
  =========                 |
  \\      /  F ield         | OpenFOAM: The Open Source CFD Toolbox
   \\    /   O peration     | Website:  https://openfoam.org
    \\  /    A nd           | Version:  9
     \\/     M anipulation  |
\*---------------------------------------------------------------------------*/
FoamFile
{
    format      ascii;
    class       volScalarField;
    location    "8.4";
    object      p;
}
// * * * * * * * * * * * * * * * * * * * * * * * * * * * * * * * * * * * * * //

dimensions      [1 -1 -2 0 0 0 0];

internalField   nonuniform List<scalar> 
2268
(
727.696
727.714
727.795
727.948
728.172
728.462
728.813
729.216
729.662
730.141
730.643
731.154
731.66
732.144
732.585
732.972
733.291
733.606
733.886
734.138
734.424
734.617
734.708
668.835
668.858
668.941
669.096
669.32
669.609
669.957
670.356
670.799
671.274
671.77
672.274
672.77
673.241
673.676
674.071
674.435
674.799
675.174
675.465
675.641
675.73
675.817
609.962
609.989
610.075
610.233
610.458
610.747
611.094
611.492
611.933
612.405
612.898
613.397
613.886
614.353
614.787
615.194
615.585
615.985
616.421
616.743
616.835
616.858
616.952
551.074
551.102
551.19
551.351
551.58
551.871
552.22
552.619
553.061
553.534
554.027
554.526
555.016
555.485
555.927
556.347
556.746
557.154
557.606
557.967
558.015
558.002
558.123
492.17
492.196
492.285
492.45
492.682
492.979
493.333
493.737
494.182
494.66
495.156
495.659
496.157
496.637
497.096
497.536
497.933
498.305
498.753
499.14
499.191
499.199
499.337
433.248
433.272
433.361
433.529
433.767
434.07
434.432
434.844
435.297
435.781
436.284
436.795
437.305
437.805
438.289
438.764
439.208
439.428
439.882
440.302
440.357
440.503
440.595
374.309
374.329
374.42
374.592
374.836
375.147
375.518
375.942
376.406
376.898
377.41
377.932
378.459
378.983
379.502
380.03
380.585
380.921
381.208
381.516
381.746
381.946
381.889
315.35
315.373
315.466
315.642
315.893
316.213
316.597
317.034
317.511
318.015
318.535
319.07
319.615
320.169
320.731
321.323
322.026
322.776
322.947
323.053
323.54
323.516
323.231
734.413
734.665
734.991
734.927
734.67
734.26
733.762
733.216
732.642
732.074
731.522
730.99
730.621
730.551
730.285
730.178
729.993
729.891
729.921
675.606
675.668
676
675.955
675.732
675.373
674.959
674.447
673.901
673.408
673.018
672.651
672.262
671.852
671.546
671.408
671.223
671.121
671.168
617.01
616.901
617.106
617.031
616.816
616.473
616.067
615.577
615.066
614.62
614.349
614.184
613.845
613.228
612.819
612.658
612.501
612.502
612.562
558.541
558.335
558.329
558.181
557.948
557.604
557.204
556.734
556.248
555.815
555.561
555.461
555.171
554.547
554.083
553.893
553.769
553.858
553.871
500.081
499.819
499.619
499.383
499.117
498.768
498.371
497.919
497.445
497.004
496.741
496.583
496.299
495.769
495.387
495.131
494.969
495.1
495.107
441.467
441.196
440.907
440.609
440.311
439.947
439.553
439.121
438.64
438.135
437.891
437.7
437.406
436.914
436.706
436.657
436.334
436.247
436.32
382.648
382.445
382.167
381.844
381.519
381.134
380.745
380.35
379.91
379.322
379.007
378.82
378.519
378.067
378.108
378.03
377.822
377.421
377.54
323.715
323.668
323.415
323.088
322.741
322.323
321.944
321.623
321.437
320.862
320.289
319.94
319.65
319.506
319.729
319.38
319.267
318.659
318.773
223.161
223.182
223.274
223.452
223.711
224.047
224.454
224.92
225.423
225.947
226.483
227.034
227.611
228.215
228.852
229.547
230.339
231.119
231.59
231.841
232.024
232.111
231.646
99.2806
99.2529
99.3048
99.4629
99.6844
99.9534
100.307
100.745
101.249
101.802
102.391
102.998
103.597
104.187
104.773
105.381
106.073
106.863
107.527
107.889
107.906
107.822
107.609
18.7098
18.6679
18.6776
18.7444
18.8576
19.0011
19.16
19.347
19.5783
19.8619
20.1859
20.5232
20.8353
21.1061
21.342
21.5696
21.8794
22.3088
22.6751
22.8682
22.8695
22.7839
22.7068
-0.74752
-0.725839
-0.703025
-0.707722
-0.677713
-0.606098
-0.568689
-0.561098
-0.566639
-0.574505
-0.584124
-0.591426
-0.601615
-0.607444
-0.623411
-0.642418
-0.67885
-0.736272
-0.790154
-0.796104
-0.781782
-0.767866
-0.777385
-0.948836
-0.946428
-0.943313
-0.944011
-0.936765
-0.924823
-0.910277
-0.900319
-0.894616
-0.89118
-0.889558
-0.888836
-0.890243
-0.89288
-0.900585
-0.909747
-0.920914
-0.932132
-0.941523
-0.94602
-0.945596
-0.947472
-0.950046
-1.13117
-1.13549
-1.13584
-1.13706
-1.13903
-1.14821
-1.15168
-1.1537
-1.15468
-1.15516
-1.15542
-1.15532
-1.1534
-1.15232
-1.15164
-1.15198
-1.1509
-1.14615
-1.14149
-1.14031
-1.13842
-1.13529
-1.13153
-1.27738
-1.27846
-1.27729
-1.27754
-1.27876
-1.2786
-1.27964
-1.28051
-1.28106
-1.28145
-1.28141
-1.28095
-1.2798
-1.27925
-1.27973
-1.28062
-1.28158
-1.2836
-1.28417
-1.28428
-1.28405
-1.28341
-1.28278
-1.40402
-1.40439
-1.40408
-1.4039
-1.40432
-1.40459
-1.4052
-1.40582
-1.40634
-1.40679
-1.40723
-1.40777
-1.40878
-1.40961
-1.40987
-1.40944
-1.40903
-1.40964
-1.41003
-1.41036
-1.4112
-1.41202
-1.41211
-1.52958
-1.52997
-1.52987
-1.52988
-1.53019
-1.53043
-1.53087
-1.53139
-1.53188
-1.5324
-1.53302
-1.53391
-1.53564
-1.53657
-1.53644
-1.53585
-1.53542
-1.53545
-1.53555
-1.53575
-1.53616
-1.53652
-1.53646
-1.65538
-1.65558
-1.65561
-1.6557
-1.65597
-1.65625
-1.65663
-1.65705
-1.65751
-1.65803
-1.65864
-1.65934
-1.66031
-1.66093
-1.66108
-1.66108
-1.66097
-1.66087
-1.66088
-1.66102
-1.66126
-1.66145
-1.66139
-1.78106
-1.78121
-1.78127
-1.7814
-1.78164
-1.78194
-1.78227
-1.78262
-1.78309
-1.78357
-1.7841
-1.78463
-1.78525
-1.7857
-1.78584
-1.78587
-1.78591
-1.786
-1.78611
-1.78626
-1.78646
-1.78664
-1.78674
-1.90671
-1.90681
-1.90688
-1.90702
-1.90723
-1.90749
-1.90777
-1.90809
-1.9086
-1.90905
-1.90946
-1.90989
-1.91035
-1.91072
-1.91089
-1.91096
-1.91102
-1.91112
-1.91132
-1.9115
-1.9117
-1.91192
-1.9122
-2.03234
-2.03237
-2.03246
-2.03259
-2.03277
-2.033
-2.03325
-2.03357
-2.03401
-2.03443
-2.03477
-2.03514
-2.03552
-2.03589
-2.03621
-2.03636
-2.03639
-2.03642
-2.03659
-2.03674
-2.03693
-2.03716
-2.03747
-2.15788
-2.15793
-2.158
-2.15812
-2.15828
-2.15849
-2.15873
-2.15904
-2.15942
-2.15974
-2.16006
-2.16038
-2.16073
-2.16108
-2.16145
-2.16173
-2.16185
-2.16188
-2.16189
-2.16197
-2.16213
-2.16232
-2.16258
-2.28338
-2.28345
-2.2835
-2.28361
-2.28376
-2.28396
-2.28421
-2.28449
-2.28479
-2.28505
-2.28533
-2.28562
-2.28592
-2.28623
-2.28655
-2.28687
-2.28708
-2.28713
-2.2871
-2.28716
-2.28728
-2.28744
-2.28764
-2.40888
-2.4089
-2.40896
-2.40906
-2.4092
-2.40939
-2.40964
-2.40989
-2.41012
-2.41034
-2.41058
-2.41084
-2.41111
-2.41137
-2.41164
-2.41189
-2.41208
-2.41218
-2.41222
-2.4123
-2.41241
-2.41254
-2.41268
-2.53434
-2.53432
-2.53438
-2.53448
-2.53461
-2.53478
-2.53499
-2.53521
-2.5354
-2.53561
-2.53583
-2.53606
-2.53629
-2.53652
-2.53675
-2.53695
-2.53712
-2.53723
-2.53732
-2.53741
-2.53751
-2.53762
-2.53773
-2.65974
-2.65975
-2.65979
-2.65988
-2.65999
-2.66014
-2.66031
-2.6605
-2.66068
-2.66087
-2.66107
-2.66127
-2.66147
-2.66167
-2.66187
-2.66204
-2.6622
-2.66231
-2.66241
-2.6625
-2.6626
-2.66269
-2.66278
-2.78511
-2.78516
-2.78519
-2.78526
-2.78536
-2.78548
-2.78563
-2.78579
-2.78595
-2.78612
-2.7863
-2.78648
-2.78665
-2.78683
-2.787
-2.78716
-2.78729
-2.78741
-2.78751
-2.7876
-2.78769
-2.78777
-2.78784
-2.91051
-2.91054
-2.91056
-2.91062
-2.9107
-2.91081
-2.91094
-2.91107
-2.91122
-2.91137
-2.91153
-2.91168
-2.91184
-2.912
-2.91214
-2.91228
-2.91241
-2.91252
-2.91261
-2.9127
-2.91278
-2.91285
-2.91291
-3.03588
-3.03589
-3.03592
-3.03597
-3.03604
-3.03613
-3.03624
-3.03635
-3.03648
-3.03661
-3.03675
-3.03689
-3.03703
-3.03717
-3.0373
-3.03742
-3.03753
-3.03764
-3.03773
-3.03781
-3.03788
-3.03795
-3.038
-3.16123
-3.16123
-3.16125
-3.1613
-3.16136
-3.16143
-3.16153
-3.16163
-3.16174
-3.16186
-3.16198
-3.1621
-3.16222
-3.16234
-3.16246
-3.16257
-3.16267
-3.16277
-3.16285
-3.16293
-3.16299
-3.16305
-3.1631
-3.28657
-3.28655
-3.28658
-3.28661
-3.28666
-3.28673
-3.28681
-3.2869
-3.28699
-3.28709
-3.2872
-3.28731
-3.28742
-3.28752
-3.28763
-3.28773
-3.28782
-3.2879
-3.28798
-3.28805
-3.28811
-3.28817
-3.28821
-3.41185
-3.4119
-3.4119
-3.41192
-3.41196
-3.41202
-3.41208
-3.41216
-3.41224
-3.41233
-3.41242
-3.41252
-3.41261
-3.41271
-3.4128
-3.41289
-3.41297
-3.41305
-3.41312
-3.41318
-3.41324
-3.41329
-3.41333
-3.53716
-3.53721
-3.5372
-3.53722
-3.53725
-3.53729
-3.53735
-3.53741
-3.53748
-3.53756
-3.53764
-3.53773
-3.53781
-3.53789
-3.53798
-3.53806
-3.53813
-3.5382
-3.53827
-3.53833
-3.53838
-3.53843
-3.53847
-3.6625
-3.66249
-3.66249
-3.6625
-3.66252
-3.66256
-3.66261
-3.66266
-3.66272
-3.66279
-3.66286
-3.66294
-3.66301
-3.66308
-3.66316
-3.66323
-3.66329
-3.66336
-3.66342
-3.66347
-3.66352
-3.66357
-3.6636
-3.78779
-3.78776
-3.78776
-3.78777
-3.78779
-3.78782
-3.78786
-3.7879
-3.78796
-3.78802
-3.78808
-3.78814
-3.78821
-3.78827
-3.78834
-3.7884
-3.78846
-3.78852
-3.78857
-3.78862
-3.78867
-3.78871
-3.78875
-3.91303
-3.91304
-3.91303
-3.91303
-3.91304
-3.91307
-3.9131
-3.91314
-3.91319
-3.91324
-3.91329
-3.91335
-3.91341
-3.91347
-3.91352
-3.91358
-3.91363
-3.91369
-3.91374
-3.91378
-3.91383
-3.91387
-3.9139
-4.03826
-4.03831
-4.03829
-4.03828
-4.03829
-4.03831
-4.03834
-4.03837
-4.03841
-4.03846
-4.03851
-4.03856
-4.03861
-4.03866
-4.03871
-4.03876
-4.03881
-4.03886
-4.0389
-4.03895
-4.03899
-4.03903
-4.03906
-4.16351
-4.16355
-4.16353
-4.16352
-4.16352
-4.16354
-4.16357
-4.1636
-4.16364
-4.16368
-4.16372
-4.16377
-4.16381
-4.16386
-4.1639
-4.16394
-4.16399
-4.16403
-4.16407
-4.16411
-4.16415
-4.16419
-4.16422
-4.28878
-4.28877
-4.28875
-4.28875
-4.28875
-4.28877
-4.28879
-4.28882
-4.28886
-4.2889
-4.28893
-4.28897
-4.28901
-4.28905
-4.28909
-4.28913
-4.28917
-4.28921
-4.28925
-4.28929
-4.28932
-4.28936
-4.28939
-4.41404
-4.41399
-4.41397
-4.41396
-4.41397
-4.41399
-4.41402
-4.41405
-4.41408
-4.41411
-4.41415
-4.41418
-4.41422
-4.41425
-4.41429
-4.41432
-4.41436
-4.41439
-4.41443
-4.41446
-4.4145
-4.41453
-4.41456
-4.53927
-4.53923
-4.53919
-4.53917
-4.53918
-4.53921
-4.53924
-4.53927
-4.5393
-4.53933
-4.53936
-4.53939
-4.53942
-4.53945
-4.53948
-4.53951
-4.53954
-4.53958
-4.53961
-4.53964
-4.53967
-4.53971
-4.53974
-4.66448
-4.66446
-4.6644
-4.66438
-4.66439
-4.66442
-4.66446
-4.66449
-4.66452
-4.66454
-4.66457
-4.6646
-4.66463
-4.66465
-4.66468
-4.66471
-4.66473
-4.66476
-4.66479
-4.66482
-4.66485
-4.66488
-4.66492
-4.78971
-4.78966
-4.78961
-4.78961
-4.78962
-4.78965
-4.78969
-4.78971
-4.78974
-4.78976
-4.78979
-4.78981
-4.78983
-4.78986
-4.78988
-4.7899
-4.78993
-4.78995
-4.78997
-4.79
-4.79003
-4.79006
-4.79009
-4.91495
-4.91485
-4.91484
-4.91485
-4.91488
-4.9149
-4.91492
-4.91494
-4.91496
-4.91498
-4.915
-4.91502
-4.91504
-4.91506
-4.91508
-4.9151
-4.91512
-4.91514
-4.91516
-4.91519
-4.91521
-4.91524
-4.91527
-5.04013
-5.04004
-5.04006
-5.04009
-5.04013
-5.04014
-5.04015
-5.04017
-5.04019
-5.04021
-5.04022
-5.04024
-5.04026
-5.04027
-5.04028
-5.0403
-5.04031
-5.04033
-5.04035
-5.04037
-5.04039
-5.04042
-5.04046
-5.16528
-5.1652
-5.16526
-5.16531
-5.16535
-5.16537
-5.16539
-5.1654
-5.16542
-5.16543
-5.16544
-5.16546
-5.16547
-5.16548
-5.16549
-5.1655
-5.16551
-5.16552
-5.16554
-5.16555
-5.16558
-5.16561
-5.16564
-5.29036
-5.29034
-5.29045
-5.29052
-5.29057
-5.2906
-5.29062
-5.29064
-5.29065
-5.29066
-5.29067
-5.29068
-5.29069
-5.29069
-5.2907
-5.29071
-5.29071
-5.29072
-5.29073
-5.29074
-5.29076
-5.29079
-5.29083
-5.41543
-5.41552
-5.41566
-5.41576
-5.41581
-5.41584
-5.41586
-5.41587
-5.41588
-5.41589
-5.41589
-5.4159
-5.4159
-5.41591
-5.41591
-5.41591
-5.41592
-5.41592
-5.41592
-5.41592
-5.41593
-5.41597
-5.41602
-5.5405
-5.54074
-5.54092
-5.54101
-5.54106
-5.54108
-5.54109
-5.54109
-5.5411
-5.5411
-5.5411
-5.5411
-5.54111
-5.54111
-5.54111
-5.54111
-5.54111
-5.5411
-5.5411
-5.54109
-5.54107
-5.54112
-5.54121
-5.66586
-5.66636
-5.6663
-5.66631
-5.66632
-5.66632
-5.66632
-5.66632
-5.66632
-5.66632
-5.66632
-5.66632
-5.66632
-5.66632
-5.66632
-5.66631
-5.66631
-5.66631
-5.6663
-5.66627
-5.66623
-5.66626
-5.6664
232.745
232.665
232.737
232.718
108.048
108.113
108.116
108.044
22.81
22.8368
22.8361
22.8071
-0.803059
-0.807263
-0.799387
-0.78942
-0.953305
-0.954202
-0.952692
-0.949962
-1.13125
-1.13089
-1.13187
-1.1305
-1.27862
-1.2779
-1.27963
-1.28144
-1.41095
-1.41029
-1.41041
-1.41049
-1.53579
-1.53536
-1.53507
-1.5349
-1.66092
-1.66062
-1.6604
-1.66025
-1.78672
-1.78668
-1.78664
-1.78655
-1.9126
-1.91283
-1.91294
-1.91297
-2.03785
-2.03813
-2.03841
-2.03856
-2.16284
-2.163
-2.16314
-2.16326
-2.2878
-2.2879
-2.28798
-2.28805
-2.41279
-2.41285
-2.4129
-2.41294
-2.5378
-2.53784
-2.53787
-2.5379
-2.66283
-2.66286
-2.66288
-2.6629
-2.78788
-2.7879
-2.78792
-2.78793
-2.91294
-2.91296
-2.91298
-2.91299
-3.03803
-3.03804
-3.03806
-3.03807
-3.16313
-3.16314
-3.16315
-3.16317
-3.28824
-3.28825
-3.28826
-3.28828
-3.41336
-3.41337
-3.41339
-3.4134
-3.53849
-3.5385
-3.53852
-3.53853
-3.66363
-3.66364
-3.66366
-3.66367
-3.78877
-3.78879
-3.7888
-3.78882
-3.91393
-3.91394
-3.91396
-3.91397
-4.03908
-4.0391
-4.03911
-4.03913
-4.16425
-4.16426
-4.16428
-4.16429
-4.28942
-4.28943
-4.28945
-4.28946
-4.41459
-4.4146
-4.41462
-4.41463
-4.53976
-4.53978
-4.53979
-4.53981
-4.66494
-4.66495
-4.66497
-4.66498
-4.79012
-4.79013
-4.79015
-4.79016
-4.9153
-4.91531
-4.91533
-4.91534
-5.04048
-5.0405
-5.04051
-5.04052
-5.16566
-5.16568
-5.16569
-5.16571
-5.29085
-5.29087
-5.29088
-5.29089
-5.41604
-5.41606
-5.41607
-5.41608
-5.54124
-5.54125
-5.54126
-5.54127
-5.66643
-5.66644
-5.66645
-5.66646
232.117
231.882
231.575
231.249
230.927
230.597
230.247
229.972
229.972
229.904
229.514
229.065
228.747
228.501
228.128
227.623
227.483
226.952
227.01
107.781
107.719
107.595
107.441
107.298
107.16
106.93
106.621
106.424
106.5
106.279
105.88
105.459
104.914
104.087
103.719
103.672
103.621
103.721
22.7163
22.7197
22.729
22.732
22.732
22.7214
22.6625
22.4933
22.1906
22.1358
22.0023
21.774
21.5194
21.25
20.8184
20.749
20.8148
20.9702
21.0941
-0.775516
-0.75404
-0.726578
-0.724478
-0.730376
-0.734811
-0.737427
-0.736036
-0.734391
-0.745623
-0.760338
-0.78988
-0.822484
-0.773656
-0.732635
-0.726711
-0.727806
-0.736117
-0.741689
-0.94774
-0.944478
-0.937683
-0.935231
-0.938268
-0.940124
-0.942102
-0.944273
-0.947288
-0.952187
-0.958869
-0.967917
-0.971554
-0.964156
-0.958409
-0.955214
-0.953325
-0.952622
-0.952534
-1.12868
-1.13266
-1.13801
-1.13887
-1.13888
-1.13946
-1.14009
-1.1408
-1.14164
-1.14321
-1.1431
-1.14027
-1.13393
-1.13841
-1.13792
-1.13678
-1.13608
-1.13586
-1.13456
-1.28258
-1.28189
-1.28252
-1.28214
-1.28023
-1.27773
-1.27623
-1.27557
-1.27456
-1.27251
-1.27072
-1.26959
-1.26995
-1.27409
-1.27596
-1.27711
-1.27764
-1.27819
-1.27803
-1.41032
-1.40949
-1.40838
-1.40752
-1.40579
-1.40415
-1.40323
-1.40239
-1.40151
-1.40059
-1.39944
-1.39861
-1.39906
-1.40123
-1.40246
-1.40325
-1.40369
-1.40393
-1.40366
-1.53463
-1.53427
-1.53388
-1.5335
-1.53284
-1.53253
-1.53255
-1.53192
-1.53119
-1.53087
-1.53033
-1.52933
-1.52873
-1.52851
-1.52886
-1.52924
-1.52949
-1.52958
-1.52936
-1.65998
-1.65949
-1.65939
-1.65967
-1.66024
-1.66077
-1.66068
-1.66011
-1.65948
-1.65896
-1.65861
-1.65802
-1.65695
-1.65536
-1.65504
-1.65507
-1.65514
-1.65515
-1.65507
-1.78635
-1.7856
-1.78533
-1.78566
-1.78628
-1.78667
-1.78609
-1.78539
-1.78483
-1.7844
-1.78409
-1.78383
-1.78307
-1.78163
-1.78099
-1.78073
-1.78068
-1.78066
-1.78069
-1.91291
-1.91239
-1.91186
-1.9115
-1.91152
-1.91151
-1.91114
-1.91064
-1.91019
-1.90977
-1.90943
-1.90911
-1.90858
-1.90752
-1.90659
-1.90621
-1.90612
-1.90609
-1.90624
-2.03868
-2.0384
-2.0378
-2.03705
-2.03676
-2.03658
-2.03626
-2.03588
-2.03549
-2.03511
-2.03479
-2.03449
-2.03406
-2.03332
-2.03229
-2.03175
-2.03154
-2.03144
-2.03173
-2.16343
-2.16328
-2.16276
-2.16225
-2.16194
-2.1617
-2.1614
-2.16108
-2.16075
-2.16043
-2.16014
-2.15987
-2.1596
-2.15916
-2.15837
-2.15762
-2.15704
-2.15677
-2.15718
-2.28813
-2.28801
-2.28769
-2.28734
-2.28707
-2.28683
-2.28657
-2.28629
-2.28601
-2.28574
-2.2855
-2.28528
-2.2851
-2.28483
-2.28429
-2.28361
-2.28286
-2.2826
-2.28308
-2.41298
-2.41289
-2.41267
-2.41242
-2.41219
-2.41197
-2.41175
-2.41151
-2.41127
-2.41105
-2.41084
-2.41066
-2.41048
-2.41025
-2.40993
-2.40956
-2.40922
-2.40918
-2.4097
-2.53792
-2.53786
-2.5377
-2.53751
-2.53732
-2.53713
-2.53693
-2.53673
-2.53654
-2.53635
-2.53619
-2.53604
-2.53591
-2.53578
-2.53566
-2.53566
-2.53587
-2.536
-2.53624
-2.66292
-2.66287
-2.66276
-2.66262
-2.66246
-2.6623
-2.66213
-2.66196
-2.6618
-2.66166
-2.66152
-2.66142
-2.66133
-2.66128
-2.66129
-2.66146
-2.66185
-2.662
-2.66199
-2.78794
-2.78791
-2.78784
-2.78773
-2.7876
-2.78747
-2.78733
-2.7872
-2.78707
-2.78695
-2.78685
-2.78677
-2.78673
-2.78672
-2.78678
-2.78693
-2.78716
-2.78728
-2.78728
-2.913
-2.91298
-2.91292
-2.91284
-2.91275
-2.91264
-2.91253
-2.91242
-2.91232
-2.91223
-2.91216
-2.91211
-2.91209
-2.9121
-2.91217
-2.91229
-2.91244
-2.91254
-2.91246
-3.03808
-3.03807
-3.03803
-3.03797
-3.03789
-3.03781
-3.03773
-3.03764
-3.03757
-3.0375
-3.03745
-3.03742
-3.03741
-3.03744
-3.0375
-3.03758
-3.03766
-3.03772
-3.03762
-3.16318
-3.16317
-3.16315
-3.1631
-3.16305
-3.16299
-3.16292
-3.16286
-3.1628
-3.16276
-3.16272
-3.16271
-3.16271
-3.16274
-3.16279
-3.16285
-3.16288
-3.1629
-3.16276
-3.28829
-3.28829
-3.28828
-3.28825
-3.28821
-3.28817
-3.28812
-3.28807
-3.28803
-3.288
-3.28799
-3.28798
-3.28799
-3.28802
-3.28806
-3.2881
-3.28812
-3.28811
-3.28798
-3.41341
-3.41342
-3.41341
-3.4134
-3.41337
-3.41334
-3.41331
-3.41328
-3.41326
-3.41324
-3.41323
-3.41324
-3.41326
-3.41328
-3.41332
-3.41336
-3.41337
-3.41336
-3.41326
-3.53855
-3.53856
-3.53856
-3.53855
-3.53854
-3.53852
-3.53851
-3.53849
-3.53848
-3.53847
-3.53847
-3.53848
-3.5385
-3.53853
-3.53857
-3.5386
-3.53863
-3.53862
-3.53853
-3.66369
-3.6637
-3.66371
-3.66372
-3.66371
-3.66371
-3.6637
-3.66369
-3.66369
-3.66369
-3.6637
-3.66372
-3.66374
-3.66377
-3.6638
-3.66384
-3.66386
-3.66386
-3.66379
-3.78884
-3.78886
-3.78887
-3.78888
-3.78888
-3.78889
-3.78889
-3.78889
-3.7889
-3.78891
-3.78892
-3.78894
-3.78897
-3.78899
-3.78902
-3.78905
-3.78906
-3.78905
-3.789
-3.91399
-3.91402
-3.91403
-3.91405
-3.91406
-3.91407
-3.91408
-3.91409
-3.9141
-3.91412
-3.91414
-3.91416
-3.91419
-3.91421
-3.91423
-3.91424
-3.91422
-3.91418
-3.91408
-4.03915
-4.03918
-4.0392
-4.03922
-4.03924
-4.03925
-4.03927
-4.03928
-4.0393
-4.03932
-4.03935
-4.03937
-4.0394
-4.03942
-4.03943
-4.03942
-4.03937
-4.03929
-4.03913
-4.16432
-4.16434
-4.16437
-4.16439
-4.16441
-4.16443
-4.16445
-4.16448
-4.1645
-4.16453
-4.16455
-4.16458
-4.16461
-4.16463
-4.16463
-4.16461
-4.16454
-4.16444
-4.16426
-4.28948
-4.28951
-4.28954
-4.28957
-4.28959
-4.28962
-4.28964
-4.28967
-4.2897
-4.28972
-4.28976
-4.28979
-4.28982
-4.28984
-4.28985
-4.28983
-4.28976
-4.28966
-4.28949
-4.41466
-4.41469
-4.41472
-4.41474
-4.41477
-4.4148
-4.41483
-4.41486
-4.41489
-4.41492
-4.41496
-4.41499
-4.41503
-4.41505
-4.41507
-4.41506
-4.41501
-4.41491
-4.41475
-4.53983
-4.53986
-4.53989
-4.53992
-4.53995
-4.53998
-4.54001
-4.54004
-4.54008
-4.54011
-4.54015
-4.54019
-4.54024
-4.54027
-4.5403
-4.5403
-4.54026
-4.54017
-4.54
-4.66501
-4.66504
-4.66507
-4.6651
-4.66513
-4.66516
-4.66519
-4.66522
-4.66526
-4.6653
-4.66534
-4.66539
-4.66544
-4.66549
-4.66553
-4.66555
-4.66553
-4.66544
-4.66525
-4.79019
-4.79022
-4.79025
-4.79028
-4.79031
-4.79034
-4.79037
-4.7904
-4.79044
-4.79048
-4.79053
-4.79059
-4.79064
-4.7907
-4.79076
-4.7908
-4.79081
-4.79072
-4.79051
-4.91537
-4.9154
-4.91543
-4.91545
-4.91548
-4.91551
-4.91554
-4.91558
-4.91562
-4.91566
-4.91571
-4.91577
-4.91584
-4.91591
-4.91599
-4.91605
-4.91607
-4.91598
-4.91576
-5.04055
-5.04058
-5.0406
-5.04063
-5.04066
-5.04068
-5.04071
-5.04075
-5.04078
-5.04083
-5.04088
-5.04094
-5.04102
-5.04111
-5.0412
-5.0413
-5.04134
-5.04122
-5.04095
-5.16573
-5.16576
-5.16578
-5.16581
-5.16583
-5.16585
-5.16588
-5.16591
-5.16595
-5.16599
-5.16604
-5.16611
-5.16619
-5.16629
-5.16641
-5.16654
-5.16662
-5.16649
-5.16616
-5.29091
-5.29094
-5.29096
-5.29098
-5.291
-5.29102
-5.29104
-5.29107
-5.2911
-5.29114
-5.29119
-5.29125
-5.29133
-5.29144
-5.29159
-5.29178
-5.29194
-5.29183
-5.29149
-5.4161
-5.41612
-5.41613
-5.41615
-5.41616
-5.41618
-5.4162
-5.41622
-5.41624
-5.41627
-5.41631
-5.41637
-5.41644
-5.41655
-5.41672
-5.41699
-5.41732
-5.41728
-5.417
-5.54128
-5.54129
-5.54131
-5.54132
-5.54133
-5.54134
-5.54135
-5.54136
-5.54138
-5.5414
-5.54143
-5.54146
-5.54152
-5.5416
-5.54176
-5.54208
-5.54267
-5.54287
-5.54283
-5.66646
-5.66647
-5.66647
-5.66648
-5.66649
-5.66649
-5.6665
-5.66651
-5.66652
-5.66653
-5.66654
-5.66655
-5.66658
-5.66662
-5.6667
-5.66694
-5.66761
-5.66835
-5.66902
)
;

boundaryField
{
    leftWall
    {
        type            calculated;
        value           nonuniform List<scalar> 
50
(
727.696
668.835
609.962
551.074
492.17
433.248
374.309
315.35
223.161
99.2806
18.7098
-0.74752
-0.948836
-1.13117
-1.27738
-1.40402
-1.52958
-1.65538
-1.78106
-1.90671
-2.03234
-2.15788
-2.28338
-2.40888
-2.53434
-2.65974
-2.78511
-2.91051
-3.03588
-3.16123
-3.28657
-3.41185
-3.53716
-3.6625
-3.78779
-3.91303
-4.03826
-4.16351
-4.28878
-4.41404
-4.53927
-4.66448
-4.78971
-4.91495
-5.04013
-5.16528
-5.29036
-5.41543
-5.5405
-5.66586
)
;
    }
    rightWall
    {
        type            calculated;
        value           nonuniform List<scalar> 
50
(
729.921
671.168
612.562
553.871
495.107
436.32
377.54
318.773
227.01
103.721
21.0941
-0.741689
-0.952534
-1.13456
-1.27803
-1.40366
-1.52936
-1.65507
-1.78069
-1.90624
-2.03173
-2.15718
-2.28308
-2.4097
-2.53624
-2.66199
-2.78728
-2.91246
-3.03762
-3.16276
-3.28798
-3.41326
-3.53853
-3.66379
-3.789
-3.91408
-4.03913
-4.16426
-4.28949
-4.41475
-4.54
-4.66525
-4.79051
-4.91576
-5.04095
-5.16616
-5.29149
-5.417
-5.54283
-5.66902
)
;
    }
    lowerWall
    {
        type            calculated;
        value           nonuniform List<scalar> 
62
(
757.125
757.143
757.224
757.377
757.601
757.892
758.242
758.645
759.091
759.571
760.072
760.583
761.089
761.573
762.014
762.401
762.72
763.036
763.284
763.504
763.817
764.046
764.133
734.708
675.817
616.952
558.123
499.337
440.595
381.889
323.231
295.339
295.259
295.333
295.314
734.413
675.606
617.01
558.541
500.081
441.467
382.648
323.715
763.831
764.089
764.403
764.336
764.085
763.65
763.046
762.495
761.927
761.326
760.722
760.19
759.872
759.942
759.675
759.569
759.384
759.282
759.311
)
;
    }
    atmosphere
    {
        type            calculated;
        value           nonuniform List<scalar> 
46
(
-5.7291
-5.72904
-5.72904
-5.72904
-5.72904
-5.72904
-5.72904
-5.72904
-5.72904
-5.72904
-5.72904
-5.72904
-5.72904
-5.72904
-5.72904
-5.72904
-5.72904
-5.72904
-5.72904
-5.72904
-5.72904
-5.72904
-5.72904
-5.72904
-5.72904
-5.72904
-5.72905
-5.72905
-5.72905
-5.72906
-5.72906
-5.72907
-5.72907
-5.72908
-5.72909
-5.72909
-5.7291
-5.7291
-5.72911
-5.72911
-5.72911
-5.72911
-5.72911
-5.7291
-5.72907
-5.73312
)
;
    }
    defaultFaces
    {
        type            empty;
    }
}


// ************************************************************************* //
