/*--------------------------------*- C++ -*----------------------------------*\
  =========                 |
  \\      /  F ield         | OpenFOAM: The Open Source CFD Toolbox
   \\    /   O peration     | Website:  https://openfoam.org
    \\  /    A nd           | Version:  9
     \\/     M anipulation  |
\*---------------------------------------------------------------------------*/
FoamFile
{
    format      ascii;
    class       volScalarField;
    location    "18.75";
    object      p;
}
// * * * * * * * * * * * * * * * * * * * * * * * * * * * * * * * * * * * * * //

dimensions      [0 2 -2 0 0 0 0];

internalField   nonuniform List<scalar> 
918
(
23.4652
23.5837
0.965313
22.8826
1.0073
23.1002
3.28642
13.7867
19.2384
2.93614
2.62674
14.4045
20.6431
16.8845
13.0016
0.923554
14.0501
2.25916
18.4561
1.40147
12.9984
20.4439
21.5327
19.2802
14.1177
14.3793
18.6055
1.1582
0.110582
0.262238
0.975142
0.408523
0.149048
21.6371
22.3137
22.252
15.4911
10.4119
3.60854
3.81198
2.99664
2.82111
13.8289
13.9285
5.8715
13.7662
13.7624
16.64
19.1065
19.2501
19.5433
19.3323
19.7187
5.97631
2.7897
2.61042
2.87747
2.95031
2.97685
2.69962
2.68038
2.48554
2.33962
13.8841
14.4776
14.5327
14.264
14.2117
22.4597
21.7028
22.0375
21.1439
21.2893
20.2192
19.8336
17.2602
17.6126
16.4864
16.1056
12.792
12.7532
13.2214
13.471
0.1471
1.07228
1.22043
14.0569
14.0932
14.0939
14.1086
8.29894
2.20168
2.20515
17.8965
17.4729
20.4778
20.745
20.1921
20.0065
1.53517
1.53052
1.15841
1.18633
0.954849
13.3388
13.4924
19.2316
18.3985
14.151
14.0512
14.1261
11.4968
13.9067
13.9802
15.3293
15.7847
14.9739
15.4104
18.1754
17.7574
19.042
19.4793
0.397221
0.156607
0.686612
0.317947
0.515887
15.3595
15.1541
15.6069
15.6578
15.889
10.4161
10.3454
10.3915
10.3117
4.15763
4.4718
2.26982
2.58587
2.43656
9.88144
13.9444
13.9907
4.81761
5.52046
5.18501
6.35236
6.72618
16.0057
16.4423
16.181
17.7273
16.9323
17.2804
19.8095
19.2987
19.5992
6.37304
6.60997
5.61015
5.25122
2.24956
2.49476
2.43792
2.98187
2.95963
3.21142
3.34203
2.69294
2.55015
2.89347
2.77767
2.82893
2.16987
2.03981
13.6082
13.3943
14.1471
14.3256
15.0926
14.9443
14.6509
14.8197
19.0287
19.4322
19.4657
19.0815
11.5526
10.16
13.7254
14.0008
0.302589
0.266518
0.13771
0.379944
0.400237
0.141598
2.01144
1.82288
1.40242
1.6779
14.0541
14.0137
8.54014
8.76039
8.13506
7.87761
16.3106
16.4608
17.095
16.6947
1.96682
1.68085
1.8103
13.654
13.5273
13.6338
10.932
10.3659
11.9743
12.244
13.9888
14.0322
14.0284
15.6889
16.0073
19.8301
20.1008
19.9276
20.3134
21.3762
21.0275
20.6427
14.5354
14.9437
14.7822
16.1242
15.7579
15.9773
15.1852
15.4899
15.3478
10.3766
10.4223
10.1327
10.2101
10.257
10.2046
9.81923
9.69244
14.0763
14.032
14.0557
7.2532
7.75084
4.86967
4.54025
12.5402
13.2133
12.889
18.6585
17.9808
18.7138
18.3429
17.8929
18.2164
10.4328
10.3935
10.4271
14.9249
14.2629
14.6147
2.43423
2.07085
2.2338
8.95692
9.04972
6.98004
7.59993
7.26169
16.309
16.6493
17.3295
16.4412
16.9089
17.4162
17.1943
9.95441
10.0862
10.0034
9.67703
9.57058
9.73315
8.33512
8.94791
3.60858
4.26699
3.96209
9.21786
9.4477
9.29479
18.6262
19.1611
0.771016
1.16325
19.5911
19.3147
0.140844
0.240825
14.2612
12.5584
7.26417
17.1934
16.6261
18.9658
3.19192
6.10517
2.80732
3.37905
2.68545
14.6115
14.2459
13.3372
0.456636
1.25644
1.70998
2.9068
18.4067
17.7315
18.8476
19.1677
19.2221
0.689752
0.918152
0.585222
1.24633
1.0344
1.27793
15.5472
15.6451
4.33295
18.8546
19.1589
19.1766
17.6533
18.606
17.6635
0.935307
0.641464
0.708343
10.0784
12.1187
14.2214
13.7739
13.971
13.9932
13.7442
14.8773
14.5469
14.5118
14.9965
13.9666
13.8231
7.7336
6.38519
8.06885
7.70893
17.0947
16.6826
16.4896
16.2353
18.081
17.6071
18.4575
17.8459
18.3077
18.5945
2.94091
3.13151
3.01343
2.52453
6.14474
6.61387
5.48897
5.63643
4.25854
2.42909
2.5272
2.75174
2.58419
2.93
2.67846
2.94151
2.57643
2.32302
2.31901
2.92818
2.73684
2.60166
14.5899
14.5284
14.3293
14.3673
14.3501
14.4658
13.5316
13.9362
13.5639
12.3956
12.9763
12.5035
0.825394
0.657889
0.526053
1.32463
1.35146
1.11248
0.838209
1.17811
1.20315
0.819564
1.54439
1.44866
3.16234
2.65456
8.85681
7.98383
6.89938
16.7967
17.5985
16.7682
18.0089
18.4258
18.5312
18.1516
17.6434
15.7258
15.7209
15.3811
15.3345
4.77316
3.74165
4.97116
4.54097
10.4859
14.0625
11.8396
10.8012
11.0971
13.4201
13.937
13.5886
13.7263
13.3004
12.8289
13.5215
13.0549
13.1559
12.9345
15.7256
16.2007
15.8072
15.2277
15.2477
10.6046
12.0156
5.46915
5.64179
7.24167
6.5375
13.5149
13.9325
13.9168
13.5581
13.7468
13.7452
13.6062
13.7798
13.8612
13.7552
11.8207
10.1414
9.04355
9.03727
14.075
12.3436
12.9284
12.4094
16.1165
16.633
16.2477
15.6423
16.1273
15.5991
15.6263
15.8394
17.1976
16.9472
16.717
17.1038
3.05371
3.00187
3.64372
3.13679
3.03797
2.82536
3.48331
4.75521
4.41334
6.72015
7.26771
4.5764
3.37305
3.79001
4.80211
5.53887
5.5132
3.96877
4.50107
4.92693
4.43961
5.22684
4.73032
2.7187
3.02175
2.8608
2.83568
3.38076
3.87831
3.37393
2.47945
2.59069
2.25808
2.12126
3.53199
2.9918
3.02802
3.67559
1.10395
1.32757
1.4414
2.41326
1.91074
1.97622
15.1786
14.8226
14.9563
14.2354
14.303
14.2442
13.8685
15.2362
14.9583
15.0576
13.7062
13.793
13.6063
13.9015
14.3172
14.6165
15.4484
15.1695
14.4086
14.5597
14.2107
14.1389
13.4611
12.8979
12.8375
1.11173
0.820228
0.983755
0.914567
0.610302
0.803131
2.18179
1.57111
1.96883
1.72603
1.95856
1.40738
1.30189
4.25117
5.05444
3.96898
3.36994
3.07567
8.91368
9.02608
8.17266
7.86614
8.2087
8.44156
8.39155
7.14322
7.57448
7.38601
9.92984
9.59623
17.5828
17.527
17.1981
17.0393
17.2657
5.75679
7.66129
6.7972
7.91597
10.2142
10.5122
9.31365
8.71044
9.46537
9.54043
14.0443
14.1206
13.5609
14.0468
14.0752
11.8312
12.8788
13.4932
13.3074
13.8279
13.9091
12.9706
13.559
13.4733
12.7555
12.809
12.1244
12.4626
11.9905
11.7899
14.052
13.9469
14.2166
13.7674
14.1466
13.7112
14.0263
14.0245
14.3051
13.4068
12.8284
12.8472
13.2731
12.9729
13.319
13.4827
9.30682
9.95042
10.3931
10.9292
10.6381
10.4183
10.2856
10.5872
10.5651
10.835
10.7546
10.6045
11.5602
13.4228
13.7072
13.8098
13.6029
13.649
13.3418
13.6159
13.5443
13.918
14.0067
14.056
13.137
13.2947
13.4911
13.374
11.673
10.0898
9.94451
9.5048
7.57357
8.04463
11.0202
9.8991
8.91537
8.98655
12.1652
10.8025
11.6155
12.0383
10.6901
10.3026
12.968
13.757
13.9767
13.6999
12.0562
12.1822
12.6321
13.0764
13.2662
13.7233
15.8564
16.432
16.51
16.2341
16.096
16.1958
15.9459
16.049
16.5231
16.6496
16.4809
2.87947
2.99204
2.92251
2.84834
3.08327
2.85887
3.95002
3.93986
3.15371
3.3341
3.35367
3.46129
2.92857
2.97178
4.82225
5.05767
5.3304
4.8301
6.17196
6.82228
7.40519
7.08605
5.78631
5.86809
6.18555
3.50354
3.53149
3.24978
3.70484
3.75871
2.61083
2.23943
2.04336
2.56119
2.66398
2.05042
1.77087
1.82018
2.33139
2.05381
1.80787
14.9712
14.7296
14.7509
14.5308
14.5854
14.9801
15.2009
15.011
15.1493
15.2003
14.7995
14.6883
14.8595
1.81908
1.48977
1.62413
1.58193
1.63966
1.54864
1.73569
7.60946
6.41203
6.79839
5.97725
4.12066
4.64017
9.55049
9.97355
10.0117
9.72534
9.51372
9.87898
9.73058
9.72412
8.26719
9.34259
8.87389
9.27718
9.29758
9.36648
9.07668
9.07832
10.5834
10.6161
9.48081
10.1226
9.3283
7.92906
8.09627
9.10971
10.0834
10.413
10.2561
9.98303
9.75499
10.123
10.1776
10.2388
10.2288
8.75241
8.70868
8.30862
13.9661
13.8729
14.0195
14.0245
14.1518
13.9752
13.8122
14.0896
14.144
13.9281
11.0828
11.1425
11.3879
12.1365
12.1885
12.0939
11.3387
13.105
12.759
13.3991
13.3446
13.4149
13.0035
12.8277
13.0995
10.077
11.4492
10.9813
11.2458
10.0599
9.30442
13.2212
13.2749
13.3414
13.6149
13.5717
14.156
15.8264
15.6963
15.7436
15.7867
15.3983
15.4355
4.17242
3.82593
4.54397
4.5019
4.06094
3.76214
2.28786
1.97017
1.78383
1.65729
1.88901
1.94846
8.15988
8.19108
6.32964
7.35558
5.8749
4.93614
4.79303
5.95089
7.13324
7.19457
8.51948
9.20209
8.75918
8.58565
7.92543
8.25768
10.1287
10.2217
10.1228
10.4413
9.9741
11.718
11.3006
11.6496
13.2646
12.9724
12.3741
12.2612
12.2265
12.8205
11.9441
11.1743
11.8879
12.5461
12.5039
11.1233
10.8785
11.3047
11.2871
10.2008
10.7228
10.4848
10.8362
10.5496
)
;

boundaryField
{
    wall-4
    {
        type            zeroGradient;
    }
    velocity-inlet-5
    {
        type            zeroGradient;
    }
    velocity-inlet-6
    {
        type            zeroGradient;
    }
    pressure-outlet-7
    {
        type            fixedValue;
        value           uniform 0;
    }
    wall-8
    {
        type            zeroGradient;
    }
    frontAndBackPlanes
    {
        type            empty;
    }
}


// ************************************************************************* //
