/*--------------------------------*- C++ -*----------------------------------*\
  =========                 |
  \\      /  F ield         | OpenFOAM: The Open Source CFD Toolbox
   \\    /   O peration     | Website:  https://openfoam.org
    \\  /    A nd           | Version:  9
     \\/     M anipulation  |
\*---------------------------------------------------------------------------*/
FoamFile
{
    format      ascii;
    class       volScalarField;
    location    "8.49";
    object      alpha.water;
}
// * * * * * * * * * * * * * * * * * * * * * * * * * * * * * * * * * * * * * //

dimensions      [0 0 0 0 0 0 0];

internalField   nonuniform List<scalar> 
2268
(
1
1
0.999999
0.999998
1
1
1
0.999999
0.999997
0.999998
1
1
1
1
1
1
1
0.999999
0.998872
0.997932
0.998832
0.999994
0.999866
0.999998
0.999999
0.999997
0.999998
1
1
0.999998
0.999998
0.999998
0.999999
1
1
1
1
0.999999
0.999998
0.999998
0.999993
0.998623
0.997932
0.999603
0.999994
0.999992
0.999997
0.999997
0.999997
0.999999
1
1
0.999999
0.999999
0.999999
1
1
1
1
1
0.999998
0.999984
0.999998
0.999997
0.998983
0.997933
0.999833
0.999994
0.999994
0.999998
0.999999
0.999999
1
1
1
1
1
1
1
1
1
1
1
0.999999
0.99992
0.999856
0.999947
0.999778
0.998372
0.999891
0.999994
0.999949
1
1
1
1
1
1
1
1
1
1
1
1
1
1
1
0.999821
0.99913
0.999935
0.999986
0.999936
0.999919
0.998339
0.999814
1
1
1
1
1
1
1
1
1
1
1
1
1
1
1
0.999745
0.997368
0.999986
0.999986
0.999986
0.99991
0.996432
0.999816
1
1
1
1
1
1
1
1
1
1
1
1
1
1
1
1
0.996078
0.986566
0.993602
0.999748
0.990942
0.994588
0.999922
1
1
1
1
1
1
1
1
1
0.999999
0.999999
1
1
1
1
1
0.996211
0.98515
0.985148
0.988279
0.986856
0.996286
0.999922
0.999732
0.999792
0.999429
0.999359
0.999573
0.99898
0.995341
0.995018
0.9952
0.994197
0.992228
0.992228
0.993787
0.998685
0.998685
0.998685
0.998685
0.998685
0.99866
0.997785
0.999732
0.999994
0.999983
0.999993
0.999993
0.999993
0.999953
0.999953
0.999953
0.997046
0.992228
0.992233
0.99839
0.998685
0.998685
0.998656
0.997398
0.99723
0.992267
0.997692
0.999994
0.999992
0.999993
0.999989
0.999966
0.999965
0.999909
0.999933
0.999901
0.994728
0.992236
0.996246
0.998685
0.998685
0.997339
0.995067
0.995066
0.992267
0.997192
0.999996
0.999997
0.999997
0.999958
0.999791
0.999785
0.999499
0.999363
0.999736
0.999561
0.998554
0.998129
0.997962
0.998685
0.997399
0.995212
0.998035
0.992267
0.998546
0.999997
0.999997
0.999997
0.999846
0.999791
0.999814
0.999405
0.999197
0.999408
0.999686
0.999686
0.999478
0.9965
0.997537
0.997208
0.998427
0.998435
0.997104
0.999764
0.999997
0.999994
0.999972
0.999975
0.999959
0.99993
0.999333
0.999685
0.999686
0.999686
0.999686
0.999686
0.996802
0.989945
0.989687
0.99834
0.998435
1
1
0.999997
0.999991
0.999995
0.999996
0.999996
0.999996
0.997258
0.996271
0.999686
0.999686
0.999674
0.998405
0.992821
0.996061
0.989687
0.997214
0.998435
1
1
0.999999
0.999998
0.999997
0.999996
0.999996
0.999996
0.992793
0.98619
0.99261
0.999686
0.999435
0.990086
0.989108
0.997225
0.989687
0.995962
0.998434
1
1
1
1
1
1
1
1
1
1
1
1
0.999999
0.999999
0.999999
0.999992
0.999975
0.996953
0.991632
0.988285
0.996437
0.999878
0.999921
0.9907
0.991405
0.991108
0.990146
0.98969
0.989817
0.989538
0.988772
0.987483
0.985466
0.982872
0.980084
0.978644
0.977956
0.978431
0.980456
0.982069
0.982
0.981452
0.98018
0.977583
0.974991
0.972127
0.367546
0.364944
0.362415
0.360063
0.356753
0.352292
0.348838
0.345664
0.342795
0.340338
0.33818
0.335868
0.332819
0.329021
0.324899
0.321295
0.320261
0.322498
0.324071
0.322686
0.3181
0.313536
0.311047
0.000788448
0.000843687
0.000907187
0.00090951
0.00110997
0.00164818
0.00132612
0.000975385
0.000694147
0.000497538
0.000396218
0.000365056
0.000316085
0.000315058
0.000313863
0.000312503
0.00031097
0.000309774
0.000309015
0.000308159
0.000307249
0.000306411
0.000305871
0.00054367
0.000847017
0.000906533
0.000801383
0.000989513
0.00164964
0.0020287
0.00215355
0.00221656
0.00227903
0.00227897
0.00227855
0.00212172
0.0020337
0.00193227
0.00178257
0.00152339
0.00105994
0.000552567
0.000562069
0.0006353
0.000635298
0.000506072
0.000274213
0.000287761
0.000245487
0.000232033
0.00026444
7.88125e-05
2.6638e-05
2.84214e-05
3.366e-05
1.81769e-05
1.9647e-07
5.63165e-08
5.63165e-08
8.39639e-08
1.59157e-07
2.42383e-07
2.90138e-07
0.000149474
0.000283176
0.000255863
0.000249975
0.000279805
0.000374942
5.27821e-06
5.55356e-07
7.51752e-06
3.97528e-07
2.44053e-07
1.02394e-07
7.68578e-08
6.16043e-08
5.31312e-08
5.31312e-08
5.31281e-08
1.08853e-06
3.9007e-05
6.26657e-05
6.26786e-05
4.23857e-05
1.00354e-05
1.12673e-06
5.93653e-09
4.88695e-09
1.97272e-05
4.81552e-05
6.9213e-05
2.36456e-09
2.33772e-09
9.68004e-09
2.97167e-07
1.10572e-06
1.41085e-06
6.3065e-07
1.01061e-07
6.19059e-07
8.46548e-07
2.12791e-07
3.15941e-06
3.87227e-05
4.74367e-05
3.00952e-05
1.59059e-05
9.72121e-06
4.48206e-06
9.95587e-07
4.88695e-09
4.88695e-09
4.88714e-09
4.8871e-09
2.33385e-09
2.33381e-09
2.33408e-09
6.63437e-08
9.30604e-07
1.81186e-06
1.8115e-06
9.0106e-07
1.69584e-06
2.70542e-06
2.1245e-06
7.31022e-07
5.38347e-10
5.37975e-10
5.57071e-10
7.58973e-06
9.61638e-06
1.95418e-06
5.29457e-09
5.29028e-09
5.57009e-09
4.88698e-09
4.88769e-09
2.33381e-09
2.33381e-09
2.33381e-09
2.3552e-09
3.06549e-07
1.81177e-06
1.72473e-06
2.99617e-07
2.52347e-06
2.70542e-06
2.11475e-06
4.12948e-10
5.55469e-10
1.71159e-08
2.99953e-08
2.89186e-07
1.14229e-06
2.37845e-07
5.30045e-09
7.66921e-09
1.3461e-08
6.61693e-09
5.62698e-09
2.87805e-09
4.72398e-09
1.47926e-08
2.34058e-09
1.90261e-08
4.40549e-07
3.3723e-07
1.1005e-07
2.03262e-06
2.70542e-06
7.8095e-07
4.12808e-10
4.12948e-10
1.55908e-07
8.53726e-07
9.44552e-07
1.31048e-07
1.17272e-08
1.60359e-08
2.59557e-08
2.58658e-08
1.5593e-08
1.47981e-08
6.74279e-09
9.26888e-08
1.01043e-07
5.5389e-09
5.15628e-10
5.16851e-10
1.39122e-09
7.87858e-09
1.85259e-06
2.11486e-06
4.12801e-10
4.12715e-10
4.12744e-10
9.47178e-08
4.1861e-06
5.73619e-06
4.32521e-06
1.1682e-08
1.16683e-08
1.60352e-08
2.57345e-08
1.02757e-08
4.33336e-09
8.68867e-09
1.05011e-07
1.05016e-07
1.56473e-08
5.14027e-10
5.15098e-10
1.2383e-07
1.34449e-06
1.62104e-06
4.07694e-07
4.12715e-10
4.12546e-10
3.66214e-10
1.00396e-07
4.01647e-06
5.73611e-06
5.73622e-06
4.39709e-06
5.90578e-09
5.90567e-09
6.09368e-09
6.10874e-09
4.22431e-09
5.44392e-09
8.63939e-08
1.05014e-07
1.30946e-08
4.86667e-10
1.5815e-08
9.74749e-07
1.58111e-06
1.3434e-06
3.49432e-10
5.84896e-10
7.22675e-10
3.61922e-10
1.74888e-10
1.20176e-07
3.57686e-06
5.73572e-06
3.99684e-06
5.90575e-09
5.90578e-09
7.08318e-09
1.14887e-08
7.29136e-09
1.85755e-09
1.07545e-08
4.43134e-08
4.73858e-09
4.84435e-10
1.82107e-08
1.27927e-06
1.58104e-06
6.99493e-07
3.49297e-10
7.01683e-10
7.77234e-10
4.11589e-10
6.65243e-11
2.44777e-09
1.31865e-07
5.02043e-07
4.30936e-07
2.26111e-08
5.90671e-09
1.31321e-08
1.27054e-08
9.34646e-09
3.3494e-10
3.3072e-10
3.72317e-10
5.01352e-10
4.84453e-10
1.92997e-08
5.62392e-07
8.92436e-07
1.56167e-08
3.49283e-10
7.99427e-10
7.52272e-10
2.31365e-10
6.65229e-11
6.33959e-11
5.918e-11
5.91796e-11
5.91818e-11
3.43699e-09
1.20471e-08
1.49653e-08
1.16494e-08
1.12776e-09
3.3072e-10
3.30695e-10
4.77428e-10
3.91117e-10
2.09815e-09
1.62304e-08
2.59136e-10
3.15507e-09
3.82997e-11
3.49297e-10
6.42685e-10
4.32466e-10
9.39071e-11
5.46327e-11
6.38499e-11
6.18184e-11
5.91818e-11
6.75336e-11
6.36575e-10
2.62941e-09
3.42315e-09
1.84528e-09
9.60186e-10
7.03368e-08
8.24931e-08
8.99187e-10
3.92717e-10
3.4859e-09
9.09903e-09
7.09547e-11
1.33399e-11
2.83557e-11
1.9406e-10
2.54268e-10
1.05953e-10
2.3291e-11
3.6614e-11
5.65881e-11
6.12787e-11
6.0487e-11
5.47193e-11
4.63132e-11
2.53056e-11
6.12706e-12
6.40208e-11
1.50019e-10
2.74958e-07
2.74486e-07
1.58325e-09
4.9146e-10
2.95724e-09
2.32965e-09
2.54914e-11
1.33319e-11
1.29605e-11
3.76477e-11
3.21953e-11
6.99863e-12
2.03611e-12
1.3366e-11
2.97061e-11
3.65284e-11
3.65244e-11
2.80557e-11
1.53534e-11
7.7181e-12
3.84827e-12
2.14925e-12
1.44255e-12
2.74963e-07
1.76743e-07
3.95299e-10
4.59891e-10
1.48838e-09
1.23517e-10
1.43262e-11
1.2e-11
2.84035e-12
1.42837e-12
6.83604e-13
3.94004e-14
1.59765e-14
1.17476e-12
5.27793e-12
7.51546e-12
7.07551e-12
4.44234e-12
2.21322e-12
1.21745e-12
7.19586e-13
3.07164e-13
2.29827e-13
2.74967e-07
1.99784e-08
4.12166e-11
3.02557e-10
3.55864e-10
8.69086e-12
9.54185e-12
7.40468e-12
9.18713e-14
-1.795e-13
-4.54414e-13
-6.66807e-13
-6.1917e-13
-1.77996e-13
1.25775e-13
2.5197e-13
2.08918e-13
9.44063e-14
3.88399e-14
1.85221e-14
7.823e-15
2.02381e-16
-2.55323e-16
2.75974e-07
3.73504e-11
3.73504e-11
1.13532e-10
4.7258e-11
4.11085e-12
3.37231e-12
1.69541e-12
-3.71765e-13
-8.18938e-13
-9.91709e-13
-1.04606e-12
-9.16344e-13
-6.25575e-13
-3.55194e-13
-2.1435e-13
-1.62699e-13
-1.41805e-13
-1.18512e-13
-9.22381e-14
-6.57448e-14
-4.35091e-14
-2.67563e-14
2.76483e-07
1.54107e-07
1.55634e-10
3.45763e-11
2.68309e-11
4.02412e-12
3.44736e-13
4.79746e-14
-6.09952e-13
-9.77207e-13
-1.08047e-12
-1.04672e-12
-8.94274e-13
-6.76686e-13
-4.74612e-13
-3.31929e-13
-2.42659e-13
-1.79929e-13
-1.30196e-13
-9.08841e-14
-6.09484e-14
-3.90525e-14
-2.37337e-14
2.76483e-07
2.76483e-07
5.18586e-10
2.96546e-11
2.87867e-11
4.2732e-12
1.48518e-13
-2.85845e-14
-5.03574e-13
-7.74073e-13
-8.50415e-13
-8.07845e-13
-6.86797e-13
-5.33367e-13
-3.90186e-13
-2.77203e-13
-1.95252e-13
-1.34597e-13
-8.97091e-14
-5.7928e-14
-3.66914e-14
-2.27624e-14
-1.3649e-14
2.76483e-07
2.76483e-07
4.62345e-10
3.71591e-11
3.90946e-11
5.50764e-12
5.82843e-13
2.90683e-13
-9.88092e-14
-3.17721e-13
-4.37143e-13
-4.65303e-13
-4.2232e-13
-3.40632e-13
-2.53795e-13
-1.79766e-13
-1.23088e-13
-8.06653e-14
-5.04605e-14
-3.03346e-14
-1.7901e-14
-1.05312e-14
-6.16804e-15
2.76483e-07
1.61338e-07
9.41614e-11
7.43145e-11
6.47291e-11
9.16482e-12
2.64078e-12
2.16936e-12
1.38864e-12
6.3277e-13
1.10967e-13
-1.02565e-13
-1.76857e-13
-1.76142e-13
-1.39316e-13
-9.89641e-14
-6.67832e-14
-4.22112e-14
-2.50421e-14
-1.40501e-14
-7.634e-15
-4.14838e-15
-2.30217e-15
1.70862e-07
5.15426e-09
6.16621e-11
1.61344e-10
1.05652e-10
1.69561e-11
8.09556e-12
7.45185e-12
5.92701e-12
3.81099e-12
1.90533e-12
5.97913e-13
3.94002e-14
-6.18848e-14
-6.55943e-14
-4.79671e-14
-3.2414e-14
-1.99861e-14
-1.13413e-14
-5.97844e-15
-2.99023e-15
-1.48255e-15
-7.50634e-16
2.83534e-09
8.12676e-11
1.27144e-10
2.14049e-10
1.33602e-10
2.9487e-11
1.83873e-11
1.73277e-11
1.43535e-11
1.00717e-11
5.53815e-12
2.15638e-12
4.75506e-13
1.20338e-15
-2.55335e-14
-2.08633e-14
-1.43811e-14
-8.7363e-15
-4.77082e-15
-2.37452e-15
-1.10099e-15
-5.03323e-16
-2.35662e-16
7.7549e-11
8.12351e-11
1.86718e-10
2.17511e-10
1.33934e-10
4.43463e-11
3.30461e-11
3.11311e-11
2.58696e-11
1.88973e-11
1.07992e-11
4.24198e-12
8.8908e-13
4.9066e-14
-6.37465e-15
-8.21261e-15
-5.92543e-15
-3.5697e-15
-1.88149e-15
-8.86885e-16
-3.86185e-16
-1.68482e-16
-7.62267e-17
7.7549e-11
7.92708e-11
1.79098e-10
1.95219e-10
1.17772e-10
5.29677e-11
4.69638e-11
4.56856e-11
3.84162e-11
2.84512e-11
1.6557e-11
6.19291e-12
1.05845e-12
5.11259e-14
-1.24363e-16
-2.96332e-15
-2.29931e-15
-1.37756e-15
-7.00644e-16
-3.14039e-16
-1.29579e-16
-5.36832e-17
-2.34038e-17
8.11709e-11
6.50031e-11
1.15383e-10
1.00041e-10
7.36389e-11
5.30636e-11
5.26756e-11
5.3677e-11
4.79889e-11
3.62292e-11
2.09735e-11
7.21032e-12
1.05242e-12
4.11697e-14
1.44882e-17
-1.02476e-15
-8.53251e-16
-5.07343e-16
-2.48276e-16
-1.05588e-16
-4.10562e-17
-1.61256e-17
-6.77111e-18
1.61146e-10
5.11974e-11
5.11833e-11
5.11832e-11
5.11944e-11
5.12411e-11
5.25482e-11
5.43557e-11
5.13693e-11
3.97342e-11
2.25253e-11
7.28397e-12
9.15849e-13
2.22571e-14
3.53081e-17
-3.50033e-16
-3.07512e-16
-1.79915e-16
-8.41067e-17
-3.36785e-17
-1.21936e-17
-4.49947e-18
-1.78689e-18
4.14557e-10
5.11833e-11
5.11832e-11
5.11831e-11
5.11831e-11
5.11831e-11
5.14743e-11
5.42925e-11
5.14854e-11
4.00254e-11
2.2419e-11
6.80182e-12
6.36305e-13
8.47995e-15
1.11842e-17
-1.21218e-16
-1.09022e-16
-6.18687e-17
-2.73026e-17
-1.01406e-17
-3.34825e-18
-1.13975e-18
-4.20652e-19
4.16101e-10
1.30582e-08
8.37615e-08
4.40406e-07
4.36845e-09
8.41894e-10
5.17167e-11
5.33589e-11
5.08017e-11
3.92743e-11
2.09959e-11
5.3599e-12
3.36258e-13
2.42035e-15
1.27616e-18
-4.3154e-17
-3.83308e-17
-2.06932e-17
-8.47596e-18
-2.85814e-18
-8.40101e-19
-2.5862e-19
-8.68098e-20
4.16275e-10
8.38365e-08
7.61789e-07
8.25074e-07
5.97196e-07
3.63366e-08
4.94349e-11
4.94256e-11
4.83437e-11
3.63798e-11
1.73336e-11
3.34128e-12
1.28571e-13
4.7939e-16
8.69514e-20
-1.59067e-17
-1.34068e-17
-6.72462e-18
-2.50349e-18
-7.47158e-19
-1.89756e-19
-5.13848e-20
-1.53466e-20
4.16543e-10
9.41672e-08
8.25074e-07
8.25074e-07
8.25074e-07
5.31461e-08
4.59709e-11
4.59454e-11
4.42412e-11
3.07387e-11
1.20364e-11
1.5658e-12
3.25376e-14
5.4433e-17
1.916e-21
-6.11434e-18
-4.66182e-18
-2.11715e-18
-6.99831e-19
-1.79793e-19
-3.80931e-20
-8.75427e-21
-2.26503e-21
4.1677e-10
2.43214e-08
5.68516e-07
8.25074e-07
3.95813e-07
1.51326e-08
4.62793e-11
4.50652e-11
3.86192e-11
2.28815e-11
6.66694e-12
5.06652e-13
4.73533e-15
2.98877e-18
-7.08436e-19
-2.44359e-18
-1.60662e-18
-6.44919e-19
-1.84856e-19
-3.97329e-20
-6.75792e-21
-1.25755e-21
-2.71511e-22
1.573e-09
2.12903e-09
2.78461e-08
1.91069e-07
1.1911e-08
6.97151e-10
5.89173e-11
4.50027e-11
3.08026e-11
1.41436e-11
2.66255e-12
9.71645e-14
3.29907e-16
7.16037e-20
-6.57735e-19
-9.82775e-19
-5.47712e-19
-1.90614e-19
-4.63448e-20
-8.10828e-21
-1.06245e-21
-1.5039e-22
-2.56319e-23
1.96654e-09
1.54807e-09
6.44739e-10
2.34235e-10
1.23726e-10
1.20666e-10
8.25983e-11
4.38891e-11
2.13191e-11
6.53089e-12
6.39474e-13
8.7695e-15
9.01425e-18
4.36165e-22
-3.8735e-19
-3.92827e-19
-1.85246e-19
-5.51323e-20
-1.1171e-20
-1.55538e-21
-1.51394e-22
-1.5058e-23
-1.85105e-24
5.52853e-10
1.23638e-09
8.65351e-10
3.71037e-10
2.11709e-10
1.56362e-10
8.75436e-11
3.68526e-11
1.16244e-11
1.87854e-12
7.07677e-14
2.82291e-16
8.33575e-20
-4.90999e-20
-2.0298e-19
-1.56406e-19
-6.25838e-20
-1.58225e-20
-2.64502e-21
-2.88929e-22
-2.03341e-23
-1.2981e-24
-9.92217e-26
-1.05669e-26
4.8505e-10
8.56371e-10
6.5937e-10
4.21453e-10
2.15393e-10
8.52091e-11
2.51627e-11
4.28405e-12
2.57984e-13
2.63003e-15
2.6135e-18
1.84561e-22
-5.80188e-20
-1.00819e-19
-6.22237e-20
-2.12975e-20
-4.58565e-21
-6.33239e-22
-5.41238e-23
-2.69817e-24
-1.00329e-25
-3.77798e-27
-2.09576e-27
4.95028e-11
4.6949e-10
5.61463e-10
4.10623e-10
2.03325e-10
6.30969e-11
9.794e-12
6.06005e-13
9.27121e-15
1.98846e-17
5.59346e-21
-8.19174e-21
-4.27065e-20
-4.82967e-20
-2.47957e-20
-7.36418e-21
-1.36978e-21
-1.59457e-22
-1.09707e-23
-4.06766e-25
-7.36046e-27
-8.08484e-29
0.999885
0.99991
0.999934
0.999961
0.974754
0.975338
0.975757
0.975662
0.312779
0.313538
0.31433
0.315095
0.000305441
0.000305871
0.000306237
0.00030682
0.000305149
0.000321202
0.000495841
0.000495897
0.000130472
7.96188e-05
0.000279368
0.000453259
0.000113893
7.09827e-05
8.34657e-05
4.70964e-05
4.88888e-09
1.87196e-07
1.83922e-08
1.24469e-08
4.90045e-09
7.08927e-07
3.83398e-06
4.44068e-06
1.32949e-06
1.42514e-05
2.10609e-05
2.1061e-05
1.39821e-05
2.10596e-05
2.1061e-05
2.10612e-05
4.10657e-09
6.37894e-06
1.96139e-05
2.10613e-05
4.10217e-09
4.08533e-09
4.04904e-09
3.82951e-07
1.26449e-08
1.26756e-08
4.03211e-09
2.33879e-09
3.20238e-08
3.71036e-08
3.71056e-08
3.99613e-08
1.59646e-09
2.68303e-09
8.39531e-09
6.34409e-08
4.4659e-10
2.66608e-13
2.50096e-13
1.32946e-09
6.06372e-11
3.28786e-12
2.4966e-13
8.09828e-14
4.67823e-13
3.63575e-13
3.12708e-13
1.31793e-13
2.21679e-13
2.10289e-13
1.50165e-13
8.71176e-14
1.83372e-15
2.53659e-15
7.54924e-16
-2.2394e-16
-1.52795e-14
-1.20952e-14
-9.60053e-15
-7.61334e-15
-1.37264e-14
-1.08496e-14
-8.65767e-15
-6.94511e-15
-7.75885e-15
-5.90376e-15
-4.56651e-15
-3.59106e-15
-3.52221e-15
-2.58847e-15
-1.90118e-15
-1.4106e-15
-1.35987e-15
-9.85853e-16
-7.04462e-16
-4.88574e-16
-4.73028e-16
-3.33394e-16
-2.36087e-16
-1.61018e-16
-1.5561e-16
-1.05949e-16
-7.22875e-17
-4.85999e-17
-4.95939e-17
-3.26754e-17
-2.1419e-17
-1.38967e-17
-1.48202e-17
-9.46814e-18
-5.99547e-18
-3.74499e-18
-4.14501e-18
-2.54765e-18
-1.54905e-18
-9.27283e-19
-1.04645e-18
-6.13326e-19
-3.55226e-19
-2.02377e-19
-2.33207e-19
-1.29066e-19
-7.04824e-20
-3.78177e-20
-4.49414e-20
-2.31887e-20
-1.1786e-20
-5.8766e-21
-7.2997e-21
-3.45666e-21
-1.60908e-21
-7.33273e-22
-9.69372e-22
-4.12776e-22
-1.72368e-22
-7.02765e-23
-1.01496e-22
-3.77816e-23
-1.37573e-23
-4.87562e-24
-7.99956e-24
-2.49576e-24
-7.60225e-25
-2.24673e-25
-4.45875e-25
-1.0858e-25
-2.58581e-26
-5.96768e-27
-1.58501e-26
-2.62651e-27
-4.31199e-28
-6.90935e-29
-2.91361e-28
-2.39942e-29
-2.03159e-30
-1.7364e-31
-1.33732e-30
-2.10045e-32
-3.32778e-34
-5.63174e-36
0.999998
0.999999
0.999998
0.999998
0.999229
0.996442
0.995926
0.997236
0.997235
0.984093
0.981176
0.981184
0.981176
0.982626
0.997088
0.997242
0.995017
0.99496
0.997674
0.97418
0.973538
0.972853
0.971974
0.971522
0.971678
0.971193
0.972248
0.981753
0.987173
0.989169
0.990717
0.992117
0.993571
0.995403
0.992303
0.991373
0.986227
0.984603
0.316589
0.32084
0.325935
0.332272
0.339607
0.347498
0.355033
0.360793
0.364303
0.37268
0.379003
0.382679
0.38595
0.386654
0.38547
0.388787
0.394076
0.399423
0.403129
0.000307474
0.00030799
0.000308615
0.000309488
0.000310331
0.000311096
0.000311854
0.000312573
0.000313198
0.000375149
0.000415458
0.000490472
0.000294184
0.0005504
0.000723901
0.000756429
0.000760662
0.000713524
0.000790644
0.000399927
0.000678269
0.000934986
0.000935296
0.000935425
0.000953241
0.00096454
0.000964579
0.000964569
0.000964578
0.000962593
0.000642521
0.000285604
0.000629824
0.000723023
0.00070947
0.000711199
0.000700421
0.000598803
0.000414673
0.00028939
0.000256297
0.00026608
0.000211891
0.000169148
0.000147239
0.000145295
0.000136465
6.31772e-05
8.48638e-06
3.75236e-05
0.000134428
0.000169417
0.000198287
0.000237507
0.000248592
0.000267896
0.000275003
2.79159e-05
2.96094e-05
9.71948e-09
9.71633e-09
9.73431e-09
1.33839e-08
1.45957e-07
1.78687e-07
2.13213e-07
3.32382e-06
1.31076e-05
1.28316e-05
2.15698e-05
7.34931e-06
7.16511e-07
5.16813e-07
5.16932e-07
5.16778e-07
5.16687e-07
9.74293e-09
9.73363e-09
9.71633e-09
1.55939e-08
5.7138e-06
3.1621e-05
3.83154e-05
2.46789e-05
1.9395e-05
4.18213e-05
5.04037e-05
5.04016e-05
4.72102e-05
9.45579e-06
5.16447e-07
5.16204e-07
5.16217e-07
5.16233e-07
5.16248e-07
2.5205e-06
9.7421e-09
9.73979e-09
2.37076e-07
2.76978e-05
4.34552e-05
4.34584e-05
4.34363e-05
4.21228e-05
3.80245e-05
4.81264e-05
5.04039e-05
4.99198e-05
5.34146e-06
5.16204e-07
5.1619e-07
5.16202e-07
5.16218e-07
5.16233e-07
2.10609e-05
4.28527e-06
1.15443e-08
3.87977e-07
1.61308e-05
2.49751e-05
4.80241e-06
5.05341e-08
4.91304e-08
4.70722e-08
1.28795e-06
1.76057e-05
2.35191e-05
1.11631e-05
1.62536e-06
5.16175e-07
5.1619e-07
5.17788e-07
5.18743e-07
2.1061e-05
2.10609e-05
9.38899e-06
8.37275e-08
1.97184e-08
2.42608e-09
2.42527e-09
4.59442e-07
6.13933e-07
4.66686e-08
4.73369e-08
1.10485e-06
9.96661e-06
1.2445e-05
2.31423e-06
5.16167e-07
5.16176e-07
5.18901e-07
5.18901e-07
2.10611e-05
2.10473e-05
1.43318e-05
2.12765e-09
2.12761e-09
3.91709e-09
4.4013e-07
7.72494e-07
7.29401e-07
4.32323e-08
4.67187e-08
1.98435e-06
7.34906e-06
1.24418e-05
5.16118e-07
5.16144e-07
5.16164e-07
5.18185e-07
5.16234e-07
3.09998e-06
5.16205e-06
2.12766e-09
2.12761e-09
2.12768e-09
1.80325e-08
5.07161e-08
5.84404e-08
2.5285e-10
2.52833e-10
2.52874e-10
2.69522e-10
3.427e-06
1.01609e-05
8.97531e-06
2.5099e-06
5.16175e-07
5.1619e-07
5.16204e-07
2.26987e-09
2.19894e-09
2.17263e-09
2.17554e-09
3.85624e-09
3.31701e-09
2.52848e-10
2.52853e-10
2.52833e-10
2.56748e-10
2.56414e-10
2.73538e-10
3.79339e-06
8.42564e-06
9.04226e-06
7.61332e-06
5.1619e-07
5.16204e-07
5.26742e-07
6.24685e-08
8.29579e-08
3.75432e-08
1.15265e-09
1.15029e-09
9.53537e-10
5.52646e-10
2.64264e-10
3.0616e-10
6.83384e-10
7.38067e-10
4.68652e-10
5.19566e-11
2.51457e-08
1.38894e-06
1.28271e-06
4.43335e-06
8.24769e-06
8.44066e-06
2.16504e-07
2.43516e-07
2.43516e-07
7.46257e-08
4.29693e-09
3.17413e-10
7.1288e-10
2.18066e-09
2.61666e-09
6.795e-10
6.41029e-10
2.96602e-10
5.19566e-11
5.19566e-11
5.66833e-11
1.37702e-06
1.22526e-05
1.22526e-05
1.22525e-05
1.03219e-07
2.43516e-07
2.43482e-07
2.43448e-07
1.09731e-07
3.17413e-10
9.07961e-09
4.10811e-08
4.06125e-08
5.44481e-09
4.60641e-11
4.6642e-11
5.36708e-11
5.3551e-11
5.72233e-11
1.44334e-06
9.45893e-06
1.02854e-05
4.28037e-06
2.99693e-14
4.63724e-08
2.09149e-07
2.43288e-07
1.36242e-07
3.25001e-10
1.97924e-08
6.4311e-08
6.43138e-08
4.6572e-08
4.60203e-11
4.60008e-11
6.94133e-11
6.29705e-11
1.92895e-09
3.1309e-08
1.11178e-12
1.11178e-12
1.11178e-12
2.98178e-14
1.17632e-33
-2.09658e-37
1.94447e-08
8.39431e-09
2.36185e-09
1.84339e-08
6.4311e-08
6.43011e-08
5.91508e-08
5.73896e-09
3.42387e-11
4.69134e-11
7.02029e-11
3.22652e-10
1.11178e-12
1.11178e-12
1.11178e-12
1.11185e-12
3.46886e-14
-8.73472e-17
-1.09775e-16
0
6.30269e-19
4.14011e-16
8.50439e-10
1.168e-08
2.93803e-08
1.06968e-08
5.44472e-10
3.4216e-11
4.74959e-11
1.55715e-11
3.74839e-12
1.11178e-12
1.11259e-12
1.12694e-12
1.14356e-12
-7.55688e-16
-8.2971e-16
-5.32303e-16
2.6807e-17
8.15235e-16
8.15479e-16
8.2107e-16
8.36831e-16
8.69871e-16
9.34063e-16
1.02987e-15
1.34205e-11
4.98977e-11
4.94095e-12
1.33188e-12
1.1453e-12
1.1815e-12
1.08112e-11
1.01746e-11
-6.0388e-15
-3.18068e-15
-1.51551e-15
-2.84217e-17
2.59083e-15
1.64884e-14
3.4471e-14
7.1365e-14
1.29863e-13
1.70646e-13
2.30264e-13
6.18885e-13
1.15705e-12
5.40094e-13
2.83977e-13
6.47e-13
1.43013e-12
2.1874e-10
9.63649e-07
-5.55628e-15
-3.19102e-15
-1.79644e-15
-9.59314e-16
-4.20039e-16
0
1.28365e-15
2.77803e-14
1.10334e-13
1.51236e-13
1.72218e-13
3.62031e-13
4.59832e-13
1.48265e-13
6.63552e-14
4.84793e-13
1.92901e-12
1.11888e-12
2.1452e-06
-2.84176e-15
-1.66531e-15
-9.68499e-16
-5.58281e-16
-3.15928e-16
-1.71207e-16
-7.79427e-17
0
5.22293e-16
4.10673e-15
7.68268e-15
1.47469e-14
4.66904e-14
1.97063e-14
2.19756e-14
4.41495e-13
2.16783e-12
1.1188e-12
2.14526e-06
-1.0622e-15
-6.08329e-16
-3.48167e-16
-1.99101e-16
-1.13765e-16
-6.56506e-17
-3.73088e-17
-1.90496e-17
-3.55755e-18
8.94051e-18
5.87281e-17
1.87439e-16
5.64368e-16
1.96862e-15
1.20599e-14
4.35348e-13
2.21502e-12
1.11881e-12
2.14518e-06
-3.24125e-16
-1.78566e-16
-9.80622e-17
-5.42801e-17
-3.05433e-17
-1.73459e-17
-9.70695e-18
-5.02608e-18
-1.86222e-18
8.98754e-19
1.25146e-17
5.95206e-17
2.96498e-16
1.4699e-15
1.11158e-14
4.24706e-13
2.21273e-12
1.11887e-12
2.10793e-06
-8.71443e-17
-4.51992e-17
-2.39137e-17
-1.28886e-17
-6.99642e-18
-3.70783e-18
-1.75799e-18
-3.12392e-19
1.67586e-19
3.24374e-18
1.2918e-17
5.58199e-17
2.78043e-16
1.40519e-15
1.11545e-14
4.13695e-13
2.23214e-12
1.11896e-12
4.16756e-07
-2.28212e-17
-1.07684e-17
-5.22471e-18
-2.59369e-18
-1.2508e-18
-3.99747e-19
1.3792e-19
1.91708e-18
1.1651e-17
3.78689e-17
8.09171e-17
1.41808e-16
3.87e-16
1.91955e-15
2.30229e-14
4.23304e-13
2.54636e-12
1.1891e-12
1.18912e-12
-5.88553e-18
-2.47569e-18
-1.06375e-18
-4.57597e-19
-6.99401e-20
5.44006e-19
5.4724e-18
2.94378e-17
1.12917e-16
3.25406e-16
6.94582e-16
1.44718e-15
4.43921e-15
2.29613e-14
1.47306e-13
7.50301e-13
3.20303e-12
1.18912e-12
9.85846e-08
-1.47055e-18
-5.61718e-19
-2.14029e-19
-6.64082e-20
2.52552e-19
4.93893e-18
3.58957e-17
1.74899e-16
6.67661e-16
2.16095e-15
6.96562e-15
3.01991e-14
1.29071e-13
4.82587e-13
1.20349e-12
2.70047e-12
4.57184e-12
1.18918e-12
1.84895e-06
-3.39531e-19
-1.19504e-19
-4.05943e-20
7.46652e-21
1.00778e-18
1.62503e-17
1.59079e-16
8.81003e-16
4.22572e-15
2.07539e-14
1.28197e-13
7.09784e-13
2.4763e-12
5.88574e-12
7.7011e-12
9.50043e-12
8.95658e-12
1.19158e-12
2.28427e-06
-6.873e-20
-2.2312e-20
-6.36302e-21
4.36158e-20
1.76895e-18
3.90427e-17
5.4465e-16
4.34851e-15
3.22087e-14
2.23735e-13
1.46767e-12
6.57808e-12
1.7655e-11
3.00382e-11
3.01053e-11
2.63551e-11
2.31195e-11
1.19296e-12
2.28432e-06
-1.17586e-20
-3.48024e-21
-4.74144e-22
4.88975e-20
2.46625e-18
6.76986e-17
1.30948e-15
1.74267e-14
1.73206e-13
1.25097e-12
6.73503e-12
2.41018e-11
5.27903e-11
7.08487e-11
7.05981e-11
5.56478e-11
5.57365e-11
1.19565e-12
2.25198e-06
-1.6447e-21
-4.34954e-22
1.95606e-22
4.85562e-20
2.77652e-18
8.74344e-17
2.17791e-15
4.52704e-14
4.93285e-13
3.31247e-12
1.46998e-11
4.50654e-11
8.54028e-11
9.85824e-11
1.06273e-10
1.04488e-10
1.2227e-10
1.2052e-12
2.25195e-06
-1.81033e-22
-4.12932e-23
1.69841e-22
3.31131e-20
2.76866e-18
9.30777e-17
2.67391e-15
7.45866e-14
8.11793e-13
5.04432e-12
1.97229e-11
5.48978e-11
9.63817e-11
1.04383e-10
1.16912e-10
3.07044e-10
3.89568e-10
1.22996e-12
2.25171e-06
-1.49326e-23
-2.64157e-24
6.67141e-23
1.4763e-20
1.84616e-18
7.95098e-17
2.74314e-15
8.73745e-14
9.34839e-13
5.58024e-12
2.0671e-11
5.39684e-11
9.21388e-11
8.19021e-11
8.10882e-11
1.72679e-09
2.05896e-09
1.31668e-12
1.14991e-06
-8.63798e-25
-5.39187e-26
2.40359e-23
5.52682e-21
7.3961e-19
3.58518e-17
1.85652e-15
8.47993e-14
8.79325e-13
4.81515e-12
1.51385e-11
2.87869e-11
5.51229e-11
3.22832e-11
2.33794e-13
4.6021e-09
5.2861e-09
1.79447e-12
2.55304e-07
-3.17702e-26
1.88207e-26
5.77376e-24
1.66624e-21
2.32205e-19
1.0377e-17
6.004e-16
4.34467e-14
4.15217e-13
1.96299e-12
5.12146e-12
7.99596e-12
1.51543e-11
5.37571e-12
2.31298e-13
5.82982e-09
6.12779e-09
3.19521e-12
5.41263e-07
-6.30304e-28
2.82545e-27
8.39662e-25
3.3113e-22
5.35608e-20
2.28061e-18
1.18663e-16
1.04474e-14
9.36042e-14
4.03884e-13
9.35262e-13
1.4158e-12
2.4079e-12
2.28421e-13
2.28611e-13
3.11482e-09
5.32843e-09
2.23884e-09
7.95603e-07
-4.83846e-30
2.20699e-28
6.4642e-26
3.75558e-23
7.10144e-21
3.26759e-19
1.51724e-17
1.41011e-15
1.18827e-14
4.7355e-14
1.00195e-13
1.48897e-13
2.27772e-13
1.32845e-15
3.94181e-11
3.10826e-10
1.21631e-09
1.1598e-22
7.95569e-07
-6.46622e-33
1.30907e-32
1.14251e-27
2.01817e-24
3.96037e-22
2.04329e-20
9.89691e-19
8.85747e-17
6.99174e-16
2.5719e-15
5.08473e-15
7.44665e-15
9.89698e-15
1.02327e-15
3.84212e-12
2.20905e-19
1.1598e-22
2.02872e-24
7.73922e-07
-4.44648e-38
-3.80028e-40
1.59844e-35
2.67579e-30
5.79949e-27
1.67233e-24
3.57196e-22
3.21168e-20
1.82321e-19
6.02709e-19
1.1313e-18
1.52362e-18
6.39644e-19
1.69505e-20
2.82312e-15
5.8574e-17
4.16864e-21
0
6.97364e-07
)
;

boundaryField
{
    leftWall
    {
        type            zeroGradient;
    }
    rightWall
    {
        type            zeroGradient;
    }
    lowerWall
    {
        type            zeroGradient;
    }
    atmosphere
    {
        type            inletOutlet;
        inletValue      uniform 0;
        value           nonuniform List<scalar> 
46
(
0
4.95028e-11
4.6949e-10
5.61463e-10
4.10623e-10
2.03325e-10
6.30969e-11
9.794e-12
6.06005e-13
9.27121e-15
1.98846e-17
5.59346e-21
-8.19174e-21
-4.27065e-20
-4.82967e-20
-2.47957e-20
-7.36418e-21
-1.36978e-21
-1.59457e-22
-1.09707e-23
-4.06766e-25
0
0
0
0
0
0
0
0
0
0
0
0
0
0
0
0
0
0
0
0
0
0
0
0
6.97364e-07
)
;
    }
    defaultFaces
    {
        type            empty;
    }
}


// ************************************************************************* //
