/*--------------------------------*- C++ -*----------------------------------*\
  =========                 |
  \\      /  F ield         | OpenFOAM: The Open Source CFD Toolbox
   \\    /   O peration     | Website:  https://openfoam.org
    \\  /    A nd           | Version:  9
     \\/     M anipulation  |
\*---------------------------------------------------------------------------*/
FoamFile
{
    format      ascii;
    class       volScalarField;
    location    "7.94";
    object      k;
}
// * * * * * * * * * * * * * * * * * * * * * * * * * * * * * * * * * * * * * //

dimensions      [0 2 -2 0 0 0 0];

internalField   nonuniform List<scalar> 
2268
(
0.000115192
0.00029312
0.000430756
0.000538754
0.000627682
0.00070253
0.000766127
0.000820331
0.000866515
0.000906404
0.000942233
0.000975551
0.0010063
0.00103064
0.00103969
0.00101833
0.000954998
0.000868075
0.000764577
0.000660113
0.000565195
0.000423877
0.000206464
0.000252857
0.000683862
0.000970362
0.00119789
0.00138587
0.00154384
0.00167761
0.00179123
0.00188792
0.00197094
0.00204362
0.00210802
0.00216279
0.00220118
0.00220968
0.00216901
0.00206462
0.00190735
0.00171764
0.00151549
0.00130579
0.000973878
0.00045817
0.000362752
0.000916544
0.00126981
0.00155032
0.00178273
0.00197814
0.00214348
0.0022838
0.00240321
0.00250559
0.00259451
0.0026718
0.00273561
0.00277859
0.0027872
0.00274366
0.00263635
0.00247506
0.00227538
0.00204793
0.00178092
0.0013627
0.000642356
0.000457067
0.00110422
0.00150212
0.00181614
0.00207653
0.0022955
0.00248069
0.00263778
0.00277145
0.00288591
0.00298482
0.00306983
0.00313889
0.00318483
0.00319523
0.00315486
0.00305427
0.00290165
0.00270907
0.00247959
0.00219238
0.00173493
0.000828696
0.000539761
0.00127064
0.00170519
0.00204464
0.00232563
0.00256173
0.00276121
0.00293034
0.00307421
0.00319732
0.00330336
0.00339392
0.003467
0.00351596
0.00352988
0.00349612
0.00340684
0.00326835
0.00309084
0.00287221
0.00258527
0.00211622
0.00103713
0.000614708
0.00142425
0.00189192
0.00225274
0.00255024
0.00279967
0.00301006
0.00318828
0.00333984
0.00346947
0.00358096
0.00367596
0.00375265
0.00380513
0.00382407
0.00379916
0.00372411
0.00360328
0.00344584
0.00324645
0.00297513
0.00251503
0.00130406
0.000684681
0.00156955
0.00206841
0.00244828
0.00275974
0.00301997
0.0032389
0.00342408
0.00358149
0.00371615
0.00383201
0.00393079
0.00401103
0.00406761
0.00409276
0.00407819
0.00401932
0.00391888
0.00378453
0.00360997
0.00336746
0.002948
0.00167678
0.000752514
0.00170997
0.00223848
0.00263579
0.00295947
0.00322864
0.00345423
0.00364465
0.00380646
0.003945
0.00406441
0.00416658
0.00425041
0.00431164
0.00434387
0.00434058
0.00429893
0.00422099
0.00411127
0.00396433
0.00375982
0.00341855
0.0023335
0.000267929
0.00061507
0.000824364
0.000916683
0.000966693
0.000989439
0.000997377
0.000996716
0.000962844
0.00088403
0.000780648
0.000664629
0.000574693
0.00056468
0.000557495
0.000516184
0.000400997
0.000279453
0.000120646
0.000479514
0.00126191
0.00169354
0.00191283
0.00202817
0.00208708
0.00211001
0.00209709
0.00202439
0.00188395
0.00169194
0.00147972
0.00132148
0.00127481
0.00122526
0.00110308
0.000870946
0.000591532
0.000232753
0.00057601
0.00159218
0.00212992
0.00240908
0.00255747
0.00263331
0.00266209
0.00264317
0.00255646
0.00240153
0.00219738
0.00197234
0.00179114
0.00169372
0.00159755
0.00143344
0.00114917
0.000783966
0.000338412
0.000697167
0.00186301
0.00246869
0.00277843
0.0029416
0.00302399
0.00305359
0.00302985
0.00293635
0.00277711
0.0025736
0.00235223
0.00216058
0.00202458
0.00189073
0.00169869
0.00138654
0.000969442
0.000442194
0.000866286
0.00215404
0.00278967
0.0031045
0.00326824
0.00334964
0.00337657
0.00334841
0.00325162
0.00309252
0.00289463
0.00268037
0.00248245
0.00231746
0.00215337
0.00193961
0.00161088
0.00116511
0.00054486
0.00111223
0.00250045
0.00311674
0.00341323
0.00356609
0.00364078
0.00366253
0.00363026
0.00353273
0.00337708
0.00318679
0.00298
0.00277739
0.00258981
0.00240117
0.00216778
0.00182489
0.00136536
0.000649119
0.00149945
0.00290691
0.00345281
0.00371252
0.00384667
0.00391069
0.00392552
0.00388953
0.00379326
0.00364412
0.00346253
0.00326249
0.00305584
0.00285019
0.00263994
0.00238602
0.00202771
0.00155998
0.000759232
0.00219663
0.00335921
0.00379083
0.00400355
0.00411485
0.00416585
0.00417274
0.00413339
0.00403982
0.00390033
0.00372868
0.0035344
0.00332387
0.00310334
0.0028711
0.00259434
0.00221937
0.00173928
0.000881979
0.000853369
0.00191984
0.00249377
0.00291722
0.00325851
0.00353981
0.00377369
0.00397015
0.00413718
0.00428074
0.00440513
0.00451234
0.00460189
0.00467085
0.00471505
0.00473077
0.00471653
0.00467471
0.00460457
0.0045008
0.00435482
0.0041402
0.00371997
0.000982895
0.00219707
0.00283039
0.00328671
0.00364934
0.0039433
0.00418288
0.00438122
0.00455041
0.00469774
0.00482726
0.00494091
0.00503894
0.00511967
0.00518029
0.00521857
0.00523466
0.00523072
0.00520392
0.00514633
0.00505578
0.00493405
0.00476507
0.00113409
0.00249556
0.00318424
0.00366686
0.00404879
0.00435366
0.00459232
0.00478247
0.00494735
0.0050953
0.00522808
0.00534679
0.00545189
0.00554243
0.00561581
0.00567116
0.00571065
0.00573558
0.00574139
0.00571937
0.00566685
0.00559557
0.00551999
0.00135765
0.0028685
0.00360421
0.00409069
0.00449249
0.00480951
0.00503669
0.00519981
0.00535186
0.00549699
0.00562967
0.00574964
0.00585809
0.00595455
0.00603331
0.0060954
0.00615067
0.00619838
0.00623049
0.00623846
0.00621045
0.00616197
0.00612133
0.0017576
0.00322732
0.00387471
0.00436499
0.00474731
0.00506415
0.00531075
0.00549561
0.00567613
0.00584787
0.0060031
0.00614864
0.00627364
0.00637774
0.00645239
0.00650195
0.00656502
0.00663878
0.00669952
0.00671846
0.00668512
0.00663953
0.00659474
0.00161344
0.00311067
0.00395839
0.00460039
0.00490016
0.00519495
0.00547499
0.00567033
0.00586162
0.00605051
0.00623713
0.00641877
0.00659039
0.00674431
0.0068218
0.00684477
0.00690166
0.00696793
0.00701527
0.00705707
0.00704863
0.00701367
0.00699928
0.00219111
0.00315847
0.00399223
0.00458128
0.00495767
0.00531141
0.00560168
0.00582369
0.00602956
0.00622704
0.00641708
0.00659844
0.00676976
0.00692381
0.00702066
0.00707822
0.00713694
0.00719614
0.00724474
0.00728511
0.00730297
0.00730035
0.00730982
0.0024064
0.00324069
0.00401151
0.00456536
0.00499577
0.00537277
0.0056771
0.00593916
0.00617496
0.00638876
0.00658664
0.00676962
0.00694045
0.0070936
0.00721335
0.00730348
0.0073767
0.00743291
0.00748125
0.00752286
0.00755325
0.00757189
0.00758807
0.00240079
0.00328335
0.0040211
0.00457238
0.00502409
0.00541466
0.005745
0.0060342
0.00629325
0.00652734
0.00674099
0.00693681
0.00712013
0.00728742
0.0074236
0.00752804
0.00761067
0.0076739
0.00772577
0.00777057
0.0078078
0.00783668
0.00785794
0.00241032
0.0033096
0.00403789
0.00459595
0.00506053
0.00546275
0.00581204
0.00612151
0.00640005
0.00665324
0.0068847
0.00709777
0.00729687
0.00747685
0.0076256
0.00774322
0.00783799
0.00791298
0.00797248
0.00802198
0.00806437
0.0080999
0.00812723
0.00240079
0.00333067
0.00406148
0.00462934
0.00510525
0.00551907
0.00588359
0.00620967
0.00650557
0.00677636
0.0070248
0.00725374
0.00746561
0.00765559
0.007816
0.00794791
0.00805776
0.00814726
0.00821837
0.0082765
0.00832628
0.00836872
0.00840251
0.00240825
0.00334777
0.00408986
0.00466938
0.00515695
0.00558261
0.00596086
0.00630189
0.00661337
0.00689973
0.00716301
0.00740552
0.00762837
0.00782847
0.00800158
0.00814875
0.0082743
0.00837943
0.0084651
0.00853568
0.00859603
0.00864752
0.00868913
0.00240192
0.00336671
0.00412316
0.00471528
0.00521481
0.00565253
0.00604386
0.0063988
0.00672431
0.00702428
0.00730058
0.00755545
0.00778957
0.00800119
0.00818831
0.00835171
0.00849349
0.00861497
0.00871691
0.00880257
0.00887612
0.00893894
0.00899024
0.00241076
0.00338986
0.00416221
0.0047673
0.00527884
0.00572858
0.00613262
0.00650067
0.00683906
0.00715149
0.0074403
0.00770753
0.00795383
0.00817849
0.00838078
0.00856114
0.0087203
0.00885919
0.00897868
0.00908128
0.00917005
0.00924616
0.00930896
0.00240606
0.00341777
0.00420748
0.00482586
0.00534941
0.00581104
0.00622742
0.00660802
0.00695879
0.00728361
0.00758529
0.0078657
0.0081256
0.00836488
0.00858339
0.00878135
0.008959
0.00911667
0.00925513
0.00937628
0.00948217
0.00957359
0.00964991
0.00240365
0.0034505
0.00425904
0.00489122
0.0054269
0.00590033
0.00632875
0.00672169
0.00708503
0.00742294
0.00773841
0.00803324
0.00830832
0.00856389
0.00879997
0.00901665
0.00921393
0.00939187
0.00955098
0.00969247
0.00981756
0.00992658
0.0100187
0.00240279
0.00348621
0.00431699
0.00496347
0.00551148
0.0059968
0.00643729
0.00684281
0.00721945
0.00757153
0.00790203
0.00821278
0.00850477
0.0087784
0.00903377
0.00927084
0.00948945
0.00968951
0.00987122
0.0100352
0.0101818
0.0103109
0.0104216
0.00240166
0.00352793
0.00438109
0.00504243
0.00560318
0.00610079
0.00655384
0.00697266
0.00736366
0.00773119
0.00807823
0.00840663
0.00871745
0.00901118
0.00928792
0.00954754
0.00978975
0.0100143
0.010221
0.0104098
0.0105807
0.0107328
0.010865
0.00241024
0.00357468
0.004451
0.00512786
0.005702
0.00621263
0.00667915
0.00711239
0.00751904
0.00790355
0.00826887
0.00861692
0.0089488
0.00926501
0.00956564
0.00985045
0.010119
0.0103709
0.0106054
0.0108222
0.0110205
0.011199
0.0113561
0.00240286
0.00362604
0.00452627
0.00521952
0.00580795
0.00633266
0.00681388
0.00726294
0.00768682
0.00809009
0.00847577
0.00884579
0.00920128
0.00954277
0.00987027
0.0101835
0.0104817
0.0107643
0.0110303
0.0112786
0.011508
0.0117167
0.0119028
0.00240746
0.00367957
0.00460644
0.0053172
0.00592108
0.00646116
0.00695855
0.0074251
0.00786809
0.00829224
0.00870066
0.00909534
0.00947745
0.00984747
0.0102054
0.0105507
0.0108826
0.0112
0.0115017
0.0117859
0.0120509
0.0122945
0.0125141
0.00240883
0.00373684
0.00469133
0.00542077
0.0060414
0.00659833
0.00711361
0.00759958
0.00806384
0.00851133
0.00894527
0.00936774
0.00977992
0.0101823
0.0105748
0.0109567
0.0113269
0.0116841
0.0120265
0.0123519
0.0126578
0.0129416
0.0132001
0.00240803
0.00379777
0.00478066
0.00553008
0.00616889
0.00674436
0.00727942
0.00778699
0.00827502
0.00874865
0.00921131
0.00966516
0.0101115
0.0105507
0.0109825
0.0114063
0.0118205
0.0122233
0.0126125
0.0129852
0.0133385
0.0136687
0.0139724
0.00240728
0.0038618
0.0048743
0.00564491
0.00630348
0.00689931
0.00745629
0.00798789
0.00850246
0.00900544
0.00950046
0.00998985
0.0104749
0.0109561
0.0114331
0.0119049
0.0123697
0.0128252
0.0132684
0.0136959
0.0141039
0.014488
0.0148439
0.0024101
0.0039284
0.00497172
0.00576498
0.00644501
0.00706318
0.00764438
0.0082027
0.00874692
0.00928285
0.00981437
0.010344
0.0108732
0.0114025
0.0119313
0.0124584
0.0129816
0.013498
0.014004
0.0144951
0.0149665
0.0154132
0.0158296
0.00241206
0.0039972
0.00507257
0.00588996
0.00659321
0.00723583
0.00784373
0.00843168
0.00900899
0.00958186
0.0101546
0.0107298
0.0113094
0.0118936
0.012482
0.013073
0.013664
0.0142512
0.0148301
0.0153952
0.0159406
0.0164598
0.0169464
0.00240963
0.00406851
0.00517628
0.00601937
0.00674766
0.00741691
0.00805415
0.00867489
0.00928903
0.00990328
0.0105223
0.0111493
0.0117862
0.0124335
0.0130906
0.0137556
0.0144252
0.0150949
0.0157589
0.0164104
0.017042
0.0176456
0.0182134
0.00240881
0.00414161
0.00528206
0.0061524
0.00690766
0.00760584
0.0082752
0.00893209
0.00958708
0.0102475
0.0109187
0.0116042
0.0123063
0.0130258
0.0137621
0.0145129
0.0152742
0.0160403
0.016804
0.0175567
0.018289
0.0189909
0.0196526
0.00241207
0.00421422
0.00538975
0.00628829
0.0070722
0.00780163
0.00850604
0.00920264
0.0099028
0.0106146
0.0113441
0.0120956
0.0128719
0.0136742
0.0145018
0.0153521
0.0162203
0.0170994
0.0179802
0.0188518
0.0197022
0.0205187
0.0212892
0.00240756
0.00428629
0.00549741
0.00642549
0.00723989
0.00800298
0.00874542
0.00948541
0.0102352
0.0110039
0.0117984
0.0126241
0.0134844
0.0143812
0.015314
0.0162799
0.0172732
0.018285
0.0193038
0.0203157
0.0213051
0.0222559
0.0231525
0.0024095
0.00435943
0.00560371
0.00656223
0.00740891
0.00820809
0.00899161
0.00977867
0.0105827
0.0114138
0.0122803
0.0131888
0.0141439
0.0151483
0.0162022
0.0173023
0.0184419
0.0196103
0.0207926
0.0219708
0.0231247
0.0242334
0.0252767
0.00241362
0.00442657
0.00570556
0.00669585
0.00757685
0.00841468
0.00924231
0.0100801
0.0109426
0.0118418
0.0127873
0.0137875
0.0148488
0.0159752
0.0171679
0.0184237
0.019735
0.0210885
0.0224655
0.0238423
0.0251922
0.0264875
0.0277021
0.00240593
0.00448615
0.00579931
0.00682311
0.00774085
0.00862002
0.00949469
0.0103865
0.0113116
0.0122838
0.0133151
0.0144159
0.0155951
0.0168589
0.01821
0.019646
0.0211587
0.0227319
0.0243421
0.025958
0.0275436
0.0290616
0.0304771
0.00241179
0.00453354
0.00588019
0.00694015
0.00789769
0.00882105
0.00974546
0.010694
0.0116851
0.0127346
0.0138574
0.0150671
0.0163757
0.0177925
0.0193231
0.0209669
0.0227156
0.0245505
0.0264419
0.0283487
0.0302214
0.0320079
0.0336608
0.00240744
0.00455911
0.00594283
0.007043
0.00804411
0.00901462
0.00999094
0.0109981
0.0120571
0.0131867
0.0144055
0.0157308
0.0171791
0.0187642
0.020496
0.0223775
0.024402
0.0265492
0.0287825
0.0310476
0.0332752
0.0353908
0.0373269
0.00241163
0.00456177
0.00598244
0.00712815
0.00817733
0.00919778
0.0102272
0.0112934
0.0124204
0.013631
0.0149477
0.016393
0.0179889
0.0197555
0.0217091
0.0238594
0.0262041
0.0287237
0.0313755
0.0340883
0.0367643
0.0392917
0.0415697
0.00240431
0.00452881
0.00599362
0.00719311
0.00829587
0.00936832
0.0104505
0.0115739
0.0127667
0.014056
0.0154695
0.0170355
0.0187827
0.0207396
0.0229322
0.0253803
0.0280916
0.0310531
0.0342195
0.0375012
0.0407588
0.0438171
0.0465139
0.00240581
0.004452
0.00597167
0.00723772
0.00840027
0.00952515
0.0106571
0.0118329
0.0130859
0.0144484
0.0159534
0.0176356
0.0195318
0.0216808
0.0241215
0.0268895
0.0300103
0.033488
0.0372862
0.0413023
0.0453407
0.0491143
0.0523314
0.00240769
0.00433037
0.00591596
0.00726584
0.00849352
0.00966784
0.0108427
0.0120626
0.0133669
0.014793
0.0163793
0.0181671
0.0202018
0.022534
0.0252184
0.0283126
0.031871
0.0359322
0.0404942
0.0454671
0.0505988
0.0554048
0.0592707
0.00376134
0.00429681
0.0058354
0.00728306
0.00857852
0.00979426
0.0110009
0.0122533
0.0135969
0.0150735
0.0167261
0.0186019
0.0207546
0.0232465
0.0261504
0.0295502
0.0335402
0.0382177
0.0436608
0.0498659
0.0565958
0.0630725
0.0677094
0.0176944
0.00569886
0.00574955
0.00728448
0.00865138
0.0098965
0.0111213
0.0123932
0.0137623
0.0152736
0.0169731
0.0189124
0.0211519
0.023764
0.0268374
0.0304827
0.0348386
0.0400811
0.0464267
0.0541079
0.0632115
0.0729356
0.078232
0.0840123
0.0138263
0.00585749
0.00727118
0.00869838
0.00995799
0.0111889
0.0124687
0.01385
0.0153787
0.0171025
0.0190753
0.021361
0.0240382
0.0272053
0.0309903
0.0355649
0.0411721
0.0481807
0.0572056
0.0693971
0.0871906
0.0916494
0.00263404
0.00226552
0.00223222
0.00250039
0.00459387
0.00451313
0.00449235
0.00453356
0.00547771
0.00545516
0.00543949
0.00543255
0.00612717
0.00612547
0.00610648
0.00607843
0.0065969
0.00660811
0.00660919
0.006578
0.0070217
0.00703079
0.00703041
0.00701434
0.00733899
0.00735757
0.00736492
0.0073479
0.00760716
0.00761942
0.00762507
0.00761681
0.00787143
0.00787862
0.00788165
0.00787787
0.00814159
0.0081484
0.00815126
0.00814891
0.0084202
0.00842852
0.00843249
0.0084315
0.00871136
0.00872217
0.00872843
0.00872958
0.00901831
0.00903247
0.00904189
0.00904608
0.00934427
0.00936271
0.00937612
0.00938411
0.00969392
0.00971762
0.00973595
0.0097486
0.0100732
0.0101032
0.0101275
0.0101459
0.0104884
0.010526
0.0105575
0.0105828
0.0109464
0.010993
0.0110333
0.0110669
0.0114547
0.011512
0.0115626
0.0116062
0.0120216
0.0120914
0.0121542
0.0122095
0.0126564
0.0127409
0.0128179
0.0128871
0.0133697
0.0134714
0.013565
0.0136503
0.0141737
0.0142952
0.0144081
0.014512
0.015082
0.0152264
0.0153616
0.0154871
0.0161101
0.016281
0.0164418
0.0165921
0.0172757
0.0174771
0.0176674
0.017846
0.018599
0.0188353
0.0190593
0.0192703
0.0201029
0.0203793
0.0206417
0.0208895
0.0218138
0.022136
0.0224421
0.0227313
0.0237623
0.0241366
0.0244921
0.0248279
0.025984
0.0264175
0.0268287
0.0272165
0.0285211
0.0290217
0.0294951
0.0299405
0.0314239
0.0320002
0.032543
0.0330513
0.0347539
0.0354152
0.0360342
0.0366102
0.0385869
0.0393429
0.0400443
0.0406913
0.0430191
0.0438785
0.0446664
0.0453844
0.0481749
0.0491434
0.0500165
0.0507992
0.0542189
0.0552934
0.0562394
0.0570681
0.0613738
0.0625292
0.0635125
0.0643471
0.0699398
0.0711005
0.0720412
0.0728057
0.0802956
0.0812808
0.0820243
0.0825941
0.0927836
0.0932429
0.0935509
0.0937679
0.0035621
0.00405303
0.0043026
0.00444248
0.00451713
0.00454712
0.00454115
0.00449677
0.0044094
0.00428757
0.00413463
0.00394871
0.00373204
0.00348948
0.00321851
0.00290143
0.00250177
0.00198524
0.00101534
0.00466854
0.00482761
0.00493318
0.00499731
0.00502803
0.00503153
0.00501138
0.0049653
0.0048895
0.00478635
0.0046561
0.00447981
0.00424902
0.00396903
0.00364584
0.00327673
0.00282937
0.0022429
0.00111876
0.00543497
0.00546643
0.00548983
0.0055046
0.00550656
0.00549419
0.00546868
0.00542712
0.00536437
0.00527769
0.00516611
0.00499241
0.0047334
0.00440852
0.00402929
0.00360728
0.0031042
0.0024329
0.00113751
0.00604055
0.00601716
0.00598521
0.00597542
0.00596665
0.00594932
0.00592647
0.00589739
0.0058523
0.00578315
0.00568854
0.00550937
0.00518992
0.00481289
0.00437205
0.00389291
0.00333724
0.00259688
0.00125495
0.00651736
0.00646586
0.00642761
0.00640502
0.00637636
0.00634728
0.00632423
0.00630115
0.00624836
0.00613948
0.00600218
0.00586107
0.00561112
0.00513372
0.00466776
0.00413833
0.00353016
0.00273216
0.00135279
0.00696863
0.00689964
0.00681877
0.00677346
0.00673865
0.00670067
0.00665234
0.00659012
0.00650576
0.00637208
0.00623405
0.0060906
0.0058026
0.00539678
0.00493142
0.00437345
0.00371417
0.00283506
0.00134362
0.00729965
0.00723511
0.00716478
0.00711442
0.00707034
0.00702569
0.00695359
0.00684801
0.00672424
0.00657589
0.00642625
0.00626889
0.00600743
0.00557516
0.00513669
0.0046053
0.00396062
0.00308793
0.00191431
0.00758689
0.00752862
0.00746211
0.00739965
0.00734263
0.00727745
0.00717282
0.00703861
0.00689178
0.0067313
0.00657647
0.0064032
0.0061132
0.00567841
0.00520827
0.0046803
0.00405796
0.00322928
0.00194548
0.0078599
0.00781264
0.00774803
0.00767207
0.00759422
0.00749797
0.00736411
0.00720783
0.00703792
0.00685521
0.00666601
0.00645191
0.0061544
0.00573781
0.00524323
0.00469494
0.00406668
0.00325198
0.00195216
0.00813679
0.00809936
0.00803742
0.00795048
0.00785182
0.00772879
0.00757135
0.00738962
0.00718945
0.00697163
0.00673326
0.00645903
0.00612821
0.00572663
0.00523401
0.0046714
0.00402157
0.00319308
0.00194762
0.00842235
0.00838819
0.00832702
0.00823425
0.0081205
0.00797895
0.00780141
0.00759477
0.00736388
0.00710823
0.00682226
0.00649173
0.00610581
0.00567386
0.0051812
0.00461097
0.00393795
0.00308698
0.00194806
0.00872315
0.00868862
0.00862478
0.00852878
0.00840483
0.00824947
0.00805755
0.00783179
0.0075747
0.00728513
0.00695799
0.00658162
0.00614429
0.0056534
0.00512145
0.004525
0.00383084
0.00297786
0.00194553
0.00904389
0.00901112
0.00894588
0.00884704
0.00871602
0.00855109
0.00834902
0.00810914
0.00783148
0.00751442
0.00715374
0.00674046
0.00626254
0.00571682
0.00511859
0.00446563
0.00373896
0.00289278
0.00194924
0.00938775
0.00936055
0.00929786
0.00919892
0.00906446
0.00889372
0.00868427
0.00843396
0.00814118
0.00780376
0.00741786
0.00697645
0.00646917
0.0058861
0.00522709
0.00450072
0.00371641
0.00286202
0.00194443
0.00975955
0.00974094
0.00968479
0.00958982
0.00945618
0.00928339
0.00906954
0.00881222
0.00850918
0.00815792
0.00775489
0.0072945
0.00676838
0.0061652
0.00547301
0.00469098
0.00383762
0.00292314
0.00193195
0.0101658
0.0101585
0.0101122
0.0100249
0.00989596
0.00972481
0.00950984
0.00924892
0.00893976
0.00857994
0.00816635
0.0076946
0.00715819
0.00654738
0.00584796
0.00504826
0.00415145
0.00312265
0.00190671
0.0106139
0.0106207
0.010587
0.0105104
0.0103895
0.0102233
0.0100104
0.00974893
0.00943692
0.00907224
0.0086524
0.00817413
0.00763275
0.00702101
0.00632727
0.00553578
0.00462622
0.00349278
0.00190608
0.0111114
0.0111353
0.0111171
0.011054
0.010944
0.0107856
0.0105775
0.0103179
0.0100052
0.00963771
0.00921343
0.00873006
0.00818436
0.00757115
0.00688136
0.006098
0.00518168
0.0039861
0.00193798
0.0116667
0.0117111
0.0117115
0.0116646
0.0115681
0.01142
0.0112187
0.0109628
0.0106506
0.0102807
0.00985154
0.00936132
0.00880752
0.00818575
0.00748734
0.0066927
0.00574963
0.00448716
0.00217029
0.012289
0.0123578
0.0123801
0.0123524
0.0122718
0.0121361
0.0119435
0.0116922
0.0113808
0.0110077
0.0105715
0.0100704
0.00950184
0.00886094
0.00813747
0.00730722
0.00630986
0.00495354
0.00239609
0.0129889
0.0130863
0.0131342
0.0131287
0.0130667
0.0129454
0.0127628
0.0125168
0.0122056
0.0118277
0.0113811
0.0108638
0.0102725
0.00960102
0.00883655
0.00795222
0.00688007
0.00540379
0.00259043
0.0137782
0.0139089
0.0139864
0.0140065
0.0139657
0.0138609
0.0136895
0.013449
0.0131372
0.0127521
0.0122913
0.0117519
0.0111295
0.0104162
0.00959818
0.00864425
0.00747802
0.00586281
0.00277809
0.0146702
0.0148394
0.014951
0.0150004
0.0149837
0.0148973
0.0147382
0.0145032
0.0141898
0.0137951
0.0133159
0.0127481
0.0120866
0.0113222
0.0104384
0.00940017
0.00812397
0.0063542
0.00298142
0.0156802
0.0158935
0.016044
0.0161267
0.0161371
0.0160713
0.0159255
0.0156962
0.01538
0.014973
0.0144712
0.0138697
0.0131617
0.0123364
0.0113748
0.0102387
0.00883806
0.00689883
0.00322006
0.0168252
0.0170889
0.0172835
0.0174036
0.0174443
0.0174012
0.01727
0.0170466
0.0167265
0.0163052
0.0157773
0.0151365
0.0143743
0.0134782
0.0124271
0.0111795
0.00963927
0.0075127
0.00349905
0.0181248
0.0184456
0.0186899
0.0188517
0.018926
0.0189079
0.0187927
0.0185755
0.0182511
0.0178135
0.017256
0.0165706
0.0157469
0.0147703
0.0136173
0.0122433
0.0105456
0.0082077
0.00381318
0.019601
0.0199861
0.0202856
0.0204936
0.0206048
0.0206141
0.0205165
0.0203064
0.0199773
0.0195222
0.0189323
0.0181975
0.0173053
0.0162384
0.0149706
0.0134534
0.0115763
0.00899627
0.00416262
0.0212788
0.0217355
0.0220961
0.0223546
0.022506
0.0225452
0.0224669
0.0222649
0.0219316
0.0214583
0.0208341
0.0200463
0.0190792
0.0179125
0.016516
0.0148366
0.012754
0.00989346
0.00454626
0.0231864
0.0237224
0.0241496
0.0244628
0.0246574
0.0247287
0.0246716
0.0244791
0.0241428
0.0236519
0.022993
0.0221499
0.0211031
0.0198277
0.0182886
0.016426
0.0141079
0.0109215
0.00497203
0.0253563
0.0259791
0.0264781
0.0268493
0.0270894
0.0271949
0.0271607
0.0269799
0.0266427
0.0261363
0.025444
0.0245458
0.0234166
0.0220256
0.0203307
0.0182634
0.0156767
0.012115
0.0054707
0.0278258
0.0285423
0.0291172
0.0295487
0.0298357
0.0299765
0.0299671
0.0298004
0.0294657
0.0289477
0.0282263
0.027276
0.0260653
0.0245551
0.0226934
0.0204002
0.0175102
0.0135184
0.00607823
0.0306383
0.0314541
0.0321071
0.0325992
0.0329331
0.0331094
0.0331261
0.0329765
0.032649
0.0321258
0.0313827
0.0303879
0.0291014
0.0274733
0.0254382
0.0228995
0.0196686
0.0151821
0.00681452
0.0338443
0.0347627
0.0354931
0.0360436
0.0364218
0.0366325
0.036676
0.0365466
0.0362322
0.0357127
0.0349593
0.0339331
0.0325836
0.0308466
0.0286384
0.0258387
0.0222264
0.017165
0.00769194
0.0375034
0.0385235
0.0393264
0.0399291
0.0403463
0.040588
0.0406578
0.0405519
0.0402578
0.0397535
0.0390057
0.0379677
0.036577
0.0347512
0.0323815
0.0293139
0.0252799
0.0195471
0.00874209
0.0416859
0.0428005
0.0436649
0.0443085
0.0447553
0.0450218
0.0451159
0.045036
0.0447702
0.0442951
0.0435733
0.0425507
0.0411516
0.0392724
0.0367713
0.0334459
0.0289572
0.0224411
0.0100158
0.0464753
0.0476672
0.0485734
0.0492399
0.0497022
0.0499843
0.0500986
0.0500462
0.0498166
0.049386
0.0487146
0.047742
0.0463802
0.0445026
0.0419273
0.0383855
0.0334319
0.0260099
0.0115855
0.0519693
0.0532065
0.0541237
0.0547876
0.0552461
0.0555308
0.0556587
0.0556336
0.0554471
0.0550764
0.0544816
0.0535994
0.052333
0.0505353
0.0479811
0.0443169
0.0389411
0.030498
0.013561
0.0582806
0.0595103
0.0603942
0.0610216
0.0614522
0.0617234
0.0618556
0.0618552
0.0617161
0.0614184
0.0609253
0.0601755
0.059071
0.0574533
0.0550617
0.0514508
0.0458054
0.0362927
0.016147
0.0655332
0.0666757
0.067468
0.0680184
0.0683934
0.0686326
0.0687575
0.0687761
0.0686847
0.0684681
0.0680955
0.0675147
0.0666372
0.0653117
0.0632673
0.059992
0.0544324
0.0440243
0.0197212
0.0738512
0.0747989
0.0754312
0.075861
0.0761522
0.0763405
0.0764452
0.0764739
0.0764254
0.0762896
0.0760453
0.0756546
0.0750516
0.0741162
0.0726159
0.0700558
0.0652442
0.054708
0.0250053
0.0833359
0.0839657
0.0843708
0.0846416
0.0848247
0.0849453
0.0850164
0.0850437
0.0850273
0.0849623
0.0848378
0.0846337
0.0843145
0.083813
0.0829899
0.0815095
0.0783877
0.069762
0.0335472
0.0940335
0.0942455
0.0943783
0.0944665
0.0945265
0.0945669
0.0945923
0.0946045
0.0946042
0.0945902
0.0945602
0.0945099
0.0944319
0.0943132
0.0941272
0.0938003
0.0930272
0.0896932
0.0470358
)
;

boundaryField
{
    leftWall
    {
        type            kqRWallFunction;
        value           nonuniform List<scalar> 
50
(
0.000115192
0.000252857
0.000362752
0.000457067
0.000539761
0.000614708
0.000684681
0.000752514
0.000853369
0.000982895
0.00113409
0.00135765
0.0017576
0.00161344
0.00219111
0.0024064
0.00240079
0.00241032
0.00240079
0.00240825
0.00240192
0.00241076
0.00240606
0.00240365
0.00240279
0.00240166
0.00241024
0.00240286
0.00240746
0.00240883
0.00240803
0.00240728
0.0024101
0.00241206
0.00240963
0.00240881
0.00241207
0.00240756
0.0024095
0.00241362
0.00240593
0.00241179
0.00240744
0.00241163
0.00240431
0.00240581
0.00240769
0.00376134
0.0176944
0.0840123
)
;
    }
    rightWall
    {
        type            kqRWallFunction;
        value           nonuniform List<scalar> 
50
(
0.000120646
0.000232753
0.000338412
0.000442194
0.00054486
0.000649119
0.000759232
0.000881979
0.00101534
0.00111876
0.00113751
0.00125495
0.00135279
0.00134362
0.00191431
0.00194548
0.00195216
0.00194762
0.00194806
0.00194553
0.00194924
0.00194443
0.00193195
0.00190671
0.00190608
0.00193798
0.00217029
0.00239609
0.00259043
0.00277809
0.00298142
0.00322006
0.00349905
0.00381318
0.00416262
0.00454626
0.00497203
0.0054707
0.00607823
0.00681452
0.00769194
0.00874209
0.0100158
0.0115855
0.013561
0.016147
0.0197212
0.0250053
0.0335472
0.0470358
)
;
    }
    lowerWall
    {
        type            kqRWallFunction;
        value           nonuniform List<scalar> 
62
(
0.000115192
0.00029312
0.000430756
0.000538754
0.000627682
0.00070253
0.000766127
0.000820331
0.000866515
0.000906404
0.000942233
0.000975551
0.0010063
0.00103064
0.00103969
0.00101833
0.000954998
0.000868075
0.000764577
0.000660113
0.000565195
0.000423877
0.000206464
0.000206464
0.00045817
0.000642356
0.000828696
0.00103713
0.00130406
0.00167678
0.0023335
0.00263404
0.00226552
0.00223222
0.00250039
0.000267929
0.000479514
0.00057601
0.000697167
0.000866286
0.00111223
0.00149945
0.00219663
0.000267929
0.00061507
0.000824364
0.000916683
0.000966693
0.000989439
0.000997377
0.000996716
0.000962844
0.00088403
0.000780648
0.000664629
0.000574693
0.00056468
0.000557495
0.000516184
0.000400997
0.000279453
0.000120646
)
;
    }
    atmosphere
    {
        type            inletOutlet;
        inletValue      uniform 0.1;
        value           nonuniform List<scalar> 
46
(
0.1
0.0138263
0.00585749
0.00727118
0.00869838
0.00995799
0.0111889
0.0124687
0.01385
0.0153787
0.0171025
0.0190753
0.021361
0.0240382
0.0272053
0.0309903
0.0355649
0.0411721
0.0481807
0.0572056
0.0693971
0.1
0.1
0.1
0.1
0.1
0.1
0.1
0.1
0.1
0.1
0.1
0.1
0.1
0.1
0.1
0.1
0.1
0.1
0.1
0.1
0.1
0.1
0.1
0.1
0.0470358
)
;
    }
    defaultFaces
    {
        type            empty;
    }
}


// ************************************************************************* //
