/*--------------------------------*- C++ -*----------------------------------*\
  =========                 |
  \\      /  F ield         | OpenFOAM: The Open Source CFD Toolbox
   \\    /   O peration     | Website:  https://openfoam.org
    \\  /    A nd           | Version:  9
     \\/     M anipulation  |
\*---------------------------------------------------------------------------*/
FoamFile
{
    format      ascii;
    class       surfaceScalarField;
    location    "43.1";
    object      phi;
}
// * * * * * * * * * * * * * * * * * * * * * * * * * * * * * * * * * * * * * //

dimensions      [0 3 -1 0 0 0 0];

internalField   nonuniform List<scalar> 
1300
(
11.2529
1.87548
-4.16889
11.2529
-5.00804
1.87548
-4.24314
4.24314
-1.18749
1.18749
5.7123
5.54056
-2.37793
2.37793
-2.8201
2.8201
-2.86015
2.86015
-1.06194
1.06194
-1.02826
1.02826
0.693111
-0.693111
-3.41796
3.41796
-1.45618
1.45618
-2.90972
2.90972
6.1281
-6.1281
-3.24831
3.24831
-0.743754
0.743754
-4.26321
15.5161
6.98965
6.98965
-2.3711
2.3711
-1.25394
1.25394
1.41034
-1.41034
9.05616
-9.05616
-4.88727
-5.88597
1.91898
-14.0608
-3.08906
-3.08906
-2.7054
2.7054
-0.829928
1.04555
3.47682
-3.47682
-0.757114
0.757114
-4.3285
0.0853538
-4.3285
4.02776
0.215384
4.02776
-1.32877
0.141279
-1.32877
4.67831
-4.67831
1.07573
0.111761
1.07573
3.9281
-3.9281
-5.71006
11.4224
5.5428
-5.32064
20.8367
-5.93222
11.4728
-3.8985
3.8985
-2.29498
-0.0829525
-2.29498
2.37965
-0.00172144
2.37965
-4.00073
4.00073
-2.61009
-0.210007
-2.61009
2.92041
-0.100305
2.92041
3.66643
-3.66643
-2.91621
0.0560607
-2.91621
2.70845
0.151705
2.70845
0.771042
1.10443
-2.64652
3.69207
-1.10443
0.0424987
1.02614
0.0357986
1.02614
-1.01453
-0.0137251
-1.01453
1.04984
-0.0215792
1.04984
0.730122
-0.0370103
0.730122
-0.75486
0.0617482
-0.75486
-8.60812
-8.97128
-3.54174
0.123782
-3.54174
-1.47421
0.0180219
-1.47421
1.49234
-0.0361541
1.49234
-2.525
2.525
-3.25158
0.341858
-3.25158
4.80635
1.32175
4.80635
5.04612
6.20674
16.299
-16.299
10.1709
-2.96854
-0.279767
-2.96854
-3.41398
-5.64217
3.41398
-0.165675
-0.805493
0.0617387
-0.805493
5.62659
1.36306
5.62659
2.58622
0.122227
-2.58622
0.215124
4.62617
-4.62617
1.42328
0.947819
1.42328
-1.19154
1.19154
1.12336
-0.0735235
-1.12336
-0.130582
1.38601
0.0243318
1.38601
-1.40975
-0.000595776
-1.40975
7.31413
-13.2001
-7.76902
3.22851
0.189454
-3.22851
0.139444
3.56357
-0.0867511
3.56357
-3.30969
3.30969
-3.61099
0.134179
-3.61099
-0.682197
-0.0749166
-0.682197
0.841993
-0.084879
0.841993
-4.57631
0.247816
-4.57631
-3.69153
0.439954
3.69153
0.336231
1.25004
-1.25004
-1.43657
0.107808
-1.43657
-4.65932
0.083004
4.65932
0.0189896
-4.77224
0.0939367
-4.77224
-3.71253
0.101533
3.71253
0.215575
4.58935
1.03724
-4.58935
0.661247
-5.36948
11.5762
-5.88338
11.4262
-3.5149
-0.3836
-3.5149
4.08921
-0.190711
4.08921
2.57119
0.33853
-2.57119
0.276208
2.50599
-0.126336
2.50599
-3.94363
-0.0571054
-3.94363
3.80353
0.197204
3.80353
2.54561
-0.039623
-2.54561
-0.0644813
2.89523
0.0251748
2.89523
3.67241
-0.00598294
3.67241
-3.53944
-0.126986
-3.53944
3.17896
-3.17896
3.08058
0.0983714
-3.08058
0.16437
-5.07402
5.07343
-0.00799944
-5.06602
1.01814
1.01814
0.768928
-0.0388066
0.768928
-0.861791
0.106932
-0.861791
8.34651
-16.1155
8.77839
-17.3865
7.53036
-21.5912
8.11498
-17.0863
3.82596
-3.82596
3.75974
0.0662152
-3.75974
0.218001
-1.45604
-0.0181624
-1.45604
-2.288
-0.237001
-2.288
2.85688
-0.331878
2.85688
-3.74209
3.74209
-4.12478
0.382686
4.12478
0.68157
2.95648
-0.0612501
-2.95648
-0.0120598
0.924041
0.151684
-0.924041
0.118548
4.86351
-0.237339
4.86351
-4.08522
-0.540954
-4.08522
-1.47494
0.018894
1.47494
-0.0516595
-1.25895
0.0674029
-1.25895
-5.0745
0.00847757
-5.0387
-1.40127
-1.40127
1.30414
4.9962
-3.58567
0.0462332
3.58567
-0.0221064
3.52705
0.215042
-3.52705
0.217361
-3.26327
0.0843121
3.26327
0.0464185
-0.659721
-0.022476
-0.659721
-1.0347
1.0347
-0.917599
-0.117102
0.917599
-0.0756064
1.40548
-0.155435
1.40548
1.47053
0.0218117
-1.47053
0.0339523
-5.01134
0.239093
-5.01134
4.09965
-0.0104404
4.09965
-3.94908
-0.136142
3.94908
-0.276668
-0.00372291
5.07715
-1.01441
-0.000120145
1.01441
-5.10148
5.10136
-0.665114
0.00539244
0.665114
0.103815
1.02967
0.161873
-1.02967
0.16788
3.84698
-0.043457
-3.84698
0.0210259
-2.00714
-0.28086
-2.00714
-3.18409
-0.33081
3.18409
-0.327213
-5.11518
-0.0779363
5.19312
-5.13676
1.33688
0.0491256
-1.33688
5.15049
-1.14358
-0.106466
1.14358
-0.108877
1.60372
-0.198237
1.60372
5.12088
-0.257369
-5.12088
0.109545
-4.11718
0.173554
4.11718
-0.0175254
-1.77496
-0.232177
1.77496
-0.171248
-13.1281
14.4911
7.70865
-6.28329
-6.91681
-11.9255
4.4471
7.12912
14.618
-11.8099
-9.78126
-11.6705
2.86006
-2.69218
-3.72725
3.69024
23.5919
-23.4979
-18.3992
19.0808
20.777
-20.5615
5.70885
5.71351
15.8542
-15.9372
-20.8949
20.5113
15.3934
-15.6034
22.0451
-22.1022
-25.8065
25.763
-16.0928
16.1489
-20.2944
20.1674
-21.0577
20.7811
-8.35331
-9.0332
16.5087
-16.3849
20.0091
-20.2888
-19.3858
19.7277
10.0475
4.44359
11.0848
-6.24673
11.9556
-5.22605
12.9347
8.29457
-16.6479
7.82096
-14.7378
9.05058
10.9585
-8.8849
-3.04056
-17.9699
17.8832
-17.257
17.3034
24.1246
-24.0392
-6.17283
11.8863
-5.25335
12.3825
-11.409
-6.99019
10.0872
4.53073
8.98726
7.52147
-9.17672
-2.49376
-24.7989
24.5415
-25.6599
25.119
0.100183
2.42593
-2.52611
1.35413
-0.862697
3.28863
1.99736
2.10429
2.45271
-2.29084
0.239462
-2.76558
-2.89616
-5.34036
5.44817
5.15702
-5.04526
16.5469
7.04494
16.5659
-16.7497
-6.74826
-16.5106
11.3637
7.71706
11.7464
12.0617
8.71534
12.1632
10.359
-10.3317
-0.0273066
-11.4777
21.8367
1.55464
-18.4678
-13.9371
8.84892
7.00531
8.8472
-9.89369
-6.0435
-9.61748
-11.0128
-9.88207
-11.3436
12.3158
8.1955
12.1251
-15.3118
15.2943
9.27858
6.1148
9.17827
-8.96645
-6.63693
-9.03093
27.4795
-6.67659
-20.8029
-13.1765
-12.63
12.9793
9.06578
14.333
11.43
14.3541
8.91271
18.5668
-17.9785
5.34849
-9.94703
-6.14579
-9.78266
9.25803
6.89085
9.40974
-11.7668
-8.52763
-11.7206
-11.987
-9.07078
11.9929
8.17449
-12.5344
-13.1255
12.6706
8.11051
7.83882
-17.6201
9.24744
-18.2806
-10.9592
-5.42577
-10.7412
10.7855
6.68358
-17.469
-5.86243
23.6408
-12.6823
20.6002
-10.9053
-9.38354
-10.9174
-14.8054
-4.58045
-14.3654
-7.98852
7.70766
-8.81995
8.48808
26.8755
-16.2211
-10.6544
-12.3784
-8.1831
11.7171
-0.632344
-12.8358
12.8085
-0.880182
12.0545
16.4981
15.8658
-10.8802
-6.37674
-10.6629
10.2702
7.03322
10.3545
16.1064
8.01825
16.3217
-16.8181
-7.22117
-16.5703
4.84084
-4.91576
5.71359
-5.69469
15.5795
9.53949
-15.3422
-9.4567
22.9305
-10.775
-12.1555
-5.11964
5.21406
-0.0944273
-1.83101
-0.476881
0.266873
-1.93095
-1.7963
1.8692
0.235092
5.44916
3.65285
-2.41437
2.48177
2.77875
2.70522
-0.190933
2.49867
-2.49328
18.9016
-11.4318
-7.46977
13.9705
-13.8875
-2.59976
-19.3274
16.7277
2.67841
3.00327
-2.94153
-3.94836
-1.392
-3.91441
2.95191
2.20511
3.10359
2.10714
3.34104
-8.10325
1.56295
6.54031
-5.99612
-3.48231
-13.3462
-6.2662
19.6124
16.6789
7.86255
-16.7885
0.277912
5.293
-5.32916
-1.59836
-11.7479
8.34785
-9.94622
-15.217
-6.46094
21.6779
-9.58077
-1.08208
9.36573
2.38065
-10.8773
-7.09265
10.7431
1.42011
-12.0645
23.9707
-11.9062
-18.4413
8.51577
13.3209
16.2328
-17.8628
9.31888
8.54388
-4.54188
7.43266
1.41454
7.30633
-19.9316
13.8881
11.326
8.40175
-11.6645
2.047
-17.8846
25.1723
-22.2877
-2.88467
12.8235
12.3488
13.5474
13.3281
-7.78443
21.3318
-3.6174
-18.6703
21.502
-13.1003
15.7822
-28.8825
-29.1103
10.4401
-17.9542
22.0715
-4.11734
-5.20379
-10.108
23.158
-2.00662
-21.1514
10.1184
-13.9294
-11.8567
25.786
-20.606
18.4936
-6.27013
-12.2235
-12.6612
-9.44091
12.4877
2.80656
-25.8717
31.2202
-7.30491
7.80902
1.36925
7.83419
10.6097
-15.9754
5.3657
9.99631
-16.2664
6.76439
-22.7398
-12.1563
24.1894
-12.0331
-17.5821
-15.7919
-1.79016
4.87377
26.3464
-16.3037
12.1128
4.19094
8.46173
1.89274
-8.5601
-1.22256
0.968047
16.0864
-17.0545
10.3778
10.5
11.7044
4.38206
10.7703
7.11295
-10.7481
-0.972418
-14.7928
5.722
-6.61829
-14.5742
20.2962
-16.2679
1.69367
-10.3032
-13.9906
24.2938
-16.449
11.4255
12.5453
18.4587
-19.615
5.62439
-9.74633
-9.86865
10.6435
-17.2618
7.49834
12.7979
15.6088
2.48333
12.7459
11.4435
-19.4295
1.14885
18.965
-16.4712
3.88776
10.4663
-16.0006
0.208646
-10.5325
2.66452
-15.3468
-14.8045
16.5298
-21.1102
-12.3527
13.5686
2.75317
-13.9048
-0.460636
-4.95369
-3.03482
-5.18587
-3.27614
-5.54381
-11.0606
-1.92684
-9.13373
5.78082
-6.68576
-4.65784
7.01298
1.4751
-4.93513
4.82867
-5.57976
5.38153
-0.210164
13.0186
15.6556
7.4725
-8.47674
15.9492
-15.6088
23.627
-29.7251
14.1163
15.9487
-23.1699
-13.7764
2.70101
2.13983
2.61613
13.4468
-14.4138
0.967054
-13.2783
17.597
-4.31869
-19.5794
6.3011
-6.1326
5.18665
0.526933
5.16849
1.41637
6.84595
-8.26233
-4.27832
-4.32998
-9.16327
-13.8594
23.0227
4.73538
-13.1051
8.3697
-12.0624
16.7978
0.0784938
-13.1836
16.9846
-10.1387
17.5116
-11.9839
5.52765
12.7918
22.3468
-9.55506
16.2482
-6.70868
7.06792
-16.623
-6.79147
-11.2883
18.1791
-13.0055
14.6992
-1.12467
15.8239
-13.7772
3.0022
-2.07285
8.42716
8.64228
16.8088
-12.4267
11.9697
-18.6783
-4.65331
-16.195
-3.39716
1.01846
-13.8253
12.8068
12.0433
-11.0249
-3.24214
8.98388
-5.74174
5.68171
-2.84825
-2.83345
-1.84635
-3.0694
1.86883
0.629839
6.31155
0.489154
-3.33741
-2.00412
-1.90031
10.3743
8.52726
-3.83176
3.73733
3.56489
-0.561622
0.958716
2.14488
4.58708
-3.62837
0.678102
3.90898
-2.26343
3.82769
1.46531
-3.8495
-0.0649091
-3.40812
11.756
3.13218
-5.3373
1.70893
2.38219
-13.814
19.7414
-11.4153
-8.32606
22.1236
3.06361
-14.4789
16.2638
-13.5854
8.10352
-14.3697
-6.37541
-19.9608
-12.9159
-10.7095
19.0792
-12.3132
20.1757
3.8622
-20.4537
24.3159
-12.7398
6.27883
-9.44304
10.9084
-4.05803
-5.38501
11.2656
10.4123
-11.0535
-0.694356
0.212055
8.41919
-8.20714
-1.52702
-7.52314
-16.4089
17.829
-8.25568
17.5746
7.69356
-7.63403
25.2086
6.56495
-14.199
-11.8763
-12.9584
-5.6551
10.5777
-1.79633
-7.2346
-14.0198
7.27423
0.0320982
-19.081
22.0752
-2.99422
-12.0757
-1.81248
14.636
-18.103
1.83652
-11.3386
10.7366
12.1512
12.1833
-20.8408
-0.310528
-12.6453
3.17704
-15.8224
15.5258
-6.80295
17.243
-16.004
11.3461
-14.5289
14.3583
-1.46404
14.7477
-9.38201
6.05519
-15.4961
-12.6895
14.4761
-8.36126
15.8453
-10.1199
25.9652
-17.4248
14.411
11.5542
-2.71421
-8.20315
-13.9808
11.2666
0.430211
8.2644
17.8373
-10.7244
16.8649
8.92448
-18.6708
-8.33728
-25.8596
7.18881
-13.3144
-7.35658
14.5454
11.1021
12.9948
4.67674
-11.7723
17.7847
-19.5749
-5.75162
-9.05289
14.5839
-3.31731
10.1464
-19.1993
-5.20033
13.1092
-0.193012
-12.9162
3.11195
-15.4647
5.13122
-20.5959
15.979
-16.4396
1.76931
-7.90191
-3.16583
-3.2747
-2.1716
-3.40817
-7.56616
5.39456
-1.26506
3.5636
-12.5204
12.3274
-5.07661
10.4712
-4.05735
-1.12852
4.2286
1.15293
11.6241
3.02496
-16.8014
-9.25435
14.6238
-5.36949
1.11998
-10.8003
3.82353
8.09972
14.0239
-24.8274
1.65752
-15.1438
-4.06949
6.20932
4.91439
16.9577
2.54387
6.55175
-0.342426
9.09562
2.2737
2.1981
-11.2168
12.1838
1.59003
15.7064
-1.88295
7.4106
3.28554
3.30357
2.02559
5.72246
2.91982
8.72467
0.462341
-3.86764
2.0678
-3.96811
-1.2696
-4.00692
-0.316677
3.72511
-4.04179
10.4958
-1.96854
5.12631
-1.88157
-4.93327
6.81484
-9.35134
-5.49489
-1.58591
-5.60615
7.31508
6.14983
-5.72916
-3.62217
2.39084
-15.3067
11.9789
-12.6732
-2.26089
22.055
-9.46135
1.25421
-3.18252
-6.26893
-7.66093
7.72584
24.1899
1.01868
12.2837
18.8477
11.755
1.03066
11.9884
-16.1057
-10.7514
-16.4163
-0.890417
13.7456
5.61526
20.7312
17.1694
13.8521
-5.34719
-24.9221
20.718
-8.53413
16.3993
-3.48312
-17.1128
14.6492
8.97784
-17.4023
0.962707
-16.1501
-24.6842
-0.344541
12.6719
-11.2796
10.151
7.11622
2.01751
-2.42543
-0.849273
2.54253
-0.344436
8.75118
-0.18883
-8.1947
8.38353
-3.53628
2.26668
-0.429193
4.16653
6.38565
4.41711
-3.77759
-7.81938
-8.81637
-4.99765
-17.1424
2.46999
-8.61982
5.68078
-3.4141
2.84732
4.96943
10.0957
-1.60169
-9.42317
7.34342
-4.4961
5.59964
)
;

boundaryField
{
    wall-4
    {
        type            calculated;
        value           uniform 0;
    }
    velocity-inlet-5
    {
        type            calculated;
        value           uniform -11.2529;
    }
    velocity-inlet-6
    {
        type            calculated;
        value           uniform -1.87548;
    }
    pressure-outlet-7
    {
        type            calculated;
        value           nonuniform List<scalar> 8(4.16889 5.00804 10.7732 12.1418 17.5794 15.0831 17.1249 15.6453);
    }
    wall-8
    {
        type            calculated;
        value           uniform 0;
    }
    frontAndBackPlanes
    {
        type            empty;
        value           nonuniform List<scalar> 0();
    }
}


// ************************************************************************* //
