/*--------------------------------*- C++ -*----------------------------------*\
  =========                 |
  \\      /  F ield         | OpenFOAM: The Open Source CFD Toolbox
   \\    /   O peration     | Website:  https://openfoam.org
    \\  /    A nd           | Version:  9
     \\/     M anipulation  |
\*---------------------------------------------------------------------------*/
FoamFile
{
    format      ascii;
    class       volScalarField;
    location    "2.2";
    object      epsilon;
}
// * * * * * * * * * * * * * * * * * * * * * * * * * * * * * * * * * * * * * //

dimensions      [0 2 -3 0 0 0 0];

internalField   nonuniform List<scalar> 
2268
(
0.00555094
0.0336199
0.0670436
0.10024
0.132005
0.162196
0.190674
0.217595
0.243059
0.267092
0.289481
0.309965
0.328313
0.34411
0.356522
0.364007
0.363913
0.350944
0.321119
0.280936
0.221965
0.136491
0.0363822
0.0111388
0.0209869
0.0344263
0.0484701
0.0623429
0.0757969
0.0887413
0.10118
0.113136
0.124611
0.135522
0.145741
0.155103
0.163372
0.17019
0.174946
0.176607
0.173781
0.165211
0.149057
0.123595
0.0908327
0.0637829
0.0194303
0.0222258
0.0315343
0.041724
0.0520211
0.062156
0.0720388
0.0816591
0.0910264
0.100129
0.108906
0.117264
0.125084
0.132194
0.138341
0.143093
0.145753
0.145423
0.141233
0.132182
0.118071
0.101965
0.108563
0.0287072
0.0257168
0.0330514
0.0416543
0.0505116
0.0593231
0.0680038
0.0765473
0.0849613
0.0932273
0.101291
0.109077
0.116499
0.12343
0.129669
0.134852
0.138407
0.139652
0.138046
0.13341
0.126666
0.122275
0.15804
0.0389088
0.0303507
0.0363373
0.0440498
0.0521391
0.0602636
0.0683457
0.0763882
0.0843979
0.0923494
0.100189
0.107854
0.115292
0.122416
0.129062
0.13489
0.139377
0.141985
0.14251
0.141525
0.141194
0.148299
0.215444
0.0499341
0.0359089
0.0407901
0.0478923
0.0554921
0.0632029
0.0709582
0.0787718
0.0866452
0.0945418
0.102404
0.110183
0.117862
0.125401
0.132665
0.139306
0.144795
0.148704
0.151168
0.153529
0.159558
0.18045
0.289545
0.0619781
0.0423922
0.0462445
0.0528411
0.0600658
0.0674893
0.075061
0.0828046
0.0907067
0.0987108
0.106751
0.114794
0.122869
0.130996
0.139064
0.146677
0.153242
0.158402
0.162633
0.168066
0.180505
0.219616
0.410527
0.0754945
0.0499027
0.0526817
0.0587716
0.0656423
0.0728277
0.0802986
0.0880836
0.0961364
0.104368
0.1127
0.121116
0.12971
0.13858
0.147641
0.156392
0.164087
0.170405
0.176141
0.184139
0.202082
0.261902
0.670403
0.0346534
0.118102
0.198958
0.239578
0.250357
0.242825
0.211719
0.164504
0.122301
0.113937
0.116074
0.113169
0.105193
0.100867
0.104032
0.0971347
0.07212
0.0397538
0.0120178
0.0457539
0.0779524
0.10953
0.125666
0.129898
0.126432
0.11536
0.100947
0.0816408
0.0700533
0.0637739
0.0587268
0.0544322
0.0513032
0.0502943
0.0471908
0.0385632
0.026396
0.0168605
0.0672879
0.0815623
0.101454
0.110971
0.112208
0.107987
0.09896
0.087776
0.0740175
0.063536
0.0565525
0.0513564
0.0473922
0.0448685
0.0436941
0.0414392
0.0359104
0.0280885
0.0254502
0.0871936
0.0919962
0.104927
0.109891
0.108446
0.102798
0.093655
0.0830838
0.0717725
0.0624566
0.0556335
0.0504987
0.0466734
0.0444255
0.0433005
0.0414388
0.0373345
0.0316724
0.0330046
0.110207
0.106165
0.112467
0.113056
0.108865
0.101607
0.0919098
0.0815668
0.0716221
0.0631474
0.0566426
0.0516641
0.0479357
0.0457672
0.0446083
0.0429437
0.0398033
0.0356637
0.0396968
0.144115
0.123718
0.121923
0.117914
0.110941
0.102072
0.0917497
0.0816594
0.0726644
0.0647573
0.0585105
0.053711
0.050069
0.0478591
0.0465563
0.0449246
0.0424056
0.0395363
0.045485
0.209235
0.144389
0.132083
0.123337
0.113663
0.103272
0.092441
0.0826964
0.0744508
0.0669774
0.0608986
0.0562504
0.0526931
0.0503866
0.0488788
0.0471658
0.0448814
0.0428947
0.0500199
0.374364
0.165834
0.141741
0.128655
0.116552
0.104834
0.093687
0.0843289
0.0766687
0.0696147
0.0637037
0.0591786
0.0556931
0.0532724
0.0515449
0.0496798
0.0473075
0.0456054
0.0532321
0.0992031
0.0632982
0.0642566
0.0694616
0.0757305
0.0825598
0.0899682
0.0979719
0.106426
0.115168
0.124095
0.133226
0.142792
0.153069
0.164013
0.17482
0.184321
0.192168
0.199626
0.210227
0.231241
0.279064
0.390559
0.140095
0.0876028
0.0850315
0.0881758
0.0930578
0.0991938
0.106713
0.115473
0.124924
0.134724
0.144727
0.155026
0.166223
0.179161
0.193895
0.208429
0.220083
0.228397
0.235413
0.245047
0.261736
0.286847
0.312137
0.199879
0.121681
0.111952
0.110994
0.11337
0.118458
0.126582
0.137041
0.148076
0.159237
0.170449
0.181781
0.194654
0.211307
0.232263
0.252005
0.264517
0.270193
0.272999
0.278214
0.28928
0.301729
0.303486
0.326525
0.173632
0.145499
0.136883
0.135243
0.139025
0.149262
0.163644
0.17665
0.189046
0.201305
0.21292
0.226828
0.248564
0.281336
0.307823
0.316926
0.315389
0.309577
0.307423
0.315749
0.327316
0.31811
0.587816
0.222829
0.167246
0.152795
0.149173
0.152709
0.164845
0.179553
0.190642
0.203318
0.218264
0.231443
0.246593
0.272296
0.31277
0.340685
0.351747
0.348233
0.339027
0.330022
0.329611
0.343144
0.34703
0.577672
0.230635
0.177978
0.159386
0.152401
0.153444
0.160888
0.171854
0.183683
0.197079
0.212108
0.227882
0.24626
0.271071
0.299773
0.323092
0.337021
0.341259
0.339427
0.336379
0.338487
0.346537
0.355831
0.508547
0.242553
0.198657
0.170973
0.156449
0.153203
0.157228
0.165458
0.176936
0.191337
0.206376
0.222343
0.241315
0.263706
0.285729
0.307577
0.322771
0.329888
0.330882
0.331118
0.33545
0.344776
0.341061
0.43645
0.261837
0.213141
0.179162
0.159963
0.15193
0.152716
0.158878
0.168959
0.182226
0.197621
0.215226
0.234201
0.253557
0.271556
0.290869
0.311822
0.325992
0.32217
0.317348
0.324194
0.33877
0.336841
0.385096
0.246978
0.196369
0.168628
0.154517
0.14726
0.146895
0.151648
0.160006
0.171273
0.185246
0.202077
0.219874
0.236338
0.251229
0.266862
0.28577
0.299954
0.298443
0.295165
0.300151
0.307163
0.302933
0.368297
0.209717
0.170588
0.152389
0.143047
0.139036
0.139521
0.143618
0.150558
0.159974
0.171805
0.185982
0.201289
0.215725
0.228452
0.241033
0.254633
0.265063
0.267528
0.267345
0.269427
0.269712
0.263146
0.387735
0.185327
0.150483
0.137132
0.130967
0.129088
0.130463
0.134383
0.140397
0.148329
0.158173
0.169815
0.182458
0.194717
0.2057
0.215923
0.225815
0.233251
0.235798
0.235845
0.235113
0.231819
0.22386
0.362
0.165895
0.134482
0.123707
0.119495
0.118846
0.120679
0.124403
0.129688
0.136408
0.144544
0.153974
0.164176
0.174247
0.183446
0.191692
0.198946
0.204051
0.205634
0.204475
0.201997
0.197416
0.18982
0.318106
0.148479
0.121038
0.112034
0.108931
0.10886
0.110779
0.114173
0.118766
0.124434
0.13112
0.138696
0.146802
0.154849
0.162268
0.168765
0.174092
0.177559
0.178373
0.176703
0.173472
0.168888
0.162614
0.269329
0.132171
0.109174
0.101623
0.0991765
0.0993107
0.101089
0.104058
0.107973
0.112703
0.118158
0.124206
0.130581
0.136885
0.142695
0.147692
0.151592
0.153957
0.154339
0.152746
0.149722
0.145757
0.140854
0.224966
0.117396
0.0984723
0.0921451
0.0901279
0.0902914
0.0918263
0.0943405
0.097614
0.101511
0.105927
0.11073
0.115715
0.1206
0.125073
0.128862
0.13172
0.133367
0.133552
0.132269
0.129861
0.126763
0.123086
0.190776
0.104659
0.0888414
0.0834956
0.0817845
0.081906
0.0831716
0.0852462
0.0879353
0.0911082
0.094656
0.0984566
0.102347
0.10612
0.109549
0.112419
0.114542
0.115735
0.115864
0.114942
0.113231
0.110992
0.108349
0.163655
0.0930256
0.0800782
0.075654
0.0741986
0.0742558
0.0752633
0.076939
0.0791128
0.0816668
0.0844987
0.0875
0.0905399
0.0934643
0.0961105
0.0983082
0.0999236
0.100847
0.101014
0.100443
0.0993478
0.0978482
0.0960423
0.142353
0.0827737
0.072205
0.0686058
0.0673965
0.0674071
0.0681868
0.0695109
0.0712406
0.073274
0.0755209
0.0778882
0.0802712
0.0825526
0.0846113
0.0863308
0.0876166
0.0884012
0.0886549
0.0884073
0.0877968
0.0868845
0.0857327
0.125667
0.0740194
0.0652672
0.0623541
0.0613677
0.0613505
0.0619446
0.0629744
0.064331
0.0659316
0.0677014
0.0695644
0.0714383
0.0732354
0.0748672
0.0762527
0.0773268
0.0780469
0.0783972
0.0784221
0.0781855
0.0777228
0.0770697
0.11231
0.0666181
0.0592151
0.0568465
0.0560531
0.0560246
0.056474
0.0572661
0.0583185
0.0595677
0.0609552
0.0624215
0.063904
0.0653378
0.0666591
0.0678108
0.068748
0.0694422
0.0698843
0.0701199
0.070165
0.0700386
0.0697593
0.101147
0.0602953
0.0539194
0.05198
0.051352
0.0513279
0.051672
0.0522811
0.0530952
0.0540683
0.0551571
0.0563174
0.0575028
0.0586661
0.0597613
0.0607482
0.0615951
0.0622824
0.0628058
0.0631919
0.063442
0.063562
0.0635583
0.0913396
0.0547624
0.0492192
0.0476274
0.0471448
0.047141
0.0474179
0.0478965
0.0485347
0.0493014
0.0501665
0.0510987
0.0520648
0.0530307
0.0539636
0.0548345
0.0556205
0.0563075
0.056892
0.0573849
0.0577808
0.0580776
0.0582737
0.0823468
0.0497768
0.0449619
0.0436662
0.0433174
0.0433506
0.0435967
0.0439945
0.0445157
0.0451405
0.0458498
0.0466223
0.0474349
0.0482632
0.0490839
0.0498755
0.0506211
0.0513093
0.0519367
0.0525031
0.0529999
0.0534203
0.0537581
0.0738831
0.0451662
0.0410278
0.0399995
0.0397807
0.0398689
0.0401185
0.0404818
0.0409403
0.0414825
0.042097
0.04277
0.0434856
0.0442267
0.044976
0.0457178
0.0464386
0.047129
0.0477852
0.0484006
0.0489648
0.0494689
0.0499042
0.0658817
0.0408372
0.0373449
0.0365694
0.0364831
0.0366448
0.0369301
0.0373012
0.0377459
0.0382581
0.0388312
0.0394566
0.0401233
0.040819
0.0415309
0.0422468
0.042956
0.04365
0.0443257
0.0449726
0.0455799
0.0461379
0.0466371
0.0584584
0.0367775
0.0338959
0.0333641
0.0334158
0.0336696
0.0340197
0.0344354
0.0349082
0.0354346
0.0360109
0.0366314
0.0372881
0.037972
0.0386734
0.0393826
0.040091
0.0407915
0.0414803
0.0421465
0.0427795
0.0433696
0.0439075
0.0518609
0.0330506
0.0307187
0.0304174
0.0306119
0.0309739
0.0314128
0.0319028
0.0324364
0.0330113
0.0336247
0.0342722
0.0349481
0.0356453
0.0363562
0.0370732
0.0377893
0.0384984
0.0391969
0.0398743
0.0405208
0.0411272
0.0416851
0.0463921
0.0297783
0.0278963
0.027801
0.0281377
0.0286181
0.0291624
0.0297465
0.0303628
0.0310086
0.031681
0.0323767
0.0330908
0.0338179
0.0345519
0.0352866
0.0360163
0.0367362
0.0374425
0.0381259
0.0387776
0.0393894
0.0399539
0.0423157
0.0271076
0.0255381
0.0256092
0.0260776
0.0266775
0.0273331
0.0280196
0.0287282
0.0294551
0.0301973
0.0309517
0.0317143
0.0324805
0.0332455
0.0340042
0.0347518
0.0354843
0.036198
0.0368848
0.0375367
0.0381468
0.0387086
0.039779
0.0251703
0.0237538
0.0239377
0.0245156
0.0252243
0.0259849
0.0267699
0.0275685
0.0283758
0.0291886
0.0300039
0.0308183
0.0316279
0.0324284
0.0332154
0.0339846
0.0347324
0.0354551
0.036145
0.0367953
0.0373999
0.0379534
0.0387933
0.0240526
0.0226303
0.0228644
0.0235184
0.0243128
0.0251604
0.026029
0.0269055
0.027784
0.0286611
0.0295341
0.0303997
0.0312545
0.0320942
0.0329143
0.0337104
0.0344786
0.0352143
0.0359103
0.0365603
0.037159
0.0377018
0.0392761
0.0237867
0.0222175
0.0224368
0.0231242
0.0239711
0.0248779
0.0258065
0.0267417
0.0276767
0.0286081
0.0295332
0.030449
0.0313516
0.0322363
0.0330975
0.0339297
0.0347278
0.0354854
0.0361947
0.0368496
0.0374452
0.0379783
0.04111
0.0243628
0.0225283
0.022668
0.0233399
0.0241984
0.0251292
0.0260887
0.0270593
0.0280337
0.0290085
0.0299811
0.0309483
0.0319055
0.0328464
0.0337636
0.0346486
0.0354937
0.0362886
0.0370243
0.037694
0.0382934
0.0388207
0.0441754
0.0257451
0.0235445
0.02354
0.0241425
0.0249659
0.0258811
0.0268389
0.0278198
0.0288163
0.0298252
0.030844
0.0318692
0.032895
0.0339131
0.0349121
0.0358788
0.0367995
0.0376578
0.0384412
0.0391416
0.0397559
0.0402843
0.0483421
0.0278778
0.0252203
0.025005
0.02548
0.0262175
0.0270745
0.0279967
0.0289632
0.0299664
0.0310034
0.0320724
0.0331699
0.0342892
0.035419
0.0365427
0.0376384
0.0386818
0.0396451
0.0405089
0.0412635
0.0419078
0.0424465
0.0534312
0.0306741
0.0274776
0.0269826
0.0272688
0.0278677
0.0286236
0.0294774
0.0304069
0.0314044
0.0324681
0.0335975
0.0347908
0.0360416
0.0373369
0.038653
0.0399547
0.0411968
0.0423297
0.043322
0.0441621
0.0448549
0.0454138
0.0591703
0.0339955
0.0301932
0.0293522
0.0293895
0.0297997
0.0304148
0.0311712
0.0320448
0.0330283
0.0341216
0.0353277
0.0366492
0.0380847
0.0396233
0.0412361
0.0428675
0.0444314
0.0458341
0.0470215
0.0479846
0.0487436
0.0493297
0.0651637
0.0376327
0.0331874
0.0319464
0.0316845
0.0318648
0.032308
0.0329452
0.03375
0.0347152
0.035844
0.0371458
0.0386338
0.0403204
0.0422084
0.0442732
0.0464337
0.048528
0.0503528
0.0518197
0.0529407
0.0537738
0.0543841
0.0708961
0.0413025
0.0362206
0.0345508
0.0339602
0.0338874
0.0341423
0.0346497
0.0353798
0.036326
0.0374959
0.0389099
0.0406
0.0426084
0.0449779
0.0477191
0.0507395
0.053738
0.0562094
0.0580393
0.0593255
0.0602127
0.0608237
0.0757757
0.0446652
0.0390022
0.0369126
0.0359968
0.0356751
0.0357464
0.036128
0.0367863
0.0377147
0.0389269
0.0404578
0.0423681
0.044752
0.0477377
0.0514528
0.0558878
0.0605479
0.063959
0.066164
0.0675406
0.0684048
0.0689601
0.0792525
0.0473526
0.041204
0.0387543
0.0375625
0.0370323
0.0369514
0.0372295
0.0378285
0.0387418
0.0399891
0.0416205
0.0437308
0.0464844
0.0501525
0.0551372
0.0618653
0.0700364
0.074562
0.0768752
0.0780911
0.0787702
0.0791757
0.080799
0.0488782
0.0424574
0.0397892
0.0384311
0.037777
0.0376067
0.0378241
0.0383882
0.0392919
0.0405585
0.0422486
0.0444819
0.047483
0.0516749
0.0578766
0.0677631
0.0850683
0.0895485
0.0909676
0.0915222
0.091785
0.0919298
0.637029
0.524354
0.549366
0.671622
0.31869
0.30652
0.292575
0.274781
0.292809
0.281819
0.268001
0.252215
0.301697
0.288849
0.274041
0.258096
0.327012
0.310806
0.291459
0.270994
0.337434
0.318535
0.298883
0.279612
0.32666
0.314717
0.297416
0.277253
0.315807
0.299154
0.279221
0.259978
0.286859
0.271989
0.254695
0.237944
0.25031
0.239353
0.226065
0.212656
0.212756
0.204357
0.195233
0.186218
0.181473
0.175625
0.169529
0.16342
0.156661
0.152602
0.148396
0.144131
0.136585
0.13371
0.130737
0.127705
0.120017
0.117957
0.11583
0.113657
0.106172
0.104702
0.103184
0.101628
0.09454
0.0935134
0.0924471
0.0913453
0.0847438
0.0840553
0.0833308
0.0825722
0.0764695
0.0760389
0.0755746
0.0750776
0.069451
0.0692158
0.0689496
0.068652
0.0634673
0.0633791
0.0632624
0.0631167
0.0583421
0.0583631
0.0583584
0.058327
0.0539414
0.0540421
0.0541198
0.0541733
0.0501679
0.0503251
0.0504618
0.0505769
0.0469546
0.0471502
0.0473276
0.0474855
0.0442585
0.0444783
0.0446816
0.0448675
0.0420541
0.0422871
0.042505
0.0427069
0.0403293
0.0405672
0.0407909
0.0409994
0.0390822
0.0393189
0.0395417
0.03975
0.0383197
0.0385509
0.0387683
0.0389712
0.0380578
0.0382811
0.0384901
0.0386843
0.0383231
0.0385375
0.0387366
0.0389202
0.0391555
0.0393612
0.0395503
0.0397228
0.0406118
0.0408101
0.0409901
0.041152
0.0427707
0.0429636
0.0431359
0.0432883
0.0457386
0.0459279
0.046094
0.0462382
0.0496567
0.049843
0.0500035
0.0501401
0.0547097
0.0548908
0.0550438
0.0551715
0.0611345
0.0613033
0.0614434
0.0615583
0.0692296
0.0693728
0.0694898
0.0695847
0.0793646
0.0794633
0.0795432
0.0796076
0.0919949
0.0920284
0.0920555
0.0920772
0.253952
0.180429
0.153769
0.136031
0.120929
0.107632
0.0963279
0.0875169
0.0805359
0.0742
0.0687169
0.0643948
0.0609454
0.0582134
0.0559788
0.0537082
0.0508441
0.0487184
0.0563445
0.227528
0.189136
0.163491
0.143128
0.126107
0.112185
0.101114
0.0926843
0.0863219
0.0811125
0.0767418
0.0730755
0.0697044
0.0663395
0.0632957
0.0604304
0.0567836
0.0532739
0.0630896
0.227491
0.196476
0.170617
0.149146
0.131661
0.117689
0.106728
0.0984478
0.0925286
0.0883615
0.0852745
0.0825294
0.0795285
0.0758978
0.0719758
0.068159
0.0645265
0.0626165
0.0897525
0.234571
0.20386
0.177546
0.155694
0.138022
0.124109
0.113145
0.104678
0.0988375
0.0956511
0.0940919
0.0925172
0.0899078
0.0860963
0.081589
0.0768664
0.0740162
0.0786438
0.120366
0.243907
0.212493
0.185489
0.162841
0.144921
0.131095
0.119802
0.110798
0.10508
0.103466
0.1038
0.10305
0.0998306
0.0946463
0.0890966
0.0846512
0.0829322
0.0887972
0.173214
0.25175
0.219557
0.192521
0.169822
0.151869
0.137025
0.124041
0.114085
0.108692
0.107614
0.106812
0.104125
0.0991857
0.0930044
0.087851
0.0847647
0.0838114
0.0958523
0.227328
0.248343
0.217174
0.193311
0.17324
0.155563
0.139536
0.12581
0.115314
0.108984
0.105382
0.101592
0.0971023
0.0920534
0.0873837
0.0836585
0.0812378
0.0820334
0.0958817
0.213296
0.23363
0.205624
0.184897
0.168411
0.152424
0.137172
0.124234
0.114538
0.107914
0.102505
0.0971374
0.0918584
0.0866958
0.0826039
0.078647
0.0759068
0.0780721
0.0942845
0.175849
0.214962
0.190644
0.172386
0.157628
0.143512
0.130794
0.120817
0.113138
0.106608
0.100128
0.0934181
0.0869543
0.0808328
0.0757437
0.0717121
0.0701877
0.0731096
0.087827
0.148893
0.194035
0.174038
0.158277
0.144914
0.13268
0.122173
0.114251
0.108026
0.101776
0.0947942
0.0872859
0.0801296
0.0736809
0.0684672
0.0652357
0.064803
0.0684546
0.0802404
0.128175
0.172962
0.157246
0.143864
0.132192
0.121907
0.113068
0.105774
0.09946
0.0932715
0.08663
0.0797531
0.0732229
0.0673713
0.0626016
0.0595214
0.0587895
0.0617681
0.071981
0.109141
0.153938
0.141804
0.130918
0.121246
0.112615
0.104869
0.0979353
0.0916116
0.0855831
0.0795773
0.0736044
0.0678807
0.0625525
0.0578828
0.0542913
0.0523952
0.05364
0.0618045
0.0881732
0.137251
0.128019
0.11943
0.111572
0.104348
0.0976012
0.0912586
0.0852941
0.0796609
0.0742637
0.0690194
0.0638848
0.0588621
0.0541082
0.0499131
0.0467719
0.0459288
0.0504033
0.066257
0.122678
0.115734
0.109073
0.102776
0.096792
0.0910189
0.0854278
0.0800652
0.0749794
0.0701477
0.0654578
0.0607623
0.055993
0.0512347
0.0466903
0.0426906
0.0400764
0.040656
0.0474687
0.109983
0.10481
0.0997011
0.0947102
0.0898141
0.0849645
0.0801698
0.0754959
0.0710071
0.0666997
0.0624711
0.0581688
0.0537088
0.0491296
0.0445705
0.040288
0.0369869
0.0363358
0.040322
0.0989712
0.0951583
0.0912747
0.0873618
0.0834043
0.0793926
0.0753549
0.0713534
0.067442
0.0636194
0.059808
0.0558907
0.0517979
0.0475518
0.0432671
0.0392127
0.0362002
0.0363868
0.0450422
0.0894466
0.0866748
0.08377
0.080737
0.0775747
0.0742967
0.0709349
0.067541
0.0641547
0.0607759
0.0573525
0.053809
0.0501048
0.0462727
0.0424413
0.0389336
0.0366965
0.0383587
0.0538952
0.081247
0.0792633
0.0771161
0.0748021
0.072316
0.0696641
0.0668865
0.0640226
0.0611014
0.0581247
0.0550619
0.0518733
0.0485507
0.045153
0.0418469
0.0390238
0.0377272
0.0410973
0.0644421
0.0741906
0.0728089
0.0712506
0.069508
0.0675758
0.0654612
0.0631874
0.0607795
0.0582681
0.0556556
0.052929
0.0500769
0.0471201
0.0441483
0.0413716
0.039246
0.0388801
0.0438346
0.0750962
0.068101
0.0671823
0.0660846
0.0647979
0.0633163
0.0616438
0.0597955
0.0577907
0.0556463
0.0533657
0.0509562
0.0484273
0.0458233
0.0432617
0.0409893
0.0395121
0.0399956
0.0461918
0.0846335
0.0628226
0.062261
0.0615247
0.0606026
0.0594877
0.0581805
0.0566899
0.0550291
0.053211
0.0512445
0.0491411
0.0469262
0.0446634
0.0424948
0.0406914
0.0397942
0.0410484
0.048483
0.0923929
0.0582283
0.0579412
0.0574881
0.0568574
0.0560409
0.0550363
0.0538479
0.0524843
0.0509563
0.0492761
0.0474623
0.0455524
0.0436239
0.0418289
0.0404526
0.0400518
0.0419044
0.0502609
0.0971672
0.054221
0.0541429
0.0539101
0.0535108
0.0529361
0.0521816
0.0512486
0.0501426
0.0488733
0.0474551
0.0459123
0.0442906
0.0426757
0.0412246
0.0402224
0.0402197
0.0424964
0.0514549
0.10079
0.0507317
0.0508097
0.0507455
0.0505275
0.0501465
0.0495972
0.0488786
0.0479945
0.0469541
0.045773
0.0444796
0.0431238
0.0417949
0.0406491
0.039964
0.0402759
0.0428609
0.0522667
0.104054
0.0477158
0.0479066
0.0479677
0.0478883
0.0476593
0.047275
0.0467335
0.0460375
0.0451959
0.0442252
0.0431556
0.0420388
0.0409638
0.0400824
0.0396617
0.0402235
0.0430412
0.0527779
0.106448
0.0451477
0.0454158
0.0455659
0.0455881
0.0454741
0.0452185
0.044819
0.044278
0.0436041
0.0428144
0.0419394
0.0410307
0.0401749
0.0395173
0.0393142
0.0400738
0.0430638
0.0530139
0.10795
0.0430165
0.0433328
0.0435411
0.0436329
0.0436012
0.0434409
0.04315
0.0427312
0.042193
0.0415524
0.0408396
0.0401051
0.0394317
0.038958
0.0389294
0.0398414
0.0429515
0.0530124
0.108725
0.0413222
0.0416629
0.0419038
0.0420379
0.0420592
0.0419637
0.04175
0.0414211
0.0409855
0.0404604
0.0398751
0.0392782
0.0387488
0.0384186
0.0385232
0.0395452
0.042728
0.0528194
0.109008
0.0400734
0.0404197
0.0406721
0.0408252
0.0408742
0.040816
0.0406501
0.0403798
0.0400141
0.0395697
0.0390753
0.0385777
0.0381521
0.0379243
0.0381209
0.0392117
0.0424237
0.0524872
0.108986
0.039286
0.0396234
0.0398707
0.0400236
0.0400787
0.0400338
0.0398891
0.0396485
0.0393207
0.0389227
0.0384821
0.0380442
0.0376811
0.0375136
0.0377607
0.0388805
0.0420815
0.0520664
0.108733
0.0389841
0.0393022
0.0395317
0.0396695
0.0397132
0.0396615
0.0395151
0.039278
0.0389591
0.0385747
0.0381519
0.0377343
0.0373919
0.0372419
0.0374976
0.0386077
0.0417606
0.051617
0.108292
0.0392013
0.0394933
0.0396961
0.039808
0.0398273
0.0397532
0.0395866
0.0393315
0.0389965
0.038597
0.038159
0.0377248
0.0373623
0.0371866
0.0374076
0.0384677
0.0415372
0.0512118
0.107405
0.0399837
0.0402458
0.0404169
0.0404961
0.0404824
0.0403755
0.040176
0.0398875
0.0395175
0.0390806
0.0386009
0.0381185
0.0376995
0.0374565
0.0375974
0.0385609
0.0415041
0.0509387
0.106014
0.0413931
0.0416245
0.041762
0.0418058
0.0417557
0.041611
0.0413724
0.0410425
0.0406276
0.0401403
0.0396025
0.0390514
0.0385494
0.0382055
0.0382244
0.0390417
0.0418111
0.0510386
0.106075
0.043511
0.0437132
0.0438185
0.0438283
0.043743
0.043562
0.0432854
0.0429151
0.0424558
0.0419181
0.0413208
0.0406974
0.0401054
0.0396481
0.0395242
0.0401669
0.0427462
0.0519357
0.109424
0.0464446
0.0466205
0.0466974
0.0466781
0.0465638
0.046354
0.0460485
0.0456485
0.0451576
0.0445843
0.043945
0.0432693
0.0426099
0.0420639
0.0418244
0.0423268
0.0447852
0.0541992
0.116499
0.0503313
0.0504845
0.0505386
0.0504983
0.0503655
0.0501401
0.0498222
0.0494126
0.0489147
0.048336
0.047692
0.0470103
0.0463417
0.0457819
0.0455266
0.0460325
0.0486209
0.0587806
0.128739
0.0553469
0.0554801
0.0555179
0.0554667
0.0553291
0.0551059
0.0547977
0.054406
0.0539348
0.0533927
0.0527963
0.0521757
0.0515866
0.0511354
0.0510429
0.0518289
0.0549967
0.0669133
0.149257
0.0617137
0.0618273
0.0618549
0.0618034
0.0616763
0.0614753
0.0612018
0.0608588
0.0604518
0.0599919
0.0594993
0.0590108
0.0585956
0.0583892
0.0586762
0.0601193
0.0646381
0.0802232
0.184548
0.0697115
0.069803
0.0698242
0.069782
0.06968
0.0695205
0.069306
0.0690405
0.0687314
0.068392
0.068046
0.0677372
0.0675507
0.0676618
0.0684576
0.070877
0.0775981
0.0996223
0.237485
0.0796933
0.0797556
0.0797709
0.0797444
0.079679
0.0795769
0.0794409
0.0792753
0.0790872
0.0788893
0.0787039
0.0785728
0.0785805
0.0789126
0.0800168
0.0831026
0.092058
0.124075
0.312313
0.0921059
0.0921266
0.0921312
0.0921217
0.0920992
0.092065
0.0920203
0.0919676
0.0919104
0.0918549
0.091812
0.0918023
0.0918687
0.0921118
0.0928038
0.0948348
0.102128
0.147226
0.398729
)
;

boundaryField
{
    leftWall
    {
        type            epsilonWallFunction;
        value           nonuniform List<scalar> 
50
(
0.00555094
0.0111388
0.0194303
0.0287072
0.0389088
0.0499341
0.0619781
0.0754945
0.0992031
0.140095
0.199879
0.326525
0.587816
0.577672
0.508547
0.43645
0.385096
0.368297
0.387735
0.362
0.318106
0.269329
0.224966
0.190776
0.163655
0.142353
0.125667
0.11231
0.101147
0.0913396
0.0823468
0.0738831
0.0658817
0.0584584
0.0518609
0.0463921
0.0423157
0.039779
0.0387933
0.0392761
0.04111
0.0441754
0.0483421
0.0534312
0.0591703
0.0651637
0.0708961
0.0757757
0.0792525
0.080799
)
;
    }
    rightWall
    {
        type            epsilonWallFunction;
        value           nonuniform List<scalar> 
50
(
0.0120178
0.0168605
0.0254502
0.0330046
0.0396968
0.045485
0.0500199
0.0532321
0.0563445
0.0630896
0.0897525
0.120366
0.173214
0.227328
0.213296
0.175849
0.148893
0.128175
0.109141
0.0881732
0.066257
0.0474687
0.040322
0.0450422
0.0538952
0.0644421
0.0750962
0.0846335
0.0923929
0.0971672
0.10079
0.104054
0.106448
0.10795
0.108725
0.109008
0.108986
0.108733
0.108292
0.107405
0.106014
0.106075
0.109424
0.116499
0.128739
0.149257
0.184548
0.237485
0.312313
0.398729
)
;
    }
    lowerWall
    {
        type            epsilonWallFunction;
        value           nonuniform List<scalar> 
62
(
0.00555094
0.0336199
0.0670436
0.10024
0.132005
0.162196
0.190674
0.217595
0.243059
0.267092
0.289481
0.309965
0.328313
0.34411
0.356522
0.364007
0.363913
0.350944
0.321119
0.280936
0.221965
0.136491
0.0363822
0.0363822
0.0637829
0.108563
0.15804
0.215444
0.289545
0.410527
0.670403
0.637029
0.524354
0.549366
0.671622
0.0346534
0.0457539
0.0672879
0.0871936
0.110207
0.144115
0.209235
0.374364
0.0346534
0.118102
0.198958
0.239578
0.250357
0.242825
0.211719
0.164504
0.122301
0.113937
0.116074
0.113169
0.105193
0.100867
0.104032
0.0971347
0.07212
0.0397538
0.0120178
)
;
    }
    atmosphere
    {
        type            inletOutlet;
        inletValue      uniform 0.1;
        value           nonuniform List<scalar> 
46
(
0.080799
0.0488782
0.0424574
0.0397892
0.0384311
0.037777
0.0376067
0.0378241
0.0383882
0.0392919
0.0405585
0.0422486
0.0444819
0.047483
0.0516749
0.0578766
0.0677631
0.1
0.1
0.1
0.1
0.1
0.1
0.1
0.1
0.1
0.1
0.1
0.1
0.1
0.1
0.1
0.1
0.1
0.1
0.1
0.1
0.1
0.1
0.1
0.1
0.1
0.1
0.1
0.147226
0.398729
)
;
    }
    defaultFaces
    {
        type            empty;
    }
}


// ************************************************************************* //
