/*--------------------------------*- C++ -*----------------------------------*\
  =========                 |
  \\      /  F ield         | OpenFOAM: The Open Source CFD Toolbox
   \\    /   O peration     | Website:  https://openfoam.org
    \\  /    A nd           | Version:  9
     \\/     M anipulation  |
\*---------------------------------------------------------------------------*/
FoamFile
{
    format      ascii;
    class       surfaceScalarField;
    location    "6.17";
    object      phi;
}
// * * * * * * * * * * * * * * * * * * * * * * * * * * * * * * * * * * * * * //

dimensions      [0 3 -1 0 0 0 0];

internalField   nonuniform List<scalar> 
4432
(
-2.17919e-07
2.17919e-07
-4.22296e-07
2.04379e-07
-6.20081e-07
1.97782e-07
-8.06889e-07
1.86807e-07
-9.79237e-07
1.72351e-07
-1.13184e-06
1.52597e-07
-1.2566e-06
1.24764e-07
-1.34611e-06
8.95117e-08
-1.39513e-06
4.90172e-08
-1.40072e-06
5.59533e-09
-1.35835e-06
-4.23699e-08
-1.25653e-06
-1.01812e-07
-1.07684e-06
-1.79684e-07
-8.03483e-07
-2.73358e-07
-4.44235e-07
-3.59247e-07
-6.96722e-08
-3.74562e-07
8.73657e-08
-1.57038e-07
-2.81285e-07
3.68653e-07
-9.82104e-07
7.00822e-07
-1.67447e-06
6.92369e-07
-1.76463e-06
9.01607e-08
-1.01235e-06
-7.52281e-07
-1.01236e-06
-2.18329e-07
4.36244e-07
-4.27047e-07
4.13098e-07
-6.29602e-07
4.00336e-07
-8.20591e-07
3.77792e-07
-9.95125e-07
3.4689e-07
-1.1477e-06
3.05171e-07
-1.27226e-06
2.49331e-07
-1.36305e-06
1.80296e-07
-1.41621e-06
1.0218e-07
-1.42997e-06
1.93643e-08
-1.40024e-06
-7.20943e-08
-1.31849e-06
-1.83558e-07
-1.17365e-06
-3.24518e-07
-9.59727e-07
-4.87283e-07
-6.88622e-07
-6.30351e-07
-4.17615e-07
-6.45568e-07
-2.92296e-07
-2.82353e-07
-5.037e-07
5.8006e-07
-8.94801e-07
1.09193e-06
-1.22395e-06
1.02152e-06
-1.30188e-06
1.68079e-07
-9.1493e-07
-1.13923e-06
-1.92729e-06
-2.1845e-07
6.54692e-07
-4.29666e-07
6.24314e-07
-6.33181e-07
6.03852e-07
-8.25621e-07
5.70228e-07
-1.00173e-06
5.22999e-07
-1.15631e-06
4.59754e-07
-1.28417e-06
3.77188e-07
-1.38031e-06
2.76441e-07
-1.44121e-06
1.63078e-07
-1.46488e-06
4.30324e-08
-1.44855e-06
-8.84206e-08
-1.38652e-06
-2.45584e-07
-1.2723e-06
-4.38736e-07
-1.10481e-06
-6.54778e-07
-8.95198e-07
-8.3996e-07
-6.7769e-07
-8.63074e-07
-5.40899e-07
-4.1914e-07
-6.21339e-07
6.60504e-07
-7.91963e-07
1.26255e-06
-9.15648e-07
1.14521e-06
-9.57559e-07
2.09989e-07
-7.01347e-07
-1.39544e-06
-2.62863e-06
-2.203e-07
8.7499e-07
-4.35659e-07
8.39672e-07
-6.42245e-07
8.10439e-07
-8.37691e-07
7.6567e-07
-1.01705e-06
7.02362e-07
-1.17554e-06
6.18238e-07
-1.30845e-06
5.10102e-07
-1.41114e-06
3.79129e-07
-1.48025e-06
2.3218e-07
-1.51439e-06
7.71767e-08
-1.51212e-06
-9.06914e-08
-1.46998e-06
-2.87722e-07
-1.38441e-06
-5.24309e-07
-1.25727e-06
-7.81915e-07
-1.09851e-06
-9.98723e-07
-9.22869e-07
-1.03871e-06
-7.5403e-07
-5.87975e-07
-7.17088e-07
6.23566e-07
-7.24838e-07
1.27031e-06
-7.0314e-07
1.12351e-06
-6.64227e-07
1.71078e-07
-4.33619e-07
-1.62604e-06
-3.06225e-06
-2.22761e-07
1.09775e-06
-4.43707e-07
1.06062e-06
-6.55502e-07
1.02224e-06
-8.55727e-07
9.65891e-07
-1.03998e-06
8.8662e-07
-1.20404e-06
7.82291e-07
-1.34357e-06
6.49633e-07
-1.45397e-06
4.89532e-07
-1.53197e-06
3.1018e-07
-1.57705e-06
1.22257e-07
-1.58918e-06
-7.8566e-08
-1.56663e-06
-3.10269e-07
-1.50768e-06
-5.83264e-07
-1.41632e-06
-8.73267e-07
-1.30266e-06
-1.11239e-06
-1.17351e-06
-1.16786e-06
-9.97222e-07
-7.64257e-07
-8.20691e-07
4.47037e-07
-6.80547e-07
1.13017e-06
-5.38428e-07
9.81393e-07
-3.55562e-07
-1.17873e-08
-1.4046e-07
-1.84114e-06
-3.20271e-06
-2.25945e-07
1.32369e-06
-4.54236e-07
1.28891e-06
-6.728e-07
1.2408e-06
-8.79145e-07
1.17223e-06
-1.06951e-06
1.07699e-06
-1.24034e-06
9.53123e-07
-1.38759e-06
7.96884e-07
-1.50649e-06
6.08434e-07
-1.59372e-06
3.97406e-07
-1.64969e-06
1.78233e-07
-1.67582e-06
-5.2432e-08
-1.67166e-06
-3.14433e-07
-1.63631e-06
-6.18614e-07
-1.57511e-06
-9.34464e-07
-1.49899e-06
-1.18851e-06
-1.41114e-06
-1.25571e-06
-1.26362e-06
-9.11775e-07
-9.59606e-07
1.43019e-07
-6.76987e-07
8.47545e-07
-4.01394e-07
7.05798e-07
-7.15805e-08
-3.41602e-07
1.19484e-07
-2.0322e-06
-3.08322e-06
-2.30518e-07
1.55421e-06
-4.6773e-07
1.52612e-06
-6.93921e-07
1.467e-06
-9.06986e-07
1.3853e-06
-1.10407e-06
1.27408e-06
-1.28231e-06
1.13136e-06
-1.43781e-06
9.52384e-07
-1.56545e-06
7.36076e-07
-1.66172e-06
4.93678e-07
-1.72795e-06
2.44472e-07
-1.76696e-06
-1.34213e-08
-1.77904e-06
-3.02345e-07
-1.76328e-06
-6.34371e-07
-1.72509e-06
-9.72655e-07
-1.67491e-06
-1.23869e-06
-1.61197e-06
-1.31866e-06
-1.4829e-06
-1.04085e-06
-1.12538e-06
-2.14503e-07
-7.12984e-07
4.35142e-07
-2.92601e-07
2.85412e-07
1.15211e-07
-7.49416e-07
2.5756e-07
-2.17455e-06
-2.82567e-06
-2.4031e-07
1.79452e-06
-4.84971e-07
1.77078e-06
-7.1783e-07
1.69986e-06
-9.37413e-07
1.60488e-06
-1.14121e-06
1.47788e-06
-1.32687e-06
1.31702e-06
-1.49049e-06
1.11601e-06
-1.62652e-06
8.72109e-07
-1.73113e-06
5.98291e-07
-1.8064e-06
3.19739e-07
-1.85647e-06
3.66484e-08
-1.88193e-06
-2.7689e-07
-1.88119e-06
-6.35107e-07
-1.85843e-06
-9.95418e-07
-1.82129e-06
-1.27583e-06
-1.76376e-06
-1.37618e-06
-1.62803e-06
-1.17658e-06
-1.27091e-06
-5.71625e-07
-7.64376e-07
-7.13963e-08
-2.44625e-07
-2.34336e-07
1.51729e-07
-1.14577e-06
2.40851e-07
-2.26367e-06
-2.58481e-06
-5.28694e-07
5.28694e-07
5.07866e-07
-1.03657e-06
1.46544e-06
-9.57571e-07
2.12174e-06
-6.56307e-07
2.56944e-06
-4.47703e-07
2.86398e-06
-2.94547e-07
3.15268e-06
-2.88696e-07
3.55609e-06
-4.03413e-07
4.08072e-06
-5.24622e-07
4.27084e-06
-1.90118e-07
3.57724e-06
6.93598e-07
2.46897e-06
1.10827e-06
6.48723e-07
1.82024e-06
-9.92388e-07
1.64111e-06
-3.5276e-07
-6.39623e-07
7.66066e-07
-1.11883e-06
1.0657e-06
-2.99628e-07
1.05696e-06
8.73423e-09
1.05697e-06
1.44088e-07
3.84606e-07
8.69863e-07
-1.76235e-06
1.4755e-06
-1.56321e-06
1.93372e-06
-1.11452e-06
2.27389e-06
-7.8788e-07
2.55412e-06
-5.74779e-07
2.81544e-06
-5.50006e-07
3.13555e-06
-7.23534e-07
3.48251e-06
-8.71575e-07
3.59417e-06
-3.01779e-07
3.11602e-06
1.17175e-06
2.18215e-06
2.04215e-06
9.1153e-07
3.09086e-06
-1.90645e-07
2.74328e-06
3.33335e-08
-8.63591e-07
5.15591e-07
-1.60109e-06
5.5512e-07
-3.39147e-07
6.94538e-07
-1.30692e-07
1.75151e-06
7.0839e-07
-3.23784e-07
1.09915e-06
-2.15312e-06
1.4785e-06
-1.94256e-06
1.81869e-06
-1.45472e-06
2.0938e-06
-1.06299e-06
2.31791e-06
-7.98888e-07
2.52215e-06
-7.54234e-07
2.74946e-06
-9.50852e-07
2.97336e-06
-1.09547e-06
2.99187e-06
-3.20284e-07
2.53364e-06
1.62998e-06
1.78624e-06
2.78955e-06
9.88595e-07
3.88851e-06
2.93656e-07
3.43822e-06
3.21997e-07
-8.91924e-07
4.51176e-07
-1.73028e-06
2.35907e-07
-1.23871e-07
2.89625e-07
-1.84416e-07
2.04114e-06
9.29508e-07
-1.25329e-06
1.20061e-06
-2.42422e-06
1.46005e-06
-2.20201e-06
1.72221e-06
-1.71687e-06
1.94268e-06
-1.28346e-06
2.11324e-06
-9.6945e-07
2.24757e-06
-8.88556e-07
2.37596e-06
-1.07925e-06
2.5081e-06
-1.2276e-06
2.49719e-06
-3.09369e-07
2.08222e-06
2.04494e-06
1.51778e-06
3.354e-06
9.86606e-07
4.41969e-06
6.8532e-07
3.7395e-06
6.19167e-07
-8.25765e-07
4.83036e-07
-1.59415e-06
1.87939e-08
3.40376e-07
-9.89098e-08
-6.6719e-08
1.94223e-06
9.05382e-07
-2.15867e-06
1.19662e-06
-2.71544e-06
1.41591e-06
-2.42131e-06
1.62878e-06
-1.92972e-06
1.80345e-06
-1.45813e-06
1.92067e-06
-1.08667e-06
1.98551e-06
-9.53398e-07
2.01428e-06
-1.10802e-06
2.03615e-06
-1.24947e-06
2.03092e-06
-3.04138e-07
1.73195e-06
2.34391e-06
1.30749e-06
3.77846e-06
9.92242e-07
4.73493e-06
1.0762e-06
3.65554e-06
9.1472e-07
-6.64282e-07
5.62512e-07
-1.24195e-06
-1.02452e-07
1.00535e-06
-3.9397e-07
2.24793e-07
1.54826e-06
8.0539e-07
-2.96406e-06
1.14736e-06
-3.0574e-06
1.3573e-06
-2.63125e-06
1.53526e-06
-2.10769e-06
1.67142e-06
-1.59429e-06
1.74069e-06
-1.15594e-06
1.74111e-06
-9.53821e-07
1.67551e-06
-1.04242e-06
1.56602e-06
-1.13998e-06
1.53163e-06
-2.69742e-07
1.43711e-06
2.43843e-06
1.18908e-06
4.02648e-06
1.13309e-06
4.79093e-06
1.48059e-06
3.30804e-06
1.17012e-06
-3.53801e-07
6.45827e-07
-7.17662e-07
-7.12695e-08
1.72245e-06
-5.06054e-07
6.59575e-07
1.04221e-06
7.38271e-07
-3.70233e-06
1.10706e-06
-3.42619e-06
1.2974e-06
-2.82159e-06
1.44145e-06
-2.25173e-06
1.54416e-06
-1.69701e-06
1.57552e-06
-1.1873e-06
1.52351e-06
-9.01816e-07
1.37901e-06
-8.97928e-07
1.15993e-06
-9.20909e-07
1.04362e-06
-1.5343e-07
1.15691e-06
2.32514e-06
1.18082e-06
4.00258e-06
1.38452e-06
4.58723e-06
1.77807e-06
2.91448e-06
1.33904e-06
8.523e-08
7.12964e-07
-9.15832e-08
1.02079e-07
2.33333e-06
-4.35309e-07
1.19696e-06
6.06902e-07
8.70732e-07
-4.57306e-06
1.11373e-06
-3.66919e-06
1.24301e-06
-2.95087e-06
1.34462e-06
-2.35334e-06
1.41753e-06
-1.76992e-06
1.42303e-06
-1.1928e-06
1.33988e-06
-8.18664e-07
1.14875e-06
-7.06798e-07
8.72814e-07
-6.44971e-07
6.91313e-07
2.80708e-08
9.28502e-07
2.08796e-06
1.20132e-06
3.72976e-06
1.65734e-06
4.13121e-06
1.92579e-06
2.64604e-06
1.41424e-06
5.96784e-07
7.60399e-07
5.6225e-07
3.42922e-07
2.75081e-06
-1.83477e-07
1.72336e-06
4.23422e-07
-5.16766e-07
2.31129e-06
-1.07737e-06
2.33139e-06
-1.60427e-06
2.22676e-06
-2.09395e-06
2.09456e-06
-2.54761e-06
1.93154e-06
-2.96485e-06
1.73426e-06
-3.33728e-06
1.48844e-06
-3.65216e-06
1.18699e-06
-3.89805e-06
8.44182e-07
-4.08251e-06
5.04199e-07
-4.21621e-06
1.70341e-07
-4.30499e-06
-1.88105e-07
-4.33814e-06
-6.01955e-07
-4.31905e-06
-1.01452e-06
-4.24848e-06
-1.3464e-06
-4.09854e-06
-1.52612e-06
-3.74548e-06
-1.52964e-06
-2.96468e-06
-1.35243e-06
-1.8191e-06
-1.21698e-06
-6.51953e-07
-1.40148e-06
1.25055e-07
-1.92277e-06
2.8719e-07
-2.4258e-06
-2.54349e-06
2.45873e-07
-6.07817e-07
2.91911e-06
-1.19702e-06
2.92059e-06
-1.70919e-06
2.73892e-06
-2.18607e-06
2.57144e-06
-2.65468e-06
2.40014e-06
-3.08499e-06
2.16457e-06
-3.46219e-06
1.86563e-06
-3.78685e-06
1.51165e-06
-4.05825e-06
1.11558e-06
-4.26776e-06
7.13707e-07
-4.40916e-06
3.11738e-07
-4.49086e-06
-1.06396e-07
-4.52787e-06
-5.64952e-07
-4.53464e-06
-1.00774e-06
-4.47593e-06
-1.40511e-06
-4.27257e-06
-1.72947e-06
-3.81847e-06
-1.98374e-06
-3.01007e-06
-2.16083e-06
-1.92055e-06
-2.30649e-06
-8.20182e-07
-2.50184e-06
6.39362e-09
-2.74934e-06
5.27588e-07
-2.947e-06
-2.9999e-06
9.83983e-07
-7.13069e-07
3.63218e-06
-1.26754e-06
3.47507e-06
-1.93917e-06
3.41059e-06
-2.55454e-06
3.18683e-06
-2.9842e-06
2.82983e-06
-3.29781e-06
2.4782e-06
-3.56366e-06
2.13149e-06
-3.82095e-06
1.76896e-06
-4.08225e-06
1.37689e-06
-4.29172e-06
9.23191e-07
-4.39656e-06
4.16592e-07
-4.40894e-06
-9.40223e-08
-4.4345e-06
-5.39394e-07
-4.47256e-06
-9.69682e-07
-4.4522e-06
-1.42549e-06
-4.23002e-06
-1.95168e-06
-3.71544e-06
-2.49834e-06
-2.86394e-06
-3.01235e-06
-1.80645e-06
-3.36402e-06
-7.21352e-07
-3.58696e-06
1.42618e-07
-3.61335e-06
7.7e-07
-3.57443e-06
-3.55396e-06
1.32401e-06
-6.5723e-07
4.28941e-06
-2.06665e-07
3.02452e-06
-2.20757e-06
5.41149e-06
-4.27946e-06
5.25866e-06
-3.96932e-06
2.51966e-06
-3.53385e-06
2.04269e-06
-3.49489e-06
2.09248e-06
-3.47579e-06
1.74981e-06
-3.65455e-06
1.55561e-06
-3.82533e-06
1.09395e-06
-3.84808e-06
4.39339e-07
-3.72724e-06
-2.1485e-07
-3.8764e-06
-3.90213e-07
-3.82945e-06
-1.0166e-06
-3.74871e-06
-1.50618e-06
-3.54211e-06
-2.15821e-06
-2.89046e-06
-3.14991e-06
-1.94076e-06
-3.96194e-06
-1.5853e-06
-3.71938e-06
-6.76979e-07
-4.49517e-06
1.59838e-07
-4.45008e-06
8.5169e-07
-4.26617e-06
-4.3668e-06
1.66458e-06
9.14028e-07
3.37539e-06
1.5217e-07
3.78642e-06
-4.24364e-06
9.80732e-06
-7.12373e-06
8.13883e-06
-6.33359e-06
1.72961e-06
-5.84124e-06
1.55041e-06
-5.82407e-06
2.07538e-06
-5.24167e-06
1.16748e-06
-4.89971e-06
1.21372e-06
-4.4581e-06
6.52391e-07
-3.92639e-06
-9.23567e-08
-3.23947e-06
-9.01766e-07
-2.05866e-06
-1.57105e-06
-1.24599e-06
-1.82933e-06
-6.8788e-07
-2.06437e-06
-3.41943e-07
-2.50425e-06
2.26231e-07
-3.7182e-06
9.43342e-07
-4.67917e-06
-7.61548e-08
-2.69999e-06
-1.19053e-06
-3.38086e-06
-1.36945e-06
-4.27124e-06
-7.1192e-07
-4.92367e-06
-4.94093e-06
-1.37537e-07
-1.21345e-06
4.58882e-06
-2.27017e-06
4.84329e-06
2.41533e-07
7.29563e-06
3.27264e-06
5.10776e-06
1.52282e-06
3.47943e-06
-1.33917e-06
4.41241e-06
-2.73343e-06
3.46968e-06
-3.67065e-06
2.10472e-06
-3.96957e-06
1.51267e-06
-3.64702e-06
3.29856e-07
-3.13461e-06
-6.04753e-07
-2.57571e-06
-1.46066e-06
-2.08327e-06
-2.06347e-06
-1.87203e-06
-2.04053e-06
-2.05684e-06
-1.87951e-06
-2.45096e-06
-2.11008e-06
-3.26095e-06
-2.90821e-06
-3.78644e-06
-4.15375e-06
-2.88153e-06
-3.60492e-06
-3.71349e-06
-2.54888e-06
-3.93735e-06
-4.04758e-06
-3.82677e-06
-5.03461e-06
-3.80275e-06
-4.96517e-06
-3.78208e-07
4.96704e-06
-9.45282e-07
5.41033e-06
1.60397e-06
4.74651e-06
3.26431e-06
3.44753e-06
2.17618e-06
4.56761e-06
1.39989e-06
5.18875e-06
5.02553e-07
4.36708e-06
-3.32971e-07
2.94031e-06
-7.41709e-07
1.92147e-06
-1.12686e-06
7.15067e-07
-1.4302e-06
-3.01344e-07
-1.88699e-06
-1.00381e-06
-2.60192e-06
-1.34848e-06
-3.38757e-06
-1.25484e-06
-4.02768e-06
-1.23936e-06
-3.88394e-06
-2.25378e-06
-3.19061e-06
-3.60148e-06
-3.65846e-06
-3.68584e-06
-4.04276e-06
-3.2205e-06
-3.78534e-06
-2.80609e-06
-3.40572e-06
-4.42701e-06
-4.69047e-06
-3.74988e-06
-2.296e-06
-6.1975e-06
4.0397e-07
4.56321e-06
1.10742e-06
4.70692e-06
1.84251e-06
4.01155e-06
1.68083e-06
3.60927e-06
1.66419e-06
4.58429e-06
1.75153e-06
5.10143e-06
1.68523e-06
4.4334e-06
1.29948e-06
3.32607e-06
9.08093e-07
2.31286e-06
3.90279e-07
1.23286e-06
-2.28004e-07
3.16919e-07
-9.80173e-07
-2.51666e-07
-1.86339e-06
-4.65293e-07
-2.64589e-06
-4.72369e-07
-3.06221e-06
-8.23121e-07
-2.83764e-06
-2.47851e-06
-2.8893e-06
-3.54997e-06
-3.24785e-06
-3.32744e-06
-3.22669e-06
-3.24181e-06
-2.56974e-06
-3.46319e-06
-3.16829e-06
-3.82845e-06
-4.10799e-06
-2.80999e-06
-2.49704e-06
-3.90662e-06
5.82203e-07
3.98095e-06
1.13368e-06
4.15553e-06
1.31103e-06
3.83424e-06
1.09959e-06
3.82071e-06
1.23126e-06
4.45263e-06
1.60908e-06
4.72365e-06
1.79881e-06
4.24373e-06
1.70378e-06
3.42117e-06
1.45223e-06
2.56447e-06
1.01235e-06
1.67282e-06
4.40102e-07
8.89237e-07
-2.25726e-07
4.14244e-07
-8.76654e-07
1.85734e-07
-1.33021e-06
-1.86925e-08
-1.49198e-06
-6.61227e-07
-1.86692e-06
-2.10348e-06
-2.47288e-06
-2.94396e-06
-2.77064e-06
-3.02965e-06
-2.73266e-06
-3.27978e-06
-2.73491e-06
-3.46099e-06
-3.38812e-06
-3.1753e-06
-3.59662e-06
-2.60148e-06
-2.60011e-06
-3.49346e-06
4.44182e-07
3.53676e-06
7.68971e-07
3.83087e-06
8.09731e-07
3.7935e-06
7.22618e-07
3.90785e-06
9.14951e-07
4.26036e-06
1.28278e-06
4.35591e-06
1.52023e-06
4.00637e-06
1.55584e-06
3.38565e-06
1.43204e-06
2.68832e-06
1.13345e-06
1.97146e-06
6.92818e-07
1.32991e-06
1.93952e-07
9.13155e-07
-2.35664e-07
6.15416e-07
-5.02578e-07
2.48314e-07
-7.0908e-07
-4.54616e-07
-1.2991e-06
-1.51332e-06
-1.95417e-06
-2.28872e-06
-2.32148e-06
-2.66216e-06
-2.60919e-06
-2.99191e-06
-3.00607e-06
-3.06391e-06
-3.40038e-06
-2.78084e-06
-3.58319e-06
-2.4186e-06
-2.43494e-06
-3.74834e-06
2.70602e-07
3.26626e-06
4.41258e-07
3.6603e-06
4.65633e-07
3.76915e-06
4.70951e-07
3.90258e-06
6.51053e-07
4.08033e-06
9.31723e-07
4.07531e-06
1.14731e-06
3.79084e-06
1.23396e-06
3.29902e-06
1.18911e-06
2.73316e-06
9.97016e-07
2.16351e-06
6.71066e-07
1.6558e-06
3.1218e-07
1.27196e-06
1.2639e-08
9.14878e-07
-2.15154e-07
4.76028e-07
-4.95461e-07
-1.74405e-07
-1.0059e-06
-1.003e-06
-1.58804e-06
-1.70667e-06
-2.025e-06
-2.22528e-06
-2.44694e-06
-2.57004e-06
-2.87989e-06
-2.63099e-06
-3.24991e-06
-2.41087e-06
-3.50147e-06
-2.1671e-06
-2.15355e-06
-3.78291e-06
1.38464e-07
3.1279e-06
2.23086e-07
3.57569e-06
2.5087e-07
3.7414e-06
2.95603e-07
3.85791e-06
4.40405e-07
3.93561e-06
6.41524e-07
3.87426e-06
8.08521e-07
3.62389e-06
8.9985e-07
3.20772e-06
8.84869e-07
2.74815e-06
7.50385e-07
2.29798e-06
5.14465e-07
1.8917e-06
2.6668e-07
1.51972e-06
4.46405e-08
1.13689e-06
-1.61018e-07
6.81667e-07
-4.33745e-07
9.82827e-08
-8.57661e-07
-5.79164e-07
-1.35133e-06
-1.2131e-06
-1.79542e-06
-1.78131e-06
-2.23095e-06
-2.13462e-06
-2.64138e-06
-2.22065e-06
-2.99129e-06
-2.06101e-06
-3.27202e-06
-1.88639e-06
-1.8657e-06
-3.55985e-06
4.84447e-08
3.07948e-06
9.04256e-08
3.53369e-06
1.17542e-07
3.71432e-06
1.6999e-07
3.80553e-06
2.80457e-07
3.82521e-06
4.22384e-07
3.7324e-06
5.44136e-07
3.5022e-06
6.08338e-07
3.14357e-06
5.90515e-07
2.76603e-06
4.87808e-07
2.40075e-06
3.32389e-07
2.04718e-06
1.65331e-07
1.68686e-06
1.37059e-09
1.30096e-06
-1.73567e-07
8.56734e-07
-4.08012e-07
3.32872e-07
-7.42072e-07
-2.44965e-07
-1.14186e-06
-8.13183e-07
-1.57293e-06
-1.35015e-06
-1.99781e-06
-1.70969e-06
-2.38634e-06
-1.83206e-06
-2.70824e-06
-1.73905e-06
-2.96096e-06
-1.6336e-06
-1.62968e-06
-3.19691e-06
-9.00973e-09
3.08844e-06
9.51447e-09
3.51518e-06
2.85543e-08
3.69533e-06
7.42043e-08
3.75994e-06
1.55763e-07
3.7437e-06
2.5561e-07
3.6326e-06
3.40109e-07
3.41774e-06
3.6873e-07
3.115e-06
3.43322e-07
2.79149e-06
2.70627e-07
2.47351e-06
1.73271e-07
2.14461e-06
6.20583e-08
1.79814e-06
-5.76056e-08
1.4207e-06
-1.98094e-07
9.97325e-07
-3.87233e-07
5.2214e-07
-6.45417e-07
1.33648e-08
-9.66179e-07
-4.92271e-07
-1.35455e-06
-9.6165e-07
-1.75363e-06
-1.31051e-06
-2.12012e-06
-1.46549e-06
-2.4093e-06
-1.44983e-06
-2.61823e-06
-1.42466e-06
-1.44987e-06
-2.79807e-06
-4.16407e-08
3.13006e-06
-4.95346e-08
3.52316e-06
-4.04367e-08
3.68631e-06
-8.00588e-09
3.72756e-06
4.92091e-08
3.68652e-06
1.16801e-07
3.56502e-06
1.69974e-07
3.36458e-06
1.82146e-07
3.10286e-06
1.58379e-07
2.8153e-06
1.13406e-07
2.51853e-06
5.15776e-08
2.20648e-06
-2.22615e-08
1.872e-06
-1.09577e-07
1.50801e-06
-2.20571e-07
1.1083e-06
-3.72234e-07
6.73782e-07
-5.77959e-07
2.19077e-07
-8.40388e-07
-2.29847e-07
-1.16128e-06
-6.40774e-07
-1.51466e-06
-9.57153e-07
-1.84187e-06
-1.13834e-06
-2.08699e-06
-1.2048e-06
-2.26967e-06
-1.24209e-06
-1.30317e-06
-2.41651e-06
-6.18555e-08
3.19196e-06
-9.56821e-08
3.55714e-06
-1.01364e-07
3.69209e-06
-8.32399e-08
3.70948e-06
-4.61763e-08
3.64947e-06
-2.31237e-09
3.52116e-06
3.09359e-08
3.33134e-06
4.06725e-08
3.09313e-06
2.83207e-08
2.82767e-06
1.61306e-09
2.54526e-06
-3.62146e-08
2.24432e-06
-8.5296e-08
1.92107e-06
-1.49441e-07
1.57211e-06
-2.37181e-07
1.19596e-06
-3.60102e-07
7.96602e-07
-5.27679e-07
3.86544e-07
-7.43889e-07
-1.37481e-08
-1.00664e-06
-3.78135e-07
-1.29274e-06
-6.71171e-07
-1.56057e-06
-8.70633e-07
-1.77516e-06
-9.9033e-07
-1.93911e-06
-1.07828e-06
-1.17152e-06
-2.07089e-06
-8.40099e-08
3.27608e-06
-1.36988e-07
3.61025e-06
-1.56457e-07
3.71163e-06
-1.51448e-07
3.70451e-06
-1.29439e-07
3.62747e-06
-1.00607e-07
3.49233e-06
-7.63244e-08
3.30705e-06
-6.51093e-08
3.08192e-06
-6.69536e-08
2.82953e-06
-7.86816e-08
2.55701e-06
-9.94219e-08
2.26509e-06
-1.30958e-07
1.95262e-06
-1.77676e-07
1.61882e-06
-2.46591e-07
1.26484e-06
-3.45943e-07
8.95894e-07
-4.82244e-07
5.22772e-07
-6.57595e-07
1.61528e-07
-8.67691e-07
-1.68109e-07
-1.09474e-06
-4.44186e-07
-1.311e-06
-6.54429e-07
-1.49387e-06
-8.07496e-07
-1.64152e-06
-9.30644e-07
-1.04847e-06
-1.76456e-06
-1.08859e-07
3.38504e-06
-1.74205e-07
3.67568e-06
-2.04812e-07
3.74227e-06
-2.10499e-07
3.71021e-06
-1.99032e-07
3.61601e-06
-1.78945e-07
3.47224e-06
-1.58639e-07
3.28675e-06
-1.44167e-07
3.06745e-06
-1.37115e-07
2.82249e-06
-1.37146e-07
2.55707e-06
-1.45033e-07
2.27301e-06
-1.63255e-07
1.97089e-06
-1.96015e-07
1.65162e-06
-2.48907e-07
1.31777e-06
-3.27782e-07
9.74801e-07
-4.36828e-07
6.31849e-07
-5.76605e-07
3.01341e-07
-7.42233e-07
-2.43477e-09
-9.20883e-07
-2.65477e-07
-1.09442e-06
-4.80821e-07
-1.24824e-06
-6.53579e-07
-1.37947e-06
-7.99288e-07
-9.33801e-07
-1.49399e-06
-1.2964e-07
3.51474e-06
-2.04223e-07
3.75027e-06
-2.44334e-07
3.78238e-06
-2.58374e-07
3.72424e-06
-2.54029e-07
3.61167e-06
-2.38901e-07
3.45712e-06
-2.19878e-07
3.26774e-06
-2.02044e-07
3.04963e-06
-1.87978e-07
2.80844e-06
-1.79043e-07
2.54816e-06
-1.77023e-07
2.27103e-06
-1.8467e-07
1.97859e-06
-2.05729e-07
1.67275e-06
-2.44567e-07
1.3567e-06
-3.05296e-07
1.03563e-06
-3.90473e-07
7.17137e-07
-4.99757e-07
4.10747e-07
-6.28825e-07
1.26769e-07
-7.6848e-07
-1.25672e-07
-9.06986e-07
-3.42151e-07
-1.03487e-06
-5.25518e-07
-1.14935e-06
-6.84619e-07
-8.29405e-07
-1.25354e-06
-1.45858e-07
3.6606e-06
-2.26928e-07
3.8313e-06
-2.74425e-07
3.82985e-06
-2.94188e-07
3.74399e-06
-2.94205e-07
3.61169e-06
-2.81641e-07
3.44457e-06
-2.62632e-07
3.24875e-06
-2.4188e-07
3.0289e-06
-2.22517e-07
2.7891e-06
-2.06824e-07
2.5325e-06
-1.97128e-07
2.26138e-06
-1.96203e-07
1.97773e-06
-2.07281e-07
1.68391e-06
-2.33737e-07
1.38325e-06
-2.7845e-07
1.08046e-06
-3.42935e-07
7.81751e-07
-4.26483e-07
4.94438e-07
-5.25576e-07
2.26015e-07
-6.33774e-07
-1.73144e-08
-7.43399e-07
-2.3236e-07
-8.48177e-07
-4.2057e-07
-9.45766e-07
-5.86863e-07
-7.37345e-07
-1.03766e-06
-1.5534e-07
3.81591e-06
-2.44187e-07
3.92009e-06
-2.95347e-07
3.88098e-06
-3.17641e-07
3.76628e-06
-3.19517e-07
3.61357e-06
-3.07838e-07
3.43291e-06
-2.88243e-07
3.22917e-06
-2.65176e-07
3.00586e-06
-2.41978e-07
2.76592e-06
-2.21332e-07
2.51188e-06
-2.05766e-07
2.24584e-06
-1.97919e-07
1.96993e-06
-2.00537e-07
1.68659e-06
-2.16232e-07
1.39902e-06
-2.47034e-07
1.11135e-06
-2.93832e-07
8.28644e-07
-3.55852e-07
5.56561e-07
-4.3038e-07
3.00651e-07
-5.12997e-07
6.54107e-08
-5.98475e-07
-1.46774e-07
-6.82634e-07
-3.36309e-07
-7.63546e-07
-5.05857e-07
-6.59067e-07
-8.41736e-07
-1.59033e-07
3.97491e-06
-2.55585e-07
4.0166e-06
-3.06226e-07
3.9316e-06
-3.27981e-07
3.78803e-06
-3.29653e-07
3.61525e-06
-3.17713e-07
3.42098e-06
-2.97309e-07
3.20878e-06
-2.72568e-07
2.98113e-06
-2.4678e-07
2.74015e-06
-2.2269e-07
2.4878e-06
-2.02798e-07
2.22596e-06
-1.89512e-07
1.95666e-06
-1.85141e-07
1.68224e-06
-1.9172e-07
1.40562e-06
-2.10709e-07
1.13037e-06
-2.42637e-07
8.60609e-07
-2.86814e-07
6.00775e-07
-3.41221e-07
3.55096e-07
-4.02752e-07
1.26978e-07
-4.67871e-07
-8.16237e-08
-5.33639e-07
-2.70516e-07
-5.98473e-07
-4.41006e-07
-5.95214e-07
-6.62318e-07
-1.61897e-07
4.13677e-06
-2.57756e-07
4.11245e-06
-3.04623e-07
3.97848e-06
-3.23822e-07
3.80725e-06
-3.24055e-07
3.6155e-06
-3.11286e-07
3.40822e-06
-2.90157e-07
3.18766e-06
-2.64414e-07
2.95539e-06
-2.37128e-07
2.71286e-06
-2.10906e-07
2.46157e-06
-1.88065e-07
2.20311e-06
-1.70734e-07
1.93931e-06
-1.60836e-07
1.67233e-06
-1.59966e-07
1.40474e-06
-1.69198e-07
1.13959e-06
-1.88866e-07
8.80263e-07
-2.18405e-07
6.30299e-07
-2.56335e-07
3.93008e-07
-3.00459e-07
1.7108e-07
-3.48312e-07
-3.37958e-08
-3.97764e-07
-2.21094e-07
-4.47476e-07
-3.9133e-07
-5.45684e-07
-4.97044e-07
-1.5829e-07
4.29505e-06
-2.45506e-07
4.19969e-06
-2.879e-07
4.02089e-06
-3.04045e-07
3.82341e-06
-3.02479e-07
3.61395e-06
-2.88808e-07
3.39456e-06
-2.67262e-07
3.16612e-06
-2.41209e-07
2.92934e-06
-2.13416e-07
2.68506e-06
-1.86229e-07
2.43437e-06
-1.61703e-07
2.17857e-06
-1.4166e-07
1.91925e-06
-1.2768e-07
1.65832e-06
-1.21019e-07
1.39805e-06
-1.22478e-07
1.14101e-06
-1.32283e-07
8.90029e-07
-1.49994e-07
6.47967e-07
-1.74528e-07
4.17496e-07
-2.04313e-07
2.00816e-07
-2.37575e-07
-5.85639e-10
-2.72712e-07
-1.86011e-07
-3.08563e-07
-3.55534e-07
-5.09778e-07
-3.44525e-07
-1.42163e-07
4.43722e-06
-2.19042e-07
4.27661e-06
-2.56569e-07
4.05845e-06
-2.69319e-07
3.83619e-06
-2.65708e-07
3.61036e-06
-2.51154e-07
3.38003e-06
-2.29538e-07
3.14451e-06
-2.03829e-07
2.90363e-06
-1.76422e-07
2.65766e-06
-1.4933e-07
2.40727e-06
-1.2429e-07
2.15352e-06
-1.0281e-07
1.89775e-06
-8.61617e-08
1.64165e-06
-7.53209e-08
1.38718e-06
-7.08921e-08
1.13655e-06
-7.30302e-08
8.92126e-07
-8.14012e-08
6.56294e-07
-9.52082e-08
4.31256e-07
-1.13303e-07
2.1886e-07
-1.34378e-07
2.04377e-08
-1.57173e-07
-1.63268e-07
-1.8067e-07
-3.32089e-07
-4.86341e-07
-2.04161e-07
-1.20073e-07
4.55732e-06
-1.8458e-07
4.34117e-06
-2.14353e-07
4.08827e-06
-2.22004e-07
3.84387e-06
-2.15479e-07
3.60386e-06
-1.99815e-07
3.36438e-06
-1.78367e-07
3.12308e-06
-1.53574e-07
2.87885e-06
-1.2736e-07
2.63145e-06
-1.01331e-07
2.38125e-06
-7.68707e-08
2.12905e-06
-5.51692e-08
1.87604e-06
-3.72106e-08
1.62368e-06
-2.37351e-08
1.37368e-06
-1.5187e-08
1.12798e-06
-1.16703e-08
8.88582e-07
-1.29278e-08
6.5752e-07
-1.83665e-08
4.3666e-07
-2.71321e-08
2.27589e-07
-3.82281e-08
3.14953e-08
-5.06457e-08
-1.5089e-07
-6.34757e-08
-3.19298e-07
-4.73889e-07
-7.59676e-08
-9.71601e-08
4.65452e-06
-1.46009e-07
4.39007e-06
-1.64472e-07
4.10677e-06
-1.64439e-07
3.84387e-06
-1.53688e-07
3.59313e-06
-1.36532e-07
3.34725e-06
-1.15442e-07
3.10202e-06
-9.20947e-08
2.85552e-06
-6.78188e-08
2.60719e-06
-4.3754e-08
2.35719e-06
-2.09023e-08
2.10621e-06
-1.3236e-10
1.85528e-06
1.78418e-08
1.6057e-06
3.24918e-08
1.35903e-06
4.35095e-08
1.11695e-06
5.08389e-08
8.81241e-07
5.46849e-08
6.53659e-07
5.54969e-08
4.3583e-07
5.39211e-08
2.29145e-07
5.07309e-08
3.46638e-08
4.67504e-08
-1.46933e-07
4.27893e-08
-3.15361e-07
-4.70723e-07
3.95977e-08
-7.4786e-08
4.72933e-06
-1.05378e-07
4.42071e-06
-1.08757e-07
4.11018e-06
-9.81942e-08
3.83334e-06
-8.19236e-08
3.57689e-06
-6.30475e-08
3.3284e-06
-4.26149e-08
3.08161e-06
-2.12834e-08
2.83421e-06
3.20651e-10
2.5856e-06
2.15646e-08
2.33597e-06
4.18367e-08
2.08595e-06
6.05847e-08
1.83654e-06
7.73503e-08
1.58895e-06
9.18004e-08
1.34458e-06
1.03756e-07
1.105e-06
1.13209e-07
8.71787e-07
1.20335e-07
6.46531e-07
1.25479e-07
4.30683e-07
1.29132e-07
2.25486e-07
1.319e-07
3.18902e-08
1.34456e-07
-1.49497e-07
1.37516e-07
-3.18429e-07
-4.75017e-07
1.418e-07
-5.35027e-08
4.78286e-06
-6.35878e-08
4.43082e-06
-4.78667e-08
4.09448e-06
-2.39908e-08
3.80949e-06
-1.45102e-09
3.55438e-06
1.89083e-08
3.30807e-06
3.81331e-08
3.0624e-06
5.6791e-08
2.81558e-06
7.49872e-08
2.56743e-06
9.25852e-08
2.31839e-06
1.09353e-07
2.0692e-06
1.25043e-07
1.82086e-06
1.39444e-07
1.57456e-06
1.52411e-07
1.33163e-06
1.63886e-07
1.09353e-06
1.73918e-07
8.61763e-07
1.82665e-07
6.37791e-07
1.90395e-07
4.2296e-07
1.97479e-07
2.18409e-07
2.04379e-07
2.49964e-08
2.11642e-07
-1.56753e-07
2.19883e-07
-3.26664e-07
-4.84904e-07
2.29777e-07
-3.22113e-08
4.81509e-06
-1.88614e-08
4.4175e-06
1.91386e-08
4.0565e-06
5.83687e-08
3.77028e-06
8.647e-08
3.52629e-06
1.07418e-07
3.28714e-06
1.24649e-07
3.04519e-06
1.39934e-07
2.80031e-06
1.54006e-07
2.55337e-06
1.6717e-07
2.30524e-06
1.79551e-07
2.05683e-06
1.912e-07
1.80923e-06
2.02146e-07
1.56362e-06
2.12429e-07
1.32136e-06
2.22115e-07
1.08386e-06
2.31312e-07
8.5258e-07
2.40175e-07
6.28944e-07
2.48909e-07
4.14241e-07
2.57781e-07
2.09554e-07
2.67125e-07
1.56708e-08
2.77361e-07
-1.66968e-07
2.89005e-07
-3.38287e-07
-4.98546e-07
3.02671e-07
-1.60902e-09
4.81672e-06
3.752e-08
4.37838e-06
9.61893e-08
3.99785e-06
1.47193e-07
3.71929e-06
1.79648e-07
3.49385e-06
1.99996e-07
3.2668e-06
2.14613e-07
3.03059e-06
2.25955e-07
2.78898e-06
2.35249e-07
2.54409e-06
2.43222e-07
2.29728e-06
2.5036e-07
2.04971e-06
2.57019e-07
1.80258e-06
2.63473e-07
1.55718e-06
2.69949e-07
1.3149e-06
2.76639e-07
1.07719e-06
2.83716e-07
8.45524e-07
2.91336e-07
6.21346e-07
2.99654e-07
4.05948e-07
3.08835e-07
2.004e-07
3.19085e-07
5.45031e-09
3.30693e-07
-1.78543e-07
3.44068e-07
-3.51626e-07
-5.14195e-07
3.59756e-07
5.53398e-08
4.76139e-06
1.19588e-07
4.31413e-06
1.88133e-07
3.9293e-06
2.40936e-07
3.66649e-06
2.75237e-07
3.45955e-06
2.94464e-07
3.24758e-06
3.0616e-07
3.0189e-06
3.13051e-07
2.7821e-06
3.16873e-07
2.54028e-06
3.18839e-07
2.29532e-06
3.19845e-07
2.04871e-06
3.20571e-07
1.80187e-06
3.2154e-07
1.55623e-06
3.23159e-07
1.3133e-06
3.25746e-07
1.07462e-06
3.29539e-07
8.41758e-07
3.34705e-07
6.16209e-07
3.41348e-07
3.99338e-07
3.49531e-07
1.92254e-07
3.59322e-07
-4.3005e-09
3.70861e-07
-1.90039e-07
3.84439e-07
-3.65158e-07
-5.30242e-07
4.00537e-07
1.38202e-07
4.62318e-06
2.28094e-07
4.22423e-06
2.97318e-07
3.86007e-06
3.44353e-07
3.61944e-06
3.74267e-07
3.42963e-06
3.91304e-07
3.23054e-06
3.98976e-07
3.01122e-06
4.00276e-07
2.7808e-06
3.97504e-07
2.54305e-06
3.92403e-07
2.30043e-06
3.86276e-07
2.05485e-06
3.80106e-07
1.80806e-06
3.74635e-07
1.56172e-06
3.70427e-07
1.31753e-06
3.6791e-07
1.07717e-06
3.67384e-07
8.42316e-07
3.69029e-07
6.146e-07
3.72905e-07
3.95503e-07
3.78967e-07
1.86236e-07
3.87122e-07
-1.24082e-08
3.97336e-07
-2.00201e-07
4.09765e-07
-3.77533e-07
-5.45247e-07
4.24829e-07
2.34085e-07
4.38909e-06
3.57236e-07
4.10105e-06
4.24643e-07
3.79265e-06
4.61286e-07
3.58279e-06
4.8259e-07
3.40832e-06
4.93461e-07
3.21966e-06
4.93956e-07
3.01072e-06
4.8724e-07
2.78751e-06
4.76041e-07
2.55425e-06
4.62468e-07
2.31401e-06
4.48091e-07
2.06924e-06
4.34073e-07
1.82209e-06
4.21285e-07
1.57453e-06
4.1039e-07
1.32845e-06
4.0189e-07
1.0857e-06
3.96141e-07
8.48101e-07
3.93343e-07
6.17438e-07
3.93522e-07
3.95369e-07
3.96526e-07
1.83281e-07
4.02075e-07
-1.79058e-08
4.09911e-07
-2.07984e-07
4.20033e-07
-3.87598e-07
-5.57968e-07
4.32815e-07
3.32605e-07
4.05648e-06
4.98012e-07
3.93561e-06
5.67772e-07
3.72286e-06
5.94281e-07
3.55625e-06
6.04351e-07
3.39823e-06
6.02619e-07
3.22137e-06
5.91054e-07
3.02227e-06
5.72924e-07
2.80563e-06
5.51024e-07
2.57615e-06
5.27464e-07
2.33757e-06
5.03783e-07
2.09293e-06
4.81113e-07
1.84478e-06
4.60308e-07
1.59536e-06
4.42036e-07
1.34675e-06
4.2683e-07
1.10094e-06
4.15093e-07
8.59876e-07
4.07062e-07
6.2551e-07
4.02761e-07
3.99715e-07
4.01947e-07
1.84144e-07
4.04128e-07
-2.00359e-08
4.08747e-07
-2.12551e-07
4.15602e-07
-3.94398e-07
-5.6737e-07
4.2506e-07
4.43082e-07
3.61337e-06
6.51559e-07
3.7271e-06
7.28579e-07
3.64581e-06
7.44948e-07
3.53986e-06
7.36653e-07
3.4065e-06
7.15758e-07
3.24225e-06
6.87298e-07
3.05072e-06
6.54622e-07
2.8383e-06
6.20128e-07
2.61064e-06
5.85482e-07
2.37222e-06
5.51852e-07
2.12657e-06
5.20096e-07
1.87655e-06
4.9089e-07
1.62459e-06
4.64812e-07
1.37286e-06
4.42376e-07
1.1234e-06
4.24025e-07
8.78262e-07
4.10075e-07
6.39499e-07
4.00612e-07
4.0922e-07
3.95364e-07
1.89438e-07
3.93614e-07
-1.82395e-08
3.94382e-07
-2.13272e-07
3.97199e-07
-3.97168e-07
-5.72624e-07
4.02502e-07
5.93041e-07
3.02031e-06
8.41362e-07
3.47873e-06
9.10421e-07
3.57671e-06
9.04101e-07
3.54614e-06
8.69631e-07
3.44094e-06
8.24906e-07
3.28695e-06
7.76668e-07
3.09894e-06
7.2794e-07
2.88702e-06
6.80237e-07
2.65834e-06
6.34393e-07
2.41806e-06
5.90932e-07
2.17003e-06
5.50251e-07
1.91724e-06
5.12726e-07
1.66213e-06
4.7876e-07
1.40684e-06
4.48809e-07
1.15338e-06
4.23357e-07
9.03744e-07
4.02854e-07
6.60036e-07
3.87561e-07
4.24549e-07
3.77315e-07
1.99721e-07
3.71234e-07
-1.21187e-08
3.67695e-07
-2.09694e-07
3.65863e-07
-3.95297e-07
-5.73121e-07
3.664e-07
8.06927e-07
2.21336e-06
1.07612e-06
3.20949e-06
1.10569e-06
3.5471e-06
1.05871e-06
3.5931e-06
9.90706e-07
3.50891e-06
9.19863e-07
3.35777e-06
8.51794e-07
3.16699e-06