/*--------------------------------*- C++ -*----------------------------------*\
  =========                 |
  \\      /  F ield         | OpenFOAM: The Open Source CFD Toolbox
   \\    /   O peration     | Website:  https://openfoam.org
    \\  /    A nd           | Version:  9
     \\/     M anipulation  |
\*---------------------------------------------------------------------------*/
FoamFile
{
    format      ascii;
    class       volVectorField;
    location    "5.41";
    object      U;
}
// * * * * * * * * * * * * * * * * * * * * * * * * * * * * * * * * * * * * * //

dimensions      [0 1 -1 0 0 0 0];

internalField   nonuniform List<vector> 
2268
(
(-0.00200281 0.000901929 0)
(-0.00499457 0.000740544 0)
(-0.0075908 0.000675105 0)
(-0.0101681 0.000640001 0)
(-0.0125604 0.000609783 0)
(-0.0148042 0.000572883 0)
(-0.0168266 0.00050531 0)
(-0.0185342 0.000407764 0)
(-0.0198254 0.000279837 0)
(-0.0206326 0.00012937 0)
(-0.0208954 -3.6472e-05 0)
(-0.0205304 -0.000244981 0)
(-0.0194284 -0.000507336 0)
(-0.0173796 -0.000850423 0)
(-0.0141501 -0.00125257 0)
(-0.0099216 -0.00157857 0)
(-0.00495606 -0.00107384 0)
(-0.00422397 0.00147394 0)
(-0.012401 0.00346207 0)
(-0.0238251 0.00302757 0)
(-0.0288044 -0.000137927 0)
(-0.0219702 -0.00400312 0)
(-0.00800502 -0.00392006 0)
(-0.00181971 0.00241893 0)
(-0.00480398 0.00209744 0)
(-0.00749866 0.00195046 0)
(-0.010202 0.00182522 0)
(-0.012706 0.0017052 0)
(-0.0150174 0.00156079 0)
(-0.0170679 0.00135897 0)
(-0.018784 0.00109211 0)
(-0.0200927 0.000767061 0)
(-0.0209429 0.000398566 0)
(-0.0212988 -1.14988e-05 0)
(-0.0211171 -0.000490311 0)
(-0.0203015 -0.00107938 0)
(-0.0187369 -0.00180841 0)
(-0.0163395 -0.00260673 0)
(-0.0133104 -0.00311751 0)
(-0.0100332 -0.00199102 0)
(-0.00923946 0.00265134 0)
(-0.0135017 0.0062079 0)
(-0.0193673 0.00523711 0)
(-0.0212193 -0.000152645 0)
(-0.0178905 -0.00728764 0)
(-0.00884388 -0.0104685 0)
(-0.00165428 0.00386427 0)
(-0.00468172 0.00341406 0)
(-0.00742253 0.00321373 0)
(-0.0101789 0.00302595 0)
(-0.0127439 0.00282205 0)
(-0.0151047 0.0025689 0)
(-0.0171982 0.00222933 0)
(-0.0189618 0.00179483 0)
(-0.0203362 0.00127748 0)
(-0.0212792 0.000699519 0)
(-0.0217615 6.28893e-05 0)
(-0.0217512 -0.000665259 0)
(-0.0211959 -0.00153843 0)
(-0.0200398 -0.00257669 0)
(-0.018278 -0.00366548 0)
(-0.0160921 -0.00430442 0)
(-0.0136531 -0.00288994 0)
(-0.0123897 0.00308125 0)
(-0.0135793 0.00747909 0)
(-0.0155724 0.00613926 0)
(-0.0158948 -0.000381005 0)
(-0.0135505 -0.00960002 0)
(-0.00684989 -0.0161108 0)
(-0.00158207 0.00531713 0)
(-0.0046333 0.00479992 0)
(-0.00744817 0.0045374 0)
(-0.010266 0.00428331 0)
(-0.0128982 0.00399129 0)
(-0.0153214 0.00362548 0)
(-0.017476 0.0031463 0)
(-0.0193052 0.00254562 0)
(-0.020757 0.00184039 0)
(-0.0217962 0.00106017 0)
(-0.0224036 0.000210133 0)
(-0.0225637 -0.000746578 0)
(-0.0222549 -0.00186346 0)
(-0.0214647 -0.00314739 0)
(-0.0202388 -0.00444398 0)
(-0.0187646 -0.00518288 0)
(-0.0170942 -0.00373232 0)
(-0.0152897 0.00271008 0)
(-0.0138706 0.00743719 0)
(-0.0128988 0.00606737 0)
(-0.0113963 -0.000957182 0)
(-0.00888339 -0.0114991 0)
(-0.00368644 -0.0201362 0)
(-0.00155557 0.0067466 0)
(-0.00463118 0.0062237 0)
(-0.00754417 0.00590575 0)
(-0.0104397 0.00558519 0)
(-0.0131512 0.00520362 0)
(-0.0156504 0.00472397 0)
(-0.0178819 0.00410489 0)
(-0.0197917 0.00333969 0)
(-0.0213317 0.0024506 0)
(-0.0224724 0.00147582 0)
(-0.023205 0.000426149 0)
(-0.0235308 -0.000734093 0)
(-0.0234507 -0.00205638 0)
(-0.0229809 -0.00352979 0)
(-0.0221961 -0.00496353 0)
(-0.0212997 -0.00576047 0)
(-0.0203405 -0.00442549 0)
(-0.0181418 0.00154877 0)
(-0.0146664 0.00625791 0)
(-0.0113139 0.00495685 0)
(-0.00772914 -0.00230643 0)
(-0.00444371 -0.0131102 0)
(-0.000489942 -0.0221067 0)
(-0.00154951 0.00817978 0)
(-0.00467871 0.00767687 0)
(-0.00770608 0.00731112 0)
(-0.0106915 0.00692367 0)
(-0.013491 0.00645205 0)
(-0.0160753 0.00585935 0)
(-0.0183937 0.00510175 0)
(-0.0203931 0.0041744 0)
(-0.0220267 0.00310538 0)
(-0.0232692 0.00194365 0)
(-0.0241218 0.000708241 0)
(-0.0246001 -0.000632986 0)
(-0.0247205 -0.0021289 0)
(-0.0245122 -0.00375072 0)
(-0.0240534 -0.00527671 0)
(-0.0235235 -0.00610934 0)
(-0.0229521 -0.0049779 0)
(-0.0206535 -0.000108728 0)
(-0.015972 0.00417714 0)
(-0.0106916 0.00288142 0)
(-0.00536495 -0.00444027 0)
(-0.00144771 -0.0146679 0)
(0.00180189 -0.0224957 0)
(-0.00156443 0.00965557 0)
(-0.00478007 0.00916689 0)
(-0.00793203 0.00876087 0)
(-0.0110109 0.00830529 0)
(-0.0139002 0.00774229 0)
(-0.016572 0.00703738 0)
(-0.0189803 0.00614219 0)
(-0.0210707 0.00505359 0)
(-0.0227969 0.00380604 0)
(-0.0241358 0.00246195 0)
(-0.0250968 0.00105074 0)
(-0.0257067 -0.000455841 0)
(-0.02599 -0.00210414 0)
(-0.0259755 -0.00385437 0)
(-0.0257218 -0.00546388 0)
(-0.0253405 -0.00635609 0)
(-0.0247805 -0.00551043 0)
(-0.022488 -0.00188504 0)
(-0.0173325 0.00148693 0)
(-0.0108217 6.9719e-05 0)
(-0.00476192 -0.00689281 0)
(-0.000882776 -0.016167 0)
(0.00184487 -0.0226004 0)
(-0.00165726 0.0108387 0)
(-0.00496928 0.0107474 0)
(-0.00820681 0.0102981 0)
(-0.0113744 0.0097641 0)
(-0.0143493 0.00910132 0)
(-0.0171039 0.00828114 0)
(-0.019597 0.00724576 0)
(-0.0217722 0.00599339 0)
(-0.0235827 0.00456433 0)
(-0.0250076 0.00303731 0)
(-0.0260608 0.00145317 0)
(-0.0267751 -0.000214108 0)
(-0.0271779 -0.00200507 0)
(-0.0272892 -0.00388504 0)
(-0.0271353 -0.00560447 0)
(-0.0267496 -0.00662476 0)
(-0.025989 -0.00615069 0)
(-0.0235895 -0.00367269 0)
(-0.0184126 -0.00144716 0)
(-0.0116902 -0.00303754 0)
(-0.00582976 -0.00918693 0)
(-0.00251532 -0.0171609 0)
(-0.00249516 -0.0230627 0)
(-0.0100317 0.0019142 0)
(-0.000497846 -0.00369488 0)
(0.0113806 -0.00335105 0)
(0.0202284 -0.00227754 0)
(0.0264346 -0.00142496 0)
(0.0305029 -0.000884227 0)
(0.0332486 -0.000618578 0)
(0.0360744 -0.000925588 0)
(0.0404392 -0.00180924 0)
(0.0485149 -0.00219034 0)
(0.0512458 0.000488162 0)
(0.0447223 0.00361458 0)
(0.0224174 0.00826962 0)
(-0.0129793 0.00463678 0)
(-0.00430632 -0.00644186 0)
(0.019267 -0.00658207 0)
(0.033069 -0.00195584 0)
(0.0306539 0.00244567 0)
(0.015843 0.00599533 0)
(-0.00168348 0.00275723 0)
(0.00593909 -0.00646024 0)
(0.0126992 -0.00620237 0)
(0.0185582 -0.00456526 0)
(0.0232326 -0.00315288 0)
(0.0267414 -0.00217354 0)
(0.029479 -0.00178351 0)
(0.0323159 -0.00240056 0)
(0.0360727 -0.00390474 0)
(0.0412658 -0.00366481 0)
(0.0420878 0.00234015 0)
(0.0361147 0.00864475 0)
(0.0199806 0.0168175 0)
(0.00249718 0.00847826 0)
(0.00964909 -0.00983079 0)
(0.0205804 -0.0109783 0)
(0.0270407 -0.00242402 0)
(0.0240243 0.00528651 0)
(0.0177375 0.0139179 0)
(0.00509488 0.000264659 0)
(0.0092722 -0.00857572 0)
(0.0132921 -0.00821886 0)
(0.0175075 -0.00638102 0)
(0.0212507 -0.00465144 0)
(0.0242215 -0.00335878 0)
(0.026582 -0.00285684 0)
(0.0288889 -0.00362262 0)
(0.0314556 -0.00538137 0)
(0.0345153 -0.00466809 0)
(0.0339552 0.00406 0)
(0.0273335 0.0124889 0)
(0.0171627 0.0212493 0)
(0.0120039 0.0089158 0)
(0.0166158 -0.0122311 0)
(0.021148 -0.0135047 0)
(0.0228761 -0.00218016 0)
(0.0170391 0.00723669 0)
(0.0142281 0.0214337 0)
(0.00696329 -0.00346287 0)
(0.0103855 -0.0100553 0)
(0.013254 -0.00971674 0)
(0.0165583 -0.00787769 0)
(0.0196735 -0.00594246 0)
(0.0221931 -0.00437206 0)
(0.0240826 -0.00370648 0)
(0.0256455 -0.0044484 0)
(0.0269184 -0.00618442 0)
(0.0280406 -0.00506281 0)
(0.0268852 0.00585158 0)
(0.0212861 0.0154605 0)
(0.0165386 0.0227579 0)
(0.0183435 0.00808132 0)
(0.0211125 -0.0130273 0)
(0.0211358 -0.0142576 0)
(0.019349 -0.000364621 0)
(0.0111615 0.00942373 0)
(0.00952499 0.0269194 0)
(0.00639736 -0.00717924 0)
(0.0101738 -0.0113963 0)
(0.0127512 -0.0109337 0)
(0.0155812 -0.00913761 0)
(0.0182676 -0.00705244 0)
(0.020397 -0.00520919 0)
(0.0218161 -0.00430425 0)
(0.0226363 -0.0048436 0)
(0.0226079 -0.0063023 0)
(0.0216791 -0.00486657 0)
(0.0205365 0.00704788 0)
(0.0178136 0.0171159 0)
(0.0176837 0.0221574 0)
(0.0228152 0.00656397 0)
(0.0236497 -0.0125254 0)
(0.020013 -0.0135518 0)
(0.0158395 0.00254325 0)
(0.00616695 0.0117919 0)
(0.0047905 0.0300846 0)
(0.00532541 -0.0104737 0)
(0.00947639 -0.0128302 0)
(0.0120102 -0.0120495 0)
(0.0145622 -0.01024 0)
(0.0169451 -0.00801219 0)
(0.0187624 -0.00587179 0)
(0.0197893 -0.00465976 0)
(0.0200045 -0.00483819 0)
(0.0189194 -0.00577708 0)
(0.0161981 -0.00405431 0)
(0.0151507 0.00726031 0)
(0.0158008 0.0172112 0)
(0.0195303 0.0201861 0)
(0.0254788 0.00516189 0)
(0.0239713 -0.0108977 0)
(0.0173765 -0.0116997 0)
(0.0121442 0.00583864 0)
(0.002539 0.0143066 0)
(0.000684928 0.0314202 0)
(0.00442453 -0.0135812 0)
(0.00874208 -0.0143565 0)
(0.0111965 -0.0131201 0)
(0.0135067 -0.011236 0)
(0.0156472 -0.0088647 0)
(0.0172502 -0.00640326 0)
(0.0180271 -0.00483285 0)
(0.017851 -0.00454246 0)
(0.0161514 -0.00481337 0)
(0.0125883 -0.00284647 0)
(0.0114411 0.00679032 0)
(0.01437 0.0158682 0)
(0.0207751 0.0174362 0)
(0.0260842 0.0044883 0)
(0.0223187 -0.00837879 0)
(0.0134152 -0.00896949 0)
(0.00797609 0.00881883 0)
(-0.000238427 0.0170162 0)
(-0.00320607 0.0312488 0)
(0.00541768 -0.0166537 0)
(0.0082144 -0.0156614 0)
(0.0103981 -0.0140814 0)
(0.0123999 -0.0121262 0)
(0.0142968 -0.00964242 0)
(0.0157737 -0.00688207 0)
(0.0164903 -0.00493185 0)
(0.0161848 -0.00410484 0)
(0.0143221 -0.00368487 0)
(0.0108529 -0.00159911 0)
(0.00980541 0.00611321 0)
(0.0136328 0.0136614 0)
(0.0207414 0.0146032 0)
(0.0247202 0.00466005 0)
(0.019379 -0.0051379 0)
(0.00858508 -0.00547692 0)
(0.00307724 0.0112166 0)
(-0.00254544 0.0196775 0)
(-0.00648768 0.0295016 0)
(-0.00160381 0.0149485 0)
(-0.00513528 0.0137957 0)
(-0.00861202 0.0130172 0)
(-0.0119407 0.0122742 0)
(-0.0150418 0.0114081 0)
(-0.0179085 0.0103865 0)
(-0.0205123 0.00911592 0)
(-0.0227954 0.00759705 0)
(-0.0247151 0.00587312 0)
(-0.0262535 0.00405179 0)
(-0.0274239 0.00219102 0)
(-0.0282532 0.000266885 0)
(-0.0287681 -0.00175707 0)
(-0.0289771 -0.00386758 0)
(-0.028855 -0.00583711 0)
(-0.0283298 -0.00721125 0)
(-0.0271409 -0.00745955 0)
(-0.0244329 -0.00661419 0)
(-0.0195568 -0.00607665 0)
(-0.0135761 -0.00781175 0)
(-0.00876059 -0.0122357 0)
(-0.0068435 -0.0174422 0)
(-0.0117653 -0.0198907 0)
(-0.0020842 0.0142529 0)
(-0.00572754 0.0156538 0)
(-0.00927962 0.0153759 0)
(-0.0126387 0.0146503 0)
(-0.0157539 0.0137155 0)
(-0.0186233 0.0125691 0)
(-0.0212184 0.0110954 0)
(-0.0234925 0.00935128 0)
(-0.0254484 0.00737881 0)
(-0.0270806 0.00528907 0)
(-0.0283439 0.00314938 0)
(-0.0292001 0.000944557 0)
(-0.0296545 -0.00136442 0)
(-0.0297602 -0.00375608 0)
(-0.0295506 -0.00607784 0)
(-0.0289091 -0.00802127 0)
(-0.0274168 -0.00928717 0)
(-0.0244564 -0.0101 0)
(-0.0199289 -0.0110181 0)
(-0.0147504 -0.0125945 0)
(-0.0104552 -0.0149226 0)
(-0.00814831 -0.0171255 0)
(-0.00830454 -0.0180216 0)
(-0.00381788 0.0212773 0)
(-0.00649001 0.0200943 0)
(-0.0101232 0.0185931 0)
(-0.0142884 0.0172011 0)
(-0.0179765 0.0161223 0)
(-0.0204573 0.0148635 0)
(-0.0223673 0.0130943 0)
(-0.0241215 0.0110408 0)
(-0.0257857 0.00879729 0)
(-0.0273618 0.00639812 0)
(-0.0286187 0.00393544 0)
(-0.0293473 0.00140455 0)
(-0.0295467 -0.00120587 0)
(-0.0294064 -0.00383791 0)
(-0.0290891 -0.00640629 0)
(-0.0284295 -0.00874412 0)
(-0.0266738 -0.0107781 0)
(-0.0232918 -0.0127196 0)
(-0.0189896 -0.014452 0)
(-0.0143385 -0.0158545 0)
(-0.0101202 -0.0171181 0)
(-0.00761357 -0.0184444 0)
(-0.00702183 -0.0192059 0)
(-0.0113692 0.027489 0)
(-0.00318009 0.0212337 0)
(-0.00694207 0.0203605 0)
(-0.016693 0.0198043 0)
(-0.02505 0.0179243 0)
(-0.0247247 0.0155135 0)
(-0.0229893 0.0139959 0)
(-0.0228089 0.0119404 0)
(-0.0232039 0.00985267 0)
(-0.0245146 0.00732952 0)
(-0.0257665 0.00454546 0)
(-0.0262642 0.00164778 0)
(-0.0262583 -0.00113004 0)
(-0.0260293 -0.00393726 0)
(-0.0255396 -0.00659048 0)
(-0.0246593 -0.0091778 0)
(-0.0217156 -0.0122596 0)
(-0.0165054 -0.0147263 0)
(-0.0147634 -0.0158819 0)
(-0.0135448 -0.0178414 0)
(-0.00916489 -0.0186267 0)
(-0.00592773 -0.0193894 0)
(-0.00647389 -0.0193414 0)
(-0.00165854 0.0327815 0)
(0.00169453 0.0244375 0)
(-0.00264672 0.0372257 0)
(-0.0216982 0.0539413 0)
(-0.0302232 0.0291644 0)
(-0.0263832 0.0136562 0)
(-0.0263711 0.0163344 0)
(-0.026702 0.0133833 0)
(-0.0256874 0.0131883 0)
(-0.0245203 0.0115214 0)
(-0.0231606 0.00723896 0)
(-0.0204543 0.00187838 0)
(-0.0162506 -0.00213454 0)
(-0.011441 -0.00600353 0)
(-0.00681972 -0.0100583 0)
(-0.00331517 -0.0154893 0)
(0.000898353 -0.0257726 0)
(0.00714296 -0.0314409 0)
(0.00687273 -0.0165051 0)
(-0.00527178 -0.0306615 0)
(-0.00569915 -0.0325984 0)
(-0.00801452 -0.0253639 0)
(-0.0112417 -0.0208042 0)
(0.00391546 0.0309497 0)
(0.00268772 0.0216283 0)
(-0.00123806 0.0359844 0)
(0.00925479 0.0482095 0)
(0.0211675 0.0212806 0)
(0.0164806 0.00984088 0)
(0.00268786 0.0201751 0)
(-0.00985728 0.0127063 0)
(-0.0163089 0.00936513 0)
(-0.0173239 0.00711075 0)
(-0.01595 0.00200808 0)
(-0.0132234 -0.00414436 0)
(-0.00959935 -0.0083803 0)
(-0.00608546 -0.0109589 0)
(-0.00435899 -0.0129187 0)
(-0.00577012 -0.0129264 0)
(-0.0128836 -0.0191703 0)
(-0.0216447 -0.0246303 0)
(-0.0190177 -0.00371464 0)
(-0.0156519 -0.0130741 0)
(-0.0229681 -0.0183831 0)
(-0.0316468 -0.0143913 0)
(-0.0204056 -0.0271811 0)
(0.0126074 0.020713 0)
(0.0105953 0.0270921 0)
(0.00717993 0.0329664 0)
(0.0209272 0.0313809 0)
(0.0288738 0.0209052 0)
(0.0203815 0.0238804 0)
(0.015072 0.0346624 0)
(0.0109266 0.0256839 0)
(0.00498788 0.0151733 0)
(0.00135454 0.00838459 0)
(-0.000256487 0.00126323 0)
(-0.0016054 -0.00567416 0)
(-0.00365882 -0.0105104 0)
(-0.00678929 -0.0118385 0)
(-0.0115427 -0.0110189 0)
(-0.0171144 -0.00797541 0)
(-0.0211949 -0.0110795 0)
(-0.0249062 -0.0214703 0)
(-0.024271 -0.0173809 0)
(-0.0246266 -0.0121468 0)
(-0.0322259 -0.0118424 0)
(-0.0273296 -0.0201753 0)
(-0.0159419 -0.0382148 0)
(-0.000102463 0.0096906 0)
(0.0069159 0.0256958 0)
(0.0123153 0.0265121 0)
(0.0177838 0.0205076 0)
(0.019004 0.0238332 0)
(0.016495 0.0286589 0)
(0.0164257 0.033892 0)
(0.0172045 0.0287243 0)
(0.0153577 0.0200615 0)
(0.0126989 0.0119545 0)
(0.00995997 0.00458476 0)
(0.00663236 -0.00156062 0)
(0.00236301 -0.00513687 0)
(-0.00278168 -0.00542932 0)
(-0.0083011 -0.00385811 0)
(-0.0129133 -0.00283095 0)
(-0.0153203 -0.00994112 0)
(-0.0178129 -0.0175602 0)
(-0.0209145 -0.0158755 0)
(-0.0215945 -0.00895519 0)
(-0.0180714 -0.0131199 0)
(-0.0116157 -0.0299546 0)
(-0.0131472 -0.037549 0)
(-0.00129083 0.0115164 0)
(0.00366622 0.0190856 0)
(0.00866526 0.0210129 0)
(0.0111959 0.0204578 0)
(0.0116711 0.0240628 0)
(0.0120882 0.0281705 0)
(0.0142082 0.0305295 0)
(0.0166062 0.0273611 0)
(0.0170556 0.0211209 0)
(0.0158987 0.0141887 0)
(0.0136131 0.0077754 0)
(0.0102968 0.00263091 0)
(0.00613799 -8.06629e-05 0)
(0.00169462 -0.000269538 0)
(-0.00203674 0.000471964 0)
(-0.00411353 -0.000432101 0)
(-0.00618681 -0.00800668 0)
(-0.0101498 -0.0140359 0)
(-0.0134816 -0.0130958 0)
(-0.0124583 -0.012124 0)
(-0.00798249 -0.0192883 0)
(-0.00707286 -0.0307546 0)
(-0.0140141 -0.0305688 0)
(-0.000132181 0.00895164 0)
(0.00194028 0.0151562 0)
(0.0045234 0.0179837 0)
(0.00576818 0.0198496 0)
(0.0064726 0.0231127 0)
(0.00796073 0.0262634 0)
(0.0106163 0.0275383 0)
(0.013344 0.0253316 0)
(0.0147714 0.0207503 0)
(0.0147 0.0153341 0)
(0.0132752 0.0101908 0)
(0.0106748 0.00607223 0)
(0.00736979 0.00377303 0)
(0.00417953 0.00312391 0)
(0.00189746 0.00269015 0)
(0.000939603 0.000643505 0)
(-0.000569286 -0.00512855 0)
(-0.00398195 -0.0102367 0)
(-0.00649539 -0.0118083 0)
(-0.00610332 -0.0144227 0)
(-0.00546765 -0.020739 0)
(-0.00853012 -0.0258794 0)
(-0.0142097 -0.0245053 0)
(-0.00030009 0.00920123 0)
(0.000376367 0.0138042 0)
(0.0014468 0.0166593 0)
(0.00209811 0.0190759 0)
(0.00291966 0.0218453 0)
(0.0045637 0.0241231 0)
(0.0070003 0.0248298 0)
(0.00948782 0.0231652 0)
(0.0111444 0.0197614 0)
(0.0116059 0.0156916 0)
(0.0108447 0.0117898 0)
(0.00905224 0.00861258 0)
(0.00674426 0.00650973 0)
(0.00464873 0.00530418 0)
(0.00323816 0.00399341 0)
(0.00247383 0.00152299 0)
(0.00124823 -0.00294302 0)
(-0.00103252 -0.00741308 0)
(-0.00289011 -0.0107048 0)
(-0.00369558 -0.0142833 0)
(-0.00515455 -0.0184778 0)
(-0.00867958 -0.0209193 0)
(-0.0131663 -0.0204503 0)
(-0.000469861 0.00931957 0)
(-0.000573772 0.0134904 0)
(-0.000410134 0.0161815 0)
(-0.00012494 0.018475 0)
(0.000586714 0.0206576 0)
(0.00199569 0.0222249 0)
(0.00396318 0.0225508 0)
(0.00598083 0.0211978 0)
(0.00744986 0.0186483 0)
(0.00801619 0.0156612 0)
(0.00764141 0.012757 0)
(0.0065571 0.0102518 0)
(0.00515929 0.00826268 0)
(0.00389245 0.00666551 0)
(0.00301275 0.00487739 0)
(0.0023976 0.00229104 0)
(0.00144031 -0.00142406 0)
(-0.000138437 -0.00553333 0)
(-0.00173219 -0.00934883 0)
(-0.00317219 -0.0127582 0)
(-0.00524106 -0.0156277 0)
(-0.00844185 -0.0170218 0)
(-0.0120969 -0.0168988 0)
(-0.000645137 0.0100372 0)
(-0.00114251 0.013767 0)
(-0.00143769 0.0161736 0)
(-0.00141842 0.018113 0)
(-0.000928861 0.019731 0)
(0.000123596 0.020744 0)
(0.00159132 0.0207977 0)
(0.00308474 0.0196571 0)
(0.00418018 0.0177188 0)
(0.00466552 0.0155023 0)
(0.00455478 0.0132606 0)
(0.00401333 0.0111531 0)
(0.00327571 0.00925078 0)
(0.00258951 0.00746213 0)
(0.00208656 0.00546031 0)
(0.00166462 0.00290753 0)
(0.000992689 -0.000350541 0)
(-0.000148641 -0.0040789 0)
(-0.00162978 -0.00777249 0)
(-0.00335889 -0.01084 0)
(-0.00556412 -0.0129759 0)
(-0.0083314 -0.0138407 0)
(-0.0112348 -0.0138563 0)
(-0.000768957 0.011005 0)
(-0.00147714 0.0143599 0)
(-0.00202112 0.0164457 0)
(-0.00220641 0.0179837 0)
(-0.00195959 0.0191143 0)
(-0.00126532 0.0196982 0)
(-0.000258878 0.0195495 0)
(0.000765285 0.0185747 0)
(0.00152332 0.0170479 0)
(0.00192026 0.0152885 0)
(0.00198594 0.0134277 0)
(0.00179983 0.0115584 0)
(0.00148605 0.00972627 0)
(0.00117958 0.00786449 0)
(0.000939492 0.00579254 0)
(0.000690118 0.00332986 0)
(0.000235766 0.000405229 0)
(-0.000628528 -0.00287476 0)
(-0.00197183 -0.00614293 0)
(-0.00373278 -0.0088447 0)
(-0.00585886 -0.010562 0)
(-0.0081961 -0.011266 0)
(-0.0104619 -0.0114315 0)
(-0.000862313 0.012143 0)
(-0.00171124 0.0151436 0)
(-0.00240846 0.016901 0)
(-0.00274952 0.0180579 0)
(-0.00271693 0.0187855 0)
(-0.00232954 0.0190364 0)
(-0.00170333 0.0187285 0)
(-0.00103577 0.0178491 0)
(-0.00050111 0.0165601 0)
(-0.000159459 0.0150432 0)
(4.0379e-07 0.0133916 0)
(1.7771e-05 0.0116659 0)
(-4.37806e-05 0.00988773 0)
(-0.00012116 0.00801473 0)
(-0.000199464 0.00595084 0)
(-0.000342488 0.00360727 0)
(-0.000683197 0.000966155 0)
(-0.00137413 -0.00187027 0)
(-0.00251959 -0.00464458 0)
(-0.00411147 -0.00695804 0)
(-0.00598591 -0.00845979 0)
(-0.00789326 -0.00920971 0)
(-0.0096738 -0.00954034 0)
(-0.000953156 0.0134269 0)
(-0.00190935 0.0160649 0)
(-0.00271173 0.0174853 0)
(-0.00317077 0.0182953 0)
(-0.00330602 0.0186884 0)
(-0.00315048 0.0186725 0)
(-0.00279555 0.0182252 0)
(-0.00237035 0.0173639 0)
(-0.00198529 0.0161826 0)
(-0.0016879 0.0147885 0)
(-0.00148198 0.0132495 0)
(-0.00135252 0.0116063 0)
(-0.00127323 0.00987102 0)
(-0.00122318 0.00802143 0)
(-0.00121262 0.00601185 0)
(-0.00129838 0.00380814 0)
(-0.00157719 0.00142633 0)
(-0.00215734 -0.00103514 0)
(-0.00311189 -0.00338133 0)
(-0.00441999 -0.00534884 0)
(-0.00593784 -0.00673388 0)
(-0.00747221 -0.00756642 0)
(-0.00890343 -0.00803437 0)
(-0.00104407 0.0148452 0)
(-0.00208835 0.0170895 0)
(-0.00296566 0.0181653 0)
(-0.00351328 0.0186552 0)
(-0.00376993 0.0187596 0)
(-0.00377404 0.0185163 0)
(-0.00359783 0.017933 0)
(-0.00332957 0.0170349 0)
(-0.00304416 0.0158812 0)
(-0.0027818 0.0145385 0)
(-0.00255633 0.0130542 0)
(-0.00236901 0.0114577 0)
(-0.00221611 0.00975972 0)
(-0.00210008 0.00795311 0)
(-0.00204326 0.00602258 0)
(-0.0020949 0.00396554 0)
(-0.0023251 0.00181526 0)
(-0.0028054 -0.000341416 0)
(-0.00357677 -0.00236169 0)
(-0.00461253 -0.00407621 0)
(-0.00580675 -0.00536674 0)
(-0.0070247 -0.00624366 0)
(-0.00817625 -0.00681425 0)
(-0.00113439 0.0163871 0)
(-0.00224711 0.0181896 0)
(-0.00317546 0.0189167 0)
(-0.00378591 0.0191021 0)
(-0.00412379 0.0189444 0)
(-0.00423022 0.0184944 0)
(-0.00416552 0.0177732 0)
(-0.00399488 0.0168061 0)
(-0.00377369 0.0156335 0)
(-0.00353772 0.0142983 0)
(-0.00330676 0.0128347 0)
(-0.00309235 0.0112651 0)
(-0.00290382 0.00960143 0)
(-0.00275544 0.00784706 0)
(-0.00267357 0.0060043 0)
(-0.00269906 0.00408718 0)
(-0.0028818 0.0021346 0)
(-0.0032669 0.000218647 0)
(-0.00387422 -0.00155852 0)
(-0.00467791 -0.00308759 0)
(-0.00560389 -0.00429647 0)
(-0.00656075 -0.00518759 0)
(-0.00748211 -0.00582442 0)
(-0.001212 0.0180389 0)
(-0.0023754 0.0193428 0)
(-0.00333566 0.0197174 0)
(-0.00398449 0.0196055 0)
(-0.00437044 0.0191998 0)
(-0.00453698 0.0185541 0)
(-0.00453772 0.0176931 0)
(-0.00442517 0.0166395 0)
(-0.00424404 0.0154216 0)
(-0.00402722 0.0140689 0)
(-0.00379762 0.0126064 0)
(-0.00357267 0.0110528 0)
(-0.00336852 0.00942119 0)
(-0.00320449 0.00772123 0)
(-0.00310648 0.00596475 0)
(-0.00310728 0.0041731 0)
(-0.00324185 0.00238431 0)
(-0.0035379 0.000656141 0)
(-0.0040034 -0.000938651 0)
(-0.0046162 -0.00232824 0)
(-0.00532505 -0.00346687 0)
(-0.00606807 -0.00435388 0)
(-0.00679707 -0.00502799 0)
(-0.00125629 0.0197733 0)
(-0.00246063 0.0205345 0)
(-0.00343762 0.0205451 0)
(-0.00410016 0.020138 0)
(-0.00450684 0.0194929 0)
(-0.00470313 0.0186589 0)
(-0.00473874 0.0176584 0)
(-0.00465888 0.0165096 0)
(-0.00450209 0.0152328 0)
(-0.00429909 0.0138491 0)
(-0.00407398 0.0123774 0)
(-0.00384699 0.0108335 0)
(-0.00363717 0.00923109 0)
(-0.00346501 0.00758321 0)
(-0.00335394 0.00590587 0)
(-0.00332969 0.00422242 0)
(-0.00341664 0.00256697 0)
(-0.00363155 0.000984937 0)
(-0.00397636 -0.00047154 0)
(-0.00443315 -0.00175413 0)
(-0.00496631 -0.0028328 0)
(-0.00553334 -0.0037058 0)
(-0.00609934 -0.00439747 0)
(-0.00127046 0.0215519 0)
(-0.00249653 0.0217507 0)
(-0.00346974 0.0213746 0)
(-0.00412163 0.020675 0)
(-0.00452697 0.019799 0)
(-0.00473176 0.018784 0)
(-0.00478253 0.0176467 0)
(-0.00471968 0.0164004 0)
(-0.00457765 0.0150591 0)
(-0.00438515 0.013638 0)
(-0.00416614 0.0121514 0)
(-0.00394156 0.0106132 0)
(-0.00373097 0.00903668 0)
(-0.00355402 0.00743589 0)
(-0.00343097 0.00582798 0)
(-0.00338178 0.00423539 0)
(-0.00342349 0.00268733 0)
(-0.00356623 0.00121917 0)
(-0.00380906 -0.00013127 0)
(-0.00413796 -0.00133078 0)
(-0.00452775 -0.0023589 0)
(-0.00494865 -0.00321374 0)
(-0.00537509 -0.00391124 0)
(-0.00126345 0.0233389 0)
(-0.00247292 0.0229651 0)
(-0.00341358 0.0221809 0)
(-0.00403562 0.0211962 0)
(-0.00442409 0.0200999 0)
(-0.00462358 0.018913 0)
(-0.00467753 0.0176446 0)
(-0.00462263 0.0163025 0)
(-0.00449012 0.0148958 0)
(-0.00430661 0.0134348 0)
(-0.00409502 0.0119308 0)
(-0.00387563 0.0103954 0)
(-0.00366714 0.00884077 0)
(-0.00348739 0.00728078 0)
(-0.00335344 0.00573181 0)
(-0.00328075 0.004214 0)
(-0.00328133 0.00275168 0)
(-0.00336127 0.0013723 0)
(-0.00351861 0.000103594 0)
(-0.00374234 -0.00103103 0)
(-0.0040142 -0.00201733 0)
(-0.00431288 -0.0028537 0)
(-0.00461929 -0.00355116 0)
(-0.00121023 0.0250838 0)
(-0.00236107 0.0241378 0)
(-0.00324834 0.022947 0)
(-0.00383195 0.021689 0)
(-0.00419477 0.0203848 0)
(-0.00438074 0.0190365 0)
(-0.004431 0.0176445 0)
(-0.00437929 0.0162111 0)
(-0.00425397 0.0147407 0)
(-0.00407941 0.0132401 0)
(-0.00387682 0.0117175 0)
(-0.00366501 0.0101824 0)
(-0.00346104 0.00864556 0)
(-0.00328056 0.00711961 0)
(-0.00313773 0.00561927 0)
(-0.00304451 0.00416192 0)
(-0.00300947 0.00276741 0)
(-0.00303628 0.00145701 0)
(-0.00312263 0.000251289 0)
(-0.00325991 -0.000832884 0)
(-0.00343464 -0.00178556 0)
(-0.00363101 -0.00260563 0)
(-0.00383442 -0.00330119 0)
(-0.00110716 0.0267166 0)
(-0.00216414 0.0252299 0)
(-0.00298038 0.0236622 0)
(-0.00351561 0.0221454 0)
(-0.00384429 0.0206466 0)
(-0.00401022 0.0191485 0)
(-0.00405231 0.0176422 0)
(-0.00400128 0.0161238 0)
(-0.00388256 0.0145937 0)
(-0.00371791 0.0130551 0)
(-0.00352636 0.0115136 0)
(-0.0033247 0.00997674 0)
(-0.00312797 0.00845356 0)
(-0.00294953 0.00695495 0)
(-0.00280097 0.00549363 0)
(-0.00269154 0.00408417 0)
(-0.00262742 0.00274257 0)
(-0.00261082 0.00148531 0)
(-0.00263941 0.000327732 0)
(-0.00270641 -0.00071795 0)
(-0.00280159 -0.00164473 0)
(-0.00291288 -0.00245209 0)
(-0.00302881 -0.00314647 0)
(-0.000983308 0.0281866 0)
(-0.00191771 0.0262121 0)
(-0.0026373 0.0243082 0)
(-0.0031039 0.0225529 0)
(-0.0033855 0.0208765 0)
(-0.00352388 0.0192436 0)
(-0.00355387 0.0176346 0)
(-0.00350209 0.0160398 0)
(-0.00339031 0.0144553 0)
(-0.0032372 0.0128816 0)
(-0.00305914 0.0113218 0)
(-0.0028706 0.00978139 0)
(-0.00268434 0.00826787 0)
(-0.00251151 0.00679028 0)
(-0.0023614 0.00535927 0)
(-0.00224116 0.0039868 0)
(-0.00215523 0.00268563 0)
(-0.00210489 0.0014685 0)
(-0.002088 0.000346901 0)
(-0.0020991 -0.000670333 0)
(-0.00213023 -0.00157839 0)
(-0.00217192 -0.00237738 0)
(-0.00221491 -0.00307283 0)
(-0.000852799 0.0294705 0)
(-0.00164197 0.0270602 0)
(-0.00223834 0.0248588 0)
(-0.00261314 0.022893 0)
(-0.00283281 0.0210637 0)
(-0.00293591 0.0193159 0)
(-0.00295054 0.0176195 0)
(-0.00289736 0.0159589 0)
(-0.00279351 0.014327 0)
(-0.00265402 0.0127219 0)
(-0.00249229 0.0111448 0)
(-0.0023202 0.00959967 0)
(-0.00214819 0.00809225 0)
(-0.00198521 0.00662994 0)
(-0.00183855 0.00522146 0)
(-0.00171361 0.00387652 0)
(-0.00161356 0.00260522 0)
(-0.00153907 0.0014174 0)
(-0.00148819 0.000321626 0)
(-0.0014565 -0.000675782 0)
(-0.00143764 -0.00157172 0)
(-0.001424 -0.00236695 0)
(-0.00140795 -0.00306652 0)
(-0.000722272 0.0305559 0)
(-0.00134857 0.0277519 0)
(-0.00179632 0.0252868 0)
(-0.00205593 0.0231455 0)
(-0.00219957 0.021197 0)
(-0.00226144 0.0193607 0)
(-0.00225898 0.0175953 0)
(-0.00220476 0.0158816 0)
(-0.00211041 0.0142105 0)
(-0.001987 0.0125786 0)
(-0.00184472 0.010986 0)
(-0.00169276 0.00943532 0)
(-0.00153918 0.00793095 0)
(-0.0013908 0.00647883 0)
(-0.00125311 0.00508606 0)
(-0.00113003 0.00376045 0)
(-0.00102372 0.00251003 0)
(-0.000934432 0.00134237 0)
(-0.00086041 0.000263814 0)
(-0.000798034 -0.000721235 0)
(-0.000742154 -0.00161105 0)
(-0.000686536 -0.00240706 0)
(-0.000624763 -0.00311411 0)
(-0.000598012 0.0314353 0)
(-0.0010458 0.0282666 0)
(-0.00131976 0.0255636 0)
(-0.00144117 0.02329 0)
(-0.00149796 0.0212684 0)
(-0.00151654 0.0193756 0)
(-0.00149758 0.0175624 0)
(-0.00144371 0.0158093 0)
(-0.00136093 0.0141079 0)
(-0.0012563 0.0124546 0)
(-0.00113682 0.0108489 0)
(-0.00100892 0.00929242 0)
(-0.000878248 0.00778862 0)
(-0.000749584 0.0063423 0)
(-0.000626689 0.00495926 0)
(-0.00051219 0.00364589 0)
(-0.000407426 0.00240861 0)
(-0.000312326 0.00125328 0)
(-0.000225349 0.000184589 0)
(-0.000143529 -0.000794574 0)
(-6.26726e-05 -0.00168363 0)
(2.23868e-05 -0.00248465 0)
(0.000117119 -0.00320254 0)
(-0.000478483 0.0321113 0)
(-0.000728248 0.0285869 0)
(-0.000807237 0.0256613 0)
(-0.00077387 0.023309 0)
(-0.000741222 0.0212755 0)
(-0.00071986 0.019362 0)
(-0.000686771 0.0175223 0)
(-0.000635035 0.015744 0)
(-0.000565955 0.0140219 0)
(-0.000482955 0.0123531 0)
(-0.000389815 0.0107372 0)
(-0.000290133 0.0091753 0)
(-0.000187118 0.0076702 0)
(-8.34774e-05 0.00622593 0)
(1.86659e-05 0.00484744 0)
(0.000117879 0.0035401 0)
(0.000213537 0.00230923 0)
(0.000305936 0.00115949 0)
(0.000396386 9.43281e-05 0)
(0.000487257 -0.000884541 0)
(0.00058193 -0.00177753 0)
(0.000684697 -0.00258737 0)
(0.000800271 -0.00331919 0)
(-0.000292402 0.0325598 0)
(-0.000313994 0.0286973 0)
(-0.000221393 0.0255874 0)
(-6.52988e-05 0.0232112 0)
(4.37904e-05 0.0212193 0)
(0.000104431 0.0193212 0)
(0.000151617 0.0174759 0)
(0.000200498 0.0156872 0)
(0.000253921 0.0139546 0)
(0.000312229 0.0122773 0)
(0.000375121 0.0106549 0)
(0.000442056 0.00908857 0)
(0.000512405 0.00758085 0)
(0.000585552 0.00613546 0)
(0.000660985 0.00475692 0)
(0.000738392 0.00345012 0)
(0.000817772 0.00221975 0)
(0.000899565 0.00106971 0)
(0.000984793 2.61082e-06 0)
(0.00107522 -0.000980752 0)
(0.00117347 -0.00188167 0)
(0.00128306 -0.00270361 0)
(0.00140811 -0.00345208 0)
(4.26184e-05 0.032665 0)
(0.000261044 0.0286047 0)
(0.000468123 0.0253949 0)
(0.000685427 0.0230383 0)
(0.000841587 0.0211091 0)
(0.000938962 0.0192536 0)
(0.00100114 0.0174231 0)
(0.00104591 0.01564 0)
(0.00108054 0.013909 0)
(0.00110992 0.012231 0)
(0.00113774 0.0106065 0)
(0.00116676 0.00903723 0)
(0.00119906 0.00752596 0)
(0.00123611 0.00607664 0)
(0.00127896 0.00469392 0)
(0.00132835 0.00338267 0)
(0.00138481 0.00214745 0)
(0.00144883 0.0009919 0)
(0.00152104 -8.18769e-05 0)
(0.00160252 -0.00107377 0)
(0.00169509 -0.00198593 0)
(0.00180159 -0.00282263 0)
(0.00192561 -0.00358999 0)
(0.00048969 0.032236 0)
(0.000946943 0.0283272 0)
(0.00124509 0.0251302 0)
(0.00149453 0.0228346 0)
(0.00166855 0.0209679 0)
(0.00178625 0.0191631 0)
(0.00185687 0.0173667 0)
(0.00189069 0.0156065 0)
(0.0018994 0.0138899 0)
(0.00189295 0.0122196 0)
(0.00187921 0.0105977 0)
(0.00186424 0.00902691 0)
(0.00185268 0.00751119 0)
(0.00184796 0.00605525 0)
(0.00185257 0.00466437 0)
(0.00186816 0.00334395 0)
(0.00189572 0.00209893 0)
(0.00193566 0.000933119 0)
(0.0019881 -0.000151469 0)
(0.00205324 -0.00115523 0)
(0.002132 -0.00208119 0)
(0.00222651 -0.00293469 0)
(0.00234004 -0.00372267 0)
(0.000933674 0.0312437 0)
(0.00167817 0.0278283 0)
(0.00208926 0.0248084 0)
(0.00236172 0.0226229 0)
(0.00254166 0.0208148 0)
(0.00266185 0.0190636 0)
(0.00272135 0.017319 0)
(0.002728 0.0155976 0)
(0.00269791 0.0139068 0)
(0.00264543 0.0122513 0)
(0.0025819 0.0106354 0)
(0.00251608 0.00906396 0)
(0.00245465 0.00754243 0)
(0.00240262 0.00607691 0)
(0.00236367 0.00467382 0)
(0.00234026 0.00333955 0)
(0.00233371 0.0020799 0)
(0.00234426 0.000899394 0)
(0.00237132 -0.000199656 0)
(0.00241397 -0.00121793 0)
(0.00247199 -0.00215951 0)
(0.00254681 -0.00303114 0)
(0.00264153 -0.00384094 0)
(0.00131344 0.0297117 0)
(0.00239401 0.0270594 0)
(0.00296781 0.0244067 0)
(0.00329295 0.0223942 0)
(0.00347724 0.0206623 0)
(0.00357313 0.0189812 0)
(0.00359114 0.0173031 0)
(0.00354732 0.0156314 0)
(0.0034616 0.0139734 0)
(0.00335097 0.0123364 0)
(0.00322876 0.0107278 0)
(0.00310524 0.00915496 0)
(0.00298829 0.00762539 0)
(0.00288397 0.00614688 0)
(0.00279678 0.00472727 0)
(0.00272983 0.00337432 0)
(0.00268478 0.00209518 0)
(0.00266167 0.000895606 0)
(0.00265901 -0.000221218 0)
(0.00267437 -0.001256 0)
(0.00270602 -0.00221416 0)
(0.00275468 -0.00310455 0)
(0.00282355 -0.00393694 0)
(0.00169205 0.0276668 0)
(0.00313675 0.0259975 0)
(0.0038989 0.0238764 0)