/*--------------------------------*- C++ -*----------------------------------*\
  =========                 |
  \\      /  F ield         | OpenFOAM: The Open Source CFD Toolbox
   \\    /   O peration     | Website:  https://openfoam.org
    \\  /    A nd           | Version:  9
     \\/     M anipulation  |
\*---------------------------------------------------------------------------*/
FoamFile
{
    format      ascii;
    class       volScalarField;
    location    "8.59";
    object      p_rgh;
}
// * * * * * * * * * * * * * * * * * * * * * * * * * * * * * * * * * * * * * //

dimensions      [1 -1 -2 0 0 0 0];

internalField   nonuniform List<scalar> 
2268
(
769.426
769.232
768.892
768.398
767.761
766.994
766.111
765.126
764.065
762.94
761.774
760.586
759.393
758.212
757.044
755.924
754.879
753.966
753.149
752.497
752.141
751.908
751.772
769.469
769.278
768.938
768.443
767.803
767.03
766.14
765.151
764.077
762.944
761.767
760.567
759.359
758.163
756.982
755.872
754.86
753.987
753.169
752.521
752.167
751.84
751.705
769.546
769.356
769.014
768.517
767.872
767.091
766.191
765.19
764.105
762.958
761.767
760.55
759.326
758.112
756.927
755.816
754.822
753.973
753.176
752.456
752.141
751.743
751.616
769.661
769.469
769.124
768.622
767.969
767.179
766.266
765.249
764.148
762.983
761.774
760.539
759.298
758.07
756.877
755.749
754.729
753.899
753.215
752.363
752.05
751.609
751.497
769.814
769.618
769.267
768.758
768.095
767.292
766.363
765.328
764.206
763.02
761.789
760.533
759.274
758.032
756.834
755.659
754.459
753.772
753.128
752.556
751.894
751.038
751.348
770.005
769.803
769.445
768.927
768.251
767.431
766.483
765.426
764.28
763.068
761.81
760.529
759.251
757.996
756.795
755.571
753.817
753.593
752.925
752.38
751.69
750.202
751.219
770.233
770.025
769.658
769.128
768.437
767.597
766.626
765.543
764.369
763.126
761.837
760.526
759.225
757.958
756.755
755.669
752.955
748.74
750.783
752.084
748.249
749.269
751.064
770.497
770.283
769.907
769.363
768.654
767.792
766.794
765.681
764.474
763.195
761.868
760.524
759.197
757.915
756.712
755.654
752.83
747.725
746.653
747.179
746.399
750.097
750.898
754.461
754.908
755.814
756.693
757.643
758.61
759.529
760.592
761.696
762.781
763.801
764.807
765.924
767.303
768.243
769.037
769.609
769.987
770.261
754.314
754.721
755.663
756.567
757.55
758.574
759.69
760.804
761.941
763.12
764.134
764.877
765.936
767.381
768.306
769.081
769.651
769.919
770.193
753.385
754.398
755.562
756.444
757.444
758.494
759.624
760.774
761.945
763.186
764.547
765.19
765.976
767.236
768.418
769.183
769.579
769.736
770.058
753.13
754.241
755.53
756.357
757.354
758.415
759.539
760.72
761.888
763.128
764.607
766.078
766.969
767.686
768.413
769.308
769.704
769.807
770.696
752.833
754.597
755.509
756.278
757.267
758.318
759.487
760.719
761.874
763.127
764.579
766.154
767.415
768.178
768.269
769.225
769.77
770.624
770.896
753.718
754.901
755.435
756.179
757.164
758.273
759.484
760.748
761.868
763.247
764.725
766.205
767.478
768.363
768.512
767.101
767.578
770.719
771.103
754.504
754.782
755.275
756.043
757.055
758.184
759.441
760.78
761.193
762.309
764.759
766.28
767.575
768.333
767.201
769.099
767.583
770.437
771.372
753.977
754.451
755.041
755.876
756.924
758.07
759.379
760.815
759.526
758.064
762
766.375
767.69
765.633
765.896
770.025
767.593
770.115
771.71
770.983
770.753
770.359
769.793
769.053
768.149
767.102
765.936
764.67
763.325
761.929
760.518
759.141
757.826
756.616
755.576
754.784
752.486
748.6
746.408
750.233
751.378
750.815
771.921
771.692
771.284
770.68
769.868
768.627
766.513
763.817
760.644
756.935
752.788
748.492
745.075
742.115
739.941
738.905
738.199
737.438
736.517
734.462
730.506
726.877
723.929
352.446
350.46
347.082
342.17
335.614
328.167
321.132
313.843
306.389
298.992
291.698
284.257
276.352
268.137
259.988
252.614
247.489
244.755
242.489
238.899
234.055
230.631
229.337
1.07562
1.01376
1.03205
1.05315
1.30638
1.77332
1.50644
1.19977
0.940485
0.756825
0.663264
0.639931
0.548944
0.539419
0.53372
0.516485
0.478963
0.427542
0.382333
0.378997
0.39569
0.407937
0.401156
0.736895
0.974008
1.00035
0.877303
1.17206
1.90759
2.25778
2.32987
2.40385
2.44347
2.44549
2.44381
2.21537
2.10374
2.04519
1.87982
1.57718
1.11644
0.613132
0.626051
0.708433
0.709012
0.5903
0.292403
0.299778
0.325339
0.297885
0.328701
0.0920323
0.022499
0.0416151
0.0476039
0.023083
0.000709366
0.00299548
0.0076827
0.0107538
0.0120398
0.0133617
0.0157919
0.158937
0.320507
0.281982
0.278335
0.336515
0.429986
0.000403958
-0.00496567
0.0032457
-0.00561988
-0.00667223
-0.0060238
-0.00530027
-0.00431015
-0.00304827
-0.00136747
0.000521435
0.00504808
0.0596023
0.0850435
0.0861976
0.0603008
0.0221451
0.0115747
0.0122862
0.0129676
0.0289661
0.0531791
0.0835273
-0.0055091
-0.0057951
-0.00584819
-0.00505082
-0.00404329
-0.00295825
-0.00324568
-0.00312092
-0.00148445
-3.28587e-05
0.00039294
0.00648397
0.0530165
0.0621603
0.0386708
0.0272032
0.0212739
0.014496
0.0106265
0.0102996
0.0104211
0.0102673
0.0103226
-0.00502057
-0.00517295
-0.00506952
-0.00466457
-0.00307784
-0.00124664
-0.000616885
-0.00136376
0.00068089
0.00310421
0.00311622
0.00133855
0.000497294
0.00126333
0.00278367
0.0148199
0.020496
0.00939866
0.00815721
0.00877651
0.00906792
0.00916106
0.00937644
-0.00442706
-0.00451443
-0.00438561
-0.00415228
-0.00328455
-0.000495171
-1.18247e-05
-0.00182027
0.00255926
0.00350583
0.00316464
0.000339415
0.00084222
0.00166034
0.00279368
0.00427302
0.00658199
0.00646695
0.00694143
0.00749202
0.00781042
0.00795865
0.00816004
-0.00385946
-0.00389452
-0.00376646
-0.00357611
-0.00329551
-0.00192262
-0.00186312
-0.00182785
0.00221137
0.00391753
0.00105125
0.00034619
0.000936674
0.00203754
0.00444307
0.00552467
0.00475372
0.00531473
0.00592597
0.00637974
0.00663296
0.00671748
0.00700634
-0.00334015
-0.00319609
-0.00305939
-0.00305717
-0.00283728
-0.00254289
-0.00215064
-0.00169784
0.00232091
0.0032344
-0.00025011
0.000339837
0.000912684
0.001901
0.011103
0.0140441
0.0115854
0.00458659
0.00501544
0.0053618
0.00556179
0.0055483
0.00532177
-0.0028816
-0.00266353
-0.00256176
-0.00258886
-0.00240966
-0.0021409
-0.00162384
0.00116392
0.00220921
0.000124161
-0.000190096
0.000322339
0.000825636
0.00166903
0.0105241
0.0140767
0.0147641
0.0118148
0.00417682
0.0044673
0.00461676
0.00459763
0.00436425
-0.00248703
-0.0022616
-0.00214577
-0.00220317
-0.00204829
-0.00178906
0.000406123
0.00215468
0.00195764
-0.000569331
-0.000135915
0.000301655
0.000729037
0.00113294
0.00183681
0.0101728
0.0147083
0.0106428
0.00343213
0.00372788
0.00387298
0.00387549
0.00370506
-0.00214081
-0.00206667
-0.0018878
-0.00188479
-0.00174067
-0.00151676
0.00171407
0.00249809
0.000813934
-0.000463626
-8.89538e-05
0.000286252
0.000653385
0.00100113
0.00131809
0.00191827
0.00307149
0.00330013
0.00288266
0.00313085
0.00328338
0.00329645
0.00318815
-0.00183148
-0.00178576
-0.00170969
-0.00160571
-0.001475
-0.00127948
0.000347341
0.00143166
-0.000632969
-0.000369877
-4.54302e-05
0.000278593
0.000597108
0.000903962
0.00118943
0.00146665
0.0017694
0.00210835
0.00243513
0.00267788
0.00280419
0.00282239
0.00273838
-0.00155391
-0.00150579
-0.00144159
-0.00135269
-0.00123757
-0.00106951
-0.000972399
-0.00076447
-0.000547674
-0.000280002
-3.04499e-06
0.00027624
0.000553572
0.000824351
0.00108337
0.00133586
0.00159483
0.00185886
0.00209917
0.00227985
0.00238515
0.00241351
0.0023783
-0.00121521
-0.00112389
-0.00120992
-0.00113513
-0.00103012
-0.000897623
-0.000789878
-0.00062543
-0.000423972
-0.00019949
3.6209e-05
0.000276801
0.000517975
0.000755206
0.000984932
0.0012078
0.00142719
0.00163894
0.00182566
0.00196675
0.00205445
0.00208793
0.00207059
-0.000352248
-0.000319153
-0.00101536
-0.000951527
-0.000857591
-0.00075432
-0.000639038
-0.000492701
-0.000320828
-0.000130572
7.08955e-05
0.000278345
0.000487299
0.000693718
0.000894464
0.00108807
0.0012737
0.00144669
0.00159648
0.00171128
0.00178509
0.00181636
0.00180725
-0.000131928
-0.000333803
-0.000861735
-0.000797334
-0.00071448
-0.000624151
-0.00051372
-0.000384134
-0.000235753
-7.26884e-05
0.000100382
0.000279169
0.0004597
0.000638395
0.000812216
0.0009788
0.00113574
0.00127875
0.00140091
0.00149499
0.00155661
0.00158423
0.00157902
6.98202e-05
-0.000703638
-0.000729459
-0.000665622
-0.000592497
-0.000508178
-0.000408639
-0.000294198
-0.000165329
-2.46511e-05
0.00012445
0.000278524
0.000434204
0.00058831
0.000737933
0.000880433
0.00101302
0.00113198
0.0012325
0.00130983
0.00136076
0.00138394
0.00137986
0.000229355
-0.000656694
-0.000605933
-0.000550067
-0.000485215
-0.000408739
-0.00032
-0.000219086
-0.000106772
1.50006e-05
0.000143668
0.000276436
0.000410456
0.000542933
0.00067118
0.0007926
0.000904484
0.00100371
0.00108673
0.00115022
0.00119179
0.00121026
0.00120573
0.000331645
-0.000126017
-0.00049308
-0.000449248
-0.000392142
-0.000323848
-0.000244908
-0.000155919
-5.7848e-05
4.77567e-05
0.000158879
0.000273236
0.000388423
0.000502003
0.00061156
0.000714697
0.000808958
0.000891727
0.000960292
0.00101218
0.00104556
0.00105941
0.00105358
0.000452593
0.000511619
-0.00040385
-0.000365925
-0.000313587
-0.000251687
-0.000181074
-0.000102469
-1.66983e-05
7.49662e-05
0.000170942
0.000269362
0.000368198
0.000465347
0.000558674
0.000646038
0.000725278
0.0007942
0.000850651
0.000892719
0.000918947
0.000928447
0.000920967
0.000585533
0.000597654
-0.000337391
-0.000297747
-0.000247242
-0.000189977
-0.000126364
-5.67784e-05
1.8247e-05
9.7803e-05
0.000180636
0.000265226
0.000349877
0.000432781
0.000512074
0.000585874
0.0006523
0.000709501
0.000755721
0.000789428
0.000809434
0.000814965
0.00080572
0.000708188
0.000360162
-0.000283336
-0.000238539
-0.000189142
-0.000135971
-7.86586e-05
-1.71516e-05
4.83539e-05
0.000117254
0.000188593
0.000261146
0.000333487
0.000404061
0.000471251
0.000533408
0.000588899
0.000636147
0.000673686
0.000700255
0.000714864
0.000716835
0.00070586
0.000511345
-0.000235025
-0.000225269
-0.000181514
-0.000135427
-8.71473e-05
-3.61029e-05
1.78438e-05
7.47008e-05
0.000134092
0.000195294
0.000257314
0.000318948
0.000378858
0.000435631
0.000487808
0.000533969
0.000572751
0.000602909
0.000623376
0.000633315
0.000632132
0.000619534
-0.000195361
-0.000193082
-0.000162437
-0.000125428
-8.4585e-05
-4.20144e-05
2.57398e-06
4.92328e-05
9.80624e-05
0.000148843
0.000201023
0.000253783
0.000306092
0.000356778
0.000404584
0.000448221
0.000486429
0.000518012
0.000541888
0.000557141
0.000563048
0.00055909
0.000545005
-0.000157758
-0.000147058
-0.000110417
-7.38481e-05
-3.70552e-05
-5.61613e-08
3.80506e-05
7.76183e-05
0.000118894
0.000161793
0.000205883
0.000250468
0.000294642
0.000337354
0.000377462
0.000413806
0.000445247
0.000470715
0.000489252
0.000500051
0.000502484
0.000496095
0.000480665
-9.44484e-05
-0.00010773
-6.20027e-05
-2.50686e-05
7.87719e-06
3.91799e-05
7.07001e-05
0.000103286
0.00013738
0.000173006
0.00020981
0.000247163
0.000284244
0.000320075
0.000353598
0.000383735
0.000409441
0.000429737
0.000443751
0.000450758
0.000450201
0.000441685
0.000425043
-8.54851e-05
-3.86039e-05
-9.50124e-06
2.29862e-05
5.11833e-05
7.61143e-05
0.000100646
0.000126229
0.000153447
0.000182348
0.000212589
0.000243561
0.000274479
0.000304404
0.000332322
0.000357216
0.000378099
0.000394051
0.00040426
0.000408056
0.000404933
0.000394554
0.000376813
-4.02899e-05
-7.57654e-06
3.35693e-05
6.95097e-05
9.34789e-05
0.000110854
0.000127682
0.000146139
0.000166772
0.000189493
0.000213874
0.000239269
0.000264882
0.000289782
0.00031298
0.000333494
0.000350373
0.000362729
0.000369779
0.000370881
0.000365565
0.000353543
0.000334791
-4.69419e-06
2.82466e-05
7.95268e-05
0.00012118
0.000136095
0.000142956
0.000150962
0.000162271
0.000176755
0.000193945
0.000213219
0.000233834
0.000254954
0.000275645
0.000294932
0.000311856
0.000325483
0.000334935
0.000339427
0.000338315
0.000331135
0.000317645
0.000297926
2.37165e-05
0.00011319
0.000295651
0.00181553
0.000178294
0.000171394
0.000168117
0.000173104
0.000182459
0.000195067
0.000210113
0.000226773
0.000244194
0.00026144
0.000277564
0.000291629
0.00030271
0.000309918
0.000312437
0.000309574
0.000300834
0.000285996
0.000265294
5.01145e-05
0.000447824
0.0035658
0.004138
0.00278719
0.000344717
0.000175174
0.000176788
0.000182887
0.00019225
0.000204097
0.000217665
0.000232147
0.000246653
0.000260294
0.000272175
0.000281382
0.000287
0.000288144
0.000284019
0.000274015
0.000257878
0.000236073
8.28357e-05
0.000600289
0.00422909
0.00423645
0.00423126
0.000502818
0.000171744
0.000173288
0.000177988
0.0001854
0.000195015
0.000206268
0.000218471
0.000230845
0.000242599
0.000252902
0.000260871
0.000265563
0.000265989
0.000261167
0.000250231
0.000232737
0.000209527
0.000132636
0.00033827
0.00330801
0.00433397
0.00259627
0.000272091
0.000163159
0.000165034
0.000168957
0.000175062
0.000183055
0.000192539
0.000202952
0.000213659
0.000223991
0.000233222
0.000240534
0.000244979
0.000245444
0.000240662
0.000229255
0.000210197
0.00018496
0.000222463
0.000299632
0.000463293
0.00158408
0.000289289
0.000161481
0.000153776
0.000154026
0.000156757
0.000161633
0.000168277
0.000176298
0.000185218
0.00019454
0.000203744
0.000212251
0.000219374
0.000224222
0.000225602
0.000221894
0.000210838
0.000189871
0.000161544
0.000407144
0.000379217
0.000286972
0.000209719
0.000168207
0.000149307
0.000141469
0.000139436
0.000140939
0.000144772
0.00015029
0.000157029
0.000164592
0.000172625
0.00018078
0.000188681
0.000195858
0.000201611
0.000204844
0.000203795
0.000194874
0.000171266
0.000137867
0.000534046
0.000459718
0.000308188
0.000211342
0.000157646
0.00013331
0.000124325
0.000122404
0.000123932
0.000127413
0.00013216
0.000137784
0.00014404
0.000150743
0.000157749
0.000164933
0.000172134
0.000179021
0.000185103
0.000189657
0.000187457
0.000157501
0.000112274
0.000669932
0.000448593
0.000279445
0.000188467
0.00013741
0.000118672
0.000115599
0.000117294
0.000120363
0.000124085
0.000128253
0.000132788
0.000137667
0.000142902
0.000148555
0.000154769
0.000161742
0.000169682
0.000179558
0.000194752
0.000210838
0.000165172
8.61126e-05
0.000562338
5.29938e-05
0.000124697
0.000112726
0.000102136
0.000102195
0.000106356
0.000109899
0.000112525
0.000114773
0.000116968
0.000119249
0.000121696
0.000124406
0.000127535
0.000131353
0.000136257
0.000142864
0.000153433
0.000176169
0.000217822
0.000190075
6.23753e-05
751.415
751.503
751.807
752.221
726.311
726.963
727.831
728.392
229.964
230.684
232.012
233.937
0.384651
0.386172
0.394659
0.39928
0.376227
0.421816
0.583649
0.586551
0.149085
0.134035
0.378146
0.562017
0.149838
0.103969
0.0981058
0.0358956
0.0112094
0.0116277
0.0114836
0.0114472
0.0100047
0.0135864
0.0192228
0.0198954
0.014623
0.0412739
0.0437765
0.0438148
0.0373901
0.0440991
0.0441079
0.0441099
0.0048314
0.0181104
0.041812
0.0444987
0.00395762
0.00363755
0.00332046
0.0032639
0.00345946
0.00327507
0.00308168
0.00291573
0.00308212
0.00297837
0.00286737
0.00277531
0.00263841
0.0025681
0.00250604
0.00259303
0.00231107
0.00226021
0.00220474
0.00214786
0.00202519
0.00198841
0.0019455
0.00189559
0.00177433
0.00174599
0.00171143
0.00167039
0.00155325
0.00153018
0.00150131
0.00146659
0.00135818
0.0013385
0.0013136
0.00128351
0.00118633
0.00116886
0.0011468
0.00112019
0.0010354
0.00101939
0.000999394
0.000975433
0.000903379
0.000888343
0.000869852
0.00084791
0.000788372
0.000773981
0.000756587
0.000736182
0.000688546
0.000674578
0.000657984
0.000638747
0.000602134
0.00058844
0.000572429
0.000554084
0.00052745
0.000513931
0.000498351
0.000480695
0.000462918
0.000449507
0.000434252
0.000417139
0.000407085
0.000393739
0.000378738
0.000362066
0.000358634
0.000345324
0.000330527
0.000314227
0.00031638
0.000303084
0.000288457
0.000272482
0.000279263
0.000265959
0.000251475
0.000235794
0.000246335
0.000232991
0.000218627
0.000203224
0.000216734
0.000203307
0.000189037
0.000173909
0.000189654
0.000176077
0.000161875
0.000147042
0.000164292
0.000150471
0.000136322
0.000121851
0.000139746
0.00012559
0.000111532
9.75913e-05
0.000114721
0.000100328
8.66011e-05
7.35776e-05
8.72084e-05
7.32433e-05
6.06873e-05
4.94308e-05
5.52631e-05
4.26988e-05
3.32075e-05
2.55242e-05
3.09226e-05
1.99275e-05
1.20613e-05
6.46104e-06
753.115
753.819
754.587
755.56
756.348
756.201
757.319
759.593
761.498
756.397
756.96
758.393
759.747
760.972
769.55
770.586
770.124
770.266
771.94
729.016
730.033
731.137
732.581
734.749
737.644
740.041
743.215
751.925
759.162
763.357
766.732
768.982
770.108
770.807
771.557
772.3
771.452
770.804
238.505
244.323
250.559
258.158
267.116
277.155
287.493
296.925
304.936
317.528
328.061
336.831
346.149
353.4
356.814
361.962
368.295
371.534
374.205
0.398141
0.418566
0.440566
0.443532
0.437898
0.432345
0.427866
0.42707
0.425775
0.411099
0.401426
0.562408
0.37268
0.666965
0.949875
1.14379
1.3217
1.48393
1.71556
0.48094
0.808405
1.04196
1.04314
1.04024
1.05331
1.05535
1.05307
1.04991
1.04498
1.03877
0.767665
0.362073
0.716165
0.807083
0.794459
0.794801
0.775605
0.695806
0.483953
0.325306
0.273998
0.288575
0.227451
0.183517
0.167013
0.167812
0.160814
0.0830853
0.0249302
0.0591843
0.165864
0.218805
0.25221
0.294516
0.308667
0.331821
0.315473
0.0230666
0.0351994
0.0120788
0.0115697
0.0124104
0.0130173
0.0128003
0.0113653
0.0102902
0.015
0.0288006
0.0278058
0.0331103
0.0132429
-0.000385078
-0.00294324
-0.00405867
-0.00480173
-0.00415127
0.0113309
0.0109172
0.0106225
0.0104027
0.0224786
0.0578554
0.0631116
0.0424091
0.0354548
0.0707132
0.0773724
0.0762166
0.0722209
0.0151072
-0.0008314
-0.00229805
-0.00319243
-0.00364324
-0.00334794
0.0150184
0.00991467
0.00923881
0.00981775
0.0569324
0.0707279
0.0693974
0.068646
0.0659191
0.0566447
0.0743224
0.0777468
0.0769732
0.007043
-0.000776398
-0.00175752
-0.00242429
-0.00277185
-0.00260042
0.0438441
0.0153464
0.00785657
0.00787032
0.0311121
0.0402256
0.00727894
0.00174294
0.00101761
0.000190314
-8.94985e-06
0.0263519
0.0342505
0.0149567
0.000488796
-0.00123922
-0.00171771
-0.00200108
-0.00195873
0.0441056
0.0442686
0.0206339
0.00506823
0.00358074
0.0024235
0.00200025
0.00236885
0.00187467
0.000152274
-0.000641121
0.00061034
0.0155373
0.0190692
0.00253644
-0.000691552
-0.0010348
-0.00127437
-0.0013927
0.0443652
0.0443767
0.024553
0.00389714
0.00309491
0.0023337
0.00272798
0.00266736
0.00195386
0.000115016
-0.000437856
0.00246457
0.01383
0.0205442
6.01304e-05
-0.00012925
-0.000373464
-0.000572946
-0.000813935
0.00706513
0.00946824
0.00301276
0.003056
0.00261124
0.00210021
0.00165955
0.00119374
0.000598055
9.4439e-05
-0.000433151
-0.000945674
0.0075997
0.0219089
0.0152835
0.00239068
0.000228975
9.13097e-05
-0.00026249
0.00265854
0.0025484
0.00261967
0.00254364
0.00222496
0.00180651
0.00138611
0.000958208
0.000516408
6.52858e-05
-0.000392034
-0.000836431
0.00750679
0.0167445
0.0171158
0.0135174
0.000654626
0.000683397
0.000202465
0.0026501
0.00257352
0.00239719
0.00217589
0.00190665
0.0015668
0.00120557
0.000825869
0.000431402
2.82533e-05
-0.000378556
-0.000786731
-0.00120344
-0.00141578
0.00170437
0.00208897
0.0120399
0.0197358
0.0184564
0.00282484
0.00272487
0.00261891
0.00204352
0.00165042
0.00135104
0.00103652
0.000704752
0.00035251
-1.53757e-05
-0.000380078
-0.00073874
-0.00106924
-0.00128339
-0.0013458
0.00535388
0.0276006
0.0273995
0.0269144
0.00229183
0.00251503
0.0023916
0.00223642
0.00165272
0.00115554
0.000904755
0.000688009
0.000361676
-5.5128e-05
-0.000397499
-0.000723397
-0.00103235
-0.00129282
-0.0015187
0.00249699
0.0201548
0.0199977
0.0050879
0.00179917
0.00179585
0.00209267
0.00203344
0.0015027
0.000978384
0.00079087
0.000630246
0.000345346
-4.69286e-06
-0.00042377
-0.000727026
-0.00102592
-0.00131356
-0.001607
-0.00198774
-0.0025089
-0.00269628
-0.00280983
0.00159054
0.00147384
0.00134113
0.0012281
0.00103446
0.000826186
0.000652952
0.000529745
0.000271294
-1.97934e-05
-0.00044244
-0.000734399
-0.00101833
-0.001304
-0.00160435
-0.00194082
-0.00227717
-0.00244598
-0.00252553
0.00139862
0.00129271
0.00116927
0.0010274
0.000865973
0.000682778
0.000480291
0.000288138
9.8784e-05
-0.000201499
-0.00047793
-0.000738681
-0.00100268
-0.00126996
-0.00154304
-0.00181958
-0.0020668
-0.00221637
-0.00221585
0.00122446
0.00112809
0.00101368
0.000881451
0.000731233
0.000562326
0.000375202
0.000172207
-4.31331e-05
-0.000267615
-0.000499788
-0.000738053
-0.000979672
-0.00122194
-0.00146057
-0.00168368
-0.0018582
-0.00196195
-0.00185463
0.00106796
0.000979876
0.000874129
0.000751409
0.000612178
0.000456516
0.000285137
9.98495e-05
-9.68323e-05
-0.000302506
-0.000515204
-0.000732784
-0.000952031
-0.00116853
-0.00137522
-0.00155715
-0.00168288
-0.00174745
0.00265024
0.000928478
0.000847574
0.000749853
0.00063618
0.000507338
0.000363831
0.00020651
3.68647e-05
-0.000143128
-0.000331371
-0.000525756
-0.000723782
-0.000921887
-0.00111523
-0.00129603
-0.0014502
-0.00155388
-0.00160238
0.00549095
0.000805076
0.000730343
0.000639884
0.000534597
0.000415392
0.000282986
0.000138296
-1.7355e-05
-0.000182272
-0.000354519
-0.000531916
-0.000711892
-0.00089073
-0.00106372
-0.00122397
-0.00136077
-0.00145746
-0.00150014
0.00584821
0.000696576
0.000627127
0.000543147
0.0004455
0.000335117
0.000212802
7.94981e-05
-6.35623e-05
-0.000214828
-0.000372464
-0.000534259
-0.000697538
-0.000858799
-0.00101362
-0.00115643
-0.0012803
-0.0013744
-0.0014147
0.00619775
0.000601679
0.000536744
0.000458499
0.000367736
0.000265356
0.00015218
2.91483e-05
-0.000102561
-0.000241472
-0.000385774
-0.000533248
-0.000681149
-0.000826041
-0.000963755
-0.00108964
-0.00119935
-0.00128617
-0.00132365
0.00591139
0.000519023
0.000457952
0.000384764
0.000300172
0.000205015
0.000100095
-1.36717e-05
-0.000135147
-0.000262894
-0.000395105
-0.000529503
-0.000663212
-0.000792622
-0.000913343
-0.00102044
-0.00110903
-0.00117189
-0.00118771
-0.000512029
0.000447241
0.000389495
0.000320773
0.000241711
0.000153069
5.56039e-05
-4.98084e-05
-0.000162075
-0.000279795
-0.000401155
-0.000523794
-0.000644642
-0.000759709
-0.000863895
-0.000950742
-0.00101172
-0.00103452
-0.00100813
-0.000913975
0.000384996
0.000330145
0.000265397
0.000191315
0.000108571
1.78573e-05
-8.0016e-05
-0.000184021
-0.000292813
-0.000404603
-0.000516989
-0.000626732
-0.00072947
-0.000819357
-0.000888252
-0.000923698
-0.000908534
-0.000843596
9.95457e-05
0.000331018
0.00027873
0.000217566
0.000148018
7.06658e-05
-1.38902e-05
-0.000104932
-0.000201532
-0.00030245
-0.000405988
-0.0005098
-0.000610634
-0.000703993
-0.000783709
-0.000840965
-0.000861982
-0.000828944
-0.000749272
0.008007
0.00028412
0.000234155
0.00017629
0.000110946
3.85981e-05
-4.02663e-05
-0.000125056
-0.000214992
-0.000308997
-0.000405557
-0.000502516
-0.000596803
-0.000684093
-0.000758401
-0.000811323
-0.000830276
-0.000799586
-0.000724972
0.0091476
0.000243211
0.000195417
0.000140672
7.9322e-05
1.17247e-05
-6.17721e-05
-0.000140741
-0.000224596
-0.000312496
-0.000403201
-0.000494876
-0.000584804
-0.000669053
-0.0007421
-0.000796277
-0.000820471
-0.000799687
-0.000728635
0.00942911
0.000207297
0.000161607
0.000109915
5.24789e-05
-1.04794e-05
-7.87766e-05
-0.000152182
-0.00023035
-0.000312734
-0.00039846
-0.000486124
-0.00057351
-0.00065726
-0.00073247
-0.000792025
-0.000825663
-0.000816619
-0.000744303
0.00954322
0.000175478
0.000131918
8.33312e-05
2.98661e-05
-2.84148e-05
-9.15149e-05
-0.000159426
-0.000232075
-0.000309264
-0.000390554
-0.000475089
-0.00056131
-0.000646619
-0.000726834
-0.000795243
-0.00084199
-0.000847546
-0.000773838
0.0098133
0.000146942
0.000105647
6.03529e-05
1.10601e-05
-4.23523e-05
-0.00010009
-0.000162378
-0.000229433
-0.000301431
-0.000378432
-0.000460234
-0.000546099
-0.00063437
-0.000721713
-0.000801897
-0.000863941
-0.000886242
-0.000814542
0.0100564
0.000120965
8.22064e-05
4.05468e-05
-4.22209e-06
-5.24282e-05
-0.00010448
-0.000160825
-0.000221958
-0.000288428
-0.000360822
-0.000439673
-0.000525235
-0.000617006
-0.000712822
-0.000806854
-0.000878774
-0.000913303
-0.000841283
0.00417809
9.69145e-05
6.11496e-05
2.3638e-05
-1.6112e-05
-5.86489e-05
-0.000104561
-0.000154478
-0.000209124
-0.000269379
-0.000336339
-0.000411332
-0.000495808
-0.000590709
-0.000695611
-0.000805837
-0.000884115
-0.000929319
-0.000847939
0.000503367
7.4282e-05
4.22152e-05
9.54336e-06
-2.45788e-05
-6.09055e-05
-0.000100146
-0.000143033
-0.00019043
-0.000243453
-0.000303625
-0.00037303
-0.000454402
-0.000550802
-0.000664677
-0.000795235
-0.000901083
-0.000980305
-0.000887828
0.00229318
5.28009e-05
2.54715e-05
-1.50843e-06
-2.93422e-05
-5.89123e-05
-9.09404e-05
-0.000126147
-0.000165398
-0.000209884
-0.000261349
-0.000322431
-0.000397068
-0.000490766
-0.000610548
-0.000764715
-0.000940111
-0.00108832
-0.000995946
0.00343333
3.27721e-05
1.16388e-05
-8.70763e-06
-2.96394e-05
-5.19892e-05
-7.63355e-05
-0.000103235
-0.000133384
-0.000167804
-0.000208118
-0.000257013
-0.000318978
-0.000401267
-0.000515638
-0.000684874
-0.000946992
-0.00126347
-0.0012289
0.00324915
1.52971e-05
1.82376e-06
-1.12283e-05
-2.49489e-05
-3.98724e-05
-5.62757e-05
-7.44134e-05
-9.46398e-05
-0.000117542
-0.00014416
-0.000176424
-0.000217983
-0.000275578
-0.000362354
-0.000513796
-0.000829709
-0.00140107
-0.00158969
0.00262215
4.17405e-07
-6.42527e-06
-1.30763e-05
-2.03712e-05
-2.84717e-05
-3.73593e-05
-4.69892e-05
-5.73417e-05
-6.84721e-05
-8.06075e-05
-9.43805e-05
-0.000111418
-0.000135694
-0.000176682
-0.00026211
-0.000492364
-0.00112813
-0.00182924
0.00139311
)
;

boundaryField
{
    leftWall
    {
        type            fixedFluxPressure;
        gradient        uniform 0;
        value           nonuniform List<scalar> 
50
(
769.426
769.469
769.546
769.661
769.814
770.005
770.233
770.497
770.983
771.921
352.446
1.07562
0.736895
0.292403
0.000403958
-0.0055091
-0.00502057
-0.00442706
-0.00385946
-0.00334015
-0.0028816
-0.00248703
-0.00214081
-0.00183148
-0.00155391
-0.00121521
-0.000352248
-0.000131928
6.98202e-05
0.000229355
0.000331645
0.000452593
0.000585533
0.000708188
0.000511345
-0.000195361
-0.000157758
-9.44484e-05
-8.54851e-05
-4.02899e-05
-4.69419e-06
2.37165e-05
5.01145e-05
8.28357e-05
0.000132636
0.000222463
0.000407144
0.000534046
0.000669932
0.000562338
)
;
    }
    rightWall
    {
        type            fixedFluxPressure;
        gradient        uniform 0;
        value           nonuniform List<scalar> 
50
(
770.261
770.193
770.058
770.696
770.896
771.103
771.372
771.71
771.94
770.804
374.205
1.71556
0.695806
0.315473
-0.00415127
-0.00334794
-0.00260042
-0.00195873
-0.0013927
-0.000813935
-0.00026249
0.000202465
0.0184564
0.0269144
0.0050879
-0.00280983
-0.00252553
-0.00221585
-0.00185463
0.00265024
0.00549095
0.00584821
0.00619775
0.00591139
-0.000512029
-0.000913975
9.95457e-05
0.008007
0.0091476
0.00942911
0.00954322
0.0098133
0.0100564
0.00417809
0.000503367
0.00229318
0.00343333
0.00324915
0.00262215
0.00139311
)
;
    }
    lowerWall
    {
        type            fixedFluxPressure;
        gradient        uniform 0;
        value           nonuniform List<scalar> 
62
(
769.426
769.232
768.892
768.398
767.761
766.994
766.111
765.126
764.065
762.94
761.774
760.586
759.393
758.212
757.044
755.924
754.879
753.966
753.149
752.497
752.141
751.908
751.772
751.772
751.705
751.616
751.497
751.348
751.219
751.064
750.898
751.415
751.503
751.807
752.221
754.461
754.314
753.385
753.13
752.833
753.718
754.504
753.977
754.461
754.908
755.814
756.693
757.643
758.61
759.529
760.592
761.696
762.781
763.801
764.807
765.924
767.303
768.243
769.037
769.609
769.987
770.261
)
;
    }
    atmosphere
    {
        type            totalPressure;
        rho             rho;
        psi             none;
        gamma           1;
        p0              uniform 0;
        value           nonuniform List<scalar> 
46
(
-5.87339e-05
0
0
0
0
0
0
0
0
0
0
0
0
0
0
0
0
0
0
0
0
-2.47569e-08
-6.43553e-07
-1.62192e-06
-2.47518e-06
-3.49298e-06
-4.66589e-06
-6.97041e-06
-1.08333e-05
-1.5358e-05
-2.04413e-05
-2.59725e-05
-3.18315e-05
-3.78878e-05
-4.39981e-05
-5.00039e-05
-5.57274e-05
-6.0965e-05
-6.54762e-05
-6.89588e-05
-7.099e-05
-7.08747e-05
-6.72095e-05
-5.67055e-05
-2.89519e-05
0
)
;
    }
    defaultFaces
    {
        type            empty;
    }
}


// ************************************************************************* //
