/*--------------------------------*- C++ -*----------------------------------*\
  =========                 |
  \\      /  F ield         | OpenFOAM: The Open Source CFD Toolbox
   \\    /   O peration     | Website:  https://openfoam.org
    \\  /    A nd           | Version:  9
     \\/     M anipulation  |
\*---------------------------------------------------------------------------*/
FoamFile
{
    format      ascii;
    class       volVectorField;
    location    "7.35";
    object      U;
}
// * * * * * * * * * * * * * * * * * * * * * * * * * * * * * * * * * * * * * //

dimensions      [0 1 -1 0 0 0 0];

internalField   nonuniform List<vector> 
918
(
(2.47628 -0.138936 0)
(0.108704 0.722546 0)
(0.18071 1.18736 0)
(2.31834 0.153729 0)
(-0.0549761 1.28057 -1.24169e-19)
(-0.0924034 0.643931 -5.40104e-18)
(0.534052 0.863577 -3.29074e-19)
(0.309105 0.172789 -3.06687e-20)
(3.00616 -0.0196124 0)
(-0.0144229 0.526009 0)
(-0.0199975 0.674663 0)
(0.625225 0.00379646 0)
(0.0107054 0.439105 0)
(-0.00292082 0.421761 0)
(0.0166281 0.354243 -1.34354e-18)
(-0.000774388 0.755825 -9.79028e-20)
(0.353721 0.0835839 2.20512e-18)
(0.0792938 0.685265 -2.45379e-19)
(1.52916 0.128514 0)
(-0.0270861 0.772513 0)
(0.217325 0.175025 -1.30264e-18)
(3.08302 -0.397446 0)
(2.9244 -0.506065 0)
(1.86106 -0.181155 0)
(0.544729 0.0397577 0)
(-0.0249788 0.521325 0)
(-0.00135438 0.494036 1.8985e-18)
(-0.0170607 1.55407 0)
(0.104017 3.07965 0)
(0.183081 1.91986 0)
(-0.0202661 3.10813 0)
(0.0292108 1.64082 9.54745e-20)
(0.0246865 0.692424 0)
(-0.147425 0.775094 -2.0659e-22)
(-0.193914 1.0291 4.4938e-18)
(-0.0415772 1.04471 0)
(0.742524 -0.0061053 0)
(0.172423 0.263304 6.79071e-19)
(0.995886 1.52317 7.19351e-19)
(0.650597 0.790639 -5.72458e-19)
(0.805005 1.60457 6.955e-20)
(0.423322 0.877387 -3.58529e-19)
(0.622292 0.345162 3.01622e-20)
(0.334865 0.172306 0)
(0.943603 0.556897 0)
(0.599208 0.343519 1.35545e-19)
(0.291416 0.183415 -1.3909e-19)
(0.870777 -0.05559 0)
(3.02783 -0.00181406 0)
(3.00685 0.017809 0)
(3.20083 -0.41785 0)
(3.04289 -0.0743296 0)
(3.03116 -0.0389186 0)
(0.0138399 0.900385 -1.15872e-18)
(-0.0521127 1.0645 0)
(0.00310529 0.50299 0)
(-0.0405875 1.09267 0)
(-0.0174404 0.546785 0)
(-0.00206056 0.840689 0)
(-0.049225 1.26287 0)
(-0.0107589 0.625892 0)
(-0.033636 1.33194 0)
(-0.0103819 0.716435 0)
(0.786637 0.0119967 0)
(1.20319 -0.00496628 0)
(0.633448 0.0105635 0)
(1.17082 0.0149824 0)
(0.595476 0.0072684 0)
(0.225406 0.921982 1.9934e-18)
(0.0985379 1.2081 0)
(0.176302 1.06604 0)
(0.0331901 0.755774 2.23842e-23)
(0.0372233 0.498055 -2.9813e-18)
(0.0194615 0.747943 0)
(0.00595412 0.422033 0)
(-0.000734479 0.734595 4.61517e-24)
(0.000692545 0.414841 0)
(-0.0170681 0.743354 0)
(-0.0130636 0.428199 0)
(0.0568564 0.681608 0)
(0.0541526 0.484654 0)
(0.0132635 0.640136 1.27029e-18)
(0.00351497 0.350641 0)
(-0.0148548 4.52227 0)
(0.0127955 1.42401 9.71978e-20)
(-0.00798364 0.765589 -1.23698e-19)
(0.713959 0.168049 -7.69321e-19)
(0.360931 0.0714151 -7.46036e-19)
(0.725921 0.191157 -2.31008e-18)
(0.360828 0.108334 -1.48738e-18)
(0.0801419 0.63522 0)
(0.187623 1.3797 2.0701e-19)
(0.187638 0.770722 -3.30523e-19)
(2.06102 0.260625 0)
(1.1076 0.118285 0)
(3.03313 0.103837 0)
(3.10397 0.446003 0)
(2.83939 0.377295 -1.0231e-17)
(2.57815 0.36127 7.84992e-18)
(-0.0589116 1.4251 0)
(-0.00403057 0.725091 0)
(-0.008298 2.11375 0)
(-0.0547567 1.51382 0)
(-0.0496211 0.760469 0)
(0.485541 0.333392 4.12307e-19)
(0.250191 0.183725 0)
(2.29578 -0.266586 0)
(1.32344 -0.119387 0)
(1.129 0.0100469 0)
(1.07158 0.0180046 0)
(0.571225 0.00886574 0)
(1.01188 0.0544357 0)
(0.877677 0.0721829 0)
(0.369286 0.0293705 3.43406e-18)
(-0.0055468 0.45108 1.81754e-18)
(-0.0274585 0.785216 0)
(-0.0488472 0.849456 0)
(-0.0155632 0.461391 0)
(0.000126807 0.83972 1.85281e-18)
(6.61996e-05 0.487521 0)
(-0.0054799 0.845554 -5.70025e-18)
(-0.00488655 0.496761 1.92286e-18)
(0.0869319 3.76019 0)
(0.0857634 4.13054 0)
(-0.00963874 1.39338 -2.23913e-21)
(-0.00769114 1.35937 0)
(-0.00657465 0.737465 0)
(1.4059 0.0345275 0)
(0.757657 0.0153398 0)
(0.712598 0.0137824 0)
(1.41285 -0.0330591 0)
(0.771769 -0.00896187 0)
(0.345124 0.513586 -8.52626e-19)
(0.167503 0.248858 0)
(0.348 0.544862 9.55735e-20)
(0.174584 0.287155 0)
(1.23147 1.38785 1.84315e-19)
(0.769001 0.738533 -4.30655e-19)
(0.42365 1.48266 0)
(0.618603 1.58205 0)
(0.311666 0.849315 0)
(0.153634 0.374454 -4.51174e-19)
(0.680963 0.315031 0)
(0.351701 0.151595 4.08814e-19)
(1.40372 1.29621 0)
(1.55462 1.14889 0)
(0.85817 0.655193 5.00051e-19)
(1.69699 0.933906 0)
(1.04687 0.43097 2.24797e-20)
(1.47039 0.00770588 0)
(1.49924 -0.0295087 0)
(0.800673 -0.00458625 0)
(1.94971 -0.200004 0)
(1.64964 -0.148407 0)
(1.05163 -0.089099 0)
(3.06127 0.164752 0)
(3.03104 0.0686645 0)
(3.01022 0.0530806 0)
(0.0245916 1.60457 6.14528e-19)
(0.0130828 0.839064 0)
(0.0119269 1.67733 1.09319e-18)
(-1.43792e-05 0.925822 -9.85039e-19)
(0.0602684 1.23148 2.0678e-19)
(0.0440428 1.0774 0)
(0.0366622 0.576354 0)
(-0.0361344 1.13835 0)
(-0.0107993 0.591721 0)
(0.0147171 1.56114 -4.5573e-21)
(-0.0179814 0.841968 0)
(-0.0487706 1.52782 -2.3413e-19)
(-0.0145715 0.794766 4.5323e-19)
(-0.00737982 1.17543 0)
(0.00977042 1.19623 0)
(-0.0019788 0.614178 0)
(0.00169315 1.3554 0)
(-0.000973292 0.718482 0)
(1.4632 -0.00212822 0)
(0.786881 0.00796456 0)
(1.43429 0.0329121 0)
(0.758947 -0.000391556 0)
(0.682119 0.00369564 0)
(1.27919 0.0136014 0)
(1.22753 0.0438225 0)
(0.670055 0.0133556 0)
(-0.00580239 1.42076 -1.73543e-20)
(0.00018368 1.37708 0)
(0.00481974 0.732924 0)
(0.00172842 0.417221 0)
(0.308057 0.883352 0)
(0.273473 0.429255 -2.92312e-19)
(0.00188749 0.64165 0)
(-0.00759075 0.368675 0)
(0.0542776 4.36118 0)
(0.00536228 4.52459 0)
(0.0328322 4.49364 0)
(-0.046753 3.28269 2.26983e-20)
(-0.0104077 4.41563 0)
(-0.0139819 4.03007 0)
(0.00592444 0.793044 1.14256e-20)
(0.0150428 1.50837 1.7091e-19)
(-0.0311761 1.4574 1.27076e-19)
(-0.0057043 0.800535 0)
(0.737079 0.115972 1.18085e-18)
(0.361523 0.0467919 -1.1571e-18)
(0.152797 1.16505 0)
(0.103429 0.59049 -2.73658e-19)
(0.12164 1.26507 -8.88998e-19)
(0.0526837 0.705704 8.84452e-19)
(0.810776 0.0236748 0)
(1.55902 0.0470658 0)
(1.71102 0.127355 0)
(0.920784 0.0443074 0)
(0.00717279 1.36955 0)
(0.0302214 1.37201 0)
(0.00530835 0.732249 0)
(0.544674 0.356438 1.23592e-18)
(0.490334 0.351208 -1.42373e-18)
(0.264862 0.186033 0)
(1.91616 0.149338 1.184e-19)
(1.12504 0.0902918 0)
(1.71163 0.113479 0)
(0.880957 0.0220508 0)
(0.742797 0.088045 0)
(0.754828 0.0483444 -5.5231e-18)
(0.37524 0.0330317 2.04304e-18)
(0.0088322 0.806767 1.73358e-18)
(0.00212657 0.462316 4.07954e-20)
(-0.010878 1.40842 -3.64717e-20)
(0.00613605 1.38675 1.39087e-18)
(-0.0149833 0.848955 6.4124e-20)
(-0.0119261 0.524486 -2.5755e-22)
(-0.107514 1.00068 -1.18534e-18)
(-0.0529602 1.3532 8.48644e-19)
(-0.0175323 1.35275 -1.38262e-18)
(1.41731 -0.0163593 0)
(1.43712 0.0199596 0)
(0.766358 -0.000164377 0)
(1.45571 0.0247548 0)
(1.36819 0.0456466 0)
(0.76376 0.0198714 0)
(1.31195 -0.0040685 0)
(1.32591 -0.00721829 0)
(0.699581 -0.00215277 0)
(0.325792 0.507474 -9.32405e-19)
(0.172761 0.260359 0)
(0.166001 0.327091 1.39649e-19)
(0.326933 0.623062 1.14419e-18)
(0.327733 0.58618 -6.77553e-19)
(0.166599 0.301198 1.32443e-18)
(0.292018 0.757756 2.22204e-18)
(0.155127 0.401511 4.00827e-19)
(0.716442 0.241958 1.57573e-18)
(0.701343 0.286958 4.08793e-19)
(0.357967 0.130997 7.67931e-19)
(1.88058 0.701652 -6.34646e-19)
(1.1437 0.328136 -7.36557e-19)
(-0.0361961 1.67246 4.71539e-19)
(-0.0131638 0.907338 0)
(1.59664 0.0254741 0)
(1.51435 0.0629835 0)
(0.848238 0.0264791 0)
(-0.00356241 1.38473 0)
(0.00506451 0.729584 2.54636e-18)
(0.00464821 0.731253 0)
(0.00206833 0.4151 -2.49231e-18)
(-0.0102921 1.38627 6.08226e-19)
(-0.00948206 1.4225 0)
(0.3607 0.524089 2.62786e-19)
(0.386494 0.588048 -8.78969e-19)
(0.184372 0.277316 7.9542e-19)
(-0.0257502 0.766567 -1.70381e-18)
(-0.0251384 0.690131 0)
(-0.0151746 0.412395 0)
(0.0279138 1.49203 -1.32113e-20)
(0.0316231 1.52182 -3.78053e-19)
(0.016614 0.795991 -1.58442e-20)
(0.218244 1.07613 9.04528e-19)
(0.122224 0.526717 -6.01875e-19)
(0.00756953 1.50371 7.41806e-19)
(0.0538621 1.38053 -8.28441e-19)
(0.0242128 0.777087 3.63289e-20)
(0.00730448 1.3661 -3.89369e-18)
(-0.000403983 1.39327 4.50911e-18)
(0.00374449 0.829747 1.77068e-18)
(-0.0139385 0.804964 -1.76509e-18)
(-0.00433605 0.48135 -1.77644e-18)
(-0.0106967 1.41684 -4.59657e-18)
(-0.0152866 1.40031 4.68791e-18)
(0.303349 0.713853 0)
(0.316994 0.671702 -2.33288e-18)
(0.160873 0.351197 1.00994e-18)
(0.293927 0.835413 1.20613e-18)
(0.144928 0.448606 -1.86109e-18)
(2.02682 0.311418 4.29355e-19)
(2.01302 0.5339 0)
(1.19885 0.215297 -4.17068e-19)
(-0.0696093 1.58731 -4.95864e-21)
(-0.0181783 1.64842 0)
(-0.0169775 0.897152 0)
(0.231789 0.979686 -3.28042e-19)
(0.257171 0.905585 -7.18765e-19)
(0.132705 0.483955 1.34742e-18)
(3.16422 -0.443134 0)
(3.34719 -0.414968 1.83235e-18)
(0.0942967 3.66288 0)
(0.0621338 3.07514 0)
(3.15931 0.249615 1.41466e-20)
(3.12368 0.505993 3.75099e-18)
(0.0445194 3.33418 -3.04674e-20)
(0.0208169 2.61426 0)
(-0.0379033 1.19808 1.59624e-18)
(0.215167 1.37315 0)
(3.38318 1.58167 -3.41157e-19)
(3.17556 0.271705 -2.96313e-20)
(3.14642 -0.119737 0)
(3.10045 -0.000768891 3.38461e-22)
(0.0289373 2.73271 0)
(0.128585 3.2736 0)
(-0.0724497 2.77853 0)
(-0.0347566 3.35475 3.26295e-19)
(-0.026641 3.41154 2.05257e-19)
(2.68068 0.0344593 -1.29658e-20)
(3.03106 0.0287828 0)
(3.13301 0.0836574 0)
(-0.00296081 4.48512 0)
(-0.0276764 2.9693 0)
(-0.0595723 3.19152 0)
(0.647409 3.16996 2.86985e-19)
(3.33859 -0.422934 0)
(3.01071 -0.346162 0)
(3.16991 -0.053492 2.30198e-18)
(3.29265 -0.329039 -2.77157e-18)
(3.10382 -0.126021 0)
(-0.0106259 4.44659 0)
(0.045161 4.0596 0)
(0.048353 4.29466 0)
(-0.0134088 3.3555 0)
(-0.00167522 3.10886 0)
(-0.0309621 2.73256 0)
(2.96814 -0.00494794 0)
(2.85997 0.0450248 -1.79559e-20)
(2.19533 3.01247 -3.54178e-19)
(3.15691 0.0440207 -2.303e-18)
(3.1904 0.277822 2.79855e-18)
(3.0828 0.117074 0)
(3.39606 0.327813 2.11143e-18)
(3.35731 0.483924 -2.73573e-18)
(3.07177 0.418089 0)
(-0.0300522 3.22507 0)
(0.0269855 3.17741 9.11219e-20)
(-0.0156328 2.51874 -6.48223e-20)
(3.64784 0.534015 2.33252e-18)
(3.42954 0.198554 0)
(-0.142847 1.2722 -2.22323e-18)
(-0.0509569 0.87989 -1.38751e-19)
(-0.0660808 1.34601 3.06618e-18)
(-0.0239397 1.2774 -9.23104e-19)
(0.00971876 1.09913 0)
(-0.0265902 1.23884 7.12687e-19)
(-0.11106 1.38775 2.20312e-18)
(-0.0556745 1.34098 -1.34778e-18)
(-0.0776331 1.32024 0)
(1.43392 0.658007 0)
(1.3163 0.758881 0)
(3.46028 1.97503 1.00446e-18)
(2.97369 1.89493 -1.25823e-18)
(3.73847 1.65227 0)
(3.31477 1.12944 0)
(3.35069 0.279123 -3.96334e-18)
(2.90117 0.172094 4.89801e-18)
(3.34935 -0.156734 0)
(2.85169 -0.0769959 0)
(3.4364 0.0415661 0)
(3.59389 0.1435 0)
(3.28683 0.119095 0)
(3.55069 0.297233 0)
(3.40862 0.292283 0)
(3.32765 0.217221 0)
(0.0624134 2.96552 0)
(0.0112321 2.27282 0)
(0.0993432 3.19074 0)
(0.0930107 2.35123 0)
(0.180286 3.55924 0)
(0.125615 2.68869 -5.68112e-19)
(0.0272842 3.56459 0)
(-0.00333133 2.98823 4.12141e-19)
(-0.0387452 3.1243 -5.30308e-19)
(-0.0703259 3.07676 0)
(-0.0391064 2.48804 0)
(-0.093498 3.15488 0)
(-0.0569317 2.28746 0)
(-0.140375 4.58986 -2.5793e-19)
(-0.0803698 3.76963 2.88416e-19)
(-0.0803141 3.65091 3.2361e-19)
(-0.0521431 2.89469 0)
(-0.100889 3.63657 -4.74895e-19)
(-0.0348313 3.06229 -3.03815e-19)
(-0.111414 4.61119 2.01556e-19)
(-0.104767 4.27075 -3.64529e-19)
(-0.0857907 4.16169 -3.9692e-19)
(3.07012 0.0677162 3.40662e-18)
(2.32621 0.025001 -4.29027e-18)
(2.94227 0.110167 -3.3775e-18)
(2.28341 0.0616052 4.22054e-18)
(3.35211 0.0236632 0)
(2.63312 -0.00280189 0)
(3.42571 0.0873359 0)
(3.29944 0.0178209 0)
(2.69543 0.0102344 0)
(3.63474 0.227941 0)
(3.40739 0.092951 0)
(2.84678 0.0574228 0)
(0.0190539 4.15322 -1.23344e-20)
(-0.00832996 4.48634 0)
(-0.0125076 4.36089 0)
(-0.0502915 3.36126 9.19534e-20)
(-0.0291617 2.67006 -3.63293e-21)
(-0.042499 4.53734 1.19344e-19)
(-0.0538066 4.41171 -1.20597e-19)
(-0.0537339 4.06343 0)
(-0.0282243 4.00549 0)
(-0.00277671 4.09609 0)
(-0.0568899 3.5102 0)
(-0.0347214 2.59294 0)
(0.926752 3.71235 -6.54711e-19)
(0.926011 2.91845 -1.93713e-19)
(0.43739 2.11027 -2.31928e-19)
(0.254925 2.34889 7.08876e-19)
(0.965413 4.15572 2.69756e-19)
(3.43182 -0.168753 0)
(3.32144 -0.257365 0)
(2.88185 -0.189961 0)
(3.47024 -0.0657258 0)
(3.34581 -0.148587 0)
(3.44883 -0.261788 0)
(3.51932 -0.284408 0)
(3.57911 -0.282215 0)
(3.23194 0.0885303 3.66441e-18)
(2.56227 0.0628725 -4.63328e-18)
(3.10745 0.0999639 -3.608e-18)
(2.52529 0.0520261 4.48997e-18)
(2.17386 3.3764 0)
(1.71503 2.94971 -4.8433e-19)
(2.48639 3.28833 -4.36304e-19)
(2.32031 2.50186 5.80051e-19)
(0.827256 1.29854 2.77932e-18)
(1.57019 0.218434 1.37204e-18)
(3.67117 0.291353 0)
(3.82656 0.549113 -1.89991e-18)
(3.26687 0.237479 -8.45851e-20)
(3.73378 0.408588 0)
(0.304975 1.34633 1.84602e-18)
(0.0202314 1.21797 -2.95598e-18)
(0.100864 0.781993 1.66264e-18)
(0.32951 0.496798 -7.69155e-19)
(0.218355 1.43604 8.94506e-19)
(0.072288 1.26171 0)
(0.0722835 1.11842 -1.16283e-18)
(0.241908 1.48248 -4.20617e-18)
(0.387138 1.61548 0)
(0.00820925 1.28987 1.22427e-19)
(-0.010149 1.45725 -1.37149e-18)
(-0.0415824 1.30308 1.99385e-18)
(-0.0582334 1.41755 0)
(-0.0210311 1.3818 0)
(0.72915 1.12678 0)
(2.49542 2.512 -1.08488e-18)
(2.58326 2.14123 4.21898e-19)
(2.70647 2.82288 0)
(3.09242 2.99068 -4.1031e-19)
(3.07652 2.35584 2.78437e-20)
(0.905862 0.670088 -1.87114e-18)
(1.71606 0.752867 -1.73842e-20)
(1.36639 0.503709 8.92365e-19)
(1.42538 0.934686 6.10786e-20)
(1.0608 0.712892 -2.43275e-18)
(1.62199 0.789898 0)
(2.1603 1.18105 1.4904e-18)
(2.19741 1.09047 0)
(1.56826 0.873793 0)
(1.1917 0.616267 0)
(3.33319 2.14019 1.02582e-18)
(3.87424 0.734115 -1.91947e-18)
(3.76771 1.17714 0)
(3.47315 0.738452 0)
(1.53439 0.39807 1.36497e-18)
(3.26794 1.83826 -8.67333e-19)
(2.91968 1.68342 1.57413e-18)
(3.72252 1.34281 -1.86919e-18)
(3.10271 0.111601 2.49461e-18)
(3.17115 0.178963 -2.61005e-18)
(2.66621 0.0904772 0)
(3.30165 -0.0418638 0)
(3.19776 -0.08561 -2.3981e-18)
(2.62778 -0.0327156 2.37703e-18)
(3.95771 0.085038 0)
(3.7651 0.138564 0)
(3.69391 0.153261 0)
(3.58935 0.20275 0)
(3.83257 0.0557581 0)
(3.72594 0.049859 0)
(-0.0573567 2.71501 0)
(-0.0516244 2.21955 0)
(0.301809 4.03204 -4.38108e-19)
(0.644713 3.42672 -1.73107e-19)
(0.249765 3.15612 -3.86933e-19)
(0.33655 2.6654 6.19975e-19)
(0.415271 4.03226 0)
(0.399616 4.58719 -5.31677e-19)
(0.310986 4.64213 0)
(0.850943 4.31205 -3.88025e-19)
(0.631541 3.79295 9.86483e-19)
(0.527556 4.58148 4.66488e-19)
(0.691328 4.18075 -2.02939e-19)
(0.545374 4.30991 1.63274e-19)
(0.848758 4.57352 -6.93739e-19)
(0.691294 4.57144 0)
(0.789688 4.51114 5.2619e-19)
(-0.0433733 4.4321 -1.88505e-19)
(-0.040293 3.55665 0)
(0.052693 4.18349 5.64248e-19)
(-0.0449829 4.26495 0)
(-0.0241943 3.40304 -4.58338e-19)
(-0.0260892 2.86531 0)
(-0.135039 4.33582 -3.10419e-19)
(-0.142214 4.57782 0)
(-0.09224 3.9168 0)
(-0.0846504 3.90144 3.487e-19)
(-0.0630308 3.74215 1.16894e-20)
(-0.0511439 3.59631 6.42852e-19)
(-0.0458942 2.86132 4.20221e-21)
(-0.128421 4.56005 1.8975e-19)
(-0.125481 4.60553 1.09054e-19)
(-0.02787 2.91891 0)
(-0.00850848 2.42376 0)
(-0.0933549 4.65207 5.12873e-19)
(-0.106646 4.32731 4.59816e-19)
(-0.129167 4.52758 -5.96529e-19)
(-0.0455158 4.64891 0)
(-0.0492447 4.33619 -3.31319e-19)
(-0.0865119 3.97909 1.38156e-19)
(-0.0659673 4.06478 -4.35827e-20)
(-0.0803541 4.57237 -2.30482e-19)
(-0.0758575 4.09108 -7.21464e-20)
(-0.0814078 4.04458 3.19312e-19)
(2.8913 0.0522057 -2.39449e-18)
(2.88814 0.0369584 2.30533e-18)
(2.36301 0.0281024 0)
(3.5437 0.163349 3.09402e-18)
(2.77951 0.11033 -3.35862e-18)
(2.3357 0.0541486 3.6718e-18)
(3.70995 0.295985 -4.08556e-19)
(3.20233 -0.0501997 0)
(3.1618 -0.0156355 2.26977e-18)
(2.68409 -0.0131623 -2.25175e-18)
(3.84146 0.114203 -1.27394e-19)
(3.74388 0.0939754 1.09646e-18)
(4.11822 0.15598 0)
(4.19146 0.160281 -3.81346e-19)
(4.01329 0.118462 0)
(3.71678 0.125688 0)
(4.03282 0.0833507 0)
(3.71892 0.0765579 0)
(4.16769 0.0932154 7.95115e-19)
(4.1302 0.0593165 -1.77378e-18)
(4.11431 0.101128 -8.62196e-19)
(4.16185 0.100256 -9.35672e-19)
(4.1667 0.211341 1.80622e-18)
(3.8129 0.179245 0)
(4.00282 0.284188 0)
(-0.0414162 4.38083 -1.42551e-19)
(0.0117311 4.46446 -1.23323e-20)
(-0.029215 4.49389 0)
(-0.0233762 4.0099 1.45118e-19)
(-0.0175388 4.0473 2.34021e-20)
(-0.0250078 3.9131 -2.31515e-20)
(-0.0707303 3.36474 2.68506e-19)
(-0.121237 3.83057 -1.50649e-20)
(-0.0889334 3.95082 7.72926e-20)
(-0.0589675 3.25416 -1.35791e-19)
(-0.0197649 2.7976 1.6283e-19)
(-0.0502886 4.423 5.55497e-21)
(-0.0591687 4.5314 1.80468e-19)
(1.17443 4.31834 3.72703e-19)
(1.0867 4.45477 7.54886e-19)
(1.6951 3.45457 4.68298e-19)
(1.28191 3.57957 1.86219e-19)
(1.28384 2.92697 0)
(0.554223 2.38035 2.79538e-19)
(0.470277 1.79884 3.3606e-19)
(0.345973 2.61538 1.50491e-20)
(0.485999 3.21314 -1.18277e-18)
(0.623855 3.173 8.9065e-19)
(0.435357 2.45858 0)
(0.298143 2.02374 -5.66344e-19)
(0.236391 3.08324 1.41796e-18)
(0.262038 2.75259 -3.21986e-20)
(0.15151 2.31693 -1.77663e-18)
(0.622637 1.48786 1.49182e-18)
(0.59752 1.6896 0)
(3.58341 -0.076658 8.74503e-20)
(3.6182 -0.255357 -7.34509e-20)
(3.72056 -0.219448 -1.28193e-18)
(3.75866 -0.128154 1.29798e-18)
(3.67582 -0.0510872 0)
(2.34864 3.80218 0)
(2.50684 3.83399 0)
(2.7862 3.53823 0)
(2.62304 3.57106 0)
(0.907266 1.48977 -4.69209e-21)
(0.653757 1.11205 0)
(1.72122 3.46473 1.52741e-20)
(1.40253 3.50523 0)
(1.34899 3.04959 -1.30614e-18)
(1.42639 2.97974 8.38369e-19)
(1.92618 0.322317 0)
(1.55716 0.276527 3.6028e-19)
(2.53963 0.351478 2.23889e-18)
(1.91771 0.278558 -8.04261e-19)
(1.53111 0.111775 -2.54568e-18)
(4.17656 0.744067 -2.62688e-18)
(3.83106 0.957377 -3.40605e-20)
(3.35938 0.82704 2.10159e-18)
(3.8609 0.710831 1.84676e-18)
(3.2043 0.449674 -3.10108e-18)
(3.00485 0.446325 3.81616e-19)
(3.28053 0.673216 -8.34736e-19)
(3.07856 0.660206 0)
(3.78123 0.526554 1.5641e-18)
(4.05434 0.592092 0)
(4.05039 0.727838 0)
(3.97318 0.391347 8.41451e-19)
(4.20894 0.602228 -2.98939e-20)
(4.14368 0.674451 -4.612e-19)
(4.0883 0.607702 0)
(3.6398 0.102656 1.74549e-18)
(4.16387 0.154983 2.17933e-18)
(4.08358 0.121926 -1.70613e-18)
(4.11657 0.208653 -1.46658e-18)
(3.75935 0.202444 -2.18991e-18)
(3.37916 0.351612 0)
(3.44889 0.272002 0)
(2.65468 0.179122 -1.28863e-18)
(2.21254 0.113531 4.8578e-19)
(4.01962 0.317429 1.97441e-18)
(4.21438 0.40061 -2.3941e-18)
(4.22007 0.451963 2.10883e-18)
(4.1139 0.450803 0)
(4.19284 0.309517 0)
(4.208 0.294231 -9.99049e-19)
(4.17168 0.282395 -1.62453e-18)
(2.203 3.51671 6.30414e-19)
(1.9514 3.31129 -6.94094e-19)
(1.51223 2.48799 -1.05221e-18)
(1.26364 2.13055 2.72233e-19)
(0.943107 1.47643 -2.68381e-18)
(0.848613 1.30293 9.39635e-19)
(0.642571 0.969187 -2.21652e-21)
(1.18684 1.90707 -1.1611e-18)
(1.21246 2.00912 1.73303e-18)
(1.04236 1.81784 5.16149e-19)
(0.841381 1.38179 -5.22935e-19)
(0.681311 1.15265 0)
(2.4809 2.66244 -1.17243e-19)
(0.821941 1.22344 8.80545e-19)
(1.04674 0.994947 1.18687e-18)
(0.863383 0.895863 1.37584e-18)
(1.21492 0.840677 1.37676e-18)
(1.62122 1.15759 -2.32653e-18)
(1.53284 1.18903 1.88553e-18)
(1.12618 0.863488 -6.95042e-19)
(0.920286 0.644366 1.53454e-18)
(1.76819 0.536512 -7.96612e-19)
(1.70873 0.566812 0)
(1.37552 0.453323 5.07821e-21)
(2.62304 1.58149 7.9255e-19)
(2.24091 1.36005 -2.87175e-18)
(1.84591 1.29638 1.18903e-20)
(1.82271 1.19097 0)
(2.85276 2.59447 8.88216e-19)
(3.34296 2.67744 1.05999e-18)
(3.1648 2.87544 -1.2214e-18)
(3.43772 2.6815 -4.3975e-19)
(3.36978 2.53268 -1.40608e-19)
(3.393 2.71801 1.44649e-19)
(3.58703 2.20222 -1.70929e-18)
(3.59451 2.42103 4.11946e-19)
(3.66458 2.35833 0)
(3.66798 2.12642 -5.96273e-19)
(3.98559 1.02818 5.94302e-19)
(4.17663 0.947342 1.03168e-18)
(4.20279 0.913804 1.03691e-18)
(3.97163 1.27175 -1.17408e-18)
(3.99928 1.29482 0)
(4.04825 1.18389 0)
(3.38556 1.22343 -1.39621e-20)
(2.55543 0.702581 0)
(2.84154 0.762097 9.49499e-19)
(3.30787 0.87451 -2.54762e-20)
(3.73472 1.49244 5.20337e-18)
(3.53948 1.72413 1.33597e-18)
(3.47627 1.52062 -1.36415e-18)
(3.11274 1.38377 1.46221e-18)
(2.86978 1.40432 8.39243e-19)
(2.46639 1.21878 -8.12856e-19)
(3.66893 -0.0882776 2.01111e-18)
(3.89364 -0.0322354 0)
(3.85791 -0.0698336 1.3592e-18)
(3.74131 -0.0623044 -3.02697e-18)
(3.97953 0.0318774 1.48053e-18)
(3.90515 0.107564 -3.12194e-18)
(3.74189 0.122313 0)
(3.55986 0.169813 -6.36333e-19)
(3.81248 0.119634 1.62505e-18)
(3.69311 0.188143 -8.32606e-19)
(3.60211 0.167991 5.98006e-19)
(-0.093152 2.83157 0)
(-0.0712181 3.57942 0)
(-0.0536218 2.68761 0)
(-0.0341946 2.19513 0)
(-0.00163729 3.9984 7.28697e-19)
(0.0882985 3.80825 -1.92974e-19)
(0.245769 4.57186 -2.42479e-19)
(0.188836 4.43835 2.54725e-19)
(-0.0751943 4.30317 -5.33789e-19)
(-0.0435167 4.32699 4.00712e-19)
(0.0397317 3.9486 1.85084e-20)
(-0.0288548 3.679 -4.95595e-19)
(-0.0421231 3.47282 -6.6868e-20)
(-0.0741144 3.79045 -6.11897e-20)
(0.100481 4.36486 -6.02794e-19)
(0.129442 4.19365 0)
(0.217004 4.5301 3.02993e-19)
(0.210095 4.60865 2.60756e-19)
(0.538443 4.36123 -2.32396e-19)
(0.372465 3.75593 0)
(0.423709 3.61139 -1.13209e-18)
(0.52115 3.96304 8.02285e-19)
(0.422273 4.47105 -6.30874e-19)
(0.312529 4.33897 3.39446e-19)
(0.253251 4.08764 0)
(-0.0809613 4.6157 -5.81421e-19)
(-0.104752 4.34798 -6.64361e-19)
(-0.116287 4.56144 0)
(-0.0648627 4.21227 -6.00778e-21)
(-0.0657682 4.49136 2.87215e-19)
(-0.139841 4.00549 4.82002e-20)
(-0.0659328 3.68656 -7.12146e-19)
(-0.11269 4.05128 1.91138e-19)
(-0.170602 4.4998 2.51792e-19)
(-0.116196 4.35717 0)
(-0.0820745 4.04439 0)
(-0.0764165 3.17579 2.19206e-19)
(-0.049811 3.85752 -6.81253e-20)
(-0.0764977 3.83321 0)
(-0.0782407 2.97794 1.74184e-19)
(-0.0401809 2.47501 -3.36371e-19)
(3.75002 0.025824 0)
(3.72013 0.00170845 -2.06299e-19)
(4.16599 0.0535854 -1.4609e-18)
(4.07081 0.0346431 0)
(3.85746 0.0102127 0)
(4.14367 0.0242176 -1.17958e-20)
(4.09558 0.0247987 2.41136e-18)
(4.00219 0.0648467 2.88422e-18)
(3.7642 0.104126 0)
(3.56955 0.0955184 0)
(4.01554 0.0714341 1.4389e-18)
(3.71509 0.095679 0)
(3.49076 0.111222 0)
(-0.0699166 4.5075 0)
(-0.0765647 4.52721 1.06901e-20)
(-0.0574954 4.54818 6.91201e-20)
(-0.052456 4.00098 0)
(-0.0866931 4.46505 1.17675e-19)
(-0.0491294 4.29725 -6.75484e-20)
(-0.0472746 4.1091 0)
(1.3442 4.14616 0)
(1.136 4.48945 -1.34131e-18)
(1.15222 4.40781 0)
(1.48872 4.40354 1.53979e-18)
(1.52679 4.08639 0)
(1.43267 4.30737 -6.33314e-19)
(1.04921 2.34874 -3.46133e-20)
(0.746091 1.73245 -1.77858e-18)
(0.623555 1.29681 2.17038e-18)
(0.731439 1.91729 4.04031e-19)
(0.995536 2.51692 0)
(1.06339 2.47384 0)
(0.74614 1.77263 0)
(0.555189 1.39986 -1.42094e-18)
(1.17961 3.78798 -9.98477e-19)
(1.13096 3.06337 -2.39038e-19)
(1.3161 3.45547 1.95499e-19)
(0.60573 2.10819 0)
(0.635985 2.01877 0)
(0.475426 1.63669 -3.99542e-19)
(0.96347 2.79611 0)
(2.59918 3.51697 0)
(2.3847 3.05365 -1.47971e-18)
(2.52764 3.0436 -8.74248e-20)
(2.38912 3.41756 0)
(2.29513 3.20458 2.25919e-18)
(3.1838 3.01718 -4.00758e-19)
(3.01727 3.24248 0)
(3.00655 3.07258 6.52708e-19)
(2.77238 3.35528 0)
(2.79843 3.16255 0)
(1.27118 2.13125 -9.48904e-19)
(1.47779 2.53908 -7.12432e-19)
(1.78267 3.08389 1.22741e-18)
(1.72393 3.06587 -3.69016e-19)
(1.11742 1.93564 0)
(1.25071 2.3244 4.79502e-19)
(0.76279 1.37373 -7.30182e-19)
(0.617285 1.1136 -2.91087e-22)
(1.90127 3.71944 0)
(2.14441 3.73968 -5.51293e-19)
(2.24398 3.92701 0)
(2.42354 0.535985 0)
(1.75918 0.3618 0)
(1.33943 0.299953 0)
(2.36032 0.573889 -1.49477e-18)
(1.7872 0.432542 8.36104e-19)
(2.25694 0.122623 -1.0036e-18)
(2.7347 0.283637 0)
(2.58048 0.290838 4.21526e-19)
(1.88393 0.132981 1.66555e-18)
(1.63018 0.0793412 -1.05714e-18)
(0.800833 1.65952 8.76516e-19)
(1.03061 1.94026 0)
(0.581922 1.53144 1.59807e-18)
(0.577889 1.69937 -1.45817e-18)
(0.833228 1.91677 -1.01506e-18)
(2.13748 2.55896 1.36162e-18)
(2.152 2.803 0)
(1.71948 1.81193 -2.82775e-19)
(2.12632 2.1046 1.77551e-18)
(1.50777 1.42364 -4.34001e-19)
(1.74162 1.43867 4.6108e-19)
(2.2541 1.61035 1.04531e-18)
(2.56963 1.74563 0)
(2.39003 1.94679 0)
(2.15263 1.71723 0)
(3.83724 2.01094 4.00825e-19)
(3.69645 1.83575 -1.28759e-18)
(3.73205 1.96979 1.07118e-18)
(3.82601 1.71479 -1.02893e-18)
(4.04463 1.61487 0)
(3.99717 1.77634 -3.0642e-19)
(2.95485 1.18952 -1.93616e-18)
(3.06514 1.17214 -2.45817e-18)
(2.48843 1.09578 1.4867e-18)
(2.30326 0.989458 -1.45291e-18)
(2.60956 0.880991 -1.20181e-18)
(2.33532 0.825693 1.47792e-18)
(4.00677 0.0275781 -1.54911e-18)
(4.05042 0.0334252 3.17117e-18)
(3.76399 -0.0698509 1.92646e-18)
(3.78674 -0.077784 -2.31748e-18)
(3.95249 0.00292319 0)
(4.05073 0.0145502 -3.78043e-18)
(0.0345268 4.64005 1.10946e-19)
(0.00286046 4.626 0)
(0.124337 4.62107 9.92739e-19)
(0.145226 4.64427 -9.03487e-19)
(0.155989 4.62944 4.51338e-19)
(0.0532248 4.58461 0)
(-0.104377 4.61007 0)
(-0.10672 4.37988 -6.59438e-20)
(-0.10224 4.34986 5.91599e-20)
(-0.103677 4.43259 8.16425e-21)
(-0.0971634 4.54306 -1.07567e-19)
(-0.0835825 4.53401 5.79928e-20)
(1.80902 3.97565 -1.6742e-18)
(1.74534 3.98434 1.77306e-18)
(1.59751 4.32584 -8.83783e-19)
(1.62276 4.22402 7.76544e-20)
(2.15368 4.00795 0)
(1.77632 4.15437 -6.73984e-19)
(1.90284 3.9122 6.5356e-19)
(1.73034 4.29675 8.63259e-19)
(1.97557 4.14046 0)
(2.1316 4.026 0)
(1.1121 3.65002 1.51797e-18)
(0.826516 2.87648 2.05522e-18)
(0.950715 3.05372 -1.41143e-18)
(0.746387 3.03275 -2.35833e-19)
(0.880021 3.74601 4.74238e-19)
(0.710686 3.40229 -1.15277e-18)
(0.785227 1.54789 -1.23852e-18)
(0.783548 1.39843 0)
(0.634251 1.18179 -1.36139e-18)
(1.15435 2.1729 0)
(1.13333 2.25725 0)
(1.45652 2.31599 -1.11482e-18)
(1.14335 2.14037 -1.05844e-18)
(1.09771 2.15612 1.124e-18)
(1.16105 1.6337 0)
(1.54874 1.8952 -6.14356e-19)
(1.73341 2.25232 -8.68256e-19)
(1.51465 2.2073 0)
(0.961788 1.91925 7.31411e-19)
(0.879454 1.76729 0)
(2.91761 2.30488 -1.87733e-18)
(3.25994 2.43493 2.65306e-18)
(3.24765 2.17306 -2.63491e-18)
(2.68556 2.07517 -2.3521e-19)
(2.79325 1.98365 -9.90954e-19)
(1.34529 2.32381 8.13487e-19)
(1.39641 2.38306 -1.38699e-18)
(1.54297 2.46228 1.82857e-18)
(1.85873 2.67581 -1.18806e-18)
(1.93011 3.03785 -1.59379e-18)
(1.63365 2.62131 -1.20252e-19)
(1.69619 2.75853 1.39739e-18)
(1.87327 2.81335 9.84587e-20)
(2.05071 3.08731 6.61461e-19)
)
;

boundaryField
{
    wall-4
    {
        type            noSlip;
    }
    velocity-inlet-5
    {
        type            fixedValue;
        value           uniform (3 0 0);
    }
    velocity-inlet-6
    {
        type            fixedValue;
        value           uniform (0 1 0);
    }
    pressure-outlet-7
    {
        type            zeroGradient;
    }
    wall-8
    {
        type            noSlip;
    }
    frontAndBackPlanes
    {
        type            empty;
    }
}


// ************************************************************************* //
