/*--------------------------------*- C++ -*----------------------------------*\
  =========                 |
  \\      /  F ield         | OpenFOAM: The Open Source CFD Toolbox
   \\    /   O peration     | Website:  https://openfoam.org
    \\  /    A nd           | Version:  9
     \\/     M anipulation  |
\*---------------------------------------------------------------------------*/
FoamFile
{
    format      ascii;
    class       volScalarField;
    location    "100";
    object      nuTilda;
}
// * * * * * * * * * * * * * * * * * * * * * * * * * * * * * * * * * * * * * //

dimensions      [0 2 -1 0 0 0 0];

internalField   nonuniform List<scalar> 
10720
(
0.210306
0.21097
0.209327
0.203195
0.194279
0.183594
0.173696
0.163768
0.153673
0.143532
0.133194
0.122687
0.112123
0.10148
0.0908484
0.0803105
0.0699189
0.059705
0.0496323
0.0393944
0.0284868
0.0176553
0.0185546
0.0275291
0.0361523
0.0445873
0.0534271
0.0627889
0.0724981
0.0823483
0.0920803
0.101763
0.111518
0.121445
0.132127
0.143125
0.159184
0.169786
0.231615
0.20387
0.192389
0.17068
0.132347
0.0658306
0.0280805
0.0420027
0.0514982
0.0510271
0.0537814
0.0565372
0.0567412
0.0555826
0.0616557
0.0636589
0.0570662
0.0445334
0.0321374
0.0250271
0.023664
0.0333726
0.054661
0.069702
0.0809362
0.0900741
0.0984967
0.107338
0.117092
0.126988
0.135481
0.141998
0.145384
0.143896
0.137056
0.124261
0.101988
0.057032
0.144076
0.116944
0.131973
0.114599
0.0993977
0.0921421
0.0892679
0.0888603
0.0879797
0.087071
0.086005
0.0847564
0.0833455
0.0817697
0.0800364
0.0781882
0.0762408
0.0742096
0.07211
0.0699507
0.0677755
0.0655992
0.0635315
0.0614932
0.0583002
0.0546491
0.0517867
0.0495819
0.0478325
0.0465637
0.0459356
0.0460754
0.0469914
0.0486218
0.0509404
0.0538905
0.0575216
0.061524
0.0672762
0.0707383
0.0804346
0.152866
0.174734
0.196502
0.211268
0.204685
0.1774
0.168064
0.185615
0.179155
0.182661
0.180198
0.192282
0.213116
0.225624
0.216064
0.179299
0.139536
0.127863
0.134358
0.138243
0.140511
0.14247
0.139825
0.134509
0.128427
0.123556
0.121523
0.122498
0.124964
0.127536
0.130477
0.136924
0.149049
0.164025
0.181869
0.202161
0.233402
0.337701
0.384319
0.112305
0.11275
0.114415
0.115413
0.115412
0.11592
0.115947
0.1157
0.115219
0.114481
0.113575
0.112489
0.11122
0.109806
0.108257
0.106567
0.104743
0.102768
0.100655
0.0983817
0.0959727
0.0933597
0.0901885
0.0868317
0.0837606
0.0809385
0.0781811
0.075463
0.0727983
0.0702197
0.0678331
0.0655385
0.0634811
0.0617402
0.0605036
0.0599803
0.0597861
0.0626962
0.0588536
0.115052
0.123098
0.138474
0.166275
0.199698
0.223153
0.238951
0.277415
0.326399
0.29349
0.222855
0.21725
0.269556
0.306214
0.305469
0.264787
0.214913
0.196381
0.190994
0.185731
0.180184
0.174577
0.16573
0.154875
0.141747
0.130306
0.125889
0.131213
0.144804
0.165429
0.192277
0.223648
0.257302
0.295292
0.338757
0.386127
0.442341
0.604602
0.636522
0.123064
0.124536
0.125978
0.126754
0.127283
0.12758
0.127634
0.127508
0.127236
0.126809
0.126269
0.125612
0.124849
0.123991
0.123043
0.12199
0.120823
0.119518
0.118074
0.116473
0.114713
0.112745
0.11036
0.107718
0.105122
0.102608
0.100077
0.0975172
0.094942
0.0923714
0.0898974
0.0874279
0.0851028
0.0829856
0.0811819
0.0799339
0.0791223
0.0808422
0.0851763
0.120921
0.119036
0.119135
0.127659
0.151505
0.191945
0.238242
0.302991
0.393733
0.383095
0.262615
0.220067
0.282893
0.330013
0.328891
0.290751
0.250224
0.229287
0.221897
0.221295
0.223443
0.229509
0.224137
0.209097
0.18832
0.168412
0.160226
0.165401
0.185453
0.216139
0.254211
0.297414
0.345173
0.401259
0.468683
0.548859
0.643844
0.788834
0.80623
0.130961
0.131914
0.132702
0.133178
0.133465
0.133599
0.133574
0.133444
0.133229
0.132925
0.13255
0.13211
0.131613
0.131071
0.130478
0.129819
0.129078
0.128239
0.1273
0.126248
0.125075
0.12375
0.122148
0.120309
0.118403
0.116476
0.114483
0.112419
0.110297
0.108128
0.105983
0.103807
0.101711
0.0997666
0.0980745
0.0968665
0.0961424
0.0974205
0.102835
0.129445
0.127567
0.124533
0.121763
0.12596
0.148497
0.196506
0.274685
0.39959
0.463772
0.343064
0.227255
0.273937
0.319089
0.315886
0.292522
0.270326
0.261262
0.268721
0.28984
0.3164
0.325865
0.313904
0.289893
0.257695
0.224691
0.205109
0.206357
0.229125
0.265611
0.311099
0.36241
0.420101
0.489412
0.574492
0.676631
0.792483
0.915096
0.926247
0.135807
0.136189
0.136648
0.136921
0.137059
0.13709
0.137019
0.136879
0.13668
0.136421
0.136117
0.135777
0.135409
0.135017
0.134594
0.134125
0.133602
0.13302
0.132379
0.131669
0.130881
0.130003
0.128953
0.127721
0.126395
0.125012
0.123549
0.122006
0.12039
0.118709
0.117008
0.11526
0.113545
0.111927
0.110496
0.109447
0.108861
0.109764
0.11491
0.13513
0.134061
0.13212
0.128606
0.124586
0.127647
0.153827
0.220337
0.354087
0.494377
0.430283
0.257453
0.261643
0.307157
0.310067
0.307602
0.307904
0.31829
0.350133
0.382595
0.409797
0.421104
0.408833
0.375972
0.331059
0.282884
0.250395
0.249106
0.273641
0.314701
0.364102
0.419402
0.48218
0.55955
0.65623
0.771142
0.895205
1.00737
1.01252
0.138653
0.138861
0.139062
0.139122
0.139153
0.139128
0.139042
0.138907
0.13873
0.138512
0.138262
0.137989
0.137695
0.137382
0.137041
0.136666
0.136259
0.135825
0.135362
0.134863
0.134316
0.133719
0.133017
0.132185
0.131268
0.13029
0.129238
0.128113
0.126917
0.125658
0.124363
0.12302
0.121685
0.120407
0.119264
0.118404
0.117956
0.118539
0.122927
0.138299
0.137776
0.13678
0.134671
0.130841
0.12622
0.131414
0.169497
0.281887
0.463377
0.510883
0.326552
0.260038
0.310084
0.329232
0.348504
0.374723
0.402228
0.433113
0.462658
0.489084
0.50408
0.496356
0.458943
0.402236
0.339793
0.29741
0.292835
0.319904
0.363328
0.413568
0.468779
0.532534
0.614176
0.71894
0.843269
0.973641
1.08241
1.07453
0.140204
0.140258
0.140306
0.140305
0.140309
0.140281
0.140208
0.140094
0.139948
0.13977
0.139568
0.139345
0.139103
0.138837
0.138546
0.138232
0.137905
0.13757
0.137227
0.136867
0.136478
0.136061
0.135572
0.134993
0.134349
0.133652
0.132894
0.132072
0.131189
0.13025
0.129273
0.128253
0.12723
0.126241
0.125349
0.12466
0.124326
0.124662
0.128237
0.140073
0.139849
0.139406
0.138394
0.136195
0.131632
0.12733
0.138215
0.210923
0.38866
0.54109
0.418351
0.278221
0.32343
0.372586
0.411627
0.447544
0.476422
0.50256
0.529567
0.556842
0.575729
0.573103
0.536958
0.468498
0.393968
0.344523
0.338512
0.367482
0.411735
0.460644
0.514058
0.576821
0.659158
0.770401
0.904429
1.04268
1.15011
1.11946
0.14103
0.141052
0.141053
0.140996
0.140968
0.140942
0.140881
0.14079
0.140672
0.14053
0.140366
0.140183
0.139978
0.139751
0.139504
0.139244
0.13898
0.138719
0.138459
0.138197
0.137917
0.137618
0.137265
0.136845
0.136379
0.135873
0.135318
0.134712
0.134055
0.13335
0.132608
0.131831
0.131044
0.130279
0.129584
0.129032
0.12878
0.128942
0.13181
0.140975
0.140887
0.140717
0.140343
0.139348
0.136692
0.131417
0.127969
0.159947
0.29866
0.50559
0.515075
0.32963
0.344306
0.416049
0.46768
0.507238
0.53529
0.559338
0.586277
0.615495
0.637806
0.639053
0.603716
0.5283
0.445401
0.392772
0.388672
0.420288
0.466129
0.515994
0.569482
0.630055
0.707085
0.817774
0.962053
1.10902
1.21474
1.15288
0.141482
0.141487
0.14148
0.141416
0.141364
0.141339
0.141288
0.141214
0.14112
0.141004
0.140869
0.140715
0.140541
0.140348
0.140142
0.139928
0.139714
0.139505
0.139306
0.139114
0.138913
0.138695
0.138433
0.138118
0.137769
0.137392
0.136978
0.136524
0.136029
0.135494
0.134926
0.134327
0.133717
0.133119
0.132573
0.132126
0.131933
0.131978
0.134271
0.141456
0.141418
0.141344
0.14122
0.140905
0.139709
0.136333
0.129701
0.133854
0.219088
0.424627
0.562671
0.418735
0.359252
0.443289
0.507484
0.551388
0.580986
0.606021
0.634735
0.666552
0.691969
0.696006
0.66141
0.583745
0.496071
0.44386
0.443209
0.477965
0.525793
0.57745
0.632549
0.692539
0.764831
0.867516
1.01819
1.17357
1.27719
1.17816
0.141775
0.141767
0.141745
0.141673
0.14161
0.141586
0.141543
0.141483
0.141408
0.141313
0.1412
0.141069
0.140919
0.140753
0.140579
0.1404
0.140222
0.140052
0.139899
0.13976
0.139615
0.139456
0.139259
0.13902
0.138753
0.138463
0.138147
0.1378
0.137422
0.13701
0.136571
0.136104
0.135626
0.135153
0.134719
0.134353
0.134201
0.134173
0.136011
0.141762
0.141743
0.1417
0.141633
0.141569
0.141176
0.139555
0.134797
0.12747
0.164288
0.327542
0.538804
0.523939
0.388417
0.453425
0.53158
0.582333
0.616094
0.644337
0.676122
0.71116
0.739719
0.746114
0.712787
0.636194
0.548911
0.499874
0.503145
0.540523
0.590758
0.645913
0.70408
0.762845
0.829774
0.924779
1.07166
1.23463
1.33637
1.19816
0.141951
0.141929
0.141895
0.141829
0.141769
0.141737
0.1417
0.141652
0.141594
0.141517
0.141423
0.14131
0.141178
0.141032
0.140879
0.140724
0.140573
0.140437
0.140321
0.140219
0.140116
0.139998
0.139849
0.139668
0.139462
0.139237
0.13899
0.138719
0.138424
0.138103
0.137759
0.137392
0.137012
0.136635
0.136285
0.135982
0.135862
0.135789
0.137266
0.141951
0.141945
0.141927
0.141882
0.141858
0.141802
0.141175
0.138875
0.130836
0.136047
0.240123
0.462158
0.584836
0.460033
0.455695
0.541904
0.602296
0.642319
0.675365
0.711311
0.750311
0.782402
0.791397
0.760482
0.688239
0.606886
0.562987
0.569749
0.609175
0.662881
0.723037
0.783269
0.838458
0.898776
0.982718
1.12034
1.2898
1.39097
1.21378
0.142049
0.142017
0.141977
0.14192
0.141868
0.14183
0.141795
0.141758
0.141712
0.141649
0.141569
0.141472
0.141356
0.141225
0.141086
0.140947
0.140819
0.140712
0.140624
0.14055
0.140475
0.140387
0.140274
0.140136
0.139979
0.139804
0.139608
0.139393
0.139159
0.138904
0.13863
0.138337
0.138033
0.137728
0.137443
0.13719
0.137093
0.136994
0.138186
0.142056
0.142058
0.142059
0.142043
0.142021
0.142056
0.141881
0.141063
0.136225
0.128318
0.177573
0.362332
0.573855
0.559466
0.47207
0.541569
0.612648
0.660654
0.699804
0.74099
0.784851
0.821197
0.833628
0.806747
0.741635
0.669282
0.629685
0.635347
0.673722
0.730193
0.79556
0.860337
0.91692
0.970386
1.03943
1.16205
1.33674
1.43967
1.22499
0.142089
0.142062
0.142021
0.141966
0.141923
0.141892
0.141855
0.141823
0.141782
0.141728
0.141661
0.141578
0.141477
0.141358
0.14123
0.141105
0.140998
0.140914
0.140847
0.140794
0.140738
0.14067
0.140582
0.140477
0.140357
0.140221
0.140066
0.139893
0.139703
0.139497
0.139276
0.139039
0.138792
0.138543
0.138309
0.138096
0.138012
0.137902
0.138872
0.142099
0.14211
0.142125
0.142137
0.142134
0.142172
0.142175
0.141954
0.140075
0.131056
0.142869
0.267042
0.502944
0.6248
0.533943
0.53948
0.614462
0.671612
0.718064
0.765641
0.815447
0.857091
0.87424
0.853079
0.796233
0.731411
0.692774
0.694727
0.731805
0.792345
0.863613
0.931547
0.987256
1.03668
1.09584
1.19857
1.37401
1.48171
1.23322
0.142102
0.142079
0.142038
0.141982
0.141948
0.141927
0.141885
0.141852
0.141815
0.141771
0.141717
0.141647
0.141558
0.141449
0.141332
0.141222
0.141131
0.141064
0.141016
0.14098
0.140935
0.14088
0.14081
0.140728
0.140636
0.140529
0.140406
0.140266
0.140111
0.139942
0.13976
0.139566
0.139363
0.139157
0.138963
0.138783
0.138702
0.138594
0.139396
0.142113
0.14213
0.142156
0.142184
0.142207
0.142243
0.142307
0.142262
0.14191
0.136354
0.130752
0.19489
0.400042
0.620054
0.627691
0.558147
0.610601
0.675525
0.730252
0.785473
0.842531
0.890829
0.914239
0.90021
0.851519
0.791781
0.751592
0.749718
0.788194
0.856517
0.936196
1.00768
1.06074
1.103
1.15414
1.23714
1.4031
1.51781
1.2423
0.142092
0.142071
0.142031
0.141979
0.141951
0.141935
0.141887
0.141856
0.141828
0.141795
0.14175
0.14169
0.141611
0.141512
0.141405
0.141309
0.141232
0.14118
0.141146
0.141123
0.141087
0.14104
0.140983
0.140917
0.140843
0.140759
0.14066
0.140546
0.140418
0.140277
0.140125
0.139964
0.139795
0.139623
0.139459
0.139306
0.139226
0.139136
0.139813
0.142104
0.142125
0.142158
0.142197
0.142241
0.142287
0.142371
0.142384
0.142487
0.140325
0.131401
0.152063
0.295698
0.548448
0.690377
0.62627
0.611932
0.67343
0.736263
0.80032
0.866212
0.922849
0.954208
0.948364
0.907136
0.850479
0.80815
0.80526
0.850836
0.933316
1.02678
1.10563
1.15689
1.18782
1.22181
1.28438
1.42953
1.55028
1.25413
0.142066
0.142046
0.14201
0.141964
0.141939
0.141924
0.141874
0.14185
0.141833
0.141809
0.14177
0.141716
0.141644
0.141554
0.141458
0.141375
0.141311
0.141271
0.141249
0.141234
0.141204
0.141164
0.141115
0.141061
0.141001
0.140932
0.140851
0.140758
0.140651
0.140533
0.140404
0.140268
0.140125
0.139979
0.13984
0.139709
0.139626
0.139583
0.140158
0.142079
0.142101
0.142136
0.142182
0.142239
0.142302
0.142394
0.142452
0.14257
0.142251
0.13613
0.134461
0.213085
0.437119
0.679627
0.720445
0.644256
0.669816
0.736173
0.809599
0.886096
0.953138
0.994302
0.997554
0.963174
0.908889
0.866448
0.868735
0.930595
1.0373
1.15453
1.24959
1.30326
1.31892
1.32544
1.35568
1.46357
1.58296
1.27064
0.142033
0.142016
0.141986
0.141942
0.141917
0.141901
0.141857
0.141843
0.141833
0.141813
0.141779
0.141731
0.141665
0.141583
0.141499
0.141426
0.141373
0.141345
0.141332
0.141319
0.141294
0.141259
0.141218
0.141173
0.141123
0.141066
0.140998
0.14092
0.14083
0.140729
0.140619
0.140502
0.14038
0.140255
0.140134
0.140022
0.139935
0.139963
0.140442
0.142046
0.142068
0.142105
0.142154
0.142218
0.142294
0.142389
0.142485
0.142556
0.142813
0.140187
0.132363
0.161913
0.320924
0.595672
0.773621
0.727439
0.678877
0.731535
0.812709
0.901235
0.981092
1.03424
1.0477
1.02033
0.969705
0.932329
0.949649
1.04061
1.18544
1.34063
1.46437
1.52719
1.52536
1.49269
1.46738
1.51921
1.62081
1.29453
0.141996
0.141983
0.141961
0.141919
0.141891
0.141876
0.141843
0.141835
0.141825
0.141807
0.141779
0.141739
0.14168
0.141605
0.14153
0.141467
0.141424
0.141406
0.141398
0.141385
0.141363
0.141332
0.141298
0.14126
0.141217
0.141169
0.141112
0.141045
0.140968
0.140882
0.140787
0.140685
0.14058
0.140472
0.140367
0.140272
0.140181
0.140261
0.140661
0.142009
0.142034
0.142072
0.142122
0.142187
0.14227
0.142367
0.142483
0.142552
0.142813
0.142309
0.136127
0.138957
0.227688
0.468676
0.745711
0.821345
0.727591
0.729169
0.810174
0.910797
1.00547
1.07316
1.09865
1.07983
1.03661
1.01272
1.05804
1.19312
1.39107
1.59834
1.76248
1.84184
1.82391
1.74465
1.64446
1.60973
1.66936
1.32989
0.141959
0.141948
0.141933
0.141893
0.141863
0.141854
0.141831
0.141824
0.141811
0.141796
0.141774
0.141741
0.14169
0.141621
0.141554
0.141499
0.141466
0.141454
0.141449
0.141436
0.141415
0.141388
0.141359
0.141326
0.14129
0.14125
0.141201
0.141143
0.141076
0.141001
0.14092
0.140832
0.140741
0.140649
0.140557
0.140478
0.140388
0.140491
0.140834
0.141975
0.142002
0.14204
0.142089
0.142151
0.142234
0.142333
0.142452
0.142548
0.142706
0.142974
0.140037
0.134114
0.169482
0.338249
0.641726
0.862379
0.823011
0.746095
0.807146
0.916232
1.02537
1.10968
1.14986
1.14304
1.11363
1.11414
1.20131
1.3938
1.65578
1.92369
2.13501
2.23746
2.20948
2.08425
1.89695
1.75024
1.73468
1.38207
0.141929
0.141917
0.141904
0.141867
0.14184
0.141835
0.141817
0.141808
0.141794
0.141782
0.141766
0.14174
0.141695
0.141632
0.141571
0.141524
0.141499
0.141492
0.141485
0.141474
0.141455
0.141431
0.141405
0.141377
0.141346
0.141311
0.141269
0.141219
0.141161
0.141097
0.141028
0.140954
0.140877
0.140797
0.140717
0.140655
0.140574
0.140695
0.141003
0.141951
0.141979
0.142017
0.142064
0.14212
0.142197
0.142292
0.142404
0.142522
0.142628
0.142975
0.142249
0.136684
0.14274
0.235411
0.495186
0.819301
0.923498
0.810966
0.821493
0.926913
1.04338
1.14283
1.19993
1.21069
1.20378
1.2403
1.38069
1.63828
1.96792
2.29813
2.55886
2.68971
2.66042
2.49715
2.22279
1.95021
1.82252
1.45637
0.141915
0.141899
0.141885
0.141849
0.141822
0.141818
0.141801
0.141789
0.141777
0.141769
0.141757
0.141736
0.141697
0.141639
0.141583
0.141543
0.141526
0.141522
0.141513
0.141503
0.141485
0.141463
0.141439
0.141414
0.141387
0.141357
0.14132
0.141278
0.14123
0.141177
0.14112
0.141057
0.14099
0.140923
0.140859
0.140819
0.140765
0.140912
0.141197
0.14194
0.14197
0.14201
0.142055
0.142106
0.142172
0.142256
0.142354
0.142472
0.142575
0.142816
0.143003
0.140147
0.136094
0.172676
0.348936
0.695375
0.975124
0.938293
0.886272
0.969721
1.07208
1.17492
1.24725
1.28158
1.30734
1.39015
1.58993
1.91302
2.30732
2.69701
3.00707
3.17058
3.14884
2.95942
2.60777
2.19974
1.93686
1.55572
0.141919
0.141897
0.141879
0.141842
0.141809
0.141798
0.141783
0.141772
0.141764
0.141759
0.141749
0.141731
0.141695
0.141642
0.141592
0.14156
0.14155
0.141546
0.141538
0.141527
0.14151
0.141489
0.141467
0.141443
0.141419
0.141392
0.141361
0.141326
0.141287
0.141243
0.141193
0.141139
0.141085
0.141038
0.141001
0.141
0.14099
0.141157
0.141406
0.141948
0.141981
0.142023
0.142068
0.142113
0.142168
0.142237
0.142315
0.142414
0.142521
0.142677
0.143034
0.142227
0.137725
0.144595
0.237193
0.522994
0.929445
1.09782
1.02001
1.07015
1.14117
1.21922
1.29434
1.3527
1.42007
1.55683
1.81668
2.19991
2.65212
3.09685
3.45571
3.65531
3.64855
3.44538
3.03313
2.49642
2.07942
1.67902
0.141941
0.14191
0.141885
0.141843
0.141798
0.141779
0.14177
0.141763
0.141757
0.141753
0.141741
0.141723
0.14169
0.141643
0.141601
0.141576
0.141572
0.141569
0.14156
0.141548
0.141531
0.141511
0.141489
0.141467
0.141445
0.141421
0.141396
0.141367
0.141333
0.141294
0.141253
0.141214
0.141185
0.141173
0.141179
0.141223
0.141245
0.141401
0.141589
0.141974
0.142012
0.142057
0.142103
0.142143
0.142186
0.142238
0.142294
0.142364
0.14246
0.142578
0.142858
0.142962
0.140623
0.13757
0.17217
0.354679
0.768469
1.18698
1.25518
1.25446
1.2809
1.30807
1.35784
1.42499
1.53404
1.72795
2.04494
2.48015
2.9822
3.47731
3.88423
4.1225
4.13641
3.93055
3.47711
2.82997
2.25006
1.82037
0.14198
0.14194
0.141904
0.141852
0.141797
0.141774
0.141765
0.14176
0.141755
0.141749
0.141735
0.141713
0.141683
0.141644
0.141609
0.141591
0.141591
0.141588
0.14158
0.141566
0.141549
0.14153
0.141509
0.141488
0.141467
0.141446
0.141424
0.141399
0.141369
0.141339
0.141315
0.141306
0.141314
0.141341
0.141381
0.141446
0.141477
0.141591
0.141712
0.14202
0.142063
0.142112
0.142158
0.142193
0.142225
0.14226
0.142293
0.142332
0.142401
0.142497
0.142682
0.142997
0.14237
0.138792
0.144862
0.233455
0.5446
1.08509
1.48106
1.53693
1.52331
1.49198
1.4779
1.51655
1.64569
1.88881
2.25732
2.73653
3.28065
3.82156
4.27581
4.5546
4.5932
4.3931
3.9175
3.18608
2.44398
1.97079
0.142039
0.141988
0.14194
0.141875
0.14181
0.141779
0.141766
0.141757
0.141751
0.141745
0.141729
0.141704
0.141676
0.141644
0.141616
0.141604
0.141606
0.141603
0.141594
0.14158
0.141563
0.141544
0.141524
0.141504
0.141486
0.141467
0.141448
0.141425
0.141402
0.141391
0.141398
0.141422
0.141454
0.141488
0.141527
0.141576
0.141622
0.141705
0.141777
0.142086
0.142135
0.142187
0.142234
0.142265
0.142288
0.142307
0.142318
0.142324
0.142355
0.142423
0.142547
0.142815
0.142943
0.141185
0.138572
0.168815
0.34603
0.81167
1.45234
1.83391
1.87679
1.80504
1.70838
1.67277
1.77214
2.03248
2.4381
2.9536
3.53333
4.11555
4.61598
4.93658
5.00286
4.8141
4.33262
3.54661
2.66128
2.12084
0.142115
0.142055
0.141994
0.141916
0.141836
0.141793
0.141771
0.141755
0.141747
0.14174
0.141722
0.141695
0.141668
0.14164
0.141618
0.141611
0.141614
0.14161
0.141601
0.141587
0.141571
0.141553
0.141534
0.141516
0.141499
0.141483
0.141465
0.141447
0.141443
0.14146
0.141487
0.141514
0.14154
0.141569
0.141604
0.14165
0.141694
0.141768
0.141811
0.142171
0.142224
0.142281
0.14233
0.14236
0.142376
0.142381
0.142371
0.142346
0.142335
0.142363
0.142442
0.142623
0.142913
0.142531
0.139704
0.144393
0.221051
0.515805
1.12672
1.82797
2.20065
2.21164
2.07631
1.95024
1.96185
2.17743
2.58298
3.12004
3.7289
4.34806
4.89316
5.25683
5.35294
5.17828
4.70278
3.89457
2.90785
2.26381
0.142208
0.14214
0.142067
0.141972
0.141875
0.141817
0.141782
0.14176
0.141746
0.141735
0.141717
0.141687
0.141657
0.141631
0.141615
0.141612
0.141614
0.14161
0.141601
0.141589
0.141574
0.141558
0.141541
0.141525
0.14151
0.141495
0.141481
0.141477
0.141497
0.141523
0.141547
0.141569
0.141593
0.141623
0.141661
0.141708
0.141749
0.141815
0.141824
0.142269
0.142327
0.142388
0.142441
0.142473
0.142483
0.14248
0.142453
0.1424
0.142347
0.142329
0.142365
0.142473
0.142709
0.142882
0.141617
0.139518
0.16309
0.307364
0.721566
1.42938
2.15229
2.52722
2.51653
2.36295
2.27088
2.37606
2.71527
3.23671
3.86047
4.51057
5.0981
5.50644
5.63434
5.47428
5.01152
4.20841
3.15871
2.39654
0.142314
0.142239
0.142152
0.142041
0.141928
0.141853
0.141802
0.141772
0.141749
0.141734
0.141711
0.141677
0.141642
0.141616
0.141609
0.141608
0.141609
0.141607
0.1416
0.141589
0.141576
0.141563
0.141548
0.141534
0.141521
0.141508
0.141503
0.141519
0.141544
0.141568
0.141589
0.14161
0.141636
0.141669
0.141708
0.141751
0.141785
0.141843
0.141812
0.142379
0.142439
0.142502
0.142559
0.142594
0.142604
0.142594
0.142557
0.142482
0.142394
0.142329
0.142318
0.142373
0.142522
0.142783
0.142573
0.140561
0.144
0.199002
0.417332
0.917696
1.66156
2.38548
2.78469
2.80086
2.69462
2.68259
2.89153
3.33186
3.93339
4.59977
5.22487
5.67907
5.84156
5.69524
5.24688
4.46924
3.40385
2.52157
0.142425
0.142345
0.142247
0.142121
0.141995
0.1419
0.14183
0.141783
0.14175
0.141733
0.141704
0.141664
0.141622
0.141598
0.141603
0.141606
0.141607
0.141607
0.141603
0.141595
0.141585
0.141574
0.141562
0.14155
0.141538
0.141528
0.141537
0.141559
0.141582
0.141604
0.141624
0.141647
0.141675
0.141707
0.141743
0.141778
0.141803
0.141855
0.141785
0.142492
0.142553
0.142618
0.142679
0.142715
0.142726
0.142714
0.142672
0.142587
0.142473
0.142368
0.142314
0.142319
0.1424
0.1426
0.142768
0.141959
0.140738
0.15609
0.24885
0.525535
1.06314
1.8001
2.51273
2.95542
3.0686
3.06557
3.15787
3.46197
3.9782
4.6232
5.27189
5.77109
5.97243
5.83889
5.40229
4.66125
3.62761
2.64512
0.142535
0.142454
0.142349
0.142212
0.142077
0.14196
0.141864
0.141798
0.141752
0.141729
0.141698
0.14165
0.141604
0.14159
0.141606
0.141613
0.141615
0.141617
0.141615
0.14161
0.141602
0.141593
0.141583
0.141572
0.141562
0.141559
0.141574
0.141595
0.141616
0.141635
0.141655
0.141678
0.141705
0.141734
0.141763
0.14179
0.141808
0.141852
0.141776
0.142601
0.142662
0.142728
0.142788
0.142827
0.14284
0.14283
0.142788
0.142698
0.142571
0.142444
0.14236
0.142329
0.142363
0.142487
0.142701
0.142613
0.141524
0.14381
0.175439
0.301093
0.608371
1.14533
1.84515
2.52533
3.0185
3.28696
3.4357
3.65213
4.04487
4.61023
5.24665
5.78217
6.02801
5.90751
5.47709
4.77337
3.80997
2.78181
0.142642
0.142568
0.142463
0.14232
0.142173
0.142033
0.141903
0.141818
0.141757
0.141725
0.141692
0.141638
0.141601
0.141608
0.141625
0.141635
0.141635
0.141637
0.141636
0.141633
0.141628
0.141621
0.141612
0.141602
0.141593
0.141597
0.14161
0.141627
0.141645
0.141663
0.141681
0.141703
0.141726
0.141749
0.14177
0.141791
0.141806
0.141841
0.141794
0.142704
0.14276
0.142822
0.14288
0.142921
0.14294
0.142936
0.142897
0.142808
0.142677
0.142546
0.142449
0.142404
0.142415
0.142495
0.142665
0.142818
0.142455
0.142037
0.150232
0.19773
0.344088
0.658678
1.16632
1.79485
2.42245
2.96214
3.3942
3.73994
4.11477
4.59609
5.17348
5.7164
6.00951
5.90782
5.47596
4.80079
3.9321
2.94548
0.142754
0.142697
0.142598
0.142452
0.142292
0.142119
0.141951
0.141842
0.141766
0.141722
0.141684
0.14163
0.141621
0.141663
0.141663
0.141669
0.141666
0.141666
0.141665
0.141663
0.141661
0.141657
0.14165
0.141641
0.141632
0.141634
0.141643
0.141656
0.14167
0.141684
0.1417
0.141718
0.141735
0.141752
0.141768
0.141785
0.141799
0.141828
0.141813
0.142802
0.142849
0.142902
0.142954
0.142996
0.14302
0.143024
0.142992
0.142909
0.142788
0.14267
0.142582
0.142534
0.142534
0.14259
0.142717
0.142903
0.142943
0.142576
0.143905
0.158679
0.21791
0.373834
0.676406
1.12316
1.65937
2.22582
2.78884
3.34298
3.91878
4.48392
5.05895
5.58872
5.91674
5.84669
5.4096
4.74545
3.97279
3.09861
0.142875
0.14284
0.142751
0.142605
0.14243
0.142225
0.14202
0.141872
0.141779
0.141718
0.141672
0.141626
0.141658
0.14173
0.141712
0.141707
0.141704
0.141702
0.141701
0.141701
0.1417
0.141699
0.141693
0.141682
0.141671
0.141667
0.141671
0.141678
0.141688
0.141698
0.14171
0.141723
0.141735
0.141747
0.14176
0.141774
0.141789
0.141815
0.141809
0.142903
0.142933
0.142971
0.143013
0.14305
0.143076
0.143087
0.143065
0.142995
0.142894
0.142802
0.14273
0.142691
0.142693
0.142741
0.142842
0.143006
0.143172
0.143144
0.143167
0.146824
0.167224
0.233959
0.389102
0.656382
1.02503
1.46942
1.96817
2.51932
3.15368
3.89306
4.69295
5.35519
5.75224
5.72499
5.28844
4.61781
3.91997
3.209
0.142987
0.142971
0.142894
0.142757
0.142578
0.142355
0.142119
0.141919
0.141795
0.141715
0.14166
0.141625
0.141687
0.141773
0.141752
0.141742
0.141739
0.141737
0.141735
0.141734
0.141733
0.14173
0.141724
0.141711
0.141698
0.14169
0.141688
0.141691
0.141696
0.141703
0.14171
0.141718
0.141726
0.141736
0.141747
0.141761
0.141777
0.141801
0.141799
0.142992
0.143
0.143018
0.143046
0.143077
0.143103
0.143121
0.143107
0.143054
0.142987
0.142924
0.142876
0.142854
0.142867
0.142918
0.143011
0.143154
0.143337
0.143476
0.143494
0.144206
0.150158
0.174981
0.244777
0.384676
0.603347
0.896876
1.25683
1.68256
2.19739
2.8477
3.69291
4.66275
5.38678
5.53955
5.10718
4.42851
3.77521
3.23413
0.14306
0.143057
0.142998
0.142885
0.142721
0.142499
0.142238
0.14199
0.141814
0.141714
0.141651
0.141626
0.141705
0.141782
0.141773
0.141766
0.141763
0.14176
0.141757
0.141753
0.141748
0.141742
0.141733
0.141721
0.141707
0.141697
0.141692
0.141692
0.141693
0.141697
0.141701
0.141706
0.141712
0.141721
0.141732
0.141746
0.141761
0.141784
0.141786
0.143044
0.143029
0.143028
0.14304
0.143066
0.143093
0.143116
0.143113
0.143076
0.143047
0.14302
0.143003
0.143005
0.143037
0.1431
0.143196
0.143331
0.143508
0.143695
0.143825
0.144005
0.145519
0.153577
0.181351
0.24652
0.361857
0.533251
0.761148
1.04603
1.40034
1.85585
2.47538
3.34161
4.35995
5.08628
4.85
4.17467
3.54464
3.14296
0.143077
0.143092
0.143062
0.142982
0.142845
0.142637
0.14237
0.142089
0.141851
0.141718
0.141649
0.141634
0.141717
0.141776
0.141775
0.141774
0.141772
0.141767
0.141761
0.141754
0.141745
0.141735
0.141724
0.141712
0.1417
0.14169
0.141684
0.141681
0.141681
0.141682
0.141685
0.141689
0.141695
0.141703
0.141715
0.141728
0.141743
0.141764
0.141769
0.143043
0.143009
0.142989
0.142986
0.143006
0.143034
0.143065
0.143072
0.143067
0.143071
0.14308
0.143097
0.143129
0.143184
0.143266
0.143373
0.14351
0.143683
0.143882
0.144067
0.144218
0.144642
0.147004
0.156852
0.184078
0.238909
0.329306
0.459818
0.632596
0.853621
1.14018
1.5234
2.06885
2.86066
3.78917
4.28609
3.85163
3.23538
2.92272
0.143049
0.143091
0.143097
0.143052
0.142943
0.142757
0.142497
0.142199
0.141915
0.141728
0.14165
0.141643
0.141728
0.141769
0.141771
0.141772
0.141769
0.141763
0.141754
0.141743
0.141732
0.14172
0.141708
0.141696
0.141685
0.141675
0.141668
0.141665
0.141663
0.141664
0.141666
0.14167
0.141676
0.141684
0.141695
0.141707
0.141723
0.141741
0.14175
0.142994
0.142941
0.142903
0.142884
0.142894
0.142924
0.142963
0.142985
0.14301
0.143049
0.143095
0.143148
0.143212
0.143295
0.1434
0.143525
0.143671
0.143845
0.144049
0.14426
0.144437
0.144648
0.145387
0.148611
0.158871
0.182495
0.226026
0.29463
0.391313
0.519256
0.687965
0.912563
1.21391
1.64898
2.27783
2.953
3.20749
2.85316
2.59158
0.142986
0.143061
0.143105
0.143097
0.143019
0.142859
0.142613
0.142311
0.142
0.141753
0.14165
0.141643
0.141734
0.141767
0.141768
0.141768
0.141763
0.141755
0.141744
0.141731
0.141718
0.141705
0.141692
0.141679
0.141667
0.141657
0.14165
0.141646
0.141644
0.141644
0.141646
0.14165
0.141655
0.141663
0.141673
0.141685
0.1417
0.141717
0.141727
0.142907
0.142833
0.142775
0.14274
0.14274
0.142768
0.142813
0.14285
0.142904
0.142976
0.143059
0.143148
0.143245
0.143358
0.143488
0.143635
0.143797
0.143976
0.144183
0.144413
0.144621
0.144795
0.145126
0.146259
0.149858
0.159066
0.178279
0.211778
0.262303
0.331465
0.424502
0.552033
0.719639
0.935127
1.23731
1.64346
2.03516
2.19954
2.16044
0.14289
0.142999
0.143082
0.143113
0.143073
0.142944
0.142719
0.14242
0.14209
0.141802
0.141645
0.141631
0.141734
0.141767
0.141768
0.141765
0.141758
0.141747
0.141734
0.141719
0.141704
0.14169
0.141675
0.141662
0.141649
0.141638
0.141631
0.141625
0.141623
0.141623
0.141624
0.141627
0.141633
0.141639
0.141649
0.14166
0.141674
0.141689
0.141701
0.142783
0.142688
0.142612
0.142561
0.142549
0.142575
0.142622
0.142666
0.142748
0.142852
0.14297
0.143094
0.143224
0.143366
0.143522
0.143692
0.143874
0.144065
0.144273
0.144512
0.144757
0.144947
0.145155
0.1457
0.147075
0.150357
0.158006
0.173323
0.198564
0.233986
0.281412
0.349187
0.444394
0.560828
0.695817
0.867258
1.07732
1.28435
1.49623
0.14276
0.142903
0.143025
0.143101
0.143102
0.143012
0.142813
0.142523
0.142183
0.141864
0.141648
0.141617
0.14173
0.141766
0.141767
0.141762
0.141752
0.141738
0.141722
0.141705
0.141689
0.141672
0.141657
0.141642
0.141629
0.141618
0.141609
0.141604
0.1416
0.141599
0.1416
0.141603
0.141608
0.141614
0.141622
0.141632
0.141646
0.141659
0.141672
0.142626
0.142512
0.142419
0.142352
0.142328
0.14235
0.142397
0.142456
0.142554
0.142683
0.14283
0.142986
0.143147
0.143317
0.143497
0.143689
0.143892
0.144101
0.144316
0.144553
0.144823
0.145063
0.145238
0.145573
0.146329
0.147585
0.150205
0.15656
0.168963
0.187151
0.209819
0.241424
0.291926
0.361608
0.436137
0.507451
0.586
0.681577
0.828926
0.142597
0.142773
0.142937
0.143058
0.143106
0.143059
0.142894
0.14262
0.142274
0.141929
0.141677
0.141614
0.141727
0.141764
0.141764
0.141757
0.141744
0.141728
0.141709
0.14169
0.141671
0.141653
0.141636
0.141621
0.141607
0.141595
0.141586
0.14158
0.141576
0.141574
0.141575
0.141577
0.14158
0.141586
0.141593
0.141602
0.141615
0.141626
0.14164
0.142439
0.142308
0.142201
0.142121
0.142086
0.142103
0.142146
0.142216
0.142329
0.142477
0.142648
0.14283
0.143017
0.143212
0.143414
0.143625
0.143847
0.144075
0.144305
0.144542
0.144813
0.145103
0.145316
0.145539
0.146082
0.146868
0.147701
0.149758
0.155521
0.16565
0.177316
0.189794
0.210962
0.24954
0.299852
0.345345
0.380537
0.41434
0.479317
0.142406
0.142612
0.142818
0.142986
0.143082
0.143084
0.14296
0.142709
0.142363
0.141999
0.141721
0.141626
0.141724
0.141761
0.14176
0.14175
0.141734
0.141715
0.141693
0.141671
0.141651
0.141631
0.141614
0.141598
0.141583
0.141571
0.141562
0.141555
0.14155
0.141548
0.141548
0.141549
0.141552
0.141556
0.141563
0.14157
0.141581
0.141591
0.141604
0.142228
0.142085
0.141967
0.141877
0.141835
0.141845
0.14188
0.141956
0.142081
0.142244
0.142432
0.142633
0.142842
0.143057
0.143277
0.143504
0.14374
0.143983
0.144231
0.144477