/*--------------------------------*- C++ -*----------------------------------*\
  =========                 |
  \\      /  F ield         | OpenFOAM: The Open Source CFD Toolbox
   \\    /   O peration     | Website:  https://openfoam.org
    \\  /    A nd           | Version:  9
     \\/     M anipulation  |
\*---------------------------------------------------------------------------*/
FoamFile
{
    format      ascii;
    class       volScalarField;
    location    "0.3";
    object      p;
}
// * * * * * * * * * * * * * * * * * * * * * * * * * * * * * * * * * * * * * //

dimensions      [0 2 -2 0 0 0 0];

internalField   nonuniform List<scalar> 
6400
(
-1.15601e-08
-0.000363565
-0.00118589
-0.00226606
-0.00340728
-0.00446918
-0.00535285
-0.00599122
-0.00634185
-0.00638077
-0.0060977
-0.00549277
-0.00457427
-0.00335707
-0.00186171
-0.000113874
0.00185586
0.00401208
0.00631464
0.00871893
0.0111763
0.0136344
0.0160383
0.0183314
0.0204571
0.022361
0.0239929
0.0253092
0.0262753
0.0268678
0.0270769
0.0269089
0.0263886
0.025561
0.0244941
0.0232814
0.0220441
0.0209363
0.020153
0.0198647
0.000364242
6.64581e-07
-0.000653739
-0.00147827
-0.00234598
-0.00315387
-0.00382364
-0.00429847
-0.00453954
-0.00452271
-0.00423568
-0.00367548
-0.00284677
-0.00176063
-0.000433683
0.00111248
0.00285155
0.00475259
0.00678041
0.00889589
0.0110563
0.013216
0.015327
0.0173402
0.0192071
0.0208812
0.0223201
0.0234877
0.0243561
0.0249073
0.0251356
0.0250493
0.0246721
0.0240451
0.023227
0.0222951
0.0213448
0.0204892
0.019861
0.0195766
0.00119802
0.000655285
-9.9528e-06
-0.000755225
-0.00151019
-0.0021971
-0.00275554
-0.00314041
-0.00331953
-0.003272
-0.00298646
-0.00245939
-0.00169401
-0.000699245
0.00051091
0.00191782
0.00349836
0.00522512
0.00706667
0.00898791
0.0109504
0.012913
0.0148324
0.0166644
0.0183651
0.0198927
0.0212094
0.0222831
0.0230891
0.0236118
0.0238469
0.0238023
0.0234997
0.0229751
0.0222788
0.021475
0.0206406
0.0198642
0.0192307
0.0187971
0.00231789
0.00149153
0.000713349
-5.23715e-05
-0.000786373
-0.00142948
-0.00193728
-0.00227684
-0.002424
-0.00236284
-0.00208456
-0.00158665
-0.000872066
5.14433e-05
0.00117178
0.00247261
0.00393348
0.00552995
0.00723374
0.00901301
0.0108327
0.0126549
0.0144398
0.0161462
0.0177333
0.0191621
0.0203971
0.0214082
0.0221719
0.0226733
0.0229074
0.0228808
0.022612
0.0221316
0.0214825
0.0207172
0.0198986
0.0190994
0.0183615
0.0176777
0.00354205
0.00239017
0.00145084
0.000614318
-0.000147013
-0.000788833
-0.00128075
-0.00160178
-0.00173596
-0.00167284
-0.00140701
-0.000937654
-0.000268071
0.000594702
0.00163998
0.0028534
0.00421688
0.00570866
0.00730324
0.0089716
0.0106815
0.0123976
0.0140827
0.0156978
0.017204
0.0185639
0.0197431
0.020712
0.0214471
0.0219329
0.022163
0.0221415
0.0218833
0.0214141
0.0207693
0.0199918
0.0191331
0.0182548
0.0173597
0.0163772
0.00473966
0.00325082
0.0021238
0.00118257
0.000358777
-0.000314394
-0.000818603
-0.0011435
-0.00128097
-0.00122606
-0.000977031
-0.000535113
9.56949e-05
0.00090865
0.00189412
0.00303939
0.00432847
0.00574192
0.00725664
0.00884592
0.0104797
0.012125
0.0137457
0.0153046
0.0167635
0.0180854
0.0192359
0.0201848
0.0209072
0.021386
0.0216125
0.0215877
0.0213228
0.0208384
0.0201637
0.0193338
0.018392
0.0173932
0.0163075
0.0150083
0.00581252
0.00399057
0.00266361
0.00159716
0.000687632
-3.9854e-05
-0.000576975
-0.000922649
-0.0010759
-0.00103699
-0.000807779
-0.000391591
0.000206677
0.00098032
0.00192051
0.00301598
0.00425256
0.00561282
0.00707566
0.00861634
0.0102066
0.0118145
0.0134054
0.0149422
0.0163869
0.017702
0.0188517
0.0198039
0.0205318
0.0210154
0.021243
0.021212
0.0209294
0.0204114
0.0196819
0.0187702
0.0177139
0.0165654
0.015268
0.0136464
0.00668411
0.00453943
0.00300931
0.001807
0.000798064
1.65225e-06
-0.000582027
-0.000960019
-0.00113765
-0.00111992
-0.000911976
-0.000519125
5.27729e-05
0.000796966
0.00170537
0.00276802
0.00397237
0.00530273
0.00673976
0.00826033
0.00983747
0.0114402
0.0130342
0.0145821
0.0160453
0.0173845
0.0185621
0.019543
0.0202973
0.0208013
0.0210393
0.0210048
0.0207005
0.0201382
0.0193378
0.0183239
0.0171315
0.0158131
0.0142901
0.0123442
0.00729233
0.00483706
0.00310546
0.00176289
0.000647355
-0.000226401
-0.000864994
-0.00128254
-0.00148987
-0.00149613
-0.00130937
-0.000936744
-0.000384952
0.000339307
0.00122871
0.00227449
0.0034656
0.00478796
0.00622383
0.00775145
0.00934479
0.0109734
0.0126027
0.0141949
0.0157096
0.0171054
0.0183414
0.0193791
0.0201841
0.0207283
0.0209913
0.0209619
0.0206381
0.0200278
0.0191473
0.0180183
0.0166743
0.0151711
0.0134115
0.011138
0.00758408
0.00482991
0.00290088
0.00141759
0.000192707
-0.000762385
-0.00146027
-0.00192119
-0.00216077
-0.00219178
-0.00202484
-0.00166866
-0.00113054
-0.00041695
0.000465575
0.00150949
0.00270523
0.0040403
0.00549848
0.00705919
0.00869715
0.0103821
0.0120792
0.0137492
0.0153497
0.0168363
0.0181641
0.0192899
0.0201743
0.0207836
0.0210917
0.0210818
0.0207472
0.0200915
0.0191281
0.0178762
0.01637
0.0146702
0.0126631
0.0100538
0.00751149
0.00446882
0.00234748
0.000725429
-0.000608537
-0.00164587
-0.00240439
-0.00290978
-0.00318195
-0.00323683
-0.00308727
-0.00274319
-0.00221218
-0.00150033
-0.000613253
0.000442834
0.00165995
0.00302728
0.00453007
0.0061489
0.0078592
0.00963086
0.0114282
0.0132106
0.0149329
0.0165468
0.018003
0.0192527
0.0202502
0.0209551
0.0213345
0.0213652
0.0210349
0.0203428
0.0192991
0.0179215
0.0162456
0.0143389
0.0120722
0.00911284
0.0070295
0.00370735
0.0013992
-0.000358247
-0.0017991
-0.00291736
-0.00373556
-0.00428445
-0.00458781
-0.00466443
-0.00452897
-0.0041922
-0.00366177
-0.00294318
-0.00204093
-0.000959655
0.000294424
0.00171228
0.00328076
0.00498174
0.00679145
0.00867989
0.0106106
0.012541
0.014423
0.0162041
0.0178293
0.0192435
0.0203935
0.0212309
0.0217147
0.0218143
0.0215105
0.0207973
0.0196817
0.0181798
0.0163297
0.0142065
0.0116657
0.00833527
0.0060945
0.00250058
1.10917e-05
-0.00187757
-0.00342183
-0.00461803
-0.00549328
-0.00608315
-0.00641503
-0.00651024
-0.00638491
-0.00605041
-0.00551423
-0.00478104
-0.00385386
-0.00273555
-0.00143028
5.49317e-05
0.00170885
0.00351491
0.00545039
0.00748556
0.0095832
0.0116987
0.0137807
0.0157719
0.0176113
0.0192362
0.0205846
0.0215987
0.0222281
0.0224326
0.0221853
0.0214737
0.0203006
0.0186805
0.016654
0.0143054
0.0114734
0.00774389
0.00466327
0.000804186
-0.00186137
-0.00387656
-0.00551978
-0.00678975
-0.00771816
-0.00834525
-0.00870187
-0.00881159
-0.00869188
-0.00835454
-0.00780661
-0.00705157
-0.00609075
-0.00492486
-0.00355574
-0.00198795
-0.000230414
0.00170235
0.00378904
0.00600047
0.0082989
0.0106378
0.0129625
0.0152106
0.0173142
0.019202
0.020802
0.0220453
0.0228701
0.0232251
0.0230731
0.0223938
0.0211845
0.0194574
0.0172556
0.014673
0.0115303
0.0073669
0.00269251
-0.00142608
-0.00426267
-0.0063994
-0.00813642
-0.00947507
-0.0104516
-0.011111
-0.0114874
-0.0116067
-0.0114877
-0.0111422
-0.0105768
-0.00979337
-0.0087913
-0.00756878
-0.00612485
-0.00446112
-0.00258359
-0.000504165
0.00175783
0.00417428
0.00670736
0.00930907
0.0119213
0.0144765
0.0168994
0.0191089
0.0210217
0.022556
0.0236362
0.0241975
0.0241902
0.0235836
0.0223677
0.020551
0.0181787
0.0153548
0.0118796
0.00724069
0.000138679
-0.00423482
-0.00723774
-0.00949081
-0.0113159
-0.0127171
-0.0137355
-0.0144208
-0.0148108
-0.0149338
-0.0148097
-0.0144506
-0.013862
-0.0130443
-0.0119945
-0.0107078
-0.00917995
-0.00740896
-0.00539719
-0.00315324
-0.000693697
0.00195519
0.00475627
0.00766062
0.0106072
0.0135232
0.0163253
0.0189222
0.0212175
0.0231147
0.0245217
0.0253573
0.025556
0.0250738
0.0238909
0.0220099
0.0194768
0.0164063
0.0125749
0.0074127
-0.00304275
-0.00766746
-0.0108325
-0.0131965
-0.0151031
-0.0165595
-0.0176117
-0.0183148
-0.0187105
-0.0188297
-0.0186936
-0.0183145
-0.0176969
-0.0168394
-0.0157362
-0.0143793
-0.0127603
-0.0108729
-0.00871512
-0.00629133
-0.00361438
-0.000707584
0.00239361
0.00564024
0.00896897
0.012302
0.0155481
0.0186048
0.0213613
0.0237039
0.0255218
0.0267133
0.0271935
0.0269012
0.0258029
0.0238924
0.0212149
0.0178957
0.0136837
0.0079443
-0.00689626
-0.0117706
-0.0150943
-0.0175636
-0.0195441
-0.0210463
-0.0221221
-0.0228323
-0.0232232
-0.0233286
-0.0231716
-0.0227646
-0.0221113
-0.0212083
-0.0200467
-0.0186145
-0.0168988
-0.0148882
-0.0125754
-0.00995943
-0.00704816
-0.00386065
-0.000429343
0.003198
0.00695678
0.010765
0.0145236
0.0181186
0.0214237
0.0243061
0.0266323
0.0282768
0.0291303
0.0291093
0.0281621
0.0262693
0.0234728
0.0199074
0.0152904
0.00891406
-0.0114678
-0.0165929
-0.0200727
-0.0226413
-0.0246862
-0.0262222
-0.0273077
-0.0280106
-0.0283822
-0.0284603
-0.0282702
-0.0278249
-0.0271275
-0.0261722
-0.0249469
-0.0234351
-0.0216186
-0.0194802
-0.0170062
-0.0141889
-0.0110299
-0.00754233
-0.00375403
0.00029003
0.00452551
0.0088674
0.0132098
0.0174271
0.0213766
0.0249042
0.0278509
0.0300622
0.0313993
0.0317502
0.0310383
0.0292258
0.026347
0.0225453
0.0174999
0.0104217
-0.0168045
-0.0221858
-0.0258208
-0.0284815
-0.0305788
-0.0321326
-0.0332091
-0.0338843
-0.0342165
-0.0342483
-0.0340081
-0.0335101
-0.0327569
-0.0317404
-0.0304449
-0.028849
-0.0269288
-0.0246599
-0.0220211
-0.0189968
-0.0155804
-0.0117776
-0.00760964
-0.00311659
0.00163948
0.00657243
0.0115709
0.0164982
0.0211953
0.0254847
0.0291786
0.0320892
0.034041
0.0348861
0.0345156
0.032865
0.0299557
0.0259367
0.0204428
0.0125927
-0.0229561
-0.0286051
-0.0323963
-0.0351409
-0.0372747
-0.038824
-0.0398651
-0.0404845
-0.0407489
-0.0407076
-0.0403932
-0.0398222
-0.0389965
-0.0379063
-0.0365318
-0.0348464
-0.0328193
-0.0304185
-0.0276137
-0.02438
-0.0207008
-0.0165724
-0.0120072
-0.00703785
-0.00172167
0.00385663
0.0095823
0.0153095
0.0208627
0.0260404
0.0306231
0.0343842
0.037105
0.0385924
0.0386946
0.0373114
0.0344425
0.0302384
0.0242804
0.0155839
-0.0299764
-0.0359138
-0.0398649
-0.0426826
-0.0448308
-0.0463446
-0.0473133
-0.0478369
-0.0479938
-0.0478418
-0.0474196
-0.0467464
-0.0458249
-0.0446429
-0.0431769
-0.0413942
-0.0392563
-0.0367225
-0.0337522
-0.0303094
-0.0263663
-0.021907
-0.0169327
-0.011466
-0.00555623
0.000716549
0.00723725
0.0138533
0.0203743
0.0265749
0.0322016
0.0369843
0.0406532
0.0429596
0.0436968
0.0427151
0.0399822
0.0356425
0.0292123
0.0195905
-0.0379265
-0.0441856
-0.0483035
-0.0511795
-0.0533109
-0.0547451
-0.0555891
-0.0559612
-0.0559549
-0.0556401
-0.0550632
-0.0542479
-0.0531977
-0.0518989
-0.0503231
-0.0484313
-0.0461765
-0.0435078
-0.0403734
-0.0367245
-0.0325197
-0.0277293
-0.0223404
-0.0163625
-0.00983307
-0.00282397
0.00455344
0.0121436
0.0197443
0.0271078
0.0339457
0.0399405
0.0447631
0.0480977
0.0496678
0.0492579
0.0467877
0.0423846
0.0354847
0.0248544
-0.0468792
-0.0535112
-0.0578067
-0.0607191
-0.0627882
-0.0640799
-0.0647255
-0.0648683
-0.0646224
-0.0640734
-0.0632782
-0.0622665
-0.0610435
-0.059593
-0.0578821
-0.0558641
-0.0534827
-0.0506756
-0.0473781
-0.0435273
-0.0390663
-0.0339492
-0.0281464
-0.0216507
-0.0144844
-0.00670629
0.0015809
0.0102237
0.0190127
0.0276812
0.0359069
0.0433222
0.0495317
0.05414
0.0567832
0.0571588
0.0551179
0.0507541
0.0434018
0.0316751
-0.0569271
-0.0640076
-0.0684945
-0.0714096
-0.0733498
-0.0744085
-0.0747522
-0.0745583
-0.0739689
-0.0730901
-0.0719926
-0.0707131
-0.0692586
-0.0676108
-0.0657306
-0.0635628
-0.0610403
-0.0580882
-0.0546274
-0.0505792
-0.0458695
-0.040434
-0.0342235
-0.0272113
-0.0193999
-0.0108304
-0.00159118
0.00817292
0.0182521
0.0283658
0.038162
0.0472226
0.0550804
0.0612478
0.0652535
0.0666825
0.0652886
0.0611073
0.0533406
0.0404243
-0.0681938
-0.0758312
-0.0805252
-0.0833893
-0.085101
-0.0857968
-0.085694
-0.085017
-0.0839453
-0.0826113
-0.0811024
-0.0794636
-0.0777035
-0.0758001
-0.073707
-0.0713586
-0.0686754
-0.0655681
-0.0619416
-0.0576998
-0.0527497
-0.0470065
-0.0403994
-0.0328785
-0.024423
-0.0150509
-0.00482946
0.00611253
0.0175732
0.0292671
0.0408188
0.0517634
0.0615592
0.0696151
0.0753312
0.0781481
0.0776856
0.073885
0.0657714
0.0515652
-0.0808522
-0.0891986
-0.0941126
-0.0968376
-0.0981716
-0.0983183
-0.0975682
-0.0962109
-0.0944744
-0.0925242
-0.0904667
-0.0883555
-0.0861991
-0.0839696
-0.0816107
-0.0790441
-0.0761754
-0.0728989
-0.0691017
-0.0646688
-0.0594866
-0.0534481
-0.0464588
-0.0384429
-0.0293523
-0.0191767
-0.0079557
0.00420696
0.0171277
0.0305274
0.0440184
0.0570973
0.0691495
0.0794723
0.0873158
0.0919396
0.092781
0.0896358
0.0812852
0.0656789
-0.0951525
-0.104418
-0.109551
-0.111992
-0.112723
-0.112053
-0.110379
-0.108079
-0.105442
-0.102674
-0.0999009
-0.0971824
-0.0945237
-0.0918872
-0.0892027
-0.0863754
-0.0832928
-0.0798304
-0.0758557
-0.0712328
-0.0658263
-0.0595058
-0.0521509
-0.0436579
-0.0339481
-0.0229779
-0.0107521
0.00265977
0.0171045
0.0323241
0.0479341
0.0634066
0.0780629
0.0910868
0.101559
0.108516
0.111153
0.109047
0.100634
0.0835044
-0.111469
-0.121935
-0.127252
-0.129166
-0.128952
-0.127083
-0.124108
-0.120521
-0.116688
-0.112856
-0.10917
-0.10569
-0.102412
-0.099282
-0.0962091
-0.0930774
-0.0897525
-0.0860878
-0.0819287
-0.0771171
-0.0714944
-0.0649057
-0.0572038
-0.0482552
-0.0379476
-0.0261999
-0.0129754
0.00170033
0.0177182
0.0348582
0.0527603
0.0708935
0.0885333
0.104757
0.118462
0.128422
0.133512
0.132989
0.124791
0.105998
-0.130374
-0.142411
-0.147794
-0.148776
-0.147096
-0.143483
-0.138696
-0.133378
-0.127983
-0.122799
-0.117979
-0.113573
-0.109556
-0.105848
-0.102328
-0.0988542
-0.0952637
-0.0913848
-0.0870385
-0.0820426
-0.0762146
-0.069374
-0.0613463
-0.0519671
-0.0410884
-0.028588
-0.0143816
0.00155924
0.0191837
0.0383305
0.0586895
0.0797575
0.100795
0.120793
0.138467
0.152287
0.160723
0.162574
0.155039
0.134434
-0.152777
-0.166841
-0.171997
-0.171362
-0.167423
-0.161292
-0.154012
-0.146407
-0.139017
-0.132156
-0.125967
-0.120473
-0.115608
-0.11125
-0.107242
-0.103402
-0.0995363
-0.0954431
-0.0909165
-0.0857488
-0.0797328
-0.0726626
-0.0643358
-0.0545569
-0.043141
-0.0299218
-0.0147619
0.00243052
0.0216782
0.042901
0.0658709
0.0901529
0.115038
0.139477
0.162023
0.180819
0.193836
0.199232
0.193111
0.170569
-0.180158
-0.196741
-0.201014
-0.197607
-0.190202
-0.180469
-0.169809
-0.159237
-0.149359
-0.140481
-0.132701
-0.125979
-0.120186
-0.115141
-0.11063
-0.106428
-0.102302
-0.0980146
-0.093332
-0.08802
-0.0818465
-0.0745804
-0.0659924
-0.0558557
-0.0439485
-0.0300581
-0.0139895
0.00442121
0.0252859
0.0486305
0.0743461
0.102119
0.131337
0.160984
0.189515
0.214754
0.234088
0.244816
0.24141
0.216954
-0.215039
-0.234451
-0.236446
-0.228321
-0.21563
-0.200801
-0.185636
-0.171309
-0.158425
-0.147212
-0.137664
-0.129632
-0.12289
-0.117171
-0.112194
-0.107676
-0.103338
-0.0989082
-0.0941206
-0.0887152
-0.0824356
-0.075027
-0.0662346
-0.0558015
-0.0434692
-0.0289783
-0.0120726
0.00749207
0.0299313
0.0554035
0.0839615
0.115478
0.149531
0.185254
0.221128
0.254744
0.282876
0.301711
0.303343
0.277511
-0.261902
-0.283614
-0.280432
-0.264344
-0.243671
-0.221748
-0.200724
-0.181798
-0.16543
-0.151652
-0.140262
-0.13094
-0.123319
-0.117022
-0.111682
-0.10695
-0.1025
-0.0980192
-0.0932135
-0.0877977
-0.0814934
-0.0740247
-0.0651133
-0.0544753
-0.0418171
-0.0268332
-0.00920467
0.0113983
0.0353087
0.0628429
0.0942624
0.129703
0.169057
0.211783
0.25661
0.301125
0.341598
0.372908
0.383838
0.358684
-0.329163
-0.349879
-0.335594
-0.306224
-0.273701
-0.242158
-0.213786
-0.189492
-0.169331
-0.152951
-0.139829
-0.129398
-0.121103
-0.114431
-0.108919
-0.104149
-0.0997432
-0.0953551
-0.0906627
-0.0853602
-0.0791514
-0.0717429
-0.0628377
-0.0521284
-0.0392907
-0.0239761
-0.00580485
0.0156405
0.0408185
0.0702255
0.104376
0.143757
0.188721
0.239299
0.294835
0.353389
0.411179
0.461853
0.49009
0.47181
-0.433093
-0.441738
-0.404456
-0.353379
-0.30378
-0.259737
-0.22269
-0.192619
-0.168751
-0.150089
-0.135642
-0.124514
-0.115927
-0.109222
-0.103835
-0.0992846
-0.0951486
-0.0910529
-0.0866557
-0.0816372
-0.0756894
-0.068508
-0.059783
-0.0491902
-0.0363813
-0.0209722
-0.00252924
0.0194464
0.0455378
0.0764302
0.112925
0.155935
0.206439
0.265343
0.333141
0.409236
0.490956
0.571627
0.632136
0.637122
-0.604152
-0.570469
-0.488291
-0.403223
-0.330085
-0.270824
-0.224486
-0.189014
-0.162203
-0.142104
-0.127122
-0.115983
-0.107681
-0.10142
-0.0965546
-0.0925548
-0.0889726
-0.0854182
-0.0815416
-0.0770183
-0.0715376
-0.0647919
-0.056467
-0.0462306
-0.0337207
-0.0185297
-0.000185302
0.021876
0.0483436
0.0800781
0.118169
0.164003
0.21932
0.286231
0.367071
0.463968
0.577563
0.703213
0.82178
0.888483
-0.905386
-0.747474
-0.582953
-0.44918
-0.346241
-0.270438
-0.215829
-0.176668
-0.148611
-0.128535
-0.114194
-0.103966
-0.0966691
-0.0914154
-0.0875204
-0.0844382
-0.0817179
-0.0789728
-0.0758591
-0.0720594
-0.0672702
-0.0611902
-0.0535104
-0.043902
-0.0320025
-0.017399
0.000396262
0.0219796
0.0481052
0.0797571
0.118258
0.165427
0.22381
0.296968
0.389839
0.50913
0.662064
0.850558
1.07089
1.29298
-1.51419
-0.976175
-0.650172
-0.457703
-0.328462
-0.242797
-0.18663
-0.149188
-0.123875
-0.106683
-0.095034
-0.0872085
-0.0820215
-0.07862
-0.076362
-0.0747423
-0.0733461
-0.0718176
-0.0698395
-0.0671176
-0.0633689
-0.0583117
-0.0516551
-0.0430896
-0.0322727
-0.0188134
-0.00224759
0.0179964
0.0426511
0.0726947
0.109489
0.155011
0.212252
0.285886
0.383511
0.517817
0.707079
0.973471
1.38699
2.03593
-2.65455
-1.20458
-0.592825
-0.358029
-0.23351
-0.162125
-0.121083
-0.0964293
-0.081115
-0.0716162
-0.0659356
-0.0628269
-0.0614531
-0.0612099
-0.0616316
-0.0623398
-0.0630123
-0.0633637
-0.0631317
-0.0620675
-0.0599272
-0.0564656
-0.0514293
-0.0445473
-0.0355239
-0.0240257
-0.00966417
0.00802952
0.0296435
0.055949
0.0880092
0.12738
0.1765
0.23952
0.324267
0.446873
0.639039
0.970098
1.69793
3.27083
-6.51994e-07
-0.000362076
-0.00119063
-0.00227589
-0.0034213
-0.00448687
-0.00537344
-0.00601395
-0.00636601
-0.00640561
-0.00612255
-0.00551704
-0.00459735
-0.00337842
-0.00188087
-0.000130405
0.00184236
0.00400192
0.00630807
0.00871618
0.0111775
0.0136396
0.0160475
0.0183443
0.0204736
0.0223806
0.0240152
0.0253336
0.026301
0.0268941
0.0271029
0.0269338
0.0264114
0.0255809
0.0245103
0.0232931
0.0220512
0.0209379
0.0201486
0.0198647
0.00036072
-4.59398e-07
-0.000652641
-0.0014736
-0.00233735
-0.00314159
-0.00380843
-0.00428108
-0.00452066
-0.00450307
-0.00421591
-0.00365611
-0.00282831
-0.00174354
-0.000418358
0.00112568
0.00286229
0.00476062
0.0067855
0.00889785
0.0110551
0.0132115
0.0153193
0.0173295
0.0191936
0.0208651
0.0223018
0.0234679
0.0243352
0.0248861
0.0251148
0.0250295
0.0246543
0.0240299
0.023215
0.0222868
0.0213404
0.0204878
0.0198607
0.0195809
0.00120049
0.00065187
-1.11235e-05
-0.000756044
-0.00151092
-0.00219745
-0.00275552
-0.00314013
-0.00331905
-0.00327141
-0.00298581
-0.00245872
-0.00169335
-0.00069862
0.000511464
0.00191828
0.00349873
0.00522537
0.00706679
0.00898787
0.0109502
0.0129127
0.014832
0.016664
0.0183646
0.0198921
0.0212087
0.0222824
0.0230884
0.0236112
0.0238464
0.023802
0.0234995
0.0229751
0.0222789
0.0214752
0.0206406
0.0198642
0.0192315
0.0187957
0.00232584
0.00148473
0.000712125
-5.32077e-05
-0.000787984
-0.00143124
-0.00193905
-0.00227867
-0.00242587
-0.00236471
-0.00208641
-0.00158845
-0.000873765
4.98766e-05
0.00117036
0.00247138
0.00393246
0.00552915
0.00723318
0.0090127
0.0108326
0.0126552
0.0144404
0.0161471
0.0177345
0.0191636
0.0203988
0.0214101
0.022174
0.0226755
0.0229097
0.022883
0.022614
0.0221335
0.021484
0.0207182
0.0198987
0.0190994
0.0183652
0.0176712
0.00355496
0.00237938
0.00145
0.000614698
-0.000147535
-0.000789217
-0.00128099
-0.00160195
-0.0017361
-0.00167296
-0.00140712
-0.000937753
-0.000268159
0.000594616
0.00163989
0.00285331
0.00421678
0.00570856
0.00730313
0.00897147
0.0106813
0.0123976
0.0140827
0.0156979
0.0172041
0.018564
0.0197433
0.0207122
0.0214474
0.0219333
0.0221634
0.022142
0.0218838
0.0214145
0.0207696
0.019992
0.0191324
0.0182548
0.0173672
0.0163665
0.00475746
0.003236
0.00212291
0.00118347
0.000358422
-0.000314663
-0.000818732
-0.0011436
-0.00128107
-0.00122615
-0.000977126
-0.000535206
9.56111e-05
0.000908573
0.00189404
0.0030393
0.00432838
0.00574183
0.00725654
0.00884581
0.0104797
0.0121249
0.0137458
0.0153047
0.0167636
0.0180856
0.0192362
0.0201851
0.0209076
0.0213864
0.021613
0.0215882
0.0213233
0.0208388
0.020164
0.019334
0.018391
0.0173934
0.0163187
0.0149933
0.00583504
0.00397191
0.00266258
0.00159843
0.000687322
-4.01523e-05
-0.000577124
-0.000922826
-0.00107608
-0.00103718
-0.000807978
-0.00039178
0.000206508
0.000980154
0.00192034
0.00301581
0.00425241
0.00561268
0.00707553
0.00861622
0.0102065
0.0118146
0.0134055
0.0149424
0.0163872
0.0177023
0.0188521
0.0198044
0.0205324
0.0210161
0.0212437
0.0212127
0.02093
0.0204119
0.0196824
0.0187705
0.0177127
0.0165659
0.0152829
0.0136272
0.00671107
0.0045171
0.00300813
0.00180861
0.000797792
1.41637e-06
-0.000582106
-0.000960125
-0.00113777
-0.00112006
-0.000912106
-0.000519247
5.26548e-05
0.000796838
0.00170524
0.00276788
0.00397224
0.00530258
0.00673961
0.00826022
0.00983741
0.0114403
0.0130343
0.0145823
0.0160455
0.0173849
0.0185625
0.0195435
0.0202979
0.0208019
0.02104
0.0210055
0.0207011
0.0201387
0.0193383
0.0183243
0.0171301
0.0158138
0.0143085
0.0123209
0.00732348
0.00481125
0.00310408
0.00176479
0.000647086
-0.000226602
-0.000865024
-0.00128258
-0.00148993
-0.0014962
-0.00130942
-0.000936799
-0.000385014
0.000339228
0.00122861
0.00227438
0.00346546
0.00478781
0.00622368
0.00775134
0.00934474
0.0109734
0.0126028
0.0141951
0.0157099
0.0171058
0.0183418
0.0193796
0.0201846
0.0207289
0.020992
0.0209625
0.0206387
0.0200283
0.0191479
0.0180188
0.0166728
0.0151722
0.0134334
0.0111107
0.00761921
0.00480079
0.00289928
0.00141972
0.000192436
-0.000762587
-0.00146025
-0.00192118
-0.00216078
-0.00219178
-0.00202483
-0.00166866
-0.00113055
-0.00041699
0.000465504
0.00150938
0.00270508
0.00404014
0.00549834
0.00705909
0.00869709
0.0103821
0.0120793
0.0137494
0.01535
0.0168366
0.0181645
0.0192904
0.0201749
0.0207842
0.0210924
0.0210825
0.0207478
0.0200921
0.0191288
0.0178769
0.0163684
0.0146715
0.0126885
0.0100225
0.00755042
0.00443649
0.00234567
0.000727771
-0.000608832
-0.00164608
-0.00240434
-0.00290973
-0.00318189
-0.00323677
-0.00308722
-0.00274315
-0.00221214
-0.00150033
-0.000613309
0.000442726
0.00165981
0.00302714
0.00452995
0.00614881
0.00785913
0.00963081
0.0114282
0.0132107
0.014933
0.0165471
0.0180034
0.0192532
0.0202508
0.0209557
0.0213352
0.0213659
0.0210356
0.0203435
0.0192999
0.0179223
0.0162439
0.0143406
0.0121011
0.00907727
0.00707209
0.00367189
0.00139716
-0.000355704
-0.00179944
-0.00291757
-0.00373548
-0.00428435
-0.0045877
-0.00466433
-0.00452886
-0.00419209
-0.00366168
-0.00294316
-0.00204096
-0.000959743
0.000294312
0.00171217
0.00328067
0.00498166
0.00679137
0.00867983
0.0106106
0.0125411
0.0144232
0.0162043
0.0178296
0.019244
0.020394
0.0212315
0.0217154
0.021815
0.0215112
0.0207981
0.0196827
0.0181808
0.0163278
0.0142085
0.0116984
0.00829521
0.00614062
0.00246207
8.80702e-06
-0.00187486
-0.00342222
-0.00461826
-0.00549318
-0.00608301
-0.0064149
-0.00651009
-0.00638473
-0.00605025
-0.00551411
-0.00478098
-0.00385386
-0.00273559
-0.00143034
5.4878e-05
0.00170879
0.00351485
0.00545033
0.0074855
0.00958319
0.0116988
0.0137808
0.0157721
0.0176116
0.0192366
0.0205851
0.0215993
0.0222288
0.0224334
0.0221861
0.0214746
0.0203017
0.0186816
0.0166519
0.0143077
0.0115102
0.00769894
0.00471282
0.000762672
-0.00186391
-0.0038737
-0.00552021
-0.00679001
-0.00771804
-0.00834509
-0.00870169
-0.00881138
-0.00869165
-0.00835433
-0.00780644
-0.00705146
-0.00609069
-0.00492484
-0.00355573
-0.00198796
-0.000230438
0.00170231
0.00378899
0.00600042
0.00829887
0.0106379
0.0129626
0.0152107
0.0173144
0.0192023
0.0208024
0.0220459
0.0228708
0.0232259
0.023074
0.0223947
0.0211857
0.0194587
0.0172533
0.0146757
0.0115717
0.00731653
0.00274539
-0.00147059
-0.00426546
-0.00639639
-0.00813692
-0.00947536
-0.0104515
-0.0111108
-0.0114872
-0.0116065
-0.0114874
-0.011142
-0.0105766
-0.00979322
-0.00879119
-0.0075687
-0.0061248
-0.00446111
-0.00258361
-0.000504207
0.00175777
0.0041742
0.00670728
0.00930902
0.0119213
0.0144766
0.0168996
0.0191092
0.0210221
0.0225566
0.0236369
0.0241984
0.0241911
0.0235846
0.0223691
0.0205525
0.0181761
0.0153578
0.0119259
0.00718431
0.000194595
-0.0042823
-0.00724079
-0.00948766
-0.0113165
-0.0127174
-0.0137354
-0.0144206
-0.0148106
-0.0149335
-0.0148094
-0.0144503
-0.0138617
-0.0130441
-0.0119943
-0.0107077
-0.0091799
-0.00740896
-0.00539723
-0.00315331
-0.000693798
0.00195505
0.00475611
0.00766047
0.0106071
0.0135231
0.0163254
0.0189224
0.0212179
0.0231152
0.0245224
0.0253582
0.025557
0.0250749
0.0238925
0.0220115
0.0194739
0.0164097
0.0126268
0.00734961
-0.00298325
-0.00771782
-0.0108358
-0.0131932
-0.0151038
-0.0165598
-0.0176116
-0.0183146
-0.0187102
-0.0188294
-0.0186932
-0.0183141
-0.0176966
-0.0168391
-0.015736
-0.0143792
-0.0127602
-0.0108729
-0.00871518
-0.00629144
-0.00361454
-0.0007078
0.00239336
0.00564001
0.00896879
0.0123019
0.0155482
0.0186049
0.0213616
0.0237044
0.0255225
0.0267142
0.0271946
0.0269024
0.0258047
0.0238943
0.0212118
0.0178996
0.013742
0.00787366
-0.00683341
-0.0118239
-0.0150979
-0.0175602
-0.0195448
-0.0210467
-0.0221219
-0.022832
-0.0232229
-0.0233283
-0.0231712
-0.0227642
-0.0221109
-0.021208
-0.0200465
-0.0186143
-0.0168987
-0.0148882
-0.0125755
-0.00995957
-0.00704838
-0.00386094
-0.000429665
0.00319769
0.00695651
0.0107648
0.0145235
0.0181186
0.0214239
0.0243065
0.026633
0.0282777
0.0291314
0.0291106
0.0281641
0.0262715
0.0234694
0.019912
0.0153558
0.00883493
-0.0114016
-0.0166492
-0.0200767
-0.0226378
-0.024687
-0.0262226
-0.0273076
-0.0280103
-0.0283818
-0.0284599
-0.0282697
-0.0278244
-0.0271271
-0.0261719
-0.0249466
-0.0234349
-0.0216185
-0.0194802
-0.0170063
-0.0141891
-0.0110302
-0.00754267
-0.00375441
0.000289638
0.00452514
0.00886707
0.0132096
0.0174269
0.0213767
0.0249045
0.0278515
0.0300632
0.0314005
0.0317516
0.0310406
0.0292284
0.0263434
0.0225506
0.0175734
0.010333
-0.0167349
-0.0222452
-0.0258251
-0.0284779
-0.0305798
-0.0321331
-0.0332089
-0.033884
-0.0342161
-0.0342478
-0.0340075
-0.0335096
-0.0327564
-0.03174
-0.0304446
-0.0288488
-0.0269286
-0.0246599
-0.0220212
-0.018997
-0.0155807
-0.011778
-0.00761006
-0.00311704
0.00163901
0.00657198
0.0115705
0.016498
0.0211952
0.0254849
0.0291791
0.03209
0.0340423
0.0348878
0.0345182
0.032868
0.0299518
0.0259429
0.0205253
0.0124932
-0.0228829
-0.028668
-0.0324011
-0.0351373
-0.0372758
-0.0388246
-0.0398649
-0.040484
-0.0407483
-0.040707
-0.0403925
-0.0398215
-0.0389959
-0.0379058
-0.0365314
-0.0348461
-0.0328191
-0.0304184
-0.0276138
-0.0243801
-0.0207011
-0.0165728
-0.0120076
-0.00703834
-0.00172222
0.00385608
0.00958179
0.0153091
0.0208624
0.0260404
0.0306235
0.034385
0.0371063
0.0385942
0.0386976
0.0373148
0.0344383
0.0302456
0.0243733
0.0154724
-0.0298993
-0.0359804
-0.0398702
-0.042679
-0.0448321
-0.0463453
-0.0473131
-0.0478364
-0.0479931
-0.0478411
-0.0474188
-0.0467456
-0.0458242
-0.0446423
-0.0431764
-0.0413938
-0.0392561
-0.0367223
-0.0337522
-0.0303095
-0.0263665
-0.0219073
-0.0169331
-0.0114666
-0.00555684
0.000715896
0.00723659
0.0138527
0.0203738
0.0265746
0.0322017
0.036985
0.0406545
0.0429615
0.0437002
0.0427192
0.0399778
0.035651
0.0293169
0.0194653
-0.0378448
-0.0442567
-0.0483096
-0.051176
-0.0533124
-0.0547458
-0.0555888
-0.0559606
-0.0559541
-0.0556392
-0.0550622
-0.0542469
-0.0531969
-0.0518982
-0.0503225
-0.0484308
-0.0461762
-0.0435076
-0.0403733
-0.0367245
-0.0325199
-0.0277296
-0.0223409
-0.016363
-0.00983376
-0.00282474
0.00455262
0.0121428
0.0197436
0.0271073
0.0339456
0.039941
0.0447643
0.0480998
0.0496717
0.0492627
0.0467831
0.0423947
0.0356026
0.0247139
-0.0467921
-0.0535877
-0.0578137
-0.0607156
-0.06279
-0.0640807
-0.0647252
-0.0648675
-0.0646214
-0.0640723
-0.0632771
-0.0622655
-0.0610425
-0.0595923
-0.0578815
-0.0558637
-0.0534824
-0.0506754
-0.047378
-0.0435273
-0.0390665
-0.0339496
-0.0281469
-0.0216514
-0.0144852
-0.00670722
0.00157986
0.0102226
0.0190117
0.0276803
0.0359064
0.0433224
0.0495328
0.0541422
0.0567875
0.0571645
0.0551132
0.0507662
0.043535
0.0315174
-0.0568333
-0.0640909
-0.0685029
-0.0714064
-0.0733519
-0.0744093
-0.0747517
-0.0745573
-0.0739676
-0.0730887
-0.0719912
-0.0707118
-0.0692575
-0.0676099
-0.0657299
-0.0635623
-0.06104
-0.058088
-0.0546274
-0.0505794
-0.0458699
-0.0404345
-0.0342242
-0.0272121
-0.0194009
-0.0108316
-0.00159253
0.00817144
0.0182506
0.0283645
0.038161
0.0472223
0.0550811
0.0612499
0.0652583
0.0666891
0.0652839
0.061122
0.0534914
0.0402472
-0.0680915
-0.0759234
-0.0805354
-0.0833862
-0.0851034
-0.0857976
-0.0856931
-0.0850156
-0.0839435
-0.0826095
-0.0811007
-0.0794621
-0.0777023
-0.0757991
-0.0737062
-0.0713581
-0.0686751
-0.065568
-0.0619417
-0.0577001
-0.0527502
-0.0470072
-0.0404003
-0.0328796
-0.0244243
-0.0150524
-0.00483122
0.00611056
0.0175711
0.029265
0.040817
0.0517624
0.0615593
0.0696168
0.0753362
0.0781556
0.0776809
0.0739029
0.0659427
0.051366
-0.0807387
-0.089303
-0.0941254
-0.0968348
-0.0981743
-0.0983189
-0.0975668
-0.0962087
-0.094472
-0.0925218
-0.0904646
-0.0883537
-0.0861976
-0.0839685
-0.0816099
-0.0790436
-0.0761752
-0.0728989
-0.0691021
-0.0646694
-0.0594874
-0.0534491
-0.04646
-0.0384443
-0.029354
-0.0191787
-0.00795799
0.00420436
0.0171248
0.0305244
0.0440156
0.0570951
0.0691484
0.0794731
0.0873207
0.0919478
0.0927763
0.0896577
0.081481
0.0654546
-0.0950242
-0.104539
-0.109567
-0.111989
-0.112725
-0.112053
-0.110377
-0.108076
-0.105439
-0.102671
-0.0998983
-0.0971802
-0.094522
-0.0918861
-0.0892019
-0.086375
-0.0832929
-0.0798308
-0.0758564
-0.0712337
-0.0658274
-0.0595071
-0.0521525
-0.0436598
-0.0339503
-0.0229805
-0.0107551
0.00265638
0.0171007
0.0323199
0.0479299
0.0634027
0.0780601
0.091086
0.101563
0.108525
0.111148
0.109074
0.10086
0.083251
-0.11132
-0.122081
-0.127272
-0.129162
-0.128954
-0.127082
-0.124104
-0.120516
-0.116683
-0.112852
-0.109166
-0.105687
-0.10241
-0.0992808
-0.0962085
-0.0930773
-0.0897529
-0.0860885
-0.0819297
-0.0771184
-0.071496
-0.0649075
-0.0572059
-0.0482577
-0.0379504
-0.0262031
-0.0129792
0.00169602
0.0177132
0.0348526
0.0527541
0.0708873
0.0885277
0.104753
0.118464
0.12843
0.133506
0.133022
0.125054
0.105711
-0.130199
-0.142592
-0.147821
-0.14877
-0.147096
-0.143479
-0.138689
-0.133371
-0.127977