/*--------------------------------*- C++ -*----------------------------------*\
  =========                 |
  \\      /  F ield         | OpenFOAM: The Open Source CFD Toolbox
   \\    /   O peration     | Website:  https://openfoam.org
    \\  /    A nd           | Version:  9
     \\/     M anipulation  |
\*---------------------------------------------------------------------------*/
FoamFile
{
    format      ascii;
    class       volScalarField;
    location    "155";
    object      nut;
}
// * * * * * * * * * * * * * * * * * * * * * * * * * * * * * * * * * * * * * //

dimensions      [0 2 -1 0 0 0 0];

internalField   nonuniform List<scalar> 
12225
(
4.14977e-05
3.93417e-05
3.7483e-05
3.54337e-05
3.37819e-05
3.24236e-05
3.1505e-05
3.09125e-05
3.09177e-05
3.10979e-05
3.15694e-05
3.21136e-05
3.3153e-05
3.38163e-05
3.51147e-05
3.56894e-05
3.76315e-05
3.56814e-05
0.000332405
0.00021515
0.000179322
0.000157623
0.000146251
0.000138156
0.000132711
0.0001317
0.000129449
0.000130127
0.000128986
0.000129506
0.000128603
0.000128625
0.000128021
0.000127498
0.000127479
0.000126448
0.000675194
0.000450625
0.000355912
0.000309692
0.000275407
0.000250967
0.000231796
0.000217162
0.000202679
0.000192084
0.000182604
0.000175142
0.00016937
0.000163559
0.000160308
0.000155371
0.000153804
0.000149609
0.00083381
0.000684675
0.000572219
0.000499766
0.00044963
0.000411775
0.000380904
0.000355848
0.00033409
0.00031463
0.00029837
0.000281554
0.000270301
0.000255898
0.000248119
0.000235969
0.000230123
0.000220114
0.000861325
0.000802498
0.000742288
0.000676374
0.000624162
0.000581209
0.000545989
0.000514414
0.000489591
0.000464297
0.000445877
0.000423939
0.000409879
0.000390654
0.000379722
0.000362901
0.000354145
0.000339106
0.000854998
0.000840351
0.000822266
0.000786378
0.000750983
0.000715793
0.00068584
0.000656038
0.000632583
0.000607431
0.000588981
0.000567153
0.000552204
0.000532971
0.000520616
0.000503529
0.000493008
0.000477118
0.000852914
0.000850686
0.000844248
0.000832824
0.000817455
0.000796948
0.000777922
0.00075669
0.000738907
0.000719099
0.000703505
0.000685558
0.000672051
0.000655821
0.000644172
0.000629359
0.000619278
0.000604862
0.000851926
0.000851809
0.00085018
0.000847386
0.000841462
0.000833725
0.0008249
0.000813396
0.000802805
0.000790447
0.000779692
0.0007675
0.000757374
0.000745712
0.000736445
0.000725404
0.000716992
0.000705836
0.000851753
0.000851538
0.000851039
0.000850335
0.000848882
0.000846166
0.000843037
0.000838298
0.000833398
0.00082735
0.000821201
0.000814751
0.000808378
0.000801483
0.000795182
0.000788341
0.00078207
0.000775124
0.000851771
0.000851388
0.000851048
0.000850631
0.000850248
0.000849366
0.000848406
0.000846778
0.000844953
0.000842525
0.000839916
0.000836788
0.000833778
0.000830129
0.00082694
0.000822884
0.000819849
0.000815229
0.000851788
0.000851358
0.000851012
0.000850613
0.000850329
0.000849904
0.000849525
0.000848928
0.000848301
0.00084739
0.000846462
0.000845171
0.000843982
0.00084234
0.000840981
0.000839011
0.000837615
0.000835329
0.000851789
0.000851359
0.000850996
0.000850605
0.000850292
0.000849938
0.000849645
0.000849279
0.000848954
0.000848503
0.000848096
0.000847504
0.000846993
0.000846238
0.000845634
0.000844711
0.000844046
0.000842962
0.000851786
0.000851363
0.000850986
0.000850604
0.000850269
0.000849926
0.00084963
0.000849313
0.000849042
0.000848727
0.00084846
0.000848124
0.000847841
0.000847462
0.000847152
0.000846721
0.000846382
0.000845896
0.000851783
0.000851364
0.000850978
0.000850602
0.000850256
0.000849916
0.000849607
0.000849299
0.000849022
0.00084874
0.000848487
0.000848223
0.000847987
0.000847733
0.000847506
0.000847256
0.000847031
0.000846781
0.000851781
0.000851364
0.000850973
0.000850598
0.000850246
0.000849909
0.000849592
0.000849286
0.000849
0.000848723
0.000848463
0.000848211
0.000847974
0.000847744
0.000847527
0.000847315
0.000847115
0.000846919
0.00085178
0.000851363
0.000850969
0.000850594
0.000850239
0.000849901
0.00084958
0.000849275
0.000848984
0.000848707
0.000848443
0.000848191
0.000847951
0.000847721
0.000847503
0.000847293
0.000847094
0.000846903
0.000851779
0.000851362
0.000850967
0.000850591
0.000850234
0.000849895
0.000849572
0.000849265
0.000848973
0.000848694
0.000848429
0.000848175
0.000847933
0.000847702
0.000847481
0.00084727
0.000847069
0.000846876
0.000851779
0.000851362
0.000850965
0.000850589
0.000850231
0.000849891
0.000849567
0.000849259
0.000848966
0.000848686
0.000848419
0.000848164
0.000847921
0.000847688
0.000847466
0.000847254
0.000847051
0.000846857
0.000851779
0.000851362
0.000850965
0.000850588
0.00085023
0.000849889
0.000849565
0.000849257
0.000848963
0.000848682
0.000848415
0.000848159
0.000847915
0.000847682
0.000847459
0.000847245
0.000847041
0.000846846
0.000851779
0.000851362
0.000850966
0.000850589
0.000850232
0.000849892
0.000849568
0.00084926
0.000848966
0.000848686
0.000848418
0.000848163
0.000847918
0.000847685
0.000847462
0.000847248
0.000847043
0.000846847
0.000851779
0.000851363
0.000850967
0.000850592
0.000850235
0.000849897
0.000849573
0.000849267
0.000848973
0.000848695
0.000848425
0.00084817
0.000847921
0.000847685
0.000847453
0.000847233
0.000847015
0.000846808
0.000851778
0.000851366
0.000850968
0.000850599
0.00085024
0.000849908
0.00084958
0.000849275
0.000848965
0.000848672
0.000848366
0.000848073
0.000847758
0.000847457
0.000847125
0.000846813
0.00084646
0.000846139
0.000851777
0.000851374
0.000850972
0.000850615
0.000850241
0.00084989
0.000849479
0.000849055
0.00084853
0.000847979
0.000847302
0.000846606
0.000845769
0.000844942
0.000843958
0.000843033
0.000841922
0.000840944
0.000851802
0.00085141
0.000850971
0.000850549
0.000849861
0.000848968
0.000847608
0.000845981
0.000843905
0.000841638
0.000838957
0.000836218
0.000833121
0.000830119
0.000826769
0.000823687
0.000820192
0.000817187
0.000852138
0.000851404
0.000850234
0.000848253
0.000844473
0.000839357
0.000832713
0.000825766
0.000817917
0.000810006
0.000801622
0.000793635
0.000785341
0.000777718
0.000769756
0.000762715
0.000755139
0.000748812
0.000854142
0.000847718
0.000840126
0.000827123
0.000808709
0.00078965
0.000769976
0.000751422
0.000733311
0.000716904
0.000700945
0.000686793
0.000672845
0.000660688
0.000648398
0.000637962
0.000626977
0.000618045
0.00085497
0.000818337
0.00077623
0.000726637
0.000684941
0.000649862
0.000618466
0.00059203
0.000568391
0.000548323
0.000529702
0.000514008
0.000498767
0.000486036
0.000473223
0.000462731
0.000451648
0.000442832
0.000807486
0.00066688
0.000570553
0.000509858
0.000465652
0.0004312
0.000404139
0.000382509
0.000364202
0.000349077
0.00033595
0.00032509
0.000314494
0.000306262
0.000297978
0.000291385
0.0002843
0.000278951
0.000501854
0.000348405
0.000292691
0.000259176
0.000236325
0.000221179
0.000211546
0.000204019
0.000198482
0.000195062
0.00019222
0.00019037
0.000188584
0.000187442
0.000186166
0.000185475
0.000184555
0.000184143
7.27285e-05
7.02231e-05
6.79539e-05
6.56136e-05
6.33827e-05
6.12765e-05
5.94928e-05
5.79571e-05
5.67101e-05
5.57026e-05
5.4977e-05
5.44176e-05
5.41076e-05
5.38855e-05
5.38756e-05
5.39596e-05
5.40688e-05
5.43191e-05
1.39045e-06
2.42218e-05
4.00004e-05
5.48037e-05
6.9614e-05
8.4413e-05
9.91149e-05
0.000113513
0.000127307
0.000140201
0.000151952
0.000162462
0.000171836
0.000180129
0.000187323
0.000197235
0.000209103
0.000222276
0.000226372
0.000217009
0.000195494
3.70683e-05
3.56903e-05
3.83734e-05
4.12854e-05
4.30688e-05
0.000207112
4.23478e-05
4.64289e-05
4.85839e-05
4.94653e-05
5.08082e-05
5.19726e-05
5.31969e-05
5.43914e-05
5.55878e-05
5.67752e-05
5.79565e-05
5.91312e-05
6.02977e-05
6.14551e-05
6.26053e-05
6.3749e-05
6.48861e-05
6.6018e-05
6.71444e-05
6.82666e-05
6.93841e-05
7.04983e-05
7.16083e-05
7.27152e-05
7.38185e-05
7.49188e-05
7.60155e-05
7.71091e-05
7.81991e-05
7.92857e-05
8.03683e-05
8.14471e-05
8.25215e-05
8.35914e-05
8.46564e-05
8.57163e-05
8.67706e-05
8.7819e-05
8.88611e-05
8.98964e-05
9.09248e-05
9.19455e-05
9.29586e-05
9.39633e-05
9.49597e-05
9.59469e-05
9.69252e-05
9.78934e-05
9.88521e-05
9.98001e-05
0.000100738
0.000101665
0.000102581
0.000103486
0.00010438
0.000105262
0.000106134
0.000106993
0.000107841
0.000108676
0.000109501
0.000110314
0.000111116
0.000111906
0.000112682
0.000113444
0.00011419
0.00011492
0.000115631
0.000116319
0.000116979
0.00011765
0.000118301
0.00011894
0.000119564
0.000120174
0.000120768
0.000121347
0.00012191
0.000122456
0.000122984
0.000123494
0.000123985
0.000124455
0.000124903
0.000125327
0.000125725
0.000126095
0.000126433
0.000126738
0.000127009
0.000127247
0.00012744
0.000127757
0.000127565
0.000127938
0.000127826
0.000127696
0.000127575
0.000127375
0.000127096
0.000126765
0.000126316
0.000125783
0.000125163
0.000124452
0.000123658
0.00012278
0.00012182
0.000120786
0.000119679
0.000118491
0.000117228
0.00011586
0.000114047
0.000112954
0.00011203
0.000111113
0.000110171
0.000109198
0.000108199
0.000107181
0.000106148
0.000105106
0.000104058
0.000103008
0.000101961
0.000100917
9.98826e-05
9.88508e-05
9.7827e-05
9.68149e-05
9.58187e-05
9.48393e-05
9.38781e-05
9.2939e-05
9.20073e-05
9.10947e-05
9.02065e-05
8.93425e-05
8.85039e-05
8.76889e-05
8.68957e-05
8.61232e-05
8.53699e-05
8.46353e-05
8.39171e-05
8.32126e-05
8.2509e-05
8.18048e-05
8.10236e-05
8.02406e-05
7.79008e-05
4.40375e-06
5.64111e-05
0.000114224
0.00015549
0.000184595
0.000207166
0.000226132
0.000242925
0.00025809
0.000271719
0.000283727
0.000294034
0.000302696
0.000309996
0.000315519
0.000318438
0.000318178
0.000312902
0.000298462
0.000273123
0.000237697
0.00019542
0.000197292
0.000212337
0.000233209
0.00025977
0.000304508
0.000279955
0.000291754
0.0002989
0.000306117
0.000313647
0.00032151
0.000329518
0.000337652
0.000345882
0.000354196
0.000362587
0.000371075
0.00037967
0.000388273
0.000396881
0.000405497
0.000414122
0.000422762
0.00043142
0.000440103
0.000448814
0.000457562
0.000466347
0.000475179
0.000484057
0.000492988
0.00050197
0.000511011
0.000520107
0.000529263
0.000538475
0.000547746
0.000557072
0.000566455
0.000575887
0.000585373
0.000594902
0.000604477
0.000614089
0.000623739
0.000633415
0.000643119
0.000652841
0.000662582
0.000672333
0.000682097
0.000691862
0.000701633
0.000711399
0.000721163
0.000730917
0.000740666
0.000750405
0.000760141
0.000769868
0.0007796
0.000789333
0.000799081
0.000808843
0.000818636
0.000828463
0.000838347
0.000848297
0.000858336
0.000868468
0.000878691
0.00088899
0.00089933
0.000909641
0.000919791
0.000929586
0.000938739
0.000947958
0.000957244
0.000966617
0.000976079
0.000985636
0.000995289
0.00100504
0.00101488
0.0010248
0.00103481
0.00104489
0.00105503
0.00106519
0.00107537
0.00108552
0.0010956
0.00110557
0.00111538
0.001125
0.00113444
0.00114387
0.00115316
0.00116094
0.00116991
0.00117718
0.00118241
0.00118789
0.00119286
0.00119675
0.00119978
0.00120184
0.0012029
0.00120297
0.00120202
0.00120008
0.00119715
0.00119325
0.00118847
0.00118284
0.00117635
0.00116898
0.00116071
0.00114913
0.00113542
0.00112061
0.0011052
0.00108947
0.0010736
0.00105769
0.00104181
0.00102606
0.00101047
0.000995088
0.000979954
0.000965114
0.000950583
0.000936389
0.000922468
0.000908962
0.000895857
0.000883146
0.000870824
0.000858885
0.000847331
0.000836135
0.000825318
0.000814883
0.000804818
0.000795101
0.000785702
0.000776598
0.000767762
0.000759169
0.000750801
0.000742625
0.000734579
0.000726552
0.000718427
0.000708379
0.000692057
0.000650435
8.15225e-06
8.3837e-05
0.000167184
0.000231953
0.000280168
0.000316184
0.00034393
0.00036618
0.000384669
0.000400371
0.000413785
0.000425161
0.000434648
0.000442322
0.000448913
0.000455206
0.000460628
0.000464133
0.000464289
0.000460621
0.000454655
0.000451491
0.000463947
0.000485146
0.000509766
0.000535147
0.000557577
0.000568355
0.000584784
0.000601378
0.000618096
0.000634877
0.00065179
0.000668799
0.000685887
0.000703032
0.000720211
0.000737369
0.000754541
0.000771727
0.000788918
0.000806115
0.000823325
0.000840558
0.000857823
0.000875131
0.000892494
0.000909921
0.000927422
0.000945007
0.000962685
0.000980461
0.000998343
0.00101633
0.00103444
0.00105266
0.00107099
0.00108944
0.001108
0.00112667
0.00114544
0.00116431
0.00118328
0.00120234
0.00122147
0.00124068
0.00125995
0.00127928
0.00129864
0.00131804
0.00133747
0.00135691
0.00137636
0.0013958
0.00141523
0.00143464
0.00145403
0.00147337
0.00149268
0.00151194
0.00153116
0.00155033
0.00156945
0.00158853
0.00160757
0.00162658
0.00164556
0.00166453
0.00168348
0.00170245
0.00172143
0.00174042
0.00175941
0.00177837
0.00179727
0.00181605
0.00183466
0.00185299
0.00187111
0.0018893
0.00190759
0.001926
0.00194453
0.00196318
0.00198197
0.0020009
0.00201995
0.00203913
0.00205842
0.00207781
0.00209725
0.00211672
0.00213617
0.00215554
0.00217475
0.00219372
0.00221236
0.00223059
0.00224831
0.00226549
0.00228209
0.00229723
0.00231301
0.00232619
0.00233615
0.00234643
0.00235511
0.00236198
0.00236707
0.00237027
0.00237156
0.0023709
0.0023683
0.00236378
0.00235739
0.00234918
0.00233925
0.00232767
0.00231449
0.00229967
0.00228312
0.00226347
0.00224106
0.00221679
0.00219131
0.00216505
0.00213828
0.0021112
0.00208398
0.0020568
0.00202968
0.00200273
0.00197606
0.00194976
0.00192388
0.00189846
0.0018735
0.0018492
0.00182551
0.00180243
0.00177995
0.00175807
0.00173679
0.00171609
0.00169599
0.0016765
0.00165768
0.00163941
0.00162166
0.00160438
0.00158753
0.00157106
0.00155496
0.00153918
0.0015236
0.001508
0.00149208
0.0014744
0.00145023
0.00139076
1.20252e-05
0.000105291
0.000208426
0.000290624
0.000353314
0.000400799
0.00043732
0.000466139
0.000489589
0.000509256
0.000526205
0.000541197
0.000554863
0.00056783
0.000580763
0.000594176
0.00060813
0.000622257
0.000636288
0.000649914
0.000663721
0.000679432
0.000699358
0.000722495
0.000747369
0.000772797
0.000797339
0.000819958
0.000843504
0.000867371
0.000891322
0.000915314
0.000939358
0.000963455
0.000987612
0.00101184
0.00103619
0.00106053
0.00108486
0.00110918
0.00113348
0.00115779
0.00118211
0.00120646
0.00123086
0.00125531
0.00127983
0.00130444
0.00132915
0.00135396
0.0013789
0.00140398
0.0014292
0.00145456
0.00148008
0.00150575
0.00153158
0.00155756
0.0015837
0.00160998
0.0016364
0.00166296
0.00168965
0.00171646
0.00174337
0.00177038
0.00179748
0.00182464
0.00185187
0.00187914
0.00190644
0.00193376
0.00196108
0.00198839
0.00201568
0.00204293
0.00207014
0.00209728
0.00212436
0.00215135
0.00217826
0.00220507
0.00223179
0.00225842
0.00228494
0.00231136
0.00233768
0.00236391
0.00239004
0.00241609
0.00244205
0.00246791
0.00249366
0.00251929
0.00254476
0.00257005
0.00259512
0.00262001
0.0026448
0.00266962
0.00269448
0.00271941
0.00274442
0.00276953
0.00279473
0.00282003
0.00284543
0.00287093
0.00289652
0.00292218
0.00294787
0.00297357
0.0029992
0.00302472
0.00305004
0.00307507
0.0030997
0.00312382
0.0031473
0.00317002
0.00319178
0.00321252
0.0032331
0.00325093
0.00326529
0.00327936
0.00329144
0.00330127
0.00330876
0.00331381
0.00331635
0.00331634
0.00331378
0.00330869
0.00330111
0.0032911
0.00327876
0.00326417
0.00324741
0.00322847
0.00320723
0.00318311
0.00315623
0.00312718
0.00309651
0.00306465
0.00303193
0.00299858
0.00296484
0.00293103
0.00289703
0.00286302
0.00282916
0.00279558
0.00276235
0.00272954
0.00269721
0.00266549
0.00263441
0.00260399
0.00257424
0.00254517
0.00251678
0.00248906
0.00246204
0.00243573
0.00241015
0.00238524
0.00236098
0.00233733
0.00231423
0.00229166
0.00226957
0.00224788
0.00222647
0.00220511
0.00218338
0.00216016
0.00213061
0.00206913
1.57782e-05
0.000123614
0.00024339
0.000340392
0.000416101
0.000474351
0.000519685
0.000555744
0.000585295
0.000610373
0.00063246
0.000652661
0.000671853
0.000690782
0.000710091
0.000730254
0.000751485
0.000773701
0.000796595
0.00081995
0.000843796
0.00086855
0.000894734
0.000922261
0.000950801
0.000979932
0.00100923
0.00103854
0.00106819
0.00109809
0.00112816
0.00115829
0.00118843
0.00121857
0.00124867
0.00127873
0.0013087
0.00133859
0.00136845
0.00139827
0.00142809
0.00145791
0.00148774
0.00151762
0.00154754
0.00157753
0.00160761
0.00163779
0.00166808
0.0016985
0.00172905
0.00175975
0.00179063
0.00182168
0.00185291
0.00188432
0.00191591
0.00194769
0.00197965
0.00201177
0.00204407
0.00207652
0.00210913
0.00214187
0.00217474
0.00220771
0.00224079
0.00227395
0.00230717
0.00234044
0.00237374
0.00240705
0.00244036
0.00247364
0.00250689
0.00254008
0.00257319
0.00260621
0.00263912
0.00267192
0.00270458
0.00273709
0.00276945
0.00280165
0.00283367
0.00286552
0.00289718
0.00292866
0.00295994
0.00299104
0.00302195
0.00305265
0.00308316
0.00311345
0.00314352
0.00317337
0.00320302
0.0032325
0.00326186
0.00329118
0.00332047
0.00334975
0.00337905
0.00340838
0.00343775
0.00346717
0.00349665
0.00352619
0.00355579
0.00358544
0.00361512
0.00364479
0.00367441
0.00370392
0.00373325
0.0037623
0.00379097
0.00381915
0.00384668
0.00387341
0.00389912
0.00392392
0.00394824
0.00397004
0.0039887
0.00400602
0.00402152
0.00403457
0.00404502
0.00405272
0.0040576
0.0040596
0.00405868
0.00405486
0.00404815
0.0040386
0.0040263
0.00401133
0.00399375
0.00397358
0.00395078
0.00392516
0.00389683
0.00386614
0.00383353
0.00379937
0.00376398
0.00372763
0.00369057
0.00365314
0.00361522
0.00357708
0.00353889
0.0035008
0.00346291
0.00342531
0.0033881
0.00335137
0.00331521
0.00327965
0.00324473
0.00321046
0.00317687
0.00314397
0.00311178
0.0030803
0.00304957
0.00301955
0.00299023
0.00296158
0.00293358
0.00290617
0.00287932
0.00285296
0.00282699
0.00280118
0.00277515
0.00274789
0.00271503
0.00265704
1.9288e-05
0.000139147
0.000273069
0.000383134
0.000470793
0.000539376
0.00059358
0.000637293
0.000673573
0.000704757
0.000732606
0.000758439
0.00078326
0.000807845
0.000832791
0.000858514
0.000885239
0.000912991
0.000941656
0.000971076
0.00100116
0.00103193
0.00106345
0.00109571
0.00112863
0.00116207
0.00119587
0.00122994
0.00126425
0.00129875
0.00133335
0.00136798
0.0014026
0.00143718
0.00147169
0.00150613
0.00154048
0.00157476
0.00160898
0.00164316
0.00167731
0.00171145
0.0017456
0.00177978
0.001814
0.0018483
0.00188267
0.00191716
0.00195176
0.00198651
0.00202142
0.00205649
0.00209173
0.00212715
0.00216275
0.00219854
0.00223452
0.00227068
0.00230703
0.00234356
0.00238027
0.00241714
0.00245416
0.00249133
0.00252863
0.00256604
0.00260355
0.00264114
0.0026788
0.00271649
0.00275422
0.00279194
0.00282965
0.00286732
0.00290493
0.00294246
0.00297989
0.00301719
0.00305434
0.00309134
0.00312814
0.00316475
0.00320114
0.00323729
0.0032732
0.00330884
0.00334422
0.00337931
0.00341412
0.00344863
0.00348285
0.00351676
0.00355037
0.00358368
0.0036167
0.00364945
0.00368195
0.00371422
0.00374629
0.00377822
0.00381001
0.0038417
0.00387332
0.00390488
0.0039364
0.00396791
0.00399942
0.00403095
0.00406251
0.0040941
0.00412573
0.00415736
0.00418898
0.00422054
0.00425199
0.00428325
0.00431424
0.00434484
0.00437492
0.00440431
0.00443282
0.00446047
0.0044877
0.0045127
0.00453524
0.00455589
0.00457486
0.00459141
0.00460534
0.00461647
0.00462469
0.00462992
0.00463208
0.00463116
0.00462715
0.00462007
0.00460996
0.00459689
0.00458091
0.00456205
0.00454032
0.0045157
0.00448831
0.00445839
0.00442628
0.00439229
0.00435672
0.00431984
0.0042819
0.00424316
0.00420373
0.00416382
0.00412359
0.00408322
0.00404283
0.00400253
0.00396243
0.00392264
0.00388326
0.00384434
0.00380593
0.0037681
0.00373086
0.00369424
0.00365828
0.00362299
0.00358839
0.00355449
0.00352128
0.00348875
0.00345689
0.00342566
0.00339504
0.00336499
0.00333541
0.00330615
0.00327687
0.00324663
0.00321178
0.00315839
2.24477e-05
0.000151991
0.000297762
0.000419578
0.000517923
0.00059641
0.000659365
0.000710829
0.000754034
0.000791508
0.000825188
0.000856536
0.000886646
0.000916328
0.000946167
0.00097656
0.00100774
0.00103979
0.00107271
0.00110641
0.00114081
0.00117585
0.00121149
0.00124769
0.00128438
0.00132149
0.00135893
0.00139661
0.00143448
0.00147247
0.00151052
0.00154857
0.00158658
0.00162452
0.00166237
0.00170013
0.00173779
0.00177537
0.00181287
0.0018503
0.00188769
0.00192506
0.00196242
0.00199979
0.0020372
0.00207466
0.00211219
0.00214982
0.00218757
0.00222545
0.00226347
0.00230165
0.00234
0.00237853
0.00241723
0.00245613
0.00249521
0.00253449
0.00257395
0.0026136
0.00265343
0.00269342
0.00273358
0.00277388
0.00281431
0.00285487
0.00289553
0.00293627
0.00297707
0.00301792
0.00305878
0.00309965
0.00314048
0.00318127
0.00322198
0.00326259
0.00330307
0.0033434
0.00338355
0.00342349
0.00346321
0.00350267
0.00354186
0.00358074
0.00361931
0.00365755
0.00369542
0.00373293
0.00377006
0.00380679
0.00384313
0.00387907
0.0039146
0.00394973
0.00398447
0.00401883
0.00405284
0.00408651
0.00411988
0.00415297
0.00418581
0.00421843
0.00425087
0.00428314
0.0043153
0.00434736
0.00437936
0.00441133
0.0044433
0.0044753
0.00450734
0.00453943
0.00457157
0.00460374
0.00463592
0.00466807
0.00470011
0.00473197
0.00476352
0.00479464
0.00482514
0.00485495
0.00488454
0.00491234
0.00493843
0.00496257
0.00498519
0.00500561
0.00502358
0.00503886
0.00505131
0.00506083
0.0050673
0.00507066
0.00507086
0.00506788
0.00506172
0.0050524
0.00503995
0.00502439
0.00500577
0.0049841
0.00495952
0.0049322
0.00490241
0.00487041
0.00483648
0.00480088
0.00476385
0.00472563
0.00468642
0.00464641
0.00460579
0.00456473
0.00452337
0.00448187
0.00444033
0.00439889
0.00435764
0.00431666
0.00427605
0.00423584
0.00419611
0.00415688
0.00411821
0.00408011
0.00404263
0.00400577
0.00396956
0.00393399
0.00389907
0.00386479
0.00383114
0.00379811
0.00376565
0.00373364
0.00370181
0.00366937
0.00363327
0.00358354
2.51841e-05
0.000162285
0.000317794
0.000449941
0.000557881
0.000645558
0.000716885
0.000775911
0.000825935
0.000869585
0.000908902
0.000945447
0.000980387
0.00101458
0.00104863
0.00108296
0.00111783
0.00115336
0.0011896
0.00122654
0.00126412
0.00130229
0.00134099
0.00138016
0.00141973
0.00145964
0.0014998
0.00154015
0.00158063
0.00162118
0.00166173
0.00170225
0.0017427
0.00178305
0.00182329
0.00186341
0.00190341
0.0019433
0.0019831
0.0020228
0.00206245
0.00210204
0.0021416
0.00218116
0.00222074
0.00226035
0.00230002
0.00233977
0.00237962
0.00241959
0.00245969
0.00249993
0.00254034
0.00258092
0.00262167
0.00266261
0.00270374
0.00274506
0.00278657
0.00282826
0.00287014
0.00291219
0.00295441
0.00299679
0.0030393
0.00308195
0.0031247
0.00316754
0.00321045
0.00325341
0.00329639
0.00333938
0.00338233
0.00342523
0.00346805
0.00351076
0.00355332
0.00359571
0.00363789
0.00367984
0.00372153
0.00376292
0.00380398
0.00384469
0.00388501
0.00392493
0.00396441
0.00400344
0.004042
0.00408008
0.00411765
0.00415472
0.00419127
0.00422731
0.00426284
0.00429787
0.00433242
0.0043665
0.00440014
0.00443337
0.00446621
0.00449871
0.00453089
0.00456281
0.00459449
0.00462599
0.00465736
0.00468865
0.0047199
0.00475118
0.00478252
0.00481396
0.00484553
0.00487727
0.00490917
0.00494122
0.00497341
0.00500568
0.00503796
0.00507014
0.00510208
0.00513366
0.00516524
0.00519566
0.00522501
0.0052529
0.00527942
0.00530412
0.00532667
0.00534677
0.00536427
0.00537901
0.00539085
0.00539968
0.00540539
0.00540789
0.00540714
0.00540311
0.00539577
0.00538514
0.00537124
0.0053541
0.00533382
0.00531056
0.00528451
0.00525592
0.00522502
0.00519207
0.00515731
0.00512097
0.00508327
0.00504443
0.00500463
0.00496407
0.00492291
0.00488132
0.00483942
0.00479737
0.00475526
0.00471322
0.00467132
0.00462966
0.00458829
0.00454729
0.00450669
0.00446655
0.00442691
0.00438779
0.00434924
0.00431126
0.00427389
0.00423713
0.004201
0.00416552
0.00413067
0.0040964
0.00406251
0.00402832
0.00399137
0.00394528
2.7457e-05
0.000170194
0.000333446
0.000474365
0.00059081
0.00068685
0.000765979
0.00083216
0.000888687
0.000938216
0.000982844
0.00102419
0.00106349
0.00110164
0.00113931
0.00117694
0.00121482
0.00125314
0.00129197
0.00133135
0.00137126
0.00141167
0.00145253
0.00149379
0.00153537
0.00157721
0.00161924
0.00166139
0.00170362
0.00174586
0.00178806
0.00183017
0.00187218
0.00191405
0.00195578
0.00199736
0.00203878
0.00208007
0.00212123
0.00216228
0.00220323
0.00224411
0.00228494
0.00232574
0.00236654
0.00240735
0.00244821
0.00248912
0.00253012
0.00257122
0.00261245
0.00265381
0.00269533
0.00273701
0.00277886
0.00282091
0.00286314
0.00290557
0.00294819
0.00299101
0.00303403
0.00307723
0.00312062
0.00316418
0.00320789
0.00325175
0.00329574
0.00333984
0.00338403
0.00342829
0.00347259
0.0035169
0.0035612
0.00360546
0.00364964
0.00369372
0.00373765
0.0037814
0.00382494
0.00386823
0.00391123
0.0039539
0.00399621
0.00403812
0.0040796
0.00412061
0.00416112
0.00420109
0.00424051
0.00427936
0.0043176
0.00435522
0.00439222
0.00442858
0.0044643
0.00449939
0.00453386
0.00456771
0.00460098
0.00463368
0.00466585
0.00469753
0.00472875
0.00475957
0.00479004
0.00482023
0.00485019
0.00488001
0.00490976
0.00493951
0.00496935
0.00499934
0.00502956
0.00506007
0.00509092
0.00512217
0.00515381
0.00518586
0.00521828
0.00525102
0.00528398
0.00531705
0.00535038
0.00538332
0.00541577
0.00544747
0.0054782
0.00550757
0.00553524
0.00556073
0.00558397
0.00560476
0.00562292
0.00563824
0.00565056
0.00565974
0.00566566
0.00566821
0.00566734
0.00566299
0.00565516
0.00564385
0.00562914
0.00561115
0.00559004
0.00556601
0.00553927
0.00551008
0.00547866
0.00544526
0.00541009
0.0053734
0.00533538
0.00529625
0.00525618
0.00521535
0.00517393
0.00513206
0.00508987
0.0050475
0.00500505
0.00496261
0.00492027
0.00487812
0.0048362
0.00479459
0.00475334
0.00471249
0.00467209
0.00463219
0.00459281
0.004554
0.0045158
0.00447824
0.00444136
0.00440515
0.00436948
0.0043338
0.00429614
0.00425241
2.92541e-05
0.000175921
0.000345043
0.000493163
0.000616957
0.000720408
0.000806608
0.000879369
0.000941916
0.000996889
0.0010464
0.0010921
0.00113526
0.00117684
0.00121755
0.00125788
0.00129816
0.00133862
0.00137937
0.00142048
0.00146196
0.00150381
0.00154601
0.00158853
0.0016313
0.00167425
0.00171731
0.00176044
0.00180359
0.00184671
0.00188973
0.00193261
0.00197533
0.00201785
0.00206018
0.00210232
0.00214427
0.00218604
0.00222764
0.00226911
0.00231045
0.0023517
0.00239287
0.00243399
0.00247508
0.00251618
0.0025573
0.00259847
0.00263971
0.00268106
0.00272251
0.00276411
0.00280586
0.00284777
0.00288987
0.00293217
0.00297467
0.00301739
0.00306032
0.00310347
0.00314684
0.00319043
0.00323424
0.00327824
0.00332245
0.00336683
0.00341139
0.00345609
0.00350092
0.00354585
0.00359087
0.00363594
0.00368103
0.00372611
0.00377114
0.00381609
0.00386092
0.00390558
0.00395004
0.00399425
0.00403817
0.00408175
0.00412494
0.00416771
0.00421001
0.00425179
0.00429301
0.00433363
0.00437362
0.00441294
0.00445157
0.00448947
0.00452662
0.00456301
0.00459863
0.00463348
0.00466755
0.00470085
0.0047334
0.00476522
0.00479635
0.00482682
0.00485668
0.00488599
0.00491481
0.00494321
0.00497129
0.00499914
0.00502685
0.00505453
0.00508229
0.00511026
0.00513853
0.00516723
0.00519646
0.00522631
0.00525686
0.00528816
0.00532024
0.00535308
0.00538666
0.00542091
0.00545579
0.0054911
0.00552661
0.00556207
0.0055971
0.00563147
0.00566469
0.00569612
0.00572567
0.0057532
0.00577844
0.00580114
0.00582104
0.00583793
0.0058516
0.00586187
0.00586862
0.00587173
0.00587113
0.00586681
0.00585878
0.00584712
0.00583197
0.0058135
0.0057919
0.0057674
0.00574024
0.00571065
0.00567887
0.00564515
0.00560969
0.00557274
0.00553448
0.00549512
0.00545483
0.00541378
0.00537213
0.00533002
0.00528757
0.0052449
0.00520212
0.0051593
0.00511654
0.00507391
0.00503148
0.00498931
0.00494746
0.00490598
0.00486495
0.00482441
0.00478443
0.00474507
0.00470641
0.00466847
0.00463119
0.00459414
0.00455574
0.00451344
3.05862e-05
0.000179686
0.000352944
0.000506709
0.000636634
0.000746437
0.000838844
0.000917461
0.0009854
0.00104525
0.0010991
0.00114861
0.00119506
0.00123945
0.00128262
0.00132507
0.00136716
0.00140912
0.00145113
0.00149327
0.00153559
0.00157812
0.00162087
0.00166382
0.00170692
0.0017501
0.00179332
0.00183655
0.00187979
0.00192304
0.0019661
0.00200892
0.00205147
0.00209377
0.0021358
0.00217758
0.00221911
0.00226042
0.00230154
0.00234247
0.00238326
0.00242393
0.0024645
0.00250501
0.00254548
0.00258595
0.00262643
0.00266697
0.00270759
0.00274831
0.00278915
0.00283015
0.00287132
0.00291268
0.00295425
0.00299605
0.00303808
0.00308037
0.00312292
0.00316573
0.00320882
0.00325217
0.0032958
0.00333969
0.00338383
0.00342822
0.00347284
0.00351767
0.0035627
0.00360789
0.00365323
0.00369869
0.00374422
0.0037898
0.00383539
0.00388094
0.00392641
0.00397176
0.00401694
0.00406188
0.00410656
0.0041509
0.00419485
0.00423837
0.00428139
0.00432386
0.00436572
0.00440694
0.00444745
0.00448721
0.00452618
0.00456432
0.0046016
0.00463799
0.00467347
0.00470802
0.00474164
0.00477433
0.0048061
0.00483696
0.00486694
0.00489608
0.00492444
0.00495207
0.00497904
0.00500546
0.0050314
0.00505699
0.00508235
0.00510762
0.00513294
0.00515848
0.00518438
0.00521081
0.00523793
0.0052659
0.00529486
0.00532494
0.00535621
0.00538872
0.00542249
0.00545752
0.00549378
0.00553123
0.0055697
0.00560875
0.00564802
0.0056875
0.00572642
0.00576434
0.00580064
0.00583544
0.0058684
0.00589919
0.00592747
0.00595294
0.0059753
0.0059943
0.00600969
0.0060213
0.00602898
0.00603266
0.00603231
0.00602797
0.00601972
0.00600771
0.00599212
0.00597316
0.00595106
0.00592607
0.00589842
0.00586838
0.00583617
0.00580204
0.00576622
0.00572891
0.00569032
0.00565064
0.00561004
0.00556869
0.00552672
0.00548427
0.00544147
0.00539841
0.00535519
0.00531192
0.00526866
0.0052255
0.00518251
0.00513977
0.00509735
0.00505534
0.00501381
0.00497287
0.0049326
0.00489308
0.0048543
0.00481593
0.00477669
0.00473511
3.1473e-05
0.000181722
0.000357509
0.000515368
0.0006502
0.000765111
0.000862786
0.000946407
0.00101896
0.00108295
0.0011405
0.00119322
0.00124236
0.00128886
0.00133372
0.00137747
0.00142054
0.0014632
0.00150565
0.00154803
0.00159043
0.00163288
0.00167539
0.00171797
0.00176058
0.00180318
0.00184575
0.00188828
0.00193072
0.00197325
0.00201546
0.00205733
0.00209882
0.00213994
0.00218071
0.00222115
0.00226127
0.00230113
0.00234074
0.00238015
0.0024194
0.00245851
0.00249752
0.00253646
0.00257538
0.0026143
0.00265327
0.0026923
0.00273145
0.00277073
0.00281017
0.00284981
0.00288967
0.00292977
0.00297014
0.0030108
0.00305177
0.00309305
0.00313467
0.00317664
0.00321895
0.00326162
0.00330465
0.00334803
0.00339176
0.00343582
0.00348021
0.00352491
0.00356989
0.00361514
0.00366062
0.0037063
0.00375215
0.00379812
0.00384418