/*--------------------------------*- C++ -*----------------------------------*\
  =========                 |
  \\      /  F ield         | OpenFOAM: The Open Source CFD Toolbox
   \\    /   O peration     | Website:  https://openfoam.org
    \\  /    A nd           | Version:  9
     \\/     M anipulation  |
\*---------------------------------------------------------------------------*/
FoamFile
{
    format      ascii;
    class       volScalarField;
    location    "0.15";
    object      nut;
}
// * * * * * * * * * * * * * * * * * * * * * * * * * * * * * * * * * * * * * //

dimensions      [0 2 -1 0 0 0 0];

internalField   nonuniform List<scalar> 
2268
(
9.71464e-05
8.60331e-05
0.00010099
0.000111708
0.000120356
0.000127883
0.000134818
0.00014151
0.000148195
0.000154997
0.000161911
0.000168795
0.000175373
0.000181259
0.000186001
0.000189129
0.000190186
0.000188723
0.000184485
0.000178273
0.000169816
0.000158477
0.000132486
0.000189343
0.000531418
0.000774791
0.000958381
0.00110632
0.00123173
0.00134243
0.00144321
0.00153653
0.00162257
0.00169949
0.00176366
0.00181034
0.00183427
0.00183044
0.00179485
0.00172522
0.00162116
0.00146804
0.00119084
0.000931955
0.000766004
0.000396338
0.000205553
0.000790545
0.00129252
0.00172191
0.00209665
0.00242926
0.00272928
0.00300355
0.00325546
0.00348433
0.00368541
0.00385066
0.00397005
0.00403325
0.0040313
0.00395852
0.00381378
0.00359985
0.00330857
0.00282956
0.00222991
0.00158774
0.00045373
0.000215361
0.000941769
0.00163453
0.00227028
0.00285199
0.0033829
0.00386797
0.00431226
0.00471835
0.00508451
0.00540414
0.00566646
0.00585823
0.0059661
0.00597939
0.00589284
0.00570777
0.00542785
0.0050376
0.00442333
0.00358642
0.00246647
0.000503596
0.000221951
0.00104097
0.00187292
0.0026718
0.00342668
0.00412931
0.00477715
0.0053712
0.00591207
0.00639689
0.006818
0.00716323
0.00741776
0.00756699
0.0076002
0.00751369
0.00730979
0.00698339
0.0064811
0.00563375
0.0044853
0.00308137
0.000551315
0.000226705
0.00111048
0.00204663
0.00297366
0.00387006
0.00471702
0.00550382
0.00622635
0.00688243
0.00746783
0.00797404
0.00838812
0.00869456
0.00887869
0.00893087
0.00884911
0.00863301
0.00825367
0.00758024
0.00635828
0.00486417
0.00341636
0.000597818
0.000230313
0.00116057
0.00217698
0.00320531
0.00421623
0.00518246
0.00608586
0.00691702
0.00767059
0.00834058
0.00891745
0.00938756
0.0097351
0.009946
0.0100123
0.0099334
0.00970164
0.00924936
0.00833713
0.00664519
0.00495075
0.0036644
0.000647163
0.000233169
0.00119707
0.00227659
0.0033858
0.00448889
0.00555234
0.006552
0.00747367
0.00830869
0.00904892
0.00968339
0.0101975
0.0105752
0.0108032
0.010876
0.0107937
0.0105388
0.00999695
0.00881263
0.00667781
0.00505604
0.00407388
0.000709549
7.06569e-05
8.88249e-05
9.91059e-05
0.000103767
0.000104168
0.000102769
0.000100915
9.92158e-05
9.79028e-05
9.7009e-05
9.63118e-05
9.5725e-05
9.5186e-05
9.44793e-05
9.335e-05
9.13211e-05
8.74085e-05
7.95558e-05
0.000102599
0.000221788
0.000549286
0.000755398
0.000867104
0.000908659
0.000907142
0.000887076
0.00086192
0.000838411
0.000819717
0.000805929
0.000795512
0.000785975
0.000773884
0.000753735
0.000716571
0.000646433
0.000508757
0.000214107
0.000250419
0.000916416
0.00133455
0.00160568
0.00174182
0.00177652
0.00175493
0.00171052
0.00166378
0.00162447
0.00159426
0.00157009
0.00154596
0.00151279
0.00145643
0.00135482
0.00117239
0.000843795
0.000233244
0.000271822
0.00117775
0.00176217
0.00218447
0.00244038
0.00254692
0.00255292
0.00250753
0.00244722
0.00239153
0.00234601
0.00230721
0.00226562
0.00220594
0.00210448
0.00192588
0.00161805
0.00109809
0.00024584
0.000293679
0.00139584
0.00209292
0.00263617
0.00301708
0.00322077
0.00328151
0.00325464
0.00319163
0.00312443
0.00306502
0.00301073
0.00294895
0.00285786
0.00270409
0.00244009
0.00200158
0.00129919
0.000254826
0.000322433
0.00163056
0.00236824
0.00298481
0.00348159
0.00379916
0.00393946
0.00395093
0.00389685
0.00382362
0.00375207
0.00368179
0.00359728
0.00347043
0.00325848
0.00290345
0.00233336
0.00146103
0.000261497
0.000366617
0.001918
0.00261638
0.00324827
0.00383925
0.00427984
0.00452233
0.00459222
0.00455936
0.00448587
0.00440414
0.00431764
0.00420844
0.00404229
0.00376786
0.00331887
0.00261983
0.00159213
0.000266569
0.000448939
0.00225387
0.00284682
0.00344541
0.00409762
0.00466131
0.00502561
0.00517465
0.00517578
0.00510756
0.0050171
0.00491415
0.00477892
0.004571
0.00423156
0.00368827
0.00286588
0.00169853
0.000270476
0.000235686
0.00122902
0.00237393
0.00357315
0.00478151
0.00595814
0.00707182
0.00810204
0.00903505
0.00985883
0.0105594
0.0111203
0.0115251
0.0117631
0.0118336
0.0117409
0.0114561
0.0108041
0.00929684
0.00681493
0.0055799
0.00490514
0.00172656
0.000238651
0.00125355
0.00245972
0.00374032
0.00503912
0.00630982
0.00751723
0.00863659
0.00964917
0.0105372
0.0112806
0.0118582
0.0122531
0.0124607
0.0124949
0.0123794
0.0121018
0.0114947
0.0101285
0.00813307
0.00606669
0.00505069
0.00292457
0.000241079
0.00126832
0.0025172
0.0038527
0.00520867
0.00653572
0.00779762
0.00896774
0.0100231
0.0109386
0.0116861
0.0122385
0.0125812
0.0127251
0.0127153
0.0126185
0.0124612
0.0121175
0.0112831
0.00937568
0.00642485
0.00498281
0.00374019
0.000243265
0.00128102
0.00256228
0.00393487
0.00532556
0.00668406
0.00797475
0.00916987
0.0102412
0.0111545
0.0118714
0.0123617
0.012623
0.0126998
0.0126888
0.0127033
0.0127797
0.0128076
0.0123488
0.0103896
0.00708683
0.00493225
0.00398685
0.000245329
0.00129584
0.00260553
0.00400465
0.00541602
0.00679061
0.00809431
0.00929765
0.0103652
0.011251
0.0119082
0.0123121
0.0124902
0.0125407
0.012615
0.0128321
0.0131941
0.0135269
0.013217
0.0113846
0.0079034
0.00498976
0.0038945
0.000247305
0.00131449
0.00265275
0.00407365
0.00549864
0.00688142
0.00818936
0.00938972
0.0104374
0.0112747
0.0118523
0.0121672
0.0122949
0.0123944
0.0126382
0.0131036
0.013752
0.014228
0.0138667
0.0121238
0.00869612
0.00520061
0.0037045
0.000249201
0.00133718
0.00270628
0.00414847
0.00558562
0.00697432
0.00828222
0.00947109
0.0104849
0.011258
0.0117515
0.012
0.0121364
0.0123597
0.0128182
0.0135319
0.0143484
0.014751
0.0142608
0.0125901
0.0094001
0.00565892
0.00367063
0.000251033
0.00136334
0.00276587
0.00423186
0.00568416
0.00708064
0.00838654
0.00955609
0.0105241
0.0112262
0.0116488
0.0118737
0.0120809
0.0124713
0.0131451
0.0140735
0.0148665
0.0150422
0.0143912
0.0128074
0.00998763
0.00639299
0.00404831
0.000252858
0.00139179
0.00282854
0.00432334
0.00579814
0.00720753
0.00851037
0.00965296
0.0105672
0.011203
0.0115832
0.0118325
0.0121516
0.0127126
0.0135735
0.0146155
0.0152506
0.0151218
0.0143103
0.0128388
0.0104777
0.00737077
0.00498362
0.000254818
0.00141775
0.00288604
0.00441921
0.00592987
0.0073607
0.00866012
0.00976941
0.0106283
0.0112136
0.0115864
0.0118988
0.0123418
0.0130419
0.0140085
0.0149614
0.0153532
0.014963
0.0140523
0.0127433
0.0109014
0.00849995
0.00642152
0.0002573
0.00142208
0.00292064
0.00451336
0.00608247
0.00754749
0.0088447
0.00991813
0.0107285
0.0112866
0.0116845
0.0120809
0.0126368
0.0134356
0.0144463
0.0151666
0.0151837
0.0145932
0.0136712
0.0125934
0.0112796
0.00962555
0.00807351
0.000261437
0.00136203
0.00290989
0.00460459
0.00626577
0.00778161
0.009081
0.0101232
0.010901
0.0114578
0.0119021
0.0123819
0.0130204
0.0138781
0.0147927
0.0151312
0.0148184
0.014097
0.0132521
0.012455
0.0116192
0.0105881
0.00956812
0.000270359
0.00121727
0.00285899
0.00471442
0.00650491
0.00808814
0.00939748
0.0104208
0.0111868
0.0117617
0.012256
0.0127983
0.0134725
0.0143066
0.0148987
0.0148551
0.0143117
0.0135579
0.0128653
0.012361
0.0119064
0.0113132
0.0106774
0.000288519
0.00108872
0.00284745
0.00489998
0.00683966
0.00849771
0.00982571
0.0108462
0.0116146
0.0122103
0.0127459
0.013331
0.0140025
0.0145913
0.0147211
0.0144044
0.0137591
0.0130663
0.0125704
0.0123241
0.0121279
0.0117939
0.0113775
0.000310688
0.00118176
0.00305119
0.00525202
0.00731046
0.00902182
0.010358
0.0113711
0.0121376
0.0127466
0.0132911
0.0138417
0.0143395
0.014552
0.0144175
0.0139447
0.0132832
0.0127117
0.0124122
0.0123464
0.0122822
0.0120658
0.0117449
0.000325415
0.00162528
0.00368261
0.00582668
0.00788547
0.00958078
0.0108885
0.0118837
0.0126479
0.0132453
0.0137263
0.0141279
0.0144051
0.0144224
0.0141184
0.0135801
0.0129805
0.0125548
0.0124032
0.0124156
0.0123749
0.012179
0.0118774
0.000326902
0.0019843
0.00411035
0.00637113
0.00842792
0.0100802
0.0113408
0.0122917
0.0130135
0.0135651
0.0139837
0.0142767
0.0144002
0.0142826
0.0139152
0.0134012
0.012904
0.0125988
0.0125112
0.0125046
0.0124124
0.0121814
0.0118606
0.000317312
0.00214249
0.00451866
0.00685823
0.00887033
0.0104548
0.011656
0.0125616
0.0132484
0.013766
0.0141374
0.0143578
0.0143963
0.0142257
0.0138716
0.0134262
0.0130241
0.0127785
0.0126703
0.0125797
0.0123995
0.0121109
0.0117577
0.000310839
0.00229256
0.00485785
0.00722677
0.0091915
0.0107157
0.0118644
0.0127305
0.0133889
0.013883
0.0142272
0.0144141
0.014427
0.0142634
0.0139589
0.0135844
0.0132396
0.0129913
0.0128095
0.0126117
0.0123395
0.0119933
0.0116099
0.00030807
0.00241111
0.00508063
0.00745904
0.00938705
0.0108657
0.0119741
0.0128091
0.0134453
0.0139235
0.0142557
0.0144365
0.0144586
0.0143286
0.0140777
0.013755
0.0134301
0.0131442
0.0128767
0.0125819
0.0122343
0.0118437
0.01144
0.000306364
0.00248206
0.00519312
0.0075645
0.00946332
0.0109086
0.0119867
0.0127965
0.0134135
0.0138785
0.0142045
0.0143894
0.0144302
0.0143343
0.0141246
0.0138341
0.0135104
0.0131835
0.0128471
0.012483
0.0120856
0.0116691
0.0112581
0.000304159
0.00250686
0.00521153
0.00755817
0.00942877
0.0108475
0.0119013
0.012689
0.0132865
0.0137366
0.0140546
0.0142415
0.0142963
0.0142246
0.0140423
0.0137729
0.0134489
0.0130957
0.0127186
0.0123167
0.011896
0.0114728
0.0110678
0.00030102
0.00249313
0.0051531
0.00745674
0.00929468
0.0106886
0.0117207
0.0124869
0.0130632
0.0134948
0.0138002
0.0139833
0.0140442
0.0139872
0.0138236
0.0135714
0.013254
0.0128939
0.0125033
0.0120914
0.0116706
0.0112577
0.0108705
0.000297078
0.00245029
0.00503607
0.0072796
0.00907706
0.0104439
0.0114541
0.0121983
0.0127519
0.013162
0.0134508
0.0136252
0.0136866
0.0136387
0.0134902
0.0132556
0.0129531
0.0126029
0.0122206
0.0118202
0.0114172
0.0110281
0.0106683
0.000292625
0.00238835
0.0048798
0.00704908
0.00879702
0.0101319
0.0111179
0.0118391
0.0123688
0.012756
0.0130261
0.0131891
0.0132483
0.0132074
0.0130737
0.012859
0.0125787
0.0122506
0.0118918
0.0115181
0.0111457
0.0107902
0.010465
0.000287957
0.00231677
0.00470331
0.00678892
0.0084792
0.00977592
0.0107342
0.0114306
0.0119357
0.0122995
0.0125503
0.0127011
0.0127574
0.0127232
0.0126049
0.0124127
0.01216
0.0118627
0.0115374
0.0112003
0.010867
0.0105517
0.0102657
0.000283332
0.00224319
0.00452309
0.00652148
0.00814883
0.00940196
0.0103282
0.0109974
0.011477
0.0118173
0.012049
0.0121877
0.012241
0.0122136
0.0121116
0.0119439
0.0117225
0.0114615
0.0111761
0.0108816
0.0105924
0.0103209
0.0100763
0.000278922
0.00217284
0.00435138
0.00626487
0.00782833
0.00903486
0.0099257
0.0105654
0.0110183
0.0113349
0.0115476
0.0116745
0.0117248
0.0117043
0.0116191
0.0114771
0.0112888
0.0110671
0.0108249
0.010576
0.0103329
0.010106
0.00990241
0.000274828
0.00210867
0.00419554
0.00603124
0.0075344
0.00869503
0.00954962
0.0101586
0.0105843
0.010877
0.0110709
0.0111861
0.0112334
0.0112198
0.0111511
0.0110347
0.0108798
0.0106977
0.0104993
0.010296
0.0100982
0.00991392
0.00974871
0.000271093
0.00205186
0.00405879
0.00582671
0.00727675
0.00839588
0.00921658
0.00979613
0.0101954
0.0104652
0.0106411
0.010745
0.0107894
0.0107821
0.0107292
0.0106372
0.0105142
0.0103694
0.0102125
0.0100517
0.00989514
0.00974912
0.00961761
0.000267718
0.00200257
0.00394162
0.00565287
0.00705886
0.00814337
0.00893529
0.00948924
0.00986519
0.0101144
0.010274
0.0103678
0.0104097
0.0104081
0.0103694
0.0102995
0.010205
0.0100933
0.00997232
0.00984816
0.00972683
0.00961291
0.0095093
0.000264688
0.00196058
0.00384345
0.00550904
0.00688032
0.0079379
0.00870729
0.00924092
0.009598
0.00983041
0.00997668
0.0100621
0.0101019
0.0101054
0.0100788
0.0100274
0.00995658
0.00987223
0.00978017
0.00968553
0.00959227
0.00950374
0.00942209
0.000262014
0.00192594
0.00376416
0.00539462
0.00673981
0.00777728
0.00852983
0.00904814
0.00939092
0.00961054
0.00974665
0.00982579
0.0098643
0.00987191
0.00985487
0.00981796
0.0097656
0.00970226
0.00963235
0.00955991
0.00948776
0.0094183
0.00935316
0.000259774
0.0018996
0.00370549
0.00531125
0.00663767
0.0076599
0.00839914
0.0089053
0.00923697
0.00944691
0.00957552
0.00965018
0.0096879
0.00969877
0.00968896
0.00966279
0.00962393
0.00957587
0.00952199
0.00946542
0.00940837
0.0093526
0.00929937
0.000258199
0.00188403
0.00367245
0.00526464
0.0065781
0.00758692
0.00831294
0.00880699
0.00912824
0.00932982
0.00945241
0.00952369
0.00956093
0.00957429
0.00956978
0.00955131
0.00952195
0.00948452
0.00944171
0.00939597
0.00934923
0.0093028
0.00925771
0.000257831
0.0018837
0.00367478
0.00526646
0.00657067
0.0075635
0.00827153
0.00874927
0.00905753
0.00924973
0.00936625
0.00943442
0.00947119
0.00948646
0.00948588
0.00947296
0.00945029
0.00942015
0.00938479
0.00934621
0.00930608
0.00926551
0.00922555
0.000259874
0.00190533
0.00372862
0.0053361
0.00663122
0.00759888
0.00827753
0.00872947
0.0090184
0.00919766
0.00930645
0.00937084
0.00940681
0.00942353
0.00942611
0.00941753
0.00939988
0.00937503
0.00934485
0.00931106
0.00927502
0.00923778
0.00920056
0.000266676
0.00195808
0.00385893
0.0055025
0.00678166
0.00770475
0.00833407
0.00874479
0.00900427
0.00916466
0.00926256
0.00932161
0.009356
0.00937372
0.00937902
0.00937427
0.00936103
0.00934072
0.00931488
0.00928501
0.00925204
0.00921669
0.00918057
0.000281605
0.00205731
0.00410632
0.0058069
0.0070477
0.00789143
0.00844151
0.00879029
0.00900742
0.00914141
0.00922418
0.00927553
0.00930701
0.00932493
0.00933252
0.0093314
0.00932255
0.00930698
0.00928601
0.00926103
0.00923228
0.00919907
0.00916354
0.000308055
0.00224272
0.0045494
0.00630862
0.0074533
0.00816077
0.00859289
0.00885671
0.00901841
0.00911852
0.00918164
0.00922235
0.00924887
0.00926553
0.00927441
0.0092764
0.00927195
0.00926166
0.00924684
0.00922955
0.00920986
0.0091817
0.00914783
0.000350577
0.00264508
0.00537369
0.00709258
0.00800662
0.0084954
0.00876924
0.0089295
0.00902666
0.0090876
0.00912731
0.00915424
0.009173
0.00918593
0.00919406
0.0091977
0.0091969
0.00919191
0.00918415
0.0091779
0.00917951
0.00916277
0.00913314
0.000423896
0.00391321
0.00708348
0.00824318
0.00866336
0.00884531
0.0089378
0.0089902
0.00902212
0.00904274
0.00905681
0.00906691
0.00907439
0.00907995
0.00908384
0.00908614
0.00908682
0.00908594
0.00908446
0.00908882
0.00914339
0.0091456
0.00912229
0.000820714
0.00063102
0.000653338
0.000656625
0.00187523
0.0018418
0.00229253
0.00192611
0.00283913
0.00233636
0.00240115
0.00257631
0.00349531
0.0029816
0.00276906
0.00288314
0.00371669
0.00351691
0.00338003
0.00345034
0.00361788
0.00366121
0.00372653
0.00381696
0.00345448
0.00349007
0.00362303
0.00378792
0.00361234
0.00353978
0.00362465
0.00381522
0.00436024
0.00418507
0.00420589
0.00438908
0.00573678
0.0055084
0.00547906
0.00563125
0.00747028
0.00725057
0.00719267
0.00728846
0.00910947
0.00892781
0.0088541
0.00888336
0.0103462
0.0101943
0.0101043
0.0100736
0.0111163
0.0109766
0.0108678
0.0107894
0.0115056
0.0113627
0.0112342
0.0111209
0.0116326
0.011479
0.0113325
0.0111945
0.0115994
0.011434
0.0112735
0.0111197
0.0114797
0.0113049
0.0111357
0.0109736
0.01132
0.01114
0.0109671
0.0108026
0.0111453
0.0109645
0.0107924
0.0106299
0.0109663
0.0107889
0.0106215
0.0104646
0.010786
0.010616
0.0104566
0.0103083
0.0106051
0.0104459
0.0102975
0.0101602
0.0104246
0.010279
0.0101439
0.0100194
0.0102468
0.0101168
0.00999665
0.00988637
0.0100752
0.00996205
0.00985775
0.00976226
0.00991425
0.00981813
0.0097297
0.00964881
0.00976799
0.00968821
0.0096148
0.00954757
0.00963948
0.00957452
0.00951457
0.00945947
0.00953015
0.00947789
0.00942942
0.0093846
0.00943969
0.00939781
0.00935868
0.00932222
0.00936646
0.0093327
0.00930089
0.00927099
0.00930807
0.00928046
0.00925419
0.00922929
0.00926193
0.00923881
0.00921663
0.00919543
0.00922559
0.00920561
0.00918632
0.00916778
0.00919684
0.00917891
0.00916155
0.00914483
0.00917373
0.00915698
0.00914077
0.0091252
0.00915451
0.00913827
0.00912264
0.0091077
0.00913768
0.00912158
0.00910617
0.00909156
0.00912229
0.00910633
0.00909107
0.00907669
0.0091087
0.00909317
0.00907823
0.00906415
0.00909948
0.0090846
0.00907008
0.00905634
0.00162018
0.00270349
0.0031403
0.00369077
0.00436872
0.00508083
0.00564631
0.00596134
0.00605454
0.00602054
0.0059303
0.0058057
0.00562774
0.00534949
0.00490245
0.00420877
0.0031995
0.00183455
0.000275267
0.00206353
0.00268692
0.0032852
0.0038574
0.00450786
0.00533941
0.00617142
0.00673489
0.00697052
0.00698748
0.00689526
0.00673755
0.00650091
0.00613218
0.00555553
0.00469314
0.00349093
0.0019425
0.00027886
0.00246141
0.00275002
0.00337894
0.00391247
0.00453102
0.0054491
0.00650253
0.00729377
0.00766457
0.00773003
0.00763648
0.0074492
0.00715993
0.00671122
0.00602435
0.00502635
0.00367993
0.00200666
0.000281072
0.00306741
0.00328095
0.0036878
0.00408666
0.00465759
0.00564326
0.00684227
0.00776531
0.00820471
0.00828738
0.00818218
0.00796695
0.00763217
0.00711728
0.00634315
0.00524336
0.00379568
0.00204214
0.000282437
0.00370987
0.00394999
0.00420539
0.004504
0.00509204
0.00614249
0.00735807
0.00824782
0.00864732
0.00869887
0.00856867
0.00832549
0.00795284
0.00738637
0.00654733
0.00537564
0.00386094
0.00205911
0.000283285
0.00410647
0.00436992
0.00468384
0.00511109
0.00585826
0.00694197
0.00802136
0.00873029
0.00900604
0.0089939
0.00882966
0.00856011
0.00815758
0.00755313
0.0066685
0.00544886
0.00389255
0.00206434
0.00028381
0.00420121
0.00465115
0.0051692
0.00584734
0.00677023
0.00781026
0.00866851
0.00914701
0.0092762
0.00919192
0.00899345
0.00870206
0.00827769
0.00764693
0.00673203
0.00548229
0.00390223
0.00206215
0.000284119
0.00439297
0.00509399
0.00587363
0.00676836
0.0077418
0.0086187
0.00920914
0.00945998
0.00945538
0.0093089
0.00908352
0.008777
0.00833832
0.00769059
0.00675677
0.00548953
0.00389775
0.00205524
0.000284269
0.00503605
0.00591881
0.00686151
0.0078067
0.00865522
0.00927562
0.00959752
0.0096571
0.00955069
0.00936114
0.00911967
0.00880518
0.00835858
0.00770086
0.00675609
0.0054798
0.00388415
0.00204526
0.000284291
0.0062169
0.00710613
0.00800362
0.00879648
0.00939209
0.00973206
0.00982747
0.00974871
0.00957758
0.0093654
0.00911841
0.00880218
0.00835248
0.00768958
0.00673912
0.00545922
0.00386469
0.00203328
0.000284205
0.00770215
0.00839957
0.00906473
0.00958093
0.0098901
0.0099882
0.00992127
0.00975798
0.00955517
0.00933736
0.00909312
0.0087796
0.00832999
0.00766495
0.00671203
0.00543186
0.00384151
0.00201999
0.000284022
0.00909347
0.00949892
0.00986069
0.0100875
0.0101531
0.0100791
0.00991496
0.00971184
0.009502
0.00929029
0.00905403
0.00874582
0.00829805
0.00763256
0.006679
0.00540045
0.00381608
0.00200592
0.000283754
0.0101129
0.0102424
0.0103342
0.0103314
0.0102292
0.0100546
0.00984613
0.00963464
0.00943335
0.00923432
0.00900856
0.00870667
0.0082614
0.00759617
0.00664285
0.00536692
0.00378948
0.00199148
0.000283413
0.0107066
0.01063
0.0105293
0.0103778
0.0101816
0.00996318
0.00974616
0.00954505
0.00936025
0.00917648
0.00896168
0.00866603
0.0082232
0.00755835
0.00660555
0.00533263
0.00376253
0.001977
0.000283011
0.0109566
0.010748
0.0105322
0.0103025
0.0100679
0.00984252
0.00963734
0.00945544
0.00928969
0.0091211
0.0089165
0.00862635
0.00818549
0.00752079
0.00656848
0.00529861
0.00373588
0.00196278
0.000282559
0.0109799
0.0106984
0.0104268
0.0101684
0.00992997
0.0097176
0.00953314
0.00937278
0.00922546
0.00907056
0.00887474
0.00858909
0.00814956
0.00748463
0.00653259
0.0052656
0.00371005
0.00194905
0.000282068
0.0108776
0.0105638
0.010276
0.0100181
0.00979345
0.00960213
0.00944021
0.00930017
0.00916909
0.00902582
0.00883722
0.00855501
0.00811614
0.00745059
0.00649853
0.00523417
0.00368543
0.00193601
0.000281551
0.0107199
0.0103992
0.0101168
0.00987442
0.00967088
0.00950176
0.00936071
0.00923827
0.00912078
0.00898703
0.00880416
0.00852441
0.00808561
0.00741906
0.00646672
0.00520468
0.00366231
0.0019238
0.000281016
0.010548
0.010235
0.00996839
0.00974673
0.00956536
0.00941727
0.00929425
0.00918636
0.00907993
0.00895381
0.00877536
0.00849724
0.00805802
0.00739017
0.00643732
0.0051773
0.00364082
0.00191249
0.000280471
0.0103816
0.0100842
0.00983752
0.00963734
0.00947654
0.00934667
0.00923885
0.00914305
0.00904559
0.00892549
0.00875036
0.00847317
0.00803311
0.00736375
0.00641021
0.00515194
0.00362088
0.00190201
0.000279924
0.0102275
0.00994983
0.00972445
0.00954477
0.00940226
0.00928789
0.0091927
0.00910673
0.00901646
0.00890109
0.00872839
0.0084516
0.00801038
0.00733934
0.00638498
0.00512819
0.00360196
0.00189159
0.000279427
0.0100861
0.00983076
0.00962683
0.00946626
0.00933992
0.0092388
0.00915417
0.0090763
0.00899182
0.00888004
0.00870885
0.00843176
0.00798904
0.00731617
0.00636087
0.00510534
0.00358344
0.00188069
0.000279062
0.00995591
0.00972456
0.00954188
0.0093991
0.00928717
0.00919751
0.00912185
0.00905076
0.00897104
0.00886208
0.00869184
0.00841404
0.00796949
0.00729454
0.00633812
0.00508365
0.00356583
0.00187052
0.000278784
0.0098354
0.00962911
0.00946727
0.00934111
0.00924214
0.00916253
0.00909459
0.00902927
0.00895354
0.00884687
0.00867725
0.0083986
0.00795218
0.00727517
0.0063176
0.00506403
0.00354993
0.00186152
0.00027852
0.00972401
0.00954308
0.00940136
0.00929065
0.00920341
0.00913269
0.00907148
0.00901113
0.00893882
0.00883406
0.0086649
0.00838541
0.00793726
0.00725835
0.0062997
0.0050469
0.00353612
0.00185388
0.000278262
0.00962196
0.00946581
0.00934309
0.0092466
0.00916993
0.0091071
0.0090518
0.0089958
0.00892646
0.00882337
0.00865461
0.00837441
0.00792476
0.00724421
0.00628463
0.00503249
0.00352459
0.00184766
0.000278009
0.00952989
0.00939704
0.00929179
0.00920816
0.00914093
0.00908509
0.00903499
0.0089828
0.00891608
0.0088145
0.00864619
0.00836548
0.00791465
0.00723278
0.00627246
0.00502088
0.0035154
0.00184287
0.000277765
0.00944839
0.00933661
0.00924695
0.00917471
0.0091158
0.0090661
0.00902058
0.00897175
0.00890738
0.00880722
0.00863945
0.00835847
0.00790683
0.007224
0.00626314
0.00501206
0.00350852
0.00183944
0.000277534
0.00937769
0.00928426
0.00920811
0.00914574
0.00909406
0.00904971
0.00900819
0.00896234
0.00890011
0.00880132
0.0086342
0.00835326
0.00790118
0.00721776
0.00625659
0.00500592
0.00350385
0.0018373
0.000277318
0.00931749
0.00923948
0.00917474
0.00912075
0.00907527
0.00903555
0.00899752
0.00895432
0.00889404
0.0087966
0.00863029
0.00834966
0.00789754
0.0072139
0.00625265
0.00500233
0.00350127
0.00183635
0.00027712
0.00926702
0.00920161
0.00914626
0.00909929
0.00905905
0.0090233
0.00898832
0.00894746
0.00888898
0.0087929
0.00862756
0.00834755
0.00789575
0.00721227
0.00625114
0.00500111
0.00350063
0.0018365
0.000276941
0.00922517
0.0091698
0.00912207
0.00908088
0.00904504
0.00901268
0.00898034
0.00894157
0.00888479
0.00879008
0.00862586
0.00834675
0.00789565
0.00721267
0.00625188
0.00500207
0.00350175
0.00183765
0.000276785
0.00919068
0.00914316
0.00910152
0.00906505
0.0090329
0.00900343
0.00897339
0.00893651
0.00888131
0.00878802
0.00862507
0.00834713
0.00789706
0.0072149
0.00625464
0.005005
0.00350448
0.00183969
0.00027665
0.00916222
0.00912075
0.00908394
0.00905134
0.00902227
0.00899528
0.00896726
0.0089321
0.00887843
0.00878657
0.00862506
0.00834853
0.00789981
0.00721877
0.00625922
0.0050097
0.00350864
0.00184252
0.000276539
0.00913852
0.00910164
0.00906866
0.00903924
0.0090128
0.00898797
0.00896177
0.00892819
0.008876
0.00878563
0.00862568
0.00835081
0.00790371
0.00722407
0.00626538
0.00501595
0.00351405
0.00184603
0.000276452
0.00911833
0.00908491
0.00905501
0.00902826
0.0090041
0.00898121
0.00895668
0.00892461
0.00887389
0.00878506
0.00862681
0.0083538
0.00790857
0.00723055
0.00627288
0.00502351
0.00352052
0.00185011
0.000276389
0.00910054
0.00906971
0.00904231
0.00901789
0.00899581
0.00897473
0.00895178
0.00892118
0.00887194
0.00878472
0.00862828
0.00835728
0.00791413
0.00723794
0.00628141
0.0050321
0.00352781
0.00185462
0.000276348
0.00908418
0.00905532
0.00903006
0.00900775
0.00898762
0.00896829
0.00894691
0.00891777
0.00887002
0.00878445
0.0086299
0.00836104
0.00792011
0.00724588
0.0062906
0.00504134
0.00353563
0.0018594
0.000276329
0.00906873
0.00904143
0.00901807
0.00899774
0.00897948
0.00896185
0.00894201
0.00891433
0.00886806
0.00878413
0.00863148
0.00836478
0.00792611
0.0072539
0.00629991
0.00505074
0.00354357
0.00186419
0.000276327
0.00905438
0.00902842
0.00900676
0.00898823
0.00897172
0.00895567
0.00893728
0.00891097
0.0088661
0.00878371
0.00863285
0.00836818
0.00793165
0.00726137
0.00630864
0.00505956
0.00355101
0.0018686
0.000276336
0.00904238
0.00901755
0.0089973
0.00898027
0.00896519
0.00895046
0.00893326
0.00890808
0.00886437
0.00878326
0.00863387
0.00837087
0.00793612
0.00726746
0.00631581
0.00506684
0.00355705
0.00187196
0.000276344
0.00903504
0.00901097
0.00899157
0.00897542
0.00896119
0.00894725
0.00893077
0.00890627
0.00886325
0.0087829
0.00863441
0.00837243
0.00793878
0.00727115
0.00632023
0.00507139
0.00356089
0.00187404
0.000276321
)
;

boundaryField
{
    leftWall
    {
        type            nutkWallFunction;
        Cmu             0.09;
        kappa           0.41;
        E               9.8;
        value           nonuniform List<scalar> 
50
(
1.77173e-05
2.17403e-05
2.34144e-05
2.4416e-05
2.50841e-05
2.55635e-05
2.59267e-05
2.62143e-05
2.64681e-05
2.67672e-05
2.70122e-05
2.72321e-05
2.74389e-05
2.7636e-05
2.7824e-05
2.80041e-05
2.81805e-05
2.83645e-05
2.85866e-05
2.89351e-05
2.96723e-05
3.16801e-05
3.45036e-05
3.65866e-05
3.73163e-05
3.62522e-05
3.52562e-05
3.47753e-05
3.45081e-05
3.42131e-05
3.38071e-05
3.32983e-05
3.2722e-05
3.21151e-05
3.15108e-05
3.09316e-05
3.03915e-05
2.98965e-05
2.94474e-05
2.90425e-05
2.86827e-05
2.8378e-05
2.81577e-05
2.80921e-05
2.83404e-05
2.92226e-05
3.12123e-05
3.47839e-05
4.05038e-05
5.0133e-05
)
;
    }
    rightWall
    {
        type            nutkWallFunction;
        Cmu             0.09;
        kappa           0.41;
        E               9.8;
        value           nonuniform List<scalar> 
50
(
1.61076e-05
2.22212e-05
2.4914e-05
2.66566e-05
2.78857e-05
2.87918e-05
2.94755e-05
2.99982e-05
3.06344e-05
3.11049e-05
3.13913e-05
3.15656e-05
3.16726e-05
3.1738e-05
3.17758e-05
3.17936e-05
3.17953e-05
3.17831e-05
3.17587e-05
3.17236e-05
3.1679e-05
3.16267e-05
3.15679e-05
3.15041e-05
3.14368e-05
3.13671e-05
3.12962e-05
3.12249e-05
3.11616e-05
3.11171e-05
3.10809e-05
3.10463e-05
3.10122e-05
3.09787e-05
3.09464e-05
3.09157e-05
3.0887e-05
3.08606e-05
3.08368e-05
3.08157e-05
3.07976e-05
3.07826e-05
3.07708e-05
3.0762e-05
3.07564e-05
3.07535e-05
3.07531e-05
3.0754e-05
3.0755e-05
3.0752e-05
)
;
    }
    lowerWall
    {
        type            nutkWallFunction;
        Cmu             0.09;
        kappa           0.41;
        E               9.8;
        value           nonuniform List<scalar> 
62
(
8.7345e-06
1.03548e-05
1.20123e-05
1.31811e-05
1.41103e-05
1.49095e-05
1.56398e-05
1.63418e-05
1.7043e-05
1.77584e-05
1.84883e-05
1.92179e-05
1.99169e-05
2.05432e-05
2.10473e-05
2.13785e-05
2.14895e-05
2.13372e-05
2.08788e-05
2.02249e-05
1.93506e-05
1.82146e-05
1.56522e-05
1.56522e-05
4.18671e-05
4.72806e-05
5.21895e-05
5.71065e-05
6.21538e-05
6.75914e-05
7.414e-05
8.44139e-05
7.12543e-05
7.21712e-05
7.32926e-05
6.91529e-08
2.30377e-05
2.68059e-05
2.9496e-05
3.2083e-05
3.53002e-05
4.01723e-05
4.97321e-05
6.91529e-08
3.06611e-06
4.72993e-06
5.41106e-06
5.46873e-06
5.2786e-06
5.02959e-06
4.80193e-06
4.62395e-06
4.49209e-06
4.39027e-06
4.30547e-06
4.22041e-06
4.10826e-06
3.93084e-06
3.61195e-06
2.99141e-06
1.72259e-06
6.95324e-07
)
;
    }
    atmosphere
    {
        type            calculated;
        value           nonuniform List<scalar> 
46
(
0.009
0.009
0.009
0.009
0.009
0.009
0.009
0.009
0.009
0.009
0.009
0.009
0.009
0.009
0.009
0.009
0.009
0.009
0.009
0.009
0.00914339
0.0091456
0.00912229
0.00909948
0.0090846
0.00907008
0.00905634
0.00903504
0.00901097
0.00899157
0.00897542
0.00896119
0.00894725
0.00893077
0.00890627
0.00886325
0.0087829
0.00863441
0.00837243
0.00793878
0.00727115
0.00632023
0.00507139
0.00356089
0.00187404
0.000276321
)
;
    }
    defaultFaces
    {
        type            empty;
    }
}


// ************************************************************************* //
