/*--------------------------------*- C++ -*----------------------------------*\
  =========                 |
  \\      /  F ield         | OpenFOAM: The Open Source CFD Toolbox
   \\    /   O peration     | Website:  https://openfoam.org
    \\  /    A nd           | Version:  9
     \\/     M anipulation  |
\*---------------------------------------------------------------------------*/
FoamFile
{
    format      ascii;
    class       surfaceScalarField;
    location    "0.15";
    object      phi;
}
// * * * * * * * * * * * * * * * * * * * * * * * * * * * * * * * * * * * * * //

dimensions      [0 3 -1 0 0 0 0];

internalField   nonuniform List<scalar> 
4432
(
2.77618e-08
-2.77618e-08
3.71817e-06
-3.69041e-06
9.34582e-06
-5.62765e-06
1.57867e-05
-6.44089e-06
2.27209e-05
-6.93418e-06
3.00421e-05
-7.32126e-06
3.77148e-05
-7.67271e-06
4.57392e-05
-8.02434e-06
5.41425e-05
-8.40334e-06
6.29698e-05
-8.82726e-06
7.22659e-05
-9.29614e-06
8.20517e-05
-9.7858e-06
9.22904e-05
-1.02387e-05
0.000102842
-1.0552e-05
0.000113404
-1.05621e-05
0.000123422
-1.00179e-05
0.000131877
-8.45446e-06
0.000136991
-5.11383e-06
0.000134614
2.37667e-06
0.000117254
1.73597e-05
8.07874e-05
3.64669e-05
2.92841e-05
5.15033e-05
2.92841e-05
2.0403e-06
-2.06806e-06
6.74591e-06
-8.39603e-06
1.25205e-05
-1.14023e-05
1.8899e-05
-1.28194e-05
2.57158e-05
-1.3751e-05
3.29182e-05
-1.45237e-05
4.04921e-05
-1.52465e-05
4.84455e-05
-1.59778e-05
5.6802e-05
-1.67599e-05
6.55906e-05
-1.76158e-05
7.483e-05
-1.85355e-05
8.45063e-05
-1.94621e-05
9.45437e-05
-2.02761e-05
0.000104767
-2.07749e-05
0.000114849
-2.06445e-05
0.000124238
-1.94068e-05
0.000132077
-1.62936e-05
0.000137057
-1.00934e-05
0.000138021
1.41255e-06
0.000132889
2.24912e-05
0.000113401
5.59554e-05
6.58759e-05
9.90284e-05
9.51599e-05
3.58006e-06
-5.64812e-06
8.88264e-06
-1.36986e-05
1.47669e-05
-1.72866e-05
2.10658e-05
-1.91183e-05
2.77362e-05
-2.04214e-05
3.4772e-05
-2.15594e-05
4.21797e-05
-2.26543e-05
4.99755e-05
-2.37736e-05
5.81809e-05
-2.49652e-05
6.68138e-05
-2.62487e-05
7.58748e-05
-2.75965e-05
8.53267e-05
-2.8914e-05
9.50691e-05
-3.00185e-05
0.000104907
-3.06131e-05
0.000114511
-3.02485e-05
0.000123361
-2.82569e-05
0.000130692
-2.36245e-05
0.000135355
-1.4756e-05
0.000135964
8.03649e-07
0.000131029
2.7426e-05
0.000116826
7.0158e-05
7.81456e-05
0.000137709
0.000173305
4.58642e-06
-1.02345e-05
1.0436e-05
-1.95482e-05
1.64883e-05
-2.33388e-05
2.27603e-05
-2.53903e-05
2.93182e-05
-2.69793e-05
3.6206e-05
-2.84472e-05
4.34542e-05
-2.99025e-05
5.1089e-05
-3.14084e-05
5.91329e-05
-3.3009e-05
6.75974e-05
-3.47132e-05
7.64704e-05
-3.64695e-05
8.56984e-05
-3.8142e-05
9.51652e-05
-3.94853e-05
0.000104666
-4.01143e-05
0.000113878
-3.94605e-05
0.000122323
-3.67018e-05
0.000129339
-3.06402e-05
0.000134055
-1.94717e-05
0.000135332
-4.73399e-07
0.000131746
3.10119e-05
0.000119398
8.25054e-05
8.34517e-05
0.000173656
0.000256757
5.19717e-06
-1.54317e-05
1.15094e-05
-2.58605e-05
1.77602e-05
-2.95897e-05
2.40548e-05
-3.16848e-05
3.05413e-05
-3.34658e-05
3.73104e-05
-3.52164e-05
4.4417e-05
-3.70091e-05
5.18995e-05
-3.88909e-05
5.97841e-05
-4.08936e-05
6.80792e-05
-4.30084e-05
7.67643e-05
-4.51546e-05
8.57745e-05
-4.71522e-05
9.49832e-05
-4.8694e-05
0.000104182
-4.93133e-05
0.00011306
-4.83381e-05
0.000121184
-4.48258e-05
0.000128009
-3.74655e-05
0.000132929
-2.4392e-05
0.000135232
-2.77572e-06
0.000133722
3.25214e-05
0.000123071
9.3157e-05
8.62389e-05
0.000210487
0.000342996
5.56096e-06
-2.09927e-05
1.22102e-05
-3.25097e-05
1.8641e-05
-3.60205e-05
2.49809e-05
-3.80247e-05
3.14266e-05
-3.99115e-05
3.81037e-05
-4.18934e-05
4.50881e-05
-4.39935e-05
5.24304e-05
-4.62331e-05
6.01619e-05
-4.86252e-05
6.82903e-05
-5.11368e-05
7.67897e-05
-5.36539e-05
8.55875e-05
-5.59501e-05
9.45508e-05
-5.76573e-05
0.00010347
-5.82329e-05
0.000112047
-5.69152e-05
0.000119892
-5.26705e-05
0.000126568
-4.41414e-05
0.000131707
-2.95304e-05
0.000134996
-6.06482e-06
0.000135316
3.22014e-05
0.000125274
0.000103199
8.41354e-05
0.000251626
0.000427132
5.77825e-06
-2.67709e-05
1.26286e-05
-3.936e-05
1.91896e-05
-4.25815e-05
2.55725e-05
-4.44076e-05
3.19931e-05
-4.6332e-05
3.85969e-05
-4.84973e-05
4.54753e-05
-5.08718e-05
5.26888e-05
-5.34467e-05
6.02742e-05
-5.62105e-05
6.82395e-05
-5.91022e-05
7.65558e-05
-6.19702e-05
8.51457e-05
-6.454e-05
9.38722e-05
-6.63838e-05
0.000102527
-6.68874e-05
0.00011082
-6.52088e-05
0.000118394
-6.0244e-05
0.000124889
-5.06364e-05
0.000130107
-3.47487e-05
0.00013398
-9.93759e-06
0.000135055
3.11256e-05
0.00012319
0.000115065
7.48434e-05
0.000299972
0.000501975
5.89297e-06
-3.26639e-05
1.28292e-05
-4.62963e-05
1.9456e-05
-4.92083e-05
2.58618e-05
-5.08134e-05
3.22589e-05
-5.27291e-05
3.8799e-05
-5.50374e-05
4.55816e-05
-5.76545e-05
5.26748e-05
-6.05398e-05
6.01193e-05
-6.36551e-05
6.79247e-05
-6.69076e-05
7.60601e-05
-7.01057e-05
8.44456e-05
-7.29254e-05
9.29417e-05
-7.48799e-05
0.00010134
-7.52856e-05
0.000109355
-7.3224e-05
0.00011664
-6.75289e-05
0.000122861
-5.68575e-05
0.000127887
-3.97744e-05
0.000131752
-1.38023e-05
0.000132669
3.02081e-05
0.000112155
0.000135578
5.77345e-05
0.000354393
0.000559709
-1.55389e-05
1.55389e-05
-2.15443e-05
6.00539e-06
-2.07799e-05
-7.64468e-07
-1.64803e-05
-4.29965e-06
-1.13817e-05
-5.09863e-06
-6.778e-06
-4.60371e-06
-3.13574e-06
-3.6422e-06
-4.31633e-07
-2.70411e-06
1.37187e-06
-1.80341e-06
2.45844e-06
-1.08655e-06
2.97813e-06
-5.19709e-07
3.04905e-06
-7.08708e-08
2.77584e-06
2.73162e-07
2.22605e-06
5.49916e-07
1.47731e-06
7.48656e-07
6.36828e-07
8.40597e-07
-1.19671e-07
7.5648e-07
-4.66617e-07
3.47007e-07
-4.66701e-07
-1.63251e-05
3.1864e-05
-2.15401e-05
1.12203e-05
-2.03539e-05
-1.95075e-06
-1.59676e-05
-8.68602e-06
-1.08664e-05
-1.01998e-05
-6.2523e-06
-9.21784e-06
-2.56225e-06
-7.3321e-06
1.1593e-07
-5.38229e-06
1.92854e-06
-3.61592e-06
3.01191e-06
-2.1699e-06
3.51307e-06
-1.02094e-06
3.55997e-06
-1.17577e-07
3.24957e-06
5.83416e-07
2.67688e-06
1.12276e-06
1.93085e-06
1.49458e-06
1.11946e-06
1.65211e-06
3.83745e-07
1.49207e-06
-6.53714e-08
7.9623e-07
-5.3212e-07
-1.74479e-05
4.93119e-05
-2.22357e-05
1.60081e-05
-2.04124e-05
-3.77409e-06
-1.56269e-05
-1.34716e-05
-1.03785e-05
-1.5448e-05
-5.76244e-06
-1.38339e-05
-2.13307e-06
-1.09613e-05
4.85185e-07
-8.00061e-06
2.23113e-06
-5.36185e-06
3.2544e-06
-3.19308e-06
3.70671e-06
-1.47334e-06
3.72092e-06
-1.31704e-07
3.40295e-06
9.01186e-07
2.85058e-06
1.67529e-06
2.15464e-06
2.19045e-06
1.41229e-06
2.39456e-06
7.29325e-07
2.17495e-06
2.11916e-07
1.31374e-06
-3.20241e-07
-2.00687e-05
6.93806e-05
-2.40627e-05
2.00021e-05
-2.10159e-05
-6.82088e-06
-1.54145e-05
-1.90731e-05
-9.80698e-06
-2.10554e-05
-5.12925e-06
-1.85117e-05
-1.55756e-06
-1.45329e-05
9.71999e-07
-1.05302e-05
2.61822e-06
-7.00802e-06
3.55556e-06
-4.13032e-06
3.94245e-06
-1.86033e-06
3.91441e-06
-1.03539e-07
3.58092e-06
1.23464e-06
3.03897e-06
2.21738e-06
2.37589e-06
2.85342e-06
1.67571e-06
3.09483e-06
1.01556e-06
2.83505e-06
4.45205e-07
1.88418e-06
1.2493e-07
-2.43843e-05
9.37648e-05
-2.70764e-05
2.26942e-05
-2.21022e-05
-1.1795e-05
-1.52567e-05
-2.59187e-05
-9.09267e-06
-2.72194e-05
-4.27286e-06
-2.33315e-05
-7.72179e-07
-1.80336e-05
1.62337e-06
-1.29257e-05
3.13709e-06
-8.52173e-06
3.96187e-06
-4.95503e-06
4.2629e-06
-2.16142e-06
4.17682e-06
-1.73557e-08
3.81303e-06
1.59834e-06
3.26514e-06
2.76538e-06
2.6136e-06
3.50493e-06
1.92834e-06
3.78019e-06
1.26262e-06
3.50074e-06
6.28428e-07
2.51842e-06
7.53336e-07
-3.08723e-05
0.000124637
-3.1487e-05
2.33089e-05
-2.36112e-05
-1.96708e-05
-1.50688e-05
-3.44611e-05
-8.1772e-06
-3.41109e-05
-3.20237e-06
-2.83063e-05
2.06767e-07
-2.14426e-05
2.43862e-06
-1.51575e-05
3.78629e-06
-9.86944e-06
4.47135e-06
-5.64006e-06
4.66543e-06
-2.35556e-06
4.50478e-06
1.43364e-07
4.09557e-06
2.00745e-06
3.52555e-06
3.33547e-06
2.8662e-06
4.16427e-06
2.17338e-06
4.4731e-06
1.48061e-06
4.19346e-06
7.74578e-07
3.22448e-06
1.52792e-06
-4.04118e-05
0.000165049
-3.7467e-05
2.0364e-05
-2.54465e-05
-3.16912e-05
-1.47424e-05
-4.51652e-05
-7.008e-06
-4.18452e-05
-1.92341e-06
-3.33909e-05
1.37796e-06
-2.4744e-05
3.40162e-06
-1.71811e-05
4.54749e-06
-1.10153e-05
5.06645e-06
-6.15897e-06
5.13407e-06
-2.42321e-06
4.88406e-06
3.93445e-07
4.41629e-06
2.47516e-06
3.8105e-06
3.94133e-06
3.12783e-06
4.84695e-06
2.41055e-06
5.19043e-06
1.67614e-06
4.92783e-06
8.95093e-07
4.00556e-06
2.42304e-06
-5.17978e-05
0.000216847
-4.38479e-05
1.24142e-05
-2.73507e-05
-4.81885e-05
-1.40294e-05
-5.84865e-05
-5.45652e-06
-5.04182e-05
-3.01953e-07
-3.85455e-05
2.74828e-06
-2.77942e-05
4.49914e-06
-1.89319e-05
5.40268e-06
-1.19188e-05
5.72911e-06
-6.48536e-06
5.6519e-06
-2.34604e-06
5.29972e-06
7.45671e-07
4.76242e-06
3.01245e-06
4.1099e-06
4.5939e-06
3.39209e-06
5.56476e-06
2.63852e-06
5.94401e-06
1.85348e-06
5.71288e-06
9.9534e-07
4.86374e-06
3.41842e-06
1.24794e-05
-4.51433e-05
2.73102e-05
-6.11271e-05
4.13633e-05
-6.32613e-05
5.49365e-05
-6.43866e-05
6.84307e-05
-6.62233e-05
8.21307e-05
-6.87375e-05
9.62516e-05
-7.17754e-05
0.00011095
-7.52386e-05
0.000126324
-7.90284e-05
0.000142395
-8.29788e-05
0.000159097
-8.68078e-05
0.000176256
-9.00838e-05
0.000193567
-9.21918e-05
0.000210575
-9.22929e-05
0.000226643
-8.92921e-05
0.000241014
-8.19001e-05
0.000253083
-6.89262e-05
0.000262768
-4.94592e-05
0.0002697
-2.07345e-05
0.000263586
3.63214e-05
0.000217168
0.000181997
0.000200362
0.000371199
0.000555689
0.000204382
1.22768e-05
-5.74201e-05
2.64397e-05
-7.529e-05
3.99582e-05
-7.67798e-05
5.31004e-05
-7.75288e-05
6.61872e-05
-7.931e-05
7.94431e-05
-8.19934e-05
9.30504e-05
-8.53828e-05
0.000107154
-8.93425e-05
0.000121847
-9.37214e-05
0.00013715
-9.82812e-05
0.000152991
-0.000102649
0.000169188
-0.000106281
0.000185414
-0.000108418
0.000201144
-0.000108023
0.000215598
-0.000103746
0.00022785
-9.4153e-05
0.000237347
-7.84224e-05
0.000244281
-5.63938e-05
0.000245399
-2.1852e-05
0.000224968
5.67526e-05
0.000229293
0.000177671
0.000248359
0.000352134
0.000515348
0.0002887
1.19002e-05
-6.93203e-05
2.50762e-05
-8.8466e-05
3.77046e-05
-8.94082e-05
5.01135e-05
-8.99378e-05
6.25428e-05
-9.17393e-05
7.51537e-05
-9.46043e-05
8.80888e-05
-9.83178e-05
0.00010147
-0.000102723
0.000115375
-0.000107627
0.000129816
-0.000112722
0.000144715
-0.000117548
0.000159876
-0.000121442
0.000174921
-0.000123464
0.000189186
-0.000122287
0.000201677
-0.000116237
0.000211534
-0.000104009
0.000218894
-8.57826e-05
0.000223123
-6.06231e-05
0.000210942
-9.67063e-06
0.000194869
7.28247e-05
0.000188014
0.000184526
0.000224589
0.000315559
0.000436587
0.00030335
1.13875e-05
-8.07079e-05
2.34048e-05
-0.000100483
3.49531e-05
-0.000100957
4.64238e-05
-0.000101409
5.79912e-05
-0.000103307
6.97645e-05
-0.000106378
8.18517e-05
-0.000110405
9.43509e-05
-0.000115223
0.000107325
-0.000120601
0.000120778
-0.000126175
0.000134628
-0.000131398
0.000148659
-0.000135472
0.000162401
-0.000137207
0.000174977
-0.000134863
0.000185293
-0.000126553
0.000193089
-0.000111805
0.000199102
-9.17952e-05
0.000195639
-5.71609e-05
0.000174615
1.13534e-05
0.000156756
9.06841e-05
0.000162408
0.000178875
0.000208098
0.000269869
0.000360496
0.00028419
1.0757e-05
-9.14648e-05
2.15302e-05
-0.000111257
3.19107e-05
-0.000111337
4.232e-05
-0.000111818
5.28766e-05
-0.000113863
6.36511e-05
-0.000117152
7.4725e-05
-0.000121479
8.61774e-05
-0.000126675
9.80622e-05
-0.000132485
0.000110385
-0.000138498
0.000123069
-0.000144082
0.000135867
-0.000148271
0.000148175
-0.000149514
0.000158904
-0.000145593
0.000167286
-0.000134935
0.000174197
-0.000118717
0.000177264
-9.48617e-05
0.000160592
-4.04888e-05
0.000139223
3.27223e-05
0.000126211
0.000103695
0.000133162
0.000171924
0.000167746
0.000235285
0.000305661
0.000222581
1.00311e-05
-0.000101496
1.95241e-05
-0.00012075
2.87057e-05
-0.000120519
3.79868e-05
-0.000121099
4.7433e-05
-0.000123309
5.70844e-05
-0.000126804
6.70019e-05
-0.000131396
7.72525e-05
-0.000136926
8.78907e-05
-0.000143124
9.89388e-05
-0.000149546
0.000110336
-0.000155479
0.000121793
-0.000159728
0.000132532
-0.000160253
0.000141467
-0.000154528
0.000148373
-0.000141841
0.00015307
-0.000123414
0.000142334
-8.41252e-05
0.000120837
-1.8992e-05
0.000102618
5.0941e-05
9.14833e-05
0.00011483
9.13586e-05
0.000172049
0.00010483
0.000221814
0.000274814
0.000135677
9.24557e-06
-0.000110741
1.74402e-05
-0.000128944
2.54269e-05
-0.000128505
3.35574e-05
-0.000129229
4.18389e-05
-0.000131591
5.02833e-05
-0.000135248
5.89338e-05
-0.000140047
6.785e-05
-0.000145842
7.70971e-05
-0.000152371
8.67277e-05
-0.000159176
9.67108e-05
-0.000165462
0.000106731
-0.000169748
0.000115872
-0.000169394
0.000123245
-0.000161901
0.000129319
-0.000147915
0.000130943
-0.000125038
0.000111082
-6.42643e-05
8.82886e-05
3.80169e-06
7.04758e-05
6.87539e-05
5.90286e-05
0.000126277
5.49725e-05
0.000176105
5.89468e-05
0.000217839
0.000255325
7.84357e-05
8.41557e-06
-0.000119157
1.53142e-05
-0.000135843
2.2158e-05
-0.000135349
2.91662e-05
-0.000136238
3.62794e-05
-0.000138704
4.34835e-05
-0.000142452
5.08047e-05
-0.000147368
5.82964e-05
-0.000153334
6.60363e-05
-0.000160111
7.41109e-05
-0.000167251
8.25299e-05
-0.000173881
9.09905e-05
-0.000178209
9.86706e-05
-0.000177074
0.000104904
-0.000168134
0.000109055
-0.000152066
9.80688e-05
-0.000114051
7.80892e-05
-4.42846e-05
5.81033e-05
2.37874e-05
4.24661e-05
8.43912e-05
3.24743e-05
0.000136269
2.90837e-05
0.000179495
3.33692e-05
0.000213554
0.000238257
5.04378e-05
7.42575e-06
-0.000126583
1.3157e-05
-0.000141574
1.9012e-05
-0.000141204
2.49972e-05
-0.000142223
3.10062e-05
-0.000144713
3.70095e-05
-0.000148455
4.3018e-05
-0.000153377
4.90725e-05
-0.000159388
5.52518e-05
-0.00016629
6.16678e-05
-0.000173667
6.83872e-05
-0.0001806
7.5159e-05
-0.000184981
8.15122e-05
-0.000183427
8.72894e-05
-0.000173912
9.18628e-05
-0.000156639
7.35913e-05
-9.57796e-05
5.19154e-05
-2.26091e-05
3.30774e-05
4.26256e-05
1.92783e-05
9.81904e-05
1.14494e-05
0.000144098
1.04078e-05
0.000180537
1.71854e-05
0.000206776
0.000221602
3.38398e-05
5.91092e-06
-0.000132494
1.09863e-05
-0.000146649
1.61756e-05
-0.000146393
2.13262e-05
-0.000147373
2.6381e-05
-0.000149768
3.1326e-05
-0.0001534
3.61586e-05
-0.000158209
4.08922e-05
-0.000164122
4.55765e-05
-0.000170974
5.03243e-05
-0.000178415
5.5318e-05
-0.000185594
6.04656e-05
-0.000190128
6.54689e-05
-0.00018843
7.0043e-05
-0.000178486
7.05645e-05
-0.000157161
4.94512e-05
-7.46662e-05
2.84254e-05
-1.58304e-06
1.1181e-05
5.98699e-05
-3.6934e-07
0.000109741
-5.62781e-06
0.000149357
-3.98396e-06
0.000178893
4.8963e-06
0.000197896
0.000205496
2.10022e-05
3.70188e-06
-0.000136196
9.16158e-06
-0.000152109
1.40345e-05
-0.000151266
1.85456e-05
-0.000151884
2.28622e-05
-0.000154084
2.70143e-05
-0.000157553
3.09789e-05
-0.000162174
3.47207e-05
-0.000167864
3.82168e-05
-0.00017447
4.14949e-05
-0.000181693
4.48092e-05
-0.000188908
4.85682e-05
-0.000193887
5.25755e-05
-0.000192438
5.70166e-05
-0.000182927
4.04182e-05
-0.000140562
2.09664e-05
-5.52144e-05
3.08368e-06
1.62996e-05
-1.0329e-05
7.32824e-05
-1.83887e-05
0.0001178
-2.03666e-05
0.000151334
-1.59862e-05
0.000174513
-5.56499e-06
0.000187475
0.000190229
9.702e-06
3.11472e-06
-0.00013931
8.98396e-06
-0.000157978
1.31562e-05
-0.000155439
1.70399e-05
-0.000155768
2.08853e-05
-0.00015793
2.46666e-05
-0.000161334
2.82976e-05
-0.000165805
3.1666e-05
-0.000171232
3.46546e-05
-0.000177459
3.70505e-05
-0.000184089
3.88014e-05
-0.000190659
4.12554e-05
-0.000196341
4.45891e-05
-0.000195771
4.15727e-05
-0.000179911
1.48177e-05
-0.000113807
-5.81329e-06
-3.45835e-05
-2.08041e-05
3.12905e-05
-3.04822e-05
8.29606e-05
-3.47422e-05
0.00012206
-3.33644e-05
0.000149957
-2.65471e-05
0.000167696
-1.51669e-05
0.000176094
0.000175875
-8.12974e-07
1.21064e-05
-0.000151417
1.19482e-05
-0.00015782
1.36909e-05
-0.000157181
1.69849e-05
-0.000159062
2.07883e-05
-0.000161733
2.47589e-05
-0.000165305
2.87092e-05
-0.000169755
3.25642e-05
-0.000175087
3.61256e-05
-0.00018102
3.86771e-05
-0.00018664
3.84814e-05
-0.000190464
3.82978e-05
-0.000196158
3.79001e-05
-0.000195374
1.56599e-05
-0.00015767
-1.24599e-05
-8.56875e-05
-3.10958e-05
-1.59477e-05
-4.26798e-05
4.28746e-05
-4.86127e-05
8.88935e-05
-4.92515e-05
0.000122699
-4.48698e-05
0.000145575
-3.61432e-05
0.000158969
-2.42295e-05
0.000164181
0.000162342
-1.06964e-05
4.14218e-05
-0.000192839
1.74575e-05
-0.000133856
1.58214e-05
-0.000155545
1.91847e-05
-0.000162425
2.38063e-05
-0.000166355
2.88829e-05
-0.000170381
3.37726e-05
-0.000174645
3.82881e-05
-0.000179602
4.20308e-05
-0.000184763
4.36894e-05
-0.000188299
4.20924e-05
-0.000188867
3.25199e-05
-0.000186585
9.79652e-06
-0.00017265
-2.02175e-05
-0.000127656
-4.11181e-05
-6.4787e-05
-5.47616e-05
-2.30415e-06
-6.22952e-05
5.04081e-05
-6.44823e-05
9.10805e-05
-6.18256e-05
0.000120042
-5.49772e-05
0.000138726
-4.48941e-05
0.000148886
-3.27635e-05
0.00015205
0.00014951
-1.99319e-05
3.35915e-05
-0.00022643
2.13293e-05
-0.000121594
1.78424e-05
-0.000152058
2.06959e-05
-0.000165279
2.43248e-05
-0.000169984
2.72286e-05
-0.000173285
2.95155e-05
-0.000176931
3.04694e-05
-0.000180556
2.89686e-05
-0.000183262
2.42215e-05
-0.000183552
1.51309e-05
-0.000179776
-1.6643e-06
-0.00016979
-2.67394e-05
-0.000147575
-4.97506e-05
-0.000104645
-6.60629e-05
-4.84746e-05
-7.5583e-05
7.21586e-06
-7.92623e-05
5.40873e-05
-7.79627e-05
8.97809e-05
-7.24796e-05
0.000114559
-6.37393e-05
0.000129986
-5.27676e-05
0.000137914
-4.06213e-05
0.000139904
0.000137263
-2.83738e-05
-2.09588e-05
-0.000205471
-2.19547e-06
-0.000140357
5.38591e-06
-0.00015964
8.31262e-06
-0.000168206
1.03441e-05
-0.000172015
1.16776e-05
-0.000174619
1.16861e-05
-0.00017694
9.74849e-06
-0.000178619
5.1485e-06
-0.000178662
-2.80765e-06
-0.000175596
-1.50404e-05
-0.000167543
-3.26578e-05
-0.000152173
-5.46225e-05
-0.000125611
-7.41651e-05
-8.51022e-05
-8.70399e-05
-3.55999e-05
-9.29633e-05
1.31393e-05
-9.32029e-05
5.43269e-05
-8.89257e-05
8.55037e-05
-8.12252e-05
0.000106859
-7.11529e-05
0.000119914
-5.96615e-05
0.000126423
-4.76245e-05
0.000127867
0.000125507
-3.58686e-05
-2.48716e-05
-0.0001806
-6.38794e-06
-0.000158841
-1.5535e-06
-0.000164474
-1.57559e-06
-0.000168184
-2.78833e-06
-0.000170802
-4.76782e-06
-0.000172639
-7.88878e-06
-0.000173819
-1.27168e-05
-0.000173791
-1.98694e-05
-0.00017151
-2.9929e-05
-0.000165536
-4.33281e-05
-0.000154144
-6.00815e-05
-0.000135419
-7.83609e-05
-0.000107331
-9.3902e-05
-6.95613e-05
-0.000103342
-2.61595e-05
-0.000106253
1.60504e-05
-0.000103773
5.1847e-05
-9.72818e-05
7.90122e-05
-8.80599e-05
9.76371e-05
-7.71689e-05
0.000109023
-6.54484e-05
0.000114703
-5.36092e-05
0.000116028
0.000114184
-4.22858e-05
-1.26209e-05
-0.000167979
-8.73048e-06
-0.000162731
-9.08285e-06
-0.000164122
-1.16991e-05
-0.000165567
-1.54723e-05
-0.000167029
-2.00895e-05
-0.000168022
-2.5793e-05
-0.000168116
-3.29957e-05
-0.000166588
-4.21248e-05
-0.000162381
-5.34832e-05
-0.000154178
-6.70632e-05
-0.000140564
-8.22447e-05
-0.000120238
-9.71729e-05
-9.24032e-05
-0.000108893
-5.78409e-05
-0.000115115
-1.99374e-05
-0.000115501
1.64359e-05
-0.000111038
4.73843e-05
-0.000103111
7.10853e-05
-9.30085e-05
8.75343e-05
-8.17284e-05
9.77428e-05
-7.00116e-05
0.000102986
-5.84495e-05
0.000104466
0.000103272
-4.75374e-05
-8.47238e-06
-0.000159507
-1.17091e-05
-0.000159494
-1.58529e-05
-0.000159978
-2.0819e-05
-0.000160601
-2.66133e-05
-0.000161235
-3.32513e-05
-0.000161384
-4.0915e-05
-0.000160452
-4.98567e-05
-0.000157646
-6.02783e-05
-0.000151959
-7.21928e-05
-0.000142263
-8.526e-05
-0.000127497
-9.85828e-05
-0.000106915
-0.000110522
-8.04643e-05
-0.000119002
-4.93601e-05
-0.000122549
-1.63905e-05
-0.000121012
1.48989e-05
-0.000115266
4.16378e-05
-0.000106569
6.23886e-05
-9.61033e-05
7.70687e-05
-8.47796e-05
8.64191e-05
-7.32643e-05
9.14705e-05
-6.20669e-05
9.32682e-05
9.27888e-05
-5.15839e-05
-8.32579e-06
-0.000151181
-1.46101e-05
-0.00015321
-2.10472e-05
-0.000153541
-2.78737e-05
-0.000153775
-3.52973e-05
-0.000153811
-4.34654e-05
-0.000153216
-5.25256e-05
-0.000151392
-6.25951e-05
-0.000147577
-7.3678e-05
-0.000140876
-8.55608e-05
-0.00013038
-9.77047e-05
-0.000115353
-0.000109157
-9.54627e-05
-0.000118565
-7.1056e-05
-0.000124491
-4.34343e-05
-0.000126028
-1.48542e-05
-0.000123193
1.20645e-05
-0.000116758
3.52028e-05
-0.000107809
5.34391e-05
-9.73813e-05
6.66415e-05
-8.62972e-05
7.53351e-05
-7.51648e-05
8.03381e-05
-6.44342e-05
8.25376e-05
8.27857e-05
-5.4431e-05
-8.81649e-06
-0.000142364
-1.67339e-05
-0.000145293
-2.46064e-05
-0.000145668
-3.27218e-05
-0.000145659
-4.1303e-05
-0.00014523
-5.05044e-05
-0.000144014
-6.04198e-05
-0.000141476
-7.10542e-05
-0.000136942
-8.22653e-05
-0.000129665
-9.36964e-05
-0.000118949
-0.000104727
-0.000104323
-0.000114466
-8.57235e-05
-0.000121846
-6.36766e-05
-0.000125881
-3.93991e-05
-0.000126042
-1.46929e-05
-0.00012246
8.48202e-06
-0.000115804
2.85468e-05
-0.00010699
4.4626e-05
-9.69141e-05
5.65652e-05
-8.63086e-05
6.47296e-05
-7.57289e-05
6.97584e-05
-6.55766e-05
7.23853e-05
7.33342e-05
-5.61252e-05
-9.13305e-06
-0.000133231
-1.79057e-05
-0.00013652
-2.66179e-05
-0.000136956
-3.55103e-05
-0.000136767
-4.47714e-05
-0.000135969
-5.45202e-05
-0.000134265
-6.47919e-05
-0.000131205
-7.55071e-05
-0.000126227
-8.64314e-05
-0.000118741
-9.71402e-05
-0.00010824
-0.000107012
-9.44504e-05
-0.00011527
-7.74664e-05
-0.000121089
-5.78572e-05
-0.000123802
-3.66861e-05
-0.000123118
-1.5377e-05
-0.000119225
4.58951e-06
-0.000112703
2.20246e-05
-0.000104319
3.62425e-05
-9.48393e-05
4.70851e-05
-8.49116e-05
5.48019e-05
-7.50362e-05
5.98829e-05
-6.55709e-05
6.29201e-05
6.4512e-05
-5.67487e-05
-9.14659e-06
-0.000124085
-1.82382e-05
-0.000127428
-2.73104e-05
-0.000127884
-3.65314e-05
-0.000127546
-4.60374e-05
-0.000126463
-5.59007e-05
-0.000124402
-6.6105e-05
-0.000121
-7.65162e-05
-0.000115816
-8.68548e-05
-0.000108402
-9.66848e-05
-9.84103e-05
-0.000105432
-8.57031e-05
-0.000112444
-7.04547e-05
-0.000117094
-5.32068e-05
-0.00011893
-3.48498e-05
-0.000117807
-1.65003e-05
-0.000113934
7.16521e-07
-0.000107807
1.58979e-05
-0.00010007
2.85048e-05
-9.13705e-05
3.8386e-05
-8.22749e-05
4.57063e-05
-7.32255e-05
5.08335e-05
-6.45387e-05
5.42332e-05
5.63877e-05
-5.64144e-05
-8.91646e-06
-0.000115168
-1.79233e-05
-0.000118422
-2.69671e-05
-0.00011884
-3.61434e-05
-0.00011837
-4.55318e-05
-0.000117074
-5.51579e-05
-0.000114776
-6.4966e-05
-0.000111192
-7.47929e-05
-0.000105989
-8.43503e-05
-9.88447e-05
-9.32268e-05
-8.95337e-05
-0.000100919
-7.80107e-05
-0.000106894
-6.44798e-05
-0.000110679
-4.94218e-05
-0.000111966
-3.35626e-05
-0.000110695
-1.77709e-05
-0.000107075
-2.90423e-06
-0.000101524
1.03474e-05
-9.45783e-05
2.1559e-05
-8.67833e-05
3.0591e-05
-7.86227e-05
3.75457e-05
-7.04813e-05
4.26921e-05
-6.26353e-05
4.63872e-05
4.90103e-05
-5.52579e-05
-8.49186e-06
-0.000106676
-1.71408e-05
-0.000109773
-2.58691e-05
-0.000110112
-3.47159e-05
-0.000109523
-4.37108e-05
-0.000108079
-5.28404e-05
-0.000105646
-6.20222e-05
-0.00010201
-7.10837e-05
-9.69273e-05
-7.97511e-05
-9.01772e-05
-8.76586e-05
-8.16262e-05
-9.43812e-05
-7.12881e-05
-9.94923e-05
-5.93687e-05
-0.000102636
-4.62777e-05
-0.000103604
-3.25953e-05
-0.000102382
-1.89933e-05
-9.91606e-05
-6.12514e-06
-9.42924e-05
5.47919e-06
-8.8217e-05
1.54836e-05
-8.13871e-05
2.3761e-05
-7.42095e-05
3.03682e-05
-6.70128e-05
3.54953e-05
-6.00351e-05
3.94094e-05
4.24019e-05
-5.34267e-05
-7.92681e-06
-9.87495e-05
-1.60494e-05
-0.00010165
-2.42704e-05
-0.000101891
-3.25913e-05
-0.000101202
-4.10048e-05
-9.96658e-05
-4.94684e-05
-9.71828e-05
-5.78848e-05
-9.35938e-05
-6.60857e-05
-8.87263e-05
-7.38253e-05
-8.24376e-05
-8.07914e-05
-7.46602e-05
-8.66362e-05
-6.54433e-05
-9.10244e-05
-5.49806e-05
-9.36897e-05
-4.36124e-05
-9.44884e-05
-3.17967e-05
-9.34316e-05
-2.005e-05
-9.06861e-05
-8.87065e-06
-8.65404e-05
1.33349e-06
-8.13518e-05
1.0295e-05
-7.54899e-05
1.78991e-05
-6.92914e-05
2.41696e-05
-6.30317e-05
2.92356e-05
-5.69143e-05
3.3292e-05
3.65574e-05
-5.10697e-05
-7.28675e-06
-9.14628e-05
-1.47847e-05
-9.41522e-05
-2.23843e-05
-9.42914e-05
-3.00616e-05
-9.35247e-05
-3.77838e-05
-9.19436e-05
-4.54904e-05
-8.94762e-05
-5.30788e-05
-8.60054e-05
-6.0393e-05
-8.14122e-05
-6.72207e-05
-7.561e-05
-7.3304e-05
-6.85769e-05
-7.83653e-05
-6.0382e-05
-8.21453e-05
-5.12006e-05
-8.4446e-05
-4.13117e-05
-8.51683e-05
-3.10744e-05
-8.43335e-05
-2.08847e-05
-8.20812e-05
-1.1123e-05
-7.86439e-05
-2.10378e-06
-7.43071e-05
5.95819e-06
-6.9368e-05
1.296e-05
-6.41006e-05
1.89022e-05
-5.87331e-05
2.38681e-05
-5.3437e-05
2.79959e-05
3.14465e-05
-4.83261e-05
-6.61741e-06
-8.48454e-05
-1.34494e-05
-8.73202e-05
-2.03754e-05
-8.73654e-05
-2.7355e-05
-8.65452e-05
-3.434e-05
-8.49586e-05
-4.1261e-05
-8.25552e-05
-4.80169e-05
-7.92494e-05
-5.44686e-05
-7.49605e-05
-6.04376e-05
-6.96409e-05
-6.57163e-05
-6.32981e-05
-7.00876e-05
-5.60107e-05
-7.3354e-05
-4.79342e-05
-7.53693e-05
-3.92965e-05
-7.60651e-05
-3.03786e-05
-7.54649e-05
-2.14848e-05
-7.36817e-05
-1.29062e-05
-7.0899e-05
-4.8865e-06
-6.73416e-05
2.40073e-06
-6.3245e-05
8.86345e-06
-5.88294e-05
1.44866e-05
-5.42813e-05
1.932e-05
-4.97445e-05
2.34592e-05
2.70199e-05
-4.53178e-05
-5.95484e-06
-7.88906e-05
-1.21168e-05
-8.11582e-05
-1.83603e-05
-8.1122e-05
-2.46346e-05
-8.02709e-05
-3.08835e-05
-7.87096e-05
-3.70348e-05
-7.64038e-05
-4.2994e-05
-7.32902e-05
-4.86399e-05
-6.93146e-05
-5.38259e-05
-6.44548e-05
-5.83876e-05
-5.87364e-05
-6.21581e-05
-5.22401e-05
-6.49891e-05
-4.51032e-05
-6.67734e-05
-3.75121e-05
-6.74637e-05
-2.96882e-05
-6.7082e-05
-2.18665e-05
-6.57171e-05
-1.42712e-05
-6.35109e-05
-7.0927e-06
-6.06381e-05
-4.72069e-07
-5.72833e-05
5.50868e-06
-5.36213e-05
1.08246e-05
-4.98034e-05
1.55022e-05
-4.59494e-05
1.96053e-05
2.32155e-05
-4.21451e-05
-5.3213e-06
-7.35693e-05
-1.08323e-05
-7.56471e-05
-1.64116e-05
-7.55427e-05
-2.20034e-05
-7.4679e-05
-2.75478e-05
-7.31651e-05
-3.2974e-05
-7.09775e-05
-3.81959e-05
-6.80683e-05
-4.31104e-05
-6.44e-05
-4.75986e-05
-5.99665e-05
-5.15321e-05
-5.48028e-05
-5.47842e-05
-4.89881e-05
-5.72445e-05
-4.26429e-05
-5.88352e-05
-3.59215e-05
-5.95235e-05
-2.9e-05
-5.9328e-05
-2.20621e-05
-5.8317e-05
-1.52823e-05
-5.65987e-05
-8.81103e-06
-5.43073e-05
-2.76348e-06
-5.15857e-05
2.78714e-06
-4.85722e-05
7.81117e-06
-4.53888e-05
1.23189e-05
-4.21352e-05
1.63517e-05
1.99659e-05
-3.88855e-05
-4.72207e-06
-6.88471e-05
-9.61449e-06
-7.07546e-05
-1.45646e-05
-7.05925e-05
-1.95145e-05
-6.97289e-05
-2.44034e-05
-6.82761e-05
-2.91636e-05
-6.62173e-05
-3.37185e-05
-6.35133e-05
-3.79816e-05
-6.0137e-05
-4.18574e-05
-5.60907e-05
-4.52467e-05
-5.14137e-05
-4.80536e-05
-4.61813e-05
-5.01968e-05
-4.04998e-05
-5.162e-05
-3.44984e-05
-5.23002e-05
-2.83198e-05
-5.22525e-05
-2.21098e-05
-5.15283e-05
-1.60064e-05
-5.02094e-05
-1.013e-05
-4.83975e-05
-4.57535e-06
-4.62033e-05
5.92973e-07
-4.37356e-05
5.34352e-06
-4.10929e-05
9.67632e-06
-3.83582e-05
1.3617e-05
1.72031e-05
-3.55953e-05
-4.1508e-06
-6.46962e-05
-8.46317e-06
-6.64423e-05
-1.28282e-05
-6.62274e-05
-1.7186e-05
-6.53711e-05
-2.14752e-05
-6.39869e-05
-2.56326e-05
-6.20599e-05
-2.95915e-05
-5.95544e-05
-3.32802e-05
-5.64483e-05
-3.66228e-05
-5.27482e-05
-3.95426e-05
-4.8494e-05
-4.19675e-05
-4.37564e-05
-4.38376e-05
-3.86298e-05
-4.51119e-05
-3.32241e-05
-4.57743e-05
-2.76574e-05
-4.58364e-05
-2.20477e-05
-4.53366e-05
-1.65062e-05
-4.43359e-05
-1.11307e-05
-4.29112e-05
-6.00001e-06
-4.1148e-05
-1.17018e-06
-3.91323e-05
3.32781e-06
-3.69441e-05
7.48819e-06
-3.46527e-05
1.13256e-05
1.48637e-05
-3.23132e-05
-3.59777e-06
-6.10985e-05
-7.37058e-06
-6.26695e-05
-1.11984e-05
-6.23994e-05
-1.50155e-05
-6.15541e-05
-1.87601e-05
-6.02423e-05
-2.23748e-05
-5.84452e-05
-2.58028e-05
-5.61265e-05
-2.89857e-05
-5.32654e-05
-3.18637e-05
-4.98702e-05
-3.43776e-05
-4.59801e-05
-3.64731e-05
-4.1661e-05
-3.81055e-05
-3.69974e-05
-3.92449e-05
-3.20848e-05
-3.98796e-05
-2.70227e-05
-4.00182e-05
-2.19091e-05
-3.96891e-05
-1.68354e-05
-3.89373e-05
-1.18825e-05
-3.78209e-05
-7.11638e-06
-3.64058e-05
-2.58519e-06
-3.47608e-05
1.68278e-06
-3.29516e-05
5.67909e-06
-3.10368e-05
9.41077e-06
1.28909e-05
-2.9064e-05
-3.05634e-06
-5.80421e-05
-6.33117e-06
-5.93945e-05
-9.66923e-06
-5.90613e-05
-1.29934e-05
-5.823e-05
-1.62425e-05
-5.69931e-05
-1.93663e-05
-5.53213e-05
-2.23186e-05
-5.31741e-05
-2.50533e-05
-5.05307e-05
-2.75237e-05
-4.74e-05
-2.96837e-05
-4.38201e-05
-3.1492e-05
-3.98527e-05
-3.29149e-05
-3.55745e-05
-3.393e-05
-3.10697e-05
-3.45286e-05
-2.64242e-05
-3.47168e-05
-2.17209e-05
-3.4515e-05
-1.70372e-05
-3.39563e-05
-1.24412e-05
-3.30841e-05
-7.98855e-06
-3.19493e-05
-3.72004e-06
-3.06071e-05
3.4061e-07
-2.91133e-05
4.18533e-06
-2.75183e-05
7.81588e-06
1.12362e-05
-2.58635e-05
-2.5193e-06
-5.55228e-05
-5.34459e-06
-5.65691e-05
-8.23848e-06
-5.61674e-05
-1.11098e-05
-5.53587e-05
-1.39022e-05
-5.42005e-05
-1.65763e-05
-5.26472e-05
-1.90974e-05
-5.0653e-05
-2.14303e-05
-4.81978e-05
-2.35386e-05
-4.52917e-05
-2.53862e-05
-4.19725e-05
-2.69406e-05
-3.82983e-05
-2.81758e-05
-3.43393e-05
-2.90749e-05
-3.01707e-05
-2.9631e-05
-2.58681e-05
-2.98483e-05
-2.15036e-05
-2.97412e-05
-1.71444e-05
-2.93331e-05
-1.28492e-05
-2.86557e-05
-8.66599e-06
-2.77473e-05
-4.62844e-06
-2.6653e-05
-7.53657e-07
-2.54221e-05
2.95448e-06
-2.41002e-05
6.49401e-06
9.85907e-06
-2.2723e-05
-1.96613e-06
-5.35565e-05
-4.416e-06
-5.41192e-05
-6.91147e-06
-5.36719e-05
-9.35818e-06
-5.29119e-05
-1.17196e-05
-5.18391e-05
-1.39733e-05
-5.03934e-05
-1.60972e-05
-4.85292e-05
-1.80649e-05
-4.62301e-05
-1.98471e-05
-4.35095e-05
-2.14145e-05
-4.04052e-05
-2.27406e-05
-3.69722e-05
-2.38049e-05
-3.3275e-05
-2.45942e-05
-2.93815e-05
-2.51034e-05
-2.53589e-05
-2.53352e-05
-2.12718e-05
-2.52996e-05
-1.718e-05
-2.50121e-05
-1.31366e-05
-2.44937e-05
-9.18434e-06
-2.37715e-05
-5.35071e-06
-2.28817e-05
-1.64341e-06
-2.18716e-05
1.94439e-06
-2.07855e-05
5.40794e-06
8.72797e-06
-1.96544e-05
-1.40157e-06
-5.21549e-05
-3.58201e-06
-5.19388e-05
-5.71087e-06
-5.1543e-05
-7.73866e-06
-5.08841e-05
-9.67731e-06
-4.99005e-05
-1.15283e-05
-4.85426e-05
-1.32798e-05
-4.67778e-05
-1.49106e-05
-4.45994e-05
-1.63949e-05
-4.20253e-05
-1.77067e-05
-3.90935e-05
-1.88237e-05
-3.58553e-05
-1.97291e-05
-3.23696e-05
-2.0413e-05
-2.86977e-05
-2.08718e-05
-2.49e-05
-2.11082e-05
-2.10354e-05
-2.1129e-05
-1.71592e-05
-2.09434e-05