/*--------------------------------*- C++ -*----------------------------------*\
  =========                 |
  \\      /  F ield         | OpenFOAM: The Open Source CFD Toolbox
   \\    /   O peration     | Website:  https://openfoam.org
    \\  /    A nd           | Version:  9
     \\/     M anipulation  |
\*---------------------------------------------------------------------------*/
FoamFile
{
    format      ascii;
    class       surfaceScalarField;
    location    "37.2";
    object      phi;
}
// * * * * * * * * * * * * * * * * * * * * * * * * * * * * * * * * * * * * * //

dimensions      [0 3 -1 0 0 0 0];

internalField   nonuniform List<scalar> 
1300
(
11.2529
1.87548
-4.16792
11.2529
-5.00899
1.87548
-4.2431
4.2431
-1.18749
1.18749
5.7123
5.54056
-2.37784
2.37784
-2.81987
2.81987
-2.86015
2.86015
-1.06194
1.06194
-1.02826
1.02826
0.693112
-0.693112
-3.4185
3.4185
-1.45618
1.45618
-2.90965
2.90965
6.1281
-6.1281
-3.24782
3.24782
-0.743756
0.743756
-4.26321
15.5161
6.98965
6.98965
-2.3711
2.3711
-1.25394
1.25394
1.41034
-1.41034
9.05443
-9.05443
-4.88651
-5.88498
1.91937
-14.0631
-3.08962
-3.08962
-2.7054
2.7054
-0.829928
1.04555
3.47682
-3.47682
-0.757118
0.757118
-4.32846
0.0853611
-4.32846
4.02771
0.215396
4.02771
-1.32877
0.141279
-1.32877
4.67829
-4.67829
1.07573
0.111761
1.07573
3.9281
-3.9281
-5.71006
11.4224
5.5428
-5.32064
20.8367
-5.93222
11.4728
-3.89865
3.89865
-2.2949
-0.0829372
-2.2949
2.37954
-0.00169737
2.37954
-4.00104
4.00104
-2.60992
-0.209957
-2.60992
2.92013
-0.100251
2.92013
3.66643
-3.66643
-2.91621
0.0560605
-2.91621
2.70845
0.151705
2.70845
0.771042
1.10443
-2.64652
3.69207
-1.10443
0.0424987
1.02614
0.0357986
1.02614
-1.01453
-0.0137252
-1.01453
1.04984
-0.0215793
1.04984
0.730123
-0.037011
0.730123
-0.75486
0.0617478
-0.75486
-8.60854
-8.97136
-3.54223
0.123732
-3.54223
-1.47421
0.0180217
-1.47421
1.49234
-0.0361543
1.49234
-2.52505
2.52505
-3.25151
0.341865
-3.25151
4.80635
1.32175
4.80635
5.04612
6.20674
16.299
-16.299
10.1709
-2.96813
-0.279687
-2.96813
-3.41339
-5.64104
3.41339
-0.165571
-0.805494
0.0617389
-0.805494
5.62659
1.36306
5.62659
2.58622
0.122227
-2.58622
0.215124
4.62617
-4.62617
1.42328
0.94782
1.42328
-1.19154
1.19154
1.12336
-0.0735235
-1.12336
-0.130582
1.38601
0.0243318
1.38601
-1.40975
-0.000595742
-1.40975
7.31344
-13.1984
-7.76815
3.22905
0.189449
-3.22905
0.139431
3.56357
-0.086751
3.56357
-3.30969
3.30969
-3.61099
0.134179
-3.61099
-0.6822
-0.0749173
-0.6822
0.841997
-0.0848798
0.841997
-4.57629
0.247824
-4.57629
-3.69147
0.43996
3.69147
0.336236
1.25005
-1.25005
-1.43658
0.107807
-1.43658
-4.6593
0.0830112
4.6593
0.0189945
-4.77223
0.0939402
-4.77223
-3.71253
0.101533
3.71253
0.215575
4.58935
1.03724
-4.58935
0.661247
-5.36948
11.5762
-5.88338
11.4262
-3.51502
-0.383633
-3.51502
4.08941
-0.190756
4.08941
2.57111
0.338537
-2.57111
0.276206
2.50585
-0.126312
2.50585
-3.94389
-0.0571504
-3.94389
3.80387
0.197178
3.80387
2.54545
-0.0396007
-2.54545
-0.0644668
2.89491
0.0252176
2.89491
3.67241
-0.00598273
3.67241
-3.53944
-0.126986
-3.53944
3.17896
-3.17896
3.08058
0.0983713
-3.08058
0.16437
-5.07402
5.07343
-0.00799941
-5.06602
1.01814
1.01814
0.768931
-0.0388077
0.768931
-0.861791
0.106931
-0.861791
8.34635
-16.1145
8.778
-17.3865
7.53096
-21.5941
8.11587
-17.0872
3.82639
-3.82639
3.76022
0.0661714
-3.76022
0.217986
-1.45604
-0.0181626
-1.45604
-2.28804
-0.237012
-2.28804
2.85695
-0.331898
2.85695
-3.74209
3.74209
-4.12478
0.382686
4.12478
0.68157
2.95612
-0.0612114
-2.95612
-0.0120146
0.924043
0.151684
-0.924043
0.118548
4.86351
-0.237338
4.86351
-4.08522
-0.540954
-4.08522
-1.47494
0.0188938
1.47494
-0.0516596
-1.25895
0.0674029
-1.25895
-5.0745
0.00847758
-5.0387
-1.40127
-1.40127
1.30414
4.9962
-3.58567
0.0462333
3.58567
-0.0221063
3.52705
0.215042
-3.52705
0.217361
-3.26327
0.084312
3.26327
0.0464184
-0.659724
-0.0224763
-0.659724
-1.03471
1.03471
-0.917605
-0.117103
0.917605
-0.0756072
1.40549
-0.155438
1.40549
1.47053
0.0218116
-1.47053
0.0339521
-5.01133
0.239096
-5.01133
4.09987
-0.0104672
4.09987
-3.94908
-0.136141
3.94908
-0.276668
-0.00372296
5.07715
-1.01441
-0.000120138
1.01441
-5.10148
5.10136
-0.665116
0.00539222
0.665116
0.103815
1.02967
0.161873
-1.02967
0.16788
3.84736
-0.0434965
-3.84736
0.0209741
-2.00717
-0.280871
-2.00717
-3.18419
-0.330831
3.18419
-0.327235
-5.11518
-0.0779363
5.19312
-5.13676
1.33688
0.0491256
-1.33688
5.15049
-1.14359
-0.106468
1.14359
-0.108879
1.60373
-0.198241
1.60373
5.12088
-0.257367
-5.12088
0.109547
-4.11744
0.173543
4.11744
-0.0175632
-1.77499
-0.232184
1.77499
-0.171253
-13.1281
14.4911
7.70865
-6.28262
-6.91579
-11.9237
4.4471
7.12912
14.618
-11.8116
-9.78246
-11.6722
2.86006
-2.69218
-3.72725
3.69024
23.5918
-23.4979
-18.3992
19.0808
20.777
-20.5615
5.70885
5.71351
15.8537
-15.9367
-20.8954
20.5118
15.3924
-15.6023
22.0462
-22.1033
-25.8081
25.7646
-16.0928
16.1489
-20.2944
20.1674
-21.0577
20.7811
-8.35369
-9.03284
16.5106
-16.3869
20.0069
-20.2865
-19.3855
19.7274
10.0475
4.44359
11.0848
-6.24673
11.9556
-5.22605
12.9347
8.29389
-16.6476
7.82062
-14.7364
9.04918
10.9577
-8.88361
-3.04005
-17.9699
17.8832
-17.257
17.3034
24.1245
-24.0391
-6.17283
11.8863
-5.25335
12.3825
-11.409
-6.99019
10.0872
4.53073
8.98859
7.52204
-9.17804
-2.49413
-24.7988
24.5415
-25.6599
25.119
0.100183
2.42593
-2.52611
1.35413
-0.862696
3.28863
1.99736
2.10429
2.45271
-2.29084
0.239462
-2.76558
-2.89616
-5.34037
5.44818
5.15703
-5.04527
16.5469
7.04495
16.5659
-16.7496
-6.74824
-16.5105
11.3637
7.71706
11.7464
12.0617
8.71534
12.1632
10.359
-10.3317
-0.0273067
-11.4777
21.8367
1.55464
-18.4678
-13.9371
8.84854
7.0052
8.84685
-9.89341
-6.04327
-9.6172
-11.0131
-9.88237
-11.3439
12.3162
8.19559
12.1255
-15.3124
15.2949
9.27778
6.11459
9.17753
-8.9659
-6.63643
-9.03037
27.48
-6.67692
-20.8031
-13.1773
-12.6308
12.9802
9.06599
14.3343
11.4303
14.3552
8.91314
18.5669
-17.9791
5.34835
-9.94703
-6.14579
-9.78266
9.25803
6.89085
9.40974
-11.7668
-8.52763
-11.7206
-11.987
-9.07077
11.9929
8.17449
-12.5344
-13.1255
12.6706
8.11051
7.83903
-17.6215
9.2482
-18.281
-10.9604
-5.42649
-10.7424
10.785
6.68414
-17.4692
-5.86256
23.639
-12.6813
20.599
-10.9041
-9.38247
-10.9161
-14.8052
-4.58032
-14.3652
-7.98864
7.70777
-8.82014
8.48824
26.8757
-16.2213
-10.6544
-12.3784
-8.1831
11.7171
-0.632344
-12.8358
12.8085
-0.880182
12.0545
16.4981
15.8658
-10.8802
-6.37674
-10.6629
10.2702
7.03322
10.3545
16.1062
8.01827
16.3216
-16.818
-7.22113
-16.5702
4.84087
-4.91578
5.71359
-5.6947
15.5795
9.5395
-15.3421
-9.45669
22.9305
-10.775
-12.1555
-5.11964
5.21407
-0.0944327
-1.83101
-0.476884
0.266872
-1.93095
-1.79631
1.8692
0.235091
5.44916
3.65286
-2.41437
2.48177
2.77875
2.70522
-0.190933
2.49868
-2.49329
18.9016
-11.4319
-7.46977
13.9705
-13.8874
-2.59974
-19.3274
16.7277
2.67842
3.00328
-2.94154
-3.94837
-1.392
-3.91442
2.95192
2.20512
3.1036
2.10714
3.34104
-8.10327
1.56295
6.54032
-5.99613
-3.48232
-13.3462
-6.26622
19.6124
16.6789
7.86255
-16.7885
0.277921
5.29301
-5.32916
-1.59835
-11.7479
8.34787
-9.94623
-15.217
-6.46093
21.6779
-9.58077
-1.08208
9.36573
2.38065
-10.8773
-7.09265
10.7431
1.42011
-12.0645
23.9707
-11.9062
-18.4413
8.51577
13.3209
16.2328
-17.8628
9.31888
8.54388
-4.54188
7.4323
1.41455
7.30599
-19.9313
13.888
11.3257
8.4017
-11.6642
2.04702
-17.8843
25.1722
-22.2877
-2.88455
12.8233
12.3489
13.5476
13.3281
-7.78453
21.3321
-3.61752
-18.6701
21.5018
-13.1001
15.7823
-28.8824
-29.1103
10.4402
-17.9544
22.072
-4.11761
-5.20405
-10.1084
23.1584
-2.0066
-21.1518
10.1189
-13.929
-11.8564
25.7853
-20.6059
18.4928
-6.26971
-12.2231
-12.6619
-9.44142
12.4883
2.80654
-25.8722
31.2206
-7.30534
7.80826
1.36926
7.83348
10.6095
-15.9755
5.36602
9.99642
-16.2661
6.76405
-22.7395
-12.1567
24.1905
-12.0337
-17.5832
-15.7927
-1.79052
4.87413
26.3464
-16.3045
12.1137
4.19077
8.46173
1.89274
-8.5601
-1.22256
0.968048
16.0864
-17.0545
10.3778
10.5
11.7044
4.38206
10.7703
7.11295
-10.7481
-0.972418
-14.7928
5.722
-6.61829
-14.5742
20.2962
-16.2679
1.69367
-10.3032
-13.9906
24.2938
-16.449
11.4255
12.5453
18.4587
-19.615
5.62439
-9.74633
-9.86865
10.6435
-17.2618
7.49833
12.7979
15.6088
2.48333
12.746
11.4444
-19.4302
1.14914
18.9665
-16.4723
3.88786
10.4674
-16.0016
0.208854
-10.5336
2.66476
-15.3461
-14.8044
16.5298
-21.1101
-12.3526
13.5684
2.7532
-13.9047
-0.460573
-4.95376
-3.03488
-5.18594
-3.27622
-5.54391
-11.0608
-1.92685
-9.13391
5.78093
-6.68591
-4.65799
7.01314
1.47509
-4.93518
4.82871
-5.57982
5.38158
-0.210165
13.0186
15.6556
7.4725
-8.47674
15.9492
-15.6087
23.627
-29.7251
14.1164
15.9487
-23.1698
-13.7764
2.70102
2.13984
2.61614
13.4469
-14.4139
0.967011
-13.2784
17.5971
-4.31877
-19.5795
6.30116
-6.13263
5.18666
0.526932
5.1685
1.41638
6.84595
-8.26233
-4.27832
-4.32998
-9.16327
-13.8594
23.0227
4.73539
-13.1051
8.3697
-12.0624
16.7978
0.0784981
-13.1836
16.9847
-10.1387
17.5116
-11.9839
5.52766
12.7918
22.3468
-9.55507
16.2482
-6.70867
7.06792
-16.623
-6.79148
-11.2883
18.1791
-13.0055
14.6992
-1.12466
15.8239
-13.7772
3.0022
-2.07285
8.42716
8.64229
16.8088
-12.4267
11.9697
-18.6783
-4.65331
-16.195
-3.39716
1.0185
-13.8253
12.8068
12.0434
-11.0249
-3.24215
8.98392
-5.74177
5.68173
-2.84826
-2.83347
-1.84636
-3.06942
1.86884
0.62984
6.31157
0.489158
-3.33742
-2.00413
-1.90031
10.3743
8.52729
-3.83177
3.73734
3.5649
-0.561626
0.958718
2.14488
4.58709
-3.62838
0.678105
3.90899
-2.26343
3.8277
1.46531
-3.84951
-0.06491
-3.40813
11.756
3.13219
-5.33731
1.70893
2.38218
-13.814
19.7414
-11.4153
-8.32606
22.1236
3.06359
-14.4789
16.2638
-13.5854
8.10351
-14.3697
-6.37542
-19.9608
-12.9159
-10.7095
19.0792
-12.3132
20.1757
3.86219
-20.4537
24.3159
-12.7398
6.27884
-9.44305
10.9084
-4.05804
-5.38501
11.2656
10.4123
-11.0535
-0.694364
0.212061
8.4192
-8.20714
-1.52702
-7.52315
-16.4089
17.829
-8.25568
17.5746
7.69356
-7.63403
25.2086
6.56495
-14.199
-11.8763
-12.9584
-5.6551
10.5777
-1.79616
-7.23421
-14.0192
7.27381
0.0321759
-19.0805
22.0746
-2.99404
-12.0754
-1.81269
14.636
-18.1025
1.83634
-11.3384
10.7362
12.1507
12.1829
-20.8411
-0.310671
-12.6456
3.17696
-15.8225
15.5259
-6.80295
17.2432
-16.0043
11.3463
-14.5292
14.3586
-1.46391
14.748
-9.38199
6.05509
-15.4965
-12.69
14.4753
-8.36075
15.8446
-10.1192
25.9638
-17.4246
14.4097
11.5541
-2.71378
-8.20231
-13.9797
11.2659
0.430044
8.26352
17.8373
-10.7244
16.8649
8.92448
-18.6708
-8.33728
-25.8596
7.18881
-13.3144
-7.35658
14.5454
11.1021
12.9948
4.67675
-11.7723
17.7849
-19.5754
-5.75118
-9.05323
14.5827
-3.31681
10.1458
-19.1991
-5.20026
13.1092
-0.192922
-12.9162
3.11208
-15.4647
5.13113
-20.5958
15.9789
-16.4395
1.76933
-7.90195
-3.16585
-3.27473
-2.17162
-3.4082
-7.56623
5.3946
-1.26507
3.56364
-12.5205
12.3275
-5.07668
10.4713
-4.0574
-1.12855
4.22865
1.15293
11.6242
3.025
-16.8014
-9.25439
14.6239
-5.3695
1.11995
-10.8003
3.82357
8.0997
14.0239
-24.8274
1.65754
-15.1438
-4.06952
6.20936
4.9144
16.9578
2.54389
6.55178
-0.342426
9.09568
2.27372
2.19811
-11.2168
12.1839
1.58997
15.7063
-1.88295
7.41061
3.28555
3.30357
2.02559
5.72247
2.91982
8.72467
0.462341
-3.86764
2.06781
-3.96812
-1.26961
-4.00693
-0.316684
3.72512
-4.0418
10.4958
-1.96854
5.12634
-1.88159
-4.93328
6.81487
-9.35136
-5.49491
-1.58592
-5.60616
7.31509
6.14983
-5.72917
-3.62219
2.39086
-15.3067
11.9789
-12.6732
-2.2609
22.055
-9.46136
1.25422
-3.18252
-6.26893
-7.66094
7.72585
24.1899
1.01868
12.2837
18.8477
11.755
1.03066
11.9881
-16.1057
-10.7514
-16.4164
-0.890551
13.7454
5.61492
20.7315
17.169
13.8522
-5.34686
-24.9223
20.7181
-8.53423
16.3993
-3.48306
-17.1128
14.6491
8.97788
-17.4023
0.962773
-16.15
-24.6842
-0.344505
12.672
-11.2797
10.1512
7.11629
2.01762
-2.42545
-0.849282
2.54255
-0.344441
8.75124
-0.188826
-8.19472
8.38355
-3.53629
2.26668
-0.429204
4.16655
6.38567
4.41713
-3.7776
-7.8194
-8.81639
-4.99765
-17.1424
2.47
-8.61984
5.6808
-3.41411
2.84733
4.96944
10.0958
-1.60168
-9.42321
7.34345
-4.49613
5.59965
)
;

boundaryField
{
    wall-4
    {
        type            calculated;
        value           uniform 0;
    }
    velocity-inlet-5
    {
        type            calculated;
        value           uniform -11.2529;
    }
    velocity-inlet-6
    {
        type            calculated;
        value           uniform -1.87548;
    }
    pressure-outlet-7
    {
        type            calculated;
        value           nonuniform List<scalar> 8(4.16792 5.00899 10.7715 12.1437 17.5799 15.0816 17.1243 15.6468);
    }
    wall-8
    {
        type            calculated;
        value           uniform 0;
    }
    frontAndBackPlanes
    {
        type            empty;
        value           nonuniform List<scalar> 0();
    }
}


// ************************************************************************* //
