/*--------------------------------*- C++ -*----------------------------------*\
  =========                 |
  \\      /  F ield         | OpenFOAM: The Open Source CFD Toolbox
   \\    /   O peration     | Website:  https://openfoam.org
    \\  /    A nd           | Version:  9
     \\/     M anipulation  |
\*---------------------------------------------------------------------------*/
FoamFile
{
    format      ascii;
    class       volScalarField;
    location    "1.49";
    object      p;
}
// * * * * * * * * * * * * * * * * * * * * * * * * * * * * * * * * * * * * * //

dimensions      [1 -1 -2 0 0 0 0];

internalField   nonuniform List<scalar> 
2268
(
825.63
826.625
828.609
831.3
833.943
836.636
839.401
842.279
845.326
848.647
852.356
856.484
860.981
865.789
870.92
876.514
882.564
889.668
898.596
909.327
920.85
930.984
940.138
766.668
767.232
768.577
770.709
773.012
775.497
778.173
781.082
784.287
787.87
791.885
796.3
801.054
806.121
811.533
817.552
824.839
833.245
842.957
853.968
865.369
874.943
883.594
707.599
708.113
708.843
710.332
712.171
714.35
716.862
719.75
723.067
726.865
731.14
735.799
740.767
746.048
751.741
758.198
766.296
775.679
785.997
797.222
808.696
818.541
827.979
648.367
648.99
649.384
650.341
651.747
653.613
655.938
658.766
662.12
666.021
670.446
675.257
680.357
685.77
691.633
698.31
706.605
716.312
726.95
738.506
750.094
761.446
772.971
588.983
589.741
589.961
590.521
591.572
593.168
595.322
598.089
601.432
605.347
609.839
614.741
619.922
625.408
631.339
638.055
646.203
655.738
666.386
678.041
689.531
703.346
717.395
529.476
530.304
530.385
530.636
531.402
532.773
534.789
537.523
540.843
544.716
549.232
554.203
559.449
564.977
570.902
577.531
585.402
594.568
604.869
616.127
627.029
643.937
659.921
469.872
470.666
470.591
470.588
471.119
472.303
474.212
476.953
480.254
484.044
488.56
493.602
498.916
504.475
510.342
516.792
524.284
532.921
542.56
552.821
562.298
581.652
597.873
410.206
410.828
410.592
410.382
410.709
411.726
413.548
416.31
419.588
423.264
427.759
432.876
438.271
443.86
449.632
455.826
462.845
470.801
479.468
487.98
494.785
509.964
525.632
641.12
653.794
665.774
661.283
642.084
618.315
601.456
586.924
569.099
554.777
549.321
549.905
553.063
555.614
560.143
560.701
562.993
576.233
584.129
580.826
590.197
599.051
594.812
577.544
557.15
542.851
528.176
509.584
497.002
494.508
496.878
500.154
502.743
507.128
505.548
503.62
514.203
524.159
519.741
529.985
536.877
532.122
516.217
497.648
485.701
471.593
451.812
440.08
439.895
440.922
446.153
448.852
452.766
449.403
443.912
452.65
464.711
458.583
471.909
479.556
474.169
459.317
439.246
428.835
418.14
402.152
397.579
398.828
386.972
391.112
393.465
396.788
392.318
387.186
391.435
405.703
397.237
416.67
427.303
420.735
407.865
382.901
369.235
367.346
364.24
367.93
366.031
337.723
334.68
337.19
340.132
340.446
335.583
332.238
347.878
337.522
369.965
386.026
373.043
357.963
335.719
317.295
315.774
324.766
326.646
324.6
295.923
279.448
280.159
283.695
287.139
284.6
276.431
291.988
271.229
327.373
355.276
335.248
311.818
298.239
282.515
275.006
281.851
281.278
280.427
269.247
244.458
229.267
227.073
230.439
231.116
223.422
237.768
199.28
287.814
319.688
304.043
271.998
263.369
253.654
246.675
239.213
237.528
239.143
247.759
224.883
197.198
184.872
180.481
176.119
173.346
189.756
316.948
317.085
316.582
316.066
316.062
316.795
318.488
321.3
324.488
327.864
332.23
337.464
343.026
348.68
354.261
359.95
366.113
372.839
379.67
385.338
387.168
380.286
338.394
190.604
189.685
188.318
187.049
186.373
186.533
188.109
191.969
195.133
197.025
200.864
206.509
212.557
218.557
223.849
228.572
233.361
238.397
243.213
247.064
248.296
246.6
246.41
72.928
71.8688
69.8691
68.1802
67.1292
66.8637
68.8018
74.3046
77.3055
76.6491
78.593
83.238
88.6868
94.585
98.9862
101.985
104.964
108.084
110.038
110.917
110.872
110.624
107.025
8.69294
8.57241
7.67495
7.23538
7.11651
7.16986
8.20523
10.9639
12.8255
12.6613
13.5156
15.4597
17.4677
20.0656
21.8356
22.8603
24.1626
25.5825
25.8435
25.3736
25.0432
24.434
25.2474
-0.963513
-0.936559
-0.84573
-0.532187
-0.174202
-0.0861334
-0.315958
-0.793833
-0.627769
0.451645
1.09911
1.28878
0.685425
0.0463074
-0.0412185
0.280286
0.731634
0.953161
1.02361
1.40754
1.85674
2.33741
1.7186
-1.04899
-1.05979
-1.01465
-0.878246
-0.714204
-0.628761
-0.766521
-0.889455
-0.850634
-0.616297
0.154378
1.09364
0.634307
0.183306
0.157214
0.442123
0.819836
1.13853
1.45977
1.96692
3.0214
4.15552
4.58694
-1.1935
-1.20454
-1.18523
-1.14563
-1.14053
-1.17871
-1.1829
-1.12319
-1.12768
-1.17427
-1.07837
-0.681015
-0.457918
-0.512313
-0.459629
-0.249892
0.00758648
0.243691
0.403613
0.414784
0.399988
1.10428
0.779681
-1.32946
-1.34156
-1.34488
-1.35995
-1.36198
-1.3413
-1.31499
-1.29148
-1.29045
-1.30678
-1.31419
-1.35147
-1.28511
-1.1514
-1.08746
-1.00212
-0.885188
-0.787802
-0.793092
-0.968666
-1.0622
-0.841796
-0.918608
-1.46224
-1.4702
-1.4797
-1.48565
-1.47684
-1.46688
-1.45337
-1.43965
-1.43621
-1.44293
-1.45226
-1.46238
-1.46238
-1.45586
-1.44566
-1.47228
-1.46712
-1.44227
-1.45765
-1.40451
-1.28253
-1.3766
-1.67581
-1.59197
-1.59374
-1.59844
-1.60316
-1.60125
-1.59577
-1.58787
-1.58012
-1.57772
-1.58105
-1.5867
-1.59477
-1.59827
-1.60272
-1.60826
-1.63218
-1.65368
-1.66764
-1.64993
-1.57867
-1.54748
-1.71646
-1.9868
-1.72108
-1.72026
-1.72331
-1.72703
-1.72703
-1.72443
-1.72029
-1.71645
-1.71544
-1.71772
-1.72201
-1.72843
-1.73333
-1.73757
-1.74567
-1.76135
-1.77836
-1.78905
-1.78341
-1.75301
-1.73733
-1.89132
-2.25394
-1.85076
-1.84987
-1.85185
-1.85428
-1.85487
-1.8539
-1.85206
-1.85048
-1.85049
-1.85255
-1.85631
-1.86162
-1.8672
-1.8732
-1.88124
-1.89308
-1.90545
-1.91426
-1.91515
-1.903
-1.89342
-1.98255
-2.18076
-1.98065
-1.98067
-1.9821
-1.98361
-1.98427
-1.98411
-1.98353
-1.9832
-1.98387
-1.98595
-1.98941
-1.99418
-1.99983
-2.00636
-2.01424
-2.024
-2.03394
-2.04214
-2.04679
-2.04565
-2.04473
-2.0933
-2.17915
-2.11047
-2.11154
-2.11275
-2.1138
-2.1144
-2.11462
-2.1147
-2.11505
-2.11613
-2.11825
-2.12151
-2.12592
-2.13133
-2.13772
-2.14523
-2.15387
-2.16283
-2.17125
-2.17869
-2.18529
-2.19386
-2.21957
-2.27074
-2.2403
-2.24204
-2.24325
-2.24407
-2.24463
-2.24503
-2.24546
-2.24618
-2.24748
-2.24959
-2.25266
-2.25674
-2.26179
-2.26782
-2.27483
-2.28278
-2.29134
-2.30026
-2.30981
-2.32136
-2.33793
-2.3646
-2.40629
-2.37011
-2.37208
-2.37325
-2.37397
-2.37453
-2.37506
-2.37569
-2.3766
-2.378
-2.38007
-2.38294
-2.38668
-2.39133
-2.3969
-2.40338
-2.41076
-2.41896
-2.42809
-2.43864
-2.45201
-2.4709
-2.49889
-2.53888
-2.49978
-2.5016
-2.50258
-2.50324
-2.50384
-2.50447
-2.50525
-2.50629
-2.50774
-2.50974
-2.51241
-2.51584
-2.52007
-2.52515
-2.53108
-2.53789
-2.54562
-2.55446
-2.5649
-2.57789
-2.59495
-2.61763
-2.64576
-2.62909
-2.63049
-2.63113
-2.63176
-2.63242
-2.63317
-2.63407
-2.63522
-2.63671
-2.63865
-2.64114
-2.64428
-2.64813
-2.65273
-2.65812
-2.66434
-2.67146
-2.67966
-2.68933
-2.70102
-2.71538
-2.73271
-2.75207
-2.75779
-2.75864
-2.75886
-2.75949
-2.76025
-2.76112
-2.76216
-2.7634
-2.76494
-2.76684
-2.7692
-2.7721
-2.77561
-2.77977
-2.78463
-2.79025
-2.7967
-2.80411
-2.8127
-2.82279
-2.83458
-2.84786
-2.86165
-2.88586
-2.88595
-2.88594
-2.88653
-2.88738
-2.88839
-2.88955
-2.8909
-2.8925
-2.89439
-2.89665
-2.89936
-2.90258
-2.90635
-2.91073
-2.91577
-2.92153
-2.92809
-2.93557
-2.94407
-2.95361
-2.96382
-2.97388
-3.01336
-3.01272
-3.01247
-3.01304
-3.01396
-3.01508
-3.01636
-3.01781
-3.01946
-3.02136
-3.02356
-3.02613
-3.02911
-3.03255
-3.03649
-3.041
-3.0461
-3.05184
-3.05826
-3.06535
-3.07302
-3.08091
-3.08841
-3.1405
-3.13921
-3.13875
-3.13925
-3.1402
-3.14138
-3.14273
-3.14426
-3.14596
-3.14787
-3.15002
-3.15247
-3.15526
-3.15842
-3.16199
-3.16601
-3.17051
-3.1755
-3.18097
-3.18687
-3.19305
-3.19922
-3.2049
-3.26743
-3.26574
-3.26507
-3.26542
-3.2663
-3.26747
-3.26884
-3.2704
-3.27213
-3.27403
-3.27614
-3.27849
-3.28111
-3.28403
-3.28728
-3.29088
-3.29485
-3.29917
-3.30383
-3.30873
-3.31375
-3.31862
-3.32302
-3.39429
-3.39243
-3.39157
-3.3917
-3.39243
-3.39351
-3.39484
-3.39638
-3.39809
-3.39997
-3.40202
-3.40427
-3.40674
-3.40944
-3.41241
-3.41564
-3.41915
-3.4229
-3.42687
-3.43097
-3.43507
-3.43898
-3.44244
-3.52112
-3.51926
-3.51824
-3.51813
-3.51867
-3.51961
-3.52085
-3.52232
-3.52398
-3.5258
-3.52777
-3.52991
-3.53223
-3.53474
-3.53745
-3.54036
-3.54346
-3.54673
-3.55012
-3.55356
-3.55695
-3.56011
-3.56287
-3.6479
-3.64615
-3.64502
-3.64472
-3.64506
-3.64584
-3.64694
-3.6483
-3.64987
-3.6516
-3.65348
-3.6555
-3.65766
-3.65998
-3.66245
-3.66506
-3.66781
-3.67066
-3.67358
-3.67649
-3.6793
-3.68188
-3.68411
-3.77462
-3.77301
-3.77185
-3.7714
-3.77157
-3.77219
-3.77315
-3.77437
-3.77581
-3.77743
-3.77919
-3.78107
-3.78308
-3.78521
-3.78745
-3.7898
-3.79223
-3.79473
-3.79724
-3.79971
-3.80205
-3.80419
-3.80601
-3.90128
-3.89982
-3.89868
-3.89813
-3.89817
-3.89864
-3.89945
-3.90054
-3.90184
-3.90332
-3.90494
-3.90668
-3.90853
-3.91047
-3.9125
-3.9146
-3.91675
-3.91893
-3.9211
-3.9232
-3.92518
-3.92695
-3.92845
-4.02787
-4.02656
-4.02546
-4.02488
-4.02481
-4.02516
-4.02584
-4.02679
-4.02795
-4.02929
-4.03076
-4.03234
-4.03402
-4.03577
-4.0376
-4.03947
-4.04137
-4.04328
-4.04515
-4.04695
-4.04862
-4.05011
-4.05135
-4.1544
-4.15322
-4.15219
-4.15159
-4.15146
-4.15172
-4.15229
-4.15311
-4.15413
-4.15532
-4.15664
-4.15806
-4.15957
-4.16114
-4.16277
-4.16443
-4.1661
-4.16777
-4.16939
-4.17093
-4.17236
-4.17362
-4.17467
-4.28085
-4.2798
-4.27885
-4.27826
-4.2781
-4.27828
-4.27875
-4.27946
-4.28035
-4.2814
-4.28257
-4.28383
-4.28517
-4.28657
-4.28801
-4.28948
-4.29094
-4.29239
-4.2938
-4.29513
-4.29635
-4.29743
-4.29832
-4.40723
-4.4063
-4.40542
-4.40486
-4.40468
-4.40482
-4.40521
-4.40582
-4.40659
-4.40751
-4.40853
-4.40965
-4.41083
-4.41206
-4.41332
-4.41461
-4.41589
-4.41714
-4.41836
-4.41951
-4.42056
-4.42148
-4.42226
-4.53352
-4.5327
-4.53191
-4.53139
-4.53121
-4.53131
-4.53164
-4.53216
-4.53283
-4.53362
-4.53452
-4.53549
-4.53652
-4.53759
-4.53869
-4.5398
-4.54091
-4.542
-4.54305
-4.54404
-4.54494
-4.54574
-4.54642
-4.65974
-4.65902
-4.6583
-4.65784
-4.65767
-4.65774
-4.65802
-4.65846
-4.65904
-4.65973
-4.66049
-4.66133
-4.66222
-4.66314
-4.66409
-4.66505
-4.666
-4.66694
-4.66784
-4.66869
-4.66947
-4.67016
-4.67076
-4.78586
-4.78524
-4.78461
-4.7842
-4.78404
-4.7841
-4.78434
-4.78472
-4.78521
-4.78579
-4.78645
-4.78716
-4.78792
-4.7887
-4.78951
-4.79032
-4.79113
-4.79193
-4.7927
-4.79342
-4.79409
-4.7947
-4.79522
-4.91191
-4.91139
-4.91084
-4.91048
-4.91035
-4.91039
-4.91059
-4.91091
-4.91133
-4.91182
-4.91237
-4.91297
-4.9136
-4.91426
-4.91494
-4.91562
-4.9163
-4.91697
-4.91761
-4.91822
-4.91879
-4.91931
-4.91977
-5.03789
-5.03748
-5.03702
-5.03671
-5.03658
-5.03662
-5.03679
-5.03705
-5.0374
-5.0378
-5.03826
-5.03875
-5.03926
-5.0398
-5.04036
-5.04092
-5.04148
-5.04203
-5.04256
-5.04307
-5.04354
-5.04398
-5.04438
-5.16381
-5.16354
-5.16316
-5.16289
-5.16277
-5.16279
-5.16292
-5.16314
-5.16341
-5.16373
-5.16409
-5.16448
-5.1649
-5.16533
-5.16577
-5.16622
-5.16666
-5.1671
-5.16753
-5.16794
-5.16833
-5.16868
-5.16902
-5.28969
-5.28958
-5.28928
-5.28902
-5.2889
-5.2889
-5.289
-5.28916
-5.28936
-5.28961
-5.28988
-5.29018
-5.29049
-5.29082
-5.29116
-5.29151
-5.29185
-5.29219
-5.29252
-5.29283
-5.29312
-5.2934
-5.29366
-5.41572
-5.41576
-5.41546
-5.41512
-5.41496
-5.41494
-5.415
-5.4151
-5.41524
-5.41541
-5.41561
-5.41582
-5.41605
-5.41629
-5.41653
-5.41678
-5.41703
-5.41727
-5.4175
-5.41772
-5.41792
-5.41811
-5.41829
-5.54207
-5.54286
-5.54204
-5.54116
-5.54092
-5.54088
-5.5409
-5.54096
-5.54104
-5.54115
-5.54127
-5.54141
-5.54156
-5.54171
-5.54188
-5.54204
-5.54219
-5.54234
-5.54248
-5.54261
-5.54272
-5.54282
-5.5429
-5.6662
-5.67181
-5.66872
-5.66726
-5.66697
-5.66687
-5.66685
-5.66685
-5.66688
-5.66693
-5.66699
-5.66705
-5.66712
-5.6672
-5.66727
-5.66735
-5.66742
-5.66748
-5.66753
-5.66756
-5.66758
-5.66758
-5.66757
224.24
222.01
241.323
241.66
228.278
214.639
200.245
184.628
92.26
85.6963
83.9458
83.4362
25.3943
26.6178
29.7332
30.1005
0.293114
-0.334545
-0.618689
-0.146019
3.8894
2.81777
1.49963
0.79772
-0.134955
-0.187195
0.111685
0.407381
-0.92948
-0.49877
-0.152609
-0.0099107
-1.1464
-0.809052
-0.668787
-0.556081
-1.29851
-0.922384
-0.775848
-0.757217
-2.0521
-1.58636
-1.26117
-1.15837
-2.42456
-2.41554
-2.1314
-1.90139
-2.08758
-1.96583
-1.93513
-2.15602
-2.27702
-2.28064
-2.38915
-2.48969
-2.46059
-2.51982
-2.56706
-2.57412
-2.57735
-2.59921
-2.61361
-2.61838
-2.66774
-2.67989
-2.68855
-2.69329
-2.76634
-2.77429
-2.7803
-2.78412
-2.87143
-2.87686
-2.88107
-2.88398
-2.98077
-2.9846
-2.98767
-2.98988
-3.0934
-3.09618
-3.09845
-3.10012
-3.20861
-3.21067
-3.21234
-3.21359
-3.32583
-3.32736
-3.3286
-3.32951
-3.4446
-3.44575
-3.44665
-3.44731
-3.56456
-3.56542
-3.56608
-3.56655
-3.68544
-3.6861
-3.68659
-3.68693
-3.80706
-3.80757
-3.80794
-3.8082
-3.92929
-3.9297
-3.92999
-3.9302
-4.05205
-4.05238
-4.05263
-4.0528
-4.17525
-4.17553
-4.17574
-4.17591
-4.29882
-4.29907
-4.29926
-4.29941
-4.4227
-4.42292
-4.4231
-4.42325
-4.54682
-4.54702
-4.54719
-4.54734
-4.67112
-4.67131
-4.67148
-4.67162
-4.79555
-4.79573
-4.79589
-4.79604
-4.92007
-4.92024
-4.9204
-4.92054
-5.04464
-5.0448
-5.04495
-5.04509
-5.16924
-5.16938
-5.16951
-5.16964
-5.29384
-5.29395
-5.29406
-5.29418
-5.41841
-5.41849
-5.41858
-5.41866
-5.54294
-5.54297
-5.54301
-5.54304
-5.66754
-5.66752
-5.66751
-5.66749
201.722
237.067
257.558
247.976
219.605
207.502
193.956
183.057
171.962
168.767
172.742
184.92
176.79
165.635
154.816
145.856
135.509
125.045
139.71
156.457
164.23
170.22
154.011
139.215
129.249
107.172
94.2945
89.7144
86.9925
89.9584
100.594
107.473
107.169
101.188
96.9133
86.1872
72.1267
78.5941
82.2254
82.1443
79.6682
63.3858
74.1065
66.9809
56.4785
53.9944
52.252
49.4229
48.1208
51.3869
54.0658
53.1541
50.1881
49.7874
45.088
36.9611
38.4393
19.9146
7.04474
11.1775
15.2062
25.5159
30.751
39.6932
41.9499
38.5273
34.7305
29.5835
25.8725
25.0373
25.1694
24.9999
25.9022
24.2892
20.1737
24.2862
2.53112
3.3257
3.76546
4.34773
6.12301
11.2227
22.5787
25.0646
21.4697
15.6315
10.0948
7.14356
6.76323
7.75313
10.7863
15.0736
13.6646
12.4045
15.9394
1.20706
2.27547
2.5251
2.88616
3.5393
5.25311
7.29435
8.48334
6.23586
3.37082
2.6992
2.7548
2.70108
2.80803
4.29331
7.12437
7.45661
7.43151
8.85102
0.887703
1.67477
2.24237
2.71389
3.04268
3.31656
3.12248
3.12243
2.39627
2.02624
2.02533
1.8322
1.79465
1.56518
1.29533
1.57603
2.13915
2.42197
2.32939
0.216296
0.865679
1.49759
1.84579
1.84719
2.24287
2.29662
2.10849
1.51513
1.11296
0.79419
0.510973
0.508292
0.305398
-0.507931
-0.911032
-1.05486
-1.07144
-0.834153
-0.351383
0.0922521
0.474145
0.25918
0.115314
0.126683
-0.0112764
-0.223245
-0.483895
-0.65378
-0.812206
-0.892101
-0.878756
-0.883392
-1.16699
-1.26229
-1.29174
-1.32536
-1.32776
-0.780183
-0.621017
-0.614849
-0.928391
-1.1521
-1.40902
-1.5201
-1.58727
-1.52917
-1.4717
-1.43059
-1.40138
-1.40477
-1.37131
-1.36459
-1.39877
-1.43153
-1.46888
-1.46253
-1.23287
-1.43414
-1.40072
-1.46712
-1.79344
-1.81137
-1.75701
-1.68907
-1.65622
-1.622
-1.59383
-1.57037
-1.55235
-1.53511
-1.52355
-1.5448
-1.57674
-1.60371
-1.59909
-1.94704
-2.25139
-2.22666
-1.90237
-1.94563
-1.90161
-1.87366
-1.83672
-1.80375
-1.77291
-1.74805
-1.72832
-1.71124
-1.69879
-1.70297
-1.71466
-1.73165
-1.74034
-1.73726
-2.39733
-2.46474
-2.40146
-2.18653
-2.06618
-2.04374
-2.01701
-1.98273
-1.95117
-1.92342
-1.90137
-1.88504
-1.87614
-1.87564
-1.87675
-1.87668
-1.87479
-1.87375
-1.8748
-2.50746
-2.45078
-2.38492
-2.30141
-2.23084
-2.19203
-2.15796
-2.12502
-2.09605
-2.07127
-2.0516
-2.03795
-2.03258
-2.03124
-2.02338
-2.01566
-2.01162
-2.01111
-2.01336
-2.55319
-2.51447
-2.47245
-2.41997
-2.36726
-2.32761
-2.29396
-2.26399
-2.23783
-2.21545
-2.19746
-2.1849
-2.17766
-2.17013
-2.1616
-2.15488
-2.15097
-2.15035
-2.15246
-2.61392
-2.59621
-2.56765
-2.52887
-2.48922
-2.45583
-2.42627
-2.39976
-2.37633
-2.35607
-2.33937
-2.32655
-2.31709
-2.30882
-2.30096
-2.29469
-2.29086
-2.29001
-2.29128
-2.69498
-2.68503
-2.66484
-2.63708
-2.60779
-2.58076
-2.55571
-2.53255
-2.51172
-2.49348
-2.47807
-2.46556
-2.45559
-2.44711
-2.43967
-2.43379
-2.43004
-2.42885
-2.42911
-2.78694
-2.78088
-2.76682
-2.74718
-2.72533
-2.70359
-2.6826
-2.66264
-2.64437
-2.62812
-2.61409
-2.60228
-2.59247
-2.58416
-2.57712
-2.57156
-2.56779
-2.56613
-2.56551
-2.88657
-2.8829
-2.87311
-2.85888
-2.84234
-2.82483
-2.80746
-2.79057
-2.77478
-2.76047
-2.74784
-2.73695
-2.72766
-2.71975
-2.71309
-2.70772
-2.70378
-2.70155
-2.70016
-2.99198
-2.98974
-2.9828
-2.97223
-2.95942
-2.94547
-2.93116
-2.917
-2.90351
-2.89103
-2.87978
-2.86988
-2.86127
-2.85386
-2.84756
-2.8423
-2.83802
-2.83511
-2.83289
-3.10175
-3.10031
-3.09528
-3.08731
-3.07732
-3.06614
-3.05437
-3.04253
-3.03104
-3.02023
-3.0103
-3.00138
-2.99352
-2.98667
-2.98072
-2.97553
-2.9709
-2.96739
-2.96366
-3.21481
-3.21384
-3.21009
-3.20398
-3.19612
-3.1871
-3.17743
-3.16753
-3.15776
-3.14842
-3.13971
-3.13177
-3.12466
-3.11836
-3.1128
-3.10781
-3.10316
-3.09937
-3.09468
-3.3304
-3.3297
-3.32683
-3.32207
-3.31582
-3.30851
-3.30053
-3.29224
-3.28394
-3.27589
-3.26828
-3.26124
-3.25485
-3.24911
-3.24399
-3.23932
-3.23496
-3.23127
-3.22692
-3.44794
-3.4474
-3.44516
-3.44139
-3.43637
-3.4304
-3.4238
-3.41684
-3.40978
-3.40284
-3.3962
-3.38998
-3.38426
-3.37906
-3.37436
-3.37005
-3.366
-3.36232
-3.35837
-3.567
-3.56656
-3.56478
-3.56175
-3.55768
-3.55278
-3.54729
-3.54143
-3.53542
-3.52943
-3.52363
-3.51814
-3.51302
-3.5083
-3.50398
-3.49996
-3.49608
-3.4923
-3.4884
-3.68725
-3.68688
-3.68545
-3.683
-3.67967
-3.67563
-3.67104
-3.66609
-3.66095
-3.65578
-3.65071
-3.64584
-3.64125
-3.63695
-3.63292
-3.62909
-3.62524
-3.62122
-3.61704
-3.80844
-3.80815
-3.80699
-3.80499
-3.80225
-3.79889
-3.79504
-3.79085
-3.78644
-3.78196
-3.77752
-3.77319
-3.76905
-3.7651
-3.76131
-3.75759
-3.7537
-3.74937
-3.74459
-3.93041
-3.93018
-3.92923
-3.9276
-3.92533
-3.92253
-3.91929
-3.91572
-3.91194
-3.90804
-3.90413
-3.90028
-3.89652
-3.89287
-3.88928
-3.88565
-3.88171
-3.87718
-3.87217
-4.05299
-4.05282
-4.05206
-4.05072
-4.04885
-4.04651
-4.04378
-4.04073
-4.03747
-4.03407
-4.03062
-4.02716
-4.02375
-4.02036
-4.01695
-4.01341
-4.00944
-4.00473
-3.99993
-4.17608
-4.17598
-4.17537
-4.17428
-4.17274
-4.17079
-4.16847
-4.16587
-4.16305
-4.16007
-4.15701
-4.15391
-4.15079
-4.14764
-4.14442
-4.14099
-4.13706
-4.13224
-4.12759
-4.29959
-4.29954
-4.29908
-4.2982
-4.29694
-4.29531
-4.29336
-4.29113
-4.28868
-4.28607
-4.28335
-4.28056
-4.27771
-4.27479
-4.27176
-4.2685
-4.26475
-4.26012
-4.25529
-4.42343
-4.42343
-4.42309
-4.42241
-4.42139
-4.42004
-4.4184
-4.4165
-4.41437
-4.41208
-4.40965
-4.40713
-4.40453
-4.40182
-4.39898
-4.39593
-4.39246
-4.38825
-4.38309
-4.54752
-4.54758
-4.54735
-4.54684
-4.54604
-4.54495
-4.54358
-4.54196
-4.54012
-4.5381
-4.53593
-4.53366
-4.53127
-4.52876
-4.52609
-4.52319
-4.51988
-4.51595
-4.51094
-4.67181
-4.67192
-4.67181
-4.67145
-4.67086
-4.67
-4.66888
-4.6675
-4.66591
-4.66413
-4.6622
-4.66014
-4.65795
-4.65561
-4.65307
-4.65024
-4.64687
-4.64275
-4.63799
-4.79623
-4.7964
-4.79639
-4.7962
-4.7958
-4.79517
-4.79428
-4.79312
-4.79173
-4.79017
-4.78845
-4.7866
-4.78461
-4.78244
-4.78003
-4.77722
-4.7737
-4.76921
-4.76401
-4.92075
-4.92096
-4.92106
-4.92102
-4.92083
-4.92044
-4.91977
-4.9188
-4.9176
-4.91621
-4.9147
-4.91305
-4.91128
-4.90932
-4.90709
-4.90442
-4.90092
-4.89625
-4.89089
-5.0453
-5.04556
-5.04576
-5.04589
-5.04593
-5.04582
-5.04537
-5.04455
-5.04349
-5.04227
-5.04094
-5.03951
-5.03799
-5.03632
-5.03439
-5.03204
-5.02888
-5.02432
-5.01912
-5.16986
-5.17015
-5.17044
-5.17074
-5.17105
-5.17129
-5.17108
-5.17035
-5.16939
-5.16831
-5.16716
-5.16597
-5.16474
-5.16344
-5.16196
-5.16016
-5.15767
-5.15333
-5.14797
-5.29438
-5.29468
-5.29503
-5.2955
-5.29613
-5.29686
-5.29694
-5.29618
-5.29525
-5.29428
-5.29331
-5.29238
-5.2915
-5.29066
-5.28976
-5.28878
-5.2874
-5.28316
-5.27883
-5.41881
-5.41906
-5.41943
-5.42001
-5.42102
-5.42262
-5.42336
-5.42232
-5.42128
-5.42038
-5.41958
-5.41892
-5.41845
-5.41817
-5.41799
-5.41811
-5.4185
-5.41417
-5.41248
-5.54313
-5.54328
-5.54355
-5.54418
-5.54586
-5.54956
-5.55201
-5.54991
-5.54837
-5.54741
-5.54673
-5.54636
-5.54639
-5.54691
-5.54785
-5.54979
-5.55389
-5.55193
-5.56895
-5.66748
-5.66751
-5.66771
-5.66843
-5.67131
-5.68141
-5.68181
-5.67708
-5.67465
-5.67355
-5.67302
-5.67294
-5.67352
-5.67532
-5.67779
-5.68196
-5.69003
-5.69903
-5.73879
)
;

boundaryField
{
    leftWall
    {
        type            calculated;
        value           nonuniform List<scalar> 
50
(
825.63
766.668
707.599
648.367
588.983
529.476
469.872
410.206
316.948
190.604
72.928
8.69294
-0.963513
-1.04899
-1.1935
-1.32946
-1.46224
-1.59197
-1.72108
-1.85076
-1.98065
-2.11047
-2.2403
-2.37011
-2.49978
-2.62909
-2.75779
-2.88586
-3.01336
-3.1405
-3.26743
-3.39429
-3.52112
-3.6479
-3.77462
-3.90128
-4.02787
-4.1544
-4.28085
-4.40723
-4.53352
-4.65974
-4.78586
-4.91191
-5.03789
-5.16381
-5.28969
-5.41572
-5.54207
-5.6662
)
;
    }
    rightWall
    {
        type            calculated;
        value           nonuniform List<scalar> 
50
(
584.129
524.159
464.711
405.703
347.878
291.988
237.768
189.756
139.71
78.5941
38.4393
24.2862
15.9394
8.85102
2.32939
-0.834153
-1.32776
-1.46253
-1.59909
-1.73726
-1.8748
-2.01336
-2.15246
-2.29128
-2.42911
-2.56551
-2.70016
-2.83289
-2.96366
-3.09468
-3.22692
-3.35837
-3.4884
-3.61704
-3.74459
-3.87217
-3.99993
-4.12759
-4.25529
-4.38309
-4.51094
-4.63799
-4.76401
-4.89089
-5.01912
-5.14797
-5.27883
-5.41248
-5.56895
-5.73879
)
;
    }
    lowerWall
    {
        type            calculated;
        value           nonuniform List<scalar> 
62
(
855.06
856.054
858.038
860.729
863.372
866.065
868.83
871.708
874.756
878.076
881.785
885.913
890.41
895.219
900.35
905.943
911.545
918.393
927.321
938.208
950.248
960.126
969.162
940.138
883.594
827.979
772.971
717.395
659.921
597.873
525.632
286.829
284.6
303.914
304.251
641.12
580.826
519.741
458.583
397.237
337.522
271.229
199.28
670.493
683.167
695.062
690.211
671.168
647.626
630.819
616.287
598.458
584.081
578.626
579.118
581.379
583.633
588.291
589.428
591.719
604.78
612.624
)
;
    }
    atmosphere
    {
        type            calculated;
        value           nonuniform List<scalar> 
46
(
-5.7294
-5.73016
-5.73009
-5.73001
-5.72995
-5.72991
-5.72989
-5.72988
-5.72988
-5.7299
-5.72992
-5.72995
-5.72998
-5.73001
-5.73004
-5.73007
-5.7301
-5.73011
-5.73012
-5.73011
-5.73009
-5.73004
-5.72998
-5.72992
-5.72988
-5.72984
-5.72979
-5.7297
-5.72956
-5.72942
-5.72929
-5.72916
-5.72906
-5.72904
-5.72904
-5.72904
-5.72904
-5.72904
-5.72904
-5.72904
-5.73125
-5.73207
-5.73175
-5.72906
-5.72909
-5.94078
)
;
    }
    defaultFaces
    {
        type            empty;
    }
}


// ************************************************************************* //
