/*--------------------------------*- C++ -*----------------------------------*\
  =========                 |
  \\      /  F ield         | OpenFOAM: The Open Source CFD Toolbox
   \\    /   O peration     | Website:  https://openfoam.org
    \\  /    A nd           | Version:  9
     \\/     M anipulation  |
\*---------------------------------------------------------------------------*/
FoamFile
{
    format      ascii;
    class       volScalarField;
    location    "9.77";
    object      k;
}
// * * * * * * * * * * * * * * * * * * * * * * * * * * * * * * * * * * * * * //

dimensions      [0 2 -2 0 0 0 0];

internalField   nonuniform List<scalar> 
2268
(
7.88033e-05
0.000206033
0.000305987
0.000385008
0.000450241
0.000504958
0.000550995
0.000589434
0.000621262
0.000647905
0.000670853
0.000691314
0.000709525
0.000723536
0.000728421
0.000716655
0.000686838
0.000643929
0.000581027
0.000503105
0.000422042
0.000290923
0.000125469
0.000174837
0.000478836
0.000684425
0.000848348
0.000983923
0.0010975
0.00119291
0.0012728
0.00133956
0.00139583
0.00144394
0.0014854
0.00151985
0.00154393
0.00155068
0.00153107
0.00147973
0.00140006
0.00128335
0.00114047
0.000977118
0.000706408
0.000294333
0.000252112
0.000641038
0.000893752
0.00109494
0.00126169
0.00140154
0.00151913
0.00161786
0.00170073
0.00177078
0.00183057
0.00188155
0.00192316
0.00195177
0.00196046
0.00194074
0.00188781
0.00180278
0.00167887
0.00151941
0.00131734
0.000989561
0.000422155
0.000318447
0.000772856
0.00105733
0.00128206
0.00146821
0.00162428
0.00175553
0.00186591
0.00195884
0.00203757
0.00210474
0.00216173
0.00220794
0.00223983
0.00225091
0.00223352
0.00218322
0.00210031
0.00197944
0.00181819
0.00160109
0.00124529
0.000550023
0.000376667
0.000890713
0.00120179
0.00144464
0.00164503
0.00181265
0.00195347
0.00207201
0.00217204
0.00225698
0.00232949
0.00239094
0.00244077
0.00247568
0.00248973
0.00247606
0.00243043
0.00235316
0.00224029
0.00208568
0.00186739
0.0014984
0.000689098
0.000429622
0.00100045
0.00133615
0.0015946
0.00180643
0.00198283
0.0021307
0.00225522
0.00236051
0.00245016
0.00252681
0.00259184
0.00264482
0.00268276
0.00270033
0.00269139
0.00265191
0.00258258
0.00248088
0.00233891
0.00213113
0.00176398
0.000857261
0.000479599
0.00110521
0.00146475
0.00173754
0.0019591
0.00214236
0.00229547
0.0024244
0.00253366
0.00262696
0.00270695
0.00277501
0.00283086
0.00287191
0.00289341
0.00288995
0.00285794
0.00279825
0.00270982
0.00258489
0.0023988
0.00206001
0.00110183
0.000528823
0.0012068
0.00159005
0.00187664
0.00210676
0.00229541
0.00245231
0.00258441
0.00269666
0.00279285
0.00287559
0.00294627
0.00300479
0.00304898
0.00307473
0.0030773
0.00305376
0.00300521
0.00293125
0.00282614
0.00267103
0.00239788
0.0015946
0.000190205
0.000416745
0.000591046
0.000660652
0.000688964
0.000701253
0.000697338
0.000681581
0.000658751
0.000635725
0.000584314
0.000502719
0.000463001
0.000463838
0.000428977
0.000352465
0.000257693
0.000171011
0.000107037
0.000380691
0.00089658
0.00122724
0.00138922
0.00146256
0.00149258
0.00149215
0.00146654
0.00142187
0.00136469
0.00126857
0.00111769
0.0010369
0.00101551
0.000928894
0.00078331
0.000589968
0.000393799
0.000204985
0.000485381
0.00116316
0.00155457
0.00175256
0.00184599
0.00188443
0.00188555
0.00185609
0.00180295
0.00173086
0.00162301
0.00147871
0.00137655
0.00131183
0.00119775
0.00102567
0.000800114
0.000556373
0.000284339
0.000560574
0.0013774
0.00180581
0.00202005
0.00212222
0.00216362
0.00216434
0.00213185
0.00207313
0.00199322
0.00188239
0.00174807
0.0016345
0.00153772
0.00140307
0.00121686
0.000977155
0.000708937
0.00035853
0.000625653
0.00158206
0.00203382
0.00225257
0.00235523
0.00239533
0.00239387
0.00235838
0.0022956
0.00221133
0.0021011
0.00197388
0.00185274
0.00173319
0.00158202
0.00138722
0.00114051
0.000856228
0.000429762
0.00073318
0.00180006
0.00226
0.00247035
0.00256655
0.00260192
0.00259682
0.00255834
0.00249266
0.00240618
0.00229771
0.0021744
0.00204681
0.00191111
0.00174726
0.00154605
0.00129473
0.000996719
0.000500334
0.000937183
0.00206278
0.0024929
0.00268112
0.00276525
0.00279334
0.0027836
0.00274228
0.00267473
0.0025875
0.00248086
0.00235893
0.00222531
0.00207752
0.00190406
0.0016969
0.00143986
0.00112711
0.000576055
0.00142939
0.00238363
0.00273201
0.00288714
0.00295544
0.00297463
0.00295971
0.00291583
0.00284748
0.00276056
0.00265534
0.0025331
0.00239383
0.00223625
0.00205446
0.0018404
0.00157631
0.00124617
0.000646884
0.000598949
0.00136133
0.00178311
0.00209109
0.0023331
0.002528
0.00268873
0.00282417
0.00293988
0.00303969
0.0031261
0.00320039
0.00326269
0.00331158
0.00334414
0.00335691
0.00334818
0.00331867
0.00326859
0.0031958
0.00309321
0.00293915
0.00265179
0.00070245
0.00157961
0.00205464
0.00238993
0.00264314
0.00283979
0.00299991
0.00313565
0.00325286
0.00335515
0.00344485
0.003523
0.00358981
0.00364488
0.00368698
0.0037142
0.00372545
0.00372103
0.00370133
0.00366615
0.003617
0.00355225
0.00345532
0.000881672
0.00182531
0.00235058
0.00270651
0.00296198
0.00315062
0.0033041
0.00343673
0.00355293
0.003656
0.00374865
0.00383135
0.00390352
0.00396548
0.00401782
0.00406036
0.00409275
0.00411247
0.00411699
0.00410923
0.0040944
0.00407892
0.00406518
0.00134538
0.00208469
0.00267726
0.00302558
0.0032718
0.00344135
0.00358572
0.00371528
0.00383142
0.00393652
0.0040348
0.00412608
0.00420729
0.00427865
0.00434343
0.00440422
0.00446291
0.00450281
0.00452006
0.00452692
0.00453194
0.00454338
0.0045807
0.00127117
0.00236034
0.00294472
0.00322842
0.00347771
0.00365092
0.00379197
0.00393369
0.00406845
0.00418513
0.00429551
0.0044013
0.00449249
0.00456882
0.00463775
0.00470179
0.0047648
0.00480913
0.00486642
0.00491425
0.00492074
0.0049465
0.00504446
0.0017304
0.00246866
0.00299574
0.00331377
0.00361553
0.00380215
0.00394266
0.00408915
0.00423382
0.00436975
0.00450122
0.00462697
0.00473275
0.00482135
0.00489568
0.00496857
0.00505119
0.0050956
0.00514766
0.00523004
0.00526748
0.00526974
0.00532755
0.00198456
0.00255477
0.00302592
0.0033787
0.00366373
0.0038704
0.00404521
0.00421355
0.00437222
0.00452138
0.00466622
0.00480192
0.00491822
0.00501797
0.00510253
0.00518225
0.00526427
0.00531886
0.00536624
0.00543629
0.00549456
0.00552401
0.00559029
0.002097
0.00261821
0.00305354
0.00341087
0.00369156
0.00392464
0.00412901
0.00431762
0.00449197
0.00465563
0.00481197
0.00495677
0.00508195
0.00519045
0.00528452
0.00536805
0.00544538
0.00551078
0.00556779
0.00563266
0.00569507
0.0057421
0.0057971
0.00215655
0.00265599
0.00307877
0.00343322
0.00372703
0.00398053
0.00420665
0.00441373
0.00460462
0.00478294
0.00495151
0.0051075
0.00524326
0.00536032
0.00546293
0.00555326
0.00563339
0.0057044
0.00576886
0.00583339
0.00589615
0.00595086
0.00600027
0.00219442
0.00268583
0.00310589
0.00346295
0.00376973
0.0040402
0.00428415
0.00450799
0.00471478
0.00490745
0.00508799
0.00525477
0.00540224
0.00553096
0.00564529
0.00574629
0.00583395
0.00591085
0.00598065
0.00604692
0.00611019
0.00616788
0.00621618
0.00222371
0.00271313
0.00313605
0.00349966
0.00381876
0.00410414
0.00436366
0.00460281
0.00482449
0.00503087
0.00522303
0.00540052
0.00556029
0.00570239
0.00583004
0.00594355
0.00604188
0.00612722
0.00620382
0.00627476
0.00634095
0.00640103
0.00645062
0.00225129
0.00274301
0.00317148
0.0035431
0.00387348
0.00417211
0.00444563
0.00469895
0.0049346
0.00515386
0.00535762
0.00554636
0.00571895
0.00587521
0.0060166
0.00614325
0.00625399
0.00635045
0.00643675
0.00651582
0.00658839
0.00665329
0.00670716
0.00227878
0.00277595
0.00321185
0.00359232
0.00393336
0.00424414
0.00453063
0.00479719
0.00504603
0.00527766
0.00549328
0.00569403
0.00587996
0.00605088
0.00620659
0.00634714
0.00647174
0.00658163
0.00668044
0.0067707
0.00685292
0.00692599
0.00698724
0.00230611
0.00281117
0.00325617
0.00364636
0.00399812
0.00432067
0.00461958
0.00489874
0.00516005
0.00540409
0.00563241
0.00584625
0.00604609
0.00623194
0.00640302
0.00655889
0.00669898
0.00682456
0.00693844
0.00704258
0.0071373
0.00722158
0.00729313
0.00233297
0.00284794
0.00330374
0.0037048
0.0040678
0.00440223
0.00471352
0.00500504
0.00527874
0.00553574
0.00577769
0.0060058
0.00622065
0.00642225
0.00660985
0.00678262
0.00694025
0.0070838
0.00721525
0.00733595
0.00744602
0.00754445
0.00762913
0.00235887
0.0028857
0.00335434
0.00376768
0.00414274
0.00448945
0.00481334
0.00511755
0.00540425
0.00567519
0.00593199
0.00617574
0.00640695
0.00662563
0.00683118
0.00702282
0.00720025
0.00736416
0.00751577
0.00765585
0.00778426
0.00789987
0.00800067
0.00238218
0.00292391
0.00340796
0.00383535
0.00422347
0.004583
0.00491993
0.00523758
0.00553844
0.00582466
0.00609779
0.00635879
0.00660815
0.00684583
0.00707136
0.00728411
0.00748375
0.00767056
0.00784508
0.00800751
0.00815737
0.00829337
0.00841345
0.00239911
0.00296167
0.00346498
0.00390828
0.00431054
0.00468364
0.00503433
0.00536652
0.00568301
0.00598607
0.00627722
0.0065574
0.00682703
0.00708608
0.00733416
0.0075707
0.00779531
0.00800785
0.00820828
0.00839628
0.00857096
0.00873077
0.00887357
0.00240435
0.00299866
0.00352619
0.0039871
0.00440456
0.00479219
0.00515774
0.00550579
0.00583949
0.00616114
0.00647228
0.00677385
0.00706624
0.00734943
0.00762304
0.00788651
0.00813927
0.00838083
0.00861061
0.00882778
0.00903102
0.00921847
0.00938778
0.00240737
0.00303787
0.00359234
0.00407228
0.00450608
0.00490945
0.00529124
0.00565671
0.00600935
0.00635155
0.00668493
0.00701041
0.00732841
0.0076389
0.00794146
0.00823545
0.0085201
0.00879451
0.00905764
0.00930814
0.00954421
0.00976363
0.00996374
0.00239912
0.00308102
0.00366411
0.00416425
0.00461564
0.00503616
0.00543577
0.00582042
0.00619395
0.00655894
0.00691709
0.00726938
0.00761625
0.00795762
0.00829303
0.0086217
0.00894256
0.00925435
0.00955552
0.00984417
0.010118
0.0103743
0.0106101
0.00240722
0.003127
0.00374144
0.0042633
0.00473368
0.00517292
0.00559212
0.00599792
0.00639456
0.00678488
0.0071707
0.0075531
0.00793252
0.00830889
0.00868163
0.00904975
0.0094119
0.00976637
0.0101111
0.0104435
0.0107608
0.0110598
0.0113368
0.00240512
0.00317751
0.00382457
0.00436959
0.00486054
0.00532021
0.00576094
0.00619009
0.00661236
0.00703086
0.00744764
0.00786389
0.0082801
0.00869616
0.00911138
0.00952453
0.00993387
0.0103372
0.0107319
0.0111147
0.0114821
0.0118302
0.0121549
0.00240406
0.00323189
0.00391343
0.00448324
0.00499641
0.00547837
0.00594274
0.00639766
0.00684834
0.00729828
0.00774974
0.00820409
0.00866192
0.00912306
0.0095867
0.0100513
0.0105147
0.0109742
0.0114263
0.0118672
0.0122924
0.0126973
0.0130769
0.0024087
0.00328959
0.00400803
0.00460422
0.0051413
0.00564751
0.00613781
0.00662116
0.00710336
0.00758833
0.00807866
0.00857595
0.00908088
0.00959329
0.0101122
0.0106357
0.0111613
0.0116853
0.0122037
0.0127116
0.0132035
0.0136739
0.0141167
0.00240544
0.00335171
0.00410818
0.00473227
0.00529502
0.00582753
0.0063462
0.00686087
0.007378
0.00790201
0.0084359
0.00898155
0.0095398
0.0101105
0.0106925
0.0112837
0.0118806
0.0124791
0.0130741
0.0136594
0.0142285
0.0147744
0.01529
0.00240602
0.00341695
0.00421339
0.00486692
0.00545711
0.00601805
0.00656765
0.00711675
0.00767251
0.00823996
0.00882258
0.00942265
0.0100412
0.0106782
0.0113324
0.012001
0.0126802
0.0133647
0.0140481
0.014723
0.0153814
0.0160147
0.0166142
0.00240542
0.00348535
0.00432293
0.00500736
0.00562682
0.00621842
0.00680165
0.0073884
0.00798671
0.00860235
0.00923938
0.00990053
0.0105872
0.0112995
0.0120359
0.0127934
0.0135673
0.0143511
0.0151371
0.0159161
0.016678
0.0174123
0.0181087
0.00240298
0.00355515
0.00443568
0.00515242
0.00580296
0.00642751
0.00704719
0.00767504
0.00832005
0.00898884
0.00968625
0.0104157
0.0111791
0.0119766
0.0128068
0.0136661
0.014549
0.0154478
0.0163527
0.0172526
0.018135
0.0189867
0.0197951
0.0024123
0.00362724
0.0045503
0.00530058
0.00598398
0.00664377
0.00730275
0.0079752
0.00867121
0.00939837
0.0101625
0.0109679
0.011817
0.0127107
0.0136474
0.0146231
0.0156315
0.0166632
0.0177066
0.0187476
0.0197706
0.0207593
0.0216976
0.00240718
0.00369976
0.004665
0.00544992
0.00616786
0.00686514
0.00756625
0.00828679
0.00903804
0.00982881
0.0106661
0.0115553
0.0124999
0.0135013
0.0145583
0.0156668
0.0168193
0.0180052
0.01921
0.0204163
0.0216045
0.0227539
0.0238439
0.00240521
0.00376854
0.00477764
0.005598
0.00635208
0.00708904
0.007835
0.00860692
0.00941744
0.0102768
0.0111935
0.0121744
0.0132242
0.0143454
0.0155377
0.0167968
0.0181149
0.0194793
0.0208728
0.022274
0.0236577
0.0249972
0.0262658
0.00240881
0.00383578
0.00488512
0.00574164
0.00653356
0.00731239
0.00810574
0.00893196
0.00980526
0.0107376
0.0117394
0.0128192
0.0139837
0.0152371
0.0165801
0.0180094
0.0195167
0.0210881
0.0227033
0.0243357
0.0259531
0.0275201
0.0290012
0.00240335
0.00389318
0.00498314
0.00587698
0.00670876
0.0075317
0.00837466
0.00925748
0.0101962
0.0112049
0.0122962
0.0134812
0.0147689
0.016166
0.0176753
0.0192952
0.0210181
0.0228295
0.0247061
0.0266152
0.0285153
0.0303586
0.0320961
0.00240961
0.0039384
0.00506606
0.00599944
0.00687396
0.00774335
0.00863762
0.00957835
0.0105838
0.0116706
0.0128542
0.0141487
0.0155664
0.0171172
0.0188073
0.0206383
0.0226052
0.0246941
0.0268799
0.0291234
0.0313708
0.0335559
0.0356085
0.00240591
0.00395976
0.00512677
0.00610436
0.00702574
0.00794396
0.00889034
0.00988876
0.0109603
0.0121248
0.013401
0.0148067
0.0163582
0.0180698
0.0199528
0.0220141
0.0242537
0.0266619
0.0292141
0.0318656
0.034547
0.0371648
0.0396135
0.00240742
0.00395099
0.00515827
0.00618821
0.00716186
0.00813082
0.00912852
0.0101823
0.0113169
0.0125558
0.0139218
0.0154367
0.0171217
0.0189968
0.02108
0.0233866
0.0259257
0.0286969
0.0316819
0.0348345
0.0380683
0.0412502
0.044213
0.00241163
0.00389465
0.00515486
0.00625007
0.00728214
0.00830208
0.0093478
0.0104518
0.0116435
0.0129505
0.0143996
0.0160173
0.01783
0.0198646
0.0221481
0.0247069
0.0275653
0.0307397
0.0342292
0.0379976
0.041947
0.0458907
0.0495518
0.00241038
0.00378447
0.00511497
0.00629275
0.00738852
0.00845637
0.00954324
0.0106891
0.0119288
0.0132942
0.0148159
0.0165248
0.018453
0.0206347
0.0231073
0.0259121
0.0290941
0.0326978
0.0367573
0.0412714
0.0461573
0.0511748
0.055853
0.00360501
0.00374136
0.00504099
0.00631928
0.00748241
0.00859069
0.00970807
0.0108846
0.0121607
0.0135717
0.0151516
0.016935
0.018959
0.0212651
0.0239017
0.0269266
0.0304103
0.0344367
0.0390983
0.0444747
0.0505713
0.0571671
0.0635052
0.0171701
0.00518633
0.00495581
0.00632433
0.00755943
0.00869699
0.009832
0.0110269
0.0123264
0.0137683
0.0153887
0.017225
0.019318
0.0217152
0.0244744
0.0276685
0.0313938
0.0357782
0.0409919
0.0472532
0.0548038
0.063749
0.0733229
0.083975
0.0135905
0.00506713
0.00631138
0.00760737
0.00875971
0.00990083
0.0111031
0.0124137
0.0138711
0.0155123
0.017376
0.0195053
0.0219509
0.0247761
0.0280635
0.0319259
0.0365239
0.0420944
0.0490063
0.0578804
0.0698759
0.0874336
0.0018872
0.00159549
0.00157203
0.0017881
0.003333
0.00327156
0.0032549
0.00328432
0.00404361
0.00402739
0.0040128
0.00400211
0.00459763
0.00459747
0.00457897
0.00454277
0.00510507
0.00510526
0.00504586
0.00498957
0.00540531
0.00542126
0.00536093
0.00531093
0.00563328
0.00563261
0.00559944
0.0055568
0.00581909
0.00581346
0.00579518
0.00577189
0.00601831
0.00601943
0.00601312
0.00600179
0.00623584
0.00624252
0.00624406
0.00624056
0.00647369
0.00648385
0.00648945
0.00649041
0.00673489
0.00674826
0.00675706
0.00676127
0.00702107
0.00703851
0.00705125
0.00705917
0.0073344
0.00735665
0.0073742
0.00738687
0.00767965
0.00770777
0.00773115
0.00774956
0.00806249
0.00809773
0.00812809
0.00815333
0.00848879
0.0085325
0.00857112
0.0086044
0.00896484
0.00901852
0.00906684
0.00910955
0.00949769
0.00956303
0.00962268
0.00967638
0.0100953
0.0101742
0.0102471
0.0103135
0.0107669
0.0108615
0.0109496
0.0110308
0.0115226
0.0116353
0.0117411
0.0118394
0.0123741
0.0125078
0.0126338
0.0127517
0.0133345
0.0134922
0.0136415
0.0137819
0.0144186
0.0146038
0.0147797
0.0149457
0.0156426
0.0158593
0.0160656
0.0162609
0.017025
0.0172778
0.0175188
0.0177472
0.0185862
0.0188802
0.0191608
0.019427
0.0203493
0.0206906
0.0210163
0.0213253
0.0223402
0.0227358
0.023113
0.0234707
0.0245888
0.0250469
0.025483
0.0258961
0.0271299
0.0276602
0.028164
0.0286399
0.0300052
0.0306195
0.0312011
0.0317485
0.0332659
0.0339786
0.0346499
0.0352784
0.0369769
0.0378055
0.0385805
0.0393005
0.0412232
0.0421891
0.0430835
0.0439054
0.0461199
0.0472491
0.0482792
0.0492107
0.0518305
0.0531521
0.0543306
0.0553714
0.0586
0.0601395
0.0614635
0.0625912
0.0668232
0.0685728
0.0699898
0.0711304
0.0771844
0.0789925
0.0803116
0.0812824
0.0908683
0.0920797
0.0927932
0.0932402
0.00252792
0.00290193
0.00309875
0.00319816
0.00324023
0.00324513
0.00322238
0.00317553
0.00310798
0.00302291
0.00291907
0.00279463
0.00264722
0.00247637
0.00228057
0.00205205
0.00177398
0.00140894
0.000715048
0.0033779
0.00348544
0.00355703
0.00359416
0.00360329
0.00359031
0.00355875
0.00350993
0.00344484
0.00336338
0.00326021
0.00313069
0.00297215
0.00278376
0.00256396
0.00230612
0.00199397
0.00157243
0.000758234
0.00399166
0.00398181
0.00397525
0.00396603
0.00394866
0.00392096
0.00388196
0.00383132
0.00376903
0.00369225
0.00358982
0.00345471
0.00328449
0.00307887
0.00283559
0.00254789
0.00219703
0.00172213
0.000837785
0.00449732
0.0044208
0.00436214
0.00431867
0.00427986
0.00423861
0.00419124
0.0041369
0.00407609
0.00400448
0.00390308
0.00376299
0.00358416
0.00336301
0.00309933
0.00278516
0.00240037
0.00189078
0.00117696
0.00489564
0.00478824
0.00470785
0.00464597
0.00459524
0.00454311
0.00448605
0.00442413
0.00435768
0.00428032
0.00417175
0.00403733
0.00387337
0.00362709
0.00335206
0.00301604
0.00261183
0.00207152
0.00108527
0.00520498
0.00509994
0.00501407
0.004945
0.00488928
0.00482987
0.00475988
0.00468352
0.00460486
0.00451568
0.0044039
0.00427952
0.00411239
0.00386038
0.00358267
0.00323927
0.00282421
0.00228025
0.00151861
0.00548094
0.00538515
0.00530606
0.00522812
0.00516353
0.00509355
0.00501028
0.00492035
0.00482752
0.00472592
0.00461654
0.00451019
0.00433928
0.0040364
0.00372209
0.00338075
0.00298147
0.00248197
0.00187553
0.00572689
0.00564405
0.00556851
0.00549428
0.00542399
0.00534416
0.00525108
0.00515003
0.00504311
0.00492559
0.00479484
0.00464538
0.00443115
0.00413057
0.00380197
0.0034486
0.00304411
0.00255079
0.00194663
0.00597414
0.00590558
0.0058331
0.00576131
0.0056849
0.00559527
0.00549212
0.0053797
0.00525814
0.0051224
0.00496339
0.00476598
0.00451041
0.00419998
0.00386056
0.00348818
0.00306336
0.00255572
0.00194541
0.00622539
0.00617232
0.00610612
0.00603612
0.00595467
0.00585547
0.00574083
0.00561468
0.00547604
0.00531946
0.00513264
0.00489648
0.0046036
0.00427117
0.00391232
0.00351748
0.00306849
0.0025405
0.00194989
0.00648352
0.00644551
0.00638844
0.00631998
0.00623428
0.00612767
0.00600299
0.00586285
0.00570552
0.00552593
0.00531288
0.00504827
0.00472699
0.00436675
0.00397835
0.00355629
0.00308373
0.00253839
0.0019447
0.00676026
0.00673325
0.00668445
0.00661748
0.00652933
0.00641847
0.00628624
0.00613358
0.00595867
0.00575715
0.00552038
0.00523421
0.00489122
0.00450369
0.00408312
0.00363089
0.00313107
0.00255875
0.00194683
0.0070642
0.00704597
0.00700406
0.00693939
0.00685101
0.0067379
0.00659999
0.00643697
0.00624702
0.00602653
0.00576927
0.00546526
0.00510564
0.00469479
0.00424357
0.00375989
0.00322716
0.00261145
0.00194381
0.00739957
0.007391
0.00735645
0.00729612
0.00720948
0.00709561
0.00695363
0.0067825
0.00658033
0.00634411
0.0060692
0.0057489
0.00537552
0.00494691
0.00446929
0.00395303
0.00337705
0.00269556
0.00194432
0.00777161
0.00777469
0.00774951
0.00769576
0.00761288
0.00749987
0.00735552
0.0071784
0.00696659
0.00671744
0.00642732
0.00609147
0.00570413
0.00526079
0.00476179
0.00421067
0.0035824
0.00281581
0.00191149
0.00818642
0.00820347
0.00819002
0.00814523
0.00806826
0.007958
0.00781308
0.0076319
0.00741252
0.00715257
0.00684906
0.00649824
0.00609565
0.00563659
0.0051168
0.00452863
0.00384223
0.00298395
0.00194374
0.00865048
0.00868405
0.00868483
0.00865144
0.00858264
0.00847714
0.00833344
0.00814984
0.00792441
0.00765496
0.00733888
0.00697301
0.00655344
0.00607522
0.00553096
0.00490518
0.00415984
0.00320048
0.00194928
0.00917083
0.0092238
0.0092415
0.00922201
0.00916368
0.00906494
0.00892411
0.00873938
0.00850881
0.00823028
0.00790137
0.00751917
0.00707989
0.00657803
0.00600408
0.00533829
0.00453485
0.00347093
0.00194937
0.00975542
0.009831
0.00986853
0.00986558
0.00982004
0.00972998
0.00959348
0.00940857
0.00917321
0.00888524
0.00854226
0.00814135
0.00767857
0.00714786
0.00653828
0.00582738
0.00496309
0.00379549
0.00195372
0.0104132
0.010515
0.0105756
0.010592
0.0105616
0.0104821
0.0103512
0.0101667
0.00992646
0.00962806
0.00926896
0.00884608
0.00835519
0.00778969
0.00713767
0.00637505
0.00544592
0.00418466
0.00195227
0.0111544
0.0112866
0.0113737
0.0114124
0.0113995
0.0113324
0.0112083
0.0110247
0.010779
0.0104687
0.0100909
0.00964208
0.00911778
0.00851081
0.00780846
0.00698538
0.0059825
0.00462085
0.0021457
0.0119905
0.0121575
0.0122751
0.0123393
0.0123466
0.0122937
0.0121774
0.0119949
0.0117431
0.0114191
0.0110194
0.0105404
0.00997672
0.00932081
0.00855912
0.00766468
0.00657489
0.00509529
0.00236972
0.0129345
0.0131413
0.0132936
0.0133869
0.013417
0.0133803
0.013273
0.0130917
0.012833
0.0124932
0.0120684
0.0115542
0.0109448
0.0102317
0.00940066
0.00842282
0.00723026
0.00561026
0.00261483
0.0140008
0.014253
0.0144447
0.0145709
0.0146268
0.0146082
0.014511
0.0143312
0.0140647
0.0137071
0.0132539
0.0126996
0.0120378
0.0112591
0.0103476
0.00927227
0.0079592
0.0061748
0.00287156
0.0152059
0.0155096
0.0157458
0.0159088
0.0159935
0.0159953
0.0159096
0.0157316
0.0154566
0.0150794
0.0145944
0.0139953
0.0132743
0.0124205
0.0114165
0.0102281
0.00877442
0.006798
0.0031377
0.016568
0.0169298
0.0172159
0.0174201
0.0175371
0.0175617
0.0174888
0.0173133
0.0170295
0.0166313
0.0161117
0.015463
0.0146758
0.0137372
0.0126277
0.0113093
0.00969306
0.00749439
0.00342301
0.0181075
0.0185348
0.0188767
0.0191267
0.0192793
0.0193292
0.019271
0.019099
0.0188066
0.0183864
0.01783
0.0171276
0.0162675
0.0152346
0.0140062
0.0125401
0.0107381
0.00828601
0.00375106
0.0198475
0.0203482
0.020752
0.0210525
0.0212444
0.0213223
0.0212809
0.0211138
0.0208137
0.0203715
0.0197769
0.0190176
0.0180789
0.0169426
0.015582
0.0139498
0.0119376
0.00919916
0.00414419
0.0218138
0.0223964
0.0228686
0.0232244
0.023459
0.0235679
0.0235455
0.0233855
0.0230792
0.0226162
0.0219835
0.0211657
0.0201443
0.0188966
0.0173908
0.0155733
0.013324
0.0102612
0.00461689
0.0240359
0.0247095
0.0252565
0.0256722
0.025953
0.0260954
0.0260947
0.0259442
0.0256346
0.0251534
0.0244847
0.0236091
0.0225031
0.0211377
0.0194745
0.0174514
0.0149343
0.0114998
0.00517156
0.0265477
0.0273218
0.02795
0.0284296
0.0287592
0.0289375
0.0289609
0.0288231
0.0285141
0.0280193
0.0273193
0.0263897
0.0252003
0.0237142
0.0218831
0.0196334
0.0168126
0.0129476
0.00581427
0.0293887
0.0302731
0.0309879
0.0315342
0.0319143
0.0321299
0.0321796
0.0320581
0.0317549
0.0312533
0.0305299
0.0295542
0.0282876
0.0266823
0.0246765
0.0221796
0.0190152
0.0146488
0.00656417
0.0326064
0.03361
0.0344154
0.035029
0.0354591
0.0357119
0.0357895
0.0356881
0.0353971
0.0348978
0.0341628
0.0331543
0.0318234
0.0301078
0.0279268
0.0251661
0.021615
0.0166634
0.00744826
0.0362579
0.0373881
0.0382843
0.0389626
0.0394392
0.0397271
0.0398327
0.0397548
0.0394834
0.0389983
0.0382676
0.037246
0.0358725
0.0340664
0.0317215
0.0286886
0.0247084
0.0190728
0.00850164
0.0404137
0.0416734
0.0426556
0.0433904
0.0439057
0.0442231
0.0443549
0.0443033
0.0440595
0.0436023
0.0428964
0.0418889
0.0405054
0.0386438
0.0361644
0.0328684
0.0284243
0.0219895
0.00976693
0.0451617
0.0465456
0.0475997
0.0483752
0.0489156
0.049253
0.0494064
0.0493821
0.0491735
0.0487596
0.0481025
0.0471435
0.0457956
0.0439335
0.0413765
0.0378582
0.0329389
0.0255794
0.0113179
0.0506117
0.0520991
0.0531975
0.0539877
0.0545323
0.0548752
0.0550423
0.0550443
0.0548771
0.0545214
0.0539392
0.0530689
0.0518146
0.0500301
0.047491
0.0438452
0.0384944
0.0300971
0.0132922
0.0569001
0.0584439
0.0595395
0.0603057
0.060826
0.0611549
0.0613244
0.0613485
0.0612264
0.0609414
0.0604588
0.059719
0.0586248
0.0570184
0.0546393
0.051043
0.0454165
0.0359377
0.0159028
0.0641909
0.0657023
0.0667229
0.0674132
0.0678738
0.0681655
0.0683229
0.0683619
0.0682842
0.0680774
0.0677131
0.0671402
0.0662711
0.0649549
0.0629212
0.0596582
0.0541139
0.0437319
0.0195117
0.0726666
0.0739977
0.0748455
0.0753984
0.0757607
0.0759907
0.0761199
0.0761635
0.0761245
0.0759955
0.0757568
0.0753719
0.0747752
0.0738474
0.0723561
0.0698065
0.0650078
0.0544919
0.0248324
0.082492
0.0834342
0.0839976
0.0843524
0.0845817
0.0847281
0.0848138
0.0848495
0.0848382
0.0847769
0.0846556
0.084455
0.0841399
0.0836437
0.0828274
0.0813554
0.0782432
0.0696273
0.0333515
0.0937306
0.0940665
0.0942559
0.0943723
0.0944472
0.0944956
0.0945253
0.0945399
0.094541
0.094528
0.094499
0.0944498
0.0943734
0.094257
0.0940741
0.0937516
0.0929845
0.089656
0.0469693
)
;

boundaryField
{
    leftWall
    {
        type            kqRWallFunction;
        value           nonuniform List<scalar> 
50
(
7.88033e-05
0.000174837
0.000252112
0.000318447
0.000376667
0.000429622
0.000479599
0.000528823
0.000598949
0.00070245
0.000881672
0.00134538
0.00127117
0.0017304
0.00198456
0.002097
0.00215655
0.00219442
0.00222371
0.00225129
0.00227878
0.00230611
0.00233297
0.00235887
0.00238218
0.00239911
0.00240435
0.00240737
0.00239912
0.00240722
0.00240512
0.00240406
0.0024087
0.00240544
0.00240602
0.00240542
0.00240298
0.0024123
0.00240718
0.00240521
0.00240881
0.00240335
0.00240961
0.00240591
0.00240742
0.00241163
0.00241038
0.00360501
0.0171701
0.083975
)
;
    }
    rightWall
    {
        type            kqRWallFunction;
        value           nonuniform List<scalar> 
50
(
0.000107037
0.000204985
0.000284339
0.00035853
0.000429762
0.000500334
0.000576055
0.000646884
0.000715048
0.000758234
0.000837785
0.00117696
0.00108527
0.00151861
0.00187553
0.00194663
0.00194541
0.00194989
0.0019447
0.00194683
0.00194381
0.00194432
0.00191149
0.00194374
0.00194928
0.00194937
0.00195372
0.00195227
0.0021457
0.00236972
0.00261483
0.00287156
0.0031377
0.00342301
0.00375106
0.00414419
0.00461689
0.00517156
0.00581427
0.00656417
0.00744826
0.00850164
0.00976693
0.0113179
0.0132922
0.0159028
0.0195117
0.0248324
0.0333515
0.0469693
)
;
    }
    lowerWall
    {
        type            kqRWallFunction;
        value           nonuniform List<scalar> 
62
(
7.88033e-05
0.000206033
0.000305987
0.000385008
0.000450241
0.000504958
0.000550995
0.000589434
0.000621262
0.000647905
0.000670853
0.000691314
0.000709525
0.000723536
0.000728421
0.000716655
0.000686838
0.000643929
0.000581027
0.000503105
0.000422042
0.000290923
0.000125469
0.000125469
0.000294333
0.000422155
0.000550023
0.000689098
0.000857261
0.00110183
0.0015946
0.0018872
0.00159549
0.00157203
0.0017881
0.000190205
0.000380691
0.000485381
0.000560574
0.000625653
0.00073318
0.000937183
0.00142939
0.000190205
0.000416745
0.000591046
0.000660652
0.000688964
0.000701253
0.000697338
0.000681581
0.000658751
0.000635725
0.000584314
0.000502719
0.000463001
0.000463838
0.000428977
0.000352465
0.000257693
0.000171011
0.000107037
)
;
    }
    atmosphere
    {
        type            inletOutlet;
        inletValue      uniform 0.1;
        value           nonuniform List<scalar> 
46
(
0.1
0.0135905
0.00506713
0.00631138
0.00760737
0.00875971
0.00990083
0.0111031
0.0124137
0.0138711
0.0155123
0.017376
0.0195053
0.0219509
0.0247761
0.0280635
0.0319259
0.0365239
0.0420944
0.0490063
0.0578804
0.0698759
0.1
0.1
0.1
0.1
0.1
0.1
0.1
0.1
0.1
0.1
0.1
0.1
0.1
0.1
0.1
0.1
0.1
0.1
0.1
0.1
0.1
0.1
0.1
0.0469693
)
;
    }
    defaultFaces
    {
        type            empty;
    }
}


// ************************************************************************* //
