/*--------------------------------*- C++ -*----------------------------------*\
  =========                 |
  \\      /  F ield         | OpenFOAM: The Open Source CFD Toolbox
   \\    /   O peration     | Website:  https://openfoam.org
    \\  /    A nd           | Version:  9
     \\/     M anipulation  |
\*---------------------------------------------------------------------------*/
FoamFile
{
    format      ascii;
    class       volScalarField;
    location    "9.77";
    object      nut;
}
// * * * * * * * * * * * * * * * * * * * * * * * * * * * * * * * * * * * * * //

dimensions      [0 2 -1 0 0 0 0];

internalField   nonuniform List<scalar> 
2268
(
8.11708e-06
9.66425e-06
1.17773e-05
1.32105e-05
1.42854e-05
1.51279e-05
1.58019e-05
1.63436e-05
1.67789e-05
1.71347e-05
1.74355e-05
1.76994e-05
1.79312e-05
1.81077e-05
1.81692e-05
1.80225e-05
1.76424e-05
1.70832e-05
1.62281e-05
1.51016e-05
1.38342e-05
1.14883e-05
7.54281e-06
1.88369e-05
7.98286e-05
0.000108995
0.000127399
0.000140593
0.00015061
0.000158412
0.000164543
0.000169374
0.000173231
0.00017637
0.000178943
0.000180959
0.000182209
0.000182241
0.000180336
0.000174785
0.000166577
0.000154332
0.000141501
0.00012996
9.81372e-05
2.44466e-05
2.26192e-05
0.000135876
0.000203586
0.000247651
0.000279387
0.000303455
0.000322168
0.00033684
0.000348363
0.000357493
0.000364837
0.000370786
0.000375424
0.000378331
0.000378479
0.000374143
0.000362807
0.000345859
0.000321915
0.000292338
0.00025287
0.000170697
2.92795e-05
2.54209e-05
0.000175392
0.000278611
0.00034846
0.000399531
0.000438543
0.000469017
0.000493025
0.000511969
0.00052701
0.000539064
0.000548744
0.000556204
0.000560867
0.000561236
0.000554827
0.000538741
0.000514182
0.000479573
0.000431588
0.000358814
0.000226895
3.34203e-05
2.7647e-05
0.000205351
0.000339379
0.00043319
0.000502862
0.000556547
0.000598749
0.000632202
0.000658767
0.000679938
0.000696884
0.000710383
0.000720655
0.000727021
0.000727686
0.00071971
0.000699862
0.000668807
0.000624168
0.000557883
0.000452256
0.000274013
3.74029e-05
2.95263e-05
0.000229462
0.000390062
0.000505647
0.000592725
0.00066041
0.000713975
0.000756708
0.000790852
0.00081817
0.00084002
0.000857305
0.0008703
0.000878287
0.000879328
0.000870284
0.000847617
0.000811201
0.000757507
0.000674637
0.000539409
0.000317037
4.17173e-05
3.11961e-05
0.000249724
0.000433447
0.000568684
0.000671855
0.000752722
0.000817156
0.000868886
0.000910454
0.000943834
0.000970522
0.00099151
0.00100713
0.00101669
0.00101821
0.00100857
0.000984036
0.000943538
0.000882419
0.000786198
0.000627083
0.000363526
4.73084e-05
3.27557e-05
0.000267336
0.000471474
0.000624416
0.000742359
0.000835542
0.000910301
0.000970696
0.00101949
0.0010588
0.00109023
0.00111484
0.00113302
0.00114415
0.00114634
0.00113654
0.00111105
0.00106796
0.00100164
0.000896753
0.000723422
0.000427944
5.69277e-05
9.28012e-06
1.37404e-05
1.63684e-05
1.73087e-05
1.76783e-05
1.78362e-05
1.77867e-05
1.7584e-05
1.72872e-05
1.69835e-05
1.62832e-05
1.51041e-05
1.44875e-05
1.45009e-05
1.39435e-05
1.26396e-05
1.08074e-05
8.8024e-06
9.77856e-06
3.08749e-05
0.000109387
0.000148895
0.000167161
0.00017515
0.000177945
0.000178005
0.000175887
0.000172124
0.000167327
0.000157964
0.000138436
0.00013423
0.000142766
0.000135997
0.00012196
9.80505e-05
6.68951e-05
2.26662e-05
3.48663e-05
0.000194313
0.000287063
0.000333839
0.000355698
0.000364254
0.000365341
0.000360985
0.000352758
0.000342206
0.000324943
0.000296278
0.000285243
0.000288347
0.000271903
0.000239092
0.000186951
0.000114272
2.6692e-05
3.74742e-05
0.00025607
0.000401249
0.000479737
0.000518403
0.000534657
0.000538005
0.000532283
0.000520018
0.000504242
0.000481663
0.000449528
0.000430209
0.000420435
0.000391145
0.000339914
0.000262439
0.000154661
2.99705e-05
3.96026e-05
0.000302259
0.000496756
0.000607378
0.000663495
0.000688179
0.000694539
0.0006883
0.000672878
0.000652663
0.000626122
0.000591549
0.000563516
0.000539148
0.000495798
0.000427826
0.000328928
0.00019261
3.28109e-05
4.28732e-05
0.000339083
0.000582339
0.000722562
0.000794704
0.000827403
0.000836935
0.000830738
0.000813005
0.000789141
0.00075908
0.000721509
0.000684787
0.000646273
0.000589005
0.000505733
0.000388465
0.000228043
3.5403e-05
4.84736e-05
0.000380383
0.000667352
0.000830996
0.000915834
0.00095516
0.000967477
0.000961532
0.000942098
0.000915174
0.000881639
0.000840209
0.00079501
0.000743462
0.000672949
0.000575253
0.000440808
0.000257792
3.79919e-05
5.98867e-05
0.000444068
0.000761158
0.00093741
0.00103008
0.00107395
0.00108824
0.00108241
0.00106164
0.00103202
0.000994889
0.000948901
0.000895537
0.000832174
0.00074918
0.000637722
0.000486872
0.000282716
4.02587e-05
3.48622e-05
0.000292392
0.000524894
0.000702696
0.000841745
0.000952925
0.00104312
0.00111674
0.00117673
0.00122536
0.0012643
0.00129464
0.00131684
0.00133043
0.00133386
0.0013246
0.00129924
0.00125434
0.00118377
0.00107384
0.000902773
0.000648537
0.00032957
3.77545e-05
0.000324042
0.000588925
0.000793637
0.000955593
0.00108691
0.00119504
0.00128439
0.00135793
0.00141796
0.00146628
0.00150405
0.0015318
0.00154938
0.00155588
0.00154953
0.00152765
0.00148654
0.00142125
0.00132299
0.00118078
0.000986732
0.000750362
4.2316e-05
0.000362162
0.000655231
0.000879364
0.00105794
0.00120485
0.00132786
0.00143074
0.00151617
0.0015865
0.00164372
0.00168905
0.00172295
0.0017455
0.00175657
0.00175528
0.00173991
0.00170733
0.00165376
0.00157532
0.00146809
0.00133317
0.00118645
0.000216807
0.000450301
0.000732145
0.000963933
0.00115352
0.00131177
0.00144674
0.00156073
0.00165638
0.00173588
0.00180147
0.00185456
0.00189527
0.00192364
0.00194047
0.00194591
0.00193925
0.00191604
0.00187479
0.00181684
0.00174141
0.00165245
0.00156657
5.07821e-05
0.000428539
0.000786918
0.0010396
0.00124397
0.00141309
0.00155675
0.0016802
0.00178513
0.00187226
0.00194503
0.00200527
0.00205237
0.0020861
0.00210824
0.00211941
0.00211948
0.00210445
0.00207652
0.00203824
0.00198813
0.00193094
0.00188154
5.90417e-05
0.000480815
0.000818895
0.00108185
0.0013055
0.00149284
0.00164908
0.00178383
0.00189875
0.00199504
0.00207575
0.00214298
0.00219589
0.0022351
0.00226207
0.00227829
0.00228469
0.00227678
0.00225806
0.00223639
0.0022076
0.00217096
0.00213803
0.000243078
0.000561677
0.000869648
0.00113897
0.00136818
0.00156351
0.00173107
0.00187619
0.00200029
0.00210533
0.00219416
0.00226842
0.00232758
0.0023727
0.00240524
0.00242655
0.00243812
0.00243833
0.00242895
0.00241721
0.00240342
0.00238425
0.00236742
0.000256861
0.000591065
0.000909895
0.00118762
0.00142361
0.00162767
0.00180475
0.00195857
0.00209105
0.00220447
0.00230121
0.00238259
0.00244842
0.00249981
0.00253827
0.00256518
0.00258224
0.0025903
0.00259068
0.0025882
0.00258454
0.0025781
0.00257196
0.00026416
0.000605713
0.000936876
0.00122492
0.00147129
0.00168468
0.00187056
0.00203258
0.00217307
0.00229435
0.00239856
0.00248688
0.00255944
0.00261729
0.00266204
0.00269522
0.00271858
0.00273391
0.00274294
0.00274864
0.00275265
0.00275475
0.002756
0.000268801
0.000614695
0.000955708
0.00125453
0.00151194
0.00173515
0.00192983
0.00209989
0.00224804
0.00237665
0.00248775
0.0025826
0.0026617
0.00272614
0.00277751
0.00281736
0.00284737
0.00286952
0.00288571
0.00289802
0.00290782
0.00291544
0.00292096
0.000272389
0.000621618
0.000970921
0.00127988
0.0015478
0.00178068
0.00198402
0.00216192
0.00231733
0.00245276
0.00257021
0.00267116
0.00275651
0.00282736
0.0028852
0.00293152
0.0029679
0.0029962
0.00301828
0.00303578
0.00304981
0.00306075
0.00306821
0.000275766
0.000628512
0.000985148
0.00130328
0.00158075
0.00182268
0.00203424
0.00221962
0.00238189
0.00252362
0.00264694
0.00275353
0.00284463
0.00292141
0.0029852
0.00303742
0.0030795
0.00311315
0.00314008
0.00316163
0.0031787
0.00319155
0.00319968
0.000279136
0.000635958
0.000999422
0.00132581
0.00161189
0.00186209
0.00208131
0.00227367
0.00244234
0.00258987
0.00271854
0.00283024
0.00292646
0.00300848
0.00307751
0.00313486
0.00318186
0.00322007
0.00325097
0.00327571
0.003295
0.00330901
0.0033173
0.000282489
0.000643839
0.00101383
0.00134778
0.00164172
0.00189952
0.0021258
0.00232457
0.00249904
0.00265183
0.00278537
0.00290164
0.0030023
0.00308875
0.00316222
0.00322394
0.00327511
0.00331712
0.00335131
0.00337863
0.00339965
0.00341454
0.00342297
0.000285785
0.000651838
0.00102808
0.00136913
0.0016704
0.0019353
0.00216813
0.00237275
0.00255241
0.0027099
0.00284771
0.00296796
0.00307242
0.00316258
0.00323972
0.00330502
0.00335967
0.0034049
0.00344186
0.00347137
0.00349395
0.00350975
0.00351861
0.000288964
0.00065946
0.00104172
0.00138965
0.001698
0.00196962
0.00220855
0.00241852
0.00260283
0.00276445
0.00290596
0.00302958
0.00313719
0.00323038
0.0033105
0.00337875
0.00343631
0.00348428
0.00352366
0.00355519
0.00357935
0.00359633
0.00360605
0.00029183
0.000666013
0.00105404
0.00140905
0.0017245
0.00200265
0.00224728
0.00246211
0.00265058
0.00281579
0.00296045
0.00308689
0.00319708
0.00329273
0.00337527
0.00344597
0.00350598
0.00355634
0.00359795
0.00363149
0.00365743
0.00367596
0.00368708
0.000293918
0.000669747
0.00106405
0.00142698
0.00174992
0.0020345
0.00228449
0.00250375
0.0026959
0.0028642
0.0030115
0.00314025
0.00325255
0.00335021
0.00343477
0.00350754
0.00356971
0.00362227
0.00366608
0.00370177
0.00372978
0.00375033
0.00376344
0.000294589
0.000666974
0.00107058
0.00144335
0.00177436
0.00206534
0.00232038
0.00254365
0.00273902
0.00290993
0.0030594
0.00319004
0.00330407
0.00340342
0.00348972
0.00356438
0.00362858
0.00368333
0.00372945
0.00376755
0.00379804
0.00382114
0.00383686
0.000295037
0.000662236
0.00107615
0.00145911
0.00179821
0.0020954
0.00235515
0.00258201
0.00278015
0.00295324
0.00310448
0.00323666
0.00335214
0.00345298
0.00354091
0.00361741
0.00368369
0.00374078
0.00378949
0.00383039
0.00386387
0.00389012
0.00390911
0.000294091
0.000645838
0.00108111
0.00147478
0.00182178
0.00212485
0.00238895
0.002619
0.00281949
0.00299438
0.00314708
0.00328054
0.00339732
0.00349958
0.00358916
0.0036676
0.00373618
0.00379592
0.00384762
0.00389183
0.0039289
0.00395896
0.00398194
0.000295096
0.000646925
0.00108692
0.00149059
0.0018452
0.00215384
0.0024219
0.00265476
0.00285726
0.00303364
0.00318755
0.00332217
0.0034402
0.00354393
0.00363532
0.00371597
0.0037872
0.00385005
0.00390528
0.00395342
0.00399476
0.00402936
0.00405708
0.000294879
0.000637926
0.00109277
0.0015066
0.00186857
0.00218243
0.00245411
0.00268945
0.00289366
0.00307131
0.00322632
0.00336206
0.00348141
0.00358681
0.0036803
0.00376356
0.00383793
0.00390445
0.00396386
0.00401664
0.004063
0.00410292
0.00413616
0.000294787
0.000630402
0.00109922
0.00152284
0.00189189
0.00221065
0.00248565
0.00272319
0.00292891
0.00310771
0.00326379
0.00340074
0.00352162
0.003629
0.00372501
0.00381138
0.00388949
0.00396035
0.00402468
0.00408287
0.00413505
0.00418112
0.0042207
0.000295385
0.000628254
0.00110628
0.00153935
0.00191515
0.00223853
0.00251656
0.00275611
0.00296322
0.00314315
0.00330039
0.00343876
0.00356149
0.00367126
0.00377031
0.00386041
0.00394293
0.00401889
0.00408892
0.00415336
0.00421223
0.00426529
0.00431205
0.000295034
0.000620397
0.00111362
0.00155606
0.00193831
0.00226601
0.00254687
0.0027883
0.00299678
0.00317794
0.00333655
0.00347664
0.00360162
0.0037143
0.00381698
0.00391149
0.00399918
0.00408104
0.00415763
0.0042292
0.00429564
0.00435657
0.00441136
0.000295146
0.000616287
0.00112141
0.00157286
0.00196124
0.00229299
0.00257654
0.00281981
0.00302975
0.00321233
0.0033726
0.00351482
0.00364255
0.00375872
0.00386569
0.00396533
0.00405899
0.0041476
0.00423165
0.00431126
0.0043862
0.00445592
0.00451963
0.000295115
0.000611904
0.00112953
0.00158956
0.00198375
0.00231935
0.00260549
0.00285064
0.00306221
0.0032465
0.00340882
0.00355364
0.00368467
0.00380495
0.00391692
0.00402246
0.00412292
0.00421918
0.00431163
0.00440027
0.00448468
0.00456414
0.00463766
6.95519e-05
0.000605325
0.00113782
0.00160588
0.00200554
0.00234484
0.00263356
0.00288074
0.00309419
0.00328055
0.00344537
0.00359331
0.00372823
0.00385327
0.00397096
0.0040832
0.00419135
0.0042962
0.00439807
0.00449676
0.00459168
0.0046819
0.00476617
0.000295971
0.000610003
0.00114588
0.0016214
0.00202623
0.0023691
0.00266048
0.00290993
0.00312562
0.00331448
0.00348229
0.00363389
0.00377329
0.00390375
0.0040279
0.00414768
0.00426445
0.00437893
0.00449129
0.00460118
0.00470774
0.00480979
0.00490583
0.000295182
0.000604447
0.00115327
0.0016357
0.00204528
0.00239163
0.00268584
0.00293788
0.00315627
0.00334814
0.00351947
0.00367527
0.00381974
0.00395629
0.00408765
0.00421586
0.00434224
0.00446748
0.00459155
0.00471388
0.00483335
0.00494843
0.00505732
6.96324e-05
0.000600021
0.00115971
0.00164812
0.00206195
0.0024117
0.002709
0.00296413
0.00318577
0.00338121
0.00355661
0.00371717
0.00386729
0.00401059
0.00414995
0.00428751
0.00442461
0.00456184
0.00469899
0.0048352
0.00496899
0.00509846
0.0052214
0.000295443
0.000601701
0.00116472
0.00165761
0.00207502
0.00242821
0.0027291
0.00298801
0.00321361
0.00341327
0.00359331
0.00375917
0.0039155
0.00406619
0.00421435
0.00436224
0.00451125
0.00466185
0.00481362
0.00496535
0.00511513
0.00526057
0.00539896
6.9635e-05
0.00059569
0.0011667
0.00166229
0.00208261
0.00243958
0.00274494
0.00300863
0.00323911
0.00344374
0.00362901
0.00380067
0.00396374
0.00412244
0.00428019
0.00443943
0.00460161
0.0047671
0.00493525
0.00510442
0.0052722
0.00543554
0.00559107
0.00029559
0.000597268
0.00116337
0.00165891
0.00208174
0.00244353
0.00275494
0.00302494
0.00326152
0.00347198
0.00366308
0.003841
0.00401123
0.00417849
0.00434654
0.0045181
0.00469473
0.00487675
0.00506326
0.00525222
0.00544052
0.00562429
0.00579917
6.96805e-05
0.000587985
0.00114965
0.00164194
0.00206788
0.00243696
0.00275718
0.00303579
0.00328004
0.0034973
0.0036948
0.00387933
0.00405704
0.00423323
0.00441215
0.00459686
0.00478914
0.00498935
0.00519647
0.00540805
0.00562022
0.0058279
0.00602521
0.000295311
0.000577213
0.00111594
0.00160192
0.00203424
0.00241585
0.00274956
0.00304004
0.00329395
0.00351907
0.00372343
0.00391476
0.00410004
0.00428528
0.00447533
0.00467372
0.00488259
0.00510257
0.00533275
0.00557048
0.00581111
0.00604785
0.00627224
0.000296012
0.000545065
0.00104194
0.00152308
0.0019716
0.00237573
0.00273017
0.00303693
0.0033028
0.00353676
0.00374828
0.00394633
0.00413895
0.00433299
0.00453398
0.00474606
0.00497193
0.00521287
0.00546857
0.00573678
0.00601237
0.00628627
0.00654533
0.000295607
0.000435957
0.000888213
0.00138326
0.00187008
0.00231333
0.0026985
0.00302664
0.00330664
0.0035501
0.00376869
0.00397303
0.00417237
0.00437446
0.00458559
0.0048106
0.00505302
0.00531524
0.00559843
0.00590197
0.0062216
0.00654607
0.00685364
8.5605e-05
0.00023086
0.000627506
0.00116803
0.00172664
0.0022306
0.00265722
0.003011
0.00330632
0.00355918
0.0037842
0.00399394
0.00419891
0.00440775
0.00462747
0.00486365
0.00512085
0.00540303
0.00571397
0.00605691
0.0064322
0.00683011
0.00721566
0.000186762
0.000112103
0.000331689
0.000901471
0.00155895
0.00214083
0.0026145
0.00299427
0.00330367
0.00356444
0.00379451
0.00400827
0.00421733
0.00443106
0.00465705
0.00490153
0.00517005
0.00546833
0.00580354
0.00618549
0.00662652
0.00713441
0.00767515
0.000413089
0.000136902
0.000154166
0.000674798
0.00142262
0.00207447
0.00258495
0.00298281
0.00330118
0.00356667
0.00379957
0.0040155
0.00422672
0.00444302
0.00467233
0.00492126
0.00519596
0.00550339
0.00585346
0.0062627
0.00676171
0.00741292
0.00835787
6.22087e-05
5.72086e-05
5.67784e-05
6.05416e-05
0.000566217
0.000534933
0.000533479
0.000560859
0.00109975
0.00107215
0.00106934
0.00109116
0.00152625
0.001513
0.00151056
0.00151828
0.00186469
0.0018602
0.00185757
0.00185812
0.00213286
0.00213351
0.00213198
0.00213123
0.00236531
0.00236571
0.0023653
0.00236434
0.00257159
0.00257149
0.00257093
0.0025699
0.00275701
0.002757
0.00275614
0.00275436
0.00292256
0.00292254
0.0029213
0.00291875
0.0030699
0.00306963
0.00306785
0.00306449
0.00320112
0.00320049
0.00319817
0.00319412
0.00331839
0.00331745
0.00331472
0.00331016
0.00342385
0.00342272
0.00341976
0.00341494
0.00351957
0.00351848
0.00351554
0.00351072
0.00360752
0.00360674
0.00360411
0.00359958
0.0036895
0.00368935
0.00368732
0.0036834
0.00376729
0.00376807
0.00376699
0.00376401
0.00384265
0.0038447
0.0038449
0.0038432
0.00391736
0.00392102
0.00392284
0.00392277
0.00399319
0.00399882
0.00400261
0.00400453
0.00407189
0.00407984
0.00408597
0.00409021
0.00415511
0.00416574
0.00417456
0.00418149
0.00424437
0.00425806
0.00426992
0.00427988
0.00434103
0.00435814
0.0043734
0.00438673
0.00444625
0.00446715
0.00448617
0.00450322
0.00456103
0.00458609
0.00460922
0.00463031
0.00468618
0.00471578
0.00474338
0.00476884
0.00482245
0.00485697
0.00488938
0.00491955
0.00497052
0.00501034
0.00504793
0.00508312
0.0051311
0.00517662
0.00521974
0.00526028
0.005305
0.00535663
0.00540564
0.00545182
0.00549317
0.00555138
0.00560664
0.00565874
0.00569686
0.00576212
0.00582402
0.00588232
0.00591768
0.00599059
0.00605954
0.00612426
0.00615799
0.00623928
0.0063157
0.00638699
0.00642142
0.00651197
0.00659627
0.00667406
0.00671392
0.00681475
0.00690706
0.00699075
0.00704583
0.00715772
0.0072572
0.00734475
0.00743616
0.00755793
0.00766064
0.00774667
0.00792164
0.00804339
0.00813652
0.00820832
0.00857145
0.00865105
0.00870056
0.00873336
0.000321003
0.000661498
0.000933169
0.00110499
0.00120185
0.00124963
0.00126565
0.00125969
0.00123722
0.00120349
0.00116026
0.00110621
0.00104042
0.000960106
0.000858444
0.000726041
0.000550651
0.000315748
4.233e-05
0.00074388
0.000994047
0.00119789
0.00133784
0.00142216
0.00146492
0.00147784
0.0014688
0.0014426
0.00140306
0.00135138
0.00128627
0.0012058
0.00110672
0.000982937
0.000824528
0.000618575
0.000347241
4.3587e-05
0.00117623
0.00132991
0.00146802
0.00156979
0.00163361
0.00166498
0.00167047
0.00165554
0.00162401
0.00157806
0.0015176
0.00144178
0.00134855
0.00123374
0.00109113
0.000910901
0.000679875
0.000378681
4.57952e-05
0.00155389
0.00164122
0.00172727
0.00179388
0.00183554
0.00185254
0.00184788
0.00182495
0.00178642
0.00173304
0.00166355
0.00157742
0.00147302
0.00134467
0.00118659
0.000989753
0.000743849
0.000441401
5.4135e-05
0.00186901
0.0019183
0.00196827
0.00200612
0.0020276
0.00202996
0.00201423
0.00198232
0.00193553
0.00187381
0.00179492
0.00169898
0.00158486
0.00144377
0.00127277
0.00106013
0.000788692
0.00042958
5.2146e-05
0.00213071
0.00215942
0.00218612
0.00220303
0.00220762
0.00219665
0.00216941
0.0021269
0.00207002
0.00199837
0.00191007
0.00180535
0.00168203
0.00153493
0.00135646
0.00113558
0.000856888
0.000491993
6.15035e-05
0.00236258
0.00237411
0.00238405
0.00238461
0.00237497
0.00235143
0.0023125
0.00225874
0.00219099
0.00210875
0.00201143
0.00189928
0.00176712
0.00160807
0.00141993
0.00119486
0.000921781
0.000598086
0.000283744
0.00256724
0.00256601
0.00256228
0.00255073
0.0025294
0.00249461
0.00244488
0.00238052
0.0023019
0.00220839
0.00209963
0.00197456
0.00182805
0.0016564
0.00145649
0.00122227
0.000940386
0.000596378
0.000294629
0.00274968
0.00273946
0.0027249
0.00270332
0.00267178
0.00262689
0.0025673
0.00249309
0.00240392
0.00229904
0.00217748
0.00203723
0.00187498
0.00168822
0.00147455
0.00122857
0.000937476
0.000584654
0.000294471
0.0029122
0.00289576
0.00287316
0.00284321
0.00280279
0.00274907
0.00268079
0.00259754
0.00249862
0.0023829
0.00224865
0.00209332
0.00191449
0.0017115
0.00148339
0.00122555
0.000928849
0.000588384
0.000295092
0.00305628
0.00303601
0.00300765
0.00297092
0.00292319
0.00286216
0.00278659
0.00269563
0.00258813
0.00246254
0.0023167
0.00214784
0.00195377
0.00173441
0.00148989
0.00121833
0.000915294
0.000577479
0.000294313
0.00318456
0.00316165
0.00312943
0.00308759
0.00303421
0.0029675
0.00288615
0.00278894
0.00267439
0.00254057
0.00238501
0.00220475
0.00199751
0.00176317
0.00150239
0.00121582
0.000903412
0.000568271
0.000294634
0.00329965
0.00327497
0.00324024
0.00319484
0.00313746
0.00306661
0.00298093
0.00287901
0.00275911
0.00261903
0.00245607
0.00226713
0.00204966
0.00180284
0.00152743
0.00122545
0.000899311
0.000552413
0.000294213
0.00340395
0.00337827
0.00334203
0.00329452
0.00323462
0.00316106
0.00307248
0.00296732
0.00284374
0.00269939
0.00253147
0.00233679
0.00211244
0.00185662
0.00156925
0.00125217
0.000907266
0.000544005
0.000294686
0.00349972
0.00347381
0.00343701
0.00338855
0.00332743
0.00325245
0.00316225
0.00305524
0.0029295
0.00278266
0.0026119
0.00241403
0.00218582
0.00192456
0.00162846
0.00129663
0.00092778
0.000524475
0.000292004
0.00358906
0.00356368
0.00352721
0.00347886
0.00341762
0.00334234
0.00325166
0.00314398
0.00301735
0.00286943
0.00269741
0.00249809
0.002268
0.00200357
0.00170099
0.00135567
0.000963855
0.000532787
0.000294952
0.00367391
0.00364985
0.00361458
0.00356725
0.00350687
0.00343226
0.00334206
0.00323466
0.00310811
0.00296007
0.00278776
0.00258789
0.00235665
0.00208953
0.00178083
0.00142267
0.00100685
0.00053491
0.00029505
0.00375609
0.00373417
0.00370093
0.00365549
0.00359681
0.0035237
0.00343477
0.00332837
0.00320256
0.00305499
0.00288282
0.00268262
0.00245016
0.00218004
0.00186496
0.00149477
0.00105763
0.00054927
6.97934e-05
0.00383744
0.00381846
0.00378806
0.00374529
0.00368907
0.00361815
0.0035311
0.00342623
0.00330157
0.00315473
0.00298277
0.00278206
0.00254797
0.00227432
0.00195257
0.00157078
0.00111387
0.000573446
6.99604e-05
0.00391975
0.00390452
0.00387773
0.00383835
0.00378525
0.0037171
0.0036324
0.00352942
0.00340612
0.00326002
0.00308809
0.00288648
0.00265017
0.00237236
0.00204355
0.00165031
0.00117473
0.000603139
6.99632e-05
0.00400483
0.00399413
0.00397168
0.00393637
0.00388696
0.00382205
0.00374007
0.00363919
0.00351729
0.0033718
0.00319954
0.00299647
0.00275721
0.00247446
0.00213797
0.00173326
0.00124079
0.000643945
7.33478e-05
0.00409441
0.004089
0.00407159
0.00404096
0.00399576
0.00393449
0.00385548
0.00375681
0.00363625
0.00349112
0.00331809
0.00311288
0.00286983
0.00258117
0.00223596
0.00181857
0.00130779
0.000683475
7.70822e-05
0.00419016
0.00419078
0.00417906
0.00415367
0.00411312
0.00405582
0.00397997
0.00388356
0.00376421
0.00361913
0.0034448
0.00323674
0.00298897
0.00269325
0.00233806
0.00190661
0.00137542
0.000721016
8.09715e-05
0.00429358
0.00430094
0.00429553
0.00427589
0.00424041
0.00418736
0.00411484
0.00402068
0.0039024
0.00375702
0.00358087
0.0033692
0.00311584
0.0028121
0.00244569
0.00199868
0.00144553
0.000759736
8.48534e-05
0.00440601
0.0044208
0.00442229
0.00440888
0.00437884
0.00433031
0.00426125
0.00416935
0.00405199
0.00390599
0.00372753
0.00351165
0.00325181
0.0029389
0.00255995
0.0020959
0.00151931
0.00080067
8.86974e-05
0.00452861
0.00455148
0.00456044
0.00455372
0.00452947
0.00448571
0.00442025
0.00433065
0.00421411
0.0040673
0.00388612
0.00366537
0.00339814
0.00307492
0.00268204
0.00219939
0.00159762
0.000844241
9.2643e-05
0.00466235
0.00469395
0.00471089
0.0047113
0.00469318
0.00465444
0.00459277
0.00450558
0.00438988
0.00424209
0.00405786
0.00383165
0.0035562
0.00322151
0.00281327
0.00231027
0.00168127
0.000890629
9.69836e-05
0.00480804
0.00484898
0.00487442
0.00488235
0.00487069
0.00483726
0.00477961
0.00469501
0.00458024
0.00443146
0.00424397
0.00401187
0.00372745
0.0033802
0.0029551
0.00242984
0.00177121
0.000940261
0.000101943
0.00496642
0.00501726
0.00505164
0.00506746
0.00506258
0.00503473
0.00498139
0.00489964
0.00478604
0.00463644
0.00444573
0.00420751
0.00391353
0.00355268
0.00310917
0.00255959
0.00186863
0.000993889
0.000107604
0.00513814
0.00519941
0.0052431
0.0052671
0.00526925
0.00524726
0.00519855
0.00512005
0.00500806
0.00485806
0.00466442
0.00442015
0.00411627
0.0037409
0.00327742
0.00270123
0.00197498
0.00105257
0.000113886
0.0053239
0.00539601
0.00544928
0.00548163
0.00549099
0.0054751
0.00543139
0.00535665
0.00524693
0.00509726
0.00490139
0.00465151
0.00433774
0.00394719
0.00346216
0.00285682
0.00209182
0.00111731
0.000120756
0.00552445
0.0056077
0.00567065
0.00571135
0.00572794
0.00571833
0.00567999
0.00560966
0.00550311
0.00535487
0.00515795
0.0049035
0.00458039
0.00417434
0.00366627
0.00302892
0.00222102
0.001189
0.000128309
0.00574073
0.00583521
0.00590767
0.00595649
0.00598013
0.00597683
0.00594422
0.00587905
0.00577684
0.00563159
0.00543541
0.00517818
0.00484707
0.00442587
0.00389352
0.00322096
0.00236502
0.00126882
0.000136677
0.00597391
0.00607943
0.00616089
0.00621721
0.00624742
0.00625025
0.00622364
0.00616445
0.00606803
0.00592783
0.00573496
0.00547772
0.00514111
0.00470619
0.00414895
0.00343774
0.00252738
0.00135847
0.000146023
0.00622555
0.0063415
0.0064309
0.00649361
0.0065295
0.00653798
0.0065175
0.00646513
0.00637617
0.00624359
0.00605746
0.0058043
0.00546635
0.00502089
0.00443947
0.00368626
0.00271345
0.00146053
0.000156513
0.0064978
0.00662285
0.00671841
0.00678572
0.00682585
0.00683912
0.00682464
0.00677986
0.00670017
0.00657825
0.00640324
0.00615981
0.00582693
0.00537689
0.00477456
0.00397696
0.00293169
0.00157892
0.000168483
0.00679363
0.0069253
0.00702413
0.00709339
0.00713569
0.00715244
0.0071435
0.00710689
0.00703829
0.00693036
0.00677169
0.00654533
0.00622687
0.0057824
0.00516712
0.00432583
0.00319619
0.0017201
0.00018259
0.00711703
0.00725097
0.0073487
0.00741623
0.00745793
0.00747635
0.00747214
0.00744394
0.00738798
0.00729737
0.00716077
0.0069604
0.00666906
0.00624624
0.00563427
0.00475767
0.0035321
0.00189688
0.000199718
0.0074731
0.00760191
0.00769227
0.00775333
0.00779109
0.00780898
0.00780829
0.00778829
0.00774602
0.0076755
0.00756647
0.00740181
0.00715348
0.0067759
0.00619703
0.00531084
0.00398658
0.00213771
0.000221224
0.00786714
0.00797918
0.00805391
0.00810299
0.00813319
0.00814818
0.00814953
0.00813702
0.0081086
0.00805981
0.00798252
0.00786244
0.00767436
0.00737298
0.00687661
0.00604249
0.00465256
0.00251472
0.000249573
0.00830199
0.008381
0.00843076
0.00846248
0.00848184
0.00849178
0.00849359
0.00848733
0.00847188
0.00844464
0.00840058
0.00833048
0.00821684
0.00802487
0.00768138
0.0070262
0.00572038
0.00324505
0.000289234
0.0087715
0.00880015
0.00881726
0.00882791
0.0088344
0.00883783
0.00883869
0.00883706
0.00883263
0.00882462
0.0088115
0.00879032
0.00875527
0.00869372
0.00857443
0.00830589
0.00756942
0.00520538
0.000343243
)
;

boundaryField
{
    leftWall
    {
        type            nutkWallFunction;
        Cmu             0.09;
        kappa           0.41;
        E               9.8;
        value           nonuniform List<scalar> 
50
(
1.21541e-06
2.08471e-06
2.59648e-06
2.96839e-06
3.26014e-06
3.50414e-06
3.71933e-06
3.91927e-06
4.18682e-06
4.55125e-06
5.11264e-06
0
6.62877e-07
0
0
0
0
0
0
0
0
0
0
0
0
0
0
0
0
0
0
0
2.51335e-09
0
0
0
0
8.22861e-09
0
0
0
0
1.72669e-09
0
0
6.61261e-09
3.60066e-09
2.56486e-06
1.79168e-05
4.87228e-05
)
;
    }
    rightWall
    {
        type            nutkWallFunction;
        Cmu             0.09;
        kappa           0.41;
        E               9.8;
        value           nonuniform List<scalar> 
50
(
1.74448e-06
2.60198e-06
3.1348e-06
3.56116e-06
3.92587e-06
4.25501e-06
4.58033e-06
4.86354e-06
5.12011e-06
5.27558e-06
5.54716e-06
6.42066e-07
3.35091e-07
0
0
0
0
8.63507e-10
0
0
0
0
0
3.32165e-09
0
0
7.94581e-09
2.14004e-08
5.87341e-07
1.20314e-06
1.83958e-06
2.46621e-06
3.06904e-06
3.70161e-06
4.39293e-06
5.19167e-06
6.08561e-06
7.06286e-06
8.12256e-06
9.27673e-06
1.05453e-05
1.1949e-05
1.34966e-05
1.52544e-05
1.73122e-05
1.9782e-05
2.28384e-05
2.68069e-05
3.22603e-05
3.95329e-05
)
;
    }
    lowerWall
    {
        type            nutkWallFunction;
        Cmu             0.09;
        kappa           0.41;
        E               9.8;
        value           nonuniform List<scalar> 
62
(
2.05123e-07
7.76584e-07
1.08915e-06
1.29667e-06
1.45031e-06
1.56968e-06
1.66453e-06
1.74034e-06
1.80101e-06
1.85046e-06
1.89213e-06
1.92861e-06
1.96057e-06
1.98484e-06
1.99324e-06
1.97296e-06
1.92068e-06
1.84315e-06
1.724e-06
1.56574e-06
1.38556e-06
1.04624e-06
4.5257e-07
4.5257e-07
2.83876e-06
3.4708e-06
4.00215e-06
4.50609e-06
5.04419e-06
5.73003e-06
6.88892e-06
7.5214e-06
6.92627e-06
6.87587e-06
7.3254e-06
7.19607e-07
3.67868e-06
4.18757e-06
4.51587e-06
4.78054e-06
5.18602e-06
5.87222e-06
7.24059e-06
7.19607e-07
1.37313e-06
1.74345e-06
1.8737e-06
1.92445e-06
1.94611e-06
1.93922e-06
1.91131e-06
1.87023e-06
1.82796e-06
1.73035e-06
1.56488e-06
1.47884e-06
1.4807e-06
1.4017e-06
1.21445e-06
9.46843e-07
6.46735e-07
3.62465e-07
)
;
    }
    atmosphere
    {
        type            calculated;
        value           nonuniform List<scalar> 
46
(
0.009
0.000136902
0.000154166
0.000674798
0.00142262
0.00207447
0.00258495
0.00298281
0.00330118
0.00356667
0.00379957
0.0040155
0.00422672
0.00444302
0.00467233
0.00492126
0.00519596
0.00550339
0.00585346
0.0062627
0.00676171
0.00741292
0.009
0.009
0.009
0.009
0.009
0.009
0.009
0.009
0.009
0.009
0.009
0.009
0.009
0.009
0.009
0.009
0.009
0.009
0.009
0.009
0.009
0.009
0.009
0.000343243
)
;
    }
    defaultFaces
    {
        type            empty;
    }
}


// ************************************************************************* //
