/*--------------------------------*- C++ -*----------------------------------*\
  =========                 |
  \\      /  F ield         | OpenFOAM: The Open Source CFD Toolbox
   \\    /   O peration     | Website:  https://openfoam.org
    \\  /    A nd           | Version:  9
     \\/     M anipulation  |
\*---------------------------------------------------------------------------*/
FoamFile
{
    format      ascii;
    class       volScalarField;
    location    "9.07";
    object      p_rgh;
}
// * * * * * * * * * * * * * * * * * * * * * * * * * * * * * * * * * * * * * //

dimensions      [1 -1 -2 0 0 0 0];

internalField   nonuniform List<scalar> 
2268
(
754.733
754.844
755.085
755.458
755.957
756.571
757.287
758.094
758.971
759.906
760.879
761.87
762.857
763.815
764.718
765.545
766.289
766.96
767.515
767.955
768.445
768.762
768.901
754.709
754.823
755.064
755.439
755.939
756.553
757.27
758.074
758.955
759.891
760.865
761.856
762.84
763.794
764.696
765.537
766.314
767.022
767.564
768.025
768.518
768.766
768.9
754.658
754.773
755.017
755.395
755.898
756.515
757.236
758.045
758.93
759.871
760.85
761.844
762.831
763.789
764.699
765.555
766.359
767.1
767.65
768.067
768.603
768.797
768.933
754.576
754.693
754.94
755.323
755.831
756.455
757.182
758.001
758.894
759.845
760.833
761.838
762.835
763.806
764.732
765.595
766.408
767.176
767.843
768.093
768.685
768.857
768.988
754.464
754.581
754.832
755.221
755.737
756.371
757.11
757.94
758.846
759.811
760.814
761.835
762.851
763.843
764.793
765.652
766.382
767.226
768.012
768.424
768.81
768.701
769.083
754.32
754.437
754.692
755.089
755.616
756.263
757.017
757.863
758.786
759.769
760.792
761.833
762.875
763.897
764.882
765.749
766.087
767.328
768.114
768.721
768.957
768.162
769.24
754.143
754.26
754.521
754.928
755.469
756.132
756.904
757.769
758.713
759.718
760.764
761.832
762.905
763.965
764.996
765.997
765.459
764.334
768.116
768.875
767.145
767.194
769.427
753.933
754.054
754.322
754.741
755.298
755.981
756.774
757.662
758.63
759.659
760.732
761.83
762.941
764.045
765.132
766.209
765.262
762.97
764.516
766.956
765.447
768.124
769.832
766.645
766.429
766.288
765.733
764.954
763.969
762.761
761.575
760.374
759.154
757.87
756.693
755.916
755.424
754.756
754.233
753.746
753.464
753.388
766.685
766.374
766.23
765.683
764.916
763.958
762.925
761.788
760.615
759.471
758.127
756.724
755.763
755.448
754.763
754.235
753.724
753.299
753.247
766.528
766.233
766.255
765.678
764.903
763.948
762.907
761.784
760.626
759.525
758.528
756.694
755.721
755.233
754.77
754.231
753.458
753.124
753.055
765.567
766.169
766.402
765.752
764.944
763.964
762.889
761.762
760.566
759.47
758.594
757.667
756.187
755.385
754.698
754.189
753.504
753.084
753.437
765.682
766.764
766.643
765.89
765.026
763.997
762.93
761.807
760.529
759.447
758.525
757.856
756.98
755.792
754.297
753.852
753.578
753.429
753.344
765.845
767.411
766.929
766.065
765.138
764.114
763.032
761.849
760.551
759.514
758.577
757.758
756.864
755.83
753.951
751.684
751.124
753.284
753.235
767.948
768.071
767.21
766.262
765.279
764.207
763.111
761.774
759.961
759.403
758.519
757.661
756.75
755.567
752.813
752.681
750.582
752.482
753.118
769.172
768.389
767.465
766.471
765.433
764.307
763.2
761.832
757.121
755.635
757.567
757.563
756.573
752.953
751.736
753.653
750.279
751.859
752.998
753.572
753.695
753.974
754.41
754.994
755.71
756.541
757.47
758.481
759.556
760.676
761.827
763.001
764.186
765.371
766.568
767.763
766.884
764.314
764.867
768.334
770.821
770.576
734.041
733.848
734.32
735.333
737.282
739.674
741.977
743.968
745.923
747.879
749.734
751.548
753.969
756.734
760.094
764.269
767.827
768.885
769.767
770.295
770.47
770.557
769.95
239.905
240.465
242.109
244.406
246.608
249.593
253.878
259.777
266.67
274.3
282.515
290.89
298.852
306.345
313.223
319.905
328.089
338.38
346.898
351.318
352.402
351.65
351.376
0.764842
0.772439
0.642271
0.586946
0.889268
1.15858
1.27969
1.13206
1.00158
0.905444
0.843214
0.822557
0.785086
0.718368
0.651844
0.565568
0.373269
0.315326
0.258389
0.255055
0.267481
0.274979
0.258033
0.759371
0.771164
0.62822
0.544825
1.19626
1.71997
1.95534
1.9697
2.00274
2.09169
2.09405
2.08739
2.02687
1.88636
1.86038
1.83508
1.6545
1.17675
0.570332
0.608753
0.681398
0.653464
0.520906
0.287566
0.291228
0.306222
0.317823
0.123593
0.0117781
0.00879027
0.00790991
0.00870731
0.00508507
0.00428741
0.00433979
0.00520759
0.038744
0.0350984
0.0309755
0.0540292
0.248856
0.338671
0.321527
0.334841
0.391764
0.28943
0.00928354
0.00928688
0.00951122
0.0113983
0.00848655
0.00735373
0.00565614
0.00507897
0.00449068
0.00386798
0.00344426
0.0279125
0.0699977
0.069227
0.0678118
0.0312988
0.0012894
-0.00141346
0.00426902
0.000388426
0.0211542
0.0564247
0.102682
0.00821859
0.00797224
0.0079476
0.00820513
0.00874758
0.00849476
0.00622422
0.00546298
0.00553745
0.00426874
0.00292111
0.0179853
0.0414921
0.0390578
0.0166892
0.0136759
0.000932823
-0.00302667
-0.00365842
-0.0039221
-0.00466964
-0.00507514
0.000422163
0.00732596
0.00713427
0.00699703
0.00694965
0.0085145
0.00853773
0.00761944
0.00582065
0.00757848
0.0067158
0.00383836
0.000267458
-0.00122507
-0.00203148
0.000521137
0.0103304
0.00503703
-0.00302189
-0.00329827
-0.00355451
-0.00391002
-0.00407013
-0.00362337
0.00649356
0.00633575
0.00617217
0.00590975
0.0069295
0.00792572
0.0068782
0.005263
0.00731532
0.00652066
0.00297965
0.000316381
-0.000678656
-0.00133658
-0.00164556
-0.000953576
-0.000550808
-0.0026739
-0.00294304
-0.00318223
-0.00342759
-0.00353104
-0.00108265
0.00573507
0.00560263
0.0054468
0.005177
0.00508138
0.00582543
0.00436371
0.00387678
0.00716483
0.00606217
0.00110677
0.000330151
-0.000355273
0.000626577
0.000941741
-0.0010896
-0.00207393
-0.00238273
-0.00264323
-0.00289454
-0.00315728
-0.00336348
0.00933298
0.00506838
0.00502471
0.00490274
0.00455957
0.00421201
0.00378822
0.0033361
0.00328666
0.00659038
0.00385935
0.000947949
0.00031126
-0.00031235
0.00374656
0.0096449
0.00854004
-0.000989701
-0.00212742
-0.00242986
-0.00268344
-0.00296669
-0.00328933
-0.00283589
0.00448142
0.00457343
0.00445611
0.00403647
0.00372124
0.00336008
0.00312962
0.00496882
0.00544704
0.00147818
0.000819991
0.000270171
-0.00029044
0.00304708
0.0102393
0.00998897
0.00921024
-0.00110233
-0.00226905
-0.00251878
-0.00278216
-0.00309302
-0.00348397
0.00395073
0.00408228
0.00396658
0.00357718
0.00328576
0.00301602
0.00459304
0.0053335
0.00400869
0.00118592
0.000720078
0.00023241
-0.00027527
-0.000792414
0.00175738
0.010396
0.0100016
0.000700151
-0.00212558
-0.002331
-0.00255196
-0.00279681
-0.00307502
0.00347916
0.00355193
0.00351762
0.003154
0.00290028
0.00285551
0.00562379
0.00522407
0.00277674
0.00104777
0.000639424
0.000210632
-0.000232788
-0.000689371
-0.00101178
-0.000356032
0.000263113
-0.00101841
-0.0019613
-0.00212357
-0.00229149
-0.0024875
-0.00266789
0.00306692
0.00302692
0.00295866
0.00277846
0.00256195
0.00241761
0.0043408
0.0044058
0.00126734
0.000933966
0.000577072
0.00020313
-0.000179801
-0.000565151
-0.000940749
-0.00127075
-0.00150295
-0.00163985
-0.0017531
-0.00188331
-0.00203359
-0.00218791
-0.00233844
0.00271605
0.00268295
0.00259803
0.00245996
0.0022728
0.00207963
0.00179888
0.00160122
0.00114184
0.000844899
0.000530319
0.000204
-0.000126049
-0.000452411
-0.000764333
-0.00104062
-0.0012569
-0.00141703
-0.00155206
-0.001681
-0.0018085
-0.00192964
-0.00202453
0.00241435
0.0023852
0.00230844
0.00218434
0.00202426
0.00183279
0.00155527
0.00129692
0.00103925
0.000772382
0.000494242
0.00020919
-7.61716e-05
-0.000355545
-0.000620402
-0.000858217
-0.00105662
-0.00121717
-0.00135558
-0.00148013
-0.00159057
-0.00168276
-0.00174973
0.00256637
0.00259044
0.00205231
0.0019401
0.00180197
0.00162265
0.00140179
0.00117837
0.000948354
0.000710277
0.000464876
0.000215843
-3.20445e-05
-0.000273427
-0.000501723
-0.000709067
-0.000888739
-0.00104078
-0.00117169
-0.00128548
-0.00138207
-0.00145868
-0.0015103
0.00271605
0.00265206
0.0018149
0.00172234
0.00160276
0.00144269
0.00126169
0.00106838
0.000865829
0.000655574
0.000439874
0.000222003
5.85537e-06
-0.000204096
-0.000402803
-0.000584975
-0.000746453
-0.000886471
-0.00100731
-0.00111056
-0.00119589
-0.00126124
-0.00130316
0.00250907
0.00196023
0.00160877
0.00153133
0.00142552
0.0012911
0.001135
0.000968392
0.000791253
0.000606702
0.000417514
0.000226746
3.77916e-05
-0.000145648
-0.000319654
-0.000480402
-0.000624928
-0.000752063
-0.000862187
-0.000955583
-0.00103165
-0.00108879
-0.00112467
0.00233025
0.00148169
0.00143201
0.00136347
0.00127055
0.00115625
0.00102393
0.000878985
0.00072434
0.000562793
0.000397058
0.000229954
6.4452e-05
-9.63458e-05
-0.000249306
-0.00039149
-0.000520561
-0.00063519
-0.000734895
-0.000819297
-0.000887647
-0.000938679
-0.000970783
0.0022149
0.00134641
0.00127171
0.00121419
0.00113523
0.00103771
0.000924486
0.000799048
0.000664452
0.000523328
0.000378263
0.000231838
8.66704e-05
-5.46032e-05
-0.000189402
-0.000315352
-0.000430499
-0.000533492
-0.00062349
-0.000699811
-0.000761658
-0.000808002
-0.000837722
0.00210686
0.00194839
0.001129
0.00108148
0.00101553
0.000932876
0.000836097
0.00072792
0.000611033
0.000487939
0.000361048
0.000232713
0.000105254
-1.90556e-05
-0.00013804
-0.000249714
-0.000352395
-0.000444789
-0.000525938
-0.000595052
-0.000651352
-0.000693989
-0.000722163
0.0020081
0.00199736
0.00100271
0.000963107
0.00090935
0.000840234
0.000757951
0.000664925
0.000563611
0.000456337
0.00034539
0.000232889
0.000120904
1.14159e-05
-9.37108e-05
-0.000192781
-0.000284333
-0.00036717
-0.000440339
-0.000503044
-0.000554557
-0.000594171
-0.000621298
0.00192275
0.00190365
0.000886527
0.000858507
0.000816045
0.000759002
0.000689381
0.000609511
0.000521744
0.000428301
0.000331273
0.000232618
0.000134182
3.7694e-05
-5.52332e-05
-0.000143144
-0.000224766
-0.000299024
-0.000365029
-0.000422029
-0.000469369
-0.000506451
-0.000532828
0.00185427
0.00109097
0.000786741
0.000768371
0.000735692
0.000688811
0.000629901
0.000561221
0.000485072
0.000403565
0.000318637
0.000232072
0.000145507
6.04481e-05
-2.17004e-05
-9.97011e-05
-0.000172458
-0.000239023
-0.000298601
-0.000350516
-0.000394183
-0.000429097
-0.000454901
0.0010862
0.000688613
0.000702785
0.000693546
0.000668376
0.000629333
0.000579013
0.00051956
0.000453176
0.000381848
0.00030736
0.000231312
0.000155149
8.01749e-05
7.57362e-06
-6.15998e-05
-0.000126431
-0.000186088
-0.000239894
-0.000287258
-0.00032767
-0.000360696
-0.000386038
0.000648166
0.000635356
0.000641168
0.000634066
0.000613308
0.0005798
0.000535986
0.000483874
0.00042552
0.000362768
0.000297226
0.000230309
0.000163266
9.71982e-05
3.30863e-05
-2.82008e-05
-8.59005e-05
-0.000139342
-0.00018795
-0.000231225
-0.000268731
-0.000300093
-0.00032505
0.000583651
0.000582552
0.000589914
0.000585959
0.000568479
0.000538876
0.00049979
0.000453319
0.00040143
0.000345822
0.000287914
0.000228921
0.000169891
0.000111725
5.51992e-05
1.00225e-06
-5.02643e-05
-9.80757e-05
-0.000141974
-0.000181554
-0.000216453
-0.00024634
-0.000270971
0.000528027
0.000534293
0.000547183
0.000547183
0.000532431
0.000505267
0.000469264
0.000426893
0.000380091
0.000330389
0.000278995
0.000226905
0.00017496
0.00012385
7.41544e-05
2.63808e-05
-1.90311e-05
-6.17019e-05
-0.000101298
-0.000137515
-0.000170058
-0.000198637
-0.000223
0.000477966
0.000493742
0.000512055
0.000517224
0.000504545
0.000477937
0.000443173
0.000403435
0.000360537
0.000315726
0.000269941
0.000223934
0.000178323
0.000133583
9.01022e-05
4.82129e-05
8.19325e-06
-2.97262e-05
-6.53445e-05
-9.84656e-05
-0.00012887
-0.000156297
-0.000180462
0.000433038
0.000460318
0.000487612
0.000498272
0.000485063
0.0004557
0.000419982
0.000381547
0.000341625
0.000300966
0.000260139
0.000219611
0.000179762
0.000140863
0.00010312
6.67018e-05
3.17281e-05
-1.72337e-06
-3.35972e-05
-6.3824e-05
-9.2273e-05
-0.000118706
-0.000142774
0.000379614
0.000453537
0.000475478
0.000564476
0.000474
0.000435798
0.000397031
0.000359228
0.000321945
0.000285126
0.000248919
0.000213496
0.000179021
0.000145582
0.00011323
8.19892e-05
5.18322e-05
2.26791e-05
-5.58095e-06
-3.30379e-05
-5.96809e-05
-8.5302e-05
-0.000109429
0.000359843
0.000551073
0.0019813
0.0042126
0.00173244
0.000485069
0.000369595
0.000333735
0.000299851
0.000267184
0.000235622
0.00020517
0.000175848
0.000147614
0.000120416
9.4167e-05
6.87113e-05
4.38089e-05
1.91527e-05
-5.5614e-06
-3.0508e-05
-5.5547e-05
-7.99897e-05
0.000341927
0.00071319
0.00446459
0.00446061
0.00444287
0.000879705
0.000333894
0.00030327
0.000274286
0.000246483
0.000219832
0.000194365
0.000170071
0.000146865
0.000124654
0.000103291
8.252e-05
6.19456e-05
4.10276e-05
1.91676e-05
-4.12118e-06
-2.88924e-05
-5.40836e-05
0.000361899
0.00049517
0.0042596
0.00451071
0.00425836
0.000694815
0.000292519
0.000268943
0.000245663
0.000223138
0.000201549
0.00018104
0.000161634
0.00014328
0.000125903
0.000109346
9.33047e-05
7.7242e-05
6.03621e-05
4.1682e-05
2.01815e-05
-4.74187e-06
-3.14014e-05
0.000418956
0.000433702
0.00118994
0.00353152
0.00127671
0.000330352
0.000251494
0.000233158
0.000215043
0.00019755
0.000180854
0.00016511
0.000150361
0.000136616
0.000123858
0.000111978
0.00010068
8.93455e-05
7.69626e-05
6.21343e-05
4.29765e-05
1.74259e-05
-1.18088e-05
0.000513723
0.000496825
0.000391911
0.000421429
0.000258345
0.000229078
0.000211317
0.000196209
0.000182463
0.00016959
0.000157496
0.00014622
0.000135805
0.000126326
0.000117848
0.000110359
0.00010365
9.71471e-05
8.98365e-05
8.01615e-05
6.49183e-05
3.79292e-05
4.20377e-06
0.00058659
0.000521587
0.00037528
0.000275199
0.00021595
0.000186044
0.000170106
0.000159195
0.000150137
0.000141908
0.000134252
0.000127151
0.0001207
0.000115053
0.00011038
0.000106813
0.00010432
0.000102568
0.000101088
9.93114e-05
9.22256e-05
5.98366e-05
1.54715e-05
0.000683623
0.000475707
0.000314697
0.000223043
0.000168649
0.000146395
0.000138697
0.000134646
0.000131071
0.00012751
0.000123981
0.000120614
0.000117617
0.000115244
0.000113793
0.000113578
0.000114829
0.000117655
0.000122914
0.000133733
0.000145383
9.79092e-05
2.31653e-05
0.000546287
7.36636e-05
0.000136989
0.000121646
0.0001089
0.000106659
0.000108329
0.00010922
0.000109062
0.000108384
0.000107511
0.000106639
0.000105956
0.0001057
0.000106179
0.000107764
0.000110841
0.00011588
0.000124782
0.000144633
0.000180746
0.000154283
3.50842e-05
771.269
771.101
770.936
770.623
770.696
770.634
770.433
770.048
352.578
351.966
350.528
348.339
0.241185
0.250721
0.263623
0.269298
0.250945
0.544868
0.711874
0.652233
0.087761
0.202393
0.477067
0.581059
0.0777651
0.0621747
0.0613032
0.014125
0.00933033
-0.00326671
-0.00347496
-0.00321987
-0.00144502
0.00675553
0.0102903
0.00585469
0.0322267
0.0324135
0.0326082
0.0328691
0.0340957
0.0341941
0.0343595
0.0345562
0.00133668
0.0273187
0.0360443
0.0361098
-0.00388143
-0.00414034
-0.00427836
-0.00429507
-0.00328442
-0.00341083
-0.0034776
-0.00348326
-0.00274324
-0.00279689
-0.00280309
-0.00272597
-0.00240434
-0.00243112
-0.00238764
-0.00197726
-0.00206446
-0.00207714
-0.0020759
-0.00202579
-0.00177313
-0.00177869
-0.00177452
-0.00176164
-0.00152513
-0.00152734
-0.00152225
-0.00151031
-0.00131396
-0.0013149
-0.00131005
-0.0012996
-0.00113384
-0.00113464
-0.00113064
-0.00112192
-0.000979636
-0.000980901
-0.000978036
-0.000971104
-0.000846943
-0.000848961
-0.000847348
-0.000842187
-0.000732065
-0.00073496
-0.000734634
-0.000731196
-0.000631993
-0.000635796
-0.000636744
-0.000634969
-0.000544321
-0.000549014
-0.000551195
-0.00055101
-0.000467153
-0.000472688
-0.00047604
-0.000477358
-0.000398987
-0.000405304
-0.000409749
-0.000412469
-0.000338632
-0.000345665
-0.000351117
-0.000355131
-0.000285128
-0.000292811
-0.000299179
-0.000304368
-0.000237686
-0.000245957
-0.000253153
-0.000259397
-0.000195645
-0.000204454
-0.000212394
-0.000219578
-0.000158448
-0.000167758
-0.000176368
-0.000184384
-0.000125624
-0.000135417
-0.00014464
-0.000153388
-9.67862e-05
-0.000107073
-0.000116868
-0.000126257
-7.16428e-05
-8.24673e-05
-9.28101e-05
-0.000102742
-4.99993e-05
-6.14425e-05
-7.23115e-05
-8.26604e-05
-3.18042e-05
-4.39529e-05
-5.52862e-05
-6.58413e-05
-1.73987e-05
-3.01555e-05
-4.16986e-05
-5.20488e-05
-7.97238e-06
-2.0583e-05
-3.14805e-05
-4.08208e-05
-5.6729e-06
-1.71488e-05
-2.54627e-05
-3.18109e-05
6.07827e-06
-3.81788e-06
-1.06917e-05
-1.53507e-05
769.81
768.844
767.864
766.824
765.38
763.067
761.832
761.255
758.044
751.526
750.755
750.326
749.121
748.618
754.098
753.385
752.184
751.391
752.429
769.216
767.919
763.988
759.921
756.364
753.322
750.287
748.777
751.139
751.138
749.478
747.455
745.292
742.743
738.749
735.673
734.346
729.958
727.173
344.023
337.799
333.461
328.923
323.997
318.587
312.168
304.534
296.828
291.603
284.109
276.608
270.127
263.603
256.916
253.064
251.155
250.878
251.872
0.260208
0.301861
0.313592
0.31304
0.310344
0.310582
0.311168
0.312643
0.309071
0.296099
0.291847
0.300887
0.282692
0.377649
0.487305
0.650201
0.686314
0.6823
0.628695
0.357141
0.880031
0.9713
0.969845
0.934504
0.969906
0.969236
0.967633
0.964799
0.90502
0.781774
0.580079
0.289041
0.571161
0.676097
0.678341
0.680482
0.677748
0.611803
0.356496
0.291395
0.267765
0.258504
0.217773
0.175674
0.151781
0.124954
0.0689086
0.0210743
0.0231875
0.0270617
0.133689
0.116977
0.127557
0.166622
0.178505
0.206425
0.248169
0.0420229
0.0113423
-0.00107233
0.000235407
0.00287148
0.00851034
0.0114796
0.0128613
0.0148405
0.0232769
0.0412758
0.0497631
0.0545095
0.0277153
0.0124896
0.0112922
0.0109752
0.0106399
0.0107148
-0.00235583
-0.00178925
-0.000939992
0.000355387
0.0213137
0.0533753
0.0547042
0.0376158
0.0348203
0.0778727
0.0789902
0.0801543
0.0804317
0.043872
0.0103828
0.010024
0.009856
0.0097869
0.00992793
0.000570977
-0.00141179
-0.00102484
0.0047311
0.05662
0.0569877
0.0554268
0.0573014
0.0573775
0.0320882
0.0483049
0.070997
0.0744718
0.0204074
0.0088138
0.00894164
0.00899822
0.00904745
0.00920057
0.0292702
0.000323335
-0.00126841
0.00141619
0.0215133
0.0246858
-0.000782073
0.00023261
0.00114259
0.00211745
0.00268456
0.00327873
0.0131327
0.0196206
0.00798078
0.0081104
0.00829642
0.00838062
0.00849386
0.0349617
0.035018
0.0037243
-0.00178494
-0.00201247
-0.00169327
-0.000574812
0.00112041
0.00168959
0.00180347
0.00251171
0.00517649
0.0169548
0.0205331
0.00818614
0.00748801
0.00773836
0.00783421
0.00783141
0.036312
0.0315755
0.00409206
-0.00194621
-0.00173129
-0.00121683
0.000462132
0.00120116
0.00158087
0.00155941
0.0022404
0.0086264
0.0206622
0.0209363
0.00651896
0.00699305
0.00730136
0.00739809
0.00728491
-0.00322717
-0.0021688
-0.00261281
-0.00195905
-0.00155425
-0.00106689
-0.000513803
0.000145437
0.000715084
0.0013314
0.00188831
0.00357988
0.0192403
0.021335
0.0171616
0.00651907
0.00691386
0.00703768
0.0067615
-0.00341693
-0.00298508
-0.00235414
-0.00182274
-0.00139761
-0.000958264
-0.000455177
7.3248e-05
0.000607456
0.00112626
0.00160244
0.00208769
0.00855926
0.0185019
0.0190823
0.00825848
0.00784264
0.0100047
0.00727701
-0.00260692
-0.00228219
-0.00199799
-0.00163905
-0.00124791
-0.000841775
-0.000402826
5.12378e-05
0.00050588
0.000945197
0.00135146
0.00170618
0.00200802
0.00244006
0.00309496
0.01458
0.0283627
0.0284229
0.025862
-0.00178843
-0.00155115
-0.00123449
-0.00136512
-0.0011033
-0.00074821
-0.000362843
3.55269e-05
0.00041782
0.00078171
0.00112682
0.00143652
0.00172055
0.00204974
0.00263098
0.0191072
0.0281246
0.0281156
0.0242601
-0.00166602
-0.00122305
-0.000964299
-0.000673188
-0.000868669
-0.000673514
-0.000295074
0.000128069
0.000413814
0.000640576
0.000921216
0.00118106
0.00141025
0.00162538
0.00177546
0.00518565
0.0138886
0.00864011
0.001531
-0.00172597
-0.00142843
-0.000819758
-0.000527981
-0.000745883
-0.000613269
-0.000241261
0.000120396
0.000399243
0.000592246
0.000735803
0.000948909
0.00112802
0.00127147
0.00134601
0.00127992
0.00117631
0.00123495
0.00122118
-0.00147822
-0.00136843
-0.00121204
-0.00101811
-0.000791703
-0.000559082
-0.000256831
9.0796e-05
0.000325274
0.000488407
0.000571298
0.000745388
0.000886449
0.000989029
0.00103705
0.00101685
0.000990799
0.00103509
0.000979343
-0.0012718
-0.00118225
-0.00105439
-0.000895417
-0.000713822
-0.00051954
-0.000318657
-9.80651e-05
0.000125989
0.000267953
0.000428546
0.000569991
0.000682301
0.000761039
0.000800919
0.000804862
0.000813665
0.000855863
0.000920121
-0.00109846
-0.00102563
-0.000921472
-0.000791331
-0.000641814
-0.000480479
-0.000313667
-0.000146635
1.58491e-05
0.000168537
0.000304986
0.000419875
0.000509638
0.000571927
0.000606803
0.000622078
0.000646186
0.000692128
0.00480918
-0.0009519
-0.000893145
-0.000808632
-0.000702461
-0.000579838
-0.000446687
-0.000308463
-0.000170047
-3.60402e-05
8.87849e-05
0.000199484
0.000291843
0.000363101
0.000412222
0.000441083
0.000455594
0.000479198
0.000499351
0.00722681
-0.000827065
-0.000780318
-0.000712306
-0.000626262
-0.000526364
-0.000417353
-0.000303876
-0.000190312
-8.08413e-05
2.0411e-05
0.000109458
0.00018299
0.000238848
0.000276346
0.000296973
0.000305942
0.000315704
0.000329416
0.00730677
-0.000719938
-0.000683561
-0.000629574
-0.000560583
-0.000479987
-0.000391661
-0.000299535
-0.000207427
-0.000118999
-3.77479e-05
3.30949e-05
9.09501e-05
0.000134101
0.000162013
0.000175459
0.000176851
0.00017267
0.000180977
0.00741583
-0.000627349
-0.000600003
-0.000558046
-0.000503611
-0.000439489
-0.000368914
-0.000295177
-0.000221542
-0.000151137
-8.68351e-05
-3.12426e-05
1.3704e-05
4.67948e-05
6.76966e-05
7.67081e-05
7.40441e-05
6.24428e-05
6.56274e-05
0.00720785
-0.000546795
-0.000527361
-0.000495796
-0.000453874
-0.000403833
-0.000348529
-0.000290633
-0.000232888
-0.000177911
-0.00012803
-8.5184e-05
-5.06919e-05
-2.51085e-05
-8.1461e-06
1.06085e-06
3.25196e-06
1.49863e-06
1.65143e-05
0.00107787
-0.000476305
-0.000463822
-0.000441279
-0.000410228
-0.000372106
-0.000330034
-0.000285802
-0.000241756
-0.000200042
-0.000162476
-0.000130398
-0.000104452
-8.43773e-05
-6.88127e-05
-5.51277e-05
-3.90032e-05
-1.2648e-05
3.52368e-05
0.000127565
-0.000414326
-0.000407943
-0.000393198
-0.00037135
-0.000343965
-0.000313113
-0.000280636
-0.000248426
-0.000218198
-0.000191317
-0.000168601
-0.000150069
-0.000134653
-0.000119842
-0.000100951
-6.935e-05
-1.2107e-05
6.90784e-05
0.000354256
-0.000359636
-0.000358598
-0.000350625
-0.000336788
-0.000318497
-0.000297382
-0.000275067
-0.000253131
-0.000232956
-0.000215554
-0.000201349
-0.0001899
-0.000179566
-0.000167071
-0.000146509
-0.000107064
-3.41863e-05
6.16e-05
0.00647977
-0.00031126
-0.000314884
-0.000312764
-0.000305822
-0.00029529
-0.000282549
-0.000269008
-0.000256017
-0.000244727
-0.000235917
-0.00022978
-0.000225635
-0.000221602
-0.000214192
-0.000197465
-0.000161218
-9.27188e-05
-2.6789e-06
0.00936418
-0.000268419
-0.000276071
-0.00027896
-0.000277887
-0.00027394
-0.000268333
-0.00026232
-0.000257103
-0.0002537
-0.000252784
-0.000254468
-0.000258038
-0.000261635
-0.000261905
-0.000253459
-0.000227651
-0.00017336
-9.29783e-05
0.00954057
-0.000230478
-0.000241564
-0.000248672
-0.000252509
-0.000254062
-0.000254437
-0.000254798
-0.000256273
-0.00025984
-0.000266176
-0.000275453
-0.000287071
-0.000299358
-0.000309255
-0.000311882
-0.000299585
-0.000260447
-0.000183914
0.00962491
-0.000196923
-0.000210872
-0.000221439
-0.000229267
-0.000235282
-0.000240537
-0.00024616
-0.000253271
-0.000262891
-0.000275797
-0.000292334
-0.00031215
-0.000333903
-0.000354928
-0.000370593
-0.000373706
-0.000350007
-0.000273919
0.00949303
-0.000167335
-0.000183583
-0.000196852
-0.000207763
-0.00021722
-0.000226269
-0.000236046
-0.000247718
-0.000262408
-0.000281079
-0.000304358
-0.000332278
-0.000363972
-0.000397221
-0.000427574
-0.000447873
-0.000441723
-0.000367942
0.00967913
-0.000141373
-0.000159334
-0.000174523
-0.000187592
-0.000199468
-0.00021122
-0.000224023
-0.000239123
-0.000257787
-0.000281226
-0.000310446
-0.000346003
-0.000387623
-0.000433606
-0.000479659
-0.000515731
-0.000525634
-0.000457785
0.00908677
-0.000118751
-0.000137777
-0.000154046
-0.000168313
-0.000181566
-0.000194919
-0.000209594
-0.000226917
-0.000248311
-0.000275269
-0.000309254
-0.0003515
-0.000402479
-0.000461187
-0.000523212
-0.000565829
-0.000581606
-0.000511953
0.000937855
-9.91807e-05
-0.000118513
-0.000134937
-0.000149398
-0.000162981
-0.000176839
-0.000192217
-0.000210492
-0.000233219
-0.000262167
-0.000299323
-0.000346763
-0.000406052
-0.000477324
-0.000556669
-0.00060837
-0.000631433
-0.000544095
0.000286433
-8.22829e-05
-0.000100985
-0.000116547
-0.000130187
-0.000143088
-0.000156404
-0.000171345
-0.00018927
-0.000211788
-0.000240886
-0.000279053
-0.000329337
-0.000395031
-0.00047872
-0.00057985
-0.000663962
-0.000717816
-0.000622762
0.0030349
-6.74687e-05
-8.4355e-05
-9.7966e-05
-0.000109813
-0.000121124
-0.000132964
-0.000146411
-0.000162691
-0.000183336
-0.00021038
-0.000246657
-0.000296149
-0.000364217
-0.000457501
-0.000583635
-0.000737147
-0.000860407
-0.000764404
0.00326277
-5.37848e-05
-6.73322e-05
-7.78885e-05
-8.71019e-05
-9.60821e-05
-0.000105669
-0.000116679
-0.00013006
-0.000147056
-0.000169457
-0.000200004
-0.000243052
-0.000305422
-0.000397958
-0.000541401
-0.00077065
-0.0010521
-0.00101627
0.00305164
-3.94779e-05
-4.80308e-05
-5.47704e-05
-6.09102e-05
-6.71867e-05
-7.40668e-05
-8.19834e-05
-9.14568e-05
-0.000103218
-0.000118407
-0.000138963
-0.000168369
-0.000212891
-0.000284566
-0.000415594
-0.000696274
-0.00120947
-0.0013809
0.00237043
-1.98576e-05
-2.45215e-05
-2.853e-05
-3.2688e-05
-3.72438e-05
-4.22666e-05
-4.77929e-05
-5.38783e-05
-6.0645e-05
-6.837e-05
-7.76947e-05
-9.01551e-05
-0.0001094
-0.000144041
-0.000219172
-0.00042554
-0.000998011
-0.00162293
0.00128885
)
;

boundaryField
{
    leftWall
    {
        type            fixedFluxPressure;
        gradient        uniform 0;
        value           nonuniform List<scalar> 
50
(
754.733
754.709
754.658
754.576
754.464
754.32
754.143
753.933
753.572
734.041
239.905
0.764842
0.759371
0.287566
0.00928354
0.00821859
0.00732596
0.00649356
0.00573507
0.00506838
0.00448142
0.00395073
0.00347916
0.00306692
0.00271605
0.00241435
0.00256637
0.00271605
0.00250907
0.00233025
0.0022149
0.00210686
0.0020081
0.00192275
0.00185427
0.0010862
0.000648166
0.000583651
0.000528027
0.000477966
0.000433038
0.000379614
0.000359843
0.000341927
0.000361899
0.000418956
0.000513723
0.00058659
0.000683623
0.000546287
)
;
    }
    rightWall
    {
        type            fixedFluxPressure;
        gradient        uniform 0;
        value           nonuniform List<scalar> 
50
(
753.388
753.247
753.055
753.437
753.344
753.235
753.118
752.998
752.429
727.173
251.872
0.628695
0.611803
0.248169
0.0107148
0.00992793
0.00920057
0.00849386
0.00783141
0.00728491
0.0067615
0.00727701
0.025862
0.0242601
0.001531
0.00122118
0.000979343
0.000920121
0.00480918
0.00722681
0.00730677
0.00741583
0.00720785
0.00107787
0.000127565
0.000354256
0.00647977
0.00936418
0.00954057
0.00962491
0.00949303
0.00967913
0.00908677
0.000937855
0.000286433
0.0030349
0.00326277
0.00305164
0.00237043
0.00128885
)
;
    }
    lowerWall
    {
        type            fixedFluxPressure;
        gradient        uniform 0;
        value           nonuniform List<scalar> 
62
(
754.733
754.844
755.085
755.458
755.957
756.571
757.287
758.094
758.971
759.906
760.879
761.87
762.857
763.815
764.718
765.545
766.289
766.96
767.515
767.955
768.445
768.762
768.901
768.901
768.9
768.933
768.988
769.083
769.24
769.427
769.832
771.269
771.101
770.936
770.623
766.645
766.685
766.528
765.567
765.682
765.845
767.948
769.172
766.645
766.429
766.288
765.733
764.954
763.969
762.761
761.575
760.374
759.154
757.87
756.693
755.916
755.424
754.756
754.233
753.746
753.464
753.388
)
;
    }
    atmosphere
    {
        type            totalPressure;
        rho             rho;
        psi             none;
        gamma           1;
        p0              uniform 0;
        value           nonuniform List<scalar> 
46
(
-5.28358e-05
0
0
0
0
0
0
0
0
0
0
0
0
0
0
0
0
0
0
0
0
-4.90516e-09
-4.71687e-07
-1.28942e-06
-2.01944e-06
-2.90156e-06
-3.92861e-06
-5.96479e-06
-9.39778e-06
-1.34398e-05
-1.80039e-05
-2.29966e-05
-2.83139e-05
-3.38407e-05
-3.94484e-05
-4.49928e-05
-5.03105e-05
-5.52138e-05
-5.94812e-05
-6.28364e-05
-6.48981e-05
-6.50492e-05
-6.20569e-05
-5.30265e-05
-2.85381e-05
0
)
;
    }
    defaultFaces
    {
        type            empty;
    }
}


// ************************************************************************* //
