/*--------------------------------*- C++ -*----------------------------------*\
  =========                 |
  \\      /  F ield         | OpenFOAM: The Open Source CFD Toolbox
   \\    /   O peration     | Website:  https://openfoam.org
    \\  /    A nd           | Version:  9
     \\/     M anipulation  |
\*---------------------------------------------------------------------------*/
FoamFile
{
    format      ascii;
    class       volVectorField;
    location    "18.85";
    object      U;
}
// * * * * * * * * * * * * * * * * * * * * * * * * * * * * * * * * * * * * * //

dimensions      [0 1 -1 0 0 0 0];

internalField   nonuniform List<vector> 
918
(
(2.47629 -0.138943 0)
(0.108704 0.722546 0)
(0.172482 1.06863 0)
(2.31834 0.153728 0)
(-0.0596109 1.25711 -1.21233e-19)
(-0.0924034 0.643931 -5.31561e-18)
(0.527417 0.845252 -2.96594e-19)
(0.274584 0.152994 -2.98878e-20)
(3.00615 -0.0195613 0)
(-0.00833184 0.475695 0)
(-0.0175172 0.590237 0)
(0.60533 0.0067524 0)
(0.0107054 0.439105 0)
(-0.0028833 0.42169 0)
(0.0135235 0.34104 -1.30596e-18)
(-0.00520548 0.763532 -9.18359e-20)
(0.312596 0.0743062 2.15187e-18)
(0.0791947 0.63927 -2.24127e-19)
(1.52885 0.128627 0)
(-0.0274326 0.690502 0)
(0.194829 0.157855 -1.26614e-18)
(3.08302 -0.397374 0)
(2.92445 -0.505981 0)
(1.86116 -0.1811 0)
(0.511573 0.0400894 0)
(-0.0253679 0.521561 0)
(-0.00135316 0.494038 1.86313e-18)
(-0.0236721 1.4151 0)
(0.0726683 2.90997 0)
(0.168288 1.75561 0)
(-0.0409814 3.13938 0)
(0.0261858 1.62407 9.32138e-20)
(0.0225971 0.680489 0)
(-0.147425 0.775094 -2.03157e-22)
(-0.193914 1.0291 4.42272e-18)
(-0.0415772 1.04471 0)
(0.744545 -0.00600925 0)
(0.161535 0.247067 6.66094e-19)
(0.988903 1.50593 6.54567e-19)
(0.64698 0.780602 -5.17249e-19)
(0.794804 1.56675 6.23015e-20)
(0.414523 0.846546 -3.21772e-19)
(0.552946 0.306911 2.93942e-20)
(0.297229 0.153767 0)
(0.960755 0.56502 0)
(0.533328 0.304306 1.32039e-19)
(0.258281 0.162957 -1.35491e-19)
(0.871586 -0.0554806 0)
(3.02784 -0.00170603 0)
(3.00685 0.017865 0)
(3.20086 -0.417734 0)
(3.04288 -0.0742131 0)
(3.03116 -0.0388415 0)
(0.018485 0.90808 -1.14685e-18)
(-0.0541856 0.970833 0)
(0.00267518 0.453343 0)
(-0.0289464 0.978292 0)
(-0.0115006 0.480139 0)
(-0.0016937 0.870658 0)
(-0.052356 1.1117 0)
(-0.0127795 0.541868 0)
(-0.0257681 1.16464 0)
(-0.00626535 0.623332 0)
(0.79035 0.0116053 0)
(1.16963 -0.00157925 0)
(0.618339 0.0123625 0)
(1.12604 0.0175946 0)
(0.569894 0.00866987 0)
(0.225406 0.921982 1.96045e-18)
(0.0985379 1.2081 0)
(0.176302 1.06604 0)
(0.0331901 0.755774 2.20009e-23)
(0.0372233 0.498055 -2.93202e-18)
(0.0194616 0.747943 0)
(0.00595421 0.422033 0)
(-0.000696128 0.734549 4.51934e-24)
(0.000702276 0.414825 0)
(-0.0169237 0.743183 0)
(-0.0129401 0.427985 0)
(0.0496734 0.650619 0)
(0.0486549 0.458828 0)
(0.00811348 0.622233 1.23476e-18)
(0.000797779 0.344963 0)
(-0.076044 4.68366 0)
(0.00814019 1.44958 9.11739e-20)
(-0.01067 0.781502 -1.17413e-19)
(0.636538 0.152249 -7.50844e-19)
(0.321798 0.0657094 -7.28591e-19)
(0.645304 0.169856 -2.25439e-18)
(0.317751 0.0956354 -1.45144e-18)
(0.0791065 0.622459 0)
(0.177213 1.30694 1.86021e-19)
(0.178584 0.726232 -2.96814e-19)
(2.06032 0.260943 0)
(1.10705 0.118448 0)
(3.03313 0.103886 0)
(3.10392 0.446058 0)
(2.83919 0.377458 -1.01259e-17)
(2.57811 0.361309 7.76978e-18)
(-0.071439 1.27169 0)
(-0.0116335 0.627223 0)
(-0.0157485 1.91933 0)
(-0.0517216 1.3582 0)
(-0.0488287 0.685107 0)
(0.440881 0.296078 4.00839e-19)
(0.22571 0.163553 0)
(2.29609 -0.266396 0)
(1.32372 -0.119275 0)
(1.07663 0.0126467 0)
(1.01236 0.0187516 0)
(0.541085 0.0108311 0)
(1.01937 0.0563221 0)
(0.821549 0.0703576 0)
(0.343749 0.0287041 3.36225e-18)
(-0.00543987 0.451586 1.77436e-18)
(-0.0270404 0.784641 0)
(-0.0473487 0.847551 0)
(-0.0152806 0.460456 0)
(0.000132361 0.839725 1.81669e-18)
(7.28415e-05 0.48753 0)
(-0.00547891 0.845554 -5.59246e-18)
(-0.00488634 0.496761 1.88704e-18)
(0.0501609 3.59092 0)
(0.0375212 4.04623 0)
(-0.0166318 1.40042 -2.05192e-21)
(-0.0138916 1.35199 0)
(-0.0100189 0.735755 0)
(1.41011 0.0348726 0)
(0.760501 0.0154296 0)
(0.709546 0.014261 0)
(1.41613 -0.0328553 0)
(0.773491 -0.00874453 0)
(0.323154 0.481889 -8.36314e-19)
(0.157269 0.233362 0)
(0.326152 0.510977 9.37328e-20)
(0.163956 0.269357 0)
(1.23608 1.38041 1.66823e-19)
(0.77596 0.737747 -3.93106e-19)
(0.409578 1.41426 0)
(0.603619 1.52563 0)
(0.301772 0.810388 0)
(0.146117 0.355148 -4.43538e-19)
(0.607953 0.280997 0)
(0.313751 0.134726 3.98819e-19)
(1.42297 1.3016 0)
(1.58282 1.16489 0)
(0.872497 0.661654 4.62285e-19)
(1.73046 0.950747 0)
(1.06666 0.437786 2.31769e-20)
(1.47294 0.00813098 0)
(1.50098 -0.0292438 0)
(0.80188 -0.00441941 0)
(1.95041 -0.199782 0)
(1.6508 -0.148183 0)
(1.05215 -0.0889714 0)
(3.06126 0.164852 0)
(3.03105 0.0687861 0)
(3.01022 0.0531585 0)
(0.0351658 1.61508 6.0857e-19)
(0.0177094 0.832446 0)
(0.0177451 1.70552 1.0802e-18)
(0.00284856 0.943681 -9.71063e-19)
(0.0643496 1.14661 1.88781e-19)
(0.0475463 0.984716 0)
(0.0398588 0.52642 0)
(-0.0288641 1.00301 0)
(-0.00716859 0.516515 0)
(0.0172914 1.61811 -4.42689e-21)
(-0.0186075 0.867929 0)
(-0.0542132 1.58506 -2.25357e-19)
(-0.016501 0.820948 4.36378e-19)
(-0.00214779 1.02829 0)
(0.00989037 1.04352 0)
(-0.000206623 0.531032 0)
(0.0100074 1.17481 0)
(0.00049301 0.614818 0)
(1.46803 -0.00375106 0)
(0.789045 0.00803536 0)
(1.44035 0.0331425 0)
(0.7617 -0.000567268 0)
(0.67544 0.00533689 0)
(1.26208 0.0166687 0)
(1.20255 0.0473006 0)
(0.659766 0.0155475 0)
(-0.00580054 1.42077 -1.70273e-20)
(0.000184313 1.37708 0)
(0.00482011 0.732923 0)
(0.00172892 0.417221 0)
(0.285222 0.830264 0)
(0.254257 0.400591 -2.87261e-19)
(-0.00216925 0.635462 0)
(-0.00887942 0.367598 0)
(0.00402887 4.35131 0)
(-0.0565246 4.66201 0)
(-0.026618 4.57276 0)
(-0.0756657 3.34501 2.04764e-20)
(-0.066792 4.58949 0)
(-0.0585106 4.15967 0)
(0.00431883 0.816615 1.07298e-20)
(0.0136626 1.55703 1.65042e-19)
(-0.0360071 1.49617 1.20635e-19)
(-0.00782286 0.822563 0)
(0.664838 0.105768 1.15309e-18)
(0.325849 0.0441727 -1.13005e-18)
(0.150671 1.14093 0)
(0.101687 0.577043 -2.69766e-19)
(0.119248 1.24166 -8.75942e-19)
(0.0523165 0.6919 8.71437e-19)
(0.809218 0.0240598 0)
(1.55679 0.0476734 0)
(1.70971 0.127649 0)
(0.919855 0.0445205 0)
(0.00722359 1.18765 0)
(0.0252292 1.19717 0)
(0.00409969 0.631121 0)
(0.48283 0.315546 1.20388e-18)
(0.437487 0.30957 -1.38708e-18)
(0.235058 0.164378 0)
(1.93435 0.152714 1.15209e-19)
(1.13564 0.0930867 0)
(1.72358 0.118332 0)
(0.883381 0.0226435 0)
(0.678528 0.0857625 0)
(0.700025 0.0460781 -5.40638e-18)
(0.346866 0.0326009 1.99861e-18)
(0.00913825 0.80727 1.69445e-18)
(0.00221993 0.462505 4.08163e-20)
(-0.0108777 1.40842 -3.58135e-20)
(0.00613616 1.38675 1.36635e-18)
(-0.0149832 0.848955 6.29667e-20)
(-0.0119261 0.524486 -2.52996e-22)
(-0.107514 1.00068 -1.16528e-18)
(-0.0529602 1.3532 8.34278e-19)
(-0.0175323 1.35275 -1.35825e-18)
(1.42258 -0.0171003 0)
(1.44225 0.0202998 0)
(0.769802 -0.000189435 0)
(1.45221 0.0253774 0)
(1.36324 0.0462251 0)
(0.761564 0.0203032 0)
(1.30071 -0.00216317 0)
(1.31874 -0.00585916 0)
(0.695099 -0.000993787 0)
(0.305763 0.474805 -9.15773e-19)
(0.161804 0.243323 0)
(0.157847 0.309648 1.37118e-19)
(0.310939 0.588293 1.12347e-18)
(0.308614 0.550677 -6.65078e-19)
(0.15743 0.282917 1.29959e-18)
(0.280022 0.721582 2.18499e-18)
(0.149108 0.382839 3.94317e-19)
(0.636623 0.213297 1.53736e-18)
(0.626566 0.253845 3.99295e-19)
(0.316834 0.115119 7.49241e-19)
(1.91836 0.713022 -5.99797e-19)
(1.16616 0.335443 -7.01943e-19)
(-0.0356633 1.71156 4.64242e-19)
(-0.0118509 0.929242 0)
(1.60334 0.0238432 0)
(1.52153 0.0653155 0)
(0.852695 0.0268134 0)
(-0.00355887 1.38473 0)
(0.00507405 0.729574 2.49612e-18)
(0.00465032 0.731252 0)
(0.00207075 0.415097 -2.44313e-18)
(-0.0102755 1.38627 5.95899e-19)
(-0.00947283 1.4225 0)
(0.337492 0.489459 2.58093e-19)
(0.360964 0.547743 -8.63427e-19)
(0.172286 0.258452 7.8151e-19)
(-0.0256789 0.767436 -1.66342e-18)
(-0.0261476 0.689704 0)
(-0.0154349 0.412912 0)
(0.0295018 1.54674 -1.27668e-20)
(0.0306471 1.57718 -3.63937e-19)
(0.0174808 0.821366 -1.55562e-20)
(0.214855 1.05065 8.91699e-19)
(0.120411 0.512042 -5.93381e-19)
(0.0117822 1.49451 7.31586e-19)
(0.0560935 1.36006 -8.16657e-19)
(0.0268986 0.765476 3.54774e-20)
(0.00750801 1.36614 -3.80922e-18)
(-0.0002193 1.39326 4.4113e-18)
(0.00377273 0.829775 1.73364e-18)
(-0.013832 0.805091 -1.72615e-18)
(-0.0043098 0.481398 -1.73928e-18)
(-0.0106521 1.41685 -4.50165e-18)
(-0.0152193 1.40032 4.59088e-18)
(0.287908 0.67816 0)
(0.301238 0.637489 -2.29075e-18)
(0.152691 0.333202 9.91706e-19)
(0.282991 0.800486 1.18713e-18)
(0.139682 0.429964 -1.83169e-18)
(2.0553 0.32203 4.15753e-19)
(2.04924 0.546696 0)
(1.21749 0.220626 -4.01744e-19)
(-0.0744791 1.63998 -4.79738e-21)
(-0.0149986 1.69717 0)
(-0.0161372 0.925257 0)
(0.228443 0.950262 -3.23349e-19)
(0.249759 0.871727 -7.0816e-19)
(0.129587 0.46602 1.3271e-18)
(3.16442 -0.442875 0)
(3.34728 -0.414688 1.81247e-18)
(0.0576249 3.50456 0)
(0.0460007 2.83 0)
(3.15926 0.249912 1.41915e-20)
(3.12355 0.506292 3.71145e-18)
(0.0196818 3.41138 -2.74809e-20)
(0.00804862 2.64518 0)
(-0.0416055 1.19605 1.5558e-18)
(0.190824 1.31759 0)
(3.46864 1.622 -3.24777e-19)
(3.17428 0.272564 -2.961e-20)
(3.14836 -0.11871 0)
(3.10047 -0.000408127 3.72718e-22)
(0.0425036 2.5785 0)
(0.157254 3.31801 0)
(-0.0570504 2.53287 0)
(-0.0261634 3.49502 3.15639e-19)
(-0.0285938 3.56932 1.99185e-19)
(2.63379 0.0487473 -1.36461e-20)
(3.04723 0.0310552 0)
(3.1574 0.0866715 0)
(-0.0591654 4.6163 0)
(-0.048767 3.06978 0)
(-0.0750718 2.94916 0)
(0.648894 3.08953 2.66412e-19)
(3.33884 -0.422464 0)
(3.01139 -0.345814 0)
(3.1699 -0.0530419 2.27678e-18)
(3.2927 -0.328704 -2.7415e-18)
(3.1038 -0.125779 0)
(-0.0656096 4.52034 0)
(0.0098111 3.95219 0)
(0.000891972 4.27759 0)
(-0.0304329 3.11116 0)
(-0.0161259 2.87066 0)
(-0.0330014 2.44361 0)
(2.97414 -0.00320243 0)
(2.85052 0.0485995 -1.80494e-20)
(2.24022 3.03854 -3.22416e-19)
(3.15695 0.0444503 -2.27785e-18)
(3.19037 0.278176 2.76885e-18)
(3.0828 0.117335 0)
(3.3954 0.328914 2.08687e-18)
(3.35696 0.484361 -2.70605e-18)
(3.07112 0.418426 0)
(-0.0576087 3.33159 0)
(0.00349857 3.25725 8.5263e-20)
(-0.0317262 2.55871 -6.03772e-20)
(3.70619 0.55446 2.26507e-18)
(3.47005 0.208114 0)
(-0.151855 1.2713 -2.16702e-18)
(-0.0622699 0.882164 -1.35105e-19)
(-0.0845366 1.33689 2.98711e-18)
(-0.0350666 1.27055 -9.00073e-19)
(-0.000323747 1.08855 0)
(-0.0266774 1.23953 6.95199e-19)
(-0.115014 1.38787 2.14762e-18)
(-0.0590201 1.34056 -1.31478e-18)
(-0.076765 1.32063 0)
(1.29109 0.597878 0)
(1.17938 0.683363 0)
(3.55334 2.02577 9.53631e-19)
(3.04469 1.93156 -1.19076e-18)
(3.83553 1.7038 0)
(3.3805 1.15487 0)
(3.34936 0.280481 -3.91601e-18)
(2.89886 0.17311 4.83874e-18)
(3.35142 -0.155498 0)
(2.85475 -0.0761493 0)
(3.43642 0.0430103 0)
(3.59381 0.14504 0)
(3.28683 0.119866 0)
(3.55033 0.298567 0)
(3.40841 0.293051 0)
(3.32755 0.218065 0)
(0.095695 2.78028 0)
(0.0337972 2.07117 0)
(0.124127 3.03894 0)
(0.0914291 2.19434 0)
(0.214142 3.61084 0)
(0.140426 2.69025 -5.59224e-19)
(0.051872 3.62687 0)
(0.0107232 3.03147 4.05799e-19)
(-0.0264295 3.21523 -5.16849e-19)
(-0.0619345 2.79942 0)
(-0.0245425 2.20371 0)
(-0.0751012 2.9042 0)
(-0.0565256 2.04743 0)
(-0.11363 4.7503 -2.45355e-19)
(-0.0841618 3.94164 2.77126e-19)
(-0.0780014 3.80679 3.0883e-19)
(-0.0542123 3.02036 0)
(-0.108623 3.80196 -4.58413e-19)
(-0.0396879 3.21173 -2.94795e-19)
(-0.0882237 4.78223 1.92428e-19)
(-0.100358 4.4649 -3.5028e-19)
(-0.0744067 4.33692 -3.78638e-19)
(3.03168 0.0882668 3.35774e-18)
(2.28986 0.032148 -4.2287e-18)
(2.89174 0.132729 -3.32667e-18)
(2.21005 0.0734374 4.15521e-18)
(3.36837 0.0276018 0)
(2.64285 -0.00268673 0)
(3.45378 0.0911419 0)
(3.31996 0.0191589 0)
(2.70625 0.0091508 0)
(3.67968 0.239198 0)
(3.43834 0.0957416 0)
(2.8629 0.0563582 0)
(-0.0285134 4.31703 -1.20586e-20)
(-0.0627642 4.64814 0)
(-0.06833 4.53573 0)
(-0.0789295 3.49174 8.77113e-20)
(-0.0389177 2.76762 -3.46236e-21)
(-0.0881078 4.66775 1.13739e-19)
(-0.101252 4.4625 -1.14937e-19)
(-0.0838467 3.96604 0)
(-0.0617955 3.88948 0)
(-0.0266265 4.00624 0)
(-0.0750999 3.26913 0)
(-0.0441183 2.31226 0)
(0.944392 3.64457 -6.09654e-19)
(0.916066 2.8378 -1.76748e-19)
(0.433298 2.06524 -2.28605e-19)
(0.253928 2.31364 6.98148e-19)
(1.0261 4.20938 2.63797e-19)
(3.43307 -0.167439 0)
(3.32213 -0.256556 0)
(2.88326 -0.189521 0)
(3.47032 -0.0643609 0)
(3.34581 -0.147873 0)
(3.44893 -0.261031 0)
(3.5195 -0.28361 0)
(3.57949 -0.281142 0)
(3.22421 0.0933482 3.61805e-18)
(2.55526 0.0645013 -4.57498e-18)
(3.0966 0.106533 -3.5615e-18)
(2.50923 0.0566467 4.43149e-18)
(2.23557 3.40599 0)
(1.73256 2.9347 -4.46416e-19)
(2.5636 3.34085 -4.03592e-19)
(2.36215 2.52051 5.36361e-19)
(0.777497 1.21714 2.72406e-18)
(1.4476 0.216517 1.34288e-18)
(3.72171 0.303715 0)
(3.89207 0.571964 -1.84564e-18)
(3.29764 0.243551 -8.23183e-20)
(3.72163 0.439643 0)
(0.237993 1.31297 1.79702e-18)
(-0.0160311 1.20223 -2.87776e-18)
(0.059412 0.770142 1.61536e-18)
(0.276771 0.465311 -7.48211e-19)
(0.188057 1.38481 8.71444e-19)
(0.051058 1.23758 0)
(0.0580446 1.08675 -1.13287e-18)
(0.192773 1.44375 -4.09422e-18)
(0.330533 1.55818 0)
(0.00865934 1.29019 1.19638e-19)
(-0.00972997 1.45729 -1.3408e-18)
(-0.0410287 1.30283 1.94923e-18)
(-0.0574701 1.41766 0)
(-0.0204989 1.38226 0)
(0.683178 1.05275 0)
(2.46283 2.45786 -1.06629e-18)
(2.63774 2.16706 3.9532e-19)
(2.7882 2.87566 0)
(3.21142 3.06138 -3.94417e-19)
(3.16198 2.40651 2.84108e-20)
(0.805382 0.590553 -1.82302e-18)
(1.55794 0.692104 -1.62351e-20)
(1.23429 0.451425 8.72082e-19)
(1.27742 0.844897 5.95137e-20)
(0.94052 0.634856 -2.36991e-18)
(1.46638 0.714978 0)
(1.99325 1.10083 1.45593e-18)
(2.03518 1.01671 0)
(1.41419 0.791691 0)
(1.06347 0.550342 0)
(3.37866 2.17929 1.00802e-18)
(3.94616 0.75972 -1.86285e-18)
(3.84595 1.21429 0)
(3.53121 0.756578 0)
(1.39259 0.364992 1.33229e-18)
(3.26162 1.84234 -8.51373e-19)
(2.83859 1.6551 1.54651e-18)
(3.75703 1.37624 -1.83522e-18)
(3.09798 0.114729 2.46334e-18)
(3.16859 0.180799 -2.5783e-18)
(2.66188 0.0916313 0)
(3.30724 -0.0395388 0)
(3.20137 -0.084281 -2.36592e-18)
(2.63237 -0.0321229 2.34508e-18)
(3.95632 0.0931235 0)
(3.75974 0.145593 0)
(3.6937 0.155351 0)
(3.58831 0.204727 0)
(3.83261 0.0589976 0)
(3.7261 0.0522271 0)
(-0.0418136 2.50493 0)
(-0.0387584 2.00639 0)
(0.353332 3.97553 -4.10733e-19)
(0.658763 3.31717 -1.60229e-19)
(0.256721 3.01333 -3.5838e-19)
(0.341291 2.53439 5.74105e-19)
(0.454515 4.00146 0)
(0.467475 4.66868 -5.09517e-19)
(0.381497 4.7263 0)
(0.912928 4.38268 -3.79469e-19)
(0.676414 3.83029 9.69321e-19)
(0.595571 4.64743 4.46539e-19)
(0.737693 4.18853 -1.87458e-19)
(0.598999 4.31424 1.50809e-19)
(0.914757 4.65033 -6.63329e-19)
(0.746972 4.66061 0)
(0.85833 4.58706 5.04365e-19)
(0.00219747 4.57802 -1.8105e-19)
(-0.02138 3.65887 0)
(0.0978317 4.29655 5.49217e-19)
(-0.00652082 4.39928 0)
(-0.00571734 3.4732 -4.51247e-19)
(-0.0166156 2.92605 0)
(-0.106347 4.30387 -2.89097e-19)
(-0.112611 4.67893 0)
(-0.0571675 3.80003 0)
(-0.0445932 3.72346 3.25117e-19)
(-0.0511649 3.89422 1.0356e-20)
(-0.0381503 3.71886 6.25625e-19)
(-0.0429092 2.95786 4.06509e-21)
(-0.121372 4.70912 1.80076e-19)
(-0.110566 4.74091 1.03127e-19)
(-0.0191701 2.62781 0)
(-0.00031469 2.141 0)
(-0.0474751 4.78815 4.85683e-19)
(-0.053637 4.3025 4.2327e-19)
(-0.0890094 4.58079 -5.53372e-19)
(0.0111735 4.75495 0)
(-0.0853922 4.52718 -3.08696e-19)
(-0.123611 4.15741 1.27449e-19)
(-0.0903546 4.24207 -4.12763e-20)
(-0.078164 4.72717 -2.18751e-19)
(-0.0916973 4.26569 -6.84787e-20)
(-0.0894087 4.21231 3.06394e-19)
(2.87159 0.0609724 -2.36296e-18)
(2.85912 0.0496327 2.27243e-18)
(2.33879 0.0345251 0)
(3.51063 0.191786 3.04569e-18)
(2.70427 0.126441 -3.3039e-18)
(2.25507 0.0644114 3.60865e-18)
(3.68314 0.334987 -4.01529e-19)
(3.2098 -0.0485696 0)
(3.17198 -0.0136219 2.23648e-18)
(2.69077 -0.0124059 -2.21885e-18)
(3.87845 0.121976 -1.25207e-19)
(3.77154 0.101663 1.07806e-18)
(4.15957 0.173129 0)
(4.22836 0.180783 -3.75035e-19)
(4.01386 0.144992 0)
(3.69516 0.155229 0)
(4.03232 0.0949863 0)
(3.71187 0.0872472 0)
(4.18472 0.113645 7.85295e-19)
(4.13724 0.0789506 -1.74747e-18)
(4.14055 0.113659 -8.47798e-19)
(4.18631 0.116288 -9.24252e-19)
(4.21551 0.228593 1.77361e-18)
(3.85441 0.188349 0)
(4.06084 0.301357 0)
(-0.0801088 4.57169 -1.35916e-19)
(-0.0377914 4.63672 -1.1696e-20)
(-0.073019 4.65595 0)
(-0.0611582 4.18463 1.38334e-19)
(-0.0591312 4.20929 2.25541e-20)
(-0.0628486 4.07505 -2.18835e-20)
(-0.083365 3.5224 2.6092e-19)
(-0.148719 3.99901 -1.45062e-20)
(-0.108052 4.12919 7.47003e-20)
(-0.0772936 3.39435 -1.32219e-19)
(-0.0263807 2.91843 1.58337e-19)
(-0.0827538 4.43432 5.19163e-21)
(-0.0965955 4.64188 1.71933e-19)
(1.24138 4.34695 3.47635e-19)
(1.15813 4.52105 7.2519e-19)
(1.73111 3.45263 4.31673e-19)
(1.30298 3.54389 1.69907e-19)
(1.2797 2.87487 0)
(0.552112 2.33226 2.75285e-19)
(0.466332 1.75181 3.31258e-19)
(0.347055 2.58302 1.52402e-20)
(0.494885 3.19158 -1.16173e-18)
(0.63624 3.14904 8.77553e-19)
(0.435674 2.41872 0)
(0.295712 1.98448 -5.5817e-19)
(0.260346 3.09415 1.39637e-18)
(0.274252 2.73505 -3.16171e-20)
(0.158532 2.29051 -1.75044e-18)
(0.594791 1.41803 1.46524e-18)
(0.580017 1.6258 0)
(3.58364 -0.0751666 8.64158e-20)
(3.61861 -0.254116 -7.25819e-20)
(3.72134 -0.217734 -1.26629e-18)
(3.75926 -0.126044 1.28216e-18)
(3.67616 -0.0488805 0)
(2.44571 3.86449 0)
(2.61914 3.90991 0)
(2.88987 3.61972 0)
(2.73841 3.63902 0)
(0.857684 1.39927 -3.32575e-21)
(0.613955 1.04284 0)
(1.71759 3.39416 1.50258e-20)
(1.42771 3.47367 0)
(1.33402 2.96269 -1.2849e-18)
(1.4147 2.9035 8.25123e-19)
(1.79237 0.310494 0)
(1.43139 0.262125 3.52005e-19)
(2.41281 0.358815 2.19128e-18)
(1.78705 0.284842 -7.85274e-19)
(1.42703 0.112199 -2.49444e-18)
(4.26616 0.789033 -2.56467e-18)
(3.85355 0.994411 -3.66946e-20)
(3.29905 0.844223 2.06727e-18)
(3.87709 0.744812 1.81277e-18)
(3.12439 0.465476 -3.04426e-18)
(2.91161 0.452026 3.74897e-19)
(3.19428 0.682183 -8.18506e-19)
(2.97773 0.683133 0)
(3.75984 0.563487 1.53723e-18)
(4.09645 0.628672 0)
(4.09204 0.775573 0)
(4.04515 0.415311 8.23456e-19)
(4.29648 0.641729 -3.0268e-20)
(4.24868 0.714785 -4.52746e-19)
(4.17579 0.642205 0)
(3.61603 0.130204 1.71771e-18)
(4.19006 0.183224 2.1436e-18)
(4.09086 0.151381 -1.67896e-18)
(4.13678 0.240465 -1.44245e-18)
(3.74616 0.237903 -2.15579e-18)
(3.30396 0.375773 0)
(3.40415 0.302128 0)
(2.5589 0.190562 -1.26573e-18)
(2.10926 0.119071 4.7665e-19)
(4.03757 0.352212 1.93977e-18)
(4.28753 0.432162 -2.34589e-18)
(4.28511 0.488763 2.06835e-18)
(4.15753 0.492803 0)
(4.25648 0.336671 0)
(4.26629 0.322059 -9.81469e-19)
(4.21436 0.315687 -1.59605e-18)
(2.23406 3.49165 6.20316e-19)
(1.94559 3.23782 -6.83518e-19)
(1.45198 2.36237 -1.03244e-18)
(1.191 2.0016 2.66977e-19)
(0.88728 1.38271 -2.63051e-18)
(0.796372 1.21898 9.22628e-19)
(0.6028 0.906719 -1.92458e-21)
(1.11882 1.78982 -1.13849e-18)
(1.14658 1.88765 1.69956e-18)
(0.977767 1.7043 5.06318e-19)
(0.788427 1.29194 -5.12937e-19)
(0.637174 1.07694 0)
(2.45217 2.60982 -1.15422e-19)
(0.707868 1.14565 8.57664e-19)
(0.93027 0.89168 1.15659e-18)
(0.757469 0.815116 1.3384e-18)
(1.08533 0.747879 1.34146e-18)
(1.4703 1.04628 -2.27078e-18)
(1.38632 1.07338 1.83987e-18)
(1.00406 0.767127 -6.76984e-19)
(0.818623 0.569061 1.49506e-18)
(1.6171 0.49113 -7.78006e-19)
(1.56074 0.508813 0)
(1.24079 0.407696 4.62458e-21)
(2.51367 1.51723 7.75572e-19)
(2.08381 1.27171 -2.80867e-18)
(1.69042 1.1864 9.16032e-21)
(1.66413 1.09395 0)
(2.8676 2.5962 8.73574e-19)
(3.44835 2.75025 1.03686e-18)
(3.25787 2.9292 -1.19527e-18)
(3.5543 2.76034 -4.28139e-19)
(3.48254 2.59848 -1.34842e-19)
(3.51156 2.79037 1.38719e-19)
(3.67675 2.26486 -1.67874e-18)
(3.70525 2.48978 4.00703e-19)
(3.78276 2.43222 0)
(3.78311 2.18805 -5.79505e-19)
(4.04974 1.07241 5.80368e-19)
(4.27552 0.991858 1.00188e-18)
(4.30024 0.96556 1.01136e-18)
(4.0558 1.32804 -1.14927e-18)
(4.10226 1.34781 0)
(4.15168 1.23182 0)
(3.33042 1.23549 -1.55563e-20)
(2.42001 0.666731 0)
(2.72414 0.744112 9.30493e-19)
(3.24049 0.885579 -2.64138e-20)
(3.77484 1.53377 5.10574e-18)
(3.57242 1.76116 1.31068e-18)
(3.48376 1.54011 -1.34034e-18)
(3.04084 1.36999 1.43709e-18)
(2.76442 1.37024 8.23681e-19)
(2.3101 1.15685 -7.97719e-19)
(3.67218 -0.0855837 1.98418e-18)
(3.89469 -0.0289758 0)
(3.85894 -0.0665898 1.34176e-18)
(3.7429 -0.0594476 -2.98707e-18)
(3.98056 0.0373186 1.46163e-18)
(3.90446 0.11337 -3.08223e-18)
(3.73988 0.127976 0)
(3.55628 0.173436 -6.28401e-19)
(3.81198 0.122946 1.60491e-18)
(3.69197 0.191352 -8.22372e-19)
(3.60031 0.171048 5.90579e-19)
(-0.0821955 2.58786 0)
(-0.0503252 3.39223 0)
(-0.0334428 2.45681 0)
(-0.0225954 1.9676 0)
(0.0425573 3.93067 6.70107e-19)
(0.137154 3.71052 -1.7293e-19)
(0.313897 4.63755 -2.29489e-19)
(0.249032 4.4493 2.42291e-19)
(-0.0299111 4.28665 -4.97104e-19)
(0.00730141 4.31861 3.73303e-19)
(0.0919033 3.85908 2.23697e-20)
(0.00650515 3.54672 -4.66833e-19)
(-0.0152916 3.30078 -6.22306e-20)
(-0.0431302 3.66342 -5.66892e-20)
(0.150155 4.48347 -5.86553e-19)
(0.17609 4.29976 0)
(0.272748 4.6403 2.96268e-19)
(0.265015 4.70959 2.52943e-19)
(0.595098 4.45092 -2.25884e-19)
(0.409581 3.79832 0)
(0.458878 3.64471 -1.11574e-18)
(0.562804 4.01361 7.90563e-19)
(0.479114 4.56727 -6.14649e-19)
(0.368876 4.44241 3.30678e-19)
(0.299209 4.17039 0)
(-0.0406257 4.76284 -5.52621e-19)
(-0.0795737 4.53249 -6.41134e-19)
(-0.0814127 4.74211 0)
(-0.0332113 4.36757 -6.24453e-21)
(-0.0236317 4.64676 2.73984e-19)
(-0.123444 3.88003 4.47044e-20)
(-0.0593057 3.48809 -6.5378e-19)
(-0.100815 3.92582 1.7439e-19)
(-0.142464 4.51479 2.32129e-19)
(-0.0818282 4.32412 0)
(-0.0656019 3.8885 0)
(-0.0850046 2.90895 2.01161e-19)
(-0.0521095 3.63908 -6.27641e-20)
(-0.0773506 3.625 0)
(-0.0903157 2.69502 1.58394e-19)
(-0.0477617 2.20242 -3.06896e-19)
(3.76094 0.032246 0)
(3.7318 0.00764458 -2.0323e-19)
(4.17947 0.0677903 -1.43961e-18)
(4.08902 0.0461424 0)
(3.87618 0.0176668 0)
(4.14972 0.0369331 -1.25173e-20)
(4.10029 0.0348435 2.37838e-18)
(4.00015 0.0800848 2.84499e-18)
(3.75596 0.118564 0)
(3.55815 0.109959 0)
(4.01341 0.0937881 1.41713e-18)
(3.7034 0.116004 0)
(3.47229 0.128776 0)
(-0.0891554 4.6955 0)
(-0.114691 4.66389 1.06935e-20)
(-0.0856481 4.71485 6.29794e-20)
(-0.0666363 3.83921 0)
(-0.119957 4.53664 1.11177e-19)
(-0.075625 4.24798 -6.34207e-20)
(-0.0606921 3.94012 0)
(1.41563 4.19382 0)
(1.20899 4.57633 -1.29716e-18)
(1.22552 4.48898 0)
(1.57432 4.48112 1.48401e-18)
(1.59029 4.10745 0)
(1.49925 4.36185 -6.06424e-19)
(1.01702 2.25225 -3.39891e-20)
(0.713361 1.65324 -1.74695e-18)
(0.593826 1.23313 2.13128e-18)
(0.713122 1.84492 3.97399e-19)
(0.98085 2.43629 0)
(1.04255 2.39072 0)
(0.722481 1.69594 0)
(0.535413 1.33724 -1.39733e-18)
(1.21562 3.78643 -9.84049e-19)
(1.13506 3.00242 -2.35707e-19)
(1.33397 3.41711 1.9277e-19)
(0.602798 2.05271 0)
(0.624028 1.95347 0)
(0.46511 1.58035 -3.93397e-19)
(0.963148 2.73392 0)
(2.69101 3.56998 0)
(2.38804 3.01197 -1.45453e-18)
(2.5521 3.0292 -8.58609e-20)
(2.42642 3.40698 0)
(2.29316 3.15395 2.22108e-18)
(3.28038 3.08443 -3.89588e-19)
(3.1339 3.31988 0)
(3.11625 3.14601 6.30248e-19)
(2.87281 3.41089 0)
(2.88598 3.2005 0)
(1.21471 2.01357 -9.31116e-19)
(1.42034 2.41118 -6.99872e-19)
(1.76109 2.98982 1.20631e-18)
(1.70346 2.96857 -3.62448e-19)
(1.06726 1.82912 0)
(1.21243 2.21678 4.71408e-19)
(0.721514 1.29357 -7.15885e-19)
(0.5841 1.04756 -6.06306e-22)
(1.94506 3.70277 0)
(2.20601 3.74605 -5.42475e-19)
(2.3431 3.98626 0)
(2.28568 0.529018 0)
(1.61854 0.342039 0)
(1.21001 0.276737 0)
(2.21091 0.554368 -1.46499e-18)
(1.63672 0.402406 8.17134e-19)
(2.14646 0.12908 -9.84917e-19)
(2.62765 0.29744 0)
(2.46673 0.301593 4.13392e-19)
(1.77072 0.135707 1.63262e-18)
(1.53093 0.0812685 -1.03679e-18)
(0.747789 1.55906 8.58435e-19)
(0.963107 1.82428 0)
(0.539186 1.44261 1.56167e-18)
(0.525778 1.61694 -1.42593e-18)
(0.760034 1.81714 -9.88901e-19)
(2.08025 2.46671 1.33806e-18)
(2.10406 2.71676 0)
(1.58877 1.68165 -2.76436e-19)
(2.01567 1.99299 1.74527e-18)
(1.36389 1.29539 -4.23686e-19)
(1.59292 1.31608 4.50836e-19)
(2.11436 1.51533 1.02331e-18)
(2.44775 1.67277 0)
(2.28154 1.85871 0)
(2.01492 1.60868 0)
(3.95701 2.07704 3.84433e-19)
(3.76181 1.88842 -1.26312e-18)
(3.81921 2.0262 1.04626e-18)
(3.9024 1.76966 -1.00797e-18)
(4.15749 1.67173 0)
(4.11622 1.83846 -2.97747e-19)
(2.8438 1.16363 -1.89701e-18)
(2.97386 1.16352 -2.41249e-18)
(2.33512 1.0442 1.45622e-18)
(2.14107 0.935105 -1.41975e-18)
(2.46614 0.846476 -1.17797e-18)
(2.18112 0.777472 1.44865e-18)
(4.00844 0.0334122 -1.52853e-18)
(4.05275 0.0406121 3.12946e-18)
(3.76793 -0.0659374 1.90046e-18)
(3.79115 -0.0738319 -2.28624e-18)
(3.9595 0.0104757 0)
(4.05601 0.0227767 -3.72891e-18)
(0.0914308 4.76068 1.06587e-19)
(0.062339 4.72869 0)
(0.185482 4.7312 9.52362e-19)
(0.206962 4.74767 -8.6642e-19)
(0.22678 4.71245 4.27961e-19)
(0.117625 4.65178 0)
(-0.109434 4.76917 0)
(-0.114802 4.40378 -6.19113e-20)
(-0.113902 4.33532 5.54943e-20)
(-0.122717 4.48287 7.28987e-21)
(-0.113438 4.71811 -1.01182e-19)
(-0.0903341 4.70623 5.50242e-20)
(1.88159 4.01329 -1.64288e-18)
(1.82187 4.02111 1.74007e-18)
(1.68492 4.40221 -8.53638e-19)
(1.69798 4.28107 7.61352e-20)
(2.25222 4.07928 0)
(1.85261 4.20976 -6.35782e-19)
(1.97925 3.94895 6.16624e-19)
(1.82378 4.37265 8.33842e-19)
(2.07786 4.21584 0)
(2.23056 4.09614 0)
(1.14483 3.64375 1.49592e-18)
(0.831959 2.82598 2.02593e-18)
(0.959989 3.0041 -1.39133e-18)
(0.751649 2.98719 -2.3225e-19)
(0.907742 3.74609 4.66787e-19)
(0.726939 3.37998 -1.13529e-18)
(0.749632 1.4721 -1.21622e-18)
(0.749595 1.32232 0)
(0.605337 1.11914 -1.33673e-18)
(1.11622 2.07223 0)
(1.09345 2.15943 0)
(1.36391 2.19475 -1.09106e-18)
(1.06828 2.01819 -1.03647e-18)
(1.02059 2.03862 1.09919e-18)
(1.03524 1.52179 0)
(1.41546 1.76525 -6.01444e-19)
(1.63315 2.12324 -8.55578e-19)
(1.41624 2.08634 0)
(0.87121 1.82089 7.12827e-19)
(0.782932 1.68149 0)
(2.91167 2.29022 -1.84643e-18)
(3.32251 2.47012 2.60822e-18)
(3.28171 2.1928 -2.59239e-18)
(2.61577 2.02282 -2.31137e-19)
(2.73 1.94161 -9.73964e-19)
(1.26667 2.19442 7.96527e-19)
(1.32116 2.24995 -1.36048e-18)
(1.45981 2.33422 1.79339e-18)
(1.79701 2.56452 -1.1656e-18)
(1.89646 2.93879 -1.56749e-18)
(1.56942 2.49451 -1.18819e-19)
(1.63967 2.63494 1.37181e-18)
(1.81713 2.69876 9.66512e-20)
(2.02544 3.00445 6.50204e-19)
)
;

boundaryField
{
    wall-4
    {
        type            noSlip;
    }
    velocity-inlet-5
    {
        type            fixedValue;
        value           uniform (3 0 0);
    }
    velocity-inlet-6
    {
        type            fixedValue;
        value           uniform (0 1 0);
    }
    pressure-outlet-7
    {
        type            zeroGradient;
    }
    wall-8
    {
        type            noSlip;
    }
    frontAndBackPlanes
    {
        type            empty;
    }
}


// ************************************************************************* //
