/*--------------------------------*- C++ -*----------------------------------*\
  =========                 |
  \\      /  F ield         | OpenFOAM: The Open Source CFD Toolbox
   \\    /   O peration     | Website:  https://openfoam.org
    \\  /    A nd           | Version:  9
     \\/     M anipulation  |
\*---------------------------------------------------------------------------*/
FoamFile
{
    format      ascii;
    class       volScalarField;
    location    "1.3";
    object      p;
}
// * * * * * * * * * * * * * * * * * * * * * * * * * * * * * * * * * * * * * //

dimensions      [0 2 -2 0 0 0 0];

internalField   nonuniform List<scalar> 
6400
(
5.68669e-06
-0.000361892
-0.00120421
-0.00231303
-0.00348539
-0.0045776
-0.00548864
-0.00615024
-0.00651923
-0.00657124
-0.00629593
-0.00569355
-0.00477255
-0.00354811
-0.00204112
-0.00027774
0.00171091
0.0038888
0.0062151
0.00864436
0.0111269
0.0136093
0.0160357
0.0183485
0.0204906
0.0224067
0.024046
0.0253642
0.0263265
0.0269092
0.027103
0.0269149
0.0263705
0.025516
0.024421
0.0231809
0.021919
0.0207917
0.0199967
0.019706
0.000380716
7.74685e-06
-0.000664217
-0.00151163
-0.00240402
-0.00323618
-0.00392842
-0.00442287
-0.00468003
-0.00467538
-0.00439641
-0.00384016
-0.00301139
-0.00192135
-0.000586908
0.000969984
0.00272256
0.00463948
0.006685
0.00881924
0.0109987
0.0131766
0.0153044
0.0173323
0.0192111
0.0208938
0.0223375
0.0235055
0.0243696
0.0249118
0.0251267
0.0250232
0.0246258
0.0239766
0.0231356
0.0221817
0.0212117
0.0203403
0.0197022
0.0194153
0.00123145
0.000674538
-8.47713e-06
-0.000774359
-0.00155099
-0.00225906
-0.0028372
-0.0032396
-0.0034335
-0.00339767
-0.00312054
-0.00259859
-0.00183505
-0.000838914
0.000375624
0.00178964
0.00337972
0.00511811
0.00697296
0.00890854
0.0108857
0.0128624
0.0147948
0.016638
0.0183476
0.0198815
0.0212013
0.0222743
0.0230756
0.0235897
0.0238125
0.0237524
0.0234319
0.0228877
0.0221713
0.021348
0.0204961
0.0197053
0.0190619
0.018624
0.00237419
0.00152774
0.000729923
-5.60118e-05
-0.000810472
-0.00147327
-0.00199927
-0.0023552
-0.0025165
-0.00246693
-0.00219761
-0.00170598
-0.000994959
-7.23223e-05
0.00104967
0.00235449
0.00382152
0.00542606
0.00713951
0.00892952
0.0107604
0.0125935
0.0143884
0.0161035
0.0176975
0.0191309
0.0203678
0.0213774
0.0221361
0.0226291
0.0228516
0.0228105
0.022525
0.0220265
0.0213586
0.0205751
0.0197397
0.0189261
0.018177
0.0174853
0.00362459
0.00244608
0.00148441
0.000627013
-0.000154605
-0.000815435
-0.00132486
-0.00166168
-0.00180975
-0.00175847
-0.00150237
-0.00104059
-0.000376336
0.000483312
0.00152759
0.00274205
0.00410853
0.0056051
0.00720602
0.0088819
0.0105999
0.0123242
0.0140169
0.0156386
0.01715
0.0185133
0.0196934
0.0206603
0.0213902
0.0218678
0.0220867
0.0220515
0.0217775
0.021291
0.0206282
0.0198328
0.0189572
0.0180637
0.0171553
0.0161609
0.00484878
0.00332675
0.00217424
0.00121088
0.000366289
-0.000325947
-0.000847504
-0.00118811
-0.00133965
-0.00129715
-0.00105885
-0.000625913
-2.29231e-06
0.000805286
0.0017872
0.00293075
0.00421992
0.00563516
0.00715326
0.00874724
0.0103866
0.0120377
0.0136641
0.015228
0.016691
0.0180154
0.0191663
0.0201128
0.0208301
0.0213009
0.0215167
0.0214787
0.0211984
0.0206971
0.0200046
0.0191567
0.0181973
0.0171819
0.0160804
0.0147646
0.00594581
0.00408454
0.00272895
0.0016388
0.000707621
-3.93953e-05
-0.000594097
-0.000955787
-0.00112364
-0.00109798
-0.000880679
-0.000475052
0.000114071
0.000880081
0.00181426
0.00290541
0.00413938
0.00549871
0.00696231
0.00850525
0.0100988
0.0117108
0.0133059
0.0148467
0.0162946
0.0176117
0.0187615
0.0197115
0.0204345
0.0209106
0.0211279
0.0210841
0.0207864
0.0202516
0.0195043
0.0185739
0.017499
0.0163324
0.0150166
0.0133739
0.00683682
0.00464752
0.00308596
0.00185841
0.000826856
1.03317e-05
-0.000591426
-0.000986008
-0.00117901
-0.00117559
-0.000980944
-0.000600413
-3.97139e-05
0.000694603
0.00159462
0.00265045
0.00384964
0.00517659
0.00661203
0.00813274
0.00971138
0.0113167
0.0129137
0.0144649
0.015931
0.0172721
0.0184499
0.019429
0.020179
0.020676
0.0209044
0.0208576
0.0205386
0.0199596
0.019141
0.0181079
0.0168955
0.0155573
0.0140135
0.0120427
0.00745781
0.00495369
0.00318837
0.00181931
0.000680323
-0.000214157
-0.000871436
-0.00130628
-0.0015299
-0.00155168
-0.00137981
-0.00102138
-0.000482876
0.000229267
0.00110791
0.00214445
0.003328
0.00464466
0.00607683
0.00760269
0.00919599
0.010826
0.0124577
0.0140528
0.0155703
0.0169682
0.0182049
0.0192415
0.0200431
0.0205813
0.0208355
0.0207945
0.0204565
0.0198298
0.018931
0.0177819
0.0164169
0.0148924
0.0131099
0.0108081
0.00775419
0.00494821
0.00298392
0.0014733
0.000224379
-0.000751976
-0.0014691
-0.00194804
-0.00220494
-0.00225284
-0.00210247
-0.00176242
-0.00123969
-0.000540492
0.000328913
0.00136122
0.00254711
0.00387434
0.00532684
0.00688411
0.00852074
0.0102062
0.0119053
0.0135781
0.0151816
0.0166708
0.0180003
0.0191261
0.0200083
0.0206129
0.0209135
0.0208931
0.0205451
0.0198735
0.0188916
0.0176193
0.0160912
0.0143688
0.012337
0.00969681
0.00767706
0.00458106
0.00242374
0.000774024
-0.000584258
-0.00164316
-0.00242136
-0.0029455
-0.00323605
-0.00330926
-0.003178
-0.002852
-0.00233855
-0.0016434
-0.000771809
0.000270349
0.00147541
0.00283281
0.00432809
0.00594199
0.0076499
0.00942144
0.0112206
0.0130059
0.0147318
0.0163494
0.0178085
0.0190597
0.0200566
0.0207584
0.0211319
0.0211536
0.0208112
0.0201039
0.019042
0.0176439
0.0159456
0.0140154
0.0117227
0.00873039
0.00718078
0.00380522
0.00146127
-0.00032361
-0.00178864
-0.00292848
-0.00376668
-0.00433501
-0.00465784
-0.00475421
-0.00463876
-0.00432207
-0.00381143
-0.00311188
-0.00222745
-0.0011624
7.74222e-05
0.00148334
0.0030426
0.00473733
0.00654375
0.00843163
0.0103641
0.012298
0.0141845
0.0159705
0.0176003
0.0190178
0.0201693
0.0210057
0.0214857
0.0215781
0.0212638
0.0205366
0.0194037
0.0178816
0.016009
0.013862
0.0112943
0.00792942
0.00622136
0.00257549
5.13108e-05
-0.00186392
-0.00343173
-0.00464927
-0.00554471
-0.00615461
-0.00650693
-0.00662324
-0.00651964
-0.00620726
-0.0056931
-0.00498126
-0.00407426
-0.00297447
-0.00168563
-0.000214289
0.0014288
0.00322741
0.00515882
0.00719309
0.00929262
0.0114123
0.0135
0.0154978
0.0173437
0.0189742
0.0203265
0.0213421
0.0219702
0.02217
0.0219142
0.0211904
0.0200013
0.0183619
0.0163134
0.0139409
0.0110816
0.00731688
0.00475561
0.000847591
-0.00185058
-0.00389086
-0.00555658
-0.00684737
-0.00779592
-0.00844346
-0.00882136
-0.00895347
-0.0088572
-0.00854395
-0.00802022
-0.00728885
-0.00635054
-0.00520548
-0.0038549
-0.00230285
-0.000557655
0.0013665
0.00344838
0.00565864
0.00795922
0.0103031
0.0126349
0.0148914
0.0170038
0.0188998
0.0205065
0.0217544
0.0225809
0.022934
0.0227762
0.0220869
0.0208636
0.0191187
0.0168958
0.01429
0.0111201
0.00692116
0.00274055
-0.00142243
-0.00428864
-0.00644837
-0.00820643
-0.009565
-0.0105614
-0.0112414
-0.0116398
-0.0117827
-0.0116887
-0.0113692
-0.0108301
-0.0100726
-0.00909535
-0.00789588
-0.00647255
-0.00482634
-0.00296264
-0.000892968
0.00136347
0.00377852
0.00631411
0.00892175
0.0115426
0.0141083
0.0165424
0.018763
0.0206857
0.022228
0.0233133
0.0238761
0.0238661
0.0232524
0.022025
0.0201926
0.0178007
0.0149546
0.0114528
0.00677881
0.000133134
-0.00427863
-0.00730731
-0.00958071
-0.0114249
-0.0128447
-0.0138823
-0.0145883
-0.0150008
-0.0151484
-0.0150507
-0.0147193
-0.0141591
-0.0133695
-0.0123467
-0.0110852
-0.00957989
-0.00782814
-0.00583169
-0.00359866
-0.00114539
0.00150193
0.00430591
0.00721715
0.0101739
0.0131023
0.0159183
0.0185294
0.0208381
0.0227469
0.0241629
0.0250038
0.0252035
0.0247177
0.0235264
0.0216322
0.0190817
0.0159906
0.0121339
0.0069374
-0.00310954
-0.00776549
-0.0109516
-0.0133328
-0.015256
-0.0167294
-0.0177999
-0.0185235
-0.018942
-0.0190866
-0.0189781
-0.0186282
-0.0180408
-0.0172134
-0.0161393
-0.0148095
-0.0132149
-0.0113485
-0.00920753
-0.0067958
-0.0041258
-0.00122074
0.00188374
0.00513818
0.00847853
0.0118261
0.0150888
0.0181627
0.0209363
0.0232946
0.0251254
0.0263264
0.0268117
0.0265197
0.0254167
0.0234963
0.0208041
0.0174664
0.0132308
0.00745852
-0.00703119
-0.0119285
-0.0152679
-0.0177506
-0.0197448
-0.0212621
-0.022355
-0.0230851
-0.0234989
-0.0236302
-0.0235016
-0.0231252
-0.0225037
-0.0216326
-0.0205019
-0.0190987
-0.0174093
-0.0154213
-0.0131268
-0.0105239
-0.00762029
-0.00443469
-0.000999778
0.0026362
0.006408
0.0102328
0.0140106
0.0176261
0.020952
0.0238539
0.0261975
0.0278558
0.0287189
0.0287026
0.0277547
0.0258558
0.0230478
0.0194667
0.0148283
0.00842114
-0.0116758
-0.0168145
-0.0203041
-0.0228818
-0.0249373
-0.0264861
-0.0275874
-0.0283092
-0.0287034
-0.0288076
-0.0286466
-0.0282329
-0.0275686
-0.0266466
-0.0254539
-0.0239729
-0.0221845
-0.0200704
-0.017616
-0.0148129
-0.0116621
-0.00817665
-0.00438452
-0.000331076
0.00391876
0.0082792
0.0126433
0.0168843
0.0208582
0.0244094
0.0273777
0.0296075
0.0309589
0.0313191
0.030611
0.0287965
0.0259101
0.0220958
0.0170319
0.00992546
-0.0170884
-0.0224732
-0.0261116
-0.028777
-0.0308815
-0.0324455
-0.0335359
-0.0342289
-0.0345831
-0.0346408
-0.0344299
-0.0339642
-0.0332449
-0.0322631
-0.0310017
-0.0294384
-0.0275478
-0.0253047
-0.0226868
-0.0196777
-0.0162702
-0.0124698
-0.00829785
-0.00379471
0.000977001
0.00593037
0.0109529
0.015907
0.0206318
0.0249488
0.0286686
0.0316022
0.033573
0.0344323
0.0340702
0.0324222
0.0295095
0.0254817
0.0199726
0.0120975
-0.0233164
-0.0289583
-0.0327462
-0.0354909
-0.0376282
-0.039185
-0.0402378
-0.0408734
-0.0411586
-0.0411426
-0.0408574
-0.0403187
-0.0395278
-0.0384733
-0.0371344
-0.035483
-0.0334872
-0.0311136
-0.0283309
-0.0251133
-0.0214438
-0.0173181
-0.0127487
-0.0077686
-0.00243557
0.00316488
0.00891692
0.0146735
0.0202576
0.0254665
0.0300792
0.0338677
0.0366122
0.0381184
0.038234
0.036858
0.0339904
0.0297817
0.0238124
0.0150948
-0.030411
-0.0363305
-0.0402717
-0.0430848
-0.0452327
-0.0467508
-0.0477287
-0.0482664
-0.0484425
-0.0483146
-0.0479209
-0.04728
-0.0463936
-0.0452482
-0.0438189
-0.0420716
-0.0399664
-0.0374611
-0.0345143
-0.0310887
-0.0271558
-0.0226995
-0.0177209
-0.0122428
-0.00631505
-1.8575e-05
0.00653046
0.0131783
0.0197331
0.0259681
0.0316285
0.0364427
0.0401395
0.0424693
0.0432246
0.0422551
0.0395282
0.0351885
0.0287513
0.0191129
-0.0384307
-0.0446615
-0.0487629
-0.0516296
-0.0537567
-0.0551918
-0.056042
-0.0564256
-0.0564363
-0.0561439
-0.0555943
-0.0548108
-0.0537958
-0.0525341
-0.0509961
-0.0491409
-0.0469202
-0.0442815
-0.0411717
-0.037541
-0.0333471
-0.0285599
-0.0231665
-0.0171765
-0.0106281
-0.00359392
0.00381358
0.0114376
0.0190746
0.0264754
0.03335
0.0393797
0.044234
0.0475962
0.0491888
0.0487958
0.0463366
0.0419383
0.0350361
0.0243944
-0.0474459
-0.0540396
-0.0583124
-0.061211
-0.0632717
-0.0645604
-0.0652087
-0.0653598
-0.0651281
-0.0645993
-0.0638299
-0.0628492
-0.061661
-0.0602481
-0.0585757
-0.0565955
-0.0542496
-0.0514738
-0.0482021
-0.0443704
-0.039921
-0.0348073
-0.0289997
-0.0224913
-0.015305
-0.00750042
0.000818456
0.00949693
0.0183244
0.0270323
0.0352972
0.0427501
0.0489944
0.0536337
0.0563033
0.0567003
0.054675
0.050321
0.0429715
0.0312392
-0.0575464
-0.0645797
-0.0690382
-0.0719352
-0.0738627
-0.0749143
-0.0752567
-0.0750674
-0.0744889
-0.0736275
-0.0725538
-0.0713039
-0.0698838
-0.0682737
-0.0664329
-0.0643041
-0.0618185
-0.0588991
-0.0554654
-0.0514372
-0.0467395
-0.0413074
-0.0350918
-0.0280661
-0.0202336
-0.0116363
-0.00236382
0.00743766
0.0175569
0.0277118
0.037549
0.046649
0.0545437
0.0607446
0.06478
0.0662341
0.0648602
0.0606935
0.052935
0.0400195
-0.0688535
-0.076436
-0.0810967
-0.0839385
-0.0856334
-0.0863178
-0.0862092
-0.0855325
-0.0844677
-0.083148
-0.0816605
-0.0800499
-0.0783237
-0.0764582
-0.0744053
-0.0720973
-0.0694523
-0.0663791
-0.0627809
-0.05856
-0.0536223
-0.0478826
-0.0412697
-0.0337344
-0.0252565
-0.015855
-0.00559863
0.00538233
0.0168845
0.0286209
0.0402146
0.0511998
0.0610336
0.0691245
0.0748722
0.0777171
0.0772784
0.0734969
0.0653968
0.0511985
-0.0815378
-0.0898234
-0.0947001
-0.0973991
-0.098712
-0.0988426
-0.0980818
-0.0967199
-0.0949862
-0.0930467
-0.0910082
-0.0889237
-0.0868006
-0.0846095
-0.0822919
-0.0797671
-0.0769383
-0.0736973
-0.0699297
-0.0655184
-0.060349
-0.0543138
-0.047318
-0.0392864
-0.0301718
-0.0199651
-0.00870727
0.00349609
0.0164597
0.029903
0.0434367
0.0565564
0.0686467
0.0790048
0.0868808
0.0915342
0.0924022
0.0892799
0.0809483
0.0653572
-0.0958477
-0.105048
-0.110141
-0.112553
-0.113258
-0.112567
-0.110878
-0.108568
-0.105929
-0.103168
-0.100412
-0.0977185
-0.0950931
-0.0924959
-0.089854
-0.0870701
-0.0840292
-0.0806041
-0.0766603
-0.07206
-0.0666666
-0.0603489
-0.0529866
-0.0444765
-0.0347408
-0.0237372
-0.0114724
0.00198214
0.0164715
0.0317357
0.0473888
0.0629018
0.0775956
0.090654
0.101158
0.108145
0.110811
0.10873
0.100341
0.0832343
-0.112156
-0.122556
-0.127831
-0.129713
-0.129469
-0.127574
-0.124577
-0.120975
-0.117135
-0.113307
-0.109636
-0.106181
-0.102937
-0.099847
-0.0968187
-0.0937325
-0.0904514
-0.0868259
-0.0826992
-0.0779112
-0.072302
-0.0657158
-0.0580054
-0.0490379
-0.0387021
-0.0269185
-0.0136525
0.00106839
0.0171328
0.0343189
0.0522647
0.0704381
0.0881142
0.10437
0.118106
0.128094
0.133212
0.132718
0.124548
0.105786
-0.131035
-0.143008
-0.148348
-0.149294
-0.147581
-0.143936
-0.139121
-0.133783
-0.128378
-0.123194
-0.118387
-0.114007
-0.110025
-0.106358
-0.102886
-0.09946
-0.0959158
-0.0920784
-0.0877662
-0.0827951
-0.0769808
-0.0701424
-0.0621052
-0.0527052
-0.041796
-0.029257
-0.0150061
0.000982758
0.0186564
0.0378511
0.058255
0.0793632
0.100435
0.120464
0.138166
0.152012
0.160474
0.162353
0.15485
0.134283
-0.153393
-0.167398
-0.172512
-0.171839
-0.167862
-0.161694
-0.154381
-0.146751
-0.139346
-0.132484
-0.126309
-0.12084
-0.116012
-0.111699
-0.10774
-0.103951
-0.100135
-0.0960855
-0.0915949
-0.0864532
-0.0804516
-0.0733833
-0.0650461
-0.0552448
-0.0437961
-0.0305355
-0.0153281
0.00191559
0.0212155
0.042489
0.0655056
0.0898285
0.114748
0.139215
0.161785
0.180604
0.193644
0.199067
0.19298
0.170482
-0.180715
-0.197244
-0.201478
-0.198032
-0.190584
-0.180809
-0.17011
-0.159509
-0.149615
-0.140735
-0.132968
-0.126274
-0.12052
-0.115522
-0.111065
-0.106917
-0.102842
-0.0986017
-0.093957
-0.0886725
-0.0825141
-0.0752501
-0.0666511
-0.0564909
-0.044549
-0.0306148
-0.0144958
0.00396942
0.0248897
0.0482883
0.0740533
0.101869
0.131122
0.160796
0.189348
0.214605
0.233959
0.24471
0.241338
0.216931
-0.215523
-0.234891
-0.236848
-0.228683
-0.215946
-0.20107
-0.185862
-0.171504
-0.158602
-0.147388
-0.137854
-0.129852
-0.123152
-0.117484
-0.112563
-0.108103
-0.10382
-0.0994385
-0.0946909
-0.0893144
-0.083051
-0.0756452
-0.0668417
-0.0563846
-0.0440167
-0.0294803
-0.0125219
0.00710012
0.0295983
0.0551277
0.0837385
0.1153
0.14939
0.185141
0.221034
0.254665
0.282811
0.301666
0.30333
0.27755
-0.262305
-0.283983
-0.280768
-0.264638
-0.243916
-0.221943
-0.200874
-0.181915
-0.165529
-0.151751
-0.140378
-0.131089
-0.123512
-0.117269
-0.111988
-0.107317
-0.102923
-0.0984937
-0.0937298
-0.0883446
-0.0820581
-0.0745932
-0.0656718
-0.0550102
-0.0423163
-0.0272864
-0.00960402
0.0110581
0.0350299
0.0626245
0.0941004
0.129591
0.168985
0.21174
0.256588
0.301115
0.341599
0.372922
0.383882
0.358779
-0.329482
-0.350178
-0.335862
-0.30645
-0.273877
-0.242281
-0.213863
-0.189536
-0.169359
-0.15298
-0.139878
-0.129482
-0.121234
-0.114618
-0.109167
-0.104459
-0.100112
-0.095777
-0.0911282
-0.0858581
-0.0796689
-0.0722662
-0.0633527
-0.0526215
-0.0397495
-0.0243898
-0.00616492
0.01534
0.0405806
0.0700501
0.104261
0.143695
0.188704
0.239316
0.294875
0.353442
0.41124
0.461924
0.490184
0.471954
-0.433337
-0.441972
-0.404664
-0.353544
-0.303893
-0.259798
-0.222705
-0.192602
-0.168719
-0.150061
-0.135634
-0.124542
-0.116005
-0.109357
-0.104032
-0.0995441
-0.0954683
-0.0914268
-0.0870751
-0.082091
-0.0761652
-0.0689922
-0.0602618
-0.04965
-0.0368095
-0.0213577
-0.00286312
0.0191708
0.0453243
0.07628
0.112836
0.155903
0.206457
0.2654
0.333226
0.40934
0.491068
0.571746
0.632273
0.637302
-0.604336
-0.570651
-0.48845
-0.403341
-0.330151
-0.270838
-0.224454
-0.188951
-0.162125
-0.142031
-0.127069
-0.115966
-0.107713
-0.101509
-0.096706
-0.0927697
-0.0892487
-0.08575
-0.0819208
-0.0774346
-0.0719789
-0.0652452
-0.0569187
-0.0466672
-0.0341296
-0.0188997
-0.000507022
0.0216098
0.0481376
0.0799345
0.118088
0.163979
0.21935
0.286305
0.36718
0.464102
0.57771
0.703367
0.821948
0.888687
-0.905533
-0.747625
-0.583084
-0.449269
-0.346278
-0.270421
-0.215767
-0.176574
-0.148502
-0.128428
-0.114106
-0.103913
-0.0966632
-0.0914656
-0.0876325
-0.0846142
-0.0819562
-0.0792687
-0.0762052
-0.0724459
-0.0676856
-0.0616219
-0.0539451
-0.0443263
-0.0324039
-0.017766
7.34471e-05
0.0217088
0.0478917
0.079604
0.118166
0.165394
0.223831
0.297038
0.389949
0.509271
0.662226
0.850731
1.07108
1.29319
-1.51433
-0.976318
-0.650294
-0.457782
-0.328487
-0.242765
-0.186549
-0.149071
-0.123738
-0.106544
-0.094911
-0.0871174
-0.0819759
-0.0786303
-0.076435
-0.0748811
-0.0735501
-0.072083
-0.0701596
-0.0674833
-0.0637691
-0.0587339
-0.0520858
-0.0435154
-0.0326808
-0.0191917
-0.0025857
0.0177068
0.0424163
0.0725186
0.109373
0.154954
0.21225
0.285934
0.383602
0.517944
0.707233
0.973643
1.38718
2.03614
-2.65469
-1.20473
-0.592958
-0.358115
-0.233533
-0.162082
-0.12098
-0.09628
-0.0809368
-0.071429
-0.0657594
-0.0626801
-0.0613518
-0.0611666
-0.0616551
-0.0624348
-0.0631795
-0.0636002
-0.0634314
-0.0624214
-0.0603241
-0.0568926
-0.0518724
-0.0449922
-0.0359567
-0.0244332
-0.0100348
0.00770527
0.029373
0.0557369
0.0878575
0.127288
0.176465
0.239536
0.324328
0.446971
0.639167
0.97025
1.69811
3.27102
1.05325e-05
-0.000358162
-0.00120746
-0.00232166
-0.0034985
-0.00459459
-0.00550877
-0.00617269
-0.00654321
-0.00659599
-0.00632075
-0.00571779
-0.00479562
-0.00356947
-0.0020603
-0.000294286
0.00169738
0.00387861
0.00620854
0.00864162
0.0111281
0.0136146
0.0160449
0.0183615
0.0205071
0.0224264
0.0240683
0.0253887
0.0263523
0.0269355
0.027129
0.0269398
0.0263932
0.0255357
0.0244369
0.0231924
0.0219258
0.0207931
0.019992
0.019706
0.000379048
8.25328e-06
-0.000661651
-0.00150566
-0.00239425
-0.00322292
-0.0039123
-0.00440461
-0.00466033
-0.00465493
-0.00437585
-0.00382005
-0.00299226
-0.00190366
-0.000571061
0.000983606
0.00273363
0.00464772
0.00669018
0.00882119
0.0109973
0.0131719
0.0152964
0.0173211
0.019197
0.020877
0.0223185
0.0234849
0.0243479
0.0248897
0.025105
0.0250026
0.0246072
0.0239607
0.023123
0.0221729
0.021207
0.0203387
0.0197018
0.0194198
0.00123524
0.00067242
-8.39347e-06
-0.000774131
-0.00155094
-0.00225882
-0.00283675
-0.00323896
-0.00343272
-0.00339678
-0.0031196
-0.00259765
-0.00183413
-0.000838064
0.000376376
0.00179027
0.0033802
0.00511843
0.00697311
0.00890851
0.0108855
0.0128621
0.0147943
0.0166373
0.0183468
0.0198806
0.0212003
0.0222733
0.0230745
0.0235887
0.0238116
0.0237516
0.0234312
0.0228872
0.022171
0.0213479
0.0204959
0.0197051
0.0190626
0.0186227
0.00238327
0.00152179
0.000729656
-5.60761e-05
-0.000811555
-0.00147464
-0.0020008
-0.00235685
-0.00251821
-0.00246865
-0.0021993
-0.00170762
-0.000996512
-7.37649e-05
0.00104836
0.00235334
0.00382055
0.0054253
0.00713897
0.00892922
0.0107603
0.0125937
0.0143889
0.0161042
0.0176985
0.0191322
0.0203693
0.0213791
0.0221379
0.0226309
0.0228534
0.0228123
0.0225267
0.022028
0.0213599
0.020576
0.0197397
0.018926
0.0181806
0.0174789
0.00363849
0.00243571
0.00148416
0.000627902
-0.000154748
-0.000815582
-0.00132493
-0.00166172
-0.00180977
-0.00175846
-0.00150235
-0.00104055
-0.000376305
0.00048333
0.00152758
0.00274202
0.00410848
0.00560502
0.00720592
0.00888177
0.0105997
0.0123241
0.0140167
0.0156384
0.0171499
0.0185132
0.0196933
0.0206602
0.0213903
0.0218678
0.0220868
0.0220516
0.0217776
0.0212911
0.0206283
0.0198329
0.0189564
0.0180637
0.0171629
0.0161503
0.00486744
0.00331197
0.00217367
0.00121206
0.000366131
-0.000326094
-0.000847547
-0.00118814
-0.00133967
-0.00129716
-0.00105885
-0.00062592
-2.30464e-06
0.000805261
0.00178716
0.00293068
0.00421983
0.00563506
0.00715313
0.00874711
0.0103865
0.0120375
0.013664
0.0152279
0.0166909
0.0180153
0.0191662
0.0201128
0.0208302
0.021301
0.0215168
0.0214788
0.0211985
0.0206972
0.0200047
0.0191568
0.0181962
0.0171822
0.0160919
0.0147497
0.00596903
0.0040656
0.00272804
0.0016402
0.00070737
-3.96292e-05
-0.000594211
-0.000955912
-0.00112376
-0.00109811
-0.000880816
-0.000475195
0.000113922
0.000879924
0.0018141
0.00290524
0.0041392
0.00549853
0.00696213
0.00850508
0.0100987
0.0117107
0.0133058
0.0148466
0.0162947
0.0176117
0.0187616
0.0197116
0.0204348
0.0209108
0.0211282
0.0210844
0.0207867
0.0202518
0.0195045
0.0185741
0.0174978
0.0163329
0.0150317
0.0133547
0.00686437
0.00462467
0.00308473
0.00186005
0.00082657
1.0096e-05
-0.000591502
-0.00098609
-0.0011791
-0.00117568
-0.000981053
-0.000600536
-3.98492e-05
0.000694454
0.00159446
0.00265027
0.00384946
0.0051764
0.00661185
0.00813256
0.00971122
0.0113165
0.0129136
0.0144649
0.0159309
0.0172721
0.01845
0.0194291
0.0201792
0.0206762
0.0209047
0.0208579
0.0205388
0.0199598
0.0191413
0.0181082
0.0168941
0.0155581
0.0140323
0.0120194
0.00748946
0.00492719
0.00318684
0.00182116
0.00067999
-0.000214405
-0.000871482
-0.00130632
-0.00152995
-0.00155174
-0.00137988
-0.00102147
-0.000482987
0.000229138
0.00110776
0.00214429
0.00332782
0.00464447
0.00607663
0.0076025
0.00919581
0.0108258
0.0124576
0.0140527
0.0155702
0.0169682
0.018205
0.0192416
0.0200432
0.0205815
0.0208358
0.0207948
0.0204568
0.0198301
0.0189314
0.0177823
0.0164153
0.0148935
0.0131322
0.0107808
0.00778976
0.00491826
0.0029821
0.00147534
0.000223995
-0.000752243
-0.00146913
-0.00194806
-0.00220495
-0.00225286
-0.00210251
-0.00176248
-0.00123978
-0.000540602
0.000328781
0.00136107
0.00254694
0.00387415
0.00532664
0.00688391
0.00852054
0.0102061
0.0119051
0.013578
0.0151816
0.0166708
0.0180003
0.0191262
0.0200085
0.0206131
0.0209137
0.0208934
0.0205454
0.0198738
0.0188921
0.0176198
0.0160894
0.0143702
0.0123628
0.0096654
0.0077164
0.00454783
0.00242167
0.000776241
-0.000584688
-0.00164345
-0.00242136
-0.00294548
-0.00323603
-0.00330925
-0.003178
-0.00285203
-0.00233861
-0.00164349
-0.000771919
0.000270215
0.00147525
0.00283263
0.00432789
0.00594178
0.00764968
0.00942123
0.0112204
0.0130058
0.0147317
0.0163493
0.0178085
0.0190598
0.0200568
0.0207586
0.0211322
0.021154
0.0208115
0.0201042
0.0190426
0.0176445
0.0159437
0.0140171
0.0117521
0.00869471
0.00722373
0.00376884
0.00145895
-0.000321213
-0.00178911
-0.00292878
-0.00376666
-0.00433496
-0.00465778
-0.00475415
-0.00463872
-0.00432206
-0.00381144
-0.00311193
-0.00222753
-0.00116251
7.72859e-05
0.00148318
0.00304241
0.00473712
0.00654353
0.00843141
0.0103639
0.0122978
0.0141844
0.0159704
0.0176003
0.0190179
0.0201694
0.0210059
0.021486
0.0215785
0.0212642
0.0205371
0.0194044
0.0178824
0.0160069
0.013864
0.0113274
0.00788921
0.00626782
0.00253608
4.87569e-05
-0.00186134
-0.00343225
-0.00464959
-0.00554466
-0.00615452
-0.00650684
-0.00662314
-0.00651955
-0.0062072
-0.00569307
-0.00498127
-0.0040743
-0.00297455
-0.00168574
-0.000214426
0.00142863
0.00322722
0.00515861
0.00719287
0.0092924
0.0114121
0.0134998
0.0154977
0.0173437
0.0189742
0.0203266
0.0213424
0.0219705
0.0221704
0.0219147
0.0211909
0.0200021
0.0183628
0.0163111
0.0139432
0.0111189
0.00727176
0.00480549
0.000805228
-0.00185336
-0.00388811
-0.00555714
-0.0068477
-0.00779586
-0.00844334
-0.00882122
-0.00895333
-0.00885706
-0.00854384
-0.00802014
-0.0072888
-0.00635053
-0.0052055
-0.00385497
-0.00230295
-0.00055779
0.00136634
0.00344819
0.00565843
0.00795901
0.0103029
0.0126347
0.0148913
0.0170038
0.0188998
0.0205067
0.0217547
0.0225812
0.0229345
0.0227767
0.0220875
0.0208646
0.0191198
0.0168934
0.0142926
0.0111619
0.00687063
0.00279381
-0.00146767
-0.00429164
-0.00644546
-0.00820703
-0.00956535
-0.0105613
-0.0112412
-0.0116396
-0.0117825
-0.0116885
-0.011369
-0.0108299
-0.0100725
-0.00909527
-0.00789585
-0.00647256
-0.00482639
-0.00296273
-0.000893097
0.00136331
0.00377834
0.00631392
0.00892155
0.0115424
0.0141081
0.0165423
0.018763
0.0206858
0.0222282
0.0233137
0.0238766
0.0238667
0.0232531
0.0220262
0.0201939
0.0177981
0.0149577
0.0114996
0.00672227
0.000189866
-0.00432669
-0.00731053
-0.00957764
-0.0114255
-0.0128451
-0.0138822
-0.0145881
-0.0150006
-0.0151482
-0.0150505
-0.0147191
-0.0141588
-0.0133693
-0.0123465
-0.0110851
-0.00957982
-0.00782813
-0.00583172
-0.00359873
-0.0011455
0.00150178
0.00430575
0.00721698
0.0101737
0.0131022
0.0159183
0.0185294
0.0208383
0.0227472
0.0241634
0.0250044
0.0252042
0.0247185
0.0235277
0.0216337
0.0190788
0.0159941
0.0121863
0.00687413
-0.00304977
-0.00781638
-0.0109551
-0.0133296
-0.0152567
-0.0167298
-0.0177998
-0.0185232
-0.0189418
-0.0190863
-0.0189777
-0.0186279
-0.0180405
-0.0172131
-0.016139
-0.0148093
-0.0132148
-0.0113484
-0.00920748
-0.0067958
-0.00412586
-0.00122084
0.00188362
0.00513804
0.00847838
0.011826
0.0150887
0.0181627
0.0209364
0.0232949
0.0251259
0.0263271
0.0268126
0.0265208
0.0254183
0.0234981
0.020801
0.0174705
0.0132895
0.00738769
-0.00696823
-0.0119822
-0.0152716
-0.0177472
-0.0197456
-0.0212625
-0.0223548
-0.0230848
-0.0234985
-0.0236298
-0.0235012
-0.0231248
-0.0225033
-0.0216322
-0.0205015
-0.0190984
-0.017409
-0.0154211
-0.0131266
-0.0105239
-0.00762026
-0.00443472
-0.000999853
0.0026361
0.00640788
0.0102327
0.0140105
0.0176261
0.0209521
0.0238543
0.026198
0.0278566
0.0287199
0.0287039
0.0277566
0.0258579
0.0230444
0.0194714
0.0148941
0.00834179
-0.0116096
-0.0168711
-0.0203081
-0.0228784
-0.0249382
-0.0264866
-0.0275872
-0.0283089
-0.028703
-0.0288071
-0.0286461
-0.0282324
-0.027568
-0.0266462
-0.0254535
-0.0239725
-0.0221841
-0.0200701
-0.0176157
-0.0148127
-0.011662
-0.0081766
-0.00438453
-0.000331134
0.00391867
0.00827911
0.0126433
0.0168843
0.0208583
0.0244097
0.0273783
0.0296084
0.0309601
0.0313205
0.0306133
0.0287991
0.0259064
0.0221012
0.0171057
0.00983652
-0.0170189
-0.0225327
-0.0261159
-0.0287735
-0.0308825
-0.032446
-0.0335357
-0.0342285
-0.0345826
-0.0346402
-0.0344293
-0.0339635
-0.0332443
-0.0322625
-0.0310012
-0.0294378
-0.0275473
-0.0253043
-0.0226864
-0.0196774
-0.01627
-0.0124697
-0.00829777
-0.00379471
0.000976946
0.00593029
0.0109529
0.015907
0.0206319
0.0249491
0.0286692
0.0316031
0.0335743
0.034434
0.0340729
0.0324252
0.0295056
0.025488
0.0200555
0.0119978
-0.0232433
-0.029021
-0.032751
-0.0354873
-0.0376293
-0.0391855
-0.0402376
-0.0408729
-0.041158
-0.0411419
-0.0408566
-0.040318
-0.039527
-0.0384725
-0.0371336
-0.0354823
-0.0334865
-0.031113
-0.0283304
-0.0251129
-0.0214434
-0.0173178
-0.0127485
-0.00776854
-0.00243559
0.00316481
0.00891683
0.0146734
0.0202577
0.0254668
0.0300798
0.0338687
0.0366136
0.0381203
0.0382371
0.0368616
0.0339862
0.0297891
0.0239056
0.014983
-0.030334
-0.0363969
-0.040277
-0.0430812
-0.0452339
-0.0467514
-0.0477284
-0.0482659
-0.0484417
-0.0483138
-0.0479199
-0.0472791
-0.0463926
-0.0452473
-0.043818
-0.0420707
-0.0399657
-0.0374605
-0.0345136
-0.0310882
-0.0271554
-0.0226992
-0.0177206
-0.0122427
-0.00631505
-1.86586e-05
0.00653033
0.0131781
0.0197331
0.0259683
0.031629
0.0364437
0.0401411
0.0424715
0.0432282
0.0422594
0.0395239
0.0351971
0.0288562
0.0189875
-0.0383493
-0.0447321
-0.0487689
-0.0516261
-0.0537581
-0.0551925
-0.0560417
-0.0564249
-0.0564354
-0.0561428
-0.0555932
-0.0548097
-0.0537947
-0.0525331
-0.0509951
-0.04914
-0.0469193
-0.0442807
-0.041171
-0.0375404
-0.0333466
-0.0285596
-0.0231662
-0.0171764
-0.0106281
-0.00359405
0.00381337
0.0114374
0.0190745
0.0264754
0.0333504
0.0393806
0.0442356
0.0475986
0.0491929
0.0488009
0.0463321
0.0419485
0.0351543
0.0242536
-0.0473591
-0.0541154
-0.0583193
-0.0612075
-0.0632734
-0.0645612
-0.0652083
-0.0653589
-0.065127
-0.064598
-0.0638286
-0.0628479
-0.0616597
-0.0602469
-0.0585746
-0.0565945
-0.0542486
-0.051473
-0.0482014
-0.0443698
-0.0399205
-0.0348069
-0.0289995
-0.0224912
-0.015305
-0.00750065
0.000818092
0.00949649
0.018324
0.0270321
0.0352973
0.0427508
0.0489959
0.0536362
0.056308
0.0567062
0.0546705
0.0503332
0.0431048
0.0310812
-0.057453
-0.0646621
-0.0690464
-0.0719319
-0.0738647
-0.0749151
-0.0752561
-0.0750662
-0.0744874
-0.0736259
-0.0725522
-0.0713024
-0.0698824
-0.0682724
-0.0664317
-0.0643031
-0.0618176
-0.0588983
-0.0554647
-0.0514366
-0.0467391
-0.0413072
-0.0350917
-0.0280661
-0.0202338
-0.0116367
-0.00236443
0.0074369
0.0175561
0.0277111
0.0375486
0.0466493
0.0545449
0.0607471
0.0647851
0.0662409
0.0648557
0.0607082
0.0530858
0.0398421
-0.0687516
-0.0765273
-0.0811068
-0.0839354
-0.0856357
-0.0863185
-0.0862082
-0.0855309
-0.0844659
-0.0831461
-0.0816586
-0.0800482
-0.0783221
-0.0764568
-0.0744041
-0.0720962
-0.0694515
-0.0663784
-0.0627803
-0.0585595
-0.0536221
-0.0478824
-0.0412698
-0.0337346
-0.025257
-0.0158557
-0.00559964
0.0053811
0.0168831
0.0286195
0.0402135
0.0511993
0.0610341
0.0691266
0.0748776
0.0777248
0.0772739
0.0735148
0.0655681
0.050999
-0.0814247
-0.0899268
-0.0947126
-0.0973962
-0.0987145
-0.098843
-0.0980802
-0.0967177
-0.0949837
-0.0930442
-0.0910059
-0.0889217
-0.0867989
-0.0846081
-0.0822908
-0.0797662
-0.0769376
-0.0736968
-0.0699293
-0.0655183
-0.060349
-0.054314
-0.0473184
-0.039287
-0.0301727
-0.0199663
-0.00870881
0.0034942
0.0164575
0.0299007
0.0434345
0.0565547
0.0686461
0.0790061
0.086886
0.0915426
0.0923976
0.0893018
0.0811439
0.0651326
-0.0957197
-0.105168
-0.110157
-0.11255
-0.113261
-0.112567
-0.110875
-0.108564
-0.105926
-0.103165
-0.100409
-0.0977163
-0.0950913
-0.0924945
-0.089853
-0.0870694
-0.0840288
-0.0806039
-0.0766603
-0.0720601
-0.0666669
-0.0603495
-0.0529875
-0.0444776
-0.0347422
-0.023739
-0.0114747
0.00197941
0.0164683
0.0317321
0.0473851
0.0628984
0.0775932
0.0906536
0.101162
0.108154
0.110806
0.108757
0.100567
0.0829807
-0.112008
-0.122701
-0.127851
-0.129709
-0.129471
-0.127573
-0.124573
-0.12097
-0.117131
-0.113303
-0.109632
-0.106178
-0.102935
-0.0998458
-0.0968179
-0.0937322
-0.0904514
-0.0868261
-0.0826996
-0.0779118
-0.0723028
-0.0657169
-0.0580068
-0.0490396
-0.0387042
-0.0269211
-0.0136556
0.00106464
0.0171283
0.0343137
0.0522589
0.0704323
0.088109
0.104367
0.118108
0.128102
0.133206
0.132751
0.12481
0.105498
-0.13086
-0.143187
-0.148374
-0.149289
-0.147581
-0.143932
-0.139114
-0.133776
-0.128372
-0.12319
-0.118384
-0.114004
-0.110023