/*--------------------------------*- C++ -*----------------------------------*\
  =========                 |
  \\      /  F ield         | OpenFOAM: The Open Source CFD Toolbox
   \\    /   O peration     | Website:  https://openfoam.org
    \\  /    A nd           | Version:  9
     \\/     M anipulation  |
\*---------------------------------------------------------------------------*/
FoamFile
{
    format      ascii;
    class       surfaceScalarField;
    location    "1.3";
    object      phi;
}
// * * * * * * * * * * * * * * * * * * * * * * * * * * * * * * * * * * * * * //

dimensions      [0 3 -1 0 0 0 0];

internalField   nonuniform List<scalar> 
17280
(
6.33161e-10
-6.42285e-10
-3.17485e-12
9.7554e-10
-3.39484e-10
-2.82351e-12
4.34587e-10
5.38516e-10
2.46157e-12
-1.10212e-09
1.53014e-09
6.53777e-12
-3.56793e-09
2.45587e-09
9.91819e-12
-6.82146e-09
3.24067e-09
1.28581e-11
-1.06959e-08
3.85921e-09
1.52366e-11
-1.50224e-08
4.30957e-09
1.69955e-11
-1.96403e-08
4.59972e-09
1.81486e-11
-2.44004e-08
4.74142e-09
1.87334e-11
-2.91666e-08
4.74738e-09
1.87871e-11
-3.38148e-08
4.62989e-09
1.83494e-11
-3.82326e-08
4.40036e-09
1.74638e-11
-4.2318e-08
4.06919e-09
1.61726e-11
-4.59786e-08
3.64609e-09
1.45139e-11
-4.91315e-08
3.14035e-09
1.25244e-11
-5.17031e-08
2.56141e-09
1.02423e-11
-5.36301e-08
1.9193e-09
7.70837e-12
-5.48602e-08
1.2251e-09
4.96722e-12
-5.53537e-08
4.91382e-10
2.06868e-12
-5.50852e-08
-2.67555e-10
-9.30111e-13
-5.40457e-08
-1.03548e-09
-3.9639e-12
-5.22445e-08
-1.79427e-09
-6.96011e-12
-4.97106e-08
-2.52405e-09
-9.8402e-12
-4.64945e-08
-3.20359e-09
-1.25207e-11
-4.26687e-08
-3.81083e-09
-1.49148e-11
-3.83282e-08
-4.3236e-09
-1.69346e-11
-3.35893e-08
-4.72041e-09
-1.84952e-11
-2.85884e-08
-4.98145e-09
-1.95188e-11
-2.3479e-08
-5.08948e-09
-1.99392e-11
-1.84284e-08
-5.03085e-09
-1.97053e-11
-1.36132e-08
-4.79645e-09
-1.87862e-11
-9.21328e-09
-4.38271e-09
-1.71764e-11
-5.40542e-09
-3.79296e-09
-1.49005e-11
-2.35371e-09
-3.03969e-09
-1.20197e-11
-1.95597e-10
-2.14944e-09
-8.68097e-12
9.83543e-10
-1.17399e-09
-5.15897e-12
1.19648e-09
-2.11897e-10
-1.04656e-12
6.52228e-10
5.4064e-10
3.59871e-12
6.52207e-10
2.70058e-14
3.51895e-10
-9.95363e-10
1.26302e-12
-4.93856e-10
5.06726e-10
-4.49004e-13
-3.32522e-09
3.37212e-09
-2.27464e-12
-8.36363e-09
6.57381e-09
-5.28912e-12
-1.55203e-08
9.62125e-09
-8.66472e-12
-2.45311e-08
1.22632e-08
-1.1763e-11
-3.50446e-08
1.4387e-08
-1.42954e-11
-4.66766e-08
1.59578e-08
-1.6195e-11
-5.90398e-08
1.69804e-08
-1.74627e-11
-7.17602e-08
1.748e-08
-1.81244e-11
-8.44857e-08
1.7491e-08
-1.82276e-11
-9.68887e-08
1.70508e-08
-1.78247e-11
-1.08668e-07
1.61969e-08
-1.69644e-11
-1.19549e-07
1.4966e-08
-1.56917e-11
-1.29283e-07
1.33936e-08
-1.40494e-11
-1.37646e-07
1.15155e-08
-1.20778e-11
-1.44443e-07
9.36824e-09
-9.81604e-12
-1.49507e-07
6.99116e-09
-7.30542e-12
-1.52705e-07
4.42734e-09
-4.5924e-12
-1.53937e-07
1.72491e-09
-1.73009e-12
-1.53144e-07
-1.06211e-09
1.22205e-12
-1.5031e-07
-3.87344e-09
4.1993e-12
-1.45468e-07
-6.64271e-09
7.13122e-12
-1.38704e-07
-9.2981e-09
9.94145e-12
-1.30157e-07
-1.17638e-08
1.25476e-11
-1.20021e-07
-1.39617e-08
1.48631e-11
-1.08547e-07
-1.58143e-08
1.68e-11
-9.60383e-08
-1.72472e-08
1.82738e-11
-8.28461e-08
-1.81928e-08
1.9208e-11
-6.93618e-08
-1.85933e-08
1.95374e-11
-5.60067e-08
-1.84051e-08
1.92119e-11
-4.32192e-08
-1.76022e-08
1.81995e-11
-3.14382e-08
-1.61803e-08
1.64926e-11
-2.10822e-08
-1.41631e-08
1.4119e-11
-1.25229e-08
-1.16101e-08
1.11583e-11
-6.04849e-09
-8.63162e-09
7.74692e-12
-1.8095e-09
-5.41711e-09
4.16441e-12
2.60186e-10
-2.2829e-09
1.35461e-12
5.53618e-10
2.46863e-10
3.4848e-13
1.20926e-09
-3.40088e-12
-5.07521e-10
-4.84981e-10
-2.86975e-12
-3.3486e-09
3.34588e-09
1.87778e-12
-9.13261e-09
9.15616e-09
-7.41673e-14
-1.80158e-08
1.54572e-08
-2.01948e-13
-2.98434e-08
2.14488e-08
-4.37525e-14
-4.42564e-08
2.66764e-08
-2.10176e-13
-6.07785e-08
3.09096e-08
-4.00481e-13
-7.88765e-08
3.40563e-08
-5.60908e-13
-9.79999e-08
3.61044e-08
-6.93972e-13
-1.17606e-07
3.70868e-08
-7.85262e-13
-1.37174e-07
3.70602e-08
-8.3247e-13
-1.56215e-07
3.60926e-08
-8.40471e-13
-1.74274e-07
3.42566e-08
-8.12951e-13
-1.90933e-07
3.16259e-08
-7.53382e-13
-2.05814e-07
2.82749e-08
-6.66429e-13
-2.18577e-07
2.42794e-08
-5.56897e-13
-2.28927e-07
1.97189e-08
-4.28679e-13
-2.36615e-07
1.46786e-08
-2.85303e-13
-2.41439e-07
9.25184e-09
-1.31272e-13
-2.43256e-07
3.5421e-09
2.7573e-14
-2.41983e-07
-2.33548e-09
1.85237e-13
-2.37603e-07
-8.25361e-09
3.36937e-13
-2.30173e-07
-1.40733e-08
4.79301e-13
-2.19826e-07
-1.96456e-08
6.0925e-13
-2.06777e-07
-2.48139e-08
7.2289e-13
-1.9132e-07
-2.94187e-08
8.15328e-13
-1.73834e-07
-3.33019e-08
8.81403e-13
-1.54769e-07
-3.63133e-08
9.16793e-13
-1.34645e-07
-3.83175e-08
9.1881e-13
-1.14038e-07
-3.92007e-08
8.86392e-13
-9.35652e-08
-3.88791e-08
8.19373e-13
-7.38616e-08
-3.73066e-08
7.18432e-13
-5.55578e-08
-3.44846e-08
5.87763e-13
-3.92482e-08
-3.04732e-08
4.36777e-13
-2.54523e-08
-2.54062e-08
2.70966e-13
-1.45674e-08
-1.95166e-08
1.24312e-13
-6.80784e-09
-1.31768e-08
1.61353e-13
-2.12903e-09
-6.96191e-09
1.69786e-13
-1.43308e-10
-1.73828e-09
-6.26517e-13
1.06494e-09
1.01228e-12
-1.51687e-09
1.03873e-09
-6.87628e-12
-6.67745e-09
8.50116e-09
5.27707e-12
-1.57358e-08
1.82143e-08
2.37035e-13
-2.86608e-08
2.83821e-08
5.70213e-14
-4.51675e-08
3.79546e-08
9.59853e-13
-6.47864e-08
4.6294e-08
1.21399e-12
-8.693e-08
5.30518e-08
1.35432e-12
-1.10947e-07
5.80716e-08
1.46413e-12
-1.3616e-07
6.13167e-08
1.5151e-12
-1.61898e-07
6.2823e-08
1.52476e-12
-1.87509e-07
6.2669e-08
1.50333e-12
-2.12373e-07
6.09558e-08
1.45287e-12
-2.35914e-07
5.77963e-08
1.37696e-12
-2.57599e-07
5.33091e-08
1.279e-12
-2.76942e-07
4.76169e-08
1.15985e-12
-2.93511e-07
4.08473e-08
1.01918e-12
-3.06928e-07
3.3135e-08
8.57601e-13
-3.16875e-07
2.46251e-08
6.77192e-13
-3.231e-07
1.54765e-08
4.80321e-13
-3.25422e-07
5.8644e-09
2.68772e-13
-3.23741e-07
-4.01723e-09
4.43938e-14
-3.18039e-07
-1.39555e-08
-1.89797e-13
-3.08392e-07
-2.37192e-08
-4.28821e-13
-2.94975e-07
-3.3062e-08
-6.66297e-13
-2.78062e-07
-4.17264e-08
-8.95215e-13
-2.58028e-07
-4.94509e-08
-1.10833e-12
-2.35351e-07
-5.59778e-08
-1.2982e-12
-2.106e-07
-6.10633e-08
-1.45689e-12
-1.84427e-07
-6.44885e-08
-1.57578e-12
-1.57554e-07
-6.60718e-08
-1.64602e-12
-1.3075e-07
-6.56815e-08
-1.66017e-12
-1.04806e-07
-6.32495e-08
-1.61308e-12
-8.05025e-08
-5.87864e-08
-1.4988e-12
-5.85755e-08
-5.23989e-08
-1.31437e-12
-3.96692e-08
-4.43114e-08
-1.0872e-12
-2.42877e-08
-3.48974e-08
-7.66814e-13
-1.27377e-08
-2.47268e-08
2.01025e-16
-5.06898e-09
-1.46307e-08
4.51744e-14
-1.02148e-09
-5.78251e-09
-3.27207e-12
3.8638e-11
4.82573e-12
-2.52646e-09
3.57569e-09
-1.05241e-11
-1.00898e-08
1.60553e-08
9.19704e-12
-2.25321e-08
3.06564e-08
2.23008e-13
-3.9566e-08
4.54168e-08
-7.87906e-13
-6.07277e-08
5.91161e-08
1.26742e-13
-8.54109e-08
7.09771e-08
1.30628e-13
-1.12913e-07
8.05537e-08
5.87896e-14
-1.42474e-07
8.76327e-08
3.9286e-14
-1.73312e-07
9.21546e-08
1.24357e-14
-2.04648e-07
9.4159e-08
-1.1088e-14
-2.35726e-07
9.37467e-08
-2.4502e-14
-2.65824e-07
9.10544e-08
-3.01783e-14
-2.94267e-07
8.62394e-08
-2.77811e-14
-3.20429e-07
7.94711e-08
-1.63951e-14
-3.4374e-07
7.09278e-08
2.1841e-15
-3.63691e-07
6.07976e-08
2.44909e-14
-3.79836e-07
4.92803e-08
4.7895e-14
-3.91803e-07
3.65921e-08
7.14279e-14
-3.99296e-07
2.29695e-08
9.45313e-14
-4.02104e-07
8.6727e-09
1.1558e-13
-4.0011e-07
-6.01179e-09
1.31847e-13
-3.93295e-07
-2.07706e-08
1.40632e-13
-3.81749e-07
-3.52651e-08
1.40354e-13
-3.65676e-07
-4.91353e-08
1.3081e-13
-3.45396e-07
-6.20068e-08
1.12937e-13
-3.21347e-07
-7.34996e-08
8.82951e-14
-2.94084e-07
-8.32409e-08
5.85317e-14
-2.64269e-07
-9.08782e-08
2.53674e-14
-2.32661e-07
-9.60963e-08
-8.71644e-15
-2.00099e-07
-9.86345e-08
-4.01031e-14
-1.67475e-07
-9.83052e-08
-6.53344e-14
-1.3571e-07
-9.50141e-08
-8.2186e-14
-1.05716e-07
-8.87803e-08
-8.51455e-14
-7.83551e-08
-7.97598e-08
-7.27516e-14
-5.43944e-08
-6.8272e-08
-9.26776e-14
-3.44579e-08
-5.48339e-08
-4.56063e-14
-1.89783e-08
-4.02072e-08
6.97704e-13
-8.15305e-09
-2.54559e-08
1.98973e-14
-1.91914e-09
-1.20097e-08
-6.71309e-12
-1.88853e-09
8.02184e-12
-3.48341e-09
7.07322e-09
-1.41209e-11
-1.34095e-08
2.59683e-08
1.31069e-11
-2.92163e-08
4.64626e-08
5.08173e-13
-5.03328e-08
6.65344e-08
-1.0511e-12
-7.60857e-08
8.48689e-08
1.40334e-13
-1.0571e-07
1.00601e-07
1.30467e-13
-1.38376e-07
1.1322e-07
3.84138e-14
-1.73216e-07
1.22473e-07
3.18911e-14
-2.09351e-07
1.28289e-07
1.98691e-14
-2.45909e-07
1.30718e-07
8.61006e-15
-2.82048e-07
1.29886e-07
4.96503e-15
-3.16963e-07
1.2597e-07
5.65971e-15
-3.49899e-07
1.19175e-07
1.09278e-14
-3.80154e-07
1.09726e-07
2.23533e-14
-4.07091e-07
9.78647e-08
3.89977e-14
-4.30138e-07
8.38442e-08
5.79985e-14
-4.48796e-07
6.79379e-08
7.68986e-14
-4.62645e-07
5.04412e-08
9.46475e-14
-4.71353e-07
3.16772e-08
1.10675e-13
-4.74681e-07
1.20008e-08
1.23545e-13
-4.72494e-07
-8.1984e-09
1.30813e-13
-4.6477e-07
-2.84953e-08
1.30078e-13
-4.51603e-07
-4.84318e-08
1.2007e-13
-4.33217e-07
-6.75219e-08
1.01097e-13
-4.09963e-07
-8.52608e-08
7.48857e-14
-3.82326e-07
-1.01137e-07
4.39224e-14
-3.50919e-07
-1.14648e-07
1.05201e-14
-3.16478e-07
-1.25319e-07
-2.36384e-14
-2.79849e-07
-1.32726e-07
-5.6727e-14
-2.41966e-07
-1.36517e-07
-8.55785e-14
-2.03833e-07
-1.36438e-07
-1.06192e-13
-1.66486e-07
-1.32361e-07
-1.1525e-13
-1.30959e-07
-1.24307e-07
-1.06249e-13
-9.82427e-08
-1.12476e-07
-8.21899e-14
-6.92356e-08
-9.7279e-08
-1.17978e-13
-4.47021e-08
-7.93673e-08
-7.6469e-14
-2.52307e-08
-5.96795e-08
9.27208e-13
-1.12017e-08
-3.94847e-08
-2.14985e-13
-2.77938e-09
-2.04218e-08
-1.01559e-11
-4.67924e-09
1.13267e-11
-4.37606e-09
1.14668e-08
-1.75789e-11
-1.65731e-08
3.81486e-08
1.68002e-11
-3.56577e-08
6.55464e-08
8.11333e-13
-6.07731e-08
9.1651e-08
-1.24626e-12
-9.10223e-08
1.15118e-07
2.22023e-13
-1.25466e-07
1.35045e-07
2.07299e-13
-1.63138e-07
1.50891e-07
1.01287e-13
-2.03058e-07
1.62393e-07
1.10609e-13
-2.44253e-07
1.69484e-07
1.14777e-13
-2.85767e-07
1.72232e-07
1.16124e-13
-3.26682e-07
1.708e-07
1.21745e-13
-3.66122e-07
1.6541e-07
1.273e-13
-4.03268e-07
1.5632e-07
1.32425e-13
-4.37358e-07
1.43816e-07
1.38948e-13
-4.67698e-07
1.28205e-07
1.4675e-13
-4.93666e-07
1.09812e-07
1.53873e-13
-5.14719e-07
8.89901e-08
1.58356e-13
-5.30396e-07
6.61182e-08
1.59227e-13
-5.40331e-07
4.16126e-08
1.56035e-13
-5.4426e-07
1.59297e-08
1.47923e-13
-5.42028e-07
-1.04306e-08
1.33431e-13
-5.336e-07
-3.69234e-08
1.11142e-13
-5.1907e-07
-6.29621e-08
8.03546e-14
-4.98667e-07
-8.7925e-08
4.14627e-14
-4.72762e-07
-1.11166e-07
-3.91303e-15
-4.4187e-07
-1.32029e-07
-5.30634e-14
-4.06648e-07
-1.49869e-07
-1.0278e-13
-3.6789e-07
-1.64078e-07
-1.50064e-13
-3.2651e-07
-1.74105e-07
-1.92142e-13
-2.83533e-07
-1.79494e-07
-2.25494e-13
-2.40059e-07
-1.79912e-07
-2.4558e-13
-1.97238e-07
-1.75182e-07
-2.47711e-13
-1.56228e-07
-1.65316e-07
-2.23863e-13
-1.18156e-07
-1.50548e-07
-1.82398e-13
-8.40694e-08
-1.31366e-07
-2.26617e-13
-5.48932e-08
-1.08543e-07
-1.80726e-13
-3.13961e-08
-8.31777e-08
1.09232e-12
-1.41625e-08
-5.67178e-08
-4.74067e-13
-3.59084e-09
-3.098e-08
-1.34707e-11
-8.28461e-09
1.45225e-11
-5.20909e-09
1.66968e-08
-2.08549e-11
-1.95718e-08
5.2491e-08
2.02569e-11
-4.18197e-08
8.77933e-08
1.09063e-12
-7.0821e-08
1.20654e-07
-1.45099e-12
-1.05452e-07
1.49749e-07
2.537e-13
-1.44592e-07
1.74184e-07
2.0899e-13
-1.8713e-07
1.93429e-07
6.69281e-14
-2.31971e-07
2.07234e-07
7.29081e-14
-2.78045e-07
2.15558e-07
7.93392e-14
-3.24319e-07
2.18506e-07
8.48369e-14
-3.69805e-07
2.16286e-07
9.65706e-14
-4.13568e-07
2.09173e-07
1.08813e-13
-4.54734e-07
1.97485e-07
1.19989e-13
-4.92491e-07
1.81574e-07
1.31422e-13
-5.26101e-07
1.61815e-07
1.43205e-13
-5.549e-07
1.38611e-07
1.53955e-13
-5.78306e-07
1.12395e-07
1.62015e-13
-5.95823e-07
8.36354e-08
1.66145e-13
-6.07055e-07
5.28439e-08
1.65416e-13
-6.11707e-07
2.05821e-08
1.58865e-13
-6.09603e-07
-1.2535e-08
1.45514e-13
-6.00688e-07
-4.58378e-08
1.24659e-13
-5.85046e-07
-7.86052e-08
9.59657e-14
-5.62899e-07
-1.10071e-07
5.94816e-14
-5.34625e-07
-1.39439e-07
1.58668e-14
-5.00755e-07
-1.65899e-07
-3.31515e-14
-4.61974e-07
-1.8865e-07
-8.46126e-14
-4.1912e-07
-2.06932e-07
-1.34792e-13
-3.73169e-07
-2.20055e-07
-1.79992e-13
-3.25223e-07
-2.2744e-07
-2.16698e-13
-2.76479e-07
-2.28656e-07
-2.41213e-13
-2.28201e-07
-2.2346e-07
-2.48777e-13
-1.81679e-07
-2.11837e-07
-2.29083e-13
-1.3819e-07
-1.94037e-07
-1.93449e-13
-9.89471e-08
-1.70609e-07
-2.71568e-13
-6.50582e-08
-1.42432e-07
-2.48726e-13
-3.74925e-08
-1.10745e-07
1.26073e-12
-1.70513e-08
-7.71583e-08
-7.29253e-13
-4.36431e-09
-4.36503e-08
-1.66619e-11
-1.26665e-08
1.76155e-11
-5.99193e-09
2.27127e-08
-2.39634e-11
-2.24189e-08
6.88945e-08
2.34987e-11
-4.77103e-08
1.13083e-07
1.35833e-12
-8.04736e-08
1.53419e-07
-1.63226e-12
-1.19363e-07
1.88637e-07
2.95486e-13
-1.63073e-07
2.17894e-07
2.2013e-13
-2.10346e-07
2.40702e-07
4.04059e-14
-2.59967e-07
2.56856e-07
3.93959e-14
-3.10774e-07
2.66365e-07
4.44088e-14
-3.61656e-07
2.69388e-07
5.06013e-14
-4.11562e-07
2.66192e-07
6.5497e-14
-4.59503e-07
2.57114e-07
8.23558e-14
-5.0456e-07
2.42542e-07
9.84855e-14
-5.45882e-07
2.22895e-07
1.14516e-13
-5.82692e-07
1.98625e-07
1.30505e-13
-6.14291e-07
1.70211e-07
1.45605e-13
-6.40064e-07
1.38168e-07
1.58671e-13
-6.59485e-07
1.03056e-07
1.6832e-13
-6.72125e-07
6.54834e-08
1.72816e-13
-6.77661e-07
2.61173e-08
1.70333e-13
-6.75885e-07
-1.43108e-08
1.59598e-13
-6.66719e-07
-5.50041e-08
1.4035e-13
-6.50221e-07
-9.51028e-08
1.13063e-13
-6.26601e-07
-1.33692e-07
7.83768e-14
-5.96224e-07
-1.69816e-07
3.68505e-14
-5.59624e-07
-2.02499e-07
-1.05897e-14
-5.17503e-07
-2.30771e-07
-6.19083e-14
-4.7073e-07
-2.53705e-07
-1.13709e-13
-4.20332e-07
-2.70452e-07
-1.61917e-13
-3.67483e-07
-2.80289e-07
-2.02869e-13
-3.13476e-07
-2.82663e-07
-2.3383e-13
-2.59694e-07
-2.77242e-07
-2.51016e-13
-2.07571e-07
-2.6396e-07
-2.42235e-13
-1.58549e-07
-2.43059e-07
-2.19451e-13
-1.14025e-07
-2.15132e-07
-3.3514e-13
-7.53133e-08
-1.81143e-07
-3.35173e-13
-4.3601e-08
-1.42458e-07
1.41053e-12
-1.99171e-08
-1.00841e-07
-9.84478e-13
-5.1191e-09
-5.84286e-08
-1.97714e-11
-1.78063e-08
2.06766e-11
-6.73418e-09
2.94738e-08
-2.69292e-11
-2.51351e-08
8.72688e-08
2.65551e-11
-5.3355e-08
1.41302e-07
1.60772e-12
-8.97561e-08
1.89822e-07
-1.80144e-12
-1.32777e-07
2.31657e-07
3.40396e-13
-1.8093e-07
2.66047e-07
2.36904e-13
-2.32808e-07
2.9258e-07
2.10487e-14
-2.87081e-07
3.11128e-07
1.25023e-14
-3.42489e-07
3.21773e-07
1.50983e-14
-3.97848e-07
3.24747e-07
2.05851e-14
-4.5205e-07
3.20393e-07
3.70569e-14
-5.04059e-07
3.09123e-07
5.71788e-14
-5.52915e-07
2.91399e-07
7.73371e-14
-5.97736e-07
2.67716e-07
9.73468e-14
-6.37714e-07
2.38603e-07
1.16924e-13
-6.72123e-07
2.04619e-07
1.35613e-13
-7.00317e-07
1.66363e-07
1.53069e-13
-7.21742e-07
1.24481e-07
1.6835e-13
-7.35937e-07
7.9678e-08
1.79261e-13
-7.42545e-07
3.27257e-08
1.82802e-13
-7.41327e-07
-1.55296e-08
1.76542e-13
-7.32167e-07
-6.41643e-08
1.59737e-13
-7.15091e-07
-1.12179e-07
1.33264e-13
-6.90278e-07
-1.58505e-07
9.86952e-14
-6.58072e-07
-2.02022e-07
5.73425e-14
-6.18992e-07
-2.41578e-07
1.01102e-14
-5.73742e-07
-2.76021e-07
-4.18068e-14
-5.2321e-07
-3.04237e-07
-9.60124e-14
-4.68466e-07
-3.25196e-07
-1.48793e-13
-4.1075e-07
-3.38005e-07
-1.96257e-13
-3.51451e-07
-3.41962e-07
-2.35868e-13
-2.92078e-07
-3.36615e-07
-2.64682e-13
-2.34219e-07
-3.21818e-07
-2.69442e-13
-1.79497e-07
-2.97781e-07
-2.62703e-13
-1.29519e-07
-2.65109e-07
-4.1793e-13
-8.58225e-08
-2.24839e-07
-4.3935e-13
-4.98344e-08
-1.78448e-07
1.5503e-12
-2.28237e-08
-1.27851e-07
-1.23889e-12
-5.87731e-09
-7.53521e-08
-2.28737e-11
-2.37074e-08
2.37813e-11
-7.44406e-09
3.69476e-08
-2.97725e-11
-2.77407e-08
1.07536e-07
2.94617e-11
-5.87838e-08
1.72343e-07
1.83896e-12
-9.87028e-08
2.29743e-07
-1.96591e-12
-1.45728e-07
2.78682e-07
3.8175e-13
-1.98194e-07
3.18513e-07
2.51659e-13
-2.54548e-07
3.48934e-07
3.65089e-16
-3.13339e-07
3.6992e-07
-1.6586e-14
-3.73218e-07
3.81652e-07
-1.73669e-14
-4.3293e-07
3.84459e-07
-1.36975e-14
-4.91311e-07
3.78775e-07
3.16804e-15
-5.47287e-07
3.65099e-07
2.56527e-14
-5.99865e-07
3.43977e-07
4.94661e-14
-6.48136e-07
3.15987e-07
7.35799e-14
-6.91269e-07
2.81736e-07
9.70022e-14
-7.28516e-07
2.41865e-07
1.19148e-13
-7.59206e-07
1.97053e-07
1.40318e-13
-7.82757e-07
1.48032e-07
1.60516e-13
-7.98677e-07
9.55978e-08
1.7799e-13
-8.06574e-07
4.06225e-08
1.89218e-13
-8.06167e-07
-1.59371e-08
1.90495e-13
-7.97298e-07
-7.30338e-08
1.7974e-13
-7.79947e-07
-1.29529e-07
1.57084e-13
-7.54251e-07
-1.84202e-07
1.24189e-13
-7.20514e-07
-2.35759e-07
8.29917e-14
-6.79227e-07
-2.82865e-07
3.49051e-14
-6.31079e-07
-3.24169e-07
-1.90124e-14
-5.76963e-07
-3.58353e-07
-7.7086e-14
-5.1798e-07
-3.84179e-07
-1.36223e-13
-4.5543e-07
-4.00554e-07
-1.92477e-13
-3.90798e-07
-4.06594e-07
-2.43009e-13
-3.25722e-07
-4.01691e-07
-2.84924e-13
-2.61959e-07
-3.85582e-07
-3.03844e-13
-2.0133e-07
-3.58409e-07
-3.13802e-13
-1.45672e-07
-3.20767e-07
-5.1036e-13
-9.67732e-08
-2.73738e-07
-5.53971e-13
-5.63202e-08
-2.18903e-07
1.6905e-12
-2.58408e-08
-1.58329e-07
-1.49687e-12
-6.66146e-09
-9.45053e-08
-2.60602e-11
-3.03958e-08
2.70078e-11
-8.12801e-09
4.51081e-08
-3.25132e-11
-3.02533e-08
1.29629e-07
3.22497e-11
-6.40238e-08
2.06111e-07
2.05675e-12
-1.07346e-07
2.73067e-07
-2.12568e-12
-1.58249e-07
3.29585e-07
4.21535e-13
-2.14895e-07
3.75158e-07
2.66571e-13
-2.75584e-07
4.09623e-07
-1.95314e-14
-3.38753e-07
4.33089e-07
-4.57981e-14
-4.02963e-07
4.45861e-07
-5.10335e-14
-4.66891e-07
4.48388e-07
-5.04738e-14
-5.29327e-07
4.41211e-07
-3.47204e-14
-5.8916e-07
4.24932e-07
-1.12975e-14
-6.45375e-07
4.00191e-07
1.51718e-14
-6.97041e-07
3.67653e-07
4.30759e-14
-7.43314e-07
3.28009e-07
7.0618e-14
-7.83427e-07
2.81977e-07
9.64857e-14
-8.16691e-07
2.30317e-07
1.20902e-13
-8.42498e-07
1.73839e-07
1.44639e-13
-8.60326e-07
1.13425e-07
1.67048e-13
-8.69744e-07
5.00401e-08
1.85209e-13
-8.70425e-07
-1.52565e-08
1.94984e-13
-8.62159e-07
-8.12996e-08
1.92977e-13
-8.44871e-07
-1.46817e-07
1.77679e-13
-8.18638e-07
-2.10434e-07
1.49488e-13
-7.83711e-07
-2.70687e-07
1.09888e-13
-7.40533e-07
-3.26043e-07
6.05867e-14
-6.8976e-07
-3.74943e-07
3.12983e-15
-6.32274e-07
-4.15839e-07
-6.06591e-14
-5.69192e-07
-4.47261e-07
-1.2789e-13
-5.01867e-07
-4.6788e-07
-1.94706e-13
-4.31872e-07
-4.76589e-07
-2.5806e-13
-3.6098e-07
-4.72582e-07
-3.14616e-13
-2.91126e-07
-4.55436e-07
-3.48099e-13
-2.2435e-07
-4.25185e-07
-3.74165e-13
-1.6274e-07
-3.82376e-07
-6.12796e-13
-1.08361e-07
-3.28115e-07
-6.78667e-13
-6.31905e-08
-2.64075e-07
1.83791e-12
-2.90392e-08
-1.92478e-07
-1.76559e-12
-7.49363e-09
-1.16021e-07
-2.94257e-11
-3.79199e-08
3.04378e-11
-8.79078e-09
5.3934e-08
-3.51707e-11
-3.26864e-08
1.5349e-07
3.49427e-11
-6.90969e-08
2.42519e-07
2.26427e-12
-1.15713e-07
3.19685e-07
-2.28177e-12
-1.70367e-07
3.84238e-07
4.5997e-13
-2.31049e-07
4.3584e-07
2.81952e-13
-2.95923e-07
4.74497e-07
-3.81782e-14
-3.6331e-07
5.00476e-07
-7.44297e-14
-4.31687e-07
5.14238e-07
-8.50491e-14
-4.99672e-07
5.16372e-07
-8.88057e-14
-5.6601e-07
5.07549e-07
-7.57689e-14
-6.29565e-07
4.88487e-07
-5.32458e-14
-6.89303e-07
4.59929e-07
-2.58666e-14
-7.44286e-07
4.22636e-07
4.67054e-15
-7.93659e-07
3.77383e-07
3.61614e-14
-8.36647e-07
3.24965e-07
6.63843e-14
-8.72547e-07
2.66217e-07
9.46567e-14
-9.00731e-07
2.02023e-07
1.21624e-13
-9.20648e-07
1.33342e-07
1.47516e-13
-9.31826e-07
6.1218e-08
1.70687e-13
-9.33889e-07
-1.31938e-08
1.87765e-13
-9.26567e-07
-8.86219e-08
1.95039e-13
-9.09716e-07
-1.63668e-07
1.89518e-13
-8.83341e-07
-2.36809e-07
1.69485e-13
-8.4762e-07
-3.06408e-07
1.34523e-13
-8.02929e-07
-3.70734e-07
8.54597e-14
-7.4987e-07
-4.28002e-07
2.41088e-14
-6.89292e-07
-4.76416e-07
-4.69198e-14
-6.22312e-07
-5.14241e-07
-1.24171e-13
-5.50317e-07
-5.39874e-07
-2.03569e-13
-4.74966e-07
-5.5194e-07
-2.81931e-13
-3.98164e-07
-5.49383e-07
-3.55356e-13
-3.22031e-07
-5.31568e-07
-4.04915e-13
-2.48844e-07
-4.98371e-07
-4.47385e-13
-1.80969e-07
-4.50251e-07
-7.29268e-13
-1.2078e-07
-3.88304e-07
-8.16237e-13
-7.05766e-08
-3.14281e-07
1.99812e-12
-3.24888e-08
-2.30564e-07
-2.05228e-12
-8.39516e-09
-1.40082e-07
-3.30626e-11
-4.63492e-08
3.41553e-11
-9.43579e-09
6.34075e-08
-3.77604e-11
-3.50505e-08
1.79067e-07
3.75589e-11
-7.40199e-08
2.81486e-07
2.46427e-12
-1.23822e-07
3.6949e-07
-2.43535e-12
-1.82095e-07
4.42511e-07
4.96068e-13
-2.46663e-07
5.00408e-07
2.96251e-13
-3.15549e-07
5.43383e-07
-5.72704e-14
-3.86969e-07
5.71896e-07
-1.03974e-13
-4.59318e-07
5.86588e-07
-1.20634e-13
-5.31159e-07
5.88214e-07
-1.29572e-13
-6.01205e-07
5.77594e-07
-1.20508e-13
-6.68298e-07
5.5558e-07
-1.00617e-13
-7.31401e-07
5.23032e-07
-7.44522e-14
-7.89573e-07
4.80808e-07
-4.33486e-14
-8.41963e-07
4.29772e-07
-9.15253e-15
-8.87794e-07
3.70796e-07
2.55342e-14
-9.26359e-07
3.04782e-07
5.88369e-14
-9.57015e-07
2.32679e-07
9.02759e-14
-9.79184e-07
1.5551e-07
1.1992e-13
-9.92356e-07
7.43905e-08
1.47015e-13
-9.96103e-07
-9.44759e-09
1.69488e-13
-9.90087e-07
-9.46381e-08
1.8459e-13
-9.74086e-07
-1.79669e-07
1.89048e-13
-9.48016e-07
-2.62879e-07
1.79533e-13
-9.11964e-07
-3.4246e-07
1.5299e-13
-8.66216e-07
-4.16482e-07
1.07777e-13
-8.11295e-07
-4.82923e-07
4.45702e-14
-7.47994e-07
-5.39717e-07
-3.36813e-14
-6.77402e-07
-5.84833e-07
-1.22543e-13
-6.00924e-07
-6.16352e-07
-2.17082e-13
-5.20285e-07
-6.32578e-07
-3.13552e-13
-4.37522e-07
-6.32146e-07
-4.0716e-13
-3.54943e-07
-6.14147e-07
-4.75725e-13
-2.75077e-07
-5.78236e-07
-5.36648e-13
-2.00595e-07
-5.24732e-07
-8.64727e-13
-1.34217e-07
-4.54682e-07
-9.71291e-13
-7.86063e-08
-3.69893e-07
2.17481e-12
-3.62579e-08
-2.7291e-07
-2.36511e-12
-9.38676e-09
-1.66916e-07
-3.70591e-11
-5.57742e-08
3.82461e-11
-1.00657e-08
7.35135e-08
-4.03156e-11
-3.73539e-08
2.06315e-07
4.01107e-11
-7.88064e-08
3.22936e-07
2.66059e-12
-1.31688e-07
4.22373e-07
-2.58514e-12
-1.93443e-07
5.04266e-07
5.30964e-13
-2.61728e-07
5.68693e-07
3.09299e-13
-3.34431e-07
6.16086e-07
-7.78437e-14
-4.09662e-07
6.47127e-07
-1.35812e-13
-4.85743e-07
6.62669e-07
-1.59307e-13
-5.61188e-07
6.6366e-07
-1.74155e-13
-6.34685e-07
6.51092e-07
-1.69876e-13
-7.05071e-07
6.25966e-07
-1.53776e-13
-7.71311e-07
5.89272e-07
-1.30659e-13
-8.32478e-07
5.41975e-07
-1.01466e-13
-8.87733e-07
4.85028e-07
-6.70176e-14
-9.36313e-07
4.19376e-07
-2.93001e-14
-9.77515e-07
3.45983e-07
9.22448e-15
-1.01069e-06
2.65854e-07
4.66695e-14
-1.03524e-06
1.8006e-07
8.19218e-14
-1.05062e-06
8.97705e-08
1.13942e-13
-1.05635e-06
-3.72043e-09
1.41245e-13
-1.05201e-06
-9.89714e-08
1.62381e-13
-1.03731e-06
-1.94374e-07
1.75004e-13
-1.01205e-06
-2.8814e-07
1.75835e-13
-9.76201e-07
-3.78306e-07
1.60069e-13
-9.29945e-07
-4.62739e-07
1.22918e-13
-8.73693e-07
-5.39174e-07
6.21336e-14
-8.0815e-07
-6.0526e-07
-2.07119e-14
-7.34348e-07
-6.58635e-07
-1.20953e-13
-6.53681e-07
-6.9702e-07
-2.32591e-13
-5.6792e-07
-7.18338e-07
-3.50673e-13
-4.79216e-07
-7.20849e-07
-4.68852e-13
-3.90068e-07
-7.03293e-07
-5.60884e-13
-3.03272e-07
-6.65032e-07
-6.44355e-13
-2.21829e-07
-6.06173e-07
-1.0243e-12
-1.48845e-07
-5.27665e-07
-1.15014e-12
-8.74019e-08
-4.31339e-07
2.36869e-12
-4.04126e-08
-3.19897e-07
-2.71448e-12
-1.04887e-08
-1.96798e-07
-4.15013e-11
-6.63056e-08
4.27968e-11
-1.06828e-08
8.42388e-08
-4.2501e-11
-3.96046e-08
2.35194e-07
4.26047e-11
-8.34695e-08
3.66798e-07
2.85971e-12
-1.39324e-07
4.78231e-07
-2.72719e-12
-2.04416e-07
5.69357e-07
5.68231e-13
-2.76232e-07
6.40509e-07
3.22858e-13
-3.52524e-07
6.92377e-07
-9.96251e-14
-4.313e-07
7.25904e-07
-1.70661e-13
-5.10815e-07
7.42184e-07
-2.02562e-13
-5.89544e-07
7.42389e-07
-2.24541e-13
-6.6616e-07
7.27708e-07
-2.25802e-13
-7.39507e-07
6.99313e-07
-2.13989e-13
-8.08568e-07
6.58333e-07
-1.94748e-13
-8.72443e-07
6.05851e-07
-1.69215e-13
-9.30323e-07
5.42908e-07
-1.37194e-13
-9.81471e-07
4.70524e-07
-9.92538e-14
-1.0252e-06
3.89713e-07
-5.73026e-14
-1.06087e-06
3.01523e-07
-1.3889e-14
-1.08787e-06
2.07061e-07
2.86217e-14
-1.10563e-06
1.07531e-07
6.80736e-14
-1.11362e-06
4.26415e-09
1.02341e-13
-1.11135e-06
-1.01243e-07
1.29606e-13
-1.09841e-06
-2.07308e-07
1.4888e-13
-1.07451e-06
-3.1204e-07
1.58173e-13
-1.03949e-06
-4.13328e-07
1.52871e-13
-9.93376e-07
-5.08853e-07
1.26188e-13
-9.36448e-07
-5.96102e-07
7.22951e-14
-8.69284e-07
-6.72424e-07
-1.05545e-14
-7.9282e-07
-7.35099e-07
-1.19362e-13
-7.084e-07
-7.8144e-07
-2.48038e-13
-6.17811e-07
-8.08927e-07
-3.90408e-13
-5.23296e-07
-8.15364e-07
-5.37953e-13
-4.27537e-07
-7.99052e-07
-6.59361e-13
-3.33601e-07
-7.58967e-07
-7.71754e-13
-2.44853e-07
-6.94921e-07
-1.21269e-12
-1.64826e-07
-6.0769e-07
-1.36028e-12
-9.70791e-08
-4.99088e-07
2.57752e-12
-4.50171e-08
-3.71956e-07
-3.11359e-12
-1.17209e-08
-2.30048e-07
-4.64745e-11
-7.80744e-08
4.78933e-11
-1.129e-08
9.55741e-08
-4.52421e-11
-4.18128e-08
2.65672e-07
4.51198e-11
-8.80264e-08
4.13009e-07
3.07376e-12
-1.4675e-07
5.36957e-07
-2.85515e-12
-2.15025e-07
6.37631e-07
6.12708e-13
-2.90163e-07
7.15646e-07
3.39479e-13
-3.69778e-07
7.71992e-07
-1.21777e-13
-4.5178e-07
8.07906e-07
-2.08893e-13
-5.34361e-07
8.24765e-07
-2.51851e-13
-6.15968e-07
8.23997e-07
-2.83166e-13
-6.95275e-07
8.07015e-07
-2.91301e-13
-7.71146e-07
7.75183e-07
-2.84085e-13
-8.426e-07
7.29787e-07
-2.68454e-13
-9.08782e-07
6.72033e-07
-2.46686e-13
-9.68931e-07
6.03058e-07
-2.18394e-13
-1.02235e-06
5.23945e-07
-1.82803e-13
-1.0684e-06
4.35758e-07
-1.40458e-13
-1.10644e-06
3.39569e-07
-9.33538e-14
-1.13589e-06
2.36505e-07
-4.40936e-14
-1.15613e-06
1.2778e-07
4.38671e-15
-1.16661e-06
1.47414e-08
4.86714e-14
-1.16677e-06
-1.0109e-07
8.52899e-14
-1.15609e-06
-2.17985e-07
1.12745e-13
-1.13415e-06
-3.33976e-07
1.29909e-13
-1.10065e-06
-4.46833e-07
1.33677e-13
-1.05544e-06
-5.54061e-07
1.17391e-13
-9.9863e-07
-6.52913e-07
7.28231e-14
-9.30628e-07
-7.40427e-07
-5.7683e-15
-8.52226e-07
-8.13501e-07
-1.19001e-13
-7.64671e-07
-8.68994e-07
-2.62618e-13
-6.6972e-07
-9.03877e-07
-4.30366e-13
-5.69674e-07
-9.15409e-07
-6.11705e-13
-4.67377e-07
-9.01348e-07
-7.69315e-13
-3.66172e-07
-8.60171e-07
-9.1912e-13
-2.69807e-07
-7.91284e-07
-1.43393e-12
-1.82297e-07
-6.95199e-07
-1.60956e-12
-1.07746e-07
-5.73641e-07
2.79737e-12
-5.0134e-08
-4.29565e-07
-3.578e-12
-1.31034e-08
-2.67027e-07
-5.20673e-11
-9.12314e-08
5.36213e-11
-1.1892e-08
1.07514e-07
-4.76513e-11
-4.39939e-08
2.97726e-07
4.76219e-11
-9.25039e-08
4.61515e-07
3.30404e-12
-1.53997e-07
5.98453e-07
-2.96839e-12
-2.25293e-07
7.08927e-07
6.6718e-13
-3.03519e-07
7.93872e-07
3.61009e-13
-3.86147e-07
8.54619e-07
-1.43811e-13
-4.70989e-07
8.92749e-07
-2.51013e-13
-5.56185e-07
9.09961e-07
-3.08435e-13
-6.40165e-07
9.07977e-07
-3.52061e-13
-7.21618e-07
8.88469e-07
-3.69212e-13
-7.99447e-07
8.53013e-07
-3.67389e-13
-8.72731e-07
8.03071e-07
-3.54754e-13
-9.40678e-07
7.39981e-07
-3.35383e-13
-1.0026e-06
6.64977e-07
-3.09887e-13
-1.05786e-06
5.79207e-07
-2.77163e-13
-1.10587e-06
4.83768e-07
-2.36599e-13
-1.14605e-06
3.7975e-07
-1.88934e-13
-1.17782e-06
2.68272e-07
-1.35753e-13
-1.20057e-06
1.50538e-07
-7.94062e-14
-1.21371e-06
2.78806e-08
-2.37376e-14
-1.21662e-06
-9.81859e-08
2.61794e-14
-1.20868e-06
-2.25921e-07
6.6286e-14
-1.18934e-06
-3.53314e-07
9.42911e-14
-1.15813e-06
-4.7805e-07
1.0782e-13
-1.1147e-06
-5.97488e-07
1.01485e-13
-1.05895e-06
-7.08661e-07
6.66269e-14
-9.91075e-07
-8.08302e-07
-5.50426e-15
-9.11668e-07
-8.92908e-07
-1.19853e-13
-8.21816e-07
-9.58846e-07
-2.75834e-13
-7.23186e-07
-1.00251e-06
-4.69039e-13
-6.18087e-07
-1.02051e-06
-6.88033e-13
-5.09492e-07
-1.00994e-06
-8.89155e-13
-4.01008e-07
-9.68653e-07
-1.08659e-12
-2.96788e-07
-8.95502e-07
-1.69186e-12
-2.01377e-07
-7.90609e-07
-1.90592e-12
-1.19504e-07
-6.55517e-07
3.02364e-12
-5.58245e-08
-4.9324e-07
-4.12537e-12
-1.46568e-08
-3.08136e-07
-5.83738e-11
-1.05948e-07
6.00669e-11
-1.24959e-08
1.2006e-07
-5.01082e-11
-4.61724e-08
3.31352e-07
5.01619e-11
-9.69446e-08
5.12284e-07
3.56032e-12
-1.61118e-07
6.6263e-07
-3.0639e-12
-2.35268e-07
7.83077e-07
7.35195e-13
-3.16322e-07
8.74925e-07
3.89112e-13
-4.016e-07
9.39898e-07
-1.65867e-13
-4.88822e-07
9.79972e-07
-2.98149e-13
-5.76081e-07
9.9722e-07
-3.73677e-13
-6.61807e-07
9.93704e-07
-4.32486e-13
-7.44724e-07
9.71386e-07
-4.60938e-13
-8.23797e-07
9.32087e-07
-4.65837e-13
-8.98185e-07
8.77459e-07
-4.5605e-13
-9.67189e-07
8.08986e-07
-4.37369e-13
-1.03021e-06
7.28e-07
-4.12132e-13
-1.08671e-06
6.35708e-07
-3.8022e-13
-1.13618e-06
5.33237e-07
-3.4099e-13
-1.1781e-06
4.21669e-07
-2.94346e-13
-1.21193e-06
3.02104e-07
-2.40389e-13
-1.2371e-06
1.75704e-07
-1.7958e-13
-1.25297e-06
4.37565e-08
-1.14319e-13
-1.25889e-06
-9.22688e-08
-4.98866e-14
-1.25415e-06
-2.3066e-07
7.17498e-15
-1.23806e-06
-3.69408e-07
5.15309e-14
-1.20996e-06
-5.06154e-07
7.91533e-14
-1.16929e-06
-6.3815e-07
8.48895e-14
-1.11571e-06
-7.62244e-07
6.04781e-14
-1.04913e-06
-8.74879e-07
-4.29446e-15
-9.6989e-07
-9.7215e-07
-1.18105e-13
-8.78839e-07
-1.0499e-06
-2.84922e-13
-7.77482e-07
-1.10386e-06
-5.03977e-13
-6.68064e-07
-1.12992e-06
-7.64687e-13
-5.53631e-07
-1.12437e-06
-1.01745e-12
-4.38031e-07
-1.08425e-06
-1.27475e-12
-3.25831e-07
-1.0077e-06
-1.99102e-12
-2.22153e-07
-8.94284e-07
-2.25817e-12
-1.32443e-07
-7.4523e-07
3.25099e-12
-6.21489e-08
-5.63529e-07
-4.77621e-12
-1.64021e-08
-3.53817e-07
-6.54965e-11
-1.22418e-07
6.73198e-11
-1.31131e-08
1.33225e-07
-5.26408e-11
-4.83862e-08
3.66573e-07
5.28081e-11
-1.01416e-07
5.6531e-07
3.85984e-12
-1.68199e-07
7.29416e-07
-3.13641e-12
-2.45036e-07
8.59912e-07
8.21831e-13
-3.28627e-07
9.58516e-07
4.2565e-13
-4.16136e-07
1.02741e-06
-1.88882e-13
-5.05187e-07
1.06902e-06
-3.52674e-13
-5.9384e-07
1.08587e-06
-4.49992e-13
-6.80543e-07
1.08041e-06
-5.25819e-13
-7.64079e-07
1.05492e-06
-5.66639e-13
-8.43504e-07
1.01151e-06
-5.79024e-13
-9.18084e-07
9.5204e-07
-5.72229e-13
-9.87243e-07
8.78145e-07
-5.53103e-13
-1.0505e-06
7.91262e-07
-5.25486e-13
-1.10745e-06
6.92654e-07
-4.90867e-13
-1.15768e-06
5.83463e-07
-4.49829e-13
-1.20076e-06
4.64753e-07
-4.02688e-13
-1.23623e-06
3.37577e-07
-3.48829e-13
-1.26356e-06
2.03029e-07
-2.86677e-13
-1.28212e-06
6.23178e-08
-2.15789e-13
-1.29121e-06
-8.31722e-08
-1.39413e-13
-1.29007e-06
-2.31804e-07
-6.4508e-14
-1.27786e-06
-3.81621e-07
6.76041e-16
-1.25374e-06
-5.30275e-07
4.86176e-14
-1.21692e-06