/*--------------------------------*- C++ -*----------------------------------*\
  =========                 |
  \\      /  F ield         | OpenFOAM: The Open Source CFD Toolbox
   \\    /   O peration     | Website:  https://openfoam.org
    \\  /    A nd           | Version:  9
     \\/     M anipulation  |
\*---------------------------------------------------------------------------*/
FoamFile
{
    format      ascii;
    class       volScalarField;
    location    "4.41";
    object      alpha.water;
}
// * * * * * * * * * * * * * * * * * * * * * * * * * * * * * * * * * * * * * //

dimensions      [0 0 0 0 0 0 0];

internalField   nonuniform List<scalar> 
2268
(
1
1
0.999999
0.999999
0.999999
0.999999
1
0.999999
0.999998
0.999999
1
1
1
1
1
1
1
0.999593
0.999592
0.997497
0.996097
0.99558
0.995483
0.999999
0.999999
0.999998
0.999998
1
0.999999
0.999998
0.999998
0.999998
0.999999
1
1
1
1
1
1
0.999967
0.998099
0.988193
0.997983
0.999994
0.999995
0.998795
0.999998
0.999998
0.999998
0.999999
1
0.999999
1
0.999999
1
1
1
1
1
1
1
1
0.99858
0.983422
0.979804
0.983141
0.996249
0.999995
0.999995
0.999999
0.999999
0.999999
1
1
0.999999
1
1
1
1
1
1
1
1
1
1
0.999589
0.979804
0.979804
0.979804
0.989572
0.999992
0.999969
1
1
1
1
1
1
1
1
1
1
1
1
1
1
1
1
1
0.990905
0.979804
0.979809
0.995622
0.999995
0.999954
1
1
1
1
1
1
1
1
1
1
1
1
1
1
1
1
1
0.999989
0.990591
0.992728
0.999653
0.999996
0.999954
1
1
1
1
1
1
1
1
1
1
1
1
1
1
1
1
0.999999
0.999999
0.999999
0.999996
0.999997
0.999997
0.999985
1
1
1
1
1
1
1
1
1
1
1
1
1
1
0.999999
0.999999
0.999999
0.999999
0.999999
0.999999
0.999999
0.999998
0.999998
0.989786
0.990386
0.991216
0.990661
0.990658
0.990658
0.990658
0.991884
0.998567
0.998648
0.997265
0.99568
0.96595
0.965919
0.988238
0.997096
0.998461
0.988368
0.967792
0.989786
0.999505
0.999957
0.999555
0.99959
0.998944
0.998057
0.998655
0.998826
0.998648
0.995739
0.981079
0.960551
0.970523
0.998461
0.998461
0.998461
0.998461
0.968158
0.995925
0.999792
0.999957
0.999949
0.999868
0.999887
0.999887
0.999402
0.998133
0.996674
0.976534
0.960513
0.960527
0.988312
0.998461
0.998461
0.998461
0.995738
0.961778
0.999815
0.999815
0.99994
0.999959
0.999933
0.999963
0.999505
0.997064
0.997021
0.994341
0.960513
0.960512
0.960511
0.997214
0.99846
0.998461
0.998461
0.9942
0.961712
0.999742
0.999742
0.999912
0.999965
0.999965
0.999965
0.998876
0.99671
0.997453
0.997065
0.97349
0.960513
0.967366
0.998461
0.998461
0.998461
0.998462
0.998414
0.961708
0.999786
0.999951
0.999969
0.999964
0.99993
0.999922
0.999515
0.998871
0.999156
0.999048
0.994261
0.984571
0.995781
0.998461
0.998461
0.998357
0.991659
0.987191
0.961711
0.999963
0.999975
0.999979
0.999926
0.999771
0.999771
0.999932
0.999977
0.999886
0.998879
0.998053
0.998339
0.998462
0.998462
0.998461
0.998286
0.973804
0.96123
0.965838
0.999984
0.999984
0.999984
0.999983
0.999982
0.999982
0.999982
0.999982
0.998293
0.993332
0.993541
0.998205
0.998462
0.998461
0.998461
0.99846
0.975586
0.957782
0.983981
1
1
1
1
1
1
1
1
0.999999
1
1
1
1
1
1
1
1
1
1
1
1
1
1
0.949253
0.948832
0.951255
0.954122
0.957648
0.961704
0.966302
0.971528
0.977536
0.984127
0.991302
0.995704
0.999773
1
1
1
1
1
1
1
1
1
1
0.262073
0.266419
0.271267
0.278272
0.286863
0.297126
0.308909
0.321378
0.334796
0.34891
0.363763
0.380753
0.396334
0.416345
0.43625
0.456162
0.477857
0.496168
0.510236
0.518765
0.522281
0.525779
0.530652
0.00182061
0.00182017
0.0018195
0.00182017
0.00182059
0.0018217
0.00182395
0.00182609
0.00183074
0.00183726
0.00184184
0.00184491
0.00415479
0.00463723
0.00534681
0.00573191
0.00508824
0.00498969
0.00593644
0.00791321
0.0092872
0.00950082
0.00877718
0.0018394
0.00184202
0.00181903
0.0018195
0.00250221
0.00323594
0.00329952
0.00549111
0.00629246
0.00629426
0.0062948
0.00629426
0.00614317
0.00641655
0.00641645
0.00574024
0.00247471
0.00247531
0.00247431
0.00250614
0.00407811
0.0037243
0.00152924
0.00168828
0.00183292
0.00182028
0.00182378
0.00189454
0.00199241
0.00245958
0.00176718
0.00200783
0.00251791
0.00307696
0.00347767
0.00354994
0.00367595
0.00353209
0.00372396
0.00328382
0.00312024
0.00304935
0.00197147
0.00166539
0.0018026
0.000307735
0.000826565
0.000685507
0.000766624
0.000789192
0.000552813
0.000274807
0.000117157
0.00011301
2.96481e-09
3.04754e-09
3.13433e-09
3.131e-09
3.16733e-09
3.77093e-09
6.60066e-05
0.00038319
0.000613531
0.000582203
0.000548466
0.000451746
0.000235338
0.000316087
0.000307737
1.41758e-09
1.47643e-09
1.53528e-09
2.99948e-05
1.06741e-05
1.65492e-05
1.8841e-05
1.22497e-09
2.94489e-09
1.14008e-08
1.1613e-08
4.92612e-08
8.5639e-07
2.15867e-06
8.0944e-07
1.07468e-07
5.8511e-05
0.000269818
0.000375682
0.000301997
0.000217552
0.000216883
0.000409439
1.41758e-09
1.45196e-08
2.85044e-08
5.41348e-10
5.41098e-10
5.41099e-10
5.41099e-10
1.22102e-09
4.22709e-08
1.21265e-08
1.595e-08
1.96956e-06
4.7948e-06
4.69146e-06
3.85488e-07
9.85805e-08
3.59916e-06
6.81224e-05
0.00023258
0.000303102
0.000223889
0.000214795
0.000390778
1.41758e-09
1.45521e-07
1.84824e-07
4.99707e-08
6.80675e-10
5.41098e-10
5.41099e-10
1.0182e-09
6.97885e-09
2.25851e-07
1.21012e-06
2.42298e-06
3.43131e-06
2.1356e-06
1.91985e-07
9.8282e-08
3.43747e-07
5.82939e-08
6.2974e-06
3.98358e-05
5.93496e-05
2.89131e-05
2.51129e-05
1.41759e-09
1.4275e-07
1.81593e-07
3.97322e-08
5.413e-10
5.41099e-10
5.413e-10
5.51232e-08
1.45487e-06
2.28778e-06
2.28785e-06
1.20047e-06
4.26298e-09
1.43798e-08
1.06768e-08
6.8299e-09
1.12584e-10
4.24482e-09
5.17741e-08
1.47478e-07
1.70595e-07
1.55766e-07
1.06997e-07
1.85818e-09
4.71152e-09
1.60462e-08
6.06321e-09
1.33559e-09
6.4614e-10
1.01945e-09
5.41759e-07
2.2873e-06
2.28787e-06
1.45651e-06
7.43913e-10
4.25557e-09
4.15289e-09
2.204e-10
8.17476e-11
9.19707e-11
1.13296e-10
1.35604e-06
5.05855e-06
6.12321e-06
4.97861e-06
1.05781e-06
1.51528e-09
4.66454e-10
4.59532e-11
4.46051e-11
1.18557e-09
3.63449e-09
9.15259e-09
3.38733e-07
6.62515e-07
4.19262e-07
5.1854e-08
7.35383e-10
6.27962e-09
3.79051e-09
8.17476e-11
8.1426e-11
7.66091e-11
1.9257e-08
3.99396e-06
6.70965e-06
6.70965e-06
6.70965e-06
4.70892e-06
5.59925e-08
1.43741e-07
1.78859e-08
4.29941e-11
1.02943e-09
5.84005e-09
1.4427e-08
1.51829e-08
1.12442e-09
1.53854e-10
8.45626e-11
7.36864e-10
1.92311e-09
6.70644e-10
8.94223e-11
9.58176e-11
6.8343e-11
9.90233e-10
3.27945e-07
3.68527e-06
6.70965e-06
6.48244e-06
6.64905e-07
1.3438e-07
2.72871e-07
3.69146e-08
4.13065e-11
1.21501e-09
2.4656e-09
2.44439e-09
8.47786e-10
3.38796e-10
7.17805e-11
2.59171e-11
5.4683e-11
3.89821e-11
3.22564e-11
5.75379e-11
6.50614e-11
6.04623e-11
7.13096e-11
3.56551e-10
5.91119e-08
4.06563e-07
3.39277e-07
1.78104e-08
1.70417e-07
2.72999e-07
4.78685e-08
4.04599e-11
6.09743e-10
7.5231e-10
4.5358e-10
2.07577e-10
9.6471e-11
2.18509e-11
3.77979e-12
5.47456e-13
1.7262e-13
1.91918e-12
1.22638e-11
2.8323e-11
5.59459e-11
7.78611e-11
8.14813e-11
1.01089e-10
9.38165e-11
7.05695e-11
1.33803e-09
1.83314e-07
2.73097e-07
4.31042e-08
4.01857e-11
2.09761e-10
2.13373e-10
7.48025e-11
2.65677e-11
7.68089e-12
1.35747e-12
0
-8.09033e-13
-8.0002e-13
-2.92471e-13
3.44324e-13
5.98763e-12
3.41289e-11
7.5956e-11
9.90647e-11
1.0047e-10
8.81369e-11
5.93487e-11
3.02123e-11
2.4897e-07
2.73255e-07
6.89539e-08
4.01218e-11
5.28117e-11
5.18131e-11
9.04781e-12
8.34236e-13
4.03897e-31
-9.15716e-13
-1.60266e-12
-1.94468e-12
-1.84699e-12
-1.46112e-12
-8.17612e-13
8.41267e-14
3.34714e-12
1.83964e-11
3.84716e-11
4.94297e-11
5.03835e-11
4.41764e-11
2.1834e-11
2.77866e-07
2.77866e-07
8.59324e-08
4.00676e-11
4.00335e-11
3.2962e-11
1.47252e-12
-2.31399e-13
-1.05806e-12
-1.72828e-12
-2.1043e-12
-2.242e-12
-2.14447e-12
-1.88728e-12
-1.51681e-12
-1.04832e-12
-4.27899e-13
2.0381e-13
1.32029e-12
3.71875e-12
6.08714e-12
7.26921e-12
6.02243e-12
2.60038e-07
2.77725e-07
5.80981e-08
4.01218e-11
6.90919e-11
3.92025e-11
1.63192e-12
-3.22205e-13
-9.58387e-13
-1.46439e-12
-1.72917e-12
-1.82883e-12
-1.78383e-12
-1.63029e-12
-1.40572e-12
-1.145e-12
-8.7476e-13
-6.09691e-13
-3.54889e-13
-5.80092e-14
2.45895e-14
7.31063e-14
1.87825e-13
1.01231e-07
2.41467e-07
4.35844e-11
4.34909e-11
2.09023e-10
5.53046e-11
3.70345e-12
4.04944e-13
-2.38484e-13
-6.54871e-13
-9.04867e-13
-1.06133e-12
-1.12243e-12
-1.08866e-12
-9.8207e-13
-8.36679e-13
-6.8159e-13
-5.33364e-13
-4.02141e-13
-2.88544e-13
-1.96382e-13
-1.23488e-13
-6.12968e-14
3.1798e-09
4.15467e-08
1.86152e-10
2.49164e-10
3.13052e-10
9.1915e-11
1.02687e-11
4.80202e-12
2.41003e-12
6.47598e-13
-7.45806e-14
-3.35019e-13
-4.86927e-13
-5.55101e-13
-5.53106e-13
-5.01754e-13
-4.25539e-13
-3.43055e-13
-2.66944e-13
-2.02667e-13
-1.50398e-13
-1.07528e-13
-7.11739e-14
8.07696e-11
5.39525e-11
2.26577e-10
3.50942e-10
3.21755e-10
9.50426e-11
2.27546e-11
1.55265e-11
1.07073e-11
5.66723e-12
2.17561e-12
4.47469e-13
-5.99031e-14
-1.92974e-13
-2.46807e-13
-2.51955e-13
-2.27816e-13
-1.89557e-13
-1.49537e-13
-1.14218e-13
-8.57612e-14
-6.35083e-14
-4.51191e-14
8.09462e-11
5.30212e-11
2.01254e-10
3.39145e-10
2.6911e-10
8.12084e-11
3.72657e-11
3.01037e-11
2.31975e-11
1.49018e-11
7.22164e-12
2.49557e-12
4.94073e-13
-8.5587e-15
-8.27561e-14
-1.06089e-13
-1.06652e-13
-9.26699e-14
-7.40518e-14
-5.63029e-14
-4.17362e-14
-3.07228e-14
-2.23818e-14
9.09809e-11
5.30064e-11
9.31594e-11
1.778e-10
1.45347e-10
6.23615e-11
4.87518e-11
4.35646e-11
3.51935e-11
2.53148e-11
1.4091e-11
5.61756e-12
1.37477e-12
1.47447e-13
-1.84495e-14
-3.81727e-14
-4.51036e-14
-4.1224e-14
-3.32744e-14
-2.49659e-14
-1.79813e-14
-1.28001e-14
-9.23761e-15
2.35905e-10
5.27738e-11
5.27741e-11
5.28049e-11
5.52801e-11
5.39564e-11
5.37097e-11
5.33821e-11
4.46356e-11
3.4052e-11
2.07315e-11
8.74729e-12
2.08212e-12
2.03e-13
-2.59195e-15
-1.28983e-14
-1.79731e-14
-1.71345e-14
-1.38576e-14
-1.02081e-14
-7.10064e-15
-4.79515e-15
-3.28941e-15
1.44329e-09
5.27741e-11
5.2774e-11
5.27741e-11
5.2775e-11
5.2777e-11
5.37484e-11
5.65167e-11
5.12153e-11
3.97665e-11
2.47504e-11
1.00498e-11
2.09551e-12
1.55592e-13
-2.7811e-16
-4.57241e-15
-6.90804e-15
-6.73703e-15
-5.46021e-15
-3.94431e-15
-2.63642e-15
-1.67561e-15
-1.05442e-15
3.17273e-09
1.06969e-07
5.95535e-07
4.02023e-07
9.24865e-09
5.25793e-11
5.25826e-11
5.65228e-11
5.31076e-11
4.15334e-11
2.55303e-11
9.67171e-12
1.58485e-12
6.91046e-14
-8.25972e-17
-1.7661e-15
-2.63033e-15
-2.56116e-15
-2.03885e-15
-1.42862e-15
-9.15386e-16
-5.49376e-16
-3.15827e-16
3.49041e-09
2.78858e-07
8.41427e-07
8.41448e-07
1.89798e-07
5.25776e-11
5.25755e-11
5.62988e-11
5.21434e-11
4.0576e-11
2.36775e-11
7.64643e-12
8.74841e-13
2.10466e-14
-2.15583e-17
-6.72994e-16
-9.74334e-16
-9.27832e-16
-7.18596e-16
-4.87848e-16
-3.01144e-16
-1.72993e-16
-9.41458e-17
3.45092e-09
2.26387e-07
8.41448e-07
8.41448e-07
2.81804e-07
5.25755e-11
5.25741e-11
5.45564e-11
4.8949e-11
3.62447e-11
1.87532e-11
4.6923e-12
3.38738e-13
3.9764e-15
-2.92427e-18
-2.68535e-16
-3.58637e-16
-3.24688e-16
-2.41569e-16
-1.57553e-16
-9.31271e-17
-5.10285e-17
-2.62978e-17
3.45091e-09
6.1852e-08
8.38236e-07
7.57184e-07
1.556e-07
1.60856e-10
5.15914e-11
5.12711e-11
4.31411e-11
2.90373e-11
1.23182e-11
2.09726e-12
8.15019e-14
3.76633e-16
-1.83149e-17
-1.1358e-16
-1.30081e-16
-1.0956e-16
-7.71307e-17
-4.77781e-17
-2.67956e-17
-1.38642e-17
-6.71033e-18
3.45092e-09
4.30831e-09
1.41328e-07
8.11758e-08
9.5275e-09
1.47186e-10
5.69471e-11
4.63317e-11
3.5104e-11
2.01938e-11
6.19149e-12
5.96294e-13
1.02052e-14
1.71269e-17
-2.4865e-17
-4.54392e-17
-4.5447e-17
-3.52269e-17
-2.31353e-17
-1.34175e-17
-7.04206e-18
-3.40141e-18
-1.53134e-18
3.45481e-09
2.81086e-09
8.94364e-10
2.24842e-10
7.86778e-11
7.86551e-11
5.25823e-11
3.81517e-11
2.50689e-11
1.10118e-11
2.01915e-12
8.67318e-14
5.13526e-16
2.34382e-19
-1.28035e-17
-1.71047e-17
-1.50017e-17
-1.05813e-17
-6.40093e-18
-3.43092e-18
-1.66357e-18
-7.40619e-19
-3.06315e-19
3.33398e-09
3.06444e-09
1.13701e-09
4.03542e-10
1.40358e-10
6.26378e-11
3.96664e-11
2.61579e-11
1.37929e-11
3.87914e-12
3.33819e-13
5.00369e-15
7.87107e-18
-1.74861e-18
-5.77315e-18
-5.93647e-18
-4.56725e-18
-2.90906e-18
-1.60272e-18
-7.84036e-19
-3.46596e-19
-1.40272e-19
-5.25342e-20
2.05226e-09
2.36108e-09
1.317e-09
5.63493e-10
1.83788e-10
5.72062e-11
2.638e-11
1.34393e-11
4.73018e-12
6.67181e-13
2.08578e-14
9.1474e-17
3.49014e-20
-1.58519e-18
-2.24096e-18
-1.87674e-18
-1.26309e-18
-7.19319e-19
-3.56448e-19
-1.56994e-19
-6.2366e-20
-2.25919e-20
-7.53491e-21
4.60564e-10
8.05117e-10
7.51956e-10
4.19144e-10
1.46753e-10
4.0068e-11
1.28566e-11
4.18549e-12
7.67043e-13
4.16787e-14
3.93089e-16
4.47172e-19
-2.45907e-19
-7.99338e-19
-7.94242e-19
-5.45562e-19
-3.1486e-19
-1.57766e-19
-6.92255e-20
-2.70148e-20
-9.48191e-21
-3.01827e-21
-8.78584e-22
1.99231e-11
6.5922e-11
1.29777e-10
1.07415e-10
4.96466e-11
1.359e-11
3.18089e-12
5.84869e-13
4.55829e-14
8.11945e-16
2.39025e-18
7.0892e-22
-2.35135e-19
-3.38577e-19
-2.62771e-19
-1.47786e-19
-7.08166e-20
-3.04472e-20
-1.15799e-20
-3.92297e-21
-1.19095e-21
-3.2541e-22
-8.05586e-23
1.01255e-13
7.71886e-13
3.81042e-12
5.3956e-12
3.73697e-12
1.28568e-12
2.59379e-13
2.75889e-14
9.11626e-16
6.1775e-18
5.05716e-21
-4.67764e-20
-1.26243e-19
-1.29334e-19
-8.23973e-20
-3.80224e-20
-1.44951e-20
-5.17521e-21
-1.6549e-21
-4.73027e-22
-1.20618e-22
-2.73834e-23
-5.56137e-24
1.00612e-16
1.41784e-15
1.42766e-14
3.69026e-14
4.00124e-14
2.11078e-14
4.7259e-15
3.7373e-16
7.51279e-18
2.66372e-20
-1.29131e-21
-3.63485e-20
-5.58879e-20
-4.6015e-20
-2.48354e-20
-9.57209e-21
-2.89314e-21
-7.9927e-22
-2.03635e-22
-4.68433e-23
-9.56898e-24
-1.71379e-24
-2.6994e-25
6.50867e-20
2.13281e-18
1.73175e-17
5.70927e-17
7.60673e-17
6.06293e-17
1.87329e-17
1.72151e-18
3.75962e-20
8.8336e-23
-7.34434e-21
-1.91871e-20
-2.22339e-20
-1.55436e-20
-7.28126e-21
-2.40131e-21
-5.84063e-22
-1.17932e-22
-2.20903e-23
-3.7608e-24
-5.64461e-25
-7.25403e-26
-8.02085e-27
9.39971e-25
2.72775e-21
3.77084e-20
1.3707e-19
1.57362e-19
1.27567e-19
4.63778e-20
5.58642e-21
9.22147e-23
-1.01032e-21
-4.96382e-21
-8.56447e-21
-8.23809e-21
-5.05558e-21
-2.1019e-21
-6.07634e-22
-1.22994e-22
-1.79454e-23
-2.21747e-24
-2.3861e-25
-2.18426e-26
-1.62609e-27
-1.01482e-28
-1.76167e-25
2.84055e-25
4.62458e-23
1.25148e-21
2.35518e-21
5.53181e-22
1.03264e-22
8.76297e-24
-1.28334e-22
-9.76405e-22
-2.53421e-21
-3.45779e-21
-2.89869e-21
-1.60427e-21
-6.07539e-22
-1.59156e-22
-2.84315e-23
-3.3315e-24
-2.52052e-25
-1.19896e-26
-3.4243e-28
-6.74459e-30
-1.0786e-31
1
1
1
1
1
1
1
1
0.523485
0.516655
0.508574
0.498969
0.00852371
0.00794678
0.00675833
0.0054615
0.00197971
0.0028208
0.00212178
0.00113065
0.000732054
0.00279206
0.00160432
0.0011638
0.000307729
0.00100627
0.00101183
0.000461354
0.000816992
0.000856597
0.000572463
7.74241e-05
0.000393591
0.000170512
8.12949e-05
7.2108e-06
3.07531e-06
1.24542e-07
1.33576e-06
2.71974e-06
2.40226e-08
4.22438e-08
2.62535e-07
3.00847e-07
2.40169e-08
2.40172e-08
2.74462e-08
5.02099e-08
2.40169e-08
2.40165e-08
2.40321e-08
5.47875e-08
2.40165e-08
3.44062e-08
2.4206e-08
2.81554e-08
1.01027e-07
1.01463e-07
6.27234e-08
9.49075e-09
2.03449e-08
3.15741e-08
2.13307e-08
9.42727e-09
1.17832e-11
5.3488e-11
7.42853e-10
2.42435e-09
9.41205e-12
5.69803e-12
4.32718e-12
1.14367e-11
4.05223e-12
3.11861e-12
2.49751e-12
2.16019e-12
2.85674e-13
3.43335e-13
4.16467e-13
4.53649e-13
-1.18755e-14
4.19509e-16
2.94967e-15
6.28606e-15
-4.11721e-14
-3.17683e-14
-2.47914e-14
-1.96003e-14
-2.87441e-14
-2.28864e-14
-1.84077e-14
-1.51876e-14
-1.50822e-14
-1.19911e-14
-9.4585e-15
-7.59562e-15
-6.5006e-15
-5.1599e-15
-3.99222e-15
-3.03118e-15
-2.38551e-15
-1.87594e-15
-1.44711e-15
-1.06344e-15
-7.79069e-16
-5.9255e-16
-4.48393e-16
-3.33363e-16
-2.33811e-16
-1.70293e-16
-1.2287e-16
-8.82667e-17
-6.71016e-17
-4.67722e-17
-3.20806e-17
-2.17484e-17
-1.79665e-17
-1.19625e-17
-7.79718e-18
-4.98975e-18
-4.37582e-18
-2.77695e-18
-1.71989e-18
-1.04133e-18
-9.47438e-19
-5.69645e-19
-3.33597e-19
-1.90505e-19
-1.78114e-19
-1.00476e-19
-5.51061e-20
-2.94158e-20
-2.83612e-20
-1.48204e-20
-7.51327e-21
-3.69963e-21
-3.71965e-21
-1.77211e-21
-8.16793e-22
-3.64762e-22
-3.88974e-22
-1.65561e-22
-6.79359e-23
-2.69256e-23
-3.11694e-23
-1.15389e-23
-4.10031e-24
-1.402e-24
-1.81291e-24
-5.62272e-25
-1.66553e-25
-4.72682e-26
-7.00573e-26
-1.72041e-26
-4.01574e-27
-8.94445e-28
-1.50248e-27
-2.6573e-28
-4.45845e-29
-7.12554e-30
-1.1149e-29
-1.16894e-30
-1.17272e-31
-1.12757e-32
-3.32234e-33
-1.06794e-34
-3.52882e-36
-1.16878e-37
1
1
1
1
0.990402
0.982862
0.979453
0.979658
0.985708
0.993399
0.99815
0.99834
0.998462
0.998461
0.99846
0.998146
0.984695
0.957662
0.983981
1
0.990884
0.981094
0.971919
0.964226
0.954244
0.939165
0.922582
0.912826
0.917118
0.92347
0.924683
0.914496
0.893825
0.88136
0.893105
0.918244
0.939644
0.943807
0.480059
0.458243
0.443731
0.43242
0.422885
0.413945
0.406756
0.396571
0.378257
0.349848
0.322733
0.300284
0.283015
0.270703
0.25795
0.242651
0.235797
0.233001
0.221328
0.00373976
0.00249726
0.00182368
0.00139848
0.0011944
0.000850226
0.000543324
0.000428427
0.00042794
0.000427441
0.000426999
0.000426582
0.000426265
0.000425666
0.000425162
0.00042519
0.000425162
0.000425274
0.000425812
0.000698356
0.000688184
0.000681382
0.000679011
0.000712814
0.00188296
0.00154102
0.00131002
0.00121651
0.00119468
0.00116138
0.00112714
0.00111713
0.00120567
0.00135472
0.00102933
0.000725006
0.000735763
0.000673277
0.000997348
0.00112935
0.00112425
0.000679011
0.0014592
0.00188325
0.00188325
0.00188325
0.00188323
0.0018829
0.00188212
0.00188094
0.00187939
0.00187746
0.00187469
0.00129085
0.00112358
0.00112304
0.001122
0.00100469
0.00114107
0.00114116
0.00114044
0.00113066
0.000722378
0.000447323
0.000420677
0.000384481
0.00033843
0.000322373
0.00029656
0.000265826
0.000262228
0.000301493
0.000490497
0.000687061
0.000590605
0.000527519
0.000296232
0.000434002
0.000392418
0.000417536
0.000178565
1.10344e-05
3.33202e-07
1.67387e-07
1.67296e-07
1.67286e-07
1.72119e-07
2.2095e-07
3.09084e-07
3.94688e-07
4.33575e-07
0.000122911
2.94066e-05
1.06176e-06
1.18238e-06
6.34544e-08
2.37389e-08
7.57193e-08
3.2862e-08
3.0821e-08
5.25426e-08
2.62746e-07
5.06332e-07
1.48123e-06
6.54765e-06
3.49519e-05
4.16672e-05
4.05256e-05
1.46765e-05
1.00773e-06
1.01437e-06
1.01858e-06
1.06053e-06
1.24938e-06
1.90162e-08
1.30637e-08
1.30597e-08
1.61765e-08
1.67461e-08
1.72898e-08
1.73874e-08
4.17186e-07
2.67144e-06
6.24781e-05
7.00034e-05
7.00034e-05
4.95964e-05
6.22638e-06
1.43196e-06
1.01859e-06
1.02309e-06
1.31079e-06
1.57843e-06
3.35907e-08
1.30597e-08
1.30597e-08
1.30597e-08
5.06676e-06
1.21553e-05
3.70939e-06
1.2608e-06
4.93385e-05
6.99395e-05
6.61428e-05
2.01455e-05
1.33836e-05
2.19107e-05
2.28077e-05
1.8199e-05
1.27212e-05
6.41912e-06
2.65323e-06
5.37391e-08
1.30613e-08
1.30597e-08
6.88273e-06
2.17366e-05
2.17354e-05
1.09127e-05
1.4058e-05
6.67678e-05
6.46615e-05
4.35155e-06
1.04058e-05
3.06842e-05
4.44083e-05
4.44105e-05
4.43967e-05
4.43579e-05
3.83076e-05
1.6493e-05
5.48273e-08
1.3063e-08
1.27184e-07
1.418e-05
2.17366e-05
2.17368e-05
1.92077e-05
1.07778e-05
1.66346e-05
2.21541e-06
4.67085e-08
2.68359e-05
4.43621e-05
4.44096e-05
3.3927e-05
1.52689e-05
8.64704e-06
8.91498e-06
1.6814e-05
4.11496e-08
1.31122e-08
2.49477e-08
6.05201e-06
1.73496e-05
1.61284e-05
2.63109e-06
2.01011e-07
1.664e-10
1.66394e-10
2.29029e-08
8.33394e-06
3.2006e-05
1.78295e-05
1.59527e-10
1.59584e-10
1.666e-10
7.27971e-07
8.44344e-06
2.16658e-08
8.9317e-08
9.492e-08
1.18796e-07
7.05337e-07
5.66436e-07
1.64245e-10
1.61942e-10
1.66083e-10
2.37949e-10
3.55272e-07
9.47853e-07
1.59258e-10
1.59256e-10
1.59258e-10
1.6024e-10
1.46632e-07
5.92646e-06
1.63418e-05
1.88727e-08
5.76392e-08
6.84411e-08
6.22122e-08
6.13266e-08
1.18966e-08
1.6185e-10
1.6185e-10
1.61942e-10
6.11476e-09
3.30124e-08
4.18639e-10
4.18523e-10
1.59256e-10
1.59255e-10
1.59362e-10
1.27666e-08
9.22816e-06
1.69544e-05
2.89497e-09
1.87107e-09
2.84098e-08
2.44744e-07
3.01705e-07
2.1289e-07
1.6185e-10
1.6185e-10
1.65995e-10
6.76237e-10
1.89778e-09
3.32018e-09
2.35487e-09
1.59256e-10
1.68285e-10
1.68089e-10
6.42101e-11
2.64163e-06
1.69545e-05
1.70251e-12
1.18584e-12
4.51811e-09
1.907e-07
3.04188e-07
3.04199e-07
2.84859e-07
7.17436e-08
1.65656e-10
2.01276e-10
1.2062e-09
4.0083e-10
1.83007e-10
1.81912e-10
2.32338e-10
2.20118e-10
6.42101e-11
7.25226e-08
1.6954e-05
1.70118e-12
1.10951e-12
1.2833e-11
9.80594e-09
1.16291e-07
2.54376e-07
2.87608e-07
1.09346e-07
1.43347e-08
2.42237e-08
6.25949e-08
4.14124e-08
1.15063e-08
1.81913e-10
2.48398e-10
2.48407e-10
6.4427e-11
4.64717e-12
1.05662e-05
4.84058e-13
4.09749e-13
1.22019e-13
9.44454e-13
5.43106e-10
1.22362e-08
2.15329e-08
1.12214e-08
2.61311e-08
8.78229e-08
8.92531e-08
8.92531e-08
4.38226e-08
3.62748e-10
2.23444e-10
2.1545e-10
5.80808e-11
4.62818e-12
4.44382e-12
1.26626e-14
2.09728e-14
7.93832e-15
2.86414e-17
1.52291e-13
7.739e-14
2.8681e-14
2.21005e-13
8.17977e-10
1.86307e-08
4.93563e-08
5.05382e-08
1.25537e-08
8.89596e-10
1.623e-10
8.65523e-11
1.84242e-11
4.46281e-12
4.44283e-12
-1.54215e-14
-7.09804e-15
-3.2184e-15
-1.26188e-15
-5.04871e-32
4.03897e-31
2.49635e-14
2.20317e-13
2.20336e-13
2.20368e-13
2.20583e-13
2.20853e-13
2.21512e-13
2.16172e-11
4.09454e-11
2.41361e-11
7.32913e-12
4.46918e-12
4.4439e-12
-1.28538e-14
-7.99905e-15
-4.78979e-15
-2.73601e-15
-1.35062e-15
-4.22242e-16
4.67231e-16
1.96727e-14
2.69768e-13
1.15587e-12
6.31756e-13
1.3487e-12
3.90753e-12
5.14339e-12
4.50902e-12
5.02849e-12
4.07633e-12
4.07733e-12
4.78746e-12
-6.39005e-15
-4.18717e-15
-2.68722e-15
-1.68579e-15
-1.02328e-15
-5.80247e-16
-2.73284e-16
-8.22991e-18
5.83096e-15
8.90492e-14
3.94563e-13
1.19719e-12
2.54238e-12
1.88545e-12
1.38998e-12
2.69995e-12
2.7121e-12
8.24086e-11
5.32629e-11
-2.39424e-15
-1.55445e-15
-9.96516e-16
-6.26511e-16
-3.83326e-16
-2.36616e-16
-1.42112e-16
-7.46089e-17
-5.9982e-19
1.03446e-15
8.18998e-15
3.36455e-14
1.03825e-13
1.89596e-13
3.58842e-13
1.93334e-12
1.7869e-12
4.43779e-08
8.29762e-07
-7.40184e-16
-4.59436e-16
-2.78619e-16
-1.68351e-16
-1.02624e-16
-6.30055e-17
-3.81623e-17
-2.13428e-17
-7.10671e-18
3.16504e-17
2.86825e-16
1.45823e-15
6.53793e-15
2.77029e-14
1.62203e-13
1.78504e-12
1.78577e-12
2.08215e-07
1.14933e-05
-1.90483e-16
-1.11223e-16
-6.6664e-17
-3.99578e-17
-2.37582e-17
-1.39537e-17
-7.99457e-18
-4.049e-18
-6.6203e-19
9.7994e-18
7.5678e-17
4.74053e-16
3.00674e-15
1.72636e-14
1.36123e-13
2.18524e-12
1.7869e-12
2.205e-07
1.35281e-05
-4.52112e-17
-2.44334e-17
-1.35205e-17
-7.55974e-18
-4.21981e-18
-2.26302e-18
-1.15394e-18
-3.14506e-19
7.00854e-19
8.29308e-18
5.5568e-17
3.57666e-16
2.40417e-15
1.45962e-14
1.29488e-13
3.22946e-12
1.78804e-12
2.10361e-08
1.35287e-05
-9.97776e-18
-4.72972e-18
-2.3026e-18
-1.13425e-18
-5.41934e-19
-6.93406e-20
6.05499e-20
5.50521e-19
2.41542e-18
9.2759e-18
5.16798e-17
3.27865e-16
2.23365e-15
1.37081e-14
1.49342e-13
4.17656e-12
1.3722e-11
6.07455e-12
1.35251e-05
-2.05453e-18
-8.5017e-19
-3.53573e-19
-1.29906e-19
0
4.50838e-19
3.13209e-18
1.21042e-17
3.4387e-17
7.88502e-17
1.71304e-16
4.98158e-16
2.46222e-15
1.4047e-14
2.19708e-13
5.37452e-12
1.40288e-11
6.07247e-12
1.12796e-05
-3.89684e-19
-1.43261e-19
-4.94963e-20
3.5252e-21
5.77676e-19
4.7374e-18
2.50829e-17
1.0234e-16
3.28692e-16
8.36556e-16
1.77235e-15
3.67177e-15
9.83647e-15
3.54606e-14
3.26089e-13
5.47357e-12
1.40236e-11
6.06942e-12
1.02282e-05
-6.50781e-20
-2.15321e-20
-4.16446e-21
1.11194e-19
2.05573e-18
2.05557e-17
1.30679e-16
6.04958e-16
2.16462e-15
6.03215e-15
1.40475e-14
3.06858e-14
7.10514e-14
1.67183e-13
5.87843e-13
5.36394e-12
1.28304e-11
6.06755e-12
1.02287e-05
-9.10333e-21
-2.68165e-21
2.06195e-21
2.10474e-19
5.24426e-18
6.89088e-17
5.41502e-16
2.86805e-15
1.15688e-14
3.62597e-14
9.42518e-14
2.27243e-13
5.0071e-13
9.34165e-13
1.59459e-12
5.53811e-12
1.03781e-11
6.06658e-12
7.45621e-06
-1.02166e-21
-2.50413e-22
3.5355e-21
3.11442e-19
1.05067e-17
1.81589e-16
1.79812e-15
1.10699e-14
5.16957e-14
1.96205e-13
5.9722e-13
1.4577e-12
2.67929e-12
4.00019e-12
5.04504e-12
7.81822e-12
9.32091e-12
6.06707e-12
1.86048e-07
-8.81345e-23
-1.16406e-23
3.39469e-21
3.67123e-19
1.67135e-17
3.78147e-16
4.84397e-15
3.62856e-14
2.03263e-13
9.61643e-13
3.56288e-12
7.6991e-12
1.03618e-11
1.22031e-11
1.35426e-11
1.59863e-11
1.21947e-11
6.06658e-12
1.4685e-06
-5.55565e-24
2.81739e-24
1.87495e-21
3.68867e-19
2.10253e-17
6.05976e-16
1.05723e-14
1.06786e-13
7.417e-13
4.07388e-12
1.67401e-11
3.00771e-11
3.0668e-11
3.15224e-11
3.39917e-11
7.31529e-11
7.21714e-11
6.19316e-12
4.63913e-06
-2.39432e-25
1.93159e-24
8.47009e-22
2.20164e-19
2.18569e-17
7.31987e-16
1.78119e-14
2.72795e-13
2.29647e-12
1.30205e-11
4.89994e-11
7.73618e-11
7.53075e-11
7.75899e-11
1.19815e-10
5.86616e-10
6.04364e-10
6.27204e-12
4.63918e-06
-6.38488e-27
7.06602e-25
3.44163e-22
9.19718e-20
1.38049e-17
7.19764e-16
2.20181e-14
5.17388e-13
4.90177e-12
2.68379e-11
8.45363e-11
1.2798e-10
1.38187e-10
1.46427e-10
4.60146e-10
1.70578e-09
1.76506e-09
6.67172e-12
4.53692e-06
-8.6099e-29
1.64041e-25
8.12384e-23
3.31071e-20
5.63876e-18
3.39385e-16
2.12521e-14
6.62422e-13
6.587e-12
3.47941e-11
9.87239e-11
1.46019e-10
1.71926e-10
1.77601e-10
9.3654e-10
2.8652e-09
2.32982e-09
8.18194e-12
4.17016e-06
-1.45835e-31
1.99408e-26
9.52121e-24
6.26637e-21
1.63406e-18
1.02835e-16
7.81145e-15
6.12494e-13
6.33928e-12
3.2143e-11
7.94213e-11
1.19357e-10
1.54022e-10
9.29489e-11
1.85744e-09
1.44407e-08
7.78589e-09
1.06798e-11
4.16779e-06
-4.63409e-34
1.15e-30
1.77294e-25
5.0947e-22
1.73171e-19
1.46223e-17
1.15769e-15
1.57426e-13
1.77435e-12
8.56504e-12
1.99858e-11
3.33276e-11
4.93829e-11
7.62213e-17
6.592e-09
2.57312e-08
2.5118e-08
7.33638e-12
4.16469e-06
-1.63291e-39
1.02512e-41
2.10148e-32
8.65788e-27
4.44893e-23
2.90858e-20
1.31054e-17
2.39625e-15
2.6072e-14
1.56724e-13
4.85169e-13
9.42972e-13
7.25556e-13
-1.26218e-32
5.97558e-09
1.84321e-08
1.43072e-08
0
2.64372e-06
)
;

boundaryField
{
    leftWall
    {
        type            zeroGradient;
    }
    rightWall
    {
        type            zeroGradient;
    }
    lowerWall
    {
        type            zeroGradient;
    }
    atmosphere
    {
        type            inletOutlet;
        inletValue      uniform 0;
        value           nonuniform List<scalar> 
46
(
0
2.84055e-25
4.62458e-23
1.25148e-21
2.35518e-21
5.53181e-22
1.03264e-22
8.76297e-24
-1.28334e-22
-9.76405e-22
-2.53421e-21
-3.45779e-21
-2.89869e-21
-1.60427e-21
-6.07539e-22
-1.59156e-22
-2.84315e-23
-3.3315e-24
-2.52052e-25
0
0
0
0
0
0
0
0
0
0
0
0
0
0
0
0
0
0
0
0
0
0
0
0
0
0
2.64372e-06
)
;
    }
    defaultFaces
    {
        type            empty;
    }
}


// ************************************************************************* //
