/*--------------------------------*- C++ -*----------------------------------*\
  =========                 |
  \\      /  F ield         | OpenFOAM: The Open Source CFD Toolbox
   \\    /   O peration     | Website:  https://openfoam.org
    \\  /    A nd           | Version:  9
     \\/     M anipulation  |
\*---------------------------------------------------------------------------*/
FoamFile
{
    format      ascii;
    class       volScalarField;
    location    "13.55";
    object      p;
}
// * * * * * * * * * * * * * * * * * * * * * * * * * * * * * * * * * * * * * //

dimensions      [0 2 -2 0 0 0 0];

internalField   nonuniform List<scalar> 
918
(
23.4477
23.6269
0.988991
22.8648
0.99548
23.1434
3.33639
13.8114
19.2207
2.95568
2.64852
14.3866
20.6863
16.9277
13.047
0.927966
14.0502
2.28586
18.4382
1.40592
13.0407
20.4263
21.5151
19.2627
14.1032
14.4192
18.6487
1.18872
0.114854
0.278391
0.968062
0.409457
0.15618
21.6803
22.3569
22.2952
15.4739
10.4362
3.65657
3.85824
3.04679
2.867
13.8512
13.9487
5.89998
13.7939
13.7918
16.6226
19.0888
19.2324
19.5257
19.3147
19.701
5.96393
2.81336
2.6326
2.90349
2.97327
2.97298
2.72387
2.70398
2.50909
2.36291
13.8677
14.4597
14.5146
14.2465
14.1944
22.5029
21.746
22.0807
21.1871
21.3325
20.2624
19.8768
17.3034
17.6558
16.5296
16.1487
12.8364
12.7962
13.2682
13.5164
0.148474
1.07449
1.22253
14.0552
14.0892
14.0966
14.1134
8.30951
2.23467
2.23851
17.8785
17.455
20.46
20.7272
20.1742
19.9887
1.54445
1.54338
1.17355
1.19608
0.964666
13.3762
13.5283
19.2141
18.381
14.1344
14.0358
14.1097
11.4838
13.8926
13.9672
15.3728
15.8278
15.0162
15.4534
18.2186
17.8006
19.0852
19.5225
0.407319
0.160502
0.692266
0.323154
0.520656
15.3422
15.137
15.5887
15.6406
15.8717
10.4393
10.3657
10.4167
10.3367
4.20145
4.51316
2.3076
2.63025
2.47562
9.90701
13.9625
14.0055
4.85589
5.55183
5.22127
6.37194
6.74332
15.9884
16.4248
16.1637
17.7098
16.9148
17.2629
19.7917
19.2809
19.5814
6.36082
6.60376
5.59752
5.24076
2.27765
2.51756
2.4603
3.00562
2.98365
3.20411
3.337
2.6902
2.5478
2.91809
2.80176
2.85304
2.19188
2.05965
13.5919
13.3781
14.1304
14.3089
15.0743
14.9261
14.6327
14.8014
19.0719
19.4754
19.5089
19.1247
11.5852
10.1741
13.7713
14.0458
0.304395
0.267623
0.13609
0.37871
0.398351
0.142791
2.01251
1.82367
1.40425
1.67844
14.0488
14.0065
8.55214
8.77497
8.14343
7.88401
16.2925
16.4428
17.077
16.6768
1.98354
1.69538
1.82562
13.685
13.5611
13.6666
10.9201
10.3571
11.9599
12.2289
13.9804
14.0209
14.0183
15.7322
16.0506
19.8733
20.144
19.9708
20.3566
21.4194
21.0707
20.6859
14.5185
14.9267
14.7653
16.1061
15.7397
15.9592
15.1669
15.4717
15.3295
10.3959
10.441
10.1586
10.2358
10.282
10.2298
9.84365
9.71636
14.0833
14.0446
14.0649
7.26464
7.75945
4.86012
4.53135
12.5247
13.1973
12.8734
18.7017
18.024
18.757
18.3861
17.9361
18.2597
10.4509
10.4094
10.444
14.9686
14.3074
14.6587
2.4324
2.07198
2.23593
8.97282
9.06613
6.97596
7.60157
7.26197
16.3522
16.6926
17.3727
16.4845
16.9521
17.4594
17.2375
9.98073
10.1129
10.0298
9.70103
9.5935
9.727
8.33783
8.94742
3.60212
4.25671
3.95429
9.23522
9.46848
9.3144
18.6086
19.1435
0.782615
1.18732
19.5732
19.2969
0.146298
0.24323
14.3047
12.5956
7.27994
17.1754
16.6087
18.9481
3.20203
6.10263
2.82538
3.37914
2.68805
14.5928
14.23
13.3222
0.46333
1.25788
1.71574
2.92716
18.3891
17.714
18.8299
19.1501
19.2044
0.693845
0.929604
0.587397
1.26118
1.04416
1.28535
15.5302
15.6268
4.37321
18.8368
19.1411
19.1588
17.6354
18.5881
17.6456
0.936041
0.641988
0.713627
10.0713
12.1075
14.2651
13.8173
14.0148
14.0371
13.7883
14.9209
14.5916
14.5554
15.0395
13.9817
13.8481
7.73837
6.4046
8.076
7.71586
17.0768
16.6646
16.4722
16.218
18.0633
17.5893
18.4397
17.828
18.2899
18.5767
2.96085
3.14766
3.02789
2.54379
6.14327
6.61415
5.4864
5.62904
4.25364
2.4574
2.54831
2.76805
2.60624
2.9361
2.68407
2.94362
2.57776
2.32566
2.3227
2.9316
2.74406
2.60672
14.5709
14.5098
14.3107
14.3489
14.3341
14.4492
13.5163
13.92
13.5475
12.3832
12.9606
12.4879
0.826198
0.657362
0.530487
1.32952
1.3562
1.12192
0.848282
1.18945
1.20577
0.83707
1.54451
1.46351
3.18321
2.68309
8.8731
7.9947
6.89819
16.7793
17.581
16.7507
17.9912
18.4081
18.5136
18.134
17.6258
15.7074
15.7026
15.3628
15.3159
4.79706
3.77696
4.99592
4.57278
10.5105
14.053
11.8277
10.7917
11.0846
13.4014
13.9813
13.6302
13.7758
13.3434
12.8685
13.5671
13.0971
13.1984
12.9721
15.7688
16.2439
15.8504
15.2708
15.2909
10.6243
12.0217
5.49664
5.66132
7.24514
6.54512
13.5514
13.944
13.9259
13.5835
13.7767
13.7618
13.6223
13.7924
13.8829
13.7748
11.812
10.1322
9.04027
9.03501
14.0753
12.3413
12.9309
12.3947
16.0983
16.615
16.2295
15.6252
16.11
15.5819
15.6083
15.8209
17.1798
16.9293
16.6992
17.0861
3.07638
3.02321
3.65732
3.15522
3.05566
2.84342
3.49795
4.76002
4.42048
6.72298
7.2651
4.58325
3.39893
3.80295
4.80876
5.53917
5.52169
3.97404
4.4975
4.92323
4.43991
5.22044
4.72417
2.73211
3.03363
2.87698
2.85267
3.38275
3.87439
3.37334
2.48963
2.60779
2.2807
2.14295
3.53922
3.0137
3.04906
3.68531
1.11059
1.33315
1.44939
2.41896
1.9174
1.97831
15.1603
14.8041
14.9378
14.2168
14.2853
14.2268
13.85
15.2191
14.9415
15.0407
13.6899
13.7766
13.5902
13.8849
14.2984
14.5979
15.4305
15.1512
14.3905
14.5422
14.1937
14.1217
13.4457
12.8808
12.8213
1.11272
0.819976
0.987162
0.923253
0.613749
0.808577
2.18323
1.57569
1.97698
1.72665
1.95897
1.42244
1.30516
4.26267
5.05695
3.98562
3.39283
3.10943
8.92898
9.04289
8.18235
7.87355
8.21713
8.45362
8.40313
7.14362
7.57974
7.38885
9.95632
9.62073
17.5652
17.5093
17.1806
17.0217
17.248
5.77644
7.65553
6.80733
7.92565
10.2352
10.5387
9.31799
8.71864
9.48111
9.54894
14.0358
14.1136
13.5493
14.0352
14.0628
11.8153
12.8653
13.4776
13.2882
13.8131
13.8963
12.9624
13.5479
13.4543
12.7334
12.7909
12.1098
12.4457
11.9721
11.774
14.0332
13.9287
14.1983
13.7486
14.1277
13.6947
14.008
14.0084
14.289
13.3889
12.812
12.8332
13.257
12.9537
13.3013
13.4629
9.30418
9.95526
10.4107
10.9506
10.6613
10.4369
10.3026
10.6071
10.5874
10.855
10.7749
10.6209
11.5625
13.4643
13.7462
13.8564
13.6334
13.678
13.3719
13.6514
13.5764
13.9195
14.0143
14.0609
13.1456
13.3121
13.516
13.3954
11.6733
10.0724
9.93681
9.49905
7.57199
8.04759
11.0069
9.89658
8.91578
8.98272
12.1536
10.7897
11.6004
12.0228
10.6756
10.2905
12.9589
13.7536
13.9707
13.6877
12.0447
12.1731
12.6237
13.0734
13.2675
13.7314
15.8391
16.4144
16.4924
16.2166
16.0784
16.1779
15.9278
16.0311
16.5052
16.6317
16.4629
2.90134
3.01219
2.94613
2.87061
3.10053
2.88227
3.9627
3.9539
3.17125
3.34991
3.36815
3.47697
2.94837
2.99033
4.82107
5.05354
5.32945
4.83425
6.17273
6.82384
7.40494
7.08805
5.78698
5.86596
6.18244
3.51283
3.53211
3.25385
3.70506
3.7639
2.62709
2.25641
2.05674
2.58255
2.68084
2.06551
1.78465
1.83714
2.34061
2.07381
1.82393
14.9539
14.7125
14.7338
14.5137
14.5683
14.9625
15.1832
14.9929
15.131
15.1818
14.7816
14.6698
14.8411
1.82377
1.48312
1.63566
1.59212
1.63596
1.55193
1.73687
7.61071
6.41043
6.79238
5.98398
4.13849
4.65077
9.57303
9.99808
10.0369
9.74827
9.53507
9.89914
9.75433
9.74768
8.27343
9.35452
8.88201
9.2952
9.31813
9.38722
9.09222
9.07375
10.5835
10.6123
9.47791
10.1259
9.32898
7.93541
8.099
9.10846
10.0772
10.4346
10.2749
9.99161
9.76544
10.146
10.1968
10.2634
10.2537
8.75472
8.70398
8.29322
13.9585
13.868
14.0159
14.0189
14.1497
13.9595
13.7966
14.0755
14.1307
13.9133
11.104
11.1669
11.4131
12.1715
12.225
12.1039
11.3501
13.1317
12.7773
13.4316
13.3725
13.4323
13.0145
12.8414
13.1213
10.0669
11.4384
10.9687
11.2346
10.0503
9.29976
13.2201
13.2696
13.3455
13.6218
13.5693
14.1589
15.8088
15.6786
15.7262
15.7694
15.3809
15.4179
4.17755
3.83538
4.54785
4.50874
4.0706
3.77445
2.29183
1.97858
1.79537
1.66865
1.89227
1.95274
8.15979
8.19272
6.33015
7.35713
5.89249
4.9549
4.80928
5.95997
7.13898
7.20446
8.52444
9.2163
8.77208
8.59947
7.93222
8.26628
10.1541
10.2458
10.1472
10.4669
9.99992
11.7443
11.326
11.6773
13.3016
13.0023
12.3999
12.2877
12.2585
12.8581
11.9417
11.1632
11.8809
12.5525
12.5083
11.1456
10.8993
11.3262
11.302
10.2118
10.7407
10.5014
10.8507
10.5559
)
;

boundaryField
{
    wall-4
    {
        type            zeroGradient;
    }
    velocity-inlet-5
    {
        type            zeroGradient;
    }
    velocity-inlet-6
    {
        type            zeroGradient;
    }
    pressure-outlet-7
    {
        type            fixedValue;
        value           uniform 0;
    }
    wall-8
    {
        type            zeroGradient;
    }
    frontAndBackPlanes
    {
        type            empty;
    }
}


// ************************************************************************* //
