/*--------------------------------*- C++ -*----------------------------------*\
  =========                 |
  \\      /  F ield         | OpenFOAM: The Open Source CFD Toolbox
   \\    /   O peration     | Website:  https://openfoam.org
    \\  /    A nd           | Version:  9
     \\/     M anipulation  |
\*---------------------------------------------------------------------------*/
FoamFile
{
    format      ascii;
    class       volVectorField;
    location    "16.1";
    object      U;
}
// * * * * * * * * * * * * * * * * * * * * * * * * * * * * * * * * * * * * * //

dimensions      [0 1 -1 0 0 0 0];

internalField   nonuniform List<vector> 
918
(
(2.47629 -0.138943 0)
(0.108704 0.722546 0)
(0.173293 1.08199 0)
(2.31834 0.153728 0)
(-0.0591019 1.24785 -1.20747e-19)
(-0.0924034 0.643931 -5.31898e-18)
(0.52465 0.84179 -2.98115e-19)
(0.275335 0.153338 -2.98966e-20)
(3.00615 -0.0195625 0)
(-0.00862452 0.476889 0)
(-0.0178874 0.594128 0)
(0.605554 0.00672605 0)
(0.0107054 0.439105 0)
(-0.00288537 0.421694 0)
(0.0137079 0.341662 -1.30754e-18)
(-0.00531844 0.758378 -9.1897e-20)
(0.312982 0.0743714 2.15135e-18)
(0.0787473 0.639035 -2.2518e-19)
(1.52885 0.128625 0)
(-0.0279092 0.696594 0)
(0.195598 0.15834 -1.26737e-18)
(3.08302 -0.397376 0)
(2.92445 -0.505983 0)
(1.86116 -0.181101 0)
(0.511935 0.0400974 0)
(-0.0253562 0.521569 0)
(-0.00135322 0.494038 1.86452e-18)
(-0.0240999 1.42937 0)
(0.0725086 2.93321 0)
(0.16894 1.77342 0)
(-0.041491 3.1184 0)
(0.0259375 1.61223 9.2839e-20)
(0.0222721 0.675807 0)
(-0.147425 0.775094 -2.03293e-22)
(-0.193914 1.0291 4.42553e-18)
(-0.0415772 1.04471 0)
(0.744483 -0.00601736 0)
(0.162441 0.248394 6.66744e-19)
(0.983649 1.49969 6.57074e-19)
(0.643465 0.776808 -5.1911e-19)
(0.791596 1.56112 6.26666e-20)
(0.412912 0.843912 -3.2367e-19)
(0.554592 0.307755 2.94029e-20)
(0.297928 0.154056 0)
(0.957007 0.562594 0)
(0.53524 0.305257 1.32099e-19)
(0.259168 0.163429 -1.35553e-19)
(0.871566 -0.0554842 0)
(3.02784 -0.0017084 0)
(3.00685 0.0178638 0)
(3.20086 -0.417737 0)
(3.04288 -0.0742157 0)
(3.03116 -0.0388432 0)
(0.0181128 0.909203 -1.14619e-18)
(-0.0540754 0.972593 0)
(0.00260393 0.454188 0)
(-0.0290566 0.981072 0)
(-0.0117593 0.482093 0)
(-0.00201952 0.867429 0)
(-0.0527172 1.1185 0)
(-0.0129081 0.54511 0)
(-0.0263618 1.17314 0)
(-0.00657456 0.628128 0)
(0.790104 0.0115691 0)
(1.17002 -0.00161225 0)
(0.618512 0.0123488 0)
(1.12653 0.017588 0)
(0.570152 0.00865213 0)
(0.225406 0.921982 1.96175e-18)
(0.0985378 1.2081 0)
(0.176302 1.06604 0)
(0.0331901 0.755774 2.2016e-23)
(0.0372233 0.498055 -2.93396e-18)
(0.0194616 0.747943 0)
(0.0059542 0.422033 0)
(-0.000698177 0.734551 4.52313e-24)
(0.000701761 0.414826 0)
(-0.0169316 0.743193 0)
(-0.0129469 0.427996 0)
(0.0501475 0.652214 0)
(0.0490561 0.46024 0)
(0.00837918 0.623055 1.23626e-18)
(0.000933739 0.345191 0)
(-0.0781979 4.67391 0)
(0.00799536 1.44017 9.12346e-20)
(-0.0105689 0.77647 -1.17344e-19)
(0.637431 0.152445 -7.50643e-19)
(0.32215 0.0657514 -7.2836e-19)
(0.646347 0.170113 -2.25388e-18)
(0.318203 0.0957515 -1.45124e-18)
(0.0793461 0.624989 0)
(0.176523 1.30528 1.87068e-19)
(0.177924 0.725003 -2.98478e-19)
(2.06033 0.260936 0)
(1.10706 0.118445 0)
(3.03313 0.103885 0)
(3.10392 0.446057 0)
(2.83919 0.377454 -1.0122e-17)
(2.57811 0.361308 7.76681e-18)
(-0.0716221 1.28293 0)
(-0.0115979 0.633265 0)
(-0.0164741 1.9385 0)
(-0.0525714 1.3713 0)
(-0.0493964 0.691627 0)
(0.442483 0.29734 4.01202e-19)
(0.22647 0.16414 0)
(2.29608 -0.2664 0)
(1.32371 -0.119277 0)
(1.07722 0.0126052 0)
(1.01307 0.0187271 0)
(0.541393 0.0107929 0)
(1.01843 0.056183 0)
(0.822181 0.070421 0)
(0.343984 0.0287211 3.36073e-18)
(-0.00544824 0.451554 1.77607e-18)
(-0.0270625 0.784673 0)
(-0.0474233 0.84765 0)
(-0.0152957 0.460504 0)
(0.000132041 0.839725 1.81812e-18)
(7.24531e-05 0.48753 0)
(-0.00547896 0.845554 -5.59672e-18)
(-0.00488635 0.496761 1.88846e-18)
(0.0489132 3.61421 0)
(0.035957 4.06458 0)
(-0.0165724 1.39089 -2.0584e-21)
(-0.0141749 1.34271 0)
(-0.00998708 0.730847 0)
(1.40997 0.0348502 0)
(0.760408 0.0154122 0)
(0.709607 0.0142547 0)
(1.41603 -0.0328689 0)
(0.773445 -0.00875373 0)
(0.324986 0.484486 -8.37135e-19)
(0.158089 0.234543 0)
(0.328053 0.513891 9.38291e-20)
(0.1649 0.270884 0)
(1.23 1.3734 1.67386e-19)
(0.772109 0.733974 -3.94132e-19)
(0.40846 1.41099 0)
(0.601572 1.52103 0)
(0.300731 0.808501 0)
(0.146972 0.357262 -4.4404e-19)
(0.609502 0.281611 0)
(0.314323 0.134911 3.9883e-19)
(1.41656 1.29504 0)
(1.57658 1.15958 0)
(0.868707 0.658493 4.63126e-19)
(1.72462 0.947017 0)
(1.06332 0.436172 2.30972e-20)
(1.47287 0.00811663 0)
(1.50093 -0.0292527 0)
(0.801849 -0.00442559 0)
(1.9504 -0.199788 0)
(1.65078 -0.14819 0)
(1.05213 -0.0889747 0)
(3.06126 0.16485 0)
(3.03105 0.0687835 0)
(3.01022 0.0531569 0)
(0.034388 1.61768 6.08251e-19)
(0.0173633 0.834605 0)
(0.0171149 1.70654 1.07954e-18)
(0.00246436 0.943816 -9.70467e-19)
(0.0640514 1.14654 1.8967e-19)
(0.0474496 0.985749 0)
(0.0395403 0.527097 0)
(-0.0292481 1.00702 0)
(-0.00740765 0.51886 0)
(0.0167842 1.6129 -4.42202e-21)
(-0.0188084 0.865771 0)
(-0.0542732 1.5784 -2.25045e-19)
(-0.0164968 0.817249 4.35751e-19)
(-0.00250822 1.03338 0)
(0.0097028 1.04945 0)
(-0.000411398 0.533929 0)
(0.00951667 1.18453 0)
(0.000312436 0.620354 0)
(1.46749 -0.0038409 0)
(0.788718 0.00798915 0)
(1.43996 0.0330977 0)
(0.761525 -0.000585691 0)
(0.67555 0.0053222 0)
(1.26232 0.0166431 0)
(1.20286 0.0472864 0)
(0.659909 0.0155313 0)
(-0.00580063 1.42077 -1.70402e-20)
(0.000184285 1.37708 0)
(0.0048201 0.732923 0)
(0.0017289 0.417221 0)
(0.286754 0.833459 0)
(0.255528 0.40237 -2.87436e-19)
(-0.00198417 0.635699 0)
(-0.00882216 0.367613 0)
(0.00175169 4.36304 0)
(-0.058408 4.65798 0)
(-0.0293853 4.577 0)
(-0.0762675 3.32485 2.06323e-20)
(-0.0691473 4.57493 0)
(-0.0603156 4.14065 0)
(0.00412752 0.811905 1.07073e-20)
(0.0134026 1.54769 1.64871e-19)
(-0.0358218 1.48671 1.20566e-19)
(-0.0079169 0.817511 0)
(0.665628 0.105882 1.15268e-18)
(0.326155 0.0441873 -1.12965e-18)
(0.151131 1.14574 0)
(0.10208 0.579548 -2.69999e-19)
(0.119671 1.24652 -8.7649e-19)
(0.0524069 0.694576 8.71987e-19)
(0.80925 0.0240526 0)
(1.55684 0.0476616 0)
(1.70974 0.127643 0)
(0.919874 0.0445162 0)
(0.00708372 1.19805 0)
(0.0249736 1.20808 0)
(0.00397576 0.63685 0)
(0.484775 0.316758 1.20451e-18)
(0.439272 0.310898 -1.38798e-18)
(0.235926 0.164964 0)
(1.93219 0.152194 1.15145e-19)
(1.13418 0.0927886 0)
(1.72212 0.118131 0)
(0.882725 0.0225484 0)
(0.679202 0.0858078 0)
(0.700611 0.0461159 -5.40398e-18)
(0.347119 0.032609 1.99776e-18)
(0.00911912 0.807239 1.696e-18)
(0.00221403 0.462493 4.08147e-20)
(-0.0108777 1.40842 -3.58395e-20)
(0.00613614 1.38675 1.36732e-18)
(-0.0149832 0.848955 6.30124e-20)
(-0.0119261 0.524486 -2.53176e-22)
(-0.107514 1.00068 -1.16607e-18)
(-0.0529602 1.3532 8.34845e-19)
(-0.0175323 1.35275 -1.35921e-18)
(1.4223 -0.0171299 0)
(1.44204 0.0202642 0)
(0.769667 -0.000211988 0)
(1.45228 0.025366 0)
(1.36334 0.0462162 0)
(0.761609 0.0202958 0)
(1.3009 -0.00218143 0)
(1.31888 -0.00587918 0)
(0.695184 -0.00100788 0)
(0.307359 0.477299 -9.16463e-19)
(0.162631 0.244545 0)
(0.158729 0.311366 1.37276e-19)
(0.312663 0.591674 1.12469e-18)
(0.310395 0.55389 -6.65805e-19)
(0.158307 0.284537 1.30099e-18)
(0.281529 0.725803 2.18741e-18)
(0.149903 0.384997 3.94752e-19)
(0.637768 0.2137 1.53718e-18)
(0.627862 0.25436 3.99254e-19)
(0.31731 0.11526 7.49205e-19)
(1.91315 0.710352 -5.9994e-19)
(1.16337 0.334292 -7.01939e-19)
(-0.0362892 1.71101 4.63959e-19)
(-0.0122415 0.92871 0)
(1.60227 0.0236385 0)
(1.5208 0.0652075 0)
(0.852243 0.026728 0)
(-0.00355903 1.38473 0)
(0.00507357 0.729574 2.4981e-18)
(0.00465022 0.731252 0)
(0.00207063 0.415097 -2.44508e-18)
(-0.0102763 1.38627 5.96386e-19)
(-0.00947334 1.4225 0)
(0.339223 0.491929 2.58274e-19)
(0.362744 0.550399 -8.64008e-19)
(0.173149 0.259715 7.82011e-19)
(-0.0256918 0.767375 -1.66502e-18)
(-0.0261133 0.689684 0)
(-0.0154277 0.412868 0)
(0.0293199 1.53937 -1.27039e-20)
(0.0303592 1.56848 -3.63541e-19)
(0.0172236 0.817156 -1.54995e-20)
(0.215719 1.05533 8.92501e-19)
(0.120869 0.51438 -5.93916e-19)
(0.0114132 1.49844 7.31722e-19)
(0.0558557 1.3647 -8.16928e-19)
(0.0267003 0.767936 3.55974e-20)
(0.00749577 1.36614 -3.81256e-18)
(-0.000229737 1.39326 4.41516e-18)
(0.00377107 0.829774 1.73511e-18)
(-0.0138387 0.805083 -1.72769e-18)
(-0.00431142 0.481395 -1.74075e-18)
(-0.0106547 1.41685 -4.5054e-18)
(-0.0152231 1.40032 4.59472e-18)
(0.289653 0.682163 0)
(0.303023 0.641145 -2.2934e-18)
(0.153602 0.335122 9.9287e-19)
(0.284564 0.804944 1.18844e-18)
(0.140427 0.432352 -1.8337e-18)
(2.05217 0.321025 4.15564e-19)
(2.04501 0.544876 0)
(1.21534 0.219984 -4.01623e-19)
(-0.0746418 1.63621 -4.79384e-21)
(-0.015647 1.69494 0)
(-0.0164867 0.923673 0)
(0.229288 0.954864 -3.23639e-19)
(0.250923 0.87641 -7.08848e-19)
(0.13014 0.468459 1.32843e-18)
(3.16442 -0.442881 0)
(3.34728 -0.414695 1.81175e-18)
(0.0564238 3.52483 0)
(0.0451266 2.85353 0)
(3.15926 0.249906 1.41906e-20)
(3.12355 0.506286 3.70998e-18)
(0.0190754 3.39174 -2.7691e-20)
(0.00801667 2.62754 0)
(-0.0414532 1.19611 1.55741e-18)
(0.192373 1.32049 0)
(3.46127 1.61675 -3.24806e-19)
(3.17431 0.272547 -2.96105e-20)
(3.14831 -0.118737 0)
(3.10047 -0.000415984 3.71961e-22)
(0.0409628 2.57895 0)
(0.155051 3.32295 0)
(-0.0590018 2.54454 0)
(-0.0288336 3.4866 3.15613e-19)
(-0.0305026 3.55634 1.9915e-19)
(2.63449 0.048586 -1.36402e-20)
(3.0467 0.0308688 0)
(3.15641 0.086351 0)
(-0.0613885 4.61355 0)
(-0.0491168 3.05168 0)
(-0.0759522 2.96895 0)
(0.645375 3.08181 2.67003e-19)
(3.33883 -0.422475 0)
(3.01138 -0.345822 0)
(3.1699 -0.0530517 2.27586e-18)
(3.2927 -0.328711 -2.74041e-18)
(3.1038 -0.125785 0)
(-0.0680883 4.52406 0)
(0.00755537 3.96948 0)
(-0.00138162 4.28828 0)
(-0.0316853 3.13175 0)
(-0.0171801 2.89256 0)
(-0.0344009 2.46719 0)
(2.97397 -0.00326556 0)
(2.85069 0.0485437 -1.80485e-20)
(2.23024 3.02605 -3.23683e-19)
(3.15695 0.0444409 -2.27692e-18)
(3.19037 0.278168 2.76775e-18)
(3.0828 0.117329 0)
(3.39542 0.328892 2.08594e-18)
(3.35696 0.484352 -2.70495e-18)
(3.07113 0.418418 0)
(-0.0574181 3.31265 0)
(0.00359226 3.23734 8.54556e-20)
(-0.0316149 2.54098 -6.05037e-20)
(3.70296 0.552874 2.2641e-18)
(3.46829 0.207385 0)
(-0.151459 1.27136 -2.16924e-18)
(-0.0617863 0.882118 -1.35249e-19)
(-0.0836913 1.33732 2.99021e-18)
(-0.034565 1.27084 -9.00993e-19)
(0.000148619 1.08901 0)
(-0.0266888 1.23948 6.95894e-19)
(-0.114857 1.38788 2.14982e-18)
(-0.0588913 1.34056 -1.31609e-18)
(-0.0768189 1.32063 0)
(1.29509 0.599198 0)
(1.1843 0.685545 0)
(3.54695 2.01962 9.53755e-19)
(3.03543 1.9246 -1.19098e-18)
(3.83112 1.69894 0)
(3.3736 1.15144 0)
(3.34938 0.280454 -3.91423e-18)
(2.89891 0.17309 4.83651e-18)
(3.35138 -0.155535 0)
(2.85467 -0.0761753 0)
(3.43642 0.0429795 0)
(3.59381 0.145008 0)
(3.28683 0.11985 0)
(3.55034 0.29854 0)
(3.40842 0.293035 0)
(3.32755 0.218048 0)
(0.0932693 2.78245 0)
(0.0328306 2.07462 0)
(0.121244 3.03835 0)
(0.0905728 2.19364 0)
(0.211198 3.61631 0)
(0.139569 2.69683 -5.59347e-19)
(0.0489559 3.6308 0)
(0.00899644 3.03532 4.05666e-19)
(-0.0285896 3.21294 -5.16642e-19)
(-0.0638602 2.81363 0)
(-0.0260882 2.21834 0)
(-0.0777283 2.9162 0)
(-0.0573204 2.05714 0)
(-0.120097 4.74474 -2.45391e-19)
(-0.0871159 3.92942 2.77249e-19)
(-0.0807413 3.79742 3.08832e-19)
(-0.0552113 3.00942 0)
(-0.110891 3.78844 -4.58276e-19)
(-0.0409415 3.19588 -2.94706e-19)
(-0.0944159 4.77607 1.92362e-19)
(-0.105148 4.45417 -3.50433e-19)
(-0.079064 4.32794 -3.78649e-19)
(3.03233 0.0880342 3.3559e-18)
(2.29036 0.0320819 -4.22641e-18)
(2.89255 0.132503 -3.32484e-18)
(2.21096 0.0733377 4.15293e-18)
(3.36798 0.0273603 0)
(2.64245 -0.00275582 0)
(3.45304 0.0907298 0)
(3.31942 0.0189064 0)
(2.70549 0.00900307 0)
(3.67849 0.238343 0)
(3.43738 0.0952397 0)
(2.86138 0.0560546 0)
(-0.0301114 4.29718 -1.2084e-20)
(-0.0647717 4.6406 0)
(-0.0704854 4.52084 0)
(-0.0794713 3.4729 8.77438e-20)
(-0.039128 2.75054 -3.46161e-21)
(-0.0905106 4.66436 1.14172e-19)
(-0.10316 4.46616 -1.15372e-19)
(-0.0853521 3.97914 0)
(-0.0635005 3.90494 0)
(-0.0294305 4.02059 0)
(-0.07617 3.28918 0)
(-0.0447062 2.33088 0)
(0.93893 3.63524 -6.10574e-19)
(0.91163 2.82821 -1.77173e-19)
(0.434922 2.07434 -2.2881e-19)
(0.254353 2.32236 6.98588e-19)
(1.02353 4.21454 2.63762e-19)
(3.43304 -0.167472 0)
(3.32211 -0.256575 0)
(2.88322 -0.189532 0)
(3.47032 -0.0643902 0)
(3.34581 -0.147888 0)
(3.44893 -0.261048 0)
(3.51949 -0.283628 0)
(3.57948 -0.281168 0)
(3.22436 0.0932711 3.61624e-18)
(2.5554 0.064468 -4.57272e-18)
(3.0968 0.106444 -3.55969e-18)
(2.5095 0.0565916 4.42921e-18)
(2.22584 3.39496 0)
(1.72386 2.92375 -4.46937e-19)
(2.55605 3.33072 -4.0434e-19)
(2.35081 2.50898 5.373e-19)
(0.782077 1.22393 2.72658e-18)
(1.44925 0.216586 1.34231e-18)
(3.72007 0.302696 0)
(3.88998 0.570349 -1.84488e-18)
(3.29506 0.242791 -8.22737e-20)
(3.72321 0.438655 0)
(0.24139 1.31451 1.79899e-18)
(-0.0143508 1.20291 -2.88081e-18)
(0.0611673 0.770597 1.61718e-18)
(0.27905 0.466445 -7.4902e-19)
(0.189847 1.38743 8.72376e-19)
(0.0521172 1.23872 0)
(0.0587963 1.0883 -1.13408e-18)
(0.19533 1.44561 -4.09867e-18)
(0.33388 1.56106 0)
(0.00863091 1.29017 1.19748e-19)
(-0.00975597 1.45729 -1.34201e-18)
(-0.0410602 1.30284 1.95099e-18)
(-0.0575208 1.41766 0)
(-0.0205392 1.38224 0)
(0.686828 1.05807 0)
(2.47174 2.46249 -1.0666e-18)
(2.62717 2.15745 3.95522e-19)
(2.77953 2.86596 0)
(3.20605 3.05257 -3.94285e-19)
(3.1541 2.39837 2.83158e-20)
(0.809683 0.593633 -1.82453e-18)
(1.56259 0.693364 -1.62646e-20)
(1.23745 0.452325 8.72038e-19)
(1.28319 0.84779 5.95409e-20)
(0.944908 0.637404 -2.37117e-18)
(1.47137 0.716729 0)
(2.00069 1.10296 1.45614e-18)
(2.04211 1.01866 0)
(1.41988 0.793919 0)
(1.06726 0.551923 0)
(3.38324 2.17705 1.00735e-18)
(3.9434 0.757487 -1.86189e-18)
(3.84213 1.21101 0)
(3.52621 0.75435 0)
(1.39518 0.365432 1.332e-18)
(3.26794 1.84198 -8.51233e-19)
(2.84649 1.65592 1.5461e-18)
(3.76018 1.37444 -1.8341e-18)
(3.09808 0.114668 2.46213e-18)
(3.16864 0.180762 -2.5771e-18)
(2.66196 0.0916091 0)
(3.3071 -0.0396219 0)
(3.20128 -0.0843291 -2.3648e-18)
(2.63223 -0.0321487 2.34397e-18)
(3.95637 0.0929626 0)
(3.75986 0.145474 0)
(3.6937 0.155309 0)
(3.58833 0.204686 0)
(3.83262 0.0589307 0)
(3.7261 0.0521764 0)
(-0.0435145 2.50951 0)
(-0.0399606 2.01199 0)
(0.348038 3.97141 -4.10959e-19)
(0.65433 3.31017 -1.60519e-19)
(0.254001 3.01002 -3.59023e-19)
(0.339105 2.53015 5.75138e-19)
(0.449446 3.99591 0)
(0.461491 4.66503 -5.09529e-19)
(0.375718 4.72231 0)
(0.909733 4.38584 -3.79414e-19)
(0.675081 3.83867 9.69419e-19)
(0.589864 4.643 4.46534e-19)
(0.731973 4.18121 -1.87723e-19)
(0.59293 4.30781 1.51015e-19)
(0.908712 4.64435 -6.63363e-19)
(0.741042 4.6577 0)
(0.853129 4.584 5.04456e-19)
(-0.00399036 4.57436 -1.81089e-19)
(-0.0245927 3.65768 0)
(0.0925252 4.29602 5.49002e-19)
(-0.0116771 4.39726 0)
(-0.00843197 3.47521 -4.51104e-19)
(-0.0182761 2.92678 0)
(-0.111924 4.30751 -2.89571e-19)
(-0.118944 4.67613 0)
(-0.0619087 3.80515 0)
(-0.0493671 3.73274 3.25635e-19)
(-0.0549286 3.88668 1.03561e-20)
(-0.0412748 3.71497 6.25376e-19)
(-0.0441871 2.95262 4.06214e-21)
(-0.126575 4.70414 1.80255e-19)
(-0.116248 4.73718 1.03204e-19)
(-0.0207102 2.64408 0)
(-0.00123367 2.15641 0)
(-0.0543289 4.78351 4.86002e-19)
(-0.0601802 4.30402 4.24026e-19)
(-0.09557 4.57982 -5.54193e-19)
(0.0043046 4.75116 0)
(-0.0873082 4.51464 -3.09025e-19)
(-0.124973 4.13996 1.27477e-19)
(-0.0918266 4.22836 -4.1302e-20)
(-0.083055 4.72166 -2.18967e-19)
(-0.0947292 4.25333 -6.84966e-20)
(-0.0923492 4.2012 3.06239e-19)
(2.87193 0.060872 -2.36174e-18)
(2.8596 0.0494888 2.2712e-18)
(2.33915 0.0344611 0)
(3.51168 0.191302 3.04398e-18)
(2.70544 0.12624 -3.30212e-18)
(2.25619 0.0642666 3.60673e-18)
(3.6844 0.334297 -4.01299e-19)
(3.20961 -0.048665 0)
(3.17171 -0.0137652 2.23538e-18)
(2.6905 -0.0124667 -2.21776e-18)
(3.87784 0.121447 -1.2514e-19)
(3.77111 0.101278 1.0775e-18)
(4.15917 0.172413 0)
(4.22814 0.180056 -3.7483e-19)
(4.01419 0.144505 0)
(3.69569 0.154875 0)
(4.03238 0.094784 0)
(3.71203 0.0870761 0)
(4.18472 0.113165 7.84865e-19)
(4.13733 0.0785764 -1.74656e-18)
(4.14032 0.113202 -8.47353e-19)
(4.18614 0.115806 -9.23757e-19)
(4.21512 0.227758 1.77264e-18)
(3.85377 0.187797 0)
(4.05999 0.300255 0)
(-0.082453 4.55875 -1.36183e-19)
(-0.0393708 4.62673 -1.17142e-20)
(-0.0748361 4.64809 0)
(-0.0625184 4.1683 1.38631e-19)
(-0.060543 4.19217 2.2591e-20)
(-0.0637071 4.05557 -2.19429e-20)
(-0.0845339 3.50626 2.60807e-19)
(-0.15035 3.98285 -1.44982e-20)
(-0.110617 4.1152 7.47005e-20)
(-0.0780983 3.377 -1.32106e-19)
(-0.0269221 2.90183 1.58208e-19)
(-0.0846023 4.44214 5.19061e-21)
(-0.0993695 4.64092 1.71651e-19)
(1.23489 4.33828 3.47978e-19)
(1.15193 4.51526 7.24858e-19)
(1.72297 3.44138 4.32165e-19)
(1.29627 3.532 1.70316e-19)
(1.27337 2.86335 0)
(0.553926 2.34243 2.75495e-19)
(0.467955 1.75996 3.31555e-19)
(0.347412 2.59269 1.53157e-20)
(0.495093 3.20288 -1.16175e-18)
(0.637209 3.16029 8.7796e-19)
(0.436834 2.42856 0)
(0.296623 1.99273 -5.58549e-19)
(0.258923 3.10175 1.39674e-18)
(0.27363 2.74368 -3.17915e-20)
(0.15811 2.29803 -1.75109e-18)
(0.598256 1.42621 1.46689e-18)
(0.58298 1.63459 0)
(3.58364 -0.0751994 8.63782e-20)
(3.6186 -0.254144 -7.25504e-20)
(3.72133 -0.217777 -1.26572e-18)
(3.75925 -0.126093 1.28159e-18)
(3.67616 -0.0489285 0)
(2.43826 3.85793 0)
(2.61699 3.90354 0)
(2.88657 3.61217 0)
(2.73656 3.63492 0)
(0.862665 1.40705 -3.35685e-21)
(0.617642 1.04882 0)
(1.724 3.40661 1.50307e-20)
(1.43025 3.48401 0)
(1.33954 2.97641 -1.28591e-18)
(1.42042 2.9156 8.25711e-19)
(1.79455 0.310661 0)
(1.43325 0.262322 3.51882e-19)
(2.41506 0.358775 2.19025e-18)
(1.78898 0.284842 -7.84958e-19)
(1.42842 0.112201 -2.49331e-18)
(4.26578 0.787004 -2.56302e-18)
(3.85651 0.992794 -3.66391e-20)
(3.30314 0.84333 2.06614e-18)
(3.87955 0.743518 1.81174e-18)
(3.12696 0.465047 -3.04265e-18)
(2.9143 0.451737 3.74711e-19)
(3.19776 0.681864 -8.18072e-19)
(2.98092 0.682552 0)
(3.76208 0.562498 1.53636e-18)
(4.09793 0.627263 0)
(4.09365 0.773816 0)
(4.04391 0.41414 8.23004e-19)
(4.2961 0.640074 -3.0309e-20)
(4.2471 0.712666 -4.52468e-19)
(4.1742 0.640152 0)
(3.61673 0.129791 1.71674e-18)
(4.19019 0.182493 2.14235e-18)
(4.09118 0.15084 -1.67801e-18)
(4.13729 0.239662 -1.44161e-18)
(3.74697 0.237296 -2.15458e-18)
(3.30603 0.37539 0)
(3.40554 0.301582 0)
(2.56041 0.190393 -1.26506e-18)
(2.11081 0.118987 4.76407e-19)
(4.03823 0.351407 1.93859e-18)
(4.28709 0.430837 -2.34463e-18)
(4.28552 0.487378 2.0672e-18)
(4.15828 0.491382 0)
(4.25617 0.335449 0)
(4.26586 0.321404 -9.80503e-19)
(4.21447 0.314764 -1.59507e-18)
(2.23948 3.49782 6.20259e-19)
(1.95298 3.2479 -6.83737e-19)
(1.46002 2.37358 -1.03323e-18)
(1.19802 2.01117 2.67184e-19)
(0.892537 1.39032 -2.63296e-18)
(0.800807 1.22529 9.23299e-19)
(0.60615 0.911569 -1.89764e-21)
(1.12531 1.79879 -1.1394e-18)
(1.15331 1.89745 1.70093e-18)
(0.983337 1.7122 5.0669e-19)
(0.792687 1.2982 -5.13317e-19)
(0.64042 1.08196 0)
(2.46136 2.61493 -1.15408e-19)
(0.713958 1.14908 8.58532e-19)
(0.936111 0.896191 1.15747e-18)
(0.762673 0.818629 1.33976e-18)
(1.09066 0.751084 1.34218e-18)
(1.47773 1.05054 -2.27197e-18)
(1.39377 1.07813 1.8409e-18)
(1.00948 0.770917 -6.77491e-19)
(0.822618 0.571697 1.49603e-18)
(1.6204 0.491809 -7.77789e-19)
(1.5645 0.509744 0)
(1.24344 0.408388 4.66832e-21)
(2.52213 1.51947 7.75657e-19)
(2.09206 1.27459 -2.80905e-18)
(1.69845 1.19055 9.30697e-21)
(1.67157 1.09725 0)
(2.87492 2.59761 8.73335e-19)
(3.44874 2.74575 1.03604e-18)
(3.25885 2.92628 -1.19432e-18)
(3.55247 2.75516 -4.27783e-19)
(3.47786 2.59066 -1.34772e-19)
(3.50798 2.7831 1.38618e-19)
(3.67958 2.26068 -1.67769e-18)
(3.70416 2.4855 4.00667e-19)
(3.77998 2.42611 0)
(3.77992 2.18218 -5.79149e-19)
(4.05114 1.07056 5.79993e-19)
(4.27453 0.989344 1.00131e-18)
(4.29977 0.963043 1.01073e-18)
(4.05702 1.32547 -1.14858e-18)
(4.10082 1.34417 0)
(4.14984 1.22833 0)
(3.3356 1.23476 -1.54453e-20)
(2.42458 0.667071 0)
(2.72865 0.744114 9.30165e-19)
(3.2448 0.884751 -2.63237e-20)
(3.77817 1.53171 5.1026e-18)
(3.57676 1.75925 1.30992e-18)
(3.48874 1.53899 -1.33977e-18)
(3.04735 1.36995 1.4365e-18)
(2.77168 1.3709 8.23554e-19)
(2.31731 1.15839 -7.976e-19)
(3.67211 -0.085662 1.98325e-18)
(3.89468 -0.0290589 0)
(3.85892 -0.0666682 1.34114e-18)
(3.74287 -0.0595225 -2.98569e-18)
(3.98056 0.0372054 1.46094e-18)
(3.90448 0.113262 -3.08077e-18)
(3.73993 0.12786 0)
(3.55636 0.173368 -6.28102e-19)
(3.812 0.122878 1.60416e-18)
(3.69199 0.191291 -8.21989e-19)
(3.60035 0.17099 5.90297e-19)
(-0.0840613 2.59752 0)
(-0.0536235 3.39958 0)
(-0.0352697 2.46413 0)
(-0.0237011 1.97533 0)
(0.0377476 3.93023 6.71011e-19)
(0.132909 3.70981 -1.73335e-19)
(0.307784 4.63345 -2.29582e-19)
(0.243052 4.44486 2.4231e-19)
(-0.0357334 4.28669 -4.97702e-19)
(0.00123698 4.31817 3.73744e-19)
(0.0868689 3.85953 2.23853e-20)
(0.00263041 3.54898 -4.67298e-19)
(-0.0184108 3.3058 -6.23187e-20)
(-0.0473377 3.66744 -5.67688e-20)
(0.144722 4.48284 -5.86328e-19)
(0.17129 4.30083 0)
(0.267017 4.63927 2.96133e-19)
(0.258753 4.70651 2.52932e-19)
(0.590313 4.45186 -2.25821e-19)
(0.407553 3.80614 0)
(0.457001 3.65257 -1.11585e-18)
(0.561078 4.0214 7.90643e-19)
(0.474104 4.56724 -6.14505e-19)
(0.363757 4.44385 3.30603e-19)
(0.295356 4.17538 0)
(-0.0472675 4.75804 -5.52891e-19)
(-0.0853362 4.52532 -6.41066e-19)
(-0.0879155 4.73554 0)
(-0.0384623 4.36294 -6.22156e-21)
(-0.0299039 4.64248 2.74079e-19)
(-0.127535 3.88861 4.48204e-20)
(-0.0618935 3.50092 -6.55549e-19)
(-0.104758 3.93652 1.74895e-19)
(-0.148783 4.51821 2.32721e-19)
(-0.0876265 4.32818 0)
(-0.0697548 3.90139 0)
(-0.086352 2.92852 2.01904e-19)
(-0.0544882 3.65702 -6.29965e-20)
(-0.079961 3.64162 0)
(-0.0910692 2.71285 1.59027e-19)
(-0.0482142 2.21887 -3.08075e-19)
(3.76077 0.0320492 0)
(3.73161 0.00744105 -2.03128e-19)
(4.17942 0.0674438 -1.43888e-18)
(4.08885 0.0457996 0)
(3.87588 0.0173508 0)
(4.14971 0.036678 -1.2503e-20)
(4.10028 0.0346208 2.37719e-18)
(4.00025 0.0798214 2.84351e-18)
(3.75616 0.118347 0)
(3.55841 0.109761 0)
(4.01356 0.0934319 1.41639e-18)
(3.7037 0.115725 0)
(3.47267 0.128566 0)
(-0.0922846 4.6866 0)
(-0.116439 4.65821 1.07391e-20)
(-0.0887556 4.7076 6.32019e-20)
(-0.0689012 3.85439 0)
(-0.121937 4.53798 1.11236e-19)
(-0.0778417 4.25838 -6.35674e-20)
(-0.0630506 3.9577 0)
(1.41469 4.19958 0)
(1.2037 4.57267 -1.29677e-18)
(1.22123 4.48854 0)
(1.56909 4.4767 1.48397e-18)
(1.58361 4.09646 0)
(1.49259 4.35413 -6.06495e-19)
(1.02222 2.26409 -3.40249e-20)
(0.717579 1.66261 -1.74892e-18)
(0.597409 1.2402 2.13368e-18)
(0.716546 1.85493 3.9782e-19)
(0.984986 2.44864 0)
(1.04746 2.40296 0)
(0.726148 1.7055 0)
(0.538234 1.34489 -1.39884e-18)
(1.21709 3.79588 -9.84292e-19)
(1.13829 3.01509 -2.35824e-19)
(1.33694 3.42847 1.92867e-19)
(0.604755 2.06246 0)
(0.626675 1.96338 0)
(0.467132 1.58857 -3.93795e-19)
(0.966131 2.74598 0)
(2.69145 3.56886 0)
(2.39549 3.01776 -1.45456e-18)
(2.55857 3.03283 -8.58451e-20)
(2.43129 3.41143 0)
(2.30107 3.16123 2.22118e-18)
(3.28121 3.08049 -3.89451e-19)
(3.13039 3.31264 0)
(3.11312 3.13848 6.29997e-19)
(2.87237 3.4083 0)
(2.88801 3.19991 0)
(1.22164 2.02465 -9.31949e-19)
(1.42811 2.42335 -7.00316e-19)
(1.76853 3.0015 1.20687e-18)
(1.71079 2.98095 -3.62697e-19)
(1.07334 1.83933 0)
(1.21848 2.2284 4.7173e-19)
(0.725773 1.30095 -7.1663e-19)
(0.587496 1.0537 -6.19847e-22)
(1.94854 3.71114 0)
(2.2082 3.75064 -5.42427e-19)
(2.3431 3.9837 0)
(2.2888 0.528963 0)
(1.62088 0.342266 0)
(1.21197 0.277018 0)
(2.21444 0.554483 -1.46447e-18)
(1.63962 0.402766 8.16916e-19)
(2.14808 0.128997 -9.84414e-19)
(2.62966 0.297257 0)
(2.46878 0.30148 4.13197e-19)
(1.77234 0.135683 1.63185e-18)
(1.53222 0.0812704 -1.03629e-18)
(0.751826 1.56548 8.59095e-19)
(0.968724 1.83196 0)
(0.542146 1.44809 1.56309e-18)
(0.529453 1.62165 -1.42717e-18)
(0.765338 1.82287 -9.89973e-19)
(2.09041 2.4741 1.33874e-18)
(2.1141 2.72497 0)
(1.59861 1.68878 -2.76626e-19)
(2.02605 1.99966 1.74578e-18)
(1.37238 1.30139 -4.23935e-19)
(1.60176 1.32161 4.51151e-19)
(2.1237 1.51931 1.02365e-18)
(2.4572 1.67586 0)
(2.29145 1.86346 0)
(2.02459 1.61381 0)
(3.95649 2.07212 3.84263e-19)
(3.76475 1.88551 -1.26238e-18)
(3.82154 2.02255 1.04545e-18)
(3.90426 1.7662 -1.00734e-18)
(4.15626 1.66776 0)
(4.11423 1.8337 -2.97584e-19)
(2.85027 1.16389 -1.8965e-18)
(2.97966 1.16338 -2.41147e-18)
(2.34157 1.04514 1.45585e-18)
(2.14691 0.93617 -1.41963e-18)
(2.47145 0.846843 -1.17769e-18)
(2.1863 0.778352 1.44828e-18)
(4.00843 0.0332872 -1.52779e-18)
(4.05274 0.0404597 3.12793e-18)
(3.76786 -0.0660486 1.89955e-18)
(3.79107 -0.0739503 -2.28514e-18)
(3.95941 0.0102832 0)
(4.05596 0.0225773 -3.72705e-18)
(0.0846704 4.75659 1.06641e-19)
(0.0556402 4.72466 0)
(0.179014 4.72774 9.52338e-19)
(0.200455 4.74402 -8.66405e-19)
(0.220189 4.70792 4.2811e-19)
(0.111178 4.64804 0)
(-0.113877 4.76393 0)
(-0.118648 4.40665 -6.20277e-20)
(-0.117444 4.342 5.56022e-20)
(-0.126092 4.48499 7.41818e-21)
(-0.117035 4.7108 -1.01342e-19)
(-0.0944813 4.69912 5.50395e-20)
(1.88214 4.01686 -1.64245e-18)
(1.8214 4.02551 1.73982e-18)
(1.68041 4.39889 -8.53822e-19)
(1.69716 4.28383 7.61312e-20)
(2.25232 4.06688 0)
(1.84718 4.19938 -6.36417e-19)
(1.97489 3.93701 6.17221e-19)
(1.81745 4.36598 8.3402e-19)
(2.07205 4.21259 0)
(2.2249 4.09238 0)
(1.14634 3.65384 1.4963e-18)
(0.834326 2.83779 2.02737e-18)
(0.962323 3.01608 -1.39229e-18)
(0.753761 2.99919 -2.32429e-19)
(0.908514 3.75683 4.66968e-19)
(0.727943 3.39162 -1.13578e-18)
(0.754076 1.48045 -1.21757e-18)
(0.753719 1.32996 0)
(0.608737 1.12554 -1.33818e-18)
(1.122 2.08344 0)
(1.09939 2.17072 0)
(1.37269 2.20264 -1.09196e-18)
(1.07472 2.02623 -1.03731e-18)
(1.02708 2.04597 1.10017e-18)
(1.04355 1.52756 0)
(1.4252 1.77248 -6.01902e-19)
(1.64298 2.13159 -8.55878e-19)
(1.42542 2.09394 0)
(0.87774 1.82638 7.13583e-19)
(0.789386 1.68602 0)
(2.9201 2.29212 -1.84566e-18)
(3.32706 2.46876 2.60669e-18)
(3.28774 2.19181 -2.59092e-18)
(2.62511 2.02606 -2.31101e-19)
(2.73884 1.94367 -9.73734e-19)
(1.27428 2.20344 7.97186e-19)
(1.32893 2.25986 -1.36147e-18)
(1.46871 2.34324 1.79457e-18)
(1.80652 2.57367 -1.16634e-18)
(1.90504 2.94935 -1.56805e-18)
(1.57805 2.50494 -1.1884e-19)
(1.64831 2.64623 1.37273e-18)
(1.82659 2.7089 9.67126e-20)
(2.034 3.01387 6.50576e-19)
)
;

boundaryField
{
    wall-4
    {
        type            noSlip;
    }
    velocity-inlet-5
    {
        type            fixedValue;
        value           uniform (3 0 0);
    }
    velocity-inlet-6
    {
        type            fixedValue;
        value           uniform (0 1 0);
    }
    pressure-outlet-7
    {
        type            zeroGradient;
    }
    wall-8
    {
        type            noSlip;
    }
    frontAndBackPlanes
    {
        type            empty;
    }
}


// ************************************************************************* //
