/*--------------------------------*- C++ -*----------------------------------*\
  =========                 |
  \\      /  F ield         | OpenFOAM: The Open Source CFD Toolbox
   \\    /   O peration     | Website:  https://openfoam.org
    \\  /    A nd           | Version:  9
     \\/     M anipulation  |
\*---------------------------------------------------------------------------*/
FoamFile
{
    format      ascii;
    class       volScalarField;
    location    "1.11";
    object      epsilon;
}
// * * * * * * * * * * * * * * * * * * * * * * * * * * * * * * * * * * * * * //

dimensions      [0 2 -3 0 0 0 0];

internalField   nonuniform List<scalar> 
2268
(
0.0110893
0.0371508
0.0663
0.0972645
0.13249
0.179275
0.24625
0.340839
0.457097
0.577562
0.685417
0.775272
0.836069
0.871223
0.890325
0.907932
0.934756
0.976343
1.03607
0.992728
0.766134
0.377047
0.0829216
0.0197864
0.0289608
0.0439267
0.0592448
0.075509
0.0959591
0.124638
0.165192
0.216978
0.274831
0.333284
0.390195
0.44047
0.477021
0.49721
0.503275
0.500772
0.498989
0.506839
0.485836
0.404463
0.248298
0.108349
0.03381
0.0335008
0.0443805
0.056755
0.0708636
0.0894355
0.115601
0.151162
0.195094
0.243798
0.294107
0.34419
0.391109
0.427452
0.450311
0.460643
0.464068
0.468492
0.476997
0.466195
0.411926
0.295726
0.159097
0.0490635
0.039129
0.0475212
0.0591655
0.074066
0.0948002
0.123862
0.161845
0.206693
0.254864
0.304132
0.353074
0.399488
0.436969
0.463663
0.481009
0.494012
0.507697
0.522174
0.520742
0.485214
0.393445
0.238672
0.064609
0.0450296
0.051619
0.0635921
0.0807384
0.10555
0.139983
0.183405
0.232469
0.283303
0.334204
0.384323
0.431775
0.471423
0.502775
0.528138
0.551485
0.574887
0.595958
0.604951
0.593541
0.546161
0.387703
0.0796082
0.0509971
0.0563679
0.0694782
0.0900056
0.120444
0.162117
0.212926
0.268027
0.323147
0.377129
0.429771
0.479435
0.522067
0.558604
0.592124
0.625187
0.656874
0.683663
0.703153
0.72333
0.762685
0.753
0.093914
0.0569797
0.06169
0.0767057
0.101742
0.139346
0.189974
0.249674
0.311932
0.372233
0.430239
0.486429
0.539336
0.585651
0.627576
0.668652
0.709723
0.747081
0.777083
0.803943
0.856543
1.02975
1.53931
0.107703
0.0629808
0.0675666
0.0853009
0.11608
0.162497
0.223747
0.293539
0.363574
0.429489
0.49221
0.552845
0.609982
0.660625
0.707875
0.755329
0.801998
0.841645
0.871206
0.898493
0.964971
1.25725
3.00681
0.173483
0.215634
0.406453
0.845983
1.37045
1.93934
2.4678
2.62812
2.25722
1.98002
1.90406
1.80924
1.57569
1.33043
1.09426
0.847269
0.581995
0.308306
0.0620295
0.183217
0.217916
0.3904
0.636787
0.829337
0.970081
1.13372
1.20437
1.11099
1.01612
0.964245
0.906688
0.810706
0.700128
0.584879
0.464092
0.337094
0.208295
0.10328
0.257967
0.264929
0.405177
0.587022
0.716491
0.795461
0.913071
0.981846
0.938106
0.873339
0.825798
0.779466
0.710178
0.623737
0.530737
0.433567
0.332218
0.231654
0.178706
0.328477
0.312511
0.424565
0.563055
0.674196
0.731138
0.829503
0.903071
0.895502
0.842641
0.798248
0.759646
0.703116
0.626799
0.541613
0.452306
0.36013
0.272327
0.272441
0.400706
0.36313
0.45122
0.555008
0.649906
0.700402
0.78369
0.860109
0.88837
0.842337
0.802304
0.770978
0.723672
0.652641
0.571647
0.485558
0.396803
0.316437
0.377355
0.51077
0.42235
0.481783
0.558658
0.634798
0.686277
0.761177
0.838274
0.883304
0.84799
0.814598
0.79051
0.751038
0.684026
0.607982
0.524817
0.436374
0.35944
0.482157
0.779014
0.497004
0.511304
0.568956
0.628716
0.68364
0.754035
0.830587
0.875979
0.856427
0.832258
0.811567
0.773179
0.713664
0.646882
0.568265
0.47754
0.400387
0.577967
1.50623
0.593057
0.544481
0.586224
0.63472
0.692141
0.759738
0.834967
0.880749
0.869915
0.855628
0.838418
0.797683
0.740229
0.687381
0.616813
0.520208
0.437378
0.652084
0.127785
0.0722158
0.0775396
0.100808
0.14237
0.204702
0.284427
0.371306
0.454639
0.530634
0.601576
0.670438
0.735825
0.794335
0.849639
0.90471
0.95588
0.993173
1.01202
1.02144
1.04587
1.16013
1.60328
0.147658
0.0834515
0.0930331
0.128222
0.191141
0.283337
0.39517
0.508767
0.610132
0.696966
0.774826
0.85313
0.930131
0.999512
1.06433
1.12509
1.17843
1.21564
1.22688
1.2077
1.1655
1.13162
1.1499
0.161449
0.0937375
0.110806
0.16291
0.255113
0.386455
0.53715
0.679095
0.795954
0.890023
0.971352
1.06276
1.1652
1.26366
1.34886
1.41117
1.45741
1.49721
1.50174
1.4468
1.33846
1.21694
1.12098
0.169679
0.103564
0.131123
0.205609
0.3362
0.517609
0.71426
0.883373
1.01066
1.10695
1.18968
1.29283
1.42797
1.62269
1.76354
1.81598
1.8307
1.87895
1.87184
1.75612
1.55827
1.35212
1.19003
0.177148
0.114196
0.15502
0.257287
0.436054
0.68146
0.932596
1.11876
1.24087
1.33165
1.43194
1.57938
1.81304
2.07374
2.14261
2.18475
2.26808
2.37512
2.32876
2.1109
1.79559
1.4959
1.27725
0.190189
0.128925
0.184905
0.319647
0.556167
0.884318
1.19912
1.35185
1.41306
1.4903
1.61512
1.80831
2.13862
2.56343
2.65542
2.58388
2.70512
2.85538
2.73244
2.40538
1.95123
1.56373
1.31575
0.220046
0.152592
0.225305
0.396562
0.701171
1.13912
1.5031
1.47529
1.47747
1.55319
1.6839
1.84855
2.07286
2.32817
2.5443
2.75271
2.93835
3.02957
2.90624
2.4757
1.91804
1.51654
1.27742
0.276868
0.189402
0.280816
0.491912
0.872233
1.34246
1.52722
1.48042
1.48438
1.57063
1.69374
1.77659
1.89893
2.06148
2.25799
2.50391
2.71346
2.77794
2.60248
2.14687
1.69655
1.3754
1.18441
0.350687
0.236505
0.351932
0.590181
0.920726
1.21332
1.34682
1.40503
1.45359
1.52731
1.59306
1.64996
1.71185
1.81492
1.95957
2.1347
2.26447
2.26235
2.06568
1.73604
1.4274
1.20491
1.06933
0.484561
0.298673
0.412782
0.614574
0.848915
1.0526
1.1845
1.27382
1.33963
1.38483
1.42323
1.4709
1.52518
1.59333
1.69076
1.80492
1.87593
1.84345
1.66453
1.41599
1.1988
1.04689
0.958536
0.582117
0.325967
0.418666
0.584958
0.767322
0.924043
1.03983
1.12851
1.19346
1.23454
1.2643
1.29528
1.3351
1.38104
1.44122
1.5193
1.56601
1.50861
1.34141
1.15402
1.00906
0.910618
0.852008
0.598891
0.31856
0.390783
0.527426
0.677404
0.807623
0.908849
0.990375
1.05344
1.09448
1.11911
1.13886
1.16101
1.18265
1.20275
1.22067
1.21102
1.14715
1.04464
0.940169
0.856244
0.796964
0.760128
0.548814
0.285997
0.342282
0.45479
0.581381
0.694812
0.785624
0.85942
0.918328
0.958584
0.981202
0.993827
1.0029
1.00728
1.00354
0.988044
0.954659
0.906172
0.847331
0.789213
0.740718
0.705766
0.685499
0.464713
0.241346
0.285052
0.376729
0.483675
0.583896
0.666808
0.733956
0.787567
0.825438
0.846823
0.855627
0.856557
0.850315
0.835639
0.8122
0.781457
0.746954
0.710792
0.676747
0.648635
0.629581
0.62163
0.371878
0.195368
0.228504
0.301229
0.389706
0.477034
0.55238
0.613702
0.662059
0.696619
0.716587
0.723743
0.721259
0.710938
0.693765
0.671626
0.647805
0.624503
0.602517
0.583108
0.568293
0.560495
0.561781
0.287319
0.15523
0.179144
0.234628
0.305242
0.378872
0.445627
0.501165
0.544637
0.575572
0.593907
0.60067
0.598054
0.58817
0.573017
0.555175
0.537948
0.522736
0.509964
0.500175
0.49451
0.494689
0.502513
0.222668
0.124758
0.140437
0.180961
0.235049
0.29468
0.351207
0.399608
0.437978
0.465803
0.483057
0.490476
0.489652
0.482528
0.471232
0.458247
0.446431
0.436897
0.430067
0.426361
0.426564
0.431891
0.443744
0.182162
0.104797
0.113105
0.141464
0.181117
0.226554
0.271846
0.312408
0.34573
0.370789
0.387367
0.395944
0.397663
0.394091
0.387056
0.378624
0.371105
0.365537
0.362427
0.362249
0.365664
0.373605
0.387168
0.156313
0.0920171
0.0950872
0.114088
0.141989
0.175144
0.209723
0.242232
0.27024
0.292411
0.308234
0.317865
0.322025
0.321835
0.318682
0.314144
0.309994
0.307223
0.306395
0.308045
0.312806
0.321469
0.334939
0.139971
0.0839356
0.0836234
0.0959504
0.115111
0.138618
0.164082
0.189126
0.2118
0.230788
0.245399
0.255502
0.261435
0.263894
0.263828
0.262363
0.260797
0.260033
0.260627
0.263129
0.268153
0.276409
0.288676
0.129433
0.0786097
0.0762872
0.0841234
0.0971755
0.113646
0.132039
0.150827
0.16862
0.184332
0.197265
0.207117
0.213947
0.218114
0.220199
0.220955
0.221291
0.221973
0.223494
0.22637
0.231166
0.23852
0.249118
0.122055
0.0746302
0.0711993
0.0761478
0.0851121
0.0967085
0.109963
0.123915
0.137629
0.150302
0.161337
0.170387
0.177354
0.18237
0.185748
0.187959
0.189611
0.19131
0.19346
0.196502
0.200932
0.207303
0.216213
0.116147
0.0711353
0.0671273
0.0702715
0.0765762
0.0849034
0.0945821
0.104996
0.115534
0.125634
0.134836
0.142823
0.149436
0.154679
0.158695
0.161756
0.164253
0.166635
0.169212
0.17234
0.176429
0.181944
0.189391
0.11078
0.0677097
0.0634145
0.0654366
0.0700311
0.0762026
0.0834517
0.0913678
0.0995502
0.107616
0.11523
0.122135
0.128168
0.133275
0.137501
0.140991
0.143985
0.146802
0.149666
0.152851
0.156681
0.161536
0.167834
0.105558
0.0642377
0.0598114
0.0611203
0.0646068
0.0693588
0.0749728
0.0811583
0.0876456
0.0941753
0.10051
0.106453
0.111865
0.116672
0.120869
0.124525
0.127787
0.130868
0.133924
0.137156
0.140818
0.145208
0.150667
0.100415
0.0607707
0.056302
0.0571389
0.0598878
0.0636909
0.0681988
0.0731899
0.0784752
0.0838759
0.0892255
0.0943794
0.0992249
0.10369
0.107748
0.11142
0.114818
0.118056
0.121242
0.124524
0.128094
0.132185
0.137072
0.0954641
0.0574325
0.0529748
0.0534846
0.0557216
0.0588708
0.0626151
0.0667735
0.0712056
0.075785
0.0803937
0.0849266
0.0892963
0.0934403
0.0973246
0.100949
0.104403
0.107734
0.111013
0.11435
0.117887
0.121808
0.126332
0.0908853
0.0543594
0.0499435
0.0502167
0.0520819
0.0547616
0.0579611
0.0615244
0.0653417
0.0693197
0.0733735
0.0774262
0.0814115
0.0852778
0.0889921
0.0925556
0.0960183
0.0994004
0.10275
0.106142
0.109688
0.11353
0.117842
0.0868652
0.0516693
0.0473068
0.0474023
0.0489857
0.0513133
0.0541082
0.0572315
0.0605931
0.0641215
0.0677543
0.0714345
0.0751118
0.0787441
0.0823002
0.0858038
0.0892538
0.0926624
0.0960613
0.0995068
0.103082
0.106901
0.111105
0.0835636
0.0494501
0.0451349
0.0450907
0.0464525
0.0485056
0.0509876
0.0537727
0.0567846
0.0599669
0.0632724
0.0666586
0.0700867
0.0735224
0.0769541
0.0803846
0.0838043
0.0872176
0.0906458
0.0941308
0.0977385
0.10156
0.105713
0.0811053
0.0477606
0.0434691
0.0433077
0.0444889
0.0463203
0.0485518
0.0510678
0.0538024
0.0567104
0.0597551
0.0629041
0.0661272
0.0693994
0.0727201
0.0760721
0.0794452
0.0828402
0.0862716
0.0897723
0.093396
0.0972188
0.10134
0.0795822
0.0466364
0.0423285
0.0420591
0.0430861
0.0447324
0.0467575
0.0490542
0.0515647
0.0542519
0.0570864
0.0600423
0.0630944
0.0662354
0.0694465
0.0727113
0.076019
0.079368
0.0827696
0.0862506
0.0898567
0.093654
0.0977291
0.0790576
0.0460981
0.0417173
0.0413358
0.0422228
0.0437089
0.0455607
0.0476778
0.0500087
0.0525215
0.0551909
0.0579935
0.0609144
0.0639357
0.0670378
0.0702041
0.0734238
0.0766945
0.0800254
0.0834402
0.08698
0.0907042
0.0946914
0.0795631
0.0461539
0.0416288
0.0411179
0.0418677
0.0432099
0.0449163
0.0468919
0.0490892
0.0514772
0.0540301
0.0567255
0.0595418
0.0624565
0.0654491
0.0685033
0.0716086
0.0747631
0.0779756
0.0812687
0.0846809
0.0882677
0.0921028
0.0810859
0.0467972
0.0420445
0.041374
0.0419803
0.0431908
0.044782
0.0466632
0.0487858
0.0511131
0.0536105
0.0562446
0.058985
0.0618058
0.0646858
0.06761
0.0705697
0.073565
0.0766058
0.079715
0.0829298
0.0863039
0.0899073
0.0835443
0.0479964
0.042927
0.0420574
0.0425087
0.0436036
0.0451256
0.0469853
0.0491228
0.0514792
0.0539945
0.0566185
0.0593121
0.062047
0.0648045
0.0675734
0.0703499
0.0731376
0.0759492
0.0788088
0.0817534
0.0848346
0.0881199
0.0867601
0.0496798
0.0442099
0.0430989
0.043388
0.0444031
0.0459428
0.0479113
0.050207
0.0527141
0.0553348
0.0579991
0.0606636
0.0633055
0.0659151
0.0684908
0.0710368
0.073563
0.0760857
0.0786306
0.0812341
0.0839456
0.0868288
0.0904404
0.0517213
0.0457869
0.044401
0.0445406
0.0455635
0.0473062
0.0496287
0.0523015
0.0551129
0.0579194
0.0606456
0.0632637
0.0657722
0.0681816
0.0705066
0.072763
0.0749679
0.0771418
0.079311
0.0815105
0.0837857
0.0861945
0.0941778
0.053934
0.0475057
0.0458346
0.0458863
0.0471318
0.0495083
0.0526299
0.0559766
0.0592179
0.0622141
0.0649395
0.0674205
0.0696996
0.0718181
0.0738107
0.075705
0.0775246
0.0792921
0.0810329
0.082778
0.0845669
0.0864487
0.0974775
0.0560757
0.0491677
0.0472434
0.047372
0.0493833
0.053485
0.0580929
0.0623097
0.065885
0.0688609
0.0713595
0.0735023
0.0753862
0.0770816
0.0786373
0.0800872
0.0814561
0.0827652
0.0840356
0.0852922
0.0865655
0.0878929
0.0998517
0.0578611
0.0505342
0.0484506
0.0490146
0.0532291
0.0619543
0.0684007
0.0729405
0.0761653
0.0785433
0.0803841
0.0818801
0.0831495
0.0842643
0.0852686
0.0861901
0.0870473
0.0878546
0.0886261
0.0893775
0.0901281
0.0909014
0.10087
0.0588842
0.0513277
0.0492384
0.0507899
0.0625399
0.0810854
0.0867744
0.0893106
0.0907319
0.0916577
0.0923319
0.092865
0.0933119
0.0937022
0.094052
0.0943709
0.0946647
0.0949381
0.0951954
0.0954421
0.0956848
0.0959314
3.4552
2.95695
2.69931
2.6419
1.22476
1.19574
1.14305
1.07086
1.07151
1.04076
1.01263
0.987178
1.10743
1.06916
1.04431
1.03106
1.16631
1.11774
1.08961
1.07609
1.19499
1.13665
1.10103
1.08552
1.16957
1.11299
1.07213
1.04857
1.09655
1.04776
1.01097
0.987233
1.00131
0.964427
0.937049
0.919003
0.911869
0.884831
0.865162
0.852925
0.823012
0.807515
0.796827
0.791083
0.744679
0.738287
0.735404
0.735933
0.680594
0.680556
0.683442
0.689087
0.624591
0.629241
0.636503
0.646234
0.570518
0.578617
0.589122
0.60192
0.515137
0.525537
0.538139
0.552859
0.458328
0.469881
0.483403
0.498844
0.402161
0.413891
0.427362
0.442549
0.349118
0.360202
0.372827
0.386993
0.301281
0.311172
0.322412
0.335023
0.259847
0.268302
0.277912
0.288717
0.22511
0.232136
0.240126
0.249127
0.196698
0.202461
0.209009
0.21639
0.173871
0.178607
0.183969
0.190004
0.155753
0.159706
0.164153
0.169137
0.141484
0.144871
0.148647
0.152851
0.130291
0.133289
0.136596
0.140246
0.121516
0.124258
0.127251
0.130522
0.114608
0.11719
0.119979
0.123001
0.109118
0.1116
0.114259
0.117117
0.104682
0.107095
0.109664
0.112408
0.101012
0.103363
0.105855
0.108504
0.0978919
0.100168
0.102573
0.105123
0.095176
0.0973474
0.099639
0.102065
0.0927933
0.0948205
0.0969584
0.0992207
0.0907507
0.092588
0.0945258
0.0965772
0.0891363
0.0907385
0.092429
0.0942206
0.0881193
0.0894478
0.0908502
0.0923383
0.0879476
0.0889756
0.0900611
0.0912142
0.0889444
0.0896606
0.0904166
0.0912205
0.0915088
0.0919192
0.0923519
0.0928125
0.0961232
0.0962516
0.096387
0.0965314
0.964308
0.64141
0.607411
0.638333
0.675999
0.725639
0.786139
0.858484
0.908538
0.903053
0.901045
0.891359
0.846565
0.786906
0.755134
0.703339
0.583746
0.479877
0.681695
0.873952
0.775521
0.77853
0.828958
0.865138
0.856127
0.874807
0.937746
1.0066
1.00181
1.009
1.01006
0.943423
0.861972
0.832258
0.755521
0.618699
0.548595
0.764962
0.950073
0.950661
1.01264
1.11871
1.15713
1.05512
0.993072
1.04413
1.17244
1.16485
1.18302
1.21265
1.08649
0.937768
0.838969
0.755781
0.664381
0.628895
0.893187
1.02599
1.06282
1.13104
1.21079
1.20981
1.12747
1.06528
1.08357
1.17795
1.24454
1.42211
1.54872
1.27107
1.01121
0.895522
0.80512
0.712275
0.70206
0.995142
1.07112
1.09836
1.1392
1.1728
1.16827
1.12607
1.08727
1.08742
1.14943
1.25172
1.5494
1.83778
1.44137
1.1138
0.954718
0.837045
0.750509
0.760632
1.06934
1.08119
1.10053
1.12685
1.142
1.14167
1.11211
1.08435
1.09064
1.12398
1.19621
1.3976
1.67676
1.52991
1.19743
1.01235
0.875931
0.784126
0.785836
1.10058
1.03249
1.0453
1.06884
1.08359
1.08542
1.06864
1.04901
1.04579
1.06325
1.11816
1.25247
1.4287
1.43904
1.26585
1.11097
0.953354
0.823048
0.790444
1.05603
0.966776
0.972932
0.992103
1.01036
1.01798
1.01164
0.999003
0.993834
1.00716
1.05314
1.15025
1.27439
1.32208
1.32644
1.28143
1.08983
0.86574
0.780518
0.94916
0.902994
0.909172
0.929159
0.951753
0.968338
0.96979
0.962157
0.958949
0.973336
1.01476
1.09244
1.19518
1.26286
1.31755
1.30404
1.12566
0.89389
0.737454
0.811072
0.843338
0.852354
0.874353
0.899841
0.921174
0.931987
0.935641
0.939771
0.955978
0.992762
1.05761
1.15615
1.22993
1.27588
1.20533
1.03708
0.835418
0.662296
0.651057
0.788839
0.802321
0.826242
0.854513
0.881441
0.902618
0.917734
0.930012
0.946907
0.978326
1.03063
1.107
1.17376
1.19406
1.11168
0.970338
0.791903
0.588775
0.563877
0.741567
0.762429
0.792022
0.826016
0.859795
0.889151
0.911928
0.92865
0.943155
0.962859
0.994034
1.03695
1.07663
1.07551
1.01043
0.911277
0.77971
0.525429
0.445838
0.701875
0.730983
0.768078
0.809521
0.851004
0.888042
0.917266
0.936988
0.947821
0.954232
0.961868
0.971396
0.974849
0.953118
0.893684
0.809585
0.694109
0.534521
0.503812
0.665263
0.702314
0.74705
0.796081
0.845166
0.889652
0.925433
0.949303
0.959628
0.95825
0.949737
0.936788
0.916267
0.878935
0.817177
0.735834
0.641637
0.555539
0.598256
0.625982
0.669557
0.720615
0.775874
0.831117
0.881694
0.923192
0.951717
0.964618
0.961964
0.947319
0.924386
0.89283
0.84749
0.782732
0.702548
0.62213
0.569585
0.683357
0.580323
0.628118
0.683174
0.742282
0.801246
0.8554
0.90024
0.93174
0.946984
0.945348
0.92963
0.902991
0.866003
0.81594
0.750153
0.673776
0.604829
0.571921
0.75214
0.527812
0.577045
0.633337
0.693539
0.75347
0.808406
0.853769
0.885641
0.901294
0.900131
0.884283
0.856109
0.816652
0.765405
0.702948
0.635585
0.580239
0.56427
0.801039
0.470761
0.518519
0.573363
0.632053
0.690452
0.743866
0.787692
0.818102
0.832768
0.83141
0.815658
0.7875
0.748617
0.700336
0.645238
0.591063
0.550419
0.550425
0.833392
0.413254
0.456873
0.507655
0.562708
0.617677
0.667971
0.709153
0.737532
0.751041
0.74973
0.734977
0.708745
0.67334
0.631308
0.586202
0.546182
0.520024
0.535875
0.858899
0.35844
0.396921
0.44182
0.491096
0.541379
0.587604
0.625729
0.65223
0.665221
0.664876
0.65248
0.630071
0.600349
0.566446
0.532798
0.505555
0.492491
0.522104
0.875667
0.308844
0.34176
0.38038
0.423102
0.467158
0.508735
0.543781
0.568769
0.582017
0.583637
0.574844
0.557677
0.534923
0.509859
0.487367
0.471214
0.468692
0.508775
0.881063
0.265951
0.293416
0.325864
0.362095
0.399932
0.436334
0.4679
0.49159
0.505618
0.509885
0.505453
0.494277
0.479123
0.463164
0.450064
0.442952
0.448689
0.49624
0.878096
0.230214
0.252759
0.279569
0.309798
0.341811
0.373247
0.401372
0.42365
0.43841
0.445525
0.445697
0.440637
0.43279
0.424947
0.419738
0.419922
0.431991
0.484487
0.868104
0.201307
0.219699
0.241674
0.266679
0.293537
0.320479
0.34539
0.366236
0.381584
0.39126
0.395676
0.396202
0.394836
0.393825
0.395093
0.401069
0.417868
0.473244
0.851578
0.178447
0.193522
0.211571
0.232258
0.254774
0.277843
0.299884
0.31933
0.335041
0.346762
0.354723
0.359937
0.363938
0.368456
0.374887
0.385334
0.405541
0.462196
0.829246
0.160664
0.17321
0.18821
0.205485
0.224501
0.244369
0.263944
0.282045
0.297889
0.311093
0.321782
0.330667
0.338857
0.347636
0.358001
0.371734
0.394238
0.451071
0.803465
0.146982
0.157675
0.170397
0.185072
0.201369
0.218686
0.236221
0.253125
0.268851
0.283008
0.295638
0.307206
0.318464
0.330293
0.343475
0.359429
0.383277
0.439752
0.779825
0.136512
0.145894
0.156967
0.169724
0.183971
0.199314
0.215211
0.231081
0.246506
0.261167
0.275046
0.288418
0.301747
0.315573
0.330546
0.347815
0.372271
0.428337
0.762385
0.128489
0.136967
0.146878
0.158254
0.170992
0.184843
0.199443
0.214425
0.229446
0.244264
0.258829
0.273273
0.287842
0.302825
0.318648
0.336542
0.36114
0.416728
0.747185
0.122269
0.130135
0.13924
0.149638
0.161282
0.174022
0.187617
0.201829
0.216392
0.231116
0.245931
0.260867
0.276014
0.291484
0.307556
0.325383
0.349836
0.404624
0.728916
0.117326
0.124769
0.13331
0.143014
0.15387
0.165786
0.178606
0.192156
0.206237
0.220697
0.235445
0.250443
0.265671
0.281127
0.297002
0.314421
0.338266
0.391968
0.70734
0.113233
0.120356
0.128481
0.137676
0.147952
0.159252
0.171464
0.184452
0.198059
0.21215
0.226621
0.241385
0.256351
0.271453
0.286841
0.303636
0.326677
0.378909
0.684778
0.109661
0.116498
0.124273
0.133059
0.142881
0.153699
0.165427
0.17794
0.191102
0.204782
0.218858
0.233209
0.247704
0.26225
0.276995
0.293065
0.315181
0.365441
0.663342
0.106376
0.112899
0.120322
0.128726
0.138145
0.148557
0.159883
0.171997
0.184764
0.198042
0.211686
0.225546
0.239471
0.253366
0.267407
0.282728
0.303897
0.352031
0.640227
0.103241
0.109375
0.116385
0.124366
0.133369
0.143388
0.154355
0.166133
0.178575
0.19151
0.204757
0.218133
0.231476
0.244708
0.258044
0.272648
0.292958
0.339127
0.615465
0.100226
0.105858
0.112344
0.119801
0.128306
0.137884
0.14849
0.15998
0.172184
0.184881
0.197833
0.21081
0.223635
0.236254
0.248943
0.262918
0.282599
0.327833
0.59909
0.0974123
0.102408
0.108225
0.115003
0.122862
0.131878
0.142061
0.15329
0.165364
0.177982
0.190805
0.203534
0.215966
0.228079
0.240223
0.253714
0.273075
0.318411
0.589616
0.0949946
0.0992179
0.1042
0.110108
0.117111
0.125367
0.134985
0.145955
0.15804
0.170793
0.183716
0.196399
0.208607
0.220355
0.23209
0.245284
0.264706
0.310937
0.584224
0.0932771
0.0966104
0.100601
0.105431
0.111321
0.118534
0.127359
0.138014
0.150331
0.163515
0.176808
0.189667
0.201832
0.213365
0.224837
0.237939
0.257846
0.305773
0.583393
0.0926617
0.0950277
0.0979033
0.101465
0.105961
0.111756
0.119398
0.129591
0.142601
0.156636
0.170574
0.183789
0.196045
0.207486
0.218823
0.232008
0.252758
0.303461
0.590778
0.0936399
0.0950184
0.096719
0.0988764
0.101707
0.105605
0.11136
0.120581
0.135507
0.150958
0.165722
0.179349
0.191738
0.203148
0.214436
0.227811
0.249613
0.304506
0.613727
0.0967919
0.0972321
0.0977827
0.0984957
0.0994663
0.10091
0.103453
0.109503
0.130139
0.147437
0.162939
0.176871
0.189356
0.20076
0.212046
0.225624
0.248514
0.30885
0.653721
)
;

boundaryField
{
    leftWall
    {
        type            epsilonWallFunction;
        value           nonuniform List<scalar> 
50
(
0.0110893
0.0197864
0.03381
0.0490635
0.064609
0.0796082
0.093914
0.107703
0.127785
0.147658
0.161449
0.169679
0.177148
0.190189
0.220046
0.276868
0.350687
0.484561
0.582117
0.598891
0.548814
0.464713
0.371878
0.287319
0.222668
0.182162
0.156313
0.139971
0.129433
0.122055
0.116147
0.11078
0.105558
0.100415
0.0954641
0.0908853
0.0868652
0.0835636
0.0811053
0.0795822
0.0790576
0.0795631
0.0810859
0.0835443
0.0867601
0.0904404
0.0941778
0.0974775
0.0998517
0.10087
)
;
    }
    rightWall
    {
        type            epsilonWallFunction;
        value           nonuniform List<scalar> 
50
(
0.0620295
0.10328
0.178706
0.272441
0.377355
0.482157
0.577967
0.652084
0.681695
0.764962
0.893187
0.995142
1.06934
1.10058
1.05603
0.94916
0.811072
0.651057
0.563877
0.445838
0.503812
0.598256
0.683357
0.75214
0.801039
0.833392
0.858899
0.875667
0.881063
0.878096
0.868104
0.851578
0.829246
0.803465
0.779825
0.762385
0.747185
0.728916
0.70734
0.684778
0.663342
0.640227
0.615465
0.59909
0.589616
0.584224
0.583393
0.590778
0.613727
0.653721
)
;
    }
    lowerWall
    {
        type            epsilonWallFunction;
        value           nonuniform List<scalar> 
62
(
0.0110893
0.0371508
0.0663
0.0972645
0.13249
0.179275
0.24625
0.340839
0.457097
0.577562
0.685417
0.775272
0.836069
0.871223
0.890325
0.907932
0.934756
0.976343
1.03607
0.992728
0.766134
0.377047
0.0829216
0.0829216
0.108349
0.159097
0.238672
0.387703
0.753
1.53931
3.00681
3.4552
2.95695
2.69931
2.6419
0.173483
0.183217
0.257967
0.328477
0.400706
0.51077
0.779014
1.50623
0.173483
0.215634
0.406453
0.845983
1.37045
1.93934
2.4678
2.62812
2.25722
1.98002
1.90406
1.80924
1.57569
1.33043
1.09426
0.847269
0.581995
0.308306
0.0620295
)
;
    }
    atmosphere
    {
        type            inletOutlet;
        inletValue      uniform 0.1;
        value           nonuniform List<scalar> 
46
(
0.10087
0.0588842
0.0513277
0.0492384
0.0507899
0.1
0.1
0.1
0.1
0.1
0.1
0.1
0.1
0.1
0.1
0.1
0.1
0.1
0.1
0.1
0.1
0.1
0.1
0.1
0.1
0.1
0.1
0.1
0.1
0.1
0.1
0.1
0.1
0.1
0.1
0.130139
0.147437
0.162939
0.176871
0.189356
0.20076
0.212046
0.225624
0.248514
0.30885
0.653721
)
;
    }
    defaultFaces
    {
        type            empty;
    }
}


// ************************************************************************* //
