/*--------------------------------*- C++ -*----------------------------------*\
  =========                 |
  \\      /  F ield         | OpenFOAM: The Open Source CFD Toolbox
   \\    /   O peration     | Website:  https://openfoam.org
    \\  /    A nd           | Version:  9
     \\/     M anipulation  |
\*---------------------------------------------------------------------------*/
FoamFile
{
    format      ascii;
    class       volScalarField;
    location    "1.11";
    object      k;
}
// * * * * * * * * * * * * * * * * * * * * * * * * * * * * * * * * * * * * * //

dimensions      [0 2 -2 0 0 0 0];

internalField   nonuniform List<scalar> 
2268
(
0.00233605
0.00425957
0.00625977
0.0080884
0.00995285
0.0121961
0.0150974
0.0187576
0.022783
0.0265762
0.0297476
0.0322513
0.0338796
0.0348065
0.0353282
0.0358348
0.0366021
0.0377602
0.0393283
0.0382354
0.0321642
0.0200338
0.00730302
0.0046131
0.0107072
0.0151687
0.019233
0.0235378
0.0287495
0.0353507
0.0431779
0.0515699
0.0596365
0.0667547
0.0724806
0.0766633
0.0790575
0.0802735
0.0811391
0.0823833
0.0840648
0.084867
0.0812179
0.0691864
0.0456623
0.0143644
0.00658731
0.0150569
0.0207639
0.0260897
0.0318965
0.0389625
0.0476656
0.0577438
0.068384
0.0785986
0.0877718
0.095452
0.10143
0.105281
0.107545
0.109055
0.110541
0.111884
0.111654
0.105957
0.090504
0.0620916
0.0185443
0.00843606
0.0187586
0.0254019
0.0317656
0.0389045
0.0476235
0.0581943
0.0701966
0.0826474
0.0945095
0.105221
0.114382
0.121738
0.126796
0.13009
0.132457
0.13452
0.135867
0.13482
0.127575
0.109856
0.0776738
0.0243151
0.0101322
0.0220604
0.0295946
0.0369805
0.0454892
0.0559175
0.0684282
0.0823682
0.0965487
0.109904
0.121939
0.13236
0.140857
0.146961
0.151258
0.154618
0.157499
0.159158
0.157511
0.149247
0.130291
0.0959091
0.0336611
0.011645
0.02509
0.0335356
0.0420063
0.0519924
0.0642985
0.078918
0.0948972
0.110812
0.125588
0.13885
0.150414
0.159933
0.166975
0.172232
0.176612
0.180368
0.182402
0.18048
0.17181
0.152775
0.118371
0.0525613
0.0130012
0.0279033
0.0373169
0.0469773
0.0586106
0.0730179
0.0899523
0.108085
0.125741
0.141884
0.15632
0.168977
0.179463
0.187373
0.19352
0.198843
0.203383
0.20576
0.203834
0.195387
0.17758
0.145909
0.0847092
0.0142466
0.0305405
0.0409924
0.0519851
0.06548
0.0822486
0.101713
0.122095
0.141466
0.158909
0.17449
0.188224
0.199667
0.208405
0.215351
0.221463
0.226596
0.229182
0.227439
0.219764
0.204252
0.17829
0.132176
0.0118336
0.0136359
0.0206378
0.0337966
0.0467506
0.0589982
0.0694703
0.072601
0.0656009
0.0600671
0.0584908
0.0565861
0.0516571
0.0462007
0.0405944
0.0342679
0.0267162
0.0175208
0.0075009
0.0216596
0.0324944
0.0478579
0.0711164
0.0961319
0.11938
0.139161
0.148404
0.141393
0.132862
0.128139
0.123319
0.11468
0.103808
0.0919418
0.0784167
0.0623118
0.0427959
0.0149543
0.0271836
0.0469561
0.0661504
0.0933782
0.122395
0.146921
0.170405
0.183265
0.178394
0.169406
0.16311
0.157151
0.147396
0.13453
0.119834
0.103109
0.0833128
0.0592409
0.0216063
0.0319465
0.0600009
0.0814495
0.108861
0.139612
0.164319
0.18897
0.204595
0.204007
0.195227
0.188129
0.181756
0.171672
0.157727
0.14132
0.122491
0.100282
0.0731834
0.0286319
0.0366096
0.0725942
0.0956789
0.121567
0.151533
0.176871
0.201305
0.218841
0.223813
0.215468
0.208201
0.201914
0.191905
0.177184
0.159647
0.139223
0.115001
0.0853006
0.0355532
0.0434412
0.0857369
0.109271
0.133183
0.160743
0.186927
0.211165
0.229898
0.238249
0.231412
0.224625
0.218741
0.209002
0.193758
0.175705
0.154185
0.128016
0.0956412
0.0418118
0.0582449
0.100462
0.122572
0.144539
0.169389
0.195868
0.219921
0.2394
0.248719
0.24451
0.238865
0.233013
0.22274
0.207707
0.190063
0.167961
0.139677
0.104369
0.0471249
0.0905619
0.119326
0.137401
0.156892
0.179109
0.20499
0.228636
0.248469
0.258596
0.256086
0.251866
0.246174
0.23498
0.219442
0.203104
0.181079
0.150196
0.111313
0.0510511
0.0159588
0.03438
0.0465969
0.0598946
0.0765853
0.0973331
0.120946
0.144941
0.167088
0.186672
0.204014
0.219439
0.232426
0.242448
0.25051
0.257548
0.263218
0.265708
0.263376
0.255736
0.241986
0.221728
0.192279
0.0175794
0.038814
0.0539207
0.0711874
0.0934262
0.120859
0.150985
0.180109
0.20564
0.227203
0.245719
0.262585
0.277161
0.288517
0.297698
0.305484
0.311862
0.315499
0.314323
0.307066
0.293839
0.27693
0.259686
0.0186711
0.0427293
0.0611837
0.0833259
0.112404
0.147794
0.185152
0.219349
0.247604
0.270314
0.289187
0.307783
0.325817
0.340966
0.352553
0.360328
0.365851
0.370308
0.369289
0.359606
0.341986
0.320961
0.301465
0.0193374
0.046214
0.0685354
0.0964869
0.133714
0.178385
0.223649
0.262489
0.292554
0.315438
0.334049
0.353706
0.375968
0.403941
0.422118
0.428244
0.429522
0.434529
0.431932
0.415662
0.388739
0.359609
0.334846
0.0199463
0.0497249
0.0763623
0.11088
0.157414
0.212896
0.266854
0.308693
0.338167
0.359944
0.380364
0.405219
0.439547
0.473727
0.482002
0.487579
0.497633
0.508527
0.500406
0.472512
0.43263
0.393229
0.362559
0.0209584
0.0540955
0.085364
0.12685
0.183479
0.251609
0.314738
0.352297
0.373225
0.392701
0.415697
0.445275
0.490318
0.542643
0.552556
0.545514
0.560344
0.575395
0.558446
0.518464
0.462665
0.412558
0.378598
0.0231523
0.060881
0.0967542
0.145181
0.212436
0.295553
0.364302
0.37754
0.390115
0.409208
0.432825
0.458234
0.489359
0.522059
0.547969
0.572832
0.594119
0.60258
0.586197
0.535006
0.466584
0.413974
0.380695
0.0270101
0.0700715
0.111532
0.166753
0.244522
0.329869
0.373158
0.383046
0.395725
0.416389
0.439162
0.453691
0.471866
0.493638
0.518126
0.547936
0.572461
0.57889
0.557202
0.501793
0.443779
0.399654
0.371985
0.0317044
0.082636
0.129635
0.188542
0.256868
0.315552
0.35023
0.374117
0.393126
0.412082
0.426848
0.438526
0.449222
0.46415
0.483375
0.505778
0.521917
0.521337
0.496442
0.453265
0.410295
0.37768
0.357072
0.0393365
0.0968964
0.144824
0.196414
0.248329
0.29313
0.326919
0.354231
0.375266
0.389894
0.40098
0.412166
0.422848
0.434123
0.448589
0.464819
0.474831
0.470693
0.446335
0.410475
0.377629
0.353935
0.340232
0.0444802
0.103176
0.147826
0.192832
0.235842
0.272899
0.303399
0.329372
0.349622
0.363603
0.373758
0.382819
0.392125
0.40124
0.411727
0.424549
0.43233
0.424329
0.399172
0.369696
0.346333
0.330435
0.321429
0.0453573
0.101952
0.142618
0.18221
0.219678
0.25214
0.279536
0.303333
0.322692
0.336562
0.346053
0.353531
0.360428
0.366373
0.371417
0.375694
0.375137
0.365257
0.348554
0.33129
0.317549
0.308304
0.303292
0.0428118
0.0950704
0.131751
0.166912
0.200404
0.229864
0.254907
0.276599
0.294707
0.308214
0.317331
0.323635
0.328452
0.33174
0.333058
0.331883
0.327182
0.319479
0.309869
0.300519
0.293191
0.2887
0.287244
0.0383369
0.0849133
0.117645
0.148896
0.17907
0.206189
0.229436
0.249347
0.266017
0.27879
0.287512
0.293022
0.296329
0.297705
0.297066
0.294457
0.290196
0.285086
0.279768
0.275138
0.27203
0.271076
0.27259
0.0330519
0.0735877
0.10242
0.12996
0.15698
0.181878
0.20354
0.221953
0.23723
0.249063
0.25728
0.262296
0.264825
0.265341
0.264169
0.261799
0.258954
0.256226
0.253966
0.252569
0.252512
0.254282
0.25819
0.0278154
0.0627032
0.0878107
0.111768
0.135615
0.158167
0.178198
0.195281
0.209326
0.220175
0.227837
0.232579
0.234933
0.235438
0.234629
0.233158
0.231797
0.230965
0.230884
0.231769
0.233916
0.237682
0.243345
0.0234111
0.0532749
0.0750662
0.0957014
0.116422
0.136511
0.154676
0.170293
0.183149
0.193197
0.200481
0.205224
0.207848
0.20887
0.208861
0.208464
0.208381
0.208944
0.210332
0.212709
0.216291
0.221337
0.228064
0.0204179
0.0459268
0.064899
0.0826389
0.100388
0.117743
0.133815
0.147933
0.159765
0.169212
0.176319
0.181275
0.184423
0.186208
0.187139
0.187775
0.188702
0.190214
0.192489
0.195686
0.199993
0.205619
0.212743
0.0183868
0.0408097
0.0574061
0.0726609
0.0877416
0.102544
0.116517
0.129105
0.139949
0.148888
0.15592
0.161181
0.164928
0.167513
0.169343
0.170863
0.172538
0.174643
0.177361
0.180862
0.185332
0.190963
0.197922
0.0170426
0.0374222
0.0521876
0.0654632
0.078358
0.0909754
0.103029
0.114138
0.123993
0.132412
0.139344
0.144858
0.149126
0.152395
0.154967
0.157173
0.159369
0.16181
0.164676
0.168148
0.172415
0.177669
0.184077
0.0161498
0.0352154
0.0486538
0.0604396
0.071654
0.0825298
0.092969
0.10275
0.111647
0.1195
0.126233
0.131857
0.136468
0.140222
0.143325
0.146014
0.148549
0.151157
0.154007
0.157281
0.161165
0.165851
0.171511
0.0155146
0.0337136
0.0462076
0.0569047
0.0668743
0.0764264
0.0855849
0.0942473
0.102274
0.109541
0.115973
0.121548
0.126305
0.130333
0.13376
0.136748
0.139484
0.142157
0.14492
0.147939
0.151396
0.155473
0.160343
0.0150018
0.0325744
0.0443712
0.0542666
0.0633218
0.0718883
0.0800632
0.0878244
0.0950987
0.101804
0.107876
0.113282
0.118027
0.122153
0.125735
0.128878
0.131714
0.134394
0.137049
0.139826
0.142887
0.146406
0.150549
0.0145323
0.0315874
0.0428274
0.0521057
0.0604742
0.0683026
0.0757282
0.0827783
0.0894261
0.0956239
0.101325
0.106496
0.111126
0.115231
0.11885
0.122047
0.124915
0.127573
0.130125
0.132698
0.135433
0.138487
0.142016
0.0140704
0.0306462
0.0414035
0.0501756
0.0580044
0.065264
0.0721108
0.0786004
0.0847356
0.0904938
0.0958442
0.10076
0.105224
0.109238
0.11282
0.116009
0.118869
0.12149
0.123956
0.126371
0.128856
0.13155
0.134595
0.013609
0.0297171
0.0400322
0.0483653
0.0557468
0.0625488
0.0689351
0.0749757
0.080691
0.0860754
0.091111
0.0957774
0.100059
0.10395
0.107455
0.110597
0.113429
0.116011
0.118409
0.120709
0.123015
0.125445
0.128129
0.0131574
0.0288098
0.0387122
0.0466518
0.0536466
0.0600642
0.0660699
0.0717405
0.0771065
0.0821728
0.0869308
0.0913667
0.0954669
0.0992227
0.102634
0.105712
0.108505
0.111049
0.113397
0.115617
0.117799
0.120046
0.122473
0.0127327
0.0279564
0.0374769
0.0450608
0.0517136
0.0577976
0.0634776
0.0688334
0.0739011
0.0786925
0.0832053
0.0874307
0.0913579
0.0949782
0.0982886
0.1013
0.104047
0.106553
0.108861
0.111028
0.113129
0.115254
0.117506
0.0123536
0.0271964
0.0363725
0.0436384
0.0499873
0.0557769
0.0611713
0.0662518
0.0710581
0.0756064
0.0798993
0.0839317
0.0876954
0.0911823
0.0943877
0.097333
0.100029
0.102498
0.104771
0.106899
0.108946
0.110992
0.113126
0.0120377
0.0265678
0.0354452
0.0424329
0.0485144
0.0540438
0.0591848
0.0640204
0.0685931
0.0729225
0.0770149
0.0808682
0.0844767
0.0878331
0.0909411
0.0938115
0.0964508
0.0988752
0.101113
0.103207
0.105213
0.107203
0.109258
0.0117995
0.0261029
0.0347338
0.0414853
0.0473355
0.0526368
0.0575533
0.0621703
0.0665328
0.0706637
0.0745719
0.0782583
0.081719
0.08495
0.0879601
0.0907489
0.0933219
0.0956931
0.0978875
0.0999426
0.101909
0.103851
0.105843
0.0116504
0.0258256
0.034266
0.0408241
0.0464787
0.051583
0.0563032
0.0607271
0.0649026
0.0688552
0.0725962
0.0761282
0.0794487
0.0825634
0.0854699
0.0881681
0.0906629
0.0929674
0.0951044
0.097108
0.0990251
0.100914
0.102844
0.0115982
0.0257506
0.0340566
0.0404623
0.0459556
0.0508939
0.0554471
0.0597061
0.0637214
0.06752
0.0711144
0.074508
0.0777041
0.0807021
0.0834995
0.0860968
0.0884994
0.0907201
0.0927807
0.0947138
0.0965629
0.0983827
0.100237
0.0116465
0.0258815
0.0341055
0.0403966
0.0457612
0.0505655
0.0549849
0.0591136
0.0630034
0.0666805
0.0701561
0.0734345
0.0765161
0.0793988
0.0820813
0.084566
0.0868597
0.0889765
0.0909382
0.0927765
0.0945329
0.0962587
0.098014
0.0117935
0.0262084
0.0343965
0.0406066
0.0458747
0.0505809
0.0549086
0.0589547
0.0627677
0.0663682
0.0697619
0.0729485
0.0759258
0.0786933
0.0812527
0.0836099
0.0857751
0.0877646
0.0896016
0.0913176
0.0929525
0.094555
0.0961813
0.0120291
0.0267053
0.0348958
0.0410554
0.0462619
0.0509165
0.055214
0.059249
0.0630568
0.0666414
0.0699947
0.0731115
0.0759909
0.0786371
0.0810587
0.0832676
0.0852796
0.087115
0.088799
0.0903633
0.0918466
0.0932945
0.0947596
0.0123338
0.0273291
0.0355522
0.0416917
0.0468808
0.0515546
0.0559229
0.060063
0.06397
0.0676109
0.0709632
0.0740217
0.0767946
0.0792987
0.0815545
0.0835844
0.0854119
0.0870619
0.0885626
0.0899456
0.0912478
0.0925117
0.093785
0.0126777
0.0280191
0.0362991
0.0424535
0.0476919
0.052509
0.0571354
0.0615745
0.0657178
0.0694847
0.0728493
0.0758265
0.0784513
0.0807648
0.0828067
0.0846129
0.0862157
0.0876451
0.0889308
0.0901041
0.091199
0.0922534
0.0933094
0.0130218
0.0287001
0.0370579
0.0432742
0.048676
0.0538847
0.0591583
0.0641992
0.0687173
0.072615
0.0759232
0.0787226
0.081101
0.0831359
0.0848899
0.0864122
0.087742
0.088912
0.0899517
0.0908897
0.0917557
0.0925817
0.0934026
0.0133212
0.0292879
0.0377443
0.0440903
0.0498658
0.0560179
0.0628319
0.0688333
0.0736875
0.0775075
0.0805184
0.0829257
0.0848862
0.0865116
0.08788
0.0890463
0.0900501
0.0909219
0.091687
0.0923689
0.092991
0.0935776
0.0941549
0.0135339
0.0297029
0.0382766
0.0448389
0.0513606
0.0597854
0.0702528
0.0770881
0.0815934
0.0846889
0.0869167
0.0885943
0.0899078
0.0909687
0.091846
0.0925836
0.0932113
0.0937506
0.0942185
0.0946304
0.0950012
0.0953462
0.0956817
0.013624
0.0299163
0.0385834
0.0453975
0.0531293
0.0686632
0.0856091
0.0907818
0.0930342
0.0942994
0.0951274
0.0957239
0.0961815
0.0965479
0.0968494
0.0971019
0.0973158
0.0974983
0.097655
0.0977912
0.097912
0.0980227
0.0981287
0.14563
0.131495
0.123902
0.122285
0.247202
0.240183
0.233883
0.228004
0.289484
0.283097
0.278032
0.274189
0.321113
0.314439
0.309837
0.307108
0.345841
0.33818
0.333465
0.330884
0.361032
0.35218
0.346541
0.3439
0.365006
0.356366
0.349838
0.345897
0.358856
0.351173
0.345128
0.341068
0.346505
0.340528
0.335945
0.332825
0.332939
0.328494
0.325197
0.323129
0.317233
0.314943
0.313407
0.312673
0.301825
0.301457
0.301639
0.302334
0.288197
0.28934
0.290936
0.292914
0.27554
0.277912
0.280686
0.283784
0.262718
0.26607
0.269796
0.27382
0.249012
0.253078
0.257495
0.262193
0.234339
0.238816
0.243622
0.248698
0.219166
0.223764
0.228672
0.233843
0.204101
0.208553
0.213305
0.21832
0.189731
0.193838
0.198233
0.202891
0.176492
0.180137
0.184052
0.188223
0.164619
0.167764
0.171155
0.174788
0.154167
0.156837
0.159723
0.162828
0.145072
0.147326
0.149766
0.152399
0.137198
0.139113
0.141184
0.14342
0.130387
0.132038
0.13382
0.135742
0.12448
0.125937
0.127501
0.129184
0.119336
0.120653
0.122062
0.12357
0.114836
0.116057
0.117354
0.118738
0.110884
0.112037
0.113256
0.11455
0.107407
0.108508
0.109667
0.110894
0.104351
0.105405
0.106512
0.107681
0.10168
0.102684
0.103737
0.104846
0.0993772
0.100321
0.101309
0.10235
0.0974425
0.0983113
0.0992208
0.100179
0.0958939
0.0966715
0.0974855
0.0983434
0.0947685
0.0954393
0.0961415
0.0968823
0.0941223
0.0946737
0.095251
0.0958605
0.0940314
0.0944556
0.0948995
0.0953687
0.0945942
0.0948887
0.0951967
0.0955226
0.0959346
0.096103
0.096279
0.0964655
0.0982079
0.0982602
0.0983148
0.098373
0.144622
0.154441
0.165663
0.181042
0.199211
0.221217
0.242563
0.262202
0.273919
0.273055
0.270799
0.265749
0.253327
0.236476
0.222143
0.201199
0.16414
0.118081
0.0526199
0.219073
0.214955
0.220289
0.23353
0.247696
0.256128
0.268144
0.285743
0.300801
0.300375
0.299039
0.294585
0.278027
0.256582
0.240489
0.212933
0.170439
0.125954
0.0563313
0.269777
0.270875
0.281446
0.29974
0.310916
0.301709
0.297954
0.312294
0.336279
0.335014
0.334086
0.332169
0.306106
0.272981
0.244197
0.214724
0.178316
0.135589
0.0620493
0.30544
0.310371
0.320805
0.334006
0.336544
0.326853
0.320184
0.326689
0.3441
0.353647
0.375396
0.384745
0.337253
0.287086
0.255301
0.224038
0.185938
0.143019
0.0666059
0.329268
0.332577
0.33846
0.34379
0.343757
0.3379
0.332646
0.33394
0.344316
0.35859
0.397138
0.426268
0.364338
0.305325
0.266454
0.229706
0.190545
0.146238
0.0698008
0.342758
0.345046
0.348454
0.350197
0.349499
0.34398
0.338876
0.33948
0.343779
0.352675
0.377893
0.40829
0.378961
0.319787
0.276318
0.235041
0.193139
0.146941
0.0711312
0.342893
0.34424
0.347305
0.348636
0.347454
0.342799
0.337503
0.33486
0.335288
0.340815
0.356435
0.374209
0.367158
0.330385
0.290267
0.243648
0.193771
0.142315
0.0692103
0.3373
0.33771
0.340122
0.341809
0.34089
0.336793
0.331043
0.326311
0.324697
0.328138
0.338264
0.349823
0.348335
0.336851
0.311254
0.257501
0.19226
0.134167
0.064444
0.329883
0.330505
0.333047
0.335134
0.335011
0.330993
0.324405
0.318196
0.315194
0.316904
0.323689
0.332559
0.333765
0.328517
0.306993
0.255115
0.18864
0.124752
0.0579479
0.321448
0.322696
0.325476
0.3276
0.327426
0.323777
0.317572
0.310831
0.306343
0.305782
0.309534
0.317201
0.318334
0.310688
0.281383
0.232383
0.170778
0.108232
0.0500549
0.312578
0.31479
0.317759
0.319912
0.319922
0.316964
0.311311
0.304196
0.297728
0.294065
0.294022
0.297028
0.295903
0.283982
0.253542
0.211004
0.157955
0.0991905
0.0457132
0.304103
0.308004
0.312043
0.314964
0.315628
0.313234
0.307699
0.299739
0.290835
0.282921
0.277309
0.273291
0.267058
0.251748
0.223993
0.188342
0.144807
0.0857898
0.0392249
0.296524
0.302472
0.308182
0.31252
0.314386
0.312904
0.307728
0.299138
0.288063
0.276108
0.264823
0.253951
0.241369
0.223223
0.197481
0.166613
0.13071
0.0877275
0.0424305
0.289133
0.297249
0.304931
0.311083
0.314604
0.314562
0.310428
0.302159
0.290279
0.276063
0.261038
0.24572
0.229324
0.210051
0.186829
0.160866
0.132527
0.0965664
0.0475761
0.280707
0.290849
0.300486
0.308541
0.313919
0.315669
0.313163
0.306174
0.294994
0.280608
0.264424
0.247527
0.230065
0.211302
0.190463
0.167551
0.141359
0.106199
0.0520215
0.270284
0.282066
0.293369
0.303143
0.310301
0.313882
0.313206
0.307957
0.298295
0.284987
0.269328
0.252568
0.235284
0.217255
0.197819
0.176234
0.150171
0.114681
0.0554984
0.257548
0.270402
0.282899
0.294011
0.302661
0.307867
0.308904
0.30541
0.297467
0.285699
0.271263
0.255353
0.238684
0.221299
0.202652
0.18166
0.156024
0.12077
0.0579211
0.242852
0.25609
0.269215
0.28118
0.290914
0.297422
0.299933
0.29803
0.291756
0.28164
0.268681
0.25395
0.238196
0.221609
0.203752
0.183505
0.158731
0.124316
0.05951
0.22709
0.239959
0.25306
0.265369
0.27575
0.283197
0.286918
0.286444
0.281762
0.273331
0.261997
0.248702
0.234177
0.218683
0.201857
0.182708
0.159013
0.125714
0.0607585
0.211083
0.223142
0.235618
0.247669
0.258282
0.26632
0.270998
0.271804
0.268661
0.261949
0.252373
0.240749
0.227751
0.213651
0.198152
0.180326
0.158036
0.125904
0.0615631
0.195609
0.206552
0.218064
0.229429
0.23975
0.248047
0.253452
0.255388
0.253725
0.248745
0.241027
0.231259
0.220012
0.207538
0.193698
0.177413
0.15648
0.125468
0.0618249
0.18126
0.190931
0.201275
0.211703
0.221444
0.229635
0.23547
0.238363
0.238084
0.234803
0.228973
0.22116
0.211861
0.201267
0.189126
0.174346
0.154693
0.1247
0.0616905
0.168391
0.176775
0.185885
0.195252
0.204238
0.212103
0.218124
0.221741
0.222668
0.221001
0.217034
0.211197
0.203866
0.195146
0.184662
0.171305
0.152818
0.123718
0.061223
0.157133
0.164324
0.172248
0.180548
0.188712
0.196122
0.202154
0.206292
0.208234
0.208002
0.205754
0.201777
0.196311
0.189348
0.180406
0.168346
0.150893
0.122554
0.0604431
0.147451
0.15361
0.160477
0.16779
0.175149
0.182054
0.187982
0.192473
0.195235
0.196215
0.195465
0.193138
0.189338
0.183944
0.176377
0.165457
0.148899
0.12121
0.0593814
0.139207
0.14452
0.150499
0.156957
0.16359
0.170002
0.17576
0.180464
0.183864
0.185824
0.186318
0.185383
0.182999
0.178939
0.172541
0.162586
0.146788
0.119683
0.0581475
0.132215
0.136868
0.142135
0.14789
0.153906
0.159874
0.165441
0.170268
0.174131
0.176848
0.178329
0.178515
0.177275
0.174286
0.168841
0.15967
0.144506
0.117979
0.057013
0.12628
0.130434
0.135154
0.140356
0.145872
0.151463
0.156844
0.161733
0.165914
0.16919
0.171419
0.172463
0.172104
0.169933
0.16522
0.156667
0.142038
0.116118
0.0561722
0.121216
0.125006
0.129315
0.134094
0.139219
0.144503
0.149715
0.154624
0.159012
0.16268
0.165448
0.167119
0.167403
0.16583
0.161632
0.153566
0.139412
0.114119
0.0554277
0.116861
0.120385
0.124392
0.128852
0.133677
0.138718
0.143784
0.148679
0.153191
0.157117
0.160251
0.162352
0.163079
0.16192
0.158088
0.150365
0.136659
0.111999
0.054522
0.113078
0.116403
0.120181
0.124399
0.128992
0.133839
0.138781
0.143639
0.148211
0.152292
0.155656
0.15803
0.159041
0.15815
0.154571
0.147119
0.133789
0.109783
0.0534418
0.109756
0.112918
0.11651
0.120533
0.124938
0.129625
0.134455
0.13926
0.143848
0.148008
0.151501
0.154031
0.155207
0.15448
0.151073
0.143841
0.130857
0.107469
0.0523009
0.106814
0.10982
0.113242
0.117088
0.121323
0.125864
0.130587
0.135329
0.139901
0.144088
0.14764
0.150248
0.151509
0.150877
0.147593
0.140552
0.127882
0.105008
0.0512055
0.104196
0.107032
0.110271
0.113933
0.117994
0.122386
0.126996
0.131663
0.136199
0.140384
0.143956
0.146595
0.147894
0.147318
0.144132
0.13727
0.124902
0.102505
0.0500125
0.101879
0.104511
0.107536
0.110983
0.114842
0.119062
0.12354
0.12812
0.132611
0.136782
0.140359
0.14301
0.144329
0.143793
0.140698
0.134015
0.121961
0.100078
0.048718
0.0998668
0.102251
0.105014
0.108196
0.111806
0.115809
0.120125
0.124602
0.129046
0.13321
0.136799
0.139469
0.140811
0.140319
0.137321
0.13083
0.119119
0.0978522
0.0478546
0.0981996
0.100287
0.102731
0.105584
0.108876
0.112601
0.116706
0.121059
0.125463
0.129644
0.133275
0.135989
0.137375
0.136944
0.134059
0.127784
0.116458
0.0959104
0.0473528
0.0969465
0.0986904
0.100758
0.103212
0.106104
0.109467
0.113291
0.117497
0.121882
0.126125
0.129845
0.132643
0.134104
0.133756
0.131004
0.124973
0.114087
0.0943114
0.0470679
0.0962064
0.0975707
0.0992101
0.101194
0.103597
0.106493
0.109947
0.113969
0.118391
0.122772
0.126643
0.129568
0.131129
0.130882
0.128275
0.122509
0.112112
0.0931153
0.0470267
0.0961059
0.0970696
0.0982447
0.0996981
0.101516
0.103816
0.106759
0.110537
0.115148
0.119792
0.12388
0.126958
0.128628
0.128479
0.126012
0.120499
0.110589
0.0924058
0.0474198
0.0968003
0.0973616
0.0980564
0.0989358
0.100077
0.101613
0.1038
0.107156
0.112376
0.11747
0.121819
0.125041
0.126798
0.126722
0.124361
0.119052
0.109552
0.0922207
0.0486282
0.0984781
0.0986576
0.0988832
0.0991749
0.0995671
0.100135
0.101092
0.103261
0.110402
0.116097
0.120679
0.123999
0.125805
0.125766
0.123465
0.118278
0.109055
0.0925001
0.0506994
)
;

boundaryField
{
    leftWall
    {
        type            kqRWallFunction;
        value           nonuniform List<scalar> 
50
(
0.00233605
0.0046131
0.00658731
0.00843606
0.0101322
0.011645
0.0130012
0.0142466
0.0159588
0.0175794
0.0186711
0.0193374
0.0199463
0.0209584
0.0231523
0.0270101
0.0317044
0.0393365
0.0444802
0.0453573
0.0428118
0.0383369
0.0330519
0.0278154
0.0234111
0.0204179
0.0183868
0.0170426
0.0161498
0.0155146
0.0150018
0.0145323
0.0140704
0.013609
0.0131574
0.0127327
0.0123536
0.0120377
0.0117995
0.0116504
0.0115982
0.0116465
0.0117935
0.0120291
0.0123338
0.0126777
0.0130218
0.0133212
0.0135339
0.013624
)
;
    }
    rightWall
    {
        type            kqRWallFunction;
        value           nonuniform List<scalar> 
50
(
0.0075009
0.0149543
0.0216063
0.0286319
0.0355532
0.0418118
0.0471249
0.0510511
0.0526199
0.0563313
0.0620493
0.0666059
0.0698008
0.0711312
0.0692103
0.064444
0.0579479
0.0500549
0.0457132
0.0392249
0.0424305
0.0475761
0.0520215
0.0554984
0.0579211
0.05951
0.0607585
0.0615631
0.0618249
0.0616905
0.061223
0.0604431
0.0593814
0.0581475
0.057013
0.0561722
0.0554277
0.054522
0.0534418
0.0523009
0.0512055
0.0500125
0.048718
0.0478546
0.0473528
0.0470679
0.0470267
0.0474198
0.0486282
0.0506994
)
;
    }
    lowerWall
    {
        type            kqRWallFunction;
        value           nonuniform List<scalar> 
62
(
0.00233605
0.00425957
0.00625977
0.0080884
0.00995285
0.0121961
0.0150974
0.0187576
0.022783
0.0265762
0.0297476
0.0322513
0.0338796
0.0348065
0.0353282
0.0358348
0.0366021
0.0377602
0.0393283
0.0382354
0.0321642
0.0200338
0.00730302
0.00730302
0.0143644
0.0185443
0.0243151
0.0336611
0.0525613
0.0847092
0.132176
0.14563
0.131495
0.123902
0.122285
0.0118336
0.0216596
0.0271836
0.0319465
0.0366096
0.0434412
0.0582449
0.0905619
0.0118336
0.0136359
0.0206378
0.0337966
0.0467506
0.0589982
0.0694703
0.072601
0.0656009
0.0600671
0.0584908
0.0565861
0.0516571
0.0462007
0.0405944
0.0342679
0.0267162
0.0175208
0.0075009
)
;
    }
    atmosphere
    {
        type            inletOutlet;
        inletValue      uniform 0.1;
        value           nonuniform List<scalar> 
46
(
0.013624
0.0299163
0.0385834
0.0453975
0.0531293
0.1
0.1
0.1
0.1
0.1
0.1
0.1
0.1
0.1
0.1
0.1
0.1
0.1
0.1
0.1
0.1
0.1
0.1
0.1
0.1
0.1
0.1
0.1
0.1
0.1
0.1
0.1
0.1
0.1
0.1
0.110402
0.116097
0.120679
0.123999
0.125805
0.125766
0.123465
0.118278
0.109055
0.0925001
0.0506994
)
;
    }
    defaultFaces
    {
        type            empty;
    }
}


// ************************************************************************* //
