# vtk DataFile Version 2.0
track0
ASCII
DATASET POLYDATA
POINTS 12054 float
-0.0205 0.001 1e-05
-0.02052 0.000999985 1e-05
-0.02054 0.000999973 1e-05
-0.02056 0.000999965 1e-05
-0.02058 0.000999959 1e-05
-0.0206 0.000999956 1e-05
-0.0205 0.00367778 1e-05
-0.02052 0.00367778 1e-05
-0.02054 0.00367777 1e-05
-0.02056 0.00367777 1e-05
-0.02058 0.00367777 1e-05
-0.0206 0.00367777 1e-05
-0.0205 0.00635556 1e-05
-0.02052 0.00635555 1e-05
-0.02054 0.00635555 1e-05
-0.02056 0.00635555 1e-05
-0.02058 0.00635555 1e-05
-0.0206 0.00635555 1e-05
-0.0205 0.00903333 1e-05
-0.02052 0.00903333 1e-05
-0.02054 0.00903333 1e-05
-0.02056 0.00903333 1e-05
-0.02058 0.00903333 1e-05
-0.0206 0.00903333 1e-05
-0.0205 0.0117111 1e-05
-0.02052 0.0117111 1e-05
-0.02054 0.0117111 1e-05
-0.02056 0.0117111 1e-05
-0.02058 0.0117111 1e-05
-0.0206 0.0117111 1e-05
-0.0205 0.0143889 1e-05
-0.02052 0.0143889 1e-05
-0.02054 0.0143889 1e-05
-0.02056 0.0143889 1e-05
-0.02058 0.0143889 1e-05
-0.0206 0.0143889 1e-05
-0.0205 0.0170667 1e-05
-0.02052 0.0170667 1e-05
-0.02054 0.0170667 1e-05
-0.02056 0.0170667 1e-05
-0.02058 0.0170667 1e-05
-0.0206 0.0170667 1e-05
-0.0205 0.0197444 1e-05
-0.02052 0.0197444 1e-05
-0.02054 0.0197444 1e-05
-0.02056 0.0197444 1e-05
-0.02058 0.0197444 1e-05
-0.0206 0.0197444 1e-05
-0.0205 0.0224222 1e-05
-0.02052 0.0224222 1e-05
-0.02054 0.0224222 1e-05
-0.02056 0.0224222 1e-05
-0.02058 0.0224222 1e-05
-0.0206 0.0224222 1e-05
-0.0205 0.0251 1e-05
-0.02052 0.0250998 1e-05
-0.02054 0.0250997 1e-05
-0.02056 0.0250995 1e-05
-0.02058 0.0250995 1e-05
-0.0206 0.0250994 1e-05
-0.0205 0.001 1e-05
-0.0202034 0.00100022 1e-05
-0.0199069 0.00100067 1e-05
-0.0196103 0.00100133 1e-05
-0.0193137 0.0010022 1e-05
-0.0190172 0.00100328 1e-05
-0.0187132 0.0010047 1e-05
-0.0184093 0.00100593 1e-05
-0.0181054 0.00100716 1e-05
-0.0178015 0.00100839 1e-05
-0.0174976 0.00100962 1e-05
-0.0172058 0.00101093 1e-05
-0.016914 0.00101205 1e-05
-0.0166222 0.00101317 1e-05
-0.0163305 0.00101429 1e-05
-0.0160387 0.00101541 1e-05
-0.0157586 0.00101657 1e-05
-0.0154784 0.00101768 1e-05
-0.0151983 0.00101883 1e-05
-0.0149182 0.00102001 1e-05
-0.0146381 0.00102124 1e-05
-0.014396 0.00102235 1e-05
-0.0141539 0.00102347 1e-05
-0.0139118 0.00102462 1e-05
-0.0136698 0.0010258 1e-05
-0.0134651 0.00102682 1e-05
-0.0134307 0.00102699 1e-05
-0.0133964 0.00102717 1e-05
-0.0133621 0.00102734 1e-05
-0.0133278 0.00102752 1e-05
-0.0132934 0.00102769 1e-05
-0.0130353 0.00102903 1e-05
-0.0127771 0.00103038 1e-05
-0.0125189 0.00103175 1e-05
-0.0122607 0.00103314 1e-05
-0.0120025 0.00103455 1e-05
-0.0117547 0.00103591 1e-05
-0.0115068 0.00103729 1e-05
-0.0112589 0.00103868 1e-05
-0.0110111 0.00104007 1e-05
-0.0107632 0.00104147 1e-05
-0.0105252 0.00104282 1e-05
-0.0102873 0.00104417 1e-05
-0.0100493 0.00104553 1e-05
-0.00981133 0.00104689 1e-05
-0.00957337 0.00104826 1e-05
-0.00934491 0.00104957 1e-05
-0.00911645 0.00105088 1e-05
-0.00888799 0.0010522 1e-05
-0.00865954 0.00105352 1e-05
-0.00843108 0.00105484 1e-05
-0.00821175 0.0010561 1e-05
-0.00799242 0.00105736 1e-05
-0.00777309 0.00105863 1e-05
-0.00755376 0.0010599 1e-05
-0.00733443 0.00106117 1e-05
-0.00712387 0.00106239 1e-05
-0.0069133 0.00106361 1e-05
-0.00670273 0.00106483 1e-05
-0.00649217 0.00106606 1e-05
-0.0062816 0.00106729 1e-05
-0.00607944 0.00106846 1e-05
-0.00587729 0.00106965 1e-05
-0.00567514 0.00107083 1e-05
-0.00547298 0.00107202 1e-05
-0.00527083 0.00107322 1e-05
-0.00507675 0.00107436 1e-05
-0.00488267 0.00107552 1e-05
-0.0046886 0.00107669 1e-05
-0.00449452 0.00107786 1e-05
-0.00430044 0.00107903 1e-05
-0.00411412 0.00108016 1e-05
-0.0039278 0.00108131 1e-05
-0.00374147 0.00108247 1e-05
-0.00355515 0.00108364 1e-05
-0.00336883 0.00108482 1e-05
-0.00318995 0.00108595 1e-05
-0.00301107 0.00108711 1e-05
-0.00283219 0.00108828 1e-05
-0.00265331 0.00108948 1e-05
-0.00247443 0.00109069 1e-05
-0.0023027 0.00109186 1e-05
-0.00213097 0.00109307 1e-05
-0.00195924 0.0010943 1e-05
-0.00178751 0.00109555 1e-05
-0.00161577 0.00109684 1e-05
-0.0014509 0.00109809 1e-05
-0.00128603 0.00109938 1e-05
-0.00112116 0.00110072 1e-05
-0.000956291 0.00110211 1e-05
-0.000791418 0.00110354 1e-05
-0.000633135 0.00110496 1e-05
-0.000474852 0.00110644 1e-05
-0.000316569 0.00110799 1e-05
-0.000158287 0.00110959 1e-05
0 0.00111126 1e-05
0.000105677 0.0011124 1e-05
0.000211355 0.00111358 1e-05
0.000317031 0.00111478 1e-05
0.000422708 0.00111601 1e-05
0.000528387 0.00111726 1e-05
0.000634886 0.00111854 1e-05
0.000741385 0.00111984 1e-05
0.000847884 0.00112114 1e-05
0.000954383 0.00112245 1e-05
0.00106088 0.00112378 1e-05
0.00116821 0.00112512 1e-05
0.00127554 0.00112647 1e-05
0.00138286 0.00112783 1e-05
0.00149019 0.0011292 1e-05
0.00159752 0.00113057 1e-05
0.00170568 0.00113195 1e-05
0.00181384 0.00113335 1e-05
0.001922 0.00113475 1e-05
0.00203016 0.00113617 1e-05
0.00213833 0.00113759 1e-05
0.00224733 0.00113902 1e-05
0.00235633 0.00114048 1e-05
0.00246533 0.00114194 1e-05
0.00257433 0.00114341 1e-05
0.00268334 0.0011449 1e-05
0.00279319 0.0011464 1e-05
0.00290304 0.00114791 1e-05
0.00301289 0.00114944 1e-05
0.00312274 0.00115099 1e-05
0.00323259 0.00115254 1e-05
0.00334329 0.00115411 1e-05
0.00345399 0.0011557 1e-05
0.0035647 0.00115731 1e-05
0.0036754 0.00115894 1e-05
0.00378611 0.00116057 1e-05
0.00389767 0.00116223 1e-05
0.00400924 0.00116392 1e-05
0.0041208 0.00116563 1e-05
0.00423236 0.00116736 1e-05
0.00434393 0.0011691 1e-05
0.00445636 0.00117086 1e-05
0.00456879 0.00117266 1e-05
0.00468122 0.00117449 1e-05
0.00479366 0.00117633 1e-05
0.00490609 0.0011782 1e-05
0.0050194 0.00118008 1e-05
0.0051327 0.00118201 1e-05
0.00524601 0.00118396 1e-05
0.00535931 0.00118594 1e-05
0.00547262 0.00118793 1e-05
0.00558681 0.00118995 1e-05
0.00570099 0.00119201 1e-05
0.00581518 0.0011941 1e-05
0.00592937 0.00119622 1e-05
0.00604356 0.00119836 1e-05
0.00615863 0.00120051 1e-05
0.00627371 0.00120271 1e-05
0.00638878 0.00120495 1e-05
0.00650385 0.00120721 1e-05
0.00661893 0.00120949 1e-05
0.0067349 0.00121178 1e-05
0.00685087 0.00121413 1e-05
0.00696684 0.00121652 1e-05
0.0070828 0.00121893 1e-05
0.00719878 0.00122135 1e-05
0.00731565 0.00122378 1e-05
0.00743252 0.00122628 1e-05
0.00754939 0.00122881 1e-05
0.00766626 0.00123137 1e-05
0.00778313 0.00123393 1e-05
0.00790091 0.0012365 1e-05
0.00801869 0.00123914 1e-05
0.00813647 0.00124181 1e-05
0.00825425 0.00124452 1e-05
0.00837203 0.00124722 1e-05
0.00849073 0.00124992 1e-05
0.00860942 0.0012527 1e-05
0.00872812 0.00125551 1e-05
0.00884681 0.00125835 1e-05
0.00896551 0.00126119 1e-05
0.00908513 0.00126403 1e-05
0.00920475 0.00126693 1e-05
0.00932436 0.00126988 1e-05
0.00944398 0.00127286 1e-05
0.0095636 0.00127582 1e-05
0.00968415 0.00127879 1e-05
0.0098047 0.00128182 1e-05
0.00992524 0.0012849 1e-05
0.0100458 0.001288 1e-05
0.0101663 0.00129109 1e-05
0.0102878 0.00129418 1e-05
0.0104093 0.00129733 1e-05
0.0105308 0.00130053 1e-05
0.0106523 0.00130375 1e-05
0.0107738 0.00130696 1e-05
0.0108962 0.00131016 1e-05
0.0110186 0.00131343 1e-05
0.0111411 0.00131674 1e-05
0.0112635 0.00132008 1e-05
0.0113859 0.00132339 1e-05
0.0115093 0.00132671 1e-05
0.0116327 0.00133009 1e-05
0.0117561 0.00133351 1e-05
0.0118794 0.00133694 1e-05
0.0120028 0.00134036 1e-05
0.0121272 0.00134379 1e-05
0.0122515 0.00134726 1e-05
0.0123759 0.00135078 1e-05
0.0125002 0.00135431 1e-05
0.0126245 0.00135782 1e-05
0.0127498 0.00136135 1e-05
0.0128752 0.00136491 1e-05
0.0130005 0.00136851 1e-05
0.0131258 0.00137212 1e-05
0.0132511 0.00137572 1e-05
0.0133774 0.00137934 1e-05
0.0135036 0.00138299 1e-05
0.0136299 0.00138667 1e-05
0.0137562 0.00139035 1e-05
0.0138825 0.00139403 1e-05
0.0140098 0.00139774 1e-05
0.014137 0.00140147 1e-05
0.0142643 0.00140521 1e-05
0.0143915 0.00140896 1e-05
0.0145188 0.00141271 1e-05
0.0146471 0.0014165 1e-05
0.0147753 0.00142029 1e-05
0.0149036 0.0014241 1e-05
0.0150318 0.00142791 1e-05
0.0151601 0.00143173 1e-05
0.0152893 0.00143558 1e-05
0.0154186 0.00143944 1e-05
0.0155478 0.0014433 1e-05
0.0156771 0.00144716 1e-05
0.0158063 0.00145104 1e-05
0.0159366 0.00145495 1e-05
0.0160668 0.00145886 1e-05
0.0161971 0.00146277 1e-05
0.0163274 0.00146668 1e-05
0.0164576 0.0014706 1e-05
0.0165889 0.00147457 1e-05
0.0167201 0.00147853 1e-05
0.0168514 0.00148247 1e-05
0.0169827 0.00148642 1e-05
0.0171139 0.00149038 1e-05
0.0172462 0.00149439 1e-05
0.0173785 0.00149839 1e-05
0.0175108 0.00150237 1e-05
0.0176431 0.00150634 1e-05
0.0177754 0.00151034 1e-05
0.0179087 0.00151438 1e-05
0.018042 0.0015184 1e-05
0.0181753 0.00152241 1e-05
0.0183087 0.00152641 1e-05
0.018442 0.00153042 1e-05
0.0185763 0.00153449 1e-05
0.0187107 0.00153853 1e-05
0.018845 0.00154255 1e-05
0.0189794 0.00154656 1e-05
0.0191137 0.00155058 1e-05
0.0192491 0.00155466 1e-05
0.0193845 0.00155871 1e-05
0.0195199 0.00156273 1e-05
0.0196553 0.00156675 1e-05
0.0197907 0.00157078 1e-05
0.0199272 0.00157485 1e-05
0.0200636 0.0015789 1e-05
0.0202001 0.00158292 1e-05
0.0203365 0.00158693 1e-05
0.020473 0.00159095 1e-05
0.0206105 0.00159501 1e-05
0.020748 0.00159904 1e-05
0.0208855 0.00160305 1e-05
0.021023 0.00160705 1e-05
0.0211606 0.00161104 1e-05
0.0212991 0.00161508 1e-05
0.0214377 0.00161908 1e-05
0.0215763 0.00162306 1e-05
0.0217149 0.00162702 1e-05
0.0218535 0.00163098 1e-05
0.0219931 0.00163498 1e-05
0.0221328 0.00163894 1e-05
0.0222724 0.00164288 1e-05
0.0224121 0.0016468 1e-05
0.0225517 0.0016507 1e-05
0.0226925 0.00165465 1e-05
0.0228332 0.00165855 1e-05
0.022974 0.00166244 1e-05
0.0231147 0.0016663 1e-05
0.0232555 0.00167015 1e-05
0.0233973 0.00167403 1e-05
0.0235391 0.00167786 1e-05
0.023681 0.00168168 1e-05
0.0238228 0.00168547 1e-05
0.0239647 0.00168924 1e-05
0.0241076 0.00169303 1e-05
0.0242505 0.00169679 1e-05
0.0243935 0.00170051 1e-05
0.0245364 0.00170421 1e-05
0.0246794 0.00170788 1e-05
0.0248234 0.00171158 1e-05
0.0249675 0.00171523 1e-05
0.0251115 0.00171884 1e-05
0.0252556 0.00172243 1e-05
0.0253996 0.00172599 1e-05
0.0255448 0.00172956 1e-05
0.02569 0.00173309 1e-05
0.0258351 0.00173658 1e-05
0.0259803 0.00174004 1e-05
[...]
POINT_DATA 12054
 FIELD attributes 3
age 1 12054 float
0 -2e-05 -4e-05 -6e-05 -8e-05 -0.0001
0 -2e-05 -4e-05 -6e-05 -8e-05 -0.0001
0 -2e-05 -4e-05 -6e-05 -8e-05 -0.0001
0 -2e-05 -4e-05 -6e-05 -8e-05 -0.0001
0 -2e-05 -4e-05 -6e-05 -8e-05 -0.0001
0 -2e-05 -4e-05 -6e-05 -8e-05 -0.0001
0 -2e-05 -4e-05 -6e-05 -8e-05 -0.0001
0 -2e-05 -4e-05 -6e-05 -8e-05 -0.0001
0 -2e-05 -4e-05 -6e-05 -8e-05 -0.0001
0 -2.00009e-05 -4.00018e-05 -6.00027e-05 -8.00036e-05 -0.000100002
0 0.000296567 0.000593135 0.000889702 0.00118627 0.00148284 0.00178676 0.00209069 0.00239461 0.00269853 0.00300245 0.00329423 0.00358601 0.00387779 0.00416957 0.00446135 0.00474147 0.00502159 0.00530171 0.00558184 0.00586196 0.00610404 0.00634612 0.0065882 0.00683029 0.007035 0.00706932 0.00710365 0.00713797 0.00717229 0.00720661 0.0074648 0.00772298 0.00798117 0.00823936 0.00849755 0.00874542 0.00899329 0.00924116 0.00948903 0.0097369 0.00997487 0.0102128 0.0104508 0.0106888 0.0109267 0.0111552 0.0113837 0.0116121 0.0118406 0.0120691 0.0122884 0.0125077 0.0127271 0.0129464 0.0131657 0.0133763 0.0135869 0.0137974 0.014008 0.0142186 0.0144207 0.0146229 0.014825 0.0150272 0.0152294 0.0154234 0.0156175 0.0158116 0.0160057 0.0161998 0.0163861 0.0165724 0.0167587 0.0169451 0.0171314 0.0173103 0.0174892 0.017668 0.0178469 0.0180258 0.0181975 0.0183693 0.018541 0.0187128 0.0188845 0.0190494 0.0192142 0.0193791 0.019544 0.0197089 0.0198672 0.0200255 0.0201837 0.020342 0.0205003 0.020606 0.0207117 0.0208174 0.0209231 0.0210287 0.0211353 0.0212418 0.0213483 0.0214548 0.0215613 0.0216686 0.021776 0.0218833 0.0219906 0.022098 0.0222061 0.0223143 0.0224225 0.0225306 0.0226388 0.0227478 0.0228568 0.0229659 0.0230749 0.0231839 0.0232937 0.0234036 0.0235135 0.0236233 0.0237332 0.0238439 0.0239546 0.0240653 0.024176 0.0242868 0.0243983 0.0245099 0.0246215 0.0247331 0.0248446 0.0249571 0.0250695 0.025182 0.0252944 0.0254069 0.0255202 0.0256335 0.0257468 0.0258602 0.0259735 0.0260877 0.0262019 0.0263161 0.0264303 0.0265445 0.0266596 0.0267747 0.0268898 0.0270049 0.02712 0.027236 0.027352 0.027468 0.027584 0.0277 0.0278169 0.0279338 0.0280507 0.0281676 0.0282845 0.0284023 0.0285201 0.0286379 0.0287557 0.0288735 0.0289922 0.029111 0.0292297 0.0293484 0.0294672 0.0295868 0.0297065 0.0298261 0.0299458 0.0300654 0.030186 0.0303066 0.0304272 0.0305478 0.0306684 0.0307899 0.0309114 0.0310329 0.0311545 0.031276 0.0313985 0.0315209 0.0316434 0.0317659 0.0318884 0.0320118 0.0321352 0.0322587 0.0323821 0.0325055 0.0326299 0.0327543 0.0328787 0.0330031 0.0331275 0.0332528 0.0333782 0.0335035 0.0336289 0.0337543 0.0338806 0.0340069 0.0341333 0.0342596 0.0343859 0.0345133 0.0346406 0.0347679 0.0348952 0.0350225 0.0351508 0.0352791 0.0354075 0.0355358 0.0356641 0.0357934 0.0359227 0.036052 0.0361813 0.0363106 0.0364409 0.0365712 0.0367016 0.0368319 0.0369622 0.0370935 0.0372248 0.0373562 0.0374875 0.0376188 0.0377512 0.0378835 0.0380159 0.0381482 0.0382806 0.038414 0.0385473 0.0386807 0.0388141 0.0389475 0.0390819 0.0392163 0.0393507 0.0394851 0.0396195 0.039755 0.0398905 0.0400259 0.0401614 0.0402968 0.0404333 0.0405699 0.0407064 0.0408429 0.0409794 0.041117 0.0412545 0.0413921 0.0415297 0.0416672 0.0418059 0.0419445 0.0420832 0.0422218 0.0423604 0.0425001 0.0426399 0.0427796 0.0429193 0.043059 0.0431998 0.0433406 0.0434814 0.0436222 0.043763 0.0439049 0.0440468 0.0441887 0.0443306 0.0444724 0.0446154 0.0447584 0.0449014 0.0450444 0.0451874 0.0453315 0.0454756 0.0456197 0.0457638 0.0459079 0.0460531 0.0461983 0.0463435 0.0464887 0.0466339 0.0467803 0.0469266 0.047073 0.0472193 0.0473656 0.0475131 0.0476606 0.0478081 0.0479555 0.048103 0.0482516 0.0484002 0.0485489 0.0486975 0.0488461 0.0489959 0.0491456 0.0492954 0.0494452 0.0495949 0.0497458 0.0498968 0.0500477 0.0501986 0.0503495 0.0505016 0.0506537 0.0508058 0.0509579 0.05111 0.0512633 0.0514166 0.0515698 0.0517231 0.0518764 0.0520308 0.0521853 0.0523397 0.0524942 0.0526487 0.0528043 0.05296 0.0531156 0.0532713 0.0534269 0.0535838 0.0537407 0.0538975 0.0540544 0.0542113 0.0543693 0.0545274 0.0546855 0.0548436 0.0550017 0.055161 0.0553203 0.0554796 0.0556389 0.0557982 0.0559588 0.0561193 0.0562799 0.0564404 0.056601 0.0567628 0.0569246 0.0570864 0.0572482 0.05741 0.0575731 0.0577362 0.0578992 0.0580623 0.0582254 0.0583897 0.0585541 0.0587184 0.0588828 0.0590471 0.0592128 0.0593784 0.059544 0.0597097 0.0598754 0.0600423 0.0602092 0.0603762 0.0605431 0.0607101 0.0608784 0.0610467 0.0612149 0.0613832 0.0615516 0.0617212 0.0618908 0.0620604 0.06223 0.0623997 0.0625707 0.0627417 0.0629127 0.0630836 0.0632547 0.0634271 0.0635995 0.0637718 0.0639442 0.0641167 0.0642905 0.0644643 0.0646381 0.0648118 0.0649858 0.0650715 0.0651572 0.0652429 0.0653286 0.0654052 0.0654966 0.0655879 0.0656793 0.0657707 0.0658622 0.0660389 0.0662156 0.0663923 0.066569 0.066746 0.0669242 0.0671024 0.0672806 0.0674588 0.0676373 0.0678171 0.0679969 0.0681766 0.0683564 0.0685365 0.0687179 0.0688992 0.0690806 0.069262 0.0694438 0.0696268 0.0698098 0.0699928 0.0701758 0.0703593 0.0703699 0.0703805 0.0703911 0.0704017 0.0704121 0.0705863 0.0707604 0.0709346 0.0711087 0.0712834 0.0714698 0.0716563 0.0718427 0.0720292 0.0722163 0.0724045 0.0725928 0.072781 0.0729693 0.0731583 0.073296 0.0734337 0.0735714 0.0737091 0.0738322 0.0738877 0.0739432 0.0739987 0.0740543 0.0741099 0.0743019 0.0744939 0.074686 0.074878 0.075071 0.0752651 0.0754591 0.0756531 0.0758471 0.0760422 0.0761471 0.0762519 0.0763567 0.0764616 0.0765595 0.0766523 0.0767451 0.0768379 0.0769307 0.0770238 0.077222 0.0774201 0.0776183 0.0778165 0.0780158 0.0781896 0.0783634 0.0785372 0.078711 0.0788688 0.0788988 0.0789288 0.0789587 0.0789887 0.0790187 0.0792212 0.0794238 0.0796263 0.0798288 0.0800326 0.0802373 0.080442 0.0806467 0.0808515 0.0810575 0.0810643 0.0810711 0.0810779 0.0810847 0.0810915 0.0812917 0.0814919 0.0816921 0.0818923 0.0820938 0.0823031 0.0825123 0.0827216 0.0829308 0.0831414 0.083169 0.0831965 0.083224 0.0832515 0.0832787 0.0834629 0.0836471 0.0838313 0.0840155 0.0842006 0.0844145 0.0846284 0.0848422 0.0850561 0.0852713 0.0853106 0.0853499 0.0853892 0.0854285 0.0854674 0.0856444 0.0858215 0.0859985 0.0861756 0.0863535 0.0865719 0.0867904 0.0870089 0.0872273 0.087447 0.0874953 0.0875437 0.087592 0.0876404 0.0876882 0.0878608 0.0880335 0.0882061 0.0883787 0.088552 0.088775 0.088998 0.089221 0.089444 0.0896681 0.0897283 0.0897886 0.0898489 0.0899091 0.0899688 0.090134 0.0902993 0.0904645 0.0906297 0.0907953 0.0910228 0.0912502 0.0914777 0.0917051 0.0919334 0.092014 0.0920947 0.0921754 0.092256 0.092336 0.0924852 0.0926344 0.0927835 0.0929327 0.0930822 0.0933139 0.0935456 0.0937773 0.094009 0.0942413 0.0943566 0.0944719 0.0945872 0.0947026 0.094817 0.0949357 0.0950544 0.0951732 0.0952919 0.0954107 0.0956465 0.0958823 0.0961181 0.0963539 0.09659 0.0967605 0.0969309 0.0971014 0.0972718 0.0974415 0.097509 0.0975765 0.097644 0.0977115 0.097779 0.0980187 0.0982584 0.0984981 0.0987378 0.0989775 0.099219 0.0994605 0.099702 0.0999436 0.100185 0.100197 0.100208 0.10022 0.100232 0.100243 0.100475 0.100707 0.100938 0.10117 0.101402 0.101647 0.101892 0.102137 0.102382 0.102627 0.102754 0.102881 0.103008 0.103135 0.103263 0.103383 0.103502 0.103622 0.103741 0.10386 0.104109 0.104357 0.104606 0.104854 0.105102 0.105352 0.105602 0.105852 0.106102 0.106352 0.106392 0.106432 0.106473 0.106513 0.106553 0.106765 0.106976 0.107187 0.107399 0.107609 0.107863 0.108116 0.108369 0.108622 0.108875 0.109059 0.109243 0.109427 0.109611 0.109798 0.109868 0.109938 0.110008 0.110077 0.110147 0.110403 0.11066 0.110916 0.111172 0.111427 0.111685 0.111942 0.1122 0.112458 0.112714 0.112805 0.112895 0.112986 0.113076 0.113168 0.113336 0.113504 0.113673 0.113841 0.114009 0.114269 0.11453 0.11479 0.115051 0.11531 0.115572 0.115834 0.116096 0.116358 0.116618 0.116639 0.116659 0.116679 0.116699 0.11672 0.116963 0.117206 0.117449 0.117692 0.117933 0.118198 0.118463 0.118727 0.118992 0.119255 0.119508 0.119761 0.120013 0.120266 0.120534 0.120544 0.120554 0.120564 0.120574 0.120584 0.120851 0.121119 0.121386 0.121654 0.12192 0.122188 0.122457 0.122726 0.122995 0.123262 0.123532 0.123802 0.124073 0.124343 0.124612 0.124636 0.124661 0.124685 0.12471 0.124735 0.124982 0.125229 0.125476 0.125722 0.125968 0.126241 0.126514 0.126787 0.12706 0.127332 0.127607 0.127881 0.128156 0.12843 0.128704 0.128866 0.129028 0.12919 0.129352 0.129523 0.129635 0.129747 0.129859 0.129971 0.130082 0.13036 0.130638 0.130915 0.131193 0.131469 0.131748 0.132028 0.132307 0.132586 0.132864 0.133145 0.133426 0.133707 0.133987 0.134267 0.13446 0.134654 0.134847 0.13504 0.135247 0.135333 0.13542 0.135506 0.135593 0.135679 0.135963 0.136248 0.136532 0.136816 0.1371 0.137386 0.137672 0.137958 0.138244 0.138529 0.138817 0.139105 0.139393 0.139681 0.139968 0.140258 0.140548 0.140838 0.141128 0.141417 0.141641 0.141864 0.142088 0.142312 0.142556 0.14262 0.142684 0.142748 0.142811 0.142875 0.143169 0.143463 0.143756 0.14405 0.144343 0.144639 0.144935 0.145231 0.145527 0.145822 0.14612 0.146418 0.146716 0.147013 0.147311 0.147611 0.147911 0.148211 0.148511 0.14881 0.149112 0.149415 0.149717 0.150019 0.150321 0.150625 0.150929 0.151234 0.151538 0.151842 0.15204 0.152238 0.152437 0.152635 0.152849 0.152954 0.153059 0.153164 0.153269 0.153374 0.153683 0.153992 0.154301 0.154609 0.154918 0.155229 0.15554 0.155851 0.156162 0.156473 0.156786 0.1571 0.157413 0.157726 0.15804 0.158355 0.158671 0.158987 0.159303 0.159618 0.159936 0.160254 0.160572 0.16089 0.161208 0.161529 0.161849 0.16217 0.16249 0.162811 0.163134 0.163457 0.163779 0.164102 0.164425 0.164751 0.165076 0.165401 0.165727 0.166052 0.16638 0.166708 0.167035 0.167363 0.167691 0.168021 0.168352 0.168682 0.169012 0.169343 0.169454 0.169565 0.169676 0.169787 0.169903 0.170124 0.170345 0.170565 0.170786 0.171007 0.171342 0.171678 0.172013 0.172348 0.172684 0.173022 0.17336 0.173698 0.174036 0.174374 0.174714 0.175055 0.175395 0.175736 0.176077 0.17642 0.176763 0.177106 0.177449 0.177793 0.178138 0.178484 0.17883 0.179176 0.179522 0.17987 0.180219 0.180567 0.180916 0.181264 0.181615 0.181967 0.182318 0.182669 0.18302 0.183374 0.183728 0.184082 0.184436 0.18479 0.185146 0.185503 0.18586 0.186216 0.186573 0.186932 0.187292 0.187651 0.188011 0.18837 0.188732 0.189094 0.189456 0.189819 0.190181 0.190546 0.190911 0.191276 0.191641 0.192006 0.192373 0.192741 0.193109 0.193477 0.193845 0.194215 0.194586 0.194957 0.195327 0.195698 0.196071 0.196445 0.196818 0.197192 0.197565 0.197942 0.198318 0.198695 0.199071 0.199447 0.199827 0.200206 0.200585 0.200965 0.201344 0.201726 0.202109 0.202491 0.202873 0.203255 0.203641 0.204026 0.204411 0.204796 0.205182 0.20557 0.205958 0.206346 0.206735 0.207123 0.207514 0.207905 0.208297 0.208688 0.209079 0.209473 0.209868 0.210262 0.210656 0.21105 0.211448 0.211845 0.212243 0.21264 0.213037 0.213438 0.213838 0.214239 0.214639 0.215039 0.215443 0.215846 0.21625 0.216654 0.217057 0.217464 0.21787 0.218277 0.218684 0.21909 0.219422 0.219753 0.220084 0.220416 0.22114 0.221204 0.221269 0.221334 0.221399 0.221534 0.221868 0.222202 0.222536 0.222786 0.22287 0.222953 0.223037 0.223121 0.223205 0.223621 0.224037 0.224453 0.224869 0.225286 0.225705 0.226125 0.226544 0.226963 0.227383 0.227806 0.228228 0.228651 0.229074 0.229497 0.22977 0.230044 0.230317 0.23059 0.230974 0.231088 0.231202 0.231316 0.231431 0.231545 0.231971 0.232396 0.232822 0.233247 0.233674 0.234116 0.234558 0.235001 0.235443 0.235886 0.236346 0.236806 0.237266 0.237725 0.238185 0.238663 0.239141 0.239619 0.240097 0.240575 0.241071 0.241568 0.242065 0.242561 0.243058 0.243574 0.24409 0.244606 0.245122 0.245638 0.246174 0.24671 0.247246 0.247782 0.248318 0.248875 0.249432 0.249989 0.250546 0.251104 0.251682 0.252261 0.25284 0.253419 0.253998 0.254599 0.2552 0.255802 0.256403 0.257005 0.257629 0.258254 0.258879 0.259504 0.260129 0.260778 0.261427 0.262076 0.262726 0.263375 0.26405 0.264724 0.265399 0.266073 0.266748 0.267449 0.268149 0.26885 0.269551 0.270252 0.27098 0.271708 0.272436 0.273165 0.273893 0.274649 0.275406 0.276163 0.276919 0.277676 0.278001 0.278326 0.278651 0.278976 0.279327 0.279783 0.280239 0.280695 0.28115 0.281606 0.282423 0.28324 0.284056 0.284873 0.28569 0.286538 0.287387 0.288236 0.289084 0.289933 0.290814 0.291696 0.292578 0.293459 0.294341 0.295257 0.296173 0.297089 0.298005 0.298921 0.299873 0.300825 0.301776 0.302728 0.30368 0.304669 0.305657 0.306646 0.307635 0.308624 0.309651 0.310678 0.311706 0.312733 0.313759