/*--------------------------------*- C++ -*----------------------------------*\
  =========                 |
  \\      /  F ield         | OpenFOAM: The Open Source CFD Toolbox
   \\    /   O peration     | Website:  https://openfoam.org
    \\  /    A nd           | Version:  9
     \\/     M anipulation  |
\*---------------------------------------------------------------------------*/
FoamFile
{
    format      ascii;
    class       volScalarField;
    location    "0.1";
    object      p;
}
// * * * * * * * * * * * * * * * * * * * * * * * * * * * * * * * * * * * * * //

dimensions      [0 2 -2 0 0 0 0];

internalField   nonuniform List<scalar> 
6400
(
6.37722e-08
-0.000293426
-0.000859932
-0.00153366
-0.00221545
-0.00281661
-0.00325883
-0.00348896
-0.00347464
-0.00319771
-0.00265237
-0.00184209
-0.000777428
0.000526474
0.00205039
0.00377058
0.00566049
0.00769199
0.00983427
0.0120532
0.0143119
0.0165719
0.0187926
0.0209318
0.0229465
0.0247946
0.0264353
0.0278309
0.0289503
0.0297713
0.0302809
0.0304754
0.0303638
0.0299722
0.0293454
0.0285488
0.0276716
0.0268338
0.0261966
0.025918
0.000317822
8.85579e-05
-0.000310639
-0.000789144
-0.00127989
-0.00170919
-0.00201179
-0.0021393
-0.00206139
-0.00176004
-0.00122674
-0.000463168
0.000522937
0.0017203
0.00311266
0.00467896
0.00639634
0.0082402
0.0101822
0.0121911
0.0142346
0.0162782
0.0182851
0.0202179
0.0220396
0.023713
0.0252019
0.026474
0.0275039
0.0282748
0.0287774
0.0290111
0.0289869
0.0287303
0.0282822
0.0276972
0.0270457
0.0264172
0.0259176
0.0256424
0.0010309
0.000681829
0.000275121
-0.000158543
-0.000581942
-0.000936474
-0.00116874
-0.00124221
-0.00113001
-0.000815525
-0.000292456
0.00043806
0.00137081
0.00249614
0.00379919
0.00526173
0.00686391
0.0085829
0.0103921
0.012263
0.0141661
0.0160693
0.0179386
0.0197401
0.0214404
0.0230048
0.0243998
0.0255958
0.0265707
0.0273102
0.0278067
0.0280603
0.0280823
0.0278965
0.0275377
0.0270504
0.0264902
0.0259267
0.0254226
0.0250144
0.00198177
0.00139854
0.000885288
0.000411876
-1.56839e-05
-0.000351388
-0.000556922
-0.000605415
-0.000476266
-0.000157433
0.000354551
0.00105893
0.00195163
0.00302324
0.00426015
0.00564714
0.00716656
0.00879648
0.0105117
0.0122863
0.0140925
0.0158998
0.0176763
0.0193908
0.0210118
0.022506
0.0238408
0.0249886
0.0259292
0.0266486
0.0271392
0.0274012
0.027445
0.0272911
0.0269681
0.0265107
0.0259631
0.0253817
0.0247925
0.0241752
0.00297172
0.00211926
0.00146253
0.000913755
0.000448488
0.000102242
-0.00010109
-0.000141421
-6.31372e-06
0.000310449
0.00081075
0.00149364
0.00235402
0.00338238
0.00456751
0.00589671
0.00735323
0.00891588
0.0105616
0.0122665
0.0140037
0.0157436
0.0174562
0.0191122
0.0206808
0.0221291
0.0234256
0.0245442
0.0254646
0.0261722
0.0266584
0.0269231
0.0269748
0.0268299
0.0265104
0.0260435
0.0254649
0.0248224
0.0241099
0.0232555
0.00388721
0.00276159
0.00194494
0.00130099
0.000775192
0.000394055
0.000175738
0.000129325
0.000259929
0.000570358
0.00106049
0.00172692
0.00256291
0.00355998
0.00470921
0.00599891
0.00741258
0.00893067
0.0105326
0.0121953
0.0138918
0.0155934
0.0172715
0.0188977
0.0204407
0.021868
0.0231491
0.0242581
0.0251737
0.0258791
0.0263647
0.026629
0.026678
0.0265233
0.0261815
0.0256741
0.025032
0.024298
0.0234395
0.0223408
0.00466327
0.00327206
0.00229089
0.00153798
0.000935096
0.000504914
0.000257514
0.000192912
0.000312243
0.000614848
0.00109665
0.00175125
0.00257155
0.0035504
0.00467944
0.00594692
0.00733748
0.00883408
0.0104176
0.0120645
0.0137476
0.015439
0.0171112
0.0187349
0.0202785
0.0217098
0.0229989
0.0241186
0.0250451
0.0257594
0.0262502
0.0265143
0.0265541
0.0263766
0.0259937
0.0254238
0.0246948
0.0238478
0.0228284
0.0214851
0.00525282
0.00360802
0.00246067
0.00159185
0.000903042
0.000413967
0.00012638
3.66426e-05
0.000141528
0.000435584
0.000910899
0.00155938
0.00237409
0.00334784
0.00447152
0.00573381
0.00712167
0.00861987
0.0102091
0.0118651
0.0135608
0.0152694
0.0169629
0.0186107
0.020181
0.0216422
0.0229633
0.0241144
0.0250683
0.0258039
0.0263083
0.0265755
0.0266037
0.0263953
0.0259592
0.0253114
0.0244785
0.0235016
0.0223098
0.0207215
0.00561784
0.00372883
0.00241615
0.0014291
0.000649297
9.3524e-05
-0.000239558
-0.000357643
-0.000269058
1.64793e-05
0.000488554
0.00113838
0.00195829
0.00293965
0.00407284
0.00534824
0.00675475
0.00827714
0.00989509
0.0115842
0.0133185
0.015071
0.0168125
0.0185116
0.0201364
0.0216547
0.0230328
0.0242367
0.0252362
0.0260081
0.0265371
0.0268134
0.0268307
0.0265875
0.0260902
0.025353
0.0244025
0.0232818
0.0219072
0.0200699
0.00572593
0.00359817
0.00212243
0.00101534
0.000141136
-0.000484624
-0.000864876
-0.00101293
-0.000941462
-0.000662931
-0.000188965
0.000470507
0.00130584
0.00230714
0.00346566
0.0047734
0.00621935
0.00778704
0.00945581
0.0112023
0.0130008
0.0148238
0.0166408
0.0184199
0.0201288
0.021733
0.0231948
0.0244757
0.0255423
0.0263688
0.0269364
0.0272307
0.0272408
0.026962
0.0263986
0.0255639
0.0244846
0.0232083
0.0216402
0.0195445
0.00554805
0.0031836
0.00154462
0.000316159
-0.000653888
-0.00134932
-0.0017774
-0.00195613
-0.00190091
-0.00162578
-0.00114376
-0.000467044
0.000393066
0.00142699
0.00262717
0.00398555
0.00548971
0.00712246
0.00886411
0.0106923
0.012581
0.0145016
0.0164231
0.0183132
0.0201379
0.0218592
0.0234342
0.0248203
0.0259804
0.0268849
0.0275096
0.0278347
0.0278452
0.0275336
0.0269029
0.0259652
0.0247484
0.0233052
0.0215298
0.019159
0.00505639
0.00245182
0.000647318
-0.000702938
-0.00176817
-0.00253293
-0.00300899
-0.00321716
-0.00317483
-0.00289799
-0.00240213
-0.00170131
-0.00080675
0.000272939
0.00153002
0.00295494
0.00453424
0.00625143
0.00808823
0.0100226
0.0120277
0.0140741
0.0161312
0.0181653
0.0201397
0.0220117
0.0237338
0.0252589
0.0265452
0.027557
0.028263
0.0286375
0.0286614
0.0283249
0.0276296
0.0265864
0.0252241
0.0236011
0.0216002
0.0189287
0.00422142
0.00136926
-0.000603834
-0.00207689
-0.00323727
-0.00407165
-0.00459396
-0.00482766
-0.00479307
-0.00450931
-0.00399405
-0.00326143
-0.00232188
-0.00118409
0.000142745
0.00164794
0.00331851
0.00513944
0.00709334
0.0091579
0.0113058
0.013508
0.0157331
0.0179458
0.0201052
0.0221648
0.0240725
0.0257763
0.0272277
0.0283825
0.0292012
0.029651
0.0297087
0.0293618
0.0286093
0.0274601
0.025944
0.024126
0.0218768
0.0188706
0.0030122
-9.78677e-05
-0.00224484
-0.00384333
-0.00510043
-0.00600324
-0.00656775
-0.00682169
-0.00678954
-0.0064935
-0.00595187
-0.00517827
-0.0041834
-0.00297718
-0.00156977
2.85242e-05
0.00180619
0.00374946
0.00584134
0.00805962
0.0103774
0.0127658
0.0151924
0.0176189
0.0200012
0.0222888
0.0244256
0.0263532
0.0280146
0.0293549
0.0303251
0.030885
0.0310055
0.0306694
0.0298717
0.0286183
0.0269402
0.0249112
0.0223875
0.019005
0.00139466
-0.00198749
-0.00431615
-0.00604402
-0.0073986
-0.00836681
-0.00896888
-0.00923796
-0.00920274
-0.00888731
-0.00831032
-0.00748619
-0.00642702
-0.00514348
-0.00364514
-0.00194094
-4.09928e-05
0.00204186
0.00429146
0.00668669
0.00920167
0.0118072
0.0144689
0.0171461
0.0197917
0.0223521
0.0247662
0.0269681
0.02889
0.0304659
0.0316359
0.0323501
0.0325711
0.0322742
0.0314482
0.0300956
0.0282497
0.0259938
0.0231661
0.0193577
-0.000671316
-0.00434283
-0.00686228
-0.00872325
-0.0101747
-0.0112056
-0.0118412
-0.0121201
-0.0120745
-0.0117304
-0.0111084
-0.010225
-0.00909325
-0.00772315
-0.00612291
-0.00430021
-0.00226405
-2.57861e-05
0.00240037
0.0049953
0.00773415
0.0105871
0.0135181
0.0164844
0.0194371
0.0223191
0.0250635
0.0275952
0.0298356
0.0317061
0.0331342
0.0340576
0.0344266
0.0342055
0.0333754
0.0319347
0.0299186
0.0274205
0.024256
0.0199635
-0.00323112
-0.0072112
-0.00993113
-0.0119285
-0.013477
-0.0145684
-0.0152331
-0.0155146
-0.015449
-0.0150664
-0.0143904
-0.0134391
-0.0122254
-0.0107583
-0.00904498
-0.00709226
-0.00490753
-0.00249941
0.000120938
0.00293676
0.00592429
0.00905346
0.0122876
0.0155832
0.0188895
0.0221454
0.0252773
0.0282011
0.0308263
0.0330612
0.0348178
0.0360174
0.0365937
0.0364968
0.0356975
0.0341883
0.032005
0.0292501
0.0257126
0.0208697
-0.00633519
-0.0106456
-0.0135765
-0.0157144
-0.0173605
-0.018509
-0.0191956
-0.0194701
-0.0193744
-0.0189435
-0.0182038
-0.0171742
-0.0158676
-0.0142925
-0.0124558
-0.010363
-0.00801884
-0.00542796
-0.002598
0.000456906
0.00371481
0.0071469
0.0107173
0.0143827
0.0180905
0.0217755
0.0253574
0.0287429
0.03183
0.0345114
0.0366808
0.0382383
0.0390968
0.0391882
0.038469
0.036922
0.0345809
0.0315575
0.027609
0.0221416
-0.010042
-0.0147075
-0.0178615
-0.020144
-0.0218859
-0.0230848
-0.0237834
-0.0240397
-0.0239026
-0.0234118
-0.0225959
-0.0214751
-0.0200632
-0.0183695
-0.0164001
-0.0141582
-0.0116447
-0.00886017
-0.00580846
-0.00250023
0.0010461
0.004805
0.00874305
0.0128178
0.0169754
0.021147
0.0252465
0.0291721
0.0328092
0.036033
0.0387151
0.0407304
0.0419657
0.0423291
0.041757
0.0402172
0.0377378
0.0344393
0.0300412
0.0238666
-0.01442
-0.0194686
-0.0228585
-0.0252873
-0.0271198
-0.0283587
-0.0290562
-0.0292799
-0.0290859
-0.0285185
-0.0276096
-0.0263822
-0.0248522
-0.0230291
-0.0209173
-0.0185171
-0.0158256
-0.0128392
-0.00955734
-0.00598556
-0.00213651
0.00196961
0.00630332
0.0108242
0.0154787
0.0201957
0.0248849
0.0294365
0.0337224
0.0375985
0.0409108
0.0435044
0.0452341
0.0459765
0.0456405
0.0441716
0.0415878
0.0380158
0.0331291
0.0261563
-0.0195467
-0.0250106
-0.0286489
-0.0312232
-0.033137
-0.0344008
-0.035078
-0.035247
-0.0349725
-0.034305
-0.0332818
-0.0319296
-0.0302664
-0.0283009
-0.0260354
-0.0234673
-0.0205904
-0.0173967
-0.0138796
-0.0100375
-0.00587515
-0.00140585
0.00334663
0.00834605
0.0135412
0.0188616
0.0242145
0.029483
0.0345255
0.039177
0.0432551
0.0465701
0.0489373
0.0501933
0.0502096
0.0489001
0.0462643
0.0424313
0.0370195
0.0291496
-0.0255098
-0.0314271
-0.035327
-0.0380429
-0.0400229
-0.0412875
-0.041914
-0.0419948
-0.0416056
-0.0408065
-0.0396414
-0.038141
-0.0363241
-0.0341989
-0.0317658
-0.0290199
-0.0259514
-0.0225465
-0.0187911
-0.0146746
-0.0101926
-0.00534964
-0.000161769
0.00534198
0.0111163
0.0170943
0.0231834
0.0292616
0.0351746
0.0407364
0.0457335
0.0499362
0.053113
0.0550499
0.0555684
0.0545372
0.0519263
0.0478612
0.041894
0.0330217
-0.032411
-0.0388278
-0.0430035
-0.0458518
-0.0478724
-0.0490998
-0.04963
-0.0495742
-0.0490238
-0.0480504
-0.0467056
-0.0450238
-0.0430251
-0.0407173
-0.0380995
-0.0351643
-0.0318971
-0.0282771
-0.0242813
-0.019889
-0.0150856
-0.0098652
-0.00423306
0.0017927
0.00817657
0.0148593
0.0217521
0.0287309
0.0356315
0.0422474
0.0483332
0.0536146
0.0578053
0.0606284
0.0618392
0.0612437
0.0587673
0.0545231
0.0479807
0.0379951
-0.0403691
-0.0473433
-0.0518092
-0.0547712
-0.0567915
-0.0579251
-0.0582941
-0.0580349
-0.0572587
-0.0560514
-0.0544736
-0.0525643
-0.0503456
-0.0478252
-0.0450007
-0.0418608
-0.0383849
-0.0345442
-0.0303061
-0.0256393
-0.0205179
-0.0149232
-0.00884621
-0.00229
0.00472407
0.0121489
0.0199042
0.0278688
0.0358727
0.0436922
0.0510505
0.0576265
0.0630704
0.0670281
0.0691692
0.0692156
0.0670276
0.0626901
0.0555685
0.044353
-0.0495257
-0.0571323
-0.0619013
-0.0649448
-0.0669031
-0.0678614
-0.0679775
-0.0674212
-0.0663293
-0.0648054
-0.0629215
-0.0607228
-0.0582334
-0.0554607
-0.0523993
-0.0490328
-0.0453332
-0.0412632
-0.0367806
-0.0318433
-0.026412
-0.0204526
-0.0139381
-0.00685276
0.000800778
0.00899269
0.0176572
0.0266824
0.0358993
0.0450729
0.0538992
0.0620088
0.0689809
0.074369
0.077736
0.078692
0.0770038
0.0727037
0.0650217
0.0524539
-0.0600563
-0.0683939
-0.0734767
-0.0765484
-0.0783518
-0.0790162
-0.0787492
-0.0777649
-0.0762336
-0.0742817
-0.0719949
-0.0694254
-0.0665991
-0.0635214
-0.0601823
-0.0565586
-0.0526144
-0.0483036
-0.0435741
-0.0383718
-0.0326422
-0.0263327
-0.0193953
-0.0117917
-0.00350182
0.00546761
0.0150725
0.0252187
0.0357475
0.0464221
0.0569178
0.0668191
0.0756291
0.082796
0.0877522
0.0899625
0.0890604
0.0849898
0.0767992
0.0627508
-0.0721865
-0.0813877
-0.0867882
-0.0898003
-0.0913064
-0.091503
-0.0906677
-0.0890751
-0.0869387
-0.0844124
-0.0815975
-0.0785529
-0.0753047
-0.0718545
-0.0681854
-0.064266
-0.0600513
-0.0554859
-0.0505066
-0.0450454
-0.0390304
-0.0323884
-0.0250482
-0.0169463
-0.00803531
0.00170716
0.0122668
0.0235773
0.0355022
0.0478149
0.0601804
0.0721446
0.0831355
0.0924864
0.0994747
0.103379
0.103648
0.100084
0.0914848
0.0758206
-0.0862176
-0.0964623
-0.102166
-0.104971
-0.105961
-0.105436
-0.103773
-0.101328
-0.0983677
-0.0950786
-0.0915774
-0.087928
-0.0841542
-0.0802505
-0.0761904
-0.0719314
-0.0674177
-0.0625824
-0.0573494
-0.0516345
-0.0453471
-0.038392
-0.0306735
-0.0221005
-0.012594
-0.00209626
0.00941654
0.0219168
0.0353033
0.0493749
0.0638027
0.0781083
0.0916544
0.103656
0.113211
0.119368
0.121325
0.118665
0.10983
0.0924059
-0.102567
-0.114097
-0.120049
-0.122402
-0.12254
-0.120924
-0.118073
-0.114449
-0.110382
-0.106093
-0.101712
-0.0973048
-0.0928869
-0.0884406
-0.0839246
-0.0792815
-0.0744409
-0.0693213
-0.0638308
-0.0578677
-0.0513212
-0.0440742
-0.0360052
-0.0269932
-0.0169238
-0.00569869
0.00675169
0.0204491
0.0353421
0.0512732
0.0679421
0.0848704
0.101375
0.116557
0.129325
0.138445
0.142785
0.141598
0.132812
0.113478
-0.12184
-0.134974
-0.141034
-0.142524
-0.141298
-0.13806
-0.133525
-0.128289
-0.122757
-0.11718
-0.111696
-0.106362
-0.101175
-0.0960974
-0.0910648
-0.0859989
-0.0808095
-0.0753964
-0.0696487
-0.0634458
-0.0566566
-0.0491413
-0.0407518
-0.0313352
-0.0207396
-0.00882197
0.00453908
0.0194248
0.0358486
0.0537183
0.0727904
0.09262
0.11251
0.131476
0.148231
0.16122
0.168883
0.169999
0.161731
0.140335
-0.144955
-0.160093
-0.165946
-0.165887
-0.162509
-0.156885
-0.149994
-0.142591
-0.135156
-0.12796
-0.121131
-0.114698
-0.108626
-0.102841
-0.0972465
-0.0917347
-0.0861893
-0.0804857
-0.0744919
-0.0680664
-0.0610576
-0.0533021
-0.0446245
-0.0348394
-0.0237566
-0.0111865
0.00304932
0.0191007
0.0370608
0.056926
0.0785435
0.101546
0.125274
0.148702
0.170377
0.188397
0.200671
0.205312
0.198346
0.174778
-0.173386
-0.190957
-0.195926
-0.193161
-0.186429
-0.177336
-0.167197
-0.156939
-0.147096
-0.137927
-0.129515
-0.121833
-0.114787
-0.108251
-0.102081
-0.0961301
-0.090247
-0.084279
-0.0780692
-0.0714545
-0.0642612
-0.0563019
-0.0473741
-0.0372611
-0.0257351
-0.0125588
0.00250694
0.0196876
0.0391698
0.0610632
0.085344
0.111777
0.139813
0.168466
0.196183
0.22073
0.239405
0.249414
0.2451
0.219414
-0.209607
-0.229867
-0.232535
-0.225116
-0.213207
-0.199144
-0.184618
-0.170698
-0.157908
-0.146429
-0.136241
-0.127214
-0.119166
-0.111891
-0.105184
-0.098846
-0.0926838
-0.0865114
-0.080145
-0.0733981
-0.0660742
-0.0579624
-0.0488349
-0.0384463
-0.0265321
-0.0128078
0.00302777
0.0212807
0.0422441
0.0661653
0.0931915
0.123285
0.156101
0.190819
0.22592
0.258935
0.286521
0.304732
0.305455
0.278239
-0.258016
-0.280389
-0.277845
-0.262517
-0.242723
-0.221675
-0.201384
-0.182932
-0.166692
-0.15265
-0.140596
-0.130237
-0.121255
-0.113343
-0.106213
-0.0996032
-0.0932738
-0.0870024
-0.0805766
-0.0737858
-0.0664117
-0.0582224
-0.0489684
-0.0383779
-0.0261529
-0.0119635
0.00455195
0.0237836
0.046142
0.0720349
0.101823
0.13574
0.173769
0.215433
0.259481
0.303453
0.343498
0.374315
0.384402
0.357787
-0.326897
-0.348062
-0.334365
-0.3058
-0.274234
-0.243645
-0.216071
-0.192287
-0.172265
-0.155608
-0.141792
-0.130284
-0.120585
-0.112255
-0.104912
-0.0982244
-0.0919036
-0.0856906
-0.079346
-0.0726369
-0.0653274
-0.0571692
-0.0478951
-0.0372114
-0.024791
-0.010264
0.00678828
0.0268405
0.050426
0.0781297
0.110565
0.14832
0.191847
0.241258
0.295943
0.353943
0.411376
0.461697
0.489215
0.469493
-0.432353
-0.441232
-0.404483
-0.354238
-0.305648
-0.262612
-0.226397
-0.196851
-0.17312
-0.154166
-0.139006
-0.126779
-0.11677
-0.10839
-0.101155
-0.0946703
-0.0886013
-0.0826587
-0.0765812
-0.0701211
-0.0630313
-0.0550537
-0.0459094
-0.0352895
-0.0228456
-0.00817612
0.00918758
0.029797
0.0543042
0.0834773
0.118211
0.159516
0.208472
0.266072
0.332882
0.408324
0.489668
0.570074
0.630019
0.633689
-0.604648
-0.571017
-0.489316
-0.405093
-0.332995
-0.274769
-0.229282
-0.194347
-0.167678
-0.147295
-0.131609
-0.119385
-0.109676
-0.101753
-0.0950483
-0.089117
-0.0835952
-0.0781753
-0.072586
-0.0665754
-0.0598948
-0.0522843
-0.0434619
-0.0331134
-0.0208798
-0.00633974
0.0110102
0.0317807
0.056724
0.086776
0.123111
0.167206
0.220893
0.286372
0.366055
0.462123
0.575214
0.700581
0.818716
0.884331
-0.906657
-0.74868
-0.584597
-0.451679
-0.349804
-0.275061
-0.221332
-0.18274
-0.154866
-0.134552
-0.119558
-0.108297
-0.0996383
-0.0927587
-0.087049
-0.0820443
-0.0773754
-0.0727365
-0.067863
-0.0625116
-0.0564423
-0.0494037
-0.0411215
-0.0312878
-0.0195467
-0.00547498
0.0114424
0.0318446
0.0565426
0.0865894
0.123385
0.168831
0.225554
0.297197
0.388769
0.507038
0.659265
0.847339
1.06728
1.28856
-1.51569
-0.97758
-0.652012
-0.460436
-0.332319
-0.247792
-0.192596
-0.155827
-0.130804
-0.11348
-0.101275
-0.0924966
-0.0860053
-0.0810106
-0.076944
-0.0733808
-0.0699881
-0.0664929
-0.0626603
-0.0582736
-0.0531167
-0.0469614
-0.0395561
-0.0306165
-0.0198109
-0.00674148
0.00907943
0.0282624
0.0515934
0.0801163
0.115267
0.159101
0.214686
0.286771
0.383017
0.516168
0.704535
0.970305
1.38336
2.03173
-2.65586
-1.20579
-0.594484
-0.360669
-0.237437
-0.167402
-0.127569
-0.103825
-0.0890191
-0.0795727
-0.0734769
-0.0695057
-0.0668674
-0.0650211
-0.0635778
-0.0622432
-0.0607823
-0.0589992
-0.0567211
-0.0537831
-0.0500154
-0.0452332
-0.0392294
-0.0317657
-0.022563
-0.0112861
0.00247265
0.0192181
0.0395903
0.0644262
0.0948657
0.132547
0.179993
0.24143
0.324751
0.446133
0.637294
0.967559
1.69476
3.26711
-4.42768e-05
-0.000347562
-0.000917769
-0.00159005
-0.0022684
-0.00286521
-0.00330341
-0.00352953
-0.00351149
-0.0032321
-0.00268399
-0.00187069
-0.000803389
0.000503288
0.00203045
0.00375397
0.00564726
0.00768253
0.00982861
0.012051
0.0143136
0.0165777
0.0188022
0.0209445
0.0229622
0.0248133
0.0264568
0.0278545
0.028975
0.0297965
0.0303058
0.030499
0.0303853
0.0299908
0.0293607
0.0285604
0.0276792
0.0268371
0.0261951
0.0259185
0.000262493
3.51575e-05
-0.000358384
-0.000825525
-0.00130578
-0.00172584
-0.00201921
-0.00214025
-0.00205828
-0.00175355
-0.00121817
-0.000453847
0.000532572
0.00172988
0.00312169
0.00468729
0.00640377
0.0082463
0.0101866
0.012194
0.0142361
0.0162781
0.0182831
0.0202138
0.0220336
0.0237057
0.0251937
0.0264646
0.0274932
0.028263
0.0287651
0.0289986
0.0289747
0.0287193
0.0282731
0.0276905
0.0270417
0.0264155
0.0259177
0.0256446
0.000984604
0.000630746
0.000229399
-0.00019561
-0.000611996
-0.000958108
-0.00118435
-0.001253
-0.00113737
-0.000820478
-0.000295834
0.000435602
0.00136901
0.00249502
0.00379875
0.0052619
0.00686462
0.00858398
0.0103934
0.0122648
0.0141686
0.0160722
0.0179415
0.019743
0.0214437
0.023009
0.0244046
0.0256005
0.026575
0.0273139
0.0278097
0.0280627
0.0280843
0.0278984
0.0275397
0.0270521
0.0264911
0.0259271
0.0254245
0.025012
0.00194635
0.00135439
0.00084885
0.00038202
-3.91706e-05
-0.000368128
-0.000569218
-0.000614019
-0.00048209
-0.00016163
0.0003513
0.0010564
0.00194963
0.00302166
0.0042592
0.00564693
0.00716684
0.00879698
0.0105126
0.012288
0.0140951
0.0159029
0.0176794
0.0193945
0.0210166
0.0225119
0.0238473
0.0249952
0.0259354
0.0266542
0.0271441
0.0274055
0.0274491
0.0272952
0.0269719
0.0265136
0.0259644
0.0253825
0.0247972
0.0241689
0.00294763
0.00208033
0.00143439
0.000893091
0.000433659
9.09498e-05
-0.000108028
-0.000145451
-8.70533e-06
0.000309153
0.000810186
0.0014934
0.00235392
0.00338245
0.00456795
0.00589749
0.00735396
0.00891643
0.0105625
0.012268
0.0140058
0.0157456
0.0174582
0.019115
0.0206847
0.0221337
0.0234306
0.024549
0.0254691
0.026176
0.0266616
0.0269261
0.026978
0.0268333
0.0265136
0.0260458
0.0254656
0.0248235
0.0241181
0.0232462
0.00387499
0.00272794
0.00192655
0.00128884
0.000765523
0.000388065
0.00017254
0.000127635
0.000259385
0.000570564
0.00106096
0.00172734
0.00256325
0.00356035
0.00470965
0.0059992
0.00741245
0.0089304
0.0105328
0.0121961
0.0138928
0.0155943
0.0172728
0.0188998
0.0204438
0.0218717
0.023153
0.0242621
0.0251773
0.0258822
0.0263674
0.0266319
0.0266814
0.0265271
0.0261851
0.025677
0.0250334
0.0243005
0.0234517
0.0223286
0.00466216
0.00324433
0.00228005
0.00153219
0.000930506
0.00050289
0.000256587
0.000193275
0.000313306
0.000615959
0.0010977
0.00175218
0.00257224
0.00355078
0.00467947
0.00594639
0.00733647
0.0088332
0.0104173
0.0120646
0.0137477
0.0154392
0.0171119
0.0187365
0.0202808
0.0217126
0.023002
0.0241219
0.0250481
0.025762
0.0262528
0.0265175
0.0265583
0.0263812
0.0259984
0.0254281
0.0246978
0.0238521
0.0228443
0.0214698
0.00526199
0.00358393
0.00245517
0.00159092
0.000902479
0.000413992
0.000127538
3.85378e-05
0.000143383
0.000437368
0.000912614
0.00156081
0.00237506
0.00334822
0.00447115
0.00573275
0.0071205
0.00861923
0.010209
0.011865
0.0135608
0.0152697
0.0169638
0.0186124
0.0201832
0.0216449
0.0229664
0.0241175
0.0250712
0.0258066
0.0263114
0.0265797
0.0266091
0.0264014
0.0259654
0.0253174
0.0244829
0.0235072
0.0223287
0.0207026
0.00563545
0.00370634
0.0024147
0.0014316
0.000650927
9.5357e-05
-0.000237008
-0.000355082
-0.00026654
1.89658e-05
0.000490816
0.00114026
0.0019596
0.00294005
0.00407233
0.00534744
0.00675444
0.0082775
0.00989566
0.0115848
0.0133192
0.0150723
0.0168144
0.018514
0.0201393
0.0216582
0.0230366
0.0242404
0.0252396
0.0260115
0.0265411
0.0268187
0.0268373
0.0265947
0.0260975
0.0253601
0.0244073
0.0232876
0.0219281
0.0200469
0.00574987
0.00357636
0.00212342
0.00102004
0.000143861
-0.000481533
-0.000861767
-0.00100981
-0.000938236
-0.000659863
-0.000186094
0.000473027
0.00130754
0.00230775
0.00346575
0.00477392
0.00622068
0.00778876
0.00945747
0.011204
0.0130031
0.0148266
0.016644
0.0184234
0.0201329
0.0217378
0.0231996
0.0244801
0.0255464
0.0263731
0.0269415
0.0272369
0.027248
0.0269694
0.026406
0.0255706
0.0244886
0.0232132
0.0216623
0.0195169
0.00557789
0.00316134
0.00154662
0.000321761
-0.000650364
-0.00134588
-0.00177399
-0.00195243
-0.00189714
-0.00162206
-0.00114015
-0.000463989
0.000395123
0.00142835
0.00262875
0.00398796
0.00549274
0.00712555
0.00886714
0.0106957
0.012585
0.014506
0.0164276
0.0183181
0.0201435
0.0218652
0.0234401
0.0248257
0.0259856
0.0268904
0.0275157
0.0278415
0.0278523
0.0275405
0.0269094
0.0259708
0.0247509
0.0233087
0.0215529
0.0191265
0.00509143
0.00242809
0.000649753
-0.00069694
-0.00176433
-0.00252945
-0.00300515
-0.00321295
-0.00317042
-0.00289347
-0.00239793
-0.00169787
-0.000803976
0.000275738
0.00153344
0.00295897
0.0045385
0.00625565
0.00809262
0.0100275
0.012033
0.0140797
0.0161368
0.0181714
0.0201463
0.0220185
0.0237404
0.0252651
0.0265516
0.0275636
0.0282699
0.0286445
0.0286681
0.0283311
0.0276353
0.0265911
0.0252251
0.0236032
0.0216245
0.018891
0.00426089
0.00134345
-0.000601263
-0.00207043
-0.0032335
-0.00406786
-0.00458956
-0.00482281
-0.0047878
-0.0045041
-0.00398941
-0.0032573
-0.00231779
-0.00117965
0.000147541
0.00165283
0.00332342
0.00514445
0.00709862
0.00916351
0.0113117
0.0135139
0.0157391
0.0179521
0.0201119
0.0221716
0.0240792
0.0257831
0.027235
0.02839
0.0292084
0.0296578
0.029715
0.0293675
0.0286145
0.0274643
0.0259439
0.0241271
0.021903
0.0188276
0.00305599
-0.000126045
-0.00224223
-0.00383664
-0.00509657
-0.00599892
-0.00656273
-0.00681601
-0.00678351
-0.00648775
-0.0059465
-0.00517292
-0.00417787
-0.00297165
-0.00156449
3.35779e-05
0.00181131
0.00375477
0.00584679
0.00806513
0.010383
0.0127714
0.015198
0.0176246
0.0200072
0.022295
0.0244322
0.0263605
0.0280224
0.0293629
0.0303326
0.0308919
0.0310119
0.0306754
0.0298773
0.0286226
0.0269396
0.0249121
0.022417
0.0189568
0.00144262
-0.00201831
-0.0043137
-0.00603719
-0.00739437
-0.00836203
-0.00896326
-0.00923168
-0.00919621
-0.00888084
-0.00830381
-0.00747959
-0.00642069
-0.00513775
-0.00364001
-0.00193603
-3.59137e-05
0.00204707
0.0042966
0.00669174
0.00920675
0.0118123
0.0144739
0.017151
0.0197969
0.022358
0.024773
0.0269759
0.0288986
0.0304745
0.031644
0.0323578
0.0325786
0.0322814
0.0314549
0.0301008
0.0282494
0.0259955
0.0232002
0.0193039
-0.000619119
-0.00437674
-0.00686003
-0.00871598
-0.0101703
-0.0112006
-0.0118353
-0.0121135
-0.0120674
-0.0117229
-0.0111009
-0.0102179
-0.00908705
-0.00771781
-0.00611809
-0.00429546
-0.00225913
-2.08829e-05
0.00240511
0.00499998
0.00773894
0.0105918
0.0135226
0.0164889
0.0194421
0.022325
0.0250705
0.0276034
0.0298444
0.031715
0.0331429
0.0340662
0.0344351
0.0342137
0.033383
0.0319408
0.0299189
0.0274231
0.0242952
0.0199031
-0.00317439
-0.00724856
-0.00992895
-0.0119209
-0.0134728
-0.0145635
-0.015227
-0.0155076
-0.0154411
-0.0150582
-0.0143827
-0.0134325
-0.0122199
-0.0107534
-0.00904038
-0.0070877
-0.00490294
-0.00249492
0.000125325
0.00294119
0.00592882
0.0090579
0.0122918
0.0155874
0.0188942
0.0221511
0.025284
0.0282086
0.0308344
0.0330696
0.0348263
0.036026
0.0366023
0.036505
0.0357052
0.0341945
0.0320048
0.0292527
0.0257571
0.0208015
-0.00627395
-0.0106867
-0.0135748
-0.0157071
-0.0173567
-0.0185041
-0.0191892
-0.0194625
-0.0193661
-0.0189355
-0.018197
-0.0171685
-0.0158626
-0.0142879
-0.0124515
-0.0103589
-0.00801477
-0.00542398
-0.00259407
0.000460859
0.00371876
0.0071507
0.0107209
0.0143864
0.0180948
0.0217805
0.025363
0.0287492
0.0318369
0.0345188
0.0366885
0.0382464
0.039105
0.039196
0.0384763
0.0369278
0.0345797
0.03156
0.0276599
0.0220649
-0.00997629
-0.0147532
-0.0178609
-0.020137
-0.0218824
-0.0230798
-0.0237768
-0.0240322
-0.023895
-0.0234049
-0.0225902
-0.0214702
-0.0200588
-0.0183655
-0.0163964
-0.0141548
-0.0116414
-0.00885701
-0.00580547
-0.00249743
0.00104875
0.00480752
0.00874552
0.0128204
0.0169785
0.0211505
0.0252504
0.0291767
0.0328146
0.0360393
0.038722
0.0407379
0.0419735
0.0423366
0.0417641
0.0402228
0.0377359
0.0344424
0.0300999
0.0237807
-0.0143495
-0.0195197
-0.0228588
-0.0252803
-0.0271163
-0.0283539
-0.0290502
-0.0292735
-0.0290798
-0.028513
-0.027605
-0.0263782
-0.0248487
-0.023026
-0.0209147
-0.0185148
-0.0158235
-0.0128376
-0.00955627
-0.00598503
-0.00213629
0.00196972
0.00630345
0.0108245
0.0154792
0.0201964
0.024886
0.0294384
0.0337255
0.0376028
0.0409162
0.0435108
0.045241
0.0459833
0.0456471
0.0441772
0.0415855
0.03802
0.0331974
0.0260601
-0.0194712
-0.0250675
-0.02865
-0.0312162
-0.0331343
-0.0343971
-0.0350734
-0.0352424
-0.0349679
-0.0343006
-0.0332781
-0.0319268
-0.0302642
-0.0282991
-0.0260341
-0.0234665
-0.0205904
-0.0173976
-0.0138816
-0.0100404
-0.00587857
-0.00140941
0.00334302
0.00834245
0.0135376
0.0188582
0.0242116
0.0294812
0.0345252
0.0391784
0.0432581
0.0465745
0.0489425
0.0501988
0.0502157
0.0489059
0.0462619
0.0424369
0.0370988
0.0290416
-0.025429
-0.0314902
-0.0353293
-0.0380367
-0.0400217
-0.0412855
-0.041911
-0.0419913
-0.0416019
-0.040803
-0.0396388
-0.0381395
-0.0363234
-0.0341987
-0.0317661
-0.0290212
-0.0259541
-0.0225509
-0.0187971
-0.0146817
-0.0102003
-0.00535765
-0.00016998
0.00533364
0.0111079
0.0170861
0.0231759
0.0292554
0.0351705
0.0407344
0.0457336
0.0499381
0.0531162
0.0550541
0.0555742
0.0545434
0.0519236
0.0478683
0.0419859
0.0329003
-0.0323243
-0.0388987
-0.043008
-0.0458469
-0.0478728
-0.0490991
-0.0496278
-0.0495713
-0.0490207
-0.0480477
-0.046704
-0.0450235
-0.0430257
-0.0407185
-0.0381017
-0.0351681
-0.0319031
-0.0282854
-0.0242915
-0.0199005
-0.0150978
-0.00987797
-0.00424627
0.00177921
0.00816302
0.0148461
0.0217398
0.0287203
0.0356233
0.0422416
0.0483296
0.0536133
0.057806
0.060631
0.0618443
0.0612498
0.0587639
0.0545318
0.0480871
0.0378586
-0.0402761
-0.0474237
-0.0518164
-0.0547676
-0.0567932
-0.0579251
-0.0582922
-0.0580323
-0.0572561
-0.0560495
-0.0544729
-0.0525651
-0.0503474
-0.0478281
-0.0450052
-0.0418677
-0.0383947
-0.0345566
-0.0303205
-0.0256551
-0.0205348
-0.014941
-0.00886471
-0.00230893
0.0047051
0.0121304
0.0198869
0.0278534
0.0358596
0.0436815
0.0510423
0.0576211
0.0630679
0.0670284
0.0691729
0.0692211
0.0670232
0.0627006
0.0556918
0.0441996
-0.0494256
-0.0572236
-0.0619112
-0.0649419
-0.0669057
-0.067862
-0.067976
-0.0674191
-0.0663272
-0.0648041
-0.0629215
-0.0607244
-0.0582367
-0.0554657
-0.0524066
-0.049043
-0.0453465
-0.0412793
-0.0367989
-0.0318633
-0.0264335
-0.0204755
-0.0139619
-0.006877
0.000776562
0.00896903
0.0176348
0.0266619
0.035881
0.045057
0.0538862
0.0619993
0.068975
0.0743667
0.077738
0.078697
0.0769983
0.0727166
0.0651647
0.0522813
-0.0599471
-0.0684976
-0.0734895
-0.0765465
-0.0783556
-0.0790177
-0.0787482
-0.077763
-0.0762318
-0.0742807
-0.0719955
-0.0694281
-0.0666039
-0.0635285
-0.0601921
-0.0565716
-0.0526306
-0.0483227
-0.0435958
-0.0383957
-0.0326681
-0.0263601
-0.0194237
-0.0118206
-0.00353068
0.00543934
0.0150454
0.0251933
0.0357243
0.0464015
0.0569006
0.0668059
0.07562
0.0827911
0.0877529
0.0899672
0.0890542
0.0850062
0.0769657
0.0625564
-0.0720657
-0.0815071
-0.0868048
-0.0897995
-0.0913116
-0.0915052
-0.0906668
-0.0890731
-0.0869368
-0.0844116
-0.0815987
-0.0785565
-0.0753108
-0.0718631
-0.068197
-0.0642808
-0.0600695
-0.0555072
-0.050531
-0.0450725
-0.0390598
-0.0324195
-0.0250805
-0.0169792
-0.00806824
0.00167469
0.0122354
0.0235476
0.0354747
0.0477903
0.0601595
0.0721279
0.0831233
0.0924789
0.0994738
0.103383
0.103641
0.100105
0.0916795
0.0756013
-0.086082
-0.0966018
-0.102187
-0.104971
-0.105967
-0.105438
-0.103771
-0.101325
-0.0983655
-0.0950776
-0.0915785
-0.0879316
-0.0841605
-0.0802596
-0.0762027
-0.0719472
-0.0674371
-0.0626053
-0.0573758
-0.051664
-0.0453791
-0.038426
-0.0307089
-0.0221367
-0.0126304
-0.00213223
0.00938163
0.0218836
0.0352727
0.0493475
0.063779
0.0780889
0.0916395
0.103646
0.113209
0.119372
0.121318
0.118692
0.110058
0.0921578
-0.102412
-0.114264
-0.120076
-0.122402
-0.122546
-0.120925
-0.11807
-0.114445
-0.110378
-0.10609
-0.101712
-0.0973071
-0.0928922
-0.088449
-0.0839365
-0.0792972
-0.0744606
-0.0693449
-0.0638582
-0.0578984
-0.0513547
-0.04411
-0.0360427
-0.0270316
-0.0169625
-0.00573687
0.00671473
0.0204141
0.03531
0.0512445
0.0679171
0.0848493
0.101357
0.116545
0.12932
0.138449
0.142777
0.141633
0.133083
0.113195
-0.121659
-0.135177
-0.141068
-0.142522
-0.141301
-0.138057
-0.133519
-0.128282
-0.12275
-0.117175
-0.111693
-0.106361
-0.101178
-0.0961038
-0.0910752
-0.0860134
-0.0808283
-0.0754193
-0.0696757
-0.0634762
-0.0566901
-0.0491775
-0.04079
-0.0313744
-0.0207788
-0.00886057
0.00450197
0.0193901
0.035817
0.0536901
0.0727655
0.0925983
0.112492