/*--------------------------------*- C++ -*----------------------------------*\
  =========                 |
  \\      /  F ield         | OpenFOAM: The Open Source CFD Toolbox
   \\    /   O peration     | Website:  https://openfoam.org
    \\  /    A nd           | Version:  9
     \\/     M anipulation  |
\*---------------------------------------------------------------------------*/
FoamFile
{
    format      ascii;
    class       volVectorField;
    location    "0.1";
    object      U;
}
// * * * * * * * * * * * * * * * * * * * * * * * * * * * * * * * * * * * * * //

dimensions      [0 1 -1 0 0 0 0];

internalField   nonuniform List<vector> 
6400
(
(4.79103e-05 -4.65438e-05 2.48388e-06)
(0.000100797 -2.27236e-05 4.16226e-05)
(4.52267e-05 2.35998e-05 0.000115435)
(-0.000133592 6.22612e-05 0.000202838)
(-0.000425613 9.5738e-05 0.000291159)
(-0.000811917 0.000123645 0.00036895)
(-0.00127508 0.000144752 0.00042612)
(-0.00179556 0.000159631 0.000455746)
(-0.00235346 0.000168411 0.000453645)
(-0.00293072 0.000171756 0.00041752)
(-0.0035109 0.000170355 0.000346517)
(-0.00407878 0.000164724 0.00024109)
(-0.00462121 0.000155373 0.00010265)
(-0.0051264 0.000142824 -6.68676e-05)
(-0.00558398 0.000127418 -0.000264989)
(-0.00598473 0.000109441 -0.000488607)
(-0.00632063 8.92907e-05 -0.00073427)
(-0.00658479 6.72938e-05 -0.000998346)
(-0.00677138 4.36611e-05 -0.00127681)
(-0.00687577 1.86866e-05 -0.00156521)
(-0.00689452 -7.18743e-06 -0.0018588)
(-0.00682558 -3.34702e-05 -0.00215257)
(-0.00666864 -5.97005e-05 -0.00244122)
(-0.00642527 -8.5375e-05 -0.00271924)
(-0.00609882 -0.000109835 -0.00298109)
(-0.00569476 -0.000132326 -0.00322129)
(-0.00522109 -0.000152102 -0.00343455)
(-0.00468825 -0.000168382 -0.00361593)
(-0.00410913 -0.000180311 -0.00376138)
(-0.00349904 -0.000187095 -0.00386804)
(-0.0028756 -0.000188074 -0.0039342)
(-0.00225835 -0.000182627 -0.00395938)
(-0.00166836 -0.00017012 -0.00394475)
(-0.00112784 -0.000150014 -0.0038937)
(-0.00065956 -0.000122018 -0.00381209)
(-0.000285698 -8.62612e-05 -0.00370839)
(-2.59042e-05 -4.38401e-05 -0.00359421)
(0.000106487 1.71631e-06 -0.00348512)
(0.000115963 4.08617e-05 -0.00340206)
(4.61885e-05 4.59983e-05 -0.00291216)
(5.20735e-05 -0.000120724 -3.76828e-05)
(2.92181e-05 6.47798e-06 -9.51658e-06)
(-0.000245607 0.000235877 5.14634e-05)
(-0.00080704 0.000456157 0.000124205)
(-0.00163504 0.000653875 0.000198898)
(-0.00269484 0.00081941 0.000264233)
(-0.00394377 0.000948669 0.000310077)
(-0.00533437 0.00104027 0.000329196)
(-0.00682008 0.0010959 0.000316898)
(-0.00835476 0.00111789 0.000270276)
(-0.00989596 0.00110943 0.00018807)
(-0.0114051 0.00107356 7.05396e-05)
(-0.0128468 0.00101333 -8.11929e-05)
(-0.0141895 0.000931518 -0.000265398)
(-0.0154052 0.000830582 -0.000479565)
(-0.0164695 0.00071286 -0.000720481)
(-0.0173604 0.000580684 -0.000984624)
(-0.0180597 0.000436205 -0.00126819)
(-0.0185523 0.000281532 -0.00156683)
(-0.0188263 0.000119067 -0.00187578)
(-0.018873 -4.84516e-05 -0.00219005)
(-0.0186883 -0.000218045 -0.00250433)
(-0.0182721 -0.000386465 -0.00281294)
(-0.0176289 -0.000550088 -0.00311013)
(-0.0167686 -0.000704871 -0.00339025)
(-0.0157068 -0.000846454 -0.00364759)
(-0.0144648 -0.000970257 -0.00387658)
(-0.01307 -0.00107154 -0.0040722)
(-0.0115559 -0.00114561 -0.00423055)
(-0.00996195 -0.0011881 -0.00434906)
(-0.0083327 -0.00119515 -0.00442635)
(-0.00671726 -0.00116347 -0.00446229)
(-0.00516778 -0.00109054 -0.00445858)
(-0.00373787 -0.000975102 -0.0044192)
(-0.00248051 -0.000817839 -0.0043504)
(-0.00144467 -0.000622498 -0.00426059)
(-0.000669978 -0.00039841 -0.00416057)
(-0.000178245 -0.000165407 -0.00406405)
(3.98022e-05 3.638e-05 -0.00398733)
(4.21216e-05 0.000116012 -0.00333033)
(1.5355e-05 -0.000124149 -0.000130877)
(-0.000162714 0.000252619 -0.000100967)
(-0.000736243 0.00081641 -3.88092e-05)
(-0.00171155 0.00137664 2.72426e-05)
(-0.00306132 0.00188443 9.18413e-05)
(-0.0047391 0.00231305 0.000145737)
(-0.00668527 0.00265004 0.000181007)
(-0.00883393 0.0028903 0.000191939)
(-0.0111167 0.00303623 0.000174414)
(-0.013468 0.00309317 0.000125846)
(-0.0158254 0.00306772 4.52531e-05)
(-0.0181309 0.00296752 -6.72048e-05)
(-0.0203317 0.00280035 -0.000210755)
(-0.0223802 0.00257337 -0.000383935)
(-0.0242339 0.00229332 -0.000584457)
(-0.0258552 0.00196685 -0.000809511)
(-0.0272113 0.00160039 -0.00105604)
(-0.0282744 0.00120005 -0.00132053)
(-0.0290219 0.000772235 -0.00159888)
(-0.0294359 0.000323915 -0.00188675)
(-0.0295042 -0.00013741 -0.00217959)
(-0.0292209 -0.000603482 -0.00247242)
(-0.0285863 -0.00106515 -0.00276)
(-0.0276082 -0.00151243 -0.00303716)
(-0.026302 -0.00193443 -0.00329877)
(-0.0246914 -0.00231951 -0.00353953)
(-0.022809 -0.00265555 -0.00375418)
(-0.0206959 -0.00293025 -0.00393818)
(-0.0184019 -0.00313153 -0.00408813)
(-0.0159854 -0.00324819 -0.00420186)
(-0.0135118 -0.00327044 -0.00427819)
(-0.0110527 -0.00319044 -0.00431716)
(-0.00868333 -0.00300307 -0.00432051)
(-0.00648008 -0.0027072 -0.00429191)
(-0.00451729 -0.00230731 -0.00423672)
(-0.00286219 -0.00181626 -0.00416173)
(-0.00156807 -0.00126016 -0.00407549)
(-0.000664086 -0.000686459 -0.00398875)
(-0.000149156 -0.000177305 -0.00391132)
(6.63078e-06 0.000111626 -0.00324847)
(-3.50098e-05 -1.92383e-06 -0.000255072)
(-0.000403754 0.000765065 -0.000211764)
(-0.0013166 0.00177497 -0.000133395)
(-0.00272901 0.00277428 -6.10689e-05)
(-0.00459647 0.00367964 4.21958e-06)
(-0.00686129 0.0044461 5.53474e-05)
(-0.00945006 0.00504798 8.66262e-05)
(-0.0122816 0.00547817 9.38026e-05)
(-0.0152725 0.00573785 7.37197e-05)
(-0.0183414 0.00583495 2.45433e-05)
(-0.0214104 0.00578071 -5.42963e-05)
(-0.0244066 0.00558818 -0.000162717)
(-0.0272631 0.00527062 -0.000300097)
(-0.0299194 0.00484103 -0.000464992)
(-0.0323212 0.00431206 -0.000655335)
(-0.0344201 0.00369608 -0.000868774)
(-0.0361745 0.00300502 -0.00110257)
(-0.037549 0.00225077 -0.00135334)
(-0.0385143 0.00144571 -0.00161726)
(-0.039048 0.000603066 -0.00189033)
(-0.0391347 -0.000262909 -0.00216828)
(-0.0387673 -0.00113668 -0.00244636)
(-0.0379467 -0.00200117 -0.00271967)
(-0.0366829 -0.00283768 -0.00298348)
(-0.0349959 -0.00362606 -0.00323296)
(-0.0329162 -0.00434502 -0.00346292)
(-0.0304851 -0.00497247 -0.00366831)
(-0.0277548 -0.0054861 -0.00384491)
(-0.0247883 -0.00586427 -0.00398959)
(-0.0216588 -0.00608706 -0.00410022)
(-0.0184482 -0.00613726 -0.00417564)
(-0.0152455 -0.00600159 -0.0042159)
(-0.012144 -0.00567231 -0.00422262)
(-0.00923779 -0.00514932 -0.00419895)
(-0.00661803 -0.0044429 -0.00414923)
(-0.0043671 -0.0035777 -0.00407879)
(-0.00255154 -0.00259929 -0.00399442)
(-0.00121163 -0.00158373 -0.00390494)
(-0.00036543 -0.000651358 -0.00381459)
(-3.35887e-05 -6.00599e-06 -0.00313922)
(-8.16445e-05 0.00025444 -0.000384373)
(-0.000642098 0.00156835 -0.000323045)
(-0.00190591 0.00312886 -0.00022284)
(-0.00376274 0.00464805 -0.000138988)
(-0.00614254 0.00601619 -6.78575e-05)
(-0.00897501 0.00717003 -1.48609e-05)
(-0.0121719 0.00807557 1.6086e-05)
(-0.0156382 0.00872 2.20671e-05)
(-0.0192783 0.00910451 1.15531e-06)
(-0.0229978 0.0092397 -4.76617e-05)
(-0.0267065 0.00914161 -0.000124687)
(-0.0303195 0.00882902 -0.000229773)
(-0.033759 0.00832153 -0.000362149)
(-0.036954 0.00763898 -0.000520372)
(-0.0398403 0.00680097 -0.000702728)
(-0.0423613 0.00582661 -0.000907247)
(-0.044468 0.00473459 -0.00113132)
(-0.0461183 0.00354382 -0.00137172)
(-0.0472779 0.00227407 -0.00162493)
(-0.0479202 0.000946233 -0.00188727)
(-0.0480274 -0.000417342 -0.00215458)
(-0.0475909 -0.00179222 -0.00242225)
(-0.0466116 -0.0031516 -0.00268572)
(-0.0451014 -0.00446639 -0.00294055)
(-0.0430836 -0.00570542 -0.00318196)
(-0.0405939 -0.00683579 -0.00340484)
(-0.0376806 -0.00782348 -0.00360432)
(-0.0344045 -0.00863439 -0.0037764)
(-0.0308392 -0.00923563 -0.00391797)
(-0.0270699 -0.00959705 -0.00402678)
(-0.0231919 -0.00969288 -0.00410155)
(-0.0193087 -0.00950377 -0.00414224)
(-0.0155284 -0.0090192 -0.00415021)
(-0.0119608 -0.00824047 -0.00412793)
(-0.00871181 -0.00718435 -0.00407877)
(-0.00587896 -0.00588792 -0.00400687)
(-0.00354385 -0.00441571 -0.00391773)
(-0.00176211 -0.00286929 -0.00381892)
(-0.000577905 -0.00139932 -0.00370985)
(-7.06172e-05 -0.000240705 -0.00301959)
(-0.000121105 0.000636697 -0.000504039)
(-0.000862881 0.00265885 -0.000422271)
(-0.00247051 0.00488063 -0.000297808)
(-0.00476606 0.00699926 -0.000199217)
(-0.00765161 0.0088882 -0.000118517)
(-0.0110374 0.0104718 -6.01631e-05)
(-0.0148197 0.0117092 -2.67906e-05)
(-0.018891 0.0125833 -1.97661e-05)
(-0.0231429 0.0130964 -3.99472e-05)
(-0.0274699 0.0132622 -8.77632e-05)
(-0.0317713 0.0131019 -0.000163188)
(-0.0359528 0.0126404 -0.000265712)
(-0.0399271 0.0119045 -0.00039432)
(-0.0436147 0.0109218 -0.000547717)
(-0.0469438 0.00971938 -0.000724527)
(-0.0498509 0.00832396 -0.000922932)
(-0.0522809 0.00676204 -0.00114039)
(-0.0541862 0.00506066 -0.00137393)
(-0.0555279 0.00324789 -0.00162041)
(-0.056276 0.00135326 -0.00187626)
(-0.0564103 -0.000591489 -0.00213728)
(-0.0559202 -0.00255172 -0.00239905)
(-0.0548065 -0.00448961 -0.00265726)
(-0.0530817 -0.0063643 -0.0029075)
(-0.0507717 -0.00813201 -0.00314496)
(-0.0479156 -0.00974656 -0.00336459)
(-0.0445668 -0.0111604 -0.0035617)
(-0.0407933 -0.0123259 -0.00373232)
(-0.036677 -0.0131975 -0.00387315)
(-0.0323133 -0.0137332 -0.00398164)
(-0.0278091 -0.0138976 -0.00405632)
(-0.0232803 -0.0136643 -0.00409699)
(-0.0188492 -0.0130193 -0.00410457)
(-0.0146401 -0.011965 -0.0040808)
(-0.0107745 -0.0105242 -0.0040282)
(-0.00736596 -0.00874562 -0.00395009)
(-0.00451392 -0.00671092 -0.00385118)
(-0.00229294 -0.00454308 -0.00373835)
(-0.000776555 -0.00241589 -0.00360701)
(-0.000102758 -0.000583825 -0.00290061)
(-0.000154997 0.00113049 -0.000605547)
(-0.00106459 0.00402225 -0.000501261)
(-0.00300292 0.00701975 -0.00035161)
(-0.00572827 0.00981873 -0.000236167)
(-0.00910974 0.0122851 -0.000143508)
(-0.0130382 0.0143373 -7.75234e-05)
(-0.017393 0.0159288 -3.95462e-05)
(-0.0220515 0.0170429 -2.97067e-05)
(-0.026893 0.0176835 -4.81192e-05)
(-0.0318019 0.0178685 -9.46775e-05)
(-0.0366681 0.017625 -0.000168796)
(-0.0413886 0.016985 -0.000269495)
(-0.0458685 0.0159835 -0.000395677)
(-0.0500211 0.014656 -0.000546244)
(-0.0537685 0.0130378 -0.000719916)
(-0.0570416 0.0111641 -0.000914869)
(-0.0597798 0.00906984 -0.00112877)
(-0.0619309 0.00679092 -0.00135902)
(-0.0634523 0.00436433 -0.00160268)
(-0.0643105 0.00182906 -0.00185608)
(-0.0644825 -0.000772852 -0.00211502)
(-0.0639558 -0.00339562 -0.00237525)
(-0.06273 -0.00598942 -0.00263255)
(-0.0608176 -0.00850041 -0.00288242)
(-0.0582453 -0.0108709 -0.00311994)
(-0.0550546 -0.01304 -0.00334018)
(-0.0513027 -0.014945 -0.00353853)
(-0.0470627 -0.0165235 -0.00371081)
(-0.0424238 -0.0177152 -0.00385332)
(-0.03749 -0.0184649 -0.00396318)
(-0.0323788 -0.0187259 -0.00403869)
(-0.0272182 -0.0184634 -0.00407937)
(-0.0221445 -0.0176589 -0.00408557)
(-0.0172972 -0.0163146 -0.00405829)
(-0.0128145 -0.0144582 -0.00399939)
(-0.00882857 -0.0121485 -0.00391168)
(-0.00545902 -0.00948156 -0.00379943)
(-0.00280206 -0.00659832 -0.00366922)
(-0.000961607 -0.00369029 -0.00351329)
(-0.000130732 -0.00102575 -0.00278928)
(-0.000184636 0.00172519 -0.00068278)
(-0.00125168 0.00564392 -0.000553227)
(-0.00350835 0.00953247 -0.000378142)
(-0.00665317 0.0130961 -0.000244828)
(-0.0105232 0.0161982 -0.000138886)
(-0.0149882 0.0187558 -6.36892e-05)
(-0.0199084 0.0207225 -1.95321e-05)
(-0.0251452 0.0220841 -5.78311e-06)
(-0.0305661 0.0228481 -2.19162e-05)
(-0.0360446 0.0230385 -6.71501e-05)
(-0.0414615 0.0226895 -0.00014027)
(-0.0467061 0.0218414 -0.000240014)
(-0.0516769 0.0205378 -0.000365319)
(-0.0562813 0.0188228 -0.000515081)
(-0.0604362 0.0167407 -0.000687897)
(-0.0640674 0.0143356 -0.000882043)
(-0.06711 0.0116516 -0.00109555)
(-0.0695077 0.00873364 -0.00132608)
(-0.0712143 0.00562805 -0.00157062)
(-0.072193 0.0023839 -0.00182539)
(-0.0724176 -0.00094591 -0.00208628)
(-0.0718731 -0.00430383 -0.00234916)
(-0.070557 -0.00762728 -0.00260975)
(-0.0684809 -0.0108485 -0.00286331)
(-0.0656709 -0.0138946 -0.00310495)
(-0.0621695 -0.0166888 -0.00332978)
(-0.0580361 -0.0191519 -0.00353306)
(-0.0533482 -0.0212045 -0.00371015)
(-0.0482005 -0.0227702 -0.00385688)
(-0.0427052 -0.0237786 -0.00397004)
(-0.0369897 -0.0241696 -0.00404767)
(-0.0311945 -0.0238984 -0.00408886)
(-0.0254706 -0.0229399 -0.0040933)
(-0.0199741 -0.0212943 -0.00406128)
(-0.0148621 -0.0189923 -0.0039942)
(-0.0102875 -0.0161007 -0.00389452)
(-0.00639301 -0.0127283 -0.00376627)
(-0.00329838 -0.00903055 -0.00361606)
(-0.00113793 -0.00521402 -0.00343373)
(-0.000156033 -0.00155944 -0.00268987)
(-0.000211829 0.00241391 -0.000730733)
(-0.00142922 0.00751169 -0.000571937)
(-0.00399537 0.0124094 -0.000371604)
(-0.00755308 0.0168235 -0.000220054)
(-0.0119083 0.0206217 -0.000100017)
(-0.0169079 0.023723 -1.45293e-05)
(-0.0223923 0.0260863 3.66589e-05)
(-0.0282067 0.0277017 5.4825e-05)
(-0.0342052 0.0285839 4.11999e-05)
(-0.0402504 0.0287647 -2.72655e-06)
(-0.0462145 0.0282873 -7.53361e-05)
(-0.0519795 0.0272013 -0.00017528)
(-0.0574376 0.0255596 -0.000301377)
(-0.0624915 0.0234161 -0.000452284)
(-0.0670533 0.0208245 -0.000626551)
(-0.0710447 0.0178382 -0.000822745)
(-0.0743967 0.0145107 -0.00103917)
(-0.0770498 0.0108961 -0.00127343)
(-0.078954 0.00705035 -0.00152237)
(-0.080069 0.00303293 -0.00178223)
(-0.080365 -0.0010922 -0.00204906)
(-0.0798239 -0.0052554 -0.00231871)
(-0.0784404 -0.00938076 -0.00258668)
(-0.0762233 -0.0133858 -0.00284812)
(-0.0731973 -0.0171815 -0.00309813)
(-0.0694043 -0.0206738 -0.00333176)
(-0.0649047 -0.0237655 -0.0035438)
(-0.0597787 -0.0263586 -0.00372901)
(-0.0541261 -0.0283579 -0.00388276)
(-0.0480662 -0.0296757 -0.00400151)
(-0.0417366 -0.0302363 -0.00408294)
(-0.0352909 -0.0299819 -0.00412555)
(-0.0288958 -0.0288785 -0.00412831)
(-0.0227262 -0.0269221 -0.00409094)
(-0.0169604 -0.024144 -0.00401443)
(-0.0117752 -0.0206169 -0.00390101)
(-0.00733863 -0.01646 -0.0037546)
(-0.00379599 -0.0118423 -0.00358226)
(-0.00131209 -0.00698446 -0.00337194)
(-0.00018021 -0.00218147 -0.00260498)
(-0.000237706 0.00319229 -0.000745182)
(-0.001602 0.0096196 -0.000551887)
(-0.00447392 0.0156449 -0.000326604)
(-0.00844331 0.0209985 -0.000156567)
(-0.0132849 0.025555 -2.19229e-05)
(-0.0188226 0.0292409 7.43198e-05)
(-0.0248758 0.0320223 0.000132819)
(-0.0312732 0.0338981 0.000155595)
(-0.0378544 0.0348929 0.000144592)
(-0.0444711 0.0350486 0.000101753)
(-0.0509866 0.0344194 2.88507e-05)
(-0.0572761 0.0330656 -7.25795e-05)
(-0.0632263 0.0310507 -0.000201029)
(-0.0687352 0.028439 -0.000354992)
(-0.073711 0.0252943 -0.000533185)
(-0.0780717 0.0216796 -0.000734409)
(-0.0817452 0.0176577 -0.000956925)
(-0.0846686 0.013292 -0.00119814)
(-0.0867883 0.00864809 -0.00145487)
(-0.0880602 0.00379576 -0.00172356)
(-0.0884507 -0.00119001 -0.0020003)
(-0.0879373 -0.00622742 -0.0022808)
(-0.0865109 -0.0112269 -0.00256036)
(-0.0841767 -0.0160905 -0.0028341)
(-0.0809559 -0.0207124 -0.00309705)
(-0.0768885 -0.0249801 -0.00334391)
(-0.0720346 -0.0287764 -0.0035688)
(-0.0664757 -0.0319825 -0.00376583)
(-0.0603154 -0.0344825 -0.0039299)
(-0.0536798 -0.0361679 -0.00405707)
(-0.0467169 -0.0369444 -0.00414445)
(-0.0395941 -0.0367384 -0.00418981)
(-0.0324955 -0.0355037 -0.00419144)
(-0.025617 -0.0332286 -0.00414857)
(-0.0191608 -0.0299427 -0.00406189)
(-0.0133306 -0.0257224 -0.00393343)
(-0.00832311 -0.0206959 -0.00376717)
(-0.00431111 -0.0150453 -0.00357089)
(-0.00149099 -0.00900637 -0.00333095)
(-0.000204653 -0.00289222 -0.00253646)
(-0.000263184 0.00405873 -0.000722464)
(-0.00177444 0.0119659 -0.000488072)
(-0.00495397 0.0192388 -0.000237788)
(-0.00933944 0.0256233 -4.90707e-05)
(-0.0146741 0.0310033 0.000100327)
(-0.0207585 0.035316 0.000207323)
(-0.0273911 0.0385381 0.000273183)
(-0.0343818 0.0406814 0.000300658)
(-0.0415562 0.0417829 0.000292158)
(-0.0487545 0.041898 0.000249834)
(-0.0558312 0.0410934 0.000175685)
(-0.0626548 0.039442 7.16179e-05)
(-0.069107 0.0370194 -6.063e-05)
(-0.0750816 0.0339011 -0.000219642)
(-0.0804835 0.0301615 -0.000404302)
(-0.0852278 0.0258734 -0.000613347)
(-0.0892396 0.0211088 -0.000844804)
(-0.0924529 0.0159403 -0.001096)
(-0.0948103 0.010443 -0.00136394)
(-0.096264 0.00469634 -0.00164523)
(-0.0967755 -0.00121388 -0.00193585)
(-0.0963178 -0.00719384 -0.00223135)
(-0.0948763 -0.0131402 -0.00252698)
(-0.092451 -0.0189394 -0.00281779)
(-0.0890586 -0.0244679 -0.00309857)
(-0.0847351 -0.0295934 -0.00336341)
(-0.0795386 -0.0341771 -0.00360572)
(-0.0735502 -0.0380771 -0.00381892)
(-0.0668764 -0.0411532 -0.00399739)
(-0.0596494 -0.0432735 -0.00413656)
(-0.0520276 -0.0443211 -0.00423272)
(-0.0441929 -0.0442023 -0.00428278)
(-0.0363487 -0.0428549 -0.00428442)
(-0.028714 -0.040256 -0.00423647)
(-0.0215185 -0.0364301 -0.0041394)
(-0.0149962 -0.0314551 -0.00399508)
(-0.00937584 -0.025467 -0.00380763)
(-0.00486088 -0.0186617 -0.00358569)
(-0.00168152 -0.0112926 -0.00331406)
(-0.000230598 -0.00369572 -0.00248607)
(-0.000289182 0.00501429 -0.000658949)
(-0.00195063 0.0145533 -0.000375378)
(-0.00544464 0.0231969 -9.97747e-05)
(-0.010256 0.0307063 0.000107683)
(-0.0160963 0.0369774 0.000271731)
(-0.0227416 0.04196 0.000389414)
(-0.0299682 0.0456465 0.000462626)
(-0.0375671 0.0480643 0.000494624)
(-0.045349 0.0492667 0.000488096)
(-0.0531424 0.0493249 0.000445497)
(-0.0607932 0.0483209 0.000369236)
(-0.0681635 0.0463423 0.000261475)
(-0.0751303 0.0434781 0.000123902)
(-0.0815839 0.0398161 -4.2206e-05)
(-0.0874266 0.0354416 -0.000235651)
(-0.0925716 0.0304372 -0.000454916)
(-0.0969412 0.0248842 -0.000697903)
(-0.100467 0.018864 -0.000962084)
(-0.103087 0.0124606 -0.00124468)
(-0.104751 0.00576244 -0.00154231)
(-0.105414 -0.00113454 -0.00185082)
(-0.105043 -0.00812492 -0.00216568)
(-0.103618 -0.0150919 -0.00248215)
(-0.101132 -0.0219062 -0.00279513)
(-0.0975951 -0.028426 -0.00309892)
(-0.0930373 -0.034498 -0.00338694)
(-0.0875126 -0.0399598 -0.00365186)
(-0.0810999 -0.0446436 -0.00388646)
(-0.0739071 -0.048382 -0.00408437)
(-0.0660716 -0.0510153 -0.00424004)
(-0.0577617 -0.0523995 -0.00434869)
(-0.0491749 -0.052416 -0.00440631)
(-0.0405347 -0.0509816 -0.00440996)
(-0.0320867 -0.0480578 -0.00435816)
(-0.0240909 -0.0436603 -0.00425114)
(-0.0168161 -0.0378658 -0.00409057)
(-0.0105273 -0.0308175 -0.00388071)
(-0.00546284 -0.0227256 -0.0036311)
(-0.00189044 -0.0138649 -0.00332498)
(-0.000259169 -0.00459961 -0.00245582)
(-0.000316275 0.00606149 -0.000550799)
(-0.00213376 0.0173891 -0.00020867)
(-0.00595397 0.0275303 9.26998e-05)
(-0.0112066 0.0362615 0.000319025)
(-0.0175701 0.0434926 0.000497751)
(-0.0247952 0.0491898 0.000626116)
(-0.0326343 0.0533644 0.000706424)
(-0.0408592 0.0560634 0.000742344)
(-0.0492651 0.0573597 0.000736989)
(-0.0576688 0.0573437 0.000693339)
(-0.0659076 0.0561157 0.000614112)
(-0.0738375 0.0537801 0.000501441)
(-0.0813315 0.0504408 0.000356898)
(-0.0882774 0.0461987 0.000181826)
(-0.0945759 0.0411508 -2.23297e-05)
(-0.100138 0.0353896 -0.000253905)
(-0.104886 0.0290055 -0.000510918)
(-0.108746 0.022088 -0.000791068)
(-0.111657 0.0147288 -0.00109169)
(-0.11356 0.0070247 -0.00140934)
(-0.114408 -0.000919286 -0.00173981)
(-0.11416 -0.00898701 -0.0020786)
(-0.112788 -0.0170488 -0.00242094)
(-0.110277 -0.02496 -0.00276137)
(-0.106628 -0.0325601 -0.00309363)
(-0.101864 -0.0396737 -0.00341049)
(-0.0960312 -0.0461127 -0.00370397)
(-0.0892047 -0.0516809 -0.00396611)
(-0.0814913 -0.0561798 -0.00418944)
(-0.0730323 -0.0594171 -0.00436712)
(-0.0640052 -0.0612162 -0.00449304)
(-0.0546228 -0.061428 -0.00456221)
(-0.0451309 -0.059942 -0.00457105)
(-0.0358035 -0.0566988 -0.00451763)
(-0.0269356 -0.0517005 -0.00440183)
(-0.018835 -0.0450197 -0.00422496)
(-0.0118087 -0.0368054 -0.00399137)
(-0.00613475 -0.0272835 -0.00371178)
(-0.00212453 -0.0167537 -0.00336768)
(-0.000291438 -0.00561503 -0.00244794)
(-0.000344966 0.00720488 -0.000394038)
(-0.00232683 0.0204847 1.7224e-05)
(-0.00648925 0.0322549 0.000345159)
(-0.0122035 0.0423078 0.000590767)
(-0.0191123 0.0505694 0.000784384)
(-0.0269394 0.0570261 0.000923243)
(-0.0354124 0.0617117 0.00101004)
(-0.0442827 0.0646968 0.00104905)
(-0.0533297 0.0660781 0.00104408)
(-0.0623582 0.0659689 0.000998558)
(-0.0711972 0.0644909 0.000915259)
(-0.0796973 0.0617676 0.000796245)
(-0.0877284 0.0579196 0.000643175)
(-0.095177 0.0530622 0.000457603)
(-0.101943 0.0473043 0.000241097)
(-0.107937 0.0407486 -4.77708e-06)
(-0.11308 0.033494 -0.000278269)
(-0.117297 0.0256371 -0.000577248)
(-0.120524 0.0172765 -0.000899087)
(-0.122698 0.0085158 -0.00124037)
(-0.123766 -0.000532262 -0.00159696)
(-0.12368 -0.00974215 -0.0019644)
(-0.122403 -0.0189725 -0.00233772)
(-0.119909 -0.0280637 -0.00271104)
(-0.116188 -0.0368366 -0.00307757)
(-0.111254 -0.0450929 -0.00342952)
(-0.105142 -0.0526172 -0.00375829)
(-0.097921 -0.0591817 -0.0040549)
(-0.0896934 -0.0645526 -0.00431054)
(-0.0806022 -0.0684997 -0.00451676)
(-0.0708323 -0.0708077 -0.00466598)
(-0.0606117 -0.0712894 -0.00475207)
(-0.0502095 -0.0698001 -0.00477057)
(-0.0399307 -0.0662524 -0.00471883)
(-0.0301092 -0.0606292 -0.00459607)
(-0.0210976 -0.0529948 -0.00440315)
(-0.0132511 -0.043502 -0.0041446)
(-0.00689459 -0.0323937 -0.00383256)
(-0.00239073 -0.0199983 -0.00344649)
(-0.000328526 -0.00675655 -0.00246505)
(-0.000375795 0.00845036 -0.000184239)
(-0.00253252 0.0238543 0.000308139)
(-0.00705691 0.0373908 0.000663834)
(-0.013257 0.0488684 0.000929324)
(-0.020737 0.0582322 0.00113792)
(-0.0291911 0.0654923 0.00128683)
(-0.0383209 0.0707094 0.0013794)
(-0.047856 0.0739825 0.00142074)
(-0.0575593 0.0754369 0.0014153)
(-0.0672238 0.0752127 0.00136678)
(-0.0766706 0.0734564 0.00127801)
(-0.0857463 0.0703132 0.00115121)
(-0.0943188 0.0659225 0.000988286)
(-0.102274 0.0604151 0.000790863)
(-0.109513 0.0539127 0.000560396)
(-0.115947 0.0465281 0.000298228)
(-0.121497 0.0383676 5.91588e-06)
(-0.126089 0.0295343 -0.000314534)
(-0.129655 0.0201319 -0.00066062)
(-0.13213 0.0102692 -0.00102911)
(-0.133454 6.49134e-05 -0.00141603)
(-0.133572 -0.010348 -0.00181688)
(-0.132435 -0.0208181 -0.00222638)
(-0.130007 -0.0311719 -0.00263824)
(-0.126265 -0.0412123 -0.00304528)
(-0.121208 -0.0507175 -0.00343923)
(-0.114859 -0.0594434 -0.00381071)
(-0.107275 -0.0671276 -0.00414954)
(-0.0985517 -0.0734967 -0.00444528)
(-0.0888303 -0.0782765 -0.00468773)
(-0.0783008 -0.0812054 -0.00486768)
(-0.0672048 -0.08205 -0.00497753)
(-0.0558348 -0.0806224 -0.00501151)
(-0.0445296 -0.0767986 -0.00496581)
(-0.0336659 -0.0705346 -0.0048387)
(-0.0236477 -0.0618808 -0.0046305)
(-0.0148859 -0.0509912 -0.00434608)
(-0.00776061 -0.0381262 -0.00399917)
(-0.00269631 -0.0236467 -0.00356664)
(-0.000371705 -0.00804238 -0.0025105)
(-0.000409146 0.009805 8.37945e-05)
(-0.00275304 0.0275153 0.000670736)
(-0.00766257 0.0429617 0.00105556)
(-0.0143764 0.0559701 0.00134148)
(-0.0224561 0.0665078 0.001565)
(-0.0315641 0.0746129 0.00172355)
(-0.0413731 0.0803782 0.00182127)
(-0.0515899 0.0839368 0.00186413)
(-0.0619605 0.0854475 0.00185706)
(-0.0722662 0.0850821 0.0018041)
(-0.0823213 0.0830155 0.00170841)
(-0.0919692 0.0794178 0.00157253)
(-0.101077 0.0744494 0.00139848)
(-0.109534 0.0682582 0.00118777)
(-0.117241 0.060979 0.000941615)
(-0.124113 0.0527345 0.000661205)
(-0.130074 0.0436379 0.000347937)
(-0.13505 0.0337973 3.58992e-06)
(-0.138973 0.0233198 -0.000369652)
(-0.141775 0.0123171 -0.000768868)
(-0.143389 0.000911579 -0.00119024)
(-0.143753 -0.0107588 -0.00162915)
(-0.142808 -0.0225346 -0.00208005)
(-0.140503 -0.0342308 -0.00253641)
(-0.1368 -0.045633 -0.0029907)
(-0.13168 -0.0564965 -0.00343416)
(-0.125151 -0.0665474 -0.00385646)
(-0.117253 -0.075486 -0.00424605)
(-0.10807 -0.0829946 -0.00459077)
(-0.0977376 -0.0887486 -0.00487855)
(-0.0864458 -0.0924317 -0.00509824)
(-0.074448 -0.0937542 -0.0052403)
(-0.0620594 -0.0924745 -0.00529706)
(-0.0496541 -0.0884207 -0.00526302)
(-0.0376562 -0.0815124 -0.00513526)
(-0.0265273 -0.0717784 -0.0049135)
(-0.0167437 -0.0593696 -0.00460289)
(-0.00875141 -0.0445632 -0.00421874)
(-0.00304888 -0.0277563 -0.00373471)
(-0.000422395 -0.00949482 -0.00258874)
(-0.000445288 0.0112773 0.000415943)
(-0.00299041 0.0314879 0.00111229)
(-0.00831131 0.0489949 0.0015277)
(-0.0155696 0.0636429 0.00183457)
(-0.0242799 0.0754247 0.00207306)
(-0.0340685 0.0844122 0.00224092)
(-0.044577 0.0907367 0.00234308)
(-0.0554879 0.0945715 0.00238632)
(-0.0665295 0.096115 0.00237617)
(-0.0774724 0.0955757 0.00231728)
(-0.088125 0.0931616 0.00221332)
(-0.098329 0.0890712 0.00206704)
(-0.107954 0.0834886 0.0018804)
(-0.11689 0.07658 0.00165475)
(-0.125047 0.0684941 0.00139118)
(-0.132342 0.0593631 0.00109077)
(-0.138704 0.0493065 0.000754651)
(-0.144063 0.0384354 0.000384179)
(-0.14835 0.0268583 -1.89434e-05)
(-0.151497 0.0146875 -0.000452151)
(-0.153432 0.00204583 -0.000911778)
(-0.154085 -0.0109267 -0.00139318)
(-0.153385 -0.0240659 -0.00189072)
(-0.151267 -0.0371773 -0.00239773)
(-0.147674 -0.0500321 -0.00290644)
(-0.142568 -0.0623636 -0.00340742)
(-0.135934 -0.0738675 -0.00388933)
(-0.127793 -0.0842049 -0.0043392)
(-0.11821 -0.0930093 -0.00474313)
(-0.107307 -0.0998989 -0.00508698)
(-0.0952723 -0.104493 -0.00535724)
(-0.0823644 -0.106435 -0.00554181)
(-0.0689196 -0.105415 -0.00563046)
(-0.0553478 -0.101202 -0.00561553)
(-0.0421241 -0.0936632 -0.00549251)
(-0.0297758 -0.0827973 -0.00526021)
(-0.0188549 -0.0687451 -0.00492383)
(-0.00988567 -0.0517986 -0.00450022)
(-0.0034562 -0.0323936 -0.00395921)
(-0.00048205 -0.0111403 -0.00270592)
(-0.000484602 0.0128765 0.000818775)
(-0.00324682 0.0357946 0.00164094)
(-0.00900821 0.0555204 0.00208856)
(-0.0168447 0.0719181 0.00241704)
(-0.026217 0.0850116 0.00267056)
(-0.0367115 0.0949128 0.00284716)
(-0.0479354 0.101799 0.00295268)
(-0.0595451 0.105891 0.00299481)
(-0.0712514 0.107434 0.00298004)
(-0.0828142 0.10668 0.00291377)
(-0.0940378 0.103874 0.00280006)
(-0.104765 0.099248 0.00264175)
(-0.114868 0.093012 0.00244079)
(-0.124245 0.0853524 0.0021985)
(-0.132813 0.0764324 0.00191594)
(-0.140497 0.0663935 0.00159399)
(-0.147233 0.0553601 0.00123335)
(-0.152957 0.043445 0.000834765)
(-0.157602 0.0307554 0.00039939)
(-0.161102 0.0174011 -7.05973e-05)
(-0.163381 0.00350192 -0.000571813)
(-0.164361 -0.0108038 -0.00109982)
(-0.163961 -0.0253508 -0.0016491)
(-0.1621 -0.0399394 -0.00221301)
(-0.1587 -0.0543291 -0.00278349)
(-0.1537 -0.0682338 -0.00335046)
(-0.147059 -0.0813197 -0.00390157)
(-0.138771 -0.0932072 -0.00442247)
(-0.128876 -0.103477 -0.00489745)
(-0.117476 -0.111684 -0.00531002)
(-0.104746 -0.117373 -0.00564379)
(-0.090946 -0.120106 -0.00588344)
(-0.0764291 -0.119491 -0.00601553)
(-0.0616391 -0.115216 -0.00602956)
(-0.0471055 -0.107087 -0.00591887)
(-0.0334285 -0.0950527 -0.00568076)
(-0.0212482 -0.0792352 -0.00532005)
(-0.0111819 -0.0599369 -0.00485519)
(-0.00392612 -0.0376343 -0.00425145)
(-0.000552105 -0.0130093 -0.00287055)
(-0.0005276 0.014613 0.00129989)
(-0.00352475 0.0404606 0.00226621)
(-0.00975897 0.0625704 0.00274788)
(-0.0182094 0.0808288 0.00309854)
(-0.0282754 0.0952966 0.00336679)
(-0.039498 0.106134 0.00355112)
(-0.0514463 0.113572 0.00365847)
(-0.0637489 0.117889 0.00369783)
(-0.0760989 0.119386 0.00367674)
(-0.0882468 0.118364 0.00360129)
(-0.0999946 0.115113 0.00347585)
(-0.111188 0.109902 0.00330348)
(-0.121709 0.10297 0.00308631)
(-0.131463 0.0945257 0.00282577)
(-0.140379 0.0847469 0.00252281)
(-0.148394 0.0737844 0.00217792)
(-0.155454 0.0617666 0.00179124)
(-0.161503 0.0488054 0.00136286)
(-0.166482 0.0350044 0.000893379)
(-0.170325 0.0204672 0.000384435)
(-0.172959 0.00530679 -0.000161142)
(-0.174299 -0.0103446 -0.000739424)
(-0.174252 -0.0263257 -0.00134528)
(-0.172721 -0.0424364 -0.00197217)
(-0.169608 -0.0584292 -0.00261183)
(-0.164824 -0.0740021 -0.00325365)
(-0.158298 -0.0887943 -0.00388437)
(-0.149989 -0.102386 -0.00448838)
(-0.139906 -0.114302 -0.00504799)
(-0.128118 -0.124027 -0.00554402)
(-0.114781 -0.131021 -0.0059567)
(-0.100145 -0.134751 -0.00626679)
(-0.0845719 -0.134722 -0.00645687)
(-0.0685366 -0.130526 -0.00651275)
(-0.0526243 -0.121877 -0.0064247)
(-0.0375154 -0.108661 -0.00618769)
(-0.0239507 -0.0909643 -0.00580567)
(-0.0126585 -0.0690926 -0.0052986)
(-0.0044667 -0.043563 -0.00462624)
(-0.00063408 -0.0151363 -0.00309398)
(-0.000574844 0.0164988 0.00186815)
(-0.0038272 0.0455137 0.0029991)
(-0.0105701 0.0701803 0.00351671)
(-0.0196725 0.0904094 0.00388982)
(-0.0304631 0.106306 0.00417201)
(-0.0424309 0.118087 0.00436251)
(-0.0551031 0.126051 0.00446972)
(-0.0680783 0.130545 0.00450411)
(-0.0810318 0.131933 0.00447428)
(-0.0937067 0.130576 0.00438704)
(-0.105906 0.126816 0.00424727)
(-0.117482 0.120962 0.00405849)
(-0.128329 0.113287 0.00382314)
(-0.138366 0.104023 0.0035427)
(-0.147537 0.0933634 0.00321785)
(-0.155795 0.0814686 0.0028486)
(-0.163099 0.0684687 0.00243454)
(-0.169408 0.0544733 0.00197513)
(-0.174671 0.0395787 0.00147028)
(-0.17883 0.0238789 0.000920814)
(-0.181813 0.0074756 0.000328677)
(-0.183531 -0.0095105 -0.000303025)
(-0.183884 -0.0269277 -0.000969752)
(-0.182759 -0.0445815 -0.00166529)
(-0.180036 -0.0622237 -0.00238137)
(-0.175595 -0.0795419 -0.00310708)
(-0.169331 -0.0961526 -0.00382853)
(-0.161163 -0.111598 -0.00452884)
(-0.151055 -0.125346 -0.0051883)
(-0.139038 -0.136807 -0.00578471)
(-0.12523 -0.145345 -0.00629438)
(-0.109863 -0.150314 -0.00669347)
(-0.0932939 -0.1511 -0.00695962)
(-0.0760228 -0.147165 -0.00707383)
(-0.0586885 -0.138112 -0.00702212)
(-0.042058 -0.123734 -0.00679606)
(-0.0269865 -0.104061 -0.00639795)
(-0.0143338 -0.0793891 -0.00584891)
(-0.00508657 -0.0502732 -0.00510203)
(-0.000729769 -0.0175603 -0.00339067)
(-0.000627054 0.0185476 0.00253363)
(-0.00415798 0.0509857 0.00385216)
(-0.0114499 0.0783889 0.00440761)
(-0.021245 0.100695 0.00480304)
(-0.0327897 0.118061 0.00509779)
(-0.0455132 0.130777 0.00529215)
(-0.0588952 0.13922 0.00539626)
(-0.0725032 0.143819 0.00542226)
(-0.0859954 0.145015 0.00538002)
(-0.0991103 0.143238 0.00527735)
(-0.111656 0.138889 0.00511999)
(-0.123496 0.132325 0.00491203)
(-0.134541 0.123853 0.00465619)
(-0.14473 0.113733 0.00435385)
(-0.154026 0.102175 0.00400534)
(-0.162403 0.0893464 0.0036103)
(-0.16984 0.075379 0.00316775)
(-0.17631 0.0603768 0.00267649)
(-0.18178 0.0444265 0.00213548)
(-0.186199 0.0276079 0.00154445)