/*--------------------------------*- C++ -*----------------------------------*\
  =========                 |
  \\      /  F ield         | OpenFOAM: The Open Source CFD Toolbox
   \\    /   O peration     | Website:  https://openfoam.org
    \\  /    A nd           | Version:  9
     \\/     M anipulation  |
\*---------------------------------------------------------------------------*/
FoamFile
{
    format      ascii;
    class       volScalarField;
    location    "6.63";
    object      p;
}
// * * * * * * * * * * * * * * * * * * * * * * * * * * * * * * * * * * * * * //

dimensions      [1 -1 -2 0 0 0 0];

internalField   nonuniform List<scalar> 
2268
(
723.486
723.729
724.101
724.601
725.216
725.93
726.731
727.602
728.528
729.49
730.472
731.454
732.416
733.333
734.181
734.941
735.635
736.305
736.999
737.609
738.168
738.727
739.073
664.571
664.801
665.168
665.666
666.282
667
667.805
668.681
669.612
670.582
671.57
672.558
673.522
674.439
675.289
676.066
676.82
677.596
678.427
679.134
679.514
679.909
680.263
605.62
605.846
606.209
606.704
607.322
608.044
608.856
609.741
610.683
611.664
612.666
613.666
614.642
615.572
616.442
617.253
618.057
618.875
619.761
620.492
620.792
621.127
621.503
546.631
546.86
547.225
547.721
548.343
549.073
549.895
550.793
551.75
552.748
553.767
554.787
555.785
556.742
557.647
558.501
559.348
560.086
560.977
561.701
562.001
562.385
562.819
487.604
487.842
488.214
488.716
489.345
490.087
490.923
491.837
492.814
493.833
494.876
495.92
496.949
497.944
498.896
499.81
500.744
501.436
502.19
502.854
503.255
503.727
504.214
428.541
428.79
429.174
429.686
430.328
431.084
431.938
432.874
433.875
434.92
435.988
437.062
438.127
439.168
440.178
441.17
442.233
443.396
443.924
444.446
445.002
445.219
445.682
369.442
369.704
370.102
370.628
371.286
372.061
372.937
373.9
374.931
376.006
377.104
378.21
379.316
380.409
381.483
382.558
383.752
385.345
386.065
386.574
387.012
386.771
387.181
310.308
310.58
310.992
311.536
312.211
313.009
313.914
314.909
315.978
317.089
318.221
319.363
320.515
321.663
322.804
323.958
325.232
326.955
328.142
328.695
328.76
328.33
328.793
738.294
738.35
738.103
737.537
736.743
735.784
734.72
733.54
732.218
730.815
729.64
728.928
728.186
727.378
727.069
726.941
726.553
726.28
726.004
679.924
679.55
679.266
678.703
677.937
677.06
676.003
674.791
673.437
672.09
671.104
670.405
669.784
668.785
668.127
667.948
667.637
667.392
667.217
621.578
620.952
620.507
619.884
619.106
618.208
617.141
615.912
614.553
613.242
612.356
611.699
611.139
610.069
609.293
609.062
608.747
608.577
608.517
563.135
562.445
561.832
561.13
560.319
559.393
558.312
557.089
555.768
554.439
553.493
552.888
552.276
551.099
550.55
550.274
549.868
549.854
549.915
504.513
503.862
503.168
502.408
501.564
500.611
499.544
498.349
497.067
495.762
494.538
494.023
493.336
492.311
492.012
491.571
491.031
491.249
491.299
445.818
445.224
444.496
443.701
442.831
441.851
440.79
439.644
438.444
437.302
436.003
435.192
434.601
434.57
433.602
432.99
432.442
432.541
432.576
387.177
386.572
385.818
384.998
384.104
383.1
382.041
380.959
379.907
379.21
378.617
377.409
376.949
377.289
375.151
374.442
374.014
373.669
373.708
328.609
327.909
327.159
326.339
325.422
324.356
323.285
322.29
321.44
321.276
321.611
320.508
319.907
319.425
316.597
315.816
315.541
314.699
314.774
217.791
218.067
218.502
219.075
219.785
220.625
221.582
222.642
223.788
224.967
226.155
227.358
228.591
229.838
231.081
232.338
233.685
235.195
236.482
237.126
237.2
237.027
237.259
94.3163
94.6208
95.0485
95.5627
96.1782
96.9175
97.77
98.718
99.7581
100.887
102.086
103.317
104.543
105.739
106.913
108.073
109.243
110.529
111.709
112.48
112.835
113.053
113.548
16.6596
16.8478
17.0271
17.268
17.5458
17.8705
18.2379
18.6386
19.07
19.582
20.1769
20.7982
21.3737
21.9063
22.4281
22.926
23.3992
23.9856
24.5583
24.9472
25.1316
25.2166
25.4776
-0.667119
-0.664227
-0.702428
-0.647055
-0.583396
-0.535374
-0.497526
-0.453787
-0.421634
-0.402242
-0.38716
-0.376572
-0.367538
-0.359273
-0.362041
-0.405737
-0.438487
-0.505298
-0.631192
-0.634871
-0.605986
-0.587924
-0.616153
-0.893079
-0.894131
-0.896255
-0.888233
-0.874877
-0.858272
-0.843085
-0.825121
-0.811477
-0.802032
-0.791781
-0.783547
-0.781014
-0.781851
-0.791118
-0.81134
-0.82893
-0.845638
-0.867686
-0.874959
-0.869792
-0.871118
-0.879556
-1.11895
-1.11838
-1.11348
-1.12452
-1.13881
-1.14618
-1.15068
-1.15437
-1.15585
-1.15538
-1.15379
-1.15116
-1.14872
-1.14525
-1.13876
-1.13021
-1.12418
-1.11731
-1.10491
-1.10461
-1.10196
-1.09774
-1.08881
-1.27421
-1.27504
-1.27314
-1.27611
-1.27337
-1.27523
-1.27714
-1.27899
-1.28024
-1.28116
-1.28239
-1.28361
-1.28354
-1.2822
-1.27946
-1.27575
-1.27439
-1.27625
-1.27431
-1.27265
-1.27476
-1.2738
-1.26768
-1.40171
-1.40203
-1.40302
-1.40326
-1.40211
-1.40257
-1.40354
-1.40481
-1.40591
-1.40684
-1.40783
-1.40871
-1.40899
-1.40858
-1.40794
-1.40776
-1.40787
-1.40749
-1.40734
-1.4084
-1.40938
-1.40935
-1.41198
-1.52691
-1.52761
-1.52837
-1.52877
-1.52863
-1.52908
-1.52982
-1.53073
-1.5316
-1.53244
-1.53331
-1.53412
-1.53475
-1.53555
-1.53718
-1.53809
-1.53783
-1.53677
-1.53667
-1.53685
-1.53617
-1.53636
-1.53802
-1.65347
-1.65363
-1.65408
-1.65446
-1.65468
-1.65514
-1.65579
-1.6565
-1.65721
-1.658
-1.65881
-1.65961
-1.66033
-1.6614
-1.66305
-1.6639
-1.66369
-1.66334
-1.66314
-1.66246
-1.66192
-1.66194
-1.66259
-1.77911
-1.77941
-1.77979
-1.78016
-1.78048
-1.78094
-1.7815
-1.78208
-1.78273
-1.78349
-1.78427
-1.78498
-1.78564
-1.78647
-1.78746
-1.78804
-1.78806
-1.78789
-1.78774
-1.78745
-1.78721
-1.7872
-1.78746
-1.90499
-1.90522
-1.90553
-1.90587
-1.90621
-1.90663
-1.90711
-1.90763
-1.90823
-1.90893
-1.90963
-1.91021
-1.9108
-1.91146
-1.91215
-1.9126
-1.91272
-1.91266
-1.91258
-1.91244
-1.9124
-1.91242
-1.91254
-2.03075
-2.03096
-2.03123
-2.03154
-2.03188
-2.03226
-2.0327
-2.03318
-2.03374
-2.03434
-2.03489
-2.03541
-2.03593
-2.03648
-2.03702
-2.03744
-2.03772
-2.03784
-2.03781
-2.03771
-2.03765
-2.03764
-2.03771
-2.15643
-2.15664
-2.15689
-2.15717
-2.15749
-2.15785
-2.15826
-2.15873
-2.15921
-2.15969
-2.16014
-2.16059
-2.16105
-2.16152
-2.16198
-2.16238
-2.16277
-2.16302
-2.16309
-2.16303
-2.16287
-2.16282
-2.16287
-2.28207
-2.28228
-2.2825
-2.28277
-2.28305
-2.28338
-2.28376
-2.28419
-2.2846
-2.28498
-2.28538
-2.28578
-2.28618
-2.28659
-2.28698
-2.28734
-2.28768
-2.28798
-2.28813
-2.28807
-2.28796
-2.28794
-2.28798
-2.40768
-2.40787
-2.40808
-2.40832
-2.40857
-2.40887
-2.4092
-2.40955
-2.40991
-2.41026
-2.41061
-2.41096
-2.41132
-2.41167
-2.41201
-2.41232
-2.4126
-2.41284
-2.41298
-2.41301
-2.413
-2.41301
-2.41306
-2.53326
-2.53342
-2.53361
-2.53383
-2.53406
-2.53432
-2.5346
-2.5349
-2.53522
-2.53553
-2.53584
-2.53615
-2.53647
-2.53677
-2.53706
-2.53733
-2.53757
-2.53778
-2.53791
-2.53799
-2.53803
-2.53807
-2.53812
-2.65879
-2.65893
-2.65911
-2.6593
-2.65951
-2.65974
-2.65998
-2.66025
-2.66052
-2.66079
-2.66107
-2.66135
-2.66162
-2.66189
-2.66215
-2.66238
-2.66259
-2.66277
-2.66291
-2.663
-2.66307
-2.66313
-2.66319
-2.78426
-2.78442
-2.78458
-2.78475
-2.78494
-2.78513
-2.78535
-2.78558
-2.78581
-2.78606
-2.7863
-2.78655
-2.78679
-2.78703
-2.78725
-2.78746
-2.78765
-2.78781
-2.78794
-2.78804
-2.78812
-2.78819
-2.78825
-2.9097
-2.90988
-2.91002
-2.91017
-2.91033
-2.91051
-2.9107
-2.9109
-2.9111
-2.91132
-2.91153
-2.91175
-2.91197
-2.91218
-2.91238
-2.91256
-2.91273
-2.91288
-2.91301
-2.91311
-2.91319
-2.91326
-2.91332
-3.03515
-3.03529
-3.03543
-3.03557
-3.03571
-3.03586
-3.03603
-3.0362
-3.03638
-3.03657
-3.03677
-3.03696
-3.03715
-3.03734
-3.03751
-3.03768
-3.03783
-3.03797
-3.03809
-3.03819
-3.03827
-3.03834
-3.0384
-3.16057
-3.16069
-3.16082
-3.16094
-3.16107
-3.1612
-3.16134
-3.1615
-3.16166
-3.16182
-3.16199
-3.16217
-3.16234
-3.1625
-3.16266
-3.16281
-3.16295
-3.16307
-3.16318
-3.16328
-3.16336
-3.16343
-3.16349
-3.28596
-3.28608
-3.28619
-3.2863
-3.2864
-3.28652
-3.28665
-3.28678
-3.28692
-3.28707
-3.28722
-3.28737
-3.28752
-3.28767
-3.28781
-3.28795
-3.28807
-3.28819
-3.28829
-3.28838
-3.28846
-3.28852
-3.28858
-3.41134
-3.41145
-3.41154
-3.41163
-3.41173
-3.41183
-3.41194
-3.41206
-3.41218
-3.41231
-3.41244
-3.41258
-3.41271
-3.41284
-3.41297
-3.41309
-3.41321
-3.41331
-3.41341
-3.41349
-3.41356
-3.41363
-3.41368
-3.53669
-3.53679
-3.53687
-3.53695
-3.53703
-3.53712
-3.53722
-3.53732
-3.53743
-3.53755
-3.53766
-3.53778
-3.5379
-3.53802
-3.53814
-3.53824
-3.53835
-3.53844
-3.53853
-3.53861
-3.53868
-3.53874
-3.53879
-3.66202
-3.66211
-3.66218
-3.66225
-3.66232
-3.6624
-3.66249
-3.66258
-3.66268
-3.66278
-3.66288
-3.66299
-3.6631
-3.6632
-3.6633
-3.6634
-3.66349
-3.66358
-3.66366
-3.66373
-3.6638
-3.66385
-3.6639
-3.78734
-3.78742
-3.78748
-3.78754
-3.7876
-3.78767
-3.78775
-3.78783
-3.78792
-3.78801
-3.7881
-3.78819
-3.78829
-3.78838
-3.78847
-3.78856
-3.78864
-3.78872
-3.7888
-3.78886
-3.78892
-3.78898
-3.78902
-3.91266
-3.91271
-3.91276
-3.91281
-3.91287
-3.91293
-3.913
-3.91307
-3.91315
-3.91323
-3.91331
-3.9134
-3.91348
-3.91356
-3.91365
-3.91373
-3.9138
-3.91387
-3.91394
-3.914
-3.91405
-3.91411
-3.91415
-4.03796
-4.038
-4.03804
-4.03808
-4.03813
-4.03818
-4.03824
-4.03831
-4.03838
-4.03845
-4.03852
-4.0386
-4.03867
-4.03875
-4.03882
-4.03889
-4.03896
-4.03902
-4.03908
-4.03914
-4.03919
-4.03924
-4.03928
-4.16326
-4.16328
-4.1633
-4.16333
-4.16337
-4.16342
-4.16348
-4.16354
-4.1636
-4.16367
-4.16373
-4.1638
-4.16387
-4.16393
-4.164
-4.16406
-4.16412
-4.16418
-4.16423
-4.16429
-4.16433
-4.16438
-4.16442
-4.28855
-4.28856
-4.28855
-4.28856
-4.28861
-4.28866
-4.28871
-4.28877
-4.28883
-4.28888
-4.28894
-4.289
-4.28906
-4.28912
-4.28918
-4.28923
-4.28929
-4.28934
-4.28939
-4.28943
-4.28948
-4.28952
-4.28956
-4.41384
-4.41383
-4.4138
-4.41381
-4.41384
-4.4139
-4.41395
-4.414
-4.41405
-4.4141
-4.41415
-4.4142
-4.41426
-4.41431
-4.41436
-4.41441
-4.41445
-4.4145
-4.41454
-4.41459
-4.41463
-4.41467
-4.41471
-4.53912
-4.53909
-4.53906
-4.53907
-4.53909
-4.53914
-4.53918
-4.53922
-4.53927
-4.53931
-4.53936
-4.53941
-4.53945
-4.5395
-4.53954
-4.53958
-4.53962
-4.53966
-4.5397
-4.53974
-4.53978
-4.53982
-4.53986
-4.66438
-4.66434
-4.66432
-4.66433
-4.66435
-4.66438
-4.66441
-4.66445
-4.66449
-4.66453
-4.66457
-4.66461
-4.66465
-4.66469
-4.66472
-4.66476
-4.6648
-4.66483
-4.66487
-4.6649
-4.66494
-4.66498
-4.66501
-4.78963
-4.78957
-4.78956
-4.78957
-4.78959
-4.78961
-4.78964
-4.78967
-4.7897
-4.78974
-4.78978
-4.78981
-4.78985
-4.78988
-4.78991
-4.78994
-4.78997
-4.79
-4.79003
-4.79007
-4.7901
-4.79014
-4.79017
-4.91484
-4.91476
-4.91475
-4.91478
-4.9148
-4.91482
-4.91486
-4.91489
-4.91492
-4.91495
-4.91499
-4.91502
-4.91504
-4.91507
-4.9151
-4.91512
-4.91515
-4.91518
-4.9152
-4.91523
-4.91526
-4.9153
-4.91533
-5.04002
-5.03991
-5.0399
-5.03995
-5.04
-5.04004
-5.04007
-5.04011
-5.04014
-5.04017
-5.0402
-5.04022
-5.04025
-5.04027
-5.04029
-5.04031
-5.04033
-5.04035
-5.04037
-5.0404
-5.04043
-5.04046
-5.0405
-5.16514
-5.16503
-5.16507
-5.16514
-5.1652
-5.16525
-5.1653
-5.16533
-5.16536
-5.16539
-5.16541
-5.16543
-5.16545
-5.16547
-5.16548
-5.1655
-5.16551
-5.16553
-5.16555
-5.16557
-5.16559
-5.16563
-5.16567
-5.29018
-5.29013
-5.29025
-5.29036
-5.29043
-5.29049
-5.29053
-5.29056
-5.29059
-5.29061
-5.29063
-5.29065
-5.29066
-5.29067
-5.29068
-5.29069
-5.2907
-5.29071
-5.29072
-5.29074
-5.29076
-5.29079
-5.29084
-5.41525
-5.4153
-5.4155
-5.41562
-5.41569
-5.41574
-5.41578
-5.4158
-5.41582
-5.41583
-5.41585
-5.41586
-5.41587
-5.41588
-5.41588
-5.41589
-5.41589
-5.4159
-5.4159
-5.4159
-5.41591
-5.41595
-5.41602
-5.5403
-5.54058
-5.54081
-5.54091
-5.54097
-5.541
-5.54101
-5.54102
-5.54103
-5.54103
-5.54104
-5.54105
-5.54105
-5.54106
-5.54106
-5.54107
-5.54107
-5.54106
-5.54106
-5.54104
-5.54103
-5.54108
-5.5412
-5.66572
-5.66638
-5.66627
-5.66626
-5.66626
-5.66626
-5.66625
-5.66625
-5.66625
-5.66625
-5.66625
-5.66625
-5.66626
-5.66626
-5.66626
-5.66626
-5.66626
-5.66625
-5.66624
-5.6662
-5.66611
-5.66617
-5.66637
237.521
237.615
237.556
237.315
113.809
113.832
113.752
113.602
25.6386
25.6784
25.6585
25.595
-0.65969
-0.672156
-0.671415
-0.668305
-0.883489
-0.884513
-0.884401
-0.883561
-1.07954
-1.07773
-1.07748
-1.07713
-1.26301
-1.26319
-1.26419
-1.26465
-1.41295
-1.41272
-1.41179
-1.4119
-1.53861
-1.53816
-1.53751
-1.53706
-1.66268
-1.66254
-1.66223
-1.66188
-1.78744
-1.78734
-1.78717
-1.78693
-1.91254
-1.91251
-1.91247
-1.91242
-2.03776
-2.0378
-2.03786
-2.03796
-2.16294
-2.163
-2.16308
-2.16321
-2.28805
-2.28811
-2.28818
-2.28827
-2.41313
-2.41317
-2.41323
-2.41328
-2.53818
-2.53822
-2.53826
-2.5383
-2.66324
-2.66327
-2.6633
-2.66333
-2.7883
-2.78833
-2.78835
-2.78837
-2.91337
-2.91339
-2.91341
-2.91342
-3.03844
-3.03846
-3.03848
-3.03849
-3.16352
-3.16354
-3.16356
-3.16356
-3.28861
-3.28863
-3.28864
-3.28865
-3.41371
-3.41373
-3.41374
-3.41375
-3.53882
-3.53884
-3.53885
-3.53886
-3.66393
-3.66395
-3.66396
-3.66398
-3.78905
-3.78907
-3.78908
-3.7891
-3.91418
-3.9142
-3.91421
-3.91423
-4.03931
-4.03933
-4.03934
-4.03936
-4.16445
-4.16446
-4.16448
-4.1645
-4.28959
-4.28961
-4.28962
-4.28964
-4.41474
-4.41475
-4.41477
-4.41479
-4.53989
-4.5399
-4.53992
-4.53994
-4.66504
-4.66506
-4.66507
-4.66509
-4.7902
-4.79022
-4.79023
-4.79025
-4.91536
-4.91538
-4.9154
-4.91541
-5.04053
-5.04055
-5.04056
-5.04058
-5.1657
-5.16572
-5.16573
-5.16575
-5.29087
-5.29089
-5.29091
-5.29093
-5.41605
-5.41607
-5.41609
-5.4161
-5.54124
-5.54126
-5.54127
-5.54129
-5.66642
-5.66644
-5.66645
-5.66646
237.089
236.247
235.511
234.702
233.828
232.885
231.844
230.83
230.118
230.146
230.43
229.762
228.843
227.555
224.962
224.016
224.041
222.86
222.636
113.272
112.495
111.775
111.035
110.354
109.749
109.035
108.126
107.174
106.469
106.169
105.672
104.634
103.104
101.422
100.534
100.724
99.724
99.4354
25.4362
25.0993
24.7996
24.534
24.3062
24.1283
23.9422
23.6069
22.9818
22.263
21.9785
21.7617
21.257
20.5257
19.9149
19.5507
19.5268
19.2028
19.162
-0.666125
-0.667462
-0.645875
-0.558194
-0.521699
-0.540309
-0.571779
-0.590163
-0.59292
-0.602367
-0.645958
-0.708739
-0.753424
-0.701074
-0.651379
-0.646558
-0.660497
-0.640907
-0.645828
-0.881904
-0.879783
-0.874108
-0.859756
-0.848162
-0.844899
-0.847656
-0.852718
-0.857447
-0.864195
-0.876384
-0.891631
-0.898282
-0.895387
-0.889114
-0.885411
-0.886424
-0.881457
-0.880875
-1.07692
-1.07639
-1.07635
-1.08605
-1.0923
-1.09665
-1.10019
-1.10355
-1.10674
-1.11092
-1.11683
-1.121
-1.11927
-1.11834
-1.11659
-1.11499
-1.11482
-1.11089
-1.10952
-1.26382
-1.26294
-1.26375
-1.26821
-1.27307
-1.27553
-1.27401
-1.27162
-1.2699
-1.26871
-1.26675
-1.26508
-1.26646
-1.26988
-1.27192
-1.27267
-1.27202
-1.27194
-1.27086
-1.41193
-1.41099
-1.41025
-1.40938
-1.40642
-1.40319
-1.40019
-1.39777
-1.39672
-1.39569
-1.39449
-1.39375
-1.39511
-1.39706
-1.39847
-1.39932
-1.39952
-1.40017
-1.39982
-1.53652
-1.53549
-1.5346
-1.53374
-1.53199
-1.52972
-1.52726
-1.52673
-1.52706
-1.52654
-1.52515
-1.5239
-1.5236
-1.5238
-1.5248
-1.52558
-1.52581
-1.52594
-1.52568
-1.66122
-1.66006
-1.65931
-1.65884
-1.65798
-1.65693
-1.6563
-1.65761
-1.65772
-1.65706
-1.65606
-1.65446
-1.65199
-1.65089
-1.65106
-1.65173
-1.65188
-1.65189
-1.65168
-1.78638
-1.78549
-1.78481
-1.7843
-1.78417
-1.78459
-1.78579
-1.7861
-1.78502
-1.78416
-1.78389
-1.78285
-1.78019
-1.77858
-1.7778
-1.77783
-1.77779
-1.77783
-1.77771
-1.91231
-1.91196
-1.91137
-1.91062
-1.91061
-1.91129
-1.91221
-1.91162
-1.91061
-1.90991
-1.90943
-1.90874
-1.90771
-1.90641
-1.90492
-1.90373
-1.90344
-1.90359
-1.90364
-2.03823
-2.0384
-2.03808
-2.03758
-2.03711
-2.03693
-2.03698
-2.03658
-2.03598
-2.03549
-2.03493
-2.03427
-2.03373
-2.0329
-2.0314
-2.02988
-2.02928
-2.02921
-2.0295
-2.16347
-2.16395
-2.16396
-2.16357
-2.16286
-2.16229
-2.16204
-2.16165
-2.16118
-2.16071
-2.16016
-2.15958
-2.159
-2.15832
-2.15755
-2.15655
-2.15586
-2.15551
-2.15592
-2.28843
-2.28871
-2.28877
-2.28844
-2.28789
-2.28745
-2.28713
-2.28676
-2.28634
-2.2859
-2.28543
-2.28493
-2.28443
-2.28394
-2.28354
-2.283
-2.28247
-2.28209
-2.28239
-2.41339
-2.41352
-2.4135
-2.41327
-2.4129
-2.41255
-2.41224
-2.4119
-2.41153
-2.41115
-2.41073
-2.4103
-2.40988
-2.40946
-2.40909
-2.40873
-2.40827
-2.40778
-2.40794
-2.53836
-2.53842
-2.53838
-2.5382
-2.53793
-2.53765
-2.53737
-2.53707
-2.53675
-2.53641
-2.53606
-2.5357
-2.53534
-2.53498
-2.53462
-2.53421
-2.53375
-2.5333
-2.53323
-2.66336
-2.66339
-2.66334
-2.66321
-2.663
-2.66277
-2.66252
-2.66227
-2.66199
-2.66171
-2.66141
-2.66112
-2.66082
-2.66053
-2.66024
-2.65991
-2.65955
-2.65924
-2.65912
-2.78839
-2.78839
-2.78835
-2.78825
-2.78809
-2.7879
-2.78769
-2.78747
-2.78725
-2.78701
-2.78678
-2.78655
-2.78633
-2.78613
-2.78595
-2.78579
-2.78568
-2.78571
-2.78567
-2.91343
-2.91343
-2.91339
-2.91331
-2.91319
-2.91304
-2.91287
-2.91269
-2.91251
-2.91233
-2.91215
-2.91198
-2.91184
-2.91174
-2.9117
-2.91173
-2.91187
-2.9124
-2.91215
-3.0385
-3.03849
-3.03846
-3.03839
-3.0383
-3.03818
-3.03805
-3.03791
-3.03777
-3.03763
-3.03751
-3.0374
-3.03733
-3.03731
-3.03738
-3.03758
-3.03789
-3.03863
-3.03839
-3.16357
-3.16357
-3.16355
-3.1635
-3.16342
-3.16333
-3.16323
-3.16313
-3.16302
-3.16292
-3.16284
-3.16278
-3.16277
-3.16281
-3.16295
-3.16321
-3.16361
-3.16417
-3.16421
-3.28866
-3.28867
-3.28865
-3.28861
-3.28856
-3.28849
-3.28842
-3.28834
-3.28827
-3.2882
-3.28815
-3.28813
-3.28815
-3.28823
-3.28838
-3.28863
-3.28898
-3.28929
-3.2893
-3.41377
-3.41377
-3.41376
-3.41374
-3.4137
-3.41366
-3.4136
-3.41355
-3.4135
-3.41347
-3.41344
-3.41345
-3.41348
-3.41357
-3.4137
-3.4139
-3.41412
-3.41422
-3.41401
-3.53888
-3.53889
-3.53889
-3.53887
-3.53885
-3.53882
-3.53879
-3.53876
-3.53873
-3.53871
-3.53871
-3.53873
-3.53877
-3.53885
-3.53896
-3.53908
-3.53918
-3.53914
-3.53885
-3.66399
-3.66401
-3.66401
-3.66401
-3.664
-3.66399
-3.66397
-3.66396
-3.66395
-3.66395
-3.66396
-3.66399
-3.66403
-3.6641
-3.66418
-3.66424
-3.66425
-3.66413
-3.66378
-3.78912
-3.78914
-3.78915
-3.78916
-3.78916
-3.78915
-3.78915
-3.78915
-3.78915
-3.78917
-3.78919
-3.78922
-3.78927
-3.78933
-3.78938
-3.78941
-3.78938
-3.78922
-3.78888
-3.91425
-3.91427
-3.91429
-3.9143
-3.91431
-3.91432
-3.91433
-3.91434
-3.91436
-3.91438
-3.91441
-3.91445
-3.91449
-3.91454
-3.91458
-3.9146
-3.91455
-3.9144
-3.91411
-4.03938
-4.03941
-4.03943
-4.03945
-4.03947
-4.03949
-4.0395
-4.03952
-4.03955
-4.03958
-4.03962
-4.03966
-4.03971
-4.03975
-4.03978
-4.03979
-4.03974
-4.0396
-4.03935
-4.16452
-4.16455
-4.16458
-4.1646
-4.16463
-4.16465
-4.16468
-4.16471
-4.16474
-4.16478
-4.16482
-4.16487
-4.16491
-4.16495
-4.16497
-4.16497
-4.16491
-4.16477
-4.16455
-4.28966
-4.2897
-4.28973
-4.28976
-4.28979
-4.28982
-4.28985
-4.28988
-4.28992
-4.28997
-4.29002
-4.29006
-4.29011
-4.29015
-4.29016
-4.29014
-4.29005
-4.28987
-4.28961
-4.41481
-4.41485
-4.41488
-4.41492
-4.41495
-4.41498
-4.41502
-4.41506
-4.4151
-4.41515
-4.41521
-4.41526
-4.41531
-4.41535
-4.41535
-4.41532
-4.41519
-4.41497
-4.41463
-4.53996
-4.54
-4.54004
-4.54007
-4.54011
-4.54015
-4.54019
-4.54023
-4.54028
-4.54033
-4.54039
-4.54045
-4.54051
-4.54055
-4.54056
-4.54052
-4.54039
-4.54015
-4.53978
-4.66512
-4.66516
-4.6652
-4.66523
-4.66527
-4.66531
-4.66535
-4.6654
-4.66545
-4.66551
-4.66557
-4.66564
-4.66571
-4.66576
-4.66579
-4.66576
-4.66565
-4.66542
-4.66507
-4.79028
-4.79032
-4.79036
-4.79039
-4.79043
-4.79047
-4.79052
-4.79057
-4.79062
-4.79068
-4.79075
-4.79083
-4.7909
-4.79098
-4.79103
-4.79104
-4.79095
-4.79073
-4.79036
-4.91544
-4.91548
-4.91552
-4.91556
-4.91559
-4.91563
-4.91568
-4.91573
-4.91578
-4.91585
-4.91592
-4.916
-4.9161
-4.91619
-4.91628
-4.91633
-4.91629
-4.91607
-4.91567
-5.04061
-5.04065
-5.04068
-5.04072
-5.04075
-5.04079
-5.04083
-5.04088
-5.04093
-5.041
-5.04108
-5.04117
-5.04128
-5.0414
-5.04153
-5.04164
-5.04166
-5.04144
-5.041
-5.16578
-5.16581
-5.16585
-5.16588
-5.16591
-5.16594
-5.16598
-5.16603
-5.16608
-5.16614
-5.16622
-5.16631
-5.16644
-5.16659
-5.16677
-5.16696
-5.16706
-5.16685
-5.16636
-5.29095
-5.29098
-5.29101
-5.29104
-5.29106
-5.29109
-5.29113
-5.29116
-5.29121
-5.29127
-5.29134
-5.29143
-5.29156
-5.29173
-5.29197
-5.29227
-5.29253
-5.29235
-5.29183
-5.41612
-5.41615
-5.41617
-5.41619
-5.41621
-5.41624
-5.41626
-5.41629
-5.41633
-5.41638
-5.41644
-5.41652
-5.41664
-5.41681
-5.41708
-5.41752
-5.41807
-5.41799
-5.41755
-5.5413
-5.54132
-5.54133
-5.54134
-5.54136
-5.54138
-5.54139
-5.54142
-5.54144
-5.54147
-5.54151
-5.54157
-5.54165
-5.54178
-5.54203
-5.54257
-5.54355
-5.54386
-5.54384
-5.66647
-5.66648
-5.66649
-5.66649
-5.6665
-5.66651
-5.66653
-5.66654
-5.66655
-5.66657
-5.66658
-5.6666
-5.66664
-5.6667
-5.66685
-5.66724
-5.66836
-5.66968
-5.67085
)
;

boundaryField
{
    leftWall
    {
        type            calculated;
        value           nonuniform List<scalar> 
50
(
723.486
664.571
605.62
546.631
487.604
428.541
369.442
310.308
217.791
94.3163
16.6596
-0.667119
-0.893079
-1.11895
-1.27421
-1.40171
-1.52691
-1.65347
-1.77911
-1.90499
-2.03075
-2.15643
-2.28207
-2.40768
-2.53326
-2.65879
-2.78426
-2.9097
-3.03515
-3.16057
-3.28596
-3.41134
-3.53669
-3.66202
-3.78734
-3.91266
-4.03796
-4.16326
-4.28855
-4.41384
-4.53912
-4.66438
-4.78963
-4.91484
-5.04002
-5.16514
-5.29018
-5.41525
-5.5403
-5.66572
)
;
    }
    rightWall
    {
        type            calculated;
        value           nonuniform List<scalar> 
50
(
726.004
667.217
608.517
549.915
491.299
432.576
373.708
314.774
222.636
99.4354
19.162
-0.645828
-0.880875
-1.10952
-1.27086
-1.39982
-1.52568
-1.65168
-1.77771
-1.90364
-2.0295
-2.15592
-2.28239
-2.40794
-2.53323
-2.65912
-2.78567
-2.91215
-3.03839
-3.16421
-3.2893
-3.41401
-3.53885
-3.66378
-3.78888
-3.91411
-4.03935
-4.16455
-4.28961
-4.41463
-4.53978
-4.66507
-4.79036
-4.91567
-5.041
-5.16636
-5.29183
-5.41755
-5.54384
-5.67085
)
;
    }
    lowerWall
    {
        type            calculated;
        value           nonuniform List<scalar> 
62
(
752.915
753.158
753.53
754.031
754.645
755.36
756.16
757.032
757.957
758.92
759.901
760.883
761.845
762.763
763.61
764.37
765.064
765.734
766.392
766.948
767.51
768.129
768.475
739.073
680.263
621.503
562.819
504.214
445.682
387.181
328.793
300.118
300.212
300.153
299.912
738.294
679.924
621.578
563.135
504.513
445.818
387.177
328.609
767.479
767.683
767.471
766.9
766.083
765.006
763.929
762.749
761.436
760.012
758.835
758.191
757.45
756.699
756.458
756.331
755.942
755.663
755.381
)
;
    }
    atmosphere
    {
        type            calculated;
        value           nonuniform List<scalar> 
46
(
-5.72914
-5.72904
-5.72904
-5.72904
-5.72904
-5.72904
-5.72904
-5.72904
-5.72904
-5.72904
-5.72904
-5.72904
-5.72904
-5.72904
-5.72904
-5.72904
-5.72904
-5.72904
-5.72904
-5.72904
-5.72904
-5.72904
-5.72904
-5.72904
-5.72904
-5.72905
-5.72905
-5.72905
-5.72906
-5.72906
-5.72907
-5.72908
-5.72909
-5.7291
-5.72911
-5.72911
-5.72912
-5.72913
-5.72914
-5.72914
-5.72914
-5.72914
-5.72913
-5.72911
-5.72906
-5.73592
)
;
    }
    defaultFaces
    {
        type            empty;
    }
}


// ************************************************************************* //
