/*--------------------------------*- C++ -*----------------------------------*\
  =========                 |
  \\      /  F ield         | OpenFOAM: The Open Source CFD Toolbox
   \\    /   O peration     | Website:  https://openfoam.org
    \\  /    A nd           | Version:  9
     \\/     M anipulation  |
\*---------------------------------------------------------------------------*/
FoamFile
{
    format      ascii;
    class       volVectorField;
    location    "37.4";
    object      U;
}
// * * * * * * * * * * * * * * * * * * * * * * * * * * * * * * * * * * * * * //

dimensions      [0 1 -1 0 0 0 0];

internalField   nonuniform List<vector> 
918
(
(2.47629 -0.138943 0)
(0.108704 0.722546 0)
(0.17181 1.0541 0)
(2.31834 0.153728 0)
(-0.0596673 1.27069 -1.22318e-19)
(-0.0924034 0.643931 -5.31369e-18)
(0.530074 0.849723 -2.95293e-19)
(0.274313 0.152869 -2.98831e-20)
(3.00615 -0.0195607 0)
(-0.00827426 0.477062 0)
(-0.0172415 0.589761 0)
(0.60521 0.00676639 0)
(0.0107054 0.439105 0)
(-0.00288244 0.421689 0)
(0.0134369 0.340814 -1.30507e-18)
(-0.00469029 0.768519 -9.20426e-20)
(0.312396 0.0742683 2.15203e-18)
(0.0797493 0.642621 -2.22881e-19)
(1.52884 0.128628 0)
(-0.0267249 0.685669 0)
(0.194583 0.157717 -1.26548e-18)
(3.08302 -0.397373 0)
(2.92445 -0.50598 0)
(1.86116 -0.1811 0)
(0.511381 0.0400857 0)
(-0.0253686 0.52155 0)
(-0.00135313 0.494038 1.86233e-18)
(-0.0223867 1.40093 0)
(0.0749861 2.88447 0)
(0.168318 1.73704 0)
(-0.0381874 3.16472 0)
(0.0273572 1.63994 9.40509e-20)
(0.0233459 0.68644 0)
(-0.147424 0.775093 -2.0308e-22)
(-0.193914 1.0291 4.42112e-18)
(-0.0415772 1.04471 0)
(0.744579 -0.00600496 0)
(0.160998 0.246299 6.65496e-19)
(0.993592 1.5132 6.52717e-19)
(0.649999 0.784452 -5.15909e-19)
(0.798682 1.5754 6.19819e-20)
(0.416861 0.851527 -3.20017e-19)
(0.552302 0.306553 2.93895e-20)
(0.296959 0.153641 0)
(0.963035 0.566595 0)
(0.532581 0.303936 1.32007e-19)
(0.257965 0.162784 -1.35459e-19)
(0.871596 -0.0554787 0)
(3.02784 -0.00170478 0)
(3.00685 0.0178656 0)
(3.20086 -0.417733 0)
(3.04288 -0.0742117 0)
(3.03116 -0.0388406 0)
(0.0185917 0.902889 -1.14617e-18)
(-0.0542667 0.974534 0)
(0.00283725 0.455185 0)
(-0.0291724 0.981661 0)
(-0.0114146 0.481459 0)
(-0.00136093 0.869631 0)
(-0.0521385 1.11144 0)
(-0.0125618 0.542032 0)
(-0.0253883 1.16288 0)
(-0.00593349 0.622072 0)
(0.79048 0.0116245 0)
(1.16942 -0.00156162 0)
(0.618247 0.0123698 0)
(1.12578 0.0175987 0)
(0.569758 0.00867947 0)
(0.225406 0.921982 1.95971e-18)
(0.0985378 1.2081 0)
(0.176302 1.06604 0)
(0.0331901 0.755774 2.19922e-23)
(0.0372233 0.498055 -2.93091e-18)
(0.0194616 0.747943 0)
(0.0059542 0.422033 0)
(-0.000695348 0.734548 4.51719e-24)
(0.000702462 0.414825 0)
(-0.0169204 0.74318 0)
(-0.0129373 0.42798 0)
(0.0494334 0.649971 0)
(0.0484367 0.458217 0)
(0.00800458 0.621948 1.23392e-18)
(0.000744411 0.344903 0)
(-0.0675588 4.69165 0)
(0.00896036 1.45772 9.13792e-20)
(-0.0104486 0.785184 -1.17637e-19)
(0.636081 0.152145 -7.50907e-19)
(0.321612 0.0656844 -7.28669e-19)
(0.644786 0.169721 -2.25453e-18)
(0.31753 0.0955703 -1.45148e-18)
(0.0785183 0.618341 0)
(0.178559 1.31398 1.84816e-19)
(0.17972 0.730335 -2.94877e-19)
(2.06031 0.260946 0)
(1.10704 0.11845 0)
(3.03313 0.103887 0)
(3.10392 0.446059 0)
(2.83919 0.377459 -1.01275e-17)
(2.5781 0.361309 7.77098e-18)
(-0.0706572 1.26352 0)
(-0.0113316 0.623473 0)
(-0.0138057 1.90092 0)
(-0.0507326 1.347 0)
(-0.0480116 0.679236 0)
(0.440307 0.295625 4.00647e-19)
(0.225462 0.163358 0)
(2.2961 -0.266393 0)
(1.32372 -0.119273 0)
(1.07632 0.012669 0)
(1.01198 0.018765 0)
(0.540922 0.0108513 0)
(1.01987 0.0563999 0)
(0.821213 0.0703255 0)
(0.343622 0.0286956 3.36282e-18)
(-0.00543498 0.451601 1.77339e-18)
(-0.0270312 0.784627 0)
(-0.0473174 0.847507 0)
(-0.0152739 0.460435 0)
(0.000132433 0.839725 1.81588e-18)
(7.2985e-05 0.48753 0)
(-0.00547891 0.845554 -5.59005e-18)
(-0.00488634 0.496761 1.88624e-18)
(0.0547622 3.56666 0)
(0.0434824 4.02563 0)
(-0.0162237 1.41039 -2.05144e-21)
(-0.0130551 1.36303 0)
(-0.00977372 0.741308 0)
(1.41018 0.0348844 0)
(0.76055 0.0154388 0)
(0.709514 0.0142644 0)
(1.41618 -0.0328481 0)
(0.773515 -0.00873969 0)
(0.322051 0.480341 -8.35554e-19)
(0.156803 0.232716 0)
(0.324952 0.509156 9.36413e-20)
(0.163357 0.268427 0)
(1.24082 1.38693 1.66425e-19)
(0.778701 0.740873 -3.92384e-19)
(0.41161 1.42224 0)
(0.607211 1.53412 0)
(0.303559 0.814848 0)
(0.145324 0.353366 -4.42809e-19)
(0.6073 0.280717 0)
(0.313509 0.134638 3.98802e-19)
(1.42734 1.30676 0)
(1.5867 1.16856 0)
(0.874921 0.66393 4.61677e-19)
(1.73393 0.95311 0)
(1.06861 0.438781 2.32222e-20)
(1.47298 0.00813855 0)
(1.501 -0.029239 0)
(0.801896 -0.00441617 0)
(1.95042 -0.199779 0)
(1.65082 -0.14818 0)
(1.05215 -0.0889696 0)
(3.06126 0.164853 0)
(3.03105 0.0687875 0)
(3.01022 0.0531594 0)
(0.0357047 1.6054 6.08157e-19)
(0.0178645 0.826905 0)
(0.0179233 1.696 1.07967e-18)
(0.00302084 0.93872 -9.70652e-19)
(0.0646797 1.15248 1.87739e-19)
(0.0477103 0.989345 0)
(0.0401843 0.528776 0)
(-0.028686 1.00574 0)
(-0.00699362 0.517632 0)
(0.0181306 1.61528 -4.43271e-21)
(-0.0180613 0.865408 0)
(-0.0539552 1.58379 -2.25771e-19)
(-0.0161244 0.820567 4.3726e-19)
(-0.00179058 1.03003 0)
(0.0102737 1.04426 0)
(4.9844e-05 0.531705 0)
(0.0106565 1.17138 0)
(0.000906293 0.612594 0)
(1.46831 -0.00370321 0)
(0.789219 0.00805997 0)
(1.44055 0.0331663 0)
(0.761793 -0.000557476 0)
(0.675382 0.00534462 0)
(1.26195 0.0166822 0)
(1.20239 0.0473083 0)
(0.65969 0.0155561 0)
(-0.00580053 1.42077 -1.70199e-20)
(0.00018431 1.37708 0)
(0.0048201 0.732923 0)
(0.00172892 0.417221 0)
(0.284433 0.828748 0)
(0.253613 0.39973 -2.87113e-19)
(-0.00223278 0.635408 0)
(-0.00889722 0.367611 0)
(0.0118431 4.33815 0)
(-0.0484225 4.66413 0)
(-0.0178596 4.56611 0)
(-0.0718357 3.3672 2.04064e-20)
(-0.0576996 4.60266 0)
(-0.0515219 4.17973 0)
(0.00483642 0.818921 1.08127e-20)
(0.0142051 1.56204 1.65374e-19)
(-0.035852 1.50255 1.20861e-19)
(-0.00744932 0.825719 0)
(0.664426 0.105708 1.15323e-18)
(0.325684 0.0441634 -1.13019e-18)
(0.149648 1.13326 0)
(0.100932 0.57336 -2.69213e-19)
(0.118098 1.23307 -8.74215e-19)
(0.0518386 0.687048 8.69715e-19)
(0.809201 0.0240635 0)
(1.55677 0.0476796 0)
(1.7097 0.127652 0)
(0.919845 0.0445228 0)
(0.0079324 1.18255 0)
(0.0258296 1.19062 0)
(0.00449935 0.628041 0)
(0.482103 0.315076 1.20354e-18)
(0.436839 0.309077 -1.38661e-18)
(0.234764 0.164172 0)
(1.93551 0.153003 1.15232e-19)
(1.13643 0.0932527 0)
(1.72436 0.118444 0)
(0.883732 0.0226955 0)
(0.67817 0.0857386 0)
(0.699712 0.0460597 -5.40728e-18)
(0.346727 0.0325964 1.99893e-18)
(0.00914743 0.807284 1.69357e-18)
(0.00222282 0.46251 4.08165e-20)
(-0.0108777 1.40842 -3.57987e-20)
(0.00613615 1.38675 1.3658e-18)
(-0.0149832 0.848955 6.29407e-20)
(-0.0119261 0.524486 -2.52894e-22)
(-0.107514 1.00068 -1.16483e-18)
(-0.0529602 1.3532 8.33955e-19)
(-0.0175323 1.35275 -1.3577e-18)
(1.42274 -0.0170845 0)
(1.44236 0.0203187 0)
(0.769872 -0.000177519 0)
(1.45218 0.0253834 0)
(1.36319 0.0462298 0)
(0.761541 0.0203071 0)
(1.30062 -0.00215352 0)
(1.31867 -0.00584861 0)
(0.695054 -0.000986381 0)
(0.304848 0.473392 -9.15158e-19)
(0.161354 0.242674 0)
(0.157149 0.30842 1.36927e-19)
(0.309578 0.585873 1.12207e-18)
(0.307394 0.548561 -6.64277e-19)
(0.156815 0.281891 1.29809e-18)
(0.278466 0.71766 2.18137e-18)
(0.148253 0.380833 3.93596e-19)
(0.636085 0.213091 1.53739e-18)
(0.625987 0.253602 3.993e-19)
(0.316618 0.115045 7.49234e-19)
(1.92133 0.714643 -5.99621e-19)
(1.1677 0.33611 -7.01841e-19)
(-0.0351268 1.70294 4.64076e-19)
(-0.0114103 0.924696 0)
(1.6039 0.0239537 0)
(1.52191 0.065373 0)
(0.852935 0.026859 0)
(-0.00355879 1.38473 0)
(0.00507422 0.729574 2.49499e-18)
(0.00465037 0.731252 0)
(0.0020708 0.415097 -2.44203e-18)
(-0.0102751 1.38626 5.95622e-19)
(-0.00947266 1.4225 0)
(0.33654 0.488126 2.5794e-19)
(0.360029 0.546389 -8.62941e-19)
(0.171831 0.257811 7.81091e-19)
(-0.0256693 0.767468 -1.66252e-18)
(-0.0261519 0.689734 0)
(-0.0154343 0.412938 0)
(0.0302162 1.5477 -1.27022e-20)
(0.0314006 1.58031 -3.64861e-19)
(0.0178877 0.822411 -1.55888e-20)
(0.21332 1.04392 8.89903e-19)
(0.119631 0.508959 -5.92184e-19)
(0.0118603 1.48456 7.30484e-19)
(0.0557957 1.35056 -8.15299e-19)
(0.0267982 0.760242 3.53026e-20)
(0.00751366 1.36614 -3.80733e-18)
(-0.000214795 1.39326 4.40911e-18)
(0.00377344 0.829776 1.73281e-18)
(-0.0138288 0.805094 -1.72528e-18)
(-0.00430903 0.481399 -1.73845e-18)
(-0.0106511 1.41685 -4.49952e-18)
(-0.0152178 1.40032 4.58871e-18)
(0.286341 0.674742 0)
(0.299751 0.634587 -2.28749e-18)
(0.151926 0.331697 9.90256e-19)
(0.281181 0.795884 1.1849e-18)
(0.138787 0.427468 -1.82828e-18)
(2.05701 0.322588 4.15808e-19)
(2.05157 0.547736 0)
(1.21866 0.220985 -4.01759e-19)
(-0.0738477 1.6349 -4.80113e-21)
(-0.0141372 1.69029 0)
(-0.0157256 0.921714 0)
(0.227043 0.944354 -3.2274e-19)
(0.24819 0.866381 -7.06795e-19)
(0.128783 0.463212 1.32459e-18)
(3.16442 -0.442872 0)
(3.34728 -0.414685 1.81276e-18)
(0.0623854 3.48487 0)
(0.0488517 2.80882 0)
(3.15925 0.249915 1.4192e-20)
(3.12355 0.506296 3.71204e-18)
(0.0234489 3.43199 -2.73864e-20)
(0.00931395 2.66369 0)
(-0.0416468 1.19604 1.55489e-18)
(0.190058 1.31637 0)
(3.47263 1.62513 -3.24718e-19)
(3.17427 0.272573 -2.96098e-20)
(3.14838 -0.118696 0)
(3.10047 -0.000403967 3.7312e-22)
(0.0438988 2.59057 0)
(0.157421 3.30038 0)
(-0.0549597 2.53479 0)
(-0.0230487 3.4879 3.15751e-19)
(-0.024872 3.56881 1.99231e-19)
(2.63343 0.0488322 -1.36492e-20)
(3.04751 0.0311535 0)
(3.15793 0.0868418 0)
(-0.0507669 4.61731 0)
(-0.04572 3.08264 0)
(-0.0718211 2.93655 0)
(0.652565 3.10616 2.656e-19)
(3.33884 -0.422458 0)
(3.0114 -0.345809 0)
(3.1699 -0.0530367 2.27715e-18)
(3.2927 -0.3287 -2.74194e-18)
(3.1038 -0.125776 0)
(-0.0566463 4.51581 0)
(0.0168286 3.93591 0)
(0.00879258 4.26631 0)
(-0.0265461 3.09707 0)
(-0.0128884 2.85233 0)
(-0.0305129 2.42535 0)
(2.97423 -0.00316919 0)
(2.85043 0.0486288 -1.805e-20)
(2.24694 3.04946 -3.21474e-19)
(3.15695 0.0444553 -2.27822e-18)
(3.19037 0.278179 2.76929e-18)
(3.0828 0.117338 0)
(3.3954 0.328926 2.08724e-18)
(3.35695 0.484366 -2.70649e-18)
(3.07111 0.418429 0)
(-0.0547293 3.34605 0)
(0.00584229 3.27617 8.51761e-20)
(-0.0302703 2.57502 -6.03464e-20)
(3.70791 0.555324 2.26535e-18)
(3.47099 0.208502 0)
(-0.151984 1.27126 -2.16577e-18)
(-0.0624338 0.88216 -1.35024e-19)
(-0.0848396 1.33672 2.98538e-18)
(-0.0352373 1.27045 -8.99551e-19)
(-0.000496573 1.08841 0)
(-0.0266646 1.23955 6.94807e-19)
(-0.115054 1.38786 2.14639e-18)
(-0.0590501 1.34056 -1.31404e-18)
(-0.0767368 1.32063 0)
(1.28928 0.597212 0)
(1.17725 0.682375 0)
(3.55666 2.02952 9.53444e-19)
(3.0499 1.93602 -1.19048e-18)
(3.83775 1.70663 0)
(3.38429 1.15687 0)
(3.34934 0.280496 -3.91672e-18)
(2.89884 0.173121 4.83965e-18)
(3.35145 -0.155478 0)
(2.85479 -0.0761355 0)
(3.43642 0.0430265 0)
(3.5938 0.145057 0)
(3.28683 0.119875 0)
(3.55033 0.298581 0)
(3.40841 0.293059 0)
(3.32755 0.218074 0)
(0.0972671 2.79216 0)
(0.0343206 2.08066 0)
(0.126558 3.05294 0)
(0.0927623 2.20665 0)
(0.214712 3.59352 0)
(0.140085 2.67364 -5.58524e-19)
(0.0532707 3.60979 0)
(0.0112677 3.0133 4.05579e-19)
(-0.0244387 3.2023 -5.16983e-19)
(-0.0590012 2.79954 0)
(-0.0228771 2.20209 0)
(-0.071923 2.90718 0)
(-0.0555215 2.0499 0)
(-0.106801 4.74914 -2.45534e-19)
(-0.0790976 3.93988 2.77268e-19)
(-0.074312 3.80074 3.09065e-19)
(-0.052674 3.01484 0)
(-0.104422 3.80219 -4.58641e-19)
(-0.0370925 3.21334 -2.95043e-19)
(-0.0808989 4.78148 1.92533e-19)
(-0.0934043 4.46441 -3.50461e-19)
(-0.0686204 4.33417 -3.78919e-19)
(3.03133 0.088389 3.35849e-18)
(2.28959 0.032183 -4.22964e-18)
(2.89131 0.132847 -3.32741e-18)
(2.20957 0.0734902 4.15613e-18)
(3.36858 0.0277292 0)
(2.64307 -0.00265018 0)
(3.45416 0.0913606 0)
(3.32025 0.0192925 0)
(2.70666 0.00922908 0)
(3.68031 0.239652 0)
(3.43884 0.0960081 0)
(2.8637 0.0565212 0)
(-0.0210463 4.33492 -1.20274e-20)
(-0.0538235 4.65321 0)
(-0.0591625 4.54879 0)
(-0.0746808 3.50353 8.77101e-20)
(-0.0373254 2.77696 -3.46496e-21)
(-0.0791564 4.66997 1.13487e-19)
(-0.0931965 4.45869 -1.14685e-19)
(-0.0770493 3.95691 0)
(-0.0552013 3.87712 0)
(-0.0187279 3.99381 0)
(-0.0707316 3.25749 0)
(-0.0425776 2.30213 0)
(0.948797 3.66261 -6.0857e-19)
(0.921363 2.85396 -1.76264e-19)
(0.430105 2.05235 -2.28146e-19)
(0.252094 2.29854 6.9682e-19)
(1.0233 4.19965 2.63783e-19)
(3.43308 -0.167421 0)
(3.32213 -0.256546 0)
(2.88327 -0.189515 0)
(3.47032 -0.0643455 0)
(3.34581 -0.147864 0)
(3.44893 -0.261022 0)
(3.5195 -0.283601 0)
(3.57949 -0.281129 0)
(3.22413 0.0933887 3.61878e-18)
(2.55519 0.0645188 -4.57589e-18)
(3.09649 0.106579 -3.56224e-18)
(2.50909 0.0566756 4.43242e-18)
(2.24 3.41734 0)
(1.73986 2.94885 -4.45444e-19)
(2.56699 3.34918 -4.03094e-19)
(2.36974 2.52984 5.35755e-19)
(0.774411 1.2129 2.72192e-18)
(1.44675 0.216477 1.34309e-18)
(3.72257 0.304264 0)
(3.89316 0.572842 -1.84586e-18)
(3.29902 0.243967 -8.23342e-20)
(3.72079 0.44016 0)
(0.236572 1.31232 1.79589e-18)
(-0.0166672 1.20198 -2.87605e-18)
(0.0587899 0.769957 1.61436e-18)
(0.275915 0.46489 -7.47763e-19)
(0.187224 1.38373 8.70901e-19)
(0.0506329 1.23716 0)
(0.057727 1.08615 -1.13216e-18)
(0.191685 1.44296 -4.0917e-18)
(0.328961 1.55694 0)
(0.00867328 1.2902 1.19575e-19)
(-0.0097174 1.45729 -1.34011e-18)
(-0.0410144 1.30282 1.94823e-18)
(-0.0574433 1.41766 0)
(-0.0204757 1.38228 0)
(0.681026 1.04981 0)
(2.45663 2.45508 -1.06609e-18)
(2.64423 2.17395 3.95154e-19)
(2.79266 2.88279 0)
(3.21305 3.06785 -3.94512e-19)
(3.16607 2.41194 2.84649e-20)
(0.803624 0.589293 -1.82219e-18)
(1.55578 0.691423 -1.62181e-20)
(1.23283 0.450978 8.7207e-19)
(1.27491 0.843563 5.94993e-20)
(0.938715 0.633768 -2.36925e-18)
(1.46412 0.714101 0)
(1.98967 1.09965 1.45579e-18)
(2.03183 1.0156 0)
(1.41166 0.790624 0)
(1.06186 0.54963 0)
(3.37537 2.18024 1.0084e-18)
(3.94759 0.760958 -1.86318e-18)
(3.84795 1.21615 0)
(3.5339 0.757833 0)
(1.3913 0.364748 1.33237e-18)
(3.25789 1.84223 -8.51425e-19)
(2.8342 1.65438 1.5467e-18)
(3.75521 1.37711 -1.83572e-18)
(3.09793 0.114762 2.46383e-18)
(3.16856 0.180818 -2.57878e-18)
(2.66183 0.0916429 0)
(3.30731 -0.039495 0)
(3.20141 -0.0842557 -2.36637e-18)
(2.63244 -0.0321093 2.34553e-18)
(3.95629 0.0932081 0)
(3.75968 0.145656 0)
(3.69369 0.155374 0)
(3.5883 0.204749 0)
(3.83261 0.0590328 0)
(3.72611 0.0522539 0)
(-0.0401474 2.51429 0)
(-0.0377566 2.01319 0)
(0.356996 3.99031 -4.11305e-19)
(0.662943 3.33551 -1.59947e-19)
(0.259711 3.02963 -3.57866e-19)
(0.343899 2.54966 5.73218e-19)
(0.458313 4.01622 0)
(0.46981 4.672 -5.09828e-19)
(0.382988 4.73043 0)
(0.910889 4.37497 -3.79459e-19)
(0.672887 3.81361 9.68708e-19)
(0.597153 4.65375 4.46898e-19)
(0.740819 4.20243 -1.87475e-19)
(0.602672 4.32782 1.50838e-19)
(0.916409 4.65788 -6.63683e-19)
(0.749827 4.66205 0)
(0.858436 4.5899 5.04475e-19)
(0.00699533 4.57128 -1.81132e-19)
(-0.0185572 3.64536 0)
(0.101501 4.28623 5.49596e-19)
(-0.00285089 4.38892 0)
(-0.00363459 3.45717 -4.50996e-19)
(-0.0152613 2.91052 0)
(-0.100038 4.30977 -2.8911e-19)
(-0.105654 4.6819 0)
(-0.0530287 3.8076 0)
(-0.039843 3.73003 3.25171e-19)
(-0.0469015 3.88622 1.03831e-20)
(-0.034593 3.70749 6.25855e-19)
(-0.041027 2.94763 4.06835e-21)
(-0.113574 4.71015 1.80194e-19)
(-0.102452 4.74194 1.0322e-19)
(-0.0166172 2.62472 0)
(0.00132945 2.13674 0)
(-0.0414699 4.78933 4.86243e-19)
(-0.0482954 4.31027 4.23927e-19)
(-0.0828679 4.58586 -5.54173e-19)
(0.0164248 4.75858 0)
(-0.0774097 4.53442 -3.08914e-19)
(-0.116833 4.16734 1.27643e-19)
(-0.0840267 4.24812 -4.12797e-20)
(-0.0697104 4.72906 -2.18907e-19)
(-0.0849118 4.26923 -6.85575e-20)
(-0.0833289 4.21414 3.06634e-19)
(2.87141 0.0610253 -2.36345e-18)
(2.85887 0.0497084 2.27292e-18)
(2.33859 0.0345588 0)
(3.51008 0.192041 3.04639e-18)
(2.70366 0.126547 -3.30462e-18)
(2.25448 0.0644881 3.60942e-18)
(3.68247 0.335347 -4.01623e-19)
(3.2099 -0.0485194 0)
(3.17213 -0.0135463 2.23692e-18)
(2.69091 -0.0123738 -2.21929e-18)
(3.87877 0.122256 -1.25233e-19)
(3.77177 0.101866 1.07829e-18)
(4.15977 0.173506 0)
(4.22847 0.181166 -3.75116e-19)
(4.01369 0.145247 0)
(3.69489 0.155415 0)
(4.0323 0.0950924 0)
(3.71179 0.0873371 0)
(4.18472 0.113898 7.85469e-19)
(4.1372 0.0791471 -1.74784e-18)
(4.14067 0.1139 -8.47973e-19)
(4.1864 0.116542 -9.2445e-19)
(4.2157 0.229033 1.77399e-18)
(3.85475 0.188643 0)
(4.06129 0.301941 0)
(-0.0712682 4.57973 -1.35712e-19)
(-0.0312837 4.64418 -1.16767e-20)
(-0.0644726 4.66076 0)
(-0.0540607 4.1958 1.38095e-19)
(-0.0522464 4.22352 2.25275e-20)
(-0.05713 4.09138 -2.18333e-20)
(-0.0798348 3.52567 2.61147e-19)
(-0.14281 4.00576 -1.45128e-20)
(-0.101657 4.13326 7.47537e-20)
(-0.0737307 3.40163 -1.32248e-19)
(-0.0245438 2.9241 1.58381e-19)
(-0.0744042 4.42928 5.20885e-21)
(-0.0873832 4.64257 1.72194e-19)
(1.24332 4.36021 3.47351e-19)
(1.15947 4.52896 7.26004e-19)
(1.73682 3.46682 4.30734e-19)
(1.30883 3.56127 1.69443e-19)
(1.28661 2.89009 0)
(0.548285 2.3182 2.74846e-19)
(0.463417 1.74114 3.30636e-19)
(0.344911 2.56659 1.50877e-20)
(0.491858 3.17233 -1.16115e-18)
(0.631306 3.13139 8.76382e-19)
(0.432557 2.40381 0)
(0.293438 1.97139 -5.57176e-19)
(0.259635 3.07668 1.39448e-18)
(0.273175 2.71863 -3.13788e-20)
(0.157795 2.27538 -1.74772e-18)
(0.591299 1.41084 1.46318e-18)
(0.576226 1.61654 0)
(3.58364 -0.0751493 8.64309e-20)
(3.61861 -0.254101 -7.25946e-20)
(3.72135 -0.217712 -1.26651e-18)
(3.75927 -0.126018 1.28239e-18)
(3.67616 -0.0488552 0)
(2.4463 3.87167 0)
(2.6178 3.91474 0)
(2.88945 3.62564 0)
(2.73612 3.64273 0)
(0.854084 1.39427 -3.3397e-21)
(0.611423 1.03896 0)
(1.70874 3.3839 1.50199e-20)
(1.42062 3.46287 0)
(1.32626 2.95006 -1.28359e-18)
(1.40676 2.89279 8.24329e-19)
(1.79125 0.310396 0)
(1.43043 0.262016 3.52047e-19)
(2.41163 0.358828 2.19167e-18)
(1.78605 0.284835 -7.85387e-19)
(1.4263 0.112198 -2.49486e-18)
(4.26631 0.790109 -2.56534e-18)
(3.85195 0.995216 -3.67211e-20)
(3.29688 0.844639 2.06773e-18)
(3.87577 0.745476 1.81319e-18)
(3.12305 0.465689 -3.04489e-18)
(2.91021 0.452162 3.7497e-19)
(3.19247 0.682316 -8.18677e-19)
(2.97607 0.683406 0)
(3.75865 0.563997 1.53758e-18)
(4.09565 0.629411 0)
(4.09117 0.776487 0)
(4.04578 0.415931 8.2363e-19)
(4.29665 0.642599 -3.02466e-20)
(4.24947 0.715924 -4.52856e-19)
(4.1766 0.643306 0)
(3.61567 0.130421 1.71811e-18)
(4.19 0.183608 2.14411e-18)
(4.09068 0.151665 -1.67934e-18)
(4.13651 0.240885 -1.44279e-18)
(3.74573 0.238222 -2.15628e-18)
(3.30287 0.37597 0)
(3.40342 0.302415 0)
(2.55811 0.190652 -1.266e-18)
(2.10846 0.119116 4.76745e-19)
(4.03722 0.352635 1.94026e-18)
(4.28774 0.432862 -2.34637e-18)
(4.28488 0.489491 2.0688e-18)
(4.15712 0.493548 0)
(4.25664 0.337318 0)
(4.26651 0.322403 -9.81897e-19)
(4.2143 0.316173 -1.59645e-18)
(2.22658 3.48711 6.20436e-19)
(1.93734 3.2307 -6.8331e-19)
(1.44555 2.35529 -1.03181e-18)
(1.18627 1.99616 2.66824e-19)
(0.88369 1.37804 -2.62847e-18)
(0.793605 1.21535 9.22053e-19)
(0.600725 0.903874 -1.97207e-21)
(1.11446 1.78461 -1.13777e-18)
(1.14176 1.88169 1.69846e-18)
(0.974286 1.70003 5.06034e-19)
(0.785891 1.28856 -5.1265e-19)
(0.635375 1.07435 0)
(2.44548 2.60673 -1.15428e-19)
(0.705127 1.14418 8.57178e-19)
(0.927703 0.889676 1.15612e-18)
(0.755234 0.813584 1.33766e-18)
(1.08305 0.746496 1.34108e-18)
(1.46685 1.04428 -2.27014e-18)
(1.38288 1.07117 1.83931e-18)
(1.00176 0.765484 -6.76711e-19)
(0.817004 0.56799 1.49455e-18)
(1.61547 0.490748 -7.78074e-19)
(1.55893 0.50832 0)
(1.23952 0.407329 4.60572e-21)
(2.50912 1.51586 7.75518e-19)
(2.07974 1.27012 -2.80844e-18)
(1.68659 1.18436 9.08667e-21)
(1.66065 1.09231 0)
(2.86198 2.59507 8.7375e-19)
(3.44674 2.75291 1.0374e-18)
(3.25575 2.93079 -1.19588e-18)
(3.5542 2.76347 -4.28354e-19)
(3.4843 2.60377 -1.3488e-19)
(3.51246 2.79521 1.38772e-19)
(3.6742 2.26707 -1.67932e-18)
(3.70518 2.49211 4.00713e-19)
(3.78367 2.43591 0)
(3.78446 2.19166 -5.79667e-19)
(4.04895 1.07334 5.80527e-19)
(4.27597 0.993191 1.00209e-18)
(4.30041 0.9669 1.01161e-18)
(4.05502 1.32937 -1.14956e-18)
(4.10288 1.3498 0)
(4.15253 1.23376 0)
(3.32765 1.23573 -1.56067e-20)
(2.41769 0.666488 0)
(2.72182 0.744042 9.30607e-19)
(3.23823 0.885954 -2.64567e-20)
(3.77285 1.53469 5.10717e-18)
(3.56976 1.76191 1.31105e-18)
(3.4809 1.54048 -1.34059e-18)
(3.0373 1.36977 1.43735e-18)
(2.76059 1.36964 8.23721e-19)
(2.30651 1.15588 -7.97756e-19)
(3.67221 -0.0855425 1.98455e-18)
(3.8947 -0.0289321 0)
(3.85894 -0.0665485 1.34201e-18)
(3.74291 -0.0594081 -2.98763e-18)
(3.98056 0.0373781 1.46191e-18)
(3.90444 0.113427 -3.08282e-18)
(3.73986 0.128037 0)
(3.55625 0.173471 -6.28522e-19)
(3.81197 0.122982 1.60521e-18)
(3.69195 0.191385 -8.22526e-19)
(3.6003 0.171079 5.90692e-19)
(-0.08018 2.59283 0)
(-0.0467634 3.40004 0)
(-0.0319222 2.46368 0)
(-0.021581 1.97215 0)
(0.0462662 3.94235 6.70634e-19)
(0.140139 3.72382 -1.72928e-19)
(0.317217 4.64494 -2.29735e-19)
(0.252993 4.46241 2.42633e-19)
(-0.0247786 4.29513 -4.97555e-19)
(0.0122106 4.32717 3.73621e-19)
(0.095841 3.87116 2.22707e-20)
(0.00993824 3.55865 -4.67078e-19)
(-0.0123046 3.31043 -6.22655e-20)
(-0.0390858 3.67264 -5.67397e-20)
(0.153233 4.4742 -5.86966e-19)
(0.178433 4.28758 0)
(0.275727 4.63463 2.96409e-19)
(0.268951 4.70946 2.52976e-19)
(0.595858 4.44409 -2.26018e-19)
(0.408009 3.77967 0)
(0.457159 3.62753 -1.11477e-18)
(0.559798 3.9964 7.89908e-19)
(0.480033 4.56161 -6.14785e-19)
(0.370438 4.43183 3.30762e-19)
(0.299381 4.15327 0)
(-0.0342478 4.76164 -5.53263e-19)
(-0.074058 4.52584 -6.4145e-19)
(-0.0752003 4.73922 0)
(-0.028452 4.35879 -6.24742e-21)
(-0.0185459 4.64069 2.74269e-19)
(-0.118048 3.88332 4.4713e-20)
(-0.0549085 3.48806 -6.53881e-19)
(-0.0950752 3.92614 1.74197e-19)
(-0.134962 4.51882 2.32419e-19)
(-0.0755642 4.32925 0)
(-0.0593082 3.88822 0)
(-0.0818791 2.90006 2.00912e-19)
(-0.0472139 3.63372 -6.2694e-20)
(-0.0723868 3.62115 0)
(-0.0879453 2.689 1.58187e-19)
(-0.0462081 2.19531 -3.06497e-19)
(3.76103 0.0323496 0)
(3.7319 0.0077517 -2.0327e-19)
(4.1795 0.0679725 -1.4399e-18)
(4.08911 0.0463227 0)
(3.87634 0.0178333 0)
(4.14973 0.0370672 -1.2525e-20)
(4.1003 0.0349605 2.37885e-18)
(4.0001 0.0802232 2.84558e-18)
(3.75586 0.118678 0)
(3.55801 0.110063 0)
(4.01332 0.0939751 1.41743e-18)
(3.70324 0.11615 0)
(3.47209 0.128887 0)
(-0.080686 4.69942 0)
(-0.106092 4.668 1.06723e-20)
(-0.0765633 4.71956 6.29646e-20)
(-0.0603803 3.83391 0)
(-0.111733 4.5364 1.11256e-19)
(-0.0674477 4.24196 -6.33843e-20)
(-0.0536201 3.93133 0)
(1.41002 4.18544 0)
(1.20929 4.58052 -1.29799e-18)
(1.22459 4.48824 0)
(1.5739 4.48727 1.48435e-18)
(1.59328 4.12149 0)
(1.50163 4.37175 -6.06513e-19)
(1.01129 2.24235 -3.39446e-20)
(0.709039 1.64519 -1.74449e-18)
(0.590586 1.22734 2.12843e-18)
(0.708594 1.83469 3.96768e-19)
(0.974849 2.4238 0)
(1.03623 2.3789 0)
(0.718252 1.68709 0)
(0.53224 1.32993 -1.39507e-18)
(1.20849 3.77449 -9.83385e-19)
(1.12859 2.98852 -2.35478e-19)
(1.32668 3.40458 1.92581e-19)
(0.599136 2.04052 0)
(0.620089 1.94232 0)
(0.462138 1.57087 -3.92671e-19)
(0.957474 2.72006 0)
(2.6871 3.57099 0)
(2.38111 3.00845 -1.4545e-18)
(2.54576 3.02685 -8.58708e-20)
(2.41959 3.40425 0)
(2.28549 3.14925 2.221e-18)
(3.27797 3.08683 -3.8968e-19)
(3.13406 3.32509 0)
(3.11645 3.15145 6.30409e-19)
(2.87041 3.4127 0)
(2.88189 3.20076 0)
(1.20908 2.00606 -9.30358e-19)
(1.41385 2.40305 -6.99481e-19)
(1.75334 2.98148 1.20592e-18)
(1.69552 2.95947 -3.62222e-19)
(1.06226 1.82199 0)
(1.20667 2.2082 4.71078e-19)
(0.718332 1.28853 -7.15151e-19)
(0.58155 1.04334 -5.60178e-22)
(1.93703 3.69544 0)
(2.19888 3.74284 -5.42578e-19)
(2.33812 3.98622 0)
(2.28407 0.529021 0)
(1.61734 0.34191 0)
(1.20901 0.276587 0)
(2.20912 0.554268 -1.46517e-18)
(1.63527 0.402197 8.17201e-19)
(2.14561 0.129125 -9.85116e-19)
(2.62659 0.297533 0)
(2.46566 0.30165 4.13467e-19)
(1.76987 0.13572 1.63291e-18)
(1.53025 0.0812685 -1.03699e-18)
(0.745488 1.55582 8.57984e-19)
(0.9597 1.82028 0)
(0.537613 1.43995 1.56077e-18)
(0.523803 1.61476 -1.42513e-18)
(0.757111 1.8144 -9.88277e-19)
(2.07323 2.46253 1.33762e-18)
(2.09657 2.71191 0)
(1.58335 1.67801 -2.76329e-19)
(2.00955 1.98935 1.74496e-18)
(1.35976 1.29252 -4.23553e-19)
(1.58856 1.31337 4.50658e-19)
(2.10949 1.51318 1.02312e-18)
(2.44262 1.67093 0)
(2.27591 1.85603 0)
(2.00981 1.60596 0)
(3.9568 2.07992 3.8447e-19)
(3.75979 1.8898 -1.26348e-18)
(3.8172 2.02813 1.04671e-18)
(3.90105 1.77152 -1.00826e-18)
(4.15789 1.67393 0)
(4.11697 1.84114 -2.97816e-19)
(2.84042 1.16333 -1.8972e-18)
(2.97079 1.16344 -2.41288e-18)
(2.33193 1.04356 1.45635e-18)
(2.13822 0.934431 -1.41975e-18)
(2.46346 0.846176 -1.17805e-18)
(2.17853 0.776945 1.44876e-18)
(4.00845 0.0334778 -1.52882e-18)
(4.05276 0.0406922 3.13007e-18)
(3.76797 -0.065879 1.90082e-18)
(3.79119 -0.0737696 -2.28668e-18)
(3.95955 0.010577 0)
(4.05604 0.0228816 -3.72965e-18)
(0.0965339 4.76148 1.06543e-19)
(0.0673538 4.73215 0)
(0.189393 4.73146 9.53517e-19)
(0.210972 4.74924 -8.67477e-19)
(0.230867 4.71911 4.28434e-19)
(0.121861 4.65921 0)
(-0.100751 4.77113 0)
(-0.106545 4.40457 -6.1848e-20)
(-0.105443 4.33388 5.54363e-20)
(-0.114172 4.48263 7.18703e-21)
(-0.104852 4.7212 -1.01164e-19)
(-0.0819835 4.70884 5.50868e-20)
(1.87527 4.00954 -1.64316e-18)
(1.81623 4.01602 1.74008e-18)
(1.68393 4.40662 -8.54186e-19)
(1.69262 4.27726 7.61197e-20)
(2.25267 4.08666 0)
(1.85456 4.22027 -6.35423e-19)
(1.98181 3.96011 6.16267e-19)
(1.82384 4.38116 8.34382e-19)
(2.07657 4.2194 0)
(2.22802 4.1004 0)
(1.13805 3.6305 1.49491e-18)
(0.826411 2.81093 2.02309e-18)
(0.954122 2.98931 -1.38945e-18)
(0.746334 2.97093 -2.31872e-19)
(0.902157 3.73 4.66262e-19)
(0.72187 3.36247 -1.1339e-18)
(0.745611 1.46549 -1.21464e-18)
(0.746092 1.31671 0)
(0.602447 1.11431 -1.33507e-18)
(1.11072 2.06367 0)
(1.08768 2.15061 0)
(1.35837 2.19066 -1.09048e-18)
(1.0643 2.01401 -1.0359e-18)
(1.01667 2.03491 1.09858e-18)
(1.03094 1.51906 0)
(1.41014 1.76162 -6.01169e-19)
(1.62704 2.1188 -8.55363e-19)
(1.41058 2.08242 0)
(0.867662 1.81829 7.12384e-19)
(0.779579 1.67937 0)
(2.90583 2.2888 -1.84696e-18)
(3.31875 2.47056 2.60915e-18)
(3.27745 2.19306 -2.59324e-18)
(2.61011 2.02076 -2.31165e-19)
(2.72471 1.94025 -9.74099e-19)
(1.26166 2.18953 7.96083e-19)
(1.31579 2.24434 -1.35977e-18)
(1.45382 2.32931 1.7926e-18)
(1.79 2.55929 -1.16511e-18)
(1.88856 2.93199 -1.56706e-18)
(1.56285 2.48836 -1.18789e-19)
(1.63257 2.62787 1.37112e-18)
(1.80967 2.69275 9.66069e-20)
(2.01754 2.99847 6.49933e-19)
)
;

boundaryField
{
    wall-4
    {
        type            noSlip;
    }
    velocity-inlet-5
    {
        type            fixedValue;
        value           uniform (3 0 0);
    }
    velocity-inlet-6
    {
        type            fixedValue;
        value           uniform (0 1 0);
    }
    pressure-outlet-7
    {
        type            zeroGradient;
    }
    wall-8
    {
        type            noSlip;
    }
    frontAndBackPlanes
    {
        type            empty;
    }
}


// ************************************************************************* //
