/*--------------------------------*- C++ -*----------------------------------*\
  =========                 |
  \\      /  F ield         | OpenFOAM: The Open Source CFD Toolbox
   \\    /   O peration     | Website:  https://openfoam.org
    \\  /    A nd           | Version:  9
     \\/     M anipulation  |
\*---------------------------------------------------------------------------*/
FoamFile
{
    format      ascii;
    class       volScalarField;
    location    "19.45";
    object      p;
}
// * * * * * * * * * * * * * * * * * * * * * * * * * * * * * * * * * * * * * //

dimensions      [0 2 -2 0 0 0 0];

internalField   nonuniform List<scalar> 
918
(
23.4664
23.5819
0.963563
22.8838
1.00843
23.0983
3.28394
13.7865
19.2396
2.93542
2.62566
14.4057
20.6413
16.8827
12.9995
0.923718
14.0508
2.25732
18.4573
1.40081
12.997
20.4451
21.5338
19.2814
14.1188
14.3776
18.6036
1.15596
0.11029
0.261134
0.975651
0.408583
0.148685
21.6352
22.3119
22.2502
15.4923
10.4099
3.60665
3.81023
2.99409
2.81839
13.8288
13.9285
5.87083
13.7658
13.7619
16.6412
19.1076
19.2513
19.5445
19.3335
19.7199
5.97687
2.78859
2.6094
2.87664
2.94966
2.97772
2.69844
2.67938
2.48424
2.33829
13.8852
14.4788
14.5339
14.2652
14.2128
22.4579
21.701
22.0357
21.1421
21.2875
20.2174
19.8318
17.2584
17.6108
16.4846
16.1037
12.7899
12.7511
13.2194
13.469
0.146735
1.07281
1.22093
14.0576
14.094
14.0946
14.1092
8.29746
2.19955
2.203
17.8976
17.4741
20.479
20.7462
20.1932
20.0077
1.53416
1.52938
1.15717
1.18539
0.953992
13.3376
13.4914
19.2328
18.3997
14.1522
14.0523
14.1272
11.4978
13.9078
13.9812
15.3274
15.7829
14.9721
15.4086
18.1736
17.7556
19.0402
19.4774
0.396545
0.156371
0.68663
0.317808
0.515913
15.3606
15.1552
15.6081
15.659
15.8902
10.4142
10.3439
10.3894
10.3095
4.15619
4.47045
2.26743
2.58296
2.43392
9.8788
13.9445
13.9909
4.8165
5.51965
5.18394
6.35212
6.72606
16.0069
16.4434
16.1822
17.7285
16.9334
17.2816
19.8106
19.2999
19.6003
6.37345
6.60993
5.61075
5.25172
2.24781
2.49358
2.43671
2.98112
2.95888
3.21246
3.34275
2.69376
2.55096
2.89263
2.77671
2.82809
2.16846
2.03849
13.6093
13.3954
14.1482
14.3268
15.0938
14.9455
14.6521
14.8209
19.0269
19.4304
19.4639
19.0797
11.5509
10.1591
13.7235
13.9989
0.302502
0.266185
0.137806
0.380092
0.400168
0.141534
2.01209
1.82359
1.40298
1.6785
14.0549
14.0146
8.53853
8.75856
8.13374
7.87648
16.3117
16.462
17.0961
16.6959
1.96553
1.67961
1.80909
13.6533
13.5264
13.633
10.933
10.3668
11.9754
12.2451
13.9897
14.0332
14.0293
15.6871
16.0055
19.8283
20.0989
19.9258
20.3116
21.3744
21.0257
20.6409
14.5365
14.9449
14.7833
16.1254
15.759
15.9785
15.1864
15.4911
15.349
10.3751
10.421
10.1302
10.2077
10.2548
10.2023
9.81662
9.68988
14.0767
14.0323
14.0561
7.25332
7.75105
4.87023
4.54081
12.5413
13.2145
12.8901
18.6566
17.979
18.712
18.3411
17.8911
18.2146
10.4315
10.3924
10.426
14.923
14.261
14.6128
2.43522
2.07168
2.23453
8.95495
9.04772
6.97976
7.59918
7.2611
16.3072
16.6475
17.3277
16.4394
16.9071
17.4144
17.1925
9.95173
10.0835
10.0007
9.67441
9.56807
9.73392
8.33556
8.94847
3.60936
4.26776
3.96282
9.21577
9.44535
9.29256
18.6274
19.1622
0.770167
1.16148
19.5922
19.3159
0.140699
0.241121
14.2594
12.5567
7.26412
17.1946
16.6272
18.967
3.19182
6.10527
2.80685
3.37929
2.6856
14.6127
14.247
13.3382
0.456072
1.25665
1.70934
2.90554
18.4078
17.7326
18.8487
19.1689
19.2232
0.689428
0.917205
0.585032
1.2451
1.03354
1.27721
15.5483
15.6463
4.33128
18.8557
19.16
19.1778
17.6545
18.6072
17.6647
0.935479
0.641781
0.708272
10.0792
12.1196
14.2196
13.7721
13.9692
13.9914
13.7423
14.8755
14.5451
14.51
14.9947
13.9667
13.8228
7.73409
6.38505
8.06917
7.7093
17.0959
16.6838
16.4908
16.2365
18.0822
17.6082
18.4586
17.847
18.3089
18.5957
2.9406
3.13116
3.01306
2.52387
6.14497
6.61352
5.48926
5.63675
4.25893
2.4279
2.52631
2.75135
2.58346
2.93003
2.67839
2.94168
2.57682
2.32318
2.31932
2.9284
2.73679
2.60183
14.5911
14.5296
14.3305
14.3685
14.3512
14.4669
13.5327
13.9373
13.565
12.3966
12.9774
12.5047
0.825724
0.658993
0.525936
1.32469
1.3516
1.1119
0.837371
1.17706
1.20276
0.81819
1.54417
1.44752
3.16152
2.65303
8.85492
7.98238
6.90001
16.7978
17.5996
16.7693
18.01
18.427
18.5324
18.1528
17.6446
15.727
15.7221
15.3823
15.3357
4.77291
3.74001
4.97055
4.54017
10.4841
14.0634
11.8406
10.8021
11.0981
13.4214
13.9351
13.5868
13.7244
13.2987
12.8272
13.5195
13.053
13.1542
12.9328
15.7237
16.1989
15.8054
15.2259
15.2459
10.6034
12.0157
5.46866
5.64162
7.24241
6.5379
13.5138
13.9328
13.9172
13.5577
13.7462
13.7454
13.6063
13.78
13.8611
13.7552
11.8218
10.1423
9.04424
9.03793
14.0756
12.3444
12.9291
12.4107
16.1177
16.6342
16.2489
15.6434
16.1284
15.6003
15.6274
15.8405
17.1988
16.9484
16.7181
17.105
3.05311
3.00137
3.64383
3.13636
3.03764
2.82464
3.48317
4.7557
4.41366
6.72023
7.26832
4.5769
3.37265
3.79023
4.80295
5.53957
5.51318
3.96884
4.50139
4.92756
4.43989
5.22713
4.73067
2.71824
3.02171
2.86057
2.83526
3.38086
3.87875
3.37426
2.47916
2.59019
2.25694
2.12002
3.5322
2.99147
3.02772
3.67565
1.10476
1.32805
1.44148
2.41306
1.91097
1.97667
15.1798
14.8238
14.9575
14.2367
14.3042
14.2454
13.8697
15.2373
14.9594
15.0588
13.7074
13.7941
13.6074
13.9027
14.3184
14.6177
15.4496
15.1707
14.4098
14.5608
14.2118
14.14
13.4622
12.8991
12.8387
1.11206
0.821009
0.983731
0.913755
0.609629
0.802232
2.18214
1.57146
1.96892
1.72646
1.95901
1.40621
1.30192
4.25157
5.05587
3.96843
3.3694
3.07353
8.9119
9.02413
8.1714
7.86538
8.20774
8.44009
8.3901
7.1428
7.57353
7.3853
9.92724
9.59366
17.584
17.5281
17.1993
17.0404
17.2668
5.75768
7.66211
6.79781
7.91595
10.2126
10.5101
9.31303
8.70949
9.46376
9.53931
14.0452
14.1215
13.5619
14.0478
14.0762
11.8324
12.8799
13.4944
13.3087
13.829
13.9101
12.9716
13.56
13.4745
12.7568
12.8102
12.1255
12.4638
11.9917
11.791
14.0533
13.9481
14.2178
13.7686
14.1479
13.7124
14.0275
14.0257
14.3063
13.408
12.8296
12.8482
13.2743
12.9741
13.3202
13.484
9.30708
9.95004
10.3918
10.9278
10.6364
10.417
10.2843
10.5859
10.5636
10.8337
10.7533
10.6035
11.5603
13.4212
13.7058
13.8081
13.6022
13.6483
13.341
13.6149
13.5435
13.9186
14.0071
14.0565
13.1375
13.2947
13.4907
13.3738
11.6736
10.0917
9.94574
9.50595
7.57461
8.04529
11.0217
9.90002
8.91615
8.98752
12.1663
10.8036
11.6167
12.0396
10.6913
10.3037
12.9691
13.7578
13.9775
13.701
12.0574
12.1833
12.6332
13.0772
13.267
13.7237
15.8576
16.4332
16.5111
16.2352
16.0972
16.197
15.9471
16.0502
16.5243
16.6508
16.4821
2.87881
2.99155
2.9219
2.84771
3.08302
2.85838
3.95042
3.94027
3.15348
3.33395
3.35354
3.46088
2.92818
2.97147
4.8229
5.05847
5.33103
4.83046
6.17269
6.82204
7.40488
7.08608
5.78701
5.8687
6.186
3.50364
3.53175
3.24993
3.70531
3.75894
2.61025
2.23867
2.04287
2.56063
2.66359
2.04972
1.76979
1.81898
2.3308
2.0525
1.80672
14.9724
14.7307
14.7521
14.5319
14.5865
14.9813
15.2021
15.0122
15.1505
15.2015
14.8007
14.6895
14.8607
1.81865
1.49057
1.62354
1.58119
1.64028
1.5485
1.73558
7.60929
6.41286
6.79949
5.97762
4.12071
4.64045
9.54827
9.97111
10.0093
9.72288
9.51146
9.87673
9.72812
9.72164
8.26664
9.34106
8.87294
9.27509
9.29534
9.36419
9.07493
9.0789
10.5837
10.6166
9.48123
10.1226
9.32912
7.92989
8.09709
9.11049
10.0842
10.4112
10.2547
9.98231
9.7541
10.1212
10.1758
10.2368
10.2267
8.75205
8.70917
8.30906
13.967
13.8737
14.0203
14.0253
14.1526
13.9763
13.8133
14.0907
14.145
13.9292
11.0816
11.1412
11.3866
12.1348
12.1867
12.0935
11.3383
13.1041
12.7585
13.398
13.3439
13.4147
13.0038
12.8277
13.0991
10.0781
11.4505
10.9827
11.247
10.061
9.30528
13.222
13.2758
13.342
13.6154
13.5725
14.1566
15.8275
15.6974
15.7448
15.7878
15.3995
15.4367
4.17268
3.82606
4.54464
4.5023
4.06115
3.76208
2.28751
1.96967
1.78299
1.65664
1.88883
1.94854
8.16004
8.19092
6.3306
7.35579
5.87514
4.93575
4.79244
5.95166
7.13362
7.19463
8.51882
9.20044
8.75775
8.58421
7.92479
8.25671
10.1263
10.2195
10.1205
10.439
9.97181
11.7167
11.2992
11.6481
13.263
12.9712
12.373
12.2599
12.2251
12.8189
11.945
11.1756
11.889
12.5465
12.5045
11.1221
10.8773
11.3035
11.2863
10.2001
10.7217
10.4837
10.8353
10.5492
)
;

boundaryField
{
    wall-4
    {
        type            zeroGradient;
    }
    velocity-inlet-5
    {
        type            zeroGradient;
    }
    velocity-inlet-6
    {
        type            zeroGradient;
    }
    pressure-outlet-7
    {
        type            fixedValue;
        value           uniform 0;
    }
    wall-8
    {
        type            zeroGradient;
    }
    frontAndBackPlanes
    {
        type            empty;
    }
}


// ************************************************************************* //
