/*--------------------------------*- C++ -*----------------------------------*\
  =========                 |
  \\      /  F ield         | OpenFOAM: The Open Source CFD Toolbox
   \\    /   O peration     | Website:  https://openfoam.org
    \\  /    A nd           | Version:  9
     \\/     M anipulation  |
\*---------------------------------------------------------------------------*/
FoamFile
{
    format      ascii;
    class       volScalarField;
    location    "2.75";
    object      k;
}
// * * * * * * * * * * * * * * * * * * * * * * * * * * * * * * * * * * * * * //

dimensions      [0 2 -2 0 0 0 0];

internalField   nonuniform List<scalar> 
2268
(
0.00130395
0.00342749
0.00498482
0.0061786
0.00714037
0.00793022
0.00858263
0.00912348
0.00957434
0.00995035
0.0102582
0.0105004
0.010679
0.0107954
0.0108423
0.0107866
0.0104716
0.00994137
0.00926936
0.00841845
0.00712715
0.0049982
0.00198459
0.00298552
0.00797475
0.0112286
0.0137452
0.0157822
0.0174596
0.0188496
0.0200055
0.0209692
0.0217701
0.0224232
0.0229345
0.0233051
0.0235267
0.0235735
0.0233848
0.0228265
0.0217871
0.020448
0.0186741
0.0158882
0.0114272
0.00446922
0.0043399
0.0107148
0.0147086
0.0178007
0.0203161
0.0223947
0.0241216
0.0255602
0.0267598
0.0277555
0.0285671
0.0292029
0.0296642
0.0299384
0.0299937
0.0297643
0.0291291
0.0279975
0.0264189
0.0241939
0.0207662
0.0153187
0.00606739
0.00550418
0.0129627
0.0174382
0.0208853
0.0236973
0.0260278
0.0279683
0.0295874
0.0309384
0.0320599
0.032975
0.0336942
0.0342192
0.0345352
0.0346094
0.0343766
0.0337287
0.0325813
0.0309063
0.0284698
0.0247036
0.0186232
0.00744318
0.00652311
0.0149641
0.0198329
0.0235467
0.0265755
0.0290887
0.0311841
0.0329341
0.0343956
0.0356102
0.0366038
0.0373894
0.0379686
0.0383263
0.0384298
0.0382177
0.0375946
0.0364757
0.0347894
0.0322831
0.0283695
0.021866
0.00879068
0.00743866
0.016798
0.0220264
0.0259668
0.0291706
0.0318272
0.0340419
0.0358919
0.0374382
0.0387256
0.0397832
0.0406265
0.041257
0.0416601
0.0418042
0.0416326
0.0410614
0.0400071
0.0383752
0.0359081
0.0320194
0.0253462
0.0103963
0.0082841
0.0185071
0.0240805
0.0282287
0.031584
0.0343589
0.0366685
0.0385961
0.0402078
0.0415534
0.0426649
0.0435613
0.0442435
0.0446975
0.0448932
0.0447791
0.0442825
0.0433245
0.041802
0.039469
0.0357795
0.029325
0.0130251
0.00910413
0.0201234
0.0260323
0.030379
0.0338718
0.0367479
0.0391337
0.0411206
0.0427821
0.0441735
0.0453314
0.0462784
0.0470146
0.0475258
0.0477834
0.0477419
0.0473396
0.0465058
0.0451401
0.0430214
0.0396916
0.0339995
0.0194164
0.00160503
0.00480104
0.00649821
0.00727875
0.00762141
0.00761544
0.00722084
0.00638799
0.00569836
0.005744
0.00589567
0.00577121
0.00560705
0.00578007
0.00596259
0.00555026
0.00431077
0.00269659
0.00115343
0.00435812
0.0105791
0.0141807
0.016042
0.0168073
0.0167476
0.0158842
0.0142967
0.0130664
0.012876
0.0129652
0.0126258
0.0122006
0.0122169
0.0121123
0.0112686
0.00921692
0.00621615
0.00232042
0.00629686
0.014303
0.0186089
0.0207713
0.0215963
0.0214368
0.0203942
0.0187728
0.0174715
0.0170238
0.0168366
0.0163837
0.0158528
0.0155606
0.0151166
0.0139874
0.0117064
0.00828126
0.00315759
0.00816935
0.0177451
0.0222603
0.0243903
0.025131
0.0248508
0.023715
0.0221318
0.0208388
0.0202054
0.0197948
0.0192337
0.0185878
0.0180305
0.0172806
0.0159106
0.0135461
0.00989751
0.00388171
0.0101698
0.021206
0.0256117
0.0275219
0.0281118
0.0277085
0.0265166
0.0249859
0.0237158
0.0229447
0.0223588
0.021692
0.0209267
0.0201384
0.0191274
0.0175245
0.0150543
0.0112659
0.00452319
0.012691
0.0247142
0.028775
0.0303803
0.0307756
0.0302537
0.0290336
0.0275643
0.026319
0.0254382
0.0247077
0.0239351
0.0230483
0.0220657
0.0208388
0.0190259
0.0163496
0.0123726
0.00498969
0.0161172
0.0284133
0.031848
0.0330601
0.0332272
0.0325912
0.0313674
0.0299731
0.0287541
0.0277808
0.0269217
0.026042
0.0250392
0.023899
0.0224972
0.0205202
0.0176091
0.0132532
0.00549611
0.0222419
0.0323971
0.0348676
0.0356122
0.0355261
0.0347786
0.0335685
0.0322582
0.0310669
0.0300168
0.0290367
0.0280494
0.0269495
0.0256843
0.0241407
0.0220458
0.0189654
0.0142477
0.006196
0.0101458
0.0223881
0.0288542
0.0335288
0.0372401
0.0402686
0.0427614
0.0448262
0.0465524
0.0480079
0.0492366
0.0502653
0.0510912
0.0517018
0.0520713
0.0521632
0.051935
0.051334
0.0502756
0.0485887
0.0459726
0.0419311
0.0352953
0.0114579
0.0252171
0.0324313
0.0375555
0.0415527
0.0447577
0.0473433
0.0494477
0.0512011
0.0526997
0.0539998
0.055128
0.0560803
0.0568442
0.0573936
0.0576983
0.0577507
0.0575375
0.0570128
0.0560538
0.054426
0.0518676
0.0485829
0.0126942
0.0279908
0.0359394
0.0415148
0.0458011
0.0491728
0.0517932
0.0538428
0.0555429
0.0570348
0.0583838
0.0596078
0.0607033
0.0616541
0.0624224
0.0629572
0.0633117
0.0635359
0.0636454
0.0635595
0.0629161
0.0609825
0.0585612
0.0143435
0.0313186
0.0396238
0.0455832
0.0501829
0.0537648
0.0563462
0.0581657
0.0596873
0.0611139
0.0624889
0.0638162
0.0650797
0.0662553
0.0672974
0.0680361
0.0686593
0.0693105
0.0701126
0.0711499
0.0720169
0.0696717
0.0668162
0.0167492
0.0354241
0.0433801
0.0498923
0.0547513
0.0584394
0.0611178
0.0625183
0.0636776
0.064991
0.0663745
0.0677731
0.0691533
0.0704255
0.0714495
0.0723104
0.0731277
0.0739917
0.075229
0.0774506
0.08013
0.0770668
0.073857
0.0198267
0.0383488
0.0472354
0.0539454
0.0580564
0.0619452
0.065089
0.0664838
0.067294
0.0684119
0.0698165
0.0713476
0.0728134
0.0741373
0.0753667
0.0763446
0.0771225
0.0776543
0.0786167
0.0807422
0.0818952
0.0804045
0.0782299
0.0201343
0.0382556
0.049608
0.0561592
0.0597198
0.0633185
0.066813
0.0687309
0.0699032
0.0712997
0.0730296
0.0748875
0.0764708
0.0777897
0.078908
0.0799881
0.0808368
0.0807494
0.0808942
0.0823546
0.0830322
0.0829528
0.0821751
0.0172552
0.0356749
0.0489935
0.0568646
0.0612578
0.0648017
0.0682643
0.0705838
0.0723328
0.074037
0.0759883
0.0781228
0.0793627
0.0798391
0.0803859
0.0810904
0.0817344
0.0816932
0.0819854
0.0831656
0.0845569
0.0846537
0.0844346
0.0145705
0.0317395
0.0459136
0.0551568
0.0618376
0.0669513
0.0708088
0.0728318
0.0746256
0.0759783
0.0771076
0.0783524
0.0790371
0.0793376
0.0795892
0.0798721
0.0801246
0.0802204
0.0808756
0.082223
0.0838237
0.0841305
0.0827921
0.0137453
0.0309582
0.0453651
0.0548416
0.0623627
0.0681946
0.0714495
0.0730372
0.0744041
0.07526
0.0758657
0.0766041
0.0771901
0.0775466
0.0776919
0.0777626
0.0777896
0.0778423
0.0783799
0.0795041
0.0808355
0.0812924
0.0797522
0.0156137
0.0349332
0.0472795
0.0558246
0.0623818
0.0669248
0.0694977
0.0710373
0.0721709
0.0729137
0.0734994
0.0741179
0.0746411
0.0749596
0.0750558
0.0750359
0.0749819
0.0750222
0.0754141
0.0762093
0.0771168
0.0773679
0.0760943
0.0182336
0.0378349
0.0484818
0.0559028
0.0612283
0.0647648
0.066963
0.0684271
0.0694734
0.0702158
0.070809
0.0713396
0.0717516
0.0719819
0.0720341
0.0719933
0.0719583
0.0720411
0.0723557
0.0728821
0.0733809
0.0733407
0.0722615
0.0197955
0.0393109
0.0487814
0.0550928
0.0595032
0.0624699
0.0644479
0.0658233
0.0668169
0.0675465
0.0681085
0.0685492
0.0688563
0.0690167
0.0690578
0.0690503
0.0690745
0.0691955
0.0694425
0.0697508
0.0699219
0.0696425
0.0686632
0.020107
0.0394662
0.0481758
0.0537082
0.0575281
0.0601768
0.0620191
0.0633303
0.0642851
0.0649867
0.0655044
0.0658763
0.0661183
0.06625
0.0663109
0.0663562
0.066437
0.0665752
0.0667535
0.0668941
0.0668455
0.0664256
0.0655211
0.0196595
0.038595
0.0468081
0.0518755
0.0553711
0.0578445
0.0596125
0.0608932
0.0618298
0.062513
0.0630036
0.0633436
0.063566
0.0637065
0.0638063
0.0639048
0.0640278
0.0641694
0.0642914
0.0643232
0.0641564
0.0636895
0.0628754
0.018858
0.0370604
0.0449306
0.0497342
0.0530485
0.0554312
0.0571709
0.0584512
0.0593939
0.0600818
0.0605746
0.0609197
0.0611593
0.0613344
0.0614825
0.0616301
0.0617865
0.0619322
0.0620243
0.0620031
0.0618007
0.0613574
0.0606571
0.0179838
0.0352094
0.0427573
0.0473793
0.0505916
0.0529344
0.0546754
0.0559763
0.0569457
0.0576611
0.0581828
0.0585617
0.0588434
0.059069
0.0592705
0.0594658
0.0596556
0.0598166
0.0599094
0.0598864
0.0597029
0.0593292
0.05876
0.0170061
0.0331854
0.0404197
0.0449001
0.0480496
0.0503783
0.0521355
0.053469
0.0544785
0.0552381
0.0558078
0.0562396
0.056579
0.0568646
0.057124
0.0573698
0.0575994
0.0577909
0.0579117
0.0579256
0.0578017
0.0575227
0.0570889
0.015947
0.03108
0.0380091
0.0423664
0.0454702
0.0477955
0.0495749
0.0509462
0.0520032
0.0528173
0.0534471
0.0539435
0.0543503
0.0547028
0.0550249
0.0553271
0.0556058
0.0558428
0.0560125
0.0560876
0.0560461
0.0558762
0.0555786
0.0148193
0.0289402
0.0355789
0.0398256
0.0428916
0.0452172
0.0470206
0.0484319
0.0495406
0.0504153
0.0511128
0.0516816
0.0521627
0.0525879
0.0529783
0.0533445
0.0536821
0.0539772
0.0542101
0.0543604
0.0544114
0.0543537
0.0541864
0.0136189
0.0267836
0.033158
0.0373073
0.0403419
0.0426706
0.0444993
0.0459526
0.0471164
0.0480567
0.0488276
0.0494748
0.0500361
0.0505402
0.0510059
0.0514429
0.0518482
0.052211
0.0525165
0.0527489
0.0528948
0.0529462
0.0528998
0.0123474
0.0246153
0.0307641
0.0348337
0.0378448
0.0401807
0.0420379
0.0435365
0.0447594
0.0457701
0.04662
0.0473513
0.0479986
0.0485876
0.0491352
0.0496502
0.0501305
0.0505681
0.0509517
0.0512686
0.0515079
0.0516617
0.0517257
0.0111117
0.0224274
0.028418
0.0324288
0.0354257
0.0377746
0.0396652
0.0412137
0.0425009
0.0435876
0.0445219
0.045343
0.046082
0.0467617
0.0473972
0.0479961
0.0485573
0.0490746
0.049539
0.0499403
0.0502692
0.050518
0.0506814
0.0100235
0.0203507
0.0261623
0.0301248
0.0331154
0.0354835
0.0374129
0.039017
0.0403741
0.0415422
0.0425665
0.0434827
0.0443183
0.0450936
0.0458219
0.0465095
0.0471556
0.0477555
0.0483018
0.048786
0.0491999
0.0495361
0.0497887
0.00904785
0.0185126
0.024097
0.0279879
0.0309632
0.0333484
0.0353183
0.0369817
0.0384132
0.0396675
0.0407862
0.0418015
0.0427376
0.0436122
0.0444366
0.0452159
0.0459495
0.0466335
0.0472617
0.0478268
0.0483211
0.0487379
0.0490708
0.00819837
0.0169527
0.0222748
0.0260679
0.0290148
0.0314118
0.0334214
0.0351454
0.0366537
0.0379968
0.0392123
0.0403286
0.041367
0.0423423
0.0432643
0.0441369
0.0449594
0.0457281
0.0464377
0.0470814
0.0476524
0.048144
0.04855
0.00748492
0.0156665
0.020717
0.0243952
0.0273033
0.0297072
0.0317547
0.0335393
0.0351249
0.0365571
0.0378694
0.0390866
0.0402269
0.0413028
0.0423224
0.0432887
0.0442004
0.0450541
0.0458446
0.0465656
0.0472104
0.0477726
0.048246
0.00690142
0.0146204
0.019418
0.0229801
0.0258466
0.0282556
0.0303401
0.0321847
0.0338466
0.0353664
0.0367736
0.0380897
0.0393301
0.0405053
0.0416218
0.0426816
0.0436831
0.0446225
0.0454943
0.0462923
0.0470098
0.0476401
0.0481773
0.00643279
0.0137798
0.0183614
0.02182
0.0246501
0.0270663
0.0291883
0.0310917
0.0328277
0.0344323
0.0359312
0.0373431
0.0386812
0.0399541
0.041167
0.0423211
0.043414
0.0444412
0.0453966
0.0462733
0.0470642
0.0477624
0.0483618
0.00606583
0.0131231
0.0175331
0.020908
0.0237114
0.0261389
0.028299
0.0302596
0.0320667
0.033752
0.0353388
0.0368432
0.0382767
0.0396467
0.0409572
0.0422084
0.0433967
0.0445166
0.0455605
0.0465205
0.0473884
0.0481565
0.0488186
0.00579345
0.0126416
0.0169235
0.0202359
0.0230222
0.0254646
0.0276625
0.0296775
0.0315514
0.0333133
0.0349839
0.0365783
0.0381066
0.0395754
0.0409875
0.042342
0.0436338
0.0448552
0.0459969
0.0470486
0.0480002
0.0488431
0.0495707
0.00561208
0.0123304
0.0165237
0.0197916
0.0225684
0.025027
0.0272604
0.0293258
0.0312618
0.0330957
0.0348472
0.0365306
0.0381557
0.0397283
0.0412502
0.0427193
0.0441282
0.0454662
0.0467203
0.0478769
0.0489232
0.0498489
0.0506468
0.00551653
0.0121802
0.0163183
0.0195562
0.0223278
0.0248017
0.0270668
0.0291776
0.0311708
0.0330731
0.0349038
0.0366777
0.0384046
0.0400905
0.0417363
0.0433381
0.0448855
0.0463629
0.047752
0.0490333
0.0501901
0.0512096
0.0520843
0.00549669
0.0121727
0.0162831
0.0195019
0.0222706
0.0247577
0.02705
0.029201
0.031247
0.0332148
0.0351249
0.0369932
0.0388311
0.0406451
0.0424359
0.0441977
0.0459154
0.0475664
0.0491231
0.0505575
0.051846
0.0529733
0.0539322
0.005537
0.0122799
0.0163843
0.019593
0.0223607
0.0248586
0.027174
0.0293605
0.0314555
0.0334873
0.0354786
0.0374479
0.0394096
0.0413725
0.0433383
0.0452988
0.0472331
0.0491075
0.0508793
0.0525059
0.053954
0.0552049
0.0562545
0.00561757
0.0124652
0.016581
0.0197884
0.0225581
0.0250658
0.0274008
0.029619
0.0317598
0.0338547
0.03593
0.0380089
0.0401107
0.0422493
0.0444296
0.0466425
0.0488598
0.0510305
0.0530866
0.0549594
0.0566007
0.0579907
0.0591327
0.00571448
0.0126844
0.0168281
0.0200459
0.0228229
0.0253406
0.0276928
0.029939
0.0321226
0.0342795
0.0364415
0.0386387
0.0408987
0.0432444
0.0456889
0.0482262
0.050821
0.0533968
0.0558402
0.0580332
0.0599056
0.0614434
0.0626692
0.00579875
0.0128886
0.0170828
0.0203282
0.0231202
0.0256484
0.0280146
0.0302844
0.0325067
0.034723
0.0369724
0.0392942
0.0417286
0.0443139
0.0470799
0.050034
0.0531402
0.0562876
0.0592805
0.0618943
0.0640319
0.0657076
0.0669876
0.00585859
0.0130702
0.0173294
0.0206164
0.0234263
0.0259612
0.0283348
0.0306213
0.0328759
0.0351461
0.037479
0.0399256
0.0425431
0.0453935
0.0485376
0.0520172
0.0558193
0.0598033
0.0636252
0.0667916
0.0692003
0.0709614
0.07223
0.00678478
0.0140429
0.0177454
0.0209425
0.0237343
0.0262569
0.0286249
0.0309179
0.0331954
0.0355098
0.0379157
0.0404768
0.0432703
0.0463905
0.0499482
0.0540571
0.0587884
0.0640404
0.0692507
0.0731093
0.0757009
0.0774084
0.078546
0.0203
0.0282669
0.0201774
0.0215285
0.0240544
0.0265118
0.0288551
0.0311434
0.033433
0.0357779
0.0382384
0.0408891
0.0438267
0.0471813
0.0511283
0.0559004
0.0617764
0.0689634
0.0769388
0.0814506
0.0838772
0.0852458
0.0860702
0.0848165
0.0837411
0.0335399
0.023123
0.0243893
0.0266827
0.028989
0.0312676
0.0335608
0.0359207
0.0384102
0.0411099
0.0441297
0.0476249
0.0518254
0.0570905
0.0640272
0.073773
0.0887373
0.0926744
0.0940083
0.0945852
0.0948888
0.0251186
0.0212892
0.0212996
0.0251208
0.0461061
0.0449196
0.0444809
0.0447854
0.0570373
0.0561929
0.0555366
0.0550342
0.0653555
0.0645524
0.0638908
0.0633613
0.0724003
0.0714665
0.0705429
0.0694576
0.0763816
0.0751145
0.073674
0.0720943
0.0802575
0.0788604
0.0767231
0.0743501
0.0817912
0.0795247
0.0770057
0.074728
0.0798937
0.0778041
0.0757889
0.0738967
0.0773499
0.0757054
0.0740516
0.0723995
0.0742394
0.0729219
0.071526
0.0700745
0.0707879
0.0697153
0.0685488
0.0673144
0.067445
0.0665601
0.0655945
0.0645699
0.0644968
0.0637631
0.0629682
0.0621275
0.0620176
0.0614121
0.0607613
0.0600752
0.059952
0.0594586
0.0589304
0.0583734
0.0581973
0.0578039
0.0573817
0.0569343
0.056657
0.0563528
0.0560234
0.0556705
0.0552667
0.0550423
0.0547944
0.0545237
0.0539831
0.05383
0.0536544
0.0534562
0.0527934
0.0527035
0.0525917
0.0524575
0.051705
0.0516707
0.0516148
0.0515365
0.050736
0.0507505
0.0507433
0.0507138
0.0499096
0.0499668
0.0500024
0.0500154
0.0492504
0.0493454
0.0494185
0.0494688
0.0487818
0.0489105
0.0490168
0.0491
0.0485252
0.0486843
0.0488203
0.0489327
0.0485003
0.0486873
0.0488504
0.0489891
0.0487265
0.0489397
0.049128
0.049291
0.0492243
0.049463
0.0496754
0.0498612
0.0500179
0.0502819
0.0505178
0.0507257
0.0511371
0.0514267
0.0516861
0.0519155
0.0526197
0.0529355
0.0532184
0.0534687
0.0545145
0.0548566
0.0551623
0.0554324
0.0568834
0.0572506
0.057577
0.0578643
0.0598039
0.060192
0.0605345
0.0608341
0.0633705
0.0637708
0.0641205
0.0644236
0.0676943
0.0680911
0.0684332
0.0687263
0.0728995
0.0732679
0.0735805
0.0738448
0.0791146
0.0794203
0.0796752
0.0798876
0.0864581
0.0866616
0.0868285
0.0869656
0.095023
0.0950919
0.0951477
0.0951931
0.0356952
0.0386759
0.0394726
0.0394423
0.0389497
0.0380398
0.0368542
0.0356545
0.0345019
0.0333571
0.0322077
0.0310621
0.0298323
0.0283928
0.0266202
0.0243334
0.0210777
0.016063
0.00724909
0.0458338
0.0458516
0.0451195
0.0442263
0.043277
0.0421622
0.0409082
0.0396888
0.0385208
0.0373161
0.0360743
0.0348463
0.0335466
0.0319393
0.0298548
0.0272889
0.0239367
0.0189222
0.00872458
0.0542496
0.0524194
0.0504413
0.0488798
0.047559
0.0461806
0.0447064
0.0433145
0.0420288
0.0406994
0.0393686
0.0381784
0.0368942
0.0351129
0.0326409
0.0296141
0.0260206
0.0209984
0.0101587
0.0624104
0.0590194
0.0555786
0.0534019
0.0518242
0.0501527
0.0483006
0.0466198
0.0451586
0.0436464
0.0421625
0.0410911
0.0399518
0.0380908
0.0350869
0.0313725
0.0273538
0.0221638
0.0106464
0.067083
0.0633385
0.059422
0.057036
0.0553964
0.0533498
0.0509991
0.0488839
0.0470877
0.0454661
0.0441245
0.0428863
0.0413125
0.0389705
0.0357766
0.0319629
0.0275741
0.021898
0.0107071
0.0693467
0.0655526
0.0618664
0.0590672
0.0568653
0.0546202
0.0523901
0.0504588
0.0487539
0.0471186
0.0457923
0.0441264
0.0414944
0.0380702
0.0344317
0.030843
0.0268204
0.0207866
0.0093477
0.0711729
0.0675169
0.0636429
0.0603021
0.0575808
0.055125
0.0529167
0.0510261
0.049268
0.0473183
0.0454045
0.0434962
0.0406716
0.0369672
0.0330396
0.0291358
0.024772
0.0182679
0.00823837
0.0715324
0.0679336
0.0642548
0.0608475
0.0578913
0.0552337
0.0529193
0.0508857
0.0489384
0.0468607
0.0446089
0.0423079
0.0395834
0.0363241
0.0326292
0.0286654
0.0240839
0.0175701
0.00806342
0.0708994
0.0672651
0.063768
0.0604792
0.0575106
0.0548422
0.0524787
0.0502932
0.0481577
0.0459916
0.0437138
0.041335
0.0386618
0.0355894
0.0321343
0.0282408
0.0238036
0.0178863
0.00846971
0.0696366
0.0660205
0.0626284
0.0594957
0.0566773
0.0541333
0.051808
0.0495907
0.0474035
0.0451995
0.0429485
0.0406138
0.0380265
0.0350437
0.0315943
0.0275234
0.0228471
0.0173366
0.00872978
0.0676266
0.0642787
0.0611423
0.058274
0.0556784
0.0533027
0.0510714
0.0488974
0.046727
0.0445313
0.0422977
0.0399681
0.0374087
0.0344619
0.0309664
0.026681
0.0215842
0.01584
0.00757723
0.0652346
0.0623136
0.0595495
0.0570009
0.0546553
0.052459
0.0503398
0.048232
0.0460992
0.0439205
0.0416754
0.0392899
0.0366679
0.0336581
0.0300464
0.0255017
0.0200033
0.013954
0.0060924
0.0628501
0.0603925
0.0580263
0.055798
0.0536927
0.0516638
0.0496525
0.0476104
0.0455094
0.0433278
0.0410339
0.0385581
0.0358144
0.0326719
0.0289018
0.0242164
0.0186226
0.0125086
0.00539244
0.0607205
0.0586821
0.0566763
0.0547339
0.0528408
0.0509599
0.0490465
0.0470638
0.0449858
0.0427872
0.0404319
0.0378625
0.035008
0.0317635
0.0279579
0.0233825
0.0180375
0.0121072
0.00545886
0.0589258
0.0572362
0.0555323
0.0538318
0.0521215
0.0503722
0.0485502
0.0466263
0.0445763
0.0423746
0.0399886
0.0373754
0.0344864
0.0312516
0.0275734
0.0233217
0.0184267
0.0127719
0.00612346
0.0574349
0.0560298
0.0545749
0.0530785
0.0515282
0.0499008
0.0481707
0.0463144
0.0443112
0.0421396
0.0397755
0.0371924
0.0343615
0.0312463
0.0277996
0.0239315
0.0195047
0.0141299
0.00700696
0.0561716
0.0550028
0.0537574
0.0524379
0.051033
0.0495242
0.0478914
0.0461166
0.0441834
0.0420765
0.0397814
0.0372843
0.0345719
0.0316287
0.0284318
0.0249037
0.0208635
0.0157405
0.00788108
0.0550587
0.0540922
0.0530291
0.0518685
0.0506003
0.0492097
0.0476811
0.0460007
0.0441568
0.0421397
0.0399417
0.0375568
0.034983
0.0322172
0.0292383
0.0259753
0.0222243
0.0173069
0.0086723
0.0540431
0.0532528
0.0523516
0.0513366
0.0501989
0.0489263
0.0475066
0.0459294
0.0441865
0.0422723
0.040182
0.0379211
0.0354888
0.0328807
0.0300737
0.0269925
0.0234309
0.0187203
0.00939426
0.053092
0.0524589
0.0517044
0.0508244
0.0498111
0.0486545
0.0473447
0.0458742
0.044236
0.0424295
0.0404556
0.0383167
0.0360135
0.0335391
0.0308647
0.027907
0.0244482
0.0197908
0.0100699
0.0521968
0.0517045
0.0510833
0.0503284
0.049433
0.0483884
0.047186
0.0458217
0.0442915
0.0425945
0.0407324
0.0387071
0.036518
0.0341545
0.0315812
0.0287053
0.0252907
0.0205958
0.010556
0.0513675
0.0510007
0.0505
0.0498599
0.0490742
0.0481362
0.0470394
0.0457793
0.0443533
0.0427609
0.0410031
0.0390808
0.0369906
0.0347176
0.0322199
0.0293947
0.0259855
0.0211987
0.0108581
0.0506255
0.0503697
0.0499769
0.0494416
0.048758
0.04792
0.0469221
0.0457603
0.0444322
0.0429369
0.0412744
0.0394434
0.0374373
0.0352367
0.032793
0.0299936
0.026563
0.0216569
0.011
0.0499979
0.04984
0.0495432
0.0491021
0.0485109
0.0477643
0.0468572
0.0457858
0.0445473
0.0431402
0.0415627
0.0398109
0.0378749
0.03573
0.0333213
0.0305267
0.0270543
0.0220202
0.0110672
0.0495134
0.049441
0.0492286
0.0488707
0.0483619
0.0476972
0.0468717
0.0458816
0.0447234
0.0433943
0.0418906
0.0402057
0.0383257
0.0362212
0.0338307
0.031024
0.0274968
0.0223434
0.0111834
0.0491991
0.0492012
0.0490622
0.0487769
0.0483405
0.0477478
0.0469943
0.0460756
0.0449875
0.0437256
0.0422841
0.0406534
0.0388158
0.0367371
0.0343504
0.0315185
0.0279295
0.0226687
0.0113508
0.0490801
0.049147
0.0490716
0.0488493
0.0484755
0.0479453
0.0472541
0.0463969
0.0453685
0.0441628
0.0427717
0.0411825
0.0393739
0.0373072
0.0349107
0.032042
0.0283839
0.023013
0.0115288
0.0491797
0.0493034
0.0492833
0.0491153
0.0487951
0.0483184
0.0476803
0.0468751
0.0458964
0.0447364
0.0433843
0.0418244
0.0400316
0.0379635
0.0355438
0.0326258
0.0288859
0.0233865
0.0117079
0.0495208
0.049695
0.0497231
0.0496018
0.0493276
0.0488964
0.048303
0.0475413
0.0466034
0.0454794
0.0441559
0.0426139
0.0408246
0.0387416
0.0362848
0.0333026
0.0294631
0.0238046
0.0118618
0.0501275
0.0503473
0.0504177
0.0503368
0.0501021
0.0497096
0.0491543
0.048429
0.0475245
0.0464285
0.0451248
0.0435907
0.0417935
0.0396825
0.0371731
0.0341082
0.0301452
0.0242852
0.0119424
0.0510266
0.051288
0.0513961
0.0513506
0.05115
0.050791
0.0502685
0.0495746
0.0486983
0.047625
0.0463348
0.0448011
0.0429863
0.0408345
0.0382556
0.0350854
0.0309684
0.0248634
0.0120085
0.0522495
0.0525493
0.0526911
0.0526768
0.0525063
0.0521773
0.0516846
0.0510194
0.0501691
0.0491161
0.0478369
0.0462997
0.0444608
0.0422577
0.0395924
0.0362921
0.0319877
0.0256049
0.0122429
0.0538343
0.0541691
0.0543409
0.0543542
0.0542109
0.0539099
0.053446
0.0528098
0.0519867
0.0509563
0.0496904
0.0481512
0.0462875
0.0440276
0.0412631
0.0378095
0.0332837
0.0265857
0.0126939
0.0558269
0.0561924
0.0563899
0.0564274
0.0563094
0.0560358
0.0556021
0.0549983
0.0542079
0.0532073
0.0519636
0.0504318
0.0485513
0.0462379
0.0433692
0.0397443
0.0349613
0.0278831
0.0133159
0.058283
0.0586725
0.0588902
0.0589483
0.0588538
0.0586087
0.0582088
0.0576438
0.0568959
0.0559384
0.0547335
0.0532285
0.0513512
0.0490018
0.046037
0.0422323
0.0371557
0.0296005
0.014119
0.0612684
0.0616719
0.0619021
0.061976
0.0619037
0.0616887
0.061328
0.0608112
0.0601198
0.0592247
0.0580837
0.0566367
0.0547986
0.0524497
0.0494179
0.0454443
0.0400339
0.0318906
0.0151646
0.0648598
0.0652624
0.0654947
0.0655784
0.0655264
0.0653438
0.0650288
0.0645715
0.0639535
0.0631451
0.0621013
0.0607558
0.0590112
0.0567241
0.0536824
0.0495653
0.043788
0.0349051
0.0165788
0.0691441
0.0695255
0.0697467
0.0698328
0.0697985
0.0696503
0.0693875
0.0690015
0.0684753
0.0677803
0.0668721
0.0656818
0.0641028
0.0619677
0.0590125
0.05482
0.0486692
0.0389047
0.018543
0.0742172
0.0745526
0.0747472
0.0748271
0.0748073
0.0746947
0.0744895
0.0741852
0.0737674
0.0732114
0.0724772
0.0714996
0.0701702
0.0683027
0.0655705
0.0614095
0.0548768
0.0441349
0.021182
0.0801832
0.0804458
0.080598
0.0806629
0.0806536
0.0805764
0.0804321
0.0802163
0.0799187
0.0795209
0.0789919
0.0782779
0.0772809
0.0758091
0.0734684
0.0694543
0.0623341
0.0506099
0.0246366
0.0871545
0.0873204
0.0874165
0.0874587
0.0874558
0.0874122
0.0873288
0.0872035
0.0870305
0.0867992
0.0864912
0.086072
0.085471
0.0845227
0.0827955
0.0790996
0.0703293
0.0576061
0.0287897
0.0952553
0.0953096
0.095341
0.095355
0.0953547
0.0953415
0.0953159
0.0952775
0.0952247
0.0951548
0.0950627
0.0949381
0.0947568
0.0944439
0.0937105
0.0911657
0.0769743
0.0631226
0.0327762
)
;

boundaryField
{
    leftWall
    {
        type            kqRWallFunction;
        value           nonuniform List<scalar> 
50
(
0.00130395
0.00298552
0.0043399
0.00550418
0.00652311
0.00743866
0.0082841
0.00910413
0.0101458
0.0114579
0.0126942
0.0143435
0.0167492
0.0198267
0.0201343
0.0172552
0.0145705
0.0137453
0.0156137
0.0182336
0.0197955
0.020107
0.0196595
0.018858
0.0179838
0.0170061
0.015947
0.0148193
0.0136189
0.0123474
0.0111117
0.0100235
0.00904785
0.00819837
0.00748492
0.00690142
0.00643279
0.00606583
0.00579345
0.00561208
0.00551653
0.00549669
0.005537
0.00561757
0.00571448
0.00579875
0.00585859
0.00678478
0.0203
0.0848165
)
;
    }
    rightWall
    {
        type            kqRWallFunction;
        value           nonuniform List<scalar> 
50
(
0.00115343
0.00232042
0.00315759
0.00388171
0.00452319
0.00498969
0.00549611
0.006196
0.00724909
0.00872458
0.0101587
0.0106464
0.0107071
0.0093477
0.00823837
0.00806342
0.00846971
0.00872978
0.00757723
0.0060924
0.00539244
0.00545886
0.00612346
0.00700696
0.00788108
0.0086723
0.00939426
0.0100699
0.010556
0.0108581
0.011
0.0110672
0.0111834
0.0113508
0.0115288
0.0117079
0.0118618
0.0119424
0.0120085
0.0122429
0.0126939
0.0133159
0.014119
0.0151646
0.0165788
0.018543
0.021182
0.0246366
0.0287897
0.0327762
)
;
    }
    lowerWall
    {
        type            kqRWallFunction;
        value           nonuniform List<scalar> 
62
(
0.00130395
0.00342749
0.00498482
0.0061786
0.00714037
0.00793022
0.00858263
0.00912348
0.00957434
0.00995035
0.0102582
0.0105004
0.010679
0.0107954
0.0108423
0.0107866
0.0104716
0.00994137
0.00926936
0.00841845
0.00712715
0.0049982
0.00198459
0.00198459
0.00446922
0.00606739
0.00744318
0.00879068
0.0103963
0.0130251
0.0194164
0.0251186
0.0212892
0.0212996
0.0251208
0.00160503
0.00435812
0.00629686
0.00816935
0.0101698
0.012691
0.0161172
0.0222419
0.00160503
0.00480104
0.00649821
0.00727875
0.00762141
0.00761544
0.00722084
0.00638799
0.00569836
0.005744
0.00589567
0.00577121
0.00560705
0.00578007
0.00596259
0.00555026
0.00431077
0.00269659
0.00115343
)
;
    }
    atmosphere
    {
        type            inletOutlet;
        inletValue      uniform 0.1;
        value           nonuniform List<scalar> 
46
(
0.1
0.1
0.0335399
0.023123
0.0243893
0.0266827
0.028989
0.0312676
0.0335608
0.0359207
0.0384102
0.0411099
0.0441297
0.0476249
0.0518254
0.0570905
0.0640272
0.073773
0.1
0.1
0.1
0.1
0.1
0.1
0.1
0.1
0.1
0.1
0.1
0.1
0.1
0.1
0.1
0.1
0.1
0.1
0.1
0.1
0.1
0.1
0.1
0.1
0.1
0.0769743
0.0631226
0.0327762
)
;
    }
    defaultFaces
    {
        type            empty;
    }
}


// ************************************************************************* //
