/*--------------------------------*- C++ -*----------------------------------*\
  =========                 |
  \\      /  F ield         | OpenFOAM: The Open Source CFD Toolbox
   \\    /   O peration     | Website:  https://openfoam.org
    \\  /    A nd           | Version:  9
     \\/     M anipulation  |
\*---------------------------------------------------------------------------*/
FoamFile
{
    format      ascii;
    class       volVectorField;
    location    "2.75";
    object      U;
}
// * * * * * * * * * * * * * * * * * * * * * * * * * * * * * * * * * * * * * //

dimensions      [0 1 -1 0 0 0 0];

internalField   nonuniform List<vector> 
2268
(
(0.00641095 -0.00311796 0)
(0.0159757 -0.00239655 0)
(0.0215775 -0.0013919 0)
(0.0260258 -0.000874384 0)
(0.0292793 -0.00062844 0)
(0.0318775 -0.000485154 0)
(0.0339457 -0.000374781 0)
(0.035541 -0.000270852 0)
(0.0367105 -0.000178832 0)
(0.0374952 -0.000104938 0)
(0.0379524 -4.65648e-05 0)
(0.0381267 -1.23964e-05 0)
(0.0381073 -2.51638e-05 0)
(0.0381241 -0.000163493 0)
(0.0384734 -0.000485056 0)
(0.0397544 -0.00102672 0)
(0.0409815 -0.000227443 0)
(0.0377196 0.00221452 0)
(0.0295009 0.00276654 0)
(0.0231495 0.000769508 0)
(0.022146 -0.00101907 0)
(0.0221451 0.00143563 0)
(0.0137417 0.00517932 0)
(0.00582632 -0.00763576 0)
(0.0135566 -0.00553964 0)
(0.0188271 -0.00389116 0)
(0.023773 -0.00289346 0)
(0.0278238 -0.0022714 0)
(0.0311923 -0.00182261 0)
(0.0339416 -0.00144291 0)
(0.0361227 -0.00109908 0)
(0.0377807 -0.000787664 0)
(0.0389527 -0.000510069 0)
(0.0396714 -0.000262188 0)
(0.039955 -5.51148e-05 0)
(0.0398445 5.78913e-05 0)
(0.0394502 -1.22803e-05 0)
(0.0388544 -0.000314065 0)
(0.0380312 -0.000654232 0)
(0.0366145 0.000775633 0)
(0.033769 0.00411536 0)
(0.0291934 0.00492721 0)
(0.0244612 0.00283997 0)
(0.0205024 0.000611797 0)
(0.0172272 0.00390043 0)
(0.0124428 0.0118081 0)
(0.00493907 -0.0116517 0)
(0.0120613 -0.00835506 0)
(0.0173993 -0.00631211 0)
(0.0226971 -0.00502853 0)
(0.0272626 -0.00410304 0)
(0.0311413 -0.00335162 0)
(0.03434 -0.00268416 0)
(0.0368926 -0.00207098 0)
(0.0388369 -0.00150605 0)
(0.0402022 -0.000986851 0)
(0.0410072 -0.000505337 0)
(0.0412522 -7.32604e-05 0)
(0.0409488 0.000242981 0)
(0.0401404 0.000363989 0)
(0.0388031 0.000281083 0)
(0.0367109 0.000301009 0)
(0.0339565 0.00201397 0)
(0.0310416 0.0054567 0)
(0.0278093 0.00653177 0)
(0.0240352 0.00478131 0)
(0.0192709 0.00278989 0)
(0.0141529 0.00628001 0)
(0.00889623 0.0172981 0)
(0.00407841 -0.0153587 0)
(0.0109669 -0.011302 0)
(0.0166248 -0.00895707 0)
(0.0222973 -0.00741991 0)
(0.027305 -0.00618775 0)
(0.0316042 -0.00510656 0)
(0.0351649 -0.00411268 0)
(0.0380054 -0.00318687 0)
(0.0401541 -0.00232246 0)
(0.041632 -0.00151227 0)
(0.0424477 -0.000741674 0)
(0.042586 -1.87457e-05 0)
(0.0420378 0.000582945 0)
(0.040814 0.000990893 0)
(0.0388642 0.00124257 0)
(0.035965 0.00169567 0)
(0.0323853 0.00354435 0)
(0.0292167 0.00677023 0)
(0.0264384 0.00802381 0)
(0.0229575 0.00671599 0)
(0.0177276 0.00549134 0)
(0.0116767 0.0091009 0)
(0.00596549 0.0219561 0)
(0.00342638 -0.0186321 0)
(0.010276 -0.0143308 0)
(0.0163684 -0.0117969 0)
(0.0224376 -0.0100276 0)
(0.0278522 -0.00848233 0)
(0.0325172 -0.007047 0)
(0.0363825 -0.00569255 0)
(0.0394546 -0.00441475 0)
(0.0417521 -0.00320762 0)
(0.0432875 -0.00205929 0)
(0.044061 -0.000947157 0)
(0.0440445 0.000126902 0)
(0.0432158 0.00108148 0)
(0.0415813 0.00184929 0)
(0.0391114 0.00250063 0)
(0.0356762 0.0033811 0)
(0.0315992 0.00531196 0)
(0.0280244 0.00816323 0)
(0.025066 0.00948597 0)
(0.0213787 0.00879077 0)
(0.015818 0.0084279 0)
(0.00940401 0.0121247 0)
(0.00337184 0.0254328 0)
(0.00303931 -0.0217018 0)
(0.0100307 -0.0174849 0)
(0.0165985 -0.0148254 0)
(0.0230631 -0.0128213 0)
(0.0288489 -0.010947 0)
(0.0338303 -0.00913226 0)
(0.0379488 -0.00738588 0)
(0.041203 -0.00572034 0)
(0.0436018 -0.00413041 0)
(0.0451483 -0.00260006 0)
(0.0458365 -0.00109817 0)
(0.0456273 0.00038096 0)
(0.0444925 0.00174265 0)
(0.0424536 0.00291702 0)
(0.0395232 0.00398826 0)
(0.0356745 0.00525677 0)
(0.0312542 0.00725637 0)
(0.0272284 0.00977038 0)
(0.02373 0.0111133 0)
(0.0196135 0.0110306 0)
(0.0139208 0.0114417 0)
(0.00749112 0.0152985 0)
(0.000818077 0.0278345 0)
(0.00294297 -0.0247413 0)
(0.0102379 -0.0208112 0)
(0.0172856 -0.0180434 0)
(0.0241183 -0.0157853 0)
(0.030229 -0.0135582 0)
(0.0354741 -0.0113364 0)
(0.0397941 -0.00916743 0)
(0.0431832 -0.00707998 0)
(0.0456394 -0.00506834 0)
(0.047156 -0.00311325 0)
(0.0477227 -0.00117576 0)
(0.0472913 0.000758627 0)
(0.0458332 0.00257362 0)
(0.0433969 0.00418465 0)
(0.0400436 0.0056762 0)
(0.0358273 0.00729596 0)
(0.0310889 0.0093681 0)
(0.0265991 0.0116469 0)
(0.0225027 0.0130022 0)
(0.0179759 0.0133903 0)
(0.0123394 0.0144274 0)
(0.00620236 0.0185549 0)
(-0.00128239 0.0297333 0)
(0.00318707 -0.0275872 0)
(0.0108957 -0.0243616 0)
(0.0183639 -0.021478 0)
(0.0255099 -0.0189328 0)
(0.0318875 -0.0163225 0)
(0.037338 -0.0136622 0)
(0.0418062 -0.0110375 0)
(0.0452841 -0.00849009 0)
(0.0477578 -0.0060111 0)
(0.0492086 -0.00358173 0)
(0.0496252 -0.00115787 0)
(0.0489529 0.00128852 0)
(0.0471651 0.00360564 0)
(0.0443439 0.0056814 0)
(0.0405969 0.00759346 0)
(0.0360342 0.00954404 0)
(0.0309775 0.0117074 0)
(0.0260431 0.0138334 0)
(0.0214075 0.0151761 0)
(0.0165863 0.0158347 0)
(0.0112479 0.0172061 0)
(0.00582715 0.0212662 0)
(0.000267523 0.0305974 0)
(-0.00158621 -0.000740159 0)
(0.0181666 -0.00598758 0)
(0.03019 -0.00411016 0)
(0.0351004 -0.00116065 0)
(0.0334744 0.000483684 0)
(0.0293741 0.00089579 0)
(0.0248175 0.0019623 0)
(0.0118278 0.00634421 0)
(-0.0174251 0.00873791 0)
(-0.0427248 0.00471272 0)
(-0.0480678 -3.27686e-06 0)
(-0.0490069 0.00184364 0)
(-0.0588422 0.00334522 0)
(-0.0620738 -0.00210038 0)
(-0.043157 -0.00787263 0)
(-0.0136333 -0.00840003 0)
(0.00915581 -0.00382949 0)
(0.0115439 0.0017829 0)
(0.00272123 0.00171837 0)
(0.0119048 -0.00642834 0)
(0.020639 -0.00842975 0)
(0.0224256 -0.00435214 0)
(0.0203159 9.76203e-06 0)
(0.0156504 0.00214624 0)
(0.0109635 0.00280621 0)
(0.00525377 0.00597578 0)
(-0.00686347 0.0137003 0)
(-0.027593 0.0165786 0)
(-0.0441639 0.00945536 0)
(-0.050444 0.00195802 0)
(-0.0531582 0.00324272 0)
(-0.0560943 0.00375344 0)
(-0.0538022 -0.0047227 0)
(-0.0405952 -0.0153786 0)
(-0.0188857 -0.0169457 0)
(-0.000484756 -0.00777339 0)
(0.00564426 0.00165135 0)
(0.00430754 0.00408312 0)
(0.0145834 -0.0140343 0)
(0.0169524 -0.00926724 0)
(0.0133148 -0.00297905 0)
(0.00791999 0.00219449 0)
(0.00166494 0.00430632 0)
(-0.00345753 0.00496868 0)
(-0.0094029 0.00977357 0)
(-0.0199995 0.0194814 0)
(-0.0337158 0.0221396 0)
(-0.0445018 0.0134185 0)
(-0.0509669 0.00426109 0)
(-0.0530176 0.00369862 0)
(-0.0520611 0.00290395 0)
(-0.0483738 -0.00757905 0)
(-0.0395395 -0.0212285 0)
(-0.0243401 -0.0245053 0)
(-0.00764015 -0.0124878 0)
(0.00188659 -1.65772e-05 0)
(0.00333054 0.00544793 0)
(0.0106151 -0.0201189 0)
(0.00928348 -0.00837087 0)
(0.00289506 -0.000520822 0)
(-0.00404972 0.00498952 0)
(-0.0111341 0.00677352 0)
(-0.0163547 0.00717148 0)
(-0.0216389 0.0131863 0)
(-0.0298733 0.0238714 0)
(-0.0386047 0.0259357 0)
(-0.0454201 0.0165192 0)
(-0.0506821 0.00616681 0)
(-0.0515572 0.00336582 0)
(-0.048331 0.00148031 0)
(-0.0442229 -0.00981736 0)
(-0.0396054 -0.0248702 0)
(-0.0308148 -0.0306723 0)
(-0.0149889 -0.0187153 0)
(8.89086e-05 -0.00289801 0)
(0.00460796 0.00614426 0)
(0.0031131 -0.0227693 0)
(-0.000680423 -0.00616988 0)
(-0.0082991 0.00253196 0)
(-0.0159256 0.00815945 0)
(-0.0234658 0.00941829 0)
(-0.02858 0.00914199 0)
(-0.0325847 0.0158128 0)
(-0.037943 0.0268253 0)
(-0.0426518 0.0281951 0)
(-0.0462038 0.0185827 0)
(-0.0493981 0.00738192 0)
(-0.0487908 0.00244125 0)
(-0.0444351 -0.00034772 0)
(-0.0408131 -0.0112374 0)
(-0.0397022 -0.0264198 0)
(-0.036673 -0.0348467 0)
(-0.0241463 -0.0264924 0)
(-0.00408047 -0.00849916 0)
(0.00988973 0.00770906 0)
(-0.00551981 -0.0215041 0)
(-0.0114666 -0.00323828 0)
(-0.0196001 0.00578564 0)
(-0.0275272 0.011521 0)
(-0.0353584 0.0121796 0)
(-0.0404713 0.0108001 0)
(-0.0431107 0.0174594 0)
(-0.0451209 0.0282769 0)
(-0.0457049 0.0290203 0)
(-0.0461317 0.0195543 0)
(-0.0469351 0.00771126 0)
(-0.0448193 0.00106734 0)
(-0.0402241 -0.00215505 0)
(-0.0373916 -0.0118591 0)
(-0.038374 -0.026384 0)
(-0.0391186 -0.0367953 0)
(-0.0324436 -0.0331803 0)
(-0.0145132 -0.0170491 0)
(0.00800183 0.00895869 0)
(-0.0140241 -0.016689 0)
(-0.0221652 0.000278923 0)
(-0.0305009 0.00907623 0)
(-0.0385255 0.0149823 0)
(-0.0465235 0.0150747 0)
(-0.0519995 0.012352 0)
(-0.0536457 0.0180384 0)
(-0.0519508 0.0280111 0)
(-0.0482001 0.0283163 0)
(-0.0452042 0.0193549 0)
(-0.0432119 0.00699858 0)
(-0.0398967 -0.000511459 0)
(-0.0356474 -0.00375548 0)
(-0.0332999 -0.0120016 0)
(-0.0349839 -0.0254816 0)
(-0.0374893 -0.0370549 0)
(-0.0359892 -0.0369346 0)
(-0.0259824 -0.0250759 0)
(-0.00801393 0.00576243 0)
(-0.0221082 -0.00530216 0)
(-0.0317138 0.00482633 0)
(-0.0405833 0.0125311 0)
(-0.0486233 0.0184318 0)
(-0.0563801 0.0179388 0)
(-0.0619783 0.0138794 0)
(-0.0629577 0.0175399 0)
(-0.0582319 0.0258296 0)
(-0.0506869 0.0258061 0)
(-0.0438963 0.0175118 0)
(-0.0389197 0.00538491 0)
(-0.034889 -0.00206965 0)
(-0.0308736 -0.00524851 0)
(-0.0282736 -0.0121485 0)
(-0.0293403 -0.0244295 0)
(-0.0321107 -0.0363518 0)
(-0.0336917 -0.0379588 0)
(-0.0313726 -0.0302945 0)
(-0.0223167 -0.00474377 0)
(0.00392317 -0.0328708 0)
(0.0124124 -0.0305877 0)
(0.0204156 -0.0273437 0)
(0.0279537 -0.0242361 0)
(0.0346463 -0.0209532 0)
(0.0403198 -0.0175459 0)
(0.044937 -0.0141462 0)
(0.0484882 -0.010803 0)
(0.0509353 -0.00749784 0)
(0.0522384 -0.00422723 0)
(0.0523926 -0.000945705 0)
(0.0513371 0.00241442 0)
(0.0490496 0.00560702 0)
(0.0456673 0.00846392 0)
(0.041358 0.0110454 0)
(0.0362913 0.0134996 0)
(0.0307558 0.0158375 0)
(0.0252011 0.0178086 0)
(0.0198739 0.0190569 0)
(0.0147752 0.0197687 0)
(0.0101553 0.0209384 0)
(0.0068017 0.0236323 0)
(0.0108898 0.0264974 0)
(0.00500505 -0.0435114 0)
(0.0139222 -0.0402208 0)
(0.0228046 -0.0357885 0)
(0.0307025 -0.031595 0)
(0.0375151 -0.0272304 0)
(0.0432077 -0.0227367 0)
(0.0478333 -0.0182328 0)
(0.0513549 -0.0137289 0)
(0.0536631 -0.00920653 0)
(0.0546913 -0.00474797 0)
(0.0545045 -0.000296899 0)
(0.0530346 0.00418427 0)
(0.050256 0.00838329 0)
(0.0463644 0.0120798 0)
(0.041508 0.0153279 0)
(0.0359382 0.01824 0)
(0.0299744 0.020748 0)
(0.023955 0.0225877 0)
(0.018118 0.023608 0)
(0.0126707 0.0238788 0)
(0.00778414 0.0239375 0)
(0.0036673 0.0243068 0)
(0.0016552 0.0245729 0)
(0.00830491 -0.0427935 0)
(0.0151169 -0.0441724 0)
(0.0239184 -0.0404802 0)
(0.0313539 -0.0361099 0)
(0.0375354 -0.0311387 0)
(0.042847 -0.025904 0)
(0.0474831 -0.0207334 0)
(0.0510225 -0.015624 0)
(0.0532648 -0.0103838 0)
(0.0542777 -0.00505346 0)
(0.0540394 0.000283584 0)
(0.0526211 0.00576765 0)
(0.0502493 0.0109711 0)
(0.0467847 0.0154109 0)
(0.0417369 0.0192487 0)
(0.0358316 0.0226478 0)
(0.0300319 0.0255108 0)
(0.0245865 0.0274037 0)
(0.0193967 0.0282394 0)
(0.0142265 0.0276176 0)
(0.00743893 0.0265715 0)
(-3.21255e-05 0.0272583 0)
(-0.00535764 0.0304752 0)
(0.00600058 -0.0657894 0)
(0.0124784 -0.0557412 0)
(0.024067 -0.0484651 0)
(0.0298281 -0.042624 0)
(0.0333291 -0.0358826 0)
(0.0377592 -0.0295426 0)
(0.043875 -0.0232579 0)
(0.0476496 -0.01705 0)
(0.0488182 -0.011159 0)
(0.0494719 -0.00476857 0)
(0.0489155 0.00140828 0)
(0.0471762 0.00764307 0)
(0.046815 0.0132257 0)
(0.0466381 0.0186909 0)
(0.0410902 0.0238594 0)
(0.0346024 0.0268898 0)
(0.0314739 0.0295558 0)
(0.0301976 0.0314279 0)
(0.0299669 0.0320387 0)
(0.0301094 0.0317783 0)
(0.0134342 0.0321711 0)
(-0.011011 0.032361 0)
(-0.0185314 0.0349038 0)
(-0.00450943 -0.066383 0)
(0.0176155 -0.0741206 0)
(0.0355262 -0.0542603 0)
(0.0207408 -0.0469651 0)
(-0.001597 -0.0359401 0)
(-0.00900006 -0.0410911 0)
(0.0144143 -0.0376002 0)
(0.0299298 -0.0230651 0)
(0.034289 -0.0135985 0)
(0.0395105 -0.00905032 0)
(0.0476266 0.00076775 0)
(0.056438 0.00818067 0)
(0.0654941 0.0111859 0)
(0.0747004 0.0223814 0)
(0.0840438 0.0415526 0)
(0.0811222 0.042055 0)
(0.0792125 0.0387824 0)
(0.0820719 0.0360383 0)
(0.0862387 0.0361024 0)
(0.0857581 0.0431551 0)
(0.0603285 0.102593 0)
(-0.0197464 0.0786961 0)
(-0.0105945 0.0253536 0)
(-0.0381737 -0.0605116 0)
(-0.00877769 -0.13688 0)
(0.0374722 -0.0539835 0)
(0.0106361 -0.00349865 0)
(-0.0305876 -0.000304907 0)
(-0.0103582 -0.0731668 0)
(0.0216603 -0.0687854 0)
(0.0444877 -0.0403169 0)
(0.0549252 -0.0175524 0)
(0.0560738 -0.0146076 0)
(0.0555349 -0.00818886 0)
(0.0567551 -0.00474949 0)
(0.0592196 -0.00225252 0)
(0.0614601 0.00867682 0)
(0.0669392 0.0218361 0)
(0.0768335 0.0327959 0)
(0.0845698 0.031419 0)
(0.0889803 0.0263804 0)
(0.0876788 0.0319179 0)
(0.0688634 0.0475863 0)
(0.0441831 0.149514 0)
(0.0127167 0.0898573 0)
(0.0111913 0.00411997 0)
(-0.0312798 -0.0224652 0)
(-0.0286796 -0.149811 0)
(-0.00396623 -0.0738143 0)
(0.0273673 0.00321823 0)
(0.0439846 0.0111798 0)
(0.0512703 -0.0873401 0)
(0.0583073 -0.0842515 0)
(0.0618168 -0.0485293 0)
(0.0642564 -0.0232117 0)
(0.0650157 -0.015457 0)
(0.0599157 -0.00354997 0)
(0.0494703 -0.00136423 0)
(0.040056 0.00239864 0)
(0.030469 0.0161021 0)
(0.0241546 0.015914 0)
(0.0289002 0.0240136 0)
(0.0433422 0.0213328 0)
(0.0601808 0.0176861 0)
(0.0710406 0.0425992 0)
(0.0528696 0.0747124 0)
(0.0598748 0.167302 0)
(0.0636196 0.10835 0)
(0.042692 0.0175174 0)
(0.000629089 -0.00494071 0)
(0.00258897 -0.150655 0)
(0.00556162 -0.0998964 0)
(0.0407671 -0.0398988 0)
(0.0777131 -0.0246215 0)
(0.088138 -0.0875659 0)
(0.0753109 -0.085557 0)
(0.0631344 -0.0444084 0)
(0.0514804 -0.0205056 0)
(0.0436445 -0.0118851 0)
(0.0346563 0.0118415 0)
(0.0180561 0.0147495 0)
(-0.0107246 0.0165293 0)
(-0.0324145 0.0245996 0)
(-0.0344277 0.0138307 0)
(-0.0305557 0.0123478 0)
(-0.0212315 0.0031661 0)
(-0.00820971 0.00185006 0)
(0.00896435 0.0323415 0)
(0.0294554 0.070805 0)
(0.0619582 0.130686 0)
(0.0836023 0.117638 0)
(0.0580622 0.057105 0)
(0.0434417 -0.0208123 0)
(0.052172 -0.134518 0)
(0.0256937 -0.111395 0)
(0.0432981 -0.0644553 0)
(0.0701912 -0.0498351 0)
(0.0829947 -0.0778795 0)
(0.0441679 -0.0679658 0)
(0.0137705 -0.0211418 0)
(-7.39678e-05 -0.00689308 0)
(-0.0171926 0.00109938 0)
(-0.0347844 0.0264628 0)
(-0.0474021 0.0410302 0)
(-0.0573289 0.0451298 0)
(-0.0613081 0.0364324 0)
(-0.061146 0.017987 0)
(-0.0608095 0.00869386 0)
(-0.0557429 -0.00630361 0)
(-0.0507138 -0.00945871 0)
(-0.0417081 0.0130919 0)
(-0.0260316 0.046249 0)
(-0.000970971 0.0933897 0)
(0.0259938 0.116735 0)
(0.0222152 0.0893494 0)
(0.0595268 -0.109538 0)
(0.0703403 -0.128806 0)
(0.0163713 -0.10686 0)
(0.0115513 -0.0758111 0)
(0.0182137 -0.0666483 0)
(-0.00199515 -0.0546 0)
(-0.0316011 -0.0254275 0)
(-0.0515389 -4.98321e-05 0)
(-0.0650561 0.0118683 0)
(-0.0786624 0.0219203 0)
(-0.0884484 0.0363918 0)
(-0.0917286 0.0441992 0)
(-0.091058 0.0431876 0)
(-0.0878101 0.0329582 0)
(-0.0843924 0.017999 0)
(-0.080658 0.00629359 0)
(-0.0770163 -0.00770028 0)
(-0.0791627 -0.0114433 0)
(-0.0803052 0.00470178 0)
(-0.0745163 0.0319251 0)
(-0.0593165 0.0701191 0)
(-0.037186 0.0975837 0)
(-0.0225509 0.0881243 0)
(0.00270514 -0.163338 0)
(-0.00275379 -0.0955959 0)
(-0.0206317 -0.0781388 0)
(-0.0351239 -0.0674649 0)
(-0.0488227 -0.0522789 0)
(-0.0680798 -0.029367 0)
(-0.0867352 -0.0069312 0)
(-0.0995724 0.0109726 0)
(-0.108927 0.0220271 0)
(-0.117024 0.0307412 0)
(-0.121148 0.0389411 0)
(-0.120094 0.0418011 0)
(-0.115912 0.0376823 0)
(-0.110866 0.0272571 0)
(-0.106977 0.0138962 0)
(-0.10447 0.00194143 0)
(-0.104149 -0.00742885 0)
(-0.106848 -0.00799733 0)
(-0.1086 0.00302737 0)
(-0.10614 0.0235339 0)
(-0.0956793 0.0522997 0)
(-0.0762052 0.0745308 0)
(-0.0570952 0.0745454 0)
(-0.0158929 -0.127037 0)
(-0.0334842 -0.0834752 0)
(-0.0514961 -0.0614801 0)
(-0.0700039 -0.0467712 0)
(-0.0883094 -0.030797 0)
(-0.105652 -0.012257 0)
(-0.119199 0.00548368 0)
(-0.1281 0.0194202 0)
(-0.134107 0.0284829 0)
(-0.13802 0.0346561 0)
(-0.138634 0.0385099 0)
(-0.135696 0.0379959 0)
(-0.130734 0.0323954 0)
(-0.125654 0.0225969 0)
(-0.122018 0.011092 0)
(-0.120305 0.000994904 0)
(-0.120796 -0.00555384 0)
(-0.123016 -0.00512395 0)
(-0.124354 0.00365941 0)
(-0.121926 0.0193344 0)
(-0.11274 0.0390933 0)
(-0.0964837 0.0545387 0)
(-0.0788385 0.0579748 0)
(-0.0251841 -0.0981016 0)
(-0.0478538 -0.0622328 0)
(-0.0694877 -0.0419779 0)
(-0.089573 -0.0272821 0)
(-0.107822 -0.013095 0)
(-0.122965 0.00162183 0)
(-0.133813 0.0151494 0)
(-0.14057 0.0254538 0)
(-0.144395 0.032021 0)
(-0.145847 0.0356123 0)
(-0.144676 0.0364365 0)
(-0.14116 0.0337448 0)
(-0.136475 0.0274625 0)
(-0.132037 0.0185072 0)
(-0.128965 0.00876534 0)
(-0.12766 0.000514757 0)
(-0.128045 -0.004336 0)
(-0.129289 -0.00381167 0)
(-0.129485 0.00275769 0)
(-0.126471 0.0142162 0)
(-0.118344 0.0278145 0)
(-0.105161 0.0384671 0)
(-0.0902016 0.0424662 0)
(-0.0276591 -0.0614026 0)
(-0.0533141 -0.0358573 0)
(-0.0764295 -0.020335 0)
(-0.0965128 -0.00836266 0)
(-0.113453 0.00276391 0)
(-0.126655 0.01357 0)
(-0.135761 0.0230036 0)
(-0.14118 0.0298891 0)
(-0.143734 0.0338373 0)
(-0.143974 0.0350925 0)
(-0.142142 0.0337663 0)
(-0.138748 0.0297102 0)
(-0.13472 0.023186 0)
(-0.131074 0.0150666 0)
(-0.128563 0.0067894 0)
(-0.127429 3.50387e-06 0)
(-0.127426 -0.0038544 0)
(-0.127727 -0.00362941 0)
(-0.126932 0.000920776 0)
(-0.123547 0.0088372 0)
(-0.116462 0.0180566 0)
(-0.105851 0.0255375 0)
(-0.0936046 0.0291684 0)
(-0.0267881 -0.0235269 0)
(-0.0525599 -0.00819343 0)
(-0.0754383 0.00154828 0)
(-0.0945502 0.00955772 0)
(-0.109907 0.0170084 0)
(-0.121433 0.0239364 0)
(-0.129217 0.0296238 0)
(-0.133705 0.0333539 0)
(-0.13555 0.0348135 0)
(-0.135308 0.0340476 0)
(-0.133426 0.0311519 0)
(-0.13047 0.0262348 0)
(-0.127175 0.0196882 0)
(-0.124258 0.0122822 0)
(-0.12221 0.00510506 0)
(-0.121137 -0.000661735 0)
(-0.12075 -0.00400952 0)
(-0.120352 -0.00426318 0)
(-0.118941 -0.00139734 0)
(-0.115521 0.00383054 0)
(-0.109459 0.00998053 0)
(-0.10094 0.0152052 0)
(-0.0910825 0.0182034 0)
(-0.0243043 0.0119132 0)
(-0.0482608 0.018334 0)
(-0.0695884 0.0223004 0)
(-0.0870486 0.0259918 0)
(-0.100688 0.029628 0)
(-0.110685 0.0329173 0)
(-0.117343 0.0352673 0)
(-0.121112 0.0361878 0)
(-0.122549 0.0354243 0)
(-0.122188 0.0329562 0)
(-0.120522 0.0288794 0)
(-0.118089 0.023393 0)
(-0.115463 0.0169025 0)
(-0.11315 0.0100482 0)
(-0.111463 0.00364406 0)
(-0.110426 -0.00147252 0)
(-0.109767 -0.00461687 0)
(-0.108944 -0.00539642 0)
(-0.107256 -0.0038749 0)
(-0.10405 -0.000623786 0)
(-0.0989622 0.00337335 0)
(-0.0921438 0.00696197 0)
(-0.0842753 0.00931194 0)
(-0.0209358 0.0433823 0)
(-0.0420626 0.0423324 0)
(-0.0610889 0.0410596 0)
(-0.0764562 0.0406035 0)
(-0.0882772 0.0406216 0)
(-0.0968143 0.0406241 0)
(-0.102441 0.0400612 0)
(-0.105592 0.0385503 0)
(-0.106754 0.0358773 0)
(-0.106413 0.0320027 0)
(-0.105035 0.0270164 0)
(-0.103087 0.0211289 0)
(-0.101017 0.0147027 0)
(-0.0991813 0.00824695 0)
(-0.0977777 0.0023618 0)
(-0.0967896 -0.00236559 0)
(-0.0959877 -0.00547874 0)
(-0.0949689 -0.00675146 0)
(-0.0932474 -0.00627374 0)
(-0.0903972 -0.00446472 0)
(-0.0862022 -0.00199157 0)
(-0.0807727 0.000402366 0)
(-0.0745286 0.00216968 0)
(-0.0173896 0.07044 0)
(-0.0351355 0.0630999 0)
(-0.0513992 0.0573182 0)
(-0.0644153 0.0531736 0)
(-0.0743524 0.0499739 0)
(-0.0814624 0.0471096 0)
(-0.086109 0.0440644 0)
(-0.0886879 0.0405039 0)
(-0.0896183 0.036238 0)
(-0.0893218 0.0312203 0)
(-0.0882069 0.0255259 0)
(-0.0866611 0.0193409 0)
(-0.0850276 0.0129634 0)
(-0.0835622 0.00678379 0)
(-0.0823888 0.00123737 0)
(-0.0814752 -0.00326853 0)
(-0.0806395 -0.00643335 0)
(-0.0795884 -0.00812913 0)
(-0.077987 -0.00844527 0)
(-0.0755543 -0.007685 0)
(-0.0721557 -0.00630314 0)
(-0.0678645 -0.00479111 0)
(-0.0629422 -0.00352185 0)
(-0.013891 0.0925965 0)
(-0.0280499 0.0802813 0)
(-0.0413604 0.070814 0)
(-0.0519278 0.0635893 0)
(-0.0599737 0.0576772 0)
(-0.0657007 0.0524109 0)
(-0.0694147 0.0473105 0)
(-0.0714484 0.0420674 0)
(-0.0721519 0.036507 0)
(-0.0718789 0.0305775 0)
(-0.0709695 0.0243338 0)
(-0.0697357 0.0179242 0)
(-0.0684389 0.0115794 0)
(-0.0672623 0.00558893 0)
(-0.0662849 0.000262571 0)
(-0.0654713 -0.00412082 0)
(-0.064682 -0.00736628 0)
(-0.0637054 -0.00940448 0)
(-0.0623095 -0.0103148 0)
(-0.0603051 -0.0103166 0)
(-0.0576031 -0.00972397 0)
(-0.0542485 -0.00887063 0)
(-0.0504037 -0.00801834 0)
(-0.0104394 0.109819 0)
(-0.0210133 0.0938094 0)
(-0.0313857 0.0814886 0)
(-0.0395516 0.0718465 0)
(-0.0457821 0.0637726 0)
(-0.0502063 0.0565822 0)
(-0.0530469 0.049835 0)
(-0.0545639 0.0432498 0)
(-0.0550393 0.036666 0)
(-0.0547599 0.030027 0)
(-0.0539996 0.0233657 0)
(-0.0530029 0.0167908 0)
(-0.0519672 0.0104714 0)
(-0.0510236 0.00461482 0)
(-0.0502222 -0.000563855 0)
(-0.0495301 -0.00487758 0)
(-0.0488415 -0.00820296 0)
(-0.0480034 -0.0105063 0)
(-0.0468531 -0.0118557 0)
(-0.0452596 -0.0124113 0)
(-0.0431595 -0.0123941 0)
(-0.0405773 -0.0120376 0)
(-0.0376129 -0.0115309 0)
(-0.00680742 0.122162 0)
(-0.0139897 0.103822 0)
(-0.0216438 0.0894671 0)
(-0.0275875 0.0780593 0)
(-0.0321579 0.0683706 0)
(-0.0353999 0.059708 0)
(-0.0374454 0.0516886 0)
(-0.0384857 0.0440681 0)
(-0.0387397 0.0367016 0)
(-0.0384328 0.0295292 0)
(-0.0377791 0.0225636 0)
(-0.0369659 0.0158768 0)
(-0.0361399 0.00958559 0)
(-0.0353937 0.00383206 0)
(-0.0347584 -0.0012394 0)
(-0.0342042 -0.0055076 0)
(-0.0336506 -0.00889793 0)
(-0.0329857 -0.0113991 0)
(-0.0320931 -0.0130691 0)
(-0.0308786 -0.0140274 0)
(-0.029294 -0.0144334 0)
(-0.0273499 -0.0144552 0)
(-0.0251059 -0.0142335 0)
(-0.0026199 0.129572 0)
(-0.00684626 0.110606 0)
(-0.0122268 0.0950476 0)
(-0.0162407 0.0824549 0)
(-0.0193655 0.0716352 0)
(-0.0215665 0.0618991 0)
(-0.0229062 0.0529375 0)
(-0.0235179 0.0445509 0)
(-0.0235662 0.0366122 0)
(-0.0232224 0.0290597 0)
(-0.0226485 0.0218888 0)
(-0.0219842 0.0151403 0)
(-0.0213353 0.00888821 0)
(-0.0207652 0.00322405 0)
(-0.020291 -0.00176035 0)
(-0.0198855 -0.00599077 0)
(-0.0194861 -0.00942631 0)
(-0.0190093 -0.01207 0)
(-0.018369 -0.0139721 0)
(-0.0174954 -0.0152239 0)
(-0.0163495 -0.0159437 0)
(-0.0149324 -0.0162563 0)
(-0.0132782 -0.0162699 0)
(0.00183664 0.131118 0)
(0.000148871 0.114759 0)
(-0.00335068 0.0986699 0)
(-0.00574101 0.0853306 0)
(-0.00764201 0.0737508 0)
(-0.00893619 0.0632732 0)
(-0.00965279 0.0536527 0)
(-0.00988267 0.0447333 0)
(-0.00974375 0.0364051 0)
(-0.00936047 0.0286063 0)
(-0.00885021 0.0213178 0)
(-0.0083122 0.0145552 0)
(-0.007819 0.00835853 0)
(-0.00741081 0.00278096 0)
(-0.00709342 -0.00212435 0)
(-0.0068409 -0.00631661 0)
(-0.00660276 -0.00977812 0)
(-0.00631456 -0.0125212 0)
(-0.00591092 -0.0145901 0)
(-0.00533775 -0.0160569 0)
(-0.00456215 -0.0170119 0)
(-0.00357945 -0.0175508 0)
(-0.00240762 -0.0177592 0)
(0.00535734 0.126979 0)
(0.00615146 0.116656 0)
(0.00457636 0.100632 0)
(0.00358173 0.0869234 0)
(0.0027619 0.0748728 0)
(0.00227835 0.0639282 0)
(0.0021243 0.0538936 0)
(0.00224239 0.0446454 0)
(0.00255594 0.0360887 0)
(0.002982 0.0281618 0)
(0.00344234 0.0208346 0)
(0.00387242 0.0141029 0)
(0.00422771 0.00798118 0)
(0.00448755 0.00249387 0)
(0.00465593 -0.00233365 0)
(0.00475899 -0.006484 0)
(0.00483941 -0.00995514 0)
(0.0049488 -0.0127652 0)
(0.0051387 -0.0149538 0)
(0.00545243 -0.0165794 0)
(0.00591852 -0.0177131 0)
(0.00654503 -0.0184305 0)
(0.00732413 -0.0188011 0)
(0.00719519 0.119215 0)
(0.0104025 0.115877 0)
(0.0109596 0.100921 0)
(0.0113456 0.0873034 0)
(0.0115832 0.0750762 0)
(0.0118764 0.0639192 0)
(0.0122582 0.0536942 0)
(0.0127115 0.0443028 0)
(0.0132 0.0356632 0)
(0.0136795 0.0277157 0)
(0.0141076 0.0204225 0)
(0.0144504 0.0137651 0)
(0.0146882 0.00773951 0)
(0.0148174 0.00234988 0)
(0.014851 -0.0023976 0)
(0.0148168 -0.00650123 0)
(0.0147525 -0.00996905 0)
(0.0147014 -0.0128223 0)
(0.0147055 -0.0150967 0)
(0.0148006 -0.0168408 0)
(0.0150118 -0.0181122 0)
(0.0153489 -0.0189723 0)
(0.0158102 -0.0194787 0)
(0.00734719 0.109701 0)
(0.0126864 0.112445 0)
(0.0154418 0.0994369 0)
(0.0172914 0.0864131 0)
(0.0186252 0.0743526 0)
(0.0197035 0.0632532 0)
(0.020624 0.0530582 0)
(0.0214202 0.0437011 0)
(0.022098 0.0351164 0)
(0.0226515 0.0272494 0)
(0.0230719 0.0200591 0)
(0.0233542 0.0135184 0)
(0.0235008 0.00761137 0)
(0.0235236 0.00232933 0)
(0.0234444 -0.00233369 0)
(0.0232933 -0.00638552 0)
(0.0231057 -0.00983978 0)
(0.0229191 -0.0127187 0)
(0.0227688 -0.0150542 0)
(0.0226854 -0.0168875 0)
(0.022691 -0.0182663 0)
(0.0227962 -0.0192416 0)
(0.023003 -0.0198622 0)
(0.00651493 0.0998832 0)
(0.0133932 0.106867 0)
(0.0180914 0.0961735 0)
(0.0213919 0.0841915 0)
(0.0238288 0.0726695 0)
(0.0257023 0.0619124 0)
(0.0271735 0.0519699 0)
(0.0283285 0.0428216 0)
(0.0292171 0.0344252 0)
(0.0298712 0.0267358 0)
(0.0303143 0.0197149 0)
(0.0305681 0.0133327 0)
(0.0306553 0.0075679 0)
(0.0306022 0.00240525 0)
(0.0304388 -0.00216721 0)
(0.030198 -0.00616171 0)
(0.0299144 -0.0095938 0)
(0.0296217 -0.0124848 0)
(0.0293505 -0.0148628 0)
(0.0291271 -0.0167628 0)
(0.0289715 -0.0182255 0)
(0.0288943 -0.0192941 0)
(0.0289 -0.0200105 0)
(0.00546167 0.0906016 0)
(0.0131614 0.0998359 0)
(0.0193043 0.091347 0)
(0.0238641 0.0807023 0)
(0.0273179 0.0700416 0)
(0.0299512 0.0598947 0)
(0.031962 0.0504184 0)
(0.0334802 0.0416461 0)
(0.0345954 0.0335645 0)
(0.0353745 0.0261449 0)
(0.0358706 0.0193569 0)
(0.0361291 0.013174 0)
(0.0361911 0.00757546 0)
(0.0360954 0.00254546 0)
(0.0358798 -0.00192882 0)
(0.0355803 -0.00585972 0)
(0.0352312 -0.00926161 0)
(0.0348636 -0.0121531 0)
(0.0345048 -0.0145582 0)
(0.0341776 -0.0165069 0)
(0.0339001 -0.0180339 0)
(0.0336828 -0.0191771 0)
(0.0335315 -0.0199733 0)
(0.0046017 0.0820916 0)
(0.0125393 0.0920091 0)
(0.0195794 0.0853638 0)
(0.025082 0.0761589 0)
(0.0293648 0.0665739 0)
(0.0326519 0.0572506 0)
(0.035146 0.0484232 0)
(0.0370034 0.0401737 0)
(0.0383435 0.0325196 0)
(0.0392608 0.0254524 0)
(0.0398329 0.0189547 0)
(0.0401248 0.0130089 0)
(0.0401928 0.00760007 0)
(0.0400865 0.00271658 0)
(0.0398499 -0.00165086 0)
(0.0395223 -0.00551108 0)
(0.0391378 -0.00887462 0)
(0.0387256 -0.0117558 0)
(0.0383101 -0.0141742 0)
(0.0379114 -0.0161553 0)
(0.0375456 -0.0177295 0)
(0.037223 -0.0189304 0)
(0.036951 -0.0197915 0)
(0.00403301 0.0742704 0)
(0.0118743 0.0838841 0)
(0.0193479 0.07867 0)
(0.0254383 0.0708626 0)
(0.030299 0.0624539 0)
(0.0340755 0.0540919 0)
(0.036952 0.046046 0)
(0.0390924 0.0384318 0)
(0.0406322 0.0312945 0)
(0.0416841 0.0246465 0)
(0.0423423 0.0184871 0)
(0.0426862 0.0128109 0)
(0.0427834 0.00761265 0)
(0.0426916 0.00288883 0)
(0.0424602 -0.00136296 0)
(0.0421307 -0.00514509 0)
(0.0417373 -0.00846202 0)
(0.0413071 -0.0113224 0)
(0.0408617 -0.0137408 0)
(0.0404183 -0.0157387 0)
(0.0399914 -0.0173434 0)
(0.0395911 -0.018586 0)
(0.0392262 -0.0194975 0)
(0.0037182 0.0669622 0)
(0.011329 0.0757666 0)
(0.0188997 0.0716479 0)
(0.025254 0.0651305 0)
(0.0304303 0.057911 0)
(0.0345057 0.0505726 0)
(0.0376359 0.0433833 0)
(0.0399782 0.0364753 0)
(0.0416715 0.0299144 0)
(0.042836 0.0237329 0)
(0.0435748 0.0179467 0)
(0.0439756 0.0125647 0)
(0.0441133 0.00759365 0)
(0.0440513 0.00304036 0)
(0.0438425 -0.0010881 0)
(0.0435299 -0.00478535 0)
(0.0431472 -0.00804777 0)
(0.0427194 -0.0108769 0)
(0.0422647 -0.013282 0)
(0.0417972 -0.0152809 0)
(0.0413291 -0.0168994 0)
(0.0408709 -0.0181677 0)
(0.0404333 -0.0191159 0)
(0.00359917 0.0599803 0)
(0.0109444 0.0678182 0)
(0.0183892 0.0645851 0)
(0.0247499 0.0592433 0)
(0.030009 0.0531721 0)
(0.0341992 0.0468594 0)
(0.0374489 0.0405492 0)
(0.0399005 0.0343772 0)
(0.0416869 0.0284227 0)
(0.0429271 0.0227337 0)
(0.0437258 0.0173415 0)
(0.044174 0.0122692 0)
(0.0443501 0.00753599 0)
(0.0443205 0.00316037 0)
(0.0441403 -0.000839628 0)
(0.0438536 -0.00444708 0)
(0.0434928 -0.00764842 0)
(0.0430803 -0.0104367 0)
(0.0426298 -0.012815 0)
(0.042151 -0.0147988 0)
(0.0416541 -0.0164139 0)
(0.0411498 -0.0176917 0)
(0.0406515 -0.0186631 0)
(0.00361975 0.0531634 0)
(0.0106942 0.060121 0)
(0.0178756 0.0576815 0)
(0.0240597 0.0534201 0)
(0.0292204 0.0484304 0)
(0.0333707 0.0431052 0)
(0.0366179 0.0376573 0)
(0.0390875 0.032218 0)
(0.0409007 0.0268738 0)
(0.0421696 0.0216844 0)
(0.0429957 0.0166937 0)
(0.0434688 0.0119371 0)
(0.0436677 0.00744611 0)
(0.0436602 0.00325065 0)
(0.0435025 -0.000619464 0)
(0.0432393 -0.00413535 0)
(0.0429018 -0.00727164 0)
(0.0425087 -0.0100109 0)
(0.0420679 -0.0123493 0)
(0.0415829 -0.0143008 0)
(0.0410609 -0.0158945 0)
(0.0405141 -0.0171659 0)
(0.0399598 -0.0181481 0)
(0.00371952 0.0464006 0)
(0.0105299 0.0527158 0)
(0.0173738 0.0510626 0)
(0.0232669 0.0478122 0)
(0.0282032 0.0438311 0)
(0.0321962 0.0394347 0)
(0.0353405 0.0348078 0)
(0.0377463 0.0300753 0)
(0.0395213 0.0253265 0)
(0.0407679 0.0206289 0)
(0.0415807 0.0160362 0)
(0.0420458 0.0115938 0)
(0.0422402 0.00734348 0)
(0.0422317 0.00332597 0)
(0.0420777 -0.000417204 0)
(0.0418235 -0.00384409 0)
(0.0414998 -0.00691535 0)
(0.0411213 -0.00960026 0)
(0.0406874 -0.011886 0)
(0.0401929 -0.0137872 0)
(0.0396409 -0.0153407 0)
(0.0390467 -0.0165901 0)
(0.0384338 -0.0175728 0)
(0.00385064 0.0396343 0)
(0.0104294 0.0456148 0)
(0.0169072 0.0447941 0)
(0.0224457 0.0425129 0)
(0.0270751 0.0394739 0)
(0.0308263 0.0359416 0)
(0.0337896 0.0320831 0)
(0.0360625 0.0280184 0)
(0.03774 0.0238384 0)
(0.0389131 0.0196154 0)
(0.0396681 0.0154098 0)
(0.0400851 0.0112745 0)
(0.040238 0.0072592 0)
(0.040194 0.00341371 0)
(0.0400118 -0.000209602 0)
(0.0397391 -0.00355526 0)
(0.0394077 -0.00656715 0)
(0.039029 -0.00919678 0)
(0.0385913 -0.0114181 0)
(0.038075 -0.013249 0)
(0.0374785 -0.0147429 0)
(0.0368237 -0.0159566 0)
(0.0361435 -0.0169334 0)
(0.00402106 0.0328191 0)
(0.010447 0.0388003 0)
(0.0165521 0.0389038 0)
(0.0216934 0.0375793 0)
(0.0259549 0.0354274 0)
(0.0293999 0.0326955 0)
(0.0321204 0.0295487 0)
(0.0342036 0.026107 0)
(0.0357315 0.0224629 0)
(0.0367834 0.018692 0)
(0.0374357 0.014859 0)
(0.0377609 0.0110214 0)
(0.0378284 0.00723428 0)
(0.0377039 0.00355349 0)
(0.0374484 4.0065e-05 0)
(0.0371143 -0.00323729 0)
(0.0367392 -0.00620304 0)
(0.0363349 -0.00878353 0)
(0.0358741 -0.0109298 0)
(0.035314 -0.0126679 0)
(0.0346481 -0.0140822 0)
(0.0339115 -0.015251 0)
(0.0331515 -0.0162226 0)
(0.00433892 0.0258378 0)
(0.0107439 0.0322242 0)
(0.016454 0.0334153 0)
(0.0211396 0.0330642 0)
(0.0249682 0.0317499 0)
(0.0280486 0.0297532 0)
(0.0304746 0.0272581 0)
(0.032321 0.0243909 0)