/*--------------------------------*- C++ -*----------------------------------*\
  =========                 |
  \\      /  F ield         | OpenFOAM: The Open Source CFD Toolbox
   \\    /   O peration     | Website:  https://openfoam.org
    \\  /    A nd           | Version:  9
     \\/     M anipulation  |
\*---------------------------------------------------------------------------*/
FoamFile
{
    format      ascii;
    class       volVectorField;
    location    "2.18";
    object      U;
}
// * * * * * * * * * * * * * * * * * * * * * * * * * * * * * * * * * * * * * //

dimensions      [0 1 -1 0 0 0 0];

internalField   nonuniform List<vector> 
2268
(
(-0.0063421 0.00215797 0)
(-0.00622551 -0.000114556 0)
(-0.00451998 -0.000847667 0)
(-0.00208528 -0.000870946 0)
(-3.8832e-05 -0.000649597 0)
(0.00140057 -0.000441661 0)
(0.0023315 -0.000284751 0)
(0.00290876 -0.000180538 0)
(0.00322369 -0.000105227 0)
(0.00330071 -2.82095e-05 0)
(0.00309742 5.5992e-05 0)
(0.00253594 0.000173411 0)
(0.00155572 0.000321324 0)
(0.000129876 0.000480396 0)
(-0.00171286 0.000642203 0)
(-0.00393176 0.000809589 0)
(-0.00672304 0.000944248 0)
(-0.00976097 0.002004 0)
(-0.0192388 0.00566974 0)
(-0.0349001 0.00543993 0)
(-0.0437896 0.00108575 0)
(-0.0422877 -0.00453314 0)
(-0.0211439 -0.0103901 0)
(-0.00383247 0.00381971 0)
(-0.00275567 -0.000402531 0)
(-0.001241 -0.00149373 0)
(0.000430076 -0.00153245 0)
(0.00184387 -0.00118913 0)
(0.00288555 -0.000820996 0)
(0.00359318 -0.000527795 0)
(0.00402907 -0.000308892 0)
(0.004219 -0.000122398 0)
(0.00414242 7.72416e-05 0)
(0.00375371 0.000311567 0)
(0.00300187 0.000598013 0)
(0.00185887 0.000911323 0)
(0.000347691 0.00121112 0)
(-0.00147949 0.00150095 0)
(-0.00362509 0.00182607 0)
(-0.00642252 0.0022947 0)
(-0.0097771 0.00397681 0)
(-0.0148562 0.00832927 0)
(-0.0217444 0.00819457 0)
(-0.025672 0.00194845 0)
(-0.0268786 -0.006955 0)
(-0.0159893 -0.0217842 0)
(-0.00108211 0.00465452 0)
(-0.000389368 -0.000887767 0)
(0.000933065 -0.00214879 0)
(0.00216495 -0.00211861 0)
(0.00320411 -0.00165705 0)
(0.00399122 -0.00116014 0)
(0.00453817 -0.000751149 0)
(0.00485964 -0.000422308 0)
(0.0049416 -0.000118969 0)
(0.00474377 0.000213879 0)
(0.00421676 0.000613127 0)
(0.00332201 0.00107061 0)
(0.00205828 0.0015424 0)
(0.000479697 0.00197696 0)
(-0.00134287 0.00239145 0)
(-0.00341427 0.00289229 0)
(-0.00601472 0.00368106 0)
(-0.00905718 0.00558799 0)
(-0.0117115 0.00963437 0)
(-0.0138765 0.00943726 0)
(-0.0147897 0.0025481 0)
(-0.0158543 -0.00803009 0)
(-0.00855806 -0.0293146 0)
(0.000820382 0.0045225 0)
(0.00148975 -0.00132675 0)
(0.00265703 -0.00267794 0)
(0.00361668 -0.0025839 0)
(0.00439885 -0.00202835 0)
(0.00499557 -0.00143189 0)
(0.00541076 -0.000925378 0)
(0.00563051 -0.000491543 0)
(0.00561316 -6.51836e-05 0)
(0.00530402 0.000414032 0)
(0.00465208 0.000978154 0)
(0.00362771 0.00160651 0)
(0.00224809 0.00223009 0)
(0.000593316 0.002781 0)
(-0.00124225 0.00329314 0)
(-0.00324519 0.00392629 0)
(-0.00560066 0.00491646 0)
(-0.00822276 0.00682306 0)
(-0.00956802 0.0100712 0)
(-0.00923676 0.00953676 0)
(-0.00786744 0.00239098 0)
(-0.00766061 -0.00899802 0)
(-0.00164394 -0.0333496 0)
(0.00198289 0.00362158 0)
(0.0029777 -0.00183787 0)
(0.00408912 -0.00312992 0)
(0.00489424 -0.00295229 0)
(0.00549932 -0.0023152 0)
(0.00595071 -0.00164071 0)
(0.00625593 -0.00105214 0)
(0.00638357 -0.000517929 0)
(0.00627153 3.56788e-05 0)
(0.00585421 0.000668395 0)
(0.00508016 0.00140371 0)
(0.00392588 0.00220388 0)
(0.00242144 0.00297142 0)
(0.000670815 0.00361811 0)
(-0.00120277 0.00419519 0)
(-0.00316188 0.00491155 0)
(-0.00531378 0.00600103 0)
(-0.0075431 0.00774135 0)
(-0.008327 0.00996945 0)
(-0.00699267 0.00877753 0)
(-0.00430907 0.00148633 0)
(-0.00284068 -0.0102727 0)
(0.00338486 -0.0339429 0)
(0.00267678 0.00224728 0)
(0.00413084 -0.0024731 0)
(0.00527664 -0.00355203 0)
(0.00601231 -0.00325362 0)
(0.00650333 -0.00253509 0)
(0.00684858 -0.00179505 0)
(0.00706475 -0.00113492 0)
(0.00710973 -0.000502896 0)
(0.00690584 0.000182483 0)
(0.0063802 0.00097525 0)
(0.00548233 0.001888 0)
(0.00419213 0.00286243 0)
(0.00254749 0.00376805 0)
(0.000673688 0.00449076 0)
(-0.00127551 0.00509984 0)
(-0.0032434 0.00585368 0)
(-0.00529936 0.00697004 0)
(-0.00732047 0.00846129 0)
(-0.00809847 0.00973233 0)
(-0.00687104 0.00769507 0)
(-0.00416986 0.000163597 0)
(-0.00220284 -0.0122987 0)
(0.00588327 -0.0331704 0)
(0.0031272 0.000552027 0)
(0.00500174 -0.00324662 0)
(0.00622899 -0.00398201 0)
(0.00695464 -0.00352028 0)
(0.00738509 -0.00271118 0)
(0.00766081 -0.00190846 0)
(0.00780809 -0.00117988 0)
(0.00777881 -0.00044776 0)
(0.00748396 0.000377223 0)
(0.00684726 0.00133962 0)
(0.0058217 0.00243854 0)
(0.00438826 0.00359406 0)
(0.00258656 0.00463844 0)
(0.000557405 0.00542439 0)
(-0.00151776 0.0060407 0)
(-0.00357394 0.00680424 0)
(-0.00568825 0.00792347 0)
(-0.00779344 0.00918972 0)
(-0.0090452 0.00971515 0)
(-0.00883667 0.00688724 0)
(-0.00755068 -0.00114609 0)
(-0.00652409 -0.0150367 0)
(0.00319946 -0.0349706 0)
(0.00346265 -0.0013539 0)
(0.00560902 -0.00416002 0)
(0.00692466 -0.00445432 0)
(0.00768612 -0.00379022 0)
(0.00810733 -0.00287377 0)
(0.00835005 -0.00199721 0)
(0.00844658 -0.00118967 0)
(0.00834853 -0.000344375 0)
(0.00796107 0.00063454 0)
(0.0072086 0.00177987 0)
(0.00605176 0.00307476 0)
(0.00447203 0.00442226 0)
(0.00250274 0.00561838 0)
(0.000287791 0.00647377 0)
(-0.00197229 0.00709691 0)
(-0.00421611 0.00787165 0)
(-0.00656175 0.00902323 0)
(-0.00905506 0.0101956 0)
(-0.0112519 0.0103276 0)
(-0.0128963 0.00709796 0)
(-0.0145267 -0.00135581 0)
(-0.0166515 -0.0161218 0)
(-0.0154887 -0.0416419 0)
(-0.0262459 0.00744697 0)
(-0.0249058 -0.0010806 0)
(-0.00839736 -0.00802694 0)
(0.0163156 -0.00801487 0)
(0.0364728 -0.00681744 0)
(0.0534001 -0.00633178 0)
(0.066338 -0.0020682 0)
(0.0551149 0.010062 0)
(0.00515626 0.0145235 0)
(-0.042297 0.00942361 0)
(-0.0591311 0.00287749 0)
(-0.0608532 -0.000389604 0)
(-0.0627739 0.00176383 0)
(-0.0692511 0.00184915 0)
(-0.0630511 -0.00383025 0)
(-0.0396507 -0.00671724 0)
(-0.0170655 -0.00425078 0)
(-0.00810294 -0.00183688 0)
(-0.0052606 -0.00326778 0)
(-0.0246645 0.0142626 0)
(-0.0114794 -0.00446717 0)
(-0.00218764 -0.0127863 0)
(0.0114953 -0.0131985 0)
(0.0227325 -0.0110077 0)
(0.0298632 -0.0084193 0)
(0.0316977 -0.000746715 0)
(0.0235045 0.0215669 0)
(-0.0129131 0.0298063 0)
(-0.0483997 0.0189682 0)
(-0.0620147 0.00673348 0)
(-0.0672325 0.000985236 0)
(-0.0705474 0.00242438 0)
(-0.0702663 -0.000327078 0)
(-0.05889 -0.0102787 0)
(-0.0362794 -0.0158164 0)
(-0.0136235 -0.0108278 0)
(-0.00126883 -0.00406081 0)
(0.000841488 -0.00244239 0)
(-0.0157514 0.0191396 0)
(-0.0048074 -0.00782106 0)
(-0.000662016 -0.0161654 0)
(0.00583888 -0.01643 0)
(0.0107048 -0.013143 0)
(0.0112234 -0.00845853 0)
(0.00643427 0.00133471 0)
(-0.00208017 0.028998 0)
(-0.0237591 0.0412256 0)
(-0.0476619 0.0271988 0)
(-0.0604969 0.0110747 0)
(-0.0680969 0.00334177 0)
(-0.0722851 0.00269666 0)
(-0.0699768 -0.00343281 0)
(-0.0576009 -0.0173063 0)
(-0.0363447 -0.0251306 0)
(-0.0144842 -0.0180445 0)
(-0.000249573 -0.00793619 0)
(0.00549888 -0.00211646 0)
(-0.00700869 0.0222162 0)
(-0.00223498 -0.00945061 0)
(-0.00248885 -0.0175158 0)
(-0.00132664 -0.0176542 0)
(-0.00137104 -0.0132603 0)
(-0.00574027 -0.0065289 0)
(-0.0150119 0.00515821 0)
(-0.0229938 0.0338759 0)
(-0.0322855 0.0480325 0)
(-0.0456497 0.0338796 0)
(-0.0575042 0.0154932 0)
(-0.0663626 0.00626769 0)
(-0.0718181 0.00314872 0)
(-0.0695939 -0.00661291 0)
(-0.0578817 -0.0241596 0)
(-0.0389493 -0.0340879 0)
(-0.0183971 -0.0252177 0)
(-0.00356833 -0.0123129 0)
(0.00422677 -0.000734127 0)
(-0.000834556 0.0233411 0)
(-0.0038146 -0.00898313 0)
(-0.00749438 -0.0168875 0)
(-0.0102586 -0.0170066 0)
(-0.0139403 -0.0115441 0)
(-0.0219345 -0.00294011 0)
(-0.0340446 0.00951128 0)
(-0.0405398 0.0363623 0)
(-0.0406577 0.0501607 0)
(-0.0441175 0.0384439 0)
(-0.0530469 0.0196846 0)
(-0.0624174 0.00966039 0)
(-0.0691604 0.00413885 0)
(-0.0682729 -0.00935251 0)
(-0.0588733 -0.0300401 0)
(-0.0439319 -0.042061 0)
(-0.0250588 -0.0328436 0)
(-0.00900811 -0.0169739 0)
(0.000375664 -0.00128293 0)
(0.00164645 0.0239725 0)
(-0.0100862 -0.00616417 0)
(-0.015804 -0.0147248 0)
(-0.0210451 -0.0150178 0)
(-0.0270648 -0.00850874 0)
(-0.0374285 0.00184564 0)
(-0.0511513 0.0140504 0)
(-0.055556 0.0365124 0)
(-0.0485853 0.0487709 0)
(-0.0439185 0.0398592 0)
(-0.0480595 0.0232105 0)
(-0.0568772 0.0133091 0)
(-0.0643484 0.00574529 0)
(-0.06501 -0.0111698 0)
(-0.0585937 -0.0343998 0)
(-0.0484963 -0.0483044 0)
(-0.0334524 -0.0408536 0)
(-0.0164012 -0.0229309 0)
(-0.00200567 -0.00402929 0)
(-0.00273358 0.0274897 0)
(-0.0216288 -0.00127561 0)
(-0.027569 -0.0117856 0)
(-0.0336867 -0.0123638 0)
(-0.0407204 -0.00479863 0)
(-0.0519505 0.00723912 0)
(-0.0656982 0.0184139 0)
(-0.0678765 0.0345712 0)
(-0.0555179 0.0444498 0)
(-0.044392 0.0381622 0)
(-0.0438089 0.0255492 0)
(-0.0506141 0.01671 0)
(-0.0574661 0.00767939 0)
(-0.058939 -0.0121354 0)
(-0.0549764 -0.0372696 0)
(-0.049009 -0.0524675 0)
(-0.039136 -0.0474737 0)
(-0.0245114 -0.0299663 0)
(-0.00627184 -0.00932044 0)
(-0.0278049 0.0405921 0)
(-0.0381699 0.00324688 0)
(-0.0427014 -0.00924501 0)
(-0.0481152 -0.00971254 0)
(-0.0550077 -0.00105706 0)
(-0.0653177 0.0122934 0)
(-0.0768505 0.021924 0)
(-0.0764133 0.0313966 0)
(-0.0612791 0.0383573 0)
(-0.0461676 0.0346655 0)
(-0.0411892 0.0263836 0)
(-0.0441343 0.0190346 0)
(-0.0482543 0.00936155 0)
(-0.0489829 -0.0126363 0)
(-0.0466687 -0.0387833 0)
(-0.0443502 -0.0546837 0)
(-0.0398004 -0.0518966 0)
(-0.0295799 -0.0367399 0)
(-0.0100595 -0.0162982 0)
(0.00374549 -0.00503157 0)
(0.00600223 -0.00583381 0)
(0.00750859 -0.00532488 0)
(0.00841663 -0.00428889 0)
(0.00892176 -0.00316455 0)
(0.00917751 -0.0021266 0)
(0.00921719 -0.00115184 0)
(0.00901014 -8.18389e-05 0)
(0.00846756 0.00116044 0)
(0.00752248 0.00260109 0)
(0.00616058 0.00420089 0)
(0.00437038 0.00585665 0)
(0.00215852 0.00732785 0)
(-0.000368283 0.00834644 0)
(-0.00301321 0.00904361 0)
(-0.00572978 0.00988777 0)
(-0.00869277 0.0111948 0)
(-0.0121635 0.0125529 0)
(-0.0163846 0.0128911 0)
(-0.0220116 0.0103897 0)
(-0.03024 0.00352255 0)
(-0.043975 -0.00786883 0)
(-0.0746275 -0.0186534 0)
(0.00313604 -0.00840202 0)
(0.00455741 -0.00789624 0)
(0.0064462 -0.00652896 0)
(0.0079456 -0.00502518 0)
(0.0089785 -0.00362546 0)
(0.00947875 -0.00236289 0)
(0.0094485 -0.00117275 0)
(0.00898675 0.000174019 0)
(0.00809762 0.00166333 0)
(0.0067973 0.00335409 0)
(0.00518061 0.00520877 0)
(0.0033131 0.00715236 0)
(0.00109081 0.00892571 0)
(-0.00174108 0.0101544 0)
(-0.005255 0.0110172 0)
(-0.00934821 0.0121021 0)
(-0.0137269 0.0139334 0)
(-0.0186357 0.0162508 0)
(-0.0252403 0.0184158 0)
(-0.0355889 0.019567 0)
(-0.0518544 0.0195016 0)
(-0.0758299 0.0184608 0)
(-0.106029 0.017232 0)
(-0.00325699 -0.0127154 0)
(-0.00182467 -0.00999708 0)
(0.00190217 -0.00786081 0)
(0.00552938 -0.00582474 0)
(0.00822373 -0.00407643 0)
(0.00932213 -0.00245892 0)
(0.00872732 -0.00100043 0)
(0.00711119 0.00077318 0)
(0.00499908 0.00264982 0)
(0.00272405 0.00473383 0)
(0.000551069 0.00691738 0)
(-0.000977331 0.00922275 0)
(-0.00204069 0.0114896 0)
(-0.00481085 0.0129464 0)
(-0.0106777 0.0139845 0)
(-0.0191277 0.0153982 0)
(-0.0264261 0.0182742 0)
(-0.0314119 0.0221678 0)
(-0.0369353 0.0271079 0)
(-0.0483634 0.0322415 0)
(-0.0698032 0.0364856 0)
(-0.102817 0.0374888 0)
(-0.132101 0.0331947 0)
(-0.0325567 -0.0113842 0)
(-0.0232635 -0.0108172 0)
(-0.014729 -0.0104349 0)
(-0.00330447 -0.0084626 0)
(0.00629388 -0.00667554 0)
(0.0103636 -0.00279868 0)
(0.00580521 -0.00060205 0)
(-0.00210641 0.0020418 0)
(-0.00985627 0.00427213 0)
(-0.014956 0.00767447 0)
(-0.0198847 0.0121286 0)
(-0.0219023 0.0119466 0)
(-0.0133896 0.0131193 0)
(-0.0107652 0.0156083 0)
(-0.0229086 0.019885 0)
(-0.0481764 0.0236418 0)
(-0.065838 0.0311748 0)
(-0.0664133 0.029625 0)
(-0.0506966 0.0373161 0)
(-0.0454407 0.0489769 0)
(-0.0546856 0.0606727 0)
(-0.101886 0.0604898 0)
(-0.144128 0.0435083 0)
(-0.146877 0.0897039 0)
(-0.157008 -0.0377009 0)
(-0.129877 -0.0458406 0)
(-0.11771 -0.0373557 0)
(-0.103884 -0.0253938 0)
(-0.0958086 0.00246143 0)
(-0.107572 0.021763 0)
(-0.154758 0.0346115 0)
(-0.178211 0.0151471 0)
(-0.184595 0.016544 0)
(-0.180358 0.00914372 0)
(-0.159972 -0.00859086 0)
(-0.146509 1.39336e-05 0)
(-0.143872 0.0303879 0)
(-0.17366 0.0835004 0)
(-0.247738 0.0925465 0)
(-0.240119 0.0149198 0)
(-0.187542 -0.0132408 0)
(-0.140989 0.00250389 0)
(-0.0954676 0.0373227 0)
(-0.0667567 0.0966636 0)
(-0.0546403 0.180034 0)
(-0.104395 0.0819631 0)
(-0.100096 0.202394 0)
(-0.105296 -0.0140792 0)
(-0.122599 -0.033296 0)
(-0.145517 -0.0322296 0)
(-0.154938 -0.0284135 0)
(-0.155544 3.59427e-05 0)
(-0.153508 0.0371259 0)
(-0.159192 0.0659822 0)
(-0.170153 0.0285702 0)
(-0.181603 0.0149939 0)
(-0.191062 0.00395708 0)
(-0.193823 -0.0121903 0)
(-0.194166 -0.00452006 0)
(-0.198985 0.0378084 0)
(-0.223816 0.104937 0)
(-0.245767 0.0763947 0)
(-0.243676 -0.00203819 0)
(-0.229608 -0.0466214 0)
(-0.208543 -0.0474503 0)
(-0.183632 -0.0113747 0)
(-0.167732 0.0522514 0)
(-0.143909 0.165154 0)
(-0.150962 0.154135 0)
(-0.0201137 0.292827 0)
(-0.0192176 0.00840302 0)
(-0.0790345 -0.00101528 0)
(-0.13771 -0.00657598 0)
(-0.162491 -0.018503 0)
(-0.171601 0.00152694 0)
(-0.167671 0.0320905 0)
(-0.154895 0.0525194 0)
(-0.149612 0.0377001 0)
(-0.167486 0.0291892 0)
(-0.195112 0.0159416 0)
(-0.210822 -0.00840858 0)
(-0.219294 -0.00233697 0)
(-0.227327 0.0484348 0)
(-0.229886 0.128433 0)
(-0.228751 0.093762 0)
(-0.23658 -0.00113637 0)
(-0.258086 -0.0564105 0)
(-0.272332 -0.0533347 0)
(-0.282331 -0.00375054 0)
(-0.301606 0.0305439 0)
(-0.270703 0.118265 0)
(-0.226409 0.170674 0)
(0.0521217 0.270021 0)
(0.0579943 0.0545912 0)
(-0.0348315 0.0748764 0)
(-0.092163 0.049655 0)
(-0.141363 0.00257482 0)
(-0.170002 0.0089977 0)
(-0.173045 0.0267399 0)
(-0.16359 0.0430874 0)
(-0.15928 0.0480117 0)
(-0.170098 0.0570599 0)
(-0.181991 0.0457636 0)
(-0.199719 0.00981243 0)
(-0.231614 0.00407997 0)
(-0.254953 0.054777 0)
(-0.236807 0.123946 0)
(-0.210357 0.0988368 0)
(-0.215233 0.0281324 0)
(-0.262039 -0.0302573 0)
(-0.340016 -0.0317961 0)
(-0.369354 0.0110263 0)
(-0.354792 0.0145457 0)
(-0.326574 0.0519307 0)
(-0.262016 0.0853973 0)
(0.0567651 0.188421 0)
(0.0421558 0.122103 0)
(-0.044503 0.144506 0)
(-0.072503 0.105134 0)
(-0.108705 0.057418 0)
(-0.140444 0.0319514 0)
(-0.159187 0.0279812 0)
(-0.166035 0.0376454 0)
(-0.169013 0.0519101 0)
(-0.171577 0.0606447 0)
(-0.175336 0.0548505 0)
(-0.188072 0.0410165 0)
(-0.210213 0.040943 0)
(-0.226871 0.0628647 0)
(-0.22139 0.0920992 0)
(-0.210427 0.0872885 0)
(-0.221835 0.0656711 0)
(-0.261225 0.0552607 0)
(-0.314703 0.0594751 0)
(-0.329345 0.0219758 0)
(-0.321195 0.0030213 0)
(-0.292659 0.0173027 0)
(-0.24438 0.0274701 0)
(0.00636544 0.141757 0)
(-0.0249526 0.174006 0)
(-0.0590014 0.171113 0)
(-0.0721335 0.127901 0)
(-0.094989 0.0845473 0)
(-0.119447 0.0573325 0)
(-0.139239 0.046072 0)
(-0.152246 0.0473977 0)
(-0.159415 0.0548872 0)
(-0.16249 0.0601246 0)
(-0.165364 0.0578165 0)
(-0.173897 0.0523744 0)
(-0.18765 0.0547558 0)
(-0.197953 0.0684906 0)
(-0.197077 0.0847797 0)
(-0.192784 0.0870426 0)
(-0.199199 0.0803196 0)
(-0.216335 0.0758386 0)
(-0.232346 0.0672004 0)
(-0.25224 0.0204855 0)
(-0.267546 -0.0136724 0)
(-0.252959 -0.00843068 0)
(-0.219088 -0.00236591 0)
(-0.0331924 0.172932 0)
(-0.0567786 0.201692 0)
(-0.0642962 0.180135 0)
(-0.070751 0.140638 0)
(-0.0850107 0.103291 0)
(-0.102953 0.0770954 0)
(-0.120038 0.0631358 0)
(-0.133332 0.0592921 0)
(-0.141762 0.0610021 0)
(-0.146134 0.0631006 0)
(-0.149418 0.0622874 0)
(-0.155058 0.0606729 0)
(-0.162708 0.0635634 0)
(-0.167866 0.0725954 0)
(-0.166823 0.083002 0)
(-0.162743 0.0872032 0)
(-0.161502 0.0861641 0)
(-0.162374 0.0832984 0)
(-0.160562 0.0727141 0)
(-0.161203 0.038279 0)
(-0.17051 -0.00664289 0)
(-0.177724 -0.0327593 0)
(-0.165436 -0.045703 0)
(-0.0306982 0.231429 0)
(-0.0502297 0.213843 0)
(-0.0551791 0.184073 0)
(-0.0612626 0.149172 0)
(-0.0719554 0.117106 0)
(-0.0857952 0.0927799 0)
(-0.0999008 0.0775071 0)
(-0.111793 0.070176 0)
(-0.120136 0.0678542 0)
(-0.125168 0.0672478 0)
(-0.128619 0.0662979 0)
(-0.132292 0.0657642 0)
(-0.135953 0.0679444 0)
(-0.137328 0.0734078 0)
(-0.134554 0.0795995 0)
(-0.128716 0.0826948 0)
(-0.122084 0.0820422 0)
(-0.114391 0.0777175 0)
(-0.104509 0.0656575 0)
(-0.0963993 0.0393606 0)
(-0.095472 0.00423393 0)
(-0.0973917 -0.0282275 0)
(-0.0941497 -0.0547552 0)
(-0.0180214 0.267763 0)
(-0.0318519 0.224663 0)
(-0.0387995 0.189551 0)
(-0.0458557 0.157048 0)
(-0.0553572 0.128317 0)
(-0.066847 0.10554 0)
(-0.0786187 0.0895865 0)
(-0.0889102 0.0798571 0)
(-0.0966148 0.0745305 0)
(-0.10167 0.0715074 0)
(-0.104916 0.0694248 0)
(-0.107213 0.0683434 0)
(-0.108396 0.0690528 0)
(-0.107306 0.0715291 0)
(-0.102969 0.0742443 0)
(-0.0957162 0.0750081 0)
(-0.0865047 0.0726959 0)
(-0.0755289 0.0663457 0)
(-0.0631393 0.0533797 0)
(-0.0522812 0.0310764 0)
(-0.0467338 0.00221937 0)
(-0.0456878 -0.0262053 0)
(-0.0456873 -0.0515099 0)
(-0.00435913 0.283287 0)
(-0.0127574 0.234722 0)
(-0.0209999 0.19681 0)
(-0.0283146 0.165218 0)
(-0.037071 0.138215 0)
(-0.0469482 0.116318 0)
(-0.0568879 0.0998432 0)
(-0.0656983 0.0883515 0)
(-0.0725427 0.0806874 0)
(-0.0772154 0.0754972 0)
(-0.0800372 0.0718092 0)
(-0.0813674 0.0693525 0)
(-0.0810804 0.0682025 0)
(-0.0785826 0.0680445 0)
(-0.0733787 0.0678268 0)
(-0.0655969 0.0661269 0)
(-0.0557735 0.0618506 0)
(-0.044372 0.0539633 0)
(-0.03222 0.0409369 0)
(-0.0214305 0.0216356 0)
(-0.0145479 -0.0023292 0)
(-0.0120739 -0.0270484 0)
(-0.0127408 -0.0499651 0)
(0.00617173 0.283016 0)
(0.00253264 0.243004 0)
(-0.00491004 0.204161 0)
(-0.0113778 0.17307 0)
(-0.0190621 0.146992 0)
(-0.0274309 0.125501 0)
(-0.0357273 0.10852 0)
(-0.0431202 0.09565 0)
(-0.0489746 0.0861129 0)
(-0.0530253 0.078997 0)
(-0.0553211 0.0735667 0)
(-0.0559674 0.06942 0)
(-0.0548656 0.0663163 0)
(-0.0517193 0.0638241 0)
(-0.0463066 0.0611465 0)
(-0.0387436 0.0572808 0)
(-0.0294425 0.0513265 0)
(-0.01896 0.0424513 0)
(-0.00818466 0.0297817 0)
(0.0013548 0.0128892 0)
(0.00793605 -0.00722441 0)
(0.0108231 -0.0282666 0)
(0.010387 -0.0481789 0)
(0.0113356 0.273314 0)
(0.0124462 0.247262 0)
(0.00798236 0.20987 0)
(0.00320808 0.179645 0)
(-0.00282177 0.154317 0)
(-0.00947101 0.133072 0)
(-0.0160863 0.115654 0)
(-0.0220233 0.101701 0)
(-0.0267701 0.0906534 0)
(-0.0300427 0.0818668 0)
(-0.0317565 0.0747637 0)
(-0.0318944 0.0689161 0)
(-0.0303779 0.0639662 0)
(-0.0270684 0.0594616 0)
(-0.021901 0.0547703 0)
(-0.0150214 0.0491553 0)
(-0.00679711 0.0419268 0)
(0.00222591 0.032481 0)
(0.0112525 0.0203291 0)
(0.0191657 0.00536215 0)
(0.0247905 -0.0117355 0)
(0.0274711 -0.0295369 0)
(0.0272332 -0.0465541 0)
(0.0120192 0.259569 0)
(0.0174679 0.246471 0)
(0.017008 0.212686 0)
(0.0146671 0.18413 0)
(0.010795 0.159741 0)
(0.00614227 0.138835 0)
(0.0013414 0.121156 0)
(-0.00304476 0.106408 0)
(-0.00657093 0.0941831 0)
(-0.00895001 0.084011 0)
(-0.010035 0.0754333 0)
(-0.00975189 0.0680491 0)
(-0.0080354 0.061483 0)
(-0.00482922 0.0553114 0)
(-0.000152081 0.0490268 0)
(0.00582952 0.0420777 0)
(0.0127825 0.0339532 0)
(0.0202202 0.0242364 0)
(0.0274861 0.0126598 0)
(0.0337626 -0.000750103 0)
(0.0382359 -0.0154967 0)
(0.0403896 -0.0306461 0)
(0.0401341 -0.0451529 0)
(0.010576 0.244933 0)
(0.0192344 0.241325 0)
(0.0225151 0.212251 0)
(0.0229273 0.186033 0)
(0.021506 0.16291 0)
(0.0190444 0.142583 0)
(0.0161783 0.1249 0)
(0.0134332 0.109665 0)
(0.0112179 0.0965967 0)
(0.00981726 0.0853532 0)
(0.00940591 0.0755753 0)
(0.0100841 0.0669147 0)
(0.0119103 0.0590261 0)
(0.0149024 0.0515386 0)
(0.0190044 0.0440462 0)
(0.0240489 0.0361339 0)
(0.0297443 0.0274305 0)
(0.0356815 0.0176542 0)
(0.0413409 0.00666307 0)
(0.0461244 -0.00546627 0)
(0.0494611 -0.0183644 0)
(0.0509649 -0.0313945 0)
(0.0505245 -0.0438209 0)
(0.0088571 0.230956 0)
(0.0192992 0.233201 0)
(0.0254264 0.208793 0)
(0.0284586 0.185239 0)
(0.0294882 0.163685 0)
(0.0292476 0.144206 0)
(0.0283481 0.126806 0)
(0.0272788 0.111401 0)
(0.0264192 0.0978229 0)
(0.0260454 0.0858363 0)
(0.0263419 0.0751692 0)
(0.0274211 0.0655361 0)
(0.0293408 0.0566423 0)
(0.0321055 0.0481784 0)
(0.0356512 0.0398234 0)
(0.0398267 0.0312656 0)
(0.0443878 0.0222372 0)
(0.0490053 0.0125504 0)
(0.0532796 0.00213375 0)
(0.0567748 -0.00892468 0)
(0.0590877 -0.0203469 0)
(0.0599378 -0.0316855 0)
(0.0592273 -0.0424184 0)
(0.00761412 0.217972 0)
(0.0187218 0.223389 0)
(0.0267384 0.202924 0)
(0.0319553 0.181999 0)
(0.0351909 0.162166 0)
(0.0370338 0.143748 0)
(0.0380174 0.126888 0)
(0.0385764 0.111609 0)
(0.0390533 0.0978401 0)
(0.0397075 0.0854335 0)
(0.0407218 0.0741946 0)
(0.0422138 0.0639016 0)
(0.0442441 0.0543165 0)
(0.0468187 0.0451912 0)
(0.0498823 0.0362763 0)
(0.05331 0.0273389 0)
(0.0569077 0.0181875 0)
(0.0604201 0.00869758 0)
(0.0635476 -0.0011628 0)
(0.0659753 -0.0113103 0)
(0.0674189 -0.0215342 0)
(0.0676794 -0.0315133 0)
(0.0666822 -0.0408736 0)
(0.00690913 0.205777 0)
(0.0180842 0.212786 0)
(0.0272333 0.195344 0)
(0.0341037 0.17676 0)
(0.0391711 0.158628 0)
(0.0428346 0.141386 0)
(0.0455129 0.125264 0)
(0.0475665 0.110364 0)
(0.0492908 0.0966885 0)
(0.0509194 0.0841604 0)
(0.052626 0.0726503 0)
(0.0545278 0.0619946 0)
(0.0566903 0.0520103 0)
(0.0591283 0.0425053 0)
(0.0618032 0.0332901 0)
(0.0646213 0.0241928 0)
(0.0674363 0.0150777 0)
(0.0700581 0.00586363 0)
(0.0722682 -0.00345964 0)
(0.0738427 -0.0128188 0)
(0.0745834 -0.0220531 0)
(0.0743529 -0.030928 0)
(0.0731005 -0.0391728 0)
(0.0066076 0.194073 0)
(0.0176462 0.20188 0)
(0.0274336 0.18664 0)
(0.0354787 0.169997 0)
(0.0419691 0.153434 0)
(0.0471214 0.137394 0)
(0.0512304 0.12214 0)
(0.0545734 0.107816 0)
(0.0573923 0.0944719 0)
(0.0598888 0.0820815 0)
(0.0622215 0.0705668 0)
(0.0645044 0.0598139 0)
(0.0668073 0.0496879 0)
(0.0691561 0.0400457 0)
(0.0715321 0.0307469 0)
(0.0738725 0.0216673 0)
(0.0760742 0.0127127 0)
(0.0780023 0.00383184 0)
(0.0795027 -0.00497302 0)
(0.0804202 -0.013639 0)
(0.0806202 -0.0220425 0)
(0.0800109 -0.0300095 0)
(0.0785626 -0.0373417 0)
(0.00659493 0.182566 0)
(0.0175024 0.190871 0)
(0.0276531 0.17722 0)
(0.036497 0.162135 0)
(0.0440271 0.146963 0)
(0.0503175 0.132095 0)
(0.0555534 0.117782 0)
(0.0599336 0.104175 0)
(0.0636466 0.091348 0)
(0.0668609 0.0793066 0)
(0.0697175 0.0680098 0)
(0.0723246 0.0573826 0)
(0.0747551 0.0473304 0)
(0.0770459 0.0377503 0)
(0.0791972 0.0285423 0)
(0.0811739 0.0196195 0)
(0.08291 0.010919 0)
(0.0843154 0.00241098 0)
(0.0852865 -0.00589438 0)
(0.08572 -0.0139431 0)
(0.0855277 -0.0216386 0)
(0.0846521 -0.0288497 0)
(0.0830802 -0.0354289 0)
(0.00677827 0.170993 0)
(0.0176422 0.179788 0)
(0.0280344 0.167341 0)
(0.0374029 0.15352 0)
(0.0456428 0.139574 0)
(0.0527375 0.125825 0)
(0.0587899 0.112482 0)
(0.0639354 0.0996863 0)
(0.0683167 0.0875112 0)
(0.0720723 0.0759797 0)
(0.0753257 0.065074 0)
(0.0781783 0.054748 0)
(0.0807046 0.0449387 0)
(0.0829504 0.035576 0)
(0.0849321 0.026592 0)
(0.0866377 0.0179294 0)
(0.0880309 0.00954942 0)
(0.089057 0.00143841 0)
(0.0896509 -0.00638786 0)
(0.0897477 -0.0138821 0)
(0.0892935 -0.0209669 0)
(0.0882557 -0.0275412 0)
(0.0866337 -0.0334933 0)
(0.00703644 0.159168 0)
(0.0179579 0.168567 0)
(0.0285647 0.157157 0)
(0.0382682 0.144418 0)
(0.0469512 0.131578 0)
(0.0545556 0.118895 0)
(0.0611348 0.106533 0)
(0.0667809 0.0946037 0)
(0.0716036 0.0831711 0)
(0.0757176 0.0722617 0)
(0.0792321 0.0618712 0)
(0.0822414 0.0519737 0)
(0.0848204 0.0425304 0)
(0.0870212 0.033497 0)
(0.0888721 0.0248315 0)
(0.0903792 0.0165001 0)
(0.0915288 0.00848312 0)
(0.0922927 0.000779422 0)
(0.0926343 -0.00659058 0)
(0.0925167 -0.013584 0)
(0.0919105 -0.0201371 0)
(0.0908011 -0.0261694 0)
(0.0891968 -0.0315946 0)
(0.0072092 0.147055 0)
(0.0182602 0.157121 0)
(0.0290976 0.146744 0)
(0.0390114 0.135022 0)
(0.0479337 0.123227 0)
(0.0558058 0.111579 0)
(0.0626623 0.100199 0)
(0.0685745 0.0891665 0)
(0.0736329 0.0785293 0)
(0.0779372 0.0683111 0)
(0.0815856 0.0585146 0)
(0.0846667 0.049128 0)
(0.0872542 0.0401309 0)
(0.0894039 0.0314996 0)
(0.0911522 0.0232127 0)
(0.0925177 0.0152552 0)
(0.0935028 0.00762292 0)
(0.0940982 0.000324956 0)
(0.0942878 -0.00661422 0)
(0.0940542 -0.0131544 0)
(0.0933854 -0.0192409 0)
(0.0922792 -0.024808 0)
(0.0907498 -0.0297863 0)
(0.00714623 0.134808 0)
(0.0183382 0.145398 0)
(0.029412 0.136143 0)
(0.03945 0.125466 0)
(0.048462 0.114715 0)
(0.0564157 0.104098 0)
(0.0633523 0.0937016 0)
(0.0693417 0.0835776 0)
(0.0744686 0.0737596 0)
(0.0788254 0.0642662 0)
(0.0825034 0.0551042 0)
(0.0855864 0.0462724 0)
(0.088146 0.037765 0)
(0.0902393 0.0295751 0)
(0.0919074 0.021698 0)
(0.0931766 0.0141341 0)
(0.09406 0.00689172 0)
(0.0945609 -1.14405e-05 0)
(0.0946769 -0.00654722 0)
(0.0944042 -0.0126768 0)
(0.0937422 -0.0183516 0)
(0.0926973 -0.0235159 0)
(0.0912876 -0.0281125 0)
(0.00679522 0.122737 0)
(0.0180568 0.133435 0)
(0.0293088 0.125393 0)
(0.0393881 0.115847 0)
(0.0483742 0.106186 0)
(0.056271 0.0966167 0)
(0.0631428 0.087207 0)
(0.0690715 0.077992 0)
(0.0741455 0.068995 0)
(0.0784551 0.0602324 0)
(0.0820878 0.0517156 0)
(0.0851235 0.0434527 0)
(0.0876312 0.0354502 0)
(0.0896674 0.0277151 0)
(0.0912751 0.0202568 0)
(0.0924846 0.0130886 0)
(0.0933154 0.00622918 0)
(0.0937786 -0.000296638 0)
(0.0938805 -0.00645731 0)
(0.0936257 -0.0122146 0)
(0.0930216 -0.0175242 0)
(0.0920798 -0.0223373 0)
(0.0908209 -0.026605 0)
(0.00625803 0.11117 0)
(0.0174311 0.12139 0)
(0.0287049 0.114589 0)
(0.0387075 0.106267 0)
(0.0475569 0.0977536 0)
(0.0552881 0.0892559 0)
(0.0619919 0.0808335 0)
(0.0677669 0.0725162 0)
(0.072708 0.0643254 0)
(0.0769062 0.0562802 0)
(0.0804465 0.0483983 0)
(0.0834053 0.0406971 0)
(0.0858485 0.0331944 0)
(0.0878309 0.0259094 0)
(0.0893956 0.0188635 0)
(0.0905744 0.0120809 0)
(0.0913898 0.00558922 0)
(0.0918571 -0.000580533 0)
(0.0919873 -0.00639396 0)
(0.0917904 -0.0118131 0)
(0.0912783 -0.0167969 0)
(0.0904663 -0.0213014 0)
(0.0893761 -0.0252838 0)
(0.00573086 0.100283 0)
(0.0165981 0.109508 0)
(0.0276517 0.103903 0)
(0.0374088 0.0968575 0)
(0.0459958 0.0895295 0)
(0.0534637 0.0821108 0)
(0.0599218 0.0746627 0)
(0.0654802 0.0672189 0)
(0.0702382 0.0598066 0)
(0.0742861 0.0524518 0)
(0.0777061 0.0451807 0)
(0.080571 0.0380203 0)
(0.0829438 0.0309992 0)
(0.0848767 0.0241474 0)
(0.0864118 0.0174972 0)
(0.0875807 0.0110824 0)
(0.0884067 0.00493855 0)
(0.0889063 -0.000898017 0)
(0.0890926 -0.0063905 0)
(0.088978 -0.0115015 0)
(0.0885771 -0.0161924 0)
(0.0879074 -0.0204238 0)
(0.0869919 -0.0241569 0)
(0.00535534 0.0900641 0)
(0.0156961 0.0980548 0)
(0.0262632 0.0935688 0)
(0.0355803 0.0877877 0)
(0.0437687 0.0816311 0)
(0.05088 0.0752653 0)
(0.0570275 0.068756 0)
(0.0623223 0.0621465 0)
(0.0668617 0.0554736 0)
(0.0707328 0.0487728 0)
(0.0740133 0.0420796 0)
(0.0767722 0.0354308 0)
(0.0790689 0.0288648 0)
(0.0809535 0.0224219 0)
(0.0824661 0.0161441 0)
(0.0836371 0.0100744 0)
(0.0844888 0.00425581 0)
(0.0850368 -0.00127053 0)
(0.0852936 -0.00646605 0)
(0.0852721 -0.0112944 0)
(0.0849882 -0.0157201 0)
(0.0844613 -0.0197073 0)
(0.0837153 -0.0232212 0)
(0.00512775 0.0804225 0)
(0.0147678 0.0872557 0)
(0.0246283 0.083816 0)
(0.0333343 0.0792254 0)
(0.0410022 0.0741721 0)
(0.0476745 0.068795 0)
(0.0534551 0.0631651 0)
(0.058446 0.0573356 0)
(0.0627366 0.0513535 0)
(0.0664069 0.0452634 0)
(0.0695291 0.0391097 0)
(0.0721674 0.0329379 0)
(0.0743781 0.0267953 0)
(0.0762087 0.0207318 0)
(0.0776975 0.0147987 0)
(0.0788732 0.00904825 0)
(0.0797553 0.00353085 0)
(0.0803566 -0.00170745 0)
(0.0806867 -0.00662709 0)
(0.0807572 -0.0111941 0)
(0.0805846 -0.015377 0)
(0.0801898 -0.0191441 0)
(0.0795983 -0.0224639 0)
(0.00494457 0.0713196 0)
(0.0137703 0.0772673 0)
(0.0227865 0.0748105 0)
(0.03077 0.0712983 0)
(0.0378327 0.0672417 0)
(0.0440044 0.0627619 0)
(0.0493724 0.0579343 0)
(0.0540237 0.0528199 0)
(0.0580357 0.0474733 0)
(0.0614793 0.0419461 0)
(0.06442 0.0362897 0)
(0.0669173 0.0305566 0)
(0.0690243 0.0248022 0)
(0.0707865 0.0190847 0)
(0.0722408 0.0134651 0)
(0.0734135 0.00800518 0)
(0.074321 0.00276387 0)
(0.0749706 -0.00220736 0)
(0.0753664 -0.00686887 0)
(0.0755169 -0.0111913 0)
(0.0754389 -0.0151493 0)
(0.0751556 -0.0187163 0)
(0.0746952 -0.0218638 0)
(0.00470385 0.0628109 0)
(0.0126512 0.0681836 0)
(0.0207641 0.0666392 0)
(0.0279779 0.0640759 0)
(0.0343937 0.0608944 0)
(0.0400283 0.0572094 0)
(0.0449509 0.0530997 0)
(0.0492317 0.0486308 0)
(0.0529355 0.0438614 0)
(0.0561236 0.0388474 0)
(0.0588545 0.0336443 0)
(0.0611831 0.0283101 0)
(0.0631599 0.0229061 0)
(0.0648292 0.0174984 0)
(0.0662273 0.0121576 0)
(0.0673795 0.00695637 0)
(0.0682977 0.00196455 0)
(0.0689814 -0.00275912 0)
(0.0694254 -0.00717632 0)
(0.0696333 -0.0112664 0)
(0.0696228 -0.0150134 0)
(0.0694215 -0.0183973 0)
(0.0690611 -0.0213923 0)
(0.00436157 0.0550049 0)
(0.0114072 0.0600492 0)
(0.0186158 0.0593243 0)
(0.0250608 0.0575779 0)
(0.030822 0.0551523 0)
(0.0359046 0.0521622 0)
(0.040361 0.0486883 0)
(0.0442465 0.0447969 0)
(0.0476142 0.0405477 0)
(0.0505163 0.0359979 0)
(0.0530047 0.031205 0)
(0.0551301 0.0262297 0)
(0.0569408 0.0211377 0)
(0.0584816 0.0160016 0)
(0.0597901 0.0109014 0)
(0.0608923 0.00592309 0)
(0.0617969 0.00115167 0)
(0.0624916 -0.0033424 0)
(0.0629562 -0.00752411 0)
(0.0631874 -0.011389 0)
(0.0632068 -0.0149359 0)
(0.0630489 -0.0181524 0)
(0.0627514 -0.0210148 0)
(0.00393128 0.0479992 0)
(0.0100966 0.0528647 0)
(0.0164395 0.0528444 0)
(0.0221461 0.0517909 0)
(0.0272668 0.0500149 0)
(0.0317971 0.047631 0)
(0.0357761 0.0447187 0)
(0.0392474 0.0413425 0)
(0.0422542 0.0375609 0)
(0.0448406 0.0334303 0)
(0.0470517 0.0290079 0)
(0.0489338 0.0243548 0)
(0.0505339 0.0195382 0)
(0.0518984 0.0146351 0)
(0.0530692 0.00973461 0)
(0.0540777 0.00493832 0)
(0.0549326 0.000354113 0)
(0.0556055 -0.00392714 0)
(0.0560515 -0.00787545 0)
(0.0562588 -0.0115171 0)
(0.0562584 -0.0148733 0)
(0.0560976 -0.0179402 0)
(0.0558217 -0.0206924 0)
(0.00346553 0.0418302 0)
(0.00882544 0.0465854 0)
(0.0143705 0.0471496 0)
(0.0193854 0.0466823 0)
(0.0238906 0.0454682 0)
(0.0278767 0.0436164 0)
(0.0313748 0.041202 0)
(0.03442 0.0382867 0)
(0.0370469 0.0349268 0)
(0.0392916 0.0311768 0)
(0.0411918 0.027092 0)
(0.0427883 0.0227311 0)
(0.0441258 0.0181598 0)