/*--------------------------------*- C++ -*----------------------------------*\
  =========                 |
  \\      /  F ield         | OpenFOAM: The Open Source CFD Toolbox
   \\    /   O peration     | Website:  https://openfoam.org
    \\  /    A nd           | Version:  9
     \\/     M anipulation  |
\*---------------------------------------------------------------------------*/
FoamFile
{
    format      ascii;
    class       surfaceScalarField;
    location    "3.15";
    object      phi;
}
// * * * * * * * * * * * * * * * * * * * * * * * * * * * * * * * * * * * * * //

dimensions      [0 3 -1 0 0 0 0];

internalField   nonuniform List<scalar> 
1300
(
11.2529
1.87548
-5.65223
11.2529
-5.704
1.87548
-4.97822
4.97822
-1.7107
1.7107
5.71199
5.54087
-3.56841
3.56841
-4.14585
4.14585
-3.62626
3.62626
-1.06194
1.06194
-1.02866
1.02866
0.764093
-0.764093
-3.93734
3.93734
-2.29596
2.29596
-3.93855
3.93855
6.13558
-6.13558
-4.2653
4.2653
-0.977246
0.977246
-4.26
15.5129
6.99286
6.99286
-3.15529
3.15529
-1.26928
1.26928
1.4104
-1.4104
11.445
-11.445
-5.79277
-6.46272
2.04316
-14.8459
-3.66085
-3.66085
-2.7054
2.7054
-0.829927
1.04555
3.86563
-3.86563
-0.92232
0.92232
-5.01533
0.0371138
-5.01533
4.8648
0.113415
4.8648
-1.94131
0.230611
-1.94131
5.0011
-5.0011
1.52202
0.18868
1.52202
3.99772
-3.99772
-5.70922
11.4212
5.54364
-5.31983
20.8327
-5.93303
11.4739
-4.04483
4.04483
-3.46677
-0.101641
-3.46677
3.76941
-0.200996
3.76941
-4.23047
4.23047
-4.06374
-0.0821138
-4.06374
4.23059
-0.0847425
4.23059
4.11897
-4.11897
-3.68046
0.0542014
-3.68046
3.50603
0.120228
3.50603
0.771038
1.10444
-2.64651
3.69206
-1.10444
0.0425034
1.02613
0.0358034
1.02613
-1.01458
-0.0140793
-1.01458
1.05136
-0.0226981
1.05136
0.844414
-0.0803216
0.844414
-0.785073
0.0209805
-0.785073
-7.78468
-7.83557
-4.00112
0.0637748
-4.00112
-2.2712
-0.0247563
-2.2712
2.33376
-0.0377966
2.33376
-2.87682
2.87682
-4.25033
0.31178
-4.25033
4.83558
1.3
4.83558
5.04804
6.20482
16.3009
-16.3009
10.1653
-4.15876
-0.106548
-4.15876
-4.42386
-7.02114
4.42386
-0.158558
-1.10263
0.125388
-1.10263
5.63336
1.3595
5.63336
3.39577
0.110259
-3.39577
0.240487
4.92725
-4.92725
1.96915
1.18614
1.96915
-1.18654
1.18654
1.12878
-0.0774152
-1.12878
-0.140504
1.38604
0.0243587
1.38604
-1.40979
-0.00061342
-1.40979
7.68096
-14.1437
-7.44172
3.80615
0.131195
-3.80615
0.145301
3.98284
-0.117212
3.98284
-3.77525
3.77525
-3.87882
0.0131947
-3.87882
-0.825146
-0.097174
-0.825146
1.03389
-0.111567
1.03389
-5.11617
0.100844
-5.11617
-4.62366
0.37333
4.62366
0.241141
1.55377
-1.55377
-2.11792
0.176616
-2.11792
-5.05894
-0.0572354
5.05894
-0.0578355
-5.05162
0.0505222
-5.05162
-3.86248
-0.0163419
3.86248
0.135241
4.60851
1.02485
-4.60851
0.610791
-5.37166
11.5765
-5.8812
11.4248
-3.80139
-0.243447
-3.80139
4.2309
-0.186066
4.2309
3.7098
0.228748
-3.7098
0.243029
3.98804
-0.218637
3.98804
-4.1905
-0.0399676
-4.1905
4.13266
0.0978122
4.13266
4.07039
-0.0823447
-4.07039
0.00665408
4.24785
-0.0172618
4.24785
4.17168
-0.0527154
4.17168
-4.04249
-0.0764792
-4.04249
3.82354
-3.82354
3.80484
0.0187001
-3.80484
0.124375
-5.07399
5.07338
-0.00800775
-5.06598
1.01812
1.01812
0.93257
-0.0881555
0.93257
-0.862412
0.0773382
-0.862412
7.85239
-15.2941
7.72335
-15.508
7.22915
-22.0751
7.56248
-15.398
4.16891
-4.16891
4.15414
0.0147702
-4.15414
0.153027
-2.17523
-0.095973
-2.17523
-2.62681
-0.250007
-2.62681
3.24282
-0.366
3.24282
-3.93778
3.93778
-4.20965
0.271879
4.20965
0.625921
4.24174
0.00611402
-4.24174
0.0829842
1.3021
0.219921
-1.3021
0.199461
5.11134
-0.184091
5.11134
-4.51896
-0.408288
-4.51896
-2.07616
-0.0990661
2.07616
-0.107014
-1.25737
0.0708289
-1.25737
-5.07448
0.00849879
-5.03868
-1.40129
-1.40129
1.30411
4.99618
-4.0552
0.0127107
4.0552
-0.0723601
3.85737
0.0804029
-3.85737
0.0821193
-3.813
-0.010541
3.813
-0.0377416
-0.799573
-0.0255738
-0.799573
-1.25804
1.25804
-1.12854
-0.129492
1.12854
-0.0946577
1.72961
-0.175838
1.72961
2.25913
0.0746221
-2.25913
0.14121
-5.19391
0.142284
-5.19391
4.27254
-0.0416382
4.27254
-4.35206
-0.166905
4.35206
-0.180374
-0.00372212
5.0771
-1.0144
-0.000182195
1.0144
-5.10146
5.10128
-0.80688
0.00730756
0.80688
0.12569
1.02269
0.163854
-1.02269
0.160279
4.13653
-0.00387106
-4.13653
-0.0323866
-2.34631
-0.280506
-2.34631
-3.5501
-0.251285
3.5501
-0.307281
-5.1139
-0.0792727
5.19317
-5.1366
1.33665
0.049398
-1.33665
5.15068
-1.39896
-0.15481
1.39896
-0.140925
1.95377
-0.224161
1.95377
5.3251
-0.213757
-5.3251
0.13119
-4.28792
0.097417
4.28792
-0.0153791
-2.13746
-0.208851
2.13746
-0.183686
-13.1345
14.494
7.69824
-7.09903
-7.04466
-14.1202
4.45677
7.11971
14.6221
-12.552
-9.52301
-12.4067
2.86262
-2.70234
-4.19795
4.11763
23.1307
-23.0802
-18.4876
19.1135
20.6619
-20.5266
5.69724
5.72397
19.3851
-19.4867
-20.2578
20.0143
19.3003
-19.3824
20.9919
-21.0318
-24.5726
24.5687
-17.6601
17.7143
-20.7955
20.719
-21.4088
21.2284
-7.77761
-7.73043
16.854
-16.7902
23.0054
-23.112
-21.7688
22.0806
10.0526
4.44138
11.0774
-6.24651
11.9438
-5.22739
12.9256
7.57089
-15.3485
7.72322
-14.7679
11.0185
11.9869
-10.8599
-3.26024
-18.3642
18.247
-18.0758
18.0381
24.4698
-24.4327
-6.16822
11.8922
-5.25662
12.3763
-11.4112
-7.07634
10.1112
4.51086
9.6891
7.16486
-9.82029
-2.58645
-24.3492
24.1355
-25.4366
25.0283
0.0485905
2.459
-2.50759
1.31787
-0.799241
3.25825
2.06338
2.14072
2.44688
-2.28302
0.255462
-2.76306
-2.90356
-7.10664
7.28326
6.84905
-6.66037
16.7099
6.42086
16.652
-16.6016
-6.47857
-16.4594
11.5378
7.57565
11.8097
12.2532
8.40871
12.2368
10.394
-10.2912
-0.102881
-11.4119
21.8059
1.60102
-18.4882
-13.9774
11.9172
7.46788
11.7162
-12.4174
-7.06933
-12.1744
-11.1847
-9.07309
-11.436
12.2345
7.77988
12.0484
-14.8588
14.8434
12.1852
7.11505
12.1005
-11.8828
-7.49958
-11.8762
24.1652
-6.02774
-18.1375
-12.8874
-11.6851
12.7896
8.20225
14.1359
10.4328
14.1035
8.00615
16.1591
-16.2084
4.52328
-11.0983
-6.56186
-10.9739
10.7994
6.91494
10.9196
-12.3338
-8.46171
-12.3211
-12.6205
-8.78831
12.6732
8.04578
-13.0509
-12.3857
13.2178
8.01067
6.93002
-16.453
8.46803
-16.1985
-11.2331
-5.55705
-11.0801
9.46266
6.28721
-15.7499
-5.88584
23.914
-11.927
20.6537
-13.3676
-9.74439
-13.2846
-16.5645
-5.20429
-16.1912
-8.74302
8.46252
-9.48053
9.11453
24.4693
-14.0798
-10.3895
-12.3377
-8.18889
11.727
-0.649535
-12.8595
12.7567
-0.915786
12.0098
16.4512
15.8017
-11.2786
-6.79725
-11.1965
11.23
6.80812
11.2194
17.1684
7.3014
17.2818
-17.2297
-7.20301
-17.1288
5.78988
-5.88705
7.44193
-7.54099
15.7501
9.27817
-15.566
-8.78322
22.129
-10.6358
-11.4932
-5.36116
5.9505
-0.58934
-2.10291
-0.785042
0.192204
-2.06186
-2.13608
2.04088
0.0998316
6.05033
3.91425
-2.40996
2.48079
2.78321
2.7058
-0.197763
3.00825
-3.00094
18.4961
-10.5407
-7.95537
14.2753
-14.3326
-2.8535
-18.165
15.3115
2.31947
4.08295
-3.95756
-5.37982
-1.72682
-5.23861
4.01239
2.83666
4.23231
2.75299
4.53027
-9.66892
1.89949
7.76943
-6.91593
-4.76088
-12.5473
-5.31643
17.8637
16.6186
7.51684
-16.7498
0.290477
7.172
-7.20979
-1.8414
-10.7059
8.43865
-10.28
-13.6204
-6.11594
19.7364
-9.76218
-1.43427
9.68178
2.12793
-11.1276
-7.23664
11.1144
1.12245
-11.503
23.0322
-11.5292
-18.3003
8.64118
13.1647
16.2168
-17.7565
9.15085
8.60562
-4.59172
10.1262
1.59005
9.90755
-20.3008
13.2314
13.8181
8.26252
-14.0468
1.87246
-18.4283
22.9646
-19.9963
-2.96832
12.1217
10.843
12.1003
12.369
-7.88095
19.9813
-2.68664
-17.3097
21.1149
-12.8524
13.9456
-26.798
-26.3146
9.00494
-16.2284
19.6254
-3.39707
-4.84222
-10.0166
21.0706
-1.99018
-19.0804
10.0582
-12.6137
-12.0774
24.6911
-18.6415
19.5769
-6.26374
-13.3132
-12.3568
-8.67502
12.2594
2.58403
-23.0719
27.5952
-6.91282
10.3001
1.80033
10.2829
9.38946
-13.9925
4.60306
9.25201
-15.5158
6.42497
-20.4175
-10.9213
21.7859
-10.8646
-16.4784
-14.5834
-1.89495
4.60983
22.9854
-15.0426
11.5452
3.49738
9.46739
1.75202
-9.48609
-1.48783
1.20661
15.9935
-17.2001
12.1262
12.2365
12.1857
3.80787
11.3084
6.93859
-11.236
-1.08501
-14.211
5.42265
-6.16518
-13.1085
18.5312
-14.8632
1.75468
-9.72015
-13.0957
22.8159
-16.282
11.3009
11.7313
18.1091
-18.1326
5.03688
-9.10452
-9.0281
9.82634
-15.9915
6.82408
11.7071
14.8348
2.44905
11.1497
10.6362
-17.4369
1.23847
17.801
-15.2146
3.4995
10.604
-15.0447
0.461321
-10.6188
2.7048
-14.6318
-13.0451
15.1876
-20.3919
-11.6104
14.9912
2.29061
-15.2324
-0.958858
-5.57846
-3.16456
-5.78731
-3.38717
-6.09336
-11.2681
-2.11915
-9.14897
6.34336
-7.11748
-4.31851
7.42476
1.68977
-5.83896
5.68415
-6.43909
6.21493
-0.231926
12.9886
15.5698
7.38087
-8.39686
15.7777
-14.8185
22.1199
-27.3198
12.5013
14.4449
-21.6479
-12.8749
3.26305
2.52682
3.15149
13.5438
-14.674
1.1302
-13.4979
17.1774
-3.67953
-20.2901
6.79225
-6.74637
6.93173
0.510203
6.83575
2.04063
7.56502
-9.60565
-5.50036
-5.60738
-8.09852
-12.581
20.6796
4.59924
-11.9895
7.39024
-12.2297
16.8289
0.292886
-12.2824
17.9832
-10.4182
18.4934
-11.9368
6.55662
11.7108
20.3809
-8.67012
15.201
-5.9228
6.16329
-14.8334
-6.41775
-10.9571
17.8721
-11.8588
13.6134
-0.671945
14.2854
-14.1856
3.54986
-1.99996
10.2365
10.477
15.3938
-11.586
10.9328
-16.8556
-3.90065
-14.4065
-2.6994
0.738953
-12.8377
12.0987
11.968
-11.229
-3.74751
9.97811
-6.23061
6.65188
-3.35532
-3.29657
-2.22788
-3.65917
2.25345
0.754794
7.40668
0.589703
-3.94502
-2.41124
-2.28555
10.049
8.44706
-5.00566
4.41632
4.81346
-0.730507
1.32477
2.90754
5.78888
-4.46411
0.850565
4.93832
-3.107
5.24579
1.92621
-5.32041
0.0817975
-4.04565
12.4843
3.72378
-6.56044
2.09633
2.4274
-12.9681
17.7223
-10.0235
-7.69881
20.1498
3.03324
-13.0568
15.1318
-12.8123
7.46565
-12.7821
-5.59113
-18.4034
-11.9826
-9.68451
17.0747
-10.9951
18.5119
3.45431
-18.8024
22.2567
-12.4753
6.35932
-10.5115
12.4377
-4.35366
-6.15783
10.2643
9.4721
-10.2203
-0.485574
0.0439835
8.5321
-8.48812
-1.74794
-8.66388
-16.2282
17.3506
-7.95828
17.1091
7.81945
-7.21582
24.3249
6.71439
-13.9302
-11.5859
-13.0202
-5.32459
10.8922
-2.03719
-9.83897
-15.3504
9.92131
-0.0137655
-19.7835
22.8649
-3.08142
-12.3156
-0.91584
13.0375
-17.457
1.94128
-11.0321
11.8328
13.4229
13.4091
-19.039
-0.0414326
-11.2591
3.05695
-14.3161
13.8999
-6.51039
15.5153
-15.1606
10.8421
-13.4709
12.547
-1.76904
12.8702
-8.26719
5.26726
-13.9423
-11.3582
15.3282
-8.21311
17.1285
-9.56515
26.6937
-16.478
15.2129
11.4808
-2.83987
-10.4447
-15.0571
12.2173
0.155733
10.4386
17.3405
-10.4019
16.2555
8.19777
-17.3023
-7.79375
-24.2391
6.93685
-12.5079
-6.85744
13.7943
11.2516
13.0036
4.76619
-11.5158
15.4189
-17.3138
-4.55431
-8.49076
15.1414
-2.9241
9.23483
-17.7256
-5.39699
11.9532
-0.5798
-11.3734
2.12667
-13.737
5.16871
-18.9057
15.2232
-16.1821
2.10367
-8.85004
-3.7353
-3.87622
-2.4053
-4.03379
-8.26678
5.86148
-1.47453
4.20962
-12.1543
11.5745
-5.02313
10.8846
-4.68294
-1.10437
4.86663
1.3483
12.2329
2.43047
-15.3054
-8.55699
14.0281
-5.4711
1.49203
-10.4072
3.62091
7.58509
12.5647
-22.8966
1.24873
-14.0567
-4.60864
7.13547
5.36947
17.3374
2.66345
7.54841
-0.41294
10.2119
2.73855
2.64389
-10.2491
11.3793
1.84962
14.351
-2.24265
8.79927
4.5931
4.56835
2.64145
6.73919
3.73784
10.2891
0.683399
-4.92398
2.40815
-4.6937
-1.53687
-4.78185
-0.664228
4.25778
-4.92201
10.6699
-2.22281
5.19878
-2.04618
-5.98366
8.02984
-10.0016
-6.71417
-1.77585
-6.08956
8.18589
6.39474
-6.41005
-3.5915
1.93006
-13.9126
10.852
-11.3376
-1.86548
20.3912
-9.77048
1.28236
-3.41116
-7.38151
-9.10833
9.02654
23.2134
1.11151
11.6843
18.4621
11.2255
0.823596
10.9423
-14.3394
-9.47518
-14.3808
-0.48091
12.5566
4.74331
18.2421
16.2241
13.3
-4.42562
-21.7394
18.5351
-7.15579
14.8555
-3.48216
-15.4236
14.2757
7.84413
-16.5663
0.384277
-15.0393
-22.1951
-0.512815
12.0873
-11.7201
10.6157
7.45117
1.6978
-2.87899
-0.997227
3.00849
-0.364597
9.84726
-0.141453
-9.21559
9.35704
-4.11633
2.57946
-0.805081
5.2214
7.22476
5.00195
-4.21364
-9.13565
-7.95149
-5.01663
-15.6503
2.21339
-8.60813
6.48899
-3.90953
3.19242
5.44751
10.6463
-1.75364
-9.47537
7.98425
-4.79183
5.85446
)
;

boundaryField
{
    wall-4
    {
        type            calculated;
        value           uniform 0;
    }
    velocity-inlet-5
    {
        type            calculated;
        value           uniform -11.2529;
    }
    velocity-inlet-6
    {
        type            calculated;
        value           uniform -1.87548;
    }
    pressure-outlet-7
    {
        type            calculated;
        value           nonuniform List<scalar> 8(5.65223 5.704 12.2555 12.8028 15.6203 15.1227 15.5757 14.7916);
    }
    wall-8
    {
        type            calculated;
        value           uniform 0;
    }
    frontAndBackPlanes
    {
        type            empty;
        value           nonuniform List<scalar> 0();
    }
}


// ************************************************************************* //
