/*--------------------------------*- C++ -*----------------------------------*\
  =========                 |
  \\      /  F ield         | OpenFOAM: The Open Source CFD Toolbox
   \\    /   O peration     | Website:  https://openfoam.org
    \\  /    A nd           | Version:  9
     \\/     M anipulation  |
\*---------------------------------------------------------------------------*/
FoamFile
{
    format      ascii;
    class       volScalarField;
    location    "6";
    object      epsilon;
}
// * * * * * * * * * * * * * * * * * * * * * * * * * * * * * * * * * * * * * //

dimensions      [0 2 -3 0 0 0 0];

internalField   nonuniform List<scalar> 
2268
(
0.000286674
0.001495
0.00263914
0.00365636
0.00455932
0.00536425
0.00608843
0.00674273
0.00733077
0.00785221
0.0083143
0.00873326
0.0091231
0.0094735
0.00971441
0.00965807
0.00897028
0.00777809
0.00643489
0.0053505
0.00442727
0.00304534
0.000880529
0.0005777
0.00100042
0.00146841
0.00190317
0.00229663
0.00265065
0.00296967
0.00325737
0.00351608
0.00374734
0.00395385
0.00413906
0.00430396
0.0044414
0.0045274
0.00451156
0.00433489
0.00407931
0.00367775
0.00317473
0.00261807
0.0020035
0.00145451
0.000972454
0.00106066
0.00136104
0.00166333
0.00194478
0.00220114
0.00243312
0.00264255
0.00283125
0.00300092
0.00315346
0.00329038
0.00341092
0.00350924
0.00357061
0.00356979
0.00348722
0.00335901
0.00313919
0.00283638
0.00250432
0.00222305
0.00240914
0.00135725
0.00119396
0.0014011
0.00163773
0.00186619
0.00207728
0.00226933
0.00244311
0.00260008
0.00274188
0.00287016
0.00298595
0.00308824
0.00317219
0.00322721
0.00323741
0.0031934
0.00311296
0.00297476
0.00279455
0.00263177
0.00261041
0.00347976
0.00172427
0.00134866
0.00148794
0.00168084
0.00187538
0.00205793
0.00222496
0.00237654
0.00251392
0.00263868
0.00275242
0.00285606
0.00294874
0.00302646
0.00308103
0.00310117
0.00308087
0.00303072
0.00294771
0.00285987
0.00284183
0.00307559
0.00478509
0.00207798
0.00151204
0.0015963
0.00175606
0.00192552
0.00208699
0.0022355
0.00237066
0.0024937
0.00260622
0.00270982
0.0028055
0.00289263
0.00296788
0.00302462
0.0030543
0.00305252
0.00302826
0.002991
0.00298023
0.00309362
0.0036072
0.00641501
0.002426
0.00168017
0.00171712
0.00185018
0.00199961
0.00214397
0.00227716
0.00239872
0.00251001
0.0026127
0.00270848
0.00279845
0.00288223
0.00295699
0.00301718
0.00305608
0.00307064
0.00307049
0.00307417
0.00312909
0.00335827
0.00418454
0.0087649
0.00277651
0.00185065
0.00184619
0.00195735
0.00209014
0.00221971
0.00233924
0.00244857
0.0025494
0.00264355
0.00273278
0.00281832
0.00289998
0.00297536
0.00303966
0.00308738
0.00311687
0.0031389
0.00317783
0.00328483
0.00359791
0.00471245
0.0140856
0.00087236
0.00361761
0.00562365
0.00673302
0.00735833
0.00769598
0.00798791
0.00831039
0.00845749
0.00770659
0.00615634
0.00463215
0.00346241
0.00415355
0.00575404
0.00529633
0.00334974
0.00189395
0.000669268
0.00102236
0.00206878
0.00281854
0.00326523
0.00351986
0.00365603
0.00374567
0.0038158
0.00381065
0.00357976
0.00319513
0.00272936
0.00235058
0.0024327
0.00257885
0.00237069
0.00174932
0.00119875
0.000795492
0.00157427
0.00204549
0.00246799
0.00272565
0.00287277
0.00295108
0.00299638
0.003018
0.00297816
0.00281776
0.00260033
0.00233657
0.00210771
0.00206862
0.00204323
0.00186453
0.00148862
0.00113444
0.00100836
0.00231274
0.00227484
0.00246743
0.00259936
0.00267704
0.00271735
0.00273687
0.00273452
0.00267824
0.0025399
0.00237639
0.0021928
0.00203253
0.00197165
0.00188558
0.00170907
0.00141979
0.0011506
0.00115606
0.00326344
0.00261718
0.00258242
0.00260469
0.00262446
0.00263229
0.00263008
0.00260979
0.00254338
0.00241722
0.00228141
0.00214433
0.00203017
0.0019683
0.00184669
0.00166804
0.00141598
0.00119134
0.0012932
0.00453955
0.00302951
0.00274578
0.00266642
0.00263491
0.00261307
0.00259049
0.00255455
0.0024811
0.00236509
0.00225272
0.00215051
0.00207014
0.00200103
0.0018598
0.00167601
0.00143979
0.00124395
0.00141402
0.00661826
0.00348504
0.00292352
0.00275337
0.00267729
0.0026285
0.00258671
0.00253679
0.00245878
0.00235311
0.00226493
0.00219272
0.00213216
0.00204608
0.0018968
0.00170652
0.00147834
0.00130524
0.00153919
0.0114952
0.00391197
0.00308875
0.00284916
0.00273686
0.00266444
0.00260511
0.00254303
0.00246281
0.0023684
0.00230174
0.00225422
0.00219911
0.00209434
0.00194262
0.0017498
0.00153241
0.00137686
0.0016909
0.00327271
0.00211215
0.00205589
0.00213998
0.00225093
0.00235971
0.00245917
0.00255036
0.00263584
0.00271771
0.00279782
0.00287752
0.00295697
0.00303431
0.00310556
0.00316653
0.00321733
0.00327
0.00335222
0.00351261
0.00386246
0.00469741
0.00701082
0.00396212
0.00248245
0.00237155
0.00243065
0.0025174
0.00259948
0.00267106
0.00273716
0.00280199
0.0028677
0.0029362
0.0030089
0.00308646
0.00316767
0.00324895
0.0033261
0.00339948
0.00347909
0.0035862
0.0037539
0.00404574
0.00456708
0.00544928
0.00468883
0.00288787
0.00272071
0.002759
0.00281932
0.00287286
0.00291344
0.00295348
0.00299774
0.00304722
0.00310424
0.00317022
0.00324646
0.0033329
0.00342585
0.00351998
0.00361402
0.00371081
0.00382216
0.00396639
0.00417109
0.0044673
0.00483154
0.00567553
0.00337156
0.00310262
0.00310893
0.003119
0.00315038
0.0031591
0.00317502
0.00320205
0.00323797
0.00328581
0.00334684
0.00342382
0.00351858
0.00362716
0.00374283
0.00386117
0.00396658
0.00406869
0.00417818
0.00429918
0.0044492
0.00460206
0.00722907
0.00371999
0.00337171
0.00333849
0.00333406
0.00336212
0.00333033
0.0033168
0.00334429
0.00339199
0.00345142
0.00352084
0.0036034
0.00370666
0.00382897
0.00396256
0.00408349
0.0041589
0.00427789
0.0044012
0.00444009
0.004497
0.00455515
0.00777635
0.00388723
0.00365719
0.00360338
0.00353941
0.00363728
0.00351319
0.00342557
0.00343149
0.00348274
0.00355742
0.00364037
0.0037377
0.00385852
0.00400102
0.00415264
0.00426095
0.00428667
0.00437206
0.0045143
0.00452528
0.00450895
0.00449289
0.00692689
0.00379191
0.00344866
0.00341487
0.00340914
0.00345923
0.00344253
0.00343796
0.00347622
0.00354045
0.00362178
0.00371594
0.00382277
0.00394222
0.00406374
0.00417329
0.00424997
0.00428853
0.00435428
0.00442093
0.00443784
0.0044208
0.00443501
0.00746898
0.00365168
0.00335072
0.0033133
0.00331501
0.00335919
0.00339593
0.00343918
0.00350228
0.00358363
0.0036731
0.00376866
0.0038652
0.00395783
0.00404189
0.00412066
0.00418852
0.00425316
0.00431745
0.00436105
0.00435256
0.00434309
0.00433638
0.00747006
0.00360557
0.00328635
0.00324808
0.00325424
0.00329893
0.00335993
0.00343057
0.0035111
0.00359946
0.00368921
0.00377709
0.00385833
0.00393083
0.00399734
0.00406428
0.00412898
0.00419113
0.00424563
0.00427581
0.00426152
0.00424883
0.00423133
0.00176903
0.00359729
0.00325426
0.0032013
0.00321291
0.00326105
0.00333124
0.00341302
0.00350082
0.00359101
0.00367872
0.00375994
0.00383147
0.00389404
0.00395234
0.00401135
0.00406837
0.00411881
0.00415991
0.00418065
0.00417707
0.00416662
0.00414788
0.00749128
0.0036735
0.003262
0.00318329
0.00319167
0.00323976
0.00331085
0.00339399
0.00348213
0.0035708
0.00365553
0.00373223
0.00379896
0.00385721
0.00391074
0.00396276
0.00401162
0.00405399
0.00408762
0.00410691
0.00411096
0.00410419
0.00408589
0.00746624
0.00378823
0.00329726
0.00318753
0.00318568
0.00322933
0.00329691
0.00337685
0.00346189
0.00354714
0.00362829
0.00370187
0.0037666
0.00382345
0.0038748
0.00392275
0.00396685
0.00400517
0.00403595
0.00405632
0.0040649
0.00406176
0.00404655
0.00755598
0.00390709
0.00334316
0.00320425
0.0031894
0.00322581
0.00328776
0.00336278
0.00344337
0.00352449
0.00360222
0.00367379
0.00373807
0.00379533
0.00384682
0.00389385
0.00393655
0.0039739
0.00400457
0.00402679
0.00403894
0.00403994
0.00402959
0.00778467
0.00399587
0.00338839
0.0032269
0.0031992
0.00322733
0.00328294
0.00335263
0.00342864
0.00350595
0.00358107
0.00365168
0.00371657
0.00377549
0.00382891
0.00387749
0.00392139
0.00396012
0.00399266
0.00401765
0.0040336
0.0040394
0.00403478
0.00799017
0.00407367
0.00343212
0.00325222
0.0032129
0.003233
0.00328248
0.00334723
0.00341931
0.0034938
0.00356748
0.0036382
0.00370467
0.00376629
0.00382299
0.0038749
0.00392202
0.003964
0.00400003
0.00402899
0.00404961
0.00406098
0.00406274
0.00818124
0.00414495
0.00347372
0.00327835
0.00322907
0.00324215
0.00328639
0.00334719
0.00341652
0.00348952
0.00356307
0.00363508
0.00370418
0.00376952
0.00383066
0.00388736
0.00393937
0.00398626
0.00402734
0.00406165
0.00408817
0.00410611
0.00411505
0.00835927
0.00421022
0.00351259
0.0033042
0.0032467
0.00325417
0.00329451
0.00335276
0.00342081
0.00349381
0.00356868
0.00364331
0.00371624
0.00378647
0.00385328
0.00391616
0.00397461
0.0040281
0.00407592
0.00411722
0.00415113
0.0041769
0.00419408
0.00852421
0.00426962
0.00354845
0.00332914
0.00326518
0.00326861
0.00330661
0.0033639
0.0034323
0.00350694
0.00358471
0.00366346
0.00374167
0.00381818
0.00389211
0.00396272
0.00402932
0.00409123
0.00414769
0.00419785
0.00424089
0.00427608
0.00430288
0.00867494
0.00432325
0.00358123
0.00335291
0.00328419
0.00328522
0.00332252
0.00338055
0.00345104
0.00352906
0.00361146
0.00369606
0.00378124
0.00386576
0.00394856
0.00402875
0.00410548
0.0041779
0.00424515
0.00430634
0.00436059
0.00440712
0.00444528
0.00881126
0.00437125
0.00361098
0.00337548
0.00330366
0.00330394
0.00334223
0.00340278
0.00347717
0.00356045
0.0036494
0.00374181
0.00383598
0.00393056
0.0040244
0.00411642
0.00420563
0.00429102
0.00437158
0.00444631
0.00451422
0.0045744
0.00462609
0.00893298
0.00441379
0.00363783
0.00339697
0.00332371
0.00332492
0.00336595
0.00343084
0.00351107
0.00360164
0.00369929
0.00380175
0.00390726
0.00401439
0.00412184
0.00422842
0.00433294
0.00443423
0.0045311
0.00462235
0.00470685
0.00478349
0.00485134
0.00904099
0.00445103
0.003662
0.00341761
0.00334462
0.00334847
0.00339407
0.00346523
0.00355339
0.00365348
0.00376223
0.00387731
0.00399691
0.00411951
0.00424369
0.00436809
0.00449135
0.00461207
0.00472884
0.00484022
0.00494483
0.00504134
0.00512858
0.00913564
0.00448309
0.0036837
0.0034377
0.00336674
0.00337505
0.00342712
0.00350663
0.00360497
0.00371707
0.00383962
0.00397028
0.00410719
0.00424873
0.00439336
0.00453953
0.00468566
0.0048301
0.00497112
0.005107
0.00523603
0.00535657
0.00546714
0.00921223
0.00450975
0.0037032
0.00345763
0.00339053
0.00340519
0.00346577
0.00355588
0.00366689
0.00379375
0.00393319
0.00408285
0.00424083
0.00440542
0.00457495
0.00474766
0.0049217
0.00509507
0.00526569
0.00543143
0.00559015
0.00573981
0.00587857
0.00926954
0.00453129
0.00372089
0.00347782
0.00341651
0.00343949
0.00351077
0.00361391
0.00374035
0.00388509
0.00404492
0.00421753
0.004401
0.00459354
0.00479333
0.00499836
0.00520644
0.00541517
0.00562198
0.00582418
0.0060191
0.00620416
0.00637703
0.00931316
0.00454866
0.00373727
0.00349876
0.0034452
0.00347862
0.00356293
0.00368176
0.00382666
0.00399277
0.00417701
0.00437716
0.00459132
0.00481766
0.00505417
0.00529857
0.00554825
0.00580028
0.00605143
0.0062983
0.00653749
0.00676572
0.00697991
0.00934676
0.00456274
0.00375288
0.00352093
0.00347714
0.00352321
0.00362306
0.00376047
0.00392719
0.00411861
0.00433185
0.00456486
0.00481585
0.00508296
0.00536402
0.00565643
0.00595705
0.00626224
0.00656792
0.00686972
0.00716324
0.00744427
0.00770857
0.00937192
0.00457403
0.00376809
0.00354475
0.00351283
0.00357388
0.00369194
0.00385106
0.00404331
0.00426443
0.0045119
0.00478395
0.00507899
0.00539523
0.00573035
0.00608138
0.00644453
0.00681523
0.00718823
0.00755786
0.00791826
0.00826389
0.00858911
0.00938838
0.0045825
0.00378311
0.00357055
0.00355272
0.0036312
0.0037703
0.00395448
0.00417629
0.004432
0.0047196
0.00503781
0.0053854
0.00576076
0.0061615
0.00658423
0.00702436
0.00747612
0.00793259
0.00838622
0.00882926
0.00925428
0.00965379
0.00939114
0.00458718
0.00379788
0.00359859
0.00359722
0.00369567
0.00385876
0.00407153
0.00432723
0.00462286
0.00495721
0.00532971
0.00573976
0.00618615
0.00666655
0.00717712
0.00771228
0.00826465
0.00882514
0.00938356
0.00992936
0.0104523
0.0109425
0.00936335
0.00458667
0.00381246
0.00362926
0.00364677
0.00376777
0.00395782
0.0042028
0.0044969
0.00483818
0.00522654
0.0056625
0.00614645
0.00667791
0.00725485
0.00787315
0.00852607
0.00920411
0.00989513
0.0105851
0.0112595
0.0119037
0.0125048
0.00931109
0.00458461
0.00382827
0.00366322
0.00370184
0.00384788
0.00406779
0.00434852
0.00468556
0.00507841
0.00552851
0.00603802
0.00660886
0.00724183
0.00793572
0.00868634
0.00948573
0.0103217
0.0111777
0.0120343
0.0128705
0.0136658
0.0144029
0.0092375
0.00458204
0.00384521
0.00370064
0.0037628
0.00393628
0.0041887
0.00450846
0.00489274
0.00534298
0.0058628
0.00645667
0.00712884
0.0078823
0.00871745
0.00963068
0.0106129
0.0116485
0.012715
0.0137844
0.0148265
0.0158113
0.0167153
0.00912458
0.00457194
0.00386208
0.00374205
0.00383049
0.00403357
0.00432058
0.00468191
0.00511703
0.00562997
0.00622723
0.00691652
0.00770559
0.00860089
0.00960586
0.0107187
0.0119298
0.0132196
0.0145573
0.0159022
0.017209
0.0184335
0.0195425
0.00896078
0.00455035
0.00387958
0.00378985
0.00390735
0.00414127
0.00446364
0.0048677
0.0053559
0.00593559
0.00661705
0.00741235
0.00833422
0.00939451
0.010602
0.0119589
0.013457
0.0150728
0.0167642
0.0184711
0.0201236
0.0216539
0.0230146
0.00872047
0.00451699
0.00390367
0.00385124
0.00399919
0.00426278
0.00461869
0.00506416
0.00560541
0.0062538
0.00702425
0.00793446
0.00900404
0.0102529
0.0116986
0.0133517
0.0152091
0.0172453
0.0194042
0.0215962
0.023709
0.0256339
0.0273023
0.00835473
0.00448123
0.00395421
0.00394416
0.00411833
0.00440458
0.0047873
0.0052689
0.00585982
0.0065757
0.00743676
0.00846756
0.00969668
0.0111556
0.0128757
0.0148827
0.0171866
0.0197664
0.0225518
0.0254094
0.028152
0.0305923
0.0326321
0.00779904
0.00449992
0.00409171
0.00411048
0.00428831
0.00457709
0.00497135
0.00547814
0.006111
0.00688916
0.00783802
0.00898984
0.0103843
0.0120684
0.014094
0.0165125
0.0193613
0.0226407
0.026276
0.0300749
0.0337137
0.036835
0.0393076
0.00749378
0.00490061
0.00450567
0.00444329
0.00454867
0.0047931
0.00517076
0.0056851
0.00634767
0.00717849
0.00820692
0.00947295
0.0110288
0.0129406
0.0152884
0.0181629
0.0216529
0.0258146
0.0306076
0.0357864
0.0407824
0.0448048
0.0477368
0.0159964
0.00781563
0.0058143
0.00513128
0.00495004
0.00505874
0.00537774
0.0058773
0.00655453
0.00742478
0.00851882
0.00988324
0.0115829
0.0137049
0.0163633
0.0197025
0.0238939
0.0291118
0.0354531
0.0427266
0.0500029
0.0551695
0.058459
0.15528
0.0268003
0.00990472
0.00645459
0.00550667
0.00534905
0.00556732
0.00603372
0.00671222
0.00760714
0.00874778
0.0101852
0.0119947
0.0142826
0.0171964
0.0209402
0.0257933
0.032126
0.0403788
0.0508513
0.0626627
0.0689596
0.07214
1.53841
0.128867
0.0203966
0.0083412
0.00604822
0.0055708
0.00569048
0.00612532
0.00679948
0.00770555
0.0088703
0.0103468
0.0122165
0.0145973
0.0176591
0.0216492
0.0269385
0.0341086
0.0441387
0.0588461
0.08201
0.0876493
0.0894341
0.01584
0.0126603
0.0131256
0.0165029
0.00635618
0.00641994
0.0063759
0.00617595
0.00503283
0.00506495
0.00500694
0.00485916
0.00465929
0.00465835
0.00461719
0.00453443
0.00456372
0.00455722
0.00453615
0.00447399
0.00449389
0.00446853
0.00443331
0.00439057
0.00440939
0.00440203
0.00438592
0.00433519
0.00431157
0.00429237
0.00425706
0.00421296
0.00420825
0.00418655
0.00415592
0.00411946
0.00412324
0.00410325
0.00407814
0.0040484
0.00406247
0.00404444
0.004023
0.00399839
0.00402645
0.004011
0.00399273
0.00397185
0.00401385
0.00400137
0.00398624
0.00396866
0.0040239
0.00401462
0.00400276
0.00398849
0.00405705
0.00405117
0.00404276
0.00403194
0.00411499
0.00411278
0.00410806
0.00410091
0.00420031
0.00420215
0.00420147
0.00419832
0.00431628
0.00432269
0.00432655
0.00432786
0.00446698
0.00447867
0.00448772
0.00449413
0.00465753
0.00467537
0.00469045
0.00470276
0.00489431
0.00491941
0.00494158
0.00496079
0.00518528
0.00521898
0.00524953
0.00527688
0.00554026
0.00558423
0.00562475
0.00566174
0.00597138
0.00602763
0.00608005
0.00612851
0.00649353
0.00656451
0.00663116
0.00669331
0.00712496
0.00721364
0.00729733
0.00737582
0.00788802
0.00799799
0.00810208
0.00820008
0.00881007
0.00894563
0.00907416
0.00919539
0.00992484
0.0100911
0.0102488
0.0103976
0.0112739
0.0114769
0.0116692
0.0118505
0.0129088
0.0131557
0.0133889
0.0136082
0.0148939
0.0151927
0.0154738
0.015737
0.0173101
0.0176699
0.0180064
0.0183197
0.0202602
0.0206908
0.0210902
0.0214591
0.0238758
0.0243868
0.0248557
0.0252842
0.028327
0.0289262
0.0294682
0.0299568
0.0338346
0.0345242
0.0351366
0.0356787
0.0406853
0.0414552
0.0421224
0.0426998
0.0492473
0.0500626
0.0507471
0.0513228
0.0599771
0.0607591
0.0613896
0.0619016
0.0733942
0.0740008
0.0744658
0.0748281
0.0899758
0.0902138
0.0903843
0.0905111
0.00620777
0.0039848
0.00328426
0.00299723
0.00284422
0.00274136
0.00265825
0.0025803
0.00249923
0.00242222
0.0023789
0.00235392
0.00229373
0.0021684
0.00201505
0.00183182
0.00164841
0.00151295
0.00196869
0.00492767
0.00394986
0.0034534
0.00318221
0.00301026
0.00288524
0.00278277
0.00269271
0.00261231
0.00254556
0.00250073
0.0024652
0.00239602
0.00227652
0.00214144
0.00200586
0.00189421
0.00183337
0.00261811
0.00446302
0.00394831
0.00360053
0.00336665
0.00319424
0.00306147
0.00294933
0.00285367
0.00277176
0.00270357
0.00265097
0.00260541
0.0025355
0.00242961
0.00231848
0.0022325
0.00220334
0.00226722
0.00350361
0.00432731
0.0040025
0.0037574
0.00356416
0.00339631
0.00326403
0.00314146
0.00304017
0.00295708
0.00288628
0.00282719
0.0027754
0.00270387
0.00260179
0.00250819
0.00246728
0.00253089
0.00277304
0.0044404
0.00429856
0.00404693
0.00386688
0.00370854
0.00358081
0.00347918
0.00333177
0.00320664
0.00310878
0.00301788
0.00293093
0.00285803
0.00279994
0.00272871
0.00265262
0.00265182
0.00280276
0.00322474
0.00536458
0.00426941
0.0040967
0.00396863
0.00383448
0.00369093
0.00356888
0.0034244
0.00330181
0.00319942
0.0031036
0.002999
0.00289438
0.00281355
0.00273946
0.00269509
0.00275385
0.00297023
0.00339416
0.00560586
0.0042142
0.00407969
0.00399634
0.00391331
0.00376034
0.00364501
0.00350679
0.00338031
0.00326984
0.0031738
0.00306658
0.0029412
0.0028208
0.00272915
0.00268159
0.00272237
0.00287429
0.00329172
0.00622544
0.00413082
0.00402799
0.00395252
0.00387657
0.00375991
0.00364415
0.00352376
0.00340471
0.00329004
0.00318673
0.00308027
0.00295783
0.00282938
0.00272187
0.00264875
0.00264609
0.0027518
0.00321679
0.00678218
0.00405603
0.00396906
0.00388942
0.00380474
0.00370619
0.00360373
0.00350494
0.00340024
0.00328418
0.00317213
0.00306098
0.00294124
0.00282388
0.00271793
0.00262456
0.00258302
0.00264511
0.00306102
0.00631965
0.00399546
0.00391843
0.00384118
0.00376041
0.00367514
0.00358483
0.00349558
0.00339406
0.00328027
0.00316676
0.00304793
0.00292035
0.00280366
0.00269956
0.00260196
0.00253559
0.00255195
0.0028692
0.0056179
0.00395397
0.00388574
0.00381491
0.00374206
0.00366581
0.00358219
0.00349501
0.00339665
0.00328936
0.00317558
0.00305219
0.00291817
0.00278806
0.00267101
0.00256926
0.00249368
0.00247549
0.00267138
0.00490161
0.00393384
0.00387348
0.00380896
0.00374198
0.00367066
0.00359145
0.00350673
0.00341361
0.00330909
0.00319576
0.00307394
0.00294122
0.00280281
0.0026697
0.00255084
0.0024629
0.00243529
0.00254621
0.00115902
0.00393609
0.00388266
0.00382354
0.00376006
0.00369113
0.00361538
0.00353368
0.00344338
0.00334168
0.00323219
0.00311524
0.00298683
0.00284899
0.00271105
0.0025829
0.00248366
0.00244929
0.00251555
0.00114176
0.00396124
0.00391454
0.00386083
0.00380066
0.0037338
0.00366028
0.00358035
0.0034921
0.0033942
0.00328897
0.00317639
0.00305297
0.00292104
0.00278893
0.00266737
0.00257574
0.00255076
0.00264849
0.00111245
0.00401025
0.00397068
0.00392295
0.00386714
0.00380321
0.00373183
0.00365337
0.00356701
0.00347219
0.00337009
0.00326075
0.00314266
0.00301874
0.00289722
0.0027905
0.00271963
0.00272533
0.00290907
0.00484236
0.00408517
0.00405329
0.00401222
0.00396182
0.00390209
0.00383374
0.00375735
0.0036729
0.00358037
0.00348052
0.00337379
0.00326051
0.00314436
0.00303394
0.00294362
0.00289826
0.00295121
0.00328016
0.00519626
0.00418908
0.00416564
0.00413201
0.004088
0.00403359
0.00396931
0.00389582
0.00381357
0.00372298
0.00362488
0.00352029
0.00341088
0.00330111
0.00320021
0.00312431
0.0031025
0.00319851
0.00362552
0.00595191
0.0043259
0.00431187
0.00428667
0.00425002
0.00420185
0.00414254
0.00407271
0.00399305
0.00390431
0.00380763
0.00370459
0.00359784
0.00349264
0.00339893
0.00333448
0.00333285
0.00347005
0.00399648
0.00668045
0.00450044
0.00449711
0.00448149
0.00445324
0.00441221
0.00435865
0.00429311
0.00421638
0.00412948
0.00403385
0.0039316
0.00382613
0.00372347
0.00363437
0.00357831
0.0035937
0.00377198
0.00441588
0.00749
0.00471865
0.00472762
0.00472299
0.00470432
0.0046714
0.00462436
0.00456367
0.00449017
0.00440505
0.00431001
0.00420762
0.00410193
0.00399969
0.00391259
0.00386189
0.00389097
0.00410806
0.00488255
0.0085276
0.00498785
0.00501111
0.00501919
0.00501153
0.00498784
0.00494816
0.0048929
0.00482289
0.00473943
0.00464446
0.00454092
0.00443342
0.00432947
0.00424178
0.00419358
0.00423306
0.00448429
0.00539163
0.0098581
0.0053171
0.00535709
0.00537996
0.00538504
0.00537193
0.00534061
0.00529143
0.00522521
0.0051433
0.00504782
0.00494205
0.00483112
0.00472331
0.00463261
0.00458456
0.00463261
0.0049163
0.00595736
0.0114451
0.00571754
0.00577721
0.00581739
0.00583728
0.00583641
0.00581467
0.00577239
0.00571033
0.00562989
0.00553332
0.00542418
0.00530811
0.00519427
0.0050982
0.00504847
0.00510542
0.00542712
0.00661496
0.0133143
0.00620282
0.00628573
0.00634623
0.00638342
0.00639676
0.00638611
0.00635172
0.00629434
0.00621538
0.00611715
0.00600344
0.00588039
0.00575811
0.00565397
0.00560027
0.00566541
0.00602975
0.0073877
0.0153953
0.00678963
0.0069
0.0069844
0.00704182
0.00707172
0.00707392
0.00704868
0.00699669
0.00691934
0.00681897
0.00669951
0.00656749
0.00643388
0.00631786
0.00625539
0.00632281
0.00672057
0.00822037
0.0173354
0.00749835
0.00764115
0.00775356
0.0078346
0.00788377
0.00790095
0.00788639
0.00784076
0.00776537
0.0076625
0.00753609
0.00739287
0.00724446
0.00711156
0.00703328
0.00709264
0.00750581
0.00910068
0.0189918
0.00835374
0.00853471
0.00867987
0.00878837
0.00885988
0.00889444
0.00889238
0.00885435
0.00878155
0.00867608
0.00854169
0.00838507
0.00821814
0.00806265
0.00796022
0.00799935
0.00840933
0.010065
0.0205545
0.00938593
0.00961161
0.00979479
0.00993495
0.0100321
0.0100867
0.0100993
0.0100704
0.0100012
0.00989352
0.00975061
0.00957882
0.00938997
0.00920636
0.00907166
0.00907984
0.00947546
0.0111958
0.0224538
0.0106316
0.0109093
0.0111361
0.0113123
0.0114387
0.0115161
0.0115455
0.0115278
0.0114639
0.011355
0.0112039
0.0110163
0.0108032
0.0105872
0.0104138
0.0103835
0.0107619
0.012578
0.0249436
0.0121354
0.0124729
0.0127492
0.0129657
0.0131246
0.0132276
0.0132765
0.0132723
0.0132159
0.0131081
0.0129507
0.0127483
0.012511
0.0122608
0.0120451
0.0119722
0.0123355
0.0142852
0.0281
0.013952
0.0143571
0.0146883
0.0149491
0.0151434
0.0152746
0.0153454
0.0153576
0.0153118
0.0152086
0.0150489
0.0148357
0.0145777
0.0142958
0.0140387
0.0139236
0.0142769
0.0163941
0.031935
0.0161481
0.0166284
0.0170191
0.0173269
0.0175585
0.0177198
0.0178148
0.0178464
0.0178155
0.0177223
0.0175669
0.0173508
0.0170807
0.016776
0.016486
0.0163366
0.0166916
0.0190154
0.0365737
0.0188061
0.0193675
0.0198201
0.0201758
0.0204452
0.0206373
0.0207583
0.0208124
0.0208014
0.0207255
0.0205842
0.0203781
0.0201121
0.0198035
0.0195016
0.0193407
0.0197269
0.0223329
0.0424588
0.0220275
0.0226727
0.0231867
0.0235881
0.0238934
0.0241152
0.0242628
0.0243422
0.0243565
0.0243067
0.0241928
0.0240152
0.0237785
0.023499
0.023226
0.0231029
0.0235851
0.026617
0.0502816
0.0259379
0.0266642
0.0272336
0.0276746
0.0280104
0.0282586
0.0284317
0.028538
0.0285827
0.0285686
0.0284977
0.0283726
0.0282003
0.0280003
0.0278257
0.0278318
0.028533
0.0322181
0.060691
0.0306923
0.0314882
0.0321001
0.0325688
0.0329258
0.0331936
0.0333885
0.0335215
0.0336001
0.0336304
0.0336182
0.0335722
0.0335079
0.0334559
0.0334852
0.0337764
0.0349194
0.0396283
0.0745633
0.0364813
0.0373225
0.0379544
0.0384324
0.0387962
0.0390734
0.0392832
0.0394392
0.0395519
0.0396314
0.03969
0.039747
0.0398348
0.0400111
0.0403865
0.0412061
0.0431887
0.0496004
0.0935348
0.0435369
0.0443816
0.045
0.0454617
0.0458132
0.0460853
0.0462992
0.0464703
0.0466118
0.0467382
0.04687
0.0470411
0.0473107
0.0477852
0.0486625
0.0503427
0.0538361
0.0632765
0.120491
0.0521362
0.0529226
0.0534831
0.0538966
0.0542123
0.0544613
0.0546644
0.0548375
0.054995
0.0551552
0.0553462
0.0556172
0.0560594
0.0568466
0.0583212
0.0611959
0.0671764
0.08227
0.16151
0.0626032
0.0632516
0.0637025
0.0640327
0.0642868
0.0644917
0.0646653
0.0648213
0.0649738
0.0651417
0.0653563
0.0656759
0.0662145
0.0672072
0.0691624
0.0732605
0.0825932
0.107861
0.230278
0.0753082
0.0757339
0.0760249
0.0762383
0.0764052
0.0765436
0.0766655
0.0767804
0.0768987
0.0770356
0.0772175
0.0774952
0.0779742
0.0788882
0.0807999
0.0852166
0.0968782
0.135728
0.353875
0.0906735
0.0908131
0.0909082
0.0909791
0.0910362
0.0910854
0.0911309
0.0911761
0.0912251
0.0912842
0.0913648
0.091489
0.0917042
0.0921212
0.0930348
0.0953821
0.102975
0.139379
0.58148
)
;

boundaryField
{
    leftWall
    {
        type            epsilonWallFunction;
        value           nonuniform List<scalar> 
50
(
0.000286674
0.0005777
0.000972454
0.00135725
0.00172427
0.00207798
0.002426
0.00277651
0.00327271
0.00396212
0.00468883
0.00567553
0.00722907
0.00777635
0.00692689
0.00746898
0.00747006
0.00176903
0.00749128
0.00746624
0.00755598
0.00778467
0.00799017
0.00818124
0.00835927
0.00852421
0.00867494
0.00881126
0.00893298
0.00904099
0.00913564
0.00921223
0.00926954
0.00931316
0.00934676
0.00937192
0.00938838
0.00939114
0.00936335
0.00931109
0.0092375
0.00912458
0.00896078
0.00872047
0.00835473
0.00779904
0.00749378
0.0159964
0.15528
1.53841
)
;
    }
    rightWall
    {
        type            epsilonWallFunction;
        value           nonuniform List<scalar> 
50
(
0.000669268
0.000795492
0.00100836
0.00115606
0.0012932
0.00141402
0.00153919
0.0016909
0.00196869
0.00261811
0.00350361
0.0044404
0.00536458
0.00560586
0.00622544
0.00678218
0.00631965
0.0056179
0.00490161
0.00115902
0.00114176
0.00111245
0.00484236
0.00519626
0.00595191
0.00668045
0.00749
0.0085276
0.0098581
0.0114451
0.0133143
0.0153953
0.0173354
0.0189918
0.0205545
0.0224538
0.0249436
0.0281
0.031935
0.0365737
0.0424588
0.0502816
0.060691
0.0745633
0.0935348
0.120491
0.16151
0.230278
0.353875
0.58148
)
;
    }
    lowerWall
    {
        type            epsilonWallFunction;
        value           nonuniform List<scalar> 
62
(
0.000286674
0.001495
0.00263914
0.00365636
0.00455932
0.00536425
0.00608843
0.00674273
0.00733077
0.00785221
0.0083143
0.00873326
0.0091231
0.0094735
0.00971441
0.00965807
0.00897028
0.00777809
0.00643489
0.0053505
0.00442727
0.00304534
0.000880529
0.000880529
0.00145451
0.00240914
0.00347976
0.00478509
0.00641501
0.0087649
0.0140856
0.01584
0.0126603
0.0131256
0.0165029
0.00087236
0.00102236
0.00157427
0.00231274
0.00326344
0.00453955
0.00661826
0.0114952
0.00087236
0.00361761
0.00562365
0.00673302
0.00735833
0.00769598
0.00798791
0.00831039
0.00845749
0.00770659
0.00615634
0.00463215
0.00346241
0.00415355
0.00575404
0.00529633
0.00334974
0.00189395
0.000669268
)
;
    }
    atmosphere
    {
        type            inletOutlet;
        inletValue      uniform 0.1;
        value           nonuniform List<scalar> 
46
(
0.1
0.128867
0.0203966
0.0083412
0.00604822
0.0055708
0.00569048
0.00612532
0.00679948
0.00770555
0.0088703
0.0103468
0.0122165
0.0145973
0.0176591
0.0216492
0.0269385
0.0341086
0.0441387
0.0588461
0.1
0.1
0.1
0.1
0.1
0.1
0.1
0.1
0.1
0.1
0.1
0.1
0.1
0.1
0.1
0.1
0.1
0.1
0.1
0.1
0.1
0.1
0.1
0.1
0.1
0.58148
)
;
    }
    defaultFaces
    {
        type            empty;
    }
}


// ************************************************************************* //
