/*--------------------------------*- C++ -*----------------------------------*\
  =========                 |
  \\      /  F ield         | OpenFOAM: The Open Source CFD Toolbox
   \\    /   O peration     | Website:  https://openfoam.org
    \\  /    A nd           | Version:  9
     \\/     M anipulation  |
\*---------------------------------------------------------------------------*/
FoamFile
{
    format      ascii;
    class       surfaceScalarField;
    location    "6";
    object      phi;
}
// * * * * * * * * * * * * * * * * * * * * * * * * * * * * * * * * * * * * * //

dimensions      [0 3 -1 0 0 0 0];

internalField   nonuniform List<scalar> 
4432
(
-6.87709e-08
6.87709e-08
-6.98311e-08
1.0514e-09
-5.06125e-08
-1.92217e-08
-3.01593e-08
-2.04589e-08
-1.18901e-08
-1.82754e-08
4.06523e-09
-1.59592e-08
2.37384e-08
-1.96783e-08
5.22759e-08
-2.85452e-08
9.23814e-08
-4.01129e-08
1.43508e-07
-5.11339e-08
2.06947e-07
-6.34454e-08
2.9139e-07
-8.44471e-08
4.1422e-07
-1.22832e-07
5.95271e-07
-1.81051e-07
8.38784e-07
-2.43511e-07
1.08909e-06
-2.50306e-07
1.1287e-06
-3.9609e-08
6.0471e-07
5.23999e-07
-2.95863e-07
9.00577e-07
-1.17916e-06
8.83299e-07
-1.48337e-06
3.04218e-07
-9.15238e-07
-5.6813e-07
-9.15234e-07
-3.60426e-08
1.0481e-07
-4.17586e-08
6.75398e-09
-3.02424e-08
-3.07462e-08
-1.24173e-08
-3.82917e-08
6.21185e-09
-3.69147e-08
2.7224e-08
-3.69816e-08
5.24073e-08
-4.48717e-08
8.46519e-08
-6.08022e-08
1.25104e-07
-8.05756e-08
1.72768e-07
-9.88063e-08
2.28016e-07
-1.18699e-07
2.96028e-07
-1.52461e-07
3.86888e-07
-2.13691e-07
5.09944e-07
-3.04103e-07
6.61946e-07
-3.95509e-07
8.02859e-07
-3.91214e-07
8.06652e-07
-4.33955e-08
4.5457e-07
8.76083e-07
-1.42794e-07
1.49795e-06
-7.02314e-07
1.44282e-06
-9.88515e-07
5.90425e-07
-7.81563e-07
-7.75077e-07
-1.6968e-06
-1.57313e-08
1.20538e-07
-2.09986e-08
1.20117e-08
-1.47278e-08
-3.70232e-08
-5.02329e-10
-5.25222e-08
1.76873e-08
-5.51102e-08
3.87283e-08
-5.80278e-08
6.39902e-08
-7.01372e-08
9.5032e-08
-9.18491e-08
1.32073e-07
-1.17621e-07
1.73384e-07
-1.4012e-07
2.18061e-07
-1.63376e-07
2.68622e-07
-2.03021e-07
3.30775e-07
-2.75841e-07
4.08687e-07
-3.82013e-07
4.9827e-07
-4.8509e-07
5.77558e-07
-4.705e-07
5.76505e-07
-4.23407e-08
3.41641e-07
1.11095e-06
-2.09048e-08
1.8605e-06
-3.67227e-07
1.78914e-06
-6.08551e-07
8.3175e-07
-5.36527e-07
-8.471e-07
-2.23332e-06
-3.44128e-09
1.23977e-07
-6.79799e-09
1.53625e-08
-1.55525e-09
-4.22695e-08
1.05434e-08
-6.46227e-08
2.64578e-08
-7.10259e-08
4.54863e-08
-7.70563e-08
6.83876e-08
-9.30365e-08
9.59427e-08
-1.19403e-07
1.27764e-07
-1.49441e-07
1.61241e-07
-1.73595e-07
1.94086e-07
-1.96218e-07
2.26659e-07
-2.35591e-07
2.61751e-07
-3.10931e-07
3.00478e-07
-4.20738e-07
3.3889e-07
-5.23503e-07
3.69684e-07
-5.01296e-07
3.81015e-07
-5.36738e-08
2.56319e-07
1.23563e-06
6.46334e-08
2.05218e-06
-1.27956e-07
1.98172e-06
-2.8683e-07
9.90619e-07
-2.48215e-07
-8.85716e-07
-2.48154e-06
2.23832e-09
1.21737e-07
4.25073e-09
1.33475e-08
9.14059e-09
-4.71604e-08
1.91314e-08
-7.4613e-08
3.20282e-08
-8.39208e-08
4.75747e-08
-9.25997e-08
6.63424e-08
-1.11799e-07
8.86688e-08
-1.41725e-07
1.13858e-07
-1.74626e-07
1.38383e-07
-1.98115e-07
1.58604e-07
-2.16436e-07
1.73173e-07
-2.50156e-07
1.83009e-07
-3.20765e-07
1.8721e-07
-4.24939e-07
1.81197e-07
-5.17493e-07
1.61563e-07
-4.81666e-07
1.54791e-07
-4.69072e-08
1.67801e-07
1.22261e-06
1.27238e-07
2.09274e-06
6.81962e-08
2.04075e-06
4.29462e-08
1.01586e-06
5.51178e-08
-8.97889e-07
-2.42642e-06
6.32361e-09
1.15413e-07
1.12142e-08
8.45703e-09
1.65254e-08
-5.2471e-08
2.40901e-08
-8.2177e-08
3.30974e-08
-9.29266e-08
4.387e-08
-1.03371e-07
5.70139e-08
-1.2494e-07
7.2595e-08
-1.57304e-07
8.9939e-08
-1.91968e-07
1.04682e-07
-2.12855e-07
1.12037e-07
-2.2379e-07
1.09396e-07
-2.47514e-07
9.67634e-08
-3.08133e-07
7.21732e-08
-4.00349e-07
2.9909e-08
-4.7523e-07
-3.45129e-08
-4.17247e-07
-6.72072e-08
-1.42153e-08
3.95752e-08
1.11583e-06
1.40329e-07
1.99198e-06
2.24847e-07
1.95623e-06
3.51498e-07
8.89213e-07
3.03634e-07
-8.50021e-07
-2.12279e-06
9.86159e-09
1.05552e-07
1.54407e-08
2.87968e-09
2.00789e-08
-5.71085e-08
2.4363e-08
-8.64613e-08
2.84863e-08
-9.70507e-08
3.33294e-08
-1.08216e-07
3.95946e-08
-1.31208e-07
4.70701e-08
-1.64782e-07
5.54705e-08
-2.00372e-07
5.98114e-08
-2.17199e-07
5.45368e-08
-2.18517e-07
3.62525e-08
-2.29231e-07
4.91108e-09
-2.76793e-07
-4.13449e-08
-3.54094e-07
-1.07963e-07
-4.08611e-07
-1.96681e-07
-3.2853e-07
-2.56462e-07
4.55668e-08
-1.11334e-07
9.70697e-07
1.10546e-07
1.7701e-06
3.3714e-07
1.72964e-06
5.31243e-07
6.95116e-07
4.36948e-07
-7.55716e-07
-1.68583e-06
9.66962e-09
9.58828e-08
1.60489e-08
-3.49863e-09
1.97484e-08
-6.08091e-08
1.94893e-08
-8.62042e-08
1.76829e-08
-9.52467e-08
1.56282e-08
-1.06164e-07
1.40877e-08
-1.29671e-07
1.21997e-08
-1.62898e-07
1.0636e-08
-1.98813e-07
4.04955e-09
-2.10616e-07
-1.32318e-08
-2.01239e-07
-4.49389e-08
-1.97526e-07
-9.06554e-08
-2.31078e-07
-1.51146e-07
-2.93603e-07
-2.29237e-07
-3.30519e-07
-3.23195e-07
-2.34571e-07
-3.79854e-07
1.02227e-07
-2.42581e-07
8.33425e-07
4.92409e-08
1.47828e-06
3.58861e-07
1.42003e-06
5.33975e-07
5.20009e-07
4.09637e-07
-6.31372e-07
-1.27619e-06
-6.75711e-07
6.75711e-07
5.35185e-08
-7.29246e-07
6.72839e-07
-6.19304e-07
1.05601e-06
-3.83182e-07
1.30294e-06
-2.46937e-07
1.47351e-06
-1.70569e-07
1.69992e-06
-2.26413e-07
2.09829e-06
-3.98358e-07
2.67386e-06
-5.75566e-07
2.94426e-06
-2.70399e-07
2.36286e-06
5.81405e-07
1.26228e-06
1.10058e-06
-5.81487e-07
1.84377e-06
-1.96904e-06
1.38755e-06
-8.65891e-07
-1.10315e-06
5.60622e-07
-1.42652e-06
1.02476e-06
-4.64144e-07
1.08039e-06
-5.56358e-08
1.08039e-06
-1.24323e-07
8.0005e-07
3.15439e-07
-1.16904e-06
6.02292e-07
-9.06144e-07
8.0095e-07
-5.81855e-07
9.51506e-07
-3.97489e-07
1.10421e-06
-3.23276e-07
1.30161e-06
-4.23802e-07
1.61566e-06
-7.12402e-07
1.99859e-06
-9.58492e-07
2.1545e-06
-4.26304e-07
1.6742e-06
1.06171e-06
7.66092e-07
2.00868e-06
-4.26789e-07
3.03665e-06
-1.16558e-06
2.12633e-06
-5.31253e-07
-1.73749e-06
2.33597e-07
-2.19138e-06
4.40582e-07
-6.71132e-07
6.77566e-07
-2.92632e-07
1.75796e-06
3.56783e-07
4.43283e-07
4.48122e-07
-1.2604e-06
5.38319e-07
-9.9633e-07
6.35214e-07
-6.78762e-07
7.28258e-07
-4.90533e-07
8.29519e-07
-4.24543e-07
9.7098e-07
-5.65263e-07
1.18724e-06
-9.28657e-07
1.43667e-06
-1.20792e-06
1.4944e-06
-4.84027e-07
1.0604e-06
1.49571e-06
3.81124e-07
2.68796e-06
-2.83429e-07
3.7012e-06
-5.92285e-07
2.43519e-06
-2.42271e-07
-2.0875e-06
1.05745e-07
-2.5394e-06
6.12941e-08
-6.2668e-07
2.38673e-07
-4.7002e-07
1.99663e-06
5.48283e-07
-1.04987e-07
4.67688e-07
-1.17983e-06
4.47933e-07
-9.76568e-07
4.82051e-07
-7.12892e-07
5.30668e-07
-5.39156e-07
5.8407e-07
-4.77954e-07
6.55329e-07
-6.36527e-07
7.67338e-07
-1.04067e-06
9.12877e-07
-1.35346e-06
9.36103e-07
-5.07251e-07
5.7818e-07
1.85363e-06
1.10003e-07
3.15614e-06
-2.3448e-07
4.04568e-06
-1.46806e-07
2.34752e-06
3.59989e-08
-2.2703e-06
5.54356e-08
-2.55884e-06
-2.47586e-07
-3.23655e-07
-1.91191e-07
-5.26419e-07
1.80545e-06
4.9297e-07
-5.97946e-07
3.84747e-07
-1.07163e-06
3.25671e-07
-9.17485e-07
3.26041e-07
-7.13271e-07
3.41196e-07
-5.54318e-07
3.48018e-07
-4.84785e-07
3.497e-07
-6.38215e-07
3.55594e-07
-1.04656e-06
3.79829e-07
-1.3777e-06
3.88271e-07
-5.1569e-07
1.88646e-07
2.05326e-06
-8.87862e-08
3.43357e-06
-1.25742e-07
4.08264e-06
2.4127e-07
1.98051e-06
2.46752e-07
-2.27578e-06
2.97e-08
-2.34179e-06
-4.54097e-07
1.60148e-07
-5.29411e-07
-4.51109e-07
1.27604e-06
3.38268e-07
-9.36203e-07
2.40162e-07
-9.73531e-07
1.80804e-07
-8.58118e-07
1.66789e-07
-6.99256e-07
1.58328e-07
-5.45859e-07
1.26035e-07
-4.52496e-07
6.49492e-08
-5.77131e-07
-2.97348e-08
-9.51875e-07
-1.44595e-07
-1.26283e-06
-1.60527e-07
-4.99756e-07
-1.3929e-07
2.03203e-06
-1.79962e-07
3.47425e-06
1.06235e-07
3.79645e-06
5.95915e-07
1.49083e-06
3.85647e-07
-2.06551e-06
4.57716e-09
-1.96072e-06
-5.02128e-07
6.66856e-07
-7.0848e-07
-2.4476e-07
5.67563e-07
1.28397e-07
-1.06459e-06
6.98092e-08
-9.14951e-07
2.65517e-08
-8.14849e-07
9.25662e-09
-6.81954e-07
-1.29953e-08
-5.23602e-07
-7.34955e-08
-3.91994e-07
-1.82948e-07
-4.67676e-07
-3.55977e-07
-7.78843e-07
-5.79797e-07
-1.03901e-06
-6.58175e-07
-4.21375e-07
-4.17842e-07
1.79169e-06
-1.66941e-07
3.22335e-06
3.45525e-07
3.28398e-06
7.80171e-07
1.05618e-06
4.2482e-07
-1.71017e-06
-2.35968e-08
-1.51231e-06
-3.9051e-07
1.03377e-06
-7.16908e-07
8.16347e-08
-1.49344e-07
-1.03787e-07
-9.60785e-07
-9.24078e-08
-9.26335e-07
-1.20109e-07
-7.8714e-07
-1.42458e-07
-6.59599e-07
-1.72702e-07
-4.93352e-07
-2.47223e-07
-3.17468e-07
-3.82071e-07
-3.32825e-07
-5.9728e-07
-5.63631e-07
-8.67697e-07
-7.68591e-07
-9.87075e-07
-3.01997e-07
-6.37142e-07
1.44176e-06
-1.33194e-07
2.7194e-06
5.29006e-07
2.62178e-06
8.06404e-07
7.78779e-07
3.84017e-07
-1.28778e-06
-6.79859e-08
-1.06032e-06
-2.31029e-07
1.19681e-06
-5.41613e-07
3.92217e-07
-6.90957e-07
5.28774e-08
4.30053e-08
6.07523e-08
-1.13715e-08
3.82696e-08
-3.83256e-08
1.19974e-08
-5.99304e-08
-1.5835e-08
-6.74109e-08
-4.37884e-08
-7.82068e-08
-7.6383e-08
-9.70722e-08
-1.13582e-07
-1.25695e-07
-1.55223e-07
-1.57166e-07
-2.06797e-07
-1.59039e-07
-2.80144e-07
-1.27888e-07
-3.84896e-07
-9.27709e-08
-5.16196e-07
-9.97761e-08
-6.71516e-07
-1.38284e-07
-8.439e-07
-1.58138e-07
-1.02127e-06
-5.72071e-08
-1.08482e-06
1.65768e-07
-7.99956e-07
5.48555e-07
-1.69046e-07
8.47366e-07
4.80396e-07
7.7058e-07
7.28839e-07
2.71558e-07
3.97777e-07
-3.00317e-07
-5.08956e-07
-3.69463e-07
-8.80311e-09
5.1808e-08
-3.22847e-08
1.21053e-08
-5.80568e-08
-1.25615e-08
-9.14774e-08
-2.65192e-08
-1.38312e-07
-2.0586e-08
-1.92958e-07
-2.35688e-08
-2.54101e-07
-3.59378e-08
-3.31427e-07
-4.83745e-08
-4.32594e-07
-5.60038e-08
-5.45454e-07
-4.61809e-08
-6.54294e-07
-1.90469e-08
-7.70082e-07
2.30204e-08
-9.09506e-07
3.96526e-08
-1.07648e-06
2.86974e-08
-1.25343e-06
1.88188e-08
-1.36966e-06
5.90253e-08
-1.35793e-06
1.54042e-07
-1.07448e-06
2.65111e-07
-5.55011e-07
3.27899e-07
-7.39677e-08
2.89539e-07
9.27841e-08
1.04805e-07
-9.91313e-08
-1.0841e-07
-2.01002e-07
-4.07106e-07
-1.89642e-07
2.41457e-07
-3.3998e-07
1.62442e-07
-5.18127e-07
1.65572e-07
-6.75878e-07
1.3121e-07
-7.42282e-07
4.57889e-08
-7.68953e-07
3.07264e-09
-8.24714e-07
1.97923e-08
-9.12865e-07
3.97472e-08
-1.04428e-06
7.53885e-08
-1.18525e-06
9.47662e-08
-1.29313e-06
8.88151e-08
-1.35364e-06
8.35262e-08
-1.42595e-06
1.11958e-07
-1.5676e-06
1.70349e-07
-1.74301e-06
1.9424e-07
-1.76416e-06
8.01961e-08
-1.60454e-06
-5.55917e-09
-1.26073e-06
-7.86807e-08
-8.19833e-07
-1.1297e-07
-4.10231e-07
-1.20035e-07
-2.27395e-07
-7.80041e-08
-2.61876e-07
-7.39046e-08
-2.16735e-07
-2.46135e-07
5.04347e-07
-2.62879e-07
4.42871e-07
2.23934e-07
-6.52765e-07
1.26123e-06
-2.03669e-06
1.51516e-06
-1.64541e-06
-3.45458e-07
-1.27478e-06
-3.67535e-07
-1.27468e-06
1.97104e-08
-1.39639e-06
1.61473e-07
-1.29302e-06
-2.79764e-08
-1.34008e-06
1.41829e-07
-1.49508e-06
2.43811e-07
-1.48842e-06
7.68583e-08
-1.51483e-06
1.38352e-07
-1.6075e-06
2.62993e-07
-1.7068e-06
2.93513e-07
-1.64166e-06
1.50208e-08
-1.07845e-06
-5.68801e-07
-5.72368e-07
-5.84805e-07
-9.22072e-07
2.36698e-07
-5.82717e-07
-4.5942e-07
-2.14003e-07
-4.46726e-07
-1.22016e-07
-1.65862e-07
-4.91813e-07
1.53074e-07
-7.93594e-07
5.30742e-07
-8.812e-07
3.11567e-07
-1.9957e-06
2.37577e-06
-3.45966e-06
2.97916e-06
-3.83021e-06
2.51521e-08
-4.03281e-06
-1.64834e-07
-4.45601e-06
4.43028e-07
-4.47745e-06
1.83012e-07
-3.94378e-06
-5.61572e-07
-3.186e-06
-6.1589e-07
-2.46403e-06
-4.78125e-07
-1.68182e-06
-7.05367e-07
-9.59759e-07
-5.83743e-07
-2.88271e-07
-4.08549e-07
3.25653e-07
-3.20479e-07
9.25495e-07
-5.84917e-07
2.01217e-06
-1.6556e-06
3.07981e-06
-1.65256e-06
1.05622e-06
2.26018e-06
-2.79512e-07
8.76253e-07
-7.5455e-07
2.82967e-08
-5.16968e-07
-4.0329e-07
-1.42318e-06
4.14729e-07
-1.59629e-06
2.12701e-06
-1.95176e-06
6.67039e-07
1.30415e-06
-8.80171e-07
4.85522e-06
-5.71976e-07
2.68283e-06
2.19748e-06
-3.84525e-07
2.90247e-06
-2.32974e-06
2.38818e-06
-2.91606e-06
7.69303e-07
-3.59082e-06
1.13174e-07
-3.41677e-06
-7.89954e-07
-2.76643e-06
-1.12846e-06
-2.17609e-06
-1.2957e-06
-1.78502e-06
-9.74782e-07
-1.61365e-06
-5.79876e-07
-1.63494e-06
-2.99148e-07
-1.90845e-06
-3.1138e-07
-2.51213e-06
-1.05191e-06
-2.58633e-06
-1.57835e-06
-1.94914e-06
1.62304e-06
-3.39177e-06
2.31899e-06
-4.15329e-06
7.90032e-07
-3.17831e-06
-1.37798e-06
-1.04814e-06
-3.55317e-06
4.82867e-07
1.64407e-06
-2.47409e-08
1.17454e-06
4.93334e-07
-1.39832e-06
1.17665e-06
-1.25535e-06
9.74256e-07
2.3998e-06
5.75849e-07
3.30084e-06
2.06009e-07
2.758e-06
-4.4607e-07
1.42136e-06
-8.53714e-07
5.20813e-07
-1.25897e-06
-3.84688e-07
-1.5721e-06
-8.15311e-07
-2.02493e-06
-8.42852e-07
-2.59481e-06
-4.04885e-07
-3.35677e-06
1.82112e-07
-4.22281e-06
5.66898e-07
-4.47055e-06
-6.36438e-08
-4.31477e-06
-1.20769e-06
-4.80034e-06
-1.0928e-06
-4.41796e-06
1.24062e-06
-4.6315e-06
2.53254e-06
-3.96208e-06
1.20799e-07
-4.04666e-06
-1.29307e-06
6.12061e-07
-5.70638e-06
5.42639e-07
1.10145e-06
8.52504e-07
8.64602e-07
2.55379e-08
-5.71393e-07
-9.10815e-07
-3.19026e-07
-5.2059e-07
2.00955e-06
-6.87277e-08
2.84895e-06
1.98034e-07
2.49122e-06
1.36832e-08
1.60569e-06
-3.41915e-07
8.76381e-07
-9.06831e-07
1.80198e-07
-1.55022e-06
-1.71961e-07
-2.30693e-06
-8.61773e-08
-3.1174e-06
4.05522e-07
-3.91647e-06
9.81122e-07
-4.49284e-06
1.14318e-06
-4.52259e-06
-3.40013e-08
-4.64243e-06
-1.08796e-06
-5.1233e-06
-6.12023e-07
-4.74785e-06
8.65049e-07
-3.41092e-06
1.19546e-06
-3.07649e-06
-2.13718e-07
-4.14898e-06
-2.20654e-07
1.04495e-06
-4.58192e-06
3.74616e-07
7.26814e-07
4.61799e-07
7.77332e-07
-3.3831e-07
2.28641e-07
-1.21911e-06
5.61717e-07
-1.04692e-06
1.83732e-06
-5.96154e-07
2.39814e-06
-3.27334e-07
2.22237e-06
-4.04243e-07
1.68257e-06
-6.9086e-07
1.16296e-06
-1.21233e-06
7.01641e-07
-1.84596e-06
4.61636e-07
-2.53001e-06
5.97843e-07
-3.13274e-06
1.00823e-06
-3.55129e-06
1.39963e-06
-3.70283e-06
1.29467e-06
-3.96371e-06
2.26829e-07
-4.51443e-06
-5.37312e-07
-4.8543e-06
-2.72217e-07
-4.26554e-06
2.76231e-07
-3.35128e-06
2.8114e-07
-3.46741e-06
-9.76306e-08
-3.96419e-06
2.76085e-07
7.36633e-07
-3.65592e-06
1.35355e-07
5.91391e-07
-4.95054e-10
9.13071e-07
-5.8897e-07
8.17026e-07
-1.17506e-06
1.14772e-06
-1.17151e-06
1.83371e-06
-9.46105e-07
2.17268e-06
-8.14086e-07
2.09029e-06
-8.94215e-07
1.76265e-06
-1.14079e-06
1.4095e-06
-1.5563e-06
1.11712e-06
-2.07553e-06
9.80838e-07
-2.58996e-06
1.11227e-06
-2.96179e-06
1.38004e-06
-3.11642e-06
1.55424e-06
-3.14227e-06
1.32049e-06
-3.51259e-06
5.97122e-07
-4.05937e-06
9.43168e-09
-4.26098e-06
-7.06445e-08
-3.97315e-06
-1.16343e-08
-3.65106e-06
-4.09877e-08
-3.77083e-06
2.21075e-08
-3.80965e-06
3.14853e-07
5.21836e-07
-3.59493e-06
-4.0379e-08
6.31698e-07
-2.38513e-07
1.11109e-06
-6.80247e-07
1.25868e-06
-1.07665e-06
1.54405e-06
-1.17398e-06
1.93097e-06
-1.13137e-06
2.13e-06
-1.12302e-06
2.08188e-06
-1.22444e-06
1.86402e-06
-1.43982e-06
1.62483e-06
-1.76726e-06
1.44454e-06
-2.17126e-06
1.38481e-06
-2.53648e-06
1.47747e-06
-2.76406e-06
1.6076e-06
-2.83929e-06
1.62946e-06
-2.90187e-06
1.38306e-06
-3.16838e-06
8.63611e-07
-3.53621e-06
3.7724e-07
-3.69335e-06
8.64755e-08
-3.64726e-06
-5.77576e-08
-3.5982e-06
-9.00835e-08
-3.6328e-06
5.6643e-08
-3.61449e-06
2.96449e-07
4.1154e-07
-3.50433e-06
-1.63048e-07
7.94681e-07
-3.85167e-07
1.33312e-06
-7.11013e-07
1.58446e-06
-9.97632e-07
1.83061e-06
-1.13682e-06
2.0701e-06
-1.19501e-06
2.18814e-06
-1.26324e-06
2.15006e-06
-1.38251e-06
1.98326e-06
-1.57747e-06
1.81976e-06
-1.84555e-06
1.71259e-06
-2.14923e-06
1.68848e-06
-2.39379e-06
1.72202e-06
-2.53587e-06
1.74968e-06
-2.58971e-06
1.68329e-06
-2.6496e-06
1.44294e-06
-2.82624e-06
1.04024e-06
-3.06685e-06
6.1785e-07
-3.21332e-06
2.32937e-07
-3.27019e-06
-8.96603e-10
-3.30473e-06
-5.55595e-08
-3.33053e-06
8.23832e-08
-3.31447e-06
2.803e-07
3.48818e-07
-3.25189e-06
-2.31965e-07
1.02659e-06
-4.58281e-07
1.55938e-06
-7.15605e-07
1.84173e-06
-9.39803e-07
2.05477e-06
-1.08719e-06
2.21745e-06
-1.18744e-06
2.28835e-06
-1.28819e-06
2.25077e-06
-1.42433e-06
2.11938e-06
-1.60648e-06
2.00189e-06
-1.82488e-06
1.93097e-06
-2.03606e-06
1.89965e-06
-2.19418e-06
1.88015e-06
-2.28157e-06
1.83707e-06
-2.31628e-06
1.71801e-06
-2.35702e-06
1.4837e-06
-2.46219e-06
1.14542e-06
-2.61275e-06
7.68429e-07
-2.76145e-06
3.8166e-07
-2.87732e-06
1.14998e-07
-2.95695e-06
2.40945e-08
-2.9933e-06
1.1873e-07
-2.96816e-06
2.55109e-07
2.84659e-07
-2.90408e-06
-2.63606e-07
1.29015e-06
-4.90134e-07
1.78587e-06
-7.10813e-07
2.06239e-06
-8.99576e-07
2.24351e-06
-1.0415e-06
2.35935e-06
-1.15283e-06
2.39966e-06
-1.26248e-06
2.3604e-06
-1.4042e-06
2.26108e-06
-1.567e-06
2.16467e-06
-1.73308e-06
2.09704e-06
-1.87369e-06
2.04025e-06
-1.97238e-06
1.97883e-06
-2.02216e-06
1.88686e-06
-2.03912e-06
1.73498e-06
-2.05922e-06
1.50382e-06
-2.11543e-06
1.20165e-06
-2.20959e-06
8.62626e-07
-2.34925e-06
5.21346e-07
-2.48809e-06
2.53888e-07
-2.59686e-06
1.32915e-07
-2.64542e-06
1.67327e-07
-2.60889e-06
2.1859e-07
2.09319e-07
-2.53357e-06
-2.75292e-07
1.56543e-06
-5.03745e-07
2.01432e-06
-7.06045e-07
2.26468e-06
-8.7477e-07
2.41223e-06
-1.00858e-06
2.49316e-06
-1.11963e-06
2.5107e-06
-1.22837e-06
2.46914e-06
-1.35402e-06
2.38672e-06
-1.48635e-06
2.29699e-06
-1.60444e-06
2.21511e-06
-1.69731e-06
2.13312e-06
-1.75596e-06
2.03748e-06
-1.78088e-06
1.91178e-06
-1.78509e-06
1.73921e-06
-1.79191e-06
1.51066e-06
-1.82335e-06
1.23311e-06
-1.8897e-06
9.28996e-07
-1.9975e-06
6.2919e-07
-2.13009e-06
3.86529e-07
-2.24334e-06
2.46228e-07
-2.28169e-06
2.05735e-07
-2.25256e-06
1.89495e-07
1.38495e-07
-2.18173e-06
-2.77817e-07
1.84324e-06
-5.1039e-07
2.24691e-06
-7.03144e-07
2.45744e-06
-8.6025e-07
2.56934e-06
-9.86451e-07
2.61937e-06
-1.09231e-06
2.61656e-06
-1.19147e-06
2.56831e-06
-1.29268e-06
2.48793e-06
-1.39017e-06
2.39448e-06
-1.47198e-06
2.29693e-06
-1.5303e-06
2.19144e-06
-1.56218e-06
2.06937e-06
-1.5708e-06
1.9204e-06
-1.56682e-06
1.73525e-06
-1.56654e-06
1.5104e-06
-1.58577e-06
1.25236e-06
-1.63474e-06
9.77998e-07
-1.7172e-06
7.11686e-07
-1.81827e-06
4.87649e-07
-1.90401e-06
3.32042e-07
-1.93877e-06
2.40547e-07
-1.92021e-06
1.70979e-07
8.38327e-08
-1.86553e-06
-2.81013e-07
2.12426e-06
-5.13536e-07
2.47945e-06
-7.00266e-07
2.64419e-06
-8.49535e-07
2.71863e-06
-9.68414e-07
2.73827e-06
-1.06587e-06
2.71403e-06
-1.15101e-06
2.65347e-06
-1.22923e-06
2.56616e-06
-1.29784e-06
2.4631e-06
-1.3507e-06
2.34979e-06
-1.38388e-06
2.22463e-06
-1.39713e-06
2.08262e-06
-1.39449e-06
1.91778e-06
-1.38464e-06
1.72542e-06
-1.37932e-06
1.5051e-06
-1.38983e-06
1.2629e-06
-1.42349e-06
1.01168e-06
-1.48123e-06
7.6947e-07
-1.55132e-06
5.57786e-07
-1.61067e-06
3.91455e-07
-1.63699e-06
2.66927e-07
-1.62621e-06
1.60238e-07
4.61972e-08
-1.58855e-06
-2.85384e-07
2.40966e-06
-5.13626e-07
2.70771e-06
-6.94719e-07
2.82531e-06
-8.37375e-07
2.8613e-06
-9.48858e-07
2.84977e-06
-1.03682e-06
2.80201e-06
-1.10818e-06
2.72485e-06
-1.16707e-06
2.62506e-06
-1.2132e-06
2.50924e-06
-1.24424e-06
2.38085e-06
-1.25906e-06
2.23946e-06
-1.25889e-06
2.08247e-06
-1.24789e-06
1.90679e-06
-1.233e-06
1.71055e-06
-1.22273e-06
1.49486e-06
-1.22493e-06
1.26513e-06
-1.24432e-06
1.03109e-06
-1.28034e-06
8.0553e-07
-1.32449e-06
6.01981e-07
-1.3619e-06
4.28921e-07
-1.37879e-06
2.83877e-07
-1.37176e-06
1.5324e-07
2.13595e-08
-1.3469e-06
-2.8761e-07
2.69728e-06
-5.09026e-07
2.92915e-06
-6.84334e-07
3.00063e-06
-8.20365e-07
2.99735e-06
-9.24255e-07
2.95368e-06
-1.00286e-06
2.88063e-06
-1.06204e-06
2.78404e-06
-1.10563e-06
2.66866e-06
-1.13493e-06
2.53855e-06
-1.15001e-06
2.39595e-06
-1.15153e-06
2.24099e-06
-1.14156e-06
2.07252e-06
-1.12401e-06
1.88927e-06
-1.10439e-06
1.69094e-06
-1.08888e-06
1.47937e-06
-1.08288e-06
1.25915e-06
-1.08931e-06
1.03754e-06
-1.1072e-06
8.2345e-07
-1.13067e-06
6.25501e-07
-1.15042e-06
4.48723e-07
-1.15812e-06
2.9163e-07
-1.15137e-06
1.46529e-07
3.99849e-09
-1.13397e-06
-2.86459e-07
2.98376e-06
-5.00257e-07
3.14296e-06
-6.68469e-07
3.16886e-06
-7.96781e-07
3.12568e-06
-8.92521e-07
3.04943e-06
-9.6212e-07
2.95024e-06
-1.01088e-06
2.83282e-06
-1.04262e-06
2.70041e-06
-1.05959e-06
2.55553e-06
-1.06324e-06
2.39962e-06
-1.05526e-06
2.23302e-06
-1.03812e-06
2.0554e-06
-1.01537e-06
1.86653e-06
-9.91359e-07
1.66695e-06
-9.70627e-07
1.45866e-06
-9.569e-07
1.24545e-06
-9.52022e-07
1.03269e-06
-9.55122e-07
8.26586e-07
-9.62328e-07
6.32753e-07
-9.67913e-07
4.54364e-07
-9.66927e-07
2.90701e-07
-9.57868e-07
1.37518e-07
-1.06405e-08
-9.43185e-07
-2.80505e-07
3.26427e-06
-4.88369e-07
3.35083e-06
-6.4686e-07
3.32735e-06
-7.65548e-07
3.24437e-06
-8.52247e-07
3.13613e-06
-9.13062e-07
3.01106e-06
-9.52883e-07
2.87265e-06
-9.75445e-07
2.72298e-06
-9.83455e-07
2.56355e-06
-9.79063e-07
2.39524e-06
-9.64442e-07
2.21841e-06
-9.42177e-07
2.03316e-06
-9.15381e-07
1.83975e-06
-8.87528e-07
1.63912e-06
-8.61996e-07
1.43315e-06
-8.4143e-07
1.22491e-06
-8.27071e-07
1.01837e-06
-8.18319e-07
8.17874e-07
-8.12732e-07
6.27216e-07
-8.06857e-07
4.4855e-07
-7.97793e-07
2.817e-07
-7.84676e-07
1.24459e-07
-2.61489e-08
-7.69112e-07
-2.71038e-07
3.53531e-06
-4.725e-07
3.55229e-06
-6.18055e-07
3.47291e-06
-7.25263e-07
3.35158e-06
-8.02154e-07
3.21302e-06
-8.5441e-07
3.06332e-06
-8.8648e-07
2.90472e-06
-9.0189e-07
2.7384e-06
-9.0344e-07
2.56511e-06
-8.93517e-07
2.38533e-06
-8.74438e-07
2.19935e-06
-8.48679e-07
2.00741e-06
-8.18939e-07
1.81003e-06
-7.88003e-07
1.60821e-06
-7.58441e-07
1.40362e-06
-7.32196e-07
1.19869e-06
-7.10188e-07
9.96395e-07
-6.921e-07
7.99828e-07
-6.76469e-07
6.11639e-07
-6.61262e-07
4.33409e-07
-6.44811e-07
2.65316e-07
-6.26658e-07
1.06371e-07
-4.49297e-08
-6.07812e-07
-2.60958e-07
3.79627e-06
-4.48243e-07
3.73957e-06
-5.79141e-07
3.6038e-06
-6.74122e-07
3.44655e-06
-7.4107e-07
3.27997e-06
-7.85225e-07
3.10747e-06
-8.10605e-07
2.9301e-06
-8.20442e-07
2.74824e-06
-8.17414e-07
2.56209e-06
-8.03866e-07
2.37179e-06
-7.82029e-07
2.17752e-06
-7.54155e-07
1.97956e-06
-7.22541e-07
1.77844e-06
-6.89433e-07
1.57512e-06
-6.56823e-07
1.37103e-06
-6.26195e-07
1.16809e-06
-5.98294e-07
9.68531e-07
-5.73032e-07
7.74609e-07
-5.49593e-07
5.88254e-07
-5.26823e-07
4.10702e-07
-5.03781e-07
2.42342e-07
-4.80227e-07
8.28821e-08
-6.82786e-08
-4.56812e-07
-2.4334e-07
4.0396e-06
-4.1078e-07
3.907e-06
-5.27757e-07
3.72077e-06
-6.11e-07
3.52979e-06
-6.68466e-07
3.33743e-06
-7.05185e-07
3.14419e-06
-7.24858e-07
2.94977e-06
-7.30409e-07
2.75379e-06
-7.24272e-07
2.55595e-06
-7.08593e-07
2.35612e-06
-6.8538e-07
2.15432e-06
-6.56593e-07
1.95078e-06
-6.2415e-07
1.74602e-06
-5.89861e-07
1.54085e-06
-5.55293e-07
1.33649e-06
-5.21614e-07
1.13444e-06
-4.89463e-07
9.36413e-07
-4.58911e-07
7.44097e-07
-4.29559e-07
5.58951e-07
-4.00783e-07
3.81984e-07
-3.72073e-07
2.13693e-07
-3.43303e-07
5.41711e-08
-9.66953e-08
-3.14826e-07
-2.15044e-07
4.25464e-06
-3.62493e-07
4.05444e-06
-4.65194e-07
3.82346e-06
-5.36745e-07
3.60133e-06
-5.84975e-07
3.38565e-06
-6.14787e-07
3.17399e-06
-6.29572e-07
2.96455e-06
-6.31892e-07
2.75611e-06
-6.23839e-07
2.5479e-06
-6.07249e-07
2.33954e-06
-5.83827e-07
2.13091e-06
-5.55206e-07
1.92218e-06
-5.2295e-07
1.71377e-06
-4.88502e-07
1.50642e-06
-4.53101e-07
1.30111e-06
-4.1768e-07
1.09905e-06
-3.82799e-07
9.01559e-07
-3.48631e-07
7.09961e-07
-3.1503e-07
5.25389e-07
-2.81692e-07
3.48693e-07
-2.48352e-07
1.80403e-07
-2.14932e-07
2.07994e-08
-1.29992e-07
-1.81588e-07
-1.8373e-07
4.43837e-06
-3.09045e-07
4.17976e-06
-3.94978e-07
3.90939e-06
-4.5349e-07
3.65984e-06
-4.92045e-07
3.4242e-06
-5.15159e-07
3.19711e-06
-5.25686e-07
2.97508e-06
-5.25652e-07
2.75608e-06
-5.16687e-07
2.53894e-06
-5.00231e-07
2.32309e-06
-4.77629e-07
2.10831e-06
-4.50171e-07
1.89473e-06
-4.19085e-07
1.6827e-06
-3.85498e-07
1.47285e-06
-3.50377e-07
1.266e-06
-3.14472e-07
1.06316e-06
-2.78271e-07
8.65376e-07
-2.41997e-07
6.73709e-07
-2.05656e-07
4.89076e-07
-1.69133e-07
3.12205e-07
-1.32301e-07
1.43608e-07
-9.50998e-08
-1.63678e-08
-1.67505e-07
-5.75529e-08
-1.5263e-07
4.59099e-06
-2.53435e-07
4.28056e-06
-3.19664e-07
3.97562e-06
-3.63081e-07
3.70326e-06
-3.91165e-07
3.45229e-06
-4.07666e-07
3.21361e-06
-4.14501e-07
2.98191e-06
-4.12917e-07
2.75449e-06
-4.03949e-07
2.52998e-06
-3.88568e-07
2.30771e-06
-3.67728e-07
2.08748e-06
-3.42372e-07
1.86937e-06
-3.13409e-07
1.65374e-06
-2.81681e-07
1.44112e-06
-2.47925e-07
1.23225e-06
-2.12731e-07
1.02797e-06
-1.76516e-07
8.29171e-07
-1.39521e-07
6.36727e-07
-1.01839e-07
4.51411e-07
-6.34645e-08
2.73852e-07
-2.43517e-08
1.04518e-07
1.55505e-08
-5.62491e-08
-2.08246e-07
5.63111e-08
-1.22759e-07
4.71375e-06
-1.9721e-07
4.35502e-06
-2.40569e-07
4.01898e-06
-2.6662e-07
3.72932e-06
-2.83534e-07
3.4692e-06
-2.93709e-07
3.22378e-06
-2.97541e-07
2.98575e-06
-2.95238e-07
2.75219e-06
-2.87142e-07
2.52188e-06
-2.73725e-07
2.29429e-06
-2.5554e-07
2.06929e-06
-2.33185e-07
1.84702e-06
-2.07268e-07
1.62782e-06
-1.78372e-07
1.41223e-06
-1.47024e-07
1.20091e-06
-1.13673e-07
9.94621e-07
-7.86613e-08
7.94163e-07
-4.22293e-08
6.00299e-07
-4.5168e-09
4.13706e-07
3.4413e-08
2.34933e-07
7.45539e-08
6.43888e-08
1.15953e-07
-9.76388e-08
-2.51013e-07
1.58727e-07
-9.46298e-08
4.80839e-06
-1.41074e-07
4.40148e-06
-1.57974e-07
4.03589e-06
-1.64437e-07
3.73579e-06
-1.70111e-07
3.47488e-06
-1.74769e-07
3.22845e-06
-1.76525e-07
2.98751e-06
-1.74397e-07
2.75007e-06
-1.6804e-07
2.51553e-06
-1.57442e-07
2.2837e-06
-1.42771e-07
2.05462e-06
-1.24292e-07
1.82854e-06
-1.02323e-07
1.60585e-06
-7.72016e-08
1.38711e-06
-4.92652e-08
1.17297e-06
-1.88254e-08
9.64179e-07
1.38444e-08
7.6149e-07
4.85219e-08
5.6562e-07
8.50352e-08
3.77194e-07
1.23272e-07
1.96699e-07
1.63184e-07
2.44798e-08
2.04808e-07
-1.39262e-07
-2.94489e-07
2.48284e-07
-6.64486e-08
4.87484e-06
-8.33127e-08
4.41836e-06
-7.04636e-08
4.02305e-06
-5.60709e-08
3.7214e-06
-5.22351e-08
3.47106e-06
-5.27003e-08
3.22892e-06
-5.34132e-08
2.98823e-06
-5.23325e-08
2.74899e-06
-4.85375e-08
2.51173e-06
-4.15843e-08
2.27675e-06
-3.12677e-08
2.04431e-06
-1.75245e-08
1.8148e-06
-3.88299e-10
1.58872e-06
2.00386e-08
1.36668e-06
4.36043e-08
1.1494e-06
7.01238e-08
9.37654e-07
9.93952e-08
7.32214e-07
1.31211e-07
5.33799e-07
1.65379e-07
3.43023e-07
2.01738e-07
1.60338e-07
2.40197e-07
-1.39808e-08
2.80768e-07
-1.79836e-07
-3.37325e-07
3.23598e-07
-2.42408e-08
4.89909e-06
-7.25774e-09
4.40139e-06
2.70995e-08
3.98871e-06
5.52013e-08
3.69331e-06
6.75332e-08
3.45873e-06
7.00581e-08
3.2264e-06
6.9705e-08
2.98859e-06
6.90581e-08
2.74964e-06
6.95321e-08
2.51126e-06
7.20223e-08
2.27426e-06
7.7134e-08
2.0392e-06
8.52746e-08
1.80666e-06
9.66986e-08
1.57729e-06
1.11535e-07
1.35184e-06
1.29809e-07
1.13112e-06
1.5146e-07
9.15998e-07
1.76353e-07
7.07314e-07
2.04297e-07
5.05849e-07
2.35069e-07
3.12245e-07
2.68455e-07
1.26949e-07
3.04302e-07
-4.98316e-08
3.42587e-07
-2.18128e-07
-3.78198e-07
3.83452e-07
4.61842e-08
4.85292e-06
9.20743e-08
4.35552e-06
1.38245e-07
3.94255e-06
1.70217e-07
3.66135e-06
1.87275e-07
3.44169e-06
1.92118e-07
3.22157e-06
1.91553e-07
2.98916e-06
1.88414e-07
2.75279e-06
1.84669e-07
2.51501e-06
1.81754e-07
2.27718e-06
1.80727e-07
2.04023e-06
1.82356e-07
1.80503e-06
1.87182e-07
1.57246e-06
1.95553e-07
1.34346e-06
2.07663e-07
1.11901e-06
2.23566e-07
9.0009e-07
2.43188e-07
6.87685e-07
2.66351e-07
4.82681e-07
2.9279e-07
2.858e-07
3.22218e-07
9.75171e-08
3.544e-07
-8.20177e-08
3.89257e-07
-2.52991e-07
-4.15869e-07
4.26919e-07
1.38104e-07
4.71482e-06
2.13504e-07
4.28013e-06
2.64989e-07
3.89108e-06
2.94751e-07
3.6316e-06
3.09832e-07
3.42661e-06
3.15083e-07
3.21633e-06
3.12515e-07
2.99173e-06
3.05245e-07
2.76006e-06
2.95827e-07
2.52444e-06
2.86244e-07
2.28676e-06
2.77983e-07
2.04849e-06
2.72133e-07
1.81088e-06
2.69475e-07
1.57512e-06
2.70544e-07
1.34239e-06
2.75676e-07
1.11387e-06
2.85026e-07
8.90735e-07
2.98582e-07
6.74124e-07
3.16168e-07
4.65089e-07
3.3747e-07
2.64494e-07
3.62097e-07
7.28874e-08
3.89695e-07
-1.09619e-07
4.20105e-07
-2.83406e-07
-4.49221e-07
4.5345e-07
2.37125e-07
4.47771e-06
3.52649e-07
4.16462e-06
4.06921e-07
3.83682e-06
4.30699e-07
3.60783e-06
4.41225e-07
3.4161e-06
4.42073e-07
3.21549e-06
4.33661e-07
3.00015e-06
4.19333e-07
2.7744e-06
4.02068e-07
2.54171e-06
3.84204e-07
2.30463e-06
3.67485e-07
2.06521e-06
3.53182e-07
1.82519e-06
3.4221e-07
1.58609e-06
3.35221e-07
1.34938e-06
3.32648e-07
1.11644e-06
3.34737e-07
8.88644e-07
3.41531e-07
6.67326e-07
3.52867e-07
4.5375e-07
3.68371e-07
2.48987e-07
3.87515e-07
5.37418e-08
4.09772e-07
-1.31877e-07
4.3487e-07
-3.08508e-07
-4.77292e-07
4.62936e-07
3.36619e-07
4.1411e-06
4.99439e-07
4.00181e-06
5.63177e-07
3.77309e-06
5.82503e-07
3.58852e-06
5.84463e-07
3.41415e-06
5.74146e-07
3.22581e-06
5.54628e-07
3.01968e-06
5.29534e-07
2.7995e-06
5.01923e-07
2.56932e-06
4.74118e-07
2.33244e-06
4.47811e-07
2.09152e-06
4.24235e-07
1.84876e-06
4.04288e-07
1.60604e-06
3.88638e-07
1.36503e-06
3.77769e-07
1.12731e-06
3.71995e-07
8.94416e-07
3.71435e-07
6.67883e-07
3.75961e-07
4.49221e-07
3.85152e-07
2.39795e-07
3.9831e-07
4.05844e-08
4.14647e-07
-1.48214e-07
4.33733e-07
-3.27596e-07
-4.99291e-07
4.55729e-07
4.51423e-07
3.68968e-06
6.6088e-07
3.79237e-06
7.37307e-07
3.69667e-06
7.50044e-07
3.57579e-06
7.35514e-07
3.42868e-06
7.07483e-07
3.25385e-06
6.71984e-07
3.05518e-06
6.3291e-07
2.83858e-06
5.92977e-07
2.60926e-06
5.54065e-07
2.37136e-06
5.17493e-07
2.1281e-06
4.84215e-07
1.88205e-06
4.54955e-07
1.6353e-06
4.30297e-07
1.38969e-06
4.10722e-07
1.14688e-06
3.9661e-07
9.08527e-07
3.88185e-07
6.76307e-07
3.8542e-07
4.51985e-07
3.87903e-07
2.37312e-07
3.94747e-07
3.37421e-08
4.04769e-07
-1.58235e-07
4.17305e-07
-3.40132e-07
-5.14614e-07
4.32626e-07
6.0908e-07
3.08061e-06
8.61751e-07
3.5397e-06
9.31939e-07
3.62649e-06
9.23564e-07
3.58417e-06
8.84528e-07
3.46773e-06
8.33938e-07
3.30444e-06
7.79539e-07
3.10959e-06
7.24948e-07
2.89318e-06
6.72042e-07
2.66217e-06
6.21889e-07
2.42151e-06
5.75167e-07
2.17482e-06
5.32373e-07
1.92484e-06
4.93934e-07
1.67374e-06
4.6027e-07
1.42335e-06
4.31817e-07
1.17534e-06
4.0902e-07
9.31324e-07
3.92263e-07
6.93064e-07
3.81728e-07
4.6252e-07
3.77152e-07
2.4189e-07
3.77501e-07
3.33948e-08
3.80979e-07
-1.6171e-07
3.86569e-07
-3.45722e-07
-5.22859e-07
3.94814e-07
8.28197e-07
2.25242e-06
1.10711e-06
3.2608e-06
1.13933e-06
3.59428e-06
1.09099e-06
3.63251e-06
1.01931e-06
3.53942e-06
9.4348e-07
3.38027e-06
8.69932e-07
3.18314e-06
8.00593e-07