/*--------------------------------*- C++ -*----------------------------------*\
  =========                 |
  \\      /  F ield         | OpenFOAM: The Open Source CFD Toolbox
   \\    /   O peration     | Website:  https://openfoam.org
    \\  /    A nd           | Version:  9
     \\/     M anipulation  |
\*---------------------------------------------------------------------------*/
FoamFile
{
    format      ascii;
    class       volScalarField;
    location    "0.6";
    object      p;
}
// * * * * * * * * * * * * * * * * * * * * * * * * * * * * * * * * * * * * * //

dimensions      [0 2 -2 0 0 0 0];

internalField   nonuniform List<scalar> 
400
(
2.79386e-07
-0.00288103
-0.00827235
-0.0145015
-0.0195799
-0.021651
-0.0191309
-0.0108738
0.00360952
0.0238388
0.00286832
-4.06151e-05
-0.00430639
-0.00895303
-0.0126676
-0.0139879
-0.0115641
-0.00436257
0.00811213
0.0255172
0.0083534
0.00413992
-0.000290949
-0.00437763
-0.00741529
-0.00830776
-0.00596683
0.000471817
0.0114511
0.0267131
0.0151203
0.00886632
0.00333095
-0.0010751
-0.00411939
-0.00497893
-0.00278005
0.00317448
0.0132503
0.0272281
0.0215818
0.0130182
0.00591487
0.000711945
-0.00272392
-0.00377241
-0.0017209
0.00398573
0.0136357
0.0270263
0.0261362
0.0151423
0.00620297
-7.83564e-05
-0.00410677
-0.00540516
-0.00337178
0.00243661
0.0122386
0.0258347
0.0269826
0.0134323
0.00247445
-0.0050277
-0.00968578
-0.0111201
-0.00879712
-0.00235553
0.00836709
0.0231713
0.0218179
0.00549448
-0.00763368
-0.0163624
-0.0214847
-0.0227002
-0.0195237
-0.0116598
0.00101033
0.0182995
0.00736196
-0.0120995
-0.027545
-0.0373346
-0.0424642
-0.0427412
-0.0377558
-0.0272989
-0.011295
0.0101152
-0.0214122
-0.0446028
-0.0624721
-0.0728289
-0.0769815
-0.0749677
-0.066573
-0.0517661
-0.0305375
-0.00290942
0.0469856
0.0678063
0.0830051
0.0917332
0.0943526
0.092093
0.0867199
0.0802588
0.0747938
0.0719634
0.0454534
0.0633614
0.0764416
0.0840445
0.0865614
0.0850964
0.0811474
0.0763127
0.0719889
0.0691456
0.0442137
0.0599619
0.0715302
0.078366
0.0808074
0.0797794
0.0765087
0.0722257
0.0677334
0.0636124
0.0432982
0.0578307
0.0685923
0.0750279
0.0773699
0.0763684
0.0730469
0.0683871
0.0627536
0.056597
0.0424912
0.0565935
0.0671524
0.0735385
0.0758477
0.0746723
0.0708953
0.0653397
0.0580552
0.0495543
0.041622
0.0562036
0.0673133
0.0741749
0.0767119
0.0753678
0.0709381
0.0641637
0.0548928
0.0438543
0.0404462
0.0566803
0.069376
0.0775268
0.0808308
0.0795738
0.0744989
0.0663261
0.0547862
0.0409536
0.0385393
0.0579631
0.073691
0.0843849
0.0894284
0.0888962
0.0834723
0.0738818
0.0597786
0.0427162
0.0352029
0.0598508
0.0806589
0.0958336
0.10429
0.105751
0.10075
0.089973
0.0729805
0.0519845
0.02941
0.0619594
0.0907378
0.113368
0.128056
0.133881
0.130969
0.119774
0.0996261
0.0736346
-0.0706319
-0.098403
-0.118526
-0.128226
-0.129453
-0.122774
-0.108445
-0.0868083
-0.0579754
-0.0217316
-0.143725
-0.177078
-0.19859
-0.205077
-0.199938
-0.184914
-0.161226
-0.129891
-0.0912068
-0.0445504
-0.243564
-0.28358
-0.304148
-0.302472
-0.285224
-0.256529
-0.219253
-0.175348
-0.125231
-0.0675707
-0.37924
-0.426532
-0.440353
-0.421155
-0.382556
-0.332775
-0.276867
-0.217641
-0.15522
-0.0870479
-0.569983
-0.621006
-0.613707
-0.559984
-0.486314
-0.406308
-0.326833
-0.250597
-0.176397
-0.0996513
-0.856463
-0.891496
-0.830021
-0.713506
-0.586772
-0.467309
-0.36123
-0.268686
-0.185348
-0.10361
-1.31972
-1.27189
-1.09001
-0.870061
-0.670202
-0.50473
-0.373126
-0.268521
-0.181069
-0.099357
-2.14123
-1.79776
-1.36973
-0.999387
-0.712894
-0.504155
-0.355951
-0.248469
-0.16448
-0.0889674
-3.78781
-2.4659
-1.54595
-1.00475
-0.659391
-0.439028
-0.299155
-0.205663
-0.136112
-0.0744706
-6.55337
-3.07045
-1.42374
-0.793492
-0.481799
-0.308741
-0.209629
-0.147188
-0.101239
-0.0589387
0.0204384
0.0639397
0.104265
0.138406
0.163573
0.177735
0.180091
0.170396
0.147308
0.114981
0.00917148
0.0657585
0.120647
0.170423
0.211157
0.239173
0.251933
0.247541
0.222913
0.183068
-0.00218952
0.0678633
0.13877
0.207339
0.268776
0.317473
0.348202
0.355805
0.333175
0.285143
-0.0112147
0.0712075
0.158128
0.247557
0.334711
0.412376
0.472015
0.503128
0.490348
0.434775
-0.0160133
0.0761137
0.177277
0.287889
0.404757
0.5206
0.624216
0.69831
0.712952
0.656207
-0.0161807
0.0815443
0.193289
0.323003
0.471283
0.63398
0.800546
0.948533
1.02813
0.995771
-0.0131041
0.0850417
0.201903
0.345685
0.523256
0.738648
0.988961
1.25417
1.47033
1.53957
-0.00951336
0.0829636
0.19738
0.345802
0.543086
0.807581
1.15533
1.5878
2.07459
2.47442
-0.00837212
0.0710261
0.17242
0.308839
0.500444
0.780849
1.19725
1.8212
2.83599
4.26705
-0.0104629
0.0507206
0.130598
0.238845
0.392796
0.628632
1.01798
1.75157
3.52092
7.12668
)
;

boundaryField
{
    movingWall
    {
        type            zeroGradient;
    }
    fixedWalls
    {
        type            zeroGradient;
    }
    frontAndBack
    {
        type            empty;
    }
}


// ************************************************************************* //
