/*--------------------------------*- C++ -*----------------------------------*\
  =========                 |
  \\      /  F ield         | OpenFOAM: The Open Source CFD Toolbox
   \\    /   O peration     | Website:  https://openfoam.org
    \\  /    A nd           | Version:  9
     \\/     M anipulation  |
\*---------------------------------------------------------------------------*/
FoamFile
{
    format      ascii;
    class       surfaceScalarField;
    location    "0.6";
    object      phi;
}
// * * * * * * * * * * * * * * * * * * * * * * * * * * * * * * * * * * * * * //

dimensions      [0 3 -1 0 0 0 0];

internalField   nonuniform List<scalar> 
760
(
6.59215e-09
-6.59332e-09
4.24159e-09
2.35057e-09
-1.64325e-08
2.06742e-08
-5.77199e-08
4.12874e-08
-1.17744e-07
6.00238e-08
-1.91363e-07
7.3619e-08
-2.7049e-07
7.91266e-08
-3.44371e-07
7.38814e-08
-4.00003e-07
5.56322e-08
2.30254e-08
-4.23029e-07
-1.93912e-09
-4.65425e-09
-3.21534e-08
3.25649e-08
-1.06799e-07
9.53196e-08
-2.32194e-07
1.66683e-07
-4.05495e-07
2.33325e-07
-6.14591e-07
2.82715e-07
-8.38246e-07
3.02782e-07
-1.04676e-06
2.82393e-07
-1.20342e-06
2.1229e-07
8.71839e-08
-1.26757e-06
-1.98966e-08
1.52424e-08
-9.52598e-08
1.07928e-07
-2.41505e-07
2.41564e-07
-4.65451e-07
3.90629e-07
-7.62192e-07
5.30066e-07
-1.11304e-06
6.33567e-07
-1.48458e-06
6.74321e-07
-1.82912e-06
6.26929e-07
-2.08701e-06
4.70181e-07
1.92177e-07
-2.192e-06
-4.19919e-08
5.72343e-08
-1.74882e-07
2.40818e-07
-4.10204e-07
4.76887e-07
-7.51461e-07
7.31886e-07
-1.18889e-06
9.67497e-07
-1.69568e-06
1.14036e-06
-2.22571e-06
1.20435e-06
-2.71348e-06
1.1147e-06
-3.07694e-06
8.33645e-07
3.39938e-07
-3.2247e-06
-6.6886e-08
1.2412e-07
-2.68069e-07
4.42001e-07
-6.10297e-07
8.19115e-07
-1.09094e-06
1.21253e-06
-1.69217e-06
1.56872e-06
-2.37626e-06
1.82445e-06
-3.08256e-06
1.91065e-06
-3.72697e-06
1.75911e-06
-4.20501e-06
1.31169e-06
5.35156e-07
-4.40023e-06
-9.50289e-08
2.19149e-07
-3.7613e-07
7.23102e-07
-8.45288e-07
1.28827e-06
-1.49158e-06
1.85883e-06
-2.28573e-06
2.36287e-06
-3.17552e-06
2.71424e-06
-4.08287e-06
2.818e-06
-4.90346e-06
2.57969e-06
-5.50995e-06
1.91818e-06
7.85918e-07
-5.76071e-06
-1.27996e-07
3.47145e-07
-5.03994e-07
1.0991e-06
-1.12483e-06
1.90911e-06
-1.96887e-06
2.70286e-06
-2.99145e-06
3.38546e-06
-4.12153e-06
3.84431e-06
-5.26003e-06
3.9565e-06
-6.28056e-06
3.60022e-06
-7.03292e-06
2.67054e-06
1.10387e-06
-7.35087e-06
-1.68427e-07
5.15572e-07
-6.6029e-07
1.59096e-06
-1.46515e-06
2.71397e-06
-2.54648e-06
3.78419e-06
-3.83869e-06
4.67768e-06
-5.24643e-06
5.25205e-06
-6.64593e-06
5.35599e-06
-7.88806e-06
4.84235e-06
-8.8022e-06
3.58468e-06
1.50276e-06
-9.20109e-06
-2.20243e-07
7.35815e-07
-8.5797e-07
2.22869e-06
-1.8897e-06
3.7457e-06
-3.25551e-06
5.15e-06
-4.85972e-06
6.28189e-06
-6.57535e-06
6.96768e-06
-8.25114e-06
7.03178e-06
-9.71861e-06
6.30982e-06
-1.07958e-05
4.66184e-06
1.99286e-06
-1.12859e-05
-2.89562e-07
1.02538e-06
-1.11671e-06
3.05584e-06
-2.43121e-06
5.0602e-06
-4.1321e-06
6.85088e-06
-6.07717e-06
8.22696e-06
-8.0981e-06
8.98861e-06
-1.00173e-05
8.95097e-06
-1.16602e-05
7.95276e-06
-1.28572e-05
5.85885e-06
-1.34304e-05
2.566e-06
-4.03223e-07
-1.98055e-08
-3.48737e-07
-5.44863e-08
-2.73859e-07
-7.48781e-08
-1.92628e-07
-8.12309e-08
-1.17032e-07
-7.55955e-08
-5.59592e-08
-6.1073e-08
-1.47003e-08
-4.1259e-08
5.25359e-09
-1.99539e-08
6.84699e-09
-1.59338e-09
6.847e-09
-1.21092e-06
-7.6457e-08
-1.05703e-06
-2.0838e-07
-8.46352e-07
-2.85555e-07
-6.17945e-07
-3.09639e-07
-4.04299e-07
-2.89241e-07
-2.28453e-07
-2.36919e-07
-1.02878e-07
-1.66835e-07
-2.9632e-08
-9.31996e-08
-1.11166e-09
-3.01138e-08
5.73536e-09
-2.09831e-06
-1.70148e-07
-1.8448e-06
-4.61893e-07
-1.49736e-06
-6.32994e-07
-1.11894e-06
-6.88058e-07
-7.6126e-07
-6.46921e-07
-4.60438e-07
-5.37741e-07
-2.35841e-07
-3.91432e-07
-9.14069e-08
-2.37634e-07
-1.85317e-08
-1.02989e-07
-1.27963e-08
-3.09343e-06
-3.01419e-07
-2.73698e-06
-8.18347e-07
-2.24603e-06
-1.12395e-06
-1.70683e-06
-1.22725e-06
-1.19029e-06
-1.16347e-06
-7.46397e-07
-9.81631e-07
-4.03297e-07
-7.34531e-07
-1.69792e-07
-4.71139e-07
-4.00844e-08
-2.32697e-07
-5.28808e-08
-4.23101e-06
-4.70634e-07
-3.76552e-06
-1.28384e-06
-3.11869e-06
-1.77078e-06
-2.40024e-06
-1.9457e-06
-1.70164e-06
-1.86207e-06
-1.0894e-06
-1.59388e-06
-6.03846e-07
-1.22008e-06
-2.6225e-07
-8.12735e-07
-6.44572e-08
-4.3049e-07
-1.17338e-07
-5.55444e-06
-6.76902e-07
-4.97218e-06
-1.8661e-06
-4.15238e-06
-2.59058e-06
-3.22889e-06
-2.86919e-06
-2.31644e-06
-2.77451e-06
-1.50235e-06
-2.40797e-06
-8.44048e-07
-1.87838e-06
-3.71433e-07
-1.28535e-06
-9.24188e-08
-7.09504e-07
-2.09757e-07
-7.11178e-06
-9.15997e-07
-6.40665e-06
-2.57123e-06
-5.3953e-06
-3.60193e-06
-4.23586e-06
-4.02863e-06
-3.0696e-06
-3.94077e-06
-2.01047e-06
-3.4671e-06
-1.1396e-06
-2.74926e-06
-5.05119e-07
-1.91983e-06
-1.26291e-07
-1.08833e-06
-3.36048e-07
-8.94037e-06
-1.17671e-06
-8.11521e-06
-3.39639e-06
-6.90069e-06
-4.81644e-06
-5.47611e-06
-5.45322e-06
-4.01138e-06
-5.4055e-06
-2.65379e-06
-4.82469e-06
-1.51731e-06
-3.88574e-06
-6.77132e-07
-2.76001e-06
-1.70131e-07
-1.59533e-06
-5.06179e-07
-1.10273e-05
-1.43529e-06
-1.01084e-05
-4.31525e-06
-8.70458e-06
-6.22029e-06
-7.00458e-06
-7.15321e-06
-5.20359e-06
-7.20649e-06
-3.48809e-06
-6.54019e-06
-2.01752e-06
-5.35631e-06
-9.09091e-07
-3.86844e-06
-2.3033e-07
-2.27409e-06
-7.3651e-07
-1.32173e-05
-1.64841e-06
-1.22809e-05
-5.25156e-06
-1.0765e-05
-7.73626e-06
-8.83768e-06
-9.08051e-06
-6.70136e-06
-9.34281e-06
-4.58087e-06
-8.66068e-06
-2.69675e-06
-7.24042e-06
-1.23385e-06
-5.33135e-06
-3.17007e-07
-3.19093e-06
-1.05352e-06
-3.56655e-07
1.38203e-06
-1.35235e-06
4.05153e-06
-2.88774e-06
6.59559e-06
-4.79895e-06
8.7621e-06
-6.88649e-06
1.03145e-05
-8.94837e-06
1.10505e-05
-1.08086e-05
1.08112e-05
-1.23317e-05
9.47591e-06
-1.34174e-05
6.94459e-06
3.11797e-06
-1.39694e-05
-4.13231e-07
1.79526e-06
-1.5236e-06
5.1619e-06
-3.15121e-06
8.22321e-06
-5.04789e-06
1.06588e-05
-6.95964e-06
1.22262e-05
-8.67955e-06
1.27704e-05
-1.00795e-05
1.22111e-05
-1.11158e-05
1.05122e-05
-1.18077e-05
7.6365e-06
3.49958e-06
-1.21893e-05
-4.93933e-07
2.2892e-06
-1.73929e-06
6.40725e-06
-3.41671e-06
9.90064e-06
-5.16307e-06
1.24051e-05
-6.68086e-06
1.3744e-05
-7.79787e-06
1.38874e-05
-8.4805e-06
1.28937e-05
-8.81198e-06
1.08437e-05
-8.9486e-06
7.77313e-06
3.61252e-06
-9.06154e-06
-6.23706e-07
2.9129e-06
-2.03381e-06
7.81735e-06
-3.67847e-06
1.15453e-05
-5.06721e-06
1.37939e-05
-5.91248e-06
1.45893e-05
-6.14954e-06
1.41245e-05
-5.8932e-06
1.26374e-05
-5.37168e-06
1.03222e-05
-4.86404e-06
7.26549e-06
3.39805e-06
-4.64957e-06
-8.43255e-07
3.75616e-06
-2.4277e-06
9.4018e-06
-3.85181e-06
1.29694e-05
-4.56e-06
1.45021e-05
-4.40171e-06
1.4431e-05
-3.51762e-06
1.32404e-05
-2.20571e-06
1.13255e-05
-8.16346e-07
8.93279e-06
3.04894e-07
6.14425e-06
2.86787e-06
8.35071e-07
-1.20085e-06
4.957e-06
-2.85744e-06
1.10584e-05
-3.66365e-06
1.37756e-05
-3.23339e-06
1.40718e-05
-1.75386e-06
1.29515e-05
3.57479e-07
1.1129e-05
2.65205e-06
9.03091e-06
4.7409e-06
6.84394e-06
6.3041e-06
4.58105e-06
2.11564e-06
7.05633e-06
-1.68514e-06
6.64214e-06
-2.98579e-06
1.2359e-05
-2.47153e-06
1.32614e-05
-4.01465e-07
1.20017e-05
2.53264e-06
1.00174e-05
5.69881e-06
7.96288e-06
8.64162e-06
6.0881e-06
1.10684e-05
4.41712e-06
1.2781e-05
2.86847e-06
1.29881e-06
1.35979e-05
-2.02583e-06
8.66797e-06
-1.81458e-06
1.21478e-05
9.58667e-07
1.04881e-05
4.88418e-06
8.07622e-06
8.92912e-06
5.97244e-06
1.25565e-05
4.33548e-06
1.5539e-05
3.1056e-06
1.78027e-05
2.15346e-06
1.93169e-05
1.35424e-06
5.9444e-07
2.00213e-05
-7.19257e-07
9.38723e-06
3.2065e-06
8.22204e-06
8.62993e-06
5.06467e-06
1.35854e-05
3.1208e-06
1.75786e-05
1.97915e-06
2.06259e-05
1.28818e-06
2.28739e-05
8.57639e-07
2.44604e-05
5.66939e-07
2.54708e-05
3.43895e-07
1.42864e-07
2.59223e-05
9.38723e-06
1.76093e-05
2.26739e-05
2.57947e-05
2.77739e-05
2.90621e-05
2.99197e-05
3.04866e-05
3.08305e-05
3.09734e-05
-1.38729e-05
-1.74498e-06
-1.31392e-05
-5.98517e-06
-1.18208e-05
-9.05466e-06
-9.99873e-06
-1.09026e-05
-7.82111e-06
-1.15204e-05
-5.50985e-06
-1.09719e-05
-3.3343e-06
-9.41597e-06
-1.56294e-06
-7.10271e-06
-4.10736e-07
-4.34314e-06
-1.46425e-06
-1.22397e-05
-1.69462e-06
-1.19124e-05
-6.31241e-06
-1.11334e-05
-9.8337e-06
-9.84259e-06
-1.21934e-05
-8.06354e-06
-1.32995e-05
-5.94324e-06
-1.30923e-05
-3.74968e-06
-1.16095e-05
-1.82342e-06
-9.02897e-06
-4.9565e-07
-5.67091e-06
-1.9599e-06
-9.238e-06
-1.51816e-06
-9.38741e-06
-6.163e-06
-9.31787e-06
-9.90324e-06
-8.81924e-06
-1.2692e-05
-7.749e-06
-1.43697e-05
-6.11115e-06
-1.47301e-05
-4.1043e-06
-1.36164e-05
-2.10976e-06
-1.10235e-05
-6.03116e-07
-7.17755e-06
-2.56302e-06
-4.91005e-06
-1.25768e-06
-5.53234e-06
-5.5407e-06
-6.24831e-06
-9.18727e-06
-6.73185e-06
-1.22085e-05
-6.67009e-06
-1.44315e-05
-5.86385e-06
-1.55363e-05
-4.34095e-06
-1.51393e-05
-2.43358e-06
-1.29309e-05
-7.53703e-07
-8.85742e-06
-3.31672e-06
5.39643e-07
-9.62254e-07
-4.67961e-07
-4.5331e-06
-1.90848e-06
-7.74675e-06
-3.41944e-06
-1.06976e-05
-4.57458e-06
-1.32763e-05
-4.96013e-06
-1.51508e-05
-4.32673e-06
-1.57727e-05
-2.78859e-06
-1.4469e-05
-9.83469e-07
-1.06625e-05
-4.30019e-06
6.76757e-06
-6.73489e-07
5.53513e-06
-3.30066e-06
3.58309e-06
-5.79471e-06
1.20735e-06
-8.32182e-06
-1.17407e-06
-1.08949e-05
-3.01697e-06
-1.33079e-05
-3.75712e-06
-1.50325e-05
-3.07409e-06
-1.5152e-05
-1.33037e-06
-1.24063e-05
-5.63056e-06
1.33425e-05
-4.18138e-07
1.20887e-05
-2.0469e-06
9.96484e-06
-3.6708e-06
7.11763e-06
-5.4746e-06
3.80833e-06
-7.58559e-06
5.1642e-07
-1.0016e-05
-2.01446e-06
-1.25017e-05
-2.91058e-06
-1.42559e-05
-1.75408e-06
-1.35628e-05
-7.38464e-06
1.9814e-05
-2.10835e-07
1.8745e-05
-9.77915e-07
1.68497e-05
-1.77548e-06
1.41121e-05
-2.73706e-06
1.05428e-05
-4.01628e-06
6.31522e-06
-5.7884e-06
1.978e-06
-8.16445e-06
-1.31165e-06
-1.09663e-05
-1.93074e-06
-1.29437e-05
-9.31538e-06
2.57758e-05
-6.42934e-08
2.506e-05
-2.62128e-07
2.37597e-05
-4.75123e-07
2.17735e-05
-7.50893e-07
1.89218e-05
-1.16457e-06
1.49854e-05
-1.85202e-06
9.87216e-06
-3.05122e-06
4.06939e-06
-5.1635e-06
-3.53435e-07
-8.52085e-06
-9.66881e-06
3.09091e-05
3.0647e-05
3.01719e-05
2.9421e-05
2.82564e-05
2.64044e-05
2.33532e-05
1.81897e-05
9.66881e-06
)
;

boundaryField
{
    movingWall
    {
        type            calculated;
        value           uniform 0;
    }
    fixedWalls
    {
        type            calculated;
        value           uniform 0;
    }
    frontAndBack
    {
        type            empty;
        value           nonuniform List<scalar> 0();
    }
}


// ************************************************************************* //
