/*--------------------------------*- C++ -*----------------------------------*\
  =========                 |
  \\      /  F ield         | OpenFOAM: The Open Source CFD Toolbox
   \\    /   O peration     | Website:  https://openfoam.org
    \\  /    A nd           | Version:  9
     \\/     M anipulation  |
\*---------------------------------------------------------------------------*/
FoamFile
{
    format      ascii;
    class       volVectorField;
    location    "0.6";
    object      U;
}
// * * * * * * * * * * * * * * * * * * * * * * * * * * * * * * * * * * * * * //

dimensions      [0 1 -1 0 0 0 0];

internalField   nonuniform List<vector> 
400
(
(0.000129917 -0.000129025 0)
(0.000243245 -5.18151e-05 0)
(-7.3286e-05 0.000130547 0)
(-0.000976408 0.000309355 0)
(-0.00247192 0.000444625 0)
(-0.00445449 0.000518922 0)
(-0.00672909 0.000524135 0)
(-0.00901904 0.000457964 0)
(-0.0109744 0.000322637 0)
(-0.0121881 0.000125871 0)
(5.99733e-05 -0.000248175 0)
(-0.000232811 0.000245625 0)
(-0.00159582 0.00109975 0)
(-0.00429659 0.00194676 0)
(-0.00837342 0.0026012 0)
(-0.0136252 0.0029557 0)
(-0.0195988 0.00294898 0)
(-0.0256003 0.00255629 0)
(-0.0307214 0.00178589 0)
(-0.033893 0.000684601 0)
(-0.000113931 4.42057e-05 0)
(-0.00108043 0.00159683 0)
(-0.00378315 0.0037584 0)
(-0.00842355 0.00587791 0)
(-0.0149968 0.00752616 0)
(-0.0232215 0.00840446 0)
(-0.032449 0.00831962 0)
(-0.0416566 0.0071796 0)
(-0.0494835 0.0049949 0)
(-0.0543164 0.00189711 0)
(-0.00029814 0.000926373 0)
(-0.00201238 0.00435141 0)
(-0.006207 0.00845021 0)
(-0.0129229 0.0123414 0)
(-0.0220257 0.0153299 0)
(-0.0331184 0.0168706 0)
(-0.0453684 0.016578 0)
(-0.057475 0.014249 0)
(-0.0677068 0.00988526 0)
(-0.0740062 0.00373832 0)
(-0.000472718 0.00249401 0)
(-0.002944 0.00879802 0)
(-0.00870423 0.0155669 0)
(-0.0176073 0.0217286 0)
(-0.0293273 0.0263323 0)
(-0.0433023 0.0285721 0)
(-0.0584977 0.0278447 0)
(-0.0733549 0.0238143 0)
(-0.0858275 0.0164722 0)
(-0.0934935 0.00622075 0)
(-0.000640823 0.00482748 0)
(-0.00387364 0.0152264 0)
(-0.0112566 0.0255758 0)
(-0.0224595 0.0346035 0)
(-0.0369249 0.0411048 0)
(-0.0538769 0.044017 0)
(-0.0720476 0.0425234 0)
(-0.0896203 0.0361646 0)
(-0.104272 0.0249399 0)
(-0.113283 0.00943686 0)
(-0.000813776 0.00803786 0)
(-0.00484035 0.0239812 0)
(-0.0139363 0.0390237 0)
(-0.0275866 0.0516379 0)
(-0.0449654 0.0603493 0)
(-0.0650345 0.0638506 0)
(-0.0862571 0.0611451 0)
(-0.106554 0.0516949 0)
(-0.123363 0.0355541 0)
(-0.133738 0.013536 0)
(-0.00100716 0.012298 0)
(-0.00590811 0.0355324 0)
(-0.0168776 0.0566076 0)
(-0.0331836 0.0736527 0)
(-0.0536734 0.0848945 0)
(-0.0769876 0.0888094 0)
(-0.101285 0.0842943 0)
(-0.124234 0.0708276 0)
(-0.1431 0.0486047 0)
(-0.154822 0.0187122 0)
(-0.00124059 0.0178746 0)
(-0.00716191 0.0505511 0)
(-0.0202616 0.079255 0)
(-0.0394984 0.101659 0)
(-0.063278 0.115672 0)
(-0.0898318 0.11963 0)
(-0.116983 0.112469 0)
(-0.1422 0.0938618 0)
(-0.16272 0.0642893 0)
(-0.175582 0.0251638 0)
(-0.00154137 0.0251717 0)
(-0.00872195 0.07 0)
(-0.0243335 0.108192 0)
(-0.0468145 0.136834 0)
(-0.0739058 0.153559 0)
(-0.10329 0.156755 0)
(-0.132449 0.145704 0)
(-0.1588 0.12059 0)
(-0.179857 0.0824124 0)
(-0.193162 0.0329581 0)
(-0.0122407 -0.000104735 0)
(-0.0110959 -0.000314068 0)
(-0.00914048 -0.000464465 0)
(-0.00679963 -0.000539871 0)
(-0.00446031 -0.000534792 0)
(-0.00243101 -0.000453304 0)
(-0.000920981 -0.000308259 0)
(-3.14457e-05 -0.000122355 0)
(0.000260956 6.06604e-05 0)
(0.000133023 0.000131829 0)
(-0.0340088 -0.00058985 0)
(-0.0309894 -0.0017473 0)
(-0.0258706 -0.00258573 0)
(-0.0197613 -0.00302074 0)
(-0.0136489 -0.00302917 0)
(-0.00829474 -0.00264347 0)
(-0.00418188 -0.00194577 0)
(-0.00150372 -0.00106624 0)
(-0.000188409 -0.000206086 0)
(7.01522e-05 0.000265283 0)
(-0.0544783 -0.00166626 0)
(-0.0498606 -0.00489995 0)
(-0.0420444 -0.00725045 0)
(-0.0326945 -0.00849516 0)
(-0.0232769 -0.00858699 0)
(-0.0149059 -0.00763567 0)
(-0.00827391 -0.00588366 0)
(-0.00365611 -0.00368322 0)
(-0.00101572 -0.00150057 0)
(-9.81598e-05 4.84133e-06 0)
(-0.0742229 -0.00330901 0)
(-0.0682199 -0.00970333 0)
(-0.0580243 -0.0143715 0)
(-0.0457508 -0.0168975 0)
(-0.0332582 -0.0172113 0)
(-0.0219639 -0.0155446 0)
(-0.0127635 -0.0123688 0)
(-0.0060562 -0.0083246 0)
(-0.00193 -0.00417607 0)
(-0.000276781 -0.00082897 0)
(-0.0938046 -0.00549673 0)
(-0.0865838 -0.0161463 0)
(-0.0742128 -0.0239862 0)
(-0.0591716 -0.0283526 0)
(-0.0436602 -0.0291393 0)
(-0.0293912 -0.0267171 0)
(-0.017495 -0.0218182 0)
(-0.0085545 -0.0153991 0)
(-0.00284968 -0.00852777 0)
(-0.000445743 -0.00233175 0)
(-0.113767 -0.0082302 0)
(-0.105483 -0.0243465 0)
(-0.0910758 -0.0363573 0)
(-0.0733178 -0.0432812 0)
(-0.0547218 -0.0449293 0)
(-0.0373159 -0.0417906 0)
(-0.02252 -0.0348581 0)
(-0.0111688 -0.025419 0)
(-0.00378581 -0.0148674 0)
(-0.000610341 -0.00458713 0)
(-0.13452 -0.0114837 0)
(-0.125368 -0.0344387 0)
(-0.109081 -0.0518207 0)
(-0.0886383 -0.0622343 0)
(-0.0668366 -0.0653125 0)
(-0.0460511 -0.06159 0)
(-0.028062 -0.0522876 0)
(-0.0140362 -0.0390336 0)
(-0.00480212 -0.0236014 0)
(-0.000786622 -0.00772406 0)
(-0.156073 -0.0151598 0)
(-0.146376 -0.0464839 0)
(-0.12852 -0.0706784 0)
(-0.105553 -0.0858048 0)
(-0.0804861 -0.0911529 0)
(-0.0560581 -0.0871522 0)
(-0.0344902 -0.0751618 0)
(-0.0173923 -0.0571464 0)
(-0.00600292 -0.0353373 0)
(-0.000998273 -0.0119634 0)
(-0.177499 -0.0190308 0)
(-0.167832 -0.060326 0)
(-0.149102 -0.0930137 0)
(-0.124165 -0.114461 0)
(-0.0960668 -0.123351 0)
(-0.0678605 -0.11973 0)
(-0.042287 -0.104888 0)
(-0.0215628 -0.0810606 0)
(-0.00753389 -0.0510155 0)
(-0.00127785 -0.0176748 0)
(-0.195886 -0.0226559 0)
(-0.187255 -0.0753034 0)
(-0.169106 -0.118273 0)
(-0.143623 -0.148108 0)
(-0.113486 -0.162505 0)
(-0.0818495 -0.160625 0)
(-0.0519952 -0.143247 0)
(-0.0269753 -0.112627 0)
(-0.00959938 -0.0720782 0)
(-0.00167224 -0.0254591 0)
(-0.00194202 0.0344444 0)
(-0.010721 0.0943003 0)
(-0.0292936 0.143559 0)
(-0.0551382 0.178627 0)
(-0.0849496 0.197091 0)
(-0.1157 0.197878 0)
(-0.14463 0.1812 0)
(-0.169475 0.148278 0)
(-0.18858 0.100949 0)
(-0.200666 0.0413724 0)
(-0.00250215 0.0455117 0)
(-0.0133416 0.122484 0)
(-0.0352806 0.183056 0)
(-0.064074 0.223061 0)
(-0.0948676 0.240716 0)
(-0.123899 0.236426 0)
(-0.148563 0.212223 0)
(-0.167567 0.170982 0)
(-0.180853 0.115615 0)
(-0.189066 0.0485001 0)
(-0.00338266 0.0584943 0)
(-0.0170436 0.153982 0)
(-0.0427288 0.224478 0)
(-0.0733002 0.265932 0)
(-0.101917 0.278627 0)
(-0.124505 0.265888 0)
(-0.139481 0.232548 0)
(-0.147442 0.183537 0)
(-0.150629 0.122757 0)
(-0.152075 0.0524422 0)
(-0.00494699 0.0744253 0)
(-0.0227491 0.189562 0)
(-0.0523067 0.266517 0)
(-0.0819994 0.303514 0)
(-0.103141 0.305578 0)
(-0.112698 0.280808 0)
(-0.111584 0.237549 0)
(-0.103264 0.182584 0)
(-0.0926218 0.120204 0)
(-0.0849566 0.0519321 0)
(-0.00791822 0.0953152 0)
(-0.031837 0.230083 0)
(-0.063941 0.306326 0)
(-0.0869026 0.329989 0)
(-0.092174 0.314983 0)
(-0.0805392 0.275748 0)
(-0.0571734 0.223773 0)
(-0.0288678 0.166466 0)
(-0.00263715 0.107322 0)
(0.0149049 0.0465147 0)
(-0.0134523 0.124674 0)
(-0.0454661 0.275131 0)
(-0.0743302 0.337406 0)
(-0.0790347 0.336445 0)
(-0.0568463 0.299436 0)
(-0.0160852 0.246674 0)
(0.0330255 0.190386 0)
(0.0813877 0.136264 0)
(0.121569 0.0856125 0)
(0.14735 0.0369028 0)
(-0.0222093 0.168517 0)
(-0.0611228 0.319427 0)
(-0.0707891 0.345922 0)
(-0.0385221 0.31024 0)
(0.0228638 0.252403 0)
(0.0960496 0.193086 0)
(0.168185 0.14058 0)
(0.231014 0.0963262 0)
(0.279314 0.0587396 0)
(0.309114 0.0249496 0)
(-0.0290502 0.23318 0)
(-0.0620254 0.344062 0)
(-0.0194488 0.308014 0)
(0.0711586 0.238778 0)
(0.174388 0.173477 0)
(0.271477 0.12156 0)
(0.354142 0.0828995 0)
(0.419324 0.0542021 0)
(0.466193 0.0319839 0)
(0.493965 0.0132378 0)
(0.00660631 0.28364 0)
(0.0187045 0.300474 0)
(0.154198 0.205713 0)
(0.303786 0.130515 0)
(0.425301 0.0818602 0)
(0.51875 0.0514724 0)
(0.588789 0.0325261 0)
(0.639434 0.0201916 0)
(0.673768 0.0114692 0)
(0.693279 0.00451952 0)
(0.30431 0.145102 0)
(0.407631 0.125661 0)
(0.582962 0.0698436 0)
(0.708904 0.0364287 0)
(0.781805 0.0193429 0)
(0.827105 0.0106367 0)
(0.857107 0.00609534 0)
(0.877149 0.00353892 0)
(0.890019 0.00190438 0)
(0.896969 0.000674966 0)
(-0.204057 -0.0251364 0)
(-0.197993 -0.0890879 0)
(-0.183075 -0.143302 0)
(-0.160074 -0.183551 0)
(-0.130553 -0.206135 0)
(-0.0971979 -0.208563 0)
(-0.0636209 -0.190225 0)
(-0.0339124 -0.152705 0)
(-0.0123956 -0.0995863 0)
(-0.00223314 -0.0358662 0)
(-0.19246 -0.0255524 0)
(-0.190572 -0.0979593 0)
(-0.182336 -0.162087 0)
(-0.166392 -0.213416 0)
(-0.142222 -0.246748 0)
(-0.11103 -0.257178 0)
(-0.0760295 -0.241424 0)
(-0.0422183 -0.199009 0)
(-0.0160379 -0.132832 0)
(-0.00301596 -0.0489105 0)
(-0.154408 -0.0238411 0)
(-0.157753 -0.0996519 0)
(-0.159346 -0.170052 0)
(-0.155442 -0.231098 0)
(-0.142704 -0.276626 0)
(-0.119626 -0.299071 0)
(-0.08763 -0.291211 0)
(-0.051742 -0.248444 0)
(-0.0208254 -0.170917 0)
(-0.00416397 -0.0647046 0)
(-0.0851308 -0.0204853 0)
(-0.0939774 -0.0935411 0)
(-0.107467 -0.164863 0)
(-0.119926 -0.232125 0)
(-0.125162 -0.289424 0)
(-0.117971 -0.327281 0)
(-0.096062 -0.333935 0)
(-0.0623795 -0.298243 0)
(-0.0274836 -0.21393 0)
(-0.00602782 -0.0841776 0)
(0.0175442 -0.0162174 0)
(0.00389428 -0.0803345 0)
(-0.0215516 -0.146228 0)
(-0.0524648 -0.213983 0)
(-0.0809162 -0.279646 0)
(-0.0981051 -0.333901 0)
(-0.0963237 -0.361572 0)
(-0.0729559 -0.343414 0)
(-0.0370816 -0.261508 0)
(-0.00931417 -0.109105 0)
(0.15259 -0.0117776 0)
(0.135761 -0.0620666 0)
(0.100903 -0.116454 0)
(0.0532669 -0.177463 0)
(0.00020962 -0.244526 0)
(-0.0479091 -0.311525 0)
(-0.078118 -0.363566 0)
(-0.0786592 -0.374913 0)
(-0.0501176 -0.311353 0)
(-0.0150793 -0.142578 0)
(0.315759 -0.0077067 0)
(0.298053 -0.0417172 0)
(0.258902 -0.0803234 0)
(0.20104 -0.127469 0)
(0.128563 -0.186069 0)
(0.0494135 -0.255715 0)
(-0.0221423 -0.327568 0)
(-0.0653671 -0.376987 0)
(-0.0626466 -0.355665 0)
(-0.0235075 -0.18989 0)
(0.500178 -0.00430873 0)
(0.484233 -0.0226904 0)
(0.447721 -0.0444733 0)
(0.390569 -0.0732609 0)
(0.312166 -0.113543 0)
(0.213912 -0.170135 0)
(0.103215 -0.244626 0)
(-0.000158712 -0.326678 0)
(-0.0559116 -0.372781 0)
(-0.0280096 -0.255034 0)
(0.69732 -0.00181254 0)
(0.685796 -0.00847879 0)
(0.659289 -0.0166753 0)
(0.616174 -0.0283285 0)
(0.552625 -0.0466687 0)
(0.463128 -0.0772884 0)
(0.340971 -0.128769 0)
(0.183838 -0.210942 0)
(0.0356554 -0.313831 0)
(0.014083 -0.296757 0)
(0.898071 -0.00042046 0)
(0.893384 -0.00158084 0)
(0.882983 -0.00305956 0)
(0.865785 -0.00532733 0)
(0.839065 -0.00936197 0)
(0.797363 -0.0173336 0)
(0.72803 -0.0338476 0)
(0.60314 -0.0677884 0)
(0.421851 -0.126097 0)
(0.310648 -0.147393 0)
)
;

boundaryField
{
    movingWall
    {
        type            fixedValue;
        value           uniform (1 0 0);
    }
    fixedWalls
    {
        type            noSlip;
    }
    frontAndBack
    {
        type            empty;
    }
}


// ************************************************************************* //
