/*--------------------------------*- C++ -*----------------------------------*\
  =========                 |
  \\      /  F ield         | OpenFOAM: The Open Source CFD Toolbox
   \\    /   O peration     | Website:  https://openfoam.org
    \\  /    A nd           | Version:  9
     \\/     M anipulation  |
\*---------------------------------------------------------------------------*/
FoamFile
{
    format      ascii;
    class       volScalarField;
    location    "31.6";
    object      p;
}
// * * * * * * * * * * * * * * * * * * * * * * * * * * * * * * * * * * * * * //

dimensions      [0 2 -2 0 0 0 0];

internalField   nonuniform List<scalar> 
918
(
23.469
23.5758
0.953054
22.8864
1.01738
23.0922
3.27234
13.7848
19.2422
2.93418
2.62525
14.4083
20.6352
16.8766
12.9928
0.924916
14.0518
2.24639
18.4599
1.39823
12.992
20.4477
21.5364
19.284
14.1211
14.3718
18.5975
1.14508
0.1078
0.254958
0.979339
0.410966
0.147522
21.6291
22.3058
22.2441
15.4948
10.4024
3.59753
3.80208
2.98282
2.80582
13.8274
13.9274
5.86702
13.7637
13.7594
16.6437
19.1103
19.2539
19.5471
19.3361
19.7224
5.97391
2.78537
2.60539
2.87619
2.95056
2.983
2.69761
2.67919
2.48287
2.33693
13.8876
14.4813
14.5365
14.2677
14.2154
22.4518
21.6949
22.0296
21.136
21.2814
20.2113
19.8257
17.2523
17.6047
16.4785
16.0977
12.7832
12.7443
13.2127
13.4626
0.145462
1.07597
1.22312
14.0588
14.0953
14.0953
14.1098
8.28272
2.18822
2.19099
17.9002
17.4767
20.4816
20.7488
20.1958
20.0103
1.53008
1.52604
1.15073
1.18141
0.950613
13.3333
13.4875
19.2354
18.4023
14.1546
14.0546
14.1296
11.4998
13.91
13.9833
15.3213
15.7769
14.9661
15.4026
18.1675
17.7495
19.0341
19.4713
0.393094
0.154551
0.687537
0.318253
0.516621
15.3631
15.1577
15.6107
15.6615
15.8927
10.4072
10.3378
10.3812
10.3011
4.14939
4.46399
2.25519
2.56976
2.42064
9.8658
13.9437
13.9905
4.81094
5.51529
5.17861
6.34976
6.72415
16.0094
16.446
16.1847
17.7311
16.936
17.2841
19.8133
19.3025
19.6029
6.36847
6.60286
5.60808
5.24936
2.23842
2.48794
2.43001
2.98192
2.95993
3.21773
3.34612
2.69845
2.55508
2.89332
2.77669
2.82881
2.16618
2.03635
13.6117
13.3978
14.1507
14.3292
15.0964
14.9481
14.6547
14.8235
19.0208
19.4243
19.4578
19.0736
11.5449
10.1554
13.717
13.9926
0.302134
0.264602
0.138295
0.380875
0.400762
0.142714
2.01561
1.8271
1.40549
1.68083
14.0564
14.0162
8.52331
8.74294
8.1192
7.86303
16.3144
16.4646
17.0987
16.6985
1.96271
1.67645
1.80632
13.6505
13.523
13.6298
10.9348
10.3683
11.9775
12.2473
13.9914
14.0352
14.0311
15.681
15.9994
19.8222
20.0928
19.9197
20.3055
21.3683
21.0196
20.6348
14.539
14.9474
14.7858
16.128
15.7617
15.9812
15.189
15.4937
15.3516
10.3695
10.4158
10.1194
10.1973
10.2458
10.1929
9.80302
9.67605
14.0771
14.0321
14.0562
7.25222
7.75027
4.86913
4.54032
12.5436
13.2168
12.8923
18.6505
17.9729
18.7059
18.335
17.885
18.2085
10.4266
10.3883
10.4216
14.9169
14.2548
14.6067
2.44114
2.07693
2.24001
8.93891
9.0323
6.97093
7.58754
7.25064
16.3011
16.6414
17.3216
16.4333
16.901
17.4083
17.1864
9.93905
10.0719
9.98874
9.65948
9.55304
9.73501
8.33553
8.94885
3.6127
4.26917
3.96513
9.20029
9.43024
9.2775
18.63
19.1648
0.765736
1.15303
19.5948
19.3185
0.1391
0.241985
14.2533
12.5509
7.26247
17.1972
16.6298
18.9696
3.19249
6.10254
2.81004
3.3807
2.68642
14.6154
14.2493
13.3405
0.452871
1.25647
1.70949
2.89616
18.4104
17.7352
18.8513
19.1715
19.2258
0.687505
0.912707
0.584113
1.24251
1.03115
1.27615
15.5508
15.649
4.32351
18.8583
19.1626
19.1804
17.6571
18.6098
17.6673
0.935499
0.642475
0.707384
10.0805
12.1214
14.2135
13.7661
13.9631
13.9852
13.7361
14.8694
14.5389
14.5038
14.9887
13.9662
13.8209
7.73427
6.38317
8.06873
7.70909
17.0985
16.6864
16.4933
16.239
18.0848
17.6108
18.4612
17.8496
18.3115
18.5983
2.94346
3.13316
3.01203
2.52066
6.14331
6.60602
5.48811
5.63362
4.25936
2.42898
2.5275
2.75365
2.58438
2.9314
2.67897
2.94297
2.57931
2.32366
2.3218
2.93113
2.73895
2.60456
14.5938
14.5322
14.3331
14.3712
14.3536
14.4693
13.5349
13.9397
13.5674
12.3985
12.9797
12.507
0.825602
0.66322
0.524897
1.32393
1.35102
1.11101
0.834626
1.17374
1.20195
0.814283
1.54558
1.44536
3.15555
2.64406
8.84016
7.9679
6.90109
16.8004
17.6022
16.7719
18.0126
18.4296
18.535
18.1554
17.6472
15.7297
15.7248
15.3849
15.3383
4.77086
3.73156
4.96693
4.53601
10.4777
14.0652
11.8425
10.8037
11.1
13.4241
13.9287
13.581
13.718
13.2931
12.8212
13.5131
13.0469
13.1482
12.9272
15.7177
16.1928
15.7993
15.2198
15.2398
10.5987
12.0154
5.46545
5.63944
7.24399
6.53782
13.5096
13.9326
13.9174
13.5558
13.7436
13.7447
13.6055
13.7797
13.8595
13.7541
11.8244
10.1438
9.04506
9.03865
14.0766
12.346
12.9302
12.4136
16.1203
16.6368
16.2515
15.6459
16.131
15.6028
15.63
15.8432
17.2014
16.951
16.7207
17.1076
3.05486
3.0036
3.64723
3.13336
3.03652
2.81959
3.4838
4.75829
4.41601
6.71834
7.26902
4.58003
3.3727
3.79291
4.80793
5.54134
5.51116
3.96934
4.50115
4.93011
4.44061
5.22431
4.72882
2.71799
3.02532
2.86348
2.8372
3.38191
3.88028
3.37582
2.48071
2.59273
2.25693
2.11919
3.53628
2.99618
3.033
3.67886
1.10662
1.32883
1.4411
2.41406
1.91327
1.97912
15.1824
14.8265
14.9601
14.2393
14.3068
14.2479
13.8724
15.2398
14.9618
15.0613
13.7097
13.7965
13.6098
13.9051
14.3211
14.6203
15.4522
15.1733
14.4124
14.5634
14.2143
14.1425
13.4645
12.9016
12.841
1.11254
0.824692
0.984155
0.910953
0.606213
0.79854
2.18333
1.5729
1.97062
1.72656
1.95985
1.4036
1.30244
4.25311
5.06393
3.96376
3.36522
3.06221
8.89857
9.0101
8.15877
7.85674
8.19829
8.42699
8.37673
7.13455
7.56162
7.37465
9.91546
9.57977
17.5866
17.5307
17.2019
17.043
17.2694
5.76235
7.66519
6.79906
7.91521
10.2065
10.5022
9.31083
8.705
9.45632
9.53426
14.0469
14.123
13.5639
14.0498
14.0783
11.8349
12.8822
13.4971
13.3115
13.8314
13.9123
12.9733
13.562
13.4773
12.76
12.8129
12.1277
12.4663
11.9944
11.7934
14.056
13.9507
14.2204
13.7713
14.1506
13.7148
14.0301
14.0281
14.3087
13.4107
12.832
12.8504
13.2767
12.9768
13.3227
13.4868
9.30841
9.94851
10.3872
10.9229
10.6302
10.4123
10.2795
10.5812
10.5581
10.8294
10.7487
10.5996
11.5605
13.4158
13.7008
13.8022
13.5993
13.6455
13.3381
13.6109
13.5402
13.9195
14.0074
14.0571
13.1377
13.2938
13.4885
13.3723
11.6751
10.0969
9.94911
9.50912
7.57675
8.04645
11.0253
9.90218
8.9174
8.98935
12.1685
10.8058
11.6192
12.0424
10.694
10.3059
12.9711
13.7592
13.979
13.7033
12.0601
12.1859
12.6356
13.0788
13.2681
13.7238
15.8601
16.4358
16.5137
16.2378
16.0998
16.1996
15.9497
16.0528
16.5269
16.6534
16.4847
2.88023
2.9939
2.92393
2.84927
3.08581
2.86136
3.95644
3.94734
3.15673
3.33701
3.35696
3.46241
2.93137
2.97447
4.82644
5.06209
5.33376
4.83226
6.17543
6.81644
7.39777
7.08328
5.78981
5.86915
6.18446
3.50751
3.53349
3.25181
3.70933
3.762
2.61169
2.23915
2.0443
2.5653
2.66657
2.05138
1.76844
1.81763
2.33207
2.05087
1.80488
14.9749
14.7332
14.7546
14.5344
14.589
14.9838
15.2047
15.0148
15.1532
15.2042
14.8033
14.6922
14.8633
1.81867
1.49363
1.62274
1.58092
1.64358
1.54986
1.73801
7.60572
6.41576
6.80323
5.97865
4.12067
4.64157
9.53882
9.96026
9.99873
9.7099
9.49983
9.8656
9.71638
9.70912
8.26332
9.33205
8.86794
9.2608
9.28219
9.34992
9.06455
9.08068
10.5844
10.6179
9.4829
10.1225
9.33127
7.93208
8.09908
9.11274
10.0863
10.4045
10.2496
9.97973
9.75112
10.1142
10.1689
10.229
10.2182
8.75169
8.71159
8.31104
13.9686
13.8751
14.0216
14.0268
14.1537
13.9786
13.8157
14.0929
14.1472
13.9314
11.0775
11.1364
11.3822
12.1289
12.1809
12.0918
11.3365
13.1006
12.7562
13.3941
13.3409
13.4133
13.0036
12.8268
13.0971
10.0807
11.4536
10.9865
11.2497
10.0632
9.30673
13.2233
13.2775
13.3428
13.6158
13.5738
14.1572
15.8301
15.7
15.7473
15.7903
15.402
15.4393
4.17555
3.82943
4.55101
4.50655
4.06474
3.76481
2.28669
1.96878
1.78088
1.65608
1.88947
1.9506
8.16248
8.18956
6.33395
7.35548
5.87628
4.93453
4.78994
5.95559
7.13685
7.19573
8.51334
9.18946
8.7486
8.57386
7.91817
8.24775
10.116
10.2104
10.1109
10.4298
9.96257
11.7122
11.2944
11.6433
13.2572
12.9669
12.3688
12.2554
12.2202
12.8132
11.9475
11.1792
11.8916
12.5471
12.5053
11.1179
10.8729
11.2996
11.2836
10.1977
10.7179
10.4798
10.8324
10.5477
)
;

boundaryField
{
    wall-4
    {
        type            zeroGradient;
    }
    velocity-inlet-5
    {
        type            zeroGradient;
    }
    velocity-inlet-6
    {
        type            zeroGradient;
    }
    pressure-outlet-7
    {
        type            fixedValue;
        value           uniform 0;
    }
    wall-8
    {
        type            zeroGradient;
    }
    frontAndBackPlanes
    {
        type            empty;
    }
}


// ************************************************************************* //
