/*--------------------------------*- C++ -*----------------------------------*\
  =========                 |
  \\      /  F ield         | OpenFOAM: The Open Source CFD Toolbox
   \\    /   O peration     | Website:  https://openfoam.org
    \\  /    A nd           | Version:  9
     \\/     M anipulation  |
\*---------------------------------------------------------------------------*/
FoamFile
{
    format      ascii;
    class       surfaceScalarField;
    location    "3.87";
    object      alphaPhi0.water;
}
// * * * * * * * * * * * * * * * * * * * * * * * * * * * * * * * * * * * * * //

dimensions      [0 3 -1 0 0 0 0];

internalField   nonuniform List<scalar> 
4432
(
-5.07527e-07
5.07527e-07
-8.92832e-07
3.85295e-07
-1.21179e-06
3.18962e-07
-1.48789e-06
2.76101e-07
-1.7381e-06
2.50201e-07
-1.96738e-06
2.29282e-07
-2.17395e-06
2.06576e-07
-2.35533e-06
1.81375e-07
-2.50974e-06
1.54414e-07
-2.63445e-06
1.24707e-07
-2.72285e-06
8.84001e-08
-2.76265e-06
3.98051e-08
-2.73458e-06
-2.80656e-08
-2.61451e-06
-1.20061e-07
-2.37651e-06
-2.37999e-07
-2.00586e-06
-3.70639e-07
-1.60044e-06
-4.05422e-07
-1.65302e-06
6.06488e-08
-2.50129e-06
8.32001e-07
-3.01959e-06
5.20092e-07
-2.57409e-06
-4.42767e-07
-1.36375e-06
-1.21509e-06
-1.36851e-06
-4.63952e-07
9.71482e-07
-8.32285e-07
7.53614e-07
-1.16329e-06
6.49969e-07
-1.46709e-06
5.79897e-07
-1.74691e-06
5.30014e-07
-2.00247e-06
4.84853e-07
-2.23145e-06
4.35548e-07
-2.43133e-06
3.8126e-07
-2.59979e-06
3.22872e-07
-2.73316e-06
2.58085e-07
-2.82528e-06
1.80524e-07
-2.8668e-06
8.13201e-08
-2.84611e-06
-4.87535e-08
-2.75088e-06
-2.15283e-07
-2.574e-06
-4.14875e-07
-2.33031e-06
-6.14325e-07
-2.09167e-06
-6.43561e-07
-2.04311e-06
4.40647e-08
-2.14739e-06
9.34921e-07
-2.24192e-06
5.70941e-07
-1.94181e-06
-7.43061e-07
-1.21129e-06
-1.94579e-06
-2.58429e-06
-4.26406e-07
1.39789e-06
-7.9347e-07
1.12067e-06
-1.13438e-06
9.90883e-07
-1.45582e-06
9.01332e-07
-1.75501e-06
8.29202e-07
-2.02877e-06
7.58606e-07
-2.27385e-06
6.8063e-07
-2.4875e-06
5.94906e-07
-2.66708e-06
5.02449e-07
-2.80889e-06
3.9989e-07
-2.9075e-06
2.79134e-07
-2.95559e-06
1.294e-07
-2.94532e-06
-5.90178e-08
-2.87179e-06
-2.88816e-07
-2.74014e-06
-5.46523e-07
-2.5754e-06
-7.79068e-07
-2.40046e-06
-8.04163e-07
-2.20297e-06
-1.19615e-07
-1.95389e-06
6.85565e-07
-1.72709e-06
3.43385e-07
-1.44518e-06
-1.05241e-06
-9.14102e-07
-2.47687e-06
-3.49839e-06
-4.02457e-07
1.80036e-06
-7.74644e-07
1.49285e-06
-1.1284e-06
1.34464e-06
-1.4661e-06
1.23903e-06
-1.78251e-06
1.14561e-06
-2.07255e-06
1.04865e-06
-2.3321e-06
9.4017e-07
-2.55807e-06
8.20868e-07
-2.74773e-06
6.92108e-07
-2.89745e-06
5.49607e-07
-3.00251e-06
3.84188e-07
-3.05732e-06
1.84208e-07
-3.05697e-06
-5.93711e-08
-3.00117e-06
-3.44616e-07
-2.9008e-06
-6.46897e-07
-2.78091e-06
-8.98957e-07
-2.64994e-06
-9.29537e-07
-2.33206e-06
-3.95741e-07
-1.91005e-06
2.63284e-07
-1.48257e-06
-8.43701e-08
-1.06811e-06
-1.48427e-06
-5.97619e-07
-2.94736e-06
-4.09595e-06
-3.88344e-07
2.1887e-06
-7.69648e-07
1.87415e-06
-1.13857e-06
1.71356e-06
-1.49288e-06
1.59334e-06
-1.82601e-06
1.47874e-06
-2.13169e-06
1.35432e-06
-2.40501e-06
1.21348e-06
-2.64263e-06
1.05849e-06
-2.84186e-06
8.91339e-07
-2.99917e-06
7.06918e-07
-3.11047e-06
4.95493e-07
-3.17159e-06
2.45322e-07
-3.17955e-06
-5.14045e-08
-3.13616e-06
-3.88007e-07
-3.05314e-06
-7.29917e-07
-2.94981e-06
-1.00228e-06
-2.81776e-06
-1.06159e-06
-2.48228e-06
-7.073e-07
-1.9363e-06
-2.64045e-07
-1.37604e-06
-6.5453e-07
-8.74578e-07
-2.02148e-06
-3.91428e-07
-3.43052e-06
-4.4874e-06
-3.83627e-07
2.57233e-06
-7.77557e-07
2.26807e-06
-1.16273e-06
2.09873e-06
-1.53383e-06
1.96443e-06
-1.8833e-06
1.82821e-06
-2.20398e-06
1.675e-06
-2.4903e-06
1.4998e-06
-2.73877e-06
1.30696e-06
-2.9468e-06
1.09937e-06
-3.11093e-06
8.71055e-07
-3.22761e-06
6.12171e-07
-3.29374e-06
3.11462e-07
-3.30754e-06
-3.7607e-08
-3.27097e-06
-4.24574e-07
-3.19367e-06
-8.07217e-07
-3.08762e-06
-1.10834e-06
-2.93124e-06
-1.21798e-06
-2.60879e-06
-1.02898e-06
-2.04635e-06
-8.24427e-07
-1.42644e-06
-1.29245e-06
-8.88848e-07
-2.55908e-06
-3.56077e-07
-3.96329e-06
-4.84349e-06
-3.8918e-07
2.96151e-06
-7.97938e-07
2.67683e-06
-1.19926e-06
2.50006e-06
-1.58664e-06
2.35181e-06
-1.95166e-06
2.19322e-06
-2.28634e-06
2.00968e-06
-2.58449e-06
1.79796e-06
-2.84257e-06
1.56504e-06
-3.05814e-06
1.31495e-06
-3.22772e-06
1.04064e-06
-3.34815e-06
7.32594e-07
-3.41729e-06
3.80595e-07
-3.434e-06
-2.09003e-08
-3.39938e-06
-4.59189e-07
-3.31993e-06
-8.86679e-07
-3.20151e-06
-1.22676e-06
-3.02012e-06
-1.39936e-06
-2.68793e-06
-1.36117e-06
-2.16225e-06
-1.3501e-06
-1.57771e-06
-1.87699e-06
-1.07466e-06
-3.06212e-06
-5.38974e-07
-4.49897e-06
-5.38262e-06
-4.0752e-07
3.36903e-06
-8.29405e-07
3.09871e-06
-1.24509e-06
2.91574e-06
-1.64778e-06
2.75449e-06
-2.02708e-06
2.57252e-06
-2.37424e-06
2.35685e-06
-2.68251e-06
2.10623e-06
-2.94841e-06
1.83094e-06
-3.16973e-06
1.53627e-06
-3.34276e-06
1.21367e-06
-3.46458e-06
8.54407e-07
-3.53404e-06
4.50059e-07
-3.55064e-06
-4.30785e-09
-3.51422e-06
-4.95607e-07
-3.42817e-06
-9.72728e-07
-3.2946e-06
-1.36031e-06
-3.09259e-06
-1.60137e-06
-2.76123e-06
-1.69253e-06
-2.2831e-06
-1.82824e-06
-1.77824e-06
-2.38186e-06
-1.38024e-06
-3.46012e-06
-1.04948e-06
-4.82973e-06
-6.43209e-06
-6.12122e-08
6.1211e-08
1.05304e-06
-1.11459e-06
2.01491e-06
-9.63788e-07
2.59281e-06
-5.78924e-07
2.85899e-06
-2.65651e-07
2.85329e-06
6.22116e-09
2.63235e-06
2.21462e-07
2.43082e-06
2.20685e-07
2.51497e-06
-8.82815e-08
2.92802e-06
-4.27359e-07
2.84334e-06
7.7726e-08
1.40771e-06
1.36499e-06
-8.43592e-08
1.48992e-06
3.22574e-07
-4.07383e-07
2.73777e-06
-2.40999e-06
5.44457e-06
-2.78874e-06
6.11385e-06
-7.69737e-07
2.93519e-06
3.17841e-06
2.93494e-06
4.82576e-07
-4.21366e-07
1.26979e-06
-1.90777e-06
1.88251e-06
-1.58437e-06
2.27529e-06
-9.76032e-07
2.44665e-06
-4.36889e-07
2.44634e-06
5.14968e-09
2.33387e-06
3.34255e-07
2.16432e-06
3.91099e-07
2.09511e-06
-1.82465e-08
2.17325e-06
-5.23066e-07
1.91598e-06
3.03704e-07
1.23373e-06
2.00034e-06
8.41606e-07
1.88199e-06
1.43654e-06
-9.81642e-07
2.73797e-06
-3.69769e-06
4.16212e-06
-4.21312e-06
4.81702e-06
-1.42503e-06
2.83041e-06
5.11679e-06
5.76511e-06
8.36501e-07
-1.26133e-06
1.35632e-06
-2.42728e-06
1.7512e-06
-1.97923e-06
2.02912e-06
-1.25396e-06
2.156e-06
-5.64042e-07
2.16111e-06
1.17744e-10
2.07729e-06
4.18154e-07
1.91944e-06
5.42259e-07
1.77816e-06
1.15534e-07
1.66896e-06
-4.22501e-07
1.43322e-06
5.08147e-07
1.2702e-06
2.16329e-06
1.36066e-06
1.79146e-06
1.93722e-06
-1.54109e-06
2.48752e-06
-4.24823e-06
3.21568e-06
-4.94157e-06
3.42393e-06
-1.74282e-06
2.18612e-06
6.35591e-06
8.19105e-06
9.41168e-07
-2.20341e-06
1.33541e-06
-2.82138e-06
1.60845e-06
-2.25224e-06
1.81943e-06
-1.4651e-06
1.93107e-06
-6.75978e-07
1.94874e-06
-1.75351e-08
1.87897e-06
4.83676e-07
1.73756e-06
6.77948e-07
1.5609e-06
2.90557e-07
1.33472e-06
-2.05189e-07
1.21595e-06
6.17504e-07
1.35009e-06
2.02909e-06
1.70455e-06
1.43693e-06
2.02478e-06
-1.80777e-06
2.15946e-06
-4.3832e-06
2.41743e-06
-5.1999e-06
2.64443e-06
-2.06872e-06
1.61227e-06
7.2083e-06
9.75507e-06
8.98589e-07
-3.10249e-06
1.23092e-06
-3.15345e-06
1.4456e-06
-2.46676e-06
1.62755e-06
-1.64704e-06
1.74237e-06
-7.90781e-07
1.78396e-06
-5.91117e-08
1.7369e-06
5.28019e-07
1.62705e-06
7.84938e-07
1.45017e-06
4.6588e-07
1.19764e-06
4.90997e-08
1.13318e-06
6.67933e-07
1.44911e-06
1.74745e-06
1.90501e-06
1.04855e-06
1.9481e-06
-1.8289e-06
1.77742e-06
-4.21303e-06
1.7025e-06
-5.12517e-06
1.9126e-06
-2.27882e-06
1.14522e-06
7.75795e-06
1.08475e-05
7.71015e-07
-3.87399e-06
1.06827e-06
-3.45084e-06
1.26274e-06
-2.66127e-06
1.44135e-06
-1.82575e-06
1.57502e-06
-9.24453e-07
1.65514e-06
-1.3931e-07
1.65096e-06
5.32384e-07
1.58001e-06
8.55992e-07
1.43342e-06
6.13757e-07
1.21054e-06
2.72776e-07
1.20502e-06
6.71799e-07
1.57776e-06
1.38898e-06
1.93994e-06
6.92618e-07
1.78499e-06
-1.67422e-06
1.3683e-06
-3.79722e-06
1.02809e-06
-4.78512e-06
1.042e-06
-2.29257e-06
7.61276e-07
8.03414e-06
1.12851e-05
5.80299e-07
-4.45509e-06
8.68445e-07
-3.73933e-06
1.06121e-06
-2.85415e-06
1.25097e-06
-2.01563e-06
1.41629e-06
-1.09023e-06
1.55107e-06
-2.74333e-07
1.60679e-06
4.77183e-07
1.58655e-06
8.76109e-07
1.48957e-06
7.10613e-07
1.32975e-06
4.29368e-07
1.35462e-06
6.4407e-07
1.66752e-06
1.07462e-06
1.88326e-06
4.76167e-07
1.58778e-06
-1.37973e-06
9.62944e-07
-3.17237e-06
3.50354e-07
-4.1734e-06
1.86081e-07
-2.12882e-06
4.22177e-07
7.79397e-06
1.20539e-05
4.21111e-07
-4.87602e-06
6.54388e-07
-3.97243e-06
8.38953e-07
-3.03879e-06
1.0478e-06
-2.22453e-06
1.2512e-06
-1.29361e-06
1.45622e-06
-4.78934e-07
1.59006e-06
3.43374e-07
1.64079e-06
8.25406e-07
1.6018e-06
7.38924e-07
1.50522e-06
5.07827e-07
1.55212e-06
5.87896e-07
1.77147e-06
8.64614e-07
1.83288e-06
4.14115e-07
1.39979e-06
-9.47348e-07
5.87787e-07
-2.36135e-06
-2.88017e-07
-3.29808e-06
-6.53677e-07
-1.73124e-06
1.73873e-07
6.96231e-06
1.24722e-05
-8.7903e-07
4.24806e-06
-1.85198e-06
4.07166e-06
-2.80813e-06
3.87189e-06
-3.7175e-06
3.66387e-06
-4.56609e-06
3.42111e-06
-5.33922e-06
3.12998e-06
-6.02074e-06
2.78775e-06
-6.60429e-06
2.41449e-06
-7.08662e-06
2.01859e-06
-7.45759e-06
1.58464e-06
-7.71093e-06
1.10774e-06
-7.84886e-06
5.87989e-07
-7.87457e-06
2.14015e-08
-7.78283e-06
-5.87344e-07
-7.57083e-06
-1.18473e-06
-7.23937e-06
-1.69177e-06
-6.76136e-06
-2.07938e-06
-6.07849e-06
-2.37539e-06
-5.21755e-06
-2.68917e-06
-4.41277e-06
-3.18663e-06
-3.96483e-06
-3.90805e-06
-4.13395e-06
-4.66058e-06
-5.0375e-06
-5.52844e-06
-9.16811e-07
3.27029e-06
-1.92258e-06
3.22194e-06
-2.8549e-06
3.03916e-06
-3.70905e-06
2.85674e-06
-4.53436e-06
2.70839e-06
-5.30168e-06
2.52226e-06
-5.98388e-06
2.27564e-06
-6.58335e-06
2.00526e-06
-7.09204e-06
1.71336e-06
-7.46589e-06
1.35321e-06
-7.70099e-06
9.36888e-07
-7.81727e-06
4.84087e-07
-7.85e-06
1.73127e-09
-7.78825e-06
-5.66522e-07
-7.58354e-06
-1.15462e-06
-7.23012e-06
-1.72476e-06
-6.72004e-06
-2.23731e-06
-6.04219e-06
-2.68671e-06
-5.2631e-06
-3.08759e-06
-4.57022e-06
-3.46894e-06
-4.13973e-06
-3.87927e-06
-3.99782e-06
-4.2984e-06
-4.54476e-06
-3.9843e-06
-3.18055e-07
3.96354e-08
-5.50133e-07
7.94903e-09
-8.01634e-07
0
-1.05774e-06
0
-1.27772e-06
2.93285e-08
-1.48824e-06
7.93572e-09
-1.72345e-06
2.44538e-08
-1.93964e-06
1.54752e-08
-2.1242e-06
7.09608e-09
-2.29891e-06
2.04379e-09
-2.45513e-06
0
-2.57328e-06
0
-2.66035e-06
-2.00623e-08
-2.71232e-06
-1.33633e-07
-2.76181e-06
-2.45689e-08
-2.77995e-06
-7.4638e-09
-2.7059e-06
-1.05486e-08
-2.50874e-06
-1.24779e-08
-2.2049e-06
-2.02565e-08
-1.88744e-06
-4.7608e-08
-1.69292e-06
-4.87535e-08
-1.7105e-06
-1.70824e-08
-2.34866e-09
-1.80898e-06
-1.45985e-08
2.90104e-08
-4.07149e-09
3.20417e-12
-5.87551e-09
9.30646e-09
-1.61076e-08
0
-2.27001e-08
0
-2.00123e-08
0
-2.50049e-08
1.62103e-08
-3.19535e-08
9.29232e-09
-2.60761e-08
0
-2.12794e-08
0
-1.86889e-08
0
-1.70477e-08
0
-7.64997e-09
-5.4285e-09
-2.3414e-09
-1.37203e-08
-2.0539e-09
-2.49427e-08
-2.13922e-09
-7.42253e-09
-2.02272e-09
-1.06502e-08
-1.7702e-09
-1.27016e-08
-1.45596e-09
-2.05496e-08
-1.06868e-09
-4.80183e-08
-6.97908e-10
-4.91515e-08
-8.95678e-10
-1.68505e-08
-1.63184e-09
-1.60044e-09
-2.2019e-09
5.95339e-09
4.78929e-10
2.50861e-10
-7.16572e-10
1.02022e-08
-6.37748e-09
5.64822e-09
-1.45001e-08
8.70868e-09
-2.16178e-08
2.16622e-09
-1.86348e-08
0
-3.05762e-08
8.07092e-09
-2.85457e-08
1.96955e-09
-3.0269e-08
3.67969e-09
-2.99497e-08
1.47331e-09
-2.5481e-08
-2.78735e-09
-1.93609e-08
-7.30203e-09
-1.15332e-08
-1.72786e-08
5.12225e-10
-3.27526e-08
1.46427e-09
-1.5276e-08
6.14132e-09
-2.03558e-08
1.62472e-08
-2.13992e-08
3.15845e-08
-8.05445e-09
3.92949e-08
-2.26198e-08
3.77431e-08
-1.44604e-08
1.38966e-09
7.72455e-10
1.93723e-09
-2.21935e-09
6.36576e-09
3.6634e-09
9.40027e-10
8.42442e-09
1.61469e-09
1.22671e-08
3.25954e-09
4.0699e-09
1.01334e-09
2.5095e-10
3.79581e-10
2.95633e-09
2.1419e-09
6.36486e-09
6.52286e-09
5.57275e-09
2.98176e-09
2.93566e-10
-1.81661e-09
5.49743e-10
-4.24572e-09
5.96205e-10
-4.44094e-09
-5.47837e-10
-4.3292e-09
-4.51073e-12
-3.98881e-09
-3.13305e-13
-7.29227e-09
-1.70823e-10
1.12388e-09
-1.4829e-09
8.88053e-09
-5.9021e-09
1.33106e-08
-3.60991e-09
1.27618e-08
-9.33498e-09
3.89624e-09
-7.50121e-09
1.62515e-09
-1.62509e-09
-4.19784e-10
1.41923e-09
1.87641e-09
-4.36882e-10
4.48403e-09
1.84471e-09
-1.1342e-10
2.14955e-09
3.84098e-10
3.02035e-09
5.35444e-09
5.00009e-09
8.4297e-09
2.22779e-09
6.50498e-09
0
5.58307e-09
0
6.94243e-09
0
2.35971e-09
0
1.9718e-10
0
3.57771e-11
0
7.68356e-12
1.82543e-13
1.1918e-13
-1.44603e-13
1.57832e-14
-4.21922e-12
-1.71407e-10
-3.40981e-12
-1.16042e-10
-2.85878e-11
-1.19573e-10
-1.08203e-09
-3.27407e-10
-2.42117e-09
-1.1274e-09
-7.55738e-09
-5.38302e-10
-6.74806e-09
-8.21982e-10
-1.4628e-09
-2.52013e-10
7.28928e-10
3.15816e-10
1.21499e-09
4.98326e-11
0
3.29584e-11
1.71659e-12
1.41754e-10
7.62612e-13
2.20038e-09
4.26103e-12
2.6407e-09
0
2.94119e-09
0
1.64472e-09
1.64234e-13
6.52183e-11
0
1.62928e-12
0
5.52818e-13
5.60831e-13
1.93734e-13
3.43173e-13
3.35638e-13
2.94104e-14
2.02693e-12
1.06563e-12
5.21983e-12
-3.40298e-12
1.15718e-12
-3.04815e-12
-1.87287e-11
-2.40374e-12
0
-8.66266e-11
-8.37711e-10
-6.01022e-10
-2.19241e-09
-4.43345e-09
-1.62938e-09
-5.49534e-09
-3.37331e-10
-2.3192e-09
4.13582e-10
-1.43781e-10
-2.64118e-09
3.31146e-09
2.16124e-13
0
1.28073e-12
0
2.11359e-12
0
5.50979e-12
0
3.73872e-12
0
3.21874e-12
3.4627e-15
3.32022e-12
7.53473e-15
7.72619e-13
0
1.09337e-13
1.30594e-13
8.80289e-14
5.70513e-13
7.54307e-14
3.44562e-13
6.33136e-14
3.02994e-14
2.70897e-11
5.87846e-12
2.69794e-11
4.36492e-12
0
-3.15356e-13
3.93291e-12
-5.78814e-14
0
-3.53794e-15
-2.70113e-11
-5.89226e-15
-9.02926e-10
-4.1223e-12
-1.56007e-09
-2.97148e-09
-3.18952e-10
-1.6496e-09
9.03639e-10
-1.50469e-09
-2.84304e-10
1.17895e-09
1.84183e-13
1.43697e-14
7.76276e-13
2.52601e-13
6.33137e-13
3.24366e-13
1.71959e-14
2.99691e-14
8.33078e-15
1.37949e-15
8.11344e-15
2.22387e-15
1.13038e-14
3.60397e-15
2.77667e-14
1.698e-14
4.44048e-14
1.42724e-13
9.05061e-12
4.20256e-12
1.56684e-11
1.05388e-11
7.7547e-12
5.93595e-12
3.86707e-12
0
4.60224e-12
0
8.16674e-14
0
3.50803e-15
-6.27309e-16
1.06086e-16
-1.63519e-16
6.81052e-17
-5.92531e-15
-4.0985e-12
-2.3815e-14
-1.69013e-10
-1.50125e-11
-1.48634e-10
-3.42007e-11
1.15565e-10
-2.96203e-11
-8.6793e-13
2.34857e-13
6.35197e-15
4.73071e-15
6.41042e-13
6.01368e-13
3.32686e-13
3.3049e-13
0
2.4287e-14
2.42336e-15
4.33963e-15
1.77588e-15
1.60885e-15
2.96885e-15
1.76802e-15
1.67374e-14
2.47112e-15
1.02045e-11
7.09927e-12
8.99238e-12
8.74534e-12
1.22885e-11
1.06083e-11
1.92906e-13
6.6657e-13
2.24553e-14
1.19562e-14
3.92448e-14
0
1.91258e-14
0
3.13369e-16
-7.45588e-18
2.12366e-16
-6.44545e-17
3.13429e-15
-1.39765e-16
2.95583e-15
-1.41667e-14
9.46953e-16
-1.50099e-11
-3.31094e-14
-3.4246e-11
-3.94966e-14
-2.9856e-11
-1.71443e-12
-4.13658e-14
2.40317e-15
3.06737e-15
1.27907e-14
1.17753e-14
1.05684e-14
0
1.06619e-14
3.46314e-15
1.5316e-15
5.59961e-15
1.76269e-15
4.21901e-15
1.18294e-15
1.69486e-15
6.46575e-13
1.14292e-12
4.36846e-12
6.88804e-12
3.15342e-12
8.49817e-13
4.08602e-13
0
2.60001e-14
0
7.12288e-14
5.78107e-14
2.37929e-14
2.36778e-14
1.4808e-16
6.84664e-17
1.37171e-16
1.5137e-18
1.23497e-16
-5.26238e-17
9.94766e-17
-1.17677e-16
1.3878e-12
-4.24093e-12
1.88812e-13
-2.45349e-11
-4.31329e-12
-3.50799e-11
-9.24082e-12
-3.20784e-11
-2.63092e-11
-4.00614e-12
1.53233e-16
1.11019e-14
2.03605e-16
3.94095e-14
2.64715e-16
2.82965e-14
4.07814e-17
3.6791e-16
2.62455e-16
1.84708e-15
8.47255e-16
1.93715e-14
5.06327e-15
4.80312e-14
3.41687e-14
0
9.19781e-14
0
2.88522e-15
0
9.00901e-16
0
3.03044e-15
0
1.23741e-14
1.95251e-15
2.5675e-15
3.63605e-16
9.3176e-17
7.07183e-17
8.73474e-17
3.92934e-18
1.4645e-16
-1.13665e-16
6.3374e-16
-6.069e-16
2.22994e-12
-6.6731e-13
-3.14948e-12
-1.90826e-11
-9.56785e-12
-2.85966e-11
-1.44774e-11
-2.7104e-11
-2.19256e-11
-1.87961e-11
-5.74497e-14
1.11414e-13
-7.52627e-14
5.23726e-13
-1.04771e-15
2.04154e-13
-7.97953e-16
1.68597e-16
-2.26514e-15
2.16408e-15
-6.37294e-15
5.21714e-15
-5.5063e-15
4.87397e-15
-3.91551e-15
0
-1.01801e-15
0
-5.03002e-17
3.35151e-16
-9.29355e-18
1.25314e-16
1.04172e-17
3.71361e-17
3.20729e-17
1.49961e-18
3.66878e-17
1.08456e-17
5.39349e-17
5.63068e-17
8.26154e-17
8.20158e-18
1.42746e-16
-5.17296e-17
6.07989e-15
-8.65152e-17
0
-1.56104e-14
-4.18828e-12
-2.91473e-12
-1.0808e-11
-1.76527e-11
-2.15582e-11
-1.6289e-11
-9.31553e-12
-1.65477e-11
-2.1561e-13
3.37131e-13
-2.3674e-13
8.1373e-13
-1.38748e-15
3.48417e-13
-1.365e-15
1.86354e-16
-2.66038e-15
1.8454e-15
-3.66344e-15
2.32285e-15
-3.70815e-15
1.88153e-15
-2.7359e-15
1.88802e-15
-8.45006e-16
8.84736e-16
-1.08416e-16
2.8033e-16
-2.23091e-17
5.4186e-17
-8.07736e-18
5.40886e-18
-6.37429e-18
1.34744e-18
-1.27019e-17
1.89209e-18
-2.10068e-17
8.09481e-18
-2.36345e-17
5.39969e-19
-2.80297e-17
-3.01194e-17
-3.1595e-17
-9.56667e-17
-1.53154e-14
-3.37418e-16
-5.70864e-13
-6.82732e-16
-4.39438e-12
-8.4904e-16
-2.40754e-12
-8.04247e-16
-1.30155e-15
-1.13439e-13
-3.13727e-13
6.05272e-13
-2.35358e-13
1.00507e-12
-1.22874e-15
5.18167e-13
-1.21463e-15
2.08662e-16
-1.61451e-15
8.3591e-16
-1.59182e-15
9.22884e-16
-1.04826e-15
5.09081e-16
-4.82842e-16
1.59503e-16
-1.32492e-16
4.34171e-17
-1.9859e-17
8.63407e-18
-1.04947e-18
1.04551e-17
-1.93862e-19
5.91497e-19
-1.74619e-19
1.60594e-19
-5.03091e-19
1.64472e-19
-4.73458e-18
7.54521e-19
-2.66929e-17
-5.10135e-20
-7.22115e-17
-9.13702e-18
-1.80004e-16
-7.31849e-17
-1.42928e-16
-1.68792e-16
-1.74141e-16
-3.25139e-16
-2.08543e-16
-4.87305e-16
-2.42155e-16
-4.41843e-16
-2.74526e-16
-9.46286e-16
-3.5125e-13
8.55862e-13
-3.48753e-13
1.27248e-12
-5.31448e-16
7.55214e-13
-5.21568e-16
2.34529e-16
-5.92524e-16
3.14183e-16
-4.31964e-16
3.00369e-16
-1.18222e-16
8.90888e-17
-2.51515e-17
7.03376e-18
-2.1786e-18
1.16005e-17
1.90031e-18
2.62596e-19
4.74705e-18
-1.30359e-18
4.73326e-18
-2.87405e-18
3.62267e-18
-2.35583e-18
1.66517e-18
-1.285e-18
-6.59439e-19
-2.86093e-19
-3.64274e-18
1.07014e-19
-5.1628e-17
-6.37654e-19
-1.89588e-16
-7.14603e-18
-3.10192e-16
-5.21014e-17
-3.46144e-16
-7.49828e-17
-3.78671e-16
-1.67291e-16
-3.31349e-16
-1.66041e-16
-1.07666e-16
-1.75091e-16
-3.88534e-13
7.83076e-13
-4.04974e-13
1.55883e-12
-3.3019e-16
7.47338e-13
-3.25637e-16
2.64136e-16
-2.23302e-16
2.46631e-16
-1.12395e-16
2.27564e-16
-7.37553e-18
2.95014e-17
3.57709e-19
3.61982e-19
5.27182e-18
-2.54616e-19
7.51576e-18
-3.35453e-18
8.47264e-18
-4.19224e-18
8.12251e-18
-3.9745e-18
6.89233e-18
-2.9608e-18
5.10341e-18
-1.65585e-18
2.82548e-18
-4.8814e-19
-5.78159e-20
2.84339e-19
-1.38987e-18
7.06027e-19
-2.71332e-17
5.9981e-19
-9.63732e-17
-8.83516e-19
-1.70622e-16
-4.16525e-18
-2.08338e-16
-1.25717e-17
-2.05034e-16
-2.01391e-17
-2.02121e-17
-1.02615e-16
-3.86304e-13
5.88649e-13
-3.79887e-13
1.82233e-12
-4.17754e-16
5.80425e-13
-4.13358e-16
2.95494e-16
-2.83347e-16
3.69274e-16
-5.5e-17
3.56801e-16
-3.52114e-18
2.5957e-17
3.23571e-18
2.54034e-19
6.45288e-18
-2.18799e-18
8.08755e-18
-3.76265e-18
8.66977e-18
-3.97569e-18
8.38612e-18
-3.42973e-18
7.48727e-18
-2.43973e-18
6.26137e-18
-1.31323e-18
4.91032e-18
-3.10318e-19
3.46103e-18
3.42396e-19
1.77952e-18
7.04225e-19
-4.93963e-20
8.38597e-19
-1.06899e-18
7.77194e-19
-7.94344e-18
5.55055e-19
-1.94068e-17
2.24619e-19
-2.50703e-17
-2.83383e-19
-3.75208e-19
-2.13359e-17
-2.92127e-13
1.99752e-13
-4.6129e-13
9.5715e-13
-9.93272e-16
4.14914e-14
-9.89138e-16
3.28316e-16
-7.22363e-16
1.48397e-15
-8.92891e-17
8.2049e-16
-7.27508e-18
5.58143e-17
1.12121e-18
4.54307e-18
3.80567e-18
-7.61063e-19
5.24717e-18
-2.15884e-18
6.01717e-18
-2.42286e-18
6.18344e-18
-2.14457e-18
5.84233e-18
-1.53102e-18
5.15751e-18
-7.81468e-19
4.30776e-18
-8.11381e-20
3.45223e-18
3.00984e-19
2.6605e-18
5.26829e-19
1.9327e-18
6.17132e-19
1.21643e-18
5.99995e-19
4.73174e-19
5.14304e-19
-5.45206e-21
3.9391e-19
-1.17933e-19
2.6411e-19
1.49386e-19
-4.23746e-19
-4.82373e-14
2.43008e-16
-1.01483e-14
4.89845e-16
-1.52118e-15
0
-1.40145e-15
2.24768e-15
-1.15366e-15
2.29109e-15
-1.37617e-16
1.0357e-15
-2.59529e-17
9.92639e-17
-1.04524e-17
2.33964e-17
-1.35175e-18
8.95126e-18
1.26007e-18
1.89989e-18
2.34205e-18
-5.78021e-19
3.09373e-18
-7.97222e-19
3.37713e-18
-6.89445e-19
3.24141e-18
-3.53448e-19
2.86035e-18
2.22837e-20
2.39108e-18
2.09001e-19
1.91953e-18
3.38349e-19
1.49674e-18
3.89892e-19
1.13658e-18
3.77563e-19
8.30617e-19
3.27255e-19
5.64063e-19
2.61208e-19
3.39581e-19
1.92752e-19
1.27885e-19
1.58539e-19
-1.98823e-16
7.92954e-16
-1.87759e-16
4.31231e-16
-1.0095e-15
8.22196e-16
-1.25925e-15
2.77529e-15
-7.16488e-16
2.4657e-15
-1.6957e-16
1.08024e-15
-6.43301e-17
1.53368e-16
-4.13459e-17
6.89844e-17
-2.20369e-17
3.88799e-17
-8.28289e-18
1.64665e-17
-1.32114e-18
4.69553e-18
7.29919e-19
7.88915e-19
1.29877e-18
-1.54769e-19
1.53997e-18
-1.07824e-19
1.51171e-18
2.52435e-20
1.3368e-18
1.15303e-19
1.10479e-18
1.87596e-19
8.74683e-19
2.17896e-19
6.74817e-19
2.10962e-19
5.10908e-19
1.81819e-19
3.76286e-19
1.44856e-19
2.59878e-19
1.09267e-19
7.7346e-20
1.56456e-19
-4.68369e-17
1.22705e-15
-1.12428e-16
4.93883e-16
-7.17841e-16
7.78382e-16
-9.086e-16
2.05476e-15
-6.07932e-16
1.83583e-15
-1.6377e-16
5.45338e-16
-1.01734e-16
1.95813e-16
-7.85822e-17
1.2419e-16
-5.52919e-17
7.87996e-17
-2.95287e-17
4.25686e-17
-1.0778e-17
1.63403e-17
-2.03548e-18
4.00837e-18
2.16725e-19
4.60302e-19
5.24017e-19
-1.43524e-20
6.28182e-19
1.00767e-20
6.10624e-19
5.08747e-20
5.26247e-19
9.08949e-20
4.22617e-19
1.09007e-19
3.25148e-19
1.06168e-19
2.44252e-19
9.08374e-20
1.81391e-19
7.13793e-20
1.30907e-19
5.32451e-20
3.84294e-20
8.46701e-20
-3.76012e-17
3.78889e-15
-6.6583e-17
5.20114e-16
-1.80131e-16
7.92602e-16
-3.30932e-16
9.36825e-16
-2.1421e-16
5.57298e-16
-1.29476e-16
2.96516e-16
-1.12897e-16
2.176e-16
-9.59595e-17
1.66559e-16
-7.59352e-17
1.10498e-16
-4.82852e-17
6.56528e-17
-2.21187e-17
2.90666e-17
-6.2795e-18
8.4519e-18
-7.86273e-19
1.23301e-18
1.10789e-19
3.36391e-20
2.0284e-19
1.00322e-21
2.29845e-19
1.84742e-20
2.09484e-19
3.99013e-20
1.70867e-19
4.99947e-20
1.30562e-19
4.8976e-20
9.60591e-20
4.1386e-20
6.95784e-20
3.1752e-20
5.01588e-20
2.29877e-20
1.63938e-20
3.39918e-20
-2.83381e-17
2.83767e-14
-4.91126e-17
5.37924e-16
-6.47969e-17
8.05527e-16
-7.75019e-17
9.46561e-16
-8.63647e-17
4.83458e-16
-9.18885e-17
2.72256e-16
-9.51413e-17
2.24949e-16
-8.95112e-17
1.90786e-16
-7.46229e-17
1.3291e-16
-5.25833e-17
8.13372e-17
-2.74169e-17
3.88729e-17
-8.73085e-18
1.20647e-17
-1.26965e-18
1.73065e-18
6.4736e-21
2.93441e-20
5.09033e-20
-1.1746e-21
7.25047e-20
6.50165e-21
7.01246e-20
1.66244e-20
5.78141e-20
2.14843e-20
4.35205e-20
2.10138e-20
3.09805e-20
1.74251e-20
2.14435e-20
1.29492e-20
1.4936e-20
8.95966e-21
6.0797e-21
1.03638e-20
0
5.80465e-14
-1.15196e-13
1.43184e-12
-4.23778e-14
7.0142e-12
-5.64564e-17
2.54189e-12
-5.76037e-17
4.82899e-16
-5.80478e-17
2.71055e-16
-6.5204e-17
2.26968e-16
-6.47749e-17
1.96655e-16
-5.62444e-17
1.46201e-16
-4.16373e-17
9.02521e-17
-2.27751e-17
4.35634e-17
-7.03766e-18
1.28932e-17
-8.38183e-19
1.73059e-18
-1.92707e-20
1.77964e-20
1.09975e-20
-8.55404e-22
1.89928e-20
2.58455e-21
1.91024e-20
6.68129e-21
1.57218e-20
8.69639e-21
1.1533e-20
8.42703e-21
7.84288e-21
6.82621e-21
5.07721e-21
4.89155e-21
3.26216e-21
3.2154e-21
2.0175e-21
2.25014e-21
0
6.00389e-14
-9.31351e-14
2.73144e-12
-2.89543e-13
7.30179e-12
-1.4753e-13
5.89727e-12
-2.36482e-17
7.31712e-13
-2.7727e-17
2.73487e-16
-2.85981e-17
2.26195e-16
-2.8425e-17
1.98839e-16
-2.69313e-17
1.49131e-16
-2.02072e-17
9.20967e-17
-1.06489e-17
4.40118e-17
-2.79751e-18
1.25759e-17
-2.29543e-19
1.21474e-18
-3.6654e-21
4.83488e-21
1.94144e-21
-1.52229e-22
3.42675e-21
1.13023e-21
3.46686e-21
2.64622e-21
2.79715e-21
3.34917e-21
1.96274e-21
3.16115e-21
1.24309e-21
2.48093e-21
7.24084e-22
1.70797e-21
3.95389e-22
1.06615e-21
6.19328e-22
2.43038e-22
1.72109e-14
4.28284e-14
4.67428e-14
2.20794e-12
1.53882e-13
7.28737e-12
1.39411e-13
6.00595e-12
0
1.46722e-12
9.75982e-18
5.93804e-16
7.2501e-18
2.2706e-16
6.97956e-18
1.9899e-16
5.54961e-18
1.46663e-16
3.60119e-18
8.96974e-17
1.70631e-18
3.94452e-17
3.93916e-19
8.91954e-18
2.55618e-20
5.69921e-19
2.51409e-22
1.23852e-21
1.66296e-23
-1.05088e-23
-1.14539e-22
4.70807e-22
-1.99328e-22
1.00654e-21
-2.23563e-22
1.21632e-21
-2.10985e-22
1.10695e-21
-1.81503e-22
8.38494e-22
-1.46761e-22
5.55741e-22
-1.12925e-22
3.32608e-22
1.84047e-22
-8.33308e-23
1.66999e-15
4.11568e-14
9.03615e-14
4.13347e-13
5.54444e-13
6.91684e-12
5.87381e-13
6.06779e-12
0
1.17351e-12
4.14785e-17
1.1539e-15
3.9395e-17
2.27531e-16
4.11173e-17
1.90728e-16
3.40968e-17
1.34305e-16
2.26662e-17
7.63281e-17
9.7292e-18
2.88516e-17
1.6459e-18
4.8143e-18
5.86163e-20
1.82347e-19
2.43324e-22
2.62218e-22
1.23546e-23
-4.28067e-24
-4.10651e-22
1.99454e-22
-6.08925e-22
3.70889e-22
-5.8602e-22
4.19613e-22
-4.61349e-22
3.64265e-22
-3.20937e-22
2.64045e-22
-2.05075e-22
1.67145e-22
-1.23395e-22
9.50863e-23
4.96476e-23
-7.11993e-23
2.2261e-15
3.8929e-14
1.93379e-13
3.08821e-14
5.94132e-13
8.95997e-13
2.29402e-13
2.34268e-13
0
2.28144e-14
0
1.09694e-15
6.86491e-17
2.34049e-16
6.71046e-17
1.76067e-16
5.10162e-17
1.1373e-16
3.01986e-17
5.73848e-17
9.71435e-18
1.68937e-17
9.35868e-19
1.73512e-18
1.43834e-20
3.10954e-20
2.44596e-23
2.26603e-23
1.88506e-24
1.82939e-23
-3.21572e-22
8.22223e-23
-4.08082e-22
1.30267e-22
-3.62213e-22
1.36467e-22
-2.67183e-22
1.11434e-22
-1.73855e-22
7.62825e-23
-1.03071e-22
4.55963e-23
-5.68851e-23
2.44367e-23
1.19718e-23
-2.97016e-23
3.3817e-15
3.56725e-14
4.32179e-15
3.02329e-14
2.01954e-14
0
1.40381e-15
0
2.43558e-16
0
1.31132e-16
4.16872e-16
8.88687e-17
2.50526e-16
7.48009e-17
1.51036e-16
5.37074e-17
8.76323e-17
2.53588e-17
3.59713e-17
4.91814e-18
6.80396e-18
2.02631e-19
3.2282e-19
1.03719e-21
2.01048e-21
1.43589e-22
6.9885e-25
-9.52531e-23
8.55991e-24
-1.93272e-22
3.00211e-23
-2.04342e-22
4.2517e-23
-1.65502e-22
4.10383e-23
-1.13325e-22
3.11905e-23
-6.86521e-23
1.99306e-23
-3.77991e-23
1.11199e-23
-1.9271e-23
5.55445e-24
2.52996e-24
-9.22769e-24
3.01813e-15
3.27677e-14
4.45729e-15
2.91316e-14
6.84922e-16
5.7503e-15
1.99311e-16
1.51795e-15
1.27465e-16
4.26989e-16
1.16479e-16
2.5095e-16
9.6806e-17
1.77181e-16
7.22062e-17
1.12382e-16
4.23072e-17
5.58274e-17
1.28865e-17
1.55425e-17
1.10359e-18
1.40128e-18
1.43411e-20
2.21256e-20
2.14168e-23
4.01859e-23
4.92952e-24
5.34741e-25
-6.62034e-23
3.03069e-24
-9.3758e-23
9.73452e-24
-8.57949e-23
1.25659e-23
-6.28875e-23
1.11683e-23
-3.9537e-23
7.83925e-24
-2.20738e-23
4.62696e-24
-1.11922e-23
2.38175e-24
-5.23877e-24
1.09555e-24
4.58428e-25
-2.29312e-24
2.42904e-15
1.61134e-14
4.60239e-15
2.14268e-14
1.43277e-15
1.01301e-14
4.34756e-16
2.88539e-15
1.47042e-16
6.65783e-16
9.7562e-17
2.18524e-16
7.76916e-17
1.21117e-16
5.18291e-17
6.58555e-17
2.09839e-17
2.33404e-17
3.01905e-18
3.26952e-18
8.09357e-20
9.8654e-20
2.74235e-22
4.22104e-22
5.23539e-23
3.1291e-25
-1.51247e-23
-1.96907e-24
-3.64424e-23
6.71888e-25
-3.87645e-23
2.71418e-24
-3.08735e-23
3.2914e-24
-2.03685e-23
2.69585e-24
-1.16451e-23
1.73504e-24
-5.9276e-24
9.36112e-25
-2.73776e-24
4.39225e-25
-1.16425e-24
1.83604e-25
6.9601e-26
-4.61392e-25
9.50445e-16
2.54708e-15
2.77333e-15
6.40197e-15
1.71973e-15
5.90316e-15
5.45841e-16
2.65337e-15
1.50845e-16
6.39986e-16
7.51212e-17
1.67279e-16
4.7249e-17
6.74585e-17
2.25242e-17
2.45765e-17
4.67872e-18
4.46801e-18
2.21138e-19
2.16049e-19
1.48195e-21
1.71909e-21
1.71983e-24
2.46734e-24
7.13148e-25
2.30466e-25
-1.13668e-23
-1.78979e-24
-1.54275e-23
2.81317e-26
-1.36252e-23
6.37483e-25
-9.53524e-24
7.50322e-25
-5.6292e-24
5.66668e-25
-2.89784e-24
3.31786e-25
-1.32948e-24
1.61787e-25
-5.52446e-25
6.82758e-26
-2.10689e-25
2.55544e-26
8.63541e-27
-7.45984e-26
1.01574e-16
7.06729e-17
6.14558e-16
3.64451e-16
8.15382e-16
7.07044e-16
3.64846e-16
5.70447e-16
1.02297e-16
2.2345e-16
3.89386e-17
6.49431e-17
1.70451e-17
1.96426e-17
4.38331e-18
3.90412e-18
3.20592e-19
2.60943e-19
3.83286e-21
3.40763e-21
7.71154e-24
8.54651e-24
2.60501e-24
1.30372e-24
-2.75757e-24
-9.56581e-25
-5.50412e-24
-1.05468e-24
-5.45776e-24
-1.98794e-25
-4.09969e-24
1.2114e-25
-2.51732e-24
1.46307e-25
-1.31822e-24
1.02043e-25
-6.04049e-25
5.38578e-26
-2.46534e-25
2.34222e-26
-9.08533e-26
8.75236e-27
-3.05943e-26
2.8821e-27
8.516e-28
-9.51982e-27
2.66919e-18
6.41274e-19
3.27233e-17
3.56767e-18
6.20434e-17
1.15145e-17
6.1716e-17
1.58282e-17
2.65056e-17
1.34326e-17
9.70338e-18
6.58181e-18
2.72666e-18
1.77163e-18
2.83857e-19
1.77279e-19
5.63402e-21
3.9069e-21
1.91084e-23
1.72523e-23
5.94163e-24
2.96708e-26
-7.10005e-26
-3.75723e-26
-1.77577e-24
-6.82645e-25
-2.12234e-24
-4.98477e-25
-1.65835e-24
-1.36421e-25
-1.0579e-24
1.68591e-26
-5.64763e-25
2.39747e-26
-2.59099e-25
1.55286e-26
-1.04202e-25
7.30671e-27
-3.72443e-26
2.78718e-27
-1.19617e-26
9.04432e-28
-3.48905e-27
2.56341e-28
6.46411e-29
-9.34628e-28
6.24786e-20
1.15397e-20
5.81697e-19
4.8092e-20
1.28992e-18
7.00401e-20
1.61432e-18
9.4025e-20
1.59851e-18
1.25152e-19
7.73525e-19
1.08796e-19
1.41238e-19
3.07465e-20
5.41828e-21
1.84257e-21
3.43882e-23
2.00227e-23
7.07852e-26
6.49161e-26
3.70307e-26
2.61585e-26
-4.53718e-25
-2.61197e-25
-7.90124e-25
-3.45409e-25
-7.06805e-25
-2.05287e-25
-4.45569e-25
-6.09461e-26
-2.3528e-25
9.85549e-28
-1.0723e-25
3.23108e-27
-4.2362e-26
1.97678e-27
-1.46835e-26
8.17528e-28
-4.50491e-27
2.67419e-28
-1.23283e-27
7.34044e-29
-3.03813e-28
1.73848e-29
3.62073e-30
-6.82089e-29
1.54184e-21
1.37298e-22
1.40136e-20
1.13604e-21
1.86101e-20
9.22768e-22
1.95501e-20
7.03354e-22
1.83625e-20
5.17402e-22
1.1643e-20
3.61058e-22
1.66227e-21
9.67993e-23
3.5619e-23
5.54409e-24
1.48448e-25
6.65932e-26
5.14779e-26
4.51569e-26
-7.97415e-26
-6.08515e-26
-2.45173e-25
-1.5704e-25
-2.90956e-25
-1.47667e-25
-2.09938e-25
-7.61519e-26
-1.08103e-25
-2.228e-26
-4.56225e-26
-1.82272e-27
-1.72618e-26
3.44661e-28
-5.72557e-27
2.10063e-28
-1.66793e-27
7.47051e-29
-4.27214e-28
2.02157e-29
-9.65364e-29
4.50917e-30
-1.94136e-29
8.53335e-31
1.39779e-31
-3.52064e-30
1.19e-23
1.70529e-25
2.06062e-22
5.5377e-24
2.55506e-22
6.8295e-24
1.85475e-22
5.21585e-24
9.97481e-23
2.37363e-24
4.47174e-23
9.41032e-25
6.45517e-24
2.17219e-25
1.51508e-25
1.48863e-26
3.91155e-26
1.90805e-28
-6.80817e-27
-6.41516e-27
-5.82798e-26
-4.88389e-26
-1.00604e-25
-7.28463e-26