/*--------------------------------*- C++ -*----------------------------------*\
  =========                 |
  \\      /  F ield         | OpenFOAM: The Open Source CFD Toolbox
   \\    /   O peration     | Website:  https://openfoam.org
    \\  /    A nd           | Version:  9
     \\/     M anipulation  |
\*---------------------------------------------------------------------------*/
FoamFile
{
    format      ascii;
    class       volScalarField;
    location    "3.87";
    object      alpha.water;
}
// * * * * * * * * * * * * * * * * * * * * * * * * * * * * * * * * * * * * * //

dimensions      [0 0 0 0 0 0 0];

internalField   nonuniform List<scalar> 
2268
(
1
1
0.999999
0.999999
0.999999
1
1
1
0.999999
0.999999
1
1
1
1
1
1
1
0.99941
0.994397
0.997134
0.996553
0.994681
0.994681
0.999999
0.999999
0.999998
0.999999
1
0.999999
0.999999
0.999999
0.999999
1
1
1
1
1
1
1
0.999983
0.996836
0.980334
0.991648
0.999696
0.999698
0.998144
0.999999
0.999998
0.999998
0.999999
1
1
1
1
1
1
1
1
1
1
1
1
0.999191
0.983216
0.979731
0.979733
0.992905
0.999995
0.999995
0.999999
0.999998
0.999999
1
1
1
1
1
1
1
1
1
1
1
1
1
0.999774
0.988957
0.979731
0.979731
0.987525
0.999995
0.999971
0.999999
0.999999
0.999999
1
1
1
1
1
1
1
1
1
1
1
1
0.999998
1
0.998204
0.982503
0.980032
0.995999
0.999995
0.999949
1
1
0.999999
1
1
1
1
1
1
1
1
1
1
1
1
1
1
0.999953
0.99862
0.996766
1
0.999995
0.999949
1
1
1
0.999999
1
1
1
1
1
1
1
1
1
1
1
1
1
1
1
1
1
0.999999
0.999961
1
1
1
1
1
1
1
1
1
1
1
1
1
1
1
1
1
1
1
1
1
1
1
0.989723
0.989728
0.989841
0.989874
0.990719
0.990719
0.99072
0.994251
0.999023
0.996194
0.995348
0.98763
0.96055
0.960543
0.978882
0.985032
0.968181
0.960178
0.960178
0.989723
0.997833
0.998924
0.999042
0.999756
0.999433
0.998612
0.999029
0.999029
0.996625
0.991756
0.966167
0.960528
0.961531
0.997975
0.998373
0.998372
0.961371
0.960178
0.997377
0.999946
0.999954
0.999954
0.99983
0.999896
0.999896
0.99879
0.996577
0.996754
0.977815
0.960528
0.960528
0.986774
0.998373
0.998374
0.983827
0.981301
0.96285
0.99977
0.999841
0.999953
0.999953
0.999879
0.999953
0.99971
0.995796
0.995672
0.996766
0.974855
0.960528
0.960528
0.996515
0.998374
0.998374
0.983128
0.982892
0.981346
0.999661
0.999689
0.999944
0.999953
0.999953
0.999953
0.999771
0.996369
0.99567
0.9988
0.990573
0.966772
0.972813
0.997265
0.998374
0.998374
0.998374
0.959234
0.981276
0.999661
0.999951
0.999957
0.999952
0.999909
0.999872
0.999901
0.999523
0.999257
0.999782
0.999534
0.996936
0.998157
0.998374
0.998375
0.998374
0.998374
0.944434
0.973655
0.999968
0.999953
0.999973
0.999973
0.999682
0.999588
0.999913
0.999943
0.999943
0.99955
0.997535
0.997863
0.998374
0.998375
0.998375
0.998375
0.996006
0.944423
0.963741
0.999979
0.999979
0.999975
0.999972
0.999962
0.999959
0.999968
0.999968
0.999389
0.991407
0.990841
0.996353
0.998374
0.998374
0.998375
0.998374
0.996017
0.944429
0.969468
1
1
1
1
1
1
1
1
1
1
1
1
1
1
1
1
1
1
1
1
1
0.999999
0.999994
0.931706
0.932029
0.931051
0.931272
0.935344
0.94083
0.946414
0.953183
0.960633
0.966936
0.971779
0.976368
0.981589
0.987832
0.992378
0.993092
0.992401
0.992504
0.992704
0.992428
0.99169
0.991067
0.99159
0.23308
0.227987
0.228933
0.233426
0.237162
0.243679
0.253463
0.264331
0.274775
0.289867
0.306857
0.324253
0.34121
0.358233
0.37479
0.394007
0.41238
0.428514
0.440166
0.445496
0.446193
0.446573
0.450424
0.00182419
0.00217169
0.00174113
0.00159705
0.00266706
0.0032262
0.00285608
0.00286057
0.00344635
0.00293886
0.00258467
0.00238661
0.00218542
0.000747903
0.000357484
0.000354118
0.000349201
0.000343676
0.000333974
0.000316171
0.000301367
0.000297305
0.000297186
0.00182924
0.00217333
0.00155234
0.00154072
0.00294897
0.00323604
0.00285909
0.00285371
0.00662941
0.00710577
0.00710751
0.00710785
0.00716656
0.00716742
0.00716656
0.00306964
0.00280112
0.00259278
0.00315127
0.00558397
0.00558029
0.00268429
0.000296073
0.00240925
0.00242034
0.002422
0.00154044
0.0018234
0.00295414
0.0036554
0.00379474
0.00394837
0.00412545
0.00444798
0.00470786
0.00471561
0.00465949
0.00447928
0.00521991
0.00521992
0.00521047
0.00464937
0.0016506
0.00122895
0.000668369
0.000295704
0.00162986
0.00167969
0.00180637
0.0014997
0.00153624
0.00118797
0.000780209
0.000999755
0.000648982
0.000129168
3.59466e-05
3.92704e-06
1.24096e-07
1.24782e-07
1.24782e-07
0.000324762
0.000271943
0.000165971
0.000166801
0.000380488
0.000296042
0.000295572
0.000295779
4.90066e-05
3.72816e-05
5.55472e-05
0.00036577
0.000345666
0.000402908
0.000300159
6.05414e-05
7.97157e-07
1.84241e-08
1.23547e-08
1.06444e-08
1.23396e-07
2.47765e-06
1.09668e-06
4.22379e-07
2.10174e-05
0.000165149
0.000518148
0.000518301
0.000304769
0.000295616
0.000628087
1.25592e-08
2.46639e-07
2.22962e-07
3.03972e-08
3.43502e-08
5.83296e-09
3.03244e-09
7.69066e-08
1.57274e-08
1.07822e-08
1.06429e-08
1.06444e-08
5.63069e-06
7.21776e-06
2.39453e-06
4.17838e-07
6.67908e-06
3.94354e-05
0.000221589
0.000518559
0.000518521
0.000296325
0.000591332
1.10326e-08
2.46199e-07
2.21409e-07
2.50508e-08
1.78572e-09
5.02414e-10
4.96325e-10
2.77831e-09
2.91939e-09
3.6104e-07
2.38637e-06
2.2811e-06
9.11502e-07
1.2379e-06
3.82249e-07
1.94885e-10
5.00075e-11
5.18101e-11
5.3853e-11
5.34825e-05
0.000174682
0.00013359
3.78374e-08
4.77202e-09
2.48076e-07
2.19602e-07
1.61829e-08
1.71376e-09
4.97734e-10
4.92778e-10
4.96325e-10
1.61575e-06
2.78838e-06
2.78698e-06
1.18821e-06
1.35093e-08
1.14898e-08
8.15014e-09
6.32235e-10
4.92227e-11
1.14278e-09
1.13248e-09
1.46144e-09
7.9847e-09
2.31463e-08
3.85135e-08
3.28849e-09
9.69257e-09
6.182e-09
6.46958e-09
2.20137e-09
6.71743e-10
4.93045e-10
3.2333e-07
1.70092e-06
1.69968e-06
7.4991e-07
1.71606e-08
2.31119e-08
1.67149e-08
5.87937e-10
4.92227e-11
4.92219e-11
4.92227e-11
1.64776e-07
2.5332e-06
4.64547e-06
4.69333e-06
3.20957e-06
2.79097e-09
1.11376e-09
1.09684e-09
1.44009e-10
6.94643e-10
6.59856e-09
1.52176e-08
6.37479e-08
1.42255e-07
1.60809e-08
1.79395e-10
1.05468e-09
7.55671e-09
3.6356e-09
8.5946e-11
4.92691e-11
4.92227e-11
4.92227e-11
1.20803e-06
6.78468e-06
6.78476e-06
6.78476e-06
6.78476e-06
4.175e-08
1.53283e-07
4.40101e-08
6.22748e-11
7.52926e-10
3.25243e-09
5.24114e-09
3.74047e-09
2.80872e-09
7.05084e-10
7.43248e-11
6.82388e-11
7.90839e-11
6.55185e-11
7.67773e-11
1.19642e-10
1.27447e-10
3.03222e-10
6.59006e-08
2.31552e-06
6.73952e-06
6.78476e-06
6.13709e-06
1.0547e-07
3.15561e-07
8.90664e-08
6.15621e-11
6.69884e-10
1.38898e-09
1.58419e-09
1.47541e-09
8.88398e-10
2.45923e-10
3.80163e-11
1.21005e-11
7.37626e-12
9.50365e-12
2.92113e-11
4.63091e-11
5.19699e-11
5.21395e-11
5.21506e-11
1.74397e-08
9.2539e-07
1.91319e-06
2.71324e-07
1.48575e-07
3.1561e-07
1.15653e-07
6.11234e-11
3.89942e-10
5.50191e-10
4.37631e-10
2.47608e-10
1.05477e-10
2.76008e-11
4.16735e-12
2.63477e-13
8.78557e-14
1.37367e-13
1.3451e-12
8.96732e-12
3.29984e-11
6.80011e-11
1.0871e-10
7.20064e-11
7.18217e-11
7.14749e-11
7.10247e-11
1.68512e-07
3.15638e-07
1.49108e-07
6.10263e-11
1.22491e-10
1.73321e-10
8.18112e-11
1.9241e-11
3.75375e-12
4.04783e-14
-5.78771e-13
-1.55308e-12
-1.6779e-12
-1.39444e-12
-6.91889e-13
2.78902e-13
8.132e-12
4.50857e-11
9.76191e-11
1.20925e-10
1.20273e-10
1.07725e-10
7.09693e-11
1.92039e-07
3.15638e-07
1.89712e-07
6.09967e-11
6.08459e-11
6.06993e-11
1.70505e-11
8.8287e-13
-9.06534e-14
-1.36799e-12
-2.02983e-12
-2.41003e-12
-2.45088e-12
-2.21042e-12
-1.73251e-12
-1.00411e-12
1.46202e-14
3.06668e-12
1.9049e-11
4.17841e-11
5.70751e-11
6.11194e-11
4.57939e-11
1.78464e-07
3.15638e-07
1.71879e-07
6.10263e-11
7.18577e-11
7.62389e-11
7.26928e-12
7.80359e-14
-7.95518e-13
-1.6096e-12
-2.07675e-12
-2.3161e-12
-2.34588e-12
-2.1978e-12
-1.92359e-12
-1.56652e-12
-1.13178e-12
-5.86282e-13
1.3303e-14
1.10368e-12
3.68971e-12
6.21698e-12
6.97831e-12
1.06817e-07
3.12455e-07
6.13829e-08
6.10568e-11
2.17591e-10
1.56184e-10
1.20252e-11
8.09089e-13
-2.8004e-13
-9.5837e-13
-1.35031e-12
-1.59785e-12
-1.70478e-12
-1.67633e-12
-1.53779e-12
-1.32739e-12
-1.0892e-12
-8.49086e-13
-6.15663e-13
-3.82099e-13
-1.45312e-13
1.27384e-15
7.58067e-14
1.138e-08
4.45309e-08
1.08942e-09
2.88829e-10
4.51839e-10
2.28892e-10
2.08662e-11
4.49096e-12
1.71478e-12
4.41463e-14
-3.40031e-13
-6.48518e-13
-8.84278e-13
-9.99072e-13
-9.91883e-13
-9.01911e-13
-7.71706e-13
-6.28581e-13
-4.92587e-13
-3.72706e-13
-2.69763e-13
-1.81027e-13
-1.0789e-13
1.10215e-10
5.4689e-11
1.35511e-10
4.48289e-10
4.58166e-10
2.34847e-10
3.30928e-11
1.47851e-11
9.48502e-12
4.54087e-12
1.49753e-12
1.20607e-13
-2.26805e-13
-4.1614e-13
-5.08853e-13
-5.13826e-13
-4.65155e-13
-3.91052e-13
-3.12795e-13
-2.42339e-13
-1.83513e-13
-1.35039e-13
-9.33853e-14
1.09569e-10
5.29208e-11
1.17664e-10
3.73026e-10
3.84538e-10
1.53384e-10
4.43773e-11
2.99077e-11
2.26579e-11
1.46958e-11
7.09772e-12
2.33437e-12
3.61535e-13
-7.91808e-14
-1.9706e-13
-2.4278e-13
-2.4172e-13
-2.12406e-13
-1.73091e-13
-1.34588e-13
-1.01946e-13
-7.63574e-14
-5.57492e-14
1.7922e-10
5.29135e-11
5.34442e-11
1.36036e-10
1.72441e-10
7.82801e-11
5.07283e-11
4.35783e-11
3.52292e-11
2.62079e-11
1.5074e-11
6.26499e-12
1.60412e-12
1.62328e-13
-5.04478e-14
-9.48913e-14
-1.10225e-13
-1.02667e-13
-8.53138e-14
-6.62622e-14
-4.95258e-14
-3.65092e-14
-2.69097e-14
1.31322e-09
5.29159e-11
5.29135e-11
5.29159e-11
5.37075e-11
5.42357e-11
5.34869e-11
5.28101e-11
4.48285e-11
3.53072e-11
2.26965e-11
1.0612e-11
3.01853e-12
3.94804e-13
-3.88622e-15
-3.13967e-14
-4.5896e-14
-4.54787e-14
-3.83574e-14
-2.95261e-14
-2.15257e-14
-1.53225e-14
-1.10567e-14
4.07534e-09
4.55799e-08
2.14057e-07
1.87943e-08
5.2663e-11
5.26599e-11
5.33086e-11
5.6837e-11
5.14312e-11
4.14686e-11
2.80319e-11
1.35095e-11
3.65416e-12
3.95056e-13
3.86939e-15
-1.03216e-14
-1.83248e-14
-1.89461e-14
-1.60395e-14
-1.21308e-14
-8.54804e-15
-5.78444e-15
-3.93791e-15
4.83495e-09
2.51533e-07
8.47932e-07
7.4181e-07
4.64709e-08
5.26612e-11
5.26599e-11
5.70752e-11
5.42315e-11
4.41396e-11
2.95972e-11
1.33915e-11
3.03703e-12
2.289e-13
1.70032e-15
-3.9221e-15
-7.14243e-15
-7.48359e-15
-6.29052e-15
-4.64469e-15
-3.14637e-15
-2.0118e-15
-1.25651e-15
3.48653e-09
2.55004e-07
8.47976e-07
8.4802e-07
2.31254e-07
7.06616e-11
5.26613e-11
5.6974e-11
5.3603e-11
4.33965e-11
2.77473e-11
1.0887e-11
1.78781e-12
7.78375e-14
2.40857e-16
-1.67634e-15
-2.77971e-15
-2.83663e-15
-2.3214e-15
-1.65707e-15
-1.07432e-15
-6.48713e-16
-3.72381e-16
3.48645e-09
1.17234e-07
8.48006e-07
8.47943e-07
2.33246e-07
1.3649e-10
5.26646e-11
5.54373e-11
5.0447e-11
3.89146e-11
2.22088e-11
6.86567e-12
7.31674e-13
1.64402e-14
1.18802e-17
-6.97745e-16
-1.05358e-15
-1.02403e-15
-8.05762e-16
-5.53177e-16
-3.43722e-16
-1.97878e-16
-1.07456e-16
3.48645e-09
5.85522e-09
5.63904e-07
4.48615e-07
7.25219e-08
1.83427e-10
5.35616e-11
5.22308e-11
4.42705e-11
3.10925e-11
1.46272e-11
3.11492e-12
1.82519e-13
1.65734e-15
9.86054e-35
-3.02149e-16
-3.9259e-16
-3.54991e-16
-2.65106e-16
-1.73334e-16
-1.0234e-16
-5.56785e-17
-2.83422e-17
3.50847e-09
3.44696e-09
1.24186e-08
1.68828e-09
2.20281e-10
1.19082e-10
5.8773e-11
4.65733e-11
3.5828e-11
2.14387e-11
7.24274e-12
8.62952e-13
2.15861e-14
6.0749e-17
-6.24142e-17
-1.30434e-16
-1.41619e-16
-1.17353e-16
-8.18477e-17
-5.02364e-17
-2.78475e-17
-1.41884e-17
-6.73318e-18
3.50842e-09
3.44664e-09
9.75591e-10
2.30877e-10
7.21928e-11
5.83223e-11
4.78476e-11
3.73469e-11
2.52653e-11
1.13473e-11
2.2254e-12
1.13605e-13
9.17729e-16
6.23283e-19
-3.50582e-17
-5.12341e-17
-4.82615e-17
-3.63088e-17
-2.33501e-17
-1.32828e-17
-6.82968e-18
-3.22331e-18
-1.4131e-18
2.65751e-09
3.11752e-09
1.41163e-09
4.47002e-10
1.14909e-10
4.90549e-11
3.52944e-11
2.50751e-11
1.33318e-11
3.65992e-12
3.16227e-13
5.2424e-15
1.00284e-17
-6.72258e-18
-1.67745e-17
-1.84511e-17
-1.51632e-17
-1.02972e-17
-6.044e-18
-3.14943e-18
-1.4838e-18
-6.40741e-19
-2.56398e-19
9.43431e-10
1.65517e-09
1.11798e-09
4.43037e-10
1.17886e-10
4.07372e-11
2.27524e-11
1.22744e-11
4.10454e-12
5.17952e-13
1.47609e-14
6.50643e-17
2.69516e-20
-4.61313e-18
-6.50011e-18
-5.95114e-18
-4.30857e-18
-2.62585e-18
-1.39278e-18
-6.57093e-19
-2.80076e-19
-1.09167e-19
-3.93107e-20
9.54841e-11
2.95686e-10
3.46173e-10
2.04248e-10
6.92699e-11
2.28317e-11
9.70502e-12
3.33823e-12
5.34118e-13
2.30305e-14
1.80887e-16
1.67571e-19
-1.02056e-18
-2.12261e-18
-2.19228e-18
-1.71261e-18
-1.09131e-18
-5.91885e-19
-2.80541e-19
-1.18323e-19
-4.49918e-20
-1.55875e-20
-4.96777e-21
2.27e-12
1.10538e-11
2.42861e-11
2.27766e-11
1.27732e-11
5.35255e-12
1.88089e-12
3.64033e-13
2.22869e-14
2.80913e-16
5.56061e-19
-2.45892e-20
-6.42763e-19
-8.04034e-19
-6.57353e-19
-4.3802e-19
-2.43661e-19
-1.16238e-19
-4.85775e-20
-1.80481e-20
-6.0224e-21
-1.82083e-21
-5.0335e-22
5.12231e-14
1.77009e-13
3.66216e-13
4.95455e-13
4.96323e-13
3.26511e-13
1.07799e-13
1.17634e-14
2.78063e-16
1.30699e-18
7.91643e-22
-1.57093e-19
-2.87456e-19
-2.70756e-19
-1.79739e-19
-9.97695e-20
-4.76557e-20
-1.96793e-20
-7.13052e-21
-2.29154e-21
-6.57361e-22
-1.69449e-22
-3.95978e-23
1.25348e-15
5.77482e-15
6.00408e-15
5.42545e-15
5.03499e-15
3.9249e-15
1.23279e-15
9.29422e-17
1.37749e-18
2.72899e-21
-2.6803e-20
-8.67244e-20
-1.08875e-19
-8.33923e-20
-4.56424e-20
-2.04474e-20
-8.1819e-21
-2.8585e-21
-8.77857e-22
-2.38157e-22
-5.71101e-23
-1.21553e-23
-2.31808e-24
7.59414e-18
8.35878e-17
8.1008e-17
5.87856e-17
2.97394e-17
1.34207e-17
3.51808e-18
2.8734e-19
3.62492e-21
-2.25037e-21
-2.02274e-20
-3.69666e-20
-3.70957e-20
-2.4023e-20
-1.10414e-20
-3.9222e-21
-1.26077e-21
-3.59263e-22
-9.02025e-23
-1.98856e-23
-3.81571e-24
-6.38293e-25
-9.42235e-26
5.03845e-21
1.76054e-19
3.02102e-19
2.63266e-19
1.33187e-19
4.44916e-20
1.0175e-20
6.48934e-22
3.50252e-24
-3.55672e-21
-9.9292e-21
-1.37756e-20
-1.17023e-20
-6.58578e-21
-2.59871e-21
-7.55561e-22
-1.83217e-22
-3.98607e-23
-7.67378e-24
-1.28556e-24
-1.82618e-25
-2.20276e-26
-2.30239e-27
2.85614e-25
4.70758e-23
3.19135e-22
5.05908e-22
4.03284e-22
1.3251e-22
1.24485e-23
4.33682e-25
-5.36969e-22
-2.09528e-21
-4.06262e-21
-4.68594e-21
-3.48604e-21
-1.74652e-21
-6.06709e-22
-1.49166e-22
-2.6541e-23
-4.06032e-24
-5.31513e-25
-5.85474e-26
-5.16188e-27
-3.72062e-28
-2.28823e-29
-3.3853e-25
1.48097e-43
1.39866e-24
6.74458e-24
2.45963e-24
1.26458e-25
-4.19643e-23
-1.36324e-22
-4.05118e-22
-9.54402e-22
-1.48026e-21
-1.48711e-21
-9.97158e-22
-4.57161e-22
-1.45126e-22
-3.18605e-23
-4.71715e-24
-4.64193e-25
-3.03836e-26
-1.22401e-27
-3.4039e-29
-7.53652e-31
-1.47551e-32
0.999952
0.999934
0.999927
0.999944
0.9938
0.994351
0.99443
0.994022
0.462209
0.466626
0.467571
0.465406
0.00029735
0.000304911
0.000322696
0.000338144
0.00300744
0.00439479
0.00357892
0.00157376
0.00122314
0.00382004
0.00136338
0.00157436
0.000802116
0.00136398
0.000385324
0.000409408
0.000950291
0.000910801
0.000343306
3.26593e-06
0.000455607
8.25209e-05
1.2379e-05
3.23914e-06
3.76529e-08
3.76534e-08
1.86428e-06
3.45077e-06
3.76549e-08
3.75682e-08
3.74838e-08
7.50137e-07
6.52871e-07
6.63118e-08
3.74838e-08
3.74871e-08
6.61314e-06
6.6662e-07
3.74838e-08
3.74843e-08
1.9626e-06
9.12628e-07
3.74846e-08
3.76084e-08
1.29517e-08
1.90163e-07
1.90598e-07
6.67929e-08
2.01623e-10
7.07234e-09
2.09387e-08
1.99605e-08
3.25103e-11
6.45572e-12
6.35145e-12
6.23649e-12
2.17708e-11
1.45796e-11
9.7064e-12
6.22982e-12
5.36308e-12
4.75549e-12
3.90924e-12
3.02721e-12
1.44597e-13
1.92735e-13
2.30966e-13
2.70358e-13
-5.01288e-14
-3.05738e-14
-1.46648e-14
-3.09554e-15
-5.65866e-14
-4.39215e-14
-3.41984e-14
-2.69823e-14
-3.66936e-14
-2.89282e-14
-2.27057e-14
-1.82173e-14
-1.8786e-14
-1.49431e-14
-1.16158e-14
-9.00823e-15
-8.03569e-15
-6.40551e-15
-4.96346e-15
-3.69419e-15
-2.93503e-15
-2.30886e-15
-1.78968e-15
-1.32077e-15
-9.45376e-16
-7.17387e-16
-5.4139e-16
-4.05591e-16
-2.76776e-16
-2.00974e-16
-1.44487e-16
-1.03361e-16
-7.60432e-17
-5.25524e-17
-3.5714e-17
-2.39827e-17
-1.91029e-17
-1.25431e-17
-8.0523e-18
-5.07212e-18
-4.31239e-18
-2.68497e-18
-1.62807e-18
-9.63754e-19
-8.54832e-19
-5.01903e-19
-2.86301e-19
-1.58956e-19
-1.45116e-19
-7.95887e-20
-4.2328e-20
-2.18649e-20
-2.05608e-20
-1.03998e-20
-5.0906e-21
-2.41536e-21
-2.36427e-21
-1.08526e-21
-4.80907e-22
-2.06086e-22
-2.13731e-22
-8.72308e-23
-3.42622e-23
-1.2978e-23
-1.46171e-23
-5.16384e-24
-1.74892e-24
-5.69309e-25
-7.17633e-25
-2.1153e-25
-5.95095e-26
-1.60272e-26
-2.31908e-26
-5.40658e-27
-1.19755e-27
-2.52857e-28
-4.12579e-28
-6.98105e-29
-1.11861e-29
-1.70174e-30
-2.5017e-30
-2.59309e-31
-2.54728e-32
-2.37006e-33
-5.60223e-34
-2.09011e-35
-7.46765e-37
-2.51501e-38
0.999979
0.999977
0.999974
0.99725
0.983324
0.974952
0.964913
0.964396
0.974401
0.986145
0.997147
0.998372
0.998373
0.998373
0.998363
0.99837
0.996688
0.980506
0.977316
0.991462
0.972135
0.956118
0.948184
0.946257
0.944166
0.931495
0.917193
0.912073
0.920954
0.928921
0.934523
0.932664
0.920488
0.90907
0.915701
0.938866
0.970262
0.977117
0.462563
0.478922
0.49275
0.501052
0.505975
0.506868
0.510189
0.506364
0.487789
0.456123
0.424441
0.399241
0.379508
0.365516
0.357323
0.350306
0.349091
0.353322
0.352195
0.000343824
0.000345646
0.000347202
0.000348184
0.000349599
0.000414553
0.000570412
0.000716217
0.000799362
0.000828362
0.001168
0.00119287
0.00086011
0.00085804
0.000870126
0.000909903
0.000884579
0.00081693
0.000815948
0.00119043
0.000787563
0.000788829
0.000792965
0.000806128
0.00175286
0.00158133
0.00146914
0.00124779
0.00120241
0.00117311
0.000943784
0.000858394
0.000855568
0.000850312
0.000843228
0.000839132
0.000815949
0.000815949
0.00101905
0.000861114
0.000857253
0.00083564
0.00108289
0.00202464
0.00206737
0.00206977
0.00207146
0.00207214
0.00207214
0.00207214
0.00207171
0.00207047
0.0013514
0.00102267
0.00139272
0.00139238
0.00130082
0.00135217
0.00143691
0.00143691
0.00143646
0.00143578
0.000819258
0.000826505
0.000850731
0.00086775
0.000820992
0.00078579
0.00072856
0.000789675
0.000975591
0.000866786
0.000822575
0.00091994
0.000684381
0.000776772
0.000473379
0.000733701
0.00060291
0.000589844
0.000289721
5.12549e-08
5.11588e-08
5.12549e-08
5.11588e-08
5.18582e-08
5.27432e-08
6.9653e-07
1.13275e-06
4.37715e-06
5.37436e-05
5.87698e-05
2.39462e-05
0.000219171
0.000165279
1.21391e-08
1.21349e-08
1.2135e-08
1.2135e-08
1.21353e-08
6.22062e-08
7.19723e-07
6.43515e-07
1.78431e-06
1.97236e-06
3.61811e-06
2.20118e-05
3.82873e-05
3.28571e-05
1.52144e-06
1.52102e-06
1.5202e-06
1.52105e-06
1.52335e-06
8.49798e-08
1.21349e-08
1.21349e-08
1.2135e-08
1.21762e-08
6.93693e-08
2.93581e-07
2.63403e-07
5.77855e-07
6.70482e-06
5.63958e-05
7.23165e-05
7.23165e-05
4.50989e-05
1.52091e-06
1.5202e-06
1.5202e-06
1.5202e-06
1.52105e-06
7.7763e-08
1.21349e-08
1.2135e-08
2.0119e-08
1.37667e-06
1.16848e-05
1.71197e-05
2.41562e-06
6.62803e-06
6.13744e-05
7.22976e-05
7.22688e-05
2.50695e-05
6.32861e-06
6.11174e-06
1.42732e-05
1.25948e-05
3.86036e-06
3.09434e-06
8.67036e-08
1.96393e-08
1.21779e-08
4.95425e-07
1.61129e-05
2.25527e-05
2.24753e-05
1.16484e-05
2.88918e-05
7.16749e-05
6.96332e-05
1.42717e-05
8.65973e-06
1.9689e-05
4.54993e-05
4.54642e-05
4.54103e-05
4.49136e-05
3.15206e-05
7.87462e-08
1.25086e-08
1.24309e-08
8.88677e-07
1.85304e-05
2.25529e-05
2.21876e-05
1.01471e-05
1.50592e-05
3.09642e-05
1.2591e-05
8.67264e-08
2.51832e-05
4.54993e-05
4.54993e-05
4.44254e-05
2.36248e-05
2.28158e-05
3.15375e-05
5.10585e-08
1.25086e-08
1.34526e-08
2.2401e-07
7.89247e-06
1.55681e-05
7.48273e-06
1.24109e-07
1.4995e-07
2.44322e-08
1.027e-09
3.11245e-09
1.30562e-05
4.54946e-05
3.71742e-05
1.10349e-06
1.20882e-07
2.49633e-07
9.1547e-06
2.60508e-08
4.75193e-08
1.31331e-07
1.30414e-07
5.42281e-08
3.75992e-08
1.13672e-08
1.60438e-10
1.60463e-10
1.63418e-10
1.77401e-10
1.52744e-07
4.03568e-06
5.98755e-06
1.3241e-06
1.84271e-10
1.20108e-07
1.07744e-06
1.07783e-06
1.44672e-08
3.42661e-08
5.33616e-08
5.9093e-08
8.9797e-08
8.95698e-08
1.60438e-10
1.60424e-10
1.60428e-10
1.60463e-10
7.83463e-10
7.40157e-08
1.34963e-07
1.58734e-10
1.58734e-10
1.58836e-10
1.10878e-08
1.32028e-06
5.02195e-06
9.78478e-10
2.30893e-09
9.75678e-11
1.00227e-07
3.05774e-07
3.05865e-07
1.59706e-07
1.60428e-10
1.60424e-10
1.60428e-10
8.58539e-10
6.23387e-09
7.44581e-09
1.58734e-10
1.58734e-10
1.62212e-10
1.66795e-10
9.51806e-07
1.6958e-05
1.81523e-12
1.65115e-12
1.63883e-12
3.31382e-08
2.59042e-07
3.05865e-07
3.05865e-07
2.50765e-07
1.60428e-10
1.60424e-10
1.60444e-10
1.60689e-10
1.63469e-10
1.63764e-10
2.069e-10
2.49009e-10
1.75274e-10
9.66204e-07
1.6958e-05
2.22527e-12
1.64947e-12
1.00166e-12
2.0004e-10
2.66935e-08
1.63207e-07
2.39662e-07
1.81986e-07
4.90165e-08
1.84053e-08
5.64444e-08
3.99329e-08
7.7041e-09
3.43116e-10
2.57478e-10
2.80676e-10
9.23914e-11
1.93961e-07
1.6958e-05
3.5685e-13
4.37473e-13
2.90953e-13
1.37271e-18
2.58925e-11
1.4231e-09
6.62771e-09
5.3674e-09
1.75746e-08
7.24202e-08
9.39192e-08
9.39192e-08
5.49988e-08
1.0372e-09
2.46946e-10
2.76407e-10
8.2777e-11
3.59595e-12
1.6821e-05
2.16732e-15
1.16742e-14
1.21572e-14
1.97632e-34
6.76025e-16
1.3987e-13
8.96635e-15
1.69165e-13
1.41869e-10
1.77364e-08
5.39022e-08
6.74917e-08
2.5144e-08
1.74842e-09
2.40666e-10
1.76151e-10
3.18356e-11
3.58437e-12
1.68143e-05
-2.15466e-14
-1.10512e-14
-5.02617e-15
-2.36081e-15
-1.51122e-17
7.88291e-34
6.10749e-15
1.70248e-13
8.9022e-13
8.9059e-13
3.07628e-11
1.65251e-12
1.65311e-12
6.78881e-11
1.17589e-10
6.52414e-11
1.22846e-11
3.57941e-12
1.54089e-05
-1.5215e-14
-9.44427e-15
-5.62716e-15
-3.1991e-15
-1.60834e-15
-6.4285e-16
2.22967e-16
1.84723e-14
2.59144e-13
1.46719e-12
6.44253e-13
1.65202e-12
4.84101e-12
9.5362e-12
1.10063e-11
1.16762e-11
5.81984e-12
3.57831e-12
1.84416e-06
-7.34413e-15
-4.72907e-15
-2.98605e-15
-1.84799e-15
-1.11319e-15
-6.31668e-16
-2.91822e-16
2.47144e-17
8.97275e-15
1.32719e-13
6.4419e-13
2.00545e-12
4.54085e-12
3.77529e-12
3.25597e-12
5.24418e-12
3.90371e-12
3.57831e-12
3.57831e-12
-2.7794e-15
-1.77046e-15
-1.11629e-15
-6.94275e-16
-4.23282e-16
-2.58444e-16
-1.52644e-16
-7.74318e-17
3.33848e-17
2.25848e-15
1.95932e-14
8.93596e-14
3.06278e-13
5.64915e-13
9.28344e-13
3.01829e-12
3.58872e-12
3.57831e-12
3.59269e-12
-8.77976e-16
-5.36601e-16
-3.21056e-16
-1.91086e-16
-1.14347e-16
-6.89694e-17
-4.10304e-17
-2.22253e-17
-5.42091e-18
7.74734e-17
6.90723e-16
3.61217e-15
1.59881e-14
6.28345e-14
3.07507e-13
2.34516e-12
4.25082e-12
5.39628e-12
8.12009e-12
-2.26049e-16
-1.31382e-16
-7.72952e-17
-4.52608e-17
-2.62755e-17
-1.50908e-17
-8.44748e-18
-4.03827e-18
-1.08759e-19
1.97833e-17
1.46298e-16
9.3002e-16
5.83842e-15
3.19808e-14
2.30836e-13
2.34756e-12
4.98706e-12
6.86866e-10
4.38483e-07
-5.27252e-17
-2.8082e-17
-1.52638e-17
-8.36481e-18
-4.56891e-18
-2.4127e-18
-1.19549e-18
-3.03648e-19
1.52811e-18
1.4698e-17
1.02348e-16
6.69653e-16
4.45576e-15
2.60879e-14
2.15753e-13
3.57742e-12
3.5778e-12
9.87293e-09
1.05954e-05
-1.09011e-17
-5.09737e-18
-2.44649e-18
-1.18723e-18
-5.59002e-19
-9.6353e-20
2.99263e-20
4.62402e-19
2.36718e-18
1.35848e-17
9.08365e-17
6.0128e-16
4.0827e-15
2.43888e-14
2.29482e-13
5.25039e-12
1.64095e-11
3.99975e-12
1.39142e-05
-2.04789e-18
-8.29069e-19
-3.37612e-19
-1.16451e-19
0
3.96987e-19
2.58447e-18
9.2814e-18
2.37966e-17
5.27508e-17
1.4433e-16
6.47688e-16
4.0949e-15
2.42883e-14
3.56129e-13
7.26914e-12
1.8836e-11
3.997e-12
1.39154e-05
-3.4952e-19
-1.23992e-19
-4.02248e-20
1.45032e-20
6.16705e-19
4.69595e-18
2.3566e-17
9.01652e-17
2.65617e-16
6.13281e-16
1.22222e-15
2.74565e-15
9.365e-15
4.26485e-14
5.5502e-13
9.17888e-12
1.92572e-11
3.99768e-12
1.35615e-05
-5.21658e-20
-1.64484e-20
-1.71929e-21
1.51116e-19
2.50459e-18
2.26761e-17
1.32332e-16
5.69104e-16
1.88123e-15
4.86591e-15
1.05327e-14
2.17239e-14
5.09152e-14
1.38311e-13
8.42786e-13
9.60071e-12
1.92536e-11
4.00034e-12
1.33091e-05
-6.46286e-21
-1.775e-21
5.03461e-21
3.19943e-19
7.12286e-18
8.33663e-17
5.8915e-16
2.87381e-15
1.06551e-14
3.05368e-14
7.43038e-14
1.6465e-13
3.40953e-13
6.39404e-13
1.49478e-12
8.85379e-12
1.70902e-11
4.005e-12
1.3293e-05
-6.34352e-22
-1.24792e-22
6.84004e-21
5.22364e-19
1.55492e-17
2.37438e-16
2.09736e-15
1.18495e-14
5.08167e-14
1.7063e-13
4.63896e-13
1.03651e-12
1.86123e-12
2.82328e-12
3.78785e-12
9.06317e-12
1.27549e-11
4.00979e-12
9.50859e-06
-4.71919e-23
8.3666e-24
6.9482e-21
6.73261e-19
2.67059e-17
5.30238e-16
5.95672e-15
4.01606e-14
2.04132e-13
8.49425e-13
2.59113e-12
5.12913e-12
7.17701e-12
9.00844e-12
1.0614e-11
1.35636e-11
1.16806e-11
4.01199e-12
3.53479e-06
-2.52973e-24
8.83782e-24
4.39867e-21
7.18481e-19
3.63818e-17
9.25221e-16
1.36165e-14
1.16637e-13
7.15177e-13
3.59058e-12
1.21738e-11
1.90116e-11
2.01997e-11
2.22645e-11
2.72657e-11
3.37562e-11
3.75331e-11
4.01254e-12
3.97436e-06
-9.13353e-26
4.51186e-24
1.95432e-21
5.01725e-19
4.00882e-17
1.23892e-15
2.48663e-14
2.98374e-13
2.21219e-12
1.20042e-11
4.12318e-11
5.18985e-11
4.80466e-11
5.29285e-11
7.77724e-11
3.97276e-10
3.8165e-10
3.47521e-11
5.91979e-06
-1.97223e-27
1.70461e-24
8.36713e-22
2.0991e-19
2.93998e-17
1.31544e-15
3.48109e-14
6.28528e-13
5.40492e-12
2.87376e-11
8.70165e-11
1.07999e-10
1.03629e-10
1.23288e-10
4.34068e-10
2.08473e-09
2.01018e-09
3.26568e-11
5.91955e-06
-1.53011e-29
4.10346e-25
2.11823e-22
8.03469e-20
1.26541e-17
7.52135e-16
3.75311e-14
9.59063e-13
8.98885e-12
4.5606e-11
1.18396e-10
1.54702e-10
1.7181e-10
2.07897e-10
1.57258e-09
2.96112e-09
2.76222e-09
3.0813e-11
5.80554e-06
1.21708e-30
5.30608e-26
2.62236e-23
1.63568e-20
4.12105e-18
2.55576e-16
1.91238e-14
1.04787e-12
1.02387e-11
5.04574e-11
1.2026e-10
1.61486e-10
1.98767e-10
2.42449e-10
1.49649e-09
5.26995e-09
1.56386e-09
2.84616e-11
5.80437e-06
-9.25608e-35
2.88767e-30
4.69204e-25
1.38484e-21
4.87429e-19
4.2008e-17
3.38424e-15
4.3304e-13
4.80499e-12
2.28536e-11
5.16976e-11
8.21288e-11
1.13239e-10
4.24491e-16
4.59553e-09
3.45723e-08
2.24538e-08
1.30551e-11
5.80196e-06
-3.42284e-40
1.28434e-40
7.6132e-32
3.40809e-26
1.88599e-22
1.31332e-19
6.14263e-17
1.16976e-14
1.33089e-13
8.28908e-13
2.61141e-12
5.07727e-12
4.25254e-12
0
1.36649e-08
3.27694e-08
3.07139e-08
-3.30872e-27
2.40522e-06
)
;

boundaryField
{
    leftWall
    {
        type            zeroGradient;
    }
    rightWall
    {
        type            zeroGradient;
    }
    lowerWall
    {
        type            zeroGradient;
    }
    atmosphere
    {
        type            inletOutlet;
        inletValue      uniform 0;
        value           nonuniform List<scalar> 
46
(
0
1.48097e-43
1.39866e-24
6.74458e-24
2.45963e-24
1.26458e-25
-4.19643e-23
-1.36324e-22
-4.05118e-22
-9.54402e-22
-1.48026e-21
-1.48711e-21
-9.97158e-22
-4.57161e-22
-1.45126e-22
-3.18605e-23
-4.71715e-24
-4.64193e-25
0
0
0
0
0
0
0
0
0
0
0
0
0
0
0
0
0
0
0
0
0
0
0
0
0
0
0
2.40522e-06
)
;
    }
    defaultFaces
    {
        type            empty;
    }
}


// ************************************************************************* //
