/*--------------------------------*- C++ -*----------------------------------*\
  =========                 |
  \\      /  F ield         | OpenFOAM: The Open Source CFD Toolbox
   \\    /   O peration     | Website:  https://openfoam.org
    \\  /    A nd           | Version:  9
     \\/     M anipulation  |
\*---------------------------------------------------------------------------*/
FoamFile
{
    format      ascii;
    class       surfaceScalarField;
    location    "31.8";
    object      phi;
}
// * * * * * * * * * * * * * * * * * * * * * * * * * * * * * * * * * * * * * //

dimensions      [0 3 -1 0 0 0 0];

internalField   nonuniform List<scalar> 
1300
(
11.2529
1.87548
-4.16639
11.2529
-5.00994
1.87548
-4.24285
4.24285
-1.1875
1.1875
5.7123
5.54056
-2.37738
2.37738
-2.81892
2.81892
-2.86016
2.86016
-1.06194
1.06194
-1.02826
1.02826
0.693116
-0.693116
-3.41992
3.41992
-1.45619
1.45619
-2.90926
2.90926
6.1281
-6.1281
-3.24646
3.24646
-0.743763
0.743763
-4.26321
15.5161
6.98965
6.98965
-2.3711
2.3711
-1.25395
1.25395
1.41034
-1.41034
9.05101
-9.05101
-4.88463
-5.88382
1.91926
-14.0662
-3.09068
-3.09068
-2.7054
2.7054
-0.829928
1.04555
3.47681
-3.47681
-0.757139
0.757139
-4.32826
0.0854018
-4.32826
4.0274
0.215459
4.0274
-1.32878
0.14128
-1.32878
4.6782
-4.6782
1.07574
0.11176
1.07574
3.9281
-3.9281
-5.71006
11.4224
5.5428
-5.32064
20.8367
-5.93222
11.4728
-3.89942
3.89942
-2.29451
-0.0828723
-2.29451
2.37897
-0.0015874
2.37897
-4.0024
4.0024
-2.60913
-0.209783
-2.60913
2.91899
-0.100075
2.91899
3.66642
-3.66642
-2.91622
0.0560595
-2.91622
2.70845
0.151704
2.70845
0.771042
1.10443
-2.64652
3.69207
-1.10443
0.0424987
1.02614
0.0357986
1.02614
-1.01453
-0.0137252
-1.01453
1.04984
-0.0215793
1.04984
0.730131
-0.037015
0.730131
-0.754862
0.0617454
-0.754862
-8.60788
-8.97324
-3.54371
0.123791
-3.54371
-1.47421
0.0180207
-1.47421
1.49235
-0.0361555
1.49235
-2.52534
2.52534
-3.25115
0.341894
-3.25115
4.80635
1.32175
4.80635
5.04612
6.20674
16.299
-16.299
10.1709
-2.96681
-0.279648
-2.96681
-3.4119
-5.63911
3.4119
-0.165446
-0.805504
0.0617402
-0.805504
5.62659
1.36306
5.62659
2.58623
0.122226
-2.58623
0.215123
4.62615
-4.62615
1.42328
0.947822
1.42328
-1.19154
1.19154
1.12336
-0.0735237
-1.12336
-0.130582
1.38601
0.0243318
1.38601
-1.40975
-0.00059574
-1.40975
7.3109
-13.1947
-7.76773
3.23031
0.189615
-3.23031
0.13963
3.56357
-0.0867505
3.56357
-3.30969
3.30969
-3.61099
0.134179
-3.61099
-0.682218
-0.0749215
-0.682218
0.842024
-0.0848845
0.842024
-4.57613
0.247869
-4.57613
-3.69114
0.439987
3.69114
0.336256
1.25012
-1.25012
-1.43659
0.107807
-1.43659
-4.65918
0.0830543
4.65918
0.0190241
-4.77217
0.0939619
-4.77217
-3.71253
0.101533
3.71253
0.215575
4.58935
1.03724
-4.58935
0.661247
-5.36948
11.5762
-5.88338
11.4262
-3.51563
-0.383789
-3.51563
4.09039
-0.190968
4.09039
2.5707
0.338562
-2.5707
0.276184
2.50519
-0.126215
2.50519
-3.94512
-0.0572723
-3.94512
3.80528
0.19712
3.80528
2.54471
-0.03952
-2.54471
-0.0644271
2.89369
0.0253008
2.89369
3.6724
-0.00598131
3.6724
-3.53944
-0.126985
-3.53944
3.17896
-3.17896
3.08059
0.0983707
-3.08059
0.16437
-5.07402
5.07343
-0.00799941
-5.06602
1.01814
1.01814
0.768946
-0.0388142
0.768946
-0.861792
0.10693
-0.861792
8.34449
-16.1122
8.77896
-17.3868
7.53347
-21.5997
8.11637
-17.0896
3.82791
-3.82791
3.76177
0.0661354
-3.76177
0.218055
-1.45605
-0.0181638
-1.45605
-2.28826
-0.237076
-2.28826
2.85734
-0.332002
2.85734
-3.74209
3.74209
-4.12478
0.382686
4.12478
0.68157
2.95487
-0.0611748
-2.95487
-0.0119449
0.924054
0.151686
-0.924054
0.11855
4.86348
-0.23733
4.86348
-4.08521
-0.540949
-4.08521
-1.47494
0.0188928
1.47494
-0.0516604
-1.25895
0.0674031
-1.25895
-5.0745
0.00847758
-5.0387
-1.40127
-1.40127
1.30414
4.9962
-3.58567
0.046234
3.58567
-0.0221056
3.52705
0.215042
-3.52705
0.217361
-3.26327
0.0843116
3.26327
0.046418
-0.65974
-0.0224781
-0.65974
-1.03475
1.03475
-0.917636
-0.117112
0.917636
-0.0756118
1.40557
-0.155452
1.40557
1.47054
0.0218112
-1.47054
0.0339513
-5.01128
0.239112
-5.01128
4.10096
-0.0105747
4.10096
-3.94907
-0.136138
3.94907
-0.276665
-0.00372297
5.07715
-1.01441
-0.000120142
1.01441
-5.10148
5.10136
-0.665131
0.00539093
0.665131
0.103815
1.02967
0.161873
-1.02967
0.16788
3.84881
-0.04353
-3.84881
0.0209026
-2.00733
-0.28093
-2.00733
-3.18469
-0.330939
3.18469
-0.327348
-5.11518
-0.0779364
5.19312
-5.13676
1.33688
0.0491256
-1.33688
5.15049
-1.14364
-0.106479
1.14364
-0.108889
1.60383
-0.198266
1.60383
5.12084
-0.257354
-5.12084
0.109561
-4.11866
0.173539
4.11866
-0.0177028
-1.77511
-0.232221
1.77511
-0.171277
-13.1281
14.4911
7.70865
-6.2801
-6.91461
-11.9192
4.4471
7.12912
14.618
-11.8156
-9.78406
-11.676
2.86006
-2.69218
-3.72729
3.69027
23.5916
-23.4977
-18.3992
19.0808
20.777
-20.5615
5.70885
5.71351
15.8511
-15.934
-20.8985
20.5147
15.3878
-15.5976
22.0513
-22.1086
-25.8149
25.7714
-16.0928
16.1489
-20.2944
20.1674
-21.0577
20.7811
-8.35242
-9.03443
16.5166
-16.3928
19.9995
-20.2792
-19.3837
19.7255
10.0475
4.44359
11.0848
-6.24673
11.9556
-5.22605
12.9347
8.29373
-16.6462
7.81849
-14.7331
9.04527
10.9543
-8.87983
-3.03938
-17.9699
17.8832
-17.257
17.3034
24.1239
-24.0385
-6.17283
11.8863
-5.25335
12.3825
-11.409
-6.99019
10.0872
4.53073
8.9921
7.52452
-9.18171
-2.4943
-24.7988
24.5414
-25.6599
25.1189
0.10018
2.42593
-2.52611
1.35413
-0.862693
3.28863
1.99736
2.10429
2.45271
-2.29084
0.239463
-2.76558
-2.89616
-5.34043
5.44824
5.1571
-5.04534
16.5467
7.04499
16.5657
-16.7495
-6.74814
-16.5104
11.3637
7.71706
11.7464
12.0617
8.71534
12.1632
10.359
-10.3317
-0.0273073
-11.4777
21.8367
1.55464
-18.4678
-13.9371
8.84661
7.00452
8.84502
-9.89187
-6.04213
-9.61568
-11.0145
-9.88393
-11.3455
12.3185
8.19615
12.1276
-15.3157
15.298
9.27439
6.11344
9.17432
-8.96333
-6.63429
-9.02776
27.4823
-6.67803
-20.8043
-13.1812
-12.6337
12.9841
9.06722
14.3391
11.4323
14.3601
8.91476
18.5676
-17.982
5.34826
-9.94704
-6.1458
-9.78267
9.25805
6.89085
9.40975
-11.7668
-8.52762
-11.7206
-11.987
-9.07076
11.9929
8.17449
-12.5344
-13.1255
12.6705
8.11051
7.84114
-17.6252
9.24847
-18.2829
-10.9646
-5.42819
-10.7466
10.7851
6.68402
-17.4691
-5.86107
23.6336
-12.6793
20.5942
-10.8997
-9.37947
-10.9117
-14.8041
-4.57958
-14.3641
-7.98936
7.70843
-8.82116
8.48916
26.8767
-16.222
-10.6546
-12.3784
-8.18309
11.7171
-0.632344
-12.8358
12.8085
-0.880182
12.0545
16.4981
15.8658
-10.8802
-6.37674
-10.6629
10.2702
7.03322
10.3545
16.1055
8.01837
16.321
-16.8177
-7.22083
-16.5698
4.84101
-4.91593
5.71361
-5.69472
15.5794
9.5395
-15.3421
-9.45665
22.9305
-10.775
-12.1555
-5.11965
5.21412
-0.0944663
-1.83102
-0.476898
0.266865
-1.93096
-1.79633
1.86921
0.235083
5.4492
3.65287
-2.41437
2.48177
2.77875
2.70523
-0.190933
2.49874
-2.49335
18.9019
-11.4321
-7.46983
13.9702
-13.8872
-2.59956
-19.3273
16.7277
2.67852
3.00333
-2.94159
-3.9484
-1.39203
-3.91445
2.95196
2.20514
3.10365
2.10716
3.34108
-8.10336
1.56298
6.54038
-5.99621
-3.48236
-13.3462
-6.26635
19.6126
16.6788
7.86257
-16.7884
0.277973
5.29304
-5.3292
-1.5983
-11.7479
8.348
-9.9463
-15.217
-6.4609
21.6779
-9.58078
-1.08208
9.36573
2.38065
-10.8773
-7.09265
10.7431
1.42012
-12.0645
23.9707
-11.9062
-18.4413
8.51577
13.3209
16.2328
-17.8628
9.31888
8.54388
-4.54188
7.43048
1.41454
7.30427
-19.9295
13.8874
11.3242
8.40136
-11.6628
2.04707
-17.8824
25.1716
-22.2876
-2.88398
12.8222
12.3494
13.5488
13.3279
-7.78509
21.3339
-3.61807
-18.6695
21.5005
-13.0992
15.7826
-28.8817
-29.1105
10.4409
-17.9554
22.0741
-4.11873
-5.20529
-10.1104
23.1607
-2.00656
-21.1541
10.121
-13.9273
-11.8547
25.782
-20.6053
18.489
-6.26791
-12.2211
-12.665
-9.44365
12.4914
2.8066
-25.8739
31.2221
-7.30632
7.80526
1.36906
7.83056
10.6087
-15.976
5.36724
9.9966
-16.2645
6.76263
-22.7386
-12.1589
24.1939
-12.0349
-17.5871
-15.7962
-1.79094
4.87512
26.347
-16.3074
12.1166
4.19081
8.46173
1.89274
-8.5601
-1.22257
0.968056
16.0864
-17.0545
10.3778
10.5
11.7044
4.38204
10.7702
7.11295
-10.7481
-0.972415
-14.7928
5.72201
-6.61828
-14.5742
20.2962
-16.2679
1.69369
-10.3032
-13.9906
24.2938
-16.449
11.4255
12.5453
18.4587
-19.615
5.62438
-9.74633
-9.86865
10.6435
-17.2618
7.49832
12.7979
15.6088
2.48334
12.7474
11.4465
-19.4314
1.14852
18.971
-16.4767
3.88873
10.4713
-16.0053
0.20912
-10.5375
2.66445
-15.3437
-14.8047
16.5297
-21.1093
-12.352
13.5676
2.75337
-13.9039
-0.460227
-4.95414
-3.03522
-5.18636
-3.27669
-5.54447
-11.0618
-1.92688
-9.1349
5.78155
-6.68673
-4.65875
7.01408
1.47508
-4.93543
4.82895
-5.58017
5.38191
-0.210165
13.0186
15.6556
7.4725
-8.47674
15.9492
-15.6084
23.6267
-29.725
14.1167
15.9488
-23.1697
-13.7762
2.70111
2.1399
2.61623
13.4475
-14.4143
0.966769
-13.2788
17.598
-4.31923
-19.5803
6.30152
-6.13281
5.18668
0.52693
5.16852
1.41638
6.84597
-8.26235
-4.27834
-4.33
-9.16325
-13.8594
23.0226
4.73543
-13.1051
8.36967
-12.0625
16.7979
0.0785262
-13.1836
16.9847
-10.1387
17.5116
-11.9839
5.52769
12.7918
22.3469
-9.55509
16.2482
-6.70865
7.06789
-16.623
-6.7915
-11.2883
18.1791
-13.0055
14.6992
-1.12465
15.8239
-13.7772
3.00222
-2.07285
8.42719
8.64231
16.8088
-12.4267
11.9697
-18.6783
-4.65328
-16.195
-3.39714
1.01872
-13.8256
12.8069
12.0438
-11.0251
-3.24221
8.98419
-5.74197
5.68189
-2.84831
-2.83357
-1.84641
-3.06952
1.86889
0.629849
6.31173
0.489178
-3.33749
-2.00417
-1.90035
10.3744
8.5275
-3.83184
3.73738
3.56498
-0.561651
0.958729
2.14492
4.58717
-3.62844
0.67812
3.90905
-2.26347
3.82773
1.46532
-3.84954
-0.0649163
-3.40814
11.7561
3.13224
-5.33739
1.70894
2.3821
-13.8142
19.7414
-11.4154
-8.32601
22.1236
3.06349
-14.4789
16.2638
-13.5853
8.10345
-14.3698
-6.37548
-19.9608
-12.9158
-10.7095
19.0792
-12.3131
20.1757
3.86213
-20.4537
24.3158
-12.7398
6.27891
-9.44312
10.9084
-4.05808
-5.38503
11.2656
10.4123
-11.0535
-0.694417
0.2121
8.41928
-8.20718
-1.52702
-7.52322
-16.4089
17.829
-8.25569
17.5746
7.69356
-7.63403
25.2086
6.56495
-14.199
-11.8763
-12.9584
-5.6551
10.5777
-1.79548
-7.23228
-14.0166
7.2718
0.0324672
-19.0783
22.0714
-2.99318
-12.0737
-1.81365
14.6359
-18.1001
1.8356
-11.3375
10.7339
12.1485
12.1809
-20.8428
-0.311308
-12.6466
3.17656
-15.8232
15.526
-6.80299
17.2439
-16.006
11.3472
-14.5309
14.3599
-1.46328
14.7493
-9.38208
6.05496
-15.4986
-12.692
14.4722
-8.35875
15.8413
-10.1169
25.9582
-17.4232
14.4051
11.5531
-2.71255
-8.19911
-13.9754
11.2628
0.429727
8.26029
17.8373
-10.7244
16.8649
8.92448
-18.6708
-8.33729
-25.8596
7.18882
-13.3144
-7.35658
14.5454
11.1021
12.9949
4.67675
-11.7723
17.7862
-19.5772
-5.75131
-9.05335
14.5786
-3.31579
10.1446
-19.1979
-5.19915
13.1092
-0.192427
-12.9168
3.11279
-15.4648
5.13066
-20.5955
15.9786
-16.4389
1.76944
-7.90224
-3.16599
-3.27488
-2.17179
-3.40839
-7.56663
5.39484
-1.26511
3.56384
-12.521
12.3286
-5.07707
10.4719
-4.05767
-1.12869
4.22895
1.15296
11.6249
3.02519
-16.8014
-9.25464
14.6241
-5.3695
1.11978
-10.8004
3.82376
8.09959
14.024
-24.8273
1.65766
-15.1437
-4.06968
6.20958
4.91451
16.9583
2.54404
6.55201
-0.342428
9.09605
2.2738
2.19819
-11.2172
12.184
1.58962
15.7063
-1.88295
7.41064
3.28557
3.30359
2.02561
5.72248
2.91983
8.7247
0.462345
-3.86765
2.06783
-3.96819
-1.26966
-4.007
-0.316729
3.72517
-4.0419
10.496
-1.96852
5.12651
-1.88168
-4.93337
6.81505
-9.35151
-5.49502
-1.58597
-5.60626
7.3152
6.14988
-5.72923
-3.62227
2.39093
-15.3067
11.9789
-12.6733
-2.26097
22.0548
-9.46143
1.25425
-3.18252
-6.26897
-7.661
7.72592
24.1899
1.01868
12.2837
18.8477
11.755
1.03067
11.9871
-16.1058
-10.7515
-16.4171
-0.891149
13.7447
5.61424
20.7328
17.1673
13.8515
-5.34642
-24.9236
20.7188
-8.53477
16.3996
-3.48273
-17.1128
14.6486
8.9781
-17.402
0.963136
-16.1496
-24.6844
-0.344308
12.6729
-11.2806
10.1519
7.11666
2.01824
-2.42554
-0.849337
2.54265
-0.344466
8.75158
-0.188801
-8.19488
8.38368
-3.53637
2.26671
-0.429274
4.16665
6.38578
4.41726
-3.77762
-7.81952
-8.81652
-4.99768
-17.1425
2.47007
-8.61995
5.68093
-3.41422
2.84736
4.96946
10.096
-1.60166
-9.42346
7.34363
-4.49628
5.5997
)
;

boundaryField
{
    wall-4
    {
        type            calculated;
        value           uniform 0;
    }
    velocity-inlet-5
    {
        type            calculated;
        value           uniform -11.2529;
    }
    velocity-inlet-6
    {
        type            calculated;
        value           uniform -1.87548;
    }
    pressure-outlet-7
    {
        type            calculated;
        value           nonuniform List<scalar> 8(4.16639 5.00994 10.7684 12.147 17.5811 15.0786 17.1234 15.6498);
    }
    wall-8
    {
        type            calculated;
        value           uniform 0;
    }
    frontAndBackPlanes
    {
        type            empty;
        value           nonuniform List<scalar> 0();
    }
}


// ************************************************************************* //
