/*--------------------------------*- C++ -*----------------------------------*\
  =========                 |
  \\      /  F ield         | OpenFOAM: The Open Source CFD Toolbox
   \\    /   O peration     | Website:  https://openfoam.org
    \\  /    A nd           | Version:  9
     \\/     M anipulation  |
\*---------------------------------------------------------------------------*/
FoamFile
{
    format      ascii;
    class       volScalarField;
    location    "9.51";
    object      epsilon;
}
// * * * * * * * * * * * * * * * * * * * * * * * * * * * * * * * * * * * * * //

dimensions      [0 2 -3 0 0 0 0];

internalField   nonuniform List<scalar> 
2268
(
7.46261e-05
0.000421908
0.000757943
0.0010673
0.00134876
0.00160172
0.00182603
0.00202191
0.00219166
0.00233995
0.00247277
0.00259541
0.00270645
0.00279133
0.00281733
0.00273735
0.00254905
0.00229032
0.00194646
0.00157209
0.0012138
0.000708383
0.000212938
0.000157526
0.000278531
0.000416514
0.000546392
0.000664525
0.000770254
0.000863731
0.000945592
0.00101703
0.00107967
0.0011353
0.00118478
0.00122679
0.00125648
0.00126466
0.0012401
0.00118442
0.00110264
0.000992815
0.000853981
0.000686096
0.00048618
0.000351868
0.000272224
0.000292375
0.000381058
0.000470839
0.000553968
0.0006287
0.000694849
0.000752888
0.000803684
0.000848286
0.000887657
0.000922003
0.000950236
0.000969455
0.000974915
0.00096178
0.000931238
0.000884457
0.000819906
0.000739258
0.000646621
0.000552327
0.000598374
0.000386002
0.000327247
0.00038803
0.000457883
0.000524514
0.000585015
0.000638796
0.000686136
0.000727718
0.000764347
0.000796661
0.000824692
0.000847548
0.000863195
0.00086867
0.000861528
0.0008429
0.000813279
0.000772484
0.000725709
0.000682892
0.00066604
0.000887144
0.000496001
0.000369279
0.000409402
0.000465838
0.000521788
0.00057325
0.000619269
0.000659958
0.000695873
0.000727686
0.000755875
0.000780421
0.0008006
0.000814909
0.000821362
0.000818686
0.000808076
0.000790396
0.000767266
0.00074699
0.000746695
0.000808763
0.00125285
0.000603261
0.000415015
0.000438153
0.000484203
0.00053203
0.000576657
0.000616845
0.000652586
0.000684345
0.000712711
0.000738076
0.000760408
0.000779133
0.000793125
0.000801016
0.000802175
0.000797897
0.000789804
0.000781358
0.000783702
0.000823202
0.000979142
0.00176772
0.00070959
0.000463546
0.00047185
0.00050917
0.000550145
0.000588967
0.000624211
0.000655803
0.000684142
0.000709761
0.00073299
0.000753798
0.000771735
0.000785961
0.00079554
0.000800198
0.000801316
0.000801302
0.000805213
0.000826525
0.00090185
0.00117039
0.00260491
0.000819342
0.000515257
0.000509721
0.000539201
0.000573909
0.000607329
0.000637966
0.000665758
0.000691046
0.000714305
0.000735802
0.000755501
0.000773051
0.000787837
0.00079923
0.00080715
0.00081304
0.0008199
0.000833737
0.000869382
0.000970016
0.0013405
0.00447092
0.000380928
0.0012554
0.00210107
0.00247045
0.00261873
0.0026874
0.00266131
0.0025803
0.00244198
0.00229159
0.00202277
0.00163087
0.00141055
0.00139712
0.00125462
0.000955293
0.000602138
0.000320778
0.000103122
0.000449106
0.000711984
0.000981256
0.0011187
0.00118503
0.00121759
0.00121801
0.00119306
0.00114472
0.00108133
0.000990742
0.000881206
0.000771611
0.000693884
0.000609087
0.000489506
0.000346971
0.00022307
0.000170626
0.000634153
0.000671009
0.000811789
0.00088555
0.000922872
0.000941086
0.000941466
0.000925245
0.000893832
0.000849425
0.000787952
0.000718025
0.000642912
0.000577845
0.000511353
0.000429439
0.000334414
0.000259589
0.000283054
0.000772282
0.000715648
0.000783552
0.000817253
0.000834575
0.000842502
0.000839819
0.0008254
0.000799981
0.000763885
0.000714229
0.000659231
0.000601003
0.000545026
0.000488384
0.000424246
0.000353602
0.000310562
0.000403717
0.000921758
0.000806478
0.000805336
0.00080306
0.000802792
0.000801691
0.000795259
0.000780612
0.000757695
0.000726168
0.0006839
0.000637575
0.000588991
0.000539378
0.000489087
0.000436084
0.000382149
0.00036339
0.000533363
0.00120631
0.000943386
0.000851771
0.000813005
0.000796439
0.000787117
0.000776879
0.000761295
0.000739534
0.000711012
0.000674157
0.000633818
0.00059115
0.000546362
0.0005011
0.000456232
0.000414798
0.000415956
0.000675929
0.00181539
0.00111697
0.000906955
0.00083387
0.000803061
0.000786516
0.000772762
0.000756105
0.00073505
0.000708854
0.000676243
0.000640322
0.000601626
0.000560576
0.000519817
0.000481661
0.00045017
0.000469869
0.000837925
0.00345081
0.00127321
0.000954757
0.000857947
0.00081638
0.000793933
0.000777176
0.000759605
0.000739274
0.000715214
0.000686034
0.000653473
0.000617763
0.000579736
0.000542855
0.000510051
0.000487498
0.000525082
0.00100488
0.000987597
0.000597361
0.000572899
0.000591705
0.000617342
0.000642599
0.00066621
0.000688326
0.00070922
0.000729215
0.000748454
0.000766853
0.000784199
0.000800125
0.000814354
0.000827024
0.000839596
0.000855584
0.00088115
0.000930491
0.00103881
0.0013089
0.0021075
0.00122976
0.000722729
0.000676457
0.000682435
0.000694847
0.000706936
0.000719169
0.000732755
0.000747654
0.000763567
0.000780276
0.000797443
0.000814842
0.000832281
0.000849717
0.000867349
0.000886209
0.000909308
0.000941454
0.000991409
0.0010778
0.00123705
0.0015312
0.00157038
0.000868787
0.000805853
0.000801016
0.000797021
0.000789457
0.000785242
0.000788172
0.000796318
0.000807716
0.000821675
0.000837282
0.000854146
0.000872249
0.000891507
0.000912192
0.00093516
0.000962184
0.000995871
0.00104039
0.001104
0.00119852
0.00132919
0.000638466
0.000947157
0.000963331
0.000957951
0.000933966
0.000893891
0.000865565
0.000856858
0.0008576
0.000863021
0.00087328
0.000885966
0.000900758
0.000918186
0.000937347
0.000958637
0.000983734
0.00101324
0.00104866
0.00108789
0.00113414
0.0011948
0.00128061
0.00270967
0.00122891
0.00111663
0.00101845
0.000972884
0.000932558
0.000902977
0.000897624
0.000902468
0.000910472
0.000924318
0.000938643
0.000952606
0.000969206
0.000987737
0.00100731
0.00103142
0.00106192
0.001104
0.00114215
0.00116913
0.00120516
0.00126853
0.000949044
0.00124215
0.00107356
0.000996525
0.000982842
0.000948509
0.0009118
0.000902732
0.000906835
0.000919366
0.000940215
0.000964502
0.000989286
0.00101096
0.00102724
0.00104281
0.00106923
0.00109656
0.00112829
0.00116465
0.00119215
0.00121516
0.00126025
0.00145259
0.00111322
0.00101198
0.000972117
0.000963015
0.000937251
0.000913938
0.000908675
0.000915299
0.000928948
0.000948706
0.000972528
0.000997432
0.00101891
0.00103663
0.00105552
0.0010792
0.00110434
0.00113166
0.00116212
0.00118986
0.00121404
0.00125343
0.00155936
0.00109225
0.000974786
0.000940473
0.000927897
0.000917217
0.000911461
0.000915039
0.000925833
0.000941806
0.000961599
0.000984523
0.00100813
0.00103012
0.0010506
0.00107145
0.00109339
0.00111607
0.00114018
0.00116545
0.00118962
0.0012119
0.00123797
0.00161369
0.00108973
0.000957389
0.00091806
0.000907407
0.000905641
0.000909983
0.000920502
0.000935984
0.00095527
0.000977276
0.00100174
0.00102649
0.00104968
0.00107184
0.00109376
0.00111484
0.00113519
0.0011563
0.00117794
0.00119894
0.00121842
0.00123671
0.00164804
0.0010975
0.000953656
0.000909747
0.000899367
0.000902054
0.000912099
0.000927538
0.000947147
0.000969894
0.000994752
0.00102125
0.00104756
0.00107235
0.00109627
0.0011195
0.0011409
0.00116058
0.00118017
0.0011999
0.00121912
0.00123701
0.0012525
0.00167386
0.00110855
0.000957217
0.000909929
0.00089952
0.000904724
0.000918251
0.000937268
0.000960322
0.000986162
0.0010136
0.001042
0.00106999
0.00109668
0.0011226
0.00114765
0.00117061
0.00119138
0.0012114
0.00123126
0.00125057
0.00126853
0.00128394
0.00169538
0.00112086
0.000964991
0.000915585
0.000905114
0.000911933
0.000927906
0.000949724
0.000975651
0.0010041
0.00103385
0.0010643
0.00109445
0.00112364
0.00115201
0.0011794
0.00120484
0.00122802
0.00125014
0.00127193
0.00129309
0.00131286
0.00133016
0.00171403
0.00113365
0.000975349
0.000924847
0.000914506
0.000922591
0.000940571
0.00096481
0.000993219
0.00102403
0.00105617
0.00108907
0.001122
0.00115439
0.00118595
0.0012164
0.00124516
0.00127186
0.0012974
0.00132246
0.00134682
0.00136981
0.00139045
0.00173037
0.00114704
0.00098785
0.000936966
0.000926982
0.000936274
0.000956118
0.000982587
0.00101336
0.00104666
0.00108156
0.00111749
0.00115383
0.00119005
0.00122561
0.00126011
0.00129313
0.00132441
0.00135455
0.00138405
0.00141274
0.00144003
0.00146505
0.00174466
0.00116169
0.00100274
0.000951876
0.000942391
0.000952922
0.000974647
0.00100335
0.0010366
0.00107276
0.00111097
0.0011506
0.00119104
0.00123176
0.00127218
0.00131179
0.00135017
0.00138716
0.00142308
0.00145823
0.00149243
0.00152514
0.00155553
0.00175695
0.00117865
0.00102061
0.000969811
0.00096084
0.000972647
0.000996354
0.00102749
0.00106359
0.00110318
0.00114536
0.00118944
0.0012348
0.00128087
0.00132708
0.00137287
0.00141782
0.00146174
0.00150474
0.0015469
0.00158797
0.0016274
0.00166436
0.00176691
0.00120035
0.00104253
0.00099116
0.000982532
0.000995651
0.0010215
0.00105544
0.00109496
0.00113865
0.00118557
0.00123496
0.00128619
0.00133865
0.00139176
0.00144498
0.00149785
0.00155011
0.00160165
0.00165236
0.00170186
0.00174954
0.00179452
0.00176928
0.00123191
0.00107002
0.00101632
0.00100767
0.00102219
0.00105045
0.00108769
0.00113134
0.00117992
0.00123243
0.00128812
0.00134632
0.00140641
0.0014678
0.00152992
0.00159228
0.0016545
0.00171629
0.00177732
0.00183707
0.00189479
0.00194955
0.00176917
0.00127359
0.00110195
0.00104495
0.00103631
0.00105254
0.00108369
0.00112485
0.00117337
0.00122772
0.00128685
0.00134999
0.00141646
0.00148564
0.00155692
0.00162968
0.00170338
0.0017775
0.00185156
0.001925
0.00199714
0.00206706
0.00213372
0.00176665
0.00132476
0.0011374
0.00107695
0.00106864
0.00108704
0.00112168
0.00116749
0.00122176
0.00128288
0.00134981
0.00142175
0.00149804
0.00157803
0.00166109
0.00174656
0.00183379
0.00192212
0.00201086
0.00209924
0.00218633
0.00227105
0.00235216
0.00176437
0.00138271
0.00117581
0.00111241
0.00110491
0.00112605
0.00116489
0.0012162
0.00127721
0.00134629
0.00142239
0.00150473
0.00159264
0.00168548
0.00178257
0.0018832
0.00198659
0.00209193
0.00219828
0.00230463
0.00240979
0.00251242
0.00261107
0.00176378
0.00143949
0.00121761
0.00115165
0.00114541
0.00116994
0.00121379
0.00127159
0.0013405
0.00141891
0.0015058
0.0016004
0.00170207
0.00181016
0.00192397
0.00204269
0.00216542
0.00229114
0.00241866
0.00254667
0.00267367
0.00279801
0.00291792
0.00176235
0.00150412
0.00126298
0.00119483
0.00119041
0.00121907
0.00126886
0.00133426
0.00141242
0.00150176
0.00160131
0.00171036
0.00182831
0.00195452
0.00208824
0.00222859
0.00237451
0.00252472
0.00267775
0.00283193
0.00298537
0.00313602
0.00328172
0.00746219
0.00157626
0.00131226
0.00124215
0.00124015
0.00127377
0.00133054
0.00140482
0.00149377
0.00159589
0.00171029
0.00183636
0.00197357
0.00212129
0.00227877
0.00244502
0.00261878
0.00279851
0.00298237
0.00316824
0.00335376
0.00353634
0.00371334
0.00746567
0.00164345
0.00136542
0.00129376
0.00129484
0.00133433
0.00139926
0.00148386
0.00158537
0.00170239
0.00183418
0.00198027
0.00214023
0.00231352
0.00249935
0.00269665
0.00290395
0.00311936
0.0033406
0.00356497
0.00378949
0.00401092
0.00422593
0.00176323
0.00170983
0.00142266
0.00134972
0.00135462
0.00140101
0.00147539
0.00157194
0.001688
0.00182234
0.00197444
0.00214403
0.00233087
0.00253453
0.00275425
0.00298887
0.00323666
0.00349534
0.00376204
0.00403336
0.00430546
0.00457423
0.00483546
0.00176575
0.00177642
0.00148355
0.00140997
0.00141954
0.00147396
0.00155923
0.00166953
0.00180236
0.00195676
0.00213251
0.00232965
0.00254819
0.00278792
0.00304818
0.00332772
0.00362456
0.00393591
0.00425816
0.00458694
0.00491732
0.00524398
0.00556154
0.00176668
0.0018538
0.00154807
0.00147441
0.00148958
0.00155324
0.00165097
0.00177698
0.00192904
0.00210656
0.00230974
0.00253905
0.00279493
0.00307751
0.00338631
0.00372007
0.00407653
0.00445226
0.00484269
0.00524218
0.00564424
0.00604195
0.00642836
0.00176704
0.00193751
0.00161542
0.00154275
0.00156457
0.00163878
0.00175063
0.00189447
0.00206842
0.00227243
0.00250727
0.00277404
0.00307381
0.00340723
0.00377422
0.00417358
0.00460277
0.00505759
0.00553219
0.00601915
0.00650987
0.00699515
0.00746589
0.0017676
0.00202011
0.00168558
0.00161463
0.00164417
0.00173034
0.00185809
0.00202198
0.00222068
0.00245479
0.00272592
0.00303609
0.0033873
0.00378102
0.00421779
0.00469672
0.00521499
0.00576746
0.00634657
0.00694243
0.00754345
0.00813721
0.00871154
0.00176742
0.00211086
0.00175756
0.00168941
0.00172793
0.00182753
0.00197295
0.00215918
0.00238554
0.0026536
0.00296608
0.00332627
0.00373749
0.00420253
0.004723
0.00529859
0.00592636
0.0066
0.00730965
0.008042
0.00878116
0.00951005
0.0102121
0.00176752
0.00219404
0.00183054
0.00176643
0.00181531
0.00192983
0.00209469
0.00230542
0.00256234
0.00286823
0.00322735
0.00364475
0.00412567
0.00467482
0.00529554
0.00598864
0.00675127
0.00757582
0.00844937
0.00935381
0.0102671
0.0111655
0.012026
0.00176788
0.00227365
0.00190279
0.00184495
0.00190587
0.00203679
0.00222263
0.00245978
0.00274984
0.00309727
0.00350834
0.00399051
0.00455172
0.00519951
0.00593986
0.00677554
0.00770431
0.00871718
0.00979726
0.0109199
0.0120543
0.0131669
0.0142255
0.00747896
0.00235573
0.00197318
0.00192477
0.00199962
0.00214819
0.00235609
0.002621
0.00294623
0.00333838
0.00380639
0.0043609
0.00501353
0.00577589
0.00665792
0.00766562
0.00879831
0.0100458
0.0113865
0.0127869
0.0142041
0.0155902
0.0168988
0.00176857
0.00239713
0.0020415
0.00200723
0.00209778
0.00226451
0.00249457
0.00278753
0.00314891
0.00358803
0.00411712
0.00475093
0.00550599
0.00639949
0.00744714
0.00866004
0.0100406
0.0115785
0.0132469
0.0150017
0.0167834
0.0185232
0.0201524
0.00746773
0.00246711
0.00211363
0.00209733
0.00220393
0.00238748
0.00263793
0.00295748
0.00335441
0.00384119
0.00443401
0.00515263
0.00601983
0.00706019
0.00829746
0.00975043
0.0114273
0.0133195
0.0153966
0.017603
0.0198589
0.0220648
0.024115
0.00176611
0.00250329
0.00220302
0.00220717
0.00232589
0.00252075
0.00278644
0.00312849
0.00355811
0.0040911
0.004748
0.00555433
0.0065404
0.00774009
0.00918782
0.0109133
0.0129345
0.0152493
0.0178281
0.0206078
0.0234872
0.026324
0.028947
0.00746658
0.0025928
0.00235284
0.00236528
0.00247876
0.00267031
0.00294044
0.00329723
0.00375392
0.00432903
0.00504727
0.00594027
0.00704681
0.00841173
0.0100827
0.0121041
0.0145091
0.0173097
0.0204887
0.0239893
0.0276987
0.0314207
0.0348632
0.00176674
0.00300935
0.00270843
0.00263589
0.00268771
0.00284325
0.00309876
0.00345846
0.00393386
0.00454422
0.0053174
0.00629083
0.00751197
0.00903751
0.0109302
0.0132527
0.0160595
0.0193887
0.023256
0.027644
0.0324673
0.0374864
0.0421905
0.013657
0.0055151
0.00371356
0.00314399
0.00298335
0.00304164
0.00325517
0.00360337
0.0040876
0.00472415
0.00554218
0.00658373
0.0079042
0.00957168
0.0116642
0.0142644
0.0174534
0.0213089
0.0259094
0.0313376
0.0376376
0.0446369
0.0515056
0.143433
0.0218733
0.00679152
0.00407934
0.0033719
0.0032474
0.00339259
0.00371799
0.00420257
0.00485546
0.00570506
0.00679638
0.00819081
0.00996562
0.0122118
0.0150298
0.0185283
0.0228314
0.0281079
0.0346178
0.0427353
0.0527796
0.064015
1.53663
0.121941
0.0152555
0.00542898
0.00374259
0.0033998
0.00347936
0.00378377
0.00426536
0.00492564
0.0057915
0.00690921
0.00834337
0.0101764
0.0125068
0.0154461
0.0191212
0.0236919
0.0294068
0.0367225
0.0465306
0.0606216
0.0827837
0.00562759
0.00448999
0.00444679
0.00538526
0.00189789
0.00192998
0.00191683
0.00185982
0.00141725
0.00143875
0.00142952
0.00139245
0.00132227
0.00132007
0.00130404
0.00128069
0.00130592
0.00131032
0.00128396
0.00125688
0.00129146
0.00129609
0.00127079
0.00125017
0.00127163
0.00126724
0.00125031
0.00123236
0.00124939
0.00124726
0.00123829
0.00122822
0.00124461
0.00124566
0.00124344
0.00123949
0.00125966
0.00126238
0.00126347
0.00126316
0.00129201
0.00129597
0.00129874
0.00130037
0.00134023
0.00134559
0.00134981
0.00135294
0.00140325
0.00141043
0.00141647
0.00142134
0.00148114
0.00149047
0.00149866
0.00150567
0.00157558
0.00158746
0.00159819
0.00160772
0.00168918
0.00170411
0.00171786
0.00173036
0.00182512
0.0018437
0.00186106
0.0018771
0.00198715
0.00201016
0.00203185
0.00205214
0.00217982
0.00220817
0.0022351
0.00226051
0.00240856
0.00244339
0.00247667
0.00250825
0.00267996
0.00272265
0.0027636
0.00280264
0.00300195
0.00305416
0.00310439
0.00315244
0.0033841
0.00344782
0.00350926
0.00356819
0.00383792
0.00391558
0.00399055
0.00406259
0.00437741
0.00447188
0.00456319
0.00465102
0.00501952
0.00513432
0.00524532
0.00535216
0.00578506
0.00592444
0.00605918
0.00618883
0.00669972
0.00686878
0.00703209
0.00718911
0.00779532
0.00800028
0.00819794
0.00838768
0.0091116
0.00935992
0.00959883
0.00982757
0.0106981
0.0109989
0.0112872
0.0115622
0.012617
0.012981
0.0133284
0.0136581
0.014945
0.0153857
0.0158037
0.0161978
0.017777
0.0183111
0.0188135
0.0192832
0.021229
0.0218778
0.0224817
0.0230402
0.0254445
0.0262362
0.0269632
0.0276257
0.0306066
0.0315793
0.0324562
0.0332394
0.0369654
0.0381693
0.0392263
0.0401443
0.0448959
0.0463893
0.0476489
0.0486988
0.0550155
0.0568321
0.0582686
0.0593938
0.0684116
0.0704225
0.0718468
0.0728599
0.0869867
0.0884269
0.0892442
0.0897337
0.00198979
0.00124873
0.000998852
0.000893631
0.000842106
0.000812855
0.000792479
0.000774022
0.000755135
0.000734534
0.000709867
0.000681407
0.000649564
0.000615485
0.000582653
0.000555591
0.00054544
0.000602714
0.00118192
0.00147675
0.00117828
0.00101897
0.000931297
0.000880532
0.000849001
0.000827328
0.00080985
0.00079389
0.000777767
0.000758038
0.00073339
0.000704625
0.000673232
0.000642105
0.000618539
0.000616857
0.000689281
0.00131026
0.0012858
0.0011379
0.00103317
0.000964878
0.000920653
0.000891457
0.000871591
0.000856935
0.00084495
0.000833908
0.000819049
0.000796784
0.000767976
0.000736662
0.000705695
0.000683667
0.000686749
0.000767708
0.00142339
0.00123278
0.00112857
0.00105326
0.00100156
0.00096576
0.000941223
0.000925323
0.000915017
0.000908286
0.00090492
0.000897814
0.00087732
0.000842708
0.000808064
0.000775648
0.000751877
0.000755441
0.000798274
0.000557651
0.00120879
0.00113252
0.00107812
0.00103623
0.00100599
0.000985634
0.000972271
0.000962837
0.000955053
0.00095054
0.000945192
0.000938105
0.000921683
0.000879173
0.000849216
0.000821822
0.000829422
0.000954448
0.00201976
0.00121151
0.00114649
0.00110096
0.00106845
0.00104529
0.00102619
0.00100928
0.000996209
0.000987456
0.000981764
0.00097617
0.000974568
0.000962372
0.000930497
0.0009089
0.000884655
0.000888663
0.00100681
0.00312788
0.00120687
0.00116274
0.00112687
0.00109964
0.00108108
0.00106369
0.00104596
0.00103257
0.00102479
0.00101984
0.00101765
0.00102672
0.00102324
0.000969612
0.000936266
0.000918755
0.000923359
0.000975188
0.0011055
0.00121237
0.00118053
0.00115274
0.00113149
0.00111505
0.0010979
0.00108086
0.00106801
0.00105991
0.00105471
0.00105123
0.00105029
0.00103477
0.000990775
0.000954163
0.000934751
0.000943397
0.00104491
0.00489437
0.00123071
0.00120852
0.00118666
0.00116931
0.00115333
0.00113593
0.00111937
0.00110617
0.00109645
0.00108902
0.00108081
0.00106739
0.00104157
0.00100429
0.000971521
0.000950876
0.000959693
0.00107637
0.00489546
0.00126014
0.00124694
0.00123057
0.00121613
0.00120085
0.00118319
0.00116561
0.00115014
0.00113688
0.00112501
0.00111097
0.0010881
0.00105412
0.00101833
0.000988505
0.000967909
0.000972372
0.00106917
0.00489232
0.001301
0.00129477
0.00128399
0.00127214
0.0012577
0.00124014
0.00122146
0.00120318
0.00118541
0.0011678
0.00114772
0.0011191
0.00108081
0.00104265
0.00101142
0.000990456
0.000991812
0.00106112
0.00115803
0.00135621
0.00135467
0.00134833
0.00133868
0.00132539
0.00130857
0.00128937
0.0012687
0.00124683
0.00122369
0.00119796
0.00116579
0.00112538
0.00108368
0.00104859
0.00102634
0.0010279
0.00109255
0.00115705
0.00142742
0.00142985
0.00142689
0.00141943
0.00140773
0.00139192
0.00137256
0.00135013
0.00132495
0.00129724
0.00126668
0.00123159
0.00119006
0.00114567
0.00110657
0.00108343
0.00108787
0.00115059
0.00115805
0.00151521
0.00152208
0.00152282
0.00151811
0.00150838
0.00149376
0.00147448
0.00145082
0.00142311
0.00139172
0.00135697
0.00131867
0.00127607
0.00123062
0.00118907
0.00116602
0.00117509
0.00125447
0.00115359
0.00162138
0.0016336
0.00163895
0.00163783
0.00163063
0.00161755
0.0015987
0.00157429
0.00154465
0.00151026
0.00147177
0.00142983
0.001385
0.00133876
0.00129671
0.00127409
0.00129005
0.00140752
0.00112555
0.00174889
0.00176746
0.00177839
0.00178182
0.00177797
0.00176703
0.00174912
0.00172442
0.00169331
0.00165638
0.00161447
0.00156869
0.00152049
0.0014723
0.00142982
0.00140656
0.00142577
0.00156765
0.00484288
0.0019014
0.0019275
0.00194514
0.00195415
0.00195459
0.00194656
0.00193018
0.00190568
0.00187347
0.00183425
0.00178904
0.00173929
0.00168711
0.00163584
0.00159194
0.0015688
0.00159555
0.0017739
0.00116006
0.00208333
0.00211841
0.00214406
0.00215985
0.00216562
0.00216138
0.00214721
0.00212337
0.00209032
0.00204887
0.00200022
0.00194614
0.00188926
0.00183381
0.00178732
0.0017648
0.0018019
0.00203564
0.00489997
0.0023
0.00234581
0.00238103
0.00240498
0.0024173
0.00241782
0.0024066
0.00238387
0.00235015
0.00230633
0.0022538
0.00219462
0.00213194
0.00207081
0.00202011
0.00199749
0.00204648
0.00232205
0.00116105
0.00255775
0.00261645
0.00266314
0.00269691
0.00271715
0.00272355
0.00271605
0.00269488
0.00266055
0.00261405
0.00255691
0.00249149
0.00242144
0.00235263
0.00229544
0.00227077
0.00233181
0.00268272
0.00501762
0.00286424
0.00293844
0.0029989
0.00304444
0.00307421
0.00308775
0.00308485
0.00306568
0.00303076
0.0029811
0.00291838
0.00284523
0.0027658
0.00268684
0.00262028
0.00259028
0.00265825
0.00305842
0.00577065
0.00322865
0.0033215
0.00339847
0.00345809
0.00349931
0.00352142
0.00352412
0.00350745
0.00347189
0.00341848
0.00334901
0.00326637
0.00317521
0.00308323
0.00300417
0.00296578
0.00303859
0.00349202
0.00667236
0.00366201
0.00377728
0.00387402
0.00395048
0.00400535
0.00403773
0.00404716
0.00403357
0.00399736
0.00393955
0.003862
0.00376787
0.00366237
0.00355422
0.00345913
0.00340915
0.00348616
0.00400466
0.00772744
0.00417763
0.00431979
0.00444015
0.00453665
0.00460775
0.00465237
0.00466988
0.00466007
0.00462327
0.00456042
0.00447346
0.00436575
0.00424299
0.00411501
0.00399974
0.00393409
0.00401255
0.00459836
0.0089008
0.00479158
0.0049659
0.00511437
0.00523463
0.00532494
0.00538406
0.00541122
0.00540612
0.00536894
0.00530058
0.00520291
0.00507943
0.0049363
0.00478445
0.0046442
0.00455774
0.00463315
0.00528509
0.0101924
0.00552334
0.005736
0.00591777
0.00606604
0.00617892
0.00625513
0.0062938
0.00629458
0.00625754
0.00618341
0.00607394
0.00593263
0.00576599
0.005586
0.00541549
0.00530235
0.00536931
0.0060856
0.0116198
0.00639668
0.00665485
0.00687582
0.00705685
0.00719605
0.0072922
0.00734457
0.00735274
0.0073167
0.00723695
0.00711502
0.00695423
0.00676127
0.00654906
0.00634301
0.00619733
0.00625158
0.00703813
0.0132895
0.00744072
0.00775261
0.00801935
0.00823828
0.00840782
0.00852709
0.0085956
0.00861305
0.00857935
0.00849478
0.00836046
0.00817938
0.00795813
0.00771037
0.00746418
0.00728108
0.00732132
0.00819728
0.0153612
0.00869133
0.00906609
0.0093857
0.00964799
0.00985206
0.00999773
0.010085
0.010114
0.0100847
0.00999692
0.00985146
0.00965064
0.00940065
0.00911557
0.00882621
0.00860263
0.00863099
0.00962805
0.0179971
0.0101927
0.0106404
0.0110204
0.0113315
0.0115741
0.0117494
0.0118582
0.0119014
0.011879
0.0117909
0.0116372
0.0114193
0.0111426
0.0108211
0.0104882
0.0102236
0.0102451
0.0114008
0.0213045
0.0119996
0.0125312
0.0129789
0.0133437
0.0136284
0.0138359
0.0139688
0.014029
0.0140172
0.013933
0.013776
0.0135465
0.0132488
0.0128962
0.0125239
0.0122219
0.0122447
0.0135993
0.0253751
0.0141799
0.0148064
0.0153285
0.0157509
0.0160798
0.0163214
0.0164805
0.0165607
0.0165635
0.0164891
0.0163365
0.016105
0.0157973
0.0154253
0.0150255
0.0146975
0.0147376
0.0163431
0.0304182
0.0168174
0.0175494
0.0181511
0.0186329
0.0190064
0.0192822
0.0194686
0.0195714
0.0195938
0.0195366
0.019399
0.0191797
0.01888
0.0185104
0.0181071
0.0177792
0.0178685
0.0198016
0.0367423
0.0200151
0.0208623
0.0215459
0.0220858
0.0225014
0.0228094
0.0230225
0.0231498
0.0231965
0.0231653
0.0230562
0.0228687
0.022604
0.0222718
0.0219087
0.021632
0.0218331
0.0242144
0.0447865
0.0239003
0.0248696
0.0256332
0.0262253
0.0266766
0.0270116
0.0272487
0.0274007
0.027476
0.0274797
0.0274148
0.0272834
0.0270899
0.0268472
0.0265957
0.0264634
0.0268956
0.029923
0.0551533
0.0286305
0.0297236
0.0305585
0.0311909
0.0316664
0.0320195
0.0322747
0.0324493
0.0325553
0.0326018
0.0325963
0.0325476
0.0324691
0.0323855
0.0323529
0.0325229
0.0334091
0.0374349
0.0687863
0.0344031
0.0356117
0.0364989
0.0371512
0.0376334
0.0379909
0.0382547
0.0384465
0.038582
0.038675
0.0387402
0.0387974
0.0388777
0.0390337
0.0393635
0.0400828
0.0418281
0.0475394
0.0874629
0.04147
0.0427653
0.0436695
0.0443107
0.0447752
0.0451188
0.0453777
0.0455768
0.0457351
0.0458714
0.0460087
0.0461821
0.04645
0.0469147
0.0477631
0.0493674
0.0526561
0.0614214
0.114353
0.0501548
0.0514688
0.0523315
0.0529181
0.0533337
0.0536408
0.0538775
0.0540694
0.0542372
0.0544031
0.0545977
0.0548719
0.0553166
0.0561029
0.0575638
0.0603864
0.0661975
0.0806549
0.155288
0.0608651
0.0620656
0.0627996
0.0632767
0.063608
0.0638534
0.0640476
0.0642134
0.0643699
0.0645393
0.0647555
0.0650781
0.0656217
0.0666195
0.0685726
0.0726374
0.0818197
0.106391
0.222785
0.0740746
0.0749517
0.0754484
0.0757583
0.0759709
0.0761303
0.0762607
0.0763778
0.0764955
0.0766313
0.076813
0.0770928
0.0775769
0.0784983
0.0804152
0.0848165
0.0963625
0.134539
0.346527
0.0902426
0.0905582
0.0907239
0.0908245
0.0908938
0.0909475
0.0909936
0.0910378
0.0910853
0.091143
0.091223
0.0913478
0.0915651
0.0919858
0.0929036
0.0952504
0.102814
0.139003
0.578698
)
;

boundaryField
{
    leftWall
    {
        type            epsilonWallFunction;
        value           nonuniform List<scalar> 
50
(
7.46261e-05
0.000157526
0.000272224
0.000386002
0.000496001
0.000603261
0.00070959
0.000819342
0.000987597
0.00122976
0.00157038
0.000638466
0.00270967
0.000949044
0.00145259
0.00155936
0.00161369
0.00164804
0.00167386
0.00169538
0.00171403
0.00173037
0.00174466
0.00175695
0.00176691
0.00176928
0.00176917
0.00176665
0.00176437
0.00176378
0.00176235
0.00746219
0.00746567
0.00176323
0.00176575
0.00176668
0.00176704
0.0017676
0.00176742
0.00176752
0.00176788
0.00747896
0.00176857
0.00746773
0.00176611
0.00746658
0.00176674
0.013657
0.143433
1.53663
)
;
    }
    rightWall
    {
        type            epsilonWallFunction;
        value           nonuniform List<scalar> 
50
(
0.000103122
0.000170626
0.000283054
0.000403717
0.000533363
0.000675929
0.000837925
0.00100488
0.00118192
0.00131026
0.00142339
0.000557651
0.00201976
0.00312788
0.0011055
0.00489437
0.00489546
0.00489232
0.00115803
0.00115705
0.00115805
0.00115359
0.00112555
0.00484288
0.00116006
0.00489997
0.00116105
0.00501762
0.00577065
0.00667236
0.00772744
0.0089008
0.0101924
0.0116198
0.0132895
0.0153612
0.0179971
0.0213045
0.0253751
0.0304182
0.0367423
0.0447865
0.0551533
0.0687863
0.0874629
0.114353
0.155288
0.222785
0.346527
0.578698
)
;
    }
    lowerWall
    {
        type            epsilonWallFunction;
        value           nonuniform List<scalar> 
62
(
7.46261e-05
0.000421908
0.000757943
0.0010673
0.00134876
0.00160172
0.00182603
0.00202191
0.00219166
0.00233995
0.00247277
0.00259541
0.00270645
0.00279133
0.00281733
0.00273735
0.00254905
0.00229032
0.00194646
0.00157209
0.0012138
0.000708383
0.000212938
0.000212938
0.000351868
0.000598374
0.000887144
0.00125285
0.00176772
0.00260491
0.00447092
0.00562759
0.00448999
0.00444679
0.00538526
0.000380928
0.000449106
0.000634153
0.000772282
0.000921758
0.00120631
0.00181539
0.00345081
0.000380928
0.0012554
0.00210107
0.00247045
0.00261873
0.0026874
0.00266131
0.0025803
0.00244198
0.00229159
0.00202277
0.00163087
0.00141055
0.00139712
0.00125462
0.000955293
0.000602138
0.000320778
0.000103122
)
;
    }
    atmosphere
    {
        type            inletOutlet;
        inletValue      uniform 0.1;
        value           nonuniform List<scalar> 
46
(
0.1
0.121941
0.0152555
0.00542898
0.00374259
0.0033998
0.00347936
0.00378377
0.00426536
0.00492564
0.0057915
0.00690921
0.00834337
0.0101764
0.0125068
0.0154461
0.0191212
0.0236919
0.0294068
0.0367225
0.0465306
0.0606216
0.1
0.1
0.1
0.1
0.1
0.1
0.1
0.1
0.1
0.1
0.1
0.1
0.1
0.1
0.1
0.1
0.1
0.1
0.1
0.1
0.1
0.1
0.1
0.578698
)
;
    }
    defaultFaces
    {
        type            empty;
    }
}


// ************************************************************************* //
