/*--------------------------------*- C++ -*----------------------------------*\
  =========                 |
  \\      /  F ield         | OpenFOAM: The Open Source CFD Toolbox
   \\    /   O peration     | Website:  https://openfoam.org
    \\  /    A nd           | Version:  9
     \\/     M anipulation  |
\*---------------------------------------------------------------------------*/
FoamFile
{
    format      ascii;
    class       volScalarField;
    location    "9.51";
    object      p;
}
// * * * * * * * * * * * * * * * * * * * * * * * * * * * * * * * * * * * * * //

dimensions      [1 -1 -2 0 0 0 0];

internalField   nonuniform List<scalar> 
2268
(
736.656
736.626
736.53
736.363
736.123
735.814
735.439
735.002
734.51
733.975
733.406
732.815
732.212
731.606
731.005
730.425
729.886
729.417
729.011
728.686
728.583
728.465
728.449
677.802
677.767
677.669
677.498
677.256
676.945
676.569
676.132
675.641
675.107
674.538
673.945
673.338
672.727
672.126
671.554
671.042
670.604
670.268
669.988
669.775
669.597
669.572
618.959
618.92
618.82
618.645
618.4
618.086
617.708
617.27
616.779
616.243
615.674
615.078
614.468
613.855
613.255
612.698
612.198
611.784
611.504
611.222
610.934
610.717
610.689
560.129
560.09
559.987
559.809
559.561
559.245
558.864
558.423
557.928
557.39
556.816
556.218
555.604
554.989
554.391
553.837
553.335
552.93
552.67
552.396
552.058
551.811
551.803
501.313
501.276
501.173
500.992
500.74
500.421
500.036
499.591
499.091
498.546
497.967
497.362
496.746
496.13
495.534
494.983
494.455
494.038
493.775
493.513
493.149
492.888
492.923
442.512
442.478
442.375
442.192
441.937
441.614
441.226
440.775
440.266
439.713
439.124
438.511
437.89
437.274
436.682
436.143
435.579
435.102
434.846
434.593
434.203
434.027
434.044
383.727
383.695
383.592
383.407
383.15
382.823
382.43
381.973
381.453
380.887
380.286
379.663
379.035
378.419
377.834
377.317
376.826
376.301
375.903
375.645
375.358
375.285
375.149
324.957
324.926
324.822
324.636
324.375
324.045
323.648
323.183
322.651
322.07
321.454
320.817
320.18
319.564
318.99
318.511
318.223
317.768
317.097
316.777
316.694
316.522
316.25
728.579
728.544
728.908
729.248
729.601
729.952
730.299
730.669
731.041
731.418
731.714
731.892
732.346
732.912
733.307
733.59
733.737
733.861
733.99
669.728
669.639
669.967
670.316
670.69
671.057
671.467
671.889
672.291
672.693
673.135
673.519
673.844
674.169
674.538
674.829
674.985
675.111
675.224
610.814
610.8
611.077
611.412
611.791
612.172
612.591
613.024
613.449
613.897
614.432
615.09
615.418
615.544
615.808
616.092
616.326
616.457
616.588
552
552.075
552.245
552.544
552.912
553.299
553.728
554.174
554.617
555.097
555.665
556.47
556.899
556.956
557.101
557.369
557.644
557.775
557.891
493.411
493.403
493.456
493.696
494.044
494.434
494.873
495.335
495.796
496.31
496.895
497.666
498.185
498.266
498.412
498.623
498.876
499.047
499.162
434.86
434.761
434.668
434.846
435.173
435.564
436.016
436.497
436.961
437.496
438.11
438.817
439.33
439.509
439.77
440.061
440.226
440.28
440.457
376.158
375.998
375.833
375.975
376.292
376.684
377.157
377.678
378.134
378.647
379.303
379.987
380.5
380.755
381.224
381.695
381.798
381.601
381.786
317.256
317.045
316.918
317.079
317.402
317.796
318.3
318.906
319.498
319.931
320.503
321.174
321.688
322.082
322.817
323.18
323.39
323.055
323.15
233.095
233.064
232.958
232.769
232.503
232.17
231.768
231.292
230.734
230.122
229.476
228.812
228.163
227.544
226.985
226.541
226.285
225.965
225.544
225.128
224.784
224.43
224.048
108.693
108.679
108.59
108.381
108.064
107.69
107.266
106.789
106.273
105.732
105.172
104.593
103.998
103.394
102.799
102.258
101.85
101.619
101.379
101.007
100.594
100.296
100.19
23.1081
23.1092
23.0583
22.9529
22.7962
22.5919
22.3514
22.1036
21.8818
21.6611
21.4345
21.1939
20.915
20.6098
20.2903
19.9802
19.7296
19.5524
19.398
19.2425
19.1053
19.0379
19.0492
-0.785881
-0.784904
-0.801179
-0.779974
-0.717171
-0.70433
-0.700088
-0.690482
-0.675879
-0.672695
-0.6719
-0.674504
-0.680474
-0.67857
-0.668597
-0.660893
-0.677297
-0.734163
-0.794619
-0.795497
-0.778218
-0.775757
-0.798709
-0.967995
-0.967735
-0.968604
-0.963686
-0.9512
-0.944251
-0.942527
-0.937657
-0.931648
-0.929156
-0.928265
-0.928808
-0.931831
-0.93426
-0.936257
-0.940409
-0.948483
-0.957979
-0.966752
-0.97015
-0.968624
-0.968852
-0.974866
-1.1493
-1.14938
-1.14915
-1.15179
-1.16155
-1.16242
-1.16192
-1.16139
-1.16203
-1.16118
-1.15961
-1.15704
-1.15433
-1.15267
-1.15185
-1.15159
-1.14998
-1.14508
-1.13798
-1.1375
-1.13753
-1.13561
-1.13248
-1.28833
-1.28851
-1.28779
-1.28823
-1.28797
-1.28761
-1.2873
-1.28732
-1.28671
-1.28583
-1.28469
-1.28321
-1.28159
-1.28064
-1.2803
-1.27976
-1.2791
-1.27895
-1.27829
-1.27727
-1.2769
-1.27609
-1.27308
-1.41388
-1.41398
-1.41389
-1.41381
-1.41313
-1.41265
-1.4123
-1.41206
-1.41162
-1.41103
-1.41054
-1.41033
-1.4098
-1.40903
-1.40806
-1.40662
-1.40555
-1.40492
-1.40422
-1.40356
-1.40324
-1.4031
-1.40222
-1.53813
-1.53822
-1.53817
-1.53806
-1.53782
-1.53754
-1.53725
-1.53699
-1.53661
-1.53619
-1.5359
-1.53581
-1.53548
-1.53469
-1.5337
-1.53266
-1.53158
-1.53085
-1.53021
-1.52966
-1.52929
-1.5289
-1.52802
-1.66292
-1.66299
-1.66296
-1.66289
-1.66274
-1.66251
-1.66228
-1.66201
-1.66169
-1.66135
-1.66104
-1.66074
-1.66031
-1.65964
-1.65892
-1.65822
-1.65737
-1.65669
-1.65614
-1.65569
-1.65537
-1.65507
-1.65453
-1.78775
-1.78781
-1.78778
-1.78773
-1.78764
-1.78749
-1.78728
-1.78704
-1.78676
-1.78649
-1.78615
-1.78579
-1.78535
-1.78472
-1.78407
-1.78348
-1.78292
-1.78242
-1.78199
-1.78166
-1.78146
-1.78142
-1.78157
-1.91264
-1.91267
-1.91266
-1.91261
-1.91254
-1.91242
-1.91224
-1.91203
-1.91183
-1.91159
-1.91126
-1.91092
-1.91053
-1.91003
-1.90946
-1.9089
-1.90843
-1.90808
-1.90777
-1.90754
-1.90744
-1.90755
-1.90802
-2.03756
-2.03759
-2.03757
-2.03753
-2.03746
-2.03735
-2.03719
-2.03704
-2.0369
-2.03667
-2.03638
-2.03609
-2.0358
-2.0355
-2.03506
-2.03453
-2.03405
-2.03375
-2.03348
-2.03329
-2.03323
-2.03334
-2.03365
-2.16253
-2.16254
-2.16253
-2.1625
-2.16243
-2.16234
-2.1622
-2.16209
-2.16197
-2.16176
-2.16151
-2.16127
-2.16104
-2.16086
-2.16061
-2.16022
-2.15978
-2.1594
-2.15912
-2.15895
-2.15888
-2.15894
-2.15912
-2.28752
-2.28753
-2.28752
-2.28749
-2.28744
-2.28737
-2.28727
-2.28718
-2.28706
-2.28686
-2.28665
-2.28644
-2.28624
-2.28607
-2.28592
-2.28569
-2.28534
-2.28494
-2.28467
-2.28451
-2.28444
-2.28445
-2.28454
-2.41254
-2.41254
-2.41253
-2.41251
-2.41247
-2.41242
-2.41237
-2.41229
-2.41215
-2.41197
-2.41179
-2.41161
-2.41143
-2.41126
-2.4111
-2.4109
-2.41064
-2.41036
-2.41014
-2.40999
-2.40991
-2.4099
-2.40994
-2.53757
-2.53757
-2.53756
-2.53754
-2.53751
-2.53748
-2.53745
-2.53737
-2.53723
-2.53708
-2.53693
-2.53677
-2.53661
-2.53645
-2.53629
-2.53612
-2.53591
-2.5357
-2.53553
-2.53541
-2.53534
-2.53531
-2.53532
-2.66262
-2.66262
-2.66261
-2.66259
-2.66257
-2.66254
-2.6625
-2.66243
-2.66232
-2.6622
-2.66206
-2.66193
-2.66179
-2.66165
-2.6615
-2.66135
-2.66119
-2.66102
-2.66089
-2.66078
-2.66072
-2.66068
-2.66068
-2.78768
-2.78768
-2.78768
-2.78767
-2.78765
-2.78762
-2.78757
-2.78751
-2.78742
-2.78732
-2.78721
-2.78709
-2.78697
-2.78684
-2.78671
-2.78658
-2.78645
-2.78632
-2.78621
-2.78612
-2.78606
-2.78603
-2.78601
-2.91277
-2.91277
-2.91277
-2.91276
-2.91274
-2.91271
-2.91267
-2.91261
-2.91254
-2.91245
-2.91236
-2.91225
-2.91215
-2.91204
-2.91193
-2.91182
-2.91171
-2.9116
-2.91151
-2.91144
-2.91138
-2.91135
-2.91133
-3.03788
-3.03789
-3.03787
-3.03786
-3.03784
-3.03781
-3.03778
-3.03773
-3.03766
-3.03759
-3.03751
-3.03742
-3.03733
-3.03724
-3.03714
-3.03705
-3.03695
-3.03687
-3.03679
-3.03673
-3.03668
-3.03665
-3.03663
-3.163
-3.163
-3.16299
-3.16298
-3.16296
-3.16293
-3.1629
-3.16285
-3.1628
-3.16274
-3.16267
-3.16259
-3.16251
-3.16243
-3.16235
-3.16227
-3.16219
-3.16212
-3.16206
-3.162
-3.16196
-3.16193
-3.16192
-3.28812
-3.28812
-3.28812
-3.28811
-3.28809
-3.28806
-3.28803
-3.28799
-3.28794
-3.28789
-3.28783
-3.28776
-3.2877
-3.28763
-3.28756
-3.28749
-3.28742
-3.28736
-3.28731
-3.28727
-3.28723
-3.28721
-3.28719
-3.41325
-3.41326
-3.41325
-3.41324
-3.41322
-3.4132
-3.41317
-3.41314
-3.41309
-3.41305
-3.41299
-3.41294
-3.41288
-3.41282
-3.41276
-3.4127
-3.41265
-3.4126
-3.41255
-3.41252
-3.41249
-3.41247
-3.41245
-3.53839
-3.53842
-3.5384
-3.53839
-3.53837
-3.53835
-3.53832
-3.53829
-3.53825
-3.53821
-3.53816
-3.53812
-3.53807
-3.53801
-3.53796
-3.53792
-3.53787
-3.53783
-3.53779
-3.53776
-3.53773
-3.53772
-3.53771
-3.66356
-3.66357
-3.66355
-3.66354
-3.66352
-3.6635
-3.66347
-3.66344
-3.66341
-3.66337
-3.66333
-3.66329
-3.66325
-3.66321
-3.66316
-3.66312
-3.66308
-3.66305
-3.66302
-3.66299
-3.66297
-3.66296
-3.66295
-3.78874
-3.78872
-3.78871
-3.78869
-3.78867
-3.78865
-3.78863
-3.7886
-3.78857
-3.78854
-3.78851
-3.78847
-3.78844
-3.7884
-3.78836
-3.78833
-3.7883
-3.78827
-3.78824
-3.78822
-3.7882
-3.78819
-3.78819
-3.9139
-3.91389
-3.91387
-3.91385
-3.91383
-3.91381
-3.91379
-3.91376
-3.91374
-3.91371
-3.91368
-3.91365
-3.91362
-3.91359
-3.91356
-3.91353
-3.9135
-3.91348
-3.91346
-3.91344
-3.91343
-3.91342
-3.91342
-4.03905
-4.03905
-4.03903
-4.03901
-4.03899
-4.03897
-4.03895
-4.03893
-4.03891
-4.03889
-4.03886
-4.03884
-4.03881
-4.03878
-4.03876
-4.03873
-4.03871
-4.03869
-4.03867
-4.03866
-4.03865
-4.03864
-4.03864
-4.16419
-4.16422
-4.16419
-4.16417
-4.16415
-4.16413
-4.16411
-4.1641
-4.16408
-4.16406
-4.16404
-4.16402
-4.164
-4.16398
-4.16395
-4.16393
-4.16391
-4.1639
-4.16388
-4.16387
-4.16387
-4.16386
-4.16386
-4.28935
-4.28937
-4.28934
-4.28932
-4.2893
-4.28929
-4.28928
-4.28926
-4.28925
-4.28924
-4.28922
-4.2892
-4.28919
-4.28917
-4.28915
-4.28913
-4.28912
-4.2891
-4.28909
-4.28908
-4.28908
-4.28908
-4.28908
-4.41453
-4.41452
-4.41449
-4.41447
-4.41446
-4.41445
-4.41444
-4.41444
-4.41443
-4.41442
-4.4144
-4.41439
-4.41438
-4.41436
-4.41435
-4.41433
-4.41432
-4.41431
-4.4143
-4.41429
-4.41429
-4.41429
-4.4143
-4.53972
-4.53967
-4.53964
-4.53962
-4.53961
-4.53961
-4.53961
-4.53961
-4.5396
-4.5396
-4.53959
-4.53958
-4.53957
-4.53955
-4.53954
-4.53953
-4.53952
-4.53951
-4.5395
-4.5395
-4.5395
-4.5395
-4.53951
-4.6649
-4.66483
-4.66479
-4.66477
-4.66476
-4.66477
-4.66478
-4.66478
-4.66478
-4.66478
-4.66478
-4.66477
-4.66476
-4.66475
-4.66474
-4.66473
-4.66472
-4.66471
-4.66471
-4.66471
-4.66471
-4.66471
-4.66472
-4.79005
-4.78999
-4.78995
-4.78992
-4.78992
-4.78994
-4.78996
-4.78997
-4.78997
-4.78997
-4.78997
-4.78996
-4.78995
-4.78994
-4.78994
-4.78993
-4.78992
-4.78992
-4.78991
-4.78991
-4.78991
-4.78992
-4.78993
-4.91519
-4.91516
-4.91511
-4.9151
-4.9151
-4.91513
-4.91515
-4.91516
-4.91516
-4.91516
-4.91516
-4.91515
-4.91515
-4.91514
-4.91514
-4.91513
-4.91512
-4.91512
-4.91512
-4.91512
-4.91512
-4.91513
-4.91514
-5.04035
-5.04029
-5.04029
-5.0403
-5.04032
-5.04034
-5.04035
-5.04035
-5.04036
-5.04036
-5.04036
-5.04035
-5.04035
-5.04034
-5.04034
-5.04033
-5.04033
-5.04032
-5.04032
-5.04032
-5.04032
-5.04033
-5.04034
-5.16548
-5.16542
-5.16547
-5.16551
-5.16554
-5.16555
-5.16555
-5.16556
-5.16556
-5.16556
-5.16556
-5.16555
-5.16555
-5.16554
-5.16554
-5.16553
-5.16553
-5.16553
-5.16552
-5.16552
-5.16553
-5.16553
-5.16555
-5.29052
-5.29054
-5.29063
-5.29071
-5.29075
-5.29076
-5.29076
-5.29076
-5.29076
-5.29076
-5.29076
-5.29076
-5.29075
-5.29075
-5.29074
-5.29074
-5.29074
-5.29073
-5.29073
-5.29073
-5.29073
-5.29074
-5.29075
-5.41559
-5.41567
-5.4158
-5.41589
-5.41594
-5.41596
-5.41597
-5.41597
-5.41596
-5.41596
-5.41596
-5.41596
-5.41595
-5.41595
-5.41595
-5.41595
-5.41594
-5.41594
-5.41594
-5.41593
-5.41593
-5.41593
-5.41595
-5.54067
-5.54087
-5.54101
-5.5411
-5.54114
-5.54116
-5.54116
-5.54116
-5.54115
-5.54115
-5.54115
-5.54115
-5.54115
-5.54114
-5.54114
-5.54114
-5.54114
-5.54114
-5.54113
-5.54113
-5.54112
-5.54112
-5.54114
-5.66594
-5.66641
-5.66634
-5.66635
-5.66636
-5.66636
-5.66635
-5.66635
-5.66635
-5.66635
-5.66635
-5.66634
-5.66634
-5.66634
-5.66634
-5.66634
-5.66634
-5.66634
-5.66634
-5.66634
-5.66633
-5.6663
-5.66632
223.908
223.891
223.926
223.951
100.112
100.08
100.085
100.152
19.0187
19.0096
19.0178
19.0528
-0.791251
-0.773508
-0.764345
-0.770506
-0.972983
-0.97101
-0.968167
-0.968853
-1.13211
-1.13351
-1.13327
-1.13277
-1.27316
-1.2747
-1.27622
-1.27615
-1.40143
-1.40129
-1.4015
-1.40149
-1.52757
-1.52735
-1.52733
-1.52723
-1.6543
-1.65421
-1.65407
-1.6539
-1.78154
-1.78143
-1.78132
-1.78123
-1.90828
-1.90836
-1.90838
-1.90837
-2.034
-2.03423
-2.03437
-2.0344
-2.1593
-2.1594
-2.15947
-2.1595
-2.28463
-2.28468
-2.28471
-2.28473
-2.40998
-2.41001
-2.41003
-2.41004
-2.53534
-2.53535
-2.53536
-2.53538
-2.66068
-2.66069
-2.6607
-2.6607
-2.78601
-2.78601
-2.78602
-2.78602
-2.91133
-2.91133
-2.91133
-2.91133
-3.03663
-3.03663
-3.03663
-3.03663
-3.16191
-3.16191
-3.16191
-3.16191
-3.28719
-3.28719
-3.28719
-3.28719
-3.41245
-3.41245
-3.41245
-3.41245
-3.5377
-3.5377
-3.53771
-3.53771
-3.66295
-3.66295
-3.66295
-3.66296
-3.78819
-3.78819
-3.78819
-3.7882
-3.91342
-3.91342
-3.91343
-3.91343
-4.03865
-4.03865
-4.03865
-4.03866
-4.16387
-4.16387
-4.16388
-4.16388
-4.28909
-4.28909
-4.2891
-4.28911
-4.4143
-4.41431
-4.41432
-4.41432
-4.53952
-4.53952
-4.53953
-4.53954
-4.66473
-4.66474
-4.66474
-4.66475
-4.78994
-4.78995
-4.78996
-4.78996
-4.91515
-4.91516
-4.91516
-4.91517
-5.04036
-5.04036
-5.04037
-5.04038
-5.16556
-5.16557
-5.16558
-5.16559
-5.29077
-5.29078
-5.29079
-5.2908
-5.41598
-5.41599
-5.416
-5.41601
-5.54119
-5.54121
-5.54122
-5.54123
-5.66639
-5.66641
-5.66643
-5.66643
224.734
224.596
224.722
224.967
225.357
225.862
226.445
227.171
228.073
228.842
229.428
229.981
230.489
230.919
231.347
231.594
231.793
231.53
231.549
100.544
100.599
100.888
101.292
101.804
102.404
103.007
103.641
104.434
105.213
105.802
106.334
106.828
107.177
107.327
107.534
107.774
107.77
107.827
19.168
19.2861
19.502
19.7657
20.0538
20.3539
20.6487
20.9023
21.1308
21.4121
21.6641
21.9333
22.1857
22.3617
22.4386
22.5638
22.7181
22.8272
22.8909
-0.799823
-0.745177
-0.729823
-0.733676
-0.744118
-0.758694
-0.771722
-0.780188
-0.785499
-0.792794
-0.806232
-0.831298
-0.854936
-0.832247
-0.817623
-0.813678
-0.812558
-0.81102
-0.81936
-0.971558
-0.966228
-0.963181
-0.963932
-0.965376
-0.966594
-0.968116
-0.96997
-0.972153
-0.97494
-0.980169
-0.986696
-0.989766
-0.986708
-0.98452
-0.982738
-0.982085
-0.982538
-0.983379
-1.13161
-1.14104
-1.14047
-1.14138
-1.14226
-1.14341
-1.14477
-1.14639
-1.14808
-1.14904
-1.14866
-1.14758
-1.14699
-1.1494
-1.15115
-1.15128
-1.15111
-1.15075
-1.14993
-1.27362
-1.27566
-1.276
-1.27564
-1.27461
-1.27432
-1.27481
-1.2754
-1.27548
-1.27549
-1.27558
-1.27555
-1.27648
-1.28006
-1.28275
-1.28431
-1.28496
-1.28494
-1.28478
-1.40103
-1.40177
-1.40209
-1.40186
-1.40153
-1.40178
-1.4024
-1.40277
-1.40333
-1.40415
-1.4046
-1.40488
-1.40579
-1.40762
-1.40869
-1.40949
-1.40992
-1.41001
-1.40993
-1.52709
-1.52789
-1.52851
-1.52902
-1.52971
-1.53059
-1.53125
-1.53137
-1.53209
-1.53306
-1.53363
-1.53397
-1.53427
-1.53445
-1.53436
-1.53464
-1.53489
-1.53497
-1.53483
-1.65372
-1.65414
-1.65504
-1.65611
-1.65733
-1.65803
-1.65826
-1.6586
-1.65894
-1.65923
-1.65982
-1.66021
-1.66021
-1.65977
-1.65962
-1.65972
-1.65985
-1.65994
-1.6599
-1.78108
-1.78102
-1.78148
-1.78223
-1.7831
-1.78353
-1.78367
-1.78392
-1.78421
-1.7845
-1.78482
-1.78495
-1.78499
-1.78487
-1.78473
-1.78474
-1.78481
-1.7849
-1.785
-1.90831
-1.90802
-1.90774
-1.90801
-1.90851
-1.90883
-1.90905
-1.90929
-1.90953
-1.90978
-1.91006
-1.91025
-1.91023
-1.91
-1.90981
-1.90976
-1.90977
-1.90986
-1.91011
-2.03431
-2.03393
-2.03359
-2.03367
-2.03394
-2.0342
-2.03441
-2.03463
-2.03485
-2.03509
-2.03537
-2.03569
-2.03567
-2.03536
-2.03504
-2.03484
-2.03476
-2.03484
-2.0352
-2.15949
-2.1593
-2.15915
-2.1592
-2.15937
-2.15956
-2.15975
-2.15995
-2.16016
-2.16039
-2.16064
-2.16095
-2.16111
-2.16093
-2.1605
-2.16003
-2.15992
-2.16001
-2.16035
-2.28475
-2.28466
-2.2846
-2.28464
-2.28477
-2.28493
-2.28509
-2.28527
-2.28547
-2.28568
-2.2859
-2.28614
-2.28635
-2.28635
-2.28607
-2.28572
-2.28568
-2.28584
-2.28615
-2.41006
-2.41003
-2.41001
-2.41005
-2.41015
-2.41028
-2.41043
-2.41059
-2.41076
-2.41095
-2.41116
-2.41136
-2.41153
-2.41161
-2.41165
-2.41182
-2.41191
-2.41203
-2.41231
-2.5354
-2.53539
-2.53539
-2.53543
-2.53552
-2.53563
-2.53575
-2.5359
-2.53606
-2.53623
-2.53641
-2.5366
-2.53677
-2.53692
-2.5371
-2.53743
-2.53759
-2.53758
-2.53773
-2.66072
-2.66073
-2.66075
-2.6608
-2.66086
-2.66096
-2.66107
-2.6612
-2.66134
-2.6615
-2.66167
-2.66184
-2.662
-2.66217
-2.66235
-2.66257
-2.6627
-2.66268
-2.6628
-2.78604
-2.78606
-2.78608
-2.78613
-2.78619
-2.78627
-2.78637
-2.78649
-2.78662
-2.78676
-2.78692
-2.78707
-2.78723
-2.78739
-2.78755
-2.78771
-2.78779
-2.7878
-2.78786
-2.91134
-2.91136
-2.91139
-2.91143
-2.91149
-2.91157
-2.91167
-2.91177
-2.91189
-2.91202
-2.91216
-2.9123
-2.91245
-2.91259
-2.91273
-2.91286
-2.91293
-2.91294
-2.91293
-3.03664
-3.03666
-3.03669
-3.03673
-3.03679
-3.03686
-3.03694
-3.03704
-3.03715
-3.03727
-3.0374
-3.03753
-3.03767
-3.0378
-3.03792
-3.03803
-3.0381
-3.03813
-3.03809
-3.16192
-3.16194
-3.16197
-3.16201
-3.16207
-3.16213
-3.16221
-3.1623
-3.16241
-3.16251
-3.16263
-3.16275
-3.16288
-3.163
-3.16312
-3.16322
-3.16329
-3.16333
-3.16329
-3.2872
-3.28722
-3.28725
-3.28729
-3.28734
-3.2874
-3.28747
-3.28756
-3.28765
-3.28775
-3.28786
-3.28797
-3.28809
-3.2882
-3.28831
-3.2884
-3.28848
-3.28852
-3.28849
-3.41246
-3.41248
-3.41251
-3.41255
-3.4126
-3.41266
-3.41273
-3.41281
-3.41289
-3.41299
-3.41308
-3.41319
-3.41329
-3.41339
-3.41349
-3.41358
-3.41366
-3.41371
-3.41369
-3.53772
-3.53774
-3.53777
-3.5378
-3.53785
-3.53791
-3.53797
-3.53805
-3.53813
-3.53821
-3.5383
-3.5384
-3.53849
-3.53858
-3.53867
-3.53875
-3.53881
-3.53885
-3.53883
-3.66296
-3.66299
-3.66301
-3.66305
-3.6631
-3.66315
-3.66321
-3.66328
-3.66336
-3.66344
-3.66352
-3.6636
-3.66369
-3.66377
-3.66384
-3.66389
-3.66393
-3.66393
-3.66387
-3.78821
-3.78823
-3.78826
-3.78829
-3.78834
-3.78839
-3.78845
-3.78851
-3.78858
-3.78866
-3.78873
-3.78881
-3.78888
-3.78895
-3.78901
-3.78904
-3.78904
-3.789
-3.7889
-3.91344
-3.91346
-3.91349
-3.91353
-3.91357
-3.91362
-3.91368
-3.91374
-3.9138
-3.91387
-3.91394
-3.91401
-3.91408
-3.91414
-3.91418
-3.91419
-3.91416
-3.9141
-3.91396
-4.03867
-4.03869
-4.03872
-4.03876
-4.0388
-4.03885
-4.0389
-4.03896
-4.03902
-4.03909
-4.03915
-4.03922
-4.03928
-4.03933
-4.03937
-4.03937
-4.03934
-4.03927
-4.03913
-4.1639
-4.16392
-4.16395
-4.16398
-4.16402
-4.16407
-4.16412
-4.16418
-4.16424
-4.1643
-4.16436
-4.16443
-4.16449
-4.16453
-4.16457
-4.16458
-4.16455
-4.16449
-4.16437
-4.28912
-4.28914
-4.28917
-4.28921
-4.28924
-4.28929
-4.28934
-4.28939
-4.28945
-4.28951
-4.28957
-4.28963
-4.28969
-4.28974
-4.28978
-4.28979
-4.28978
-4.28972
-4.2896
-4.41434
-4.41436
-4.41439
-4.41442
-4.41446
-4.4145
-4.41455
-4.4146
-4.41466
-4.41472
-4.41478
-4.41484
-4.4149
-4.41495
-4.41499
-4.41502
-4.41501
-4.41496
-4.41483
-4.53955
-4.53958
-4.53961
-4.53964
-4.53968
-4.53972
-4.53976
-4.53981
-4.53986
-4.53992
-4.53998
-4.54004
-4.54011
-4.54016
-4.54021
-4.54025
-4.54026
-4.5402
-4.54005
-4.66477
-4.66479
-4.66482
-4.66485
-4.66489
-4.66493
-4.66497
-4.66502
-4.66507
-4.66512
-4.66518
-4.66525
-4.66531
-4.66538
-4.66543
-4.66548
-4.6655
-4.66545
-4.6653
-4.78998
-4.79
-4.79003
-4.79006
-4.79009
-4.79013
-4.79017
-4.79022
-4.79027
-4.79032
-4.79038
-4.79044
-4.79051
-4.79058
-4.79065
-4.79071
-4.79074
-4.79068
-4.79053
-4.91519
-4.91521
-4.91524
-4.91527
-4.9153
-4.91533
-4.91537
-4.91541
-4.91546
-4.91551
-4.91557
-4.91563
-4.91571
-4.91578
-4.91586
-4.91593
-4.91595
-4.91587
-4.91567
-5.0404
-5.04042
-5.04045
-5.04047
-5.0405
-5.04053
-5.04057
-5.0406
-5.04065
-5.04069
-5.04075
-5.04082
-5.04089
-5.04098
-5.04106
-5.04114
-5.04117
-5.04106
-5.04081
-5.16561
-5.16563
-5.16565
-5.16568
-5.1657
-5.16573
-5.16576
-5.16579
-5.16583
-5.16587
-5.16592
-5.16599
-5.16607
-5.16616
-5.16626
-5.16637
-5.16643
-5.16631
-5.16604
-5.29082
-5.29084
-5.29086
-5.29088
-5.2909
-5.29092
-5.29094
-5.29097
-5.291
-5.29104
-5.29109
-5.29115
-5.29122
-5.29132
-5.29144
-5.2916
-5.29173
-5.29164
-5.29136
-5.41603
-5.41604
-5.41606
-5.41607
-5.41609
-5.4161
-5.41612
-5.41614
-5.41617
-5.4162
-5.41624
-5.41629
-5.41635
-5.41645
-5.41659
-5.4168
-5.41707
-5.41704
-5.41682
-5.54123
-5.54125
-5.54125
-5.54126
-5.54127
-5.54129
-5.5413
-5.54131
-5.54133
-5.54135
-5.54137
-5.54141
-5.54145
-5.54153
-5.54165
-5.54191
-5.54239
-5.54255
-5.54253
-5.66644
-5.66645
-5.66645
-5.66646
-5.66646
-5.66647
-5.66648
-5.66648
-5.66649
-5.6665
-5.66651
-5.66653
-5.66655
-5.66658
-5.66665
-5.66684
-5.66737
-5.66794
-5.66845
)
;

boundaryField
{
    leftWall
    {
        type            calculated;
        value           nonuniform List<scalar> 
50
(
736.656
677.802
618.959
560.129
501.313
442.512
383.727
324.957
233.095
108.693
23.1081
-0.785881
-0.967995
-1.1493
-1.28833
-1.41388
-1.53813
-1.66292
-1.78775
-1.91264
-2.03756
-2.16253
-2.28752
-2.41254
-2.53757
-2.66262
-2.78768
-2.91277
-3.03788
-3.163
-3.28812
-3.41325
-3.53839
-3.66356
-3.78874
-3.9139
-4.03905
-4.16419
-4.28935
-4.41453
-4.53972
-4.6649
-4.79005
-4.91519
-5.04035
-5.16548
-5.29052
-5.41559
-5.54067
-5.66594
)
;
    }
    rightWall
    {
        type            calculated;
        value           nonuniform List<scalar> 
50
(
733.99
675.224
616.588
557.891
499.162
440.457
381.786
323.15
231.549
107.827
22.8909
-0.81936
-0.983379
-1.14993
-1.28478
-1.40993
-1.53483
-1.6599
-1.785
-1.91011
-2.0352
-2.16035
-2.28615
-2.41231
-2.53773
-2.6628
-2.78786
-2.91293
-3.03809
-3.16329
-3.28849
-3.41369
-3.53883
-3.66387
-3.7889
-3.91396
-4.03913
-4.16437
-4.2896
-4.41483
-4.54005
-4.6653
-4.79053
-4.91567
-5.04081
-5.16604
-5.29136
-5.41682
-5.54253
-5.66845
)
;
    }
    lowerWall
    {
        type            calculated;
        value           nonuniform List<scalar> 
62
(
766.086
766.055
765.96
765.792
765.553
765.244
764.868
764.431
763.94
763.404
762.836
762.245
761.642
761.035
760.434
759.854
759.315
758.847
758.422
758.064
757.997
757.894
757.876
728.449
669.572
610.689
551.803
492.923
434.044
375.149
316.25
286.506
286.488
286.523
286.548
728.579
669.728
610.814
552
493.411
434.86
376.158
317.256
758.003
757.965
758.325
758.665
759.023
759.38
759.659
759.974
760.346
760.714
760.92
761.098
761.675
762.303
762.697
762.981
763.128
763.252
763.381
)
;
    }
    atmosphere
    {
        type            calculated;
        value           nonuniform List<scalar> 
46
(
-5.72909
-5.72904
-5.72904
-5.72904
-5.72904
-5.72904
-5.72904
-5.72904
-5.72904
-5.72904
-5.72904
-5.72904
-5.72904
-5.72904
-5.72904
-5.72904
-5.72904
-5.72904
-5.72904
-5.72904
-5.72904
-5.72904
-5.72904
-5.72904
-5.72904
-5.72904
-5.72904
-5.72904
-5.72905
-5.72905
-5.72905
-5.72906
-5.72906
-5.72907
-5.72907
-5.72908
-5.72908
-5.72909
-5.72909
-5.7291
-5.7291
-5.7291
-5.7291
-5.72909
-5.72907
-5.73226
)
;
    }
    defaultFaces
    {
        type            empty;
    }
}


// ************************************************************************* //
