/*--------------------------------*- C++ -*----------------------------------*\
  =========                 |
  \\      /  F ield         | OpenFOAM: The Open Source CFD Toolbox
   \\    /   O peration     | Website:  https://openfoam.org
    \\  /    A nd           | Version:  9
     \\/     M anipulation  |
\*---------------------------------------------------------------------------*/
FoamFile
{
    format      ascii;
    class       volScalarField;
    location    "9.85";
    object      epsilon;
}
// * * * * * * * * * * * * * * * * * * * * * * * * * * * * * * * * * * * * * //

dimensions      [0 2 -3 0 0 0 0];

internalField   nonuniform List<scalar> 
2268
(
6.75341e-05
0.000387899
0.000701789
0.000989364
0.00124944
0.00148179
0.00168664
0.00186418
0.00201554
0.00214512
0.0022592
0.00236235
0.00245531
0.00252731
0.00255374
0.00249501
0.00233291
0.00212012
0.00181834
0.00147423
0.00113975
0.000659679
0.000185578
0.000143055
0.000254417
0.000381497
0.000501405
0.000610699
0.000708583
0.000795087
0.000870639
0.000936024
0.000992761
0.00104255
0.00108649
0.00112398
0.00115126
0.00116077
0.0011432
0.00109819
0.0010313
0.000934637
0.000804147
0.00064349
0.000448816
0.0003151
0.00024737
0.000266533
0.000347111
0.000428752
0.000504731
0.000573303
0.000634168
0.00068763
0.000734369
0.000775319
0.000811367
0.000842887
0.000869175
0.000887888
0.000895075
0.000886902
0.000863838
0.000825942
0.000769552
0.000693802
0.00060268
0.000506089
0.000542332
0.000350917
0.000299292
0.000354125
0.000416898
0.000477108
0.000532025
0.000581026
0.000624298
0.000662409
0.000696062
0.000725838
0.00075188
0.000773536
0.000789117
0.000796126
0.00079257
0.000778939
0.000754982
0.000719373
0.000674793
0.000629024
0.000603651
0.000805988
0.000451323
0.000339025
0.000375035
0.000425226
0.000475274
0.000521498
0.000562985
0.000599828
0.000632509
0.000661608
0.000687549
0.000710387
0.00072956
0.000743778
0.000751312
0.000751015
0.000743457
0.000729069
0.000708654
0.000687893
0.000680085
0.000724776
0.00112705
0.000549733
0.000382365
0.000402922
0.000443423
0.000485798
0.000525471
0.000561308
0.000593342
0.000621998
0.000647767
0.000670982
0.000691658
0.000709328
0.000722982
0.000731374
0.000733844
0.000731139
0.00072445
0.000716542
0.000715955
0.000743718
0.000869356
0.0015641
0.000648184
0.000428293
0.000435311
0.000467725
0.000503715
0.000537885
0.000568966
0.000596986
0.000622327
0.000645403
0.000666479
0.00068555
0.000702229
0.000715729
0.000725144
0.000730162
0.000731807
0.000731784
0.000734398
0.000750891
0.00081164
0.00103746
0.00231411
0.000749042
0.000476425
0.000471167
0.000496495
0.000526798
0.000555968
0.000582718
0.000607118
0.00062952
0.000650259
0.000669528
0.000687309
0.000703279
0.000716835
0.000727343
0.000734761
0.000740454
0.000746417
0.000757739
0.000787495
0.00087294
0.00119511
0.00408624
0.000333206
0.00110011
0.00188046
0.00224703
0.00240086
0.00246837
0.00244927
0.00236345
0.0022459
0.00213449
0.00188649
0.00150927
0.00130437
0.00130329
0.0011543
0.000862461
0.000538689
0.000288133
0.000104583
0.000406483
0.000640867
0.000889008
0.00101721
0.00107702
0.00110491
0.00110467
0.00108028
0.00103899
0.000986715
0.000905552
0.000805161
0.000712578
0.000642957
0.000562747
0.000447395
0.0003154
0.000203953
0.000163645
0.000587272
0.000612833
0.000741932
0.000810279
0.000843498
0.000858283
0.000856987
0.000840836
0.000812876
0.000773732
0.000717887
0.000654613
0.000589744
0.00053037
0.000468881
0.000391116
0.000303382
0.000237919
0.000266055
0.000732248
0.000655986
0.000716992
0.000749659
0.000765242
0.000770866
0.000766585
0.000752019
0.000728656
0.000695822
0.000650636
0.000601166
0.00054956
0.000498541
0.000446642
0.000386535
0.000321435
0.000284713
0.000375617
0.000877789
0.000735233
0.000735139
0.00073666
0.000736743
0.000734297
0.000726591
0.000711836
0.000690473
0.000661494
0.000623122
0.000581612
0.00053791
0.000492846
0.000446969
0.000397987
0.000348672
0.000332988
0.000492009
0.00111799
0.000849639
0.000774888
0.000745054
0.000730667
0.000720833
0.000709709
0.000694203
0.000673865
0.000647613
0.00061429
0.000578203
0.000539608
0.000499125
0.000457848
0.000416832
0.000379665
0.000381452
0.000620177
0.0016297
0.00099847
0.000823831
0.000763455
0.000736183
0.00071983
0.000705589
0.00068926
0.000669631
0.000645576
0.000616213
0.000584093
0.000549063
0.000512153
0.000474906
0.00044023
0.000412796
0.000431508
0.000768846
0.00319546
0.00115078
0.000868933
0.000785214
0.000747857
0.000726164
0.000709323
0.00069235
0.000673451
0.000651366
0.000625205
0.00059613
0.000563819
0.000529672
0.000495926
0.000466295
0.000446978
0.000480491
0.000914569
0.000905829
0.000554754
0.000532036
0.000547278
0.000569202
0.000590813
0.000611021
0.000630039
0.000648149
0.000665548
0.000682303
0.000698348
0.000713446
0.000727232
0.000739442
0.000750388
0.000761811
0.000776236
0.000798569
0.000841814
0.00093748
0.001174
0.00186768
0.00115076
0.000674014
0.000627963
0.000630318
0.000640658
0.000651338
0.000662337
0.000674095
0.000686647
0.00069993
0.000713817
0.000728081
0.000742481
0.000756848
0.000771307
0.000786434
0.000803723
0.000825574
0.000855313
0.00090108
0.000980515
0.00112539
0.00138598
0.00159594
0.000816488
0.000739274
0.000724811
0.000720371
0.000717837
0.000718916
0.000723203
0.000730425
0.000740159
0.000752049
0.000765664
0.000780409
0.000796013
0.000812953
0.000832136
0.000854561
0.00088073
0.000911418
0.000952279
0.00101216
0.00110079
0.00122001
0.00264215
0.000996797
0.000880627
0.000821163
0.000797814
0.000780022
0.00077223
0.00076948
0.000772876
0.000780738
0.000792435
0.000807555
0.000824726
0.000842833
0.000862944
0.00088702
0.000915848
0.00094528
0.000971426
0.00100403
0.00104887
0.00110583
0.00117814
0.00272726
0.00116045
0.000979098
0.000873145
0.000846198
0.000822017
0.000805025
0.000802445
0.000808327
0.00081666
0.000829414
0.000846934
0.000865865
0.000884291
0.000903561
0.000924721
0.000948929
0.000973909
0.00100761
0.00104575
0.00107718
0.00112117
0.0011945
0.00104998
0.00114243
0.00098517
0.000893281
0.000880093
0.000851026
0.000826351
0.000821183
0.000827715
0.000838794
0.000854242
0.000874244
0.000893843
0.00091213
0.000930416
0.000952654
0.000982752
0.00100704
0.0010359
0.00107967
0.00111091
0.00113165
0.00117426
0.00144014
0.001041
0.000942773
0.000884922
0.000862114
0.000840733
0.00083037
0.000831398
0.000839773
0.000853169
0.000871458
0.000892505
0.000912679
0.00093224
0.000951885
0.000974505
0.00100225
0.00102591
0.00104839
0.00108056
0.00111165
0.00113254
0.00116582
0.00152381
0.00103074
0.00090812
0.000863367
0.000842073
0.000832819
0.00083219
0.000838537
0.000849906
0.000866149
0.00088666
0.000908922
0.000929805
0.00095006
0.000970337
0.000991583
0.00101512
0.00103842
0.00106097
0.00108724
0.0011135
0.00113255
0.00115275
0.00156902
0.00103559
0.000896435
0.00084955
0.00083205
0.000828929
0.00083429
0.000845426
0.00086063
0.00087979
0.00090255
0.000926608
0.000948749
0.000969425
0.000989892
0.0010106
0.00103198
0.00105361
0.00107499
0.00109759
0.00112003
0.00113859
0.00115413
0.00159754
0.0010438
0.000894685
0.000844838
0.000829283
0.000829659
0.000838957
0.000853896
0.000872557
0.000894471
0.000919194
0.000944867
0.000968846
0.000991103
0.00101296
0.00103459
0.00105571
0.00107646
0.00109694
0.00111761
0.00113791
0.00115609
0.00117084
0.00161913
0.00105358
0.000898364
0.000846482
0.000831995
0.000834698
0.000846822
0.000864732
0.000886339
0.000910781
0.000937359
0.000964714
0.000991007
0.0010158
0.00103998
0.00106354
0.00108591
0.00110717
0.00112781
0.00114816
0.00116805
0.00118665
0.00120241
0.00163926
0.00106521
0.000905817
0.000852572
0.000838786
0.000843263
0.000857651
0.000878072
0.000902324
0.000929166
0.000957728
0.0009871
0.00101609
0.00104404
0.00107112
0.00109728
0.00112194
0.00114508
0.00116733
0.00118907
0.00121025
0.00123036
0.0012482
0.0016597
0.00107843
0.000916021
0.000861919
0.00084874
0.000854742
0.000871153
0.000893888
0.000920639
0.000949894
0.000980799
0.00101264
0.00104469
0.00107624
0.00110682
0.00113624
0.0011641
0.00119036
0.00121561
0.00124024
0.00126419
0.00128705
0.00130784
0.00168061
0.00109297
0.00092841
0.000873901
0.000861429
0.000868913
0.000887292
0.000912296
0.00094153
0.000973404
0.00100711
0.00104203
0.00107754
0.00111305
0.00114781
0.00118137
0.00121343
0.00124399
0.00127354
0.00130238
0.00133041
0.00135723
0.00138196
0.0017017
0.00110865
0.000942807
0.00088836
0.000876772
0.000885811
0.000906234
0.0009336
0.000965482
0.00100036
0.00103741
0.00107603
0.00111565
0.00115562
0.00119526
0.00123395
0.00127134
0.00130743
0.00134259
0.00137695
0.00141037
0.0014424
0.00147221
0.00172247
0.00112558
0.000959376
0.000905416
0.000894909
0.000905617
0.000928239
0.000958206
0.000993095
0.00103149
0.00107254
0.0011156
0.00116007
0.00120533
0.00125071
0.00129557
0.00133949
0.00138245
0.00142459
0.0014659
0.00150615
0.00154479
0.00158103
0.00174179
0.0011442
0.000978607
0.000925402
0.000916095
0.000928591
0.000953621
0.000986563
0.001025
0.00106757
0.00111337
0.0011617
0.00121196
0.00126352
0.00131573
0.00136798
0.00141983
0.00147111
0.00152175
0.00157157
0.00162023
0.00166709
0.0017113
0.00175745
0.00116581
0.00100144
0.000948809
0.00094065
0.000955058
0.000982779
0.00101918
0.00106184
0.00110934
0.00116076
0.00121537
0.00127253
0.00133163
0.00139204
0.00145315
0.00151449
0.00157572
0.00163658
0.00169671
0.00175559
0.00181249
0.00186648
0.00176666
0.00119381
0.00102926
0.000976157
0.000968895
0.000985377
0.00101619
0.00105665
0.00110426
0.00115757
0.00121562
0.00127767
0.00134307
0.00141119
0.00148141
0.00155312
0.00162577
0.00169889
0.00177198
0.00184451
0.00191576
0.00198486
0.00205076
0.00176835
0.00123419
0.00106307
0.00100764
0.00100105
0.00101989
0.00105433
0.00109953
0.00115295
0.00121308
0.00127895
0.00134979
0.00142497
0.00150386
0.00158581
0.00167018
0.00175634
0.00184363
0.00193138
0.00201881
0.00210499
0.00218888
0.00226924
0.00745932
0.00131006
0.00110141
0.00104295
0.00103725
0.00105893
0.00109764
0.00114841
0.00120863
0.00127675
0.0013518
0.00143304
0.00151982
0.00161151
0.00170746
0.00180695
0.00190924
0.0020135
0.00211883
0.00222421
0.00232843
0.00243022
0.00252811
0.00176445
0.00134882
0.00114331
0.00108208
0.0010777
0.00110283
0.0011466
0.00120389
0.00127204
0.00134952
0.00143536
0.00152885
0.00162936
0.00173629
0.00184892
0.00196648
0.00208809
0.00221271
0.00233919
0.00246621
0.00259227
0.00271574
0.0028349
0.00176151
0.00141679
0.00118854
0.00112517
0.00112264
0.00115192
0.00120165
0.00126656
0.00134397
0.00143237
0.00153087
0.0016388
0.00175559
0.00188061
0.00201316
0.00215235
0.00229714
0.00244626
0.00259826
0.00275146
0.00290396
0.00305373
0.00319869
0.00746149
0.00148544
0.00123752
0.0011724
0.0011723
0.00120654
0.00126323
0.00133702
0.00142521
0.00152637
0.00163971
0.00176464
0.00190068
0.00204723
0.00220356
0.00236869
0.00254137
0.00272006
0.00290293
0.00308784
0.00327244
0.00345416
0.00363041
0.00176348
0.00154163
0.00129064
0.00122388
0.00122687
0.00126696
0.00133178
0.00141584
0.00151655
0.00163259
0.00176329
0.00190825
0.00206707
0.00223923
0.00242399
0.00262026
0.00282657
0.00304103
0.00326134
0.00348481
0.00370843
0.003929
0.00414325
0.00176197
0.00162074
0.00134753
0.00127967
0.0012865
0.00133344
0.00140764
0.00150358
0.00161877
0.0017521
0.00190311
0.00207159
0.00225736
0.00246
0.00267878
0.0029125
0.00315943
0.00341726
0.00368309
0.00395352
0.00422472
0.00449261
0.00475306
0.00176342
0.00169229
0.00140807
0.00133975
0.00135123
0.00140612
0.00149112
0.00160071
0.00173259
0.00188592
0.0020606
0.00225671
0.00247431
0.00271319
0.00297268
0.00325147
0.00354754
0.00385804
0.00417936
0.00450713
0.00483648
0.00516217
0.00547889
0.00176416
0.0017697
0.00147219
0.00140399
0.00142103
0.00148506
0.0015824
0.0017076
0.00185862
0.00203505
0.00223718
0.00246557
0.0027207
0.00300261
0.00331078
0.00364382
0.00399937
0.00437396
0.00476304
0.00516105
0.00556167
0.00595814
0.00634358
0.0074694
0.00185947
0.00153945
0.00147211
0.00149571
0.00157019
0.00168152
0.00182444
0.0019973
0.00220022
0.00243409
0.00270008
0.00299922
0.00333205
0.00369831
0.00409658
0.00452414
0.00497681
0.00544885
0.00593314
0.00642146
0.00690496
0.00737464
0.00747276
0.00194234
0.00160949
0.00154377
0.001575
0.00166128
0.00178834
0.0019512
0.00214878
0.00238187
0.00265217
0.0029617
0.00331228
0.00370512
0.0041404
0.00461689
0.00513157
0.00567943
0.00625327
0.00684396
0.00744072
0.0080318
0.00860526
0.00176839
0.00200909
0.00168139
0.00161844
0.00165845
0.00175794
0.00190252
0.00208761
0.00231285
0.00257997
0.00289173
0.00325125
0.00366147
0.00412459
0.00464158
0.0052116
0.00583149
0.00649539
0.00719448
0.00791698
0.00864865
0.00937366
0.0100758
0.0017672
0.00210129
0.00175429
0.00169539
0.00174553
0.00185971
0.00202354
0.00223305
0.00248885
0.00279386
0.00315221
0.0035685
0.0040472
0.00459196
0.00520497
0.00588627
0.00663293
0.00743843
0.00829207
0.0091788
0.0100796
0.0109728
0.011836
0.00746975
0.00219332
0.00182732
0.00177407
0.00183583
0.00196611
0.00215073
0.0023866
0.00267555
0.00302205
0.00343195
0.00391181
0.00446813
0.00510662
0.00583145
0.00664425
0.00754309
0.0085213
0.00956634
0.0106591
0.0117741
0.0128811
0.0139479
0.00748444
0.00226112
0.00189874
0.00185422
0.00192933
0.00207689
0.00228339
0.00254696
0.00287104
0.00326198
0.00372783
0.00427759
0.00492043
0.00566501
0.00651845
0.00748525
0.00856577
0.00975434
0.0110372
0.0123906
0.0137801
0.0151625
0.0164906
0.00176724
0.00231792
0.00196906
0.00193698
0.00202709
0.00219247
0.00242098
0.00271254
0.00307262
0.00350985
0.00403491
0.00465978
0.00539711
0.0062595
0.00725851
0.00840338
0.00969897
0.0111429
0.012722
0.0144077
0.0161539
0.0178973
0.0195662
0.00747967
0.00237736
0.00204132
0.00202671
0.00213249
0.00231447
0.00256329
0.00288138
0.00327666
0.00376037
0.00434613
0.00504945
0.00588726
0.00687736
0.00803765
0.00938476
0.0109316
0.0126834
0.0146312
0.0167438
0.0189602
0.0211872
0.0233102
0.00176889
0.00240231
0.00212927
0.0021354
0.0022532
0.00244645
0.00271053
0.00305104
0.00347845
0.00400659
0.00465214
0.00543448
0.00637555
0.00749974
0.00883354
0.0104045
0.012239
0.0143564
0.0167603
0.0194235
0.0222698
0.025161
0.0279068
0.00176552
0.00249607
0.00227844
0.00229176
0.00240417
0.00259425
0.00286294
0.00321815
0.00367188
0.00423981
0.0049413
0.0057996
0.00684217
0.00810121
0.00961418
0.0114238
0.0135766
0.0161171
0.019076
0.0224465
0.0261472
0.0299799
0.0336155
0.00746459
0.00294354
0.00263246
0.00255879
0.00260988
0.00276464
0.00301925
0.00337745
0.00384908
0.00444962
0.00520003
0.00612694
0.00726338
0.00865008
0.0103374
0.0123872
0.0148739
0.0178816
0.0214919
0.0257535
0.0306187
0.0358345
0.0408251
0.0135113
0.0054192
0.00362029
0.00305643
0.00289937
0.0029593
0.00317319
0.00352027
0.00400003
0.0046242
0.00541358
0.0063972
0.00761307
0.00911024
0.0109525
0.013223
0.0160306
0.0195129
0.0238343
0.0291616
0.035584
0.0429025
0.0501815
0.141191
0.0214731
0.00661956
0.00396636
0.00327771
0.00316027
0.00330798
0.00363296
0.00411261
0.00475108
0.00556731
0.00659155
0.00786548
0.00944496
0.0114053
0.0138494
0.0169199
0.0208144
0.0258057
0.0322568
0.0405996
0.0511254
0.0629555
1.5363
0.121355
0.0149163
0.0052782
0.0036375
0.00330859
0.00339282
0.00369748
0.00417397
0.0048187
0.00564854
0.00669402
0.00799877
0.00962249
0.0116473
0.0141884
0.0174107
0.0215557
0.0269881
0.0342823
0.0444075
0.0591621
0.082282
0.00507696
0.00399759
0.00389784
0.00467938
0.0016954
0.00172676
0.00171441
0.0016647
0.00129796
0.00132032
0.00131519
0.00128419
0.00121935
0.00123328
0.00122615
0.00120006
0.00123456
0.00123458
0.00120983
0.00118225
0.00121269
0.00121838
0.0011925
0.00116955
0.00118371
0.00118396
0.00117166
0.00115421
0.00116073
0.00115941
0.00115352
0.00114493
0.00115963
0.00116009
0.00115833
0.00115487
0.00117703
0.00117941
0.00118041
0.00118005
0.0012103
0.00121414
0.00121686
0.00121841
0.00125838
0.00126377
0.00126803
0.00127113
0.00132076
0.00132801
0.00133407
0.0013389
0.00139794
0.00140723
0.00141538
0.00142233
0.00149194
0.00150366
0.00151428
0.00152373
0.00160541
0.00162011
0.0016337
0.00164611
0.00174141
0.00175974
0.00177691
0.00179285
0.00190359
0.00192632
0.00194783
0.001968
0.00209637
0.00212445
0.0021512
0.00217648
0.00232516
0.00235973
0.00239281
0.00242426
0.00259654
0.00263896
0.0026797
0.00271861
0.00291846
0.00297039
0.0030204
0.00306831
0.00330056
0.00336399
0.00342519
0.00348396
0.00375446
0.00383179
0.00390651
0.00397837
0.00429415
0.00438828
0.00447931
0.00456694
0.0049365
0.00505094
0.00516165
0.00526825
0.00570178
0.00584081
0.00597526
0.00610469
0.00661442
0.00678324
0.00694638
0.00710328
0.00770393
0.00790894
0.00810677
0.00829676
0.00900608
0.0092552
0.00949511
0.00972502
0.0105647
0.0108678
0.0111589
0.0114371
0.0124339
0.0128035
0.0131572
0.0134938
0.014682
0.015134
0.0155644
0.0159718
0.0173965
0.0179511
0.0184759
0.0189691
0.0206912
0.0213747
0.0220157
0.0226123
0.0247178
0.025564
0.0263479
0.0270678
0.029684
0.0307359
0.0316936
0.0325566
0.0358823
0.0371928
0.0383552
0.0393747
0.0437442
0.0453691
0.0467536
0.0479194
0.0539458
0.0559081
0.0574746
0.0587146
0.0676184
0.0697641
0.0712974
0.0723999
0.0866755
0.0881886
0.0890546
0.0895793
0.0017822
0.0011338
0.000911287
0.000817575
0.000770635
0.000742948
0.000723149
0.000705724
0.000688318
0.000669242
0.000647169
0.000621893
0.000593059
0.000562279
0.000532746
0.000508767
0.000499922
0.000550338
0.00106779
0.001346
0.00108194
0.000935085
0.000853456
0.000805897
0.000776082
0.0007554
0.000739073
0.000724444
0.000709359
0.000691418
0.000669622
0.000643775
0.000615345
0.000587894
0.000566303
0.000562765
0.000623341
0.00116757
0.0011911
0.00105553
0.000954013
0.000886698
0.000843207
0.000814495
0.000794625
0.000780028
0.000768476
0.000757541
0.000743356
0.000724542
0.000701161
0.000674017
0.000647275
0.000626305
0.000623735
0.000692683
0.00133209
0.00114651
0.00105744
0.000978915
0.000922013
0.000883219
0.000856352
0.000837468
0.000824436
0.000815977
0.000809308
0.000798208
0.000782249
0.000763323
0.000736585
0.000709802
0.000689146
0.00068787
0.000784442
0.0020391
0.00113364
0.00106118
0.00100166
0.000956007
0.000924038
0.000899936
0.000882074
0.000870503
0.000864675
0.00086015
0.000849821
0.000838602
0.000828277
0.000795852
0.000769719
0.000750123
0.000760236
0.0008918
0.00198105
0.00112251
0.00106694
0.00101938
0.000983456
0.000958884
0.000938582
0.000921895
0.000910564
0.000905383
0.00090143
0.000894383
0.000890874
0.000883858
0.000849895
0.000826154
0.00080725
0.000815741
0.00091765
0.000795781
0.00112236
0.00108041
0.00104547
0.00101368
0.000991855
0.000973603
0.000957348
0.000945301
0.000938317
0.000933966
0.000933569
0.000943002
0.000938872
0.000890616
0.000855545
0.000837662
0.000844999
0.000908181
0.00110743
0.00112748
0.00109757
0.00107115
0.0010464
0.00102725
0.0010106
0.00099525
0.00098268
0.000973861
0.000967707
0.0009645
0.000963418
0.000948398
0.000908673
0.000874085
0.000855308
0.000864933
0.000947287
0.00115862
0.00114623
0.00112553
0.0011047
0.00108579
0.0010693
0.00105357
0.00103819
0.00102472
0.00101388
0.00100478
0.000995379
0.000981349
0.000956471
0.000922378
0.000892788
0.000873979
0.000882314
0.000975028
0.00115862
0.00117682
0.00116379
0.00114812
0.00113359
0.00111934
0.00110383
0.00108765
0.0010726
0.00105916
0.00104633
0.00103109
0.00100812
0.000976148
0.00094203
0.000913039
0.000893466
0.000896701
0.000967317
0.00115955
0.00121877
0.00121212
0.0012016
0.00119031
0.00117753
0.00116229
0.00114555
0.00112875
0.00111214
0.00109493
0.00107456
0.00104634
0.00101004
0.000972987
0.000941277
0.000920366
0.000921461
0.000992637
0.00115563
0.00127422
0.00127238
0.00126624
0.00125745
0.00124597
0.00123147
0.00121455
0.0011961
0.00117635
0.00115486
0.00113
0.00109858
0.00105977
0.00101947
0.000984535
0.000962627
0.000964265
0.00102286
0.00115839
0.00134482
0.00134721
0.00134478
0.00133847
0.00132857
0.00131499
0.00129803
0.00127815
0.00125562
0.00123031
0.00120152
0.00116763
0.00112749
0.00108488
0.00104734
0.00102581
0.00103026
0.00109957
0.0011557
0.00143176
0.0014388
0.00144033
0.00143696
0.00142903
0.00141658
0.00139971
0.00137872
0.00135383
0.00132519
0.00129273
0.0012561
0.00121488
0.00117115
0.00113196
0.0011108
0.00111956
0.00120054
0.00115174
0.00153731
0.00154981
0.00155599
0.00155626
0.00155088
0.00153992
0.00152347
0.0015017
0.00147489
0.00144333
0.00140736
0.00136742
0.00132409
0.00127933
0.00123926
0.00121749
0.0012319
0.00134957
0.00476589
0.00166456
0.00168342
0.00169517
0.00169992
0.00169782
0.00168894
0.00167337
0.00165126
0.0016229
0.00158873
0.00154937
0.00150571
0.00145914
0.00141222
0.00137081
0.00134722
0.0013638
0.00148747
0.00115366
0.00181706
0.00184343
0.00186182
0.00187206
0.00187414
0.00186808
0.00185396
0.00183194
0.00180236
0.00176576
0.00172299
0.00167532
0.0016247
0.00157442
0.00153083
0.00150673
0.00153077
0.00170112
0.00116022
0.00199909
0.00203441
0.00206072
0.00207763
0.00208493
0.00208256
0.00207055
0.00204906
0.00201848
0.00197948
0.00193308
0.00188088
0.00182534
0.0017705
0.00172366
0.00169946
0.00173345
0.00194833
0.00116129
0.00221586
0.00226187
0.00229769
0.00232266
0.00233639
0.00233867
0.00232947
0.00230895
0.00227752
0.00223594
0.00218543
0.00212788
0.00206623
0.0020053
0.00195362
0.00192835
0.00197198
0.00224045
0.00489955
0.00247364
0.0025325
0.00257973
0.00261442
0.00263596
0.00264398
0.00263837
0.00261924
0.00258702
0.00254253
0.00248716
0.0024231
0.00235377
0.0022848
0.00222617
0.00219818
0.00225252
0.00258613
0.0048833
0.00278007
0.00285439
0.00291532
0.00296169
0.00299264
0.00300766
0.00300649
0.00298918
0.00295615
0.00290827
0.00284708
0.00277503
0.00269606
0.00261665
0.00254838
0.00251476
0.00257583
0.00296008
0.00559547
0.00314435
0.00323728
0.00331464
0.00337498
0.00341724
0.00344068
0.00344492
0.00342991
0.00339602
0.00334416
0.00327598
0.0031942
0.00310328
0.00301065
0.00292966
0.00288754
0.00295366
0.00339291
0.00649563
0.00357759
0.00369286
0.00378989
0.00386694
0.00392269
0.00395621
0.00396697
0.00395481
0.00392005
0.00386356
0.00378707
0.00369358
0.00358806
0.003479
0.0033818
0.00332806
0.00339838
0.00390143
0.00753365
0.00409316
0.00423522
0.00435574
0.00445266
0.00452444
0.00456997
0.00458857
0.00457996
0.00454435
0.00448258
0.00439642
0.00428905
0.00416598
0.00403685
0.0039193
0.0038496
0.00392049
0.0044869
0.00867
0.00470719
0.00488129
0.00502975
0.00515023
0.00524098
0.00530074
0.00532873
0.00532454
0.00528828
0.0052207
0.00512351
0.00500006
0.00485637
0.00470312
0.00456027
0.00446919
0.00453543
0.00516159
0.00989962
0.00543906
0.00565139
0.00583298
0.00598126
0.00609433
0.00617089
0.0062101
0.00621148
0.00617501
0.00610131
0.00599201
0.00585046
0.005683
0.00550135
0.0053279
0.00520957
0.00526605
0.00595215
0.0112853
0.00631216
0.00656997
0.0067907
0.00697159
0.00711079
0.00720706
0.00725964
0.00726806
0.00723223
0.00715257
0.00703049
0.00686919
0.00667517
0.00646107
0.00625188
0.00610083
0.00614455
0.00690185
0.0129625
0.0073547
0.00766651
0.00793324
0.00815218
0.00832171
0.00844095
0.00850939
0.00852675
0.00849292
0.0084081
0.00827334
0.00809148
0.00786895
0.00761918
0.00736985
0.00718168
0.00721258
0.00806446
0.0150779
0.00860086
0.00897659
0.00929712
0.00956009
0.00976451
0.00991023
0.00999738
0.0100261
0.00999627
0.00990799
0.00976181
0.00955997
0.00930853
0.00902138
0.00872901
0.00850087
0.00852138
0.00949932
0.0177506
0.0100923
0.0105434
0.0109264
0.0112398
0.0114839
0.0116598
0.0117687
0.0118116
0.0117886
0.0116998
0.0115451
0.011326
0.0110477
0.0107241
0.0103883
0.0101195
0.0101338
0.0112715
0.0210552
0.01188
0.0124198
0.0128747
0.0132451
0.0135335
0.0137431
0.0138769
0.0139372
0.0139248
0.0138398
0.0136816
0.0134508
0.0131513
0.0127965
0.0124213
0.0121151
0.0121306
0.0134655
0.0251105
0.0140275
0.0146707
0.0152074
0.015641
0.0159776
0.0162238
0.0163854
0.0164664
0.0164691
0.016394
0.0162401
0.0160071
0.0156975
0.0153231
0.0149201
0.0145876
0.0146194
0.0162025
0.0301324
0.0166141
0.017377
0.0180048
0.0185065
0.0188938
0.0191783
0.0193695
0.0194745
0.0194974
0.0194397
0.0193009
0.01908
0.0187783
0.018406
0.0179991
0.0176658
0.0177452
0.0196521
0.0364315
0.0197406
0.0206396
0.0213659
0.0219379
0.0223757
0.0226977
0.022919
0.0230503
0.0230985
0.0230671
0.0229571
0.0227679
0.0225009
0.0221657
0.0217983
0.021515
0.0217037
0.0240528
0.0444374
0.0235361
0.0245854
0.0254133
0.0260528
0.0265365
0.026892
0.027141
0.0272991
0.027377
0.0273812
0.0273155
0.0271825
0.0269865
0.0267404
0.0264837
0.026343
0.026759
0.0297436
0.0547228
0.0281671
0.0293743
0.0302982
0.0309948
0.0315134
0.0318934
0.0321643
0.0323472
0.0324569
0.0325043
0.0324983
0.032448
0.0323669
0.0322796
0.032241
0.0324007
0.0332665
0.037238
0.0682755
0.0338493
0.035207
0.0362068
0.0369384
0.0374728
0.0378626
0.038145
0.0383465
0.0384864
0.0385807
0.0386454
0.0387011
0.0387789
0.038931
0.0392544
0.039962
0.0416839
0.0473343
0.0869319
0.0408605
0.0423325
0.0433657
0.0440953
0.0446168
0.044995
0.0452736
0.0454828
0.0456457
0.0457833
0.0459201
0.046092
0.0463575
0.0468186
0.0476608
0.0492531
0.0525165
0.061215
0.113801
0.049553
0.0510529
0.0520464
0.0527202
0.0531909
0.0535307
0.0537855
0.0539865
0.0541582
0.054325
0.054519
0.0547918
0.0552346
0.0560178
0.0574733
0.0602851
0.066071
0.0804563
0.154709
0.0603549
0.0617219
0.0625686
0.0631189
0.0634952
0.0637667
0.0639749
0.0641474
0.0643063
0.0644761
0.0646915
0.0650128
0.0655549
0.0665507
0.0685004
0.0725574
0.0817186
0.106218
0.222202
0.0737392
0.0747309
0.0753023
0.0756594
0.0759003
0.0760755
0.076214
0.0763346
0.0764533
0.0765887
0.0767695
0.0770484
0.0775315
0.0784521
0.0803677
0.0847658
0.0963002
0.134421
0.345967
0.0901334
0.0904878
0.090678
0.0907936
0.0908716
0.0909299
0.0909783
0.0910232
0.0910707
0.0911281
0.0912076
0.0913319
0.091549
0.0919696
0.0928874
0.0952342
0.102797
0.138969
0.578366
)
;

boundaryField
{
    leftWall
    {
        type            epsilonWallFunction;
        value           nonuniform List<scalar> 
50
(
6.75341e-05
0.000143055
0.00024737
0.000350917
0.000451323
0.000549733
0.000648184
0.000749042
0.000905829
0.00115076
0.00159594
0.00264215
0.00272726
0.00104998
0.00144014
0.00152381
0.00156902
0.00159754
0.00161913
0.00163926
0.0016597
0.00168061
0.0017017
0.00172247
0.00174179
0.00175745
0.00176666
0.00176835
0.00745932
0.00176445
0.00176151
0.00746149
0.00176348
0.00176197
0.00176342
0.00176416
0.0074694
0.00747276
0.00176839
0.0017672
0.00746975
0.00748444
0.00176724
0.00747967
0.00176889
0.00176552
0.00746459
0.0135113
0.141191
1.5363
)
;
    }
    rightWall
    {
        type            epsilonWallFunction;
        value           nonuniform List<scalar> 
50
(
0.000104583
0.000163645
0.000266055
0.000375617
0.000492009
0.000620177
0.000768846
0.000914569
0.00106779
0.00116757
0.00133209
0.0020391
0.00198105
0.000795781
0.00110743
0.00115862
0.00115862
0.00115955
0.00115563
0.00115839
0.0011557
0.00115174
0.00476589
0.00115366
0.00116022
0.00116129
0.00489955
0.0048833
0.00559547
0.00649563
0.00753365
0.00867
0.00989962
0.0112853
0.0129625
0.0150779
0.0177506
0.0210552
0.0251105
0.0301324
0.0364315
0.0444374
0.0547228
0.0682755
0.0869319
0.113801
0.154709
0.222202
0.345967
0.578366
)
;
    }
    lowerWall
    {
        type            epsilonWallFunction;
        value           nonuniform List<scalar> 
62
(
6.75341e-05
0.000387899
0.000701789
0.000989364
0.00124944
0.00148179
0.00168664
0.00186418
0.00201554
0.00214512
0.0022592
0.00236235
0.00245531
0.00252731
0.00255374
0.00249501
0.00233291
0.00212012
0.00181834
0.00147423
0.00113975
0.000659679
0.000185578
0.000185578
0.0003151
0.000542332
0.000805988
0.00112705
0.0015641
0.00231411
0.00408624
0.00507696
0.00399759
0.00389784
0.00467938
0.000333206
0.000406483
0.000587272
0.000732248
0.000877789
0.00111799
0.0016297
0.00319546
0.000333206
0.00110011
0.00188046
0.00224703
0.00240086
0.00246837
0.00244927
0.00236345
0.0022459
0.00213449
0.00188649
0.00150927
0.00130437
0.00130329
0.0011543
0.000862461
0.000538689
0.000288133
0.000104583
)
;
    }
    atmosphere
    {
        type            inletOutlet;
        inletValue      uniform 0.1;
        value           nonuniform List<scalar> 
46
(
0.1
0.121355
0.0149163
0.0052782
0.0036375
0.00330859
0.00339282
0.00369748
0.00417397
0.0048187
0.00564854
0.00669402
0.00799877
0.00962249
0.0116473
0.0141884
0.0174107
0.0215557
0.0269881
0.0342823
0.0444075
0.0591621
0.1
0.1
0.1
0.1
0.1
0.1
0.1
0.1
0.1
0.1
0.1
0.1
0.1
0.1
0.1
0.1
0.1
0.1
0.1
0.1
0.1
0.1
0.1
0.578366
)
;
    }
    defaultFaces
    {
        type            empty;
    }
}


// ************************************************************************* //
