/*--------------------------------*- C++ -*----------------------------------*\
  =========                 |
  \\      /  F ield         | OpenFOAM: The Open Source CFD Toolbox
   \\    /   O peration     | Website:  https://openfoam.org
    \\  /    A nd           | Version:  9
     \\/     M anipulation  |
\*---------------------------------------------------------------------------*/
FoamFile
{
    format      ascii;
    class       surfaceScalarField;
    location    "24";
    object      phi;
}
// * * * * * * * * * * * * * * * * * * * * * * * * * * * * * * * * * * * * * //

dimensions      [0 3 -1 0 0 0 0];

internalField   nonuniform List<scalar> 
1300
(
11.2529
1.87548
-4.17904
11.2529
-4.99516
1.87548
-4.2389
4.2389
-1.18769
1.18769
5.7123
5.54056
-2.37307
2.37307
-2.81499
2.81499
-2.86024
2.86024
-1.06194
1.06194
-1.02826
1.02826
0.693181
-0.693181
-3.41728
3.41728
-1.45634
1.45634
-2.90444
2.90444
6.1281
-6.1281
-3.24877
3.24877
-0.743891
0.743891
-4.26321
15.5161
6.98965
6.98965
-2.37123
2.37123
-1.25396
1.25396
1.41034
-1.41034
9.06925
-9.06925
-4.89021
-5.89876
1.91027
-14.036
-3.08489
-3.08489
-2.7054
2.7054
-0.829928
1.04555
3.47679
-3.47679
-0.757473
0.757473
-4.32483
0.0859249
-4.32483
4.02266
0.216244
4.02266
-1.32898
0.141286
-1.32898
4.67659
-4.67659
1.07595
0.111748
1.07595
3.9281
-3.9281
-5.71006
11.4224
5.5428
-5.32064
20.8367
-5.93222
11.4728
-3.90775
3.90775
-2.29033
-0.0827355
-2.29033
2.37408
-0.001017
2.37408
-4.009
4.009
-2.60484
-0.21015
-2.60484
2.91559
-0.100607
2.91559
3.66634
-3.66634
-2.91628
0.0560398
-2.91628
2.70854
0.151692
2.70854
0.771042
1.10443
-2.64652
3.69207
-1.10443
0.0424987
1.02614
0.0357986
1.02614
-1.01454
-0.0137255
-1.01454
1.04984
-0.0215801
1.04984
0.730261
-0.0370801
0.730261
-0.754887
0.0617062
-0.754887
-8.59381
-8.98303
-3.54321
0.125934
-3.54321
-1.47434
0.0180028
-1.47434
1.49252
-0.0361761
1.49252
-2.52931
2.52931
-3.24628
0.341841
-3.24628
4.80635
1.32175
4.80635
5.04612
6.20674
16.299
-16.299
10.1709
-2.96696
-0.281803
-2.96696
-3.41606
-5.65319
3.41606
-0.167292
-0.805656
0.0617649
-0.805656
5.62659
1.36306
5.62659
2.58634
0.122204
-2.58634
0.21511
4.62584
-4.62584
1.42336
0.947869
1.42336
-1.19154
1.19154
1.12337
-0.0735264
-1.12337
-0.130589
1.38601
0.0243318
1.38601
-1.40975
-0.000595753
-1.40975
7.31017
-13.2089
-7.78429
3.22623
0.191052
-3.22623
0.141335
3.56354
-0.0867404
3.56354
-3.30971
3.30971
-3.61098
0.134184
-3.61098
-0.682488
-0.0749852
-0.682488
0.842427
-0.0849537
0.842427
-4.57336
0.248531
-4.57336
-3.68638
0.440097
3.68638
0.336285
1.25105
-1.25105
-1.43677
0.107795
-1.43677
-4.65709
0.0837296
4.65709
0.0195044
-4.77092
0.0943264
-4.77092
-3.71252
0.101538
3.71252
0.215579
4.58935
1.03724
-4.58935
0.66125
-5.36948
11.5762
-5.88338
11.4262
-3.52298
-0.384766
-3.52298
4.09988
-0.192133
4.09988
2.56602
0.338415
-2.56602
0.275692
2.5002
-0.126117
2.5002
-3.95307
-0.055931
-3.95307
3.81103
0.197967
3.81103
2.53993
-0.0397309
-2.53993
-0.0649058
2.89147
0.0241197
2.89147
3.6723
-0.00595437
3.6723
-3.53938
-0.126961
-3.53938
3.17899
-3.17899
3.08063
0.0983593
-3.08063
0.164359
-5.07402
5.07343
-0.00799944
-5.06602
1.01814
1.01814
0.769181
-0.0389193
0.769181
-0.861793
0.106905
-0.861793
8.3357
-16.12
8.79364
-17.3874
7.53578
-21.5718
8.09949
-17.0825
3.83003
-3.83003
3.76255
0.0674706
-3.76255
0.21934
-1.45616
-0.0181828
-1.45616
-2.29145
-0.237857
-2.29145
2.86256
-0.333249
2.86256
-3.7421
3.7421
-4.12478
0.382682
4.12478
0.681568
2.95403
-0.0625551
-2.95403
-0.0129355
0.924238
0.151707
-0.924238
0.118582
4.86302
-0.237181
4.86302
-4.08499
-0.540854
-4.08499
-1.47504
0.0188739
1.47504
-0.0516746
-1.25895
0.0674056
-1.25895
-5.0745
0.00847757
-5.0387
-1.40127
-1.40127
1.30414
4.9962
-3.58563
0.0462475
3.58563
-0.0220922
3.52706
0.215038
-3.52706
0.217355
-3.2633
0.0843029
3.2633
0.0464099
-0.659984
-0.0225037
-0.659984
-1.03535
1.03535
-0.918105
-0.117244
0.918105
-0.0756787
1.40671
-0.155668
1.40671
1.47071
0.0218071
-1.47071
0.0339363
-5.01032
0.239403
-5.01032
4.11052
-0.0106406
4.11052
-3.94891
-0.136071
3.94891
-0.27662
-0.00372292
5.07715
-1.01441
-0.000120201
1.01441
-5.10148
5.10136
-0.665357
0.00537309
0.665357
0.103823
1.02967
0.161874
-1.02967
0.167873
3.85247
-0.0414437
-3.85247
0.0224479
-2.00972
-0.281733
-2.00972
-3.19103
-0.331951
3.19103
-0.32847
-5.11518
-0.0779374
5.19312
-5.13676
1.33688
0.0491258
-1.33688
5.15049
-1.1444
-0.106649
1.1444
-0.109048
1.60536
-0.19865
1.60536
5.12015
-0.257125
-5.12015
0.109822
-4.12776
0.174696
4.12776
-0.0172399
-1.77699
-0.232728
1.77699
-0.171629
-13.1281
14.4911
7.70865
-6.27816
-6.93076
-11.9314
4.4471
7.12912
14.618
-11.8047
-9.76704
-11.6634
2.86006
-2.69219
-3.7278
3.69072
23.5882
-23.4939
-18.3992
19.0808
20.777
-20.5614
5.70885
5.71351
15.8228
-15.9055
-20.9336
20.5489
15.364
-15.5741
22.0853
-22.1413
-25.8415
25.8001
-16.0931
16.1492
-20.2942
20.1672
-21.0573
20.7807
-8.33324
-9.05421
16.517
-16.391
19.9976
-20.2794
-19.3579
19.6998
10.0475
4.44359
11.0848
-6.24673
11.9556
-5.22605
12.9347
8.30872
-16.642
7.81127
-14.742
9.05087
10.9467
-8.88358
-3.04777
-17.9699
17.8831
-17.257
17.3034
24.1133
-24.0274
-6.17283
11.8863
-5.25335
12.3825
-11.409
-6.9902
10.0873
4.53073
8.98615
7.53082
-9.1772
-2.48618
-24.7973
24.5402
-25.6591
25.1182
0.100137
2.42596
-2.5261
1.35409
-0.862636
3.2886
1.99743
2.10433
2.45271
-2.29084
0.239478
-2.76557
-2.89616
-5.34146
5.44925
5.15831
-5.04656
16.5427
7.04555
16.5622
-16.7476
-6.74634
-16.5082
11.3637
7.71706
11.7464
12.0617
8.71535
12.1632
10.359
-10.3317
-0.0273191
-11.4776
21.8367
1.55465
-18.4678
-13.9371
8.82807
6.99469
8.82706
-9.87375
-6.03175
-9.59806
-11.0333
-9.90031
-11.3653
12.3433
8.20554
12.1512
-15.3434
15.3262
9.26194
6.10202
9.16134
-8.94739
-6.62671
-9.0123
27.4905
-6.67284
-20.8176
-13.2026
-12.639
13.0046
9.08071
14.354
11.4461
14.3765
8.91574
18.5747
-17.9965
5.3575
-9.94717
-6.14596
-9.78281
9.2583
6.89087
9.40999
-11.7667
-8.52749
-11.7204
-11.9868
-9.07052
11.9927
8.17449
-12.5341
-13.125
12.6701
8.11053
7.85096
-17.618
9.23156
-18.2858
-10.9695
-5.4215
-10.7502
10.7974
6.66541
-17.4628
-5.8446
23.6344
-12.6877
20.5866
-10.8949
-9.38445
-10.9079
-14.7872
-4.57074
-14.3471
-7.99991
7.71817
-8.8353
8.50205
26.8903
-16.2314
-10.6589
-12.3784
-8.18308
11.7171
-0.632337
-12.8358
12.8085
-0.880188
12.0545
16.4981
15.8658
-10.8802
-6.37678
-10.6629
10.2702
7.03321
10.3545
16.0939
8.01941
16.3101
-16.8112
-7.2162
-16.5626
4.84338
-4.91837
5.71405
-5.69517
15.5787
9.53956
-15.3415
-9.45582
22.9313
-10.7752
-12.1561
-5.11982
5.21485
-0.0950219
-1.83123
-0.477135
0.266756
-1.93108
-1.79672
1.86937
0.234958
5.4498
3.65308
-2.41437
2.48177
2.77875
2.70523
-0.190938
2.4997
-2.49432
18.9072
-11.4362
-7.47093
13.9659
-13.8822
-2.59672
-19.3249
16.7282
2.67999
3.00423
-2.94246
-3.94904
-1.39242
-3.9151
2.95273
2.20558
3.10444
2.10747
3.34179
-8.1051
1.56349
6.54162
-5.99764
-3.48307
-13.3467
-6.26871
19.6154
16.6772
7.86292
-16.7871
0.278915
5.29369
-5.32987
-1.59729
-11.7494
8.35038
-9.94767
-15.2183
-6.46044
21.6787
-9.58079
-1.0821
9.36575
2.38064
-10.8773
-7.09261
10.7431
1.42013
-12.0645
23.9708
-11.9063
-18.4413
8.51578
13.3209
16.2328
-17.8628
9.31887
8.5439
-4.54189
7.41562
1.41144
7.2895
-19.9068
13.875
11.305
8.3948
-11.6434
2.04534
-17.8614
25.1651
-22.2847
-2.88041
12.8138
12.3513
13.5638
13.3264
-7.79366
21.3575
-3.62118
-18.6635
21.4826
-13.0878
15.7842
-28.872
-29.1106
10.4471
-17.9723
22.0923
-4.12
-5.2125
-10.1309
23.1848
-2.00963
-21.1752
10.1416
-13.9237
-11.8373
25.7611
-20.5966
18.464
-6.26258
-12.2015
-12.6882
-9.45305
12.5135
2.81268
-25.8671
31.2246
-7.29234
7.79744
1.3639
7.82156
10.6094
-15.9751
5.36571
9.98718
-16.2498
6.75967
-22.7348
-12.1683
24.1937
-12.0254
-17.5899
-15.8092
-1.78065
4.86974
26.3548
-16.3158
12.1154
4.20036
8.46183
1.89271
-8.56019
-1.22263
0.9682
16.0868
-17.055
10.3782
10.5004
11.705
4.38183
10.7702
7.11296
-10.7481
-0.972363
-14.7926
5.7221
-6.61813
-14.5739
20.296
-16.2678
1.69394
-10.3032
-13.9908
24.294
-16.4492
11.4255
12.5452
18.4587
-19.615
5.62423
-9.74642
-9.86857
10.6436
-17.2617
7.49809
12.7979
15.6086
2.48362
12.7562
11.4375
-19.4216
1.13583
18.9684
-16.4822
3.89741
10.4791
-16.0128
0.203633
-10.5466
2.65271
-15.3404
-14.8101
16.527
-21.0977
-12.3451
13.5547
2.75539
-13.891
-0.456072
-4.95986
-3.04005
-5.19259
-3.28281
-5.55249
-11.0765
-1.92783
-9.14864
5.79035
-6.69777
-4.66751
7.02624
1.47581
-4.93934
4.8327
-5.58561
5.38696
-0.210173
13.0186
15.6556
7.47251
-8.47673
15.9492
-15.603
23.6224
-29.7239
14.121
15.9503
-23.1665
-13.7737
2.70253
2.14085
2.61758
13.4579
-14.4211
0.963232
-13.2864
17.6122
-4.3258
-19.5937
6.30731
-6.13583
5.18717
0.526883
5.16898
1.41655
6.84629
-8.26284
-4.27862
-4.3303
-9.16289
-13.8593
23.0222
4.73622
-13.1054
8.36917
-12.0634
16.7996
0.0790468
-13.1844
16.9857
-10.1394
17.5126
-11.9843
5.52831
12.7919
22.3473
-9.55546
16.2478
-6.70825
7.06731
-16.6228
-6.79199
-11.2885
18.1794
-13.0055
14.6994
-1.12437
15.8238
-13.7777
3.0025
-2.07274
8.42766
8.64277
16.8088
-12.427
11.97
-18.6783
-4.65273
-16.1947
-3.39677
1.02214
-13.8301
12.808
12.0512
-11.029
-3.24326
8.98867
-5.74541
5.68444
-2.84918
-2.83525
-1.84721
-3.07116
1.86971
0.629987
6.31443
0.489496
-3.33868
-2.00483
-1.901
10.3761
8.53111
-3.83304
3.73802
3.56628
-0.562059
0.958933
2.1455
4.58856
-3.62962
0.678377
3.91018
-2.26408
3.82827
1.46543
-3.85007
-0.0650262
-3.4084
11.7588
3.13321
-5.33879
1.70917
2.38084
-13.8171
19.7423
-11.4171
-8.32522
22.1232
3.0617
-14.4788
16.2632
-13.5832
8.10226
-14.371
-6.37652
-19.9597
-12.9142
-10.7101
19.0793
-12.3121
20.175
3.861
-20.4539
24.3149
-12.7406
6.28019
-9.44436
10.9098
-4.05894
-5.38542
11.2668
10.4119
-11.054
-0.695353
0.212779
8.42076
-8.20798
-1.52692
-7.52455
-16.4089
17.829
-8.25572
17.5746
7.69352
-7.634
25.2086
6.56498
-14.199
-11.8763
-12.9584
-5.65508
10.5778
-1.79421
-7.21809
-13.9957
7.25782
0.0316855
-19.0529
22.0426
-2.98971
-12.0582
-1.8168
14.6306
-18.0846
1.83488
-11.325
10.7177
12.1291
12.1608
-20.8621
-0.313024
-12.6566
3.17562
-15.8322
15.5269
-6.80526
17.2524
-16.0281
11.3605
-14.5522
14.372
-1.46023
14.7545
-9.38878
6.06312
-15.5162
-12.7035
14.4568
-8.35479
15.8207
-10.1139
25.9346
-17.4063
14.3971
11.5375
-2.71514
-8.19273
-13.9634
11.2482
0.433728
8.25528
17.8372
-10.7243
16.8649
8.92432
-18.6707
-8.33739
-25.8596
7.1889
-13.3144
-7.35654
14.5454
11.1022
12.9949
4.67688
-11.7723
17.7949
-19.5756
-5.76957
-9.04049
14.5727
-3.32448
10.1521
-19.1926
-5.18826
13.111
-0.186079
-12.9249
3.12038
-15.4654
5.12469
-20.5901
15.973
-16.4291
1.77116
-7.90699
-3.16818
-3.27723
-2.17433
-3.41128
-7.57306
5.39873
-1.26575
3.56695
-12.5292
12.3431
-5.083
10.4817
-4.06186
-1.13073
4.23349
1.15347
11.6352
3.02831
-16.802
-9.25893
14.6287
-5.3698
1.11714
-10.8018
3.82695
8.09776
14.0254
-24.8259
1.65946
-15.1425
-4.07233
6.21318
4.91634
16.9675
2.54639
6.55565
-0.342474
9.10204
2.27511
2.19943
-11.2236
12.1868
1.5844
15.7054
-1.88305
7.41136
3.28593
3.30394
2.02593
5.72276
2.92001
8.72526
0.462416
-3.86788
2.06826
-3.96926
-1.27042
-4.00818
-0.317465
3.72597
-4.04343
10.4993
-1.96824
5.12955
-1.8833
-4.93491
6.81821
-9.35422
-5.49697
-1.58679
-5.60801
7.31718
6.15078
-5.73039
-3.62383
2.39221
-15.3064
11.9788
-12.6741
-2.26218
22.0527
-9.46278
1.2548
-3.18259
-6.26975
-7.66217
7.7272
24.1899
1.01865
12.2837
18.8477
11.755
1.03076
11.9867
-16.1067
-10.748
-16.4197
-0.892814
13.7378
5.62292
20.7319
17.1604
13.836
-5.35668
-24.9323
20.7292
-8.5424
16.4034
-3.47845
-17.1117
14.6414
8.98094
-17.3968
0.96775
-16.1439
-24.6863
-0.341805
12.6849
-11.2934
10.1627
7.12262
2.02602
-2.42704
-0.850191
2.54428
-0.344854
8.75719
-0.188389
-8.19764
8.38602
-3.53758
2.26716
-0.430436
4.16845
6.38777
4.41953
-3.7781
-7.82154
-8.8189
-4.99818
-17.1441
2.47124
-8.62202
5.68316
-3.416
2.8479
4.97003
10.0996
-1.60135
-9.42766
7.34676
-4.49886
5.60072
)
;

boundaryField
{
    wall-4
    {
        type            calculated;
        value           uniform 0;
    }
    velocity-inlet-5
    {
        type            calculated;
        value           uniform -11.2529;
    }
    velocity-inlet-6
    {
        type            calculated;
        value           uniform -1.87548;
    }
    pressure-outlet-7
    {
        type            calculated;
        value           nonuniform List<scalar> 8(4.17904 4.99516 10.789 12.1257 17.5768 15.0945 17.1293 15.6353);
    }
    wall-8
    {
        type            calculated;
        value           uniform 0;
    }
    frontAndBackPlanes
    {
        type            empty;
        value           nonuniform List<scalar> 0();
    }
}


// ************************************************************************* //
