/*--------------------------------*- C++ -*----------------------------------*\
  =========                 |
  \\      /  F ield         | OpenFOAM: The Open Source CFD Toolbox
   \\    /   O peration     | Website:  https://openfoam.org
    \\  /    A nd           | Version:  9
     \\/     M anipulation  |
\*---------------------------------------------------------------------------*/
FoamFile
{
    format      ascii;
    class       volVectorField;
    location    "24";
    object      U;
}
// * * * * * * * * * * * * * * * * * * * * * * * * * * * * * * * * * * * * * //

dimensions      [0 1 -1 0 0 0 0];

internalField   nonuniform List<vector> 
918
(
(2.47629 -0.138943 0)
(0.108704 0.722546 0)
(0.17181 1.0569 0)
(2.31834 0.153728 0)
(-0.0599286 1.26721 -1.21922e-19)
(-0.0924034 0.643931 -5.31434e-18)
(0.529603 0.84883 -2.95693e-19)
(0.274355 0.152889 -2.98876e-20)
(3.00615 -0.0195608 0)
(-0.00819737 0.476168 0)
(-0.0172354 0.58875 0)
(0.605227 0.0067644 0)
(0.0107054 0.439105 0)
(-0.00288254 0.421689 0)
(0.0134488 0.340848 -1.30535e-18)
(-0.00489216 0.768256 -9.20149e-20)
(0.312426 0.074274 2.15228e-18)
(0.0796644 0.641453 -2.23286e-19)
(1.52884 0.128628 0)
(-0.0269006 0.685837 0)
(0.19462 0.157739 -1.26573e-18)
(3.08302 -0.397373 0)
(2.92445 -0.50598 0)
(1.86116 -0.1811 0)
(0.511408 0.0400861 0)
(-0.0253681 0.52155 0)
(-0.00135314 0.494038 1.8626e-18)
(-0.0230177 1.40284 0)
(0.0734288 2.889 0)
(0.16792 1.74013 0)
(-0.0397742 3.16005 0)
(0.0266395 1.63649 9.37457e-20)
(0.0230235 0.685446 0)
(-0.147425 0.775094 -2.03106e-22)
(-0.193914 1.0291 4.42167e-18)
(-0.0415772 1.04471 0)
(0.744574 -0.00600556 0)
(0.161071 0.246405 6.65678e-19)
(0.992778 1.51181 6.53358e-19)
(0.649484 0.783741 -5.16386e-19)
(0.797974 1.57355 6.20803e-20)
(0.41641 0.850402 -3.20554e-19)
(0.552399 0.306607 2.9394e-20)
(0.297002 0.15366 0)
(0.962692 0.566353 0)
(0.532691 0.303991 1.32029e-19)
(0.258013 0.162811 -1.35481e-19)
(0.871595 -0.055479 0)
(3.02784 -0.00170496 0)
(3.00685 0.0178656 0)
(3.20086 -0.417733 0)
(3.04288 -0.0742119 0)
(3.03116 -0.0388407 0)
(0.018682 0.904971 -1.14689e-18)
(-0.0542028 0.972563 0)
(0.0028165 0.454312 0)
(-0.0289916 0.979469 0)
(-0.0113603 0.480402 0)
(-0.00139611 0.871372 0)
(-0.0520876 1.10939 0)
(-0.0126045 0.540978 0)
(-0.0253634 1.16093 0)
(-0.00598078 0.621107 0)
(0.790461 0.0116218 0)
(1.16945 -0.00156414 0)
(0.61826 0.0123688 0)
(1.12581 0.017598 0)
(0.569777 0.00867808 0)
(0.225406 0.921982 1.95996e-18)
(0.0985379 1.2081 0)
(0.176302 1.06604 0)
(0.0331901 0.755774 2.19952e-23)
(0.0372233 0.498055 -2.93128e-18)
(0.0194616 0.747943 0)
(0.00595421 0.422033 0)
(-0.000695418 0.734548 4.51792e-24)
(0.000702451 0.414825 0)
(-0.0169208 0.74318 0)
(-0.0129376 0.42798 0)
(0.0494662 0.650064 0)
(0.0484661 0.458304 0)
(0.00801973 0.621991 1.23419e-18)
(0.000751828 0.344914 0)
(-0.0719014 4.69084 0)
(0.00862119 1.45766 9.13516e-20)
(-0.0105867 0.785437 -1.17635e-19)
(0.636149 0.15216 -7.50995e-19)
(0.32164 0.065688 -7.28752e-19)
(0.644863 0.16974 -2.2548e-18)
(0.317564 0.0955801 -1.45166e-18)
(0.0787121 0.619338 0)
(0.178253 1.31176 1.85196e-19)
(0.179473 0.729148 -2.95491e-19)
(2.06031 0.260946 0)
(1.10704 0.118449 0)
(3.03313 0.103887 0)
(3.10392 0.446059 0)
(2.83919 0.377459 -1.01282e-17)
(2.5781 0.361309 7.77152e-18)
(-0.0709401 1.26345 0)
(-0.0114726 0.623189 0)
(-0.0147255 1.90319 0)
(-0.050916 1.34774 0)
(-0.0482399 0.679755 0)
(0.44039 0.29569 4.00725e-19)
(0.225499 0.163387 0)
(2.2961 -0.266394 0)
(1.32372 -0.119274 0)
(1.07636 0.0126658 0)
(1.01203 0.018763 0)
(0.540945 0.0108484 0)
(1.01979 0.0563887 0)
(0.821261 0.0703298 0)
(0.34364 0.0286967 3.36318e-18)
(-0.00543547 0.4516 1.77372e-18)
(-0.0270323 0.784629 0)
(-0.0473213 0.847512 0)
(-0.0152747 0.460438 0)
(0.000132457 0.839725 1.81616e-18)
(7.29807e-05 0.48753 0)
(-0.0054789 0.845554 -5.59087e-18)
(-0.00488634 0.496761 1.88651e-18)
(0.0523131 3.57003 0)
(0.0401928 4.02893 0)
(-0.0164737 1.40954 -2.05223e-21)
(-0.0133876 1.36139 0)
(-0.00994295 0.74067 0)
(1.41017 0.0348828 0)
(0.760543 0.0154375 0)
(0.709518 0.0142639 0)
(1.41618 -0.0328491 0)
(0.773512 -0.00874037 0)
(0.322203 0.480559 -8.35784e-19)
(0.156868 0.232806 0)
(0.325117 0.50941 9.3668e-20)
(0.163439 0.268554 0)
(1.24005 1.38577 1.6657e-19)
(0.778265 0.740344 -3.92668e-19)
(0.411149 1.42008 0)
(0.606464 1.53209 0)
(0.303179 0.813699 0)
(0.145443 0.353626 -4.42998e-19)
(0.607398 0.280759 0)
(0.313547 0.134652 3.98856e-19)
(1.42666 1.30591 0)
(1.58612 1.16798 0)
(0.874548 0.663563 4.61941e-19)
(1.73342 0.952752 0)
(1.06832 0.438632 2.32152e-20)
(1.47297 0.00813749 0)
(1.501 -0.0292397 0)
(0.801894 -0.00441662 0)
(1.95042 -0.19978 0)
(1.65082 -0.14818 0)
(1.05215 -0.0889699 0)
(3.06126 0.164853 0)
(3.03105 0.0687873 0)
(3.01022 0.0531593 0)
(0.035724 1.60908 6.08548e-19)
(0.0179158 0.828767 0)
(0.0180864 1.70024 1.08035e-18)
(0.00308679 0.941083 -9.71254e-19)
(0.0646416 1.15029 1.88078e-19)
(0.0476659 0.987321 0)
(0.0401503 0.527745 0)
(-0.0286204 1.0034 0)
(-0.0069863 0.516483 0)
(0.0179027 1.61864 -4.43276e-21)
(-0.018259 0.867493 0)
(-0.054043 1.58696 -2.25745e-19)
(-0.0163044 0.822177 4.3718e-19)
(-0.0018208 1.02773 0)
(0.0101658 1.0421 0)
(7.30114e-06 0.530549 0)
(0.0105173 1.16978 0)
(0.000783372 0.611827 0)
(1.46827 -0.00371001 0)
(0.789195 0.00805648 0)
(1.44052 0.0331629 0)
(0.76178 -0.000558861 0)
(0.67539 0.00534353 0)
(1.26197 0.0166803 0)
(1.20241 0.0473072 0)
(0.659701 0.0155549 0)
(-0.00580052 1.42077 -1.70224e-20)
(0.000184316 1.37708 0)
(0.00482011 0.732923 0)
(0.00172892 0.417221 0)
(0.284541 0.828959 0)
(0.253703 0.399849 -2.87177e-19)
(-0.00222351 0.635419 0)
(-0.00889445 0.367611 0)
(0.00793331 4.33988 0)
(-0.0527219 4.66426 0)
(-0.0222909 4.56747 0)
(-0.0739485 3.364 2.04748e-20)
(-0.0618578 4.6013 0)
(-0.0550657 4.17685 0)
(0.00467972 0.819649 1.07772e-20)
(0.0140752 1.56332 1.65335e-19)
(-0.0359811 1.50329 1.2086e-19)
(-0.00757191 0.826203 0)
(0.664486 0.105717 1.15336e-18)
(0.325708 0.0441647 -1.13032e-18)
(0.14996 1.1351 0)
(0.10114 0.574166 -2.6939e-19)
(0.118511 1.23534 -8.74866e-19)
(0.0520469 0.688358 8.70363e-19)
(0.809204 0.024063 0)
(1.55677 0.0476787 0)
(1.7097 0.127652 0)
(0.919846 0.0445225 0)
(0.00766382 1.18145 0)
(0.0256523 1.18996 0)
(0.00436836 0.62758 0)
(0.482209 0.315145 1.20374e-18)
(0.436933 0.309148 -1.38685e-18)
(0.234808 0.164203 0)
(1.93534 0.152962 1.15248e-19)
(1.13631 0.0932287 0)
(1.72425 0.118428 0)
(0.883682 0.022688 0)
(0.678222 0.0857419 0)
(0.699757 0.0460621 -5.40786e-18)
(0.346748 0.032597 1.99914e-18)
(0.00914641 0.807283 1.69387e-18)
(0.00222251 0.462509 4.08166e-20)
(-0.0108777 1.40842 -3.58037e-20)
(0.00613616 1.38675 1.36599e-18)
(-0.0149832 0.848955 6.29495e-20)
(-0.0119261 0.524486 -2.52929e-22)
(-0.107514 1.00068 -1.16498e-18)
(-0.0529602 1.3532 8.34065e-19)
(-0.0175323 1.35275 -1.35788e-18)
(1.42271 -0.0170868 0)
(1.44234 0.020316 0)
(0.769862 -0.000179189 0)
(1.45218 0.0253826 0)
(1.3632 0.0462291 0)
(0.761544 0.0203065 0)
(1.30063 -0.00215489 0)
(1.31868 -0.0058501 0)
(0.69506 -0.000987419 0)
(0.304975 0.47359 -9.1538e-19)
(0.161416 0.242765 0)
(0.15725 0.308593 1.36977e-19)
(0.309778 0.586219 1.12245e-18)
(0.307563 0.548857 -6.64494e-19)
(0.156901 0.28203 1.29851e-18)
(0.278714 0.718269 2.18232e-18)
(0.148393 0.381135 3.93788e-19)
(0.636165 0.213121 1.53758e-18)
(0.626074 0.253637 3.99351e-19)
(0.316652 0.115056 7.49331e-19)
(1.92089 0.714402 -5.99809e-19)
(1.16748 0.336012 -7.02026e-19)
(-0.0351582 1.70738 4.64355e-19)
(-0.0114804 0.927139 0)
(1.60382 0.0239379 0)
(1.52185 0.0653648 0)
(0.852901 0.0268526 0)
(-0.00355882 1.38473 0)
(0.00507419 0.729574 2.49537e-18)
(0.00465034 0.731252 0)
(0.00207079 0.415097 -2.4424e-18)
(-0.0102752 1.38627 5.95716e-19)
(-0.00947268 1.4225 0)
(0.336673 0.488312 2.57999e-19)
(0.360159 0.546576 -8.63137e-19)
(0.171894 0.257901 7.81266e-19)
(-0.0256701 0.767465 -1.66282e-18)
(-0.0261505 0.689732 0)
(-0.0154341 0.412935 0)
(0.0299395 1.55006 -1.27604e-20)
(0.0311682 1.58217 -3.64668e-19)
(0.0177971 0.82353 -1.55938e-20)
(0.213717 1.04538 8.90456e-19)
(0.119821 0.509563 -5.92552e-19)
(0.0119611 1.48788 7.31017e-19)
(0.0560505 1.35339 -8.15898e-19)
(0.0269258 0.761841 3.53328e-20)
(0.007513 1.36614 -3.80797e-18)
(-0.000215319 1.39326 4.40985e-18)
(0.00377333 0.829776 1.7331e-18)
(-0.0138292 0.805094 -1.72557e-18)
(-0.00430913 0.481399 -1.73873e-18)
(-0.0106512 1.41685 -4.50025e-18)
(-0.0152179 1.40032 4.58945e-18)
(0.286575 0.675258 0)
(0.29997 0.635017 -2.28834e-18)
(0.152038 0.331914 9.90631e-19)
(0.281495 0.796642 1.18549e-18)
(0.138947 0.427873 -1.8292e-18)
(2.05676 0.322507 4.15879e-19)
(2.05124 0.547584 0)
(1.21849 0.220933 -4.0184e-19)
(-0.0740938 1.63886 -4.80193e-21)
(-0.0142816 1.69453 0)
(-0.0157846 0.924084 0)
(0.227369 0.945507 -3.2292e-19)
(0.248497 0.867326 -7.07187e-19)
(0.128951 0.463698 1.32529e-18)
(3.16442 -0.442873 0)
(3.34728 -0.414685 1.8129e-18)
(0.0599947 3.48683 0)
(0.0475274 2.81063 0)
(3.15925 0.249915 1.41919e-20)
(3.12355 0.506295 3.71231e-18)
(0.0214116 3.42933 -2.74781e-20)
(0.00843191 2.66167 0)
(-0.0416395 1.19605 1.55519e-18)
(0.190162 1.31654 0)
(3.47206 1.62466 -3.24808e-19)
(3.17427 0.272572 -2.96098e-20)
(3.14838 -0.118698 0)
(3.10047 -0.000404558 3.73062e-22)
(0.0439286 2.58537 0)
(0.15821 3.30686 0)
(-0.0552158 2.52998 0)
(-0.0235839 3.49442 3.15785e-19)
(-0.0259106 3.57383 1.99262e-19)
(2.63348 0.0488202 -1.36488e-20)
(3.04747 0.0311397 0)
(3.15785 0.0868178 0)
(-0.054882 4.61761 0)
(-0.0468565 3.08372 0)
(-0.0729937 2.93529 0)
(0.652042 3.10168 2.65942e-19)
(3.33884 -0.422459 0)
(3.0114 -0.34581 0)
(3.1699 -0.0530375 2.27732e-18)
(3.2927 -0.3287 -2.74214e-18)
(3.1038 -0.125777 0)
(-0.0606553 4.51629 0)
(0.0136885 3.93705 0)
(0.00504732 4.26748 0)
(-0.0280118 3.09621 0)
(-0.0142538 2.8532 0)
(-0.0312517 2.42564 0)
(2.97421 -0.00317384 0)
(2.85044 0.0486247 -1.80499e-20)
(2.24592 3.04757 -3.21795e-19)
(3.15695 0.0444546 -2.27839e-18)
(3.19037 0.278179 2.76949e-18)
(3.0828 0.117337 0)
(3.3954 0.328924 2.08741e-18)
(3.35695 0.484366 -2.7067e-18)
(3.07111 0.418429 0)
(-0.0561967 3.34664 0)
(0.0042408 3.27485 8.52636e-20)
(-0.0310296 2.57449 -6.04151e-20)
(3.70767 0.5552 2.26571e-18)
(3.47086 0.208447 0)
(-0.151964 1.27126 -2.16619e-18)
(-0.062409 0.882158 -1.35051e-19)
(-0.084795 1.33674 2.98597e-18)
(-0.0352113 1.27047 -8.99727e-19)
(-0.000471686 1.08843 0)
(-0.0266654 1.23955 6.94939e-19)
(-0.115046 1.38786 2.14681e-18)
(-0.059044 1.34056 -1.31429e-18)
(-0.0767397 1.32063 0)
(1.28954 0.597308 0)
(1.17755 0.682518 0)
(3.55619 2.02897 9.53721e-19)
(3.04916 1.93534 -1.19085e-18)
(3.83743 1.70621 0)
(3.38375 1.15658 0)
(3.34934 0.280494 -3.91705e-18)
(2.89884 0.173119 4.84005e-18)
(3.35145 -0.155481 0)
(2.85478 -0.0761375 0)
(3.43642 0.0430242 0)
(3.5938 0.145055 0)
(3.28683 0.119874 0)
(3.55033 0.298579 0)
(3.40841 0.293058 0)
(3.32755 0.218073 0)
(0.0974648 2.78648 0)
(0.0345045 2.07566 0)
(0.126607 3.04722 0)
(0.0925275 2.20196 0)
(0.215609 3.59951 0)
(0.140564 2.6791 -5.58853e-19)
(0.0537902 3.61635 0)
(0.0117188 3.02064 4.058e-19)
(-0.024574 3.20939 -5.17143e-19)
(-0.0596567 2.79469 0)
(-0.0231105 2.19799 0)
(-0.07243 2.90174 0)
(-0.0556686 2.04566 0)
(-0.107716 4.75134 -2.45499e-19)
(-0.0803873 3.94515 2.77212e-19)
(-0.0750759 3.80706 3.09039e-19)
(-0.053047 3.02166 0)
(-0.1055 3.80704 -4.58686e-19)
(-0.0378001 3.21854 -2.95026e-19)
(-0.0821246 4.78368 1.92556e-19)
(-0.0949263 4.46832 -3.50391e-19)
(-0.0696895 4.33855 -3.78887e-19)
(3.03138 0.0883718 3.35881e-18)
(2.28963 0.0321781 -4.23004e-18)
(2.89137 0.132831 -3.32773e-18)
(2.20964 0.0734827 4.15653e-18)
(3.36855 0.0277113 0)
(2.64304 -0.00265533 0)
(3.45411 0.0913298 0)
(3.32021 0.0192738 0)
(2.7066 0.00921804 0)
(3.68022 0.239587 0)
(3.43877 0.0959705 0)
(2.86359 0.056498 0)
(-0.0245121 4.33319 -1.20407e-20)
(-0.0578171 4.65315 0)
(-0.0631912 4.54766 0)
(-0.0762669 3.50522 8.77603e-20)
(-0.0379456 2.77926 -3.46599e-21)
(-0.0826739 4.66991 1.1344e-19)
(-0.0966964 4.45889 -1.14637e-19)
(-0.0798253 3.95606 0)
(-0.0579291 3.87704 0)
(-0.0218581 3.99405 0)
(-0.0723484 3.25563 0)
(-0.0430141 2.30034 0)
(0.94842 3.6579 -6.09116e-19)
(0.92038 2.85008 -1.76469e-19)
(0.43099 2.05516 -2.28288e-19)
(0.252837 2.30248 6.97314e-19)
(1.02508 4.20209 2.6383e-19)
(3.43308 -0.167424 0)
(3.32213 -0.256547 0)
(2.88327 -0.189516 0)
(3.47032 -0.0643477 0)
(3.34581 -0.147865 0)
(3.44893 -0.261024 0)
(3.5195 -0.283602 0)
(3.57949 -0.281131 0)
(3.22414 0.093383 3.6191e-18)
(2.5552 0.0645163 -4.5763e-18)
(3.09651 0.106573 -3.56256e-18)
(2.50911 0.0566716 4.43282e-18)
(2.23953 3.41529 0)
(1.73871 2.94616 -4.4584e-19)
(2.56663 3.34777 -4.03337e-19)
(2.36857 2.52828 5.36068e-19)
(0.774853 1.2135 2.72261e-18)
(1.44687 0.216482 1.34323e-18)
(3.72245 0.304186 0)
(3.89301 0.572716 -1.84615e-18)
(3.29883 0.243907 -8.23458e-20)
(3.72091 0.440086 0)
(0.236768 1.31241 1.79627e-18)
(-0.0165766 1.20201 -2.87663e-18)
(0.058881 0.769981 1.61469e-18)
(0.276038 0.46495 -7.47915e-19)
(0.187337 1.38388 8.71086e-19)
(0.0506916 1.23722 0)
(0.0577706 1.08624 -1.1324e-18)
(0.191834 1.44307 -4.09255e-18)
(0.329176 1.55711 0)
(0.00867176 1.2902 1.19597e-19)
(-0.00971877 1.45729 -1.34034e-18)
(-0.041016 1.30282 1.94857e-18)
(-0.0574461 1.41766 0)
(-0.020478 1.38227 0)
(0.681328 1.05022 0)
(2.45756 2.45549 -1.06627e-18)
(2.64326 2.17285 3.95304e-19)
(2.79206 2.88164 0)
(3.21292 3.06683 -3.94587e-19)
(3.16551 2.41111 2.84551e-20)
(0.803868 0.58947 -1.82253e-18)
(1.55609 0.69152 -1.62205e-20)
(1.23304 0.451042 8.72185e-19)
(1.27526 0.843754 5.95089e-20)
(0.93897 0.633924 -2.36964e-18)
(1.46444 0.714226 0)
(1.99018 1.09982 1.456e-18)
(2.0323 1.01576 0)
(1.41202 0.790777 0)
(1.06209 0.549733 0)
(3.37586 2.18012 1.00851e-18)
(3.94739 0.760779 -1.86347e-18)
(3.84767 1.21588 0)
(3.53351 0.757651 0)
(1.39148 0.364782 1.33253e-18)
(3.25842 1.84225 -8.51534e-19)
(2.83482 1.65448 1.54689e-18)
(3.75547 1.37698 -1.83592e-18)
(3.09794 0.114757 2.46404e-18)
(3.16856 0.180815 -2.579e-18)
(2.66184 0.0916413 0)
(3.3073 -0.0395011 0)
(3.20141 -0.0842592 -2.36658e-18)
(2.63243 -0.0321112 2.34574e-18)
(3.9563 0.0931963 0)
(3.75969 0.145647 0)
(3.69369 0.155371 0)
(3.5883 0.204746 0)
(3.83261 0.0590279 0)
(3.72611 0.0522501 0)
(-0.0401682 2.50877 0)
(-0.0377283 2.00852 0)
(0.357301 3.9851 -4.11138e-19)
(0.662487 3.33015 -1.60087e-19)
(0.259397 3.02399 -3.5813e-19)
(0.343475 2.54487 5.73667e-19)
(0.458349 4.0115 0)
(0.470967 4.67122 -5.0986e-19)
(0.384526 4.72936 0)
(0.91271 4.37704 -3.79522e-19)
(0.674875 3.8181 9.68995e-19)
(0.598429 4.65193 4.46891e-19)
(0.741145 4.19862 -1.87503e-19)
(0.603033 4.32379 1.50856e-19)
(0.917398 4.65617 -6.63735e-19)
(0.750463 4.66193 0)
(0.859963 4.58929 5.04552e-19)
(0.00708041 4.57547 -1.8113e-19)
(-0.0186944 3.65235 0)
(0.101844 4.29103 5.49607e-19)
(-0.0026062 4.39431 0)
(-0.00355682 3.46409 -4.51243e-19)
(-0.0152653 2.91782 0)
(-0.100878 4.30544 -2.8899e-19)
(-0.10664 4.68108 0)
(-0.0532242 3.80215 0)
(-0.0403461 3.72364 3.25039e-19)
(-0.0475846 3.89279 1.0377e-20)
(-0.035171 3.71436 6.26009e-19)
(-0.0414789 2.95464 4.06896e-21)
(-0.115288 4.71111 1.80108e-19)
(-0.104154 4.74241 1.03175e-19)
(-0.0172289 2.62065 0)
(0.0009036 2.13357 0)
(-0.041754 4.78993 4.86003e-19)
(-0.0484056 4.30577 4.23488e-19)
(-0.0833479 4.58336 -5.5368e-19)
(0.016581 4.75768 0)
(-0.0803901 4.53512 -3.09049e-19)
(-0.119279 4.16894 1.27736e-19)
(-0.0864028 4.25024 -4.13009e-20)
(-0.0717961 4.72984 -2.18798e-19)
(-0.0868542 4.27198 -6.8532e-20)
(-0.0850188 4.21722 3.06654e-19)
(2.87144 0.0610179 -2.36367e-18)
(2.8589 0.0496978 2.27314e-18)
(2.33862 0.034554 0)
(3.51016 0.192005 3.04669e-18)
(2.70375 0.126532 -3.30494e-18)
(2.25456 0.0644772 3.60978e-18)
(3.68256 0.335296 -4.01663e-19)
(3.20988 -0.0485264 0)
(3.17211 -0.0135568 2.23713e-18)
(2.69089 -0.0123783 -2.2195e-18)
(3.87873 0.122217 -1.25246e-19)
(3.77174 0.101838 1.0784e-18)
(4.15974 0.173453 0)
(4.22845 0.181112 -3.75154e-19)
(4.01372 0.145211 0)
(3.69493 0.155389 0)
(4.0323 0.0950776 0)
(3.7118 0.0873245 0)
(4.18472 0.113863 7.85546e-19)
(4.1372 0.0791197 -1.74801e-18)
(4.14066 0.113866 -8.4806e-19)
(4.18639 0.116506 -9.24541e-19)
(4.21568 0.228971 1.77418e-18)
(3.85471 0.188602 0)
(4.06122 0.301858 0)
(-0.0744537 4.58033 -1.35752e-19)
(-0.0349089 4.64402 -1.16801e-20)
(-0.0678619 4.66086 0)
(-0.0567932 4.19632 1.38134e-19)
(-0.0552564 4.22303 2.25433e-20)
(-0.0597773 4.09098 -2.18523e-20)
(-0.0809706 3.53017 2.61139e-19)
(-0.144772 4.00854 -1.45187e-20)
(-0.103595 4.1364 7.47476e-20)
(-0.0749717 3.40478 -1.32321e-19)
(-0.0251471 2.92779 1.58463e-19)
(-0.0776478 4.42831 5.19421e-21)
(-0.0906717 4.64244 1.72198e-19)
(1.24396 4.35708 3.47561e-19)
(1.16039 4.52718 7.25949e-19)
(1.73615 3.46397 4.31118e-19)
(1.30809 3.55731 1.6964e-19)
(1.28541 2.88685 0)
(0.549366 2.32121 2.74981e-19)
(0.464142 1.74331 3.3082e-19)
(0.345805 2.57078 1.51289e-20)
(0.493186 3.17722 -1.16146e-18)
(0.633148 3.13558 8.76785e-19)
(0.43357 2.40727 0)
(0.29417 1.97455 -5.57515e-19)
(0.260517 3.08202 1.39534e-18)
(0.273935 2.72316 -3.14161e-20)
(0.158329 2.27982 -1.74887e-18)
(0.591872 1.41197 1.46372e-18)
(0.576949 1.61814 0)
(3.58364 -0.0751517 8.64378e-20)
(3.61861 -0.254103 -7.26004e-20)
(3.72135 -0.217715 -1.26662e-18)
(3.75927 -0.126022 1.2825e-18)
(3.67616 -0.0488587 0)
(2.44653 3.87036 0)
(2.61835 3.91395 0)
(2.88974 3.62468 0)
(2.73674 3.64217 0)
(0.85461 1.39498 -3.33709e-21)
(0.611782 1.03951 0)
(1.71043 3.38563 1.50228e-20)
(1.42239 3.46492 0)
(1.32776 2.95221 -1.28397e-18)
(1.40828 2.89461 8.2457e-19)
(1.79141 0.310409 0)
(1.43057 0.26203 3.52087e-19)
(2.4118 0.358825 2.19191e-18)
(1.78619 0.284835 -7.85475e-19)
(1.42641 0.112198 -2.49513e-18)
(4.26629 0.789955 -2.56564e-18)
(3.85218 0.9951 -3.67173e-20)
(3.29719 0.844578 2.06795e-18)
(3.87596 0.745381 1.81338e-18)
(3.12324 0.465658 -3.04521e-18)
(2.9104 0.452142 3.75009e-19)
(3.19273 0.682295 -8.18767e-19)
(2.97631 0.683366 0)
(3.75882 0.563924 1.53773e-18)
(4.09576 0.629306 0)
(4.09129 0.776357 0)
(4.04569 0.415843 8.23727e-19)
(4.29663 0.642475 -3.02495e-20)
(4.24936 0.715761 -4.52907e-19)
(4.17649 0.643149 0)
(3.61572 0.13039 1.71827e-18)
(4.19001 0.183554 2.14432e-18)
(4.09071 0.151626 -1.67951e-18)
(4.13654 0.240826 -1.44293e-18)
(3.74579 0.238177 -2.15649e-18)
(3.30302 0.375942 0)
(3.40352 0.302374 0)
(2.55822 0.190639 -1.26612e-18)
(2.10857 0.119109 4.76794e-19)
(4.03727 0.352575 1.94045e-18)
(4.28771 0.432763 -2.34664e-18)
(4.28491 0.489388 2.06903e-18)
(4.15718 0.493443 0)
(4.25662 0.337226 0)
(4.26648 0.322355 -9.81972e-19)
(4.21431 0.316105 -1.59661e-18)
(2.22796 3.48787 6.20512e-19)
(1.9388 3.23184 -6.83436e-19)
(1.44654 2.35633 -1.03204e-18)
(1.18695 1.99692 2.66883e-19)
(0.884207 1.3787 -2.62913e-18)
(0.793997 1.21586 9.22269e-19)
(0.601018 0.904274 -1.96495e-21)
(1.11509 1.78534 -1.13803e-18)
(1.14247 1.88254 1.69886e-18)
(0.974779 1.70062 5.06146e-19)
(0.786248 1.28903 -5.12763e-19)
(0.635625 1.07471 0)
(2.4465 2.6072 -1.15444e-19)
(0.705502 1.14438 8.57349e-19)
(0.928056 0.889955 1.15633e-18)
(0.755542 0.813795 1.33793e-18)
(1.08337 0.746693 1.3413e-18)
(1.46733 1.04456 -2.27052e-18)
(1.38336 1.07148 1.83963e-18)
(1.00208 0.765715 -6.76835e-19)
(0.817231 0.568142 1.49481e-18)
(1.61571 0.490801 -7.78166e-19)
(1.55919 0.50839 0)
(1.23971 0.407381 4.60829e-21)
(2.50977 1.51606 7.75629e-19)
(2.08031 1.27035 -2.80885e-18)
(1.68712 1.18465 9.09666e-21)
(1.66114 1.09255 0)
(2.86285 2.59525 8.73851e-19)
(3.44702 2.75252 1.03751e-18)
(3.25614 2.93057 -1.196e-18)
(3.5543 2.76298 -4.28409e-19)
(3.48412 2.60295 -1.34906e-19)
(3.51239 2.79449 1.388e-19)
(3.6746 2.26676 -1.6795e-18)
(3.7052 2.4918 4.00784e-19)
(3.78357 2.43536 0)
(3.78429 2.19112 -5.79754e-19)
(4.04906 1.07321 5.80596e-19)
(4.27591 0.993001 1.00224e-18)
(4.30039 0.966709 1.01173e-18)
(4.05513 1.32918 -1.14969e-18)
(4.1028 1.34951 0)
(4.15241 1.23348 0)
(3.32804 1.2357 -1.56002e-20)
(2.41802 0.666521 0)
(2.72215 0.74405 9.30712e-19)
(3.23855 0.885899 -2.6451e-20)
(3.77314 1.53456 5.10774e-18)
(3.57015 1.7618 1.3112e-18)
(3.48131 1.54043 -1.34074e-18)
(3.0378 1.3698 1.43752e-18)
(2.76113 1.36973 8.23825e-19)
(2.30701 1.15601 -7.97857e-19)
(3.6722 -0.0855483 1.98472e-18)
(3.8947 -0.0289382 0)
(3.85894 -0.0665543 1.34213e-18)
(3.74291 -0.0594137 -2.98789e-18)
(3.98056 0.0373698 1.46204e-18)
(3.90444 0.11342 -3.08309e-18)
(3.73986 0.128028 0)
(3.55625 0.173466 -6.28576e-19)
(3.81198 0.122977 1.60535e-18)
(3.69196 0.19138 -8.22596e-19)
(3.6003 0.171075 5.90743e-19)
(-0.0803938 2.5874 0)
(-0.0471591 3.39387 0)
(-0.0319066 2.45827 0)
(-0.0216212 1.96771 0)
(0.0464945 3.93698 6.70416e-19)
(0.140429 3.718 -1.72906e-19)
(0.318054 4.64245 -2.29671e-19)
(0.253513 4.45765 2.42558e-19)
(-0.0249773 4.29084 -4.97301e-19)
(0.0122463 4.323 3.73444e-19)
(0.0959693 3.86533 2.22745e-20)
(0.0098904 3.55236 -4.66954e-19)
(-0.0124477 3.30427 -6.22385e-20)
(-0.0393547 3.66687 -5.67071e-20)
(0.153939 4.47841 -5.86973e-19)
(0.179233 4.29257 0)
(0.276592 4.63711 2.96432e-19)
(0.269596 4.71006 2.53021e-19)
(0.597169 4.44646 -2.26011e-19)
(0.409504 3.78527 0)
(0.458633 3.63246 -1.11524e-18)
(0.561786 4.00129 7.90225e-19)
(0.481497 4.56371 -6.14867e-19)
(0.371689 4.43579 3.30792e-19)
(0.300836 4.15915 0)
(-0.0348277 4.76349 -5.53011e-19)
(-0.0746014 4.5314 -6.41491e-19)
(-0.0757875 4.74261 0)
(-0.0287955 4.36448 -6.2565e-21)
(-0.0186212 4.64479 2.74173e-19)
(-0.119075 3.87855 4.46784e-20)
(-0.0559773 3.48351 -6.53347e-19)
(-0.0962503 3.92202 1.74139e-19)
(-0.136128 4.51531 2.32132e-19)
(-0.0763955 4.32506 0)
(-0.0606571 3.8836 0)
(-0.0827487 2.89726 2.0077e-19)
(-0.0485059 3.62967 -6.26444e-20)
(-0.0736298 3.61689 0)
(-0.0886839 2.68562 1.58077e-19)
(-0.0467108 2.19299 -3.06289e-19)
(3.76102 0.0323351 0)
(3.73189 0.00773673 -2.03289e-19)
(4.1795 0.067947 -1.44004e-18)
(4.0891 0.0462975 0)
(3.87632 0.0178101 0)
(4.14973 0.0370485 -1.25238e-20)
(4.1003 0.0349442 2.37907e-18)
(4.0001 0.0802039 2.84585e-18)
(3.75587 0.118663 0)
(3.55803 0.110049 0)
(4.01333 0.093949 1.41757e-18)
(3.70326 0.11613 0)
(3.47212 0.128871 0)
(-0.0833079 4.70042 0)
(-0.109326 4.66825 1.0664e-20)
(-0.0796133 4.72012 6.30055e-20)
(-0.0622784 3.83073 0)
(-0.114644 4.53573 1.11212e-19)
(-0.0702866 4.24051 -6.33501e-20)
(-0.0559793 3.92879 0)
(1.41213 4.18732 0)
(1.2104 4.57971 -1.29804e-18)
(1.22594 4.48853 0)
(1.57498 4.48607 1.48459e-18)
(1.59337 4.11845 0)
(1.50201 4.36969 -6.0664e-19)
(1.01228 2.24393 -3.39566e-20)
(0.709757 1.64646 -1.74513e-18)
(0.591093 1.22823 2.12918e-18)
(0.709469 1.83645 3.96935e-19)
(0.976063 2.42598 0)
(1.03741 2.38092 0)
(0.718999 1.68854 0)
(0.532789 1.33112 -1.39566e-18)
(1.21071 3.77698 -9.83638e-19)
(1.13011 2.99112 -2.35552e-19)
(1.32847 3.407 1.92641e-19)
(0.600053 2.04293 0)
(0.620927 1.94435 0)
(0.462771 1.57261 -3.92872e-19)
(0.958812 2.72268 0)
(2.68791 3.57087 0)
(2.38225 3.009 -1.45472e-18)
(2.54681 3.02723 -8.58826e-20)
(2.42084 3.4047 0)
(2.28676 3.14999 2.22134e-18)
(3.27842 3.0865 -3.89741e-19)
(3.13418 3.32428 0)
(3.11655 3.15061 6.30521e-19)
(2.87091 3.41245 0)
(2.88263 3.20076 0)
(1.20994 2.00717 -9.30601e-19)
(1.41486 2.40426 -6.99634e-19)
(1.75468 2.9828 1.20613e-18)
(1.69691 2.96092 -3.62302e-19)
(1.06302 1.82305 0)
(1.2076 2.20951 4.71191e-19)
(0.718797 1.28927 -7.15361e-19)
(0.581922 1.04395 -5.68455e-22)
(1.93875 3.69678 0)
(2.20041 3.74342 -5.42645e-19)
(2.33938 3.98635 0)
(2.2843 0.529019 0)
(1.61751 0.341928 0)
(1.20916 0.276608 0)
(2.20937 0.554281 -1.46534e-18)
(1.63548 0.402226 8.17297e-19)
(2.14573 0.129118 -9.85216e-19)
(2.62674 0.297519 0)
(2.46581 0.301641 4.1351e-19)
(1.76999 0.135718 1.63308e-18)
(1.53035 0.0812682 -1.03709e-18)
(0.745808 1.55626 8.58167e-19)
(0.960179 1.82083 0)
(0.537829 1.44032 1.5611e-18)
(0.524072 1.61506 -1.42544e-18)
(0.757511 1.81478 -9.88493e-19)
(2.07427 2.46315 1.33786e-18)
(2.09771 2.71264 0)
(1.58412 1.67853 -2.76379e-19)
(2.01042 1.98988 1.74524e-18)
(1.36033 1.29292 -4.23626e-19)
(1.58916 1.31376 4.5074e-19)
(2.11018 1.51349 1.02328e-18)
(2.44335 1.6712 0)
(2.27671 1.85643 0)
(2.01053 1.60636 0)
(3.95686 2.0795 3.84556e-19)
(3.76009 1.8896 -1.26362e-18)
(3.81752 2.02784 1.04682e-18)
(3.90125 1.77125 -1.00838e-18)
(4.15784 1.67361 0)
(4.11688 1.84075 -2.97862e-19)
(2.8409 1.16337 -1.89743e-18)
(2.97122 1.16345 -2.41316e-18)
(2.33238 1.04365 1.45653e-18)
(2.13862 0.934525 -1.41994e-18)
(2.46384 0.846217 -1.17819e-18)
(2.1789 0.777018 1.44893e-18)
(4.00845 0.0334687 -1.52896e-18)
(4.05276 0.040681 3.13035e-18)
(3.76797 -0.0658871 1.90099e-18)
(3.79118 -0.0737783 -2.28688e-18)
(3.95954 0.0105628 0)
(4.05603 0.0228669 -3.72999e-18)
(0.0967453 4.76203 1.06577e-19)
(0.0675873 4.73144 0)
(0.190148 4.73201 9.53229e-19)
(0.211683 4.74923 -8.6721e-19)
(0.231552 4.71707 4.28316e-19)
(0.122451 4.65654 0)
(-0.10304 4.77174 0)
(-0.108831 4.40289 -6.18436e-20)
(-0.107895 4.33182 5.54317e-20)
(-0.116693 4.48165 7.18702e-21)
(-0.107358 4.72211 -1.01125e-19)
(-0.0842308 4.70987 5.50663e-20)
(1.87702 4.01038 -1.6433e-18)
(1.81796 4.01716 1.74029e-18)
(1.68499 4.40583 -8.54261e-19)
(1.69444 4.27811 7.61338e-20)
(2.25308 4.08534 0)
(1.85479 4.21822 -6.3571e-19)
(1.98184 3.9579 6.16549e-19)
(1.82462 4.37951 8.34454e-19)
(2.07744 4.21889 0)
(2.22899 4.09972 0)
(1.14017 3.63331 1.49529e-18)
(0.827909 2.81401 2.02394e-18)
(0.955698 2.99226 -1.39002e-18)
(0.747887 2.97439 -2.31987e-19)
(0.904216 3.73369 4.66446e-19)
(0.723698 3.36652 -1.13438e-18)
(0.746245 1.4665 -1.21506e-18)
(0.746632 1.31754 0)
(0.602891 1.11503 -1.33552e-18)
(1.11161 2.06499 0)
(1.08863 2.15198 0)
(1.35916 2.19123 -1.09071e-18)
(1.06486 2.01459 -1.03612e-18)
(1.01722 2.03542 1.09881e-18)
(1.03153 1.51943 0)
(1.41088 1.76213 -6.01285e-19)
(1.62791 2.11943 -8.55511e-19)
(1.41138 2.08297 0)
(0.868151 1.81865 7.12539e-19)
(0.780038 1.67967 0)
(2.9067 2.28902 -1.84716e-18)
(3.31933 2.4705 2.60942e-18)
(3.27807 2.19304 -2.59352e-18)
(2.61093 2.02107 -2.31194e-19)
(2.72548 1.94045 -9.7422e-19)
(1.26238 2.19022 7.96255e-19)
(1.31657 2.24514 -1.36006e-18)
(1.45469 2.33001 1.79296e-18)
(1.79106 2.56006 -1.16534e-18)
(1.88984 2.93302 -1.56735e-18)
(1.56384 2.48925 -1.18811e-19)
(1.63368 2.62892 1.37141e-18)
(1.81082 2.69364 9.66267e-20)
(2.01883 2.99939 6.50062e-19)
)
;

boundaryField
{
    wall-4
    {
        type            noSlip;
    }
    velocity-inlet-5
    {
        type            fixedValue;
        value           uniform (3 0 0);
    }
    velocity-inlet-6
    {
        type            fixedValue;
        value           uniform (0 1 0);
    }
    pressure-outlet-7
    {
        type            zeroGradient;
    }
    wall-8
    {
        type            noSlip;
    }
    frontAndBackPlanes
    {
        type            empty;
    }
}


// ************************************************************************* //
