/*--------------------------------*- C++ -*----------------------------------*\
  =========                 |
  \\      /  F ield         | OpenFOAM: The Open Source CFD Toolbox
   \\    /   O peration     | Website:  https://openfoam.org
    \\  /    A nd           | Version:  9
     \\/     M anipulation  |
\*---------------------------------------------------------------------------*/
FoamFile
{
    format      ascii;
    class       volVectorField;
    location    "50";
    object      U;
}
// * * * * * * * * * * * * * * * * * * * * * * * * * * * * * * * * * * * * * //

dimensions      [0 1 -1 0 0 0 0];

internalField   nonuniform List<vector> 
10720
(
(-12.9182 -34.4748 7.08889e-18)
(-15.3922 -38.9059 -6.3134e-18)
(-18.0282 -42.198 0)
(-20.4369 -43.4413 -1.9984e-16)
(-22.7439 -43.3442 2.00892e-16)
(-24.7393 -41.702 6.53672e-17)
(-26.2842 -38.9155 1.0699e-16)
(-27.3013 -35.5347 0)
(-27.6455 -31.7559 0)
(-27.3282 -27.8379 0)
(-26.4271 -23.9755 6.90528e-17)
(-24.9996 -20.2653 0)
(-23.138 -16.7946 -2.16391e-15)
(-20.9087 -13.6109 0)
(-18.3787 -10.746 0)
(-15.6175 -8.22513 0)
(-12.6849 -6.05357 1.1077e-14)
(-9.62866 -4.23105 2.10674e-14)
(-6.50477 -2.75254 -2.65931e-14)
(-3.36831 -1.61892 0)
(-0.331524 -0.800224 -5.91712e-14)
(2.55241 -0.149383 9.79689e-14)
(5.44846 0.324934 -3.1577e-14)
(8.27053 0.546006 6.96442e-16)
(10.8958 0.563285 0)
(13.3554 0.43886 -6.63997e-15)
(15.7027 0.193285 -8.83923e-17)
(17.9567 -0.161629 2.28321e-15)
(20.1294 -0.615608 7.60826e-15)
(22.2374 -1.15285 2.50633e-14)
(24.2873 -1.76001 -1.02229e-14)
(26.3301 -2.42836 -1.70235e-14)
(28.4312 -3.16649 -1.30873e-14)
(30.6101 -3.96252 -3.92683e-14)
(33.0292 -4.84444 1.29864e-14)
(35.6028 -5.7953 7.2584e-17)
(39.3872 -7.05134 3.76646e-17)
(43.093 -8.66041 3.39136e-14)
(56.2899 -10.9807 -7.02259e-14)
(-10.4057 -28.6734 -2.88506e-18)
(-7.74509 -21.5419 -1.7238e-17)
(-4.58549 -12.8251 6.26189e-17)
(-1.05984 -2.97273 -2.73578e-16)
(0.567242 3.72167 -7.70366e-16)
(0.480084 6.00186 5.56094e-16)
(1.57772 6.87134 1.60014e-15)
(2.48219 5.31652 8.65299e-16)
(2.94065 0.912487 0)
(0.186138 -1.33503 0)
(-5.77613 0.0526877 4.15917e-16)
(-11.8261 3.1128 -1.11729e-16)
(-15.6036 5.52422 3.71076e-16)
(-15.728 5.71099 -5.47382e-16)
(-12.634 4.40456 -1.16061e-15)
(-6.90888 2.70399 -7.62537e-16)
(-0.473973 1.29489 -1.13763e-15)
(5.8464 0.0547975 -9.02079e-16)
(11.4799 -1.26893 0)
(15.7428 -2.56795 0)
(16.8292 -3.30434 3.24815e-15)
(14.2531 -2.90867 2.4493e-16)
(11.2715 -2.00305 -5.54345e-15)
(10.0541 -1.33277 6.31625e-15)
(9.71437 -0.892388 5.68375e-18)
(9.86314 -0.584956 0)
(10.9576 -0.754177 -3.47664e-15)
(11.1206 -1.03417 0)
(7.73203 -0.695416 0)
(1.52021 -0.125346 -5.34186e-15)
(-0.64494 0.186253 0)
(0.420271 0.460989 2.44454e-14)
(3.34268 0.85578 4.99007e-14)
(7.98642 1.34544 2.16882e-13)
(13.3401 1.77767 -7.65123e-14)
(23.5349 3.25402 2.24549e-16)
(33.5708 4.9232 0)
(45.6885 6.33436 -1.82607e-13)
(35.5194 9.26973 -1.81118e-13)
(-9.42833 -47.7365 -1.06599e-17)
(-9.39553 -47.6941 6.88801e-18)
(-9.86059 -47.0374 0)
(-11.067 -45.9276 0)
(-13.0031 -44.4272 -4.0268e-17)
(-15.3978 -42.5485 -6.53793e-17)
(-17.6963 -40.1387 0)
(-19.5935 -37.1746 0)
(-20.9465 -33.7972 -3.28624e-16)
(-21.651 -30.1736 0)
(-21.7177 -26.4525 -1.77145e-15)
(-21.1835 -22.7641 0)
(-20.1121 -19.2097 -1.08575e-15)
(-18.5719 -15.8682 1.19745e-15)
(-16.6315 -12.7995 -3.20131e-15)
(-14.3581 -10.0489 7.88014e-15)
(-11.8214 -7.63657 -9.68793e-15)
(-9.0839 -5.57905 -1.21102e-14)
(-6.21275 -3.8779 -1.54208e-14)
(-3.27213 -2.54506 -1.28213e-15)
(-0.345197 -1.5589 2.86905e-14)
(2.50865 -0.803763 -2.73083e-14)
(5.36783 -0.298057 1.22427e-15)
(8.1499 -0.107372 0)
(10.7627 -0.124936 0)
(13.2375 -0.270993 0)
(15.6221 -0.536395 -5.43765e-16)
(17.9325 -0.912928 1.11111e-16)
(20.1781 -1.38663 -6.27952e-15)
(22.3732 -1.93607 2.35297e-17)
(24.5207 -2.54874 -2.31747e-17)
(26.6689 -3.21867 5.70073e-17)
(28.8799 -3.96319 -1.09349e-14)
(31.1718 -4.76892 1.61221e-14)
(33.7079 -5.66098 6.70057e-17)
(36.3843 -6.63326 1.08599e-14)
(40.308 -7.96281 0)
(43.8992 -9.58005 -1.32436e-14)
(57.0368 -14.173 -5.11256e-14)
(-9.68876 -47.0084 1.28547e-17)
(-9.7868 -45.1203 -2.54883e-17)
(-9.08537 -40.8887 -2.01145e-16)
(-6.9592 -32.7109 2.18648e-16)
(-3.93098 -20.7483 0)
(-1.29875 -6.53103 -4.54797e-16)
(0.905916 3.38895 -5.91831e-16)
(0.273479 5.68489 -2.38595e-15)
(-3.50706 1.22543 6.19099e-16)
(-9.49701 -0.633676 -2.96164e-16)
(-14.9485 1.4606 2.70346e-16)
(-17.6005 4.91616 -3.99121e-17)
(-18.3322 7.56376 0)
(-17.7936 8.42362 1.89667e-16)
(-14.381 7.40168 -1.14345e-16)
(-9.00276 5.80068 3.37342e-16)
(-2.83901 4.37513 0)
(3.00828 3.04045 0)
(7.81108 1.35498 1.13809e-16)
(10.9425 -0.499716 -1.09032e-16)
(13.8245 -2.48517 2.29059e-15)
(14.6834 -3.33331 3.11496e-16)
(13.2915 -2.68515 -1.96462e-16)
(11.677 -1.68013 -3.97091e-15)
(10.6977 -0.880847 4.47133e-15)
(10.7126 -0.589675 3.86421e-15)
(10.2595 -1.21459 0)
(6.06382 -1.68606 0)
(-0.668204 -1.18524 0)
(-5.37481 -0.555238 -3.81607e-18)
(-6.60598 -0.151866 0)
(-5.67392 0.1574 0)
(-2.70383 0.557883 -3.48339e-14)
(2.29001 1.08139 -3.79874e-14)
(8.48673 1.74084 3.9729e-14)
(19.6468 3.55244 -3.60565e-14)
(28.9807 5.04492 8.27319e-14)
(44.3191 6.70453 1.18978e-13)
(34.7952 6.45156 1.10306e-13)
(-10.9896 -44.018 -2.42386e-18)
(-11.5399 -43.1627 -2.98543e-17)
(-12.5728 -42.3872 2.37799e-17)
(-13.8356 -41.6931 3.65638e-17)
(-15.1404 -40.6985 5.56368e-17)
(-16.4744 -39.2385 -2.0808e-16)
(-17.7485 -37.2997 1.53257e-16)
(-18.8343 -34.9352 3.05203e-16)
(-19.6231 -32.2059 -8.60966e-17)
(-20.0227 -29.2083 4.11149e-16)
(-19.9721 -26.0497 -7.71152e-16)
(-19.4611 -22.8327 1.51229e-15)
(-18.5055 -19.655 1.04298e-15)
(-17.1387 -16.5995 0)
(-15.4045 -13.7333 2.76535e-15)
(-13.3501 -11.1062 -6.66398e-15)
(-11.0272 -8.75183 0)
(-8.49204 -6.69493 1.92816e-14)
(-5.80384 -4.95093 1.17278e-14)
(-3.02502 -3.5325 -1.81943e-15)
(-0.222954 -2.43052 2.22199e-15)
(2.54528 -1.59737 1.0837e-15)
(5.32244 -1.02456 1.34087e-14)
(8.03588 -0.743451 -5.972e-15)
(10.6052 -0.664259 0)
(13.053 -0.721169 -4.30883e-15)
(15.4211 -0.905009 4.63253e-16)
(17.7256 -1.20788 0)
(19.9767 -1.61409 -5.47559e-15)
(22.1881 -2.10833 -9.4513e-15)
(24.3623 -2.68124 1.57776e-14)
(26.5478 -3.3217 1.2752e-14)
(28.8048 -4.06108 1.43694e-16)
(31.1514 -4.89054 1.54174e-14)
(33.7505 -5.82613 1.05628e-14)
(36.495 -6.8421 -1.05134e-14)
(40.4868 -8.18943 0)
(44.0423 -10.0495 -1.2081e-14)
(56.4771 -14.7454 9.61182e-14)
(-10.8225 -45.1798 -9.92768e-18)
(-10.9654 -46.4677 -1.34689e-17)
(-11.0278 -47.4689 7.79777e-17)
(-10.2477 -46.2726 0)
(-8.02321 -40.1413 8.56789e-17)
(-4.60377 -26.8836 0)
(-1.01481 -9.40408 8.88075e-16)
(-1.29436 2.80633 8.9976e-16)
(-8.42989 -0.0539097 4.94731e-16)
(-15.5332 -1.94564 0)
(-19.3271 0.825451 -1.07888e-16)
(-20.8991 5.23595 8.72955e-17)
(-21.5352 8.93149 -8.00455e-16)
(-20.2308 10.7686 0)
(-16.5549 10.4946 4.16937e-16)
(-11.329 9.10347 1.31517e-16)
(-5.56132 7.624 -5.28179e-16)
(-0.253916 5.96024 -3.9565e-16)
(3.96891 3.83777 -1.92227e-16)
(6.62614 1.56415 7.41292e-17)
(8.83765 -0.818474 -2.15419e-15)
(10.7213 -2.58484 0)
(11.0251 -2.54941 0)
(10.445 -1.57917 1.80404e-17)
(9.48096 -0.712028 0)
(7.91669 -0.918171 -6.773e-15)
(4.2025 -2.07959 8.13631e-17)
(-1.94465 -2.2843 5.43294e-16)
(-6.9658 -1.62216 0)
(-9.8289 -0.853764 1.31052e-15)
(-10.483 -0.324537 -2.97717e-15)
(-9.39538 0.0807381 0)
(-6.38441 0.583962 1.12801e-14)
(-1.39721 1.22258 0)
(5.1518 2.07633 0)
(16.4906 4.02675 -6.44188e-17)
(25.2214 5.35917 -1.431e-16)
(41.1296 6.27326 -9.11105e-14)
(32.7125 6.15773 -1.53121e-13)
(-8.52308 -42.1782 -1.21945e-17)
(-8.98756 -41.782 -2.5708e-17)
(-9.72337 -41.2984 5.44045e-17)
(-10.8037 -40.607 8.33972e-17)
(-12.1162 -39.5863 0)
(-13.486 -38.2127 0)
(-14.7939 -36.4626 6.3276e-16)
(-15.9267 -34.3502 -6.0774e-16)
(-16.8015 -31.9178 0)
(-17.3428 -29.2259 1.06418e-15)
(-17.4893 -26.3528 1.17392e-15)
(-17.2188 -23.3836 1.52074e-15)
(-16.5285 -20.4076 -1.74778e-15)
(-15.4369 -17.5052 -2.13337e-15)
(-13.9745 -14.7436 0)
(-12.1814 -12.1729 -4.36917e-15)
(-10.1011 -9.8345 -1.67314e-15)
(-7.78574 -7.76101 -1.61902e-14)
(-5.29053 -5.97814 -1.20687e-15)
(-2.67671 -4.50001 1.42266e-15)
(-0.00668968 -3.32051 -1.5263e-14)
(2.65914 -2.40657 2.51074e-15)
(5.34193 -1.745 -1.21427e-14)
(7.98187 -1.36633 -4.88633e-15)
(10.5051 -1.20556 2.59201e-16)
(12.9236 -1.19911 3.42585e-15)
(15.271 -1.32849 -2.42019e-17)
(17.5619 -1.58356 2.22193e-17)
(19.8046 -1.94841 4.76815e-15)
(22.0112 -2.41136 1.22143e-16)
(24.1845 -2.95981 -7.21093e-15)
(26.3708 -3.57438 1.18428e-14)
(28.6276 -4.3001 8.86342e-15)
(30.9745 -5.13916 1.80019e-16)
(33.5748 -6.09895 -9.32658e-15)
(36.3255 -7.1347 0)
(40.2962 -8.48094 -2.4895e-16)
(43.8065 -10.4654 1.07186e-14)
(55.5285 -15.1158 -4.11081e-14)
(-8.34543 -42.7217 -1.38075e-17)
(-8.43634 -43.5747 4.57672e-17)
(-8.90894 -45.1343 1.265e-16)
(-9.46047 -47.1097 0)
(-9.2421 -47.3367 -6.80816e-17)
(-7.31089 -41.3654 0)
(-3.8337 -25.9429 -4.88967e-16)
(-3.27584 -6.74471 5.67665e-17)
(-10.8 -3.82542 4.72125e-16)
(-17.732 -5.31262 9.09007e-17)
(-21.1629 -1.26385 6.6538e-17)
(-23.0551 4.46016 -2.41482e-16)
(-23.7457 9.40367 4.98609e-16)
(-22.3252 12.5395 -1.53942e-16)
(-18.7141 13.2349 -6.07247e-16)
(-13.7897 12.2093 -5.6748e-16)
(-8.51777 10.7149 4.27847e-16)
(-3.73498 8.81685 -4.75664e-17)
(-0.000128753 6.27168 0)
(2.37849 3.56671 -1.77465e-15)
(4.34185 0.801472 -1.46279e-16)
(6.58461 -1.54854 2.36753e-15)
(8.03892 -2.06935 0)
(8.17461 -1.3126 1.43838e-17)
(6.4211 -0.799387 0)
(2.46899 -1.79019 2.44135e-15)
(-2.97017 -2.8668 0)
(-7.78963 -2.77133 -4.12943e-16)
(-11.0777 -1.97136 2.18777e-17)
(-12.8945 -1.05532 -1.54445e-17)
(-13.1419 -0.383152 2.38655e-15)
(-11.9289 0.156557 6.75844e-17)
(-8.91292 0.792941 0)
(-4.0004 1.5661 -9.41097e-15)
(2.72942 2.61765 -1.42218e-16)
(14.0623 4.5953 2.00019e-14)
(22.3918 5.80644 -9.45137e-14)
(38.7808 6.04411 -2.46194e-16)
(31.057 6.06047 0)
(-8.63318 -41.1001 -2.0108e-17)
(-9.19888 -40.6079 -2.94954e-17)
(-9.89341 -39.9557 1.24755e-16)
(-10.6744 -39.1491 -5.22996e-16)
(-11.5149 -38.1259 1.32152e-16)
(-12.4425 -36.826 3.29048e-16)
(-13.3736 -35.2418 -3.06247e-16)
(-14.2159 -33.3756 0)
(-14.8962 -31.236 -1.42922e-15)
(-15.3404 -28.8586 -5.12559e-16)
(-15.484 -26.2972 0)
(-15.2898 -23.6157 -1.41754e-15)
(-14.7372 -20.8897 8.85754e-16)
(-13.8245 -18.1901 -2.95071e-15)
(-12.5656 -15.5785 0)
(-10.9854 -13.1068 5.26546e-15)
(-9.11739 -10.8217 -6.08314e-15)
(-7.005 -8.76318 2.31747e-17)
(-4.69728 -6.96375 0)
(-2.2499 -5.44132 -1.07878e-14)
(0.280667 -4.19777 1.25003e-14)
(2.83501 -3.21278 6.7972e-16)
(5.41871 -2.47422 9.52491e-15)
(7.98018 -2.01121 7.8514e-15)
(10.4517 -1.77459 0)
(12.8364 -1.70369 0)
(15.1598 -1.77512 7.01996e-16)
(17.4337 -1.97871 7.43158e-17)
(19.6651 -2.30031 -4.32765e-15)
(21.8647 -2.72751 1.09447e-16)
(24.0355 -3.24513 -1.01888e-16)
(26.2199 -3.82961 -1.03115e-14)
(28.4723 -4.53248 0)
(30.8145 -5.36765 -2.50452e-14)
(33.4096 -6.34369 7.81663e-17)
(36.1566 -7.41382 0)
(40.0882 -8.78067 -9.65606e-17)
(43.5418 -10.8994 0)
(54.6011 -15.5508 3.31971e-14)
(-8.17323 -41.5397 2.72602e-17)
(-7.8121 -41.9969 -9.84003e-17)
(-7.6892 -42.7723 9.35137e-17)
(-8.03186 -44.3978 8.53978e-17)
(-8.70677 -46.8379 -3.08709e-16)
(-8.63578 -47.2435 -3.04133e-16)
(-6.56063 -39.1697 3.50124e-16)
(-5.41446 -20.474 -5.80487e-16)
(-11.7267 -9.92076 -2.39387e-16)
(-17.9447 -10.2074 3.99796e-17)
(-21.4239 -4.94234 -1.9034e-16)
(-23.6684 2.17412 3.24646e-16)
(-24.5244 8.60732 3.90729e-16)
(-23.3381 13.2984 -3.47279e-16)
(-20.1581 15.3712 6.48104e-16)
(-15.8082 15.0074 -2.33167e-16)
(-11.1954 13.6565 0)
(-7.02964 11.7228 4.90943e-16)
(-3.79775 8.95248 -2.88213e-16)
(-1.59584 5.82057 1.94656e-15)
(0.278662 2.70569 0)
(2.81291 -0.163334 -2.61144e-15)
(5.00243 -1.28323 -2.38691e-15)
(4.85613 -1.0622 2.73019e-15)
(1.28842 -1.43523 0)
(-3.96032 -2.76374 1.66749e-15)
(-8.41213 -3.45869 0)
(-11.6792 -3.14545 0)
(-13.8563 -2.23351 0)
(-14.9999 -1.18929 -9.73631e-16)
(-14.9527 -0.369411 0)
(-13.6548 0.314508 0)
(-10.662 1.09401 8.02919e-15)
(-5.84726 2.01854 8.20863e-15)
(0.914724 3.26741 0)
(12.1304 5.24301 1.76291e-14)
(20.1962 6.3838 -1.32228e-16)
(36.8627 5.98502 0)
(29.775 5.94387 5.14434e-14)
(-7.64235 -40.4095 3.66066e-17)
(-8.0194 -39.7947 -3.09324e-17)
(-8.54934 -39.0497 0)
(-9.24245 -38.1862 -2.09085e-17)
(-10.0196 -37.1428 4.9793e-16)
(-10.8394 -35.8868 -3.15582e-16)
(-11.651 -34.4025 -1.81365e-18)
(-12.3826 -32.6857 1.27786e-15)
(-12.9831 -30.7395 -7.9942e-17)
(-13.3924 -28.5862 -1.67888e-15)
(-13.5538 -26.2616 5.84448e-16)
(-13.4306 -23.8139 -1.43139e-15)
(-12.9965 -21.3022 -7.89704e-16)
(-12.2382 -18.7855 -9.28416e-16)
(-11.1584 -16.3171 0)
(-9.76979 -13.9486 1.22924e-15)
(-8.09695 -11.729 2.75178e-15)
(-6.1758 -9.70175 1.24578e-14)
(-4.04791 -7.90184 -4.47936e-15)
(-1.76341 -6.35227 6.24762e-15)
(0.625252 -5.05962 1.16919e-15)
(3.06315 -4.01374 0)
(5.54483 -3.20654 -7.71669e-15)
(8.02349 -2.66691 -4.62055e-16)
(10.4373 -2.35695 1.98759e-16)
(12.7831 -2.22282 2.58625e-15)
(15.0783 -2.23776 -5.50047e-16)
(17.3318 -2.39106 -1.10671e-15)
(19.5488 -2.66993 3.86006e-15)
(21.739 -3.06112 1.99171e-16)
(23.9055 -3.55016 -6.00983e-15)
(26.086 -4.11027 -9.27886e-15)
(28.3326 -4.78729 0)
(30.6693 -5.60373 -1.29804e-16)
(33.2577 -6.58422 7.83085e-15)
(35.9967 -7.69999 0)
(39.877 -9.11768 6.73723e-16)
(43.2733 -11.3811 0)
(53.6739 -15.9976 -2.9539e-14)
(-7.37976 -40.9646 -2.57147e-17)
(-7.16594 -41.4723 5.25464e-17)
(-7.01275 -42.0058 0)
(-7.06302 -42.8287 0)
(-7.64625 -44.6231 1.46618e-16)
(-8.5783 -47.4642 5.2397e-16)
(-8.21449 -46.5303 0)
(-7.12908 -33.966 -2.59496e-16)
(-11.6272 -18.8189 -2.29217e-16)
(-17.243 -16.0878 1.16786e-16)
(-20.4136 -10.0851 -1.73728e-16)
(-22.7179 -1.55017 -3.23832e-16)
(-23.6811 6.61817 6.63466e-17)
(-22.8775 13.0963 -1.39384e-15)
(-20.3725 16.8856 -1.03636e-15)
(-16.833 17.5303 7.42425e-16)
(-13.0114 16.4641 -1.02077e-16)
(-9.59351 14.6333 2.22988e-16)
(-7.00447 11.8914 -1.28232e-16)
(-5.07377 8.46898 -1.42964e-15)
(-3.1198 4.93836 -3.03686e-16)
(-0.507781 1.64704 4.22693e-16)
(1.68773 -0.297535 2.58294e-15)
(-0.0489237 -1.15293 0)
(-4.74874 -2.39021 -1.05492e-16)
(-9.01548 -3.55518 -2.57801e-15)
(-12.0948 -3.91062 1.96918e-17)
(-14.2783 -3.42993 -1.84889e-17)
(-15.7222 -2.42427 0)
(-16.3982 -1.26827 9.09216e-16)
(-16.154 -0.309072 0)
(-14.8234 0.520499 0)
(-11.89 1.45123 -7.22034e-15)
(-7.20343 2.54236 -7.55223e-15)
(-0.511855 3.98878 0)
(10.5262 5.94542 -1.59947e-14)
(18.4223 7.04708 7.42904e-14)
(35.2083 6.02582 -3.65073e-16)
(28.7569 5.80236 -4.64833e-14)
(-6.95396 -39.7414 8.5029e-18)
(-7.30279 -39.045 -3.30918e-17)
(-7.7529 -38.224 1.61418e-16)
(-8.29711 -37.3151 -1.59756e-16)
(-8.8999 -36.2657 -3.27024e-16)
(-9.55042 -35.0437 0)
(-10.2046 -33.6371 8.67732e-16)
(-10.8045 -32.0457 1.07689e-16)
(-11.3049 -30.2604 4.72337e-16)
(-11.6539 -28.2955 1.05313e-15)
(-11.8017 -26.1776 0)
(-11.7124 -23.9398 2.73236e-15)
(-11.3567 -21.6274 2.32975e-15)
(-10.7151 -19.2865 6.11268e-15)
(-9.78071 -16.9629 0)
(-8.55676 -14.7059 4.41285e-15)
(-7.05831 -12.564 4.96951e-15)
(-5.31293 -10.5816 -5.64502e-15)
(-3.35492 -8.7955 6.40828e-15)
(-1.22822 -7.23175 -7.2796e-15)
(1.01889 -5.90352 -1.01259e-15)
(3.33718 -4.80693 8.92233e-15)
(5.71484 -3.94064 0)
(8.10708 -3.33251 6.84978e-15)
(10.4579 -2.95377 -3.67458e-16)
(12.7595 -2.75815 -2.57995e-15)
(15.0224 -2.71783 0)
(17.2517 -2.82086 6.22732e-17)
(19.4511 -3.05514 -1.6365e-16)
(21.6292 -3.40891 -6.01679e-15)
(23.789 -3.86984 5.20397e-15)
(25.9642 -4.40975 8.5624e-15)
(28.2042 -5.06095 -6.8732e-15)
(30.5346 -5.84881 -4.51396e-17)
(33.114 -6.82171 -7.14346e-15)
(35.8407 -7.98419 -7.33467e-15)
(39.6609 -9.47066 -3.20581e-16)
(42.9996 -11.8779 -1.17538e-16)
(52.7431 -16.4521 6.89939e-17)
(-6.69873 -40.3928 1.43674e-17)
(-6.50521 -41.026 1.0376e-16)
(-6.38867 -41.6967 8.16316e-17)
(-6.36755 -42.4163 -1.62846e-16)
(-6.65346 -43.435 -4.04399e-16)
(-7.67193 -45.9272 9.03034e-17)
(-8.50833 -48.9196 1.69918e-16)
(-7.95307 -44.1193 3.7948e-16)
(-10.6623 -30.1835 8.2295e-17)
(-15.6595 -22.6949 1.37384e-16)
(-18.3457 -16.1942 -4.06331e-17)
(-20.3534 -6.37667 3.0845e-16)
(-21.2629 3.71301 0)
(-20.8707 12.2252 -2.62618e-16)
(-19.1479 17.8501 6.97272e-16)
(-16.64 19.7241 -2.73558e-16)
(-13.6965 19.0124 2.87488e-16)
(-11.0449 17.2369 0)
(-9.25728 14.6027 -5.59845e-16)
(-7.87694 11.0547 1.48401e-15)
(-6.0352 7.0728 0)
(-3.70913 3.27699 -3.15527e-15)
(-2.94371 0.305492 0)
(-5.74383 -1.60302 1.04313e-16)
(-9.53117 -3.1648 -8.08873e-17)
(-12.4705 -4.12959 1.10605e-15)
(-14.5438 -4.25809 1.5022e-17)
(-16.0085 -3.64529 1.7172e-17)
(-16.9518 -2.55371 -1.17889e-17)
(-17.3142 -1.29933 8.97126e-16)
(-16.9633 -0.214295 1.99237e-15)
(-15.6485 0.757985 -3.50486e-15)
(-12.8081 1.84494 -9.97203e-17)
(-8.27838 3.11364 -3.33245e-17)
(-1.71652 4.75736 0)
(9.10501 6.68371 -2.84309e-16)
(16.8911 7.76846 -3.35824e-14)
(33.6692 6.13179 8.27599e-17)
(27.9133 5.62664 -4.5394e-14)
(-6.05408 -39.171 7.78443e-18)
(-6.34468 -38.4168 7.43982e-17)
(-6.72895 -37.5484 0)
(-7.20061 -36.6083 1.85347e-18)
(-7.71313 -35.5516 -3.47873e-16)
(-8.26147 -34.3545 0)
(-8.81128 -33.009 4.80708e-16)
(-9.31409 -31.51 -2.21306e-15)
(-9.73687 -29.8495 2.93483e-15)
(-10.0364 -28.0375 -1.00208e-15)
(-10.1679 -26.0914 -1.14169e-15)
(-10.1 -24.0331 -3.97247e-15)
(-9.80268 -21.8965 -2.96106e-15)
(-9.25319 -19.7167 -3.27197e-15)
(-8.43883 -17.5332 -9.38534e-16)
(-7.35622 -15.39 -3.09627e-15)
(-6.01268 -13.3335 -4.57812e-15)
(-4.42818 -11.4059 -5.09899e-15)
(-2.62913 -9.6454 4.28375e-15)
(-0.653263 -8.0793 1.46588e-14)
(1.45471 -6.72775 0)
(3.65243 -5.59073 -4.66855e-17)
(5.92473 -4.6747 -6.30646e-15)
(8.22765 -4.00574 -6.13446e-15)
(10.5107 -3.56337 3.30553e-16)
(12.7629 -3.30847 2.33196e-15)
(14.9891 -3.21462 -1.58844e-17)
(17.1905 -3.26806 1.05222e-15)
(19.3692 -3.4572 -1.05111e-16)
(21.5322 -3.77203 1.11213e-14)
(23.6828 -4.20274 1.54028e-17)
(25.851 -4.72369 1.33931e-16)
(28.0835 -5.35391 6.48277e-15)
(30.406 -6.11458 -3.81838e-17)
(32.973 -7.07186 6.71618e-15)
(35.6842 -8.27054 1.36671e-14)
(39.4386 -9.82311 -5.40867e-16)
(42.7187 -12.3672 6.13194e-15)
(51.8085 -16.9045 -2.20032e-14)
(-5.84716 -39.8891 -5.62985e-17)
(-5.69088 -40.595 -1.51043e-16)
(-5.62159 -41.3949 -8.4994e-17)
(-5.64123 -42.306 -1.40759e-16)
(-5.7908 -43.2366 2.56101e-16)
(-6.48726 -44.8709 -2.76059e-17)
(-7.72026 -48.6256 -3.81324e-16)
(-7.77874 -49.8368 -2.38504e-17)
(-8.99047 -41.2663 9.66006e-17)
(-12.8982 -31.0774 0)
(-15.3161 -22.8999 4.3802e-16)
(-16.8843 -12.0825 -9.32203e-16)
(-17.6118 -0.0398074 1.33138e-15)
(-17.5551 10.7008 6.15838e-16)
(-16.5073 18.0919 -5.55181e-16)
(-15.2109 21.2834 -4.90915e-16)
(-13.2823 21.0235 -1.25401e-15)
(-11.3145 19.1484 2.89567e-16)
(-10.3059 16.4439 5.25573e-16)
(-9.85574 12.759 0)
(-8.86115 8.3749 1.74517e-15)
(-7.49493 4.0742 2.44615e-15)
(-7.83023 0.426939 5.1388e-18)
(-10.1442 -1.99183 1.62612e-16)
(-12.7163 -3.66199 7.06523e-17)
(-14.7165 -4.51701 -1.06585e-15)
(-16.1418 -4.52313 3.34419e-17)
(-17.1303 -3.81116 -3.1288e-16)
(-17.7374 -2.639 -9.6486e-17)
(-17.9055 -1.29694 -8.53812e-16)
(-17.5231 -0.101832 1.0578e-17)
(-16.2685 1.00767 7.10331e-15)
(-13.5534 2.25664 6.39226e-15)
(-9.20844 3.71408 6.47265e-15)
(-2.81728 5.5519 2.16501e-16)
(7.74226 7.44279 -9.72205e-17)
(15.4639 8.53567 3.22366e-14)
(32.134 6.28902 4.60339e-14)
(27.1588 5.40958 4.4006e-14)
(-5.20172 -38.6688 -3.42614e-17)
(-5.45674 -37.868 -3.65728e-17)
(-5.78496 -36.9598 -3.50478e-16)
(-6.17922 -35.9928 1.39796e-15)
(-6.60667 -34.9367 -7.26557e-16)
(-7.06243 -33.7613 7.8446e-16)
(-7.51922 -32.4627 -1.63886e-15)
(-7.93775 -31.0426 0)
(-8.28998 -29.4867 -9.40754e-16)
(-8.53948 -27.803 -5.67154e-17)
(-8.64896 -26.0036 1.11414e-15)
(-8.58968 -24.1016 3.83906e-15)
(-8.33316 -22.1212 1.43771e-15)
(-7.85476 -20.0898 0)
(-7.13875 -18.0399 0)
(-6.17654 -16.0104 0)
(-4.96961 -14.0434 0)
(-3.53069 -12.1783 4.70411e-15)
(-1.87914 -10.4525 -5.25416e-15)
(-0.0461402 -8.89514 -5.90845e-15)
(1.92693 -7.53053 5.50054e-15)
(4.00485 -6.3636 -4.60519e-15)
(6.17136 -5.40659 4.58845e-15)
(8.38278 -4.68491 3.26659e-16)
(10.5939 -4.18429 1.44892e-16)
(12.792 -3.87323 -2.26632e-15)
(14.9771 -3.72698 -4.76363e-16)
(17.1471 -3.73213 0)
(19.3018 -3.87642 0)
(21.4466 -4.15147 -3.15186e-18)
(23.5852 -4.54873 0)
(25.7444 -5.04914 -7.5076e-15)
(27.9682 -5.66313 6.22956e-15)
(30.2808 -6.40384 9.0276e-15)
(32.832 -7.34356 -1.24665e-14)
(35.5246 -8.56433 -6.46784e-15)
(39.209 -10.1695 5.01452e-16)
(42.428 -12.8401 -1.13893e-14)
(50.8711 -17.3536 2.05346e-14)
(-5.01043 -39.4334 0)
(-4.86081 -40.1974 5.09364e-17)
(-4.78852 -41.0807 1.57713e-16)
(-4.81146 -42.1384 -5.54836e-16)
(-4.91826 -43.2948 3.32606e-16)
(-5.27767 -44.6243 -1.68155e-16)
(-6.29924 -47.6495 5.5356e-17)
(-6.72142 -51.7335 5.15596e-17)
(-6.86722 -49.5125 -6.15897e-17)
(-9.05934 -40.7539 0)
(-11.0708 -30.7499 -3.24899e-16)
(-12.3342 -18.7664 1.23979e-15)
(-13.1032 -4.97218 -3.49211e-15)
(-13.3577 7.94875 -1.02948e-15)
(-12.7294 17.0972 1.14426e-15)
(-12.6245 21.7115 8.14373e-16)
(-11.927 22.2058 6.23158e-16)
(-10.6066 20.2577 0)
(-10.1389 17.2579 0)
(-10.6236 13.3535 0)
(-10.8784 8.73476 -1.60976e-15)
(-10.6463 4.16896 0)
(-11.3035 0.298673 1.12639e-15)
(-12.9052 -2.28718 1.3285e-16)
(-14.6703 -3.96977 9.28028e-16)
(-16.1161 -4.77357 9.29726e-16)
(-17.1498 -4.71464 0)
(-17.8424 -3.93718 2.67911e-16)
(-18.2481 -2.69578 1.04918e-16)
(-18.3206 -1.27927 -2.49104e-17)
(-17.9624 0.0113545 -3.80569e-15)
(-16.7966 1.25717 1.69405e-17)
(-14.2295 2.67455 -6.19831e-15)
(-10.0878 4.33156 6.13542e-15)
(-3.89017 6.35662 0)
(6.37547 8.21899 2.54562e-16)
(14.043 9.35074 7.97773e-18)
(30.5059 6.50287 -4.39913e-14)
(26.4153 5.14056 3.18014e-16)
(-4.29936 -38.2132 3.26206e-17)
(-4.52755 -37.382 0)
(-4.81635 -36.4492 6.89048e-16)
(-5.15875 -35.4633 -6.75192e-16)
(-5.52289 -34.4085 3.54312e-16)
(-5.90895 -33.2524 -7.42277e-16)
(-6.29391 -31.9972 7.95779e-16)
(-6.64283 -30.6404 8.83849e-16)
(-6.93556 -29.1715 0)
(-7.14133 -27.5969 1.06005e-15)
(-7.22795 -25.9226 1.16845e-15)
(-7.17032 -24.1559 -1.19397e-15)
(-6.94211 -22.3141 -3.98298e-15)
(-6.51891 -20.4181 -1.50546e-15)
(-5.88333 -18.4938 4.79179e-15)
(-5.02332 -16.5755 3.53604e-15)
(-3.93606 -14.699 -2.90011e-15)
(-2.62791 -12.9016 -2.15379e-15)
(-1.11215 -11.2182 1.18338e-15)
(0.586375 -9.67934 -1.34242e-15)
(2.4303 -8.311 -3.56236e-15)
(4.39075 -7.12354 -6.77445e-16)
(6.45193 -6.13435 6.23278e-16)
(8.57038 -5.36781 4.0583e-15)
(10.706 -4.81505 0)
(12.8455 -4.45133 1.93654e-15)
(14.9853 -4.25457 8.75121e-16)
(17.1202 -4.21271 7.81766e-16)
(19.2477 -4.31306 2.77108e-15)
(21.3717 -4.54824 -9.84513e-15)
(23.4954 -4.91023 -3.90477e-15)
(25.6432 -5.38644 -1.20245e-16)
(27.8565 -5.98551 8.90897e-18)
(30.1573 -6.7136 0)
(32.6895 -7.63893 5.8737e-15)
(35.3607 -8.87085 0)
(38.9705 -10.5127 0)
(42.1252 -13.2931 5.30697e-15)
(49.9352 -17.7905 -9.80197e-17)
(-4.1278 -39.0217 -9.00615e-17)
(-3.98538 -39.8302 2.0762e-16)
(-3.90109 -40.7699 -2.41816e-18)
(-3.88336 -41.9078 1.44301e-16)
(-3.94688 -43.2289 -2.88898e-16)
(-4.0737 -44.6747 9.9982e-17)
(-4.62514 -46.9404 -6.7751e-17)
(-5.03657 -51.3269 -2.09873e-17)
(-4.53175 -53.6987 5.3005e-17)
(-4.78896 -49.3211 1.99679e-16)
(-5.63972 -39.7943 1.02428e-15)
(-6.43396 -26.9255 0)
(-7.4063 -11.696 1.30076e-15)
(-8.447 3.19114 -9.81262e-17)
(-8.2761 14.1859 0)
(-9.0768 20.4402 1.04384e-15)
(-9.77638 22.1963 4.25625e-16)
(-9.22595 20.5798 3.3647e-16)
(-9.07474 17.2961 -8.43145e-16)
(-10.1474 13.1619 -8.40231e-16)
(-11.4758 8.48615 1.53019e-16)
(-12.2639 3.87878 -1.52714e-15)
(-13.1878 -0.00102815 -4.20486e-16)
(-14.431 -2.58435 1.10553e-16)
(-15.7793 -4.21077 -8.09368e-16)
(-16.9273 -4.95877 -5.00794e-17)
(-17.7479 -4.85057 0)
(-18.2829 -4.02641 0)
(-18.5941 -2.73124 2.22033e-17)
(-18.643 -1.25622 -8.2421e-17)
(-18.3456 0.11838 3.81065e-15)
(-17.2877 1.49823 1.94749e-17)
(-14.8874 3.0931 -6.24662e-15)
(-10.9643 4.95814 -5.83964e-15)
(-4.97954 7.16498 -2.17738e-16)
(4.96118 9.01667 -6.67686e-17)
(12.5583 10.2273 -5.83607e-14)
(28.716 6.7935 4.29343e-14)
(25.6051 4.81986 -3.25185e-16)
(-3.40489 -37.7971 1.73014e-17)
(-3.6131 -36.9406 0)
(-3.86953 -35.9937 -3.21041e-16)
(-4.16729 -34.9971 0)
(-4.48011 -33.9496 7.3791e-16)
(-4.8076 -32.8131 -7.17353e-16)
(-5.13122 -31.5929 -8.04009e-16)
(-5.42306 -30.2932 -8.37011e-16)
(-5.66446 -28.9 0)
(-5.83048 -27.4181 9.7232e-16)
(-5.89432 -25.8517 -1.09286e-15)
(-5.83388 -24.2028 2.32816e-15)
(-5.62464 -22.4842 1.23734e-15)
(-5.24392 -20.7112 1.35357e-15)
(-4.67369 -18.9046 -3.04159e-15)
(-3.90031 -17.0924 -3.33022e-15)
(-2.91694 -15.3061 3.65159e-15)
(-1.72556 -13.5789 3.9756e-15)
(-0.333645 -11.9447 0)
(1.23861 -10.432 -1.22935e-15)
(2.95998 -9.06849 2.53919e-15)
(4.80648 -7.86915 -6.07304e-16)
(6.76346 -6.85677 -7.33557e-18)
(8.78837 -6.05265 -9.22996e-15)
(10.8459 -5.45422 4.86321e-16)
(12.923 -5.04146 -2.3604e-16)
(15.0134 -4.79695 -8.04346e-16)
(17.1095 -4.70882 -8.11584e-16)
(19.2067 -4.76652 -2.33428e-15)
(21.3071 -4.96192 4.49815e-15)
(23.4131 -5.28884 3.52444e-15)
(25.5468 -5.7376 1.32801e-14)
(27.7475 -6.32007 -1.07298e-14)
(30.0345 -7.03961 1.40249e-16)
(32.5447 -7.95536 -5.63456e-15)
(35.1912 -9.19339 1.15868e-16)
(38.7212 -10.8606 -4.68345e-17)
(41.8073 -13.7327 -1.166e-16)
(49.0025 -18.2162 1.60045e-14)
(-3.24107 -38.6308 6.39344e-17)
(-3.09305 -39.4706 -9.46183e-17)
(-2.98635 -40.4524 1.59731e-16)
(-2.90926 -41.6293 0)
(-2.88755 -43.003 1.86922e-16)
(-2.85868 -44.6101 0)
(-2.95345 -46.5417 0)
(-3.06066 -50.0939 0)
(-2.1981 -54.3198 -2.37566e-16)
(-0.884357 -54.4532 3.46307e-16)
(0.0460548 -48.0916 -3.87171e-16)
(0.375527 -36.185 0)
(-0.266185 -20.5726 0)
(-1.97838 -4.28612 1.68701e-15)
(-3.28906 8.78108 0)
(-4.84738 17.0372 -1.20422e-15)
(-6.94386 20.5944 -3.24536e-17)
(-7.40587 20.0019 0)
(-7.51648 16.804 6.80761e-16)
(-8.89321 12.5483 1.07057e-15)
(-10.9963 7.92252 8.01365e-16)
(-12.6386 3.36264 1.40984e-15)
(-13.9421 -0.441928 -1.79675e-15)
(-15.1432 -2.94997 0)
(-16.333 -4.48159 -6.73542e-16)
(-17.3508 -5.1393 -8.18388e-16)
(-18.0844 -4.96849 -4.34801e-16)
(-18.568 -4.09596 0)
(-18.8677 -2.76207 8.13372e-17)
(-18.9455 -1.24497 8.58562e-16)
(-18.7321 0.210143 -3.68799e-15)
(-17.7927 1.72494 2.28311e-17)
(-15.5705 3.5113 5.69641e-15)
(-11.8735 5.58994 -5.37568e-15)
(-6.114 7.97488 4.52327e-17)
(3.46193 9.84416 -1.69201e-16)
(10.9628 11.1717 5.62182e-14)
(26.7074 7.16008 -4.08525e-14)
(24.6728 4.4325 -9.51304e-14)
(-2.51332 -37.408 1.96573e-17)
(-2.7077 -36.5445 -7.5285e-17)
(-2.93935 -35.5873 0)
(-3.20187 -34.587 -6.72135e-16)
(-3.47187 -33.5472 0)
(-3.7518 -32.4302 0)
(-4.02558 -31.2456 -3.49473e-17)
(-4.26771 -29.9948 -8.5849e-16)
(-4.46485 -28.6667 -1.76915e-15)
(-4.59623 -27.266 -3.80452e-15)
(-4.6381 -25.7932 -2.06316e-15)
(-4.57175 -24.2476 -2.23225e-15)
(-4.37508 -22.6387 0)
(-4.02723 -20.9772 -3.9684e-15)
(-3.51017 -19.2795 1.39774e-15)
(-2.80973 -17.5681 0)
(-1.91643 -15.8699 -3.37617e-15)
(-0.828678 -14.2145 -3.73188e-15)
(0.450753 -12.6332 0)
(1.90514 -11.1539 -4.48373e-15)
(3.51087 -9.80241 4.58222e-15)
(5.24859 -8.5996 0)
(7.10355 -7.57147 5.05644e-16)
(9.03512 -6.73751 -2.12393e-16)
(11.0125 -6.09951 -2.24908e-16)
(13.0238 -5.64255 -3.2561e-15)
(15.0611 -5.35296 2.03332e-18)
(17.1147 -5.22039 8.10636e-17)
(19.1783 -5.23648 6.69214e-17)
(21.2522 -5.39298 -1.36089e-16)
(23.3377 -5.68523 -3.61426e-15)
(25.4547 -6.10507 -1.20237e-14)
(27.6403 -6.66806 -1.72044e-16)
(29.9114 -7.37969 7.5898e-15)
(32.397 -8.28973 5.07653e-15)
(35.0156 -9.53237 5.70643e-15)
(38.4599 -11.2178 8.58418e-16)
(41.4727 -14.161 1.29333e-16)
(48.0763 -18.6258 -1.48849e-14)
(-2.35207 -38.2579 -1.15778e-16)
(-2.1994 -39.1146 -2.93057e-16)
(-2.06704 -40.1154 4.88037e-16)
(-1.93103 -41.3135 0)
(-1.81101 -42.6749 3.57313e-16)
(-1.6523 -44.3225 0)
(-1.41069 -46.1874 -5.06785e-18)
(-1.10847 -48.8647 -1.25115e-16)
(-0.0342829 -52.9117 2.87505e-16)
(2.15878 -55.6703 0)
(4.72304 -53.2399 -7.92577e-16)
(6.66493 -44.3597 -1.05442e-15)
(7.08781 -30.3085 0)
(5.53261 -14.0465 2.15525e-15)
(2.71215 0.846863 -7.85889e-16)
(-0.165922 11.413 7.71472e-16)
(-3.55021 17.1367 -5.27721e-16)
(-5.31134 18.3496 -5.18585e-16)
(-5.72249 15.9043 8.43981e-17)
(-7.30773 11.7293 -2.31385e-16)
(-9.94235 7.22011 -5.04715e-16)
(-12.272 2.72011 2.033e-16)
(-13.9856 -0.959204 7.8021e-16)
(-15.3286 -3.3815 -6.13563e-16)
(-16.5252 -4.80896 5.98078e-16)
(-17.5278 -5.35621 8.23602e-16)
(-18.2617 -5.09888 4.18879e-16)
(-18.7667 -4.16783 8.53967e-18)
(-19.1071 -2.79899 -8.83415e-17)
(-19.2481 -1.2445 -8.44931e-16)
(-19.1378 0.291134 -1.52546e-17)
(-18.329 1.94534 2.68216e-17)
(-16.2913 3.92689 -5.78406e-15)
(-12.8284 6.22587 5.4743e-15)
(-7.31109 8.78455 -1.9805e-16)
(1.84329 10.7116 1.20183e-14)
(9.22046 12.1759 -2.72304e-14)
(24.4486 7.58068 0)
(23.5681 3.96125 1.00057e-13)
(-1.63727 -37.0479 3.39696e-17)
(-1.82088 -36.1811 0)
(-2.0324 -35.2193 0)
(-2.26561 -34.2215 1.2942e-15)
(-2.50069 -33.1947 2.79219e-17)
(-2.73981 -32.0984 0)
(-2.96991 -30.9439 0)
(-3.17066 -29.7391 3.1436e-15)
(-3.32982 -28.4694 -1.74587e-17)
(-3.4299 -27.139 -1.31256e-17)
(-3.45124 -25.7483 4.93104e-15)
(-3.37718 -24.294 1.08625e-15)
(-3.18825 -22.7829 -2.2954e-15)
(-2.8654 -21.2226 1.23701e-17)
(-2.39181 -19.6249 0)
(-1.75274 -18.0086 0)
(-0.937283 -16.3954 9.50339e-15)
(0.0591602 -14.8119 1.74729e-15)
(1.23703 -13.286 -1.87142e-15)
(2.58132 -11.8459 4.13471e-15)
(4.07855 -10.513 -8.26373e-15)
(5.71391 -9.31432 -3.87886e-15)
(7.46935 -8.27748 3.66872e-15)
(9.30846 -7.42121 3.92919e-15)
(11.2045 -6.74947 -6.11049e-16)
(13.1472 -6.25338 3.17914e-15)
(15.1281 -5.92153 3.42064e-16)
(17.1359 -5.74695 -7.49876e-17)
(19.1626 -5.7221 7.12118e-17)
(21.2069 -5.84086 -2.33639e-16)
(23.2693 -6.09892 2.73645e-17)
(25.3668 -6.48994 5.89432e-15)
(27.5345 -7.03093 1.30395e-16)
(29.7875 -7.73338 -1.05887e-16)
(32.2458 -8.63953 0)
(34.8331 -9.887 -5.23776e-15)
(38.1858 -11.587 -8.34612e-16)
(41.1205 -14.5813 0)
(47.158 -19.019 0)
(-1.47971 -37.9003 0)
(-1.32002 -38.7612 2.87836e-16)
(-1.16626 -39.7653 -7.8844e-16)
(-0.983779 -40.9587 -2.42484e-16)
(-0.775006 -42.2914 -3.42909e-16)
(-0.501168 -43.8804 0)
(-0.0447441 -45.7033 0)
(0.61407 -47.8286 5.12531e-17)
(1.84856 -50.9174 -2.11604e-16)