/*--------------------------------*- C++ -*----------------------------------*\
  =========                 |
  \\      /  F ield         | OpenFOAM: The Open Source CFD Toolbox
   \\    /   O peration     | Website:  https://openfoam.org
    \\  /    A nd           | Version:  9
     \\/     M anipulation  |
\*---------------------------------------------------------------------------*/
FoamFile
{
    format      ascii;
    class       volScalarField;
    location    "3.22";
    object      alpha.water;
}
// * * * * * * * * * * * * * * * * * * * * * * * * * * * * * * * * * * * * * //

dimensions      [0 0 0 0 0 0 0];

internalField   nonuniform List<scalar> 
2268
(
1
1
0.999999
0.999999
0.999999
1
0.999999
0.999999
0.999999
0.999999
1
1
1
1
1
1
0.999999
0.998347
0.980271
0.993461
0.997413
0.994373
0.993044
0.999999
0.999999
0.999999
0.999999
0.999999
0.999999
0.999998
0.999998
0.999999
1
1
1
1
1
1
1
0.999839
0.988092
0.979496
0.981544
0.997652
0.999785
0.995556
0.999999
0.999998
0.999998
0.999999
0.999999
1
0.999999
0.999999
1
1
1
1
1
1
1
1
0.999416
0.981587
0.979496
0.979496
0.989541
0.999985
0.999985
1
0.999998
0.999999
1
1
1
1
1
1
1
1
1
1
1
1
0.999999
0.999969
0.99259
0.979496
0.979516
0.995303
0.999985
0.999983
1
0.999999
0.999999
1
1
1
1
1
1
1
1
1
1
1
0.999999
0.999994
0.999993
0.999788
0.994296
0.99663
0.999856
0.999985
0.999943
1
1
1
1
1
1
1
1
1
1
1
1
1
1
1
1
0.999999
1
1
1
1
0.999991
0.999937
1
1
1
1
1
1
1
1
1
1
1
1
1
1
1
1
1
1
1
1
1
1
0.999938
1
1
1
1
1
1
1
1
1
1
1
1
1
1
1
1
1
1
1
1
1
1
0.99996
0.989707
0.989707
0.98971
0.989798
0.990736
0.99074
0.99216
0.999259
0.995298
0.993827
0.993852
0.980331
0.960109
0.960109
0.960109
0.960118
0.962456
0.960168
0.960164
0.991682
0.992426
0.992994
0.997251
0.999833
0.999846
0.999842
0.999841
0.995825
0.994093
0.994109
0.966625
0.960109
0.960109
0.979822
0.962451
0.974909
0.980021
0.975405
0.999948
0.999948
0.999948
0.999647
0.99972
0.999914
0.999914
0.996313
0.99258
0.996895
0.994021
0.960111
0.96011
0.968188
0.998044
0.996767
0.948086
0.980093
0.980093
0.999704
0.999886
0.999949
0.999869
0.999771
0.999914
0.999914
0.99652
0.992581
0.996922
0.997551
0.962886
0.960111
0.985115
0.998258
0.990885
0.93969
0.951698
0.980103
0.999455
0.999759
0.999949
0.999949
0.999936
0.999915
0.999914
0.999692
0.996798
0.999115
0.998849
0.987517
0.975683
0.992552
0.998269
0.998269
0.954438
0.927405
0.980035
0.999605
0.99991
0.999949
0.999949
0.999949
0.999454
0.999914
0.999913
0.999912
0.999895
0.999892
0.998865
0.99825
0.998268
0.99822
0.998269
0.998264
0.92743
0.979945
0.999949
0.999949
0.999949
0.999949
0.999949
0.99784
0.995414
0.996163
0.999903
0.999893
0.997405
0.994867
0.997966
0.998269
0.998269
0.998269
0.998269
0.959573
0.896619
0.999948
0.999949
0.999949
0.999948
0.999782
0.999633
0.959318
0.945012
0.963717
0.968639
0.972626
0.997035
0.998269
0.998269
0.998269
0.998269
0.998269
0.98159
0.894369
1
1
1
1
1
1
1
1
1
1
0.999999
0.999998
0.999999
0.999999
1
1
0.999999
1
1
1
1
1
0.99996
1
1
1
0.999741
0.997328
0.996714
0.993535
0.988674
0.984192
0.980384
0.978391
0.977109
0.974875
0.973776
0.973754
0.974386
0.975525
0.977089
0.978333
0.978657
0.977645
0.975004
0.969633
0.477015
0.460818
0.447576
0.433825
0.419615
0.402355
0.392694
0.383134
0.372584
0.362781
0.354756
0.34744
0.342562
0.339512
0.338187
0.339311
0.343017
0.348187
0.351915
0.351348
0.344988
0.332043
0.310903
0.00462998
0.00472881
0.0027271
0.00158284
0.00235731
0.00379698
0.00270198
0.00199849
0.0015485
0.00142809
0.00102727
0.0010191
0.0010066
0.000992904
0.000977965
0.000957559
0.000927456
0.000905723
0.000896334
0.000878553
0.000865039
0.000863237
0.00086283
0.00149491
0.004154
0.00169849
0.0010972
0.00220841
0.00584638
0.00244843
0.00222836
0.00626471
0.00847099
0.00764065
0.00657689
0.00711522
0.00635024
0.00551447
0.00562403
0.0068011
0.00611966
0.00260498
0.00357065
0.00355557
0.00102473
0.000863237
0.00149491
0.00364755
0.00365335
0.00109595
0.00206533
0.00585004
0.00586015
0.00586936
0.00587615
0.00845157
0.00843666
0.00842133
0.00840481
0.00837672
0.00835026
0.00825345
0.0067546
0.0046712
0.000921228
0.00058406
0.00099983
0.00083815
0.00111546
0.00301759
0.00318975
0.00335004
0.00109676
0.00122298
0.00122214
0.00253603
0.00425419
0.00329495
0.00106062
0.000826308
0.00093809
0.000666587
0.000285806
4.87771e-05
2.15388e-05
2.19987e-05
0.000573364
0.000932883
0.000319574
0.000287989
0.000288135
0.00111593
0.00144434
0.000975757
0.00179999
0.00187775
0.0018813
0.00188017
0.00138997
3.41545e-06
1.66538e-09
1.59164e-09
2.02713e-09
2.42082e-09
2.47374e-09
2.60536e-08
6.25216e-08
2.14359e-05
0.000214897
0.00016453
0.000909652
0.000923374
0.000450076
0.000287392
0.00035919
1.59761e-07
1.04906e-06
1.70377e-05
0.000752941
0.00123514
0.000850669
0.000163894
2.88e-09
5.57268e-10
1.54817e-09
1.37953e-07
6.07419e-09
8.08888e-06
1.68996e-05
1.14533e-06
1.05993e-09
1.05978e-09
8.03206e-11
0.000426865
0.00075429
0.000749493
0.000287592
3.2535e-07
1.39097e-08
7.75022e-07
3.80335e-07
6.56122e-09
2.73756e-10
2.30345e-10
2.29904e-10
4.26181e-09
5.5535e-10
5.57268e-10
2.91552e-06
3.47623e-06
1.42204e-06
1.39255e-07
5.02574e-09
1.61476e-09
4.6318e-11
4.6318e-11
8.03109e-11
7.0712e-05
6.12817e-05
3.24782e-07
3.23707e-07
5.52467e-09
7.74624e-07
3.80294e-07
2.03045e-08
6.86085e-09
1.28418e-09
2.29112e-10
2.55707e-10
2.51747e-10
2.70919e-06
3.35016e-06
2.89259e-06
3.3092e-08
3.29909e-08
3.29537e-08
7.66363e-09
4.6318e-11
7.00676e-11
7.55957e-11
3.98175e-10
3.18942e-09
2.1855e-06
3.45494e-06
3.60298e-09
1.06865e-07
5.42036e-08
2.19313e-08
1.37723e-08
9.89812e-10
2.2836e-10
2.28388e-10
2.84001e-07
1.57448e-06
1.4226e-06
6.47474e-08
6.21774e-08
5.14302e-08
3.65157e-08
9.73432e-10
4.62895e-11
4.6698e-11
6.43874e-08
5.33447e-07
3.9576e-06
7.1822e-06
7.18205e-06
2.61901e-09
2.61901e-09
2.83395e-09
4.37383e-09
1.32551e-09
5.7913e-10
9.0187e-10
1.24956e-08
5.05644e-08
8.7472e-09
3.18554e-11
3.15898e-11
3.1616e-11
3.15898e-11
3.16705e-11
4.29274e-11
4.6329e-11
8.98893e-11
1.01841e-10
4.60373e-07
5.59532e-06
7.18254e-06
7.1823e-06
7.58677e-09
7.74587e-08
8.42507e-08
3.63015e-09
1.45368e-10
4.5062e-10
1.44346e-09
4.26928e-09
5.12825e-09
5.79957e-09
3.19781e-09
3.80035e-10
3.21244e-11
8.25239e-11
8.2335e-11
5.5835e-11
4.56958e-11
3.40728e-10
7.51946e-10
2.63995e-11
3.72797e-11
1.81507e-06
7.18205e-06
1.17832e-08
2.41874e-07
3.27546e-07
1.45368e-10
1.44751e-10
5.14791e-10
1.09893e-09
1.59235e-09
1.9921e-09
2.0978e-09
8.79365e-10
1.55087e-10
2.80499e-11
1.19282e-11
9.49179e-12
6.38441e-12
1.52755e-11
2.27498e-11
2.59071e-11
2.60446e-11
2.63995e-11
3.72206e-11
2.11819e-07
2.92303e-08
3.60793e-07
3.60647e-07
3.94195e-08
1.29361e-10
3.58172e-10
5.76394e-10
5.30965e-10
3.87966e-10
2.2222e-10
7.15352e-11
1.2644e-11
5.14301e-13
-7.10915e-13
-8.81937e-13
-6.18362e-13
0
2.99064e-12
3.48374e-11
9.3056e-11
1.18538e-10
1.18604e-10
1.1872e-10
4.83715e-08
3.60714e-07
3.60822e-07
1.71034e-07
1.28969e-10
1.55079e-10
2.07179e-10
1.29268e-10
4.16685e-11
1.54184e-11
4.02717e-12
-2.7041e-13
-1.53031e-12
-2.20353e-12
-2.32458e-12
-2.04403e-12
-1.45126e-12
-5.01571e-13
1.13646e-12
2.8493e-11
1.122e-10
1.79189e-10
1.87917e-10
2.79255e-08
3.58484e-07
3.60491e-07
1.51712e-07
1.28569e-10
1.28238e-10
1.28188e-10
2.41384e-11
5.14047e-12
1.46861e-14
-7.61242e-13
-1.66363e-12
-2.46938e-12
-2.89908e-12
-2.90074e-12
-2.61795e-12
-2.15149e-12
-1.53356e-12
-7.53399e-13
1.01812e-13
8.48523e-12
3.79229e-11
6.62854e-11
4.94306e-09
1.49649e-07
2.87448e-07
3.45359e-08
1.28969e-10
5.08874e-10
1.6817e-10
1.24721e-11
5.49591e-12
-1.98252e-13
-1.07921e-12
-1.76516e-12
-2.33006e-12
-2.64383e-12
-2.66923e-12
-2.47145e-12
-2.13454e-12
-1.73052e-12
-1.31106e-12
-8.91103e-13
-4.47982e-13
0
9.36024e-13
6.16925e-10
1.49895e-09
2.06249e-08
3.16107e-10
6.75562e-10
8.10335e-10
3.66125e-10
1.4939e-11
8.73284e-12
7.50472e-13
-3.89732e-13
-9.6543e-13
-1.47111e-12
-1.82737e-12
-1.97326e-12
-1.91573e-12
-1.71367e-12
-1.43468e-12
-1.13761e-12
-8.6289e-13
-6.30387e-13
-4.40745e-13
-2.79077e-13
3.69798e-10
6.86875e-11
6.90444e-11
1.75789e-10
7.24725e-10
7.81075e-10
2.64116e-10
2.85585e-11
1.66977e-11
6.35282e-12
1.97912e-12
1.33831e-13
-3.89304e-13
-8.69996e-13
-1.14835e-12
-1.22923e-12
-1.16268e-12
-1.00822e-12
-8.19205e-13
-6.33324e-13
-4.71889e-13
-3.42505e-13
-2.39918e-13
1.31471e-09
6.84722e-11
6.82564e-11
8.40439e-11
3.55516e-10
3.67996e-10
1.30078e-10
4.56194e-11
2.90401e-11
1.90182e-11
1.02811e-11
3.81709e-12
5.91361e-13
-1.46153e-13
-4.81749e-13
-6.38941e-13
-6.67102e-13
-6.08206e-13
-5.07934e-13
-3.9893e-13
-3.00029e-13
-2.20023e-13
-1.59572e-13
6.43026e-09
5.77535e-09
6.83047e-11
6.82564e-11
7.86325e-11
7.93221e-11
6.13833e-11
5.29206e-11
3.98738e-11
3.18682e-11
2.15041e-11
1.07652e-11
3.33287e-12
3.73667e-13
-1.1078e-13
-2.60125e-13
-3.25195e-13
-3.18608e-13
-2.74592e-13
-2.18395e-13
-1.64619e-13
-1.20259e-13
-8.78893e-14
7.56789e-09
1.83223e-07
5.81289e-07
1.65813e-07
5.24772e-11
5.24014e-11
5.25242e-11
5.46418e-11
4.78372e-11
4.0457e-11
2.96175e-11
1.70894e-11
6.49734e-12
1.18453e-12
1.16253e-14
-8.1347e-14
-1.38551e-13
-1.48537e-13
-1.32117e-13
-1.05739e-13
-7.91575e-14
-5.68882e-14
-4.08585e-14
4.84217e-09
2.49485e-07
8.61049e-07
8.48098e-07
7.28025e-08
5.24024e-11
5.24014e-11
5.70126e-11
5.34339e-11
4.54653e-11
3.429e-11
2.08033e-11
8.38687e-12
1.58376e-12
6.49527e-14
-1.9143e-14
-5.51841e-14
-6.40141e-14
-5.80082e-14
-4.61737e-14
-3.39228e-14
-2.36866e-14
-1.63252e-14
3.52622e-09
1.58091e-07
8.61287e-07
8.6135e-07
2.22251e-07
5.26953e-11
5.24024e-11
5.79905e-11
5.542e-11
4.73992e-11
3.55227e-11
2.07964e-11
7.4137e-12
1.06464e-12
3.05032e-14
-6.29143e-15
-2.22002e-14
-2.62596e-14
-2.3653e-14
-1.84451e-14
-1.31308e-14
-8.80287e-15
-5.71804e-15
3.52612e-09
1.67778e-08
8.61322e-07
8.61322e-07
1.69317e-07
1.56454e-10
5.24271e-11
5.78126e-11
5.47035e-11
4.60452e-11
3.25711e-11
1.63653e-11
4.35096e-12
3.9927e-13
6.50869e-15
-3.71696e-15
-8.95814e-15
-1.02122e-14
-8.97963e-15
-6.79398e-15
-4.64568e-15
-2.96035e-15
-1.79917e-15
3.52622e-09
3.52622e-09
3.01465e-07
1.80219e-07
2.76578e-08
2.04067e-10
5.79128e-11
5.62836e-11
5.02749e-11
3.98969e-11
2.47709e-11
9.53647e-12
1.59147e-12
7.34171e-14
3.61287e-16
-2.12351e-15
-3.64874e-15
-3.82528e-15
-3.19063e-15
-2.30203e-15
-1.49587e-15
-8.98721e-16
-5.0989e-16
3.57543e-09
3.67274e-09
1.18911e-09
2.36581e-10
6.615e-11
9.57226e-11
5.92825e-11
5.0626e-11
4.21958e-11
2.97197e-11
1.44993e-11
3.56871e-12
2.94732e-13
4.73724e-15
7.87601e-34
-1.05341e-15
-1.44397e-15
-1.3619e-15
-1.05663e-15
-7.15449e-16
-4.36167e-16
-2.44553e-16
-1.28328e-16
3.13199e-09
3.67774e-09
1.10937e-09
1.66203e-10
5.1084e-11
5.08525e-11
4.80508e-11
4.16181e-11
3.13998e-11
1.7574e-11
5.5605e-12
6.69008e-13
2.00957e-14
7.15438e-17
-2.53307e-16
-4.88891e-16
-5.34672e-16
-4.514e-16
-3.21823e-16
-2.01933e-16
-1.14252e-16
-5.92874e-17
-2.8609e-17
1.66495e-09
2.97899e-09
1.25996e-09
2.49159e-10
6.02126e-11
4.40189e-11
3.83195e-11
3.02566e-11
1.8342e-11
6.70947e-12
1.03655e-12
4.43349e-14
2.99168e-16
0
-1.47106e-16
-1.95276e-16
-1.81225e-16
-1.36779e-16
-8.8775e-17
-5.10726e-17
-2.65546e-17
-1.26531e-17
-5.58712e-18
3.47175e-10
1.04819e-09
6.96147e-10
1.99606e-10
5.59088e-11
3.6135e-11
2.69738e-11
1.66571e-11
6.52385e-12
1.15781e-12
6.27488e-14
7.2348e-16
8.34772e-19
-3.88438e-17
-6.60225e-17
-6.86526e-17
-5.52771e-17
-3.72347e-17
-2.1821e-17
-1.13961e-17
-5.3911e-18
-2.33788e-18
-9.38219e-19
2.70151e-11
1.00047e-10
1.17639e-10
6.78301e-11
3.38727e-11
2.18261e-11
1.28764e-11
5.04652e-12
9.42955e-13
5.82142e-14
8.83778e-16
2.0686e-18
-8.94402e-18
-2.05576e-17
-2.44155e-17
-2.12456e-17
-1.49598e-17
-8.95715e-18
-4.70055e-18
-2.20621e-18
-9.39433e-19
-3.66804e-19
-1.32447e-19
3.96742e-12
7.4334e-12
1.04785e-11
1.17463e-11
1.06312e-11
7.04181e-12
2.83508e-12
5.39157e-13
3.55762e-14
6.43726e-16
2.22102e-18
-9.25004e-19
-5.66115e-18
-8.04461e-18
-7.71862e-18
-5.75307e-18
-3.5453e-18
-1.87546e-18
-8.73367e-19
-3.64421e-19
-1.38011e-19
-4.79057e-20
-1.53627e-20
8.60944e-13
1.80427e-12
1.92593e-12
1.86019e-12
1.54024e-12
7.72112e-13
1.71868e-13
1.30565e-14
2.90036e-16
1.90617e-18
1.72502e-21
-1.32563e-18
-2.42553e-18
-2.63034e-18
-2.1103e-18
-1.35447e-18
-7.27674e-19
-3.37413e-19
-1.3799e-19
-5.05615e-20
-1.67956e-20
-5.10497e-21
-1.43076e-21
7.75361e-14
2.73265e-13
2.41473e-13
1.57918e-13
7.25052e-14
1.86996e-14
1.94218e-15
6.77333e-17
9.08719e-19
2.35101e-21
-2.43032e-19
-6.55252e-19
-8.44345e-19
-7.38379e-19
-5.00435e-19
-2.76095e-19
-1.28415e-19
-5.16754e-20
-1.83311e-20
-5.81238e-21
-1.66531e-21
-4.3504e-22
-1.04443e-22
1.19629e-15
9.41254e-15
7.53906e-15
3.38819e-15
7.84523e-16
9.65892e-17
6.22634e-18
2.05743e-19
1.35583e-21
-3.3492e-20
-1.43141e-19
-2.45741e-19
-2.51331e-19
-1.80446e-19
-1.03416e-19
-4.87615e-20
-1.94468e-20
-6.70735e-21
-2.03235e-21
-5.47474e-22
-1.32442e-22
-2.90371e-23
-5.8192e-24
1.94679e-18
3.70397e-17
3.245e-17
1.39527e-17
2.75087e-18
3.12775e-19
2.16335e-20
2.9975e-22
-3.29953e-21
-2.43497e-20
-5.83856e-20
-7.75443e-20
-6.57687e-20
-3.88768e-20
-1.88229e-20
-7.52275e-21
-2.54022e-21
-7.38933e-22
-1.87409e-22
-4.18486e-23
-8.30768e-24
-1.48072e-24
-2.39307e-25
7.98719e-22
2.06087e-20
3.36708e-20
2.75982e-20
9.47564e-21
1.1701e-21
2.54074e-23
-3.81353e-22
-3.34339e-21
-1.09761e-20
-1.95897e-20
-2.14682e-20
-1.54994e-20
-7.67144e-21
-3.10464e-21
-1.03474e-21
-2.90123e-22
-6.95476e-23
-1.43372e-23
-2.56072e-24
-4.00372e-25
-5.54446e-26
-6.88346e-27
8.92509e-28
1.05129e-25
1.12527e-23
2.34843e-23
1.50155e-23
1.03434e-24
-1.88077e-22
-5.77876e-22
-1.73881e-21
-3.94954e-21
-5.72176e-21
-5.36619e-21
-3.3742e-21
-1.45564e-21
-4.79667e-22
-1.30146e-22
-2.9481e-23
-5.62502e-24
-8.98882e-25
-1.21126e-25
-1.39593e-26
-1.39765e-27
-1.23489e-28
-8.55873e-24
-2.63122e-23
-1.48763e-23
-2.42601e-23
-6.72388e-23
-1.26507e-22
-2.11634e-22
-3.46789e-22
-6.89141e-22
-1.21829e-21
-1.50053e-21
-1.24044e-21
-6.96845e-22
-2.68695e-22
-7.14234e-23
-1.57023e-23
-2.75791e-24
-3.90923e-25
-4.36983e-26
-3.92818e-27
-2.91158e-28
-1.82132e-29
-9.8284e-31
-5.93399e-25
-7.84081e-24
-2.73921e-23
-4.46668e-23
-6.64625e-23
-9.20368e-23
-1.15398e-22
-1.47413e-22
-2.2674e-22
-3.3241e-22
-3.60613e-22
-2.70717e-22
-1.40233e-22
-5.01236e-23
-1.21856e-23
-2.03496e-24
-2.50327e-25
-2.04338e-26
-1.14015e-27
-4.58397e-29
-1.4013e-30
-3.41592e-32
-6.88917e-34
0.999877
0.999752
0.999587
0.999389
0.961603
0.954311
0.947356
0.941744
0.286586
0.269849
0.257239
0.246454
0.000861361
0.000847189
0.000821626
0.000806479
0.000862717
0.00438582
0.0057585
0.00575524
0.00248886
0.00440543
0.003013
0.00197531
0.000720994
4.09887e-06
9.94253e-07
0.00114112
0.000234093
3.34759e-05
8.77762e-07
0.000243795
3.23707e-07
2.71684e-06
8.77117e-07
1.20804e-08
3.22965e-07
3.20284e-07
3.75117e-07
2.69247e-07
1.38241e-06
2.70632e-08
2.68519e-08
1.2601e-08
7.18239e-06
7.18261e-06
4.95574e-06
1.25609e-07
7.18205e-06
7.18203e-06
7.17814e-06
6.77956e-06
6.85402e-06
1.3334e-06
4.053e-10
2.14947e-07
2.63776e-07
5.34596e-09
1.31505e-10
4.50984e-09
1.18856e-10
1.18871e-10
1.254e-10
6.00761e-10
1.83607e-10
1.38129e-10
9.58688e-11
5.97461e-11
6.83609e-11
5.61775e-11
4.02656e-11
2.84866e-11
2.35831e-12
2.71271e-12
2.87218e-12
2.91243e-12
-1.29911e-13
-7.25629e-14
-3.15839e-14
-8.87186e-15
-1.49352e-13
-1.11243e-13
-8.02584e-14
-5.75588e-14
-1.08817e-13
-8.44606e-14
-6.34421e-14
-4.68403e-14
-6.38077e-14
-5.05986e-14
-3.87683e-14
-2.8368e-14
-3.09992e-14
-2.48163e-14
-1.93801e-14
-1.42597e-14
-1.26994e-14
-1.00981e-14
-7.92838e-15
-5.93999e-15
-4.46299e-15
-3.46919e-15
-2.67761e-15
-2.02884e-15
-1.36747e-15
-1.02463e-15
-7.61795e-16
-5.64238e-16
-3.69222e-16
-2.63302e-16
-1.85735e-16
-1.30232e-16
-8.79032e-17
-5.906e-17
-3.90491e-17
-2.5528e-17
-1.8455e-17
-1.16194e-17
-7.15452e-18
-4.32327e-18
-3.38207e-18
-1.99001e-18
-1.13909e-18
-6.35439e-19
-5.30148e-19
-2.90388e-19
-1.54214e-19
-7.94562e-20
-6.92584e-20
-3.50383e-20
-1.71499e-20
-8.12337e-21
-7.34496e-21
-3.39116e-21
-1.5121e-21
-6.51293e-22
-6.15753e-22
-2.55367e-22
-1.02083e-22
-3.93456e-23
-3.96564e-23
-1.44725e-23
-5.07925e-24
-1.7151e-24
-1.89841e-24
-5.93308e-25
-1.77809e-25
-5.1141e-26
-6.47031e-26
-1.66843e-26
-4.10975e-27
-9.68381e-28
-1.46546e-27
-2.95647e-28
-5.66641e-29
-1.03352e-29
-1.90988e-29
-2.77274e-30
-3.79043e-31
-4.79239e-32
-9.42163e-32
-8.35833e-33
-6.90049e-34
-5.2946e-35
-2.46296e-35
-7.90245e-37
-2.2956e-38
-6.08897e-40
0.999856
0.999936
0.99942
0.980443
0.945758
0.951555
0.944703
0.92049
0.932345
0.955784
0.99058
0.998269
0.998269
0.998269
0.994781
0.998269
0.998268
0.997251
0.946822
0.916326
0.867624
0.823
0.83109
0.855878
0.882314
0.894684
0.8928
0.884448
0.883885
0.888712
0.896808
0.906445
0.910268
0.91529
0.939435
0.966272
0.993129
0.985351
0.231881
0.276464
0.338515
0.375887
0.39668
0.412986
0.445216
0.480397
0.498904
0.49978
0.491263
0.48561
0.487885
0.49287
0.497878
0.501113
0.51134
0.530734
0.556158
0.000805279
0.00080527
0.000805269
0.00080527
0.000805269
0.000805481
0.000805887
0.00210127
0.00561837
0.00905753
0.0115682
0.0132311
0.0139419
0.0140722
0.0131931
0.0110703
0.0106828
0.010749
0.0139194
0.00300792
0.000805279
0.00080527
0.000805269
0.00124502
0.0016819
0.0010207
0.000978845
0.00143907
0.0012723
0.00127219
0.00128148
0.0013288
0.00141957
0.00134679
0.00127365
0.0011847
0.00129782
0.00153261
0.00102369
0.000805271
0.00080527
0.00080527
0.00226287
0.00231867
0.00231886
0.00231887
0.00231886
0.00231887
0.00210199
0.00195582
0.00192904
0.00195592
0.00195606
0.00195592
0.00104169
0.00100858
0.00134422
0.0017732
0.00173038
0.00196458
0.00196464
0.00192338
0.00192282
0.0016193
0.00146094
0.00141704
0.00159046
0.00124852
0.00130465
0.00133226
0.00117374
0.00128586
0.00133723
0.00103279
0.000864363
0.000858738
0.00113224
0.00086375
0.00102758
0.000913758
0.000230452
5.35079e-05
0.000176083
9.36755e-05
2.51432e-05
4.77349e-05
3.46025e-05
5.59101e-05
5.82196e-05
5.32094e-05
5.80548e-05
0.000176278
0.000341115
0.000275526
0.000192311
1.20738e-08
1.20738e-08
1.20738e-08
1.20738e-08
1.20741e-08
7.4108e-07
1.99674e-06
2.59826e-06
2.82939e-06
2.68309e-06
2.78466e-06
2.91749e-06
1.40202e-05
4.83348e-05
1.63475e-05
3.41145e-06
1.4423e-06
1.43609e-06
1.42247e-06
1.20738e-08
1.20738e-08
1.20738e-08
1.20738e-08
1.20739e-08
1.20769e-08
1.26456e-08
3.43088e-06
2.68309e-06
2.68251e-06
2.68309e-06
1.61054e-05
7.77856e-05
7.76778e-05
7.70528e-05
2.0229e-05
1.43623e-06
1.42307e-06
1.41392e-06
1.22858e-08
1.20738e-08
1.20738e-08
1.20739e-08
1.20769e-08
4.56393e-06
2.07186e-05
2.329e-05
1.59134e-05
6.78323e-06
4.40481e-05
7.77856e-05
7.77856e-05
7.70115e-05
1.67022e-05
6.3872e-06
2.01924e-06
2.10554e-06
1.41554e-06
3.03189e-07
1.20738e-08
1.20741e-08
1.21202e-08
1.46091e-06
2.06032e-05
2.33057e-05
2.33057e-05
1.9057e-05
5.10981e-06
4.92573e-05
7.76288e-05
4.17246e-05
7.50177e-06
7.48218e-06
1.37847e-05
4.5009e-05
3.82132e-05
1.82917e-05
3.42574e-07
1.20741e-08
1.20743e-08
1.20905e-08
3.5554e-07
1.21624e-05
2.26106e-05
1.62717e-05
3.29913e-06
1.83241e-06
8.90788e-06
7.97827e-06
1.18373e-06
1.29398e-06
2.10821e-05
4.76033e-05
4.76129e-05
4.76225e-05
4.76225e-05
4.44413e-07
1.23137e-08
2.03419e-08
2.01301e-07
3.5246e-07
5.20416e-07
1.29944e-06
8.22875e-07
2.55307e-10
4.48995e-09
6.22773e-10
7.05661e-10
6.93709e-09
1.18513e-06
3.55428e-05
4.75944e-05
3.99664e-05
2.30387e-05
4.70093e-05
2.08295e-08
3.71279e-08
7.84497e-08
1.12375e-07
1.074e-07
3.10937e-08
1.52629e-08
1.90318e-09
1.92352e-10
1.91871e-10
3.10303e-10
4.41026e-10
7.01519e-10
1.13084e-06
1.84183e-05
2.14749e-05
9.7517e-10
1.17145e-07
1.18768e-05
3.53198e-09
7.24636e-09
7.45573e-09
1.62309e-09
3.14602e-08
2.50641e-07
2.97536e-07
7.37067e-08
1.91871e-10
1.91571e-10
1.95355e-10
1.96293e-10
3.56571e-10
3.21504e-07
8.34354e-07
1.67443e-10
1.63238e-10
1.52418e-06
2.09678e-05
2.46268e-11
9.4523e-12
2.89669e-12
1.33286e-11
5.84914e-08
3.17769e-07
3.17769e-07
3.17769e-07
1.27505e-07
1.9157e-10
1.9157e-10
1.91583e-10
1.73372e-09
1.1983e-08
1.53615e-10
1.6668e-10
1.51205e-10
1.55758e-06
2.90471e-05
1.61672e-11
5.70192e-12
2.7067e-12
1.92128e-12
3.0663e-09
9.07716e-08
2.79255e-07
3.17375e-07
2.35836e-07
1.9157e-10
1.9157e-10
1.9157e-10
1.91087e-10
1.78949e-10
1.53615e-10
1.86813e-10
1.51177e-10
4.10392e-11
2.11482e-05
2.62874e-12
2.10719e-12
1.75679e-12
1.53115e-12
2.05571e-12
6.14983e-10
2.22317e-08
6.64471e-08
5.76056e-08
4.67629e-08
8.44082e-08
6.94714e-08
1.00492e-08
1.79321e-10
2.57252e-10
2.92973e-10
1.66814e-10
4.10203e-11
4.10392e-11
2.57658e-16
5.34574e-14
1.43687e-13
2.00678e-13
7.37107e-14
8.32013e-13
5.94612e-12
4.06117e-13
7.91893e-11
3.85179e-08
1.01323e-07
1.01325e-07
5.4088e-08
1.12366e-09
2.7593e-10
3.06599e-10
1.72961e-10
4.10392e-11
5.4547e-07
-4.26037e-14
-1.76002e-14
-4.55548e-15
8.48444e-16
6.83429e-16
2.02303e-31
5.04908e-16
7.58411e-14
4.12296e-13
2.52885e-09
3.67131e-08
6.61503e-08
2.96347e-08
1.82974e-09
3.22999e-10
2.96753e-10
9.29228e-11
4.12494e-11
1.42701e-05
-3.60328e-14
-2.04595e-14
-1.09046e-14
-5.34482e-15
-2.22228e-15
-5.82893e-16
7.39745e-16
7.73153e-14
8.77774e-13
1.31886e-12
6.77452e-12
8.62924e-10
9.83921e-11
2.90756e-10
3.08514e-10
1.72435e-10
4.81166e-12
6.14717e-09
1.84064e-05
-2.09293e-14
-1.24396e-14
-7.17458e-15
-4.00985e-15
-2.1566e-15
-1.07458e-15
-2.63969e-16
2.94212e-15
1.95576e-13
1.87062e-12
4.95912e-12
7.29478e-12
8.55289e-12
2.78562e-11
3.69184e-11
3.7956e-11
4.7942e-12
1.0632e-08
1.84084e-05
-9.84675e-15
-5.90376e-15
-3.47438e-15
-2.0177e-15
-1.15826e-15
-6.52333e-16
-3.46867e-16
-3.59337e-17
8.36485e-15
1.90998e-13
1.23229e-12
3.85925e-12
7.9326e-12
7.59465e-12
8.16709e-12
1.50499e-11
4.79228e-12
3.88395e-12
1.81754e-05
-3.79146e-15
-2.25201e-15
-1.31509e-15
-7.59326e-16
-4.3735e-16
-2.52316e-16
-1.43063e-16
-7.1138e-17
1.35225e-16
5.85341e-15
5.9772e-14
3.16753e-13
1.1609e-12
2.14411e-12
3.37476e-12
7.62463e-12
4.20729e-12
3.88074e-12
1.81728e-05
-1.19136e-15
-6.89514e-16
-3.93624e-16
-2.21584e-16
-1.23931e-16
-6.9844e-17
-3.90967e-17
-1.88005e-17
2.7434e-18
2.71494e-16
2.47885e-15
1.39803e-14
6.63119e-14
2.63288e-13
1.11294e-12
4.27618e-12
3.87767e-12
3.87926e-12
1.7968e-05
-3.06656e-16
-1.69032e-16
-9.28833e-17
-5.05381e-17
-2.72081e-17
-1.45276e-17
-7.5126e-18
-2.79756e-18
4.90818e-18
6.04235e-17
4.52217e-16
3.0448e-15
1.95201e-14
1.04073e-13
7.06328e-13
3.84791e-12
3.86509e-12
3.87254e-12
4.38918e-06
-6.47956e-17
-3.28673e-17
-1.68533e-17
-8.64951e-18
-4.39801e-18
-2.15782e-18
-9.33661e-19
-3.24168e-20
5.27017e-18
4.4183e-17
3.15788e-16
2.10555e-15
1.38098e-14
7.66132e-14
6.01883e-13
5.06826e-12
7.13575e-12
4.34902e-12
4.34905e-12
-1.12643e-17
-5.05998e-18
-2.3235e-18
-1.07099e-18
-4.66495e-19
-3.93761e-20
7.81063e-20
7.95036e-19
5.25012e-18
3.90324e-17
2.78169e-16
1.85514e-15
1.2308e-14
6.90599e-14
5.80584e-13
8.21508e-12
1.57082e-11
4.34906e-12
4.35444e-12
-1.66006e-18
-6.38646e-19
-2.477e-19
-6.52612e-20
3.52151e-20
4.69833e-19
2.70368e-18
8.41935e-18
2.00285e-17
5.88358e-17
2.88591e-16
1.8136e-15
1.20241e-14
6.73967e-14
8.16677e-13
1.24643e-11
2.30048e-11
4.3544e-12
7.3759e-06
-2.12655e-19
-6.93436e-20
-1.67922e-20
4.8912e-20
8.95457e-19
6.2751e-18
2.94972e-17
1.01724e-16
2.57241e-16
5.23501e-16
1.12517e-15
3.6508e-15
1.76981e-14
9.20962e-14
1.41512e-12
1.66307e-11
2.65103e-11
4.39857e-12
1.56896e-05
-2.34607e-20
-6.47432e-21
5.52356e-21
3.09856e-19
4.39522e-18
3.51593e-17
1.85178e-16
7.2037e-16
2.10761e-15
4.80236e-15
9.49681e-15
2.04433e-14
5.89995e-14
2.10398e-13
2.1662e-12
1.9749e-11
2.67806e-11
4.41963e-12
1.56904e-05
-2.12602e-21
-3.97728e-22
1.77129e-20
7.86202e-19
1.48792e-17
1.47834e-16
9.02552e-16
3.91554e-15
1.2856e-14
3.3023e-14
7.35474e-14
1.51694e-13
3.1309e-13
6.6232e-13
2.76909e-12
1.86966e-11
2.67699e-11
4.43161e-12
1.56738e-05
-1.49895e-22
8.73554e-23
2.40033e-20
1.48965e-18
3.71859e-17
4.7511e-16
3.5427e-15
1.75544e-14
6.64356e-14
1.9453e-13
4.77425e-13
9.55416e-13
1.63907e-12
2.51807e-12
4.02153e-12
1.52611e-11
2.00106e-11
4.45117e-12
1.56218e-05
-7.82628e-24
1.15432e-22
2.62817e-20
2.14193e-18
7.00784e-17
1.16234e-15
1.09459e-14
6.39697e-14
2.89295e-13
1.01892e-12
2.57626e-12
4.42498e-12
6.18314e-12
8.09716e-12
9.81158e-12
1.47092e-11
1.43279e-11
4.4649e-12
1.31054e-05
-2.8514e-25
4.57567e-23
2.04428e-20
2.4394e-18
1.02463e-16
2.17719e-15
2.63435e-14
1.89656e-13
1.03004e-12
4.44941e-12
1.10798e-11
1.47342e-11
1.63302e-11
2.09343e-11
2.66824e-11
2.77663e-11
4.47757e-11
4.47404e-12
8.92311e-06
-5.87663e-27
2.07447e-23
8.65037e-21
2.03898e-18
1.18711e-16
3.13531e-15
4.98497e-14
4.73198e-13
3.05116e-12
1.50423e-11
3.6502e-11
3.6895e-11
3.56199e-11
5.03671e-11
9.88525e-11
3.89946e-10
3.87171e-10
4.5074e-12
8.02297e-06
2.40482e-28
7.86482e-24
3.71768e-21
8.33837e-19
9.93537e-17
3.53658e-15
7.40866e-14
9.98739e-13
7.50417e-12
3.7152e-11
8.51008e-11
8.21574e-11
7.69964e-11
1.50917e-10
4.70553e-10
2.98435e-09
2.64368e-09
2.97394e-10
8.08674e-06
6.43426e-29
1.87588e-24
9.8051e-22
3.21985e-19
4.3324e-17
2.36655e-15
8.57838e-14
1.65359e-12
1.37923e-11
6.39016e-11
1.38326e-10
1.47286e-10
1.57515e-10
2.90156e-10
2.50838e-09
3.84377e-09
3.5477e-09
1.24771e-10
8.08628e-06
6.39139e-30
2.49733e-25
1.23735e-22
6.80304e-20
1.52947e-17
8.78525e-16
5.79436e-14
2.00677e-12
1.75132e-11
7.77096e-11
1.5519e-10
1.81016e-10
2.28244e-10
4.3821e-10
2.14253e-09
1.7124e-09
1.16733e-09
1.25016e-10
7.58169e-06
-5.16643e-37
1.17404e-29
1.95627e-24
5.68042e-21
1.96972e-18
1.63019e-16
1.2411e-14
1.26507e-12
1.2478e-11
5.28343e-11
1.03e-10
1.40683e-10
1.80818e-10
2.3366e-15
4.28604e-09
4.0641e-08
1.89373e-08
1.24773e-10
5.16971e-06
-6.4013e-42
7.56365e-40
4.5268e-31
2.10379e-25
1.18273e-21
8.14455e-19
3.57078e-16
6.31527e-14
6.67171e-13
3.73291e-12
1.01441e-11
1.66428e-11
1.26018e-11
-4.03897e-31
2.07766e-08
4.44435e-08
4.1004e-08
1.40389e-10
1.09608e-06
)
;

boundaryField
{
    leftWall
    {
        type            zeroGradient;
    }
    rightWall
    {
        type            zeroGradient;
    }
    lowerWall
    {
        type            zeroGradient;
    }
    atmosphere
    {
        type            inletOutlet;
        inletValue      uniform 0;
        value           nonuniform List<scalar> 
46
(
0
0
-2.73921e-23
-4.46668e-23
-6.64625e-23
-9.20368e-23
-1.15398e-22
-1.47413e-22
-2.2674e-22
-3.3241e-22
-3.60613e-22
-2.70717e-22
-1.40233e-22
-5.01236e-23
-1.21856e-23
-2.03496e-24
0
0
0
0
0
0
0
0
0
0
0
0
0
0
0
0
0
0
0
0
0
0
0
0
0
0
4.44435e-08
4.1004e-08
1.40389e-10
1.09608e-06
)
;
    }
    defaultFaces
    {
        type            empty;
    }
}


// ************************************************************************* //
