/*--------------------------------*- C++ -*----------------------------------*\
  =========                 |
  \\      /  F ield         | OpenFOAM: The Open Source CFD Toolbox
   \\    /   O peration     | Website:  https://openfoam.org
    \\  /    A nd           | Version:  9
     \\/     M anipulation  |
\*---------------------------------------------------------------------------*/
FoamFile
{
    format      ascii;
    class       volVectorField;
    location    "22.4";
    object      U;
}
// * * * * * * * * * * * * * * * * * * * * * * * * * * * * * * * * * * * * * //

dimensions      [0 1 -1 0 0 0 0];

internalField   nonuniform List<vector> 
918
(
(2.47629 -0.138943 0)
(0.108704 0.722546 0)
(0.171923 1.05928 0)
(2.31834 0.153728 0)
(-0.0599179 1.26491 -1.21739e-19)
(-0.0924034 0.643931 -5.31449e-18)
(0.529252 0.848194 -2.95853e-19)
(0.274387 0.152904 -2.98878e-20)
(3.00615 -0.0195609 0)
(-0.00820176 0.475878 0)
(-0.0172866 0.588799 0)
(0.605241 0.00676277 0)
(0.0107054 0.439105 0)
(-0.00288262 0.421689 0)
(0.0134579 0.340871 -1.30543e-18)
(-0.00497953 0.767418 -9.19776e-20)
(0.31245 0.0742785 2.15225e-18)
(0.0795756 0.640829 -2.23439e-19)
(1.52884 0.128628 0)
(-0.0270188 0.686613 0)
(0.194646 0.157754 -1.26579e-18)
(3.08302 -0.397373 0)
(2.92445 -0.50598 0)
(1.86116 -0.1811 0)
(0.511431 0.0400865 0)
(-0.0253679 0.521551 0)
(-0.00135314 0.494038 1.86267e-18)
(-0.0232347 1.40517 0)
(0.0730301 2.89323 0)
(0.167912 1.74317 0)
(-0.0402487 3.1558 0)
(0.0264448 1.63381 9.3605e-20)
(0.0228962 0.684437 0)
(-0.147425 0.775093 -2.03112e-22)
(-0.193914 1.0291 4.42179e-18)
(-0.0415772 1.04471 0)
(0.74457 -0.00600606 0)
(0.161128 0.246487 6.65737e-19)
(0.992163 1.51079 6.53579e-19)
(0.649093 0.783218 -5.16542e-19)
(0.797445 1.57227 6.21197e-20)
(0.416082 0.849643 -3.20773e-19)
(0.552474 0.306649 2.93943e-20)
(0.297034 0.153676 0)
(0.962419 0.566161 0)
(0.532777 0.304034 1.32031e-19)
(0.25805 0.162831 -1.35483e-19)
(0.871593 -0.0554792 0)
(3.02784 -0.0017051 0)
(3.00685 0.0178655 0)
(3.20086 -0.417733 0)
(3.04288 -0.0742121 0)
(3.03116 -0.0388408 0)
(0.0186611 0.905911 -1.14703e-18)
(-0.0541882 0.971833 0)
(0.00278761 0.453943 0)
(-0.0289436 0.97878 0)
(-0.011373 0.480108 0)
(-0.00145476 0.871515 0)
(-0.0521408 1.10937 0)
(-0.0126495 0.5409 0)
(-0.0254305 1.16118 0)
(-0.00603627 0.621299 0)
(0.790446 0.0116196 0)
(1.16947 -0.00156621 0)
(0.618271 0.0123679 0)
(1.12585 0.0175975 0)
(0.569793 0.00867695 0)
(0.225406 0.921982 1.96002e-18)
(0.0985378 1.2081 0)
(0.176302 1.06604 0)
(0.0331901 0.755774 2.19958e-23)
(0.0372233 0.498055 -2.93137e-18)
(0.0194616 0.747943 0)
(0.0059542 0.422033 0)
(-0.000695502 0.734548 4.51809e-24)
(0.000702431 0.414825 0)
(-0.0169211 0.74318 0)
(-0.0129379 0.427981 0)
(0.0494917 0.650132 0)
(0.0484894 0.458368 0)
(0.00803101 0.622021 1.23426e-18)
(0.000757272 0.34492 0)
(-0.0733608 4.68955 0)
(0.0084859 1.45629 9.13146e-20)
(-0.0106228 0.784812 -1.17591e-19)
(0.636203 0.152172 -7.50984e-19)
(0.321662 0.0656909 -7.2874e-19)
(0.644924 0.169756 -2.25477e-18)
(0.31759 0.0955878 -1.45165e-18)
(0.07882 0.620007 0)
(0.178028 1.31052 1.85342e-19)
(0.179293 0.728435 -2.95729e-19)
(2.06031 0.260945 0)
(1.10704 0.118449 0)
(3.03313 0.103887 0)
(3.10392 0.446059 0)
(2.83919 0.377459 -1.0128e-17)
(2.57811 0.361309 7.77141e-18)
(-0.071073 1.26476 0)
(-0.011523 0.623786 0)
(-0.0150562 1.9062 0)
(-0.0510812 1.34955 0)
(-0.0483776 0.680704 0)
(0.440453 0.29574 4.00742e-19)
(0.225526 0.163409 0)
(2.29609 -0.266394 0)
(1.32372 -0.119274 0)
(1.0764 0.0126632 0)
(1.01208 0.0187614 0)
(0.540964 0.010846 0)
(1.01974 0.0563795 0)
(0.8213 0.0703335 0)
(0.343655 0.0286977 3.3631e-18)
(-0.00543591 0.451598 1.7738e-18)
(-0.0270332 0.78463 0)
(-0.0473243 0.847516 0)
(-0.0152753 0.46044 0)
(0.00013244 0.839725 1.81622e-18)
(7.29674e-05 0.48753 0)
(-0.00547891 0.845554 -5.59105e-18)
(-0.00488634 0.496761 1.88657e-18)
(0.0515213 3.57406 0)
(0.0391683 4.03237 0)
(-0.0165457 1.40786 -2.05225e-21)
(-0.0135341 1.35952 0)
(-0.00998678 0.739735 0)
(1.41016 0.0348814 0)
(0.760537 0.0154364 0)
(0.709522 0.0142635 0)
(1.41617 -0.03285 0)
(0.773509 -0.00874093 0)
(0.322322 0.480728 -8.3586e-19)
(0.156917 0.232875 0)
(0.325247 0.50961 9.36774e-20)
(0.163503 0.268654 0)
(1.23945 1.3849 1.66616e-19)
(0.777925 0.739942 -3.9275e-19)
(0.410829 1.41875 0)
(0.605931 1.53075 0)
(0.302909 0.812968 0)
(0.145538 0.353834 -4.43093e-19)
(0.607475 0.280792 0)
(0.313576 0.134663 3.98855e-19)
(1.42612 1.30525 0)
(1.58565 1.16752 0)
(0.874253 0.663278 4.62009e-19)
(1.733 0.952466 0)
(1.06809 0.438513 2.321e-20)
(1.47297 0.0081366 0)
(1.50099 -0.0292403 0)
(0.801892 -0.004417 0)
(1.95042 -0.19978 0)
(1.65082 -0.148181 0)
(1.05215 -0.0889701 0)
(3.06126 0.164853 0)
(3.03105 0.0687871 0)
(3.01022 0.0531592 0)
(0.0356288 1.61081 6.08636e-19)
(0.0178924 0.829754 0)
(0.0180468 1.70195 1.08045e-18)
(0.00305148 0.941979 -9.71329e-19)
(0.064579 1.1492 1.88205e-19)
(0.0476338 0.986438 0)
(0.0400969 0.52728 0)
(-0.0286496 1.00282 0)
(-0.00701755 0.516223 0)
(0.0177584 1.61908 -4.43137e-21)
(-0.0183544 0.867906 0)
(-0.0540882 1.58712 -2.25648e-19)
(-0.0163642 0.822201 4.3698e-19)
(-0.00188558 1.02732 0)
(0.0100895 1.04188 0)
(-4.12789e-05 0.53037 0)
(0.0104122 1.17031 0)
(0.000716673 0.612179 0)
(1.46824 -0.00371561 0)
(0.789174 0.0080536 0)
(1.4405 0.0331601 0)
(0.761769 -0.000560007 0)
(0.675397 0.00534263 0)
(1.26199 0.0166787 0)
(1.20243 0.0473063 0)
(0.65971 0.0155539 0)
(-0.00580053 1.42077 -1.7023e-20)
(0.000184312 1.37708 0)
(0.00482011 0.732923 0)
(0.00172892 0.417221 0)
(0.284625 0.829119 0)
(0.253771 0.39994 -2.87189e-19)
(-0.00221708 0.635425 0)
(-0.00889264 0.36761 0)
(0.00658469 4.3421 0)
(-0.0541203 4.66396 0)
(-0.0237944 4.56862 0)
(-0.0746036 3.36029 2.04855e-20)
(-0.0634169 4.59915 0)
(-0.0562629 4.17353 0)
(0.00459795 0.819239 1.07604e-20)
(0.0139902 1.56245 1.65266e-19)
(-0.0360057 1.5022 1.20815e-19)
(-0.00763181 0.825661 0)
(0.664534 0.105724 1.15334e-18)
(0.325728 0.0441658 -1.1303e-18)
(0.150146 1.13634 0)
(0.101271 0.574737 -2.69481e-19)
(0.118726 1.23678 -8.75177e-19)
(0.0521397 0.68918 8.70672e-19)
(0.809206 0.0240626 0)
(1.55678 0.047678 0)
(1.7097 0.127651 0)
(0.919847 0.0445222 0)
(0.00755037 1.18226 0)
(0.0255577 1.19101 0)
(0.00430444 0.628071 0)
(0.48229 0.315199 1.20377e-18)
(0.437004 0.309203 -1.38689e-18)
(0.234841 0.164227 0)
(1.93521 0.152928 1.15245e-19)
(1.13622 0.0932091 0)
(1.72416 0.118415 0)
(0.883641 0.0226819 0)
(0.678264 0.0857447 0)
(0.699794 0.0460643 -5.40774e-18)
(0.346764 0.0325975 1.9991e-18)
(0.00914556 0.807281 1.69394e-18)
(0.00222224 0.462509 4.0816e-20)
(-0.0108777 1.40842 -3.58049e-20)
(0.00613615 1.38675 1.36603e-18)
(-0.0149832 0.848955 6.29515e-20)
(-0.0119261 0.524486 -2.52937e-22)
(-0.107514 1.00068 -1.16501e-18)
(-0.0529602 1.3532 8.34089e-19)
(-0.0175323 1.35275 -1.35793e-18)
(1.4227 -0.0170886 0)
(1.44233 0.0203138 0)
(0.769854 -0.000180582 0)
(1.45219 0.0253819 0)
(1.36321 0.0462286 0)
(0.761547 0.0203061 0)
(1.30064 -0.00215602 0)
(1.31869 -0.00585133 0)
(0.695066 -0.000988283 0)
(0.305073 0.473743 -9.15435e-19)
(0.161464 0.242834 0)
(0.157331 0.30873 1.36999e-19)
(0.309937 0.586493 1.12261e-18)
(0.307698 0.549091 -6.64584e-19)
(0.156969 0.282139 1.29867e-18)
(0.278912 0.718755 2.18279e-18)
(0.148505 0.381378 3.93888e-19)
(0.636229 0.213145 1.53757e-18)
(0.626143 0.253666 3.99348e-19)
(0.316678 0.115065 7.49327e-19)
(1.92054 0.714209 -5.99824e-19)
(1.1673 0.335932 -7.02033e-19)
(-0.0352588 1.70891 4.64383e-19)
(-0.0115634 0.927949 0)
(1.60376 0.023925 0)
(1.52181 0.0653581 0)
(0.852873 0.0268472 0)
(-0.00355883 1.38473 0)
(0.00507417 0.729574 2.49546e-18)
(0.00465034 0.731252 0)
(0.00207078 0.415097 -2.44249e-18)
(-0.0102752 1.38626 5.95738e-19)
(-0.00947269 1.4225 0)
(0.336774 0.488456 2.58012e-19)
(0.360259 0.546721 -8.63177e-19)
(0.171943 0.257969 7.813e-19)
(-0.0256709 0.767462 -1.6629e-18)
(-0.02615 0.68973 0)
(-0.0154341 0.412933 0)
(0.0298301 1.54985 -1.27678e-20)
(0.0310526 1.58161 -3.64478e-19)
(0.0177334 0.823321 -1.55852e-20)
(0.213977 1.04641 8.90745e-19)
(0.119949 0.510014 -5.92745e-19)
(0.0119577 1.48964 7.31228e-19)
(0.0561226 1.35504 -8.16154e-19)
(0.0269521 0.762757 3.53618e-20)
(0.00751248 1.36614 -3.80812e-18)
(-0.000215748 1.39326 4.41003e-18)
(0.00377326 0.829776 1.73316e-18)
(-0.0138294 0.805094 -1.72564e-18)
(-0.0043092 0.481399 -1.7388e-18)
(-0.0106513 1.41685 -4.50041e-18)
(-0.0152181 1.40032 4.58962e-18)
(0.286764 0.675669 0)
(0.300145 0.635358 -2.28873e-18)
(0.152127 0.332087 9.90806e-19)
(0.281742 0.797239 1.18581e-18)
(0.139072 0.428195 -1.82968e-18)
(2.05656 0.322442 4.15871e-19)
(2.05096 0.547461 0)
(1.21836 0.220891 -4.01837e-19)
(-0.0742121 1.6397 -4.80095e-21)
(-0.0144592 1.69573 0)
(-0.0158688 0.924692 0)
(0.227596 0.946365 -3.23014e-19)
(0.248729 0.868056 -7.07395e-19)
(0.129074 0.46408 1.32567e-18)
(3.16442 -0.442873 0)
(3.34728 -0.414686 1.81287e-18)
(0.0591735 3.49009 0)
(0.0470436 2.81409 0)
(3.15925 0.249914 1.41919e-20)
(3.12355 0.506295 3.71225e-18)
(0.020769 3.4259 -2.74926e-20)
(0.00821004 2.65856 0)
(-0.0416351 1.19605 1.55527e-18)
(0.190243 1.31667 0)
(3.47159 1.62428 -3.24812e-19)
(3.17427 0.272571 -2.961e-20)
(3.14838 -0.1187 0)
(3.10047 -0.000405043 3.73034e-22)
(0.0437015 2.58315 0)
(0.158225 3.31 0)
(-0.0555954 2.52957 0)
(-0.0241575 3.49562 3.15744e-19)
(-0.026534 3.57387 1.99236e-19)
(2.63352 0.0488103 -1.3649e-20)
(3.04744 0.0311283 0)
(3.15779 0.0867979 0)
(-0.0563227 4.61749 0)
(-0.0473562 3.08157 0)
(-0.0735244 2.93734 0)
(0.651538 3.09894 2.66041e-19)
(3.33884 -0.42246 0)
(3.0114 -0.345811 0)
(3.1699 -0.0530381 2.27728e-18)
(3.2927 -0.328701 -2.7421e-18)
(3.1038 -0.125777 0)
(-0.0621852 4.51707 0)
(0.0124928 3.93976 0)
(0.00368753 4.26938 0)
(-0.0286501 3.0985 0)
(-0.0147991 2.85619 0)
(-0.0316631 2.4286 0)
(2.9742 -0.00317772 0)
(2.85045 0.0486213 -1.80503e-20)
(2.24511 3.04615 -3.21908e-19)
(3.15695 0.044454 -2.27835e-18)
(3.19037 0.278178 2.76945e-18)
(3.0828 0.117337 0)
(3.3954 0.328923 2.08737e-18)
(3.35695 0.484365 -2.70665e-18)
(3.07111 0.418428 0)
(-0.0566761 3.34423 0)
(0.00383564 3.2717 8.52765e-20)
(-0.0312772 2.57175 -6.04191e-20)
(3.70747 0.555099 2.26567e-18)
(3.47075 0.208402 0)
(-0.15195 1.27126 -2.1663e-18)
(-0.0623915 0.882157 -1.35058e-19)
(-0.0847633 1.33676 2.98612e-18)
(-0.0351935 1.27048 -8.99771e-19)
(-0.000453929 1.08845 0)
(-0.0266665 1.23955 6.94972e-19)
(-0.115042 1.38786 2.14691e-18)
(-0.0590405 1.34056 -1.31435e-18)
(-0.0767423 1.32063 0)
(1.28975 0.597386 0)
(1.17779 0.682633 0)
(3.5558 2.02852 9.53732e-19)
(3.04854 1.9348 -1.19087e-18)
(3.83718 1.70587 0)
(3.3833 1.15634 0)
(3.34935 0.280492 -3.91698e-18)
(2.89884 0.173118 4.83996e-18)
(3.35144 -0.155483 0)
(2.85478 -0.0761391 0)
(3.43642 0.0430223 0)
(3.59381 0.145053 0)
(3.28683 0.119873 0)
(3.55033 0.298577 0)
(3.40841 0.293057 0)
(3.32755 0.218072 0)
(0.0972182 2.78427 0)
(0.0344307 2.07385 0)
(0.12622 3.04469 0)
(0.0923048 2.19974 0)
(0.21558 3.60256 0)
(0.140658 2.68202 -5.58988e-19)
(0.0535578 3.61941 0)
(0.0116185 3.02388 4.05842e-19)
(-0.024962 3.21168 -5.17092e-19)
(-0.06019 2.79459 0)
(-0.0234078 2.1982 0)
(-0.073003 2.90115 0)
(-0.0558669 2.04511 0)
(-0.108997 4.75164 -2.45448e-19)
(-0.0812539 3.94542 2.77162e-19)
(-0.0757388 3.80807 3.08967e-19)
(-0.0533221 3.02252 0)
(-0.106198 3.80696 -4.586e-19)
(-0.0382214 3.2182 -2.94961e-19)
(-0.0834546 4.78391 1.92519e-19)
(-0.0961319 4.46844 -3.50328e-19)
(-0.0707333 4.33904 -3.788e-19)
(3.03142 0.0883576 3.35872e-18)
(2.28966 0.032174 -4.22993e-18)
(2.89142 0.132817 -3.32765e-18)
(2.20969 0.0734765 4.15643e-18)
(3.36853 0.0276964 0)
(2.64301 -0.0026596 0)
(3.45407 0.0913043 0)
(3.32017 0.0192582 0)
(2.70655 0.00920888 0)
(3.68015 0.239534 0)
(3.43871 0.0959393 0)
(2.86349 0.0564789 0)
(-0.0257843 4.33025 -1.2046e-20)
(-0.0593377 4.65236 0)
(-0.0647572 4.54552 0)
(-0.0769577 3.50325 8.77557e-20)
(-0.0381993 2.77768 -3.46531e-21)
(-0.0841506 4.66959 1.13473e-19)
(-0.0980435 4.45956 -1.1467e-19)
(-0.0809485 3.95758 0)
(-0.0590307 3.87909 0)
(-0.0231805 3.99611 0)
(-0.0730562 3.25754 0)
(-0.043263 2.30197 0)
(0.947891 3.65499 -6.09228e-19)
(0.91964 2.84754 -1.76525e-19)
(0.431546 2.05713 -2.28362e-19)
(0.253205 2.30498 6.97551e-19)
(1.02585 4.20362 2.6383e-19)
(3.43308 -0.167426 0)
(3.32213 -0.256548 0)
(2.88327 -0.189517 0)
(3.47032 -0.0643495 0)
(3.34581 -0.147866 0)
(3.44893 -0.261025 0)
(3.5195 -0.283603 0)
(3.57949 -0.281132 0)
(3.22415 0.0933783 3.61903e-18)
(2.55521 0.0645143 -4.57621e-18)
(3.09652 0.106567 -3.56248e-18)
(2.50913 0.0566682 4.43272e-18)
(2.23908 3.41376 0)
(1.7378 2.9442 -4.45956e-19)
(2.56629 3.3467 -4.03391e-19)
(2.36765 2.52708 5.36132e-19)
(0.775203 1.21398 2.72281e-18)
(1.44697 0.216487 1.34321e-18)
(3.72235 0.304121 0)
(3.89288 0.572612 -1.84612e-18)
(3.29867 0.243858 -8.23437e-20)
(3.721 0.440026 0)
(0.236917 1.31248 1.79636e-18)
(-0.01651 1.20204 -2.87678e-18)
(0.058947 0.77 1.61478e-18)
(0.27613 0.464996 -7.47955e-19)
(0.187424 1.384 8.71132e-19)
(0.0507353 1.23726 0)
(0.0578035 1.0863 -1.13246e-18)
(0.191947 1.44315 -4.09277e-18)
(0.329342 1.55724 0)
(0.00867048 1.2902 1.19602e-19)
(-0.00971994 1.45729 -1.3404e-18)
(-0.0410174 1.30282 1.94865e-18)
(-0.0574485 1.41766 0)
(-0.0204801 1.38227 0)
(0.681564 1.05054 0)
(2.45831 2.45584 -1.06627e-18)
(2.64247 2.17199 3.95318e-19)
(2.79156 2.88075 0)
(3.21278 3.06604 -3.94567e-19)
(3.16504 2.41045 2.8448e-20)
(0.804059 0.589609 -1.8226e-18)
(1.55634 0.691599 -1.62225e-20)
(1.23321 0.451094 8.7218e-19)
(1.27555 0.843909 5.951e-20)
(0.939172 0.634048 -2.36969e-18)
(1.4647 0.714329 0)
(1.99059 1.09996 1.45601e-18)
(2.03269 1.01589 0)
(1.41231 0.790903 0)
(1.06228 0.549816 0)
(3.37625 2.18002 1.00845e-18)
(3.94722 0.760633 -1.86342e-18)
(3.84743 1.21566 0)
(3.5332 0.757503 0)
(1.39163 0.364811 1.33252e-18)
(3.25886 1.84227 -8.51521e-19)
(2.83533 1.65457 1.54686e-18)
(3.75568 1.37688 -1.83585e-18)
(3.09795 0.114753 2.464e-18)
(3.16857 0.180813 -2.57895e-18)
(2.66184 0.0916399 0)
(3.30729 -0.0395062 0)
(3.2014 -0.0842622 -2.36654e-18)
(2.63242 -0.0321128 2.34569e-18)
(3.9563 0.0931864 0)
(3.7597 0.14564 0)
(3.69369 0.155368 0)
(3.5883 0.204743 0)
(3.83261 0.0590238 0)
(3.72611 0.052247 0)
(-0.0404605 2.50699 0)
(-0.0379047 2.00719 0)
(0.356781 3.98247 -4.10997e-19)
(0.661904 3.32705 -1.6011e-19)
(0.258926 3.02111 -3.58159e-19)
(0.34307 2.54223 5.73726e-19)
(0.457837 4.00894 0)
(0.470752 4.67069 -5.09779e-19)
(0.384421 4.7287 0)
(0.913359 4.37827 -3.79521e-19)
(0.675696 3.82081 9.69106e-19)
(0.598397 4.65088 4.46805e-19)
(0.740852 4.19633 -1.87474e-19)
(0.602609 4.32149 1.5083e-19)
(0.917443 4.65501 -6.63646e-19)
(0.750265 4.66173 0)
(0.860268 4.58885 5.04513e-19)
(0.00616228 4.57674 -1.81108e-19)
(-0.0192355 3.65472 0)
(0.10118 4.29293 5.49536e-19)
(-0.00330078 4.39622 0)
(-0.00395437 3.46696 -4.51291e-19)
(-0.0155291 2.92058 0)
(-0.102009 4.30452 -2.8895e-19)
(-0.107944 4.68067 0)
(-0.054005 3.80083 0)
(-0.0412148 3.7225 3.24995e-19)
(-0.0483799 3.89417 1.03726e-20)
(-0.0358421 3.71638 6.25936e-19)
(-0.0418312 2.95637 4.06812e-21)
(-0.116639 4.71101 1.80076e-19)
(-0.105575 4.74234 1.03152e-19)
(-0.0176646 2.62112 0)
(0.000629824 2.13423 0)
(-0.0428936 4.78983 4.85871e-19)
(-0.0494119 4.30446 4.23334e-19)
(-0.0845135 4.58257 -5.53492e-19)
(0.0155906 4.75714 0)
(-0.0816796 4.53395 -3.08993e-19)
(-0.120374 4.16731 1.27694e-19)
(-0.0874107 4.24924 -4.12974e-20)
(-0.0732288 4.7296 -2.18758e-19)
(-0.0879547 4.27139 -6.85127e-20)
(-0.0860219 4.21692 3.06579e-19)
(2.87146 0.0610117 -2.36361e-18)
(2.85893 0.0496889 2.27308e-18)
(2.33864 0.0345501 0)
(3.51022 0.191975 3.0466e-18)
(2.70382 0.12652 -3.30486e-18)
(2.25463 0.0644682 3.60968e-18)
(3.68264 0.335254 -4.01652e-19)
(3.20987 -0.0485323 0)
(3.17209 -0.0135657 2.23709e-18)
(2.69088 -0.012382 -2.21945e-18)
(3.87869 0.122184 -1.25243e-19)
(3.77171 0.101814 1.07837e-18)
(4.15972 0.173409 0)
(4.22844 0.181067 -3.75145e-19)
(4.01374 0.145181 0)
(3.69496 0.155367 0)
(4.0323 0.0950652 0)
(3.71181 0.0873141 0)
(4.18472 0.113833 7.85526e-19)
(4.13721 0.0790967 -1.74797e-18)
(4.14064 0.113838 -8.48041e-19)
(4.18638 0.116477 -9.24519e-19)
(4.21565 0.22892 1.77413e-18)
(3.85467 0.188567 0)
(4.06117 0.30179 0)
(-0.0758986 4.57903 -1.35782e-19)
(-0.0360042 4.64285 -1.16831e-20)
(-0.0692747 4.66011 0)
(-0.0579644 4.1945 1.38171e-19)
(-0.0564251 4.22071 2.25475e-20)
(-0.0607401 4.0883 -2.18602e-20)
(-0.0815371 3.52957 2.61081e-19)
(-0.145721 4.0074 -1.45164e-20)
(-0.104629 4.13571 7.47326e-20)
(-0.0755426 3.40354 -1.32305e-19)
(-0.0254376 2.9268 1.58443e-19)
(-0.0790189 4.42919 5.19083e-21)
(-0.0921723 4.64238 1.72152e-19)
(1.24396 4.35505 3.47574e-19)
(1.16052 4.52596 7.25788e-19)
(1.73554 3.46193 4.3123e-19)
(1.30738 3.55465 1.69694e-19)
(1.28449 2.88459 0)
(0.550041 2.32333 2.75047e-19)
(0.464628 1.74488 3.30916e-19)
(0.346251 2.57346 1.51535e-20)
(0.493832 3.18032 -1.16157e-18)
(0.634126 3.13834 8.76975e-19)
(0.434152 2.4096 0)
(0.294592 1.97666 -5.57683e-19)
(0.260712 3.08503 1.39569e-18)
(0.274198 2.72592 -3.14502e-20)
(0.158503 2.28242 -1.74938e-18)
(0.592322 1.41286 1.46396e-18)
(0.577496 1.61938 0)
(3.58364 -0.0751537 8.64364e-20)
(3.61861 -0.254105 -7.25992e-20)
(3.72135 -0.217717 -1.26659e-18)
(3.75927 -0.126025 1.28247e-18)
(3.67616 -0.0488617 0)
(2.44662 3.86938 0)
(2.61867 3.91333 0)
(2.8899 3.62394 0)
(2.73715 3.64172 0)
(0.855028 1.39555 -3.33427e-21)
(0.612068 1.03995 0)
(1.71169 3.38696 1.50231e-20)
(1.42357 3.46641 0)
(1.32889 2.95384 -1.28412e-18)
(1.4094 2.896 8.24658e-19)
(1.79154 0.31042 0)
(1.43068 0.262043 3.5208e-19)
(2.41194 0.358823 2.19186e-18)
(1.78631 0.284836 -7.85459e-19)
(1.42649 0.112198 -2.49507e-18)
(4.26627 0.789829 -2.56555e-18)
(3.85236 0.995006 -3.67144e-20)
(3.29744 0.84453 2.06788e-18)
(3.87611 0.745303 1.81333e-18)
(3.12339 0.465633 -3.04513e-18)
(2.91057 0.452126 3.75e-19)
(3.19294 0.68228 -8.18743e-19)
(2.9765 0.683334 0)
(3.75896 0.563865 1.53769e-18)
(4.09586 0.629219 0)
(4.0914 0.77625 0)
(4.04562 0.415771 8.23705e-19)
(4.29661 0.642374 -3.02523e-20)
(4.24927 0.715628 -4.52893e-19)
(4.17639 0.64302 0)
(3.61576 0.130365 1.71823e-18)
(4.19001 0.183509 2.14426e-18)
(4.09073 0.151593 -1.67946e-18)
(4.13658 0.240777 -1.44289e-18)
(3.74584 0.23814 -2.15643e-18)
(3.30315 0.375919 0)
(3.40361 0.302341 0)
(2.55831 0.190628 -1.26609e-18)
(2.10866 0.119104 4.76782e-19)
(4.03731 0.352526 1.94039e-18)
(4.28769 0.432681 -2.34658e-18)
(4.28494 0.489303 2.06898e-18)
(4.15723 0.493356 0)
(4.2566 0.337151 0)
(4.26646 0.322314 -9.81921e-19)
(4.21432 0.316048 -1.59656e-18)
(2.229 3.48846 6.2048e-19)
(1.93991 3.23273 -6.83445e-19)
(1.44732 2.35715 -1.0321e-18)
(1.1875 1.99753 2.66896e-19)
(0.884617 1.37923 -2.62932e-18)
(0.794306 1.21626 9.22319e-19)
(0.601247 0.904586 -1.95862e-21)
(1.11559 1.78592 -1.13809e-18)
(1.14303 1.88321 1.69895e-18)
(0.97517 1.70109 5.06169e-19)
(0.786528 1.2894 -5.12787e-19)
(0.635819 1.07498 0)
(2.44731 2.60759 -1.15441e-19)
(0.705796 1.14454 8.57392e-19)
(0.928334 0.890178 1.15637e-18)
(0.755783 0.813964 1.33799e-18)
(1.08362 0.74685 1.34133e-18)
(1.46772 1.0448 -2.27057e-18)
(1.38374 1.07174 1.83967e-18)
(1.00233 0.7659 -6.76857e-19)
(0.817409 0.568262 1.49485e-18)
(1.6159 0.490846 -7.78154e-19)
(1.5594 0.508447 0)
(1.23986 0.407424 4.61031e-21)
(2.51029 1.51623 7.75628e-19)
(2.08078 1.27054 -2.80885e-18)
(1.68756 1.18489 9.10467e-21)
(1.66153 1.09274 0)
(2.86354 2.5954 8.73819e-19)
(3.44724 2.75221 1.03743e-18)
(3.25644 2.9304 -1.19592e-18)
(3.55437 2.7626 -4.28384e-19)
(3.48396 2.60229 -1.349e-19)
(3.51231 2.79391 1.38795e-19)
(3.67492 2.26651 -1.67942e-18)
(3.70522 2.49154 4.00776e-19)
(3.78348 2.43491 0)
(3.78414 2.19069 -5.7973e-19)
(4.04916 1.0731 5.80574e-19)
(4.27586 0.992845 1.00221e-18)
(4.30037 0.966552 1.0117e-18)
(4.05522 1.32902 -1.14965e-18)
(4.10273 1.34928 0)
(4.15232 1.23325 0)
(3.32836 1.23567 -1.55952e-20)
(2.41829 0.666549 0)
(2.72242 0.744058 9.30694e-19)
(3.23882 0.885855 -2.64467e-20)
(3.77338 1.53445 5.10754e-18)
(3.57047 1.76172 1.31114e-18)
(3.48164 1.54039 -1.34071e-18)
(3.03821 1.36983 1.43748e-18)
(2.76158 1.3698 8.23814e-19)
(2.30743 1.15613 -7.97846e-19)
(3.6722 -0.0855531 1.98469e-18)
(3.8947 -0.0289433 0)
(3.85894 -0.0665591 1.34211e-18)
(3.74291 -0.0594183 -2.98784e-18)
(3.98056 0.0373629 1.46201e-18)
(3.90445 0.113413 -3.08303e-18)
(3.73987 0.128021 0)
(3.55626 0.173462 -6.28564e-19)
(3.81198 0.122972 1.60532e-18)
(3.69196 0.191376 -8.22581e-19)
(3.6003 0.171071 5.90732e-19)
(-0.0807721 2.58642 0)
(-0.0478213 3.39245 0)
(-0.0321841 2.45694 0)
(-0.021809 1.96678 0)
(0.0458591 3.93489 6.70223e-19)
(0.139953 3.7156 -1.72871e-19)
(0.317572 4.64117 -2.2961e-19)
(0.2529 4.45534 2.42482e-19)
(-0.0259322 4.28938 -4.97172e-19)
(0.011338 4.32153 3.7335e-19)
(0.0952859 3.86316 2.22952e-20)
(0.00928638 3.55019 -4.66856e-19)
(-0.0129882 3.30249 -6.22247e-20)
(-0.0401058 3.66521 -5.66919e-20)
(0.153414 4.48012 -5.86895e-19)
(0.17887 4.29477 0)
(0.276166 4.63816 2.96414e-19)
(0.269008 4.71015 2.53013e-19)
(0.597304 4.44764 -2.25989e-19)
(0.409922 3.78846 0)
(0.459099 3.63533 -1.11542e-18)
(0.562514 4.00413 7.90347e-19)
(0.481555 4.56472 -6.14855e-19)
(0.371583 4.43766 3.30784e-19)
(0.300948 4.16214 0)
(-0.0360348 4.76382 -5.52866e-19)
(-0.0756487 4.53262 -6.41393e-19)
(-0.0769617 4.74321 0)
(-0.029713 4.36608 -6.25653e-21)
(-0.019604 4.64595 2.74108e-19)
(-0.120058 3.878 4.46759e-20)
(-0.056751 3.48352 -6.53295e-19)
(-0.0972357 3.922 1.74162e-19)
(-0.137446 4.51472 2.32071e-19)
(-0.0775449 4.32424 0)
(-0.0617175 3.88368 0)
(-0.0832568 2.8987 2.00805e-19)
(-0.0493048 3.63057 -6.26538e-20)
(-0.0744496 3.61754 0)
(-0.0890796 2.68659 1.58106e-19)
(-0.0469656 2.19412 -3.06345e-19)
(3.76101 0.032323 0)
(3.73188 0.00772422 -2.03285e-19)
(4.17949 0.0679258 -1.44001e-18)
(4.08908 0.0462765 0)
(3.8763 0.0177906 0)
(4.14973 0.0370328 -1.25232e-20)
(4.1003 0.0349305 2.37902e-18)
(4.00011 0.0801877 2.84578e-18)
(3.75589 0.118649 0)
(3.55805 0.110037 0)
(4.01334 0.0939272 1.41754e-18)
(3.70328 0.116113 0)
(3.47214 0.128858 0)
(-0.0846713 4.69983 0)
(-0.110733 4.66762 1.06666e-20)
(-0.0810795 4.7194 6.30019e-20)
(-0.0632886 3.83162 0)
(-0.11598 4.53582 1.11194e-19)
(-0.0716108 4.24153 -6.33522e-20)
(-0.0571221 3.93026 0)
(1.41332 4.18857 0)
(1.2107 4.57909 -1.29786e-18)
(1.22643 4.48865 0)
(1.57539 4.48519 1.48448e-18)
(1.59318 4.11638 0)
(1.50195 4.36825 -6.06598e-19)
(1.01305 2.24517 -3.39618e-20)
(0.710319 1.64746 -1.74543e-18)
(0.591495 1.22893 2.12952e-18)
(0.710125 1.8378 3.97017e-19)
(0.976957 2.42763 0)
(1.03831 2.38247 0)
(0.719575 1.68966 0)
(0.533217 1.33205 -1.39596e-18)
(1.21203 3.7787 -9.83718e-19)
(1.13116 2.99303 -2.3558e-19)
(1.32968 3.40873 1.92665e-19)
(0.600666 2.04469 0)
(0.62153 1.94588 0)
(0.463228 1.57393 -3.92978e-19)
(0.959737 2.72461 0)
(2.6885 3.57078 0)
(2.38314 3.00944 -1.45469e-18)
(2.54763 3.02754 -8.58795e-20)
(2.42178 3.40505 0)
(2.28776 3.15059 2.2213e-18)
(3.27876 3.08624 -3.89723e-19)
(3.13422 3.32365 0)
(3.11658 3.14995 6.30488e-19)
(2.87128 3.41226 0)
(2.8832 3.20076 0)
(1.21063 2.00805 -9.30673e-19)
(1.41566 2.40522 -6.99665e-19)
(1.7557 2.98382 1.20615e-18)
(1.69797 2.96204 -3.6232e-19)
(1.06363 1.82388 0)
(1.20834 2.21055 4.71221e-19)
(0.719167 1.28984 -7.15438e-19)
(0.582218 1.04443 -5.75502e-22)
(1.93997 3.69777 0)
(2.2015 3.74386 -5.42617e-19)
(2.34023 3.98641 0)
(2.28449 0.529019 0)
(1.61765 0.341943 0)
(1.20927 0.276625 0)
(2.20958 0.554292 -1.46531e-18)
(1.63565 0.40225 8.17285e-19)
(2.14583 0.129113 -9.85191e-19)
(2.62686 0.297508 0)
(2.46593 0.301634 4.135e-19)
(1.77009 0.135716 1.63304e-18)
(1.53043 0.0812682 -1.03707e-18)
(0.746059 1.55661 8.58203e-19)
(0.960559 1.82126 0)
(0.537998 1.4406 1.56118e-18)
(0.524284 1.61529 -1.4255e-18)
(0.757829 1.81507 -9.88547e-19)
(2.07511 2.46365 1.33789e-18)
(2.09862 2.71323 0)
(1.58473 1.67895 -2.76388e-19)
(2.01113 1.99031 1.74525e-18)
(1.36079 1.29325 -4.23636e-19)
(1.58965 1.31407 4.50755e-19)
(2.11073 1.51375 1.02329e-18)
(2.44394 1.67142 0)
(2.27736 1.85675 0)
(2.01111 1.60668 0)
(3.9569 2.07915 3.84549e-19)
(3.76033 1.88945 -1.26357e-18)
(3.81777 2.02762 1.04676e-18)
(3.90142 1.77103 -1.00834e-18)
(4.1578 1.67335 0)
(4.11679 1.84043 -2.97851e-19)
(2.84129 1.16341 -1.89739e-18)
(2.97158 1.16346 -2.4131e-18)
(2.33275 1.04372 1.4565e-18)
(2.13895 0.934605 -1.41993e-18)
(2.46415 0.846252 -1.17818e-18)
(2.1792 0.77708 1.44891e-18)
(4.00845 0.033461 -1.52893e-18)
(4.05275 0.0406716 3.13029e-18)
(3.76796 -0.065894 1.90096e-18)
(3.79118 -0.0737856 -2.28684e-18)
(3.95954 0.010551 0)
(4.05603 0.0228547 -3.72991e-18)
(0.0958056 4.76198 1.06579e-19)
(0.0666636 4.73091 0)
(0.189489 4.73203 9.52994e-19)
(0.211031 4.74902 -8.66996e-19)
(0.230881 4.71593 4.28198e-19)
(0.12172 4.65527 0)
(-0.104483 4.77148 0)
(-0.110196 4.40282 -6.18502e-20)
(-0.109278 4.33211 5.54378e-20)
(-0.118076 4.48174 7.20271e-21)
(-0.108749 4.72166 -1.01123e-19)
(-0.0855997 4.7095 5.50509e-20)
(1.87815 4.01094 -1.6432e-18)
(1.81903 4.01792 1.74022e-18)
(1.68546 4.40521 -8.54151e-19)
(1.69551 4.27866 7.61338e-20)
(2.25324 4.08435 0)
(1.85476 4.21676 -6.3573e-19)
(1.9817 3.95631 6.16571e-19)
(1.82491 4.37832 8.34346e-19)
(2.0779 4.21845 0)
(2.22957 4.09918 0)
(1.14143 3.63524 1.49541e-18)
(0.828879 2.8162 2.02434e-18)
(0.956724 2.99438 -1.39028e-18)
(0.74885 2.9768 -2.32044e-19)
(0.905331 3.73614 4.66526e-19)
(0.724696 3.36922 -1.1346e-18)
(0.746747 1.46729 -1.21525e-18)
(0.74706 1.3182 0)
(0.603242 1.1156 -1.33571e-18)
(1.11231 2.06603 0)
(1.08937 2.15305 0)
(1.35979 2.1917 -1.09076e-18)
(1.06531 2.01505 -1.03617e-18)
(1.01766 2.03583 1.09886e-18)
(1.032 1.51974 0)
(1.41148 1.76254 -6.01308e-19)
(1.62862 2.11995 -8.55522e-19)
(1.41203 2.08342 0)
(0.868539 1.81893 7.12577e-19)
(0.780404 1.6799 0)
(2.90741 2.2892 -1.84707e-18)
(3.31979 2.47046 2.60929e-18)
(3.27858 2.19302 -2.5934e-18)
(2.61159 2.02132 -2.31188e-19)
(2.72609 1.94062 -9.74194e-19)
(1.26296 2.19077 7.96291e-19)
(1.3172 2.24577 -1.36011e-18)
(1.45539 2.33057 1.79302e-18)
(1.7919 2.56067 -1.16538e-18)
(1.89085 2.93385 -1.56736e-18)
(1.56463 2.48997 -1.18811e-19)
(1.63455 2.62975 1.37146e-18)
(1.81173 2.69435 9.66299e-20)
(2.01984 3.00012 6.50079e-19)
)
;

boundaryField
{
    wall-4
    {
        type            noSlip;
    }
    velocity-inlet-5
    {
        type            fixedValue;
        value           uniform (3 0 0);
    }
    velocity-inlet-6
    {
        type            fixedValue;
        value           uniform (0 1 0);
    }
    pressure-outlet-7
    {
        type            zeroGradient;
    }
    wall-8
    {
        type            noSlip;
    }
    frontAndBackPlanes
    {
        type            empty;
    }
}


// ************************************************************************* //
