/*--------------------------------*- C++ -*----------------------------------*\
  =========                 |
  \\      /  F ield         | OpenFOAM: The Open Source CFD Toolbox
   \\    /   O peration     | Website:  https://openfoam.org
    \\  /    A nd           | Version:  9
     \\/     M anipulation  |
\*---------------------------------------------------------------------------*/
FoamFile
{
    format      ascii;
    class       surfaceScalarField;
    location    "10.75";
    object      phi;
}
// * * * * * * * * * * * * * * * * * * * * * * * * * * * * * * * * * * * * * //

dimensions      [0 3 -1 0 0 0 0];

internalField   nonuniform List<scalar> 
1300
(
11.2529
1.87548
-4.48338
11.2529
-4.88149
1.87548
-4.19133
4.19133
-1.23794
1.23794
5.71237
5.54049
-2.44546
2.44546
-2.95625
2.95625
-2.87448
2.87448
-1.06194
1.06194
-1.02832
1.02832
0.703825
-0.703825
-3.30951
3.30951
-1.50361
1.50361
-2.94467
2.94467
6.12841
-6.12841
-3.45107
3.45107
-0.771701
0.771701
-4.26333
15.5162
6.98953
6.98953
-2.39942
2.39942
-1.2556
1.2556
1.41034
-1.41034
9.63335
-9.63335
-5.14997
-6.11603
1.88103
-13.6594
-3.00046
-3.00046
-2.7054
2.7054
-0.829928
1.04555
3.47338
-3.47338
-0.784263
0.784263
-4.25886
0.0675285
-4.25886
3.99973
0.1916
3.99973
-1.38313
0.145191
-1.38313
4.58352
-4.58352
1.1239
0.114036
1.1239
3.92703
-3.92703
-5.70998
11.4224
5.54287
-5.32055
20.8367
-5.93231
11.4728
-3.89513
3.89513
-2.35555
-0.08991
-2.35555
2.46828
-0.0228255
2.46828
-3.92317
3.92317
-2.73033
-0.225928
-2.73033
3.08196
-0.12571
3.08196
3.65313
-3.65313
-2.92671
0.0522334
-2.92671
2.72601
0.148471
2.72601
0.771042
1.10443
-2.64652
3.69207
-1.10443
0.0424987
1.02614
0.0357985
1.02614
-1.01455
-0.01377
-1.01455
1.05003
-0.021713
1.05003
0.747619
-0.0437942
0.747619
-0.759979
0.0561537
-0.759979
-8.52438
-8.77518
-3.43081
0.121295
-3.43081
-1.51489
0.0112768
-1.51489
1.54588
-0.0422715
1.54588
-2.56844
2.56844
-3.26796
0.323288
-3.26796
4.80699
1.32142
4.80699
5.04618
6.20668
16.299
-16.299
10.1706
-3.16689
-0.28418
-3.16689
-3.64003
-5.99332
3.64003
-0.188952
-0.839821
0.0681196
-0.839821
5.62623
1.3633
5.62623
2.60958
0.116432
-2.60958
0.210154
4.58215
-4.58215
1.44282
0.956604
1.44282
-1.191
1.191
1.12399
-0.0739618
-1.12399
-0.131613
1.386
0.024339
1.386
-1.40974
-0.000594771
-1.40974
7.55885
-13.6749
-7.88961
3.13156
0.177956
-3.13156
0.131099
3.55846
-0.0850809
3.55846
-3.31319
3.31319
-3.60843
0.135055
-3.60843
-0.705739
-0.0785242
-0.705739
0.87285
-0.0885869
0.87285
-4.49074
0.231887
-4.49074
-3.6864
0.418442
3.6864
0.313326
1.29358
-1.29358
-1.49059
0.107459
-1.49059
-4.56655
0.0758085
4.56655
0.0169648
-4.67952
0.0960056
-4.67952
-3.71081
0.102373
3.71081
0.216223
4.58868
1.03756
-4.58868
0.66165
-5.36957
11.5762
-5.88329
11.4262
-3.53544
-0.359684
-3.53544
4.06712
-0.171989
4.06712
2.62561
0.31906
-2.62561
0.270067
2.60781
-0.139529
2.60781
-3.88615
-0.0370218
-3.88615
3.72194
0.201229
3.72194
2.66061
-0.0527978
-2.66061
-0.0697169
3.07891
0.00305684
3.07891
3.65537
-0.00223983
3.65537
-3.53005
-0.123073
-3.53005
3.18546
-3.18546
3.08916
0.0962946
-3.08916
0.16245
-5.07402
5.07343
-0.00799909
-5.06602
1.01814
1.01814
0.794897
-0.0472782
0.794897
-0.86266
0.102681
-0.86266
8.42074
-16.3103
8.70711
-17.2315
7.29982
-20.9592
7.93986
-16.715
3.71669
-3.71669
3.64435
0.0723345
-3.64435
0.213543
-1.48888
-0.0260094
-1.48888
-2.33339
-0.235052
-2.33339
2.89956
-0.331117
2.89956
-3.74389
3.74389
-4.12587
0.381975
4.12587
0.681123
3.14789
-0.0689788
-3.14789
-0.0190085
0.966518
0.157382
-0.966518
0.126697
4.80591
-0.223759
4.80591
-4.0529
-0.529248
-4.0529
-1.49968
0.0108035
1.49968
-0.056865
-1.25876
0.0677579
-1.25876
-5.0745
0.00847741
-5.0387
-1.40127
-1.40127
1.30414
4.9962
-3.57839
0.0483356
3.57839
-0.0199313
3.5296
0.214291
-3.5296
0.216416
-3.26822
0.0827654
3.26822
0.0449631
-0.682567
-0.0231722
-0.682567
-1.06973
1.06973
-0.950428
-0.119306
0.950428
-0.0775783
1.45077
-0.157193
1.45077
1.52504
0.0208397
-1.52504
0.0344577
-4.92166
0.242136
-4.92166
4.06572
0.00139705
4.06572
-3.92497
-0.127935
3.92497
-0.269602
-0.00372092
5.07715
-1.01442
-0.000130039
1.01442
-5.10149
5.10136
-0.688014
0.00544723
0.688014
0.106883
1.02911
0.161891
-1.02911
0.16645
3.7494
-0.0274548
-3.7494
0.0327105
-2.052
-0.281391
-2.052
-3.21728
-0.318161
3.21728
-0.317722
-5.11504
-0.0780808
5.19312
-5.13675
1.33684
0.0491617
-1.33684
5.15052
-1.18305
-0.110525
1.18305
-0.113318
1.65268
-0.201909
1.65268
5.04424
-0.23833
-5.04424
0.122581
-4.06501
0.17886
4.06501
0.000709371
-1.82307
-0.228929
1.82307
-0.170389
-13.1277
14.491
7.70899
-6.55306
-7.12182
-12.5464
4.44747
7.12878
14.6181
-11.4387
-9.52048
-11.3076
2.86113
-2.69468
-3.7991
3.75531
23.2259
-23.1299
-18.401
19.0821
20.7744
-20.5581
5.70823
5.71413
16.053
-16.1429
-20.8916
20.5319
15.8919
-16.1178
21.7217
-21.7587
-25.2711
25.2437
-16.1469
16.1992
-20.256
20.1329
-20.9849
20.7153
-8.31692
-8.91456
16.0002
-15.8789
20.8584
-21.1426
-19.3233
19.6466
10.0469
4.44418
11.0844
-6.24703
11.9553
-5.22576
12.9348
8.35031
-16.6672
7.96003
-15.0819
9.57429
11.2841
-9.38534
-3.16105
-17.9578
17.8728
-17.2702
17.3152
23.7068
-23.6392
-6.17253
11.8867
-5.25363
12.3824
-11.4093
-6.99169
10.0879
4.53023
8.69821
7.30198
-8.87617
-2.43148
-24.5776
24.3392
-25.5215
24.9922
0.0921416
2.43037
-2.52251
1.34775
-0.852869
3.28324
2.00826
2.11095
2.45205
-2.29016
0.242636
-2.76514
-2.89676
-5.54444
5.65189
5.37465
-5.26061
16.2542
6.97164
16.2712
-16.5107
-6.61918
-16.2685
11.3661
7.71604
11.748
12.0576
8.71676
12.16
10.3602
-10.3309
-0.0293803
-11.4767
21.837
1.55579
-18.4684
-13.9382
9.05521
6.9978
9.03238
-9.99287
-6.15005
-9.72281
-11.0792
-9.8124
-11.3974
12.289
8.24288
12.1171
-15.1693
15.17
9.69094
6.20096
9.56523
-9.26017
-6.85765
-9.32989
27.1314
-6.49323
-20.6381
-12.9338
-12.3374
12.7325
8.98917
13.9665
11.2772
13.9992
8.71574
18.4156
-17.7049
5.36752
-9.97121
-6.17574
-9.80876
9.3068
6.89238
9.45528
-11.7507
-8.5053
-11.7023
-11.9559
-9.02898
11.9581
8.17476
-12.4772
-13.0442
12.6052
8.11011
7.63132
-17.1518
9.08372
-17.9983
-10.6238
-5.25507
-10.4103
10.7706
6.573
-17.3436
-5.89667
24.1396
-12.8555
20.9785
-11.4315
-9.71109
-11.4505
-14.6743
-4.64894
-14.2559
-8.14235
7.86096
-8.9427
8.61159
26.8763
-16.0526
-10.8237
-12.3772
-8.18089
11.7156
-0.631175
-12.8366
12.8072
-0.881294
12.0535
16.4976
15.8665
-10.8857
-6.38451
-10.6693
10.2836
7.03154
10.3664
15.8626
7.84414
16.0542
-16.5023
-7.13692
-16.2704
5.01425
-5.09277
5.81759
-5.80679
15.4606
9.53158
-15.2369
-9.34071
23.0377
-10.7917
-12.2459
-5.15107
5.32183
-0.170767
-1.86783
-0.520084
0.251617
-1.95097
-1.84813
1.89482
0.216127
5.53796
3.68983
-2.41392
2.48168
2.7792
2.70524
-0.191519
2.58545
-2.58
19.1838
-11.5674
-7.61641
13.6987
-13.6229
-2.57173
-19.0552
16.4835
2.64829
3.15253
-3.08441
-4.08619
-1.45825
-4.05173
3.08996
2.28468
3.24734
2.1714
3.48049
-8.36749
1.63493
6.73256
-6.19609
-3.62568
-13.3523
-6.32007
19.6723
16.4788
7.86042
-16.6014
0.332867
5.44558
-5.48785
-1.54466
-11.8076
8.55302
-10.0977
-15.2643
-6.40204
21.6663
-9.58361
-1.08568
9.36932
2.37871
-10.8722
-7.08568
10.7371
1.42286
-12.0615
23.9745
-11.913
-18.446
8.51814
13.3189
16.2342
-17.8631
9.31568
8.54744
-4.54426
7.63789
1.39449
7.49836
-19.9047
13.7547
11.3767
8.26983
-11.6958
1.97298
-17.9317
25.0592
-22.0694
-2.9898
12.8803
12.1789
13.5069
13.3694
-7.91533
21.4222
-3.43543
-18.634
21.3672
-13.0973
15.5335
-28.6308
-28.9029
10.2689
-17.9244
21.8666
-3.94222
-5.1063
-10.063
23.0307
-2.05544
-20.9753
10.0616
-13.9979
-11.9025
25.9004
-20.4911
18.7601
-6.42157
-12.3386
-12.5082
-9.25052
12.3293
2.8407
-25.5015
30.869
-7.08584
8.19317
1.37206
8.19623
10.6277
-15.809
5.18136
9.86345
-16.285
6.88911
-22.6982
-11.9061
23.7066
-11.8004
-17.1612
-15.4692
-1.69202
4.73162
26.1374
-16.0088
11.808
4.20088
8.4787
1.8877
-8.57499
-1.23376
0.999797
16.1482
-17.148
10.4551
10.5715
11.8174
4.33079
10.7585
7.11422
-10.7386
-0.963723
-14.7661
5.73715
-6.59137
-14.5215
20.2587
-16.2578
1.73629
-10.2973
-14.0167
24.314
-16.473
11.4374
12.5371
18.4689
-19.615
5.59832
-9.7613
-9.85374
10.6595
-17.2509
7.4584
12.8003
15.5685
2.52429
12.5506
11.1559
-19.1236
1.12536
18.4579
-16.0264
3.83494
10.1642
-15.6429
0.173714
-10.2366
2.62386
-15.4793
-14.7197
16.2657
-20.9146
-12.3651
13.4065
2.64778
-13.7198
-0.536102
-5.0677
-3.07465
-5.29663
-3.29945
-5.64325
-11.2148
-1.98265
-9.23213
5.87831
-6.76336
-4.634
7.08108
1.5305
-5.0958
4.98528
-5.73696
5.53505
-0.211587
13.0188
15.6549
7.47399
-8.47451
15.9485
-15.4579
23.302
-29.421
13.9632
15.7346
-22.8715
-13.6864
2.79879
2.21545
2.71021
13.6992
-14.719
1.01973
-13.5595
17.815
-4.25556
-20.0144
6.45499
-6.3152
5.30704
0.510553
5.28103
1.46289
6.9003
-8.36319
-4.3439
-4.40076
-9.09087
-13.8052
22.896
4.83364
-13.1113
8.27765
-12.1826
17.0163
0.165855
-13.2771
17.1597
-10.2594
17.6703
-12.0168
5.65352
12.7782
22.368
-9.58979
16.1706
-6.63902
6.97529
-16.5651
-6.82988
-11.3251
18.2175
-12.9889
14.7252
-1.06949
15.7947
-13.8602
3.06847
-2.04278
8.52872
8.73888
16.8018
-12.471
12.0092
-18.6482
-4.55585
-16.124
-3.32369
1.01829
-13.9109
12.8926
12.2617
-11.2434
-3.34494
9.25285
-5.90791
5.87544
-2.93782
-2.93762
-1.91229
-3.18048
1.93546
0.649982
6.52542
0.50914
-3.44696
-2.07086
-1.96398
10.4753
8.70853
-4.0081
3.83733
3.75648
-0.603959
1.00085
2.24649
4.78443
-3.78358
0.711218
4.07321
-2.37319
3.95386
1.49172
-3.9747
-0.0770294
-3.47622
12.0292
3.25635
-5.54103
1.75745
2.36344
-13.9308
19.592
-11.3217
-8.2703
21.9555
3.01244
-14.3342
16.0428
-13.3945
8.00468
-14.3248
-6.32948
-19.724
-12.7524
-10.7407
19.0183
-12.1554
20.0158
3.75406
-20.3486
24.1027
-12.8279
6.4259
-9.6463
11.138
-4.18833
-5.45797
11.3233
10.343
-11.0582
-0.749394
0.265119
8.57052
-8.3054
-1.52715
-7.72324
-16.4041
17.827
-8.26117
17.5768
7.68734
-7.62866
25.2055
6.57041
-14.1991
-11.8756
-12.9613
-5.65163
10.5825
-1.87392
-7.45597
-14.2125
7.50877
-0.0104104
-19.1382
22.2243
-3.08608
-12.1404
-1.61423
14.4945
-18.2052
1.92019
-11.3161
10.9082
12.3027
12.2923
-20.772
-0.203231
-12.5291
3.25625
-15.7854
15.4352
-6.8929
17.1618
-16.0598
11.4258
-14.5293
14.172
-1.61342
14.5527
-9.37129
6.08549
-15.336
-12.4953
14.7275
-8.52656
16.0996
-10.288
26.3876
-17.3738
14.844
11.5435
-2.85298
-8.59752
-14.3738
11.5208
0.470265
8.6665
17.8221
-10.7079
16.8584
8.89777
-18.6591
-8.3531
-25.863
7.20389
-13.3259
-7.34994
14.5538
11.119
13.0067
4.70009
-11.7729
17.5752
-19.2673
-5.7748
-8.9449
14.9546
-3.43384
10.2358
-19.1807
-5.24353
13.1557
-0.29869
-12.857
2.8969
-15.262
5.1837
-20.4457
15.7309
-16.267
1.82462
-8.13982
-3.27118
-3.3845
-2.22029
-3.51667
-7.7664
5.54611
-1.31142
3.67386
-12.686
12.3873
-5.12901
10.6751
-4.16655
-1.13008
4.33694
1.19811
11.8732
3.01351
-16.6999
-9.3428
14.7901
-5.44727
1.13248
-10.8974
3.89266
8.01502
13.9404
-24.4985
1.627
-15.0729
-4.1998
6.41526
5.05305
17.3147
2.59575
6.77059
-0.355338
9.36634
2.35487
2.27729
-11.2491
12.2689
1.6435
15.6067
-1.90173
7.55525
3.3793
3.39057
2.09728
5.77703
2.96185
8.84549
0.482304
-3.91846
2.12272
-4.0867
-1.32424
-4.13398
-0.37867
3.81907
-4.19774
10.7094
-2.00087
5.26213
-1.9826
-5.12812
7.11072
-9.59901
-5.73208
-1.65887
-5.78071
7.53816
6.24853
-5.87929
-3.71972
2.41839
-15.1707
11.9064
-12.6558
-2.31277
21.7899
-9.62406
1.31866
-3.19816
-6.40458
-7.86283
7.93986
24.1919
1.01358
12.2789
18.8405
11.7549
1.04695
12.0722
-16.0144
-10.626
-16.2176
-0.782441
13.7121
5.68145
20.4559
17.225
13.7912
-5.38953
-24.6568
20.6598
-8.39098
16.4043
-3.54727
-16.8984
14.4859
8.81605
-17.1337
0.866716
-16.0317
-24.4227
-0.398019
12.7853
-11.4752
10.3451
7.27049
1.96164
-2.50801
-0.876493
2.62732
-0.350023
9.01632
-0.170972
-8.43928
8.61025
-3.6481
2.32387
-0.524322
4.36166
6.5864
4.58554
-3.85374
-8.05149
-8.88124
-5.04961
-17.1515
2.5208
-8.76932
5.85876
-3.53489
2.92114
5.07536
10.3375
-1.63665
-9.60673
7.54456
-4.62342
5.71407
)
;

boundaryField
{
    wall-4
    {
        type            calculated;
        value           uniform 0;
    }
    velocity-inlet-5
    {
        type            calculated;
        value           uniform -11.2529;
    }
    velocity-inlet-6
    {
        type            calculated;
        value           uniform -1.87548;
    }
    pressure-outlet-7
    {
        type            calculated;
        value           nonuniform List<scalar> 8(4.48338 4.88149 11.266 11.7784 17.2996 15.4485 17.1278 15.2397);
    }
    wall-8
    {
        type            calculated;
        value           uniform 0;
    }
    frontAndBackPlanes
    {
        type            empty;
        value           nonuniform List<scalar> 0();
    }
}


// ************************************************************************* //
