/*--------------------------------*- C++ -*----------------------------------*\
  =========                 |
  \\      /  F ield         | OpenFOAM: The Open Source CFD Toolbox
   \\    /   O peration     | Website:  https://openfoam.org
    \\  /    A nd           | Version:  9
     \\/     M anipulation  |
\*---------------------------------------------------------------------------*/
FoamFile
{
    format      ascii;
    class       volScalarField;
    location    "5.7";
    object      p;
}
// * * * * * * * * * * * * * * * * * * * * * * * * * * * * * * * * * * * * * //

dimensions      [0 2 -2 0 0 0 0];

internalField   nonuniform List<scalar> 
918
(
24.0526
24.2147
1.05883
23.4636
1.02544
23.7312
3.91236
14.4772
19.8233
3.39443
2.99375
15.0391
21.2741
17.5154
13.6385
1.05517
14.7783
2.6656
19.0353
1.38324
13.6732
21.0311
22.1202
19.8683
14.7812
14.9779
19.2365
1.27687
0.116562
0.345913
0.965215
0.452914
0.249531
22.2681
22.9447
22.883
16.1006
10.8211
4.30009
4.5441
3.61325
3.38156
14.5178
14.6245
6.64705
14.4509
14.4415
17.2316
19.6909
19.8339
20.1303
19.9176
20.3046
6.13885
3.27216
3.09891
3.40881
3.47462
3.207
3.1138
3.13209
2.86119
2.70424
14.5544
15.127
15.1854
14.9208
14.8737
23.0907
22.3338
22.6685
21.7749
21.9203
20.8502
20.4646
17.8911
18.2437
17.117
16.7358
13.4155
13.3591
13.8768
14.1162
0.155153
1.23246
1.38485
14.7839
14.8156
14.819
14.8272
8.61202
2.66371
2.67699
18.4759
18.0519
21.0593
21.326
20.7729
20.5873
1.57708
1.65337
1.18023
1.19416
0.972876
13.9899
14.1498
19.8196
18.9872
14.8155
14.7123
14.7787
12.1837
14.5767
14.6599
15.9629
16.4145
15.596
16.0392
18.8065
18.3885
19.673
20.1103
0.443474
0.168201
0.830719
0.447081
0.658187
15.9729
15.7755
16.1959
16.2612
16.4885
10.8215
10.7373
10.8042
10.7235
4.91965
5.24266
2.76917
3.12653
2.94444
10.2671
14.6464
14.6906
5.5975
6.29916
5.95766
7.13336
7.52193
16.601
17.0344
16.7753
18.3164
17.5226
17.8703
20.3913
19.8819
20.1817
6.54262
6.82781
5.78696
5.44406
2.69949
2.96731
2.88742
3.49764
3.4767
3.4476
3.60276
2.93791
2.79211
3.40231
3.24582
3.32525
2.51208
2.34932
14.2978
14.0941
14.8146
14.9937
15.7104
15.5764
15.3004
15.459
19.6598
20.0632
20.0967
19.7125
12.061
10.5221
14.3772
14.6467
0.314754
0.269991
0.150305
0.428171
0.400534
0.172734
2.17674
1.98738
1.56849
1.83252
14.7809
14.7453
8.85272
9.07758
8.44065
8.17262
16.8882
17.039
17.6735
17.2727
2.20215
1.83592
2.01629
14.3274
14.1821
14.3057
11.639
11.0834
12.6664
12.962
14.7233
14.7305
14.7388
16.3208
16.6389
20.4611
20.7318
20.5586
20.9444
22.0072
21.6585
21.2737
15.1942
15.5773
15.4284
16.7025
16.3417
16.5577
15.7956
16.0839
15.9458
10.7631
10.8088
10.5289
10.6074
10.6641
10.609
10.194
10.0654
14.7852
14.7292
14.7624
8.0329
8.50932
5.07746
4.76458
13.2512
13.901
13.5759
19.2895
18.6118
19.3448
18.9739
18.524
18.8475
10.8167
10.7662
10.8069
15.56
14.9051
15.2525
2.65093
2.26356
2.43371
9.27889
9.37604
7.20955
7.87073
7.53121
16.9401
17.2806
17.9606
17.0725
17.54
18.0472
17.8253
10.3473
10.4841
10.3978
10.0443
9.93153
10.4446
9.06746
9.66185
3.85728
4.48605
4.1916
9.54602
9.79922
9.64096
19.2139
19.7483
0.805114
1.26972
20.1729
19.8957
0.20647
0.365299
14.8936
13.1249
8.0354
17.7706
17.2199
19.5503
3.59695
6.31782
3.15521
3.60423
2.85658
15.2254
14.898
14.0041
0.504727
1.36409
1.75235
3.34167
18.9944
18.3204
19.4325
19.754
19.8074
0.709729
0.945757
0.592563
1.35565
1.09378
1.31067
16.1588
16.2264
4.98912
19.4383
19.7414
19.7599
18.2321
19.1865
18.2439
1.05515
0.749198
0.837698
10.8047
12.7999
14.8584
14.4049
14.6079
14.6298
14.381
15.5114
15.1925
15.1462
15.6262
14.6426
14.4891
8.48014
7.15568
8.85652
8.52373
17.6727
17.2605
17.0829
16.8305
18.6653
18.1905
19.0413
18.4274
18.8891
19.1769
3.49563
3.62422
3.47185
3.03694
6.40549
6.89138
5.7493
5.83024
4.49065
2.88374
2.91057
3.12777
3.06703
3.27376
2.89383
3.18931
2.84236
2.49953
2.48614
3.23356
2.96495
2.90493
15.1975
15.1726
14.9517
14.9872
14.9949
15.1243
14.1972
14.5989
14.2599
13.0836
13.6644
13.2263
0.821208
0.686905
0.571825
1.44848
1.50258
1.18678
0.911832
1.23873
1.19351
0.924469
1.6234
1.62866
3.67866
3.1614
9.1824
8.29695
7.28432
17.3891
18.1879
17.3588
18.5939
19.0109
19.1178
18.7391
18.2313
16.2998
16.2996
15.9652
15.9258
5.4307
4.35242
5.67557
5.30566
10.9138
14.7757
12.5357
11.5034
11.8056
14.0186
14.5735
14.2118
14.4318
13.9463
13.419
14.1724
13.6698
13.7844
13.5061
16.3572
16.8317
16.4382
15.8584
15.879
11.01
12.4078
6.2558
6.39009
7.92289
7.3128
14.1659
14.5934
14.594
14.2206
14.4207
14.4223
14.2176
14.3654
14.5093
14.4319
12.2814
10.8707
9.80342
9.76932
14.7793
12.8338
13.441
12.9408
16.691
17.2106
16.8238
16.2429
16.7214
16.2013
16.2146
16.4118
17.7809
17.5274
17.3026
17.6893
3.58194
3.51611
4.15456
3.66557
3.55969
3.27161
3.97224
5.19054
4.85061
7.05946
7.6005
5.0413
4.02904
4.30875
5.30155
5.9486
5.95709
4.30869
4.73788
5.17917
4.71755
5.43843
4.97163
3.09402
3.37198
3.28368
3.26862
3.63972
4.12485
3.66202
2.75591
2.92522
2.64755
2.48439
3.86626
3.48605
3.49833
4.03512
1.3064
1.49119
1.60824
2.62302
2.11929
2.20157
15.7833
15.4427
15.5755
14.8384
14.9338
14.8897
14.4844
15.8514
15.5792
15.6839
14.3635
14.4691
14.269
14.5465
14.9574
15.2323
16.0435
15.763
15.0463
15.2038
14.8592
14.7823
14.1148
13.609
13.5137
1.20546
0.890335
1.07035
1.02765
0.703853
0.884001
2.33164
1.74811
2.13983
1.86549
2.09969
1.53879
1.42509
4.81247
5.60783
4.58465
3.95175
3.63768
9.23471
9.35903
8.47295
8.19245
8.51734
8.75981
8.70438
7.39623
7.85734
7.67341
10.3219
9.96744
18.1695
18.1149
17.7879
17.6289
17.8527
6.43176
8.13385
7.44821
8.45882
10.6197
10.9399
9.65799
9.05818
9.81063
9.85374
14.7329
14.8241
14.2953
14.7187
14.7516
12.503
13.4323
14.0323
13.8258
14.4113
14.499
13.6861
14.1922
14.0512
13.3799
13.3959
12.8273
13.0863
12.6443
12.4701
14.7035
14.5861
14.8579
14.4112
14.7542
14.3325
14.6161
14.6987
14.9411
14.0504
13.461
13.4717
13.876
13.6326
13.9629
14.1226
9.67231
10.2907
10.7773
11.3385
11.0519
10.8125
10.6628
10.994
10.9881
11.2478
11.1642
10.9898
11.9447
14.0637
14.3404
14.5025
14.2583
14.2643
13.9709
14.2676
14.192
14.6086
14.6895
14.7523
13.6579
13.9043
14.0936
13.9886
12.0895
10.6319
10.4377
10.095
8.30329
8.70456
11.5411
10.4881
9.55934
9.65379
12.8264
11.4729
12.2706
12.6071
11.3265
10.9826
13.5248
14.3646
14.5592
14.2227
12.5975
12.6951
13.1411
13.5905
13.7841
14.2855
16.459
17.0207
17.1016
16.8292
16.6894
16.7814
16.5238
16.6305
17.1069
17.2283
17.058
3.34397
3.44088
3.4336
3.34889
3.62494
3.46886
4.45759
4.45736
3.61929
3.78843
3.81519
3.86463
3.44521
3.44598
5.13458
5.38751
5.65941
5.21072
6.55263
7.09875
7.64761
7.38865
6.14929
6.17898
6.47066
3.85752
3.80116
3.58413
3.99648
4.08742
2.94114
2.60871
2.3943
2.89805
3.02038
2.32765
1.98477
2.07437
2.50881
2.3594
2.0941
15.589
15.3691
15.3736
15.1623
15.2199
15.6001
15.8106
15.6136
15.7417
15.7976
15.4169
15.3018
15.4784
1.9465
1.63236
1.75806
1.8167
1.76672
1.68939
1.83652
7.9468
6.79297
7.19815
6.42794
4.7243
5.20399
9.95785
10.3545
10.4003
10.0863
9.88302
10.2107
10.1067
10.1008
8.60302
9.65826
9.20324
9.60893
9.65617
9.72204
9.4128
9.49034
10.981
11.0369
9.86783
10.5121
9.83392
8.54039
8.70973
9.58441
10.4949
10.7988
10.6547
10.3318
10.1185
10.5313
10.5459
10.6556
10.6429
9.12299
9.08483
8.69052
14.6055
14.5977
14.7298
14.6685
14.8308
14.6406
14.4489
14.7277
14.809
14.5835
11.5119
11.5854
11.856
12.667
12.7459
12.4573
11.7407
13.6125
13.2181
13.9834
13.9206
13.9259
13.5199
13.3042
13.6441
10.6777
12.0155
11.5492
11.8389
10.7111
9.99424
13.7917
13.8343
13.9522
14.257
14.1732
14.7428
16.4259
16.2922
16.3447
16.3897
15.9946
16.0273
4.51459
4.2132
4.92629
4.90231
4.48051
4.18883
2.46555
2.21304
2.02029
1.89019
2.06162
2.16605
8.56305
8.54079
6.77558
7.736
6.44092
5.4936
5.38509
6.45754
7.57792
7.67014
8.82032
9.51109
9.09072
8.92854
8.26149
8.57836
10.5212
10.6181
10.5172
10.8312
10.3864
12.1885
11.7562
12.1281
13.8124
13.4916
12.844
12.7214
12.7565
13.3852
12.4095
11.6541
12.3352
13.0248
12.9955
11.5587
11.299
11.7471
11.6776
10.5853
11.1238
10.877
11.2281
10.9093
)
;

boundaryField
{
    wall-4
    {
        type            zeroGradient;
    }
    velocity-inlet-5
    {
        type            zeroGradient;
    }
    velocity-inlet-6
    {
        type            zeroGradient;
    }
    pressure-outlet-7
    {
        type            fixedValue;
        value           uniform 0;
    }
    wall-8
    {
        type            zeroGradient;
    }
    frontAndBackPlanes
    {
        type            empty;
    }
}


// ************************************************************************* //
