/*--------------------------------*- C++ -*----------------------------------*\
  =========                 |
  \\      /  F ield         | OpenFOAM: The Open Source CFD Toolbox
   \\    /   O peration     | Website:  https://openfoam.org
    \\  /    A nd           | Version:  9
     \\/     M anipulation  |
\*---------------------------------------------------------------------------*/
FoamFile
{
    format      ascii;
    class       volVectorField;
    location    "2.3";
    object      U;
}
// * * * * * * * * * * * * * * * * * * * * * * * * * * * * * * * * * * * * * //

dimensions      [0 1 -1 0 0 0 0];

internalField   nonuniform List<vector> 
6400
(
(6.03133e-05 -6.09866e-05 -1.07754e-06)
(0.00015298 -5.44967e-05 4.65078e-05)
(0.000144722 -4.58998e-06 0.000156365)
(-1.9645e-05 5.24645e-05 0.000300754)
(-0.000343051 0.000104356 0.000453347)
(-0.000805915 0.000146976 0.000595495)
(-0.00138214 0.000179588 0.000714063)
(-0.00204428 0.000202753 0.000800177)
(-0.00276565 0.000217406 0.00084823)
(-0.00352136 0.000224516 0.00085506)
(-0.00428851 0.000224965 0.000819325)
(-0.0050463 0.00021951 0.000741062)
(-0.00577581 0.000208787 0.000621376)
(-0.0064599 0.000193327 0.000462238)
(-0.00708304 0.000173587 0.000266368)
(-0.00763118 0.000149977 3.71657e-05)
(-0.00809181 0.000122899 -0.000221322)
(-0.00845392 9.27733e-05 -0.000504413)
(-0.00870822 6.00738e-05 -0.000806799)
(-0.00884729 2.53506e-05 -0.00112257)
(-0.00886585 -1.07497e-05 -0.00144527)
(-0.00876111 -4.7473e-05 -0.00176796)
(-0.008533 -8.39547e-05 -0.00208337)
(-0.00818455 -0.000119227 -0.00238402)
(-0.00772208 -0.000152236 -0.00266246)
(-0.00715543 -0.000181867 -0.00291154)
(-0.006498 -0.000206984 -0.00312463)
(-0.00576677 -0.000226465 -0.00329598)
(-0.00498203 -0.000239256 -0.00342103)
(-0.0041671 -0.000244411 -0.00349674)
(-0.00334782 -0.000241137 -0.00352188)
(-0.00255189 -0.000228831 -0.00349735)
(-0.0018081 -0.000207115 -0.00342648)
(-0.00114529 -0.000175883 -0.00331528)
(-0.000591183 -0.000135406 -0.00317279)
(-0.000170545 -8.66288e-05 -0.00301141)
(9.73233e-05 -3.19898e-05 -0.00284719)
(0.000203843 2.27943e-05 -0.00270041)
(0.000167217 6.41652e-05 -0.00259675)
(5.89181e-05 5.87025e-05 -0.00221422)
(5.5875e-05 -0.000155204 -4.96081e-05)
(5.5367e-05 -5.30523e-05 -1.55775e-06)
(-0.000223746 0.000204715 0.000101685)
(-0.000851447 0.000498022 0.000231832)
(-0.00183428 0.000775344 0.000368878)
(-0.00313999 0.00101311 0.000496683)
(-0.00471657 0.00120223 0.000603009)
(-0.00650358 0.00134095 0.000678955)
(-0.00843843 0.00143089 0.000718443)
(-0.0104597 0.00147514 0.000717698)
(-0.0125091 0.0014773 0.00067479)
(-0.0145321 0.00144097 0.000589259)
(-0.0164785 0.00136961 0.000461835)
(-0.018302 0.00126643 0.000294244)
(-0.0199607 0.00113447 8.90765e-05)
(-0.0214169 0.000976673 -0.00015029)
(-0.022637 0.000796054 -0.000419742)
(-0.023592 0.000595809 -0.000714459)
(-0.0242576 0.000379467 -0.00102895)
(-0.024615 0.000151001 -0.00135707)
(-0.0246514 -8.50866e-05 -0.00169215)
(-0.0243607 -0.000323717 -0.00202699)
(-0.0237442 -0.000559243 -0.00235412)
(-0.0228111 -0.000785507 -0.0026659)
(-0.0215792 -0.000995951 -0.00295474)
(-0.0200754 -0.00118379 -0.00321344)
(-0.0183354 -0.00134222 -0.00343539)
(-0.0164036 -0.00146467 -0.00361497)
(-0.0143326 -0.00154512 -0.00374783)
(-0.0121822 -0.00157835 -0.00383121)
(-0.0100179 -0.0015603 -0.00386428)
(-0.00790909 -0.00148835 -0.00384842)
(-0.0059266 -0.00136166 -0.00378742)
(-0.00413998 -0.00118167 -0.00368772)
(-0.00261368 -0.00095283 -0.00355856)
(-0.00140211 -0.000684074 -0.00341205)
(-0.000543036 -0.000391993 -0.00326311)
(-4.71518e-05 -0.000106641 -0.00312926)
(0.00012079 0.000116912 -0.00303117)
(6.54151e-05 0.00016717 -0.00252183)
(8.3365e-06 -0.000150845 -0.000160499)
(-0.000198926 0.00022428 -0.000103977)
(-0.000876505 0.000877281 9.61138e-07)
(-0.00205264 0.00160227 0.000118816)
(-0.0037204 0.0022945 0.000238355)
(-0.00583686 0.0028976 0.000347319)
(-0.00833237 0.00338473 0.00043629)
(-0.0111241 0.00374629 0.000498222)
(-0.0141241 0.00398216 0.000528075)
(-0.0172442 0.00409715 0.000522582)
(-0.0203988 0.00409854 0.000479962)
(-0.0235069 0.00399459 0.000399675)
(-0.0264928 0.00379382 0.000282215)
(-0.0292866 0.00350465 0.000128971)
(-0.0318245 0.00313542 -5.78774e-05)
(-0.034049 0.00269454 -0.000275418)
(-0.0359092 0.00219071 -0.000520047)
(-0.0373613 0.00163324 -0.000787497)
(-0.0383691 0.00103236 -0.00107286)
(-0.0389049 0.00039945 -0.00137065)
(-0.0389503 -0.000252773 -0.00167484)
(-0.038497 -0.000910172 -0.00197897)
(-0.0375481 -0.00155723 -0.00227627)
(-0.0361186 -0.00217723 -0.00255985)
(-0.0342363 -0.00275255 -0.00282289)
(-0.031942 -0.00326514 -0.00305888)
(-0.0292896 -0.00369708 -0.00326193)
(-0.0263456 -0.00403125 -0.00342702)
(-0.0231881 -0.00425213 -0.00355029)
(-0.0199055 -0.00434659 -0.00362938)
(-0.0165937 -0.00430478 -0.00366365)
(-0.0133539 -0.00412106 -0.0036544)
(-0.0102885 -0.00379499 -0.00360507)
(-0.00749688 -0.00333272 -0.00352134)
(-0.00506971 -0.00274885 -0.00341111)
(-0.00308254 -0.00206967 -0.00328444)
(-0.00158701 -0.00133894 -0.00315335)
(-0.000598851 -0.000627158 -0.00303166)
(-8.7285e-05 -4.61628e-05 -0.00293273)
(2.8167e-05 0.000209287 -0.00241868)
(-4.7996e-05 8.2363e-06 -0.000309297)
(-0.000500112 0.000856627 -0.000234985)
(-0.00163413 0.00205883 -0.000112646)
(-0.00340419 0.00334652 8.29166e-06)
(-0.0057745 0.0045684 0.000124483)
(-0.00868637 0.00563557 0.000226516)
(-0.012053 0.00650119 0.000307492)
(-0.0157733 0.00714528 0.000362297)
(-0.0197395 0.00756402 0.000387148)
(-0.023843 0.00776298 0.000379548)
(-0.027977 0.00775298 0.000338133)
(-0.0320397 0.00754747 0.000262509)
(-0.035935 0.00716111 0.000153125)
(-0.039574 0.00660902 1.11787e-05)
(-0.0428751 0.00590665 -0.000161443)
(-0.0457647 0.00506987 -0.000362201)
(-0.0481778 0.00411538 -0.000587919)
(-0.0500585 0.00306111 -0.000834798)
(-0.051361 0.00192669 -0.00109843)
(-0.0520504 0.000733849 -0.00137385)
(-0.0521039 -0.000493308 -0.00165556)
(-0.0515117 -0.00172822 -0.00193762)
(-0.0502784 -0.00294197 -0.0022138)
(-0.0484239 -0.00410362 -0.0024777)
(-0.0459838 -0.00518078 -0.00272297)
(-0.0430104 -0.00614045 -0.00294353)
(-0.039572 -0.00695008 -0.00313385)
(-0.0357526 -0.00757877 -0.0032892)
(-0.0316505 -0.00799873 -0.00340594)
(-0.0273764 -0.00818675 -0.00348177)
(-0.0230504 -0.0081259 -0.00351599)
(-0.0187984 -0.00780717 -0.00350965)
(-0.0147476 -0.00723146 -0.00346569)
(-0.0110209 -0.00641184 -0.00338897)
(-0.00773054 -0.00537664 -0.00328617)
(-0.00497071 -0.00417404 -0.00316557)
(-0.00280849 -0.0028794 -0.00303696)
(-0.0012716 -0.00160592 -0.00291176)
(-0.000350038 -0.000519004 -0.00279678)
(-2.00061e-05 0.000120405 -0.00227043)
(-0.00010245 0.000333442 -0.000472047)
(-0.000805633 0.00187285 -0.000375969)
(-0.00241452 0.00377777 -0.000228757)
(-0.00479516 0.00574319 -9.68945e-05)
(-0.00787282 0.00758415 2.34764e-05)
(-0.0115673 0.00918539 0.000125184)
(-0.0157726 0.0104822 0.000203591)
(-0.0203696 0.0114444 0.000255442)
(-0.0252339 0.0120641 0.000278251)
(-0.0302396 0.0123471 0.000270385)
(-0.0352633 0.0123076 0.000231007)
(-0.0401864 0.0119647 0.000159979)
(-0.0448967 0.0113396 5.77997e-05)
(-0.0492898 0.0104553 -7.44423e-05)
(-0.0532699 0.00933565 -0.000235091)
(-0.0567504 0.00800551 -0.000421926)
(-0.0596548 0.00649135 -0.000632154)
(-0.0619174 0.0048217 -0.000862397)
(-0.0634845 0.00302776 -0.0011087)
(-0.0643151 0.00114394 -0.00136653)
(-0.0643827 -0.000791817 -0.00163085)
(-0.0636761 -0.00273791 -0.00189614)
(-0.0622009 -0.00464928 -0.00215657)
(-0.0599803 -0.00647798 -0.00240608)
(-0.0570561 -0.00817402 -0.00263863)
(-0.0534892 -0.00968668 -0.00284837)
(-0.049359 -0.0109661 -0.00302994)
(-0.0447635 -0.0119651 -0.0031787)
(-0.0398168 -0.0126414 -0.00329101)
(-0.0346476 -0.0129602 -0.00336447)
(-0.0293955 -0.0128963 -0.00339815)
(-0.0242068 -0.0124368 -0.00339272)
(-0.0192297 -0.0115844 -0.00335054)
(-0.0146078 -0.01036 -0.00327567)
(-0.0104733 -0.00880735 -0.00317368)
(-0.00693982 -0.00699775 -0.00305128)
(-0.00409345 -0.00503827 -0.00291649)
(-0.00198067 -0.00308168 -0.00277905)
(-0.000622696 -0.00133841 -0.00263987)
(-6.7424e-05 -0.000115514 -0.00209811)
(-0.000152097 0.000818007 -0.000631387)
(-0.00109862 0.00327309 -0.000511157)
(-0.00317846 0.00604042 -0.000334893)
(-0.00616719 0.00879836 -0.000186772)
(-0.00994604 0.0113412 -5.66889e-05)
(-0.0144088 0.0135356 4.98499e-05)
(-0.0194273 0.0153033 0.000130121)
(-0.0248642 0.0166064 0.000182556)
(-0.0305785 0.0174337 0.000205899)
(-0.0364296 0.017792 0.000199386)
(-0.0422797 0.0176992 0.000162747)
(-0.0479964 0.0171803 9.61603e-05)
(-0.0534547 0.016264 2.35032e-07)
(-0.0585377 0.0149818 -0.000123993)
(-0.0631381 0.0133669 -0.000275043)
(-0.0671588 0.0114546 -0.000450963)
(-0.070514 0.00928231 -0.00064929)
(-0.0731299 0.00689082 -0.000867017)
(-0.074946 0.00432457 -0.00110057)
(-0.0759162 0.00163245 -0.0013458)
(-0.0760105 -0.00113179 -0.00159802)
(-0.0752157 -0.00390944 -0.00185203)
(-0.0735374 -0.00663717 -0.00210227)
(-0.071001 -0.00924774 -0.00234289)
(-0.0676522 -0.0116713 -0.00256797)
(-0.063558 -0.0138369 -0.00277174)
(-0.0588065 -0.0156752 -0.00294881)
(-0.0535061 -0.0171206 -0.00309444)
(-0.0477837 -0.0181143 -0.0032048)
(-0.0417829 -0.0186079 -0.00327723)
(-0.0356598 -0.0185665 -0.00331042)
(-0.0295788 -0.0179728 -0.00330457)
(-0.0237073 -0.0168304 -0.00326142)
(-0.0182089 -0.0151681 -0.00318427)
(-0.0132366 -0.0130446 -0.00307771)
(-0.00892577 -0.0105541 -0.00294723)
(-0.00538563 -0.00783307 -0.00279951)
(-0.00268681 -0.00506948 -0.00264338)
(-0.000887529 -0.00251037 -0.00247475)
(-0.000110698 -0.000494135 -0.00191645)
(-0.000196869 0.0014514 -0.000774193)
(-0.00137423 0.0050447 -0.000627455)
(-0.00391045 0.00883636 -0.000420235)
(-0.00749391 0.0125021 -0.000252649)
(-0.0119603 0.0158268 -0.000109218)
(-0.0171745 0.0186672 5.74852e-06)
(-0.0229842 0.0209377 9.11178e-05)
(-0.0292322 0.0225959 0.000146798)
(-0.0357616 0.0236298 0.000172652)
(-0.0424173 0.0240485 0.000168732)
(-0.0490489 0.0238746 0.000135327)
(-0.0555126 0.0231398 7.29442e-05)
(-0.0616723 0.021881 -1.76706e-05)
(-0.0674013 0.0201389 -0.0001355)
(-0.0725829 0.0179571 -0.000279204)
(-0.0771117 0.0153818 -0.000447058)
(-0.0808939 0.0124628 -0.000636888)
(-0.0838491 0.00925408 -0.000846008)
(-0.0859108 0.00581455 -0.00107117)
(-0.0870283 0.0022089 -0.00130855)
(-0.0871675 -0.00149189 -0.00155372)
(-0.0863131 -0.0052105 -0.00180172)
(-0.0844693 -0.00886362 -0.00204713)
(-0.0816618 -0.012363 -0.00228419)
(-0.0779386 -0.0156168 -0.00250697)
(-0.0733704 -0.0185323 -0.0027096)
(-0.0680511 -0.0210182 -0.00288651)
(-0.0620973 -0.0229882 -0.00303267)
(-0.0556462 -0.0243651 -0.00314392)
(-0.048854 -0.0250848 -0.00321715)
(-0.0418916 -0.025101 -0.00325058)
(-0.0349405 -0.0243899 -0.00324383)
(-0.028187 -0.0229548 -0.00319802)
(-0.0218158 -0.020831 -0.00311571)
(-0.0160024 -0.0180909 -0.00300071)
(-0.010907 -0.0148494 -0.00285754)
(-0.00666579 -0.0112699 -0.00269203)
(-0.00337761 -0.00757078 -0.00251266)
(-0.00114021 -0.00402945 -0.00231132)
(-0.00014959 -0.00100704 -0.00173552)
(-0.000237594 0.00222329 -0.00089022)
(-0.00163287 0.0071709 -0.000713793)
(-0.00460711 0.0121482 -0.000475155)
(-0.00876686 0.0168374 -0.00028647)
(-0.0139028 0.0210233 -0.000127574)
(-0.0198497 0.0245603 -1.91611e-06)
(-0.0264297 0.0273615 9.06898e-05)
(-0.033465 0.0293843 0.000151431)
(-0.0407819 0.0306194 0.000181156)
(-0.0482119 0.03108 0.000180658)
(-0.0555927 0.0307952 0.00015074)
(-0.0627703 0.0298043 9.22216e-05)
(-0.0695996 0.0281534 5.98355e-06)
(-0.0759456 0.0258932 -0.000106966)
(-0.0816841 0.023078 -0.00024541)
(-0.0867025 0.0197663 -0.000407827)
(-0.090901 0.0160204 -0.000592301)
(-0.0941929 0.0119084 -0.000796433)
(-0.0965068 0.00750441 -0.00101726)
(-0.0977868 0.00288972 -0.00125122)
(-0.0979949 -0.00184653 -0.00149409)
(-0.0971123 -0.00660733 -0.00174106)
(-0.0951409 -0.0112882 -0.00198676)
(-0.0921049 -0.0157785 -0.00222542)
(-0.0880521 -0.0199629 -0.00245098)
(-0.0830551 -0.0237248 -0.00265732)
(-0.0772113 -0.0269489 -0.00283853)
(-0.070643 -0.0295263 -0.00298917)
(-0.0634958 -0.0313586 -0.00310456)
(-0.0559367 -0.0323637 -0.00318103)
(-0.0481509 -0.0324812 -0.00321616)
(-0.0403366 -0.0316785 -0.00320895)
(-0.0326999 -0.029956 -0.00315985)
(-0.025448 -0.0273534 -0.00307076)
(-0.0187816 -0.0239543 -0.0029448)
(-0.012889 -0.0198918 -0.00278582)
(-0.00793704 -0.0153534 -0.00259914)
(-0.00405563 -0.0105843 -0.0023934)
(-0.00138311 -0.00588854 -0.00215724)
(-0.000185164 -0.00164683 -0.00156233)
(-0.000275202 0.00312474 -0.000971154)
(-0.00187673 0.00963477 -0.000760629)
(-0.00527043 0.0159566 -0.000490898)
(-0.00998647 0.0217849 -0.000280478)
(-0.0157721 0.0269112 -0.000105033)
(-0.0224319 0.0311949 3.26167e-05)
(-0.0297617 0.0345531 0.000133761)
(-0.0375626 0.0369484 0.000200696)
(-0.0456442 0.0383771 0.000235133)
(-0.0538242 0.0388597 0.000238515)
(-0.0619296 0.0384335 0.000212102)
(-0.0697971 0.0371472 0.000156987)
(-0.0772739 0.0350568 7.41673e-05)
(-0.0842179 0.0322239 -3.53671e-05)
(-0.0904989 0.0287145 -0.000170519)
(-0.0959987 0.0245992 -0.000329964)
(-0.100612 0.0199538 -0.000512029)
(-0.104247 0.0148605 -0.000714574)
(-0.106827 0.00940902 -0.000934893)
(-0.108291 0.00369768 -0.00116963)
(-0.108597 -0.00216577 -0.00141475)
(-0.107722 -0.00806405 -0.00166552)
(-0.105663 -0.0138707 -0.00191657)
(-0.102441 -0.0194516 -0.00216197)
(-0.0981021 -0.0246666 -0.00239544)
(-0.0927182 -0.0293733 -0.00261051)
(-0.0863879 -0.0334307 -0.0028008)
(-0.0792371 -0.0367043 -0.00296028)
(-0.071418 -0.0390721 -0.00308362)
(-0.0631075 -0.0404305 -0.00316642)
(-0.054504 -0.0407021 -0.00320553)
(-0.0458231 -0.0398418 -0.00319921)
(-0.0372918 -0.0378443 -0.0031472)
(-0.029142 -0.0347498 -0.00305076)
(-0.0216026 -0.0306507 -0.00291246)
(-0.0148934 -0.0256953 -0.00273565)
(-0.00921492 -0.0200924 -0.00252546)
(-0.0047311 -0.0141123 -0.00229109)
(-0.00162148 -0.00808392 -0.00201844)
(-0.000218838 -0.00240873 -0.00140169)
(-0.000310485 0.00414844 -0.0010099)
(-0.00210834 0.0124208 -0.000759522)
(-0.00590432 0.0202425 -0.00045942)
(-0.011157 0.0273244 -0.000227257)
(-0.017572 0.0334704 -3.48792e-05)
(-0.0249243 0.0385506 0.000115365)
(-0.0329835 0.0424921 0.000225715)
(-0.0415292 0.0452669 0.000299434)
(-0.0503543 0.0468811 0.00033899)
(-0.0592633 0.0473657 0.000346392)
(-0.0680728 0.0467684 0.00032329)
(-0.0766111 0.0451489 0.000271005)
(-0.0847186 0.0425745 0.000190617)
(-0.0922478 0.0391187 8.3078e-05)
(-0.0990634 0.0348594 -5.06481e-05)
(-0.105043 0.0298798 -0.000209439)
(-0.110075 0.0242692 -0.000391861)
(-0.114066 0.018124 -0.000596028)
(-0.116932 0.0115495 -0.000819472)
(-0.118608 0.00466098 -0.00105904)
(-0.119045 -0.00241526 -0.00131082)
(-0.118216 -0.00954145 -0.00157013)
(-0.116113 -0.0165688 -0.00183153)
(-0.11275 -0.0233388 -0.00208889)
(-0.10817 -0.0296855 -0.00233561)
(-0.102442 -0.0354391 -0.00256473)
(-0.0956626 -0.0404303 -0.00276927)
(-0.0879595 -0.0444966 -0.00294249)
(-0.0794899 -0.0474888 -0.00307823)
(-0.0704391 -0.0492784 -0.00317125)
(-0.0610184 -0.0497665 -0.00321749)
(-0.0514612 -0.0488916 -0.00321434)
(-0.0420169 -0.046638 -0.00316079)
(-0.0329444 -0.0430431 -0.00305744)
(-0.024504 -0.038204 -0.00290637)
(-0.0169504 -0.0322813 -0.0027106)
(-0.0105216 -0.0255031 -0.00247529)
(-0.00541794 -0.0181637 -0.00221052)
(-0.00186167 -0.0106179 -0.00189977)
(-0.000252049 -0.00329143 -0.00125706)
(-0.000344051 0.00528855 -0.00100012)
(-0.00232999 0.0155156 -0.000702769)
(-0.00651293 0.0249882 -0.000373203)
(-0.0122837 0.0334362 -0.000119674)
(-0.0193082 0.0406804 8.95461e-05)
(-0.0273323 0.046607 0.000252488)
(-0.0360999 0.0511577 0.000372231)
(-0.0453693 0.0543191 0.000452904)
(-0.0549169 0.0561112 0.00049764)
(-0.0645343 0.0565782 0.000508938)
(-0.0740282 0.0557814 0.000488778)
(-0.0832197 0.0537932 0.000438658)
(-0.0919434 0.0506938 0.000359699)
(-0.100047 0.0465691 0.000252788)
(-0.107392 0.0415098 0.000118729)
(-0.113852 0.0356117 -4.15729e-05)
(-0.119312 0.0289774 -0.000226941)
(-0.123673 0.0217173 -0.00043575)
(-0.126849 0.0139517 -0.000665772)
(-0.128767 0.00581234 -0.00091405)
(-0.129375 -0.00255627 -0.00117679)
(-0.128636 -0.0109962 -0.00144934)
(-0.126535 -0.0193364 -0.00172613)
(-0.123082 -0.0273934 -0.00200081)
(-0.11831 -0.0349746 -0.00226635)
(-0.112284 -0.0418811 -0.00251522)
(-0.105096 -0.0479133 -0.00273971)
(-0.0968736 -0.0528774 -0.00293222)
(-0.0877764 -0.0565931 -0.00308561)
(-0.0779967 -0.0589027 -0.00319359)
(-0.0677583 -0.0596808 -0.00325106)
(-0.0573123 -0.0588443 -0.00325439)
(-0.0469321 -0.056362 -0.00320169)
(-0.0369061 -0.0522634 -0.00309285)
(-0.0275292 -0.046646 -0.00292949)
(-0.0190948 -0.03968 -0.00271435)
(-0.0118821 -0.0316107 -0.00245285)
(-0.00613161 -0.0227565 -0.00215614)
(-0.00211036 -0.0135001 -0.0018055)
(-0.000286153 -0.00429725 -0.00113124)
(-0.000376343 0.00654045 -0.00093588)
(-0.00254355 0.0189075 -0.000583137)
(-0.00709995 0.0301776 -0.000225082)
(-0.0133715 0.0401015 4.92077e-05)
(-0.020986 0.0485211 0.000274867)
(-0.029661 0.0553429 0.000450257)
(-0.0391149 0.0605286 0.000579229)
(-0.0490855 0.0640836 0.000666702)
(-0.0593328 0.066046 0.000716404)
(-0.0696362 0.066477 0.000731267)
(-0.0797935 0.0654538 0.000713543)
(-0.0896191 0.0630641 0.000664858)
(-0.0989432 0.0594024 0.000586333)
(-0.10761 0.0545678 0.000478748)
(-0.115479 0.0486642 0.000342719)
(-0.122419 0.0418003 0.000178901)
(-0.128316 0.0340913 -1.1812e-05)
(-0.133064 0.0256612 -0.000228082)
(-0.136574 0.0166443 -0.000467948)
(-0.138769 0.00718792 -0.000728659)
(-0.139587 -0.00254614 -0.00100656)
(-0.138985 -0.0123806 -0.001297)
(-0.13694 -0.0221223 -0.00159431)
(-0.133451 -0.0315634 -0.00189184)
(-0.128544 -0.0404833 -0.00218208)
(-0.122272 -0.0486531 -0.00245687)
(-0.114724 -0.0558403 -0.00270763)
(-0.106022 -0.0618165 -0.00292573)
(-0.0963264 -0.0663662 -0.0031029)
(-0.085834 -0.0692972 -0.00323159)
(-0.0747801 -0.0704518 -0.00330545)
(-0.0634337 -0.0697188 -0.00331967)
(-0.0520931 -0.0670452 -0.00327129)
(-0.0410786 -0.0624469 -0.00315941)
(-0.030723 -0.0560169 -0.0029851)
(-0.0213628 -0.0479311 -0.00275091)
(-0.013323 -0.0384505 -0.00246255)
(-0.00688802 -0.0279181 -0.00213252)
(-0.00237418 -0.0167479 -0.00173984)
(-0.00032242 -0.00543216 -0.00102689)
(-0.000407665 0.00790037 -0.000811468)
(-0.0027504 0.0225866 -0.00039367)
(-0.00766831 0.0357961 -8.10453e-06)
(-0.0144246 0.0473025 0.000286205)
(-0.0226098 0.0569722 0.000527693)
(-0.031914 0.0647365 0.000715034)
(-0.0420307 0.0705817 0.000852808)
(-0.0526773 0.0745367 0.000946676)
(-0.0635984 0.0766617 0.00100092)
(-0.0745617 0.0770387 0.00101885)
(-0.085357 0.0757641 0.00100295)
(-0.0957932 0.0729428 0.000954933)
(-0.105697 0.0686851 0.000875871)
(-0.114912 0.0631048 0.000766397)
(-0.123294 0.0563191 0.000626898)
(-0.130713 0.0484493 0.000457738)
(-0.137051 0.039623 0.00025949)
(-0.142202 0.0299764 3.31577e-05)
(-0.14607 0.0196569 -0.000219603)
(-0.148575 0.00882589 -0.000496296)
(-0.149646 -0.00233893 -0.000793427)
(-0.149233 -0.0136422 -0.00110639)
(-0.147302 -0.0248697 -0.00142939)
(-0.143839 -0.0357895 -0.0017555)
(-0.13886 -0.0461532 -0.0020767)
(-0.132406 -0.0557002 -0.00238408)
(-0.124556 -0.0641631 -0.0026681)
(-0.115425 -0.0712755 -0.00291896)
(-0.105169 -0.076782 -0.00312702)
(-0.0939887 -0.0804498 -0.0032833)
(-0.0821285 -0.0820821 -0.00337994)
(-0.0698745 -0.0815324 -0.00341069)
(-0.0575505 -0.0787183 -0.00337132)
(-0.0455105 -0.0736345 -0.00325995)
(-0.0341292 -0.0663638 -0.00307701)
(-0.0237904 -0.0570833 -0.00282477)
(-0.0148703 -0.046068 -0.00250933)
(-0.00770297 -0.033686 -0.00214465)
(-0.00265963 -0.0203865 -0.00170741)
(-0.000362042 -0.0067056 -0.000946991)
(-0.000438225 0.00936523 -0.000621277)
(-0.0029516 0.0265442 -0.000127553)
(-0.00822027 0.0418301 0.000284568)
(-0.015446 0.0550217 0.000598081)
(-0.0241827 0.066013 0.000854646)
(-0.0340932 0.0747644 0.00105325)
(-0.0448466 0.0812913 0.0011992)
(-0.0561406 0.0856509 0.00129885)
(-0.0677046 0.08793 0.00135703)
(-0.0792959 0.0882352 0.0013774)
(-0.0906972 0.0866851 0.00136263)
(-0.101714 0.0834044 0.00131448)
(-0.11217 0.078521 0.00123395)
(-0.121909 0.0721644 0.00112147)
(-0.130787 0.0644654 0.000977159)
(-0.138675 0.0555577 0.000801035)
(-0.145454 0.0455804 0.000593293)
(-0.151016 0.0346808 0.000354548)
(-0.155264 0.0230177 8.60815e-05)
(-0.15811 0.0107647 -0.000209926)
(-0.159478 -0.0018866 -0.000530204)
(-0.159307 -0.0147245 -0.000870241)
(-0.157552 -0.0275157 -0.00122418)
(-0.154185 -0.0400047 -0.00158479)
(-0.149207 -0.0519159 -0.00194354)
(-0.142646 -0.0629563 -0.00229072)
(-0.134565 -0.0728215 -0.00261574)
(-0.125069 -0.0812037 -0.00290745)
(-0.114307 -0.0878025 -0.00315467)
(-0.102478 -0.0923382 -0.00334668)
(-0.0898321 -0.094567 -0.00347384)
(-0.0766719 -0.0942981 -0.00352818)
(-0.0633465 -0.0914105 -0.0035039)
(-0.0502455 -0.0858694 -0.00339785)
(-0.0377883 -0.0777395 -0.00320965)
(-0.0264117 -0.0671939 -0.00294118)
(-0.0165494 -0.0545185 -0.0025989)
(-0.00859184 -0.0401074 -0.00219835)
(-0.002973 -0.0244487 -0.00171364)
(-0.000406167 -0.00813039 -0.000895222)
(-0.000468168 0.0109324 -0.000359731)
(-0.00314796 0.0307725 0.000221978)
(-0.00875765 0.0482673 0.000659739)
(-0.0164382 0.0632421 0.000991596)
(-0.0257069 0.0756221 0.00126238)
(-0.0361993 0.085401 0.00147141)
(-0.0475601 0.0926282 0.0016247)
(-0.0594678 0.0973941 0.00172936)
(-0.0716375 0.0998165 0.00179069)
(-0.083817 0.100031 0.00181272)
(-0.0957833 0.0981813 0.00179829)
(-0.107339 0.0944152 0.0017492)
(-0.118309 0.0888801 0.0016663)
(-0.128538 0.0817218 0.00154981)
(-0.137885 0.0730853 0.00139951)
(-0.146221 0.0631164 0.00121502)
(-0.153431 0.0519646 0.000996083)
(-0.159406 0.0397867 0.000742855)
(-0.164047 0.0267509 0.00045616)
(-0.167262 0.0130408 0.000137769)
(-0.168968 -0.00114068 -0.000209365)
(-0.169093 -0.0155682 -0.000580909)
(-0.167579 -0.0299912 -0.000971004)
(-0.164386 -0.0441331 -0.00137219)
(-0.159493 -0.0576916 -0.00177542)
(-0.152913 -0.0703415 -0.00217016)
(-0.144689 -0.0817398 -0.00254467)
(-0.13491 -0.0915341 -0.00288633)
(-0.123713 -0.0993739 -0.00318217)
(-0.111292 -0.104925 -0.00341947)
(-0.0978981 -0.107889 -0.00358647)
(-0.083847 -0.108019 -0.00367307)
(-0.069512 -0.105146 -0.00367153)
(-0.0553192 -0.0991942 -0.00357712)
(-0.0417363 -0.0902004 -0.00338831)
(-0.0292586 -0.0783269 -0.00310638)
(-0.0183845 -0.0638664 -0.00273807)
(-0.00956955 -0.0472388 -0.00230061)
(-0.00332048 -0.0289751 -0.00176519)
(-0.000455926 -0.00972264 -0.000876322)
(-0.000497622 0.0125996 -2.12478e-05)
(-0.00334024 0.0352647 0.000661697)
(-0.00928227 0.0550957 0.00112425)
(-0.0174036 0.0719467 0.00147356)
(-0.0271843 0.0857769 0.0017576)
(-0.038232 0.0966182 0.00197605)
(-0.050167 0.104559 0.00213568)
(-0.0626487 0.109728 0.00224432)
(-0.0753787 0.112279 0.00230784)
(-0.0880965 0.11238 0.00233059)
(-0.100575 0.110206 0.0023156)
(-0.112616 0.10593 0.00226467)
(-0.124048 0.0997196 0.00217852)
(-0.134718 0.0917393 0.0020571)
(-0.14449 0.0821484 0.00189979)
(-0.153241 0.0711042 0.00170576)
(-0.160858 0.0587655 0.00147421)
(-0.167235 0.0452969 0.00120475)
(-0.172272 0.0308734 0.000897637)
(-0.175875 0.0156859 0.000554116)
(-0.177955 -5.45531e-05 0.000176702)
(-0.178429 -0.0161121 -0.000230574)
(-0.177226 -0.0322223 -0.000661962)
(-0.174288 -0.0480899 -0.00110986)
(-0.169576 -0.063388 -0.00156476)
(-0.163079 -0.0777601 -0.00201532)
(-0.154818 -0.0908238 -0.00244858)
(-0.14486 -0.102179 -0.00285031)
(-0.133323 -0.111421 -0.00320555)
(-0.120389 -0.118154 -0.00349925)
(-0.106308 -0.122013 -0.00371712)
(-0.0914002 -0.122686 -0.00384651)
(-0.0760625 -0.11994 -0.00387725)
(-0.0607572 -0.113647 -0.00380252)
(-0.0460029 -0.103804 -0.00361927)
(-0.0323592 -0.0905512 -0.00332785)
(-0.0203982 -0.0741837 -0.0029351)
(-0.0106505 -0.0551454 -0.00246)
(-0.00370814 -0.034013 -0.00187037)
(-0.000512459 -0.0115017 -0.000896462)
(-0.000526721 0.0143649 0.000399776)
(-0.00352939 0.0400149 0.00119845)
(-0.00979642 0.0623046 0.00168502)
(-0.0183454 0.0811184 0.00205087)
(-0.0286177 0.0964535 0.00234709)
(-0.0401918 0.108384 0.00257377)
(-0.052663 0.117044 0.00273847)
(-0.0656716 0.122605 0.00284981)
(-0.0789066 0.125264 0.00291424)
(-0.0921003 0.125226 0.00293652)
(-0.105024 0.1227 0.00291988)
(-0.117481 0.117888 0.0028661)
(-0.129304 0.110981 0.00277578)
(-0.140348 0.102163 0.00264854)
(-0.150484 0.0916079 0.00248335)
(-0.159597 0.0794841 0.00227881)
(-0.16758 0.0659584 0.00203353)
(-0.174331 0.0512009 0.00174643)
(-0.179754 0.0353911 0.00141708)
(-0.183753 0.0187235 0.00104607)
(-0.186233 0.0014136 0.000635318)
(-0.187104 -0.0162961 0.000188389)
(-0.186281 -0.0341314 -0.000289229)
(-0.183686 -0.0517822 -0.000789926)
(-0.179259 -0.0689002 -0.00130385)
(-0.172962 -0.0850993 -0.00181889)
(-0.16479 -0.0999584 -0.00232087)
(-0.154781 -0.113028 -0.00279383)
(-0.143028 -0.123844 -0.00322057)
(-0.129691 -0.131942 -0.00358343)
(-0.115009 -0.13688 -0.00386514)
(-0.0993064 -0.138266 -0.00404994)
(-0.0829947 -0.135792 -0.00412464)
(-0.0665718 -0.129256 -0.00407973)
(-0.0506096 -0.118602 -0.00391007)
(-0.0357377 -0.103938 -0.00361462)
(-0.0226113 -0.0855487 -0.00320004)
(-0.0118485 -0.0639002 -0.00268707)
(-0.00414206 -0.0396171 -0.0020396)
(-0.00057695 -0.0134901 -0.000963635)
(-0.000555709 0.0162272 0.000908979)
(-0.00371687 0.0450185 0.00183923)
(-0.0103036 0.0698845 0.00234917)
(-0.0192686 0.0907408 0.00273061)
(-0.0300122 0.107626 0.00303776)
(-0.0420813 0.120664 0.00327119)
(-0.0550452 0.130037 0.00343932)
(-0.0685248 0.13597 0.00355167)
(-0.0821974 0.138706 0.00361537)
(-0.0957899 0.138496 0.00363561)
(-0.109073 0.135586 0.00361588)
(-0.121857 0.13021 0.00355802)
(-0.133981 0.122586 0.00346246)
(-0.145309 0.112918 0.00332849)
(-0.155725 0.101396 0.0031546)
(-0.165124 0.0881991 0.00293877)
(-0.17341 0.0734994 0.0026789)
(-0.180488 0.0574712 0.00237311)
(-0.186267 0.0402948 0.00202013)
(-0.190653 0.0221649 0.00161972)
(-0.193549 0.00329718 0.00117302)
(-0.194856 -0.0160642 0.000682934)
(-0.194476 -0.0356402 0.000154481)
(-0.192315 -0.0551107 -0.000404914)
(-0.188286 -0.0741108 -0.000985214)
(-0.182323 -0.0922282 -0.00157367)
(-0.174387 -0.109005 -0.00215491)
(-0.164482 -0.123942 -0.00271119)
(-0.152666 -0.136512 -0.00322291)
(-0.13907 -0.146173 -0.00366942)
(-0.123912 -0.152399 -0.00403001)
(-0.107509 -0.154703 -0.00428519)
(-0.0902815 -0.152677 -0.00441801)
(-0.0727593 -0.146035 -0.00441553)
(-0.0555678 -0.134643 -0.00426975)
(-0.0394126 -0.118557 -0.00397761)
(-0.0250425 -0.0980437 -0.00354517)
(-0.0131771 -0.073583 -0.00299484)
(-0.0046284 -0.0458486 -0.0022859)
(-0.000650655 -0.0157137 -0.00108809)
(-0.000584956 0.0181859 0.00151207)
(-0.00390497 0.0502731 0.00259127)
(-0.0108093 0.0778279 0.00312411)
(-0.0201816 0.100798 0.00352012)
(-0.0313765 0.11927 0.00383671)
(-0.0439069 0.133418 0.00407498)
(-0.0573137 0.143486 0.00424438)
(-0.0711984 0.149756 0.00435546)
(-0.0852271 0.152527 0.00441614)
(-0.0991233 0.152101 0.00443222)
(-0.112661 0.148766 0.00440749)
(-0.125659 0.142794 0.0043439)
(-0.137967 0.134432 0.00424174)
(-0.149464 0.123906 0.00409997)
(-0.160049 0.111422 0.00391653)
(-0.169632 0.0971675 0.00368874)
(-0.17813 0.0813212 0.00341364)
(-0.185462 0.0640578 0.00308843)
(-0.191544 0.0455555 0.00271086)
(-0.196288 0.0260049 0.00227964)
(-0.199596 0.00561689 0.00179492)
(-0.201367 -0.0153681 0.00125871)
(-0.201488 -0.0366723 0.0006753)
(-0.199848 -0.057972 5.16803e-05)
(-0.196336 -0.0788914 -0.000602163)
(-0.190853 -0.0989975 -0.00127303)
(-0.183322 -0.117799 -0.00194448)
(-0.173705 -0.13475 -0.00259697)
(-0.162016 -0.149256 -0.0032084)
(-0.148346 -0.160696 -0.0037548)
(-0.132879 -0.168443 -0.00421152)
(-0.115912 -0.1719 -0.00455463)
(-0.0978666 -0.170544 -0.00476258)
(-0.0792955 -0.163973 -0.00481803)
(-0.0608766 -0.151955 -0.00470917)
(-0.0433961 -0.134472 -0.00443003)
(-0.0277076 -0.111752 -0.00398548)
(-0.0146489 -0.0842793 -0.00339934)
(-0.00517347 -0.0527749 -0.00262552)
(-0.000734942 -0.0182015 -0.00128282)
(-0.000615071 0.0202422 0.00221491)
(-0.00409725 0.0557796 0.00346218)
(-0.011322 0.0861314 0.0040177)
(-0.0210971 0.111278 0.00442717)
(-0.0327256 0.131356 0.0047513)
(-0.0456812 0.146602 0.0049919)
(-0.0594743 0.157327 0.00515961)
(-0.073686 0.163882 0.00526626)
(-0.0879725 0.16663 0.00532077)
(-0.102057 0.165929 0.00532969)
(-0.115719 0.16212 0.00529729)
(-0.12879 0.155513 0.0052257)
(-0.141136 0.14639 0.0051151)
(-0.152657 0.134999 0.00496411)
(-0.163268 0.121563 0.00477011)
(-0.172901 0.106279 0.00452965)
(-0.181491 0.0893281 0.00423884)
(-0.188973 0.0708843 0.00389379)
(-0.195278 0.0511198 0.00349107)
(-0.200324 0.0302167 0.00302816)
(-0.204021 0.00837589 0.00250395)
(-0.206263 -0.0141724 0.00191928)
(-0.20693 -0.0371583 0.00127743)
(-0.205895 -0.0602623 0.000584631)
(-0.20302 -0.0831054 -0.0001495)
(-0.198174 -0.105242 -0.000911588)
(-0.191237 -0.126153 -0.00168433)
(-0.182121 -0.145248 -0.00244654)
(-0.170788 -0.16187 -0.0031735)
(-0.157274 -0.175311 -0.00383771)
(-0.141716 -0.184835 -0.00441006)
(-0.124375 -0.189718 -0.00486144)
(-0.105658 -0.189297 -0.00516472)
(-0.0861314 -0.183029 -0.00529696)
(-0.0665195 -0.170549 -0.00524135)
(-0.0476924 -0.151736 -0.00498784)
(-0.0306199 -0.126755 -0.00453919)
(-0.0162767 -0.0960788 -0.00392031)
(-0.00578389 -0.0604698 -0.00307862)
(-0.000831342 -0.0209863 -0.00156421)
(-0.000647005 0.0223992 0.00302363)
(-0.00429916 0.0615443 0.00446026)
(-0.0118549 0.0947971 0.00503856)
(-0.022035 0.122171 0.00546017)
(-0.0340822 0.143858 0.00578935)
(-0.0474251 0.160167 0.00602882)
(-0.0615398 0.171489 0.00619076)
(-0.0759863 0.178253 0.00628855)
(-0.0904126 0.180896 0.00633246)
(-0.104544 0.179846 0.00633003)
(-0.118172 0.175497 0.0062862)
(-0.131145 0.168209 0.00620339)
(-0.143351 0.158297 0.00608176)
(-0.154713 0.146036 0.00591959)
(-0.165173 0.131664 0.00571365)
(-0.174686 0.115389 0.00545966)
(-0.183213 0.0973919 0.00515266)
(-0.190708 0.0778428 0.00478753)
(-0.197121 0.0569049 0.00435947)
(-0.202385 0.0347471 0.00386448)
(-0.206417 0.0115546 0.00329996)
(-0.209115 -0.0124591 0.00266525)
(-0.210356 -0.0370403 0.00196225)
(-0.209996 -0.0618821 0.00119608)
(-0.207876 -0.086612 0.000375589)
(-0.20383 -0.110781 -0.00048605)
(-0.197693 -0.133852 -0.00137102)
(-0.189321 -0.155198 -0.0022567)