/*--------------------------------*- C++ -*----------------------------------*\
  =========                 |
  \\      /  F ield         | OpenFOAM: The Open Source CFD Toolbox
   \\    /   O peration     | Website:  https://openfoam.org
    \\  /    A nd           | Version:  9
     \\/     M anipulation  |
\*---------------------------------------------------------------------------*/
FoamFile
{
    format      ascii;
    class       volVectorField;
    location    "28.4";
    object      U;
}
// * * * * * * * * * * * * * * * * * * * * * * * * * * * * * * * * * * * * * //

dimensions      [0 1 -1 0 0 0 0];

internalField   nonuniform List<vector> 
918
(
(2.47629 -0.138943 0)
(0.108704 0.722546 0)
(0.171728 1.054 0)
(2.31834 0.153728 0)
(-0.0598322 1.27037 -1.22223e-19)
(-0.0924034 0.643931 -5.31399e-18)
(0.529975 0.849531 -2.95446e-19)
(0.274322 0.152873 -2.98856e-20)
(3.00615 -0.0195608 0)
(-0.00823905 0.476789 0)
(-0.0171985 0.589246 0)
(0.605214 0.00676601 0)
(0.0107054 0.439105 0)
(-0.00288246 0.421689 0)
(0.0134395 0.340821 -1.3052e-18)
(-0.00474002 0.769012 -9.2075e-20)
(0.312402 0.0742694 2.15219e-18)
(0.0797376 0.642326 -2.23047e-19)
(1.52884 0.128628 0)
(-0.0267365 0.685211 0)
(0.194591 0.157722 -1.2656e-18)
(3.08302 -0.397373 0)
(2.92445 -0.50598 0)
(1.86116 -0.1811 0)
(0.511386 0.0400858 0)
(-0.0253685 0.52155 0)
(-0.00135313 0.494038 1.86246e-18)
(-0.0225967 1.40035 0)
(0.0743575 2.88402 0)
(0.168089 1.73662 0)
(-0.0387844 3.16517 0)
(0.0270661 1.63994 9.39777e-20)
(0.0232472 0.686639 0)
(-0.147425 0.775094 -2.03092e-22)
(-0.193914 1.0291 4.42138e-18)
(-0.0415772 1.04471 0)
(0.744578 -0.00600508 0)
(0.161014 0.246322 6.65578e-19)
(0.993423 1.5129 6.5298e-19)
(0.649892 0.784302 -5.1611e-19)
(0.798534 1.57499 6.20193e-20)
(0.416765 0.851277 -3.20219e-19)
(0.552322 0.306564 2.9392e-20)
(0.296968 0.153645 0)
(0.962967 0.566547 0)
(0.532603 0.303947 1.32019e-19)
(0.257975 0.16279 -1.35471e-19)
(0.871596 -0.0554787 0)
(3.02784 -0.00170481 0)
(3.00685 0.0178656 0)
(3.20086 -0.417733 0)
(3.04288 -0.0742117 0)
(3.03116 -0.0388406 0)
(0.0186363 0.903457 -1.14645e-18)
(-0.0542445 0.973957 0)
(0.00283726 0.454945 0)
(-0.0291091 0.980974 0)
(-0.0113829 0.481115 0)
(-0.00133337 0.870428 0)
(-0.0520682 1.11045 0)
(-0.0125528 0.54158 0)
(-0.0253255 1.16175 0)
(-0.00591703 0.621475 0)
(0.790476 0.011624 0)
(1.16942 -0.00156211 0)
(0.618249 0.0123696 0)
(1.12579 0.0175985 0)
(0.569762 0.0086792 0)
(0.225406 0.921982 1.95983e-18)
(0.0985379 1.2081 0)
(0.176302 1.06604 0)
(0.0331901 0.755774 2.19936e-23)
(0.0372233 0.498055 -2.93108e-18)
(0.0194616 0.747943 0)
(0.00595421 0.422033 0)
(-0.000695323 0.734548 4.51753e-24)
(0.000702479 0.414825 0)
(-0.0169204 0.74318 0)
(-0.0129373 0.42798 0)
(0.0494404 0.649991 0)
(0.0484429 0.458236 0)
(0.00800782 0.621957 1.23404e-18)
(0.000746014 0.344905 0)
(-0.069063 4.69208 0)
(0.00886957 1.45873 9.14114e-20)
(-0.0104996 0.785802 -1.17688e-19)
(0.636095 0.152148 -7.50965e-19)
(0.321618 0.0656851 -7.28724e-19)
(0.644801 0.169725 -2.25471e-18)
(0.317536 0.0955723 -1.4516e-18)
(0.0785659 0.618569 0)
(0.178497 1.31343 1.84965e-19)
(0.179668 0.730052 -2.95117e-19)
(2.06031 0.260946 0)
(1.10704 0.11845 0)
(3.03313 0.103887 0)
(3.10392 0.446059 0)
(2.83919 0.377459 -1.0128e-17)
(2.5781 0.361309 7.77138e-18)
(-0.0707091 1.26255 0)
(-0.0113667 0.622913 0)
(-0.0141036 1.90005 0)
(-0.050717 1.34612 0)
(-0.0480434 0.678845 0)
(0.440324 0.295638 4.00685e-19)
(0.22547 0.163364 0)
(2.2961 -0.266393 0)
(1.32372 -0.119273 0)
(1.07633 0.0126684 0)
(1.01199 0.0187646 0)
(0.540926 0.0108507 0)
(1.01985 0.0563977 0)
(0.821222 0.0703263 0)
(0.343625 0.0286958 3.36307e-18)
(-0.00543508 0.451601 1.77355e-18)
(-0.0270314 0.784628 0)
(-0.0473182 0.847508 0)
(-0.0152741 0.460436 0)
(0.000132486 0.839725 1.81601e-18)
(7.30039e-05 0.48753 0)
(-0.0054789 0.845554 -5.59043e-18)
(-0.00488634 0.496761 1.88637e-18)
(0.0538976 3.56566 0)
(0.042287 4.025 0)
(-0.0163157 1.41118 -2.05247e-21)
(-0.0131411 1.3635 0)
(-0.00984129 0.741659 0)
(1.41018 0.0348841 0)
(0.760548 0.0154385 0)
(0.709515 0.0142643 0)
(1.41618 -0.0328483 0)
(0.773515 -0.00873982 0)
(0.322084 0.480388 -8.35658e-19)
(0.156817 0.232736 0)
(0.324988 0.509211 9.36531e-20)
(0.163375 0.268455 0)
(1.24066 1.38668 1.66487e-19)
(0.778612 0.740764 -3.92509e-19)
(0.41151 1.42174 0)
(0.607051 1.53366 0)
(0.303477 0.814583 0)
(0.14535 0.353423 -4.42878e-19)
(0.60732 0.280725 0)
(0.313516 0.134641 3.98834e-19)
(1.42721 1.30659 0)
(1.58658 1.16844 0)
(0.874846 0.663855 4.61798e-19)
(1.73383 0.953039 0)
(1.06855 0.438751 2.32208e-20)
(1.47298 0.00813834 0)
(1.501 -0.0292392 0)
(0.801896 -0.00441625 0)
(1.95042 -0.199779 0)
(1.65082 -0.14818 0)
(1.05215 -0.0889697 0)
(3.06126 0.164853 0)
(3.03105 0.0687874 0)
(3.01022 0.0531594 0)
(0.0357407 1.60638 6.08305e-19)
(0.0178902 0.827375 0)
(0.0180097 1.69723 1.07994e-18)
(0.00306391 0.93942 -9.70899e-19)
(0.0646809 1.15191 1.87879e-19)
(0.0476983 0.988791 0)
(0.0401844 0.528496 0)
(-0.0286419 1.00494 0)
(-0.00697432 0.51723 0)
(0.0181172 1.61673 -4.43348e-21)
(-0.0180998 0.866206 0)
(-0.0539582 1.58534 -2.25819e-19)
(-0.0161715 0.821387 4.37351e-19)
(-0.00177307 1.02916 0)
(0.0102628 1.04335 0)
(5.59075e-05 0.53126 0)
(0.0106619 1.17022 0)
(0.000894135 0.611983 0)
(1.46831 -0.00370452 0)
(0.789214 0.0080593 0)
(1.44054 0.0331656 0)
(0.76179 -0.000557741 0)
(0.675383 0.00534441 0)
(1.26196 0.0166819 0)
(1.20239 0.0473081 0)
(0.659692 0.0155558 0)
(-0.00580052 1.42077 -1.70211e-20)
(0.000184321 1.37708 0)
(0.00482012 0.732923 0)
(0.00172892 0.417221 0)
(0.284456 0.828793 0)
(0.253632 0.399755 -2.87146e-19)
(-0.00223072 0.635411 0)
(-0.00889659 0.367611 0)
(0.0105277 4.33748 0)
(-0.0499343 4.66438 0)
(-0.0193793 4.566 0)
(-0.0726109 3.36811 2.04478e-20)
(-0.0590111 4.60342 0)
(-0.0527503 4.1805 0)
(0.00481784 0.819619 1.08025e-20)
(0.0142033 1.56339 1.65415e-19)
(-0.0359044 1.50379 1.20913e-19)
(-0.0074692 0.826396 0)
(0.664437 0.10571 1.15332e-18)
(0.325689 0.0441636 -1.13027e-18)
(0.149723 1.13368 0)
(0.100981 0.57354 -2.6927e-19)
(0.118202 1.2336 -8.74421e-19)
(0.0518943 0.687355 8.6992e-19)
(0.809202 0.0240634 0)
(1.55677 0.0476794 0)
(1.7097 0.127652 0)
(0.919845 0.0445227 0)
(0.00788367 1.18144 0)
(0.025813 1.18954 0)
(0.00448177 0.627476 0)
(0.482124 0.31509 1.20365e-18)
(0.436858 0.309091 -1.38673e-18)
(0.234773 0.164179 0)
(1.93548 0.152995 1.15243e-19)
(1.13641 0.093248 0)
(1.72434 0.118441 0)
(0.883722 0.0226941 0)
(0.67818 0.0857392 0)
(0.699721 0.0460601 -5.40769e-18)
(0.346731 0.0325965 1.99908e-18)
(0.00914722 0.807284 1.69371e-18)
(0.00222276 0.46251 4.08166e-20)
(-0.0108777 1.40842 -3.5801e-20)
(0.00613617 1.38675 1.36589e-18)
(-0.0149832 0.848955 6.29448e-20)
(-0.0119261 0.524486 -2.5291e-22)
(-0.107514 1.00068 -1.1649e-18)
(-0.0529602 1.3532 8.34006e-19)
(-0.0175323 1.35275 -1.35778e-18)
(1.42273 -0.0170849 0)
(1.44236 0.0203181 0)
(0.76987 -0.000177836 0)
(1.45218 0.0253832 0)
(1.3632 0.0462297 0)
(0.761542 0.020307 0)
(1.30062 -0.00215378 0)
(1.31867 -0.0058489 0)
(0.695055 -0.000986577 0)
(0.304876 0.473435 -9.15266e-19)
(0.161367 0.242694 0)
(0.157171 0.308458 1.36947e-19)
(0.309622 0.585948 1.12223e-18)
(0.307431 0.548625 -6.64367e-19)
(0.156834 0.281921 1.29827e-18)
(0.27852 0.717792 2.18171e-18)
(0.148283 0.380899 3.93662e-19)
(0.636101 0.213097 1.53751e-18)
(0.626005 0.253609 3.99331e-19)
(0.316625 0.115047 7.49293e-19)
(1.92124 0.714595 -5.99724e-19)
(1.16766 0.33609 -7.01947e-19)
(-0.0351007 1.70431 4.64193e-19)
(-0.011404 0.925463 0)
(1.60389 0.0239507 0)
(1.5219 0.0653714 0)
(0.852929 0.0268578 0)
(-0.00355883 1.38473 0)
(0.00507421 0.729574 2.49517e-18)
(0.00465033 0.731252 0)
(0.00207079 0.415097 -2.4422e-18)
(-0.0102751 1.38627 5.95666e-19)
(-0.00947265 1.4225 0)
(0.336569 0.488166 2.57969e-19)
(0.360057 0.546429 -8.6304e-19)
(0.171844 0.257831 7.8118e-19)
(-0.0256694 0.767468 -1.66266e-18)
(-0.0261515 0.689734 0)
(-0.0154342 0.412937 0)
(0.03016 1.54911 -1.27236e-20)
(0.031372 1.58173 -3.6491e-19)
(0.0178922 0.823154 -1.55935e-20)
(0.213411 1.04424 8.90081e-19)
(0.119674 0.509092 -5.92303e-19)
(0.0118966 1.4854 7.30661e-19)
(0.0558731 1.35125 -8.15494e-19)
(0.0268389 0.760634 3.53094e-20)
(0.0075135 1.36614 -3.80763e-18)
(-0.000214895 1.39326 4.40945e-18)
(0.00377338 0.829776 1.73294e-18)
(-0.0138289 0.805094 -1.72541e-18)
(-0.00430907 0.481399 -1.73858e-18)
(-0.0106511 1.41685 -4.49986e-18)
(-0.0152178 1.40032 4.58905e-18)
(0.286391 0.674854 0)
(0.299799 0.63468 -2.28782e-18)
(0.151951 0.331745 9.904e-19)
(0.281248 0.796047 1.1851e-18)
(0.138822 0.427556 -1.8286e-18)
(2.05696 0.322572 4.15854e-19)
(2.05151 0.547707 0)
(1.21863 0.220975 -4.01809e-19)
(-0.0738975 1.63639 -4.80195e-21)
(-0.0141101 1.69173 0)
(-0.0157049 0.922545 0)
(0.227116 0.944606 -3.228e-19)
(0.248257 0.866585 -7.06926e-19)
(0.12882 0.463317 1.32482e-18)
(3.16442 -0.442872 0)
(3.34728 -0.414685 1.81286e-18)
(0.0615874 3.48361 0)
(0.0484376 2.80735 0)
(3.15925 0.249915 1.4192e-20)
(3.12355 0.506296 3.71224e-18)
(0.0227107 3.43301 -2.74419e-20)
(0.00895676 2.66487 0)
(-0.0416451 1.19604 1.55503e-18)
(0.19008 1.31641 0)
(3.47252 1.62503 -3.24769e-19)
(3.17427 0.272573 -2.96098e-20)
(3.14838 -0.118697 0)
(3.10047 -0.00040408 3.73109e-22)
(0.0439825 2.58912 0)
(0.157725 3.30209 0)
(-0.0548415 2.53265 0)
(-0.0229553 3.49048 3.15786e-19)
(-0.0249386 3.57143 1.99267e-19)
(2.63344 0.0488299 -1.36492e-20)
(3.04751 0.0311509 0)
(3.15791 0.0868372 0)
(-0.0521184 4.61752 0)
(-0.0459702 3.08487 0)
(-0.0720517 2.93439 0)
(0.65248 3.10511 2.65745e-19)
(3.33884 -0.422458 0)
(3.0114 -0.34581 0)
(3.1699 -0.0530369 2.27728e-18)
(3.2927 -0.3287 -2.74209e-18)
(3.1038 -0.125777 0)
(-0.0578426 4.51545 0)
(0.0158829 3.93456 0)
(0.00759881 4.26555 0)
(-0.0268819 3.09494 0)
(-0.0132702 2.85066 0)
(-0.030625 2.4234 0)
(2.97422 -0.00317007 0)
(2.85043 0.0486281 -1.805e-20)
(2.24674 3.04907 -3.21605e-19)
(3.15695 0.0444552 -2.27834e-18)
(3.19037 0.278179 2.76944e-18)
(3.0828 0.117338 0)
(3.3954 0.328926 2.08737e-18)
(3.35695 0.484366 -2.70664e-18)
(3.07111 0.418429 0)
(-0.0552041 3.34819 0)
(0.00520059 3.27778 8.52405e-20)
(-0.0305204 2.5768 -6.04009e-20)
(3.70787 0.5553 2.26559e-18)
(3.47096 0.208491 0)
(-0.15198 1.27126 -2.16597e-18)
(-0.0624285 0.882159 -1.35037e-19)
(-0.0848299 1.33672 2.98565e-18)
(-0.0352315 1.27045 -8.99632e-19)
(-0.000491135 1.08842 0)
(-0.0266647 1.23955 6.94868e-19)
(-0.115052 1.38786 2.14659e-18)
(-0.0590486 1.34056 -1.31416e-18)
(-0.0767374 1.32063 0)
(1.28933 0.597231 0)
(1.17731 0.682403 0)
(3.55657 2.02941 9.53601e-19)
(3.04976 1.93588 -1.19069e-18)
(3.83769 1.70655 0)
(3.38418 1.15681 0)
(3.34934 0.280495 -3.91696e-18)
(2.89884 0.17312 4.83995e-18)
(3.35145 -0.155479 0)
(2.85479 -0.0761359 0)
(3.43642 0.0430261 0)
(3.5938 0.145057 0)
(3.28683 0.119875 0)
(3.55033 0.298581 0)
(3.40841 0.293059 0)
(3.32755 0.218074 0)
(0.0974412 2.7905 0)
(0.0344308 2.07917 0)
(0.126696 3.05137 0)
(0.092727 2.2054 0)
(0.215067 3.59506 0)
(0.140238 2.67501 -5.58637e-19)
(0.0535509 3.61156 0)
(0.0114849 3.01533 4.05667e-19)
(-0.0243188 3.20458 -5.1708e-19)
(-0.0589612 2.79714 0)
(-0.0227795 2.19988 0)
(-0.0718144 2.90481 0)
(-0.0554778 2.04814 0)
(-0.106459 4.75003 -2.45555e-19)
(-0.0791208 3.94245 2.77269e-19)
(-0.0742504 3.80334 3.09095e-19)
(-0.0526702 3.01784 0)
(-0.10444 3.80481 -4.58732e-19)
(-0.0371275 3.21638 -2.95092e-19)
(-0.0806244 4.78243 1.92573e-19)
(-0.0933069 4.46635 -3.50462e-19)
(-0.0684482 4.33609 -3.78955e-19)
(3.03134 0.0883858 3.35873e-18)
(2.2896 0.0321821 -4.22993e-18)
(2.89132 0.132844 -3.32765e-18)
(2.20958 0.0734887 4.15643e-18)
(3.36857 0.0277258 0)
(2.64306 -0.00265116 0)
(3.45415 0.0913548 0)
(3.32024 0.019289 0)
(2.70665 0.00922698 0)
(3.6803 0.239639 0)
(3.43883 0.0960009 0)
(2.86368 0.0565168 0)
(-0.0221424 4.33607 -1.20327e-20)
(-0.0550267 4.65371 0)
(-0.0603735 4.54968 0)
(-0.0750256 3.50594 8.77542e-20)
(-0.0374621 2.77944 -3.4665e-21)
(-0.0800236 4.6701 1.13434e-19)
(-0.094189 4.45826 -1.14631e-19)
(-0.0777469 3.9553 0)
(-0.0559198 3.87556 0)
(-0.0195394 3.9924 0)
(-0.0710595 3.25511 0)
(-0.0426035 2.30003 0)
(0.94877 3.66152 -6.08832e-19)
(0.92116 2.85309 -1.76354e-19)
(0.430309 2.05297 -2.28192e-19)
(0.252283 2.29945 6.9698e-19)
(1.02377 4.20021 2.63815e-19)
(3.43308 -0.167422 0)
(3.32213 -0.256546 0)
(2.88327 -0.189515 0)
(3.47032 -0.0643459 0)
(3.34581 -0.147865 0)
(3.44893 -0.261023 0)
(3.5195 -0.283601 0)
(3.57949 -0.281129 0)
(3.22413 0.0933876 3.61902e-18)
(2.55519 0.0645183 -4.57619e-18)
(3.0965 0.106578 -3.56248e-18)
(2.50909 0.0566749 4.43272e-18)
(2.23992 3.41691 0)
(1.73963 2.94828 -4.45617e-19)
(2.56693 3.34889 -4.03209e-19)
(2.36951 2.52952 5.35906e-19)
(0.774505 1.21303 2.72224e-18)
(1.44677 0.216478 1.34319e-18)
(3.72255 0.304249 0)
(3.89313 0.572817 -1.84605e-18)
(3.29899 0.243956 -8.23422e-20)
(3.72081 0.440145 0)
(0.236613 1.31234 1.79606e-18)
(-0.0166478 1.20199 -2.87632e-18)
(0.0588095 0.769962 1.61451e-18)
(0.275941 0.464903 -7.47833e-19)
(0.187248 1.38376 8.70988e-19)
(0.0506454 1.23717 0)
(0.0577363 1.08617 -1.13227e-18)
(0.191717 1.44298 -4.09209e-18)
(0.329006 1.55697 0)
(0.00867298 1.2902 1.19585e-19)
(-0.00971767 1.45729 -1.34022e-18)
(-0.0410147 1.30282 1.94839e-18)
(-0.0574438 1.41766 0)
(-0.0204762 1.38228 0)
(0.681091 1.04989 0)
(2.45681 2.45516 -1.06619e-18)
(2.64404 2.17373 3.95235e-19)
(2.79254 2.88255 0)
(3.21303 3.06764 -3.94566e-19)
(3.16596 2.41178 2.84628e-20)
(0.803674 0.589329 -1.82236e-18)
(1.55584 0.691442 -1.62185e-20)
(1.23287 0.45099 8.7214e-19)
(1.27498 0.843601 5.95045e-20)
(0.938766 0.633799 -2.36945e-18)
(1.46418 0.714125 0)
(1.98977 1.09968 1.45591e-18)
(2.03192 1.01563 0)
(1.41173 0.790654 0)
(1.06191 0.54965 0)
(3.37547 2.18021 1.00849e-18)
(3.94756 0.760923 -1.86338e-18)
(3.84789 1.2161 0)
(3.53382 0.757798 0)
(1.39133 0.364755 1.33248e-18)
(3.25799 1.84223 -8.51496e-19)
(2.83432 1.65439 1.54683e-18)
(3.75526 1.37708 -1.83587e-18)
(3.09793 0.114761 2.46399e-18)
(3.16856 0.180817 -2.57895e-18)
(2.66183 0.0916426 0)
(3.30731 -0.0394961 0)
(3.20141 -0.0842563 -2.36652e-18)
(2.63244 -0.0321096 2.34568e-18)
(3.9563 0.0932058 0)
(3.75968 0.145654 0)
(3.69369 0.155373 0)
(3.5883 0.204748 0)
(3.83261 0.0590319 0)
(3.72611 0.0522531 0)
(-0.0400285 2.51254 0)
(-0.0376615 2.01164 0)
(0.35725 3.98897 -4.11326e-19)
(0.662904 3.33422 -1.6002e-19)
(0.259713 3.02818 -3.5802e-19)
(0.343832 2.54848 5.7347e-19)
(0.458446 4.01506 0)
(0.470301 4.67182 -5.09908e-19)
(0.383618 4.73017 0)
(0.911402 4.37546 -3.79505e-19)
(0.673425 3.81467 9.68835e-19)
(0.597633 4.6533 4.46958e-19)
(0.740996 4.20154 -1.87517e-19)
(0.602901 4.32685 1.50871e-19)
(0.916751 4.65749 -6.6378e-19)
(0.750096 4.66205 0)
(0.858919 4.58976 5.04556e-19)
(0.00742528 4.57263 -1.81149e-19)
(-0.0183782 3.64758 0)
(0.101871 4.28763 5.49642e-19)
(-0.00246964 4.39057 0)
(-0.0034543 3.45914 -4.51094e-19)
(-0.0151604 2.91268 0)
(-0.0997404 4.30809 -2.89116e-19)
(-0.105317 4.68169 0)
(-0.0526566 3.80563 0)
(-0.0395489 3.72748 3.25174e-19)
(-0.046761 3.88872 1.03849e-20)
(-0.0345172 3.70979 6.25959e-19)
(-0.0410571 2.95015 4.06902e-21)
(-0.113469 4.71065 1.80177e-19)
(-0.102311 4.74217 1.03215e-19)
(-0.0166123 2.62232 0)
(0.00131244 2.13469 0)
(-0.0410062 4.78963 4.86217e-19)
(-0.0477776 4.30875 4.23836e-19)
(-0.0824436 4.58504 -5.54076e-19)
(0.0169368 4.75838 0)
(-0.0780586 4.5356 -3.09068e-19)
(-0.117327 4.16942 1.27744e-19)
(-0.0845237 4.24997 -4.12993e-20)
(-0.06972 4.72956 -2.18885e-19)
(-0.0850731 4.27109 -6.85617e-20)
(-0.083431 4.21596 3.06706e-19)
(2.87142 0.0610239 -2.36361e-18)
(2.85887 0.0497064 2.27308e-18)
(2.3386 0.0345579 0)
(3.5101 0.192034 3.04661e-18)
(2.70368 0.126545 -3.30486e-18)
(2.2545 0.064486 3.60968e-18)
(3.68249 0.335337 -4.01653e-19)
(3.20989 -0.0485207 0)
(3.17212 -0.0135483 2.23708e-18)
(2.69091 -0.0123746 -2.21944e-18)
(3.87876 0.122249 -1.25242e-19)
(3.77176 0.101861 1.07837e-18)
(4.15977 0.173496 0)
(4.22846 0.181156 -3.75144e-19)
(4.0137 0.14524 0)
(3.6949 0.15541 0)
(4.0323 0.0950896 0)
(3.71179 0.0873347 0)
(4.18472 0.113891 7.85526e-19)
(4.1372 0.0791419 -1.74797e-18)
(4.14067 0.113893 -8.48037e-19)
(4.1864 0.116535 -9.24518e-19)
(4.2157 0.229021 1.77412e-18)
(3.85474 0.188635 0)
(4.06127 0.301925 0)
(-0.0719424 4.58096 -1.35733e-19)
(-0.0325483 4.64489 -1.16779e-20)
(-0.065318 4.6613 0)
(-0.0547175 4.19741 1.38111e-19)
(-0.0531232 4.22495 2.25367e-20)
(-0.0579337 4.09313 -2.18435e-20)
(-0.0799848 3.52852 2.61193e-19)
(-0.143112 4.00809 -1.45191e-20)
(-0.101871 4.13543 7.47649e-20)
(-0.0739512 3.40428 -1.32309e-19)
(-0.0246318 2.92686 1.58452e-19)
(-0.0751481 4.42806 5.20202e-21)
(-0.0880458 4.64247 1.72234e-19)
(1.24354 4.3595 3.47469e-19)
(1.15976 4.52857 7.26078e-19)
(1.7367 3.4662 4.30901e-19)
(1.3087 3.56039 1.6953e-19)
(1.28636 2.88939 0)
(0.548535 2.31886 2.74894e-19)
(0.46358 1.74161 3.30697e-19)
(0.345136 2.56755 1.50977e-20)
(0.492196 3.17346 -1.16129e-18)
(0.631762 3.13234 8.7653e-19)
(0.432799 2.40459 0)
(0.293614 1.9721 -5.57288e-19)
(0.259915 3.07799 1.39477e-18)
(0.273391 2.7197 -3.1387e-20)
(0.15795 2.27645 -1.7481e-18)
(0.591422 1.41108 1.46339e-18)
(0.576381 1.61688 0)
(3.58364 -0.0751497 8.6436e-20)
(3.61861 -0.254101 -7.25989e-20)
(3.72135 -0.217712 -1.26659e-18)
(3.75927 -0.126019 1.28247e-18)
(3.67616 -0.0488559 0)
(2.44636 3.87139 0)
(2.61793 3.91458 0)
(2.88952 3.62544 0)
(2.73625 3.64261 0)
(0.854195 1.39442 -3.33932e-21)
(0.6115 1.03908 0)
(1.7091 3.38425 1.50216e-20)
(1.42102 3.46331 0)
(1.32658 2.95051 -1.28376e-18)
(1.40708 2.89317 8.24437e-19)
(1.79128 0.310398 0)
(1.43046 0.262018 3.52074e-19)
(2.41166 0.358827 2.19184e-18)
(1.78608 0.284835 -7.85448e-19)
(1.42632 0.112198 -2.49505e-18)
(4.26631 0.790079 -2.56556e-18)
(3.852 0.995193 -3.67204e-20)
(3.29694 0.844627 2.06789e-18)
(3.87581 0.745457 1.81333e-18)
(3.12308 0.465683 -3.04512e-18)
(2.91024 0.452158 3.74998e-19)
(3.19252 0.682312 -8.18742e-19)
(2.97612 0.683398 0)
(3.75869 0.563983 1.53769e-18)
(4.09567 0.629391 0)
(4.0912 0.776462 0)
(4.04577 0.415915 8.237e-19)
(4.29665 0.642575 -3.02472e-20)
(4.24945 0.715892 -4.52894e-19)
(4.17658 0.643276 0)
(3.61568 0.130415 1.71823e-18)
(4.19 0.183597 2.14427e-18)
(4.09069 0.151658 -1.67947e-18)
(4.13651 0.240874 -1.4429e-18)
(3.74574 0.238213 -2.15644e-18)
(3.3029 0.375965 0)
(3.40344 0.302407 0)
(2.55813 0.190649 -1.26609e-18)
(2.10848 0.119114 4.76781e-19)
(4.03723 0.352624 1.9404e-18)
(4.28774 0.432843 -2.34657e-18)
(4.28489 0.489472 2.06897e-18)
(4.15714 0.493528 0)
(4.25663 0.3373 0)
(4.26651 0.322394 -9.81968e-19)
(4.2143 0.31616 -1.59657e-18)
(2.22687 3.48726 6.20501e-19)
(1.93765 3.23093 -6.83384e-19)
(1.44576 2.3555 -1.03193e-18)
(1.18641 1.99632 2.66854e-19)
(0.883799 1.37818 -2.62878e-18)
(0.793688 1.21546 9.22161e-19)
(0.600788 0.903959 -1.97069e-21)
(1.11459 1.78476 -1.1379e-18)
(1.14191 1.88187 1.69866e-18)
(0.974389 1.70015 5.06091e-19)
(0.785967 1.28866 -5.12707e-19)
(0.635428 1.07442 0)
(2.44568 2.60682 -1.15439e-19)
(0.705204 1.14422 8.57258e-19)
(0.927775 0.889732 1.15622e-18)
(0.755297 0.813626 1.33779e-18)
(1.08312 0.746535 1.34119e-18)
(1.46695 1.04434 -2.27034e-18)
(1.38298 1.07123 1.83948e-18)
(1.00183 0.76553 -6.76773e-19)
(0.81705 0.56802 1.49469e-18)
(1.61552 0.490758 -7.78134e-19)
(1.55898 0.508334 0)
(1.23956 0.407339 4.60621e-21)
(2.50925 1.5159 7.75584e-19)
(2.07985 1.27016 -2.80868e-18)
(1.68669 1.18442 9.08862e-21)
(1.66074 1.09236 0)
(2.86215 2.5951 8.73825e-19)
(3.4468 2.75283 1.0375e-18)
(3.25583 2.93075 -1.19599e-18)
(3.55422 2.76337 -4.28398e-19)
(3.48427 2.60361 -1.34899e-19)
(3.51245 2.79507 1.38792e-19)
(3.67428 2.26701 -1.67947e-18)
(3.70518 2.49205 4.00758e-19)
(3.78366 2.4358 0)
(3.78443 2.19155 -5.7973e-19)
(4.04897 1.07331 5.80578e-19)
(4.27596 0.993154 1.00219e-18)
(4.30041 0.966863 1.0117e-18)
(4.05504 1.32933 -1.14966e-18)
(4.10286 1.34974 0)
(4.15251 1.2337 0)
(3.32772 1.23573 -1.56056e-20)
(2.41775 0.666494 0)
(2.72188 0.744043 9.30678e-19)
(3.23829 0.885943 -2.64557e-20)
(3.77291 1.53466 5.1076e-18)
(3.56984 1.76189 1.31117e-18)
(3.48098 1.54047 -1.3407e-18)
(3.0374 1.36978 1.43747e-18)
(2.7607 1.36966 8.23787e-19)
(2.3066 1.1559 -7.9782e-19)
(3.67221 -0.0855436 1.98468e-18)
(3.8947 -0.0289332 0)
(3.85894 -0.0665496 1.3421e-18)
(3.74291 -0.0594092 -2.98782e-18)
(3.98056 0.0373765 1.46201e-18)
(3.90444 0.113426 -3.08302e-18)
(3.73986 0.128035 0)
(3.55625 0.17347 -6.28562e-19)
(3.81197 0.122981 1.60531e-18)
(3.69195 0.191384 -8.22578e-19)
(3.6003 0.171078 5.9073e-19)
(-0.0800648 2.59071 0)
(-0.0465936 3.39778 0)
(-0.0317675 2.46177 0)
(-0.0214995 1.97051 0)
(0.0466054 3.94078 6.70714e-19)
(0.140422 3.72216 -1.72967e-19)
(0.3177 4.6443 -2.2975e-19)
(0.253393 4.46116 2.42648e-19)
(-0.0244105 4.29378 -4.97557e-19)
(0.0126552 4.32588 3.73628e-19)
(0.0961794 3.86941 2.22661e-20)
(0.0101799 3.55671 -4.67126e-19)
(-0.0121095 3.30837 -6.22681e-20)
(-0.0388288 3.67071 -5.67392e-20)
(0.153698 4.47541 -5.87014e-19)
(0.178862 4.28896 0)
(0.27619 4.63533 2.96435e-19)
(0.269366 4.70966 2.53011e-19)
(0.596302 4.4447 -2.26033e-19)
(0.408459 3.78103 0)
(0.457591 3.62872 -1.11495e-18)
(0.560359 3.99757 7.90033e-19)
(0.480574 4.56216 -6.14851e-19)
(0.370943 4.4329 3.30794e-19)
(0.299907 4.15479 0)
(-0.0338933 4.76234 -5.5323e-19)
(-0.0737166 4.52791 -6.41518e-19)
(-0.0748101 4.74054 0)
(-0.0281589 4.36072 -6.25039e-21)
(-0.0181162 4.64206 2.74263e-19)
(-0.117862 3.88123 4.47017e-20)
(-0.0548857 3.48569 -6.5372e-19)
(-0.0949232 3.92396 1.74182e-19)
(-0.1346 4.51732 2.3233e-19)
(-0.0752126 4.3276 0)
(-0.0591903 3.88572 0)
(-0.0819352 2.89755 2.00818e-19)
(-0.0472619 3.63091 -6.26621e-20)
(-0.0723928 3.61842 0)
(-0.0880109 2.68657 1.58116e-19)
(-0.0462624 2.19332 -3.0636e-19)
(3.76103 0.0323468 0)
(3.7319 0.00774887 -2.03284e-19)
(4.1795 0.0679677 -1.44e-18)
(4.08911 0.0463179 0)
(3.87634 0.0178289 0)
(4.14973 0.0370636 -1.25247e-20)
(4.1003 0.0349574 2.37901e-18)
(4.0001 0.0802195 2.84578e-18)
(3.75586 0.118675 0)
(3.55802 0.110061 0)
(4.01332 0.0939702 1.41753e-18)
(3.70325 0.116147 0)
(3.4721 0.128884 0)
(-0.0810127 4.70031 0)
(-0.106769 4.66853 1.06673e-20)
(-0.0770968 4.72031 6.29995e-20)
(-0.0605973 3.83154 0)
(-0.112248 4.53591 1.11252e-19)
(-0.0679634 4.24038 -6.33621e-20)
(-0.0540141 3.92887 0)
(1.41052 4.18585 0)
(1.20961 4.58035 -1.29814e-18)
(1.22496 4.48831 0)
(1.57419 4.48701 1.48458e-18)
(1.59334 4.12082 0)
(1.50177 4.3713 -6.06619e-19)
(1.0115 2.24268 -3.39494e-20)
(0.709193 1.64546 -1.74474e-18)
(0.590694 1.22753 2.12873e-18)
(0.708781 1.83507 3.96829e-19)
(0.975109 2.42426 0)
(1.03648 2.37933 0)
(0.718411 1.6874 0)
(0.532358 1.33018 -1.39529e-18)
(1.20901 3.77503 -9.8351e-19)
(1.12893 2.98907 -2.3551e-19)
(1.32708 3.4051 1.92607e-19)
(0.599341 2.04104 0)
(0.620272 1.94275 0)
(0.462277 1.57125 -3.9274e-19)
(0.957767 2.72062 0)
(2.68727 3.57096 0)
(2.38134 3.00856 -1.45464e-18)
(2.54597 3.02692 -8.58794e-20)
(2.41985 3.40434 0)
(2.28575 3.14939 2.22122e-18)
(3.27807 3.08676 -3.89725e-19)
(3.13409 3.32492 0)
(3.11648 3.15128 6.30491e-19)
(2.87051 3.41265 0)
(2.88204 3.20075 0)
(1.20926 2.00629 -9.30471e-19)
(1.41406 2.40329 -6.99561e-19)
(1.75362 2.98175 1.20605e-18)
(1.69581 2.95976 -3.62264e-19)
(1.06242 1.82221 0)
(1.20686 2.20847 4.71134e-19)
(0.718431 1.28869 -7.15243e-19)
(0.58163 1.04347 -5.61797e-22)
(1.9374 3.69571 0)
(2.19921 3.74295 -5.42634e-19)
(2.33839 3.98625 0)
(2.28412 0.52902 0)
(1.61737 0.341913 0)
(1.20904 0.276591 0)
(2.20917 0.55427 -1.46529e-18)
(1.63531 0.402202 8.17264e-19)
(2.14563 0.129123 -9.85189e-19)
(2.62662 0.29753 0)
(2.46569 0.301648 4.13497e-19)
(1.76989 0.135719 1.63303e-18)
(1.53027 0.0812684 -1.03706e-18)
(0.745555 1.55591 8.58077e-19)
(0.9598 1.82039 0)
(0.537659 1.44003 1.56093e-18)
(0.523859 1.61482 -1.42528e-18)
(0.757194 1.81448 -9.88379e-19)
(2.07344 2.46265 1.33774e-18)
(2.0968 2.71205 0)
(1.58351 1.67811 -2.76354e-19)
(2.00973 1.98945 1.74512e-18)
(1.35988 1.2926 -4.23591e-19)
(1.58868 1.31345 4.507e-19)
(2.10963 1.51324 1.0232e-18)
(2.44277 1.67098 0)
(2.27607 1.85611 0)
(2.00996 1.60604 0)
(3.95682 2.07984 3.84524e-19)
(3.75985 1.88976 -1.26359e-18)
(3.81726 2.02807 1.0468e-18)
(3.90109 1.77146 -1.00835e-18)
(4.15788 1.67387 0)
(4.11695 1.84107 -2.97848e-19)
(2.84051 1.16334 -1.89735e-18)
(2.97087 1.16345 -2.41307e-18)
(2.33202 1.04358 1.45647e-18)
(2.1383 0.934449 -1.41987e-18)
(2.46353 0.846183 -1.17814e-18)
(2.1786 0.776959 1.44887e-18)
(4.00845 0.0334761 -1.52893e-18)
(4.05276 0.04069 3.13028e-18)
(3.76797 -0.0658805 1.90095e-18)
(3.79119 -0.0737713 -2.28683e-18)
(3.95955 0.0105743 0)
(4.05604 0.0228788 -3.7299e-18)
(0.0970022 4.76172 1.06563e-19)
(0.0678344 4.73203 0)
(0.18992 4.73168 9.5353e-19)
(0.21147 4.74929 -8.67488e-19)
(0.231375 4.71862 4.28465e-19)
(0.122384 4.6585 0)
(-0.100836 4.77155 0)
(-0.106672 4.40368 -6.18458e-20)
(-0.105662 4.33251 5.54338e-20)
(-0.114421 4.48197 7.17598e-21)
(-0.105091 4.72194 -1.01151e-19)
(-0.0820981 4.70958 5.50901e-20)
(1.87566 4.00971 -1.64332e-18)
(1.81662 4.01627 1.74027e-18)
(1.68421 4.40645 -8.54299e-19)
(1.69305 4.27744 7.61292e-20)
(2.25278 4.08638 0)
(1.85464 4.21982 -6.35583e-19)
(1.98184 3.95963 6.16423e-19)
(1.82405 4.3808 8.34491e-19)
(2.07678 4.2193 0)
(2.22825 4.10025 0)
(1.13855 3.63111 1.4951e-18)
(0.82675 2.81161 2.02341e-18)
(0.954477 2.98995 -1.38967e-18)
(0.746691 2.97169 -2.31912e-19)
(0.902659 3.73082 4.66335e-19)
(0.722317 3.36338 -1.13409e-18)
(0.745745 1.4657 -1.21481e-18)
(0.746207 1.31689 0)
(0.602542 1.11447 -1.33525e-18)
(1.11091 2.06395 0)
(1.08788 2.15089 0)
(1.35853 2.19077 -1.0906e-18)
(1.06442 2.01413 -1.03601e-18)
(1.01678 2.03501 1.09869e-18)
(1.03106 1.51913 0)
(1.41029 1.76172 -6.01227e-19)
(1.62721 2.11893 -8.55446e-19)
(1.41074 2.08253 0)
(0.867763 1.81836 7.12458e-19)
(0.779673 1.67943 0)
(2.90601 2.28884 -1.84712e-18)
(3.31887 2.47054 2.60938e-18)
(3.27757 2.19305 -2.59346e-18)
(2.61027 2.02082 -2.31185e-19)
(2.72486 1.94028 -9.74182e-19)
(1.26181 2.18967 7.96169e-19)
(1.31595 2.24451 -1.35992e-18)
(1.45399 2.32945 1.79279e-18)
(1.79021 2.55944 -1.16523e-18)
(1.88882 2.93219 -1.56723e-18)
(1.56305 2.48854 -1.18803e-19)
(1.6328 2.62808 1.37127e-18)
(1.8099 2.69293 9.66174e-20)
(2.01781 2.99865 6.50004e-19)
)
;

boundaryField
{
    wall-4
    {
        type            noSlip;
    }
    velocity-inlet-5
    {
        type            fixedValue;
        value           uniform (3 0 0);
    }
    velocity-inlet-6
    {
        type            fixedValue;
        value           uniform (0 1 0);
    }
    pressure-outlet-7
    {
        type            zeroGradient;
    }
    wall-8
    {
        type            noSlip;
    }
    frontAndBackPlanes
    {
        type            empty;
    }
}


// ************************************************************************* //
