/*--------------------------------*- C++ -*----------------------------------*\
  =========                 |
  \\      /  F ield         | OpenFOAM: The Open Source CFD Toolbox
   \\    /   O peration     | Website:  https://openfoam.org
    \\  /    A nd           | Version:  9
     \\/     M anipulation  |
\*---------------------------------------------------------------------------*/
FoamFile
{
    format      ascii;
    class       volVectorField;
    location    "7.67";
    object      U;
}
// * * * * * * * * * * * * * * * * * * * * * * * * * * * * * * * * * * * * * //

dimensions      [0 1 -1 0 0 0 0];

internalField   nonuniform List<vector> 
2268
(
(-0.00106142 0.000489934 0)
(-0.00291093 0.000475692 0)
(-0.00468018 0.000458467 0)
(-0.00639412 0.000424985 0)
(-0.00792524 0.000373631 0)
(-0.00923443 0.000306284 0)
(-0.0102729 0.000227202 0)
(-0.0110143 0.000142486 0)
(-0.0114599 6.02853e-05 0)
(-0.0116132 -2.38793e-05 0)
(-0.0114397 -0.000131948 0)
(-0.0108427 -0.0002876 0)
(-0.00963658 -0.000505735 0)
(-0.00764374 -0.000766228 0)
(-0.00487316 -0.000966929 0)
(-0.00177655 -0.000894959 0)
(0.000500101 -0.000226934 0)
(-0.000423952 0.000831458 0)
(-0.00433001 0.00193718 0)
(-0.0115412 0.00253452 0)
(-0.0169456 0.000397953 0)
(-0.014418 -0.00217495 0)
(-0.0058613 -0.00279707 0)
(-0.00105849 0.00139068 0)
(-0.00293336 0.00134512 0)
(-0.0047091 0.00129073 0)
(-0.00643586 0.00118217 0)
(-0.00797465 0.00103547 0)
(-0.00929581 0.000856837 0)
(-0.0103647 0.000653896 0)
(-0.0111625 0.000441305 0)
(-0.0116875 0.000231342 0)
(-0.0119424 1.30417e-05 0)
(-0.0119017 -0.000252648 0)
(-0.0114833 -0.000616057 0)
(-0.0105654 -0.00110108 0)
(-0.00904608 -0.00164379 0)
(-0.00696737 -0.00203031 0)
(-0.00467546 -0.0018177 0)
(-0.00300788 -0.000438845 0)
(-0.00359149 0.00168219 0)
(-0.00594902 0.00340581 0)
(-0.00904571 0.00410633 0)
(-0.0112618 0.000985896 0)
(-0.0111006 -0.00350099 0)
(-0.00612522 -0.00708329 0)
(-0.00103916 0.00229589 0)
(-0.00294183 0.00219045 0)
(-0.00471167 0.00209966 0)
(-0.00643648 0.00192766 0)
(-0.00798577 0.00169392 0)
(-0.00933508 0.00141208 0)
(-0.0104544 0.00109513 0)
(-0.0113241 0.000763682 0)
(-0.0119391 0.000433983 0)
(-0.0122989 8.84648e-05 0)
(-0.0123835 -0.000323313 0)
(-0.0121362 -0.00087167 0)
(-0.0114686 -0.00158373 0)
(-0.0103108 -0.00236429 0)
(-0.00868996 -0.00291766 0)
(-0.00681858 -0.00263109 0)
(-0.00530808 -0.000698601 0)
(-0.00548748 0.00221803 0)
(-0.00668971 0.0040893 0)
(-0.0073418 0.00458655 0)
(-0.00797252 0.00137119 0)
(-0.0084845 -0.00415257 0)
(-0.00488612 -0.0107798 0)
(-0.00103214 0.00322183 0)
(-0.00296029 0.00307173 0)
(-0.00475352 0.00293283 0)
(-0.00649572 0.00269691 0)
(-0.00807352 0.00238048 0)
(-0.00946749 0.00200189 0)
(-0.0106498 0.00157716 0)
(-0.0115982 0.00113153 0)
(-0.0123045 0.000686069 0)
(-0.0127698 0.000221304 0)
(-0.0129833 -0.000325437 0)
(-0.0129072 -0.00103668 0)
(-0.0124756 -0.00194455 0)
(-0.0116325 -0.00293339 0)
(-0.0103761 -0.00365771 0)
(-0.00877984 -0.00339335 0)
(-0.00721085 -0.00108515 0)
(-0.006876 0.00243412 0)
(-0.00721046 0.00422741 0)
(-0.00656516 0.00445165 0)
(-0.00614195 0.0015328 0)
(-0.00632514 -0.00468047 0)
(-0.00316557 -0.0135625 0)
(-0.00102938 0.00414789 0)
(-0.00298386 0.0039746 0)
(-0.00482243 0.00378614 0)
(-0.006602 0.00348789 0)
(-0.00822699 0.00309394 0)
(-0.00968262 0.00262533 0)
(-0.0109421 0.00209886 0)
(-0.0119789 0.00154342 0)
(-0.0127823 0.000986639 0)
(-0.0133562 0.000409768 0)
(-0.0137005 -0.000257597 0)
(-0.0137946 -0.00110967 0)
(-0.0135888 -0.00218528 0)
(-0.0130345 -0.00335815 0)
(-0.0121062 -0.00426319 0)
(-0.0107627 -0.0041286 0)
(-0.00905156 -0.00167116 0)
(-0.00811289 0.0023677 0)
(-0.00770896 0.00396241 0)
(-0.00632498 0.00390688 0)
(-0.00519963 0.00137171 0)
(-0.00449098 -0.00540978 0)
(-0.00108842 -0.0153298 0)
(-0.00102595 0.00508074 0)
(-0.00301902 0.0048945 0)
(-0.00491828 0.00465802 0)
(-0.00675126 0.00430021 0)
(-0.00843931 0.00383466 0)
(-0.00997105 0.0032832 0)
(-0.01132 0.00266091 0)
(-0.012454 0.00199947 0)
(-0.0133586 0.00133537 0)
(-0.0140412 0.000653753 0)
(-0.0145125 -0.000120019 0)
(-0.0147683 -0.00109147 0)
(-0.0147721 -0.00230847 0)
(-0.0144836 -0.00364092 0)
(-0.0138696 -0.00472655 0)
(-0.0128341 -0.00480356 0)
(-0.0110919 -0.00247889 0)
(-0.00943501 0.00196966 0)
(-0.00823405 0.00341177 0)
(-0.0064363 0.0031032 0)
(-0.00468297 0.000832214 0)
(-0.00268208 -0.00667864 0)
(0.00126314 -0.0162075 0)
(-0.00102482 0.0060426 0)
(-0.00307051 0.00583344 0)
(-0.0050409 0.00555501 0)
(-0.00693747 0.00514184 0)
(-0.00870018 0.00461044 0)
(-0.0103182 0.00398251 0)
(-0.0117652 0.00326888 0)
(-0.0130024 0.00250302 0)
(-0.0140099 0.00173309 0)
(-0.0147967 0.00095154 0)
(-0.0153842 8.27079e-05 0)
(-0.0157835 -0.000989491 0)
(-0.0159708 -0.00232477 0)
(-0.015917 -0.00379118 0)
(-0.0155975 -0.00504052 0)
(-0.0149296 -0.00535225 0)
(-0.0134493 -0.00339671 0)
(-0.0111619 0.00110755 0)
(-0.00893025 0.0025963 0)
(-0.00668262 0.00210041 0)
(-0.00403925 -0.000294119 0)
(-0.000647725 -0.00838889 0)
(0.00282526 -0.0162692 0)
(-0.00106831 0.00681181 0)
(-0.00316204 0.006823 0)
(-0.00518085 0.0065076 0)
(-0.00714616 0.00603931 0)
(-0.00899145 0.00544471 0)
(-0.010701 0.00474407 0)
(-0.0122498 0.00394052 0)
(-0.013593 0.00306766 0)
(-0.0147021 0.00218867 0)
(-0.0155848 0.00130609 0)
(-0.0162703 0.000347299 0)
(-0.0167841 -0.000811486 0)
(-0.0171157 -0.00224704 0)
(-0.0172504 -0.00382194 0)
(-0.0171749 -0.00521014 0)
(-0.0168229 -0.00574276 0)
(-0.0157492 -0.00425057 0)
(-0.0132028 -0.000253105 0)
(-0.00999091 0.00139143 0)
(-0.00693997 0.000814821 0)
(-0.00325663 -0.00206014 0)
(0.000749656 -0.00976609 0)
(0.00156415 -0.0153587 0)
(-0.0141049 0.00295022 0)
(-0.00682555 -0.00297533 0)
(0.00507558 -0.00322187 0)
(0.0137921 -0.00216216 0)
(0.0199353 -0.00161518 0)
(0.0243231 -0.000967139 0)
(0.0272109 -0.000725786 0)
(0.029944 -0.0008784 0)
(0.03297 -0.000787291 0)
(0.0337891 0.000360458 0)
(0.0290294 0.00194239 0)
(0.0197774 0.00310955 0)
(0.0072919 0.00370208 0)
(-0.00417563 0.00175908 0)
(-0.0075046 -8.50512e-05 0)
(-0.00531397 -0.00122419 0)
(-0.00285723 -0.000845335 0)
(-0.00127253 -0.00136314 0)
(0.00516886 0.000842829 0)
(-0.00939198 0.00618845 0)
(0.000356191 -0.00622904 0)
(0.00727822 -0.00632685 0)
(0.0134537 -0.00447705 0)
(0.0177012 -0.00322303 0)
(0.0208469 -0.0022056 0)
(0.0233665 -0.00179755 0)
(0.0256701 -0.00181843 0)
(0.0274795 -0.00106754 0)
(0.027007 0.00150581 0)
(0.0230404 0.00433211 0)
(0.0168532 0.00635408 0)
(0.00981346 0.0071774 0)
(0.00206852 0.00456701 0)
(-0.00279761 0.00106548 0)
(-0.00342273 -0.00128139 0)
(-0.00409576 -0.000876145 0)
(-0.00516073 -0.00220748 0)
(0.000116013 0.000735575 0)
(-0.00120835 0.00666516 0)
(0.00547498 -0.00886055 0)
(0.00928557 -0.00851886 0)
(0.013306 -0.00618835 0)
(0.0163362 -0.0044725 0)
(0.0186964 -0.00322175 0)
(0.0206265 -0.00269001 0)
(0.022317 -0.0025289 0)
(0.0234742 -0.00116353 0)
(0.0223708 0.0026074 0)
(0.0184863 0.00614064 0)
(0.0140519 0.00837506 0)
(0.0103808 0.00924781 0)
(0.00535951 0.00692936 0)
(0.000356952 0.00255759 0)
(-0.00132057 -0.000662133 0)
(-0.00402976 8.9342e-05 0)
(-0.0075588 -0.00250301 0)
(-0.00474487 -0.00134007 0)
(0.00576975 0.00437284 0)
(0.00925787 -0.0101975 0)
(0.0107324 -0.00977896 0)
(0.0131142 -0.0073556 0)
(0.0152111 -0.0054198 0)
(0.0169219 -0.00398804 0)
(0.0182742 -0.0033356 0)
(0.0194076 -0.00302307 0)
(0.0201956 -0.00113347 0)
(0.0191256 0.00371713 0)
(0.015792 0.00767702 0)
(0.0125219 0.00975285 0)
(0.0104459 0.0105543 0)
(0.00691984 0.00880663 0)
(0.00269227 0.00402771 0)
(0.00100062 0.000381255 0)
(-0.00281192 0.00194801 0)
(-0.00806138 -0.00203429 0)
(-0.00690478 -0.00458434 0)
(0.0094133 0.000111385 0)
(0.0112505 -0.0107668 0)
(0.0114005 -0.0103326 0)
(0.012731 -0.00809339 0)
(0.0141405 -0.00609155 0)
(0.0153037 -0.00451875 0)
(0.0161167 -0.00375785 0)
(0.01674 -0.00334979 0)
(0.0172909 -0.00110645 0)
(0.0165836 0.0046326 0)
(0.0140094 0.00888554 0)
(0.0116627 0.0106904 0)
(0.0105088 0.0114265 0)
(0.00775493 0.0103434 0)
(0.00459599 0.0051513 0)
(0.00358436 0.00145088 0)
(-0.000259213 0.00416323 0)
(-0.00595042 -0.00114756 0)
(-0.00585842 -0.00771633 0)
(0.00923941 -0.00457283 0)
(0.0114001 -0.0111263 0)
(0.0113174 -0.0105417 0)
(0.0121148 -0.00854501 0)
(0.0130599 -0.00653943 0)
(0.0137842 -0.00483109 0)
(0.0141117 -0.00395963 0)
(0.0142393 -0.00352189 0)
(0.0145742 -0.00115781 0)
(0.0144243 0.00525628 0)
(0.0127582 0.00977683 0)
(0.0111872 0.0112821 0)
(0.0106663 0.0119957 0)
(0.00856187 0.0116091 0)
(0.00650404 0.00576622 0)
(0.00622473 0.00221456 0)
(0.00333637 0.0061909 0)
(-0.00166945 0.000131922 0)
(-0.00304753 -0.00961586 0)
(0.00717436 -0.00892182 0)
(0.0105373 -0.0117408 0)
(0.0107432 -0.0107036 0)
(0.0113041 -0.00884201 0)
(0.0119432 -0.00682907 0)
(0.0123386 -0.00496132 0)
(0.0122609 -0.00395144 0)
(0.0118882 -0.00351893 0)
(0.0118687 -0.00128427 0)
(0.0124051 0.00544819 0)
(0.0119096 0.0103667 0)
(0.0110289 0.0116049 0)
(0.0108064 0.012359 0)
(0.00968095 0.0124367 0)
(0.00902829 0.00595284 0)
(0.00876601 0.00273287 0)
(0.00678923 0.00762369 0)
(0.00317404 0.00162527 0)
(0.0004297 -0.00990987 0)
(0.00657823 -0.0130842 0)
(0.00959245 -0.0124439 0)
(0.00998092 -0.0108682 0)
(0.0103555 -0.00903933 0)
(0.0107614 -0.00700598 0)
(0.0109361 -0.00496245 0)
(0.0105888 -0.00376241 0)
(0.00976569 -0.00328636 0)
(0.00917966 -0.00135003 0)
(0.010218 0.00506166 0)
(0.0111834 0.0105118 0)
(0.0111893 0.0116444 0)
(0.0112424 0.0125121 0)
(0.0115054 0.0124658 0)
(0.0122482 0.00597258 0)
(0.0112213 0.00339845 0)
(0.00970023 0.00831378 0)
(0.00775523 0.00315833 0)
(0.00413581 -0.00840679 0)
(-0.00104699 0.0093329 0)
(-0.0032076 0.00874612 0)
(-0.00535878 0.00821505 0)
(-0.00746171 0.00761544 0)
(-0.00944869 0.00690735 0)
(-0.0113009 0.00608867 0)
(-0.0130055 0.00513899 0)
(-0.0145139 0.00408543 0)
(-0.0157787 0.0030217 0)
(-0.0167947 0.00196638 0)
(-0.0175945 0.000861435 0)
(-0.0182217 -0.000420207 0)
(-0.0186927 -0.00199713 0)
(-0.0190233 -0.00370296 0)
(-0.019211 -0.00527616 0)
(-0.0191375 -0.00615635 0)
(-0.0183214 -0.00545083 0)
(-0.0157526 -0.00294216 0)
(-0.0117074 -0.00148624 0)
(-0.00734087 -0.00217846 0)
(-0.00296071 -0.00530539 0)
(0.000337273 -0.0106293 0)
(-0.00301274 -0.0127441 0)
(-0.00114389 0.00922881 0)
(-0.00330066 0.00995329 0)
(-0.00555863 0.00977326 0)
(-0.0078123 0.0092595 0)
(-0.00993603 0.00850878 0)
(-0.0119017 0.00761768 0)
(-0.0137465 0.00659416 0)
(-0.0154528 0.00538295 0)
(-0.0169293 0.00411458 0)
(-0.0180843 0.00284223 0)
(-0.0188937 0.00154082 0)
(-0.0193995 0.000112007 0)
(-0.01971 -0.00157643 0)
(-0.0199644 -0.00333591 0)
(-0.0202208 -0.00503581 0)
(-0.0203089 -0.00633241 0)
(-0.0196093 -0.00672539 0)
(-0.0171789 -0.00632071 0)
(-0.0129057 -0.0060968 0)
(-0.00781852 -0.00691214 0)
(-0.00326594 -0.00882601 0)
(-0.000352748 -0.0109259 0)
(-0.00064778 -0.0118109 0)
(-0.00233212 0.0128742 0)
(-0.00473227 0.0123506 0)
(-0.00703707 0.011918 0)
(-0.00896543 0.0112339 0)
(-0.0109981 0.0101377 0)
(-0.0131824 0.00908374 0)
(-0.0149267 0.00809429 0)
(-0.016304 0.00676971 0)
(-0.0177053 0.00518469 0)
(-0.0188743 0.00359141 0)
(-0.0195144 0.00201435 0)
(-0.0196059 0.000362683 0)
(-0.0195025 -0.00142002 0)
(-0.0195668 -0.00319435 0)
(-0.0198865 -0.00491848 0)
(-0.0202902 -0.00649682 0)
(-0.0198755 -0.00774134 0)
(-0.0174627 -0.00874636 0)
(-0.0129989 -0.00960803 0)
(-0.00758338 -0.0104643 0)
(-0.00277382 -0.0113604 0)
(0.000234523 -0.0122136 0)
(0.000777672 -0.0128471 0)
(-0.0107856 0.0156647 0)
(-0.00920049 0.013265 0)
(-0.0121243 0.0127125 0)
(-0.0105415 0.0116703 0)
(-0.0114674 0.011107 0)
(-0.0161118 0.0102599 0)
(-0.0172423 0.0084276 0)
(-0.0154679 0.00745177 0)
(-0.0159459 0.00595584 0)
(-0.0171306 0.00410071 0)
(-0.0175319 0.00219821 0)
(-0.0169322 0.00016434 0)
(-0.0164729 -0.00128345 0)
(-0.0167343 -0.00310457 0)
(-0.0170951 -0.00476491 0)
(-0.0172938 -0.00641347 0)
(-0.0165718 -0.00823364 0)
(-0.0141788 -0.0100982 0)
(-0.0108799 -0.0114724 0)
(-0.0068821 -0.0124813 0)
(-0.00240275 -0.0127648 0)
(0.00104073 -0.012971 0)
(0.00194726 -0.0131334 0)
(-0.00726764 0.0325917 0)
(-0.0182347 0.0287933 0)
(-0.0190744 0.0149182 0)
(-0.0176458 0.0119407 0)
(-0.0239211 0.0218822 0)
(-0.0313291 0.022909 0)
(-0.0303889 0.00626862 0)
(-0.0259244 0.00690687 0)
(-0.0216654 0.00929073 0)
(-0.0186244 0.00612495 0)
(-0.0159538 0.00200656 0)
(-0.0130487 -0.00197119 0)
(-0.00903463 -0.00215267 0)
(-0.00482499 -0.00293086 0)
(-0.00092472 -0.00427412 0)
(0.00287595 -0.00787701 0)
(0.00518409 -0.0144002 0)
(0.00563496 -0.022188 0)
(0.00315589 -0.0241639 0)
(-0.00208378 -0.0284822 0)
(-0.00307996 -0.0278547 0)
(-0.00170656 -0.0212386 0)
(-0.00230052 -0.0173116 0)
(0.00325695 0.033795 0)
(0.0117126 0.0264534 0)
(0.0169078 0.00857514 0)
(0.00525862 0.0173447 0)
(-0.00639265 0.0252878 0)
(-0.00357302 0.0209356 0)
(-0.00532856 0.0016103 0)
(-0.0129103 -0.000667832 0)
(-0.0130329 0.00222686 0)
(-0.0116174 -0.000148154 0)
(-0.0111049 -0.00213929 0)
(-0.0120303 -0.00461778 0)
(-0.0132145 -0.00741025 0)
(-0.0118454 -0.00817011 0)
(-0.00685476 -0.0110922 0)
(-0.00218937 -0.0112331 0)
(-0.00245202 -0.0102515 0)
(-0.00585387 -0.0111026 0)
(-0.00781116 -0.00720804 0)
(-0.0101733 -0.0102277 0)
(-0.0143848 -0.0164738 0)
(-0.0171394 -0.014963 0)
(-0.0162792 -0.0130118 0)
(0.00391475 0.0220494 0)
(0.00744996 0.0182842 0)
(0.00532689 0.0131577 0)
(0.0017505 0.0298037 0)
(0.00175582 0.0283118 0)
(0.00304124 0.0197937 0)
(0.00089144 0.0127456 0)
(-0.0029531 0.00749702 0)
(-0.004827 0.00397102 0)
(-0.00592735 0.00171485 0)
(-0.00751633 0.000368571 0)
(-0.00974562 -0.00180753 0)
(-0.0116176 -0.00554507 0)
(-0.0102912 -0.0120805 0)
(-0.00663326 -0.0168906 0)
(-0.00360772 -0.0140932 0)
(-0.0022848 -0.00916145 0)
(-0.00390541 -0.00966907 0)
(-0.00674876 -0.0102884 0)
(-0.0101723 -0.00977755 0)
(-0.0160807 -0.0126893 0)
(-0.0200143 -0.0148031 0)
(-0.0203183 -0.0157899 0)
(0.000385964 0.021649 0)
(0.00228907 0.019392 0)
(-0.00119413 0.0174593 0)
(-0.00186606 0.0273216 0)
(0.00171198 0.0257384 0)
(0.00334416 0.0194783 0)
(0.00292724 0.0135027 0)
(0.00105969 0.00897384 0)
(-0.000685312 0.00584554 0)
(-0.00209665 0.00349104 0)
(-0.00339689 0.00207258 0)
(-0.00455895 0.000158332 0)
(-0.00504283 -0.00471868 0)
(-0.00496867 -0.0131354 0)
(-0.00577725 -0.0172109 0)
(-0.00685838 -0.0146688 0)
(-0.00659067 -0.00981699 0)
(-0.00657676 -0.00788567 0)
(-0.00814429 -0.00682534 0)
(-0.0104443 -0.00565758 0)
(-0.0132766 -0.00754493 0)
(-0.0168284 -0.0120923 0)
(-0.0206679 -0.0138838 0)
(-0.000201361 0.0208042 0)
(-0.000377283 0.020144 0)
(-0.00262634 0.019574 0)
(-0.0022186 0.0242123 0)
(0.000933058 0.0228775 0)
(0.0025666 0.018554 0)
(0.00281522 0.01392 0)
(0.00200086 0.0101818 0)
(0.000905749 0.00718249 0)
(-4.02178e-05 0.00458757 0)
(-0.000681468 0.00278011 0)
(-0.000885972 0.000440409 0)
(-0.000979546 -0.00457106 0)
(-0.00260954 -0.0114926 0)
(-0.00603952 -0.014473 0)
(-0.0089683 -0.0131851 0)
(-0.00999583 -0.0100943 0)
(-0.0102428 -0.00734221 0)
(-0.0111193 -0.00506905 0)
(-0.012326 -0.00394935 0)
(-0.0139202 -0.0053308 0)
(-0.0166258 -0.00832064 0)
(-0.0200452 -0.0103187 0)
(-0.000155895 0.0216571 0)
(-0.000866787 0.021029 0)
(-0.00203538 0.0206244 0)
(-0.00146472 0.0222432 0)
(0.000621707 0.0208867 0)
(0.00187222 0.0176471 0)
(0.00218498 0.0140284 0)
(0.0018327 0.0108659 0)
(0.00125368 0.00792224 0)
(0.000676896 0.00519361 0)
(0.000192452 0.00309823 0)
(-0.00010849 0.00061325 0)
(-0.000801135 -0.00357535 0)
(-0.0030076 -0.00838111 0)
(-0.00642247 -0.0108447 0)
(-0.0094313 -0.0107727 0)
(-0.0112581 -0.00915867 0)
(-0.0122438 -0.00668601 0)
(-0.0129005 -0.00420534 0)
(-0.013504 -0.00307036 0)
(-0.0144973 -0.00372925 0)
(-0.016355 -0.00558642 0)
(-0.0188405 -0.00747617 0)
(-5.84563e-05 0.0221084 0)
(-0.000490921 0.0215956 0)
(-0.00103066 0.0210099 0)
(-0.00059264 0.0210632 0)
(0.000612017 0.019609 0)
(0.00140741 0.0170091 0)
(0.00162808 0.0140238 0)
(0.00147649 0.0111801 0)
(0.00115614 0.00834168 0)
(0.000667723 0.00570642 0)
(4.11076e-05 0.00362421 0)
(-0.000638826 0.00127745 0)
(-0.00174805 -0.00201809 0)
(-0.00392516 -0.00546637 0)
(-0.00691308 -0.00764603 0)
(-0.00964373 -0.0083628 0)
(-0.0114866 -0.00765012 0)
(-0.0125524 -0.00582976 0)
(-0.0131621 -0.00366926 0)
(-0.013611 -0.00247711 0)
(-0.0142457 -0.00264119 0)
(-0.0153613 -0.00383638 0)
(-0.0168608 -0.00553506 0)
(5.89932e-05 0.0221393 0)
(-3.14662e-05 0.0218113 0)
(-0.000225802 0.0210727 0)
(7.18526e-05 0.020399 0)
(0.00071821 0.0188762 0)
(0.00116005 0.0166325 0)
(0.00128905 0.0140093 0)
(0.00121948 0.0113308 0)
(0.000961087 0.0087089 0)
(0.000379548 0.00635339 0)
(-0.000426945 0.00442914 0)
(-0.00131902 0.00226174 0)
(-0.00255992 -0.000375073 0)
(-0.00449797 -0.00299811 0)
(-0.00695698 -0.00494329 0)
(-0.0093022 -0.00619032 0)
(-0.0110626 -0.00619258 0)
(-0.0121482 -0.00500321 0)
(-0.0126946 -0.00321844 0)
(-0.0130127 -0.0020491 0)
(-0.0133606 -0.00202661 0)
(-0.0138646 -0.00292852 0)
(-0.0145053 -0.00451332 0)
(0.000157571 0.0220179 0)
(0.000282326 0.0218176 0)
(0.000299267 0.0210047 0)
(0.000528889 0.020025 0)
(0.000881557 0.0184917 0)
(0.00110971 0.0164461 0)
(0.00115955 0.0140153 0)
(0.00106099 0.0114792 0)
(0.000729934 0.00915589 0)
(4.93308e-05 0.00714535 0)
(-0.000814309 0.00533475 0)
(-0.00174301 0.00333595 0)
(-0.00293425 0.00113894 0)
(-0.00454302 -0.000991121 0)
(-0.00646476 -0.00275574 0)
(-0.0084471 -0.0042181 0)
(-0.010165 -0.00474463 0)
(-0.0113334 -0.0041662 0)
(-0.0119243 -0.00283833 0)
(-0.0121533 -0.00180087 0)
(-0.0122495 -0.00180648 0)
(-0.0123352 -0.0026413 0)
(-0.0124559 -0.0041854 0)
(0.000217249 0.0217264 0)
(0.000478602 0.0216685 0)
(0.000623773 0.0208608 0)
(0.000833005 0.0197764 0)
(0.00105991 0.0182761 0)
(0.00118606 0.0163714 0)
(0.00116171 0.0140843 0)
(0.000950206 0.011738 0)
(0.000487796 0.00971019 0)
(-0.000210285 0.00795697 0)
(-0.00101375 0.00621021 0)
(-0.00189046 0.0043591 0)
(-0.00295019 0.00243692 0)
(-0.00425432 0.000590355 0)
(-0.00574639 -0.00103624 0)
(-0.00736675 -0.00244975 0)
(-0.00894714 -0.0032824 0)
(-0.0101904 -0.00321947 0)
(-0.0109225 -0.0024072 0)
(-0.0111528 -0.00170553 0)
(-0.0110978 -0.00183882 0)
(-0.010986 -0.00267776 0)
(-0.0109204 -0.00415405 0)
(0.000226101 0.0213333 0)
(0.000595425 0.0214103 0)
(0.000810559 0.0206605 0)
(0.00101702 0.0195717 0)
(0.00119295 0.0181314 0)
(0.00127205 0.0163548 0)
(0.00117469 0.0142517 0)
(0.000844231 0.0121354 0)
(0.000302664 0.010326 0)
(-0.000350317 0.00868862 0)
(-0.00105485 0.00700579 0)
(-0.00184199 0.00527354 0)
(-0.00276223 0.00352614 0)
(-0.00383862 0.00184996 0)
(-0.00504197 0.000333182 0)
(-0.00634419 -0.000973484 0)
(-0.00769101 -0.0019002 0)
(-0.00888904 -0.00218563 0)
(-0.0096671 -0.00189364 0)
(-0.00993607 -0.00164856 0)
(-0.00989338 -0.00194536 0)
(-0.00977518 -0.00279015 0)
(-0.00971918 -0.00414502 0)
(0.000236541 0.0208971 0)
(0.000652634 0.0210919 0)
(0.000889448 0.020436 0)
(0.00108317 0.0193904 0)
(0.00122347 0.0180254 0)
(0.00126282 0.0163788 0)
(0.00112052 0.014497 0)
(0.000747625 0.0126071 0)
(0.000221071 0.0109217 0)
(-0.000357147 0.0093263 0)
(-0.000976716 0.0077097 0)
(-0.00167114 0.00607419 0)
(-0.002467 0.00444912 0)
(-0.0033738 0.00289116 0)
(-0.00437697 0.00146349 0)
(-0.00545802 0.000227141 0)
(-0.00657212 -0.000708034 0)
(-0.00758209 -0.00121883 0)
(-0.00828741 -0.00136804 0)
(-0.00860682 -0.00152122 0)
(-0.00866402 -0.00198737 0)
(-0.0086392 -0.00283875 0)
(-0.0086721 -0.0040591 0)
(0.000251366 0.0204412 0)
(0.0006474 0.0207661 0)
(0.00086932 0.0202201 0)
(0.00104061 0.0192362 0)
(0.00114878 0.0179545 0)
(0.00115407 0.0164375 0)
(0.00100138 0.0147562 0)
(0.000669469 0.0130527 0)
(0.00021982 0.0114439 0)
(-0.000280331 0.00988512 0)
(-0.000824488 0.00832806 0)
(-0.00143192 0.00677143 0)
(-0.00211823 0.00523836 0)
(-0.00288788 0.00376949 0)
(-0.00373113 0.00241293 0)
(-0.00462928 0.00122079 0)
(-0.00553956 0.000261817 0)
(-0.00636414 -0.000414089 0)
(-0.00697582 -0.000868497 0)
(-0.00732159 -0.00130681 0)
(-0.0074732 -0.00191951 0)
(-0.0075556 -0.00278006 0)
(-0.00768523 -0.00388352 0)
(0.000240337 0.0200038 0)
(0.000569139 0.0204794 0)
(0.000763079 0.0200259 0)
(0.000919493 0.019106 0)
(0.00100942 0.0179078 0)
(0.00100401 0.0165097 0)
(0.000871757 0.0149825 0)
(0.000605761 0.0134162 0)
(0.000243269 0.0118795 0)
(-0.000175202 0.0103679 0)
(-0.000641428 0.00886498 0)
(-0.00116368 0.00737336 0)
(-0.00174961 0.00591189 0)
(-0.00239999 0.00451104 0)
(-0.00310577 0.00320727 0)
(-0.00384767 0.00203935 0)
(-0.00458808 0.00104717 0)
(-0.00526024 0.000247869 0)
(-0.00578695 -0.000407391 0)
(-0.00613688 -0.0010378 0)
(-0.00635302 -0.00175927 0)
(-0.00651879 -0.0026269 0)
(-0.00672153 -0.00363889 0)
(0.000183147 0.019635 0)
(0.000448325 0.0202517 0)
(0.000613692 0.0198497 0)
(0.000762428 0.0189882 0)
(0.000847156 0.017867 0)
(0.000849826 0.0165693 0)
(0.000752753 0.015158 0)
(0.000553799 0.0136961 0)
(0.000273809 0.0122301 0)
(-6.38158e-05 0.0107712 0)
(-0.000451147 0.00932005 0)
(-0.000889781 0.00788426 0)
(-0.00138182 0.00648031 0)
(-0.00192504 0.00513179 0)
(-0.0025101 0.00386597 0)
(-0.0031189 0.00271002 0)
(-0.00372094 0.00168634 0)
(-0.00427133 0.00079842 0)
(-0.0047242 1.17575e-05 0)
(-0.00506232 -0.000744511 0)
(-0.00531227 -0.00153994 0)
(-0.00552888 -0.00241075 0)
(-0.00577361 -0.00335489 0)
(0.000103239 0.0193627 0)
(0.000327775 0.0200696 0)
(0.000468953 0.0196898 0)
(0.000606694 0.0188761 0)
(0.000691907 0.01782 0)
(0.000711538 0.0166031 0)
(0.000653656 0.0152811 0)
(0.000516311 0.0139021 0)
(0.000310135 0.0125014 0)
(4.82359e-05 0.0110959 0)
(-0.000262868 0.00969463 0)
(-0.000621466 0.00830836 0)
(-0.0010262 0.00695215 0)
(-0.00147281 0.00564484 0)
(-0.00195192 0.00440686 0)
(-0.0024477 0.00325707 0)
(-0.00293665 0.00220832 0)
(-0.00338882 0.00125951 0)
(-0.00377687 0.000387519 0)
(-0.00409165 -0.000449561 0)
(-0.00435014 -0.00129266 0)
(-0.00458796 -0.00216359 0)
(-0.00484646 -0.00305931 0)
(-8.77037e-06 0.0191963 0)
(0.000220488 0.0199057 0)
(0.00034382 0.0195469 0)
(0.000469614 0.0187684 0)
(0.000558797 0.0177619 0)
(0.000599096 0.0166074 0)
(0.0005797 0.015355 0)
(0.000497052 0.0140434 0)
(0.000355484 0.0127015 0)
(0.000162036 0.0113472 0)
(-7.84097e-05 0.00999314 0)
(-0.000362803 0.00865148 0)
(-0.000687867 0.00733609 0)
(-0.00104828 0.00606243 0)
(-0.00143512 0.00484616 0)
(-0.0018351 0.00370076 0)
(-0.00223058 0.00263429 0)
(-0.00260148 0.0016451 0)
(-0.00293118 0.000718666 0)
(-0.00321478 -0.000169285 0)
(-0.0034632 -0.00104209 0)
(-0.00369924 -0.00191164 0)
(-0.00394969 -0.00277419 0)
(-7.85633e-05 0.0191267 0)
(0.000126593 0.0197523 0)
(0.000231296 0.0194182 0)
(0.000353898 0.0186614 0)
(0.000452759 0.0176892 0)
(0.000516548 0.0165817 0)
(0.000533844 0.0153841 0)
(0.000499371 0.0141285 0)
(0.00041377 0.0128389 0)
(0.000280563 0.0115324 0)
(0.000103411 0.0102223 0)
(-0.000114241 0.00892112 0)
(-0.000368311 0.00764146 0)
(-0.000653071 0.00639636 0)
(-0.000960348 0.00519832 0)
(-0.00127924 0.00405759 0)
(-0.00159656 0.00298009 0)
(-0.0018986 0.0019652 0)
(-0.00217486 0.00100468 0)
(-0.00242252 8.5154e-05 0)
(-0.00264837 -0.000805865 0)
(-0.00286662 -0.00167395 0)
(-0.00309396 -0.00251505 0)
(-9.46856e-05 0.0191241 0)
(4.50897e-05 0.019632 0)
(0.000125205 0.0192972 0)
(0.000260644 0.018547 0)
(0.000376449 0.0175968 0)
(0.00046641 0.0165253 0)
(0.000518359 0.0153724 0)
(0.000526039 0.0141646 0)
(0.000488289 0.0129219 0)
(0.000406851 0.0116595 0)
(0.000284619 0.0103903 0)
(0.000125134 0.00912593 0)
(-6.72606e-05 0.00787808 0)
(-0.000286885 0.00665804 0)
(-0.0005264 0.00547624 0)
(-0.000776894 0.00434115 0)
(-0.00102839 0.00325797 0)
(-0.00127124 0.00222751 0)
(-0.00149842 0.00124604 0)
(-0.00170793 0.000307018 0)
(-0.00190373 -0.000595382 0)
(-0.00209426 -0.00146288 0)
(-0.0022894 -0.00229149 0)
(-0.000102229 0.0191619 0)
(-2.42184e-05 0.0195583 0)
(3.64024e-05 0.019178 0)
(0.000197685 0.0184163 0)
(0.000335275 0.01748 0)
(0.000452303 0.0164382 0)
(0.00053582 0.0153241 0)
(0.000579452 0.014159 0)
(0.000581542 0.012959 0)
(0.000543189 0.0117374 0)
(0.000466985 0.0105058 0)
(0.000356486 0.00927518 0)
(0.000216126 0.008056 0)
(5.13398e-05 0.00685839 0)
(-0.00013137 0.00569153 0)
(-0.000324625 0.00456299 0)
(-0.000520695 0.00347794 0)
(-0.000712492 0.0024386 0)
(-0.000894951 0.00144441 0)
(-0.00106633 0.000493158 0)
(-0.00122858 -0.000416937 0)
(-0.00138633 -0.00128532 0)
(-0.0015449 -0.00210829 0)
(-0.000140063 0.0192371 0)
(-7.8152e-05 0.019517 0)
(-9.67562e-06 0.0190461 0)
(0.000175014 0.0182621 0)
(0.000336672 0.0173371 0)
(0.000478712 0.0163228 0)
(0.000588873 0.0152446 0)
(0.00066147 0.0141188 0)
(0.000695112 0.0129585 0)
(0.000690929 0.0117749 0)
(0.000651562 0.0105782 0)
(0.000580655 0.00937844 0)
(0.000482642 0.00818523 0)
(0.000362682 0.00700786 0)
(0.000226573 0.00585479 0)
(8.05328e-05 0.00473325 0)
(-6.92691e-05 0.00364869 0)
(-0.000217359 0.00260457 0)
(-0.000359791 0.00160253 0)
(-0.000494842 0.000643133 0)
(-0.000623068 -0.000272962 0)
(-0.00074661 -0.00114393 0)
(-0.000867862 -0.00196645 0)
(-0.000185348 0.0193494 0)
(-9.21631e-05 0.0194726 0)
(5.25406e-06 0.0188905 0)
(0.000206254 0.0180848 0)
(0.000387729 0.0171715 0)
(0.000549148 0.0161842 0)
(0.000679198 0.0151405 0)
(0.00077292 0.0140523 0)
(0.00082947 0.0129295 0)
(0.000850372 0.0117813 0)
(0.00083855 0.0106169 0)
(0.000797823 0.00944532 0)
(0.000732632 0.00827555 0)
(0.000647889 0.00711632 0)
(0.000548833 0.00597578 0)
(0.000440811 0.00486109 0)
(0.000328927 0.00377816 0)
(0.000217607 0.00273145 0)
(0.000110113 0.00172416 0)
(8.21681e-06 0.000758626 0)
(-8.77353e-05 -0.000163016 0)
(-0.000178309 -0.00103828 0)
(-0.000264085 -0.00186426 0)
(-0.000170539 0.0194621 0)
(-4.05824e-05 0.0193925 0)
(8.10729e-05 0.0187175 0)
(0.000292806 0.0178917 0)
(0.000488866 0.0169897 0)
(0.000663558 0.0160294 0)
(0.000806336 0.0150198 0)
(0.000913077 0.0139679 0)
(0.000983791 0.0128808 0)
(0.0010207 0.011766 0)
(0.00102722 0.0106313 0)
(0.00100745 0.00948525 0)
(0.000965862 0.00833638 0)
(0.000907195 0.00719313 0)
(0.000836249 0.00606355 0)
(0.000757726 0.00495498 0)
(0.000675976 0.00387379 0)
(0.000594707 0.00282531 0)
(0.000516728 0.00181382 0)
(0.000443816 0.000842834 0)
(0.000376841 -8.46219e-05 0)
(0.000316161 -0.000965763 0)
(0.000262244 -0.00179808 0)
(-0.000111452 0.0195234 0)
(5.31737e-05 0.0192734 0)
(0.000199302 0.0185276 0)
(0.000424079 0.0176852 0)
(0.00063439 0.0167962 0)
(0.000818597 0.0158644 0)
(0.00096776 0.0148897 0)
(0.00107969 0.013874 0)
(0.00115599 0.0128214 0)
(0.00120004 0.0117379 0)
(0.00121597 0.0106305 0)
(0.00120827 0.00950732 0)
(0.00118153 0.00837671 0)
(0.00114033 0.00724708 0)
(0.00108915 0.00612657 0)
(0.00103219 0.00502281 0)
(0.000973251 0.00394269 0)
(0.00091551 0.00289223 0)
(0.000861419 0.00187657 0)
(0.000812673 0.000899991 0)
(0.000770373 -3.39356e-05 0)
(0.000735334 -0.000922322 0)
(0.000708541 -0.00176304 0)
(-4.55548e-05 0.0195052 0)
(0.000154353 0.0191183 0)
(0.000342441 0.0183119 0)
(0.000590549 0.0174603 0)
(0.000818636 0.0165912 0)
(0.0010103 0.0156936 0)
(0.00116002 0.0147573 0)
(0.00126945 0.0137788 0)
(0.00134294 0.01276 0)
(0.00138556 0.0117058 0)
(0.00140241 0.0106232 0)
(0.00139843 0.00952013 0)
(0.00137834 0.008405 0)
(0.00134662 0.00728638 0)
(0.00130747 0.00617271 0)
(0.00126472 0.00507198 0)
(0.00122171 0.00399163 0)
(0.00118121 0.00293829 0)
(0.00114534 0.00191778 0)
(0.00111561 0.000934964 0)
(0.00109311 -6.26715e-06 0)
(0.00107879 -0.000903029 0)
(0.00107378 -0.00175354 0)
(-7.61874e-07 0.0194063 0)
(0.000255419 0.0189165 0)
(0.000500945 0.0180577 0)
(0.000787393 0.0172076 0)
(0.00103885 0.0163729 0)
(0.00123569 0.015521 0)
(0.00137938 0.0146293 0)
(0.00147825 0.0136903 0)
(0.00154061 0.0127048 0)
(0.00157366 0.0116782 0)
(0.00158352 0.0106177 0)
(0.00157559 0.0095317 0)
(0.00155467 0.00842903 0)
(0.00152514 0.0073186 0)
(0.00149097 0.00620923 0)
(0.00145565 0.00510938 0)
(0.00142219 0.00402702 0)
(0.00139295 0.00296941 0)
(0.00136974 0.00194293 0)
(0.00135381 0.000952914 0)
(0.00134604 3.48946e-06 0)
(0.00134724 -0.000902527 0)
(0.00135847 -0.00176371 0)
(3.9311e-05 0.0192354 0)
(0.000357345 0.0186521 0)
(0.000676674 0.0177474 0)
(0.00101692 0.0169144 0)
(0.00129603 0.0161401 0)
(0.00149271 0.0153522 0)
(0.00162153 0.014514 0)
(0.00170094 0.013617 0)
(0.00174402 0.0126642 0)
(0.00175997 0.0116628 0)
(0.00175578 0.0106214 0)
(0.0017371 0.00954925 0)
(0.00170874 0.00845584 0)
(0.00167494 0.00735058 0)
(0.00163942 0.00624275 0)
(0.00160543 0.00514133 0)
(0.00157562 0.00405487 0)
(0.00155208 0.00299123 0)
(0.00153624 0.00195736 0)
(0.00152902 0.000959023 0)
(0.00153096 5.4005e-07 0)
(0.00154254 -0.000915373 0)
(0.00156453 -0.00178768 0)
(7.97099e-05 0.0189946 0)
(0.00047748 0.0183122 0)
(0.000884067 0.0173628 0)
(0.00128886 0.0165687 0)
(0.00159269 0.0158966 0)
(0.00177773 0.0151972 0)
(0.00187993 0.0144212 0)
(0.00193067 0.0135676 0)
(0.00194707 0.0126456 0)
(0.00193955 0.0116664 0)
(0.00191541 0.0106407 0)
(0.00188031 0.00957902 0)
(0.00183892 0.00849156 0)
(0.00179528 0.00738834 0)
(0.00175291 0.00627917 0)
(0.00171479 0.00517358 0)
(0.00168334 0.00408071 0)
(0.00166037 0.00300906 0)
(0.00164698 0.00196617 0)
(0.0016437 0.000958276 0)
(0.0016506 -1.0077e-05 0)
(0.00166768 -0.000936309 0)
(0.00169527 -0.00181984 0)
(0.000165496 0.0186644 0)
(0.000676243 0.0178815 0)
(0.00117259 0.0168944 0)
(0.00161819 0.0161831 0)
(0.00192072 0.0156525 0)
(0.00207981 0.0150698 0)
(0.00214379 0.0143612 0)
(0.0021585 0.0135495 0)
(0.00214288 0.0126552 0)
(0.00210725 0.0116946 0)
(0.00205876 0.0106809 0)
(0.00200285 0.00962609 0)
(0.00194397 0.00854128 0)
(0.00188593 0.00743702 0)
(0.00183202 0.00632364 0)
(0.00178505 0.00521122 0)
(0.00174725 0.00410952 0)
(0.00172022 0.00302772 0)
(0.00170479 0.00197404 0)
(0.00170108 0.00095529 0)
(0.00170862 -2.36896e-05 0)
(0.00172674 -0.000960449 0)
(0.00175519 -0.00185501 0)
(0.000421854 0.0181295 0)
(0.00106483 0.0173447 0)
(0.00160911 0.0163803 0)
(0.00201615 0.0158141 0)
(0.00226554 0.0154326 0)
(0.00237895 0.0149825 0)
(0.00239962 0.0143404 0)
(0.00237557 0.0135672 0)
(0.00232525 0.0126967 0)
(0.00225874 0.0117508 0)
(0.00218296 0.0107455 0)
(0.00210313 0.0096943 0)
(0.00202344 0.00860901 0)
(0.00194743 0.0075008 0)