/*--------------------------------*- C++ -*----------------------------------*\
  =========                 |
  \\      /  F ield         | OpenFOAM: The Open Source CFD Toolbox
   \\    /   O peration     | Website:  https://openfoam.org
    \\  /    A nd           | Version:  9
     \\/     M anipulation  |
\*---------------------------------------------------------------------------*/
FoamFile
{
    format      ascii;
    class       volScalarField;
    location    "2.39";
    object      epsilon;
}
// * * * * * * * * * * * * * * * * * * * * * * * * * * * * * * * * * * * * * //

dimensions      [0 2 -3 0 0 0 0];

internalField   nonuniform List<scalar> 
2268
(
0.00520157
0.0352498
0.0658572
0.0943584
0.120507
0.144316
0.165826
0.185111
0.202309
0.217614
0.231199
0.243081
0.252997
0.260394
0.264497
0.264552
0.25914
0.243356
0.223088
0.201568
0.165283
0.10121
0.0212306
0.0116003
0.0220846
0.0349705
0.0475508
0.0593734
0.070347
0.0804734
0.0897764
0.0982817
0.106009
0.112951
0.119041
0.124106
0.127849
0.129862
0.129816
0.127391
0.121776
0.113834
0.10407
0.0897017
0.066935
0.0399915
0.0207269
0.0228195
0.0315561
0.0407107
0.049568
0.0579564
0.0658388
0.0732118
0.0800756
0.0864217
0.0922173
0.0973828
0.101767
0.105135
0.107203
0.107737
0.106632
0.103804
0.0996872
0.0944264
0.0867773
0.074529
0.0658696
0.0302154
0.0257728
0.0323468
0.0399292
0.0474998
0.0548095
0.0617846
0.0683989
0.0746395
0.0804903
0.0859135
0.0908269
0.0950866
0.0984895
0.100816
0.101915
0.101818
0.100742
0.0991905
0.0974054
0.0947604
0.0896898
0.0919921
0.0398605
0.0296717
0.034717
0.041322
0.0481451
0.0548615
0.0613595
0.0675904
0.0735332
0.0791721
0.0844721
0.0893519
0.0936686
0.0972346
0.0998747
0.101514
0.102291
0.102631
0.103225
0.104655
0.107047
0.109824
0.121951
0.0497398
0.0342001
0.0380058
0.0438996
0.0502197
0.0565657
0.0627833
0.0687998
0.0745893
0.0801436
0.0854358
0.0903861
0.0948461
0.0986305
0.101595
0.103733
0.105278
0.106814
0.109248
0.113661
0.121462
0.135187
0.166958
0.0600169
0.0392734
0.0419844
0.0473026
0.0532521
0.0593531
0.0653993
0.07129
0.0769993
0.0825342
0.0878826
0.0929653
0.0976181
0.101644
0.104918
0.107489
0.109672
0.112171
0.116064
0.122941
0.136053
0.165513
0.252379
0.0709019
0.0449085
0.0465734
0.0513789
0.0570368
0.0629759
0.0689185
0.0747307
0.0803941
0.0859422
0.0913858
0.0966444
0.101523
0.105795
0.10934
0.112253
0.114914
0.118095
0.122942
0.131297
0.147849
0.193329
0.418152
0.0150797
0.0843883
0.129496
0.151226
0.157922
0.155227
0.139426
0.110573
0.0858883
0.0783933
0.0827299
0.0828692
0.0767407
0.0762797
0.0792381
0.0712558
0.050442
0.0284052
0.00761267
0.0265817
0.0505261
0.0664843
0.0751994
0.0786028
0.077835
0.0723816
0.0646122
0.0549856
0.048273
0.0457096
0.0439058
0.0417497
0.0400427
0.0392272
0.0355652
0.0280176
0.0193899
0.0119454
0.0448245
0.0531299
0.0611741
0.0656763
0.0671838
0.0659649
0.0616936
0.0561332
0.0494578
0.0439208
0.0407659
0.0386259
0.0365612
0.0347452
0.0333993
0.0306058
0.0254618
0.0193879
0.0177778
0.0660604
0.0617606
0.0638879
0.0651685
0.0649677
0.0629856
0.0588045
0.0537453
0.0481785
0.0434439
0.0403292
0.0381164
0.0359776
0.0340819
0.0325427
0.0300637
0.0257807
0.02071
0.0222463
0.0946322
0.0734245
0.0691766
0.0673742
0.0655333
0.0627457
0.0584476
0.053664
0.0487084
0.0444314
0.0414093
0.0391889
0.0370025
0.0350506
0.0334421
0.0311446
0.0272175
0.0224959
0.025692
0.138747
0.0870298
0.0753247
0.0705851
0.0672405
0.0637135
0.0593238
0.0548849
0.0503871
0.0463031
0.043275
0.0410245
0.0388244
0.0368605
0.0352715
0.0331766
0.0294161
0.0246435
0.0282533
0.215845
0.101212
0.0813473
0.0741018
0.0695024
0.0653651
0.0609777
0.0569492
0.0528317
0.0488153
0.0456639
0.0433151
0.041114
0.0391786
0.0376837
0.03587
0.0322979
0.027353
0.0309386
0.371731
0.113299
0.0865691
0.077612
0.0721059
0.0675289
0.0632155
0.0595324
0.0557207
0.0517642
0.0484532
0.0459459
0.0437237
0.0418229
0.0404704
0.0389913
0.0357297
0.0307757
0.0352189
0.0897551
0.0547397
0.054686
0.0587034
0.063985
0.0697715
0.0756228
0.0813427
0.0869443
0.0925285
0.0981593
0.103751
0.109025
0.113668
0.117551
0.120825
0.123929
0.127617
0.132929
0.141346
0.155879
0.184842
0.254578
0.118663
0.0709553
0.0681404
0.0709488
0.0759347
0.0818222
0.0876742
0.0931994
0.0985753
0.10412
0.110059
0.116296
0.122251
0.127329
0.131362
0.134594
0.137533
0.140789
0.145032
0.150885
0.158669
0.168088
0.17876
0.161366
0.0931425
0.0849817
0.0858127
0.0909136
0.0974653
0.103289
0.108185
0.112831
0.118005
0.124279
0.131597
0.138532
0.14391
0.147668
0.150311
0.152567
0.154937
0.157928
0.162323
0.167832
0.170803
0.167355
0.249291
0.126179
0.105587
0.102989
0.109874
0.118538
0.123771
0.126775
0.129513
0.133616
0.140249
0.149848
0.158414
0.163731
0.166569
0.168041
0.169519
0.17082
0.172558
0.177513
0.187043
0.190265
0.178825
0.359067
0.162848
0.126775
0.120063
0.129661
0.139011
0.137156
0.137469
0.140423
0.144446
0.151548
0.163528
0.173734
0.180956
0.18511
0.186195
0.186579
0.186148
0.185969
0.193138
0.214139
0.215273
0.189846
0.404115
0.179548
0.14301
0.132581
0.131686
0.134227
0.134897
0.137486
0.141683
0.147209
0.15494
0.164515
0.174698
0.183544
0.189932
0.193795
0.196123
0.194724
0.193151
0.199586
0.20932
0.202726
0.189396
0.386979
0.189248
0.166041
0.147261
0.135972
0.132482
0.133879
0.138864
0.143557
0.148616
0.155838
0.163703
0.173161
0.181324
0.187738
0.193725
0.198231
0.195613
0.194069
0.199771
0.204309
0.198027
0.186653
0.318871
0.198355
0.194889
0.162674
0.140468
0.132158
0.132541
0.139105
0.144285
0.148186
0.154323
0.161355
0.170435
0.179919
0.184248
0.185046
0.186723
0.186636
0.190726
0.202145
0.209922
0.200986
0.185692
0.246653
0.185722
0.195296
0.168258
0.141759
0.130435
0.129077
0.133296
0.138886
0.144339
0.149648
0.155186
0.161988
0.169486
0.172236
0.171707
0.17225
0.174162
0.179384
0.187958
0.194211
0.193773
0.180781
0.205421
0.16658
0.170494
0.1558
0.137514
0.126466
0.123486
0.125533
0.13035
0.136299
0.14177
0.14648
0.151214
0.155586
0.157844
0.158851
0.160045
0.161456
0.164156
0.168331
0.1713
0.169687
0.158757
0.263246
0.157808
0.147735
0.139054
0.127659
0.119341
0.116407
0.117666
0.121507
0.126597
0.131723
0.136176
0.139948
0.142909
0.144743
0.146132
0.147459
0.147795
0.147794
0.147964
0.147082
0.142637
0.132861
0.330293
0.154914
0.132343
0.123809
0.115992
0.110472
0.108515
0.109607
0.112711
0.116888
0.121312
0.125311
0.128521
0.130784
0.132138
0.133043
0.13359
0.133261
0.132087
0.130124
0.12689
0.121606
0.114185
0.328679
0.146722
0.11961
0.110597
0.104908
0.10142
0.100401
0.101512
0.104096
0.107522
0.111217
0.114633
0.117342
0.119127
0.120027
0.120344
0.120164
0.119284
0.1176
0.115027
0.111387
0.106603
0.10096
0.304662
0.13464
0.107936
0.0992951
0.0949783
0.0927952
0.092426
0.0935563
0.0957482
0.098568
0.101601
0.104419
0.10664
0.10803
0.108572
0.108464
0.107828
0.106633
0.104812
0.102301
0.0990539
0.0951514
0.0908514
0.272927
0.121632
0.0973401
0.0895439
0.0861539
0.0847563
0.0847633
0.0858557
0.0877146
0.0900272
0.0924818
0.0947495
0.0965195
0.0975787
0.0978771
0.0975383
0.0967036
0.0954169
0.0936793
0.0914743
0.0888081
0.0857639
0.0825088
0.239074
0.109091
0.0878278
0.0810035
0.0782631
0.0773188
0.0775012
0.0784943
0.0800466
0.0819212
0.0838778
0.0856652
0.0870435
0.0878364
0.0879862
0.0875704
0.0867211
0.0855075
0.0839744
0.0821424
0.0800365
0.0777179
0.0752831
0.205096
0.0973206
0.0792719
0.0734211
0.0711586
0.070467
0.0706959
0.0715466
0.0728115
0.0743057
0.0758376
0.0772182
0.0782684
0.0788548
0.0789271
0.0785314
0.0777794
0.0767406
0.0754735
0.0740161
0.0723984
0.0706675
0.0688762
0.172592
0.0865079
0.0715882
0.0666455
0.064747
0.0641913
0.0643937
0.0650817
0.0660794
0.0672385
0.0684139
0.0694628
0.0702542
0.0706909
0.0707331
0.0704095
0.0698063
0.0689832
0.0679965
0.0668884
0.065691
0.0644348
0.0631487
0.145805
0.077381
0.0648198
0.0606076
0.0589787
0.0584883
0.0586227
0.0591434
0.0599018
0.0607789
0.0616639
0.0624507
0.063045
0.0633776
0.0634194
0.0631892
0.0627501
0.0621485
0.0614303
0.0606329
0.0597849
0.0589084
0.0580197
0.123762
0.0691114
0.058753
0.0551985
0.053791
0.0533341
0.0533915
0.0537595
0.0543147
0.0549623
0.055618
0.0562042
0.0566536
0.0569181
0.0569771
0.0568435
0.0565625
0.0561667
0.0556894
0.0551598
0.0546001
0.0540263
0.0534476
0.10575
0.0615585
0.0532319
0.0503146
0.0491212
0.0486978
0.0486904
0.0489324
0.0493244
0.0497927
0.050274
0.0507124
0.0510605
0.0512849
0.0513717
0.0513296
0.0511903
0.0509744
0.0507037
0.0503983
0.0500738
0.0497405
0.0494033
0.0912919
0.0548299
0.0482164
0.0458922
0.044914
0.0445381
0.0444894
0.0446382
0.0449083
0.0452442
0.0456001
0.045936
0.0462191
0.0464263
0.0465479
0.0465895
0.046573
0.0465089
0.04641
0.0462881
0.0461528
0.0460097
0.0458603
0.0797122
0.0489446
0.0436829
0.0418792
0.0411129
0.0408027
0.040741
0.0408322
0.0410213
0.0412692
0.0415436
0.0418169
0.0420663
0.0422758
0.0424382
0.0425565
0.0426451
0.0427074
0.0427489
0.0427751
0.0427904
0.0427966
0.0427927
0.0702627
0.0438133
0.0395887
0.038224
0.0376609
0.0374342
0.0373891
0.0374592
0.0376079
0.0378095
0.0380428
0.0382891
0.0385328
0.0387623
0.0389718
0.0391621
0.0393418
0.0395093
0.0396652
0.0398103
0.0399448
0.0400676
0.0401761
0.0623132
0.0393036
0.0358803
0.0348802
0.0345084
0.0343806
0.0343811
0.034466
0.0346133
0.0348083
0.0350377
0.0352896
0.0355528
0.0358188
0.0360822
0.0363422
0.0366029
0.0368598
0.0371099
0.0373508
0.0375797
0.0377938
0.037989
0.0554464
0.0352993
0.0325119
0.0318152
0.0316222
0.0316065
0.0316792
0.0318124
0.031995
0.0322196
0.0324789
0.0327651
0.0330704
0.0333879
0.0337123
0.0340415
0.0343767
0.0347117
0.0350413
0.0353607
0.0356657
0.0359517
0.036214
0.049463
0.0317313
0.0294607
0.0290189
0.0289933
0.0290998
0.0292677
0.0294787
0.0297284
0.0300139
0.0303315
0.0306764
0.0310424
0.0314239
0.031816
0.0322153
0.0326213
0.033027
0.0334259
0.0338121
0.0341798
0.034524
0.0348393
0.0443431
0.0285888
0.0267357
0.0265084
0.0266388
0.0268745
0.0271548
0.0274665
0.0278076
0.0281779
0.0285754
0.0289968
0.0294376
0.0298928
0.0303578
0.030829
0.0313042
0.0317767
0.0322392
0.0326847
0.033107
0.0335002
0.0338589
0.0401828
0.0259139
0.0243781
0.0243263
0.0245996
0.0249656
0.0253677
0.0257932
0.0262405
0.0267099
0.0272003
0.0277094
0.0282338
0.0287692
0.0293114
0.0298567
0.030402
0.0309407
0.0314649
0.0319671
0.0324401
0.0328777
0.0332742
0.0371137
0.0237816
0.0224514
0.022532
0.0229293
0.0234182
0.0239407
0.0244822
0.0250394
0.0256123
0.0262002
0.0268015
0.0274138
0.0280335
0.0286569
0.0292799
0.029899
0.0305071
0.0310957
0.0316561
0.0321806
0.0326621
0.0330949
0.0352243
0.0222684
0.0210226
0.0211854
0.021679
0.022273
0.0229036
0.0235516
0.0242121
0.0248839
0.0255667
0.0262598
0.0269613
0.0276687
0.0283784
0.029086
0.0297867
0.0304725
0.0311333
0.0317591
0.0323405
0.0328697
0.0333406
0.0345126
0.0214206
0.0201395
0.0203286
0.0208823
0.0215538
0.0222697
0.0230058
0.0237546
0.0245143
0.025285
0.0260666
0.0268586
0.0276587
0.0284634
0.0292675
0.0300641
0.0308429
0.0315909
0.0322952
0.0329444
0.0335292
0.0340434
0.0348854
0.0212362
0.0198143
0.0199731
0.020545
0.0212593
0.0220311
0.0228307
0.0236482
0.0244814
0.025331
0.0261983
0.0270838
0.0279861
0.0289014
0.0298224
0.0307389
0.0316359
0.0324952
0.0332992
0.034033
0.0346859
0.0352516
0.0361875
0.0216645
0.0200193
0.0200954
0.0206425
0.0213621
0.0221575
0.0229936
0.0238586
0.0247503
0.0256708
0.0266234
0.0276104
0.028632
0.0296836
0.0307551
0.03183
0.0328849
0.0338924
0.0348269
0.0356689
0.0364061
0.0370335
0.0382303
0.0226165
0.0206908
0.0206404
0.0211226
0.0218113
0.0225986
0.0234448
0.0243368
0.0252737
0.0262599
0.0273019
0.0284059
0.0295746
0.0308034
0.0320777
0.0333712
0.0346449
0.035855
0.0369633
0.0379437
0.0387841
0.0394833
0.0408017
0.023977
0.021738
0.0215275
0.0219107
0.0225364
0.0232871
0.0241198
0.0250215
0.0259931
0.0270434
0.0281847
0.0294299
0.0307874
0.0322549
0.0338124
0.0354172
0.037003
0.038495
0.0398343
0.0409886
0.0419501
0.0427278
0.0436632
0.0256117
0.0230489
0.0226561
0.0229143
0.0234514
0.0241426
0.024943
0.0258404
0.0268398
0.0279563
0.029212
0.0306314
0.0322353
0.0340297
0.0359911
0.0380517
0.0400942
0.0419826
0.0436249
0.0449879
0.0460804
0.0469334
0.0465452
0.0273712
0.0244961
0.0239112
0.0240284
0.0244597
0.0250756
0.0258302
0.0267138
0.0277367
0.0289238
0.0303113
0.0319439
0.0338665
0.0361077
0.0386511
0.041396
0.0441297
0.0465787
0.0486042
0.0501956
0.0514077
0.0523132
0.0491503
0.0290973
0.0259421
0.0251686
0.0251402
0.0254589
0.025992
0.026694
0.0275582
0.0286018
0.0298622
0.0313959
0.0332781
0.035597
0.0384336
0.0418134
0.0456138
0.0494468
0.052689
0.0551594
0.0569523
0.0582286
0.0591323
0.0511694
0.0306336
0.0272462
0.0263003
0.0261349
0.0263458
0.0267984
0.0274478
0.0282906
0.0293517
0.0306822
0.0323636
0.0345128
0.0372862
0.0408687
0.0454165
0.0508786
0.0565974
0.0609522
0.0638336
0.0656928
0.0669043
0.06771
0.0523868
0.0318443
0.0282665
0.0271773
0.0268989
0.0270208
0.0274065
0.0280112
0.0288344
0.0299075
0.0312947
0.0331017
0.0354917
0.038709
0.0431051
0.0491343
0.057142
0.0663355
0.0723439
0.0753318
0.0769237
0.0778461
0.0784184
0.0525713
0.0324873
0.0288341
0.0276645
0.0273206
0.0273905
0.0277369
0.0283152
0.0291262
0.0302051
0.0316238
0.0335041
0.0360421
0.039555
0.0445665
0.0519565
0.0630203
0.0778982
0.0881816
0.0903952
0.091136
0.0914858
0.0916857
0.467743
0.43209
0.449933
0.530632
0.188303
0.185354
0.179696
0.169549
0.160183
0.154161
0.147111
0.139068
0.164781
0.156299
0.148054
0.139756
0.177606
0.167957
0.157875
0.148372
0.175372
0.16589
0.157036
0.148181
0.170535
0.160943
0.152973
0.145405
0.167194
0.156228
0.147706
0.139488
0.161091
0.148618
0.138383
0.129459
0.143069
0.133311
0.124915
0.118111
0.122997
0.116861
0.11132
0.106447
0.10773
0.103699
0.0998787
0.0963055
0.0964022
0.0935287
0.0907369
0.0880475
0.0874904
0.0853587
0.0832647
0.0812218
0.0800091
0.0784178
0.0768455
0.0753011
0.0734395
0.0722627
0.0710951
0.0699419
0.0675369
0.0666802
0.065827
0.0649798
0.0621947
0.0615834
0.0609723
0.0603626
0.0573646
0.0569412
0.0565162
0.0560893
0.053021
0.0527423
0.0524602
0.0521735
0.049152
0.0489851
0.0488132
0.0486349
0.0457436
0.0456631
0.0455764
0.0454819
0.0427793
0.0427656
0.0427444
0.0427146
0.0402417
0.0402792
0.0403083
0.040328
0.0381148
0.0381913
0.0382587
0.0383159
0.0363857
0.0364919
0.0365881
0.0366735
0.0350463
0.0351749
0.0352929
0.0353993
0.0340938
0.0342398
0.0343743
0.0344964
0.0335324
0.0336925
0.0338399
0.033974
0.0333742
0.0335466
0.033705
0.0338487
0.033641
0.0338255
0.033994
0.0341463
0.0343672
0.0345643
0.0347433
0.034904
0.0356021
0.0358135
0.0360039
0.0361736
0.0374149
0.0376423
0.0378453
0.0380247
0.039899
0.0401436
0.0403598
0.0405489
0.0431781
0.0434391
0.0436671
0.0438645
0.0474121
0.0476849
0.0479204
0.0481218
0.0528035
0.0530779
0.0533116
0.053509
0.0596027
0.0598609
0.0600777
0.0602589
0.0681124
0.068329
0.0685088
0.0686574
0.0786934
0.0788391
0.0789589
0.0790573
0.0917786
0.0918272
0.0918668
0.0918993
0.175312
0.112189
0.0920931
0.0826461
0.0764899
0.0715767
0.067382
0.0639997
0.06054
0.0567767
0.0533149
0.0505455
0.048203
0.0462694
0.0450928
0.0441304
0.0414834
0.0370374
0.0453988
0.134997
0.110095
0.0968396
0.0888599
0.0831033
0.0781237
0.0736544
0.0700848
0.0669638
0.0637406
0.0605169
0.0575877
0.0548399
0.0523864
0.0508944
0.050262
0.0486254
0.0468426
0.0733909
0.12577
0.111096
0.101336
0.0947214
0.0894101
0.0842567
0.0793545
0.075497
0.0726057
0.0700082
0.0672173
0.0641968
0.0609233
0.0577447
0.0555951
0.0548683
0.0546975
0.0568891
0.10606
0.127581
0.114546
0.105924
0.100132
0.0952558
0.0897547
0.0841712
0.0799803
0.0772553
0.0750982
0.0724709
0.0692531
0.0654977
0.0618081
0.0596097
0.0592622
0.0614519
0.068116
0.138273
0.133337
0.118143
0.109413
0.104391
0.100116
0.0939651
0.0873572
0.0826605
0.0799335
0.0780748
0.0752044
0.0713997
0.0673399
0.0638721
0.0618613
0.0616863
0.0636953
0.0759444
0.173143
0.133501
0.118758
0.109894
0.104069
0.0989478
0.0927971
0.0867315
0.0819358
0.0787668
0.0764858
0.0734614
0.0698207
0.0663589
0.0636059
0.0620554
0.0619016
0.0639936
0.0758879
0.171702
0.131015
0.116419
0.107222
0.100161
0.0940428
0.088614
0.0841554
0.0805499
0.0773318
0.0740065
0.0705012
0.0671725
0.0642608
0.0620772
0.0610235
0.0606139
0.0626737
0.0735762
0.145388
0.125162
0.111908
0.102597
0.0953408
0.0892244
0.0844655
0.0811238
0.0783416
0.0754017
0.0714888
0.0673302
0.0638572
0.0610814
0.0591589
0.0584529
0.0587763
0.0617941
0.073009
0.12445
0.117952
0.106658
0.0975438
0.0903656
0.084446
0.079999
0.0771372
0.074767
0.0719112
0.0678495
0.0634422
0.0598248
0.057137
0.0555874
0.0553564
0.056382
0.0602276
0.0699316
0.108049
0.109358
0.0997572
0.0915808
0.0849668
0.0795698
0.075363
0.0723225
0.0696951
0.066696
0.0628874
0.058829
0.0553788
0.0529502
0.051978
0.0525315
0.0539412
0.0568158
0.063288
0.0951769
0.0996925
0.0917949
0.0850855
0.079534
0.0748986
0.0710148
0.0677493
0.0647416
0.0615777
0.0580414
0.0543947
0.0511488
0.0487815
0.0477988
0.04845
0.050235
0.0527678
0.0569828
0.0827013
0.0910813
0.084746
0.0793628
0.0748144
0.0708584
0.0672801
0.0639511
0.0607442
0.0575167
0.05417
0.0507753
0.0475895
0.0449829
0.0433851
0.0431748
0.0445506
0.0473198
0.0513665
0.0689282
0.0839903
0.0789543
0.0746264
0.0708697
0.0674546
0.0641811
0.0609565
0.0577635
0.0545894
0.0513866
0.0481289
0.044914
0.0419801
0.0396452
0.0382835
0.0383777
0.0406405
0.0447061
0.0537958
0.0780729
0.0740919
0.0705961
0.0674615
0.0644969
0.0615455
0.0585469
0.0555205
0.0524951
0.0494454
0.0463141
0.0431161
0.0399842
0.0371329
0.0348333
0.0335273
0.0339889
0.0365247
0.0390244
0.0728759
0.0697543
0.0669363
0.0643208
0.0617627
0.0591502
0.056445
0.053671
0.0508613
0.0480035
0.0450481
0.0419828
0.0388779
0.035865
0.0331162
0.0309428
0.0299558
0.030245
0.030379
0.0680975
0.0656778
0.0634266
0.0612651
0.0590886
0.0568194
0.0544327
0.0519474
0.0493904
0.0467598
0.0440275
0.041186
0.0382822
0.0354093
0.0327013
0.0304368
0.0292987
0.0301694
0.0353687
0.0636002
0.0617527
0.0599796
0.0582201
0.0563993
0.0544626
0.0523921
0.0502002
0.0479073
0.0455191
0.0430283
0.0404427
0.0378088
0.0352138
0.0327945
0.0308325
0.0300658
0.0322119
0.0446453
0.059352
0.0579686
0.0565978
0.055191
0.0536938
0.0520664
0.0502938
0.0483828
0.0463485
0.0442012
0.0419485
0.0396129
0.0372487
0.0349526
0.0328862
0.0313668
0.0311757
0.034605
0.0541776
0.0553712
0.0543613
0.0533255
0.0522232
0.0510131
0.0496646
0.048164
0.0465138
0.0447248
0.0428098
0.0407859
0.0386866
0.0365761
0.0345652
0.0328448
0.0317817
0.0322157
0.0367734
0.0624401
0.0516845
0.050977
0.0502178
0.049373
0.0484122
0.04731
0.046053
0.0446409
0.0430816
0.0413889
0.0395861
0.037715
0.0358485
0.0341105
0.0327143
0.0320633
0.0330689
0.0386845
0.0686795
0.0483239
0.0478528
0.0473174
0.0466899
0.0459433
0.0450552
0.0440129
0.0428163
0.0414705
0.0399898
0.0384019
0.0367541
0.0351263
0.033651
0.0325536
0.0322546
0.0337084
0.0401085
0.0734456
0.0453091
0.0450217
0.0446642
0.0442127
0.0436444
0.0429401
0.042088
0.0410849
0.0399357
0.0386547
0.0372733
0.0358424
0.0344457
0.0332195
0.0323929
0.0323925
0.0341892
0.0410998
0.0777008
0.0426484
0.0425029
0.0422849
0.0419743
0.0415515
0.0410003
0.0403099
0.0394768
0.0385056
0.0374117
0.0362261
0.0350014
0.0338228
0.0328275
0.0322439
0.032498
0.0345879
0.0420469
0.0818744
0.0403435
0.0403065
0.0401965
0.0399965
0.0396903
0.0392643
0.0387092
0.038022
0.0372076
0.0362818
0.0352752
0.0342403
0.0332609
0.0324715
0.0320964
0.0325599
0.0348815
0.0427586
0.0849991
0.0383935
0.0384383
0.0384102
0.0382953
0.0380803
0.0377542
0.0373095
0.0367442
0.0360637
0.0352839
0.0344347
0.0335671
0.032762
0.0321494
0.0319479
0.0325789
0.0350746
0.0432373
0.0871771
0.0367975
0.0369028
0.0369353
0.0368838
0.0367379
0.0364889
0.0361312
0.0356642
0.0350939
0.0344359
0.0337194
0.0329929
0.032334
0.0318671
0.031805
0.0325646
0.0351842
0.0435288
0.0886241
0.0355576
0.0357064
0.0357821
0.0357759
0.0356798
0.0354875
0.0351954
0.0348039
0.0343198
0.0337586
0.0331482
0.0325348
0.0319921
0.0316391
0.0316825
0.032534
0.0352337
0.0436931
0.0897963
0.0346797
0.0348592
0.0349641
0.034988
0.0349254
0.0347718
0.0345256
0.0341884
0.0337675
0.0332781
0.032747
0.032218
0.0317608
0.0314898
0.0316056
0.0325147
0.0352578
0.0437964
0.0909654
0.0341759
0.0343761
0.0344993
0.0345413
0.0344984
0.0343682
0.0341506
0.0338484
0.0334692
0.033028
0.0325504
0.0320776
0.0316763
0.0314562
0.0316129
0.0325482
0.0353038
0.0438908
0.0921054
0.0340647
0.0342788
0.0344123
0.0344628
0.0344287
0.0343094
0.0341058
0.0338219
0.0334655
0.0330512
0.0326033
0.032161
0.0317877
0.0315896
0.0317583
0.0326927
0.035435
0.0440385
0.0932311
0.0343742
0.0345978
0.0347358
0.034788
0.0347544
0.0346361
0.0344352
0.0341561
0.033807
0.0334018
0.0329634
0.032529
0.0321594
0.0319576
0.032113
0.0330231
0.0357327
0.0443195
0.0941109
0.035143
0.0353737
0.0355128
0.0355621
0.0355236
0.0353995
0.0351932
0.0349095
0.0345564
0.0341471
0.033703
0.0332591
0.0328737
0.0326472
0.0327674
0.0336328
0.0362928
0.0448254
0.0945315
0.036424
0.0366608
0.0367991
0.0368431
0.0367966
0.0366634
0.0364474
0.0361539
0.0357907
0.0353699
0.0349114
0.0344479
0.0340346
0.0337696
0.0338389
0.0346436
0.0372456
0.0457707
0.0959888
0.0382868
0.0385295
0.0386664
0.0387044
0.0386495
0.0385066
0.0382807
0.0379773
0.0376036
0.0371711
0.0366977
0.036214
0.0357723
0.0354675
0.0354845
0.0362292
0.0387952
0.0475007
0.100303
0.0408225
0.0410703
0.0412055
0.0412382
0.0411765
0.0410267
0.0407947
0.040486
0.040108
0.0396712
0.0391925
0.0387005
0.0382453
0.0379198
0.037909
0.0386296
0.041232
0.050362
0.107605
0.044147
0.0443978
0.0445308
0.0445596
0.0444945
0.0443432
0.0441123
0.043808
0.0434377
0.043012
0.0425476
0.0420729
0.0416381
0.0413375
0.0413619
0.0421497
0.0449407
0.0548076
0.118106
0.048407
0.0486557
0.0487849
0.0488115
0.0487475
0.0486021
0.0483824
0.0480957
0.0477499
0.0473568
0.0469346
0.0465144
0.0461516
0.0459495
0.0461176
0.0471393
0.0504056
0.061571
0.133191
0.0537857
0.0540234
0.0541455
0.0541709
0.0541131
0.0539817
0.0537849
0.0535305
0.0532281
0.0528913
0.0525421
0.0522178
0.051986
0.0519723
0.0524293
0.0539275
0.0580821
0.0714994
0.156622
0.0605103
0.0607239
0.0608333
0.0608577
0.0608105
0.0607012
0.0605383
0.0603304
0.0600883
0.0598281
0.0595763
0.0593792
0.0593223
0.0595688
0.0604505
0.0627094
0.0683681
0.0856028
0.191027
0.0688622
0.0690354
0.0691245
0.0691466
0.0691129
0.0690322
0.0689121
0.0687611
0.0685905
0.0684174
0.0682709
0.0682037
0.0683164
0.0688118
0.0701253
0.0732777
0.0810783
0.10464
0.241506
0.0791924
0.079307
0.0793667
0.0793832
0.0793641
0.0793157
0.0792437
0.0791549
0.0790588
0.0789699
0.0789136
0.0789371
0.0791347
0.0797096
0.0811403
0.0846899
0.0943449
0.127462
0.311951
0.0919439
0.0919816
0.0920012
0.0920065
0.0920003
0.091985
0.0919629
0.0919369
0.0919111
0.0918922
0.0918918
0.0919319
0.0920577
0.0923735
0.0931553
0.0952963
0.102723
0.148183
0.393194
)
;

boundaryField
{
    leftWall
    {
        type            epsilonWallFunction;
        value           nonuniform List<scalar> 
50
(
0.00520157
0.0116003
0.0207269
0.0302154
0.0398605
0.0497398
0.0600169
0.0709019
0.0897551
0.118663
0.161366
0.249291
0.359067
0.404115
0.386979
0.318871
0.246653
0.205421
0.263246
0.330293
0.328679
0.304662
0.272927
0.239074
0.205096
0.172592
0.145805
0.123762
0.10575
0.0912919
0.0797122
0.0702627
0.0623132
0.0554464
0.049463
0.0443431
0.0401828
0.0371137
0.0352243
0.0345126
0.0348854
0.0361875
0.0382303
0.0408017
0.0436632
0.0465452
0.0491503
0.0511694
0.0523868
0.0525713
)
;
    }
    rightWall
    {
        type            epsilonWallFunction;
        value           nonuniform List<scalar> 
50
(
0.00761267
0.0119454
0.0177778
0.0222463
0.025692
0.0282533
0.0309386
0.0352189
0.0453988
0.0733909
0.10606
0.138273
0.173143
0.171702
0.145388
0.12445
0.108049
0.0951769
0.0827013
0.0689282
0.0537958
0.0390244
0.030379
0.0353687
0.0446453
0.0541776
0.0624401
0.0686795
0.0734456
0.0777008
0.0818744
0.0849991
0.0871771
0.0886241
0.0897963
0.0909654
0.0921054
0.0932311
0.0941109
0.0945315
0.0959888
0.100303
0.107605
0.118106
0.133191
0.156622
0.191027
0.241506
0.311951
0.393194
)
;
    }
    lowerWall
    {
        type            epsilonWallFunction;
        value           nonuniform List<scalar> 
62
(
0.00520157
0.0352498
0.0658572
0.0943584
0.120507
0.144316
0.165826
0.185111
0.202309
0.217614
0.231199
0.243081
0.252997
0.260394
0.264497
0.264552
0.25914
0.243356
0.223088
0.201568
0.165283
0.10121
0.0212306
0.0212306
0.0399915
0.0658696
0.0919921
0.121951
0.166958
0.252379
0.418152
0.467743
0.43209
0.449933
0.530632
0.0150797
0.0265817
0.0448245
0.0660604
0.0946322
0.138747
0.215845
0.371731
0.0150797
0.0843883
0.129496
0.151226
0.157922
0.155227
0.139426
0.110573
0.0858883
0.0783933
0.0827299
0.0828692
0.0767407
0.0762797
0.0792381
0.0712558
0.050442
0.0284052
0.00761267
)
;
    }
    atmosphere
    {
        type            inletOutlet;
        inletValue      uniform 0.1;
        value           nonuniform List<scalar> 
46
(
0.0525713
0.0324873
0.0288341
0.0276645
0.0273206
0.0273905
0.0277369
0.0283152
0.0291262
0.0302051
0.0316238
0.0335041
0.0360421
0.039555
0.0445665
0.0519565
0.0630203
0.0778982
0.1
0.1
0.1
0.1
0.1
0.1
0.1
0.1
0.1
0.1
0.1
0.1
0.1
0.1
0.1
0.1
0.1
0.1
0.1
0.1
0.1
0.1
0.1
0.1
0.1
0.1
0.148183
0.393194
)
;
    }
    defaultFaces
    {
        type            empty;
    }
}


// ************************************************************************* //
