/*--------------------------------*- C++ -*----------------------------------*\
  =========                 |
  \\      /  F ield         | OpenFOAM: The Open Source CFD Toolbox
   \\    /   O peration     | Website:  https://openfoam.org
    \\  /    A nd           | Version:  9
     \\/     M anipulation  |
\*---------------------------------------------------------------------------*/
FoamFile
{
    format      ascii;
    class       surfaceScalarField;
    location    "5.17";
    object      alphaPhi0.water;
}
// * * * * * * * * * * * * * * * * * * * * * * * * * * * * * * * * * * * * * //

dimensions      [0 3 -1 0 0 0 0];

internalField   nonuniform List<scalar> 
4432
(
4.86873e-08
-4.86873e-08
2.02082e-07
-1.53389e-07
3.87776e-07
-1.85693e-07
5.68763e-07
-1.80984e-07
7.33681e-07
-1.64914e-07
8.78605e-07
-1.44924e-07
1.00517e-06
-1.26559e-07
1.11824e-06
-1.13077e-07
1.22253e-06
-1.04287e-07
1.32007e-06
-9.75435e-08
1.41248e-06
-9.24129e-08
1.50433e-06
-9.18464e-08
1.60551e-06
-1.0119e-07
1.73212e-06
-1.26609e-07
1.89949e-06
-1.67374e-07
2.09293e-06
-1.93438e-07
2.13699e-06
-4.40613e-08
1.49535e-06
6.41395e-07
2.5441e-07
1.24066e-06
-8.88294e-07
1.14464e-06
-1.34793e-06
4.59078e-07
-8.87862e-07
-4.61335e-07
-8.89122e-07
1.02687e-07
-1.51373e-07
2.54918e-07
-3.0561e-07
4.26634e-07
-3.57404e-07
6.01232e-07
-3.55581e-07
7.66918e-07
-3.30594e-07
9.18296e-07
-2.96301e-07
1.0549e-06
-2.63165e-07
1.17858e-06
-2.36755e-07
1.29099e-06
-2.16698e-07
1.39206e-06
-1.98623e-07
1.48126e-06
-1.81614e-07
1.56002e-06
-1.70612e-07
1.63259e-06
-1.73762e-07
1.7048e-06
-1.98815e-07
1.77896e-06
-2.41541e-07
1.83804e-06
-2.52522e-07
1.79225e-06
1.66894e-09
1.35715e-06
1.07644e-06
5.16293e-07
2.08145e-06
-3.05973e-07
1.96738e-06
-7.69759e-07
9.24252e-07
-7.11622e-07
-5.19434e-07
-1.60282e-06
1.39031e-07
-2.90403e-07
2.93007e-07
-4.5958e-07
4.57142e-07
-5.21535e-07
6.25969e-07
-5.24406e-07
7.89369e-07
-4.93989e-07
9.41533e-07
-4.48464e-07
1.08078e-06
-4.02406e-07
1.20726e-06
-3.63241e-07
1.32088e-06
-3.30309e-07
1.41986e-06
-2.97608e-07
1.50196e-06
-2.63707e-07
1.56616e-06
-2.34814e-07
1.61277e-06
-2.20373e-07
1.64152e-06
-2.27574e-07
1.64798e-06
-2.47995e-07
1.61616e-06
-2.20705e-07
1.5196e-06
9.71479e-08
1.18748e-06
1.38611e-06
7.06311e-07
2.51394e-06
1.4352e-07
2.50539e-06
-2.78709e-07
1.34058e-06
-3.99512e-07
-3.9859e-07
-2.00229e-06
1.60318e-07
-4.50721e-07
3.20739e-07
-6.19996e-07
4.83839e-07
-6.84633e-07
6.49972e-07
-6.90538e-07
8.11572e-07
-6.55584e-07
9.63242e-07
-6.00131e-07
1.1028e-06
-5.41955e-07
1.22939e-06
-4.8983e-07
1.3417e-06
-4.42611e-07
1.43659e-06
-3.92496e-07
1.51026e-06
-3.37374e-07
1.55976e-06
-2.84319e-07
1.58251e-06
-2.43119e-07
1.57413e-06
-2.19198e-07
1.52609e-06
-1.99956e-07
1.42482e-06
-1.19436e-07
1.27296e-06
2.4901e-07
1.06103e-06
1.56658e-06
8.37644e-07
2.73692e-06
5.13146e-07
2.81399e-06
1.92866e-07
1.63951e-06
-5.88005e-09
-1.99548e-07
-2.00818e-06
1.72656e-07
-6.23377e-07
3.41101e-07
-7.88437e-07
5.06918e-07
-8.50448e-07
6.72688e-07
-8.56306e-07
8.33092e-07
-8.15983e-07
9.83623e-07
-7.50659e-07
1.12211e-06
-6.80434e-07
1.24713e-06
-6.14853e-07
1.35658e-06
-5.52058e-07
1.44619e-06
-4.82093e-07
1.51082e-06
-4.02007e-07
1.54614e-06
-3.19636e-07
1.54767e-06
-2.44648e-07
1.50868e-06
-1.80207e-07
1.41867e-06
-1.09953e-07
1.26683e-06
3.24059e-08
1.0649e-06
4.50942e-07
9.88769e-07
1.64274e-06
9.24821e-07
2.80042e-06
8.08677e-07
2.92972e-06
6.40028e-07
1.84159e-06
3.39222e-07
1.03542e-07
-1.66895e-06
1.808e-07
-8.04177e-07
3.56701e-07
-9.64335e-07
5.26242e-07
-1.01999e-06
6.92546e-07
-1.02261e-06
8.51841e-07
-9.75275e-07
1.00059e-06
-8.9941e-07
1.13691e-06
-8.16746e-07
1.25907e-06
-7.37012e-07
1.36448e-06
-6.57464e-07
1.44797e-06
-5.65583e-07
1.50343e-06
-4.57476e-07
1.52574e-06
-3.41941e-07
1.50959e-06
-2.28501e-07
1.44762e-06
-1.18241e-07
1.33001e-06
7.66382e-09
1.15095e-06
2.11457e-07
9.42113e-07
6.59781e-07
9.08514e-07
1.67945e-06
9.83536e-07
2.72496e-06
1.04112e-06
2.87171e-06
9.87516e-07
1.92831e-06
6.26804e-07
4.64989e-07
-1.04221e-06
1.87734e-07
-9.91911e-07
3.6904e-07
-1.14564e-06
5.41302e-07
-1.19225e-06
7.07723e-07
-1.18903e-06
8.65396e-07
-1.13295e-06
1.01161e-06
-1.04563e-06
1.14478e-06
-9.49915e-07
1.26295e-06
-8.55189e-07
1.36328e-06
-7.57791e-07
1.44e-06
-6.4231e-07
1.48645e-06
-5.03928e-07
1.49735e-06
-3.52851e-07
1.46759e-06
-1.98741e-07
1.39064e-06
-4.12957e-08
1.25952e-06
1.38781e-07
1.07604e-06
3.94939e-07
8.88718e-07
8.47102e-07
8.63563e-07
1.7046e-06
1.02188e-06
2.5985e-06
1.19175e-06
2.75841e-06
1.18226e-06
1.95096e-06
8.31719e-07
8.15535e-07
-2.10499e-07
1.94758e-07
-1.18667e-06
3.78613e-07
-1.3295e-06
5.5124e-07
-1.36487e-06
7.16369e-07
-1.35416e-06
8.7144e-07
-1.28802e-06
1.01431e-06
-1.1885e-06
1.1435e-06
-1.07911e-06
1.25672e-06
-9.68405e-07
1.35097e-06
-8.52044e-07
1.4203e-06
-7.11635e-07
1.45796e-06
-5.41591e-07
1.45926e-06
-3.5415e-07
1.42003e-06
-1.59519e-07
1.33552e-06
4.3215e-08
1.20254e-06
2.71761e-07
1.03021e-06
5.67272e-07
8.70966e-07
1.00635e-06
8.5945e-07
1.71612e-06
1.03628e-06
2.42167e-06
1.23707e-06
2.55868e-06
1.23756e-06
1.95051e-06
9.48502e-07
1.10461e-06
7.38004e-07
-8.53997e-07
8.52415e-07
-3.3491e-07
-5.21566e-07
1.34298e-07
-4.72237e-07
3.9531e-07
-2.63438e-07
4.91736e-07
-9.78196e-08
4.91984e-07
-2.46525e-10
4.86424e-07
5.56218e-09
6.41255e-07
-1.5483e-07
1.15535e-06
-5.11472e-07
1.80692e-06
-6.46564e-07
1.60012e-06
2.05779e-07
3.51955e-07
1.24669e-06
-1.93119e-06
2.28059e-06
-2.55805e-06
6.01844e-07
-3.24304e-07
-2.25422e-06
1.86666e-06
-2.19129e-06
2.81593e-06
-9.49594e-07
2.18306e-06
6.29324e-07
2.17497e-06
-2.7061e-07
1.12144e-06
-9.77384e-08
-6.96032e-07
2.82171e-08
-5.9819e-07
9.24068e-08
-3.27626e-07
1.02595e-07
-1.08006e-07
8.0865e-08
2.14194e-08
9.53808e-08
-8.98585e-09
2.39598e-07
-2.99845e-07
5.83372e-07
-8.57647e-07
8.70844e-07
-9.36241e-07
5.63272e-07
5.12317e-07
-3.26182e-07
2.13512e-06
-1.39958e-06
3.30566e-06
-1.07018e-06
2.47404e-07
2.50355e-07
-3.57507e-06
1.58432e-06
-3.52557e-06
2.14359e-06
-1.50919e-06
1.90761e-06
8.65151e-07
4.07449e-06
9.81763e-08
1.03304e-06
-7.01172e-09
-5.90959e-07
-7.21193e-08
-5.33068e-07
-1.15436e-07
-2.84307e-07
-1.66034e-07
-5.74109e-08
-2.21858e-07
7.72445e-08
-2.36696e-07
5.84668e-09
-1.57903e-07
-3.78642e-07
1.0617e-08
-1.02608e-06
1.11659e-07
-1.03658e-06
-2.10921e-07
8.35547e-07
-7.37052e-07
2.6204e-06
-8.59164e-07
3.40772e-06
-2.87229e-07
-3.42314e-07
4.99785e-07
-4.36241e-06
1.3411e-06
-4.3672e-06
1.5912e-06
-1.7596e-06
1.41921e-06
1.03683e-06
5.48562e-06
1.84027e-07
8.48993e-07
-3.30624e-08
-3.73935e-07
-1.97969e-07
-3.68208e-07
-3.08441e-07
-1.73829e-07
-4.0076e-07
3.49086e-08
-4.88192e-07
1.64677e-07
-5.4866e-07
6.67253e-08
-5.59473e-07
-3.67455e-07
-5.43281e-07
-1.04175e-06
-5.39203e-07
-1.02875e-06
-7.5867e-07
1.03771e-06
-9.16104e-07
2.7529e-06
-5.00325e-07
2.99168e-06
1.1103e-07
-9.42405e-07
5.77878e-07
-4.82888e-06
1.09074e-06
-4.88038e-06
1.10843e-06
-1.77761e-06
9.45809e-07
1.19913e-06
6.46009e-06
1.09317e-07
7.39643e-07
-1.35644e-07
-1.28987e-07
-3.4987e-07
-1.53988e-07
-5.00426e-07
-2.32802e-08
-6.22549e-07
1.57032e-07
-7.40463e-07
2.8265e-07
-8.45978e-07
1.73582e-07
-9.42191e-07
-2.72844e-07
-1.06151e-06
-9.23144e-07
-1.14323e-06
-9.0666e-07
-1.14521e-06
1.03926e-06
-9.51695e-07
2.55899e-06
-2.82623e-07
2.32216e-06
2.97747e-07
-1.56042e-06
4.87504e-07
-5.01785e-06
7.62913e-07
-5.15615e-06
6.53243e-07
-1.64104e-06
5.28243e-07
1.32758e-06
6.98834e-06
-3.78944e-09
7.43454e-07
-2.79407e-07
1.46632e-07
-5.19433e-07
8.60309e-08
-6.92327e-07
1.49633e-07
-8.33449e-07
2.98118e-07
-9.75444e-07
4.24742e-07
-1.11709e-06
3.16286e-07
-1.27525e-06
-1.15666e-07
-1.49182e-06
-7.08168e-07
-1.68164e-06
-7.05361e-07
-1.44975e-06
8.91175e-07
-9.86657e-07
2.09548e-06
-1.89848e-07
1.52504e-06
2.37519e-07
-1.98779e-06
2.18364e-07
-4.9987e-06
3.06012e-07
-5.23945e-06
2.34217e-07
-1.56947e-06
1.66657e-07
1.39412e-06
7.155e-06
-1.17651e-07
8.61103e-07
-4.44754e-07
4.73735e-07
-6.96008e-07
3.37283e-07
-8.80124e-07
3.33847e-07
-1.03069e-06
4.48618e-07
-1.18471e-06
5.78697e-07
-1.34715e-06
4.78579e-07
-1.53736e-06
7.4555e-08
-1.7921e-06
-4.53422e-07
-1.9922e-06
-5.0242e-07
-1.7008e-06
6.35129e-07
-1.06057e-06
1.52195e-06
-2.58465e-07
7.55232e-07
-1.60311e-08
-2.23022e-06
-2.09101e-07
-4.80563e-06
-2.71166e-07
-5.17699e-06
-2.46631e-07
-1.59439e-06
-2.62673e-07
1.38914e-06
6.89232e-06
-3.15975e-07
1.17708e-06
-6.20763e-07
7.78521e-07
-8.69286e-07
5.85805e-07
-1.05968e-06
5.24245e-07
-1.21225e-06
6.01186e-07
-1.36572e-06
7.32173e-07
-1.52705e-06
6.39906e-07
-1.71938e-06
2.67633e-07
-1.95813e-06
-2.09969e-07
-2.11637e-06
-3.46677e-07
-1.83834e-06
3.54366e-07
-1.1588e-06
8.43138e-07
-4.67702e-07
6.41284e-08
-3.75808e-07
-2.32212e-06
-7.15382e-07
-4.46606e-06
-9.77671e-07
-4.91403e-06
-7.92613e-07
-1.77994e-06
-7.12869e-07
1.23924e-06
6.17946e-06
4.32213e-07
-1.61889e-06
8.22189e-07
-1.71949e-06
1.18276e-06
-1.72545e-06
1.5243e-06
-1.69571e-06
1.84181e-06
-1.60554e-06
2.13262e-06
-1.47931e-06
2.39306e-06
-1.33954e-06
2.61437e-06
-1.18971e-06
2.79183e-06
-1.0295e-06
2.91275e-06
-8.32552e-07
2.96399e-06
-5.92817e-07
2.9404e-06
-3.30553e-07
2.83807e-06
-5.71918e-08
2.65488e-06
2.26401e-07
2.39401e-06
5.32627e-07
2.08793e-06
8.73347e-07
1.84359e-06
1.25069e-06
1.85598e-06
1.70374e-06
2.16779e-06
2.10987e-06
2.49541e-06
2.23106e-06
2.47783e-06
1.96809e-06
2.02853e-06
1.55392e-06
1.39442e-06
1.37211e-06
3.78857e-07
-1.27209e-06
7.13265e-07
-1.31651e-06
1.02514e-06
-1.31355e-06
1.33016e-06
-1.30376e-06
1.62005e-06
-1.24694e-06
1.8952e-06
-1.16773e-06
2.14468e-06
-1.07238e-06
2.34913e-06
-9.54841e-07
2.49405e-06
-8.16095e-07
2.57479e-06
-6.46774e-07
2.59558e-06
-4.43049e-07
2.56207e-06
-2.1552e-07
2.47743e-06
2.8777e-08
2.33823e-06
2.82315e-07
2.15836e-06
5.4994e-07
1.9513e-06
8.40626e-07
1.77537e-06
1.42662e-06
1.77763e-06
1.70148e-06
1.95441e-06
1.93309e-06
2.07393e-06
2.11154e-06
1.89041e-06
2.1516e-06
1.37009e-06
2.07424e-06
2.02892e-06
7.35584e-07
8.16922e-08
-8.53352e-09
1.16521e-07
-6.23041e-09
1.64797e-07
-5.3648e-09
1.99935e-07
-1.80393e-09
2.62318e-07
-7.25119e-09
3.4733e-07
-1.6232e-08
4.30588e-07
-1.52878e-08
5.02265e-07
-1.33745e-08
5.52471e-07
-1.05675e-08
5.89475e-07
-8.75951e-09
6.20959e-07
-5.2454e-09
6.4656e-07
-2.5596e-09
6.60664e-07
1.27926e-10
6.60609e-07
4.17778e-10
6.52443e-07
0
6.53123e-07
0
6.45003e-07
0
7.0091e-07
1.85055e-08
7.48051e-07
4.42727e-08
7.73514e-07
6.7441e-08
6.86659e-07
9.11033e-08
4.34047e-07
1.18749e-07
1.45009e-07
1.30601e-07
6.43588e-10
-9.65149e-09
7.15935e-10
-6.79118e-09
7.15373e-10
-5.85867e-09
-1.76412e-10
-1.38476e-09
-1.19377e-10
-7.80264e-09
4.03237e-10
-1.72318e-08
6.80427e-10
-1.59605e-08
8.51549e-10
-1.38202e-08
9.34172e-10
-1.08196e-08
1.04157e-09
-8.95482e-09
1.06945e-09
-5.31425e-09
1.10805e-09
-2.61371e-09
1.16708e-09
0
1.29505e-09
0
1.5771e-09
0
2.32713e-09
0
5.00034e-09
0
6.21567e-09
0
3.12682e-09
7.65759e-10
4.11607e-09
0
6.07997e-09
0
5.43849e-09
0
0
-1.21586e-09
-2.49306e-09
-5.85932e-09
-6.96859e-10
-7.2955e-09
-4.27604e-10
-5.55031e-09
0
-3.4477e-10
-9.80642e-11
-8.86478e-09
-1.22018e-10
-7.00784e-09
-1.48458e-09
-2.88982e-09
-1.9579e-09
-4.00074e-09
-3.07087e-09
-4.5247e-09
-5.39262e-09
-4.75274e-09
-3.1482e-09
-3.33722e-09
1.97301e-09
-3.48283e-09
8.00692e-09
-1.77787e-09
1.30812e-08
-8.22134e-10
1.68872e-08
2.8763e-10
2.0703e-08
2.08861e-10
2.84331e-08
-3.71202e-09
2.57761e-09
1.33894e-09
4.50335e-09
1.00936e-09
5.03214e-09
1.01168e-10
2.80892e-09
1.23537e-11
3.93312e-10
0
3.40226e-09
-1.6052e-09
-2.53002e-10
-1.86735e-09
-1.26372e-10
-2.90116e-09
2.2646e-09
-3.74802e-09
8.43172e-09
-1.13873e-09
7.68625e-09
-8.82409e-10
2.80096e-10
0
1.24698e-11
0
-4.14045e-10
1.17941e-13
-8.66393e-10
-1.09095e-13
-1.29e-09
-1.34634e-14
-1.42669e-09
-1.03789e-13
-7.84275e-10
-2.52645e-12
4.74911e-10
-4.08414e-12
1.37013e-09
-5.64727e-13
1.60927e-09
-2.5713e-12
8.41942e-10
0
-2.69e-10
-4.35384e-10
2.87338e-11
5.76906e-11
6.72319e-10
2.52518e-09
-9.94655e-10
6.89235e-10
-3.53806e-09
0
-2.48102e-09
0
2.15981e-09
-3.53433e-09
3.25812e-10
-5.36674e-15
1.52143e-10
-8.88214e-14
2.89512e-10
-2.53752e-13
8.82182e-10
-6.82746e-14
0
-2.18436e-13
9.32983e-11
0
3.32514e-15
4.80695e-12
1.12333e-13
0
1.442e-15
-8.37691e-16
-1.24535e-15
-1.32993e-14
-4.14934e-15
-1.03519e-13
-7.8233e-15
-2.52535e-12
-1.13624e-14
-4.07921e-12
-1.98597e-14
-5.57682e-13
-2.60383e-12
4.45209e-15
-5.26962e-12
5.18114e-15
-3.70307e-10
0
-1.44432e-09
1.39549e-13
-6.15283e-10
0
-5.11379e-10
2.49628e-10
-4.05788e-10
0
-1.23432e-09
3.15854e-10
3.06271e-10
-1.66606e-09
1.95424e-16
-7.85654e-15
8.55974e-16
-9.17886e-14
7.78938e-16
-2.55716e-13
-8.03218e-16
-5.47059e-14
-2.0247e-13
-4.6404e-15
-9.97319e-12
0
-1.602e-13
1.69295e-11
3.22445e-15
4.15466e-12
-7.72809e-16
1.80261e-15
-1.19411e-14
-4.76472e-15
-3.75221e-13
-4.9896e-13
-3.36234e-12
-4.69113e-12
-5.42247e-12
-2.23076e-12
-6.61268e-13
3.29572e-13
-7.76465e-13
1.82782e-14
-1.06891e-12
2.07881e-13
-2.95943e-10
1.12972e-10
-1.06334e-09
8.73075e-11
-6.42569e-10
0
-1.33813e-10
0
-8.41564e-11
3.69842e-10
-6.82747e-10
4.81458e-10
9.2387e-11
-9.30417e-10
1.69157e-16
-6.54831e-15
-4.80998e-15
-2.64534e-13
-2.43784e-14
-5.51255e-13
-8.83404e-15
-1.36387e-13
0
-9.734e-16
-4.59496e-13
-7.01389e-17
-9.1756e-14
5.63225e-16
-1.85137e-14
1.59026e-14
0
5.62817e-15
-5.55143e-15
-8.88575e-17
-8.18833e-12
-3.73342e-13
-1.0523e-11
-1.86488e-12
-1.23229e-11
7.51504e-14
-4.43096e-13
1.56081e-12
-5.53731e-13
2.178e-14
0
1.36707e-13
-2.38829e-10
0
-3.79754e-10
0
-2.70374e-10
2.46748e-12
-1.56481e-10
1.44319e-10
-3.63981e-10
2.30065e-10
-2.9577e-10
3.30141e-12
0
-1.70119e-10
-1.14688e-14
-8.53554e-15
-9.86436e-14
-4.06345e-13
-7.55618e-14
-4.31969e-13
-1.73334e-15
-1.23227e-13
-1.99345e-15
-7.14374e-16
-1.96813e-15
-9.65963e-17
-1.49016e-15
5.56952e-17
-1.77318e-15
5.08815e-15
0
1.98476e-13
0
2.79684e-14
-1.12287e-11
1.00975e-13
-1.33031e-11
7.15027e-13
-1.61821e-12
1.00473e-12
-7.64566e-14
4.24082e-15
-1.83084e-13
2.11585e-14
-4.87469e-13
1.15773e-13
-5.41109e-13
5.64859e-15
-1.50092e-12
0
-4.65979e-11
0
-6.52183e-11
0
-3.24919e-12
0
-2.53527e-13
3.26436e-13
1.56216e-14
-2.92555e-13
-1.55615e-14
-4.31355e-15
-1.19278e-13
-1.07474e-13
-1.93162e-13
-2.15716e-13
-1.49992e-15
-4.08144e-14
-1.74483e-15
-4.70572e-16
-1.79171e-15
-5.08028e-17
-1.9908e-15
2.55884e-16
-7.76265e-13
2.18172e-13
-6.21763e-12
6.34822e-13
-7.02755e-12
1.35744e-12
-4.45283e-12
6.39942e-13
-5.4358e-13
1.55572e-13
-3.80637e-14
1.05709e-14
-5.69272e-14
8.24012e-15
-5.9968e-14
1.46617e-14
-1.35011e-14
3.88814e-16
-3.91892e-15
4.16112e-15
-3.22517e-13
6.22565e-13
-4.07843e-12
6.96157e-12
-2.49683e-12
0
-8.86492e-14
0
-6.37717e-14
3.07213e-13
2.95346e-14
-7.79066e-14
-1.19524e-15
-3.95813e-15
-3.19238e-14
-3.14361e-15
-2.8599e-14
-1.51345e-15
-1.72005e-15
-1.75128e-15
-1.67465e-15
-5.17061e-16
-1.79318e-15
7.66737e-17
-1.868e-13
2.17634e-15
-6.85274e-12
7.06116e-13
-7.22224e-12
1.47819e-12
-6.54543e-12
1.15451e-12
-1.6464e-13
8.29356e-14
-1.41699e-14
1.98013e-15
-8.57978e-15
8.41978e-16
-8.26113e-15
2.72625e-15
-5.72861e-16
4.12993e-16
-2.10533e-16
1.36003e-16
-8.67468e-17
4.34576e-15
-9.44088e-12
3.44629e-12
-1.52916e-11
1.17783e-11
-2.72133e-11
1.19683e-11
-1.25566e-11
1.06208e-11
-9.88595e-14
3.98337e-12
2.89466e-14
-9.83136e-14
-1.48956e-15
-3.40053e-15
-8.71163e-17
-3.7523e-14
-1.27641e-16
-2.10858e-15
-2.48615e-15
-3.5752e-17
-2.91078e-15
-2.31178e-17
0
9.15019e-16
-1.45885e-13
4.97016e-15
-3.79688e-12
2.49635e-13
-5.40869e-12
4.37575e-13
-7.82721e-13
0
-8.72153e-15
0
-1.21544e-14
2.28435e-15
-7.67308e-15
4.2306e-15
-6.75698e-16
2.87341e-15
-3.00669e-16
1.35758e-16
-3.74124e-16
1.61639e-16
-2.79771e-15
6.76638e-15
-2.28679e-11
3.12949e-12
-2.19377e-11
1.08951e-11
-1.98609e-11
9.93856e-12
-1.66143e-11
7.42113e-12
-5.30242e-14
4.13902e-12
2.74222e-14
-5.15416e-14
-7.99539e-14
-4.95293e-14
-5.20499e-14
-1.60828e-13
-8.13909e-16
-6.09959e-15
-1.49984e-15
3.39025e-19
0
3.93585e-16
-1.30718e-14
3.99646e-15
-2.98774e-13
3.65177e-14
-1.27664e-13
0
-9.34026e-15
0
-1.95117e-15
0
-5.58605e-15
2.40844e-16
-8.92994e-15
2.51853e-15
-4.23129e-15
2.74825e-15
-3.73717e-16
3.49163e-16
-2.64953e-16
1.2991e-16
-2.77624e-16
1.26513e-16
0
5.63851e-16
-3.98904e-13
0
-1.05356e-11
0
-1.72875e-11
1.96466e-12
-5.59017e-12
1.1519e-12
-5.71305e-14
0
2.51344e-14
-5.48835e-14
-1.64747e-13
-4.06514e-14
-4.32873e-14
-5.81134e-14
-3.01381e-15
1.73008e-15
-3.69907e-15
3.10069e-17
-1.04484e-14
1.41664e-15
-1.9154e-14
4.66284e-15
-2.46766e-15
0
-5.98609e-16
0
-1.8488e-16
3.25125e-17
-3.57117e-16
2.07372e-17
-1.72398e-15
1.1588e-16
-1.57402e-15
1.84362e-16
-3.83092e-16
6.59555e-17
-2.53158e-16
3.81904e-17
-2.3902e-16
1.11279e-16
-2.29841e-16
1.12749e-16
-2.3095e-16
1.1362e-16
-4.29158e-15
9.67511e-17
-3.68838e-13
0
-3.5597e-13
0
-4.27236e-14
0
-1.35532e-13
0
5.52984e-14
-1.1976e-13
-2.33607e-13
-1.32412e-14
-1.12662e-13
4.51028e-14
-1.66527e-15
8.44649e-15
-2.34815e-15
5.67381e-17
-3.57459e-15
7.45826e-16
-2.25583e-15
4.84389e-16
-4.7759e-16
6.8e-17
-2.43782e-16
7.06357e-17
-5.15673e-17
4.33662e-17
-4.81677e-17
7.60699e-18
-6.33807e-17
1.70921e-18
-1.89021e-17
1.00384e-18
-2.80308e-17
1.27351e-19
-9.05192e-17
4.83534e-18
-1.54666e-16
3.54905e-17
-2.20774e-16
7.48916e-17
-2.10717e-16
1.00507e-16
-2.21701e-16
9.52108e-17
-3.99272e-16
7.12452e-17
-3.09651e-16
9.94544e-18
-8.71336e-16
4.54294e-18
-4.98583e-14
6.80241e-16
5.06159e-15
-7.31396e-14
-2.53404e-13
9.32098e-14
-8.54398e-15
1.59644e-13
-1.38212e-16
4.00576e-17
-8.19919e-16
8.12469e-17
-7.77173e-16
2.49266e-16
-2.51689e-16
1.06548e-16
-1.32514e-16
2.36496e-17
-6.33335e-17
1.96201e-17
-9.36782e-18
5.81269e-18
-5.99309e-19
2.68757e-18
-1.93441e-19
2.00602e-19
-3.72736e-20
8.32e-20
-2.0788e-19
2.57416e-20
-7.77459e-18
1.08142e-18
-5.74523e-17
3.08217e-18
-1.62796e-16
3.0088e-17
-2.32508e-16
8.64737e-17
-2.32259e-16
1.04388e-16
-2.18456e-16
9.2185e-17
-1.2266e-16
6.43207e-17
-1.18579e-16
3.85085e-17
-3.30616e-16
1.63372e-17
0
-1.04775e-15
-1.82773e-13
2.77194e-13
-8.98267e-17
3.16137e-13
-9.66116e-17
4.63286e-17
-1.95372e-16
5.70706e-17
-1.70313e-16
7.15966e-17
-3.6834e-17
3.64122e-17
-1.24637e-17
3.13866e-18
-2.64541e-18
2.89473e-18
8.28177e-19
7.0171e-19
3.39226e-18
-4.77596e-19
3.80131e-18
-1.87101e-18
3.21726e-18
-2.02117e-18
1.56968e-18
-1.65962e-18
-7.62073e-19
-7.88354e-19
-3.61292e-18
3.72428e-19
-3.72321e-17
6.73962e-18
-9.23146e-17
9.52154e-18
-1.16702e-16
2.18787e-17
-1.11215e-16
2.62444e-17
-9.94219e-17
2.43289e-17
-6.51339e-17
2.5141e-17
-1.72882e-17
8.5432e-18
2.68056e-18
-1.90319e-17
-1.6597e-13
4.44322e-13
-4.16876e-17
5.41448e-13
-5.55026e-17
5.94622e-17
-5.99855e-17
6.06895e-17
-5.06265e-17
6.10247e-17
-3.58729e-18
2.56278e-17
-4.91921e-19
1.46439e-18
2.39866e-18
4.08142e-21
4.09529e-18
-1.61513e-18
5.30545e-18
-2.58122e-18
5.47506e-18
-3.15677e-18
4.90351e-18
-3.09709e-18
3.81291e-18
-2.65094e-18
2.33982e-18
-1.97545e-18
1.59804e-19
-1.16118e-18
-1.61512e-18
-7.5661e-20
-3.40647e-18
7.2457e-19
-8.80718e-18
2.49305e-18
-1.33484e-17
4.61507e-19
-1.65929e-17
8.44678e-19
-1.51649e-17
1.21888e-18
-8.84043e-18
1.42189e-18
1.07656e-18
-4.69987e-18
-1.70355e-13
6.15836e-13
-1.54224e-13
5.45176e-13
-5.42258e-17
1.02233e-14
-6.50252e-17
7.07767e-17
-4.37261e-17
7.28955e-17
2.05024e-21
2.80211e-17
1.46236e-18
-1.84641e-21
3.17504e-18
-1.18639e-18
4.36368e-18
-2.35589e-18
4.95507e-18
-2.99439e-18
4.95887e-18
-3.17136e-18
4.52171e-18
-2.97945e-18
3.81911e-18
-2.56189e-18
2.98891e-18
-2.04486e-18
2.11632e-18
-1.51164e-18
1.30387e-18
-1.00781e-18
4.9145e-19
-5.8163e-19
-3.78453e-20
-2.04216e-19
-7.57042e-20
1.46007e-20
-1.46903e-19
4.61539e-20
-3.37881e-19
7.50821e-20
-5.66723e-19
1.47786e-19
2.04244e-19
-7.37126e-19
-1.63903e-13
7.80896e-13
-1.02127e-14
3.86797e-13
-9.55976e-17
1.11337e-16
-1.10431e-16
9.06244e-17
-4.86042e-17
2.09942e-16
-1.88544e-18
3.35413e-17
9.43556e-19
9.90763e-19
2.0738e-18
-8.53951e-19
2.88113e-18
-1.69637e-18
3.26237e-18
-2.15496e-18
3.31084e-18
-2.25017e-18
3.09265e-18
-2.11868e-18
2.69428e-18
-1.8433e-18
2.20941e-18
-1.49822e-18
1.71928e-18
-1.14554e-18
1.27515e-18
-8.28838e-19
8.99141e-19
-5.69084e-19
5.98487e-19
-3.69741e-19
3.89338e-19
-2.26056e-19
2.36825e-19
-1.35133e-19
1.11425e-19
-7.59091e-20
1.82444e-20
-3.3259e-20
-5.11184e-21
-6.18659e-21
-1.26876e-13
9.48408e-14
-1.69144e-16
7.93204e-14
-1.52419e-16
1.00858e-16
-2.29728e-16
3.74411e-16
-7.01326e-17
4.63308e-16
-6.92928e-18
6.42966e-17
-2.13786e-18
7.91032e-18
1.984e-19
2.92906e-18
9.15738e-19
-1.7984e-19
1.35627e-18
-7.5093e-19
1.57499e-18
-1.01459e-18
1.59637e-18
-1.08098e-18
1.47454e-18
-1.00862e-18
1.26461e-18
-8.58662e-19
1.02197e-18
-6.78058e-19
7.87302e-19
-5.03059e-19
5.83152e-19
-3.54211e-19
4.19206e-19
-2.38592e-19
2.94351e-19
-1.55296e-19
2.00563e-19
-9.84947e-20
1.28991e-19
-6.06289e-20
7.50121e-20
-3.52897e-20
-1.85785e-20
3.8624e-20
-3.13998e-15
3.55742e-16
-2.49535e-16
1.82417e-16
-3.39019e-16
6.25335e-16
-3.55353e-16
8.2505e-16
-1.01006e-16
6.0304e-16
-1.97516e-17
1.09392e-16
-1.26504e-17
2.91711e-17
-8.01793e-18
1.88656e-17
-3.55729e-18
1.05313e-17
-7.6587e-19
4.18943e-18
3.14015e-19
1.18823e-18
5.45736e-19
-2.33772e-19
6.14474e-19
-3.69821e-19
5.82271e-19
-3.79236e-19
4.99414e-19
-3.26748e-19
3.99055e-19
-2.53879e-19
3.01205e-19
-1.82771e-19
2.18639e-19
-1.2346e-19
1.54794e-19
-7.96118e-20
1.07584e-19
-4.96963e-20
7.26855e-20
-3.02144e-20
4.61495e-20
-1.76803e-20
-9.56334e-21
2.6418e-20
-3.78613e-17
3.47449e-16
-1.63399e-16
2.44361e-16
-3.26616e-16
8.50196e-16
-3.35762e-16
9.56301e-16
-1.09926e-16
6.48713e-16
-3.90223e-17
1.4176e-16
-3.11675e-17
6.62356e-17
-2.40127e-17
4.93773e-17
-1.45617e-17
3.23135e-17
-6.57738e-18
1.66615e-17
-1.92215e-18
6.50185e-18
-1.81299e-19
1.69318e-18
1.63094e-19
2.47893e-19
2.12073e-19
-1.08426e-19
2.03662e-19
-1.26554e-19
1.72935e-19
-1.08536e-19
1.33513e-19
-8.16839e-20
9.68891e-20
-5.53328e-20
6.76588e-20
-3.47798e-20
4.62517e-20
-2.06867e-20
3.11412e-20
-1.17686e-20
2.02111e-20
-6.36028e-21
-3.10309e-21
1.18638e-20
-3.00004e-17
3.31981e-16
-1.4147e-16
2.93332e-16
-2.8814e-16
8.92896e-16
-2.23701e-16
1.01396e-15
-9.62552e-17
5.31477e-16
-5.61563e-17
1.58476e-16
-4.967e-17
1.07731e-16
-4.1575e-17
8.52611e-17
-2.89542e-17
5.94703e-17
-1.53202e-17
3.48308e-17
-5.74292e-18
1.54078e-17
-1.31355e-18
4.82678e-18
-9.0933e-20
9.19935e-19
5.90875e-20
6.16632e-20
7.01349e-20
-3.82942e-20
6.56276e-20
-3.99723e-20
5.2147e-20
-3.25342e-20
3.76667e-20
-2.21365e-20
2.56127e-20
-1.33877e-20
1.68106e-20
-7.3682e-21
1.08763e-20
-3.70025e-21
6.95927e-21
-1.64128e-21
-5.36069e-22
4.1312e-21
-2.25096e-17
3.874e-16
-8.27535e-17
2.70158e-16
-1.73144e-16
4.76258e-16
-1.59929e-16
5.48769e-16
-7.19669e-17
2.89911e-16
-6.25504e-17
1.64959e-16
-6.02119e-17
1.38502e-16
-5.2471e-17
1.17129e-16
-3.98587e-17
8.39224e-17
-2.36484e-17
5.31812e-17
-9.67037e-18
2.54957e-17
-2.2823e-18
8.18203e-18
-2.20295e-19
1.43785e-18
1.29652e-20
9.23635e-20
2.13721e-20
-9.3845e-21
2.24321e-20
-1.33825e-20
1.83129e-20
-1.19601e-20
1.30954e-20
-8.11474e-21
8.60624e-21
-4.64048e-21
5.34529e-21
-2.28039e-21
3.21591e-21
-9.20948e-22
1.93396e-21
-2.32347e-22
2.5881e-23
1.14132e-21
-1.56095e-17
7.39837e-16
-2.79307e-17
2.84968e-16
-4.25558e-17
3.83996e-16
-5.00439e-17
3.28122e-16
-5.10632e-17
1.95832e-16
-5.46688e-17
1.63964e-16
-5.75852e-17
1.47899e-16
-5.43218e-17
1.351e-16
-4.33098e-17
1.02932e-16
-2.73007e-17
6.67232e-17
-1.12399e-17
3.27833e-17
-2.35254e-18
9.93645e-18
-1.7905e-19
1.49104e-18
2.52565e-21
8.91573e-20
6.13519e-21
-2.12089e-21
7.01613e-21
-4.3817e-21
5.82848e-21
-4.16738e-21
4.11656e-21
-2.77522e-21
2.60137e-21
-1.4717e-21
1.51227e-21
-6.0853e-22
8.26021e-22
-1.50202e-22
4.40371e-22
1.51737e-23
3.31616e-23
2.49345e-22
-1.25862e-17
3.19228e-15
-2.12914e-17
2.96133e-16
-2.74329e-17
3.92905e-16
-3.23039e-17
3.36171e-16
-3.73302e-17
2.04157e-16
-4.13924e-17
1.6301e-16
-4.62382e-17
1.50695e-16
-4.67551e-17
1.38532e-16
-3.90231e-17
1.1257e-16
-2.50816e-17
7.30096e-17
-9.87381e-18
3.53473e-17
-1.76547e-18
1.00819e-17
-8.92686e-20
1.29604e-18
5.12168e-22
3.85673e-20
1.73005e-21
-5.26663e-22
2.03467e-21
-1.48796e-21
1.68242e-21
-1.41993e-21
1.15029e-21
-9.0233e-22
6.87906e-22
-4.24293e-22
3.69346e-22
-1.2793e-22
1.79704e-22
3.42891e-24
8.12895e-23
1.73532e-23
1.71319e-23
4.05916e-23
0
1.1011e-14
-3.0597e-14
3.23348e-13
-3.44282e-14
2.7863e-12
-2.32326e-17
1.90517e-12
-3.14148e-17
2.15564e-16
-2.81269e-17
1.62906e-16
-3.2528e-17
1.47922e-16
-3.16724e-17
1.40336e-16
-2.90486e-17
1.14301e-16
-1.87055e-17
7.40485e-17
-6.97314e-18
3.54734e-17
-9.4209e-19
9.14795e-18
-2.51147e-20
7.51887e-19
9.33961e-23
9.99678e-21
4.49721e-22
-1.27768e-22
5.27792e-22
-5.07165e-22
4.22883e-22
-4.72082e-22
2.73857e-22
-2.77824e-22
1.51694e-22
-1.09421e-22
7.29482e-23
-1.44814e-23
3.03458e-23
7.08935e-24
1.01355e-23
8.69014e-24
6.70502e-24
2.34188e-24
0
1.64342e-14
-6.68729e-14
1.39929e-12
-1.71728e-13
3.6843e-12
-1.20824e-13
3.23506e-12
-2.38365e-17
7.53685e-13
-2.2701e-17
1.64908e-16
-1.88751e-17
1.47173e-16
-1.99198e-17
1.41242e-16
-1.74425e-17
1.11614e-16
-1.10743e-17
7.18269e-17
-3.54081e-18
3.13555e-17
-3.09331e-19
6.17233e-18
-3.88488e-21
2.96527e-19
1.06108e-23
1.64441e-21
1.05053e-22
-2.23743e-23
1.1613e-22
-1.81225e-22
8.58618e-23
-1.57032e-22
5.00007e-23
-8.24256e-23
2.3605e-23
-2.47871e-23
8.61601e-24
1.2013e-24
1.7144e-24
3.70225e-24
-1.47234e-24
3.33609e-24
2.25535e-24
-2.49692e-24
1.39696e-15
1.64558e-14
7.07314e-16
1.24234e-12
-6.73324e-15
3.72554e-12
-8.30194e-15
3.26787e-12
-8.75516e-18
1.01067e-12
-7.03711e-18
1.66267e-16
-5.39629e-18
1.48567e-16
-6.50121e-18
1.36113e-16
-6.09225e-18
1.03308e-16
-3.76354e-18
6.18402e-17
-9.54213e-19
2.27363e-17
-4.97552e-20
3.12039e-18
-2.67761e-22
7.99098e-20
6.12984e-25
1.6901e-22
1.76187e-23
-2.87126e-24
1.61295e-23
-6.9022e-23
9.43673e-24
-5.21247e-23
3.47547e-24
-2.36978e-23
5.63672e-26
-4.63405e-24
-2.24354e-24
1.01961e-24
-2.64533e-24
1.40677e-24
-2.15066e-24
1.06737e-24
6.45584e-25
-1.45701e-24
1.78792e-15
1.60902e-14
3.57552e-14
4.94055e-13
1.56743e-13
3.63642e-12
1.5224e-13
3.30396e-12
0
5.58834e-13
1.69567e-17
4.7175e-16
6.7901e-18
1.48252e-16
5.55438e-18
1.26863e-16
3.13504e-18
8.97388e-17
1.2178e-18
4.73496e-17
2.03482e-19
1.33949e-17
6.87959e-21
1.10498e-18
2.43001e-23
1.29192e-20
2.16618e-24
1.09112e-23
-6.37558e-25
-1.30926e-23
-2.52326e-24
-2.64555e-23
-3.58565e-24
-1.71639e-23
-3.75694e-24
-6.6535e-24
-3.21986e-24
-5.87333e-25
-2.38382e-24
4.23203e-25
-1.56777e-24
4.33615e-25
-9.30983e-25
2.88041e-25
1.56744e-25
-5.08161e-25
2.6343e-15
1.55428e-14
9.26021e-14
1.02268e-14
2.0608e-13
5.04153e-13
6.7401e-14
1.02856e-13
0
0
0
4.87887e-16
1.68562e-17
1.60278e-16
1.40211e-17
1.14325e-16
8.59025e-18
7.11858e-17
3.274e-18
3.08084e-17
4.22934e-19
5.77752e-18
8.02399e-21
2.34182e-19
1.18671e-23
1.05324e-21
9.95029e-25
3.73279e-25
-2.30903e-24
-8.83315e-24
-3.69869e-24
-9.93183e-24
-3.44734e-24
-5.56934e-24
-2.59662e-24
-1.83481e-24
-1.70891e-24
2.25067e-27
-1.02373e-24
1.31128e-25
-5.60888e-25
1.11374e-25
-2.8376e-25
6.55056e-26
3.19421e-26
-1.33951e-25
1.27665e-15
1.70246e-14
1.38295e-15
6.23755e-15
8.15042e-15
0
3.38716e-16
0
6.71873e-17
5.56163e-17
5.223e-17
2.9619e-16
2.53818e-17
1.67021e-16
1.73985e-17
9.41717e-17
9.28727e-18
4.82977e-17
2.51365e-18
1.49662e-17
1.60387e-19
1.48342e-18
1.09135e-21
2.25577e-20
5.16202e-25
3.1712e-23
5.95022e-26
1.70992e-25
-1.86433e-24
-4.27693e-24
-2.16854e-24
-3.62157e-24
-1.68406e-24
-1.75778e-24
-1.0825e-24
-4.96571e-25
-6.14596e-25
7.6085e-27
-3.20403e-25
3.25928e-26
-1.52996e-25
2.38409e-26
-6.76304e-26
1.24025e-26
5.36556e-27
-2.79402e-26
1.54173e-15
1.60237e-14
1.12597e-15
1.0638e-14
2.87856e-16
2.19945e-15
1.35228e-16
1.03383e-15
7.96992e-17
5.15413e-16
5.09469e-17
2.71364e-16
2.84009e-17
1.30921e-16
1.54085e-17
6.28641e-17
6.10601e-18
2.41279e-17
9.08314e-19
4.30666e-18
2.1371e-20
1.69875e-19
4.21605e-23
7.78654e-22
4.44853e-24
3.53329e-25
-2.41312e-25
-5.27771e-25
-1.09177e-24
-1.9359e-24
-9.71033e-25
-1.27919e-24
-6.34165e-25
-5.33708e-25
-3.51976e-25
-1.31462e-25
-1.7463e-25
2.22493e-27
-7.97222e-26
6.5932e-27
-3.33075e-26
4.20748e-27
-1.28498e-26
1.91866e-27
7.25136e-28
-4.61934e-27
1.69147e-15
1.01084e-14
1.77782e-15
1.00406e-14
7.55679e-16
5.01345e-15
3.4662e-16
2.2811e-15
1.34906e-16
8.69439e-16
4.79756e-17
2.79073e-16
2.11259e-17
8.69755e-17
8.82389e-18
2.98211e-17
2.1141e-18
6.87682e-18
1.27727e-19
5.24609e-19
8.71975e-22
6.37139e-21
4.94031e-25
8.6126e-24
8.32498e-26
1.80834e-25
-3.74886e-25
-7.07697e-25
-5.30338e-25
-8.24694e-25
-3.72129e-25
-4.38788e-25
-2.01221e-25
-1.55508e-25
-9.4805e-26
-3.37425e-26
-4.05583e-26
3.6395e-28
-1.60627e-26
1.0829e-27
-5.81164e-27
6.02513e-28
-1.93203e-27
2.36807e-28
7.64513e-29
-5.95036e-28
9.9836e-16
1.78491e-15
1.73488e-15
3.73243e-15
1.05108e-15
3.84183e-15
4.74595e-16
2.24262e-15
1.5832e-16
8.73501e-16
4.12015e-17
2.32928e-16
1.075e-17
4.52392e-17
2.60809e-18
8.12507e-18
2.80316e-19
7.91189e-19
5.27684e-21
1.91547e-20
9.7382e-24
6.64991e-23
1.42755e-24
3.78562e-26
-8.70231e-27
-1.73944e-26
-2.3975e-25
-4.22295e-25
-2.27142e-25
-3.35669e-25
-1.28488e-25
-1.47496e-25
-5.62286e-26
-4.37427e-26
-2.17561e-26
-8.30617e-27
-7.78917e-27
2.46131e-29
-2.61868e-27
1.43343e-28
-8.0381e-28
6.86898e-29
-2.25139e-28
2.26207e-29
6.03209e-30
-5.79354e-29
1.33251e-16
2.80418e-17
5.52235e-16
2.18161e-16
6.6228e-16
7.13137e-16
3.93327e-16
7.60252e-16
1.25513e-16
3.97857e-16
2.29804e-17
9.87726e-17
3.0122e-18
1.22547e-17
2.9965e-19
8.97803e-19
1.05326e-20
2.70523e-20
5.58202e-23
1.85566e-22
3.94346e-26
2.56199e-25
1.07383e-26
2.25659e-26
-7.33633e-26
-1.42114e-25
-1.23436e-25
-2.14047e-25
-8.90343e-26
-1.32302e-25
-4.12475e-26
-4.90035e-26
-1.43006e-26
-1.20062e-26
-4.35953e-27
-1.95109e-27
-1.24684e-27
-3.72424e-29
-3.4327e-28
1.53164e-29
-8.64211e-29
6.11838e-30
-1.96722e-29
1.60403e-30
3.34145e-31
-4.06897e-30
1.75175e-18
1.32587e-20
3.0284e-17
1.11932e-18
9.32187e-17
1.84558e-17
9.55827e-17
4.35163e-17
3.95561e-17
3.6565e-17
5.91092e-18
1.11674e-17
3.64486e-19
1.03239e-18
1.10964e-20
2.99666e-20
1.07901e-22
2.71136e-22
2.11658e-25
7.4483e-25
5.8027e-26
7.4745e-28
-1.07989e-26
-2.25369e-26
-5.18289e-26