/*--------------------------------*- C++ -*----------------------------------*\
  =========                 |
  \\      /  F ield         | OpenFOAM: The Open Source CFD Toolbox
   \\    /   O peration     | Website:  https://openfoam.org
    \\  /    A nd           | Version:  9
     \\/     M anipulation  |
\*---------------------------------------------------------------------------*/
FoamFile
{
    format      ascii;
    class       volScalarField;
    location    "5.17";
    object      p;
}
// * * * * * * * * * * * * * * * * * * * * * * * * * * * * * * * * * * * * * //

dimensions      [1 -1 -2 0 0 0 0];

internalField   nonuniform List<scalar> 
2268
(
714.773
715.137
715.717
716.53
717.552
718.768
720.16
721.709
723.393
725.183
727.053
728.97
730.9
732.8
734.62
736.3
737.825
739.19
740.591
741.957
743.201
744.408
745.041
655.834
656.18
656.748
657.555
658.579
659.801
661.203
662.762
664.455
666.256
668.136
670.064
672.003
673.91
675.735
677.426
679.004
680.527
682.092
683.531
684.643
685.666
686.332
596.841
597.18
597.739
598.54
599.564
600.794
602.207
603.78
605.488
607.307
609.207
611.156
613.118
615.051
616.911
618.658
620.335
621.91
623.629
624.915
625.978
626.966
627.672
537.786
538.129
538.688
539.486
540.513
541.752
543.179
544.77
546.501
548.345
550.273
552.254
554.252
556.231
558.153
559.992
561.814
563.836
565.583
566.713
567.575
568.399
569.145
478.671
479.023
479.59
480.391
481.426
482.676
484.122
485.736
487.496
489.372
491.336
493.357
495.403
497.44
499.441
501.395
503.39
505.946
507.754
508.911
509.594
509.976
510.774
419.497
419.86
420.439
421.251
422.297
423.564
425.033
426.677
428.471
430.386
432.393
434.461
436.562
438.667
440.755
442.826
444.961
447.687
449.866
451.066
451.537
451.66
452.531
360.268
360.641
361.234
362.06
363.122
364.412
365.909
367.588
369.424
371.385
373.441
375.563
377.725
379.902
382.078
384.257
386.489
389.129
391.611
392.952
393.253
393.398
394.38
300.984
301.364
301.972
302.814
303.894
305.208
306.739
308.461
310.348
312.365
314.478
316.662
318.891
321.144
323.407
325.678
327.986
330.521
332.945
334.431
334.873
335.231
336.407
746.873
746.688
745.994
744.834
743.314
741.532
739.541
737.382
734.988
732.306
729.274
727.252
724.734
723.276
723.678
722.86
721.183
720.372
720.622
688.648
688.054
687.28
686.136
684.677
682.95
680.982
678.768
676.219
673.412
670.505
668.696
666.617
665.41
664.359
663.429
661.981
661.474
662.149
630.319
629.486
628.57
627.376
625.908
624.188
622.231
619.994
617.392
614.658
611.773
610.101
608.966
607.4
605.365
604.255
602.882
602.516
603.419
571.797
570.969
569.949
568.698
567.199
565.454
563.473
561.244
558.74
556.187
553.767
552.339
551.724
549.417
546.711
545.333
543.787
543.51
544.584
513.229
512.435
511.373
510.074
508.534
506.755
504.777
502.623
500.259
498.059
496.808
495.356
494.316
491.526
488.245
486.573
484.854
484.483
485.66
454.749
453.924
452.83
451.492
449.909
448.084
446.111
444.006
441.784
439.912
439.397
438.181
436.856
433.142
429.818
427.94
426.524
425.485
426.704
396.328
395.484
394.326
392.957
391.326
389.432
387.43
385.359
383.229
381.527
381.231
380.37
378.512
374.361
371.357
369.444
368.515
366.546
367.828
338.015
337.041
335.875
334.487
332.793
330.787
328.716
326.649
324.629
323.029
322.49
321.54
319.324
315.573
312.856
311.075
310.514
308.378
309.034
208.204
208.574
209.198
210.067
211.18
212.54
214.134
215.939
217.924
220.045
222.262
224.555
226.903
229.287
231.683
234.086
236.505
238.927
241.144
242.745
243.719
244.521
245.669
85.8186
86.2009
86.7736
87.562
88.5196
89.678
91.0604
92.6481
94.4162
96.3498
98.4276
100.624
102.9
105.209
107.523
109.812
112.139
114.624
116.901
118.708
120.142
121.519
122.989
13.2749
13.5191
13.7306
14.0458
14.4657
14.9654
15.5404
16.1957
16.9248
17.7532
18.6839
19.6929
20.7495
21.8307
22.9146
23.9784
25.056
26.3444
27.4789
28.4734
29.3073
30.0936
30.8961
-0.453858
-0.446767
-0.468344
-0.494127
-0.409953
-0.310014
-0.248657
-0.197443
-0.152012
-0.108092
-0.0798878
-0.0538071
-0.035852
-0.0286451
-0.0219584
-0.0128949
-0.0206054
-0.207847
-0.404922
-0.336624
-0.23367
-0.222727
-0.282834
-0.733257
-0.731874
-0.732472
-0.727794
-0.715845
-0.704216
-0.694579
-0.672344
-0.647882
-0.621107
-0.592653
-0.57556
-0.562649
-0.560508
-0.56568
-0.572238
-0.590475
-0.659878
-0.719353
-0.727164
-0.725943
-0.742403
-0.762674
-1.04523
-1.0461
-1.04252
-1.03446
-1.06022
-1.09474
-1.11421
-1.11902
-1.11713
-1.11258
-1.1047
-1.0942
-1.08693
-1.0848
-1.08498
-1.08404
-1.07264
-1.04567
-1.03106
-1.04604
-1.04997
-1.03856
-1.00789
-1.25619
-1.2585
-1.25964
-1.26043
-1.26617
-1.26122
-1.25996
-1.26502
-1.26986
-1.27389
-1.27832
-1.28218
-1.28507
-1.28575
-1.28444
-1.28071
-1.27714
-1.26946
-1.25622
-1.2563
-1.24986
-1.23377
-1.22053
-1.39379
-1.39329
-1.3942
-1.39699
-1.39492
-1.39298
-1.39122
-1.39405
-1.39697
-1.40013
-1.40335
-1.40615
-1.40838
-1.40953
-1.4095
-1.40862
-1.40812
-1.40642
-1.40263
-1.39826
-1.39442
-1.39293
-1.39784
-1.52035
-1.52031
-1.52114
-1.52234
-1.52196
-1.52111
-1.52077
-1.52209
-1.52409
-1.52649
-1.529
-1.53131
-1.53323
-1.5345
-1.5351
-1.5358
-1.5381
-1.53971
-1.5381
-1.53562
-1.53593
-1.54169
-1.54729
-1.64674
-1.64696
-1.64761
-1.64831
-1.64838
-1.64819
-1.64841
-1.6494
-1.65091
-1.65276
-1.6548
-1.6568
-1.65846
-1.65968
-1.66064
-1.66188
-1.66417
-1.66631
-1.66663
-1.66677
-1.66915
-1.6722
-1.67355
-1.77303
-1.77336
-1.7739
-1.77444
-1.77473
-1.77494
-1.77538
-1.77623
-1.77745
-1.77895
-1.78064
-1.7823
-1.78372
-1.78487
-1.78595
-1.78721
-1.78885
-1.79032
-1.79111
-1.79205
-1.79358
-1.79512
-1.79605
-1.89922
-1.89961
-1.9001
-1.90059
-1.90099
-1.90138
-1.90193
-1.90273
-1.9038
-1.90508
-1.90644
-1.90774
-1.90897
-1.91008
-1.91116
-1.91232
-1.91363
-1.91484
-1.91571
-1.91662
-1.91771
-1.91878
-1.91944
-2.02534
-2.02575
-2.02622
-2.0267
-2.02714
-2.02762
-2.02822
-2.02901
-2.02996
-2.03102
-2.03211
-2.0332
-2.03427
-2.0353
-2.03633
-2.03739
-2.03853
-2.03964
-2.04063
-2.04147
-2.04229
-2.04298
-2.04335
-2.15139
-2.15182
-2.15228
-2.15275
-2.15321
-2.15371
-2.15431
-2.15504
-2.15588
-2.15677
-2.15769
-2.15864
-2.15959
-2.16053
-2.16147
-2.16244
-2.16345
-2.16449
-2.16549
-2.1663
-2.16695
-2.16737
-2.16757
-2.27739
-2.27783
-2.27829
-2.27874
-2.27919
-2.27969
-2.28025
-2.2809
-2.28163
-2.28241
-2.28322
-2.28406
-2.2849
-2.28575
-2.2866
-2.28747
-2.28835
-2.28925
-2.29012
-2.29089
-2.29142
-2.29172
-2.29192
-2.40334
-2.40378
-2.40423
-2.40466
-2.4051
-2.40557
-2.40609
-2.40668
-2.40732
-2.408
-2.40872
-2.40946
-2.41021
-2.41097
-2.41173
-2.4125
-2.41327
-2.41403
-2.41475
-2.41537
-2.41585
-2.41617
-2.41638
-2.52923
-2.52967
-2.53011
-2.53052
-2.53094
-2.53138
-2.53185
-2.53238
-2.53295
-2.53355
-2.53419
-2.53484
-2.53551
-2.53619
-2.53687
-2.53754
-2.53821
-2.53886
-2.53947
-2.54
-2.54042
-2.54073
-2.54095
-2.65507
-2.6555
-2.65593
-2.65633
-2.65671
-2.65712
-2.65755
-2.65802
-2.65853
-2.65907
-2.65963
-2.66021
-2.66081
-2.66141
-2.66201
-2.66261
-2.66319
-2.66375
-2.66427
-2.66473
-2.66511
-2.6654
-2.66561
-2.78087
-2.78129
-2.78169
-2.78207
-2.78243
-2.7828
-2.7832
-2.78362
-2.78407
-2.78455
-2.78505
-2.78556
-2.78609
-2.78662
-2.78716
-2.78768
-2.7882
-2.78868
-2.78914
-2.78954
-2.78987
-2.79014
-2.79034
-2.90663
-2.90703
-2.90741
-2.90776
-2.9081
-2.90843
-2.90879
-2.90917
-2.90957
-2.91
-2.91044
-2.9109
-2.91136
-2.91184
-2.91231
-2.91277
-2.91323
-2.91365
-2.91405
-2.9144
-2.9147
-2.91494
-2.91513
-3.03234
-3.03272
-3.03308
-3.03341
-3.03371
-3.03402
-3.03434
-3.03468
-3.03504
-3.03541
-3.03581
-3.03621
-3.03663
-3.03705
-3.03747
-3.03788
-3.03827
-3.03865
-3.039
-3.03931
-3.03958
-3.0398
-3.03997
-3.15802
-3.15838
-3.15871
-3.15901
-3.15928
-3.15956
-3.15985
-3.16015
-3.16047
-3.16081
-3.16116
-3.16152
-3.16189
-3.16226
-3.16263
-3.16299
-3.16334
-3.16367
-3.16398
-3.16425
-3.16449
-3.1647
-3.16486
-3.28366
-3.28398
-3.28429
-3.28456
-3.28481
-3.28506
-3.28532
-3.28559
-3.28588
-3.28617
-3.28649
-3.28681
-3.28713
-3.28746
-3.28779
-3.28811
-3.28842
-3.28871
-3.28898
-3.28923
-3.28945
-3.28963
-3.28978
-3.40925
-3.40955
-3.40983
-3.41007
-3.4103
-3.41053
-3.41076
-3.411
-3.41125
-3.41152
-3.4118
-3.41208
-3.41237
-3.41266
-3.41295
-3.41324
-3.41351
-3.41377
-3.41401
-3.41423
-3.41443
-3.41459
-3.41473
-3.53482
-3.53508
-3.53533
-3.53555
-3.53575
-3.53596
-3.53616
-3.53638
-3.53661
-3.53685
-3.53709
-3.53734
-3.5376
-3.53786
-3.53812
-3.53837
-3.53861
-3.53884
-3.53906
-3.53926
-3.53943
-3.53958
-3.53971
-3.66036
-3.66059
-3.6608
-3.661
-3.66118
-3.66136
-3.66154
-3.66174
-3.66194
-3.66215
-3.66237
-3.6626
-3.66282
-3.66305
-3.66328
-3.66351
-3.66372
-3.66393
-3.66412
-3.6643
-3.66446
-3.6646
-3.66471
-3.78588
-3.78607
-3.78625
-3.78641
-3.78657
-3.78673
-3.7869
-3.78707
-3.78725
-3.78744
-3.78764
-3.78784
-3.78804
-3.78825
-3.78845
-3.78865
-3.78884
-3.78903
-3.7892
-3.78936
-3.7895
-3.78963
-3.78974
-3.91138
-3.91153
-3.91167
-3.9118
-3.91194
-3.91208
-3.91223
-3.91239
-3.91255
-3.91272
-3.91289
-3.91307
-3.91325
-3.91344
-3.91362
-3.91379
-3.91397
-3.91413
-3.91429
-3.91443
-3.91456
-3.91468
-3.91478
-4.03686
-4.03697
-4.03705
-4.03715
-4.03728
-4.03741
-4.03755
-4.03769
-4.03783
-4.03798
-4.03814
-4.0383
-4.03846
-4.03862
-4.03878
-4.03894
-4.0391
-4.03924
-4.03938
-4.03952
-4.03963
-4.03974
-4.03984
-4.16232
-4.16239
-4.16244
-4.16251
-4.16262
-4.16273
-4.16285
-4.16298
-4.1631
-4.16324
-4.16338
-4.16352
-4.16366
-4.16381
-4.16395
-4.16409
-4.16423
-4.16436
-4.16449
-4.16461
-4.16472
-4.16482
-4.1649
-4.28776
-4.2878
-4.28782
-4.28788
-4.28795
-4.28805
-4.28814
-4.28825
-4.28837
-4.28848
-4.28861
-4.28874
-4.28886
-4.28899
-4.28912
-4.28925
-4.28937
-4.28949
-4.2896
-4.28971
-4.28981
-4.2899
-4.28999
-4.41318
-4.41317
-4.41318
-4.41322
-4.41328
-4.41334
-4.41343
-4.41352
-4.41362
-4.41372
-4.41383
-4.41395
-4.41406
-4.41418
-4.41429
-4.4144
-4.41451
-4.41462
-4.41472
-4.41482
-4.41491
-4.415
-4.41508
-4.53856
-4.53852
-4.53851
-4.53854
-4.53857
-4.53862
-4.53869
-4.53877
-4.53886
-4.53896
-4.53906
-4.53916
-4.53926
-4.53936
-4.53946
-4.53956
-4.53966
-4.53975
-4.53985
-4.53994
-4.54002
-4.5401
-4.54018
-4.66391
-4.66382
-4.66379
-4.6638
-4.66383
-4.66388
-4.66395
-4.66402
-4.6641
-4.66419
-4.66428
-4.66436
-4.66445
-4.66454
-4.66463
-4.66472
-4.66481
-4.66489
-4.66497
-4.66506
-4.66514
-4.66521
-4.66528
-4.78922
-4.7891
-4.78903
-4.78904
-4.78908
-4.78913
-4.78919
-4.78926
-4.78934
-4.78942
-4.78949
-4.78957
-4.78965
-4.78973
-4.78981
-4.78988
-4.78996
-4.79003
-4.79011
-4.79018
-4.79026
-4.79033
-4.7904
-4.91449
-4.91433
-4.91426
-4.91427
-4.91431
-4.91437
-4.91444
-4.91451
-4.91458
-4.91465
-4.91472
-4.91478
-4.91485
-4.91492
-4.91498
-4.91505
-4.91511
-4.91517
-4.91524
-4.91531
-4.91538
-4.91545
-4.91552
-5.03971
-5.03953
-5.03947
-5.0395
-5.03956
-5.03962
-5.03969
-5.03975
-5.03982
-5.03988
-5.03994
-5.04
-5.04005
-5.04011
-5.04016
-5.04021
-5.04026
-5.04032
-5.04037
-5.04044
-5.0405
-5.04058
-5.04065
-5.16486
-5.1647
-5.16469
-5.16474
-5.16481
-5.16488
-5.16495
-5.16501
-5.16507
-5.16512
-5.16517
-5.16522
-5.16526
-5.1653
-5.16534
-5.16538
-5.16542
-5.16546
-5.16551
-5.16556
-5.16563
-5.16571
-5.16578
-5.28994
-5.28984
-5.28994
-5.29003
-5.2901
-5.29017
-5.29023
-5.29028
-5.29033
-5.29037
-5.29041
-5.29045
-5.29048
-5.29051
-5.29054
-5.29056
-5.29059
-5.29062
-5.29065
-5.29069
-5.29076
-5.29084
-5.29092
-5.41507
-5.41509
-5.41528
-5.41538
-5.41544
-5.41549
-5.41553
-5.41557
-5.4156
-5.41563
-5.41565
-5.41567
-5.41569
-5.41571
-5.41573
-5.41574
-5.41575
-5.41576
-5.41577
-5.41579
-5.41587
-5.41599
-5.41608
-5.54011
-5.54043
-5.54068
-5.54076
-5.5408
-5.54082
-5.54083
-5.54084
-5.54084
-5.54085
-5.54085
-5.54086
-5.54086
-5.54087
-5.54087
-5.54087
-5.54086
-5.54086
-5.54084
-5.5408
-5.54091
-5.54113
-5.54125
-5.66565
-5.66642
-5.6663
-5.66625
-5.6662
-5.66617
-5.66614
-5.66612
-5.6661
-5.66609
-5.66608
-5.66607
-5.66606
-5.66605
-5.66605
-5.66603
-5.66602
-5.66598
-5.66589
-5.66573
-5.66584
-5.66627
-5.66641
246.723
247.209
247.374
247.246
123.807
124.059
124.127
124.052
31.3609
31.5215
31.5703
31.5013
-0.227922
-0.186033
-0.184089
-0.21613
-0.743516
-0.740478
-0.745811
-0.757438
-1.00421
-1.00421
-1.0061
-1.00121
-1.23243
-1.23651
-1.23342
-1.22592
-1.40389
-1.40505
-1.40464
-1.40674
-1.54625
-1.545
-1.54436
-1.54548
-1.67206
-1.67108
-1.67051
-1.67058
-1.79552
-1.79513
-1.79485
-1.79476
-1.91927
-1.91912
-1.91897
-1.91886
-2.04333
-2.04327
-2.04321
-2.04313
-2.16759
-2.16759
-2.16757
-2.16754
-2.29198
-2.29201
-2.29203
-2.29203
-2.41647
-2.41651
-2.41655
-2.41658
-2.54106
-2.54111
-2.54115
-2.54119
-2.66572
-2.66578
-2.66582
-2.66586
-2.79045
-2.79051
-2.79055
-2.79059
-2.91524
-2.91529
-2.91534
-2.91537
-3.04007
-3.04013
-3.04017
-3.0402
-3.16495
-3.165
-3.16504
-3.16507
-3.28986
-3.28991
-3.28995
-3.28998
-3.41481
-3.41485
-3.41489
-3.41492
-3.53978
-3.53983
-3.53986
-3.53989
-3.66478
-3.66482
-3.66486
-3.66489
-3.7898
-3.78984
-3.78988
-3.78991
-3.91484
-3.91488
-3.91491
-3.91494
-4.03989
-4.03993
-4.03996
-4.03999
-4.16496
-4.165
-4.16503
-4.16506
-4.29004
-4.29007
-4.2901
-4.29013
-4.41513
-4.41516
-4.41519
-4.41522
-4.54023
-4.54026
-4.54029
-4.54032
-4.66533
-4.66536
-4.66539
-4.66542
-4.79045
-4.79048
-4.7905
-4.79053
-4.91557
-4.91559
-4.91562
-4.91565
-5.04069
-5.04072
-5.04075
-5.04077
-5.16583
-5.16585
-5.16588
-5.1659
-5.29097
-5.29099
-5.29102
-5.29104
-5.41612
-5.41615
-5.41617
-5.41619
-5.54129
-5.54131
-5.54133
-5.54134
-5.66645
-5.66646
-5.66647
-5.66648
246.864
245.789
244.624
243.211
241.555
239.662
237.533
235.289
233.155
231.438
230.297
228.839
226.601
223.553
221.25
219.953
219.833
218.926
218.377
123.664
122.489
121.296
119.964
118.477
116.906
115.193
113.238
111.076
108.895
106.905
105.015
103.09
101.178
99.5978
98.5884
98.3712
97.8844
96.8741
31.1832
30.4433
29.8649
29.2492
28.6224
28.028
27.3564
26.564
25.543
24.2526
22.9528
21.9042
21.0967
20.4726
19.8526
19.2764
18.9342
18.5076
18.0212
-0.327651
-0.351451
-0.382765
-0.420204
-0.335876
-0.214535
-0.32914
-0.39991
-0.438828
-0.453435
-0.457545
-0.462753
-0.466824
-0.456049
-0.435938
-0.450297
-0.503989
-0.552099
-0.565526
-0.77431
-0.764794
-0.763327
-0.76573
-0.734544
-0.684961
-0.68642
-0.690613
-0.695298
-0.700779
-0.705273
-0.712344
-0.724905
-0.734427
-0.740798
-0.752037
-0.768047
-0.78037
-0.784906
-0.984282
-0.980689
-0.979096
-0.975195
-0.987794
-1.00551
-1.00042
-1.00398
-1.00608
-1.00566
-1.00562
-1.01146
-1.01667
-1.01932
-1.02306
-1.02947
-1.03808
-1.02929
-1.03183
-1.21
-1.2168
-1.21846
-1.20599
-1.22899
-1.25138
-1.25666
-1.25761
-1.25653
-1.25599
-1.25598
-1.25479
-1.2498
-1.248
-1.24906
-1.24802
-1.24451
-1.23957
-1.23473
-1.4083
-1.41097
-1.41115
-1.40758
-1.40921
-1.40765
-1.40277
-1.40035
-1.39621
-1.39259
-1.39073
-1.38928
-1.39017
-1.3905
-1.38966
-1.38803
-1.38614
-1.38866
-1.38698
-1.54864
-1.54682
-1.54471
-1.54348
-1.53921
-1.53428
-1.52989
-1.52618
-1.52202
-1.51975
-1.51849
-1.51718
-1.51723
-1.51676
-1.51609
-1.51514
-1.5143
-1.51488
-1.51406
-1.67116
-1.67004
-1.66834
-1.66659
-1.66334
-1.65984
-1.65646
-1.65311
-1.65077
-1.65008
-1.64935
-1.64744
-1.64503
-1.6434
-1.64262
-1.64202
-1.64174
-1.6422
-1.64141
-1.79468
-1.79366
-1.79201
-1.79008
-1.78774
-1.78554
-1.78341
-1.78143
-1.78138
-1.7813
-1.77936
-1.77634
-1.77332
-1.7715
-1.77023
-1.76925
-1.76869
-1.76922
-1.76862
-1.91863
-1.91779
-1.91637
-1.91488
-1.91322
-1.91166
-1.9108
-1.91101
-1.91126
-1.90973
-1.90671
-1.90442
-1.90277
-1.90155
-1.89997
-1.89824
-1.89675
-1.89582
-1.89555
-2.04294
-2.04246
-2.04178
-2.04088
-2.03973
-2.03862
-2.0382
-2.03889
-2.03825
-2.03606
-2.03454
-2.03352
-2.03223
-2.03065
-2.02889
-2.02707
-2.02509
-2.02324
-2.02322
-2.16745
-2.16731
-2.16735
-2.16698
-2.1662
-2.16526
-2.16444
-2.16397
-2.16313
-2.16196
-2.16146
-2.1608
-2.15935
-2.15728
-2.15541
-2.15391
-2.15259
-2.15179
-2.1518
-2.29201
-2.29199
-2.29213
-2.29218
-2.29158
-2.29046
-2.28955
-2.28891
-2.28816
-2.2873
-2.28669
-2.28593
-2.28458
-2.28308
-2.28176
-2.28081
-2.28033
-2.28044
-2.28031
-2.41659
-2.41658
-2.4166
-2.41649
-2.41602
-2.41525
-2.4145
-2.41388
-2.4132
-2.41247
-2.4118
-2.41104
-2.41001
-2.40893
-2.40803
-2.40751
-2.40756
-2.40812
-2.40796
-2.54121
-2.5412
-2.54115
-2.54098
-2.54059
-2.54001
-2.53942
-2.53886
-2.53826
-2.53762
-2.537
-2.53631
-2.53551
-2.53471
-2.53409
-2.53378
-2.53386
-2.53432
-2.53425
-2.66588
-2.66587
-2.6658
-2.66563
-2.6653
-2.66485
-2.66436
-2.66387
-2.66334
-2.66279
-2.66223
-2.66164
-2.661
-2.6604
-2.65993
-2.6597
-2.65971
-2.65992
-2.65983
-2.79061
-2.7906
-2.79053
-2.79037
-2.79011
-2.78975
-2.78934
-2.78891
-2.78845
-2.78798
-2.78749
-2.78698
-2.78647
-2.78599
-2.78561
-2.78539
-2.78532
-2.78535
-2.78528
-2.91539
-2.91538
-2.91532
-2.91518
-2.91497
-2.91468
-2.91434
-2.91397
-2.91358
-2.91318
-2.91276
-2.91234
-2.91191
-2.91151
-2.91117
-2.91093
-2.91076
-2.91067
-2.91061
-3.04023
-3.04022
-3.04016
-3.04005
-3.03987
-3.03964
-3.03936
-3.03905
-3.03873
-3.03839
-3.03804
-3.03768
-3.03732
-3.03697
-3.03666
-3.03637
-3.0361
-3.03589
-3.03579
-3.1651
-3.1651
-3.16506
-3.16496
-3.16482
-3.16463
-3.1644
-3.16415
-3.16388
-3.1636
-3.16331
-3.16301
-3.16271
-3.16241
-3.16211
-3.1618
-3.16143
-3.16111
-3.16082
-3.29001
-3.29002
-3.28999
-3.28991
-3.2898
-3.28965
-3.28947
-3.28927
-3.28905
-3.28882
-3.28858
-3.28834
-3.28809
-3.28784
-3.28758
-3.28728
-3.28691
-3.2866
-3.28619
-3.41496
-3.41497
-3.41495
-3.4149
-3.41481
-3.41469
-3.41455
-3.41439
-3.41422
-3.41404
-3.41385
-3.41367
-3.41348
-3.41328
-3.41309
-3.41286
-3.41258
-3.41245
-3.41212
-3.53993
-3.53995
-3.53995
-3.53991
-3.53984
-3.53976
-3.53965
-3.53953
-3.5394
-3.53926
-3.53912
-3.53899
-3.53885
-3.53872
-3.5386
-3.53847
-3.53833
-3.53837
-3.53807
-3.66493
-3.66496
-3.66496
-3.66494
-3.6649
-3.66484
-3.66476
-3.66467
-3.66458
-3.66448
-3.66439
-3.6643
-3.66422
-3.66415
-3.6641
-3.66406
-3.66406
-3.66412
-3.66386
-3.78995
-3.78998
-3.79
-3.78999
-3.78997
-3.78993
-3.78988
-3.78982
-3.78976
-3.7897
-3.78964
-3.7896
-3.78956
-3.78955
-3.78955
-3.7896
-3.78968
-3.78974
-3.78955
-3.91498
-3.91502
-3.91505
-3.91505
-3.91505
-3.91503
-3.915
-3.91497
-3.91494
-3.91491
-3.91489
-3.91487
-3.91488
-3.9149
-3.91495
-3.91504
-3.91516
-3.91521
-3.91511
-4.04003
-4.04008
-4.04011
-4.04013
-4.04013
-4.04013
-4.04013
-4.04012
-4.04011
-4.04011
-4.04011
-4.04013
-4.04016
-4.04021
-4.04028
-4.04038
-4.04047
-4.04043
-4.04022
-4.1651
-4.16515
-4.16519
-4.16521
-4.16523
-4.16524
-4.16525
-4.16526
-4.16528
-4.1653
-4.16532
-4.16537
-4.16542
-4.16548
-4.16556
-4.16564
-4.16568
-4.16552
-4.16508
-4.29018
-4.29023
-4.29027
-4.29031
-4.29033
-4.29036
-4.29038
-4.29041
-4.29044
-4.29047
-4.29052
-4.29058
-4.29065
-4.29073
-4.2908
-4.29086
-4.29086
-4.29066
-4.29015
-4.41526
-4.41532
-4.41536
-4.4154
-4.41544
-4.41547
-4.41551
-4.41555
-4.41559
-4.41564
-4.41571
-4.41578
-4.41586
-4.41595
-4.41602
-4.41606
-4.41603
-4.41579
-4.41533
-4.54036
-4.54042
-4.54046
-4.54051
-4.54055
-4.54059
-4.54063
-4.54068
-4.54074
-4.5408
-4.54088
-4.54097
-4.54106
-4.54115
-4.54122
-4.54123
-4.54114
-4.54082
-4.54029
-4.66546
-4.66552
-4.66557
-4.66562
-4.66566
-4.66571
-4.66576
-4.66581
-4.66588
-4.66595
-4.66604
-4.66614
-4.66624
-4.66634
-4.66641
-4.66641
-4.66625
-4.66585
-4.66519
-4.79057
-4.79063
-4.79068
-4.79073
-4.79078
-4.79082
-4.79088
-4.79094
-4.79101
-4.79109
-4.79119
-4.7913
-4.79142
-4.79153
-4.79162
-4.79163
-4.79146
-4.79103
-4.79032
-4.91569
-4.91575
-4.9158
-4.91584
-4.91589
-4.91594
-4.91599
-4.91605
-4.91613
-4.91622
-4.91632
-4.91644
-4.91658
-4.91673
-4.91686
-4.91691
-4.91679
-4.91637
-4.91566
-5.04081
-5.04087
-5.04091
-5.04096
-5.041
-5.04105
-5.0411
-5.04116
-5.04124
-5.04133
-5.04144
-5.04157
-5.04174
-5.04192
-5.04211
-5.04225
-5.04222
-5.04181
-5.04106
-5.16594
-5.16599
-5.16603
-5.16607
-5.16612
-5.16616
-5.16621
-5.16626
-5.16633
-5.16642
-5.16653
-5.16668
-5.16686
-5.16708
-5.16735
-5.16762
-5.16774
-5.16737
-5.16657
-5.29108
-5.29112
-5.29116
-5.29119
-5.29123
-5.29126
-5.29131
-5.29136
-5.29142
-5.2915
-5.2916
-5.29174
-5.29193
-5.29219
-5.29254
-5.293
-5.29338
-5.29308
-5.29226
-5.41621
-5.41625
-5.41628
-5.4163
-5.41633
-5.41636
-5.41639
-5.41643
-5.41648
-5.41655
-5.41664
-5.41676
-5.41693
-5.4172
-5.41761
-5.41829
-5.41914
-5.41902
-5.41838
-5.54136
-5.54138
-5.5414
-5.54141
-5.54143
-5.54145
-5.54148
-5.5415
-5.54154
-5.54158
-5.54164
-5.54172
-5.54184
-5.54204
-5.54242
-5.54326
-5.5448
-5.54527
-5.54535
-5.66649
-5.6665
-5.66651
-5.66652
-5.66654
-5.66655
-5.66656
-5.66657
-5.66659
-5.66661
-5.66663
-5.66666
-5.66671
-5.66681
-5.66703
-5.66765
-5.66945
-5.6718
-5.67362
)
;

boundaryField
{
    leftWall
    {
        type            calculated;
        value           nonuniform List<scalar> 
50
(
714.773
655.834
596.841
537.786
478.671
419.497
360.268
300.984
208.204
85.8186
13.2749
-0.453858
-0.733257
-1.04523
-1.25619
-1.39379
-1.52035
-1.64674
-1.77303
-1.89922
-2.02534
-2.15139
-2.27739
-2.40334
-2.52923
-2.65507
-2.78087
-2.90663
-3.03234
-3.15802
-3.28366
-3.40925
-3.53482
-3.66036
-3.78588
-3.91138
-4.03686
-4.16232
-4.28776
-4.41318
-4.53856
-4.66391
-4.78922
-4.91449
-5.03971
-5.16486
-5.28994
-5.41507
-5.54011
-5.66565
)
;
    }
    rightWall
    {
        type            calculated;
        value           nonuniform List<scalar> 
50
(
720.622
662.149
603.419
544.584
485.66
426.704
367.828
309.034
218.377
96.8741
18.0212
-0.565526
-0.784906
-1.03183
-1.23473
-1.38698
-1.51406
-1.64141
-1.76862
-1.89555
-2.02322
-2.1518
-2.28031
-2.40796
-2.53425
-2.65983
-2.78528
-2.91061
-3.03579
-3.16082
-3.28619
-3.41212
-3.53807
-3.66386
-3.78955
-3.91511
-4.04022
-4.16508
-4.29015
-4.41533
-4.54029
-4.66519
-4.79032
-4.91566
-5.04106
-5.16657
-5.29226
-5.41838
-5.54535
-5.67362
)
;
    }
    lowerWall
    {
        type            calculated;
        value           nonuniform List<scalar> 
62
(
744.203
744.566
745.146
745.959
746.981
748.197
749.589
751.139
752.822
754.613
756.482
758.399
760.329
762.23
764.05
765.73
767.255
768.618
770.018
771.301
772.519
773.736
774.369
745.041
686.332
627.672
569.145
510.774
452.531
394.38
336.407
309.32
309.806
309.972
309.843
746.873
688.648
630.319
571.797
513.229
454.749
396.328
338.015
776.015
775.884
775.261
774.076
772.499
770.688
768.696
766.538
764.164
761.667
758.666
756.645
753.878
752.021
752.948
752.248
750.57
749.734
749.852
)
;
    }
    atmosphere
    {
        type            calculated;
        value           nonuniform List<scalar> 
46
(
-5.72915
-5.72904
-5.72904
-5.72904
-5.72904
-5.72904
-5.72904
-5.72904
-5.72904
-5.72904
-5.72904
-5.72904
-5.72904
-5.72904
-5.72904
-5.72904
-5.72904
-5.72904
-5.72904
-5.72904
-5.72904
-5.72904
-5.72905
-5.72905
-5.72905
-5.72905
-5.72905
-5.72906
-5.72907
-5.72907
-5.72908
-5.72909
-5.7291
-5.72911
-5.72912
-5.72913
-5.72914
-5.72915
-5.72915
-5.72916
-5.72916
-5.72915
-5.72914
-5.72911
-5.72905
-5.74003
)
;
    }
    defaultFaces
    {
        type            empty;
    }
}


// ************************************************************************* //
