/*--------------------------------*- C++ -*----------------------------------*\
  =========                 |
  \\      /  F ield         | OpenFOAM: The Open Source CFD Toolbox
   \\    /   O peration     | Website:  https://openfoam.org
    \\  /    A nd           | Version:  9
     \\/     M anipulation  |
\*---------------------------------------------------------------------------*/
FoamFile
{
    format      ascii;
    class       surfaceScalarField;
    location    "41.15";
    object      phi;
}
// * * * * * * * * * * * * * * * * * * * * * * * * * * * * * * * * * * * * * //

dimensions      [0 3 -1 0 0 0 0];

internalField   nonuniform List<scalar> 
1300
(
11.2529
1.87548
-4.16869
11.2529
-5.00824
1.87548
-4.24314
4.24314
-1.18749
1.18749
5.7123
5.54056
-2.37792
2.37792
-2.82006
2.82006
-2.86015
2.86015
-1.06194
1.06194
-1.02826
1.02826
0.693111
-0.693111
-3.41806
3.41806
-1.45618
1.45618
-2.90971
2.90971
6.1281
-6.1281
-3.24822
3.24822
-0.743755
0.743755
-4.26321
15.5161
6.98965
6.98965
-2.3711
2.3711
-1.25394
1.25394
1.41034
-1.41034
9.05581
-9.05581
-4.88712
-5.88576
1.91907
-14.0613
-3.08917
-3.08917
-2.7054
2.7054
-0.829928
1.04555
3.47682
-3.47682
-0.757114
0.757114
-4.32849
0.0853549
-4.32849
4.02775
0.215386
4.02775
-1.32877
0.141279
-1.32877
4.67831
-4.67831
1.07573
0.111761
1.07573
3.9281
-3.9281
-5.71006
11.4224
5.5428
-5.32064
20.8367
-5.93222
11.4728
-3.89853
3.89853
-2.29497
-0.0829499
-2.29497
2.37963
-0.00171748
2.37963
-4.00078
4.00078
-2.61006
-0.209998
-2.61006
2.92036
-0.100296
2.92036
3.66643
-3.66643
-2.91621
0.0560607
-2.91621
2.70845
0.151705
2.70845
0.771042
1.10443
-2.64652
3.69207
-1.10443
0.0424986
1.02614
0.0357985
1.02614
-1.01453
-0.0137253
-1.01453
1.04984
-0.0215794
1.04984
0.730122
-0.0370104
0.730122
-0.75486
0.0617482
-0.75486
-8.60823
-8.97127
-3.54183
0.12377
-3.54183
-1.47421
0.0180219
-1.47421
1.49234
-0.0361542
1.49234
-2.52501
2.52501
-3.25157
0.341859
-3.25157
4.80635
1.32175
4.80635
5.04612
6.20674
16.299
-16.299
10.1709
-2.96847
-0.27975
-2.96847
-3.41387
-5.64194
3.41387
-0.165654
-0.805493
0.0617387
-0.805493
5.62659
1.36306
5.62659
2.58622
0.122227
-2.58622
0.215124
4.62617
-4.62617
1.42328
0.947819
1.42328
-1.19154
1.19154
1.12336
-0.0735234
-1.12336
-0.130582
1.38601
0.024332
1.38601
-1.40975
-0.000595711
-1.40975
7.31401
-13.1998
-7.76883
3.22861
0.18945
-3.22861
0.139438
3.56357
-0.0867511
3.56357
-3.30969
3.30969
-3.61099
0.134179
-3.61099
-0.682198
-0.0749167
-0.682198
0.841994
-0.0848791
0.841994
-4.57631
0.247817
-4.57631
-3.69152
0.439955
3.69152
0.336232
1.25005
-1.25005
-1.43657
0.107808
-1.43657
-4.65932
0.0830051
4.65932
0.0189903
-4.77224
0.0939372
-4.77224
-3.71253
0.101533
3.71253
0.215575
4.58935
1.03724
-4.58935
0.661247
-5.36948
11.5762
-5.88338
11.4262
-3.51492
-0.383605
-3.51492
4.08924
-0.190718
4.08924
2.57118
0.338532
-2.57118
0.276208
2.50597
-0.126332
2.50597
-3.94367
-0.0571137
-3.94367
3.80358
0.197199
3.80358
2.54559
-0.0396191
-2.54559
-0.0644786
2.89517
0.0251832
2.89517
3.67241
-0.00598291
3.67241
-3.53944
-0.126986
-3.53944
3.17896
-3.17896
3.08058
0.0983714
-3.08058
0.16437
-5.07402
5.07343
-0.00799932
-5.06602
1.01814
1.01814
0.768929
-0.0388068
0.768929
-0.861791
0.106932
-0.861791
8.3465
-16.1153
8.77828
-17.3865
7.53046
-21.5917
8.11518
-17.0864
3.82603
-3.82603
3.75983
0.0662059
-3.75983
0.217997
-1.45604
-0.0181625
-1.45604
-2.28801
-0.237002
-2.28801
2.85689
-0.331881
2.85689
-3.74209
3.74209
-4.12478
0.382686
4.12478
0.68157
2.95642
-0.0612421
-2.95642
-0.0120507
0.924041
0.151684
-0.924041
0.118548
4.86351
-0.237339
4.86351
-4.08522
-0.540954
-4.08522
-1.47494
0.018894
1.47494
-0.0516595
-1.25895
0.0674029
-1.25895
-5.0745
0.0084776
-5.0387
-1.40127
-1.40127
1.30414
4.9962
-3.58567
0.0462332
3.58567
-0.0221064
3.52705
0.215042
-3.52705
0.217361
-3.26327
0.0843121
3.26327
0.0464185
-0.659722
-0.022476
-0.659722
-1.0347
1.0347
-0.9176
-0.117102
0.9176
-0.0756065
1.40548
-0.155436
1.40548
1.47053
0.0218117
-1.47053
0.0339523
-5.01134
0.239093
-5.01134
4.09969
-0.0104449
4.09969
-3.94908
-0.136142
3.94908
-0.276668
-0.00372317
5.07715
-1.01441
-0.000120124
1.01441
-5.10148
5.10136
-0.665114
0.00539241
0.665114
0.103815
1.02967
0.161873
-1.02967
0.16788
3.84705
-0.0434652
-3.84705
0.0210154
-2.00715
-0.280861
-2.00715
-3.18411
-0.330813
3.18411
-0.327216
-5.11518
-0.0779362
5.19312
-5.13676
1.33688
0.0491254
-1.33688
5.15049
-1.14358
-0.106466
1.14358
-0.108877
1.60372
-0.198238
1.60372
5.12088
-0.257368
-5.12088
0.109545
-4.11722
0.173551
4.11722
-0.017532
-1.77497
-0.232178
1.77497
-0.171249
-13.1281
14.4911
7.70865
-6.28317
-6.9166
-11.9251
4.4471
7.12912
14.618
-11.8102
-9.78151
-11.6708
2.86006
-2.69218
-3.72725
3.69024
23.5919
-23.4979
-18.3992
19.0808
20.777
-20.5615
5.70885
5.71351
15.8542
-15.9371
-20.895
20.5113
15.3932
-15.6032
22.0452
-22.1023
-25.8068
25.7633
-16.0928
16.1489
-20.2944
20.1674
-21.0577
20.7811
-8.35342
-9.03309
16.5091
-16.3853
20.0087
-20.2884
-19.3858
19.7276
10.0475
4.44359
11.0848
-6.24673
11.9556
-5.22605
12.9347
8.29442
-16.6478
7.82091
-14.7375
9.05032
10.9584
-8.88466
-3.04045
-17.9699
17.8832
-17.257
17.3034
24.1246
-24.0392
-6.17283
11.8863
-5.25335
12.3825
-11.409
-6.99019
10.0872
4.53073
8.98751
7.52156
-9.17696
-2.49384
-24.7988
24.5415
-25.6599
25.119
0.100183
2.42593
-2.52611
1.35413
-0.862697
3.28863
1.99736
2.10429
2.45271
-2.29084
0.239462
-2.76558
-2.89616
-5.34037
5.44817
5.15702
-5.04526
16.5469
7.04494
16.5659
-16.7497
-6.74826
-16.5106
11.3637
7.71706
11.7464
12.0617
8.71534
12.1632
10.359
-10.3317
-0.0273066
-11.4777
21.8367
1.55464
-18.4678
-13.9371
8.84886
7.0053
8.84714
-9.89364
-6.04346
-9.61744
-11.0128
-9.88212
-11.3436
12.3158
8.19551
12.1251
-15.3119
15.2944
9.27844
6.11477
9.17815
-8.96636
-6.63684
-9.03084
27.4796
-6.67665
-20.8029
-13.1766
-12.6301
12.9794
9.06581
14.3333
11.43
14.3543
8.91279
18.5668
-17.9786
5.34846
-9.94703
-6.14579
-9.78266
9.25803
6.89085
9.40974
-11.7668
-8.52763
-11.7206
-11.987
-9.07078
11.9929
8.17449
-12.5344
-13.1255
12.6706
8.11051
7.83884
-17.6203
9.24761
-18.2807
-10.9594
-5.42591
-10.7414
10.7854
6.68371
-17.4691
-5.86248
23.6404
-12.6821
20.6
-10.9051
-9.38334
-10.9171
-14.8054
-4.58043
-14.3654
-7.98853
7.70767
-8.81998
8.4881
26.8755
-16.2211
-10.6544
-12.3784
-8.1831
11.7171
-0.632344
-12.8358
12.8085
-0.880182
12.0545
16.4981
15.8658
-10.8802
-6.37674
-10.6629
10.2702
7.03322
10.3545
16.1063
8.01825
16.3217
-16.8181
-7.22117
-16.5702
4.84084
-4.91576
5.71359
-5.69469
15.5795
9.53949
-15.3422
-9.4567
22.9305
-10.775
-12.1555
-5.11964
5.21407
-0.0944281
-1.83101
-0.476882
0.266873
-1.93095
-1.7963
1.8692
0.235092
5.44916
3.65285
-2.41437
2.48177
2.77875
2.70522
-0.190933
2.49867
-2.49328
18.9016
-11.4318
-7.46977
13.9705
-13.8875
-2.59976
-19.3274
16.7277
2.67841
3.00327
-2.94153
-3.94836
-1.392
-3.91441
2.95191
2.20511
3.10359
2.10714
3.34104
-8.10325
1.56295
6.54031
-5.99612
-3.48232
-13.3462
-6.2662
19.6124
16.6789
7.86255
-16.7885
0.277914
5.293
-5.32916
-1.59836
-11.7479
8.34785
-9.94622
-15.217
-6.46094
21.6779
-9.58077
-1.08208
9.36573
2.38065
-10.8773
-7.09265
10.7431
1.42011
-12.0645
23.9707
-11.9062
-18.4413
8.51577
13.3209
16.2328
-17.8628
9.31888
8.54388
-4.54188
7.4326
1.41454
7.30627
-19.9316
13.8881
11.3259
8.40174
-11.6644
2.04701
-17.8846
25.1723
-22.2877
-2.88465
12.8235
12.3488
13.5474
13.3281
-7.78445
21.3318
-3.61742
-18.6702
21.502
-13.1003
15.7822
-28.8825
-29.1103
10.4401
-17.9542
22.0716
-4.11739
-5.20383
-10.1081
23.1581
-2.00662
-21.1514
10.1185
-13.9293
-11.8566
25.7859
-20.606
18.4935
-6.27006
-12.2234
-12.6613
-9.441
12.4878
2.80656
-25.8718
31.2202
-7.30499
7.80889
1.36926
7.83407
10.6096
-15.9754
5.36576
9.99633
-16.2664
6.76433
-22.7397
-12.1564
24.1896
-12.0332
-17.5823
-15.7921
-1.79023
4.87384
26.3464
-16.3039
12.113
4.1909
8.46173
1.89274
-8.5601
-1.22256
0.968047
16.0864
-17.0545
10.3778
10.5
11.7044
4.38206
10.7703
7.11295
-10.7481
-0.972418
-14.7928
5.722
-6.61829
-14.5742
20.2962
-16.2679
1.69367
-10.3032
-13.9906
24.2938
-16.449
11.4255
12.5453
18.4587
-19.615
5.62439
-9.74633
-9.86865
10.6435
-17.2618
7.49834
12.7979
15.6088
2.48333
12.7459
11.4437
-19.4296
1.14892
18.9653
-16.4714
3.88777
10.4665
-16.0007
0.208688
-10.5327
2.66457
-15.3467
-14.8045
16.5298
-21.1102
-12.3527
13.5685
2.75317
-13.9048
-0.460626
-4.9537
-3.03483
-5.18588
-3.27615
-5.54383
-11.0606
-1.92684
-9.13376
5.78083
-6.68578
-4.65786
7.013
1.4751
-4.93514
4.82867
-5.57977
5.38154
-0.210164
13.0186
15.6556
7.4725
-8.47674
15.9492
-15.6087
23.627
-29.7251
14.1163
15.9487
-23.1699
-13.7764
2.70101
2.13983
2.61613
13.4468
-14.4138
0.967047
-13.2783
17.597
-4.3187
-19.5794
6.30111
-6.1326
5.18665
0.526933
5.16849
1.41637
6.84595
-8.26233
-4.27832
-4.32998
-9.16327
-13.8594
23.0227
4.73538
-13.1051
8.3697
-12.0624
16.7978
0.0784944
-13.1836
16.9846
-10.1387
17.5116
-11.9839
5.52765
12.7918
22.3468
-9.55506
16.2482
-6.70868
7.06792
-16.623
-6.79147
-11.2883
18.1791
-13.0055
14.6992
-1.12467
15.8239
-13.7772
3.0022
-2.07285
8.42716
8.64228
16.8088
-12.4267
11.9697
-18.6783
-4.65331
-16.195
-3.39716
1.01846
-13.8253
12.8068
12.0433
-11.0249
-3.24214
8.98388
-5.74174
5.68171
-2.84825
-2.83346
-1.84635
-3.06941
1.86883
0.629839
6.31155
0.489155
-3.33741
-2.00412
-1.90031
10.3743
8.52727
-3.83176
3.73734
3.56489
-0.561623
0.958716
2.14488
4.58708
-3.62837
0.678103
3.90898
-2.26343
3.82769
1.46531
-3.8495
-0.0649092
-3.40812
11.756
3.13218
-5.3373
1.70893
2.38219
-13.814
19.7414
-11.4153
-8.32606
22.1236
3.06361
-14.4789
16.2638
-13.5854
8.10352
-14.3697
-6.37541
-19.9608
-12.9159
-10.7095
19.0792
-12.3132
20.1757
3.8622
-20.4537
24.3159
-12.7398
6.27883
-9.44304
10.9084
-4.05803
-5.38501
11.2656
10.4123
-11.0535
-0.694357
0.212056
8.41919
-8.20714
-1.52702
-7.52314
-16.4089
17.829
-8.25568
17.5746
7.69356
-7.63403
25.2086
6.56495
-14.199
-11.8763
-12.9584
-5.6551
10.5777
-1.7963
-7.23454
-14.0197
7.27416
0.0321116
-19.0809
22.0751
-2.99419
-12.0756
-1.81251
14.636
-18.1029
1.83649
-11.3386
10.7365
12.1511
12.1832
-20.8409
-0.310552
-12.6454
3.17703
-15.8224
15.5258
-6.80295
17.243
-16.004
11.3461
-14.5289
14.3584
-1.46402
14.7478
-9.382
6.05517
-15.4962
-12.6896
14.4759
-8.36117
15.8452
-10.1198
25.965
-17.4247
14.4108
11.5542
-2.71413
-8.20301
-13.9806
11.2665
0.430178
8.26425
17.8373
-10.7244
16.8649
8.92448
-18.6708
-8.33728
-25.8596
7.18881
-13.3144
-7.35658
14.5454
11.1021
12.9948
4.67674
-11.7723
17.7848
-19.575
-5.75152
-9.05297
14.5837
-3.31721
10.1463
-19.1993
-5.20033
13.1092
-0.192998
-12.9162
3.11197
-15.4647
5.13121
-20.5959
15.979
-16.4396
1.76931
-7.90191
-3.16583
-3.27471
-2.1716
-3.40817
-7.56617
5.39457
-1.26506
3.56361
-12.5204
12.3274
-5.07662
10.4712
-4.05736
-1.12853
4.22861
1.15293
11.6241
3.02497
-16.8014
-9.25435
14.6238
-5.36949
1.11997
-10.8003
3.82354
8.09972
14.0239
-24.8274
1.65752
-15.1438
-4.06949
6.20933
4.91439
16.9577
2.54387
6.55175
-0.342426
9.09563
2.2737
2.1981
-11.2168
12.1838
1.59002
15.7064
-1.88295
7.4106
3.28555
3.30357
2.02559
5.72247
2.91982
8.72467
0.462341
-3.86764
2.0678
-3.96811
-1.2696
-4.00692
-0.316678
3.72511
-4.04179
10.4958
-1.96854
5.12631
-1.88157
-4.93327
6.81485
-9.35134
-5.4949
-1.58591
-5.60615
7.31508
6.14983
-5.72917
-3.62217
2.39085
-15.3067
11.9789
-12.6732
-2.26089
22.055
-9.46135
1.25421
-3.18252
-6.26893
-7.66093
7.72584
24.1899
1.01868
12.2837
18.8477
11.755
1.03066
11.9883
-16.1057
-10.7514
-16.4163
-0.890439
13.7456
5.61519
20.7312
17.1694
13.8522
-5.34712
-24.9221
20.718
-8.53414
16.3993
-3.48311
-17.1128
14.6492
8.97785
-17.4023
0.962717
-16.1501
-24.6842
-0.344535
12.6719
-11.2796
10.1511
7.11623
2.01753
-2.42543
-0.849274
2.54254
-0.344437
8.75119
-0.18883
-8.1947
8.38353
-3.53628
2.26668
-0.429195
4.16653
6.38565
4.41711
-3.77759
-7.81939
-8.81637
-4.99765
-17.1424
2.46999
-8.61982
5.68078
-3.4141
2.84732
4.96943
10.0957
-1.60169
-9.42318
7.34343
-4.4961
5.59964
)
;

boundaryField
{
    wall-4
    {
        type            calculated;
        value           uniform 0;
    }
    velocity-inlet-5
    {
        type            calculated;
        value           uniform -11.2529;
    }
    velocity-inlet-6
    {
        type            calculated;
        value           uniform -1.87548;
    }
    pressure-outlet-7
    {
        type            calculated;
        value           nonuniform List<scalar> 8(4.16869 5.00824 10.7729 12.1422 17.5795 15.0828 17.1248 15.6456);
    }
    wall-8
    {
        type            calculated;
        value           uniform 0;
    }
    frontAndBackPlanes
    {
        type            empty;
        value           nonuniform List<scalar> 0();
    }
}


// ************************************************************************* //
