/*--------------------------------*- C++ -*----------------------------------*\
  =========                 |
  \\      /  F ield         | OpenFOAM: The Open Source CFD Toolbox
   \\    /   O peration     | Website:  https://openfoam.org
    \\  /    A nd           | Version:  9
     \\/     M anipulation  |
\*---------------------------------------------------------------------------*/
FoamFile
{
    format      ascii;
    class       volScalarField;
    location    "1.38";
    object      epsilon;
}
// * * * * * * * * * * * * * * * * * * * * * * * * * * * * * * * * * * * * * //

dimensions      [0 2 -3 0 0 0 0];

internalField   nonuniform List<scalar> 
2268
(
0.00880343
0.0555232
0.118356
0.182407
0.243144
0.297364
0.342718
0.377781
0.402138
0.416499
0.422045
0.420065
0.416658
0.414022
0.412112
0.414592
0.427134
0.44665
0.458822
0.4432
0.377266
0.24408
0.0796091
0.0182115
0.0347143
0.0581798
0.0828586
0.106878
0.128977
0.148323
0.1645
0.177504
0.187678
0.19547
0.201455
0.207314
0.212942
0.218712
0.226353
0.236721
0.24851
0.256709
0.253526
0.229274
0.174772
0.115161
0.0327963
0.0392883
0.0556866
0.0734841
0.0910728
0.107466
0.12206
0.134617
0.145255
0.154386
0.162489
0.169991
0.177456
0.184837
0.192287
0.20065
0.21047
0.221061
0.229646
0.231382
0.219077
0.186387
0.181346
0.0484948
0.048001
0.0615558
0.0769684
0.0924012
0.106863
0.119786
0.130972
0.140599
0.149174
0.157266
0.165264
0.173394
0.181602
0.189942
0.198839
0.208633
0.219057
0.228678
0.234498
0.23118
0.215847
0.255774
0.0651167
0.0586019
0.0706095
0.0850769
0.099746
0.113517
0.125783
0.13634
0.145393
0.153561
0.161535
0.169727
0.178254
0.187011
0.196003
0.205395
0.21537
0.225977
0.236811
0.24653
0.252189
0.256813
0.352072
0.0829319
0.0704486
0.0815192
0.0957792
0.1104
0.124109
0.136231
0.146519
0.155189
0.162993
0.170794
0.179074
0.187924
0.197191
0.206748
0.216601
0.226818
0.237686
0.249654
0.263003
0.278125
0.307893
0.485557
0.102425
0.0833145
0.0937854
0.108326
0.123371
0.137431
0.149745
0.159997
0.168389
0.175838
0.183442
0.191792
0.20098
0.210798
0.220946
0.231197
0.241593
0.25262
0.265418
0.281767
0.306241
0.365899
0.676504
0.124336
0.0971025
0.107188
0.122377
0.138192
0.152909
0.165681
0.176092
0.184292
0.191391
0.198802
0.207252
0.216827
0.227228
0.237975
0.248622
0.259007
0.269937
0.283035
0.301211
0.332851
0.421444
1.01911
0.0589777
0.396086
0.752125
0.974366
0.969653
0.825756
0.679558
0.599175
0.590308
0.636029
0.673247
0.654988
0.598974
0.506766
0.405918
0.313766
0.250625
0.198642
0.0766977
0.107061
0.240486
0.355448
0.418925
0.413503
0.37206
0.336328
0.322848
0.337254
0.364472
0.383325
0.381896
0.355023
0.309285
0.25645
0.203247
0.155164
0.126435
0.107085
0.196004
0.260853
0.326221
0.356678
0.343271
0.312105
0.292736
0.293318
0.310187
0.32683
0.336977
0.339823
0.32207
0.287651
0.244975
0.198508
0.158406
0.143066
0.16281
0.297924
0.312967
0.349918
0.361064
0.339385
0.307628
0.291777
0.296884
0.313964
0.328027
0.332619
0.333841
0.320433
0.291492
0.253853
0.209568
0.174651
0.167819
0.220594
0.428401
0.388576
0.39715
0.388985
0.357488
0.321929
0.305124
0.310299
0.326742
0.342327
0.34575
0.341064
0.33012
0.305118
0.270403
0.227085
0.195698
0.194692
0.283739
0.63021
0.499222
0.4661
0.432259
0.386917
0.346208
0.326155
0.329725
0.346885
0.363888
0.366789
0.358363
0.345808
0.324585
0.292108
0.249314
0.220439
0.224593
0.358857
1.00401
0.668229
0.562834
0.490661
0.424877
0.37728
0.352818
0.354782
0.373284
0.390746
0.392429
0.38486
0.36679
0.346061
0.317391
0.275319
0.24835
0.259205
0.451243
1.70712
0.897384
0.694798
0.566743
0.471902
0.414387
0.385333
0.385496
0.404896
0.422168
0.421972
0.413661
0.396284
0.368797
0.341244
0.303102
0.278147
0.297467
0.555423
0.154765
0.117064
0.127639
0.14448
0.161984
0.178172
0.192131
0.203282
0.2116
0.218482
0.225881
0.234712
0.245029
0.256376
0.267984
0.279139
0.289545
0.29973
0.312167
0.330541
0.364005
0.44279
0.696036
0.207531
0.149551
0.160938
0.180492
0.200689
0.219283
0.23549
0.248445
0.257561
0.264451
0.271968
0.281125
0.291894
0.303672
0.315364
0.326022
0.335178
0.343191
0.351433
0.363683
0.385198
0.429367
0.533552
0.27123
0.188651
0.200459
0.222296
0.244569
0.264886
0.283404
0.298984
0.310263
0.318347
0.326316
0.334697
0.343853
0.353845
0.363642
0.372221
0.378832
0.383573
0.388014
0.395008
0.408929
0.437382
0.494713
0.351127
0.239568
0.24889
0.271357
0.29356
0.312224
0.331213
0.348996
0.364579
0.377795
0.387869
0.393505
0.397287
0.402246
0.408208
0.41379
0.417607
0.419547
0.421565
0.427566
0.440488
0.467479
0.520902
0.474566
0.314294
0.31212
0.333052
0.351574
0.357569
0.371257
0.387945
0.409029
0.435412
0.453293
0.455571
0.449885
0.447083
0.448887
0.451923
0.453175
0.452895
0.454483
0.463522
0.479454
0.505071
0.552453
0.682579
0.377598
0.367791
0.363771
0.373558
0.390321
0.393589
0.407991
0.433683
0.46981
0.500824
0.509616
0.497095
0.485835
0.4868
0.489471
0.487509
0.482917
0.482998
0.489275
0.498802
0.513693
0.558364
0.835961
0.403729
0.363018
0.360617
0.374476
0.385582
0.396827
0.414311
0.439299
0.470348
0.498014
0.514451
0.516282
0.505959
0.512482
0.51098
0.503838
0.499376
0.496498
0.494328
0.500516
0.521425
0.57177
0.798121
0.40456
0.357599
0.355557
0.366648
0.380906
0.396725
0.413711
0.434804
0.458014
0.475752
0.488709
0.49743
0.502054
0.511029
0.511438
0.507017
0.504712
0.500087
0.499159
0.510451
0.542283
0.598924
0.69378
0.389776
0.351221
0.352573
0.365121
0.38003
0.394156
0.408758
0.427554
0.445293
0.457665
0.466962
0.478141
0.49133
0.502502
0.506573
0.501805
0.497715
0.495904
0.502516
0.524597
0.564485
0.613685
0.635075
0.376304
0.345658
0.350037
0.363111
0.376377
0.388512
0.401921
0.418041
0.432072
0.441761
0.448684
0.457754
0.474222
0.489838
0.494807
0.489479
0.484686
0.486123
0.496202
0.515748
0.54529
0.590796
0.61337
0.365485
0.337549
0.34249
0.355151
0.367876
0.379668
0.391957
0.404881
0.415364
0.422162
0.427444
0.433022
0.445814
0.462241
0.470443
0.469322
0.465724
0.465462
0.470858
0.48611
0.517133
0.570196
0.607071
0.354618
0.32624
0.33021
0.342003
0.354457
0.365969
0.376943
0.387101
0.394703
0.399249
0.402278
0.405519
0.412264
0.422369
0.430316
0.432549
0.431517
0.431781
0.439618
0.459601
0.496413
0.555015
0.602746
0.341973
0.311525
0.313532
0.324112
0.335918
0.346841
0.356523
0.364605
0.370267
0.373456
0.375238
0.376898
0.379994
0.384787
0.389486
0.392264
0.394528
0.399916
0.412929
0.437675
0.47774
0.536639
0.585249
0.324658
0.293081
0.293316
0.302394
0.313177
0.323246
0.331821
0.338559
0.343174
0.345841
0.347302
0.348413
0.350026
0.35257
0.355792
0.359407
0.364531
0.373624
0.389856
0.41637
0.455858
0.51057
0.55105
0.302029
0.271143
0.270263
0.277878
0.287628
0.296794
0.304506
0.310478
0.314689
0.317415
0.319199
0.320628
0.32226
0.324554
0.327803
0.332336
0.339088
0.349762
0.366605
0.391883
0.427525
0.474798
0.501483
0.274596
0.246337
0.24521
0.251765
0.260574
0.268936
0.276006
0.281564
0.285711
0.288755
0.291124
0.293246
0.295521
0.298341
0.30209
0.307215
0.314472
0.325075
0.340607
0.362619
0.392397
0.430532
0.440039
0.243535
0.219524
0.218956
0.22496
0.232909
0.240662
0.247259
0.252565
0.256741
0.260097
0.26299
0.265748
0.268664
0.272029
0.276159
0.281437
0.288434
0.298005
0.311242
0.329141
0.352473
0.381413
0.37117
0.210529
0.191785
0.192305
0.198128
0.205394
0.212651
0.218857
0.223945
0.2281
0.231619
0.234809
0.237936
0.241217
0.244856
0.249074
0.254148
0.260481
0.268653
0.279394
0.293317
0.310799
0.331795
0.303109
0.178198
0.164451
0.166134
0.171942
0.178738
0.185424
0.191271
0.196125
0.200169
0.203677
0.206925
0.210136
0.213482
0.217107
0.221159
0.225824
0.23137
0.238168
0.246681
0.257356
0.270235
0.285196
0.243171
0.148387
0.138788
0.141356
0.147088
0.15345
0.159534
0.165052
0.16964
0.173501
0.17688
0.180017
0.183114
0.186315
0.189734
0.193475
0.197663
0.202467
0.208126
0.214929
0.223187
0.232811
0.243665
0.191806
0.121675
0.115573
0.118783
0.124346
0.13027
0.135825
0.14085
0.145131
0.148788
0.151986
0.154941
0.157833
0.160794
0.163923
0.167305
0.171028
0.175207
0.179992
0.185571
0.192154
0.199653
0.20794
0.150972
0.0990503
0.0955885
0.0991222
0.10437
0.109805
0.114848
0.11936
0.123317
0.126725
0.129725
0.132491
0.135173
0.137881
0.140714
0.14375
0.147062
0.150733
0.154864
0.159581
0.165028
0.17119
0.177941
0.12127
0.0811805
0.0793266
0.0828259
0.0876019
0.0924841
0.0970158
0.101061
0.104676
0.107835
0.110644
0.113227
0.115708
0.118189
0.12076
0.123498
0.126461
0.129719
0.133352
0.137446
0.142096
0.147388
0.153191
0.101272
0.0679477
0.0667638
0.0699252
0.0741149
0.0784039
0.0824264
0.086058
0.089328
0.09225
0.0948828
0.0973121
0.0996311
0.101927
0.10428
0.106759
0.109428
0.112347
0.115583
0.119206
0.123287
0.127905
0.133009
0.0883413
0.0585466
0.0574017
0.0600512
0.0636176
0.0673203
0.0708541
0.0741024
0.0770641
0.079769
0.082244
0.0845436
0.086735
0.0888877
0.0910688
0.0933416
0.095766
0.0984003
0.101303
0.104534
0.108153
0.112216
0.116762
0.0799033
0.0519223
0.0505136
0.0526122
0.0555935
0.058764
0.0618564
0.0647606
0.0674582
0.0699721
0.072309
0.0745007
0.0765927
0.0786369
0.0806876
0.0827996
0.0850269
0.0874236
0.0900437
0.0929414
0.0961697
0.0997784
0.103809
0.0741185
0.0471421
0.0453938
0.0469953
0.0494777
0.0521995
0.0549174
0.057524
0.0600108
0.0623651
0.064586
0.0666899
0.0687056
0.0706699
0.0726246
0.0746146
0.076687
0.0788901
0.0812735
0.0838869
0.0867796
0.0899978
0.0935814
0.0699204
0.0435533
0.0414975
0.0426957
0.0447823
0.0471487
0.0495672
0.0519481
0.0542654
0.0564918
0.0586195
0.0606543
0.0626127
0.0645191
0.0664043
0.0683038
0.0702567
0.0723052
0.0744936
0.0768675
0.0794727
0.0823533
0.0855487
0.0668947
0.0407805
0.0384701
0.0393605
0.0411489
0.0432477
0.0454513
0.0476725
0.0498609
0.0519892
0.0540452
0.0560273
0.057943
0.0598075
0.0616422
0.0634741
0.065335
0.0672605
0.0692896
0.0714634
0.0738242
0.076414
0.0792718
0.0649545
0.0386416
0.0361091
0.0367742
0.038356
0.0402835
0.0423458
0.0444491
0.0465434
0.0485998
0.0506025
0.0525449
0.0544282
0.0562605
0.058056
0.0598348
0.0616222
0.0634477
0.0653451
0.067351
0.0695042
0.0718441
0.0744091
0.0637896
0.0371192
0.0343864
0.0348886
0.0363327
0.0381425
0.0401069
0.0421294
0.0441584
0.0461636
0.0481265
0.0500371
0.0518925
0.0536959
0.0554563
0.0571884
0.0589119
0.0606514
0.0624358
0.0642974
0.0662714
0.0683948
0.0707045
0.0634183
0.0361776
0.0332792
0.0336757
0.0350372
0.0367778
0.0386825
0.0406529
0.0426367
0.0446029
0.0465318
0.0484116
0.050237
0.052008
0.0537301
0.0554139
0.0570751
0.0587338
0.0604147
0.0621463
0.0639606
0.0658918
0.0679754
0.0640538
0.0358786
0.0328441
0.0331935
0.0345234
0.0362322
0.0381019
0.0400348
0.0419801
0.0439074
0.0457977
0.0476387
0.0494239
0.0511517
0.052825
0.0544517
0.0560441
0.0576191
0.0591977
0.0608052
0.0624702
0.0642243
0.0661012
0.0661729
0.0364259
0.0332697
0.0336189
0.0349463
0.0366344
0.0384679
0.0403547
0.0422482
0.0441208
0.0459546
0.047738
0.0494638
0.0511293
0.0527362
0.0542899
0.0558005
0.0572819
0.0587522
0.0602335
0.0617514
0.063335
0.0650159
0.0707389
0.0382973
0.034954
0.0352823
0.0365713
0.0381935
0.0399449
0.0417428
0.0435455
0.0453279
0.0470725
0.0487675
0.0504052
0.051982
0.0534979
0.054957
0.0563668
0.057739
0.059089
0.0604359
0.0618024
0.063215
0.0647028
0.0795242
0.0424376
0.0385847
0.0386843
0.0397602
0.0411754
0.0427351
0.0443593
0.0460044
0.0476415
0.0492501
0.0508157
0.0523286
0.0537834
0.0551785
0.0565162
0.0578021
0.0590454
0.0602588
0.0614588
0.0626651
0.063901
0.065193
0.0954682
0.0504366
0.0451595
0.0444453
0.0449067
0.0458469
0.047037
0.0483659
0.0497654
0.0511895
0.0526065
0.0539951
0.0553413
0.0566369
0.0578782
0.0590652
0.0602014
0.0612938
0.0623524
0.0633907
0.0644252
0.065476
0.0665663
0.123272
0.0646541
0.055862
0.0531307
0.0522956
0.0523828
0.0529891
0.0538926
0.0549587
0.0561035
0.0572747
0.0584395
0.0595776
0.0606769
0.0617311
0.062738
0.063699
0.0646185
0.0655038
0.0663654
0.0672165
0.0680734
0.0689556
0.171755
0.0884183
0.0716415
0.0648723
0.061878
0.0607519
0.0606167
0.0610141
0.0616938
0.0625164
0.0634025
0.0643066
0.0652019
0.0660728
0.0669107
0.0677114
0.0684743
0.0692013
0.0698973
0.0705695
0.0712277
0.0718842
0.0725542
0.26503
0.126181
0.0920412
0.078708
0.0730164
0.0706432
0.0698226
0.0697592
0.0700727
0.0705732
0.0711623
0.0717872
0.0724184
0.0730391
0.0736395
0.0742146
0.0747622
0.0752825
0.0757779
0.0762527
0.0767132
0.0771677
0.0776267
0.505594
0.180063
0.11209
0.0917524
0.0844142
0.0815549
0.0804764
0.0801741
0.0802313
0.0804611
0.080774
0.0811244
0.0814876
0.0818501
0.0822036
0.0825436
0.0828676
0.0831749
0.0834659
0.0837426
0.084008
0.0842667
0.0845246
1.59456
0.211774
0.11609
0.0993433
0.0947593
0.0932066
0.0926341
0.092439
0.092408
0.092454
0.0925377
0.0926397
0.0927498
0.0928622
0.0929734
0.0930814
0.0931847
0.0932829
0.0933757
0.0934634
0.0935468
0.0936272
0.0937063
1.80872
1.5297
1.3961
1.55717
0.675822
0.715149
0.744951
0.806381
0.563453
0.628929
0.71897
0.852438
0.598502
0.685673
0.816438
1.01758
0.641444
0.749489
0.907808
1.0696
0.649478
0.747882
0.880684
0.977298
0.650851
0.723912
0.811372
0.879466
0.662942
0.710252
0.76555
0.829821
0.658458
0.696743
0.750349
0.81652
0.644862
0.690918
0.749349
0.817648
0.635718
0.687818
0.750692
0.822998
0.623116
0.674186
0.733125
0.799482
0.600968
0.647123
0.697713
0.751775
0.567077
0.606315
0.647767
0.690206
0.521347
0.552881
0.585314
0.617544
0.466563
0.490525
0.514671
0.538122
0.407726
0.424974
0.442082
0.458402
0.350168
0.36207
0.373729
0.384701
0.2978
0.305887
0.31374
0.321071
0.252501
0.258142
0.263604
0.268709
0.214526
0.218737
0.22284
0.226723
0.183249
0.186673
0.190056
0.193327
0.157742
0.160722
0.163711
0.166663
0.137052
0.139749
0.142488
0.145242
0.120401
0.122865
0.125395
0.127973
0.107087
0.109333
0.111656
0.114046
0.0965072
0.0985369
0.10065
0.102839
0.0881548
0.0899701
0.091872
0.0938564
0.081597
0.0832191
0.0849198
0.0866998
0.0764883
0.0779383
0.0794588
0.0810516
0.072568
0.0738654
0.0752253
0.0766503
0.0696473
0.0708082
0.0720239
0.0732977
0.0675989
0.0686351
0.0697191
0.0708543
0.0663496
0.0672687
0.068229
0.0692342
0.0658769
0.0666824
0.067523
0.0684024
0.0662072
0.0668996
0.0676214
0.0683761
0.0674175
0.0679958
0.0685977
0.0692269
0.0696404
0.0701029
0.0705838
0.071086
0.0730706
0.0734173
0.0737771
0.0741525
0.0779773
0.078211
0.078453
0.0787051
0.0847191
0.0848477
0.0849803
0.0851183
0.0937653
0.0938039
0.0938438
0.0938853
1.10784
1.06076
0.950606
0.710514
0.555876
0.479428
0.445117
0.442002
0.461897
0.478331
0.47412
0.459992
0.442408
0.414877
0.382448
0.345187
0.323951
0.357148
0.69299
0.955531
1.16627
1.27217
1.00018
0.711034
0.587092
0.541132
0.532749
0.556723
0.571789
0.556218
0.530189
0.504189
0.477827
0.448367
0.408892
0.375106
0.431767
0.913072
1.16679
1.23809
1.25706
1.21108
0.87599
0.697274
0.626873
0.620167
0.657842
0.669297
0.629602
0.583849
0.549138
0.526357
0.501132
0.455607
0.407512
0.441769
1.04288
1.41536
1.21939
1.20994
1.27236
1.02733
0.806598
0.696613
0.67652
0.696387
0.697317
0.646092
0.584881
0.542235
0.517774
0.491885
0.435704
0.384913
0.409173
0.902031
1.23122
1.19831
1.28908
1.40231
1.25209
0.942065
0.751314
0.687378
0.672915
0.648274
0.604624
0.553783
0.511529
0.480996
0.447629
0.385988
0.33454
0.364948
0.670531
1.06844
1.2352
1.44618
1.51766
1.24655
0.927571
0.75767
0.691941
0.650643
0.611536
0.574243
0.54242
0.511707
0.49265
0.466144
0.36918
0.304566
0.343392
0.477181
0.989658
1.25238
1.50629
1.46535
1.14079
0.88628
0.75174
0.686504
0.633181
0.587871
0.559122
0.550183
0.541641
0.578016
0.630728
0.431503
0.310078
0.29216
0.302917
0.951011
1.19785
1.41981
1.34318
1.06462
0.842605
0.722359
0.661305
0.608251
0.559403
0.524743
0.507573
0.513174
0.577994
0.680108
0.612933
0.374745
0.304074
0.266244
0.935447
1.14365
1.31929
1.25564
1.01783
0.808995
0.681902
0.61393
0.565404
0.520028
0.481545
0.455502
0.449128
0.478874
0.534174
0.494715
0.37734
0.303765
0.382435
0.934683
1.12738
1.28283
1.21807
1.00302
0.789153
0.647676
0.568692
0.519271
0.47932
0.444869
0.420189
0.41061
0.423815
0.475943
0.447829
0.354068
0.304104
0.497941
0.943131
1.13636
1.27347
1.15493
0.9539
0.760159
0.619012
0.533009
0.48178
0.445451
0.41649
0.393965
0.378715
0.380025
0.408073
0.394031
0.328637
0.287171
0.440575
0.910159
1.07167
1.14594
1.03215
0.860498
0.70573
0.587359
0.506045
0.456148
0.422561
0.396425
0.371887
0.349748
0.337506
0.334798
0.318514
0.281352
0.253217
0.339625
0.838428
0.950739
0.987888
0.899105
0.766239
0.64201
0.545268
0.479204
0.436033
0.405012
0.378692
0.35199
0.325273
0.303146
0.285549
0.265341
0.241383
0.226643
0.296563
0.755416
0.830525
0.846119
0.778192
0.676637
0.578476
0.500445
0.446493
0.410198
0.383067
0.358249
0.331762
0.303863
0.278113
0.255527
0.234611
0.21673
0.21033
0.279198
0.665652
0.714972
0.719035
0.667438
0.590996
0.515389
0.453961
0.410499
0.380467
0.357423
0.335359
0.311044
0.285114
0.260147
0.237444
0.217668
0.203278
0.202414
0.281006
0.572414
0.604068
0.602895
0.565084
0.509592
0.453672
0.40723
0.373439
0.349449
0.330394
0.311766
0.290961
0.268439
0.24616
0.225333
0.207647
0.196122
0.199748
0.293504
0.481946
0.501819
0.499117
0.472967
0.43476
0.395634
0.362437
0.337432
0.319339
0.304282
0.28915
0.272182
0.25349
0.234355
0.216256
0.201187
0.192433
0.200002
0.310364
0.400429
0.412905
0.410662
0.393963
0.369428
0.343903
0.321806
0.304642
0.291702
0.280411
0.268603
0.255116
0.240032
0.224256
0.209099
0.196784
0.190698
0.201728
0.328013
0.331617
0.33991
0.339051
0.329606
0.315299
0.300107
0.286675
0.275885
0.267209
0.259275
0.250434
0.239973
0.228022
0.215353
0.203212
0.193576
0.190003
0.204243
0.345175
0.276189
0.282514
0.283343
0.279217
0.272157
0.264348
0.257248
0.251296
0.246086
0.240795
0.234455
0.226558
0.217295
0.207371
0.197933
0.190805
0.189593
0.206848
0.359832
0.232617
0.238298
0.240763
0.240404
0.238268
0.235482
0.232773
0.230297
0.22773
0.224527
0.22021
0.214462
0.207493
0.199951
0.192881
0.187973
0.188812
0.208395
0.368455
0.198485
0.204147
0.207993
0.210218
0.211326
0.211842
0.212077
0.212023
0.211416
0.209895
0.207186
0.203257
0.19826
0.192789
0.187785
0.184821
0.187432
0.208808
0.371985
0.17147
0.177317
0.182172
0.186089
0.189265
0.1919
0.194072
0.195692
0.19654
0.196375
0.195051
0.192625
0.189354
0.185695
0.182497
0.181226
0.185373
0.208249
0.372859
0.149832
0.155793
0.16126
0.166195
0.170628
0.174582
0.178012
0.180792
0.182739
0.183687
0.183563
0.182462
0.180676
0.178606
0.17698
0.177173
0.182643
0.206958
0.374463
0.13234
0.138247
0.143971
0.149426
0.15455
0.159277
0.163504
0.16709
0.169878
0.171749
0.17267
0.172743
0.172226
0.171548
0.171291
0.172748
0.179372
0.205119
0.376937
0.118142
0.12383
0.129534
0.135148
0.140573
0.1457
0.150402
0.154536
0.157967
0.1606
0.162421
0.163523
0.164125
0.1646
0.165532
0.168088
0.175719
0.202657
0.377148
0.106621
0.111971
0.117464
0.122996
0.128458
0.133729
0.138676
0.143164
0.147073
0.150322
0.152899
0.15488
0.156445
0.157903
0.159808
0.163308
0.171771
0.199439
0.373797
0.0973055
0.102251
0.10742
0.11272
0.118049
0.123291
0.128321
0.133012
0.137257
0.140984
0.144175
0.146886
0.149255
0.151539
0.154232
0.158476
0.167571
0.195468
0.367397
0.0898158
0.0943355
0.0991257
0.104113
0.109209
0.114311
0.119307
0.124085
0.128546
0.132622
0.13629
0.13958
0.142597
0.145549
0.148878
0.153662
0.163152
0.190865
0.358975
0.0838433
0.0879459
0.0923434
0.0969822
0.101792
0.106686
0.111569
0.116343
0.120919
0.12523
0.129243
0.132971
0.136484
0.139952
0.143765
0.148937
0.158578
0.185805
0.348878
0.0791505
0.0828486
0.0868616
0.0911439
0.0956432
0.100291
0.105009
0.109711
0.114317
0.118762
0.123005
0.12704
0.13091
0.134749
0.138903
0.144326
0.153992
0.180451
0.337434
0.0755337
0.0788575
0.0825007
0.0864315
0.0906131
0.0949939
0.0995096
0.104088
0.108656
0.11315
0.11752
0.121747
0.12585
0.129935
0.13431
0.139866
0.149452
0.175071
0.325865
0.0728477
0.0758268
0.0791132
0.0827019
0.0865643
0.0906645
0.0949525
0.0993671
0.103842
0.108312
0.112723
0.117042
0.121274
0.125499
0.129999
0.135608
0.14504
0.169828
0.315199
0.0709994
0.0736529
0.0765973
0.0798465
0.0833856
0.087192
0.0912287
0.0954446
0.0997783
0.104165
0.108544
0.112873
0.117144
0.121425
0.125973
0.131579
0.140812
0.164691
0.304355
0.0699471
0.0722838
0.0748927
0.077797
0.0810014
0.0844945
0.0882524
0.0922349
0.0963851
0.100637
0.104923
0.109194
0.113431
0.117694
0.122228
0.127788
0.136816
0.15986
0.294578
0.069702
0.0717217
0.0739905
0.076537
0.079383
0.0825304
0.085971
0.0896784
0.093602
0.097673
0.101818
0.105976
0.11012
0.114307
0.118775
0.12426
0.133125
0.155719
0.289477
0.0703323
0.0720283
0.0739446
0.0761122
0.0785597
0.0813088
0.0843718
0.0877472
0.091395
0.0952428
0.0992063
0.103212
0.107227
0.111303
0.115686
0.121109
0.129921
0.15263
0.290523
0.0719684
0.0733318
0.0748794
0.076638
0.0786332
0.0809016
0.083487
0.0864439
0.0897536
0.0933357
0.0970878
0.100921
0.104795
0.108768
0.113111
0.118596
0.12763
0.151278
0.300077
0.074812
0.0758375
0.0770033
0.0783232
0.0798028
0.0814637
0.083392
0.0857905
0.0886784
0.0919509
0.0954722
0.0991313
0.102885
0.106821
0.111288
0.117191
0.127153
0.153362
0.322423
0.0791478
0.0798402
0.080625
0.0814937
0.0824007
0.0832782
0.0841847
0.085792
0.0881516
0.091075
0.0943591
0.0978603
0.101543
0.105565
0.110471
0.117567
0.130205
0.162971
0.365705
0.0853607
0.0857428
0.0861736
0.0866235
0.0869697
0.0868913
0.0858861
0.0863387
0.0880719
0.0906361
0.0936989
0.0970698
0.100729
0.104946
0.110638
0.12003
0.138715
0.184867
0.446621
0.0939586
0.094077
0.0942125
0.0943422
0.0943268
0.0934842
0.0879752
0.0869653
0.0881406
0.090435
0.0933359
0.0965974
0.100199
0.104476
0.110604
0.121713
0.148092
0.236583
0.58893
)
;

boundaryField
{
    leftWall
    {
        type            epsilonWallFunction;
        value           nonuniform List<scalar> 
50
(
0.00880343
0.0182115
0.0327963
0.0484948
0.0651167
0.0829319
0.102425
0.124336
0.154765
0.207531
0.27123
0.351127
0.474566
0.682579
0.835961
0.798121
0.69378
0.635075
0.61337
0.607071
0.602746
0.585249
0.55105
0.501483
0.440039
0.37117
0.303109
0.243171
0.191806
0.150972
0.12127
0.101272
0.0883413
0.0799033
0.0741185
0.0699204
0.0668947
0.0649545
0.0637896
0.0634183
0.0640538
0.0661729
0.0707389
0.0795242
0.0954682
0.123272
0.171755
0.26503
0.505594
1.59456
)
;
    }
    rightWall
    {
        type            epsilonWallFunction;
        value           nonuniform List<scalar> 
50
(
0.0766977
0.107085
0.16281
0.220594
0.283739
0.358857
0.451243
0.555423
0.69299
0.913072
1.04288
0.902031
0.670531
0.477181
0.302917
0.266244
0.382435
0.497941
0.440575
0.339625
0.296563
0.279198
0.281006
0.293504
0.310364
0.328013
0.345175
0.359832
0.368455
0.371985
0.372859
0.374463
0.376937
0.377148
0.373797
0.367397
0.358975
0.348878
0.337434
0.325865
0.315199
0.304355
0.294578
0.289477
0.290523
0.300077
0.322423
0.365705
0.446621
0.58893
)
;
    }
    lowerWall
    {
        type            epsilonWallFunction;
        value           nonuniform List<scalar> 
62
(
0.00880343
0.0555232
0.118356
0.182407
0.243144
0.297364
0.342718
0.377781
0.402138
0.416499
0.422045
0.420065
0.416658
0.414022
0.412112
0.414592
0.427134
0.44665
0.458822
0.4432
0.377266
0.24408
0.0796091
0.0796091
0.115161
0.181346
0.255774
0.352072
0.485557
0.676504
1.01911
1.80872
1.5297
1.3961
1.55717
0.0589777
0.107061
0.196004
0.297924
0.428401
0.63021
1.00401
1.70712
0.0589777
0.396086
0.752125
0.974366
0.969653
0.825756
0.679558
0.599175
0.590308
0.636029
0.673247
0.654988
0.598974
0.506766
0.405918
0.313766
0.250625
0.198642
0.0766977
)
;
    }
    atmosphere
    {
        type            inletOutlet;
        inletValue      uniform 0.1;
        value           nonuniform List<scalar> 
46
(
0.1
0.1
0.1
0.1
0.1
0.1
0.1
0.1
0.1
0.1
0.1
0.1
0.1
0.1
0.1
0.1
0.1
0.1
0.1
0.1
0.1
0.1
0.1
0.1
0.1
0.1
0.1
0.1
0.1
0.1
0.1
0.1
0.1
0.0879752
0.0869653
0.0881406
0.090435
0.0933359
0.0965974
0.100199
0.104476
0.110604
0.121713
0.148092
0.236583
0.58893
)
;
    }
    defaultFaces
    {
        type            empty;
    }
}


// ************************************************************************* //
