/*--------------------------------*- C++ -*----------------------------------*\
  =========                 |
  \\      /  F ield         | OpenFOAM: The Open Source CFD Toolbox
   \\    /   O peration     | Website:  https://openfoam.org
    \\  /    A nd           | Version:  9
     \\/     M anipulation  |
\*---------------------------------------------------------------------------*/
FoamFile
{
    format      ascii;
    class       volScalarField;
    location    "1.38";
    object      p_rgh;
}
// * * * * * * * * * * * * * * * * * * * * * * * * * * * * * * * * * * * * * //

dimensions      [1 -1 -2 0 0 0 0];

internalField   nonuniform List<scalar> 
2268
(
936.254
939.85
944.843
950.465
955.703
960.196
963.834
966.681
968.941
970.911
972.852
974.856
976.732
978.091
978.636
977.368
976.587
976.451
977.733
981.264
987.293
995.848
1007.73
935.512
938.655
942.754
947.652
952.421
956.704
960.391
963.531
966.295
968.925
971.607
974.329
976.833
978.736
979.872
978.763
978.202
978.704
980.336
983.166
989.062
998.296
1010.24
934.465
937.35
940.715
944.821
949.031
953.059
956.797
960.271
963.596
966.943
970.406
973.856
976.969
979.353
980.904
981.055
980.862
981.044
981.725
984.495
990.395
1000.25
1011.93
932.936
935.888
938.939
942.512
946.309
950.148
953.941
957.697
961.478
965.399
969.489
973.502
977.048
979.75
981.529
982.755
982.666
981.791
981.836
984.351
989.923
1001.21
1013.88
931.063
934.166
937.188
940.51
944.097
947.865
951.752
955.758
959.888
964.236
968.818
973.278
977.151
980.039
981.8
982.659
982.247
981.062
980.539
982.314
987.1
1000.38
1012.25
928.843
932.102
935.192
938.439
941.987
945.811
949.867
954.15
958.583
963.272
968.287
973.157
977.316
980.327
981.984
982.426
981.513
979.652
977.613
977.677
981.444
996.814
1005.96
926.274
929.647
932.811
936.092
939.741
943.746
948.069
952.694
957.423
962.403
967.835
973.121
977.569
980.682
982.193
982.175
980.609
977.695
974.18
971.555
972.425
988.318
991.526
923.338
926.725
929.968
933.385
937.262
941.572
946.273
951.321
956.366
961.607
967.449
973.169
977.919
981.13
982.468
981.95
979.586
974.776
965.17
961.321
959.446
966.861
961.63
562.567
569.025
574.927
572.782
557.496
541.47
534.215
530.416
521.378
512.271
511.144
518.73
530.459
540.646
551.345
557.893
566.589
582.646
592.594
561.637
564.635
564.424
559.212
546.48
536.346
534.48
533.542
523.331
504.648
507.915
522.763
535.578
544.504
556.015
561.206
565.661
578.296
590.189
558.772
558.118
555.03
548.486
534.164
531.516
536.186
538.983
497.559
450.851
454.025
514.342
540.364
551.04
561.619
562.6
560.364
569.883
589.102
555.675
563.331
557.417
547.964
526.961
524.7
539.016
534.364
440.201
446.977
438.447
478.676
543.231
554.808
564.665
536.089
522.874
565.269
589.235
555.483
562.978
559.644
556.929
495.028
495.203
540.649
532.754
492.089
510.665
459.069
396.407
490.877
555.909
565.983
511.702
519.125
577.683
590.874
553.132
565.585
559.733
564.655
468.219
365.784
396.543
480.757
535.562
538.184
537.913
338.612
315.472
455.183
566.033
544.538
548.761
581.088
594.45
527.677
519.158
524.972
575.655
514.809
339.777
336.131
379.708
534.84
540.784
547.237
342.647
301.817
283.26
392.638
516.452
586.317
587.14
600.067
490.431
359.875
324.618
515.719
531.96
381.929
331.332
384.967
535.834
545.057
556.584
374.047
296.041
278.279
254.085
338.134
543.619
594.995
605.489
918.2
921.406
924.839
928.658
933.082
938.005
943.411
949.22
954.76
960.33
966.805
973.278
978.581
981.986
983.04
981.689
977.893
962.067
948.663
937.591
931.066
908.338
831.71
909.428
912.124
915.914
920.83
926.577
932.547
939.11
946.323
952.05
957.128
964.598
972.805
979.571
983.813
984.773
982.416
976.68
959.679
937.032
920.388
907.975
883.561
851.804
881.744
882.962
889.544
900.407
913.301
925.113
933.519
943.849
945.985
952.905
961.802
972.514
981.274
986.948
988.121
985.105
977.765
965.286
948.443
927.422
904.452
875.022
837.8
350.35
358.154
374.415
408.146
461.518
531.422
553.86
642.707
676.398
657.857
795.244
919.805
979.21
998.05
999.234
994.347
978.499
929.73
872.423
803.464
593.774
321.89
183.146
0.113636
0.230532
0.130905
0.251059
0.866831
5.32519
101.5
292.922
375.758
195.796
200.045
286.384
437.345
562.381
556.301
519.699
442.215
274.262
57.3393
6.84371
10.2873
10.5604
14.2478
0.145538
0.138211
0.147858
0.215499
0.57033
3.59444
60.2658
95.0013
123.659
126.026
94.1947
42.9374
5.11791
3.69276
3.68682
4.13037
4.85506
5.71403
6.84368
7.50444
10.402
34.3095
37.1435
0.122217
0.112924
0.116115
0.356839
3.71625
12.9142
5.3098
-0.0210456
0.38127
84.1934
96.1938
72.889
8.79465
4.56449
4.54138
4.8307
5.23004
5.60432
6.82313
22.228
38.9279
38.7941
38.6511
0.0988506
0.0863247
0.131092
2.66263
3.24002
0.321471
-0.0185293
0.00739031
0.040148
4.54
31.8285
70.8284
16.9698
4.32154
4.22927
6.13293
15.4262
13.8526
26.2683
25.921
24.8105
11.3744
10.6166
0.0739341
0.0639813
0.0836381
0.0709124
-0.0211555
-0.0138705
-0.0120679
-0.0112243
-0.0248344
-0.0503554
-0.0167805
7.47262
15.9118
3.81537
3.56884
8.5898
17.7111
17.661
9.60246
1.01186
-0.109646
0.0370428
0.0977204
0.0535221
0.0475291
0.0526509
0.0278442
-0.00474144
-0.0121357
-0.0151801
-0.0173756
-0.0264883
-0.0390423
-0.0454787
-0.0686741
1.33156
3.72159
0.46949
2.91145
5.37742
5.42815
-0.16424
-0.143608
-0.137157
-0.101156
-0.0524035
0.0378619
0.0342422
0.026304
0.0110477
-0.00160689
-0.00998493
-0.0150907
-0.0194685
-0.0277788
-0.041185
-0.0414847
-0.0528455
-0.102482
0.105494
-0.141462
-0.175855
-0.183705
-0.167157
-0.136305
-0.128179
-0.111532
-0.076681
-0.0264601
0.0262467
0.0220292
0.016075
0.00694117
-0.00198893
-0.00923061
-0.0152701
-0.0213413
-0.0293598
-0.0404992
-0.0540523
-0.0717559
-0.0885523
-0.103164
-0.118311
-0.136583
-0.148621
-0.145734
-0.129898
-0.113999
-0.0910877
-0.0591272
-0.0242292
0.0170862
0.012589
0.00777898
0.0016397
-0.00465862
-0.0105071
-0.0160478
-0.0219154
-0.0290905
-0.0381876
-0.04916
-0.0629263
-0.076858
-0.0885031
-0.100013
-0.112048
-0.119896
-0.118326
-0.107076
-0.0918972
-0.0718949
-0.0470933
-0.0216835
0.00999365
0.00517287
0.000941927
-0.00348463
-0.00808788
-0.0126989
-0.0173734
-0.0224261
-0.0283543
-0.0355134
-0.0440098
-0.0540623
-0.0645236
-0.0739061
-0.0821098
-0.0893547
-0.0928685
-0.0902254
-0.0813211
-0.0685686
-0.0522489
-0.0331022
-0.013661
0.00427568
-0.000552037
-0.00432157
-0.00775468
-0.0112514
-0.014871
-0.0186567
-0.0227605
-0.0274204
-0.0328297
-0.0390576
-0.04606
-0.0532284
-0.0597378
-0.0650761
-0.0688564
-0.069594
-0.0661395
-0.0584914
-0.0476798
-0.0342595
-0.019197
-0.00429594
-0.000451612
-0.00482127
-0.00803359
-0.0108089
-0.0135841
-0.0164693
-0.0194872
-0.0227001
-0.0262102
-0.0301012
-0.0343888
-0.0389722
-0.0434731
-0.0473823
-0.0502441
-0.0515676
-0.050538
-0.0465696
-0.0396778
-0.0304091
-0.0193581
-0.00744621
0.00398268
-0.00426725
-0.00777469
-0.01027
-0.0125418
-0.0148358
-0.0171937
-0.0196011
-0.0220625
-0.0246055
-0.0272505
-0.0299801
-0.0326976
-0.0351597
-0.037034
-0.0379752
-0.037596
-0.0354345
-0.0311947
-0.0249199
-0.0169817
-0.00792705
0.00145865
0.0101661
-0.00703841
-0.00946708
-0.0111413
-0.0130073
-0.0149647
-0.0169434
-0.0188865
-0.0207589
-0.0225449
-0.0242309
-0.0257851
-0.0271301
-0.0281117
-0.0285183
-0.028113
-0.0266365
-0.0238306
-0.0195608
-0.0139024
-0.00714872
0.000224911
0.00757759
0.0141446
-0.00866704
-0.00989205
-0.010816
-0.0123867
-0.0140875
-0.0157848
-0.0173841
-0.0188176
-0.0200496
-0.0210478
-0.0217764
-0.0221783
-0.0221597
-0.0215945
-0.0203383
-0.0182389
-0.0151644
-0.0110721
-0.00606011
-0.000378
0.00558894
0.0113144
0.0162201
-0.00926822
-0.00931158
-0.00966266
-0.0109246
-0.0124296
-0.0139079
-0.0152435
-0.0163674
-0.0172201
-0.0177624
-0.0179599
-0.0177721
-0.0171445
-0.0160099
-0.0142938
-0.0119236
-0.00884892
-0.00508141
-0.000728563
0.00399677
0.00877998
0.0132056
0.0168358
-0.00919991
-0.00819656
-0.00806173
-0.00902515
-0.0103123
-0.011585
-0.0127118
-0.0136095
-0.0142134
-0.0144795
-0.0143741
-0.0138674
-0.0129296
-0.0115307
-0.00964396
-0.00725062
-0.00435273
-0.000995038
0.00271377
0.00659322
0.0103907
0.0137822
0.0164393
-0.00879337
-0.00704176
-0.00647232
-0.00706621
-0.00806937
-0.00911369
-0.010047
-0.0107719
-0.0112162
-0.0113307
-0.0110818
-0.0104458
-0.00940714
-0.00795724
-0.00609773
-0.00384343
-0.00122767
0.00168598
0.00479206
0.0079382
0.0109245
0.0135
0.0154223
-0.00825751
-0.00613819
-0.00517041
-0.00532451
-0.0059796
-0.00676295
-0.00749866
-0.00807418
-0.00840982
-0.00844888
-0.00815551
-0.0075083
-0.00649841
-0.00512892
-0.00341654
-0.00139366
0.000889305
0.00336169
0.00592436
0.00844867
0.0107758
0.0127176
0.014095
-0.0076924
-0.00549499
-0.00420632
-0.00392531
-0.00421293
-0.00471844
-0.00525095
-0.0056866
-0.0059364
-0.00593824
-0.0056524
-0.00505678
-0.00414469
-0.00292382
-0.00141738
0.000334491
0.00227619
0.00433628
0.00642475
0.0084337
0.0102377
0.0116924
0.0126718
-0.00712335
-0.00500352
-0.00351149
-0.00287457
-0.00282785
-0.00306628
-0.0033998
-0.00370056
-0.00387466
-0.00385503
-0.00359798
-0.00307939
-0.00229227
-0.00124528
3.72383e-05
0.00151501
0.00313375
0.00482602
0.00651195
0.00810136
0.00949471
0.0105813
0.0112726
-0.00655458
-0.0045801
-0.00300178
-0.0021192
-0.00180459
-0.00181065
-0.00196279
-0.0021376
-0.00224151
-0.00220474
-0.00198089
-0.00154353
-0.000884103
-9.98522e-06
0.00105639
0.00227828
0.0036063
0.00498
0.00632994
0.00758102
0.0086539
0.00946315
0.00994589
-0.00599742
-0.00419254
-0.00261598
-0.00159114
-0.00108439
-0.000905584
-0.000904293
-0.000968323
-0.00100755
-0.000954001
-0.000760194
-0.000397945
0.000143289
0.000858525
0.00172877
0.0027224
0.00379654
0.00489889
0.00597025
0.00694833
0.00776963
0.00836768
0.0086971
-0.00546761
-0.0038356
-0.00231654
-0.00122967
-0.000599839
-0.000285904
-0.000163825
-0.000135373
-0.00011855
-4.8948e-05
0.000119915
0.000416856
0.000854126
0.00142944
0.0021278
0.00292308
0.00377937
0.00465255
0.00549296
0.00624927
0.00687047
0.0073043
0.0075173
-0.00497692
-0.00351154
-0.0020818
-0.000989073
-0.000292179
0.000111474
0.000321735
0.000421941
0.000484244
0.000567738
0.000716391
0.00095846
0.00130726
0.00176295
0.00231438
0.00294071
0.00361256
0.00429347
0.00494235
0.00551718
0.00597689
0.00627995
0.00640103
-0.00453103
-0.00322267
-0.001898
-0.000836676
-0.000115637
0.000339366
0.000607527
0.000758266
0.00085418
0.000948201
0.0010806
0.00127797
0.00155385
0.00191023
0.00233923
0.00282457
0.00334263
0.00386371
0.00435422
0.00477998
0.0051079
0.00530473
0.00535074
-0.00413177
-0.00296882
-0.00175492
-0.000748689
-3.5538e-05
0.000438682
0.000737525
0.000918957
0.00103689
0.00113777
0.00125734
0.00141966
0.00163763
0.00191423
0.00224402
0.00261442
0.00300661
0.00339662
0.00375723
0.00406083
0.00428079
0.00439033
0.0043737
-0.00377804
-0.00274839
-0.00164519
-0.000709229
-2.81307e-05
0.000439494
0.000746373
0.000941648
0.00107153
0.00117597
0.00128576
0.0014218
0.00159557
0.00181026
0.00206202
0.00234105
0.00263241
0.00291686
0.00317249
0.00337705
0.00350914
0.00354708
0.00347804
-0.00346582
-0.00255811
-0.00156276
-0.000707294
-7.61891e-05
0.00036535
0.000662902
0.000858795
0.000992488
0.0010977
0.00120019
0.0013173
0.00145859
0.00162681
0.00181899
0.00202734
0.00223993
0.00244136
0.00261401
0.00273997
0.00280196
0.00278233
0.00267036
-0.0031874
-0.00239207
-0.00150088
-0.000733129
-0.000164652
0.000237185
0.000513005
0.000699664
0.000830744
0.000934222
0.00103094
0.00113462
0.00125264
0.0013869
0.00153481
0.00168998
0.00184281
0.00198091
0.00209005
0.00215575
0.0021639
0.00209994
0.00195463
-0.00293166
-0.00224184
-0.00145113
-0.000776122
-0.000278259
7.51631e-05
0.000320788
0.000490981
0.000614273
0.000713454
0.000804776
0.000898487
0.000999741
0.00110947
0.00122515
0.00134139
0.00145033
0.00154191
0.00160457
0.00162643
0.00159578
0.00150038
0.00133183
-0.00268814
-0.00209922
-0.00140625
-0.000826266
-0.000402668
-0.000102611
0.000107301
0.000255901
0.000367353
0.000459717
0.000545027
0.000630351
0.00071883
0.000810471
0.00090274
0.00099098
0.00106868
0.0011276
0.00115826
0.00115078
0.00109527
0.000981081
0.000800223
-0.00245058
-0.00196391
-0.00136791
-0.000880031
-0.000529119
-0.00028352
-0.000111689
1.27159e-05
0.00010987
0.000193389
0.000271498
0.000348538
0.00042603
0.000503306
0.000577907
0.000645831
0.000701701
0.000738788
0.000749301
0.000725028
0.000657469
0.000537175
0.000356176
-0.00220739
-0.00184036
-0.0013442
-0.000941336
-0.000656129
-0.000461133
-0.000325431
-0.000224515
-0.000142111
-6.87413e-05
6.02544e-07
6.82131e-05
0.000134567
0.000198728
0.000258538
0.000310734
0.000351041
0.000374129
0.000373775
0.000343282
0.000275459
0.000161871
-5.39748e-06
-0.00197271
-0.00173355
-0.00134019
-0.0010108
-0.000780564
-0.000628625
-0.000523307
-0.000442418
-0.000373896
-0.000311838
-0.000253503
-0.00019775
-0.000144448
-9.43233e-05
-4.89208e-05
-1.0568e-05
1.76822e-05
3.19724e-05
2.77035e-05
-2.20006e-07
-5.7535e-05
-0.000151493
-0.000289957
-0.0019529
-0.00181921
-0.00145878
-0.00109156
-0.000885279
-0.000768547
-0.000687562
-0.000623099
-0.000568185
-0.00051956
-0.000475556
-0.000435247
-0.000398205
-0.000364505
-0.000334761
-0.000310115
-0.000292192
-0.000283208
-0.000285954
-0.000303677
-0.00034031
-0.000401509
-0.000495757
-0.00227832
-0.00301258
-0.0020541
-0.00120573
-0.000954755
-0.000861236
-0.000799194
-0.00075061
-0.000712187
-0.000681567
-0.000657031
-0.00063722
-0.000620999
-0.000607486
-0.000596114
-0.000586637
-0.000579068
-0.00057375
-0.000571387
-0.000572999
-0.000580218
-0.000595977
-0.000623236
-0.000141359
-0.00636726
-0.00281415
-0.00136861
-0.00106811
-0.000955053
-0.00089991
-0.000872345
-0.000860777
-0.000859803
-0.000866469
-0.000878582
-0.000894203
-0.000911523
-0.000928817
-0.00094441
-0.000956603
-0.000963701
-0.000964091
-0.000956252
-0.000938949
-0.000911655
-0.000873184
664.303
653.536
667.913
664.426
808.221
783.305
760.447
737.64
791.26
752.02
584.422
185.516
109.105
67.6648
34.0131
16.34
15.6333
12.262
8.38695
8.39524
36.4053
25.551
7.30822
7.80514
38.559
26.941
7.58771
7.0742
13.1474
17.5939
20.3921
20.4757
0.673143
13.5237
20.4823
21.1453
0.150216
2.77737
9.7916
16.4726
0.0617313
0.121285
0.315753
1.03433
0.000860234
0.0215749
0.0468896
0.0530657
-0.00603633
0.00223948
0.0090178
0.012856
-0.00158103
0.00412246
0.00750206
0.00845412
0.00462051
0.00874826
0.0113149
0.0122942
0.0105727
0.0135545
0.0154027
0.0162906
0.0150065
0.0171708
0.0184745
0.0190964
0.0176637
0.019244
0.0201771
0.0205775
0.0187555
0.0199156
0.0205917
0.0208342
0.0186429
0.0194938
0.0199872
0.0201233
0.017707
0.0183273
0.0186904
0.0187609
0.0162945
0.016744
0.0170146
0.0170468
0.0146832
0.0150073
0.0152113
0.0152201
0.0130614
0.0132918
0.0134422
0.0134315
0.011526
0.0116856
0.011788
0.0117564
0.0101044
0.0102084
0.0102676
0.0102142
0.00878588
0.00884566
0.00886735
0.00879421
0.00755182
0.00757581
0.00756676
0.00747826
0.00639075
0.00638523
0.0063519
0.00625266
0.00530179
0.00527112
0.00521814
0.00511141
0.00429059
0.00423778
0.00416782
0.00405473
0.00336481
0.00329214
0.00320643
0.00308651
0.00253142
0.00244092
0.00234004
0.00221204
0.00179524
0.0016892
0.0015739
0.00143674
0.00115829
0.00103983
0.000911867
0.000765611
0.000620163
0.000493787
0.00035669
0.000203357
0.000179075
5.10877e-05
-8.92447e-05
-0.000244978
-0.000167532
-0.000288572
-0.000423519
-0.000573939
-0.000424061
-0.000527569
-0.000645534
-0.000778775
-0.000593462
-0.000669432
-0.000755168
-0.000850968
-0.00064724
-0.000672976
-0.000707177
-0.000752179
-0.000828833
-0.000804379
-0.00078387
-0.000768903
610.383
309.028
164.899
281.333
476.956
489.585
375.44
456.555
522.876
552.023
566.099
570.334
470.129
361.87
245.367
232.049
411.343
481.089
449.97
485.946
101.163
49.3141
69.6719
193.109
297.566
244.348
254.487
291.148
322.484
390.006
443.164
484.813
484.702
481.533
454.112
241.621
117.889
244.072
25.514
44.8977
31.2624
27.3608
97.7687
225.483
250.349
159.001
73.4193
74.5664
128.876
201.684
237.266
217.446
214.841
230.201
114.624
73.5929
73.391
10.4603
18.515
22.3546
15.6447
37.6723
155.601
232.971
74.7155
61.6019
69.5232
96.1535
191.711
240.5
238.456
207.82
229.136
197.426
90.2064
69.9147
8.75288
8.93387
10.9647
9.55116
9.30753
9.14745
21.1765
61.8113
188.28
209.929
208.316
184.283
164.497
188.905
190.565
145.853
113.2
76.1138
67.9521
8.3217
8.47902
8.93915
9.31574
8.53409
8.16587
8.79135
34.8072
186.611
220.678
140.08
35.3408
27.5892
45.696
56.4497
49.8646
58.5169
81.6777
82.091
11.7212
8.27739
8.53148
11.1582
31.3579
15.2969
9.44122
21.8019
35.0243
22.8968
4.40407
4.18552
3.33747
2.8506
2.05331
47.9689
89.4803
90.0145
81.1903
23.191
10.7649
7.9163
32.966
34.2989
34.8795
18.5483
15.1605
14.5087
14.1504
19.7981
18.8224
18.0685
7.19924
1.15379
0.58798
3.37965
20.5477
23.2816
22.101
22.7234
4.64569
29.2286
35.1409
35.4969
35.7784
35.5315
27.1162
25.8574
25.3887
24.8947
20.8758
10.2706
0.71766
0.272843
0.190297
0.0793259
0.0684261
20.7725
10.8835
0.832468
5.05674
4.59679
8.62968
23.498
28.0531
23.7656
11.3042
8.81206
1.36393
0.0687736
1.30214
0.355424
0.246838
0.236669
0.283709
0.0981116
1.69525
-0.0435431
-0.189009
-0.204431
-0.0319588
0.0717818
-0.151696
-0.193124
-0.171637
-0.0960184
-0.0402833
0.0248729
0.0583868
0.137738
0.922144
0.496208
0.587768
0.526804
0.101625
0.0133723
-0.0179585
-0.0756671
-0.126566
-0.108285
-0.0460989
-0.0814648
-0.127755
-0.0984901
-0.0622802
-0.0257522
0.0128898
0.0454197
0.245148
0.809343
0.795896
0.542552
0.0509536
0.0483065
0.0120852
-0.00158349
-0.0328966
-0.0778594
-0.0808284
-0.0961055
-0.109679
-0.104117
-0.0821527
-0.0494833
-0.0193711
0.00974298
0.0794819
0.386825
0.652585
0.480369
0.0919403
0.0508988
0.045911
0.00684779
-0.00328698
-0.0237628
-0.0523633
-0.0636154
-0.0814215
-0.0878553
-0.0822212
-0.066209
-0.0439444
-0.0196847
0.00220317
0.161628
0.395503
0.271367
0.0522202
0.0461897
0.0457038
0.0414474
0.011484
0.00298361
-0.0112923
-0.0302218
-0.0305213
-0.0434352
-0.0575389
-0.0617094
-0.0505448
-0.0345006
-0.0172194
-0.00124396
0.062038
0.213102
0.0484158
0.0340205
0.038376
0.0383897
0.0358061
0.0163156
0.00955346
0.00235054
0.000506888
-0.0129475
-0.0229523
-0.0275204
-0.0431574
-0.0375639
-0.0265373
-0.0143382
-0.00185534
0.0179712
0.011284
0.0196822
0.0267581
0.0306148
0.0309126
0.0301493
0.0191557
0.0136198
0.00679858
-0.000156682
-0.00199872
-0.00807633
-0.0172316
-0.0314758
-0.0273666
-0.0199644
-0.0111787
-0.000437643
0.0034328
0.00933048
0.0155547
0.0208834
0.0240506
0.0246781
0.0253699
0.020461
0.0157983
0.0077704
-0.00211115
-0.00991373
-0.0135005
-0.0195564
-0.0201169
-0.0188784
-0.014582
-0.00765837
0.000292485
0.00320843
0.00762826
0.0123849
0.0164742
0.0191832
0.0204256
0.0220537
0.0205631
0.0166164
0.0101904
0.0024952
-0.0049183
-0.0108292
-0.0143531
-0.0144587
-0.0128649
-0.010271
-0.00555563
-0.00102115
0.00261771
0.00632125
0.0101313
0.0134679
0.0160709
0.0215095
0.0206452
0.0197567
0.0164307
0.0112754
0.00517939
-0.000765016
-0.00563061
-0.00876689
-0.00993321
-0.00887241
-0.00631274
-0.00339031
-0.000886363
0.00236515
0.0056211
0.00877278
0.0117254
0.0144576
0.0218917
0.0214175
0.018359
0.0155698
0.0114186
0.00656832
0.00180227
-0.0021818
-0.0048905
-0.00611969
-0.00594951
-0.00369134
-0.00150176
0.000792715
0.00267167
0.00534868
0.0081214
0.0109791
0.0142144
0.0225531
0.0236445
0.016652
0.0143278
0.0109813
0.00711602
0.00330036
5.85914e-05
-0.00223261
-0.00340305
-0.00348449
-0.00253195
-0.000127831
0.00157406
0.003061
0.00538128
0.00796123
0.0108982
0.0150288
0.0240183
0.0280364
0.0148479
0.0129199
0.0102227
0.00714147
0.00409275
0.00147097
-0.000434976
-0.00148362
-0.00167774
-0.00112863
5.63683e-05
0.00162879
0.00348049
0.00558675
0.00805917
0.0110963
0.0158818
0.0233223
0.0971032
0.0130823
0.0114856
0.0093109
0.00685346
0.00442081
0.00231061
0.000745872
-0.000155807
-0.000380229
7.46662e-06
0.000904237
0.00220978
0.00385421
0.00582962
0.00822316
0.0112611
0.0160703
0.0203055
0.237462
0.0114248
0.0100983
0.00833986
0.00637555
0.00443357
0.00273991
0.00146828
0.000717059
0.000510247
0.000814609
0.00156776
0.00270861
0.00420181
0.00606128
0.00837268
0.0113331
0.0152875
0.0201751
0.244409
0.00989486
0.00878427
0.0073535
0.00577527
0.00422023
0.00286159
0.00183638
0.0012278
0.00106559
0.00133807
0.00201193
0.00305501
0.00445673
0.00624535
0.00850314
0.0114015
0.0152627
0.0201841
0.25055
0.00848498
0.00754474
0.0063688
0.00508973
0.00383668
0.00274439
0.00192273
0.00144304
0.00133822
0.0016112
0.00224937
0.00324187
0.00459642
0.00635338
0.00859743
0.0114912
0.0153598
0.0204415
0.248113
0.00717951
0.00637245
0.00539243
0.00434246
0.00332225
0.00243878
0.00178199
0.00141409
0.00136947
0.00166088
0.0022902
0.00326209
0.0045981
0.0063493
0.00860769
0.011541
0.0154866
0.0207667
0.26182
0.00596523
0.00526104
0.00442937
0.00355204
0.00270823
0.00198517
0.00145844
0.00118331
0.00119455
0.0015111
0.0021446
0.00311042
0.00443994
0.00619254
0.00846785
0.0114451
0.0154968
0.0210423
0.283069
0.00483488
0.00420819
0.00348611
0.00273554
0.00202168
0.001418
0.000990044
0.000787878
0.000845677
0.00118571
0.0018254
0.00278654
0.00410608
0.00584718
0.00811167
0.0110808
0.015141
0.0695936
0.290637
0.00378656
0.00321572
0.00257122
0.00190967
0.00128705
0.000767696
0.000410559
0.000261802
0.000354001
0.000710189
0.00135024
0.00229875
0.00359412
0.00529796
0.00750412
0.0103732
0.0142427
0.110096
0.297609
0.00282234
0.00228865
0.00169504
0.00109101
0.000526836
6.14334e-05
-0.000249718
-0.000363317
-0.000249756
0.000112289
0.000742427
0.00166554
0.0029192
0.00456087
0.00667235
0.00938005
0.0129438
0.106076
0.304097
0.00194675
0.00143433
0.000869322
0.000296027
-0.000238368
-0.000676959
-0.000964151
-0.0010585
-0.000935568
-0.000578581
2.94474e-05
0.000912236
0.00210711
0.00367091
0.00568145
0.00825235
0.0116227
0.0476064
0.310181
0.00116579
0.000661912
0.000106953
-0.000459042
-0.000990092
-0.00142769
-0.00171069
-0.00179809
-0.00167483
-0.00133261
-0.000759802
6.50712e-05
0.0011808
0.00265069
0.00456891
0.00708707
0.0104877
0.0180173
0.237655
0.000486334
-1.7902e-05
-0.000577795
-0.00115775
-0.00171206
-0.00217634
-0.00247377
-0.00256113
-0.00244129
-0.0021207
-0.00159676
-0.000849116
0.000162287
0.0014946
0.00330799
0.00576214
0.00921343
0.0236982
0.241071
-8.37498e-05
-0.000592348
-0.00116825
-0.00178232
-0.00239025
-0.0029168
-0.00324846
-0.00333387
-0.00321247
-0.00291512
-0.0024491
-0.00178747
-0.000925584
0.000178783
0.00173847
0.00392922
0.00720039
0.0469288
0.316177
-0.000535247
-0.00104583
-0.0016437
-0.00231147
-0.00301215
-0.00365537
-0.00404424
-0.00410939
-0.00396748
-0.00368671
-0.00328797
-0.00274881
-0.00213477
-0.00136169
-0.000247288
0.00142262
0.00410253
0.0660523
0.362223
-0.000857419
-0.00135852
-0.00197569
-0.0027131
-0.00355659
-0.00440447
-0.0048738
-0.00486785
-0.0046675
-0.00438708
-0.00406556
-0.00371421
-0.00339411
-0.0030578
-0.00256849
-0.00177159
-0.00011951
0.0517168
0.366033
-0.00103528
-0.00149929
-0.00211339
-0.00291744
-0.00395729
-0.00516423
-0.00576805
-0.00557789
-0.00525464
-0.00495
-0.00470416
-0.00456846
-0.00459089
-0.00462121
-0.0051003
-0.0055705
-0.00567017
0.066349
0.366462
-0.0010401
-0.0014127
-0.00196143
-0.00278659
-0.00410794
-0.00607851
-0.00717282
-0.00652758
-0.00593085
-0.00554957
-0.0053559
-0.0054205
-0.00559053
-0.00332388
-0.00523395
-0.0100611
-0.0134128
0.29383
0.359305
-0.000860316
-0.00107744
-0.00146689
-0.0022489
-0.00415922
-0.00821865
-0.0107675
-0.00884786
-0.00756756
-0.00696511
-0.00678047
-0.00708762
-0.00636983
-0.00630309
-0.00904869
-0.0164605
-0.0261808
0.277628
0.319311
-0.000762894
-0.000795998
-0.00101367
-0.00176893
-0.00467529
-0.0146633
-0.0152443
-0.0105563
-0.00824212
-0.00735947
-0.00717825
-0.00768691
-0.00900148
-0.00973135
-0.0140491
-0.0231734
-0.0379344
-0.0356155
0.187958
)
;

boundaryField
{
    leftWall
    {
        type            fixedFluxPressure;
        gradient        uniform 0;
        value           nonuniform List<scalar> 
50
(
936.254
935.512
934.465
932.936
931.063
928.843
926.274
923.338
918.2
909.428
881.744
350.35
0.113636
0.145538
0.122217
0.0988506
0.0739341
0.0535221
0.0378619
0.0262467
0.0170862
0.00999365
0.00427568
-0.000451612
-0.00426725
-0.00703841
-0.00866704
-0.00926822
-0.00919991
-0.00879337
-0.00825751
-0.0076924
-0.00712335
-0.00655458
-0.00599742
-0.00546761
-0.00497692
-0.00453103
-0.00413177
-0.00377804
-0.00346582
-0.0031874
-0.00293166
-0.00268814
-0.00245058
-0.00220739
-0.00197271
-0.0019529
-0.00227832
-0.000141359
)
;
    }
    rightWall
    {
        type            fixedFluxPressure;
        gradient        uniform 0;
        value           nonuniform List<scalar> 
50
(
592.594
590.189
589.102
589.235
590.874
594.45
600.067
605.489
449.97
244.072
73.391
69.9147
67.9521
82.091
81.1903
23.2816
0.0684261
0.0981116
0.101625
0.0483065
0.045911
0.0414474
0.0358061
0.0301493
0.0253699
0.0220537
0.0206452
0.0214175
0.0236445
0.0280364
0.0971032
0.237462
0.244409
0.25055
0.248113
0.26182
0.283069
0.290637
0.297609
0.304097
0.310181
0.237655
0.241071
0.316177
0.362223
0.366033
0.366462
0.359305
0.319311
0.187958
)
;
    }
    lowerWall
    {
        type            fixedFluxPressure;
        gradient        uniform 0;
        value           nonuniform List<scalar> 
62
(
936.254
939.85
944.843
950.465
955.703
960.196
963.834
966.681
968.941
970.911
972.852
974.856
976.732
978.091
978.636
977.368
976.587
976.451
977.733
981.264
987.293
995.848
1007.73
1007.73
1010.24
1011.93
1013.88
1012.25
1005.96
991.526
961.63
664.303
653.536
667.913
664.426
562.567
561.637
558.772
555.675
555.483
553.132
527.677
490.431
562.567
569.025
574.927
572.782
557.496
541.47
534.215
530.416
521.378
512.271
511.144
518.73
530.459
540.646
551.345
557.893
566.589
582.646
592.594
)
;
    }
    atmosphere
    {
        type            totalPressure;
        rho             rho;
        psi             none;
        gamma           1;
        p0              uniform 0;
        value           nonuniform List<scalar> 
46
(
-0.000477128
-0.00125449
-0.00114315
-0.00105334
-0.000995921
-0.000962791
-0.00094898
-0.000950458
-0.000964147
-0.000987569
-0.00101857
-0.00105516
-0.00109533
-0.00113701
-0.00117797
-0.00121582
-0.00124794
-0.00127153
-0.00128365
-0.00128126
-0.0012614
-0.00122135
-0.00115898
-0.00109502
-0.00104768
-0.000993499
-0.000932946
-0.000824318
-0.000653512
-0.000477412
-0.000307108
-0.0001511
-2.4982e-05
0
0
0
0
0
0
0
0
0
0
0
0
0
)
;
    }
    defaultFaces
    {
        type            empty;
    }
}


// ************************************************************************* //
