/*--------------------------------*- C++ -*----------------------------------*\
  =========                 |
  \\      /  F ield         | OpenFOAM: The Open Source CFD Toolbox
   \\    /   O peration     | Website:  https://openfoam.org
    \\  /    A nd           | Version:  9
     \\/     M anipulation  |
\*---------------------------------------------------------------------------*/
FoamFile
{
    format      ascii;
    class       surfaceScalarField;
    location    "14.65";
    object      phi;
}
// * * * * * * * * * * * * * * * * * * * * * * * * * * * * * * * * * * * * * //

dimensions      [0 3 -1 0 0 0 0];

internalField   nonuniform List<scalar> 
1300
(
11.2529
1.87548
-4.32026
11.2529
-4.89445
1.87548
-4.19468
4.19468
-1.19767
1.19767
5.71232
5.54054
-2.38391
2.38391
-2.85877
2.85877
-2.86312
2.86312
-1.06194
1.06194
-1.02828
1.02828
0.696259
-0.696259
-3.35819
3.35819
-1.46232
1.46232
-2.89626
2.89626
6.12816
-6.12816
-3.32484
3.32484
-0.750815
0.750815
-4.26323
15.5161
6.98963
6.98963
-2.37581
2.37581
-1.25446
1.25446
1.41034
-1.41034
9.31867
-9.31867
-4.99841
-6.02567
1.86843
-13.777
-3.02602
-3.02602
-2.7054
2.7054
-0.829928
1.04555
3.47605
-3.47605
-0.767364
0.767364
-4.27418
0.0794939
-4.27418
3.98605
0.208632
3.98605
-1.33888
0.141208
-1.33888
4.63257
-4.63257
1.08652
0.111153
1.08652
3.92787
-3.92787
-5.71004
11.4224
5.54282
-5.32062
20.8367
-5.93224
11.4728
-3.9238
3.9238
-2.29596
-0.0879454
-2.29596
2.39209
-0.00817985
2.39209
-3.97597
3.97597
-2.6406
-0.218176
-2.6406
2.96896
-0.110186
2.96896
3.66335
-3.66335
-2.91844
0.0553166
-2.91844
2.71187
0.151249
2.71187
0.771042
1.10443
-2.64652
3.69207
-1.10443
0.0424987
1.02614
0.0357986
1.02614
-1.01454
-0.013739
-1.01454
1.0499
-0.021621
1.0499
0.735638
-0.0393785
0.735638
-0.756268
0.0600085
-0.756268
-8.53452
-8.94702
-3.48745
0.129263
-3.48745
-1.47937
0.0170426
-1.47937
1.49971
-0.037383
1.49971
-2.55882
2.55882
-3.22803
0.331764
-3.22803
4.80649
1.32168
4.80649
5.04613
6.20673
16.299
-16.299
10.1708
-3.03634
-0.288504
-3.03634
-3.50517
-5.8135
3.50517
-0.180329
-0.813872
0.0630573
-0.813872
5.62651
1.36311
5.62651
2.59045
0.121421
-2.59045
0.214642
4.61458
-4.61458
1.42615
0.949654
1.42615
-1.19136
1.19136
1.12356
-0.0736594
-1.12356
-0.130901
1.38601
0.0243341
1.38601
-1.40975
-0.000595456
-1.40975
7.40186
-13.4275
-7.88103
3.16834
0.189854
-3.16834
0.142313
3.56241
-0.0863679
3.56241
-3.31044
3.31044
-3.61043
0.134381
-3.61043
-0.690875
-0.0764888
-0.690875
0.853888
-0.0865247
0.853888
-4.52036
0.246186
-4.52036
-3.65955
0.431524
3.65955
0.326501
1.26965
-1.26965
-1.44562
0.106737
-1.44562
-4.60805
0.0876867
4.60805
0.0245244
-4.73333
0.100755
-4.73333
-3.71215
0.101721
3.71215
0.215719
4.5892
1.03731
-4.5892
0.661336
-5.3695
11.5762
-5.88336
11.4262
-3.54876
-0.375037
-3.54876
4.10632
-0.182516
4.10632
2.5669
0.329367
-2.5669
0.270934
2.52518
-0.133092
2.52518
-3.93221
-0.0437552
-3.93221
3.77347
0.202501
3.77347
2.57157
-0.0463867
-2.57157
-0.0690308
2.95252
0.0164371
2.95252
3.66833
-0.00498113
3.66833
-3.53727
-0.126075
-3.53727
3.18035
-3.18035
3.08241
0.0979372
-3.08241
0.163979
-5.07402
5.07343
-0.00799935
-5.06602
1.01814
1.01814
0.77773
-0.0420921
0.77773
-0.861958
0.10569
-0.861958
8.35026
-16.2313
8.82078
-17.3553
7.45243
-21.2294
7.98956
-16.9366
3.77828
-3.77828
3.70685
0.0714337
-3.70685
0.219395
-1.46026
-0.019105
-1.46026
-2.31968
-0.239145
-2.31968
2.8943
-0.335477
2.8943
-3.74248
3.74248
-4.12501
0.382533
4.12501
0.681474
3.01894
-0.0664137
-3.01894
-0.0174024
0.934007
0.152514
-0.934007
0.120135
4.8468
-0.232216
4.8468
-4.077
-0.537577
-4.077
-1.47834
0.018078
1.47834
-0.0521847
-1.25889
0.0675207
-1.25889
-5.0745
0.00847753
-5.0387
-1.40127
-1.40127
1.30414
4.9962
-3.58401
0.0467399
3.58401
-0.0215955
3.5276
0.214881
-3.5276
0.217158
-3.26433
0.0839823
3.26433
0.046107
-0.667933
-0.0229416
-0.667933
-1.04942
1.04942
-0.930627
-0.118798
0.930627
-0.0767383
1.42704
-0.157391
1.42704
1.47859
0.0211207
-1.47859
0.0329674
-4.979
0.24567
-4.979
4.10869
-0.00236982
4.10869
-3.9433
-0.133707
3.9433
-0.27497
-0.00372234
5.07715
-1.01442
-0.000123153
1.01442
-5.10148
5.10136
-0.673123
0.00518943
0.673123
0.104607
1.02946
0.161907
-1.02946
0.1675
3.80706
-0.0335952
-3.80706
0.0287807
-2.03514
-0.284534
-2.03514
-3.22048
-0.328284
3.22048
-0.326178
-5.11514
-0.0779837
5.19312
-5.13676
1.33687
0.0491371
-1.33687
5.1505
-1.16081
-0.108837
1.16081
-0.111384
1.62878
-0.20174
1.62878
5.09638
-0.249583
-5.09638
0.11738
-4.11368
0.181469
4.11368
-0.00499608
-1.80162
-0.233525
1.80162
-0.172843
-13.128
14.4911
7.70872
-6.37324
-7.05429
-12.1867
4.44718
7.12905
14.618
-11.6105
-9.6189
-11.4682
2.86032
-2.69282
-3.7496
3.71022
23.4702
-23.3694
-18.3996
19.0811
20.7765
-20.5607
5.70872
5.71364
15.809
-15.8969
-21.0241
20.6491
15.5198
-15.738
21.9861
-22.0299
-25.6377
25.6041
-16.1041
16.1594
-20.2857
20.1596
-21.0415
20.7665
-8.28388
-9.07143
16.2877
-16.1584
20.3196
-20.6081
-19.2253
19.557
10.0474
4.44372
11.0847
-6.24679
11.9555
-5.22599
12.9347
8.37777
-16.6616
7.85352
-14.9078
9.25466
11.065
-9.07434
-3.11241
-17.9673
17.8809
-17.2598
17.3059
23.8999
-23.8204
-6.17277
11.8864
-5.25341
12.3825
-11.4091
-6.99052
10.0874
4.53063
8.83656
7.45113
-9.02642
-2.44175
-24.7441
24.4945
-25.6287
25.0911
0.0979324
2.42724
-2.52517
1.35239
-0.859861
3.2871
2.00046
2.10615
2.45251
-2.2906
0.24031
-2.76548
-2.89638
-5.38617
5.49291
5.21145
-5.1003
16.4247
7.0455
16.4492
-16.6771
-6.69234
-16.4314
11.3642
7.71684
11.7467
12.0608
8.71566
12.1625
10.3593
-10.3315
-0.0277571
-11.4775
21.8367
1.55489
-18.468
-13.9373
8.85253
6.95644
8.84435
-9.84493
-6.05198
-9.574
-11.1133
-9.9108
-11.4416
12.3852
8.26394
12.2026
-15.3266
15.3216
9.39773
6.12208
9.28755
-9.03125
-6.70674
-9.10028
27.3785
-6.58165
-20.7968
-13.1151
-12.5226
12.9126
9.07356
14.2042
11.3999
14.233
8.83431
18.5442
-17.9079
5.38524
-9.95217
-6.15193
-9.78819
9.26783
6.89159
9.41908
-11.7632
-8.52255
-11.7164
-11.9799
-9.06158
11.9849
8.17473
-12.5215
-13.1072
12.6552
8.11131
7.80323
-17.4221
9.13334
-18.2048
-10.8215
-5.33698
-10.6021
10.8308
6.59467
-17.4254
-5.83089
23.8511
-12.7861
20.7387
-11.0848
-9.5234
-11.1022
-14.6545
-4.57073
-14.223
-8.09449
7.80995
-8.92641
8.59093
26.9525
-16.2076
-10.7448
-12.3781
-8.18261
11.7168
-0.632088
-12.8359
12.8082
-0.880424
12.0543
16.498
15.8659
-10.8814
-6.37841
-10.6642
10.273
7.03287
10.357
15.9433
7.9566
16.1519
-16.6562
-7.16414
-16.41
4.90806
-4.98455
5.73067
-5.71259
15.5501
9.54103
-15.3179
-9.42618
22.9601
-10.7822
-12.1778
-5.12844
5.24674
-0.118309
-1.84134
-0.488946
0.261869
-1.93685
-1.81275
1.87684
0.22931
5.47605
3.6633
-2.41422
2.48174
2.7789
2.70524
-0.191139
2.53006
-2.52487
19.0365
-11.5245
-7.51201
13.8458
-13.7581
-2.56426
-19.2389
16.6746
2.69107
3.04502
-2.98196
-3.97591
-1.41026
-3.94294
2.98794
2.22351
3.14045
2.11923
3.37368
-8.17396
1.58542
6.58855
-6.05473
-3.51488
-13.3518
-6.3249
19.6767
16.6211
7.87339
-16.7385
0.307095
5.31995
-5.35733
-1.5621
-11.7897
8.43068
-9.99278
-15.2576
-6.4394
21.697
-9.58139
-1.08285
9.36651
2.38024
-10.8762
-7.09111
10.7418
1.42073
-12.0639
23.9716
-11.9077
-18.4423
8.51628
13.3204
16.2331
-17.8628
9.31819
8.54466
-4.5424
7.45709
1.38726
7.32399
-19.8278
13.7759
11.2455
8.31152
-11.5749
2.00087
-17.827
25.1256
-22.1984
-2.92725
12.8413
12.2843
13.6003
13.3522
-7.87585
21.4762
-3.54718
-18.6512
21.3742
-13.0626
15.6953
-28.758
-29.0475
10.3963
-18.0286
22.0551
-4.0265
-5.1748
-10.1518
23.2034
-2.04847
-21.155
10.1542
-13.9701
-11.8355
25.8056
-20.5518
18.5423
-6.33186
-12.2104
-12.6519
-9.37796
12.4705
2.85114
-25.7359
31.1212
-7.19173
7.92674
1.36081
7.94317
10.6422
-15.9107
5.26851
9.90954
-16.2414
6.83709
-22.7478
-12.0908
24.0229
-11.9321
-17.4277
-15.6939
-1.73382
4.80958
26.3116
-16.2095
11.9915
4.21792
8.46534
1.89169
-8.56328
-1.22492
0.973599
16.1005
-17.0741
10.3927
10.5141
11.7267
4.37378
10.7676
7.1133
-10.746
-0.970412
-14.7871
5.72557
-6.61242
-14.5626
20.2882
-16.2661
1.70343
-10.3022
-13.9967
24.2989
-16.4541
11.428
12.5436
18.4609
-19.6154
5.61873
-9.7498
-9.86561
10.6473
-17.2597
7.48971
12.7985
15.601
2.49383
12.7096
11.3133
-19.3043
1.09949
18.7644
-16.3227
3.88369
10.3493
-15.8752
0.1813
-10.4208
2.62445
-15.4106
-14.801
16.4176
-20.9883
-12.3404
13.4256
2.72632
-13.7521
-0.470914
-5.02266
-3.07183
-5.25619
-3.30931
-5.61709
-11.1852
-1.95372
-9.23145
5.85624
-6.76139
-4.68022
7.08757
1.50336
-5.01014
4.90131
-5.66268
5.46094
-0.210475
13.0187
15.6554
7.47283
-8.47626
15.9491
-15.5352
23.4918
-29.6452
14.11
15.904
-23.0681
-13.7413
2.73968
2.16838
2.65316
13.5943
-14.5575
0.963157
-13.4175
17.7508
-4.33333
-19.8035
6.386
-6.20919
5.20602
0.52465
5.18692
1.4232
6.85808
-8.28128
-4.28939
-4.34157
-9.149
-13.8543
23.0033
4.7662
-13.1146
8.34843
-12.0952
16.8614
0.0994251
-13.2141
17.0237
-10.1656
17.5483
-11.9958
5.55256
12.7945
22.3631
-9.5686
16.2343
-6.69325
7.04623
-16.6148
-6.80809
-11.2962
18.1878
-13.0026
14.7061
-1.11373
15.8198
-13.7955
3.01329
-2.06883
8.44527
8.65991
16.8103
-12.4365
11.9824
-18.6756
-4.63246
-16.1818
-3.3833
1.04422
-13.8916
12.8474
12.1658
-11.1216
-3.27875
9.09639
-5.81764
5.75618
-2.87935
-2.87684
-1.87089
-3.11366
1.89383
0.636229
6.39241
0.497503
-3.37685
-2.02737
-1.92276
10.4195
8.61697
-3.88456
3.76625
3.62269
-0.577675
0.967986
2.17247
4.64497
-3.67698
0.689357
3.95561
-2.2926
3.85129
1.46866
-3.87241
-0.0705303
-3.41703
11.8477
3.17152
-5.39503
1.71805
2.35908
-13.8836
19.7268
-11.4239
-8.30283
22.0858
3.02852
-14.4525
16.2103
-13.5193
8.06326
-14.3882
-6.3892
-19.9085
-12.863
-10.7312
19.0797
-12.2721
20.1455
3.82205
-20.4526
24.2746
-12.7676
6.32825
-9.49295
10.9616
-4.09377
-5.39918
11.3023
10.3947
-11.0639
-0.725821
0.238447
8.47213
-8.23368
-1.52065
-7.57538
-16.4079
17.8286
-8.25689
17.5751
7.6922
-7.63288
25.208
6.56613
-14.199
-11.8762
-12.959
-5.65435
10.5788
-1.82813
-7.27215
-14.0385
7.31853
0.00546071
-19.0118
22.0501
-3.03835
-12.0553
-1.72054
14.5619
-18.1224
1.88097
-11.2853
10.7648
12.1521
12.1576
-20.8998
-0.255184
-12.6359
3.22167
-15.8575
15.506
-6.85803
17.2543
-16.1215
11.4413
-14.6181
14.327
-1.53047
14.6865
-9.41798
6.11035
-15.4883
-12.6372
14.546
-8.42392
15.9068
-10.19
26.0968
-17.3817
14.5654
11.5314
-2.772
-8.33015
-14.112
11.34
0.453392
8.39657
17.8341
-10.7208
16.8637
8.91862
-18.6684
-8.34112
-25.8605
7.19207
-13.3169
-7.35518
14.5472
11.1057
12.9974
4.68164
-11.7725
17.7407
-19.4745
-5.80862
-8.99236
14.7231
-3.38307
10.2109
-19.2033
-5.19968
13.1459
-0.201858
-12.944
3.06173
-15.4021
5.12978
-20.5319
15.8586
-16.3295
1.79751
-8.0067
-3.21263
-3.32402
-2.20234
-3.46033
-7.66958
5.46724
-1.28358
3.61772
-12.6238
12.4219
-5.12705
10.5943
-4.11698
-1.13921
4.28982
1.17112
11.7654
3.04633
-16.7876
-9.32426
14.7174
-5.39317
1.09526
-10.8453
3.87216
8.06073
14.0251
-24.7353
1.66722
-15.1204
-4.12773
6.2961
4.96867
17.1345
2.57699
6.64235
-0.346248
9.21934
2.30691
2.23017
-11.2729
12.236
1.57453
15.6846
-1.88622
7.43878
3.3007
3.31774
2.03959
5.73309
2.92682
8.74639
0.465103
-3.87647
2.08553
-4.00829
-1.29132
-4.05039
-0.340163
3.75614
-4.0963
10.5879
-1.9709
5.19471
-1.92871
-4.99331
6.92202
-9.44072
-5.57098
-1.61537
-5.66858
7.38663
6.17913
-5.77126
-3.66946
2.42223
-15.2852
11.9659
-12.6918
-2.29709
21.9775
-9.51135
1.27766
-3.1831
-6.29772
-7.70798
7.77851
24.1904
1.01756
12.2827
18.8461
11.755
1.03425
12.0618
-16.0883
-10.686
-16.3435
-0.837487
13.7244
5.66397
20.6476
17.1953
13.8123
-5.39099
-24.8655
20.7665
-8.53053
16.4332
-3.48918
-17.0427
14.5531
8.93869
-17.2794
0.94996
-16.0927
-24.6233
-0.352006
12.7739
-11.4134
10.2742
7.20237
2.02908
-2.46049
-0.863524
2.57929
-0.349117
8.87023
-0.179568
-8.28436
8.46393
-3.57657
2.28526
-0.466852
4.2331
6.45516
4.48426
-3.8001
-7.8964
-8.87076
-5.0128
-17.1736
2.50313
-8.68226
5.74827
-3.46301
2.87143
5.00092
10.1956
-1.60872
-9.51286
7.42635
-4.55493
5.6407
)
;

boundaryField
{
    wall-4
    {
        type            calculated;
        value           uniform 0;
    }
    velocity-inlet-5
    {
        type            calculated;
        value           uniform -11.2529;
    }
    velocity-inlet-6
    {
        type            calculated;
        value           uniform -1.87548;
    }
    pressure-outlet-7
    {
        type            calculated;
        value           nonuniform List<scalar> 8(4.32026 4.89445 11.0241 11.9085 17.4815 15.2829 17.171 15.442);
    }
    wall-8
    {
        type            calculated;
        value           uniform 0;
    }
    frontAndBackPlanes
    {
        type            empty;
        value           nonuniform List<scalar> 0();
    }
}


// ************************************************************************* //
