/*--------------------------------*- C++ -*----------------------------------*\
  =========                 |
  \\      /  F ield         | OpenFOAM: The Open Source CFD Toolbox
   \\    /   O peration     | Website:  https://openfoam.org
    \\  /    A nd           | Version:  9
     \\/     M anipulation  |
\*---------------------------------------------------------------------------*/
FoamFile
{
    format      ascii;
    class       volVectorField;
    location    "26.9";
    object      U;
}
// * * * * * * * * * * * * * * * * * * * * * * * * * * * * * * * * * * * * * //

dimensions      [0 1 -1 0 0 0 0];

internalField   nonuniform List<vector> 
918
(
(2.47629 -0.138943 0)
(0.108704 0.722546 0)
(0.171731 1.05456 0)
(2.31834 0.153728 0)
(-0.0598751 1.26969 -1.22147e-19)
(-0.0924034 0.643931 -5.31409e-18)
(0.529905 0.849396 -2.95507e-19)
(0.274328 0.152876 -2.98863e-20)
(3.00615 -0.0195608 0)
(-0.00822315 0.476636 0)
(-0.0171963 0.589047 0)
(0.605216 0.00676572 0)
(0.0107054 0.439105 0)
(-0.00288248 0.421689 0)
(0.0134412 0.340826 -1.30524e-18)
(-0.00478043 0.768938 -9.20646e-20)
(0.312407 0.0742703 2.15223e-18)
(0.0797265 0.642138 -2.2311e-19)
(1.52884 0.128628 0)
(-0.0267732 0.685253 0)
(0.194596 0.157725 -1.26564e-18)
(3.08302 -0.397373 0)
(2.92445 -0.50598 0)
(1.86116 -0.1811 0)
(0.51139 0.0400858 0)
(-0.0253684 0.52155 0)
(-0.00135313 0.494038 1.8625e-18)
(-0.0227134 1.40075 0)
(0.0740802 2.88494 0)
(0.16802 1.73725 0)
(-0.0390666 3.16421 0)
(0.0269411 1.63925 9.39192e-20)
(0.0231883 0.686424 0)
(-0.147424 0.775093 -2.03096e-22)
(-0.193914 1.0291 4.42146e-18)
(-0.0415772 1.04471 0)
(0.744577 -0.00600516 0)
(0.161025 0.246338 6.65606e-19)
(0.993302 1.5127 6.5308e-19)
(0.649816 0.784195 -5.16184e-19)
(0.798429 1.57471 6.20345e-20)
(0.416697 0.851105 -3.20302e-19)
(0.552336 0.306572 2.93927e-20)
(0.296974 0.153648 0)
(0.962916 0.566511 0)
(0.53262 0.303955 1.32022e-19)
(0.257983 0.162794 -1.35474e-19)
(0.871596 -0.0554788 0)
(3.02784 -0.00170484 0)
(3.00685 0.0178656 0)
(3.20086 -0.417733 0)
(3.04288 -0.0742118 0)
(3.03116 -0.0388406 0)
(0.0186557 0.9038 -1.14656e-18)
(-0.0542327 0.973621 0)
(0.00283518 0.454801 0)
(-0.0290761 0.980591 0)
(-0.0113708 0.480928 0)
(-0.00133931 0.870756 0)
(-0.0520567 1.11005 0)
(-0.0125595 0.541377 0)
(-0.0253196 1.16136 0)
(-0.00592609 0.621282 0)
(0.790474 0.0116236 0)
(1.16943 -0.00156248 0)
(0.618251 0.0123695 0)
(1.12579 0.0175984 0)
(0.569764 0.008679 0)
(0.225406 0.921982 1.95987e-18)
(0.0985379 1.2081 0)
(0.176302 1.06604 0)
(0.0331901 0.755774 2.19941e-23)
(0.0372233 0.498055 -2.93114e-18)
(0.0194616 0.747943 0)
(0.0059542 0.422033 0)
(-0.000695369 0.734548 4.51764e-24)
(0.000702461 0.414825 0)
(-0.0169205 0.74318 0)
(-0.0129374 0.42798 0)
(0.0494453 0.650005 0)
(0.0484473 0.458249 0)
(0.00801012 0.621964 1.23408e-18)
(0.00074714 0.344907 0)
(-0.0698521 4.69191 0)
(0.00880135 1.45868 9.1401e-20)
(-0.010527 0.785834 -1.17684e-19)
(0.636105 0.15215 -7.50979e-19)
(0.321622 0.0656856 -7.28738e-19)
(0.644812 0.169728 -2.25475e-18)
(0.317541 0.0955737 -1.45163e-18)
(0.0785963 0.618719 0)
(0.178451 1.31308 1.85024e-19)
(0.179631 0.729866 -2.95212e-19)
(2.06031 0.260946 0)
(1.10704 0.11845 0)
(3.03313 0.103887 0)
(3.10392 0.446059 0)
(2.83919 0.377459 -1.01281e-17)
(2.5781 0.361309 7.77148e-18)
(-0.0707693 1.26256 0)
(-0.0113965 0.62286 0)
(-0.0142752 1.90053 0)
(-0.0507563 1.34629 0)
(-0.0480884 0.67896 0)
(0.440337 0.295648 4.00697e-19)
(0.225475 0.163368 0)
(2.2961 -0.266393 0)
(1.32372 -0.119274 0)
(1.07633 0.0126679 0)
(1.012 0.0187643 0)
(0.540929 0.0108503 0)
(1.01984 0.0563961 0)
(0.821229 0.0703269 0)
(0.343628 0.0286959 3.36313e-18)
(-0.00543515 0.451601 1.7736e-18)
(-0.0270316 0.784628 0)
(-0.0473188 0.847509 0)
(-0.0152742 0.460436 0)
(0.000132446 0.839725 1.81605e-18)
(7.29857e-05 0.48753 0)
(-0.00547891 0.845554 -5.59055e-18)
(-0.00488634 0.496761 1.88641e-18)
(0.0534495 3.56637 0)
(0.0416923 4.02569 0)
(-0.0163641 1.41097 -2.05245e-21)
(-0.0132054 1.36314 0)
(-0.00987289 0.741511 0)
(1.41018 0.0348839 0)
(0.760547 0.0154384 0)
(0.709515 0.0142642 0)
(1.41618 -0.0328485 0)
(0.773514 -0.00873992 0)
(0.322107 0.480421 -8.35692e-19)
(0.156827 0.232749 0)
(0.325013 0.509249 9.36571e-20)
(0.163387 0.268474 0)
(1.24055 1.38651 1.6651e-19)
(0.778548 0.740685 -3.92553e-19)
(0.41144 1.4214 0)
(0.606939 1.53335 0)
(0.30342 0.814405 0)
(0.145368 0.353461 -4.42906e-19)
(0.607334 0.280731 0)
(0.313522 0.134643 3.98843e-19)
(1.42711 1.30646 0)
(1.5865 1.16836 0)
(0.874791 0.663801 4.6184e-19)
(1.73375 0.952986 0)
(1.06851 0.43873 2.32198e-20)
(1.47298 0.00813819 0)
(1.501 -0.0292393 0)
(0.801895 -0.00441632 0)
(1.95042 -0.199779 0)
(1.65082 -0.14818 0)
(1.05215 -0.0889697 0)
(3.06126 0.164853 0)
(3.03105 0.0687874 0)
(3.01022 0.0531594 0)
(0.0357513 1.60698 6.08369e-19)
(0.0179019 0.827671 0)
(0.0180443 1.69794 1.08005e-18)
(0.00307889 0.939821 -9.71001e-19)
(0.0646771 1.15155 1.87931e-19)
(0.0476911 0.988456 0)
(0.0401809 0.528326 0)
(-0.028626 1.00452 0)
(-0.00697054 0.517021 0)
(0.0180771 1.61735 -4.43356e-21)
(-0.0181343 0.866587 0)
(-0.0539755 1.58594 -2.25819e-19)
(-0.016206 0.821694 4.37345e-19)
(-0.00177443 1.02873 0)
(0.0102469 1.04294 0)
(5.04036e-05 0.531043 0)
(0.0106347 1.1699 0)
(0.00086897 0.611828 0)
(1.4683 -0.00370551 0)
(0.789211 0.00805879 0)
(1.44054 0.0331651 0)
(0.761788 -0.000557942 0)
(0.675385 0.00534425 0)
(1.26196 0.0166816 0)
(1.20239 0.0473079 0)
(0.659694 0.0155557 0)
(-0.00580052 1.42077 -1.70215e-20)
(0.000184315 1.37708 0)
(0.00482011 0.732923 0)
(0.00172892 0.417221 0)
(0.284473 0.828825 0)
(0.253646 0.399773 -2.87156e-19)
(-0.0022293 0.635413 0)
(-0.00889616 0.367611 0)
(0.00980516 4.33786 0)
(-0.0507254 4.66441 0)
(-0.0201871 4.56629 0)
(-0.0729938 3.36742 2.04562e-20)
(-0.0597822 4.60313 0)
(-0.0533901 4.17989 0)
(0.00478438 0.819753 1.07972e-20)
(0.0141728 1.56361 1.65408e-19)
(-0.035931 1.50389 1.20909e-19)
(-0.00749541 0.826476 0)
(0.664446 0.105711 1.15334e-18)
(0.325692 0.0441638 -1.1303e-18)
(0.149771 1.13396 0)
(0.101012 0.573661 -2.69296e-19)
(0.118268 1.23395 -8.7452e-19)
(0.0519285 0.687556 8.70018e-19)
(0.809202 0.0240634 0)
(1.55677 0.0476793 0)
(1.7097 0.127652 0)
(0.919845 0.0445227 0)
(0.00782858 1.18122 0)
(0.0257746 1.18942 0)
(0.00445414 0.627384 0)
(0.48214 0.3151 1.20368e-18)
(0.436872 0.309102 -1.38677e-18)
(0.234779 0.164183 0)
(1.93545 0.152989 1.15246e-19)
(1.13639 0.0932445 0)
(1.72433 0.118439 0)
(0.883715 0.022693 0)
(0.678188 0.0857397 0)
(0.699727 0.0460605 -5.40779e-18)
(0.346734 0.0325966 1.99911e-18)
(0.00914707 0.807284 1.69376e-18)
(0.00222271 0.46251 4.08165e-20)
(-0.0108777 1.40842 -3.58018e-20)
(0.00613616 1.38675 1.36592e-18)
(-0.0149832 0.848955 6.29462e-20)
(-0.0119261 0.524486 -2.52916e-22)
(-0.107514 1.00068 -1.16492e-18)
(-0.0529602 1.3532 8.34023e-19)
(-0.0175323 1.35275 -1.35781e-18)
(1.42273 -0.0170853 0)
(1.44235 0.0203178 0)
(0.769869 -0.000178079 0)
(1.45218 0.0253831 0)
(1.3632 0.0462296 0)
(0.761542 0.0203069 0)
(1.30062 -0.00215398 0)
(1.31868 -0.00584911 0)
(0.695056 -0.000986729 0)
(0.304895 0.473464 -9.153e-19)
(0.161377 0.242707 0)
(0.157186 0.308484 1.36954e-19)
(0.309651 0.585999 1.12228e-18)
(0.307456 0.548669 -6.64399e-19)
(0.156847 0.281942 1.29833e-18)
(0.278556 0.717881 2.18185e-18)
(0.148304 0.380943 3.93691e-19)
(0.636113 0.213102 1.53754e-18)
(0.626018 0.253614 3.9934e-19)
(0.31663 0.115049 7.49309e-19)
(1.92118 0.71456 -5.99754e-19)
(1.16763 0.336076 -7.01977e-19)
(-0.0351042 1.70507 4.64241e-19)
(-0.0114128 0.925883 0)
(1.60388 0.0239484 0)
(1.52189 0.0653702 0)
(0.852924 0.0268568 0)
(-0.00355881 1.38473 0)
(0.00507421 0.729574 2.49522e-18)
(0.00465036 0.731252 0)
(0.00207079 0.415097 -2.44226e-18)
(-0.0102751 1.38626 5.9568e-19)
(-0.00947267 1.4225 0)
(0.336589 0.488194 2.57979e-19)
(0.360076 0.546457 -8.6307e-19)
(0.171854 0.257844 7.81207e-19)
(-0.0256695 0.767467 -1.6627e-18)
(-0.0261513 0.689734 0)
(-0.0154342 0.412937 0)
(0.0301047 1.54955 -1.27352e-20)
(0.0313212 1.58208 -3.64878e-19)
(0.0178726 0.823367 -1.55955e-20)
(0.213471 1.04446 8.90163e-19)
(0.119703 0.509182 -5.92358e-19)
(0.011916 1.48593 7.30743e-19)
(0.0559174 1.35169 -8.15586e-19)
(0.0268618 0.760884 3.53133e-20)
(0.00751342 1.36614 -3.80773e-18)
(-0.00021498 1.39326 4.40957e-18)
(0.0037734 0.829776 1.73299e-18)
(-0.0138289 0.805094 -1.72546e-18)
(-0.00430907 0.481399 -1.73863e-18)
(-0.0106511 1.41685 -4.49997e-18)
(-0.0152178 1.40032 4.58917e-18)
(0.286426 0.67493 0)
(0.299831 0.634744 -2.28795e-18)
(0.151967 0.331777 9.90456e-19)
(0.281294 0.796159 1.18519e-18)
(0.138845 0.427615 -1.82873e-18)
(2.05692 0.322561 4.15866e-19)
(2.05146 0.547684 0)
(1.2186 0.220968 -4.01823e-19)
(-0.0739392 1.63712 -4.80213e-21)
(-0.0141201 1.69248 0)
(-0.0157085 0.922969 0)
(0.227165 0.944777 -3.22827e-19)
(0.248302 0.866724 -7.06984e-19)
(0.128845 0.463388 1.32493e-18)
(3.16442 -0.442872 0)
(3.34728 -0.414685 1.81288e-18)
(0.0611391 3.48405 0)
(0.0481852 2.80776 0)
(3.15925 0.249915 1.4192e-20)
(3.12355 0.506295 3.71228e-18)
(0.0223371 3.43243 -2.74532e-20)
(0.00879301 2.6644 0)
(-0.041644 1.19605 1.55508e-18)
(0.190095 1.31643 0)
(3.47244 1.62497 -3.24783e-19)
(3.17427 0.272573 -2.96098e-20)
(3.14838 -0.118697 0)
(3.10047 -0.000404166 3.731e-22)
(0.0440043 2.58825 0)
(0.157879 3.30315 0)
(-0.0548827 2.53174 0)
(-0.0230297 3.49168 3.15793e-19)
(-0.0251332 3.57237 1.99275e-19)
(2.63345 0.0488282 -1.36491e-20)
(3.0475 0.0311489 0)
(3.1579 0.0868337 0)
(-0.0528948 4.61759 0)
(-0.0462031 3.08501 0)
(-0.0722952 2.93419 0)
(0.652408 3.10441 2.658e-19)
(3.33884 -0.422459 0)
(3.0114 -0.34581 0)
(3.1699 -0.053037 2.2773e-18)
(3.2927 -0.3287 -2.74213e-18)
(3.1038 -0.125777 0)
(-0.0586121 4.51557 0)
(0.0152841 3.93484 0)
(0.00689293 4.26582 0)
(-0.0271783 3.09483 0)
(-0.0135361 2.85089 0)
(-0.0307759 2.42351 0)
(2.97422 -0.00317075 0)
(2.85043 0.0486275 -1.805e-20)
(2.24659 3.04879 -3.21654e-19)
(3.15695 0.0444551 -2.27837e-18)
(3.19037 0.278179 2.76948e-18)
(3.0828 0.117338 0)
(3.3954 0.328925 2.08739e-18)
(3.35695 0.484366 -2.70668e-18)
(3.07111 0.418429 0)
(-0.0554928 3.34823 0)
(0.0049014 3.27744 8.52499e-20)
(-0.0306696 2.57661 -6.04084e-20)
(3.70783 0.555282 2.26565e-18)
(3.47095 0.208483 0)
(-0.151977 1.27126 -2.16603e-18)
(-0.0624247 0.882159 -1.35041e-19)
(-0.084823 1.33672 2.98575e-18)
(-0.0352275 1.27046 -8.99659e-19)
(-0.000487334 1.08842 0)
(-0.0266648 1.23955 6.94888e-19)
(-0.115051 1.38786 2.14665e-18)
(-0.0590477 1.34056 -1.3142e-18)
(-0.0767378 1.32063 0)
(1.28937 0.597245 0)
(1.17735 0.682424 0)
(3.5565 2.02933 9.53645e-19)
(3.04965 1.93578 -1.19075e-18)
(3.83764 1.70648 0)
(3.3841 1.15677 0)
(3.34934 0.280495 -3.91702e-18)
(2.89884 0.17312 4.84002e-18)
(3.35145 -0.155479 0)
(2.85479 -0.0761362 0)
(3.43642 0.0430257 0)
(3.5938 0.145056 0)
(3.28683 0.119874 0)
(3.55033 0.29858 0)
(3.40841 0.293059 0)
(3.32755 0.218074 0)
(0.0974989 2.78953 0)
(0.0344739 2.07831 0)
(0.126732 3.05042 0)
(0.0926946 2.20463 0)
(0.215244 3.59603 0)
(0.140325 2.67588 -5.58687e-19)
(0.0536686 3.61264 0)
(0.0115801 3.01655 4.05703e-19)
(-0.024317 3.20581 -5.17113e-19)
(-0.0590766 2.79622 0)
(-0.0228183 2.19909 0)
(-0.0718972 2.90379 0)
(-0.0554955 2.04735 0)
(-0.106566 4.75044 -2.45547e-19)
(-0.079356 3.94344 2.77261e-19)
(-0.0743728 3.80451 3.09092e-19)
(-0.0527314 3.0191 0)
(-0.104651 3.80572 -4.58744e-19)
(-0.0372707 3.21735 -2.9509e-19)
(-0.0808092 4.78285 1.92577e-19)
(-0.0935766 4.46709 -3.50452e-19)
(-0.0686145 4.33691 -3.78951e-19)
(3.03135 0.0883833 3.35878e-18)
(2.28961 0.0321814 -4.23e-18)
(2.89133 0.132842 -3.32771e-18)
(2.20959 0.0734876 4.1565e-18)
(3.36857 0.0277232 0)
(2.64306 -0.00265191 0)
(3.45415 0.0913503 0)
(3.32023 0.0192863 0)
(2.70664 0.00922537 0)
(3.68028 0.23963 0)
(3.43882 0.0959955 0)
(2.86366 0.0565134 0)
(-0.0227971 4.33569 -1.20346e-20)
(-0.0557909 4.65369 0)
(-0.0611359 4.54942 0)
(-0.0753505 3.5062 8.77619e-20)
(-0.0375907 2.77983 -3.46663e-21)
(-0.0807282 4.6701 1.13425e-19)
(-0.0948779 4.45833 -1.14622e-19)
(-0.0783062 3.95519 0)
(-0.0564618 3.8756 0)
(-0.0201547 3.99251 0)
(-0.0713934 3.2548 0)
(-0.0426984 2.29971 0)
(0.948727 3.66079 -6.08918e-19)
(0.921014 2.85249 -1.76387e-19)
(0.430445 2.05339 -2.28213e-19)
(0.252402 2.30005 6.97054e-19)
(1.02406 4.20059 2.63822e-19)
(3.43308 -0.167422 0)
(3.32213 -0.256546 0)
(2.88327 -0.189515 0)
(3.47032 -0.0643462 0)
(3.34581 -0.147865 0)
(3.44893 -0.261023 0)
(3.5195 -0.283601 0)
(3.57949 -0.28113 0)
(3.22413 0.0933868 3.61907e-18)
(2.55519 0.0645179 -4.57626e-18)
(3.0965 0.106577 -3.56253e-18)
(2.5091 0.0566743 4.43279e-18)
(2.23985 3.4166 0)
(1.73946 2.94788 -4.45679e-19)
(2.56688 3.34868 -4.03247e-19)
(2.36934 2.52929 5.35955e-19)
(0.77457 1.21312 2.72235e-18)
(1.44679 0.216479 1.34321e-18)
(3.72253 0.304237 0)
(3.89311 0.572799 -1.8461e-18)
(3.29896 0.243947 -8.23441e-20)
(3.72083 0.440135 0)
(0.236643 1.31235 1.79612e-18)
(-0.0166341 1.20199 -2.87641e-18)
(0.0588234 0.769965 1.61457e-18)
(0.275959 0.464912 -7.47857e-19)
(0.187265 1.38379 8.71016e-19)
(0.0506543 1.23718 0)
(0.0577429 1.08618 -1.13231e-18)
(0.191739 1.443 -4.09222e-18)
(0.329038 1.557 0)
(0.00867275 1.2902 1.19589e-19)
(-0.00971788 1.45729 -1.34025e-18)
(-0.0410149 1.30282 1.94844e-18)
(-0.0574442 1.41766 0)
(-0.0204765 1.38228 0)
(0.681136 1.04995 0)
(2.45695 2.45522 -1.06622e-18)
(2.6439 2.17356 3.95259e-19)
(2.79246 2.88238 0)
(3.21301 3.06749 -3.94578e-19)
(3.16588 2.41165 2.84613e-20)
(0.80371 0.589355 -1.82241e-18)
(1.55589 0.691456 -1.62189e-20)
(1.2329 0.451 8.72158e-19)
(1.27503 0.843629 5.9506e-20)
(0.938804 0.633822 -2.36952e-18)
(1.46423 0.714144 0)
(1.98984 1.09971 1.45595e-18)
(2.03199 1.01566 0)
(1.41179 0.790676 0)
(1.06194 0.549665 0)
(3.37554 2.18019 1.00851e-18)
(3.94753 0.760897 -1.86342e-18)
(3.84785 1.21606 0)
(3.53377 0.757771 0)
(1.39136 0.36476 1.3325e-18)
(3.25807 1.84223 -8.51513e-19)
(2.83441 1.65441 1.54686e-18)
(3.7553 1.37706 -1.83591e-18)
(3.09794 0.11476 2.46403e-18)
(3.16856 0.180817 -2.57898e-18)
(2.66183 0.0916424 0)
(3.3073 -0.039497 0)
(3.20141 -0.0842569 -2.36656e-18)
(2.63243 -0.0321099 2.34572e-18)
(3.9563 0.0932041 0)
(3.75969 0.145653 0)
(3.69369 0.155373 0)
(3.5883 0.204748 0)
(3.83261 0.0590311 0)
(3.72611 0.0522526 0)
(-0.0400094 2.51158 0)
(-0.0376414 2.01081 0)
(0.357342 3.98813 -4.11295e-19)
(0.66285 3.33337 -1.60042e-19)
(0.259681 3.02727 -3.58061e-19)
(0.343774 2.54772 5.7354e-19)
(0.458483 4.0143 0)
(0.470539 4.6717 -5.09912e-19)
(0.383926 4.73 0)
(0.911711 4.37579 -3.79513e-19)
(0.673757 3.81537 9.68874e-19)
(0.59788 4.65302 4.46956e-19)
(0.741075 4.20094 -1.87521e-19)
(0.602995 4.32621 1.50873e-19)
(0.916937 4.65724 -6.63786e-19)
(0.750229 4.66204 0)
(0.859193 4.58967 5.04566e-19)
(0.0075092 4.57337 -1.81147e-19)
(-0.0183688 3.64881 0)
(0.101988 4.28844 5.49641e-19)
(-0.00237171 4.3915 0)
(-0.00340979 3.4603 -4.51134e-19)
(-0.0151422 2.91393 0)
(-0.0998735 4.30729 -2.89089e-19)
(-0.105438 4.68156 0)
(-0.0526504 3.80465 0)
(-0.0396103 3.7263 3.25141e-19)
(-0.04685 3.88991 1.03829e-20)
(-0.0345877 3.71101 6.2599e-19)
(-0.0411231 2.95142 4.06916e-21)
(-0.113781 4.71084 1.80158e-19)
(-0.102613 4.74227 1.03205e-19)
(-0.0167308 2.62154 0)
(0.0012283 2.13407 0)
(-0.0409879 4.78976 4.86169e-19)
(-0.0477337 4.30795 4.23747e-19)
(-0.0824646 4.5846 -5.53976e-19)
(0.0170425 4.75824 0)
(-0.0786685 4.53572 -3.09085e-19)
(-0.117831 4.16969 1.27758e-19)
(-0.0850118 4.25036 -4.13027e-20)
(-0.0701183 4.72972 -2.18862e-19)
(-0.0854688 4.27161 -6.85563e-20)
(-0.0837615 4.21654 3.06712e-19)
(2.87142 0.0610228 -2.36365e-18)
(2.85888 0.0497049 2.27312e-18)
(2.3386 0.0345572 0)
(3.51011 0.192029 3.04666e-18)
(2.70369 0.126542 -3.30491e-18)
(2.25451 0.0644844 3.60974e-18)
(3.6825 0.33533 -4.0166e-19)
(3.20989 -0.0485217 0)
(3.17212 -0.0135498 2.23711e-18)
(2.6909 -0.0123753 -2.21948e-18)
(3.87876 0.122243 -1.25245e-19)
(3.77176 0.101857 1.07839e-18)
(4.15976 0.173488 0)
(4.22846 0.181148 -3.75151e-19)
(4.0137 0.145235 0)
(3.6949 0.155406 0)
(4.0323 0.0950875 0)
(3.71179 0.0873329 0)
(4.18472 0.113886 7.85539e-19)
(4.1372 0.0791379 -1.74799e-18)
(4.14067 0.113888 -8.48052e-19)
(4.1864 0.11653 -9.24533e-19)
(4.21569 0.229012 1.77416e-18)
(3.85474 0.188629 0)
(4.06127 0.301913 0)
(-0.0725921 4.58106 -1.35736e-19)
(-0.0332478 4.64485 -1.16781e-20)
(-0.0659978 4.66132 0)
(-0.0552685 4.19747 1.38114e-19)
(-0.0537066 4.2248 2.25386e-20)
(-0.0584509 4.09299 -2.18456e-20)
(-0.0802171 3.52936 2.61193e-19)
(-0.143516 4.00859 -1.45201e-20)
(-0.102267 4.13601 7.4764e-20)
(-0.0742086 3.40484 -1.32322e-19)
(-0.0247583 2.92753 1.58467e-19)
(-0.0758077 4.42791 5.19901e-21)
(-0.0887194 4.64246 1.72231e-19)
(1.24366 4.35902 3.47503e-19)
(1.15993 4.52829 7.26068e-19)
(1.73661 3.46578 4.30961e-19)
(1.3086 3.55979 1.69561e-19)
(1.28618 2.8889 0)
(0.548701 2.31932 2.74914e-19)
(0.46369 1.74193 3.30725e-19)
(0.34528 2.5682 1.51041e-20)
(0.49241 3.17421 -1.16134e-18)
(0.632055 3.13298 8.76589e-19)
(0.432957 2.40511 0)
(0.293728 1.97258 -5.57338e-19)
(0.260073 3.07883 1.3949e-18)
(0.273521 2.72041 -3.13922e-20)
(0.158041 2.27715 -1.74828e-18)
(0.591506 1.41125 1.46347e-18)
(0.576488 1.61712 0)
(3.58364 -0.0751501 8.64372e-20)
(3.61861 -0.254102 -7.25999e-20)
(3.72135 -0.217713 -1.26661e-18)
(3.75927 -0.12602 1.28249e-18)
(3.67616 -0.0488564 0)
(2.4464 3.8712 0)
(2.61802 3.91446 0)
(2.88957 3.6253 0)
(2.73635 3.64253 0)
(0.854273 1.39452 -3.33898e-21)
(0.611554 1.03916 0)
(1.70935 3.38451 1.5022e-20)
(1.42129 3.46362 0)
(1.3268 2.95083 -1.28382e-18)
(1.40731 2.89344 8.24473e-19)
(1.79131 0.3104 0)
(1.43048 0.26202 3.5208e-19)
(2.41169 0.358826 2.19188e-18)
(1.7861 0.284835 -7.85463e-19)
(1.42634 0.112198 -2.49509e-18)
(4.2663 0.790057 -2.56561e-18)
(3.85203 0.995176 -3.67198e-20)
(3.29699 0.844618 2.06793e-18)
(3.87583 0.745443 1.81336e-18)
(3.12311 0.465678 -3.04518e-18)
(2.91027 0.452155 3.75005e-19)
(3.19256 0.682308 -8.18757e-19)
(2.97615 0.683392 0)
(3.75871 0.563972 1.53772e-18)
(4.09569 0.629375 0)
(4.09121 0.776443 0)
(4.04575 0.415902 8.23716e-19)
(4.29665 0.642557 -3.02476e-20)
(4.24943 0.715869 -4.52902e-19)
(4.17656 0.643253 0)
(3.61568 0.130411 1.71826e-18)
(4.19 0.18359 2.1443e-18)
(4.09069 0.151652 -1.67949e-18)
(4.13652 0.240866 -1.44292e-18)
(3.74575 0.238207 -2.15648e-18)
(3.30292 0.375961 0)
(3.40346 0.302401 0)
(2.55815 0.190647 -1.26611e-18)
(2.10849 0.119113 4.76789e-19)
(4.03724 0.352615 1.94044e-18)
(4.28773 0.432829 -2.34661e-18)
(4.28489 0.489457 2.06901e-18)
(4.15714 0.493513 0)
(4.25663 0.337287 0)
(4.2665 0.322387 -9.81981e-19)
(4.2143 0.31615 -1.5966e-18)
(2.22708 3.48737 6.20513e-19)
(1.93786 3.23109 -6.83403e-19)
(1.4459 2.35565 -1.03196e-18)
(1.18651 1.99643 2.66863e-19)
(0.883876 1.37828 -2.62888e-18)
(0.793747 1.21554 9.22194e-19)
(0.600831 0.904019 -1.96968e-21)
(1.11468 1.78487 -1.13794e-18)
(1.14202 1.88199 1.69872e-18)
(0.974463 1.70024 5.06108e-19)
(0.78602 1.28873 -5.12724e-19)
(0.635465 1.07448 0)
(2.44583 2.60689 -1.15441e-19)
(0.70526 1.14425 8.57285e-19)
(0.927827 0.889773 1.15625e-18)
(0.755343 0.813658 1.33783e-18)
(1.08316 0.746564 1.34123e-18)
(1.46702 1.04438 -2.2704e-18)
(1.38305 1.07128 1.83953e-18)
(1.00187 0.765564 -6.76792e-19)
(0.817083 0.568043 1.49473e-18)
(1.61555 0.490766 -7.78149e-19)
(1.55902 0.508344 0)
(1.23959 0.407347 4.60657e-21)
(2.50935 1.51593 7.75601e-19)
(2.07993 1.2702 -2.80874e-18)
(1.68677 1.18446 9.09008e-21)
(1.66082 1.09239 0)
(2.86228 2.59513 8.73841e-19)
(3.44684 2.75278 1.03752e-18)
(3.25589 2.93071 -1.19601e-18)
(3.55424 2.7633 -4.28408e-19)
(3.48424 2.60349 -1.34903e-19)
(3.51244 2.79496 1.38796e-19)
(3.67434 2.26696 -1.6795e-18)
(3.70519 2.492 4.0077e-19)
(3.78364 2.43572 0)
(3.78441 2.19147 -5.79744e-19)
(4.04899 1.07329 5.8059e-19)
(4.27595 0.993126 1.00222e-18)
(4.3004 0.966835 1.01172e-18)
(4.05506 1.3293 -1.14968e-18)
(4.10285 1.3497 0)
(4.15249 1.23366 0)
(3.32778 1.23572 -1.56047e-20)
(2.4178 0.666498 0)
(2.72193 0.744044 9.30695e-19)
(3.23834 0.885935 -2.64549e-20)
(3.77295 1.53464 5.1077e-18)
(3.5699 1.76187 1.31119e-18)
(3.48104 1.54046 -1.34073e-18)
(3.03747 1.36978 1.4375e-18)
(2.76077 1.36967 8.23804e-19)
(2.30668 1.15592 -7.97836e-19)
(3.67221 -0.0855445 1.98471e-18)
(3.8947 -0.0289341 0)
(3.85894 -0.0665504 1.34212e-18)
(3.74291 -0.05941 -2.98787e-18)
(3.98056 0.0373753 1.46203e-18)
(3.90444 0.113425 -3.08306e-18)
(3.73986 0.128034 0)
(3.55625 0.173469 -6.28571e-19)
(3.81197 0.12298 1.60534e-18)
(3.69195 0.191383 -8.2259e-19)
(3.6003 0.171077 5.90739e-19)
(-0.0800877 2.5897 0)
(-0.0466308 3.39666 0)
(-0.031745 2.4608 0)
(-0.0214947 1.9697 0)
(0.0466979 3.93987 6.70667e-19)
(0.140514 3.72117 -1.7296e-19)
(0.317897 4.6439 -2.29737e-19)
(0.253537 4.46038 2.42634e-19)
(-0.0243798 4.29304 -4.97501e-19)
(0.0127286 4.32516 3.73589e-19)
(0.0962567 3.86841 2.22647e-20)
(0.0102171 3.55561 -4.67097e-19)
(-0.012098 3.30728 -6.22618e-20)
(-0.0388276 3.66968 -5.6732e-20)
(0.153873 4.47612 -5.87012e-19)
(0.179044 4.28979 0)
(0.276388 4.63574 2.96437e-19)
(0.269531 4.70977 2.53016e-19)
(0.596546 4.44509 -2.26031e-19)
(0.408722 3.78192 0)
(0.457846 3.62949 -1.11502e-18)
(0.560697 3.99835 7.90079e-19)
(0.480854 4.5625 -6.1486e-19)
(0.371192 4.43355 3.30796e-19)
(0.300183 4.15575 0)
(-0.0339285 4.76268 -5.53182e-19)
(-0.0737605 4.52892 -6.41526e-19)
(-0.0748554 4.74116 0)
(-0.028163 4.36173 -6.25237e-21)
(-0.0180609 4.64279 2.74245e-19)
(-0.118036 3.88035 4.46929e-20)
(-0.0550845 3.48483 -6.53593e-19)
(-0.095149 3.92319 1.74163e-19)
(-0.134807 4.51668 2.32268e-19)
(-0.0753354 4.32684 0)
(-0.0594559 3.88485 0)
(-0.0821201 2.89703 2.00784e-19)
(-0.0475322 3.63016 -6.26507e-20)
(-0.0726493 3.61763 0)
(-0.0881636 2.68593 1.58089e-19)
(-0.0463672 2.19288 -3.06308e-19)
(3.76103 0.0323447 0)
(3.7319 0.00774669 -2.03287e-19)
(4.1795 0.067964 -1.44002e-18)
(4.0891 0.0463143 0)
(3.87633 0.0178256 0)
(4.14973 0.0370609 -1.25246e-20)
(4.1003 0.034955 2.37905e-18)
(4.0001 0.0802167 2.84582e-18)
(3.75586 0.118673 0)
(3.55802 0.110059 0)
(4.01333 0.0939664 1.41756e-18)
(3.70325 0.116144 0)
(3.4721 0.128881 0)
(-0.0815534 4.7005 0)
(-0.107429 4.66858 1.06655e-20)
(-0.0777235 4.72042 6.30053e-20)
(-0.0609932 3.83095 0)
(-0.112846 4.5358 1.11241e-19)
(-0.0685495 4.24015 -6.33548e-20)
(-0.0545023 3.92843 0)
(1.41086 4.18614 0)
(1.20981 4.58023 -1.29815e-18)
(1.22519 4.48836 0)
(1.57437 4.48683 1.48462e-18)
(1.59337 4.12035 0)
(1.50184 4.37099 -6.06638e-19)
(1.01165 2.24291 -3.39512e-20)
(0.709299 1.64564 -1.74483e-18)
(0.590769 1.22766 2.12884e-18)
(0.708911 1.83532 3.96854e-19)
(0.975289 2.42458 0)
(1.03665 2.37963 0)
(0.718521 1.68761 0)
(0.532438 1.33036 -1.39538e-18)
(1.20936 3.77541 -9.83546e-19)
(1.12915 2.98946 -2.35521e-19)
(1.32735 3.40546 1.92616e-19)
(0.599481 2.0414 0)
(0.620397 1.94305 0)
(0.462371 1.5715 -3.92769e-19)
(0.957969 2.72101 0)
(2.68739 3.57095 0)
(2.38151 3.00863 -1.45468e-18)
(2.54613 3.02697 -8.58813e-20)
(2.42004 3.4044 0)
(2.28594 3.1495 2.22128e-18)
(3.27813 3.08671 -3.89735e-19)
(3.13411 3.3248 0)
(3.11649 3.15116 6.30509e-19)
(2.87059 3.41261 0)
(2.88215 3.20075 0)
(1.20939 2.00645 -9.30508e-19)
(1.41421 2.40347 -6.99584e-19)
(1.75382 2.98194 1.20608e-18)
(1.69602 2.95998 -3.62276e-19)
(1.06253 1.82237 0)
(1.207 2.20866 4.71151e-19)
(0.718499 1.2888 -7.15274e-19)
(0.581685 1.04356 -5.62975e-22)
(1.93766 3.69591 0)
(2.19944 3.74304 -5.42645e-19)
(2.33859 3.98627 0)
(2.28415 0.52902 0)
(1.6174 0.341916 0)
(1.20906 0.276594 0)
(2.2092 0.554272 -1.46531e-18)
(1.63534 0.402206 8.17279e-19)
(2.14565 0.129122 -9.85206e-19)
(2.62664 0.297528 0)
(2.46571 0.301646 4.13505e-19)
(1.76991 0.135719 1.63306e-18)
(1.53029 0.0812683 -1.03708e-18)
(0.745603 1.55598 8.58105e-19)
(0.959871 1.82047 0)
(0.537691 1.44009 1.56098e-18)
(0.5239 1.61487 -1.42533e-18)
(0.757254 1.81453 -9.88413e-19)
(2.0736 2.46274 1.33778e-18)
(2.09697 2.71216 0)
(1.58362 1.67819 -2.76362e-19)
(2.00985 1.98953 1.74516e-18)
(1.35996 1.29266 -4.23602e-19)
(1.58877 1.31351 4.50712e-19)
(2.10973 1.51328 1.02323e-18)
(2.44287 1.67102 0)
(2.27619 1.85617 0)
(2.01006 1.6061 0)
(3.95682 2.07978 3.84538e-19)
(3.75989 1.88973 -1.26361e-18)
(3.81731 2.02803 1.04682e-18)
(3.90112 1.77142 -1.00837e-18)
(4.15787 1.67382 0)
(4.11694 1.84101 -2.97856e-19)
(2.84058 1.16334 -1.89739e-18)
(2.97093 1.16345 -2.41312e-18)
(2.33208 1.04359 1.45649e-18)
(2.13836 0.934462 -1.4199e-18)
(2.46359 0.846189 -1.17817e-18)
(2.17866 0.77697 1.4489e-18)
(4.00845 0.0334748 -1.52895e-18)
(4.05276 0.0406884 3.13033e-18)
(3.76797 -0.0658817 1.90098e-18)
(3.79119 -0.0737725 -2.28686e-18)
(3.95955 0.0105722 0)
(4.05603 0.0228767 -3.72996e-18)
(0.0971127 4.76183 1.06568e-19)
(0.0679489 4.73193 0)
(0.190116 4.73179 9.53474e-19)
(0.211655 4.7493 -8.67436e-19)
(0.231558 4.7183 4.28442e-19)
(0.122554 4.65806 0)
(-0.10129 4.77167 0)
(-0.107131 4.40338 -6.18434e-20)
(-0.106164 4.33214 5.54315e-20)
(-0.114943 4.4818 7.17613e-21)
(-0.105604 4.72212 -1.01141e-19)
(-0.0825524 4.70979 5.50858e-20)
(1.87593 4.00984 -1.64334e-18)
(1.81689 4.01644 1.7403e-18)
(1.68438 4.40633 -8.54311e-19)
(1.69333 4.27757 7.61313e-20)
(2.25285 4.08618 0)
(1.85468 4.21952 -6.35628e-19)
(1.98185 3.9593 6.16467e-19)
(1.82418 4.38056 8.34503e-19)
(2.07692 4.21922 0)
(2.2284 4.10015 0)
(1.13888 3.63154 1.49516e-18)
(0.826979 2.81207 2.02354e-18)
(0.954717 2.99039 -1.38975e-18)
(0.74693 2.97221 -2.31929e-19)
(0.902987 3.73139 4.66362e-19)
(0.722606 3.364 -1.13416e-18)
(0.745839 1.46585 -1.21487e-18)
(0.746286 1.31701 0)
(0.602607 1.11457 -1.33532e-18)
(1.11104 2.06414 0)
(1.08802 2.1511 0)
(1.35864 2.19086 -1.09063e-18)
(1.0645 2.01422 -1.03604e-18)
(1.01686 2.03509 1.09873e-18)
(1.03115 1.51919 0)
(1.4104 1.76179 -6.01245e-19)
(1.62734 2.11902 -8.55469e-19)
(1.41086 2.08261 0)
(0.867835 1.81841 7.12482e-19)
(0.779741 1.67948 0)
(2.90613 2.28887 -1.84715e-18)
(3.31895 2.47054 2.60942e-18)
(3.27766 2.19305 -2.59351e-18)
(2.61039 2.02086 -2.3119e-19)
(2.72498 1.94031 -9.74202e-19)
(1.26192 2.18978 7.96195e-19)
(1.31607 2.24462 -1.35996e-18)
(1.45412 2.32955 1.79285e-18)
(1.79037 2.55955 -1.16527e-18)
(1.88901 2.93235 -1.56727e-18)
(1.5632 2.48867 -1.18806e-19)
(1.63296 2.62824 1.37131e-18)
(1.81007 2.69306 9.66204e-20)
(2.018 2.99878 6.50024e-19)
)
;

boundaryField
{
    wall-4
    {
        type            noSlip;
    }
    velocity-inlet-5
    {
        type            fixedValue;
        value           uniform (3 0 0);
    }
    velocity-inlet-6
    {
        type            fixedValue;
        value           uniform (0 1 0);
    }
    pressure-outlet-7
    {
        type            zeroGradient;
    }
    wall-8
    {
        type            noSlip;
    }
    frontAndBackPlanes
    {
        type            empty;
    }
}


// ************************************************************************* //
