/*--------------------------------*- C++ -*----------------------------------*\
  =========                 |
  \\      /  F ield         | OpenFOAM: The Open Source CFD Toolbox
   \\    /   O peration     | Website:  https://openfoam.org
    \\  /    A nd           | Version:  9
     \\/     M anipulation  |
\*---------------------------------------------------------------------------*/
FoamFile
{
    format      ascii;
    class       volScalarField;
    location    "18";
    object      p;
}
// * * * * * * * * * * * * * * * * * * * * * * * * * * * * * * * * * * * * * //

dimensions      [0 2 -2 0 0 0 0];

internalField   nonuniform List<scalar> 
918
(
23.4637
23.5864
0.967442
22.881
1.00603
23.1028
3.28967
13.7873
19.2369
2.93725
2.62836
14.4029
20.6458
16.8872
13.0046
0.923565
14.0492
2.26141
18.4545
1.40221
13.0007
20.4424
21.5311
19.2786
14.1163
14.3818
18.6081
1.1609
0.110914
0.263587
0.974648
0.408596
0.149659
21.6397
22.3164
22.2547
15.4896
10.4145
3.6112
3.81454
3.00001
2.82453
13.8293
13.9287
5.87255
13.767
13.7634
16.6384
19.1049
19.2485
19.5417
19.3308
19.7171
5.97559
2.79127
2.61189
2.87898
2.95141
2.97579
2.70136
2.68189
2.48745
2.34156
13.8826
14.476
14.5311
14.2624
14.2101
22.4624
21.7055
22.0402
21.1466
21.292
20.2219
19.8363
17.2629
17.6153
16.4891
16.1083
12.795
12.7562
13.2245
13.4739
0.1473
1.07186
1.21996
14.0559
14.0921
14.0932
14.1079
8.30055
2.20429
2.2077
17.8949
17.4713
20.4763
20.7435
20.1905
20.0049
1.53635
1.53195
1.15985
1.18741
0.955845
13.3406
13.4941
19.23
18.397
14.1495
14.0497
14.1245
11.4954
13.9052
13.9787
15.332
15.7874
14.9766
15.4131
18.1781
17.7601
19.0447
19.4819
0.398013
0.156865
0.686844
0.318317
0.516092
15.3579
15.1525
15.6053
15.6563
15.8875
10.4185
10.3476
10.3942
10.3144
4.15984
4.47385
2.27266
2.58933
2.43961
9.88448
13.9444
13.9905
4.81931
5.52169
5.18663
6.35281
6.72646
16.0041
16.4407
16.1795
17.7258
16.9307
17.2788
19.8079
19.2971
19.5976
6.3725
6.60996
5.60942
5.25059
2.2518
2.4964
2.43955
2.98304
2.96082
3.21016
3.34117
2.69193
2.54915
2.89476
2.77912
2.83023
2.17186
2.04166
13.6067
13.3927
14.1455
14.3241
15.091
14.9427
14.6493
14.818
19.0314
19.4349
19.4684
19.0842
11.5551
10.1614
13.7283
14.0036
0.30268
0.266736
0.137536
0.379884
0.400113
0.141712
2.01068
1.82207
1.40184
1.67721
14.053
14.0125
8.54189
8.76238
8.1365
7.87885
16.309
16.4592
17.0934
16.6931
1.96856
1.68245
1.81192
13.6551
13.5288
13.6351
10.9307
10.3648
11.9729
12.2425
13.9876
14.0309
14.0271
15.6916
16.0101
19.8328
20.1034
19.9303
20.3161
21.3789
21.0302
20.6454
14.5338
14.9422
14.7806
16.1226
15.7563
15.9757
15.1836
15.4883
15.3462
10.3786
10.4242
10.1357
10.2131
10.2598
10.2075
9.82218
9.69531
14.0757
14.0317
14.0552
7.25314
7.75063
4.869
4.53957
12.5387
13.2118
12.8875
18.6611
17.9835
18.7165
18.3456
17.8956
18.2191
10.4346
10.395
10.4287
14.9276
14.2656
14.6174
2.43305
2.06991
2.23297
8.95905
9.05187
6.98031
7.60073
7.26233
16.3117
16.652
17.3322
16.4439
16.9116
17.4189
17.197
9.95753
10.0893
10.0065
9.67992
9.57336
9.73215
8.3346
8.94722
3.60767
4.26608
3.96123
9.22011
9.45026
9.29722
18.6246
19.1595
0.772007
1.16538
19.5895
19.3132
0.141305
0.240779
14.264
12.5609
7.26435
17.1918
16.6245
18.9643
3.19222
6.10506
2.80823
3.37879
2.68525
14.6099
14.2444
13.3357
0.457367
1.25624
1.71083
2.90827
18.4051
17.7299
18.846
19.1661
19.2205
0.690169
0.919265
0.585457
1.24788
1.03541
1.27881
15.5456
15.6435
4.33579
18.853
19.1573
19.175
17.6517
18.6044
17.6619
0.935191
0.641325
0.708616
10.0773
12.1174
14.2241
13.7766
13.9737
13.996
13.747
14.8801
14.5497
14.5145
14.9992
13.9664
13.8237
7.73304
6.38553
8.06851
7.7085
17.0931
16.681
16.488
16.2337
18.0794
17.6055
18.4559
17.8443
18.3061
18.5929
2.94158
3.132
3.01411
2.52558
6.14452
6.61426
5.48869
5.63605
4.25814
2.43097
2.52863
2.75249
2.58534
2.93008
2.67855
2.94134
2.57597
2.32281
2.31865
2.92801
2.73699
2.60154
14.5882
14.5267
14.3276
14.3657
14.3486
14.4642
13.5301
13.9347
13.5624
12.3943
12.9748
12.502
0.825384
0.657099
0.526257
1.32457
1.3513
1.11337
0.839259
1.17937
1.20359
0.821262
1.54471
1.45019
3.16334
2.65631
8.85887
7.98541
6.8987
16.7951
17.5969
16.7666
18.0073
18.4242
18.5296
18.15
17.6418
15.7242
15.7193
15.3795
15.3328
4.77437
3.74329
4.97247
4.54239
10.4883
14.0613
11.8383
10.8001
11.0957
13.4184
13.9398
13.5911
13.7292
13.3029
12.8315
13.5244
13.0576
13.1586
12.937
15.7283
16.2034
15.8099
15.2304
15.2504
10.6064
12.0156
5.46999
5.64221
7.24083
6.53707
13.5167
13.9322
13.9163
13.5587
13.7478
13.7452
13.6062
13.7796
13.8616
13.7554
11.8193
10.1402
9.04266
9.03643
14.0741
12.3425
12.9276
12.4076
16.1149
16.6314
16.2461
15.6407
16.1257
15.5975
15.6247
15.8377
17.196
16.9456
16.7154
17.1022
3.0547
3.00271
3.6439
3.13744
3.03862
2.82635
3.48376
4.75488
4.41321
6.72008
7.26704
4.57608
3.37391
3.79005
4.8014
5.53823
5.51335
3.96886
4.50077
4.92628
4.43938
5.22651
4.72992
2.71941
3.02204
2.8613
2.83642
3.38072
3.87785
3.3736
2.47995
2.59156
2.25983
2.12307
3.53194
2.99254
3.02874
3.67571
1.10307
1.32701
1.44132
2.4136
1.91052
1.97567
15.1769
14.821
14.9546
14.2338
14.3014
14.2426
13.8668
15.2346
14.9567
15.0561
13.7047
13.7914
13.6048
13.9
14.3155
14.6148
15.4468
15.1679
14.407
14.5581
14.2091
14.1373
13.4596
12.8964
12.836
1.11154
0.819733
0.984108
0.915615
0.610911
0.804081
2.18135
1.57071
1.96878
1.72546
1.95797
1.40889
1.30194
4.25085
5.05301
3.96826
3.37066
3.07802
8.91559
9.02818
8.17402
7.86696
8.20971
8.44313
8.39313
7.14366
7.5755
7.38678
9.93291
9.59911
17.5812
17.5254
17.1966
17.0377
17.2641
5.75787
7.65958
6.79664
7.91567
10.2164
10.5149
9.31425
8.71146
9.46725
9.54172
14.0431
14.1194
13.5596
14.0455
14.0738
11.8296
12.8773
13.4916
13.3057
13.8264
13.9076
12.9694
13.5576
13.4716
12.7536
12.8073
12.1229
12.461
11.9888
11.7883
14.0504
13.9452
14.215
13.7657
14.145
13.7097
14.0246
14.023
14.3036
13.4052
12.8268
12.8457
13.2716
12.9712
13.3174
13.481
9.30687
9.95117
10.3949
10.9311
10.6404
10.4201
10.2874
10.589
10.5673
10.8367
10.7564
10.606
11.5601
13.4252
13.7093
13.8125
13.604
13.6501
13.343
13.6175
13.5456
13.9171
14.0061
14.0553
13.1366
13.2948
13.4919
13.3744
11.6722
10.0874
9.94295
9.50334
7.57229
8.04385
11.0184
9.89796
8.91441
8.98532
12.1637
10.8011
11.6139
12.0366
10.6884
10.3011
12.9667
13.7559
13.9755
13.6984
12.0546
12.1806
12.6306
13.0752
13.2653
13.7228
15.8549
16.4305
16.5084
16.2325
16.0945
16.1942
15.9443
16.0474
16.5215
16.648
16.4793
2.8805
2.99287
2.9235
2.84934
3.08386
2.85981
3.9499
3.93971
3.15423
3.33453
3.35406
3.46195
2.92931
2.9724
4.82165
5.05688
5.32981
4.82986
6.17123
6.82257
7.4055
7.08602
5.78564
5.86748
6.18507
3.50366
3.53126
3.24971
3.70442
3.75862
2.61187
2.24065
2.04421
2.56225
2.66476
2.05157
1.77236
1.82185
2.33235
2.05568
1.80947
14.9696
14.728
14.7494
14.5292
14.5838
14.9785
15.1993
15.0094
15.1477
15.1987
14.7979
14.6867
14.8578
1.81965
1.48877
1.62495
1.583
1.63896
1.54892
1.73595
7.60954
6.41117
6.79712
5.97707
4.12066
4.63987
9.55311
9.97645
10.0147
9.7281
9.51624
9.88149
9.73341
9.72693
8.2678
9.3442
8.87491
9.27944
9.30004
9.36898
9.07858
9.07738
10.5832
10.6155
9.48039
10.1227
9.32727
7.92808
8.09528
9.10863
10.0824
10.4154
10.2581
9.98408
9.75615
10.1255
10.1799
10.2415
10.2315
8.75277
8.70862
8.30684
13.9649
13.8718
14.0185
14.0233
14.1509
13.9736
13.8107
14.0882
14.1426
13.9266
11.0845
11.1445
11.3898
12.1391
12.191
12.0945
11.3394
13.1065
12.7598
13.4007
13.3458
13.4152
13.0034
12.828
13.1002
10.0754
11.4475
10.9793
11.2442
10.0585
9.30333
13.2201
13.2736
13.3406
13.6143
13.5707
14.1553
15.8248
15.6947
15.742
15.7851
15.3967
15.4339
4.17229
3.82598
4.54342
4.50166
4.06093
3.76244
2.28839
1.97088
1.78493
1.65818
1.88931
1.94848
8.15959
8.19107
6.32889
7.35531
5.87606
4.93753
4.79341
5.9515
7.134
7.19592
8.5201
9.20387
8.76073
8.58723
7.92605
8.25867
10.1317
10.2245
10.1257
10.4443
9.97696
11.7199
11.3026
11.6516
13.2671
12.9742
12.3759
12.2631
12.2287
12.823
11.943
11.1725
11.8866
12.5457
12.5033
11.1251
10.8803
11.3063
11.2882
10.2019
10.7244
10.4865
10.8375
10.5503
)
;

boundaryField
{
    wall-4
    {
        type            zeroGradient;
    }
    velocity-inlet-5
    {
        type            zeroGradient;
    }
    velocity-inlet-6
    {
        type            zeroGradient;
    }
    pressure-outlet-7
    {
        type            fixedValue;
        value           uniform 0;
    }
    wall-8
    {
        type            zeroGradient;
    }
    frontAndBackPlanes
    {
        type            empty;
    }
}


// ************************************************************************* //
