/*--------------------------------*- C++ -*----------------------------------*\
  =========                 |
  \\      /  F ield         | OpenFOAM: The Open Source CFD Toolbox
   \\    /   O peration     | Website:  https://openfoam.org
    \\  /    A nd           | Version:  9
     \\/     M anipulation  |
\*---------------------------------------------------------------------------*/
FoamFile
{
    format      ascii;
    class       volVectorField;
    location    "10.5";
    object      U;
}
// * * * * * * * * * * * * * * * * * * * * * * * * * * * * * * * * * * * * * //

dimensions      [0 1 -1 0 0 0 0];

internalField   nonuniform List<vector> 
918
(
(2.47628 -0.138941 0)
(0.108704 0.722546 0)
(0.177483 1.13819 0)
(2.31834 0.153729 0)
(-0.0555739 1.23962 -1.21067e-19)
(-0.0924034 0.643931 -5.34398e-18)
(0.522195 0.841235 -3.0825e-19)
(0.286802 0.159762 -3.00959e-20)
(3.00616 -0.0195762 0)
(-0.0103533 0.492731 0)
(-0.01947 0.620745 0)
(0.608404 0.00624753 0)
(0.0107054 0.439105 0)
(-0.00289943 0.42172 0)
(0.0149055 0.346488 -1.31872e-18)
(-0.00433038 0.743809 -9.23919e-20)
(0.323833 0.0764623 2.16145e-18)
(0.0783212 0.653297 -2.31061e-19)
(1.52893 0.128596 0)
(-0.0291493 0.730787 0)
(0.203343 0.164107 -1.27789e-18)
(3.08302 -0.397395 0)
(2.92444 -0.506006 0)
(1.86113 -0.181117 0)
(0.518095 0.0397883 0)
(-0.0252251 0.521489 0)
(-0.00135367 0.494037 1.87487e-18)
(-0.0217373 1.49641 0)
(0.0861366 3.02214 0)
(0.175855 1.85204 0)
(-0.0314587 3.06851 0)
(0.0291865 1.59459 9.30826e-20)
(0.0231604 0.667759 0)
(-0.147425 0.775094 -2.04297e-22)
(-0.193914 1.0291 4.44632e-18)
(-0.0415772 1.04471 0)
(0.743755 -0.00610474 0)
(0.16718 0.2554 6.70171e-19)
(0.977259 1.49369 6.76298e-19)
(0.638611 0.773205 -5.3543e-19)
(0.788524 1.56215 6.49018e-20)
(0.412414 0.848316 -3.34931e-19)
(0.577869 0.320501 2.95989e-20)
(0.310218 0.160001 0)
(0.942458 0.555029 0)
(0.557963 0.318399 1.33027e-19)
(0.270433 0.170295 -1.36505e-19)
(0.871331 -0.055526 0)
(3.02784 -0.00173689 0)
(3.00685 0.0178494 0)
(3.20085 -0.417768 0)
(3.04288 -0.0742468 0)
(3.03116 -0.0388637 0)
(0.0165676 0.902226 -1.14346e-18)
(-0.0532414 1.00212 0)
(0.0028592 0.47003 0)
(-0.031903 1.01618 0)
(-0.0133662 0.50244 0)
(-0.0028078 0.85236 0)
(-0.0531582 1.16643 0)
(-0.0127249 0.570196 0)
(-0.029682 1.22883 0)
(-0.00837722 0.658945 0)
(0.787366 0.011212 0)
(1.17511 -0.00213216 0)
(0.620681 0.0121352 0)
(1.1333 0.0172286 0)
(0.57372 0.00821085 0)
(0.225406 0.921982 1.97139e-18)
(0.0985379 1.2081 0)
(0.176302 1.06604 0)
(0.0331901 0.755774 2.21282e-23)
(0.0372233 0.498055 -2.94838e-18)
(0.0194616 0.747943 0)
(0.00595417 0.422033 0)
(-0.000712412 0.734568 4.55117e-24)
(0.000698154 0.414832 0)
(-0.0169855 0.743256 0)
(-0.0129932 0.428076 0)
(0.0530106 0.663766 0)
(0.0513236 0.470022 0)
(0.0102912 0.629572 1.24683e-18)
(0.00193424 0.347224 0)
(-0.0538463 4.61109 0)
(0.00896083 1.41055 9.17261e-20)
(-0.00955524 0.760136 -1.17778e-19)
(0.658235 0.156247 -7.54014e-19)
(0.331709 0.0667901 -7.31242e-19)
(0.669537 0.175635 -2.26466e-18)
(0.330356 0.0990649 -1.45884e-18)
(0.079192 0.629244 0)
(0.17875 1.32622 1.93183e-19)
(0.179168 0.736874 -3.08284e-19)
(2.06051 0.260856 0)
(1.1072 0.118404 0)
(3.03313 0.103872 0)
(3.10394 0.446043 0)
(2.83924 0.377412 -1.01226e-17)
(2.57812 0.361298 7.76729e-18)
(-0.0696464 1.34644 0)
(-0.0101059 0.67012 0)
(-0.0139341 2.0302 0)
(-0.0555273 1.44103 0)
(-0.05058 0.726043 0)
(0.458002 0.310232 4.04465e-19)
(0.234818 0.170996 0)
(2.296 -0.266453 0)
(1.32363 -0.119309 0)
(1.08596 0.0116844 0)
(1.02451 0.0178608 0)
(0.546122 0.00998685 0)
(1.00972 0.0553604 0)
(0.8336 0.070819 0)
(0.348768 0.0287454 3.36785e-18)
(-0.00549162 0.45136 1.78873e-18)
(-0.027218 0.784889 0)
(-0.0479746 0.848355 0)
(-0.0154004 0.460852 0)
(0.000129999 0.839723 1.82869e-18)
(6.9958e-05 0.487526 0)
(-0.0054793 0.845554 -5.62826e-18)
(-0.00488642 0.496761 1.89894e-18)
(0.0625794 3.70647 0)
(0.0548679 4.12508 0)
(-0.0145085 1.36588 -2.07955e-21)
(-0.0125739 1.32305 0)
(-0.0087421 0.719344 0)
(1.40836 0.034607 0)
(0.759342 0.0152272 0)
(0.710352 0.0141761 0)
(1.41487 -0.0330165 0)
(0.772901 -0.00885817 0)
(0.334536 0.498151 -8.41456e-19)
(0.162473 0.241052 0)
(0.337711 0.528781 9.43247e-20)
(0.169634 0.278716 0)
(1.21844 1.36321 1.72531e-19)
(0.763239 0.727845 -4.04931e-19)
(0.409826 1.42666 0)
(0.602638 1.52946 0)
(0.301635 0.816474 0)
(0.150505 0.366375 -4.46003e-19)
(0.633737 0.292505 0)
(0.326324 0.139971 4.01183e-19)
(1.39882 1.2816 0)
(1.55436 1.14457 0)
(0.856744 0.65089 4.73813e-19)
(1.6989 0.933988 0)
(1.04691 0.430128 2.26319e-20)
(1.47205 0.00795052 0)
(1.50041 -0.0293564 0)
(0.801482 -0.00449664 0)
(1.9502 -0.199852 0)
(1.65044 -0.148267 0)
(1.05199 -0.0890143 0)
(3.06126 0.164824 0)
(3.03105 0.0687522 0)
(3.01022 0.0531369 0)
(0.0312726 1.60724 6.06686e-19)
(0.0157365 0.832786 0)
(0.0150584 1.68922 1.07752e-18)
(0.00145312 0.933014 -9.69436e-19)
(0.0630615 1.17293 1.94653e-19)
(0.0467912 1.01494 0)
(0.03853 0.543363 0)
(-0.0311161 1.04788 0)
(-0.0084282 0.541263 0)
(0.0154874 1.58558 -4.44447e-21)
(-0.0185596 0.852575 0)
(-0.0532422 1.54866 -2.26602e-19)
(-0.0160254 0.802504 4.38581e-19)
(-0.00394457 1.07776 0)
(0.00968296 1.09593 0)
(-0.00100493 0.558636 0)
(0.00634874 1.24669 0)
(-0.000647379 0.65579 0)
(1.46173 -0.00464886 0)
(0.785279 0.00756237 0)
(1.43572 0.0325829 0)
(0.759578 -0.000776448 0)
(0.676903 0.00513328 0)
(1.26534 0.0163137 0)
(1.20673 0.0470712 0)
(0.661676 0.0153107 0)
(-0.00580128 1.42077 -1.71359e-20)
(0.000184077 1.37708 0)
(0.00481998 0.732923 0)
(0.00172873 0.417221 0)
(0.295925 0.854095 0)
(0.263212 0.413605 -2.88546e-19)
(-0.000517867 0.637902 0)
(-0.00835571 0.367965 0)
(0.0182832 4.39309 0)
(-0.0355313 4.61395 0)
(-0.0076921 4.56512 0)
(-0.0635603 3.26481 2.07002e-20)
(-0.0487751 4.49819 0)
(-0.0409174 4.06627 0)
(0.00387206 0.795105 1.09927e-20)
(0.0128633 1.51293 1.65415e-19)
(-0.0341145 1.45363 1.21016e-19)
(-0.00771708 0.79987 0)
(0.683623 0.107904 1.15683e-18)
(0.33396 0.0444026 -1.13378e-18)
(0.151071 1.15428 0)
(0.102353 0.585059 -2.70393e-19)
(0.119236 1.25271 -8.76679e-19)
(0.0517704 0.697749 8.72197e-19)
(0.809639 0.023964 0)
(1.55739 0.0475165 0)
(1.71007 0.127566 0)
(0.920111 0.0444632 0)
(0.00634308 1.26315 0)
(0.0246239 1.27424 0)
(0.00361724 0.672718 0)
(0.506155 0.330852 1.2131e-18)
(0.457584 0.325282 -1.39794e-18)
(0.246074 0.172322 0)
(1.9138 0.149213 1.15407e-19)
(1.12232 0.0911418 0)
(1.7083 0.116699 0)
(0.876361 0.0219185 0)
(0.693876 0.0859766 0)
(0.712302 0.0463934 -5.41607e-18)
(0.352874 0.0324834 2.00283e-18)
(0.00900121 0.807046 1.70745e-18)
(0.00217782 0.462421 4.08068e-20)
(-0.0108778 1.40842 -3.60321e-20)
(0.00613612 1.38675 1.3745e-18)
(-0.0149832 0.848955 6.3351e-20)
(-0.0119261 0.524486 -2.54509e-22)
(-0.107514 1.00068 -1.17194e-18)
(-0.0529602 1.3532 8.39049e-19)
(-0.0175323 1.35275 -1.36634e-18)
(1.4191 -0.017429 0)
(1.43967 0.0198822 0)
(0.768142 -0.000447099 0)
(1.45314 0.0252266 0)
(1.36453 0.0461061 0)
(0.762148 0.0202045 0)
(1.30318 -0.00240833 0)
(1.32051 -0.00612659 0)
(0.696223 -0.0011845 0)
(0.315917 0.491024 -9.20433e-19)
(0.167221 0.251548 0)
(0.162588 0.31939 1.37972e-19)
(0.320232 0.607586 1.13031e-18)
(0.319038 0.569788 -6.69203e-19)
(0.162479 0.292673 1.30773e-18)
(0.287272 0.742946 2.19673e-18)
(0.152786 0.393853 3.96256e-19)
(0.66189 0.221921 1.54542e-18)
(0.651704 0.264407 4.01339e-19)
(0.329506 0.11968 7.53429e-19)
(1.88468 0.69983 -6.07889e-19)
(1.14606 0.328819 -7.09074e-19)
(-0.0365571 1.68982 4.63701e-19)
(-0.0126176 0.916696 0)
(1.59164 0.0221939 0)
(1.51311 0.0641531 0)
(0.847451 0.0260204 0)
(-0.0035603 1.38473 0)
(0.0050701 0.729578 2.5128e-18)
(0.00464949 0.731252 0)
(0.00206975 0.415098 -2.45947e-18)
(-0.0102825 1.38627 5.99993e-19)
(-0.00947672 1.4225 0)
(0.348897 0.506133 2.59371e-19)
(0.373135 0.5665 -8.67588e-19)
(0.178108 0.267286 7.85151e-19)
(-0.0257284 0.767033 -1.67686e-18)
(-0.0257599 0.689794 0)
(-0.0153383 0.412656 0)
(0.0283228 1.50906 -1.27332e-20)
(0.0295439 1.53433 -3.65574e-19)
(0.0162153 0.801389 -1.55707e-20)
(0.216626 1.06612 8.94104e-19)
(0.121475 0.520887 -5.94973e-19)
(0.00943888 1.49525 7.30983e-19)
(0.0538151 1.3672 -8.16425e-19)
(0.0252809 0.768846 3.58663e-20)
(0.00741797 1.36613 -3.83728e-18)
(-0.000299332 1.39327 4.44379e-18)
(0.00376045 0.829763 1.74594e-18)
(-0.0138798 0.805035 -1.73908e-18)
(-0.00432152 0.481377 -1.75162e-18)
(-0.0106714 1.41685 -4.53317e-18)
(-0.0152483 1.40031 4.62311e-18)
(0.29696 0.699107 0)
(0.310607 0.657232 -2.30497e-18)
(0.157494 0.343607 9.97872e-19)
(0.289828 0.821629 1.19272e-18)
(0.142828 0.441263 -1.84032e-18)
(2.0285 0.315171 4.17317e-19)
(2.01733 0.53568 0)
(1.19983 0.216452 -4.04144e-19)
(-0.0729883 1.61061 -4.82189e-21)
(-0.0166625 1.67087 0)
(-0.0169095 0.909533 0)
(0.230526 0.968134 -3.24363e-19)
(0.254098 0.892287 -7.10689e-19)
(0.131414 0.476762 1.3323e-18)
(3.16436 -0.442952 0)
(3.34725 -0.414772 1.81194e-18)
(0.0679547 3.61041 0)
(0.0488377 2.96874 0)
(3.15927 0.249829 1.41791e-20)
(3.12358 0.50621 3.71021e-18)
(0.029723 3.328 -2.77854e-20)
(0.0126507 2.57841 0)
(-0.0401224 1.19683 1.56926e-18)
(0.201974 1.3413 0)
(3.41282 1.59397 -3.28376e-19)
(3.17462 0.272335 -2.96159e-20)
(3.14777 -0.119052 0)
(3.10046 -0.00051064 3.63006e-22)
(0.0370084 2.62874 0)
(0.143242 3.30099 0)
(-0.0663849 2.62673 0)
(-0.0334238 3.4294 3.17801e-19)
(-0.0341629 3.48799 2.00363e-19)
(2.64338 0.0463927 -1.35529e-20)
(3.04072 0.02887 0)
(3.14496 0.0828375 0)
(-0.0454738 4.57356 0)
(-0.0447023 2.98166 0)
(-0.076632 3.07446 0)
(0.638921 3.09817 2.71971e-19)
(3.33877 -0.422606 0)
(3.01119 -0.34592 0)
(3.1699 -0.05317 2.27607e-18)
(3.29269 -0.328803 -2.7407e-18)
(3.10381 -0.125849 0)
(-0.054445 4.51385 0)
(0.01595 4.03582 0)
(0.0114355 4.31898 0)
(-0.032156 3.24 0)
(-0.0144879 3.00264 0)
(-0.0381402 2.59468 0)
(2.97198 -0.00398731 0)
(2.85285 0.0478528 -1.80332e-20)
(2.19935 2.99799 -3.33166e-19)
(3.15694 0.0443275 -2.27712e-18)
(3.19038 0.278078 2.76795e-18)
(3.0828 0.117261 0)
(3.39558 0.328623 2.08604e-18)
(3.35706 0.484242 -2.70512e-18)
(3.07129 0.418332 0)
(-0.0492312 3.23897 0)
(0.0120004 3.16971 8.55209e-20)
(-0.0268381 2.48728 -6.05853e-20)
(3.67141 0.541788 2.27284e-18)
(3.4487 0.200805 0)
(-0.148164 1.27174 -2.18575e-18)
(-0.0576838 0.881377 -1.36326e-19)
(-0.0769557 1.34068 3.01329e-18)
(-0.0305201 1.27334 -9.07735e-19)
(0.00380755 1.09285 0)
(-0.0266745 1.2392 7.01021e-19)
(-0.113429 1.38786 2.16612e-18)
(-0.0576942 1.34071 -1.32576e-18)
(-0.0771507 1.3205 0)
(1.34461 0.61914 0)
(1.23331 0.711888 0)
(3.49955 1.99365 9.64994e-19)
(2.98933 1.89979 -1.20618e-18)
(3.78777 1.67504 0)
(3.32762 1.13491 0)
(3.34971 0.280122 -3.91441e-18)
(2.89948 0.172845 4.83672e-18)
(3.35082 -0.155973 0)
(2.8537 -0.0764804 0)
(3.43643 0.0426074 0)
(3.59384 0.144615 0)
(3.28683 0.119655 0)
(3.55043 0.298213 0)
(3.40847 0.29284 0)
(3.32758 0.217836 0)
(0.0836786 2.84214 0)
(0.0270404 2.13756 0)
(0.113014 3.08742 0)
(0.090571 2.24134 0)
(0.196235 3.59588 0)
(0.133081 2.68936 -5.59263e-19)
(0.0386595 3.60338 0)
(0.00314217 3.00986 4.05498e-19)
(-0.0325576 3.17208 -5.18399e-19)
(-0.0701728 2.9086 0)
(-0.0332155 2.31509 0)
(-0.0865373 3.0016 0)
(-0.0583631 2.13295 0)
(-0.134063 4.69638 -2.47948e-19)
(-0.0920443 3.85953 2.80211e-19)
(-0.0847101 3.73548 3.12126e-19)
(-0.0558572 2.95017 0)
(-0.114952 3.7171 -4.61405e-19)
(-0.0433895 3.12156 -2.96181e-19)
(-0.108766 4.72452 1.94067e-19)
(-0.115548 4.38479 -3.54165e-19)
(-0.0888047 4.26638 -3.82728e-19)
(3.0406 0.0848456 3.35554e-18)
(2.2967 0.0312333 -4.22609e-18)
(2.90293 0.128897 -3.3247e-18)
(2.22331 0.0714933 4.15306e-18)
(3.36341 0.0247748 0)
(2.63792 -0.00348689 0)
(3.44424 0.0861901 0)
(3.31305 0.0162396 0)
(2.69708 0.00757136 0)
(3.6636 0.230452 0)
(3.42575 0.0903985 0)
(2.84546 0.0535475 0)
(-0.0141443 4.21002 -1.20356e-20)
(-0.0492051 4.58295 0)
(-0.0524126 4.44291 0)
(-0.0737955 3.3937 8.83167e-20)
(-0.0377955 2.68367 -3.47844e-21)
(-0.0845368 4.62772 1.1623e-19)
(-0.0951068 4.46678 -1.17448e-19)
(-0.0838842 4.0335 0)
(-0.0595637 3.96995 0)
(-0.0299159 4.07841 0)
(-0.0769942 3.39462 0)
(-0.0453339 2.44001 0)
(0.923855 3.64566 -6.21165e-19)
(0.906192 2.8379 -1.81631e-19)
(0.435426 2.09535 -2.29228e-19)
(0.251814 2.33374 6.98935e-19)
(0.99434 4.2082 2.64444e-19)
(3.43271 -0.16787 0)
(3.32193 -0.256806 0)
(2.88283 -0.189663 0)
(3.47031 -0.0647437 0)
(3.34581 -0.148079 0)
(3.44891 -0.261252 0)
(3.51945 -0.283841 0)
(3.57939 -0.281475 0)
(3.22624 0.0923149 3.61615e-18)
(2.55706 0.0640579 -4.57263e-18)
(3.09932 0.10534 -3.55956e-18)
(2.51283 0.0559063 4.429e-18)
(2.19248 3.36694 0)
(1.70314 2.90593 -4.57082e-19)
(2.51865 3.29915 -4.12712e-19)
(2.31668 2.48306 5.48407e-19)
(0.804457 1.25919 2.74098e-18)
(1.47969 0.216001 1.34561e-18)
(3.69998 0.294722 0)
(3.86458 0.558643 -1.85205e-18)
(3.27031 0.237722 -8.24698e-20)
(3.73761 0.425041 0)
(0.266286 1.32662 1.81332e-18)
(-0.0011086 1.20859 -2.90376e-18)
(0.076038 0.774694 1.63124e-18)
(0.298049 0.477378 -7.5523e-19)
(0.201534 1.4065 8.79039e-19)
(0.0599443 1.24756 0)
(0.0641194 1.09998 -1.14273e-18)
(0.213662 1.45983 -4.13141e-18)
(0.355742 1.58231 0)
(0.00845714 1.29005 1.20565e-19)
(-0.00991697 1.45728 -1.35099e-18)
(-0.0412691 1.30294 1.96405e-18)
(-0.0578183 1.41763 0)
(-0.0207526 1.38206 0)
(0.70641 1.08852 0)
(2.49796 2.48947 -1.07052e-18)
(2.58747 2.13123 4.01763e-19)
(2.73576 2.83346 0)
(3.15792 3.01876 -3.97329e-19)
(3.10799 2.36875 2.79603e-20)
(0.845827 0.621891 -1.83807e-18)
(1.61811 0.713139 -1.66401e-20)
(1.28187 0.468323 8.76593e-19)
(1.33658 0.879739 5.99539e-20)
(0.987481 0.664872 -2.38801e-18)
(1.52652 0.742008 0)
(2.06462 1.13183 1.46445e-18)
(2.10412 1.04483 0)
(1.47558 0.822526 0)
(1.1117 0.574126 0)
(3.38093 2.16679 1.00873e-18)
(3.91175 0.743939 -1.86843e-18)
(3.80383 1.19307 0)
(3.48659 0.742391 0)
(1.43875 0.373815 1.3385e-18)
(3.28584 1.84437 -8.54358e-19)
(2.88823 1.66923 1.55075e-18)
(3.76357 1.36239 -1.83773e-18)
(3.09924 0.113912 2.4621e-18)
(3.16928 0.180312 -2.5772e-18)
(2.66302 0.0913373 0)
(3.30547 -0.0405766 0)
(3.20023 -0.0848853 -2.36529e-18)
(2.63065 -0.0324418 2.34446e-18)
(3.95694 0.0909985 0)
(3.76128 0.143992 0)
(3.69377 0.154793 0)
(3.58859 0.204183 0)
(3.83268 0.0581148 0)
(3.72609 0.0515625 0)
(-0.0477387 2.57619 0)
(-0.0435723 2.078 0)
(0.328255 3.99322 -4.17433e-19)
(0.643688 3.3381 -1.63652e-19)
(0.249562 3.05333 -3.6607e-19)
(0.33535 2.56663 5.86404e-19)
(0.431257 4.00818 0)
(0.431543 4.64267 -5.13936e-19)
(0.346022 4.69966 0)
(0.878999 4.37257 -3.80406e-19)
(0.652731 3.83572 9.70771e-19)
(0.558094 4.62514 4.50588e-19)
(0.707383 4.17596 -1.91638e-19)
(0.567381 4.30714 1.54167e-19)
(0.874875 4.61844 -6.69229e-19)
(0.711325 4.63279 0)
(0.818578 4.5626 5.08616e-19)
(-0.0191183 4.52673 -1.8244e-19)
(-0.0309019 3.61456 0)
(0.0766268 4.25676 5.50929e-19)
(-0.0249939 4.35048 0)
(-0.014836 3.44282 -4.50927e-19)
(-0.0214672 2.89481 0)
(-0.127388 4.32907 -2.94006e-19)
(-0.13352 4.65165 0)
(-0.076508 3.85058 0)
(-0.0663939 3.79973 3.30674e-19)
(-0.0608444 3.82767 1.05546e-20)
(-0.0456101 3.66587 6.27866e-19)
(-0.0447584 2.90831 4.08623e-21)
(-0.139056 4.66043 1.82621e-19)
(-0.130778 4.70003 1.04496e-19)
(-0.0272537 2.74702 0)
(-0.00580217 2.25501 0)
(-0.0707072 4.74637 4.92188e-19)
(-0.0797199 4.32242 4.32979e-19)
(-0.11114 4.57256 -5.64666e-19)
(-0.0137589 4.72561 0)
(-0.0846881 4.43804 -3.14426e-19)
(-0.120377 4.05281 1.29897e-19)
(-0.0925125 4.15317 -4.1731e-20)
(-0.0954977 4.67528 -2.21814e-19)
(-0.100094 4.18351 -6.92106e-20)
(-0.0983152 4.13631 3.08527e-19)
(2.87613 0.0596048 -2.36166e-18)
(2.8656 0.0476483 2.27108e-18)
(2.34369 0.0336465 0)
(3.52399 0.183551 3.04397e-18)
(2.72106 0.122253 -3.30281e-18)
(2.27193 0.0613469 3.60824e-18)
(3.69822 0.322879 -4.01413e-19)
(3.2074 -0.0497126 0)
(3.16851 -0.0152992 2.23611e-18)
(2.68748 -0.0131294 -2.21847e-18)
(3.87004 0.115315 -1.25201e-19)
(3.76569 0.0967684 1.07795e-18)
(4.15384 0.164302 0)
(4.22466 0.1719 -3.74934e-19)
(4.01767 0.138554 0)
(3.70218 0.150038 0)
(4.03295 0.0922677 0)
(3.71394 0.0849513 0)
(4.1841 0.107595 7.84565e-19)
(4.13767 0.0738735 -1.74682e-18)
(4.13711 0.107716 -8.47695e-19)
(4.18381 0.110138 -9.23451e-19)
(4.20916 0.218987 1.7735e-18)
(3.84487 0.18154 0)
(4.04772 0.289259 0)
(-0.0789095 4.48207 -1.3696e-19)
(-0.0290506 4.56257 -1.17632e-20)
(-0.0681347 4.59237 0)
(-0.0554164 4.08334 1.39424e-19)
(-0.0485543 4.11077 2.25811e-20)
(-0.0538109 3.96889 -2.19239e-20)
(-0.0854754 3.42932 2.61977e-19)
(-0.149344 3.90339 -1.45505e-20)
(-0.114264 4.03986 7.51625e-20)
(-0.0767187 3.3002 -1.32255e-19)
(-0.027335 2.8314 1.58435e-19)
(-0.0843862 4.45994 5.24297e-21)
(-0.0991078 4.61502 1.73416e-19)
(1.20145 4.32093 3.53752e-19)
(1.11564 4.49194 7.30164e-19)
(1.69731 3.42251 4.41936e-19)
(1.27889 3.5285 1.74601e-19)
(1.26295 2.85966 0)
(0.55348 2.36678 2.76164e-19)
(0.469389 1.78215 3.32294e-19)
(0.343263 2.6056 1.53001e-20)
(0.48665 3.21658 -1.16331e-18)
(0.62749 3.17818 8.79217e-19)
(0.434443 2.44761 0)
(0.295567 2.0074 -5.59184e-19)
(0.247767 3.0957 1.3965e-18)
(0.266197 2.74906 -3.22254e-20)
(0.153388 2.30203 -1.75084e-18)
(0.611563 1.45986 1.47415e-18)
(0.591479 1.66602 0)
(3.5836 -0.0755953 8.6388e-20)
(3.6185 -0.254486 -7.25586e-20)
(3.72115 -0.218284 -1.26589e-18)
(3.75914 -0.12668 1.28176e-18)
(3.67611 -0.0495092 0)
(2.40102 3.82797 0)
(2.57742 3.87247 0)
(2.84958 3.57698 0)
(2.69752 3.60812 0)
(0.885693 1.44668 -3.78709e-21)
(0.635596 1.07923 0)
(1.7353 3.44918 1.50779e-20)
(1.42397 3.51134 0)
(1.35158 3.02561 -1.29093e-18)
(1.43248 2.9588 8.28721e-19)
(1.83143 0.311569 0)
(1.46741 0.264773 3.53142e-19)
(2.44912 0.354455 2.19502e-18)
(1.82198 0.281987 -7.87434e-19)
(1.45286 0.1112 -2.49818e-18)
(4.24899 0.768032 -2.56774e-18)
(3.86894 0.976848 -3.57491e-20)
(3.33579 0.833872 2.06962e-18)
(3.89283 0.728503 1.81453e-18)
(3.15635 0.45665 -3.04696e-18)
(2.94675 0.445567 3.75321e-19)
(3.23443 0.675091 -8.19643e-19)
(3.01799 0.671699 0)
(3.78165 0.547747 1.53785e-18)
(4.10311 0.611383 0)
(4.09856 0.754274 0)
(4.02574 0.402464 8.24022e-19)
(4.28215 0.622859 -3.04889e-20)
(4.22073 0.694699 -4.52617e-19)
(4.15047 0.622941 0)
(3.62517 0.124 1.71667e-18)
(4.19005 0.173769 2.14228e-18)
(4.09438 0.143762 -1.67796e-18)
(4.14087 0.229172 -1.4416e-18)
(3.75579 0.228271 -2.15455e-18)
(3.33152 0.366187 0)
(3.42171 0.291745 0)
(2.58183 0.18611 -1.26576e-18)
(2.13373 0.116564 4.76903e-19)
(4.04388 0.338876 1.93884e-18)
(4.27709 0.416719 -2.34733e-18)
(4.28285 0.471824 2.06909e-18)
(4.16096 0.474018 0)
(4.24855 0.322215 0)
(4.25883 0.310896 -9.78593e-19)
(4.21292 0.302744 -1.59527e-18)
(2.24076 3.51678 6.21121e-19)
(1.96732 3.28705 -6.85576e-19)
(1.49159 2.42915 -1.03802e-18)
(1.23129 2.06466 2.6848e-19)
(0.917868 1.43052 -2.64689e-18)
(0.823605 1.26035 9.27319e-19)
(0.623468 0.937963 -1.9223e-21)
(1.1563 1.84796 -1.14501e-18)
(1.18418 1.94934 1.70922e-18)
(1.01166 1.75834 5.09073e-19)
(0.815342 1.33474 -5.15745e-19)
(0.658716 1.11226 0)
(2.48703 2.64225 -1.15628e-19)
(0.756986 1.17721 8.65167e-19)
(0.979497 0.933797 1.16587e-18)
(0.801832 0.847792 1.35068e-18)
(1.13742 0.78399 1.35163e-18)
(1.53468 1.0913 -2.28668e-18)
(1.44909 1.12067 1.853e-18)
(1.05387 0.805555 -6.8251e-19)
(0.858784 0.598188 1.50676e-18)
(1.66939 0.504115 -7.81207e-19)
(1.61484 0.52685 0)
(1.28629 0.421446 4.95489e-21)
(2.57192 1.5454 7.79568e-19)
(2.15418 1.30765 -2.82385e-18)
(1.75824 1.23135 1.03346e-20)
(1.73151 1.13283 0)
(2.88528 2.60432 8.75331e-19)
(3.41772 2.72182 1.03845e-18)
(3.2328 2.90971 -1.19697e-18)
(3.51336 2.72763 -4.29332e-19)
(3.43274 2.55897 -1.3583e-19)
(3.46371 2.75188 1.39671e-19)
(3.66071 2.23885 -1.68049e-18)
(3.66804 2.46335 4.02947e-19)
(3.73765 2.39589 0)
(3.73744 2.15653 -5.81522e-19)
(4.04573 1.05362 5.81559e-19)
(4.24964 0.970518 1.00442e-18)
(4.27943 0.942001 1.01298e-18)
(4.04354 1.30523 -1.15115e-18)
(4.06987 1.32269 0)
(4.11742 1.20721 0)
(3.36891 1.22975 -1.45513e-20)
(2.47555 0.675392 0)
(2.77513 0.74618 9.33217e-19)
(3.28003 0.877262 -2.56931e-20)
(3.77977 1.51773 5.11327e-18)
(3.58074 1.74831 1.31296e-18)
(3.50231 1.53352 -1.34331e-18)
(3.08552 1.37571 1.44024e-18)
(2.8199 1.38406 8.26668e-19)
(2.37884 1.18053 -8.00646e-19)
(3.67132 -0.0865823 1.9837e-18)
(3.89453 -0.0300476 0)
(3.85876 -0.0676069 1.34135e-18)
(3.74255 -0.0604116 -2.98631e-18)
(3.98052 0.0358273 1.46107e-18)
(3.9048 0.111927 -3.08104e-18)
(3.74045 0.126435 0)
(3.55724 0.17254 -6.28133e-19)
(3.8122 0.12205 1.60427e-18)
(3.6923 0.190542 -8.22037e-19)
(3.6008 0.170273 5.9032e-19)
(-0.0890087 2.67684 0)
(-0.0614588 3.46521 0)
(-0.0419274 2.53758 0)
(-0.0275625 2.046 0)
(0.0237982 3.95989 6.84781e-19)
(0.117675 3.74683 -1.78094e-19)
(0.282697 4.62093 -2.32483e-19)
(0.221511 4.45143 2.45081e-19)
(-0.049959 4.30187 -5.05747e-19)
(-0.0149976 4.331 3.79706e-19)
(0.0712384 3.89625 2.13548e-20)
(-0.00765358 3.59781 -4.73644e-19)
(-0.0267604 3.3657 -6.33592e-20)
(-0.0574426 3.71478 -5.77538e-20)
(0.125871 4.44379 -5.88442e-19)
(0.15257 4.26487 0)
(0.243606 4.60636 2.96568e-19)
(0.235153 4.67701 2.54004e-19)
(0.561171 4.42814 -2.2669e-19)
(0.389084 3.79442 0)
(0.438536 3.64616 -1.11612e-18)
(0.538957 4.01245 7.90945e-19)
(0.445905 4.54036 -6.16022e-19)
(0.337816 4.4132 3.31505e-19)
(0.273204 4.14927 0)
(-0.0613613 4.71482 -5.59474e-19)
(-0.0964485 4.46151 -6.45719e-19)
(-0.102003 4.67892 0)
(-0.0490084 4.30854 -6.10508e-21)
(-0.0442842 4.59216 2.76968e-19)
(-0.140432 3.93957 4.56633e-20)
(-0.0704567 3.57687 -6.69752e-19)
(-0.118551 3.99215 1.78776e-19)
(-0.169437 4.52732 2.37727e-19)
(-0.106104 4.35007 0)
(-0.0854659 3.96903 0)
(-0.0898468 3.03785 2.07509e-19)
(-0.0626232 3.75149 -6.47151e-20)
(-0.0886767 3.7302 0)
(-0.0918699 2.81891 1.63659e-19)
(-0.048835 2.31911 -3.16871e-19)
(3.75859 0.0297716 0)
(3.72917 0.0051281 -2.03193e-19)
(4.1783 0.0634088 -1.43917e-18)
(4.08629 0.0420196 0)
(3.87211 0.0138334 0)
(4.14937 0.0335792 -1.23368e-20)
(4.09998 0.0319417 2.37749e-18)
(4.00139 0.076597 2.8436e-18)
(3.75859 0.115607 0)
(3.56159 0.107256 0)
(4.01545 0.0888779 1.41665e-18)
(3.70743 0.112138 0)
(3.47727 0.125886 0)
(-0.0988238 4.62279 0)
(-0.114714 4.61941 1.05942e-20)
(-0.0915816 4.65624 6.49439e-20)
(-0.0736518 3.92905 0)
(-0.12325 4.52658 1.12664e-19)
(-0.0806461 4.29392 -6.49516e-20)
(-0.0687903 4.04039 0)
(1.38573 4.19791 0)
(1.16709 4.54491 -1.30424e-18)
(1.18596 4.4681 0)
(1.53033 4.44825 1.49435e-18)
(1.55094 4.07558 0)
(1.45811 4.32834 -6.11868e-19)
(1.03946 2.31227 -3.41906e-20)
(0.733443 1.70118 -1.75755e-18)
(0.611844 1.27051 2.14439e-18)
(0.725828 1.89126 3.99481e-19)
(0.993921 2.49203 0)
(1.0605 2.44741 0)
(0.738197 1.74314 0)
(0.547925 1.37496 -1.40478e-18)
(1.20275 3.81352 -9.86324e-19)
(1.13896 3.05368 -2.36427e-19)
(1.33309 3.45937 1.93364e-19)
(0.605924 2.09048 0)
(0.632333 1.99621 0)
(0.471631 1.61559 -3.95038e-19)
(0.967736 2.78241 0)
(2.6664 3.55185 0)
(2.40739 3.04162 -1.45837e-18)
(2.56305 3.04596 -8.60284e-20)
(2.43011 3.42241 0)
(2.31537 3.18944 2.22694e-18)
(3.25227 3.05836 -3.91304e-19)
(3.08792 3.27964 0)
(3.07401 3.10697 6.33965e-19)
(2.84164 3.38952 0)
(2.86462 3.19097 0)
(1.25002 2.07783 -9.3649e-19)
(1.45829 2.4813 -7.03154e-19)
(1.7875 3.04914 1.21124e-18)
(1.729 3.03052 -3.64259e-19)
(1.09837 1.8878 0)
(1.23981 2.27968 4.73602e-19)
(0.745124 1.33693 -7.20486e-19)
(0.602975 1.08349 -5.48233e-22)
(1.94107 3.73095 0)
(2.19538 3.75733 -5.4318e-19)
(2.31258 3.96659 0)
(2.33287 0.52748 0)
(1.6612 0.345595 0)
(1.24883 0.28219 0)
(2.26338 0.55686 -1.46922e-18)
(1.6861 0.4095 8.20386e-19)
(2.17275 0.126284 -9.85397e-19)
(2.6581 0.291631 0)
(2.49863 0.296754 4.13862e-19)
(1.79904 0.133748 1.63458e-18)
(1.55382 0.0803016 -1.03782e-18)
(0.774066 1.60525 8.63639e-19)
(0.997922 1.87835 0)
(0.559488 1.48286 1.5729e-18)
(0.55071 1.65324 -1.4357e-18)
(0.795453 1.86113 -9.97406e-19)
(2.12587 2.5155 1.344e-18)
(2.14643 2.76559 0)
(1.6537 1.73977 -2.78317e-19)
(2.077 2.04594 1.7521e-18)
(1.42859 1.34955 -4.26675e-19)
(1.66043 1.36803 4.53907e-19)
(2.18245 1.55689 1.02908e-18)
(2.51196 1.70632 0)
(2.34151 1.90091 0)
(2.08263 1.65691 0)
(3.92203 2.04719 3.87112e-19)
(3.75535 1.86853 -1.26532e-18)
(3.80283 2.00318 1.04838e-18)
(3.88974 1.74669 -1.00975e-18)
(4.12241 1.64578 0)
(4.07562 1.80889 -2.98825e-19)
(2.89948 1.17247 -1.9039e-18)
(3.0227 1.16581 -2.41823e-18)
(2.40115 1.06222 1.46175e-18)
(2.20735 0.953727 -1.427e-18)
(2.52642 0.855785 -1.18225e-18)
(2.24337 0.792639 1.45383e-18)
(4.00827 0.0317734 -1.52799e-18)
(4.05256 0.0386151 3.12822e-18)
(3.767 -0.0673536 1.89993e-18)
(3.7901 -0.0753327 -2.28558e-18)
(3.95819 0.00800228 0)
(4.05529 0.020203 -3.72753e-18)
(0.0659355 4.72297 1.07407e-19)
(0.0368877 4.69913 0)
(0.156793 4.69685 9.59934e-19)
(0.177319 4.71571 -8.73424e-19)
(0.196455 4.6901 4.33426e-19)
(0.0901234 4.63651 0)
(-0.125486 4.71759 0)
(-0.12906 4.40991 -6.29893e-20)
(-0.12621 4.36312 5.64839e-20)
(-0.132914 4.48162 7.68186e-21)
(-0.124893 4.65509 -1.0283e-19)
(-0.105444 4.64454 5.56201e-20)
(1.85938 4.01258 -1.64715e-18)
(1.79514 4.02318 1.74517e-18)
(1.64272 4.37244 -8.58802e-19)
(1.66943 4.27488 7.63682e-20)
(2.2123 4.03273 0)
(1.81128 4.16903 -6.45036e-19)
(1.93893 3.9108 6.25512e-19)
(1.77742 4.33361 8.38875e-19)
(2.03222 4.18539 0)
(2.18993 4.06571 0)
(1.13297 3.67292 1.49948e-18)
(0.831777 2.86868 2.03267e-18)
(0.958509 3.04828 -1.3959e-18)
(0.750037 3.02753 -2.32993e-19)
(0.893888 3.77252 4.67871e-19)
(0.717575 3.41179 -1.13773e-18)
(0.771657 1.51666 -1.22367e-18)
(0.770533 1.36522 0)
(0.622815 1.15467 -1.34487e-18)
(1.14266 2.13201 0)
(1.12062 2.21863 0)
(1.41472 2.25107 -1.09811e-18)
(1.10755 2.07498 -1.04291e-18)
(1.06055 2.09218 1.10675e-18)
(1.09398 1.56969 0)
(1.48067 1.82289 -6.05262e-19)
(1.68922 2.18382 -8.58242e-19)
(1.46977 2.14195 0)
(0.914941 1.86388 7.18833e-19)
(0.828128 1.71834 0)
(2.93907 2.30505 -1.84916e-18)
(3.31873 2.46166 2.61095e-18)
(3.29134 2.18964 -2.59481e-18)
(2.66376 2.05155 -2.31763e-19)
(2.77531 1.9642 -9.76362e-19)
(1.31027 2.25604 8.01521e-19)
(1.36432 2.31509 -1.36784e-18)
(1.50835 2.3956 1.80292e-18)
(1.8415 2.62197 -1.17158e-18)
(1.93004 2.99633 -1.57285e-18)
(1.61196 2.55946 -1.1899e-19)
(1.6799 2.70141 1.37864e-18)
(1.8598 2.75973 9.71255e-20)
(2.05666 3.05452 6.5289e-19)
)
;

boundaryField
{
    wall-4
    {
        type            noSlip;
    }
    velocity-inlet-5
    {
        type            fixedValue;
        value           uniform (3 0 0);
    }
    velocity-inlet-6
    {
        type            fixedValue;
        value           uniform (0 1 0);
    }
    pressure-outlet-7
    {
        type            zeroGradient;
    }
    wall-8
    {
        type            noSlip;
    }
    frontAndBackPlanes
    {
        type            empty;
    }
}


// ************************************************************************* //
