/*--------------------------------*- C++ -*----------------------------------*\
  =========                 |
  \\      /  F ield         | OpenFOAM: The Open Source CFD Toolbox
   \\    /   O peration     | Website:  https://openfoam.org
    \\  /    A nd           | Version:  9
     \\/     M anipulation  |
\*---------------------------------------------------------------------------*/
FoamFile
{
    format      ascii;
    class       volVectorField;
    location    "33.35";
    object      U;
}
// * * * * * * * * * * * * * * * * * * * * * * * * * * * * * * * * * * * * * //

dimensions      [0 1 -1 0 0 0 0];

internalField   nonuniform List<vector> 
918
(
(2.47629 -0.138943 0)
(0.108704 0.722546 0)
(0.171778 1.05378 0)
(2.31834 0.153728 0)
(-0.0597045 1.27094 -1.22323e-19)
(-0.0924034 0.643931 -5.31377e-18)
(0.53006 0.849695 -2.95329e-19)
(0.274314 0.152869 -2.98837e-20)
(3.00615 -0.0195607 0)
(-0.00826745 0.477015 0)
(-0.0172287 0.589652 0)
(0.605211 0.00676634 0)
(0.0107054 0.439105 0)
(-0.00288244 0.421689 0)
(0.0134373 0.340815 -1.3051e-18)
(-0.00468727 0.768736 -9.2053e-20)
(0.312397 0.0742685 2.15207e-18)
(0.0797481 0.642574 -2.22921e-19)
(1.52884 0.128628 0)
(-0.0267099 0.685486 0)
(0.194584 0.157718 -1.26551e-18)
(3.08302 -0.397373 0)
(2.92445 -0.50598 0)
(1.86116 -0.1811 0)
(0.511381 0.0400857 0)
(-0.0253686 0.52155 0)
(-0.00135313 0.494038 1.86237e-18)
(-0.0224009 1.40051 0)
(0.07491 2.88382 0)
(0.168272 1.73656 0)
(-0.0382495 3.1654 0)
(0.0273205 1.64031 9.40549e-20)
(0.0233426 0.686625 0)
(-0.147425 0.775094 -2.03083e-22)
(-0.193914 1.0291 4.42119e-18)
(-0.0415772 1.04471 0)
(0.744578 -0.00600498 0)
(0.161 0.246302 6.65517e-19)
(0.993568 1.51316 6.52781e-19)
(0.649984 0.78443 -5.15959e-19)
(0.798661 1.57534 6.19907e-20)
(0.416847 0.85149 -3.20064e-19)
(0.552305 0.306555 2.93902e-20)
(0.29696 0.153641 0)
(0.963025 0.566588 0)
(0.532584 0.303937 1.32011e-19)
(0.257967 0.162785 -1.35462e-19)
(0.871596 -0.0554787 0)
(3.02784 -0.00170478 0)
(3.00685 0.0178656 0)
(3.20086 -0.417733 0)
(3.04288 -0.0742117 0)
(3.03116 -0.0388406 0)
(0.0186003 0.902984 -1.14623e-18)
(-0.0542625 0.974436 0)
(0.00283773 0.455145 0)
(-0.029161 0.981542 0)
(-0.011408 0.481398 0)
(-0.00135041 0.869797 0)
(-0.0521199 1.11123 0)
(-0.0125575 0.541943 0)
(-0.02537 1.16263 0)
(-0.00592523 0.621935 0)
(0.790479 0.0116245 0)
(1.16942 -0.00156169 0)
(0.618247 0.0123698 0)
(1.12578 0.0175987 0)
(0.569758 0.00867944 0)
(0.225406 0.921982 1.95974e-18)
(0.0985379 1.2081 0)
(0.176302 1.06604 0)
(0.0331901 0.755774 2.19926e-23)
(0.0372233 0.498055 -2.93095e-18)
(0.0194616 0.747943 0)
(0.00595421 0.422033 0)
(-0.000695309 0.734548 4.51728e-24)
(0.000702482 0.414825 0)
(-0.0169204 0.74318 0)
(-0.0129373 0.42798 0)
(0.0494344 0.649974 0)
(0.0484376 0.45822 0)
(0.00800504 0.621949 1.23395e-18)
(0.000744643 0.344903 0)
(-0.0676713 4.69189 0)
(0.00896206 1.45812 9.13895e-20)
(-0.0104534 0.785395 -1.17651e-19)
(0.636083 0.152146 -7.50923e-19)
(0.321613 0.0656845 -7.28685e-19)
(0.644788 0.169721 -2.25458e-18)
(0.31753 0.0955706 -1.45151e-18)
(0.078526 0.618377 0)
(0.17855 1.31389 1.84852e-19)
(0.179712 0.730291 -2.94934e-19)
(2.06031 0.260946 0)
(1.10704 0.11845 0)
(3.03313 0.103887 0)
(3.10392 0.446059 0)
(2.83919 0.377459 -1.01276e-17)
(2.5781 0.361309 7.7711e-18)
(-0.0706447 1.26317 0)
(-0.01133 0.623299 0)
(-0.0138212 1.90036 0)
(-0.0507052 1.3466 0)
(-0.0479987 0.679041 0)
(0.44031 0.295627 4.00657e-19)
(0.225463 0.163359 0)
(2.2961 -0.266393 0)
(1.32372 -0.119273 0)
(1.07632 0.0126689 0)
(1.01198 0.0187649 0)
(0.540922 0.0108512 0)
(1.01986 0.0563996 0)
(0.821214 0.0703256 0)
(0.343622 0.0286956 3.36289e-18)
(-0.005435 0.451601 1.77343e-18)
(-0.0270312 0.784627 0)
(-0.0473175 0.847507 0)
(-0.0152739 0.460435 0)
(0.000132484 0.839725 1.81592e-18)
(7.30053e-05 0.48753 0)
(-0.0054789 0.845554 -5.59014e-18)
(-0.00488634 0.496761 1.88627e-18)
(0.0546929 3.56592 0)
(0.0433743 4.02503 0)
(-0.0162307 1.41079 -2.05165e-21)
(-0.0130509 1.36339 0)
(-0.00978092 0.741511 0)
(1.41018 0.0348844 0)
(0.760549 0.0154387 0)
(0.709514 0.0142643 0)
(1.41618 -0.0328482 0)
(0.773515 -0.00873971 0)
(0.322056 0.480348 -8.35581e-19)
(0.156805 0.232719 0)
(0.324957 0.509164 9.36443e-20)
(0.16336 0.268431 0)
(1.2408 1.38689 1.6644e-19)
(0.778689 0.740857 -3.92415e-19)
(0.411596 1.42216 0)
(0.607188 1.53405 0)
(0.303547 0.814808 0)
(0.145328 0.353375 -4.42825e-19)
(0.607303 0.280718 0)
(0.31351 0.134639 3.98811e-19)
(1.42733 1.30674 0)
(1.58668 1.16855 0)
(0.874911 0.663919 4.61708e-19)
(1.73392 0.9531 0)
(1.0686 0.438777 2.3222e-20)
(1.47298 0.00813852 0)
(1.501 -0.0292391 0)
(0.801896 -0.00441618 0)
(1.95042 -0.199779 0)
(1.65082 -0.14818 0)
(1.05215 -0.0889696 0)
(3.06126 0.164853 0)
(3.03105 0.0687875 0)
(3.01022 0.0531594 0)
(0.0357125 1.60556 6.08191e-19)
(0.0178694 0.826982 0)
(0.0179409 1.69621 1.07973e-18)
(0.00303007 0.93884 -9.70708e-19)
(0.0646808 1.15239 1.87773e-19)
(0.0477085 0.989254 0)
(0.040185 0.52873 0)
(-0.0286766 1.00559 0)
(-0.00698886 0.517558 0)
(0.0181371 1.61558 -4.43293e-21)
(-0.0180646 0.865561 0)
(-0.0539505 1.58412 -2.25785e-19)
(-0.0161291 0.820746 4.37287e-19)
(-0.00178521 1.02987 0)
(0.0102738 1.04408 0)
(5.27683e-05 0.531621 0)
(0.0106675 1.1711 0)
(0.000911489 0.612441 0)
(1.46831 -0.00370339 0)
(0.789218 0.00805988 0)
(1.44055 0.0331662 0)
(0.761792 -0.000557511 0)
(0.675382 0.00534459 0)
(1.26195 0.0166822 0)
(1.20239 0.0473083 0)
(0.65969 0.015556 0)
(-0.00580052 1.42077 -1.70202e-20)
(0.00018432 1.37708 0)
(0.00482012 0.732923 0)
(0.00172892 0.417221 0)
(0.284437 0.828755 0)
(0.253616 0.399733 -2.87122e-19)
(-0.00223248 0.635409 0)
(-0.00889713 0.367611 0)
(0.0117591 4.3377 0)
(-0.0485398 4.6642 0)
(-0.0179685 4.56591 0)
(-0.0719076 3.3679 2.04146e-20)
(-0.0577544 4.60309 0)
(-0.0516163 4.18034 0)
(0.00484363 0.819117 1.08112e-20)
(0.0142194 1.56243 1.65386e-19)
(-0.035857 1.50296 1.20875e-19)
(-0.00744442 0.825929 0)
(0.664427 0.105708 1.15326e-18)
(0.325684 0.0441634 -1.13021e-18)
(0.14966 1.13333 0)
(0.10094 0.573388 -2.69226e-19)
(0.118115 1.23316 -8.7426e-19)
(0.0518478 0.687096 8.6976e-19)
(0.809201 0.0240635 0)
(1.55677 0.0476796 0)
(1.7097 0.127652 0)
(0.919845 0.0445228 0)
(0.0079365 1.18225 0)
(0.0258398 1.19029 0)
(0.00450439 0.627881 0)
(0.482106 0.315078 1.20357e-18)
(0.436842 0.309079 -1.38664e-18)
(0.234765 0.164173 0)
(1.93551 0.153002 1.15235e-19)
(1.13642 0.093252 0)
(1.72436 0.118444 0)
(0.88373 0.0226953 0)
(0.678171 0.0857387 0)
(0.699713 0.0460597 -5.4074e-18)
(0.346728 0.0325964 1.99897e-18)
(0.0091474 0.807284 1.69361e-18)
(0.00222281 0.46251 4.08167e-20)
(-0.0108777 1.40842 -3.57993e-20)
(0.00613616 1.38675 1.36582e-18)
(-0.0149832 0.848955 6.29418e-20)
(-0.0119261 0.524486 -2.52898e-22)
(-0.107514 1.00068 -1.16485e-18)
(-0.0529602 1.3532 8.33968e-19)
(-0.0175323 1.35275 -1.35772e-18)
(1.42273 -0.0170846 0)
(1.44236 0.0203186 0)
(0.769872 -0.000177561 0)
(1.45218 0.0253834 0)
(1.36319 0.0462298 0)
(0.761541 0.0203071 0)
(1.30062 -0.00215355 0)
(1.31867 -0.00584865 0)
(0.695054 -0.000986407 0)
(0.304852 0.473398 -9.15187e-19)
(0.161356 0.242677 0)
(0.157152 0.308426 1.36932e-19)
(0.309585 0.585884 1.12211e-18)
(0.307399 0.54857 -6.643e-19)
(0.156818 0.281895 1.29814e-18)
(0.278475 0.71768 2.18145e-18)
(0.148257 0.380843 3.93611e-19)
(0.636087 0.213092 1.53742e-18)
(0.62599 0.253603 3.99309e-19)
(0.316619 0.115045 7.4925e-19)
(1.92131 0.714636 -5.99649e-19)
(1.1677 0.336107 -7.0187e-19)
(-0.0351182 1.70318 4.64103e-19)
(-0.0114065 0.924832 0)
(1.6039 0.0239533 0)
(1.52191 0.0653728 0)
(0.852934 0.0268588 0)
(-0.00355882 1.38473 0)
(0.00507422 0.729574 2.49503e-18)
(0.00465033 0.731252 0)
(0.00207079 0.415097 -2.44207e-18)
(-0.0102751 1.38627 5.95633e-19)
(-0.00947265 1.4225 0)
(0.336544 0.488132 2.57948e-19)
(0.360033 0.546395 -8.62968e-19)
(0.171833 0.257814 7.81115e-19)
(-0.0256693 0.767468 -1.66255e-18)
(-0.0261518 0.689734 0)
(-0.0154343 0.412938 0)
(0.0302159 1.54803 -1.27061e-20)
(0.0314117 1.58068 -3.6488e-19)
(0.0178964 0.822594 -1.55902e-20)
(0.213334 1.04397 8.89942e-19)
(0.119638 0.50898 -5.9221e-19)
(0.0118668 1.48469 7.30523e-19)
(0.0558091 1.35067 -8.15342e-19)
(0.0268052 0.760306 3.5304e-20)
(0.00751361 1.36614 -3.80741e-18)
(-0.000214802 1.39326 4.40919e-18)
(0.0037734 0.829776 1.73285e-18)
(-0.0138288 0.805094 -1.72531e-18)
(-0.00430905 0.481399 -1.73848e-18)
(-0.0106511 1.41685 -4.49961e-18)
(-0.0152178 1.40032 4.58879e-18)
(0.286348 0.674759 0)
(0.299758 0.634601 -2.28757e-18)
(0.15193 0.331704 9.90291e-19)
(0.281191 0.795908 1.18494e-18)
(0.138793 0.427482 -1.82836e-18)
(2.057 0.322586 4.15821e-19)
(2.05156 0.547732 0)
(1.21866 0.220984 -4.01773e-19)
(-0.0738526 1.63519 -4.80135e-21)
(-0.014127 1.69055 0)
(-0.0157187 0.921867 0)
(0.227055 0.944392 -3.22754e-19)
(0.2482 0.866412 -7.06825e-19)
(0.128788 0.463228 1.32464e-18)
(3.16442 -0.442872 0)
(3.34728 -0.414685 1.81279e-18)
(0.0623378 3.48418 0)
(0.0488354 2.80808 0)
(3.15925 0.249915 1.4192e-20)
(3.12355 0.506296 3.7121e-18)
(0.0233845 3.43267 -2.73974e-20)
(0.00927271 2.66437 0)
(-0.0416466 1.19604 1.55492e-18)
(0.190061 1.31638 0)
(3.47262 1.62511 -3.24732e-19)
(3.17427 0.272573 -2.96098e-20)
(3.14838 -0.118696 0)
(3.10047 -0.000403982 3.73118e-22)
(0.0439179 2.59033 0)
(0.157477 3.30066 0)
(-0.0549132 2.53436 0)
(-0.0230031 3.4884 3.1576e-19)
(-0.0248354 3.56939 1.99238e-19)
(2.63343 0.0488319 -1.36492e-20)
(3.04751 0.0311532 0)
(3.15793 0.0868412 0)
(-0.05084 4.61734 0)
(-0.0457 3.08339 0)
(-0.0717913 2.93586 0)
(0.652555 3.106 2.65635e-19)
(3.33884 -0.422458 0)
(3.0114 -0.34581 0)
(3.1699 -0.0530368 2.27719e-18)
(3.2927 -0.3287 -2.74199e-18)
(3.1038 -0.125776 0)
(-0.0566731 4.51561 0)
(0.0168029 3.93526 0)
(0.00873947 4.26588 0)
(-0.026523 3.09635 0)
(-0.012888 2.85161 0)
(-0.0304769 2.42459 0)
(2.97423 -0.00316931 0)
(2.85043 0.0486287 -1.805e-20)
(2.24691 3.0494 -3.21505e-19)
(3.15695 0.0444553 -2.27826e-18)
(3.19037 0.278179 2.76934e-18)
(3.0828 0.117338 0)
(3.3954 0.328926 2.08728e-18)
(3.35695 0.484366 -2.70654e-18)
(3.07111 0.418429 0)
(-0.0547568 3.34682 0)
(0.00576866 3.27693 8.5188e-20)
(-0.030284 2.57577 -6.03573e-20)
(3.70791 0.555321 2.26542e-18)
(3.47099 0.2085 0)
(-0.151984 1.27126 -2.16582e-18)
(-0.0624331 0.88216 -1.35028e-19)
(-0.0848382 1.33672 2.98545e-18)
(-0.0352364 1.27045 -8.99572e-19)
(-0.000495782 1.08841 0)
(-0.0266646 1.23955 6.94823e-19)
(-0.115054 1.38786 2.14644e-18)
(-0.0590498 1.34056 -1.31407e-18)
(-0.0767369 1.32063 0)
(1.28929 0.597215 0)
(1.17726 0.682379 0)
(3.55665 2.02951 9.53487e-19)
(3.04988 1.936 -1.19054e-18)
(3.83774 1.70662 0)
(3.38427 1.15686 0)
(3.34934 0.280496 -3.9168e-18)
(2.89884 0.17312 4.83973e-18)
(3.35145 -0.155478 0)
(2.85479 -0.0761356 0)
(3.43642 0.0430264 0)
(3.5938 0.145057 0)
(3.28683 0.119875 0)
(3.55033 0.298581 0)
(3.40841 0.293059 0)
(3.32755 0.218074 0)
(0.0973047 2.79188 0)
(0.0343432 2.08041 0)
(0.126589 3.05268 0)
(0.0927588 2.20645 0)
(0.214777 3.59376 0)
(0.140111 2.67386 -5.58551e-19)
(0.0533263 3.61008 0)
(0.0113101 3.01364 4.056e-19)
(-0.0244044 3.2027 -5.17007e-19)
(-0.0589571 2.79903 0)
(-0.0228357 2.20161 0)
(-0.071869 2.9067 0)
(-0.0555048 2.04956 0)
(-0.106674 4.7493 -2.45545e-19)
(-0.079036 3.94043 2.77269e-19)
(-0.074261 3.80125 3.09076e-19)
(-0.052657 3.01545 0)
(-0.10436 3.80277 -4.58661e-19)
(-0.0370554 3.21405 -2.95055e-19)
(-0.0807678 4.78167 1.92545e-19)
(-0.0932964 4.46482 -3.50463e-19)
(-0.0685257 4.33456 -3.78931e-19)
(3.03133 0.0883886 3.35856e-18)
(2.28959 0.0321829 -4.22972e-18)
(2.89131 0.132847 -3.32748e-18)
(2.20957 0.07349 4.15622e-18)
(3.36858 0.0277287 0)
(2.64306 -0.00265031 0)
(3.45416 0.0913599 0)
(3.32025 0.0192921 0)
(2.70666 0.0092288 0)
(3.68031 0.23965 0)
(3.43884 0.0960072 0)
(2.8637 0.0565206 0)
(-0.0210929 4.33554 -1.20279e-20)
(-0.0538543 4.65339 0)
(-0.0591902 4.54924 0)
(-0.0746557 3.50429 8.77183e-20)
(-0.0373189 2.7777 -3.46529e-21)
(-0.0791253 4.67001 1.13474e-19)
(-0.0932061 4.45849 -1.14673e-19)
(-0.0770318 3.95638 0)
(-0.0551898 3.87653 0)
(-0.0187064 3.99324 0)
(-0.0706999 3.25676 0)
(-0.0425474 2.30152 0)
(0.948797 3.66244 -6.08637e-19)
(0.921334 2.85383 -1.76286e-19)
(0.430137 2.05244 -2.28156e-19)
(0.252125 2.29868 6.96856e-19)
(1.02337 4.19973 2.63793e-19)
(3.43308 -0.167421 0)
(3.32213 -0.256546 0)
(2.88327 -0.189515 0)
(3.47032 -0.0643456 0)
(3.34581 -0.147864 0)
(3.44893 -0.261022 0)
(3.5195 -0.283601 0)
(3.57949 -0.281129 0)
(3.22413 0.0933885 3.61885e-18)
(2.55519 0.0645187 -4.57598e-18)
(3.09649 0.106579 -3.56231e-18)
(2.50909 0.0566755 4.4325e-18)
(2.23999 3.41728 0)
(1.73983 2.94877 -4.45487e-19)
(2.56698 3.34913 -4.03124e-19)
(2.36971 2.52979 5.35794e-19)
(0.774425 1.21292 2.722e-18)
(1.44675 0.216477 1.34312e-18)
(3.72257 0.304262 0)
(3.89316 0.572838 -1.84591e-18)
(3.29902 0.243966 -8.23365e-20)
(3.72079 0.440158 0)
(0.236577 1.31232 1.79594e-18)
(-0.0166644 1.20198 -2.87612e-18)
(0.0587928 0.769957 1.6144e-18)
(0.275919 0.464892 -7.47781e-19)
(0.187227 1.38374 8.70924e-19)
(0.0506347 1.23716 0)
(0.0577283 1.08616 -1.13219e-18)
(0.19169 1.44296 -4.0918e-18)
(0.328968 1.55694 0)
(0.00867324 1.2902 1.19578e-19)
(-0.00971743 1.45729 -1.34014e-18)
(-0.0410144 1.30282 1.94827e-18)
(-0.0574434 1.41766 0)
(-0.0204758 1.38228 0)
(0.681036 1.04982 0)
(2.45665 2.45509 -1.06612e-18)
(2.6442 2.17392 3.95176e-19)
(2.79264 2.88275 0)
(3.21305 3.06782 -3.94527e-19)
(3.16606 2.41192 2.84646e-20)
(0.803631 0.589298 -1.82223e-18)
(1.55579 0.691426 -1.62181e-20)
(1.23283 0.450979 8.7209e-19)
(1.27492 0.843568 5.95007e-20)
(0.938722 0.633772 -2.3693e-18)
(1.46413 0.714104 0)
(1.98969 1.09965 1.45582e-18)
(2.03184 1.01561 0)
(1.41167 0.790628 0)
(1.06187 0.549633 0)
(3.37538 2.18024 1.00843e-18)
(3.94759 0.760953 -1.86324e-18)
(3.84794 1.21614 0)
(3.53389 0.757828 0)
(1.3913 0.364749 1.3324e-18)
(3.2579 1.84223 -8.51445e-19)
(2.83421 1.65438 1.54674e-18)
(3.75522 1.3771 -1.83576e-18)
(3.09793 0.114762 2.46388e-18)
(3.16856 0.180818 -2.57883e-18)
(2.66183 0.0916429 0)
(3.30731 -0.0394951 0)
(3.20141 -0.0842558 -2.36641e-18)
(2.63244 -0.0321093 2.34557e-18)
(3.95629 0.0932078 0)
(3.75968 0.145656 0)
(3.69369 0.155374 0)
(3.5883 0.204749 0)
(3.83261 0.0590327 0)
(3.72611 0.0522538 0)
(-0.0401175 2.51399 0)
(-0.0377337 2.01291 0)
(0.357049 3.9901 -4.11323e-19)
(0.662942 3.33531 -1.59966e-19)
(0.259718 3.0294 -3.57909e-19)
(0.343891 2.54947 5.73286e-19)
(0.458342 4.01604 0)
(0.4699 4.67197 -5.09855e-19)
(0.383104 4.73039 0)
(0.910973 4.37505 -3.79473e-19)
(0.672974 3.81377 9.68743e-19)
(0.597239 4.65368 4.46921e-19)
(0.740853 4.2023 -1.87489e-19)
(0.602717 4.32767 1.50849e-19)
(0.916469 4.65782 -6.63716e-19)
(0.749876 4.66205 0)
(0.858518 4.58988 5.04501e-19)
(0.0071001 4.57151 -1.81139e-19)
(-0.0185074 3.64575 0)
(0.101581 4.28646 5.49614e-19)
(-0.00276265 4.3892 0)
(-0.00359259 3.45749 -4.51019e-19)
(-0.0152363 2.91089 0)
(-0.0999143 4.30945 -2.89125e-19)
(-0.105524 4.68186 0)
(-0.0529206 3.80724 0)
(-0.0397399 3.72954 3.25187e-19)
(-0.0468383 3.8867 1.03852e-20)
(-0.0345554 3.7079 6.25882e-19)
(-0.0410214 2.9481 4.06854e-21)
(-0.11345 4.71025 1.80196e-19)
(-0.102323 4.74198 1.03222e-19)
(-0.0165782 2.62418 0)
(0.0013515 2.13626 0)
(-0.0413388 4.78938 4.86252e-19)
(-0.0481534 4.31 4.23927e-19)
(-0.0827396 4.58571 -5.54175e-19)
(0.0165478 4.75854 0)
(-0.0773665 4.5348 -3.08954e-19)
(-0.116785 4.16797 1.27668e-19)
(-0.0839992 4.24862 -4.12836e-20)
(-0.0695928 4.72917 -2.18909e-19)
(-0.0848224 4.26969 -6.856e-20)
(-0.0832579 4.21456 3.06652e-19)
(2.87142 0.0610251 -2.3635e-18)
(2.85887 0.0497082 2.27297e-18)
(2.3386 0.0345586 0)
(3.51009 0.19204 3.04645e-18)
(2.70367 0.126547 -3.30469e-18)
(2.25448 0.0644878 3.6095e-18)
(3.68247 0.335346 -4.01632e-19)
(3.20989 -0.0485195 0)
(3.17213 -0.0135465 2.23697e-18)
(2.69091 -0.0123739 -2.21933e-18)
(3.87877 0.122255 -1.25236e-19)
(3.77177 0.101866 1.07831e-18)
(4.15977 0.173505 0)
(4.22847 0.181164 -3.75125e-19)
(4.01369 0.145246 0)
(3.69489 0.155414 0)
(4.0323 0.0950921 0)
(3.71179 0.0873368 0)
(4.18472 0.113897 7.85486e-19)
(4.1372 0.0791464 -1.74788e-18)
(4.14067 0.113899 -8.47992e-19)
(4.1864 0.116541 -9.2447e-19)
(4.2157 0.229031 1.77403e-18)
(3.85475 0.188642 0)
(4.06128 0.301939 0)
(-0.0712046 4.58014 -1.35712e-19)
(-0.0313857 4.64446 -1.16767e-20)
(-0.0644459 4.66095 0)
(-0.0540287 4.19636 1.38093e-19)
(-0.0522592 4.22412 2.25292e-20)
(-0.0571569 4.09209 -2.18345e-20)
(-0.0798022 3.52636 2.61158e-19)
(-0.142757 4.00638 -1.4514e-20)
(-0.101583 4.1338 7.47561e-20)
(-0.0737022 3.40235 -1.3226e-19)
(-0.0245254 2.92482 1.58394e-19)
(-0.0743656 4.4289 5.20862e-21)
(-0.0873119 4.64253 1.72213e-19)
(1.24336 4.3601 3.47383e-19)
(1.15952 4.5289 7.26033e-19)
(1.7368 3.46673 4.30776e-19)
(1.30881 3.56114 1.69464e-19)
(1.28657 2.88999 0)
(0.548324 2.3183 2.74858e-19)
(0.463442 1.74121 3.3065e-19)
(0.344947 2.56674 1.50892e-20)
(0.491912 3.1725 -1.16119e-18)
(0.631378 3.13154 8.76418e-19)
(0.432595 2.40393 0)
(0.293466 1.9715 -5.57202e-19)
(0.259683 3.07689 1.39455e-18)
(0.273211 2.7188 -3.13802e-20)
(0.157821 2.27555 -1.74781e-18)
(0.591318 1.41087 1.46323e-18)
(0.576249 1.61659 0)
(3.58364 -0.0751493 8.64324e-20)
(3.61861 -0.254101 -7.25959e-20)
(3.72135 -0.217712 -1.26653e-18)
(3.75927 -0.126019 1.28241e-18)
(3.67616 -0.0488553 0)
(2.44631 3.87163 0)
(2.61782 3.91472 0)
(2.88946 3.62561 0)
(2.73614 3.64271 0)
(0.8541 1.39429 -3.33967e-21)
(0.611435 1.03898 0)
(1.70879 3.38395 1.50204e-20)
(1.42068 3.46293 0)
(1.32631 2.95012 -1.28363e-18)
(1.4068 2.89284 8.24357e-19)
(1.79126 0.310396 0)
(1.43043 0.262016 3.52055e-19)
(2.41164 0.358828 2.19172e-18)
(1.78605 0.284835 -7.85405e-19)
(1.42631 0.112198 -2.49492e-18)
(4.26631 0.790105 -2.5654e-18)
(3.85196 0.995213 -3.6721e-20)
(3.29689 0.844637 2.06778e-18)
(3.87577 0.745473 1.81323e-18)
(3.12305 0.465688 -3.04496e-18)
(2.91021 0.452162 3.74978e-19)
(3.19248 0.682315 -8.18696e-19)
(2.97608 0.683405 0)
(3.75866 0.563995 1.53761e-18)
(4.09565 0.629408 0)
(4.09118 0.776484 0)
(4.04578 0.415929 8.2365e-19)
(4.29665 0.642596 -3.02467e-20)
(4.24946 0.715919 -4.52867e-19)
(4.1766 0.643302 0)
(3.61567 0.13042 1.71814e-18)
(4.19 0.183606 2.14415e-18)
(4.09068 0.151664 -1.67938e-18)
(4.13651 0.240884 -1.44282e-18)
(3.74573 0.23822 -2.15633e-18)
(3.30288 0.37597 0)
(3.40343 0.302414 0)
(2.55811 0.190651 -1.26602e-18)
(2.10846 0.119115 4.76756e-19)
(4.03722 0.352634 1.9403e-18)
(4.28774 0.43286 -2.34643e-18)
(4.28488 0.489489 2.06885e-18)
(4.15713 0.493545 0)
(4.25664 0.337316 0)
(4.26651 0.322402 -9.81918e-19)
(4.2143 0.316172 -1.59648e-18)
(2.22663 3.48713 6.20455e-19)
(1.93739 3.23073 -6.83331e-19)
(1.44558 2.35532 -1.03184e-18)
(1.18629 1.99618 2.66832e-19)
(0.883706 1.37806 -2.62855e-18)
(0.793617 1.21537 9.22082e-19)
(0.600734 0.903887 -1.97188e-21)
(1.11447 1.78463 -1.1378e-18)
(1.14179 1.88172 1.69851e-18)
(0.974301 1.70005 5.06049e-19)
(0.785902 1.28858 -5.12665e-19)
(0.635382 1.07436 0)
(2.44551 2.60674 -1.15431e-19)
(0.705138 1.14418 8.57199e-19)
(0.927713 0.889684 1.15614e-18)
(0.755242 0.81359 1.33769e-18)
(1.08306 0.746501 1.34111e-18)
(1.46686 1.04429 -2.2702e-18)
(1.3829 1.07118 1.83936e-18)
(1.00177 0.76549 -6.76727e-19)
(0.81701 0.567994 1.49459e-18)
(1.61548 0.490749 -7.78091e-19)
(1.55894 0.508322 0)
(1.23953 0.407331 4.60579e-21)
(2.50914 1.51587 7.75536e-19)
(2.07975 1.27012 -2.80851e-18)
(1.6866 1.18437 9.08693e-21)
(1.66066 1.09232 0)
(2.862 2.59507 8.73772e-19)
(3.44675 2.7529 1.03743e-18)
(3.25576 2.93079 -1.19591e-18)
(3.5542 2.76345 -4.28367e-19)
(3.48429 2.60375 -1.34886e-19)
(3.51246 2.79519 1.38778e-19)
(3.67421 2.26706 -1.67937e-18)
(3.70518 2.49211 4.00726e-19)
(3.78367 2.43589 0)
(3.78446 2.19165 -5.79685e-19)
(4.04896 1.07334 5.80542e-19)
(4.27597 0.993186 1.00212e-18)
(4.30041 0.966895 1.01164e-18)
(4.05502 1.32936 -1.14959e-18)
(4.10288 1.34979 0)
(4.15252 1.23375 0)
(3.32766 1.23573 -1.56066e-20)
(2.4177 0.666488 0)
(2.72183 0.744042 9.30627e-19)
(3.23824 0.885952 -2.64566e-20)
(3.77286 1.53468 5.1073e-18)
(3.56977 1.7619 1.31109e-18)
(3.48091 1.54048 -1.34062e-18)
(3.03731 1.36977 1.43739e-18)
(2.7606 1.36964 8.23739e-19)
(2.30652 1.15588 -7.97774e-19)
(3.67221 -0.0855427 1.98459e-18)
(3.8947 -0.0289322 0)
(3.85894 -0.0665486 1.34204e-18)
(3.74291 -0.0594083 -2.98769e-18)
(3.98056 0.0373779 1.46194e-18)
(3.90444 0.113427 -3.08288e-18)
(3.73986 0.128037 0)
(3.55625 0.173471 -6.28534e-19)
(3.81197 0.122981 1.60524e-18)
(3.69195 0.191385 -8.22541e-19)
(3.6003 0.171079 5.90703e-19)
(-0.0801405 2.59243 0)
(-0.0467062 3.39963 0)
(-0.0318821 2.46333 0)
(-0.0215584 1.97185 0)
(0.046343 3.94209 6.70679e-19)
(0.1402 3.72355 -1.72944e-19)
(0.317313 4.64484 -2.29745e-19)
(0.253076 4.46221 2.42643e-19)
(-0.0246802 4.2949 -4.97576e-19)
(0.0123225 4.32695 3.73638e-19)
(0.0959208 3.87086 2.227e-20)
(0.00999891 3.55832 -4.67106e-19)
(-0.0122514 3.31007 -6.22687e-20)
(-0.0390128 3.6723 -5.67422e-20)
(0.153329 4.4744 -5.86985e-19)
(0.178517 4.28781 0)
(0.275817 4.63475 2.96419e-19)
(0.269034 4.70949 2.52987e-19)
(0.595935 4.44418 -2.26025e-19)
(0.408085 3.77988 0)
(0.457231 3.62771 -1.11482e-18)
(0.559891 3.99658 7.8994e-19)
(0.48013 4.5617 -6.14807e-19)
(0.37053 4.432 3.30774e-19)
(0.299475 4.15351 0)
(-0.0341371 4.76176 -5.5327e-19)
(-0.0739466 4.52622 -6.41471e-19)
(-0.0750743 4.73947 0)
(-0.0283674 4.35914 -6.24782e-21)
(-0.0184346 4.64093 2.74274e-19)
(-0.117943 3.88289 4.47132e-20)
(-0.0548427 3.48754 -6.53887e-19)
(-0.0949538 3.92566 1.74205e-19)
(-0.134787 4.51852 2.32414e-19)
(-0.0754266 4.32893 0)
(-0.0591807 3.88766 0)
(-0.0818231 2.89938 2.00901e-19)
(-0.047128 3.63301 -6.26899e-20)
(-0.0722956 3.62049 0)
(-0.0879122 2.68839 1.58179e-19)
(-0.0461873 2.19479 -3.06482e-19)
(3.76103 0.0323492 0)
(3.7319 0.00775132 -2.03274e-19)
(4.1795 0.0679719 -1.43993e-18)
(4.08911 0.0463221 0)
(3.87634 0.0178328 0)
(4.14973 0.0370667 -1.25249e-20)
(4.1003 0.0349601 2.3789e-18)
(4.0001 0.0802227 2.84564e-18)
(3.75586 0.118678 0)
(3.55801 0.110063 0)
(4.01332 0.0939745 1.41746e-18)
(3.70324 0.11615 0)
(3.47209 0.128886 0)
(-0.0805905 4.69965 0)
(-0.106043 4.66816 1.06708e-20)
(-0.0764799 4.71978 6.29723e-20)
(-0.0602986 3.8333 0)
(-0.11167 4.53626 1.11261e-19)
(-0.0673763 4.24149 -6.33821e-20)
(-0.0535489 3.93062 0)
(1.4101 4.1855 0)
(1.20934 4.58049 -1.29804e-18)
(1.22465 4.48825 0)
(1.57394 4.48723 1.48442e-18)
(1.59329 4.12139 0)
(1.50166 4.37168 -6.06545e-19)
(1.01132 2.2424 -3.39458e-20)
(0.709062 1.64523 -1.74455e-18)
(0.590602 1.22737 2.12851e-18)
(0.708622 1.83475 3.96783e-19)
(0.974888 2.42387 0)
(1.03627 2.37896 0)
(0.718276 1.68714 0)
(0.532258 1.32997 -1.39512e-18)
(1.20857 3.77457 -9.83419e-19)
(1.12864 2.9886 -2.35486e-19)
(1.32674 3.40465 1.92587e-19)
(0.599167 2.0406 0)
(0.620117 1.94238 0)
(0.46216 1.57093 -3.92687e-19)
(0.957518 2.72014 0)
(2.68712 3.57099 0)
(2.38114 3.00847 -1.45454e-18)
(2.54579 3.02686 -8.58733e-20)
(2.41963 3.40427 0)
(2.28553 3.14927 2.22106e-18)
(3.27799 3.08682 -3.89693e-19)
(3.13406 3.32506 0)
(3.11645 3.15143 6.30433e-19)
(2.87042 3.41269 0)
(2.88191 3.20076 0)
(1.20911 2.00609 -9.30388e-19)
(1.41389 2.40308 -6.99503e-19)
(1.75338 2.98152 1.20596e-18)
(1.69556 2.95951 -3.62234e-19)
(1.06228 1.82202 0)
(1.2067 2.20823 4.71093e-19)
(0.718346 1.28856 -7.15174e-19)
(0.581562 1.04336 -5.60405e-22)
(1.93709 3.69548 0)
(2.19893 3.74285 -5.42595e-19)
(2.33816 3.98623 0)
(2.28408 0.529021 0)
(1.61735 0.341911 0)
(1.20902 0.276587 0)
(2.20912 0.554268 -1.46521e-18)
(1.63527 0.402198 8.17219e-19)
(2.14561 0.129125 -9.85137e-19)
(2.6266 0.297533 0)
(2.46566 0.301649 4.13476e-19)
(1.76987 0.13572 1.63295e-18)
(1.53026 0.0812685 -1.03701e-18)
(0.745497 1.55583 8.58009e-19)
(0.959715 1.82029 0)
(0.53762 1.43996 1.56081e-18)
(0.523811 1.61477 -1.42517e-18)
(0.757123 1.81441 -9.88304e-19)
(2.07326 2.46254 1.33765e-18)
(2.0966 2.71193 0)
(1.58338 1.67803 -2.76336e-19)
(2.00958 1.98936 1.745e-18)
(1.35978 1.29253 -4.23563e-19)
(1.58858 1.31338 4.50669e-19)
(2.10951 1.51318 1.02314e-18)
(2.44264 1.67093 0)
(2.27593 1.85604 0)
(2.00983 1.60597 0)
(3.9568 2.07991 3.84486e-19)
(3.7598 1.88979 -1.26351e-18)
(3.81721 2.02812 1.04673e-18)
(3.90106 1.77151 -1.00829e-18)
(4.15789 1.67393 0)
(4.11697 1.84113 -2.97825e-19)
(2.84043 1.16333 -1.89724e-18)
(2.9708 1.16344 -2.41293e-18)
(2.33194 1.04356 1.45638e-18)
(2.13823 0.934433 -1.41979e-18)
(2.46347 0.846177 -1.17808e-18)
(2.17854 0.776947 1.44879e-18)
(4.00845 0.0334776 -1.52885e-18)
(4.05276 0.0406919 3.13014e-18)
(3.76797 -0.0658792 1.90086e-18)
(3.79119 -0.0737698 -2.28672e-18)
(3.95955 0.0105766 0)
(4.05604 0.0228812 -3.72972e-18)
(0.0966436 4.76152 1.06549e-19)
(0.0674661 4.73214 0)
(0.189501 4.7315 9.53542e-19)
(0.211074 4.74925 -8.675e-19)
(0.230972 4.71903 4.28453e-19)
(0.121973 4.6591 0)
(-0.10063 4.77122 0)
(-0.106432 4.40436 -6.18493e-20)
(-0.105329 4.33353 5.54373e-20)
(-0.114058 4.48246 7.1829e-21)
(-0.104742 4.72139 -1.01165e-19)
(-0.081864 4.70902 5.50888e-20)
(1.87533 4.00956 -1.64321e-18)
(1.81629 4.01606 1.74014e-18)
(1.68398 4.40659 -8.54223e-19)
(1.69269 4.27729 7.61225e-20)
(2.25269 4.08662 0)
(1.85457 4.2202 -6.35466e-19)
(1.98181 3.96004 6.16309e-19)
(1.82387 4.38111 8.34418e-19)
(2.0766 4.21939 0)
(2.22805 4.10038 0)
(1.13813 3.63059 1.49497e-18)
(0.826463 2.81103 2.02317e-18)
(0.954176 2.98941 -1.3895e-18)
(0.746389 2.97104 -2.31881e-19)
(0.902236 3.73012 4.66281e-19)
(0.72194 3.36261 -1.13395e-18)
(0.745631 1.46552 -1.21468e-18)
(0.746109 1.31674 0)
(0.602461 1.11434 -1.33512e-18)
(1.11074 2.06371 0)
(1.08771 2.15065 0)
(1.35839 2.19067 -1.09051e-18)
(1.06432 2.01403 -1.03593e-18)
(1.01668 2.03492 1.09861e-18)
(1.03096 1.51907 0)
(1.41016 1.76163 -6.01184e-19)
(1.62706 2.11882 -8.55386e-19)
(1.4106 2.08243 0)
(0.867676 1.8183 7.12404e-19)
(0.779592 1.67938 0)
(2.90586 2.2888 -1.84701e-18)
(3.31877 2.47055 2.60922e-18)
(3.27747 2.19306 -2.5933e-18)
(2.61014 2.02077 -2.31171e-19)
(2.72474 1.94025 -9.74123e-19)
(1.26168 2.18955 7.96106e-19)
(1.31581 2.24437 -1.35981e-18)
(1.45384 2.32933 1.79265e-18)
(1.79003 2.55931 -1.16515e-18)
(1.8886 2.93201 -1.56711e-18)
(1.56288 2.48839 -1.18793e-19)
(1.63261 2.6279 1.37116e-18)
(1.8097 2.69278 9.66098e-20)
(2.01758 2.99849 6.49952e-19)
)
;

boundaryField
{
    wall-4
    {
        type            noSlip;
    }
    velocity-inlet-5
    {
        type            fixedValue;
        value           uniform (3 0 0);
    }
    velocity-inlet-6
    {
        type            fixedValue;
        value           uniform (0 1 0);
    }
    pressure-outlet-7
    {
        type            zeroGradient;
    }
    wall-8
    {
        type            noSlip;
    }
    frontAndBackPlanes
    {
        type            empty;
    }
}


// ************************************************************************* //
