/*--------------------------------*- C++ -*----------------------------------*\
  =========                 |
  \\      /  F ield         | OpenFOAM: The Open Source CFD Toolbox
   \\    /   O peration     | Website:  https://openfoam.org
    \\  /    A nd           | Version:  9
     \\/     M anipulation  |
\*---------------------------------------------------------------------------*/
FoamFile
{
    format      ascii;
    class       surfaceScalarField;
    location    "2.8";
    object      alphaPhi0.water;
}
// * * * * * * * * * * * * * * * * * * * * * * * * * * * * * * * * * * * * * //

dimensions      [0 3 -1 0 0 0 0];

internalField   nonuniform List<scalar> 
4432
(
8.18281e-07
-8.18281e-07
1.58662e-06
-7.68343e-07
2.22068e-06
-6.34062e-07
2.7466e-06
-5.25911e-07
3.19198e-06
-4.45379e-07
3.56641e-06
-3.74433e-07
3.87071e-06
-3.04295e-07
4.10416e-06
-2.33456e-07
4.26753e-06
-1.63362e-07
4.36362e-06
-9.60937e-08
4.39708e-06
-3.34542e-08
4.376e-06
2.10866e-08
4.31664e-06
5.93633e-08
4.24648e-06
7.01596e-08
4.20171e-06
4.47739e-08
4.21071e-06
-8.99602e-09
4.07198e-06
1.38726e-07
3.3024e-06
6.88807e-07
2.43461e-06
8.67496e-07
1.89613e-06
5.62309e-07
1.74031e-06
1.65805e-07
1.2315e-06
5.02004e-07
1.22986e-06
7.97029e-07
-1.61531e-06
1.47823e-06
-1.44954e-06
2.10355e-06
-1.25939e-06
2.67615e-06
-1.0985e-06
3.18328e-06
-9.52506e-07
3.617e-06
-8.08159e-07
3.97286e-06
-6.60155e-07
4.24903e-06
-5.09615e-07
4.44526e-06
-3.59589e-07
4.56298e-06
-2.13806e-07
4.60588e-06
-7.63555e-08
4.58048e-06
4.64847e-08
4.49694e-06
1.42901e-07
4.36846e-06
1.98645e-07
4.20661e-06
2.06622e-07
3.9966e-06
2.0102e-07
3.61334e-06
4.51528e-07
3.13891e-06
1.16294e-06
2.59411e-06
1.412e-06
2.05906e-06
1.13274e-06
1.58778e-06
6.47195e-07
1.08764e-06
1.00276e-06
2.32683e-06
7.69632e-07
-2.38494e-06
1.43707e-06
-2.11698e-06
2.06977e-06
-1.89208e-06
2.66782e-06
-1.69655e-06
3.20735e-06
-1.49204e-06
3.67273e-06
-1.27353e-06
4.056e-06
-1.04343e-06
4.35365e-06
-8.07267e-07
4.56427e-06
-5.70213e-07
4.68817e-06
-3.37707e-07
4.7278e-06
-1.1599e-07
4.68822e-06
8.6064e-08
4.57656e-06
2.54556e-07
4.39958e-06
3.75623e-07
4.15636e-06
4.49838e-07
3.82694e-06
5.30443e-07
3.37313e-06
8.45791e-07
2.9818e-06
1.55397e-06
2.54402e-06
1.84948e-06
2.06259e-06
1.61387e-06
1.51541e-06
1.23234e-06
9.16204e-07
1.60197e-06
3.24361e-06
7.33121e-07
-3.11807e-06
1.42008e-06
-2.80394e-06
2.0779e-06
-2.5499e-06
2.70135e-06
-2.31999e-06
3.2663e-06
-2.057e-06
3.75484e-06
-1.76207e-06
4.15723e-06
-1.44582e-06
4.46869e-06
-1.11873e-06
4.68667e-06
-7.88195e-07
4.81041e-06
-4.61456e-07
4.84151e-06
-1.4709e-07
4.78401e-06
1.43558e-07
4.64334e-06
3.95221e-07
4.42341e-06
5.9555e-07
4.12092e-06
7.52325e-07
3.72577e-06
9.25598e-07
3.27074e-06
1.28982e-06
2.8694e-06
1.9339e-06
2.49791e-06
2.26023e-06
2.06393e-06
2.11447e-06
1.43593e-06
1.86658e-06
7.82897e-07
2.25498e-06
4.02649e-06
7.05755e-07
-3.82382e-06
1.42521e-06
-3.52338e-06
2.11656e-06
-3.24126e-06
2.76683e-06
-2.97025e-06
3.35426e-06
-2.64443e-06
3.86135e-06
-2.26917e-06
4.27791e-06
-1.86239e-06
4.59847e-06
-1.43929e-06
4.81938e-06
-1.0091e-06
4.93885e-06
-5.80925e-07
4.95781e-06
-1.66055e-07
4.87989e-06
2.21479e-07
4.71003e-06
5.65081e-07
4.45221e-06
8.53376e-07
4.10606e-06
1.09847e-06
3.67381e-06
1.35776e-06
3.2087e-06
1.75498e-06
2.82187e-06
2.32113e-06
2.449e-06
2.64452e-06
1.97195e-06
2.59303e-06
1.33921e-06
2.49931e-06
6.647e-07
2.92947e-06
4.69099e-06
6.97521e-07
-4.52134e-06
1.45483e-06
-4.28069e-06
2.18097e-06
-3.9674e-06
2.85719e-06
-3.64647e-06
3.46432e-06
-3.25157e-06
3.9862e-06
-2.79104e-06
4.41302e-06
-2.28921e-06
4.73903e-06
-1.76529e-06
4.95954e-06
-1.2296e-06
5.07173e-06
-6.93117e-07
5.07612e-06
-1.70435e-07
4.97641e-06
3.21189e-07
4.77803e-06
7.63463e-07
4.48676e-06
1.14465e-06
4.10719e-06
1.47803e-06
3.65054e-06
1.81443e-06
3.17044e-06
2.23508e-06
2.75207e-06
2.7395e-06
2.35051e-06
3.04608e-06
1.86377e-06
3.07976e-06
1.24552e-06
3.11757e-06
5.63724e-07
3.61128e-06
5.25466e-06
7.12848e-07
-5.23419e-06
1.50815e-06
-5.07599e-06
2.26537e-06
-4.72463e-06
2.96414e-06
-4.34523e-06
3.58746e-06
-3.87488e-06
4.12038e-06
-3.32396e-06
4.55392e-06
-2.72275e-06
4.88233e-06
-2.0937e-06
5.09988e-06
-1.44715e-06
5.20276e-06
-7.95991e-07
5.19124e-06
-1.58919e-07
5.06956e-06
4.42873e-07
4.84417e-06
9.88846e-07
4.52345e-06
1.46537e-06
4.11683e-06
1.88465e-06
3.64101e-06
2.29025e-06
3.14459e-06
2.7315e-06
2.69267e-06
3.19142e-06
2.25792e-06
3.48083e-06
1.76732e-06
3.57036e-06
1.18157e-06
3.70333e-06
5.04325e-07
4.28852e-06
5.75937e-06
7.50224e-07
-5.98441e-06
1.57884e-06
-5.9046e-06
2.36011e-06
-5.5059e-06
3.07629e-06
-5.06141e-06
3.71164e-06
-4.51024e-06
4.25176e-06
-3.86408e-06
4.68868e-06
-3.15967e-06
5.01699e-06
-2.42201e-06
5.22985e-06
-1.66001e-06
5.32236e-06
-8.88504e-07
5.29491e-06
-1.3147e-07
5.15241e-06
5.85364e-07
4.90258e-06
1.23868e-06
4.55647e-06
1.81148e-06
4.12761e-06
2.3135e-06
3.63515e-06
2.78271e-06
3.1217e-06
3.24495e-06
2.63973e-06
3.67339e-06
2.17765e-06
3.9429e-06
1.69299e-06
4.05502e-06
1.16799e-06
4.22832e-06
6.17537e-07
4.83898e-06
6.37696e-06
8.96426e-07
-8.96431e-07
2.23761e-06
-1.34119e-06
2.9477e-06
-7.04646e-07
3.01578e-06
-6.35404e-08
2.76635e-06
2.52717e-07
2.38859e-06
3.80661e-07
1.52897e-06
8.64785e-07
-3.35176e-07
1.8604e-06
-2.47366e-06
2.1311e-06
-3.5354e-06
1.04034e-06
-3.5367e-06
5.67013e-08
-4.05891e-06
6.06948e-07
-4.60161e-06
5.42809e-07
-3.83588e-06
-7.65634e-07
-1.68045e-06
-2.15534e-06
5.00297e-07
-2.18068e-06
1.33195e-06
-8.44596e-07
7.14315e-07
6.17631e-07
7.1431e-07
1.47166e-06
-2.36809e-06
1.92349e-06
-1.79303e-06
1.91166e-06
-6.80946e-07
1.61131e-06
2.37481e-07
1.24171e-06
6.23127e-07
7.97117e-07
8.26639e-07
-9.41241e-08
1.75762e-06
-1.51281e-06
3.28442e-06
-2.8892e-06
3.5001e-06
-3.70532e-06
1.84378e-06
-3.98622e-06
3.93628e-07
-4.10172e-06
8.27471e-07
-4.05295e-06
4.94173e-07
-3.39489e-06
-1.42358e-06
-1.87324e-06
-3.68576e-06
-2.43746e-07
-3.80046e-06
5.7505e-07
-1.62448e-06
5.69908e-07
6.20541e-07
1.30261e-06
1.35999e-06
-3.75949e-06
1.33874e-06
-1.78311e-06
9.67872e-07
-3.0793e-07
4.93772e-07
7.11583e-07
5.01594e-08
1.06674e-06
-4.12898e-07
1.2897e-06
-1.22224e-06
2.56963e-06
-2.22734e-06
4.31754e-06
-3.11247e-06
4.3779e-06
-3.7708e-06
2.49411e-06
-4.05946e-06
7.38101e-07
-3.88953e-06
7.74904e-07
-3.66341e-06
2.68242e-07
-3.19958e-06
-1.96108e-06
-2.22621e-06
-4.78674e-06
-8.33684e-07
-5.14078e-06
9.80871e-08
-2.42277e-06
3.67682e-07
3.50186e-07
1.67262e-06
8.50979e-07
-4.61045e-06
5.40932e-07
-1.47304e-06
1.51489e-08
2.16824e-07
-5.37196e-07
1.26376e-06
-1.0029e-06
1.53245e-06
-1.42e-06
1.7068e-06
-2.07342e-06
3.22636e-06
-2.76227e-06
5.00706e-06
-3.31029e-06
4.94066e-06
-3.78668e-06
2.9672e-06
-3.99086e-06
9.80247e-07
-3.66375e-06
5.47916e-07
-3.3391e-06
-7.91309e-08
-3.05232e-06
-2.41104e-06
-2.58322e-06
-5.25615e-06
-1.42956e-06
-6.23537e-06
-2.39656e-07
-3.66889e-06
3.62081e-07
-2.37609e-07
2.03703e-06
9.96327e-08
-4.70791e-06
-3.62361e-07
-1.01103e-06
-9.37805e-07
7.92475e-07
-1.53052e-06
1.85671e-06
-1.99862e-06
2.00051e-06
-2.32309e-06
2.03126e-06
-2.77463e-06
3.6779e-06
-3.18154e-06
5.41399e-06
-3.45279e-06
5.21287e-06
-3.7251e-06
3.23976e-06
-3.789e-06
1.06371e-06
-3.4465e-06
2.25334e-07
-3.08125e-06
-4.79926e-07
-2.92085e-06
-2.57146e-06
-2.84943e-06
-5.32756e-06
-2.25085e-06
-6.92512e-06
-7.25551e-07
-5.3261e-06
4.74328e-07
-1.45799e-06
2.35935e-06
-6.71715e-07
-4.0372e-06
-1.27676e-06
-4.05934e-07
-1.87313e-06
1.38876e-06
-2.48324e-06
2.46673e-06
-2.9531e-06
2.47027e-06
-3.15138e-06
2.24316e-06
-3.33517e-06
3.66795e-06
-3.47353e-06
5.00055e-06
-3.50706e-06
4.94957e-06
-3.56156e-06
3.29452e-06
-3.46904e-06
9.71222e-07
-3.09124e-06
-1.5396e-07
-2.7395e-06
-8.31675e-07
-2.71465e-06
-2.59631e-06
-2.88593e-06
-5.15629e-06
-2.77582e-06
-7.03524e-06
-1.64022e-06
-6.46171e-06
-1.25094e-08
-3.19307e-06
2.33342e-06
-1.42475e-06
-2.61433e-06
-2.15241e-06
3.2164e-07
-2.7502e-06
1.98646e-06
-3.37026e-06
3.0867e-06
-3.85457e-06
2.95449e-06
-3.92768e-06
2.40867e-06
-3.64156e-06
3.403e-06
-3.2875e-06
4.64002e-06
-3.1115e-06
4.39949e-06
-3.06418e-06
2.65468e-06
-3.02125e-06
6.81315e-07
-2.65329e-06
-5.21928e-07
-2.35095e-06
-1.13402e-06
-2.38313e-06
-2.56414e-06
-2.67304e-06
-4.86637e-06
-2.8321e-06
-6.87619e-06
-2.49627e-06
-6.79754e-06
-1.0311e-06
-4.6816e-06
1.28882e-06
-2.10433e-06
-5.11773e-07
-2.93456e-06
1.15179e-06
-3.53539e-06
2.58721e-06
-4.15632e-06
3.70754e-06
-4.6369e-06
3.435e-06
-4.72545e-06
2.55779e-06
-4.01073e-06
3.29577e-06
-3.50733e-06
4.1301e-06
-2.97025e-06
3.85594e-06
-2.63474e-06
2.31147e-06
-2.54383e-06
3.33873e-07
-2.20464e-06
-8.61116e-07
-1.90345e-06
-1.43522e-06
-1.91344e-06
-2.55415e-06
-2.21773e-06
-4.56223e-06
-2.51843e-06
-6.57549e-06
-2.64682e-06
-6.66918e-06
-2.14449e-06
-5.16219e-06
-7.60911e-07
1.72325e-06
-7.70766e-06
3.58089e-06
-7.76219e-06
5.30865e-06
-7.23358e-06
6.87663e-06
-6.6293e-06
8.25529e-06
-5.88882e-06
9.41594e-06
-5.02465e-06
1.03468e-05
-4.09041e-06
1.10396e-05
-3.11477e-06
1.14751e-05
-2.09553e-06
1.16383e-05
-1.05166e-06
1.1532e-05
-2.51921e-08
1.11695e-05
9.4795e-07
1.05692e-05
1.83891e-06
9.76384e-06
2.61686e-06
8.79439e-06
3.28295e-06
7.70064e-06
3.87646e-06
6.55583e-06
4.38977e-06
5.44888e-06
4.78034e-06
4.39671e-06
4.99508e-06
3.40331e-06
5.04842e-06
2.57788e-06
5.05374e-06
2.28356e-06
5.1333e-06
5.17442e-06
3.4861e-06
1.763e-06
-9.47016e-06
3.61523e-06
-9.61379e-06
5.37329e-06
-8.99097e-06
6.96358e-06
-8.21894e-06
8.34306e-06
-7.26771e-06
9.49371e-06
-6.17484e-06
1.0412e-05
-5.00807e-06
1.10906e-05
-3.79261e-06
1.14985e-05
-2.47389e-06
1.16272e-05
-1.15487e-06
1.15054e-05
7.37481e-08
1.11387e-05
1.07849e-06
1.05092e-05
2.46834e-06
9.65591e-06
2.89848e-06
8.63038e-06
3.37933e-06
7.5011e-06
3.89649e-06
6.33019e-06
4.302e-06
5.17156e-06
4.56599e-06
4.03978e-06
4.66479e-06
2.96288e-06
4.59471e-06
2.02933e-06
4.4681e-06
1.17327e-06
4.55208e-06
4.78567e-06
1.69921e-07
9.79911e-07
-1.36591e-08
2.10798e-06
-2.56071e-06
3.25027e-06
-2.61901e-06
4.21459e-06
-2.45765e-06
4.99227e-06
-2.14979e-06
5.58149e-06
-1.78509e-06
5.95572e-06
-1.38387e-06
6.04897e-06
-9.78762e-07
5.91187e-06
-6.01007e-07
5.67418e-06
-1.06697e-08
5.3662e-06
1.9509e-08
4.92694e-06
8.61043e-08
4.46592e-06
1.0399e-07
3.98152e-06
1.0591e-07
3.46896e-06
6.93315e-08
2.93461e-06
3.90525e-08
2.47797e-06
5.67706e-08
2.0971e-06
1.6246e-07
1.729e-06
1.11899e-07
1.29536e-06
9.42925e-08
7.0437e-07
6.09962e-08
8.51804e-08
4.97832e-08
8.6631e-08
-4.73555e-07
-9.59099e-09
-1.28696e-08
1.95794e-08
-5.85433e-08
6.13772e-08
-1.99429e-08
8.09812e-08
-8.91268e-09
8.74606e-08
-9.7202e-09
7.76775e-08
-6.55043e-08
5.93792e-08
-4.63642e-08
3.75402e-08
-2.38537e-08
3.42288e-08
-2.17934e-08
3.23219e-08
-3.03056e-08
3.39395e-08
-3.46564e-09
4.26556e-08
0
5.32321e-08
0
5.8422e-08
0
4.36668e-08
3.97624e-08
5.51762e-08
0
6.17732e-08
1.57452e-10
6.04951e-08
0
3.99706e-08
0
2.43939e-08
0
4.57373e-09
0
-1.08757e-08
0
0
-1.70716e-08
1.29224e-10
-9.25736e-09
7.96382e-09
-4.88359e-08
5.99988e-09
-1.8047e-08
8.25154e-11
-3.06406e-09
-6.08722e-09
-3.61497e-09
-3.46742e-09
-6.82934e-08
5.71912e-09
-4.12581e-08
2.13352e-08
-3.64453e-08
5.81898e-08
-1.00735e-08
7.2677e-08
-3.22158e-08
6.35144e-08
-2.4659e-08
8.07384e-08
-1.06996e-09
8.24863e-08
6.33102e-09
9.61819e-08
1.90585e-08
7.38903e-08
2.25834e-08
2.23763e-07
0
2.27792e-07
2.11003e-08
1.54237e-07
1.60423e-08
6.70379e-08
3.03469e-08
6.07009e-08
3.82679e-08
2.33547e-09
2.20746e-08
-1.34535e-09
2.47281e-08
1.53163e-08
3.26986e-08
-7.31598e-09
-8.95702e-09
9.50408e-09
-1.30719e-07
6.95019e-09
-2.21833e-08
2.88871e-09
9.31745e-10
-2.59989e-09
2.78482e-09
2.61502e-08
-7.94795e-08
4.36936e-08
-9.63158e-08
7.82517e-08
-6.04947e-08
1.32491e-07
-3.74212e-08
1.32523e-07
-6.97785e-08
1.31645e-07
-2.08997e-08
1.38544e-07
-5.31032e-09
1.45601e-07
1.93301e-09
1.42602e-07
2.47164e-08
1.36137e-07
3.15771e-08
4.27461e-08
2.48249e-08
7.34647e-08
0
9.01556e-08
0
6.1287e-08
0
3.44935e-08
2.15598e-09
1.87338e-08
1.143e-08
2.90172e-08
3.30398e-08
1.17532e-08
3.37237e-08
-5.4008e-09
-1.99476e-08
-2.75519e-09
-1.30379e-07
6.49621e-09
-7.45453e-08
1.36929e-08
-1.75422e-08
1.69477e-08
7.74802e-10
8.20645e-08
-1.29861e-07
8.27179e-08
-8.55797e-08
7.81931e-08
-4.50883e-08
7.33809e-08
-2.05282e-08
6.12049e-08
-2.23226e-08
4.26507e-08
-3.52577e-09
3.79661e-08
0
2.8041e-08
0
1.38859e-08
0
1.42598e-08
0
1.46637e-08
0
8.51175e-09
0
5.63727e-09
0
2.2554e-09
0
1.74926e-09
1.88045e-09
8.13366e-09
4.14696e-09
2.81965e-08
5.74971e-09
0
1.26559e-08
2.61861e-08
-6.63508e-08
1.33613e-08
-1.14567e-07
1.50744e-08
-7.22814e-08
4.58228e-08
-4.31063e-08
8.39686e-08
-2.43e-08
7.87638e-08
-4.2941e-08
3.04586e-08
-5.74837e-10
1.15545e-08
-2.81429e-12
1.17311e-08
-1.35269e-14
7.3636e-09
-1.60229e-12
1.92531e-09
0
7.04819e-11
0
-3.66389e-10
0
-3.43964e-09
0
-3.98179e-09
1.22155e-09
-3.49518e-09
1.06763e-09
3.49082e-10
4.00517e-10
3.10963e-09
3.86805e-10
3.2186e-09
4.60685e-09
1.30126e-09
3.02367e-09
1.97248e-09
2.70161e-09
2.42599e-09
8.7615e-11
4.92798e-11
3.9471e-10
2.31372e-08
-4.30332e-12
7.94592e-09
-2.14259e-10
1.42536e-08
-6.04954e-12
1.55087e-08
-3.19059e-14
2.6914e-08
-6.08119e-14
5.7765e-10
-2.40497e-15
2.81623e-12
-3.37894e-15
7.74737e-15
-5.79675e-15
1.53282e-16
-4.41585e-15
-1.59923e-12
0
-2.02523e-12
0
0
0
-2.32604e-10
4.70041e-11
-1.06717e-09
0
-1.65869e-09
0
-4.69621e-09
4.81268e-12
-1.10888e-08
-1.26058e-10
-9.29947e-09
-5.27447e-11
-6.79277e-09
3.44583e-09
6.8264e-11
5.95448e-09
7.09955e-11
8.73086e-09
1.73313e-12
1.41906e-10
3.41616e-11
3.98106e-12
6.52352e-14
-9.11602e-13
6.23966e-13
-2.14457e-10
7.75879e-15
-5.42204e-12
4.47106e-16
-2.49403e-14
1.37629e-16
-6.05508e-14
-4.56277e-16
-1.86799e-15
-1.59479e-15
-2.27586e-15
-6.96246e-15
-4.88537e-16
-1.52511e-14
3.3111e-15
-1.10136e-11
1.35697e-12
-3.72867e-11
1.83072e-11
-5.60567e-11
1.3097e-11
-1.45497e-11
0
-5.54815e-12
3.73954e-12
-6.19242e-12
3.54455e-13
-1.35052e-12
0
-1.27151e-10
-5.57612e-14
-1.44808e-09
-2.54025e-12
-4.44241e-09
0
-5.06163e-09
0
-1.11825e-10
1.3186e-09
-3.28502e-12
1.97033e-11
2.40887e-11
-7.1518e-12
-1.51824e-11
-1.0732e-13
-7.34222e-13
-7.58897e-14
-6.23576e-13
-4.86381e-13
-6.91695e-14
-7.14643e-13
-2.48696e-15
-3.35818e-13
-3.13952e-15
-1.24616e-15
-3.1002e-15
-5.93882e-16
-4.57989e-16
6.63905e-17
-7.30064e-15
9.47067e-15
-2.52881e-11
1.59721e-12
-6.06094e-11
9.07064e-12
-6.95018e-11
1.6111e-11
-4.38426e-12
3.33379e-12
-6.17287e-13
1.76889e-15
-3.24049e-13
7.83174e-14
-2.86844e-13
0
-1.09392e-13
-2.70694e-14
-2.67898e-12
2.21243e-16
-2.22893e-11
8.12438e-14
-2.15974e-10
2.75591e-13
-2.99197e-11
0
-5.04851e-11
9.2847e-11
8.71767e-11
-4.74683e-11
-1.96798e-14
-1.64571e-13
-1.34643e-13
-3.93166e-14
-6.78469e-13
-1.27687e-13
-7.10491e-13
0
-1.16519e-14
-6.33744e-14
-6.66214e-15
-6.29149e-15
-5.26557e-15
-2.09812e-16
-3.9474e-16
6.59825e-16
0
3.64574e-15
-8.90961e-12
2.48924e-15
-2.23703e-11
0
-1.72438e-11
0
-7.19637e-12
0
-5.67372e-12
4.21103e-13
-4.83882e-12
1.41755e-13
-1.8221e-12
8.20033e-14
-4.3903e-14
-5.77304e-18
-4.39183e-14
1.05828e-17
-4.05972e-14
1.03582e-16
-2.22914e-13
9.20349e-16
-6.53264e-11
0
-9.54399e-11
4.31145e-11
7.44086e-11
-8.25297e-11
-1.55457e-14
-1.37252e-14
-3.69024e-14
-6.00623e-14
-7.65059e-14
0
-6.9444e-14
0
-5.47882e-14
-2.66724e-14
-1.00394e-14
-2.0764e-16
-1.15773e-14
3.37751e-16
-1.61402e-14
1.92885e-15
-8.97925e-14
4.1885e-15
-2.84546e-13
0
-2.96889e-13
0
-1.542e-13
0
-1.60527e-13
4.24275e-16
-1.2637e-13
0
-4.82491e-14
0
-8.8082e-16
0
-9.14951e-16
-1.16003e-17
-9.70769e-16
1.25181e-17
-2.42242e-15
5.53784e-17
-2.30398e-14
6.19845e-16
-1.53085e-11
0
-4.12029e-11
0
5.22925e-14
-2.07073e-11
-2.57191e-14
-8.58305e-15
-3.46941e-13
-3.67766e-14
-1.42311e-12
-4.21738e-13
-9.98252e-13
-6.33877e-13
-1.2743e-14
-5.98043e-15
-1.33874e-14
1.03485e-16
-1.85654e-14
1.20478e-15
-1.93959e-14
2.54179e-15
-2.26141e-14
2.92363e-15
-9.10705e-14
3.81438e-15
-1.75819e-13
9.64863e-15
-1.79207e-13
1.54524e-14
-4.24481e-14
1.06231e-14
-8.28614e-15
3.22396e-16
-8.68407e-15
3.68109e-17
-7.19156e-15
3.15117e-17
-1.9671e-15
-3.69332e-18
-8.33674e-16
1.12015e-17
-9.53902e-16
3.01691e-17
-2.08025e-14
2.54066e-16
-1.24387e-13
0
-1.79731e-13
0
1.21162e-16
-1.39324e-13
-2.53879e-14
-2.29001e-15
-9.59986e-13
-6.55438e-14
-5.61765e-12
-1.99287e-13
-4.76363e-12
1.35097e-13
-1.04261e-14
2.55801e-13
-1.097e-14
3.75465e-16
-1.72715e-14
1.20322e-15
-1.79133e-14
2.69352e-15
-1.86061e-14
2.86882e-15
-3.4573e-14
2.20061e-15
-4.88618e-14
2.05596e-15
-4.26995e-14
1.59072e-15
-7.78433e-15
7.77253e-16
-8.57031e-16
6.7837e-17
-1.03614e-15
1.32634e-17
-6.18666e-16
2.28174e-18
-2.99082e-16
9.17994e-20
-3.75625e-16
-1.56572e-19
-6.07186e-16
6.90606e-18
-6.41371e-16
1.1346e-17
-1.12825e-15
2.29758e-17
-2.05318e-15
1.58779e-16
5.46337e-16
-3.40843e-15
-1.66982e-14
2.43042e-15
-2.00619e-12
1.10853e-13
-6.12557e-12
9.44762e-13
-5.77536e-12
1.39304e-12
-6.06241e-15
1.3358e-12
-6.53498e-15
6.0381e-16
-1.02019e-14
8.34958e-16
-1.05599e-14
1.45421e-15
-7.64028e-15
1.43723e-15
-6.66429e-15
5.2563e-16
-6.06931e-15
2.18319e-16
-3.74055e-15
1.14929e-16
-5.5088e-16
3.08114e-17
-4.90023e-18
1.6491e-17
8.36281e-18
5.84055e-21
7.83128e-18
3.77693e-19
-3.71534e-19
1.07046e-18
-4.60633e-18
9.25536e-19
-3.90466e-17
3.6595e-20
-8.67723e-17
2.50345e-18
-3.74719e-16
1.37697e-17
-2.34216e-15
8.72572e-17
5.24659e-16
-4.66927e-15
-1.04613e-14
5.34593e-15
-1.32294e-12
7.57528e-14
-5.63786e-12
1.04464e-12
-5.22734e-12
2.59039e-12
-2.80314e-15
1.19915e-12
-3.26645e-15
8.13828e-16
-3.52988e-15
8.54379e-16
-3.72804e-15
5.47224e-16
-1.73904e-15
4.96876e-16
-7.62679e-16
9.02121e-17
-5.41538e-16
1.54885e-17
-2.5983e-16
6.02069e-18
1.86975e-18
1.4529e-17
3.32803e-17
-8.87025e-20
4.17427e-17
-2.94255e-19
4.27852e-17
1.37387e-18
4.14697e-17
2.43694e-18
3.51599e-17
2.33619e-18
2.28331e-17
1.40714e-18
9.95516e-19
2.88778e-19
-4.96821e-17
-2.04173e-20
-1.97067e-16
2.54803e-18
1.53198e-17
-1.895e-15
-9.28175e-15
7.03003e-15
-6.83559e-14
1.8219e-15
-2.5225e-12
0
-3.38057e-12
4.82146e-13
-2.84611e-14
0
-2.90015e-14
1.11027e-15
-1.89761e-15
7.85926e-15
-1.51682e-15
4.74913e-16
-4.58686e-16
3.178e-16
-4.40198e-17
6.15336e-17
-1.55902e-17
3.18032e-18
1.68931e-18
1.30098e-18
3.07376e-17
-1.49982e-19
5.04094e-17
-1.23246e-18
5.6213e-17
1.7151e-19
5.45851e-17
2.08282e-18
4.85252e-17
3.24298e-18
3.96648e-17
3.33469e-18
2.95657e-17
2.60888e-18
1.939e-17
1.58563e-18
7.7254e-18
7.09248e-19
-1.52329e-17
1.68251e-19
1.301e-19
-9.25856e-17
-7.13454e-16
3.36597e-14
-1.82619e-15
3.39495e-15
-5.35565e-14
1.53596e-14
-8.86924e-15
0
-2.25964e-14
0
-3.59088e-14
1.66916e-14
-1.3949e-15
1.83855e-14
-1.28065e-15
6.19429e-16
-3.81395e-16
3.00978e-16
-2.96505e-17
6.37556e-17
3.04094e-18
3.03331e-18
1.43196e-17
-4.72042e-19
3.02849e-17
-1.32794e-18
4.17016e-17
-1.02728e-18
4.56283e-17
5.46068e-19
4.45406e-17
2.11036e-18
3.96489e-17
3.1928e-18
3.24512e-17
3.45233e-18
2.45357e-17
3.00859e-18
1.72262e-17
2.22061e-18
1.13237e-17
1.43015e-18
6.96287e-18
8.26693e-19
4.50066e-19
3.1534e-18
-3.74601e-16
1.55219e-13
-6.71621e-16
4.94339e-15
-1.11954e-15
1.74062e-14
-1.12615e-15
2.16245e-15
-5.6145e-15
1.67329e-15
-1.58072e-14
3.54945e-15
-2.12665e-15
6.25823e-15
-9.33637e-16
6.59697e-16
-3.51639e-16
2.87705e-16
-7.5143e-17
9.21982e-17
-1.14637e-17
1.81128e-17
6.46319e-18
1.59783e-18
1.60915e-17
-6.68624e-19
2.37974e-17
-4.59046e-19
2.76536e-17
4.61032e-19
2.79017e-17
1.5635e-18
2.53145e-17
2.45476e-18
2.0989e-17
2.79233e-18
1.60579e-17
2.59617e-18
1.1416e-17
2.08709e-18
7.6135e-18
1.5013e-18
4.9098e-18
9.91594e-19
6.26048e-19
3.16121e-18
-1.22895e-13
1.86083e-13
-2.77769e-13
3.11512e-12
-3.8962e-16
8.32803e-12
-4.77465e-16
1.21392e-15
-7.32652e-16
9.0332e-16
-1.6177e-15
9.43976e-16
-1.1229e-15
5.18135e-16
-5.5438e-16
6.57974e-16
-3.17051e-16
2.56155e-16
-1.52951e-16
1.33971e-16
-5.5352e-17
5.32623e-17
-8.35233e-18
1.32069e-17
2.96325e-18
1.17673e-18
9.08951e-18
-7.04015e-20
1.25461e-17
1.7797e-19
1.35673e-17
8.49594e-19
1.27329e-17
1.50504e-18
1.07537e-17
1.82983e-18
8.32706e-18
1.79092e-18
5.97564e-18
1.51388e-18
4.00531e-18
1.14943e-18
2.57443e-18
8.03202e-19
5.30547e-19
1.75291e-18
0
1.23118e-13
-1.03719e-12
3.76887e-12
-2.62509e-12
1.40201e-11
-6.21791e-13
1.2426e-11
-7.15823e-16
2.38143e-13
-2.9524e-16
5.21809e-16
-3.6311e-16
4.46586e-16
-3.05599e-16
3.91019e-16
-2.37375e-16
2.56167e-16
-1.70879e-16
1.64147e-16
-9.85936e-17
8.68382e-17
-3.38449e-17
3.16181e-17
-3.686e-18
5.28468e-18
1.7941e-18
6.3574e-20
3.98848e-18
-7.74555e-21
4.94965e-18
3.28009e-19
4.90754e-18
7.53336e-19
4.24131e-18
1.00146e-18
3.31291e-18
1.02693e-18
2.38108e-18
8.96784e-19
1.58887e-18
7.0043e-19
9.99716e-19
5.03141e-19
3.38538e-19
6.94197e-19
0
8.73269e-14
-6.86758e-13
2.41356e-12
-1.25856e-12
1.47673e-11
-1.16652e-12
1.25253e-11
-1.45671e-16
2.08288e-12
-1.59627e-16
5.34746e-16
-1.59595e-16
4.45582e-16
-1.6027e-16
3.76525e-16
-1.43741e-16
2.79993e-16
-1.16943e-16
1.86084e-16
-7.92322e-17
1.02993e-16
-3.70074e-17
4.13596e-17
-7.26597e-18
8.65767e-18
-7.04732e-19
1.00737e-19
7.58615e-19
-7.89362e-20
1.22764e-18
9.58393e-20
1.31377e-18
3.26616e-19
1.15933e-18
4.76476e-19
9.00942e-19
5.07244e-19
6.33583e-19
4.50676e-19
4.07516e-19
3.55196e-19
2.40301e-19
2.56879e-19
1.73818e-19
1.56433e-19
1.38226e-14
7.69138e-14
3.83387e-14
5.31527e-13
1.53188e-13
1.48439e-11
-2.35209e-14
1.28933e-11
-2.08742e-17
1.98541e-12
-3.13894e-17
5.44292e-16
-3.86211e-17
4.51768e-16
-4.16944e-17
3.96288e-16
-3.89859e-17
3.03067e-16
-3.17458e-17
1.96029e-16
-2.17357e-17
1.06094e-16
-1.0885e-17
4.24271e-17
-2.74458e-18
9.0817e-18
-1.93175e-19
6.59395e-20
4.71867e-20
-8.1065e-20
1.10332e-19
2.34271e-20
1.22346e-19
1.3606e-19
1.01076e-19
2.08098e-19
6.64166e-20
2.23767e-19
3.27527e-20
1.98171e-19
7.31831e-21
1.5458e-19
-1.20627e-20
1.10288e-19
7.36391e-20
-2.34246e-20
8.11665e-15
7.22147e-14
4.74646e-13
6.84101e-14
1.26026e-12
6.80446e-12
3.40454e-13
3.32068e-12
0
4.21165e-13
0
2.59203e-15
7.15836e-17
5.06542e-16
7.64091e-17
4.20139e-16
6.68642e-17
3.05783e-16
5.42148e-17
1.96102e-16
3.84223e-17
1.05663e-16
2.06286e-17
4.09695e-17
6.40344e-18
8.12917e-18
6.56223e-19
5.49431e-20
1.36938e-19
-3.08585e-20
-2.29308e-20
1.71769e-20
-9.74928e-20
6.03579e-20
-1.25532e-19
8.68565e-20
-1.24009e-19
9.02672e-20
-1.0747e-19
7.7504e-20
-8.60441e-20
5.84847e-20
-6.53092e-20
4.02612e-20
2.59277e-20
-4.76303e-20
1.06394e-14
6.50951e-14
4.12716e-14
7.27614e-14
3.44915e-13
0
3.44007e-14
0
0
2.16172e-16
1.52104e-16
1.51024e-15
1.76571e-16
5.7049e-16
1.69495e-16
4.1696e-16
1.52214e-16
2.90836e-16
1.20503e-16
1.80518e-16
7.73734e-17
8.76502e-17
3.39069e-17
2.7401e-17
7.31734e-18
3.67124e-18
4.20181e-19
2.01116e-20
7.72379e-20
-2.49526e-21
-3.77591e-20
1.12807e-20
-9.50914e-20
2.62894e-20
-1.1171e-19
3.39992e-20
-1.02307e-19
3.31385e-20
-8.16017e-20
2.69592e-20
-5.95174e-20
1.92805e-20
-4.0857e-20
1.25444e-20
7.61923e-21
-2.69096e-20
5.952e-15
5.63583e-14
1.15559e-14
7.63877e-14
4.04622e-15
1.39739e-15
5.028e-16
2.1527e-16
2.49695e-16
5.13609e-16
2.84515e-16
5.57511e-16
2.42292e-16
4.78931e-16
2.28583e-16
3.57958e-16
1.96709e-16
2.4327e-16
1.40949e-16
1.36323e-16
7.28681e-17
5.35695e-17
2.11003e-17
1.11988e-17
2.20172e-18
7.36354e-19
4.16465e-20
2.02518e-21
6.61781e-21
8.41798e-22
-3.68406e-20
5.96738e-21
-6.07468e-20
1.05272e-20
-6.32707e-20
1.21317e-20
-5.34722e-20
1.09241e-20
-3.96352e-20
8.28377e-21
-2.67887e-20
5.5211e-21
-1.69503e-20
3.33429e-21
1.87088e-21
-1.02505e-20
4.51344e-15
3.20675e-14
1.24683e-14
7.33129e-14
7.79993e-16
1.21107e-14
2.17541e-16
1.13829e-15
2.40542e-16
5.84073e-16
2.57707e-16
4.6388e-16
2.62761e-16
3.76684e-16
2.37932e-16
2.78003e-16
1.8322e-16
1.71078e-16
1.0547e-16
7.70946e-17
3.61317e-17
2.01763e-17
5.06953e-18
2.07535e-18
1.7329e-19
4.62893e-20
3.38582e-20
4.02395e-23
-7.10622e-21
7.64463e-22
-2.52136e-20
2.52956e-21
-3.10427e-20
3.7477e-21
-2.84982e-20
3.87613e-21
-2.20078e-20
3.19453e-21
-1.50242e-20
2.22963e-21
-9.33856e-21
1.36656e-21
-5.40549e-21
7.55203e-22
3.84917e-22
-2.97295e-21
1.87402e-15
7.51267e-15
6.97077e-15
2.10842e-14
9.06699e-16
8.04654e-15
2.40056e-16
1.13875e-15
2.45448e-16
5.49142e-16
2.52665e-16
4.10242e-16
2.40408e-16
3.00897e-16
1.94017e-16
1.91058e-16
1.18208e-16
9.12656e-17
4.43191e-17
2.64023e-17
7.29761e-18
3.28865e-18
3.41889e-19
1.14001e-19
2.88617e-21
6.34941e-22
6.89494e-22
1.95369e-23
-8.11929e-21
3.63319e-22
-1.28973e-20
9.1757e-22
-1.31305e-20
1.18002e-21
-1.07069e-20
1.09498e-21
-7.4994e-21
8.19087e-22
-4.66985e-21
5.20806e-22
-2.64403e-21
2.90565e-22
-1.38639e-21
1.45506e-22
6.66575e-23
-6.85197e-22
2.91107e-16
6.26107e-16
1.32137e-15
1.3652e-15
5.26506e-16
1.21093e-15
2.32366e-16
6.40283e-16
2.27253e-16
4.36808e-16
2.20502e-16
3.13532e-16
1.80305e-16
1.97227e-16
1.10759e-16
9.36577e-17
4.23552e-17
2.73319e-17
7.402e-18
3.58707e-18
4.05636e-19
1.4664e-19
5.1289e-21
1.36652e-21
1.32941e-21
1.91869e-22
-2.12943e-21
-6.97345e-23
-4.69464e-21
1.31233e-22
-5.40534e-21
2.87138e-22
-4.69605e-21
3.25664e-22
-3.40063e-21
2.70202e-22
-2.14451e-21
1.81953e-22
-1.20751e-21
1.04447e-22
-6.17704e-22
5.26103e-23
-2.9122e-22
2.37195e-23
9.72207e-24
-1.28306e-22
3.36868e-17
1.22107e-16
1.14699e-16
1.91123e-16
1.70488e-16
2.48201e-16
1.77392e-16
2.93259e-16
1.76552e-16
2.58474e-16
1.44682e-16
1.67256e-16
8.65569e-17
7.7198e-17
3.19393e-17
2.14336e-17
5.51262e-18
2.73006e-18
3.20669e-19
1.17386e-19
5.01504e-21
1.42687e-21
1.46734e-21
4.25523e-24
-2.79646e-22
-3.91205e-23
-1.47673e-21
-5.46076e-23
-2.01586e-21
3.9413e-23
-1.89328e-21
7.77491e-23
-1.42469e-21
7.80089e-23
-9.13295e-22
5.75302e-23
-5.14691e-22
3.45762e-23
-2.59972e-22
1.77588e-23
-1.19326e-22
8.01172e-24
-5.03282e-23
3.23305e-24
1.18266e-24
-1.97067e-23
1.20253e-17
5.3501e-17
4.27477e-17
9.54044e-17
7.43883e-17
1.14155e-16
9.64463e-17
1.1917e-16
8.90493e-17
8.96745e-17
5.17831e-17
4.22244e-17
1.77793e-17
1.10044e-17
2.88702e-18
1.30828e-18
1.7006e-19
5.66819e-20
3.20765e-21
8.45368e-22
2.03446e-23
4.5531e-24
1.03863e-23
2.53635e-24
-3.73597e-22
-5.1772e-23
-6.7496e-22
-2.77703e-23
-7.06226e-22
1.00232e-23
-5.58989e-22
1.81324e-23
-3.65342e-22
1.60507e-23
-2.06191e-22
1.04397e-23
-1.03027e-22
5.54644e-24
-4.63062e-23
2.52369e-24
-1.89365e-23
1.01014e-24
-7.11001e-24
3.61891e-25
1.17468e-25
-2.47031e-24
4.73348e-18
1.59461e-17
1.93587e-17
3.85482e-17
2.894e-17
3.63793e-17
3.01617e-17
2.50703e-17
1.87782e-17
1.14744e-17
6.30183e-18
2.89159e-18
9.6913e-19
3.33631e-19
5.78097e-20
1.5163e-20
1.3428e-21
2.89413e-22
1.41691e-23
2.77369e-24
7.24228e-24
2.53331e-24
-7.51729e-23
-1.81119e-23
-1.91061e-22
-2.67114e-23
-2.41621e-22
-1.10116e-23
-2.06095e-22
2.15866e-24
-1.3891e-22
3.61672e-24
-7.86411e-23
2.80837e-24
-3.87936e-23
1.59576e-24
-1.70356e-23
7.41245e-25
-6.75111e-24
2.95386e-25
-2.43828e-24
1.03707e-25
-8.08821e-25
3.26216e-26
9.30042e-27
-2.4804e-25
8.82848e-19
1.179e-18
4.50739e-18
4.57004e-18
5.25944e-18
3.19847e-18
3.24382e-18
1.33716e-18
1.0959e-18
3.11137e-19
1.74871e-19
3.67851e-20
1.18245e-20
2.02955e-21
3.72173e-22
5.90222e-23
6.24999e-24
1.00113e-24
3.33966e-24
1.5318e-24
-1.17446e-23
-4.07038e-24
-4.45319e-23
-1.07809e-23
-7.09838e-23
-1.02011e-23
-7.08849e-23
-3.60653e-24
-5.03475e-23
3.89293e-25
-2.89242e-23
6.12504e-25
-1.40993e-23
4.14292e-25
-6.025e-24
2.0339e-25
-2.30146e-24
8.15418e-26
-7.95528e-25
2.80746e-26
-2.50981e-25
8.52731e-27
-7.27603e-26
2.32253e-27
5.73464e-28
-1.94949e-26
4.12224e-20
1.1463e-20
3.21096e-19
7.96347e-20
2.45334e-19
4.51725e-20
8.52698e-20
1.23142e-20
1.4921e-20
1.72375e-21
1.35584e-21
1.39817e-22
6.84852e-23
7.41108e-24
1.88475e-24
2.32367e-25
1.03142e-24
5.88668e-25
-1.27703e-24
-5.82369e-25
-8.30285e-24
-2.89973e-24
-1.73889e-23
-4.31226e-24
-2.1143e-23
-3.19317e-24
-1.73287e-23
-1.00615e-24
-1.03089e-23
5.71909e-26
-5.02674e-24
8.75374e-26
-2.09177e-24
5.12452e-26
-7.65863e-25
2.14626e-26
-2.51348e-25
7.3127e-27
-7.47891e-26
2.13972e-27
-2.03298e-26
5.5281e-28
-5.07797e-27
1.28121e-28
2.69082e-29
-1.17148e-27
3.88968e-22
2.11565e-23
4.62385e-21
2.23688e-22
2.81888e-21
1.36549e-22
6.94355e-22
3.86054e-23
9.47358e-23
6.03229e-24
8.02443e-24
5.94752e-25
3.72842e-25
3.29263e-26
2.12471e-25
7.49343e-28
-5.81046e-26
-3.29703e-26
-1.18529e-24
-5.45482e-25
-3.44793e-24
-1.23529e-24
-5.3026e-24
-1.37655e-24
-5.21853e-24
-8.51315e-25
-3.56398e-24
-2.44911e-25
-1.77414e-24
6.37478e-27
-7.28678e-25
1.05182e-26
-2.55991e-25
5.31266e-27
-7.9227e-26
1.87137e-27
-2.20005e-26
5.31742e-28
-5.54246e-27
1.29551e-28
-1.27543e-27
2.78665e-29
-2.69445e-28
5.37354e-30
9.37524e-31
-5.24957e-29
1.67408e-24
3.66548e-26
2.41932e-23
4.70856e-25
1.70182e-23
3.8676e-25
4.37946e-24
1.48671e-25
5.98163e-25
2.75009e-26
4.37718e-26
2.62324e-27
1.23542e-27
2.1099e-26
8.76681e-28
5.92278e-28
-1.25092e-25
-7.14287e-26
-5.32665e-25
-2.5115e-25
-1.08528e-24
-4.06508e-25
-1.33174e-24
-3.70858e-25
-1.0882e-24
-1.98227e-25
-6.23388e-25
-5.32019e-26
-2.58739e-25
3.96724e-28
-8.85889e-26
1.06039e-27
-2.59106e-26
4.64889e-28
-6.66605e-27
1.3559e-28
-1.53616e-27
3.13791e-29
-3.20662e-28
6.20305e-30
-6.10227e-29
1.08037e-30
-1.06344e-29
1.68124e-31
2.35704e-32
-1.70454e-30
5.95365e-27
4.71131e-29
1.09482e-25
1.08043e-27
9.66953e-26
1.20887e-27
2.60085e-26
5.64749e-28
2.70887e-27
9.74564e-29
1.91442e-27
1.67375e-27
-8.73586e-28
-6.73552e-28
-1.29424e-26
-8.725e-27
-6.38204e-26
-3.70955e-26
-1.75189e-25
-8.58775e-26
-2.79362e-25
-1.11515e-25
-2.8381e-25
-8.70137e-26
-1.95308e-25
-4.12284e-26
-9.42575e-26
-1.05383e-26
-3.25454e-26
-2.91232e-28
-9.16565e-27
8.882e-29
-2.19353e-27
3.48909e-29
-4.59348e-28
8.29707e-30
-8.56482e-29
1.51707e-30
-1.43898e-29
2.35339e-31
-2.19231e-30
3.19606e-32
-3.04209e-31
3.84134e-33
4.11647e-34
-3.86368e-32
1.27632e-29
7.83832e-30
3.46094e-28
5.35364e-28
3.98591e-28
7.66429e-28
1.03593e-28
3.70384e-28
7.44595e-29
6.827e-29
-1.57045e-27
-1.31851e-27
-3.4978e-27
-2.65401e-27
-8.00894e-27
-5.4305e-27
-2.25988e-26
-1.35013e-26
-4.66758e-26
-2.40871e-26
-6.12073e-26
-2.64846e-26
-5.26458e-26
-1.82088e-26
-3.08621e-26
-7.82855e-27
-1.26221e-26
-1.94248e-27
-3.6451e-27
-1.6304e-28
-8.27964e-28
5.76958e-30
-1.5877e-28
2.30354e-30
-2.63505e-29
4.42574e-31
-3.84087e-30
6.12854e-32
-4.98486e-31
7.11089e-33
-5.79992e-32
7.10279e-34