/*--------------------------------*- C++ -*----------------------------------*\
  =========                 |
  \\      /  F ield         | OpenFOAM: The Open Source CFD Toolbox
   \\    /   O peration     | Website:  https://openfoam.org
    \\  /    A nd           | Version:  9
     \\/     M anipulation  |
\*---------------------------------------------------------------------------*/
FoamFile
{
    format      ascii;
    class       surfaceScalarField;
    location    "0.4";
    object      phi;
}
// * * * * * * * * * * * * * * * * * * * * * * * * * * * * * * * * * * * * * //

dimensions      [0 3 -1 0 0 0 0];

internalField   nonuniform List<scalar> 
4432
(
-5.50491e-06
5.50491e-06
-6.87847e-06
1.37356e-06
-4.69612e-06
-2.18235e-06
-9.99815e-07
-3.6963e-06
3.19886e-06
-4.19868e-06
7.52409e-06
-4.32523e-06
1.17831e-05
-4.25901e-06
1.58954e-05
-4.11227e-06
1.98201e-05
-3.92473e-06
2.35198e-05
-3.69968e-06
2.6946e-05
-3.42624e-06
3.00304e-05
-3.08433e-06
3.26732e-05
-2.64284e-06
3.47202e-05
-2.04703e-06
3.59304e-05
-1.21014e-06
3.57979e-05
1.32472e-07
3.35512e-05
2.24673e-06
2.86076e-05
4.94357e-06
2.04515e-05
8.15612e-06
9.31109e-06
1.11404e-05
-3.8854e-06
1.31965e-05
-1.1644e-05
7.75859e-06
-1.1644e-05
-3.74956e-06
9.25447e-06
-3.06837e-06
6.92368e-07
-4.94097e-07
-4.75663e-06
3.02031e-06
-7.21071e-06
7.001e-06
-8.17937e-06
1.10881e-05
-8.41233e-06
1.51251e-05
-8.29602e-06
1.90333e-05
-8.02043e-06
2.27635e-05
-7.65493e-06
2.6272e-05
-7.20826e-06
2.9507e-05
-6.66121e-06
3.23986e-05
-5.9759e-06
3.48495e-05
-5.09379e-06
3.67251e-05
-3.9226e-06
3.78418e-05
-2.32686e-06
3.8016e-05
-4.17601e-08
3.70143e-05
3.24852e-06
3.41642e-05
7.79367e-06
2.86604e-05
1.36599e-05
1.98495e-05
1.99513e-05
8.42826e-06
2.46177e-05
-5.43824e-07
1.67307e-05
-1.21878e-05
-1.66626e-06
1.09207e-05
-2.02047e-07
-7.71851e-07
2.46394e-06
-7.42262e-06
5.90227e-06
-1.0649e-05
9.66928e-06
-1.19464e-05
1.35118e-05
-1.22549e-05
1.73025e-05
-1.20867e-05
2.09728e-05
-1.16907e-05
2.44757e-05
-1.11578e-05
2.77665e-05
-1.04991e-05
3.07926e-05
-9.68731e-06
3.34856e-05
-8.6689e-06
3.57541e-05
-7.36229e-06
3.7477e-05
-5.64545e-06
3.84916e-05
-3.34152e-06
3.86375e-05
-1.87649e-07
3.77262e-05
4.15982e-06
3.54747e-05
1.00452e-05
3.14973e-05
1.76372e-05
2.53158e-05
2.61328e-05
1.69169e-05
3.30167e-05
7.34455e-06
2.6303e-05
-4.84326e-06
1.76438e-07
1.07443e-05
2.09606e-06
-2.69147e-06
4.9832e-06
-1.03098e-05
8.37296e-06
-1.40388e-05
1.19624e-05
-1.55358e-05
1.55739e-05
-1.58664e-05
1.91196e-05
-1.56324e-05
2.25497e-05
-1.51208e-05
2.58241e-05
-1.44321e-05
2.88997e-05
-1.35748e-05
3.17247e-05
-1.25123e-05
3.42332e-05
-1.11774e-05
3.63409e-05
-9.46998e-06
3.79401e-05
-7.24466e-06
3.88969e-05
-4.29829e-06
3.90696e-05
-3.60435e-07
3.83186e-05
4.91089e-06
3.64998e-05
1.1864e-05
3.34486e-05
2.06885e-05
2.88675e-05
3.07139e-05
2.23756e-05
3.95086e-05
1.29744e-05
3.57042e-05
8.13115e-06
1.69869e-06
9.0456e-06
4.09612e-06
-5.0889e-06
7.21138e-06
-1.3425e-05
1.06003e-05
-1.74277e-05
1.40402e-05
-1.89757e-05
1.7431e-05
-1.92572e-05
2.07341e-05
-1.89355e-05
2.39248e-05
-1.83116e-05
2.6973e-05
-1.74803e-05
2.98386e-05
-1.64404e-05
3.24714e-05
-1.5145e-05
3.48092e-05
-1.35153e-05
3.67756e-05
-1.14364e-05
3.82775e-05
-8.7465e-06
3.92051e-05
-5.22591e-06
3.94443e-05
-5.9965e-07
3.88976e-05
5.45763e-06
3.74929e-05
1.32687e-05
3.51657e-05
2.30156e-05
3.16942e-05
3.41854e-05
2.64858e-05
4.4717e-05
1.72853e-05
4.49046e-05
2.54165e-05
2.69734e-06
6.34826e-06
5.79712e-06
-8.18868e-06
9.21795e-06
-1.68459e-05
1.26424e-05
-2.08522e-05
1.59451e-05
-2.22784e-05
1.91168e-05
-2.24289e-05
2.21777e-05
-2.19964e-05
2.51318e-05
-2.12657e-05
2.79589e-05
-2.03075e-05
3.06222e-05
-1.91036e-05
3.30732e-05
-1.7596e-05
3.52541e-05
-1.56962e-05
3.70972e-05
-1.32795e-05
3.85239e-05
-1.01732e-05
3.94466e-05
-6.1486e-06
3.97792e-05
-9.32335e-07
3.9461e-05
5.7759e-06
3.84703e-05
1.42594e-05
3.68034e-05
2.46825e-05
3.42815e-05
3.67073e-05
3.0185e-05
4.88135e-05
2.13516e-05
5.37381e-05
4.67681e-05
3.41657e-06
2.93168e-06
7.27775e-06
-1.20499e-05
1.10686e-05
-2.06367e-05
1.4539e-05
-2.43225e-05
1.76925e-05
-2.5432e-05
2.06349e-05
-2.53712e-05
2.34517e-05
-2.48133e-05
2.61736e-05
-2.39875e-05
2.87878e-05
-2.29216e-05
3.12586e-05
-2.15744e-05
3.35394e-05
-1.98769e-05
3.5577e-05
-1.77339e-05
3.73127e-05
-1.50151e-05
3.86828e-05
-1.15432e-05
3.96202e-05
-7.08606e-06
4.00655e-05
-1.37757e-06
3.99906e-05
5.85082e-06
3.9419e-05
1.48309e-05
3.84074e-05
2.56942e-05
3.6853e-05
3.82617e-05
3.40893e-05
5.15772e-05
2.60215e-05
6.18059e-05
7.27896e-05
4.0073e-06
-1.07561e-06
8.67204e-06
-1.67146e-05
1.28507e-05
-2.48154e-05
1.63237e-05
-2.77956e-05
1.9284e-05
-2.83922e-05
2.19762e-05
-2.80634e-05
2.45475e-05
-2.73846e-05
2.70454e-05
-2.64854e-05
2.94582e-05
-2.53344e-05
3.17489e-05
-2.38652e-05
3.38722e-05
-2.20002e-05
3.57795e-05
-1.96411e-05
3.74217e-05
-1.66573e-05
3.87501e-05
-1.28716e-05
3.97171e-05
-8.05309e-06
4.02869e-05
-1.94742e-06
4.04616e-05
5.67616e-06
4.03087e-05
1.49838e-05
3.99601e-05
2.60428e-05
3.94664e-05
3.87554e-05
3.84228e-05
5.26208e-05
3.20323e-05
6.81964e-05
0.000104822
-7.84146e-06
7.84146e-06
-2.44161e-05
1.65746e-05
-4.37089e-05
1.92929e-05
-5.75751e-05
1.38662e-05
-6.34809e-05
5.90583e-06
-6.22755e-05
-1.20539e-06
-5.63503e-05
-5.92517e-06
-4.7257e-05
-9.09331e-06
-3.57716e-05
-1.14854e-05
-2.22134e-05
-1.35583e-05
-7.47975e-06
-1.47337e-05
6.60365e-06
-1.40834e-05
1.78966e-05
-1.12929e-05
2.42975e-05
-6.40085e-06
2.44899e-05
-1.92385e-07
1.937e-05
5.11987e-06
1.13212e-05
8.04868e-06
3.47757e-06
7.84364e-06
3.47756e-06
-1.33093e-05
2.11508e-05
-3.03052e-05
3.35705e-05
-4.75484e-05
3.65361e-05
-5.78051e-05
2.41229e-05
-6.13753e-05
9.47599e-06
-5.95411e-05
-3.03956e-06
-5.36436e-05
-1.18227e-05
-4.49691e-05
-1.77679e-05
-3.4209e-05
-2.22455e-05
-2.13723e-05
-2.6395e-05
-7.15158e-06
-2.89544e-05
6.70788e-06
-2.79427e-05
1.82086e-05
-2.27935e-05
2.58574e-05
-1.40497e-05
2.85947e-05
-2.92971e-06
2.55832e-05
8.1313e-06
1.73518e-05
1.628e-05
7.22639e-06
1.79691e-05
1.0704e-05
-1.54725e-05
3.66233e-05
-2.90565e-05
4.71545e-05
-4.41351e-05
5.16146e-05
-5.35755e-05
3.35634e-05
-5.67961e-05
1.26966e-05
-5.48082e-05
-5.02749e-06
-4.9071e-05
-1.75598e-05
-4.09901e-05
-2.58488e-05
-3.12136e-05
-3.20219e-05
-1.93664e-05
-3.82422e-05
-5.81007e-06
-4.25108e-05
7.69389e-06
-4.14465e-05
1.91004e-05
-3.42e-05
2.6823e-05
-2.17724e-05
2.97595e-05
-5.86616e-06
2.71574e-05
1.07334e-05
1.93689e-05
2.40685e-05
8.91317e-06
2.84248e-05
1.96172e-05
-1.55393e-05
5.21626e-05
-2.54678e-05
5.7083e-05
-3.90223e-05
6.51691e-05
-4.73619e-05
4.19029e-05
-4.9512e-05
1.48468e-05
-4.70797e-05
-7.45986e-06
-4.15971e-05
-2.30425e-05
-3.43774e-05
-3.30685e-05
-2.6041e-05
-4.03584e-05
-1.56737e-05
-4.86094e-05
-3.03147e-06
-5.5153e-05
1.00032e-05
-5.44811e-05
2.12028e-05
-4.53996e-05
2.88507e-05
-2.94203e-05
3.17405e-05
-8.75596e-06
2.91803e-05
1.32936e-05
2.13695e-05
3.18794e-05
1.03176e-05
3.94768e-05
2.99348e-05
-1.37177e-05
6.58803e-05
-1.92624e-05
6.26277e-05
-3.06673e-05
7.6574e-05
-3.6665e-05
4.79006e-05
-3.68689e-05
1.50507e-05
-3.39077e-05
-1.04211e-05
-2.91457e-05
-2.78045e-05
-2.33697e-05
-3.88444e-05
-1.71927e-05
-4.65354e-05
-9.13966e-06
-5.66624e-05
1.87396e-06
-6.61666e-05
1.40549e-05
-6.66621e-05
2.47972e-05
-5.61419e-05
3.21798e-05
-3.68029e-05
3.48476e-05
-1.14237e-05
3.20769e-05
1.60642e-05
2.38827e-05
4.00736e-05
1.18801e-05
5.14794e-05
4.18149e-05
-1.08229e-05
7.67032e-05
-9.82736e-06
6.16322e-05
-1.65271e-05
8.32737e-05
-1.8035e-05
4.94086e-05
-1.54256e-05
1.24412e-05
-1.19522e-05
-1.38945e-05
-9.07993e-06
-3.06768e-05
-6.13563e-06
-4.17887e-05
-3.01842e-06
-4.96526e-05
1.58874e-06
-6.12695e-05
9.85202e-06
-7.44299e-05
2.03134e-05
-7.71235e-05
3.01121e-05
-6.59405e-05
3.6961e-05
-4.36518e-05
3.92023e-05
-1.3665e-05
3.5956e-05
1.93106e-05
2.703e-05
4.89996e-05
1.37294e-05
6.47799e-05
5.55443e-05
-3.38024e-06
8.00834e-05
8.31412e-06
4.99378e-05
8.01274e-06
8.35751e-05
1.27816e-05
4.46397e-05
1.93053e-05
5.91748e-06
2.29415e-05
-1.75306e-05
2.29233e-05
-3.06586e-05
2.03803e-05
-3.92457e-05
1.83093e-05
-4.75816e-05
1.83504e-05
-6.13106e-05
2.21894e-05
-7.82689e-05
2.93014e-05
-8.42355e-05
3.72786e-05
-7.39178e-05
4.32402e-05
-4.96134e-05
4.4879e-05
-1.53037e-05
4.09404e-05
2.32492e-05
3.09579e-05
5.89821e-05
1.59864e-05
7.97513e-05
7.15306e-05
2.78616e-05
5.22217e-05
4.06816e-05
3.71178e-05
5.02258e-05
7.40309e-05
6.36055e-05
3.12599e-05
7.15383e-05
-2.01532e-06
7.3256e-05
-1.92483e-05
6.84302e-05
-2.58328e-05
5.77083e-05
-2.85238e-05
4.82837e-05
-3.8157e-05
4.29932e-05
-5.60201e-05
4.07945e-05
-7.60702e-05
4.16706e-05
-8.51116e-05
4.62355e-05
-7.84826e-05
5.09012e-05
-5.42792e-05
5.18521e-05
-1.62547e-05
4.71436e-05
2.79576e-05
3.58633e-05
7.02624e-05
1.87874e-05
9.68272e-05
9.03181e-05
1.07337e-05
-1.18093e-05
2.36112e-05
-2.95921e-05
3.33297e-05
-3.45339e-05
4.02037e-05
-3.46696e-05
4.56117e-05
-3.38003e-05
5.04576e-05
-3.29092e-05
5.51517e-05
-3.20787e-05
5.97878e-05
-3.11215e-05
6.43171e-05
-2.98638e-05
6.86501e-05
-2.81982e-05
7.26942e-05
-2.60442e-05
7.63641e-05
-2.3311e-05
7.95892e-05
-1.98825e-05
8.23168e-05
-1.55992e-05
8.45074e-05
-1.02437e-05
8.61521e-05
-3.59207e-06
8.73402e-05
4.48803e-06
8.83401e-05
1.39839e-05
8.97118e-05
2.46711e-05
9.22257e-05
3.62415e-05
9.69444e-05
4.7902e-05
0.000106599
5.85419e-05
7.42185e-05
0.000137202
1.63339e-05
-2.81432e-05
3.30497e-05
-4.63079e-05
4.12641e-05
-4.27483e-05
4.59339e-05
-3.93393e-05
4.96602e-05
-3.75266e-05
5.33764e-05
-3.66254e-05
5.7252e-05
-3.59543e-05
6.12062e-05
-3.50757e-05
6.51142e-05
-3.37718e-05
6.8869e-05
-3.1953e-05
7.23906e-05
-2.95658e-05
7.56231e-05
-2.65435e-05
7.85453e-05
-2.28047e-05
8.11801e-05
-1.8234e-05
8.35678e-05
-1.26314e-05
8.57535e-05
-5.77778e-06
8.78947e-05
2.34687e-06
9.0223e-05
1.16555e-05
9.33559e-05
2.15382e-05
9.80052e-05
3.15922e-05
0.000105413
4.04941e-05
0.000117096
4.68592e-05
5.27602e-05
0.000138554
2.86396e-05
-5.67828e-05
4.41748e-05
-6.1843e-05
4.59819e-05
-4.45555e-05
4.78683e-05
-4.12256e-05
5.06747e-05
-4.03331e-05
5.40665e-05
-4.00172e-05
5.76361e-05
-3.95239e-05
6.12155e-05
-3.86552e-05
6.4685e-05
-3.72413e-05
6.79695e-05
-3.52374e-05
7.10247e-05
-3.2621e-05
7.38296e-05
-2.93484e-05
7.64091e-05
-2.53843e-05
7.88677e-05
-2.06925e-05
8.13596e-05
-1.51233e-05
8.4029e-05
-8.44712e-06
8.69531e-05
-5.77294e-07
9.04057e-05
8.20294e-06
9.47364e-05
1.72075e-05
0.000100021
2.63076e-05
0.000106986
3.35289e-05
0.000116857
3.69882e-05
3.76869e-05
0.00013193
4.67486e-05
-0.000103531
4.46766e-05
-5.97709e-05
4.13399e-05
-4.12188e-05
4.45869e-05
-4.44726e-05
4.91917e-05
-4.49379e-05
5.31051e-05
-4.39305e-05
5.62191e-05
-4.2638e-05
5.9526e-05
-4.19621e-05
6.2586e-05
-4.03012e-05
6.53978e-05
-3.80493e-05
6.79647e-05
-3.51879e-05
7.03074e-05
-3.16911e-05
7.25133e-05
-2.75902e-05
7.48003e-05
-2.29796e-05
7.74724e-05
-1.77955e-05
8.08531e-05
-1.18277e-05
8.50308e-05
-4.75504e-06
8.96858e-05
3.54798e-06
9.53549e-05
1.15384e-05
0.000101672
1.99908e-05
0.000109264
2.59371e-05
0.000119244
2.70075e-05
2.56695e-05
0.000131262
1.64654e-05
-0.000119997
2.22574e-05
-6.55629e-05
2.97814e-05
-4.87428e-05
3.60361e-05
-5.07273e-05
4.30152e-05
-5.1917e-05
4.9637e-05
-5.05522e-05
5.51013e-05
-4.81023e-05
5.84491e-05
-4.53099e-05
6.0986e-05
-4.28382e-05
6.31277e-05
-4.01909e-05
6.49933e-05
-3.70536e-05
6.66377e-05
-3.33354e-05
6.81294e-05
-2.90819e-05
6.95656e-05
-2.44158e-05
7.12205e-05
-1.94504e-05
7.38419e-05
-1.44491e-05
7.85306e-05
-9.44371e-06
8.53775e-05
-3.2989e-06
9.38294e-05
3.08647e-06
0.00010446
9.36019e-06
0.000115766
1.46315e-05
0.000126214
1.65592e-05
1.54464e-05
0.000136437
-1.77808e-05
-0.000102216
-2.28965e-06
-8.1054e-05
1.54597e-05
-6.64922e-05
2.79742e-05
-6.32417e-05
3.75048e-05
-6.14476e-05
4.56864e-05
-5.87338e-05
5.30122e-05
-5.54281e-05
5.96947e-05
-5.19924e-05
6.54929e-05
-4.86364e-05
7.0448e-05
-4.5146e-05
7.46739e-05
-4.12795e-05
7.82407e-05
-3.69022e-05
8.11445e-05
-3.19857e-05
8.33061e-05
-2.65774e-05
8.46258e-05
-2.077e-05
8.5003e-05
-1.48263e-05
8.48745e-05
-9.31518e-06
8.46514e-05
-3.07578e-06
8.98566e-05
-2.11879e-06
0.000103006
-3.78886e-06
0.00011972
-2.08243e-06
0.000131825
4.45372e-06
4.99154e-06
0.00014228
-9.40842e-06
-9.28076e-05
-2.02257e-07
-9.02602e-05
1.39247e-05
-8.06191e-05
2.59766e-05
-7.52936e-05
3.60352e-05
-7.15061e-05
4.50428e-05
-6.77414e-05
5.34368e-05
-6.3822e-05
6.13062e-05
-5.98619e-05
6.85605e-05
-5.58907e-05
7.51989e-05
-5.17844e-05
8.12944e-05
-4.73749e-05
8.69282e-05
-4.25361e-05
9.21499e-05
-3.72073e-05
9.69664e-05
-3.13939e-05
0.000101364
-2.51678e-05
0.000105259
-1.87215e-05
0.000108326
-1.23821e-05
0.000112477
-7.22637e-06
0.000118344
-7.986e-06
0.000125898
-1.13424e-05
0.000133895
-1.00801e-05
0.000138564
-2.15055e-07
-3.48533e-06
0.000147041
3.78474e-08
-9.28454e-05
5.999e-06
-9.62213e-05
1.56943e-05
-9.03144e-05
2.5573e-05
-8.51723e-05
3.48666e-05
-8.07998e-05
4.37348e-05
-7.66096e-05
5.23218e-05
-7.2409e-05
6.06442e-05
-6.81844e-05
6.86654e-05
-6.39119e-05
7.63856e-05
-5.95047e-05
8.38604e-05
-5.48497e-05
9.11769e-05
-4.98526e-05
9.84329e-05
-4.44633e-05
0.000105731
-3.86919e-05
0.000113192
-3.2629e-05
0.00012097
-2.64999e-05
0.000129374
-2.07857e-05
0.000138854
-1.67058e-05
0.000146776
-1.59086e-05
0.00015168
-1.6246e-05
0.0001557
-1.40999e-05
0.000165711
-1.02263e-05
-1.31056e-05
0.000175331
1.90306e-06
-9.47485e-05
8.35153e-06
-0.00010267
1.62623e-05
-9.82251e-05
2.45837e-05
-9.34937e-05
3.29334e-05
-8.91495e-05
4.12783e-05
-8.49545e-05
4.96353e-05
-8.07661e-05
5.7991e-05
-7.65401e-05
6.6322e-05
-7.22429e-05
7.46336e-05
-6.78163e-05
8.29741e-05
-6.31902e-05
9.14283e-05
-5.83068e-05
0.000100108
-5.31427e-05
0.000109144
-4.77285e-05
0.000118691
-4.21753e-05
0.00012891
-3.67197e-05
0.000139922
-3.17977e-05
0.000151356
-2.8139e-05
0.000161738
-2.62912e-05
0.000170719
-2.52268e-05
0.000180174
-2.35543e-05
0.00019224
-2.22926e-05
-2.44272e-05
0.000203561
3.38206e-06
-9.81305e-05
9.11756e-06
-0.000108405
1.57049e-05
-0.000104812
2.28367e-05
-0.000100625
3.02982e-05
-9.6611e-05
3.80086e-05
-9.2665e-05
4.59378e-05
-8.86953e-05
5.40619e-05
-8.46642e-05
6.2366e-05
-8.0547e-05
7.08609e-05
-7.63112e-05
7.95909e-05
-7.19202e-05
8.86325e-05
-6.73485e-05
9.80873e-05
-6.25974e-05
0.000108072
-5.77136e-05
0.000118706
-5.28089e-05
0.000130073
-4.80869e-05
0.000142138
-4.38626e-05
0.000154534
-4.05346e-05
0.000166562
-3.83195e-05
0.000178118
-3.67828e-05
0.000189987
-3.54238e-05
0.000202471
-3.4776e-05
-3.59074e-05
0.000213951
3.91182e-06
-0.000102042
8.78175e-06
-0.000113275
1.43705e-05
-0.000110401
2.05787e-05
-0.000106834
2.72566e-05
-0.000103289
3.43196e-05
-9.9728e-05
4.17262e-05
-9.6102e-05
4.9454e-05
-9.23919e-05
5.74956e-05
-8.85886e-05
6.58655e-05
-8.46811e-05
7.46041e-05
-8.06589e-05
8.37761e-05
-7.65204e-05
9.34635e-05
-7.22849e-05
0.000103755
-6.80048e-05
0.000114725
-6.37791e-05
0.000126402
-5.97637e-05
0.000138709
-5.61699e-05
0.000151397
-5.32223e-05
0.000164106
-5.10285e-05
0.000176744
-4.94211e-05
0.000189546
-4.82259e-05
0.000202459
-4.76883e-05
-4.82541e-05
0.000214805
3.83194e-06
-0.000105874
7.92638e-06
-0.00011737
1.27277e-05
-0.000115203
1.81797e-05
-0.000112286
2.41585e-05
-0.000109268
3.05875e-05
-0.000106157
3.74279e-05
-0.000102942
4.4662e-05
-9.9626e-05
5.22882e-05
-9.62148e-05
6.03229e-05
-9.27158e-05
6.88014e-05
-8.91373e-05
7.77756e-05
-8.54946e-05
8.73082e-05
-8.18175e-05
9.7461e-05
-7.81575e-05
0.000108278
-7.4596e-05
0.00011976
-7.1246e-05
0.000131836
-6.82456e-05
0.00014434
-6.57269e-05
0.000157066
-6.37535e-05
0.000169914
-6.22699e-05
0.000182908
-6.12192e-05
0.000195927
-6.0708e-05
-6.09095e-05
0.000208583
3.49971e-06
-0.000109374
6.968e-06
-0.000120838
1.11349e-05
-0.00011937
1.59452e-05
-0.000117096
2.12936e-05
-0.000114616
2.7116e-05
-0.000111979
3.33804e-05
-0.000109207
4.00747e-05
-0.00010632
4.72013e-05
-0.000103341
5.47767e-05
-0.000100291
6.28309e-05
-9.71915e-05
7.14051e-05
-9.40688e-05
8.05456e-05
-9.0958e-05
9.0295e-05
-8.79069e-05
0.000100678
-8.49793e-05
0.000111688
-8.22553e-05
0.000123266
-7.98237e-05
0.000135303
-7.77643e-05
0.000147668
-7.61183e-05
0.00016027
-7.4872e-05
0.000173058
-7.40067e-05
0.00018591
-7.35601e-05
-7.3592e-05
0.000198592
3.10104e-06
-0.000112475
6.11671e-06
-0.000123854
9.78584e-06
-0.000123039
1.40547e-05
-0.000121365
1.88424e-05
-0.000119404
2.41014e-05
-0.000117238
2.98091e-05
-0.000114915
3.59591e-05
-0.00011247
4.25571e-05
-0.000109939
4.96191e-05
-0.000107353
5.7171e-05
-0.000104743
6.52453e-05
-0.000102143
7.38769e-05
-9.95896e-05
8.30955e-05
-9.71255e-05
9.29162e-05
-9.48001e-05
0.00010333
-9.26687e-05
0.000114294
-9.07878e-05
0.000125735
-8.92054e-05
0.000137565
-8.79481e-05
0.000149708
-8.70154e-05
0.0001621
-8.63984e-05
0.000174643
-8.61032e-05
-8.61488e-05
0.0001872
2.74527e-06
-0.00011522
5.46694e-06
-0.000126575
8.7577e-06
-0.000126329
1.258e-05
-0.000125187
1.68821e-05
-0.000123706
2.16356e-05
-0.000121992
2.68287e-05
-0.000120108
3.24614e-05
-0.000118103
3.85424e-05
-0.00011602
4.50883e-05
-0.000113899
5.21216e-05
-0.000111777
5.96693e-05
-0.000109691
6.77586e-05
-0.000107679
7.64117e-05
-0.000105779
8.56391e-05
-0.000104028
9.54335e-05
-0.000102463
0.000105765
-0.00010112
0.000116586
-0.000100026
0.000127834
-9.91969e-05
0.000139455
-9.86361e-05
0.000151394
-9.83369e-05
0.000163584
-9.82939e-05
-9.85157e-05
0.000175951
2.48505e-06
-0.000117705
5.03869e-06
-0.000129129
8.05229e-06
-0.000129343
1.15169e-05
-0.000128652
1.54114e-05
-0.000127601
1.97263e-05
-0.000126307
2.44613e-05
-0.000124843
2.96232e-05
-0.000123265
3.52245e-05
-0.000121622
4.12828e-05
-0.000119957
4.78193e-05
-0.000118313
5.48576e-05
-0.000116729
6.24207e-05
-0.000115242
7.05265e-05
-0.000113884
7.91841e-05
-0.000112685
8.83894e-05
-0.000111668
9.81234e-05
-0.000110854
0.000108354
-0.000110256
0.000119043
-0.000109886
0.000130151
-0.000109745
0.000141645
-0.000109831
0.000153488
-0.000110137
-0.000110673
0.000165645
2.33378e-06
-0.000120039
4.80991e-06
-0.000131605
7.62884e-06
-0.000132162
1.08157e-05
-0.000131839
1.43776e-05
-0.000131162
1.83224e-05
-0.000130252
2.26609e-05
-0.000129181
2.74069e-05
-0.000128011
3.25771e-05
-0.000126792
3.8191e-05
-0.000125571
4.42699e-05
-0.000124392
5.08358e-05
-0.000123295
5.79095e-05
-0.000122316
6.55074e-05
-0.000121482
7.36386e-05
-0.000120816
8.23027e-05
-0.000120332
9.14885e-05
-0.00012004
0.000101177
-0.000119945
0.000111345
-0.000120054
0.000121972
-0.000120372
0.000133042
-0.000120901
0.000144546
-0.00012164
-0.000122605
0.000156478
2.27942e-06
-0.000122319
4.73824e-06
-0.000134064
7.42658e-06
-0.00013485
1.04033e-05
-0.000134815
1.36995e-05
-0.000134459
1.73378e-05
-0.00013389
2.1339e-05
-0.000133182
2.57232e-05
-0.000132395
3.05116e-05
-0.00013158
3.5726e-05
-0.000130785
4.13888e-05
-0.000130055
4.75218e-05
-0.000129428
5.41449e-05
-0.000128939
6.12741e-05
-0.000128611
6.89193e-05
-0.000128462
7.70833e-05
-0.000128496
8.57612e-05
-0.000128718
9.4943e-05
-0.000129127
0.000104618
-0.000129728
0.000114779
-0.000130533
0.000125428
-0.00013155
0.000136575
-0.000132786
-0.000134266
0.000148236
2.29797e-06
-0.000124617
4.77495e-06
-0.000136541
7.37915e-06
-0.000137455
1.01993e-05
-0.000137636
1.32853e-05
-0.000137545
1.66714e-05
-0.000137276
2.03864e-05
-0.000136897
2.44563e-05
-0.000136465
2.89061e-05
-0.00013603
3.376e-05
-0.000135639
3.90419e-05
-0.000135337
4.47739e-05
-0.00013516
5.09759e-05
-0.000135141
5.76641e-05
-0.0001353
6.48495e-05
-0.000135647
7.2537e-05
-0.000136184
8.07263e-05
-0.000136907
8.94139e-05
-0.000137814
9.85974e-05
-0.000138912
0.000108281
-0.000140216
0.000118479
-0.000141747
0.000129216
-0.000143523
-0.000145576
0.000140525
2.3629e-06
-0.00012698
4.87316e-06
-0.000139051
7.4233e-06
-0.000140005
1.0126e-05
-0.000140338
1.30443e-05
-0.000140463
1.62211e-05
-0.000140453
1.9691e-05
-0.000140367
2.34843e-05
-0.000140258
2.76293e-05
-0.000140175
3.21525e-05
-0.000140163
3.70786e-05
-0.000140263
4.24306e-05
-0.000140512
4.82285e-05
-0.000140939
5.44889e-05
-0.00014156
6.12234e-05
-0.000142382
6.84389e-05
-0.000143399
7.61376e-05
-0.000144605
8.43201e-05
-0.000145997
9.29896e-05
-0.000147581
0.000102157
-0.000149384
0.000111845
-0.000151436
0.00012209
-0.000153768
-0.00015642
0.000132935
2.44994e-06
-0.00012943
4.99192e-06
-0.000141593
7.50373e-06
-0.000142517
1.01144e-05
-0.000142949
1.28949e-05
-0.000143243
1.58936e-05
-0.000143451
1.91486e-05
-0.000143622
2.26932e-05
-0.000143803
2.65578e-05
-0.00014404
3.07702e-05
-0.000144375
3.53559e-05
-0.000144849
4.03382e-05
-0.000145495
4.57376e-05
-0.000146338
5.15706e-05
-0.000147393
5.78496e-05
-0.000148661
6.45822e-05
-0.000150132
7.17721e-05
-0.000151795
7.94219e-05
-0.000153646
8.75377e-05
-0.000155697
9.61338e-05
-0.00015798
0.000105238
-0.00016054
0.000114891
-0.000163422
-0.000166677
0.000125148
2.53909e-06
-0.000131969
5.09833e-06
-0.000144153
7.57545e-06
-0.000144994
1.01077e-05
-0.000145481
1.27692e-05
-0.000145905
1.56103e-05
-0.000146293
1.8671e-05
-0.000146683
2.19857e-05
-0.000147118
2.55857e-05
-0.00014764
2.94993e-05
-0.000148289
3.37521e-05
-0.000149101
3.83674e-05
-0.00015011
4.33655e-05
-0.000151336
4.87631e-05
-0.000152791
5.45727e-05
-0.00015447
6.08021e-05
-0.000156361
6.74557e-05
-0.000158449
7.45364e-05
-0.000160727
8.20504e-05
-0.000163211
9.00125e-05
-0.000165942
9.84515e-05
-0.000168979
0.000107414
-0.000172384
-0.000176222
0.000116959
2.61477e-06
-0.000134583
5.16784e-06
-0.000146706
7.6046e-06
-0.00014743
1.00625e-05
-0.000147939
1.26145e-05
-0.000148457
1.531e-05
-0.000148988
1.81886e-05
-0.000149561
2.1285e-05
-0.000150214
2.46298e-05
-0.000150985
2.82509e-05
-0.00015191
3.21731e-05
-0.000153024
3.64191e-05
-0.000154356
4.10087e-05
-0.000155926
4.59583e-05
-0.00015774
5.12803e-05
-0.000159792
5.69826e-05
-0.000162064
6.30691e-05
-0.000164535
6.95417e-05
-0.0001672
7.64051e-05
-0.000170075
8.36718e-05
-0.000173209
9.13694e-05
-0.000176676
9.95458e-05
-0.00018056
-0.000184946
0.000108269
2.66537e-06
-0.000137249
5.18419e-06
-0.000149224
7.56865e-06
-0.000149815
9.94936e-06
-0.00015032
1.2394e-05
-0.000150902
1.49488e-05
-0.000151543
1.76518e-05
-0.000152264
2.0536e-05
-0.000153098
2.36306e-05
-0.000154079
2.69618e-05
-0.000155241
3.05531e-05
-0.000156615
3.44255e-05
-0.000158228
3.85979e-05
-0.000160098
4.30861e-05
-0.000162228
4.79021e-05
-0.000164608
5.30533e-05
-0.000167215
5.85429e-05
-0.000170025
6.43711e-05
-0.000173028
7.05392e-05
-0.000176243
7.70557e-05
-0.000179725
8.39446e-05
-0.000183565
9.12541e-05
-0.00018787
-0.000192753
9.90605e-05
2.68309e-06
-0.000139932
5.13926e-06
-0.000151681
7.456e-06
-0.000152132
9.75162e-06
-0.000152616
1.20856e-05
-0.000153236
1.44999e-05
-0.000153957
1.70292e-05
-0.000154794
1.97039e-05
-0.000155773
2.25507e-05
-0.000156926
2.55932e-05
-0.000158283
2.88524e-05
-0.000159874
3.23473e-05
-0.000161723
3.60949e-05
-0.000163846
4.01098e-05
-0.000166243
4.44034e-05
-0.000168902
4.89827e-05
-0.000171794
5.38495e-05
-0.000174892
5.90019e-05
-0.000178181
6.4437e-05
-0.000181678
7.01579e-05
-0.000185446
7.61833e-05
-0.000189591
8.25595e-05
-0.000194246
-0.000199562
8.93693e-05
2.66506e-06
-0.000142597
5.03295e-06
-0.000154048
7.26481e-06
-0.000154363
9.46372e-06
-0.000154814
1.16803e-05
-0.000155452
1.39508e-05
-0.000156228
1.63058e-05
-0.000157149
1.87719e-05
-0.000158239
2.13724e-05
-0.000159526
2.41274e-05
-0.000161038
2.70547e-05
-0.000162801
3.01699e-05
-0.000164838
3.34877e-05
-0.000167163
3.70207e-05
-0.000169776
4.07795e-05
-0.00017266
4.47702e-05
-0.000175785
4.89938e-05
-0.000179115
5.34456e-05
-0.000182632
5.81185e-05
-0.000186351
6.30092e-05
-0.000190337
6.81295e-05
-0.000194711
7.35217e-05
-0.000199638
-0.000205313
7.92719e-05
2.6155e-06
-0.000145212
4.87258e-06
-0.000156306
7.00077e-06
-0.000156492
9.08863e-06
-0.000156902
1.11785e-05
-0.000157542
1.33004e-05
-0.00015835
1.54795e-05
-0.000159328
1.77379e-05
-0.000160498
2.00943e-05
-0.000161883
2.25645e-05
-0.000163508
2.5162e-05
-0.000165399
2.78987e-05
-0.000167575
3.07855e-05
-0.00017005
3.38326e-05
-0.000172823
3.7049e-05
-0.000175877
4.04402e-05
-0.000179176
4.4006e-05
-0.000182681
4.77397e-05
-0.000186366
5.16299e-05
-0.000190241
5.56667e-05
-0.000194374
5.98538e-05
-0.000198898
6.42266e-05
-0.000204011
-0.000209956
6.88702e-05
2.54717e-06
-0.00014776
4.67e-06
-0.000158428
6.67313e-06
-0.000158495
8.63421e-06
-0.000158863
1.05877e-05
-0.000159496
1.25561e-05
-0.000160318
1.45584e-05
-0.00016133
1.66107e-05
-0.00016255
1.87267e-05
-0.000163999
2.09173e-05
-0.000165699
2.31908e-05
-0.000167672
2.55542e-05
-0.000169939
2.80139e-05
-0.00017251
3.05767e-05
-0.000175386
3.32493e-05
-0.000178549
3.60362e-05
-0.000181963
3.89366e-05
-0.000185582
4.19422e-05
-0.000189372
4.50379e-05
-0.000193337
4.82073e-05
-0.000197543
5.14452e-05
-0.000202136
5.47771e-05
-0.000207343
-0.000213461
5.82817e-05
2.47866e-06
-0.000150238
4.43566e-06
-0.000160385
6.29005e-06
-0.000160349
8.10942e-06
-0.000160683
9.91849e-06
-0.000161305
1.17304e-05
-0.00016213
1.35564e-05
-0.000163156
1.54066e-05
-0.0001644
1.72888e-05
-0.000165881
1.92083e-05
-0.000167618
2.11677e-05
-0.000169632
2.31681e-05
-0.000171939
2.52105e-05
-0.000174552
2.72973e-05
-0.000177473
2.9432e-05
-0.000180684
3.16175e-05
-0.000184148
3.38526e-05
-0.000187817
3.61279e-05
-0.000191647
3.84258e-05
-0.000195635
4.07239e-05
-0.000199841
4.30076e-05
-0.00020442
4.52901e-05
-0.000209625
-0.000215808
4.76376e-05
2.42605e-06
-0.000152664
4.17191e-06
-0.000162131
5.85508e-06
-0.000162032
7.52185e-06
-0.00016235
9.18221e-06
-0.000162965
1.08376e-05
-0.000163785
1.2491e-05
-0.00016481
1.41459e-05
-0.000166055
1.58041e-05
-0.000167539
1.7465e-05
-0.000169279
1.91249e-05
-0.000171292
2.07785e-05
-0.000173593
2.24207e-05
-0.000176194
2.40479e-05
-0.0001791
2.56595e-05
-0.000182296
2.72558e-05
-0.000185745
2.88348e-05
-0.000189396
3.03866e-05
-0.000193199
3.18918e-05
-0.00019714
3.33234e-05
-0.000201273
3.46575e-05
-0.000205754
3.58931e-05
-0.000210861
-0.000216994
3.70785e-05
2.39341e-06
-0.000155058
3.8695e-06
-0.000163607
5.36694e-06
-0.00016353
6.87739e-06
-0.00016386
8.39009e-06
-0.000164478
9.89282e-06
-0.000165288
1.13802e-05
-0.000166297
1.28496e-05
-0.000167524
1.42971e-05
-0.000168987
1.5716e-05
-0.000170698
1.70963e-05
-0.000172672
1.84261e-05
-0.000174922
1.96931e-05
-0.000177461
2.0887e-05
-0.000180294
2.20012e-05
-0.00018341
2.3032e-05
-0.000186776
2.39753e-05
-0.000190339
2.4821e-05
-0.000194045
2.55485e-05
-0.000197868
2.61273e-05
-0.000201852
2.65249e-05
-0.000206151
2.67258e-05
-0.000211062
-0.000217024
2.67556e-05
2.36287e-06
-0.000157421
3.51011e-06
-0.000164755
4.82348e-06
-0.000164843
6.18251e-06
-0.000165219
7.55364e-06
-0.000165849
8.91078e-06
-0.000166645
1.02415e-05
-0.000167628
1.15379e-05
-0.000168821
1.27909e-05
-0.00017024
1.39882e-05
-0.000171895
1.51141e-05
-0.000173798
1.61498e-05
-0.000175958
1.70757e-05
-0.000178387
1.78735e-05
-0.000181092
1.85289e-05
-0.000184065
1.9032e-05
-0.000187279
1.93748e-05
-0.000190682
1.95459e-05
-0.000194216
1.95237e-05
-0.000197845
1.92748e-05
-0.000201603
1.87593e-05
-0.000205636
1.79465e-05
-0.000210249
-0.000215915
1.6838e-05
2.29717e-06
-0.000159718
3.07731e-06
-0.000165535
4.22839e-06
-0.000165995
5.44719e-06
-0.000166438
6.68578e-06
-0.000167087
7.9061e-06
-0.000167866
9.09086e-06
-0.000168813
1.02283e-05
-0.000169958
1.13052e-05
-0.000171317
1.23047e-05
-0.000172895
1.32056e-05
-0.000174699
1.39834e-05
-0.000176736
1.4611e-05
-0.000179015
1.50616e-05
-0.000181543
1.53115e-05
-0.000184315
1.53419e-05
-0.000187309
1.51384e-05
-0.000190478
1.46859e-05
-0.000193763
1.3961e-05
-0.00019712
1.29269e-05
-0.000200569
1.15358e-05
-0.000204245
9.74124e-06
-0.000208454
-0.000213694
7.52e-06
2.15787e-06
-0.000161876
2.57096e-06
-0.000165948
3.59511e-06
-0.000167019
4.68544e-06
-0.000167528
5.8007e-06
-0.000168203
6.893e-06
-0.000168958
7.94266e-06
-0.000169862
8.9357e-06
-0.000170951
9.85589e-06
-0.000172237
1.06828e-05
-0.000173722
1.13914e-05
-0.000175407
1.19521e-05
-0.000177296
1.23316e-05
-0.000179394
1.24948e-05
-0.000181706
1.24075e-05
-0.000184228
1.20402e-05
-0.000186942
1.13684e-05
-0.000189807
1.03698e-05
-0.000192765
9.01638e-06
-0.000195767
7.26629e-06
-0.000198819
5.06244e-06
-0.000202041
2.34003e-06
-0.000205732
-0.000210398
-9.55483e-07
1.92659e-06
-0.000163802
2.00672e-06
-0.000166028
2.93982e-06
-0.000167952
3.91148e-06
-0.0001685
4.91215e-06
-0.000169203
5.8845e-06
-0.00016993
6.8093e-06
-0.000170787
7.6719e-06
-0.000171814
8.45429e-06
-0.000173019
9.13397e-06
-0.000174401
9.68357e-06
-0.000175957
1.00705e-05
-0.000177683
1.0257e-05
-0.000179581
1.02011e-05
-0.00018165
9.85905e-06
-0.000183886
9.18898e-06
-0.000186272
8.15365e-06
-0.000188771
6.71938e-06
-0.000191331
4.8491e-06
-0.000193897
2.49289e-06
-0.000196463
-4.22127e-07
-0.000199126
-3.9841e-06
-0.00020217
-0.000206104
-8.27822e-06
1.5734e-06
-0.000165376
1.3931e-06
-0.000165848
2.26977e-06
-0.000168829
3.13621e-06
-0.000169366
4.03197e-06
-0.000170099
4.89217e-06
-0.00017079
5.70159e-06
-0.000171596
6.44633e-06
-0.000172558
7.10799e-06
-0.000173681
7.66372e-06
-0.000174957
8.08595e-06
-0.000176379
8.34157e-06
-0.000177939
8.39117e-06
-0.000179631
8.18895e-06
-0.000181448
7.68391e-06
-0.000183381
6.82298e-06
-0.000185411
5.55491e-06
-0.000187503
3.83168e-06
-0.000189607
1.60336e-06
-0.000191668
-1.19647e-06
-0.000193663
-4.65621e-06
-0.000195666
-8.89709e-06
-0.000197929
-0.000200945
-1.40557e-05
9.03287e-07
-0.000166279
7.40893e-07
-0.000165686
1.58635e-06
-0.000169674
2.36778e-06
-0.000170148
3.17018e-06
-0.000170902
3.9269e-06
-0.000171547
4.62987e-06
-0.000172299
5.26729e-06
-0.000173196
5.82212e-06
-0.000174236
6.27338e-06
-0.000175408
6.59577e-06
-0.000176701
6.75852e-06
-0.000178102
6.72394e-06
-0.000179596
6.44625e-06
-0.00018117
5.87152e-06
-0.000182806
4.93965e-06
-0.000184479
3.58808e-06
-0.000186152
1.75415e-06
-0.000187773
-6.28161e-07
-0.000189286
-3.63873e-06
-0.000190652
-7.39195e-06
-0.000191913
-1.20498e-05
-0.000193271
-0.000195177
-1.78178e-05
-4.10287e-07
-0.000165869
1.30706e-07
-0.000166227
8.71624e-07
-0.000170415
1.60921e-06
-0.000170886
2.33725e-06
-0.00017163
3.00096e-06
-0.000172211
3.60534e-06
-0.000172904
4.14299e-06