/*--------------------------------*- C++ -*----------------------------------*\
  =========                 |
  \\      /  F ield         | OpenFOAM: The Open Source CFD Toolbox
   \\    /   O peration     | Website:  https://openfoam.org
    \\  /    A nd           | Version:  9
     \\/     M anipulation  |
\*---------------------------------------------------------------------------*/
FoamFile
{
    format      ascii;
    class       volScalarField;
    location    "5.74";
    object      p_rgh;
}
// * * * * * * * * * * * * * * * * * * * * * * * * * * * * * * * * * * * * * //

dimensions      [1 -1 -2 0 0 0 0];

internalField   nonuniform List<scalar> 
2268
(
772.537
772.447
772.185
771.734
771.1
770.298
769.341
768.245
767.029
765.713
764.32
762.874
761.398
759.907
758.409
756.914
755.479
754.218
753.255
752.506
752.075
752.073
751.989
772.548
772.448
772.184
771.729
771.096
770.295
769.338
768.241
767.024
765.705
764.308
762.854
761.366
759.857
758.343
756.85
755.48
754.353
753.543
752.801
752.258
752.091
752.031
772.589
772.482
772.214
771.755
771.119
770.315
769.356
768.255
767.033
765.709
764.306
762.844
761.346
759.829
758.316
756.844
755.492
754.38
753.607
752.928
752.235
751.999
751.953
772.666
772.559
772.29
771.825
771.183
770.372
769.406
768.298
767.068
765.735
764.32
762.849
761.343
759.827
758.331
756.906
755.168
752.146
751.47
752.041
751.471
751.895
751.861
772.78
772.679
772.409
771.939
771.288
770.468
769.492
768.373
767.13
765.782
764.353
762.868
761.354
759.841
758.37
757.006
754.835
750.012
749.008
747.951
748.285
751.787
751.754
772.933
772.839
772.571
772.095
771.435
770.602
769.612
768.478
767.22
765.852
764.401
762.896
761.37
759.859
758.412
757.112
756.046
751.272
748.507
747.458
749.754
751.742
751.628
773.126
773.04
772.774
772.293
771.62
770.771
769.764
768.613
767.336
765.943
764.462
762.931
761.386
759.87
758.438
757.171
756.257
754.569
748.5
747.656
752.541
751.7
751.456
773.361
773.281
773.015
772.528
771.837
770.968
769.942
768.773
767.476
766.053
764.538
762.973
761.404
759.875
758.443
757.182
756.242
755.886
754.879
753.921
752.787
751.685
751.04
755.65
756.11
756.618
757.132
757.673
758.254
758.953
759.666
760.24
760.582
760.85
761.656
762.464
762.386
764.681
765.901
765.996
766.378
766.381
755.597
756.387
756.756
757.29
757.936
758.669
759.325
759.972
760.52
760.849
761.007
761.845
762.934
762.206
764.301
765.489
765.841
766.372
766.44
755.681
756.428
756.762
757.254
757.898
758.632
759.383
760.067
760.527
760.817
761.018
762.015
763.137
761.724
764.008
765.38
765.787
766.447
766.212
756.779
756.642
756.758
757.214
757.863
758.606
759.353
759.914
760.413
760.626
760.481
762.131
759.948
757.272
764.125
765.561
765.831
766.611
766.298
756.651
756.583
756.71
757.161
757.813
758.569
759.158
759.915
760.741
761.109
753.311
754.159
754.516
756.224
765.003
765.929
764.478
766.622
766.469
756.414
756.419
756.568
757.058
757.731
758.522
759.33
760.122
761.186
761.525
751.989
752.411
753.991
760.86
765.999
766.26
760.307
766.382
766.854
756.087
756.147
756.341
756.907
757.614
758.435
759.4
760.426
761.474
762.529
758.679
752.022
753.363
765.549
766.68
766.607
760.087
767.735
768.417
755.688
755.688
756.042
756.736
757.546
758.379
759.355
760.397
760.954
762.49
764.06
757.651
760.052
768.544
767.337
767.136
759.783
766.417
768.779
773.799
773.723
773.458
772.96
772.236
771.328
770.269
769.073
767.745
766.266
764.68
763.051
761.43
759.864
758.403
757.108
756.076
755.394
754.729
753.747
752.557
751.82
751.734
771.431
771.501
771.302
770.885
770.385
769.732
768.833
767.803
766.828
763.558
759.018
754.253
749.846
746.075
742.843
740.023
737.875
736.82
734.815
731.203
726.044
721.213
719.73
374.575
375.516
374.241
370.917
364.529
356.8
347.62
336.838
325.191
314.439
304.087
293.966
283.525
272.86
262.755
254.293
248.584
244.549
241.165
236.628
233.934
233.853
235.488
1.33388
1.3345
1.30085
1.27708
1.45267
1.5661
1.61091
1.64113
1.67814
1.70888
2.11729
2.22623
2.33142
2.53505
2.81922
3.13414
2.65931
2.0777
1.40769
1.72135
1.82179
1.60919
1.04361
1.8702
1.87003
1.63273
1.29533
3.36558
4.83865
4.86383
4.8742
5.08076
5.19424
5.19752
5.19503
5.18219
5.17473
5.07939
4.72313
4.24194
3.12712
1.33576
1.71376
1.80582
1.52724
0.985736
1.2671
1.32102
1.29811
0.973195
1.1439
0.338807
0.640155
0.758857
0.84867
0.908959
0.923741
0.870897
0.793542
0.665173
0.527434
0.355444
0.315087
0.89883
1.26181
1.02297
0.851104
1.00049
1.44981
0.200845
0.144589
0.272079
0.365813
0.069362
0.0297199
-0.00506711
-0.00647974
-0.00683947
-0.00612706
-0.00437862
-0.00158704
0.00178911
0.00626066
0.0123613
0.0219331
0.0774465
0.235228
0.250538
0.119924
0.280699
0.706646
0.497287
-0.0106742
-0.00997514
-0.0111644
-0.00999045
-0.00886701
-0.00581851
0.00366208
-0.000509523
-0.00542066
-0.0045528
-0.0026189
0.00154637
0.00412049
0.00544423
0.0094935
0.0496895
0.170509
0.182505
0.0832129
0.108107
0.236795
0.184383
0.0359245
-0.0090264
-0.00866393
-0.00896078
-0.00832848
-0.00756171
-0.0059287
-0.00304997
-0.00142849
-0.00439966
-0.00349505
5.72389e-05
0.00533581
0.00731864
0.00447138
0.00684344
0.0334473
0.0871598
0.0824079
0.0800317
0.132385
0.117852
0.0110488
0.0131017
-0.00773781
-0.00745275
-0.00734096
-0.00704919
-0.00647328
-0.00554587
-0.00501296
-0.00441015
-0.00362535
-0.00266743
0.00148215
0.00597193
0.0060838
0.00339921
0.00508862
0.00633822
0.00556369
0.00641724
0.0126524
0.023728
0.0153534
0.00930428
0.0105645
-0.0066352
-0.00636922
-0.00621617
-0.00603336
-0.00562811
-0.00495527
-0.00437312
-0.0037286
-0.00239792
0.000786007
0.00196153
0.00200733
0.00176928
0.0027457
0.00396358
0.00469619
0.00507865
0.00595898
0.00780434
0.00812337
0.00743865
0.00814061
0.00893873
-0.00566975
-0.00564303
-0.00542381
-0.00526724
-0.00489669
-0.00436661
-0.00381614
-0.00204527
0.00128278
0.00201242
0.00167956
4.98705e-05
0.0011596
0.00227429
0.00323609
0.00393284
0.00443708
0.00928596
0.0179061
0.0183763
0.0135976
0.00766683
0.00753245
-0.00481913
-0.00488555
-0.00482499
-0.00461151
-0.00427114
-0.00383298
-0.00331172
9.36216e-05
0.00181812
0.00145308
-0.000605837
9.82299e-05
0.00101171
0.00190445
0.0026908
0.00331536
0.00382667
0.0119464
0.0176636
0.0180993
0.0184801
0.00754871
0.00635201
-0.00400722
-0.00407699
-0.00416382
-0.00400523
-0.0037256
-0.00335315
-0.00281874
-0.00121498
-0.000244623
-0.00116917
-0.000638468
0.000113349
0.000873662
0.00160471
0.00226054
0.00280338
0.00321946
0.0046456
0.0103981
0.0156535
0.00804852
0.0050426
0.00534422
-0.00318744
-0.00313845
-0.00358094
-0.00347201
-0.00324343
-0.00291698
-0.00249798
-0.0021663
-0.00169268
-0.00113539
-0.000526458
0.000110131
0.000747775
0.00135909
0.00191468
0.00238788
0.00276558
0.00304518
0.00326946
0.0036228
0.00390609
0.00431238
0.00456134
-0.00245942
-0.00258509
-0.00306832
-0.00300434
-0.00281904
-0.00255103
-0.00223539
-0.00186986
-0.0014447
-0.000964179
-0.00044383
9.62279e-05
0.000636085
0.00115494
0.00163076
0.00204629
0.00239305
0.00267297
0.00291228
0.00315488
0.00342174
0.00367928
0.00384476
-0.00171804
-0.00214898
-0.00264154
-0.00259548
-0.00244871
-0.00222852
-0.00195042
-0.00162123
-0.00124604
-0.000829141
-0.000382581
7.8635e-05
0.00053897
0.000982105
0.00139229
0.00175752
0.00207183
0.00233653
0.00256513
0.00277728
0.00297865
0.0031403
0.00322526
-0.00128824
-0.00179847
-0.00226292
-0.00223959
-0.00212437
-0.00193915
-0.00169735
-0.00140915
-0.00108111
-0.000719864
-0.000335561
5.9968e-05
0.000454264
0.000834667
0.00118947
0.00150976
0.00179075
0.00203241
0.00224058
0.00242321
0.00258057
0.00269616
0.0027494
-0.000917707
-0.00143211
-0.00193709
-0.00193102
-0.00184032
-0.00168449
-0.00147661
-0.00122634
-0.000941238
-0.000628715
-0.000297577
4.24473e-05
0.000381255
0.000708861
0.00101622
0.00129632
0.00154492
0.00176086
0.00194587
0.00210223
0.00222801
0.00231362
0.00234725
-0.000601127
-0.000880912
-0.00165904
-0.00166477
-0.001593
-0.00146201
-0.00128382
-0.00106748
-0.000820632
-0.000550585
-0.000265104
2.76306e-05
0.000319322
0.000601937
0.000868262
0.00111253
0.00133085
0.00152127
0.00168338
0.00181688
0.00191926
0.0019846
0.00200601
-0.000333175
-0.00048974
-0.00142347
-0.0014358
-0.00137819
-0.00126764
-0.00111493
-0.000928354
-0.000715108
-0.00048199
-0.000235849
1.63628e-05
0.000267745
0.000511712
0.000742354
0.000954797
0.00114544
0.00131191
0.00145276
0.0015666
0.001651
0.00170205
0.00171564
-0.000108056
-0.000317008
-0.00122288
-0.00123779
-0.00119066
-0.00109699
-0.000966067
-0.000805374
-0.000621444
-0.0004204
-0.000208241
9.09248e-06
0.0002258
0.000436395
0.000635931
0.000820218
0.000985935
0.00113059
0.0012523
0.00134927
0.00141935
0.00145981
0.00146813
-0.000258257
-0.000727512
-0.00104718
-0.00106344
-0.00102492
-0.000945651
-0.000833561
-0.000695422
-0.000537062
-0.000363906
-0.000181182
6.01484e-06
0.000192764
0.000374435
0.000546822
0.00070628
0.000849781
0.000974879
0.00107956
0.00116201
0.00122031
0.00125249
0.00125694
-0.00067076
-0.000809823
-0.000888786
-0.000907058
-0.000876523
-0.000809865
-0.000714279
-0.000595902
-0.000459912
-0.000311077
-0.000153941
7.11345e-06
0.00016788
0.000324402
0.000473067
0.000610678
0.000734492
0.000842199
0.000931835
0.00100165
0.00105001
0.00107538
0.00107668
-0.00055569
-0.000673941
-0.000747259
-0.000766678
-0.000742649
-0.000686887
-0.000605786
-0.000504793
-0.000388446
-0.000260901
-0.000126095
1.21897e-05
0.000150335
0.000284933
0.000412842
0.000531246
0.00063767
0.000729978
0.000806326
0.000865098
0.00090486
0.000924381
0.000922877
-0.000456178
-0.000558961
-0.000622939
-0.000640543
-0.000621219
-0.000574632
-0.000506231
-0.000420584
-0.000321554
-0.000212716
-9.74749e-05
2.09055e-05
0.000139294
0.000254727
0.000364455
0.000465977
0.000557068
0.00063577
0.000700382
0.000749429
0.000781645
0.000795996
0.00079186
-0.000376759
-0.00046205
-0.000513574
-0.000526572
-0.000510134
-0.000471325
-0.000414186
-0.000342178
-0.000258487
-0.000166145
-6.8096e-05
3.28351e-05
0.000133927
0.000232582
0.000326371
0.000413064
0.000490652
0.000557349
0.000611594
0.000652043
0.000677569
0.000687266
0.000680607
-0.000314114
-0.000380269
-0.000416
-0.000421739
-0.000407058
-0.000375486
-0.00032865
-0.000268878
-0.000198813
-0.000121044
-3.81179e-05
4.7503e-05
0.000133442
0.000217405
0.000297229
0.000370911
0.000436629
0.000492749
0.000537837
0.000570666
0.000590217
0.000595682
0.000586592
-0.000265505
-0.000311041
-0.00032527
-0.000321384
-0.000309979
-0.000286326
-0.000249189
-0.000200424
-0.000142414
-7.74705e-05
-7.81287e-06
6.44014e-05
0.000137087
0.000208207
0.000275819
0.000338115
0.000393426
0.000440248
0.000477252
0.00050331
0.000517495
0.000519075
0.000507633
-0.000227241
-0.000228439
3.13127e-05
4.83348e-05
-0.000219176
-0.000204928
-0.000176407
-0.000137068
-8.94676e-05
-3.56479e-05
2.24634e-05
8.29988e-05
0.000144139
0.000204073
0.000261053
0.000313425
0.000359649
0.00039832
0.000428191
0.000448212
0.000457537
0.000455509
0.000441772
-0.000198332
0.000409146
0.0032225
0.00325567
0.000380779
-0.0001352
-0.000111817
-7.94238e-05
-4.02659e-05
4.14837e-06
5.23244e-05
0.000102752
0.00015389
0.000204139
0.000251916
0.000295696
0.000334031
0.000365582
0.000389162
0.000403775
0.000408645
0.000403201
0.000387181
-0.000180226
0.00100287
0.00353657
0.00356042
0.00140263
-7.76975e-05
-5.49679e-05
-2.71237e-05
5.33594e-06
4.18189e-05
8.14466e-05
0.000123145
0.000165651
0.000207561
0.000247439
0.000283848
0.000315394
0.000340768
0.000358805
0.000368538
0.000369251
0.000360484
0.000342124
-0.000161231
0.000732972
0.00368356
0.00370427
0.00120211
-2.47118e-05
-1.96438e-06
2.17717e-05
4.81377e-05
7.75075e-05
0.000109581
0.000143663
0.000178719
0.000213501
0.000246673
0.000276844
0.000302629
0.000322704
0.000335877
0.000341171
0.000337912
0.000325795
0.000304941
-0.000130722
0.000108392
0.00256256
0.0020907
0.000288337
3.32096e-05
5.13903e-05
6.91659e-05
8.88435e-05
0.000111244
0.000136369
0.000163708
0.000192333
0.000221084
0.000248659
0.000273667
0.000294683
0.000310315
0.000319278
0.000320509
0.000313335
0.000297678
0.000274054
-7.5021e-05
1.7654e-05
0.000114847
8.28081e-05
8.73565e-05
9.80708e-05
0.000106125
0.000115253
0.000127184
0.000142509
0.000161143
0.0001825
0.000205631
0.000229376
0.000252412
0.000273309
0.000290562
0.000302647
0.000308095
0.000305625
0.000294432
0.000274808
0.000247955
7.98447e-06
0.000123951
0.000178774
0.000181309
0.000171973
0.000163989
0.000158865
0.000157865
0.000161622
0.000170122
0.000182889
0.000199091
0.000217671
0.000237406
0.000256939
0.000274788
0.000289352
0.000298922
0.00030172
0.000295985
0.00028044
0.000256003
0.000225188
0.000130153
0.000261876
0.000305606
0.000282524
0.000249101
0.000222569
0.000204222
0.000193501
0.000189846
0.000192467
0.000200366
0.000212421
0.000227437
0.00024414
0.000261173
0.000277056
0.000290127
0.000298474
0.000299868
0.000291607
0.000271038
0.000240203
0.000204275
0.000302176
0.000429349
0.00042506
0.000364301
0.000307317
0.000265159
0.000236065
0.000217895
0.000208859
0.000207321
0.000211778
0.000220863
0.000233302
0.000247856
0.000263279
0.000278222
0.000291089
0.00029985
0.000301782
0.000292595
0.000265974
0.00022605
0.000183478
0.000551109
0.000620107
0.000507402
0.000405024
0.000332571
0.000281673
0.000247341
0.000226143
0.000215124
0.000211933
0.000214745
0.000222116
0.000232851
0.000245911
0.000260336
0.00027512
0.000288973
0.000300074
0.000305689
0.000299292
0.000264643
0.000210767
0.000160022
0.000769618
0.000725162
0.000502531
0.000383647
0.000313609
0.000267109
0.000237936
0.000221319
0.000213554
0.000212193
0.000215601
0.000222639
0.000232483
0.000244526
0.000258326
0.000273484
0.000289363
0.000305262
0.000320754
0.000326484
0.000275351
0.000191508
0.000129294
0.00104383
0.000693062
0.000425104
0.000322287
0.000270156
0.000244973
0.000235885
0.000234248
0.000236372
0.000240962
0.000247473
0.000255658
0.000265457
0.000276993
0.000290617
0.000306838
0.00032616
0.000350978
0.000390154
0.000435828
0.000345765
0.000174575
8.88549e-05
0.000835363
1.75727e-05
0.000150071
0.00017479
0.000187644
0.000203407
0.000219674
0.000232894
0.000243163
0.000251549
0.000258949
0.000266071
0.000273571
0.000282191
0.000292935
0.000307123
0.000326674
0.000358355
0.00042731
0.00055716
0.000492996
0.000163694
5.53528e-05
751.747
751.792
751.891
752.159
722.392
723.061
723.659
725.406
234.552
234.672
236.448
239.537
1.47924
1.6025
1.18514
0.868395
1.4514
1.59677
1.0047
0.822879
1.44573
0.686958
0.696303
0.911378
0.193389
0.487393
0.913292
0.913299
0.072026
0.0762594
0.135353
0.139626
0.0136942
0.0128236
0.0118281
0.0110669
0.0107351
0.0107143
0.0104203
0.0100808
0.00913462
0.00909517
0.00892529
0.00884941
0.00763295
0.007674
0.00762606
0.00757295
0.00642287
0.00642659
0.0063834
0.00630331
0.00539536
0.00537195
0.00529752
0.00518284
0.00454088
0.00446852
0.00440246
0.00431051
0.00379677
0.00376363
0.00370242
0.00366211
0.00321255
0.00318503
0.00313272
0.00305809
0.00272878
0.00269916
0.00265329
0.00259272
0.00232452
0.00229731
0.00225851
0.002209
0.00198362
0.00195935
0.00192638
0.00188518
0.00169454
0.00167304
0.00164471
0.00160981
0.00144853
0.00142937
0.00140462
0.00137439
0.00123865
0.00122134
0.00119925
0.00117244
0.00105931
0.00104335
0.0010232
0.000998899
0.000906007
0.000890962
0.000872221
0.000849767
0.000775104
0.000760649
0.000742911
0.000721843
0.000663672
0.000649559
0.000632529
0.000612501
0.000569275
0.000555319
0.000538773
0.000519513
0.000489802
0.000475862
0.000459614
0.000440892
0.000423327
0.000409281
0.000393169
0.000374783
0.000368024
0.000353761
0.000337636
0.000319413
0.000322139
0.000307547
0.000291275
0.000273069
0.00028398
0.000268945
0.000252409
0.000234112
0.000251929
0.000236336
0.000219437
0.00020098
0.000224437
0.000208169
0.000190836
0.000172205
0.000199995
0.000182947
0.00016515
0.000146408
0.00017707
0.000159176
0.00014097
0.000122301
0.000153993
0.000135308
0.000116913
9.86968e-05
0.000128662
0.000109674
9.16678e-05
7.46121e-05
9.80937e-05
8.04797e-05
6.42798e-05
4.96735e-05
5.90005e-05
4.55215e-05
3.40946e-05
2.44247e-05
2.9665e-05
1.86271e-05
9.5807e-06
2.72034e-06
753.973
754.674
755.507
756.448
756.343
754.51
754.705
757.083
760.262
763.274
765.922
768.096
769.1
768.753
768.254
766.581
759.298
761.438
769.434
729.433
729.985
730.169
730.818
733.441
735.432
734.731
732.819
732.877
744.02
758.835
766.197
766.452
759.829
753.14
758.471
764.238
764.479
764.632
245.644
250.569
256.599
264.247
272.282
284.331
298.181
311.646
321.947
326.547
331.906
341.348
349.727
355.073
358.679
359.869
363.582
360.301
355.005
0.840932
0.835886
0.838093
0.917
1.52903
1.21742
0.976164
0.894422
0.883698
0.872429
0.848014
0.827068
0.816186
0.816531
0.821045
0.825803
0.812826
0.827894
0.839903
0.824301
0.824126
0.824044
0.85164
1.96326
1.97977
1.74738
1.76124
1.7565
1.63089
1.41566
1.43325
1.3859
1.47441
1.46912
1.56297
1.60818
1.60643
1.49997
1.14554
1.14485
1.13711
0.84227
1.11555
1.61653
1.61323
1.58069
1.5466
1.53372
1.57838
1.52353
1.5241
1.20748
1.13238
1.1572
1.04833
0.99332
1.29902
0.882901
0.844926
0.863871
0.840369
0.582383
0.0856376
0.0551189
0.0325346
0.0179498
0.0169198
0.0149943
0.0128091
0.0413235
0.224996
0.22609
0.0930651
0.120765
0.198843
0.468727
0.0262441
0.013826
0.0143193
0.129604
0.0124408
0.0148791
0.0153121
0.0160161
0.0203658
0.0289955
0.0263853
0.0211102
0.00857056
0.00531315
0.00414713
0.00439563
0.00344614
0.00203846
-0.00271126
0.0109283
0.0108074
0.0103928
0.00986045
0.0108879
0.0125356
0.0135814
0.0314357
0.096434
0.107159
0.105868
0.0815585
0.0199718
0.00614208
0.00477174
0.00410176
0.00335409
0.00249046
-0.000146902
0.00984327
0.00992208
0.00993931
0.00976557
0.00998107
0.0105802
0.0257701
0.1119
0.110683
0.108749
0.108225
0.0776901
0.029784
0.0255868
0.00591752
0.0041472
0.00313479
0.00243743
0.00131829
0.00874055
0.0122617
0.0275505
0.0282113
0.0102193
0.00864246
0.0628637
0.11395
0.0939314
0.0216176
0.0343235
0.0601563
0.0774563
0.0774626
0.0441388
0.0170724
0.00367763
0.00270283
0.00213594
0.00746193
0.0236787
0.0482322
0.0480005
0.034156
0.0111308
0.0577358
0.0591274
0.000448411
0.00845307
0.0700006
0.0696836
0.0691049
0.0656911
0.0707827
0.0715464
0.0075149
0.00323213
0.00264832
0.00612948
0.0239707
0.048569
0.0482806
0.04784
0.0386835
0.00192885
0.000350895
0.000164379
0.0107576
0.0410093
0.0410951
-0.00155848
-0.00114063
0.0120165
0.0176907
0.0286506
0.0299163
0.0188551
0.00497059
0.00455579
0.0240619
0.0439225
0.0160033
0.00194612
0.00133135
0.000523563
0.000311489
-0.000601271
-0.00162523
-0.00182902
-0.00128664
-0.000908118
-0.000576796
0.0110845
0.0361852
0.0362872
0.0356205
0.00420379
0.00367844
0.00255339
0.00188305
0.00175783
0.00157682
0.00108507
0.000534665
0.000123829
-0.000506435
-0.00105374
-0.00122273
-0.00103756
-0.00084828
-0.000734087
0.00323503
0.0266884
0.0307434
0.0185624
0.00356922
0.00313364
0.00248556
0.00199109
0.00161719
0.00133099
0.000927217
0.000465248
4.83023e-05
-0.000361211
-0.000736079
-0.000902763
-0.000874156
-0.000834618
-0.000826117
-0.000887591
-0.00151994
-0.00180521
-0.00189859
0.00290135
0.00261412
0.00284008
0.00248056
0.00189481
0.00120771
0.000804247
0.000422742
6.74201e-05
-0.000266679
-0.000556128
-0.000721447
-0.000775032
-0.000814114
-0.000902629
-0.00108808
-0.00136375
-0.00160443
-0.00172996
0.00247028
0.00222412
0.00236522
0.00232487
0.00205162
0.00177589
0.000777551
0.000367826
6.95193e-05
-0.000166524
-0.000407429
-0.00062082
-0.000717261
-0.00078877
-0.000875185
-0.000997661
-0.00115227
-0.00130598
-0.00143233
0.00210916
0.00189127
0.00162551
0.00160353
0.00181618
0.00162663
0.000842824
0.000301051
0.000130514
-8.44621e-06
-0.000220868
-0.000484832
-0.000693414
-0.000773699
-0.000839013
-0.00088699
-0.000907371
-0.000938763
-0.00100918
0.0018023
0.00162565
0.00140967
0.00117663
0.000941277
0.000705769
0.000483161
0.000270957
0.000177337
-2.23689e-05
-0.000217408
-0.000412415
-0.000702933
-0.000786681
-0.000834728
-0.000823727
-0.000729377
-0.000368042
0.0025284
0.00153962
0.00139283
0.00121231
0.00101239
0.000803452
0.000589078
0.000370309
0.000148278
-7.07967e-05
-0.000219003
-0.000385802
-0.000611933
-0.000746399
-0.000844514
-0.000901816
-0.000890746
-0.000785242
0.00449364
0.0363855
0.00131358
0.00118858
0.00103403
0.000859438
0.000672321
0.000476761
0.00027523
7.0082e-05
-0.000134019
-0.000330997
-0.000514263
-0.000678782
-0.000823533
-0.00094807
-0.00104704
-0.00110433
-0.00109382
0.00958357
0.0415281
0.00111855
0.0010096
0.000874386
0.000719419
0.000550301
0.000370857
0.000183888
-8.05187e-06
-0.000201389
-0.000392034
-0.000576162
-0.000751372
-0.00091788
-0.00107762
-0.00123337
-0.00139497
-0.00147989
0.00765693
0.0426505
0.000950157
0.000853193
0.000732603
0.000593018
0.000438636
0.000272715
9.7864e-05
-8.35685e-05
-0.000269009
-0.000455901
-0.000642351
-0.000827992
-0.00101491
-0.00120798
-0.00141522
-0.00164646
-0.00189211
0.00018399
0.0438996
0.00080491
0.000717016
0.000607718
0.000480323
0.00033801
0.000183419
1.87624e-05
-0.000154019
-0.00033312
-0.00051706
-0.000705207
-0.000898478
-0.00110014
-0.00131646
-0.00155844
-0.00184434
-0.0021813
-0.00250577
0.045226
0.000679953
0.000599047
0.000498607
0.000381031
0.000248707
0.000103711
-5.21757e-05
-0.000217432
-0.000390782
-0.000571377
-0.000759173
-0.000955452
-0.00116338
-0.0013886
-0.00164145
-0.00194106
-0.00229106
-0.00254896
0.0282264
0.000572895
0.000497452
0.0004041
0.000294575
0.000170661
3.39488e-05
-0.000114169
-0.000272506
-0.000440105
-0.000616349
-0.000801169
-0.000995295
-0.00120039
-0.00141903
-0.00165576
-0.00191793
-0.00218732
-0.00229816
-0.0022038
0.00048165
0.000410539
0.000322967
0.000220186
0.000103505
-2.58858e-05
-0.000166914
-0.000318639
-0.000480249
-0.000651078
-0.000830616
-0.00101845
-0.0012139
-0.00141519
-0.00161852
-0.00181414
-0.00195727
-0.00189157
-0.00100352
0.00040432
0.000336689
0.000253933
0.000156935
4.66262e-05
-7.61291e-05
-0.000210525
-0.000355801
-0.000511195
-0.000675854
-0.000848681
-0.001028
-0.00121089
-0.00139186
-0.00156092
-0.00169767
-0.00174681
-0.00158744
0.0103685
0.000339124
0.000274333
0.00019569
0.000103786
-7.50613e-07
-0.000117338
-0.0002454
-0.00038433
-0.000533388
-0.000691531
-0.000857115
-0.0010274
-0.00119771
-0.00136011
-0.00150164
-0.00159961
-0.0016033
-0.00142
0.0126759
0.000284356
0.000221938
0.000146922
5.96604e-05
-3.9483e-05
-0.000150178
-0.000272071
-0.000404715
-0.00054743
-0.000699049
-0.000857525
-0.0010193
-0.00117835
-0.00132498
-0.00144453
-0.00151431
-0.00149024
-0.00130045
0.0121477
0.000238378
0.000178028
0.000106352
2.34929e-05
-7.04267e-05
-0.000175322
-0.000291075
-0.000417439
-0.000553866
-0.000699198
-0.000851177
-0.00100567
-0.00115555
-0.00128933
-0.00138971
-0.00143017
-0.00136421
-0.00113594
-8.76146e-05
0.000199634
0.000141206
7.27797e-05
-5.70484e-06
-9.43633e-05
-0.000193364
-0.000302852
-0.000422842
-0.000553034
-0.000692466
-0.000838949
-0.000988141
-0.00113219
-0.00125793
-0.00134457
-0.00135845
-0.00124287
-0.000947776
0.00011484
0.000166664
0.000110189
4.51284e-05
-2.8794e-05
-0.000111941
-0.000204749
-0.00030766
-0.000421025
-0.000544928
-0.000678846
-0.00082105
-0.000967586
-0.0011107
-0.00123658
-0.00132228
-0.001329
-0.00119191
-0.000863661
0.0123802
0.000138131
8.38405e-05
2.24834e-05
-4.6465e-05
-0.000123633
-0.000209736
-0.000305537
-0.000411783
-0.000529077
-0.000657594
-0.000796517
-0.000943044
-0.00109074
-0.00122674
-0.0013282
-0.0013547
-0.00123556
-0.000908605
0.0145085
0.000112838
6.12047e-05
4.13183e-06
-5.92061e-05
-0.000129716
-0.000208386
-0.000296291
-0.000394599
-0.000504519
-0.000627135
-0.000762981
-0.000911256
-0.00106819
-0.00122376
-0.0013574
-0.00142877
-0.00135758
-0.00103888
0.0147941
8.97619e-05
4.15479e-05
-1.04091e-05
-6.72942e-05
-0.000130287
-0.000200602
-0.000279572
-0.000368739
-0.000469919
-0.000585209
-0.000716844
-0.000866799
-0.00103541
-0.00121788
-0.00139905
-0.0015405
-0.00154703
-0.00124232
0.0147689
6.80921e-05
2.44071e-05
-2.13679e-05
-7.08063e-05
-0.00012531
-0.000186219
-0.000255003
-0.000333443
-0.000423832
-0.000529201
-0.000653575
-0.000802171
-0.000980826
-0.00119316
-0.00143492
-0.00167115
-0.00180432
-0.00152745
0.0105989
4.73902e-05
9.77333e-06
-2.85625e-05
-6.94996e-05
-0.000114527
-0.000164944
-0.000222164
-0.000287974
-0.000364842
-0.000456365
-0.000568
-0.000708041
-0.000888068
-0.00112386
-0.00142928
-0.00177365
-0.00212645
-0.00193292
0.00962982
2.80266e-05
-1.46771e-06
-3.09935e-05
-6.24245e-05
-9.70778e-05
-0.000135982
-0.000180245
-0.000231324
-0.00029138
-0.00036384
-0.000454437
-0.000572876
-0.00073502
-0.000967427
-0.00131126
-0.00182119
-0.00253798
-0.00252318
0.00917945
1.11149e-05
-8.25633e-06
-2.7921e-05
-4.92069e-05
-7.29245e-05
-9.95967e-05
-0.000129778
-0.000164251
-0.000204282
-0.00025209
-0.000311802
-0.000391337
-0.000505533
-0.000683757
-0.0009974
-0.00163651
-0.00292915
-0.00341942
0.00797483
-5.44232e-06
-1.61202e-05
-2.70591e-05
-3.91997e-05
-5.27667e-05
-6.7775e-05
-8.42086e-05
-0.000102089
-0.000121566
-0.000143121
-0.000168086
-0.000199984
-0.000247637
-0.00033245
-0.000516645
-0.00102869
-0.00249706
-0.00430795
0.00312549
)
;

boundaryField
{
    leftWall
    {
        type            fixedFluxPressure;
        gradient        uniform 0;
        value           nonuniform List<scalar> 
50
(
772.537
772.548
772.589
772.666
772.78
772.933
773.126
773.361
773.799
771.431
374.575
1.33388
1.8702
1.2671
0.200845
-0.0106742
-0.0090264
-0.00773781
-0.0066352
-0.00566975
-0.00481913
-0.00400722
-0.00318744
-0.00245942
-0.00171804
-0.00128824
-0.000917707
-0.000601127
-0.000333175
-0.000108056
-0.000258257
-0.00067076
-0.00055569
-0.000456178
-0.000376759
-0.000314114
-0.000265505
-0.000227241
-0.000198332
-0.000180226
-0.000161231
-0.000130722
-7.5021e-05
7.98447e-06
0.000130153
0.000302176
0.000551109
0.000769618
0.00104383
0.000835363
)
;
    }
    rightWall
    {
        type            fixedFluxPressure;
        gradient        uniform 0;
        value           nonuniform List<scalar> 
50
(
766.381
766.44
766.212
766.298
766.469
766.854
768.417
768.779
769.434
764.632
355.005
0.839903
1.49997
1.29902
0.468727
-0.00271126
-0.000146902
0.00131829
0.00213594
0.00264832
0.0188551
0.0356205
0.0185624
-0.00189859
-0.00172996
-0.00143233
-0.00100918
0.0025284
0.0363855
0.0415281
0.0426505
0.0438996
0.045226
0.0282264
-0.0022038
-0.00100352
0.0103685
0.0126759
0.0121477
-8.76146e-05
0.00011484
0.0123802
0.0145085
0.0147941
0.0147689
0.0105989
0.00962982
0.00917945
0.00797483
0.00312549
)
;
    }
    lowerWall
    {
        type            fixedFluxPressure;
        gradient        uniform 0;
        value           nonuniform List<scalar> 
62
(
772.537
772.447
772.185
771.734
771.1
770.298
769.341
768.245
767.029
765.713
764.32
762.874
761.398
759.907
758.409
756.914
755.479
754.218
753.255
752.506
752.075
752.073
751.989
751.989
752.031
751.953
751.861
751.754
751.628
751.456
751.04
751.747
751.792
751.891
752.159
755.65
755.597
755.681
756.779
756.651
756.414
756.087
755.688
755.65
756.11
756.618
757.132
757.673
758.254
758.953
759.666
760.24
760.582
760.85
761.656
762.464
762.386
764.681
765.901
765.996
766.378
766.381
)
;
    }
    atmosphere
    {
        type            totalPressure;
        rho             rho;
        psi             none;
        gamma           1;
        p0              uniform 0;
        value           nonuniform List<scalar> 
46
(
-0.000117321
0
0
0
0
0
0
0
0
0
0
0
0
0
0
0
0
0
0
0
-3.37996e-08
-9.60619e-07
-3.20522e-06
-5.64391e-06
-7.53794e-06
-9.66441e-06
-1.20087e-05
-1.64237e-05
-2.35344e-05
-3.16506e-05
-4.06617e-05
-5.04391e-05
-6.08256e-05
-7.16256e-05
-8.2593e-05
-9.34197e-05
-0.000103722
-0.000113025
-0.000120741
-0.000126114
-0.000128079
-0.000124861
-0.000112803
-8.36605e-05
-1.97899e-05
0
)
;
    }
    defaultFaces
    {
        type            empty;
    }
}


// ************************************************************************* //
