/*--------------------------------*- C++ -*----------------------------------*\
  =========                 |
  \\      /  F ield         | OpenFOAM: The Open Source CFD Toolbox
   \\    /   O peration     | Website:  https://openfoam.org
    \\  /    A nd           | Version:  9
     \\/     M anipulation  |
\*---------------------------------------------------------------------------*/
FoamFile
{
    format      ascii;
    class       volScalarField;
    location    "19";
    object      p;
}
// * * * * * * * * * * * * * * * * * * * * * * * * * * * * * * * * * * * * * //

dimensions      [0 2 -2 0 0 0 0];

internalField   nonuniform List<scalar> 
918
(
23.4657
23.5829
0.964663
22.8831
1.00771
23.0994
3.28549
13.7866
19.2389
2.93588
2.6263
14.405
20.6423
16.8837
13.0007
0.923596
14.0504
2.25848
18.4565
1.40122
12.9978
20.4444
21.5331
19.2807
14.1181
14.3786
18.6047
1.15736
0.110477
0.261827
0.975326
0.408534
0.148898
21.6363
22.3129
22.2513
15.4916
10.4111
3.60783
3.8113
2.99566
2.82008
13.8288
13.9285
5.87122
13.766
13.7622
16.6405
19.1069
19.2505
19.5438
19.3328
19.7191
5.97652
2.78928
2.61003
2.87718
2.95007
2.97717
2.69915
2.67998
2.48502
2.33909
13.8845
14.478
14.5332
14.2644
14.2121
22.459
21.702
22.0368
21.1431
21.2885
20.2184
19.8329
17.2594
17.6119
16.4856
16.1048
12.7911
12.7523
13.2206
13.4702
0.146962
1.07246
1.2206
14.0572
14.0934
14.0941
14.1088
8.29841
2.20089
2.20437
17.8969
17.4734
20.4783
20.7455
20.1925
20.007
1.53479
1.53008
1.15795
1.18598
0.954528
13.3383
13.492
19.2321
18.399
14.1515
14.0516
14.1265
11.4972
13.9071
13.9805
15.3285
15.784
14.9732
15.4097
18.1746
17.7566
19.0412
19.4785
0.396973
0.156522
0.686594
0.317874
0.515874
15.3599
15.1545
15.6074
15.6583
15.8895
10.4153
10.3448
10.3907
10.3108
4.15706
4.47127
2.26894
2.5848
2.4356
9.88044
13.9444
13.9907
4.81717
5.52012
5.18457
6.35224
6.72611
16.0062
16.4427
16.1815
17.7278
16.9327
17.2809
19.8099
19.2991
19.5996
6.3732
6.60996
5.61037
5.2514
2.24891
2.49431
2.43746
2.98158
2.95933
3.21181
3.34229
2.69324
2.55045
2.89314
2.77729
2.8286
2.16931
2.03928
13.6086
13.3947
14.1475
14.3261
15.0931
14.9447
14.6514
14.8201
19.0279
19.4314
19.4649
19.0807
11.5519
10.1596
13.7246
14
0.30256
0.2664
0.13775
0.379986
0.400205
0.141567
2.01168
1.82314
1.40262
1.67812
14.0544
14.014
8.53956
8.75973
8.13459
7.87721
16.311
16.4613
17.0954
16.6952
1.96631
1.68037
1.80982
13.6537
13.5269
13.6334
10.9324
10.3663
11.9747
12.2444
13.9891
14.0326
14.0287
15.6881
16.0066
19.8293
20.1
19.9268
20.3126
21.3754
21.0267
20.6419
14.5358
14.9442
14.7826
16.1247
15.7583
15.9778
15.1857
15.4904
15.3483
10.376
10.4218
10.1317
10.2092
10.2561
10.2037
9.81825
9.69149
14.0764
14.0321
14.0558
7.25322
7.75089
4.86988
4.54045
12.5406
13.2138
12.8894
18.6577
17.98
18.713
18.3421
17.8921
18.2157
10.4322
10.393
10.4266
14.9241
14.2621
14.6139
2.4346
2.07115
2.23406
8.95621
9.049
6.97995
7.59966
7.26148
16.3082
16.6486
17.3287
16.4405
16.9081
17.4154
17.1935
9.9534
10.0851
10.0024
9.67606
9.56966
9.73342
8.33526
8.9481
3.60887
4.26727
3.96235
9.2171
9.44684
9.29397
18.6267
19.1615
0.770703
1.16259
19.5915
19.3152
0.140771
0.240911
14.2605
12.5577
7.26412
17.1938
16.6265
18.9663
3.19186
6.1052
2.80711
3.37913
2.68551
14.612
14.2463
13.3376
0.456436
1.25651
1.70972
2.90635
18.4071
17.7319
18.848
19.1681
19.2225
0.689632
0.917802
0.585154
1.24586
1.03408
1.27765
15.5476
15.6456
4.33229
18.855
19.1593
19.177
17.6538
18.6064
17.6639
0.93536
0.641558
0.7083
10.0787
12.119
14.2206
13.7732
13.9703
13.9924
13.7434
14.8766
14.5462
14.511
14.9958
13.9666
13.8229
7.73376
6.38511
8.06895
7.70905
17.0952
16.6831
16.4901
16.2357
18.0815
17.6075
18.4579
17.8463
18.3081
18.595
2.94075
3.13133
3.01327
2.52426
6.14482
6.61374
5.48907
5.63655
4.25868
2.4286
2.52683
2.75157
2.5839
2.93
2.67843
2.94157
2.57658
2.32308
2.31912
2.92824
2.73681
2.60172
14.5903
14.5288
14.3297
14.3678
14.3505
14.4662
13.532
13.9366
13.5643
12.396
12.9767
12.504
0.825522
0.658279
0.526001
1.32465
1.35151
1.11225
0.837891
1.17771
1.203
0.819046
1.54429
1.44821
3.16204
2.65402
8.85613
7.98331
6.89961
16.7971
17.5989
16.7686
18.0093
18.4262
18.5317
18.1521
17.6439
15.7263
15.7214
15.3815
15.3349
4.77303
3.74106
4.9709
4.54064
10.4852
14.0628
11.84
10.8016
11.0975
13.4206
13.9362
13.5878
13.7255
13.2997
12.8282
13.5207
13.0541
13.1552
12.9338
15.7248
16.1999
15.8064
15.2269
15.2469
10.6041
12.0156
5.46894
5.6417
7.24193
6.53763
13.5144
13.9326
13.9169
13.5579
13.7465
13.7452
13.6062
13.7799
13.8611
13.7551
11.8211
10.1417
9.04379
9.0375
14.0752
12.3439
12.9287
12.4099
16.117
16.6334
16.2481
15.6427
16.1277
15.5995
15.6267
15.8398
17.1981
16.9477
16.7174
17.1043
3.05344
3.00166
3.64373
3.13663
3.03783
2.82509
3.48323
4.75537
4.41343
6.72018
7.26794
4.57656
3.37288
3.79007
4.8024
5.53912
5.51319
3.96878
4.50118
4.92715
4.43971
5.22694
4.73045
2.71851
3.02172
2.86069
2.8355
3.38079
3.87846
3.37405
2.47933
2.59048
2.25762
2.12076
3.53204
2.99165
3.02788
3.67559
1.10425
1.32775
1.44143
2.41317
1.91082
1.97638
15.179
14.8231
14.9567
14.2359
14.3035
14.2446
13.8689
15.2366
14.9587
15.0581
13.7066
13.7934
13.6067
13.902
14.3177
14.6169
15.4489
15.1699
14.409
14.5601
14.2111
14.1393
13.4615
12.8984
12.8379
1.11185
0.820492
0.983731
0.914248
0.61005
0.802785
2.18192
1.57123
1.96886
1.72619
1.95873
1.40692
1.30189
4.25131
5.05495
3.96886
3.36977
3.07489
8.91303
9.02537
8.17221
7.86587
8.20836
8.44103
8.39103
7.14307
7.57414
7.38576
9.92885
9.59528
17.5833
17.5274
17.1986
17.0397
17.2661
5.75705
7.66158
6.79741
7.91594
10.2136
10.5113
9.31337
8.71008
9.46475
9.53998
14.0446
14.1209
13.5613
14.0472
14.0756
11.8316
12.8792
13.4937
13.3079
13.8283
13.9094
12.971
13.5593
13.4738
12.756
12.8094
12.1248
12.4631
11.9909
11.7903
14.0525
13.9473
14.217
13.7678
14.1471
13.7116
14.0267
14.0249
14.3056
13.4073
12.8288
12.8476
13.2735
12.9733
13.3194
13.4832
9.30684
9.95022
10.3925
10.9287
10.6374
10.4178
10.2851
10.5866
10.5645
10.8344
10.7541
10.6041
11.5602
13.4221
13.7066
13.8091
13.6026
13.6487
13.3414
13.6154
13.5439
13.9182
14.0068
14.0561
13.1372
13.2946
13.4909
13.3739
11.6732
10.0905
9.94495
9.50521
7.57395
8.04486
11.0208
9.89943
8.91564
8.9869
12.1656
10.8029
11.6159
12.0388
10.6905
10.303
12.9684
13.7573
13.977
13.7003
12.0566
12.1826
12.6325
13.0767
13.2665
13.7234
15.8569
16.4325
16.5104
16.2345
16.0965
16.1963
15.9464
16.0495
16.5235
16.6501
16.4813
2.8792
2.99183
2.92226
2.84808
3.08314
2.85864
3.95013
3.93997
3.1536
3.33402
3.35359
3.46111
2.9284
2.97164
4.82247
5.05795
5.33062
4.83021
6.17222
6.82219
7.40508
7.08607
5.78656
5.86831
6.18572
3.50355
3.53158
3.24982
3.705
3.75878
2.61058
2.23911
2.04314
2.56094
2.6638
2.05012
1.77044
1.8197
2.33113
2.05329
1.80741
14.9717
14.73
14.7514
14.5312
14.5858
14.9806
15.2014
15.0114
15.1498
15.2008
14.8
14.6888
14.8599
1.8189
1.49006
1.62389
1.58163
1.63988
1.54857
1.73563
7.60942
6.41234
6.79881
5.97739
4.12073
4.64028
9.54963
9.97261
10.0108
9.72443
9.51288
9.87813
9.72966
9.72319
8.26699
9.34203
8.87354
9.27642
9.29676
9.36564
9.07604
9.0785
10.5835
10.6162
9.48092
10.1225
9.32858
7.92935
8.09656
9.10998
10.0836
10.4123
10.2556
9.98272
9.75461
10.1223
10.1769
10.238
10.228
8.75222
8.70879
8.30868
13.9664
13.8732
14.0198
14.0248
14.1521
13.9756
13.8126
14.09
14.1444
13.9285
11.0823
11.142
11.3874
12.1358
12.1877
12.0937
11.3385
13.1046
12.7587
13.3986
13.3443
13.4147
13.0036
12.8277
13.0993
10.0774
11.4497
10.9818
11.2463
10.0603
9.30472
13.2214
13.2752
13.3416
13.615
13.572
14.1562
15.8268
15.6967
15.7441
15.7871
15.3988
15.436
4.1725
3.82596
4.54419
4.50202
4.06099
3.76209
2.28772
1.96997
1.7835
1.65703
1.88893
1.94848
8.15989
8.19103
6.33001
7.35569
5.87495
4.93594
4.79278
5.95111
7.13331
7.19454
8.51925
9.20149
8.75866
8.58513
7.92521
8.25733
10.1278
10.2208
10.1219
10.4404
9.9732
11.7175
11.3
11.649
13.2639
12.9719
12.3736
12.2607
12.2259
12.8198
11.9444
11.1748
11.8883
12.5462
12.5041
11.1228
10.878
11.3042
11.2867
10.2005
10.7223
10.4844
10.8358
10.5494
)
;

boundaryField
{
    wall-4
    {
        type            zeroGradient;
    }
    velocity-inlet-5
    {
        type            zeroGradient;
    }
    velocity-inlet-6
    {
        type            zeroGradient;
    }
    pressure-outlet-7
    {
        type            fixedValue;
        value           uniform 0;
    }
    wall-8
    {
        type            zeroGradient;
    }
    frontAndBackPlanes
    {
        type            empty;
    }
}


// ************************************************************************* //
