/*--------------------------------*- C++ -*----------------------------------*\
  =========                 |
  \\      /  F ield         | OpenFOAM: The Open Source CFD Toolbox
   \\    /   O peration     | Website:  https://openfoam.org
    \\  /    A nd           | Version:  9
     \\/     M anipulation  |
\*---------------------------------------------------------------------------*/
FoamFile
{
    format      ascii;
    class       volScalarField;
    location    "5.01";
    object      epsilon;
}
// * * * * * * * * * * * * * * * * * * * * * * * * * * * * * * * * * * * * * //

dimensions      [0 2 -3 0 0 0 0];

internalField   nonuniform List<scalar> 
2268
(
0.000550286
0.00279002
0.00483537
0.00664979
0.00825772
0.00968574
0.0109669
0.0121335
0.0132069
0.0141949
0.0151028
0.0159286
0.0166668
0.0172975
0.0177514
0.0177998
0.0167936
0.0147002
0.0122623
0.0104757
0.00879512
0.0057951
0.00127402
0.00110146
0.00188311
0.00273574
0.0035226
0.00422905
0.00485948
0.00542347
0.0059314
0.00639204
0.00681169
0.00719465
0.00754014
0.00784266
0.00809003
0.00825311
0.00826082
0.00797784
0.00753197
0.00683873
0.00602166
0.00500778
0.00373979
0.00240495
0.00184091
0.00200523
0.0025634
0.00312228
0.00363655
0.00409934
0.0045134
0.00488417
0.00521744
0.00551848
0.00579117
0.00603568
0.00624797
0.00641896
0.00652969
0.00654225
0.00640599
0.00617222
0.00579157
0.00529929
0.00470309
0.0040529
0.0041065
0.00255411
0.00224834
0.00263841
0.00308267
0.003506
0.00389197
0.00423875
0.00454912
0.00482729
0.00507769
0.00530383
0.00550647
0.00568285
0.00582621
0.00592333
0.00595099
0.0058838
0.00573897
0.0054992
0.00520128
0.0049003
0.00472834
0.00608856
0.00322634
0.00252286
0.00278817
0.00315456
0.00351919
0.00385714
0.00416282
0.0044371
0.00468314
0.00490475
0.0051052
0.00528572
0.00544465
0.00557718
0.00567412
0.00572053
0.00570115
0.00561892
0.00547772
0.00532739
0.00527465
0.00557971
0.0085133
0.00386482
0.00280764
0.00297065
0.00327692
0.00359786
0.00390082
0.00417699
0.00442577
0.00464965
0.00485205
0.00503619
0.00520371
0.0053539
0.00548358
0.00558648
0.00565293
0.00567245
0.00564425
0.00558525
0.00556037
0.00573328
0.00657211
0.0115582
0.00448239
0.00309729
0.0031713
0.00342806
0.00371399
0.00398911
0.00424174
0.00447022
0.00467675
0.00486468
0.00503731
0.0051967
0.00534291
0.00547404
0.0055859
0.00567181
0.00572482
0.00574537
0.00575799
0.00584128
0.00621696
0.00767862
0.0162327
0.00510935
0.00339245
0.00338442
0.00359881
0.00385557
0.00410728
0.00433958
0.00455017
0.00474153
0.00491729
0.00508096
0.00523493
0.00537985
0.00551483
0.00563681
0.005741
0.00582318
0.00588671
0.00596033
0.00613045
0.00665738
0.00871542
0.0268558
0.00119904
0.00588214
0.00936962
0.0112409
0.0120209
0.0122097
0.0121615
0.0121073
0.012452
0.0124694
0.0104771
0.00829657
0.00656932
0.0085018
0.0116971
0.0108697
0.00819769
0.00491991
0.00207067
0.00165055
0.0035463
0.00482777
0.00552955
0.00585244
0.00595299
0.00594885
0.00589673
0.00589757
0.00577843
0.00525943
0.00479224
0.00431372
0.0045829
0.00501249
0.0046902
0.00387422
0.00298192
0.00239551
0.00282322
0.0036542
0.00431427
0.00465453
0.00480462
0.00484298
0.00482381
0.00477769
0.00472859
0.00459109
0.00430039
0.00404333
0.00378585
0.0038286
0.00389697
0.00364437
0.00313242
0.00264028
0.00312
0.00423733
0.00419835
0.0044106
0.00449827
0.00451815
0.0044967
0.00445201
0.00439566
0.00432328
0.00417765
0.00395757
0.00377125
0.0036347
0.00363446
0.00357159
0.00330969
0.00288837
0.00255421
0.00358079
0.00591839
0.00495568
0.00471867
0.0045785
0.00448145
0.00440017
0.0043245
0.00424941
0.00415732
0.00400536
0.00381914
0.0036859
0.00362811
0.0036155
0.00349305
0.00320164
0.00279938
0.0025264
0.0038064
0.00816261
0.00586264
0.00511846
0.00476102
0.00455606
0.00441669
0.0043072
0.00420885
0.00409733
0.00394071
0.00377869
0.00369068
0.00367668
0.00365511
0.00351234
0.00319159
0.00277542
0.00249846
0.00379239
0.0117497
0.0068494
0.00553842
0.00498594
0.00468602
0.00449251
0.00434861
0.00422509
0.00409489
0.00393568
0.0037921
0.00373315
0.00373465
0.00370718
0.00356341
0.0032238
0.0027852
0.00246778
0.00354321
0.0196863
0.00772397
0.00591627
0.00521964
0.00484321
0.00460172
0.00442482
0.00427629
0.00412902
0.00396837
0.0038363
0.00378612
0.00378305
0.00374985
0.00361388
0.00327017
0.00281355
0.00246754
0.00327134
0.00597021
0.0038233
0.00371456
0.00387844
0.00410024
0.00432245
0.004527
0.00471178
0.00488108
0.00503977
0.00519182
0.00533993
0.0054854
0.00562841
0.00576671
0.00589749
0.00601958
0.00614055
0.00629142
0.00655526
0.00715303
0.00874378
0.0139819
0.00709377
0.00441046
0.00419481
0.00431527
0.00450773
0.0046996
0.00486615
0.00501027
0.00514452
0.00527778
0.00541419
0.0055558
0.00570389
0.00585831
0.00601742
0.00617855
0.00634011
0.00650856
0.00670856
0.00699847
0.00750345
0.00847405
0.0103956
0.00818072
0.00503327
0.00472113
0.00482386
0.00500584
0.00517604
0.00529171
0.00537455
0.00545919
0.00555926
0.00567586
0.00580837
0.00595736
0.00612289
0.00630333
0.00649363
0.00668699
0.00688459
0.00710304
0.00737574
0.00776868
0.00836864
0.00922628
0.00969336
0.00573949
0.00529615
0.00541737
0.00559482
0.00575587
0.00579917
0.00578949
0.00581059
0.00587332
0.00596714
0.00608691
0.00623325
0.00640993
0.00661673
0.00684353
0.00706344
0.00727901
0.00751549
0.00775303
0.00805852
0.00848328
0.0090758
0.0119656
0.00619282
0.00573992
0.00580535
0.0058278
0.00597918
0.00603713
0.00603385
0.00606319
0.00614121
0.00625008
0.00637953
0.00652876
0.0067155
0.00695961
0.00724933
0.00747504
0.00765241
0.00794041
0.00818393
0.00840613
0.00868517
0.00908642
0.0122013
0.00634891
0.00586618
0.0059095
0.00594071
0.00611289
0.00621762
0.0061564
0.00618416
0.00628898
0.00643535
0.00660238
0.00678439
0.00700884
0.00732272
0.00773261
0.0079077
0.0079956
0.0082298
0.00847852
0.00866952
0.00875843
0.00897664
0.0106349
0.00616851
0.00584414
0.0059449
0.00592862
0.00606342
0.00617969
0.00621283
0.00626943
0.00638053
0.00653095
0.00670466
0.00689872
0.00712935
0.00741142
0.00774287
0.00793329
0.00797138
0.00813594
0.00831471
0.00846655
0.00862122
0.00881924
0.00974764
0.00606584
0.00569578
0.00575168
0.00586998
0.00597569
0.00609818
0.00620915
0.0063157
0.00643909
0.00658092
0.00673615
0.00690251
0.00708658
0.00729254
0.00751253
0.00768557
0.00779115
0.00794707
0.00811681
0.00827899
0.00841126
0.00842732
0.00993454
0.00609586
0.00566206
0.00568077
0.00579687
0.00590284
0.00602481
0.00615949
0.00629631
0.00643554
0.00657767
0.00672222
0.00686956
0.00702257
0.0071818
0.00734043
0.00748191
0.00761299
0.00776749
0.00792602
0.00803834
0.00805722
0.00799785
0.0104534
0.00618407
0.00567417
0.00565044
0.00574574
0.00585583
0.00597859
0.00611608
0.00625975
0.00640405
0.00654664
0.00668659
0.00682345
0.00695814
0.00708983
0.00721435
0.00732806
0.00744022
0.00756145
0.00767228
0.00773024
0.00771491
0.00765819
0.0110977
0.00632971
0.00572369
0.0056504
0.00571815
0.00582325
0.00594456
0.00607849
0.00621874
0.00635975
0.00649789
0.00663106
0.00675827
0.00687928
0.00699291
0.00709666
0.00718996
0.00727776
0.00736245
0.00743045
0.00745815
0.00743925
0.0073915
0.0118033
0.00651634
0.00580035
0.00567317
0.00570907
0.00580022
0.00591438
0.00604108
0.00617366
0.00630677
0.00643645
0.00656058
0.00667807
0.00678823
0.00688969
0.0069806
0.00706038
0.00713046
0.00719023
0.00723204
0.00724509
0.00722685
0.00718383
0.0124946
0.00671921
0.00589102
0.00570928
0.00571192
0.00578387
0.00588596
0.0060026
0.00612547
0.00624891
0.00636915
0.00648417
0.00659298
0.00669463
0.0067877
0.00687051
0.00694182
0.00700108
0.00704687
0.00707541
0.00708178
0.00706424
0.00702418
0.0131132
0.00691598
0.0059829
0.00574927
0.00571961
0.00577063
0.00585824
0.0059634
0.00607604
0.00619
0.00630163
0.00640896
0.00651082
0.00660611
0.0066934
0.00677099
0.00683726
0.00689079
0.00693005
0.00695298
0.00695712
0.00694098
0.00690414
0.0136242
0.00708877
0.00606511
0.00578507
0.00572584
0.00575666
0.0058297
0.00592342
0.00602646
0.00613228
0.00623705
0.0063386
0.00643553
0.00652655
0.00661019
0.00668476
0.00674852
0.00679985
0.00683721
0.00685915
0.00686413
0.00685089
0.00681854
0.0140266
0.00722921
0.00613074
0.00581109
0.00572611
0.0057389
0.0057987
0.00588223
0.00597725
0.00607676
0.00617669
0.00627455
0.00636864
0.0064575
0.00653961
0.0066133
0.00667687
0.00672871
0.00676735
0.00679151
0.00679996
0.00679157
0.00676546
0.0143402
0.00733655
0.00617648
0.00582415
0.00571787
0.00571558
0.00576432
0.00583964
0.00592865
0.00602397
0.00612119
0.00621751
0.00631097
0.00639993
0.00648281
0.00655797
0.00662378
0.00667871
0.00672134
0.00675043
0.00676482
0.00676345
0.0067455
0.0146027
0.00741219
0.00620148
0.00582324
0.00570014
0.00568604
0.00572636
0.00579585
0.00588114
0.00597453
0.00607131
0.00616841
0.00626363
0.00635517
0.00644137
0.00652064
0.00659139
0.00665213
0.00670145
0.0067381
0.00676089
0.00676879
0.00676095
0.0148109
0.00745683
0.00620634
0.00580845
0.00567293
0.00565043
0.00568522
0.00575151
0.00583558
0.00592949
0.0060283
0.0061287
0.0062283
0.00632516
0.00641757
0.00650388
0.00658253
0.006652
0.00671088
0.00675781
0.00679156
0.00681103
0.00681533
0.0149435
0.00747107
0.00619202
0.00578051
0.00563685
0.00560943
0.00564174
0.00570762
0.00579317
0.00589027
0.00599379
0.00610028
0.00620718
0.00631242
0.00641419
0.00651079
0.00660059
0.00668201
0.00675352
0.00681368
0.00686112
0.00689463
0.00691322
0.0150003
0.00745647
0.00615985
0.0057405
0.0055929
0.00556405
0.00559701
0.00566545
0.00575537
0.00585856
0.00596978
0.00608544
0.00620286
0.00631985
0.00643449
0.00654496
0.00664951
0.00674641
0.00683398
0.0069106
0.00697475
0.00702506
0.0070604
0.0149804
0.00741469
0.00611139
0.0056898
0.00554233
0.00551553
0.00555236
0.00562646
0.00572385
0.00583627
0.00595844
0.00608668
0.00621821
0.00635072
0.00648213
0.00661046
0.00673378
0.00685015
0.00695767
0.00705447
0.00713881
0.0072091
0.00726402
0.0148885
0.0073481
0.00604843
0.00562992
0.00548655
0.00546527
0.00550925
0.00559227
0.00570041
0.00582547
0.00596216
0.00610677
0.00625642
0.00640866
0.00656125
0.00671199
0.0068587
0.00699915
0.00713112
0.00725245
0.00736107
0.00745514
0.00753306
0.0147357
0.00725978
0.00597293
0.00556252
0.00542711
0.00541482
0.0054693
0.00556461
0.00568701
0.0058284
0.00598355
0.00614874
0.00632101
0.0064978
0.00667664
0.00685508
0.00703058
0.00720056
0.00736236
0.00751342
0.00765127
0.00777368
0.00787876
0.0145313
0.00715285
0.00588696
0.00548935
0.00536567
0.00536586
0.00543428
0.0055454
0.00568578
0.0058475
0.00602546
0.00621596
0.00641602
0.00662292
0.00683397
0.00704637
0.00725715
0.00746322
0.00766138
0.0078485
0.00802159
0.00817795
0.00831526
0.0142837
0.00703033
0.00579267
0.00541232
0.00530408
0.00532022
0.00540608
0.0055367
0.00569903
0.00588545
0.00609105
0.00631226
0.00654609
0.00678967
0.00704004
0.00729397
0.00754793
0.00779814
0.00804069
0.00827169
0.00848744
0.00868461
0.00886037
0.0140004
0.00689499
0.00569225
0.00533344
0.00524428
0.00527986
0.00538675
0.00554072
0.00572925
0.00594515
0.00618386
0.00644199
0.0067166
0.00700473
0.00730306
0.00760783
0.00791474
0.00821913
0.00851608
0.00880067
0.00906827
0.00931471
0.00953642
0.0136852
0.00674893
0.00558785
0.00525488
0.00518841
0.00524693
0.00537849
0.00555981
0.0057791
0.00602979
0.00630779
0.00661007
0.00693385
0.00727605
0.00763297
0.00800014
0.00837228
0.00874347
0.00910741
0.0094578
0.00978867
0.0100945
0.0103709
0.0133293
0.0065933
0.00548185
0.00517909
0.00513882
0.00522368
0.00538356
0.0055964
0.00585136
0.00614272
0.0064671
0.00682203
0.00720503
0.00761298
0.00804172
0.00848585
0.00893875
0.00939278
0.00983969
0.0102712
0.0106794
0.011057
0.0113989
0.012919
0.00643115
0.00537762
0.00510896
0.00509805
0.00521247
0.00540431
0.00565297
0.00594885
0.00628741
0.0066663
0.00708391
0.00753828
0.00802635
0.00854344
0.00908298
0.00963646
0.0101939
0.0107441
0.0112763
0.0117792
0.0122441
0.0126644
0.0124936
0.00627578
0.00528057
0.00504783
0.00506876
0.00521568
0.00544301
0.00573186
0.00607427
0.00646724
0.00690995
0.00740204
0.00794243
0.00852834
0.00915451
0.00981286
0.0104924
0.0111796
0.0118596
0.0125169
0.0131369
0.0137079
0.0142216
0.0120963
0.00613463
0.00519454
0.00499867
0.0050535
0.00523561
0.00550178
0.00583519
0.00622995
0.00668519
0.00720221
0.00778253
0.0084265
0.00913192
0.00989307
0.0107
0.0115383
0.0123897
0.0132335
0.0140479
0.014813
0.0155131
0.0161382
0.0116911
0.00599723
0.00511795
0.00496239
0.00505404
0.00527419
0.00558247
0.00596469
0.00641769
0.00694353
0.00754642
0.00823065
0.00899875
0.0098498
0.0107779
0.011771
0.0128102
0.0138707
0.0149233
0.0159367
0.016883
0.017741
0.0184982
0.0112696
0.00586101
0.00505112
0.00494079
0.00507252
0.0053333
0.0056864
0.00612108
0.00663783
0.00724259
0.00794358
0.00874898
0.00966474
0.0106923
0.0118263
0.0130528
0.0143477
0.0156768
0.0169984
0.018267
0.0194416
0.0204928
0.0214061
0.0108135
0.00572569
0.00499666
0.00493762
0.00511259
0.00541559
0.00581484
0.00630422
0.00688901
0.00758019
0.00839127
0.00933582
0.0104249
0.0116641
0.0130506
0.0145693
0.0161906
0.0178684
0.0195419
0.0211427
0.0226082
0.0238968
0.0249923
0.0102902
0.00559107
0.00496144
0.0049612
0.0051811
0.00552527
0.00596908
0.00651269
0.00716741
0.00795042
0.00888193
0.00998266
0.0112711
0.01276
0.0144521
0.0163349
0.0183747
0.0205106
0.0226536
0.0246961
0.0265376
0.0281175
0.029422
0.00965007
0.00546552
0.00496633
0.00503101
0.00529158
0.00566933
0.0061505
0.00674326
0.00746583
0.00834241
0.00940103
0.0106714
0.0121825
0.0139585
0.0160138
0.0183457
0.0209224
0.0236688
0.0264545
0.0291025
0.0314375
0.0333719
0.0349064
0.00883718
0.00541267
0.00507763
0.00519312
0.00546981
0.00585858
0.0063599
0.00698983
0.00777268
0.00873917
0.00992552
0.0113721
0.0131215
0.0152154
0.0176896
0.0205646
0.0238272
0.0273984
0.0310935
0.0346069
0.0375997
0.0399523
0.0417173
0.00831532
0.0058098
0.005507
0.00555165
0.00575969
0.00610607
0.00659491
0.00724158
0.00807088
0.00911704
0.0104234
0.0120416
0.014031
0.0164575
0.0193915
0.0229
0.0270228
0.031716
0.0367478
0.0415806
0.0454534
0.0482575
0.0502018
0.0186423
0.00898102
0.00692937
0.00631734
0.00621805
0.00641689
0.00684359
0.00748003
0.0083372
0.00944637
0.010855
0.0126254
0.0148349
0.0175793
0.0209776
0.0251742
0.0303232
0.0365186
0.0435897
0.0506545
0.0556594
0.058826
0.0607874
0.161672
0.0283165
0.0113034
0.00779796
0.00686035
0.00675989
0.00707337
0.00767604
0.00854284
0.00969408
0.0111776
0.0130634
0.0154454
0.0184493
0.0222489
0.0270914
0.0333226
0.0413769
0.0515774
0.0631069
0.0692534
0.072338
0.0739588
1.53886
0.129524
0.0223895
0.00991862
0.00749056
0.00702348
0.00722313
0.00779117
0.00865722
0.00982875
0.0113518
0.0133005
0.0157787
0.0189319
0.0229746
0.0282417
0.0352857
0.0450727
0.0594306
0.0821794
0.0877347
0.0894814
0.0901761
0.0365284
0.0278506
0.0254037
0.0283582
0.0128594
0.0129374
0.0126283
0.0121199
0.0097891
0.00990696
0.00981382
0.00954322
0.00918186
0.00913104
0.00901712
0.0088653
0.009186
0.00907391
0.00884641
0.00864246
0.00897149
0.00880615
0.00864876
0.00850253
0.00866173
0.00859244
0.00850668
0.00834333
0.00830873
0.00824145
0.00815489
0.00804203
0.00793238
0.00788996
0.00783673
0.00776349
0.00760769
0.00757179
0.00752717
0.00746834
0.00734284
0.00730626
0.0072623
0.00720923
0.00713559
0.00709905
0.00705624
0.00700673
0.00697773
0.00694266
0.0069021
0.00685603
0.00686092
0.00682836
0.00679092
0.00674867
0.00677983
0.00675057
0.00671688
0.00667883
0.00673248
0.00670721
0.00667785
0.00664444
0.00671945
0.00669888
0.00667444
0.00664618
0.00674305
0.00672787
0.00670897
0.00668639
0.00680681
0.00679775
0.00678504
0.00676869
0.00691544
0.00691327
0.00690745
0.00689797
0.00707487
0.0070805
0.00708238
0.0070805
0.00729256
0.00730707
0.00731765
0.00732427
0.00757787
0.00760257
0.00762308
0.00763933
0.00794254
0.00797905
0.00801099
0.00803828
0.00840131
0.00845162
0.00849684
0.00853689
0.00897272
0.00903923
0.00909997
0.00915482
0.00967964
0.00976507
0.00984383
0.00991579
0.0105506
0.0106583
0.0107582
0.01085
0.0116218
0.0117556
0.01188
0.011995
0.0129379
0.0131022
0.0132552
0.0133967
0.0145544
0.0147541
0.0149396
0.0151112
0.0165398
0.01678
0.0170025
0.0172077
0.0189787
0.0192647
0.0195282
0.0197699
0.0219758
0.0223122
0.0226199
0.0229003
0.0256603
0.0260508
0.0264042
0.0267232
0.0301939
0.0306389
0.0310365
0.031391
0.0357794
0.0362737
0.0367082
0.0370895
0.0426714
0.0431995
0.043654
0.0440455
0.0511854
0.0517145
0.0521586
0.0525328
0.0616993
0.062173
0.062559
0.0628762
0.0746366
0.0749745
0.0752411
0.0754547
0.0904275
0.0905468
0.0906378
0.0907091
0.0122323
0.00798481
0.00635966
0.00556823
0.00510691
0.00480269
0.00457924
0.0043944
0.0042234
0.00405995
0.00393412
0.00387212
0.00384159
0.00379313
0.00366877
0.00334007
0.00286867
0.00249113
0.0028521
0.00980379
0.00783436
0.00667504
0.00595613
0.00546462
0.00511399
0.00484832
0.0046277
0.00443164
0.004257
0.00411555
0.0040145
0.00393767
0.00386008
0.00373769
0.00347495
0.00309354
0.0028028
0.00299239
0.0088108
0.00773995
0.00692438
0.00632361
0.00582531
0.00545222
0.0051638
0.00491734
0.00469833
0.00450549
0.00434331
0.00421291
0.00410144
0.00399553
0.00388136
0.0037286
0.00357172
0.00359619
0.0044362
0.00857613
0.00783657
0.00723932
0.00677632
0.00621515
0.00583497
0.00554163
0.00526362
0.00501421
0.00479911
0.00462389
0.00448542
0.00435458
0.00422691
0.00414865
0.00414946
0.00426166
0.00468886
0.00702006
0.00835363
0.00784303
0.00743037
0.00709556
0.00654389
0.00625669
0.0059454
0.00557685
0.00526993
0.00502362
0.00483172
0.00469665
0.00458391
0.0044345
0.00435016
0.00437021
0.004492
0.00503892
0.010778
0.00830505
0.00795396
0.00762345
0.00731222
0.00681721
0.0064904
0.00614259
0.0057272
0.00538029
0.00510399
0.0048845
0.00471369
0.00456727
0.00442311
0.00433994
0.00436164
0.00452933
0.00523271
0.0100526
0.00813625
0.00780835
0.00756066
0.00738483
0.00690608
0.00658995
0.00623767
0.00582558
0.00547021
0.00517831
0.00493773
0.00474796
0.00458975
0.00443961
0.00436051
0.00441185
0.00466445
0.00510415
0.00815052
0.00784911
0.00756378
0.00733566
0.00715322
0.006826
0.00652698
0.00620599
0.00586866
0.00553635
0.00523793
0.00498077
0.00477017
0.0045956
0.00444269
0.00434142
0.00432567
0.00446884
0.00485488
0.00811762
0.00760221
0.00734556
0.00711161
0.0068877
0.00662505
0.006366
0.00610959
0.0058425
0.00554593
0.00525118
0.00499155
0.00477095
0.00458835
0.00443306
0.00429753
0.00420042
0.00422747
0.00466118
0.00889981
0.0073438
0.00712823
0.00690524
0.0066744
0.00643612
0.00620596
0.00598674
0.00576097
0.00549017
0.00521203
0.00496567
0.00474468
0.00456075
0.00440262
0.00424531
0.00409815
0.0040419
0.00438551
0.00816949
0.00710586
0.00692363
0.0067206
0.00650391
0.00628685
0.00607568
0.00587273
0.0056624
0.00541147
0.0051579
0.00492011
0.00469293
0.00449796
0.0043264
0.00415847
0.00399556
0.00388351
0.00407243
0.00671357
0.00691415
0.00675348
0.00657064
0.00637338
0.00617455
0.00597751
0.00578194
0.0055759
0.00534434
0.00510615
0.004871
0.00464395
0.00443735
0.00424759
0.00406741
0.00389635
0.00376117
0.00386816
0.0054534
0.00677122
0.00662595
0.00645998
0.00627976
0.00609477
0.00590782
0.00571775
0.00551701
0.00529878
0.00507197
0.00484952
0.00463325
0.00442598
0.00422736
0.00403522
0.00385489
0.00371215
0.00377823
0.00474372
0.00667126
0.0065392
0.00638761
0.0062217
0.00604796
0.00586925
0.0056849
0.00549075
0.0052851
0.00507529
0.00487098
0.00467154
0.00447561
0.004284
0.00410035
0.00394086
0.00385774
0.00406902
0.00546886
0.00660905
0.00648965
0.00635168
0.00619919
0.00603671
0.00586687
0.0056898
0.00550456
0.00531257
0.00511943
0.00493141
0.00474926
0.0045725
0.00440525
0.00425755
0.00415408
0.00417036
0.00458982
0.00697898
0.00658276
0.00647609
0.00635169
0.00621266
0.00606226
0.00590265
0.00573484
0.00555998
0.00538072
0.0052014
0.00502679
0.00485984
0.0047036
0.00456593
0.00446209
0.00442353
0.00453484
0.00513489
0.00870279
0.00659326
0.00649977
0.00638904
0.00626352
0.00612564
0.00597724
0.00581989
0.00565573
0.00548781
0.00531998
0.00515665
0.0050024
0.00486332
0.00475025
0.00468262
0.00469841
0.00489342
0.00565947
0.0103958
0.006643
0.00656331
0.00646645
0.0063544
0.00622908
0.00609222
0.00594565
0.00579183
0.00563396
0.00547572
0.00532166
0.00517736
0.00505074
0.00495474
0.00491189
0.00496638
0.00523096
0.00615367
0.0117342
0.00673566
0.00667048
0.00658781
0.00648923
0.00637641
0.00625099
0.00611491
0.00597075
0.00582154
0.00567107
0.00552408
0.00538676
0.00526807
0.00518232
0.0051542
0.0052321
0.00553846
0.00654405
0.0125118
0.00687621
0.00682643
0.00675842
0.0066735
0.00657312
0.00645889
0.00633276
0.00619729
0.00605531
0.00591073
0.00576845
0.00563507
0.00552022
0.00543918
0.00541824
0.00550869
0.0058378
0.00689004
0.0130722
0.00707114
0.00703789
0.00698528
0.0069144
0.00682657
0.00672332
0.00660661
0.00647872
0.00634251
0.0062019
0.00606192
0.00592948
0.00581473
0.00573383
0.00571469
0.00581192
0.00615951
0.00726147
0.013611
0.00732871
0.00731347
0.00727734
0.0072212
0.00714624
0.00705394
0.00694612
0.00682477
0.00669291
0.0065544
0.00641436
0.00627993
0.00616178
0.00607701
0.00605556
0.00615713
0.00653046
0.00773035
0.0143559
0.00765931
0.00766405
0.00764587
0.00760551
0.00754406
0.00746287
0.00736336
0.00724777
0.00711902
0.00698085
0.0068385
0.00669931
0.00657442
0.00648197
0.00645424
0.00655731
0.00695976
0.00828863
0.0153354
0.008076
0.0081032
0.0081049
0.0080818
0.00803469
0.00796469
0.00787345
0.00776308
0.00763642
0.00749714
0.00735041
0.00720377
0.0070689
0.00696505
0.00692704
0.00702728
0.00745495
0.00891776
0.0166979
0.00859505
0.00864783
0.00867181
0.00866745
0.00863567
0.00857765
0.008495
0.00838972
0.00826445
0.00812275
0.00796974
0.00781315
0.00766517
0.0075464
0.00749454
0.00758876
0.00803651
0.00963159
0.018504
0.00923652
0.00931822
0.0093671
0.0093837
0.00936896
0.00932413
0.00925076
0.00915071
0.00902645
0.00888137
0.00872049
0.00855167
0.00838771
0.00825073
0.0081821
0.00826973
0.00874503
0.0104955
0.0207615
0.0100247
0.0101396
0.0102168
0.0102569
0.0102613
0.0102312
0.0101681
0.0100738
0.00995064
0.00980167
0.00963177
0.00944881
0.00926621
0.00910784
0.00901946
0.00909991
0.00961199
0.011575
0.0234636
0.0109905
0.0111433
0.0112524
0.0113191
0.0113448
0.0113312
0.0112799
0.0111924
0.0110709
0.0109182
0.0107387
0.0105403
0.0103368
0.0101537
0.0100416
0.010111
0.0106571
0.0128288
0.026338
0.0121718
0.0123674
0.0125124
0.0126086
0.0126582
0.0126631
0.0126253
0.0125462
0.0124277
0.0122722
0.0120836
0.0118693
0.0116433
0.0114326
0.0112919
0.0113432
0.0119132
0.0142737
0.0293351
0.0136146
0.0138583
0.0140429
0.0141716
0.0142474
0.0142731
0.0142508
0.0141823
0.014069
0.0139128
0.013717
0.013488
0.0132395
0.0129991
0.0128254
0.0128507
0.0134331
0.0159677
0.0325825
0.0153756
0.0156721
0.0158995
0.016063
0.0161671
0.0162157
0.0162114
0.0161562
0.0160514
0.0158981
0.0156988
0.0154588
0.0151905
0.0149216
0.0147129
0.014707
0.0152952
0.0180163
0.0364587
0.017523
0.0178761
0.0181486
0.0183484
0.0184822
0.0185553
0.0185714
0.0185328
0.0184408
0.0182961
0.0180998
0.017856
0.0175754
0.0172843
0.0170449
0.0170088
0.0176042
0.0205414
0.0411533
0.02014
0.0205516
0.0208695
0.0211054
0.0212691
0.0213677
0.0214065
0.0213883
0.0213146
0.0211859
0.0210024
0.0207669
0.0204881
0.0201904
0.0199354
0.0198826
0.0204989
0.0236862
0.0467058
0.0233267
0.0237957
0.0241566
0.0244264
0.0246184
0.0247425
0.0248055
0.0248115
0.0247625
0.0246592
0.0245018
0.0242925
0.0240389
0.0237636
0.0235271
0.0234955
0.0241772
0.0277039
0.0537132
0.0272043
0.0277252
0.0281231
0.0284214
0.028638
0.0287858
0.0288736
0.028907
0.0288891
0.0288218
0.0287068
0.0285474
0.0283529
0.028147
0.0279925
0.0280635
0.0289189
0.0329992
0.0633438
0.0319195
0.0324806
0.0329043
0.0332222
0.0334569
0.0336246
0.0337359
0.0337983
0.0338169
0.0337958
0.0337402
0.0336583
0.0335661
0.0334971
0.0335264
0.0338493
0.0350932
0.0401074
0.0766795
0.0376502
0.0382311
0.0386639
0.0389883
0.0392315
0.0394123
0.0395434
0.0396339
0.0396913
0.0397235
0.0397412
0.0397623
0.0398186
0.0399681
0.0403238
0.0411403
0.0431666
0.0497944
0.0952267
0.0446116
0.045182
0.0456007
0.0459141
0.0461529
0.0463371
0.0464808
0.0465944
0.0466878
0.0467732
0.046869
0.0470073
0.0472453
0.0476877
0.0485315
0.0501807
0.0536671
0.0632462
0.121959
0.0530632
0.0535822
0.0539577
0.0542393
0.0544576
0.0546324
0.0547775
0.0549038
0.055023
0.0551507
0.0553131
0.0555574
0.0559723
0.0567289
0.0581669
0.0609993
0.0669508
0.0821947
0.164026
0.0633166
0.0637356
0.0640357
0.0642623
0.0644419
0.0645913
0.0647222
0.0648446
0.0649701
0.0651155
0.0653108
0.0656121
0.0661316
0.0671017
0.0690287
0.0730932
0.0824049
0.107821
0.232935
0.0757454
0.0760163
0.0762102
0.0763589
0.0764803
0.0765853
0.0766821
0.0767776
0.0768808
0.0770057
0.0771775
0.0774461
0.0779156
0.0788183
0.0807166
0.0851215
0.0967991
0.13586
0.356591
0.0908046
0.090893
0.0909571
0.0910077
0.0910507
0.0910899
0.091128
0.0911677
0.0912126
0.0912687
0.091347
0.0914693
0.0916826
0.0920975
0.0930094
0.0953576
0.102964
0.139442
0.581559
)
;

boundaryField
{
    leftWall
    {
        type            epsilonWallFunction;
        value           nonuniform List<scalar> 
50
(
0.000550286
0.00110146
0.00184091
0.00255411
0.00322634
0.00386482
0.00448239
0.00510935
0.00597021
0.00709377
0.00818072
0.00969336
0.0119656
0.0122013
0.0106349
0.00974764
0.00993454
0.0104534
0.0110977
0.0118033
0.0124946
0.0131132
0.0136242
0.0140266
0.0143402
0.0146027
0.0148109
0.0149435
0.0150003
0.0149804
0.0148885
0.0147357
0.0145313
0.0142837
0.0140004
0.0136852
0.0133293
0.012919
0.0124936
0.0120963
0.0116911
0.0112696
0.0108135
0.0102902
0.00965007
0.00883718
0.00831532
0.0186423
0.161672
1.53886
)
;
    }
    rightWall
    {
        type            epsilonWallFunction;
        value           nonuniform List<scalar> 
50
(
0.00207067
0.00239551
0.00312
0.00358079
0.0038064
0.00379239
0.00354321
0.00327134
0.0028521
0.00299239
0.0044362
0.00702006
0.010778
0.0100526
0.00815052
0.00811762
0.00889981
0.00816949
0.00671357
0.0054534
0.00474372
0.00546886
0.00697898
0.00870279
0.0103958
0.0117342
0.0125118
0.0130722
0.013611
0.0143559
0.0153354
0.0166979
0.018504
0.0207615
0.0234636
0.026338
0.0293351
0.0325825
0.0364587
0.0411533
0.0467058
0.0537132
0.0633438
0.0766795
0.0952267
0.121959
0.164026
0.232935
0.356591
0.581559
)
;
    }
    lowerWall
    {
        type            epsilonWallFunction;
        value           nonuniform List<scalar> 
62
(
0.000550286
0.00279002
0.00483537
0.00664979
0.00825772
0.00968574
0.0109669
0.0121335
0.0132069
0.0141949
0.0151028
0.0159286
0.0166668
0.0172975
0.0177514
0.0177998
0.0167936
0.0147002
0.0122623
0.0104757
0.00879512
0.0057951
0.00127402
0.00127402
0.00240495
0.0041065
0.00608856
0.0085133
0.0115582
0.0162327
0.0268558
0.0365284
0.0278506
0.0254037
0.0283582
0.00119904
0.00165055
0.00282322
0.00423733
0.00591839
0.00816261
0.0117497
0.0196863
0.00119904
0.00588214
0.00936962
0.0112409
0.0120209
0.0122097
0.0121615
0.0121073
0.012452
0.0124694
0.0104771
0.00829657
0.00656932
0.0085018
0.0116971
0.0108697
0.00819769
0.00491991
0.00207067
)
;
    }
    atmosphere
    {
        type            inletOutlet;
        inletValue      uniform 0.1;
        value           nonuniform List<scalar> 
46
(
0.1
0.129524
0.0223895
0.00991862
0.00749056
0.00702348
0.00722313
0.00779117
0.00865722
0.00982875
0.0113518
0.0133005
0.0157787
0.0189319
0.0229746
0.0282417
0.0352857
0.0450727
0.0594306
0.1
0.1
0.1
0.1
0.1
0.1
0.1
0.1
0.1
0.1
0.1
0.1
0.1
0.1
0.1
0.1
0.1
0.1
0.1
0.1
0.1
0.1
0.1
0.1
0.1
0.1
0.581559
)
;
    }
    defaultFaces
    {
        type            empty;
    }
}


// ************************************************************************* //
