/*--------------------------------*- C++ -*----------------------------------*\
  =========                 |
  \\      /  F ield         | OpenFOAM: The Open Source CFD Toolbox
   \\    /   O peration     | Website:  https://openfoam.org
    \\  /    A nd           | Version:  9
     \\/     M anipulation  |
\*---------------------------------------------------------------------------*/
FoamFile
{
    format      ascii;
    class       volScalarField;
    location    "5.01";
    object      k;
}
// * * * * * * * * * * * * * * * * * * * * * * * * * * * * * * * * * * * * * //

dimensions      [0 2 -2 0 0 0 0];

internalField   nonuniform List<scalar> 
2268
(
0.000314873
0.000757796
0.00109343
0.00135223
0.00156227
0.00173756
0.00188758
0.00201917
0.00213654
0.00224177
0.00233628
0.00242059
0.0024947
0.00255714
0.00260161
0.00260632
0.00250738
0.00229475
0.00203349
0.00183037
0.00162882
0.00123313
0.000449213
0.00067208
0.0017487
0.00244502
0.00298669
0.00342939
0.0038008
0.00411894
0.00439644
0.00464137
0.00485838
0.00505019
0.00521761
0.00535901
0.00546891
0.00553364
0.00552015
0.00536264
0.00498103
0.00453845
0.00417085
0.00371798
0.0028238
0.00113094
0.000946511
0.0023261
0.00318507
0.00385398
0.00440354
0.00486626
0.00526295
0.00560815
0.00591149
0.00617889
0.00641394
0.00661771
0.00678799
0.00691789
0.00699196
0.00697756
0.00681888
0.006456
0.00600218
0.00555571
0.00496693
0.0038669
0.00161585
0.00117741
0.00278563
0.00375342
0.0045037
0.00512179
0.00564339
0.00609074
0.00647941
0.00681996
0.00711916
0.0073813
0.00760786
0.00779659
0.00794036
0.00802408
0.00801845
0.00787665
0.00755118
0.00711992
0.00664361
0.00599412
0.00480747
0.00210159
0.00137586
0.00318513
0.00424185
0.00505469
0.00572443
0.00629006
0.00677503
0.00719576
0.00756361
0.00788613
0.0081683
0.00841215
0.00861579
0.00877255
0.00886875
0.00887929
0.00876224
0.00848096
0.00808622
0.00761192
0.00694854
0.00571924
0.00262802
0.00155187
0.00354534
0.00468174
0.00554797
0.00626039
0.0068616
0.00737636
0.00782209
0.00821112
0.00855187
0.00885009
0.00910848
0.00932577
0.00949619
0.00960795
0.00963811
0.00955138
0.00931868
0.00896983
0.00852231
0.00788016
0.00665515
0.00322216
0.00171312
0.00387782
0.00508864
0.00600347
0.00675343
0.00738481
0.00792388
0.00838938
0.00879502
0.0091503
0.00946186
0.00973314
0.00996366
0.0101488
0.0102779
0.0103299
0.0102766
0.0100943
0.00979847
0.00939663
0.00880745
0.00766088
0.00403977
0.00186944
0.00419093
0.00547218
0.00643311
0.00721768
0.00787554
0.00843458
0.0089154
0.00933368
0.00970037
0.0100231
0.0103061
0.0105496
0.0107504
0.0108977
0.0109735
0.0109547
0.0108222
0.0105832
0.01024
0.00973185
0.00877169
0.00564785
0.00043217
0.00124556
0.00169867
0.00191784
0.00200562
0.00202678
0.00202157
0.00201575
0.00205409
0.00205587
0.00183001
0.00156587
0.00134098
0.00159349
0.00197144
0.00187661
0.00155406
0.00110526
0.00077773
0.000944293
0.00269664
0.00364324
0.00413633
0.00436094
0.00443669
0.00443817
0.00442686
0.00441613
0.00430806
0.00394939
0.00344373
0.00302566
0.00336711
0.0038135
0.00359907
0.00298904
0.00215823
0.00120928
0.00134938
0.00354954
0.00469652
0.00529109
0.00556702
0.00566435
0.00566965
0.00564213
0.00558675
0.00541294
0.00501745
0.00451878
0.00415482
0.00441535
0.00463558
0.00431933
0.00360875
0.00267879
0.00144228
0.00176845
0.00430241
0.00554776
0.00617385
0.00646147
0.00655854
0.00655681
0.00650892
0.0064117
0.00618985
0.00578967
0.00533812
0.005062
0.0052182
0.00521789
0.00478218
0.00398604
0.00298652
0.00158103
0.00220942
0.00506799
0.00634529
0.00695832
0.00722876
0.00731002
0.00729107
0.00721771
0.00708086
0.00682329
0.00643428
0.00604429
0.00583447
0.00587611
0.00570348
0.0051397
0.00424458
0.00316055
0.00164685
0.00273695
0.00588922
0.00713781
0.00769946
0.00793073
0.00798337
0.00793846
0.00783434
0.00766073
0.0073774
0.0070073
0.00667564
0.00649557
0.00642772
0.00612455
0.00543526
0.00442455
0.00322696
0.001643
0.00348828
0.00680427
0.00793914
0.00841689
0.00859338
0.00860741
0.00852972
0.00839145
0.00818387
0.00788238
0.00752992
0.00723679
0.00705171
0.00688719
0.00648261
0.00568009
0.00454711
0.00320657
0.00157076
0.00492276
0.00782962
0.00874833
0.00911806
0.00922889
0.00919726
0.0090822
0.00890814
0.00866964
0.00835422
0.0080117
0.00772906
0.00751256
0.00726342
0.0067789
0.00588172
0.00462862
0.00311776
0.00148967
0.00207374
0.00462762
0.00602156
0.00705714
0.00789656
0.00859442
0.00918101
0.00968097
0.0101147
0.0104965
0.0108355
0.0111369
0.0114019
0.0116286
0.0118064
0.0119214
0.0119566
0.0118992
0.0117498
0.011508
0.0111464
0.0105497
0.00932692
0.00232637
0.00516643
0.00671791
0.00786286
0.00877909
0.00952529
0.0101329
0.0106381
0.0110749
0.0114645
0.0118175
0.0121391
0.0124311
0.0126906
0.0129101
0.013078
0.0131803
0.0132072
0.0131581
0.0130359
0.0128387
0.0125388
0.0120667
0.00255855
0.00564976
0.00739525
0.00867348
0.00967864
0.0104738
0.0110791
0.011559
0.0119768
0.0123613
0.0127202
0.0130561
0.0133711
0.0136638
0.0139289
0.0141539
0.0143215
0.014421
0.0144534
0.0144214
0.0143405
0.0142203
0.0140563
0.00286584
0.00611542
0.00808867
0.00952624
0.0106174
0.011468
0.0120424
0.0124598
0.012842
0.0132159
0.0135759
0.0139203
0.0142525
0.0145781
0.014896
0.0151887
0.0154159
0.0155727
0.0156821
0.0157013
0.015688
0.0156836
0.0157556
0.00329742
0.0067361
0.00874641
0.0101756
0.0111382
0.0120075
0.0126399
0.013106
0.0135345
0.0139591
0.0143644
0.0147433
0.0150972
0.0154519
0.015834
0.0162247
0.0164816
0.0166183
0.0168308
0.016926
0.0169237
0.0169204
0.0170113
0.00333808
0.00684849
0.00886418
0.010323
0.0113514
0.0123167
0.0130799
0.0135379
0.0140055
0.0144952
0.0149752
0.0154245
0.0158384
0.0162548
0.0167358
0.0172854
0.0174993
0.017547
0.0177261
0.0178792
0.0179149
0.0178032
0.0178347
0.00304782
0.00670968
0.00882206
0.0103816
0.0114188
0.0124091
0.0132312
0.0138473
0.0143895
0.0149179
0.0154275
0.0159052
0.0163515
0.0167909
0.0172449
0.0177149
0.0179707
0.0179853
0.0181162
0.0182317
0.0182843
0.0183271
0.018429
0.00287667
0.00652992
0.00868103
0.0102711
0.011511
0.0124989
0.013351
0.0140774
0.014703
0.0152687
0.0157868
0.0162578
0.016684
0.0170788
0.0174518
0.0178019
0.0180593
0.0181912
0.0183501
0.0184961
0.0186125
0.0186877
0.0186281
0.00291315
0.00655798
0.00872566
0.0103216
0.0115911
0.0126009
0.0134686
0.0142363
0.0149133
0.0155135
0.0160467
0.0165188
0.0169357
0.0173062
0.0176373
0.0179298
0.0181698
0.0183652
0.0185584
0.018729
0.0188236
0.0187951
0.0186662
0.00301378
0.00673307
0.0088601
0.0104328
0.011697
0.0127265
0.013607
0.0143879
0.0150834
0.015701
0.0162469
0.0167267
0.0171453
0.0175085
0.0178231
0.018092
0.0183173
0.0185131
0.0186929
0.018834
0.0188881
0.0188363
0.0187213
0.00313696
0.00694826
0.00904174
0.0105827
0.0118288
0.0128634
0.0137512
0.0145353
0.0152342
0.0158563
0.0164068
0.0168901
0.01731
0.0176717
0.0179811
0.0182419
0.0184595
0.0186433
0.0187975
0.0189056
0.01894
0.0188967
0.0188009
0.00326856
0.00716419
0.00924127
0.0107539
0.0119778
0.0130056
0.0138922
0.0146736
0.0153691
0.0159883
0.0165367
0.0170184
0.0174382
0.0178009
0.018111
0.0183721
0.0185886
0.0187655
0.0189035
0.0189935
0.0190229
0.0189909
0.0189082
0.00339475
0.00736715
0.00943903
0.0109303
0.0121334
0.0131485
0.0140275
0.0148022
0.0154909
0.0161037
0.0166471
0.0171261
0.017546
0.0179111
0.0182252
0.0184909
0.018711
0.0188876
0.0190206
0.0191058
0.0191378
0.0191158
0.0190437
0.00350554
0.00754873
0.00962223
0.0110987
0.0122848
0.0132865
0.0141554
0.0149213
0.0156021
0.0162084
0.0167474
0.017225
0.0176463
0.0180153
0.018335
0.0186075
0.0188342
0.0190157
0.0191517
0.0192404
0.0192793
0.0192676
0.0192063
0.0035957
0.00770372
0.00978277
0.0112499
0.0124232
0.0134131
0.0142723
0.0150301
0.0157044
0.0163061
0.0168431
0.0173215
0.0177461
0.0181206
0.0184475
0.0187282
0.0189635
0.0191535
0.0192977
0.0193949
0.0194441
0.0194443
0.0193957
0.00366586
0.00782995
0.00991624
0.011378
0.0125423
0.0135235
0.0143754
0.0151277
0.0157981
0.0163983
0.0169362
0.017418
0.0178482
0.0182302
0.018566
0.0188568
0.0191029
0.0193042
0.01946
0.0195696
0.0196321
0.0196468
0.0196134
0.00372001
0.00792761
0.0100207
0.0114796
0.0126387
0.0136149
0.0144629
0.0152128
0.0158829
0.0164849
0.017027
0.0175152
0.0179538
0.0183457
0.0186928
0.018996
0.0192555
0.0194709
0.0196417
0.019767
0.0198461
0.0198782
0.0198629
0.00376504
0.00799749
0.0100961
0.0115545
0.0127117
0.0136863
0.0145339
0.0152851
0.0159585
0.016566
0.0171158
0.0176137
0.0180638
0.0184687
0.0188302
0.0191489
0.0194249
0.0196578
0.0198469
0.0199914
0.0200904
0.0201432
0.0201489
0.00380068
0.00804157
0.0101441
0.0116037
0.0127617
0.0137379
0.0145888
0.0153451
0.0160256
0.0166424
0.0172036
0.0177149
0.0181801
0.0186017
0.0189812
0.0193191
0.0196154
0.0198696
0.0200808
0.0202482
0.0203708
0.0204474
0.0204774
0.00382335
0.00806187
0.0101669
0.0116288
0.0127901
0.0137712
0.0146288
0.015394
0.0160856
0.0167156
0.0172923
0.017821
0.0183055
0.018748
0.0191497
0.0195111
0.019832
0.0201117
0.0203493
0.0205436
0.0206934
0.0207976
0.020855
0.00383308
0.00806025
0.0101663
0.0116318
0.0127988
0.0137879
0.0146558
0.0154337
0.0161404
0.016788
0.0173845
0.0179351
0.0184434
0.0189114
0.0193401
0.0197299
0.0200802
0.0203903
0.0206588
0.0208845
0.0210657
0.0212012
0.0212895
0.00382976
0.00803847
0.0101448
0.0116149
0.0127901
0.0137903
0.0146721
0.0154667
0.0161928
0.0168624
0.0174833
0.0180606
0.0185977
0.0190965
0.0195576
0.0199811
0.0203663
0.020712
0.0210166
0.0212785
0.0214959
0.0216669
0.02179
0.00381419
0.00799849
0.0101045
0.0115808
0.0127665
0.0137809
0.0146804
0.0154957
0.0162456
0.0169418
0.0175921
0.0182015
0.018773
0.0193082
0.0198077
0.020271
0.0206971
0.0210844
0.021431
0.0217348
0.0219934
0.0222049
0.0223671
0.00378815
0.00794282
0.0100482
0.011532
0.0127306
0.0137624
0.0146832
0.0155235
0.0163018
0.0170297
0.0177149
0.018362
0.0189741
0.0195522
0.0200967
0.0206067
0.0210807
0.0215165
0.0219117
0.0222637
0.0225697
0.0228272
0.0230337
0.00375316
0.00787399
0.00997835
0.0114711
0.0126852
0.0137376
0.0146835
0.0155531
0.0163647
0.0171297
0.0178556
0.0185469
0.0192063
0.0198347
0.0204319
0.0209964
0.0215262
0.0220185
0.0224702
0.022878
0.0232384
0.0235484
0.0238049
0.00371055
0.0077943
0.0098975
0.0114008
0.0126328
0.0137092
0.0146843
0.0155878
0.0164378
0.0172457
0.0180188
0.0187614
0.0194759
0.0201628
0.0208214
0.0214496
0.0220447
0.0226029
0.0231203
0.0235927
0.0240158
0.0243858
0.0246993
0.00366147
0.00770569
0.00980791
0.0113234
0.0125762
0.0136801
0.0146884
0.0156307
0.0165247
0.0173818
0.0182091
0.019011
0.0197894
0.0205444
0.0212748
0.0219776
0.022649
0.0232844
0.0238785
0.0244259
0.0249215
0.0253606
0.0257387
0.00360647
0.00760947
0.00971142
0.0112412
0.0125177
0.0136528
0.0146988
0.015685
0.016629
0.0175422
0.0184318
0.0193019
0.0201543
0.0209887
0.0218029
0.0225933
0.0233545
0.0240804
0.0247644
0.0253996
0.0259793
0.0264974
0.0269488
0.00354385
0.00750567
0.00960935
0.0111561
0.0124597
0.0136298
0.0147182
0.0157537
0.0167542
0.0177311
0.0186918
0.0196404
0.0205786
0.0215056
0.0224182
0.0233115
0.0241787
0.0250116
0.0258015
0.0265394
0.0272168
0.0278258
0.0283605
0.00347095
0.00739369
0.0095025
0.0110697
0.0124039
0.0136133
0.014749
0.0158397
0.0169037
0.0179527
0.0189944
0.0200332
0.0210708
0.0221058
0.0231341
0.0241492
0.0251419
0.0261018
0.0270171
0.027876
0.028667
0.0293807
0.0300101
0.00339442
0.00727308
0.00939141
0.0109831
0.012352
0.013605
0.0147931
0.0159453
0.0170802
0.0182103
0.0193441
0.0204864
0.021639
0.0228002
0.0239648
0.0251243
0.0262668
0.0273781
0.0284427
0.0294446
0.0303689
0.0312034
0.0319397
0.00332219
0.00714762
0.0092777
0.0108971
0.0123046
0.0136059
0.0148519
0.016072
0.0172857
0.0185067
0.0197445
0.0210049
0.0222904
0.023599
0.0249243
0.0262557
0.0275775
0.0288708
0.0301145
0.0312865
0.0323671
0.033341
0.034198
0.0032477
0.00701969
0.00916219
0.0108124
0.0122626
0.0136171
0.0149265
0.0162211
0.0175216
0.0188433
0.0201976
0.021592
0.0230299
0.02451
0.026025
0.0275612
0.0290989
0.0306123
0.0320725
0.0334488
0.0347144
0.0358492
0.0368415
0.00316928
0.00688785
0.00904345
0.0107278
0.0122254
0.0136382
0.0150166
0.016392
0.0177868
0.0192188
0.0207021
0.0222468
0.0238586
0.0255372
0.0272751
0.0290563
0.0308551
0.0326374
0.0343622
0.0359867
0.0374726
0.0387934
0.0399358
0.00308325
0.00674566
0.00891694
0.0106407
0.0121915
0.0136682
0.015121
0.0165825
0.018078
0.0196287
0.0212524
0.0229633
0.0247706
0.0266771
0.0286761
0.0307499
0.0328669
0.034981
0.0370346
0.0389647
0.0407157
0.0422511
0.0435576
0.00298302
0.00658306
0.00877594
0.0105477
0.0121594
0.0137059
0.0152372
0.0167886
0.018389
0.0200641
0.0218372
0.0237279
0.0257514
0.0279155
0.0302176
0.0326403
0.0351467
0.0376765
0.0401466
0.0424615
0.0445351
0.0463174
0.0477984
0.00285803
0.00638677
0.00861288
0.0104461
0.0121285
0.0137501
0.0153623
0.0170042
0.0187099
0.0205113
0.022438
0.0245177
0.0267737
0.0292229
0.0318713
0.0347073
0.0376925
0.0407512
0.0437638
0.046578
0.0490505
0.0511125
0.052769
0.0026952
0.00614304
0.0084224
0.0103366
0.0121007
0.0138008
0.0154924
0.0172209
0.0190273
0.0209506
0.0230288
0.0252988
0.0277956
0.03055
0.0335839
0.0369017
0.0404749
0.044218
0.0479625
0.0514538
0.0544266
0.0567933
0.058604
0.00258803
0.00586158
0.00820924
0.0102266
0.0120816
0.0138586
0.0156223
0.0174275
0.0193236
0.0213574
0.0235758
0.0260265
0.028759
0.0318233
0.0352675
0.039129
0.0434134
0.0480516
0.052827
0.0573027
0.0609055
0.0635673
0.0654647
0.00443361
0.00574692
0.00799981
0.0101291
0.0120782
0.0139226
0.0157439
0.0176096
0.0195778
0.0217029
0.0240399
0.0266476
0.0295911
0.0329444
0.0367921
0.0412272
0.0463336
0.05213
0.0584227
0.0645019
0.0688627
0.0717046
0.0735314
0.0187155
0.00697802
0.00781186
0.0100435
0.0120903
0.0139854
0.0158438
0.0177492
0.019767
0.021957
0.0243806
0.0271057
0.0302115
0.033796
0.037985
0.0429457
0.0488962
0.0560867
0.0646468
0.0738605
0.0788924
0.0815219
0.0829723
0.0840654
0.0144655
0.00786033
0.00998121
0.0121072
0.0140286
0.0159028
0.0178266
0.0198691
0.0220928
0.0245623
0.0273506
0.0305458
0.0342615
0.0386541
0.0439541
0.0505257
0.0589893
0.0705109
0.0875471
0.09184
0.0932621
0.0938669
0.00695588
0.00580401
0.00545855
0.00587675
0.0115538
0.011246
0.0110667
0.0110415
0.0138326
0.0136661
0.0135145
0.0133963
0.0155293
0.0153348
0.0151586
0.0150266
0.0169423
0.0167538
0.0164759
0.0162486
0.0177421
0.0175253
0.0173213
0.0171357
0.0181958
0.0180869
0.0179592
0.0177481
0.018438
0.0183269
0.0181953
0.0180394
0.0185405
0.0184592
0.0183665
0.0182533
0.0186175
0.0185454
0.0184624
0.0183625
0.0187028
0.0186308
0.0185477
0.0184516
0.0188136
0.0187425
0.0186603
0.0185667
0.0189544
0.0188863
0.0188072
0.0187171
0.0191245
0.0190612
0.018987
0.018902
0.0193236
0.0192665
0.0191986
0.01912
0.019553
0.0195035
0.0194432
0.0193722
0.0198162
0.0197756
0.0197242
0.0196621
0.0201181
0.0200877
0.0200465
0.0199944
0.0204645
0.0204456
0.0204157
0.020375
0.0208622
0.0208561
0.0208389
0.0208106
0.0213192
0.0213272
0.0213239
0.0213093
0.0218446
0.0218683
0.0218804
0.0218808
0.0224495
0.0224906
0.0225197
0.0225367
0.0231471
0.0232076
0.0232556
0.0232908
0.0239531
0.0240354
0.0241043
0.0241599
0.0248867
0.0249933
0.0250856
0.0251636
0.0259701
0.0261036
0.0262219
0.0263247
0.0272295
0.0273933
0.0275404
0.0276707
0.0286965
0.0288941
0.0290732
0.0292338
0.0304079
0.0306429
0.0308572
0.0310507
0.032406
0.0326821
0.0329346
0.0331637
0.0347395
0.0350601
0.0353536
0.0356201
0.0374644
0.0378325
0.0381686
0.0384737
0.0406449
0.041062
0.0414413
0.0417842
0.0443551
0.0448206
0.045241
0.0456188
0.0486812
0.0491909
0.0496468
0.0500528
0.0537245
0.0542683
0.0547483
0.0551704
0.0596035
0.0601616
0.0606456
0.0610649
0.0664526
0.0669908
0.0674476
0.0678359
0.074413
0.0748787
0.075264
0.0755845
0.0836081
0.083932
0.0841925
0.0844043
0.0941003
0.0942143
0.0943035
0.0943747
0.00827952
0.00949014
0.010003
0.0101892
0.0101885
0.0100794
0.00990263
0.00967263
0.00938866
0.00905287
0.00871102
0.0084055
0.00810952
0.00773133
0.00713722
0.00613218
0.00472731
0.00302122
0.00135968
0.0112125
0.0114616
0.011573
0.0115475
0.0114017
0.0111889
0.0109331
0.0106361
0.0102989
0.00992883
0.00954551
0.00915968
0.00874295
0.00823589
0.00754294
0.00651009
0.00510919
0.00341905
0.00140453
0.013255
0.0131189
0.0130012
0.0128368
0.0125555
0.0122524
0.0119321
0.0115757
0.0111852
0.0107687
0.0103322
0.00987369
0.00936286
0.00876099
0.00802096
0.00705655
0.00582272
0.00425707
0.00182793
0.0148939
0.0145668
0.0143416
0.0141372
0.0136764
0.0133061
0.0129429
0.0125185
0.0120644
0.0115951
0.0111175
0.0106203
0.010049
0.00938232
0.00865335
0.00782668
0.00678632
0.00525706
0.00248362
0.0159697
0.0156266
0.0153954
0.0151929
0.014655
0.0143499
0.0139288
0.013361
0.0128093
0.0122776
0.0117579
0.0112445
0.0106767
0.0099713
0.00923029
0.00843311
0.00743988
0.00602442
0.0033027
0.0168966
0.0165979
0.0163285
0.0160411
0.0155014
0.0151029
0.0145991
0.0139387
0.0133073
0.0127121
0.0121332
0.0115519
0.0109242
0.0102137
0.00946462
0.00865032
0.00762753
0.00614709
0.00314493
0.0174862
0.0171346
0.0168735
0.0166694
0.0160762
0.0156383
0.0150884
0.014402
0.0137343
0.0130941
0.0124612
0.0118297
0.0111662
0.0104299
0.00966299
0.00884024
0.00775937
0.00582257
0.00273642
0.0177866
0.0174323
0.0171356
0.0168716
0.0164014
0.0159282
0.015379
0.014763
0.0141017
0.0134264
0.0127425
0.0120548
0.011344
0.0105787
0.00976061
0.00884685
0.00771515
0.00593666
0.00273375
0.0180229
0.017665
0.0173198
0.0169629
0.016525
0.0160593
0.0155621
0.0150125
0.014373
0.013673
0.0129536
0.0122185
0.0114626
0.010661
0.00977348
0.00875338
0.00753222
0.00588625
0.00290704
0.0181636
0.0178282
0.0174656
0.017067
0.016627
0.0161672
0.0156918
0.0151715
0.0145382
0.0138287
0.0130936
0.012321
0.0115231
0.0106762
0.0097201
0.00860652
0.00729153
0.00563349
0.00274479
0.0182699
0.0179562
0.017596
0.0171915
0.0167555
0.0162969
0.0158192
0.015294
0.0146575
0.0139497
0.0131927
0.012376
0.0115244
0.0106127
0.00958397
0.00838644
0.00696117
0.00521845
0.00240649
0.018393
0.0180929
0.0177424
0.0173457
0.0169161
0.0164572
0.0159678
0.0154232
0.0147847
0.0140694
0.0132875
0.0124392
0.011532
0.0105427
0.00942717
0.0081253
0.00656102
0.00467484
0.00209378
0.0185503
0.0182613
0.0179213
0.0175342
0.0171089
0.0166477
0.0161466
0.0155865
0.0149432
0.0142218
0.013435
0.0125747
0.0116306
0.0105806
0.00938388
0.00797991
0.0062874
0.00430514
0.00190879
0.0187438
0.0184669
0.018138
0.0177604
0.0173392
0.0168762
0.0163671
0.0157981
0.0151555
0.0144424
0.0136643
0.0128072
0.0118526
0.0107792
0.00955459
0.00813078
0.00645135
0.00451527
0.00209956
0.0189723
0.0187099
0.0183945
0.0180283
0.0176145
0.0171538
0.0166429
0.0160735
0.0154385
0.0147381
0.0139718
0.0131267
0.0121854
0.0111317
0.00994329
0.00858518
0.00701005
0.0051271
0.00247018
0.019237
0.0189917
0.0186924
0.0183408
0.0179385
0.0174856
0.0169796
0.0164162
0.0157916
0.0151038
0.0143498
0.0135205
0.012604
0.0115895
0.0104622
0.00919479
0.00772846
0.00588547
0.00286158
0.0195415
0.0193159
0.0190353
0.018701
0.0183137
0.0178728
0.0173769
0.0168234
0.0162101
0.0155344
0.0147929
0.0139794
0.0130864
0.0121065
0.011028
0.0098241
0.00842161
0.00657901
0.0032213
0.0198903
0.0196871
0.0194276
0.0191128
0.0187427
0.0183168
0.0178339
0.0172924
0.0166906
0.016026
0.0152954
0.0144942
0.0136168
0.0126565
0.0116004
0.0104164
0.00901265
0.00710398
0.00349139
0.0202893
0.0201108
0.0198745
0.0195808
0.0192298
0.0188205
0.0183521
0.0178234
0.0172324
0.0165769
0.015854
0.0150594
0.0141876
0.0132304
0.0121715
0.0109713
0.00952282
0.00751465
0.00364375
0.0207452
0.0205937
0.0203824
0.0201116
0.0197807
0.0193891
0.0189358
0.0184194
0.0178379
0.0171889
0.0164694
0.0156748
0.0147986
0.0138301
0.0127486
0.0115077
0.00999066
0.00786293
0.00375178
0.0212662
0.0211439
0.0209597
0.0207131
0.0204036
0.0200303
0.019592
0.0190871
0.0185131
0.0178677
0.017147
0.0163459
0.0154563
0.0144648
0.0133463
0.0120481
0.010446
0.00818634
0.00385442
0.0218621
0.0217716
0.0216163
0.0213956
0.0211086
0.0207541
0.0203308
0.0198361
0.0192678
0.0186227
0.0178966
0.0170831
0.0161724
0.0151488
0.0139831
0.0126163
0.0109156
0.00850633
0.00399412
0.0225447
0.0224888
0.0223648
0.0221717
0.0219084
0.0215734
0.0211644
0.020679
0.0201146
0.019467
0.0187315
0.0179004
0.0169626
0.0159001
0.0146805
0.0132395
0.0114368
0.00887726
0.00417425
0.0233284
0.0233102
0.02322
0.0230566
0.0228183
0.022503
0.0221084
0.0216317
0.0210696
0.0204175
0.0196691
0.018816
0.0178456
0.0167384
0.0154602
0.0139451
0.0120469
0.00936363
0.00441857
0.02423
0.0242534
0.0241999
0.024068
0.0238558
0.0235612
0.0231816
0.0227136
0.022153
0.0214942
0.02073
0.0198508
0.0188428
0.0176852
0.0163433
0.0147519
0.0127691
0.00998802
0.00473223
0.0252698
0.0253382
0.0253242
0.0252263
0.0250423
0.0247701
0.0244064
0.0239474
0.0233877
0.0227207
0.0219382
0.0210291
0.0199784
0.0187643
0.0173516
0.0156757
0.0135978
0.0107152
0.00511025
0.0264706
0.0265883
0.0266174
0.0265562
0.0264028
0.0261547
0.0258083
0.0253587
0.0247999
0.024124
0.0233211
0.0223786
0.0212801
0.0200023
0.0185089
0.0167349
0.0145387
0.0114973
0.00554459
0.0278604
0.0280319
0.0281075
0.0280859
0.0279655
0.0277434
0.0274158
0.0269771
0.0264199
0.0257348
0.0249102
0.0239313
0.0227796
0.0214296
0.0198431
0.0179525
0.0156087
0.0123574
0.0059885
0.0294713
0.0297009
0.0298263
0.029847
0.0297618
0.0295679
0.0292611
0.028835
0.0282809
0.0275876
0.0267409
0.0257235
0.0245135
0.0230823
0.0213879
0.0193578
0.0168316
0.0133148
0.00643435
0.0313401
0.0316315
0.0318095
0.0318747
0.0318266
0.0316629
0.0313792
0.0309683
0.0304199
0.0297206
0.0288533
0.0277967
0.0265246
0.0250033
0.023185
0.0209894
0.0182412
0.0143987
0.00690063
0.0335083
0.0338643
0.0340964
0.0342073
0.0341978
0.0340662
0.0338082
0.0334157
0.032877
0.0321758
0.0312914
0.0301977
0.0288621
0.0272436
0.0252859
0.0228975
0.0198847
0.0156544
0.00743759
0.0360223
0.0364439
0.0367303
0.0368867
0.0369161
0.036818
0.0365884
0.0362185
0.0356949
0.0349984
0.0341037
0.0329785
0.0315823
0.0298637
0.0277539
0.025146
0.0218228
0.0171336
0.0080631
0.0389339
0.0394196
0.0397577
0.0399576
0.0400249
0.039961
0.0397623
0.03942
0.0389186
0.0382361
0.037342
0.0361968
0.0347494
0.0329348
0.0306664
0.027815
0.0241322
0.0188953
0.00877312
0.0423002
0.0428446
0.043229
0.0434677
0.0435701
0.0435399
0.0433747
0.0430653
0.0425951
0.0419388
0.0410611
0.039914
0.0384342
0.036539
0.0341173
0.0310076
0.0269167
0.0210311
0.00963043
0.0461843
0.0467772
0.0471981
0.047468
0.0476006
0.0476024
0.0474722
0.0472013
0.0467724
0.0461577
0.0453171
0.0441946
0.0427133
0.040769
0.0382186
0.0348545
0.0303181
0.0236763
0.0107501
0.0506557
0.0512802
0.0517233
0.0520133
0.0521687
0.0521988
0.0521042
0.0518771
0.0515001
0.0509443
0.0501663
0.0491032
0.0476653
0.0457251
0.0430998
0.0395181
0.0345228
0.027008
0.0122108
0.0557908
0.0564223
0.0568679
0.0571633
0.0573315
0.0573842
0.0573242
0.0571447
0.0568295
0.0563503
0.0556628
0.0547007
0.053365
0.051507
0.048901
0.0451929
0.0397774
0.0312737
0.0141081
0.0616725
0.0622779
0.0627011
0.062984
0.0631525
0.0632202
0.0631913
0.063061
0.062815
0.0624277
0.0618577
0.0610406
0.0598755
0.058202
0.0557581
0.0520986
0.0464106
0.0368597
0.0166382
0.0683895
0.0689276
0.0692997
0.0695499
0.0697045
0.0697776
0.069774
0.0696906
0.0695166
0.069231
0.0687993
0.0681657
0.067239
0.0658654
0.0637723
0.060447
0.05484
0.0444051
0.0202722
0.0760332
0.0764586
0.0767498
0.076947
0.0770731
0.0771402
0.0771531
0.0771103
0.0770045
0.0768214
0.0765364
0.0761089
0.0754704
0.0744986
0.0729588
0.0703546
0.0654965
0.0549327
0.0256125
0.0846958
0.0849665
0.0851509
0.085277
0.0853606
0.0854096
0.0854275
0.085414
0.0853654
0.0852741
0.0851269
0.0849021
0.0845623
0.0840387
0.0831904
0.0816804
0.0785257
0.0698684
0.0340209
0.0944713
0.0945601
0.0946208
0.094663
0.094692
0.0947105
0.0947197
0.0947198
0.09471
0.0946883
0.0946517
0.0945952
0.0945109
0.0943852
0.0941909
0.093854
0.0930704
0.089735
0.0471375
)
;

boundaryField
{
    leftWall
    {
        type            kqRWallFunction;
        value           nonuniform List<scalar> 
50
(
0.000314873
0.00067208
0.000946511
0.00117741
0.00137586
0.00155187
0.00171312
0.00186944
0.00207374
0.00232637
0.00255855
0.00286584
0.00329742
0.00333808
0.00304782
0.00287667
0.00291315
0.00301378
0.00313696
0.00326856
0.00339475
0.00350554
0.0035957
0.00366586
0.00372001
0.00376504
0.00380068
0.00382335
0.00383308
0.00382976
0.00381419
0.00378815
0.00375316
0.00371055
0.00366147
0.00360647
0.00354385
0.00347095
0.00339442
0.00332219
0.0032477
0.00316928
0.00308325
0.00298302
0.00285803
0.0026952
0.00258803
0.00443361
0.0187155
0.0840654
)
;
    }
    rightWall
    {
        type            kqRWallFunction;
        value           nonuniform List<scalar> 
50
(
0.00077773
0.00120928
0.00144228
0.00158103
0.00164685
0.001643
0.00157076
0.00148967
0.00135968
0.00140453
0.00182793
0.00248362
0.0033027
0.00314493
0.00273642
0.00273375
0.00290704
0.00274479
0.00240649
0.00209378
0.00190879
0.00209956
0.00247018
0.00286158
0.0032213
0.00349139
0.00364375
0.00375178
0.00385442
0.00399412
0.00417425
0.00441857
0.00473223
0.00511025
0.00554459
0.0059885
0.00643435
0.00690063
0.00743759
0.0080631
0.00877312
0.00963043
0.0107501
0.0122108
0.0141081
0.0166382
0.0202722
0.0256125
0.0340209
0.0471375
)
;
    }
    lowerWall
    {
        type            kqRWallFunction;
        value           nonuniform List<scalar> 
62
(
0.000314873
0.000757796
0.00109343
0.00135223
0.00156227
0.00173756
0.00188758
0.00201917
0.00213654
0.00224177
0.00233628
0.00242059
0.0024947
0.00255714
0.00260161
0.00260632
0.00250738
0.00229475
0.00203349
0.00183037
0.00162882
0.00123313
0.000449213
0.000449213
0.00113094
0.00161585
0.00210159
0.00262802
0.00322216
0.00403977
0.00564785
0.00695588
0.00580401
0.00545855
0.00587675
0.00043217
0.000944293
0.00134938
0.00176845
0.00220942
0.00273695
0.00348828
0.00492276
0.00043217
0.00124556
0.00169867
0.00191784
0.00200562
0.00202678
0.00202157
0.00201575
0.00205409
0.00205587
0.00183001
0.00156587
0.00134098
0.00159349
0.00197144
0.00187661
0.00155406
0.00110526
0.00077773
)
;
    }
    atmosphere
    {
        type            inletOutlet;
        inletValue      uniform 0.1;
        value           nonuniform List<scalar> 
46
(
0.1
0.0144655
0.00786033
0.00998121
0.0121072
0.0140286
0.0159028
0.0178266
0.0198691
0.0220928
0.0245623
0.0273506
0.0305458
0.0342615
0.0386541
0.0439541
0.0505257
0.0589893
0.0705109
0.1
0.1
0.1
0.1
0.1
0.1
0.1
0.1
0.1
0.1
0.1
0.1
0.1
0.1
0.1
0.1
0.1
0.1
0.1
0.1
0.1
0.1
0.1
0.1
0.1
0.1
0.0471375
)
;
    }
    defaultFaces
    {
        type            empty;
    }
}


// ************************************************************************* //
