/*--------------------------------*- C++ -*----------------------------------*\
  =========                 |
  \\      /  F ield         | OpenFOAM: The Open Source CFD Toolbox
   \\    /   O peration     | Website:  https://openfoam.org
    \\  /    A nd           | Version:  9
     \\/     M anipulation  |
\*---------------------------------------------------------------------------*/
FoamFile
{
    format      ascii;
    class       volScalarField;
    location    "7.45";
    object      nut;
}
// * * * * * * * * * * * * * * * * * * * * * * * * * * * * * * * * * * * * * //

dimensions      [0 2 -1 0 0 0 0];

internalField   nonuniform List<scalar> 
2268
(
1.04272e-05
1.22315e-05
1.4845e-05
1.66015e-05
1.79149e-05
1.89509e-05
1.97911e-05
2.04819e-05
2.10514e-05
2.15241e-05
2.19252e-05
2.22792e-05
2.25971e-05
2.28552e-05
2.29726e-05
2.27897e-05
2.21733e-05
2.11716e-05
1.98508e-05
1.8345e-05
1.69787e-05
1.46977e-05
1.02677e-05
2.40088e-05
9.98072e-05
0.000135806
0.000158178
0.000174148
0.000186324
0.0001959
0.000203508
0.000209562
0.000214389
0.000218271
0.000221409
0.00022383
0.000225259
0.000225026
0.000221892
0.000212659
0.000196165
0.000179472
0.000164879
0.000152512
0.000114442
3.2429e-05
2.87279e-05
0.000168239
0.000250909
0.000303937
0.00034191
0.000370804
0.000393465
0.000411422
0.000425645
0.00043689
0.000445809
0.000452901
0.000458293
0.000461447
0.000460924
0.00045398
0.000435571
0.000404834
0.00037175
0.000337709
0.000293733
0.00019657
3.84119e-05
3.22297e-05
0.000216119
0.000341161
0.0004246
0.000485211
0.000531598
0.000568084
0.000597069
0.000620077
0.00063828
0.000652669
0.000663999
0.000672483
0.000677382
0.000676674
0.000666608
0.000641328
0.00060029
0.000553159
0.000497596
0.000415907
0.000263237
4.36267e-05
3.50144e-05
0.000252262
0.000413771
0.000525274
0.000607507
0.000670906
0.000720978
0.000760883
0.000792656
0.000817849
0.000837741
0.000853283
0.000864752
0.000871267
0.000870447
0.000858042
0.000827942
0.000779311
0.000719993
0.000643156
0.000524455
0.000322139
4.8728e-05
3.73655e-05
0.000281194
0.000473975
0.000610879
0.00071328
0.000792828
0.000855933
0.000906381
0.000946664
0.000978674
0.00100394
0.00102355
0.00103785
0.00104585
0.00104502
0.00103098
0.00099772
0.000943554
0.000873953
0.000777947
0.000625889
0.000375285
5.42982e-05
3.9457e-05
0.000305341
0.000525176
0.000684949
0.000805996
0.000900734
0.000976224
0.00103675
0.0010852
0.00112378
0.00115423
0.00117775
0.00119473
0.00120417
0.00120348
0.00118842
0.00115332
0.00109552
0.00101788
0.00090653
0.000727824
0.000432565
6.09027e-05
4.14303e-05
0.000326163
0.00056968
0.000750027
0.000888255
0.000997234
0.00108446
0.00115458
0.00121085
0.00125573
0.00129116
0.00131845
0.00133805
0.00134895
0.0013486
0.00133311
0.00129718
0.00123765
0.00115464
0.00103327
0.000838689
0.000509132
7.14828e-05
1.15675e-05
1.71918e-05
1.98378e-05
2.09681e-05
2.16033e-05
2.18987e-05
2.21165e-05
2.2226e-05
2.18772e-05
2.07302e-05
1.91744e-05
1.74907e-05
1.64649e-05
1.66313e-05
1.69911e-05
1.66235e-05
1.47066e-05
1.23896e-05
1.14519e-05
3.64271e-05
0.000136379
0.000180759
0.000202322
0.000213201
0.000218674
0.000220776
0.000219144
0.000211292
0.000194786
0.000170992
0.000154379
0.000143253
0.000147597
0.000155725
0.000149408
0.000126344
9.02317e-05
2.57904e-05
4.01764e-05
0.000238456
0.000346346
0.000401413
0.000429436
0.000443006
0.000448017
0.000444592
0.000428102
0.000394637
0.000352601
0.000322343
0.000302739
0.000302985
0.000308942
0.000289302
0.000232212
0.000145183
3.03978e-05
4.37984e-05
0.000311671
0.000483958
0.000575445
0.000622817
0.000645693
0.000654022
0.000649422
0.000626812
0.000582057
0.000529249
0.000488956
0.000460629
0.000450352
0.000445042
0.000407153
0.000317394
0.000184127
3.45402e-05
4.85818e-05
0.000371462
0.000602284
0.000728196
0.000794439
0.000826655
0.000838427
0.000833342
0.000807165
0.00075636
0.00069766
0.000649928
0.000612471
0.000588774
0.000567727
0.000509856
0.000392404
0.000221436
3.83397e-05
5.42881e-05
0.000431463
0.000711044
0.00086622
0.000948956
0.000989585
0.00100461
0.000999617
0.000971891
0.000918778
0.000857242
0.000803877
0.0007573
0.000719187
0.00068052
0.000602679
0.000462775
0.000261603
4.18488e-05
6.18603e-05
0.000498337
0.00081765
0.000995294
0.00109081
0.00113823
0.001156
0.00115142
0.00112348
0.00107048
0.001008
0.000950145
0.000894798
0.000842378
0.000785309
0.000687842
0.000528876
0.000303582
4.51051e-05
7.51499e-05
0.000579941
0.000929276
0.00111997
0.00122364
0.00127577
0.00129556
0.00129145
0.00126395
0.0012124
0.00115012
0.00108846
0.00102486
0.000958734
0.000882896
0.000766064
0.000588563
0.000341977
4.8248e-05
4.4e-05
0.000355123
0.000630842
0.000839915
0.00100285
0.00113281
0.00123762
0.00132233
0.00139064
0.00144544
0.00148883
0.0015222
0.00154607
0.00155951
0.0015602
0.00154474
0.0015089
0.0014492
0.00136225
0.00123463
0.00104086
0.000753273
0.000374947
4.73822e-05
0.000389176
0.000700457
0.000941408
0.00113253
0.00128706
0.00141265
0.00151454
0.00159705
0.00166369
0.00171685
0.00175789
0.00178734
0.00180439
0.00180756
0.00179446
0.00176209
0.00170744
0.00162637
0.00150978
0.00134382
0.00111703
0.00083662
5.08686e-05
0.000419954
0.000764526
0.00103264
0.00124746
0.0014231
0.00156659
0.00168304
0.00177755
0.00185459
0.0019168
0.00196536
0.00200061
0.00202227
0.00202949
0.0020209
0.00199488
0.00194945
0.00188119
0.00178483
0.00165463
0.00148999
0.00131091
5.53154e-05
0.000445567
0.000826222
0.00111925
0.00135458
0.00154818
0.00170636
0.00183445
0.00193819
0.00202386
0.00209424
0.00215024
0.00219201
0.00221935
0.00223188
0.00222915
0.00221099
0.00217629
0.00212242
0.00204786
0.00195147
0.00183825
0.00172918
6.14566e-05
0.000490147
0.000887889
0.00120136
0.0014546
0.00166007
0.00183049
0.00197061
0.00208332
0.00217669
0.00225446
0.00231744
0.00236602
0.00239943
0.00241696
0.00241984
0.00240904
0.00238413
0.00234526
0.00229192
0.00222425
0.00214865
0.00208244
5.99851e-05
0.000492136
0.000894657
0.00123132
0.00150887
0.00173199
0.00192166
0.00207871
0.00220578
0.00230978
0.00239603
0.00246676
0.00252311
0.00256467
0.00258975
0.00259788
0.00259323
0.00257632
0.00254755
0.00251334
0.00247119
0.00242229
0.00238156
6.94334e-05
0.000547711
0.000942488
0.00127468
0.00155739
0.00179715
0.00200095
0.00217151
0.00231135
0.00242675
0.00252239
0.00260101
0.0026646
0.00271378
0.00274643
0.00276215
0.0027643
0.00275635
0.00273866
0.00271728
0.00269393
0.00266786
0.00264776
0.00029499
0.000549686
0.000970682
0.00131375
0.00160576
0.00185699
0.00207158
0.00225294
0.00240416
0.00253009
0.00263504
0.00272223
0.00279413
0.00285155
0.00289253
0.00291747
0.00292869
0.00293005
0.00292364
0.00291346
0.00290303
0.00289386
0.00288741
6.95568e-05
0.000558582
0.000991137
0.00134682
0.00164976
0.00191085
0.00213484
0.00232555
0.0024867
0.00262248
0.00273685
0.00283315
0.00291403
0.00298028
0.00303057
0.00306526
0.00308666
0.00309805
0.003102
0.003102
0.00310149
0.00310198
0.00310365
0.000295818
0.000568325
0.00100626
0.00137537
0.00168955
0.00195998
0.00219269
0.00239215
0.00256239
0.0027075
0.0028311
0.00293642
0.00302611
0.00310101
0.00316054
0.00320519
0.00323694
0.00325834
0.00327185
0.00328059
0.00328747
0.00329401
0.00330027
0.000295582
0.000570506
0.0010189
0.00140053
0.00172557
0.00200512
0.00224626
0.00245414
0.00263316
0.00278719
0.00291963
0.00303362
0.00313163
0.00321462
0.00328282
0.00333689
0.00337828
0.00340906
0.0034313
0.00344755
0.00346035
0.00347108
0.0034799
0.000295445
0.000571522
0.00103013
0.00142334
0.0017587
0.0020472
0.00229665
0.00251277
0.00270019
0.00286268
0.00300347
0.00312554
0.00323126
0.0033219
0.00339801
0.00346041
0.00351038
0.0035495
0.00357944
0.00360226
0.00362005
0.00363401
0.00364439
0.000294879
0.000570839
0.00104092
0.00144482
0.00178998
0.00208726
0.00234492
0.00256908
0.00276445
0.00293482
0.00308334
0.00321286
0.00332564
0.00342314
0.0035063
0.00357606
0.00363349
0.0036798
0.00371638
0.00374485
0.00376691
0.00378355
0.00379503
0.000295631
0.000573935
0.00105157
0.00146566
0.00182029
0.0021262
0.00239192
0.0026238
0.00282665
0.00300427
0.00315985
0.00329615
0.00341533
0.003519
0.00360833
0.00368436
0.00374807
0.00380044
0.00384261
0.00387588
0.00390157
0.00392049
0.00393286
6.96163e-05
0.000571767
0.0010623
0.00148637
0.00185025
0.00216461
0.00243816
0.00267739
0.0028872
0.00307147
0.00323346
0.00337584
0.00350076
0.00360988
0.00370452
0.00378579
0.00385465
0.00391199
0.00395876
0.00399601
0.00402476
0.00404562
0.00405881
0.000295223
0.000575004
0.00107346
0.00150724
0.00188019
0.00220281
0.00248388
0.00273003
0.00294628
0.00313665
0.00330438
0.00345215
0.00358209
0.00369593
0.00379507
0.00388066
0.00395367
0.00401499
0.00406546
0.00410595
0.00413722
0.00415978
0.00417378
6.96201e-05
0.00057397
0.00108465
0.00152831
0.0019102
0.00224083
0.00252908
0.00278172
0.00300392
0.00319979
0.00337262
0.00352507
0.00365932
0.00377715
0.00388
0.00396908
0.00404541
0.00410987
0.00416326
0.00420633
0.00423969
0.00426376
0.00427866
6.96515e-05
0.000576228
0.0010964
0.0015497
0.00194028
0.00227862
0.00257368
0.00283237
0.00306
0.00326077
0.00343802
0.00359446
0.00373231
0.00385339
0.00395923
0.00405108
0.00413
0.00419692
0.00425261
0.00429776
0.0043329
0.00435838
0.00437433
6.96482e-05
0.00057738
0.00110853
0.00157137
0.00197037
0.00231608
0.00261755
0.00288182
0.00311433
0.00331937
0.00350037
0.0036601
0.00380085
0.00392451
0.00403267
0.00412665
0.00420758
0.00427642
0.00433395
0.00438085
0.0044176
0.00444453
0.00446177
0.00029618
0.000584471
0.00112134
0.00159332
0.00200042
0.00235312
0.00266055
0.00292988
0.00316669
0.00337536
0.00355944
0.00372178
0.00386476
0.00399036
0.00410025
0.00419585
0.00427833
0.00434871
0.00440781
0.00445629
0.00449465
0.0045232
0.00454207
0.000295047
0.000585832
0.00113456
0.00161552
0.00203037
0.00238962
0.00270252
0.00297636
0.00321685
0.00342851
0.00361501
0.00377931
0.00392391
0.0040509
0.00416204
0.00425883
0.00434255
0.00441426
0.00447483
0.00452493
0.00456507
0.00459556
0.0046165
0.000296455
0.000592253
0.0011484
0.00163793
0.00206013
0.00242548
0.00274331
0.00302107
0.00326461
0.00347863
0.00366692
0.00383259
0.00397828
0.00410619
0.0042182
0.00431594
0.00440074
0.00447374
0.00453587
0.00458781
0.00463007
0.00466296
0.00468656
6.97116e-05
0.000591041
0.00116234
0.0016604
0.00208958
0.00246053
0.00278274
0.00306382
0.00330982
0.00352558
0.00371508
0.00388161
0.00402795
0.00415644
0.00426911
0.00436768
0.00445359
0.00452805
0.004592
0.00464618
0.00469109
0.004727
0.00475396
0.000295903
0.000600644
0.00117663
0.00168272
0.00211852
0.0024946
0.00282063
0.00310445
0.00335231
0.00356927
0.0037595
0.00392648
0.00407316
0.00420205
0.00431531
0.00441479
0.00450202
0.00457827
0.00464453
0.00470154
0.00474978
0.00478947
0.00482062
0.000295547
0.000604003
0.00119032
0.0017047
0.00214679
0.0025275
0.0028568
0.00314281
0.00339201
0.0036097
0.00380028
0.00396743
0.00411429
0.00424355
0.00435753
0.00445818
0.00454713
0.00462571
0.00469494
0.00475554
0.00480795
0.00485233
0.0048886
6.96631e-05
0.000604979
0.00120429
0.00172645
0.00217425
0.00255903
0.00289107
0.00317876
0.00342886
0.00364693
0.0038376
0.00400479
0.00415185
0.00428165
0.00439665
0.00449893
0.0045902
0.00467183
0.00474486
0.00480997
0.00486754
0.00491764
0.00496004
0.000296211
0.000614638
0.00121882
0.00174779
0.00220067
0.00258897
0.00292325
0.00321219
0.00346286
0.00368109
0.00387176
0.00403904
0.00418649
0.00431717
0.00443369
0.00453824
0.00463261
0.00471819
0.00479601
0.0048667
0.00493054
0.00498746
0.0050371
6.97272e-05
0.000617619
0.00123306
0.00176834
0.00222574
0.00261704
0.00295314
0.00324301
0.00349404
0.00371236
0.00390311
0.00407071
0.00421892
0.00435101
0.00446972
0.00457736
0.00467577
0.00476637
0.00485012
0.00492759
0.00499891
0.00506386
0.00512188
0.000296225
0.000627041
0.00124681
0.00178775
0.0022491
0.00264293
0.00298049
0.0032711
0.00352246
0.00374097
0.00393205
0.00410036
0.00424989
0.00438408
0.00450583
0.00461753
0.00472108
0.00481789
0.00490885
0.0049944
0.00507451
0.00514876
0.00521636
0.000296253
0.000633002
0.00125973
0.00180554
0.0022702
0.00266616
0.003005
0.00329634
0.00354816
0.00376715
0.003959
0.00412859
0.00428015
0.00441728
0.00454304
0.00465991
0.00476983
0.00487416
0.00497372
0.00506878
0.00515909
0.00524396
0.00532237
7.00097e-05
0.000636392
0.00127102
0.00182095
0.00228841
0.00268626
0.00302634
0.00331858
0.0035712
0.00379115
0.00398436
0.00415595
0.00431035
0.00445138
0.00458223
0.00470548
0.0048231
0.0049364
0.00504608
0.00515218
0.0052542
0.00535113
0.00544161
6.97928e-05
0.000639436
0.0012798
0.00183312
0.00230293
0.00270254
0.00304405
0.00333759
0.00359157
0.00381315
0.00400846
0.00418287
0.00434104
0.00448698
0.00462406
0.00475498
0.00488173
0.00500557
0.00512703
0.00524589
0.0053613
0.00547183
0.00557572
7.00728e-05
0.000643127
0.0012852
0.00184083
0.0023126
0.00271405
0.00305746
0.00335299
0.00360915
0.00383321
0.0040315
0.00420962
0.0043725
0.0045244
0.0046689
0.00480882
0.00494623
0.00508233
0.00521744
0.00535102
0.00548174
0.00560762
0.00572637
0.000296958
0.000645079
0.00128553
0.00184229
0.00231569
0.0027194
0.0030656
0.00336424
0.0036237
0.00385128
0.00405352
0.00423627
0.0044048
0.00456366
0.00471672
0.00486702
0.00501672
0.00516698
0.0053179
0.00546851
0.00561684
0.00576016
0.00589542
0.000296839
0.000640981
0.00127883
0.00183474
0.00230951
0.00271653
0.00306715
0.00337059
0.00363485
0.0038672
0.00407439
0.00426266
0.00443766
0.00460439
0.00476708
0.00492911
0.00509282
0.00525939
0.00542869
0.00559919
0.00576804
0.00593142
0.00608515
7.00462e-05
0.00062999
0.00126139
0.00181338
0.00228989
0.00270252
0.00306037
0.00337114
0.00364216
0.00388068
0.00409382
0.00428835
0.00447049
0.0046458
0.00481904
0.00499406
0.00517355
0.00535886
0.00554967
0.00574375
0.00593703
0.00612395
0.00629861
0.000296663
0.000615851
0.00122486
0.00176938
0.00225026
0.00267344
0.00304329
0.00336501
0.00364522
0.00389142
0.00411141
0.00431273
0.0045024
0.00468669
0.0048711
0.00506013
0.00525713
0.00546386
0.00568002
0.00590265
0.0061259
0.0063414
0.00654021
0.00029633
0.000578845
0.00114994
0.00168712
0.00218123
0.00262474
0.00301413
0.00335169
0.00364387
0.00389918
0.00412665
0.00433497
0.00453216
0.00472543
0.00492115
0.0051248
0.00534071
0.00557161
0.00581776
0.00607578
0.00633738
0.00658932
0.00681669
0.000296377
0.000481932
0.000998237
0.00154326
0.00207207
0.00255293
0.00297251
0.00333164
0.00363851
0.00390397
0.00413909
0.00435415
0.00455838
0.00476004
0.00496657
0.00518463
0.00542007
0.00567738
0.00595866
0.00626139
0.00657491
0.00687714
0.00713887
8.78808e-05
0.000278976
0.000730362
0.00131834
0.00191813
0.00245977
0.00292148
0.00330721
0.00363039
0.00390613
0.00414839
0.00436936
0.00457958
0.00478841
0.00500434
0.00523542
0.00548941
0.00577368
0.00609434
0.00645344
0.0068416
0.00722318
0.00752497
0.000189883
0.000128823
0.000403186
0.00103227
0.00173691
0.00235947
0.00287021
0.00328344
0.00362188
0.00390645
0.0041544
0.00437982
0.00459445
0.00480853
0.00503149
0.00527261
0.00554168
0.00584965
0.00620933
0.00663473
0.00713379
0.00767104
0.00800579
0.000413191
0.000139018
0.000194903
0.00078581
0.00158926
0.00228558
0.00283522
0.00326786
0.00361616
0.00390604
0.00415723
0.00438507
0.00460204
0.0048189
0.00504563
0.00529226
0.00556991
0.00589241
0.0062793
0.00676293
0.00740608
0.00834967
0.00862644
7.48154e-05
6.96421e-05
7.06573e-05
7.64413e-05
0.000632827
0.000598861
0.000598361
0.000633859
0.00121244
0.00118507
0.00118941
0.00122567
0.00168048
0.00166661
0.00167157
0.00169481
0.00205779
0.00205212
0.00205727
0.00207209
0.00236871
0.00236666
0.00237128
0.00238216
0.00264291
0.0026433
0.00264751
0.00265513
0.00288722
0.0028891
0.0028929
0.00289798
0.00310656
0.00310915
0.00311226
0.0031155
0.00330475
0.00330752
0.00330994
0.00331174
0.00348485
0.00348737
0.00348898
0.00348943
0.00364919
0.00365119
0.00365185
0.00365097
0.00379946
0.00380087
0.0038006
0.00379849
0.00393693
0.00393782
0.00393677
0.00393364
0.00406265
0.00406317
0.00406154
0.00405766
0.0041776
0.00417795
0.00417599
0.00417166
0.0042827
0.00428309
0.00428108
0.00427661
0.00437888
0.00437954
0.00437775
0.00437346
0.00446714
0.00446832
0.00446703
0.00446323
0.00454863
0.00455059
0.00455009
0.00454711
0.00462467
0.00462772
0.00462834
0.00462651
0.00469683
0.0047013
0.00470339
0.00470308
0.00476689
0.00477315
0.0047771
0.00477869
0.00483685
0.00484531
0.00485152
0.00485543
0.00490881
0.00491992
0.00492883
0.00493549
0.00498498
0.0049992
0.00501127
0.00502111
0.00506755
0.00508536
0.00510104
0.00511451
0.00515862
0.0051805
0.00520026
0.0052178
0.00526018
0.00528661
0.0053109
0.00533291
0.00537405
0.0054055
0.00543474
0.00546161
0.00550194
0.00553886
0.00557343
0.00560551
0.00564547
0.00568828
0.00572856
0.00576612
0.00580632
0.00585543
0.0059017
0.00594496
0.00598636
0.00604211
0.00609462
0.00614366
0.00618786
0.00625057
0.0063094
0.00636417
0.00641387
0.00648371
0.00654876
0.00660888
0.00666863
0.0067455
0.00681624
0.00688086
0.00695834
0.0070415
0.00711662
0.00718401
0.00729213
0.00737939
0.00745599
0.00752289
0.00768335
0.00776917
0.00784128
0.0079019
0.00814943
0.0082212
0.00827766
0.00832265
0.00870412
0.00873735
0.00876083
0.00877817
0.000380749
0.000811825
0.0011239
0.00131416
0.00142281
0.00147904
0.00150041
0.00149605
0.00146941
0.00142157
0.0013604
0.00129318
0.00121725
0.00113005
0.00102372
0.000876365
0.000670363
0.000387523
5.16192e-05
0.000862144
0.00117532
0.00141533
0.00157548
0.00167307
0.00172547
0.00174532
0.0017399
0.00171324
0.00166808
0.00160721
0.00153347
0.00144252
0.00132974
0.00118753
0.00100231
0.00075682
0.000428904
5.41776e-05
0.00134414
0.00154342
0.00171125
0.0018324
0.00191028
0.0019528
0.00196726
0.0019585
0.00192938
0.00188317
0.00182187
0.0017405
0.00163363
0.00149758
0.00132695
0.00110981
0.000828511
0.000461981
5.49634e-05
0.00175973
0.00188231
0.00199358
0.00207851
0.00213427
0.00216359
0.00217011
0.00215586
0.00212235
0.0020723
0.00200615
0.00191429
0.00179079
0.00163612
0.00144277
0.00119986
0.000887224
0.000482914
5.73182e-05
0.00210923
0.00218261
0.00225463
0.00231138
0.00234632
0.00236127
0.00235889
0.00233799
0.00229773
0.00223833
0.00215884
0.00205592
0.00192008
0.00174678
0.00153443
0.00127048
0.000931199
0.000495451
6.03947e-05
0.00240628
0.00244938
0.00249496
0.00252866
0.00254598
0.00254754
0.00253403
0.00250259
0.00245185
0.00237949
0.00228707
0.00217137
0.00202463
0.00184586
0.00162375
0.00134421
0.000977351
0.000498341
6.05293e-05
0.0026704
0.00269486
0.00271826
0.002732
0.00273283
0.00272042
0.00269387
0.00264848
0.002583
0.00249739
0.00239195
0.00226615
0.00211226
0.00192404
0.00169603
0.00141195
0.00104603
0.000577039
0.000290285
0.00290705
0.00291832
0.00292439
0.00292066
0.00290594
0.00288013
0.0028394
0.00277891
0.00269824
0.00259789
0.00247821
0.00233757
0.00216925
0.00196905
0.00173139
0.0014411
0.00106962
0.000581528
0.000296471
0.00312014
0.00312157
0.00311451
0.00309697
0.00306892
0.00303
0.00297471
0.00289924
0.00280305
0.0026863
0.00254909
0.00238932
0.00220348
0.00198815
0.00173752
0.00143841
0.00106299
0.000573223
6.99119e-05
0.00331305
0.00330701
0.00329033
0.00326198
0.00322242
0.00317063
0.00310147
0.00301169
0.00290027
0.00276677
0.00261031
0.00242915
0.00222244
0.00198775
0.00172003
0.00141031
0.00103358
0.000556668
6.98845e-05
0.00348775
0.00347557
0.00345165
0.003415
0.00336557
0.00330213
0.00322051
0.00311765
0.00299224
0.00284305
0.00266831
0.00246598
0.00223551
0.00197712
0.00168972
0.00136691
0.000990348
0.000537722
6.977e-05
0.00364649
0.0036292
0.0035993
0.0035558
0.00349819
0.00342496
0.00333273
0.00321875
0.00308123
0.0029183
0.00272761
0.00250663
0.00225354
0.00196908
0.00165657
0.00131574
0.000939355
0.000517727
0.000295133
0.00379157
0.00376998
0.00373511
0.00368596
0.00362168
0.00354053
0.00343977
0.00331683
0.00316949
0.0029954
0.00279178
0.00255552
0.00228394
0.00197671
0.00163818
0.00127381
0.00088997
0.00049325
6.9609e-05
0.00392474
0.00389971
0.00386091
0.0038073
0.00373778
0.00365058
0.00354335
0.0034136
0.00325891
0.00307659
0.00286353
0.00261621
0.00233139
0.00200731
0.00164633
0.00125663
0.000856472
0.000475397
0.000294467
0.00404732
0.00401977
0.00397812
0.00392127
0.00384798
0.00375654
0.00364481
0.00351042
0.00335086
0.00316329
0.00294438
0.0026904
0.00239756
0.00206285
0.00168618
0.00127429
0.000849618
0.000460688
0.000294383
0.00416044
0.00413131
0.00408786
0.00402899
0.00395339
0.00385941
0.00374506
0.00360809
0.00344599
0.00325589
0.00303442
0.00277774
0.00248169
0.00214236
0.00175734
0.00132926
0.000875894
0.000446604
6.91212e-05
0.00426508
0.00423531
0.00419112
0.0041314
0.00405485
0.00395987
0.0038446
0.00370687
0.00354426
0.00335392
0.00313257
0.00287639
0.00258112
0.00224231
0.00185601
0.00142058
0.000943491
0.000459647
6.89359e-05
0.0043622
0.00433271
0.00428878
0.00422934
0.00415308
0.00405846
0.0039437
0.00380673
0.0036452
0.00345635
0.003237
0.00298342
0.00269139
0.00235627
0.00197332
0.00153831
0.00104987
0.000519205
7.10718e-05
0.00445281
0.00442449
0.00438181
0.00432368
0.00424881
0.00415571
0.00404264
0.00390759
0.00374827
0.00356201
0.00334566
0.00309555
0.00280738
0.0024762
0.00209631
0.00166118
0.00116348
0.000598534
7.63199e-05
0.0045381
0.00451184
0.00447133
0.00441547
0.00434298
0.00425236
0.00414189
0.00400959
0.00385319
0.00367002
0.00345693
0.00321013
0.00292501
0.00259585
0.00221517
0.00177259
0.00125528
0.000653271
8.11298e-05
0.0046195
0.00459618
0.00455873
0.00450603
0.00443677
0.00434942
0.00424224
0.00411324
0.00396011
0.00378014
0.00357004
0.00332578
0.00304221
0.0027126
0.00232728
0.00187437
0.00133663
0.000697916
8.44865e-05
0.00469869
0.00467919
0.00464568
0.00459697
0.00453169
0.00444827
0.0043449
0.00421953
0.00406978
0.00389282
0.00368515
0.00344243
0.00315882
0.00282674
0.00243568
0.00197086
0.00141169
0.000738418
8.71625e-05
0.00477758
0.0047628
0.00473408
0.00469015
0.00462954
0.00455059
0.00445142
0.00432987
0.00418345
0.00400916
0.00380325
0.00356107
0.00327639
0.00294076
0.00254237
0.0020644
0.0014835
0.000777063
8.97653e-05
0.00485828
0.00484914
0.00482605
0.00478764
0.00473232
0.00465832
0.00456365
0.00444602
0.0043028
0.00413082
0.00392614
0.00368373
0.00339688
0.00305643
0.00264942
0.00215732
0.00155437
0.00081529
9.26189e-05
0.00494301
0.00494042
0.00492379
0.0048916
0.00484214
0.00477351
0.0046836
0.00456999
0.00442988
0.00425989
0.00405583
0.00381235
0.00352228
0.0031758
0.00275899
0.00225182
0.00162623
0.000854175
9.59605e-05
0.00503401
0.0050389
0.00502951
0.0050042
0.00496113
0.00489827
0.00481337
0.00470385
0.00456673
0.0043984
0.00419441
0.00394905
0.00365475
0.00330109
0.00287327
0.00234993
0.00170078
0.00089474
9.98189e-05
0.00513351
0.00514673
0.00514533
0.00512751
0.0050913
0.00503456
0.00495489
0.00484955
0.00471534
0.0045484
0.00434399
0.00409604
0.00379655
0.00343453
0.00299442
0.00245358
0.00177958
0.000938052
0.000104073
0.00524358
0.00526594
0.00527318
0.00526337
0.00523443
0.00518412
0.00510989
0.00500885
0.00487755
0.00471186
0.00450668
0.00425553
0.00394995
0.00357839
0.00312456
0.00256464
0.00186407
0.000984956
0.000108666
0.00536611
0.00539832
0.00541475
0.00541337
0.00539203
0.00534841
0.00527986
0.00518329
0.00505502
0.00489059
0.00468447
0.00442971
0.00411728
0.00373503
0.00326591
0.00268496
0.00195558
0.00103618
0.000113551
0.00550278
0.00554544
0.00557146
0.0055788
0.0055653
0.00552859
0.00546594
0.00537411
0.00524916
0.00508622
0.00487928
0.00462076
0.00430093
0.00390692
0.00342082
0.00281655
0.00205552
0.00109234
0.000118833
0.00565514
0.00570864
0.00574449
0.00576066
0.00575509
0.00572543
0.00566894
0.00558223
0.00546108
0.00530019
0.00509291
0.00483088
0.00450347
0.00409681
0.00359199
0.00296172
0.00216544
0.00115391
0.000124846
0.00582456
0.00588911
0.00593475
0.00595965
0.00596192
0.00593936
0.00588928
0.00580819
0.00569159
0.00553367
0.00532703
0.00506231
0.00472767
0.00430787
0.00378266
0.00312334
0.00228739
0.00122179
0.000131852
0.00601241
0.00608787
0.00614297
0.00617619
0.00618598
0.00617043
0.00612699
0.00605213
0.0059411
0.00578754
0.00558318
0.00531737
0.00497663
0.00454387
0.00399687
0.00330516
0.00242425
0.00129767
0.000139893
0.00622007
0.00630593
0.00636968
0.00641042
0.00642712
0.00641831
0.00638167
0.00631377
0.00620962
0.00606233
0.00586263
0.00559835
0.00525386
0.00480939
0.00423986
0.00351221
0.00257987
0.00138372
0.000148978
0.00644915
0.00654425
0.0066153
0.00666226
0.00668487
0.00668224
0.00665248
0.00659229
0.0064966
0.00635804
0.00616631
0.00590748
0.00556323
0.00511009
0.0045186
0.00375155
0.00275969
0.0014825
0.000159323
0.00670148
0.00680383
0.00688005
0.00693133
0.0069584
0.00696112
0.0069381
0.00688637
0.0068009
0.006674
0.00649449
0.00624661
0.00590886
0.00545285
0.00484251
0.00403359
0.00297211
0.0015979
0.000171236
0.00697924
0.00708567
0.00716397
0.00721697
0.00724656
0.00725342
0.00723678
0.0071941
0.00712063
0.00700867
0.00684648
0.00661676
0.00629468
0.00584577
0.00522439
0.00437414
0.00323113
0.00173656
0.00018516
0.00728484
0.00739052
0.00746671
0.00751812
0.00754782
0.00755729
0.00754635
0.00751305
0.00745314
0.00735937
0.00722012
0.00701733
0.00672347
0.00629754
0.00568115
0.00479774
0.00356153
0.00191101
0.000201909
0.00762053
0.00771857
0.00778733
0.00783325
0.00786033
0.00787059
0.0078644
0.00784037
0.00779506
0.00772222
0.00761131
0.00744501
0.00719504
0.00681545
0.0062336
0.00534248
0.00400993
0.0021488
0.00022296
0.00798739
0.00806874
0.00812393
0.00816026
0.00818194
0.00819112
0.00818841
0.00817303
0.00814252
0.00809216
0.00801366
0.00789257
0.00770352
0.00740098
0.00690279
0.00606526
0.00466887
0.00252102
0.00025096
0.00838334
0.0084377
0.00847333
0.00849646
0.00851037
0.00851674
0.00851613
0.0085082
0.00849157
0.00846346
0.00841875
0.00834811
0.00823397
0.00804142
0.00769697
0.00703974
0.00572912
0.00324501
0.000290417
0.00880033
0.00881909
0.00883107
0.00883878
0.00884347
0.00884576
0.00884586
0.00884372
0.00883893
0.00883066
0.00881732
0.00879597
0.00876073
0.00869895
0.00857927
0.00830994
0.00757156
0.0052034
0.000343598
)
;

boundaryField
{
    leftWall
    {
        type            nutkWallFunction;
        Cmu             0.09;
        kappa           0.41;
        E               9.8;
        value           nonuniform List<scalar> 
50
(
1.72757e-06
2.78263e-06
3.40165e-06
3.85272e-06
4.20709e-06
4.50359e-06
4.76546e-06
5.01127e-06
5.32877e-06
5.74329e-06
6.16721e-06
1.8954e-06
2.87458e-06
1.58817e-06
0
0
0
5.3244e-09
7.26077e-10
0
0
9.87831e-10
0
0
0
0
0
9.71659e-09
0
1.34094e-08
0
6.4388e-09
0
0
8.57149e-09
0
7.0477e-09
6.65113e-09
1.17853e-08
0
1.70009e-08
1.77796e-08
1.53677e-08
1.23053e-08
1.33348e-08
8.89568e-09
1.04749e-08
2.93247e-06
1.83657e-05
4.87361e-05
)
;
    }
    rightWall
    {
        type            nutkWallFunction;
        Cmu             0.09;
        kappa           0.41;
        E               9.8;
        value           nonuniform List<scalar> 
50
(
2.13507e-06
3.0176e-06
3.61528e-06
4.14379e-06
4.62221e-06
5.05941e-06
5.46152e-06
5.8455e-06
6.25459e-06
6.56349e-06
6.65917e-06
6.28687e-07
3.20891e-06
1.60399e-06
6.91274e-09
1.23432e-08
1.0345e-08
1.3761e-09
0
0
0
0
0
0
0
3.25396e-07
1.1295e-06
1.84524e-06
2.39305e-06
2.82575e-06
3.24395e-06
3.70422e-06
4.25534e-06
4.86593e-06
5.53559e-06
6.25332e-06
6.99354e-06
7.80725e-06
8.73722e-06
9.81957e-06
1.10337e-05
1.23938e-05
1.39283e-05
1.56784e-05
1.76909e-05
2.0096e-05
2.30865e-05
2.70027e-05
3.24246e-05
3.95824e-05
)
;
    }
    lowerWall
    {
        type            nutkWallFunction;
        Cmu             0.09;
        kappa           0.41;
        E               9.8;
        value           nonuniform List<scalar> 
62
(
4.74351e-07
1.1557e-06
1.5299e-06
1.77638e-06
1.95843e-06
2.10079e-06
2.21553e-06
2.30941e-06
2.3865e-06
2.45033e-06
2.50435e-06
2.55191e-06
2.59454e-06
2.62908e-06
2.64474e-06
2.62025e-06
2.53784e-06
2.40284e-06
2.22365e-06
2.01761e-06
1.82882e-06
1.50933e-06
8.67117e-07
8.67117e-07
3.878e-06
4.63447e-06
5.28235e-06
5.90803e-06
6.5818e-06
7.36825e-06
8.60715e-06
9.00031e-06
8.40041e-06
8.52056e-06
9.19344e-06
1.05865e-06
4.38312e-06
4.85274e-06
5.30029e-06
5.88664e-06
6.57722e-06
7.48049e-06
9.03386e-06
1.05865e-06
1.85788e-06
2.22146e-06
2.37451e-06
2.45974e-06
2.49921e-06
2.52838e-06
2.54324e-06
2.49689e-06
2.34231e-06
2.1308e-06
1.89932e-06
1.75681e-06
1.7797e-06
1.8307e-06
1.7801e-06
1.51081e-06
1.17888e-06
5.49632e-07
)
;
    }
    atmosphere
    {
        type            calculated;
        value           nonuniform List<scalar> 
46
(
0.009
0.000139018
0.000194903
0.00078581
0.00158926
0.00228558
0.00283522
0.00326786
0.00361616
0.00390604
0.00415723
0.00438507
0.00460204
0.0048189
0.00504563
0.00529226
0.00556991
0.00589241
0.0062793
0.00676293
0.00740608
0.009
0.009
0.009
0.009
0.009
0.009
0.009
0.009
0.009
0.009
0.009
0.009
0.009
0.009
0.009
0.009
0.009
0.009
0.009
0.009
0.009
0.009
0.009
0.009
0.000343598
)
;
    }
    defaultFaces
    {
        type            empty;
    }
}


// ************************************************************************* //
