/*--------------------------------*- C++ -*----------------------------------*\
  =========                 |
  \\      /  F ield         | OpenFOAM: The Open Source CFD Toolbox
   \\    /   O peration     | Website:  https://openfoam.org
    \\  /    A nd           | Version:  9
     \\/     M anipulation  |
\*---------------------------------------------------------------------------*/
FoamFile
{
    format      ascii;
    class       volScalarField;
    location    "11.35";
    object      p;
}
// * * * * * * * * * * * * * * * * * * * * * * * * * * * * * * * * * * * * * //

dimensions      [0 2 -2 0 0 0 0];

internalField   nonuniform List<scalar> 
918
(
23.4488
23.6741
1.00297
22.8655
0.996424
23.1906
3.38566
13.8551
19.2217
2.98021
2.67155
14.3876
20.7335
16.9749
13.0957
0.927706
14.0828
2.31044
18.4388
1.41423
13.0904
20.4275
21.5162
19.2639
14.1122
14.4628
18.6959
1.21305
0.116218
0.291018
0.964341
0.413763
0.160432
21.7275
22.4041
22.3424
15.4756
10.4604
3.70948
3.91325
3.09519
2.90965
13.894
13.9915
5.95384
13.8384
13.8367
16.6239
19.0897
19.2333
19.5268
19.3157
19.7021
5.95605
2.84049
2.65933
2.93388
3.00198
2.98374
2.74851
2.72844
2.53549
2.3907
13.871
14.4607
14.5151
14.2484
14.197
22.5501
21.7932
22.1279
21.2343
21.3797
20.3096
19.9241
17.3506
17.7031
16.5767
16.1958
12.8839
12.8419
13.3186
13.5655
0.149493
1.074
1.22223
14.0861
14.1172
14.1317
14.1497
8.30911
2.26604
2.2707
17.8792
17.4556
20.4608
20.7279
20.1749
19.9894
1.55901
1.56382
1.18542
1.20864
0.976777
13.422
13.5738
19.2153
18.3822
14.1385
14.043
14.1144
11.4934
13.903
13.9799
15.4203
15.8749
15.0623
15.5003
18.2659
17.8478
19.1324
19.5697
0.416177
0.163643
0.694086
0.326766
0.522812
15.344
15.139
15.589
15.6422
15.8734
10.4629
10.3871
10.4415
10.3612
4.25815
4.56993
2.3442
2.67138
2.51218
9.92702
14.0049
14.0464
4.91345
5.60742
5.27768
6.42113
6.79037
15.9899
16.4262
16.1651
17.7111
16.9161
17.2642
19.7925
19.2818
19.5822
6.35082
6.59667
5.59124
5.23739
2.30545
2.54374
2.48548
3.03335
3.01125
3.21367
3.3478
2.70161
2.55762
2.94503
2.8263
2.87901
2.22042
2.08721
13.5955
13.382
14.1332
14.3116
15.0743
14.9263
14.6331
14.8016
19.1192
19.5226
19.5561
19.1719
11.6198
10.1904
13.8211
14.0948
0.307934
0.26703
0.136031
0.3773
0.397728
0.146595
2.01551
1.82459
1.40414
1.67813
14.0754
14.0302
8.55262
8.77778
8.14105
7.88101
16.2929
16.4433
17.0776
16.6773
2.00834
1.71836
1.84953
13.7298
13.6056
13.712
10.932
10.3734
11.9671
12.2352
14.0023
14.0368
14.0366
15.7795
16.0979
19.9205
20.1912
20.018
20.4038
21.4666
21.1179
20.7331
14.521
14.9288
14.7677
16.1065
15.7401
15.9595
15.1671
15.472
15.3296
10.4165
10.4614
10.1814
10.2589
10.3059
10.2535
9.86154
9.73329
14.1206
14.0844
14.1034
7.30665
7.7973
4.85952
4.53337
12.53
13.2014
12.8784
18.7489
18.0712
18.8042
18.4333
17.9834
18.3069
10.4707
10.4275
10.463
15.0163
14.356
14.7067
2.43987
2.07727
2.24386
8.97665
9.07144
6.96844
7.59598
7.25681
16.3994
16.7398
17.4199
16.5317
16.9993
17.5066
17.2847
10.002
10.1358
10.0519
9.71644
9.60738
9.74692
8.36909
8.97423
3.61137
4.25996
3.96046
9.24165
9.4797
9.32416
18.6098
19.1446
0.793003
1.20858
19.574
19.2976
0.145217
0.242878
14.3521
12.6358
7.32386
17.1759
16.6102
18.9491
3.22205
6.10182
2.84325
3.38933
2.69678
14.5923
14.234
13.3281
0.467641
1.25334
1.72773
2.94873
18.3903
17.7152
18.8309
19.1511
19.2054
0.696192
0.938831
0.588672
1.28294
1.05947
1.29872
15.5323
15.6268
4.41877
18.8377
19.1419
19.1597
17.636
18.5889
17.6463
0.931883
0.63768
0.71286
10.0905
12.1192
14.313
13.8647
14.0627
14.085
13.8362
14.9685
14.6404
14.603
15.0866
14.0216
13.8908
7.77257
6.45116
8.11241
7.75464
17.0774
16.6651
16.4736
16.2195
18.0642
17.5902
18.4406
17.8288
18.2906
18.5776
2.99328
3.17349
3.05178
2.57099
6.14439
6.61182
5.48838
5.62558
4.25876
2.48612
2.57186
2.78434
2.62992
2.9523
2.69756
2.95538
2.59155
2.33301
2.32947
2.94499
2.75935
2.62379
14.5699
14.5095
14.3105
14.3491
14.3377
14.452
13.5215
13.9236
13.5509
12.3925
12.9659
12.4931
0.820497
0.657293
0.53199
1.32885
1.35843
1.12914
0.858202
1.20541
1.20875
0.854914
1.55417
1.48834
3.21142
2.71622
8.87894
7.99487
6.90571
16.7807
17.5823
16.752
17.9921
18.4091
18.5146
18.1351
17.627
15.7073
15.7027
15.3628
15.3156
4.83494
3.81938
5.0361
4.62164
10.5364
14.0724
11.8381
10.8064
11.0959
13.4047
14.0293
13.6762
13.8307
13.3916
12.9113
13.6166
13.1428
13.245
13.0128
15.8161
16.2911
15.8976
15.318
15.3382
10.6462
12.0348
5.54724
5.70427
7.27607
6.58313
13.5969
13.9811
13.9627
13.6254
13.8214
13.8017
13.6576
13.8248
13.923
13.8156
11.8218
10.149
9.0646
9.06124
14.1077
12.3576
12.9521
12.4057
16.0984
16.6154
16.2298
15.6271
16.1116
15.5836
15.609
15.8207
17.1807
16.93
16.7001
17.0871
3.10559
3.05045
3.68402
3.18395
3.08412
2.86768
3.52365
4.77747
4.43982
6.73058
7.2683
4.604
3.43947
3.83033
4.83165
5.55012
5.53793
3.98669
4.50189
4.92883
4.44799
5.21913
4.72669
2.74885
3.05124
2.89673
2.87156
3.3953
3.88286
3.38587
2.50701
2.62726
2.3073
2.17091
3.55571
3.04176
3.07819
3.70265
1.12069
1.33754
1.4549
2.43296
1.92621
1.98699
15.1603
14.8038
14.9376
14.2167
14.2867
14.229
13.8511
15.2211
14.944
15.0429
13.6933
13.7797
13.5933
13.8874
14.298
14.5975
15.4312
15.1514
14.3911
14.5438
14.1958
14.1235
13.449
12.8844
12.8255
1.1114
0.819703
0.989406
0.925069
0.613322
0.807726
2.18661
1.57906
1.98464
1.72636
1.95978
1.44191
1.31876
4.29001
5.08133
4.02161
3.42712
3.14451
8.93577
9.0506
8.18319
7.87679
8.22055
8.45683
8.40528
7.13948
7.57679
7.3854
9.97885
9.63811
17.5662
17.5105
17.1818
17.0228
17.2491
5.81049
7.67068
6.84183
7.95523
10.2578
10.5653
9.32951
8.73151
9.49701
9.55961
14.0565
14.137
13.5659
14.05
14.0761
11.826
12.8763
13.4894
13.292
13.823
13.91
12.9857
13.5653
13.4585
12.7349
12.7979
12.1177
12.4511
11.9768
11.7822
14.0329
13.9296
14.1988
13.7496
14.1269
13.7006
14.0094
14.0133
14.2943
13.3911
12.8154
12.8406
13.2612
12.955
13.3033
13.4631
9.31077
9.96594
10.4307
10.9738
10.6857
10.4577
10.3216
10.6294
10.6118
10.8775
10.7973
10.6399
11.5733
13.5113
13.7915
13.9092
13.6767
13.718
13.4129
13.6966
13.6198
13.9524
14.0511
14.0964
13.1701
13.3469
13.5532
13.432
11.6848
10.0824
9.94989
9.51739
7.60403
8.07726
11.0168
9.91699
8.94287
9.00809
12.1711
10.8037
11.6137
12.034
10.6894
10.3073
12.9759
13.7791
13.9928
13.7024
12.0587
12.1868
12.6389
13.0927
13.2895
13.7602
15.8407
16.4154
16.4935
16.218
16.0795
16.1786
15.9282
16.0318
16.5059
16.6323
16.4634
2.92383
3.03441
2.97253
2.89582
3.13005
2.91946
3.99134
3.98425
3.1948
3.37283
3.39271
3.49782
2.97696
3.01422
4.8306
5.06095
5.33759
4.84711
6.18275
6.82444
7.40122
7.09176
5.79617
5.86924
6.18354
3.53208
3.54384
3.26972
3.71908
3.77928
2.64305
2.27751
2.07566
2.60586
2.7013
2.08734
1.80806
1.86282
2.35611
2.10132
1.84938
14.9556
14.7146
14.7356
14.5158
14.5704
14.9637
15.1842
14.9932
15.1309
15.1816
14.7822
14.6696
14.8411
1.82674
1.49054
1.64613
1.61305
1.64205
1.56728
1.74967
7.61703
6.42165
6.79988
6.002
4.17278
4.67789
9.59518
10.0196
10.0592
9.76516
9.5521
9.91499
9.774
9.76611
8.28354
9.36446
8.89278
9.30418
9.33204
9.39952
9.10415
9.08472
10.5941
10.6213
9.48767
10.1389
9.34762
7.96422
8.1255
9.12403
10.085
10.4565
10.2962
10.0051
9.78091
10.1699
10.2165
10.2883
10.2782
8.7672
8.7093
8.2977
13.9807
13.8952
14.0441
14.0432
14.1785
13.9665
13.804
14.0855
14.142
13.9219
11.1281
11.1934
11.4414
12.2085
12.2645
12.1173
11.367
13.1626
12.8011
13.4707
13.4087
13.4601
13.0392
12.8639
13.1528
10.0836
11.4533
10.9826
11.2505
10.0692
9.32436
13.2446
13.2906
13.3752
13.6552
13.5944
14.1876
15.8101
15.6796
15.7278
15.771
15.3824
15.419
4.19134
3.85432
4.5642
4.52625
4.09185
3.79652
2.30088
1.99201
1.81206
1.68435
1.90036
1.96174
8.17401
8.203
6.34426
7.36846
5.91816
4.98304
4.8408
5.97931
7.1544
7.22251
8.53035
9.22509
8.78267
8.60883
7.93884
8.27137
10.1771
10.2686
10.1697
10.4907
10.0248
11.7733
11.3539
11.7076
13.3403
13.0358
12.428
12.316
12.2938
12.8983
11.9545
11.1732
11.891
12.5711
12.5271
11.1706
10.9228
11.351
11.3202
10.2279
10.7617
10.5212
10.869
10.568
)
;

boundaryField
{
    wall-4
    {
        type            zeroGradient;
    }
    velocity-inlet-5
    {
        type            zeroGradient;
    }
    velocity-inlet-6
    {
        type            zeroGradient;
    }
    pressure-outlet-7
    {
        type            fixedValue;
        value           uniform 0;
    }
    wall-8
    {
        type            zeroGradient;
    }
    frontAndBackPlanes
    {
        type            empty;
    }
}


// ************************************************************************* //
