/*--------------------------------*- C++ -*----------------------------------*\
  =========                 |
  \\      /  F ield         | OpenFOAM: The Open Source CFD Toolbox
   \\    /   O peration     | Website:  https://openfoam.org
    \\  /    A nd           | Version:  9
     \\/     M anipulation  |
\*---------------------------------------------------------------------------*/
FoamFile
{
    format      ascii;
    class       volScalarField;
    location    "10";
    object      epsilon;
}
// * * * * * * * * * * * * * * * * * * * * * * * * * * * * * * * * * * * * * //

dimensions      [0 2 -3 0 0 0 0];

internalField   nonuniform List<scalar> 
2268
(
6.5989e-05
0.00037742
0.000681953
0.000960782
0.00121251
0.00143678
0.00163378
0.00180415
0.00194999
0.00207617
0.00218973
0.00229236
0.00238306
0.00244923
0.00246612
0.00239787
0.00222885
0.00201898
0.00173639
0.00142765
0.00110849
0.000655663
0.000183029
0.000139281
0.000248542
0.000374052
0.000491489
0.000597587
0.000691739
0.000774172
0.000845595
0.000907162
0.000960631
0.00100782
0.00104917
0.00108395
0.0011083
0.00111512
0.00109552
0.00104635
0.000977933
0.000884969
0.000763853
0.00061267
0.000435406
0.000309984
0.000240442
0.000257981
0.000338336
0.000418802
0.000492922
0.000559186
0.000617485
0.000668313
0.000712499
0.00075106
0.000784991
0.000814405
0.000838609
0.000855337
0.000860857
0.000851261
0.000825687
0.000786844
0.000732726
0.000661751
0.000576404
0.000490939
0.000533985
0.000340927
0.000287826
0.000343203
0.000405412
0.000464378
0.000517666
0.000564839
0.000606228
0.000642491
0.000674366
0.000702489
0.00072689
0.000746925
0.000760984
0.000766706
0.00076201
0.000746795
0.000722434
0.000689033
0.000648135
0.000606308
0.00058871
0.000793117
0.000438576
0.000324716
0.000361898
0.000411955
0.000461151
0.000506171
0.000546293
0.000581724
0.000613013
0.00064075
0.000665386
0.000686925
0.000704797
0.000717782
0.000724285
0.000723152
0.000714695
0.00070037
0.000682192
0.000664817
0.000660563
0.000712019
0.0011118
0.000534423
0.000365203
0.000387523
0.000428257
0.000470089
0.000508894
0.000543725
0.000574702
0.000602299
0.000627011
0.00064918
0.000668809
0.000685409
0.000698044
0.000705634
0.000707626
0.000704662
0.000698486
0.000692769
0.000695439
0.000727245
0.000861083
0.00156479
0.000630177
0.00040821
0.000417581
0.000450527
0.000486226
0.000519834
0.000550239
0.000577508
0.000602062
0.000624326
0.000644567
0.000662789
0.000678593
0.000691265
0.000700113
0.000705053
0.000707096
0.000708061
0.000712749
0.000732252
0.000797187
0.00103223
0.00237853
0.000727658
0.000453568
0.00045108
0.00047707
0.00050725
0.000536148
0.000562554
0.000586499
0.000608364
0.000628511
0.000647149
0.000664273
0.000679575
0.000692518
0.000702717
0.00071047
0.000717202
0.000724632
0.000737863
0.000769888
0.000858117
0.00118718
0.00425507
0.000302919
0.00104857
0.00183533
0.00222396
0.00237938
0.00244431
0.00242794
0.00233649
0.0022183
0.00211621
0.00188387
0.00151618
0.00127152
0.00124269
0.00110675
0.000831764
0.000513663
0.00026989
0.000102182
0.000376883
0.000609336
0.000859182
0.000987525
0.00104637
0.00107347
0.00107397
0.00105042
0.00101177
0.000964569
0.000889255
0.000797879
0.000700683
0.000628975
0.00054855
0.000440582
0.000308508
0.000195543
0.000156773
0.000548263
0.000589944
0.000716962
0.000782495
0.000813806
0.000827526
0.000826515
0.000811628
0.000786319
0.000751372
0.000700064
0.000641663
0.000577655
0.000519604
0.000459467
0.000385254
0.000296372
0.000227173
0.000252721
0.000689871
0.000638067
0.000694467
0.000723748
0.000737281
0.000741767
0.000737588
0.000724215
0.000703088
0.000673811
0.000632317
0.000585329
0.00053531
0.000486554
0.000436822
0.000378635
0.000312309
0.000270413
0.000355218
0.00085096
0.000721759
0.000714352
0.000711984
0.000710039
0.00070651
0.00069885
0.000685189
0.00066575
0.000639708
0.000604205
0.000564001
0.000521651
0.000478962
0.000435258
0.000387201
0.000336634
0.000315505
0.000465294
0.00110088
0.000842612
0.000756043
0.000721263
0.000704767
0.000693923
0.000682831
0.000668316
0.000649611
0.000625695
0.000594526
0.000559219
0.000521694
0.000483322
0.000443716
0.000402766
0.000364329
0.000361957
0.000592863
0.00168395
0.0010054
0.000807537
0.000740372
0.000710777
0.000693457
0.00067922
0.00066374
0.00064543
0.000623127
0.000595329
0.000563784
0.000529663
0.000494498
0.000458261
0.000422893
0.00039403
0.000409358
0.000737912
0.00339799
0.00117289
0.000854257
0.000762506
0.000722717
0.00070008
0.000683169
0.000666843
0.000648896
0.000627998
0.000602912
0.000574351
0.000542892
0.000510176
0.000476947
0.000446152
0.000425044
0.000455692
0.000879533
0.000886324
0.000528753
0.000508345
0.00052392
0.000545775
0.000567556
0.000587986
0.000607039
0.000625021
0.000642193
0.000658678
0.000674435
0.000689276
0.000702876
0.000715243
0.000727128
0.000740402
0.000756877
0.000780775
0.000824347
0.000917446
0.00114503
0.00184499
0.00112503
0.000642926
0.000598017
0.000598405
0.000608156
0.00061992
0.000632388
0.000645191
0.000658496
0.000672398
0.000686886
0.00070184
0.000717029
0.000732248
0.000747788
0.000764574
0.00078417
0.000808268
0.000838993
0.000883363
0.000956864
0.00108863
0.00133068
0.00150513
0.000791987
0.000711955
0.000684811
0.000676728
0.000676248
0.000680383
0.000686867
0.000695971
0.000707449
0.000721061
0.000736569
0.000753367
0.000771053
0.000790042
0.000811382
0.000835947
0.000863727
0.000894501
0.000933511
0.000988126
0.00106592
0.00117068
0.000515185
0.000984031
0.000880551
0.000782995
0.000749643
0.000732875
0.000728425
0.000727877
0.000733266
0.000743161
0.00075698
0.000774449
0.000794044
0.000814864
0.000837507
0.0008636
0.000893395
0.000923006
0.000948717
0.000980603
0.00102323
0.00107208
0.00113247
0.00247256
0.00115234
0.000996479
0.000844508
0.000807568
0.000778015
0.000761742
0.000759919
0.00076583
0.000775578
0.000790374
0.000809689
0.000830086
0.000851277
0.000873347
0.000896496
0.000920801
0.000945972
0.000977075
0.00101263
0.00104431
0.00108296
0.00113956
0.00100152
0.00110233
0.000974611
0.000871625
0.000857549
0.000816257
0.000787848
0.000782085
0.000788539
0.000799085
0.000814392
0.000834683
0.000855606
0.000875443
0.000895211
0.000917879
0.000947441
0.000974972
0.00100184
0.00103951
0.00107162
0.00109233
0.00112668
0.00139916
0.00102916
0.000947068
0.000870854
0.000837194
0.000807522
0.00079424
0.000794588
0.000802679
0.000815512
0.000832646
0.000852962
0.000873701
0.000893636
0.000913856
0.000936836
0.000963916
0.000989479
0.0010144
0.00104451
0.00107387
0.00109385
0.00112099
0.00148392
0.00100938
0.000894176
0.000840459
0.000812931
0.000800557
0.000798099
0.000803551
0.000814752
0.000830591
0.000850096
0.000871551
0.000892438
0.00091277
0.000933377
0.000955226
0.000979262
0.00100408
0.00102897
0.00105441
0.0010787
0.00109607
0.00111206
0.00153228
0.00101101
0.000873697
0.000823058
0.000802635
0.000798328
0.000802603
0.000812829
0.000827473
0.000846181
0.000868308
0.000891744
0.000913572
0.000934056
0.000954535
0.000975632
0.000997756
0.00102077
0.00104395
0.00106686
0.00108832
0.00110504
0.00111748
0.00156356
0.00101921
0.000870121
0.000817935
0.000800488
0.000800045
0.000808595
0.00082273
0.000840681
0.000862099
0.000886427
0.000911617
0.000935001
0.00095661
0.000977935
0.000999482
0.00102112
0.00104303
0.00106498
0.00108654
0.00110693
0.00112445
0.0011376
0.0015869
0.00102965
0.000873982
0.000820081
0.000803819
0.000805505
0.000816842
0.000833934
0.000854734
0.000878619
0.000904852
0.000931804
0.000957426
0.000981303
0.00100453
0.00102758
0.00105018
0.00107241
0.00109441
0.00111605
0.00113695
0.00115621
0.001172
0.00160794
0.00104185
0.000881911
0.00082676
0.000811159
0.000814357
0.000827753
0.000847204
0.000870522
0.000896723
0.000924946
0.000953945
0.000982332
0.00100936
0.00103538
0.00106083
0.00108551
0.00110948
0.00113303
0.00115629
0.00117905
0.00120069
0.0012197
0.00162953
0.00105577
0.000892671
0.000836652
0.000821613
0.000826162
0.000841387
0.000862999
0.000888736
0.000917304
0.000947831
0.000979351
0.0010109
0.00104167
0.00107131
0.00110004
0.00112783
0.00115479
0.00118128
0.00120748
0.00123323
0.00125792
0.00128034
0.0016521
0.00107108
0.000905559
0.000849063
0.000834713
0.000840658
0.000857747
0.000881574
0.000909806
0.000941003
0.000974307
0.00100892
0.00104403
0.00107895
0.00111298
0.00114599
0.00117796
0.00120912
0.00123981
0.00127015
0.00129992
0.00132852
0.00135486
0.00167544
0.00108762
0.000920325
0.000863779
0.00085033
0.00085782
0.000876933
0.000903173
0.000934135
0.000968377
0.00100503
0.00104335
0.00108264
0.00112218
0.0011613
0.0011996
0.00123696
0.00127358
0.00130973
0.00134544
0.0013804
0.00141399
0.00144521
0.00169909
0.00110531
0.000937008
0.000880863
0.000868567
0.000877796
0.000899165
0.000928115
0.00096219
0.00100001
0.00104066
0.00108343
0.00112763
0.00117259
0.00121762
0.00126223
0.00130624
0.00134966
0.00139264
0.0014351
0.00147664
0.00151659
0.00155399
0.00172216
0.00112422
0.000955872
0.000900566
0.000889665
0.000900844
0.000924744
0.000956795
0.000994512
0.00103654
0.00108195
0.00113
0.00118003
0.00123138
0.0012834
0.00133556
0.00138754
0.00143924
0.0014906
0.00154138
0.00159111
0.00163905
0.00168421
0.00174309
0.00114484
0.000977525
0.00092332
0.000913962
0.000927304
0.000954063
0.000989696
0.0010317
0.0010787
0.00112973
0.00118405
0.00124101
0.00129996
0.00136027
0.0014214
0.00148293
0.00154457
0.00160606
0.00166699
0.00172678
0.00178459
0.00183937
0.00175951
0.00116892
0.00100313
0.000949738
0.000941869
0.000957579
0.000987598
0.00102738
0.00107441
0.00112723
0.00118489
0.00124665
0.00131184
0.00137985
0.00145005
0.00152185
0.00159474
0.00166826
0.00174193
0.00181514
0.00188719
0.00195709
0.00202368
0.00176787
0.00120106
0.00103435
0.000980419
0.000973765
0.000992068
0.00102584
0.00107044
0.00112332
0.00118297
0.00124844
0.00131899
0.00139397
0.00147276
0.00155472
0.00163923
0.00172566
0.00181337
0.00190166
0.0019897
0.00207662
0.00216123
0.00224222
0.00176585
0.00125311
0.0010726
0.00101553
0.00100986
0.00103111
0.00106924
0.00111945
0.00117915
0.00124681
0.00132146
0.00140239
0.00148897
0.00158057
0.00167655
0.00177621
0.00187879
0.00198348
0.00208934
0.00219531
0.0023002
0.00240267
0.00250116
0.00176592
0.00130766
0.00111412
0.00105452
0.00105025
0.00107502
0.00111826
0.00117501
0.00124266
0.00131968
0.00140512
0.00149829
0.00159861
0.00170544
0.00181812
0.00193586
0.00205777
0.00218282
0.00230983
0.00243742
0.00256408
0.00268822
0.00280797
0.00746211
0.00138537
0.00115904
0.00109749
0.00109514
0.00112412
0.00117336
0.00123773
0.00131464
0.00140258
0.00150068
0.00160829
0.00172486
0.0018498
0.00198238
0.00212174
0.00226682
0.00241635
0.00256885
0.00272259
0.00287564
0.00302608
0.00317161
0.00176575
0.0014301
0.00120813
0.00114462
0.00114476
0.00117874
0.00123497
0.00130821
0.00139587
0.00149658
0.0016095
0.00173411
0.00186991
0.00201635
0.00217267
0.00233791
0.00251083
0.00268987
0.00287317
0.00305858
0.00324369
0.00342604
0.00360286
0.00176817
0.00149074
0.00126075
0.00119599
0.00119928
0.00123915
0.00130352
0.00138704
0.00148718
0.00160272
0.001733
0.00187759
0.00203613
0.0022081
0.00239276
0.00258903
0.00279544
0.00301011
0.00323072
0.00345458
0.00367866
0.00389978
0.00411459
0.00176556
0.00156974
0.00131757
0.00125167
0.00125885
0.0013056
0.00137937
0.00147476
0.00158937
0.00172212
0.00187262
0.00204067
0.00222604
0.00242834
0.00264682
0.0028803
0.00312707
0.00338483
0.00365071
0.00392133
0.00419286
0.00446123
0.00472224
0.00176781
0.00163916
0.00137792
0.00131164
0.00132352
0.00137824
0.00146281
0.00157185
0.00170311
0.00185581
0.00202983
0.00222529
0.00244227
0.00268051
0.00293933
0.00321745
0.00351289
0.00382286
0.0041438
0.00447144
0.0048009
0.00512696
0.0054443
0.00176231
0.001737
0.00144208
0.00137579
0.00139325
0.00145713
0.00155403
0.00167864
0.001829
0.00200467
0.00220596
0.0024334
0.00268744
0.00296815
0.00327502
0.00360667
0.00396083
0.00433415
0.00472222
0.00511959
0.00552003
0.0059168
0.00630299
0.00746573
0.0018228
0.00150934
0.00144387
0.00146787
0.00154217
0.00165304
0.00179532
0.0019674
0.00216937
0.00240208
0.00266665
0.00296405
0.0032948
0.00365868
0.0040544
0.00447944
0.00492975
0.00539986
0.00588287
0.00637068
0.00685447
0.0073252
0.00176431
0.00190072
0.00157936
0.00151548
0.00154708
0.00163315
0.0017597
0.00192181
0.00211841
0.00235022
0.00261886
0.00292622
0.00327404
0.00366353
0.00409494
0.00456724
0.00507772
0.00562171
0.00619246
0.00678113
0.0073771
0.00796865
0.00854373
0.00747612
0.00198828
0.00165135
0.00159009
0.00163044
0.00172968
0.00187364
0.0020578
0.00228175
0.00254708
0.00285638
0.00321262
0.00361862
0.00407658
0.00458763
0.00515125
0.00576482
0.00642306
0.00711774
0.00783753
0.00856837
0.0092944
0.00999917
0.00746473
0.00207654
0.00172448
0.00166703
0.00171744
0.00183126
0.00199432
0.00220263
0.00245666
0.00275913
0.0031139
0.00352536
0.00399782
0.00453497
0.00513933
0.00581147
0.00654931
0.00734724
0.0081954
0.00907928
0.00997997
0.0108755
0.0117427
0.00176573
0.0021467
0.00179715
0.00174563
0.00180761
0.00193741
0.00212103
0.0023553
0.00264183
0.00298474
0.00338956
0.00386252
0.00440996
0.00503777
0.00575063
0.00655113
0.00743861
0.00840784
0.00944747
0.0105389
0.0116562
0.0127678
0.0138407
0.00748299
0.00222384
0.00186849
0.00182571
0.00190095
0.00204787
0.00225306
0.00251449
0.00283527
0.00322128
0.0036801
0.00422035
0.00485111
0.00558134
0.00641911
0.00737049
0.00843794
0.00961809
0.0108988
0.0122565
0.0136545
0.0150462
0.016382
0.00176816
0.00227852
0.00193871
0.00190838
0.00199849
0.00216299
0.00238981
0.00267856
0.00303425
0.00346489
0.00398057
0.00459286
0.00531439
0.00615843
0.00713815
0.00826547
0.00954894
0.0109902
0.0125784
0.0142838
0.0160534
0.0178146
0.01949
0.00176781
0.00233048
0.00201094
0.00199792
0.00210352
0.00228438
0.00253105
0.00284556
0.00323517
0.00371037
0.00428408
0.00497139
0.00578941
0.00675723
0.00789555
0.00922579
0.0107678
0.0125342
0.0145204
0.0166902
0.018964
0.0212236
0.0233414
0.00747522
0.00238529
0.00209884
0.00210615
0.00222363
0.00241552
0.00267699
0.00301307
0.00343343
0.00395098
0.00458162
0.00534437
0.00626177
0.00736047
0.0086719
0.0102325
0.0120819
0.0142548
0.0167635
0.0195677
0.0225459
0.025495
0.0281931
0.00748141
0.00246242
0.00224691
0.00226148
0.00237358
0.00256219
0.00282788
0.00317783
0.00362311
0.00417835
0.00486208
0.00569735
0.00671287
0.00794472
0.009439
0.0112546
0.0134637
0.0161423
0.0193408
0.0230275
0.0270193
0.0309546
0.0344153
0.00176884
0.00289573
0.0025984
0.00252608
0.0025775
0.00273107
0.00298249
0.00333473
0.00379661
0.00438251
0.00511255
0.00601344
0.00712037
0.0084804
0.0101582
0.0122439
0.0148592
0.0181499
0.0222458
0.0271638
0.0326549
0.0380685
0.0425304
0.0132352
0.00534146
0.00357316
0.00301812
0.00286403
0.00292377
0.00313463
0.00347529
0.00394426
0.00455215
0.00531901
0.00627431
0.00745934
0.00893262
0.0107799
0.0131295
0.0161696
0.0201522
0.0253534
0.0319407
0.0396789
0.0474493
0.0532469
0.140098
0.0212883
0.00654215
0.00391805
0.00323825
0.00312257
0.00326778
0.00358615
0.0040543
0.00467533
0.00546752
0.00646193
0.00770467
0.0092642
0.0112459
0.0138165
0.0172369
0.0218913
0.0282807
0.0369113
0.0478564
0.0595004
0.0674382
1.53622
0.121287
0.0148048
0.00521921
0.00359444
0.0032693
0.00335159
0.00364962
0.00411426
0.00474094
0.00554596
0.00656089
0.00783451
0.00944124
0.0114988
0.0141994
0.0178564
0.0229622
0.0302446
0.0406735
0.0550619
0.0720025
0.0861388
0.00512543
0.00414571
0.00405059
0.00475157
0.00163189
0.00166339
0.00165295
0.00160756
0.00124229
0.0012629
0.00125884
0.0012315
0.00116825
0.00117946
0.00117314
0.00115108
0.00117147
0.0011724
0.00115495
0.00113233
0.00115352
0.0011558
0.00113758
0.00111992
0.00113247
0.00113114
0.00112106
0.00110726
0.00111718
0.00111562
0.00111064
0.00110343
0.00112131
0.00112149
0.0011199
0.00111674
0.00114276
0.00114472
0.00114546
0.00114488
0.00117948
0.00118302
0.00118541
0.00118659
0.00123013
0.0012355
0.00123957
0.00124233
0.00129394
0.0013014
0.00130745
0.00131203
0.00137162
0.00138121
0.00138945
0.00139629
0.00146564
0.00147767
0.00148845
0.00149791
0.00157898
0.00159396
0.00160774
0.00162023
0.00171483
0.00173341
0.00175078
0.00176683
0.00187691
0.00189988
0.00192156
0.00194187
0.00206967
0.00209796
0.00212488
0.0021503
0.00229849
0.00233326
0.0023665
0.00239809
0.00256992
0.00261253
0.00265343
0.00269248
0.00289186
0.00294397
0.00299414
0.00304219
0.00327382
0.00333744
0.00339881
0.00345772
0.00372725
0.00380478
0.00387968
0.0039517
0.00426586
0.00436022
0.00445146
0.00453929
0.00490611
0.00502083
0.00513182
0.0052387
0.00566775
0.00580716
0.00594203
0.00607188
0.00657463
0.00674403
0.00690779
0.00706536
0.00765571
0.0078616
0.00806042
0.00825148
0.00894644
0.00919692
0.00943836
0.00966991
0.0104908
0.010796
0.0110894
0.01137
0.0123446
0.012717
0.0130738
0.0134136
0.0145797
0.015035
0.0154691
0.0158804
0.0172922
0.0178494
0.0183771
0.0188735
0.0206133
0.021295
0.0219345
0.0225302
0.0247274
0.0255578
0.0263267
0.0270334
0.0298949
0.0308959
0.0318057
0.0326268
0.0364787
0.0376598
0.0387056
0.039626
0.0449675
0.0463072
0.0474494
0.0484203
0.0559853
0.0573967
0.0585338
0.0594544
0.070252
0.0715346
0.0724722
0.0731771
0.0884722
0.089234
0.0896716
0.089953
0.00181435
0.00113076
0.000893373
0.000794468
0.000745545
0.000716976
0.000696913
0.000679709
0.000662623
0.000643878
0.00062221
0.000597409
0.000569447
0.000539805
0.000510573
0.000485332
0.000474232
0.000523206
0.00104067
0.00130794
0.00105682
0.000912129
0.000829627
0.00078083
0.000749888
0.000728257
0.000711183
0.00069584
0.00067995
0.000661518
0.000640018
0.000615304
0.000588216
0.000561902
0.000540354
0.000535662
0.000595254
0.0011439
0.00114769
0.00102512
0.000929296
0.000862802
0.000818355
0.000788084
0.000766511
0.000750262
0.000736999
0.000724138
0.000708543
0.000689666
0.000667805
0.000642121
0.000617219
0.000598399
0.000598636
0.000670978
0.00126763
0.00110294
0.00102456
0.000952863
0.000897688
0.000858246
0.000829734
0.000808886
0.000793948
0.000783464
0.00077469
0.000761704
0.000744763
0.00072649
0.000699701
0.000674846
0.000658993
0.000668178
0.0007836
0.00177403
0.00108949
0.0010287
0.000975341
0.00093118
0.000898723
0.00087304
0.000853252
0.000840052
0.000832824
0.000826933
0.00081362
0.000800081
0.000790962
0.000756497
0.000729801
0.000712665
0.000728766
0.00086093
0.00190705
0.00108153
0.00103477
0.000992289
0.000958534
0.000933736
0.00091159
0.000893411
0.000881844
0.000877024
0.000871578
0.000860481
0.000852052
0.000842671
0.000806763
0.000782053
0.000762892
0.000768396
0.00082086
0.000796972
0.00108158
0.00104668
0.0010151
0.000985482
0.000963854
0.00094407
0.000926803
0.000914829
0.00090805
0.000901992
0.000897914
0.000903383
0.000899415
0.000849834
0.000814016
0.000795193
0.000800763
0.000858198
0.00107889
0.00108846
0.00106318
0.00103925
0.00101544
0.000996042
0.000978266
0.000962036
0.000948976
0.000939614
0.000932188
0.00092744
0.000925835
0.000913278
0.000873177
0.000837937
0.000817665
0.00082271
0.000887487
0.00115219
0.00110877
0.00109058
0.00107164
0.00105351
0.00103696
0.0010206
0.00100426
0.000989607
0.000977332
0.000966595
0.000956115
0.00094278
0.00092125
0.000889473
0.000861335
0.000842242
0.000846636
0.000932608
0.00489201
0.00114144
0.00112913
0.00111459
0.00110079
0.00108682
0.00107109
0.00105404
0.00103749
0.0010221
0.00100719
0.000990632
0.000968649
0.000940666
0.000910713
0.000884877
0.000866626
0.000868535
0.00093334
0.00115842
0.00118627
0.00117895
0.0011685
0.00115753
0.00114515
0.00113002
0.0011127
0.00109456
0.00107606
0.00105681
0.00103509
0.00100771
0.000975231
0.000942861
0.000914882
0.00089648
0.000897882
0.000955315
0.00115886
0.00124459
0.00124138
0.00123442
0.00122549
0.00121432
0.00120002
0.00118278
0.00116333
0.00114209
0.00111895
0.00109299
0.00106208
0.00102623
0.000990187
0.000959059
0.000940109
0.000943118
0.00100824
0.00115603
0.00131722
0.00131816
0.00131464
0.0013079
0.00129807
0.00128461
0.00126743
0.00124689
0.00122332
0.00119687
0.0011673
0.00113366
0.00109549
0.0010562
0.00102229
0.0010034
0.00100888
0.00107534
0.00115651
0.00140526
0.00141118
0.0014117
0.0014078
0.00139974
0.00138724
0.00137018
0.00134873
0.00132317
0.0012938
0.00126088
0.00122441
0.00118437
0.0011429
0.0011068
0.00108795
0.00109715
0.00116668
0.00115445
0.00151129
0.00152303
0.00152845
0.0015282
0.00152255
0.00151142
0.00149475
0.00147264
0.00144537
0.00141335
0.00137711
0.0013373
0.00129469
0.00125128
0.00121322
0.00119281
0.00120702
0.00131044
0.00112849
0.00163865
0.00165708
0.00166828
0.00167258
0.00167015
0.00166101
0.00164516
0.00162272
0.001594
0.0015595
0.00151994
0.00147635
0.00143016
0.00138392
0.00134338
0.00132014
0.0013356
0.00145909
0.00115363
0.00179113
0.00181728
0.00183529
0.00184513
0.00184685
0.00184046
0.00182599
0.00180361
0.00177366
0.00173674
0.00169375
0.00164601
0.00159547
0.00154536
0.00150185
0.00147731
0.00149945
0.00166753
0.00490327
0.00197311
0.00200834
0.00203438
0.00205093
0.00205784
0.00205506
0.00204262
0.0020207
0.00198969
0.00195029
0.00190356
0.00185112
0.00179539
0.00174033
0.00169307
0.00166787
0.00169883
0.00190251
0.00116104
0.00218985
0.00223584
0.00227145
0.00229608
0.00230938
0.00231117
0.00230145
0.00228039
0.00224842
0.00220633
0.00215534
0.00209736
0.0020353
0.00197387
0.00192146
0.00189483
0.00193521
0.00219224
0.00490543
0.00244765
0.00250652
0.00255356
0.00258789
0.00260896
0.00261642
0.00261018
0.00259039
0.00255749
0.00251234
0.00245634
0.00239167
0.00232173
0.00225207
0.00219251
0.00216287
0.00221312
0.00252702
0.00489079
0.00275412
0.00282846
0.00288919
0.00293518
0.00296561
0.00297998
0.00297807
0.00295997
0.00292612
0.00287742
0.00281542
0.00274259
0.00266284
0.00258259
0.00251328
0.00247802
0.00253553
0.00290893
0.00548429
0.00311841
0.00321135
0.00328851
0.00334845
0.00339012
0.00341283
0.00341622
0.00340028
0.00336543
0.00331259
0.00324343
0.00316069
0.00306881
0.00297519
0.00289303
0.00284912
0.00291144
0.00333907
0.00637
0.00355153
0.00366683
0.00376366
0.00384028
0.00389539
0.00392811
0.00393793
0.00392472
0.00388884
0.0038312
0.00375357
0.00365893
0.00355227
0.00344203
0.00334345
0.00328765
0.00335383
0.00384407
0.00739805
0.00406671
0.00420884
0.00432919
0.0044257
0.00449684
0.00454152
0.0045591
0.00454933
0.00451248
0.0044494
0.00436191
0.00425321
0.0041288
0.00399822
0.00387901
0.00380697
0.00387307
0.00442444
0.00851375
0.00467982
0.0048541
0.0050025
0.00512266
0.00521282
0.00527175
0.00529868
0.00529328
0.00525567
0.00518664
0.00508796
0.00496297
0.00481767
0.00466275
0.004518
0.00442419
0.0044848
0.00509326
0.00971935
0.00540994
0.00562267
0.00580444
0.00595259
0.00606524
0.00614107
0.00617928
0.00617943
0.00614155
0.0060663
0.00595532
0.00581204
0.00564279
0.00545928
0.0052837
0.0051623
0.00521262
0.00587993
0.0110971
0.00628004
0.00653868
0.00675999
0.00694115
0.00708023
0.00717602
0.00722776
0.00723503
0.00719778
0.00711649
0.00699264
0.00682947
0.00663351
0.0064174
0.00620591
0.00605164
0.00608921
0.00682885
0.0127826
0.00731793
0.00763126
0.00789925
0.00811907
0.00828903
0.00840819
0.0084761
0.0084925
0.00845732
0.00837089
0.0082343
0.0080505
0.00782594
0.00757403
0.00732231
0.00713094
0.00715617
0.0079935
0.0149198
0.00855743
0.00893574
0.00925854
0.00952332
0.00972895
0.00987522
0.00996228
0.00999031
0.00995936
0.00986956
0.00972157
0.00951776
0.00926423
0.00897487
0.00868005
0.00844872
0.00846376
0.00942758
0.0175998
0.01004
0.0104953
0.010882
0.0111984
0.0114447
0.011622
0.0117315
0.0117741
0.0117503
0.0116601
0.0115037
0.0112826
0.0110022
0.0106763
0.0103379
0.0100658
0.0100746
0.0111976
0.0208997
0.0118171
0.0123628
0.0128232
0.0131982
0.0134901
0.0137021
0.0138372
0.0138978
0.013885
0.0137988
0.0136391
0.0134064
0.0131047
0.0127475
0.0123696
0.0120598
0.0120692
0.0133884
0.0249471
0.0139531
0.0146043
0.0151483
0.0155882
0.0159298
0.0161795
0.0163432
0.0164252
0.0164279
0.0163519
0.0161966
0.0159617
0.0156499
0.015273
0.014867
0.0145304
0.0145553
0.0161209
0.0299583
0.0165294
0.0173019
0.0179387
0.0184482
0.0188419
0.019131
0.0193252
0.0194318
0.019455
0.0193968
0.0192567
0.019034
0.01873
0.0183549
0.0179447
0.0176066
0.017678
0.0195652
0.036244
0.0196511
0.0205593
0.0212951
0.0218757
0.0223208
0.0226483
0.0228732
0.0230066
0.0230555
0.0230239
0.0229126
0.0227217
0.0224523
0.0221141
0.0217428
0.0214538
0.0216329
0.0239591
0.0442304
0.0234539
0.0245073
0.0253421
0.0259896
0.0264806
0.0268419
0.0270949
0.0272555
0.0273343
0.0273383
0.0272714
0.0271366
0.0269381
0.0266887
0.0264276
0.0262802
0.0266846
0.0296414
0.0544821
0.0281149
0.0293108
0.0302338
0.0309347
0.0314593
0.0318447
0.0321195
0.0323048
0.0324154
0.0324627
0.0324555
0.0324033
0.0323196
0.0322288
0.0321853
0.0323374
0.0331896
0.0371289
0.0680087
0.0338612
0.0351755
0.0361583
0.0368868
0.0374239
0.0378176
0.0381033
0.0383068
0.0384475
0.0385414
0.038605
0.0386588
0.038734
0.0388825
0.0392008
0.0399002
0.0416072
0.0472234
0.0866629
0.0409775
0.0423511
0.0433416
0.0440569
0.0445761
0.044956
0.0452368
0.0454474
0.0456107
0.0457477
0.0458833
0.0460534
0.0463165
0.0467742
0.0476114
0.0491956
0.0524438
0.0611069
0.113533
0.0498021
0.0511303
0.0520505
0.0526975
0.0531605
0.0534995
0.0537552
0.0539568
0.0541285
0.0542946
0.0544874
0.0547585
0.0551991
0.0559795
0.0574308
0.0602354
0.0660071
0.0803574
0.154448
0.0607104
0.061842
0.0625941
0.0631099
0.0634754
0.0637444
0.0639524
0.0641248
0.0642834
0.0644524
0.0646667
0.0649866
0.0655271
0.0665208
0.0684675
0.0725192
0.0816692
0.106138
0.221968
0.0740842
0.0748447
0.0753308
0.0756582
0.0758896
0.0760623
0.0762001
0.0763204
0.0764386
0.0765733
0.0767533
0.0770312
0.0775134
0.0784329
0.0803469
0.0847424
0.0962701
0.134367
0.34574
0.0902799
0.0905325
0.0906891
0.0907937
0.0908684
0.0909258
0.0909738
0.0910186
0.0910658
0.0911229
0.091202
0.0913261
0.0915428
0.0919631
0.0928806
0.0952269
0.102788
0.138954
0.578262
)
;

boundaryField
{
    leftWall
    {
        type            epsilonWallFunction;
        value           nonuniform List<scalar> 
50
(
6.5989e-05
0.000139281
0.000240442
0.000340927
0.000438576
0.000534423
0.000630177
0.000727658
0.000886324
0.00112503
0.00150513
0.000515185
0.00247256
0.00100152
0.00139916
0.00148392
0.00153228
0.00156356
0.0015869
0.00160794
0.00162953
0.0016521
0.00167544
0.00169909
0.00172216
0.00174309
0.00175951
0.00176787
0.00176585
0.00176592
0.00746211
0.00176575
0.00176817
0.00176556
0.00176781
0.00176231
0.00746573
0.00176431
0.00747612
0.00746473
0.00176573
0.00748299
0.00176816
0.00176781
0.00747522
0.00748141
0.00176884
0.0132352
0.140098
1.53622
)
;
    }
    rightWall
    {
        type            epsilonWallFunction;
        value           nonuniform List<scalar> 
50
(
0.000102182
0.000156773
0.000252721
0.000355218
0.000465294
0.000592863
0.000737912
0.000879533
0.00104067
0.0011439
0.00126763
0.00177403
0.00190705
0.000796972
0.00107889
0.00115219
0.00489201
0.00115842
0.00115886
0.00115603
0.00115651
0.00115445
0.00112849
0.00115363
0.00490327
0.00116104
0.00490543
0.00489079
0.00548429
0.00637
0.00739805
0.00851375
0.00971935
0.0110971
0.0127826
0.0149198
0.0175998
0.0208997
0.0249471
0.0299583
0.036244
0.0442304
0.0544821
0.0680087
0.0866629
0.113533
0.154448
0.221968
0.34574
0.578262
)
;
    }
    lowerWall
    {
        type            epsilonWallFunction;
        value           nonuniform List<scalar> 
62
(
6.5989e-05
0.00037742
0.000681953
0.000960782
0.00121251
0.00143678
0.00163378
0.00180415
0.00194999
0.00207617
0.00218973
0.00229236
0.00238306
0.00244923
0.00246612
0.00239787
0.00222885
0.00201898
0.00173639
0.00142765
0.00110849
0.000655663
0.000183029
0.000183029
0.000309984
0.000533985
0.000793117
0.0011118
0.00156479
0.00237853
0.00425507
0.00512543
0.00414571
0.00405059
0.00475157
0.000302919
0.000376883
0.000548263
0.000689871
0.00085096
0.00110088
0.00168395
0.00339799
0.000302919
0.00104857
0.00183533
0.00222396
0.00237938
0.00244431
0.00242794
0.00233649
0.0022183
0.00211621
0.00188387
0.00151618
0.00127152
0.00124269
0.00110675
0.000831764
0.000513663
0.00026989
0.000102182
)
;
    }
    atmosphere
    {
        type            inletOutlet;
        inletValue      uniform 0.1;
        value           nonuniform List<scalar> 
46
(
0.1
0.121287
0.0148048
0.00521921
0.00359444
0.0032693
0.00335159
0.00364962
0.00411426
0.00474094
0.00554596
0.00656089
0.00783451
0.00944124
0.0114988
0.0141994
0.0178564
0.0229622
0.0302446
0.0406735
0.0550619
0.0720025
0.1
0.1
0.1
0.1
0.1
0.1
0.1
0.1
0.1
0.1
0.1
0.1
0.1
0.1
0.1
0.1
0.1
0.1
0.1
0.1
0.1
0.1
0.1
0.578262
)
;
    }
    defaultFaces
    {
        type            empty;
    }
}


// ************************************************************************* //
