/*--------------------------------*- C++ -*----------------------------------*\
  =========                 |
  \\      /  F ield         | OpenFOAM: The Open Source CFD Toolbox
   \\    /   O peration     | Website:  https://openfoam.org
    \\  /    A nd           | Version:  9
     \\/     M anipulation  |
\*---------------------------------------------------------------------------*/
FoamFile
{
    format      ascii;
    class       volScalarField;
    location    "10";
    object      p_rgh;
}
// * * * * * * * * * * * * * * * * * * * * * * * * * * * * * * * * * * * * * //

dimensions      [1 -1 -2 0 0 0 0];

internalField   nonuniform List<scalar> 
2268
(
764.38
764.28
764.122
763.911
763.653
763.353
763.016
762.649
762.257
761.847
761.424
760.995
760.564
760.134
759.705
759.285
758.879
758.528
758.195
757.896
757.828
757.735
757.666
764.404
764.307
764.149
763.938
763.677
763.374
763.032
762.661
762.264
761.849
761.42
760.983
760.543
760.102
759.667
759.252
758.867
758.533
758.178
757.905
757.826
757.699
757.626
764.441
764.346
764.189
763.977
763.714
763.405
763.059
762.681
762.278
761.856
761.419
760.973
760.523
760.073
759.632
759.219
758.846
758.527
758.1
757.862
757.803
757.652
757.578
764.495
764.398
764.239
764.025
763.758
763.445
763.093
762.708
762.297
761.867
761.422
760.966
760.507
760.05
759.604
759.182
758.809
758.503
758.158
757.775
757.748
757.595
757.499
764.563
764.462
764.298
764.081
763.81
763.492
763.133
762.74
762.321
761.881
761.426
760.961
760.494
760.032
759.584
759.116
758.705
758.436
758.247
757.74
757.717
757.453
757.377
764.645
764.538
764.369
764.146
763.87
763.545
763.179
762.778
762.35
761.899
761.432
760.957
760.483
760.018
759.574
759.046
758.476
758.369
758.199
758.024
757.674
756.359
757.258
764.742
764.628
764.451
764.222
763.939
763.607
763.232
762.822
762.383
761.919
761.44
760.953
760.472
760.005
759.568
759.098
757.173
756.487
758.113
757.936
756.269
755.631
757.201
764.853
764.734
764.549
764.311
764.021
763.681
763.296
762.876
762.423
761.945
761.449
760.948
760.458
759.99
759.562
759.109
755.928
754.898
755.826
757.223
755.217
755.654
757.374
758.5
758.628
759.189
759.636
760.088
760.499
760.853
761.15
761.524
761.896
762.102
762.291
762.923
763.544
763.967
764.333
764.563
764.726
764.922
758.477
758.559
759.083
759.536
760.005
760.433
760.865
761.32
761.736
762.131
762.415
762.315
762.71
763.587
764.011
764.384
764.592
764.601
764.876
758.405
758.232
759.002
759.448
759.926
760.374
760.824
761.295
761.737
762.186
762.683
762.299
762.669
763.311
764.098
764.409
764.374
764.524
764.704
758.285
757.905
758.949
759.4
759.873
760.326
760.776
761.25
761.687
762.174
762.747
762.771
762.611
763.447
764.204
764.547
764.666
764.641
765.222
756.516
757.926
759.002
759.382
759.837
760.287
760.78
761.287
761.644
762.171
762.766
763.695
763.755
764.278
764.155
764.595
764.957
765.156
765.31
756.245
757.99
759.045
759.373
759.811
760.287
760.796
761.276
761.701
762.276
762.908
763.694
764.281
764.497
764.077
763.077
763.533
765.165
765.372
756.156
758.594
759.069
759.361
759.788
760.264
760.796
761.119
761.478
762.29
762.952
763.7
764.283
764.593
763.04
762.417
762.623
764.187
765.522
758.634
758.929
759.035
759.327
759.757
760.236
760.803
760.879
759.147
760.551
762.983
763.725
764.308
763.877
762.94
763.917
762.578
763.912
765.711
765.062
764.932
764.73
764.477
764.173
763.817
763.416
762.977
762.501
761.994
761.467
760.938
760.428
759.954
759.542
759.239
759.037
756.159
753.97
753.873
756.236
757.812
757.34
761.554
761.005
760.129
760.142
760.001
759.167
758.138
757.176
755.843
754.213
752.346
750.357
749.082
748.241
748.109
749.049
750.088
749.626
748.87
747.682
746.18
744.94
743.203
309.271
308.248
307.182
304.171
301.253
298.928
296.686
294.278
292.109
290.107
288.196
286.249
283.666
280.623
277.215
273.898
272.154
272.681
272.682
271.199
268.702
266.259
264.679
0.643168
0.621956
0.478147
0.988769
1.33749
1.30475
1.10881
0.856092
0.656029
0.516512
0.442298
0.37573
0.368681
0.364751
0.363207
0.362319
0.346702
0.305781
0.259476
0.252161
0.265895
0.270983
0.258578
0.618632
0.626722
0.366322
0.990553
1.33679
1.27832
1.25636
1.56504
1.61043
1.61193
1.61288
1.58407
1.51041
1.46721
1.42919
1.4246
1.31901
0.969617
0.403517
0.373055
0.518246
0.517548
0.340723
0.275398
0.289874
0.238037
0.23909
0.0226495
0.0543606
0.0952195
0.0331288
0.02117
0.0139292
0.00264633
0.00381672
0.00509496
0.00565801
0.00560482
0.00473978
0.00551658
0.0815781
0.268733
0.230687
0.219522
0.229378
0.146653
-0.00151918
-0.000886306
0.031285
-0.000776994
9.25485e-05
-3.05326e-06
-0.000270531
-0.000119994
0.000275067
0.000894706
0.00570457
0.0440011
0.049602
0.0500596
0.0497779
0.0144859
0.00444166
0.00453904
0.00470888
0.00544176
0.00546745
0.0305639
0.0641261
-0.00129054
-0.00143908
-0.000690886
-0.00127728
0.000426625
0.000606186
3.47454e-05
0.000645926
0.00169612
0.00144628
0.00314091
0.0115379
0.0179689
0.0103342
0.00777992
0.0128455
0.0034822
0.00381506
0.00410225
0.0045962
0.004832
0.00513825
0.00611273
-0.00105058
-0.00111144
-0.000749704
-0.000549001
0.00220366
0.00235044
0.00160886
0.00269824
0.00428584
0.00446233
0.000808919
0.000458827
0.000641397
0.00111349
0.00556795
0.010562
0.00286024
0.00327261
0.00358341
0.00395331
0.00424721
0.00483611
0.0136404
-0.000850138
-0.000870115
-0.000709914
-0.000493396
0.00224383
0.00250916
0.00265753
0.00286675
0.00447554
0.00428127
0.000508936
0.000604234
0.000949868
0.00124358
0.00185432
0.00253859
0.0031492
0.00279329
0.00306939
0.00332786
0.0035285
0.00822416
0.0397494
-0.000684388
-0.000680009
-0.000598888
-0.000572152
0.000628266
0.00209003
0.000455927
0.00194603
0.00470526
0.00240976
0.00043847
0.000605147
0.00239232
0.00553899
0.00378602
0.00185661
0.00213537
0.00237463
0.00256889
0.00269862
0.00273217
0.00732328
0.0368398
-0.000542605
-0.000523568
-0.00047242
-0.00044331
-0.000365664
-0.000138341
-7.53189e-05
0.00113963
0.00496763
0.000881409
0.000371922
0.000533824
0.00305376
0.011442
0.0117601
0.00455725
0.00182382
0.00197581
0.00211094
0.00215939
0.00207929
0.0018566
0.00118745
-0.000420156
-0.000311532
-0.000247126
-0.000322079
-0.000265433
-0.00019039
-2.90315e-05
0.00234515
0.00316769
0.000162326
0.000309597
0.000432589
0.00171967
0.0107791
0.0120197
0.0123472
0.00313261
0.00159914
0.0016901
0.00172061
0.0016211
0.00135911
0.000939972
-0.000314912
-8.13224e-05
-4.89722e-05
-0.000211465
-0.000181222
-8.60758e-05
0.00166596
0.00296949
0.00181344
0.000148392
0.000261031
0.00035126
0.000399382
0.0015019
0.0103519
0.0125425
0.00673673
0.00125257
0.00135313
0.00137604
0.00131514
0.00114891
0.000895077
-0.000236778
1.13995e-05
4.03588e-05
-0.000129439
-0.000118989
0.000369936
0.00311337
0.00313785
0.00101722
0.000137884
0.000229478
0.000303285
0.000349579
0.000411238
0.00129425
0.00267744
0.00256705
0.00102417
0.00109417
0.00112716
0.00110255
0.000999966
0.000862956
-0.000179367
7.54468e-06
8.97451e-05
-7.8431e-05
-7.17291e-05
0.000340407
0.00326468
0.00319163
5.13691e-05
0.000134867
0.000213109
0.00027824
0.000327393
0.000361067
0.000401846
0.000495692
0.000665911
0.000849261
0.00092053
0.000959064
0.000942289
0.000863919
0.000769255
-0.000132094
-8.38614e-05
-4.04506e-05
-4.29547e-05
-2.9573e-05
0.000137996
0.00101678
0.00071797
6.67399e-05
0.000140843
0.000207203
0.000265417
0.000315971
0.000360838
0.000412406
0.000490511
0.000595911
0.000699808
0.000776476
0.000810493
0.000800709
0.000759447
0.000707018
-8.04498e-05
-3.71345e-05
-1.88179e-05
-2.52716e-06
1.36871e-05
4.91235e-05
1.09557e-05
3.84754e-05
9.42903e-05
0.000152504
0.00020772
0.00025913
0.000307705
0.000354653
0.000405858
0.000469709
0.000544815
0.000615438
0.000666442
0.000692669
0.000694603
0.000676297
0.000645747
-3.02738e-05
9.15652e-06
2.52697e-05
3.49925e-05
5.27057e-05
6.1797e-05
5.87621e-05
8.19702e-05
0.000121045
0.000165647
0.000211028
0.000255959
0.000300224
0.000344412
0.000391097
0.000443312
0.000499227
0.000550571
0.000588904
0.000610634
0.000615493
0.000605692
0.000586418
0.000397015
0.000563848
6.71966e-05
6.39993e-05
8.09394e-05
8.41053e-05
9.18688e-05
0.000112195
0.00014227
0.00017747
0.000215092
0.000253767
0.000292758
0.000332148
0.000372814
0.00041545
0.000458329
0.000496817
0.000526093
0.000543573
0.000548882
0.000543235
0.000529856
0.000870989
0.000863918
8.39081e-05
8.4607e-05
9.95739e-05
0.000103834
0.000115775
0.000133915
0.00015834
0.000187084
0.000218498
0.0002514
0.000285025
0.000319065
0.000353542
0.000388207
0.000421596
0.000450903
0.000473238
0.000486862
0.000491198
0.000487072
0.000476398
0.000920803
0.000364955
8.73686e-05
9.97098e-05
0.000112052
0.00012065
0.000133338
0.000149733
0.000170328
0.000194311
0.000220654
0.000248458
0.000277016
0.000305834
0.000334528
0.00036251
0.00038858
0.000410917
0.000427686
0.000437668
0.000440418
0.000436309
0.000426482
0.000972005
8.4154e-05
9.77242e-05
0.00011185
0.000123107
0.000133988
0.000146495
0.000161416
0.000179182
0.000199452
0.000221598
0.000244954
0.000268901
0.000292889
0.000316389
0.00033873
0.000358934
0.000375743
0.000387925
0.000394609
0.00039542
0.000390491
0.00038047
0.001022
0.000146341
0.000108875
0.000121422
0.000132977
0.000144321
0.000156478
0.000170159
0.000185692
0.000202955
0.000221573
0.000241062
0.0002609
0.00028056
0.000299491
0.000317047
0.000332429
0.00034472
0.000353047
0.000356763
0.000355544
0.000349389
0.000338641
0.00106731
0.000938877
0.000117974
0.000127621
0.00014023
0.000152095
0.0001641
0.000176794
0.000190503
0.00020526
0.000220872
0.000237001
0.000253227
0.00026908
0.000284043
0.000297535
0.000308899
0.000317433
0.000322487
0.000323563
0.000320377
0.000312856
0.000301154
0.00110866
0.00110924
0.000122103
0.000130509
0.000145148
0.000158037
0.000170119
0.000182013
0.000194165
0.000206764
0.000219769
0.000232971
0.000246044
0.000258587
0.000270138
0.000280188
0.000288187
0.000293575
0.000295848
0.000294608
0.000289606
0.000280731
0.000268029
0.00115476
0.0011252
0.000115344
0.000132345
0.000149383
0.0001633
0.000175393
0.000186472
0.00019716
0.000207801
0.000218487
0.000229115
0.000239443
0.00024913
0.000257772
0.00026492
0.000270104
0.000272863
0.000272784
0.000269543
0.000262919
0.000252788
0.000239134
0.00117071
0.000403022
0.000115619
0.000137187
0.000155081
0.00016915
0.000180747
0.000190736
0.000199872
0.000208619
0.000217168
0.000225497
0.000233427
0.000240665
0.000246846
0.000251568
0.000254415
0.000254991
0.000252946
0.000248002
0.000239966
0.000228712
0.0002142
0.000450985
9.64246e-05
0.00012345
0.000145779
0.000163276
0.000176398
0.000186741
0.000195177
0.000202528
0.000209334
0.000215845
0.000222086
0.000227913
0.000233057
0.000237177
0.000239894
0.000240828
0.000239617
0.00023595
0.000229582
0.000220341
0.00020811
0.000192845
9.48918e-05
0.000111927
0.000136878
0.000158019
0.000173985
0.000185251
0.000193551
0.000199894
0.000205151
0.000209905
0.000214424
0.000218743
0.000222721
0.000226092
0.000228511
0.000229604
0.000229003
0.000226362
0.000221388
0.000213855
0.000203605
0.000190537
0.00017462
9.70443e-05
0.000135313
0.00015286
0.000172611
0.000186702
0.000195453
0.000201009
0.000204714
0.00020755
0.000210122
0.000212678
0.000215223
0.000217589
0.000219483
0.000220534
0.000220356
0.000218569
0.000214829
0.000208839
0.000200379
0.000189302
0.000175524
0.000159041
0.000133754
0.000130506
0.000164486
0.000188176
0.000201162
0.000206748
0.000208739
0.000209216
0.000209318
0.000209606
0.000210252
0.000211184
0.00021218
0.000212888
0.000212893
0.000211778
0.000209143
0.000204617
0.000197891
0.000188731
0.000176993
0.000162612
0.000145628
0.000135822
0.000153272
0.000184376
0.00020814
0.000218486
0.000219121
0.000216191
0.00021273
0.000209823
0.000207806
0.000206668
0.000206207
0.000206102
0.000205925
0.000205207
0.00020349
0.000200335
0.000195337
0.00018815
0.000178513
0.000166271
0.000151377
0.00013393
0.000143809
0.000171837
0.000206733
0.000234459
0.000239524
0.000231938
0.000222222
0.000214159
0.000208157
0.000204001
0.000201354
0.00019981
0.000198926
0.000198191
0.000197083
0.000195102
0.000191763
0.000186613
0.000179251
0.00016937
0.000156783
0.000141447
0.00012354
0.000167615
0.000214338
0.000237126
0.000854647
0.000265439
0.000242658
0.000224026
0.000211535
0.000203034
0.000197323
0.000193678
0.000191496
0.000190224
0.000189289
0.000188133
0.000186225
0.000183042
0.000178072
0.000170848
0.00016099
0.000148237
0.000132518
0.000114112
0.000157001
0.000282068
0.00205587
0.00429528
0.00295524
0.000553551
0.000216308
0.000202102
0.000192955
0.000186908
0.000183089
0.000180857
0.000179647
0.000178875
0.000177997
0.000176482
0.000173782
0.000169338
0.00016261
0.000153105
0.000140423
0.000124379
0.000105368
0.000166167
0.000265363
0.00438983
0.00437907
0.00436321
0.00126829
0.000195833
0.00018478
0.000177388
0.000172465
0.000169396
0.000167722
0.000166986
0.000166687
0.000166352
0.000165487
0.000163557
0.000159988
0.00015417
0.000145459
0.000133194
0.000116916
9.7105e-05
0.000221933
0.000290497
0.00280705
0.00444523
0.00437169
0.000895278
0.000167236
0.000161684
0.000157389
0.000154477
0.000152755
0.000152036
0.000152027
0.000152376
0.000152718
0.000152642
0.00015168
0.000149295
0.000144845
0.000137502
0.000126218
0.00010998
8.91365e-05
0.00035814
0.000338045
0.000343635
0.0025403
0.00110852
0.000240816
0.000138097
0.000136109
0.000134578
0.000133667
0.000133377
0.000133681
0.000134426
0.000135411
0.000136395
0.000137082
0.000137126
0.000136103
0.000133415
0.000128139
0.000118769
0.000103306
8.12183e-05
0.000479001
0.0003835
0.000264724
0.000183149
0.00013074
0.000115103
0.000112062
0.000111944
0.000112459
0.000113207
0.00011417
0.000115359
0.000116728
0.000118203
0.000119659
0.00012093
0.000121821
0.000122062
0.000121236
0.000118608
0.000112289
9.88024e-05
7.44304e-05
0.000581991
0.000383425
0.000240636
0.000159229
0.0001127
9.81842e-05
9.79507e-05
0.000100353
0.000102692
0.00010476
0.000106672
0.000108491
0.000110263
0.000112003
0.000113686
0.00011526
0.000116638
0.000117648
0.000118086
0.000117664
0.000114646
0.000105378
7.57744e-05
0.000481854
5.1775e-05
0.000109712
9.46131e-05
8.37921e-05
8.32512e-05
8.64088e-05
8.90293e-05
9.09169e-05
9.25138e-05
9.39692e-05
9.53122e-05
9.65615e-05
9.7736e-05
9.8851e-05
9.99124e-05
0.000100877
0.000101594
0.00010195
0.000102068
0.000102944
0.000111818
8.35777e-05
757.901
757.882
758.051
758.228
744.668
745.159
745.451
745.388
265.189
265.511
265.998
266.611
0.264846
0.273213
0.275165
0.27061
0.352585
0.596357
0.598148
0.418878
0.122034
0.252125
0.356512
0.275086
0.0113054
0.0068356
0.00595297
0.006444
0.0105138
0.00803332
0.00603435
0.00608623
0.0387024
0.0340093
0.00888754
0.00881666
0.0397999
0.039906
0.0400883
0.0401946
0.0406129
0.0407472
0.0408454
0.0409192
0.021796
0.0409204
0.0418507
0.0362933
0.00056645
0.000375649
0.000322005
0.00039918
0.000712285
0.000620544
0.000589927
0.000620743
0.000771671
0.000750277
0.000943966
0.00111058
0.000718875
0.000746758
0.00118291
0.00123511
0.000676608
0.000657735
0.000643444
0.000813798
0.000626214
0.000612481
0.000598839
0.000585027
0.000572768
0.000561955
0.000549812
0.000536492
0.000518951
0.000509691
0.000498564
0.000485777
0.000466556
0.00045804
0.00044756
0.000435355
0.000416765
0.000408541
0.000398489
0.000386838
0.00037039
0.000362213
0.000352455
0.000341304
0.000327979
0.000319723
0.000310165
0.000299438
0.000289853
0.000281458
0.000272021
0.000261622
0.000256118
0.000247554
0.000238167
0.000227991
0.00022668
0.000217935
0.000208534
0.000198476
0.000201278
0.000192349
0.000182882
0.000172849
0.000179527
0.000170418
0.000160844
0.000150765
0.000160965
0.000151684
0.000141979
0.000131805
0.000145097
0.000135654
0.000125809
0.000115516
0.000131427
0.000121834
0.000111851
0.000101435
0.000119487
0.000109753
9.96427e-05
8.91166e-05
0.000108851
9.89774e-05
8.87508e-05
7.81373e-05
9.91403e-05
8.91158e-05
7.87803e-05
6.81097e-05
9.00284e-05
7.98181e-05
6.93722e-05
5.86826e-05
8.12259e-05
7.07568e-05
6.0188e-05
4.95351e-05
7.24401e-05
6.15903e-05
5.08817e-05
4.0365e-05
6.32545e-05
5.18786e-05
4.10711e-05
3.09035e-05
5.31559e-05
4.09455e-05
3.03528e-05
2.10456e-05
4.25269e-05
2.77548e-05
1.81418e-05
1.09479e-05
3.70894e-05
1.95729e-05
1.00436e-05
4.00568e-06
758.489
758.679
758.893
759.238
759.573
759.187
759.65
760.609
757.872
756.404
757.006
759.114
759.673
760.162
764.19
764.657
764.9
765.252
765.83
744.897
745.005
744.135
743.442
743.741
744.986
746.373
749.21
755.205
758.003
759.853
760.89
761.981
763.005
763.945
764.165
763.92
761.457
760.837
268
270.79
274.745
279.395
284.153
288.846
293.19
296.738
300.21
304.222
307.285
310.06
313.243
315.163
316.356
318.711
321.737
325.047
327.279
0.263352
0.293929
0.299224
0.29645
0.295375
0.294651
0.293461
0.292553
0.289708
0.290196
0.307814
0.394297
0.245285
0.459319
0.555429
0.574009
0.574284
0.547371
0.557315
0.363483
0.746812
0.7492
0.745799
0.768748
0.793657
0.801792
0.802612
0.800598
0.790888
0.676379
0.467695
0.235372
0.463412
0.552389
0.552336
0.550341
0.548549
0.471267
0.172031
0.146094
0.16801
0.125103
0.0980856
0.0726845
0.0605403
0.054811
0.0218266
0.0215956
0.0226596
0.0400369
0.0948851
0.0972248
0.0961706
0.127551
0.144016
0.152886
0.175433
0.0282045
0.00663024
0.00621765
0.007175
0.00998251
0.0182945
0.0188588
0.0170464
0.0174156
0.030331
0.0450928
0.0583265
0.0553536
0.0343392
0.00662036
0.00184715
0.00103285
0.000498657
0.000527201
0.00640478
0.00586563
0.00567012
0.0145395
0.0481653
0.051371
0.0508334
0.0280077
0.0572615
0.059706
0.0594024
0.0591743
0.0587071
0.0462683
0.00498715
0.00167285
0.00114035
0.000798062
0.000870645
0.00607756
0.00506378
0.00483067
0.0351095
0.0508115
0.050175
0.0298721
0.0368673
0.0266904
0.0138169
0.0259266
0.0376963
0.0307604
0.00673947
0.00196615
0.0016208
0.00132867
0.00109538
0.00112395
0.0227732
0.00414152
0.00381759
0.012044
0.0164496
0.00257736
0.00137254
0.00130995
0.00085517
0.00071982
0.000438168
0.000308334
0.00325951
0.00644674
0.00175237
0.00171485
0.00154998
0.00136921
0.00131545
0.0410405
0.019613
0.00243267
0.00176262
0.00118083
0.00105825
0.00158206
0.00158649
0.000965572
0.000662127
0.00233938
0.0113728
0.0125748
0.00274873
0.00185822
0.0018772
0.00178185
0.00163265
0.00146899
0.0168263
0.00609196
0.0017078
0.00145082
0.00115703
0.00157971
0.00169191
0.00150562
0.00070909
0.00055282
0.00607858
0.0137105
0.0138725
0.00968758
0.00196186
0.00204888
0.00200916
0.00185893
0.00159089
0.0006673
0.00107996
0.00127586
0.00118976
0.00102674
0.000887989
0.000790865
0.000676369
0.000565387
0.000424762
0.00056911
0.00973225
0.0144514
0.0147972
0.00229079
0.00219712
0.00222381
0.00205488
0.00168867
0.000722572
0.00091988
0.00102958
0.000990205
0.000885534
0.000784512
0.000689082
0.000585332
0.000469479
0.000330445
0.000148364
0.000332072
0.00814064
0.01086
0.00514838
0.0087978
0.012881
0.00899042
0.00400258
0.00116125
0.00101362
0.000891622
0.000839569
0.000768101
0.000686401
0.000598118
0.000499206
0.000386866
0.000256458
0.000103272
-5.57781e-05
-0.000157558
-6.89643e-05
0.010683
0.0236494
0.0236136
0.0234621
0.0231551
0.00123522
0.00128387
0.00118984
0.00072453
0.000662237
0.000595067
0.000531781
0.000447286
0.000316235
0.000190418
5.59458e-05
-8.01545e-05
-0.000181342
-0.000229487
0.00310649
0.0168226
0.0189105
0.00699102
0.00314408
0.00110474
0.00122361
0.00122895
0.00106439
0.000564819
0.000511254
0.000547933
0.000502742
0.00030539
0.000132486
6.37829e-06
-0.000119301
-0.000234297
-0.000342774
-0.000513216
-0.000755492
-0.000842064
-0.000761559
-0.000928651
0.000560737
0.000806684
0.00110981
0.000816267
0.000476618
0.000436012
0.000507713
0.000436853
0.000344617
0.000108532
-4.18812e-05
-0.000159581
-0.000276262
-0.000394673
-0.000536303
-0.000680717
-0.000739889
-0.000722541
-0.000854887
0.000511963
0.000490144
0.000465916
0.000437529
0.000400495
0.000352706
0.000365071
0.000377025
0.000264831
5.02929e-05
-8.71063e-05
-0.000197381
-0.000309903
-0.000424231
-0.000543695
-0.000650711
-0.000701579
-0.000587467
0.000605868
0.000462014
0.00043647
0.000408198
0.000374786
0.000332832
0.000279448
0.00021462
0.000145776
6.78649e-05
-3.07319e-05
-0.000128017
-0.000231839
-0.000338753
-0.00044703
-0.000554276
-0.000646666
-0.000700147
-0.000428182
0.00528545
0.000412707
0.000385072
0.000354101
0.00031805
0.000274775
0.000222399
0.000160666
9.04282e-05
1.25809e-05
-7.24645e-05
-0.00016464
-0.000262515
-0.000363989
-0.000467021
-0.000568429
-0.000659471
-0.000728327
-0.00061531
0.00551283
0.000365315
0.000336661
0.000304214
0.000266806
0.000223069
0.000171746
0.000112465
4.55551e-05
-2.8493e-05
-0.000109288
-0.000196434
-0.000288831
-0.000384909
-0.000482952
-0.000580714
-0.000673824
-0.000756611
-0.000838517
0.00575712
0.000320807
0.000291752
0.000258622
0.00022066
0.000176998
0.000126786
6.96558e-05
5.70132e-06
-6.47678e-05
-0.000141364
-0.000223565
-0.00031042
-0.00040067
-0.000492984
-0.00058616
-0.000679686
-0.000773526
-0.000853899
0.00599202
0.000279812
0.00025068
0.000217339
0.000179323
0.00013608
8.70322e-05
3.18803e-05
-2.93532e-05
-9.64187e-05
-0.000168892
-0.00024614
-0.000327186
-0.000410791
-0.000495624
-0.000580734
-0.000666806
-0.000754838
-0.000823728
0.00218636
0.000242677
0.000213615
0.000180329
0.000142547
9.99223e-05
5.20667e-05
-1.22908e-06
-5.99298e-05
-0.000123769
-0.000192243
-0.000264563
-0.000339562
-0.00041569
-0.00049106
-0.000563695
-0.000632085
-0.000693593
-0.000731508
-0.000721908
0.000209525
0.000180574
0.000147473
0.000110077
6.81709e-05
2.15016e-05
-3.00524e-05
-8.6408e-05
-0.000147245
-0.000211958
-0.000279578
-0.000348645
-0.000417111
-0.000482192
-0.000540067
-0.000585036
-0.000608839
-0.000608244
-0.000557148
0.000180295
0.00015144
0.000118578
8.16371e-05
4.04867e-05
-5.03136e-06
-5.49673e-05
-0.000109188
-0.000167321
-0.000228671
-0.000292114
-0.000355932
-0.00041762
-0.000473594
-0.000518384
-0.000542652
-0.000534148
-0.000503324
0.00047781
0.000154784
0.000125993
9.33835e-05
5.69273e-05
1.65405e-05
-2.78751e-05
-7.63236e-05
-0.000128642
-0.000184431
-0.000242956
-0.000303022
-0.000362788
-0.000419541
-0.000469374
-0.000506286
-0.000520134
-0.000498806
-0.000456594
0.00747091
0.000132688
0.000103934
7.15874e-05
3.56364e-05
-3.98102e-06
-4.73352e-05
-9.44154e-05
-0.000145062
-0.000198891
-0.000255196
-0.000312815
-0.000369955
-0.00042398
-0.00047115
-0.000505986
-0.000519981
-0.000503923
-0.000470213
0.00827168
0.000113631
8.49149e-05
5.28579e-05
1.74516e-05
-2.13667e-05
-6.36691e-05
-0.000109463
-0.000158629
-0.000210848
-0.000265508
-0.000321576
-0.000377436
-0.000430699
-0.000478001
-0.000514667
-0.00053401
-0.000528314
-0.000499514
0.00850847
9.72043e-05
6.85593e-05
3.68549e-05
2.07157e-06
-3.58722e-05
-7.70774e-05
-0.000121601
-0.000169403
-0.000220276
-0.00027376
-0.000329019
-0.000384693
-0.000438709
-0.000488126
-0.000528938
-0.000555543
-0.000559465
-0.000530632
0.00858363
8.29841e-05
5.44863e-05
2.32448e-05
-1.0782e-05
-4.77119e-05
-8.76998e-05
-0.000130882
-0.00017733
-0.000226989
-0.000279598
-0.000334572
-0.000390847
-0.000446715
-0.000499674
-0.000546137
-0.000581095
-0.000594274
-0.00056265
0.00829602
7.05553e-05
4.23257e-05
1.17148e-05
-2.13534e-05
-5.70518e-05
-9.56116e-05
-0.000137273
-0.000182246
-0.00023066
-0.000282491
-0.000337448
-0.000394815
-0.000453276
-0.000510754
-0.000563933
-0.000608232
-0.000632198
-0.000600006
0.0085228
5.95241e-05
3.17335e-05
1.98878e-06
-2.98397e-05
-6.40007e-05
-0.000100822
-0.000140664
-0.000183895
-0.00023085
-0.00028177
-0.000336699
-0.00039531
-0.000456677
-0.000519033
-0.000579165
-0.000631417
-0.000664165
-0.000635478
0.00844744
4.95322e-05
2.24114e-05
-6.15256e-06
-3.6373e-05
-6.85987e-05
-0.000103268
-0.000140874
-0.000181945
-0.000227032
-0.000276661
-0.000331244
-0.000390884
-0.000455031
-0.000522109
-0.000588377
-0.00064019
-0.000668302
-0.000634514
0.000679244
4.02717e-05
1.41311e-05
-1.28442e-05
-4.0997e-05
-7.08023e-05
-0.000102817
-0.000137658
-0.000176008
-0.000218625
-0.000266335
-0.000319964
-0.000380168
-0.000446889
-0.000518701
-0.000591001
-0.000637617
-0.000653836
-0.000597458
-0.000407754
3.14991e-05
6.76366e-06
-1.81053e-05
-4.36436e-05
-7.0474e-05
-9.92631e-05
-0.000130727
-0.00016567
-0.000205032
-0.000249934
-0.000301671
-0.000361595
-0.000430586
-0.000508069
-0.00058975
-0.000643833
-0.000664329
-0.000587481
0.00125402
2.30565e-05
3.18803e-07
-2.18044e-05
-4.41136e-05
-6.73813e-05
-9.23481e-05
-0.000119778
-0.000150534
-0.000185678
-0.000226572
-0.00027499
-0.00033315
-0.000403442
-0.000487529
-0.00058422
-0.000673374
-0.000714837
-0.00063413
0.00280071
1.49466e-05
-4.95501e-06
-2.35732e-05
-4.20118e-05
-6.11489e-05
-8.17244e-05
-0.000104465
-0.000130201
-0.000159997
-0.000195328
-0.000238326
-0.000292071
-0.000360782
-0.000449707
-0.000564805
-0.000705171
-0.000820143
-0.000746582
0.00276379
7.5465e-06
-8.35424e-06
-2.26265e-05
-3.65921e-05
-5.11101e-05
-6.68022e-05
-8.42466e-05
-0.00010411
-0.00012729
-0.000155127
-0.000189752
-0.000234637
-0.000295326
-0.000380736
-0.000508114
-0.000706679
-0.000949726
-0.000926813
0.002501
1.73057e-06
-8.89538e-06
-1.81513e-05
-2.72745e-05
-3.69065e-05
-4.74176e-05
-5.91257e-05
-7.24031e-05
-8.77847e-05
-0.000106138
-0.000128991
-0.000159164
-0.000201819
-0.000266986
-0.000381683
-0.000621935
-0.00105844
-0.00121196
0.00180961
-2.20827e-06
-7.86561e-06
-1.25764e-05
-1.74147e-05
-2.26757e-05
-2.84386e-05
-3.47354e-05
-4.16045e-05
-4.91337e-05
-5.75358e-05
-6.73246e-05
-7.97612e-05
-9.78788e-05
-0.000128877
-0.000193804
-0.000368905
-0.000851043
-0.00137119
0.00108871
)
;

boundaryField
{
    leftWall
    {
        type            fixedFluxPressure;
        gradient        uniform 0;
        value           nonuniform List<scalar> 
50
(
764.38
764.404
764.441
764.495
764.563
764.645
764.742
764.853
765.062
761.554
309.271
0.643168
0.618632
0.275398
-0.00151918
-0.00129054
-0.00105058
-0.000850138
-0.000684388
-0.000542605
-0.000420156
-0.000314912
-0.000236778
-0.000179367
-0.000132094
-8.04498e-05
-3.02738e-05
0.000397015
0.000870989
0.000920803
0.000972005
0.001022
0.00106731
0.00110866
0.00115476
0.00117071
0.000450985
9.48918e-05
9.70443e-05
0.000133754
0.000135822
0.000143809
0.000167615
0.000157001
0.000166167
0.000221933
0.00035814
0.000479001
0.000581991
0.000481854
)
;
    }
    rightWall
    {
        type            fixedFluxPressure;
        gradient        uniform 0;
        value           nonuniform List<scalar> 
50
(
764.922
764.876
764.704
765.222
765.31
765.372
765.522
765.711
765.83
760.837
327.279
0.557315
0.471267
0.175433
0.000527201
0.000870645
0.00112395
0.00131545
0.00146899
0.00159089
0.00168867
0.00400258
0.0231551
0.00314408
-0.000928651
-0.000854887
0.000605868
0.00528545
0.00551283
0.00575712
0.00599202
0.00218636
-0.000721908
-0.000557148
0.00047781
0.00747091
0.00827168
0.00850847
0.00858363
0.00829602
0.0085228
0.00844744
0.000679244
-0.000407754
0.00125402
0.00280071
0.00276379
0.002501
0.00180961
0.00108871
)
;
    }
    lowerWall
    {
        type            fixedFluxPressure;
        gradient        uniform 0;
        value           nonuniform List<scalar> 
62
(
764.38
764.28
764.122
763.911
763.653
763.353
763.016
762.649
762.257
761.847
761.424
760.995
760.564
760.134
759.705
759.285
758.879
758.528
758.195
757.896
757.828
757.735
757.666
757.666
757.626
757.578
757.499
757.377
757.258
757.201
757.374
757.901
757.882
758.051
758.228
758.5
758.477
758.405
758.285
756.516
756.245
756.156
758.634
758.5
758.628
759.189
759.636
760.088
760.499
760.853
761.15
761.524
761.896
762.102
762.291
762.923
763.544
763.967
764.333
764.563
764.726
764.922
)
;
    }
    atmosphere
    {
        type            totalPressure;
        rho             rho;
        psi             none;
        gamma           1;
        p0              uniform 0;
        value           nonuniform List<scalar> 
46
(
-4.34117e-05
0
0
0
0
0
0
0
0
0
0
0
0
0
0
0
0
0
0
0
0
0
-3.07976e-07
-9.00202e-07
-1.44248e-06
-2.10452e-06
-2.87933e-06
-4.42265e-06
-7.04144e-06
-1.01396e-05
-1.36495e-05
-1.75002e-05
-2.1615e-05
-2.59101e-05
-3.02915e-05
-3.46536e-05
-3.88748e-05
-4.28138e-05
-4.63007e-05
-4.91217e-05
-5.098e-05
-5.13985e-05
-4.94316e-05
-4.28601e-05
-2.43009e-05
0
)
;
    }
    defaultFaces
    {
        type            empty;
    }
}


// ************************************************************************* //
