/*--------------------------------*- C++ -*----------------------------------*\
  =========                 |
  \\      /  F ield         | OpenFOAM: The Open Source CFD Toolbox
   \\    /   O peration     | Website:  https://openfoam.org
    \\  /    A nd           | Version:  9
     \\/     M anipulation  |
\*---------------------------------------------------------------------------*/
FoamFile
{
    format      ascii;
    class       surfaceScalarField;
    location    "10";
    object      phi;
}
// * * * * * * * * * * * * * * * * * * * * * * * * * * * * * * * * * * * * * //

dimensions      [0 3 -1 0 0 0 0];

internalField   nonuniform List<scalar> 
4432
(
-9.73038e-08
9.73038e-08
-1.96138e-07
9.88339e-08
-2.88674e-07
9.25385e-08
-3.68963e-07
8.02897e-08
-4.34306e-07
6.53426e-08
-4.83489e-07
4.91831e-08
-5.16469e-07
3.29792e-08
-5.35288e-07
1.88181e-08
-5.42748e-07
7.45973e-09
-5.38876e-07
-3.87311e-09
-5.19202e-07
-1.96736e-08
-4.75437e-07
-4.37651e-08
-3.96747e-07
-7.86908e-08
-2.79929e-07
-1.16819e-07
-1.40385e-07
-1.39546e-07
-2.65751e-08
-1.13811e-07
4.97246e-10
-2.70735e-08
-5.78596e-08
5.83553e-08
-2.92683e-07
2.34822e-07
-6.36326e-07
3.43641e-07
-7.00147e-07
6.38192e-08
-5.04525e-07
-1.95621e-07
-5.04523e-07
-1.01441e-07
1.98748e-07
-1.97525e-07
1.94918e-07
-2.89475e-07
1.8449e-07
-3.72409e-07
1.63224e-07
-4.42736e-07
1.35668e-07
-4.98477e-07
1.04924e-07
-5.39477e-07
7.39779e-08
-5.66846e-07
4.6186e-08
-5.82131e-07
2.27443e-08
-5.85498e-07
-5.06813e-10
-5.74004e-07
-3.11681e-08
-5.41976e-07
-7.57944e-08
-4.83149e-07
-1.3752e-07
-3.96105e-07
-2.03865e-07
-2.93757e-07
-2.41896e-07
-2.10381e-07
-1.97189e-07
-1.89087e-07
-4.83705e-08
-2.30279e-07
9.95433e-08
-3.2327e-07
3.2781e-07
-4.15883e-07
4.36252e-07
-4.50173e-07
9.81099e-08
-3.82257e-07
-2.63533e-07
-8.86778e-07
-1.02476e-07
3.01226e-07
-1.98209e-07
2.9065e-07
-2.90127e-07
2.76408e-07
-3.75116e-07
2.48214e-07
-4.49292e-07
2.09843e-07
-5.10445e-07
1.66077e-07
-5.57909e-07
1.21442e-07
-5.92214e-07
8.04898e-08
-6.14345e-07
4.48751e-08
-6.24315e-07
9.4621e-09
-6.20609e-07
-3.4875e-08
-5.99248e-07
-9.71563e-08
-5.55771e-07
-1.80998e-07
-4.88676e-07
-2.70961e-07
-4.06247e-07
-3.24327e-07
-3.35021e-07
-2.68417e-07
-3.13013e-07
-7.0381e-08
-3.33428e-07
1.19956e-07
-3.3146e-07
3.2584e-07
-3.06535e-07
4.11328e-07
-3.05837e-07
9.74139e-08
-2.78762e-07
-2.90603e-07
-1.16554e-06
-1.02689e-07
4.03917e-07
-2.00359e-07
3.88319e-07
-2.94324e-07
3.70373e-07
-3.82223e-07
3.36113e-07
-4.60434e-07
2.88054e-07
-5.26771e-07
2.32414e-07
-5.80249e-07
1.74919e-07
-6.20872e-07
1.21112e-07
-6.49341e-07
7.33435e-08
-6.65924e-07
2.60444e-08
-6.69918e-07
-3.08823e-08
-6.58794e-07
-1.08282e-07
-6.28853e-07
-2.10941e-07
-5.77474e-07
-3.22342e-07
-5.07424e-07
-3.94379e-07
-4.38395e-07
-3.37447e-07
-4.09563e-07
-9.92145e-08
-4.09107e-07
1.19498e-07
-3.51721e-07
2.68452e-07
-2.59508e-07
3.19116e-07
-2.20891e-07
5.88003e-08
-2.05432e-07
-3.06058e-07
-1.37097e-06
-1.02463e-07
5.06381e-07
-2.03226e-07
4.89081e-07
-3.00753e-07
4.679e-07
-3.92527e-07
4.27886e-07
-4.75337e-07
3.70865e-07
-5.47151e-07
3.04228e-07
-6.06694e-07
2.34462e-07
-6.53517e-07
1.67934e-07
-6.88177e-07
1.08003e-07
-7.11235e-07
4.91019e-08
-7.22782e-07
-1.93362e-08
-7.21456e-07
-1.09609e-07
-7.04021e-07
-2.28377e-07
-6.66607e-07
-3.59757e-07
-6.06219e-07
-4.54768e-07
-5.32794e-07
-4.10873e-07
-4.90398e-07
-1.41613e-07
-4.67467e-07
9.6566e-08
-3.84615e-07
1.856e-07
-2.49833e-07
1.84336e-07
-1.7867e-07
-1.23591e-08
-1.53434e-07
-3.3129e-07
-1.5244e-06
-1.02118e-07
6.08499e-07
-2.06772e-07
5.93734e-07
-3.08741e-07
5.6987e-07
-4.05096e-07
5.2424e-07
-4.93031e-07
4.58801e-07
-5.70679e-07
3.81878e-07
-6.36446e-07
3.00229e-07
-6.89415e-07
2.20904e-07
-7.30061e-07
1.48649e-07
-7.59221e-07
7.82622e-08
-7.77767e-07
-7.91341e-10
-7.85438e-07
-1.01939e-07
-7.79539e-07
-2.34278e-07
-7.55601e-07
-3.83696e-07
-7.06305e-07
-5.04067e-07
-6.25763e-07
-4.91418e-07
-5.6175e-07
-2.05629e-07
-5.16389e-07
5.12034e-08
-4.19909e-07
8.91184e-08
-2.70731e-07
3.51578e-08
-1.72718e-07
-1.1037e-07
-8.13628e-08
-4.22643e-07
-1.60576e-06
-1.01952e-07
7.10451e-07
-2.10938e-07
7.02719e-07
-3.17648e-07
6.7658e-07
-4.18877e-07
6.25469e-07
-5.12274e-07
5.522e-07
-5.9602e-07
4.65626e-07
-6.68108e-07
3.7232e-07
-7.27115e-07
2.79913e-07
-7.73407e-07
1.94944e-07
-8.08008e-07
1.12865e-07
-8.32552e-07
2.37534e-08
-8.47819e-07
-8.66724e-08
-8.52022e-07
-2.30076e-07
-8.41273e-07
-3.94447e-07
-8.06387e-07
-5.38955e-07
-7.28052e-07
-5.69757e-07
-6.3266e-07
-3.01024e-07
-5.48818e-07
-3.26428e-08
-4.50329e-07
-9.37297e-09
-3.1018e-07
-1.04992e-07
-1.77707e-07
-2.42845e-07
1.9244e-08
-6.19597e-07
-1.58652e-06
-1.04271e-07
8.14722e-07
-2.16011e-07
8.14459e-07
-3.26525e-07
7.87095e-07
-4.32493e-07
7.3144e-07
-5.31479e-07
6.51189e-07
-6.21425e-07
5.55578e-07
-6.99819e-07
4.50719e-07
-7.64677e-07
3.44776e-07
-8.16176e-07
2.46446e-07
-8.55321e-07
1.52013e-07
-8.84359e-07
5.27948e-08
-9.05036e-07
-6.59946e-08
-9.16879e-07
-2.18232e-07
-9.17487e-07
-3.9384e-07
-8.97726e-07
-5.58717e-07
-8.41029e-07
-6.26457e-07
-7.07887e-07
-4.3417e-07
-5.76484e-07
-1.64049e-07
-4.65571e-07
-1.2029e-07
-3.42668e-07
-2.27899e-07
-1.66215e-07
-4.19303e-07
7.7996e-08
-8.63816e-07
-1.50854e-06
-6.25616e-07
6.25616e-07
-5.6108e-07
-6.45174e-08
2.23754e-08
-5.83469e-07
5.79141e-07
-5.56756e-07
9.87505e-07
-4.08366e-07
1.29899e-06
-3.11483e-07
1.51836e-06
-2.19374e-07
1.60772e-06
-8.9363e-08
1.6457e-06
-3.79811e-08
1.7642e-06
-1.18504e-07
1.68003e-06
8.4178e-08
9.10225e-07
7.698e-07
1.6002e-07
7.50204e-07
2.8573e-09
1.57162e-07
2.58152e-08
-2.29584e-08
-1.34409e-07
1.60224e-07
-4.83601e-07
3.49192e-07
-5.46866e-07
6.32654e-08
-5.46867e-07
-4.31631e-07
1.05723e-06
-2.30676e-07
-2.65443e-07
2.03613e-07
-1.01777e-06
5.96461e-07
-9.49596e-07
8.93692e-07
-7.05603e-07
1.0976e-06
-5.15385e-07
1.23421e-06
-3.55996e-07
1.32302e-06
-1.78172e-07
1.31968e-06
-3.46407e-08
1.25621e-06
-5.50351e-08
1.20383e-06
1.36553e-07
9.2018e-07
1.05345e-06
5.09639e-07
1.16074e-06
2.87282e-07
3.79518e-07
1.54994e-07
1.09329e-07
-6.95117e-08
3.84729e-07
-4.2298e-07
7.02659e-07
-5.45168e-07
1.85454e-07
-1.09204e-06
-2.33819e-07
1.29104e-06
2.09481e-08
-5.20186e-07
3.49396e-07
-1.34623e-06
6.23668e-07
-1.22386e-06
8.34024e-07
-9.15962e-07
9.79489e-07
-6.6085e-07
1.07912e-06
-4.55626e-07
1.13454e-06
-2.33594e-07
1.09522e-06
4.6711e-09
9.69497e-07
7.0692e-08
8.46564e-07
2.59484e-07
7.95334e-07
1.10468e-06
6.52979e-07
1.3031e-06
4.68957e-07
5.63539e-07
2.62568e-07
3.15719e-07
7.82349e-09
6.39474e-07
-3.10318e-07
1.0208e-06
-4.45928e-07
3.21064e-07
-1.53796e-06
-5.19507e-08
1.34298e-06
2.45913e-07
-8.18028e-07
4.83708e-07
-1.58403e-06
6.55999e-07
-1.39615e-06
7.92624e-07
-1.05259e-06
8.90202e-07
-7.58429e-07
9.59557e-07
-5.24984e-07
9.91888e-07
-2.65927e-07
9.32572e-07
6.39867e-08
7.90599e-07
2.12663e-07
6.50966e-07
3.99116e-07
6.91223e-07
1.06442e-06
7.06394e-07
1.28793e-06
5.80562e-07
6.8937e-07
3.53113e-07
5.43169e-07
9.41345e-08
8.98453e-07
-1.64375e-07
1.27931e-06
-2.74827e-07
4.31517e-07
-1.81279e-06
1.93688e-07
1.14928e-06
4.83927e-07
-1.10825e-06
6.05026e-07
-1.70514e-06
6.8566e-07
-1.47678e-06
7.58743e-07
-1.12567e-06
8.14476e-07
-8.14164e-07
8.57796e-07
-5.68306e-07
8.74535e-07
-2.82668e-07
8.10384e-07
1.28137e-07
6.76967e-07
3.4608e-07
5.56881e-07
5.19203e-07
6.15632e-07
1.00567e-06
7.03416e-07
1.20014e-06
6.14564e-07
7.78222e-07
4.26499e-07
7.31235e-07
2.12875e-07
1.11208e-06
7.8838e-09
1.4843e-06
-8.55031e-08
5.24904e-07
-1.89829e-06
5.00924e-07
6.48351e-07
6.94725e-07
-1.30204e-06
7.00101e-07
-1.71052e-06
7.04358e-07
-1.48103e-06
7.25627e-07
-1.14694e-06
7.45435e-07
-8.33973e-07
7.66575e-07
-5.89449e-07
7.76377e-07
-2.92471e-07
7.18369e-07
1.86143e-07
6.06755e-07
4.57694e-07
5.19759e-07
6.06199e-07
5.77332e-07
9.48098e-07
6.65824e-07
1.11165e-06
5.93653e-07
8.50395e-07
4.62245e-07
8.62645e-07
3.44837e-07
1.22949e-06
2.24998e-07
1.60414e-06
1.08132e-07
6.41771e-07
-1.79016e-06
7.74519e-07
-1.26176e-07
8.35445e-07
-1.36296e-06
7.54055e-07
-1.62913e-06
7.04957e-07
-1.43194e-06
6.88202e-07
-1.13019e-06
6.78227e-07
-8.24001e-07
6.78334e-07
-5.89559e-07
6.89648e-07
-3.03787e-07
6.47132e-07
2.28657e-07
5.64998e-07
5.39827e-07
5.09894e-07
6.61304e-07
5.6268e-07
8.95312e-07
6.27068e-07
1.04727e-06
5.53741e-07
9.23724e-07
4.75262e-07
9.41128e-07
4.67407e-07
1.23735e-06
4.48319e-07
1.62323e-06
3.3298e-07
7.57112e-07
-1.45718e-06
8.37502e-07
-9.63685e-07
8.68203e-07
-1.39367e-06
7.58752e-07
-1.51969e-06
6.83045e-07
-1.35623e-06
6.4324e-07
-1.09039e-06
6.10766e-07
-7.91531e-07
5.88924e-07
-5.67721e-07
5.98166e-07
-3.13032e-07
5.90033e-07
2.36787e-07
5.48055e-07
5.81803e-07
5.1552e-07
6.93838e-07
5.65433e-07
8.45399e-07
6.07563e-07
1.00514e-06
5.31481e-07
9.99808e-07
5.09768e-07
9.62844e-07
5.43626e-07
1.20349e-06
6.25981e-07
1.54088e-06
5.42792e-07
8.40304e-07
-9.14382e-07
-2.1781e-07
1.03253e-06
-4.67028e-07
1.06368e-06
-7.18138e-07
1.0382e-06
-9.59239e-07
9.72538e-07
-1.18793e-06
8.79873e-07
-1.39969e-06
7.67335e-07
-1.58729e-06
6.3832e-07
-1.74361e-06
5.0109e-07
-1.86913e-06
3.71967e-07
-1.96389e-06
2.46772e-07
-2.03402e-06
1.22918e-07
-2.08551e-06
-1.4505e-08
-2.12274e-06
-1.81e-07
-2.14657e-06
-3.70012e-07
-2.14456e-06
-5.60727e-07
-2.06146e-06
-7.0956e-07
-1.77914e-06
-7.16483e-07
-1.40143e-06
-5.41758e-07
-1.02709e-06
-4.94627e-07
-6.66836e-07
-5.88146e-07
-2.86251e-07
-7.99884e-07
-7.08901e-08
-1.07918e-06
-1.29818e-06
-2.81246e-07
-2.67559e-07
1.30009e-06
-5.14205e-07
1.31033e-06
-7.27689e-07
1.25169e-06
-9.74904e-07
1.21975e-06
-1.23096e-06
1.13593e-06
-1.46384e-06
1.00021e-06
-1.67204e-06
8.46516e-07
-1.85699e-06
6.86037e-07
-2.00601e-06
5.20994e-07
-2.10992e-06
3.50677e-07
-2.16771e-06
1.80701e-07
-2.18679e-06
4.57886e-09
-2.18494e-06
-1.8285e-07
-2.17736e-06
-3.7759e-07
-2.16655e-06
-5.71542e-07
-2.11638e-06
-7.59724e-07
-1.94213e-06
-8.90732e-07
-1.55002e-06
-9.33865e-07
-1.04066e-06
-1.00398e-06
-5.25647e-07
-1.10316e-06
-1.03699e-07
-1.22183e-06
1.603e-07
-1.34318e-06
-1.40463e-06
2.66724e-07
-3.15092e-07
1.61518e-06
-5.62137e-07
1.55733e-06
-8.47598e-07
1.53709e-06
-1.04785e-06
1.41994e-06
-1.21466e-06
1.30268e-06
-1.40698e-06
1.19249e-06
-1.61683e-06
1.05631e-06
-1.81534e-06
8.84495e-07
-1.97693e-06
6.82548e-07
-2.08685e-06
4.60562e-07
-2.12593e-06
2.19767e-07
-2.0954e-06
-2.59615e-08
-2.0392e-06
-2.39046e-07
-1.98858e-06
-4.28196e-07
-1.96402e-06
-5.96072e-07
-1.96054e-06
-7.63164e-07
-1.85781e-06
-9.93403e-07
-1.47562e-06
-1.316e-06
-9.50089e-07
-1.52944e-06
-4.04728e-07
-1.64844e-06
4.46009e-08
-1.67108e-06
3.02075e-07
-1.60058e-06
-1.48582e-06
3.83365e-07
-3.77428e-07
1.99259e-06
-2.31585e-07
1.41162e-06
-2.06807e-06
3.37367e-06
-1.68519e-06
1.03721e-06
-1.13236e-06
7.4995e-07
-1.19062e-06
1.25084e-06
-1.54899e-06
1.41478e-06
-1.6108e-06
9.46404e-07
-1.72609e-06
7.9792e-07
-1.84281e-06
5.77351e-07
-1.86988e-06
2.46881e-07
-1.83448e-06
-6.13419e-08
-1.79801e-06
-2.75526e-07
-1.76918e-06
-4.57054e-07
-1.76571e-06
-5.99606e-07
-1.65109e-06
-8.77863e-07
-1.32897e-06
-1.31561e-06
-9.32378e-07
-1.7127e-06
-7.68278e-07
-1.69362e-06
-4.46244e-07
-1.97055e-06
7.31118e-08
-2.1905e-06
4.56594e-07
-1.98416e-06
-1.29228e-06
2.62832e-07
1.82723e-07
1.80967e-06
-1.01119e-06
2.60516e-06
-4.62283e-06
6.98494e-06
-3.80365e-06
2.17762e-07
-3.03281e-06
-2.11224e-08
-2.93712e-06
1.15496e-06
-3.13587e-06
1.61336e-06
-2.61968e-06
4.30083e-07
-2.09299e-06
2.71137e-07
-1.71774e-06
2.0205e-07
-1.30181e-06
-1.69049e-07
-7.13875e-07
-6.4923e-07
-2.6456e-07
-7.2474e-07
1.29218e-07
-8.50687e-07
5.98722e-07
-1.06892e-06
1.31533e-06
-1.59423e-06
1.9556e-06
-1.9556e-06
1.97587e-06
-1.73265e-06
1.17526e-06
-8.92613e-07
2.26827e-07
-1.02168e-06
1.46759e-07
-2.1099e-06
1.10252e-07
-1.94695e-06
-1.29109e-07
-1.05145e-06
-6.80625e-07
2.49053e-06
-7.07282e-07
2.63174e-06
1.36588e-06
4.91192e-06
7.79646e-07
8.04108e-07
-7.57606e-07
1.51625e-06
-1.41963e-06
1.81711e-06
-1.13843e-06
1.33228e-06
-1.34744e-06
6.39186e-07
-1.33674e-06
2.60501e-07
-1.20516e-06
7.0514e-08
-1.09411e-06
-2.80081e-07
-7.43685e-07
-9.99666e-07
-1.92895e-07
-1.27556e-06
3.24525e-07
-1.36817e-06
7.39814e-07
-1.4843e-06
5.19103e-07
-1.37362e-06
-2.54465e-07
-1.18212e-06
-8.44866e-07
-1.14232e-06
-6.35207e-07
-1.10233e-06
-7.63544e-07
-8.93436e-07
-1.24848e-06
-1.62518e-06
-1.40032e-06
-1.79564e-06
-5.15166e-07
-1.01496e-06
-4.9867e-07
2.98916e-06
-5.09761e-07
2.64266e-06
1.07209e-06
3.32997e-06
2.42396e-07
1.63374e-06
-2.99906e-07
2.05849e-06
-3.86566e-07
1.90372e-06
-4.57691e-07
1.40335e-06
-5.97025e-07
7.78471e-07
-7.03495e-07
3.66935e-07
-7.18718e-07
8.57162e-08
-6.50114e-07
-3.4869e-07
-4.55884e-07
-1.19389e-06
-1.55228e-07
-1.5762e-06
9.0948e-08
-1.61431e-06
1.71693e-07
-1.565e-06
-1.64696e-08
-1.1854e-06
-4.16268e-07
-7.82255e-07
-8.53926e-07
-7.04576e-07
-1.22947e-06
-7.26632e-07
-1.42358e-06
-6.9913e-07
-1.94833e-06
-1.10026e-06
-2.29487e-06
-1.44898e-06
-1.30364e-06
-1.50637e-06
-1.43862e-07
3.13274e-06
-2.38821e-07
2.73745e-06
2.13319e-07
2.87766e-06
-1.69562e-07
2.01648e-06
-2.25489e-07
2.1143e-06
-1.4339e-07
1.82153e-06
-1.15922e-07
1.37582e-06
-1.68151e-07
8.30675e-07
-1.75008e-07
3.73812e-07
-1.14321e-07
2.51003e-08
-6.38833e-08
-3.99009e-07
-1.8258e-07
-1.07503e-06
-2.84301e-07
-1.47429e-06
-3.90634e-07
-1.50776e-06
-5.67504e-07
-1.38788e-06
-6.80901e-07
-1.07173e-06
-8.91471e-07
-5.71375e-07
-1.20731e-06
-3.88384e-07
-1.57268e-06
-3.6082e-07
-1.86778e-06
-4.03477e-07
-2.24392e-06
-7.23534e-07
-2.51738e-06
-1.17488e-06
-1.58051e-06
-2.2398e-06
-7.24366e-08
3.20502e-06
-2.11487e-07
2.87642e-06
-9.58485e-08
2.76193e-06
-2.91911e-07
2.21246e-06
-2.17311e-07
2.03962e-06
-1.05251e-07
1.7094e-06
-3.20903e-08
1.3026e-06
-1.18667e-08
8.10419e-07
1.05894e-08
3.51353e-07
3.35277e-08
2.19231e-09
-2.0653e-08
-3.44765e-07
-2.47e-07
-8.48591e-07
-5.30734e-07
-1.19044e-06
-7.55152e-07
-1.28322e-06
-9.62751e-07
-1.18016e-06
-1.15529e-06
-8.79062e-07
-1.30126e-06
-4.25275e-07
-1.51788e-06
-1.71616e-07
-1.79412e-06
-8.43803e-08
-2.06439e-06
-1.32903e-07
-2.37615e-06
-4.1143e-07
-2.61343e-06
-9.37194e-07
-1.73604e-06
-2.45747e-06
-5.79102e-08
3.26291e-06
-1.61038e-07
2.97958e-06
-1.36704e-07
2.73762e-06
-2.31641e-07
2.30739e-06
-1.84822e-07
1.99279e-06
-1.05306e-07
1.62987e-06
-4.82344e-08
1.24552e-06
-2.84287e-08
7.90608e-07
-3.23735e-08
3.55298e-07
-8.78079e-08
5.76328e-08
-2.13995e-07
-2.18565e-07
-4.71895e-07
-5.90672e-07
-7.6309e-07
-8.99227e-07
-9.91255e-07
-1.05505e-06
-1.19957e-06
-9.71859e-07
-1.39945e-06
-6.79234e-07
-1.5266e-06
-2.98242e-07
-1.67127e-06
-2.71335e-08
-1.84283e-06
8.69671e-08
-2.0175e-06
4.15655e-08
-2.21231e-06
-2.16814e-07
-2.38172e-06
-7.67977e-07
-1.7134e-06
-2.40456e-06
-3.19585e-08
3.29491e-06
-8.63915e-08
3.03409e-06
-8.52795e-08
2.73657e-06
-1.27467e-07
2.34963e-06
-1.23364e-07
1.98873e-06
-9.9788e-08
1.60633e-06
-8.18188e-08
1.22759e-06
-9.1721e-08
8.00544e-07
-1.40258e-07
4.0386e-07
-2.59592e-07
1.76983e-07
-4.24775e-07
-5.33725e-08
-6.75895e-07
-3.39548e-07
-9.52216e-07
-6.22907e-07
-1.1681e-06
-8.39175e-07
-1.33857e-06
-8.01398e-07
-1.48672e-06
-5.3113e-07
-1.59463e-06
-1.90413e-07
-1.67984e-06
5.79224e-08
-1.75429e-06
1.61201e-07
-1.81537e-06
1.02389e-07
-1.87556e-06
-1.56917e-07
-1.96189e-06
-6.81962e-07
-1.48464e-06
-2.191e-06
1.48205e-09
3.29348e-06
-1.48013e-08
3.05044e-06
-1.79215e-08
2.73974e-06
-4.21278e-08
2.37388e-06
-6.09323e-08
2.00759e-06
-8.01274e-08
1.62558e-06
-9.11878e-08
1.2387e-06
-1.30344e-07
8.39742e-07
-2.30235e-07
5.03782e-07
-3.75877e-07
3.22643e-07
-5.5031e-07
1.21065e-07
-7.75982e-07
-1.13881e-07
-1.03194e-06
-3.66958e-07
-1.25493e-06
-6.16212e-07
-1.41852e-06
-6.37827e-07
-1.51353e-06
-4.36135e-07
-1.58331e-06
-1.2066e-07
-1.62048e-06
9.50332e-08
-1.62574e-06
1.66359e-07
-1.60664e-06
8.31519e-08
-1.58733e-06
-1.76388e-07
-1.63362e-06
-6.35847e-07
-1.23718e-06
-1.88127e-06
2.94932e-08
3.26404e-06
3.74351e-08
3.04252e-06
4.12781e-08
2.73591e-06
1.96559e-08
2.39553e-06
-1.02538e-08
2.03753e-06
-4.55009e-08
1.66086e-06
-7.68853e-08
1.27012e-06
-1.43066e-07
9.05956e-07
-2.77032e-07
6.37773e-07
-4.2486e-07
4.70487e-07
-5.88573e-07
2.84784e-07
-7.8018e-07
7.77247e-08
-1.00166e-06
-1.45491e-07
-1.24722e-06
-3.70668e-07
-1.42779e-06
-4.57269e-07
-1.51618e-06
-3.47751e-07
-1.55041e-06
-8.64267e-08
-1.55287e-06
9.74829e-08
-1.52001e-06
1.33482e-07
-1.46943e-06
3.25399e-08
-1.43469e-06
-2.11154e-07
-1.47898e-06
-5.91594e-07
-1.05419e-06
-1.66199e-06
5.13237e-08
3.21273e-06
7.77752e-08
3.01604e-06
8.64006e-08
2.72727e-06
7.07424e-08
2.41119e-06
3.83523e-08
2.06993e-06
-4.9653e-09
1.7042e-06
-5.38408e-08
1.31902e-06
-1.45957e-07
9.98098e-07
-2.87507e-07
7.79347e-07
-4.2937e-07
6.12373e-07
-5.77282e-07
4.3272e-07
-7.40144e-07
2.40611e-07
-9.2693e-07
4.13197e-08
-1.15336e-06
-1.44214e-07
-1.35026e-06
-2.6035e-07
-1.47715e-06
-2.20822e-07
-1.50734e-06
-5.6193e-08
-1.48878e-06
7.89691e-08
-1.44191e-06
8.66719e-08
-1.39011e-06
-1.92034e-08
-1.36682e-06
-2.3438e-07
-1.41801e-06
-5.40331e-07
-8.84019e-07
-1.5881e-06
6.88062e-08
3.14391e-06
1.07282e-07
2.97751e-06
1.22666e-07
2.71186e-06
1.13973e-07
2.41986e-06
8.33912e-08
2.10051e-06
3.25694e-08
1.75503e-06
-3.70149e-08
1.38862e-06
-1.44962e-07
1.10607e-06
-2.82281e-07
9.16691e-07
-4.13949e-07
7.44071e-07
-5.47724e-07
5.66532e-07
-6.91369e-07
3.84302e-07
-8.53387e-07
2.03393e-07
-1.0371e-06
3.95602e-08
-1.22884e-06
-6.85405e-08
-1.3719e-06
-7.76919e-08
-1.42443e-06
-3.57499e-09
-1.408e-06
6.26415e-08
-1.36778e-06
4.65516e-08
-1.32987e-06
-5.70076e-08
-1.32388e-06
-2.40248e-07
-1.38223e-06
-4.81854e-07
-7.38045e-07
-1.52807e-06
8.18069e-08
3.06207e-06
1.28989e-07
2.93026e-06
1.50035e-07
2.69077e-06
1.47922e-07
2.42195e-06
1.21699e-07
2.12671e-06
6.77227e-08
1.809e-06
-2.4077e-08
1.48042e-06
-1.43057e-07
1.22506e-06
-2.6793e-07
1.04158e-06
-3.88337e-07
8.64505e-07
-5.10572e-07
6.88802e-07
-6.40502e-07
5.14281e-07
-7.83725e-07
3.46678e-07
-9.42557e-07
1.98465e-07
-1.10382e-06
9.28019e-08
-1.23233e-06
5.09151e-08
-1.29593e-06
6.0121e-08
-1.30059e-06
6.74195e-08
-1.28059e-06
2.66615e-08
-1.26306e-06
-7.44194e-08
-1.27303e-06
-2.30139e-07
-1.33256e-06
-4.22194e-07
-6.17928e-07
-1.45254e-06
8.87458e-08
2.97328e-06
1.42181e-07
2.87676e-06
1.66528e-07
2.66638e-06
1.67212e-07
2.42123e-06
1.42176e-07
2.15172e-06
8.58522e-08
1.8653e-06
-1.37518e-08
1.58002e-06
-1.32248e-07
1.34355e-06
-2.43963e-07
1.1533e-06
-3.54383e-07
9.74941e-07
-4.66728e-07
8.01172e-07
-5.85132e-07
6.32721e-07
-7.12581e-07
4.74177e-07
-8.48543e-07
3.34491e-07
-9.82331e-07
2.26664e-07
-1.09136e-06
1.60028e-07
-1.15581e-06
1.24665e-07
-1.17847e-06
9.01758e-08
-1.17973e-06
2.80254e-08
-1.18167e-06
-7.23717e-08
-1.20378e-06
-2.07911e-07
-1.26096e-06
-3.64892e-07
-5.20427e-07
-1.35833e-06
9.0539e-08
2.8827e-06
1.46782e-07
2.82046e-06
1.71546e-07
2.64156e-06
1.70805e-07
2.42192e-06
1.44145e-07
2.17834e-06
8.69026e-08
1.92251e-06
-4.36391e-09
1.67126e-06
-1.09648e-07
1.44882e-06
-2.12231e-07
1.25588e-06
-3.13642e-07
1.07636e-06
-4.16859e-07
9.04405e-07
-5.24299e-07
7.40188e-07
-6.37063e-07
5.8698e-07
-7.53117e-07
4.50595e-07
-8.64408e-07
3.38017e-07
-9.56955e-07
2.52646e-07
-1.01937e-06
1.87156e-07
-1.05292e-06
1.23818e-07
-1.07021e-06
4.54058e-08
-1.08674e-06
-5.57409e-08
-1.11664e-06
-1.77901e-07
-1.1699e-06
-3.1152e-07
-4.41176e-07
-1.24903e-06
8.91893e-08
2.79347e-06
1.45e-07
2.76459e-06
1.66415e-07
2.62009e-06
1.63239e-07
2.42505e-06
1.35913e-07
2.20562e-06
8.25311e-08
1.97585e-06
4.77675e-09
1.74898e-06
-8.53553e-08
1.53893e-06
-1.77183e-07
1.3477e-06
-2.6937e-07
1.16855e-06
-3.63171e-07
9.98218e-07
-4.59644e-07
8.36684e-07
-5.58707e-07
6.86077e-07
-6.57967e-07
5.49901e-07
-7.51577e-07
4.31685e-07
-8.3104e-07
3.32177e-07
-8.89973e-07
2.46165e-07
-9.29196e-07
1.63126e-07
-9.56471e-07
7.27716e-08
-9.8217e-07
-2.99433e-08
-1.016e-06
-1.43965e-07
-1.06454e-06
-2.62866e-07
-3.76515e-07
-1.12908e-06
8.34453e-08
2.70999e-06
1.34449e-07
2.71352e-06
1.52767e-07
2.60172e-06
1.49085e-07
2.42867e-06
1.24128e-07
2.23052e-06
7.79935e-08
2.02194e-06
1.33062e-08
1.81363e-06
-6.24272e-08
1.61464e-06
-1.42361e-07
1.42762e-06
-2.24323e-07
1.25051e-06
-3.08066e-07
1.08197e-06
-3.93544e-07
9.22188e-07
-4.79967e-07
7.72537e-07
-5.65057e-07
6.35039e-07
-6.44665e-07
5.11351e-07
-7.13613e-07
4.01195e-07
-7.68334e-07
3.00964e-07
-8.09466e-07
2.04344e-07
-8.41821e-07
1.05221e-07
-8.72146e-07
4.83137e-10
-9.06851e-07
-1.0915e-07
-9.50184e-07
-2.19418e-07
-3.23784e-07
-1.00279e-06
7.48796e-08
2.63508e-06
1.14666e-07
2.67366e-06
1.33242e-07
2.58308e-06
1.31922e-07
2.42993e-06
1.11919e-07
2.25047e-06
7.43675e-08
2.05945e-06
2.18684e-08
1.8661e-06
-4.06903e-08
1.67718e-06
-1.08739e-07
1.49566e-06
-1.79967e-07
1.32174e-06
-2.53319e-07
1.15534e-06
-3.28019e-07
9.96913e-07
-4.02886e-07
8.47441e-07
-4.75895e-07
7.08097e-07
-5.44096e-07
5.79611e-07
-6.04262e-07
4.6143e-07
-6.54355e-07
3.51135e-07
-6.94855e-07
2.44929e-07
-7.28756e-07
1.39215e-07
-7.60339e-07
3.21651e-08
-7.93729e-07
-7.5655e-08
-8.3158e-07
-1.8146e-07
-2.81076e-07
-8.74171e-07
6.31989e-08
2.57184e-06
9.45347e-08
2.64226e-06
1.13539e-07
2.56401e-06
1.1557e-07
2.42785e-06
1.01464e-07
2.26453e-06
7.25803e-08
2.08829e-06
3.11328e-08
1.90751e-06
-1.95611e-08
1.72785e-06
-7.62969e-08
1.55238e-06
-1.36926e-07
1.38237e-06
-2.00043e-07
1.21847e-06
-2.64475e-07
1.06137e-06
-3.28872e-07
9.11871e-07
-3.91463e-07
7.7073e-07
-4.50086e-07
6.38286e-07
-5.02638e-07
5.14042e-07
-5.47882e-07
3.96447e-07
-5.86126e-07
2.83248e-07
-6.19207e-07
1.72376e-07
-6.49785e-07
6.28289e-08
-6.80425e-07
-4.4927e-08
-7.12728e-07
-1.49067e-07
-2.46962e-07
-7.46747e-07
4.69095e-08
2.52489e-06
7.88288e-08
2.61027e-06
9.77118e-08
2.54508e-06
1.02577e-07
2.42294e-06
9.40937e-08
2.27297e-06
7.32507e-08
2.1091e-06
4.16428e-08
1.93909e-06
1.52255e-09
1.76795e-06
-4.4793e-08
1.59869e-06
-9.54226e-08
1.43299e-06
-1.4887e-07
1.27192e-06
-2.03797e-07
1.11631e-06
-2.5881e-07
9.66907e-07
-3.1235e-07
8.24301e-07
-3.62755e-07
6.88729e-07
-4.08549e-07
5.59881e-07
-4.48896e-07
4.36843e-07
-4.83932e-07
3.18339e-07
-5.14736e-07
2.0324e-07
-5.42909e-07
9.10629e-08
-5.69982e-07
-1.77903e-08
-5.9687e-07
-1.22118e-07
-2.20282e-07
-6.23485e-07
3.167e-08
2.49318e-06
6.72805e-08
2.57461e-06
8.55874e-08
2.52673e-06
9.31071e-08
2.41538e-06
8.99796e-08
2.27607e-06
7.65405e-08
2.12251e-06
5.37058e-08
1.9619e-06
2.29616e-08
1.79867e-06
-1.39807e-08
1.63562e-06
-5.55009e-08
1.47451e-06
-1.00132e-07
1.31655e-06
-1.46496e-07
1.16268e-06
-1.93217e-07
1.01364e-06
-2.38898e-07
8.69998e-07
-2.82181e-07
7.32033e-07
-3.21937e-07
5.99661e-07
-3.57506e-07
4.7244e-07
-3.88872e-07
3.49735e-07
-4.16611e-07
2.31011e-07
-4.41629e-07
1.16115e-07
-4.64792e-07
5.40651e-09
-4.86569e-07
-1.00309e-07
-2.00024e-07
-5.06795e-07
2.26003e-08
2.47054e-06
5.55764e-08
2.54159e-06
7.4975e-08
2.5073e-06
8.62252e-08
2.4041e-06
8.88092e-08
2.27346e-06
8.24461e-08
2.12885e-06
6.75298e-08
1.9768e-06
4.50584e-08
1.82113e-06
1.6368e-08
1.6643e-06
-1.71118e-08
1.50798e-06
-5.39698e-08
1.3534e-06
-9.28353e-08
1.20154e-06
-1.32373e-07
1.05318e-06
-1.71295e-07
9.08923e-07
-2.08428e-07
7.6917e-07
-2.42822e-07
6.34061e-07
-2.73891e-07
5.03516e-07
-3.01485e-07
3.77337e-07
-3.25845e-07
2.55379e-07
-3.47431e-07
1.37708e-07
-3.66681e-07
2.46637e-08
-3.83788e-07
-8.31963e-08
-1.85257e-07
-3.98552e-07
1.92803e-08
2.45124e-06
4.35095e-08
2.51735e-06
6.5622e-08
2.48517e-06
8.2018e-08
2.38769e-06
9.08336e-08
2.26463e-06
9.12762e-08
2.1284e-06
8.34565e-08
1.98461e-06
6.81439e-08
1.83643e-06
4.64989e-08
1.68593e-06
1.98564e-08
1.53461e-06
-1.04051e-08
1.38366e-06
-4.29275e-08
1.23405e-06
-7.64083e-08
1.08665e-06
-1.09635e-07
9.42141e-07
-1.41537e-07
8.01063e-07
-1.7126e-07
6.63776e-07
-1.98237e-07
5.30484e-07
-2.22216e-07
4.01306e-07
-2.43218e-07
2.7637e-07
-2.61419e-07
1.55897e-07
-2.76992e-07
4.02241e-08
-2.89968e-07
-7.02364e-08
-1.75106e-07
-3.00136e-07
1.56718e-08
2.43556e-06
3.39081e-08
2.4991e-06
5.98762e-08
2.4592e-06
8.21315e-08
2.36543e-06
9.71661e-08
2.24959e-06
1.03792e-07
2.12176e-06
1.02033e-07
1.98636e-06
9.26179e-08
1.84584e-06
7.66813e-08
1.70186e-06
5.55486e-08
1.55573e-06
3.0603e-08
1.40859e-06
3.20287e-09
1.26144e-06
-2.53694e-08
1.11521e-06
-5.39476e-08
9.70704e-07
-8.15239e-08
8.28623e-07
-1.07294e-07
6.89527e-07
-1.30691e-07
5.53861e-07
-1.51394e-07
4.21987e-07
-1.69284e-07
2.94238e-07
-1.84364e-07
1.70953e-07
-1.96653e-07
5.24879e-08
-2.06091e-07
-6.08262e-08
-1.68747e-07
-2.12479e-07
9.69178e-09
2.42586e-06
2.98134e-08
2.47899e-06
6.09899e-08
2.42803e-06
8.88627e-08
2.33756e-06
1.09286e-07
2.22917e-06
1.20935e-07
2.11012e-06
1.23864e-07
1.98343e-06
1.18871e-07
1.85083e-06
1.07153e-07
1.71357e-06
9.00912e-08
1.57279e-06
6.91037e-08
1.42957e-06
4.55635e-08
1.28497e-06
2.07426e-08
1.14001e-06
-4.22472e-09
9.95653e-07
-2.83724e-08
8.52751e-07
-5.09282e-08
7.12061e-07
-7.13282e-08
5.74237e-07
-8.92101e-08
4.39843e-07
-1.04377e-07
3.09377e-07
-1.16736e-07
1.83283e-07
-1.26225e-07
6.19457e-08
-1.32743e-07
-5.43398e-08
-1.65407e-07
-1.36117e-07
7.54566e-09
2.41832e-06
3.59837e-08
2.45056e-06
7.18326e-08
2.39219e-06
1.04008e-07
2.3054e-06
1.28324e-07
2.20486e-06
1.43412e-07
2.09503e-06
1.49378e-07
1.97747e-06
1.47142e-07
1.85306e-06
1.38033e-07
1.72268e-06
1.23526e-07
1.58729e-06
1.051e-07
1.44798e-06
8.41501e-08
1.30591e-06
6.1938e-08
1.16221e-06
3.9569e-08
1.01801e-06
1.79717e-08
8.74329e-07
-2.11271e-09
7.32124e-07
-2.01333e-08
5.92234e-07
-3.57147e-08
4.55398e-07
-4.86268e-08
3.22261e-07
-5.8736e-08
1.93363e-07
-6.59491e-08
6.91287e-08
-7.0163e-08
-5.01565e-08
-1.64365e-07
-7.12366e-08
1.82293e-08
2.4001e-06
5.30552e-08
2.41576e-06
9.24267e-08
2.35283e-06
1.27645e-07
2.27019e-06
1.54452e-07
2.17806e-06
1.71366e-07
2.07813e-06
1.78627e-07
1.97021e-06
1.77399e-07
1.85429e-06
1.6923e-07
1.73085e-06
1.55748e-07
1.60077e-06
1.38504e-07
1.46522e-06
1.18913e-07
1.32549e-06
9.82183e-08
1.18289e-06
7.74872e-08
1.03872e-06
5.76037e-08
8.94196e-07
3.92696e-08
7.50439e-07
2.30099e-08
6.08473e-07
9.18738e-09
4.69198e-07
-1.96887e-09
3.33393e-07
-1.03245e-08
2.01693e-07
-1.57933e-08
7.45715e-08
-1.8294e-08
-4.76822e-08
-1.64965e-07
-1.77222e-08
3.46366e-08
2.36548e-06
7.62849e-08
2.37413e-06
1.20151e-07
2.30898e-06
1.58534e-07
2.23182e-06
1.87094e-07
2.14951e-06
2.04431e-07
2.0608e-06
2.11263e-07
1.96339e-06
2.09279e-07
1.85628e-06
2.00403e-07
1.73972e-06
1.86467e-07
1.6147e-06
1.69107e-07
1.48258e-06
1.49738e-07
1.34485e-06
1.29567e-07
1.20306e-06
1.09601e-07
1.05868e-06
9.06663e-08
9.13118e-07
7.34125e-08
7.67679e-07
5.83234e-08
6.23546e-07
4.57308e-08
4.81773e-07
3.58368e-08
3.43268e-07
2.87469e-08
2.08763e-07
2.45122e-08
7.87857e-08
2.31733e-08
-4.63637e-08
-1.66606e-07
2.47933e-08
4.89115e-08
2.31657e-06
1.02253e-07
2.3208e-06
1.53027e-07
2.25822e-06
1.95628e-07
2.18923e-06
2.25604e-07
2.11955e-06
2.41985e-07
2.04442e-06
2.46599e-07
1.95878e-06
2.42086e-07
1.8608e-06
2.30923e-07
1.75089e-06
2.15187e-07
1.63044e-06
1.9657e-07
1.50119e-06
1.7645e-07
1.36497e-06
1.55955e-07
1.22355e-06
1.36009e-07
1.07862e-06
1.1736e-07
9.31759e-07
1.00591e-07
7.84437e-07
8.61363e-08
6.37989e-07
7.42821e-08
4.93615e-07
6.51868e-08
3.5235e-07
5.89062e-08
2.1503e-07
5.54343e-08
8.22431e-08
5.47542e-08
-4.5698e-08
-1.68751e-07
5.6884e-08
6.74271e-08
2.24916e-06
1.32066e-07
2.25618e-06
1.91071e-07
2.19922e-06
2.38788e-07
2.14152e-06
2.69568e-07
2.08878e-06
2.83199e-07
2.0308e-06
2.83552e-07
1.95843e-06
2.74725e-07
1.86963e-06
2.59857e-07
1.76576e-06
2.41211e-07
1.64909e-06
2.20448e-07
1.52196e-06
1.98834e-07
1.38658e-06
1.7737e-07
1.24501e-06
1.56861e-07
1.09912e-06
1.37959e-07
9.50656e-07
1.21175e-07
8.01215e-07
1.06886e-07
6.52272e-07
9.53294e-08
5.05163e-07
8.66129e-08
3.61058e-07
8.0729e-08
2.20905e-07
7.75972e-08
8.53658e-08
7.71267e-08
-4.52364e-08
-1.70919e-07
7.92858e-08
8.90795e-08
2.16009e-06
1.67645e-07
2.17762e-06
2.35401e-07
2.13148e-06
2.88755e-07
2.08818e-06
3.18412e-07
2.05913e-06
3.26646e-07
2.02257e-06
3.20373e-07
1.96471e-06
3.05592e-07
1.88441e-06
2.85949e-07
1.78541e-06
2.63672e-07
1.67137e-06
2.40233e-07
1.5454e-06
2.16689e-07
1.41013e-06
1.93853e-07
1.26784e-06
1.72388e-07
1.12059e-06
1.52838e-07
9.70205e-07
1.3564e-07
8.1841e-07
1.21119e-07
6.66789e-07
1.09473e-07
5.16806e-07
1.0076e-07
3.69766e-07
9.49077e-08
2.26753e-07
9.17459e-08
8.8523e-08
9.10916e-08
-4.45865e-08
-1.72688e-07
9.28561e-08
1.22677e-07
2.03742e-06
2.16425e-07
2.08388e-06
2.91444e-07
2.05646e-06
3.45439e-07
2.03419e-06
3.70577e-07
2.034e-06
3.69287e-07
2.02387e-06
3.54192e-07
1.97981e-06
3.32485e-07
1.90613e-06
3.07691e-07
1.8102e-06
2.81652e-07
1.69741e-06
2.55471e-07
1.57158e-06
2.29912e-07
1.43569e-06
2.05571e-07
1.29219e-06
1.82955e-07
1.1432e-06
1.62503e-07
9.90657e-07
1.44588e-07
8.36324e-07
1.29502e-07
6.81875e-07
1.17419e-07
5.28888e-07
1.08371e-07
3.78814e-07
1.02225e-07
2.32896e-07
9.87155e-08
9.20317e-08
9.75396e-08
-4.34118e-08
-1.73692e-07
9.8542e-08
1.88619e-07
1.8488e-06
2.98038e-07
1.97447e-06
3.7129e-07
1.98322e-06
4.07126e-07
1.99836e-06
4.18609e-07
2.02252e-06
4.05448e-07
2.03703e-06
3.81073e-07
2.00419e-06
3.52954e-07
1.93425e-06
3.23673e-07
1.83949e-06
2.94444e-07
1.72664e-06
2.65938e-07
1.60009e-06
2.38621e-07
1.46301e-06
2.12887e-07
1.31792e-06
1.89102e-07
1.16699e-06
1.6762e-07
1.01214e-06
1.4877e-07
8.55176e-07
1.3283e-07
6.97817e-07
1.19987e-07
5.41733e-07
1.10277e-07
3.88524e-07
1.03541e-07
2.39634e-07
9.94097e-08
9.61636e-08
9.74295e-08
-4.14306e-08
-1.73621e-07
9.73594e-08
2.95577e-07
1.55323e-06
4.25408e-07
1.84464e-06
4.6996e-07
1.93867e-06
4.73349e-07
1.99497e-06
4.58406e-07
2.03746e-06
4.30771e-07
2.06467e-06
3.98624e-07
2.03634e-06
3.65743e-07
1.96713e-06
3.33353e-07
1.87188e-06
3.01966e-07
1.75803e-06
2.71863e-07
1.63019e-06
2.43271e-07
1.4916e-06
2.16426e-07
1.34477e-06
1.9159e-07
1.19183e-06
1.6905e-07
1.03468e-06
1.49109e-07
8.75119e-07
1.32057e-07
7.14871e-07
1.18125e-07
5.55666e-07
1.07412e-07
3.99239e-07
9.97813e-08
2.47267e-07
9.47842e-08
1.01163e-07
9.17682e-08
-3.84124e-08
-1.72229e-07
9.03788e-08
4.28242e-07
1.12499e-06
5.73607e-07
1.69928e-06
5.7484e-07
1.93744e-06
5.39502e-07
2.03031e-06
4.90087e-07
2.08688e-06
4.46696e-07
2.10806e-06
4.07978e-07
2.07506e-06
3.71746e-07
2.00337e-06
3.37506e-07