/*--------------------------------*- C++ -*----------------------------------*\
  =========                 |
  \\      /  F ield         | OpenFOAM: The Open Source CFD Toolbox
   \\    /   O peration     | Website:  https://openfoam.org
    \\  /    A nd           | Version:  9
     \\/     M anipulation  |
\*---------------------------------------------------------------------------*/
FoamFile
{
    format      ascii;
    class       volScalarField;
    location    "1.89";
    object      p_rgh;
}
// * * * * * * * * * * * * * * * * * * * * * * * * * * * * * * * * * * * * * //

dimensions      [1 -1 -2 0 0 0 0];

internalField   nonuniform List<scalar> 
2268
(
738.932
738.93
739.663
740.795
742.119
743.585
745.133
746.73
748.332
749.89
751.362
752.715
753.931
755.018
756.022
757.02
758.126
759.296
760.256
762.99
767.04
769.706
771.627
738.995
738.798
739.362
740.396
741.677
743.134
744.701
746.332
747.975
749.58
751.106
752.523
753.825
755.035
756.214
757.475
758.955
760.608
761.911
764.362
768.021
769.435
771.032
738.938
738.897
739.219
740.103
741.292
742.705
744.263
745.909
747.582
749.23
750.809
752.295
753.686
755.017
756.369
757.872
759.677
762.247
762.668
764.945
768.225
769.249
771.572
738.779
738.905
739.138
739.902
741
742.357
743.895
745.546
747.244
748.928
750.553
752.095
753.556
754.969
756.42
758.047
759.993
762.645
764.702
764.463
767.785
768.669
771.798
738.535
738.816
739.042
739.72
740.75
742.063
743.583
745.243
746.969
748.689
750.356
751.945
753.452
754.903
756.372
757.993
759.893
762.304
765.527
767.172
767.621
768.281
772.54
738.201
738.603
738.867
739.498
740.488
741.775
743.292
744.972
746.735
748.5
750.209
751.84
753.38
754.835
756.262
757.779
759.496
761.529
763.995
765.584
765.754
767.518
773.446
737.783
738.268
738.592
739.211
740.188
741.467
742.993
744.705
746.519
748.336
750.091
751.76
753.323
754.757
756.09
757.433
758.86
760.429
762.131
763.016
762.69
765.611
773.624
737.294
737.842
738.227
738.856
739.839
741.12
742.658
744.408
746.281
748.152
749.941
751.637
753.207
754.58
755.744
756.82
757.84
758.856
759.741
759.659
758.12
760.299
777.207
679.916
679.036
695.41
710.453
721.23
728.321
732.184
735.353
743.058
757.424
775.833
794.332
810.156
822.558
832.401
842.299
849.997
854.663
859.744
679.315
674.718
690.394
705.238
716.965
725.352
727.43
729.44
738.29
756.294
777.484
796.301
811.997
824.671
833.758
842.795
850.794
854.042
859.26
677.818
673.607
688.649
702.032
713.79
723.129
731.795
729.208
733.526
747.918
775.287
798.206
813.831
826.542
834.808
843.766
854.158
856.184
861.69
675.814
673.476
688.75
701.431
712.844
722.581
732.045
743.133
733.301
746.704
768.5
799.36
815.535
828.99
835.478
846.369
855.652
857.249
862.862
673.7
675.178
690.555
702.49
713.276
723.123
733.057
744.814
739.616
744.745
758.75
797.28
817.128
832.291
840.027
851.277
856.977
851.347
854.474
671.99
680.458
693.822
704.279
714.274
724.11
734.41
745.718
752.382
746.763
770.318
802.31
818.584
833.419
847.072
857.889
837.434
827.188
846.483
669.378
685.918
697.855
706.316
715.399
725.223
736.049
742.188
762.01
781.184
795.6
805.868
819.892
834.408
848.236
861.049
833.585
827.982
847.72
657.594
690.702
701.192
707.134
715.661
725.663
738.337
734.391
711.334
749.724
790.361
804.07
821.205
835.342
849.522
864.745
874.219
848.592
872.29
736.517
737.11
737.493
738.151
739.182
740.495
742.072
743.909
745.913
747.882
749.712
751.44
753.016
754.241
754.988
755.387
755.644
755.731
755.31
753.452
749.222
743.108
734.658
683.942
682.874
683.749
685.599
689.143
694.509
700.941
708.139
715.811
722.694
728.704
734.115
738.928
742.946
745.935
747.929
748.982
749.03
747.69
744.044
736.429
722.225
697.65
160.827
163.634
164.904
168.698
175.476
184.508
195.323
208.19
222.984
237.954
251.977
265.135
277.862
290.054
300.597
309.452
317.571
324.343
326.931
318.769
296.438
254.99
191.571
0.419173
0.469671
0.494739
0.423463
0.527743
0.894767
1.23826
1.24837
1.08977
1.17664
1.43313
1.51137
1.29931
1.40795
2.34265
3.17044
3.31764
2.77706
1.93505
1.36059
1.24469
1.98546
3.52784
0.471241
1.54264
2.06165
0.947983
0.586192
1.16098
4.31034
5.57278
2.30534
1.22808
1.73136
4.29716
5.11025
2.5382
2.99113
7.33854
11.0325
11.6539
8.71974
6.10815
5.28872
4.29621
4.25286
0.614938
2.09057
2.09293
1.40143
2.50611
5.44194
5.50013
5.69165
5.77848
3.92809
5.95358
6.63454
4.89764
6.43541
12.2154
12.3522
12.5356
12.6442
12.5949
12.4909
10.5218
3.73741
8.56091
0.398081
0.754963
0.391311
0.743734
1.25564
0.947854
0.624431
3.84786
6.73557
6.83854
6.83214
6.76635
3.49774
1.43738
7.47017
12.4047
12.8488
12.7485
6.51717
1.44488
1.21728
11.2939
26.2327
0.247962
0.310193
0.111726
0.108642
0.117267
0.0598911
0.0542832
0.0318028
0.636561
2.52742
3.15133
1.03821
0.0554356
0.0298008
0.0098657
0.0303953
0.730485
0.574217
0.106945
0.161491
0.201267
0.865592
13.0678
0.150802
0.116166
0.0976888
0.0815931
0.0627607
0.0479239
0.036297
0.0232483
0.00598486
-0.0136527
-0.0210561
-0.00543988
0.0192786
0.0295474
0.0213242
0.0265611
0.035084
0.0488443
0.0768884
0.11259
0.119983
0.0782052
0.0375692
0.0994969
0.0948548
0.0876188
0.0735107
0.0592645
0.0463301
0.0343756
0.0218691
0.0103019
-0.00174729
-0.00468356
0.00315022
0.0158443
0.0233336
0.0233183
0.027963
0.0365955
0.0500123
0.0787474
0.116658
0.117314
0.0971395
0.135999
0.0839751
0.081852
0.07919
0.0662981
0.0550951
0.0444182
0.034139
0.0247841
0.0161862
0.00738848
0.00561573
0.00960016
0.0160135
0.020918
0.023999
0.0294889
0.0373896
0.0477876
0.0595676
0.0681516
0.0673763
0.055037
0.0806602
0.0714498
0.0709018
0.0698759
0.0594994
0.0507777
0.0422113
0.0338307
0.0263737
0.0192614
0.0137473
0.0119774
0.0136209
0.0170221
0.0204939
0.0240105
0.0290438
0.0354733
0.0429019
0.050137
0.054553
0.0535549
0.0475631
0.0654026
0.0614812
0.0615575
0.0607526
0.0532568
0.0468068
0.0400733
0.0333372
0.0269204
0.0214497
0.0176245
0.015899
0.0162895
0.0180958
0.0205485
0.0235602
0.0275937
0.0324632
0.0376609
0.0422675
0.0449697
0.04456
0.0440604
0.0434154
0.0535322
0.0537614
0.0515396
0.0478833
0.0432069
0.0380161
0.0327144
0.0276673
0.023329
0.0201522
0.0184217
0.0181476
0.0190083
0.0206327
0.0229069
0.0259086
0.0294276
0.0330238
0.0360432
0.0377561
0.0378392
0.0361797
0.0337121
0.0470781
0.0471768
0.0459282
0.0434072
0.0399775
0.0360352
0.0319184
0.0279444
0.0244566
0.0217726
0.020096
0.0194583
0.0197146
0.0206743
0.0222305
0.0243259
0.02676
0.0291932
0.0311857
0.0322925
0.0322847
0.0313582
0.0301245
0.0417965
0.041961
0.0412865
0.0395924
0.0371199
0.034166
0.0309976
0.0278735
0.0250558
0.0227785
0.0211997
0.0203679
0.0202252
0.0206692
0.0216117
0.0229626
0.0245517
0.0261294
0.027401
0.0280987
0.0280976
0.0274987
0.0265865
0.0374759
0.0377013
0.0374444
0.0363723
0.0346333
0.0324499
0.0300291
0.0275761
0.0252929
0.0233582
0.0218995
0.020973
0.0205648
0.0206197
0.0210701
0.0218311
0.0227692
0.023705
0.0244383
0.0247959
0.024693
0.0241655
0.0233337
0.0339529
0.0342314
0.0343017
0.0336974
0.0325134
0.0309206
0.0290794
0.0271506
0.0252917
0.0236422
0.0223067
0.0213422
0.0207568
0.0205227
0.0205914
0.0208942
0.0213312
0.0217746
0.0220862
0.0221466
0.0218881
0.021308
0.0204442
0.0311005
0.0314452
0.0317801
0.0315247
0.0307522
0.0296018
0.0281993
0.0266712
0.0251421
0.0237227
0.0224995
0.0215259
0.0208206
0.0203727
0.0201494
0.0200994
0.0201497
0.0202095
0.0201817
0.0199796
0.0195456
0.0188574
0.0179118
0.0288192
0.0292615
0.0298136
0.0298123
0.0293346
0.0285041
0.0274221
0.0261902
0.0249084
0.023666
0.0225347
0.021563
0.0207738
0.020166
0.0197197
0.019398
0.0191484
0.0189064
0.0186021
0.0181707
0.0175629
0.0167479
0.0157036
0.0270209
0.0276094
0.0283351
0.0285104
0.0282327
0.0276216
0.0267623
0.0257387
0.0246327
0.0235179
0.0224541
0.0214842
0.0206319
0.0199021
0.0192838
0.0187517
0.0182686
0.017788
0.017259
0.0166319
0.0158648
0.0149253
0.0137843
0.0256155
0.0264075
0.0272625
0.0275523
0.0274001
0.0269284
0.0262133
0.0253263
0.0243368
0.0233062
0.0222853
0.0213117
0.0204082
0.0195828
0.0188306
0.0181351
0.0174698
0.0168012
0.0160914
0.0153018
0.0143972
0.0133471
0.0121213
0.0244995
0.0255418
0.0264878
0.0268476
0.0267679
0.0263768
0.0257465
0.0249413
0.0240218
0.0230408
0.022042
0.0210584
0.0201111
0.0192098
0.0183533
0.0175311
0.0167247
0.0159095
0.0150569
0.0141366
0.0131193
0.0119779
0.0106843
0.0235544
0.0248623
0.0258758
0.0262831
0.026246
0.0258983
0.0253134
0.0245525
0.0236707
0.0227149
0.0217237
0.0207261
0.0197419
0.018781
0.0178445
0.0169261
0.0160126
0.0150857
0.0141235
0.0131022
0.0119975
0.0107864
0.00944425
0.0226603
0.024204
0.0252789
0.0257332
0.0257311
0.0254109
0.0248518
0.0241148
0.0232527
0.0223091
0.0213187
0.0203081
0.0192953
0.0182902
0.0172955
0.0163071
0.0153158
0.0143076
0.0132656
0.0121708
0.0110034
0.00974422
0.00837235
0.0217181
0.0234282
0.0245679
0.0250825
0.0251231
0.0248319
0.0242957
0.0235781
0.0227313
0.0217976
0.0208098
0.0197924
0.0187623
0.0177293
0.0166966
0.0156622
0.0146192
0.0135568
0.0124618
0.0113189
0.0101119
0.00882514
0.00744143
0.0206695
0.0224595
0.0236627
0.02425
0.0243456
0.024094
0.0235892
0.0228976
0.0220726
0.0211559
0.0201794
0.0191667
0.0181338
0.0170902
0.0160398
0.0149816
0.0139106
0.0128185
0.0116945
0.0105265
0.00930117
0.00800588
0.00662676
0.0194967
0.0212909
0.0225429
0.0232022
0.0233594
0.0231583
0.0226971
0.0220443
0.0212536
0.020367
0.0194157
0.0184227
0.0174035
0.0163675
0.0153191
0.0142581
0.0131809
0.012081
0.0109498
0.00977735
0.00855302
0.00726659
0.0059071
0.0182069
0.0199557
0.0212311
0.0219469
0.0221628
0.0220179
0.0216109
0.0210097
0.0202677
0.0194261
0.0185156
0.0175586
0.0165702
0.0155598
0.014532
0.0134875
0.0124239
0.011336
0.0102169
0.0090588
0.00785293
0.00659124
0.00526524
0.0168184
0.018496
0.0197672
0.0205168
0.0207812
0.0206924
0.0203453
0.0198055
0.0191242
0.0183411
0.017486
0.0165803
0.0156385
0.0146701
0.0136799
0.0126694
0.0116367
0.0105783
0.00948876
0.00836159
0.00718991
0.00596741
0.00468765
0.0153538
0.016948
0.0181918
0.0189527
0.0192527
0.0192153
0.0189294
0.0184563
0.0178439
0.0171298
0.0163419
0.0155002
0.0146186
0.0137062
0.0127679
0.0118058
0.0108195
0.00980594
0.0087609
0.00767937
0.00655587
0.00538556
0.00416366
0.0138373
0.0153407
0.0165391
0.0172925
0.0176157
0.0176231
0.0173963
0.0169915
0.0164527
0.0158146
0.0151026
0.0143351
0.0135244
0.012679
0.0118044
0.0109031
0.00997528
0.00901903
0.00803121
0.0070079
0.00594479
0.00483818
0.00368459
0.0122925
0.0136968
0.0148352
0.0155661
0.0159018
0.0159469
0.0157754
0.0154382
0.0149755
0.0144182
0.013789
0.0131032
0.0123715
0.0116016
0.0107993
0.00996776
0.00910806
0.00821922
0.00729901
0.00634442
0.00535207
0.00431915
0.00324315
0.0107402
0.0120351
0.0130997
0.0137954
0.0141339
0.0142098
0.0140894
0.0138188
0.0134339
0.0129618
0.0124211
0.0118235
0.0111768
0.0104878
0.00976331
0.00900768
0.00822293
0.00740903
0.00656449
0.00568706
0.00477407
0.00382334
0.00283306
0.00919859
0.0103712
0.011348
0.0119965
0.0123287
0.012429
0.0123562
0.0121517
0.0118471
0.011465
0.0110189
0.0105154
0.00995785
0.00935229
0.00870778
0.00803095
0.00732516
0.0065912
0.00582822
0.00503444
0.00420773
0.00334629
0.00244875
0.00768345
0.00871954
0.00959362
0.010183
0.0105004
0.0106195
0.0105919
0.0104541
0.0102334
0.00994733
0.00960337
0.00920047
0.00873422
0.00821027
0.00764374
0.00704516
0.00641951
0.0057682
0.00509064
0.00438529
0.00365024
0.00288392
0.00208516
0.00620972
0.00709364
0.00785068
0.00837052
0.00866582
0.00879913
0.00881476
0.00874469
0.0086119
0.00842893
0.00819659
0.00790285
0.0075278
0.0070771
0.00658093
0.00605622
0.00550923
0.00494126
0.00435136
0.00373776
0.0030985
0.00243203
0.00173729
0.00479294
0.00550934
0.0061378
0.00658097
0.00684823
0.00699078
0.00704648
0.00704331
0.00700067
0.00692747
0.00681888
0.00664806
0.00636142
0.00596527
0.00552498
0.00506615
0.00459437
0.00410916
0.00360814
0.00308866
0.0025484
0.00198571
0.00139966
0.00345171
0.00399048
0.0044844
0.00484568
0.00507734
0.00522096
0.00530948
0.00536762
0.00541262
0.00545305
0.00548398
0.00546333
0.00525891
0.00487999
0.00447392
0.00407197
0.00367217
0.00326931
0.00285827
0.00243488
0.00199621
0.00154054
0.00106691
0.00221089
0.00257028
0.00292197
0.00318499
0.00336284
0.00349265
0.00360363
0.00371749
0.00385094
0.00401828
0.00423185
0.00444518
0.0043033
0.00383667
0.00342212
0.00307066
0.00274404
0.00242533
0.00210606
0.00178049
0.00144524
0.00109865
0.00073914
0.00109913
0.00126106
0.00142992
0.00154782
0.00163792
0.00173729
0.00187004
0.00205374
0.00230644
0.00266107
0.00320235
0.00393407
0.00382498
0.00289642
0.0023585
0.00204937
0.0018025
0.00157316
0.00134895
0.0011233
0.000893069
0.000657399
0.000417194
0.000105361
9.06052e-05
6.09852e-05
3.1826e-05
3.72895e-05
0.000101161
0.000235659
0.000450122
0.000760206
0.0012287
0.00209884
0.00369363
0.00383535
0.00184505
0.00111659
0.000844019
0.000681965
0.00055319
0.000435582
0.000320514
0.000205636
9.14227e-05
-1.95071e-05
716.012
710.424
707.6
702.79
661.078
625.733
586.787
546.258
129.613
84.0527
32.479
5.73705
4.87347
5.58919
5.96723
5.99974
8.74403
9.82624
7.418
6.09852
25.4111
25.7383
26.1866
26.3776
26.6472
26.7958
26.7557
26.3724
28.2462
28.1067
15.867
5.25282
0.0700406
0.0733818
0.0621993
0.0641773
0.124006
0.0414905
0.0462115
0.0534508
0.20208
0.163325
0.0467307
0.0492247
0.112961
0.0526433
0.0413702
0.0428484
0.0364155
0.036634
0.037209
0.0377886
0.0332476
0.033082
0.033037
0.0330444
0.0295593
0.0291915
0.0288192
0.0283972
0.0259197
0.0254175
0.0248571
0.0242293
0.0225774
0.0219849
0.02131
0.0205711
0.0196091
0.0189525
0.0182017
0.0173924
0.0170052
0.0163002
0.0154986
0.0146381
0.0147327
0.0139907
0.0131561
0.0122677
0.0127586
0.0119901
0.0111363
0.0102356
0.0110529
0.0102678
0.00940625
0.00850441
0.00958664
0.00879453
0.00793487
0.00704078
0.00833062
0.00754003
0.00669051
0.00581144
0.00725521
0.0064735
0.00564098
0.00478299
0.00633179
0.00556515
0.00475521
0.00392336
0.00553435
0.00478799
0.0040052
0.00320364
0.0048407
0.00411911
0.00336718
0.0025993
0.00423296
0.00354005
0.00282208
0.00209059
0.00369706
0.00303637
0.00235498
0.00166212
0.00322181
0.00259662
0.00195423
0.001302
0.002798
0.00221147
0.00161045
0.00100081
0.00241779
0.00187298
0.00131576
0.00075077
0.00207436
0.00157419
0.00106323
0.000545143
0.00176162
0.00130887
0.000846675
0.000377871
0.00147401
0.00107132
0.000660396
0.00024339
0.00120621
0.000856096
0.000498951
0.000136339
0.000952552
0.000657554
0.000356694
5.11203e-05
0.000706613
0.000469126
0.00022712
-1.85511e-05
0.000463926
0.000284513
0.000103834
-7.76044e-05
0.000239804
0.000123283
5.29019e-06
-0.000113533
-9.35118e-05
-0.000141796
-0.00019036
-0.000238685
683.49
668.103
656.257
668.862
668.025
662.286
689.685
597.33
591.301
606.315
644.046
659.56
683.206
709.068
762.674
857.938
879.77
883.158
893.007
395.469
240.263
276.419
366.331
392.962
399.401
452.153
601.501
657.438
673.294
670.761
683.515
667.762
678.705
681.996
745.114
885.779
851.868
844.554
5.94694
6.74137
10.2142
27.5433
106.344
301.488
453.365
567.416
632.625
673.421
691.142
707.111
724.206
738.066
704.842
711.094
801.276
648.232
627.415
5.88115
5.91727
6.38238
22.1894
122.665
149.119
128.603
137.417
182.803
250.882
363.854
483.573
595.639
705.972
691.969
572.925
738.351
694.865
446.475
5.7057
5.79406
6.13952
35.4392
49.2596
19.7564
46.6658
58.8992
65.416
71.3735
66.364
74.4031
128.523
241.48
358.232
368.036
606.856
648.237
428.182
17.1812
6.93669
6.91858
20.3645
6.94935
8.33346
20.8324
16.8906
24.3062
39.1209
41.2391
12.28
9.84714
47.4243
83.9367
122.823
209.033
272.908
250.042
26.103
26.9405
22.3814
6.53118
6.42847
6.15025
5.87138
5.71522
5.36568
5.41726
5.71947
6.98299
9.06419
22.2459
43.7236
47.4131
25.8494
20.2242
43.9916
6.49176
13.7385
20.508
21.0109
18.5529
7.0677
8.35779
8.30099
5.20909
5.35076
8.00017
11.5322
8.95401
10.1294
10.7972
20.2187
24.8771
20.6484
15.4656
0.050193
0.00442783
0.97531
7.15833
12.9732
13.503
13.485
8.25739
3.55136
11.3612
12.2058
12.2814
12.3104
12.1857
8.4004
2.61261
1.77785
1.6156
2.72359
0.0675301
0.0797623
0.0770459
0.0534496
0.096462
0.677854
0.730535
1.22222
1.70561
4.33373
6.64762
8.7951
9.43174
9.03626
8.91093
2.87747
-0.129074
-0.151591
-0.0607995
0.0535076
0.0574163
0.0602437
0.0577875
0.0473741
0.0361888
0.0255015
0.0200837
0.0104144
-0.0340751
-0.0598316
-0.0958216
-0.12603
-0.146419
-0.166757
0.321059
-0.0448123
-0.135516
-0.0979363
0.0445376
0.0459872
0.0473211
0.0440062
0.0359988
0.0256182
0.0170032
0.0094451
-0.00201795
-0.0281094
-0.00280466
0.0393753
-0.0228862
-0.0557176
-0.0702746
-0.0246563
-0.0704117
-0.115235
-0.145045
0.042201
0.050103
0.046053
0.0317743
0.0247593
0.0175011
0.00930176
0.000319428
-0.0124661
-0.0135182
0.211073
0.19088
0.102273
-0.0075868
0.0339182
0.0934684
0.109815
0.0597613
-0.144203
0.0409523
0.0485325
0.0460628
0.0315619
0.0188046
0.0116579
0.00332716
-0.00640871
-0.016673
0.0450656
0.124505
0.0628083
-0.0867619
-0.0975838
0.0317543
0.143755
0.138689
0.076991
-0.128632
0.0331847
0.0436646
0.0409578
0.0369208
0.0147349
0.00662953
-0.00147985
-0.0102939
-0.00691113
-0.0260508
-0.0545457
-0.0670901
-0.0770115
-0.08676
-0.088326
-0.0187396
0.0171531
-0.0866714
-0.113864
0.0233342
0.0301255
0.0366734
0.0326728
0.0194259
0.00240507
-0.00495575
-0.0130277
-0.0241613
-0.0367604
-0.0487567
-0.0593105
-0.0682791
-0.0765435
-0.084459
-0.091339
-0.0954997
-0.0969992
-0.0991263
0.0191785
0.0167195
0.0208712
0.0260685
0.00951379
-0.000962295
-0.00777825
-0.015483
-0.0239163
-0.0337651
-0.0442422
-0.0532017
-0.0609062
-0.0678157
-0.0740052
-0.0790758
-0.0824348
-0.084397
-0.0872032
0.0159164
0.013416
0.010178
0.00623414
0.00171274
-0.0035295
-0.00965209
-0.016397
-0.0233599
-0.0315759
-0.0402465
-0.0483474
-0.0549509
-0.0607941
-0.0655821
-0.0687496
-0.0714643
-0.0742965
-0.0765906
0.0131158
0.0106127
0.00749053
0.00374848
-0.000581053
-0.00551674
-0.0110539
-0.0169022
-0.0229472
-0.0299622
-0.038023
-0.0444942
-0.0502456
-0.0553229
-0.0596603
-0.0619601
-0.0614059
-0.0499535
0.0053255
0.0107156
0.00823885
0.00522378
0.00166293
-0.00242447
-0.00706078
-0.01223
-0.0177091
-0.0227609
-0.0289009
-0.0357656
-0.04139
-0.0465123
-0.05109
-0.0550635
-0.0583518
-0.0599711
0.0260681
0.104353
0.00867818
0.00623991
0.00333514
-4.46664e-05
-0.00388162
-0.0081714
-0.0128813
-0.0179365
-0.0230306
-0.0276575
-0.0331115
-0.0386446
-0.0434421
-0.0476797
-0.0514884
-0.0548508
-0.0570145
0.0415382
0.114275
0.0069563
0.0045701
0.00178164
-0.00141647
-0.00500577
-0.00896905
-0.0132672
-0.0178316
-0.0225655
-0.0270934
-0.0312535
-0.0357938
-0.0407517
-0.0446898
-0.0483272
-0.0516706
-0.0543676
-0.0364098
0.124715
0.00551361
0.00319031
0.000522664
-0.00249525
-0.00584471
-0.00950347
-0.0134317
-0.0175677
-0.0218302
-0.0261228
-0.0301597
-0.0341754
-0.038185
-0.0418442
-0.0451972
-0.0482942
-0.0508035
-0.0530548
0.13244
0.00431481
0.00206303
-0.000480945
-0.0033219
-0.00644164
-0.00981692
-0.0134098
-0.0171657
-0.0210155
-0.0248802
-0.0286781
-0.0323346
-0.0357872
-0.0390104
-0.0419689
-0.044602
-0.0467565
-0.0484302
0.0424656
0.00332517
0.00115197
-0.00126696
-0.00393537
-0.00683622
-0.0099471
-0.0132331
-0.016646
-0.0201259
-0.0236052
-0.027014
-0.030285
-0.0333583
-0.0361773
-0.0386792
-0.0407624
-0.0422099
-0.0427038
0.0716141
0.00251165
0.000422863
-0.00187073
-0.00437181
-0.00706463
-0.00992832
-0.0129312
-0.0160303
-0.0191728
-0.0222991
-0.025346
-0.0282494
-0.0309452
-0.0333644
-0.0354212
-0.0369858
-0.0378142
-0.0375772
0.125894
0.00184434
-0.000155129
-0.00232391
-0.00466333
-0.00715886
-0.0097912
-0.0125316
-0.0153413
-0.0181731
-0.0209729
-0.0236817
-0.0262373
-0.0285728
-0.0306119
-0.0322587
-0.0333752
-0.033723
-0.0329933
0.136164
0.00129772
-0.000608319
-0.00265332
-0.00483706
-0.00714593
-0.00956194
-0.0120588
-0.0146012
-0.017146
-0.0196433
-0.0220374
-0.0242675
-0.0262658
-0.0279525
-0.0292279
-0.0299526
-0.0298952
-0.028753
0.143752
0.000851067
-0.000958027
-0.00288057
-0.0049147
-0.0070474
-0.00926164
-0.011533
-0.013829
-0.0161096
-0.0183282
-0.0204317
-0.0223612
-0.0240496
-0.0254174
-0.0263649
-0.0267523
-0.0263392
-0.0248003
0.151266
0.000488248
-0.00122077
-0.00302222
-0.00491265
-0.00687941
-0.00890612
-0.0109698
-0.01304
-0.0150792
-0.0170433
-0.0188816
-0.0205375
-0.0219466
-0.0230331
-0.0237034
-0.0238237
-0.0231489
-0.000971567
0.160197
0.000196933
-0.00140898
-0.00309045
-0.00484265
-0.00665319
-0.00850617
-0.0103796
-0.0122447
-0.0140657
-0.0158003
-0.0173999
-0.01881
-0.0199706
-0.0208131
-0.0212558
-0.0211856
-0.0203893
0.0188407
0.168579
-3.23822e-05
-0.00153199
-0.00309401
-0.00471264
-0.00637583
-0.00806812
-0.00976843
-0.0114491
-0.0130757
-0.0146068
-0.0159947
-0.0171862
-0.0181254
-0.0187525
-0.0189994
-0.0187795
-0.0179265
0.0108769
0.176486
-0.000207314
-0.00159695
-0.00303917
-0.00452768
-0.00605104
-0.00759456
-0.00913812
-0.0106551
-0.0121118
-0.0134667
-0.014671
-0.0156702
-0.0164105
-0.0168388
-0.0168955
-0.0165016
-0.0154902
-0.0136405
0.166411
-0.000334298
-0.00160962
-0.00293042
-0.00429059
-0.00567984
-0.00708476
-0.00848675
-0.00986053
-0.0111728
-0.0123812
-0.013433
-0.0142675
-0.0148303
-0.0150735
-0.014936
-0.0143208
-0.0130325
-0.0107541
0.0634296
-0.000419026
-0.00157479
-0.00277104
-0.00400253
-0.00526084
-0.00653484
-0.00780847
-0.00905878
-0.0102537
-0.0113492
-0.0122858
-0.012988
-0.013399
-0.0134828
-0.0131783
-0.0123574
-0.0107389
-0.00821741
0.150537
-0.000466693
-0.00149667
-0.0025634
-0.00366327
-0.00479056
-0.00593768
-0.00709293
-0.00823785
-0.00934377
-0.0103668
-0.0112364
-0.0118453
-0.0121323
-0.0120954
-0.0116916
-0.0108007
-0.00916215
-0.00658397
0.183636
-0.000482314
-0.00137925
-0.00230955
-0.00327177
-0.00426381
-0.00528312
-0.00632488
-0.00737895
-0.00842539
-0.00942575
-0.0102954
-0.0108548
-0.0110342
-0.0109065
-0.0104637
-0.00961484
-0.00812865
-0.00559936
0.189318
-0.000471183
-0.00122689
-0.00201179
-0.00282701
-0.00367455
-0.00455836
-0.0054835
-0.00645388
-0.00746755
-0.00850448
-0.00946881
-0.0100239
-0.0100789
-0.00985853
-0.00943097
-0.0087413
-0.00753159
-0.00504664
0.183115
-0.000438403
-0.00104364
-0.0016724
-0.00232782
-0.00301581
-0.00374721
-0.00453919
-0.00541524
-0.00640518
-0.00754167
-0.00874757
-0.00936137
-0.00920654
-0.00888701
-0.00853085
-0.00809402
-0.00733952
-0.00493277
0.148657
-0.000385336
-0.000830276
-0.00129124
-0.00177145
-0.0022789
-0.00282931
-0.00345021
-0.00418531
-0.00511988
-0.00646151
-0.00829947
-0.00920632
-0.00856825
-0.00804653
-0.00776016
-0.00765763
-0.00757077
-0.00526331
0.151205
-0.000315091
-0.000593701
-0.000875447
-0.00116438
-0.00146786
-0.00180209
-0.00219929
-0.00271933
-0.00353885
-0.00532206
-0.00927258
-0.0110348
-0.00904774
-0.00797775
-0.00768409
-0.0077995
-0.00929524
-0.00841695
0.144786
-0.000318798
-0.00041339
-0.000498465
-0.000577907
-0.000658613
-0.000757486
-0.000915721
-0.00122857
-0.00200753
-0.00473905
-0.0137581
-0.0144428
-0.0101477
-0.00808263
-0.00708393
-0.00765465
-0.0101992
-0.0127287
0.0370499
)
;

boundaryField
{
    leftWall
    {
        type            fixedFluxPressure;
        gradient        uniform 0;
        value           nonuniform List<scalar> 
50
(
738.932
738.995
738.938
738.779
738.535
738.201
737.783
737.294
736.517
683.942
160.827
0.419173
0.471241
0.614938
0.398081
0.247962
0.150802
0.0994969
0.0839751
0.0714498
0.0614812
0.0535322
0.0470781
0.0417965
0.0374759
0.0339529
0.0311005
0.0288192
0.0270209
0.0256155
0.0244995
0.0235544
0.0226603
0.0217181
0.0206695
0.0194967
0.0182069
0.0168184
0.0153538
0.0138373
0.0122925
0.0107402
0.00919859
0.00768345
0.00620972
0.00479294
0.00345171
0.00221089
0.00109913
0.000105361
)
;
    }
    rightWall
    {
        type            fixedFluxPressure;
        gradient        uniform 0;
        value           nonuniform List<scalar> 
50
(
859.744
859.26
861.69
862.862
854.474
846.483
847.72
872.29
893.007
844.554
627.415
446.475
428.182
250.042
43.9916
15.4656
2.72359
-0.0607995
-0.0979363
-0.145045
-0.144203
-0.128632
-0.113864
-0.0991263
-0.0872032
-0.0765906
0.0053255
0.104353
0.114275
0.124715
0.13244
0.0424656
0.0716141
0.125894
0.136164
0.143752
0.151266
0.160197
0.168579
0.176486
0.166411
0.0634296
0.150537
0.183636
0.189318
0.183115
0.148657
0.151205
0.144786
0.0370499
)
;
    }
    lowerWall
    {
        type            fixedFluxPressure;
        gradient        uniform 0;
        value           nonuniform List<scalar> 
62
(
738.932
738.93
739.663
740.795
742.119
743.585
745.133
746.73
748.332
749.89
751.362
752.715
753.931
755.018
756.022
757.02
758.126
759.296
760.256
762.99
767.04
769.706
771.627
771.627
771.032
771.572
771.798
772.54
773.446
773.624
777.207
716.012
710.424
707.6
702.79
679.916
679.315
677.818
675.814
673.7
671.99
669.378
657.594
679.916
679.036
695.41
710.453
721.23
728.321
732.184
735.353
743.058
757.424
775.833
794.332
810.156
822.558
832.401
842.299
849.997
854.663
859.744
)
;
    }
    atmosphere
    {
        type            totalPressure;
        rho             rho;
        psi             none;
        gamma           1;
        p0              uniform 0;
        value           nonuniform List<scalar> 
46
(
0
0
0
0
0
0
0
0
0
0
0
0
-3.91091e-07
-6.19831e-06
-2.23141e-05
-4.87223e-05
-8.38166e-05
-0.000125723
-0.000172313
-0.000221151
-0.000269563
-0.000314776
-0.000354076
-0.0003765
-0.000388093
-0.000396326
-0.000401086
-0.000403571
-0.000391075
-0.000363273
-0.000322037
-0.000270629
-0.000213515
-0.000155952
-0.000103302
-5.9854e-05
-2.64099e-05
-2.26635e-06
-1.82988e-06
0
0
0
0
0
0
0
)
;
    }
    defaultFaces
    {
        type            empty;
    }
}


// ************************************************************************* //
