/*--------------------------------*- C++ -*----------------------------------*\
  =========                 |
  \\      /  F ield         | OpenFOAM: The Open Source CFD Toolbox
   \\    /   O peration     | Website:  https://openfoam.org
    \\  /    A nd           | Version:  9
     \\/     M anipulation  |
\*---------------------------------------------------------------------------*/
FoamFile
{
    format      ascii;
    class       volScalarField;
    location    "5.79";
    object      nut;
}
// * * * * * * * * * * * * * * * * * * * * * * * * * * * * * * * * * * * * * //

dimensions      [0 2 -1 0 0 0 0];

internalField   nonuniform List<scalar> 
2268
(
1.36777e-05
1.56338e-05
1.88293e-05
2.09866e-05
2.25982e-05
2.38695e-05
2.49137e-05
2.57932e-05
2.65436e-05
2.71868e-05
2.77446e-05
2.82398e-05
2.86868e-05
2.9072e-05
2.93233e-05
2.92526e-05
2.85289e-05
2.71546e-05
2.54797e-05
2.40531e-05
2.26538e-05
2.00447e-05
1.32096e-05
3.11053e-05
0.000124272
0.000167693
0.000194773
0.00021427
0.00022936
0.000241592
0.000251786
0.000260369
0.000267572
0.000273589
0.000278597
0.000282682
0.00028559
0.000286586
0.00028422
0.000275012
0.000250678
0.000230093
0.000217611
0.000204823
0.000156447
4.24478e-05
3.69746e-05
0.000208181
0.000306168
0.000368705
0.000413831
0.000448742
0.000477017
0.000500568
0.000520395
0.000537036
0.000550922
0.000562437
0.000571745
0.000578333
0.000580677
0.000575713
0.00055704
0.000515555
0.000474784
0.000440114
0.000388764
0.000266584
5.01752e-05
4.13108e-05
0.00026775
0.000415662
0.000513036
0.000583967
0.00063902
0.000683618
0.00072072
0.000751918
0.000778084
0.000799891
0.000817887
0.00083224
0.000842185
0.000845585
0.000838291
0.000812458
0.000760351
0.000702601
0.000640657
0.000543071
0.000352906
5.66719e-05
4.47327e-05
0.00031319
0.000504802
0.000634556
0.000730028
0.000804396
0.000864651
0.000914704
0.000956718
0.000991898
0.00102115
0.00104515
0.00106404
0.00107684
0.00108099
0.00107185
0.00104075
0.000981593
0.000909382
0.000820025
0.000677243
0.000424079
6.32051e-05
4.75871e-05
0.000349733
0.000579435
0.000738826
0.000857223
0.000949763
0.00102475
0.00108695
0.00113907
0.00118264
0.00121878
0.00124827
0.00127126
0.00128659
0.00129143
0.0012806
0.00124598
0.00118221
0.001098
0.000984342
0.000801585
0.000489424
6.97779e-05
5.00824e-05
0.000380269
0.000643404
0.000829809
0.000969461
0.00107894
0.00116766
0.00124116
0.00130267
0.00135402
0.00139651
0.00143104
0.00145782
0.0014755
0.00148088
0.0014689
0.00143232
0.00136591
0.00127269
0.00114005
0.000925245
0.00055811
7.73645e-05
5.24139e-05
0.000406511
0.000699373
0.000910426
0.00106972
0.00119492
0.00129636
0.00138032
0.00145054
0.0015091
0.00155747
0.00159665
0.00162698
0.00164677
0.00165296
0.00164069
0.0016035
0.00153617
0.00143753
0.00129278
0.00105819
0.000648972
9.0254e-05
1.29519e-05
2.07732e-05
2.41897e-05
2.57188e-05
2.64382e-05
2.67482e-05
2.6955e-05
2.71898e-05
2.74284e-05
2.69411e-05
2.50953e-05
2.29794e-05
2.08225e-05
2.20392e-05
2.46835e-05
2.42507e-05
2.09499e-05
1.7281e-05
1.95283e-05
4.24393e-05
0.000166123
0.000219971
0.000246186
0.000258916
0.000264893
0.00026771
0.000268633
0.000265838
0.00025367
0.000225168
0.000190263
0.000158108
0.000163784
0.000209291
0.000203481
0.000167521
0.000118518
4.12959e-05
4.90979e-05
0.000289882
0.000418633
0.000484605
0.000517126
0.000532142
0.000538477
0.000539305
0.000531575
0.00050507
0.000448541
0.000384435
0.000332479
0.000342641
0.000398504
0.000375997
0.000299189
0.000197538
4.49401e-05
5.5848e-05
0.000382378
0.000583087
0.000690914
0.000745355
0.000770452
0.000780072
0.000779522
0.000765726
0.000727294
0.000653404
0.00057305
0.000512835
0.000518478
0.000555594
0.00050927
0.000396484
0.000249062
4.68619e-05
6.28024e-05
0.000458837
0.000723686
0.000870135
0.00094546
0.000980577
0.000992864
0.000990173
0.000970226
0.000922903
0.00084037
0.000752829
0.000688844
0.000681717
0.000687213
0.000613814
0.000469531
0.000279427
4.82687e-05
7.05152e-05
0.00052997
0.000851514
0.00103061
0.00112359
0.00116717
0.00118161
0.00117641
0.00115088
0.00109739
0.00101213
0.000922364
0.000854768
0.000829318
0.000799736
0.000698756
0.000527171
0.00029962
4.9245e-05
8.03384e-05
0.00060532
0.000976643
0.00117992
0.00128565
0.00133531
0.00135111
0.00134318
0.00131295
0.00125551
0.00117053
0.00108053
0.00100755
0.000961175
0.000897752
0.000770599
0.000576067
0.000317419
4.99574e-05
9.64213e-05
0.000701626
0.00110831
0.00132384
0.00143637
0.00148926
0.00150522
0.00149462
0.00146063
0.00140082
0.00131687
0.00122664
0.00114622
0.00107804
0.000984728
0.000833888
0.000620613
0.000338535
5.06071e-05
5.53663e-05
0.000441464
0.000775176
0.00102119
0.00120898
0.0013573
0.00147761
0.00157725
0.00166072
0.00173049
0.00178818
0.00183485
0.00187066
0.0018939
0.00190192
0.00189042
0.00185404
0.00178765
0.00168618
0.00153438
0.00129913
0.000936793
0.000453215
5.88901e-05
0.000480435
0.000860535
0.00114653
0.00136672
0.00154082
0.00168201
0.0017992
0.00189782
0.00198066
0.00204935
0.0021049
0.00214722
0.00217549
0.00218759
0.00218017
0.00214913
0.00209026
0.00199831
0.00186204
0.00166328
0.00138434
0.00103808
6.20849e-05
0.000508938
0.000934848
0.00125724
0.00150529
0.00169997
0.0018578
0.00198992
0.00210214
0.00219686
0.00227556
0.00233925
0.00238835
0.00242261
0.00244053
0.0024397
0.00241724
0.00237021
0.00229528
0.0021848
0.00203194
0.00183579
0.00162128
6.6044e-05
0.000532995
0.00100831
0.00136378
0.00163473
0.0018441
0.00201392
0.0021589
0.00228399
0.00238945
0.00247711
0.00254829
0.002604
0.00264471
0.00266932
0.00267612
0.00266283
0.00262769
0.00257137
0.00248664
0.00237409
0.00224137
0.00211068
7.11441e-05
0.000604094
0.0011006
0.00146408
0.00173541
0.00195979
0.00214549
0.00230534
0.00244441
0.00256166
0.00265879
0.00273709
0.00279886
0.00284585
0.00287734
0.00289227
0.00288763
0.00285992
0.00281595
0.00275602
0.00267518
0.00258542
0.00250393
7.18019e-05
0.00061896
0.00110934
0.0014775
0.00177621
0.00203756
0.00224248
0.00241959
0.00257431
0.00270571
0.00281464
0.00290274
0.00297236
0.00302567
0.00306269
0.0030837
0.00308608
0.00306468
0.003029
0.00298782
0.00293741
0.00288305
0.00283239
6.96973e-05
0.00061954
0.0011113
0.00149287
0.00181062
0.00208579
0.00231712
0.00251573
0.00268665
0.00283098
0.00295028
0.00304688
0.00312311
0.00318022
0.00321922
0.00324178
0.00325102
0.00324557
0.00322692
0.00320113
0.00317264
0.00314158
0.00311085
7.01564e-05
0.000600655
0.00110795
0.00151337
0.00185275
0.00214032
0.00238946
0.00260431
0.0027885
0.00294382
0.00307204
0.00317573
0.00325709
0.00331776
0.00336062
0.00339022
0.0034105
0.00341999
0.00341796
0.00340835
0.00339342
0.0033747
0.0033538
6.98575e-05
0.000594779
0.00111584
0.00154193
0.00189769
0.00219908
0.00246037
0.00268646
0.0028806
0.00304504
0.00318174
0.00329314
0.00338093
0.00344812
0.00349856
0.00353716
0.00356726
0.00358798
0.00359832
0.00360056
0.00359567
0.0035855
0.00357214
6.98465e-05
0.000603298
0.00113559
0.00157688
0.00194598
0.002259
0.00252937
0.00276356
0.0029654
0.00313763
0.00328232
0.00340122
0.00349679
0.00357224
0.00363163
0.00367938
0.00371833
0.00374814
0.0037682
0.00377963
0.00378333
0.0037804
0.0037729
7.0099e-05
0.000615148
0.00116207
0.00161617
0.00199607
0.00231848
0.00259624
0.0028369
0.00304513
0.00322397
0.00337567
0.00350224
0.00360615
0.00369058
0.00375932
0.0038161
0.00386328
0.00390113
0.00392944
0.00394872
0.00395952
0.00396261
0.00395951
7.12882e-05
0.000629253
0.00119071
0.00165652
0.0020459
0.00237631
0.00266062
0.00290712
0.00312109
0.00330602
0.00346443
0.00359853
0.00371084
0.00380431
0.00388223
0.00394767
0.00400265
0.00404784
0.00408332
0.0041093
0.00412608
0.00413422
0.00413483
7.23005e-05
0.000641636
0.00121746
0.00169499
0.00209389
0.00243225
0.00272318
0.00297553
0.00319513
0.00338592
0.00355075
0.00369211
0.00381249
0.00391458
0.00400115
0.00407471
0.00413702
0.00418896
0.00423077
0.00426258
0.00428454
0.00429708
0.00430097
7.31063e-05
0.000651982
0.00124111
0.00173052
0.00213938
0.00248614
0.00278416
0.00304274
0.00326817
0.00346482
0.00363594
0.00378423
0.00391218
0.00402222
0.00411672
0.00419775
0.00426687
0.00432496
0.00437242
0.00440936
0.00443588
0.00445232
0.00445915
7.37809e-05
0.000660511
0.00126184
0.00176292
0.00218208
0.00253772
0.0028434
0.00310869
0.0033403
0.00354301
0.00372038
0.00387532
0.00401029
0.00412758
0.00422923
0.00431704
0.00439234
0.004456
0.00450848
0.00454994
0.0045805
0.00460038
0.00460985
7.43899e-05
0.000667613
0.00128009
0.00179244
0.00222194
0.0025868
0.00290057
0.00317304
0.00341122
0.00362019
0.00380382
0.00396513
0.00410663
0.00423048
0.00433855
0.00443239
0.00451322
0.00458186
0.00463877
0.0046842
0.00471829
0.00474119
0.00475301
7.49372e-05
0.000673626
0.00129632
0.00181944
0.00225913
0.00263329
0.00295541
0.00323538
0.0034804
0.0036958
0.00388564
0.00405306
0.00420061
0.00433039
0.00444415
0.00454332
0.00462901
0.004702
0.0047628
0.00481169
0.00484883
0.00487435
0.00488826
7.54276e-05
0.000678819
0.00131095
0.0018443
0.00229389
0.00267725
0.00300777
0.00329535
0.00354732
0.00376918
0.00396509
0.00413832
0.00429143
0.00442653
0.0045453
0.0046491
0.00473899
0.00481574
0.00487988
0.00493174
0.00497151
0.00499929
0.00501507
7.5862e-05
0.000683405
0.00132434
0.0018674
0.00232652
0.00271884
0.00305761
0.00335272
0.00361156
0.00383971
0.00404144
0.00422008
0.00437825
0.00451805
0.00464116
0.00474892
0.00484237
0.0049223
0.00498926
0.00504365
0.00508566
0.00511542
0.0051329
7.624e-05
0.000687557
0.00133676
0.00188904
0.00235726
0.0027582
0.00310494
0.00340731
0.00367274
0.00390687
0.00411402
0.00429759
0.00446025
0.00460412
0.0047309
0.00484196
0.00493835
0.0050209
0.00509022
0.00514672
0.00519068
0.0052222
0.00524129
7.65622e-05
0.000691381
0.00134839
0.00190943
0.00238632
0.00279545
0.00314974
0.00345898
0.00373057
0.0039702
0.00418225
0.00437017
0.00453668
0.00468396
0.00481375
0.00492747
0.00502622
0.00511089
0.00518214
0.00524043
0.0052861
0.00531928
0.00533999
7.68318e-05
0.000694912
0.00135935
0.00192871
0.00241381
0.00283065
0.00319199
0.00350756
0.00378476
0.00402929
0.00424561
0.00443721
0.0046069
0.00475691
0.00488906
0.00500484
0.00510542
0.00519177
0.00526461
0.00532448
0.00537174
0.00540657
0.00542903
7.70446e-05
0.000698162
0.0013697
0.00194698
0.0024398
0.00286381
0.00323162
0.00355289
0.00383503
0.00408378
0.00430365
0.00449823
0.00467038
0.00482245
0.00495634
0.00507364
0.00517561
0.0052633
0.00533752
0.00539886
0.00544774
0.00548439
0.00550885
7.71914e-05
0.00070118
0.0013795
0.00196427
0.00246431
0.00289489
0.0032685
0.00359477
0.00388111
0.00413333
0.004356
0.00455281
0.00472674
0.00488024
0.00501533
0.0051337
0.00523673
0.00532557
0.0054011
0.005464
0.00551471
0.00555348
0.00558038
7.72777e-05
0.000704039
0.00138881
0.00198062
0.00248729
0.0029238
0.00330249
0.00363299
0.00392275
0.00417765
0.00440238
0.00460072
0.00477579
0.00493016
0.00506601
0.00518514
0.00528907
0.00537904
0.00545602
0.00552074
0.00557368
0.0056151
0.00564504
7.7319e-05
0.00070678
0.00139768
0.001996
0.0025087
0.0029504
0.00333341
0.00366734
0.00395972
0.00421655
0.00444261
0.00464185
0.00481752
0.00497235
0.00510868
0.00522844
0.0053333
0.0054246
0.00550338
0.00557042
0.00562623
0.00567102
0.00570481
7.73246e-05
0.00070942
0.00140608
0.00201037
0.00252838
0.00297453
0.00336105
0.00369762
0.00399187
0.00424992
0.0044767
0.00467631
0.00485219
0.00500723
0.00514394
0.00526443
0.00537048
0.00546354
0.00554473
0.00561486
0.00567439
0.00572352
0.00576214
7.72995e-05
0.000711948
0.00141395
0.00202355
0.00254614
0.00299593
0.00338518
0.00372364
0.00401909
0.00427776
0.00450478
0.00470442
0.00488029
0.0050355
0.00517272
0.00529426
0.00540203
0.00549757
0.00558206
0.00565628
0.00572065
0.00577526
0.00581989
7.72423e-05
0.000714306
0.00142112
0.0020353
0.00256167
0.00301432
0.00340556
0.00374527
0.00404135
0.00430022
0.00452718
0.00472668
0.00490255
0.00505812
0.00519625
0.00531943
0.00542972
0.00552874
0.00561769
0.00569728
0.00576785
0.0058293
0.00588126
7.71341e-05
0.000716338
0.00142723
0.00204517
0.00257451
0.00302929
0.00342189
0.00376235
0.00405871
0.00431756
0.00454437
0.00474381
0.00491993
0.00507628
0.00521597
0.00534168
0.00545559
0.00555939
0.00565424
0.00574076
0.00581907
0.00588887
0.0059496
7.69286e-05
0.000717534
0.00143155
0.00205242
0.00258399
0.00304029
0.00343382
0.00377476
0.00407129
0.00433014
0.00455696
0.00475665
0.0049335
0.00509133
0.00523352
0.00536293
0.00548187
0.00559206
0.00569455
0.00578977
0.0058776
0.0059574
0.00602836
7.66722e-05
0.000716447
0.00143274
0.00205593
0.00258917
0.0030466
0.00344089
0.00378234
0.00407922
0.00433838
0.00456565
0.00476614
0.00494446
0.00510474
0.00525062
0.0053852
0.00551089
0.00562937
0.00574152
0.0058475
0.00594678
0.00603834
0.00612097
7.63612e-05
0.000712755
0.00143005
0.00205474
0.00258913
0.00304751
0.00344271
0.00378503
0.00408277
0.00434283
0.0045712
0.00477329
0.00495403
0.00511793
0.00526898
0.00541048
0.00554494
0.00567393
0.00579808
0.0059171
0.00602996
0.00613512
0.00623083
7.59468e-05
0.000707475
0.00142334
0.00204782
0.00258257
0.00304195
0.00343863
0.00378268
0.00408219
0.00434405
0.00457443
0.00477908
0.00496336
0.00513225
0.00529013
0.00544055
0.00558609
0.00572816
0.00586698
0.00600168
0.0061305
0.00625118
0.00636132
7.53947e-05
0.00070023
0.00141111
0.00203283
0.0025672
0.00302821
0.00342772
0.003775
0.00407768
0.00434256
0.00457605
0.00478435
0.0049734
0.00514874
0.00531524
0.00547678
0.00563599
0.00579405
0.00595066
0.00610414
0.0062517
0.00639003
0.00651587
7.46242e-05
0.000688966
0.0013893
0.0020051
0.0025391
0.00300372
0.00340868
0.00376162
0.00406943
0.00433884
0.00457665
0.00478972
0.00498473
0.00516796
0.00534489
0.00551981
0.00569549
0.0058729
0.00605109
0.00622723
0.006397
0.00655548
0.00669818
7.34826e-05
0.000669388
0.00134927
0.00195587
0.00249189
0.00296483
0.00337989
0.00374216
0.00405766
0.00433331
0.00457666
0.00479549
0.00499747
0.0051898
0.00537876
0.00556922
0.00576432
0.00596496
0.00616952
0.00637358
0.00657035
0.00675217
0.0069127
7.1737e-05
0.00063076
0.0012725
0.00186947
0.00241601
0.00290702
0.00333986
0.00371655
0.0040428
0.00432644
0.00457633
0.0048016
0.00501117
0.00521337
0.00541544
0.00562321
0.00584056
0.00606889
0.00630618
0.00654596
0.00677711
0.00698655
0.00716517
7.02704e-05
0.000538694
0.00112043
0.0017211
0.00229975
0.00282646
0.00328836
0.00368569
0.00402576
0.00431879
0.00457578
0.00480765
0.00502483
0.00523689
0.00545232
0.00567823
0.00592005
0.0061808
0.00645938
0.00674744
0.00702598
0.00726875
0.00746355
8.96799e-05
0.000332114
0.000842572
0.00148582
0.00213632
0.00272442
0.00322857
0.0036523
0.00400829
0.00431117
0.00457505
0.004813
0.005037
0.00525795
0.00548565
0.00572892
0.00599569
0.00629269
0.00662328
0.00698082
0.00733418
0.00761611
0.00781857
0.000192437
0.000147707
0.000480025
0.0011775
0.00194184
0.00261521
0.00317013
0.00362189
0.00399317
0.00430472
0.00457425
0.00481692
0.00504613
0.00527386
0.00551114
0.00576853
0.00605717
0.00638994
0.00678169
0.00724282
0.00774354
0.00805884
0.00824248
0.000413287
0.000142484
0.000237891
0.000906588
0.00178187
0.00253474
0.00313077
0.00360267
0.00398397
0.00430084
0.00457363
0.00481893
0.00505096
0.0052824
0.00552495
0.00579038
0.00609234
0.00644996
0.00689534
0.00749144
0.00837928
0.0086429
0.00874062
9.58208e-05
8.98735e-05
9.12667e-05
9.87005e-05
0.000794396
0.000756206
0.000754686
0.000792921
0.00150313
0.00147028
0.00147362
0.00151234
0.00204888
0.00202975
0.00203228
0.00205405
0.00247029
0.00245871
0.00245723
0.00246729
0.0028094
0.00279991
0.00279754
0.00280304
0.00309431
0.00308768
0.00308656
0.00308787
0.00334235
0.00333801
0.00333571
0.00333441
0.00356417
0.00356
0.00355685
0.00355411
0.00376639
0.00376225
0.00375836
0.00375437
0.00395416
0.00395008
0.00394565
0.00394068
0.00413064
0.00412677
0.00412211
0.00411651
0.00429798
0.0042945
0.00428986
0.00428396
0.00445739
0.0044544
0.00444996
0.00444399
0.00460929
0.00460684
0.00460271
0.00459682
0.00475359
0.00475169
0.00474794
0.00474223
0.00488992
0.00488858
0.00488524
0.0048798
0.00501778
0.00501701
0.00501412
0.00500903
0.00513664
0.00513647
0.0051341
0.00512945
0.00524611
0.00524659
0.00524482
0.00524071
0.00534597
0.00534719
0.00534613
0.00534272
0.00543635
0.00543845
0.00543827
0.00543571
0.00551778
0.00552096
0.00552186
0.0055204
0.00559129
0.00559581
0.00559807
0.00559797
0.00565844
0.00566463
0.00566858
0.00567021
0.00572132
0.00572958
0.00573564
0.00573941
0.00578249
0.00579332
0.00580197
0.00580835
0.00584495
0.00585887
0.00587062
0.0058801
0.00591193
0.00592949
0.00594489
0.00595797
0.00598681
0.00600858
0.00602813
0.00604532
0.00607301
0.00609951
0.0061237
0.00614541
0.0061739
0.00620559
0.00623481
0.00626137
0.00629275
0.00632999
0.00636449
0.00639608
0.00643275
0.00647574
0.0065156
0.00655221
0.00659709
0.00664581
0.00669088
0.0067322
0.0067891
0.00684325
0.00689303
0.00693839
0.00701259
0.00707139
0.00712484
0.00717307
0.00727217
0.00733401
0.00738929
0.00743841
0.00757347
0.00763532
0.0076893
0.00773625
0.00792279
0.00797924
0.00802691
0.00806724
0.00832473
0.00836699
0.0084012
0.00842917
0.00877534
0.00879185
0.00880453
0.00881454
0.000468693
0.000983794
0.00133909
0.00154762
0.00166103
0.00171467
0.00172906
0.00171418
0.00167447
0.00161209
0.00153068
0.0014384
0.00134374
0.00124021
0.00110375
0.000920602
0.000685897
0.000380534
5.19007e-05
0.00106247
0.00141843
0.00167951
0.00184587
0.00194047
0.00198472
0.00199261
0.00197218
0.00192749
0.00186154
0.00177728
0.00167786
0.00156192
0.00142145
0.0012462
0.0010302
0.000769759
0.000440686
5.57649e-05
0.00163912
0.00184834
0.00201999
0.00213705
0.00220463
0.00223444
0.00223318
0.00220613
0.00215653
0.00208518
0.00199421
0.00188482
0.00175184
0.00158659
0.00138309
0.00113766
0.000846278
0.000480788
6.25765e-05
0.00211527
0.00223183
0.00233756
0.00241242
0.00245309
0.00246796
0.00245631
0.0024218
0.00236632
0.00228898
0.00219075
0.00207265
0.00192776
0.00174553
0.00151989
0.00124769
0.000917507
0.000484211
7.2474e-05
0.00249802
0.00256148
0.00262219
0.00266325
0.00268417
0.00268587
0.0026612
0.00261741
0.00255477
0.00247039
0.00236326
0.00223474
0.00208013
0.00188949
0.00165351
0.00136508
0.00101275
0.000550254
8.26427e-05
0.00281859
0.00284919
0.00287677
0.00289022
0.00289344
0.00287974
0.00284253
0.00278802
0.00271591
0.00262283
0.00250609
0.00236367
0.00219306
0.00198794
0.001741
0.00144172
0.00107201
0.000575017
8.10096e-05
0.00309283
0.00310272
0.00310823
0.00310307
0.0030857
0.00305683
0.00300918
0.00294539
0.00286385
0.00276072
0.00263191
0.00247396
0.00228587
0.00206336
0.00179918
0.00147905
0.00108189
0.00058076
7.6894e-05
0.00333354
0.00333046
0.00332042
0.00329992
0.00326754
0.00322258
0.00316555
0.00309321
0.00300086
0.00288483
0.00274137
0.00256707
0.00236139
0.00212129
0.00183824
0.00149902
0.00108777
0.000588184
7.61935e-05
0.00354942
0.00353765
0.00351658
0.00348373
0.0034383
0.00338161
0.00331483
0.00323262
0.00312731
0.00299618
0.00283604
0.00264334
0.00241806
0.00215804
0.00185687
0.00150468
0.00108768
0.000590137
7.39616e-05
0.00374689
0.00372895
0.00370021
0.00365843
0.00360347
0.00353708
0.00345996
0.00336525
0.00324556
0.00309829
0.00291974
0.00270639
0.00245899
0.00217662
0.00185544
0.00149016
0.00107039
0.000577455
7.26648e-05
0.00393102
0.00390856
0.00387428
0.00382611
0.00376379
0.0036888
0.00360086
0.00349253
0.00335812
0.00319415
0.00299708
0.00276309
0.00249258
0.00218504
0.00183968
0.00145597
0.00102949
0.000546135
7.0148e-05
0.00410532
0.00407943
0.00404088
0.00398763
0.00391918
0.00383617
0.00373715
0.00361593
0.0034673
0.00328829
0.00307478
0.00282233
0.00252988
0.00219696
0.00182368
0.00141261
0.000970724
0.000503883
6.99094e-05
0.00427179
0.00424321
0.00420096
0.00414324
0.00406938
0.00397903
0.00386992
0.00373737
0.00357689
0.00338528
0.003158
0.00289051
0.00258093
0.00222842
0.00183259
0.0013974
0.000938706
0.000476927
0.000293813
0.00443128
0.0044006
0.00435522
0.00429356
0.00421475
0.00411788
0.00400056
0.00385891
0.00368903
0.00348738
0.00324954
0.0029713
0.00265069
0.0022867
0.00187922
0.00143205
0.000958383
0.000480509
0.000291693
0.00458387
0.00455169
0.00450384
0.00443896
0.00435607
0.00425391
0.00413018
0.00398157
0.00380454
0.00359548
0.00335034
0.00306546
0.00273877
0.0023694
0.00195748
0.00150513
0.0010176
0.000507754
6.97143e-05
0.00472928
0.00469614
0.00464655
0.00457933
0.00449339
0.00438732
0.00425893
0.00410533
0.00392325
0.0037092
0.0034595
0.0031708
0.00284087
0.00246843
0.00205301
0.0015947
0.00109311
0.000553204
7.38296e-05
0.00486706
0.00483349
0.00478289
0.00471419
0.00462627
0.00451763
0.00438622
0.00422939
0.00404413
0.0038271
0.00357481
0.00328393
0.00295169
0.00257584
0.00215432
0.00168487
0.00116427
0.000593968
7.72701e-05
0.0049967
0.0049632
0.00491227
0.00484293
0.00475403
0.00464407
0.00451106
0.00435256
0.00416569
0.00394723
0.00369369
0.00340148
0.00306701
0.00268658
0.00225605
0.00177052
0.00122488
0.000621846
8.00454e-05
0.00511773
0.00508478
0.00503418
0.00496498
0.00487604
0.00476585
0.00463249
0.00447361
0.00428643
0.00406773
0.0038139
0.0035209
0.00318421
0.0027985
0.00235728
0.00185281
0.00127795
0.000639669
8.25748e-05
0.00522984
0.00519793
0.00514827
0.00507996
0.00499184
0.0048824
0.00474975
0.00459159
0.00440515
0.00418717
0.00393382
0.0036406
0.00330204
0.00291132
0.00245975
0.00193668
0.00133233
0.000657159
8.53836e-05
0.00533295
0.00530258
0.0052545
0.00518781
0.00510132
0.00499351
0.0048625
0.00470597
0.00452115
0.00430469
0.00405252
0.0037597
0.00342001
0.00302545
0.00256563
0.00202763
0.00139909
0.000690312
8.88545e-05
0.00542739
0.00539912
0.00535328
0.00528892
0.00520482
0.00509945
0.00497088
0.00481678
0.00463431
0.00442001
0.00416961
0.00387781
0.00353782
0.00314081
0.00267531
0.00212694
0.00148112
0.000742809
9.29434e-05
0.00551392
0.00548841
0.0054455
0.00538421
0.00530326
0.00520106
0.00507565
0.00492464
0.0047451
0.00453346
0.00428527
0.0039949
0.00365512
0.00325652
0.00278679
0.00223034
0.00157013
0.000803485
9.73843e-05
0.00559384
0.00557183
0.00553263
0.00547517
0.00539812
0.00529981
0.0051782
0.00503083
0.00485468
0.00464603
0.00440024
0.00411142
0.00377191
0.00337167
0.00289742
0.00233182
0.00165439
0.000856203
0.000102279
0.00566902
0.00565137
0.00561671
0.0055639
0.00549149
0.00539775
0.00528055
0.00513732
0.00496492
0.00475949
0.00451619
0.00422883
0.00388937
0.00348709
0.00300759
0.0024315
0.00173446
0.000900888
0.000106993
0.00574186
0.00572951
0.00570029
0.00565294
0.00558593
0.00549742
0.00538518
0.00524653
0.00507819
0.00487613
0.00463527
0.00434915
0.00400928
0.00360429
0.00311863
0.00253094
0.00181328
0.000944376
0.000111092
0.00581519
0.00580914
0.00578626
0.0057452
0.00568432
0.00560167
0.00549492
0.00536126
0.00519724
0.00499863
0.00476011
0.00447488
0.00413399
0.00372542
0.00323255
0.00263219
0.00189321
0.000989181
0.000114494
0.00589215
0.00589341
0.00587778
0.00584378
0.00578971
0.00571351
0.00561274
0.00548446
0.00532502
0.00512996
0.00489364
0.00460889
0.00426628
0.00385312
0.0033518
0.00273745
0.00197608
0.00103625
0.000117744
0.00597603
0.00598557
0.005978
0.00595177
0.0059051
0.00583588
0.00574156
0.00561905
0.0054645
0.00527313
0.00503895
0.00475431
0.00440924
0.00399037
0.00347911
0.00284909
0.00206347
0.00108578
0.000121628
0.00607013
0.00608879
0.00608996
0.00607205
0.00603326
0.00597147
0.00588405
0.00576775
0.00561847
0.00543109
0.00519915
0.00491441
0.00456624
0.00414047
0.00361757
0.00296969
0.00215729
0.00113876
0.000126318
0.00617761
0.00620604
0.00621639
0.00620715
0.00617657
0.00612256
0.00604245
0.00593285
0.00578939
0.00560653
0.00537721
0.00509247
0.00474078
0.00430704
0.00377062
0.00310225
0.00225986
0.00119681
0.000131684
0.0063014
0.00633992
0.00635961
0.00635912
0.00633686
0.00629085
0.00621843
0.0061161
0.00597922
0.00580174
0.00557588
0.00529173
0.0049366
0.00449408
0.00394222
0.00325026
0.00237381
0.00126153
0.000137648
0.00644411
0.00649264
0.00652143
0.00652943
0.00651534
0.00647739
0.00641302
0.00631865
0.00618935
0.00601854
0.00579758
0.00551534
0.00515758
0.00470608
0.00413705
0.00341793
0.00250219
0.00133425
0.000144452
0.00660803
0.00666597
0.00670313
0.00671895
0.00671259
0.00668257
0.00662653
0.00654088
0.00642046
0.00625813
0.00604429
0.0057663
0.00540788
0.00494826
0.00436087
0.00361067
0.00264887
0.00141639
0.000152602
0.00679515
0.00686124
0.00690546
0.00692798
0.00692853
0.00690609
0.00685857
0.00678247
0.00667249
0.006521
0.00631738
0.0060473
0.00569186
0.00522672
0.0046211
0.00383592
0.00281958
0.00151082
0.000162314
0.00700717
0.00707933
0.00712864
0.00715621
0.0071625
0.00714702
0.00710806
0.00704234
0.00694456
0.00680676
0.00661744
0.00636051
0.00601396
0.00554867
0.00492745
0.00410434
0.00302304
0.00162196
0.00017374
0.0072455
0.00732066
0.00737237
0.00740283
0.00741331
0.00740389
0.00737332
0.00731868
0.00723489
0.00711397
0.0069439
0.00670708
0.00637827
0.00592241
0.00529289
0.00443185
0.00327324
0.00175646
0.0001873
0.00751116
0.00758513
0.0076358
0.00766652
0.00767931
0.00767478
0.00765218
0.00760905
0.00754083
0.00743997
0.00729461
0.00708644
0.00678762
0.00635666
0.00573439
0.00484296
0.00359468
0.00192643
0.000203743
0.00780448
0.00787187
0.00791748
0.00794554
0.00795855
0.00795753
0.00794214
0.00791052
0.00785891
0.00778078
0.00766539
0.00749523
0.00724179
0.00685874
0.00627278
0.00537571
0.00403362
0.00215837
0.000224607
0.00812445
0.008179
0.0082153
0.00823777
0.00824893
0.00824991
0.00824067
0.00821998
0.00818513
0.00813119
0.0080497
0.00792607
0.00773478
0.00743004
0.00692915
0.00608728
0.00468288
0.0025227
0.000252763
0.00846778
0.00850327
0.00852647
0.00854089
0.0085484
0.0085499
0.00854548
0.00853451
0.00851542
0.00848529
0.00843891
0.00836687
0.00825152
0.00805777
0.0077118
0.00705184
0.00573527
0.00324133
0.000291591
0.00882798
0.00883998
0.00884776
0.00885262
0.00885526
0.008856
0.00885492
0.00885184
0.00884629
0.0088374
0.00882354
0.00880174
0.00876611
0.00870393
0.00858371
0.00831338
0.00757266
0.00519991
0.000343928
)
;

boundaryField
{
    leftWall
    {
        type            nutkWallFunction;
        Cmu             0.09;
        kappa           0.41;
        E               9.8;
        value           nonuniform List<scalar> 
50
(
2.42173e-06
3.70892e-06
4.4548e-06
4.99649e-06
5.41907e-06
5.76857e-06
6.0719e-06
6.35343e-06
6.70921e-06
7.12971e-06
7.5107e-06
4.52698e-06
6.32412e-06
5.25203e-06
1.09106e-06
2.30571e-08
3.25441e-09
0
2.9615e-08
2.28769e-07
3.97874e-07
5.32802e-07
6.46325e-07
7.48124e-07
8.39694e-07
9.2066e-07
9.92269e-07
1.05447e-06
1.1074e-06
1.15157e-06
1.18535e-06
1.20716e-06
1.22091e-06
1.22727e-06
1.22773e-06
1.22308e-06
1.21314e-06
1.19473e-06
1.1603e-06
1.11769e-06
1.06593e-06
9.9712e-07
9.05585e-07
7.77888e-07
5.88611e-07
2.98602e-07
5.35247e-08
3.21768e-06
1.87262e-05
4.87484e-05
)
;
    }
    rightWall
    {
        type            nutkWallFunction;
        Cmu             0.09;
        kappa           0.41;
        E               9.8;
        value           nonuniform List<scalar> 
50
(
3.92201e-06
5.00287e-06
5.45443e-06
5.68906e-06
5.85917e-06
5.97633e-06
6.06056e-06
6.13595e-06
6.28598e-06
6.74311e-06
7.55819e-06
4.22503e-06
7.55322e-06
6.79129e-06
3.43009e-06
1.00908e-06
6.52659e-07
4.5404e-07
4.66817e-08
5.75037e-09
9.05006e-09
7.9607e-09
4.87551e-08
6.5274e-07
1.22087e-06
1.6753e-06
2.08595e-06
2.56424e-06
3.2332e-06
3.88477e-06
4.58895e-06
5.35906e-06
6.09942e-06
6.66042e-06
7.1401e-06
7.64557e-06
8.26924e-06
8.98709e-06
9.7999e-06
1.06746e-05
1.16983e-05
1.29372e-05
1.43749e-05
1.60491e-05
1.8016e-05
2.03689e-05
2.33258e-05
2.72596e-05
3.25907e-05
3.96299e-05
)
;
    }
    lowerWall
    {
        type            nutkWallFunction;
        Cmu             0.09;
        kappa           0.41;
        E               9.8;
        value           nonuniform List<scalar> 
62
(
8.38071e-07
1.64122e-06
2.08407e-06
2.37739e-06
2.59396e-06
2.76342e-06
2.90174e-06
3.0177e-06
3.11627e-06
3.20056e-06
3.27352e-06
3.33822e-06
3.3965e-06
3.44664e-06
3.47929e-06
3.4701e-06
3.37553e-06
3.19583e-06
2.97597e-06
2.78877e-06
2.60282e-06
2.2522e-06
1.29901e-06
1.29901e-06
5.14109e-06
6.08773e-06
6.87006e-06
7.64569e-06
8.41954e-06
9.30454e-06
1.07788e-05
1.14075e-05
1.0735e-05
1.08874e-05
1.17231e-05
1.25778e-06
5.13062e-06
5.95046e-06
6.76824e-06
7.59517e-06
8.50048e-06
9.63998e-06
1.1474e-05
1.25778e-06
2.34919e-06
2.80733e-06
3.00951e-06
3.10394e-06
3.14429e-06
3.17089e-06
3.20135e-06
3.23243e-06
3.17001e-06
2.92887e-06
2.64898e-06
2.35782e-06
2.51893e-06
2.87174e-06
2.81529e-06
2.37533e-06
1.87359e-06
1.40167e-06
)
;
    }
    atmosphere
    {
        type            calculated;
        value           nonuniform List<scalar> 
46
(
0.009
0.000142484
0.000237891
0.000906588
0.00178187
0.00253474
0.00313077
0.00360267
0.00398397
0.00430084
0.00457363
0.00481893
0.00505096
0.0052824
0.00552495
0.00579038
0.00609234
0.00644996
0.00689534
0.00749144
0.009
0.009
0.009
0.009
0.009
0.009
0.009
0.009
0.009
0.009
0.009
0.009
0.009
0.009
0.009
0.009
0.009
0.009
0.009
0.009
0.009
0.009
0.009
0.009
0.009
0.000343928
)
;
    }
    defaultFaces
    {
        type            empty;
    }
}


// ************************************************************************* //
