/*--------------------------------*- C++ -*----------------------------------*\
  =========                 |
  \\      /  F ield         | OpenFOAM: The Open Source CFD Toolbox
   \\    /   O peration     | Website:  https://openfoam.org
    \\  /    A nd           | Version:  9
     \\/     M anipulation  |
\*---------------------------------------------------------------------------*/
FoamFile
{
    format      ascii;
    class       volScalarField;
    location    "80";
    object      p;
}
// * * * * * * * * * * * * * * * * * * * * * * * * * * * * * * * * * * * * * //

dimensions      [0 2 -2 0 0 0 0];

internalField   nonuniform List<scalar> 
12225
(
-1.95415
-4.14173
-5.23929
-5.55631
-5.73307
-5.89598
-6.02005
-6.10679
-6.17295
-6.22687
-6.27055
-6.30648
-6.33299
-6.3484
-6.34982
-6.32316
-6.28768
-6.09026
-5.1177
-5.88507
-6.04325
-5.94722
-5.93011
-5.99199
-6.06208
-6.11932
-6.16846
-6.21254
-6.25109
-6.28331
-6.30837
-6.32345
-6.32752
-6.30899
-6.29043
-6.20575
-5.51896
-5.50308
-5.62797
-5.70248
-5.79291
-5.90725
-6.00711
-6.0834
-6.14476
-6.19709
-6.24169
-6.2785
-6.30762
-6.32699
-6.33701
-6.33128
-6.33127
-6.3153
-5.39717
-5.33932
-5.57823
-5.73304
-5.8304
-5.93079
-6.02122
-6.09275
-6.15122
-6.20181
-6.24559
-6.28227
-6.31208
-6.33374
-6.34859
-6.35484
-6.36975
-6.39252
-5.3871
-5.41049
-5.6361
-5.77429
-5.85342
-5.93966
-6.02378
-6.09318
-6.15075
-6.20101
-6.24503
-6.2826
-6.31411
-6.33919
-6.3598
-6.37704
-6.40391
-6.44633
-5.44544
-5.49339
-5.66536
-5.78573
-5.86282
-5.94501
-6.02619
-6.09466
-6.15205
-6.20231
-6.24677
-6.28548
-6.31897
-6.34762
-6.37363
-6.39956
-6.43492
-6.48627
-5.5063
-5.5496
-5.68248
-5.79527
-5.87489
-5.95359
-6.03082
-6.09777
-6.15475
-6.20493
-6.24982
-6.28976
-6.32536
-6.35739
-6.38812
-6.42054
-6.46146
-6.51564
-5.56052
-5.59722
-5.70492
-5.80987
-5.88901
-5.96334
-6.03628
-6.10152
-6.15806
-6.20822
-6.25361
-6.29485
-6.33255
-6.36766
-6.40231
-6.43937
-6.48353
-6.53779
-5.61111
-5.64332
-5.73211
-5.82691
-5.90331
-5.97367
-6.04273
-6.10613
-6.16213
-6.21226
-6.25818
-6.30066
-6.34028
-6.378
-6.41573
-6.45589
-6.50171
-6.55458
-5.65922
-5.68759
-5.76111
-5.84536
-5.91807
-5.98499
-6.0505
-6.11184
-6.16708
-6.21712
-6.26351
-6.30708
-6.34836
-6.3882
-6.4282
-6.47029
-6.51652
-6.56741
-5.70482
-5.7295
-5.79083
-5.86532
-5.93374
-5.99735
-6.05956
-6.11874
-6.17304
-6.2229
-6.26964
-6.31411
-6.35674
-6.39824
-6.43982
-6.48289
-6.52881
-6.57748
-5.74426
-5.7658
-5.81827
-5.88473
-5.94888
-6.00941
-6.06876
-6.12597
-6.17934
-6.22893
-6.27583
-6.32085
-6.36443
-6.40701
-6.44953
-6.49293
-6.53812
-6.58485
-5.781
-5.79994
-5.84521
-5.9045
-5.96438
-6.02194
-6.07859
-6.13385
-6.18628
-6.23558
-6.28249
-6.32785
-6.37198
-6.41536
-6.45845
-6.50192
-6.54622
-6.59111
-5.81997
-5.83646
-5.87518
-5.92737
-5.98254
-6.03692
-6.0907
-6.14373
-6.19502
-6.244
-6.29096
-6.33637
-6.3808
-6.4246
-6.46809
-6.5114
-6.55473
-6.59773
-5.86009
-5.8743
-5.90732
-5.95292
-6.00317
-6.05419
-6.10515
-6.15577
-6.20562
-6.25415
-6.30111
-6.34647
-6.39079
-6.43454
-6.47804
-6.52103
-6.5634
-6.60475
-5.89961
-5.91183
-5.94013
-5.98007
-6.02556
-6.07321
-6.12156
-6.16993
-6.21807
-6.26588
-6.31267
-6.35804
-6.40197
-6.4453
-6.48825
-6.53081
-6.57229
-6.61244
-5.93581
-5.94648
-5.9712
-6.00678
-6.04823
-6.09276
-6.1389
-6.18545
-6.23201
-6.27874
-6.32521
-6.37046
-6.41415
-6.45677
-6.49898
-6.54077
-6.58162
-6.62084
-5.96449
-5.97418
-5.99667
-6.02948
-6.06827
-6.11057
-6.15516
-6.20059
-6.24612
-6.29193
-6.33793
-6.38304
-6.42656
-6.46865
-6.51012
-6.55113
-6.59139
-6.63004
-5.97875
-5.98824
-6.01022
-6.04241
-6.08073
-6.12261
-6.16693
-6.21232
-6.25788
-6.30358
-6.34946
-6.39456
-6.43811
-6.48005
-6.52116
-6.5617
-6.60149
-6.63976
-5.96909
-5.9794
-6.00317
-6.03781
-6.0787
-6.12275
-6.16876
-6.21556
-6.26247
-6.30923
-6.35586
-6.40136
-6.44533
-6.48761
-6.52909
-6.56968
-6.60935
-6.64734
-5.94677
-5.95821
-5.98493
-6.0238
-6.06885
-6.11626
-6.16486
-6.21399
-6.26282
-6.31117
-6.35861
-6.40475
-6.44908
-6.49211
-6.53399
-6.57502
-6.61447
-6.65248
-5.91496
-5.9275
-5.95849
-6.00415
-6.05504
-6.10626
-6.15782
-6.20975
-6.26117
-6.31135
-6.35991
-6.40659
-6.45154
-6.49514
-6.5376
-6.57875
-6.61816
-6.65595
-5.87691
-5.88958
-5.92579
-5.98128
-6.03977
-6.09527
-6.14999
-6.20478
-6.25856
-6.31044
-6.3601
-6.40755
-6.45325
-6.49749
-6.54046
-6.58164
-6.621
-6.65865
-5.83499
-5.84679
-5.89043
-5.95707
-6.02235
-6.08286
-6.14254
-6.20099
-6.25675
-6.30964
-6.35998
-6.40808
-6.45436
-6.49915
-6.54228
-6.58352
-6.62269
-6.66037
-5.7893
-5.79563
-5.86031
-5.94087
-6.00589
-6.06786
-6.13324
-6.1966
-6.2549
-6.30906
-6.36023
-6.40899
-6.45577
-6.50083
-6.54398
-6.58508
-6.62413
-6.66196
-5.74681
-5.71129
-5.8228
-5.93644
-6.00201
-6.06085
-6.12711
-6.19196
-6.25118
-6.30609
-6.35801
-6.40745
-6.45475
-6.50007
-6.54326
-6.58427
-6.62333
-6.66126
-5.76156
-5.60351
-5.73423
-5.89085
-5.98464
-6.05981
-6.13271
-6.19861
-6.25738
-6.31186
-6.36333
-6.41237
-6.45924
-6.50411
-6.54671
-6.58706
-6.62557
-6.66317
-5.88504
-5.70553
-5.72183
-5.79614
-5.88797
-5.99121
-6.08605
-6.16487
-6.23258
-6.29386
-6.35032
-6.40281
-6.4523
-6.49921
-6.54326
-6.58451
-6.62369
-6.66236
-5.59256
-6.18429
-6.27545
-6.15366
-6.10261
-6.13361
-6.18474
-6.23315
-6.28086
-6.32922
-6.37674
-6.42265
-6.46732
-6.51065
-6.55178
-6.5903
-6.62675
-6.66391
-2.60335
-4.36753
-5.37405
-5.67594
-5.82852
-5.97578
-6.09386
-6.18004
-6.25051
-6.31358
-6.37074
-6.42319
-6.4725
-6.51937
-6.56325
-6.60339
-6.63983
-6.67183
-8.05075
-8.04099
-8.03068
-8.03193
-8.03803
-8.04743
-8.0611
-8.07741
-8.09427
-8.11
-8.12303
-8.1339
-8.14308
-8.1515
-8.15994
-8.16809
-8.17782
-8.19332
-8.21497
-8.2375
-8.25485
-8.26843
-8.28852
-8.31557
-8.34763
-8.38475
-8.42721
-8.47563
-8.53046
-8.59229
-8.66133
-8.73786
-8.82148
-8.91204
-9.00845
-9.11018
-9.21566
-9.32431
-9.43447
-9.54575
-9.6567
-9.76727
-9.87627
-9.98394
-10.0893
-10.193
-10.2943
-10.3938
-10.4909
-10.5865
-10.6798
-10.7719
-10.8622
-10.9513
-11.0388
-11.1256
-11.2109
-11.2957
-11.3789
-11.4619
-11.5435
-11.6247
-11.7042
-11.7831
-11.8599
-11.9354
-12.0083
-12.079
-12.146
-12.2094
-12.2677
-12.3207
-12.3668
-12.4058
-12.4364
-12.4582
-12.4693
-12.4692
-12.456
-12.429
-12.3859
-12.3255
-12.2455
-12.1443
-12.0191
-11.8676
-11.6865
-11.4727
-11.2233
-10.9367
-10.6128
-10.2505
-9.84813
-9.40441
-8.91832
-8.38947
-7.81781
-7.20401
-6.54923
-5.85537
-5.12482
-4.3606
-3.5663
-2.74606
-1.90458
-1.04697
-0.178653
0.694774
1.5676
2.43423
3.28917
4.12734
4.944
5.73502
6.49673
7.22616
7.92086
8.57909
9.19979
9.78259
10.3274
10.8346
11.3045
11.7383
12.1373
12.5032
12.8382
13.1444
13.4242
13.6802
13.9144
14.1278
14.3215
14.4968
14.6551
14.7981
14.9269
15.0431
15.1479
15.2425
15.3278
15.405
15.4747
15.5378
15.5949
15.6468
15.6941
15.7373
15.777
15.8133
15.8468
15.8779
15.9067
15.9337
15.9589
15.9825
16.0049
16.026
16.046
16.065
16.0831
16.1003
16.1167
16.1326
16.1476
16.1619
16.1758
16.1892
16.2021
16.2149
16.2279
16.2409
16.2549
16.2712
16.2909
16.3168
16.3554
16.4129
16.5144
16.6501
-8.05621
-8.04941
-8.04492
-8.04948
-8.06038
-8.07445
-8.08919
-8.10325
-8.11486
-8.12396
-8.13114
-8.13634
-8.1398
-8.1422
-8.14356
-8.14529
-8.14941
-8.15781
-8.16946
-8.18141
-8.19252
-8.20613
-8.2248
-8.2474
-8.27436
-8.30632
-8.34434
-8.38933
-8.44203
-8.50314
-8.57298
-8.65162
-8.73854
-8.83298
-8.93354
-9.03912
-9.14812
-9.25951
-9.37183
-9.4844
-9.59609
-9.70662
-9.81522
-9.92194
-10.0262
-10.1284
-10.2282
-10.326
-10.4215
-10.5153
-10.6071
-10.6975
-10.7863
-10.8739
-10.9602
-11.0457
-11.13
-11.2136
-11.2963
-11.3784
-11.4596
-11.5403
-11.6199
-11.6987
-11.7762
-11.8524
-11.9267
-11.999
-12.0683
-12.1344
-12.1962
-12.2531
-12.304
-12.3482
-12.3845
-12.412
-12.4293
-12.4352
-12.4282
-12.407
-12.3695
-12.3144
-12.2396
-12.1431
-12.0229
-11.8768
-11.7023
-11.4969
-11.2576
-10.9833
-10.6729
-10.3249
-9.93754
-9.50941
-9.03944
-8.52706
-7.97208
-7.37496
-6.73659
-6.05866
-5.34326
-4.59334
-3.81212
-3.00371
-2.17245
-1.32346
-0.461876
0.406621
1.27654
2.14208
2.99791
3.83869
4.65972
5.45656
6.22553
6.96335
7.66748
8.33588
8.9674
9.56136
10.1176
10.6362
11.1176
11.5626
11.9726
12.3491
12.694
13.0093
13.2972
13.5596
13.799
14.0175
14.2164
14.397
14.5606
14.7087
14.8426
14.9637
15.0732
15.1722
15.2619
15.343
15.4165
15.4831
15.5436
15.5986
15.6489
15.6949
15.7369
15.7756
15.8114
15.8446
15.8754
15.904
15.9308
15.956
15.9797
16.0021
16.0233
16.0434
16.0624
16.0806
16.098
16.1144
16.1301
16.1453
16.1597
16.1736
16.1872
16.2005
16.2136
16.2273
16.2422
16.2589
16.2792
16.3052
16.3417
16.3936
16.4848
16.5972
-8.0649
-8.06156
-8.059
-8.06269
-8.07146
-8.08221
-8.09301
-8.10274
-8.11047
-8.11583
-8.11891
-8.12013
-8.11991
-8.11892
-8.11775
-8.11729
-8.11841
-8.12166
-8.12639
-8.13195
-8.13821
-8.14705
-8.16127
-8.18207
-8.21043
-8.24691
-8.29165
-8.34467
-8.40581
-8.47488
-8.55144
-8.63503
-8.72478
-8.81982
-8.91909
-9.0218
-9.1268
-9.23336
-9.34047
-9.44764
-9.55405
-9.65946
-9.76332
-9.8656
-9.96592
-10.0644
-10.161
-10.2557
-10.3486
-10.44
-10.5297
-10.6182
-10.7054
-10.7916
-10.8766
-10.961
-11.0445
-11.1274
-11.2095
-11.2912
-11.3722
-11.4526
-11.5322
-11.611
-11.6888
-11.7654
-11.8404
-11.9136
-11.9843
-12.0521
-12.1162
-12.176
-12.2305
-12.279
-12.3203
-12.3535
-12.3771
-12.39
-12.3906
-12.3774
-12.3485
-12.3022
-12.2366
-12.1495
-12.039
-11.9032
-11.7398
-11.5462
-11.3202
-11.0599
-10.7646
-10.4323
-10.0612
-9.64989
-9.19722
-8.70241
-8.16531
-7.58599
-6.96538
-6.30469
-5.60596
-4.87176
-4.10525
-3.31027
-2.49103
-1.65245
-0.799493
0.0622091
0.927283
1.78989
2.64475
3.48637
4.31005
5.11109
5.88575
6.63045
7.34256
8.0198
8.6609
9.26493
9.83167
10.361
10.8534
11.3097
11.7313
12.1197
12.4767
12.8041
13.1041
13.3787
13.6299
13.8595
14.0688
14.2591
14.4319
14.5887
14.7307
14.8594
14.9759
15.0815
15.1773
15.2641
15.3428
15.4142
15.4792
15.5384
15.5924
15.6419
15.6872
15.729
15.7676
15.8032
15.8363
15.8671
15.8959
15.9229
15.9483
15.9722
15.9948
16.0162
16.0364
16.0557
16.074
16.0913
16.1079
16.1238
16.1389
16.1535
16.1677
16.1815
16.1953
16.2096
16.2249
16.2419
16.2623
16.2879
16.3226
16.3693
16.4449
16.5203
-8.06229
-8.06603
-8.06749
-8.07171
-8.07908
-8.08723
-8.09463
-8.10068
-8.10488
-8.10701
-8.10705
-8.10539
-8.10248
-8.09904
-8.09575
-8.09342
-8.09265
-8.09399
-8.09756
-8.10365
-8.11277
-8.1262
-8.14533
-8.17111
-8.20416
-8.24499
-8.29375
-8.35045
-8.41477
-8.48629
-8.56436
-8.64832
-8.73728
-8.83051
-8.92708
-9.0263
-9.12723
-9.22929
-9.33168
-9.43402
-9.53565
-9.63641
-9.7358
-9.83385
-9.93023
-10.0251
-10.1182
-10.2099
-10.3
-10.3888
-10.4763
-10.5628
-10.6482
-10.7329
-10.8168
-10.9002
-10.983
-11.0655
-11.1476
-11.2294
-11.3107
-11.3917
-11.4721
-11.5519
-11.6309
-11.7089
-11.7855
-11.8605
-11.9332
-12.0033
-12.0701
-12.1328
-12.1908
-12.2432
-12.289
-12.3271
-12.3562
-12.3751
-12.3823
-12.3762
-12.355
-12.3169
-12.2599
-12.182
-12.0812
-11.9554
-11.8026
-11.6204
-11.406
-11.1584
-10.8758
-10.5566
-10.1987
-9.80078
-9.36148
-8.88008
-8.35618
-7.78993
-7.18194
-6.53342
-5.84611
-5.12244
-4.36551
-3.57898
-2.7671
-1.93452
-1.08633
-0.227893
0.6352
1.49734
2.35296
3.19673
4.02365
4.82908
5.60898
6.35975
7.07853
7.76305
8.41184
9.02392
9.5989
10.1367
10.6378
11.1031
11.5341
11.9322
12.299
12.6365
12.9464
13.2305
13.4909
13.729
13.9463
14.1442
14.3243
14.4879
14.6364
14.771
14.8933
15.0042
15.1049
15.1963
15.2793
15.3547
15.4234
15.486
15.5432
15.5956
15.6437
15.6879
15.7287
15.7665
15.8015
15.8341
15.8647
15.8932
15.92
15.9452
15.9689
15.9914
16.0126
16.0327
16.0518
16.07
16.0873
16.1038
16.1195
16.1346
16.1492
16.1635
16.1777
16.1922
16.2075
16.2244
16.2442
16.2685
16.3002
16.3397
16.3979
16.4416
-8.03351
-8.04444
-8.05214
-8.05905
-8.06716
-8.07502
-8.08139
-8.08599
-8.08864
-8.08938
-8.08831
-8.08585
-8.08252
-8.07906
-8.07615
-8.07457
-8.07493
-8.07789
-8.08392
-8.09369
-8.10788
-8.12739
-8.15297
-8.1852
-8.22434
-8.2706
-8.3239
-8.38417
-8.45101
-8.52402
-8.60253
-8.68595
-8.77342
-8.8643
-8.95775
-9.0532
-9.14985
-9.24728
-9.34482
-9.44221
-9.53891
-9.63483
-9.72956
-9.82316
-9.91535
-10.0063
-10.0958
-10.1842
-10.2713
-10.3573
-10.4424
-10.5267
-10.6102
-10.6933
-10.7759
-10.8583
-10.9404
-11.0224
-11.1043
-11.1862
-11.268
-11.3497
-11.4312
-11.5124
-11.593
-11.6729
-11.7517
-11.8292
-11.9047
-11.9779
-12.0481
-12.1146
-12.1768
-12.2337
-12.2844
-12.3278
-12.3628
-12.388
-12.4019
-12.4031
-12.3898
-12.36
-12.3119
-12.2434
-12.1524
-12.0368
-11.8946
-11.7232
-11.5201
-11.2837
-11.0126
-10.7046
-10.3578
-9.97063
-9.54173
-9.07034
-8.55583
-7.99841
-7.39844
-6.75713
-6.07609
-5.35763
-4.60484
-3.82125
-3.01127
-2.17935
-1.33083
-0.470871
0.394592
1.26017
2.11987
2.96859
3.80085
4.61227
5.3983
6.15558
6.88092
7.57229
8.22791
8.84703
9.42892
9.97385
10.4821
10.9548
11.3929
11.7983
12.1721
12.5165
12.833
13.1235
13.3898
13.6335
13.856
14.059
14.2439
14.412
14.5648
14.7036
14.8298
14.9444
15.0486
15.1433
15.2294
15.3077
15.3791
15.4442
15.5038
15.5584
15.6085
15.6546
15.6971
15.7365
15.7731
15.8071
15.8389
15.8686
15.8964
15.9226
15.9472
15.9705
15.9925
16.0133
16.0331
16.0519
16.0697
16.0867
16.1028
16.1183
16.1332
16.1476
16.1619
16.1764
16.1914
16.2078
16.2265
16.2486
16.276
16.3075
16.3501
16.3685
-7.97902
-7.99836
-8.0154
-8.02738
-8.03816
-8.04751
-8.0546
-8.0594
-8.06205
-8.06287
-8.06216
-8.06043
-8.05829
-8.0565
-8.05581
-8.05697
-8.06065
-8.06751
-8.07816
-8.09323
-8.11332
-8.13911
-8.17105
-8.20949
-8.25449
-8.30603
-8.3638
-8.42754
-8.4967
-8.57089
-8.64942
-8.73181
-8.81732
-8.90545
-8.99548
-9.087
-9.17935
-9.27222
-9.36507
-9.45772
-9.54973
-9.64107
-9.73141
-9.82082
-9.90907
-9.99635
-10.0825
-10.1677
-10.252
-10.3356
-10.4184
-10.5007
-10.5826
-10.6643
-10.7458
-10.8273
-10.9088
-10.9906
-11.0725
-11.1548
-11.2372
-11.3199
-11.4026
-11.4855
-11.5681
-11.6503
-11.7318
-11.8122
-11.8912
-11.9681
-12.0424
-12.1135
-12.1806
-12.2429
-12.2993
-12.3489
-12.3904
-12.4225
-12.4439
-12.4529
-12.4479
-12.4269
-12.3881
-12.3293
-12.2483
-12.1431
-12.0115
-11.8509
-11.6587
-11.4333
-11.173
-10.8755
-10.5387
-10.1611
-9.74114
-9.27788
-8.77081
-8.21976
-7.62519
-6.98807
-6.31004
-5.59342
-4.84113
-4.05689
-3.24491
-2.41
-1.55729
-0.692391
0.178967
1.05088
1.91756
2.77337
3.61306
4.43176
5.22513
5.98948
6.72188
7.42011
8.08259
8.70841
9.29702
9.84848
10.3632
10.8421
11.2863
11.6974
12.0768
12.4263
12.7476
13.0427
13.3131
13.5607
13.787
13.9935
14.1816
14.353
14.5088
14.6506
14.7796
14.8969
15.0036
15.1006
15.189
15.2694
15.3428
15.4099
15.4712
15.5275
15.5791
15.6267
15.6706
15.7113
15.749
15.7842
15.8169
15.8476
15.8763
15.9032
15.9286
15.9526
15.9752
15.9966
16.0169
16.0361
16.0543
16.0717
16.0881
16.1038
16.1189
16.1335
16.1477
16.1619
16.1765
16.192
16.209
16.2283
16.2508
16.2744
16.3036
16.3016
-7.90727
-7.93568
-7.96323
-7.98149
-7.99602
-8.00797
-8.01701
-8.02333
-8.02734
-8.02958
-8.03057
-8.03094
-8.0314
-8.03271
-8.03566
-8.04098
-8.04936
-8.06142
-8.0777
-8.09873
-8.12496
-8.1568
-8.1945
-8.23824
-8.28791
-8.34339
-8.40429
-8.47029
-8.54081
-8.61544
-8.69353
-8.77466
-8.85816
-8.94366
-9.03054
-9.11848
-9.20696
-9.29576
-9.38441
-9.47284
-9.56066
-9.64791
-9.7343
-9.81996
-9.90467
-9.98864
-10.0717
-10.1542
-10.236
-10.3173
-10.3982
-10.479
-10.5595
-10.6401
-10.7208
-10.8018
-10.8832
-10.965
-11.0474
-11.1303
-11.2137
-11.2978
-11.3822
-11.467
-11.552
-11.6369
-11.7215
-11.8055
-11.8883
-11.9696
-12.0487
-12.1249
-12.1976
-12.2659
-12.3287
-12.3851
-12.4339
-12.4737
-12.5031
-12.5205
-12.5243
-12.5126
-12.4833
-12.4344
-12.3637
-12.269
-12.1481
-11.9982
-11.8167
-11.6019
-11.3519
-11.0643
-10.7369
-10.3679
-9.95596
-9.49971
-8.99868
-8.45247
-7.86152
-7.22665
-6.54948
-5.83238
-5.07821
-4.29081
-3.47429
-2.63377
-1.77434
-0.902023
-0.0224631
0.857905
1.73344
2.59798
3.44644
4.27349
5.07503
5.8471
6.58707
7.29249
7.96208
8.59458
9.18972
9.74715
10.2677
10.7519
11.2014
11.6171
12.001
12.3546
12.6798
12.9783
13.252
13.5025
13.7316
13.9406
14.1313
14.305
14.4632
14.6072
14.7383
14.8576
14.9662
15.0651
15.1551
15.2373
15.3122
15.3807
15.4434
15.501
15.5539
15.6026
15.6476
15.6893
15.728
15.764
15.7976
15.8291
15.8585
15.8862
15.9122
15.9368
15.9599
15.9818
16.0025
16.0221
16.0407
16.0583
16.075
16.0909
16.1061
16.1206
16.1347
16.1485
16.1624
16.1767
16.1918
16.2079
16.2254
16.2413
16.259
16.2406
-7.83069
-7.86678
-7.90406
-7.92853
-7.94709
-7.96213
-7.97377
-7.98242
-7.98867
-7.99324
-7.99685
-8.00023
-8.00414
-8.00934
-8.01664
-8.02669
-8.04018
-8.05762
-8.0795
-8.10619
-8.13799
-8.17512
-8.21766
-8.26563
-8.31885
-8.37714
-8.44006
-8.50731
-8.57832
-8.65273
-8.72991
-8.80954
-8.891
-8.97399
-9.05797
-9.14272
-9.22777
-9.31298
-9.39798
-9.48273
-9.56691
-9.65061
-9.73357
-9.81596
-9.8976
-9.97872
-10.0592
-10.1393
-10.219
-10.2985
-10.3778
-10.4573
-10.5368
-10.6167
-10.697
-10.778
-10.8595
-10.9419
-11.025
-11.109
-11.1939
-11.2797
-11.3663
-11.4536
-11.5414
-11.6296
-11.7178
-11.8058
-11.893
-11.9791
-12.0635
-12.1455
-12.2243
-12.2991
-12.369
-12.4328
-12.4894
-12.5374
-12.5754
-12.6018
-12.6148
-12.6127
-12.5934
-12.5547
-12.4944
-12.4104
-12.3001
-12.1609
-11.9899
-11.7854
-11.5454
-11.2673
-10.9487
-10.5878
-10.1829
-9.73282
-9.23667
-8.69415
-8.1054
-7.47128
-6.79337
-6.07397
-5.31615
-4.52356
-3.70069
-2.8525
-1.98461
-1.10289
-0.213624
0.67692
1.56249
2.4371
3.29516
4.13157
4.94189
5.72246
6.47044
7.18357
7.86027
8.4994
9.10048
9.6635
10.1891
10.6781
11.1317
11.5515
11.939
12.2959
12.6241
12.9253
13.2016
13.4544
13.6856
13.8967
14.0893
14.2648
14.4248
14.5705
14.7032
14.8241
14.9343
15.0346
15.126
15.2094
15.2856
15.3553
15.4191
15.4777
15.5316
15.5813
15.6272
15.6698
15.7093
15.746
15.7804
15.8125
15.8426
15.8709
15.8975
15.9225
15.9461
15.9685
15.9896
16.0096
16.0285
16.0463
16.0632
16.0792
16.0944
16.1088
16.1226
16.136
16.149
16.1619
16.1748
16.1877
16.2002
16.209
16.2168
16.1851
-7.75998
-7.80124
-7.84612
-7.87582
-7.89805
-7.91606
-7.93036
-7.94155
-7.95037
-7.95768
-7.96429
-7.97098
-7.97856
-7.98774
-7.99931
-8.01386
-8.03201
-8.0542
-8.08084
-8.11217
-8.14842
-8.18964
-8.23582
-8.28688
-8.34256
-8.40265
-8.46672
-8.53448
-8.60538
-8.67913
-8.75514
-8.83314
-8.91256
-8.99319
-9.07454
-9.15644
-9.23849
-9.32062
-9.40248
-9.4841
-9.56521
-9.64592
-9.72601
-9.80567
-9.88475
-9.96352
-10.0419
-10.1201
-10.1981
-10.2762
-10.3544
-10.4329
-10.5119
-10.5915
-10.6718
-10.753
-10.8351
-10.9183
-11.0026
-11.0882
-11.175
-11.263
-11.3521
-11.4424
-11.5335
-11.6253
-11.7176
-11.8101
-11.9022
-11.9937
-12.0838
-12.172
-12.2575
-12.3394
-12.4167
-12.4884
-12.5533
-12.6099
-12.6569
-12.6927
-12.7154
-12.7232
-12.7141
-12.6859
-12.6363
-12.563
-12.4635
-12.3349
-12.1744
-11.9801
-11.7497
-11.4807
-11.1705
-10.8171
-10.4187
-9.97402
-9.48193
-8.94206
-8.35441
-7.71979
-7.03982
-6.31672
-5.55374
-4.75446
-3.92368
-3.06632
-2.1885
-1.29604
-0.3958
0.506046
1.40265
2.28825
3.15669
4.00316
4.82294
5.6126
6.3689
7.08982
7.77335
8.41878
9.02528
9.59336
10.1233
10.6164
11.0735
11.4966
11.8869
12.2465
12.577
12.8805
13.1586
13.4133
13.6462
13.8589
14.053
14.23
14.3914
14.5385
14.6725
14.7947
14.9061
15.0076
15.1001
15.1846
15.2618
15.3325
15.3973
15.4568
15.5116
15.5621
15.6087
15.652
15.6922
15.7296
15.7646
15.7973
15.8279
15.8568
15.8839
15.9094
15.9335
15.9563
15.9778
15.9981
16.0173
16.0354
16.0525
16.0686
16.0838
16.098
16.1114
16.1242
16.1362
16.1476
16.1583
16.1678
16.1756
16.1778
16.1771
16.1348
-7.70244
-7.74627
-7.79588
-7.82911
-7.85402
-7.87442
-7.89098
-7.90444
-7.91569
-7.92562
-7.9351
-7.94489
-7.95582
-7.96853
-7.98376
-8.00202
-8.02392
-8.04977
-8.07996
-8.11463
-8.15395
-8.19788
-8.24638
-8.29928
-8.35631
-8.41726
-8.48168
-8.54931
-8.61962
-8.69237
-8.76699
-8.84329
-8.92075
-8.99919
-9.07816
-9.15757
-9.23703
-9.31653
-9.39576
-9.47479
-9.55337
-9.63163
-9.7094
-9.78688
-9.86395
-9.94089
-10.0176
-10.0944
-10.1712
-10.2484
-10.3258
-10.404
-10.4827
-10.5624
-10.643
-10.7249
-10.8079
-10.8924
-10.9783
-11.0658
-11.1548
-11.2454
-11.3374
-11.431
-11.5258
-11.6218
-11.7185
-11.8159
-11.9133
-12.0105
-12.1068
-12.2016
-12.2941
-12.3835
-12.4687
-12.5486
-12.6221
-12.6878
-12.7441
-12.7894
-12.822
-12.8401
-12.8414
-12.8239
-12.785
-12.7225
-12.6338
-12.5158
-12.3657
-12.1813
-11.9604
-11.7002
-11.398
-11.0515
-10.6591
-10.219
-9.73029
-9.19215
-8.60464
-7.96853
-7.28534
-6.55749
-5.78806
-4.98103
-4.14105
-3.27361
-2.38466
-1.48072
-0.568472
0.345222
1.25373
2.15072
3.03031
3.8872
4.71689
5.5156
6.28024
7.00851
7.69863
8.34967
8.96122
9.5336
10.0674
10.5638
11.0239
11.4495
11.8422
12.2038
12.5362
12.8413
13.121
13.3771
13.6112
13.8252
14.0205
14.1987
14.3613
14.5095
14.6447
14.7679
14.8803
14.9828
15.0764
15.1618
15.2399
15.3115
15.3771
15.4374
15.4929
15.5441
15.5915
15.6354
15.6763
15.7143
15.7498
15.7831
15.8142
15.8436
15.8712
15.8972
15.9218
15.9449
15.9668
15.9875
16.007
16.0254
16.0426
16.0588
16.0739
16.0879
16.101
16.113
16.124
16.1338
16.1422
16.1485
16.1518
16.148
16.1401
16.0892
-7.66188
-7.70651
-7.75694
-7.7918
-7.81815
-7.83994
-7.85803
-7.87316
-7.88627
-7.89828
-7.91006
-7.92233
-7.93587
-7.95128
-7.96923
-7.99017
-8.01465
-8.04292
-8.07535
-8.112
-8.15303
-8.19836
-8.24791
-8.3015
-8.35888
-8.41979
-8.48383
-8.55074
-8.62004
-8.69148
-8.76457
-8.83913
-8.91467
-8.99107
-9.06792
-9.14513
-9.22238
-9.29967
-9.37673
-9.45364
-9.53019
-9.60652
-9.68249
-9.75831
-9.83389
-9.90951
-9.98509
-10.0609
-10.137
-10.2137
-10.2908
-10.3689
-10.4478
-10.528
-10.6094
-10.6922
-10.7765
-10.8626
-10.9504
-11.0401
-11.1316
-11.2252
-11.3205
-11.4177
-11.5165
-11.6168
-11.7184
-11.821
-11.9241
-12.0273
-12.1301
-12.2318
-12.3316
-12.4287
-12.522
-12.6104
-12.6928
-12.7676
-12.8333
-12.8884
-12.9311
-12.9593
-12.9712
-12.9642
-12.9361
-12.8844
-12.8063
-12.6987
-12.5587
-12.384
-12.1721
-11.9202
-11.6254
-11.2854
-10.8982
-10.4621
-9.97589
-9.4387
-8.8505
-8.21207
-7.52486
-6.79145
-6.01482
-5.19929
-4.34946
-3.47134
-2.5708
-1.65494
-0.730284
0.195697
1.11652
2.02523
2.91612
3.78347
4.62296
5.43041
6.203
6.93802
7.63415
8.2901
8.90609
9.48204
10.0191
10.518
10.9806
11.4081
11.8025
12.1656
12.4994
12.8057
13.0866
13.3437
13.579
13.7939
13.9903
14.1695
14.3331
14.4823
14.6185
14.7427
14.856
14.9594
15.0538
15.1401
15.2191
15.2914
15.3578
15.4189
15.4751
15.5271
15.5751
15.6196
15.6611
15.6997
15.7358
15.7695
15.8012
15.831
15.8591
15.8856
15.9106
15.9342
15.9565
15.9776
15.9974
16.016
16.0334
16.0496
16.0647
16.0785
16.0911
16.1024
16.1123
16.1206
16.1267
16.1299
16.1289
16.1197
16.1055
16.0477
-7.63951
-7.683
-7.73092
-7.7653
-7.79173
-7.81375
-7.83233
-7.84822
-7.86235
-7.8756
-7.88882
-7.90265
-7.91783
-7.93487
-7.95443
-7.97687
-8.00271
-8.03215
-8.06554
-8.10292
-8.14444
-8.18999
-8.23951
-8.29281
-8.34964
-8.40976
-8.4728
-8.5385
-8.60641
-8.67633
-8.74776
-8.82054
-8.89424
-8.96874
-9.04367
-9.11898
-9.19436
-9.26981
-9.34511
-9.42033
-9.49531
-9.5702
-9.64488
-9.71955
-9.79413
-9.86888
-9.94377
-10.0191
-10.0948
-10.1713
-10.2486
-10.327
-10.4065
-10.4874
-10.5698
-10.654
-10.7399
-10.8278
-10.9178
-11.01
-11.1043
-11.201
-11.2998
-11.4009
-11.5039
-11.6089
-11.7156
-11.8236
-11.9325
-12.042
-12.1515
-12.2602
-12.3675
-12.4724
-12.574
-12.671
-12.7622
-12.8461
-12.9213
-12.986
-13.0386
-13.0769
-13.099
-13.1024
-13.0847
-13.0434
-12.9756
-12.8779
-12.7476
-12.5818
-12.3784
-12.1342
-11.8462
-11.5121
-11.1295
-10.6969
-10.2125
-9.67574
-9.08639
-8.44516
-7.75368
-7.0143
-6.2304
-5.40609
-4.54648
-3.65733
-2.74519
-1.81695
-0.879875
0.0587644
0.99178
1.91235
2.81421
3.69184
4.54052
5.35625
6.13593
6.87712
7.57829
8.2386
8.85807
9.43702
9.97642
10.4774
10.9416
11.3705
11.7661
12.1303
12.465
12.7723
13.054
13.312
13.548
13.7639
13.9611
14.1412
14.3056
14.4558
14.5928
14.7179
14.8321
14.9364
15.0317
15.1188
15.1986
15.2718
15.3389
15.4008
15.4577
15.5103
15.559
15.6042
15.6463
15.6855
15.7221
15.7564
15.7886
15.8189
15.8475
15.8745
15.9
15.924
15.9467
15.9681
15.9882
16.007
16.0246
16.0409
16.0559
16.0696
16.0818
16.0924
16.1012
16.1079
16.1118
16.112
16.1072
16.0931
16.0736
16.01
-7.63355
-7.67372
-7.71682
-7.74895
-7.77412
-7.79518
-7.81313
-7.82875
-7.84291
-7.85643
-7.87008
-7.88443
-7.90018
-7.91777
-7.9378
-7.96058
-7.98663
-8.01609
-8.04933
-8.08635
-8.12733
-8.17215
-8.22077
-8.273
-8.3286
-8.38736
-8.44892
-8.51305
-8.57932
-8.64753
-8.71723
-8.78826
-8.86021
-8.93299
-9.00623
-9.0799
-9.15371
-9.22767
-9.30157
-9.37549
-9.44928
-9.5231
-9.59684
-9.67071
-9.74464
-9.81888
-9.89342
-9.96857
-10.0443
-10.1211
-10.1987
-10.2777
-10.358
-10.44
-10.5237
-10.6094
-10.6971
-10.7871
-10.8794
-10.9743
-11.0716
-11.1716
-11.2741
-11.3792
-11.4867
-11.5965
-11.7082
-11.8218
-11.9367
-12.0526
-12.1688
-12.2847
-12.3994
-12.5122
-12.6218
-12.7273
-12.8272
-12.9201
-13.0045
-13.0786
-13.1406
-13.1886
-13.2205
-13.2338
-13.2261
-13.1946
-13.1364
-13.0482
-12.9267
-12.7695
-12.574
-12.3369
-12.0553
-11.7267
-11.3485
-10.9189
-10.4363
-9.89981
-9.3092
-8.66509
-7.9692
-7.22377
-6.43243
-5.59918
-4.72956
-3.82923
-2.90531
-1.96463
-1.01513
-0.0639753
0.880935
1.81291
2.72517
3.61237
4.46937
5.29249
6.0782
6.8246
7.5298
8.19361
8.81563
9.39681
9.93773
10.4401
10.9052
11.335
11.7313
12.0962
12.4315
12.7394
13.0217
13.2804
13.5171
13.7337
13.9317
14.1126
14.278
14.429
14.5669
14.6929
14.808
14.9132
15.0093
15.0973
15.178
15.252
15.32
15.3826
15.4403
15.4936
15.543
15.5889
15.6316
15.6714
15.7086
15.7435
15.7763
15.8071
15.8362
15.8637
15.8897
15.9142
15.9373
15.959
15.9795
15.9986
16.0163
16.0327
16.0477
16.0611
16.0729
16.0828
16.0906
16.0957
16.0976
16.0949
16.0866
16.0683
16.044
15.9758
-7.64021
-7.67572
-7.71267
-7.74114
-7.76387
-7.78288
-7.79915
-7.81344
-7.82658
-7.83927
-7.85225
-7.86603
-7.88126
-7.89832
-7.91778
-7.93989
-7.96515
-7.99368
-8.02584
-8.06166
-8.1013
-8.14466
-8.19173
-8.2423
-8.29617
-8.35311
-8.41282
-8.47506
-8.53945
-8.6058
-8.67367
-8.74295
-8.81322
-8.88441
-8.95615
-9.02841
-9.10091
-9.17366
-9.24645
-9.31936
-9.39225
-9.46527
-9.53833
-9.61165
-9.68516
-9.75914
-9.83356
-9.90875
-9.9847
-10.0618
-10.14
-10.2197
-10.301
-10.3842
-10.4692
-10.5566
-10.6462
-10.7384
-10.8332
-10.9308
-11.0313
-11.1347
-11.241
-11.3502
-11.4622
-11.5769
-11.694
-11.8132
-11.9342
-12.0565
-12.1795
-12.3025
-12.4248
-12.5453
-12.6631
-12.777
-12.8854
-12.9872
-13.0805
-13.1637
-13.2349
-13.2923
-13.3336
-13.3564
-13.3581
-13.336
-13.2871
-13.2077
-13.0947
-12.9455
-12.7575
-12.5272
-12.2515
-11.9278
-11.5535
-11.1265
-10.6451
-10.1083
-9.51584
-8.86838
-8.16743
-7.41557
-6.61617
-5.77382
-4.89382
-3.98248
-3.04669
-2.09402
-1.13228
-0.169417
0.786806
1.72906
2.65076
3.54614
4.41027
5.23919
6.02971
6.77972
7.48789
8.15383
8.77755
9.35981
9.90161
10.4045
10.87
11.3001
11.6966
12.0618
12.3975
12.7058
12.9886
13.2477
13.4851
13.7024
13.9012
14.083
14.2492
14.4011
14.54
14.6669
14.7829
14.8891
14.9862
15.0751
15.1567
15.2316
15.3005
15.3639
15.4225
15.4766
15.5268
15.5734
15.6168
15.6572
15.6951
15.7306
15.764
15.7955
15.8251
15.8531
15.8796
15.9046
15.9281
15.9503
15.971
15.9904
16.0084
16.0249
16.0398
16.0531
16.0645
16.0738
16.0805
16.0842
16.0841
16.0789
16.0673
16.0452
16.0168
15.9449
-7.6555
-7.6855
-7.71562
-7.73952
-7.7588
-7.77482
-7.78849
-7.80055
-7.81174
-7.82265
-7.83397
-7.84617
-7.85987
-7.87539
-7.8933
-7.91382
-7.93742
-7.96421
-7.99457
-8.02847
-8.06611
-8.10739
-8.15228
-8.2006
-8.25219
-8.30686
-8.36433
-8.42439
-8.48669
-8.55105
-8.61708
-8.68461
-8.75328
-8.82296
-8.89334
-8.96434
-9.03571
-9.10744
-9.17935
-9.25148
-9.32372
-9.39618
-9.46882
-9.54179
-9.61509
-9.68896
-9.76342
-9.83874
-9.91499
-9.9925
-10.0714
-10.1519
-10.2342
-10.3185
-10.4051
-10.4941
-10.5857
-10.6802
-10.7776
-10.878
-10.9816
-11.0885
-11.1987
-11.3121
-11.4287
-11.5485
-11.6709
-11.796
-11.9231
-12.0519
-12.1817
-12.312
-12.4418
-12.5702
-12.6961
-12.8181
-12.9352
-13.0455
-13.1476
-13.2396
-13.3199
-13.3861
-13.4364
-13.4682
-13.4789
-13.4656
-13.425
-13.3537
-13.2485
-13.1065
-12.9251
-12.7006
-12.43
-12.1102
-11.7387
-11.3133
-10.8321
-10.294
-9.69893
-9.04747
-8.34109
-7.58252
-6.7751
-5.92373
-5.03362
-4.11162
-3.16455
-2.2007
-1.2278
-0.254535
0.711447
1.66231
2.59167
3.49336
4.36278
5.19558
5.98918
6.74114
7.45083
8.11749
8.74177
9.32404
9.86588
10.3684
10.8338
11.2636
11.6601
12.0252
12.3611
12.6696
12.9528
13.2125
13.4505
13.6686
13.8682
14.051
14.2182
14.3712
14.5111
14.6391
14.7562
14.8634
14.9616
15.0517
15.1343
15.2102
15.2801
15.3445
15.404
15.459
15.51
15.5575
15.6016
15.6429
15.6815
15.7177
15.7518
15.7839
15.8141
15.8427
15.8697
15.8952
15.9192
15.9418
15.9629
15.9826
16.0008
16.0174
16.0324
16.0455
16.0566
16.0652
16.071
16.0734
16.0714
16.0638
16.0494
16.024
15.992
15.9171
-7.67691
-7.70106
-7.72434
-7.74312
-7.75812
-7.77024
-7.78035
-7.78917
-7.7974
-7.80555
-7.81427
-7.82394
-7.83514
-7.84816
-7.86358
-7.88154
-7.90257
-7.92671
-7.95435
-7.98545
-8.02025
-8.05862
-8.10062
-8.1461
-8.19493
-8.24695
-8.30189
-8.35958
-8.41964
-8.48195
-8.54605
-8.61185
-8.67892
-8.74718
-8.81627
-8.88614
-8.95651
-9.02737
-9.09851
-9.17001
-9.2417
-9.31374
-9.38603
-9.4588
-9.53197
-9.60586
-9.6804
-9.75602
-9.83264
-9.91075
-9.99029
-10.0718
-10.1551
-10.2408
-10.3287
-10.4196
-10.5132
-10.6101
-10.71
-10.8135
-10.9204
-11.0309
-11.1451
-11.2629
-11.3842
-11.509
-11.6368
-11.7677
-11.9009
-12.0362
-12.173
-12.3105
-12.4477
-12.584
-12.7177
-12.8479
-12.9732
-13.0919
-13.2023
-13.3027
-13.3912
-13.4659
-13.5244
-13.5645
-13.5832
-13.5777
-13.5445
-13.4803
-13.3817
-13.246
-13.0699
-12.8502
-12.5833
-12.2663
-11.8965
-11.4716
-10.9897
-10.4498
-9.85169
-9.19597
-8.48429
-7.71913
-6.90425
-6.04425
-5.145
-4.21316
-3.25638
-2.28277
-1.30084
-0.3191
0.654212
1.61152
2.54602
3.45183
4.32406
5.1588
5.95327
6.70565
7.4151
8.08134
8.70482
9.28634
9.82727
10.3291
10.7937
11.223
11.6192
11.9841
12.3201
12.6289
12.9125
13.1729
13.4117
13.6307
13.8314
14.0154
14.1838
14.338
14.4792
14.6085
14.7269
14.8354
14.9349
15.0262
15.1101
15.1872
15.2583
15.3238
15.3844
15.4404
15.4925
15.5408
15.5859
15.628
15.6675
15.7045
15.7393
15.7721
15.803
15.8322
15.8598
15.8858
15.9104
15.9334
15.9549
15.975
15.9935
16.0103
16.0253
16.0383
16.049
16.0572
16.0621
16.0632
16.0596
16.0499
16.0329
16.0046
15.9694
15.8922
-7.70019
-7.71959
-7.73666
-7.75025
-7.76047