/*--------------------------------*- C++ -*----------------------------------*\
  =========                 |
  \\      /  F ield         | OpenFOAM: The Open Source CFD Toolbox
   \\    /   O peration     | Website:  https://openfoam.org
    \\  /    A nd           | Version:  9
     \\/     M anipulation  |
\*---------------------------------------------------------------------------*/
FoamFile
{
    format      ascii;
    class       volScalarField::Internal;
    location    "80";
    object      tmp<kEpsilon:G>;
}
// * * * * * * * * * * * * * * * * * * * * * * * * * * * * * * * * * * * * * //

dimensions      [0 2 -3 0 0 0 0];

value           nonuniform List<scalar> 
12225
(
0
0
0
0
0
0
0
0
0
0
0
0
0
0
0
0
0
0
947.154
499.344
262.627
278.005
380.518
496.43
606.501
718.358
805.596
894.29
956.011
1018.56
1059.35
1102.29
1134.91
1165.12
1238.56
1211.91
86.0502
123.012
55.4231
17.1614
5.12928
4.34463
8.74282
16.6378
26.567
38.3727
50.9501
64.2107
77.9179
90.9355
105.615
117.238
136.658
140.652
5.16171
1.71554
0.642399
0.709325
0.473309
0.191396
0.0319221
0.195016
0.801292
1.90554
3.49894
5.52948
8.05645
10.8176
14.3222
17.7841
22.7962
26.562
0.230097
0.132144
0.143702
0.303299
0.409966
0.386637
0.268372
0.133252
0.0395442
0.0138086
0.0755611
0.236999
0.518841
0.916027
1.50465
2.21866
3.23061
4.13448
0.180214
0.185211
0.254146
0.30375
0.301759
0.292098
0.260954
0.207433
0.14851
0.0919226
0.0451708
0.0147355
0.00848934
0.0349452
0.109015
0.236921
0.432838
0.649858
0.128992
0.206881
0.220525
0.198053
0.192567
0.205067
0.2074
0.190961
0.165791
0.135877
0.103909
0.0717032
0.0434294
0.0239984
0.0202686
0.0421606
0.0967991
0.181922
0.0994824
0.145783
0.151445
0.144236
0.149582
0.163876
0.169791
0.163019
0.150335
0.134358
0.115792
0.0950601
0.0746128
0.057727
0.049553
0.0578721
0.0905397
0.145717
0.0761642
0.103054
0.115716
0.119272
0.125923
0.135873
0.14059
0.137346
0.130016
0.120635
0.109503
0.0970584
0.0848928
0.0757269
0.073533
0.0835934
0.111995
0.153057
0.0582629
0.0770008
0.0925321
0.0996171
0.105693
0.113257
0.117714
0.116717
0.112406
0.106594
0.0998434
0.0926456
0.0863907
0.0831521
0.0859072
0.0975901
0.12219
0.151653
0.0445085
0.0584231
0.0736584
0.0823279
0.0887065
0.0954046
0.0998965
0.10038
0.0980923
0.0946183
0.0907293
0.0870138
0.0846027
0.0850126
0.0902284
0.101568
0.121251
0.14113
0.0345432
0.0456372
0.0598543
0.0694424
0.0762692
0.0825477
0.0870063
0.0884104
0.0875233
0.0856654
0.0836925
0.0821927
0.0820462
0.0843191
0.0902338
0.100174
0.115371
0.128735
0.0265728
0.0356494
0.0487511
0.0589263
0.0662403
0.0724214
0.0769898
0.0791921
0.0795137
0.0789956
0.0784328
0.0784253
0.0796335
0.0827595
0.0884186
0.0965365
0.107791
0.116263
0.0194755
0.0267905
0.038542
0.048842
0.0566302
0.0629831
0.0678662
0.0708908
0.0724003
0.0731551
0.0738216
0.0749258
0.0769631
0.0803257
0.0852414
0.0913444
0.0990612
0.10378
0.0133539
0.0193521
0.0298224
0.0399322
0.0480751
0.0547208
0.0600317
0.0638363
0.0664174
0.0683128
0.0700174
0.0719041
0.0743517
0.0775718
0.0815693
0.0859201
0.0908197
0.0931837
0.00829427
0.0133253
0.0226387
0.0323539
0.0407077
0.0476885
0.0534499
0.0579457
0.0613941
0.0642237
0.0667208
0.0690936
0.0716045
0.0744642
0.077588
0.0806524
0.0835599
0.0848823
0.00437733
0.00874741
0.0171152
0.0264008
0.0348505
0.0421481
0.0483539
0.053425
0.0575302
0.0610334
0.0640942
0.0667695
0.0692226
0.0716953
0.0741797
0.0764891
0.0782473
0.0794864
0.00172265
0.00572518
0.0134552
0.0224499
0.0309604
0.0385064
0.0450722
0.0505803
0.0551247
0.0590324
0.062444
0.0653105
0.0677185
0.0699355
0.0720581
0.0740608
0.0752815
0.077062
0.00065097
0.0046215
0.0122167
0.0213333
0.0300848
0.0378938
0.0447521
0.0505521
0.0553494
0.0594151
0.0629407
0.0658556
0.0682371
0.0703253
0.072295
0.0742236
0.075197
0.0777091
0.00158572
0.00596339
0.0142311
0.0240799
0.0332608
0.0413009
0.0483405
0.0542724
0.0591085
0.0631049
0.0664814
0.0692205
0.0714634
0.0734585
0.0753508
0.077242
0.0780654
0.0809972
0.00399562
0.00917846
0.0188252
0.0297384
0.0392015
0.0472234
0.054227
0.060112
0.0647812
0.0685538
0.0716144
0.074107
0.0761269
0.0780089
0.0797188
0.0814978
0.0820872
0.0852154
0.00781714
0.014575
0.0262288
0.0381544
0.0478418
0.0558621
0.0626988
0.0681081
0.0721544
0.0753553
0.0779828
0.0801558
0.0819855
0.083696
0.0852446
0.0867939
0.0872489
0.0903519
0.013007
0.0236939
0.0376211
0.0481369
0.0569585
0.0658356
0.0736123
0.0788039
0.0818744
0.0839922
0.0857622
0.0872263
0.0885656
0.0897927
0.0909014
0.0919595
0.0920669
0.0947123
0.0204037
0.0422304
0.061757
0.0654095
0.0667547
0.0732448
0.0819794
0.0886221
0.0925411
0.0950124
0.096574
0.0973607
0.0975578
0.0973937
0.0967966
0.0960885
0.0943302
0.0950952
0.041828
0.0751168
0.0972278
0.112044
0.106775
0.101728
0.101138
0.101926
0.102547
0.102733
0.101579
0.0987387
0.0944436
0.0893354
0.083569
0.0779841
0.0719329
0.0685894
0.0784845
0.210874
0.0687415
0.0852629
0.17967
0.231307
0.232668
0.208703
0.178096
0.14777
0.118627
0.0920714
0.0698197
0.0536067
0.0443639
0.0431742
0.0497415
0.0649239
0.669444
0.128778
0.31153
0.497721
0.365787
0.290261
0.226376
0.140164
0.0605153
0.0129203
0.0129375
0.0714413
0.193257
0.379568
0.625499
0.92952
1.27767
1.66593
32.2454
70.9467
43.2839
18.3128
7.10691
2.70296
1.1427
1.03767
1.84937
3.32246
5.30085
7.6851
10.3322
13.218
16.1943
19.2927
22.3162
25.3602
455.59
257.578
100.93
70.4324
91.4201
127.711
167.451
205.294
240.188
272.664
301.493
327.865
350.861
371.941
390.128
407.228
422.244
436.949
0
0
0
0
0
0
0
0
0
0
0
0
0
0
0
0
0
0
0
0
0
0
0
0
0
0
0
0
0
0
0
0
0
0
0
2.7715
2.42902
1.95322
1.67407
1.17149
1.471
2.27975
3.61561
5.40424
7.6861
10.5263
13.9915
18.1222
22.9498
28.4542
34.6138
41.3681
48.649
56.375
64.4692
72.8583
81.4726
90.2577
99.1603
108.149
117.187
126.265
135.36
144.48
153.612
162.778
171.969
181.217
190.515
199.904
209.375
218.973
228.688
238.571
248.605
258.845
269.268
279.935
290.812
301.962
313.342
325.019
336.939
349.168
361.641
374.423
387.436
400.739
414.247
428.006
441.921
456.025
470.21
484.49
498.739
512.96
527.012
540.883
554.411
567.567
580.171
592.183
603.388
613.767
623.103
631.432
638.616
644.649
649.502
653.059
655.257
655.969
655.115
652.586
648.189
642.352
634.154
626.229
614.408
601.29
586.273
569.639
551.216
531.168
509.669
486.848
462.864
437.89
412.118
385.786
359.147
332.383
305.696
279.282
253.34
228.041
203.541
179.92
157.134
135.481
115.029
95.8244
77.9035
61.2777
45.9708
32.0233
19.7938
10.5026
11.0042
19.3778
28.6142
37.4261
45.585
53.0587
59.8739
66.0633
71.6747
76.7477
81.3324
85.4577
89.1321
92.4308
95.3974
98.0745
100.491
102.679
104.648
106.415
108.002
109.434
110.73
111.908
112.985
113.97
114.874
115.704
116.473
117.191
117.866
118.504
119.112
119.695
120.259
120.808
121.346
121.873
122.389
122.89
123.372
123.814
124.227
124.511
124.776
124.588
124.473
122.763
120.451
109.498
0
2.25178
2.9116
2.76848
1.9856
1.01784
0.290189
0.327025
0.68379
1.2072
1.92127
2.7721
3.80585
5.09774
6.76676
8.98334
11.3156
15.7634
21.4894
25.8872
29.2815
33.2336
38.2599
44.4216
49.4249
54.1691
58.4117
61.8608
64.3092
65.5959
65.8311
64.8847
62.9545
60.2337
56.9295
53.2369
49.3375
45.3958
41.5472
37.8899
34.4908
31.3863
28.5916
26.1041
23.9115
21.992
20.3219
18.8747
17.6264
16.5535
15.6345
14.848
14.1766
13.6059
13.1239
12.7177
12.3776
12.0961
11.8685
11.6896
11.5558
11.4659
11.4216
11.4255
11.4821
11.5969
11.7771
12.0311
12.3695
12.8035
13.346
14.0095
14.8089
15.7586
16.8711
18.1576
19.6253
21.2808
23.1272
25.1659
27.3901
29.7878
32.3332
34.998
37.7222
40.449
43.0788
45.5628
47.8283
50.0554
52.4343
55.0564
58.008
61.3433
65.0841
69.2518
73.8396
78.8655
84.3037
90.0393
96.2073
102.607
109.042
115.708
122.462
128.971
135.213
141.038
146.327
150.95
154.789
157.706
159.682
160.758
160.889
160.085
158.385
155.886
152.704
149.007
144.864
140.294
135.396
130.288
125.101
120.057
115.12
109.984
104.944
99.1857
92.4098
85.8501
79.6761
74.0029
68.8733
64.2788
60.174
56.5199
53.2729
50.394
47.8489
45.5731
43.5393
41.7202
40.093
38.6463
37.359
36.2096
35.1799
34.2581
33.439
32.7158
32.0786
31.5193
31.0319
30.6037
30.2307
29.9114
29.64
29.413
29.226
29.0761
28.9594
28.8745
28.8214
28.7928
28.7888
28.812
28.8546
28.9167
29.0035
29.1138
29.2452
29.4366
29.6906
30.2051
31.0895
33.7598
38.6822
58.2911
0
1.44859
1.43686
0.990178
0.4386
0.168874
0.347537
0.972717
1.99972
3.40868
5.15077
7.26109
9.78915
12.8323
16.5084
21.0498
26.8319
34.2477
41.9931
48.7041
53.6084
56.0993
59.6701
62.696
64.5889
65.2189
64.5977
62.862
60.2268
56.9576
53.2421
49.4342
45.7156
42.2561
39.1762
36.5584
34.4458
32.8479
31.749
31.1169
30.9109
31.0862
31.5995
32.4102
33.4839
34.7912
36.3083
38.015
39.8949
41.9362
44.1302
46.4685
48.9423
51.5442
54.2695
57.1131
60.0634
63.1134
66.2549
69.4801
72.7772
76.132
79.5305
82.9592
86.4028
89.8446
93.2659
96.6444
99.9577
103.179
106.283
109.239
112.021
114.611
116.987
119.124
120.996
122.579
123.86
124.833
125.507
125.903
126.078
126.123
126.165
126.363
126.913
127.973
129.765
132.093
134.834
138.074
141.907
146.409
151.634
157.626
164.404
171.973
180.343
189.515
199.255
209.546
220.003
230.652
241.316
251.557
261.164
269.832
277.302
283.324
287.697
290.258
290.929
289.704
286.606
281.722
275.179
267.189
258
247.874
237.002
225.579
213.787
201.936
190.199
178.517
166.594
154.292
142.019
130.761
121.073
112.521
104.544
97.0583
90.076
83.6199
77.6809
72.2532
67.3139
62.8361
58.7872
55.123
51.8028
48.7947
46.0724
43.6225
41.4117
39.4137
37.6004
35.9563
34.4748
33.1385
31.9337
30.8479
29.8696
28.9865
28.1907
27.4745
26.8312
26.2536
25.735
25.2692
24.8537
24.4836
24.1528
23.8612
23.6046
23.3781
23.1823
23.0162
22.8765
22.7728
22.7157
22.7319
22.8675
23.2728
24.1853
26.0132
28.9492
37.0126
0
0.352532
0.510166
0.263877
0.15663
0.448453
1.23881
2.50841
4.18597
6.25738
8.72547
11.6138
14.9752
18.8852
23.4226
28.627
34.5218
40.9037
46.8184
51.4087
54.3816
56.299
57.8237
58.2917
57.5461
55.7624
53.2361
50.2944
47.2369
44.3089
41.6949
39.4992
37.7981
36.636
36.021
35.9411
36.3704
37.2764
38.6221
40.3694
42.4808
44.921
47.6577
50.6619
53.9079
57.3743
61.0419
64.8943
68.9162
73.0954
77.4211
81.8831
86.4692
91.1681
95.9699
100.867
105.838
110.872
115.952
121.064
126.187
131.302
136.384
141.414
146.369
151.225
155.956
160.536
164.937
169.127
173.08
176.769
180.172
183.271
186.056
188.515
190.638
192.419
193.87
195.011
195.874
196.506
196.978
197.385
197.827
198.409
199.237
200.357
201.801
203.607
205.869
208.752
212.39
216.885
222.337
228.806
236.351
244.985
254.713
265.451
277.221
289.718
302.564
315.711
328.877
341.598
353.539
364.306
373.526
380.872
386.063
388.892
389.242
387.09
382.473
375.499
366.362
355.331
342.734
328.908
314.136
298.716
282.972
266.972
250.633
233.902
217.255
201.307
186.257
172.222
159.349
147.549
136.592
126.4
116.956
108.246
100.25
92.9377
86.2803
80.2354
74.7571
69.7881
65.2802
61.1921
57.486
54.135
51.1012
48.3524
45.8606
43.6012
41.556
39.6994
38.0137
36.4848
35.098
33.8324
32.6807
31.6341
30.6827
29.8166
29.0272
28.3084
27.6539
27.0584
26.5173
26.0246
25.5767
25.172
24.8067
24.4799
24.1969
23.9658
23.7996
23.7384
23.8472
24.2835
25.3052
27.5432
31.518
38.386
0
0.580529
1.4232
1.80642
2.24236
3.00412
4.15938
5.71908
7.677
10.0202
12.7418
15.8458
19.3473
23.2532
27.5329
32.0933
36.7459
41.1074
44.632
46.9202
47.8936
47.8269
47.0834
45.7395
43.8938
41.7361
39.4946
37.3805
35.5606
34.1527
33.2339
32.8503
33.0214
33.749
35.0282
36.8474
39.1892
42.0309
45.3454
49.1024
53.2695
57.8133
62.7006
67.8992
73.3786
79.1106
85.0691
91.2305
97.5729
104.076
110.723
117.497
124.38
131.355
138.407
145.517
152.669
159.843
167.02
174.179
181.299
188.353
195.317
202.162
208.862
215.39
221.716
227.809
233.636
239.166
244.365
249.208
253.671
257.738
261.395
264.633
267.442
269.822
271.782
273.34
274.522
275.366
275.927
276.268
276.458
276.574
276.703
276.905
277.288
277.946
279.048
280.789
283.345
286.871
291.496
297.329
304.456
312.928
322.761
333.907
346.29
359.841
373.94
388.54
403.273
417.665
431.293
443.687
454.383
462.973
469.102
472.508
473.021
470.574
465.187
456.977
446.177
433.092
418.114
401.621
384.06
365.597
346.293
326.15
305.587
285.193
265.39
246.409
228.462
211.673
196.121
181.706
168.309
155.851
144.312
133.657
123.861
114.884
106.692
99.2343
92.4532
86.2859
80.6768
75.5787
70.9458
66.7441
62.927
59.4593
56.3052
53.4341
50.8198
48.4382
46.2672
44.2907
42.489
40.8399
39.331
37.9505
36.6862
35.5272
34.462
33.4832
32.5848
31.7599
31.0027
30.3064
29.6672
29.0835
28.5523
28.0744
27.6572
27.3122
27.0593
26.9486
27.061
27.5631
28.7017
31.0791
35.1902
41.2632
0
2.05058
4.39364
5.90068
7.01895
8.2152
9.60466
11.2335
13.1264
15.2832
17.6938
20.3374
23.1816
26.1705
29.211
32.16
34.8182
36.933
38.2538
38.6475
38.1598
36.9982
35.4348
33.6865
31.9254
30.3007
28.9411
27.9494
27.4023
27.3547
27.8451
28.9001
30.5392
32.7755
35.6149
39.0562
43.0906
47.702
52.867
58.5564
64.7363
71.3698
78.4183
85.8429
93.6055
101.67
110
118.565
127.335
136.281
145.379
154.605
163.935
173.348
182.822
192.337
201.87
211.398
220.898
230.346
239.714
248.976
258.099
267.054
275.807
284.326
292.575
300.519
308.119
315.337
322.138
328.485
334.345
339.693
344.508
348.771
352.468
355.588
358.13
360.1
361.51
362.385
362.757
362.671
362.188
361.381
360.352
359.215
358.123
357.191
356.641
356.686
357.539
359.415
362.477
366.891
372.773
380.228
389.292
399.96
412.116
425.807
440.348
455.651
471.292
486.758
501.573
515.187
527.069
536.718
543.711
547.711
548.491
545.936
540.039
530.921
518.846
504.161
487.37
468.78
448.515
426.657
403.564
379.89
356.213
332.928
310.367
288.777
268.341
249.164
231.277
214.617
199.1
184.669
171.284
158.91
147.51
137.046
127.47
118.729
110.756
103.485
96.8524
90.8077
85.3002
80.286
75.7177
71.5533
67.754
64.2856
61.1177
58.2214
55.5711
53.1441
50.9191
48.8741
46.9965
45.2702
43.6811
42.2167
40.8655
39.6181
38.4663
37.4023
36.418
35.507
34.6665
33.8948
33.1902
32.5559
32.0008
31.5408
31.2037
31.0457
31.1574
31.7064
32.9172
35.2921
39.1951
44.439
0
4.44302
8.76364
11.7265
13.6127
15.2176
16.7481
18.2636
19.816
21.4258
23.0878
24.7743
26.4398
28.0203
29.4322
30.5747
31.3393
31.6272
31.3798
30.6121
29.4245
27.9836
26.4792
25.0784
23.9119
23.0768
22.6451
22.6715
23.1997
24.2672
25.9077
28.1522
31.0285
34.5589
38.7589
43.6359
49.1875
55.4023
62.2595
69.7305
77.7801
86.3688
95.4543
104.993
114.94
125.252
135.888
146.807
157.973
169.35
180.906
192.611
204.436
216.354
228.337
240.359
252.394
264.415
276.395
288.303
300.11
311.781
323.283
334.576
345.624
356.384
366.816
376.873
386.51
395.679
404.334
412.43
419.923
426.775
432.953
438.428
443.173
447.166
450.392
452.843
454.518
455.423
455.579
455.019
453.795
451.983
449.701
447.124
444.378
441.677
439.233
437.28
436.101
435.928
436.99
439.484
443.596
449.464
457.188
466.787
478.174
491.342
505.799
521.314
537.425
553.591
569.277
583.865
596.753
607.345
615.138
619.721
620.79
618.182
611.874
602.019
588.945
572.941
554.185
532.862
509.236
483.997
457.831
431.319
404.908
379.014
353.936
329.937
307.169
285.75
265.689
246.96
229.489
213.234
198.139
184.171
171.281
159.428
148.559
138.611
129.513
121.192
113.583
106.628
100.275
94.4723
89.1685
84.3177
79.8793
75.8155
72.0919
68.6756
65.5384
62.6542
59.9996
57.5513
55.2926
53.2062
51.279
49.4962
47.8451
46.3148
44.8953
43.5775
42.3537
41.2173
40.1648
39.1948
38.3066
37.5066
36.8059
36.2252
35.797
35.5818
35.6729
36.2298
37.448
39.7202
43.243
47.6627
0
7.03507
13.3235
17.7626
20.4038
22.3749
23.9617
25.2452
26.3126
27.2102
27.9517
28.529
28.9217
29.1041
29.0488
28.7328
28.1446
27.2924
26.2129
24.9751
23.6778
22.4356
21.363
20.559
20.1014
20.0492
20.4489
21.3402
22.7611
24.7499
27.3457
30.5868
34.5087
39.1413
44.5074
50.6203
57.4832
65.0887
73.4191
82.4475
92.1394
102.455
113.351
124.782
136.701
149.059
161.811
174.91
188.315
201.985
215.884
229.974
244.223
258.597
273.063
287.59
302.148
316.704
331.226
345.681
360.03
374.236
388.255
402.045
415.557
428.744
441.552
453.928
465.814
477.152
487.884
497.952
507.301
515.878
523.638
530.535
536.532
541.593
545.692
548.805
550.919
552.027
552.135
551.266
549.463
546.802
543.425
539.499
535.208
530.784
526.433
522.47
519.177
516.819
515.681
516.002
518.036
521.968
527.963
536.079
546.265
558.501
572.385
587.705
603.896
620.431
636.688
652.008
665.693
677.069
685.524
690.585
691.873
689.229
682.596
671.997
657.528
639.351
617.716
593.278
566.751
538.78
509.967
480.866
451.95
423.622
396.197
369.92
344.958
321.413
299.314
278.639
259.343
241.372
224.679
209.212
194.928
181.771
169.684
158.596
148.43
139.11
130.567
122.739
115.57
109.001
102.981
97.4591
92.3925
87.7402
83.464
79.5286
75.9028
72.5582
69.4687
66.6105
63.9642
61.5112
59.235
57.1215
55.1598
53.337
51.6402
50.059
48.5851
47.2121
45.9368
44.7588
43.6798
42.707
41.8532
41.1427
40.6118
40.3222
40.3649
40.8844
42.0419
44.1327
47.1884
50.8321
0
9.14518
16.9046
22.5083
25.7298
27.9332
29.4864
30.5021
31.096
31.3412
31.2822
30.9463
30.3564
29.5392
28.5279
27.3642
26.0982
24.7886
23.5014
22.3069
21.2764
20.4779
19.972
19.8104
20.0368
20.6899
21.8065
23.4252
25.5874
28.3376
31.722
35.7858
40.5708
46.1125
52.4387
59.5678
67.5078
76.2555
85.7972
96.1093
107.16
118.912
131.325
144.355
157.953
172.071
186.662
201.676
217.07
232.8
248.827
265.111
281.613
298.294
315.119
332.05
349.051
366.088
383.122
400.113
417.019
433.792
450.382
466.738
482.802
498.516
513.818
528.641
542.916
556.573
569.541
581.749
593.129
603.616
613.149
621.672
629.135
635.492
640.704
644.739
647.569
649.177
649.556
648.713
646.68
643.529
639.394
634.455
628.935
623.057
617.098
611.352
606.116
601.708
598.427
596.589
596.478
598.361
602.44
608.843
617.55
628.547
641.543
656.282
672.218
688.786
705.302
721.052
735.269
747.182
756.125
761.557
762.932
759.878
752.188
739.798
722.876
701.934
677.665
650.677
621.629
591.143
559.867
528.339
497.072
466.446
436.804
408.372
381.339
355.791
331.782
309.289
288.287
268.715
250.528
233.668
218.083
203.712
190.486
178.329
167.159
156.897
147.47
138.814
130.865
123.565
116.856
110.688
105.013
99.7876
94.971
90.5259
86.4184
82.6181
79.0967
75.8295
72.7947
69.9723
67.3447
64.8967
62.6169
60.495
58.5143
56.663
54.9325
53.3167
51.8125
50.4204
49.1436
47.9909
46.9779
46.1304
45.4846
45.1019
45.067
45.5054
46.5417
48.3925
50.9493
53.893
0
10.3694
18.8037
24.942
28.4235
30.6727
32.1239
32.9073
33.1618
32.9862
32.4534
31.6242
30.5586
29.3218
27.9842
26.6196
25.3006
24.0956
23.0656
22.2628
21.7304
21.5033
21.6111
22.0807
22.9393
24.2178
25.9521
28.1835
30.9592
34.3298
38.3481
43.0652
48.5274
54.775
61.8402
69.7461
78.5053
88.1194
98.58
109.869
121.959
134.819
148.412
162.697
177.632
193.168
209.261
225.863
242.929
260.418
278.289
296.498
315.005
333.766
352.741
371.89
391.173
410.55
429.978
449.41
468.797
488.083
507.209
526.114
544.733
562.994
580.824
598.145
614.876
630.933
646.233
660.692
674.228
686.766
698.231
708.558
717.686
725.563
732.141
737.38
741.244
743.704
744.741
744.348
742.538
739.365
734.953
729.491
723.237
716.412
709.314
702.24
695.491
689.41
684.318
680.581
678.522
678.477
680.689
685.348
692.478
702.087
713.963
727.838
743.235
759.527
776.019
791.941
806.454
818.601
827.554
832.591
833.036
828.374
818.498
803.677
784.38
761.106
734.459
705.064
673.597
640.726
607.091
573.267
539.754
506.961
475.215
444.759
415.776
388.368
362.582
338.415
315.832
294.789
275.224
257.087
240.308
224.823
210.551
197.409
185.312
174.179
163.932
154.504
145.827
137.841
130.485
123.706
117.454
111.684
106.351
101.416
96.8439
92.6022
88.6612
84.9946
81.5791
78.3935
75.4189
72.6396
70.0431
67.6208
65.354
63.2302
61.2406
59.3795
57.6442
56.0359
54.5588
53.2233
52.0458
51.053
50.2822
49.7895
49.65
49.9694
50.837
52.4095
54.4704
56.8015
0
10.5886
18.7786
24.7189
28.1042
30.2283
31.5271
32.1558
32.2652
31.9705
31.3631
30.5217
29.5224
28.4427
27.3603
26.3492
25.4754
24.7943
24.3494
24.1721
24.2843
24.7024
25.4413
26.5179
27.9553
29.7847
32.0452
34.7833
38.0513
41.9053
46.4031
51.6001
57.5457
64.2873
71.8604
80.2927
89.6013
99.7935
110.867
122.812
135.607
149.233
163.652
178.833
194.737
211.326
228.556
246.387
264.777
283.685
303.07
322.891
343.104
363.663
384.526
405.648
426.988
448.501
470.139
491.847
513.569
535.24
556.792
578.155
599.252
620.003
640.321
660.117
679.297
697.764
715.422
732.176
747.932
762.602
776.103
788.361
799.311
808.892
817.055
823.754
828.95
832.605
834.691
835.182
834.075
831.399
827.25
821.862
815.446
808.303
800.704
792.917
785.282
778.106
771.76
766.601
763.031
761.398
762.012
765.099
770.761
779.008
789.714
802.613
817.256
832.975
848.95
864.298
878.181
889.523
897.323
900.706
899.123
892.352
880.417
863.553
842.134
816.666
787.728
755.984
722.148
686.953
651.033
615.002
579.341
544.495
510.756
478.402
447.617
418.507
391.106
365.424
341.416
319.048
298.25
278.967
261.124
244.643
229.434
215.409
202.48
190.561
179.575
169.446
160.11
151.498
143.551
136.212
129.429
123.153
117.34
111.947
106.94
102.282
97.9438
93.8975
90.1185
86.5843
83.2759
80.1764
77.2731
74.5558
72.0068
69.6137
67.368
65.2643
63.3005
61.4778
59.8019
58.2835
56.9397
55.797
54.8915
54.2745
54.0086
54.1795
54.8456
56.1198
57.709
59.513
0
9.82777
17.0011
22.1915
25.1708
27.02
28.1337
28.6867
28.8354
28.6984
28.3696
27.9269
27.4401
26.9742
26.589
26.3364
26.2586
26.3877
26.7453
27.3444
28.1929
29.2979
30.6692
32.3231
34.2853
36.5925
39.29
42.4287
46.0683
50.2687
55.0918
60.597
66.8346
73.8607
81.712
90.4228
100.016
110.507
121.899
134.192
147.372
161.43
176.329
192.052
208.571
225.852
243.864
262.57
281.937
301.923
322.489
343.596
365.203
387.262
409.728
432.556
455.702
479.115
502.74
526.517
550.38
574.256
598.07
621.739
645.18
668.299
690.998
713.176
734.726
755.54
775.511
794.531
812.496
829.307
844.876
859.121
871.974
883.374
893.272
901.623
908.384
913.516
916.984
918.746
918.782
917.081
913.739
908.959
903.008
896.207
888.752
880.939
873.064
865.429
858.406
852.363
847.737
844.917
844.27
846.083
850.472
857.408
866.645
878.093
891.352
905.702
920.267
934.267
946.55
956.157
962.119
963.66
960.234
951.555
937.6
918.595
894.916
867.043
835.793
801.767
765.708
728.34
690.328
652.28
614.686
578.014
542.56
508.534
476.155
445.532
416.714
389.696
364.45
340.924
319.056
298.787
280.031
262.695
246.681
231.895
218.247
205.648
194.018
183.281
173.367
164.208
155.741
147.906
140.651
133.924
127.679
121.874
116.471
111.434
106.732
102.335
98.2196
94.3609
90.7401
87.3397
84.1467
81.1481
78.3284
75.6762
73.1839
70.8465
68.6619
66.6321
64.7629
63.0654
61.5568
60.2625
59.2164
58.4637
58.0556
58.0586
58.5046
59.4763
60.6294
61.9866
0
8.34917
14.0595
18.164
20.529
21.9939
22.8983
23.4281
23.7374
23.9399
24.121
24.3431
24.655
25.0889
25.6717
26.4205
27.3455
28.4506
29.7346
31.1936
32.8255
34.6328
36.6251
38.822
41.2545
43.9697
47.0182
50.4539
54.3457
58.7554
63.7532
69.3993
75.7558
82.8721
90.7933
99.5582
109.197
119.733
131.179
143.541
156.818
171.004
186.094
202.072
218.919
236.609
255.116
274.409
294.463
315.226
336.681
358.788
381.515
404.802
428.612
452.896
477.606
502.686
528.072
553.701
579.497
605.383
631.271
657.073
682.69
708.018
732.946
757.36
781.143
804.176
826.339
847.513
867.584
886.441
903.99
920.148
934.846
948.024
959.638
969.654
978.033
984.734
989.712
992.931
994.315
993.849
991.579
987.75
982.705
976.651
969.858
962.568
955.037
947.58
940.524
934.278
929.263
925.915
924.55
925.334
928.439
933.938
941.837
951.852
963.452
976.088
989.029
1001.15
1011.56
1019.21
1023.1
1022.55
1017
1006.16
990.004
968.737
942.752
912.538
878.866
842.459
804.12
764.573
724.518
684.539
645.146
606.768
569.678
534.138
500.416
468.547
438.574
410.481
384.234
359.809
337.099
316.043
296.552
278.525
261.857
246.455
232.216
219.057
206.898
195.659
185.268
175.654
166.752
158.502
150.847
143.736
137.121
130.96
125.214
119.845
114.822
110.115
105.698
101.547
97.6438
93.9704
90.5119
87.2541
84.1836
81.2909
78.5687
76.0128
73.6213
71.3965
69.3445
67.4761
65.8082
64.3645
63.1758
62.281
61.721
61.5458
61.7652
62.4424
63.2012
64.1839
0
6.55932
10.6589
13.5541
15.1963
16.2084
16.8812
17.4051
17.9301
18.5576
19.3556
20.3603
21.5883
23.0355
24.6918
26.5358
28.5454
30.6909
32.9481
35.2968
37.7256
40.2336
42.832
45.5432
48.4083
51.4804
54.8124
58.4746
62.5325
67.0549
72.1158
77.7782
84.108
91.1617
98.9903
107.639
117.146
127.542
138.848
151.08
164.247
178.354
193.401
209.385
226.296
244.122
262.844
282.444
302.897
324.186
346.278
369.142
392.743
417.024
441.973
467.514
493.597
520.157
547.125
574.429
601.985
629.713
657.519
685.298
712.942
740.332
767.348
793.868
819.762
844.9
869.15
892.379
914.458
935.276
954.722
972.72
989.192
1004.09
1017.38
1029.05
1039.06
1047.37
1053.96
1058.73
1061.62
1062.51
1061.5
1058.91
1055.05
1050.16
1044.43
1038.09
1031.38
1024.6
1018.04
1012.11
1007.12
1003.45
1001.43
1001.39
1003.5
1007.63
1013.79
1021.89
1031.48
1041.93
1052.3
1061.91
1069.83
1074.99
1076.62
1073.77
1065.89
1052.68
1034.13
1010.44
982.04
949.492
913.556
875.016
834.673
793.273
751.5
709.956
669.127
629.486
591.229
554.589
519.816
486.984
456.118
427.216
400.226
375.116
351.761
330.147
310.137
291.62
274.489
258.646
243.993
230.427
217.875
206.26
195.507
185.545
176.307
167.731
159.76
152.344
145.433
138.984
132.956
127.312
122.022
117.053
112.379
107.978
103.831
99.9201
96.2283
92.7422
89.45
86.3432
83.4155
80.663
78.0845
75.6824
73.4628
71.4363
69.6187
68.0319
66.7031
65.6652
64.9499
64.5941
64.5901
64.9893
65.3981
66.0704
0
4.7997
7.41034
9.16819
10.099
10.6525
11.0876
11.5983
12.326
13.365
14.7646
16.5364
18.6678
21.1193
23.8405
26.7717
29.8573
33.0348
36.259
39.4927
42.7143
45.9206
49.1244
52.3474
55.6394
59.0484
62.6361
66.4746
70.6377
75.199
80.2347
85.8115
92.0053
98.88
106.494
114.901
124.146
134.268
145.299
157.267
170.192
184.089
198.969
214.841
231.708
249.566
268.408
288.218
308.982
330.676
353.278
376.754
401.07
426.205
452.112
478.721
505.978
533.818
562.171
590.961
620.105
649.528
679.106
708.728
738.265
767.587
796.56
825.058
852.943
880.074
906.302
931.485
955.489
978.18
999.459
1019.23
1037.42
1053.99
1068.93
1082.23
1093.9
1103.89
1112.15
1118.59
1123.07
1125.45
1125.88
1124.81
1122.44
1118.99
1114.6
1109.42
1103.69
1097.56
1091.42
1085.58
1080.49
1076.55
1073.95
1072.95
1073.58
1076.21
1080.67
1086.46
1093.4
1100.96
1108.77
1115.78
1121.06
1123.58
1122.4
1116.73
1106.06
1090.1
1068.87
1042.6
1011.72
976.877
938.824
898.371
856.3
813.368
770.232
727.49
685.61
645.001
605.933
568.627
533.241
499.86
468.496
439.15
411.769
386.329
362.671
340.753
320.452
301.654
284.252
268.156
253.228
239.401
226.609
214.761
203.779
193.593
184.135
175.346
167.161
159.529
152.404
145.743
139.505
133.652
128.154
122.978
118.103
113.504
109.16
105.054
101.171
97.4962
94.0194
90.7327
87.6308
84.7101
81.9705
79.4142
77.0471
74.8796
72.9263
71.2071
69.7456
68.5684
67.701
67.1684
66.9509
67.0937
67.1962
67.6156
0
3.28877
4.64398
5.42885
5.70869
5.82658
6.03546
6.53603
7.46842
8.91406
10.9026
13.4206
16.4199
19.8296
23.5688
27.5479
31.6819
35.8855
40.0898
44.2376
48.2936
52.2462
56.1038
59.8903
63.6446
67.4167
71.278
75.3083
79.5904
84.207
89.2452
94.7825
100.896
107.656
115.124
123.361
132.42
142.348
153.189
164.978
177.746
191.519
206.316
222.154
239.045
256.994
276.001
296.059
317.158
339.279
362.402
386.507
411.567
437.55
464.41
492.09
520.536
549.676
579.426
609.691
640.377
671.366
702.56
733.836
765.061
796.105
826.833
857.121
886.796
915.704
943.687
970.587
996.249
1020.54
1043.34
1064.55
1084.1
1101.97
1118.18
1132.76
1145.72
1157.02
1166.59
1174.31
1179.94
1183.37
1184.88
1184.89
1183.59
1181.06
1177.42
1172.83
1167.45
1161.66
1155.7
1149.88
1144.62
1140.06
1136.68
1134.77
1134.35
1135.15
1137.41
1140.89
1145.6
1150.9
1156.09
1160.37
1162.79
1162.39
1158.28
1149.73
1136.21
1117.52
1093.67
1064.92
1031.76
994.867
955.023
913.016
869.612
825.539
781.454
737.92
695.4
654.267
614.788
577.15
541.494
507.874
476.313
446.794
419.28
393.706
369.97
347.968
327.58
308.69
291.192
274.993
259.976
246.047
233.141
221.175
210.072
199.763
190.18
181.264
172.943
165.181
157.922
151.124
144.746
138.751
133.111
127.793
122.771
118.026
113.536
109.284
105.255
101.436
97.8164
94.3888
91.1487
88.0927
85.222
82.5386
80.048
77.7603
75.6889
73.8516
72.2676
70.9601
69.9478
69.2471
68.8302
68.7412
68.5775
68.7989
0
2.21412
2.6958
2.7884
2.59173
2.40149
2.47975
3.03317
4.19792
6.04361
8.58013
11.7745
15.5585
19.8399
24.5126
29.4574
34.5579
39.7099
44.8265
49.8396
54.7054
59.4028
63.936
68.3277
72.6184
76.8674
81.1444
85.5302
90.1093
94.9689
100.195
105.873
112.088
118.917
126.435
134.706
143.794
153.754
164.637
176.487
189.342
203.234
218.19
234.231
251.374
269.63
289.004
309.494
331.091
353.781
377.545
402.349
428.17
454.98
482.734
511.393
540.891
571.162
602.117
633.666
665.703
698.117
730.784
763.559
796.296
828.845
861.054
892.773
923.851
954.131
983.453
1011.66
1038.59
1064.1
1088.01
1110.23
1130.69
1149.41
1166.44
1181.86
1195.67
1207.82
1218.2
1226.61
1232.85
1236.7
1238.86
1239.46
1238.55
1236.3
1232.78
1228.04
1222.52
1216.3
1209.68
1203
1196.74
1191.26
1186.58
1182.72
1179.86
1178.47
1178.37
1179.39
1181.25
1183.5
1185.51
1186.53
1185.67
1182.04
1174.79
1163.23
1146.93
1125.7
1099.61
1068.92
1034.14
995.98
955.213
912.568
868.765
824.482
780.357
736.917
694.603
653.745
614.599
577.328
542.047
508.792
477.585
448.408
421.221
395.961
372.516
350.772
330.604
311.901
294.557
278.478
263.564
249.728
236.892
224.979
213.914
203.63
194.058
185.144
176.814
169.025
161.73
154.889
148.46
142.407
136.7
131.31
126.214
121.391
116.819
112.482
108.365
104.454
100.742
97.2197
93.8846
90.7331
87.7674
84.9899
82.4053
80.0236
77.8557
75.9185
74.2288
72.8048
71.6602
70.8053
70.208
69.9148
69.5207
69.5994
0
1.55649
1.55929
1.27135
0.835145
0.547029
0.678275
1.42847
2.91825
5.1989
8.26791
12.0757
16.5388
21.5479
26.98
32.7076
38.6075
44.5663
50.4875
56.2976
61.9462
67.4096
72.6881
77.8019
82.7897
87.7051
92.6209
97.6169
102.781
108.202
113.969
120.171
126.894
134.22
142.226
150.985
160.563
171.02
182.41
194.78
208.167
222.608
238.127
254.75
272.489
291.358
311.36
332.496
354.763
378.143
402.609
428.146
454.725
482.318
510.9
540.419
570.817
602.014
633.928
666.472
699.523
732.964
766.653
800.444
834.194
867.743
900.959
933.688
965.766
997.028
1027.31
1056.43