/*--------------------------------*- C++ -*----------------------------------*\
  =========                 |
  \\      /  F ield         | OpenFOAM: The Open Source CFD Toolbox
   \\    /   O peration     | Website:  https://openfoam.org
    \\  /    A nd           | Version:  9
     \\/     M anipulation  |
\*---------------------------------------------------------------------------*/
FoamFile
{
    format      ascii;
    class       volVectorField;
    location    "80";
    object      U;
}
// * * * * * * * * * * * * * * * * * * * * * * * * * * * * * * * * * * * * * //

dimensions      [0 1 -1 0 0 0 0];

internalField   nonuniform List<vector> 
12225
(
(9.85694 -0.886419 0)
(9.66645 -0.740699 0)
(9.45516 -0.429402 0)
(9.22341 -0.222083 0)
(9.0046 -0.106278 0)
(8.81148 -0.0456472 0)
(8.64326 -0.0149125 0)
(8.49963 0.0007926 0)
(8.37604 0.00880027 0)
(8.27113 0.0127913 0)
(8.17986 0.0146506 0)
(8.10032 0.0158741 0)
(8.02901 0.0165861 0)
(7.96421 0.0172758 0)
(7.90204 0.0180613 0)
(7.84454 0.020081 0)
(7.76195 0.0222386 0)
(7.75155 0.0384545 0)
(10.0545 0.227582 0)
(10.121 0.326967 0)
(10.1195 0.261678 0)
(10.0852 0.186716 0)
(10.0427 0.134918 0)
(9.99555 0.101451 0)
(9.94222 0.0797413 0)
(9.88258 0.065155 0)
(9.82022 0.0550177 0)
(9.75632 0.0476319 0)
(9.69326 0.0421427 0)
(9.63136 0.0379863 0)
(9.57161 0.0349094 0)
(9.51413 0.0329643 0)
(9.45793 0.0319244 0)
(9.40669 0.034501 0)
(9.3489 0.0356635 0)
(9.32334 0.0642936 0)
(10.0035 0.0579531 0)
(10.0302 0.0561046 0)
(10.0558 0.0339654 0)
(10.0698 0.0331705 0)
(10.0761 0.0410335 0)
(10.0764 0.047068 0)
(10.0705 0.0500414 0)
(10.0586 0.0511823 0)
(10.0423 0.0513178 0)
(10.0227 0.0509065 0)
(10.0006 0.0502736 0)
(9.97655 0.0496865 0)
(9.95106 0.0493055 0)
(9.92451 0.0494917 0)
(9.89664 0.0502488 0)
(9.869 0.0536735 0)
(9.83927 0.0579658 0)
(9.81588 0.0748183 0)
(9.99777 0.0111001 0)
(10.0109 0.0267363 0)
(10.0347 0.0373805 0)
(10.0519 0.0484382 0)
(10.0634 0.0559622 0)
(10.0719 0.0588716 0)
(10.0773 0.0592521 0)
(10.0794 0.0587695 0)
(10.0788 0.0580444 0)
(10.0761 0.0572644 0)
(10.0716 0.0565465 0)
(10.0655 0.0560716 0)
(10.0579 0.0559226 0)
(10.0493 0.0564341 0)
(10.0393 0.0577227 0)
(10.0291 0.061207 0)
(10.0184 0.0661529 0)
(10.011 0.0774859 0)
(9.99933 0.00726182 0)
(10.0089 0.0318236 0)
(10.0271 0.0442279 0)
(10.0412 0.0503957 0)
(10.0517 0.0542745 0)
(10.0613 0.0561163 0)
(10.0693 0.0566601 0)
(10.0753 0.0566952 0)
(10.0794 0.0565566 0)
(10.0821 0.0563661 0)
(10.0835 0.0562268 0)
(10.0838 0.0563054 0)
(10.0831 0.0567194 0)
(10.0815 0.0577569 0)
(10.0791 0.059602 0)
(10.0766 0.0631045 0)
(10.0745 0.0679994 0)
(10.075 0.0757122 0)
(10.0003 0.00926173 0)
(10.0082 0.0313854 0)
(10.0224 0.0413329 0)
(10.0343 0.0459797 0)
(10.044 0.0498494 0)
(10.0532 0.0524527 0)
(10.0615 0.0537561 0)
(10.0684 0.05438 0)
(10.0739 0.0547281 0)
(10.0784 0.0549704 0)
(10.0819 0.0552326 0)
(10.0846 0.0556789 0)
(10.0865 0.0564464 0)
(10.0878 0.0577697 0)
(10.0886 0.0598258 0)
(10.0896 0.0630805 0)
(10.0911 0.0673791 0)
(10.0948 0.0728378 0)
(10.0004 0.00904842 0)
(10.007 0.0273494 0)
(10.0188 0.036884 0)
(10.0295 0.0420941 0)
(10.0386 0.0463899 0)
(10.0471 0.0493769 0)
(10.0551 0.0510238 0)
(10.062 0.0519464 0)
(10.0678 0.0525759 0)
(10.0729 0.0530922 0)
(10.0772 0.0536217 0)
(10.0809 0.0543145 0)
(10.0839 0.0553064 0)
(10.0866 0.0567761 0)
(10.089 0.0588599 0)
(10.0917 0.061781 0)
(10.0949 0.0653901 0)
(10.0998 0.0693666 0)
(10.0004 0.00804042 0)
(10.0059 0.0236917 0)
(10.0158 0.0332911 0)
(10.0257 0.0389334 0)
(10.0341 0.0432486 0)
(10.0421 0.0463012 0)
(10.0496 0.048144 0)
(10.0563 0.0492939 0)
(10.0622 0.0501451 0)
(10.0674 0.0508762 0)
(10.0721 0.0516115 0)
(10.0762 0.0524855 0)
(10.0799 0.0536218 0)
(10.0832 0.0551494 0)
(10.0865 0.0571575 0)
(10.09 0.0597234 0)
(10.0941 0.0626882 0)
(10.0993 0.0656351 0)
(10.0004 0.00710629 0)
(10.005 0.0207888 0)
(10.0134 0.0300981 0)
(10.0223 0.0358265 0)
(10.0302 0.0400424 0)
(10.0377 0.0431209 0)
(10.0448 0.0451415 0)
(10.0513 0.0464964 0)
(10.0572 0.0475344 0)
(10.0624 0.0484383 0)
(10.0671 0.049332 0)
(10.0715 0.0503353 0)
(10.0755 0.0515529 0)
(10.0793 0.0530741 0)
(10.0831 0.0549459 0)
(10.087 0.0571655 0)
(10.0915 0.0595756 0)
(10.0967 0.0617918 0)
(10.0004 0.00629734 0)
(10.0042 0.0182721 0)
(10.0114 0.0270091 0)
(10.0193 0.0326781 0)
(10.0268 0.0368143 0)
(10.0338 0.0399076 0)
(10.0406 0.0420635 0)
(10.0468 0.0435826 0)
(10.0525 0.0447705 0)
(10.0577 0.0458105 0)
(10.0625 0.0468231 0)
(10.067 0.0479128 0)
(10.0712 0.0491643 0)
(10.0753 0.0506363 0)
(10.0793 0.0523449 0)
(10.0836 0.0542484 0)
(10.0881 0.0562053 0)
(10.0932 0.0579027 0)
(10.0003 0.00555943 0)
(10.0036 0.0160088 0)
(10.0097 0.0240548 0)
(10.0168 0.0295682 0)
(10.0237 0.0336092 0)
(10.0303 0.0366758 0)
(10.0367 0.0389075 0)
(10.0427 0.0405436 0)
(10.0483 0.0418464 0)
(10.0535 0.0429902 0)
(10.0583 0.0440876 0)
(10.0628 0.0452278 0)
(10.0672 0.0464771 0)
(10.0714 0.047873 0)
(10.0756 0.0494124 0)
(10.08 0.0510401 0)
(10.0845 0.0526417 0)
(10.0894 0.0539736 0)
(10.0003 0.00491462 0)
(10.0031 0.0141182 0)
(10.0084 0.0214932 0)
(10.0148 0.0267806 0)
(10.0212 0.0306956 0)
(10.0274 0.0336996 0)
(10.0335 0.0359563 0)
(10.0393 0.037662 0)
(10.0448 0.0390401 0)
(10.0499 0.0402522 0)
(10.0547 0.0414017 0)
(10.0593 0.0425627 0)
(10.0637 0.0437874 0)
(10.0681 0.045101 0)
(10.0724 0.046492 0)
(10.0767 0.0479079 0)
(10.0812 0.0492588 0)
(10.0859 0.0503585 0)
(10.0003 0.0043214 0)
(10.0027 0.0123841 0)
(10.0073 0.0190626 0)
(10.013 0.0240455 0)
(10.019 0.0277954 0)
(10.0249 0.0307056 0)
(10.0307 0.0329496 0)
(10.0363 0.0346902 0)
(10.0417 0.0361129 0)
(10.0467 0.0373647 0)
(10.0515 0.0385404 0)
(10.0561 0.0397019 0)
(10.0606 0.0408871 0)
(10.065 0.0421128 0)
(10.0693 0.0433667 0)
(10.0737 0.0446051 0)
(10.0781 0.0457625 0)
(10.0826 0.0466894 0)
(10.0002 0.00371002 0)
(10.0023 0.0105836 0)
(10.0063 0.0164565 0)
(10.0114 0.0210126 0)
(10.0169 0.0245172 0)
(10.0224 0.0272734 0)
(10.0279 0.0294529 0)
(10.0333 0.0311895 0)
(10.0385 0.0326271 0)
(10.0435 0.0338904 0)
(10.0483 0.0350681 0)
(10.0529 0.03621 0)
(10.0574 0.0373422 0)
(10.0618 0.0384717 0)
(10.0661 0.0395904 0)
(10.0704 0.0406665 0)
(10.0747 0.0416625 0)
(10.0791 0.0424542 0)
(10.0002 0.00307494 0)
(10.002 0.00870986 0)
(10.0054 0.0136755 0)
(10.0099 0.0176721 0)
(10.0149 0.0208276 0)
(10.02 0.0233506 0)
(10.0252 0.0253916 0)
(10.0304 0.0270632 0)
(10.0354 0.0284694 0)
(10.0403 0.0297062 0)
(10.045 0.0308483 0)
(10.0497 0.0319396 0)
(10.0541 0.032998 0)
(10.0585 0.0340258 0)
(10.0629 0.0350145 0)
(10.0671 0.0359488 0)
(10.0713 0.0368103 0)
(10.0755 0.0375046 0)
(10.0002 0.00241269 0)
(10.0017 0.00676062 0)
(10.0046 0.0107199 0)
(10.0086 0.0140166 0)
(10.0131 0.0166967 0)
(10.0179 0.0188862 0)
(10.0228 0.0206968 0)
(10.0277 0.0222198 0)
(10.0326 0.023529 0)
(10.0374 0.024689 0)
(10.0421 0.0257519 0)
(10.0466 0.0267569 0)
(10.0511 0.0277187 0)
(10.0555 0.028639 0)
(10.0597 0.0295105 0)
(10.0639 0.0303258 0)
(10.068 0.0310838 0)
(10.072 0.0317077 0)
(10.0002 0.00171608 0)
(10.0015 0.00471586 0)
(10.004 0.00756072 0)
(10.0076 0.0100116 0)
(10.0117 0.0120705 0)
(10.0162 0.0138017 0)
(10.0208 0.0152728 0)
(10.0255 0.016546 0)
(10.0302 0.017672 0)
(10.0349 0.0186865 0)
(10.0395 0.0196215 0)
(10.0441 0.0205013 0)
(10.0485 0.0213414 0)
(10.0528 0.0221424 0)
(10.057 0.0229024 0)
(10.0611 0.0236151 0)
(10.0652 0.0242896 0)
(10.069 0.0248596 0)
(10.0001 0.00096353 0)
(10.0013 0.00251388 0)
(10.0036 0.00411032 0)
(10.0069 0.00555326 0)
(10.0108 0.00682526 0)
(10.015 0.00794941 0)
(10.0195 0.00895296 0)
(10.024 0.00986267 0)
(10.0287 0.0107043 0)
(10.0332 0.0114931 0)
(10.0378 0.0122403 0)
(10.0423 0.0129546 0)
(10.0467 0.013644 0)
(10.051 0.0143093 0)
(10.0551 0.0149498 0)
(10.0592 0.0155619 0)
(10.0632 0.0161541 0)
(10.067 0.0166697 0)
(10.0001 0.000103171 0)
(10.0013 1.82178e-05 0)
(10.0035 0.000165191 0)
(10.0067 0.000401672 0)
(10.0105 0.00070739 0)
(10.0147 0.00106739 0)
(10.0191 0.00146977 0)
(10.0237 0.0019016 0)
(10.0283 0.00236119 0)
(10.0329 0.00284121 0)
(10.0374 0.00333735 0)
(10.0419 0.00383988 0)
(10.0463 0.00434717 0)
(10.0506 0.00485297 0)
(10.0548 0.00535733 0)
(10.0588 0.00585399 0)
(10.0628 0.00634995 0)
(10.0665 0.00679234 0)
(10.0002 -0.000736852 0)
(10.0014 -0.00239804 0)
(10.0038 -0.00367469 0)
(10.0072 -0.00461751 0)
(10.0113 -0.00524571 0)
(10.0157 -0.00561729 0)
(10.0203 -0.00579136 0)
(10.025 -0.00580634 0)
(10.0297 -0.00570049 0)
(10.0344 -0.00549849 0)
(10.039 -0.00523077 0)
(10.0436 -0.00491409 0)
(10.048 -0.00456913 0)
(10.0524 -0.00419867 0)
(10.0566 -0.00381449 0)
(10.0606 -0.00341624 0)
(10.0646 -0.003011 0)
(10.0684 -0.00263733 0)
(10.0002 -0.00146872 0)
(10.0015 -0.00452129 0)
(10.0043 -0.00705228 0)
(10.0081 -0.00896926 0)
(10.0125 -0.0103145 0)
(10.0173 -0.0112361 0)
(10.0221 -0.011838 0)
(10.0271 -0.0121764 0)
(10.032 -0.0123092 0)
(10.0368 -0.0122881 0)
(10.0416 -0.0121621 0)
(10.0462 -0.0119633 0)
(10.0507 -0.0117194 0)
(10.0551 -0.0114385 0)
(10.0594 -0.0111334 0)
(10.0635 -0.0108081 0)
(10.0675 -0.0104705 0)
(10.0713 -0.0101563 0)
(10.0002 -0.00216633 0)
(10.0017 -0.00662239 0)
(10.0049 -0.0104281 0)
(10.0093 -0.0132298 0)
(10.0143 -0.0151425 0)
(10.0194 -0.0164757 0)
(10.0246 -0.0173866 0)
(10.0299 -0.0179542 0)
(10.035 -0.018254 0)
(10.0401 -0.0183636 0)
(10.045 -0.0183358 0)
(10.0497 -0.0182199 0)
(10.0543 -0.0180389 0)
(10.0587 -0.0178191 0)
(10.063 -0.0175627 0)
(10.0672 -0.0172917 0)
(10.0712 -0.0170012 0)
(10.075 -0.0167339 0)
(10.0002 -0.0028206 0)
(10.0018 -0.00874781 0)
(10.0056 -0.013823 0)
(10.0109 -0.017407 0)
(10.0165 -0.0198356 0)
(10.0221 -0.0215262 0)
(10.0277 -0.0226327 0)
(10.0332 -0.0232858 0)
(10.0386 -0.0236405 0)
(10.0438 -0.0238021 0)
(10.0488 -0.0238287 0)
(10.0537 -0.0237596 0)
(10.0583 -0.0236241 0)
(10.0628 -0.0234414 0)
(10.0672 -0.0232271 0)
(10.0714 -0.0229932 0)
(10.0754 -0.0227476 0)
(10.0792 -0.022514 0)
(10.0001 -0.00339945 0)
(10.0019 -0.0112652 0)
(10.0065 -0.0173751 0)
(10.0127 -0.0212237 0)
(10.019 -0.0240324 0)
(10.0251 -0.0261761 0)
(10.0311 -0.0275376 0)
(10.037 -0.0282565 0)
(10.0426 -0.0286015 0)
(10.0479 -0.02874 0)
(10.0531 -0.0287471 0)
(10.058 -0.0286626 0)
(10.0627 -0.0285219 0)
(10.0673 -0.0283409 0)
(10.0717 -0.02814 0)
(10.0758 -0.0279238 0)
(10.0799 -0.0277052 0)
(10.0837 -0.0274899 0)
(9.99993 -0.00327814 0)
(10.0017 -0.0147412 0)
(10.0075 -0.0223226 0)
(10.0147 -0.0256414 0)
(10.0213 -0.0280169 0)
(10.0279 -0.0301636 0)
(10.0346 -0.0316677 0)
(10.041 -0.0325324 0)
(10.047 -0.0329927 0)
(10.0525 -0.0332017 0)
(10.0578 -0.0332361 0)
(10.0628 -0.0331532 0)
(10.0676 -0.0329992 0)
(10.0721 -0.0328048 0)
(10.0763 -0.0325879 0)
(10.0803 -0.032363 0)
(10.0842 -0.032134 0)
(10.0878 -0.0319114 0)
(9.99862 -0.000321854 0)
(9.99916 -0.0155849 0)
(10.0078 -0.0271202 0)
(10.0171 -0.0320398 0)
(10.0245 -0.0342571 0)
(10.0317 -0.0354369 0)
(10.0391 -0.0360089 0)
(10.0461 -0.0362983 0)
(10.0524 -0.0364646 0)
(10.0581 -0.0365189 0)
(10.0633 -0.0364623 0)
(10.0681 -0.0363182 0)
(10.0724 -0.0361232 0)
(10.0764 -0.0358976 0)
(10.08 -0.0356566 0)
(10.0833 -0.035414 0)
(10.0863 -0.035171 0)
(10.0891 -0.034939 0)
(9.9949 0.00138845 0)
(9.99296 -0.00797253 0)
(10.0063 -0.020133 0)
(10.0206 -0.0319447 0)
(10.0314 -0.0400352 0)
(10.0403 -0.0435874 0)
(10.0482 -0.044364 0)
(10.0548 -0.0440778 0)
(10.0603 -0.0434671 0)
(10.0647 -0.0427242 0)
(10.0683 -0.0419253 0)
(10.0712 -0.0411293 0)
(10.0734 -0.0403732 0)
(10.075 -0.0396632 0)
(10.0761 -0.0390062 0)
(10.0769 -0.0384039 0)
(10.0773 -0.0378582 0)
(10.0774 -0.037345 0)
(9.99474 -0.0305275 0)
(9.99932 -0.0227823 0)
(10.0149 -0.0024852 0)
(10.0308 -0.00166686 0)
(10.0441 -0.0113245 0)
(10.0543 -0.0205052 0)
(10.0607 -0.0267757 0)
(10.0636 -0.0309087 0)
(10.0638 -0.0335811 0)
(10.0619 -0.0351687 0)
(10.0585 -0.0359854 0)
(10.0539 -0.0363085 0)
(10.0483 -0.0363235 0)
(10.0421 -0.0361477 0)
(10.0354 -0.0358657 0)
(10.0283 -0.0355363 0)
(10.0211 -0.0352273 0)
(10.0137 -0.0349122 0)
(10.0273 -0.182735 0)
(10.0763 -0.288267 0)
(10.0872 -0.247659 0)
(10.078 -0.186384 0)
(10.0668 -0.140097 0)
(10.0544 -0.107952 0)
(10.0375 -0.0855526 0)
(10.016 -0.0700352 0)
(9.99129 -0.0592045 0)
(9.96481 -0.0513571 0)
(9.93746 -0.0454591 0)
(9.90981 -0.0408935 0)
(9.88237 -0.0372747 0)
(9.85547 -0.0343364 0)
(9.82935 -0.0319047 0)
(9.80409 -0.0299121 0)
(9.77997 -0.0283156 0)
(9.7569 -0.0274288 0)
(9.93577 0.68933 0)
(9.86874 0.609639 0)
(9.76491 0.380705 0)
(9.62739 0.217546 0)
(9.48714 0.119399 0)
(9.35906 0.0633604 0)
(9.24525 0.0317828 0)
(9.14451 0.0138492 0)
(9.05575 0.0035245 0)
(8.9778 -0.00250028 0)
(8.90898 -0.00601602 0)
(8.84795 -0.00810144 0)
(8.79346 -0.00931954 0)
(8.74464 -0.0100404 0)
(8.70056 -0.0105027 0)
(8.66059 -0.0107372 0)
(8.62384 -0.0109101 0)
(8.58987 -0.0115178 0)
(0.016243 -0.0133436 -4.45458e-19)
(0.0556075 -0.0391862 1.97104e-19)
(0.0924018 -0.0496445 0)
(0.137559 -0.0518013 0)
(0.179326 -0.0502952 0)
(0.215187 -0.0506701 -7.92223e-20)
(0.242999 -0.0634047 0)
(0.269426 -0.0689928 0)
(0.294934 -0.0465278 0)
(0.30784 -0.0302366 0)
(0.312899 -0.0151502 1.46863e-19)
(0.308571 -0.000513521 0)
(0.296528 0.0123659 0)
(0.278146 0.0225117 0)
(0.255384 0.0292946 0)
(0.233833 0.035939 1.67012e-19)
(0.192201 0.0548393 0)
(0.145638 0.0578383 0)
(0.110894 0.0485176 0)
(0.0740179 0.046577 0)
(0.0432326 0.0571368 0)
(0.0136466 0.0631531 0)
(-0.0609617 0.0540421 0)
(-0.10466 0.0558148 2.09715e-19)
(-0.163677 0.0601117 -1.77105e-19)
(-0.231553 0.0656542 1.51138e-19)
(-0.306991 0.0718324 1.30537e-19)
(-0.389463 0.0781893 0)
(-0.478221 0.0843067 0)
(-0.572237 0.0897738 -8.97631e-20)
(-0.670367 0.0942529 -8.07937e-20)
(-0.771256 0.0974064 0)
(-0.873697 0.0991829 0)
(-0.976481 0.0996176 -6.22383e-20)
(-1.07854 0.0988146 0)
(-1.17898 0.0969478 0)
(-1.27711 0.0942373 5.13625e-20)
(-1.37239 0.0909144 0)
(-1.46451 0.0871965 4.65575e-20)
(-1.55328 0.0832714 8.92799e-20)
(-1.63865 0.0792945 0)
(-1.72067 0.0753891 0)
(-1.79949 0.071645 0)
(-1.87527 0.0681261 0)
(-1.94826 0.0648697 0)
(-2.0187 0.0618999 7.41813e-20)
(-2.08685 0.0592239 7.24829e-20)
(-2.15297 0.0568409 7.09285e-20)
(-2.21731 0.0547403 0)
(-2.28011 0.0529094 -6.81706e-20)
(-2.34161 0.0513283 0)
(-2.40203 0.0499815 6.57798e-20)
(-2.46156 0.0488536 6.46936e-20)
(-2.52038 0.0479283 0)
(-2.57866 0.0471852 0)
(-2.63656 0.0466092 0)
(-2.6942 0.0461893 6.08955e-20)
(-2.7517 0.0459122 0)
(-2.80914 0.0457613 0)
(-2.86664 0.0457241 0)
(-2.92424 0.0457931 0)
(-2.98198 0.0459531 0)
(-3.03989 0.046188 0)
(-3.09799 0.0464759 0)
(-3.15628 0.0467973 0)
(-3.21476 0.0471264 -5.4542e-20)
(-3.27337 0.047441 0)
(-3.33208 0.0477115 0)
(-3.39081 0.0479109 5.3018e-20)
(-3.44946 0.0480054 5.25783e-20)
(-3.50794 0.0479605 0)
(-3.56611 0.0477409 -5.17986e-20)
(-3.62384 0.0473105 5.14552e-20)
(-3.68097 0.0466471 0)
(-3.73731 0.0457291 -5.08504e-20)
(-3.79264 0.0445517 0)
(-3.84669 0.0431176 0)
(-3.89917 0.041437 5.01391e-20)
(-3.94978 0.0395222 0)
(-3.9982 0.0373943 -4.98042e-20)
(-4.04405 0.0350776 0)
(-4.08696 0.032593 4.95999e-20)
(-4.12648 0.0299527 4.95533e-20)
(-4.16218 0.0271557 4.95441e-20)
(-4.19348 0.0242118 9.91476e-20)
(-4.21984 0.0210981 -9.92756e-20)
(-4.24061 0.0178631 0)
(-4.25527 0.0145147 0)
(-4.26325 0.0112201 0)
(-4.26497 0.0081175 -9.97913e-20)
(-4.26084 0.00494365 -9.97451e-20)
(-4.2508 0.00161681 9.96127e-20)
(-4.23462 -0.00193278 0)
(-4.21205 -0.00570529 -9.89775e-20)
(-4.18279 -0.00970943 -9.84101e-20)
(-4.14663 -0.0139219 -9.76289e-20)
(-4.10334 -0.0184114 0)
(-4.05275 -0.0230122 0)
(-3.99474 -0.0279853 0)
(-3.92921 -0.0329574 -9.14965e-20)
(-3.8562 -0.0378818 0)
(-3.77568 -0.0431509 0)
(-3.68774 -0.0484005 8.24511e-20)
(-3.59254 -0.0536765 0)
(-3.49033 -0.0588835 0)
(-3.38138 -0.06399 6.80121e-20)
(-3.266 -0.0689475 0)
(-3.14459 -0.0737085 0)
(-3.01758 -0.0782162 -4.68354e-20)
(-2.88548 -0.0824343 -3.80506e-20)
(-2.74881 -0.0863227 0)
(-2.60817 -0.0898631 1.7623e-20)
(-2.46415 -0.0930395 0)
(-2.31738 -0.0958301 6.95373e-21)
(-2.1685 -0.0982142 0)
(-2.01815 -0.100177 3.61628e-20)
(-1.86698 -0.101741 5.27048e-20)
(-1.71567 -0.102907 0)
(-1.56482 -0.10372 0)
(-1.41495 -0.104153 0)
(-1.26649 -0.104265 0)
(-1.11983 -0.104104 0)
(-0.975403 -0.103699 0)
(-0.833623 -0.103093 0)
(-0.694834 -0.102373 2.54916e-19)
(-0.559319 -0.101526 -2.94273e-19)
(-0.427275 -0.100573 0)
(-0.298598 -0.0995075 0)
(-0.17434 -0.0985594 0)
(-0.051276 -0.0962888 0)
(0.0721628 -0.0917588 -9.18013e-19)
(0.191205 -0.0861327 0)
(0.305396 -0.0804928 8.34616e-19)
(0.414517 -0.075102 -8.02946e-19)
(0.518478 -0.0700477 0)
(0.617373 -0.0653045 0)
(0.71137 -0.0608996 0)
(0.800644 -0.0567979 7.13706e-19)
(0.885385 -0.0530022 6.97405e-19)
(0.965779 -0.049454 0)
(1.04213 -0.046145 6.69448e-19)
(1.11466 -0.0430795 6.57333e-19)
(1.18363 -0.0402459 -6.4623e-19)
(1.24923 -0.0375988 0)
(1.31159 -0.0351254 0)
(1.37087 -0.0328238 -6.17716e-19)
(1.42725 -0.0306778 0)
(1.48087 -0.0286865 0)
(1.53192 -0.0268258 0)
(1.58051 -0.0250776 0)
(1.62681 -0.0234606 5.81855e-19)
(1.67095 -0.0219769 5.76021e-19)
(1.71308 -0.0206124 0)
(1.75333 -0.0193475 5.65346e-19)
(1.79182 -0.0181587 0)
(1.82871 -0.0170575 0)
(1.86411 -0.0160623 5.5142e-19)
(1.89812 -0.0151399 0)
(1.93086 -0.014287 5.43276e-19)
(1.96243 -0.013504 0)
(1.99295 -0.0127909 0)
(2.02249 -0.0121383 5.32351e-19)
(2.05114 -0.0115404 0)
(2.07899 -0.0110088 5.25761e-19)
(2.10609 -0.0104979 0)
(2.13254 -0.0100175 0)
(2.15837 -0.00960629 0)
(2.1836 -0.00920263 -5.13868e-19)
(2.20826 -0.00880276 0)
(2.23235 -0.008445 5.08547e-19)
(2.25576 -0.00805213 0)
(2.27841 -0.00757308 0)
(2.3001 -0.00708282 0)
(2.32041 -0.00650278 0)
(2.33884 -0.00567719 0)
(2.35368 -0.00447234 0)
(2.36474 -0.00179338 0)
(2.35837 0.0034213 -1.00679e-18)
(2.34058 0.0159363 0)
(2.22064 0.0333523 0)
(0.0274908 -0.111397 1.02145e-18)
(0.0767236 -0.14894 -4.42806e-19)
(0.11467 -0.142844 0)
(0.148533 -0.127923 1.34504e-19)
(0.175975 -0.109732 0)
(0.196558 -0.0899896 5.1098e-20)
(0.209182 -0.070551 -1.01801e-19)
(0.213329 -0.0520383 -1.11535e-19)
(0.212329 -0.0320461 0)
(0.206997 -0.0112366 -1.20267e-19)
(0.196602 0.00983295 -6.07823e-20)
(0.181977 0.030121 0)
(0.162155 0.048322 0)
(0.136821 0.0638299 0)
(0.105657 0.0765424 0)
(0.0682985 0.0862305 -6.31562e-20)
(0.0261844 0.0930803 0)
(-0.014705 0.0959666 1.00988e-19)
(-0.0616808 0.0998636 0)
(-0.118073 0.107918 0)
(-0.181677 0.125693 -8.47767e-20)
(-0.261078 0.153393 0)
(-0.347273 0.171353 9.00845e-20)
(-0.440185 0.186492 -4.35039e-20)
(-0.536184 0.20167 4.11869e-20)
(-0.635158 0.216482 -3.88702e-20)
(-0.736649 0.230081 -3.66669e-20)
(-0.839757 0.241628 0)
(-0.943414 0.250473 0)
(-1.04654 0.256231 3.10252e-20)
(-1.1481 0.258861 -2.90436e-20)
(-1.24732 0.25852 0)
(-1.3436 0.25544 0)
(-1.43646 0.250071 2.57447e-20)
(-1.52563 0.242912 0)
(-1.61102 0.234453 0)
(-1.69266 0.225151 -2.31004e-20)
(-1.77069 0.215409 0)
(-1.84531 0.205568 2.14966e-20)
(-1.91677 0.195898 -4.24759e-20)
(-1.98534 0.186602 0)
(-2.0513 0.177822 0)
(-2.11493 0.16965 -7.90625e-20)
(-2.1765 0.162137 -7.76203e-20)
(-2.23627 0.155301 -7.63082e-20)
(-2.29447 0.149136 3.72962e-20)
(-2.35133 0.143621 -3.72642e-20)
(-2.40704 0.138724 -1.09763e-19)
(-2.46178 0.134403 7.20718e-20)
(-2.51571 0.130612 3.58617e-20)
(-2.56899 0.127305 0)
(-2.62172 0.124432 -3.50896e-20)
(-2.67403 0.12195 3.42208e-20)
(-2.72599 0.119814 0)
(-2.7777 0.117977 0)
(-2.82921 0.116394 0)
(-2.88057 0.115029 -3.35588e-20)
(-2.93181 0.113842 0)
(-2.98295 0.112795 6.55924e-20)
(-3.034 0.11185 0)
(-3.08496 0.110979 6.47107e-20)
(-3.13579 0.110151 0)
(-3.18646 0.10934 -6.39299e-20)
(-3.23694 0.108514 0)
(-3.28716 0.107648 6.32498e-20)
(-3.33705 0.106714 -3.11908e-20)
(-3.38655 0.105692 0)
(-3.43554 0.104556 -6.24325e-20)
(-3.48391 0.103288 -3.14068e-20)
(-3.53155 0.101858 -3.13198e-20)
(-3.57832 0.100242 0)
(-3.62405 0.0984038 -3.05638e-20)
(-3.6686 0.0963049 -3.11395e-20)
(-3.71179 0.0939082 0)
(-3.75345 0.0911736 3.10728e-20)
(-3.79338 0.0880689 -6.14967e-20)
(-3.83136 0.0845661 0)
(-3.86718 0.0806369 -3.10311e-20)
(-3.90061 0.0762518 0)
(-3.93144 0.0713826 9.26287e-20)
(-3.95944 0.0660072 0)
(-3.98443 0.0601046 -9.28417e-20)
(-4.00625 0.0536614 -3.11252e-20)
(-4.02478 0.0466715 3.08103e-20)
(-4.03997 0.039179 6.17582e-20)
(-4.05179 0.0312333 -6.18807e-20)
(-4.06026 0.0229737 0)
(-4.06526 0.0145028 0)
(-4.06659 0.00602251 0)
(-4.06322 -0.0024679 1.87277e-19)
(-4.05443 -0.0111428 6.2501e-20)
(-4.03992 -0.0200994 -6.22578e-20)
(-4.0194 -0.0293719 0)
(-3.99255 -0.0388962 -6.10753e-20)
(-3.95908 -0.0486478 6.09094e-20)
(-3.91874 -0.058558 6.01923e-20)
(-3.87132 -0.0685922 0)
(-3.81662 -0.0786789 0)
(-3.75453 -0.0887875 0)
(-3.68497 -0.0988198 5.54322e-20)
(-3.60784 -0.108719 0)
(-3.52319 -0.118399 -1.04361e-19)
(-3.43111 -0.127732 -1.49373e-19)
(-3.33172 -0.136678 9.5042e-20)
(-3.22529 -0.145224 0)
(-3.11207 -0.153244 4.26452e-20)
(-2.99239 -0.160632 0)
(-2.86668 -0.167353 6.84526e-20)
(-2.73539 -0.173341 -3.1568e-20)
(-2.59905 -0.178561 -2.71635e-20)
(-2.45823 -0.182967 0)
(-2.31356 -0.186534 -4.42834e-20)
(-2.16567 -0.189238 1.96958e-20)
(-2.01524 -0.191098 1.87101e-21)
(-1.86296 -0.192127 0)
(-1.70948 -0.192337 -1.09014e-20)
(-1.55546 -0.191769 -4.83861e-20)
(-1.40157 -0.190475 0)
(-1.24841 -0.188522 -5.90533e-20)
(-1.0965 -0.185967 -7.38987e-20)
(-0.946274 -0.182897 -8.91601e-20)
(-0.798164 -0.179361 0)
(-0.652574 -0.175454 0)
(-0.509896 -0.171277 0)
(-0.370438 -0.16694 7.45897e-20)
(-0.234454 -0.162502 8.8009e-20)
(-0.101741 -0.158228 0)
(0.0280575 -0.154318 1.9713e-19)
(0.154166 -0.150685 2.03918e-19)
(0.275152 -0.146139 0)
(0.390413 -0.139981 2.20034e-19)
(0.500483 -0.13289 4.44427e-19)
(0.606185 -0.125633 -2.30787e-19)
(0.707705 -0.118488 -2.29524e-19)
(0.805063 -0.111615 0)
(0.8983 -0.105048 0)
(0.987483 -0.0988322 0)
(1.07269 -0.0929546 -2.50726e-19)
(1.15403 -0.0874241 2.49319e-19)
(1.23163 -0.082211 5.08615e-19)
(1.30568 -0.077315 -2.58713e-19)
(1.37635 -0.0727197 2.57336e-19)
(1.4438 -0.0684057 2.62787e-19)
(1.50819 -0.0643602 0)
(1.56963 -0.0605638 0)
(1.62826 -0.0570132 -2.64695e-19)
(1.68423 -0.0536906 0)
(1.73766 -0.0505904 0)
(1.78869 -0.0476968 5.38735e-19)
(1.83746 -0.0449962 0)
(1.8841 -0.0424826 2.70234e-19)
(1.92875 -0.0401506 -2.72759e-19)
(1.97154 -0.0379859 0)
(2.0126 -0.0359824 2.72419e-19)
(2.05204 -0.0341323 0)
(2.08998 -0.0324313 0)
(2.12654 -0.030872 -2.75148e-19)
(2.16182 -0.0294327 5.49837e-19)
(2.19593 -0.0281087 -2.7576e-19)
(2.22897 -0.0268965 0)
(2.26104 -0.0257889 0)
(2.29222 -0.0247765 2.75496e-19)
(2.32259 -0.0238442 0)
(2.35223 -0.0229939 2.75811e-19)
(2.38122 -0.0222103 0)
(2.4096 -0.0214845 0)
(2.43743 -0.0208187 0)
(2.46474 -0.0201763 2.76647e-19)
(2.49153 -0.0195355 0)
(2.5178 -0.0188901 -2.76587e-19)
(2.54348 -0.018192 0)
(2.56847 -0.0173777 0)
(2.59255 -0.0163938 5.52935e-19)
(2.61541 -0.0150998 -5.53406e-19)
(2.63655 -0.0132115 0)
(2.65496 -0.0103375 0)
(2.66965 -0.0050067 0)
(2.67879 0.00482917 1.68883e-18)
(2.68826 0.0252619 0)
(2.67005 0.0626631 -1.1645e-18)
(0.0257492 -0.216635 -5.45872e-23)
(0.0613939 -0.236333 4.37651e-19)
(0.0841576 -0.208006 0)
(0.102137 -0.176166 -2.07028e-19)
(0.114415 -0.144143 0)
(0.120629 -0.112376 0)
(0.120797 -0.0811068 7.55318e-23)
(0.114901 -0.0498488 7.06975e-20)
(0.103651 -0.0182464 7.00266e-20)
(0.0876418 0.0129673 6.98982e-20)
(0.0670852 0.043314 0)
(0.0420452 0.0723931 0)
(0.0123961 0.0998243 -7.07736e-20)
(-0.0220435 0.125278 -1.41466e-19)
(-0.0615507 0.148648 1.38437e-19)
(-0.106604 0.170131 0)
(-0.157542 0.189624 1.27372e-19)
(-0.214615 0.207437 -6.05335e-20)
(-0.279443 0.22673 0)
(-0.351667 0.249533 1.11053e-19)
(-0.429622 0.275958 5.39146e-20)
(-0.511926 0.30272 -1.03935e-19)
(-0.59737 0.326057 -5.03318e-20)
(-0.686227 0.347651 0)
(-0.77703 0.367264 9.17481e-20)
(-0.86838 0.384096 8.76485e-20)
(-0.959086 0.397395 0)
(-1.04818 0.406607 8.0068e-20)
(-1.13492 0.411468 0)
(-1.2188 0.412003 7.35289e-20)
(-1.29958 0.408488 3.54872e-20)
(-1.37714 0.401433 0)
(-1.4515 0.391461 0)
(-1.5228 0.379236 0)
(-1.59126 0.365428 0)
(-1.6571 0.350652 0)
(-1.72056 0.335449 0)
(-1.78184 0.320264 5.66647e-20)
(-1.84115 0.305449 -8.31668e-20)
(-1.89869 0.291268 0)
(-1.95461 0.277904 0)
(-2.00908 0.265471 0)
(-2.06225 0.254031 2.87927e-22)
(-2.11423 0.243601 5.07153e-20)
(-2.16515 0.234169 9.96628e-20)
(-2.21514 0.225697 -9.83107e-20)
(-2.2643 0.218134 -4.83824e-20)
(-2.31273 0.211419 4.81157e-20)
(-2.36053 0.205487 -3.10947e-22)
(-2.40778 0.200267 4.67886e-20)
(-2.45457 0.195689 0)
(-2.50098 0.191687 4.59129e-20)
(-2.54707 0.188195 -3.28202e-22)
(-2.5929 0.185148 0)
(-2.63851 0.182484 0)
(-2.68396 0.180141 -4.45038e-20)
(-2.72927 0.178066 0)
(-2.77447 0.176202 0)
(-2.81957 0.174497 4.33415e-20)
(-2.86458 0.172897 8.69197e-20)
(-2.9095 0.171357 -4.35982e-20)
(-2.9543 0.169828 0)
(-2.99896 0.168266 4.32218e-20)
(-3.04346 0.166627 0)
(-3.08774 0.164869 4.22082e-20)
(-3.13177 0.162951 4.27832e-20)
(-3.17548 0.160839 -8.46374e-20)
(-3.21879 0.158494 -4.1869e-20)
(-3.26163 0.155886 0)
(-3.30389 0.152976 8.41774e-20)
(-3.34547 0.149732 0)
(-3.38627 0.146117 1.26444e-19)
(-3.42615 0.142094 8.40358e-20)
(-3.46498 0.137624 8.40519e-20)
(-3.50264 0.132674 -8.40952e-20)
(-3.53896 0.127211 1.26625e-19)
(-3.57378 0.121214 0)
(-3.60693 0.114655 0)
(-3.63822 0.107516 -8.45165e-20)
(-3.66745 0.0997789 -1.27362e-19)
(-3.69445 0.091435 0)
(-3.71899 0.0824767 4.28414e-20)
(-3.7409 0.0729053 0)
(-3.75996 0.062728 -1.28498e-19)
(-3.77594 0.0519728 -5.2342e-22)
(-3.78859 0.0406609 4.95392e-22)
(-3.79762 0.0288229 8.60126e-20)
(-3.8026 0.016459 0)
(-3.80306 0.00356561 -8.5935e-20)
(-3.79846 -0.00989066 -3.42251e-22)
(-3.78852 -0.0239233 0)
(-3.773 -0.038516 0)
(-3.75158 -0.0536132 0)
(-3.72395 -0.0691433 8.39547e-20)
(-3.6898 -0.0850218 0)
(-3.64889 -0.101163 0)
(-3.60097 -0.117472 0)
(-3.54587 -0.133847 0)
(-3.48345 -0.150191 0)
(-3.41361 -0.1664 7.54915e-20)
(-3.33631 -0.182343 0)
(-3.25156 -0.197878 6.95208e-20)
(-3.15943 -0.212821 6.63398e-20)
(-3.06007 -0.22704 -6.27515e-20)
(-2.95374 -0.240481 0)
(-2.84071 -0.252999 -5.43337e-20)
(-2.72133 -0.264442 0)
(-2.59604 -0.274708 -4.42867e-20)
(-2.46531 -0.283709 3.86497e-20)
(-2.3297 -0.291375 1.02226e-19)
(-2.1898 -0.297652 0)
(-2.04624 -0.302508 6.32371e-20)
(-1.89968 -0.305919 1.74687e-20)
(-1.75082 -0.307899 0)
(-1.60033 -0.308478 5.75092e-23)
(-1.44888 -0.30771 -1.56106e-20)
(-1.29715 -0.305666 5.04242e-20)
(-1.14575 -0.302447 0)
(-0.995283 -0.298149 3.54042e-20)
(-0.846258 -0.292875 4.39329e-20)
(-0.69912 -0.286741 1.5174e-19)
(-0.554276 -0.279877 0)
(-0.412111 -0.272411 0)
(-0.272966 -0.264512 0)
(-0.137088 -0.25637 8.13522e-20)
(-0.00442838 -0.248234 0)
(0.124552 -0.240077 0)
(0.249232 -0.231648 -1.05412e-19)
(0.369371 -0.222951 -1.10378e-19)
(0.484742 -0.214104 0)
(0.595279 -0.204998 0)
(0.701252 -0.195552 -2.47603e-19)
(0.802985 -0.186004 0)
(0.90062 -0.176547 2.63313e-19)
(0.994231 -0.167316 2.67008e-19)
(1.08389 -0.158383 0)
(1.16968 -0.149804 0)
(1.25169 -0.141602 -2.86412e-19)
(1.33003 -0.13379 -2.6793e-21)
(1.40484 -0.126364 -2.50702e-21)
(1.47628 -0.119322 0)
(1.54451 -0.112657 -6.15499e-19)
(1.60969 -0.106357 0)
(1.67193 -0.100411 0)
(1.73138 -0.0948033 0)
(1.78816 -0.089523 3.23142e-19)
(1.84241 -0.0845625 0)
(1.89427 -0.0799123 -6.54303e-19)
(1.94386 -0.0755601 -3.3106e-19)
(1.99133 -0.0714947 0)
(2.03681 -0.0677007 -3.35553e-19)
(2.08043 -0.0641698 0)
(2.12232 -0.0608885 0)
(2.16257 -0.057844 -1.02139e-18)
(2.20132 -0.0550286 6.83565e-19)
(2.23867 -0.0524341 0)
(2.27474 -0.0500406 6.89571e-19)
(2.30962 -0.0478361 -3.46878e-19)
(2.34343 -0.0458081 0)
(2.37625 -0.0439484 0)
(2.40818 -0.0422454 0)
(2.43929 -0.0406851 -1.0526e-18)
(2.46967 -0.0392568 0)
(2.49938 -0.0379444 -3.52983e-19)
(2.5285 -0.0367405 0)
(2.55708 -0.0356328 0)
(2.58517 -0.0345921 0)
(2.61278 -0.0335935 0)
(2.63993 -0.0326108 0)
(2.66661 -0.0315969 0)
(2.69276 -0.0304957 -7.13777e-19)
(2.71827 -0.0292372 0)
(2.74298 -0.0276903 -3.58455e-19)
(2.7666 -0.0256541 1.07687e-18)
(2.78873 -0.0227934 0)
(2.80864 -0.0184952 0)
(2.82565 -0.0114788 -7.26612e-19)
(2.83783 0.000343738 -7.32969e-19)
(2.84951 0.0224858 7.36911e-19)
(2.84935 0.0644507 7.5729e-19)
(0.0125853 -0.287402 -1.13103e-18)
(0.0306863 -0.276171 -5.24885e-19)
(0.0370566 -0.234217 -2.23569e-19)
(0.0399827 -0.191093 -8.49983e-20)
(0.0390421 -0.148385 0)
(0.0336532 -0.106193 1.27662e-19)
(0.0237511 -0.0645596 -5.92731e-20)
(0.00937053 -0.0234568 0)
(-0.00937913 0.0171053 -5.5033e-20)
(-0.0324182 0.0569457 0)
(-0.0597668 0.0958394 1.03829e-19)
(-0.0915005 0.133554 0)
(-0.127781 0.169849 5.00742e-20)
(-0.168845 0.204561 9.83806e-20)
(-0.214977 0.23767 -9.63796e-20)
(-0.266454 0.269286 0)
(-0.323478 0.299674 -9.12849e-20)
(-0.386212 0.329557 0)
(-0.454411 0.359967 0)
(-0.526976 0.39116 -8.1903e-20)
(-0.602402 0.422383 0)
(-0.67934 0.451859 9.46682e-23)
(-0.756958 0.477741 0)
(-0.834751 0.499616 0)
(-0.91189 0.51717 -9.14964e-23)
(-0.987536 0.530045 -6.3836e-20)
(-1.06102 0.538 -6.11745e-20)
(-1.13191 0.54101 -5.88315e-20)
(-1.20002 0.539288 0)
(-1.26532 0.533253 -1.08948e-19)
(-1.32795 0.523472 0)
(-1.38812 0.510592 -5.07999e-20)
(-1.44609 0.495322 0)
(-1.50211 0.478353 0)
(-1.55641 0.46032 4.6462e-20)
(-1.60919 0.441782 0)
(-1.66063 0.423208 -4.41726e-20)
(-1.71088 0.404979 -1.00712e-22)
(-1.76004 0.387392 8.46535e-20)
(-1.80821 0.370664 -8.28932e-20)
(-1.85546 0.354945 0)
(-1.90186 0.340327 0)
(-1.94748 0.326854 -3.92306e-20)
(-1.99237 0.314534 0)
(-2.03658 0.303345 -3.83989e-20)
(-2.08018 0.293247 3.79111e-20)
(-2.12321 0.284183 3.74602e-20)
(-2.16575 0.276088 0)
(-2.20784 0.268888 -3.66563e-20)
(-2.24954 0.262508 -3.62974e-20)
(-2.29092 0.256873 7.15565e-20)
(-2.33201 0.251905 -3.56538e-20)
(-2.37287 0.24753 -3.53653e-20)
(-2.41355 0.243675 0)
(-2.45408 0.240268 0)
(-2.4945 0.237238 3.46151e-20)
(-2.53484 0.234521 0)
(-2.57512 0.232051 0)
(-2.61537 0.229765 -6.80375e-20)
(-2.65558 0.227602 -6.77011e-20)
(-2.69577 0.225503 0)
(-2.73592 0.22341 0)
(-2.77602 0.221268 0)
(-2.81605 0.219021 0)
(-2.85597 0.216616 -6.64354e-20)
(-2.89576 0.214002 6.58044e-20)
(-2.93535 0.21113 6.61236e-20)
(-2.9747 0.207951 1.31565e-19)
(-3.01373 0.20442 0)
(-3.05236 0.20049 -4.53254e-22)
(-3.0905 0.196114 0)
(-3.12806 0.191246 -6.58563e-20)