/*--------------------------------*- C++ -*----------------------------------*\
  =========                 |
  \\      /  F ield         | OpenFOAM: The Open Source CFD Toolbox
   \\    /   O peration     | Website:  https://openfoam.org
    \\  /    A nd           | Version:  9
     \\/     M anipulation  |
\*---------------------------------------------------------------------------*/
FoamFile
{
    format      ascii;
    class       volScalarField;
    location    "5.55";
    object      p;
}
// * * * * * * * * * * * * * * * * * * * * * * * * * * * * * * * * * * * * * //

dimensions      [0 2 -2 0 0 0 0];

internalField   nonuniform List<scalar> 
918
(
24.1058
24.249
1.06273
23.5165
1.02608
23.7655
3.94611
14.519
19.8764
3.42358
3.01032
15.0932
21.3084
17.5495
13.6732
1.06378
14.8283
2.69296
19.088
1.38032
13.7093
21.0843
22.1734
19.9215
14.8326
15.011
19.2707
1.27919
0.117231
0.349402
0.964941
0.45432
0.254374
22.3023
22.979
22.9173
16.1571
10.8513
4.33776
4.58515
3.64625
3.41271
14.56
14.6677
6.69318
14.4914
14.4811
17.2852
19.7439
19.8869
20.1835
19.9708
20.3578
6.15403
3.30234
3.1309
3.44109
3.50668
3.22477
3.1337
3.1561
2.87727
2.719
14.6129
15.1834
15.2434
14.9754
14.9283
23.125
22.3681
22.7028
21.8092
21.9546
20.8845
20.4989
17.9253
18.2779
17.1511
16.77
13.4498
13.393
13.9119
14.1509
0.155122
1.24325
1.39663
14.834
14.8661
14.8682
14.8755
8.63696
2.69431
2.70741
18.5286
18.1046
21.1122
21.3789
20.8257
20.6401
1.57653
1.65626
1.17913
1.19216
0.97149
14.0257
14.1864
19.8729
19.0405
14.8692
14.7641
14.8311
12.2355
14.6281
14.7112
15.997
16.4486
15.6299
16.0733
18.8407
18.4227
19.7073
20.1445
0.44483
0.168619
0.839356
0.45362
0.666408
16.0303
15.8335
16.2516
16.3166
16.5431
10.8514
10.7665
10.835
10.7544
4.96293
5.28664
2.80004
3.15727
2.97489
10.2975
14.6906
14.7356
5.64225
6.34563
6.0026
7.18124
7.57139
16.6548
17.088
16.829
18.3698
17.5761
17.9237
20.4442
19.9349
20.2347
6.55834
6.84553
5.80338
5.46132
2.72867
2.99885
2.91753
3.52886
3.5075
3.46694
3.62346
2.95649
2.81063
3.4321
3.27182
3.35382
2.52496
2.36026
14.3574
14.1536
14.8744
15.0546
15.7692
15.6359
15.3589
15.5181
19.694
20.0975
20.131
19.7468
12.092
10.5487
14.4121
14.6813
0.314795
0.270289
0.150806
0.431659
0.400349
0.173539
2.18928
1.99993
1.58067
1.84461
14.8321
14.7974
8.8779
9.10315
8.46491
8.1958
16.9412
17.0918
17.7262
17.3254
2.20967
1.83961
2.0226
14.3662
14.219
14.3439
11.6911
11.1352
12.72
13.0188
14.7759
14.7822
14.7906
16.355
16.6731
20.4954
20.766
20.5929
20.9787
22.0415
21.6928
21.308
15.2551
15.637
15.4884
16.7558
16.3964
16.6116
15.8541
16.1404
16.0028
10.7918
10.8372
10.5595
10.638
10.695
10.6398
10.2239
10.0952
14.8327
14.7747
14.8093
8.08265
8.5584
5.09595
4.78393
13.3083
13.9583
13.6319
19.3237
18.6461
19.379
19.0082
18.5582
18.8817
10.8448
10.7934
10.8346
15.5942
14.9396
15.2869
2.66727
2.27754
2.44779
9.30505
9.40277
7.22798
7.89226
7.55233
16.9743
17.3147
17.9948
17.1067
17.5742
18.0814
17.8595
10.378
10.5148
10.4284
10.0738
9.96062
10.4952
9.11611
9.71067
3.87758
4.50527
4.2108
9.57309
9.8279
9.66919
19.2671
19.8015
0.805459
1.27208
20.2258
19.9485
0.21068
0.372114
14.9278
13.1573
8.08422
17.8231
17.2737
19.6033
3.62483
6.33348
3.17309
3.62124
2.86941
15.2799
14.9548
14.0591
0.507517
1.37302
1.75177
3.37457
19.0476
18.3737
19.4856
19.8072
19.8605
0.711322
0.945781
0.593295
1.35768
1.0939
1.30932
16.2148
16.2812
5.02809
19.4913
19.7943
19.8128
18.2847
19.2393
18.2967
1.06434
0.756554
0.846736
10.8583
12.8521
14.8927
14.4388
14.6421
14.6642
14.4154
15.5456
15.227
15.1804
15.6602
14.686
14.5293
8.5305
7.20322
8.90827
8.57706
17.7253
17.3132
17.1367
16.8843
18.7183
18.2436
19.0943
18.4803
18.942
19.2299
3.53016
3.65578
3.50307
3.07239
6.42427
6.91172
5.76845
5.84684
4.50899
2.90568
2.92856
3.14753
3.09439
3.29575
2.90857
3.20748
2.86122
2.51293
2.4979
3.25174
2.97998
2.92573
15.2528
15.2308
15.0066
15.04
15.0527
15.1849
14.2538
14.6575
14.3204
13.138
13.7217
13.285
0.822187
0.689172
0.574255
1.45775
1.51376
1.19051
0.915163
1.24003
1.19272
0.927548
1.62585
1.63398
3.71384
3.19366
9.2085
8.3213
7.31287
17.4428
18.2413
17.4124
18.647
19.064
19.171
18.7924
18.2846
16.3533
16.3537
16.0202
15.9821
5.47208
4.38805
5.72084
5.35232
10.9441
14.8271
12.59
11.555
11.8577
14.0671
14.6077
14.2456
14.4683
13.9808
13.452
14.2073
13.7036
13.8185
13.5382
16.3913
16.8658
16.4723
15.8924
15.9131
11.0387
12.436
6.30304
6.43739
7.96919
7.3631
14.202
14.6368
14.6392
14.2604
14.4599
14.4653
14.2564
14.4039
14.5493
14.474
12.3181
10.9243
9.85658
9.81974
14.8273
12.8711
13.4782
12.983
16.744
17.2634
16.8768
16.2972
16.7749
16.2563
16.2693
16.4649
17.834
17.5802
17.356
17.7425
3.61422
3.5479
4.18791
3.70228
3.59669
3.30059
4.00675
5.22258
4.8814
7.08579
7.62676
5.07487
4.07192
4.34489
5.33749
5.98038
5.98995
4.33214
4.75629
5.19835
4.73819
5.45612
4.99115
3.1201
3.39345
3.31586
3.28006
3.65841
4.14395
3.68341
2.77188
2.94312
2.66554
2.49923
3.88799
3.5142
3.52438
4.05864
1.31828
1.50221
1.61972
2.63401
2.13354
2.21795
15.841
15.5006
15.6351
14.8889
14.9869
14.9431
14.5353
15.908
15.6365
15.7422
14.4213
14.5297
14.3268
14.6028
15.0159
15.2881
16.0996
15.8195
15.1036
15.2621
14.9176
14.8401
14.1706
13.6681
13.5691
1.21269
0.894942
1.0763
1.03423
0.709901
0.889253
2.34337
1.76067
2.15112
1.87719
2.11138
1.54216
1.43024
4.85086
5.64472
4.62289
3.98838
3.67229
9.26074
9.38631
8.49697
8.21849
8.54256
8.78547
8.72943
7.41568
7.87957
7.69581
10.3519
9.99671
18.2228
18.1682
17.8414
17.6825
17.9061
6.47567
8.17071
7.4908
8.49457
10.6498
10.9708
9.68725
9.08732
9.8377
9.88082
14.7824
14.8743
14.3491
14.7687
14.8024
12.555
13.4756
14.0746
13.8687
14.4569
14.544
13.7373
14.2393
14.0977
13.4299
13.4429
12.8835
13.1362
12.6963
12.5229
14.7602
14.6419
14.914
14.4659
14.8066
14.3814
14.6643
14.7528
14.9917
14.1033
13.5135
13.5228
13.9259
13.6867
14.0171
14.1762
9.70374
10.3189
10.8057
11.3667
11.0812
10.8411
10.691
11.0226
11.0182
11.2764
11.1927
11.0174
11.9734
14.0984
14.3749
14.5387
14.2961
14.3
14.0071
14.3039
14.229
14.6557
14.7352
14.7993
13.6938
13.9429
14.1296
14.0264
12.1203
10.6743
10.476
10.1398
8.35239
8.75025
11.5822
10.532
9.60563
9.70237
12.8761
11.5239
12.3219
12.6524
11.3768
11.0338
13.5668
14.4078
14.6012
14.2631
12.64
12.7356
13.181
13.629
13.8215
14.324
16.5142
17.0745
17.1556
16.8834
16.744
16.8353
16.5771
16.6841
17.1604
17.2812
17.1108
3.37179
3.46847
3.46498
3.37938
3.65923
3.50588
4.48976
4.48952
3.64835
3.81695
3.8446
3.89033
3.47676
3.47594
5.15661
5.41033
5.68245
5.23732
6.57985
7.11953
7.66669
7.4111
6.17554
6.20227
6.49304
3.87959
3.82069
3.60646
4.01695
4.10942
2.95884
2.62733
2.41192
2.91479
3.04134
2.33864
1.99127
2.08249
2.51371
2.37004
2.10425
15.646
15.4284
15.4311
15.2205
15.2785
15.6583
15.8679
15.6701
15.7975
15.854
15.4736
15.3584
15.5361
1.95453
1.64031
1.76417
1.82584
1.77419
1.69413
1.83933
7.97517
6.82461
7.22804
6.46349
4.76371
5.24338
9.98978
10.3841
10.4303
10.1152
9.91279
10.237
10.1363
10.1307
8.6303
9.68548
9.2308
9.6362
9.68512
9.75085
9.44043
9.52339
11.0112
11.0686
9.89904
10.5419
9.87181
8.58242
8.75263
9.62108
10.5281
10.8276
10.6845
10.3602
10.1477
10.5616
10.5745
10.6866
10.674
9.15424
9.11809
8.72485
14.6516
14.6484
14.7796
14.7141
14.8778
14.6927
14.4985
14.7765
14.8596
14.6344
11.5407
11.6144
11.8858
12.6981
12.7781
12.4832
11.769
13.6422
13.2472
14.0164
13.9541
13.9584
13.5543
13.3354
13.6772
10.7234
12.0598
11.5934
11.8846
10.7596
10.0431
13.8329
13.8755
13.9947
14.3003
14.2159
14.7832
16.4812
16.3473
16.3997
16.4447
16.0487
16.081
4.53766
4.23886
4.95153
4.92949
4.50942
4.21692
2.47512
2.22691
2.03164
1.90205
2.07151
2.17924
8.59601
8.57085
6.81087
7.76685
6.47966
5.53124
5.42295
6.49522
7.61289
7.7061
8.84611
9.53635
9.11785
8.95574
8.28853
8.60469
10.5513
10.6486
10.5476
10.8604
10.4173
12.2177
11.7856
12.1579
13.8428
13.5214
12.8725
12.7496
12.7876
13.4166
12.4437
11.6909
12.3698
13.0579
13.0301
11.5875
11.3278
11.7763
11.7049
10.6146
11.1523
10.9057
11.2562
10.9372
)
;

boundaryField
{
    wall-4
    {
        type            zeroGradient;
    }
    velocity-inlet-5
    {
        type            zeroGradient;
    }
    velocity-inlet-6
    {
        type            zeroGradient;
    }
    pressure-outlet-7
    {
        type            fixedValue;
        value           uniform 0;
    }
    wall-8
    {
        type            zeroGradient;
    }
    frontAndBackPlanes
    {
        type            empty;
    }
}


// ************************************************************************* //
