/*--------------------------------*- C++ -*----------------------------------*\
  =========                 |
  \\      /  F ield         | OpenFOAM: The Open Source CFD Toolbox
   \\    /   O peration     | Website:  https://openfoam.org
    \\  /    A nd           | Version:  9
     \\/     M anipulation  |
\*---------------------------------------------------------------------------*/
FoamFile
{
    format      ascii;
    class       surfaceScalarField;
    location    "3.2";
    object      alphaPhi0.water;
}
// * * * * * * * * * * * * * * * * * * * * * * * * * * * * * * * * * * * * * //

dimensions      [0 3 -1 0 0 0 0];

internalField   nonuniform List<scalar> 
4432
(
-4.00558e-07
4.00558e-07
-7.58527e-07
3.57967e-07
-1.09132e-06
3.32799e-07
-1.38288e-06
2.9156e-07
-1.63941e-06
2.56531e-07
-1.86352e-06
2.24107e-07
-2.04962e-06
1.86107e-07
-2.18931e-06
1.3969e-07
-2.27598e-06
8.66731e-08
-2.30168e-06
2.56964e-08
-2.2573e-06
-4.43757e-08
-2.13592e-06
-1.21384e-07
-1.93132e-06
-2.046e-07
-1.63657e-06
-2.94745e-07
-1.24197e-06
-3.94602e-07
-7.38838e-07
-5.03135e-07
-2.09988e-07
-5.28837e-07
-2.06365e-07
-1.1237e-09
-8.78939e-07
6.69868e-07
-1.43532e-06
5.41002e-07
-1.29282e-06
-1.45612e-07
-6.51743e-07
-6.39065e-07
-6.53351e-07
-3.95541e-07
7.96104e-07
-7.53373e-07
7.15797e-07
-1.10124e-06
6.80674e-07
-1.42752e-06
6.17839e-07
-1.72338e-06
5.52389e-07
-1.98249e-06
4.83222e-07
-2.19607e-06
3.9969e-07
-2.35565e-06
2.99279e-07
-2.45406e-06
1.85084e-07
-2.48527e-06
5.68948e-08
-2.4427e-06
-8.69377e-08
-2.32149e-06
-2.42599e-07
-2.12132e-06
-4.04763e-07
-1.84578e-06
-5.70292e-07
-1.50508e-06
-7.35304e-07
-1.12827e-06
-8.79946e-07
-7.89873e-07
-8.64675e-07
-6.65771e-07
-1.13085e-07
-6.90991e-07
6.95083e-07
-8.31051e-07
6.70922e-07
-8.19432e-07
-1.64073e-07
-5.6312e-07
-8.96453e-07
-1.22165e-06
-3.88418e-07
1.18453e-06
-7.57529e-07
1.08491e-06
-1.11801e-06
1.04116e-06
-1.463e-06
9.62829e-07
-1.7798e-06
8.69195e-07
-2.05855e-06
7.61974e-07
-2.28881e-06
6.2995e-07
-2.46138e-06
4.71849e-07
-2.56929e-06
2.92991e-07
-2.60641e-06
9.40074e-08
-2.56745e-06
-1.25897e-07
-2.45009e-06
-3.5995e-07
-2.25763e-06
-5.97222e-07
-1.99981e-06
-8.28112e-07
-1.69682e-06
-1.03829e-06
-1.38843e-06
-1.18834e-06
-1.12319e-06
-1.12222e-06
-8.49658e-07
-3.70132e-07
-6.13425e-07
4.58846e-07
-4.74595e-07
5.32088e-07
-4.23442e-07
-2.2121e-07
-3.55364e-07
-9.64531e-07
-1.57702e-06
-3.89942e-07
1.57447e-06
-7.75595e-07
1.47056e-06
-1.15157e-06
1.41714e-06
-1.51151e-06
1.32276e-06
-1.84343e-06
1.20112e-06
-2.13638e-06
1.05492e-06
-2.37865e-06
8.72222e-07
-2.56051e-06
6.53707e-07
-2.67531e-06
4.07791e-07
-2.71738e-06
1.36084e-07
-2.68205e-06
-1.6123e-07
-2.56863e-06
-4.73364e-07
-2.38271e-06
-7.8315e-07
-2.13709e-06
-1.07373e-06
-1.85512e-06
-1.32026e-06
-1.5737e-06
-1.46976e-06
-1.32187e-06
-1.37352e-06
-9.51082e-07
-7.26859e-07
-5.494e-07
5.71587e-08
-2.22676e-07
2.04725e-07
-1.04831e-07
-3.43963e-07
-9.71637e-08
-9.72198e-07
-1.67421e-06
-3.97192e-07
1.97167e-06
-8.02225e-07
1.87559e-06
-1.19509e-06
1.81001e-06
-1.56853e-06
1.6962e-06
-1.91277e-06
1.54536e-06
-2.21706e-06
1.35922e-06
-2.46875e-06
1.12391e-06
-2.65766e-06
8.42615e-07
-2.77774e-06
5.27881e-07
-2.8239e-06
1.82244e-07
-2.79166e-06
-1.93466e-07
-2.68119e-06
-5.8384e-07
-2.49922e-06
-9.6512e-07
-2.25917e-06
-1.31378e-06
-1.98261e-06
-1.59681e-06
-1.69698e-06
-1.75539e-06
-1.406e-06
-1.66453e-06
-9.9522e-07
-1.13497e-06
-4.80006e-07
-4.59802e-07
-3.7843e-08
-2.37883e-07
1.56256e-07
-5.3888e-07
1.35686e-07
-9.51624e-07
-1.53846e-06
-4.09744e-07
2.38142e-06
-8.34908e-07
2.30075e-06
-1.24393e-06
2.21903e-06
-1.62923e-06
2.0815e-06
-1.98355e-06
1.89968e-06
-2.29701e-06
1.67268e-06
-2.55598e-06
1.38288e-06
-2.7499e-06
1.03654e-06
-2.87365e-06
6.51635e-07
-2.92274e-06
2.31334e-07
-2.89255e-06
-2.23659e-07
-2.78345e-06
-6.92943e-07
-2.60245e-06
-1.14612e-06
-2.3618e-06
-1.55443e-06
-2.07873e-06
-1.87988e-06
-1.76997e-06
-2.06417e-06
-1.42479e-06
-2.00971e-06
-9.62379e-07
-1.59738e-06
-3.80248e-07
-1.04193e-06
1.42843e-07
-7.60977e-07
4.14012e-07
-8.10052e-07
3.838e-07
-9.21436e-07
-1.15468e-06
-4.27798e-07
2.80922e-06
-8.70979e-07
2.74393e-06
-1.29364e-06
2.64169e-06
-1.68845e-06
2.47632e-06
-2.05051e-06
2.26174e-06
-2.37097e-06
1.99313e-06
-2.63503e-06
1.64695e-06
-2.83176e-06
1.23327e-06
-2.95727e-06
7.77138e-07
-3.00775e-06
2.8181e-07
-2.97816e-06
-2.53251e-07
-2.86868e-06
-8.02424e-07
-2.68591e-06
-1.3289e-06
-2.43992e-06
-1.80043e-06
-2.14286e-06
-2.17694e-06
-1.80234e-06
-2.40469e-06
-1.40135e-06
-2.41069e-06
-8.80079e-07
-2.11866e-06
-2.46483e-07
-1.67553e-06
3.55356e-07
-1.36282e-06
7.539e-07
-1.2086e-06
8.19252e-07
-9.8681e-07
-3.35451e-07
-4.49114e-07
3.25833e-06
-9.06296e-07
3.20111e-06
-1.33917e-06
3.07457e-06
-1.74058e-06
2.87773e-06
-2.10777e-06
2.62893e-06
-2.433e-06
2.31836e-06
-2.69986e-06
1.9138e-06
-2.89687e-06
1.43028e-06
-3.02185e-06
9.02125e-07
-3.07179e-06
3.31743e-07
-3.04106e-06
-2.83977e-07
-2.92952e-06
-9.1397e-07
-2.74285e-06
-1.51556e-06
-2.48848e-06
-2.0548e-06
-2.17366e-06
-2.49175e-06
-1.79927e-06
-2.77908e-06
-1.34562e-06
-2.86434e-06
-7.67757e-07
-2.69652e-06
-7.54213e-08
-2.36786e-06
6.2441e-07
-2.06265e-06
1.19995e-06
-1.78414e-06
1.38233e-06
-1.16918e-06
1.04678e-06
6.37308e-07
-6.3846e-07
2.70834e-06
-2.07219e-06
4.63837e-06
-1.93123e-06
6.06004e-06
-1.41694e-06
6.92919e-06
-8.67218e-07
7.24367e-06
-3.12545e-07
6.93994e-06
3.34784e-07
6.0001e-06
9.46004e-07
4.67918e-06
1.29506e-06
3.93592e-06
7.25251e-07
3.73465e-06
1.83502e-07
2.40618e-06
1.24214e-06
1.1017e-06
1.30443e-06
1.05837e-06
4.32702e-08
2.72029e-06
-1.66198e-06
4.06332e-06
-1.34317e-06
3.34971e-06
7.15807e-07
1.2421e-06
2.10761e-06
1.24208e-06
1.21769e-06
-1.87079e-06
2.97705e-06
-3.86116e-06
4.52455e-06
-3.50188e-06
5.64485e-06
-2.52555e-06
6.29874e-06
-1.52169e-06
6.56951e-06
-5.84111e-07
6.38573e-06
5.19427e-07
5.68817e-06
1.64444e-06
4.7266e-06
2.2037e-06
3.98461e-06
1.47315e-06
3.43144e-06
7.42307e-07
2.54844e-06
2.01096e-06
1.86657e-06
1.98625e-06
1.79446e-06
1.15325e-07
2.54561e-06
-2.43114e-06
3.43716e-06
-2.28359e-06
3.12312e-06
1.04254e-06
1.57038e-06
3.67875e-06
2.82957e-06
1.36043e-06
-3.23122e-06
3.06407e-06
-5.56479e-06
4.41041e-06
-4.84821e-06
5.2827e-06
-3.40349e-06
5.77397e-06
-2.01128e-06
5.95751e-06
-7.67754e-07
5.75856e-06
7.1827e-07
5.1841e-06
2.18866e-06
4.49478e-06
2.87278e-06
3.82451e-06
2.15402e-06
3.13669e-06
1.38099e-06
2.62157e-06
2.52603e-06
2.26175e-06
2.34602e-06
2.25204e-06
1.85479e-07
2.35221e-06
-2.52673e-06
2.76126e-06
-2.80379e-06
2.72637e-06
1.0432e-06
1.59783e-06
4.82594e-06
4.44605e-06
1.31378e-06
-4.5438e-06
3.08885e-06
-7.33964e-06
4.29448e-06
-6.05384e-06
4.98515e-06
-4.0967e-06
5.34057e-06
-2.36669e-06
5.46567e-06
-8.92961e-07
5.27701e-06
9.06824e-07
4.81849e-06
2.63478e-06
4.29878e-06
3.37222e-06
3.70101e-06
2.76242e-06
3.04277e-06
2.0142e-06
2.74306e-06
2.80018e-06
2.58267e-06
2.50636e-06
2.47626e-06
3.83859e-07
2.11938e-06
-2.16978e-06
2.15845e-06
-2.88719e-06
2.45077e-06
6.25545e-07
1.72415e-06
5.50305e-06
6.18874e-06
1.39681e-06
-5.94136e-06
3.21085e-06
-9.15223e-06
4.23836e-06
-7.08134e-06
4.73596e-06
-4.59428e-06
4.96162e-06
-2.59288e-06
5.04879e-06
-9.80237e-07
4.89451e-06
1.061e-06
4.55095e-06
2.97893e-06
4.16897e-06
3.77077e-06
3.66496e-06
3.27625e-06
3.11338e-06
2.55695e-06
2.93703e-06
2.96661e-06
2.87396e-06
2.66753e-06
2.55979e-06
7.47748e-07
1.91062e-06
-1.52061e-06
1.54828e-06
-2.52486e-06
2.05633e-06
5.26841e-08
1.9215e-06
5.51438e-06
8.1292e-06
1.92346e-06
-7.86746e-06
3.54202e-06
-1.07716e-05
4.25223e-06
-7.79155e-06
4.52078e-06
-4.86283e-06
4.61235e-06
-2.68476e-06
4.67448e-06
-1.04315e-06
4.5794e-06
1.15598e-06
4.33935e-06
3.21887e-06
4.08394e-06
4.02607e-06
3.69226e-06
3.66787e-06
3.27912e-06
2.97005e-06
3.17308e-06
3.06808e-06
3.08906e-06
2.75448e-06
2.59908e-06
1.23778e-06
1.74438e-06
-6.6611e-07
1.05959e-06
-1.84007e-06
1.43361e-06
-3.21842e-07
2.17232e-06
4.65233e-06
9.70657e-06
3.12119e-06
-1.09887e-05
4.09977e-06
-1.17502e-05
4.31278e-06
-8.00455e-06
4.32001e-06
-4.87005e-06
4.2679e-06
-2.63264e-06
4.30331e-06
-1.09608e-06
4.27069e-06
1.14404e-06
4.15432e-06
3.19365e-06
4.04272e-06
4.13759e-06
3.78017e-06
3.93035e-06
3.48132e-06
3.18633e-06
3.38585e-06
3.14093e-06
3.2276e-06
2.92022e-06
2.64207e-06
1.82331e-06
1.64626e-06
3.297e-07
7.14948e-07
-9.08768e-07
6.31506e-07
-2.38404e-07
1.57977e-06
3.81374e-06
1.12202e-05
4.92709e-06
-1.59157e-05
4.76754e-06
-1.15906e-05
4.36005e-06
-7.597e-06
4.10947e-06
-4.61944e-06
3.92049e-06
-2.44605e-06
3.90294e-06
-1.08083e-06
3.75639e-06
9.92078e-07
3.84215e-06
2.86153e-06
3.93308e-06
3.75504e-06
3.83985e-06
3.75476e-06
3.74362e-06
3.25606e-06
3.63855e-06
3.27204e-06
3.37846e-06
3.18031e-06
2.71981e-06
2.48196e-06
1.62894e-06
1.42057e-06
4.96695e-07
2.23473e-07
-8.00604e-08
3.38347e-07
5.34739e-07
3.19776e-06
1.16889e-05
-9.68321e-07
4.22665e-06
-1.99826e-06
4.23105e-06
-2.96543e-06
4.04173e-06
-3.83303e-06
3.74533e-06
-4.62105e-06
3.41695e-06
-5.32266e-06
3.01997e-06
-5.89227e-06
2.48342e-06
-6.30133e-06
1.83934e-06
-6.55641e-06
1.15721e-06
-6.65378e-06
4.29112e-07
-6.57774e-06
-3.60018e-07
-6.32746e-06
-1.16421e-06
-5.91332e-06
-1.92967e-06
-5.33984e-06
-2.62827e-06
-4.60797e-06
-3.22361e-06
-3.70595e-06
-3.68108e-06
-2.58755e-06
-3.98272e-06
-1.18202e-06
-4.10202e-06
5.04153e-07
-4.05403e-06
2.37148e-06
-3.92996e-06
4.37512e-06
-3.78775e-06
6.80684e-06
-3.60085e-06
-3.31365e-06
1.11673e-05
-9.07535e-07
5.13419e-06
-1.99527e-06
5.31879e-06
-2.97099e-06
3.94834e-06
-3.79754e-06
3.54058e-06
-4.55982e-06
3.20208e-06
-5.2521e-06
2.83976e-06
-5.779e-06
2.29887e-06
-6.12113e-06
1.65449e-06
-6.30273e-06
1.01184e-06
-6.3459e-06
3.52235e-07
-6.23385e-06
-3.83557e-07
-5.9621e-06
-1.15754e-06
-5.53639e-06
-1.90992e-06
-4.94782e-06
-2.62235e-06
-4.18225e-06
-3.27399e-06
-3.21083e-06
-3.85062e-06
-1.98391e-06
-4.35777e-06
-4.53985e-07
-4.76433e-06
1.37478e-06
-5.01613e-06
3.48053e-06
-5.15784e-06
5.85136e-06
-5.23798e-06
8.52945e-06
-5.27721e-06
-5.3384e-06
1.16961e-05
-4.6529e-07
1.09604e-07
-7.25051e-07
6.34163e-08
-1.07192e-06
2.26896e-08
-1.49663e-06
1.04887e-08
-1.78391e-06
1.47605e-08
-1.93948e-06
4.95132e-08
-2.08243e-06
2.06227e-08
-2.1944e-06
1.86083e-08
-2.21157e-06
1.03308e-08
-2.1479e-06
0
-2.05539e-06
-1.65136e-08
-1.949e-06
-2.04049e-08
-1.79776e-06
-3.76877e-08
-1.59676e-06
-4.00351e-08
-1.32469e-06
-4.2995e-08
-9.45475e-07
-5.92657e-08
-4.39787e-07
-9.80163e-08
1.73713e-07
-7.43718e-08
8.82461e-07
-3.84339e-08
1.73094e-06
-6.37174e-08
2.63504e-06
-7.10241e-08
3.44161e-06
-2.2428e-08
-1.11241e-08
3.96708e-06
-3.89912e-08
9.95055e-09
-3.92323e-09
-7.96671e-09
-1.72343e-09
0
-1.00381e-08
1.20409e-08
-2.66965e-08
0
-1.8047e-08
0
-1.34896e-08
0
-1.1561e-08
4.93529e-09
-9.64716e-09
0
-5.2997e-09
-9.18325e-09
-4.65022e-09
-1.46409e-08
-4.36742e-09
-1.82451e-08
-3.71912e-09
-3.5978e-08
-3.14061e-09
-3.83742e-08
-2.38146e-09
-4.1646e-08
-9.75096e-10
-5.90073e-08
1.06044e-09
-9.84148e-08
2.4525e-09
-7.38886e-08
2.9634e-09
-3.72836e-08
4.65893e-09
-6.39954e-08
7.00925e-09
-7.21356e-08
8.39486e-09
-2.257e-08
-1.05195e-08
9.02876e-09
-2.87825e-08
3.71317e-08
-6.24201e-09
-5.47448e-08
1.70634e-09
5.56793e-09
-9.08763e-09
2.16746e-08
-6.09317e-08
2.24741e-08
-6.85112e-08
9.07046e-10
-2.55365e-08
2.331e-09
-3.32745e-08
4.87921e-09
-5.54051e-08
-4.96122e-09
-2.39506e-08
-3.46459e-08
-3.65444e-09
-2.53347e-08
9.65138e-09
-1.71968e-08
2.37458e-08
-2.24759e-08
3.04612e-08
-2.93636e-08
5.20928e-08
-3.04301e-08
7.63867e-08
-2.63569e-08
1.24427e-07
-9.96265e-08
1.71101e-08
-6.52461e-08
1.09028e-08
-7.02919e-09
7.94807e-09
-2.65052e-08
2.11011e-08
-4.28044e-08
7.04152e-09
-5.25376e-09
-5.3954e-09
3.15925e-09
2.74919e-09
3.29764e-08
-1.62614e-09
-4.65234e-08
1.74596e-09
5.13005e-09
-5.65543e-09
2.79176e-08
-2.1668e-08
2.90021e-08
-2.95919e-08
2.17856e-09
-2.48049e-08
-9.88919e-09
-1.83265e-11
-2.74708e-08
1.59431e-08
-2.78481e-08
1.87797e-08
-3.08165e-08
2.30727e-08
-2.27986e-08
3.72945e-08
-2.48323e-08
4.95292e-08
-2.82488e-08
6.29634e-08
-3.62073e-08
7.37064e-08
-3.50675e-08
6.93193e-08
-4.10986e-09
3.34074e-08
-6.05232e-09
1.33931e-08
-5.502e-08
6.31775e-09
-7.58613e-09
1.3564e-08
-5.48926e-09
1.49553e-08
-3.77544e-09
1.29375e-08
1.68278e-10
-4.33677e-09
1.80608e-08
2.5454e-08
1.28474e-08
-1.2353e-08
2.13157e-09
-6.25073e-09
2.38768e-09
5.54021e-11
2.04704e-08
1.01257e-08
1.47299e-08
1.20358e-08
0
2.69199e-08
-1.01625e-08
2.51841e-08
-9.19091e-09
1.60418e-08
-1.6999e-10
5.50188e-09
-1.23233e-12
5.56606e-09
-4.59074e-13
6.96159e-09
-1.41572e-13
4.96431e-09
-9.47603e-11
3.34625e-09
-2.40685e-10
2.87791e-09
-1.39527e-11
2.0305e-10
-6.43497e-10
1.63813e-10
-4.92745e-09
3.30418e-09
-1.3225e-08
1.78521e-09
-2.22824e-08
2.94255e-09
-6.32374e-09
3.65068e-09
-2.99937e-09
5.41811e-09
5.78725e-11
-2.10809e-09
8.16347e-09
5.00097e-09
5.18114e-12
-6.7847e-09
0
-1.09973e-08
4.91028e-10
3.78691e-09
1.08659e-08
1.7065e-08
6.77508e-09
2.42019e-08
-1.89149e-09
9.56321e-09
-2.74349e-09
1.71043e-10
-4.89019e-12
1.20132e-12
-1.52828e-13
2.18873e-14
-8.38641e-15
1.82788e-14
-4.15124e-13
1.63525e-14
-1.03984e-13
2.81509e-13
-9.49919e-11
6.99235e-13
-2.4074e-10
4.04562e-13
-1.32868e-11
3.44805e-11
-1.27393e-12
-2.61225e-12
-1.31819e-15
-9.2603e-10
-3.26796e-10
2.61996e-09
-8.21783e-09
2.02022e-09
-1.9381e-08
2.89431e-10
-6.83303e-09
2.64687e-09
-5.52373e-10
5.22617e-15
2.045e-09
3.44219e-12
0
-1.03077e-12
0
-2.82184e-10
4.82137e-13
6.39893e-09
1.59884e-11
9.95569e-09
-1.84611e-11
3.99257e-09
-1.37842e-13
5.04657e-12
-1.19904e-15
1.75498e-13
1.50194e-14
1.0266e-16
8.0432e-17
3.58159e-14
0
1.04467e-12
-3.0406e-12
1.63588e-11
-1.54714e-11
2.97973e-11
-3.05958e-11
4.52041e-11
-1.01385e-12
1.29695e-12
-2.36552e-13
8.95013e-16
-2.24252e-14
-8.45272e-14
-5.70816e-16
-3.26762e-10
-1.20111e-13
-2.47455e-10
-3.02929e-10
4.40266e-10
-1.09133e-08
2.01657e-09
-9.13785e-10
2.1585e-13
-7.35168e-12
7.68498e-14
4.16676e-13
8.63894e-13
5.69002e-14
4.74178e-12
5.41713e-13
2.45799e-12
1.73025e-14
1.85688e-11
0
1.3567e-13
-2.68664e-14
2.47262e-15
-4.72997e-15
1.44283e-15
-2.7187e-16
2.71605e-14
1.58805e-15
4.19809e-15
3.25656e-16
3.55389e-13
-3.73677e-13
1.2026e-11
-5.73477e-12
1.09983e-11
-1.01805e-11
1.26775e-12
-2.58798e-12
1.10924e-14
-3.02883e-13
4.88642e-16
-3.51495e-13
1.08678e-16
-6.62667e-14
-3.90095e-17
-4.53975e-16
-1.18361e-13
-1.79867e-15
-3.02019e-10
-1.02401e-12
-4.02755e-10
-1.03894e-11
-2.2021e-12
-4.71453e-11
-1.08825e-12
-8.0966e-12
-1.69641e-13
-4.67544e-13
1.19891e-12
3.26898e-14
3.91829e-12
2.25954e-12
3.31871e-13
8.7774e-13
1.96957e-14
1.87561e-14
8.79616e-15
-1.44831e-15
1.21553e-15
-5.21743e-16
7.4879e-16
9.58734e-17
1.52724e-15
3.0932e-16
6.80709e-16
2.54412e-16
6.90308e-12
3.5024e-13
6.82243e-12
-1.74865e-12
2.44396e-12
-3.89959e-12
1.63529e-14
-3.83715e-13
-8.78127e-15
-5.01079e-13
-1.97141e-14
-2.72307e-13
-7.09413e-17
-2.44044e-14
-1.19113e-16
-4.40171e-16
-2.57872e-16
-2.05357e-15
-1.34637e-14
-1.01114e-12
-2.45277e-13
-1.01504e-11
-1.323e-11
-3.41123e-11
-1.92554e-11
-3.41448e-11
-1.2138e-11
-1.90432e-11
2.61357e-14
8.62174e-15
4.04677e-13
1.09771e-13
1.05918e-13
9.23113e-14
2.78512e-14
3.90198e-14
1.81279e-14
1.51949e-14
6.16969e-16
6.5137e-16
3.0674e-16
3.1218e-16
1.73448e-16
3.50211e-16
3.98101e-13
3.20533e-13
2.01849e-13
4.87874e-14
-9.14379e-14
-8.43367e-14
-7.55565e-14
-8.04946e-14
-1.17999e-13
-8.28842e-14
-1.44822e-13
-5.91443e-16
-3.96901e-14
-7.27276e-16
-6.28866e-16
-4.34567e-16
-6.93949e-16
-4.0743e-16
-2.07429e-15
-7.0139e-16
0
-5.20402e-14
-6.70301e-13
-5.15094e-12
-6.64336e-11
-3.70365e-11
-6.58792e-11
-3.48867e-11
-1.75983e-11
-6.06573e-11
1.95018e-15
3.93468e-15
4.71213e-15
1.04272e-13
5.52471e-15
8.54728e-14
5.24479e-15
9.75352e-15
1.66649e-16
1.20618e-15
-3.39819e-16
9.71095e-16
0
2.43884e-15
-8.11296e-14
2.10887e-14
-3.35039e-14
0
-5.33124e-16
0
-4.76381e-16
-3.25895e-15
-3.45621e-16
-1.23713e-15
-1.46959e-16
-2.44114e-16
-1.69895e-16
-5.78183e-16
-1.93949e-16
-7.16843e-16
-2.22733e-16
-4.25718e-16
-3.01197e-16
-3.59266e-16
-1.86898e-18
-2.68812e-15
-3.723e-14
-1.6608e-14
-1.36399e-11
-9.92026e-14
-5.80868e-11
-7.38041e-12
-7.79015e-11
-1.53155e-11
-2.05187e-11
-7.52454e-11
-3.13913e-14
2.19831e-14
-6.17079e-14
9.43196e-13
-2.54577e-14
1.3327e-12
-1.46234e-15
1.38634e-14
-7.36808e-16
4.47106e-16
-1.79368e-15
1.24275e-15
-1.06201e-14
3.42265e-15
-1.72288e-14
3.09242e-15
-2.35913e-14
2.89334e-16
-2.24845e-14
2.0427e-15
-4.85909e-15
-7.8354e-16
-2.34481e-16
-4.59867e-16
-4.17529e-16
-9.28902e-17
-4.77691e-16
-1.02462e-16
-3.50294e-16
-5.50452e-17
-2.70102e-16
-8.43237e-17
-8.76799e-16
-1.83622e-16
-7.77077e-15
-3.58779e-16
-7.95079e-16
-4.12066e-16
-9.90171e-14
-7.795e-16
-7.46187e-12
-1.68322e-14
-5.49507e-11
-1.72228e-12
-1.01229e-11
-1.20417e-10
-1.07327e-13
5.81231e-14
-6.91176e-13
2.01979e-12
-1.31514e-14
2.04564e-12
-1.01087e-15
1.6893e-15
-1.16081e-15
5.61028e-16
-3.76196e-15
1.68026e-15
-6.75881e-15
2.4828e-15
-1.02322e-14
1.69191e-15
-1.22182e-14
1.25737e-15
-8.74718e-15
4.99233e-16
-1.95335e-15
-6.38044e-17
-3.00387e-16
-4.32095e-17
-9.78709e-17
-7.6525e-18
-8.06629e-17
2.49908e-18
-4.96361e-17
4.10138e-18
-9.07709e-17
3.45021e-18
-2.00879e-16
-4.4436e-18
-2.5156e-16
-3.49176e-17
-2.88874e-16
-2.1158e-16
-3.09813e-16
-5.62472e-16
-1.61882e-14
-7.52796e-16
-1.73714e-12
-5.99569e-16
-7.8781e-16
-4.94187e-12
-3.66683e-13
2.07034e-13
-1.08564e-12
2.05949e-12
-8.70611e-13
1.98489e-12
-2.71662e-15
6.62478e-13
-2.10895e-15
6.14748e-16
-3.46326e-15
9.93455e-16
-3.65717e-15
1.13264e-15
-3.17815e-15
5.90123e-16
-2.15867e-15
1.64776e-16
-8.72501e-16
2.59036e-17
-1.84439e-16
-2.30315e-18
-1.50771e-17
2.26818e-19
4.94083e-18
3.55522e-18
6.66601e-18
7.54938e-18
5.01807e-18
1.0234e-17
-1.13305e-19
1.06778e-17
-1.31076e-17
8.55069e-18
-1.19122e-16
3.61328e-18
-7.78539e-16
-1.4475e-17
-1.40368e-15
-2.35298e-16
-1.4291e-15
-5.11001e-16
-1.45703e-15
-7.26043e-16
-9.82152e-16
-1.45947e-15
-8.13456e-13
3.27877e-13
-1.16588e-12
2.56443e-12
-1.2908e-12
2.26118e-12
-2.26286e-15
1.03141e-12
-1.6851e-15
6.96901e-16
-1.41738e-15
6.13196e-16
-1.26061e-15
5.21357e-16
-4.82899e-16
1.32296e-16
-1.87959e-16
1.73207e-17
-6.12877e-17
1.10931e-18
1.33782e-18
8.60938e-20
1.1644e-17
1.89894e-18
1.77393e-17
5.40869e-18
1.96387e-17
9.23099e-18
1.8243e-17
1.17751e-17
1.39151e-17
1.24944e-17
5.94203e-18
1.13833e-17
-9.76222e-18
8.58838e-18
-6.76046e-17
4.34049e-18
-7.6638e-16
-5.3001e-18
-1.98704e-15
-6.57139e-17
-2.3453e-15
-2.47361e-16
-2.00139e-16
-2.31055e-15
-3.88704e-13
1.18902e-13
-1.30904e-12
1.52047e-12
-1.22207e-12
2.32854e-12
-2.11232e-15
6.60361e-13
-1.5409e-15
7.81989e-16
-9.67116e-16
6.95297e-16
-3.21498e-16
5.32749e-16
-7.81445e-17
4.34218e-17
-6.47507e-18
1.15306e-17
5.54546e-18
1.22331e-19
1.28678e-17
3.40108e-20
1.98482e-17
1.83318e-18
2.41418e-17
4.72758e-18
2.50662e-17
7.79582e-18
2.36086e-17
1.00065e-17
2.03995e-17
1.08486e-17
1.54402e-17
1.03257e-17
8.23981e-18
8.76776e-18
-9.73123e-19
6.6454e-18
-1.62082e-17
4.33872e-18
-2.36611e-16
2.03821e-18
-7.04766e-16
-1.76343e-18
-6.56301e-18
-8.08239e-16
-3.57999e-14
8.64685e-15
-8.64218e-13
0
-7.66871e-13
6.64977e-13
-5.18019e-15
0
-4.62626e-15
8.88e-16
-2.15821e-15
2.92118e-15
-1.59106e-16
9.93904e-16
-7.08235e-17
4.23695e-17
1.08658e-18
1.38606e-17
7.94623e-18
-1.56233e-19
1.34723e-17
-5.67374e-20
1.83058e-17
8.90067e-19
2.13895e-17
2.75344e-18
2.23002e-17
5.00224e-18
2.14117e-17
6.87232e-18
1.92504e-17
7.80704e-18
1.62808e-17
7.69284e-18
1.28768e-17
6.75146e-18
9.15653e-18
5.36731e-18
4.87724e-18
3.912e-18
-6.15039e-20
2.63515e-18
-3.4579e-18
1.63296e-18
8.83025e-19
-2.15168e-17
-1.09287e-15
5.62591e-15
-5.30492e-14
2.96876e-16
-3.68574e-15
0
-3.85575e-15
2.22857e-16
-5.04045e-15
5.08734e-15
-2.49097e-15
4.88991e-15
-1.88973e-16
1.77614e-15
-9.0988e-17
6.18299e-17
-1.39871e-17
2.69632e-17
2.50522e-18
2.12781e-18
6.74075e-18
-5.06539e-20
1.06338e-17
-1.51687e-19
1.3603e-17
6.55504e-19
1.51516e-17
2.20862e-18
1.52148e-17
3.73488e-18
1.41087e-17
4.68856e-18
1.22499e-17
4.89414e-18
1.00526e-17
4.46418e-18
7.85379e-18
3.65944e-18
5.86993e-18
2.74599e-18
4.17076e-18
1.91348e-18
2.67486e-18
1.25292e-18
7.64992e-19
1.26639e-18
-1.33562e-16
9.33795e-15
-5.93556e-16
1.18146e-15
-4.65854e-16
1.20946e-15
-2.91838e-15
9.10302e-16
-4.00862e-15
5.35028e-15
-2.51687e-15
4.45254e-15
-2.65008e-16
1.01525e-15
-1.39706e-16
1.35949e-16
-6.07144e-17
5.38927e-17
-2.16043e-17
1.38628e-17
-3.81285e-18
9.48267e-19
2.38476e-18
-1.12047e-18
5.61591e-18
-1.03627e-18
7.68543e-18
3.34917e-19
8.51571e-18
1.46465e-18
8.3397e-18
2.29471e-18
7.48237e-18
2.65484e-18
6.27246e-18
2.55819e-18
4.97696e-18
2.17038e-18
3.77799e-18
1.67123e-18
2.77067e-18
1.19164e-18
1.94828e-18
8.01971e-19
5.17663e-19
1.21212e-18
-8.50297e-17
6.7128e-14
-1.55623e-16
1.43184e-15
-2.21582e-16
1.22137e-15
-1.05637e-15
1.2971e-15
-1.39166e-15
1.30699e-15
-8.44059e-16
1.10849e-15
-2.87007e-16
4.16069e-16
-1.73576e-16
1.93651e-16
-1.19516e-16
8.94306e-17
-7.24208e-17
3.59018e-17
-3.17559e-17
5.07257e-18
-6.60902e-18
-4.90309e-18
7.46034e-19
-2.92672e-18
2.63664e-18
-8.92901e-19
3.64473e-18
3.09737e-19
3.94967e-18
8.82047e-19
3.7285e-18
1.23053e-18
3.21181e-18
1.28167e-18
2.5868e-18
1.13029e-18
1.97934e-18
8.89861e-19
1.46304e-18
6.43979e-19
1.06082e-18
4.38553e-19
2.90509e-19
7.20139e-19
-1.26034e-14
1.39547e-13
-1.02493e-16
1.3037e-12
-1.40335e-16
1.20506e-15
-1.83359e-16
1.28617e-15
-2.10586e-16
6.11164e-16
-2.03969e-16
4.04548e-16
-1.93578e-16
2.79675e-16
-1.58079e-16
2.12299e-16
-1.32786e-16
1.18209e-16
-1.00869e-16
5.53595e-17
-5.90577e-17
1.12968e-17
-2.20276e-17
-7.95083e-18
-3.3472e-18
-7.51631e-18
4.49655e-19
-2.00935e-18
1.13241e-18
-4.13486e-20
1.48184e-18
2.60493e-19
1.51085e-18
5.00293e-19
1.34773e-18
5.73849e-19
1.10175e-18
5.26057e-19
8.46072e-19
4.20523e-19
6.23031e-19
3.05708e-19
4.54113e-19
2.07733e-19
1.37423e-19
3.27206e-19
0
1.39784e-13
-3.31589e-13
3.98462e-12
-5.99443e-13
1.09764e-11
-1.883e-16
8.31757e-12
-1.34388e-16
5.53725e-16
-9.6546e-17
3.64974e-16
-1.09338e-16
2.84358e-16
-1.0966e-16
2.23557e-16
-1.0078e-16
1.40875e-16
-8.3395e-17
6.92788e-17
-5.63715e-17
1.729e-17
-2.61188e-17
-8.7339e-18
-5.91091e-18
-1.06233e-17
-2.93728e-19
-3.18963e-18
2.40543e-19
-1.7371e-19
4.37146e-19
5.75927e-20
4.93848e-19
1.90624e-19
4.59119e-19
2.38007e-19
3.8053e-19
2.23803e-19
2.91815e-19
1.79411e-19
2.12119e-19
1.29308e-19
1.51915e-19
8.64541e-20
5.56861e-20
1.14092e-19
2.5788e-14
7.93922e-14
2.09117e-14
3.2725e-12
-1.07876e-13
1.11729e-11
-1.56594e-13
9.11674e-12
-2.27486e-17
1.4323e-12
-3.04351e-17
3.70911e-16
-3.76297e-17
2.89827e-16
-4.26639e-17
2.35287e-16
-4.32064e-17
1.5617e-16
-3.89037e-17
7.8806e-17
-2.92609e-17
2.23731e-17
-1.53261e-17
-6.26907e-18
-3.79781e-18
-9.21827e-18
-2.17881e-19
-2.52215e-18
3.02821e-20
-1.11498e-19
9.8092e-20
1.81892e-20
1.23924e-19
7.34645e-20
1.20528e-19
9.39729e-20
1.01422e-19
8.83844e-20
7.74924e-20
6.99426e-20
5.52852e-20
4.9293e-20
3.81569e-20
3.19936e-20
1.96849e-20
2.93178e-20
1.67799e-14
6.25182e-14
1.54994e-13
1.04708e-12
7.05886e-13
1.06962e-11
6.83349e-13
9.21349e-12
0
1.82139e-12
3.8189e-17
1.23507e-15
3.23517e-17
2.93914e-16
3.15217e-17
2.43763e-16
2.44308e-17
1.62186e-16
1.53408e-17
8.41748e-17
7.24121e-18
2.63984e-17
1.74978e-18
-3.33208e-18
-1.81036e-20
-5.67396e-18
-1.0545e-20
-1.03408e-18
1.93339e-21
-2.61602e-20
1.03885e-20
1.04935e-20
1.62797e-20
2.83996e-20
1.79605e-20
3.51234e-20
1.62115e-20
3.24263e-20
1.27606e-20
2.50684e-20
9.08539e-21
1.71107e-20
6.02698e-21
1.06595e-20
6.21392e-21
4.64047e-21
4.06438e-15
5.83619e-14
1.67908e-13
9.5608e-14
1.54138e-12
9.39043e-12
6.89974e-13
4.24833e-12
0
6.86038e-13
9.69552e-17
2.08791e-15
9.36829e-17
2.97644e-16
1.00695e-16
2.45082e-16
8.7066e-17
1.61489e-16
6.38773e-17
8.33486e-17
3.6596e-17
2.57012e-17
1.24947e-17
-5.97651e-19
1.62514e-18
-2.01897e-18
4.36442e-20
-1.91528e-19
5.98502e-21
-1.53157e-21
-2.79324e-21
5.65676e-21
-5.27657e-21
1.10288e-20
-4.55497e-21
1.26083e-20
-2.88601e-21
1.11014e-20
-1.49664e-21
8.23349e-21
-6.85799e-22
5.3771e-21
-3.17868e-22
3.18339e-21
1.74842e-21
-1.84027e-22
5.28529e-15
5.29825e-14
5.05914e-14
5.02078e-14
5.08329e-13
0
1.28298e-13
0
0
0
3.59236e-17
1.28587e-15
1.57161e-16
3.33503e-16
1.50409e-16
2.33579e-16
1.25817e-16
1.43089e-16
8.8226e-17
6.92903e-17
4.26827e-17
1.90915e-17
1.00484e-17
4.95262e-19
6.86456e-19
-3.38749e-19
7.57267e-21
-1.17538e-20
8.54829e-22
-3.1006e-22
-3.91991e-21
2.64298e-21
-6.09094e-21
4.13252e-21
-5.79801e-21
4.27743e-21
-4.40688e-21
3.52443e-21
-2.92052e-21
2.46785e-21
-1.7678e-21
1.52173e-21
-1.01002e-21
8.46681e-22
4.33535e-22
-5.59501e-22
4.97915e-15
4.62752e-14
8.38211e-15
4.90988e-14
5.25416e-15
9.11907e-16
9.89937e-16
1.56547e-16
2.70541e-16
1.8834e-16
2.71719e-16
4.02155e-16
1.89592e-16
3.16854e-16
1.68437e-16
1.97509e-16
1.32871e-16
1.13815e-16
7.91328e-17
4.74796e-17
2.68077e-17
9.84049e-18
3.24634e-18
3.10306e-19
8.26806e-20
-1.9157e-20
8.20805e-22
-2.24912e-22
3.39564e-23
4.76594e-22
-2.94775e-21
1.1331e-21
-3.74788e-21
1.43733e-21
-3.30869e-21
1.34288e-21
-2.4127e-21
1.02335e-21
-1.54369e-21
6.6801e-22
-8.96338e-22
3.84594e-22
-4.83818e-22
1.99319e-22
9.45133e-23
-2.47675e-22
4.15683e-15
2.95518e-14
9.02415e-15
4.62562e-14
1.19344e-15
1.22908e-14
2.33907e-16
1.66877e-15
1.98142e-16
4.34881e-16
2.02266e-16
2.97162e-16
1.94802e-16
2.26487e-16
1.61425e-16
1.50218e-16
1.07529e-16
7.61435e-17
4.51781e-17
2.31894e-17
7.97034e-18
2.68418e-18
3.45564e-19
4.44592e-20
2.44574e-21
-2.51075e-22
4.39478e-22
1.68361e-23
-9.6636e-22
2.48819e-22
-1.7318e-21
4.17146e-22
-1.78938e-21
4.54837e-22
-1.43214e-21
3.83153e-22
-9.70527e-22
2.67577e-22
-5.8092e-22
1.6109e-22
-3.15152e-22
8.57214e-23
-1.57892e-22
4.10395e-23
1.79224e-23
-7.41935e-23
2.09221e-15
8.11506e-15
6.67368e-15
2.2785e-14
1.80835e-15
1.21008e-14
3.24914e-16
2.15218e-15
1.92973e-16
4.55177e-16
1.80971e-16
2.55743e-16
1.63732e-16
1.6949e-16
1.19335e-16
9.523e-17
5.69054e-17
3.48302e-17
1.25578e-17
5.72353e-18
7.81545e-19
2.46542e-19
8.79102e-21
1.33813e-21
1.73206e-21
-3.73128e-24
-6.91761e-23
3.71555e-23
-6.44261e-22
9.89175e-23
-8.03924e-22
1.34278e-22
-7.10314e-22
1.28777e-22
-5.11466e-22
9.76581e-23
-3.17196e-22
6.19842e-23
-1.74771e-22
3.40695e-23
-8.73344e-23
1.65867e-23
-4.01894e-23
7.26858e-24
2.90266e-24
-1.72448e-23
3.79809e-16
6.0586e-16
2.17005e-15
2.82698e-15
1.45114e-15
2.95659e-15
3.28172e-16
1.1549e-15
1.70091e-16
3.51763e-16
1.42055e-16
1.81851e-16
1.07982e-16
9.87858e-17
5.56435e-17
3.82374e-17
1.38966e-17
7.23778e-18
1.07702e-18
4.21556e-19
1.72845e-20
4.8791e-21
5.33253e-23
8.27181e-24
1.86824e-23
1.42295e-24
-1.9453e-22
1.62132e-23
-3.11975e-22
3.24176e-23
-3.09668e-22
3.78334e-23
-2.38537e-22
3.21724e-23
-1.53804e-22
2.18736e-23
-8.6334e-23
1.25108e-23
-4.32461e-23
6.21367e-24
-1.96695e-23
2.73747e-24
-8.23051e-24
1.08612e-24
3.92599e-25
-3.20243e-24
2.80265e-17
4.17965e-17
2.17607e-16
1.04633e-16
3.1408e-16
1.67824e-16
1.73984e-16
1.74194e-16
1.10393e-16
1.34416e-16
7.95591e-17
7.63686e-17
4.18124e-17
2.99633e-17
1.0928e-17
5.87653e-18
9.4716e-19
3.84936e-19
1.91257e-20
5.9587e-21
8.87002e-23
2.08066e-23
3.0821e-23
3.7568e-24
-4.97732e-23
1.5808e-25
-1.06004e-22
5.15351e-24
-1.20503e-22
9.01501e-24
-1.00588e-22
9.27349e-24
-6.79313e-23
7.00022e-24
-3.89905e-23
4.24022e-24
-1.96114e-23
2.1649e-24
-8.82744e-24
9.60821e-25
-3.6107e-24
3.78426e-25
-1.35805e-24
1.34221e-25
4.3349e-26
-4.74248e-25
4.59476e-18
8.81399e-18
2.00665e-17
1.63664e-17
3.41864e-17
1.8007e-17
4.31649e-17
2.08576e-17
4.19113e-17
2.20115e-17
2.2972e-17
1.19497e-17
5.99512e-18
2.65724e-18
5.41177e-19
1.92605e-19
1.27205e-20
3.64674e-21
8.09134e-23
1.98958e-23
3.02144e-23
4.47034e-26
-7.08082e-24
-9.69933e-25
-3.07896e-23
-5.20007e-25
-4.17872e-23
1.32069e-24
-3.85451e-23
2.14449e-24
-2.76125e-23
1.96336e-24
-1.63343e-23
1.31152e-24
-8.28324e-24
7.01941e-25
-3.69419e-24
3.16456e-25
-1.47612e-24
1.23941e-25
-5.35927e-25
4.30408e-26
-1.78759e-25
1.34451e-26
3.81918e-27
-5.52815e-26
1.00161e-18
1.31728e-18
4.41987e-18
3.86182e-18
6.20487e-18
3.23144e-18
6.74376e-18
2.29972e-18
5.18884e-18
1.30162e-18
1.74589e-18
3.8138e-19
1.85523e-19
3.81568e-20
5.3205e-21
1.05819e-21
4.87637e-23
1.00508e-23
2.12987e-25
4.54726e-26
1.334e-25
3.66956e-26
-7.38786e-24
-1.14934e-24
-1.28534e-23
-5.03655e-25
-1.34112e-23
2.72074e-25
-1.03584e-23
4.35531e-25
-6.39204e-24
3.56983e-25
-3.2949e-24
2.09834e-25
-1.4625e-24
9.82028e-26
-5.71516e-25
3.85935e-26
-1.99969e-25
1.31446e-26
-6.34794e-26
3.95959e-27
-1.84792e-26
1.07001e-27
2.6221e-28
-4.97764e-27
8.65747e-20
3.16168e-20
6.16262e-19
2.27031e-19
6.72282e-19
1.70496e-19
4.10805e-19
7.29493e-20
1.47234e-19
1.68579e-20
2.29396e-20
2.02967e-21
1.13729e-21
1.05218e-22
1.9736e-23
2.42535e-24
1.58661e-25
2.63436e-26
8.45349e-26
3.48767e-26
-1.35977e-24
-4.02629e-25
-3.44771e-24
-6.2067e-25
-4.27805e-24
-2.76366e-25
-3.60303e-24
4.226e-26
-2.34941e-24
7.51536e-26
-1.24486e-24
5.56112e-26
-5.54485e-25
2.85572e-26
-2.12931e-25
1.15352e-26
-7.18829e-26
3.89048e-27
-2.16664e-26
1.13207e-27
-5.9054e-27
2.89952e-28
-1.47117e-27
6.62828e-29
1.36723e-29
-3.38102e-28
1.35176e-21
6.45758e-23
2.01917e-20
1.23387e-21
1.82942e-20
9.94998e-22
6.29859e-21
3.47328e-22
1.036e-21
5.24943e-23
9.45805e-23
4.785e-24
4.14368e-24
2.75153e-25
7.22104e-26
7.28263e-27
3.4446e-26
1.88709e-26
-1.8593e-25
-8.15861e-26
-7.35884e-25
-2.41111e-25
-1.21037e-24
-2.5848e-25
-1.19141e-24
-1.15416e-25
-8.21779e-25
3.56466e-27
-4.51847e-25
1.09149e-26
-2.04041e-25
7.44028e-27
-7.764e-26
3.31125e-27
-2.54161e-26
1.13517e-27
-7.28107e-27
3.22137e-28
-1.85199e-27
7.83084e-29
-4.23549e-28
1.66196e-29
-8.80687e-29
3.12093e-30
5.24472e-31
-1.68162e-29
4.05113e-24
3.14087e-26
1.04505e-22
8.85252e-25
1.09213e-22
1.09562e-24
3.39415e-23
6.02761e-25
4.80469e-24
1.43642e-25
4.05149e-25
1.69234e-26
1.57295e-26
9.51862e-28
7.82165e-27
5.27469e-27
-1.87274e-26
-1.08371e-26
-1.21231e-25
-5.80112e-26
-2.76833e-25
-1.03205e-25
-3.51792e-25
-9.1635e-26
-2.85347e-25
-4.033e-26
-1.61093e-25
-2.74612e-27
-7.43447e-26
1.30543e-27
-2.82996e-26
8.62152e-28
-9.05796e-27
3.29364e-28
-2.47811e-27
9.35932e-29
-5.88167e-28
2.17617e-29
-1.22815e-28
4.28685e-30