/*--------------------------------*- C++ -*----------------------------------*\
  =========                 |
  \\      /  F ield         | OpenFOAM: The Open Source CFD Toolbox
   \\    /   O peration     | Website:  https://openfoam.org
    \\  /    A nd           | Version:  9
     \\/     M anipulation  |
\*---------------------------------------------------------------------------*/
FoamFile
{
    format      ascii;
    class       volScalarField;
    location    "20";
    object      epsilon;
}
// * * * * * * * * * * * * * * * * * * * * * * * * * * * * * * * * * * * * * //

dimensions      [0 2 -3 0 0 0 0];

internalField   nonuniform List<scalar> 
12225
(
285.513
270.772
258.125
244.127
232.787
224.096
217.69
213.655
213.992
216.483
227.427
250.312
280.391
308.924
342.67
363.687
394.969
398.904
52.5135
91.8303
107.288
115.627
125.772
138.542
155.147
173.237
193.921
217.343
246.842
280.268
319.206
353.257
394.046
425.031
473.709
537.389
20.5308
34.8834
44.6506
50.7126
55.6402
60.1694
65.3983
70.8466
77.3319
85.4826
97.8128
113.717
135.58
157.262
184.134
207.198
236.316
269.206
16.0042
19.4962
24.0554
27.6266
30.5663
33.0531
35.4231
37.6691
39.9671
42.6865
47.6871
55.8484
67.6757
81.4626
97.0756
113.054
128.691
147.031
15.039
15.7163
17.3891
19.0919
20.6648
22.0822
23.3618
24.533
25.6479
26.9963
29.2704
34.3902
41.8475
51.6036
61.9524
73.5324
83.6815
95.6473
14.7899
14.8265
15.248
15.8664
16.5793
17.3021
17.9784
18.6055
19.2064
19.9727
21.1613
24.556
29.9054
37.2803
45.0161
53.9585
61.5911
70.4345
14.7661
14.6146
14.6405
14.7242
14.9404
15.2221
15.5178
15.8073
16.1064
16.5222
17.1585
19.4682
23.5352
29.2995
35.4643
42.7075
48.8972
56.0639
14.7694
14.586
14.4667
14.378
14.3687
14.391
14.4512
14.5283
14.6234
14.8009
15.1222
16.7332
19.8798
24.468
29.5005
35.5395
40.7149
46.8256
14.7692
14.5897
14.4362
14.2931
14.1859
14.1045
14.0461
13.994
13.96
13.9753
14.1282
15.2815
17.7376
21.419
25.551
30.6354
35.028
40.3392
14.7681
14.5922
14.4342
14.278
14.1445
14.0227
13.9176
13.8052
13.6735
13.6227
13.6909
14.5583
16.5011
19.4797
22.8718
27.1686
30.9015
35.5516
14.7679
14.5921
14.4347
14.2752
14.1378
14.0037
13.887
13.7475
13.5871
13.4552
13.5092
14.2303
15.8087
18.2542
21.0604
24.6898
27.8698
31.9245
14.7679
14.5916
14.4349
14.2746
14.1373
14.0003
13.8822
13.7355
13.563
13.407
13.4633
14.1021
15.4571
17.5293
19.9339
23.0477
25.8013
29.3718
14.768
14.5912
14.4349
14.2742
14.1372
13.9992
13.8818
13.7344
13.5581
13.3908
13.442
13.9986
15.1731
16.9342
19.0074
21.6708
24.043
27.1874
14.7678
14.5913
14.4347
14.2742
14.1367
13.9981
13.8812
13.7356
13.5592
13.3843
13.4239
13.8928
14.9095
16.392
18.1512
20.38
22.3728
25.0048
14.7673
14.5917
14.4343
14.2745
14.1364
13.9966
13.8806
13.7371
13.5613
13.3817
13.4096
13.776
14.6627
15.8403
17.3398
19.082
20.7219
22.9245
14.7656
14.5943
14.4327
14.2772
14.1348
13.9955
13.8814
13.7417
13.5659
13.3852
13.411
13.6432
14.3645
15.1425
16.447
17.5399
19.0932
20.5675
14.7667
14.5921
14.4349
14.2756
14.1347
13.9961
13.8817
13.7393
13.5672
13.3875
13.4194
13.5962
14.1012
14.7463
15.5264
16.548
17.4502
18.6546
14.7656
14.5934
14.4323
14.2789
14.1292
13.9994
13.8876
13.7154
13.6054
13.4103
13.3629
13.5537
13.905
14.408
14.8819
15.5753
16.1363
17.0252
14.7606
14.601
14.4272
14.2801
14.1353
13.9932
13.8707
13.745
13.6039
13.4352
13.2804
13.396
13.3945
13.8726
14.4428
14.9481
15.2698
15.8503
14.766
14.593
14.4339
14.2768
14.1366
13.9955
13.8772
13.7545
13.6107
13.4441
13.2806
13.3328
13.5167
13.938
14.4205
15.1313
15.7586
16.6104
14.7676
14.5909
14.4347
14.2754
14.1369
13.9963
13.8774
13.7542
13.6087
13.4442
13.2822
13.3356
13.5168
13.8949
14.332
14.9789
15.5987
16.4333
14.7677
14.5909
14.434
14.2758
14.1362
13.9971
13.8776
13.7536
13.6096
13.4452
13.2845
13.3356
13.5081
13.9461
14.4439
15.244
16.0519
17.1761
14.7671
14.5919
14.4328
14.2776
14.1341
14.0037
13.8783
13.762
13.6271
13.4734
13.3287
13.3875
13.6093
14.2834
15.0707
16.395
17.7637
19.6835
14.7665
14.5919
14.4333
14.2831
14.1516
14.0332
13.9334
13.8393
13.7404
13.6401
13.5643
13.6816
14.1121
15.2763
16.6585
18.8953
21.2209
24.3677
14.7637
14.5942
14.4596
14.3607
14.3009
14.2766
14.2789
14.2975
14.315
14.3534
14.406
14.715
15.5964
17.5439
19.8827
23.4165
27.0874
31.7906
14.7569
14.6922
14.7562
14.9198
15.172
15.4663
15.7417
16.0223
16.2506
16.5318
16.8224
17.5633
19.2081
22.3501
26.0991
31.3813
36.8542
43.4502
14.9591
15.4387
16.5567
17.6971
18.6897
19.5957
20.3475
21.0441
21.6026
22.2323
22.9038
24.4689
27.3631
32.335
38.1865
45.9153
53.8822
62.8937
16.2699
20.9495
24.9873
27.8048
29.811
31.4819
32.8745
34.2235
35.4135
36.7361
38.245
41.5434
46.7514
54.9109
64.2459
75.8282
87.5293
100.003
29.9454
47.2066
54.8842
58.8877
61.7485
64.6942
67.7462
71.2471
74.627
78.3213
82.6813
90.56
100.781
115.055
130.11
147.309
163.665
179.718
165.782
160.128
154.841
149.729
144.509
140.022
135.999
132.576
128.579
125.225
124.764
129.94
140.919
158.059
176.206
198.653
219.023
240.791
10.3186
4.17772
5.63934
6.75353
7.63114
8.58522
52.87
70.4276
86.1748
100.899
113.85
126.506
137.403
148.38
157.623
167.137
175.009
183.283
190.127
197.432
203.526
209.965
215.403
221.062
226.062
231.135
236.073
241.206
247.005
253.157
257.841
259.143
266.398
267.999
269.375
269.508
269.745
268.465
267.391
264.677
262.319
252.858
255.136
242.723
243.142
238.594
237.261
233.034
231.122
227.431
223.711
219.21
216.592
211.949
210.521
207.252
202.842
198.989
196.743
191.89
190.471
187.751
184.853
179.98
178.792
171.626
169.955
163.002
158.782
150.887
148.347
144.051
143.144
140.755
141.656
139.737
137.781
131.852
126.08
117.34
109.272
100.375
92.9754
86.3413
81.4518
76.7798
73.4496
71.4248
70.1691
69.9113
68.0617
67.1201
66.6331
67.4341
68.6139
66.9439
66.9124
66.9439
67.4724
67.9993
68.4892
71.7495
76.0382
74.5128
74.2226
76.8255
75.4322
75.8224
76.1386
79.539
78.7653
82.1523
85.5936
88.753
89.9611
88.7818
88.3318
88.8976
89.4225
94.4724
101.85
99.1605
98.6673
98.635
98.4519
102.271
103.381
102.624
102.521
102.947
103.224
107.557
106.082
107.067
107.862
109.256
113.514
117.722
115.271
117.938
116.577
121.152
119.92
123.204
121.362
120.74
123.236
124.827
124.582
127.634
132.314
130.253
129.65
132.601
134.071
133.107
132.669
135.615
133.772
136.664
136.807
137.079
137.334
137.848
139.041
139.801
144.488
143.191
144.063
147.091
150.328
147.299
150.149
147.497
148.302
148.049
145.947
144.975
138.154
135.409
22.4157
20.7927
27.5634
38.648
51.6247
64.1963
75.1919
79.8057
84.2093
86.882
88.7462
90.4805
91.7535
93.1348
94.1929
95.4502
96.4591
97.6444
98.6287
99.7524
100.712
101.781
102.742
103.805
104.833
105.973
107.161
108.476
109.896
111.379
112.818
114.14
115.623
116.764
117.988
119.118
120.096
120.468
120.626
120.161
120.569
119.784
120.097
118.619
118.601
118.022
117.618
116.874
116.272
115.355
114.439
113.319
112.255
110.985
109.957
108.644
107.327
106.014
104.892
103.565
102.578
101.426
100.268
98.9953
97.9586
96.3618
94.9299
93.0218
91.1007
88.8219
86.647
84.323
82.4206
80.6116
79.2389
77.8081
76.4801
74.8366
73.0629
70.4642
66.9983
62.81
58.4045
53.983
49.9093
46.1606
42.9229
40.2695
38.1236
36.574
35.3421
34.4465
33.6124
33.103
32.6445
32.2627
32.016
31.4414
31.185
30.9932
31.4953
31.0263
31.0324
30.965
31.4685
31.1556
31.0159
31.3739
31.6834
31.3768
31.9042
31.5071
31.5533
31.6972
31.8596
31.942
32.0385
33.0851
32.6603
33.3765
33.671
34.7151
34.1081
34.0432
35.3124
34.8327
35.8043
35.2601
35.1911
35.9569
35.4263
36.6608
36.1048
35.9886
36.7973
36.7154
37.9353
37.6539
37.6493
38.5695
38.21
38.2812
39.6623
39.1485
39.9039
40.2121
40.5592
40.2095
40.078
40.119
40.3844
41.0171
42.0361
42.9517
43.5503
44.0581
44.2529
44.8078
44.6179
45.0105
45.7429
46.2502
46.9157
47.2152
47.9802
48.0813
49.5746
48.1497
48.9317
49.4967
50.2953
50.2624
51.0843
52.4669
53.5285
55.0761
56.3182
59.3521
61.2727
70.7297
50.8386
55.1785
61.2195
65.1378
67.9899
70.0027
71.7278
71.8835
71.5499
71.069
71.9026
72.7148
73.4533
74.2628
74.9687
75.6873
76.3061
76.9513
77.5515
78.2204
78.9052
79.6996
80.5603
81.5535
82.6394
83.8563
85.1654
86.5743
88.0411
89.5402
91.0265
92.4554
93.8353
95.104
96.2849
97.3142
98.1961
98.8558
99.3577
99.642
99.8969
100.379
100.378
100.084
99.8071
99.3538
98.8232
98.1472
97.4197
96.5618
95.6492
94.6364
93.5972
92.4886
91.381
90.2018
89.0136
87.7976
86.5949
85.3584
84.147
82.8819
81.567
80.1917
78.7678
77.2231
75.6367
73.9758
72.3013
70.6083
68.9837
67.445
66.0419
64.7216
63.4896
62.2771
61.0721
59.8077
58.4836
56.981
55.2363
53.2092
50.63
47.5431
44.1847
40.68
37.217
33.9803
31.1018
28.6751
26.694
25.1288
23.9069
22.9696
22.284
21.7335
21.3278
20.9965
20.7311
20.4831
20.3647
20.2645
20.1223
20.0343
19.8213
19.714
19.7171
19.5217
19.4512
19.3697
19.3223
19.4162
19.2039
19.1426
19.2805
19.0806
19.2161
19.084
19.0407
19.2203
19.1205
19.2086
19.3745
19.2065
19.5314
19.3147
19.3214
19.3102
19.2932
19.3213
19.5226
19.7766
19.5496
19.4855
19.4566
19.5648
19.7376
19.8856
19.9988
20.0392
19.9664
19.9562
20.3776
20.1938
20.4593
20.5989
20.7222
20.5798
20.5094
20.593
20.7815
20.812
20.8151
20.8973
21.2792
21.2528
21.2901
21.5926
21.8689
21.8042
22.0633
22.4742
22.8908
23.1941
23.4323
23.6291
23.8693
24.0081
24.2088
24.4004
24.5597
24.8647
24.7499
25.0401
25.3559
25.8669
26.2326
27.1478
27.7084
31.3696
69.9472
74.2799
73.4868
69.5743
67.1355
65.8265
64.8035
64.5515
64.6201
64.9734
65.5781
66.2433
66.8618
67.4716
68.0005
68.5179
68.9933
69.5092
70.0519
70.6952
71.4262
72.3002
73.2986
74.4555
75.7446
77.179
78.7189
80.3545
82.0504
83.78
85.4915
87.1476
88.7247
90.1838
91.5151
92.6785
93.6777
94.478
95.1083
95.5391
95.8615
96.3522
96.3025
96.0251
95.6179
95.051
94.3696
93.5516
92.6474
91.6243
90.5417
89.3795
88.1735
86.9093
85.6198
84.2858
82.9363
81.5624
80.1786
78.7581
77.3111
75.8311
74.3361
72.8335
71.3341
69.832
68.3373
66.8487
65.3779
63.9316
62.5291
61.1838
59.9028
58.6738
57.4836
56.3121
55.1434
53.9582
52.7436
51.4611
50.0691
48.5453
46.8177
44.891
42.4982
39.6561
36.525
33.2841
30.1083
27.1607
24.561
22.3638
20.5805
19.1772
18.1073
17.2972
16.6897
16.2338
15.8851
15.6126
15.4076
15.2349
15.0869
14.9577
14.8359
14.7304
14.6388
14.5465
14.4647
14.3843
14.2957
14.2132
14.1285
14.0235
13.9696
13.8122
13.7521
13.6906
13.7038
13.5997
13.6534
13.5555
13.5646
13.4959
13.4666
13.4159
13.3846
13.4561
13.4706
13.4855
13.3608
13.4428
13.3148
13.3792
13.2378
13.2098
13.1903
13.3622
13.2823
13.3888
13.4201
13.4469
13.3499
13.417
13.3252
13.3137
13.324
13.4194
13.4747
13.3637
13.5159
13.4167
13.55
13.6478
13.5268
13.5031
13.512
13.6179
13.6971
13.7752
13.758
13.9027
14.1332
14.3071
14.4204
14.5132
14.5751
14.6672
14.7792
14.8533
14.9556
15.105
15.2031
15.3152
15.4205
15.6607
15.831
16.2432
16.5211
18.12
76.2593
75.2558
72.2169
66.5815
62.852
61.1815
60.6947
60.8733
61.3438
61.9696
62.7074
63.4724
64.1823
64.8683
65.5004
66.1398
66.7807
67.492
68.2752
69.1906
70.2337
71.4474
72.8156
74.3579
76.0436
77.8946
79.8668
81.9367
84.0575
86.1852
88.264
90.2476
92.102
93.783
95.274
96.54
97.5858
98.3875
98.9989
99.3755
99.9429
99.8936
99.5839
99.053
98.3589
97.4928
96.4933
95.3379
94.0306
92.734
91.3929
89.9846
88.5366
87.0392
85.5184
83.9685
82.408
80.8205
79.2182
77.5972
75.977
74.3593
72.7597
71.1806
69.6298
68.1036
66.6051
65.1305
63.6872
62.279
60.9112
59.5856
58.3026
57.0558
55.8364
54.6333
53.4362
52.2343
51.019
49.7686
48.4567
47.0618
45.5352
43.858
41.9628
39.6846
37.0662
34.176
31.0708
28.0068
25.1053
22.4892
20.2542
18.3884
16.9022
15.7489
14.8689
14.208
13.7108
13.333
13.0438
12.8135
12.6262
12.468
12.3322
12.213
12.1053
12.0079
11.916
11.8294
11.7427
11.6539
11.5788
11.4825
11.4107
11.3105
11.2192
11.1645
11.1236
11.0283
10.9923
11.0131
10.9242
10.9244
10.8159
10.7631
10.7174
10.6762
10.6445
10.6511
10.6286
10.5351
10.4966
10.5125
10.481
10.4787
10.3698
10.3557
10.3213
10.3089
10.3055
10.298
10.377
10.2822
10.2583
10.3157
10.3014
10.3326
10.2454
10.2105
10.2037
10.1942
10.3058
10.2446
10.2119
10.1958
10.2961
10.2025
10.3428
10.2814
10.4004
10.3195
10.3972
10.4261
10.4908
10.4315
10.5244
10.6864
10.6191
10.619
10.687
10.7964
10.8845
10.9305
11.0301
11.2229
11.3197
11.5376
11.6622
12.4883
79.3224
70.649
66.243
61.9527
59.9443
59.3585
59.4918
60.0863
60.877
61.7512
62.6573
63.5776
64.4641
65.3519
66.225
67.142
68.1069
69.1877
70.3936
71.7871
73.3708
75.1887
77.2279
79.5066
81.9912
84.6569
87.4315
90.2654
93.0853
95.8326
98.459
100.905
103.125
105.068
106.711
108.015
109.01
109.613
110.28
110.85
110.716
110.216
109.46
108.467
107.295
105.946
104.472
102.871
101.191
99.4365
97.6399
95.793
93.9226
92.0239
90.1208
88.2038
86.288
84.3701
82.4712
80.5908
78.744
76.9294
75.1572
73.4247
71.737
70.0888
68.4784
66.8971
65.3599
63.8645
62.41
60.993
59.6108
58.2586
56.9308
55.6203
54.3205
53.0241
51.7269
50.4103
49.0575
47.652
46.1542
44.5376
42.7783
40.6907
38.3253
35.727
32.9298
29.9989
27.0465
24.2113
21.5553
19.2781
17.3922
15.876
14.6883
13.7878
13.0895
12.5579
12.1518
11.837
11.5877
11.3858
11.2172
11.0748
10.948
10.8362
10.7336
10.6377
10.5463
10.4599
10.3802
10.2939
10.2227
10.1398
10.0715
9.99464
9.94635
9.89755
9.83674
9.79608
9.74219
9.70139
9.63538
9.59304
9.52186
9.48285
9.43407
9.40238
9.31423
9.26835
9.25743
9.16452
9.12823
9.09708
9.06349
9.09041
8.98834
8.95859
9.00436
8.91253
8.89214
8.8517
8.82754
8.86896
8.87105
8.85218
8.83619
8.73972
8.82332
8.7242
8.70428
8.79923
8.70184
8.6673
8.65593
8.62019
8.63106
8.715
8.74513
8.75
8.73731
8.66994
8.64522
8.61342
8.60564
8.62474
8.67875
8.68488
8.79957
8.75367
8.76199
8.78121
8.81121
8.96674
9.01594
9.1679
9.30741
9.75429
84.6275
64.8535
60.8311
59.0992
58.6504
58.9469
59.5884
60.5326
61.6446
62.887
64.1697
65.4944
66.8361
68.2412
69.6854
71.2228
72.8602
74.6679
76.6589
78.8988
81.3881
84.169
87.2154
90.5319
94.0601
97.7619
101.562
105.393
109.159
112.774
116.15
119.204
121.875
124.096
125.856
127.09
128.153
129.164
129.272
128.863
128.049
126.876
125.427
123.723
121.834
119.773
117.6
115.321
112.987
110.6
108.196
105.773
103.36
100.948
98.5564
96.1817
93.8477
91.5525
89.313
87.1238
84.9958
82.9225
80.9102
78.953
77.0532
75.2041
73.405
71.6484
69.9378
68.2695
66.6421
65.0513
63.494
61.966
60.4632
58.9805
57.5127
56.0544
54.5998
53.1369
51.6529
50.1341
48.5423
46.8549
45.055
42.9457
40.5963
38.0644
35.3931
32.5997
29.7188
26.8334
24.0454
21.4788
19.2109
17.289
15.7216
14.4486
13.4781
12.7405
12.1797
11.751
11.4184
11.157
10.9451
10.7713
10.6215
10.4921
10.3774
10.2719
10.176
10.0863
10.0024
9.92104
9.84544
9.77124
9.7011
9.63328
9.57465
9.50989
9.44707
9.39072
9.33349
9.28039
9.22889
9.17746
9.12471
9.06834
9.01585
8.96979
8.9075
8.84447
8.80242
8.71186
8.67421
8.66754
8.62006
8.59403
8.49788
8.45437
8.44984
8.40762
8.39255
8.30591
8.27622
8.28551
8.26537
8.24913
8.16495
8.12758
8.14188
8.10369
8.08482
8.0859
8.04798
8.04126
8.03839
7.94269
8.01469
7.93066
7.90568
7.98907
7.90621
7.95881
7.84001
7.80394
7.78105
7.8708
7.91888
7.93934
7.85384
7.86839
7.88371
7.79715
7.77397
7.78869
7.81035
7.9372
8.09477
8.33435
86.4702
61.2728
57.6986
57.3256
58.1445
59.1558
60.5348
62.2002
64.0091
65.9358
67.9276
69.9887
72.0784
74.2204
76.4186
78.7425
81.2078
83.9021
86.8466
90.1247
93.7399
97.7426
102.098
106.805
111.78
116.968
122.243
127.5
132.591
137.386
141.754
145.576
148.758
151.244
152.909
154.382
155.581
155.539
154.785
153.456
151.677
149.501
147.031
144.303
141.406
138.362
135.243
132.059
128.867
125.667
122.5
119.36
116.273
113.234
110.269
107.373
104.566
101.839
99.2028
96.6471
94.1781
91.7853
89.4717
87.2273
85.0528
82.9398
80.8866
78.8856
76.9352
75.0296
73.1666
71.3411
69.55
67.7894
66.0559
64.3454
62.6539
60.9769
59.3087
57.6398
55.9595
54.2561
52.4917
50.6451
48.7018
46.4572
43.9909
41.3683
38.6457
35.8566
33.0095
30.1269
27.2667
24.5186
21.9711
19.7
17.7511
16.131
14.8263
13.7992
13.0036
12.3911
11.9212
11.5585
11.2744
11.0474
10.8606
10.7036
10.57
10.4509
10.3466
10.2519
10.164
10.0794
9.99847
9.92065
9.84585
9.77383
9.70665
9.63954
9.57161
9.50669
9.44001
9.37429
9.31
9.2497
9.1861
9.11947
9.06233
8.99744
8.94188
8.87477
8.83399
8.7849
8.74228
8.68919
8.62609
8.57985
8.52203
8.4411
8.41277
8.36603
8.33574
8.30049
8.27295
8.2352
8.19554
8.14726
8.08998
8.05355
7.97495
7.93486
7.89434
7.87238
7.88371
7.88027
7.80835
7.77601
7.8036
7.7182
7.68491
7.66475
7.63763
7.67257
7.56249
7.52437
7.55623
7.56861
7.49007
7.54579
7.44271
7.45696
7.44897
7.42482
7.33957
7.31337
7.29926
7.37723
7.44585
7.56412
86.1426
59.9705
56.3267
56.674
58.2095
60.2694
62.5983
65.0794
67.6737
70.4103
73.2343
76.1405
79.0892
82.1219
85.2384
88.5281
92.0207
95.8341
100.005
104.644
109.758
115.409
121.546
128.156
135.119
142.34
149.633
156.834
163.721
170.099
175.77
180.549
184.338
186.819
188.904
190.417
190.315
189.138
187.148
184.47
181.275
177.649
173.737
169.596
165.34
161.001
156.661
152.334
148.074
143.882
139.794
135.805
131.946
128.21
124.616
121.15
117.822
114.618
111.542
108.577
105.725
102.971
100.314
97.7418
95.2517
92.8329
90.4826
88.1912
85.9556
83.768
81.6252
79.5212
77.4528
75.4157
73.4071
71.4238
69.4624
67.5192
65.5896
63.6653
61.7369
59.7938
57.7995
55.7323
53.5832
51.1345
48.4703
45.6634
42.7776
39.8554
36.9234
33.9923
31.0736
28.2098
25.4651
22.9143
20.6245
18.6386
16.9724
15.6135
14.5327
13.6866
13.0358
12.5369
12.1537
11.8532
11.6139
11.4191
11.2586
11.1194
11.003
10.9
10.8049
10.7119
10.6233
10.5372
10.4537
10.3731
10.297
10.2217
10.144
10.0637
9.98183
9.89878
9.81723
9.7391
9.6628
9.58765
9.51652
9.4456
9.37822
9.30948
9.24776
9.18449
9.12515
9.05944
8.9909
8.93398
8.87691
8.8201
8.76196
8.70664
8.65369
8.60421
8.55859
8.50427
8.45076
8.39826
8.33811
8.29092
8.2357
8.14927
8.11058
8.10111
8.10052
8.07442
8.03841
7.99576
7.96696
7.91522
7.86364
7.81686
7.77652
7.75082
7.64896
7.60138
7.5622
7.52995
7.51393
7.50146
7.39789
7.37091
7.38386
7.30684
7.33522
7.23268
7.23263
7.22695
7.16285
7.16773
88.7165
59.0849
55.5711
56.5724
59.0566
62.0722
65.268
68.5924
72.0263
75.6274
79.3808
83.2512
87.1881
91.2439
95.4266
99.8564
104.584
109.771
115.469
121.828
128.851
136.618
145.05
154.126
163.672
173.553
183.506
193.287
202.577
211.087
218.505
224.602
228.768
231.938
234.276
234.402
232.944
230.175
226.383
221.758
216.553
210.915
205.041
199.024
193.001
187.013
181.152
175.423
169.884
164.532
159.402
154.483
149.792
145.309
141.043
136.97
133.089
129.378
125.835
122.435
119.176
116.038
113.016
110.093
107.264
104.516
101.843
99.2352
96.6866
94.1885
91.7365
89.3235
86.946
84.5995
82.2817
79.9896
77.7208
75.4725
73.2411
71.0201
68.8007
66.5731
64.3047
61.9704
59.5618
56.8692
53.9562
50.9025
47.7801
44.639
41.5101
38.4195
35.3826
32.4038
29.5082
26.744
24.1732
21.8545
19.8287
18.1143
16.7051
15.5767
14.6961
14.018
13.4979
13.0945
12.7788
12.5307
12.3322
12.1682
12.0362
11.9213
11.8167
11.7141
11.6191
11.5264
11.4364
11.3502
11.2667
11.1818
11.0904
10.9933
10.8931
10.7923
10.6923
10.5952
10.5028
10.4136
10.3267
10.2419
10.1591
10.0758
9.99411
9.91283
9.83286
9.75292
9.67319
9.59806
9.52539
9.4547
9.3812
9.31101
9.24013
9.17064
9.10721
9.04151
8.97961
8.91803
8.85472
8.79681
8.73953
8.67466
8.62405
8.57362
8.53152
8.4799
8.43218
8.38367
8.33177
8.28154
8.20692
8.14826
8.10666
8.06425
8.00065
7.95067
7.90705
7.83628
7.79966
7.70647
7.65524
7.64346
7.60897
7.55892
7.53169
7.42994
7.39912
7.28833
7.23839
7.19634
93.0988
60.2898
55.9377
57.3177
60.5116
64.2988
68.2872
72.4099
76.6579
81.1014
85.7598
90.6281
95.6172
100.786
106.149
111.868
118.015
124.803
132.3
140.695
149.985
160.272
171.45
183.498
196.196
209.377
222.695
235.82
248.304
259.718
269.627
277.283
282.48
286.761
288.115
286.977
283.764
278.801
272.511
265.214
257.286
248.966
240.526
232.099
223.849
215.83
208.136
200.773
193.786
187.156
180.9
174.984
169.41
164.141
159.172
154.466
150.012
145.778
141.752
137.906
134.228
130.695
127.295
124.01
120.83
117.738
114.729
111.787
108.908
106.079
103.297
100.552
97.8409
95.1592
92.5044
89.8742
87.2671
84.6813
82.1143
79.5617
77.0154
74.4664
71.8877
69.2492
66.54
63.5751
60.3763
57.0315
53.6201
50.1973
46.8014
43.4652
40.2133
37.0573
33.9995
31.0532
28.2523
25.6473
23.2877
21.2147
19.4481
17.9903
16.8211
15.903
15.1908
14.6375
14.2107
13.8853
13.6334
13.4339
13.2748
13.1377
13.0235
12.9131
12.8204
12.7263
12.6372
12.5559
12.4678
12.3787
12.2761
12.1693
12.0617
11.9555
11.8452
11.7366
11.6333
11.5338
11.4363
11.3405
11.2439
11.1458
11.0464
10.9481
10.8501
10.7537
10.6583
10.5644
10.4715
10.3794
10.2862
10.1944
10.1034
10.0123
9.92573
9.84079
9.75957
9.68103
9.60372
9.52865
9.45628
9.38293
9.31525
9.24745
9.18233
9.11685
9.05335
8.98741
8.92133
8.85628
8.78375
8.71705
8.65655
8.59449
8.52655
8.46266
8.40039
8.34451
8.27944
8.20638
8.14607
8.06214
7.98687
7.95344
7.89781
7.82054
7.75173
7.65474
7.58869
7.49678
101.469
62.2745
57.187
58.8144
62.4446
66.7967
71.4242
76.2381
81.2079
86.4005
91.832
97.593
103.604
109.9
116.49
123.569
131.228
139.727
149.143
159.706
171.406
184.378
198.506
213.802
230.028
247.027
264.386
281.7
298.366
313.745
327.245
337.383
344.456
349.443
350.453
348.001
342.636
334.861
325.324
314.551
303.107
291.364
279.699
268.306
257.385
246.996
237.22
228.039
219.471
211.465
204.008
197.044
190.55
184.47
178.779
173.428
168.392
163.629
159.117
154.82
150.719
146.785
143.003
139.348
135.807
132.362
129.003
125.714
122.488
119.311
116.179
113.081
110.013
106.972
103.955
100.96
97.9859
95.0332
92.1003
89.1851
86.2802
83.3778
80.4579
77.4838
74.4412
71.1824
67.6688
63.9999
60.2612
56.5141
52.7995
49.158
45.6215
42.2089
38.9306
35.7844
32.7728
29.9187
27.2611
24.844
22.7078
20.8751
19.3493
18.1141
17.1327
16.362
15.7716
15.3249
14.9859
14.7139
14.5001
14.3179
14.1901
14.0626
13.9832
13.879
13.801
13.7434
13.6486
13.5768
13.458
13.3558
13.2732
13.193
13.0827
12.988
12.9033
12.81
12.7203
12.6335
12.5371
12.4378
12.3323
12.2289
12.1232
12.0164
11.9086
11.7996
11.6888
11.576
11.462
11.3477
11.234
11.1195
11.0076
10.8981
10.7924
10.6903
10.5911
10.4946
10.4006
10.3086
10.2198
10.1326
10.0464
9.96113
9.87684
9.79146
9.70586
9.62261
9.53689
9.45429
9.37351
9.29138
9.20693
9.1236
9.04435
8.96972
8.89151
8.80827
8.72741
8.63669
8.54824
8.46099
8.37637
8.2738
8.18567
8.06408
7.989
7.84067
109.882
66.4344
59.8979
61.0945
64.7701
69.4143
74.4751
79.8063
85.3544
91.1731
97.2565
103.698
110.506
117.8
125.523
133.88
142.948
153.029
164.189
176.702
190.548
205.929
222.742
241.098
260.804
281.792
303.649
325.94
347.911
368.656
387.276
401.7
411.93
418.494
419.764
416.189
408.475
397.391
383.924
368.91
353.192
337.344
321.878
307.058
293.108
280.077
268.017
256.874
246.623
237.174
228.478
220.443
213.019
206.126
199.718
193.729
188.119
182.834
177.842
173.097
168.577
164.241
160.073
156.042
152.133
148.323
144.601
140.949
137.358
133.813
130.308
126.833
123.385
119.957
116.551
113.162
109.793
106.444
103.116
99.8071
96.5138
93.228
89.937
86.5988
83.1956
79.6226
75.7725
71.7533
67.6608
63.5572
59.4899
55.5014
51.6319
47.9064
44.3394
40.9356
37.6923
34.6034
31.6819
28.9541
26.4619
24.237
22.3096
20.6851
19.3465
18.269
17.4358
16.7943
16.3074
15.9036
15.595
15.2931
15.1196
14.9585
14.9219
14.6921
14.6619
14.6656
14.4865
14.5038
14.2644
14.1931
14.2229
14.2135
14.0492
14.0532
14.0602
13.9862
13.9505
13.9228
13.8493
13.7803
13.684
13.6054
13.5098
13.4044
13.2995
13.1924
13.0773
12.9561
12.8314
12.7031
12.5722
12.4384
12.3044
12.1715
12.0412
11.9141
11.7901
11.6694
11.5513
11.4358
11.3229
11.212
11.1018
10.9924
10.8832
10.7741
10.665
10.5581
10.4509
10.3453
10.2415
10.1367
10.0319
9.92565
9.82386
9.72308
9.62307
9.51871
9.41458
9.30306
9.19124
9.06963
8.95643
8.82247
8.71332
8.55999
8.46743
8.28296
119.881
72.3592
63.8351
64.1998
67.5683
72.1995
77.4308
83.0633
88.9989
95.2701
101.849
108.815
116.156
124.04
132.559
141.859
151.956
163.16
175.502
189.301
204.517
221.438
240.028
260.569
283.023
307.541
333.856
361.586
389.892
417.586
443.232
464.489
480.151
489.841
492.534
488.576
478.776
464.259
446.48
426.723
406.202
385.756
366.064
347.475
330.236
314.382
299.923
286.755
274.797
263.909
253.994
244.921
236.604
228.936
221.849
215.255
209.101
203.318
197.866
192.689
187.757
183.026
178.471
174.06
169.773
165.586
161.485
157.452
153.474
149.538
145.635
141.756
137.898
134.055
130.228
126.414
122.619
118.841
115.086
111.353
107.641
103.941
100.246
96.517
92.7289
88.8189
84.6129
80.2207
75.7527
71.2701
66.825
62.4645
58.2307
54.1545
50.2549
46.5412
43.0138
39.6693
36.4956
33.4936
30.68
28.0842
25.7441
23.6887
21.9334
20.4748
19.3047
18.3726
17.6618
17.1343
16.6626
16.2966
16.0197
15.8122
15.5669
15.433
15.2943
15.1935
15.0738
15.0815
14.9864
14.9681
14.7228
14.6565
14.6284
14.5747
14.7693
14.5878
14.7468
14.8895
14.8465
14.8941
14.7794
14.8104
14.7323
14.6391
14.5866
14.5302
14.4413
14.3421
14.237
14.1164
13.9861
13.8479
13.7046
13.5589
13.4119
13.2656
13.1205
12.9782
12.8378
12.6996
12.5633
12.4284
12.2937
12.1593
12.0243
11.8894
11.7544
11.6208
11.488
11.3559
11.2261
11.0954
10.9662
10.8345
10.7059
10.5768
10.4491
10.3181
10.1874
10.0491
9.91119
9.7603
9.62069
9.45665
9.32505
9.14027
9.03014
8.81117
129.987
79.6225
68.7067
67.9113
70.5914
74.9359
80.1125
85.8409
91.9839
98.5468
105.465
112.792
120.474
128.664
137.402
147.055
157.55
169.168
181.919
196.241
211.625
228.596
247.329
268.378
292
318.731
348.738
381.85
417.136
453.239
487.993
518.733
543.072
557.953
563.875
561.068
550.08
532.51
510.429
485.725
460.106
434.776
410.629
388.123
367.525
348.846
332.036
316.928
303.367
291.155
280.135
270.135
261.026
252.677
244.988
237.861
231.219
224.988
219.109
213.53
208.203
203.089
198.15
193.357
188.682
184.107
179.609
175.175
170.785
166.433
162.102
157.79
153.487
149.199
144.915
140.646
136.389
132.149
127.933
123.742
119.578
115.434
111.304
107.156
102.955
98.6845
94.0839
89.3101
84.4372
79.5596
74.7205
69.9734
65.3602
60.9144
56.6567
52.6023
48.7537
45.1102
41.6633
38.3976
35.299
32.3768
29.6572
27.178
24.9814
23.0927
21.5185
20.2405
19.2318
18.4679
17.8186
17.3217
16.9348
16.6299
16.3979
16.2333
15.9894
15.8845
15.6125
15.5064
15.4005
15.3281
15.207
15.1507
15.2879
15.0257
14.9856
15.0063
15.2234
15.399
15.1739
15.4492
15.2298
15.4551
15.2594
15.195
15.3706
15.5074
15.4707
15.4607
15.4426
15.3599
15.2639
15.153
15.0275
14.8939
14.7483
14.5974
14.444
14.2907
14.1371
13.9834
13.8298
13.6759
13.5211
13.365
13.2073
13.0486
12.889
12.7297
12.5711
12.4125
12.2561
12.0987
11.9431
11.7852
11.6289
11.4717
11.3154
11.1567
10.9984
10.8331
10.6693
10.4922
10.3281
10.1377
9.98316
9.77232
9.63983
9.39708
139.935
88.7572
75.3189
73.1583
74.9766
78.8335
83.7779
89.4619
95.6654
102.353
109.407
116.867
124.602
132.749
141.231
150.407
160.349
171.733
183.669
196.96
211.059
226.727
244.001
263.746
286.341
313.759
346.202
383.981
426.569
472.573
519.029
562.067
598.345
621.335
632.039
632.133
620.865
600.516
574.058
544.159
513.215
482.835
454.197
427.832
404.035
382.737
363.829
347.032
332.13
318.829
306.93
296.191
286.466
277.572
269.41
261.842
254.799
248.174
241.924
235.967
230.273
224.779
219.463
214.274
209.203
204.207
199.291
194.417
189.587
184.772
179.978
175.182
170.398
165.61
160.83
156.061
151.286
146.547
141.811
137.127
132.455
127.834
123.216
118.615
113.965
109.253
104.249
99.0354
93.7444
88.4426
83.1929
78.0455
73.0424
68.2152
63.5873
59.1726
54.9795
51.0077
47.2511
43.695
40.3216
37.1093
34.0598
31.1985
28.5787
26.2492
24.249
22.5797
21.218
20.1427
19.2717
18.5826
18.0574
17.6224
17.2903
17.0144
16.7799
16.5572
16.2787
16.1393
16.0544
15.9542
15.7087
15.6359
15.7047
15.4438
15.3995
15.3945
15.5679
15.6945
15.4424
15.7087
15.4646
15.4432
15.7192
15.4687
15.4631
15.842
15.6427
15.9299
16.1542
16.1146
16.1305
16.1114
16.0551
15.9843
15.8632
15.7327
15.5951
15.4516
15.3011
15.1452
14.9853
14.822
14.655
14.4844
14.3103
14.1333
13.9541
13.7735
13.5928
13.4112
13.2308
13.0492
12.8688
12.6868
12.5051
12.3226
12.1404
11.9565
11.773
11.5837
11.3971
11.1981
11.0128
10.802
10.6265
10.3979
10.243
9.98812
148.04
99.4355
83.9446
80.3862
81.2082
84.267
88.6836
94.0105
99.9829
106.52
113.457
120.773
128.324
136.25
144.695
153.672
163.054
173.436
183.606
194.757
206.419
219.511
234.276
251.807
272.878
299.096
332.391
374.005
423.628
479.773
538.785
595.365
643.438
678.957
693.811
696.248
684.133
660.488
629.284
594.123
558.056
523.114
490.636
461.192
434.999
411.89
391.628
373.834
358.19
344.337
332.007
320.922
310.899
301.737
293.322
285.504
278.207
271.319
264.793
258.542
252.542
246.721
241.059
235.517
230.045
224.66
219.305
214.008
208.712
203.445
198.157
192.884
187.583
182.295
176.998
171.698
166.421
161.133
155.897
150.671
145.509
140.363
135.268
130.169
125.05
119.869
114.403
108.752
103.024
97.3042
91.6539
86.1213
80.7473
75.5601
70.5831
65.8282
61.3048
57.0124
52.9485
49.0988
45.4474
41.971
38.6525
35.4925
32.5341
29.8344
27.4504
25.4049
23.6946
22.2984
21.1729
20.2622
19.5361
18.9613
18.481
18.0757
17.7492
17.4373
17.1689
16.9725
16.8078
16.6147
16.3802
16.2576
16.2084
15.9621
15.8716
15.9189
15.9294
15.8953
15.6973
15.845
15.6723
15.6112
15.5946
15.5466
15.5359
15.6386
15.6576
15.7727
16.2029
15.9792
16.1854
16.3793
16.4856
16.5867
16.4793
16.4243
16.355
16.2616
16.1396
16.0013
15.8514
15.6928
15.5255
15.3509
15.1701
14.9841
14.7941
14.6011
14.4063
14.2097
14.0128
13.8144
13.6162
13.4165
13.2164
13.0156
12.8148
12.6125
12.411
12.2051
12.0026
11.7898
11.5903
11.3688
11.1787
10.9439
10.7716
10.5189
152.594
110.444
93.9835
89.5228
89.634
91.8912
95.748
100.673
106.371
112.734
119.662
127.252
135.077
142.988
150.921
159.044
167.609
176.876
185.56
194.205
202.696
212.616
224.379
239.203
258.459
284.569
320.094
365.726
422.671
488.91
559.962
628.73
687.452
730.963
748.067
750.938
736.456
708.652
672.521
632.509
592.15
553.728
518.593
487.246
459.751
435.806
415.036
396.961
381.176
367.264
354.909
343.819
333.753
324.557
316.049
308.142
300.693
293.655
286.916
280.458
274.188
268.103
262.141
256.256
250.455
244.663
238.937
233.198
227.495
221.756
216.031
210.261
204.496
198.694
192.904
187.103
181.307
175.528
169.773
164.06
158.388
152.766
147.177
141.613
136.014
130.366
124.437
118.344
112.195
106.072
100.038
94.1395
88.4149
82.891
77.5868
72.5146
67.6804
63.0854
58.7251
54.5896
50.6628
46.9259
43.3602
39.9554
36.732
33.7435
31.05
28.6865
26.6662
24.9782
23.5923
22.4537
21.5152
20.7453
20.1001