/*--------------------------------*- C++ -*----------------------------------*\
  =========                 |
  \\      /  F ield         | OpenFOAM: The Open Source CFD Toolbox
   \\    /   O peration     | Website:  https://openfoam.org
    \\  /    A nd           | Version:  9
     \\/     M anipulation  |
\*---------------------------------------------------------------------------*/
FoamFile
{
    format      ascii;
    class       volScalarField;
    location    "20";
    object      nut;
}
// * * * * * * * * * * * * * * * * * * * * * * * * * * * * * * * * * * * * * //

dimensions      [0 2 -1 0 0 0 0];

internalField   nonuniform List<scalar> 
12225
(
4.14933e-05
3.93433e-05
3.74925e-05
3.54853e-05
3.38188e-05
3.24815e-05
3.1653e-05
3.10607e-05
3.10787e-05
3.13147e-05
3.13561e-05
3.24465e-05
3.5883e-05
3.90228e-05
4.42978e-05
4.78202e-05
5.2468e-05
5.94788e-05
0.000332187
0.000215438
0.000179384
0.000157638
0.000146426
0.000137821
0.000132915
0.000130834
0.000130299
0.000130126
0.000131703
0.000133867
0.000139172
0.000143569
0.000151243
0.000154687
0.000162596
0.000166202
0.000668624
0.000450399
0.000356417
0.000309061
0.00027512
0.000250019
0.000230538
0.000215247
0.000202182
0.000191132
0.00018381
0.000183799
0.00018901
0.000194246
0.000203393
0.000206043
0.000214484
0.00021238
0.000801518
0.000691123
0.000573452
0.00049925
0.000448913
0.00041042
0.000379177
0.000352406
0.000331174
0.000311999
0.000296351
0.000290878
0.000291588
0.000293218
0.000298058
0.000299201
0.00030379
0.000303608
0.000839571
0.000809852
0.000741203
0.00067604
0.000623365
0.000580052
0.000544149
0.000511337
0.000483046
0.00045924
0.000443314
0.000431812
0.000427088
0.000421158
0.000419498
0.000417138
0.000417393
0.000418233
0.000850324
0.00084319
0.000819589
0.000786498
0.000750247
0.000715215
0.000684202
0.000653758
0.000624791
0.000600266
0.000588605
0.000576952
0.000566855
0.000553407
0.00054733
0.000541789
0.000541026
0.000541622
0.00085153
0.000851071
0.00084323
0.000833408
0.000816732
0.000796802
0.000777026
0.000754652
0.000731114
0.00071139
0.00070732
0.000701564
0.000689821
0.000674157
0.000668232
0.000662529
0.000663241
0.000664319
0.000851482
0.000851971
0.000849889
0.000847489
0.000841183
0.000833775
0.000824528
0.000811439
0.000795766
0.000783869
0.000787539
0.000790714
0.000783273
0.00077149
0.000770515
0.000768519
0.00077314
0.000777645
0.000851527
0.000851765
0.00085078
0.000850497
0.000848588
0.000846466
0.000842779
0.00083729
0.000827554
0.000823126
0.000831296
0.000842654
0.000843668
0.000840137
0.000846767
0.000851976
0.00086286
0.000874436
0.000851579
0.000851663
0.000850748
0.000850903
0.000849888
0.000849795
0.000848101
0.000846157
0.000841544
0.000840249
0.000849652
0.000865539
0.000875095
0.000881335
0.0008963
0.000909789
0.000927688
0.000948774
0.000851602
0.000851643
0.000850696
0.00085095
0.00084993
0.000850445
0.000849099
0.000848655
0.00084531
0.000848757
0.000856139
0.000871507
0.00088645
0.000900649
0.000922555
0.0009441
0.000967881
0.000998383
0.000851621
0.000851618
0.000850698
0.000850954
0.000849899
0.000850506
0.000849184
0.000849124
0.000846318
0.000851116
0.000856613
0.000870144
0.000886083
0.000904816
0.00092954
0.00095724
0.000984383
0.00102204
0.000851653
0.000851559
0.000850749
0.000850894
0.000849953
0.000850427
0.000849246
0.000849239
0.000846767
0.000851745
0.000854907
0.000865899
0.000879717
0.000900389
0.000924591
0.000956512
0.00098559
0.00102799
0.000851697
0.000851475
0.000850838
0.000850751
0.000850139
0.000850132
0.000849507
0.000849104
0.000848505
0.000849631
0.000851616
0.000860035
0.000869545
0.000889372
0.000910875
0.000944766
0.0009741
0.00102192
0.000851726
0.00085143
0.000850884
0.000850683
0.00085019
0.000850046
0.000849499
0.000849163
0.000848901
0.000849171
0.00084895
0.000854689
0.000858612
0.000878393
0.000894774
0.000932145
0.000959951
0.00100634
0.000851717
0.000851451
0.000850837
0.000850749
0.000850014
0.000850342
0.000848966
0.000849639
0.000849425
0.000848939
0.000845638
0.000850919
0.000851964
0.000879187
0.000887669
0.000938864
0.000952212
0.00101013
0.000851609
0.000851629
0.000850651
0.000850898
0.000849953
0.000850279
0.000848888
0.000850003
0.00084976
0.000848851
0.000843643
0.000846953
0.000853066
0.00087641
0.000901649
0.000939464
0.000972117
0.00102356
0.000851691
0.000851514
0.000850831
0.00085065
0.000850291
0.000850019
0.000848614
0.000851784
0.000847822
0.000847785
0.000846751
0.000846434
0.000857916
0.000882835
0.000918659
0.000963741
0.0010061
0.00106159
0.000852183
0.000850767
0.000851412
0.00085035
0.000850268
0.000850037
0.000850004
0.00084987
0.000849277
0.000849105
0.000849139
0.00084654
0.000869283
0.000884645
0.000902983
0.000947878
0.00099552
0.00105854
0.00085185
0.000851279
0.000850955
0.000850557
0.000850231
0.000849955
0.00084967
0.000849258
0.0008489
0.000848565
0.000848748
0.000848693
0.000852614
0.000860706
0.00087191
0.000889831
0.000907544
0.000936923
0.000851768
0.000851372
0.000850952
0.000850599
0.000850257
0.000849951
0.000849656
0.000849284
0.000848915
0.000848551
0.000848751
0.000848823
0.000851511
0.000858213
0.000867642
0.0008831
0.000897565
0.000922249
0.000851736
0.000851405
0.000850963
0.000850604
0.000850303
0.000849949
0.000849678
0.000849238
0.000848787
0.000848283
0.000848832
0.000849961
0.000854958
0.000863283
0.000874296
0.000891195
0.000905214
0.000930701
0.000851681
0.000851502
0.000850969
0.000850586
0.00085044
0.000849749
0.0008498
0.00084878
0.000848239
0.000845268
0.000849305
0.000852056
0.000860444
0.000868893
0.000879051
0.000892888
0.000902265
0.000924548
0.000851667
0.000851569
0.000850878
0.000850679
0.00084974
0.000849189
0.000847614
0.000846326
0.000842529
0.00083726
0.000837665
0.000841805
0.000849347
0.00085113
0.000854524
0.000860227
0.000862266
0.000880079
0.000851817
0.000851426
0.000850184
0.000848271
0.000844404
0.000839616
0.000833014
0.000826043
0.000815788
0.000802798
0.000796329
0.000796427
0.000795207
0.000787059
0.000780765
0.000779896
0.000777585
0.000793567
0.000852087
0.000847667
0.000839942
0.000827002
0.000809226
0.000789551
0.000770495
0.000751758
0.000731991
0.000708897
0.000693927
0.000685334
0.00067492
0.00066182
0.000652087
0.000652194
0.000651764
0.000668745
0.000843166
0.000822311
0.000775789
0.000726276
0.000685722
0.000649521
0.000618914
0.00059192
0.000567034
0.00054153
0.00052401
0.000510724
0.000500374
0.000493068
0.000489171
0.000495731
0.00050134
0.000519765
0.000795101
0.000668043
0.000571693
0.000509784
0.000466497
0.000431292
0.000404703
0.000382218
0.000363213
0.000346896
0.000334181
0.000324465
0.000321756
0.000323995
0.00032881
0.000340846
0.000352017
0.000369854
0.000501601
0.000348392
0.000293048
0.000259396
0.00023749
0.00022133
0.000211979
0.000203865
0.000199131
0.000196188
0.00019332
0.000191104
0.000193743
0.000199853
0.000207686
0.000219102
0.000230252
0.000243585
7.27302e-05
7.0255e-05
6.79279e-05
6.56664e-05
6.34189e-05
6.13514e-05
5.9551e-05
5.82307e-05
5.70304e-05
5.57027e-05
5.38335e-05
5.28544e-05
5.36312e-05
5.80068e-05
6.34053e-05
7.13395e-05
7.96472e-05
8.8756e-05
9.79954e-06
8.25661e-05
0.000117429
0.000157507
0.000194297
0.000219176
4.25294e-05
5.09807e-05
5.7236e-05
6.20807e-05
6.58233e-05
6.89898e-05
7.15284e-05
7.38219e-05
7.56744e-05
7.74495e-05
7.88875e-05
8.03425e-05
8.15099e-05
8.27276e-05
8.36815e-05
8.47162e-05
8.55246e-05
8.64418e-05
8.71707e-05
8.80402e-05
8.87952e-05
8.96897e-05
9.04534e-05
9.12113e-05
9.16809e-05
9.25509e-05
9.31236e-05
9.28373e-05
9.45453e-05
9.42456e-05
9.35671e-05
9.12549e-05
9.22328e-05
9.23461e-05
9.38322e-05
9.86763e-05
9.65176e-05
9.88572e-05
9.63295e-05
9.28569e-05
9.07368e-05
9.12471e-05
9.01818e-05
8.95844e-05
8.95096e-05
8.91025e-05
8.9451e-05
9.06556e-05
8.71251e-05
8.67878e-05
8.6764e-05
8.62049e-05
8.65205e-05
8.76942e-05
8.42143e-05
8.37767e-05
8.38794e-05
8.45739e-05
8.22232e-05
8.37883e-05
8.28048e-05
8.21403e-05
8.2883e-05
8.26822e-05
8.22418e-05
7.92234e-05
7.68611e-05
7.32246e-05
7.15923e-05
7.01929e-05
7.07678e-05
7.25909e-05
7.66225e-05
7.9661e-05
8.25458e-05
8.35125e-05
8.34156e-05
8.04614e-05
7.70162e-05
7.28959e-05
6.86607e-05
6.44197e-05
6.02758e-05
5.90332e-05
5.72383e-05
5.50047e-05
5.28419e-05
5.22036e-05
4.94139e-05
5.08137e-05
5.14153e-05
4.98003e-05
5.00364e-05
5.11972e-05
4.90743e-05
4.96157e-05
4.6304e-05
5.00316e-05
4.88243e-05
4.72977e-05
4.82332e-05
5.06169e-05
4.94319e-05
4.76991e-05
4.85186e-05
4.95114e-05
5.04419e-05
5.27705e-05
5.02402e-05
5.31034e-05
5.15454e-05
5.33459e-05
5.11461e-05
5.20901e-05
4.8129e-05
5.23613e-05
5.40934e-05
5.56934e-05
5.3528e-05
5.42429e-05
5.22005e-05
5.4832e-05
5.33018e-05
5.5088e-05
5.35768e-05
5.1582e-05
5.23784e-05
5.39704e-05
5.58254e-05
5.47299e-05
5.56761e-05
5.27655e-05
5.36949e-05
5.26543e-05
5.33366e-05
5.18752e-05
5.27589e-05
5.19788e-05
5.57237e-05
5.49357e-05
5.62489e-05
5.45488e-05
5.45823e-05
5.60218e-05
5.36369e-05
5.68414e-05
5.58139e-05
5.69126e-05
5.52508e-05
5.74402e-05
5.62865e-05
5.50097e-05
5.56288e-05
5.46997e-05
5.4847e-05
5.63177e-05
5.58007e-05
5.59582e-05
5.7517e-05
5.62036e-05
5.4611e-05
5.52754e-05
5.52094e-05
5.67957e-05
5.4887e-05
5.56923e-05
5.46583e-05
5.53819e-05
5.48514e-05
5.49175e-05
5.69106e-05
5.46277e-05
5.66368e-05
5.43351e-05
2.56409e-05
8.62601e-05
9.82862e-05
9.92632e-05
0.000104972
0.000115646
0.000123474
0.00014133
0.000156697
0.000174746
0.00019383
0.000213978
0.000235201
0.000257102
0.000279577
0.00030215
0.000324871
0.000347376
0.000369768
0.000391793
0.000413577
0.000434948
0.000455927
0.000476356
0.000496101
0.000515013
0.000532808
0.000549352
0.000564288
0.000577874
0.000590579
0.000602946
0.000613716
0.0006245
0.000634055
0.000641916
0.000649614
0.000658644
0.000668568
0.00067981
0.0006855
0.000695882
0.000698316
0.000709658
0.000709461
0.00071011
0.000709384
0.00070818
0.000705218
0.000702391
0.000699557
0.000696448
0.000693533
0.000690395
0.000685446
0.000681988
0.000679263
0.00067564
0.000671616
0.000667795
0.000661532
0.000656274
0.000652153
0.000647902
0.000642011
0.000639246
0.000634502
0.000631882
0.000629923
0.000629428
0.000626742
0.00062229
0.000614843
0.000605117
0.000592781
0.000580051
0.000567624
0.000557628
0.000549942
0.000547619
0.000553045
0.000561063
0.000564361
0.000560656
0.000549542
0.000530547
0.000503964
0.00047215
0.000439043
0.000405575
0.000374976
0.000347317
0.000325664
0.000306934
0.000292094
0.000281008
0.000271515
0.00026729
0.000261143
0.000256423
0.000245136
0.00024362
0.000238734
0.000235103
0.000226857
0.000225844
0.000222655
0.0002177
0.000212309
0.000212185
0.00020613
0.000206614
0.000203914
0.000202167
0.000199143
0.000197315
0.000195012
0.000186261
0.000186614
0.000179968
0.000177447
0.000172444
0.000175646
0.000173301
0.000165434
0.000166278
0.000160719
0.000162269
0.000161964
0.000158564
0.000161607
0.000152629
0.000154048
0.000154546
0.00015149
0.000149537
0.000143911
0.000144807
0.000147762
0.000142236
0.000142933
0.000143443
0.000138033
0.000139176
0.000136252
0.000135106
0.000132534
0.0001331
0.000134522
0.000135506
0.000133873
0.000132416
0.000130551
0.000129107
0.00012485
0.000122719
0.000124052
0.000119854
0.000121791
0.000123062
0.000118335
0.000116008
0.000116646
0.000115629
0.000116194
0.000113942
0.000110698
0.000118853
0.000115189
0.000115637
0.000114472
0.000115366
0.000117408
0.000117711
0.000117148
0.000114802
0.000114879
0.000112554
0.000112878
0.000103883
6.07064e-05
0.000144254
0.000169595
0.000182944
0.000201031
0.000226238
0.00025387
0.000290213
0.000331775
0.00037798
0.000419662
0.000463016
0.0005064
0.000548692
0.000589504
0.000628457
0.000665596
0.000700938
0.000734706
0.000767042
0.000798162
0.000828186
0.000857235
0.000885354
0.000912562
0.000938846
0.000964164
0.000988486
0.0010118
0.0010341
0.00105551
0.00107613
0.00109558
0.00111391
0.00113086
0.00114644
0.00116087
0.00117429
0.00118655
0.00119748
0.00120567
0.00120766
0.00121303
0.00122301
0.00122511
0.00122554
0.00122456
0.00122244
0.00121906
0.00121499
0.00121024
0.00120486
0.00119895
0.00119253
0.00118547
0.00117838
0.00117113
0.00116329
0.00115503
0.00114647
0.00113725
0.00112805
0.00111896
0.00110968
0.00109992
0.00109047
0.00108079
0.00107178
0.00106326
0.0010553
0.00104695
0.00103785
0.00102733
0.00101532
0.00100168
0.000987007
0.000971713
0.000956673
0.000942045
0.000929348
0.00092
0.000913938
0.000914457
0.000921083
0.000931428
0.000933976
0.000923303
0.000901309
0.000866595
0.000821331
0.000769376
0.000715273
0.000663876
0.000617883
0.000577677
0.000545296
0.000518556
0.000497364
0.000480246
0.000466891
0.000453117
0.000441614
0.000432603
0.000423792
0.000418532
0.000412032
0.000404076
0.000400979
0.000395737
0.000391189
0.000386201
0.000378799
0.000377536
0.000373568
0.0003657
0.000365071
0.000358076
0.000356453
0.000353306
0.000346146
0.000344629
0.000339796
0.000333643
0.000333202
0.000323869
0.000322976
0.000319613
0.000315663
0.000312576
0.000308589
0.000302938
0.000295305
0.000295415
0.000294376
0.000290441
0.000286471
0.000281486
0.000277853
0.000276053
0.000276338
0.000276267
0.000274432
0.000265866
0.00026603
0.000259892
0.000257616
0.000252131
0.000253386
0.000251613
0.000249681
0.000245566
0.000245058
0.000242025
0.000240429
0.00023768
0.000234227
0.000234389
0.000227036
0.000225506
0.000224211
0.00022239
0.000213952
0.000212586
0.000206974
0.000204
0.000202288
0.000199278
0.000197775
0.000196899
0.000195213
0.00019474
0.000192834
0.000195453
0.000198552
0.000195191
0.00019455
0.000191475
0.000185433
0.000183172
0.000167159
8.56383e-05
0.000190399
0.000236521
0.000268912
0.000302502
0.000345766
0.000398971
0.00045603
0.000516386
0.000578117
0.000638007
0.000696149
0.000751483
0.00080347
0.000851996
0.000897182
0.000939311
0.000978762
0.00101593
0.00105122
0.00108497
0.00111747
0.00114894
0.00117954
0.00120933
0.00123833
0.00126663
0.00129416
0.00132083
0.00134648
0.0013713
0.00139513
0.00141779
0.0014391
0.0014589
0.00147703
0.00149342
0.00150794
0.00152041
0.00153078
0.00153814
0.00153884
0.0015511
0.00155663
0.00155879
0.00155895
0.00155762
0.00155502
0.00155126
0.00154667
0.00154107
0.0015346
0.00152742
0.00151957
0.00151117
0.00150228
0.00149291
0.00148301
0.00147265
0.00146183
0.00145054
0.00143894
0.00142713
0.00141511
0.00140292
0.0013907
0.00137846
0.00136637
0.00135438
0.00134237
0.00133009
0.00131736
0.00130395
0.00128973
0.00127464
0.00125878
0.0012423
0.00122548
0.00120841
0.00119172
0.00117617
0.00116203
0.00115055
0.00114142
0.00114226
0.00115104
0.00116524
0.00118304
0.00118275
0.00116569
0.00112954
0.00107769
0.00101565
0.000950122
0.000886332
0.0008288
0.000779203
0.000737795
0.000704018
0.000676683
0.000653779
0.000635128
0.00061963
0.000606385
0.000595256
0.000585328
0.000576549
0.000568946
0.000561989
0.000555494
0.000550047
0.000544608
0.000539819
0.000535692
0.000529892
0.000528595
0.000524015
0.000520014
0.000513613
0.000511966
0.000504516
0.000502814
0.000497089
0.000494243
0.000489525
0.000485185
0.000480233
0.000471981
0.000465497
0.000460182
0.000458213
0.000449691
0.000447978
0.000441435
0.000439953
0.000433958
0.000431931
0.000426378
0.000426849
0.000419957
0.000415963
0.000411672
0.00041111
0.000406122
0.000406134
0.000401755
0.00039767
0.000389281
0.000385184
0.000385789
0.000379297
0.000376913
0.000370595
0.000367978
0.000365372
0.000363541
0.000363747
0.000354295
0.000350192
0.000350334
0.000346304
0.000342071
0.000330858
0.000324417
0.000322458
0.000322525
0.000314107
0.000310925
0.000315828
0.00030747
0.000305074
0.000302095
0.00031047
0.000305688
0.0003086
0.000306883
0.000303187
0.000292739
0.000286626
0.000263118
9.7426e-05
0.00022467
0.000294007
0.000350924
0.000410302
0.000476171
0.000547636
0.000622062
0.000697418
0.000771479
0.000841058
0.000905788
0.000965251
0.00101944
0.00106862
0.00111329
0.00115403
0.00119151
0.00122634
0.00125916
0.00129046
0.00132074
0.00135032
0.00137954
0.00140858
0.0014371
0.00146519
0.00149283
0.0015199
0.00154635
0.0015722
0.00159726
0.00162133
0.00164417
0.00166558
0.00168532
0.00170315
0.00171878
0.00173157
0.00174153
0.0017421
0.00175364
0.00176684
0.00177238
0.00177481
0.00177517
0.00177403
0.00177187
0.00176958
0.00176403
0.00175709
0.0017491
0.00174026
0.00173067
0.00172043
0.00170957
0.00169812
0.0016861
0.00167356
0.00166058
0.00164723
0.00163361
0.00161979
0.00160582
0.00159174
0.0015776
0.00156348
0.00154946
0.00153541
0.00152117
0.00150665
0.00149176
0.00147644
0.00146062
0.00144426
0.00142737
0.00140999
0.00139219
0.00137396
0.00135567
0.00133778
0.00132056
0.00130509
0.00129172
0.00128251
0.00128275
0.00129274
0.00131153
0.00133789
0.00136526
0.0013693
0.0013495
0.00130545
0.00124496
0.00117414
0.00110105
0.00103188
0.000970006
0.000917132
0.00087325
0.000837233
0.000808027
0.000784333
0.000764887
0.000748851
0.000735355
0.000724086
0.000714268
0.000705891
0.000698317
0.000691745
0.000685934
0.000680196
0.000675749
0.000670063
0.000666604
0.000663248
0.000658482
0.000653531
0.000652284
0.000647889
0.000639925
0.00063874
0.000632168
0.00063182
0.000627339
0.000622804
0.000617804
0.000612273
0.000604955
0.000598082
0.000596506
0.000591553
0.000581849
0.000577087
0.000570705
0.000574048
0.000570986
0.000566789
0.000561383
0.000557959
0.000551002
0.000545218
0.000546483
0.00054288
0.000534217
0.00053066
0.000519788
0.000520685
0.000522785
0.000519722
0.000520489
0.000504826
0.000506943
0.000498277
0.00049516
0.000491232
0.000486485
0.000477074
0.000481332
0.000468221
0.000469165
0.000465612
0.000454547
0.000448644
0.000456354
0.000442515
0.000431206
0.00043335
0.000429915
0.000426733
0.000431276
0.000422626
0.000431939
0.000422759
0.00042229
0.000421139
0.000409578
0.000401061
0.000374619
9.76978e-05
0.000246494
0.0003467
0.0004327
0.000514149
0.000599218
0.00068795
0.000776621
0.000862713
0.000944122
0.00101867
0.00108589
0.00114578
0.00119875
0.00124545
0.0012867
0.00132333
0.00135621
0.00138614
0.00141387
0.00144001
0.00146512
0.00148957
0.00151371
0.00153768
0.00156186
0.0015866
0.00161198
0.00163799
0.00166445
0.00169086
0.00171694
0.00174241
0.00176699
0.00179041
0.00181251
0.00183285
0.00185223
0.0018631
0.00186827
0.00188583
0.00189733
0.00190566
0.00191086
0.00191353
0.00191402
0.00191264
0.00190958
0.00190499
0.00189882
0.00189135
0.00188275
0.00187319
0.00186278
0.00185164
0.00183975
0.00182719
0.00181402
0.00180035
0.00178624
0.0017718
0.00175707
0.00174214
0.00172703
0.00171179
0.00169647
0.00168117
0.00166604
0.0016507
0.00163511
0.00161926
0.00160313
0.0015867
0.00156995
0.00155284
0.00153535
0.00151747
0.00149921
0.00148044
0.0014615
0.0014426
0.00142397
0.00140658
0.00139105
0.00137808
0.00137399
0.00137828
0.00139123
0.00141264
0.00144219
0.00147492
0.00149886
0.00149912
0.00146812
0.00141229
0.00134073
0.0012626
0.00118451
0.00111418
0.00105292
0.00100121
0.000958552
0.000923778
0.00089559
0.000872816
0.000854201
0.000839159
0.000826623
0.000816253
0.000807522
0.000800057
0.000793479
0.000787666
0.000782752
0.000777084
0.000772982
0.00076839
0.000765172
0.00076034
0.000756154
0.000753245
0.000748739
0.00074565
0.000741478
0.000739368
0.000734746
0.000732655
0.000727911
0.000723547
0.000717988
0.000716243
0.000711771
0.000704377
0.00070345
0.000698447
0.000694169
0.000690608
0.000683518
0.000684726
0.000679475
0.000671282
0.000672173
0.000668325
0.000665115
0.000657118
0.000649575
0.000647631
0.000641625
0.0006384
0.000640799
0.000628033
0.000635052
0.000627037
0.000613675
0.000615307
0.000612433
0.000613635
0.000607483
0.000607699
0.000600149
0.000594039
0.000588665
0.000585176
0.00057621
0.000571749
0.000574668
0.000562518
0.000556868
0.000557303
0.000545297
0.000535743
0.000545534
0.000537364
0.000546387
0.000537095
0.000533732
0.000532543
0.000522626
0.000510981
0.000483794
9.64774e-05
0.000272663
0.000398191
0.000507637
0.000612623
0.000718008
0.000823249
0.000924341
0.0010186
0.00110366
0.00117883
0.0012441
0.00129976
0.00134646
0.00138552
0.00141827
0.00144592
0.00146974
0.00149083
0.00151027
0.00152892
0.00154758
0.00156683
0.00158715
0.00160882
0.00163204
0.00165666
0.00168254
0.0017095
0.00173726
0.00176549
0.00179383
0.00182195
0.00184946
0.00187599
0.00190189
0.00192186
0.00193358
0.00195039
0.00197414
0.00199041
0.00200253
0.00201132
0.00201712
0.00202024
0.00202091
0.00201937
0.00201581
0.00201045
0.00200343
0.00199499
0.00198526
0.00197444
0.00196264
0.00194999
0.00193656
0.00192249
0.00190784
0.00189274
0.00187726
0.00186147
0.00184544
0.0018292
0.00181281
0.00179629
0.00177968
0.001763
0.0017463
0.00172951
0.00171258
0.00169549
0.00167822
0.00166075
0.00164306
0.00162511
0.00160687
0.00158834
0.00156952
0.00155037
0.00153102
0.00151165
0.00149241
0.00147427
0.00145782
0.00144356
0.00143827
0.00144062
0.00144994
0.00146627
0.00149026
0.0015216
0.00155808
0.00159344
0.00159951
0.00157692
0.00152862
0.00146121
0.00138639
0.00130706
0.001231
0.0011625
0.00110339
0.00105378
0.00101302
0.00098003
0.000953318
0.00093201
0.000914903
0.000901211
0.000890274
0.00088124
0.000873982
0.000867859
0.000862495
0.000857144
0.000852334
0.000847632
0.00084338
0.000838827
0.000835681
0.000832785
0.000829291
0.000826303
0.000823063
0.000819706
0.000816029
0.000812753
0.000809564
0.000806154
0.000801821
0.000798815
0.000795749
0.000790326
0.000789656
0.000784813
0.00077778
0.000775062
0.000770883
0.000773352
0.000769672
0.000763295
0.000760887
0.000755525
0.000756838
0.000752478
0.000745942
0.000742765
0.000738656
0.000741028
0.000736402
0.000728176
0.000726216
0.000721955
0.00071443
0.000712347
0.000708456
0.00069789
0.000701596
0.00069567
0.000700606
0.000699781
0.000685578
0.00068688
0.000666581
0.000670617
0.000673282
0.000661546
0.00064884
0.000643343
0.000633803
0.000636356
0.000637415
0.000633804
0.000632624
0.000632318
0.000629313
0.000625668
0.000617385
0.000602419
0.00058145
0.000104525
0.000292712
0.000446279
0.000582364
0.000708058
0.000831384
0.000946623
0.00105215
0.00114684
0.00122928
0.00129921
0.00135727
0.00140471
0.00144319
0.00147398
0.00149866
0.00151871
0.00153565
0.00155077
0.00156528
0.00158013
0.0015961
0.00161371
0.00163334
0.00165511
0.00167904
0.00170499
0.00173278
0.00176214
0.00179276
0.00182429
0.00185634
0.00188851
0.00192022
0.00195267
0.00197693
0.0019941
0.00201656
0.00204765
0.00207069
0.00208877
0.00210275
0.00211311
0.00212011
0.002124
0.00212499
0.00212335
0.00211928
0.00211309
0.00210496
0.00209519
0.00208393
0.00207143
0.00205782
0.00204332
0.00202803
0.00201212
0.00199567
0.00197882
0.00196161
0.00194413
0.00192643
0.00190855
0.00189052
0.00187239
0.00185415
0.00183584
0.00181747
0.00179902
0.00178048
0.00176184
0.00174307
0.00172418
0.00170512
0.00168588
0.00166644
0.00164678
0.0016269
0.0016068
0.00158658
0.00156636
0.00154629
0.00152729
0.00150996
0.00149479
0.00148863
0.00148997
0.00149775
0.00151125
0.00153038
0.00155612
0.00158854
0.0016265
0.00166398
0.001677
0.00166174
0.00162014
0.00155829
0.00148337
0.00140317
0.00132438
0.00125145
0.00118704
0.00113219
0.00108672
0.00104943
0.00101967
0.000996281
0.000978221
0.0009639
0.000952934
0.000944774
0.000938011
0.00093204
0.000926374
0.000921077
0.000915941
0.000910993
0.000906626
0.000903316
0.000900555
0.000897269
0.000893957
0.000890455
0.000886801
0.000882879
0.000880399
0.000878351
0.000875424
0.000872778
0.000868939
0.000865869
0.000859692
0.00085457
0.000849185
0.000845283
0.000842822
0.000839086
0.000837015
0.000837362
0.000832097
0.000829573
0.00082441
0.000820547
0.000815892
0.000813074
0.00081064
0.000809094
0.000808633
0.000806183
0.00080646
0.000804701
0.000800561
0.000794615
0.000787914
0.000778964
0.000778992
0.000776873
0.000774104
0.000779038
0.000776197
0.00077066
0.000765728
0.000746356
0.000750985
0.000754053
0.000738697
0.00073223
0.000740221
0.000721482
0.000726065
0.000724056
0.000713368
0.00071038
0.000718436
0.000719091
0.000708064
0.000700503
0.000681109
0.000666267
0.000108867
0.000314702
0.000492484
0.000651803
0.000796071
0.000926879
0.0010447
0.00115061
0.00124351
0.00132184
0.00138599
0.00143742
0.00147777
0.00150893
0.00153266
0.00155084
0.00156518
0.00157734
0.00158874
0.00160063
0.00161394
0.0016294
0.00164739
0.00166816
0.0016917
0.00171791
0.00174658
0.00177744
0.00181021
0.00184457
0.00188018
0.00191667
0.00195345
0.00199268
0.00202374
0.00204756
0.00207472
0.00210914
0.0021445
0.00217111
0.00219254
0.0022095
0.00222235
0.00223126
0.00223645
0.00223815
0.00223666
0.00223226
0.00222529
0.00221604
0.00220483
0.00219191
0.00217759
0.00216208
0.0021456
0.00212832
0.00211041
0.00209198
0.00207314
0.00205396
0.00203453
0.00201488
0.00199506
0.00197511
0.00195505
0.0019349
0.00191468
0.00189438
0.00187402
0.00185359
0.00183308
0.00181248
0.00179178
0.00177097
0.00175002
0.00172893
0.00170768
0.00168627
0.0016647
0.00164305
0.00162145
0.00160003
0.0015796
0.00156083
0.0015441
0.00153633
0.00153608
0.00154224
0.0015538
0.00157005
0.00159087
0.00161749
0.00164981
0.00168685
0.00172345
0.00174238
0.00173359
0.00169804
0.00164016
0.00156672
0.00148554
0.00140324
0.00132575
0.00125656
0.00119709
0.00114708
0.00110721
0.0010763
0.00105284
0.00103386
0.00102091
0.00101156
0.00100318
0.000995716
0.000988842
0.000982593
0.000976643
0.000971082
0.000967483
0.000964799
0.000962045
0.000958468
0.000954302
0.000950387
0.000945938
0.000943423
0.000943309
0.000942467
0.000940015
0.000936638
0.000932442
0.000927863
0.000922143
0.000916487
0.000910498
0.000905517
0.00090129
0.000896478
0.000892138
0.000888545
0.000885048
0.000881807
0.000878084
0.000874624
0.000870626
0.000868029
0.000865507
0.000862816
0.000861508
0.00085926
0.000857597
0.000859757
0.000856403
0.000849331
0.000842206
0.000838015
0.000834384
0.000832147
0.000829448
0.000827418
0.000825432
0.000822836
0.000819311
0.000808274
0.000813046
0.000817801
0.000816399
0.000812721
0.000809258
0.000800136
0.000803722
0.000799097
0.000787829
0.00078918
0.000779113
0.000785271
0.000774214
0.000769513
0.000757252
0.00074858
0.000104748
0.000330719
0.000538155
0.000715764
0.000868287
0.00100163
0.00111935
0.00122326
0.00131322
0.0013875
0.00144614
0.00149154
0.00152585
0.00155125
0.00156977
0.00158349
0.00159425
0.00160383
0.0016137
0.0016251
0.00163888
0.00165564
0.00167561
0.00169887
0.00172524
0.00175453
0.00178643
0.00182066
0.00185693
0.00189497
0.00193455
0.00197494
0.00202001
0.00205965
0.00209163
0.0021262
0.00216591
0.00220868
0.00224443
0.00227504
0.00230086
0.00232193
0.00233831
0.00235006
0.00235737
0.00236046
0.00235969
0.00235539
0.00234799
0.00233787
0.00232546
0.00231109
0.00229512
0.00227782
0.00225947
0.00224025
0.00222035
0.0021999
0.00217904
0.00215782
0.00213635
0.00211466
0.00209281
0.00207083
0.00204874
0.00202655
0.0020043
0.00198198
0.00195959
0.00193714
0.00191463
0.00189203
0.00186936
0.0018466
0.00182373
0.00180075
0.00177765
0.00175443
0.00173108
0.00170767
0.00168431
0.00166113
0.00163879
0.00161803
0.00159927
0.00158881
0.00158599
0.00158974
0.00159895
0.0016127
0.00163038
0.00165209
0.00167848
0.00170977
0.00174498
0.00178016
0.00180296
0.00179861
0.00176701
0.00171158
0.00163868
0.00155543
0.0014706
0.00138996
0.00131699
0.00125363
0.00120252
0.00116222
0.00113068
0.00110459
0.00108907
0.0010764
0.00106427
0.0010542
0.00104522
0.00103737
0.00103038
0.00102445
0.00102222
0.00102004
0.00101705
0.00101292
0.00100855
0.00100565
0.00100084
0.00100606
0.00101095
0.00100989
0.00100556
0.00100082
0.000995553
0.000989667
0.000983046
0.000976067
0.00096895
0.000962291
0.000956273
0.000950567
0.000945129
0.000940154
0.000935733
0.000931362
0.000927131
0.000923253
0.000918877
0.000915051
0.000911236
0.00090739
0.000904463
0.000901332
0.00089841
0.000896593
0.000893233
0.000889658
0.000885505
0.000882736
0.000879481
0.000876673
0.000873909
0.000870991
0.000870084
0.000868436
0.000865117
0.000860916
0.000860638
0.000860067
0.000858113
0.00085748
0.000854145
0.000854486
0.000850871
0.000843231
0.000838314
0.000834754
0.000828655
0.000831184
0.000819657
0.000820885
0.000817854
0.000804524
0.000105231
0.000348895
0.000577548
0.000766378
0.000922471
0.00105544
0.00117052
0.00127069
0.00135742
0.00142862
0.00148367
0.00152471
0.00155468
0.00157613
0.00159135
0.00160253
0.00161162
0.00162049
0.00163056
0.00164303
0.00165862
0.00167776
0.00170048
0.00172672
0.00175615
0.00178849
0.0018234
0.0018606
0.00189984
0.00194097
0.00198345
0.00202977
0.00207933
0.00211842
0.00216002
0.00220399
0.00225408
0.00229916
0.00234007
0.00237652
0.00240818
0.00243469
0.00245585
0.00247159
0.00248204
0.00248743
0.00248816
0.00248465
0.00247744
0.002467
0.00245384
0.00243839
0.00242108
0.00240225
0.00238221
0.00236121
0.00233946
0.00231711
0.0022943
0.00227114
0.00224771
0.00222405
0.00220023
0.00217627
0.00215221
0.00212806
0.00210384
0.00207956
0.00205521
0.00203081
0.00200633
0.00198179
0.00195718
0.00193249
0.00190771
0.00188283
0.00185786
0.00183278
0.00180759
0.00178233
0.0017571
0.00173203
0.00170758
0.00168457
0.00166349
0.00164964
0.00164356
0.00164419
0.00165046
0.00166136
0.00167613
0.00169438
0.00171605
0.0017416
0.00177137
0.00180454
0.00183795
0.001863
0.00186148
0.00183235
0.00177855
0.00170552
0.00162242
0.00153602
0.00145225
0.0013765
0.00131093
0.0012562
0.00121184
0.00117717
0.00115178
0.00113357
0.00111829
0.00110598
0.00109412
0.00108414
0.00107674
0.00106922
0.00106562
0.00106286
0.00106111
0.00105818
0.00105561
0.00105465
0.00105268
0.00105435
0.00105833
0.00106089
0.00105956
0.00105626
0.00105153
0.00104543
0.00103831
0.00103046
0.00102253
0.00101504
0.00100824
0.00100193
0.000995887
0.000990041
0.000984442
0.00097895
0.000973524
0.000968455
0.000963237
0.000958195
0.000953341
0.000948513
0.000944317
0.000940389
0.000936663
0.000933364
0.000929561
0.000925769
0.000921863
0.000918253
0.000914634
0.000911587
0.000908276
0.000905121
0.000902576
0.000900072
0.000897323
0.000894698
0.00089326
0.000891591
0.000889859
0.000886534
0.000884359
0.000882163
0.000878922
0.00087774
0.000875622
0.000868331
0.00086385
0.000861047
0.000855586
0.000851851
0.000850459
0.000842239
0.000109097
0.000370678
0.000611482
0.000803238
0.000958773
0.00108876
0.00119964
0.00129525
0.00137812
0.00144711
0.00150115
0.00154064
0.0015684
0.00158777
0.00160138
0.0016116
0.00162048
0.00162988
0.0016412
0.00165552
0.00167341