/*--------------------------------*- C++ -*----------------------------------*\
  =========                 |
  \\      /  F ield         | OpenFOAM: The Open Source CFD Toolbox
   \\    /   O peration     | Website:  https://openfoam.org
    \\  /    A nd           | Version:  9
     \\/     M anipulation  |
\*---------------------------------------------------------------------------*/
FoamFile
{
    format      ascii;
    class       surfaceScalarField;
    location    "20";
    object      phi;
}
// * * * * * * * * * * * * * * * * * * * * * * * * * * * * * * * * * * * * * //

dimensions      [0 3 -1 0 0 0 0];

internalField   nonuniform List<scalar> 
24170
(
3.12951e-06
5.88459e-08
3.04598e-06
8.33282e-08
2.9718e-06
7.41014e-08
2.90236e-06
6.96157e-08
2.83528e-06
6.7213e-08
2.77393e-06
6.12046e-08
2.72129e-06
5.2797e-08
2.67623e-06
4.48706e-08
2.63738e-06
3.89187e-08
2.60329e-06
3.38888e-08
2.57345e-06
2.98966e-08
2.54625e-06
2.70472e-08
2.51985e-06
2.64108e-08
2.49053e-06
2.9215e-08
2.45214e-06
3.84168e-08
2.39417e-06
5.78977e-08
2.28091e-06
1.13036e-07
2.04508e-07
2.07606e-06
3.45207e-06
2.39871e-08
3.45651e-06
7.86587e-08
3.45026e-06
8.014e-08
3.43834e-06
8.17053e-08
3.42179e-06
8.39517e-08
3.40215e-06
8.07969e-08
3.38087e-06
7.41394e-08
3.35796e-06
6.75906e-08
3.33381e-06
6.29832e-08
3.30808e-06
5.94151e-08
3.28102e-06
5.68775e-08
3.25237e-06
5.55454e-08
3.22254e-06
5.61337e-08
3.19107e-06
6.05507e-08
3.15865e-06
7.07251e-08
3.12149e-06
9.48683e-08
3.09287e-06
1.41242e-07
2.27799e-07
3.06919e-06
3.66808e-06
1.83931e-08
3.67876e-06
6.79441e-08
3.68438e-06
7.45948e-08
3.68734e-06
7.88493e-08
3.68735e-06
8.39672e-08
3.68445e-06
8.36182e-08
3.67938e-06
7.9297e-08
3.67212e-06
7.4792e-08
3.66301e-06
7.21612e-08
3.65158e-06
7.08024e-08
3.63769e-06
7.08244e-08
3.62096e-06
7.22556e-08
3.60123e-06
7.58989e-08
3.57808e-06
8.36927e-08
3.55145e-06
9.74048e-08
3.52219e-06
1.241e-07
3.49936e-06
1.63925e-07
2.30221e-07
3.49683e-06
3.92605e-06
1.77223e-08
3.93511e-06
5.88285e-08
3.94089e-06
6.87704e-08
3.94516e-06
7.46605e-08
3.94833e-06
8.08594e-08
3.94967e-06
8.22535e-08
3.94925e-06
7.97317e-08
3.94711e-06
7.68558e-08
3.94357e-06
7.56726e-08
3.93829e-06
7.60032e-08
3.93112e-06
7.79514e-08
3.92163e-06
8.16554e-08
3.90951e-06
8.79113e-08
3.8946e-06
9.84723e-08
3.87685e-06
1.15008e-07
3.85918e-06
1.4156e-07
3.84251e-06
1.80235e-07
2.35404e-07
3.83695e-06
4.20804e-06
1.67994e-08
4.21503e-06
5.18459e-08
4.2198e-06
6.41029e-08
4.22359e-06
7.09385e-08
4.22719e-06
7.72686e-08
4.22964e-06
7.97661e-08
4.23055e-06
7.88962e-08
4.22992e-06
7.75035e-08
4.22807e-06
7.75924e-08
4.2249e-06
7.92088e-08
4.22031e-06
8.2607e-08
4.21402e-06
8.79682e-08
4.20587e-06
9.60913e-08
4.19592e-06
1.08443e-07
4.18451e-06
1.26449e-07
4.17357e-06
1.52456e-07
4.16468e-06
1.88998e-07
2.34592e-07
4.16548e-06
4.51034e-06
1.55445e-08
4.51601e-06
4.61976e-08
4.52017e-06
5.99527e-08
4.52361e-06
6.75328e-08
4.52707e-06
7.38009e-08
4.52978e-06
7.70446e-08
4.5311e-06
7.75664e-08
4.531e-06
7.75954e-08
4.52977e-06
7.88146e-08
4.52743e-06
8.15456e-08
4.52396e-06
8.6042e-08
4.51926e-06
9.26085e-08
4.51329e-06
1.01975e-07
4.50631e-06
1.15319e-07
4.49887e-06
1.3377e-07
4.49248e-06
1.58698e-07
4.48984e-06
1.91388e-07
2.28411e-07
4.49565e-06
4.83397e-06
1.42941e-08
4.8388e-06
4.14059e-08
4.8427e-06
5.61488e-08
4.84606e-06
6.42435e-08
4.84929e-06
7.05774e-08
4.85195e-06
7.44118e-08
4.85343e-06
7.61437e-08
4.85362e-06
7.74728e-08
4.85275e-06
7.97577e-08
4.85089e-06
8.34766e-08
4.84812e-06
8.88703e-08
4.84445e-06
9.63148e-08
4.83999e-06
1.06458e-07
4.83513e-06
1.20204e-07
4.83056e-06
1.38356e-07
4.8277e-06
1.61498e-07
4.82912e-06
1.89787e-07
2.20213e-07
4.83766e-06
5.18074e-06
1.31366e-08
5.1849e-06
3.72842e-08
5.18868e-06
5.24172e-08
5.19207e-06
6.08815e-08
5.19512e-06
6.75261e-08
5.19763e-06
7.19061e-08
5.1992e-06
7.45998e-08
5.19966e-06
7.70036e-08
5.19915e-06
8.02902e-08
5.19775e-06
8.48492e-08
5.1956e-06
9.09944e-08
5.19284e-06
9.90087e-08
5.18968e-06
1.09567e-07
5.18661e-06
1.23222e-07
5.18441e-06
1.40492e-07
5.18437e-06
1.61422e-07
5.18859e-06
1.856e-07
2.10135e-07
5.19854e-06
5.55238e-06
1.20957e-08
5.55602e-06
3.37062e-08
5.55968e-06
4.88675e-08
5.5631e-06
5.75463e-08
5.56605e-06
6.46237e-08
5.56841e-06
6.9598e-08
5.57005e-06
7.30244e-08
5.57083e-06
7.63095e-08
5.57075e-06
8.04408e-08
5.5699e-06
8.57685e-08
5.56846e-06
9.24567e-08
5.56665e-06
1.00841e-07
5.56477e-06
1.11446e-07
5.56338e-06
1.24622e-07
5.56328e-06
1.40596e-07
5.5656e-06
1.59061e-07
5.57178e-06
1.79302e-07
1.9946e-07
5.5829e-06
5.95075e-06
1.11234e-08
5.95395e-06
3.0553e-08
5.95754e-06
4.53255e-08
5.96092e-06
5.42295e-08
5.96377e-06
6.18201e-08
5.96604e-06
6.73703e-08
5.96781e-06
7.12763e-08
5.96895e-06
7.51742e-08
5.96939e-06
7.99594e-08
5.9692e-06
8.5851e-08
5.9686e-06
9.29579e-08
5.96785e-06
1.01504e-07
5.96731e-06
1.11887e-07
5.96758e-06
1.24291e-07
5.96939e-06
1.38683e-07
5.97367e-06
1.54663e-07
5.98158e-06
1.71523e-07
1.87568e-07
5.99342e-06
6.37779e-06
1.01529e-08
6.3805e-06
2.79212e-08
6.38403e-06
4.1923e-08
6.38733e-06
5.10269e-08
6.39018e-06
5.90409e-08
6.39255e-06
6.50534e-08
6.39453e-06
6.93569e-08
6.39605e-06
7.36829e-08
6.39705e-06
7.89345e-08
6.39762e-06
8.5229e-08
6.39797e-06
9.25311e-08
6.39837e-06
1.00968e-07
6.39925e-06
1.10922e-07
6.40117e-06
1.22255e-07
6.4048e-06
1.34963e-07
6.41086e-06
1.48471e-07
6.42006e-06
1.62123e-07
1.75101e-07
6.4328e-06
5.74176e-06
9.24386e-09
5.7436e-06
2.61155e-08
5.74628e-06
3.93221e-08
5.74901e-06
4.83664e-08
5.7517e-06
5.64287e-08
5.75413e-06
6.2665e-08
5.75616e-06
6.73613e-08
5.75775e-06
7.20821e-08
5.75895e-06
7.7696e-08
5.7599e-06
8.4173e-08
5.76085e-06
9.14042e-08
5.76214e-06
9.9805e-08
5.76398e-06
1.08963e-07
5.76696e-06
1.19375e-07
5.77144e-06
1.30412e-07
5.77792e-06
1.4201e-07
5.78685e-06
1.53422e-07
1.63862e-07
5.79817e-06
6.99932e-06
8.07995e-09
7.00119e-06
2.43204e-08
7.00425e-06
3.63324e-08
7.0074e-06
4.53076e-08
7.01037e-06
5.34804e-08
7.01316e-06
5.99014e-08
7.01569e-06
6.4794e-08
7.01797e-06
6.97343e-08
7.02004e-06
7.54928e-08
7.02199e-06
8.19758e-08
7.02423e-06
8.93695e-08
7.02679e-06
9.71598e-08
7.03025e-06
1.05755e-07
7.03487e-06
1.14743e-07
7.0413e-06
1.2421e-07
7.04987e-06
1.33586e-07
7.06097e-06
1.42559e-07
1.5048e-07
7.07458e-06
8.53204e-06
6.91122e-09
8.53417e-06
2.22127e-08
8.5375e-06
3.31204e-08
8.54117e-06
4.16794e-08
8.54475e-06
4.99713e-08
8.54814e-06
5.65039e-08
8.5514e-06
6.15648e-08
8.55457e-06
6.64784e-08
8.55775e-06
7.21945e-08
8.56123e-06
7.86296e-08
8.56506e-06
8.56348e-08
8.5696e-06
9.29206e-08
8.57503e-06
1.00465e-07
8.58196e-06
1.08045e-07
8.59069e-06
1.15596e-07
8.60176e-06
1.22792e-07
8.61533e-06
1.29232e-07
1.34506e-07
8.63167e-06
1.04001e-05
6.06571e-09
1.04028e-05
1.95659e-08
1.04064e-05
2.96114e-08
1.04107e-05
3.75016e-08
1.04152e-05
4.54633e-08
1.04197e-05
5.21753e-08
1.0424e-05
5.72222e-08
1.04285e-05
6.21405e-08
1.04333e-05
6.74528e-08
1.04387e-05
7.35824e-08
1.04447e-05
7.9862e-08
1.04517e-05
8.64142e-08
1.04596e-05
9.25275e-08
1.04693e-05
9.85928e-08
1.04808e-05
1.04061e-07
1.04947e-05
1.09015e-07
1.05111e-05
1.12968e-07
1.15806e-07
1.05298e-05
1.26776e-05
5.25617e-09
1.26809e-05
1.63447e-08
1.2685e-05
2.5697e-08
1.26899e-05
3.27239e-08
1.26956e-05
3.99287e-08
1.27014e-05
4.63562e-08
1.27075e-05
5.14846e-08
1.27137e-05
5.59615e-08
1.27208e-05
6.0811e-08
1.27286e-05
6.59569e-08
1.27377e-05
7.14174e-08
1.27474e-05
7.65581e-08
1.27587e-05
8.14676e-08
1.27713e-05
8.57152e-08
1.2786e-05
8.94093e-08
1.28025e-05
9.22391e-08
1.28213e-05
9.41793e-08
9.50142e-08
1.28419e-05
1.5454e-05
4.44524e-09
1.54578e-05
1.27823e-08
1.54629e-05
2.07391e-08
1.54688e-05
2.68773e-08
1.5476e-05
3.28599e-08
1.5484e-05
3.85727e-08
1.54922e-05
4.33917e-08
1.55011e-05
4.74266e-08
1.55107e-05
5.141e-08
1.55215e-05
5.54889e-08
1.55334e-05
5.964e-08
1.55466e-05
6.34677e-08
1.5561e-05
6.68585e-08
1.5577e-05
6.96001e-08
1.55945e-05
7.16646e-08
1.56137e-05
7.28681e-08
1.56345e-05
7.31289e-08
7.26056e-08
1.56567e-05
1.88387e-05
3.51898e-09
1.88429e-05
8.7598e-09
1.88492e-05
1.44852e-08
1.88569e-05
1.93056e-08
1.88661e-05
2.3685e-08
1.88768e-05
2.79831e-08
1.88883e-05
3.20177e-08
1.89005e-05
3.55185e-08
1.89132e-05
3.8771e-08
1.89271e-05
4.1835e-08
1.8942e-05
4.47117e-08
1.89583e-05
4.72175e-08
1.89757e-05
4.9225e-08
1.89946e-05
5.06247e-08
1.90147e-05
5.13298e-08
1.90361e-05
5.1272e-08
1.90588e-05
5.03913e-08
4.90459e-08
1.90822e-05
2.29656e-05
1.37364e-09
2.29704e-05
3.95493e-09
2.29784e-05
6.51656e-09
2.29882e-05
9.51037e-09
2.29997e-05
1.21148e-08
2.30134e-05
1.45398e-08
2.30283e-05
1.71522e-08
2.30442e-05
1.99161e-08
2.30605e-05
2.25006e-08
2.30779e-05
2.47032e-08
2.3096e-05
2.64806e-08
2.31154e-05
2.77941e-08
2.31357e-05
2.86141e-08
2.3157e-05
2.90024e-08
2.31793e-05
2.88068e-08
2.3202e-05
2.81637e-08
2.32254e-05
2.69192e-08
2.56341e-08
2.32483e-05
1.68122e-05
-1.78134e-10
1.68162e-05
-1.53172e-11
1.68225e-05
2.5438e-11
1.68303e-05
1.52079e-09
1.68396e-05
2.84815e-09
1.68502e-05
4.0272e-09
1.68617e-05
5.62496e-09
1.68741e-05
7.96579e-09
1.68864e-05
1.00532e-08
1.68995e-05
1.20092e-08
1.69126e-05
1.32863e-08
1.6926e-05
1.42656e-08
1.69398e-05
1.4811e-08
1.69534e-05
1.49698e-08
1.69677e-05
1.47846e-08
1.69813e-05
1.40813e-08
1.69956e-05
1.30368e-08
1.20516e-08
1.70089e-05
1.46359e-05
-1.51063e-09
1.46399e-05
-4.23297e-09
1.46463e-05
-6.41574e-09
1.46541e-05
-6.34258e-09
1.46629e-05
-6.05046e-09
1.46726e-05
-5.80355e-09
1.4683e-05
-4.61738e-09
1.46937e-05
-2.72601e-09
1.47047e-05
-7.20948e-10
1.47158e-05
9.01673e-10
1.47269e-05
2.12567e-09
1.4738e-05
3.00461e-09
1.47489e-05
3.53523e-09
1.47601e-05
3.79606e-09
1.47708e-05
3.67635e-09
1.47818e-05
3.22935e-09
1.47922e-05
2.34846e-09
1.73875e-09
1.48029e-05
1.27414e-05
-2.76462e-09
1.27455e-05
-8.27591e-09
1.27518e-05
-1.28633e-08
1.27593e-05
-1.39056e-08
1.27677e-05
-1.4505e-08
1.27767e-05
-1.48315e-08
1.2786e-05
-1.39622e-08
1.27956e-05
-1.21944e-08
1.28052e-05
-1.0305e-08
1.28148e-05
-8.77839e-09
1.28243e-05
-7.51868e-09
1.28337e-05
-6.58999e-09
1.28428e-05
-5.89219e-09
1.28519e-05
-5.47342e-09
1.28608e-05
-5.40628e-09
1.28695e-05
-5.5873e-09
1.2878e-05
-6.19376e-09
-6.47548e-09
1.28863e-05
1.10921e-05
-3.90364e-09
1.10961e-05
-1.22938e-08
1.11025e-05
-1.90974e-08
1.11098e-05
-2.11323e-08
1.11177e-05
-2.25152e-08
1.11261e-05
-2.32962e-08
1.11347e-05
-2.24789e-08
1.11432e-05
-2.06943e-08
1.11517e-05
-1.88432e-08
1.11601e-05
-1.72007e-08
1.11683e-05
-1.58464e-08
1.11762e-05
-1.47009e-08
1.1184e-05
-1.3772e-08
1.11912e-05
-1.31558e-08
1.11986e-05
-1.27304e-08
1.12054e-05
-1.26966e-08
1.12123e-05
-1.29259e-08
-1.30111e-08
1.12187e-05
9.65603e-06
-4.68716e-09
9.66044e-06
-1.66088e-08
9.66681e-06
-2.53721e-08
9.67367e-06
-2.79638e-08
9.68109e-06
-2.99004e-08
9.68886e-06
-3.10159e-08
9.69669e-06
-3.03013e-08
9.70442e-06
-2.84145e-08
9.71201e-06
-2.63704e-08
9.71937e-06
-2.45442e-08
9.72644e-06
-2.29364e-08
9.73315e-06
-2.15436e-08
9.73958e-06
-2.03675e-08
9.74578e-06
-1.94643e-08
9.75169e-06
-1.88503e-08
9.75741e-06
-1.84566e-08
9.76285e-06
-1.84219e-08
-1.82801e-08
9.76812e-06
8.40529e-06
-4.60735e-09
8.41063e-06
-2.18197e-08
8.41694e-06
-3.15731e-08
8.4232e-06
-3.41551e-08
8.43005e-06
-3.67276e-08
8.43733e-06
-3.83204e-08
8.44462e-06
-3.7546e-08
8.45171e-06
-3.54575e-08
8.45851e-06
-3.31298e-08
8.46496e-06
-3.09302e-08
8.47102e-06
-2.89803e-08
8.47675e-06
-2.7247e-08
8.48213e-06
-2.58467e-08
8.48728e-06
-2.46805e-08
8.49211e-06
-2.37503e-08
8.49663e-06
-2.30169e-08
8.50073e-06
-2.25936e-08
-2.22335e-08
8.50471e-06
7.31468e-06
-1.97278e-09
7.32169e-06
-2.87423e-08
7.32817e-06
-3.79903e-08
7.33426e-06
-4.01751e-08
7.34114e-06
-4.3583e-08
7.3483e-06
-4.54122e-08
7.35519e-06
-4.44007e-08
7.36167e-06
-4.18993e-08
7.36769e-06
-3.90936e-08
7.3732e-06
-3.6384e-08
7.37823e-06
-3.3951e-08
7.38287e-06
-3.18832e-08
7.38713e-06
-3.00572e-08
7.39102e-06
-2.85619e-08
7.39452e-06
-2.72482e-08
7.39752e-06
-2.60027e-08
7.39988e-06
-2.49997e-08
-2.40741e-08
7.40167e-06
6.36339e-06
4.72797e-09
6.37262e-06
-3.79254e-08
6.38026e-06
-4.55393e-08
6.38747e-06
-4.75612e-08
6.39514e-06
-5.10512e-08
6.40218e-06
-5.24286e-08
6.40833e-06
-5.05157e-08
6.41371e-06
-4.72357e-08
6.41838e-06
-4.37314e-08
6.42235e-06
-4.02888e-08
6.42564e-06
-3.72625e-08
6.42841e-06
-3.45413e-08
6.43054e-06
-3.21471e-08
6.43204e-06
-3.00122e-08
6.43285e-06
-2.8008e-08
6.4329e-06
-2.60224e-08
6.43207e-06
-2.41403e-08
-2.22435e-08
6.43014e-06
5.54156e-06
8.64449e-09
5.55151e-06
-4.78036e-08
5.55963e-06
-5.37154e-08
5.56773e-06
-5.56988e-08
5.575e-06
-5.81674e-08
5.58024e-06
-5.7563e-08
5.58369e-06
-5.39062e-08
5.58575e-06
-4.92614e-08
5.5867e-06
-4.46366e-08
5.58662e-06
-4.02243e-08
5.58559e-06
-3.62046e-08
5.58362e-06
-3.24772e-08
5.58058e-06
-2.89906e-08
5.57633e-06
-2.56827e-08
5.57092e-06
-2.25194e-08
5.56451e-06
-1.95296e-08
5.55712e-06
-1.68038e-08
-1.45032e-08
5.54937e-06
4.85853e-06
-2.22599e-08
4.86535e-06
-5.45602e-08
4.86599e-06
-5.43899e-08
4.86422e-06
-5.39688e-08
4.85993e-06
-5.36942e-08
4.85284e-06
-5.03411e-08
4.84363e-06
-4.46275e-08
4.83305e-06
-3.86318e-08
4.82155e-06
-3.31064e-08
4.80941e-06
-2.80854e-08
4.79648e-06
-2.32422e-08
4.78244e-06
-1.83028e-08
4.76725e-06
-1.36735e-08
4.7511e-06
-9.43038e-09
4.73452e-06
-5.83688e-09
4.71811e-06
-3.05986e-09
4.70205e-06
-7.35705e-10
2.60984e-10
4.68724e-06
4.18042e-06
4.12586e-06
4.07146e-06
4.01751e-06
3.96383e-06
3.9135e-06
3.86888e-06
3.83025e-06
3.79714e-06
3.76906e-06
3.74584e-06
3.72756e-06
3.7139e-06
3.70449e-06
3.69867e-06
3.69562e-06
3.69487e-06
3.69514e-06
8.40968e-08
-7.4631e-08
1.11375e-07
-1.6278e-08
8.54654e-08
3.36319e-08
9.07496e-09
8.40187e-08
-1.24024e-07
1.40222e-07
-2.98704e-07
1.8083e-07
-5.03657e-07
2.11285e-07
-7.36884e-07
2.35848e-07
-9.81142e-07
2.49137e-07
-1.23375e-06
2.53341e-07
-1.4799e-06
2.50368e-07
-1.72173e-06
2.41791e-07
-1.94731e-06
2.29386e-07
-2.16185e-06
2.1431e-07
-2.35629e-06
1.9794e-07
-2.53736e-06
1.8088e-07
-2.6981e-06
1.64007e-07
-2.84567e-06
1.47424e-07
-2.97449e-06
1.31616e-07
-3.09115e-06
1.16378e-07
-3.19082e-06
1.01959e-07
-3.27941e-06
8.80175e-08
-3.3525e-06
7.4748e-08
-3.41503e-06
6.17689e-08
-3.46333e-06
4.9319e-08
-3.50109e-06
3.71457e-08
-3.5258e-06
2.55635e-08
-3.54045e-06
1.44586e-08
-3.54439e-06
4.492e-09
-3.53964e-06
-4.45289e-09
-3.52675e-06
-1.26934e-08
-3.50541e-06
-2.05533e-08
-3.47779e-06
-2.78768e-08
-3.44188e-06
-3.47383e-08
-3.40137e-06
-4.14604e-08
-3.35203e-06
-4.77543e-08
-3.29969e-06
-5.38692e-08
-3.23823e-06
-5.93107e-08
-3.17566e-06
-6.44186e-08
-3.10397e-06
-6.8912e-08
-3.0331e-06
-7.30078e-08
-2.95299e-06
-7.6823e-08
-2.87512e-06
-8.04579e-08
-2.78825e-06
-8.3308e-08
-2.70521e-06
-8.64935e-08
-2.61333e-06
-8.81794e-08
-2.52692e-06
-9.02187e-08
-2.43139e-06
-9.12861e-08
-2.34264e-06
-9.27722e-08
-2.24413e-06
-9.3069e-08
-2.15333e-06
-9.40083e-08
-2.05224e-06
-9.38626e-08
-1.95941e-06
-9.4507e-08
-1.85699e-06
-9.42394e-08
-1.76447e-06
-9.49468e-08
-1.66151e-06
-9.42064e-08
-1.56855e-06
-9.46728e-08
-1.46518e-06
-9.41527e-08
-1.37327e-06
-9.48383e-08
-1.27012e-06
-9.37771e-08
-1.17851e-06
-9.42699e-08
-1.07577e-06
-9.36262e-08
-9.86786e-07
-9.44625e-08
-8.86273e-07
-9.21163e-08
-8.02777e-07
-9.13276e-08
-7.04115e-07
-8.97278e-08
-6.2055e-07
-9.26643e-08
-5.17277e-07
-9.25266e-08
-4.3111e-07
-9.64418e-08
-3.19647e-07
-1.00094e-07
-2.19831e-07
-1.0987e-07
-9.63494e-08
-1.13519e-07
1.00213e-08
-1.14511e-07
1.29619e-07
-1.10932e-07
2.32744e-07
-1.08549e-07
3.44933e-07
-1.03492e-07
4.42362e-07
-9.97972e-08
5.44297e-07
-9.43922e-08
6.31662e-07
-9.06005e-08
7.2261e-07
-8.52491e-08
8.0084e-07
-8.13057e-08
8.81458e-07
-7.65986e-08
9.51246e-07
-7.39793e-08
1.02475e-06
-7.05698e-08
1.09035e-06
-6.8786e-08
1.15982e-06
-6.71534e-08
1.22378e-06
-6.72124e-08
1.28878e-06
-6.66549e-08
1.34845e-06
-6.67239e-08
1.40586e-06
-6.69531e-08
1.46588e-06
-6.673e-08
1.52896e-06
-6.61251e-08
1.59323e-06
-6.51925e-08
1.65701e-06
-6.37879e-08
1.72008e-06
-6.27127e-08
1.78213e-06
-6.15655e-08
1.84259e-06
-5.9928e-08
1.90154e-06
-5.83532e-08
1.95946e-06
-5.72698e-08
2.01596e-06
-5.57147e-08
2.07076e-06
-5.39061e-08
2.12397e-06
-5.18738e-08
2.1759e-06
-5.0447e-08
2.22692e-06
-4.90977e-08
2.27597e-06
-4.7416e-08
2.32359e-06
-4.597e-08
2.36948e-06
-4.48508e-08
2.41381e-06
-4.33601e-08
2.45601e-06
-4.1778e-08
2.49693e-06
-4.04513e-08
2.53636e-06
-3.93566e-08
2.57433e-06
-3.77663e-08
2.61059e-06
-3.63741e-08
2.64566e-06
-3.50112e-08
2.67949e-06
-3.40519e-08
2.71227e-06
-3.28e-08
2.74381e-06
-3.18508e-08
2.77467e-06
-3.11428e-08
2.80433e-06
-3.02929e-08
2.83257e-06
-2.87295e-08
2.85984e-06
-2.7673e-08
2.88697e-06
-2.70846e-08
2.91326e-06
-2.622e-08
2.93889e-06
-2.537e-08
2.9635e-06
-2.46278e-08
2.9875e-06
-2.39605e-08
3.01093e-06
-2.36574e-08
3.03381e-06
-2.29836e-08
3.05568e-06
-2.21894e-08
3.07675e-06
-2.1246e-08
3.09667e-06
-2.02814e-08
3.11613e-06
-1.96717e-08
3.1351e-06
-1.93489e-08
3.15337e-06
-1.85076e-08
3.17086e-06
-1.78936e-08
3.18759e-06
-1.7009e-08
3.20324e-06
-1.61096e-08
3.21879e-06
-1.60168e-08
3.23362e-06
-1.56814e-08
3.24777e-06
-1.51313e-08
3.26118e-06
-1.45215e-08
3.27406e-06
-1.38494e-08
3.28641e-06
-1.32242e-08
3.29841e-06
-1.27114e-08
3.31041e-06
-1.26824e-08
3.32201e-06
-1.21553e-08
3.33303e-06
-1.15783e-08
3.34383e-06
-1.1284e-08
3.35428e-06
-1.09368e-08
3.3639e-06
-1.00687e-08
3.37329e-06
-9.85599e-09
3.3827e-06
-9.86043e-09
3.39135e-06
-9.14441e-09
3.39928e-06
-8.38985e-09
3.40688e-06
-8.09337e-09
3.41428e-06
-7.86067e-09
3.42104e-06
-7.24631e-09
3.4274e-06
-6.79528e-09
3.43323e-06
-6.26795e-09
3.43856e-06
-5.7247e-09
3.44369e-06
-5.52647e-09
3.44808e-06
-4.73359e-09
3.45157e-06
-3.84145e-09
3.45468e-06
-3.39173e-09
3.45713e-06
-2.73389e-09
3.45846e-06
-1.54472e-09
3.45856e-06
-3.09268e-10
3.45697e-06
1.4485e-09
3.4532e-06
3.64687e-09
3.44707e-06
6.08896e-09
3.43819e-06
8.8567e-09
3.4253e-06
1.29574e-08
3.40723e-06
1.81447e-08
3.38251e-06
2.49098e-08
3.34806e-06
3.46459e-08
3.30064e-06
4.77597e-08
3.23308e-06
6.78898e-08
3.13569e-06
9.7865e-08
2.98043e-06
1.55705e-07
2.23013e-07
2.75785e-06
-7.82232e-08
1.14281e-08
-2.02954e-07
1.16018e-07
-3.91659e-07
2.27382e-07
-6.2353e-07
3.20271e-07
-8.75359e-07
3.95571e-07
-1.13707e-06
4.4523e-07
-1.39207e-06
4.69056e-07
-1.63026e-06
4.75558e-07
-1.84596e-06
4.67225e-07
-2.03964e-06
4.47836e-07
-2.20839e-06
4.21311e-07
-2.35685e-06
3.90673e-07
-2.4837e-06
3.58299e-07
-2.59495e-06
3.25842e-07
-2.68949e-06
2.94446e-07
-2.77301e-06
2.64695e-07
-2.84401e-06
2.36894e-07
-2.90725e-06
2.11003e-07
-2.96088e-06
1.86928e-07
-3.00868e-06
1.64399e-07
-3.0486e-06
1.4323e-07
-3.08366e-06
1.23137e-07
-3.11194e-06
1.03981e-07
-3.13584e-06
8.55257e-08
-3.15366e-06
6.77232e-08
-3.16705e-06
5.04114e-08
-3.17469e-06
3.35916e-08
-3.17736e-06
1.71398e-08
-3.17361e-06
9.86864e-10
-3.16291e-06
-1.49869e-08
-3.14492e-06
-3.0602e-08
-3.11933e-06
-4.58049e-08
-3.08686e-06
-6.04383e-08
-3.04664e-06
-7.44913e-08
-3.00053e-06
-8.78916e-08
-2.94714e-06
-1.00548e-07
-2.88901e-06
-1.12419e-07
-2.82412e-06
-1.23424e-07
-2.75541e-06
-1.33555e-07
-2.6806e-06
-1.42717e-07
-2.60301e-06
-1.51008e-07
-2.52024e-06
-1.58474e-07
-2.43594e-06
-1.65267e-07
-2.34698e-06
-1.7121e-07
-2.25795e-06
-1.76358e-07
-2.16477e-06
-1.80554e-07
-2.07187e-06
-1.84132e-07
-1.97521e-06
-1.86921e-07
-1.87964e-06
-1.89307e-07
-1.78062e-06
-1.90978e-07
-1.68259e-06
-1.92333e-07
-1.58118e-06
-1.93127e-07
-1.48151e-06
-1.93924e-07
-1.37926e-06
-1.94369e-07
-1.27895e-06
-1.94873e-07
-1.17555e-06
-1.94959e-07
-1.0742e-06
-1.95326e-07
-9.70414e-07
-1.95431e-07
-8.68774e-07
-1.958e-07
-7.64072e-07
-1.95726e-07
-6.61797e-07
-1.95946e-07
-5.56982e-07
-1.96142e-07
-4.54308e-07
-1.97451e-07
-3.46397e-07
-1.98649e-07
-2.38008e-07
-2.00453e-07
-1.25276e-07
-2.01644e-07
-1.53297e-08
-2.03213e-07
9.67808e-08
-2.03838e-07
2.04584e-07
-2.04727e-07
3.10787e-07
-2.05508e-07
4.07674e-07
-2.07232e-07
5.02436e-07
-2.0731e-07
5.93607e-07
-2.06041e-07
6.8648e-07
-2.02754e-07
7.76938e-07
-1.98858e-07
8.68885e-07
-1.93685e-07
9.57964e-07
-1.8823e-07
1.04684e-06
-1.81838e-07
1.13196e-06
-1.75506e-07
1.21646e-06
-1.68639e-07
1.29718e-06
-1.62178e-07
1.3768e-06
-1.55739e-07
1.45252e-06
-1.5029e-07
1.52749e-06
-1.45127e-07
1.59947e-06
-1.41206e-07
1.6708e-06
-1.3817e-07
1.73955e-06
-1.36427e-07
1.80667e-06
-1.35089e-07
1.86993e-06
-1.34111e-07
1.9306e-06
-1.33333e-07
1.99223e-06
-1.32186e-07
2.05505e-06
-1.30707e-07
2.11837e-06
-1.28768e-07
2.18133e-06
-1.26607e-07
2.24339e-06
-1.24226e-07
2.30416e-06
-1.21877e-07
2.36413e-06
-1.19243e-07
2.4229e-06
-1.1659e-07
2.48036e-06
-1.14005e-07
2.53669e-06
-1.11394e-07
2.59227e-06
-1.08536e-07
2.647e-06
-1.05506e-07
2.7007e-06
-1.02671e-07
2.75298e-06
-9.98764e-08
2.80404e-06
-9.69577e-08
2.85354e-06
-9.42776e-08
2.90144e-06
-9.17893e-08
2.94786e-06
-8.91784e-08
2.99309e-06
-8.65522e-08
3.03687e-06
-8.40119e-08
3.07942e-06
-8.17352e-08
3.12096e-06
-7.92822e-08
3.16139e-06
-7.67878e-08
3.20075e-06
-7.44681e-08
3.23908e-06
-7.24555e-08
3.27657e-06
-7.04371e-08
3.31302e-06
-6.84692e-08
3.34803e-06
-6.65541e-08
3.38193e-06
-6.46921e-08
3.41529e-06
-6.25723e-08
3.448e-06
-6.06217e-08
3.47991e-06
-5.89855e-08
3.51113e-06
-5.72662e-08
3.5414e-06
-5.54982e-08
3.57071e-06
-5.38895e-08
3.59898e-06
-5.22866e-08
3.62607e-06
-5.08776e-08
3.65226e-06
-4.93655e-08
3.67768e-06
-4.78177e-08
3.7026e-06
-4.64086e-08
3.72722e-06
-4.51544e-08
3.75123e-06
-4.39557e-08
3.77434e-06
-4.275e-08
3.7969e-06
-4.13657e-08
3.8187e-06
-4.00132e-08
3.83988e-06
-3.85222e-08
3.86046e-06
-3.70669e-08
3.87988e-06
-3.60159e-08
3.89843e-06
-3.4989e-08
3.91633e-06
-3.39923e-08
3.93375e-06
-3.28895e-08
3.95079e-06
-3.17524e-08
3.96751e-06
-3.06423e-08
3.98367e-06
-2.94965e-08
3.99895e-06
-2.84841e-08
4.01368e-06
-2.73729e-08
4.02803e-06
-2.63584e-08
4.04187e-06
-2.55326e-08
4.05516e-06
-2.4604e-08
4.0682e-06
-2.34961e-08
4.08072e-06
-2.27518e-08
4.09248e-06
-2.20066e-08
4.10374e-06
-2.07993e-08
4.11465e-06
-1.9712e-08
4.1251e-06
-1.89494e-08
4.13495e-06
-1.813e-08
4.14428e-06
-1.69693e-08
4.153e-06
-1.59002e-08
4.1612e-06
-1.48283e-08
4.169e-06
-1.38692e-08
4.17611e-06
-1.29606e-08
4.18275e-06
-1.1677e-08
4.18888e-06
-1.0247e-08
4.19432e-06
-9.0656e-09
4.19914e-06
-7.77317e-09
4.2033e-06
-5.88189e-09
4.20681e-06
-3.96349e-09
4.20979e-06
-1.62417e-09
4.21204e-06
1.34004e-09
4.21311e-06
5.02603e-09
4.21257e-06
9.43851e-09
4.21039e-06
1.5263e-08
4.20598e-06
2.27124e-08
4.19859e-06
3.25643e-08
4.18735e-06
4.62013e-08
4.17088e-06
6.46618e-08
4.14689e-06
9.23503e-08
4.11307e-06
1.32284e-07
4.06174e-06
2.07657e-07
3.14326e-07
3.97105e-06
-2.13016e-07
2.29517e-07
-4.57923e-07
3.65095e-07
-7.0832e-07
4.80803e-07
-9.5115e-07
5.65749e-07
-1.17323e-06
6.20043e-07
-1.37022e-06
6.44068e-07
-1.54225e-06
6.43131e-07
-1.69048e-06
6.24976e-07
-1.81671e-06
5.95324e-07
-1.92711e-06
5.58924e-07
-2.02343e-06
5.19328e-07
-2.1114e-06
4.79022e-07
-2.19117e-06
4.39622e-07
-2.2671e-06
4.02021e-07
-2.33782e-06
3.66614e-07
-2.40631e-06
3.33444e-07
-2.47039e-06
3.02352e-07
-2.53215e-06
2.73062e-07
-2.5892e-06
2.45245e-07
-2.64311e-06
2.18571e-07
-2.69156e-06
1.9275e-07
-2.73576e-06
1.67518e-07
-2.77368e-06
1.4268e-07
-2.80617e-06
1.18081e-07
-2.83157e-06
9.36347e-08
-2.85043e-06
6.92801e-08
-2.86157e-06
4.5015e-08
-2.86526e-06
2.08391e-08
-2.86098e-06
-3.1807e-09
-2.84897e-06
-2.69468e-08
-2.82932e-06
-5.02831e-08
-2.80193e-06
-7.30354e-08
-2.76745e-06
-9.50439e-08
-2.72555e-06
-1.16161e-07
-2.67737e-06
-1.36247e-07
-2.62237e-06
-1.55199e-07
-2.56208e-06
-1.72915e-07
-2.49566e-06
-1.89331e-07
-2.42492e-06
-2.04427e-07
-2.34885e-06
-2.18154e-07
-2.26941e-06
-2.30533e-07
-2.18558e-06
-2.41624e-07
-2.09948e-06
-2.51507e-07
-2.00993e-06
-2.60172e-07
-1.91901e-06
-2.67618e-07
-1.82529e-06
-2.73911e-07
-1.73077e-06
-2.79185e-07
-1.63395e-06
-2.83497e-07
-1.53678e-06
-2.86997e-07
-1.43773e-06
-2.89743e-07
-1.33851e-06
-2.91888e-07
-1.23757e-06
-2.93462e-07
-1.13678e-06
-2.9471e-07
-1.03483e-06
-2.95662e-07
-9.33127e-07
-2.96442e-07
-8.30145e-07
-2.97031e-07
-7.27385e-07
-2.97636e-07
-6.23693e-07
-2.98108e-07
-5.20272e-07
-2.9862e-07
-4.15451e-07
-2.99386e-07
-3.0993e-07
-3.00753e-07
-2.02905e-07
-3.02277e-07
-9.61944e-08
-3.0371e-07
1.0381e-08
-3.04714e-07
1.15588e-07
-3.0544e-07
2.20025e-07
-3.05724e-07
3.22721e-07
-3.05756e-07
4.24477e-07
-3.05268e-07
5.2435e-07
-3.04461e-07
6.22395e-07
-3.03296e-07
7.17199e-07
-3.01912e-07
8.09895e-07
-2.99716e-07
9.00619e-07
-2.96606e-07
9.90558e-07
-2.92358e-07
1.07932e-06
-2.87285e-07
1.16759e-06
-2.81344e-07
1.25465e-06
-2.74791e-07
1.34086e-06
-2.67569e-07
1.42558e-06
-2.59965e-07
1.5092e-06
-2.51955e-07
1.59093e-06
-2.43827e-07
1.67093e-06
-2.35711e-07
1.74866e-06
-2.2814e-07
1.8247e-06
-2.21116e-07
1.89863e-06
-2.15109e-07
1.97075e-06
-2.10125e-07
2.04069e-06
-2.06301e-07
2.1082e-06
-2.0325e-07
2.17214e-06
-2.00675e-07
2.23358e-06
-1.98314e-07
2.29476e-06
-1.95871e-07
2.35638e-06
-1.9316e-07
2.41777e-06
-1.902e-07
2.47862e-06
-1.86983e-07
2.53853e-06
-1.83627e-07
2.59741e-06
-1.80085e-07
2.65528e-06
-1.76526e-07
2.71224e-06
-1.72854e-07
2.7681e-06
-1.69207e-07
2.82301e-06
-1.65548e-07
2.87717e-06
-1.61757e-07
2.93057e-06
-1.57792e-07
2.9831e-06
-1.53784e-07
3.03441e-06
-1.49839e-07
3.08469e-06
-1.45873e-07
3.13351e-06
-1.42129e-07
3.18092e-06
-1.38368e-07
3.22693e-06
-1.34737e-07
3.27195e-06
-1.3117e-07
3.31579e-06
-1.27708e-07
3.35856e-06
-1.24333e-07
3.40028e-06
-1.21014e-07
3.44117e-06
-1.17635e-07
3.48103e-06
-1.14432e-07
3.51995e-06
-1.1139e-07
3.55784e-06
-1.08476e-07
3.59473e-06
-1.05532e-07
3.63053e-06
-1.02733e-07
3.6654e-06
-9.99811e-08
3.69962e-06
-9.71837e-08
3.73334e-06
-9.44549e-08
3.7663e-06
-9.18948e-08
3.79857e-06
-8.93048e-08
3.82991e-06
-8.67217e-08
3.86041e-06
-8.42773e-08
3.88997e-06
-8.18975e-08
3.91864e-06
-7.959e-08
3.94649e-06
-7.73732e-08
3.9736e-06
-7.5042e-08
3.99995e-06
-7.29602e-08
4.02567e-06
-7.10301e-08
4.05073e-06
-6.92465e-08
4.07509e-06
-6.7287e-08
4.09873e-06
-6.5252e-08
4.12171e-06
-6.31953e-08
4.14411e-06
-6.11799e-08
4.16604e-06
-5.92983e-08
4.18704e-06
-5.74949e-08
4.20719e-06
-5.57895e-08
4.22669e-06
-5.42772e-08
4.24577e-06
-5.27608e-08
4.26451e-06
-5.11721e-08
4.28292e-06
-4.96318e-08
4.30093e-06
-4.79789e-08
4.3181e-06
-4.60933e-08
4.33448e-06
-4.41341e-08
4.35038e-06
-4.26196e-08
4.36588e-06
-4.13461e-08
4.38088e-06
-3.99238e-08
4.3954e-06
-3.83046e-08
4.40933e-06
-3.69852e-08
4.42278e-06
-3.57482e-08
4.43579e-06
-3.41161e-08
4.44829e-06
-3.25136e-08
4.4604e-06
-3.13785e-08
4.47201e-06
-3.00432e-08
4.48307e-06
-2.83279e-08
4.49356e-06
-2.66703e-08
4.50338e-06
-2.49304e-08
4.51277e-06
-2.3517e-08
4.52161e-06
-2.20436e-08
4.52987e-06
-2.01678e-08
4.53753e-06
-1.8114e-08
4.54435e-06
-1.60784e-08
4.5503e-06
-1.38884e-08
4.55556e-06
-1.12886e-08
4.56014e-06
-8.67736e-09
4.56376e-06
-5.34297e-09
4.56636e-06
-1.32898e-09
4.56784e-06
3.50297e-09
4.56768e-06
9.56939e-09
4.56563e-06
1.73265e-08
4.56143e-06
2.6936e-08
4.55437e-06
3.96788e-08
4.54358e-06
5.70736e-08
4.5278e-06
8.05408e-08
4.50557e-06
1.14693e-07
4.47533e-06
1.62649e-07
4.43987e-06
2.43224e-07
3.58194e-07
4.39607e-06
-2.56585e-07
4.90031e-07
-5.09308e-07
6.20857e-07
-7.38961e-07
7.12891e-07
-9.39875e-07
7.68771e-07
-1.10942e-06
7.91613e-07
-1.25161e-06
7.87742e-07
-1.37167e-06
7.65028e-07
-1.47627e-06
7.30577e-07
-1.56902e-06
6.89677e-07
-1.65555e-06
6.46078e-07
-1.73688e-06
6.02109e-07
-1.81674e-06
5.59219e-07
-1.89397e-06
5.18156e-07
-1.97097e-06
4.79203e-07
-2.04548e-06
4.42315e-07
-2.11915e-06
4.07279e-07
-2.18942e-06
3.73759e-07
-2.25756e-06
3.41395e-07
-2.32106e-06
3.09813e-07
-2.38094e-06
2.78682e-07
-2.43496e-06
2.47706e-07
-2.48391e-06
2.16674e-07
-2.5259e-06
1.85418e-07
-2.56152e-06
1.5385e-07
-2.58933e-06
1.21947e-07
-2.60971e-06
8.97408e-08
-2.62174e-06
5.73193e-08
-2.62568e-06
2.47984e-08
-2.62119e-06
-7.61721e-09
-2.60843e-06
-3.96838e-08
-2.58761e-06
-7.11691e-08
-2.55876e-06
-1.01832e-07
-2.52251e-06
-1.31433e-07
-2.47871e-06
-1.59777e-07
-2.42845e-06
-1.8668e-07
-2.37136e-06
-2.11973e-07
-2.30882e-06
-2.35559e-07
-2.24034e-06
-2.57355e-07
-2.16747e-06
-2.77338e-07
-2.08956e-06
-2.95493e-07
-2.00826e-06
-3.11832e-07
-1.92292e-06
-3.26347e-07
-1.83532e-06
-3.39148e-07
-1.74467e-06
-3.50308e-07
-1.65257e-06
-3.5992e-07
-1.55811e-06
-3.68086e-07
-1.46278e-06
-3.74929e-07
-1.36558e-06
-3.80565e-07
-1.26795e-06
-3.85167e-07
-1.16885e-06
-3.88832e-07
-1.06949e-06
-3.91707e-07
-9.68926e-07
-3.93932e-07
-8.68322e-07
-3.95675e-07
-7.66777e-07
-3.97048e-07
-6.65233e-07
-3.98179e-07
-5.6287e-07
-3.99066e-07
-4.6055e-07
-3.99889e-07
-3.57232e-07
-4.00916e-07
-2.53282e-07
-4.02211e-07
-1.48505e-07
-4.03471e-07
-4.4133e-08
-4.04564e-07
5.97491e-08
-4.05428e-07
1.62585e-07
-4.05985e-07
2.64631e-07
-4.06102e-07
3.65498e-07
-4.0577e-07
4.65296e-07
-4.04962e-07
5.63679e-07
-4.03705e-07
6.60826e-07
-4.01977e-07
7.56456e-07
-3.99796e-07
8.50551e-07
-3.97132e-07
9.42769e-07
-3.93982e-07
1.03337e-06
-3.90181e-07
1.12251e-06
-3.85649e-07
1.21056e-06
-3.80307e-07
1.29761e-06
-3.7421e-07
1.38384e-06
-3.67383e-07
1.46914e-06
-3.59922e-07
1.55354e-06
-3.51848e-07
1.63689e-06
-3.43245e-07
1.71918e-06
-3.34207e-07
1.80022e-06
-3.24893e-07
1.87987e-06
-3.15438e-07
1.95785e-06
-3.06188e-07
2.03401e-06
-2.97299e-07
2.10806e-06
-2.89082e-07
2.17989e-06
-2.8183e-07
2.24942e-06
-2.75655e-07
2.31622e-06
-2.70417e-07
2.37955e-06
-2.65866e-07
2.44039e-06
-2.61682e-07
2.50053e-06
-2.5768e-07
2.56052e-06
-2.53656e-07
2.62007e-06
-2.49501e-07
2.67881e-06
-2.45226e-07
2.73665e-06
-2.40821e-07
2.7935e-06
-2.36287e-07
2.84939e-06
-2.31729e-07
2.90432e-06
-2.27111e-07
2.95829e-06
-2.22466e-07
3.01138e-06
-2.17842e-07
3.06372e-06
-2.13103e-07
3.11537e-06
-2.0823e-07
3.16616e-06
-2.03229e-07
3.21595e-06
-1.98279e-07
3.26461e-06
-1.93362e-07
3.31201e-06
-1.88625e-07
3.35815e-06
-1.83867e-07
3.40313e-06
-1.79285e-07
3.44702e-06
-1.74785e-07
3.48987e-06
-1.70407e-07
3.53168e-06
-1.66056e-07
3.57253e-06
-1.61849e-07
3.61252e-06
-1.57639e-07
3.65161e-06
-1.53585e-07
3.68976e-06
-1.49608e-07
3.72699e-06
-1.45841e-07
3.7633e-06
-1.42095e-07
3.79867e-06
-1.38491e-07
3.83319e-06
-1.34904e-07
3.86709e-06
-1.31395e-07
3.90046e-06
-1.27876e-07
3.93314e-06
-1.24467e-07
3.96511e-06
-1.2109e-07
3.99634e-06
-1.17834e-07