/*--------------------------------*- C++ -*----------------------------------*\
  =========                 |
  \\      /  F ield         | OpenFOAM: The Open Source CFD Toolbox
   \\    /   O peration     | Website:  https://openfoam.org
    \\  /    A nd           | Version:  9
     \\/     M anipulation  |
\*---------------------------------------------------------------------------*/
FoamFile
{
    format      ascii;
    class       volVectorField;
    location    "20";
    object      U;
}
// * * * * * * * * * * * * * * * * * * * * * * * * * * * * * * * * * * * * * //

dimensions      [0 1 -1 0 0 0 0];

internalField   nonuniform List<vector> 
12225
(
(9.85924 -0.886642 0)
(9.66589 -0.741453 0)
(9.45495 -0.443423 0)
(9.21747 -0.238682 0)
(8.98916 -0.117415 0)
(8.79024 -0.0498761 0)
(8.61719 -0.0144966 0)
(8.46486 0.00314099 0)
(8.33119 0.0106743 0)
(8.21475 0.0119173 0)
(8.11411 0.0132224 0)
(8.02603 0.0177589 0)
(7.94484 0.0238332 0)
(7.86098 0.0324594 0)
(7.75911 0.0450876 0)
(7.62635 0.0631176 0)
(7.36692 0.107355 0)
(7.07492 0.102641 0)
(10.0531 0.227492 0)
(10.1198 0.329643 0)
(10.1195 0.264098 0)
(10.0829 0.191004 0)
(10.0349 0.142341 0)
(9.9863 0.110588 0)
(9.93049 0.0880882 0)
(9.86507 0.071683 0)
(9.79348 0.0606454 0)
(9.7186 0.0531018 0)
(9.6411 0.0471852 0)
(9.56021 0.042263 0)
(9.47453 0.0401387 0)
(9.38642 0.0425805 0)
(9.2906 0.0540491 0)
(9.2004 0.0794242 0)
(9.07439 0.155369 0)
(9.03046 0.259587 0)
(10.0041 0.0582985 0)
(10.0301 0.0551837 0)
(10.0551 0.03758 0)
(10.0643 0.0372918 0)
(10.0661 0.0464287 0)
(10.0658 0.0527079 0)
(10.0579 0.0543789 0)
(10.0403 0.0543879 0)
(10.0157 0.0551031 0)
(9.9865 0.0565502 0)
(9.95188 0.0591858 0)
(9.91092 0.063146 0)
(9.86158 0.0691043 0)
(9.80398 0.0794787 0)
(9.73627 0.0959291 0)
(9.66157 0.131933 0)
(9.5784 0.18432 0)
(9.51456 0.319255 0)
(9.99883 0.0112062 0)
(10.0111 0.0285708 0)
(10.0326 0.0382694 0)
(10.0444 0.048923 0)
(10.0531 0.0589626 0)
(10.0619 0.0636657 0)
(10.0651 0.0641485 0)
(10.0611 0.0639133 0)
(10.052 0.0651778 0)
(10.0398 0.0678996 0)
(10.0241 0.0721988 0)
(10.0036 0.0781881 0)
(9.97653 0.0869145 0)
(9.94265 0.100641 0)
(9.90129 0.122311 0)
(9.85434 0.158688 0)
(9.80693 0.218041 0)
(9.76078 0.302137 0)
(9.99979 0.00739895 0)
(10.0087 0.032444 0)
(10.0245 0.0442792 0)
(10.0337 0.0526604 0)
(10.0421 0.0598238 0)
(10.052 0.0635125 0)
(10.0577 0.0644628 0)
(10.0572 0.0652272 0)
(10.0528 0.0675399 0)
(10.046 0.0714289 0)
(10.0369 0.0771445 0)
(10.0245 0.0850191 0)
(10.0076 0.0961476 0)
(9.98629 0.112676 0)
(9.96079 0.137046 0)
(9.93247 0.173836 0)
(9.90714 0.227209 0)
(9.88758 0.295519 0)
(10.0003 0.00953813 0)
(10.0078 0.0324848 0)
(10.0201 0.0434798 0)
(10.0274 0.0506553 0)
(10.0347 0.0567934 0)
(10.0441 0.0608024 0)
(10.05 0.0630383 0)
(10.0507 0.0651917 0)
(10.0479 0.0686612 0)
(10.0432 0.0736379 0)
(10.0368 0.0805386 0)
(10.0281 0.0898764 0)
(10.0164 0.10274 0)
(10.002 0.120974 0)
(9.98574 0.146655 0)
(9.96909 0.182617 0)
(9.95785 0.231622 0)
(9.95514 0.291839 0)
(10.0003 0.00953257 0)
(10.0067 0.0291847 0)
(10.0169 0.0402631 0)
(10.0231 0.0474268 0)
(10.0294 0.0536102 0)
(10.038 0.0582536 0)
(10.0437 0.0616527 0)
(10.0448 0.0650501 0)
(10.043 0.0695117 0)
(10.0394 0.0754784 0)
(10.0346 0.0833858 0)
(10.0281 0.0938365 0)
(10.0198 0.107846 0)
(10.0099 0.126969 0)
(9.9999 0.152868 0)
(9.99126 0.187258 0)
(9.98899 0.231623 0)
(9.99506 0.283319 0)
(10.0003 0.0087254 0)
(10.0055 0.0258978 0)
(10.0143 0.0371735 0)
(10.0199 0.0445672 0)
(10.0253 0.0511428 0)
(10.0331 0.0563343 0)
(10.0385 0.0605593 0)
(10.04 0.0648738 0)
(10.0389 0.0702134 0)
(10.0364 0.0770341 0)
(10.0328 0.0857606 0)
(10.0281 0.0969598 0)
(10.0224 0.111652 0)
(10.0161 0.131053 0)
(10.0108 0.156385 0)
(10.0079 0.188538 0)
(10.0116 0.227954 0)
(10.0221 0.271811 0)
(10.0003 0.00796889 0)
(10.0045 0.0232951 0)
(10.0122 0.0344809 0)
(10.0173 0.0420786 0)
(10.022 0.0490779 0)
(10.029 0.0547704 0)
(10.0341 0.059573 0)
(10.036 0.0645661 0)
(10.0357 0.0706483 0)
(10.0342 0.0781641 0)
(10.0319 0.0874889 0)
(10.0289 0.0991666 0)
(10.0255 0.11418 0)
(10.0223 0.133356 0)
(10.0208 0.157516 0)
(10.0223 0.186963 0)
(10.0298 0.221524 0)
(10.0428 0.25875 0)
(10.0005 0.00733571 0)
(10.0037 0.0210715 0)
(10.0104 0.032109 0)
(10.0151 0.0395783 0)
(10.0193 0.0467805 0)
(10.0255 0.0530099 0)
(10.0304 0.0583347 0)
(10.0328 0.0639064 0)
(10.0333 0.0705425 0)
(10.0329 0.0786048 0)
(10.0318 0.0883803 0)
(10.0306 0.100399 0)
(10.0293 0.115389 0)
(10.0289 0.133928 0)
(10.0305 0.156462 0)
(10.0352 0.182988 0)
(10.0456 0.212979 0)
(10.06 0.244547 0)
(10.0007 0.00673299 0)
(10.0031 0.0192302 0)
(10.0089 0.0298705 0)
(10.0131 0.0370798 0)
(10.017 0.0443007 0)
(10.0227 0.0509533 0)
(10.0275 0.0567383 0)
(10.0303 0.0627624 0)
(10.0317 0.069825 0)
(10.0323 0.0782748 0)
(10.0326 0.0883492 0)
(10.033 0.100393 0)
(10.0338 0.115008 0)
(10.0358 0.132459 0)
(10.04 0.153078 0)
(10.0474 0.176545 0)
(10.0596 0.202321 0)
(10.0749 0.228921 0)
(10.0008 0.00612841 0)
(10.0028 0.0178063 0)
(10.0074 0.0279608 0)
(10.011 0.0356759 0)
(10.0151 0.0430188 0)
(10.0208 0.049381 0)
(10.0257 0.0549258 0)
(10.0291 0.0609999 0)
(10.0313 0.0684795 0)
(10.0327 0.0774618 0)
(10.0339 0.0878888 0)
(10.0355 0.100044 0)
(10.038 0.11406 0)
(10.0419 0.130364 0)
(10.0483 0.148841 0)
(10.0578 0.169407 0)
(10.0715 0.191385 0)
(10.0877 0.21394 0)
(10.001 0.00546117 0)
(10.0024 0.0164874 0)
(10.0069 0.0259783 0)
(10.0104 0.033904 0)
(10.014 0.0413643 0)
(10.0188 0.0476403 0)
(10.0235 0.0531344 0)
(10.0274 0.0592602 0)
(10.0306 0.0668001 0)
(10.0332 0.0757612 0)
(10.0357 0.0861369 0)
(10.0388 0.0979897 0)
(10.0427 0.111309 0)
(10.0482 0.126335 0)
(10.0559 0.142871 0)
(10.0666 0.16078 0)
(10.081 0.179516 0)
(10.0975 0.198319 0)
(10.0009 0.00470012 0)
(10.0019 0.0152121 0)
(10.0062 0.0234642 0)
(10.0101 0.0310309 0)
(10.0132 0.0388169 0)
(10.0173 0.0453201 0)
(10.0217 0.0508334 0)
(10.0261 0.0567689 0)
(10.0304 0.0640622 0)
(10.0343 0.0726878 0)
(10.0382 0.0828403 0)
(10.0427 0.094058 0)
(10.0481 0.106631 0)
(10.0549 0.120106 0)
(10.0639 0.134653 0)
(10.0754 0.149708 0)
(10.0902 0.16501 0)
(10.107 0.179855 0)
(10.0004 0.00406883 0)
(10.0013 0.0136373 0)
(10.0053 0.0212245 0)
(10.0098 0.0280534 0)
(10.013 0.0357505 0)
(10.0164 0.0427429 0)
(10.0205 0.048533 0)
(10.0255 0.0542868 0)
(10.0308 0.0608868 0)
(10.0361 0.0688249 0)
(10.0415 0.0778937 0)
(10.0473 0.0881364 0)
(10.054 0.0991409 0)
(10.062 0.110975 0)
(10.0719 0.12313 0)
(10.084 0.13548 0)
(10.0988 0.147382 0)
(10.1156 0.158472 0)
(10.0002 0.00356599 0)
(10.0012 0.0117425 0)
(10.0046 0.0189407 0)
(10.0094 0.0248504 0)
(10.0134 0.0317038 0)
(10.0164 0.0387647 0)
(10.02 0.0449793 0)
(10.0252 0.0507813 0)
(10.0317 0.0568703 0)
(10.0383 0.063821 0)
(10.0452 0.0715822 0)
(10.0524 0.08012 0)
(10.0603 0.0890945 0)
(10.0692 0.0985188 0)
(10.0797 0.108021 0)
(10.0917 0.117309 0)
(10.1057 0.125853 0)
(10.1221 0.133207 0)
(10 0.00306627 0)
(10.0012 0.00955655 0)
(10.0039 0.0158289 0)
(10.0089 0.0207899 0)
(10.014 0.0262879 0)
(10.0175 0.0324459 0)
(10.0207 0.0385749 0)
(10.026 0.044332 0)
(10.0331 0.0502011 0)
(10.0408 0.0562252 0)
(10.0488 0.0627364 0)
(10.0569 0.0693444 0)
(10.0655 0.0761859 0)
(10.075 0.082825 0)
(10.0856 0.0893337 0)
(10.0971 0.0952612 0)
(10.1098 0.10046 0)
(10.1253 0.104702 0)
(9.99999 0.00251601 0)
(10.0012 0.00716351 0)
(10.0035 0.0122881 0)
(10.0082 0.0167247 0)
(10.0142 0.0209676 0)
(10.0188 0.0255952 0)
(10.0224 0.0305035 0)
(10.0279 0.0353836 0)
(10.0352 0.0402467 0)
(10.0435 0.0451128 0)
(10.052 0.0499779 0)
(10.0605 0.0547893 0)
(10.0693 0.0594396 0)
(10.0786 0.0637926 0)
(10.0887 0.067683 0)
(10.0994 0.0709757 0)
(10.1107 0.0734354 0)
(10.1249 0.0753372 0)
(10.0003 0.00154243 0)
(10.0015 0.00428578 0)
(10.0041 0.00744131 0)
(10.0085 0.0106613 0)
(10.0146 0.0135765 0)
(10.0197 0.0164295 0)
(10.024 0.019632 0)
(10.0296 0.0229667 0)
(10.0372 0.0265052 0)
(10.0456 0.0299593 0)
(10.0542 0.0333963 0)
(10.0628 0.0365413 0)
(10.0714 0.0394388 0)
(10.0802 0.041952 0)
(10.0894 0.0439676 0)
(10.0989 0.0452976 0)
(10.1085 0.0458323 0)
(10.1207 0.0458998 0)
(10.0003 0.000371245 0)
(10.0015 0.00131891 0)
(10.0045 0.00221459 0)
(10.0093 0.00387984 0)
(10.0153 0.00554125 0)
(10.0208 0.00714984 0)
(10.0257 0.00899035 0)
(10.0321 0.011424 0)
(10.0402 0.0139544 0)
(10.0488 0.0166342 0)
(10.0573 0.0189913 0)
(10.0654 0.0211126 0)
(10.0735 0.0227632 0)
(10.0813 0.0239789 0)
(10.0893 0.0246005 0)
(10.0973 0.0246177 0)
(10.1052 0.0239379 0)
(10.1156 0.0231709 0)
(10.0003 -0.000538318 0)
(10.0016 -0.00136939 0)
(10.0054 -0.00212314 0)
(10.0109 -0.00153125 0)
(10.017 -0.000841053 0)
(10.0225 -0.000286514 0)
(10.0281 0.00063637 0)
(10.0351 0.00231146 0)
(10.0435 0.00416732 0)
(10.052 0.00610004 0)
(10.0601 0.00765325 0)
(10.0677 0.0089828 0)
(10.0751 0.00981386 0)
(10.0823 0.0102883 0)
(10.0894 0.0102469 0)
(10.0966 0.00975215 0)
(10.1035 0.00871662 0)
(10.1129 0.00796903 0)
(10.0004 -0.00135322 0)
(10.0018 -0.00405131 0)
(10.0063 -0.00639533 0)
(10.0126 -0.00696129 0)
(10.0185 -0.00743211 0)
(10.0244 -0.00802746 0)
(10.0308 -0.00773728 0)
(10.0386 -0.00665716 0)
(10.0472 -0.00513019 0)
(10.0555 -0.00379276 0)
(10.0633 -0.0026143 0)
(10.0705 -0.00180286 0)
(10.0775 -0.00122727 0)
(10.0843 -0.00103521 0)
(10.091 -0.00118255 0)
(10.0977 -0.00177116 0)
(10.1042 -0.00278252 0)
(10.1126 -0.00349411 0)
(10.0004 -0.00214757 0)
(10.0019 -0.00670602 0)
(10.0074 -0.0106394 0)
(10.0143 -0.0120881 0)
(10.0202 -0.0134786 0)
(10.0266 -0.0147329 0)
(10.0341 -0.0148587 0)
(10.0427 -0.0139749 0)
(10.0514 -0.012827 0)
(10.0596 -0.0117896 0)
(10.067 -0.0109887 0)
(10.074 -0.0104516 0)
(10.0806 -0.0101253 0)
(10.087 -0.0100903 0)
(10.0933 -0.0103326 0)
(10.0996 -0.0109121 0)
(10.1056 -0.0119297 0)
(10.1131 -0.0126293 0)
(10.0004 -0.00283456 0)
(10.0021 -0.00978357 0)
(10.0087 -0.0151469 0)
(10.0162 -0.0171489 0)
(10.0221 -0.0190402 0)
(10.0291 -0.0205941 0)
(10.0377 -0.0208539 0)
(10.0469 -0.0202023 0)
(10.0558 -0.0193657 0)
(10.0638 -0.0186572 0)
(10.071 -0.018176 0)
(10.0777 -0.0178356 0)
(10.0841 -0.0176805 0)
(10.0903 -0.0177148 0)
(10.0963 -0.0179725 0)
(10.1023 -0.0184597 0)
(10.108 -0.0193307 0)
(10.1147 -0.0200205 0)
(10.0001 -0.00271879 0)
(10.0018 -0.013573 0)
(10.0099 -0.0206827 0)
(10.0181 -0.0232089 0)
(10.024 -0.025402 0)
(10.0318 -0.0269116 0)
(10.0415 -0.0270173 0)
(10.0514 -0.0262969 0)
(10.0604 -0.0255137 0)
(10.0682 -0.0249152 0)
(10.0753 -0.0244422 0)
(10.0818 -0.0240852 0)
(10.088 -0.0238646 0)
(10.094 -0.023827 0)
(10.0997 -0.0239712 0)
(10.1054 -0.0243136 0)
(10.1106 -0.0249563 0)
(10.1161 -0.0256307 0)
(9.99892 0.000233752 0)
(9.99938 -0.0145232 0)
(10.0098 -0.0243227 0)
(10.0195 -0.0286546 0)
(10.0264 -0.0319377 0)
(10.0356 -0.0338137 0)
(10.0467 -0.0337768 0)
(10.0572 -0.0327891 0)
(10.0662 -0.0317586 0)
(10.0738 -0.0308837 0)
(10.0805 -0.030144 0)
(10.0866 -0.0295211 0)
(10.0923 -0.0291026 0)
(10.0976 -0.0288452 0)
(10.1026 -0.0287462 0)
(10.1072 -0.0287667 0)
(10.111 -0.0290541 0)
(10.1143 -0.029421 0)
(9.99585 0.00173649 0)
(9.99397 -0.00825033 0)
(10.0088 -0.0186371 0)
(10.0222 -0.0274148 0)
(10.0316 -0.034924 0)
(10.0431 -0.0393515 0)
(10.0553 -0.0403629 0)
(10.0658 -0.0396997 0)
(10.074 -0.0385833 0)
(10.0802 -0.0374011 0)
(10.0853 -0.0363562 0)
(10.0895 -0.0353747 0)
(10.093 -0.0344287 0)
(10.0957 -0.033582 0)
(10.0975 -0.0327589 0)
(10.0984 -0.0319058 0)
(10.0977 -0.0312868 0)
(10.096 -0.0306293 0)
(9.99521 -0.0307771 0)
(10 -0.0212409 0)
(10.0184 -0.00486298 0)
(10.0338 -0.00342827 0)
(10.0446 -0.0113344 0)
(10.0561 -0.0194978 0)
(10.0665 -0.0246012 0)
(10.0731 -0.0275001 0)
(10.0759 -0.0291444 0)
(10.0759 -0.0300934 0)
(10.0741 -0.0308618 0)
(10.0709 -0.0316036 0)
(10.0661 -0.0322874 0)
(10.0593 -0.0328989 0)
(10.0507 -0.0331329 0)
(10.0402 -0.0328087 0)
(10.0275 -0.0321547 0)
(10.0141 -0.0310863 0)
(10.0252 -0.182443 0)
(10.0753 -0.289642 0)
(10.0885 -0.247751 0)
(10.0818 -0.188262 0)
(10.0688 -0.144342 0)
(10.0574 -0.113663 0)
(10.0438 -0.0907011 0)
(10.0252 -0.0733286 0)
(10.0023 -0.0605919 0)
(9.97671 -0.0511452 0)
(9.94997 -0.0436569 0)
(9.92161 -0.0361959 0)
(9.89095 -0.0278868 0)
(9.85803 -0.0193921 0)
(9.82411 -0.0111319 0)
(9.78986 -0.00359037 0)
(9.75589 0.00281153 0)
(9.72318 0.00800916 0)
(9.93862 0.689706 0)
(9.86896 0.609775 0)
(9.76911 0.393045 0)
(9.63299 0.23324 0)
(9.49171 0.131863 0)
(9.3656 0.071235 0)
(9.25617 0.0358551 0)
(9.15977 0.0160915 0)
(9.07507 0.00723381 0)
(9.0015 0.00531698 0)
(8.93879 0.00644577 0)
(8.88852 0.00649294 0)
(8.84998 0.00288358 0)
(8.82264 -0.00224902 0)
(8.80492 -0.0085752 0)
(8.79535 -0.0155337 0)
(8.7906 -0.0211544 0)
(8.7926 -0.028566 0)
(0.0607034 -0.17712 1.82184e-19)
(0.0897592 -0.158523 1.39759e-20)
(0.083531 -0.0947663 0)
(0.0350139 -0.00972707 0)
(-0.0251107 0.101507 0)
(-0.151422 0.165946 -1.21825e-20)
(-0.353019 0.208295 0)
(-0.545042 0.25067 0)
(-0.762518 0.274239 0)
(-0.987155 0.283035 0)
(-1.21174 0.280417 8.44743e-21)
(-1.43087 0.269692 0)
(-1.63994 0.253714 0)
(-1.83697 0.234529 0)
(-2.0198 0.214008 0)
(-2.1881 0.193131 1.42087e-20)
(-2.34114 0.172895 0)
(-2.47965 0.153467 0)
(-2.60391 0.135333 0)
(-2.71478 0.118284 0)
(-2.81256 0.102495 0)
(-2.89812 0.0876108 0)
(-2.97178 0.0738069 0)
(-3.03402 0.0606571 2.37366e-20)
(-3.08511 0.0483616 -2.46937e-20)
(-3.12526 0.0366174 2.55648e-20)
(-3.15474 0.0257357 2.63293e-20)
(-3.17397 0.0154793 0)
(-3.18313 0.00643205 0)
(-3.18433 -0.00167983 -2.77319e-20)
(-3.17803 -0.00921676 -2.78872e-20)
(-3.1642 -0.0164707 0)
(-3.14375 -0.0227037 0)
(-3.11684 -0.0281256 -2.739e-20)
(-3.08408 -0.0337461 0)
(-3.04523 -0.0391602 0)
(-3.00099 -0.044634 2.54811e-20)
(-2.9512 -0.0493325 0)
(-2.89682 -0.0534331 2.3348e-20)
(-2.83775 -0.0573431 4.40436e-20)
(-2.77471 -0.0602835 0)
(-2.70816 -0.0640912 0)
(-2.63778 -0.0669565 0)
(-2.56521 -0.0692453 0)
(-2.48933 -0.0724701 0)
(-2.41184 -0.0732875 2.04252e-20)
(-2.33204 -0.0745976 1.5106e-20)
(-2.25121 -0.0753132 9.35422e-21)
(-2.16853 -0.0765128 0)
(-2.0851 -0.0767392 3.51263e-21)
(-1.99982 -0.0776081 0)
(-1.91414 -0.0781107 -1.84419e-20)
(-1.82654 -0.0793013 -2.66491e-20)
(-1.73943 -0.0800067 0)
(-1.65086 -0.0813002 0)
(-1.56339 -0.0814933 0)
(-1.47438 -0.0832048 -6.68481e-20)
(-1.38655 -0.084913 0)
(-1.297 -0.0871365 0)
(-1.20978 -0.0880116 0)
(-1.1203 -0.0905215 0)
(-1.0337 -0.0923649 0)
(-0.944807 -0.0949101 0)
(-0.859898 -0.0950648 0)
(-0.773442 -0.0962059 0)
(-0.694141 -0.096848 2.40694e-19)
(-0.605534 -0.100309 0)
(-0.521619 -0.100458 0)
(-0.434287 -0.104459 -3.94687e-19)
(-0.354792 -0.109048 -4.75949e-19)
(-0.253447 -0.115786 0)
(-0.145946 -0.114704 4.16092e-19)
(-0.0384533 -0.110976 -3.69333e-19)
(0.0647202 -0.103887 0)
(0.168739 -0.0980503 3.08681e-19)
(0.267895 -0.0910922 0)
(0.365524 -0.0859521 0)
(0.458172 -0.0805039 -2.53874e-19)
(0.54705 -0.076927 0)
(0.630165 -0.0728436 2.32763e-19)
(0.709492 -0.0697637 0)
(0.783922 -0.0661226 -2.20871e-19)
(0.85495 -0.0638265 -2.16529e-19)
(0.92196 -0.0603774 -2.14118e-19)
(0.98752 -0.0572978 -4.21847e-19)
(1.05122 -0.0547435 4.16643e-19)
(1.11451 -0.0531769 0)
(1.17587 -0.0511974 0)
(1.23576 -0.0500126 0)
(1.29198 -0.0496097 3.9275e-19)
(1.34748 -0.0486277 3.88317e-19)
(1.40592 -0.0472857 -3.82665e-19)
(1.46692 -0.0450463 0)
(1.52887 -0.0421733 3.68549e-19)
(1.59006 -0.0411783 3.61339e-19)
(1.65075 -0.0406355 3.54831e-19)
(1.71011 -0.038753 0)
(1.76839 -0.0372861 0)
(1.82528 -0.0370488 0)
(1.8813 -0.0352827 3.3201e-19)
(1.93581 -0.0324321 0)
(1.9889 -0.0294346 0)
(2.04085 -0.0281575 -3.16175e-19)
(2.09149 -0.0275443 0)
(2.14149 -0.0257177 0)
(2.18989 -0.024984 -3.0239e-19)
(2.23649 -0.0251407 0)
(2.28197 -0.0240516 0)
(2.32573 -0.0219972 2.91407e-19)
(2.36799 -0.0211587 2.87641e-19)
(2.40907 -0.0205532 0)
(2.44851 -0.018714 -2.81949e-19)
(2.48674 -0.0171487 0)
(2.52395 -0.0162266 2.75726e-19)
(2.55988 -0.0162814 0)
(2.59478 -0.0157674 2.71181e-19)
(2.62845 -0.0157512 2.69123e-19)
(2.66157 -0.0163338 0)
(2.69405 -0.0156616 0)
(2.72517 -0.0128978 0)
(2.75534 -0.0114178 0)
(2.78485 -0.011791 0)
(2.81394 -0.0115176 0)
(2.84262 -0.0108866 0)
(2.87073 -0.00986437 2.53836e-19)
(2.89775 -0.00945101 -2.5212e-19)
(2.92463 -0.00987024 0)
(2.95044 -0.00987253 0)
(2.97615 -0.00970929 0)
(3.00113 -0.00918435 0)
(3.02556 -0.00796092 -4.89691e-19)
(3.0486 -0.00813229 0)
(3.07136 -0.00948606 4.85261e-19)
(3.09346 -0.00946924 -4.83767e-19)
(3.1154 -0.0090532 0)
(3.13657 -0.00698834 0)
(3.1567 -0.00416655 0)
(3.17632 -0.00436757 4.74336e-19)
(3.19589 -0.00484802 4.72456e-19)
(3.21504 -0.00544479 0)
(3.23321 -0.00621364 4.69796e-19)
(3.25094 -0.00635693 4.68223e-19)
(3.26803 -0.00530251 -4.67338e-19)
(3.28464 -0.00425886 0)
(3.30106 -0.00471117 0)
(3.31779 -0.00450542 -4.61812e-19)
(3.33469 -0.00401135 0)
(3.35084 -0.00420426 0)
(3.36642 -0.00468981 0)
(3.38151 -0.00384381 0)
(3.39673 -0.00369884 4.54903e-19)
(3.41137 -0.00391654 4.53817e-19)
(3.4254 -0.00340419 0)
(3.43945 -0.00340407 4.51666e-19)
(3.45331 -0.00380918 0)
(3.46631 -0.00374204 0)
(3.47895 -0.00287208 4.48594e-19)
(3.49108 -0.00299049 0)
(3.50339 -0.00323105 4.46037e-19)
(3.51563 -0.00336185 0)
(3.52693 -0.00427755 0)
(3.53729 -0.00368254 4.44015e-19)
(3.54752 -0.00302374 0)
(3.55736 -0.00362838 4.42499e-19)
(3.56649 -0.00316154 0)
(3.5749 -0.00150107 0)
(3.58241 -0.000917586 0)
(3.58783 -0.0014929 -4.40276e-19)
(3.59181 -0.0004347 0)
(3.59347 0.0018987 4.40053e-19)
(3.59246 0.00253782 0)
(3.58802 0.00334626 0)
(3.57942 0.00515404 0)
(3.56393 0.00780141 0)
(3.54057 0.0116719 0)
(3.50479 0.0157588 0)
(3.45424 0.0216083 0)
(3.37414 0.0294739 -9.47572e-19)
(3.2725 0.0477964 0)
(3.01844 0.066512 0)
(-0.0467092 -0.0960081 -3.39969e-19)
(-0.124166 0.0478161 -9.02153e-20)
(-0.250056 0.214012 0)
(-0.438807 0.364424 2.88648e-20)
(-0.65192 0.498088 0)
(-0.890617 0.597165 9.73497e-21)
(-1.12473 0.649488 -1.48146e-20)
(-1.34729 0.671595 -1.34587e-20)
(-1.55205 0.669055 0)
(-1.73545 0.64821 -1.37014e-20)
(-1.89736 0.615182 -6.31067e-21)
(-2.0389 0.574321 0)
(-2.16156 0.529348 0)
(-2.26783 0.482795 0)
(-2.35981 0.436785 0)
(-2.43974 0.39238 -1.07318e-20)
(-2.50933 0.3505 0)
(-2.57012 0.31121 2.71148e-20)
(-2.62328 0.274754 0)
(-2.66976 0.24073 0)
(-2.71021 0.209111 -3.2384e-20)
(-2.74503 0.179372 0)
(-2.77468 0.151504 3.54957e-20)
(-2.79943 0.125004 -1.81379e-20)
(-2.81951 0.0999953 1.87983e-20)
(-2.83492 0.0761357 -1.93803e-20)
(-2.84578 0.053616 -1.987e-20)
(-2.85175 0.0321748 0)
(-2.85335 0.0121132 0)
(-2.84846 -0.00685639 2.05833e-20)
(-2.83704 -0.0247718 -2.10599e-20)
(-2.81889 -0.0418844 0)
(-2.79422 -0.0580967 0)
(-2.76294 -0.0734972 1.99334e-20)
(-2.7255 -0.0879353 0)
(-2.6821 -0.101288 0)
(-2.63317 -0.113588 -1.83728e-20)
(-2.57907 -0.124743 0)
(-2.52014 -0.134893 1.7562e-20)
(-2.45668 -0.143741 -3.17383e-20)
(-2.38912 -0.151771 0)
(-2.31779 -0.158642 0)
(-2.24343 -0.164946 -5.14714e-20)
(-2.16633 -0.170114 -4.62806e-20)
(-2.08688 -0.17437 -4.07394e-20)
(-2.00556 -0.177361 1.81957e-20)
(-1.92228 -0.17983 -1.35259e-20)
(-1.83741 -0.181161 -3.21288e-20)
(-1.75116 -0.182269 1.49263e-20)
(-1.66388 -0.18237 3.03394e-21)
(-1.5752 -0.182471 0)
(-1.48543 -0.181605 4.90492e-21)
(-1.39472 -0.181091 -7.58988e-21)
(-1.3037 -0.180006 0)
(-1.21206 -0.179439 0)
(-1.12001 -0.178085 0)
(-1.02725 -0.177369 2.81737e-20)
(-0.934312 -0.1761 0)
(-0.840841 -0.175713 -7.57297e-20)
(-0.747159 -0.174526 0)
(-0.652734 -0.173949 -9.94567e-20)
(-0.558438 -0.173177 0)
(-0.463766 -0.173953 1.26311e-19)
(-0.368662 -0.173724 0)
(-0.269257 -0.174746 -1.48161e-19)
(-0.166812 -0.176293 7.37728e-20)
(-0.0638745 -0.180359 0)
(0.0386989 -0.183611 1.56165e-19)
(0.140086 -0.187302 8.11159e-20)
(0.238449 -0.189868 8.26449e-20)
(0.332086 -0.191704 0)
(0.420627 -0.189869 8.32211e-20)
(0.506851 -0.186162 8.69215e-20)
(0.592241 -0.179998 0)
(0.67757 -0.173579 -8.90329e-20)
(0.76251 -0.16569 1.77548e-19)
(0.847121 -0.157949 0)
(0.930451 -0.149488 8.90506e-20)
(1.01204 -0.142191 0)
(1.09161 -0.134894 -2.63132e-19)
(1.16938 -0.128871 0)
(1.24516 -0.123026 2.65163e-19)
(1.31868 -0.118497 9.00405e-20)
(1.38993 -0.113968 -9.05813e-20)
(1.4597 -0.110514 -1.85648e-19)
(1.52786 -0.107354 1.90737e-19)
(1.59469 -0.105385 0)
(1.65977 -0.10336 0)
(1.72253 -0.101629 0)
(1.7821 -0.100041 -6.37542e-19)
(1.84065 -0.0982469 -2.17396e-19)
(1.90032 -0.096192 2.20029e-19)
(1.9614 -0.0940496 0)
(2.02275 -0.0917178 2.19795e-19)
(2.08342 -0.0889709 -2.21999e-19)
(2.14336 -0.086347 -2.21183e-19)
(2.20256 -0.0837544 0)
(2.26071 -0.0811582 0)
(2.31783 -0.0786582 0)
(2.37402 -0.0764289 -2.17842e-19)
(2.42932 -0.0742578 0)
(2.48408 -0.0719041 4.31061e-19)
(2.53783 -0.0695859 6.43082e-19)
(2.59087 -0.0671582 -4.25932e-19)
(2.64287 -0.0647766 0)
(2.69325 -0.062464 -2.09187e-19)
(2.74244 -0.0602462 0)
(2.79047 -0.0581594 -4.13766e-19)
(2.83722 -0.0563088 2.05071e-19)
(2.88265 -0.0543483 2.03673e-19)
(2.9271 -0.0526983 0)
(2.97063 -0.0509358 6.07788e-19)
(3.01306 -0.0491062 -4.02073e-19)
(3.05465 -0.0474613 -2.001e-19)
(3.0956 -0.0458298 0)
(3.1355 -0.0441582 -1.98121e-19)
(3.17457 -0.0425027 -5.91268e-19)
(3.21269 -0.040808 0)
(3.24966 -0.0396191 -3.89934e-19)
(3.28622 -0.0386252 -3.87645e-19)
(3.32181 -0.0376426 -3.85306e-19)
(3.35702 -0.0366421 0)
(3.39174 -0.0354781 0)
(3.42582 -0.0342713 0)
(3.45902 -0.0333085 1.89996e-19)
(3.49132 -0.0321459 1.89803e-19)
(3.52263 -0.0309688 0)
(3.55276 -0.02976 3.7544e-19)
(3.58229 -0.0287759 3.73291e-19)
(3.61173 -0.0280019 0)
(3.6411 -0.0273942 3.70822e-19)
(3.66962 -0.0262577 7.39612e-19)
(3.69722 -0.024989 -3.687e-19)
(3.72458 -0.0241079 -3.67279e-19)
(3.75135 -0.0235823 0)
(3.778 -0.0234384 0)
(3.80373 -0.023233 0)
(3.82845 -0.0225282 -3.62607e-19)
(3.85266 -0.0218221 3.60911e-19)
(3.87615 -0.021131 7.20361e-19)
(3.8992 -0.0203449 -3.60372e-19)
(3.92185 -0.0197459 3.58797e-19)
(3.94458 -0.0193472 3.59139e-19)
(3.96648 -0.0185494 0)
(3.98748 -0.0176506 0)
(4.00835 -0.0171968 -3.54891e-19)
(4.02959 -0.0167223 0)
(4.04988 -0.0159908 0)
(4.06922 -0.0154496 7.03084e-19)
(4.08883 -0.0153866 0)
(4.10853 -0.0151553 3.50487e-19)
(4.12706 -0.0146252 -3.49565e-19)
(4.14443 -0.0142521 0)
(4.16255 -0.0140106 3.48473e-19)
(4.1806 -0.0135327 0)
(4.19761 -0.0129988 0)
(4.21394 -0.0124831 -3.47216e-19)
(4.22977 -0.0118159 6.92488e-19)
(4.24572 -0.0114562 -3.4533e-19)
(4.26158 -0.0109737 0)
(4.27633 -0.0102448 0)
(4.29046 -0.00976699 3.44473e-19)
(4.30434 -0.00922785 0)
(4.31801 -0.00859738 3.43003e-19)
(4.33093 -0.00830255 0)
(4.34371 -0.00771197 0)
(4.35501 -0.00663882 0)
(4.36598 -0.00534773 3.40578e-19)
(4.37738 -0.00425243 0)
(4.38738 -0.00294879 -3.38529e-19)
(4.3954 -0.000866892 0)
(4.40248 0.00164105 0)
(4.40788 0.00475911 6.72573e-19)
(4.41019 0.00884484 -6.74077e-19)
(4.40916 0.0145155 0)
(4.40305 0.0223622 0)
(4.39198 0.0337228 0)
(4.36889 0.0508147 2.04353e-18)
(4.34526 0.0832089 0)
(4.26216 0.122995 -1.3797e-18)
(-0.132406 0.230962 -7.77407e-21)
(-0.303181 0.469721 5.48293e-20)
(-0.510935 0.682182 0)
(-0.736235 0.845702 -3.2374e-20)
(-0.945348 0.959042 0)
(-1.13409 1.01732 0)
(-1.29987 1.02873 -1.42669e-21)
(-1.44287 1.00787 9.85741e-21)
(-1.56455 0.963617 1.24133e-20)
(-1.66947 0.904087 1.04449e-20)
(-1.76127 0.836323 0)
(-1.8433 0.765519 0)
(-1.91819 0.695363 -1.6235e-20)
(-1.98805 0.628127 -3.4809e-20)
(-2.0541 0.565091 3.71978e-20)
(-2.11709 0.50668 0)
(-2.17726 0.452877 4.21128e-20)
(-2.23457 0.40328 -2.11661e-20)
(-2.28881 0.357391 0)
(-2.33967 0.314602 4.95176e-20)
(-2.38673 0.274416 2.52029e-20)
(-2.42952 0.236302 -5.4213e-20)
(-2.46761 0.199897 -2.75696e-20)
(-2.50052 0.164828 0)
(-2.52782 0.130904 6.03216e-20)
(-2.54905 0.0978987 6.19859e-20)
(-2.56384 0.0657438 0)
(-2.57184 0.0343414 6.43861e-20)
(-2.57298 0.00369323 0)
(-2.56701 -0.0261787 6.51296e-20)
(-2.55409 -0.0550406 3.17739e-20)
(-2.53423 -0.0827301 0)
(-2.50769 -0.109065 0)
(-2.47459 -0.13393 0)
(-2.43528 -0.157224 0)
(-2.39004 -0.178821 0)
(-2.33926 -0.198671 0)
(-2.28332 -0.216659 5.52255e-20)
(-2.2226 -0.232843 -7.8141e-20)
(-2.15751 -0.247121 0)
(-2.08837 -0.259581 0)
(-2.01552 -0.270392 0)
(-1.93975 -0.279782 -1.26962e-21)
(-1.86133 -0.287634 3.38935e-20)
(-1.7806 -0.294014 6.05862e-20)
(-1.69792 -0.298875 -5.16764e-20)
(-1.61351 -0.302559 -2.16874e-20)
(-1.52761 -0.305005 1.57744e-20)
(-1.44041 -0.306584 9.32166e-22)
(-1.35213 -0.30715 6.28702e-21)
(-1.26277 -0.307098 0)
(-1.17245 -0.306323 -4.95213e-21)
(-1.08129 -0.305352 9.30749e-22)
(-0.989609 -0.303994 0)
(-0.897384 -0.302607 0)
(-0.804612 -0.300929 2.94583e-20)
(-0.711222 -0.299508 0)
(-0.617377 -0.297933 0)
(-0.52304 -0.296593 -4.80073e-20)
(-0.428295 -0.295268 -1.13565e-19)
(-0.332528 -0.294652 6.5493e-20)
(-0.235131 -0.29419 0)
(-0.136883 -0.294176 -7.52139e-20)
(-0.0390463 -0.293725 0)
(0.0582184 -0.293146 -7.91477e-20)
(0.154665 -0.291703 -8.65006e-20)
(0.250208 -0.290088 1.75819e-19)
(0.344642 -0.287797 8.91595e-20)
(0.437814 -0.285645 0)
(0.529289 -0.283341 -1.94351e-19)
(0.618571 -0.281321 0)
(0.705528 -0.278109 -3.10367e-19)
(0.790791 -0.273788 -2.11447e-19)
(0.874905 -0.267923 -2.16809e-19)
(0.958267 -0.26128 2.21873e-19)
(1.04101 -0.253541 -3.40814e-19)
(1.12317 -0.245295 0)
(1.20444 -0.236202 0)
(1.28473 -0.226874 2.35716e-19)
(1.36396 -0.217155 3.55938e-19)
(1.44202 -0.20785 0)
(1.5186 -0.199127 -1.18993e-19)
(1.59335 -0.191728 0)
(1.6664 -0.185181 3.61056e-19)
(1.73795 -0.17996 1.58548e-21)
(1.8077 -0.175651 -1.8376e-21)
(1.87575 -0.172366 -2.57906e-19)
(1.94186 -0.169487 0)
(2.00529 -0.166794 2.77287e-19)
(2.06575 -0.164139 2.28871e-21)
(2.12477 -0.161247 0)
(2.18407 -0.158061 0)
(2.24386 -0.15457 0)
(2.30351 -0.150954 -3.23163e-19)
(2.36251 -0.14723 0)
(2.42075 -0.143373 0)
(2.47823 -0.139509 0)
(2.53479 -0.135648 0)
(2.5906 -0.13189 0)
(2.64554 -0.128186 -3.34481e-19)
(2.69983 -0.12441 0)
(2.75347 -0.120611 -3.35841e-19)
(2.80643 -0.116914 -3.35381e-19)
(2.8587 -0.113318 3.34772e-19)
(2.91002 -0.109756 0)
(2.96016 -0.106324 3.33048e-19)
(3.00907 -0.102967 0)
(3.05678 -0.0997415 3.30519e-19)
(3.10354 -0.0966096 -3.29612e-19)
(3.14926 -0.0935344 -9.84509e-19)
(3.19412 -0.0905731 0)
(3.23812 -0.087741 -9.78053e-19)
(3.28114 -0.0849735 -3.24074e-19)
(3.32352 -0.0822321 0)
(3.36532 -0.0797467 -6.45223e-19)
(3.40598 -0.0773748 -6.42735e-19)
(3.44579 -0.0750745 9.61792e-19)
(3.48473 -0.072921 0)
(3.52301 -0.0707025 3.18975e-19)
(3.56057 -0.0684063 3.17643e-19)
(3.59747 -0.0662532 9.48845e-19)
(3.63405 -0.0642042 0)
(3.67018 -0.0622105 0)
(3.70556 -0.0603084 0)
(3.7401 -0.0586052 3.1373e-19)
(3.77405 -0.0569995 0)
(3.80702 -0.0554952 0)
(3.83928 -0.0539321 -3.13128e-19)
(3.8708 -0.0521437 -3.118e-19)
(3.90218 -0.0504633 0)
(3.93295 -0.0490249 0)
(3.96299 -0.0478894 -6.19223e-19)
(3.99215 -0.0466428 0)
(4.021 -0.0452449 6.16303e-19)
(4.04937 -0.0437682 6.14907e-19)
(4.0773 -0.0423028 0)
(4.10492 -0.0411318 0)
(4.13165 -0.040084 -6.09615e-19)
(4.15768 -0.0390052 -4.26697e-22)
(4.18319 -0.0380179 -4.26819e-22)
(4.20828 -0.0369622 0)
(4.23304 -0.0358432 -1.21281e-18)
(4.25781 -0.0348834 0)
(4.2822 -0.0340401 0)
(4.30553 -0.0330987 0)
(4.32865 -0.031909 6.0226e-19)
(4.35174 -0.0310308 0)
(4.37424 -0.0304033 -1.19822e-18)
(4.39573 -0.0294946 -5.98065e-19)
(4.41747 -0.0283826 0)
(4.43909 -0.0276782 -5.9775e-19)
(4.45959 -0.0271766 0)
(4.47957 -0.0261822 0)
(4.49967 -0.0251518 -1.78464e-18)
(4.51987 -0.0246411 1.18822e-18)
(4.53927 -0.024052 0)
(4.55797 -0.023175 1.18715e-18)
(4.57627 -0.0223418 -5.9263e-19)
(4.5944 -0.0213589 0)
(4.61229 -0.0207588 0)
(4.62948 -0.0202113 0)
(4.64602 -0.0192549 -1.77495e-18)
(4.66223 -0.0181782 0)
(4.67786 -0.0172441 -5.88921e-19)
(4.69281 -0.0162404 0)
(4.70719 -0.0151485 0)
(4.72046 -0.0142007 0)
(4.73319 -0.0126182 0)
(4.74533 -0.0107711 0)
(4.75655 -0.0087457 0)
(4.76593 -0.00605969 -1.16057e-18)
(4.77373 -0.00252338 0)
(4.77988 0.00155664 -5.79029e-19)
(4.78336 0.00689156 1.7392e-18)
(4.78356 0.0143895 0)
(4.77879 0.0244031 0)
(4.76908 0.0392486 -1.16496e-18)
(4.75083 0.0601243 -1.17346e-18)
(4.72984 0.0967552 1.17195e-18)
(4.68542 0.149619 1.18182e-18)
(-0.170072 0.681783 8.42514e-20)
(-0.347896 0.941873 -4.85925e-20)
(-0.555255 1.13294 -2.55242e-20)
(-0.750855 1.25639 -1.16387e-20)
(-0.916222 1.31638 0)
(-1.05424 1.32233 2.28562e-20)
(-1.17004 1.28821 -1.34977e-20)
(-1.26919 1.22815 0)
(-1.35632 1.15313 -1.03625e-20)
(-1.43583 1.07137 0)
(-1.5106 0.988224 2.76249e-20)
(-1.58274 0.907153 0)
(-1.65327 0.830081 1.35517e-20)
(-1.72277 0.757839 2.90926e-20)
(-1.79118 0.690528 -3.11434e-20)
(-1.85827 0.627829 0)
(-1.92356 0.569177 -3.54254e-20)
(-1.98647 0.513923 0)
(-2.04641 0.461389 0)
(-2.10275 0.41097 -4.20027e-20)
(-2.15489 0.362137 0)
(-2.2022 0.314473 -1.80865e-21)
(-2.24414 0.267658 0)
(-2.28017 0.221485 0)
(-2.30984 0.175849 1.86581e-21)
(-2.33272 0.130722 -5.33304e-20)
(-2.34846 0.0861613 -5.6628e-20)
(-2.35685 0.0422538 -5.54856e-20)
(-2.35783 -0.000807549 0)
(-2.35127 -0.0427765 -1.14335e-19)
(-2.33737 -0.0833773 0)
(-2.31621 -0.122345 -5.77174e-20)
(-2.28807 -0.159423 0)
(-2.25317 -0.194392 0)
(-2.21194 -0.227066 5.46784e-20)
(-2.16468 -0.257286 0)
(-2.11183 -0.28497 -5.11734e-20)
(-2.05378 -0.310058 1.72457e-21)
(-1.99104 -0.332561 9.15608e-20)
(-1.92402 -0.352491 -8.79787e-20)
(-1.85298 -0.369932 0)
(-1.77855 -0.384926 0)
(-1.70129 -0.39768 -3.57152e-20)
(-1.62153 -0.408267 0)
(-1.53962 -0.416839 -2.61979e-20)
(-1.45591 -0.42353 2.23487e-20)
(-1.37065 -0.428555 1.8333e-20)
(-1.28407 -0.432049 0)
(-1.19633 -0.434259 -9.78946e-21)
(-1.10765 -0.435307 -5.28082e-21)
(-1.01806 -0.435428 2.6624e-21)
(-0.927706 -0.434752 4.13959e-21)
(-0.836674 -0.433559 9.02802e-21)
(-0.745105 -0.431966 0)
(-0.652982 -0.430172 0)
(-0.560371 -0.428163 -2.43555e-20)
(-0.46728 -0.426167 0)
(-0.373901 -0.424225 0)
(-0.27939 -0.422498 8.00628e-20)
(-0.183726 -0.420905 8.84524e-20)
(-0.0879485 -0.419505 0)
(0.00747419 -0.417992 0)
(0.102339 -0.416223 0)
(0.196473 -0.41398 0)
(0.289827 -0.41132 1.24043e-19)
(0.382289 -0.408118 -1.27894e-19)
(0.473781 -0.404472 -1.36226e-19)
(0.564188 -0.400277 -2.81595e-19)
(0.65342 -0.395698 0)
(0.741335 -0.39071 2.17027e-21)
(0.827811 -0.385387 0)
(0.912817 -0.379358 1.62607e-19)
(0.996541 -0.37255 1.71703e-21)
(1.07922 -0.364822 1.71932e-19)
(1.16109 -0.356369 -1.7637e-19)
(1.24228 -0.347193 1.25731e-21)