/*--------------------------------*- C++ -*----------------------------------*\
  =========                 |
  \\      /  F ield         | OpenFOAM: The Open Source CFD Toolbox
   \\    /   O peration     | Website:  https://openfoam.org
    \\  /    A nd           | Version:  9
     \\/     M anipulation  |
\*---------------------------------------------------------------------------*/
FoamFile
{
    format      ascii;
    class       surfaceScalarField;
    location    "33.95";
    object      phi;
}
// * * * * * * * * * * * * * * * * * * * * * * * * * * * * * * * * * * * * * //

dimensions      [0 3 -1 0 0 0 0];

internalField   nonuniform List<scalar> 
1300
(
11.2529
1.87548
-4.1669
11.2529
-5.0098
1.87548
-4.24301
4.24301
-1.18749
1.18749
5.7123
5.54056
-2.37766
2.37766
-2.81946
2.81946
-2.86016
2.86016
-1.06194
1.06194
-1.02826
1.02826
0.693114
-0.693114
-3.41924
3.41924
-1.45619
1.45619
-2.90949
2.90949
6.1281
-6.1281
-3.24713
3.24713
-0.743759
0.743759
-4.26321
15.5161
6.98965
6.98965
-2.3711
2.3711
-1.25394
1.25394
1.41034
-1.41034
9.05239
-9.05239
-4.88549
-5.88406
1.91954
-14.0653
-3.09026
-3.09026
-2.7054
2.7054
-0.829928
1.04555
3.47682
-3.47682
-0.757126
0.757126
-4.32838
0.0853772
-4.32838
4.02759
0.215421
4.02759
-1.32877
0.14128
-1.32877
4.67826
-4.67826
1.07573
0.111761
1.07573
3.9281
-3.9281
-5.71006
11.4224
5.5428
-5.32064
20.8367
-5.93222
11.4728
-3.89896
3.89896
-2.29475
-0.0829092
-2.29475
2.37931
-0.00165119
2.37931
-4.00163
4.00163
-2.60959
-0.209875
-2.60959
2.91963
-0.100166
2.91963
3.66642
-3.66642
-2.91622
0.0560601
-2.91622
2.70845
0.151705
2.70845
0.771042
1.10443
-2.64652
3.69207
-1.10443
0.0424987
1.02614
0.0357986
1.02614
-1.01453
-0.0137251
-1.01453
1.04984
-0.0215792
1.04984
0.730126
-0.0370125
0.730126
-0.754861
0.0617469
-0.754861
-8.60857
-8.972
-3.54296
0.123718
-3.54296
-1.47421
0.0180213
-1.47421
1.49234
-0.0361548
1.49234
-2.52517
2.52517
-3.25137
0.341878
-3.25137
4.80635
1.32175
4.80635
5.04612
6.20674
16.299
-16.299
10.1709
-2.9675
-0.279625
-2.9675
-3.4126
-5.63979
3.4126
-0.165471
-0.805498
0.0617394
-0.805498
5.62659
1.36306
5.62659
2.58622
0.122227
-2.58622
0.215123
4.62617
-4.62617
1.42328
0.947821
1.42328
-1.19154
1.19154
1.12336
-0.0735236
-1.12336
-0.130582
1.38601
0.0243318
1.38601
-1.40975
-0.000595767
-1.40975
7.31225
-13.1963
-7.76755
3.22975
0.189496
-3.22975
0.139485
3.56357
-0.0867508
3.56357
-3.30969
3.30969
-3.61099
0.134179
-3.61099
-0.682207
-0.0749189
-0.682207
0.842008
-0.0848816
0.842008
-4.57623
0.247841
-4.57623
-3.69134
0.439972
3.69134
0.336244
1.25008
-1.25008
-1.43658
0.107807
-1.43658
-4.65925
0.0830278
4.65925
0.0190058
-4.77221
0.0939484
-4.77221
-3.71253
0.101533
3.71253
0.215575
4.58935
1.03724
-4.58935
0.661247
-5.36948
11.5762
-5.88338
11.4262
-3.51526
-0.383697
-3.51526
4.0898
-0.190845
4.0898
2.57095
0.338548
-2.57095
0.276199
2.50558
-0.12627
2.50558
-3.94441
-0.0572145
-3.94441
3.80448
0.197144
3.80448
2.54514
-0.0395636
-2.54514
-0.0644464
2.89436
0.0252691
2.89436
3.67241
-0.0059822
3.67241
-3.53944
-0.126986
-3.53944
3.17896
-3.17896
3.08059
0.0983711
-3.08059
0.16437
-5.07402
5.07343
-0.00799947
-5.06602
1.01814
1.01814
0.768936
-0.0388101
0.768936
-0.861791
0.106931
-0.861791
8.34567
-16.1132
8.77809
-17.3867
7.53209
-21.5974
8.11651
-17.0885
3.82709
-3.82709
3.76096
0.0661333
-3.76096
0.217997
-1.45605
-0.0181631
-1.45605
-2.28813
-0.237038
-2.28813
2.85711
-0.331939
2.85711
-3.74209
3.74209
-4.12478
0.382686
4.12478
0.68157
2.95553
-0.0611757
-2.95553
-0.0119658
0.924047
0.151685
-0.924047
0.118549
4.8635
-0.237335
4.8635
-4.08521
-0.540952
-4.08521
-1.47494
0.0188934
1.47494
-0.0516599
-1.25895
0.067403
-1.25895
-5.0745
0.00847756
-5.0387
-1.40127
-1.40127
1.30414
4.9962
-3.58567
0.0462335
3.58567
-0.022106
3.52705
0.215042
-3.52705
0.217361
-3.26327
0.0843119
3.26327
0.0464183
-0.65973
-0.022477
-0.65973
-1.03472
1.03472
-0.917617
-0.117106
0.917617
-0.075609
1.40552
-0.155443
1.40552
1.47053
0.0218115
-1.47053
0.0339518
-5.01131
0.239102
-5.01131
4.10032
-0.0105147
4.10032
-3.94907
-0.13614
3.94907
-0.276667
-0.00372289
5.07715
-1.01441
-0.000120152
1.01441
-5.10148
5.10136
-0.665122
0.00539171
0.665122
0.103815
1.02967
0.161873
-1.02967
0.16788
3.84801
-0.0435323
-3.84801
0.0209203
-2.00723
-0.280894
-2.00723
-3.18439
-0.330875
3.18439
-0.327281
-5.11518
-0.0779364
5.19312
-5.13676
1.33688
0.0491256
-1.33688
5.15049
-1.14361
-0.106472
1.14361
-0.108883
1.60377
-0.198251
1.60377
5.12086
-0.257362
-5.12086
0.109552
-4.11795
0.173535
4.11795
-0.017627
-1.77504
-0.232199
1.77504
-0.171262
-13.1281
14.4911
7.70865
-6.28147
-6.91485
-11.9213
4.4471
7.12912
14.618
-11.8138
-9.78363
-11.6743
2.86006
-2.69218
-3.72727
3.69025
23.5918
-23.4978
-18.3992
19.0808
20.777
-20.5615
5.70885
5.71351
15.8527
-15.9356
-20.8966
20.5129
15.3905
-15.6003
22.0483
-22.1055
-25.8111
25.7676
-16.0928
16.1489
-20.2944
20.1674
-21.0577
20.7811
-8.35352
-9.03313
16.5135
-16.3898
20.0034
-20.283
-19.3848
19.7267
10.0475
4.44359
11.0848
-6.24673
11.9556
-5.22605
12.9347
8.29346
-16.647
7.81977
-14.7346
9.04719
10.9562
-8.88172
-3.03955
-17.9699
17.8832
-17.257
17.3034
24.1243
-24.0389
-6.17283
11.8863
-5.25335
12.3825
-11.409
-6.99019
10.0872
4.53073
8.99042
7.52311
-9.17992
-2.4944
-24.7988
24.5414
-25.6599
25.119
0.100182
2.42593
-2.52611
1.35413
-0.862695
3.28863
1.99736
2.10429
2.45271
-2.29084
0.239462
-2.76558
-2.89616
-5.34039
5.4482
5.15706
-5.0453
16.5468
7.04496
16.5658
-16.7496
-6.7482
-16.5105
11.3637
7.71706
11.7464
12.0617
8.71534
12.1632
10.359
-10.3317
-0.0273069
-11.4777
21.8367
1.55464
-18.4678
-13.9371
8.84776
7.00494
8.84611
-9.8928
-6.04281
-9.6166
-11.0136
-9.88299
-11.3445
12.3171
8.1958
12.1263
-15.3138
15.2961
9.27631
6.11414
9.17614
-8.96483
-6.6355
-9.02928
27.481
-6.67745
-20.8036
-13.179
-12.6321
12.9818
9.06646
14.3364
11.4311
14.3574
8.91387
18.5671
-17.9803
5.34823
-9.94703
-6.14579
-9.78266
9.25804
6.89085
9.40974
-11.7668
-8.52762
-11.7206
-11.987
-9.07077
11.9929
8.17449
-12.5344
-13.1255
12.6706
8.11051
7.8398
-17.6234
9.24872
-18.2819
-10.9624
-5.42743
-10.7444
10.7848
6.68445
-17.4692
-5.86219
23.6364
-12.6802
20.5968
-10.9021
-9.38093
-10.914
-14.8048
-4.58003
-14.3648
-7.98892
7.70803
-8.82054
8.4886
26.8761
-16.2216
-10.6545
-12.3784
-8.18309
11.7171
-0.632344
-12.8358
12.8085
-0.880182
12.0545
16.4981
15.8658
-10.8802
-6.37674
-10.6629
10.2702
7.03322
10.3545
16.106
8.01831
16.3214
-16.8179
-7.22101
-16.57
4.84092
-4.91584
5.7136
-5.69471
15.5795
9.5395
-15.3421
-9.45668
22.9305
-10.775
-12.1555
-5.11964
5.21409
-0.0944455
-1.83102
-0.476889
0.266869
-1.93095
-1.79632
1.8692
0.235088
5.44918
3.65286
-2.41437
2.48177
2.77875
2.70523
-0.190933
2.4987
-2.49331
18.9017
-11.4319
-7.46979
13.9704
-13.8873
-2.59967
-19.3274
16.7277
2.67846
3.00329
-2.94156
-3.94838
-1.39201
-3.91443
2.95193
2.20513
3.10362
2.10715
3.34106
-8.1033
1.56296
6.54034
-5.99616
-3.48234
-13.3462
-6.26627
19.6125
16.6789
7.86256
-16.7884
0.27794
5.29302
-5.32917
-1.59833
-11.7479
8.34792
-9.94625
-15.217
-6.46092
21.6779
-9.58077
-1.08208
9.36573
2.38065
-10.8773
-7.09265
10.7431
1.42012
-12.0645
23.9707
-11.9062
-18.4413
8.51577
13.3209
16.2328
-17.8628
9.31888
8.54388
-4.54188
7.43156
1.41456
7.30529
-19.9306
13.8878
11.3251
8.40157
-11.6636
2.04705
-17.8836
25.172
-22.2876
-2.88432
12.8229
12.3491
13.5481
13.328
-7.78474
21.3328
-3.61775
-18.6699
21.5013
-13.0997
15.7824
-28.8821
-29.1104
10.4405
-17.9547
22.0728
-4.11809
-5.20457
-10.1092
23.1593
-2.00657
-21.1527
10.1197
-13.9282
-11.8557
25.7839
-20.6057
18.4912
-6.26893
-12.2223
-12.6631
-9.44238
12.4896
2.80654
-25.873
31.2213
-7.3059
7.80693
1.36921
7.8322
10.6091
-15.9757
5.36657
9.99654
-16.2655
6.76344
-22.7391
-12.1576
24.1921
-12.0345
-17.5851
-15.7942
-1.79087
4.87465
26.3466
-16.3058
12.1151
4.19067
8.46173
1.89274
-8.5601
-1.22256
0.968051
16.0864
-17.0545
10.3778
10.5
11.7044
4.38205
10.7702
7.11295
-10.7481
-0.972417
-14.7928
5.722
-6.61829
-14.5742
20.2962
-16.2679
1.69368
-10.3032
-13.9906
24.2938
-16.449
11.4255
12.5453
18.4587
-19.615
5.62439
-9.74633
-9.86865
10.6435
-17.2618
7.49833
12.7979
15.6088
2.48334
12.7465
11.4456
-19.431
1.14911
18.9687
-16.4743
3.88817
10.4692
-16.0033
0.209062
-10.5353
2.66482
-15.345
-14.8044
16.5297
-21.1098
-12.3524
13.5681
2.75327
-13.9044
-0.460436
-4.95391
-3.03501
-5.18611
-3.27641
-5.54413
-11.0612
-1.92686
-9.13429
5.78117
-6.68623
-4.65829
7.01351
1.47509
-4.93527
4.8288
-5.57996
5.38171
-0.210165
13.0186
15.6556
7.4725
-8.47674
15.9492
-15.6086
23.6269
-29.7251
14.1165
15.9487
-23.1698
-13.7763
2.70106
2.13986
2.61618
13.4471
-14.4141
0.966917
-13.2785
17.5975
-4.31895
-19.5798
6.3013
-6.1327
5.18667
0.526931
5.1685
1.41638
6.84596
-8.26234
-4.27833
-4.32999
-9.16326
-13.8594
23.0227
4.7354
-13.1051
8.36969
-12.0624
16.7978
0.0785086
-13.1836
16.9847
-10.1387
17.5116
-11.9839
5.52767
12.7918
22.3469
-9.55507
16.2482
-6.70867
7.06791
-16.623
-6.79149
-11.2883
18.1791
-13.0055
14.6992
-1.12466
15.8239
-13.7772
3.00221
-2.07285
8.42717
8.6423
16.8088
-12.4267
11.9697
-18.6783
-4.6533
-16.195
-3.39715
1.01858
-13.8254
12.8068
12.0436
-11.025
-3.24217
8.98402
-5.74185
5.68179
-2.84828
-2.83351
-1.84638
-3.06946
1.86886
0.629844
6.31163
0.489165
-3.33745
-2.00414
-1.90033
10.3744
8.52737
-3.8318
3.73735
3.56493
-0.561636
0.958722
2.1449
4.58712
-3.6284
0.678111
3.90901
-2.26344
3.82771
1.46531
-3.84952
-0.0649124
-3.40813
11.7561
3.13221
-5.33734
1.70894
2.38215
-13.8141
19.7414
-11.4154
-8.32604
22.1236
3.06355
-14.4789
16.2638
-13.5853
8.10349
-14.3698
-6.37544
-19.9608
-12.9158
-10.7095
19.0792
-12.3132
20.1757
3.86216
-20.4537
24.3158
-12.7398
6.27887
-9.44308
10.9084
-4.05806
-5.38502
11.2656
10.4123
-11.0535
-0.694384
0.212076
8.41923
-8.20716
-1.52702
-7.52318
-16.4089
17.829
-8.25569
17.5746
7.69356
-7.63403
25.2086
6.56495
-14.199
-11.8763
-12.9584
-5.6551
10.5777
-1.79586
-7.23341
-14.0181
7.27298
0.0323084
-19.0796
22.0733
-2.99368
-12.0747
-1.81309
14.636
-18.1015
1.83602
-11.3381
10.7353
12.1498
12.1821
-20.8418
-0.310942
-12.646
3.17679
-15.8228
15.5259
-6.80296
17.2435
-16.0049
11.3466
-14.5298
14.3591
-1.46364
14.7486
-9.382
6.05499
-15.4974
-12.6908
14.474
-8.35986
15.8432
-10.1182
25.9614
-17.4241
14.4076
11.5538
-2.71315
-8.20087
-13.9778
11.2646
0.429844
8.26204
17.8373
-10.7244
16.8649
8.92448
-18.6708
-8.33728
-25.8596
7.18881
-13.3144
-7.35658
14.5454
11.1021
12.9948
4.67675
-11.7723
17.7854
-19.5763
-5.75094
-9.05349
14.5808
-3.3162
10.1451
-19.1986
-5.1999
13.1092
-0.192726
-12.9165
3.11236
-15.4648
5.13095
-20.5957
15.9788
-16.4393
1.76937
-7.90207
-3.1659
-3.27479
-2.17169
-3.40827
-7.56638
5.3947
-1.26508
3.56372
-12.5207
12.3279
-5.07683
10.4715
-4.0575
-1.1286
4.22876
1.15294
11.6245
3.02507
-16.8014
-9.25448
14.624
-5.3695
1.11989
-10.8003
3.82364
8.09966
14.0239
-24.8273
1.65758
-15.1438
-4.06958
6.20944
4.91444
16.958
2.54395
6.55187
-0.342427
9.09582
2.27375
2.19814
-11.217
12.1839
1.58983
15.7063
-1.88295
7.41062
3.28556
3.30358
2.0256
5.72247
2.91982
8.72468
0.462343
-3.86764
2.06782
-3.96815
-1.26963
-4.00696
-0.316701
3.72514
-4.04184
10.4959
-1.96853
5.1264
-1.88162
-4.93332
6.81494
-9.35142
-5.49495
-1.58594
-5.6062
7.31514
6.14985
-5.7292
-3.62222
2.39088
-15.3067
11.9789
-12.6733
-2.26093
22.0549
-9.46139
1.25423
-3.18252
-6.26895
-7.66096
7.72587
24.1899
1.01868
12.2837
18.8477
11.755
1.03067
11.9877
-16.1058
-10.7515
-16.4167
-0.890805
13.7451
5.6145
20.7321
17.1683
13.8521
-5.34651
-24.9228
20.7184
-8.53444
16.3994
-3.48293
-17.1128
14.6489
8.97797
-17.4022
0.962916
-16.1499
-24.6843
-0.344427
12.6724
-11.28
10.1514
7.11643
2.01787
-2.42548
-0.849303
2.54259
-0.34445
8.75137
-0.188817
-8.19478
8.3836
-3.53632
2.26669
-0.429231
4.16658
6.38571
4.41718
-3.77761
-7.81945
-8.81644
-4.99766
-17.1425
2.47003
-8.61988
5.68085
-3.41416
2.84734
4.96945
10.0959
-1.60167
-9.42331
7.34352
-4.49618
5.59967
)
;

boundaryField
{
    wall-4
    {
        type            calculated;
        value           uniform 0;
    }
    velocity-inlet-5
    {
        type            calculated;
        value           uniform -11.2529;
    }
    velocity-inlet-6
    {
        type            calculated;
        value           uniform -1.87548;
    }
    pressure-outlet-7
    {
        type            calculated;
        value           nonuniform List<scalar> 8(4.1669 5.0098 10.7696 12.1458 17.5806 15.0798 17.1238 15.6486);
    }
    wall-8
    {
        type            calculated;
        value           uniform 0;
    }
    frontAndBackPlanes
    {
        type            empty;
        value           nonuniform List<scalar> 0();
    }
}


// ************************************************************************* //
