/*--------------------------------*- C++ -*----------------------------------*\
  =========                 |
  \\      /  F ield         | OpenFOAM: The Open Source CFD Toolbox
   \\    /   O peration     | Website:  https://openfoam.org
    \\  /    A nd           | Version:  9
     \\/     M anipulation  |
\*---------------------------------------------------------------------------*/
FoamFile
{
    format      ascii;
    class       volScalarField;
    location    "0.5";
    object      p;
}
// * * * * * * * * * * * * * * * * * * * * * * * * * * * * * * * * * * * * * //

dimensions      [0 2 -2 0 0 0 0];

internalField   nonuniform List<scalar> 
6400
(
-4.50756e-06
-0.00037679
-0.00121558
-0.00231997
-0.00348857
-0.00457726
-0.00548513
-0.00614393
-0.00651054
-0.00656062
-0.0062838
-0.00568031
-0.0047586
-0.00353381
-0.00202683
-0.000263797
0.00172422
0.00390125
0.00622652
0.00865459
0.0111358
0.013617
0.0160422
0.018354
0.0204953
0.0224109
0.02405
0.0253685
0.0263313
0.0269151
0.0271103
0.026924
0.0263816
0.0255293
0.0244366
0.0231988
0.0219389
0.0208133
0.0200193
0.0197288
0.000364673
-6.6312e-06
-0.000675277
-0.00151937
-0.00240857
-0.00323772
-0.00392718
-0.00441911
-0.00467406
-0.00466755
-0.00438705
-0.00382958
-0.00299991
-0.00190927
-0.000574517
0.000982378
0.00273472
0.00465123
0.00669616
0.00882967
0.0110082
0.0131854
0.0153125
0.0173398
0.0192181
0.0209005
0.0223442
0.0235125
0.0243773
0.0249205
0.0251367
0.0250347
0.0246391
0.0239918
0.0231526
0.0222005
0.0212322
0.0203622
0.019725
0.0194382
0.00121573
0.000660882
-1.96562e-05
-0.000782774
-0.00155662
-0.00226198
-0.00283757
-0.00323763
-0.00342946
-0.00339181
-0.00311311
-0.00258986
-0.00182525
-0.000828316
0.000386745
0.00180103
0.00339117
0.00512948
0.00698407
0.00891923
0.0108959
0.0128721
0.014804
0.0166468
0.0183563
0.0198901
0.02121
0.0222834
0.0230853
0.0236005
0.0238245
0.0237658
0.0234468
0.0229043
0.0221896
0.021368
0.0205176
0.019728
0.0190855
0.018648
0.00235827
0.00151386
0.000718307
-6.51537e-05
-0.000817051
-0.00147731
-0.00200093
-0.00235466
-0.00251394
-0.00246256
-0.00219165
-0.00169862
-0.0009864
-6.28073e-05
0.00105989
0.00236522
0.00383258
0.0054373
0.00715074
0.00894057
0.0107712
0.012604
0.0143987
0.0161136
0.0177075
0.019141
0.0203781
0.0213882
0.0221476
0.0226415
0.0228652
0.0228255
0.0225414
0.0220445
0.0213782
0.0205962
0.0197623
0.01895
0.0182019
0.017511
0.00360724
0.00243135
0.00147206
0.000617071
-0.000162069
-0.000820485
-0.00132764
-0.00166232
-0.00180842
-0.00175533
-0.00149758
-0.00103428
-0.000368712
0.000492041
0.00153722
0.00275242
0.00411947
0.00561644
0.00721758
0.00889351
0.0106115
0.0123357
0.0140283
0.01565
0.0171615
0.0185248
0.0197052
0.0206726
0.0214033
0.0218818
0.0221019
0.022068
0.0217954
0.0213104
0.0206492
0.0198554
0.0189813
0.0180891
0.017182
0.0161886
0.00482974
0.00331093
0.00216107
0.00120019
0.000358062
-0.000331825
-0.00085117
-0.00118968
-0.00133925
-0.00129491
-0.00105487
-0.000620317
4.74407e-06
0.000813584
0.0017966
0.0029411
0.00423106
0.0056469
0.00716541
0.00875965
0.0103992
0.0120503
0.0136768
0.0152408
0.0167039
0.0180285
0.0191797
0.0201267
0.0208448
0.0213165
0.0215334
0.0214967
0.0212178
0.020718
0.020027
0.0191807
0.0182229
0.017209
0.016109
0.0147948
0.00592511
0.00406769
0.00271505
0.0016275
0.00069881
-4.58599e-05
-0.000598366
-0.000957968
-0.00112382
-0.00109626
-0.000877129
-0.000469786
0.000120907
0.000888351
0.00182384
0.00291614
0.00415108
0.0055112
0.00697539
0.00851877
0.0101126
0.0117248
0.0133201
0.014861
0.0163091
0.0176264
0.0187765
0.019727
0.0204508
0.0209277
0.0211461
0.0211035
0.0208073
0.0202739
0.0195282
0.0185994
0.0175262
0.0163613
0.0150472
0.0134066
0.00681482
0.00462993
0.00307159
0.00184675
0.000817747
3.59067e-06
-0.000595966
-0.000988436
-0.00117939
-0.00117398
-0.000977421
-0.000595066
-3.26446e-05
0.000703295
0.00160481
0.00266199
0.00386233
0.00519022
0.00662643
0.00814773
0.0097268
0.0113324
0.0129297
0.0144811
0.0159473
0.0172886
0.0184666
0.0194462
0.0201968
0.0206947
0.0209242
0.0208786
0.0205609
0.0199834
0.0191664
0.018135
0.0169245
0.0155881
0.0140463
0.012078
0.00743507
0.00493578
0.0031739
0.00180767
0.000671288
-0.000220801
-0.000875849
-0.00130853
-0.00153004
-0.00154976
-0.00137588
-0.00101549
-0.000475088
0.000238875
0.00111921
0.00215726
0.00334213
0.0046599
0.00609298
0.00761957
0.0092134
0.0108437
0.0124757
0.014071
0.0155887
0.0169867
0.0182237
0.0192606
0.0200627
0.0206017
0.0208569
0.020817
0.0204804
0.0198551
0.0189579
0.0178107
0.0164476
0.0149251
0.0131447
0.0108458
0.00773142
0.00493058
0.00296988
0.00146217
0.000215886
-0.000758047
-0.0014729
-0.00194963
-0.00220436
-0.00225013
-0.00209764
-0.00175547
-0.00123066
-0.000529449
0.00034182
0.0013758
0.00256317
0.00389166
0.00534524
0.00690335
0.0085406
0.0102265
0.0119258
0.0135988
0.0152024
0.0166917
0.0180213
0.0191473
0.02003
0.0206352
0.0209366
0.0209172
0.0205705
0.0199003
0.0189201
0.0176496
0.0161235
0.0144032
0.0123738
0.0097367
0.00765511
0.00456441
0.00241077
0.000763969
-0.000591651
-0.00164811
-0.00242402
-0.00294592
-0.00323426
-0.00330525
-0.00317174
-0.00284345
-0.00232773
-0.0016304
-0.000756786
0.000287207
0.0014939
0.00285274
0.00434923
0.00596408
0.00767265
0.00944462
0.011244
0.0130295
0.0147554
0.0163729
0.017832
0.0190833
0.0200805
0.0207827
0.0211569
0.0211796
0.0208382
0.0201323
0.0190721
0.0176757
0.0159795
0.0140516
0.0117614
0.00877232
0.00716057
0.00379034
0.00145005
-0.00033193
-0.00179432
-0.00293173
-0.00376766
-0.00433375
-0.00465431
-0.00474835
-0.0046305
-0.00431135
-0.00379828
-0.00309641
-0.0022098
-0.00114276
9.88756e-05
0.00150639
0.00306697
0.00476274
0.00656988
0.0084582
0.0103909
0.0123248
0.0142112
0.0159971
0.0176267
0.0190442
0.0201957
0.0210323
0.0215128
0.021606
0.0212926
0.0205668
0.0194353
0.0179151
0.0160445
0.0138997
0.0113346
0.00797315
0.00620389
0.00256322
4.26033e-05
-0.00186982
-0.00343508
-0.00465026
-0.00554346
-0.00615111
-0.0065011
-0.00661496
-0.00650882
-0.00619385
-0.00567713
-0.00496282
-0.00405348
-0.00295153
-0.00166071
-0.000187633
0.00145689
0.0032566
0.00518877
0.00722348
0.00932319
0.0114428
0.0135303
0.0155278
0.0173734
0.0190035
0.0203556
0.0213713
0.0219996
0.0221999
0.0219449
0.0212222
0.0200345
0.0183968
0.0163504
0.0139801
0.0111235
0.00736218
0.00474188
0.000838777
-0.00185604
-0.00389368
-0.00555699
-0.00684553
-0.00779188
-0.00843715
-0.00881265
-0.00894223
-0.00884331
-0.00852737
-0.00800094
-0.00726696
-0.00632616
-0.00517876
-0.00382605
-0.00227212
-0.000525403
0.00139991
0.00348257
0.00569327
0.00799399
0.0103378
0.0126692
0.0149252
0.017037
0.0189324
0.0205387
0.0217863
0.0226128
0.0229662
0.0228089
0.0221206
0.0208985
0.0191552
0.0169342
0.0143305
0.0111632
0.00696777
0.00273151
-0.001427
-0.00429016
-0.00644749
-0.00820331
-0.00955974
-0.010554
-0.0112317
-0.0116277
-0.011768
-0.0116712
-0.011349
-0.0108071
-0.0100468
-0.00906692
-0.00786496
-0.00643935
-0.00479116
-0.00292584
-0.00085497
0.00140228
0.00381776
0.00635344
0.00896084
0.0115812
0.0141462
0.0165795
0.0187992
0.0207212
0.0222629
0.0233479
0.0239106
0.0239009
0.0232879
0.0220616
0.0202305
0.0178405
0.0149964
0.0114971
0.00682647
0.00012965
-0.00427822
-0.00730423
-0.00957551
-0.0114176
-0.0128355
-0.013871
-0.0145747
-0.0149849
-0.0151299
-0.0150294
-0.0146951
-0.0141319
-0.0133394
-0.0123138
-0.0110497
-0.00954201
-0.00778819
-0.00579005
-0.00355576
-0.00110166
0.00154607
0.00435008
0.00726097
0.010217
0.0131446
0.0159595
0.0185695
0.0208772
0.0227851
0.0242004
0.0250408
0.0252405
0.0247551
0.0235646
0.0216716
0.0191227
0.0160335
0.0121791
0.00698584
-0.00310663
-0.0077594
-0.0109434
-0.0133227
-0.0152442
-0.0167157
-0.0177843
-0.0185057
-0.0189219
-0.0190638
-0.0189525
-0.0185996
-0.0180092
-0.0171788
-0.0161017
-0.0147692
-0.0131721
-0.0113036
-0.00916085
-0.00674781
-0.00407696
-0.0011715
0.00193293
0.00518689
0.0085264
0.0118729
0.0151342
0.0182068
0.020979
0.023336
0.0251658
0.026366
0.026851
0.0265591
0.0254565
0.023537
0.0208462
0.0175101
0.0132766
0.00750742
-0.00702123
-0.0119161
-0.0152539
-0.0177351
-0.0197279
-0.0212436
-0.0223347
-0.0230628
-0.0234742
-0.0236029
-0.0234715
-0.0230921
-0.0224675
-0.0215932
-0.0204596
-0.0190536
-0.0173615
-0.0153714
-0.013075
-0.0104708
-0.00756627
-0.0043803
-0.000945516
0.00268986
0.00646065
0.0102841
0.0140604
0.0176742
0.0209984
0.0238988
0.0262409
0.0278981
0.0287605
0.0287438
0.0277961
0.0258977
0.0230908
0.0195111
0.0148745
0.00847017
-0.0116582
-0.0167955
-0.020284
-0.0228608
-0.0249151
-0.0264626
-0.0275622
-0.0282822
-0.0286742
-0.0287758
-0.0286119
-0.0281952
-0.0275277
-0.0266026
-0.0254069
-0.023923
-0.0221319
-0.0200155
-0.0175592
-0.0147547
-0.011603
-0.00811722
-0.00432528
-0.00027256
0.00397611
0.00833503
0.0126974
0.0169364
0.0209083
0.0244576
0.0274241
0.0296524
0.0310026
0.031362
0.0306537
0.0288394
0.0259537
0.0221405
0.0170782
0.00997425
-0.017063
-0.0224473
-0.0260853
-0.0287502
-0.0308539
-0.0324168
-0.0335058
-0.0341972
-0.0345492
-0.0346044
-0.0343907
-0.033922
-0.0331996
-0.0322146
-0.0309502
-0.0293839
-0.0274906
-0.0252451
-0.0226252
-0.0196147
-0.0162064
-0.0124056
-0.0082339
-0.00373159
0.0010388
0.00599049
0.0110111
0.0159629
0.0206855
0.0250002
0.0287179
0.0316495
0.0336188
0.0344769
0.0341142
0.0324659
0.0295535
0.0255265
0.0200186
0.0121457
-0.0232831
-0.0289255
-0.0327137
-0.0354583
-0.0375952
-0.0391512
-0.0402029
-0.0408369
-0.0411202
-0.0411019
-0.040814
-0.0402724
-0.0394783
-0.0384207
-0.0370787
-0.0354243
-0.0334257
-0.0310496
-0.028265
-0.025046
-0.0213756
-0.0172496
-0.0126805
-0.00770133
-0.00236973
0.00322888
0.00897876
0.0147329
0.0203145
0.0255208
0.030131
0.0339173
0.0366597
0.0381644
0.0382789
0.0369023
0.0340345
0.0298262
0.0238578
0.0151419
-0.0303699
-0.036291
-0.0402331
-0.0430466
-0.0451945
-0.0467122
-0.0476892
-0.0482257
-0.0484
-0.04827
-0.0478737
-0.04723
-0.0463405
-0.0451921
-0.0437596
-0.0420092
-0.0399013
-0.0373935
-0.0344446
-0.0310176
-0.0270839
-0.0226273
-0.0176491
-0.012172
-0.0062458
4.87018e-05
0.00659542
0.0132406
0.0197927
0.0260249
0.0316824
0.036494
0.0401885
0.0425164
0.0432701
0.0422996
0.0395722
0.0352324
0.0287957
0.0191585
-0.0383822
-0.0446156
-0.0487186
-0.0515862
-0.0537137
-0.0551487
-0.0559984
-0.056381
-0.0563903
-0.0560959
-0.055544
-0.0547578
-0.0537399
-0.0524751
-0.0509339
-0.0490757
-0.0468522
-0.0442109
-0.0410991
-0.0374669
-0.0332722
-0.0284849
-0.0230919
-0.017103
-0.0105562
-0.00352416
0.00388088
0.0115021
0.0191362
0.0265338
0.0334055
0.0394322
0.0442839
0.0476438
0.0492346
0.0488402
0.0463799
0.0419811
0.035079
0.0244379
-0.0473906
-0.053988
-0.0582629
-0.0611628
-0.0632244
-0.0645135
-0.0651616
-0.0653121
-0.0650792
-0.0645487
-0.0637773
-0.062794
-0.061603
-0.060187
-0.0585115
-0.0565283
-0.0541795
-0.0514012
-0.0481275
-0.0442944
-0.0398442
-0.0347303
-0.0289232
-0.022416
-0.0152314
-0.00742912
0.000887162
0.00956273
0.018387
0.0270917
0.0353534
0.0428032
0.0490446
0.0536814
0.0563488
0.056744
0.0547173
0.0503623
0.0430123
0.0312801
-0.0574853
-0.0645231
-0.0689843
-0.071883
-0.0738119
-0.0748643
-0.0752069
-0.0750173
-0.074438
-0.0735753
-0.0724997
-0.0712475
-0.0698247
-0.0682117
-0.0663677
-0.0642359
-0.0617474
-0.0588255
-0.0553898
-0.0513602
-0.0466617
-0.0412295
-0.0350145
-0.02799
-0.0201594
-0.0115645
-0.00229475
0.00750369
0.0176196
0.0277712
0.037605
0.0467018
0.0545935
0.0607917
0.0648245
0.0662765
0.0649009
0.0607328
0.0529732
0.0400573
-0.0687878
-0.0763755
-0.0810394
-0.0838834
-0.0855799
-0.0862656
-0.0861576
-0.0854811
-0.084416
-0.0830953
-0.0816062
-0.0799935
-0.0782646
-0.0763962
-0.0743402
-0.0720291
-0.0693813
-0.0663055
-0.0627053
-0.058483
-0.0535446
-0.0478048
-0.0411927
-0.0336587
-0.0251828
-0.0157838
-0.00553033
0.00544745
0.0169462
0.0286792
0.0402695
0.0512513
0.061082
0.06917
0.0749152
0.0777577
0.0773169
0.0735336
0.0654321
0.0512325
-0.0814687
-0.0897601
-0.0946404
-0.097342
-0.098657
-0.0987892
-0.0980296
-0.0966684
-0.0949347
-0.0929945
-0.0909547
-0.0888683
-0.0867427
-0.0845487
-0.082228
-0.0797001
-0.0768684
-0.0736249
-0.0698552
-0.0654425
-0.0602724
-0.0542372
-0.0472422
-0.0392122
-0.0300997
-0.0198956
-0.00864088
0.00355914
0.0165193
0.029959
0.0434893
0.0566056
0.0686928
0.0790481
0.0869214
0.0915723
0.092438
0.0893136
0.08098
0.0653871
-0.0957768
-0.104983
-0.11008
-0.112495
-0.113203
-0.112514
-0.110826
-0.108517
-0.105879
-0.103118
-0.10036
-0.0976654
-0.0950376
-0.0924374
-0.0897924
-0.0870054
-0.0839615
-0.0805338
-0.0765878
-0.0719861
-0.066592
-0.0602745
-0.0529131
-0.0444047
-0.0346713
-0.0236706
-0.0114091
0.00204199
0.0165277
0.0317882
0.0474378
0.0629476
0.0776384
0.090694
0.101195
0.10818
0.110843
0.10876
0.100369
0.0832595
-0.112085
-0.122491
-0.12777
-0.129655
-0.129414
-0.127522
-0.124527
-0.120926
-0.117088
-0.11326
-0.109587
-0.106131
-0.102885
-0.099792
-0.0967604
-0.093671
-0.0903868
-0.0867585
-0.0826297
-0.0778403
-0.0722304
-0.0656444
-0.057935
-0.0489694
-0.0386361
-0.0268556
-0.0135931
0.00112404
0.0171846
0.0343669
0.0523091
0.0704793
0.0881525
0.104406
0.118139
0.128125
0.133241
0.132744
0.124571
0.105806
-0.130966
-0.142944
-0.148288
-0.149239
-0.147528
-0.143886
-0.139074
-0.133738
-0.128334
-0.123151
-0.118344
-0.113961
-0.109977
-0.106308
-0.102832
-0.0994024
-0.0958551
-0.0920148
-0.0877004
-0.0827278
-0.0769129
-0.0700746
-0.0620387
-0.0526406
-0.0417342
-0.0291985
-0.0149514
0.00103346
0.018703
0.0378938
0.058294
0.0793991
0.100468
0.120495
0.138194
0.152038
0.160498
0.162375
0.154869
0.134297
-0.153327
-0.167337
-0.172455
-0.171787
-0.167813
-0.161648
-0.154338
-0.146711
-0.139308
-0.132446
-0.12627
-0.1208
-0.115969
-0.111653
-0.107691
-0.103898
-0.100078
-0.0960262
-0.0915332
-0.08639
-0.0803876
-0.0733189
-0.0649845
-0.0551847
-0.0437389
-0.0304819
-0.0152785
0.00196091
0.0212565
0.0425259
0.0655386
0.0898583
0.114775
0.13924
0.161809
0.180625
0.193663
0.199084
0.192994
0.170491
-0.180653
-0.197187
-0.201425
-0.197983
-0.190539
-0.180768
-0.170073
-0.159474
-0.149582
-0.140702
-0.132935
-0.126239
-0.120483
-0.115481
-0.11102
-0.106869
-0.102791
-0.0985469
-0.0938998
-0.0886136
-0.0824545
-0.0751907
-0.0665932
-0.0564352
-0.0444964
-0.0305661
-0.0144514
0.00400932
0.024925
0.0483191
0.0740801
0.101892
0.131142
0.160814
0.189365
0.21462
0.233973
0.244722
0.241347
0.216936
-0.215467
-0.23484
-0.2368
-0.228639
-0.215907
-0.201035
-0.185831
-0.171475
-0.158576
-0.147362
-0.137828
-0.129824
-0.12312
-0.117449
-0.112524
-0.108059
-0.103773
-0.0993883
-0.094638
-0.0892598
-0.0829957
-0.0755901
-0.0667881
-0.0563334
-0.0439686
-0.0294362
-0.0124822
0.00713497
0.0296282
0.055153
0.0837595
0.115318
0.149405
0.185153
0.221045
0.254674
0.28282
0.301673
0.303335
0.27755
-0.262256
-0.283938
-0.280726
-0.264599
-0.243882
-0.221914
-0.200849
-0.181893
-0.165509
-0.151731
-0.140357
-0.131065
-0.123486
-0.117239
-0.111954
-0.107278
-0.102881
-0.0984478
-0.0936812
-0.0882942
-0.0820068
-0.0745422
-0.0656221
-0.0549629
-0.0422723
-0.0272464
-0.00956854
0.0110887
0.0350553
0.062645
0.0941163
0.129603
0.168994
0.211747
0.256592
0.301119
0.341602
0.372924
0.383881
0.358774
-0.329441
-0.350138
-0.335826
-0.306418
-0.273849
-0.242257
-0.213844
-0.189519
-0.169344
-0.152966
-0.139862
-0.129463
-0.121212
-0.114593
-0.109138
-0.104425
-0.100074
-0.0957352
-0.0910836
-0.0858115
-0.0796213
-0.0722188
-0.0633065
-0.0525776
-0.0397087
-0.024353
-0.00613267
0.0153672
0.0406026
0.070067
0.104273
0.143702
0.188708
0.239317
0.294875
0.353441
0.411239
0.461921
0.49018
0.471945
-0.433302
-0.441938
-0.404632
-0.353517
-0.30387
-0.259779
-0.222691
-0.19259
-0.168709
-0.150051
-0.135623
-0.124528
-0.115987
-0.109335
-0.104006
-0.0995138
-0.0954339
-0.0913887
-0.087034
-0.0820478
-0.076121
-0.0689479
-0.0602185
-0.0496088
-0.0367712
-0.0213232
-0.00283302
0.019196
0.0453444
0.0762949
0.112846
0.155908
0.206458
0.265398
0.333222
0.409334
0.491062
0.57174
0.632265
0.637291
-0.604307
-0.570622
-0.488423
-0.403317
-0.330132
-0.270823
-0.224443
-0.188943
-0.162119
-0.142024
-0.127061
-0.115956
-0.1077
-0.101491
-0.0966836
-0.0927428
-0.0892175
-0.085715
-0.0818828
-0.0773943
-0.0719373
-0.0652033
-0.0568774
-0.0466277
-0.0340928
-0.0188664
-0.000477916
0.0216342
0.048157
0.0799488
0.118097
0.163984
0.21935
0.286302
0.367174
0.464094
0.577702
0.703358
0.821937
0.888674
-0.905507
-0.747599
-0.583059
-0.449248
-0.346262
-0.270409
-0.215759
-0.176569
-0.148498
-0.128424
-0.114101
-0.103906
-0.0966522
-0.0914507
-0.0876131
-0.0845903
-0.0819279
-0.0792365
-0.0761696
-0.0724078
-0.0676458
-0.0615816
-0.0539051
-0.0442877
-0.0323677
-0.0177329
0.000102619
0.0217335
0.0479116
0.0796189
0.118176
0.165399
0.223832
0.297035
0.389944
0.509262
0.662216
0.850721
1.07106
1.29318
-1.5143
-0.976292
-0.65027
-0.457762
-0.328471
-0.242754
-0.186542
-0.149067
-0.123736
-0.106543
-0.0949085
-0.0871127
-0.081968
-0.0786183
-0.0764185
-0.0748599
-0.0735243
-0.072053
-0.0701259
-0.0674466
-0.0637304
-0.0586941
-0.052046
-0.0434766
-0.032644
-0.0191577
-0.00255537
0.0177329
0.0424378
0.0725352
0.109385
0.154961
0.212253
0.285933
0.383597
0.517937
0.707224
0.973633
1.38716
2.03612
-2.65467
-1.2047
-0.592933
-0.358094
-0.233517
-0.162072
-0.120975
-0.0962788
-0.080938
-0.0714311
-0.065761
-0.0626797
-0.061348
-0.0611586
-0.0616422
-0.0624167
-0.0631564
-0.0635722
-0.0633991
-0.0623855
-0.0602855
-0.0568523
-0.0518316
-0.0449519
-0.035918
-0.0243971
-0.0100021
0.00773391
0.029397
0.0557561
0.0878719
0.127297
0.17647
0.239537
0.324325
0.446966
0.63916
0.970241
1.6981
3.27101
-7.18875e-06
-0.000374023
-0.00121912
-0.00232907
-0.00350194
-0.00459441
-0.00550534
-0.00616643
-0.00653456
-0.00658539
-0.00630863
-0.00570456
-0.00478168
-0.00355518
-0.00204601
-0.000280353
0.00171067
0.00389106
0.00621996
0.00865185
0.011137
0.0136222
0.0160514
0.018367
0.0205119
0.0224306
0.0240723
0.0253929
0.0263571
0.0269414
0.0271364
0.0269488
0.0264043
0.025549
0.0244525
0.0232103
0.0219458
0.0208147
0.0200146
0.0197287
0.000362049
-6.69298e-06
-0.000673265
-0.0015138
-0.00239909
-0.00322466
-0.0039112
-0.00440098
-0.0046545
-0.00464722
-0.00436658
-0.00380957
-0.00298086
-0.00189163
-0.000558732
0.000995942
0.00274575
0.00465944
0.00670133
0.00883161
0.0110069
0.0131807
0.0153044
0.0173286
0.019204
0.0208838
0.0223253
0.023492
0.0243557
0.0248985
0.0251151
0.0250143
0.0246206
0.0239759
0.0231401
0.0221918
0.0212275
0.0203607
0.0197246
0.0194427
0.00121924
0.000658213
-2.00217e-05
-0.000782896
-0.00155682
-0.00226191
-0.00283725
-0.00323712
-0.00342878
-0.00339101
-0.00311226
-0.002589
-0.0018244
-0.000827525
0.000387438
0.00180161
0.00339162
0.00512978
0.00698421
0.00891919
0.0108956
0.0128717
0.0148035
0.0166462
0.0183555
0.0198892
0.021209
0.0222824
0.0230844
0.0235995
0.0238236
0.0237651
0.0234462
0.0229038
0.0221893
0.0213679
0.0205174
0.0197279
0.0190862
0.0186467
0.00236686
0.0015075
0.000717678
-6.55042e-05
-0.000818339
-0.00147885
-0.00200261
-0.00235643
-0.00251576
-0.00246439
-0.00219345
-0.00170035
-0.000988034
-6.43246e-05
0.00105852
0.00236402
0.00383158
0.00543651
0.00715018
0.00894026
0.0107711
0.0126043
0.0143992
0.0161144
0.0177086
0.0191423
0.0203796
0.0213899
0.0221495
0.0226434
0.0228671
0.0228274
0.0225432
0.022046
0.0213795
0.0205971
0.0197623
0.01895
0.0182056
0.0175046
0.00362082
0.00242069
0.00147154
0.000617748
-0.000162402
-0.000820815
-0.00132787
-0.00166251
-0.00180858
-0.00175546
-0.00149768
-0.00103437
-0.000368789
0.000491962
0.00153714
0.00275234
0.00411938
0.00561633
0.00721746
0.00889338
0.0106113
0.0123356
0.0140282
0.0156499
0.0171614
0.0185248
0.0197053
0.0206727
0.0214034
0.021882
0.0221021
0.0220682
0.0217956
0.0213106
0.0206493
0.0198554
0.0189805
0.0180891
0.0171896
0.0161781
0.00484814
0.00329597
0.00216031
0.0012012
0.000357721
-0.000332143
-0.000851367
-0.00118987
-0.00133944
-0.00129507
-0.00105501
-0.000620456
4.60557e-06
0.00081345
0.00179648
0.00294098
0.00423092
0.00564676
0.00716527
0.00875952
0.010399
0.0120502
0.0136768
0.0152408
0.0167039
0.0180285
0.0191797
0.0201268
0.020845
0.0213167
0.0215336
0.0214969
0.021218
0.0207181
0.0200272
0.0191808
0.0182219
0.0172093
0.0161205
0.0147799
0.00594813
0.00404863
0.00271398
0.00162874
0.000698386
-4.62603e-05
-0.000598647
-0.000958272
-0.00112414
-0.00109655
-0.000877418
-0.000470078
0.00012062
0.000888081
0.00182359
0.0029159
0.00415085
0.00551098
0.0069752
0.00851861
0.0101125
0.0117248
0.0133201
0.0148611
0.0163093
0.0176265
0.0187767
0.0197273
0.0204511
0.0209281
0.0211465
0.0211039
0.0208076
0.0202743
0.0195285
0.0185997
0.0175251
0.0163619
0.0150624
0.0133875
0.0068422
0.00460697
0.0030702
0.00184822
0.000817288
3.1713e-06
-0.000596233
-0.000988713
-0.00117967
-0.00117425
-0.000977699
-0.000595349
-3.2921e-05
0.000703034
0.00160456
0.00266174
0.00386209
0.00519
0.00662623
0.00814756
0.00972668
0.0113323
0.0129297
0.0144811
0.0159474
0.0172887
0.0184669
0.0194465
0.0201972
0.0206951
0.0209246
0.020879
0.0205612
0.0199837
0.0191668
0.0181354
0.0169231
0.015589
0.0140651
0.0120547
0.00746654
0.00490918
0.00317223
0.00180936
0.000670775
-0.000221243
-0.000876089
-0.00130876
-0.00153028
-0.00155001
-0.00137613
-0.00101575
-0.000475336
0.000238636
0.00111897
0.00215702
0.00334189
0.00465967
0.00609278
0.0076194
0.00921326
0.0108436
0.0124757
0.014071
0.0155887
0.0169868
0.0182239
0.0192609
0.0200631
0.0206021
0.0208573
0.0208174
0.0204808
0.0198555
0.0189584
0.0178111
0.0164461
0.0149263
0.013167
0.0108185
0.00776681
0.00490055
0.00296793
0.00146403
0.000215312
-0.000758511
-0.00147312
-0.00194984
-0.00220457
-0.00225035
-0.00209786
-0.00175569
-0.00123088
-0.000529668
0.000341595
0.00137557
0.00256293
0.00389144
0.00534503
0.00690317
0.00854044
0.0102264
0.0119257
0.0135988
0.0152025
0.0166918
0.0180214
0.0191476
0.0200303
0.0206356
0.020937
0.0209177
0.0205709
0.0199008
0.0189207
0.0176502
0.0161218
0.0144047
0.0123997
0.00970534
0.00769425
0.0045311
0.00240854
0.000766012
-0.00059227
-0.00164859
-0.00242421
-0.0029461
-0.00323445
-0.00330544
-0.00317191
-0.00284362
-0.00232791
-0.0016306
-0.000756992
0.000286988
0.00149368
0.00285253
0.00434903
0.00596389
0.00767249
0.00944448
0.0112439
0.0130294
0.0147554
0.016373
0.0178322
0.0190836
0.0200808
0.0207831
0.0211574
0.02118
0.0208387
0.0201328
0.0190728
0.0176765
0.0159777
0.0140533
0.0117908
0.0087367
0.00720333
0.00375388
0.00144758
-0.000329697
-0.00179497
-0.00293222
-0.00376784
-0.0043339
-0.00465445
-0.00474848
-0.00463062
-0.00431148
-0.00379842
-0.00309657
-0.00220998
-0.00114295
9.86801e-05
0.00150619
0.00306678
0.00476255
0.0065697
0.00845804
0.0103908
0.0123247
0.0142112
0.0159971
0.0176268
0.0190444
0.020196
0.0210327
0.0215132
0.0216065
0.0212931
0.0205673
0.0194362
0.0179159
0.0160425
0.0139018
0.0113678
0.00793301
0.00625017
0.00252374
3.99126e-05
-0.0018674
-0.00343577
-0.00465077
-0.00554361
-0.00615122
-0.00650119
-0.00661503
-0.00650889
-0.00619393
-0.00567723
-0.00496294
-0.00405362
-0.00295168
-0.00166087
-0.000187799
0.00145672
0.00325642
0.00518859
0.00722332
0.00932306
0.0114427
0.0135303
0.0155278
0.0173735
0.0190037
0.0203559
0.0213717
0.022
0.0222005
0.0219455
0.0212228
0.0200355
0.0183979
0.0163482
0.0139825
0.0111608
0.00731712
0.00479159
0.000796349
-0.00185895
-0.00389108
-0.00555772
-0.00684604
-0.00779199
-0.0084372
-0.00881268
-0.00894224
-0.00884332
-0.00852739
-0.00800099
-0.00726703
-0.00632625
-0.00517885
-0.00382616
-0.00227225
-0.00052555
0.00139975
0.0034824
0.0056931
0.00799384
0.0103377
0.0126691
0.0149252
0.0170371
0.0189326
0.020539
0.0217867
0.0226133
0.0229668
0.0228096
0.0221213
0.0208996
0.0191564
0.0169319
0.0143333
0.0112051
0.0069173
0.00278462
-0.0014723
-0.00429329
-0.00644471
-0.00820405
-0.00956024
-0.010554
-0.0112317
-0.0116277
-0.011768
-0.0116712
-0.011349
-0.010807
-0.0100468
-0.00906693
-0.00786499
-0.0064394
-0.00479123
-0.00292595
-0.0008551
0.00140213
0.00381761
0.00635329
0.00896072
0.0115811
0.0141461
0.0165795
0.0187994
0.0207215
0.0222633
0.0233484
0.0239113
0.0239017
0.0232888
0.0220628
0.0202319
0.0178379
0.0149996
0.011544
0.00676999
0.000186281
-0.00432632
-0.00730756
-0.00957254
-0.0114184
-0.012836
-0.013871
-0.0145747
-0.0149848
-0.0151297
-0.0150292
-0.014695
-0.0141318
-0.0133393
-0.0123137
-0.0110496
-0.00954198
-0.0077882
-0.0057901
-0.00355584
-0.00110177
0.00154594
0.00434994
0.00726084
0.0102169
0.0131445
0.0159596
0.0185696
0.0208774
0.0227854
0.0242009
0.0250415
0.0252414
0.0247561
0.0235661
0.0216732
0.0191199
0.016037
0.0122315
0.00692261
-0.00304697
-0.00781033
-0.0109469
-0.0133195
-0.0152449
-0.0167162
-0.0177843
-0.0185056
-0.0189217
-0.0190636
-0.0189522
-0.0185994
-0.0180089
-0.0171785
-0.0161016
-0.0147691
-0.013172
-0.0113035
-0.00916081
-0.00674781
-0.00407701
-0.00117158
0.00193283
0.00518678
0.0085263
0.0118728
0.0151342
0.0182069
0.0209792
0.0233364
0.0251664
0.0263668
0.026852
0.0265602
0.0254582
0.0235389
0.0208431
0.0175142
0.0133354
0.00743663
-0.00695835
-0.0119699
-0.0152576
-0.0177318
-0.0197287
-0.021244
-0.0223346
-0.0230626
-0.023474
-0.0236026
-0.0234712
-0.0230917
-0.0224671
-0.0215929
-0.0204593
-0.0190533
-0.0173613
-0.0153712
-0.0130748
-0.0104707
-0.00756624
-0.00438031
-0.000945571
0.00268977
0.00646056
0.010284
0.0140604
0.0176743
0.0209986
0.0238992
0.0262415
0.027899
0.0287615
0.0287451
0.027798
0.0258999
0.0230874
0.0195158
0.0149404
0.00839085
-0.0115921
-0.0168521
-0.0202881
-0.0228573
-0.024916
-0.0264631
-0.0275621
-0.0282819
-0.0286738
-0.0287754
-0.0286115
-0.0281947
-0.0275272
-0.0266022
-0.0254064
-0.0239226
-0.0221315
-0.0200152
-0.0175589
-0.0147545
-0.0116029
-0.00811716
-0.00432528
-0.00027261
0.00397603
0.00833495
0.0126974
0.0169364
0.0209085
0.024458
0.0274247
0.0296533
0.0310038
0.0313635
0.030656
0.028842
0.0259501
0.0221459
0.0171521
0.00988535
-0.0169935
-0.0225069
-0.0260896
-0.0287467
-0.0308549
-0.0324173
-0.0335056
-0.0341968
-0.0345487
-0.0346038
-0.0343901
-0.0339213
-0.033199
-0.032214
-0.0309496
-0.0293833
-0.0274901
-0.0252447
-0.0226249
-0.0196144
-0.0162061
-0.0124055
-0.00823383
-0.00373159
0.00103875
0.00599041
0.011011
0.0159629
0.0206856
0.0250005
0.0287185
0.0316505
0.0336201
0.0344786
0.0341168
0.032469
0.0295496
0.0255328
0.0201016
0.012046
-0.02321
-0.0289883
-0.0327185
-0.0354547
-0.0375963
-0.0391517
-0.0402027
-0.0408365
-0.0411196
-0.0411012
-0.0408132
-0.0402716
-0.0394776
-0.03842
-0.0370779
-0.0354236
-0.0334251
-0.0310491
-0.0282645
-0.0250456
-0.0213752
-0.0172494
-0.0126803
-0.00770128
-0.00236977
0.00322879
0.00897866
0.0147329
0.0203146
0.0255211
0.0301316
0.0339183
0.0366612
0.0381664
0.038282
0.0369059
0.0340304
0.0298336
0.023951
0.0150301
-0.0302929
-0.0363574
-0.0402383
-0.0430429
-0.0451957
-0.0467127
-0.0476889
-0.0482251
-0.0483992
-0.0482691
-0.0478727
-0.0472291
-0.0463396
-0.0451912
-0.0437588
-0.0420084
-0.0399005
-0.0373929
-0.034444
-0.0310171
-0.0270835
-0.022627
-0.0176489
-0.0121719
-0.00624583
4.85846e-05
0.00659525
0.0132405
0.0197926
0.026025
0.0316829
0.036495
0.0401901
0.0425185
0.0432737
0.0423039
0.0395679
0.035241
0.0289005
0.019033
-0.0383007
-0.0446862
-0.0487245
-0.0515825
-0.053715
-0.0551493
-0.055998
-0.0563802
-0.0563893
-0.0560948
-0.0555428
-0.0547566
-0.0537388
-0.052474
-0.0509329
-0.0490747
-0.0468513
-0.0442102
-0.0410984
-0.0374664
-0.0332718
-0.0284845
-0.0230917
-0.0171029
-0.0105563
-0.00352435
0.0038806
0.0115018
0.019136
0.0265338
0.0334058
0.0394331
0.0442855
0.0476462
0.0492387
0.0488452
0.0463754
0.0419913
0.0351971
0.0242971
-0.0473038
-0.0540637
-0.0582697
-0.0611593
-0.063226
-0.0645141
-0.0651611
-0.0653111
-0.065078
-0.0645473
-0.0637759
-0.0627926
-0.0616016
-0.0601858
-0.0585104
-0.0565273
-0.0541786
-0.0514004
-0.0481268
-0.0442938
-0.0398437
-0.03473
-0.0289231
-0.022416
-0.0152316
-0.00742943
0.000886711
0.0095622
0.0183865
0.0270914
0.0353534
0.0428038
0.049046
0.0536838
0.0563534
0.0567498
0.0547127
0.0503745
0.0431456
0.0311221
-0.0573918
-0.0646055
-0.0689924
-0.0718797
-0.0738138
-0.0748649
-0.0752062
-0.0750161
-0.0744365
-0.0735736
-0.072498
-0.0712459
-0.0698232
-0.0682103
-0.0663665
-0.0642348
-0.0617465
-0.0588247
-0.0553891
-0.0513596
-0.0466613
-0.0412293
-0.0350144
-0.0279901
-0.0201597
-0.0115651
-0.00229547
0.00750282
0.0176187
0.0277704
0.0376045
0.046702
0.0545946
0.060794
0.0648296
0.0662832
0.0648963
0.0607474
0.053124
0.0398799
-0.0686857
-0.0764667
-0.0810493
-0.0838802
-0.0855821
-0.0862661
-0.0861565
-0.0854794
-0.084414
-0.0830932
-0.0816042
-0.0799916
-0.0782629
-0.0763948
-0.0743389
-0.072028
-0.0693804
-0.0663048
-0.0627047
-0.0584826
-0.0535443
-0.0478047
-0.0411928
-0.033659
-0.0251834
-0.0157846
-0.00553145
0.00544609
0.0169447
0.0286776
0.0402682
0.0512507
0.0610825
0.069172
0.0749205
0.0777654
0.0773123
0.0735514
0.0656033
0.0510331
-0.0813555
-0.0898634
-0.0946528
-0.0973389
-0.0986594
-0.0987896
-0.0980279
-0.096666
-0.094932
-0.0929919
-0.0909523
-0.0888661
-0.0867409
-0.0845472
-0.0822268
-0.0796992
-0.0768676
-0.0736243
-0.0698548
-0.0654424
-0.0602724
-0.0542374
-0.0472427
-0.0392129
-0.0301007
-0.0198969
-0.00864255
0.00355712
0.0165169
0.0299565
0.0434869
0.0566038
0.0686921
0.0790492
0.0869265
0.0915806
0.0924333
0.0893354
0.0811756
0.0651625
-0.0956486
-0.105104
-0.110096
-0.112492
-0.113205
-0.112514
-0.110823
-0.108514
-0.105876
-0.103115
-0.100357
-0.097663
-0.0950357
-0.092436
-0.0897913
-0.0870046
-0.083961
-0.0805335
-0.0765878
-0.0719863
-0.0665925
-0.0602751
-0.052914
-0.0444059
-0.0346728
-0.0236725
-0.0114115
0.00203911
0.0165243
0.0317844
0.0474339
0.062944
0.0776358
0.0906934
0.101199
0.108189
0.110838
0.108787
0.100594
0.0830058
-0.111936
-0.122636
-0.12779
-0.129651
-0.129416
-0.12752
-0.124523
-0.120922
-0.117083
-0.113256
-0.109584
-0.106129
-0.102883
-0.0997907
-0.0967595
-0.0936706
-0.0903867
-0.0867587
-0.0826301
-0.0778409
-0.0722313
-0.0656455
-0.0579365
-0.0489711
-0.0386383
-0.0268583
-0.0135964
0.00112015
0.01718
0.0343616
0.0523033
0.0704733
0.0881472
0.104403
0.118141
0.128133
0.133235
0.132777
0.124834
0.105518
-0.13079
-0.143124
-0.148315
-0.149233
-0.147528
-0.143882
-0.139067
-0.133731
-0.128328
-0.123146
-0.11834
-0.113959
-0.109975
-0.106307
-0.102831
-0.0994024