/*--------------------------------*- C++ -*----------------------------------*\
  =========                 |
  \\      /  F ield         | OpenFOAM: The Open Source CFD Toolbox
   \\    /   O peration     | Website:  https://openfoam.org
    \\  /    A nd           | Version:  9
     \\/     M anipulation  |
\*---------------------------------------------------------------------------*/
FoamFile
{
    format      ascii;
    class       volVectorField;
    location    "3.3";
    object      U;
}
// * * * * * * * * * * * * * * * * * * * * * * * * * * * * * * * * * * * * * //

dimensions      [0 1 -1 0 0 0 0];

internalField   nonuniform List<vector> 
918
(
(2.47632 -0.138979 0)
(0.108703 0.722546 0)
(0.182712 1.41716 0)
(2.31835 0.153735 0)
(-0.0662273 1.4415 -1.27331e-19)
(-0.0924035 0.643931 -5.69556e-18)
(0.617085 1.00112 -4.39622e-19)
(0.392077 0.225859 -3.37597e-20)
(3.00617 -0.0195907 0)
(-0.0256072 0.71891 0)
(-0.0116489 0.878019 0)
(0.767892 0.00298948 0)
(0.0107059 0.439105 0)
(-0.00300426 0.421888 0)
(0.0221667 0.373903 -1.47388e-18)
(0.00471079 0.883255 -1.24588e-19)
(0.49503 0.119184 2.47379e-18)
(0.0860542 0.874591 -3.3864e-19)
(1.53033 0.127548 0)
(-0.0223541 0.906177 0)
(0.259351 0.209982 -1.42645e-18)
(3.08313 -0.396989 0)
(2.9247 -0.505611 0)
(1.86163 -0.180675 0)
(0.681184 0.0419917 0)
(-0.0247461 0.523144 0)
(-0.00135266 0.494055 2.02043e-18)
(-0.0255043 1.75214 0)
(0.102711 3.27343 0)
(0.184834 2.18981 0)
(-0.0244738 3.33223 0)
(0.00497671 1.85149 9.79356e-20)
(0.0166427 0.8263 0)
(-0.147423 0.775094 -2.18425e-22)
(-0.193914 1.0291 4.73885e-18)
(-0.0415777 1.04471 0)
(0.822517 -0.0012506 0)
(0.195823 0.295755 7.49195e-19)
(1.12909 1.7249 9.52362e-19)
(0.74946 0.915063 -7.6621e-19)
(0.913652 1.84734 9.47812e-20)
(0.490537 1.03269 -4.88695e-19)
(0.785666 0.442349 3.32023e-20)
(0.433873 0.224619 0)
(1.02554 0.608316 0)
(0.73648 0.435379 1.48703e-19)
(0.363157 0.230797 -1.52593e-19)
(0.882662 -0.0481179 0)
(3.02767 -0.00178185 0)
(3.00677 0.0176059 0)
(3.20055 -0.417698 0)
(3.04308 -0.0744275 0)
(3.03114 -0.0391091 0)
(0.00995801 0.940323 -1.27461e-18)
(-0.0490551 1.40184 0)
(0.00576775 0.698543 0)
(-0.0632015 1.47155 0)
(-0.0258593 0.765115 0)
(0.00218493 0.920084 0)
(-0.0160614 1.61397 0)
(0.00523165 0.862568 0)
(-0.0256475 1.66213 0)
(-0.00818849 0.898202 0)
(0.886096 0.0110312 0)
(1.43717 0.00669595 0)
(0.784185 0.0152145 0)
(1.41687 0.0196439 0)
(0.738103 0.0115172 0)
(0.225405 0.921984 2.107e-18)
(0.0985369 1.2081 0)
(0.176301 1.06604 0)
(0.0331905 0.755775 2.37059e-23)
(0.0372233 0.498057 -3.15119e-18)
(0.019462 0.747942 0)
(0.00595465 0.422032 0)
(-0.000811503 0.73466 4.9456e-24)
(0.000674173 0.414856 0)
(-0.0173862 0.743692 0)
(-0.0133551 0.428644 0)
(0.0697323 0.730484 0)
(0.0641371 0.526334 0)
(0.0219802 0.665617 1.39353e-18)
(0.00821857 0.356663 0)
(-0.0123803 4.18905 0)
(0.0127118 1.62782 1.23691e-19)
(-0.00810364 0.88736 -1.57385e-19)
(0.968388 0.221283 -8.63987e-19)
(0.498446 0.0912269 -8.38447e-19)
(0.974458 0.264466 -2.58824e-18)
(0.5017 0.152229 -1.65936e-18)
(0.0866691 0.702857 0)
(0.220092 1.68961 2.93543e-19)
(0.228583 0.961044 -4.69529e-19)
(2.06644 0.255962 0)
(1.11142 0.114164 0)
(3.03314 0.103469 0)
(3.10432 0.445606 0)
(2.84055 0.376224 -1.12537e-17)
(2.57855 0.36107 8.62987e-18)
(-0.0303065 1.65187 0)
(0.0101252 0.891269 0)
(-0.0216331 2.38923 0)
(-0.0538633 1.73714 0)
(-0.0491039 0.879824 0)
(0.56935 0.40666 4.51676e-19)
(0.299252 0.225397 0)
(2.29751 -0.265835 0)
(1.32423 -0.118494 0)
(1.36661 0.0141976 0)
(1.30299 0.0290714 0)
(0.714139 0.0103737 0)
(1.09207 0.0474843 0)
(1.08807 0.0792597 0)
(0.474389 0.0333974 3.87212e-18)
(-0.00601126 0.449704 1.9659e-18)
(-0.0284199 0.786531 0)
(-0.0523079 0.854155 0)
(-0.0163202 0.463431 0)
(0.000123936 0.839741 1.97732e-18)
(5.53477e-05 0.487535 0)
(-0.0054738 0.845572 -6.07183e-18)
(-0.00488336 0.496774 2.04635e-18)
(0.0784066 3.83537 0)
(0.0790662 4.04414 0)
(-0.0014484 1.62323 -2.98509e-21)
(-0.0116001 1.58436 0)
(-0.00635933 0.870855 0)
(1.54292 0.0318269 0)
(0.84714 0.0174566 0)
(0.803279 0.00690484 0)
(1.52983 -0.0106682 0)
(0.820263 0.00462197 0)
(0.389627 0.575065 -9.40791e-19)
(0.187824 0.278468 0)
(0.396225 0.615946 1.05539e-19)
(0.199284 0.325634 0)
(1.36467 1.5812 2.45945e-19)
(0.855724 0.833226 -5.64912e-19)
(0.482532 1.79013 0)
(0.702148 1.86262 0)
(0.363506 1.02233 0)
(0.180636 0.434795 -4.98884e-19)
(0.864369 0.409934 0)
(0.462631 0.205715 4.52863e-19)
(1.53462 1.44556 0)
(1.68262 1.25254 0)
(0.940614 0.724825 6.38969e-19)
(1.81738 1.00569 0)
(1.12461 0.470406 2.32139e-20)
(1.54152 0.0288579 0)
(1.53363 -0.0126854 0)
(0.826987 0.00645207 0)
(1.95365 -0.197436 0)
(1.66366 -0.136843 0)
(1.05429 -0.0857213 0)
(3.0613 0.164129 0)
(3.03085 0.0681312 0)
(3.01021 0.0526911 0)
(0.00309052 1.66976 6.73766e-19)
(0.00375438 0.903096 0)
(0.0158686 1.73973 1.21281e-18)
(0.0044789 0.965257 -1.1042e-18)
(0.0548535 1.56608 2.85643e-19)
(0.0259765 1.42318 0)
(0.0316167 0.764697 0)
(-0.0526854 1.54575 0)
(-0.0172773 0.828781 0)
(0.00532582 1.67696 -5.37021e-21)
(-0.0164145 0.921102 0)
(-0.0287568 1.67586 -2.86143e-19)
(-0.0146004 0.896442 5.52782e-19)
(-0.0154601 1.59412 0)
(0.0211932 1.60059 0)
(-0.00167483 0.859403 0)
(-0.00616226 1.67579 0)
(-0.00117088 0.905803 0)
(1.64178 0.0101465 0)
(0.898207 0.00413661 0)
(1.59917 0.0149221 0)
(0.871473 -0.00416678 0)
(0.808215 -0.00285848 0)
(1.50979 0.0010738 0)
(1.47372 0.0400034 0)
(0.810828 0.00761393 0)
(-0.00579428 1.42076 -1.84816e-20)
(0.0001899 1.37707 0)
(0.00482115 0.732919 0)
(0.00172909 0.417218 0)
(0.348336 0.972012 0)
(0.306843 0.477741 -3.207e-19)
(0.00829343 0.646877 0)
(-0.00587858 0.367735 0)
(0.0474184 4.12008 0)
(0.00537566 4.16513 0)
(0.0284538 4.17123 0)
(-0.0540738 3.46023 3.18629e-20)
(-0.000472874 4.14883 0)
(-0.0241065 3.95391 0)
(0.0110371 0.895132 1.39005e-20)
(0.0218956 1.68565 2.05734e-19)
(-0.0239793 1.65371 1.61629e-19)
(-0.000205637 0.909141 0)
(0.97685 0.148085 1.33171e-18)
(0.488302 0.0585325 -1.3036e-18)
(0.166833 1.28322 0)
(0.113907 0.656626 -3.00611e-19)
(0.133876 1.3856 -9.78403e-19)
(0.0585913 0.779656 9.73476e-19)
(0.842566 0.0102772 0)
(1.60394 0.0266025 0)
(1.72829 0.117542 0)
(0.933145 0.0358897 0)
(0.00692244 1.67423 0)
(0.0375614 1.65089 0)
(0.00741157 0.909638 0)
(0.668246 0.442596 1.35392e-18)
(0.592998 0.434264 -1.55749e-18)
(0.325997 0.232096 0)
(2.03006 0.147745 1.37773e-19)
(1.19656 0.0869053 0)
(1.83793 0.0869967 0)
(0.982723 0.0153348 0)
(0.961502 0.10231 0)
(0.95323 0.0606664 -6.227e-18)
(0.48356 0.0380941 2.30357e-18)
(0.0079683 0.805455 1.86836e-18)
(0.00184907 0.461872 4.07715e-20)
(-0.0108703 1.40842 -3.8741e-20)
(0.0061399 1.38675 1.47541e-18)
(-0.0149779 0.848966 6.81137e-20)
(-0.011924 0.524493 -2.73248e-22)
(-0.107511 1.00068 -1.25452e-18)
(-0.0529565 1.35319 8.98173e-19)
(-0.0175291 1.35275 -1.46666e-18)
(1.59599 -0.00985598 0)
(1.59744 0.0265036 0)
(0.866355 0.0047372 0)
(1.54267 0.00156156 0)
(1.50285 0.0232124 0)
(0.821923 0.00581328 0)
(1.51544 -0.0139197 0)
(1.49178 -0.0132475 0)
(0.807879 -0.00847303 0)
(0.365014 0.568352 -1.0263e-18)
(0.193656 0.291166 0)
(0.189298 0.37248 1.54409e-19)
(0.370002 0.708126 1.26437e-18)
(0.375132 0.665829 -7.49138e-19)
(0.190938 0.344954 1.4651e-18)
(0.336479 0.875792 2.45688e-18)
(0.178281 0.467094 4.43564e-19)
(0.954997 0.329836 1.75727e-18)
(0.909806 0.385389 4.53791e-19)
(0.489009 0.184378 8.53419e-19)
(1.98395 0.770096 -7.84387e-19)
(1.20343 0.347273 -8.93172e-19)
(-0.0209055 1.75415 5.31408e-19)
(-0.0092794 0.962063 0)
(1.7565 0.0350841 0)
(1.67127 0.0396047 0)
(0.939565 0.0228931 0)
(-0.00355879 1.38472 0)
(0.00505115 0.729582 2.71959e-18)
(0.00464835 0.731245 0)
(0.00206588 0.415096 -2.66186e-18)
(-0.0103159 1.38626 6.50722e-19)
(-0.00948867 1.42249 0)
(0.403819 0.585747 2.88697e-19)
(0.432098 0.657958 -9.6487e-19)
(0.206165 0.310325 8.72758e-19)
(-0.026603 0.763586 -1.84259e-18)
(-0.0245986 0.687443 0)
(-0.0152161 0.41008 0)
(0.0078015 1.6351 -1.94207e-20)
(0.0331832 1.67656 -4.5522e-19)
(0.0131892 0.891349 -1.85128e-20)
(0.234847 1.19256 9.94371e-19)
(0.133217 0.596513 -6.61754e-19)
(-0.00245386 1.60611 8.15893e-19)
(0.0550508 1.50444 -9.11575e-19)
(0.0206635 0.85071 4.03327e-20)
(0.0067649 1.36603 -4.18484e-18)
(-0.000837887 1.39331 4.84625e-18)
(0.0036899 0.829733 1.89833e-18)
(-0.014235 0.804704 -1.89925e-18)
(-0.00440485 0.481284 -1.9045e-18)
(-0.0107835 1.41681 -4.9238e-18)
(-0.0154285 1.40027 5.0224e-18)
(0.353686 0.817358 0)
(0.36146 0.762293 -2.57932e-18)
(0.186231 0.401564 1.11717e-18)
(0.335164 0.957807 1.33155e-18)
(0.167706 0.518752 -2.05511e-18)
(2.12251 0.327415 5.06884e-19)
(2.115 0.562991 0)
(1.26755 0.229373 -4.9492e-19)
(-0.049613 1.70157 -5.91594e-21)
(-0.0178089 1.73686 0)
(-0.011354 0.955849 0)
(0.25285 1.1052 -3.61326e-19)
(0.292821 1.03556 -7.92846e-19)
(0.149605 0.558614 1.48686e-18)
(3.16607 -0.442269 0)
(3.34703 -0.413665 2.02445e-18)
(0.0910649 3.72727 0)
(0.0508125 3.35031 0)
(3.15936 0.247748 1.37634e-20)
(3.12451 0.5048 4.136e-18)
(0.0302592 3.48348 -4.27401e-20)
(0.0149212 2.92225 0)
(-0.0340151 1.19811 1.73598e-18)
(0.257492 1.46152 0)
(3.43264 1.62569 -4.15311e-19)
(3.18821 0.25705 -2.93012e-20)
(3.14278 -0.0984299 0)
(3.09996 -0.00184017 1.83925e-22)
(0.0184941 3.19604 0)
(0.0995039 3.25037 0)
(-0.0382181 3.21564 0)
(-0.00871074 3.35913 3.80366e-19)
(-0.00367501 3.43173 2.37494e-19)
(2.92532 0.0283311 -1.46532e-20)
(3.16427 0.0366715 0)
(3.26059 0.0731269 0)
(0.0096286 4.15129 0)
(0.00277565 3.18226 0)
(-0.0247065 3.39513 0)
(0.697841 3.53717 3.88824e-19)
(3.33838 -0.420648 0)
(3.01341 -0.344065 0)
(3.16967 -0.0539006 2.54635e-18)
(3.29214 -0.326779 -3.06214e-18)
(3.10365 -0.125738 0)
(0.00603592 4.1221 0)
(0.0392218 3.96478 0)
(0.0458759 4.07714 0)
(0.00406974 3.55225 0)
(-0.0142832 3.34122 0)
(-0.0249146 3.06616 0)
(3.05612 0.0304947 0)
(2.99823 -0.00472597 -1.79589e-20)
(2.29234 3.15594 -4.67487e-19)
(3.15577 0.0433007 -2.54707e-18)
(3.18995 0.276533 3.08752e-18)
(3.08243 0.116546 0)
(3.39997 0.31219 2.35173e-18)
(3.35943 0.480421 -3.02466e-18)
(3.07707 0.414734 0)
(-0.0133803 3.41162 0)
(0.0256772 3.36739 1.1815e-19)
(-0.00625421 2.85701 -8.57151e-20)
(3.67698 0.518217 2.74429e-18)
(3.48912 0.169218 0)
(-0.132026 1.27534 -2.41503e-18)
(-0.0340569 0.878521 -1.50967e-19)
(-0.0390346 1.36158 3.33814e-18)
(-0.00851803 1.28551 -1.00309e-18)
(0.0254806 1.11047 0)
(-0.0277939 1.2361 7.7292e-19)
(-0.107792 1.38815 2.3926e-18)
(-0.0528388 1.34025 -1.46155e-18)
(-0.0807083 1.32052 0)
(1.73601 0.809181 0)
(1.56168 0.917561 0)
(3.45616 2.02218 1.23178e-18)
(3.09954 1.99665 -1.55337e-18)
(3.67354 1.65615 0)
(3.43425 1.17843 0)
(3.36042 0.248971 -4.42972e-18)
(2.93634 0.142878 5.48651e-18)
(3.33566 -0.109848 0)
(2.90062 -0.0359748 0)
(3.43255 0.0318025 0)
(3.59195 0.129277 0)
(3.28556 0.112452 0)
(3.55083 0.280272 0)
(3.41021 0.287678 0)
(3.327 0.210168 0)
(0.01744 3.42931 0)
(-0.0318049 2.87294 0)
(0.0768275 3.59735 0)
(0.102463 2.9182 0)
(0.145125 3.46276 0)
(0.093996 2.7764 -6.25017e-19)
(0.0308562 3.49145 0)
(0.00939381 3.04531 4.58704e-19)
(-0.0218069 3.16211 -6.09984e-19)
(-0.0156712 3.47867 0)
(-0.0163036 3.00224 0)
(-0.0522783 3.53197 0)
(-0.0254328 2.8491 0)
(-0.065203 4.18411 -3.09037e-19)
(-0.02507 3.6891 3.37186e-19)
(-0.03898 3.60514 3.93603e-19)
(-0.0315255 3.05385 0)
(-0.04731 3.63151 -5.63087e-19)
(-0.00714991 3.19481 -3.54515e-19)
(-0.0353901 4.19464 2.43601e-19)
(-0.037728 4.00791 -4.27008e-19)
(-0.0294566 3.92449 -4.83446e-19)
(3.24752 0.0430212 3.87006e-18)
(2.64504 0.0193822 -4.88401e-18)
(3.1548 0.0827503 -3.82091e-18)
(2.64977 0.0509433 4.76484e-18)
(3.38925 0.043281 0)
(2.84624 0.0058406 0)
(3.45665 0.0835059 0)
(3.38119 0.030873 0)
(2.94196 0.0199904 0)
(3.62048 0.193211 0)
(3.47653 0.0871756 0)
(3.07293 0.0596979 0)
(0.0302327 4.04004 -1.3975e-20)
(0.00833568 4.15789 0)
(0.0070388 4.11895 0)
(-0.00636317 3.50389 1.13637e-19)
(-0.0118009 2.92001 -4.56791e-21)
(0.00345247 4.17798 1.33595e-19)
(-0.0124325 4.11578 -1.33817e-19)
(-0.0133184 3.96704 0)
(-0.00288527 3.93893 0)
(0.00262505 3.97489 0)
(-0.0168495 3.67231 0)
(-0.00364472 2.9678 0)
(0.930355 3.94731 -8.73862e-19)
(1.03407 3.34154 -2.6791e-19)
(0.459109 2.27226 -2.54888e-19)
(0.269655 2.50306 7.81351e-19)
(0.831737 3.8849 3.06059e-19)
(3.41737 -0.152155 0)
(3.31669 -0.253144 0)
(2.8862 -0.181164 0)
(3.46683 -0.0774006 0)
(3.34401 -0.153961 0)
(3.44515 -0.264721 0)
(3.51531 -0.288327 0)
(3.5689 -0.278886 0)
(3.30254 0.0117403 4.14912e-18)
(2.70384 0.020594 -5.24095e-18)
(3.22416 0.0340679 -4.08686e-18)
(2.77357 0.0123844 5.09092e-18)
(2.1882 3.48996 0)
(1.84629 3.22527 -6.39753e-19)
(2.49393 3.32905 -5.71379e-19)
(2.4823 2.70363 7.60834e-19)
(0.925619 1.44575 3.06454e-18)
(1.93819 0.229355 1.5425e-18)
(3.67555 0.265067 0)
(3.82346 0.52277 -2.22413e-18)
(3.41136 0.232142 -9.79981e-20)
(3.60854 0.378417 0)
(0.416158 1.4037 2.01593e-18)
(0.077727 1.24693 -3.22139e-18)
(0.167367 0.808962 1.8167e-18)
(0.415173 0.557788 -8.37779e-19)
(0.27048 1.51742 9.77987e-19)
(0.108518 1.29713 0)
(0.096739 1.16658 -1.27128e-18)
(0.325694 1.54552 -4.59262e-18)
(0.480038 1.70921 0)
(0.00687162 1.28888 1.32033e-19)
(-0.0113787 1.45719 -1.47731e-18)
(-0.0430421 1.30389 2.14768e-18)
(-0.0609022 1.4177 0)
(-0.0232771 1.38051 0)
(0.813362 1.25613 0)
(2.37844 2.46787 -1.17804e-18)
(2.7461 2.3069 5.33543e-19)
(2.76018 2.89816 0)
(2.97305 2.97922 -4.86958e-19)
(3.12901 2.43056 2.80153e-20)
(1.07808 0.814961 -2.03975e-18)
(2.02896 0.907539 -2.09898e-20)
(1.67798 0.65295 9.86366e-19)
(1.67491 1.10645 6.69489e-20)
(1.28621 0.867819 -2.66365e-18)
(1.91359 0.962838 0)
(2.36535 1.33467 1.63635e-18)
(2.40465 1.2367 0)
(1.83218 1.04864 0)
(1.46601 0.776188 0)
(3.05553 2.03623 1.15024e-18)
(3.84507 0.725277 -2.25009e-18)
(3.761 1.17461 0)
(3.58845 0.756422 0)
(1.90439 0.496254 1.5265e-18)
(3.03754 1.79424 -9.51608e-19)
(2.84588 1.69867 1.73367e-18)
(3.4449 1.27885 -2.09905e-18)
(3.15872 0.0437131 2.81867e-18)
(3.19743 0.128331 -2.92615e-18)
(2.74853 0.050669 0)
(3.32331 0.0175706 0)
(3.21377 -0.0235467 -2.71571e-18)
(2.74537 0.00360153 2.69231e-18)
(3.83803 0.0368163 0)
(3.73249 0.0352754 0)
(3.68448 0.128529 0)
(3.59212 0.168787 0)
(3.80103 0.0337685 0)
(3.71553 0.0270365 0)
(-0.059327 3.25396 0)
(-0.0621212 2.79755 0)
(0.227982 4.10892 -5.56586e-19)
(0.623499 3.75686 -2.342e-19)
(0.250677 3.57962 -5.23953e-19)
(0.352454 3.19414 8.38568e-19)
(0.341201 4.07708 0)
(0.306415 4.27309 -6.50106e-19)
(0.226506 4.30094 0)
(0.721299 3.98541 -4.40764e-19)
(0.526404 3.60847 1.10031e-18)
(0.410532 4.3043 5.70541e-19)
(0.609844 4.14227 -2.71774e-19)
(0.444207 4.23165 2.18608e-19)
(0.736518 4.32072 -8.46952e-19)
(0.586962 4.24013 0)
(0.667731 4.21429 6.38549e-19)
(-0.023362 4.09833 -2.23594e-19)
(-0.0170833 3.48469 0)
(0.0445955 3.92512 6.45578e-19)
(-0.026139 3.9904 0)
(-0.0105064 3.37378 -5.10227e-19)
(-0.0147927 2.95114 0)
(-0.0548244 4.13423 -3.85625e-19)
(-0.0584283 4.18896 0)
(-0.0506995 3.96499 0)
(-0.0495398 4.01242 4.3493e-19)
(-0.0190839 3.64498 1.75668e-20)
(-0.027175 3.53243 7.41749e-19)
(-0.0329261 2.97823 5.00862e-21)
(-0.040202 4.17174 2.22444e-19)
(-0.0407198 4.19515 1.30345e-19)
(0.00300398 3.33528 0)
(-0.00120863 2.90241 0)
(-0.0535706 4.21386 6.11971e-19)
(-0.076285 4.1304 5.77616e-19)
(-0.0698747 4.18628 -7.38707e-19)
(-0.0419278 4.23435 0)
(-0.00121525 4.08966 -4.09441e-19)
(-0.0234051 3.93005 1.76102e-19)
(-0.0184337 3.93573 -5.37981e-20)
(0.0053598 4.18996 -2.70148e-19)
(-0.00360922 3.93763 -8.78155e-20)
(-0.0236349 3.89036 3.89588e-19)
(3.08849 0.0194049 -2.7194e-18)
(3.08819 0.0144351 2.62623e-18)
(2.65361 0.00958965 0)
(3.53105 0.139206 3.49034e-18)
(3.05527 0.108226 -3.79663e-18)
(2.64543 0.0534446 4.15361e-18)
(3.63303 0.239805 -4.62354e-19)
(3.26543 -0.00650177 0)
(3.2407 0.0120891 2.58697e-18)
(2.86373 0.00864488 -2.56502e-18)
(3.71461 0.107428 -1.46455e-19)
(3.63694 0.0909697 1.25959e-18)
(3.83408 0.133602 0)
(3.86497 0.131175 -4.3543e-19)
(3.79663 0.0863372 0)
(3.67439 0.0772944 0)
(3.87225 0.0244158 0)
(3.65665 0.0133885 0)
(3.86404 0.0746111 9.10529e-19)
(3.86328 0.0376026 -2.02332e-18)
(3.83727 0.0910778 -9.89429e-19)
(3.85341 0.0884281 -1.07047e-18)
(3.86302 0.170112 2.06327e-18)
(3.6982 0.145916 0)
(3.81769 0.240885 0)
(0.00873872 4.12794 -1.69914e-19)
(0.0300726 4.15498 -1.49839e-20)
(0.0107515 4.16026 0)
(0.00570188 3.91379 1.71933e-19)
(-0.00149939 3.95291 2.76175e-20)
(-0.00298612 3.88019 -2.87128e-20)
(-0.0332239 3.4491 3.1297e-19)
(-0.0524434 3.81451 -1.84364e-20)
(-0.0166832 3.85556 9.08554e-20)
(-0.0196112 3.38594 -1.62126e-19)
(-0.000998415 3.0014 1.94875e-19)
(-0.000687228 4.1571 5.6579e-21)
(0.00603788 4.176 2.04436e-19)
(1.06223 4.25139 4.92858e-19)
(0.960227 4.23745 9.11399e-19)
(1.74444 3.64657 6.18812e-19)
(1.31773 3.80991 2.5757e-19)
(1.41794 3.28987 0)
(0.570785 2.52947 3.08085e-19)
(0.494189 1.97171 3.70137e-19)
(0.358391 2.74052 1.47015e-20)
(0.476397 3.24832 -1.32106e-18)
(0.605169 3.19384 9.84308e-19)
(0.445007 2.59444 0)
(0.317949 2.19423 -6.22704e-19)
(0.189215 3.09208 1.55889e-18)
(0.238146 2.84417 -3.50692e-20)
(0.141728 2.47424 -1.95417e-18)
(0.713963 1.66453 1.64633e-18)
(0.662627 1.87697 0)
(3.57819 -0.0859795 9.74696e-20)
(3.60704 -0.255855 -8.18666e-20)
(3.69797 -0.206455 -1.43386e-18)
(3.73546 -0.126747 1.45163e-18)
(3.66255 -0.0642669 0)
(2.21517 3.7151 0)
(2.35153 3.64161 0)
(2.65772 3.44243 0)
(2.43423 3.42207 0)
(1.00691 1.65205 -7.67436e-21)
(0.743018 1.2524 0)
(1.68109 3.36539 1.69253e-20)
(1.35123 3.39397 0)
(1.3641 3.082 -1.43841e-18)
(1.43893 3.00172 9.23055e-19)
(2.28386 0.356327 0)
(1.91967 0.318175 4.0529e-19)
(2.84566 0.343998 2.52671e-18)
(2.28497 0.268449 -9.08145e-19)
(1.85583 0.12313 -2.8616e-18)
(3.87903 0.661631 -3.02578e-18)
(3.55227 0.884657 -2.76007e-20)
(3.30156 0.790359 2.33262e-18)
(3.61547 0.649 2.07438e-18)
(3.27619 0.432143 -3.47722e-18)
(3.12947 0.449972 4.25697e-19)
(3.3186 0.658216 -9.38168e-19)
(3.19037 0.612307 0)
(3.63474 0.474613 1.75184e-18)
(3.76016 0.536817 0)
(3.74871 0.642882 0)
(3.79746 0.338599 9.66921e-19)
(3.86244 0.537991 -2.74268e-20)
(3.86608 0.607358 -5.26211e-19)
(3.88066 0.549061 0)
(3.5894 0.0829879 1.98771e-18)
(3.8584 0.116421 2.48974e-18)
(3.83771 0.0943647 -1.94262e-18)
(3.83128 0.165639 -1.67478e-18)
(3.64692 0.153265 -2.47048e-18)
(3.4538 0.330604 0)
(3.4741 0.246676 0)
(2.95631 0.184662 -1.45863e-18)
(2.53865 0.119211 5.48135e-19)
(3.77816 0.27073 2.24934e-18)
(3.88014 0.338002 -2.73502e-18)
(3.86386 0.391865 2.40348e-18)
(3.79468 0.402945 0)
(3.87121 0.266224 0)
(3.86354 0.235084 -1.14856e-18)
(3.84499 0.230539 -1.85268e-18)
(2.04262 3.32224 7.11884e-19)
(1.88027 3.21169 -7.65475e-19)
(1.58667 2.61878 -1.15919e-18)
(1.37908 2.31393 2.98534e-19)
(1.05123 1.63951 -2.95579e-18)
(0.943878 1.44862 1.03441e-18)
(0.719355 1.08432 -2.57386e-21)
(1.2998 2.08449 -1.27837e-18)
(1.32865 2.19428 1.90921e-18)
(1.15113 1.99751 5.66594e-19)
(0.936131 1.53423 -5.74091e-19)
(0.760962 1.28399 0)
(2.35498 2.597 -1.2905e-19)
(0.997884 1.35489 9.59662e-19)
(1.22358 1.16505 1.29485e-18)
(1.02839 1.03348 1.50093e-18)
(1.43671 1.01557 1.50759e-18)
(1.82544 1.33952 -2.53722e-18)
(1.7335 1.37305 2.05721e-18)
(1.32666 1.03318 -7.58935e-19)
(1.10368 0.78865 1.67866e-18)
(2.1329 0.661852 -8.91568e-19)
(2.03835 0.731817 0)
(1.728 0.583359 4.66812e-21)
(2.63322 1.65927 8.68236e-19)
(2.39911 1.50212 -3.14708e-18)
(2.03521 1.46704 1.53941e-20)
(2.03403 1.35603 0)
(2.63978 2.4785 9.76325e-19)
(3.07557 2.52906 1.21062e-18)
(2.9238 2.72132 -1.39215e-18)
(3.19681 2.56383 -5.0884e-19)
(3.26893 2.53951 -1.69721e-19)
(3.25135 2.67076 1.7441e-19)
(3.26952 2.09031 -1.91807e-18)
(3.34058 2.31075 4.75221e-19)
(3.47541 2.29279 0)
(3.50221 2.1116 -6.9622e-19)
(3.66523 0.9361 6.82094e-19)
(3.93122 0.892802 1.21428e-18)
(3.88879 0.824353 1.20023e-18)
(3.61971 1.17379 -1.33565e-18)
(3.77581 1.24311 0)
(3.84808 1.14097 0)
(3.26394 1.18436 -1.45154e-20)
(2.75591 0.798401 0)
(2.96288 0.802601 1.05456e-18)
(3.26018 0.852882 -2.76926e-20)
(3.43721 1.41075 5.85844e-18)
(3.24608 1.64779 1.50074e-18)
(3.21706 1.47384 -1.51179e-18)
(3.0282 1.40131 1.61766e-18)
(2.86694 1.46162 9.19856e-19)
(2.62961 1.33878 -8.9095e-19)
(3.61188 -0.0201093 2.28309e-18)
(3.82512 -0.00997147 0)
(3.80385 -0.0455351 1.53144e-18)
(3.68724 -0.0122121 -3.42871e-18)
(3.87562 0.0155728 1.6701e-18)
(3.83552 0.0427412 -3.51851e-18)
(3.71032 0.0445175 0)
(3.56658 0.0843601 -7.17977e-19)
(3.78739 0.0705666 1.82204e-18)
(3.68297 0.130066 -9.34878e-19)
(3.59552 0.103318 6.74768e-19)
(-0.0607885 3.29613 0)
(-0.0380136 3.81924 0)
(-0.0511339 3.21342 0)
(-0.0322669 2.78039 0)
(-0.0113905 4.01569 9.61183e-19)
(0.0359766 3.95474 -2.75021e-19)
(0.159513 4.27103 -2.98833e-19)
(0.126395 4.24561 3.13584e-19)
(-0.0689479 4.12973 -6.75451e-19)
(-0.0401316 4.13461 5.08066e-19)
(-0.00150762 4.01064 2.85693e-21)
(-0.0447112 3.86031 -6.20973e-19)
(-0.0357143 3.75172 -8.52235e-20)
(-0.0524006 3.91488 -7.83323e-20)
(0.0879666 4.04966 -6.90126e-19)
(0.108006 3.92691 0)
(0.177263 4.17035 3.40466e-19)
(0.167012 4.24819 3.01675e-19)
(0.435019 4.04257 -2.67298e-19)
(0.298928 3.60909 0)
(0.351424 3.48297 -1.24327e-18)
(0.438137 3.74718 8.80873e-19)
(0.349296 4.1247 -7.19203e-19)
(0.251867 4.02472 3.88213e-19)
(0.205009 3.84997 0)
(-0.0413105 4.18139 -6.94135e-19)
(-0.04566 4.05405 -7.80784e-19)
(-0.0643557 4.15639 0)
(-0.0303379 3.96459 -6.12713e-21)
(-0.0327353 4.13509 3.40979e-19)
(-0.0543365 3.99554 5.72072e-20)
(0.00328566 3.83277 -8.64288e-19)
(-0.0437989 4.01438 2.36853e-19)
(-0.0774191 4.17801 3.03286e-19)
(-0.0428065 4.1597 0)
(-0.018989 4.04398 0)
(-0.0273733 3.43457 2.5368e-19)
(0.0103579 3.92516 -7.80953e-20)
(-0.00506724 3.9092 0)
(-0.0168742 3.33801 2.0597e-19)
(-0.00532966 2.88658 -3.94886e-19)
(3.64624 0.0563068 0)
(3.6335 0.0351854 -2.35767e-19)
(3.88527 0.044958 -1.66095e-18)
(3.8272 0.0464694 0)
(3.73335 0.0397885 0)
(3.89197 0.0185827 -1.08649e-20)
(3.87629 0.0150158 2.73609e-18)
(3.80691 0.0278874 3.25532e-18)
(3.69034 0.0317063 0)
(3.5595 0.0372696 0)
(3.8033 0.0280801 1.63043e-18)
(3.6485 0.053537 0)
(3.52531 0.0645513 0)
(0.00688564 4.14737 0)
(-0.00313904 4.15909 1.24837e-20)
(0.00290592 4.16175 8.78928e-20)
(0.00814236 3.99582 0)
(0.0066397 4.15439 1.38329e-19)
(0.0154278 4.11856 -7.38436e-20)
(0.00119038 4.06186 0)
(1.18646 3.83335 0)
(1.00155 4.13194 -1.5989e-18)
(0.987827 4.00657 0)
(1.33305 4.13485 1.85797e-18)
(1.44335 4.11896 0)
(1.34329 4.19204 -7.7963e-19)
(1.13926 2.50129 -3.83215e-20)
(0.849996 1.90744 -1.96252e-18)
(0.70446 1.44818 2.39678e-18)
(0.79805 2.10318 4.46e-19)
(1.04113 2.65737 0)
(1.11966 2.61009 0)
(0.820528 1.96035 0)
(0.624924 1.58503 -1.56952e-18)
(1.10532 3.60499 -1.10578e-18)
(1.12655 3.09281 -2.63571e-19)
(1.27392 3.36981 2.15561e-19)
(0.627437 2.27878 0)
(0.686981 2.20265 0)
(0.524669 1.82823 -4.41053e-19)
(0.972656 2.88702 0)
(2.36174 3.29897 0)
(2.24681 2.93383 -1.63943e-18)
(2.34562 2.89077 -9.76758e-20)
(2.2059 3.23337 0)
(2.17029 3.07459 2.50101e-18)
(2.93133 2.84941 -4.62506e-19)
(2.86631 3.13085 0)
(2.87587 2.99437 7.65662e-19)
(2.54656 3.17084 0)
(2.54668 2.97009 0)
(1.36967 2.29827 -1.04656e-18)
(1.56153 2.68162 -7.86453e-19)
(1.76754 3.06658 1.35813e-18)
(1.71433 3.07529 -4.07879e-19)
(1.21438 2.10996 0)
(1.32558 2.46513 5.28421e-19)
(0.854527 1.53082 -8.08571e-19)
(0.69549 1.25341 3.01207e-23)
(1.7758 3.49984 0)
(1.96446 3.48566 -6.22471e-19)
(2.05757 3.63444 0)
(2.69574 0.556765 0)
(2.12877 0.419756 0)
(1.72135 0.373256 0)
(2.65659 0.628026 -1.65996e-18)
(2.16028 0.520752 9.33307e-19)
(2.60311 0.123535 -1.13174e-18)
(2.98657 0.270563 0)
(2.85543 0.280469 4.73392e-19)
(2.223 0.14166 1.87548e-18)
(1.95938 0.0836056 -1.18959e-18)
(0.892835 1.82436 9.61149e-19)
(1.13958 2.11715 0)
(0.656849 1.67803 1.74711e-18)
(0.667146 1.82932 -1.59503e-18)
(0.952737 2.06802 -1.11334e-18)
(2.08262 2.56393 1.47691e-18)
(2.08929 2.77122 0)
(1.83472 1.9493 -3.06862e-19)
(2.1534 2.17476 1.92791e-18)
(1.6797 1.6044 -4.72728e-19)
(1.90317 1.60499 4.99606e-19)
(2.33792 1.71967 1.13665e-18)
(2.58616 1.81007 0)
(2.39428 2.00286 0)
(2.23718 1.83119 0)
(3.57105 1.94274 4.88222e-19)
(3.37839 1.7432 -1.44692e-18)
(3.41179 1.88524 1.23273e-18)
(3.51505 1.63759 -1.16524e-18)
(3.79027 1.55989 0)
(3.78041 1.73865 -3.56807e-19)
(2.97673 1.24182 -2.14508e-18)
(3.04973 1.18174 -2.73185e-18)
(2.66863 1.21395 1.64709e-18)
(2.54494 1.11755 -1.60722e-18)
(2.80066 0.966565 -1.32629e-18)
(2.57565 0.950278 1.63114e-18)
(3.87792 0.0241288 -1.75569e-18)
(3.89283 0.0269233 3.59372e-18)
(3.68069 0.000208929 2.18104e-18)
(3.69489 -0.000810908 -2.6233e-18)
(3.78431 0.0425311 0)
(3.85375 0.0333723 -4.2901e-18)
(0.0313862 4.23144 1.3299e-19)
(-0.0121405 4.23876 0)
(0.0948093 4.23507 1.17589e-18)
(0.1067 4.26224 -1.07157e-18)
(0.096994 4.27672 5.54421e-19)
(0.0201498 4.2512 0)
(-0.0118984 4.20131 0)
(-0.015544 4.13719 -7.94413e-20)
(-0.0178746 4.12302 7.12466e-20)
(-0.00838069 4.14135 1.0793e-20)
(-0.0133843 4.16378 -1.28224e-19)
(-0.0037089 4.15607 7.06467e-20)
(1.64005 3.68751 -1.89825e-18)
(1.57228 3.69985 2.00483e-18)
(1.43001 4.04235 -1.0624e-18)
(1.44646 3.88059 8.81491e-20)
(2.00395 3.86609 0)
(1.67253 4.07124 -8.5628e-19)
(1.81277 3.91759 8.30027e-19)
(1.5643 4.08723 1.03745e-18)
(1.79318 3.87961 0)
(1.95729 3.80708 0)
(1.04547 3.50529 1.68145e-18)
(0.82716 2.95274 2.2586e-18)
(0.943144 3.1022 -1.54932e-18)
(0.74218 3.1053 -2.60204e-19)
(0.816819 3.61112 5.26999e-19)
(0.682425 3.37936 -1.27716e-18)
(0.874116 1.70688 -1.3669e-18)
(0.861125 1.55433 0)
(0.706115 1.3227 -1.50436e-18)
(1.23341 2.32547 0)
(1.22084 2.40434 0)
(1.55369 2.44049 -1.2198e-18)
(1.25649 2.31165 -1.16051e-18)
(1.20945 2.31571 1.23038e-18)
(1.32464 1.79223 0)
(1.68472 2.04138 -6.66988e-19)
(1.80513 2.35857 -9.41487e-19)
(1.60749 2.32842 0)
(1.09204 2.06157 8.01944e-19)
(1.01513 1.8943 0)
(2.71273 2.23422 -2.07121e-18)
(2.96276 2.30218 2.94799e-18)
(2.98102 2.08925 -2.92371e-18)
(2.60213 2.07262 -2.57778e-19)
(2.69749 1.98595 -1.08901e-18)
(1.4514 2.48078 8.92044e-19)
(1.50261 2.54308 -1.52269e-18)
(1.62764 2.58109 2.0012e-18)
(1.86699 2.72158 -1.30031e-18)
(1.9005 3.02527 -1.75728e-18)
(1.69276 2.7279 -1.33404e-19)
(1.74183 2.84103 1.53687e-18)
(1.87849 2.85214 1.08101e-19)
(1.98568 3.02426 7.28864e-19)
)
;

boundaryField
{
    wall-4
    {
        type            noSlip;
    }
    velocity-inlet-5
    {
        type            fixedValue;
        value           uniform (3 0 0);
    }
    velocity-inlet-6
    {
        type            fixedValue;
        value           uniform (0 1 0);
    }
    pressure-outlet-7
    {
        type            zeroGradient;
    }
    wall-8
    {
        type            noSlip;
    }
    frontAndBackPlanes
    {
        type            empty;
    }
}


// ************************************************************************* //
