/*--------------------------------*- C++ -*----------------------------------*\
  =========                 |
  \\      /  F ield         | OpenFOAM: The Open Source CFD Toolbox
   \\    /   O peration     | Website:  https://openfoam.org
    \\  /    A nd           | Version:  9
     \\/     M anipulation  |
\*---------------------------------------------------------------------------*/
FoamFile
{
    format      ascii;
    class       volScalarField;
    location    "9.93";
    object      p;
}
// * * * * * * * * * * * * * * * * * * * * * * * * * * * * * * * * * * * * * //

dimensions      [1 -1 -2 0 0 0 0];

internalField   nonuniform List<scalar> 
2268
(
730.729
730.709
730.707
730.728
730.774
730.844
730.935
731.046
731.172
731.311
731.458
731.609
731.759
731.897
732.017
732.113
732.187
732.256
732.307
732.353
732.482
732.545
732.56
671.876
671.86
671.858
671.88
671.925
671.992
672.081
672.189
672.314
672.449
672.593
672.739
672.88
673.011
673.127
673.23
673.325
673.418
673.524
673.617
673.66
673.669
673.677
613.021
613.008
613.007
613.03
613.074
613.141
613.227
613.333
613.455
613.589
613.729
613.87
614.006
614.132
614.246
614.356
614.464
614.58
614.747
614.843
614.83
614.796
614.805
554.162
554.148
554.148
554.172
554.217
554.283
554.37
554.475
554.595
554.727
554.865
555.004
555.138
555.263
555.38
555.495
555.605
555.734
555.933
556.04
555.995
555.933
555.954
495.3
495.283
495.282
495.306
495.353
495.42
495.507
495.612
495.733
495.864
496.001
496.14
496.275
496.405
496.529
496.653
496.748
496.875
497.084
497.219
497.158
497.075
497.133
436.433
436.412
436.408
436.433
436.481
436.55
436.639
436.746
436.868
437
437.137
437.277
437.417
437.555
437.691
437.836
437.904
437.997
438.221
438.385
438.314
438.3
438.349
377.561
377.534
377.529
377.553
377.603
377.675
377.767
377.877
378.001
378.134
378.272
378.414
378.56
378.71
378.867
379.044
379.17
379.233
379.363
379.545
379.561
379.668
379.594
318.683
318.655
318.647
318.67
318.722
318.797
318.894
319.008
319.134
319.268
319.406
319.55
319.704
319.868
320.05
320.28
320.62
320.702
320.626
320.734
320.953
321.104
320.854
732.418
732.429
732.753
732.857
732.866
732.769
732.603
732.405
732.186
731.958
731.675
731.321
731.285
731.391
731.411
731.421
731.367
731.353
731.454
673.568
673.523
673.796
673.901
673.93
673.854
673.739
673.609
673.426
673.222
673.064
672.922
672.751
672.657
672.657
672.677
672.635
672.611
672.682
614.689
614.678
614.89
614.98
615.014
614.954
614.855
614.74
614.58
614.419
614.361
614.474
614.31
614.032
613.936
613.95
613.983
613.955
614.033
555.81
555.954
556.056
556.114
556.135
556.08
555.994
555.891
555.746
555.621
555.604
555.889
555.807
555.446
555.218
555.209
555.287
555.256
555.317
497.151
497.291
497.29
497.292
497.287
497.23
497.151
497.055
496.925
496.835
496.833
497.105
497.111
496.738
496.492
496.418
496.484
496.502
496.557
438.68
438.689
438.562
438.497
438.459
438.392
438.316
438.225
438.09
438.02
438.032
438.222
438.242
437.949
437.785
437.755
437.738
437.685
437.812
380.197
380.06
379.833
379.708
379.641
379.56
379.492
379.421
379.246
379.169
379.206
379.35
379.356
379.143
379.176
379.306
379.196
378.959
379.091
321.407
321.3
321.065
320.916
320.83
320.731
320.681
320.683
320.562
320.401
320.365
320.49
320.485
320.373
320.654
320.712
320.687
320.339
320.386
226.633
226.598
226.582
226.602
226.656
226.737
226.842
226.965
227.096
227.23
227.368
227.513
227.676
227.865
228.092
228.395
228.788
229.019
229.12
229.173
229.242
229.371
229.01
102.375
102.35
102.341
102.308
102.307
102.375
102.487
102.618
102.775
102.956
103.152
103.35
103.541
103.719
103.89
104.083
104.362
104.726
104.986
105.066
104.995
104.911
104.707
20.0093
19.9883
19.9738
19.973
19.9814
20.0085
20.0532
20.114
20.2018
20.3164
20.4506
20.5863
20.698
20.7746
20.8182
20.8482
20.9398
21.1299
21.272
21.3275
21.3045
21.2456
21.1561
-0.773225
-0.779266
-0.803835
-0.730655
-0.677396
-0.674362
-0.684469
-0.677897
-0.683444
-0.693048
-0.700709
-0.708754
-0.715019
-0.719955
-0.722425
-0.723909
-0.738601
-0.781618
-0.831976
-0.839552
-0.826236
-0.820909
-0.834426
-0.969905
-0.970194
-0.974249
-0.964423
-0.9578
-0.95469
-0.951607
-0.945648
-0.942019
-0.940753
-0.940136
-0.940027
-0.941556
-0.94404
-0.946226
-0.948338
-0.954321
-0.964364
-0.972852
-0.977184
-0.976759
-0.978115
-0.982644
-1.14264
-1.14311
-1.13945
-1.1473
-1.1514
-1.15278
-1.15303
-1.15526
-1.15591
-1.15613
-1.15611
-1.15549
-1.155
-1.155
-1.15563
-1.15714
-1.15699
-1.15301
-1.14732
-1.14679
-1.14687
-1.14551
-1.14388
-1.28171
-1.28228
-1.27994
-1.28297
-1.28112
-1.28141
-1.28184
-1.28232
-1.28248
-1.28246
-1.28229
-1.28198
-1.28175
-1.2819
-1.28231
-1.28268
-1.28304
-1.28366
-1.28358
-1.28319
-1.28355
-1.28277
-1.2799
-1.40722
-1.40749
-1.40687
-1.40783
-1.40684
-1.40708
-1.40724
-1.40756
-1.40774
-1.40792
-1.40833
-1.4091
-1.40939
-1.4095
-1.40945
-1.40892
-1.40886
-1.409
-1.409
-1.40878
-1.40883
-1.40875
-1.40773
-1.53265
-1.53281
-1.53254
-1.53298
-1.53255
-1.53267
-1.53278
-1.533
-1.53319
-1.53346
-1.53388
-1.5345
-1.53484
-1.53484
-1.53477
-1.53458
-1.53435
-1.53432
-1.53429
-1.53417
-1.53409
-1.53379
-1.53293
-1.65807
-1.65816
-1.65808
-1.65828
-1.65819
-1.65826
-1.65837
-1.65854
-1.65871
-1.65896
-1.65923
-1.65957
-1.65977
-1.6598
-1.65986
-1.65987
-1.6597
-1.65965
-1.65963
-1.65958
-1.65955
-1.65941
-1.65898
-1.78347
-1.78352
-1.78351
-1.78363
-1.78369
-1.78377
-1.78387
-1.78401
-1.78417
-1.78439
-1.78456
-1.78477
-1.78489
-1.78486
-1.78489
-1.78495
-1.78497
-1.78498
-1.78501
-1.78505
-1.78515
-1.78538
-1.78572
-1.90885
-1.90887
-1.90888
-1.90898
-1.90906
-1.90916
-1.90924
-1.90938
-1.90957
-1.90974
-1.90987
-1.91003
-1.91016
-1.91017
-1.91015
-1.91015
-1.91024
-1.91032
-1.91039
-1.9105
-1.91069
-1.91108
-1.91173
-2.03421
-2.03421
-2.03424
-2.03431
-2.03439
-2.03448
-2.03456
-2.03471
-2.03492
-2.03505
-2.03518
-2.03533
-2.03551
-2.03567
-2.03565
-2.03557
-2.03559
-2.03567
-2.03575
-2.03587
-2.03606
-2.03638
-2.03684
-2.15956
-2.15955
-2.15958
-2.15963
-2.15971
-2.15979
-2.15987
-2.16004
-2.16022
-2.16033
-2.16046
-2.16061
-2.1608
-2.16104
-2.16113
-2.16111
-2.16103
-2.16103
-2.16107
-2.16117
-2.16133
-2.16156
-2.16185
-2.2849
-2.28489
-2.28491
-2.28496
-2.28502
-2.28511
-2.28521
-2.28536
-2.2855
-2.2856
-2.28572
-2.28586
-2.28602
-2.28621
-2.2864
-2.28646
-2.28639
-2.28633
-2.28635
-2.28642
-2.28654
-2.2867
-2.28688
-2.41022
-2.4102
-2.41022
-2.41027
-2.41033
-2.41043
-2.41055
-2.41067
-2.41077
-2.41086
-2.41096
-2.41108
-2.41121
-2.41136
-2.41149
-2.41157
-2.41156
-2.41154
-2.41157
-2.41163
-2.41172
-2.41183
-2.41194
-2.53552
-2.5355
-2.53552
-2.53556
-2.53563
-2.53572
-2.53585
-2.53595
-2.53601
-2.53609
-2.53618
-2.53629
-2.5364
-2.53651
-2.53661
-2.53668
-2.53671
-2.53672
-2.53675
-2.53681
-2.53687
-2.53695
-2.53702
-2.66081
-2.66079
-2.66081
-2.66085
-2.6609
-2.66099
-2.66109
-2.66117
-2.66124
-2.66132
-2.6614
-2.66149
-2.66158
-2.66167
-2.66175
-2.66182
-2.66186
-2.66189
-2.66193
-2.66197
-2.66203
-2.66208
-2.66213
-2.78609
-2.78607
-2.78608
-2.78612
-2.78617
-2.78624
-2.78632
-2.7864
-2.78646
-2.78654
-2.78661
-2.78669
-2.78677
-2.78684
-2.78691
-2.78697
-2.78701
-2.78705
-2.78709
-2.78713
-2.78718
-2.78722
-2.78726
-2.91136
-2.91134
-2.91136
-2.91139
-2.91143
-2.91149
-2.91155
-2.91162
-2.91169
-2.91175
-2.91182
-2.91189
-2.91195
-2.91202
-2.91208
-2.91213
-2.91218
-2.91222
-2.91226
-2.9123
-2.91233
-2.91237
-2.9124
-3.03663
-3.03662
-3.03663
-3.03665
-3.03669
-3.03674
-3.03679
-3.03685
-3.03691
-3.03696
-3.03702
-3.03708
-3.03714
-3.0372
-3.03726
-3.0373
-3.03735
-3.03739
-3.03742
-3.03746
-3.03749
-3.03752
-3.03755
-3.1619
-3.16189
-3.16189
-3.16191
-3.16194
-3.16198
-3.16202
-3.16207
-3.16212
-3.16218
-3.16223
-3.16228
-3.16234
-3.16239
-3.16243
-3.16248
-3.16252
-3.16256
-3.16259
-3.16263
-3.16266
-3.16268
-3.16271
-3.28715
-3.28714
-3.28714
-3.28716
-3.28718
-3.28722
-3.28725
-3.2873
-3.28734
-3.28739
-3.28743
-3.28748
-3.28753
-3.28757
-3.28762
-3.28766
-3.2877
-3.28773
-3.28777
-3.2878
-3.28782
-3.28785
-3.28787
-3.4124
-3.41239
-3.41239
-3.4124
-3.41242
-3.41245
-3.41248
-3.41252
-3.41256
-3.4126
-3.41264
-3.41268
-3.41272
-3.41276
-3.4128
-3.41284
-3.41288
-3.41291
-3.41294
-3.41297
-3.413
-3.41302
-3.41304
-3.53764
-3.53763
-3.53764
-3.53764
-3.53766
-3.53768
-3.53771
-3.53774
-3.53777
-3.53781
-3.53784
-3.53788
-3.53792
-3.53796
-3.53799
-3.53803
-3.53806
-3.53809
-3.53812
-3.53815
-3.53817
-3.5382
-3.53822
-3.66289
-3.66288
-3.66288
-3.66288
-3.66289
-3.66291
-3.66293
-3.66295
-3.66298
-3.66301
-3.66305
-3.66308
-3.66311
-3.66315
-3.66318
-3.66321
-3.66324
-3.66327
-3.6633
-3.66333
-3.66335
-3.66337
-3.66339
-3.78813
-3.78813
-3.78812
-3.78811
-3.78812
-3.78813
-3.78815
-3.78817
-3.78819
-3.78822
-3.78825
-3.78828
-3.78831
-3.78834
-3.78837
-3.7884
-3.78843
-3.78846
-3.78848
-3.78851
-3.78853
-3.78855
-3.78857
-3.91337
-3.91337
-3.91335
-3.91334
-3.91334
-3.91335
-3.91336
-3.91338
-3.9134
-3.91343
-3.91345
-3.91348
-3.91351
-3.91353
-3.91356
-3.91359
-3.91362
-3.91364
-3.91367
-3.91369
-3.91371
-3.91373
-3.91376
-4.03859
-4.03859
-4.03857
-4.03856
-4.03855
-4.03856
-4.03857
-4.03859
-4.03861
-4.03863
-4.03865
-4.03868
-4.0387
-4.03873
-4.03875
-4.03878
-4.0388
-4.03883
-4.03885
-4.03887
-4.0389
-4.03892
-4.03894
-4.1638
-4.1638
-4.16378
-4.16377
-4.16376
-4.16377
-4.16378
-4.1638
-4.16381
-4.16383
-4.16386
-4.16388
-4.1639
-4.16392
-4.16395
-4.16397
-4.16399
-4.16401
-4.16404
-4.16406
-4.16408
-4.1641
-4.16412
-4.28901
-4.289
-4.28898
-4.28897
-4.28897
-4.28897
-4.28899
-4.289
-4.28902
-4.28904
-4.28906
-4.28908
-4.2891
-4.28912
-4.28914
-4.28916
-4.28918
-4.2892
-4.28922
-4.28924
-4.28927
-4.28929
-4.28931
-4.41422
-4.41421
-4.41419
-4.41417
-4.41417
-4.41418
-4.41419
-4.4142
-4.41422
-4.41424
-4.41426
-4.41428
-4.4143
-4.41431
-4.41433
-4.41435
-4.41437
-4.41439
-4.41441
-4.41443
-4.41445
-4.41447
-4.41449
-4.53941
-4.53942
-4.53938
-4.53937
-4.53936
-4.53937
-4.53939
-4.53941
-4.53942
-4.53944
-4.53946
-4.53948
-4.53949
-4.53951
-4.53953
-4.53955
-4.53956
-4.53958
-4.5396
-4.53962
-4.53964
-4.53966
-4.53968
-4.66463
-4.6646
-4.66457
-4.66455
-4.66455
-4.66457
-4.66459
-4.66461
-4.66463
-4.66465
-4.66466
-4.66468
-4.6647
-4.66471
-4.66473
-4.66474
-4.66476
-4.66477
-4.66479
-4.66481
-4.66483
-4.66485
-4.66487
-4.78985
-4.78978
-4.78975
-4.78973
-4.78974
-4.78977
-4.78979
-4.78982
-4.78984
-4.78985
-4.78987
-4.78988
-4.7899
-4.78991
-4.78992
-4.78994
-4.78995
-4.78996
-4.78998
-4.79
-4.79001
-4.79003
-4.79006
-4.91504
-4.91498
-4.91494
-4.91493
-4.91494
-4.91498
-4.91501
-4.91503
-4.91505
-4.91506
-4.91508
-4.91509
-4.9151
-4.91511
-4.91512
-4.91513
-4.91514
-4.91516
-4.91517
-4.91518
-4.9152
-4.91522
-4.91524
-5.04022
-5.04016
-5.04015
-5.04016
-5.04018
-5.04021
-5.04023
-5.04025
-5.04026
-5.04028
-5.04029
-5.0403
-5.04031
-5.04032
-5.04032
-5.04033
-5.04034
-5.04035
-5.04036
-5.04037
-5.04039
-5.04041
-5.04043
-5.16536
-5.16533
-5.16537
-5.1654
-5.16544
-5.16545
-5.16546
-5.16547
-5.16548
-5.16549
-5.1655
-5.16551
-5.16552
-5.16552
-5.16553
-5.16553
-5.16554
-5.16555
-5.16555
-5.16556
-5.16558
-5.1656
-5.16563
-5.29044
-5.29048
-5.29056
-5.29063
-5.29068
-5.29069
-5.29069
-5.2907
-5.29071
-5.29071
-5.29072
-5.29072
-5.29073
-5.29073
-5.29073
-5.29074
-5.29074
-5.29074
-5.29075
-5.29076
-5.29077
-5.29079
-5.29082
-5.41555
-5.41563
-5.41575
-5.41585
-5.4159
-5.41592
-5.41592
-5.41593
-5.41593
-5.41593
-5.41593
-5.41594
-5.41594
-5.41594
-5.41594
-5.41594
-5.41594
-5.41594
-5.41594
-5.41595
-5.41595
-5.41598
-5.41602
-5.54066
-5.54085
-5.54099
-5.54107
-5.54112
-5.54114
-5.54114
-5.54114
-5.54114
-5.54114
-5.54114
-5.54114
-5.54114
-5.54114
-5.54114
-5.54114
-5.54114
-5.54114
-5.54113
-5.54112
-5.54112
-5.54116
-5.54122
-5.66596
-5.66638
-5.66633
-5.66634
-5.66635
-5.66636
-5.66635
-5.66635
-5.66635
-5.66635
-5.66635
-5.66635
-5.66635
-5.66635
-5.66635
-5.66635
-5.66634
-5.66634
-5.66634
-5.66632
-5.6663
-5.66632
-5.66641
229.655
229.605
229.673
229.696
104.945
104.985
105
104.986
21.2128
21.2288
21.2345
21.2308
-0.830162
-0.821361
-0.818477
-0.822326
-0.979942
-0.977258
-0.975352
-0.978151
-1.1448
-1.14591
-1.14537
-1.14463
-1.28075
-1.28221
-1.28315
-1.28255
-1.40737
-1.4075
-1.40773
-1.40759
-1.53263
-1.5326
-1.53257
-1.5325
-1.65893
-1.65881
-1.65859
-1.65843
-1.7856
-1.78546
-1.78533
-1.78521
-1.91191
-1.91193
-1.9119
-1.91182
-2.03721
-2.0374
-2.03744
-2.03736
-2.16204
-2.16211
-2.16213
-2.16209
-2.28697
-2.28701
-2.28702
-2.287
-2.41199
-2.41201
-2.41202
-2.41201
-2.53706
-2.53707
-2.53708
-2.53708
-2.66215
-2.66216
-2.66217
-2.66217
-2.78727
-2.78728
-2.78729
-2.78729
-2.91241
-2.91242
-2.91242
-2.91243
-3.03756
-3.03756
-3.03757
-3.03758
-3.16272
-3.16272
-3.16273
-3.16273
-3.28788
-3.28789
-3.2879
-3.2879
-3.41305
-3.41306
-3.41307
-3.41307
-3.53823
-3.53824
-3.53824
-3.53825
-3.66341
-3.66341
-3.66342
-3.66343
-3.78859
-3.7886
-3.7886
-3.78861
-3.91377
-3.91378
-3.91379
-3.91379
-4.03895
-4.03896
-4.03897
-4.03898
-4.16414
-4.16415
-4.16416
-4.16416
-4.28932
-4.28933
-4.28934
-4.28935
-4.41451
-4.41452
-4.41453
-4.41454
-4.5397
-4.5397
-4.53971
-4.53972
-4.66488
-4.66489
-4.6649
-4.66491
-4.79007
-4.79008
-4.79009
-4.7901
-4.91526
-4.91527
-4.91528
-4.91529
-5.04045
-5.04046
-5.04047
-5.04048
-5.16564
-5.16565
-5.16567
-5.16568
-5.29084
-5.29085
-5.29086
-5.29087
-5.41604
-5.41605
-5.41606
-5.41606
-5.54124
-5.54125
-5.54126
-5.54126
-5.66644
-5.66644
-5.66645
-5.66645
229.521
229.328
229.127
228.985
228.909
228.878
228.877
228.98
229.182
229.205
229.135
229.122
229.091
229.02
229.028
228.984
228.921
228.631
228.665
104.92
104.973
105.017
105.071
105.134
105.207
105.233
105.259
105.413
105.474
105.376
105.261
105.155
104.997
104.779
104.71
104.727
104.755
104.862
21.2134
21.2758
21.3838
21.4984
21.5871
21.6442
21.6577
21.6056
21.5239
21.4719
21.3766
21.303
21.2131
21.1316
21.0581
21.055
21.1265
21.2764
21.3784
-0.828036
-0.793936
-0.788654
-0.791788
-0.792363
-0.792035
-0.792428
-0.79276
-0.795201
-0.799517
-0.80891
-0.824121
-0.847228
-0.815968
-0.798292
-0.794254
-0.793726
-0.799132
-0.802781
-0.981372
-0.975412
-0.972582
-0.97383
-0.974044
-0.974171
-0.974904
-0.976102
-0.97791
-0.98013
-0.984845
-0.99105
-0.994396
-0.990552
-0.988521
-0.986969
-0.985957
-0.985774
-0.985946
-1.14418
-1.14857
-1.14869
-1.14831
-1.14839
-1.14874
-1.14913
-1.14956
-1.1498
-1.1493
-1.14771
-1.14551
-1.1421
-1.1458
-1.14779
-1.14782
-1.14749
-1.14762
-1.14656
-1.2803
-1.28179
-1.28191
-1.28059
-1.27903
-1.27821
-1.27785
-1.27758
-1.27658
-1.27602
-1.27527
-1.27459
-1.27464
-1.27683
-1.27862
-1.27978
-1.28039
-1.28082
-1.28082
-1.40704
-1.40732
-1.40722
-1.40631
-1.40558
-1.4053
-1.40524
-1.40483
-1.40461
-1.40465
-1.40443
-1.40413
-1.40411
-1.40508
-1.4053
-1.4057
-1.40605
-1.40628
-1.40618
-1.53241
-1.53289
-1.53311
-1.53314
-1.53345
-1.53367
-1.53351
-1.533
-1.53311
-1.53314
-1.53297
-1.53268
-1.53238
-1.53213
-1.53148
-1.53143
-1.53155
-1.53167
-1.5316
-1.65828
-1.65861
-1.65912
-1.65983
-1.66043
-1.66046
-1.66002
-1.65972
-1.65943
-1.65912
-1.65899
-1.65873
-1.65826
-1.65766
-1.65714
-1.65695
-1.65696
-1.65703
-1.65705
-1.78499
-1.78485
-1.785
-1.78542
-1.78574
-1.78556
-1.78524
-1.78496
-1.7847
-1.78444
-1.78417
-1.78382
-1.78341
-1.78297
-1.78258
-1.78236
-1.78231
-1.78237
-1.78249
-1.91162
-1.91108
-1.9107
-1.91072
-1.9108
-1.91067
-1.91045
-1.91023
-1.91
-1.90979
-1.90961
-1.90935
-1.90891
-1.90836
-1.90798
-1.90772
-1.90762
-1.90768
-1.90792
-2.03705
-2.0365
-2.03612
-2.036
-2.03595
-2.03584
-2.03567
-2.03549
-2.0353
-2.03515
-2.03507
-2.03496
-2.03456
-2.03399
-2.03346
-2.03307
-2.03291
-2.033
-2.03334
-2.16195
-2.16163
-2.16136
-2.16123
-2.16113
-2.16102
-2.16088
-2.16073
-2.16059
-2.16047
-2.16041
-2.16038
-2.16018
-2.15974
-2.15908
-2.15859
-2.15845
-2.15852
-2.15885
-2.28693
-2.28673
-2.28654
-2.28642
-2.28632
-2.28621
-2.28609
-2.28597
-2.28587
-2.28577
-2.28571
-2.28566
-2.28559
-2.28533
-2.28493
-2.28459
-2.28453
-2.28463
-2.28493
-2.41197
-2.41184
-2.41171
-2.4116
-2.41151
-2.41141
-2.41131
-2.41122
-2.41113
-2.41106
-2.41101
-2.41096
-2.4109
-2.4108
-2.41076
-2.4108
-2.4108
-2.41082
-2.41104
-2.53706
-2.53698
-2.53688
-2.53679
-2.53671
-2.53662
-2.53654
-2.53646
-2.53639
-2.53634
-2.5363
-2.53627
-2.53624
-2.53622
-2.53627
-2.53643
-2.53646
-2.53634
-2.53646
-2.66217
-2.66212
-2.66205
-2.66198
-2.6619
-2.66183
-2.66177
-2.66171
-2.66165
-2.66161
-2.66158
-2.66156
-2.66155
-2.66156
-2.66161
-2.66168
-2.66168
-2.66164
-2.66173
-2.78729
-2.78726
-2.78722
-2.78716
-2.7871
-2.78705
-2.78699
-2.78695
-2.78691
-2.78687
-2.78685
-2.78685
-2.78685
-2.78687
-2.7869
-2.78694
-2.78695
-2.78692
-2.78699
-2.91243
-2.91241
-2.91238
-2.91234
-2.9123
-2.91225
-2.91222
-2.91218
-2.91215
-2.91213
-2.91212
-2.91212
-2.91213
-2.91216
-2.91219
-2.91222
-2.91223
-2.91223
-2.91226
-3.03758
-3.03757
-3.03755
-3.03752
-3.03749
-3.03746
-3.03743
-3.03741
-3.03739
-3.03738
-3.03738
-3.03739
-3.0374
-3.03743
-3.03747
-3.03751
-3.03754
-3.03758
-3.03758
-3.16274
-3.16274
-3.16273
-3.16271
-3.16269
-3.16267
-3.16265
-3.16263
-3.16262
-3.16262
-3.16263
-3.16264
-3.16266
-3.1627
-3.16274
-3.16279
-3.16284
-3.16289
-3.16288
-3.28791
-3.28791
-3.28791
-3.2879
-3.28788
-3.28787
-3.28786
-3.28785
-3.28785
-3.28785
-3.28787
-3.28789
-3.28791
-3.28795
-3.28799
-3.28805
-3.28811
-3.28817
-3.28817
-3.41308
-3.41309
-3.41309
-3.41308
-3.41308
-3.41307
-3.41307
-3.41307
-3.41307
-3.41308
-3.4131
-3.41312
-3.41315
-3.41319
-3.41323
-3.41328
-3.41334
-3.4134
-3.41341
-3.53826
-3.53827
-3.53827
-3.53828
-3.53828
-3.53828
-3.53828
-3.53828
-3.53829
-3.53831
-3.53833
-3.53835
-3.53838
-3.53841
-3.53845
-3.53849
-3.53853
-3.53855
-3.53854
-3.66344
-3.66345
-3.66346
-3.66347
-3.66347
-3.66348
-3.66349
-3.6635
-3.66351
-3.66353
-3.66355
-3.66357
-3.6636
-3.66363
-3.66365
-3.66368
-3.66368
-3.66367
-3.66361
-3.78862
-3.78864
-3.78865
-3.78866
-3.78867
-3.78868
-3.78869
-3.78871
-3.78872
-3.78874
-3.78876
-3.78879
-3.78882
-3.78884
-3.78886
-3.78886
-3.78884
-3.78879
-3.78869
-3.91381
-3.91382
-3.91384
-3.91385
-3.91386
-3.91388
-3.91389
-3.91391
-3.91393
-3.91395
-3.91398
-3.91401
-3.91403
-3.91405
-3.91406
-3.91406
-3.91402
-3.91397
-3.91385
-4.03899
-4.03901
-4.03903
-4.03904
-4.03906
-4.03908
-4.03909
-4.03912
-4.03914
-4.03916
-4.03919
-4.03922
-4.03925
-4.03927
-4.03928
-4.03928
-4.03925
-4.0392
-4.0391
-4.16418
-4.1642
-4.16422
-4.16423
-4.16425
-4.16427
-4.16429
-4.16432
-4.16434
-4.16437
-4.1644
-4.16443
-4.16446
-4.16449
-4.1645
-4.16451
-4.16449
-4.16445
-4.16436
-4.28936
-4.28939
-4.28941
-4.28943
-4.28945
-4.28947
-4.28949
-4.28952
-4.28954
-4.28957
-4.28961
-4.28964
-4.28967
-4.28971
-4.28973
-4.28974
-4.28973
-4.2897
-4.2896
-4.41455
-4.41457
-4.41459
-4.41462
-4.41464
-4.41466
-4.41469
-4.41471
-4.41474
-4.41478
-4.41481
-4.41485
-4.41489
-4.41492
-4.41496
-4.41498
-4.41498
-4.41494
-4.41483
-4.53974
-4.53976
-4.53978
-4.53981
-4.53983
-4.53985
-4.53988
-4.53991
-4.53994
-4.53997
-4.54001
-4.54005
-4.5401
-4.54014
-4.54018
-4.54022
-4.54023
-4.54019
-4.54006
-4.66493
-4.66495
-4.66497
-4.665
-4.66502
-4.66504
-4.66507
-4.6651
-4.66513
-4.66517
-4.66521
-4.66525
-4.6653
-4.66535
-4.6654
-4.66545
-4.66548
-4.66544
-4.66532
-4.79012
-4.79014
-4.79016
-4.79019
-4.79021
-4.79023
-4.79026
-4.79029
-4.79032
-4.79036
-4.7904
-4.79045
-4.7905
-4.79056
-4.79062
-4.79067
-4.7907
-4.79065
-4.79052
-4.91531
-4.91533
-4.91535
-4.91537
-4.9154
-4.91542
-4.91545
-4.91547
-4.91551
-4.91554
-4.91559
-4.91564
-4.9157
-4.91576
-4.91583
-4.91588
-4.9159
-4.91582
-4.91563
-5.0405
-5.04052
-5.04054
-5.04056
-5.04058
-5.0406
-5.04063
-5.04065
-5.04069
-5.04072
-5.04077
-5.04082
-5.04088
-5.04095
-5.04103
-5.0411
-5.04112
-5.04102
-5.04079
-5.16569
-5.16571
-5.16573
-5.16575
-5.16577
-5.16578
-5.16581
-5.16583
-5.16586
-5.16589
-5.16594
-5.16599
-5.16605
-5.16613
-5.16622
-5.16632
-5.16637
-5.16627
-5.16602
-5.29088
-5.2909
-5.29092
-5.29093
-5.29095
-5.29096
-5.29098
-5.291
-5.29103
-5.29106
-5.29109
-5.29114
-5.29121
-5.29129
-5.29141
-5.29155
-5.29166
-5.29158
-5.29134
-5.41608
-5.41609
-5.4161
-5.41611
-5.41612
-5.41614
-5.41615
-5.41617
-5.41619
-5.41621
-5.41624
-5.41628
-5.41634
-5.41642
-5.41655
-5.41675
-5.41699
-5.41697
-5.41677
-5.54127
-5.54128
-5.54128
-5.54129
-5.5413
-5.54131
-5.54132
-5.54133
-5.54134
-5.54136
-5.54138
-5.5414
-5.54145
-5.54151
-5.54162
-5.54187
-5.54231
-5.54246
-5.54245
-5.66645
-5.66646
-5.66646
-5.66647
-5.66647
-5.66648
-5.66648
-5.66649
-5.66649
-5.6665
-5.66651
-5.66652
-5.66654
-5.66657
-5.66663
-5.66681
-5.6673
-5.66783
-5.6683
)
;

boundaryField
{
    leftWall
    {
        type            calculated;
        value           nonuniform List<scalar> 
50
(
730.729
671.876
613.021
554.162
495.3
436.433
377.561
318.683
226.633
102.375
20.0093
-0.773225
-0.969905
-1.14264
-1.28171
-1.40722
-1.53265
-1.65807
-1.78347
-1.90885
-2.03421
-2.15956
-2.2849
-2.41022
-2.53552
-2.66081
-2.78609
-2.91136
-3.03663
-3.1619
-3.28715
-3.4124
-3.53764
-3.66289
-3.78813
-3.91337
-4.03859
-4.1638
-4.28901
-4.41422
-4.53941
-4.66463
-4.78985
-4.91504
-5.04022
-5.16536
-5.29044
-5.41555
-5.54066
-5.66596
)
;
    }
    rightWall
    {
        type            calculated;
        value           nonuniform List<scalar> 
50
(
731.454
672.682
614.033
555.317
496.557
437.812
379.091
320.386
228.665
104.862
21.3784
-0.802781
-0.985946
-1.14656
-1.28082
-1.40618
-1.5316
-1.65705
-1.78249
-1.90792
-2.03334
-2.15885
-2.28493
-2.41104
-2.53646
-2.66173
-2.78699
-2.91226
-3.03758
-3.16288
-3.28817
-3.41341
-3.53854
-3.66361
-3.78869
-3.91385
-4.0391
-4.16436
-4.2896
-4.41483
-4.54006
-4.66532
-4.79052
-4.91563
-5.04079
-5.16602
-5.29134
-5.41677
-5.54245
-5.6683
)
;
    }
    lowerWall
    {
        type            calculated;
        value           nonuniform List<scalar> 
62
(
760.158
760.139
760.136
760.157
760.203
760.273
760.365
760.475
760.601
760.74
760.888
761.039
761.188
761.327
761.446
761.543
761.617
761.685
761.725
761.733
761.901
761.974
761.987
732.56
673.677
614.805
555.954
497.133
438.349
379.594
320.854
292.248
292.198
292.266
292.29
732.418
673.568
614.689
555.81
497.151
438.68
380.197
321.407
761.842
761.847
762.172
762.276
762.288
762.198
761.994
761.718
761.496
761.267
760.885
760.531
760.646
760.782
760.802
760.811
760.757
760.743
760.845
)
;
    }
    atmosphere
    {
        type            calculated;
        value           nonuniform List<scalar> 
46
(
-5.72908
-5.72904
-5.72904
-5.72904
-5.72904
-5.72904
-5.72904
-5.72904
-5.72904
-5.72904
-5.72904
-5.72904
-5.72904
-5.72904
-5.72904
-5.72904
-5.72904
-5.72904
-5.72904
-5.72904
-5.72904
-5.72904
-5.72904
-5.72904
-5.72904
-5.72904
-5.72904
-5.72904
-5.72905
-5.72905
-5.72905
-5.72906
-5.72906
-5.72907
-5.72907
-5.72908
-5.72908
-5.72908
-5.72909
-5.72909
-5.72909
-5.72909
-5.72909
-5.72908
-5.72906
-5.73203
)
;
    }
    defaultFaces
    {
        type            empty;
    }
}


// ************************************************************************* //
