/*--------------------------------*- C++ -*----------------------------------*\
  =========                 |
  \\      /  F ield         | OpenFOAM: The Open Source CFD Toolbox
   \\    /   O peration     | Website:  https://openfoam.org
    \\  /    A nd           | Version:  9
     \\/     M anipulation  |
\*---------------------------------------------------------------------------*/
FoamFile
{
    format      ascii;
    class       volScalarField;
    location    "4.64";
    object      p_rgh;
}
// * * * * * * * * * * * * * * * * * * * * * * * * * * * * * * * * * * * * * //

dimensions      [1 -1 -2 0 0 0 0];

internalField   nonuniform List<scalar> 
2268
(
760.661
760.619
760.687
760.886
761.211
761.659
762.222
762.89
763.648
764.476
765.351
766.246
767.128
767.954
768.669
769.196
769.519
769.537
769.841
770.32
770.97
771.589
771.691
760.677
760.65
760.722
760.929
761.258
761.706
762.266
762.926
763.671
764.482
765.335
766.203
767.054
767.844
768.524
769.03
769.392
769.611
769.685
770.571
771.184
771.69
771.8
760.672
760.658
760.737
760.953
761.288
761.739
762.299
762.954
763.688
764.484
765.318
766.165
766.993
767.763
768.436
768.973
769.35
768.049
767.881
768.991
770.838
771.664
771.895
760.643
760.629
760.713
760.938
761.281
761.738
762.299
762.954
763.686
764.475
765.301
766.139
766.96
767.732
768.43
769.045
769.48
766.813
767.569
767.675
769.427
771.73
771.932
760.587
760.564
760.65
760.881
761.233
761.697
762.265
762.924
763.66
764.453
765.281
766.123
766.952
767.743
768.484
769.19
769.984
768.556
767.156
767.319
770.498
771.861
772.027
760.501
760.465
760.549
760.786
761.146
761.619
762.197
762.866
763.613
764.417
765.258
766.113
766.962
767.78
768.568
769.354
770.289
771.595
768.537
769.178
772.193
772.043
772.193
760.38
760.332
760.414
760.657
761.027
761.51
762.099
762.783
763.547
764.37
765.231
766.108
766.983
767.83
768.661
769.507
770.469
771.858
772.998
773.251
772.636
772.253
772.434
760.226
760.172
760.256
760.504
760.884
761.379
761.98
762.68
763.465
764.314
765.203
766.109
767.012
767.886
768.747
769.626
770.593
771.81
772.827
773.096
772.705
772.402
772.668
763.83
764.606
764.614
763.914
762.831
761.539
760.107
758.583
757.076
755.204
752.894
751.234
748.229
747.905
749.595
749.579
748.341
747.327
748.539
763.713
764.85
764.763
764.18
763.211
761.958
760.498
758.98
757.143
755.12
752.949
751.368
747.46
747.72
749.605
748.923
747.703
747.038
748.945
764.461
764.821
764.63
764.058
763.163
762.038
760.733
759.169
757.237
755.141
751.653
747.422
747.111
749.7
749.605
748.602
747.415
746.543
748.323
764.74
764.865
764.608
764.028
763.155
762.059
760.753
758.879
757.185
755.183
747.24
746.855
746.406
750.388
749.871
748.636
747.397
746.124
742.718
764.611
764.854
764.657
764.077
763.192
762.096
760.605
758.832
757.537
756.233
748.662
746.262
745.587
750.972
750.309
748.929
747.628
745.988
738.672
764.532
764.905
764.785
764.185
763.261
762.152
760.818
759.314
758.178
757.156
755.604
748.542
752.573
752.856
750.811
749.375
743.406
745.412
737.804
764.355
765.101
764.992
764.358
763.324
762.158
761.003
759.839
758.634
757.356
757.446
757.361
756.091
753.099
751.322
749.991
740.092
740.531
737.405
764.199
765.694
765.371
764.641
763.548
762.28
761.039
759.848
758.245
755.743
755.869
757.137
755.717
753.291
751.828
751.052
742.019
734.121
738.928
759.967
759.892
759.969
760.221
760.616
761.126
761.747
762.477
763.307
764.211
765.158
766.12
767.076
767.983
768.869
769.769
770.715
771.716
772.518
772.836
772.693
772.419
772.232
742.815
741.916
741.933
742.327
743.456
744.944
746.796
749.132
751.85
754.867
758.102
760.747
763.106
763.691
764.228
765.021
766.192
767.58
768.66
769.033
768.646
767.833
766.866
275.872
273.959
273.319
274.204
275.537
277.736
280.882
284.81
289.772
294.901
300.403
307.163
315.538
324.966
335.012
345.035
355.521
364.793
371.621
374.479
372.946
369.055
364.48
2.434
2.36262
2.34796
2.43439
3.00661
3.63124
3.9393
3.57201
3.21014
2.94586
2.81081
2.52806
1.6121
1.56848
1.51669
1.44513
1.25417
1.13489
1.0653
0.990751
0.971781
0.942596
0.844876
2.38747
2.35867
2.19566
2.20011
2.83885
3.50007
5.02673
6.94291
6.97575
6.99491
7.02042
7.02674
7.02045
7.00551
6.98383
6.94754
3.80608
2.98274
2.79242
2.74274
3.40202
3.37419
2.05743
2.0001
2.23548
2.12826
2.0971
2.32945
2.56142
2.99424
2.22995
2.4854
2.80469
3.01015
3.14827
2.98195
2.79129
2.41491
2.27672
3.34841
3.28922
3.20381
2.15074
1.38661
1.45695
0.596096
1.03351
0.99925
0.952395
0.968299
0.824934
0.52669
0.216808
0.154159
0.0305952
0.00346555
-0.000691724
-0.00326647
-0.00289944
-0.00128117
0.00288469
0.00608016
0.202101
0.22084
0.237784
0.388654
0.272983
0.307505
0.485758
0.0093732
0.0092319
0.0104436
0.00976641
0.00889091
0.0212237
0.032854
0.0144089
0.00572195
0.00321204
0.00108722
-7.81713e-05
0.00125939
0.00321888
0.00187268
0.0023306
0.00229956
0.238734
0.375008
0.372
0.264472
0.315498
0.650345
0.00820675
0.00835827
0.00895866
0.00877507
0.00810746
0.00735279
0.0064648
0.00595146
0.00497133
0.00334691
0.00177541
0.0033615
0.0071156
0.00700607
0.000609419
0.000215904
-0.000482943
0.0310274
0.173306
0.25957
0.260303
0.317555
0.436677
0.00728582
0.00772425
0.00795878
0.00757919
0.00702417
0.00649329
0.00589038
0.00531339
0.00446499
0.00328556
0.00322957
0.00511138
0.00639215
0.00307968
-0.000280302
-0.000937699
-0.00232586
-0.00515896
-0.00792622
-0.00865511
0.0231963
-0.00282965
-0.011744
0.00644483
0.00681394
0.00690098
0.00646202
0.00603033
0.00561286
0.00512714
0.00459146
0.00565878
0.00690475
0.0058898
0.00319923
0.000289127
-0.000306714
-0.000773984
-0.00155566
-0.00282787
-0.00455134
-0.00609174
-0.00669805
-0.00728794
-0.00787963
-0.00868722
0.00568595
0.00573111
0.00568041
0.0054562
0.00514964
0.00479113
0.00436832
0.00499132
0.00754281
0.00677056
0.00473197
0.000969608
0.000267253
-0.000325414
-0.000933067
-0.00169215
-0.00270748
-0.00388979
0.000273591
0.00571348
0.00585839
0.000205471
-0.00623358
0.00503331
0.00497083
0.00483903
0.00463398
0.00437326
0.00406141
0.00369756
0.00420581
0.00465244
0.0034663
0.00157342
0.00080522
0.000216579
-0.000376506
-0.00099764
-0.00170983
-0.00256163
-0.00313751
0.0056361
0.00846275
0.00807014
0.00781952
-0.00193482
0.00461437
0.00463211
0.0041701
0.00393611
0.00369672
0.003427
0.003111
0.00274201
0.0021988
0.00169604
0.00118311
0.000657789
0.000120861
-0.000436212
-0.00102306
-0.00167273
-0.00240454
-0.00321716
-0.00345946
0.0043129
0.00909628
0.00232432
-0.00505508
0.0043333
0.00434787
0.00361401
0.00333521
0.00311166
0.00286183
0.00256943
0.00221823
0.00182705
0.00140406
0.000960191
0.000498265
1.683e-05
-0.000485745
-0.00101827
-0.00159317
-0.00221411
-0.00287223
-0.00353701
-0.0041298
-0.00449161
-0.004543
-0.00428686
0.00403177
0.00390265
0.00312011
0.0028191
0.00260614
0.00237666
0.00211819
0.0018245
0.0014949
0.00113578
0.00075337
0.000350276
-7.31459e-05
-0.000517648
-0.000986524
-0.00148227
-0.00200053
-0.0025276
-0.00303511
-0.00346182
-0.00373165
-0.00380979
-0.00371418
0.00369815
0.00352392
0.00265326
0.00237491
0.00217059
0.00196228
0.00173605
0.00148426
0.00120412
0.000898021
0.000569323
0.000220233
-0.000147941
-0.000534448
-0.000939161
-0.00135988
-0.00178896
-0.00221165
-0.00260412
-0.0029274
-0.00313848
-0.00321697
-0.00317692
0.00363734
0.00319233
0.00230285
0.00199007
0.00179414
0.00160444
0.00140507
0.00118741
0.000947656
0.000686014
0.000404223
0.000103976
-0.000213098
-0.000545196
-0.000890163
-0.00124402
-0.00159808
-0.00193878
-0.0022471
-0.00249769
-0.00266479
-0.00273554
-0.00271604
0.00336569
0.00296933
0.00202212
0.00165625
0.00146984
0.00129667
0.00111983
0.000930288
0.000723749
0.000499457
0.000258239
1.2779e-06
-0.000269863
-0.000552911
-0.000844746
-0.00114047
-0.00143192
-0.00170748
-0.00195234
-0.00214914
-0.00228187
-0.00234222
-0.00233259
0.00311272
0.00271429
0.00171766
0.00136905
0.0011937
0.0010359
0.000878827
0.000713437
0.000535207
0.000342867
0.000136715
-8.24328e-05
-0.000313189
-0.000553167
-0.000798868
-0.00104525
-0.00128503
-0.00150863
-0.00170469
-0.00186103
-0.0019672
-0.00201759
-0.00201302
0.0026393
0.00244931
0.00134101
0.0011252
0.000961714
0.000817985
0.000678646
0.000534726
0.000381492
0.000217189
4.16587e-05
-0.000144561
-0.000340233
-0.000543027
-0.000749412
-0.000954571
-0.00115219
-0.00133455
-0.00149297
-0.0016187
-0.0017046
-0.00174668
-0.00174499
0.00183262
0.00164653
0.00112548
0.000921666
0.000769249
0.000638028
0.000514226
0.000389183
0.000257951
0.00011825
-3.05629e-05
-0.000188219
-0.000353618
-0.000524557
-0.000697674
-0.000868558
-0.00103182
-0.00118127
-0.00131026
-0.00141233
-0.0014824
-0.00151745
-0.00151715
0.00156046
0.00121174
0.000944181
0.000753845
0.000612305
0.000492616
0.000382275
0.000273308
0.00016079
4.20614e-05
-8.39329e-05
-0.000217168
-0.000356683
-0.000500455
-0.000645417
-0.000787659
-0.000922643
-0.00104541
-0.00115081
-0.00123402
-0.00129126
-0.0013202
-0.00132045
0.00134235
0.00103037
0.000789701
0.000617201
0.000488403
0.0003802
0.000281918
0.000186525
8.94883e-05
-1.19133e-05
-0.000118936
-0.000231704
-0.000349384
-0.000470175
-0.000591391
-0.000709688
-0.000821318
-0.000922328
-0.00100874
-0.0010769
-0.00112399
-0.00114824
-0.00114937
0.00113432
0.000864855
0.000658509
0.000509053
0.000395317
0.00029931
0.000212343
0.000128686
4.44756e-05
-4.27581e-05
-0.000134232
-0.000230098
-0.000329624
-0.00043126
-0.00053275
-0.000631351
-0.000724051
-0.000807755
-0.000879412
-0.000936253
-0.00097618
-0.000997908
-0.00100129
0.00093735
0.00071551
0.000549949
0.000427648
0.00033068
0.000247001
0.000170672
9.74034e-05
2.40202e-05
-5.15205e-05
-0.000130243
-0.000212247
-0.000296882
-0.000382859
-0.000468369
-0.000551253
-0.000629169
-0.000699742
-0.000760648
-0.000809792
-0.00084559
-0.000867093
-0.00087422
0.000753791
0.000582703
0.000466298
0.000373487
0.000291628
0.000218642
0.00015186
8.77688e-05
2.36536e-05
-4.21287e-05
-0.000110347
-0.000181027
-0.000253594
-0.000327016
-0.000399903
-0.00047062
-0.000537402
-0.000598446
-0.000651977
-0.000696372
-0.000730383
-0.00075324
-0.000764813
0.000587567
0.000545404
0.000996444
0.000543437
0.000272886
0.00020794
0.000149797
9.39726e-05
3.79068e-05
-1.9657e-05
-7.92049e-05
-0.000140668
-0.000203537
-0.000267012
-0.000330062
-0.000391491
-0.000449993
-0.000504205
-0.000552735
-0.000594269
-0.000627753
-0.000652486
-0.000668226
0.000437004
0.00119788
0.0037229
0.0034604
0.000589152
0.000207231
0.000158768
0.000111175
6.24309e-05
1.19218e-05
-4.04359e-05
-9.43991e-05
-0.000149481
-0.000205063
-0.000260407
-0.000314666
-0.000366888
-0.000416061
-0.000461018
-0.000500669
-0.000534047
-0.000560477
-0.000579623
0.000301183
0.00139373
0.00377832
0.00376682
0.0014063
0.000212521
0.000176243
0.00013712
9.5148e-05
5.07337e-05
4.35652e-06
-4.34709e-05
-9.2236e-05
-0.000141462
-0.000190647
-0.000239223
-0.000286515
-0.000331901
-0.000374183
-0.00041255
-0.000446022
-0.000473947
-0.000495946
0.000189059
0.000908572
0.00384491
0.00384681
0.00128722
0.000228184
0.000203527
0.000171917
0.000135685
9.63174e-05
5.48601e-05
1.20922e-05
-3.14564e-05
-7.54407e-05
-0.000119579
-0.000163584
-0.00020707
-0.000249511
-0.000290093
-0.000327912
-0.00036202
-0.00039173
-0.000416641
0.000102122
0.000274267
0.00267541
0.00208987
0.000516811
0.00026002
0.000242302
0.000215693
0.000183544
0.000148011
0.000110518
7.19852e-05
3.28823e-05
-6.61671e-06
-4.64928e-05
-8.67701e-05
-0.000127366
-0.000167977
-0.000207972
-0.000246401
-0.000282192
-0.000314557
-0.000343039
4.36355e-05
0.000183636
0.000308062
0.00029675
0.000308822
0.000306948
0.000291007
0.000266401
0.000236523
0.000203683
0.000169417
0.000134597
9.95294e-05
6.41329e-05
2.80775e-05
-9.05522e-06
-4.7565e-05
-8.74489e-05
-0.000128223
-0.000168786
-0.000207722
-0.000243987
-0.000276978
1.4094e-05
0.000198944
0.00031285
0.000356399
0.000366864
0.000361022
0.000343874
0.000319293
0.000290443
0.000259597
0.000228221
0.000197011
0.000166024
0.000134821
0.000102613
6.84618e-05
3.1551e-05
-8.55335e-06
-5.15635e-05
-9.60126e-05
-0.000139759
-0.000181244
-0.000219604
1.43993e-05
0.000234886
0.000370434
0.000417335
0.000423553
0.000413457
0.000393929
0.000368518
0.00034023
0.000311274
0.000282971
0.000255796
0.000229494
0.000203178
0.000175479
0.000144786
0.000109559
6.86597e-05
2.19542e-05
-2.83674e-05
-7.87068e-05
-0.000126619
-0.000170901
4.77794e-05
0.000291783
0.000433505
0.000473824
0.000472504
0.000457347
0.000434976
0.000408591
0.000381071
0.000354518
0.000330072
0.000307966
0.000287585
0.000267542
0.000245801
0.000219914
0.000187327
0.000145661
9.36694e-05
3.48729e-05
-2.41623e-05
-7.95972e-05
-0.000129967
0.000133878
0.000378585
0.000499304
0.000519648
0.000507312
0.000486484
0.000461407
0.000434638
0.000408852
0.000385939
0.000366806
0.00035141
0.00033879
0.000327093
0.000313628
0.000295032
0.000267407
0.000226067
0.000166672
9.52255e-05
2.45728e-05
-3.94866e-05
-9.56923e-05
0.000287628
0.000502498
0.000558362
0.00054376
0.000519285
0.000493786
0.000467219
0.000441667
0.000419494
0.000402207
0.000390376
0.000383684
0.000380944
0.000380041
0.000377883
0.000370421
0.000352348
0.000314792
0.000244804
0.000153596
6.72775e-05
-6.33966e-06
-6.7469e-05
0.000514255
0.000646832
0.000583186
0.00052897
0.000497441
0.00047065
0.000445435
0.000424107
0.000408499
0.000399465
0.000397137
0.000401012
0.000409928
0.000421952
0.000434186
0.000442639
0.000441455
0.000415848
0.000329902
0.00020638
9.97283e-05
1.72647e-05
-4.60252e-05
0.000700242
0.000690886
0.000523058
0.000455494
0.000431955
0.000412396
0.000395948
0.000385866
0.000382977
0.000387222
0.000398334
0.000415859
0.000439067
0.000466774
0.000496931
0.000526609
0.000551552
0.000551836
0.000438594
0.000246265
0.000110135
2.3925e-05
-3.44867e-05
0.00098574
0.000654038
0.000414215
0.000339884
0.00033315
0.000336199
0.000346351
0.000364223
0.000388431
0.00041806
0.00045292
0.000493209
0.000539294
0.000591331
0.000648647
0.000712193
0.000788804
0.00085037
0.000690911
0.00028931
9.1718e-05
9.32944e-06
-3.47202e-05
0.000765606
-0.000192514
1.59692e-05
9.2217e-05
0.000159957
0.000216339
0.000267797
0.000318228
0.000368716
0.000420118
0.000473686
0.000531129
0.000594768
0.000667504
0.000753666
0.000872129
0.00109741
0.00149366
0.00125382
0.000380842
9.88976e-05
1.38929e-05
-2.03438e-05
772.347
772.003
771.523
770.847
766.218
765.73
765.002
763.607
360.84
358.228
354.822
349.43
0.868832
0.889664
0.886639
0.86759
1.8356
2.74368
2.73538
1.90184
0.854374
2.4548
1.83009
1.40489
0.571836
0.875035
1.01663
0.632427
0.962215
0.85683
0.528979
0.119097
0.395538
0.0487578
0.028034
-0.000858602
-0.0107998
-0.00889737
-0.00723797
-0.00375903
-0.00809737
-0.00722262
-0.00625344
-0.00578042
-0.00654016
-0.00616247
-0.00569307
-0.00521319
-0.00551765
-0.00526153
-0.00496928
-0.00459927
-0.00477232
-0.0045722
-0.00435546
-0.00409117
-0.00395953
-0.00382553
-0.00385295
-0.00367245
-0.00350477
-0.00341278
-0.00334693
-0.0032177
-0.00307851
-0.00300258
-0.00290863
-0.0028046
-0.0026448
-0.00258857
-0.00252252
-0.00244614
-0.00227915
-0.00223631
-0.0021862
-0.00212762
-0.00197217
-0.00193882
-0.00189993
-0.00185401
-0.00171326
-0.00168688
-0.00165616
-0.0016196
-0.00149193
-0.00147096
-0.00144672
-0.0014178
-0.00130023
-0.00128397
-0.00126545
-0.00124337
-0.00113395
-0.00112221
-0.00110903
-0.00109319
-0.000991237
-0.000983871
-0.000975509
-0.000965077
-0.000869916
-0.000866504
-0.000862212
-0.000856152
-0.000765913
-0.000765809
-0.000764787
-0.000762175
-0.000673775
-0.000676374
-0.000678053
-0.000678365
-0.000588603
-0.000593555
-0.000597732
-0.000600877
-0.000507765
-0.000515007
-0.000521743
-0.000527862
-0.000431286
-0.000440907
-0.00045031
-0.000459492
-0.000360884
-0.000372948
-0.000384989
-0.000397082
-0.000298457
-0.0003129
-0.000327345
-0.000341932
-0.000244956
-0.000261567
-0.000278016
-0.000294504
-0.00020006
-0.000218512
-0.000236471
-0.000254199
-0.000162556
-0.000182427
-0.000201353
-0.000219654
-0.00013104
-0.000151789
-0.000171061
-0.000189241
-0.000104517
-0.00012539
-0.000144224
-0.000161493
-8.27323e-05
-0.000102545
-0.00011987
-0.000135251
-6.64716e-05
-8.30388e-05
-9.72289e-05
-0.000109537
-5.83059e-05
-6.90674e-05
-7.75203e-05
-8.45283e-05
-3.51206e-05
-4.1334e-05
-4.58914e-05
-4.93688e-05
767.282
767.121
766.186
765.226
760.458
755.443
753.124
752.665
753.858
756.072
757.314
756.642
755.333
753.529
752.521
751.684
743.21
735.027
744.483
758.914
756.876
752.215
747.519
744.021
739.352
731.116
721.509
716.017
717.651
721.922
723.636
718.097
704.795
696.497
703.416
727.133
739.641
743.756
336.331
331.441
332.044
333.64
335.473
337.066
338.52
336.586
327.499
312.613
297.833
286.24
279.374
276.922
273.909
267.961
261.687
258.798
254.7
0.830943
0.841049
0.825285
0.798962
0.86292
0.947149
0.923281
0.89406
0.89605
0.94376
1.22669
1.51445
1.52708
1.55165
2.012
1.54003
1.00346
0.94986
0.976225
0.984247
1.01145
1.036
0.970866
1.35721
2.24496
1.98214
1.7214
1.63677
1.57609
1.50147
1.49482
1.4913
1.49265
1.96247
1.34788
0.983072
0.969991
0.971985
1.18586
1.47089
1.44969
0.991585
1.82661
2.32579
2.32056
2.32125
2.32053
2.32162
2.32039
2.25919
2.18664
2.20864
2.20752
2.0516
1.78366
1.48548
1.47176
1.36356
1.47774
1.47319
1.47557
1.37801
0.797817
0.533127
0.557163
0.516028
0.483021
0.463799
0.46437
0.467944
0.440706
0.46468
0.712549
0.938272
0.901724
1.04196
0.45887
0.575746
0.505596
0.564996
0.155828
0.00821929
0.0114653
0.0142195
0.0181167
0.0223381
0.0257439
0.0280334
0.0292869
0.0300954
0.0274539
0.135892
0.0359366
0.0390684
0.0910299
-0.00457597
-0.00763638
-0.00709027
-0.00515234
0.000239735
0.00549365
0.00959011
0.013199
0.0193561
0.0503495
0.0891017
0.0923572
0.0737195
0.0349501
0.023355
0.0209251
0.0211238
0.0212144
0.0197458
-0.00521937
-0.00568504
-0.00477529
-0.00253485
0.00113921
0.00501226
0.00810176
0.0114781
0.0579219
0.130087
0.130614
0.131616
0.0698477
0.0219503
0.0218931
0.0207698
0.0203178
0.0199082
0.0190466
-0.00499588
-0.00455654
-0.00335507
0.000598313
0.0123885
0.0152721
0.0079359
0.0249887
0.125496
0.132568
0.0942221
0.0356796
0.0435714
0.0706687
0.0650128
0.050197
0.0349705
0.0211093
0.0180915
-0.00447381
-0.00382802
-0.00215147
0.0243447
0.0425285
0.0382406
0.0127585
0.069418
0.127978
0.0830195
0.0133789
0.0397935
0.0962312
0.097309
0.097705
0.098193
0.098869
0.0735517
0.0300275
-0.00401617
-0.00343532
0.00197082
0.0413409
0.0437057
0.0449171
0.042024
0.0250754
0.0247526
0.00236718
0.0116595
0.0893609
0.0971274
0.0975245
0.0460867
0.0285722
0.0288068
0.0361109
0.0418934
-0.00365763
-0.00317628
-0.00230415
0.0231271
0.04494
0.0280045
0.00286106
0.000625108
0.000832806
0.00191208
0.00397769
0.0343594
0.0569207
0.0120408
0.00695438
0.00834636
0.00939277
0.0166912
0.0409318
-0.0032929
-0.00278945
-0.0023843
-0.00153663
0.000580181
0.000102215
-0.000341042
0.000327199
0.000841689
0.00179698
0.00324312
0.00301398
0.00310426
0.00453398
0.00590819
0.00690074
0.00861056
0.0354311
0.0461256
-0.00291016
-0.00250297
-0.00222443
-0.00206501
-0.00169612
-0.00111826
-0.000369935
0.000237572
0.000765628
0.00140602
0.00199101
0.00234656
0.0029706
0.00390324
0.00478
0.00531422
0.00615473
0.0313282
0.0455957
-0.00261757
-0.00235961
-0.0019599
-0.00112846
-0.000700191
-0.000663399
-0.000344103
0.000177429
0.00066191
0.00117382
0.00165873
0.00207916
0.00257477
0.00320685
0.00370819
0.00387715
0.0035472
0.00500269
0.0454905
-0.00230018
-0.00208027
-0.00176993
-0.000892341
-0.000437188
2.5616e-06
0.000308464
0.00017876
0.000546818
0.000978052
0.00139083
0.00176275
0.00215122
0.00255624
0.00281399
0.00277489
0.00233825
0.00143333
0.0231957
-0.00201222
-0.0018256
-0.00161312
-0.00130712
-0.000622972
9.47836e-05
0.000427523
0.000267613
0.000441683
0.000871718
0.00131398
0.00155603
0.00177198
0.00200517
0.00213123
0.00202139
0.00162723
0.00104435
0.000818866
-0.0017613
-0.00160247
-0.00141506
-0.0012001
-0.000940185
-0.000596338
-0.000251501
2.56463e-05
0.000408642
0.000860412
0.00114401
0.00140292
0.00148193
0.00155857
0.001633
0.00154528
0.00128257
0.000986076
0.00097814
-0.00154458
-0.00140985
-0.00124745
-0.00105968
-0.00084388
-0.000601116
-0.000340457
-7.48581e-05
0.000188788
0.000496018
0.000810342
0.00100902
0.00108754
0.00120517
0.00127231
0.00124497
0.00112836
0.00102006
0.0010902
-0.00135781
-0.00124506
-0.00110739
-0.0009477
-0.000766576
-0.000566428
-0.000353891
-0.00013775
7.39961e-05
0.000276496
0.000466346
0.000640498
0.000794875
0.000920463
0.00100736
0.00105478
0.001081
0.001111
0.00121078
-0.0011969
-0.00110477
-0.000990964
-0.000858525
-0.000709425
-0.000546534
-0.000374947
-0.000200905
-3.01199e-05
0.000133611
0.000287897
0.00043141
0.00056378
0.000685056
0.000799664
0.000925337
0.00109295
0.00126278
0.00139833
-0.00105879
-0.000985792
-0.000894285
-0.000787197
-0.000667046
-0.000536788
-0.000400563
-0.000263026
-0.000128306
8.77597e-07
0.000123368
0.000239807
0.000353411
0.000470976
0.000607301
0.000795584
0.00108654
0.0015321
0.00292676
-0.000940883
-0.000885101
-0.000813705
-0.000729503
-0.000635186
-0.000533641
-0.000428382
-0.000323046
-0.000220682
-0.000123134
-3.05929e-05
5.88336e-05
0.000150492
0.000254173
0.0003888
0.000591595
0.000921356
0.00257691
0.0374073
-0.000840186
-0.000799391
-0.000745716
-0.000681842
-0.000610464
-0.000534334
-0.000456531
-0.000380027
-0.000307186
-0.000239309
-0.000176157
-0.000115391
-5.17238e-05
2.40173e-05
0.000127938
0.000289956
0.000548168
0.00287678
0.0505266
-0.0007529
-0.000725041
-0.000686921
-0.000641078
-0.000590118
-0.000536636
-0.000483389
-0.000432938
-0.00038726
-0.000347432
-0.000313226
-0.000282674
-0.000251601
-0.000213227
-0.000156782
-6.5279e-05
7.09909e-05
0.000612472
0.051563
-0.000675023
-0.000658582
-0.00063432
-0.000604608
-0.00057192
-0.000538708
-0.000507508
-0.000480636
-0.00045991
-0.000446416
-0.000440201
-0.000439984
-0.000442925
-0.000444586
-0.000438993
-0.000419668
-0.000383782
-0.00034452
0.0527296
-0.000603378
-0.0005974
-0.000585727
-0.000570563
-0.000554271
-0.000539175
-0.000527691
-0.000522027
-0.000523993
-0.000534815
-0.0005549
-0.000583625
-0.000619177
-0.000658607
-0.000698611
-0.000737085
-0.000764672
-0.000725661
0.0504589
-0.000536345
-0.000540184
-0.000540026
-0.000537948
-0.000536244
-0.000537174
-0.000543105
-0.000556249
-0.000578503
-0.000611291
-0.000655349
-0.000710496
-0.000775403
-0.00084744
-0.000923436
-0.00100028
-0.00105612
-0.000981033
0.0352775
-0.000473867
-0.000486835
-0.000497035
-0.000506493
-0.000517487
-0.000532275
-0.000553249
-0.0005827
-0.000622678
-0.000674823
-0.000740124
-0.000818612
-0.000908941
-0.00100794
-0.00111123
-0.00121348
-0.00128304
-0.00116616
0.0373519
-0.000416796
-0.000437899
-0.00045704
-0.000476267
-0.000497891
-0.000524227
-0.000557746
-0.000600879
-0.000655875
-0.0007246
-0.000808235
-0.000906821
-0.00101858
-0.00113916
-0.00126222
-0.00137999
-0.00145611
-0.00132646
0.0382783
-0.000365998
-0.000393861
-0.000420223
-0.000447213
-0.000477215
-0.00051264
-0.000556079
-0.00061015
-0.000677347
-0.000759799
-0.000858867
-0.000974446
-0.00110386
-0.00124043
-0.00137303
-0.00148456
-0.00152401
-0.00133165
0.00782461
-0.000321677
-0.000354615
-0.000386245
-0.000418815
-0.000454809
-0.000496752
-0.000547387
-0.000609555
-0.000686065
-0.000779415
-0.000891277
-0.00102151
-0.00116646
-0.00131633
-0.00145224
-0.0015392
-0.00149582
-0.00116202
-0.000522414
-0.000283159
-0.000319309
-0.000354129
-0.000390015
-0.000429556
-0.000475395
-0.000530431
-0.000597767
-0.000680615
-0.000782045
-0.000904413
-0.00104819
-0.00120971
-0.00137733
-0.00152573
-0.00160303
-0.00149787
-0.00105449
0.0106066
-0.00024909
-0.000286518
-0.000322427
-0.00035937
-0.000400032
-0.000447145
-0.000503738
-0.000573184
-0.000659184
-0.000765621
-0.000896086
-0.00105282
-0.00123422
-0.00142998
-0.00161367
-0.00172496
-0.00163097
-0.00115393
0.0205341
-0.000217832
-0.00025458
-0.000289523
-0.000325351
-0.000364794
-0.000410604
-0.000465869
-0.000534172
-0.000619714
-0.000727361
-0.000862465
-0.0010304
-0.00123417
-0.00146937
-0.00171561
-0.00191281
-0.00191008
-0.00145022
0.0207986
-0.000187828
-0.000221917
-0.000253934
-0.00028663
-0.000322677
-0.000364715
-0.000415749
-0.00047942
-0.000560283
-0.000664131
-0.000798374
-0.000972467
-0.00119649
-0.00147753
-0.00181093
-0.00215203
-0.00232992
-0.00192045
0.019914
-0.000157804
-0.000187206
-0.000214465
-0.000242224
-0.000272915
-0.000308876
-0.000352806
-0.000408118
-0.000479355
-0.000572801
-0.000697525
-0.000866982
-0.0010996
-0.00141916
-0.00185227
-0.00240364
-0.00290718
-0.00259413
0.0175608
-0.000126803
-0.000149387
-0.000170163
-0.000191375
-0.000214959
-0.000242703
-0.000276707
-0.000319731
-0.00037566
-0.000450278
-0.000552827
-0.000698501
-0.000911565
-0.00123282
-0.00173118
-0.00249706
-0.00360149
-0.00357241
0.0167834
-9.38167e-05
-0.000107545
-0.000120565
-0.00013411
-0.000149316
-0.000167188
-0.000188929
-0.000216184
-0.000251378
-0.000298375
-0.000363873
-0.000460133
-0.000609602
-0.000856596
-0.00128825
-0.00222474
-0.00415597
-0.0049537
0.0149236
-5.35936e-05
-6.05916e-05
-6.7557e-05
-7.49273e-05
-8.29967e-05
-9.19906e-05
-0.000102194
-0.000114015
-0.000128109
-0.000145653
-0.000169098
-0.000204135
-0.000264363
-0.000382261
-0.000630273
-0.00134155
-0.00361998
-0.00673177
0.00463655
)
;

boundaryField
{
    leftWall
    {
        type            fixedFluxPressure;
        gradient        uniform 0;
        value           nonuniform List<scalar> 
50
(
760.661
760.677
760.672
760.643
760.587
760.501
760.38
760.226
759.967
742.815
275.872
2.434
2.38747
2.0001
1.03351
0.0093732
0.00820675
0.00728582
0.00644483
0.00568595
0.00503331
0.00461437
0.0043333
0.00403177
0.00369815
0.00363734
0.00336569
0.00311272
0.0026393
0.00183262
0.00156046
0.00134235
0.00113432
0.00093735
0.000753791
0.000587567
0.000437004
0.000301183
0.000189059
0.000102122
4.36355e-05
1.4094e-05
1.43993e-05
4.77794e-05
0.000133878
0.000287628
0.000514255
0.000700242
0.00098574
0.000765606
)
;
    }
    rightWall
    {
        type            fixedFluxPressure;
        gradient        uniform 0;
        value           nonuniform List<scalar> 
50
(
748.539
748.945
748.323
742.718
738.672
737.804
737.405
738.928
744.483
743.756
254.7
0.976225
0.971985
1.47176
1.04196
0.0910299
0.0197458
0.0190466
0.0180915
0.0300275
0.0418934
0.0409318
0.0461256
0.0455957
0.0454905
0.0231957
0.000818866
0.00097814
0.0010902
0.00121078
0.00139833
0.00292676
0.0374073
0.0505266
0.051563
0.0527296
0.0504589
0.0352775
0.0373519
0.0382783
0.00782461
-0.000522414
0.0106066
0.0205341
0.0207986
0.019914
0.0175608
0.0167834
0.0149236
0.00463655
)
;
    }
    lowerWall
    {
        type            fixedFluxPressure;
        gradient        uniform 0;
        value           nonuniform List<scalar> 
62
(
760.661
760.619
760.687
760.886
761.211
761.659
762.222
762.89
763.648
764.476
765.351
766.246
767.128
767.954
768.669
769.196
769.519
769.537
769.841
770.32
770.97
771.589
771.691
771.691
771.8
771.895
771.932
772.027
772.193
772.434
772.668
772.347
772.003
771.523
770.847
763.83
763.713
764.461
764.74
764.611
764.532
764.355
764.199
763.83
764.606
764.614
763.914
762.831
761.539
760.107
758.583
757.076
755.204
752.894
751.234
748.229
747.905
749.595
749.579
748.341
747.327
748.539
)
;
    }
    atmosphere
    {
        type            totalPressure;
        rho             rho;
        psi             none;
        gamma           1;
        p0              uniform 0;
        value           nonuniform List<scalar> 
46
(
-0.000141275
0
0
0
0
0
0
0
0
0
0
0
0
0
0
0
0
0
-5.94386e-08
-1.14787e-06
-3.73523e-06
-7.52254e-06
-1.21206e-05
-1.58063e-05
-1.83087e-05
-2.0877e-05
-2.35003e-05
-2.80537e-05
-3.45264e-05
-4.11209e-05
-4.77941e-05
-5.45245e-05
-6.12995e-05
-6.80998e-05
-7.48821e-05
-8.15568e-05
-8.79618e-05
-9.38288e-05
-9.87331e-05
-0.000102
-0.000102495
-9.80879e-05
-8.4218e-05
-5.17013e-05
-3.18759e-07
0
)
;
    }
    defaultFaces
    {
        type            empty;
    }
}


// ************************************************************************* //
