# vtk DataFile Version 2.0
track0
ASCII
DATASET POLYDATA
POINTS 12069 float
-0.0205 0.001 1e-05
-0.02052 0.000999985 1e-05
-0.02054 0.000999974 1e-05
-0.02056 0.000999965 1e-05
-0.02058 0.000999959 1e-05
-0.0206 0.000999956 1e-05
-0.0205 0.00367778 1e-05
-0.02052 0.00367778 1e-05
-0.02054 0.00367777 1e-05
-0.02056 0.00367777 1e-05
-0.02058 0.00367777 1e-05
-0.0206 0.00367777 1e-05
-0.0205 0.00635556 1e-05
-0.02052 0.00635555 1e-05
-0.02054 0.00635555 1e-05
-0.02056 0.00635555 1e-05
-0.02058 0.00635555 1e-05
-0.0206 0.00635555 1e-05
-0.0205 0.00903333 1e-05
-0.02052 0.00903333 1e-05
-0.02054 0.00903333 1e-05
-0.02056 0.00903333 1e-05
-0.02058 0.00903333 1e-05
-0.0206 0.00903333 1e-05
-0.0205 0.0117111 1e-05
-0.02052 0.0117111 1e-05
-0.02054 0.0117111 1e-05
-0.02056 0.0117111 1e-05
-0.02058 0.0117111 1e-05
-0.0206 0.0117111 1e-05
-0.0205 0.0143889 1e-05
-0.02052 0.0143889 1e-05
-0.02054 0.0143889 1e-05
-0.02056 0.0143889 1e-05
-0.02058 0.0143889 1e-05
-0.0206 0.0143889 1e-05
-0.0205 0.0170667 1e-05
-0.02052 0.0170667 1e-05
-0.02054 0.0170667 1e-05
-0.02056 0.0170667 1e-05
-0.02058 0.0170667 1e-05
-0.0206 0.0170667 1e-05
-0.0205 0.0197444 1e-05
-0.02052 0.0197444 1e-05
-0.02054 0.0197444 1e-05
-0.02056 0.0197444 1e-05
-0.02058 0.0197444 1e-05
-0.0206 0.0197444 1e-05
-0.0205 0.0224222 1e-05
-0.02052 0.0224222 1e-05
-0.02054 0.0224222 1e-05
-0.02056 0.0224222 1e-05
-0.02058 0.0224222 1e-05
-0.0206 0.0224222 1e-05
-0.0205 0.0251 1e-05
-0.02052 0.0250998 1e-05
-0.02054 0.0250997 1e-05
-0.02056 0.0250995 1e-05
-0.02058 0.0250995 1e-05
-0.0206 0.0250994 1e-05
-0.0205 0.001 1e-05
-0.0202034 0.00100022 1e-05
-0.0199069 0.00100067 1e-05
-0.0196103 0.00100132 1e-05
-0.0193137 0.00100219 1e-05
-0.0190172 0.00100326 1e-05
-0.0187132 0.00100466 1e-05
-0.0184093 0.00100588 1e-05
-0.0181054 0.0010071 1e-05
-0.0178015 0.00100832 1e-05
-0.0174976 0.00100953 1e-05
-0.0172058 0.00101083 1e-05
-0.016914 0.00101193 1e-05
-0.0166222 0.00101303 1e-05
-0.0163305 0.00101413 1e-05
-0.0160387 0.00101522 1e-05
-0.0157586 0.00101636 1e-05
-0.0154784 0.00101744 1e-05
-0.0151983 0.00101856 1e-05
-0.0149182 0.00101971 1e-05
-0.0146381 0.0010209 1e-05
-0.0143746 0.00102209 1e-05
-0.0141111 0.00102327 1e-05
-0.0138476 0.00102449 1e-05
-0.0135841 0.00102574 1e-05
-0.0133616 0.00102682 1e-05
-0.013348 0.00102688 1e-05
-0.0133343 0.00102695 1e-05
-0.0133207 0.00102702 1e-05
-0.0133071 0.00102709 1e-05
-0.0132934 0.00102716 1e-05
-0.0130353 0.00102844 1e-05
-0.0127771 0.00102975 1e-05
-0.0125189 0.00103107 1e-05
-0.0122607 0.0010324 1e-05
-0.0120025 0.00103375 1e-05
-0.0117547 0.00103506 1e-05
-0.0115068 0.00103638 1e-05
-0.0112589 0.0010377 1e-05
-0.0110111 0.00103902 1e-05
-0.0107632 0.00104035 1e-05
-0.0105252 0.00104163 1e-05
-0.0102873 0.00104291 1e-05
-0.0100493 0.00104419 1e-05
-0.00981133 0.00104546 1e-05
-0.00957337 0.00104674 1e-05
-0.00934491 0.00104796 1e-05
-0.00911645 0.00104919 1e-05
-0.00888799 0.00105041 1e-05
-0.00865954 0.00105162 1e-05
-0.00843108 0.00105284 1e-05
-0.00821175 0.00105399 1e-05
-0.00799242 0.00105515 1e-05
-0.00777309 0.00105631 1e-05
-0.00755376 0.00105746 1e-05
-0.00733443 0.0010586 1e-05
-0.00712387 0.00105969 1e-05
-0.0069133 0.00106078 1e-05
-0.00670273 0.00106187 1e-05
-0.00649216 0.00106295 1e-05
-0.0062816 0.00106403 1e-05
-0.00607944 0.00106506 1e-05
-0.00587729 0.00106609 1e-05
-0.00567514 0.00106711 1e-05
-0.00547298 0.00106813 1e-05
-0.00527083 0.00106914 1e-05
-0.00507675 0.00107011 1e-05
-0.00488267 0.00107107 1e-05
-0.0046886 0.00107204 1e-05
-0.00449452 0.00107299 1e-05
-0.00430044 0.00107395 1e-05
-0.00411412 0.00107486 1e-05
-0.0039278 0.00107577 1e-05
-0.00374147 0.00107667 1e-05
-0.00355515 0.00107758 1e-05
-0.00336883 0.00107848 1e-05
-0.00318995 0.00107933 1e-05
-0.00301107 0.00108019 1e-05
-0.00283219 0.00108105 1e-05
-0.00265331 0.00108191 1e-05
-0.00247443 0.00108276 1e-05
-0.0023027 0.00108357 1e-05
-0.00213097 0.00108439 1e-05
-0.00195924 0.0010852 1e-05
-0.0017875 0.00108602 1e-05
-0.00161577 0.00108683 1e-05
-0.0014509 0.0010876 1e-05
-0.00128603 0.00108838 1e-05
-0.00112116 0.00108916 1e-05
-0.000956289 0.00108994 1e-05
-0.000791418 0.00109072 1e-05
-0.000633135 0.00109147 1e-05
-0.000474851 0.00109223 1e-05
-0.000316567 0.00109298 1e-05
-0.000158284 0.00109374 1e-05
0 0.0010945 1e-05
0.000105677 0.001095 1e-05
0.000211355 0.0010955 1e-05
0.000317032 0.001096 1e-05
0.00042271 0.0010965 1e-05
0.000528387 0.001097 1e-05
0.000634886 0.00109749 1e-05
0.000741385 0.00109799 1e-05
0.000847885 0.00109848 1e-05
0.000954384 0.00109896 1e-05
0.00106088 0.00109945 1e-05
0.00116821 0.00109992 1e-05
0.00127554 0.0011004 1e-05
0.00138286 0.00110087 1e-05
0.00149019 0.00110133 1e-05
0.00159752 0.00110179 1e-05
0.00170568 0.00110224 1e-05
0.00181384 0.00110269 1e-05
0.001922 0.00110312 1e-05
0.00203016 0.00110355 1e-05
0.00213833 0.00110397 1e-05
0.00224733 0.00110438 1e-05
0.00235633 0.00110479 1e-05
0.00246533 0.00110519 1e-05
0.00257434 0.00110558 1e-05
0.00268334 0.00110596 1e-05
0.00279319 0.00110632 1e-05
0.00290304 0.00110669 1e-05
0.00301289 0.00110705 1e-05
0.00312274 0.0011074 1e-05
0.00323259 0.00110775 1e-05
0.00334329 0.00110808 1e-05
0.003454 0.00110841 1e-05
0.0035647 0.00110873 1e-05
0.0036754 0.00110904 1e-05
0.00378611 0.00110935 1e-05
0.00389767 0.00110964 1e-05
0.00400924 0.00110994 1e-05
0.0041208 0.00111022 1e-05
0.00423237 0.0011105 1e-05
0.00434393 0.00111077 1e-05
0.00445636 0.00111103 1e-05
0.00456879 0.00111128 1e-05
0.00468123 0.00111153 1e-05
0.00479366 0.00111177 1e-05
0.00490609 0.001112 1e-05
0.0050194 0.00111222 1e-05
0.0051327 0.00111244 1e-05
0.00524601 0.00111265 1e-05
0.00535932 0.00111285 1e-05
0.00547262 0.00111305 1e-05
0.00558681 0.00111323 1e-05
0.005701 0.00111341 1e-05
0.00581518 0.00111358 1e-05
0.00592937 0.00111375 1e-05
0.00604356 0.0011139 1e-05
0.00615863 0.00111405 1e-05
0.00627371 0.00111419 1e-05
0.00638878 0.00111433 1e-05
0.00650386 0.00111446 1e-05
0.00661893 0.00111457 1e-05
0.0067349 0.00111468 1e-05
0.00685087 0.00111479 1e-05
0.00696684 0.00111489 1e-05
0.00708281 0.00111498 1e-05
0.00719878 0.00111506 1e-05
0.0073054 0.00111512 1e-05
0.00741201 0.00111519 1e-05
0.00751863 0.00111524 1e-05
0.00762525 0.00111529 1e-05
0.00772638 0.00111533 1e-05
0.00773773 0.00111533 1e-05
0.00774908 0.00111533 1e-05
0.00776043 0.00111534 1e-05
0.00777178 0.00111534 1e-05
0.00778313 0.00111535 1e-05
0.00790091 0.00111538 1e-05
0.00801869 0.00111541 1e-05
0.00813647 0.00111543 1e-05
0.00825425 0.00111544 1e-05
0.00837203 0.00111544 1e-05
0.00849073 0.00111543 1e-05
0.00860942 0.00111542 1e-05
0.00872812 0.0011154 1e-05
0.00884682 0.00111537 1e-05
0.00896551 0.00111533 1e-05
0.00908513 0.00111528 1e-05
0.00920475 0.00111522 1e-05
0.00932437 0.00111516 1e-05
0.00944398 0.00111509 1e-05
0.0095636 0.00111501 1e-05
0.00968415 0.00111491 1e-05
0.0098047 0.00111482 1e-05
0.00992525 0.00111471 1e-05
0.0100458 0.0011146 1e-05
0.0101663 0.00111448 1e-05
0.0102878 0.00111433 1e-05
0.0104093 0.00111419 1e-05
0.0105308 0.00111404 1e-05
0.0106523 0.00111388 1e-05
0.0107738 0.00111372 1e-05
0.0108962 0.00111353 1e-05
0.0110186 0.00111334 1e-05
0.0111411 0.00111315 1e-05
0.0112635 0.00111294 1e-05
0.0113859 0.00111273 1e-05
0.0115093 0.00111249 1e-05
0.0116327 0.00111226 1e-05
0.0117561 0.00111202 1e-05
0.0118795 0.00111177 1e-05
0.0120028 0.00111151 1e-05
0.0121272 0.00111123 1e-05
0.0122515 0.00111095 1e-05
0.0123759 0.00111066 1e-05
0.0125002 0.00111036 1e-05
0.0126245 0.00111005 1e-05
0.0127498 0.00110972 1e-05
0.0128752 0.00110939 1e-05
0.0130005 0.00110905 1e-05
0.0131258 0.0011087 1e-05
0.0132511 0.00110835 1e-05
0.0133774 0.00110797 1e-05
0.0135036 0.00110759 1e-05
0.0136299 0.0011072 1e-05
0.0137562 0.0011068 1e-05
0.0138825 0.00110639 1e-05
0.0140098 0.00110596 1e-05
0.014137 0.00110553 1e-05
0.0142643 0.00110509 1e-05
0.0143915 0.00110464 1e-05
0.0145188 0.00110418 1e-05
0.0146471 0.0011037 1e-05
0.0147753 0.00110322 1e-05
0.0149036 0.00110272 1e-05
0.0150318 0.00110222 1e-05
0.0151601 0.00110171 1e-05
0.0152893 0.00110117 1e-05
0.0154186 0.00110064 1e-05
0.0155478 0.00110009 1e-05
0.0156771 0.00109953 1e-05
0.0158063 0.00109897 1e-05
0.0159366 0.00109839 1e-05
0.0160668 0.00109779 1e-05
0.0161971 0.00109719 1e-05
0.0163274 0.00109658 1e-05
0.0164576 0.00109596 1e-05
0.0165889 0.00109533 1e-05
0.0167201 0.00109468 1e-05
0.0168514 0.00109403 1e-05
0.0169827 0.00109336 1e-05
0.0171139 0.00109269 1e-05
0.0172462 0.001092 1e-05
0.0173785 0.0010913 1e-05
0.0175108 0.00109059 1e-05
0.0176431 0.00108987 1e-05
0.0177754 0.00108914 1e-05
0.0179087 0.0010884 1e-05
0.018042 0.00108765 1e-05
0.0181753 0.00108688 1e-05
0.0183087 0.0010861 1e-05
0.018442 0.00108532 1e-05
0.0185763 0.00108453 1e-05
0.0187107 0.00108373 1e-05
0.018845 0.0010829 1e-05
0.0189794 0.00108206 1e-05
0.0191137 0.00108123 1e-05
0.0192491 0.00108039 1e-05
0.0193845 0.00107952 1e-05
0.0195199 0.00107864 1e-05
0.0196553 0.00107775 1e-05
0.0197907 0.00107686 1e-05
0.0199272 0.00107596 1e-05
0.0200636 0.00107504 1e-05
0.0202001 0.0010741 1e-05
0.0203365 0.00107315 1e-05
0.020473 0.00107221 1e-05
0.0206105 0.00107126 1e-05
0.020748 0.00107029 1e-05
0.0208855 0.00106929 1e-05
0.021023 0.00106828 1e-05
0.0211606 0.00106728 1e-05
0.0212991 0.00106628 1e-05
0.0214377 0.00106525 1e-05
0.0215763 0.0010642 1e-05
0.0217149 0.00106314 1e-05
0.0218535 0.00106208 1e-05
0.0219931 0.00106102 1e-05
0.0221328 0.00105994 1e-05
0.0222724 0.00105883 1e-05
0.0224121 0.00105771 1e-05
0.0225517 0.00105659 1e-05
0.0226925 0.00105548 1e-05
0.0228332 0.00105434 1e-05
0.022974 0.00105317 1e-05
0.0231147 0.00105199 1e-05
0.0232555 0.00105083 1e-05
0.0233973 0.00104966 1e-05
0.0235391 0.00104846 1e-05
0.023681 0.00104723 1e-05
0.0238228 0.001046 1e-05
0.0239647 0.00104477 1e-05
0.0241076 0.00104354 1e-05
0.0242505 0.00104229 1e-05
0.0243935 0.001041 1e-05
0.0245364 0.00103971 1e-05
0.0246794 0.00103842 1e-05
0.0248234 0.00103714 1e-05
0.0249675 0.00103582 1e-05
0.0251115 0.00103448 1e-05
0.0252556 0.00103313 1e-05
[...]
POINT_DATA 12069
 FIELD attributes 1
U 3 12069 float
10.0004 	0.00731835 	0 10.0004 	0.00585468 	0 10.0003 	0.00439101 	0 10.0002 	0.00292734 	0 10.0001 	0.00146367 	0 10 	0 	0
10.0001 	0.000879724 	0 10 	0.000703779 	0 10 	0.000527835 	0 10 	0.00035189 	0 10 	0.000175945 	0 10 	0 	0
10.0001 	0.000466844 	0 10.0001 	0.000373286 	0 10.0001 	0.000279727 	0 10 	0.000186169 	0 10 	9.26101e-05 	0 10 	0 	0
10 	0.000267131 	0 10 	0.000213705 	0 10 	0.000160278 	0 10 	0.000106852 	0 10 	5.34261e-05 	0 10 	0 	0
10 	8.15019e-05 	0 10 	6.52015e-05 	0 10 	4.89011e-05 	0 10 	3.26008e-05 	0 10 	1.63004e-05 	0 10 	0 	0
10 	-2.52165e-05 	0 10 	-2.01732e-05 	0 10 	-1.51299e-05 	0 10 	-1.00866e-05 	0 10 	-5.04331e-06 	0 10 	0 	0
10 	-0.00021541 	0 10 	-0.000172328 	0 10 	-0.000129246 	0 10 	-8.6164e-05 	0 10 	-4.3082e-05 	0 10 	0 	0
10 	-0.000377349 	0 10 	-0.000301879 	0 10 	-0.000226409 	0 10 	-0.000150939 	0 10 	-7.54697e-05 	0 10 	0 	0
9.99999 	-0.000427259 	0 9.99999 	-0.000341807 	0 9.99999 	-0.000256355 	0 10 	-0.000170903 	0 10 	-8.54517e-05 	0 10 	0 	0
9.17387 	0.0870992 	0 9.1308 	0.0696794 	0 9.08741 	0.0522592 	0 9.04368 	0.0348389 	0 8.99962 	0.0174184 	0 8.95524 	0 	0
10.0004 	0.00731835 	0 10.0024 	0.0151687 	0 10.0045 	0.0221875 	0 10.0065 	0.0291621 	0 10.0085 	0.0360928 	0 10.0135 	0.046308 	0 10.0163 	0.0402071 	0 10.0207 	0.0401656 	0 10.0252 	0.0401243 	0 10.0296 	0.0400831 	0 10.0356 	0.0445437 	0 10.0384 	0.0379035 	0 10.0424 	0.0378597 	0 10.0464 	0.0378158 	0 10.0504 	0.0377719 	0 10.0545 	0.0408734 	0 10.0567 	0.0387958 	0 10.0591 	0.0401053 	0 10.0616 	0.0414164 	0 10.064 	0.0427291 	0 10.0662 	0.0451875 	0 10.0677 	0.0452988 	0 10.069 	0.0465013 	0 10.0704 	0.0477049 	0 10.0717 	0.0489097 	0 10.0728 	0.0499281 	0 10.0729 	0.0499909 	0 10.073 	0.0500537 	0 10.073 	0.0501165 	0 10.0731 	0.0501793 	0 10.0732 	0.0502327 	0 10.0737 	0.0508601 	0 10.0742 	0.0514814 	0 10.0747 	0.0521033 	0 10.0753 	0.0527257 	0 10.0757 	0.0531839 	0 10.0756 	0.0534806 	0 10.0753 	0.0536718 	0 10.0749 	0.0538631 	0 10.0746 	0.0540545 	0 10.074 	0.0540074 	0 10.0736 	0.0541539 	0 10.0725 	0.0541318 	0 10.0714 	0.0541098 	0 10.0703 	0.0540877 	0 10.0688 	0.0537965 	0 10.0684 	0.0538789 	0 10.0668 	0.0537474 	0 10.0651 	0.0536159 	0 10.0635 	0.0534843 	0 10.0609 	0.0530664 	0 10.0609 	0.0531234 	0 10.0589 	0.0529317 	0 10.0569 	0.0527399 	0 10.0549 	0.0525481 	0 10.0513 	0.0520574 	0 10.0519 	0.0521146 	0 10.0496 	0.051898 	0 10.0473 	0.0516813 	0 10.0449 	0.0514645 	0 10.0403 	0.0509412 	0 10.0418 	0.0510204 	0 10.0392 	0.0508011 	0 10.0367 	0.0505818 	0 10.0342 	0.0503624 	0 10.0284 	0.0498234 	0 10.0309 	0.0499323 	0 10.0282 	0.0497284 	0 10.0255 	0.0495244 	0 10.0229 	0.0493204 	0 10.016 	0.0487902 	0 10.0196 	0.048941 	0 10.0168 	0.0487562 	0 10.0141 	0.0485713 	0 10.0113 	0.0483863 	0 10.0032 	0.047858 	0 10.0081 	0.0480556 	0 10.0053 	0.0479387 	0 10.0026 	0.0478219 	0 9.9998 	0.047705 	0 9.99052 	0.047258 	0 9.9967 	0.0475426 	0 9.99398 	0.0474483 	0 9.99126 	0.0473541 	0 9.98854 	0.0472598 	0 9.97806 	0.0467715 	0 9.98562 	0.0470769 	0 9.98299 	0.0471707 	0 9.98037 	0.0472646 	0 9.97774 	0.0473585 	0 9.9661 	0.0471395 	0 9.97519 	0.0475933 	1.0642e-21 9.97326 	0.0476401 	7.03667e-21 9.97134 	0.0476868 	1.30091e-20 9.96941 	0.0477336 	1.89814e-20 9.95738 	0.0472987 	1.6068e-20 9.9678 	0.047529 	1.11474e-19 9.96615 	0.0472999 	1.03549e-19 9.9645 	0.0470708 	9.56199e-20 9.96285 	0.0468416 	8.7688e-20 9.95064 	0.0461889 	-1.76906e-20 9.96097 	0.0461249 	-4.80709e-20 9.95935 	0.0457741 	-5.34765e-20 9.95774 	0.0454233 	-5.888e-20 9.95612 	0.0450724 	-6.42812e-20 9.94404 	0.0444469 	-2.50713e-20 9.95392 	0.0441857 	-2.20859e-20 9.95207 	0.0435438 	-1.53524e-20 9.95023 	0.0429019 	-8.61952e-21 9.94838 	0.0422599 	-1.8872e-21 9.9364 	0.0414072 	8.39447e-21 9.94586 	0.0410768 	-6.46502e-21 9.94375 	0.0402181 	-2.8264e-20 9.94164 	0.0393592 	-5.00655e-20 9.93952 	0.0385001 	-7.18695e-20 9.92754 	0.0373588 	-1.02784e-19 9.93645 	0.0371235 	-1.46222e-19 9.93397 	0.036279 	-1.31754e-19 9.93148 	0.0354343 	-1.17276e-19 9.92899 	0.0345893 	-1.0279e-19 9.91694 	0.0333229 	-3.4963e-20 9.92516 	0.0332125 	4.15691e-20 9.92226 	0.0324521 	5.7384e-20 9.91935 	0.0316915 	7.31876e-20 9.91644 	0.0309307 	8.898e-20 9.90439 	0.0296457 	4.30131e-20 9.91182 	0.0295672 	-5.66678e-20 9.90852 	0.0288422 	-6.38092e-20 9.9052 	0.0281168 	-7.09334e-20 9.90189 	0.0273913 	-7.80404e-20 9.88992 	0.0261248 	-3.99285e-22 9.89645 	0.0260053 	7.29884e-20 9.89271 	0.0252889 	6.20449e-20 9.88896 	0.0245721 	5.10843e-20 9.8852 	0.0238551 	4.01065e-20 9.8734 	0.0226439 	-3.30262e-20 9.87884 	0.0224603 	-9.83939e-20 9.87462 	0.0217511 	-1.24343e-19 9.87039 	0.0210417 	-1.50286e-19 9.86616 	0.020332 	-1.76222e-19 9.85461 	0.0192026 	-1.5887e-19 9.85874 	0.018953 	-1.83036e-19 9.85402 	0.0182555 	-1.6851e-19 9.8493 	0.0175576 	-1.53979e-19 9.84457 	0.0168595 	-1.39443e-19 9.83345 	0.0158248 	-9.69162e-20 9.836 	0.0155177 	-8.16501e-20 9.83079 	0.0148365 	-6.00526e-20 9.82557 	0.014155 	-3.84571e-20 9.82035 	0.0134733 	-1.68637e-20 9.80989 	0.0125339 	2.59969e-21 9.81056 	0.0121617 	0 9.80487 	0.0114909 	0 9.79917 	0.0108198 	0 9.79346 	0.0101484 	0 9.78397 	0.00929855 	0 9.78239 	0.00884668 	-1.89936e-20 9.77623 	0.00818152 	-4.1108e-20 9.77005 	0.00751603 	-6.32245e-20 9.76387 	0.00685021 	-8.5343e-20 9.75571 	0.00609293 	-1.08438e-19 9.75205 	0.00560274 	-1.14335e-19 9.746 	0.00500128 	-1.15115e-19 9.73995 	0.00439952 	-1.15889e-19 9.73389 	0.00379746 	-1.16659e-19 9.72813 	0.00322606 	-1.17384e-19 9.72748 	0.00316156 	-1.17593e-19 9.72682 	0.00309705 	-1.17802e-19 9.72617 	0.00303254 	-1.18011e-19 9.72551 	0.00296803 	-1.1822e-19 9.72424 	0.00287528 	-1.18216e-19 9.71766 	0.00224358 	-8.52094e-20 9.7105 	0.00158578 	-5.12341e-20 9.70333 	0.000927557 	-1.72702e-20 9.69615 	0.000268922 	1.66823e-20 9.68199 	-0.00070007 	5.89198e-20 9.6808 	-0.00107476 	5.99966e-20 9.6732 	-0.00172886 	6.13136e-20 9.66559 	-0.00238341 	6.2628e-20 9.65797 	-0.00303841 	6.39397e-20 9.63717 	-0.00425527 	6.74384e-20 9.64122 	-0.00440561 	5.32094e-20 9.63321 	-0.00505582 	3.89779e-20 9.62518 	-0.00570652 	2.47449e-20 9.61714 	-0.00635771 	1.05105e-20 9.59006 	-0.00777577 	-1.14927e-21 9.59905 	-0.00774759 	-9.90896e-21 9.59064 	-0.00839509 	-2.34905e-20 9.58222 	-0.00904311 	-3.70706e-20 9.57378 	-0.00969167 	-5.06492e-20 9.54091 	-0.0112576 	-6.42447e-20 9.55442 	-0.0111029 	-6.46076e-20 9.54564 	-0.0117499 	-7.3176e-20 9.53686 	-0.0123974 	-8.17406e-20 9.52806 	-0.0130455 	-9.03013e-20 9.49004 	-0.014703 	-1.11609e-19 9.50755 	-0.0144731 	-1.72173e-19 9.49844 	-0.0151192 	-1.6108e-19 9.48932 	-0.0157659 	-1.50003e-19 9.48018 	-0.0164133 	-1.38941e-19 9.43769 	-0.0181008 	-4.82961e-20 9.45863 	-0.0178468 	-3.11478e-20 9.44921 	-0.0184922 	-2.19029e-20 9.43978 	-0.0191382 	-1.26572e-20 9.43033 	-0.0197848 	-3.41041e-21 9.38412 	-0.0214458 	0 9.40789 	-0.0212186 	0 9.39819 	-0.0218649 	0 9.38847 	-0.0225119 	0 9.37874 	-0.0231596 	0 9.32957 	-0.0247422 	0 9.35557 	-0.0245921 	2.07802e-21 9.34562 	-0.0252404 	1.06654e-20 9.33565 	-0.0258894 	1.92518e-20 9.32566 	-0.0265392 	2.78373e-20 9.27427 	-0.0279906 	4.84413e-20 9.30193 	-0.0279663 	1.83421e-19 9.29175 	-0.0286159 	1.86845e-19 9.28155 	-0.0292664 	1.90287e-19 9.27133 	-0.0299176 	1.93747e-19 9.21842 	-0.0311854 	4.8665e-20 9.24722 	-0.0313282 	2.62738e-20 9.23683 	-0.0319779 	1.85705e-20 9.22643 	-0.0326284 	1.08662e-20 9.21445 	-0.0332935 	4.04681e-21 9.16223 	-0.0343191 	2.01077e-20 9.18863 	-0.0346871 	1.21975e-19 9.1811 	-0.035313 	1.3168e-19 9.17052 	-0.0359626 	1.33152e-19 9.15443 	-0.0366287 	1.18018e-19 9.10585 	-0.0373881 	4.57924e-21 9.12891 	-0.0379748 	-1.15912e-19 9.1248 	-0.0386107 	-1.49033e-19 9.11406 	-0.0392591 	-1.60928e-19 9.09458 	-0.0398745 	-1.49846e-19 9.04946 	-0.0403917 	-7.13425e-20 9.06939 	-0.041175 	-2.0771e-19 9.06814 	-0.0418641 	-2.52063e-19 9.05727 	-0.042511 	-2.54768e-19 9.03505 	-0.0430308 	-2.0241e-19 8.9932 	-0.0433299 	-5.47287e-20 9.01024 	-0.0442871 	-2.88252e-20 9.01133 	-0.0450665 	-1.28568e-20 9.00035 	-0.0457117 	-4.39641e-21 8.97601 	-0.0460982 	0 8.93721 	-0.0462044 	0 8.95159 	-0.0473138 	0 8.95456 	-0.0482146 	0 8.9435 	-0.048858 	0 8.91758 	-0.0490799 	2.29789e-21 8.88161 	-0.0490169 	6.14826e-21 8.89356 	-0.0502567 	2.47972e-21 8.89801 	-0.0513033 	0 8.88689 	-0.0519448 	0 8.85986 	-0.0519786 	2.75824e-21 8.82651 	-0.0517706 	6.61363e-21 8.83625 	-0.0531217 	2.94469e-21 8.84184 	-0.0543334 	1.50897e-21 8.83066 	-0.0549731 	9.15882e-21 8.80295 	-0.0548006 	2.83848e-20 8.77199 	-0.0544689 	4.98783e-20 8.77974 	-0.0559114 	1.95987e-19 8.78616 	-0.0573007 	3.32447e-19 8.77496 	-0.0579388 	3.36547e-19 8.74691 	-0.0575493 	1.96589e-19 8.71815 	-0.0571158 	5.04909e-20 8.72411 	-0.0586341 	2.93149e-20 8.73002 	-0.0601539 	8.14047e-21 8.71859 	-0.0607506 	3.11315e-22 8.69183 	-0.0602345 	4.01224e-21 8.66507 	-0.059718 	7.713e-21 8.66942 	-0.0612962 	4.20367e-21 8.67372 	-0.062876 	6.95352e-22 8.66269 	-0.0634423 	2.55983e-21 8.63774 	-0.0628607 	-1.97742e-21 8.6128 	-0.0622788 	-6.51355e-21 8.61573 	-0.0639037 	-5.70328e-20 8.6186 	-0.0655302 	-1.07557e-19 8.60799 	-0.0660669 	-1.09136e-19 8.5847 	-0.0654349 	-6.2931e-20 8.56142 	-0.0648024 	-1.67235e-20 8.56308 	-0.0664656 	9.84541e-20 8.56468 	-0.0681305 	2.13625e-19 8.55454 	-0.0686386 	2.23529e-19 8.53274 	-0.0679667 	1.27572e-19 8.51096 	-0.0672943 	3.16157e-20 8.51151 	-0.0689855 	1.8371e-20 8.512 	-0.0706784 	5.12195e-21 8.50236 	-0.0711594 	5.19607e-22 8.4819 	-0.0704599 	5.92017e-21 8.46146 	-0.0697599 	1.13227e-20 8.46104 	-0.0714662 	4.82693e-21 8.46056 	-0.0731743 	-1.67512e-21 8.45143 	-0.0736293 	-2.40374e-20 8.43218 	-0.0729166 	-8.2108e-20 8.41294 	-0.0722035 	-1.40181e-19 8.41166 	-0.0739091 	-2.9202e-19 8.41033 	-0.0756164 	-4.43853e-19 8.40172 	-0.0760482 	-4.26063e-19 8.38356 	-0.0753425 	-2.52008e-19 8.36541 	-0.0746364 	-7.79552e-20 8.36338 	-0.0763371 	6.5902e-20 8.36117 	-0.0780151 	2.07076e-19 8.35277 	-0.0783967 	2.04248e-19 8.33604 	-0.0777611 	1.04934e-19 8.31888 	-0.0770706 	4.50139e-22 8.31618 	-0.0787611 	-1.03183e-19 8.31254 	-0.0802446 	-1.91942e-19 8.30428 	-0.0806344 	-2.02611e-19 8.2896 	-0.080179 	-1.32846e-19 8.27334 	-0.0795109 	-4.28741e-20 8.27005 	-0.0811886 	-2.99025e-20 8.26526 	-0.0824792 	-1.7046e-20 8.25712 	-0.0828789 	-4.44737e-21 8.24424 	-0.082606 	1.54204e-20 8.22879 	-0.0819658 	3.92564e-20 8.22497 	-0.0836297 	1.39501e-20 8.21926 	-0.0847318 	-3.00161e-21 8.21124 	-0.0851432 	-9.68924e-21 8.19992 	-0.0850527 	-4.56335e-21 8.1852 	-0.0844443 	1.27429e-20 8.18092 	-0.0860939 	-6.49907e-21 8.17448 	-0.0870134 	-1.86563e-20 8.16658 	-0.0874379 	-2.60119e-20 8.15661 	-0.0875278 	-3.9283e-20 8.14257 	-0.0869542 	-6.42729e-20 8.13787 	-0.0885899 	6.09403e-20 8.13087 	-0.0893335 	9.48271e-20 8.12308 	-0.0897724 	9.75018e-20 8.11428 	-0.0900398 	8.08326e-20 8.10085 	-0.0895034 	-2.63746e-20 8.09578 	-0.0911257 	7.92371e-20 8.08838 	-0.0917008 	9.33483e-20 8.08068 	-0.0921553 	9.68902e-20 8.0729 	-0.0925968 	9.91406e-20 8.06002 	-0.0920992 	1.12773e-20 8.05452 	-0.0936526 	-7.36972e-22 8.04694 	-0.0941236 	-5.03023e-22 8.03933 	-0.094595 	-2.69101e-22 8.03171 	-0.0950666 	-3.52057e-23 8.02006 	-0.094749 	1.94785e-20 8.01401 	-0.0961205 	0 8.00651 	-0.0966096 	0 7.99899 	-0.0970989 	0 7.99145 	-0.0975885 	0 7.98093 	-0.09746 	1.57702e-20 7.97446 	-0.0986579 	0 7.96704 	-0.099166 	0 7.95959 	-0.0996744 	0 7.95213 	-0.100183 	0 7.9426 	-0.100239 	0 7.93582 	-0.101272 	0 7.92846 	-0.1018 	0 7.92109 	-0.102329 	0 7.91369 	-0.102858 	0 7.90502 	-0.103094 	-7.59729e-21 7.89803 	-0.103969 	0 7.89073 	-0.104519 	0 7.88342 	-0.105068 	0 7.87608 	-0.105619 	0 7.86816 	-0.106031 	-7.33807e-21 7.86157 	-0.106714 	0 7.85487 	-0.107243 	0 7.84814 	-0.107773 	0 7.84139 	-0.108303 	0 7.8349 	-0.108812 	0 7.83429 	-0.108859 	0 7.83368 	-0.108906 	0 7.83306 	-0.108952 	0 7.83245 	-0.108999 	0 7.83191 	-0.109032 	0 7.82449 	-0.109642 	-1.08541e-20 7.81708 	-0.110239 	-2.1874e-20 7.80964 	-0.110837 	-3.28921e-20 7.80218 	-0.111435 	-4.39085e-20 7.79561 	-0.111856 	-5.4933e-20 7.78791 	-0.112638 	-5.19075e-20 7.78053 	-0.11326 	-5.11359e-20 7.77313 	-0.113882 	-5.03606e-20 7.7657 	-0.114505 	-4.95817e-20 7.75999 	-0.114792 	-5.3204e-20 7.752 	-0.115744 	-4.12639e-20 7.74465 	-0.116392 	-2.93024e-20 7.73727 	-0.11704 	-1.73389e-20 7.72987 	-0.117688 	-5.37362e-21 7.72499 	-0.117849 	0 7.7167 	-0.118966 	-2.21135e-21 7.70937 	-0.119641 	-7.64024e-21 7.70201 	-0.120316 	-1.30681e-20 7.69462 	-0.120992 	-1.84951e-20 7.69055 	-0.121033 	-2.38887e-20 7.68196 	-0.122311 	-5.96634e-20 7.67464 	-0.123014 	-8.21133e-20 7.66729 	-0.123718 	-1.04565e-19 7.65991 	-0.124422 	-1.27019e-19 7.65664 	-0.124351 	-1.11647e-19 7.64774 	-0.125788 	-8.31313e-20 7.64042 	-0.126521 	-7.03875e-20 7.63307 	-0.127255 	-5.76354e-20 7.62619 	-0.127898 	-4.93801e-20 7.6232 	-0.127813 	-7.6845e-20 7.61431 	-0.129266 	-9.26413e-20 7.60666 	-0.130171 	-7.92218e-20 7.59931 	-0.130937 	-5.83697e-20 7.59325 	-0.13146 	-3.24141e-20 7.59018 	-0.131427 	5.18737e-21 7.58131 	-0.132895 	1.00133e-20 7.57332 	-0.133971 	8.63832e-21 7.56595 	-0.134769 	2.87578e-21 7.56069 	-0.135178 	0 7.55754 	-0.135198 	0 7.54867 	-0.136682 	0 7.54034 	-0.137924 	0 7.53295 	-0.138757 	0 7.52847 	-0.139057 	0 7.52523 	-0.139131 	0 7.51636 	-0.140632 	0 7.50767 	-0.142039 	-2.9606e-21 7.50025 	-0.142906 	-2.28298e-20 7.49653 	-0.143104 	-4.27789e-20 7.49319 	-0.143232 	-6.27365e-20 7.48431 	-0.144752 	-4.10617e-20 7.47538 	-0.146273 	-1.9379e-20 7.46825 	-0.147144 	4.21747e-21 7.46482 	-0.147325 	8.79948e-21 7.46138 	-0.147507 	1.33814e-20 7.45248 	-0.149048 	4.98017e-20 7.44353 	-0.15059 	8.622e-20 7.43685 	-0.15149 	1.00147e-19 7.4333 	-0.151726 	8.34748e-20 7.42975 	-0.151962 	6.67996e-20 7.42083 	-0.153527 	3.97139e-20 7.41185 	-0.155092 	1.26179e-20 7.40559 	-0.156022 	5.57673e-21 7.40192 	-0.156313 	1.60144e-20 7.39824 	-0.156604 	2.64533e-20 7.38929 	-0.158194 	9.72597e-20 7.38029 	-0.159784 	1.6807e-19 7.37443 	-0.160746 	1.68865e-19 7.37063 	-0.161092 	9.88404e-20 7.36682 	-0.161438 	2.88135e-20 7.35783 	-0.163054 	1.93441e-20 7.34878 	-0.16467 	9.87909e-21 7.34335 	-0.16565 	1.02253e-20 7.33937 	-0.166067 	2.01086e-20 7.33542 	-0.166468 	3.0269e-20 7.32638 	-0.168112 	9.92229e-20 7.31805 	-0.169623 	1.5329e-19 7.31258 	-0.170632 	1.50633e-19 7.3081 	-0.171242 	1.00879e-19 7.304 	-0.171698 	3.27395e-20 7.29491 	-0.173371 	2.35797e-20 7.28735 	-0.17477 	1.43493e-20 7.28177 	-0.17582 	5.02796e-21 7.27678 	-0.176623 	0 7.27252 	-0.177133 	0 7.26336 	-0.178837 	0 7.25655 	-0.180126 	0 7.25084 	-0.18122 	0 7.24535 	-0.182211 	0 7.24091 	-0.182777 	0 7.23168 	-0.184512 	0 7.2256 	-0.185695 	0 7.21975 	-0.186833 	0 7.21385 	-0.187971 	0 7.20914 	-0.188632 	1.61951e-20 7.20041 	-0.190298 	1.64878e-21 7.19445 	-0.19148 	1.12159e-20 7.18845 	-0.192662 	2.07858e-20 7.18241 	-0.193844 	3.03586e-20 7.17715 	-0.194702 	4.29205e-20 7.16917 	-0.196258 	9.95649e-20 7.16305 	-0.197484 	1.04187e-19 7.1569 	-0.198711 	1.08781e-19 7.1507 	-0.199937 	1.13348e-19 7.14489 	-0.200989 	7.5442e-20 7.13764 	-0.202437 	1.03642e-19 7.13136 	-0.203709 	9.00834e-20 7.12503 	-0.20498 	7.64971e-20 7.11867 	-0.206251 	6.28827e-20 7.11232 	-0.207497 	4.49045e-20 7.11104 	-0.207756 	4.43768e-20 7.1099 	-0.207988 	4.44787e-20 7.10877 	-0.208221 	4.45807e-20 7.10763 	-0.208453 	4.4683e-20 7.10651 	-0.208683 	4.47843e-20 7.10104 	-0.209766 	4.35693e-20 7.09554 	-0.210848 	4.23499e-20 7.09 	-0.211931 	4.11259e-20 7.08444 	-0.213014 	3.98974e-20 7.07986 	-0.213986 	4.19417e-20 7.07249 	-0.215455 	3.77387e-20 7.06566 	-0.216814 	3.66647e-20 7.05878 	-0.218173 	3.5584e-20 7.05186 	-0.219533 	3.44965e-20 7.04714 	-0.22065 	4.28111e-20 7.03887 	-0.222296 	4.94402e-20 7.03184 	-0.2237 	4.23368e-20 7.02476 	-0.225105 	3.52438e-20 7.01764 	-0.226509 	2.8161e-20 7.01398 	-0.22754 	3.1994e-21 7.00477 	-0.229363 	-2.99728e-22 6.99754 	-0.230812 	-1.95901e-22 6.99025 	-0.232262 	-9.20335e-23 6.98341 	-0.23366 	0 6.98034 	-0.234658 	0 6.97075 	-0.23655 	0 6.96271 	-0.238151 	-1.09321e-20 6.95521 	-0.239645 	-2.58607e-20 6.94947 	-0.240952 	-3.90483e-20 6.94616 	-0.242001 	-4.98536e-20 6.93636 	-0.243932 	-3.6463e-20 6.92731 	-0.245715 	-2.18072e-20 6.91959 	-0.247254 	-5.04896e-21 6.91495 	-0.24847 	5.21698e-21 6.91141 	-0.24957 	1.31624e-20 6.90138 	-0.251539 	6.349e-21 6.8913 	-0.253505 	-3.39569e-22 6.88358 	-0.255063 	1.52404e-20 6.87982 	-0.256213 	3.8163e-20 6.87602 	-0.257364 	6.10853e-20 6.86576 	-0.259371 	3.70688e-20 6.85543 	-0.261377 	1.30474e-20 6.84804 	-0.262981 	-1.35903e-21 6.84402 	-0.264181 	-4.98081e-21 6.83996 	-0.265381 	-8.60433e-21 6.82946 	-0.267425 	-6.4576e-20 6.81889 	-0.269469 	-1.20549e-19 6.81181 	-0.271122 	-1.2962e-19 6.80752 	-0.27237 	-8.56878e-20 6.80319 	-0.273618 	-4.17555e-20 6.79243 	-0.2757 	-8.65582e-20 6.78193 	-0.27775 	-1.27504e-19 6.77521 	-0.279419 	-1.21275e-19 6.77027 	-0.280779 	-8.14706e-20 6.76565 	-0.282074 	-3.47071e-20 6.75464 	-0.284193 	-8.18129e-20 6.74535 	-0.286135 	-1.04061e-19 6.73837 	-0.287845 	-9.36445e-20 6.73222 	-0.289404 	-6.57313e-20 6.72731 	-0.290746 	-1.27014e-20 6.71603 	-0.292901 	-9.74436e-21 6.70798 	-0.294734 	-6.55754e-21 6.70072 	-0.296485 	-3.31373e-21 6.69339 	-0.298235 	-7.19098e-23 6.68813 	-0.299631 	0 6.67728 	-0.301753 	0 6.66978 	-0.303544 	0 6.66222 	-0.305335 	0 6.6546 	-0.307125 	0 6.64806 	-0.308726 	0 6.63849 	-0.310733 	-1.90802e-21 6.63069 	-0.312563 	-5.35714e-21 6.62283 	-0.314392 	-8.8081e-21 6.61491 	-0.316222 	-1.22609e-20 6.60706 	-0.318027 	-1.49097e-20 6.60573 	-0.318307 	-1.80596e-20 6.60461 	-0.318566 	-1.75242e-20 6.6035 	-0.318824 	-1.69883e-20 6.60238 	-0.319082 	-1.64518e-20 6.60128 	-0.319338 	-1.59203e-20 6.59389 	-0.320943 	-1.33991e-20 6.58644 	-0.322548 	-1.08624e-20 6.57895 	-0.324153 	-8.31003e-21 6.5714 	-0.325758 	-5.74198e-21 6.56476 	-0.327241 	-1.70345e-20 6.55543 	-0.329273 	-8.16777e-21 6.54649 	-0.331171 	8.04377e-22 6.53747 	-0.33307 	9.7744e-21 6.52838 	-0.334968 	1.87423e-20 6.52133 	-0.336602 	2.47253e-20 6.51108 	-0.338825 	1.84627e-20 6.50177 	-0.340759 	1.99366e-20 6.49239 	-0.342692 	2.13997e-20 6.4836 	-0.344543 	2.62054e-20 6.47672 	-0.346153 	4.09109e-20 6.46606 	-0.348412 	4.9118e-20 6.45582 	-0.350534 	5.24213e-20 6.44606 	-0.352501 	5.0123e-20 6.43812 	-0.354239 	3.2363e-20 6.43087 	-0.355885 	8.37552e-21 6.41982 	-0.358172 	2.93874e-20 6.40869 	-0.360459 	5.03893e-20 6.39892 	-0.362431 	4.25314e-20 6.39136 	-0.364112 	1.13575e-20 6.38374 	-0.365793 	-1.9825e-20 6.37229 	-0.368107 	-1.21049e-20 6.36076 	-0.370419 	-4.38746e-21 6.35123 	-0.372441 	2.40664e-21 6.34329 	-0.374154 	3.12802e-21 6.33529 	-0.375868 	3.85665e-21 6.32343 	-0.378206 	5.51868e-21 6.31193 	-0.38049 	7.10426e-21 6.30257 	-0.382516 	8.2819e-21 6.29386 	-0.384356 	1.24684e-20 6.28545 	-0.386099 	1.82294e-20 6.27317 	-0.38846 	1.36753e-20 6.26263 	-0.390609 	9.11189e-21 6.25286 	-0.392659 	4.5465e-21 6.24301 	-0.394708 	0 6.23419 	-0.396479 	0 6.22204 	-0.398795 	0 6.21193 	-0.400868 	0 6.20173 	-0.402941 	0 6.19146 	-0.405013 	0 6.18146 	-0.406995 	0 6.176 	-0.408029 	1.04302e-21 6.1712 	-0.408986 	3.34734e-21 6.16638 	-0.409943 	5.65246e-21 6.16154 	-0.4109 	7.95837e-21 6.15685 	-0.411824 	1.0188e-20 6.15129 	-0.412967 	1.23441e-20 6.14569 	-0.414111 	1.4499e-20 6.14008 	-0.415254 	1.66528e-20 6.13444 	-0.416396 	1.88053e-20 6.12886 	-0.417447 	2.38895e-20 6.11869 	-0.419668 	3.45658e-20 6.10815 	-0.42178 	3.78149e-20 6.09754 	-0.423892 	4.10876e-20 6.08684 	-0.426002 	4.43839e-20 6.07628 	-0.427851 	2.83026e-20 6.06614 	-0.430263 	3.08934e-20 6.05522 	-0.432412 	2.51319e-20 6.04415 	-0.434537 	1.86653e-20 6.0331 	-0.436537 	7.26515e-21 6.02212 	-0.438351 	-1.15286e-20 6.01152 	-0.44077 	-4.19375e-20 6.00069 	-0.443137 	-6.67769e-20 5.98917 	-0.445272 	-6.65539e-20 5.97778 	-0.447105 	-4.25522e-20 5.96632 	-0.44893 	-1.79664e-20 5.95525 	-0.451353 	2.12231e-20 5.94409 	-0.453774 	6.0403e-20 5.93265 	-0.455907 	5.81149e-2