/*--------------------------------*- C++ -*----------------------------------*\
  =========                 |
  \\      /  F ield         | OpenFOAM: The Open Source CFD Toolbox
   \\    /   O peration     | Website:  https://openfoam.org
    \\  /    A nd           | Version:  9
     \\/     M anipulation  |
\*---------------------------------------------------------------------------*/
FoamFile
{
    format      ascii;
    class       volVectorField;
    location    "8.72";
    object      U;
}
// * * * * * * * * * * * * * * * * * * * * * * * * * * * * * * * * * * * * * //

dimensions      [0 1 -1 0 0 0 0];

internalField   nonuniform List<vector> 
2268
(
(0.000646933 -0.000298919 0)
(0.00179973 -0.000254581 0)
(0.00276322 -0.000230261 0)
(0.00372403 -0.000233738 0)
(0.00467207 -0.000234745 0)
(0.00559268 -0.000236843 0)
(0.00649279 -0.000237099 0)
(0.00736428 -0.000231778 0)
(0.00817529 -0.000218391 0)
(0.008895 -0.000196949 0)
(0.00952978 -0.0001895 0)
(0.0101545 -0.000221993 0)
(0.0109236 -0.000307939 0)
(0.0119844 -0.000423895 0)
(0.0132887 -0.000477209 0)
(0.0144804 -0.000291046 0)
(0.0144177 0.000308076 0)
(0.0121071 0.00096019 0)
(0.00760804 0.00208243 0)
(-0.000458981 0.00253833 0)
(-0.00650196 0.000888493 0)
(-0.00739483 -0.000790869 0)
(-0.00379557 -0.00167333 0)
(0.000557822 -0.000860844 0)
(0.00167908 -0.00077141 0)
(0.00269131 -0.000716004 0)
(0.00368584 -0.000695405 0)
(0.00463769 -0.000677478 0)
(0.00553941 -0.000659715 0)
(0.00639551 -0.000636704 0)
(0.00719458 -0.000598918 0)
(0.0079132 -0.000541689 0)
(0.00852997 -0.00047492 0)
(0.00904918 -0.000435632 0)
(0.00952172 -0.000473679 0)
(0.0100426 -0.000612408 0)
(0.0106956 -0.000789567 0)
(0.0114301 -0.000811853 0)
(0.011974 -0.000325184 0)
(0.0115647 0.000948173 0)
(0.00941986 0.00238233 0)
(0.00604278 0.00410489 0)
(0.00152672 0.00469788 0)
(-0.0020419 0.00232027 0)
(-0.00450207 -0.000460209 0)
(-0.00367735 -0.00383034 0)
(0.000519264 -0.00135239 0)
(0.00163342 -0.00126044 0)
(0.00267114 -0.00119017 0)
(0.00368546 -0.00114516 0)
(0.00463928 -0.00110148 0)
(0.00552675 -0.00105724 0)
(0.00634974 -0.00100486 0)
(0.00709631 -0.000930247 0)
(0.00774602 -0.000827009 0)
(0.0082805 -0.000711401 0)
(0.0086979 -0.000632915 0)
(0.00902888 -0.000657988 0)
(0.00933775 -0.000816618 0)
(0.00968372 -0.00102045 0)
(0.0100414 -0.00100603 0)
(0.0102502 -0.000283886 0)
(0.00970202 0.00154428 0)
(0.00772923 0.003573 0)
(0.005115 0.00543817 0)
(0.00266 0.0059978 0)
(0.000461928 0.00355273 0)
(-0.00240608 0.00031063 0)
(-0.0026941 -0.00547936 0)
(0.000506323 -0.00185768 0)
(0.00161864 -0.00177027 0)
(0.00267425 -0.00168417 0)
(0.00370463 -0.00161088 0)
(0.00466367 -0.00153418 0)
(0.00554342 -0.00145552 0)
(0.0063435 -0.00136575 0)
(0.00705115 -0.00124572 0)
(0.00764613 -0.00108833 0)
(0.0081095 -0.000913338 0)
(0.00843144 -0.000779671 0)
(0.00862548 -0.000767027 0)
(0.00873649 -0.000913323 0)
(0.00881447 -0.00111609 0)
(0.00886943 -0.00107106 0)
(0.00886762 -0.000181066 0)
(0.0083467 0.00210863 0)
(0.00667002 0.00458697 0)
(0.00459608 0.00638368 0)
(0.00321299 0.0067799 0)
(0.00185848 0.00462435 0)
(-0.000839649 0.00123384 0)
(-0.00153668 -0.0064093 0)
(0.000508843 -0.00235714 0)
(0.00162384 -0.00228542 0)
(0.00269573 -0.00218665 0)
(0.00374284 -0.00208385 0)
(0.00471173 -0.00196966 0)
(0.00559042 -0.0018507 0)
(0.00637654 -0.00171702 0)
(0.00705543 -0.00154402 0)
(0.00760545 -0.00132467 0)
(0.00800577 -0.0010799 0)
(0.0082379 -0.000874944 0)
(0.00830006 -0.000800989 0)
(0.00822286 -0.000906609 0)
(0.00805144 -0.00108635 0)
(0.00782687 -0.00102496 0)
(0.00764675 -6.43008e-05 0)
(0.00724551 0.0025736 0)
(0.00594578 0.00542434 0)
(0.00430428 0.00707458 0)
(0.0034586 0.00722352 0)
(0.00253026 0.00549917 0)
(0.00033446 0.0020635 0)
(-0.00011696 -0.00665576 0)
(0.000521894 -0.00286524 0)
(0.00164674 -0.00280501 0)
(0.002738 -0.0026945 0)
(0.00380537 -0.00256174 0)
(0.00478971 -0.0024066 0)
(0.00567377 -0.00224241 0)
(0.00645353 -0.00205909 0)
(0.00711148 -0.00182599 0)
(0.00762392 -0.00153694 0)
(0.00796864 -0.00121202 0)
(0.00811907 -0.000919796 0)
(0.00805937 -0.000761824 0)
(0.00780771 -0.000799867 0)
(0.00740135 -0.000933422 0)
(0.00689437 -0.000862422 0)
(0.00648412 6.184e-05 0)
(0.00621647 0.00287418 0)
(0.0053912 0.00607925 0)
(0.0041801 0.00758805 0)
(0.0035646 0.00750999 0)
(0.00279835 0.00617146 0)
(0.00142223 0.00253638 0)
(0.00171607 -0.00629012 0)
(0.00053712 -0.00335347 0)
(0.00169313 -0.0033307 0)
(0.0028067 -0.00320972 0)
(0.00389839 -0.00304808 0)
(0.00490342 -0.00284927 0)
(0.00579782 -0.0026353 0)
(0.00657608 -0.00239677 0)
(0.00721758 -0.00209597 0)
(0.00769717 -0.00172937 0)
(0.00799317 -0.00131428 0)
(0.00807279 -0.00091966 0)
(0.00790779 -0.00065648 0)
(0.00750404 -0.000601462 0)
(0.00688497 -0.000661621 0)
(0.00609458 -0.000569171 0)
(0.00534949 0.000256066 0)
(0.00505376 0.00300184 0)
(0.00485273 0.00646099 0)
(0.00425265 0.00797487 0)
(0.00361561 0.00779114 0)
(0.0029843 0.00656615 0)
(0.00269835 0.00248867 0)
(0.00321134 -0.005418 0)
(0.000543038 -0.00395052 0)
(0.00176704 -0.00389256 0)
(0.00290645 -0.00375401 0)
(0.004025 -0.00356213 0)
(0.00505421 -0.00331423 0)
(0.00596082 -0.00304383 0)
(0.00673758 -0.00274227 0)
(0.00736202 -0.00236221 0)
(0.00780966 -0.0019084 0)
(0.00806236 -0.00139278 0)
(0.00808435 -0.000880755 0)
(0.00783777 -0.00049135 0)
(0.00731588 -0.000319623 0)
(0.00652299 -0.000278132 0)
(0.00547903 -0.000132229 0)
(0.00435107 0.000621585 0)
(0.00378548 0.00306799 0)
(0.00407149 0.00645053 0)
(0.00425319 0.00817068 0)
(0.00378504 0.00807045 0)
(0.00354633 0.0065835 0)
(0.00413762 0.00233679 0)
(0.00318386 -0.00382389 0)
(-0.0147356 0.00396414 0)
(-0.0164739 -0.000405025 0)
(-0.0105783 -0.00218278 0)
(-0.00430507 -0.00157245 0)
(-0.000630673 -0.00108225 0)
(0.00229638 -0.000839728 0)
(0.00399255 -0.000296321 0)
(0.00499255 -0.000333266 0)
(0.00608536 -0.000303865 0)
(0.00631563 -0.000115733 0)
(0.00529447 0.000694268 0)
(0.000828522 0.00256849 0)
(-0.00987819 0.00266547 0)
(-0.0147753 0.000272341 0)
(-0.0138961 -0.000446 0)
(-0.0121582 -0.000703168 0)
(-0.0105922 -0.000620819 0)
(-0.00924565 -0.00136548 0)
(-0.00150376 -0.000903547 0)
(-0.0136698 0.00945796 0)
(-0.0105553 -0.00114649 0)
(-0.00749423 -0.00379619 0)
(-0.00397531 -0.00287025 0)
(-0.00195253 -0.00192992 0)
(-0.000610943 -0.00135358 0)
(0.000338843 -0.000762304 0)
(0.00130017 -0.000667436 0)
(0.0017953 -0.000267761 0)
(0.000840047 0.000420193 0)
(-0.000872869 0.0015484 0)
(-0.00276924 0.00431612 0)
(-0.00705954 0.0046032 0)
(-0.00961998 0.0010992 0)
(-0.0105298 -0.000457178 0)
(-0.0102799 -0.00093161 0)
(-0.0106344 -0.000676069 0)
(-0.0113258 -0.00233751 0)
(-0.00576336 -0.00391193 0)
(-0.00811492 0.0133759 0)
(-0.00573968 -0.00212853 0)
(-0.0048965 -0.00477832 0)
(-0.00360359 -0.00357741 0)
(-0.00287467 -0.0023782 0)
(-0.002394 -0.0016333 0)
(-0.00199233 -0.00107799 0)
(-0.00141258 -0.000884782 0)
(-0.00126024 -6.37916e-05 0)
(-0.0025758 0.00113895 0)
(-0.00472061 0.00224168 0)
(-0.00564439 0.00481113 0)
(-0.00607128 0.00516743 0)
(-0.00695887 0.00177849 0)
(-0.00831252 -6.93811e-05 0)
(-0.00875868 -0.000674896 0)
(-0.00998174 -0.000182448 0)
(-0.0116228 -0.00297924 0)
(-0.00726265 -0.0081669 0)
(-0.00195861 0.0154236 0)
(-0.00143926 -0.00226306 0)
(-0.00286189 -0.00480297 0)
(-0.003423 -0.00364732 0)
(-0.00376212 -0.00244877 0)
(-0.00395732 -0.00166798 0)
(-0.00402376 -0.00120652 0)
(-0.00379177 -0.000973915 0)
(-0.0038004 0.000207148 0)
(-0.00507005 0.00188434 0)
(-0.00706482 0.00288629 0)
(-0.00742293 0.00474999 0)
(-0.00618483 0.00497708 0)
(-0.00591488 0.00214858 0)
(-0.00692607 0.000340327 0)
(-0.00730323 -0.000275712 0)
(-0.00860304 0.000496253 0)
(-0.0101258 -0.00355329 0)
(-0.00589836 -0.0121287 0)
(0.00352732 0.0149757 0)
(0.00177695 -0.00149082 0)
(-0.00164032 -0.00397825 0)
(-0.00359723 -0.00318443 0)
(-0.00476543 -0.00219181 0)
(-0.00551016 -0.00149215 0)
(-0.00598632 -0.00117296 0)
(-0.00605507 -0.000984208 0)
(-0.00609527 0.000463193 0)
(-0.0071168 0.00252303 0)
(-0.00862769 0.00333896 0)
(-0.00849488 0.00440921 0)
(-0.00670393 0.00441987 0)
(-0.00591004 0.00223471 0)
(-0.0062804 0.000509776 0)
(-0.0058694 -1.94302e-06 0)
(-0.00637802 0.00106444 0)
(-0.00736459 -0.00420229 0)
(-0.00367872 -0.0150851 0)
(0.00639317 0.0129437 0)
(0.0030445 -1.48562e-06 0)
(-0.00146611 -0.00255676 0)
(-0.00422807 -0.00234066 0)
(-0.00595025 -0.00168228 0)
(-0.00711292 -0.00113593 0)
(-0.00794494 -0.000993023 0)
(-0.00828405 -0.000946357 0)
(-0.00826355 0.000636024 0)
(-0.00891128 0.00300857 0)
(-0.0098501 0.00354721 0)
(-0.00923944 0.00391321 0)
(-0.00726356 0.00374806 0)
(-0.00633333 0.00214863 0)
(-0.00618457 0.000338376 0)
(-0.00469386 -0.000304911 0)
(-0.00358226 0.00118858 0)
(-0.00374932 -0.00469222 0)
(-0.00132907 -0.0168589 0)
(0.00604577 0.0110283 0)
(0.00221807 0.00184468 0)
(-0.00229127 -0.000901834 0)
(-0.00530951 -0.00130056 0)
(-0.00732587 -0.00101182 0)
(-0.00877423 -0.000636698 0)
(-0.00990466 -0.000678885 0)
(-0.0105326 -0.000863933 0)
(-0.0104305 0.000663561 0)
(-0.0105667 0.00330479 0)
(-0.0108702 0.00351514 0)
(-0.00982596 0.00329991 0)
(-0.00776606 0.00305046 0)
(-0.00677218 0.00198132 0)
(-0.00609539 -0.00015653 0)
(-0.00379475 -0.00124142 0)
(-0.00122076 0.000702379 0)
(-0.000167371 -0.00506991 0)
(0.0012728 -0.0172953 0)
(0.00320119 0.00961703 0)
(-6.98859e-05 0.00348176 0)
(-0.00384305 0.000662195 0)
(-0.00674016 -0.000210795 0)
(-0.00885944 -0.000258195 0)
(-0.010469 -3.2917e-05 0)
(-0.0118113 -0.000246761 0)
(-0.012771 -0.000674995 0)
(-0.0127054 0.000511456 0)
(-0.0122182 0.00330302 0)
(-0.0117066 0.00320585 0)
(-0.0102568 0.00258319 0)
(-0.00818484 0.0023103 0)
(-0.00693193 0.00165533 0)
(-0.00547619 -0.00102207 0)
(-0.00291673 -0.00241607 0)
(0.00036505 -0.000421857 0)
(0.00279444 -0.00555264 0)
(0.00368715 -0.0163995 0)
(0.000661103 -0.00480284 0)
(0.00194123 -0.00491413 0)
(0.00310321 -0.00471749 0)
(0.00426859 -0.00445956 0)
(0.00533773 -0.00411441 0)
(0.00625863 -0.00373802 0)
(0.00702085 -0.0033188 0)
(0.00760524 -0.00278501 0)
(0.00799555 -0.00217483 0)
(0.00818466 -0.00148493 0)
(0.00813962 -0.000765739 0)
(0.00781378 -0.000138784 0)
(0.00717775 0.000263838 0)
(0.00620721 0.000539012 0)
(0.00490357 0.000849192 0)
(0.00342325 0.00153917 0)
(0.00242889 0.0033011 0)
(0.00264917 0.00598345 0)
(0.00357853 0.00790617 0)
(0.00427656 0.00811694 0)
(0.00467873 0.00636964 0)
(0.00448286 0.00335524 0)
(0.00050341 0.0012158 0)
(0.000909677 -0.00581134 0)
(0.00223494 -0.00555237 0)
(0.00350712 -0.00537148 0)
(0.00474334 -0.00511805 0)
(0.00582499 -0.00468359 0)
(0.00669438 -0.0041724 0)
(0.00732497 -0.00362358 0)
(0.00774514 -0.00295452 0)
(0.00798734 -0.00221799 0)
(0.00807414 -0.00140177 0)
(0.00801947 -0.000529641 0)
(0.00780135 0.000306785 0)
(0.00733045 0.000971869 0)
(0.00650643 0.00155188 0)
(0.00529196 0.0020916 0)
(0.00379545 0.00268691 0)
(0.00249358 0.00362889 0)
(0.00215101 0.00503907 0)
(0.00300391 0.00631851 0)
(0.00432395 0.00669676 0)
(0.00483285 0.00591818 0)
(0.0036293 0.00510444 0)
(0.000346206 0.00480118 0)
(0.000863243 -0.00701794 0)
(0.00294164 -0.00669948 0)
(0.00442416 -0.00648114 0)
(0.00540033 -0.00620346 0)
(0.0061993 -0.00553719 0)
(0.00714574 -0.00471903 0)
(0.0079296 -0.00396421 0)
(0.00837785 -0.00317633 0)
(0.00855678 -0.00233172 0)
(0.0085821 -0.00142125 0)
(0.00858847 -0.000456678 0)
(0.0086342 0.000503467 0)
(0.00846782 0.0013816 0)
(0.00786803 0.00227293 0)
(0.00685779 0.00315609 0)
(0.00545724 0.0039181 0)
(0.00398939 0.00455363 0)
(0.00326459 0.00514104 0)
(0.00370066 0.00570329 0)
(0.00469516 0.00620554 0)
(0.00479388 0.00665441 0)
(0.00308128 0.00717551 0)
(4.96879e-05 0.00760747 0)
(-0.000724988 -0.0125671 0)
(0.00193946 -0.00801617 0)
(0.00423342 -0.00741948 0)
(0.00319662 -0.00674077 0)
(0.00199549 -0.00603543 0)
(0.00347507 -0.0052785 0)
(0.00554717 -0.00434711 0)
(0.00672418 -0.00339633 0)
(0.00713323 -0.0024246 0)
(0.00725206 -0.0014374 0)
(0.00736306 -0.000448888 0)
(0.00779905 0.000525331 0)
(0.00768805 0.00166108 0)
(0.00672699 0.00274213 0)
(0.00593747 0.00380463 0)
(0.00563522 0.00469024 0)
(0.00560959 0.00517646 0)
(0.00548997 0.005419 0)
(0.00457654 0.0057887 0)
(0.00366105 0.00623208 0)
(0.00338152 0.00725046 0)
(0.00277819 0.00837279 0)
(0.00136581 0.00897571 0)
(-0.0262012 -0.00346135 0)
(-0.0221807 -0.017215 0)
(-0.0238664 -0.0120465 0)
(-0.0315645 -0.00101146 0)
(-0.0349534 -0.0089373 0)
(-0.0303622 -0.0122261 0)
(-0.0242463 -0.010314 0)
(-0.0181455 -0.00631213 0)
(-0.0136287 -0.00384386 0)
(-0.0101545 -0.00220751 0)
(-0.00687513 -0.00150416 0)
(-0.00295265 -0.000867203 0)
(0.000404683 0.00327036 0)
(0.00293402 0.00521431 0)
(0.00647298 0.00561095 0)
(0.0102079 0.00587194 0)
(0.0120982 0.00652152 0)
(0.0112173 0.0067787 0)
(0.00658982 0.00947535 0)
(-0.000995687 0.00780669 0)
(-0.00498351 0.00962684 0)
(-0.00415123 0.0127422 0)
(-0.00115356 0.0200786 0)
(0.00126634 0.0265477 0)
(-0.00653545 -0.00464675 0)
(-0.0139294 -0.00530169 0)
(-0.0117566 0.00651173 0)
(-0.00823336 -0.00920284 0)
(-0.0117014 -0.0115353 0)
(-0.0185348 -0.0135902 0)
(-0.0207647 -0.0104438 0)
(-0.0202676 -0.00830727 0)
(-0.0189118 -0.00624452 0)
(-0.0180094 -0.00535392 0)
(-0.0178318 -0.00566058 0)
(-0.0152009 -0.00290318 0)
(-0.00971303 -0.00239245 0)
(-0.00516321 -0.00290717 0)
(-0.00343209 -0.00020186 0)
(-0.00597603 0.0059983 0)
(-0.0102589 0.0096732 0)
(-0.0111605 0.0150164 0)
(-0.0114954 0.0146773 0)
(-0.0142349 0.0106109 0)
(-0.0160236 0.00632552 0)
(-0.0149273 0.0120152 0)
(0.00988971 0.0096755 0)
(0.00394258 0.00222248 0)
(-0.00461269 -0.0028138 0)
(-0.00634358 -0.0013261 0)
(-0.00859415 -0.00798752 0)
(-0.0138432 -0.00418662 0)
(-0.0174128 -0.00700047 0)
(-0.0203847 -0.00788325 0)
(-0.0222127 -0.00780393 0)
(-0.0233251 -0.00635647 0)
(-0.0240817 -0.0048056 0)
(-0.0245055 -0.00510504 0)
(-0.0225693 -0.00761882 0)
(-0.018541 -0.00697504 0)
(-0.0155217 -0.00358612 0)
(-0.0143848 0.00268031 0)
(-0.014074 0.0100827 0)
(-0.014652 0.0122583 0)
(-0.0155734 0.013898 0)
(-0.0159677 0.0152651 0)
(-0.0165069 0.0127898 0)
(-0.0178991 0.00856283 0)
(-0.0187839 0.00950429 0)
(0.00440499 0.00767547 0)
(0.00210752 0.00690554 0)
(-0.00229847 0.00430582 0)
(-0.00545546 0.00373975 0)
(-0.00867666 -0.00136292 0)
(-0.0125093 -0.0021423 0)
(-0.0150664 -0.00385549 0)
(-0.0177016 -0.00492182 0)
(-0.0198266 -0.00538364 0)
(-0.021162 -0.0047961 0)
(-0.0216465 -0.00404993 0)
(-0.0215509 -0.00507417 0)
(-0.0214081 -0.00888242 0)
(-0.0214421 -0.00856838 0)
(-0.021643 -0.00455919 0)
(-0.0214707 0.00132312 0)
(-0.0201039 0.00813251 0)
(-0.0187031 0.0120187 0)
(-0.0180173 0.0140103 0)
(-0.0172922 0.0147127 0)
(-0.0167906 0.0128428 0)
(-0.017244 0.00958026 0)
(-0.017681 0.00775922 0)
(6.76026e-05 0.00705316 0)
(-0.000893169 0.00846555 0)
(-0.00290527 0.00691397 0)
(-0.00497115 0.00549845 0)
(-0.00743526 0.00203347 0)
(-0.0102027 0.000225089 0)
(-0.0123635 -0.00144321 0)
(-0.0145201 -0.00266369 0)
(-0.0163335 -0.00371864 0)
(-0.0175055 -0.00394077 0)
(-0.0179973 -0.00393367 0)
(-0.0183036 -0.00504326 0)
(-0.0195676 -0.00759156 0)
(-0.021681 -0.00725423 0)
(-0.0232078 -0.0038393 0)
(-0.0234576 0.00075939 0)
(-0.0223755 0.00617824 0)
(-0.0207168 0.0105853 0)
(-0.0192422 0.0129906 0)
(-0.0179452 0.0136291 0)
(-0.0170643 0.0123539 0)
(-0.0169841 0.00983641 0)
(-0.0170874 0.00717456 0)
(-0.00123988 0.00844732 0)
(-0.00210249 0.00943712 0)
(-0.00326707 0.00856088 0)
(-0.00449491 0.00704826 0)
(-0.00616659 0.00440331 0)
(-0.00816448 0.00225844 0)
(-0.00998977 0.000527603 0)
(-0.0117379 -0.000850113 0)
(-0.0132501 -0.0023307 0)
(-0.0144385 -0.00302109 0)
(-0.0153732 -0.00330535 0)
(-0.0164038 -0.00408923 0)
(-0.0181608 -0.0053511 0)
(-0.0204316 -0.00504041 0)
(-0.0220689 -0.00281255 0)
(-0.0225688 0.000616679 0)
(-0.0220081 0.00493728 0)
(-0.0206864 0.00898532 0)
(-0.0191307 0.0114885 0)
(-0.0176711 0.0123538 0)
(-0.0165571 0.0116232 0)
(-0.0159999 0.00962018 0)
(-0.015689 0.00658625 0)
(-0.00123665 0.0102162 0)
(-0.0021422 0.0103789 0)
(-0.00305924 0.00958877 0)
(-0.00392574 0.00814652 0)
(-0.00510807 0.00601286 0)
(-0.00660953 0.00391779 0)
(-0.00812875 0.00216403 0)
(-0.00954954 0.000627279 0)
(-0.0108822 -0.00100242 0)
(-0.0121868 -0.00182101 0)
(-0.0134797 -0.00208389 0)
(-0.0148888 -0.00259113 0)
(-0.0167121 -0.00321128 0)
(-0.0187853 -0.00301672 0)
(-0.0203036 -0.00179526 0)
(-0.0208352 0.000680691 0)
(-0.0204587 0.00414321 0)
(-0.0194155 0.00762651 0)
(-0.0180472 0.0100035 0)
(-0.0166069 0.0109839 0)
(-0.0152881 0.0105782 0)
(-0.0142227 0.00890579 0)
(-0.0133357 0.00585973 0)
(-0.000907603 0.0116876 0)
(-0.00177157 0.011325 0)
(-0.0025988 0.0104007 0)
(-0.00334802 0.00902384 0)
(-0.00429461 0.00719835 0)
(-0.00548033 0.00527595 0)
(-0.00671692 0.00350234 0)
(-0.00788112 0.00185665 0)
(-0.00911342 0.000334453 0)
(-0.0105273 -0.000395071 0)
(-0.0119758 -0.000624121 0)
(-0.013444 -0.000986695 0)
(-0.0151066 -0.00132238 0)
(-0.0168625 -0.0012634 0)
(-0.0182398 -0.000807308 0)
(-0.0188808 0.000824091 0)
(-0.0186907 0.00350889 0)
(-0.0178254 0.00648835 0)
(-0.0166081 0.00865328 0)
(-0.0152242 0.00955672 0)
(-0.0137763 0.00923432 0)
(-0.0123773 0.00773172 0)
(-0.0111189 0.00494807 0)
(-0.00061396 0.0127875 0)
(-0.00134529 0.0121868 0)
(-0.00209681 0.0111443 0)
(-0.00279311 0.00981142 0)
(-0.00361682 0.00816989 0)
(-0.00459963 0.00639486 0)
(-0.00562113 0.00460251 0)
(-0.00663933 0.00295191 0)
(-0.0078354 0.0016783 0)
(-0.00925068 0.00110224 0)
(-0.010661 0.000811567 0)
(-0.0120128 0.000493764 0)
(-0.0134073 0.000246657 0)
(-0.0148 0.000190988 0)
(-0.016048 0.000244995 0)
(-0.0168595 0.00117267 0)
(-0.0169368 0.00307521 0)
(-0.0163077 0.00550681 0)
(-0.015232 0.00740938 0)
(-0.0139107 0.00812404 0)
(-0.0124628 0.00775904 0)
(-0.0110295 0.00635714 0)
(-0.00978403 0.00392443 0)
(-0.00039773 0.0135741 0)
(-0.000965156 0.0129185 0)
(-0.0016222 0.0118259 0)
(-0.00225809 0.0105324 0)
(-0.00298643 0.00901278 0)
(-0.00383227 0.0073463 0)
(-0.00472879 0.00555489 0)
(-0.00570902 0.00401537 0)
(-0.00689808 0.00299644 0)
(-0.00821468 0.00249674 0)
(-0.00947706 0.00211085 0)
(-0.0106609 0.00176561 0)
(-0.0118056 0.00149884 0)
(-0.0128976 0.00135175 0)
(-0.0139432 0.00130028 0)
(-0.014789 0.00173173 0)
(-0.0151392 0.0029559 0)
(-0.0148414 0.0047619 0)
(-0.0139625 0.00626732 0)
(-0.0127432 0.00676602 0)
(-0.0114121 0.00635402 0)
(-0.0101388 0.00508338 0)
(-0.0091182 0.00303482 0)
(-0.000214248 0.0140974 0)
(-0.000646671 0.0135035 0)
(-0.00119153 0.0124253 0)
(-0.00175525 0.0111765 0)
(-0.00239415 0.00975266 0)
(-0.00313702 0.00818926 0)
(-0.0039959 0.00647172 0)
(-0.00499784 0.00509316 0)
(-0.00614923 0.00424521 0)
(-0.00732614 0.00371494 0)
(-0.00841888 0.0032471 0)
(-0.00943896 0.00284092 0)
(-0.0103994 0.00251307 0)
(-0.0112941 0.002287 0)
(-0.0121306 0.00218959 0)
(-0.0128754 0.00237774 0)
(-0.0133403 0.00311681 0)
(-0.0132734 0.00429091 0)
(-0.0126195 0.00528989 0)
(-0.0116005 0.00557575 0)
(-0.0104782 0.00514478 0)
(-0.00943367 0.00404291 0)
(-0.0086447 0.00238001 0)
(-8.28138e-05 0.0144085 0)
(-0.000392281 0.0139469 0)
(-0.000826275 0.0129348 0)
(-0.0013195 0.0117434 0)
(-0.00188608 0.0104079 0)
(-0.00255517 0.0089582 0)
(-0.00339341 0.00741084 0)
(-0.00440301 0.00616962 0)
(-0.00547589 0.00537731 0)
(-0.00650209 0.00476796 0)
(-0.00744816 0.0042304 0)
(-0.00833143 0.0037606 0)
(-0.00915606 0.00336797 0)
(-0.00991905 0.00307128 0)
(-0.0106227 0.00290565 0)
(-0.0112393 0.0029642 0)
(-0.0116422 0.00336245 0)
(-0.0116483 0.00401019 0)
(-0.0111954 0.00454461 0)
(-0.0104273 0.00462412 0)
(-0.0095528 0.00417795 0)
(-0.00874152 0.00323336 0)
(-0.00814336 0.00189239 0)
(-1.8348e-05 0.0145666 0)
(-0.000198998 0.014264 0)
(-0.00054723 0.0133639 0)
(-0.000984969 0.0122495 0)
(-0.00150472 0.0110049 0)
(-0.00213002 0.00967656 0)
(-0.00291717 0.0083269 0)
(-0.00385355 0.00719237 0)
(-0.004811 0.00637018 0)
(-0.00570507 0.00568712 0)
(-0.00653442 0.00508767 0)
(-0.0073071 0.0045593 0)
(-0.00802423 0.00410677 0)
(-0.00868255 0.00374513 0)
(-0.00927624 0.0035027 0)
(-0.00977546 0.00343141 0)
(-0.0100938 0.00356853 0)
(-0.0101181 0.00383608 0)
(-0.00980978 0.004021 0)
(-0.00925753 0.00391622 0)
(-0.00860822 0.00344561 0)
(-0.00799907 0.00262055 0)
(-0.00754786 0.00152019 0)
(3.94405e-05 0.0146155 0)
(-6.62673e-05 0.0144891 0)
(-0.000358412 0.0137347 0)
(-0.000755274 0.012712 0)
(-0.00123615 0.0115609 0)
(-0.00181798 0.0103491 0)
(-0.00252554 0.00915275 0)
(-0.00333577 0.00809635 0)
(-0.00416224 0.00723428 0)
(-0.00494414 0.00649535 0)
(-0.00567289 0.00584074 0)
(-0.00635007 0.00525787 0)
(-0.00697442 0.00474831 0)
(-0.00754096 0.00432234 0)
(-0.00803896 0.00399787 0)
(-0.0084407 0.00379863 0)
(-0.00868924 0.00372827 0)
(-0.00871909 0.00372519 0)
(-0.0085112 0.00366047 0)
(-0.0081221 0.00340754 0)
(-0.00765143 0.00290716 0)
(-0.00720139 0.00216286 0)
(-0.0068598 0.00123088 0)
(7.61653e-05 0.0145962 0)
(-1.41357e-05 0.0146679 0)
(-0.000268361 0.01406 0)
(-0.000614782 0.0131301 0)
(-0.00104439 0.0120689 0)
(-0.00156354 0.0109576 0)
(-0.00217704 0.00986377 0)
(-0.00286131 0.00886027 0)
(-0.00356148 0.00798079 0)
(-0.00423518 0.00720119 0)
(-0.00486859 0.00649956 0)
(-0.00545724 0.00586664 0)
(-0.00599683 0.00530232 0)
(-0.00648043 0.00481237 0)
(-0.00689578 0.0044058 0)
(-0.0072199 0.00409002 0)
(-0.0074162 0.00385572 0)
(-0.00744839 0.00365676 0)
(-0.00730947 0.00341303 0)
(-0.00703711 0.00304636 0)
(-0.00669843 0.00251551 0)
(-0.00636637 0.00182116 0)
(-0.00610425 0.00100183 0)
(6.29632e-05 0.014564 0)
(-2.57094e-05 0.0148353 0)
(-0.000251066 0.0143354 0)
(-0.000533993 0.0134913 0)
(-0.000899969 0.0125126 0)
(-0.00134394 0.0114838 0)
(-0.00186033 0.0104624 0)
(-0.00242853 0.00949755 0)
(-0.00301289 0.00861417 0)
(-0.00358348 0.00780753 0)
(-0.00412518 0.00706822 0)
(-0.00462977 0.00639114 0)
(-0.00509044 0.00577579 0)
(-0.00549891 0.00522469 0)
(-0.00584325 0.00474094 0)
(-0.00610564 0.00432381 0)
(-0.0062629 0.00396039 0)
(-0.00629553 0.00361701 0)
(-0.00620288 0.00324293 0)
(-0.0060111 0.00278948 0)
(-0.00576558 0.00222936 0)
(-0.00551721 0.00156264 0)
(-0.00531076 0.000815328 0)
(2.24937e-05 0.01456 0)
(-5.63121e-05 0.0149931 0)
(-0.000247161 0.0145599 0)
(-0.000476218 0.0137908 0)
(-0.000778385 0.0128846 0)
(-0.00114546 0.011923 0)
(-0.00156918 0.0109566 0)
(-0.00203315 0.0100228 0)
(-0.00251337 0.00914225 0)
(-0.00298816 0.00831888 0)
(-0.00344317 0.00755081 0)
(-0.00386862 0.00683631 0)
(-0.00425618 0.00617523 0)
(-0.00459703 0.00556831 0)
(-0.00488037 0.00501542 0)
(-0.00509274 0.00451252 0)
(-0.00521945 0.0040472 0)
(-0.00525027 0.00359537 0)
(-0.00518739 0.00312443 0)
(-0.00504937 0.00260386 0)
(-0.00486715 0.00201616 0)
(-0.00467586 0.00136146 0)
(-0.00450676 0.00065738 0)
(-5.7251e-05 0.0146019 0)
(-8.74646e-05 0.0151172 0)
(-0.000234288 0.0147413 0)
(-0.000422444 0.0140343 0)
(-0.000665764 0.0131874 0)
(-0.000960021 0.0122796 0)
(-0.00129881 0.0113564 0)
(-0.00167024 0.0104487 0)
(-0.00205786 0.00957482 0)
(-0.00244558 0.00874218 0)
(-0.00282069 0.007953 0)
(-0.00317312 0.00720794 0)
(-0.00349405 0.00650742 0)
(-0.00377468 0.00585152 0)
(-0.00400552 0.00523881 0)
(-0.00417639 0.00466457 0)
(-0.0042778 0.00411849 0)
(-0.00430441 0.00358364 0)
(-0.00425928 0.00303896 0)
(-0.0041557 0.00246527 0)
(-0.00401488 0.00185154 0)
(-0.00386095 0.00119818 0)
(-0.00371559 0.000517241 0)
(-0.000120723 0.014692 0)
(-0.000113593 0.0151955 0)
(-0.000221617 0.0148861 0)
(-0.000370616 0.0142275 0)
(-0.000557679 0.013426 0)
(-0.000783588 0.0125601 0)
(-0.00104527 0.0116717 0)
(-0.00133485 0.010787 0)
(-0.00164083 0.00992218 0)
(-0.00195097 0.00908581 0)
(-0.00225423 0.008282 0)
(-0.00254095 0.00751286 0)
(-0.00280237 0.00677947 0)
(-0.0030301 0.00608194 0)
(-0.00321585 0.00541876 0)
(-0.00335171 0.0047858 0)
(-0.00343125 0.00417529 0)
(-0.00345161 0.00357566 0)
(-0.00341569 0.00297335 0)
(-0.003333 0.00235638 0)
(-0.00321808 0.00171799 0)
(-0.00308751 0.00105877 0)
(-0.00295623 0.00038709 0)
(-0.000112159 0.0148099 0)
(-0.000134882 0.0152531 0)
(-0.000219968 0.0149963 0)
(-0.000322338 0.0143704 0)
(-0.000451912 0.0136025 0)
(-0.000612693 0.0127701 0)
(-0.000804343 0.0119112 0)
(-0.00102179 0.0110481 0)
(-0.00125662 0.0101946 0)
(-0.00149902 0.00935893 0)
(-0.00173932 0.00854601 0)
(-0.00196845 0.00775873 0)
(-0.00217802 0.0069988 0)
(-0.00236013 0.00626676 0)
(-0.00250749 0.00556167 0)
(-0.00261369 0.00488063 0)
(-0.00267406 0.00421828 0)
(-0.00268686 0.00356708 0)
(-0.00265443 0.00291852 0)
(-0.00258345 0.00226527 0)
(-0.00248393 0.00160335 0)
(-0.00236721 0.000933513 0)
(-0.00224359 0.000261646 0)
(-0.000109321 0.0149325 0)
(-0.000149811 0.0153221 0)
(-0.00022495 0.0150686 0)
(-0.000271274 0.0144594 0)
(-0.000342232 0.0137174 0)
(-0.0004416 0.0129145 0)
(-0.000570515 0.0120834 0)
(-0.000725401 0.0112421 0)
(-0.000899445 0.0104023 0)
(-0.00108424 0.00957122 0)
(-0.00127103 0.00875392 0)
(-0.00145127 0.00795376 0)
(-0.00161696 0.00717301 0)
(-0.00176073 0.00641287 0)
(-0.00187602 0.00567333 0)
(-0.00195741 0.00495287 0)
(-0.00200119 0.00424834 0)
(-0.00200604 0.00355525 0)
(-0.00197361 0.00286856 0)
(-0.00190854 0.00218407 0)
(-0.00181767 0.00149963 0)
(-0.00170877 0.000816119 0)
(-0.00158894 0.000137749 0)
(-0.000120706 0.0150595 0)
(-0.000162019 0.0154007 0)
(-0.00021274 0.015097 0)
(-0.000202367 0.0144923 0)
(-0.000218008 0.0137735 0)
(-0.000262325 0.0129998 0)
(-0.000337236 0.0121969 0)
(-0.000439745 0.0113792 0)
(-0.000563698 0.0105556 0)
(-0.000701348 0.00973268 0)
(-0.000844431 0.00891506 0)
(-0.000984802 0.00810649 0)
(-0.0011148 0.00730982 0)
(-0.00122749 0.00652706 0)
(-0.00131686 0.00575922 0)
(-0.00137812 0.00500623 0)
(-0.00140807 0.00426686 0)
(-0.0014055 0.00353896 0)
(-0.00137143 0.00282002 0)
(-0.00130899 0.00210796 0)
(-0.00122285 0.00140195 0)
(-0.00111836 0.000702908 0)
(-0.00100043 1.39495e-05 0)
(-0.000146074 0.0151983 0)
(-0.000158731 0.0154581 0)
(-0.000157819 0.0150775 0)
(-9.97217e-05 0.0144729 0)
(-6.83415e-05 0.0137777 0)
(-6.70012e-05 0.0130348 0)
(-9.83223e-05 0.0122622 0)
(-0.000159474 0.0114702 0)
(-0.00024444 0.0106656 0)
(-0.000345656 0.00985366 0)
(-0.000455056 0.00903902 0)
(-0.000564717 0.00822565 0)
(-0.000667252 0.00741702 0)
(-0.000756062 0.00661599 0)
(-0.000825549 0.00582472 0)
(-0.000871345 0.00504449 0)
(-0.000890544 0.00427575 0)
(-0.000881907 0.00351824 0)
(-0.000845939 0.00277131 0)
(-0.000784718 0.00203445 0)
(-0.000701458 0.00130772 0)
(-0.000599876 0.00059216 0)
(-0.000483428 -0.000109901 0)
(-0.000134461 0.0153299 0)
(-0.000100236 0.015465 0)
(-4.85186e-05 0.0150148 0)
(4.50087e-05 0.0144105 0)
(0.000113027 0.0137405 0)
(0.000149396 0.0130303 0)
(0.000150523 0.0122904 0)
(0.000119308 0.0115265 0)
(6.20443e-05 0.0107431 0)
(-1.35065e-05 0.00994464 0)
(-9.92191e-05 0.00913546 0)
(-0.000187251 0.00831995 0)
(-0.000270416 0.00750228 0)
(-0.000342397 0.00668627 0)
(-0.000397921 0.00587517 0)
(-0.000432927 0.0050716 0)
(-0.000444706 0.00427749 0)
(-0.000431983 0.0034941 0)
(-0.000394903 0.00272228 0)
(-0.000334849 0.00196268 0)
(-0.000254081 0.00121607 0)
(-0.000155263 0.00048357 0)
(-4.08991e-05 -0.000233006 0)
(-8.32601e-05 0.0154056 0)
(1.28283e-05 0.0154132 0)
(0.000100489 0.0149162 0)
(0.000226498 0.0143147 0)
(0.000325439 0.0136716 0)
(0.000387986 0.0129972 0)
(0.000411054 0.0122929 0)
(0.000398588 0.0115595 0)
(0.000357913 0.0107994 0)
(0.000297486 0.010016 0)
(0.000225746 0.00921387 0)
(0.000150573 0.00839791 0)
(7.90088e-05 0.00757311 0)
(1.71046e-05 0.00674428 0)
(-3.0153e-05 0.00591583 0)
(-5.89677e-05 0.00509162 0)
(-6.6813e-05 0.00427489 0)
(-5.24178e-05 0.00346825 0)
(-1.57228e-05 0.00267374 0)
(4.23037e-05 0.00189296 0)
(0.000119975 0.00112725 0)
(0.000215268 0.00037782 0)
(0.000326268 -0.000353909 0)
(-3.39244e-05 0.0153914 0)
(0.000139454 0.0153076 0)
(0.000273385 0.0147787 0)
(0.000435876 0.0141868 0)
(0.000565052 0.0135766 0)
(0.000647658 0.0129441 0)
(0.000683104 0.01228 0)
(0.000678573 0.0115802 0)
(0.000643726 0.010845 0)
(0.000588332 0.0100777 0)
(0.000521395 0.00928332 0)
(0.000450891 0.00846761 0)
(0.000383702 0.00763658 0)
(0.000325608 0.00679611 0)
(0.000281281 0.00595177 0)
(0.000254241 0.00510859 0)
(0.000246838 0.00427102 0)
(0.000260268 0.00344285 0)
(0.000294656 0.00262718 0)
(0.000349225 0.00182639 0)
(0.000422581 0.0010423 0)
(0.000513031 0.000276213 0)
(0.000618994 -0.000470774 0)
(2.26097e-05 0.0152852 0)
(0.000263907 0.0151421 0)
(0.000461871 0.0145924 0)
(0.000669848 0.014021 0)
(0.000830752 0.0134577 0)
(0.000927554 0.0128787 0)
(0.000965424 0.0122622 0)
(0.000957892 0.0115994 0)
(0.000918453 0.0108903 0)
(0.000858683 0.0101392 0)
(0.00078822 0.00935218 0)
(0.000715057 0.00853645 0)
(0.000645818 0.00769916 0)
(0.000585928 0.00684734 0)
(0.000539703 0.00598768 0)
(0.000510366 0.00512636 0)
(0.000500053 0.00426895 0)
(0.000509837 0.00342029 0)
(0.000539798 0.00258443 0)
(0.000589187 0.00176449 0)
(0.000656678 0.00096269 0)
(0.000740684 0.000180404 0)
(0.000839751 -0.000581577 0)
(9.19863e-05 0.0150882 0)
(0.000391985 0.0149056 0)
(0.000667651 0.014346 0)
(0.00093112 0.0138097 0)
(0.00112446 0.0133171 0)
(0.00122702 0.01281 0)
(0.00125532 0.0122504 0)
(0.00123327 0.0116279 0)
(0.00117934 0.010945 0)
(0.00110685 0.0102088 0)
(0.00102577 0.00942781 0)
(0.000943822 0.00861084 0)
(0.000867163 0.00776646 0)
(0.000800742 0.00690286 0)
(0.000748455 0.0060278 0)
(0.000713203 0.00514852 0)
(0.000696893 0.00427163 0)
(0.000700444 0.00340298 0)
(0.000723831 0.00254749 0)
(0.000766217 0.00170899 0)
(0.000826181 0.000890084 0)
(0.000902049 9.21848e-05 0)
(0.000992341 -0.000684264 0)
(0.000169151 0.0147976 0)
(0.000540261 0.0145863 0)
(0.000904145 0.0140269 0)
(0.00122892 0.0135446 0)
(0.00144903 0.013161 0)
(0.00154311 0.0127509 0)
(0.00154684 0.0122576 0)
(0.00149866 0.0116765 0)
(0.00142169 0.0110177 0)
(0.00132996 0.0102936 0)
(0.00123294 0.00951612 0)
(0.00113765 0.00869592 0)
(0.00104951 0.00784302 0)
(0.000972859 0.00696671 0)
(0.000911127 0.00607572 0)
(0.000866886 0.00517824 0)
(0.00084183 0.00428182 0)
(0.000836743 0.00339326 0)
(0.000851485 0.00251836 0)
(0.000885072 0.00166165 0)
(0.000935869 0.000826175 0)
(0.00100195 1.33401e-05 0)
(0.00108167 -0.000776854 0)
(0.000273604 0.0143926 0)
(0.000759939 0.0141727 0)