/*--------------------------------*- C++ -*----------------------------------*\
  =========                 |
  \\      /  F ield         | OpenFOAM: The Open Source CFD Toolbox
   \\    /   O peration     | Website:  https://openfoam.org
    \\  /    A nd           | Version:  9
     \\/     M anipulation  |
\*---------------------------------------------------------------------------*/
FoamFile
{
    format      ascii;
    class       volVectorField;
    location    "36.35";
    object      U;
}
// * * * * * * * * * * * * * * * * * * * * * * * * * * * * * * * * * * * * * //

dimensions      [0 1 -1 0 0 0 0];

internalField   nonuniform List<vector> 
918
(
(2.47629 -0.138943 0)
(0.108704 0.722546 0)
(0.171804 1.05402 0)
(2.31834 0.153728 0)
(-0.0596727 1.27076 -1.22321e-19)
(-0.0924034 0.643931 -5.3137e-18)
(0.530072 0.849719 -2.95298e-19)
(0.274313 0.152869 -2.98832e-20)
(3.00615 -0.0195607 0)
(-0.00827317 0.477055 0)
(-0.0172393 0.589743 0)
(0.605211 0.00676638 0)
(0.0107054 0.439105 0)
(-0.00288244 0.421689 0)
(0.013437 0.340814 -1.30507e-18)
(-0.00468868 0.768562 -9.20438e-20)
(0.312396 0.0742683 2.15203e-18)
(0.0797492 0.642614 -2.22887e-19)
(1.52884 0.128628 0)
(-0.0267212 0.685634 0)
(0.194583 0.157717 -1.26548e-18)
(3.08302 -0.397373 0)
(2.92445 -0.50598 0)
(1.86116 -0.1811 0)
(0.511381 0.0400857 0)
(-0.0253686 0.52155 0)
(-0.00135313 0.494038 1.86234e-18)
(-0.0223857 1.40084 0)
(0.0749818 2.88432 0)
(0.168311 1.73693 0)
(-0.0381889 3.16487 0)
(0.027355 1.64003 9.40533e-20)
(0.0233474 0.686481 0)
(-0.147425 0.775094 -2.03081e-22)
(-0.193914 1.0291 4.42114e-18)
(-0.0415772 1.04471 0)
(0.744578 -0.00600496 0)
(0.160998 0.246299 6.65499e-19)
(0.993588 1.5132 6.52727e-19)
(0.649997 0.784448 -5.15917e-19)
(0.798679 1.57539 6.19833e-20)
(0.416859 0.851521 -3.20024e-19)
(0.552303 0.306553 2.93896e-20)
(0.296959 0.153641 0)
(0.963033 0.566594 0)
(0.532581 0.303936 1.32008e-19)
(0.257966 0.162784 -1.3546e-19)
(0.871596 -0.0554787 0)
(3.02784 -0.00170478 0)
(3.00685 0.0178656 0)
(3.20086 -0.417733 0)
(3.04288 -0.0742117 0)
(3.03116 -0.0388406 0)
(0.018593 0.902904 -1.14618e-18)
(-0.054266 0.974519 0)
(0.00283736 0.455179 0)
(-0.0291706 0.981643 0)
(-0.0114135 0.48145 0)
(-0.00135898 0.869658 0)
(-0.0521353 1.1114 0)
(-0.012561 0.542018 0)
(-0.0253851 1.16284 0)
(-0.00593191 0.622049 0)
(0.79048 0.0116245 0)
(1.16942 -0.00156163 0)
(0.618247 0.0123698 0)
(1.12578 0.0175987 0)
(0.569758 0.00867947 0)
(0.225406 0.921982 1.95971e-18)
(0.0985379 1.2081 0)
(0.176302 1.06604 0)
(0.0331901 0.755774 2.19923e-23)
(0.0372233 0.498055 -2.93092e-18)
(0.0194616 0.747943 0)
(0.00595421 0.422033 0)
(-0.000695291 0.734548 4.5172e-24)
(0.000702489 0.414825 0)
(-0.0169204 0.743179 0)
(-0.0129372 0.42798 0)
(0.0494336 0.649972 0)
(0.0484368 0.458218 0)
(0.00800464 0.621948 1.23392e-18)
(0.000744445 0.344903 0)
(-0.0675529 4.6917 0)
(0.00896231 1.4578 9.13804e-20)
(-0.0104488 0.785223 -1.17639e-19)
(0.636082 0.152146 -7.50909e-19)
(0.321612 0.0656844 -7.28671e-19)
(0.644786 0.169721 -2.25454e-18)
(0.31753 0.0955704 -1.45149e-18)
(0.0785195 0.618346 0)
(0.178558 1.31396 1.84822e-19)
(0.179719 0.730329 -2.94886e-19)
(2.06031 0.260946 0)
(1.10704 0.11845 0)
(3.03313 0.103887 0)
(3.10392 0.446059 0)
(2.83919 0.377459 -1.01275e-17)
(2.5781 0.361309 7.771e-18)
(-0.0706534 1.26345 0)
(-0.0113307 0.623441 0)
(-0.0138033 1.9008 0)
(-0.0507264 1.34693 0)
(-0.0480079 0.679197 0)
(0.440307 0.295625 4.00648e-19)
(0.225462 0.163358 0)
(2.2961 -0.266393 0)
(1.32372 -0.119273 0)
(1.07632 0.012669 0)
(1.01198 0.0187649 0)
(0.540922 0.0108513 0)
(1.01987 0.0563999 0)
(0.821213 0.0703255 0)
(0.343622 0.0286956 3.36283e-18)
(-0.00543499 0.451601 1.7734e-18)
(-0.0270312 0.784627 0)
(-0.0473174 0.847507 0)
(-0.0152739 0.460435 0)
(0.000132503 0.839725 1.81589e-18)
(7.30142e-05 0.48753 0)
(-0.0054789 0.845554 -5.59006e-18)
(-0.00488634 0.496761 1.88624e-18)
(0.0547641 3.5665 0)
(0.0434827 4.0255 0)
(-0.0162236 1.41047 -2.05145e-21)
(-0.0130524 1.36311 0)
(-0.00977411 0.74135 0)
(1.41018 0.0348844 0)
(0.760549 0.0154388 0)
(0.709514 0.0142644 0)
(1.41618 -0.0328481 0)
(0.773515 -0.00873969 0)
(0.322051 0.480342 -8.35558e-19)
(0.156804 0.232717 0)
(0.324953 0.509157 9.36418e-20)
(0.163357 0.268428 0)
(1.24082 1.38692 1.66427e-19)
(0.778699 0.740871 -3.92389e-19)
(0.411608 1.42223 0)
(0.607208 1.53411 0)
(0.303558 0.814842 0)
(0.145325 0.353368 -4.42811e-19)
(0.6073 0.280717 0)
(0.313509 0.134638 3.98803e-19)
(1.42734 1.30676 0)
(1.58669 1.16856 0)
(0.87492 0.663928 4.61682e-19)
(1.73393 0.953109 0)
(1.0686 0.43878 2.32222e-20)
(1.47298 0.00813854 0)
(1.501 -0.029239 0)
(0.801896 -0.00441617 0)
(1.95042 -0.199779 0)
(1.65082 -0.14818 0)
(1.05215 -0.0889696 0)
(3.06126 0.164853 0)
(3.03105 0.0687875 0)
(3.01022 0.0531594 0)
(0.035706 1.60542 6.08162e-19)
(0.0178653 0.826917 0)
(0.0179262 1.69603 1.07968e-18)
(0.00302235 0.938738 -9.70661e-19)
(0.0646799 1.15247 1.87745e-19)
(0.04771 0.989331 0)
(0.0401844 0.528769 0)
(-0.0286844 1.00571 0)
(-0.00699281 0.51762 0)
(0.0181321 1.61533 -4.43275e-21)
(-0.0180616 0.865432 0)
(-0.0539541 1.58385 -2.25773e-19)
(-0.0161249 0.820597 4.37264e-19)
(-0.00178961 1.03001 0)
(0.0102739 1.04423 0)
(5.03981e-05 0.531692 0)
(0.0106588 1.17133 0)
(0.000907572 0.612567 0)
(1.46831 -0.00370324 0)
(0.789219 0.00805996 0)
(1.44055 0.0331663 0)
(0.761793 -0.000557481 0)
(0.675382 0.00534462 0)
(1.26195 0.0166822 0)
(1.20239 0.0473083 0)
(0.65969 0.0155561 0)
(-0.00580051 1.42077 -1.702e-20)
(0.000184323 1.37708 0)
(0.00482013 0.732923 0)
(0.00172892 0.417221 0)
(0.284434 0.828749 0)
(0.253614 0.39973 -2.87115e-19)
(-0.00223273 0.635408 0)
(-0.00889721 0.367611 0)
(0.0118506 4.33805 0)
(-0.0484188 4.66414 0)
(-0.0178527 4.56607 0)
(-0.0718363 3.36735 2.04071e-20)
(-0.0576848 4.60275 0)
(-0.0515172 4.17986 0)
(0.00483828 0.818956 1.08125e-20)
(0.0142085 1.56211 1.65376e-19)
(-0.0358522 1.50263 1.20863e-19)
(-0.0074479 0.825757 0)
(0.664426 0.105708 1.15324e-18)
(0.325684 0.0441634 -1.13019e-18)
(0.14965 1.13327 0)
(0.100933 0.573364 -2.69215e-19)
(0.1181 1.23309 -8.74222e-19)
(0.05184 0.687055 8.69722e-19)
(0.809201 0.0240635 0)
(1.55677 0.0476796 0)
(1.7097 0.127652 0)
(0.919845 0.0445228 0)
(0.00793391 1.1825 0)
(0.0258321 1.19056 0)
(0.00450069 0.628013 0)
(0.482103 0.315076 1.20355e-18)
(0.436839 0.309077 -1.38661e-18)
(0.234764 0.164172 0)
(1.93551 0.153003 1.15232e-19)
(1.13643 0.0932526 0)
(1.72436 0.118444 0)
(0.883731 0.0226955 0)
(0.67817 0.0857386 0)
(0.699712 0.0460597 -5.4073e-18)
(0.346727 0.0325964 1.99893e-18)
(0.00914743 0.807284 1.69358e-18)
(0.00222282 0.46251 4.08166e-20)
(-0.0108777 1.40842 -3.57988e-20)
(0.00613617 1.38675 1.36581e-18)
(-0.0149832 0.848955 6.29409e-20)
(-0.0119261 0.524486 -2.52895e-22)
(-0.107514 1.00068 -1.16483e-18)
(-0.0529602 1.3532 8.33957e-19)
(-0.0175323 1.35275 -1.3577e-18)
(1.42274 -0.0170845 0)
(1.44236 0.0203186 0)
(0.769872 -0.000177525 0)
(1.45218 0.0253834 0)
(1.36319 0.0462298 0)
(0.761541 0.0203071 0)
(1.30062 -0.00215352 0)
(1.31867 -0.00584862 0)
(0.695054 -0.000986385 0)
(0.304849 0.473393 -9.15163e-19)
(0.161354 0.242674 0)
(0.157149 0.308421 1.36928e-19)
(0.309579 0.585874 1.12208e-18)
(0.307395 0.548562 -6.64281e-19)
(0.156816 0.281891 1.2981e-18)
(0.278468 0.717663 2.18138e-18)
(0.148253 0.380834 3.93598e-19)
(0.636085 0.213092 1.53739e-18)
(0.625988 0.253602 3.99301e-19)
(0.316619 0.115045 7.49236e-19)
(1.92132 0.714642 -5.99625e-19)
(1.1677 0.336109 -7.01846e-19)
(-0.0351252 1.70298 4.6408e-19)
(-0.0114095 0.924717 0)
(1.6039 0.0239537 0)
(1.52191 0.065373 0)
(0.852935 0.026859 0)
(-0.00355883 1.38473 0)
(0.00507422 0.729574 2.495e-18)
(0.00465032 0.731252 0)
(0.00207079 0.415097 -2.44204e-18)
(-0.0102751 1.38627 5.95624e-19)
(-0.00947264 1.4225 0)
(0.336541 0.488127 2.57941e-19)
(0.36003 0.54639 -8.62946e-19)
(0.171831 0.257812 7.81095e-19)
(-0.0256693 0.767468 -1.66252e-18)
(-0.0261519 0.689734 0)
(-0.0154343 0.412938 0)
(0.0302168 1.54776 -1.27028e-20)
(0.0314035 1.58037 -3.64864e-19)
(0.0178896 0.822442 -1.55891e-20)
(0.213322 1.04393 8.89909e-19)
(0.119632 0.508962 -5.92188e-19)
(0.0118613 1.48458 7.3049e-19)
(0.0557978 1.35058 -8.15306e-19)
(0.0267993 0.760252 3.53028e-20)
(0.00751361 1.36614 -3.80734e-18)
(-0.000214787 1.39326 4.40912e-18)
(0.00377339 0.829776 1.73282e-18)
(-0.0138288 0.805094 -1.72528e-18)
(-0.00430906 0.481399 -1.73846e-18)
(-0.0106511 1.41685 -4.49953e-18)
(-0.0152177 1.40032 4.58872e-18)
(0.286342 0.674745 0)
(0.299752 0.634589 -2.28751e-18)
(0.151927 0.331698 9.90261e-19)
(0.281182 0.795887 1.1849e-18)
(0.138788 0.42747 -1.8283e-18)
(2.05701 0.322588 4.1581e-19)
(2.05157 0.547736 0)
(1.21866 0.220985 -4.01761e-19)
(-0.0738482 1.63495 -4.80117e-21)
(-0.0141354 1.69033 0)
(-0.0157243 0.921738 0)
(0.227045 0.944359 -3.22742e-19)
(0.248191 0.866385 -7.068e-19)
(0.128783 0.463214 1.32459e-18)
(3.16442 -0.442872 0)
(3.34728 -0.414685 1.81277e-18)
(0.0623901 3.48473 0)
(0.0488558 2.80867 0)
(3.15925 0.249915 1.4192e-20)
(3.12355 0.506296 3.71205e-18)
(0.0234489 3.43214 -2.73874e-20)
(0.00931108 2.66383 0)
(-0.0416468 1.19604 1.55489e-18)
(0.190058 1.31637 0)
(3.47263 1.62512 -3.2472e-19)
(3.17427 0.272573 -2.96098e-20)
(3.14838 -0.118696 0)
(3.10047 -0.00040397 3.73119e-22)
(0.043902 2.59053 0)
(0.15743 3.30042 0)
(-0.0549512 2.53472 0)
(-0.0230402 3.48797 3.15752e-19)
(-0.0248636 3.56891 1.99232e-19)
(2.63343 0.0488321 -1.36492e-20)
(3.04751 0.0311535 0)
(3.15793 0.0868417 0)
(-0.0507575 4.61731 0)
(-0.0457115 3.08278 0)
(-0.0718109 2.93643 0)
(0.652564 3.10613 2.65605e-19)
(3.33884 -0.422458 0)
(3.0114 -0.34581 0)
(3.1699 -0.0530367 2.27716e-18)
(3.2927 -0.3287 -2.74195e-18)
(3.1038 -0.125776 0)
(-0.0566297 4.51577 0)
(0.0168409 3.93578 0)
(0.00880382 4.26622 0)
(-0.0265353 3.09694 0)
(-0.0128812 2.85218 0)
(-0.0305026 2.42521 0)
(2.97423 -0.00316921 0)
(2.85043 0.0486288 -1.805e-20)
(2.24693 3.04945 -3.21479e-19)
(3.15695 0.0444553 -2.27822e-18)
(3.19037 0.278179 2.7693e-18)
(3.0828 0.117338 0)
(3.3954 0.328926 2.08725e-18)
(3.35695 0.484366 -2.7065e-18)
(3.07111 0.418429 0)
(-0.0547276 3.34619 0)
(0.00583711 3.27632 8.51769e-20)
(-0.0302691 2.57517 -6.03474e-20)
(3.70791 0.555324 2.26536e-18)
(3.47099 0.208502 0)
(-0.151984 1.27126 -2.16578e-18)
(-0.0624337 0.88216 -1.35025e-19)
(-0.0848394 1.33672 2.98539e-18)
(-0.0352372 1.27045 -8.99554e-19)
(-0.000496459 1.08841 0)
(-0.0266646 1.23955 6.94809e-19)
(-0.115054 1.38786 2.1464e-18)
(-0.05905 1.34056 -1.31405e-18)
(-0.0767368 1.32063 0)
(1.28928 0.597212 0)
(1.17725 0.682376 0)
(3.55666 2.02952 9.53451e-19)
(3.0499 1.93601 -1.19049e-18)
(3.83774 1.70663 0)
(3.38429 1.15687 0)
(3.34934 0.280496 -3.91674e-18)
(2.89884 0.173121 4.83966e-18)
(3.35145 -0.155478 0)
(2.85479 -0.0761355 0)
(3.43642 0.0430265 0)
(3.5938 0.145057 0)
(3.28683 0.119875 0)
(3.55033 0.298581 0)
(3.40841 0.293059 0)
(3.32755 0.218074 0)
(0.0972732 2.79212 0)
(0.0343242 2.08062 0)
(0.126563 3.0529 0)
(0.0927619 2.20662 0)
(0.214722 3.59355 0)
(0.140089 2.67367 -5.58528e-19)
(0.0532796 3.60983 0)
(0.0112745 3.01335 4.05582e-19)
(-0.0244328 3.20236 -5.16987e-19)
(-0.0589924 2.79945 0)
(-0.0228695 2.20201 0)
(-0.0719128 2.9071 0)
(-0.0555185 2.04985 0)
(-0.106778 4.74916 -2.45536e-19)
(-0.0790843 3.93997 2.77268e-19)
(-0.0743019 3.80083 3.09067e-19)
(-0.0526705 3.01494 0)
(-0.104408 3.80229 -4.58644e-19)
(-0.037084 3.21346 -2.95045e-19)
(-0.0808744 4.78151 1.92535e-19)
(-0.0933825 4.46448 -3.5046e-19)
(-0.0686024 4.33423 -3.7892e-19)
(3.03133 0.088389 3.3585e-18)
(2.28959 0.032183 -4.22965e-18)
(2.89131 0.132847 -3.32742e-18)
(2.20957 0.0734902 4.15615e-18)
(3.36858 0.0277291 0)
(2.64307 -0.0026502 0)
(3.45416 0.0913605 0)
(3.32025 0.0192925 0)
(2.70666 0.00922904 0)
(3.68031 0.239651 0)
(3.43884 0.096008 0)
(2.8637 0.0565211 0)
(-0.0210355 4.33504 -1.20274e-20)
(-0.0538075 4.65324 0)
(-0.0591446 4.54888 0)
(-0.0746698 3.50367 8.77109e-20)
(-0.037322 2.7771 -3.465e-21)
(-0.0791349 4.66998 1.13485e-19)
(-0.0931813 4.45865 -1.14683e-19)
(-0.0770341 3.95681 0)
(-0.0551864 3.87701 0)
(-0.0187083 3.9937 0)
(-0.0707197 3.25736 0)
(-0.0425705 2.30203 0)
(0.948797 3.66258 -6.08581e-19)
(0.921358 2.85394 -1.76267e-19)
(0.43011 2.05236 -2.28148e-19)
(0.252099 2.29856 6.96826e-19)
(1.02331 4.19966 2.63784e-19)
(3.43308 -0.167421 0)
(3.32213 -0.256546 0)
(2.88327 -0.189515 0)
(3.47032 -0.0643455 0)
(3.34581 -0.147864 0)
(3.44893 -0.261022 0)
(3.5195 -0.283601 0)
(3.57949 -0.281129 0)
(3.22413 0.0933887 3.61879e-18)
(2.55519 0.0645188 -4.57591e-18)
(3.09649 0.106579 -3.56225e-18)
(2.50909 0.0566756 4.43243e-18)
(2.24 3.41733 0)
(1.73985 2.94884 -4.45451e-19)
(2.56699 3.34917 -4.03099e-19)
(2.36974 2.52983 5.35761e-19)
(0.774413 1.2129 2.72193e-18)
(1.44675 0.216477 1.34309e-18)
(3.72257 0.304264 0)
(3.89316 0.572841 -1.84586e-18)
(3.29902 0.243967 -8.23346e-20)
(3.72079 0.440159 0)
(0.236572 1.31232 1.7959e-18)
(-0.0166668 1.20198 -2.87606e-18)
(0.0587903 0.769957 1.61437e-18)
(0.275916 0.464891 -7.47766e-19)
(0.187224 1.38373 8.70905e-19)
(0.0506331 1.23716 0)
(0.0577272 1.08615 -1.13217e-18)
(0.191686 1.44296 -4.09171e-18)
(0.328962 1.55694 0)
(0.00867328 1.2902 1.19576e-19)
(-0.0097174 1.45729 -1.34011e-18)
(-0.0410144 1.30282 1.94824e-18)
(-0.0574433 1.41766 0)
(-0.0204757 1.38228 0)
(0.681028 1.04981 0)
(2.45663 2.45508 -1.0661e-18)
(2.64423 2.17394 3.95157e-19)
(2.79265 2.88278 0)
(3.21305 3.06784 -3.94514e-19)
(3.16607 2.41194 2.84648e-20)
(0.803625 0.589294 -1.8222e-18)
(1.55578 0.691424 -1.62181e-20)
(1.23283 0.450978 8.72073e-19)
(1.27491 0.843564 5.94995e-20)
(0.938716 0.633769 -2.36925e-18)
(1.46412 0.714101 0)
(1.98967 1.09965 1.4558e-18)
(2.03183 1.01561 0)
(1.41166 0.790624 0)
(1.06186 0.54963 0)
(3.37537 2.18024 1.00841e-18)
(3.94759 0.760957 -1.86319e-18)
(3.84794 1.21615 0)
(3.5339 0.757832 0)
(1.3913 0.364748 1.33238e-18)
(3.25789 1.84223 -8.51428e-19)
(2.8342 1.65438 1.5467e-18)
(3.75521 1.37711 -1.83573e-18)
(3.09793 0.114762 2.46384e-18)
(3.16856 0.180818 -2.57879e-18)
(2.66183 0.0916429 0)
(3.30731 -0.039495 0)
(3.20141 -0.0842557 -2.36638e-18)
(2.63244 -0.0321093 2.34553e-18)
(3.95629 0.093208 0)
(3.75968 0.145656 0)
(3.69369 0.155374 0)
(3.5883 0.204749 0)
(3.83261 0.0590328 0)
(3.72611 0.0522538 0)
(-0.0401423 2.51425 0)
(-0.0377527 2.01314 0)
(0.357005 3.99028 -4.11308e-19)
(0.662943 3.33548 -1.5995e-19)
(0.259713 3.02959 -3.57873e-19)
(0.343898 2.54963 5.73229e-19)
(0.458318 4.01619 0)
(0.469824 4.67199 -5.09833e-19)
(0.383006 4.73043 0)
(0.910902 4.37498 -3.79461e-19)
(0.6729 3.81363 9.68713e-19)
(0.597167 4.65374 4.46902e-19)
(0.740825 4.20241 -1.87477e-19)
(0.602679 4.3278 1.5084e-19)
(0.916418 4.65787 -6.63689e-19)
(0.749834 4.66205 0)
(0.858449 4.5899 5.04479e-19)
(0.00701291 4.57131 -1.81133e-19)
(-0.0185486 3.64542 0)
(0.101514 4.28627 5.49599e-19)
(-0.0028362 4.38896 0)
(-0.00362758 3.45722 -4.51e-19)
(-0.0152571 2.91057 0)
(-0.100015 4.30972 -2.89113e-19)
(-0.105631 4.68189 0)
(-0.0530099 3.80754 0)
(-0.0398245 3.72995 3.25174e-19)
(-0.0468897 3.8863 1.03836e-20)
(-0.034586 3.70755 6.25859e-19)
(-0.0410255 2.94771 4.06838e-21)
(-0.113549 4.71017 1.80194e-19)
(-0.102426 4.74195 1.03221e-19)
(-0.016609 2.62463 0)
(0.00133435 2.13666 0)
(-0.0414472 4.78934 4.86245e-19)
(-0.048271 4.31023 4.23928e-19)
(-0.0828455 4.58583 -5.54174e-19)
(0.0164453 4.75857 0)
(-0.0773903 4.53449 -3.0892e-19)
(-0.116815 4.16745 1.27647e-19)
(-0.0840138 4.24821 -4.12801e-20)
(-0.0696855 4.72907 -2.18907e-19)
(-0.0848903 4.26931 -6.85578e-20)
(-0.0833127 4.21421 3.06636e-19)
(2.87141 0.0610252 -2.36346e-18)
(2.85887 0.0497084 2.27293e-18)
(2.33859 0.0345587 0)
(3.51008 0.19204 3.0464e-18)
(2.70366 0.126547 -3.30463e-18)
(2.25448 0.0644881 3.60943e-18)
(3.68247 0.335347 -4.01624e-19)
(3.2099 -0.0485194 0)
(3.17213 -0.0135463 2.23693e-18)
(2.69091 -0.0123738 -2.21929e-18)
(3.87877 0.122256 -1.25233e-19)
(3.77177 0.101866 1.07829e-18)
(4.15977 0.173506 0)
(4.22847 0.181166 -3.75118e-19)
(4.01369 0.145247 0)
(3.69489 0.155414 0)
(4.0323 0.0950924 0)
(3.71179 0.087337 0)
(4.18472 0.113898 7.85471e-19)
(4.1372 0.079147 -1.74785e-18)
(4.14067 0.1139 -8.47976e-19)
(4.1864 0.116542 -9.24453e-19)
(4.2157 0.229033 1.77399e-18)
(3.85475 0.188643 0)
(4.06129 0.301941 0)
(-0.0712431 4.57981 -1.35711e-19)
(-0.0312852 4.64423 -1.16766e-20)
(-0.0644525 4.6608 0)
(-0.0540426 4.1959 1.38093e-19)
(-0.0522331 4.22364 2.25276e-20)
(-0.057122 4.09151 -2.18333e-20)
(-0.0798258 3.52579 2.61148e-19)
(-0.142794 4.00586 -1.45129e-20)
(-0.101638 4.13335 7.47539e-20)
(-0.0737213 3.40175 -1.3225e-19)
(-0.0245386 2.92423 1.58382e-19)
(-0.0743841 4.42921 5.20894e-21)
(-0.0873571 4.64256 1.72198e-19)
(1.24333 4.36019 3.47356e-19)
(1.15948 4.52895 7.26009e-19)
(1.73681 3.4668 4.30741e-19)
(1.30882 3.56125 1.69446e-19)
(1.2866 2.89007 0)
(0.548291 2.31821 2.74848e-19)
(0.463421 1.74115 3.30638e-19)
(0.344916 2.56661 1.50879e-20)
(0.491866 3.17236 -1.16116e-18)
(0.631317 3.13141 8.76388e-19)
(0.432563 2.40383 0)
(0.293442 1.9714 -5.5718e-19)
(0.259642 3.07671 1.39449e-18)
(0.273181 2.71866 -3.1379e-20)
(0.157799 2.27541 -1.74773e-18)
(0.591302 1.41084 1.46318e-18)
(0.576229 1.61654 0)
(3.58364 -0.0751493 8.64311e-20)
(3.61861 -0.254101 -7.25948e-20)
(3.72135 -0.217712 -1.26652e-18)
(3.75927 -0.126018 1.28239e-18)
(3.67616 -0.0488552 0)
(2.4463 3.87167 0)
(2.61781 3.91474 0)
(2.88945 3.62563 0)
(2.73612 3.64273 0)
(0.854086 1.39427 -3.33969e-21)
(0.611425 1.03897 0)
(1.70875 3.3839 1.502e-20)
(1.42063 3.46288 0)
(1.32627 2.95007 -1.28359e-18)
(1.40676 2.8928 8.24333e-19)
(1.79125 0.310396 0)
(1.43043 0.262016 3.52048e-19)
(2.41163 0.358828 2.19168e-18)
(1.78605 0.284835 -7.8539e-19)
(1.4263 0.112198 -2.49487e-18)
(4.26631 0.790108 -2.56535e-18)
(3.85195 0.995215 -3.67211e-20)
(3.29689 0.844639 2.06774e-18)
(3.87577 0.745475 1.81319e-18)
(3.12305 0.465689 -3.0449e-18)
(2.91021 0.452162 3.74971e-19)
(3.19247 0.682316 -8.1868e-19)
(2.97607 0.683406 0)
(3.75866 0.563997 1.53758e-18)
(4.09565 0.629411 0)
(4.09117 0.776487 0)
(4.04578 0.415931 8.23633e-19)
(4.29665 0.642599 -3.02466e-20)
(4.24947 0.715923 -4.52858e-19)
(4.1766 0.643306 0)
(3.61567 0.130421 1.71811e-18)
(4.19 0.183607 2.14411e-18)
(4.09068 0.151665 -1.67935e-18)
(4.13651 0.240885 -1.4428e-18)
(3.74573 0.238221 -2.15629e-18)
(3.30287 0.37597 0)
(3.40342 0.302415 0)
(2.55811 0.190652 -1.266e-18)
(2.10846 0.119116 4.76747e-19)
(4.03722 0.352635 1.94026e-18)
(4.28774 0.432862 -2.34638e-18)
(4.28488 0.489491 2.06881e-18)
(4.15713 0.493548 0)
(4.25664 0.337317 0)
(4.26651 0.322403 -9.819e-19)
(4.2143 0.316173 -1.59645e-18)
(2.22659 3.48711 6.20439e-19)
(1.93735 3.23071 -6.83314e-19)
(1.44556 2.35529 -1.03181e-18)
(1.18627 1.99616 2.66825e-19)
(0.883692 1.37805 -2.62848e-18)
(0.793607 1.21536 9.22058e-19)
(0.600726 0.903876 -1.97204e-21)
(1.11446 1.78461 -1.13777e-18)
(1.14177 1.8817 1.69847e-18)
(0.974288 1.70003 5.06037e-19)
(0.785893 1.28857 -5.12652e-19)
(0.635376 1.07435 0)
(2.44548 2.60673 -1.15428e-19)
(0.705128 1.14418 8.57181e-19)
(0.927704 0.889678 1.15612e-18)
(0.755235 0.813585 1.33766e-18)
(1.08305 0.746497 1.34108e-18)
(1.46685 1.04428 -2.27015e-18)
(1.38288 1.07117 1.83932e-18)
(1.00176 0.765485 -6.76714e-19)
(0.817005 0.56799 1.49456e-18)
(1.61548 0.490748 -7.78077e-19)
(1.55893 0.508321 0)
(1.23953 0.40733 4.60573e-21)
(2.50913 1.51587 7.75521e-19)
(2.07974 1.27012 -2.80845e-18)
(1.68659 1.18436 9.0867e-21)
(1.66065 1.09231 0)
(2.86198 2.59507 8.73753e-19)
(3.44674 2.75291 1.03741e-18)
(3.25575 2.93079 -1.19588e-18)
(3.5542 2.76347 -4.28356e-19)
(3.4843 2.60377 -1.34881e-19)
(3.51246 2.79521 1.38773e-19)
(3.6742 2.26707 -1.67933e-18)
(3.70518 2.49211 4.00715e-19)
(3.78367 2.4359 0)
(3.78446 2.19166 -5.7967e-19)
(4.04895 1.07334 5.80529e-19)
(4.27597 0.99319 1.0021e-18)
(4.30041 0.966899 1.01161e-18)
(4.05502 1.32936 -1.14956e-18)
(4.10288 1.3498 0)
(4.15253 1.23376 0)
(3.32765 1.23573 -1.56067e-20)
(2.41769 0.666488 0)
(2.72182 0.744042 9.3061e-19)
(3.23823 0.885954 -2.64567e-20)
(3.77286 1.53469 5.10719e-18)
(3.56976 1.76191 1.31106e-18)
(3.4809 1.54048 -1.3406e-18)
(3.0373 1.36977 1.43736e-18)
(2.76059 1.36964 8.23724e-19)
(2.30651 1.15588 -7.97759e-19)
(3.67221 -0.0855425 1.98455e-18)
(3.8947 -0.0289321 0)
(3.85894 -0.0665485 1.34202e-18)
(3.74291 -0.0594082 -2.98764e-18)
(3.98056 0.0373781 1.46192e-18)
(3.90444 0.113427 -3.08283e-18)
(3.73986 0.128037 0)
(3.55625 0.173471 -6.28524e-19)
(3.81197 0.122982 1.60522e-18)
(3.69195 0.191385 -8.22529e-19)
(3.6003 0.171079 5.90694e-19)
(-0.0801729 2.59277 0)
(-0.0467533 3.39998 0)
(-0.0319154 2.46362 0)
(-0.0215771 1.97211 0)
(0.0462788 3.94231 6.70642e-19)
(0.140149 3.72378 -1.72931e-19)
(0.317233 4.64493 -2.29736e-19)
(0.253006 4.46238 2.42635e-19)
(-0.0247618 4.2951 -4.97559e-19)
(0.0122295 4.32714 3.73624e-19)
(0.0958543 3.87111 2.22706e-20)
(0.00994847 3.5586 -4.67083e-19)
(-0.0122955 3.31038 -6.22661e-20)
(-0.0390732 3.67259 -5.67402e-20)
(0.153249 4.47423 -5.86969e-19)
(0.178447 4.28761 0)
(0.275741 4.63465 2.96411e-19)
(0.268965 4.70947 2.52978e-19)
(0.59587 4.4441 -2.26019e-19)
(0.408021 3.7797 0)
(0.45717 3.62756 -1.11478e-18)
(0.559812 3.99643 7.89913e-19)
(0.480048 4.56163 -6.14789e-19)
(0.370453 4.43186 3.30764e-19)
(0.299396 4.1533 0)
(-0.0342284 4.76166 -5.53265e-19)
(-0.0740382 4.5259 -6.41453e-19)
(-0.075178 4.73926 0)
(-0.0284373 4.35885 -6.24747e-21)
(-0.018527 4.64073 2.7427e-19)
(-0.118028 3.88325 4.47131e-20)
(-0.054895 3.48798 -6.53884e-19)
(-0.0950511 3.92606 1.74199e-19)
(-0.134929 4.51877 2.32419e-19)
(-0.0755392 4.32919 0)
(-0.0592823 3.88813 0)
(-0.081866 2.89994 2.00911e-19)
(-0.0471946 3.6336 -6.26936e-20)
(-0.072367 3.62104 0)
(-0.0879374 2.68889 1.58186e-19)
(-0.0462029 2.19522 -3.06496e-19)
(3.76103 0.0323495 0)
(3.7319 0.00775164 -2.0327e-19)
(4.1795 0.0679724 -1.4399e-18)
(4.08911 0.0463226 0)
(3.87634 0.0178333 0)
(4.14973 0.0370671 -1.2525e-20)
(4.1003 0.0349605 2.37886e-18)
(4.0001 0.0802231 2.84559e-18)
(3.75586 0.118678 0)
(3.55801 0.110063 0)
(4.01332 0.093975 1.41744e-18)
(3.70324 0.11615 0)
(3.47209 0.128886 0)
(-0.0806609 4.69946 0)
(-0.106071 4.66803 1.0672e-20)
(-0.0765368 4.7196 6.29656e-20)
(-0.0603596 3.8338 0)
(-0.111712 4.53637 1.11257e-19)
(-0.0674245 4.24188 -6.33842e-20)
(-0.0535986 3.9312 0)
(1.41003 4.18545 0)
(1.20929 4.58052 -1.298e-18)
(1.2246 4.48824 0)
(1.5739 4.48726 1.48436e-18)
(1.59328 4.12148 0)
(1.50164 4.37174 -6.06518e-19)
(1.0113 2.24236 -3.39448e-20)
(0.709043 1.64519 -1.74449e-18)
(0.590588 1.22734 2.12844e-18)
(0.708598 1.8347 3.9677e-19)
(0.974855 2.42381 0)
(1.03623 2.37891 0)
(0.718256 1.6871 0)
(0.532243 1.32993 -1.39508e-18)
(1.2085 3.7745 -9.8339e-19)
(1.1286 2.98853 -2.35479e-19)
(1.32669 3.40459 1.92582e-19)
(0.59914 2.04053 0)
(0.620093 1.94233 0)
(0.462141 1.57088 -3.92674e-19)
(0.95748 2.72007 0)
(2.6871 3.57099 0)
(2.38112 3.00845 -1.4545e-18)
(2.54576 3.02685 -8.58712e-20)
(2.4196 3.40426 0)
(2.28549 3.14925 2.22101e-18)
(3.27798 3.08683 -3.89682e-19)
(3.13406 3.32508 0)
(3.11645 3.15145 6.30413e-19)
(2.87041 3.4127 0)
(2.88189 3.20076 0)
(1.20909 2.00606 -9.30363e-19)
(1.41386 2.40305 -6.99485e-19)
(1.75335 2.98149 1.20593e-18)
(1.69553 2.95948 -3.62224e-19)
(1.06226 1.822 0)
(1.20667 2.2082 4.7108e-19)
(0.718334 1.28854 -7.15155e-19)
(0.581552 1.04334 -5.60212e-22)
(1.93704 3.69545 0)
(2.19889 3.74284 -5.4258e-19)
(2.33812 3.98622 0)
(2.28407 0.529021 0)
(1.61734 0.34191 0)
(1.20901 0.276587 0)
(2.20912 0.554268 -1.46518e-18)
(1.63527 0.402197 8.17204e-19)
(2.14561 0.129125 -9.85119e-19)
(2.62659 0.297533 0)
(2.46566 0.30165 4.13468e-19)
(1.76987 0.13572 1.63292e-18)
(1.53025 0.0812685 -1.03699e-18)
(0.745489 1.55582 8.57988e-19)
(0.959702 1.82028 0)
(0.537614 1.43995 1.56077e-18)
(0.523804 1.61476 -1.42514e-18)
(0.757113 1.8144 -9.88281e-19)
(2.07324 2.46253 1.33762e-18)
(2.09658 2.71192 0)
(1.58336 1.67801 -2.7633e-19)
(2.00956 1.98935 1.74497e-18)
(1.35976 1.29252 -4.23555e-19)
(1.58856 1.31338 4.5066e-19)
(2.10949 1.51318 1.02312e-18)
(2.44263 1.67093 0)
(2.27592 1.85604 0)
(2.00982 1.60597 0)
(3.9568 2.07992 3.84473e-19)
(3.75979 1.8898 -1.26349e-18)
(3.8172 2.02813 1.04671e-18)
(3.90105 1.77152 -1.00826e-18)
(4.15789 1.67393 0)
(4.11697 1.84114 -2.97817e-19)
(2.84042 1.16333 -1.8972e-18)
(2.97079 1.16344 -2.41289e-18)
(2.33193 1.04356 1.45635e-18)
(2.13822 0.934431 -1.41976e-18)
(2.46346 0.846176 -1.17806e-18)
(2.17853 0.776945 1.44877e-18)
(4.00845 0.0334778 -1.52883e-18)
(4.05276 0.0406921 3.13008e-18)
(3.76797 -0.065879 1.90083e-18)
(3.79119 -0.0737697 -2.28668e-18)
(3.95955 0.0105769 0)
(4.05604 0.0228815 -3.72966e-18)
(0.0965521 4.76148 1.06544e-19)
(0.0673724 4.73215 0)
(0.18941 4.73147 9.53521e-19)
(0.210988 4.74924 -8.67481e-19)
(0.230884 4.7191 4.28437e-19)
(0.121879 4.6592 0)
(-0.100724 4.77115 0)
(-0.106519 4.40454 -6.18483e-20)
(-0.105415 4.33382 5.54365e-20)
(-0.114144 4.4826 7.18623e-21)
(-0.104825 4.72124 -1.01164e-19)
(-0.0819564 4.70887 5.5087e-20)
(1.87528 4.00954 -1.64317e-18)
(1.81624 4.01603 1.74009e-18)
(1.68394 4.40661 -8.54192e-19)
(1.69263 4.27726 7.61201e-20)
(2.25267 4.08665 0)
(1.85456 4.22026 -6.3543e-19)
(1.98181 3.9601 6.16274e-19)
(1.82384 4.38115 8.34388e-19)
(2.07657 4.2194 0)
(2.22802 4.1004 0)
(1.13806 3.63051 1.49492e-18)
(0.826418 2.81095 2.02311e-18)
(0.95413 2.98932 -1.38946e-18)
(0.746343 2.97094 -2.31873e-19)
(0.902169 3.73001 4.66265e-19)
(0.721881 3.36249 -1.13391e-18)
(0.745613 1.46549 -1.21465e-18)
(0.746094 1.31672 0)
(0.60245 1.11432 -1.33508e-18)
(1.11072 2.06368 0)
(1.08768 2.15061 0)
(1.35837 2.19066 -1.09049e-18)
(1.06431 2.01401 -1.0359e-18)
(1.01667 2.03491 1.09858e-18)
(1.03094 1.51906 0)
(1.41014 1.76162 -6.01171e-19)
(1.62704 2.11881 -8.55367e-19)
(1.41058 2.08242 0)
(0.867664 1.81829 7.12387e-19)
(0.779581 1.67938 0)
(2.90584 2.2888 -1.84697e-18)
(3.31876 2.47056 2.60916e-18)
(3.27745 2.19306 -2.59325e-18)
(2.61012 2.02076 -2.31166e-19)
(2.72472 1.94025 -9.74103e-19)
(1.26166 2.18954 7.96086e-19)
(1.31579 2.24435 -1.35977e-18)
(1.45382 2.32931 1.79261e-18)
(1.79 2.55929 -1.16512e-18)
(1.88856 2.93199 -1.56707e-18)
(1.56285 2.48837 -1.1879e-19)
(1.63258 2.62788 1.37112e-18)
(1.80968 2.69276 9.66074e-20)
(2.01755 2.99847 6.49936e-19)
)
;

boundaryField
{
    wall-4
    {
        type            noSlip;
    }
    velocity-inlet-5
    {
        type            fixedValue;
        value           uniform (3 0 0);
    }
    velocity-inlet-6
    {
        type            fixedValue;
        value           uniform (0 1 0);
    }
    pressure-outlet-7
    {
        type            zeroGradient;
    }
    wall-8
    {
        type            noSlip;
    }
    frontAndBackPlanes
    {
        type            empty;
    }
}


// ************************************************************************* //
