/*--------------------------------*- C++ -*----------------------------------*\
  =========                 |
  \\      /  F ield         | OpenFOAM: The Open Source CFD Toolbox
   \\    /   O peration     | Website:  https://openfoam.org
    \\  /    A nd           | Version:  9
     \\/     M anipulation  |
\*---------------------------------------------------------------------------*/
FoamFile
{
    format      ascii;
    class       volScalarField;
    location    "170";
    object      p;
}
// * * * * * * * * * * * * * * * * * * * * * * * * * * * * * * * * * * * * * //

dimensions      [0 2 -2 0 0 0 0];

internalField   nonuniform List<scalar> 
12225
(
-0.437517
-2.62613
-3.72593
-4.0464
-4.22743
-4.39618
-4.52741
-4.62212
-4.69821
-4.76493
-4.82409
-4.87785
-4.92614
-4.9704
-5.01059
-5.04101
-5.07791
-5.0296
-3.60099
-4.36934
-4.52973
-4.43726
-4.4245
-4.49208
-4.56929
-4.6346
-4.6937
-4.75048
-4.80427
-4.85409
-4.90053
-4.94358
-4.98405
-5.01729
-5.056
-5.0734
-4.00214
-3.98705
-4.11429
-4.19246
-4.28711
-4.40701
-4.51388
-4.59832
-4.66962
-4.73434
-4.79365
-4.84753
-4.89734
-4.9432
-4.98656
-5.02458
-5.06863
-5.10537
-3.88019
-3.82324
-4.0647
-4.22282
-4.32432
-4.43025
-4.52759
-4.60724
-4.67547
-4.73795
-4.79576
-4.84882
-4.89823
-4.94422
-4.98821
-5.02926
-5.07481
-5.12139
-3.86986
-3.89426
-4.12218
-4.26354
-4.34692
-4.4387
-4.52959
-4.6069
-4.67397
-4.73561
-4.79301
-4.84613
-4.89587
-4.94267
-4.98788
-5.03164
-5.07873
-5.12963
-3.92783
-3.97674
-4.15087
-4.27459
-4.35587
-4.44343
-4.53114
-4.60727
-4.67378
-4.73494
-4.79207
-4.84524
-4.89525
-4.94271
-4.98883
-5.03429
-5.08221
-5.13396
-3.98818
-4.03239
-4.16743
-4.28357
-4.36709
-4.45097
-4.53457
-4.60884
-4.6745
-4.735
-4.7917
-4.84479
-4.89493
-4.94284
-4.98956
-5.03597
-5.08407
-5.13502
-4.04174
-4.07934
-4.18917
-4.29728
-4.38006
-4.45941
-4.53853
-4.61066
-4.67532
-4.73509
-4.79127
-4.84418
-4.89437
-4.94255
-4.98961
-5.03636
-5.08411
-5.13351
-4.09149
-4.12458
-4.21538
-4.31316
-4.39303
-4.46816
-4.54305
-4.61285
-4.6763
-4.73521
-4.79078
-4.84338
-4.89347
-4.94169
-4.98877
-5.03539
-5.08235
-5.12988
-4.13856
-4.16777
-4.24317
-4.33022
-4.40623
-4.47755
-4.54841
-4.61562
-4.67762
-4.73551
-4.79031
-4.84242
-4.89222
-4.94023
-4.98703
-5.03313
-5.07899
-5.1246
-4.1829
-4.20835
-4.27144
-4.34845
-4.41995
-4.48757
-4.55457
-4.61901
-4.67933
-4.73604
-4.78993
-4.84137
-4.89067
-4.93822
-4.98447
-5.02976
-5.07435
-5.11806
-4.22094
-4.24325
-4.29734
-4.36602
-4.43298
-4.49719
-4.56081
-4.62265
-4.68125
-4.73674
-4.78965
-4.84032
-4.88898
-4.93592
-4.98147
-5.02583
-5.06917
-5.11122
-4.25608
-4.27577
-4.32249
-4.38375
-4.44609
-4.50693
-4.56737
-4.62662
-4.68342
-4.73758
-4.78943
-4.83922
-4.88711
-4.9333
-4.978
-5.02135
-5.06342
-5.10394
-4.29291
-4.31007
-4.35
-4.40391
-4.46111
-4.51814
-4.57513
-4.63149
-4.68616
-4.7387
-4.78922
-4.83786
-4.88472
-4.9299
-4.97352
-5.01563
-5.05625
-5.09515
-4.33018
-4.34494
-4.37887
-4.42587
-4.47766
-4.53056
-4.58393
-4.63717
-4.68938
-4.74
-4.7889
-4.83613
-4.88168
-4.92558
-4.96786
-5.00852
-5.04757
-5.0848
-4.36593
-4.37854
-4.40743
-4.44832
-4.49484
-4.5435
-4.59321
-4.64325
-4.6928
-4.74124
-4.78828
-4.83382
-4.8778
-4.92018
-4.96092
-4.99999
-5.03738
-5.07295
-4.39726
-4.40812
-4.43306
-4.46898
-4.51085
-4.55557
-4.60184
-4.64882
-4.69571
-4.74186
-4.78689
-4.8306
-4.87284
-4.91353
-4.95261
-4.99002
-5.02574
-5.05971
-4.41981
-4.42946
-4.45172
-4.4842
-4.52267
-4.56436
-4.60787
-4.65232
-4.69691
-4.74099
-4.78411
-4.82602
-4.86654
-4.90555
-4.94298
-4.97878
-5.01292
-5.04538
-4.42668
-4.43585
-4.45709
-4.48828
-4.52543
-4.56578
-4.60793
-4.651
-4.69421
-4.73691
-4.77866
-4.81917
-4.85829
-4.89591
-4.93194
-4.96637
-4.99917
-5.03037
-4.41063
-4.42042
-4.44305
-4.47619
-4.51526
-4.55704
-4.60011
-4.64376
-4.68727
-4.73001
-4.77154
-4.81166
-4.85024
-4.88722
-4.92253
-4.9562
-4.98821
-5.01862
-4.38384
-4.39465
-4.41996
-4.45704
-4.49989
-4.54449
-4.58969
-4.63505
-4.67982
-4.72333
-4.76527
-4.80555
-4.84412
-4.88093
-4.91599
-4.94931
-4.98094
-5.01096
-4.34867
-4.3605
-4.3899
-4.43354
-4.4819
-4.52998
-4.5779
-4.62575
-4.67243
-4.71717
-4.75985
-4.80057
-4.83936
-4.87621
-4.91117
-4.94432
-4.97573
-5.0055
-4.30815
-4.32007
-4.35457
-4.4079
-4.46353
-4.51558
-4.56657
-4.61714
-4.66578
-4.7118
-4.75536
-4.7967
-4.83585
-4.87286
-4.90785
-4.94095
-4.97225
-5.0019
-4.26448
-4.27547
-4.31729
-4.38177
-4.44404
-4.50081
-4.55653
-4.61051
-4.6609
-4.70785
-4.75211
-4.79393
-4.83333
-4.87043
-4.90541
-4.93843
-4.96962
-4.99913
-4.21756
-4.22309
-4.28579
-4.36407
-4.42609
-4.48443
-4.54568
-4.60416
-4.6568
-4.70498
-4.75013
-4.79253
-4.8322
-4.86937
-4.9043
-4.93723
-4.96833
-4.99777
-4.17427
-4.13797
-4.24755
-4.35858
-4.42091
-4.47629
-4.53861
-4.59846
-4.6518
-4.70065
-4.74649
-4.78942
-4.82942
-4.86677
-4.9018
-4.93477
-4.96589
-4.99532
-4.1885
-4.02957
-4.15854
-4.31268
-4.40287
-4.47433
-4.54336
-4.60438
-4.6573
-4.7057
-4.75111
-4.7935
-4.83291
-4.86969
-4.90416
-4.93663
-4.96732
-4.99647
-4.3117
-4.13134
-4.14555
-4.21775
-4.3062
-4.40552
-4.49631
-4.5702
-4.63202
-4.68728
-4.73771
-4.78361
-4.82553
-4.86414
-4.89993
-4.93335
-4.96487
-4.99509
-4.01908
-4.61019
-4.69907
-4.57488
-4.52062
-4.54788
-4.59496
-4.63831
-4.67998
-4.72229
-4.76391
-4.80336
-4.84044
-4.87528
-4.90794
-4.93858
-4.96741
-4.99621
-1.02976
-2.79308
-3.79782
-4.09703
-4.24628
-4.39
-4.50413
-4.5852
-4.64955
-4.70653
-4.75792
-4.80408
-4.84587
-4.88421
-4.9196
-4.95183
-4.98076
-5.00462
-5.94881
-5.94875
-5.94933
-5.95091
-5.95323
-5.95616
-5.95963
-5.96362
-5.9681
-5.97309
-5.97862
-5.98476
-5.99163
-5.99942
-6.00818
-6.01761
-6.02741
-6.03728
-6.0468
-6.05606
-6.06608
-6.07818
-6.09212
-6.10641
-6.12157
-6.13901
-6.15918
-6.1808
-6.20273
-6.22317
-6.24192
-6.26109
-6.28257
-6.30568
-6.32957
-6.35422
-6.3795
-6.40529
-6.43149
-6.45802
-6.48479
-6.51173
-6.53876
-6.56582
-6.59282
-6.61971
-6.64639
-6.67281
-6.69888
-6.72452
-6.74963
-6.77414
-6.79795
-6.82096
-6.84305
-6.86412
-6.88405
-6.90272
-6.91999
-6.93574
-6.94982
-6.9621
-6.9724
-6.98061
-6.98652
-6.99003
-6.99092
-6.98907
-6.98429
-6.97645
-6.96533
-6.95081
-6.9327
-6.91088
-6.88515
-6.85541
-6.82147
-6.78323
-6.7405
-6.69322
-6.6412
-6.58438
-6.52257
-6.4558
-6.38391
-6.30693
-6.22471
-6.13722
-6.0443
-5.9459
-5.84206
-5.7327
-5.61776
-5.49718
-5.37095
-5.23908
-5.10163
-4.95864
-4.81013
-4.65591
-4.49572
-4.3294
-4.15698
-3.97847
-3.79377
-3.60277
-3.40529
-3.20124
-2.99039
-2.77262
-2.54767
-2.31535
-2.07538
-1.82753
-1.57145
-1.30686
-1.03335
-0.750587
-0.458195
-0.155907
0.156645
0.479821
0.814088
1.1598
1.51729
1.88675
2.26835
2.66214
3.0681
3.48606
3.91572
4.35658
4.8079
5.26874
5.73789
6.21394
6.69521
7.17989
7.66598
8.15137
8.63381
9.11093
9.58032
10.0396
10.4865
10.9188
11.3348
11.7328
12.1116
12.4703
12.8086
13.1264
13.4233
13.699
13.9534
14.1867
14.3995
14.5924
14.7664
14.9224
15.0614
15.1845
15.2927
15.3872
15.4691
15.5393
15.599
15.6491
15.6906
15.7242
15.7511
15.772
15.7882
15.8008
15.8116
15.8229
15.8397
15.8696
15.937
16.0393
-5.94577
-5.94641
-5.94736
-5.94856
-5.94979
-5.95117
-5.95296
-5.95531
-5.95829
-5.9619
-5.96615
-5.97103
-5.97654
-5.98269
-5.98928
-5.99612
-6.00332
-6.01082
-6.01889
-6.02847
-6.04003
-6.05256
-6.06491
-6.07734
-6.09122
-6.10577
-6.12125
-6.13807
-6.15628
-6.1773
-6.20217
-6.22911
-6.25514
-6.27989
-6.3047
-6.32983
-6.35531
-6.38113
-6.40725
-6.43362
-6.46019
-6.4869
-6.51368
-6.54048
-6.56723
-6.59387
-6.62033
-6.64653
-6.6724
-6.69786
-6.72283
-6.74722
-6.77094
-6.79389
-6.81595
-6.83703
-6.85701
-6.87576
-6.89315
-6.90905
-6.92333
-6.93584
-6.94642
-6.95494
-6.96122
-6.96512
-6.96646
-6.96509
-6.96084
-6.95355
-6.94304
-6.92916
-6.91173
-6.89061
-6.86563
-6.83667
-6.80354
-6.76612
-6.72425
-6.67784
-6.62672
-6.57081
-6.50996
-6.44412
-6.37318
-6.29712
-6.21584
-6.1293
-6.03735
-5.94001
-5.83725
-5.72904
-5.6153
-5.49597
-5.37102
-5.24042
-5.10415
-4.96216
-4.81437
-4.66068
-4.50115
-4.33581
-4.1646
-3.98738
-3.80404
-3.61443
-3.41845
-3.21591
-3.00671
-2.79062
-2.56749
-2.33708
-2.09915
-1.85344
-1.59968
-1.33754
-1.06667
-0.786706
-0.497329
-0.198232
0.110917
0.430508
0.760967
1.10267
1.45594
1.82098
2.19798
2.58701
2.98808
3.40108
3.82576
4.26166
4.70818
5.1644
5.62922
6.10128
6.57904
7.06068
7.54427
8.02772
8.50883
8.98522
9.45452
9.91429
10.3623
10.7963
11.2144
11.6149
11.9966
12.3584
12.6995
13.0197
13.3191
13.5976
13.8552
14.092
14.3086
14.5055
14.6837
14.8438
14.987
15.1142
15.2266
15.3251
15.4108
15.4849
15.5481
15.6017
15.6464
15.6832
15.713
15.7369
15.7559
15.7712
15.7846
15.7985
15.8175
15.8469
15.9086
15.9934
-5.93807
-5.94024
-5.94325
-5.94565
-5.94725
-5.94856
-5.95002
-5.95187
-5.95425
-5.95721
-5.9608
-5.96502
-5.96988
-5.97534
-5.98124
-5.98746
-5.99401
-6.0011
-6.00914
-6.01872
-6.03002
-6.04256
-6.05577
-6.06974
-6.08484
-6.10076
-6.11725
-6.13439
-6.15215
-6.17116
-6.19207
-6.21457
-6.23777
-6.26133
-6.28536
-6.30988
-6.3348
-6.36007
-6.38563
-6.41143
-6.43741
-6.46354
-6.48975
-6.51598
-6.54218
-6.56829
-6.59424
-6.61996
-6.64538
-6.67042
-6.69501
-6.71904
-6.74244
-6.76511
-6.78693
-6.80781
-6.82763
-6.84626
-6.86358
-6.87945
-6.89374
-6.90632
-6.91701
-6.92569
-6.93219
-6.93635
-6.93801
-6.937
-6.93317
-6.92635
-6.91636
-6.90305
-6.88625
-6.8658
-6.84155
-6.81335
-6.78103
-6.74447
-6.70351
-6.65804
-6.60791
-6.55301
-6.49324
-6.42849
-6.35867
-6.28373
-6.20359
-6.11817
-6.0274
-5.93123
-5.82969
-5.72273
-5.61028
-5.49232
-5.36879
-5.2397
-5.10496
-4.96456
-4.81837
-4.66635
-4.50851
-4.34489
-4.17543
-4.00003
-3.81859
-3.63095
-3.43704
-3.23666
-3.02974
-2.81604
-2.59543
-2.36766
-2.13254
-1.88978
-1.63916
-1.38031
-1.11296
-0.836719
-0.551305
-0.256385
0.0483387
0.363284
0.688831
1.02538
1.37319
1.73254
2.10357
2.4864
2.88106
3.28745
3.70539
4.13449
4.57419
5.02368
5.48192
5.94761
6.4193
6.89532
7.37384
7.85285
8.33016
8.80352
9.27055
9.72895
10.1765
10.611
11.0307
11.4339
11.8192
12.1855
12.5321
12.8585
13.1645
13.4498
13.7143
13.9582
14.1819
14.3858
14.5708
14.7378
14.8876
15.0212
15.1397
15.2441
15.3355
15.4148
15.4831
15.5414
15.5905
15.6315
15.6653
15.6928
15.7153
15.7339
15.7505
15.7672
15.7883
15.8167
15.8706
15.9272
-5.92632
-5.93022
-5.93604
-5.94049
-5.94336
-5.94546
-5.94731
-5.94923
-5.95143
-5.95405
-5.95717
-5.96085
-5.96511
-5.96996
-5.97535
-5.98122
-5.98758
-5.99455
-6.00241
-6.01148
-6.02194
-6.03372
-6.04667
-6.06082
-6.07625
-6.09284
-6.11038
-6.12867
-6.1475
-6.16693
-6.18717
-6.20826
-6.23012
-6.25266
-6.27583
-6.29957
-6.32379
-6.3484
-6.37335
-6.39856
-6.42398
-6.44956
-6.47524
-6.50097
-6.5267
-6.55236
-6.57788
-6.60321
-6.62827
-6.65299
-6.67728
-6.70106
-6.72424
-6.74671
-6.76839
-6.78915
-6.80889
-6.82748
-6.84479
-6.8607
-6.87507
-6.88775
-6.89859
-6.90745
-6.91418
-6.9186
-6.92056
-6.91989
-6.91644
-6.91002
-6.90048
-6.88765
-6.87137
-6.85147
-6.8278
-6.8002
-6.76853
-6.73263
-6.69237
-6.64762
-6.59824
-6.54413
-6.48517
-6.42126
-6.3523
-6.27823
-6.19897
-6.11445
-6.02457
-5.92933
-5.82871
-5.72268
-5.61117
-5.49417
-5.37165
-5.24358
-5.10992
-4.97064
-4.82566
-4.67494
-4.51848
-4.35627
-4.18827
-4.01437
-3.83448
-3.64848
-3.45626
-3.25769
-3.05263
-2.84091
-2.62237
-2.39679
-2.16396
-1.92363
-1.67554
-1.41939
-1.15485
-0.881611
-0.599359
-0.307776
-0.00654329
0.304746
0.626466
0.958984
1.30257
1.65748
2.02388
2.40189
2.79154
3.19279
3.60544
4.02916
4.46343
4.90749
5.36035
5.82082
6.28749
6.7588
7.23297
7.70805
8.1819
8.65233
9.11704
9.57382
10.0205
10.4551
10.8757
11.2808
11.6689
12.0388
12.3896
12.7208
13.0319
13.3225
13.5926
13.8421
14.0715
14.2813
14.4721
14.6447
14.8001
14.9391
15.0629
15.1723
15.2685
15.3525
15.4251
15.4875
15.5405
15.5851
15.6223
15.6531
15.6784
15.6997
15.7185
15.7368
15.7582
15.7834
15.8261
15.856
-5.91357
-5.91925
-5.92807
-5.93487
-5.93936
-5.94264
-5.94534
-5.94781
-5.95034
-5.95311
-5.95627
-5.95991
-5.96409
-5.96885
-5.97421
-5.98018
-5.98682
-5.99421
-6.00249
-6.01182
-6.02231
-6.034
-6.04685
-6.06086
-6.07607
-6.09242
-6.10981
-6.1281
-6.14714
-6.16682
-6.18713
-6.20805
-6.22957
-6.25167
-6.27432
-6.29749
-6.32113
-6.34517
-6.36956
-6.39424
-6.41916
-6.44426
-6.46948
-6.49479
-6.52011
-6.54539
-6.57057
-6.59559
-6.62036
-6.64482
-6.66888
-6.69247
-6.71548
-6.73782
-6.75939
-6.78008
-6.79977
-6.81835
-6.83567
-6.85163
-6.86606
-6.87884
-6.88981
-6.89882
-6.90571
-6.91034
-6.91252
-6.9121
-6.90891
-6.90279
-6.89356
-6.88105
-6.86512
-6.84558
-6.82229
-6.79508
-6.76381
-6.72833
-6.68851
-6.6442
-6.59529
-6.54166
-6.48319
-6.4198
-6.35138
-6.27786
-6.19917
-6.11523
-6.02597
-5.93135
-5.83139
-5.72602
-5.61521
-5.49892
-5.37715
-5.24985
-5.11704
-4.97864
-4.83464
-4.685
-4.5297
-4.36871
-4.20195
-4.02938
-3.85085
-3.66632
-3.47562
-3.27869
-3.07532
-2.86542
-2.64876
-2.42519
-2.19444
-1.95633
-1.71053
-1.4568
-1.19478
-0.924203
-0.644702
-0.356012
-0.0577207
0.250512
0.569123
0.8984
1.23868
1.59017
1.95309
2.32756
2.71363
3.11128
3.52034
3.94051
4.37126
4.81189
5.26143
5.71876
6.18253
6.65121
7.12305
7.5961
8.06832
8.53747
9.00139
9.45784
9.90477
10.3401
10.7621
11.1689
11.5592
11.9317
12.2856
12.6201
12.9346
13.2289
13.5028
13.7563
13.9896
14.2034
14.3983
14.5749
14.7343
14.8772
15.0048
15.1179
15.2176
15.3049
15.3808
15.4461
15.502
15.5493
15.5889
15.6218
15.6491
15.672
15.6919
15.7104
15.7303
15.7508
15.7824
15.79
-5.90235
-5.90967
-5.92109
-5.93004
-5.93618
-5.94078
-5.94454
-5.94785
-5.95102
-5.95429
-5.95786
-5.96184
-5.96633
-5.9714
-5.9771
-5.98348
-5.9906
-5.99853
-6.00737
-6.01719
-6.02806
-6.04001
-6.05303
-6.06711
-6.08223
-6.09837
-6.11547
-6.13345
-6.15221
-6.17168
-6.19178
-6.21247
-6.23371
-6.25548
-6.27776
-6.30052
-6.32371
-6.34731
-6.37125
-6.3955
-6.41999
-6.44469
-6.46955
-6.4945
-6.5195
-6.54449
-6.5694
-6.59417
-6.61873
-6.64301
-6.66692
-6.69037
-6.71328
-6.73555
-6.75707
-6.77774
-6.79743
-6.81603
-6.8334
-6.84942
-6.86394
-6.87682
-6.88791
-6.89706
-6.90411
-6.90889
-6.91125
-6.91101
-6.90802
-6.9021
-6.89308
-6.88079
-6.86507
-6.84576
-6.82269
-6.79571
-6.76467
-6.72942
-6.68983
-6.64575
-6.59707
-6.54367
-6.48545
-6.42231
-6.35415
-6.2809
-6.2025
-6.11888
-6.02994
-5.93571
-5.83614
-5.7312
-5.62085
-5.50508
-5.38385
-5.25717
-5.12501
-4.98735
-4.84417
-4.69544
-4.54113
-4.3812
-4.21558
-4.0442
-3.86697
-3.68379
-3.49458
-3.29919
-3.0975
-2.88935
-2.67457
-2.45297
-2.22433
-1.98841
-1.74492
-1.4936
-1.23411
-0.966163
-0.689417
-0.403543
-0.108144
0.197165
0.512784
0.839033
1.17624
1.52464
1.88448
2.2559
2.63899
3.03375
3.44004
3.85756
4.28583
4.72415
5.17161
5.6271
6.08935
6.55682
7.02782
7.50039
7.9725
8.44196
8.90658
9.36415
9.81255
10.2497
10.6737
11.0829
11.4757
11.851
12.2077
12.545
12.8625
13.1597
13.4365
13.693
13.9294
14.1462
14.3441
14.5237
14.6859
14.8317
14.9619
15.0777
15.18
15.2697
15.3478
15.4153
15.4732
15.5223
15.5635
15.5979
15.6264
15.65
15.67
15.6877
15.705
15.7201
15.742
15.731
-5.89451
-5.90317
-5.91652
-5.92719
-5.93478
-5.94065
-5.94549
-5.94972
-5.95368
-5.95763
-5.96179
-5.96632
-5.97132
-5.9769
-5.98311
-5.99001
-5.99767
-6.00615
-6.01549
-6.02576
-6.03699
-6.04921
-6.0624
-6.07657
-6.09169
-6.10774
-6.12466
-6.1424
-6.16089
-6.18009
-6.19992
-6.22034
-6.24131
-6.26279
-6.28477
-6.3072
-6.33006
-6.35331
-6.37691
-6.40083
-6.425
-6.4494
-6.47397
-6.49867
-6.52344
-6.54822
-6.57295
-6.59756
-6.62199
-6.64616
-6.66999
-6.69339
-6.71627
-6.73853
-6.76006
-6.78076
-6.8005
-6.81916
-6.83661
-6.85272
-6.86735
-6.88034
-6.89155
-6.90082
-6.908
-6.91291
-6.9154
-6.9153
-6.91243
-6.90663
-6.89773
-6.88555
-6.86994
-6.85073
-6.82775
-6.80085
-6.76988
-6.73469
-6.69514
-6.65111
-6.60247
-6.5491
-6.49091
-6.4278
-6.35967
-6.28647
-6.20813
-6.12457
-6.03575
-5.94163
-5.84224
-5.73752
-5.62742
-5.51196
-5.3911
-5.26486
-5.13319
-4.99612
-4.85361
-4.70563
-4.55218
-4.39316
-4.22857
-4.05826
-3.88224
-3.70033
-3.51252
-3.3186
-3.11853
-2.91207
-2.69913
-2.47945
-2.25288
-2.0191
-1.77791
-1.52896
-1.272
-1.00665
-0.732637
-0.44952
-0.156968
0.145491
0.458178
0.781505
1.11574
1.46123
1.81818
2.18681
2.56722
2.95944
3.36337
3.77872
4.20503
4.64164
5.08768
5.5421
6.00362
6.47078
6.94183
7.41491
7.88792
8.35872
8.82504
9.28469
9.73542
10.1752
10.602
11.014
11.4098
11.788
12.1476
12.4877
12.808
13.1079
13.3873
13.6463
13.8851
14.1044
14.3045
14.4864
14.6508
14.7987
14.9309
15.0486
15.1527
15.2441
15.3239
15.3929
15.4521
15.5024
15.5447
15.5799
15.6088
15.6325
15.652
15.6681
15.6824
15.6919
15.7053
15.6785
-5.89109
-5.90064
-5.91517
-5.92705
-5.93578
-5.9427
-5.94852
-5.95363
-5.95838
-5.96304
-5.96786
-5.97299
-5.97858
-5.9847
-5.99145
-5.99889
-6.00707
-6.01603
-6.02583
-6.03648
-6.04802
-6.06046
-6.0738
-6.08804
-6.10316
-6.11912
-6.1359
-6.15346
-6.17174
-6.1907
-6.21028
-6.23046
-6.25119
-6.27243
-6.29416
-6.31635
-6.33896
-6.36196
-6.38533
-6.40901
-6.43297
-6.45717
-6.48157
-6.50611
-6.53074
-6.55541
-6.58005
-6.6046
-6.62899
-6.65314
-6.67696
-6.70039
-6.7233
-6.74562
-6.76722
-6.788
-6.80783
-6.82659
-6.84415
-6.86038
-6.87512
-6.88822
-6.89955
-6.90893
-6.91621
-6.92122
-6.92379
-6.92376
-6.92095
-6.91519
-6.90632
-6.89415
-6.87853
-6.85929
-6.83627
-6.80931
-6.77826
-6.74297
-6.70331
-6.65916
-6.61038
-6.55687
-6.49852
-6.43525
-6.36697
-6.29362
-6.21514
-6.13146
-6.04253
-5.94838
-5.84896
-5.74425
-5.63425
-5.51892
-5.39829
-5.27233
-5.14104
-5.00443
-4.86247
-4.71515
-4.56242
-4.40425
-4.24056
-4.07129
-3.89637
-3.71571
-3.5292
-3.33675
-3.1382
-2.93343
-2.72225
-2.50448
-2.2799
-2.04826
-1.80929
-1.5627
-1.30818
-1.04541
-0.774016
-0.493596
-0.203752
0.0959465
0.405868
0.726407
1.05789
1.40065
1.75496
2.12106
2.49908
2.88909
3.29099
3.70453
4.1293
4.56465
5.00978
5.46366
5.92504
6.39248
6.86426
7.3385
7.81311
8.2859
8.75458
9.21689
9.67054
10.1134
10.5433
10.9586
11.3575
11.7388
12.1013
12.4443
12.7671
13.0695
13.3512
13.6124
13.8534
14.0745
14.2765
14.4601
14.6262
14.7756
14.9093
15.0284
15.1337
15.2264
15.3072
15.3772
15.4373
15.4883
15.5311
15.5666
15.5956
15.6188
15.6373
15.6514
15.6622
15.6661
15.6722
15.632
-5.89239
-5.90234
-5.91735
-5.92988
-5.93937
-5.94707
-5.95366
-5.9595
-5.96494
-5.97025
-5.97567
-5.98137
-5.98749
-5.99412
-6.00136
-6.00925
-6.01786
-6.02722
-6.03737
-6.04833
-6.06012
-6.07274
-6.0862
-6.1005
-6.1156
-6.13151
-6.14818
-6.16559
-6.1837
-6.20247
-6.22187
-6.24185
-6.26239
-6.28345
-6.305
-6.32701
-6.34946
-6.37231
-6.39553
-6.41908
-6.44293
-6.46704
-6.49136
-6.51584
-6.54043
-6.56509
-6.58973
-6.6143
-6.63873
-6.66294
-6.68685
-6.71036
-6.73337
-6.7558
-6.77752
-6.79842
-6.81838
-6.83727
-6.85496
-6.87131
-6.88616
-6.89938
-6.9108
-6.92026
-6.92761
-6.93266
-6.93527
-6.93524
-6.93242
-6.92662
-6.91768
-6.90542
-6.88968
-6.87029
-6.8471
-6.81994
-6.78866
-6.75313
-6.7132
-6.66875
-6.61967
-6.56584
-6.50717
-6.44357
-6.37496
-6.30129
-6.2225
-6.13854
-6.04937
-5.95498
-5.8554
-5.75057
-5.64051
-5.52519
-5.40465
-5.27887
-5.14786
-5.01162
-4.87013
-4.7234
-4.57134
-4.41396
-4.25113
-4.08287
-3.90902
-3.72959
-3.54438
-3.35337
-3.15635
-2.95325
-2.74383
-2.52797
-2.30537
-2.07587
-1.8391
-1.59486
-1.34276
-1.08251
-0.813652
-0.535841
-0.248576
0.0484818
0.355808
0.673724
1.00266
1.34292
1.69485
2.05868
2.43459
2.82267
3.22284
3.63493
4.0585
4.49298
4.93762
5.39142
5.8532
6.32147
6.79458
7.27055
7.74734
8.22266
8.69424
9.15966
9.61663
10.0628
10.4963
10.9149
11.3171
11.7015
12.067
12.4127
12.738
13.0426
13.3264
13.5895
13.8321
14.0548
14.2582
14.4431
14.6104
14.7609
14.8956
15.0155
15.1217
15.215
15.2965
15.367
15.4275
15.4789
15.5218
15.5572
15.5857
15.6082
15.6252
15.6369
15.6441
15.6427
15.6423
15.5906
-5.89814
-5.90808
-5.92293
-5.93558
-5.94543
-5.95359
-5.96069
-5.96706
-5.97302
-5.97884
-5.98475
-5.99091
-5.99745
-6.00449
-6.0121
-6.02035
-6.02928
-6.03893
-6.04933
-6.0605
-6.07246
-6.08521
-6.09875
-6.11308
-6.12818
-6.14404
-6.16064
-6.17795
-6.19594
-6.21458
-6.23385
-6.2537
-6.27411
-6.29505
-6.3165
-6.33842
-6.36079
-6.38357
-6.40674
-6.43026
-6.45409
-6.4782
-6.50254
-6.52706
-6.55171
-6.57643
-6.60116
-6.62584
-6.65039
-6.67472
-6.69876
-6.72242
-6.74558
-6.76816
-6.79004
-6.81109
-6.8312
-6.85023
-6.86805
-6.88451
-6.89946
-6.91276
-6.92425
-6.93375
-6.94111
-6.94616
-6.94872
-6.94862
-6.94569
-6.93976
-6.93064
-6.91818
-6.9022
-6.88254
-6.85904
-6.83154
-6.79989
-6.76396
-6.72361
-6.67872
-6.62917
-6.57487
-6.51571
-6.45163
-6.38254
-6.30839
-6.22914
-6.14475
-6.05517
-5.96046
-5.86056
-5.7555
-5.64526
-5.52987
-5.40933
-5.28365
-5.15284
-5.01691
-4.87587
-4.72966
-4.57826
-4.42162
-4.25969
-4.0924
-3.91968
-3.74144
-3.55759
-3.36801
-3.17258
-2.97114
-2.76353
-2.54957
-2.32901
-2.10161
-1.8671
-1.62518
-1.37551
-1.11772
-0.851374
-0.57606
-0.291331
0.00321603
0.308022
0.623472
0.949987
1.28792
1.63762
1.99936
2.37335
2.75968
3.15837
3.56923
3.99192
4.42589
4.87045
5.32465
5.7873
6.25693
6.73185
7.21009
7.68954
8.16788
8.64275
9.11169
9.57229
10.0222
10.4592
10.8814
11.287
11.6745
12.0428
12.3912
12.7188
13.0255
13.3111
13.5757
13.8197
14.0437
14.2481
14.4339
14.6019
14.7531
14.8884
15.0088
15.1154
15.2091
15.2908
15.3615
15.4221
15.4734
15.5161
15.551
15.5788
15.6001
15.6153
15.6245
15.6281
15.6216
15.6155
15.5539
-5.90773
-5.9173
-5.93146
-5.94377
-5.95359
-5.96189
-5.96922
-5.97589
-5.98217
-5.98832
-5.99455
-6.00103
-6.00787
-6.01518
-6.02304
-6.03152
-6.04065
-6.05049
-6.06104
-6.07235
-6.0844
-6.09722
-6.1108
-6.12514
-6.14023
-6.15606
-6.17261
-6.18986
-6.20778
-6.22636
-6.24555
-6.26534
-6.28569
-6.30659
-6.32801
-6.34991
-6.37228
-6.39509
-6.4183
-6.44187
-6.46578
-6.48997
-6.51441
-6.53905
-6.56384
-6.58871
-6.6136
-6.63844
-6.66316
-6.68767
-6.7119
-6.73573
-6.75908
-6.78183
-6.80387
-6.82508
-6.84533
-6.86449
-6.88241
-6.89896
-6.91397
-6.92731
-6.93879
-6.94827
-6.95557
-6.96052
-6.96295
-6.96268
-6.95954
-6.95336
-6.94396
-6.93117
-6.91482
-6.89475
-6.8708
-6.84282
-6.81066
-6.77418
-6.73326
-6.68778
-6.63762
-6.58269
-6.5229
-6.45818
-6.38847
-6.31372
-6.23388
-6.14893
-6.05886
-5.96367
-5.86338
-5.758
-5.64752
-5.53197
-5.41136
-5.28573
-5.1551
-5.01946
-4.87883
-4.73314
-4.58241
-4.42653
-4.26551
-4.09922
-3.92765
-3.75064
-3.56818
-3.38005
-3.18623
-2.98649
-2.78074
-2.5687
-2.35022
-2.12496
-1.89274
-1.65316
-1.40593
-1.15058
-0.886744
-0.613891
-0.331677
-0.0396001
0.262702
0.575733
0.899859
1.23553
1.58307
1.94282
2.31501
2.69979
3.09719
3.50711
3.92923
4.36307
4.80795
5.26299
5.72695
6.19842
6.67558
7.15654
7.63905
8.12083
8.59935
9.07214
9.53663
9.99044
10.4312
10.857
11.266
11.6566
12.0278
12.3786
12.7084
13.0169
13.3041
13.57
13.8151
14.0399
14.245
14.4313
14.5998
14.7512
14.8868
15.0073
15.114
15.2077
15.2893
15.3599
15.4203
15.4712
15.5134
15.5476
15.5744
15.5942
15.6075
15.6139
15.6139
15.6026
15.5914
15.5213
-5.92035
-5.92924
-5.94231
-5.95388
-5.96334
-5.97148
-5.97877
-5.98548
-5.99187
-5.99816
-6.00454
-6.01117
-6.01816
-6.02561
-6.0336
-6.04218
-6.05141
-6.06132
-6.07194
-6.08329
-6.09539
-6.10822
-6.12181
-6.13615
-6.15122
-6.16703
-6.18355
-6.20077
-6.21867
-6.23722
-6.25641
-6.2762
-6.29656
-6.31749
-6.33895
-6.36092
-6.38338
-6.40628
-6.42961
-6.45331
-6.47736
-6.50172
-6.52633
-6.55115
-6.57612
-6.60119
-6.62629
-6.65133
-6.67626
-6.70098
-6.7254
-6.74942
-6.77294
-6.79586
-6.81804
-6.83938
-6.85973
-6.87896
-6.89694
-6.9135
-6.92851
-6.94179
-6.95319
-6.96255
-6.96968
-6.97443
-6.97661
-6.97605
-6.97258
-6.96601
-6.95618
-6.94292
-6.92607
-6.90544
-6.88091
-6.8523
-6.81948
-6.78232
-6.74069
-6.69447
-6.64356
-6.58788
-6.52734
-6.46187
-6.39141
-6.31594
-6.23542
-6.14983
-6.05916
-5.96344
-5.8627
-5.75692
-5.64615
-5.53039
-5.40971
-5.28412
-5.15365
-5.01831
-4.87809
-4.73297
-4.5829
-4.42785
-4.26775
-4.10254
-3.93213
-3.75644
-3.57536
-3.38879
-3.19659
-2.99864
-2.79475
-2.58474
-2.36836
-2.14536
-1.91546
-1.67833
-1.43358
-1.18077
-0.919451
-0.649159
-0.369479
-0.0799439
0.219872
0.530456
0.852239
1.18568
1.53115
1.88903
2.25958
2.643
3.03936
3.44859
3.87044
4.3045
4.75008
5.20632
5.672
6.14564
6.62546
7.10947
7.59541
8.08091
8.56338
9.04023
9.50884
9.96667
10.4114
10.8408
11.2531
11.6468
12.0206
12.3738
12.7056
13.0157
13.3042
13.5711
13.817
14.0423
14.2479
14.4344
14.603
14.7544
14.8899
15.0103
15.1167
15.2101
15.2914
15.3616
15.4215
15.4718
15.5132
15.5465
15.5721
15.5903
15.6014
15.6051
15.6016
15.5858
15.57
15.4926
-5.93508
-5.9431
-5.95477
-5.96531
-5.97412
-5.98182
-5.98882
-5.99535
-6.00162
-6.00785
-6.01419
-6.0208
-6.02778
-6.03522
-6.0432
-6.05178
-6.061
-6.0709
-6.0815
-6.09284
-6.10491
-6.11774
-6.13131
-6.14564
-6.1607
-6.1765
-6.19302
-6.21024
-6.22815
-6.24672
-6.26594
-6.28578
-6.30622
-6.32724
-6.34882
-6.37092
-6.39352
-6.41659
-6.44009
-6.46399
-6.48823
-6.51279
-6.53761
-6.56264
-6.58783
-6.61311
-6.63841
-6.66367
-6.68879
-6.71369
-6.73827
-6.76245
-6.7861
-6.80912
-6.83138
-6.85276
-6.87313
-6.89235
-6.91027
-6.92675
-6.94163
-6.95474
-6.96593
-6.97503
-6.98187
-6.98627
-6.98806
-6.98706
-6.9831
-6.97601
-6.96561
-6.95174
-6.93422
-6.91291
-6.88764
-6.85827
-6.82466
-6.78668
-6.74421
-6.69714
-6.64538
-6.58884
-6.52744
-6.46112
-6.38985
-6.31359
-6.23232
-6.14603
-6.05473
-5.95843
-5.85719
-5.751
-5.63991
-5.52395
-5.40319
-5.27765
-5.14736
-5.01236
-4.87259
-4.72808
-4.57874
-4.42459
-4.26548
-4.10143
-3.93226
-3.75798
-3.57838
-3.39345
-3.20299
-3.00693
-2.80502
-2.59714
-2.38298
-2.16236
-1.93491
-1.70033
-1.45814
-1.20795
-0.949202
-0.68153
-0.404396
-0.117439
0.179901
0.488039
0.80753
1.1388
1.48231
1.83845
2.20753
2.58979
2.98535
3.39415
3.81604
4.25061
4.69726
5.15504
5.62279
6.09893
6.58172
7.06906
7.55871
8.04813
8.53475
9.01581
9.48863
9.95054
10.3991
10.8321
11.2477
11.6443
12.0207
12.376
12.7096
13.0211
13.3106
13.5783
13.8246
14.0503
14.2559
14.4423
14.6107
14.7618
14.8969
15.0169
15.1228
15.2157
15.2964
15.366
15.4252
15.4747
15.5152
15.5473
15.5715
15.588
15.5969
15.5978
15.5908
15.5709
15.5508
15.4671
-5.95107
-5.95807
-5.96817
-5.97746
-5.98538
-5.99242
-5.99889
-6.00499
-6.01093
-6.01688
-6.023
-6.02941
-6.03622
-6.04351
-6.05136
-6.05982
-6.06894
-6.07876
-6.0893
-6.10057
-6.1126
-6.12539
-6.13893
-6.15323
-6.16828
-6.18407
-6.2006
-6.21783
-6.23577
-6.25439
-6.27368
-6.29362
-6.31418
-6.33534
-6.35707
-6.37935
-6.40214
-6.4254
-6.4491
-6.4732
-6.49764
-6.5224
-6.54741
-6.57264
-6.59801
-6.62347
-6.64893
-6.67433
-6.69958
-6.72458
-6.74924
-6.77346
-6.79713
-6.82013
-6.84234
-6.86364
-6.88389
-6.90294
-6.92066
-6.93689
-6.95148
-6.96426
-6.97508
-6.98376
-6.99013
-6.99402
-6.99525
-6.99366
-6.98906
-6.98129
-6.97017
-6.95554
-6.93723
-6.91509
-6.88897
-6.85872
-6.82421
-6.78531
-6.74191
-6.69391
-6.64121
-6.58373
-6.52141
-6.4542
-6.38206
-6.30498
-6.22293
-6.13592
-6.04394
-5.94708
-5.84533
-5.73874
-5.62736
-5.51123
-5.39043
-5.265
-5.13497
-5.00036
-4.86116
-4.71734
-4.56888
-4.4157
-4.25775
-4.09493
-3.92718
-3.75437
-3.57643
-3.39323
-3.20467
-3.0106
-2.81085
-2.60521
-2.39345
-2.17532
-1.95047
-1.71853
-1.47902
-1.23147
-0.975375
-0.710315
-0.435812
-0.151418
0.143411
0.449162
0.766391
1.09559
1.43725
1.79178
2.15957
2.54088
2.93585
3.3445
3.76668
4.20207
4.65006
5.10971
5.5798
6.05874
6.54471
7.03561
7.52909
8.0226
8.51341
8.99872
9.47572
9.94167
10.394
10.8305
11.2492
11.6485
12.0272
12.3844
12.7195
13.0321
13.3224
13.5906
13.8371
14.0627
14.2681
14.4543
14.6221
14.7728
14.9072
15.0265
15.1317
15.2239
15.3039
15.3726
15.4309
15.4795
15.5189
15.5498
15.5725
15.5871
15.5938
15.592
15.5817
15.5579
15.5339
15.4449
-5.96752
-5.97344
-5.9819
-5.98981
-5.99666
-6.00281
-6.00852
-6.01398
-6.01936
-6.02483
-6.03052
-6.03656
-6.04305
-6.05006
-6.05767
-6.06593
-6.07487
-6.08453
-6.09493
-6.10609
-6.11802
-6.13072
-6.14421
-6.15846
-6.17348
-6.18927
-6.2058
-6.22307
-6.24106
-6.25976
-6.27915
-6.2992
-6.31989
-6.34119
-6.36307
-6.3855
-6.40845
-6.43187
-6.45572
-6.47996
-6.50454
-6.52942
-6.55454
-6.57986
-6.6053
-6.63082
-6.65631
-6.68171
-6.70693
-6.73187
-6.75644
-6.78054
-6.80404
-6.82684
-6.84882
-6.86983
-6.88976
-6.90846
-6.92578
-6.94157
-6.95569
-6.96795
-6.97821
-6.98629
-6.99203
-6.99524
-6.99577
-6.99342
-6.98804
-6.97945
-6.96748
-6.95197
-6.93276
-6.90969
-6.88262
-6.8514
-6.81591
-6.77603
-6.73164
-6.68265
-6.62897
-6.57053
-6.50728
-6.43916
-6.36616
-6.28824
-6.20544
-6.11771
-6.02513
-5.92772
-5.82553
-5.71861
-5.60702
-5.49082
-5.3701
-5.24489
-5.11525
-4.98117
-4.84268
-4.69971
-4.55226
-4.40022
-4.24357
-4.08215
-3.91595
-3.74477
-3.56862
-3.3873
-3.20078
-3.00884
-2.81137
-2.60811
-2.3989
-2.18337
-1.96124
-1.73199
-1.4952
-1.25029
-0.996894
-0.734471
-0.462645
-0.180794
0.111541
0.41498
0.730017
1.05726
1.39718
1.75027
2.11694
2.4975
2.89212
3.30085
3.72357
4.16002
4.60956
5.07129
5.54388
6.02575
6.51499
7.0095
7.50682
8.00436
8.49928
8.98871
9.46973
9.93952
10.3954
10.8352
11.2567
11.6585
12.0393
12.3981
12.7344
13.0478
13.3385
13.6069
13.8534
14.0787
14.2836
14.4692
14.6364
14.7863
14.9199
15.0384
15.1427
15.234
15.3131
15.3809
15.4383
15.4857
15.524
15.5535
15.5746
15.5874
15.5919
15.5874
15.574
15.5466
15.5189
15.4255
-5.98447
-5.98933
-5.99618
-6.00261
-6.0082
-6.01322
-6.0179
-6.02243
-6.02698
-6.0317
-6.03673
-6.04219
-6.04815
-6.05471
-6.06192
-6.06982
-6.07846
-6.08785
-6.09802
-6.10898
-6.12073
-6.13329
-6.14665
-6.16081
-6.17576
-6.19149
-6.20799
-6.22525
-6.24325
-6.26196
-6.28136
-6.30144
-6.32216
-6.34351
-6.36544
-6.38792
-6.4109
-6.43434
-6.4582
-6.48243
-6.50698
-6.5318
-6.55684
-6.58205
-6.60736
-6.63271
-6.658
-6.68317
-6.70812
-6.73276
-6.75698
-6.7807
-6.80379
-6.82614
-6.84763
-6.86813
-6.8875
-6.90562
-6.92232
-6.93746
-6.95089
-6.96244
-6.97195
-6.97926
-6.9842
-6.98659
-6.98625
-6.98303
-6.97674
-6.96723
-6.95431
-6.93784
-6.91765
-6.8936
-6.86554
-6.83332
-6.79684
-6.75595
-6.71058
-6.66061
-6.60599
-6.54663
-6.4825
-6.41354
-6.33974
-6.2611
-6.1776
-6.08929
-5.99619
-5.89837
-5.79587
-5.68876
-5.5771
-5.461
-5.34051
-5.2157
-5.08661
-4.95326
-4.81564
-4.67373
-4.52746
-4.37677
-4.22156
-4.06174
-3.8972
-3.72786
-3.5536
-3.37435
-3.18998
-3.00035
-2.80529
-2.6046
-2.39804
-2.18527
-1.96588
-1.73938
-1.50527
-1.26307
-1.01238
-0.752691
-0.483499
-0.204209
0.0857174
0.386882
0.699847
1.02522
1.36354
1.71533
2.08102
2.46095
2.85535
3.2643
3.68772
4.12532
4.5765
5.04028
5.51537
6.00012
6.49257
6.99054
7.49156
7.9929
8.4917
8.98495
9.46969
9.94298
10.4022