/*--------------------------------*- C++ -*----------------------------------*\
  =========                 |
  \\      /  F ield         | OpenFOAM: The Open Source CFD Toolbox
   \\    /   O peration     | Website:  https://openfoam.org
    \\  /    A nd           | Version:  9
     \\/     M anipulation  |
\*---------------------------------------------------------------------------*/
FoamFile
{
    format      ascii;
    class       volScalarField;
    location    "8.26";
    object      epsilon;
}
// * * * * * * * * * * * * * * * * * * * * * * * * * * * * * * * * * * * * * //

dimensions      [0 2 -3 0 0 0 0];

internalField   nonuniform List<scalar> 
2268
(
0.000108511
0.000609587
0.00109463
0.00153555
0.00193394
0.00229134
0.00260915
0.0028886
0.00313013
0.00333721
0.00351883
0.00368495
0.00383851
0.00396268
0.00401118
0.00390445
0.00360286
0.00318147
0.00265404
0.00208997
0.00162029
0.000985875
0.000328449
0.00022768
0.00040021
0.000595411
0.000779238
0.000946978
0.00109785
0.00123214
0.0013506
0.00145416
0.00154456
0.00162447
0.001696
0.00175848
0.00180562
0.00182372
0.00179408
0.00171631
0.00160062
0.00143444
0.00121853
0.000971269
0.000693252
0.000522681
0.000391897
0.000422875
0.000546296
0.00067171
0.000788741
0.00089485
0.000989651
0.00107358
0.00114748
0.0012126
0.00127042
0.00132173
0.00136552
0.00139776
0.00141108
0.00139743
0.00135825
0.00129573
0.00119952
0.00107216
0.000930052
0.00079444
0.000874696
0.000554447
0.000477193
0.000560561
0.00065705
0.000750172
0.000835652
0.000912435
0.000980662
0.00104101
0.00109449
0.00114213
0.00118434
0.00122017
0.00124668
0.00125903
0.00125281
0.00122944
0.00118981
0.0011275
0.00104927
0.000977781
0.000951049
0.00128566
0.000711479
0.000541884
0.000595664
0.000672628
0.000750312
0.000822774
0.000888304
0.000946757
0.000998671
0.0010449
0.00108627
0.00112308
0.00115454
0.00117836
0.00119108
0.0011899
0.00117613
0.00115098
0.00111231
0.00107111
0.0010572
0.0011367
0.00179809
0.000864747
0.00061182
0.000641007
0.000702693
0.000768691
0.00083147
0.000888681
0.000939921
0.000985623
0.00102656
0.00106346
0.00109659
0.00112532
0.00114786
0.00116156
0.00116448
0.0011579
0.00114385
0.00112423
0.00111393
0.00115226
0.00135317
0.00249285
0.00101769
0.000685575
0.000692811
0.000741508
0.000797816
0.000852647
0.000903025
0.00094832
0.000988921
0.00102557
0.00105895
0.00108933
0.00111621
0.00113815
0.0011531
0.00115962
0.00115913
0.00115457
0.00115089
0.00116632
0.00125166
0.00159442
0.00357849
0.00117517
0.000762411
0.000749313
0.000786472
0.000834317
0.000882226
0.000926589
0.000966595
0.00100267
0.00103558
0.00106599
0.00109413
0.0011196
0.00114127
0.00115751
0.00116728
0.00117215
0.0011762
0.00118578
0.00122099
0.00134084
0.00181413
0.00600219
0.000569987
0.0018043
0.00280857
0.00328078
0.00354584
0.00367339
0.00369642
0.00367331
0.0034617
0.00306558
0.00257381
0.00204189
0.00177144
0.00176013
0.00165529
0.00142137
0.000966874
0.000554473
0.00011297
0.000595356
0.000989419
0.00133149
0.00151667
0.00162617
0.00168791
0.00170998
0.00169682
0.00162341
0.0014961
0.00132471
0.00112806
0.000984575
0.000898366
0.000806171
0.000685917
0.000506734
0.000341063
0.000199003
0.000778543
0.000928883
0.00111926
0.0012241
0.0012889
0.00132749
0.00134168
0.00132797
0.0012772
0.00119563
0.00108087
0.000949446
0.000840424
0.000760824
0.000682348
0.000591297
0.00047301
0.000372321
0.000351749
0.000952942
0.00099568
0.00109053
0.00114299
0.00117842
0.00120086
0.00120744
0.00119175
0.00114894
0.00108475
0.000995569
0.000894782
0.000804866
0.000731968
0.000662107
0.000587795
0.000500686
0.00044127
0.000524555
0.00124997
0.00113086
0.00112592
0.00113038
0.00114074
0.00114943
0.001149
0.00113124
0.00109264
0.00103807
0.000965149
0.00088349
0.000806327
0.000738939
0.000675423
0.000612717
0.000545968
0.000519108
0.000713025
0.00172434
0.00131403
0.00118933
0.00114743
0.00113551
0.00113212
0.00112546
0.00110605
0.00107056
0.00102295
0.000962003
0.000893743
0.000825809
0.000762981
0.00070453
0.000649841
0.000596685
0.000596113
0.000916528
0.00258359
0.00152216
0.00126021
0.0011774
0.00114673
0.00113308
0.00112117
0.00110074
0.00106835
0.00102691
0.00097551
0.000917222
0.000856335
0.000797175
0.000742271
0.000692677
0.000649735
0.000672288
0.00114402
0.00478257
0.0017095
0.00132274
0.00121134
0.00116654
0.0011447
0.00112869
0.001108
0.00107909
0.00104389
0.00100057
0.000950037
0.000894693
0.000838281
0.000784735
0.000737676
0.000703988
0.00075006
0.00139803
0.0014051
0.000883893
0.000842929
0.000863969
0.0009
0.000938166
0.000973868
0.00100611
0.00103555
0.00106312
0.0010894
0.0011145
0.00113812
0.00115949
0.00117758
0.00119187
0.00120424
0.00122001
0.00124653
0.00130221
0.00143548
0.00177998
0.00280739
0.00174818
0.00106948
0.000989385
0.000989173
0.00101075
0.001037
0.00106134
0.00108273
0.00110291
0.00112344
0.00114467
0.00116625
0.00118763
0.00120826
0.00122777
0.00124618
0.00126531
0.00129019
0.00132708
0.00138688
0.00149523
0.00170463
0.00209745
0.00218861
0.0012879
0.00115579
0.00113133
0.0011391
0.00115383
0.0011659
0.00117438
0.00118374
0.00119684
0.00121359
0.00123278
0.00125292
0.00127301
0.00129303
0.00131356
0.00133683
0.00136653
0.00140489
0.00145726
0.00153442
0.00165716
0.00183245
0.00301413
0.00156144
0.00133086
0.00127924
0.00127355
0.00127553
0.00127513
0.00126879
0.00126614
0.00127269
0.00128712
0.001307
0.00132943
0.0013514
0.00137231
0.00139342
0.00141929
0.00145095
0.00148449
0.00152615
0.00157655
0.00164709
0.00174012
0.00384552
0.00176968
0.00148323
0.00138542
0.00132598
0.00131033
0.00131716
0.00132234
0.00132353
0.00133361
0.00135265
0.00137901
0.00140897
0.00143085
0.00144118
0.00145253
0.00147375
0.00150495
0.0015494
0.0015886
0.00161899
0.00166053
0.00171806
0.00382352
0.00193102
0.00157235
0.00139647
0.00133465
0.00132765
0.00133057
0.00133557
0.00134373
0.00135969
0.00138568
0.00142114
0.0014596
0.00148553
0.00149897
0.00150589
0.00152913
0.00155889
0.00159813
0.00164558
0.00166668
0.00167912
0.0016997
0.00168594
0.00149997
0.00140849
0.00135456
0.00132776
0.0013248
0.00133339
0.00134117
0.00135205
0.0013718
0.00140007
0.00143522
0.00147073
0.00149589
0.00151296
0.00152579
0.00154774
0.0015722
0.0015976
0.00162874
0.00164942
0.0016642
0.00168579
0.00176899
0.00154294
0.00137395
0.00132641
0.00131351
0.0013171
0.00132926
0.0013425
0.00135776
0.00137895
0.0014066
0.0014398
0.00147331
0.00149893
0.00151893
0.00153708
0.00155695
0.00157709
0.0015974
0.00161954
0.00163856
0.00165476
0.00167266
0.00176387
0.00158128
0.00136369
0.00130841
0.00129973
0.0013079
0.00132359
0.00134152
0.00136133
0.00138519
0.00141402
0.00144774
0.00148295
0.00151191
0.00153362
0.00155279
0.00157196
0.00158991
0.00160694
0.00162388
0.00163986
0.00165477
0.0016691
0.0017631
0.00159011
0.00136011
0.00130041
0.00129144
0.00130153
0.00131988
0.0013418
0.00136613
0.00139353
0.00142462
0.00145958
0.00149604
0.00152779
0.00155292
0.00157489
0.00159534
0.0016131
0.00162822
0.00164201
0.00165531
0.00166845
0.00168112
0.00176409
0.00158353
0.00136042
0.00129799
0.00128797
0.00129898
0.00131949
0.00134481
0.00137326
0.00140435
0.00143803
0.00147425
0.00151138
0.00154539
0.00157437
0.00160018
0.00162353
0.00164306
0.00165859
0.00167191
0.00168455
0.00169707
0.00170918
0.00176764
0.00158032
0.00136436
0.00129977
0.00128875
0.00130034
0.00132272
0.00135097
0.00138299
0.00141748
0.0014537
0.00149145
0.00152965
0.00156584
0.0015985
0.00162817
0.00165499
0.00167772
0.00169593
0.00171139
0.00172574
0.00173952
0.0017525
0.00176921
0.00158822
0.00137204
0.00130546
0.00129364
0.00130574
0.00132976
0.00136052
0.00139548
0.00143287
0.00147163
0.00151138
0.00155134
0.00159005
0.0016264
0.00166007
0.00169078
0.00171765
0.00174018
0.00175973
0.00177771
0.00179458
0.00181011
0.00176864
0.00160656
0.001384
0.0013152
0.00130267
0.00131526
0.00134078
0.0013737
0.00141112
0.0014511
0.00149253
0.00153489
0.00157748
0.00161932
0.0016596
0.00169768
0.00173298
0.00176483
0.00179284
0.00181787
0.00184093
0.00186238
0.00188205
0.00176886
0.00162887
0.00140026
0.00132905
0.00131582
0.00132889
0.00135582
0.00139073
0.00143047
0.00147311
0.0015176
0.00156324
0.00160933
0.00165511
0.00169989
0.00174302
0.00178379
0.00182157
0.00185605
0.00188769
0.00191711
0.00194453
0.00196977
0.00176558
0.00166658
0.00142104
0.00134698
0.00133302
0.00134658
0.00137491
0.00141186
0.00145414
0.0014999
0.00154802
0.00159771
0.00164824
0.00169893
0.00174913
0.00179819
0.00184542
0.0018902
0.00193222
0.00197164
0.00200872
0.00204351
0.00207575
0.00176525
0.00170196
0.00144611
0.00136889
0.00135417
0.0013683
0.00139816
0.00143744
0.00148278
0.00153229
0.0015848
0.00163943
0.00169544
0.00175216
0.00180893
0.00186511
0.00192003
0.0019731
0.00202393
0.00207244
0.0021186
0.00216224
0.00220297
0.00176266
0.00175128
0.00147538
0.00139466
0.00137921
0.00139412
0.00142585
0.00146795
0.00151701
0.00157105
0.00162883
0.00168944
0.0017521
0.00181613
0.00188086
0.00194563
0.00200977
0.00207267
0.00213387
0.00219304
0.00224991
0.00230408
0.002355
0.00746191
0.00180143
0.00150865
0.0014242
0.00140815
0.00142419
0.0014583
0.00150389
0.00155743
0.00161691
0.00168101
0.00174878
0.00181943
0.00189226
0.00196656
0.00204166
0.00211686
0.00219148
0.00226494
0.00233671
0.00240625
0.00247294
0.00253603
0.00176649
0.0018343
0.00154563
0.00145745
0.00144108
0.00145874
0.00149588
0.00154573
0.00160467
0.00167064
0.00174227
0.00181858
0.00189878
0.00198214
0.00206793
0.00215543
0.00224386
0.00233248
0.00242052
0.00250725
0.00259187
0.00267351
0.00275118
0.00176644
0.001891
0.00158649
0.00149445
0.00147814
0.00149801
0.00153895
0.00159396
0.00165937
0.00173304
0.00181361
0.00190009
0.00199167
0.0020876
0.00218714
0.00228948
0.00239378
0.00249914
0.00260462
0.00270923
0.0028119
0.00291147
0.00300669
0.0017661
0.00195291
0.00163091
0.00153524
0.00151948
0.00154226
0.00158787
0.0016491
0.0017222
0.001805
0.00189616
0.0019947
0.00209981
0.00221075
0.00232672
0.00244686
0.0025702
0.00269567
0.00282209
0.00294818
0.00307256
0.00319373
0.00331013
0.00176548
0.00201896
0.00167895
0.00157983
0.00156522
0.00159173
0.00164302
0.00171167
0.00179386
0.00188746
0.00199114
0.00210396
0.00222517
0.002354
0.00248965
0.00263115
0.00277738
0.00292708
0.00307876
0.0032308
0.00338142
0.00352872
0.00367073
0.00176749
0.00208171
0.00173018
0.00162821
0.00161549
0.00164667
0.00170478
0.00178221
0.00187513
0.00198143
0.00209987
0.00222961
0.00236994
0.00252014
0.00267936
0.00284655
0.00302042
0.0031994
0.00338168
0.00356519
0.00374764
0.00392664
0.0040997
0.00176553
0.00216271
0.00178479
0.00168036
0.00167039
0.0017073
0.00177352
0.00186127
0.00196675
0.00208796
0.0022238
0.00237354
0.00253661
0.00271233
0.00289985
0.00309801
0.00330531
0.00351984
0.00373933
0.00396114
0.00418236
0.00439992
0.00461069
0.00176425
0.0022407
0.00184218
0.00173616
0.00172994
0.00177379
0.00184956
0.00194937
0.00206951
0.00220816
0.00236443
0.00253781
0.00272788
0.00293411
0.00315564
0.00339123
0.0036391
0.00389693
0.00416184
0.00443047
0.00469906
0.00496365
0.00522028
0.00176833
0.00230291
0.00190139
0.00179537
0.00179417
0.0018463
0.00193319
0.00204698
0.00218414
0.00234311
0.00252331
0.00272456
0.0029467
0.0031894
0.00345188
0.0037328
0.00403006
0.00434081
0.00466138
0.00498744
0.0053141
0.00563623
0.00594871
0.00746464
0.00238804
0.0019617
0.00185786
0.00186309
0.00192493
0.00202465
0.00215452
0.00231129
0.00249382
0.00270196
0.00293598
0.00319616
0.00348246
0.00379427
0.00413018
0.00448773
0.00486339
0.00525245
0.00564925
0.00604739
0.00644011
0.00682072
0.00176838
0.00244853
0.002026
0.00192413
0.00193673
0.00200971
0.00212406
0.00227227
0.00245151
0.0026612
0.0029018
0.00317424
0.0034794
0.00381775
0.00418901
0.00459172
0.00502307
0.00547861
0.00595231
0.00643667
0.00692316
0.00740281
0.00786667
0.00746454
0.00255189
0.00209328
0.00199365
0.00201485
0.00210047
0.00223135
0.0024003
0.00260509
0.00284587
0.00312397
0.00344122
0.00379943
0.00419982
0.00464264
0.0051266
0.00564844
0.00620267
0.00678141
0.00737468
0.00797096
0.00855812
0.0091241
0.00747028
0.00261077
0.00215916
0.00206566
0.00209707
0.00219695
0.0023463
0.00253845
0.00277197
0.00304802
0.0033691
0.00373831
0.00415874
0.00463282
0.00516167
0.00574441
0.00637748
0.00705405
0.00776387
0.00849348
0.00922708
0.00994799
0.0106398
0.00746601
0.0026844
0.00222677
0.00214003
0.00218304
0.00229877
0.00246849
0.00268626
0.00295168
0.00326727
0.0036371
0.00406602
0.00455894
0.00512007
0.00575202
0.00645481
0.00722475
0.00805359
0.00892793
0.00982948
0.0107362
0.0116248
0.0124723
0.00747309
0.00275577
0.00229479
0.00221619
0.00227245
0.00240563
0.00259744
0.00284295
0.00314321
0.00350245
0.00392683
0.00442356
0.00500013
0.00566335
0.00641823
0.0072665
0.00820498
0.00922399
0.0103062
0.0114265
0.0125537
0.0136543
0.0146959
0.00748208
0.00281214
0.00236109
0.00229406
0.00236553
0.00251751
0.00273265
0.00300746
0.00334485
0.00375132
0.00423569
0.00480829
0.00548012
0.0062618
0.00716207
0.00818583
0.00933158
0.0105887
0.0119352
0.0133367
0.0147482
0.0161202
0.0174057
0.00176929
0.00285308
0.00242705
0.00237539
0.00246383
0.00263518
0.00287382
0.00317835
0.00355409
0.00401031
0.00455918
0.00521498
0.00599344
0.00691052
0.00798072
0.00921437
0.010614
0.0121696
0.0138545
0.0156216
0.0174054
0.0191302
0.020725
0.00176945
0.0028848
0.00249679
0.00246548
0.00257142
0.00276077
0.00302107
0.00335387
0.00376741
0.00427424
0.00489043
0.00563515
0.00653016
0.00759881
0.00886408
0.0103453
0.0120532
0.0139823
0.0161027
0.0183517
0.0206323
0.022825
0.0248169
0.00176858
0.00293397
0.00258574
0.0025779
0.00269722
0.0028986
0.003175
0.0035317
0.00398004
0.00453597
0.0052198
0.00605635
0.00707482
0.00830821
0.0097916
0.0115586
0.0136349
0.0160274
0.0187095
0.0216023
0.0245624
0.0273931
0.0299019
0.0074658
0.0030219
0.00274241
0.00274488
0.0028584
0.0030557
0.00333636
0.00370852
0.0041856
0.00478621
0.00553471
0.00646187
0.00760552
0.00901065
0.0107286
0.0128141
0.0153185
0.0182757
0.0216787
0.0254419
0.0293599
0.0330964
0.0362865
0.00176768
0.0034698
0.00312731
0.00303788
0.00308339
0.0032404
0.00350427
0.00387888
0.0043756
0.00501346
0.00581974
0.00683092
0.00809396
0.00966762
0.0116234
0.0140449
0.0170233
0.0206434
0.0249529
0.0298979
0.035216
0.0403215
0.0444126
0.0146122
0.00614703
0.00422484
0.00359568
0.00340678
0.00345548
0.00367215
0.00403331
0.00453888
0.00520421
0.00605752
0.00713987
0.00850687
0.0102314
0.0124071
0.0151526
0.0186132
0.0229569
0.0283484
0.0348693
0.0423069
0.0497081
0.0549422
0.146848
0.023126
0.00755084
0.00462443
0.00383527
0.00368095
0.00382115
0.00415641
0.00466162
0.00534391
0.00623023
0.00736462
0.00880946
0.0106496
0.0129991
0.0160109
0.019891
0.0249158
0.031447
0.0399083
0.0505743
0.062531
0.0688862
1.53703
0.12333
0.0164652
0.00609429
0.00424435
0.00384893
0.00391589
0.00422747
0.00472893
0.00541878
0.00632208
0.00748408
0.00897095
0.0108746
0.0133214
0.0164873
0.0206225
0.026096
0.033482
0.0437451
0.0586772
0.0820093
0.0876691
0.00738956
0.00566281
0.00547919
0.00673152
0.00256713
0.00260995
0.00258648
0.00251104
0.00195408
0.00198954
0.00198301
0.00193711
0.00180234
0.00182371
0.00181848
0.00179037
0.00178593
0.00181591
0.00179714
0.00174993
0.0017322
0.00174925
0.00175335
0.00172451
0.00171799
0.00173192
0.00173105
0.00170983
0.00169199
0.00170197
0.00170225
0.00169114
0.00168055
0.00168646
0.00168805
0.00168398
0.0016898
0.00169427
0.0016964
0.00169574
0.00171713
0.0017213
0.00172392
0.00172497
0.00176091
0.00176555
0.00176903
0.00177136
0.0018202
0.00182597
0.00183079
0.00183459
0.00189497
0.00190253
0.00190918
0.00191482
0.00198657
0.00199656
0.00200557
0.00201352
0.00209743
0.00211045
0.00212241
0.00213321
0.0022306
0.00224733
0.00226288
0.00227715
0.00238978
0.00241098
0.00243087
0.00244935
0.00257941
0.002606
0.00263113
0.00265469
0.00280491
0.00283799
0.00286943
0.00289913
0.00307288
0.00311377
0.00315284
0.00318994
0.00339135
0.00344169
0.00348995
0.00353598
0.00377012
0.00383185
0.00389122
0.00394802
0.00422106
0.00429657
0.00436933
0.00443911
0.00475865
0.00485079
0.00493971
0.0050251
0.00540044
0.00551268
0.00562105
0.0057252
0.00616786
0.00630437
0.00643615
0.00656279
0.00708711
0.0072529
0.00741283
0.00756639
0.00819028
0.00839141
0.00858512
0.0087708
0.00951712
0.00976086
0.00999501
0.0102189
0.0111171
0.0114121
0.0116946
0.0119637
0.0130521
0.0134089
0.0137489
0.0140711
0.0154005
0.0158316
0.0162397
0.016624
0.0182624
0.0187824
0.0192706
0.0197264
0.0217671
0.0223929
0.0229741
0.0235106
0.026084
0.0268343
0.0275209
0.0281454
0.0314389
0.0323314
0.0331322
0.0338462
0.0381367
0.0391822
0.0400949
0.0408874
0.0465958
0.0477815
0.0487779
0.0496126
0.0573894
0.0586421
0.0596395
0.0604355
0.0712688
0.0723806
0.0731997
0.0738124
0.0890405
0.0895778
0.0899257
0.0901624
0.00261244
0.00169224
0.0013868
0.00126252
0.00120406
0.00117305
0.00115262
0.00113283
0.00111004
0.00108496
0.00105312
0.00101238
0.000963805
0.000909799
0.000854604
0.000808213
0.000787189
0.000860275
0.00166915
0.00202529
0.00163396
0.00142868
0.00132023
0.00126079
0.00122712
0.0012068
0.00119199
0.00117865
0.00116533
0.00114652
0.001115
0.00106979
0.00101315
0.000952382
0.000903469
0.000888037
0.000978957
0.00184525
0.00179584
0.00159888
0.00145846
0.00137094
0.00131886
0.00128908
0.00127312
0.00126496
0.00126085
0.00125839
0.0012506
0.00122419
0.00117811
0.00111823
0.00105284
0.00100067
0.000984057
0.0010764
0.00191007
0.00171801
0.00159758
0.00149101
0.00141976
0.0013763
0.0013523
0.00134181
0.00134022
0.00134422
0.00135229
0.00135484
0.00133091
0.0012842
0.00122486
0.00115567
0.00110031
0.0010824
0.00118369
0.00252586
0.00167765
0.00159039
0.00151812
0.00146462
0.00142985
0.00141095
0.00140356
0.00140421
0.0014085
0.00141001
0.0014079
0.00140878
0.00138791
0.00130666
0.00123977
0.00119032
0.00118519
0.00133869
0.0026134
0.00167234
0.00160301
0.00154244
0.00150109
0.00147581
0.00146303
0.00145592
0.00145279
0.00145128
0.00144743
0.00144946
0.00145133
0.00142879
0.00137469
0.00132325
0.00127815
0.00127625
0.00145721
0.00286986
0.00166514
0.00161283
0.00157115
0.00154024
0.00151731
0.00150464
0.00149416
0.00148359
0.00147652
0.00147356
0.00148286
0.00151027
0.0015009
0.00141887
0.00136778
0.00133626
0.00134377
0.001467
0.00115816
0.00166347
0.00162573
0.00159279
0.00156717
0.00154798
0.00153414
0.00151943
0.00150484
0.00149461
0.0014911
0.0014996
0.00151585
0.00149459
0.00142342
0.00136589
0.00133825
0.00136834
0.00161016
0.00490229
0.0016708
0.00164772
0.00162351
0.0016011
0.00158304
0.00156621
0.00154779
0.00153023
0.00151644
0.00150816
0.00150561
0.00150229
0.0014744
0.0014219
0.00136593
0.00133415
0.00136584
0.00161425
0.00115795
0.00169111
0.00167956
0.0016632
0.00164369
0.00162575
0.00160654
0.00158472
0.00156306
0.00154424
0.00152891
0.00151452
0.00149291
0.00145381
0.00140917
0.00136066
0.0013262
0.00134529
0.00155534
0.00489329
0.00172466
0.0017199
0.00170954
0.0016936
0.0016763
0.00165577
0.00163091
0.00160508
0.00158063
0.00155749
0.00153284
0.00149927
0.00145
0.00139792
0.00135188
0.00131749
0.00132095
0.0014586
0.00115737
0.00177351
0.00177202
0.00176515
0.00175254
0.0017359
0.00171442
0.00168801
0.00165911
0.00162944
0.00159896
0.0015656
0.00152414
0.001469
0.00140705
0.00135407
0.00131629
0.00131027
0.00141081
0.00489684
0.00183913
0.00184033
0.00183578
0.00182526
0.00180921
0.00178748
0.00176038
0.00172925
0.00169521
0.00165845
0.00161788
0.00157052
0.00151253
0.00144561
0.00138199
0.00133528
0.00132283
0.00139656
0.00115684
0.00192236
0.00192705
0.0019252
0.00191664
0.00190158
0.00188019
0.00185275
0.00181996
0.00178256
0.00174088
0.00169466
0.00164274
0.00158342
0.00151656
0.00144755
0.00139241
0.00137756
0.00144888
0.00489263
0.00202476
0.00203402
0.00203594
0.00203025
0.00201709
0.00199672
0.00196941
0.00193558
0.00189579
0.00185055
0.00180018
0.00174485
0.00168469
0.00162023
0.00155436
0.00150094
0.00149577
0.001597
0.00113477
0.00214901
0.00216403
0.00217095
0.00216934
0.00215919
0.00214074
0.00211425
0.00208011
0.00203886
0.00199117
0.00193786
0.00187997
0.00181898
0.00175705
0.00169844
0.00165665
0.00167195
0.0018247
0.00112104
0.00229853
0.00232067
0.0023339
0.00233761
0.00233164
0.00231613
0.00229133
0.00225766
0.00221573
0.00216641
0.00211091
0.00205095
0.00198903
0.001929
0.0018776
0.00185041
0.00188975
0.00211729
0.00479415
0.00247751
0.00250831
0.0025293
0.00253967
0.00253911
0.00252761
0.00250541
0.00247295
0.00243095
0.00238045
0.00232303
0.00226095
0.0021976
0.00213827
0.00209218
0.00207843
0.00214621
0.00246878
0.00491616
0.00269105
0.00273237
0.00276276
0.00278129
0.00278744
0.00278107
0.00276236
0.00273176
0.00269008
0.00263853
0.00257897
0.00251413
0.00244813
0.00238751
0.00234361
0.00233928
0.00243233
0.00284042
0.00542978
0.00294541
0.00299945
0.00304121
0.00306958
0.00308389
0.00308384
0.00306952
0.00304135
0.00300019
0.00294739
0.00288503
0.00281623
0.00274573
0.00268108
0.00263547
0.00263539
0.00274772
0.00322449
0.00625736
0.00324821
0.0033176
0.00337305
0.00341327
0.00343738
0.00344495
0.00343594
0.00341073
0.00337015
0.00331566
0.00324949
0.00317507
0.00309766
0.0030257
0.00297404
0.00297255
0.00309614
0.0036291
0.00705295
0.00360873
0.00369663
0.00376852
0.00382291
0.00385874
0.00387539
0.00387269
0.00385094
0.00381093
0.00375413
0.00368289
0.00360086
0.00351375
0.00343086
0.00336868
0.00336025
0.00348898
0.00407332
0.00789259
0.00403823
0.00414836
0.00423995
0.00431124
0.00436098
0.00438839
0.00439314
0.00437541
0.00433593
0.00427611
0.00419835
0.0041065
0.00400668
0.00390913
0.00383192
0.00381176
0.00394233
0.00458275
0.00887324
0.00455034
0.00468712
0.00480219
0.00489355
0.00495973
0.00499981
0.00501331
0.00500027
0.00496131
0.00489775
0.00481198
0.00470802
0.0045924
0.00447619
0.00437943
0.00434341
0.00447433
0.00518129
0.0100555
0.00516157
0.00533018
0.00547312
0.00558816
0.00567368
0.00572861
0.00575235
0.00574483
0.00570651
0.0056386
0.00554343
0.00542503
0.0052903
0.00515132
0.00503043
0.00497439
0.00510426
0.00588742
0.0114429
0.00589191
0.00609837
0.00627422
0.00641704
0.00652512
0.00659735
0.00663307
0.00663211
0.0065948
0.00652215
0.00641631
0.00628125
0.00612419
0.00595822
0.00580833
0.00572757
0.00585392
0.00672048
0.0130458
0.00676563
0.00701686
0.0072313
0.00740644
0.00754063
0.00763286
0.00768256
0.00768951
0.00765388
0.00757645
0.00745907
0.00730551
0.00712316
0.00692609
0.00674209
0.00663117
0.00675025
0.00770538
0.0148837
0.00781223
0.00811609
0.00837537
0.00858774
0.00875187
0.00886706
0.00893299
0.00894951
0.00891669
0.00883502
0.00870592
0.00853278
0.00832289
0.00809111
0.00786802
0.00772115
0.00782834
0.00887576
0.0169759
0.0090676
0.0094329
0.00974385
0.00999865
0.0101966
0.0103378
0.0104224
0.0104506
0.0104223
0.0103378
0.0101979
0.0100054
0.00976708
0.00949832
0.00923228
0.00904458
0.00913701
0.010289
0.0194554
0.0105758
0.0110123
0.011382
0.0116844
0.01192
0.0120902
0.012196
0.0122381
0.0122168
0.012132
0.0119838
0.0117742
0.0115091
0.0112037
0.0108936
0.0106632
0.0107432
0.0120318
0.0225733
0.012391
0.012909
0.0133446
0.0136992
0.0139758
0.0141775
0.0143069
0.0143657
0.0143547
0.0142736
0.0141219
0.0139004
0.0136138
0.0132766
0.012926
0.0126564
0.0127339
0.0142103
0.0265691
0.0145804
0.0151903
0.015698
0.0161085
0.0164282
0.0166631
0.0168182
0.0168966
0.0169
0.0168282
0.0166805
0.0164563
0.0161589
0.0158014
0.0154222
0.0151256
0.0152196
0.0169487
0.0316316
0.0172273
0.0179387
0.018523
0.018991
0.0193541
0.0196226
0.0198044
0.0199051
0.0199276
0.0198727
0.0197393
0.0195266
0.0192363
0.01888
0.0184966
0.0181998
0.0183447
0.020409
0.0379943
0.0204358
0.0212558
0.021918
0.0224417
0.0228457
0.0231457
0.023354
0.023479
0.0235257
0.0234962
0.0233908
0.023209
0.0229525
0.0226327
0.0222887
0.0220437
0.0223039
0.0248281
0.0460969
0.0243364
0.0252671
0.0260026
0.0265753
0.0270136
0.0273403
0.0275725
0.0277223
0.0277974
0.0278026
0.0277407
0.0276141
0.0274278
0.0271963
0.0269633
0.0268636
0.0273603
0.0305502
0.0565906
0.0290925
0.0301266
0.0309225
0.0315304
0.0319912
0.0323356
0.0325862
0.0327589
0.032865
0.0329128
0.0329098
0.0328651
0.0327925
0.0327188
0.0327037
0.032907
0.0338638
0.0380801
0.0704446
0.0349086
0.0360231
0.0368539
0.0374746
0.0379398
0.0382885
0.0385483
0.0387387
0.0388746
0.0389689
0.0390362
0.0390964
0.0391812
0.0393453
0.0396907
0.0404419
0.0422601
0.0481798
0.0892627
0.0420371
0.0431851
0.0440095
0.0446103
0.0450553
0.0453902
0.0456459
0.0458445
0.0460037
0.0461413
0.0462803
0.0464557
0.0467266
0.047197
0.0480575
0.0496892
0.0530446
0.06201
0.1161
0.0507837
0.0518855
0.052644
0.0531826
0.0535776
0.0538767
0.0541112
0.0543034
0.0544726
0.0546399
0.0548358
0.055111
0.055557
0.056346
0.0578144
0.0606569
0.0665216
0.0811518
0.156886
0.0615047
0.0624434
0.0630615
0.0634901
0.0638024
0.0640417
0.064235
0.0644018
0.0645599
0.0647307
0.0649478
0.0652705
0.0658138
0.0668116
0.0687673
0.0728436
0.0820654
0.106781
0.224125
0.0745909
0.0752253
0.0756263
0.0758998
0.0760996
0.0762557
0.0763864
0.0765049
0.0766241
0.0767609
0.0769431
0.0772225
0.0777053
0.078625
0.0805408
0.0849466
0.096523
0.134879
0.348551
0.090442
0.0906537
0.0907836
0.0908719
0.0909376
0.0909907
0.0910374
0.0910824
0.0911306
0.0911888
0.0912689
0.0913934
0.09161
0.0920295
0.0929459
0.0952921
0.102862
0.139099
0.579414
)
;

boundaryField
{
    leftWall
    {
        type            epsilonWallFunction;
        value           nonuniform List<scalar> 
50
(
0.000108511
0.00022768
0.000391897
0.000554447
0.000711479
0.000864747
0.00101769
0.00117517
0.0014051
0.00174818
0.00218861
0.00301413
0.00384552
0.00382352
0.00168594
0.00176899
0.00176387
0.0017631
0.00176409
0.00176764
0.00176921
0.00176864
0.00176886
0.00176558
0.00176525
0.00176266
0.00746191
0.00176649
0.00176644
0.0017661
0.00176548
0.00176749
0.00176553
0.00176425
0.00176833
0.00746464
0.00176838
0.00746454
0.00747028
0.00746601
0.00747309
0.00748208
0.00176929
0.00176945
0.00176858
0.0074658
0.00176768
0.0146122
0.146848
1.53703
)
;
    }
    rightWall
    {
        type            epsilonWallFunction;
        value           nonuniform List<scalar> 
50
(
0.00011297
0.000199003
0.000351749
0.000524555
0.000713025
0.000916528
0.00114402
0.00139803
0.00166915
0.00184525
0.00191007
0.00252586
0.0026134
0.00286986
0.00115816
0.00490229
0.00115795
0.00489329
0.00115737
0.00489684
0.00115684
0.00489263
0.00113477
0.00112104
0.00479415
0.00491616
0.00542978
0.00625736
0.00705295
0.00789259
0.00887324
0.0100555
0.0114429
0.0130458
0.0148837
0.0169759
0.0194554
0.0225733
0.0265691
0.0316316
0.0379943
0.0460969
0.0565906
0.0704446
0.0892627
0.1161
0.156886
0.224125
0.348551
0.579414
)
;
    }
    lowerWall
    {
        type            epsilonWallFunction;
        value           nonuniform List<scalar> 
62
(
0.000108511
0.000609587
0.00109463
0.00153555
0.00193394
0.00229134
0.00260915
0.0028886
0.00313013
0.00333721
0.00351883
0.00368495
0.00383851
0.00396268
0.00401118
0.00390445
0.00360286
0.00318147
0.00265404
0.00208997
0.00162029
0.000985875
0.000328449
0.000328449
0.000522681
0.000874696
0.00128566
0.00179809
0.00249285
0.00357849
0.00600219
0.00738956
0.00566281
0.00547919
0.00673152
0.000569987
0.000595356
0.000778543
0.000952942
0.00124997
0.00172434
0.00258359
0.00478257
0.000569987
0.0018043
0.00280857
0.00328078
0.00354584
0.00367339
0.00369642
0.00367331
0.0034617
0.00306558
0.00257381
0.00204189
0.00177144
0.00176013
0.00165529
0.00142137
0.000966874
0.000554473
0.00011297
)
;
    }
    atmosphere
    {
        type            inletOutlet;
        inletValue      uniform 0.1;
        value           nonuniform List<scalar> 
46
(
0.1
0.12333
0.0164652
0.00609429
0.00424435
0.00384893
0.00391589
0.00422747
0.00472893
0.00541878
0.00632208
0.00748408
0.00897095
0.0108746
0.0133214
0.0164873
0.0206225
0.026096
0.033482
0.0437451
0.0586772
0.1
0.1
0.1
0.1
0.1
0.1
0.1
0.1
0.1
0.1
0.1
0.1
0.1
0.1
0.1
0.1
0.1
0.1
0.1
0.1
0.1
0.1
0.1
0.1
0.579414
)
;
    }
    defaultFaces
    {
        type            empty;
    }
}


// ************************************************************************* //
