/*--------------------------------*- C++ -*----------------------------------*\
  =========                 |
  \\      /  F ield         | OpenFOAM: The Open Source CFD Toolbox
   \\    /   O peration     | Website:  https://openfoam.org
    \\  /    A nd           | Version:  9
     \\/     M anipulation  |
\*---------------------------------------------------------------------------*/
FoamFile
{
    format      ascii;
    class       volVectorField;
    location    "1";
    object      U;
}
// * * * * * * * * * * * * * * * * * * * * * * * * * * * * * * * * * * * * * //

dimensions      [0 1 -1 0 0 0 0];

internalField   nonuniform List<vector> 
6400
(
(6.03909e-05 -6.08446e-05 -8.30299e-07)
(0.000153051 -5.44078e-05 4.68664e-05)
(0.00014469 -4.55719e-06 0.000156689)
(-1.9655e-05 5.24568e-05 0.000301008)
(-0.000342937 0.000104317 0.00045352)
(-0.0008056 0.000146915 0.000595584)
(-0.00138157 0.00017951 0.000714074)
(-0.0020434 0.000202663 0.000800122)
(-0.00276445 0.00021731 0.000848122)
(-0.00351982 0.000224418 0.000854914)
(-0.00428663 0.000224868 0.000819156)
(-0.00504408 0.000219417 0.000740884)
(-0.00577328 0.0002087 0.000621203)
(-0.00645709 0.000193249 0.000462086)
(-0.00707997 0.000173519 0.000266251)
(-0.0076279 0.000149921 3.70956e-05)
(-0.00808836 0.000122856 -0.000221336)
(-0.00845035 9.27447e-05 -0.000504363)
(-0.00870458 6.00603e-05 -0.000806679)
(-0.00884363 2.5353e-05 -0.00112238)
(-0.00886224 -1.07311e-05 -0.001445)
(-0.00875759 -4.74385e-05 -0.00176762)
(-0.00852963 -8.39052e-05 -0.00208296)
(-0.00818137 -0.000119164 -0.00238354)
(-0.00771914 -0.00015216 -0.00266194)
(-0.00715277 -0.000181781 -0.00291097)
(-0.00649566 -0.00020689 -0.00312404)
(-0.00576475 -0.000226367 -0.00329538)
(-0.00498035 -0.000239156 -0.00342044)
(-0.00416576 -0.000244314 -0.00349617)
(-0.00334681 -0.000241045 -0.00352135)
(-0.00255119 -0.000228749 -0.00349688)
(-0.00180766 -0.000207045 -0.00342608)
(-0.00114508 -0.000175829 -0.00331496)
(-0.000591145 -0.00013537 -0.00317256)
(-0.000170619 -8.66135e-05 -0.00301126)
(9.71961e-05 -3.19949e-05 -0.00284711)
(0.00020372 2.27716e-05 -0.00270038)
(0.000167141 6.41333e-05 -0.00259676)
(5.88956e-05 5.86786e-05 -0.00221423)
(5.5896e-05 -0.000154956 -4.92072e-05)
(5.54089e-05 -5.28987e-05 -1.09073e-06)
(-0.000223627 0.000204699 0.000102108)
(-0.000851081 0.00049784 0.000232191)
(-0.00183348 0.000775014 0.000369161)
(-0.0031386 0.00101265 0.000496886)
(-0.00471445 0.00120168 0.000603136)
(-0.00650064 0.00134034 0.000679016)
(-0.00843459 0.00143024 0.000718449)
(-0.010455 0.00147448 0.000717662)
(-0.0125034 0.00147664 0.000674725)
(-0.0145256 0.00144035 0.000589177)
(-0.016471 0.00136903 0.000461751)
(-0.0182938 0.00126591 0.000294173)
(-0.0199518 0.00113402 8.9032e-05)
(-0.0214074 0.000976303 -0.000150296)
(-0.0226271 0.000795775 -0.000419701)
(-0.0235817 0.000595628 -0.000714364)
(-0.0242472 0.000379388 -0.00102879)
(-0.0246046 0.000151028 -0.00135685)
(-0.0246411 -8.49522e-05 -0.00169186)
(-0.0243507 -0.000323478 -0.00202664)
(-0.0237345 -0.000558905 -0.0023537)
(-0.022802 -0.000785079 -0.00266542)
(-0.0215708 -0.000995444 -0.00295422)
(-0.0200677 -0.00118322 -0.00321288)
(-0.0183285 -0.00134159 -0.00343482)
(-0.0163976 -0.00146402 -0.00361439)
(-0.0143276 -0.00154446 -0.00374726)
(-0.0121781 -0.0015777 -0.00383067)
(-0.0100147 -0.00155969 -0.00386379)
(-0.00790664 -0.00148779 -0.00384799)
(-0.00592488 -0.00136117 -0.00378705)
(-0.0041389 -0.00118128 -0.00368743)
(-0.0026131 -0.00095254 -0.00355834)
(-0.0014019 -0.000683897 -0.00341192)
(-0.000543053 -0.000391929 -0.00326304)
(-4.72587e-05 -0.000106673 -0.00312925)
(0.000120694 0.000116822 -0.00303119)
(6.53792e-05 0.000167095 -0.00252185)
(8.34614e-06 -0.00015067 -0.00016002)
(-0.000198811 0.000224305 -0.000103449)
(-0.000876089 0.000876977 1.44148e-06)
(-0.00205169 0.0016016 0.000119235)
(-0.00371868 0.00229347 0.000238704)
(-0.00583415 0.00289627 0.000347597)
(-0.00832849 0.00338316 0.000436499)
(-0.0111189 0.00374457 0.000498372)
(-0.0141176 0.00398033 0.000528175)
(-0.0172362 0.00409529 0.000522641)
(-0.0203894 0.00409671 0.000479992)
(-0.0234961 0.00399284 0.000399684)
(-0.0264807 0.00379219 0.000282216)
(-0.0292733 0.00350319 0.000128975)
(-0.0318101 0.00313417 -5.78581e-05)
(-0.0340337 0.00269352 -0.000275373)
(-0.0358933 0.00218994 -0.000519969)
(-0.0373449 0.00163275 -0.000787378)
(-0.0383525 0.00103216 -0.0010727)
(-0.0388882 0.000399543 -0.00137044)
(-0.0389338 -0.000252385 -0.00167458)
(-0.0384809 -0.000909496 -0.00197865)
(-0.0375327 -0.00155628 -0.0022759)
(-0.036104 -0.00217603 -0.00255943)
(-0.0342227 -0.00275114 -0.00282244)
(-0.0319296 -0.00326355 -0.00305841)
(-0.0292784 -0.00369536 -0.00326144)
(-0.0263358 -0.00402944 -0.00342653)
(-0.0231797 -0.00425029 -0.00354981)
(-0.0198985 -0.00434478 -0.00362893)
(-0.0165881 -0.00430306 -0.00366324)
(-0.0133496 -0.00411948 -0.00365405)
(-0.0102853 -0.00379361 -0.00360478)
(-0.00749468 -0.00333158 -0.00352111)
(-0.00506834 -0.00274797 -0.00341095)
(-0.00308181 -0.00206908 -0.00328435)
(-0.00158671 -0.00133863 -0.00315332)
(-0.000598799 -0.000627097 -0.00303168)
(-8.73241e-05 -4.6267e-05 -0.00293278)
(2.81407e-05 0.000209169 -0.00241873)
(-4.79686e-05 8.31209e-06 -0.000308732)
(-0.000499864 0.000856348 -0.000234377)
(-0.00163335 0.00205798 -0.000112096)
(-0.00340257 0.00334503 8.77645e-06)
(-0.00577175 0.0045663 0.000124899)
(-0.00868224 0.00563295 0.000226862)
(-0.0120473 0.00649816 0.000307775)
(-0.0157658 0.00714197 0.000362524)
(-0.0197302 0.00756053 0.000387328)
(-0.0238317 0.00775945 0.000379689)
(-0.0279639 0.00774951 0.000338242)
(-0.0320248 0.00754416 0.000262594)
(-0.0359184 0.00715804 0.000153195)
(-0.0395559 0.00660627 1.12435e-05)
(-0.0428557 0.00590429 -0.000161374)
(-0.0457442 0.00506796 -0.000362117)
(-0.0481564 0.00411395 -0.000587813)
(-0.0500365 0.0030602 -0.000834664)
(-0.0513387 0.00192633 -0.00109827)
(-0.0520281 0.00073405 -0.00137365)
(-0.0520818 -0.000492551 -0.00165532)
(-0.0514901 -0.00172693 -0.00193734)
(-0.0502577 -0.00294017 -0.00221348)
(-0.0484042 -0.00410135 -0.00247734)
(-0.0459655 -0.00517811 -0.00272258)
(-0.0429936 -0.00613745 -0.00294312)
(-0.0395568 -0.00694683 -0.00313343)
(-0.0357392 -0.00757536 -0.00328879)
(-0.0316389 -0.00799526 -0.00340554)
(-0.0273666 -0.00818334 -0.0034814)
(-0.0230424 -0.00812263 -0.00351566)
(-0.018792 -0.00780416 -0.00350937)
(-0.0147428 -0.00722879 -0.00346547)
(-0.0110174 -0.00640959 -0.0033888)
(-0.00772825 -0.00537488 -0.00328607)
(-0.00496933 -0.00417278 -0.00316553)
(-0.00280778 -0.00287865 -0.00303697)
(-0.00127133 -0.00160562 -0.00291183)
(-0.000349988 -0.000519024 -0.00279688)
(-2.00149e-05 0.00012028 -0.00227054)
(-0.000102398 0.000333355 -0.000471386)
(-0.000805236 0.00187208 -0.000375275)
(-0.00241334 0.00377609 -0.000228135)
(-0.00479283 0.00574054 -9.63429e-05)
(-0.00786902 0.00758061 2.3958e-05)
(-0.0115618 0.00918108 0.000125597)
(-0.015765 0.0104773 0.000203941)
(-0.0203599 0.0114391 0.000255738)
(-0.0252219 0.0120585 0.000278502)
(-0.0302254 0.0123415 0.000270597)
(-0.0352468 0.0123021 0.000231185)
(-0.0401677 0.0119594 0.000160129)
(-0.044876 0.0113348 5.79288e-05)
(-0.0492673 0.010451 -7.43267e-05)
(-0.0532458 0.00933194 -0.000234981)
(-0.056725 0.00800251 -0.000421813)
(-0.0596284 0.00648913 -0.000632029)
(-0.0618903 0.00482031 -0.000862256)
(-0.063457 0.00302723 -0.00110854)
(-0.0642876 0.00114429 -0.00136634)
(-0.0643556 -0.000790592 -0.00163063)
(-0.0636497 -0.00273584 -0.00189589)
(-0.0621755 -0.00464641 -0.00215629)
(-0.0599562 -0.00647439 -0.00240577)
(-0.0570335 -0.0081698 -0.0026383)
(-0.0534684 -0.00968194 -0.00284803)
(-0.0493402 -0.0109609 -0.00302959)
(-0.0447467 -0.0119597 -0.00317836)
(-0.0398022 -0.012636 -0.00329068)
(-0.0346352 -0.0129548 -0.00336417)
(-0.0293852 -0.0128911 -0.00339788)
(-0.0241986 -0.012432 -0.0033925)
(-0.0192234 -0.0115801 -0.00335038)
(-0.0146031 -0.0103564 -0.00327557)
(-0.0104701 -0.00880441 -0.00317363)
(-0.00693776 -0.00699557 -0.0030513)
(-0.00409229 -0.00503686 -0.00291656)
(-0.00198014 -0.00308096 -0.00277918)
(-0.000622548 -0.00133822 -0.00264004)
(-6.74137e-05 -0.000115594 -0.00209829)
(-0.000152021 0.000817679 -0.000630632)
(-0.00109807 0.00327163 -0.00051038)
(-0.0031769 0.00603764 -0.0003342)
(-0.00616419 0.00879424 -0.000186156)
(-0.00994123 0.0113359 -5.61444e-05)
(-0.0144019 0.0135292 5.03244e-05)
(-0.0194181 0.0152962 0.000130533)
(-0.0248524 0.0165987 0.000182914)
(-0.0305641 0.0174257 0.000206212)
(-0.0364126 0.0177839 0.000199659)
(-0.0422601 0.0176913 0.000162983)
(-0.0479744 0.0171728 9.63638e-05)
(-0.0534303 0.0162571 4.10661e-07)
(-0.0585112 0.0149757 -0.000123839)
(-0.0631099 0.0133617 -0.000274904)
(-0.0671291 0.0114503 -0.000450832)
(-0.0704832 0.00927919 -0.00064916)
(-0.0730983 0.00688889 -0.000866881)
(-0.0749141 0.00432387 -0.00110042)
(-0.0758843 0.001633 -0.00134564)
(-0.075979 -0.00113 -0.00159784)
(-0.075185 -0.00390646 -0.00185183)
(-0.0735079 -0.00663307 -0.00210204)
(-0.0709729 -0.00924262 -0.00234264)
(-0.0676259 -0.0116652 -0.0025677)
(-0.0635337 -0.0138302 -0.00277146)
(-0.0587845 -0.0156679 -0.00294853)
(-0.0534864 -0.0171129 -0.00309417)
(-0.0477665 -0.0181065 -0.00320455)
(-0.0417681 -0.0186001 -0.003277)
(-0.0356474 -0.0185591 -0.00331022)
(-0.0295688 -0.0179659 -0.00330441)
(-0.0236994 -0.0168242 -0.00326132)
(-0.018203 -0.0151627 -0.00318422)
(-0.0132325 -0.0130402 -0.00307772)
(-0.00892304 -0.0105507 -0.0029473)
(-0.00538403 -0.00783078 -0.00279965)
(-0.00268604 -0.00506817 -0.00264357)
(-0.000887286 -0.00250986 -0.002475)
(-0.000110671 -0.000494118 -0.00191671)
(-0.00019677 0.00145076 -0.000773354)
(-0.00137355 0.00504237 -0.000626602)
(-0.00390854 0.00883222 -0.000419478)
(-0.00749029 0.0124962 -0.000251975)
(-0.0119545 0.0158194 -0.00010862)
(-0.0171663 0.0186585 6.2747e-06)
(-0.0229734 0.020928 9.15796e-05)
(-0.0292186 0.0225854 0.000147206)
(-0.035745 0.023619 0.000173013)
(-0.0423978 0.0240376 0.000169051)
(-0.0490266 0.0238641 0.000135605)
(-0.0554875 0.0231298 7.31842e-05)
(-0.0616448 0.0218718 -1.74658e-05)
(-0.0673715 0.0201308 -0.000135325)
(-0.0725512 0.0179501 -0.000279053)
(-0.0770784 0.0153762 -0.000446925)
(-0.0808594 0.0124587 -0.000636766)
(-0.0838138 0.00925157 -0.000845892)
(-0.0858752 0.00581367 -0.00107106)
(-0.0869927 0.00220968 -0.00130842)
(-0.0871324 -0.00148947 -0.00155358)
(-0.0862788 -0.00520649 -0.00180157)
(-0.0844363 -0.00885814 -0.00204696)
(-0.0816304 -0.0123561 -0.002284)
(-0.0779091 -0.0156088 -0.00250677)
(-0.0733431 -0.0185234 -0.00270939)
(-0.0680263 -0.0210085 -0.0028863)
(-0.062075 -0.022978 -0.00303247)
(-0.0556266 -0.0243547 -0.00314373)
(-0.0488371 -0.0250745 -0.00321699)
(-0.0418773 -0.0250911 -0.00325045)
(-0.0349288 -0.0243806 -0.00324374)
(-0.0281779 -0.0229464 -0.00319798)
(-0.0218089 -0.0208236 -0.00311573)
(-0.0159974 -0.0180848 -0.00300078)
(-0.0109037 -0.0148446 -0.00285768)
(-0.00666379 -0.0112665 -0.00269223)
(-0.00337662 -0.0075687 -0.00251292)
(-0.00113988 -0.00402849 -0.00231164)
(-0.000149549 -0.00100688 -0.00173586)
(-0.000237475 0.00222226 -0.000889312)
(-0.00163207 0.00716755 -0.000712878)
(-0.00460491 0.0121425 -0.000474348)
(-0.00876272 0.0168295 -0.000285752)
(-0.0138963 0.0210134 -0.000126936)
(-0.0198405 0.0245489 -1.35352e-06)
(-0.0264176 0.0273488 9.11853e-05)
(-0.0334498 0.0293709 0.000151869)
(-0.0407636 0.0306055 0.000181546)
(-0.0481904 0.0310662 0.000181003)
(-0.0555682 0.0307818 0.000151041)
(-0.0627429 0.0297916 9.24782e-05)
(-0.0695695 0.0281418 6.197e-06)
(-0.0759132 0.0258828 -0.000106791)
(-0.0816496 0.0230693 -0.000245267)
(-0.0866664 0.0197592 -0.00040771)
(-0.0908635 0.0160153 -0.000592205)
(-0.0941547 0.0119053 -0.000796352)
(-0.0964681 0.00750337 -0.00101719)
(-0.0977482 0.00289078 -0.00125114)
(-0.0979569 -0.00184341 -0.001494)
(-0.0970752 -0.00660222 -0.00174096)
(-0.0951051 -0.0112813 -0.00198666)
(-0.0920708 -0.0157698 -0.0022253)
(-0.0880201 -0.0199528 -0.00245085)
(-0.0830254 -0.0237134 -0.00265718)
(-0.0771842 -0.0269366 -0.00283839)
(-0.0706186 -0.0295134 -0.00298904)
(-0.0634742 -0.0313454 -0.00310444)
(-0.0559181 -0.0323505 -0.00318093)
(-0.0481351 -0.0324685 -0.0032161)
(-0.0403236 -0.0316665 -0.00320892)
(-0.0326896 -0.0299451 -0.00315987)
(-0.0254401 -0.0273438 -0.00307083)
(-0.0187759 -0.0239463 -0.00294493)
(-0.0128852 -0.0198855 -0.00278602)
(-0.00793469 -0.0153487 -0.00259941)
(-0.00405444 -0.0105813 -0.00239373)
(-0.00138271 -0.00588703 -0.00215764)
(-0.000185111 -0.00164649 -0.00156274)
(-0.000275067 0.00312328 -0.000970194)
(-0.00187584 0.00963025 -0.00075967)
(-0.00526799 0.0159492 -0.000490056)
(-0.00998191 0.0217747 -0.000279732)
(-0.0157649 0.0268987 -0.000104371)
(-0.0224219 0.0311805 3.31984e-05)
(-0.0297486 0.0345373 0.000134273)
(-0.0375462 0.0369317 0.000201148)
(-0.0456244 0.03836 0.000235533)
(-0.0538011 0.0388426 0.000238867)
(-0.0619034 0.038417 0.000212405)
(-0.0697679 0.0371317 0.00015724)
(-0.0772418 0.0350426 7.43687e-05)
(-0.0841834 0.0322113 -3.52129e-05)
(-0.0904623 0.0287039 -0.000170405)
(-0.0959604 0.0245907 -0.000329885)
(-0.100572 0.0199477 -0.000511978)
(-0.104206 0.0148568 -0.000714546)
(-0.106786 0.00940782 -0.00093488)
(-0.108251 0.00369904 -0.00116963)
(-0.108557 -0.00216191 -0.00141474)
(-0.107683 -0.00805777 -0.0016655)
(-0.105625 -0.0138622 -0.00191654)
(-0.102405 -0.019441 -0.00216193)
(-0.0980682 -0.0246542 -0.00239539)
(-0.0926867 -0.0293594 -0.00261045)
(-0.086359 -0.0334157 -0.00280074)
(-0.0792111 -0.0366886 -0.00296022)
(-0.071395 -0.0390559 -0.00308356)
(-0.0630875 -0.0404144 -0.00316639)
(-0.054487 -0.0406865 -0.00320553)
(-0.0458091 -0.0398271 -0.00319925)
(-0.0372806 -0.0378307 -0.00314728)
(-0.0291333 -0.0347379 -0.00305089)
(-0.0215963 -0.0306406 -0.00291265)
(-0.0148891 -0.0256872 -0.00273591)
(-0.00921228 -0.0200864 -0.00252579)
(-0.00472975 -0.0141083 -0.0022915)
(-0.00162102 -0.00808178 -0.00201892)
(-0.000218776 -0.00240817 -0.00140218)
(-0.000310338 0.0041465 -0.00100892)
(-0.00210738 0.012415 -0.000758543)
(-0.0059017 0.0202332 -0.000458565)
(-0.0111521 0.0273118 -0.000226502)
(-0.0175645 0.033455 -3.42137e-05)
(-0.0249137 0.0385331 0.000115947)
(-0.0329696 0.042473 0.000226223)
(-0.041512 0.0452468 0.00029988)
(-0.0503336 0.0468607 0.000339381)
(-0.0592392 0.0473454 0.000346731)
(-0.0680454 0.0467488 0.000323575)
(-0.0765807 0.0451304 0.000271233)
(-0.0846854 0.0425577 0.000190786)
(-0.0922121 0.0391038 8.31908e-05)
(-0.0990256 0.0348468 -5.05854e-05)
(-0.105003 0.0298698 -0.000209418)
(-0.110035 0.0242619 -0.000391875)
(-0.114024 0.0181197 -0.000596071)
(-0.116889 0.0115482 -0.000819537)
(-0.118566 0.00466265 -0.00105912)
(-0.119004 -0.00241063 -0.0013109)
(-0.118176 -0.00953398 -0.00157021)
(-0.116074 -0.0165587 -0.00183159)
(-0.112713 -0.0233263 -0.00208894)
(-0.108135 -0.0296708 -0.00233564)
(-0.102409 -0.0354226 -0.00256475)
(-0.0956326 -0.0404125 -0.00276929)
(-0.0879324 -0.0444779 -0.00294251)
(-0.0794658 -0.0474696 -0.00307826)
(-0.0704181 -0.0492592 -0.00317129)
(-0.0610006 -0.0497478 -0.00321755)
(-0.0514464 -0.0488739 -0.00321444)
(-0.0420049 -0.0466217 -0.00316093)
(-0.0329351 -0.0430287 -0.00305763)
(-0.0244972 -0.0381916 -0.00290663)
(-0.0169457 -0.0322713 -0.00271092)
(-0.0105187 -0.0254955 -0.00247569)
(-0.00541646 -0.0181586 -0.00221099)
(-0.00186117 -0.0106151 -0.00190033)
(-0.000251979 -0.00329061 -0.00125762)
(-0.000343897 0.00528611 -0.000999136)
(-0.002329 0.0155085 -0.000701797)
(-0.00651022 0.0249769 -0.00037236)
(-0.0122786 0.0334211 -0.000118933)
(-0.0193004 0.0406622 9.01948e-05)
(-0.0273214 0.0465863 0.000253051)
(-0.0360856 0.0511352 0.000372719)
(-0.0453516 0.0542956 0.000453327)
(-0.0548957 0.0560873 0.000498003)
(-0.0645097 0.0565546 0.000509244)
(-0.0740004 0.0557586 0.000489025)
(-0.0831888 0.0537718 0.000438841)
(-0.0919097 0.0506743 0.000359817)
(-0.100011 0.0465519 0.00025284)
(-0.107354 0.0414952 0.000118722)
(-0.113812 0.0356002 -4.16321e-05)
(-0.119271 0.0289691 -0.000227042)
(-0.123631 0.0217124 -0.000435885)
(-0.126806 0.0139502 -0.000665934)
(-0.128725 0.00581433 -0.000914228)
(-0.129333 -0.00255088 -0.00117698)
(-0.128595 -0.0109876 -0.00144952)
(-0.126496 -0.0193246 -0.0017263)
(-0.123044 -0.0273789 -0.00200097)
(-0.118275 -0.0349577 -0.00226649)
(-0.11225 -0.0418621 -0.00251535)
(-0.105065 -0.0478927 -0.00273983)
(-0.096846 -0.0528557 -0.00293234)
(-0.0877517 -0.0565708 -0.00308573)
(-0.0779752 -0.0588804 -0.00319372)
(-0.0677399 -0.0596591 -0.0032512)
(-0.0572969 -0.0588237 -0.00325457)
(-0.0469197 -0.0563429 -0.0032019)
(-0.0368964 -0.0522463 -0.00309311)
(-0.027522 -0.0466313 -0.00292981)
(-0.0190899 -0.039668 -0.00271474)
(-0.0118791 -0.0316015 -0.00245332)
(-0.00613005 -0.0227501 -0.00215669)
(-0.00210982 -0.0134965 -0.00180614)
(-0.000286079 -0.00429617 -0.00113187)
(-0.000376186 0.00653748 -0.000934923)
(-0.00254254 0.018899 -0.000582203)
(-0.00709721 0.0301642 -0.000224276)
(-0.0133665 0.0400839 4.99097e-05)
(-0.0209782 0.0484999 0.000275477)
(-0.0296501 0.055319 0.000450781)
(-0.0391007 0.0605028 0.000579677)
(-0.0490679 0.0640567 0.000667082)
(-0.0593117 0.0660186 0.000716721)
(-0.0696118 0.06645 0.000731521)
(-0.0797659 0.0654278 0.000713731)
(-0.0895885 0.0630398 0.000664976)
(-0.0989098 0.0593802 0.000586378)
(-0.107575 0.0545484 0.00047872)
(-0.115441 0.0486478 0.000342622)
(-0.12238 0.0417873 0.000178742)
(-0.128275 0.034082 -1.20213e-05)
(-0.133023 0.0256556 -0.000228332)
(-0.136532 0.0166427 -0.000468227)
(-0.138727 0.00719022 -0.000728959)
(-0.139546 -0.00254 -0.00100687)
(-0.138945 -0.0123707 -0.00129731)
(-0.136901 -0.022109 -0.00159461)
(-0.133414 -0.0315469 -0.00189212)
(-0.128508 -0.0404641 -0.00218235)
(-0.122239 -0.0486316 -0.00245712)
(-0.114694 -0.0558169 -0.00270786)
(-0.105995 -0.0617919 -0.00292596)
(-0.0963018 -0.0663409 -0.00310312)
(-0.0858124 -0.0692718 -0.00323181)
(-0.0747615 -0.0704269 -0.00330568)
(-0.0634181 -0.0696951 -0.00331992)
(-0.0520805 -0.0670232 -0.00327157)
(-0.0410687 -0.0624271 -0.00315974)
(-0.0307157 -0.0559998 -0.00298549)
(-0.0213578 -0.047917 -0.00275137)
(-0.0133199 -0.0384396 -0.00246309)
(-0.00688641 -0.0279105 -0.00213314)
(-0.00237362 -0.0167435 -0.00174055)
(-0.000322342 -0.0054308 -0.00102759)
(-0.00040751 0.00789688 -0.000810573)
(-0.00274942 0.0225768 -0.000392806)
(-0.00766563 0.0357806 -7.36612e-06)
(-0.0144196 0.0472823 0.000286843)
(-0.0226022 0.0569481 0.00052824)
(-0.0319034 0.0647094 0.000715497)
(-0.0420168 0.0705525 0.000853194)
(-0.0526602 0.0745063 0.000946992)
(-0.0635779 0.076631 0.00100117)
(-0.074538 0.0770085 0.00101903)
(-0.0853302 0.0757351 0.00100306)
(-0.0957636 0.0729156 0.000954964)
(-0.105665 0.0686604 0.000875821)
(-0.114877 0.0630832 0.000766268)
(-0.123257 0.0563009 0.000626692)
(-0.130675 0.0484349 0.000457463)
(-0.137012 0.0396126 0.000259154)
(-0.142162 0.0299703 3.2774e-05)
(-0.14603 0.0196551 -0.000220021)
(-0.148534 0.00882848 -0.000496737)
(-0.149606 -0.00233209 -0.000793879)
(-0.149194 -0.0136312 -0.00110684)
(-0.147264 -0.024855 -0.00142984)
(-0.143803 -0.0357712 -0.00175593)
(-0.138825 -0.0461319 -0.00207711)
(-0.132374 -0.0556763 -0.00238446)
(-0.124526 -0.0641371 -0.00266846)
(-0.115398 -0.0712481 -0.00291931)
(-0.105145 -0.0767538 -0.00312736)
(-0.0939674 -0.0804214 -0.00328363)
(-0.0821102 -0.0820543 -0.00338027)
(-0.0698591 -0.0815058 -0.00341103)
(-0.0575379 -0.0786934 -0.00337169)
(-0.0455007 -0.0736121 -0.00326035)
(-0.0341218 -0.0663442 -0.00307747)
(-0.0237853 -0.0570671 -0.0028253)
(-0.0148671 -0.0460553 -0.00250994)
(-0.00770133 -0.0336771 -0.00214534)
(-0.00265906 -0.0203813 -0.00170819)
(-0.000361963 -0.00670395 -0.000947752)
(-0.000438077 0.00936123 -0.000620479)
(-0.00295066 0.026533 -0.000126793)
(-0.00821772 0.0418128 0.000285209)
(-0.0154413 0.0549991 0.000598627)
(-0.0241755 0.0659861 0.000855105)
(-0.0340832 0.0747342 0.00105363)
(-0.0448335 0.0812589 0.0011995)
(-0.0561244 0.0856173 0.00129908)
(-0.0676853 0.0878961 0.00135719)
(-0.0792736 0.0882019 0.00137748)
(-0.090672 0.0866531 0.00136264)
(-0.101686 0.0833745 0.0013144)
(-0.11214 0.078494 0.00123378)
(-0.121876 0.0721407 0.00112122)
(-0.130753 0.0644455 0.000976825)
(-0.138639 0.055542 0.000800624)
(-0.145417 0.0455691 0.000592814)
(-0.150979 0.0346742 0.000354012)
(-0.155226 0.0230158 8.55056e-05)
(-0.158072 0.0107675 -0.000210528)
(-0.159441 -0.00187912 -0.000530819)
(-0.159271 -0.0147126 -0.000870857)
(-0.157516 -0.0274996 -0.00122479)
(-0.154151 -0.0399848 -0.00158538)
(-0.149175 -0.0518926 -0.00194411)
(-0.142616 -0.0629301 -0.00229126)
(-0.134537 -0.0727931 -0.00261624)
(-0.125043 -0.0811736 -0.00290793)
(-0.114284 -0.0877715 -0.00315513)
(-0.102457 -0.092307 -0.00334712)
(-0.0898143 -0.0945363 -0.00347428)
(-0.0766569 -0.0942686 -0.00352862)
(-0.0633342 -0.0913829 -0.00350435)
(-0.0502359 -0.0858444 -0.00339834)
(-0.0377811 -0.0777176 -0.00321019)
(-0.0264067 -0.0671756 -0.00294178)
(-0.0165463 -0.0545041 -0.00259957)
(-0.00859021 -0.0400972 -0.0021991)
(-0.00297243 -0.0244427 -0.00171448)
(-0.000406087 -0.00812845 -0.000896036)
(-0.000468033 0.0109279 -0.000359062)
(-0.00314709 0.0307602 0.0002226)
(-0.00875532 0.0482481 0.000660253)
(-0.0164339 0.0632173 0.000992022)
(-0.0257003 0.0755926 0.00126272)
(-0.0361901 0.0853681 0.00147168)
(-0.0475481 0.092593 0.0016249)
(-0.059453 0.0973575 0.00172948)
(-0.0716199 0.0997797 0.00179074)
(-0.0837966 0.0999947 0.00181269)
(-0.0957602 0.0981466 0.00179818)
(-0.107314 0.0943829 0.00174899)
(-0.118282 0.0888508 0.001666)
(-0.128508 0.0816962 0.00154942)
(-0.137853 0.0730638 0.00139903)
(-0.146189 0.0630994 0.00121445)
(-0.153397 0.0519524 0.000995445)
(-0.159372 0.0397795 0.000742154)
(-0.164012 0.0267489 0.000455412)
(-0.167227 0.0130439 0.00013699)
(-0.168933 -0.00113266 -0.000210159)
(-0.169059 -0.0155554 -0.000581705)
(-0.167547 -0.0299739 -0.00097179)
(-0.164354 -0.0441117 -0.00137296)
(-0.159463 -0.0576665 -0.00177615)
(-0.152885 -0.0703133 -0.00217086)
(-0.144663 -0.0817091 -0.00254533)
(-0.134886 -0.0915016 -0.00288696)
(-0.123691 -0.0993403 -0.00318277)
(-0.111272 -0.104891 -0.00342004)
(-0.0978813 -0.107856 -0.00358702)
(-0.0838327 -0.107987 -0.00367361)
(-0.0695002 -0.105116 -0.00367208)
(-0.0553099 -0.0991667 -0.00357769)
(-0.0417294 -0.0901763 -0.00338892)
(-0.0292537 -0.0783066 -0.00310705)
(-0.0183814 -0.0638503 -0.0027388)
(-0.00956795 -0.0472273 -0.00230142)
(-0.00331991 -0.0289682 -0.00176609)
(-0.000455846 -0.00972041 -0.000877182)
(-0.000497503 0.0125947 -2.0739e-05)
(-0.00333948 0.0352513 0.000662152)
(-0.00928023 0.0550749 0.00112461)
(-0.0173998 0.0719198 0.00147384)
(-0.0271785 0.0857451 0.00175781)
(-0.0382239 0.0965827 0.00197619)
(-0.0501565 0.104521 0.00213575)
(-0.0626357 0.109688 0.00224432)
(-0.0753633 0.112239 0.00230776)
(-0.0880786 0.112342 0.00233043)
(-0.100555 0.110169 0.00231535)
(-0.112594 0.105895 0.00226432)
(-0.124024 0.0996884 0.00217807)
(-0.134692 0.091712 0.00205655)
(-0.144462 0.0821255 0.00189914)
(-0.153212 0.0710861 0.00170502)
(-0.160828 0.0587525 0.0014734)
(-0.167205 0.0452892 0.00120387)
(-0.172242 0.0308712 0.000896705)
(-0.175844 0.0156891 0.000553149)
(-0.177924 -4.60967e-05 0.000175716)
(-0.178399 -0.0160986 -0.000231563)
(-0.177197 -0.032204 -0.00066294)
(-0.17426 -0.0480672 -0.00111081)
(-0.169549 -0.0633615 -0.00156568)
(-0.163053 -0.0777302 -0.0020162)
(-0.154794 -0.0907913 -0.00244941)
(-0.144838 -0.102145 -0.0028511)
(-0.133303 -0.111386 -0.00320629)
(-0.120372 -0.118118 -0.00349995)
(-0.106292 -0.121977 -0.00371779)
(-0.091387 -0.122651 -0.00384716)
(-0.0760515 -0.119908 -0.00387789)
(-0.0607484 -0.113617 -0.00380317)
(-0.0459963 -0.103777 -0.00361995)
(-0.0323546 -0.090529 -0.00332858)
(-0.0203953 -0.0741661 -0.00293589)
(-0.010649 -0.0551327 -0.00246087)
(-0.00370759 -0.0340054 -0.00187132)
(-0.000512381 -0.0114992 -0.000897359)
(-0.000526623 0.0143597 0.0004001)
(-0.00352877 0.0400005 0.00119871)
(-0.00979474 0.0622825 0.0016852)
(-0.0183423 0.0810898 0.00205099)
(-0.0286129 0.0964197 0.00234714)
(-0.0401852 0.108347 0.00257376)
(-0.0526543 0.117004 0.00273839)
(-0.0656608 0.122563 0.00284966)
(-0.0788937 0.125222 0.00291402)
(-0.0920854 0.125185 0.00293622)
(-0.105007 0.122661 0.00291948)
(-0.117462 0.117851 0.0028656)
(-0.129284 0.110948 0.00277517)
(-0.140326 0.102134 0.00264783)
(-0.150461 0.0915837 0.00248253)
(-0.159573 0.079465 0.0022779)
(-0.167555 0.0659447 0.00203253)
(-0.174306 0.0511928 0.00174536)
(-0.179729 0.0353887 0.00141596)
(-0.183727 0.0187267 0.00104491)
(-0.186208 0.00142237 0.000634133)
(-0.187079 -0.0162821 0.000187199)
(-0.186256 -0.0341124 -0.000290407)
(-0.183662 -0.0517585 -0.000791077)
(-0.179236 -0.0688725 -0.00130496)
(-0.172941 -0.0850681 -0.00181995)
(-0.16477 -0.0999242 -0.00232188)
(-0.154762 -0.112992 -0.00279477)
(-0.14301 -0.123807 -0.00322146)
(-0.129675 -0.131904 -0.00358427)
(-0.114995 -0.136842 -0.00386594)
(-0.0992944 -0.13823 -0.0040507)
(-0.0829848 -0.135757 -0.00412537)
(-0.0665638 -0.129224 -0.00408047)
(-0.0506035 -0.118574 -0.00391083)
(-0.0357334 -0.103914 -0.00361541)
(-0.0226086 -0.0855296 -0.00320089)
(-0.0118471 -0.0638863 -0.00268798)
(-0.00414154 -0.0396088 -0.00204059)
(-0.000576874 -0.0134873 -0.000964559)
(-0.000555635 0.0162216 0.000909096)
(-0.00371641 0.0450034 0.00183928)
(-0.0103023 0.0698612 0.00234916)
(-0.0192663 0.0907108 0.00273055)
(-0.0300086 0.107591 0.00303765)
(-0.0420763 0.120625 0.00327102)
(-0.0550386 0.129995 0.00343909)
(-0.0685166 0.135927 0.00355137)
(-0.0821876 0.138663 0.00361499)
(-0.0957785 0.138454 0.00363515)
(-0.10906 0.135545 0.00361532)
(-0.121843 0.130172 0.00355736)
(-0.133965 0.122551 0.00346169)
(-0.145293 0.112888 0.0033276)
(-0.155708 0.101371 0.0031536)
(-0.165106 0.0881791 0.00293767)
(-0.17339 0.0734851 0.00267771)
(-0.180468 0.0574626 0.00237184)
(-0.186247 0.0402921 0.00201881)
(-0.190633 0.0221681 0.00161836)
(-0.193529 0.00330612 0.00117163)
(-0.194836 -0.0160498 0.00068154)
(-0.194457 -0.0356206 0.0001531)
(-0.192296 -0.0550863 -0.000406265)
(-0.188268 -0.0740822 -0.000986518)
(-0.182305 -0.0921959 -0.00157492)
(-0.174371 -0.108969 -0.00215609)
(-0.164466 -0.123904 -0.0027123)
(-0.152651 -0.136472 -0.00322395)
(-0.139057 -0.146134 -0.00367039)
(-0.123901 -0.152359 -0.00403093)
(-0.107498 -0.154664 -0.00428605)
(-0.0902727 -0.152641 -0.00441884)
(-0.0727522 -0.146001 -0.00441635)
(-0.0555623 -0.134613 -0.00427058)
(-0.0394087 -0.118531 -0.00397846)
(-0.0250399 -0.0980232 -0.00354607)
(-0.0131757 -0.0735681 -0.00299578)
(-0.00462791 -0.0458395 -0.00228691)
(-0.000650582 -0.0157106 -0.00108903)
(-0.000584911 0.0181802 0.00151197)
(-0.00390468 0.0502575 0.00259109)
(-0.0108085 0.0778038 0.00312389)
(-0.0201801 0.100767 0.00351987)
(-0.0313742 0.119233 0.00383641)
(-0.0439037 0.133377 0.00407464)
(-0.0573095 0.143443 0.00424398)
(-0.0711931 0.149711 0.004355)
(-0.0852206 0.152482 0.0044156)
(-0.0991158 0.152057 0.00443159)
(-0.112653 0.148724 0.00440676)
(-0.125649 0.142755 0.00434307)
(-0.137956 0.134397 0.0042408)
(-0.149453 0.123875 0.0040989)
(-0.160037 0.111396 0.00391535)
(-0.169619 0.0971469 0.00368745)
(-0.178117 0.0813064 0.00341226)
(-0.185448 0.0640489 0.00308697)
(-0.19153 0.0455526 0.00270934)
(-0.196274 0.026008 0.00227808)
(-0.199582 0.00562585 0.00179333)
(-0.201352 -0.0153536 0.00125711)
(-0.201474 -0.0366524 0.00067372)
(-0.199835 -0.0579473 5.01329e-05)
(-0.196323 -0.0788622 -0.000603659)
(-0.19084 -0.0989646 -0.00127446)
(-0.18331 -0.117763 -0.00194583)
(-0.173693 -0.134711 -0.00259825)
(-0.162005 -0.149216 -0.00320959)
(-0.148336 -0.160655 -0.00375591)
(-0.13287 -0.168402 -0.00421256)
(-0.115904 -0.17186 -0.0045556)
(-0.0978593 -0.170506 -0.00476351)
(-0.0792895 -0.163938 -0.00481893)
(-0.0608719 -0.151924 -0.00471006)
(-0.0433926 -0.134445 -0.00443094)
(-0.0277054 -0.11173 -0.00398641)
(-0.0146477 -0.0842634 -0.00340032)
(-0.00517302 -0.0527652 -0.00262655)
(-0.000734874 -0.0181983 -0.00128377)
(-0.000615057 0.0202363 0.00221458)
(-0.00409715 0.0557637 0.00346176)
(-0.0113218 0.0861069 0.00401726)
(-0.0210966 0.111247 0.00442672)
(-0.0327247 0.131318 0.00475082)
(-0.0456799 0.146561 0.00499138)
(-0.0594725 0.157283 0.00515905)
(-0.0736837 0.163836 0.00526564)
(-0.0879697 0.166584 0.00532007)
(-0.102053 0.165884 0.0053289)
(-0.115715 0.162077 0.0052964)
(-0.128785 0.155473 0.0052247)
(-0.141131 0.146354 0.00511398)
(-0.152651 0.134968 0.00496287)
(-0.163262 0.121536 0.00476876)
(-0.172895 0.106258 0.00452819)
(-0.181484 0.0893129 0.00423728)
(-0.188966 0.070875 0.00389215)
(-0.19527 0.0511166 0.00348936)
(-0.200317 0.0302196 0.0030264)
(-0.204013 0.00838472 0.00250217)
(-0.206255 -0.0141578 0.0019175)
(-0.206922 -0.0371384 0.00127566)
(-0.205887 -0.0602375 0.000582898)
(-0.203012 -0.0830762 -0.000151176)
(-0.198166 -0.105209 -0.000913192)
(-0.191228 -0.126116 -0.00168585)
(-0.182113 -0.145209 -0.00244797)
(-0.17078 -0.16183 -0.00317483)
(-0.157267 -0.175269 -0.00383895)
(-0.141709 -0.184793 -0.00441122)
(-0.124369 -0.189677 -0.00486252)
(-0.105653 -0.189258 -0.00516573)
(-0.0861265 -0.182992 -0.00529793)
(-0.0665156 -0.170516 -0.0052423)
(-0.0476895 -0.151708 -0.00498878)
(-0.030618 -0.126732 -0.00454015)
(-0.0162756 -0.0960621 -0.00392129)
(-0.00578349 -0.0604595 -0.00307965)
(-0.000831278 -0.0209828 -0.00156514)
(-0.000647023 0.0223934 0.00302306)
(-0.00429927 0.0615284 0.0044596)
(-0.0118552 0.0947726 0.00503791)
(-0.0220355 0.122139 0.00545952)
(-0.0340828 0.14382 0.00578869)
(-0.0474258 0.160126 0.00602813)
(-0.0615406 0.171445 0.00619003)
(-0.0759872 0.178207 0.00628777)
(-0.0904135 0.18085 0.0063316)
(-0.104545 0.179801 0.00632909)
(-0.118173 0.175454 0.00628516)
(-0.131146 0.168169 0.00620223)
(-0.143352 0.158261 0.00608048)
(-0.154713 0.146004 0.00591819)
(-0.165173 0.131638 0.00571214)
(-0.174687 0.115367 0.00545803)
(-0.183213 0.0973764 0.00515093)
(-0.190708 0.0778334 0.00478572)
(-0.19712 0.0569015 0.00435759)
(-0.202384 0.0347497 0.00386256)
(-0.206416 0.0115632 0.00329801)
(-0.209114 -0.0124449 0.00266329)
(-0.210354 -0.0370207 0.00196031)
(-0.209994 -0.0618576 0.00119418)
(-0.207874 -0.0865831 0.00037375)
(-0.203827 -0.110748 -0.000487811)
(-0.197689 -0.133816 -0.00137269)