/*--------------------------------*- C++ -*----------------------------------*\
  =========                 |
  \\      /  F ield         | OpenFOAM: The Open Source CFD Toolbox
   \\    /   O peration     | Website:  https://openfoam.org
    \\  /    A nd           | Version:  9
     \\/     M anipulation  |
\*---------------------------------------------------------------------------*/
FoamFile
{
    format      ascii;
    class       volVectorField;
    location    "10.05";
    object      U;
}
// * * * * * * * * * * * * * * * * * * * * * * * * * * * * * * * * * * * * * //

dimensions      [0 1 -1 0 0 0 0];

internalField   nonuniform List<vector> 
918
(
(2.47628 -0.13894 0)
(0.108704 0.722546 0)
(0.177974 1.14399 0)
(2.31834 0.153729 0)
(-0.055246 1.24258 -1.21394e-19)
(-0.0924034 0.643931 -5.34886e-18)
(0.52277 0.842662 -3.10022e-19)
(0.288835 0.160941 -3.014e-20)
(3.00616 -0.0195793 0)
(-0.0106471 0.495332 0)
(-0.019652 0.625782 0)
(0.609163 0.00607039 0)
(0.0107054 0.439105 0)
(-0.00290174 0.421724 0)
(0.0150932 0.347276 -1.32088e-18)
(-0.00397129 0.743592 -9.27141e-20)
(0.326466 0.0770613 2.16465e-18)
(0.0784493 0.656383 -2.3217e-19)
(1.52895 0.12859 0)
(-0.0290444 0.735565 0)
(0.204652 0.1651 -1.27996e-18)
(3.08302 -0.3974 0)
(2.92443 -0.506011 0)
(1.86112 -0.18112 0)
(0.519979 0.0397089 0)
(-0.0252029 0.521478 0)
(-0.00135374 0.494037 1.87689e-18)
(-0.0210775 1.50385 0)
(0.0887821 3.03012 0)
(0.17693 1.86044 0)
(-0.0296959 3.06912 0)
(0.029596 1.59727 9.33346e-20)
(0.0234112 0.669025 0)
(-0.147425 0.775094 -2.04493e-22)
(-0.193914 1.0291 4.45039e-18)
(-0.0415772 1.04471 0)
(0.743606 -0.00611984 0)
(0.167843 0.256393 6.70879e-19)
(0.977987 1.49523 6.79909e-19)
(0.639056 0.774089 -5.38537e-19)
(0.789404 1.56504 6.52941e-20)
(0.413114 0.850519 -3.36907e-19)
(0.581971 0.322797 2.96423e-20)
(0.312473 0.161133 0)
(0.941776 0.554725 0)
(0.561819 0.320711 1.33224e-19)
(0.272365 0.171494 -1.36708e-19)
(0.871281 -0.0555343 0)
(3.02784 -0.00174334 0)
(3.00685 0.0178461 0)
(3.20085 -0.417775 0)
(3.04288 -0.0742538 0)
(3.03116 -0.0388682 0)
(0.0163946 0.9015 -1.14431e-18)
(-0.0530297 1.00721 0)
(0.0029714 0.47292 0)
(-0.0325746 1.02216 0)
(-0.0137359 0.505865 0)
(-0.00290525 0.850565 0)
(-0.053072 1.17542 0)
(-0.0126653 0.575042 0)
(-0.0301688 1.23895 0)
(-0.00862639 0.664562 0)
(0.786878 0.0111823 0)
(1.17645 -0.00232108 0)
(0.62122 0.0120563 0)
(1.13527 0.0170206 0)
(0.574818 0.00805551 0)
(0.225406 0.921982 1.97328e-18)
(0.0985379 1.2081 0)
(0.176302 1.06604 0)
(0.0331901 0.755774 2.21501e-23)
(0.0372233 0.498055 -2.9512e-18)
(0.0194616 0.747943 0)
(0.00595417 0.422033 0)
(-0.000714761 0.734571 4.55664e-24)
(0.000697557 0.414833 0)
(-0.0169944 0.743267 0)
(-0.0130007 0.428089 0)
(0.0534475 0.665625 0)
(0.0516597 0.471576 0)
(0.0106002 0.63064 1.24887e-18)
(0.00209741 0.34756 0)
(-0.0484947 4.6018 0)
(0.00940051 1.40933 9.2046e-20)
(-0.00933019 0.759192 -1.18074e-19)
(0.663173 0.157251 -7.5513e-19)
(0.334209 0.067152 -7.32298e-19)
(0.674661 0.176994 -2.26801e-18)
(0.333101 0.0998892 -1.46097e-18)
(0.0791839 0.629303 0)
(0.179537 1.33127 1.94303e-19)
(0.17975 0.739917 -3.10083e-19)
(2.06055 0.260839 0)
(1.10723 0.118395 0)
(3.03313 0.10387 0)
(3.10394 0.44604 0)
(2.83925 0.377403 -1.01281e-17)
(2.57812 0.361296 7.77143e-18)
(-0.0687783 1.35544 0)
(-0.00958208 0.675939 0)
(-0.0131276 2.04071 0)
(-0.0556129 1.44989 0)
(-0.0505323 0.730302 0)
(0.4606 0.312403 4.05115e-19)
(0.236237 0.172165 0)
(2.29598 -0.266464 0)
(1.32362 -0.119316 0)
(1.0886 0.0113944 0)
(1.02784 0.0176619 0)
(0.547643 0.00978957 0)
(1.00869 0.0553313 0)
(0.836939 0.0708838 0)
(0.350288 0.0287593 3.37207e-18)
(-0.00549844 0.451328 1.7912e-18)
(-0.0272434 0.784924 0)
(-0.0480648 0.84847 0)
(-0.0154176 0.460909 0)
(0.000129653 0.839723 1.83075e-18)
(6.95431e-05 0.487526 0)
(-0.00547937 0.845554 -5.63442e-18)
(-0.00488643 0.496761 1.90099e-18)
(0.0659278 3.71487 0)
(0.0591799 4.12844 0)
(-0.0139754 1.3661 -2.08942e-21)
(-0.0120453 1.32445 0)
(-0.00846607 0.719842 0)
(1.40803 0.0345628 0)
(0.759129 0.0151953 0)
(0.71052 0.0141579 0)
(1.41463 -0.0330427 0)
(0.772787 -0.00887804 0)
(0.335869 0.500074 -8.42344e-19)
(0.163101 0.242003 0)
(0.339023 0.530822 9.44242e-20)
(0.17027 0.279795 0)
(1.21852 1.36412 1.73518e-19)
(0.76306 0.728133 -4.07071e-19)
(0.410652 1.43139 0)
(0.603906 1.53335 0)
(0.302347 0.819051 0)
(0.150859 0.36737 -4.46328e-19)
(0.63813 0.294592 0)
(0.328647 0.141028 4.01761e-19)
(1.39806 1.28166 0)
(1.55316 1.1439 0)
(0.856173 0.650706 4.75994e-19)
(1.69739 0.933223 0)
(1.04602 0.429865 2.26021e-20)
(1.47188 0.00791728 0)
(1.5003 -0.029377 0)
(0.801405 -0.00451052 0)
(1.95016 -0.199866 0)
(1.65037 -0.148282 0)
(1.05196 -0.0890225 0)
(3.06126 0.164818 0)
(3.03105 0.0687452 0)
(3.01022 0.0531324 0)
(0.0308515 1.606 6.07095e-19)
(0.0155587 0.832595 0)
(0.0148647 1.68744 1.0785e-18)
(0.00135213 0.931997 -9.705e-19)
(0.062986 1.1784 1.95593e-19)
(0.0467296 1.02043 0)
(0.0384758 0.546462 0)
(-0.0315952 1.05509 0)
(-0.00869647 0.545221 0)
(0.0151966 1.58223 -4.4521e-21)
(-0.0185852 0.851273 0)
(-0.053008 1.54492 -2.27011e-19)
(-0.0159256 0.800727 4.39332e-19)
(-0.00436867 1.0859 0)
(0.00954662 1.10473 0)
(-0.00118476 0.563243 0)
(0.00591217 1.25762 0)
(-0.00072053 0.662086 0)
(1.46078 -0.00470337 0)
(0.784734 0.00752554 0)
(1.43496 0.032513 0)
(0.759232 -0.000798892 0)
(0.677209 0.00508302 0)
(1.26604 0.0162233 0)
(1.20768 0.046985 0)
(0.662088 0.0152406 0)
(-0.00580139 1.42077 -1.71546e-20)
(0.000184041 1.37708 0)
(0.00481996 0.732923 0)
(0.0017287 0.417221 0)
(0.297316 0.857303 0)
(0.26438 0.415342 -2.88826e-19)
(-0.000275434 0.638267 0)
(-0.00827859 0.368025 0)
(0.0228912 4.39245 0)
(-0.0304109 4.60545 0)
(-0.00250231 4.55949 0)
(-0.0610811 3.26301 2.08066e-20)
(-0.0439417 4.48855 0)
(-0.037043 4.06015 0)
(0.00403898 0.793449 1.10199e-20)
(0.0130538 1.50974 1.65641e-19)
(-0.0337467 1.45127 1.21318e-19)
(-0.00752445 0.798436 0)
(0.688219 0.108525 1.15851e-18)
(0.336202 0.0445467 -1.13542e-18)
(0.151038 1.15445 0)
(0.102335 0.58522 -2.70503e-19)
(0.119277 1.25279 -8.77112e-19)
(0.0517793 0.697823 8.72628e-19)
(0.809726 0.023944 0)
(1.55752 0.0474836 0)
(1.71014 0.127549 0)
(0.920164 0.0444514 0)
(0.00635491 1.27414 0)
(0.0250922 1.28471 0)
(0.00370593 0.678783 0)
(0.509757 0.33324 1.2149e-18)
(0.460657 0.327707 -1.4e-18)
(0.247805 0.173582 0)
(1.91193 0.149127 1.15585e-19)
(1.12124 0.091056 0)
(1.70662 0.116574 0)
(0.875569 0.0219117 0)
(0.697923 0.0860549 0)
(0.715678 0.0464813 -5.42295e-18)
(0.354647 0.0324882 2.00547e-18)
(0.00898221 0.807015 1.70969e-18)
(0.00217201 0.462409 4.08054e-20)
(-0.0108778 1.40842 -3.60697e-20)
(0.00613611 1.38675 1.3759e-18)
(-0.0149832 0.848955 6.34171e-20)
(-0.0119261 0.524486 -2.54769e-22)
(-0.107514 1.00068 -1.17309e-18)
(-0.0529602 1.3532 8.3987e-19)
(-0.0175323 1.35275 -1.36773e-18)
(1.41852 -0.0174601 0)
(1.43921 0.0198148 0)
(0.767847 -0.000484467 0)
(1.45333 0.0251947 0)
(1.36479 0.0460802 0)
(0.762268 0.0201836 0)
(1.3037 -0.00246405 0)
(1.32088 -0.00618414 0)
(0.696458 -0.00122679 0)
(0.317142 0.493012 -9.2135e-19)
(0.167893 0.25259 0)
(0.163029 0.320389 1.38094e-19)
(0.321105 0.609584 1.13136e-18)
(0.320153 0.571895 -6.6984e-19)
(0.163006 0.293767 1.30902e-18)
(0.287774 0.744672 2.19827e-18)
(0.15302 0.394735 3.96499e-19)
(0.666894 0.223754 1.54769e-18)
(0.656297 0.26648 4.01895e-19)
(0.332086 0.120703 7.54521e-19)
(1.88275 0.699374 -6.10015e-19)
(1.1448 0.328494 -7.11189e-19)
(-0.0364976 1.68773 4.64255e-19)
(-0.0126712 0.915563 0)
(1.59021 0.0221908 0)
(1.5119 0.0640092 0)
(0.846698 0.0259709 0)
(-0.00356051 1.38473 0)
(0.00506951 0.729579 2.51567e-18)
(0.00464936 0.731252 0)
(0.0020696 0.415099 -2.46228e-18)
(-0.0102835 1.38627 6.00697e-19)
(-0.00947729 1.4225 0)
(0.350315 0.508239 2.59632e-19)
(0.374692 0.568947 -8.68451e-19)
(0.178847 0.268435 7.85923e-19)
(-0.0257339 0.766978 -1.67917e-18)
(-0.0257006 0.689815 0)
(-0.0153232 0.412622 0)
(0.0282423 1.5053 -1.27664e-20)
(0.0297184 1.53053 -3.66132e-19)
(0.0161835 0.799571 -1.55828e-20)
(0.216577 1.0665 8.94466e-19)
(0.121447 0.521219 -5.95212e-19)
(0.00928733 1.49479 7.31432e-19)
(0.0537649 1.36719 -8.16895e-19)
(0.025186 0.768861 3.5859e-20)
(0.00740536 1.36612 -3.84211e-18)
(-0.000310694 1.39327 4.44938e-18)
(0.00375869 0.829761 1.74806e-18)
(-0.0138865 0.805027 -1.74131e-18)
(-0.00432316 0.481374 -1.75375e-18)
(-0.0106741 1.41684 -4.5386e-18)
(-0.0152524 1.40031 4.62865e-18)
(0.297717 0.700948 0)
(0.311434 0.659093 -2.30699e-18)
(0.157917 0.344587 9.98735e-19)
(0.290201 0.823104 1.1934e-18)
(0.142989 0.442027 -1.84138e-18)
(2.02636 0.314686 4.18127e-19)
(2.01513 0.53506 0)
(1.19852 0.216192 -4.05077e-19)
(-0.0727544 1.60781 -4.83285e-21)
(-0.0168748 1.66835 0)
(-0.0169968 0.908135 0)
(0.230463 0.968902 -3.24504e-19)
(0.254243 0.89349 -7.11018e-19)
(0.131448 0.477374 1.33296e-18)
(3.16435 -0.442967 0)
(3.34725 -0.414788 1.81297e-18)
(0.0711946 3.61865 0)
(0.0503295 2.98232 0)
(3.15927 0.249813 1.41766e-20)
(3.12359 0.506193 3.71225e-18)
(0.0319561 3.32506 -2.79284e-20)
(0.0137565 2.57804 0)
(-0.0399027 1.19695 1.57158e-18)
(0.203451 1.34463 0)
(3.40797 1.59191 -3.29348e-19)
(3.17469 0.272288 -2.96172e-20)
(3.14765 -0.119119 0)
(3.10046 -0.000531382 3.60967e-22)
(0.0369429 2.63781 0)
(0.14228 3.29717 0)
(-0.0676582 2.6414 0)
(-0.034479 3.42124 3.18495e-19)
(-0.0343222 3.47788 2.00623e-19)
(2.64552 0.0457229 -1.35002e-20)
(3.03954 0.0284994 0)
(3.14279 0.0823332 0)
(-0.040504 4.56527 0)
(-0.0429463 2.97589 0)
(-0.0755465 3.08887 0)
(0.639114 3.10468 2.73074e-19)
(3.33875 -0.422634 0)
(3.01115 -0.345941 0)
(3.1699 -0.0531958 2.27737e-18)
(3.29269 -0.328823 -2.74226e-18)
(3.10381 -0.125864 0)
(-0.0496458 4.50869 0)
(0.0192363 4.04115 0)
(0.0157541 4.31897 0)
(-0.0307268 3.25441 0)
(-0.0134385 3.01622 0)
(-0.0377458 2.61123 0)
(2.97157 -0.00412465 0)
(2.85333 0.0476964 -1.80301e-20)
(2.19705 2.99701 -3.34936e-19)
(3.15694 0.0443028 -2.27842e-18)
(3.19038 0.278058 2.76948e-18)
(3.0828 0.117246 0)
(3.39562 0.328563 2.0873e-18)
(3.35708 0.484218 -2.70666e-18)
(3.07133 0.418313 0)
(-0.046969 3.23307 0)
(0.0140088 3.16619 8.58099e-20)
(-0.0255541 2.4858 -6.08045e-20)
(3.66692 0.54088 2.2768e-18)
(3.44526 0.200165 0)
(-0.14763 1.27179 -2.18897e-18)
(-0.0570164 0.881251 -1.36534e-19)
(-0.0758566 1.34122 3.0178e-18)
(-0.0298564 1.27374 -9.09053e-19)
(0.004408 1.09348 0)
(-0.0266711 1.23916 7.02021e-19)
(-0.113196 1.38785 2.16929e-18)
(-0.0574972 1.34073 -1.32765e-18)
(-0.0772043 1.32048 0)
(1.35319 0.622878 0)
(1.24134 0.716378 0)
(3.49419 1.99091 9.67997e-19)
(2.98565 1.89791 -1.21015e-18)
(3.7818 1.67235 0)
(3.32367 1.13375 0)
(3.34979 0.280048 -3.91685e-18)
(2.89961 0.17279 4.83977e-18)
(3.3507 -0.156063 0)
(2.8535 -0.0765428 0)
(3.43643 0.0425262 0)
(3.59385 0.14453 0)
(3.28683 0.119612 0)
(3.55045 0.298141 0)
(3.40848 0.292797 0)
(3.32759 0.21779 0)
(0.0824303 2.8526 0)
(0.0259543 2.14856 0)
(0.112715 3.09673 0)
(0.0910854 2.2511 0)
(0.195164 3.59137 0)
(0.132462 2.68763 -5.59645e-19)
(0.0381299 3.59879 0)
(0.0028717 3.00665 4.05923e-19)
(-0.033153 3.16721 -5.19359e-19)
(-0.0709249 2.92539 0)
(-0.0341788 2.33242 0)
(-0.0882373 3.01646 0)
(-0.0587334 2.14681 0)
(-0.137267 4.68717 -2.48665e-19)
(-0.0923714 3.84875 2.80823e-19)
(-0.085483 3.72623 3.12962e-19)
(-0.0560784 2.94228 0)
(-0.114644 3.70649 -4.62107e-19)
(-0.0430528 3.1116 -2.96544e-19)
(-0.111486 4.71463 1.9458e-19)
(-0.116772 4.37284 -3.54937e-19)
(-0.0906995 4.25584 -3.83763e-19)
(3.0425 0.0839659 3.35787e-18)
(2.29826 0.0309936 -4.22903e-18)
(2.90542 0.127672 -3.3272e-18)
(2.22668 0.0707814 4.1563e-18)
(3.36244 0.0242996 0)
(2.63705 -0.00360176 0)
(3.44236 0.0855278 0)
(3.31169 0.015813 0)
(2.6956 0.00738962 0)
(3.66042 0.229603 0)
(3.42334 0.0898625 0)
(2.843 0.0534022 0)
(-0.00996877 4.20143 -1.20449e-20)
(-0.0445053 4.57321 0)
(-0.0475338 4.43311 0)
(-0.0713991 3.38594 8.85025e-20)
(-0.0369468 2.67755 -3.4858e-21)
(-0.0805073 4.61989 1.16503e-19)
(-0.0910817 4.46336 -1.17725e-19)
(-0.0814878 4.03924 0)
(-0.0567586 3.97641 0)
(-0.0275509 4.08314 0)
(-0.075663 3.40898 0)
(-0.0446321 2.45701 0)
(0.923109 3.65155 -6.23638e-19)
(0.907029 2.84387 -1.82593e-19)
(0.435173 2.09607 -2.29323e-19)
(0.251751 2.33363 6.99286e-19)
(0.990216 4.20441 2.64736e-19)
(3.43264 -0.167954 0)
(3.32189 -0.256856 0)
(2.88274 -0.189691 0)
(3.47031 -0.0648206 0)
(3.34581 -0.14812 0)
(3.4489 -0.261297 0)
(3.51944 -0.283887 0)
(3.57937 -0.28154 0)
(3.22667 0.0920949 3.61853e-18)
(2.55744 0.063964 -4.57561e-18)
(3.09988 0.105081 -3.56193e-18)
(2.51361 0.0557452 4.43195e-18)
(2.18892 3.36578 0)
(1.70257 2.90777 -4.59184e-19)
(2.51418 3.29637 -4.14573e-19)
(2.3147 2.48252 5.50895e-19)
(0.807402 1.26407 2.74405e-18)
(1.48738 0.216006 1.34735e-18)
(3.69607 0.294088 0)
(3.85979 0.557627 -1.85524e-18)
(3.26707 0.23749 -8.25975e-20)
(3.739 0.422807 0)
(0.270282 1.32858 1.81613e-18)
(0.00104651 1.20952 -2.90823e-18)
(0.0784814 0.775385 1.63394e-18)
(0.301153 0.47921 -7.56422e-19)
(0.203367 1.40957 8.80359e-19)
(0.0612168 1.24899 0)
(0.0649754 1.10188 -1.14445e-18)
(0.216605 1.46213 -4.13781e-18)
(0.359153 1.58572 0)
(0.00842918 1.29003 1.20724e-19)
(-0.00994297 1.45727 -1.35274e-18)
(-0.0413031 1.30296 1.9666e-18)
(-0.0578658 1.41762 0)
(-0.0207864 1.38203 0)
(0.709194 1.093 0)
(2.49976 2.49239 -1.07155e-18)
(2.5848 2.13016 4.03317e-19)
(2.73118 2.83064 0)
(3.15079 3.01464 -3.98251e-19)
(3.10327 2.366 2.79371e-20)
(0.851715 0.62653 -1.84079e-18)
(1.62764 0.716993 -1.67137e-20)
(1.28992 0.471622 8.77771e-19)
(1.34523 0.885049 6.00417e-20)
(0.994501 0.66945 -2.39153e-18)
(1.53576 0.746635 0)
(2.07442 1.13679 1.46639e-18)
(2.11367 1.04948 0)
(1.48463 0.827471 0)
(1.11928 0.578112 0)
(3.37785 2.16448 1.00974e-18)
(3.90658 0.742893 -1.87172e-18)
(3.79859 1.19131 0)
(3.48248 0.741655 0)
(1.4477 0.375958 1.34046e-18)
(3.28576 1.84429 -8.55236e-19)
(2.89277 1.67114 1.55226e-18)
(3.761 1.36088 -1.8397e-18)
(3.0995 0.113739 2.46371e-18)
(3.16942 0.18021 -2.57884e-18)
(2.66325 0.0912757 0)
(3.30512 -0.0407605 0)
(3.20001 -0.084995 -2.36696e-18)
(2.63033 -0.0324983 2.34612e-18)
(3.95705 0.0905631 0)
(3.7616 0.143649 0)
(3.69379 0.154679 0)
(3.58865 0.204071 0)
(3.83269 0.0579329 0)
(3.72609 0.0514286 0)
(-0.0486211 2.58758 0)
(-0.0444386 2.08956 0)
(0.327114 3.99781 -4.18889e-19)
(0.643414 3.34646 -1.64371e-19)
(0.249987 3.06299 -3.67662e-19)
(0.335547 2.57582 5.88962e-19)
(0.430268 4.01166 0)
(0.42934 4.63844 -5.15209e-19)
(0.343759 4.69539 0)
(0.875239 4.36789 -3.80828e-19)
(0.649959 3.83161 9.71494e-19)
(0.555376 4.62209 4.51737e-19)
(0.705152 4.17731 -1.92534e-19)
(0.565422 4.30857 1.54891e-19)
(0.871172 4.61513 -6.70936e-19)
(0.708782 4.62805 0)
(0.814779 4.55879 5.09815e-19)
(-0.0210537 4.51886 -1.82868e-19)
(-0.0316847 3.60891 0)
(0.0753464 4.25027 5.51874e-19)
(-0.0262772 4.34306 0)
(-0.0153108 3.43843 -4.51401e-19)
(-0.0216956 2.89128 0)
(-0.130461 4.33085 -2.95254e-19)
(-0.136678 4.64568 0)
(-0.0797581 3.85697 0)
(-0.0698997 3.81009 3.3207e-19)
(-0.0621654 3.81896 1.06507e-20)
(-0.0465263 3.65919 6.29086e-19)
(-0.0450289 2.90304 4.09554e-21)
(-0.140325 4.65163 1.83202e-19)
(-0.132645 4.69217 1.04835e-19)
(-0.027757 2.76487 0)
(-0.00618382 2.27221 0)
(-0.0738828 4.73893 4.93794e-19)
(-0.0838372 4.3235 4.35016e-19)
(-0.114672 4.56933 -5.67127e-19)
(-0.0166353 4.71998 0)
(-0.0812814 4.42675 -3.15641e-19)
(-0.117112 4.04216 1.30461e-19)
(-0.0902228 4.14217 -4.18337e-20)
(-0.09606 4.66617 -2.2252e-19)
(-0.0987463 4.17271 -6.93973e-20)
(-0.0979111 4.12591 3.09072e-19)
(2.87709 0.0592915 -2.36324e-18)
(2.86699 0.0471586 2.27267e-18)
(2.34476 0.0334379 0)
(3.52646 0.181415 3.0464e-18)
(2.72503 0.120961 -3.30556e-18)
(2.27618 0.0604363 3.61149e-18)
(3.70054 0.320064 -4.01784e-19)
(3.20694 -0.0498994 0)
(3.16785 -0.0155737 2.23783e-18)
(2.68689 -0.0132437 -2.22018e-18)
(3.86814 0.114306 -1.25312e-19)
(3.7644 0.0959082 1.07888e-18)
(4.15219 0.162728 0)
(4.22331 0.170239 -3.75254e-19)
(4.0185 0.136877 0)
(3.70362 0.148776 0)
(4.03304 0.0916869 0)
(3.71435 0.0844585 0)
(4.18373 0.106674 7.83195e-19)
(4.13726 0.0727306 -1.74817e-18)
(4.13637 0.106368 -8.48427e-19)
(4.18337 0.109001 -9.21445e-19)
(4.2072 0.217399 1.77514e-18)
(3.84263 0.180517 0)
(4.04449 0.287829 0)
(-0.0752543 4.47082 -1.37299e-19)
(-0.024768 4.55241 -1.17981e-20)
(-0.0642729 4.58275 0)
(-0.0520017 4.07321 1.3977e-19)
(-0.044872 4.10177 2.26223e-20)
(-0.0504681 3.96002 -2.19857e-20)
(-0.0844567 3.41901 2.62279e-19)
(-0.147036 3.8929 -1.45714e-20)
(-0.112631 4.02865 7.52676e-20)
(-0.0751363 3.29129 -1.32358e-19)
(-0.0267112 2.82345 1.58571e-19)
(-0.0816428 4.45856 5.28457e-21)
(-0.0956484 4.60833 1.74097e-19)
(1.19739 4.32092 3.55153e-19)
(1.1111 4.48936 7.31876e-19)
(1.69535 3.42374 4.43965e-19)
(1.2783 3.53262 1.75525e-19)
(1.26362 2.86387 0)
(0.552994 2.36761 2.76312e-19)
(0.469121 1.78331 3.32438e-19)
(0.343024 2.60514 1.52707e-20)
(0.485864 3.21527 -1.16421e-18)
(0.626034 3.1773 8.79647e-19)
(0.433988 2.44777 0)
(0.295386 2.00767 -5.59435e-19)
(0.246788 3.09301 1.39739e-18)
(0.265639 2.74787 -3.2197e-20)
(0.1531 2.30167 -1.75183e-18)
(0.612799 1.46345 1.47543e-18)
(0.591912 1.66871 0)
(3.58359 -0.0756808 8.64415e-20)
(3.61848 -0.254559 -7.26036e-20)
(3.72111 -0.218392 -1.2667e-18)
(3.75912 -0.126807 1.28258e-18)
(3.67609 -0.0496358 0)
(2.3949 3.82446 0)
(2.57025 3.86799 0)
(2.84331 3.5721 0)
(2.69016 3.60403 0)
(0.888564 1.45208 -3.87201e-21)
(0.637931 1.08335 0)
(1.73462 3.45325 1.50914e-20)
(1.42128 3.51288 0)
(1.35145 3.03028 -1.29199e-18)
(1.43225 2.963 8.29379e-19)
(1.83995 0.312236 0)
(1.47543 0.265648 3.53643e-19)
(2.45713 0.353738 2.19783e-18)
(1.83016 0.281454 -7.8858e-19)
(1.45929 0.111044 -2.50119e-18)
(4.24366 0.765704 -2.57134e-18)
(3.86763 0.97493 -3.5589e-20)
(3.33952 0.833068 2.0717e-18)
(3.89217 0.726589 1.81653e-18)
(3.16175 0.455393 -3.05031e-18)
(2.95295 0.445028 3.75719e-19)
(3.24006 0.67459 -8.20602e-19)
(3.02461 0.670255 0)
(3.7836 0.545175 1.53944e-18)
(4.10094 0.609201 0)
(4.09636 0.751518 0)
(4.02135 0.401008 8.24968e-19)
(4.27775 0.620584 -3.04591e-20)
(4.21453 0.692695 -4.53055e-19)
(4.14489 0.621157 0)
(3.62691 0.122304 1.71802e-18)
(4.18942 0.171741 2.144e-18)
(4.09476 0.14188 -1.67927e-18)
(4.14088 0.22671 -1.44277e-18)
(3.75727 0.225923 -2.15626e-18)
(3.33665 0.364134 0)
(3.42487 0.28939 0)
(2.58729 0.184962 -1.26695e-18)
(2.13971 0.115958 4.77412e-19)
(4.04401 0.336153 1.94062e-18)
(4.27349 0.414523 -2.34988e-18)
(4.27956 0.469383 2.07125e-18)
(4.15939 0.471218 0)
(4.24559 0.320095 0)
(4.25631 0.308692 -9.79508e-19)
(4.21152 0.300196 -1.59673e-18)
(2.23839 3.51805 6.21677e-19)
(1.9671 3.29123 -6.8616e-19)
(1.49496 2.43659 -1.03913e-18)
(1.2356 2.07238 2.68776e-19)
(0.921167 1.43615 -2.64985e-18)
(0.826746 1.26542 9.28263e-19)
(0.625865 0.941739 -1.9453e-21)
(1.16033 1.855 -1.14628e-18)
(1.18803 1.95661 1.7111e-18)
(1.01555 1.76518 5.09626e-19)
(0.818545 1.34018 -5.16307e-19)
(0.6614 1.11685 0)
(2.48857 2.64504 -1.15729e-19)
(0.763762 1.18176 8.6647e-19)
(0.986374 0.93982 1.16757e-18)
(0.808088 0.852506 1.35281e-18)
(1.14499 0.789422 1.35361e-18)
(1.5435 1.09782 -2.28978e-18)
(1.45767 1.12741 1.85555e-18)
(1.06102 0.811173 -6.83525e-19)
(0.864719 0.602585 1.50898e-18)
(1.67882 0.50707 -7.82334e-19)
(1.62391 0.530576 0)
(1.29467 0.424385 4.97399e-21)
(2.57817 1.54934 7.80511e-19)
(2.16334 1.31303 -2.82737e-18)
(1.76732 1.23782 1.04957e-20)
(1.74077 1.1386 0)
(2.88422 2.60393 8.76137e-19)
(3.4113 2.71729 1.03981e-18)
(3.22718 2.90631 -1.1985e-18)
(3.50644 2.72277 -4.30025e-19)
(3.42608 2.55514 -1.36171e-19)
(3.45662 2.74755 1.40029e-19)
(3.65497 2.23522 -1.6822e-18)
(3.66133 2.45921 4.03584e-19)
(3.73051 2.39154 0)
(3.73049 2.15308 -5.82513e-19)
(4.04161 1.05147 5.82391e-19)
(4.24329 0.96851 1.00614e-18)
(4.27342 0.939449 1.01447e-18)
(4.03797 1.30239 -1.15262e-18)
(4.06324 1.32018 0)
(4.11077 1.205 0)
(3.37208 1.22943 -1.44866e-20)
(2.48393 0.677846 0)
(2.78241 0.747542 9.34368e-19)
(3.28416 0.876885 -2.56683e-20)
(3.77681 1.51568 5.11894e-18)
(3.5782 1.74639 1.3144e-18)
(3.50129 1.53273 -1.34466e-18)
(3.0895 1.37693 1.44166e-18)
(2.82591 1.38646 8.27541e-19)
(2.38806 1.18456 -8.01495e-19)
(3.67115 -0.0867712 1.98509e-18)
(3.89449 -0.0302559 0)
(3.85871 -0.0678076 1.34225e-18)
(3.74247 -0.0605979 -2.98838e-18)
(3.9805 0.0355227 1.46204e-18)
(3.90486 0.111624 -3.08308e-18)
(3.74056 0.126112 0)
(3.55744 0.172354 -6.28543e-19)
(3.81224 0.121867 1.60531e-18)
(3.69237 0.190374 -8.22564e-19)
(3.6009 0.170112 5.90704e-19)
(-0.0902637 2.69071 0)
(-0.0635521 3.47569 0)
(-0.04365 2.55025 0)
(-0.0286059 2.05859 0)
(0.0223711 3.96399 6.87623e-19)
(0.116125 3.75283 -1.79039e-19)
(0.28075 4.61794 -2.33179e-19)
(0.220064 4.45212 2.45782e-19)
(-0.052845 4.30265 -5.07575e-19)
(-0.0178301 4.33156 3.81063e-19)
(0.0689072 3.90142 2.11074e-20)
(-0.00947686 3.60493 -4.7494e-19)
(-0.0287496 3.37498 -6.35831e-20)
(-0.0599202 3.72152 -5.79788e-20)
(0.124528 4.43682 -5.89461e-19)
(0.151333 4.25818 0)
(0.242131 4.5998 2.9694e-19)
(0.234062 4.67158 2.54438e-19)
(0.558614 4.42242 -2.27027e-19)
(0.387402 3.78971 0)
(0.436767 3.64214 -1.11677e-18)
(0.536625 4.00748 7.91423e-19)
(0.443789 4.53432 -6.16853e-19)
(0.336013 4.4064 3.31923e-19)
(0.271663 4.14294 0)
(-0.0642118 4.70673 -5.61209e-19)
(-0.0987151 4.45101 -6.4725e-19)
(-0.10496 4.66866 0)
(-0.050996 4.29999 -6.10149e-21)
(-0.0465614 4.58365 2.77764e-19)
(-0.14208 3.94731 4.58913e-20)
(-0.0710275 3.58926 -6.73469e-19)
(-0.119399 4.00026 1.79866e-19)
(-0.172077 4.52674 2.38949e-19)
(-0.109453 4.35206 0)
(-0.0863853 3.9791 0)
(-0.0891506 3.05375 2.08662e-19)
(-0.0622298 3.76514 -6.50553e-20)
(-0.0883909 3.74328 0)
(-0.0910088 2.83611 1.64686e-19)
(-0.0482656 2.33563 -3.18778e-19)
(3.75809 0.0293226 0)
(3.72862 0.00468388 -2.03352e-19)
(4.17789 0.0625484 -1.44026e-18)
(4.08558 0.041232 0)
(3.87124 0.0131648 0)
(4.14923 0.0329109 -1.22968e-20)
(4.09985 0.0313784 2.37919e-18)
(4.00159 0.0758754 2.84561e-18)
(3.75911 0.114956 0)
(3.56228 0.106663 0)
(4.01579 0.0877602 1.41777e-18)
(3.70826 0.111228 0)
(3.4783 0.12521 0)
(-0.096828 4.61173 0)
(-0.11148 4.61167 1.05779e-20)
(-0.0886696 4.64657 6.52405e-20)
(-0.0722641 3.93917 0)
(-0.120417 4.52245 1.13085e-19)
(-0.078307 4.29701 -6.52354e-20)
(-0.0675319 4.05063 0)
(1.38023 4.19506 0)
(1.16225 4.54067 -1.30671e-18)
(1.18098 4.46385 0)
(1.52455 4.44463 1.49744e-18)
(1.54718 4.07554 0)
(1.45398 4.32622 -6.13372e-19)
(1.0407 2.31755 -3.42212e-20)
(0.734873 1.70536 -1.75907e-18)
(0.613317 1.27394 2.14631e-18)
(0.726194 1.89449 3.99762e-19)
(0.993856 2.4958 0)
(1.06093 2.45155 0)
(0.739033 1.74694 0)
(0.548655 1.37792 -1.40578e-18)
(1.19932 3.81317 -9.86948e-19)
(1.13755 3.05632 -2.36574e-19)
(1.33075 3.46114 1.93484e-19)
(0.605464 2.09208 0)
(0.632367 1.99869 0)
(0.471714 1.6176 -3.95247e-19)
(0.966739 2.78476 0)
(2.66065 3.54846 0)
(2.40691 3.04378 -1.4598e-18)
(2.56133 3.04651 -8.6118e-20)
(2.4275 3.42276 0)
(2.31512 3.19213 2.2291e-18)
(3.24644 3.05415 -3.91948e-19)
(3.08075 3.27499 0)
(3.06734 3.10264 6.35266e-19)
(2.8355 3.38603 0)
(2.85923 3.18849 0)
(1.25312 2.08477 -9.37468e-19)
(1.46141 2.48884 -7.03851e-19)
(1.78827 3.05462 1.21244e-18)
(1.72959 3.03615 -3.64622e-19)
(1.1011 1.89404 0)
(1.24164 2.2859 4.7404e-19)
(0.747473 1.34165 -7.21251e-19)
(0.604852 1.08736 -5.18826e-22)
(1.93752 3.73187 0)
(2.19105 3.75687 -5.43665e-19)
(2.30601 3.96307 0)
(2.34171 0.527977 0)
(1.67015 0.346834 0)
(1.25704 0.283667 0)
(2.27286 0.558202 -1.47102e-18)
(1.69562 0.411458 8.21532e-19)
(2.17922 0.125634 -9.86438e-19)
(2.66477 0.290393 0)
(2.50576 0.295755 4.14335e-19)
(1.80598 0.133376 1.63649e-18)
(1.55972 0.080056 -1.03899e-18)
(0.777283 1.61132 8.64662e-19)
(1.00199 1.88532 0)
(0.562087 1.48822 1.57497e-18)
(0.553878 1.65818 -1.43753e-18)
(0.799883 1.86707 -9.98906e-19)
(2.12915 2.52068 1.34532e-18)
(2.1491 2.7704 0)
(1.66143 1.74731 -2.78672e-19)
(2.08351 2.05233 1.75377e-18)
(1.43709 1.357 -4.27249e-19)
(1.66917 1.37516 4.54479e-19)
(2.19058 1.56247 1.0303e-18)
(2.519 1.71066 0)
(2.34783 1.90596 0)
(2.09069 1.66321 0)
(3.91455 2.04351 3.88103e-19)
(3.75089 1.86567 -1.26672e-18)
(3.79717 2.00003 1.04983e-18)
(3.88462 1.74381 -1.01098e-18)
(4.11522 1.64287 0)
(4.06816 1.80563 -2.99337e-19)
(2.90599 1.17444 -1.90616e-18)
(3.02805 1.16674 -2.42089e-18)
(2.41028 1.06568 1.46351e-18)
(2.21712 0.957328 -1.42892e-18)
(2.53517 0.858219 -1.18365e-18)
(2.25278 0.795841 1.45556e-18)
(4.00822 0.0314436 -1.52905e-18)
(4.0525 0.0382149 3.13037e-18)
(3.7668 -0.0676187 1.90127e-18)
(3.78988 -0.0756092 -2.2872e-18)
(3.95789 0.00753875 0)
(4.0551 0.0197137 -3.73018e-18)
(0.0637651 4.71668 1.07659e-19)
(0.0345028 4.69388 0)
(0.155252 4.69099 9.62192e-19)
(0.175765 4.7103 -8.75489e-19)
(0.1944 4.68619 4.34689e-19)
(0.087987 4.63333 0)
(-0.125077 4.70826 0)
(-0.12821 4.4089 -6.32321e-20)
(-0.124902 4.36448 5.67051e-20)
(-0.131026 4.47894 7.71425e-21)
(-0.123215 4.64478 -1.0322e-19)
(-0.104663 4.63436 5.57713e-20)
(1.85404 4.01044 -1.64887e-18)
(1.78952 4.02107 1.74697e-18)
(1.63679 4.3686 -8.60501e-19)
(1.66379 4.27188 7.64477e-20)
(2.20601 4.02882 0)
(1.80645 4.16647 -6.47193e-19)
(1.93419 3.90936 6.27595e-19)
(1.77131 4.32983 8.40533e-19)
(2.02538 4.18119 0)
(2.18336 4.06171 0)
(1.12978 3.6725 1.50044e-18)
(0.830421 2.87 2.03378e-18)
(0.956807 3.04974 -1.39669e-18)
(0.7488 3.02824 -2.33114e-19)
(0.891337 3.77108 4.68141e-19)
(0.715789 3.4111 -1.13834e-18)
(0.773424 1.52087 -1.22478e-18)
(0.772324 1.3696 0)
(0.62433 1.15822 -1.34611e-18)
(1.14448 2.13778 0)
(1.12247 2.22419 0)
(1.42024 2.25818 -1.09946e-18)
(1.11206 2.08229 -1.04416e-18)
(1.06519 2.09917 1.10816e-18)
(1.10151 1.57624 0)
(1.4886 1.83044 -6.05991e-19)
(1.69515 2.19128 -8.58946e-19)
(1.47563 2.14901 0)
(0.920397 1.86971 7.19898e-19)
(0.833922 1.72339 0)
(2.9392 2.30569 -1.85088e-18)
(3.31473 2.45939 2.61347e-18)
(3.28896 2.1884 -2.59719e-18)
(2.66773 2.05451 -2.31986e-19)
(2.77882 1.96662 -9.77297e-19)
(1.31495 2.26373 8.02486e-19)
(1.36876 2.32301 -1.36934e-18)
(1.51326 2.40312 1.80492e-18)
(1.84504 2.62839 -1.17285e-18)
(1.93168 3.00204 -1.57432e-18)
(1.61563 2.56693 -1.19069e-19)
(1.683 2.70867 1.38008e-18)
(1.86293 2.76637 9.72277e-20)
(2.05783 3.05918 6.53518e-19)
)
;

boundaryField
{
    wall-4
    {
        type            noSlip;
    }
    velocity-inlet-5
    {
        type            fixedValue;
        value           uniform (3 0 0);
    }
    velocity-inlet-6
    {
        type            fixedValue;
        value           uniform (0 1 0);
    }
    pressure-outlet-7
    {
        type            zeroGradient;
    }
    wall-8
    {
        type            noSlip;
    }
    frontAndBackPlanes
    {
        type            empty;
    }
}


// ************************************************************************* //
