/*--------------------------------*- C++ -*----------------------------------*\
  =========                 |
  \\      /  F ield         | OpenFOAM: The Open Source CFD Toolbox
   \\    /   O peration     | Website:  https://openfoam.org
    \\  /    A nd           | Version:  9
     \\/     M anipulation  |
\*---------------------------------------------------------------------------*/
FoamFile
{
    format      ascii;
    class       surfaceScalarField;
    location    "33.6";
    object      phi;
}
// * * * * * * * * * * * * * * * * * * * * * * * * * * * * * * * * * * * * * //

dimensions      [0 3 -1 0 0 0 0];

internalField   nonuniform List<scalar> 
1300
(
11.2529
1.87548
-4.16679
11.2529
-5.00987
1.87548
-4.24299
4.24299
-1.18749
1.18749
5.7123
5.54056
-2.37762
2.37762
-2.81939
2.81939
-2.86016
2.86016
-1.06194
1.06194
-1.02826
1.02826
0.693114
-0.693114
-3.41935
3.41935
-1.45619
1.45619
-2.90947
2.90947
6.1281
-6.1281
-3.24703
3.24703
-0.743759
0.743759
-4.26321
15.5161
6.98965
6.98965
-2.3711
2.3711
-1.25394
1.25394
1.41034
-1.41034
9.05214
-9.05214
-4.88535
-5.88398
1.91953
-14.0656
-3.09034
-3.09034
-2.7054
2.7054
-0.829928
1.04555
3.47682
-3.47682
-0.757128
0.757128
-4.32837
0.0853801
-4.32837
4.02756
0.215425
4.02756
-1.32877
0.14128
-1.32877
4.67825
-4.67825
1.07573
0.111761
1.07573
3.9281
-3.9281
-5.71006
11.4224
5.5428
-5.32064
20.8367
-5.93222
11.4728
-3.89901
3.89901
-2.29472
-0.0829045
-2.29472
2.37927
-0.00164319
2.37927
-4.00172
4.00172
-2.60953
-0.209862
-2.60953
2.91955
-0.100153
2.91954
3.66642
-3.66642
-2.91622
0.0560601
-2.91622
2.70845
0.151705
2.70845
0.771042
1.10443
-2.64652
3.69207
-1.10443
0.0424987
1.02614
0.0357986
1.02614
-1.01453
-0.0137252
-1.01453
1.04984
-0.0215793
1.04984
0.730127
-0.0370128
0.730127
-0.754861
0.0617467
-0.754861
-8.60851
-8.97215
-3.54307
0.123723
-3.54307
-1.47421
0.0180213
-1.47421
1.49234
-0.0361549
1.49234
-2.52519
2.52519
-3.25135
0.34188
-3.25135
4.80635
1.32175
4.80635
5.04612
6.20674
16.299
-16.299
10.1709
-2.9674
-0.279622
-2.9674
-3.41249
-5.63966
3.41249
-0.165462
-0.805499
0.0617395
-0.805499
5.62659
1.36306
5.62659
2.58622
0.122227
-2.58622
0.215123
4.62616
-4.62616
1.42328
0.947821
1.42328
-1.19154
1.19154
1.12336
-0.0735235
-1.12336
-0.130582
1.38601
0.0243319
1.38601
-1.40975
-0.000595734
-1.40975
7.31206
-13.196
-7.76752
3.22984
0.189508
-3.22984
0.1395
3.56357
-0.0867508
3.56357
-3.30969
3.30969
-3.61099
0.134179
-3.61099
-0.682208
-0.0749192
-0.682208
0.84201
-0.0848819
0.84201
-4.57621
0.247845
-4.57621
-3.69132
0.439974
3.69132
0.336246
1.25008
-1.25008
-1.43658
0.107807
-1.43658
-4.65925
0.0830309
4.65925
0.0190079
-4.7722
0.09395
-4.7722
-3.71253
0.101533
3.71253
0.215575
4.58935
1.03724
-4.58935
0.661247
-5.36948
11.5762
-5.88338
11.4262
-3.51531
-0.383709
-3.51531
4.08987
-0.19086
4.08987
2.57092
0.33855
-2.57092
0.276197
2.50553
-0.126263
2.50553
-3.9445
-0.0572235
-3.9445
3.80458
0.19714
3.80458
2.54509
-0.0395577
-2.54509
-0.0644435
2.89427
0.0252753
2.89427
3.67241
-0.0059821
3.67241
-3.53944
-0.126986
-3.53944
3.17896
-3.17896
3.08059
0.0983711
-3.08059
0.16437
-5.07402
5.07343
-0.00799939
-5.06602
1.01814
1.01814
0.768938
-0.0388106
0.768938
-0.861791
0.106931
-0.861791
8.34553
-16.1131
8.77817
-17.3867
7.53228
-21.5978
8.11655
-17.0887
3.8272
-3.8272
3.76107
0.0661307
-3.76107
0.218002
-1.45605
-0.0181631
-1.45605
-2.28814
-0.237042
-2.28814
2.85713
-0.331947
2.85713
-3.74209
3.74209
-4.12478
0.382686
4.12478
0.68157
2.95544
-0.061173
-2.95544
-0.0119606
0.924048
0.151685
-0.924048
0.118549
4.8635
-0.237335
4.8635
-4.08521
-0.540951
-4.08521
-1.47494
0.0188934
1.47494
-0.05166
-1.25895
0.067403
-1.25895
-5.0745
0.00847758
-5.0387
-1.40127
-1.40127
1.30414
4.9962
-3.58567
0.0462336
3.58567
-0.022106
3.52705
0.215042
-3.52705
0.217361
-3.26327
0.0843118
3.26327
0.0464182
-0.659731
-0.0224772
-0.659731
-1.03473
1.03473
-0.917619
-0.117107
0.917619
-0.0756094
1.40553
-0.155445
1.40553
1.47053
0.0218114
-1.47053
0.0339517
-5.01131
0.239103
-5.01131
4.1004
-0.0105226
4.1004
-3.94907
-0.13614
3.94907
-0.276667
-0.00372302
5.07715
-1.01441
-0.000120138
1.01441
-5.10148
5.10136
-0.665123
0.00539162
0.665123
0.103815
1.02967
0.161873
-1.02967
0.16788
3.84812
-0.0435349
-3.84812
0.020915
-2.00725
-0.280898
-2.00725
-3.18442
-0.330883
3.18442
-0.327289
-5.11518
-0.0779363
5.19312
-5.13676
1.33688
0.0491255
-1.33688
5.15049
-1.14361
-0.106473
1.14361
-0.108884
1.60378
-0.198253
1.60378
5.12086
-0.257361
-5.12086
0.109553
-4.11803
0.173534
4.11803
-0.0176372
-1.77504
-0.232201
1.77504
-0.171264
-13.1281
14.4911
7.70865
-6.28128
-6.91477
-11.9209
4.4471
7.12912
14.618
-11.8141
-9.78374
-11.6746
2.86006
-2.69218
-3.72727
3.69026
23.5917
-23.4978
-18.3992
19.0808
20.777
-20.5615
5.70885
5.71351
15.8525
-15.9354
-20.8969
20.5132
15.3901
-15.6
22.0487
-22.1059
-25.8116
25.7681
-16.0928
16.1489
-20.2944
20.1674
-21.0577
20.7811
-8.35343
-9.03325
16.514
-16.3902
20.0028
-20.2824
-19.3847
19.7265
10.0475
4.44359
11.0848
-6.24673
11.9556
-5.22605
12.9347
8.29345
-16.6469
7.81961
-14.7344
9.0469
10.9559
-8.88144
-3.0395
-17.9699
17.8832
-17.257
17.3034
24.1242
-24.0388
-6.17283
11.8863
-5.25335
12.3825
-11.409
-6.99019
10.0872
4.53073
8.99068
7.52329
-9.18018
-2.49441
-24.7988
24.5414
-25.6599
25.119
0.100182
2.42593
-2.52611
1.35413
-0.862695
3.28863
1.99736
2.10429
2.45271
-2.29084
0.239462
-2.76558
-2.89616
-5.3404
5.44821
5.15706
-5.0453
16.5468
7.04497
16.5658
-16.7496
-6.7482
-16.5105
11.3637
7.71706
11.7464
12.0617
8.71534
12.1632
10.359
-10.3317
-0.027307
-11.4777
21.8367
1.55464
-18.4678
-13.9371
8.84762
7.00489
8.84598
-9.89269
-6.04273
-9.61649
-11.0138
-9.88311
-11.3446
12.3173
8.19584
12.1264
-15.314
15.2964
9.27606
6.11406
9.17591
-8.96464
-6.63534
-9.02909
27.4812
-6.67753
-20.8036
-13.1793
-12.6323
12.9821
9.06655
14.3368
11.4313
14.3577
8.91399
18.5672
-17.9805
5.34822
-9.94704
-6.14579
-9.78267
9.25804
6.89085
9.40975
-11.7668
-8.52762
-11.7206
-11.987
-9.07077
11.9929
8.17449
-12.5344
-13.1255
12.6706
8.11051
7.83996
-17.6237
9.24873
-18.282
-10.9627
-5.42756
-10.7447
10.7848
6.68444
-17.4692
-5.86208
23.636
-12.68
20.5965
-10.9017
-9.38071
-10.9137
-14.8047
-4.57997
-14.3647
-7.98897
7.70807
-8.82061
8.48866
26.8761
-16.2216
-10.6545
-12.3784
-8.18309
11.7171
-0.632344
-12.8358
12.8085
-0.880182
12.0545
16.4981
15.8658
-10.8802
-6.37674
-10.6629
10.2702
7.03322
10.3545
16.1059
8.01832
16.3213
-16.8179
-7.22099
-16.57
4.84093
-4.91585
5.7136
-5.69471
15.5795
9.5395
-15.3421
-9.45667
22.9305
-10.775
-12.1555
-5.11964
5.21409
-0.0944479
-1.83102
-0.47689
0.266869
-1.93095
-1.79632
1.86921
0.235088
5.44918
3.65286
-2.41437
2.48177
2.77875
2.70523
-0.190933
2.4987
-2.49331
18.9018
-11.432
-7.4698
13.9704
-13.8873
-2.59966
-19.3273
16.7277
2.67847
3.0033
-2.94156
-3.94838
-1.39201
-3.91443
2.95194
2.20513
3.10362
2.10715
3.34106
-8.10331
1.56296
6.54035
-5.99616
-3.48234
-13.3462
-6.26628
19.6125
16.6789
7.86256
-16.7884
0.277944
5.29302
-5.32918
-1.59833
-11.7479
8.34793
-9.94626
-15.217
-6.46092
21.6779
-9.58077
-1.08208
9.36573
2.38065
-10.8773
-7.09265
10.7431
1.42012
-12.0645
23.9707
-11.9062
-18.4413
8.51577
13.3209
16.2328
-17.8628
9.31888
8.54388
-4.54188
7.43142
1.41456
7.30516
-19.9305
13.8877
11.325
8.40155
-11.6635
2.04705
-17.8834
25.1719
-22.2876
-2.88428
12.8228
12.3491
13.5481
13.328
-7.78479
21.3329
-3.61779
-18.6699
21.5012
-13.0997
15.7824
-28.8821
-29.1104
10.4405
-17.9548
22.073
-4.11817
-5.20466
-10.1094
23.1595
-2.00657
-21.1529
10.1199
-13.9281
-11.8556
25.7837
-20.6056
18.4909
-6.2688
-12.2221
-12.6634
-9.44254
12.4898
2.80654
-25.8732
31.2214
-7.30597
7.80671
1.3692
7.83199
10.6091
-15.9757
5.36666
9.99656
-16.2654
6.76333
-22.7391
-12.1578
24.1924
-12.0346
-17.5854
-15.7945
-1.7909
4.87472
26.3467
-16.306
12.1153
4.19068
8.46173
1.89274
-8.5601
-1.22256
0.968051
16.0864
-17.0545
10.3778
10.5
11.7044
4.38205
10.7702
7.11295
-10.7481
-0.972417
-14.7928
5.722
-6.61828
-14.5742
20.2962
-16.2679
1.69368
-10.3032
-13.9906
24.2938
-16.449
11.4255
12.5453
18.4587
-19.615
5.62439
-9.74633
-9.86865
10.6435
-17.2618
7.49833
12.7979
15.6088
2.48334
12.7466
11.4457
-19.4311
1.14907
18.969
-16.4746
3.88823
10.4695
-16.0035
0.209082
-10.5356
2.66479
-15.3448
-14.8044
16.5297
-21.1097
-12.3523
13.5681
2.75328
-13.9043
-0.460411
-4.95393
-3.03504
-5.18614
-3.27644
-5.54417
-11.0612
-1.92686
-9.13437
5.78121
-6.68629
-4.65835
7.01358
1.47509
-4.93529
4.82882
-5.57998
5.38173
-0.210165
13.0186
15.6556
7.4725
-8.47674
15.9492
-15.6085
23.6269
-29.725
14.1165
15.9488
-23.1697
-13.7763
2.70106
2.13987
2.61618
13.4472
-14.4141
0.9669
-13.2786
17.5976
-4.31899
-19.5799
6.30132
-6.13271
5.18667
0.526931
5.16851
1.41638
6.84596
-8.26234
-4.27833
-4.32999
-9.16326
-13.8594
23.0227
4.7354
-13.1051
8.36969
-12.0624
16.7979
0.0785106
-13.1836
16.9847
-10.1387
17.5116
-11.9839
5.52767
12.7918
22.3469
-9.55507
16.2482
-6.70866
7.0679
-16.623
-6.79149
-11.2883
18.1791
-13.0055
14.6992
-1.12466
15.8239
-13.7772
3.00221
-2.07285
8.42717
8.6423
16.8088
-12.4267
11.9697
-18.6783
-4.6533
-16.195
-3.39715
1.0186
-13.8254
12.8068
12.0436
-11.025
-3.24218
8.98404
-5.74186
5.6818
-2.84828
-2.83352
-1.84638
-3.06947
1.86886
0.629844
6.31165
0.489167
-3.33745
-2.00415
-1.90033
10.3744
8.52739
-3.8318
3.73736
3.56494
-0.561637
0.958723
2.1449
4.58713
-3.62841
0.678112
3.90902
-2.26345
3.82771
1.46531
-3.84952
-0.0649128
-3.40813
11.7561
3.13222
-5.33734
1.70894
2.38214
-13.8141
19.7414
-11.4154
-8.32603
22.1236
3.06354
-14.4789
16.2638
-13.5853
8.10348
-14.3698
-6.37545
-19.9608
-12.9158
-10.7095
19.0792
-12.3132
20.1757
3.86216
-20.4537
24.3158
-12.7398
6.27887
-9.44308
10.9084
-4.05806
-5.38502
11.2656
10.4123
-11.0535
-0.694388
0.212079
8.41924
-8.20716
-1.52702
-7.52318
-16.4089
17.829
-8.25569
17.5746
7.69356
-7.63403
25.2086
6.56495
-14.199
-11.8763
-12.9584
-5.6551
10.5777
-1.79581
-7.23327
-14.0179
7.27283
0.0323297
-19.0795
22.0731
-2.99361
-12.0746
-1.81316
14.6359
-18.1013
1.83596
-11.338
10.7351
12.1496
12.182
-20.8419
-0.310989
-12.6461
3.17676
-15.8228
15.5259
-6.80296
17.2435
-16.0051
11.3467
-14.53
14.3592
-1.4636
14.7487
-9.38201
6.05498
-15.4975
-12.691
14.4738
-8.35971
15.843
-10.118
25.961
-17.424
14.4073
11.5537
-2.71306
-8.20063
-13.9775
11.2644
0.429821
8.26181
17.8373
-10.7244
16.8649
8.92448
-18.6708
-8.33728
-25.8596
7.18881
-13.3144
-7.35658
14.5454
11.1021
12.9948
4.67675
-11.7723
17.7855
-19.5764
-5.75095
-9.05349
14.5805
-3.31613
10.145
-19.1985
-5.19981
13.1092
-0.192691
-12.9165
3.11241
-15.4648
5.13091
-20.5957
15.9788
-16.4392
1.76938
-7.90209
-3.16591
-3.2748
-2.1717
-3.40829
-7.56641
5.39471
-1.26509
3.56373
-12.5207
12.328
-5.07686
10.4716
-4.05752
-1.12861
4.22879
1.15295
11.6245
3.02509
-16.8014
-9.2545
14.624
-5.3695
1.11987
-10.8003
3.82365
8.09965
14.0239
-24.8273
1.65759
-15.1438
-4.06959
6.20946
4.91445
16.958
2.54396
6.55189
-0.342427
9.09585
2.27375
2.19814
-11.217
12.1839
1.58981
15.7063
-1.88295
7.41062
3.28556
3.30358
2.0256
5.72247
2.91982
8.72468
0.462343
-3.86765
2.06782
-3.96815
-1.26963
-4.00696
-0.316704
3.72514
-4.04185
10.4959
-1.96853
5.12642
-1.88163
-4.93332
6.81495
-9.35143
-5.49496
-1.58594
-5.60621
7.31514
6.14985
-5.7292
-3.62223
2.39089
-15.3067
11.9789
-12.6733
-2.26093
22.0549
-9.46139
1.25423
-3.18252
-6.26895
-7.66097
7.72588
24.1899
1.01868
12.2837
18.8477
11.755
1.03067
11.9876
-16.1058
-10.7515
-16.4168
-0.890848
13.7451
5.61445
20.7322
17.1682
13.852
-5.34648
-24.9229
20.7184
-8.53448
16.3994
-3.48291
-17.1128
14.6489
8.97798
-17.4022
0.962942
-16.1498
-24.6843
-0.344413
12.6724
-11.2801
10.1515
7.11645
2.01791
-2.42549
-0.849307
2.5426
-0.344452
8.75139
-0.188815
-8.1948
8.38361
-3.53633
2.26669
-0.429236
4.16659
6.38572
4.41719
-3.77761
-7.81945
-8.81645
-4.99766
-17.1425
2.47003
-8.61989
5.68086
-3.41416
2.84734
4.96945
10.0959
-1.60167
-9.42332
7.34353
-4.49619
5.59967
)
;

boundaryField
{
    wall-4
    {
        type            calculated;
        value           uniform 0;
    }
    velocity-inlet-5
    {
        type            calculated;
        value           uniform -11.2529;
    }
    velocity-inlet-6
    {
        type            calculated;
        value           uniform -1.87548;
    }
    pressure-outlet-7
    {
        type            calculated;
        value           nonuniform List<scalar> 8(4.16679 5.00987 10.7693 12.146 17.5807 15.0796 17.1237 15.6488);
    }
    wall-8
    {
        type            calculated;
        value           uniform 0;
    }
    frontAndBackPlanes
    {
        type            empty;
        value           nonuniform List<scalar> 0();
    }
}


// ************************************************************************* //
