/*--------------------------------*- C++ -*----------------------------------*\
  =========                 |
  \\      /  F ield         | OpenFOAM: The Open Source CFD Toolbox
   \\    /   O peration     | Website:  https://openfoam.org
    \\  /    A nd           | Version:  9
     \\/     M anipulation  |
\*---------------------------------------------------------------------------*/
FoamFile
{
    format      ascii;
    class       volScalarField;
    location    "7.47";
    object      alpha.water;
}
// * * * * * * * * * * * * * * * * * * * * * * * * * * * * * * * * * * * * * //

dimensions      [0 0 0 0 0 0 0];

internalField   nonuniform List<scalar> 
2268
(
1
1
0.999999
0.999999
1
1
0.999999
0.999999
0.999998
0.999998
1
1
1
1
1
1
1
1
0.998678
0.997333
0.997822
0.999849
0.999653
0.999998
1
0.999997
0.999998
1
1
0.999998
0.999998
0.999998
0.999999
0.999999
1
1
1
1
0.999998
0.999997
1
0.998825
0.997333
0.999639
0.999996
0.999991
0.999997
0.999997
0.999997
0.999999
1
1
0.999999
0.999999
0.999999
1
1
1
1
1
0.999999
0.99998
1
1
0.999618
0.997807
0.999951
0.999996
0.999996
0.999999
0.999999
0.999999
1
1
1
1
1
1
1
1
1
1
1
1
0.999942
0.999622
0.999931
0.999991
0.999878
0.999977
0.999822
0.999992
1
1
1
1
1
1
1
1
1
1
1
1
1
1
1
1
0.998296
0.999991
0.999991
0.999991
0.999991
0.99834
0.999978
1
1
1
1
1
1
1
1
1
1
1
1
1
1
1
1
0.997617
0.99145
0.998913
0.999991
0.994386
0.995987
0.999984
1
1
1
1
1
1
1
1
1
1
1
1
1
1
1
1
0.998466
0.9816
0.98159
0.985209
0.983338
0.996572
0.999995
1
1
1
1
1
1
1
1
1
1
1
1
1
1
1
1
0.999998
0.987213
0.981272
0.981272
0.983026
0.999093
0.999995
0.994389
0.999988
0.998945
0.998731
0.998615
0.995326
0.993872
0.993873
0.994205
0.992843
0.992196
0.992196
0.992553
0.998666
0.998666
0.998666
0.998666
0.998626
0.998481
0.992448
0.999989
0.999989
0.999989
0.999989
0.999989
0.999967
0.999884
0.999883
0.999786
0.996351
0.993538
0.992559
0.997418
0.998666
0.998666
0.998666
0.998666
0.998371
0.992205
0.998221
0.999989
0.999981
0.999988
0.999974
0.999974
0.999974
0.999829
0.999829
0.999587
0.999305
0.997698
0.997373
0.998592
0.998666
0.998666
0.996184
0.994797
0.992205
0.999272
0.999979
0.999975
0.999996
0.999939
0.999737
0.999765
0.999247
0.998693
0.999599
0.999633
0.999632
0.998989
0.996636
0.998666
0.997655
0.9948
0.994796
0.995886
0.999883
0.999999
0.999998
0.999996
0.999828
0.999604
0.999604
0.999451
0.998003
0.999622
0.999633
0.999633
0.999128
0.993719
0.996858
0.994975
0.996667
0.997548
0.999997
0.999999
0.999999
0.999994
0.999967
0.999904
0.999903
0.999972
0.998892
0.996351
0.999633
0.999633
0.999633
0.999633
0.993457
0.993233
0.987439
0.998436
0.998436
0.999999
0.999999
0.999996
0.999976
0.999977
0.999992
0.999991
0.999991
0.998006
0.987671
0.991248
0.999633
0.998648
0.974836
0.993722
0.997595
0.987157
0.998398
0.998436
0.999999
0.999998
0.999998
0.999997
0.999997
0.999997
0.99994
0.999745
0.997105
0.973555
0.973475
0.983429
0.981028
0.970112
0.99379
0.997595
0.987622
0.996149
0.998436
1
1
1
1
1
1
0.999999
0.999999
0.999999
0.999999
0.999999
1
1
1
1
1
1
0.99993
0.994358
0.993699
0.999287
0.999998
0.999999
0.956388
0.956126
0.9578
0.960455
0.963122
0.966101
0.970013
0.974105
0.977122
0.97931
0.980927
0.982484
0.985602
0.989175
0.99323
0.99829
1
1
1
0.999999
0.999999
0.999999
0.999999
0.262662
0.264816
0.267066
0.270272
0.27497
0.280844
0.287336
0.295329
0.30542
0.31726
0.330336
0.343715
0.356458
0.368874
0.38106
0.393022
0.408843
0.426419
0.441112
0.449403
0.452299
0.4528
0.454458
0.000663884
0.00066338
0.000663884
0.000664204
0.00066496
0.000665586
0.000665957
0.000666705
0.000667783
0.000668565
0.000669091
0.000819487
0.000980786
0.00112872
0.0014008
0.0017572
0.00199873
0.00168459
0.00133014
0.00144474
0.00172272
0.0019454
0.00196526
0.000664397
0.000662906
0.000889923
0.00148057
0.0014791
0.00150265
0.00230747
0.00275575
0.00284306
0.0029502
0.00308725
0.00309746
0.00309746
0.00294365
0.00253652
0.00229648
0.00199316
0.00150489
0.000870505
0.000850923
0.000933636
0.000884054
0.000619601
0.00042802
0.000448863
0.000341083
7.41003e-06
5.75942e-05
0.000136878
2.63214e-08
2.6323e-08
2.63214e-08
2.6323e-08
2.6332e-08
6.278e-06
1.45148e-07
6.10119e-05
0.000139012
0.000162384
0.000237374
0.000404127
0.000463998
0.000490118
0.000559192
0.000431371
0.0003967
3.89552e-07
2.70072e-09
4.04107e-05
4.29626e-06
9.04381e-06
5.92205e-08
5.91437e-08
2.63223e-08
3.09028e-08
2.6332e-08
2.69085e-08
2.70334e-08
5.12018e-08
2.64839e-05
7.90325e-05
7.40566e-05
3.80726e-05
3.62189e-05
5.07416e-05
4.76234e-05
4.68081e-05
0.000178739
0.00024317
2.70072e-09
2.7005e-09
2.70072e-09
2.02759e-07
1.5642e-06
2.33091e-06
1.66053e-06
3.07639e-07
2.30947e-07
1.08255e-06
7.02222e-07
1.2069e-07
1.31019e-05
6.89713e-05
7.87148e-05
6.72497e-05
2.84746e-05
2.04198e-05
2.24617e-05
2.35075e-06
1.39236e-08
1.21228e-06
5.27588e-06
2.7005e-09
2.7005e-09
2.7005e-09
4.46604e-09
1.1051e-07
1.75188e-06
2.11034e-06
1.46497e-06
2.73141e-07
2.8266e-06
2.45144e-06
4.15733e-07
5.12043e-06
1.37922e-05
1.45099e-05
1.33713e-05
2.03746e-05
1.78751e-05
8.65092e-07
1.38395e-08
1.37945e-08
1.30658e-08
3.31665e-09
2.70051e-09
2.7005e-09
2.88651e-08
5.09529e-09
7.73979e-10
6.43761e-07
1.56427e-06
1.96546e-07
1.01214e-06
2.83031e-06
2.83077e-06
1.2529e-06
7.53721e-10
7.54722e-10
7.55803e-10
1.83293e-08
9.84189e-07
2.20187e-06
3.43995e-07
1.38439e-08
1.38471e-08
2.72223e-08
1.30522e-08
3.54799e-09
8.84831e-08
1.09184e-07
1.49007e-08
5.05692e-10
1.22464e-08
5.62712e-08
5.67723e-08
8.53039e-07
2.83076e-06
2.17688e-06
7.53532e-10
7.52509e-10
7.53842e-10
5.96162e-08
2.83753e-07
3.35397e-07
3.19558e-08
1.70321e-08
1.70277e-08
3.52698e-08
3.52702e-08
2.29728e-08
5.16227e-09
1.0919e-07
1.0919e-07
2.67549e-08
5.05446e-10
5.05692e-10
5.13708e-10
1.30228e-07
1.34007e-06
2.3695e-06
2.26833e-07
7.52509e-10
7.51713e-10
7.31758e-10
2.33324e-09
2.91125e-06
6.02671e-06
5.28271e-06
4.19426e-07
1.39437e-08
1.39258e-08
2.57797e-08
9.70049e-09
2.28285e-09
6.57701e-08
1.09186e-07
1.69189e-08
5.0501e-10
5.05446e-10
3.55208e-07
1.68489e-06
1.68424e-06
7.7205e-07
7.52604e-10
7.51919e-10
7.51008e-10
4.11335e-10
4.51751e-08
3.87535e-06
6.02646e-06
6.02673e-06
5.59363e-06
1.81738e-07
6.4949e-09
6.48052e-09
6.3875e-09
1.17687e-09
3.19555e-09
2.61607e-08
3.91704e-09
5.04286e-10
1.03821e-09
8.97318e-07
1.69493e-06
1.58527e-06
2.69831e-10
7.99965e-10
8.34033e-10
7.51361e-10
2.45346e-10
7.96493e-10
2.79219e-07
3.57326e-06
6.02601e-06
3.65027e-06
4.6975e-09
6.94424e-09
1.35715e-08
1.19536e-08
1.13372e-09
2.54183e-10
2.47315e-10
2.84928e-10
5.0181e-10
5.34997e-09
6.26694e-07
1.44118e-06
5.58027e-07
2.69353e-10
8.30781e-10
1.00979e-09
6.82663e-10
1.12927e-10
6.34593e-11
6.15938e-10
8.41489e-08
4.77084e-07
1.59577e-07
4.68809e-09
1.59071e-08
1.94814e-08
1.28542e-08
1.13483e-09
2.18215e-08
1.96412e-10
2.57705e-10
1.62237e-09
1.73008e-08
6.8699e-08
7.23578e-08
1.51159e-11
2.69347e-10
8.15491e-10
8.80649e-10
3.32856e-10
7.10463e-11
6.3457e-11
6.34593e-11
8.2348e-11
6.06126e-11
1.30035e-10
3.41406e-09
1.5337e-08
1.84531e-08
4.1e-09
1.59386e-07
1.75998e-07
2.70033e-11
3.32929e-10
3.58446e-09
1.06976e-08
1.47394e-11
1.46254e-11
1.45176e-11
1.79842e-10
4.31461e-10
3.56184e-10
8.32242e-11
4.16683e-11
6.12503e-11
6.7871e-11
6.71845e-11
6.03583e-11
7.271e-11
5.13094e-10
1.58231e-09
1.72353e-09
1.20862e-09
2.75252e-07
2.04307e-07
2.69444e-11
5.08588e-10
2.7375e-09
2.73417e-09
1.45818e-11
1.441e-11
1.06504e-11
4.76348e-11
7.92001e-11
3.95341e-11
7.42308e-12
1.75492e-11
4.27634e-11
5.77132e-11
6.19589e-11
5.8286e-11
4.62245e-11
2.94155e-11
1.05486e-11
1.51708e-11
1.41801e-10
2.75256e-07
1.29978e-07
2.69021e-11
4.24442e-10
1.20423e-09
1.53986e-10
1.54034e-11
1.52494e-11
4.05327e-12
2.75987e-12
2.58251e-12
6.20442e-13
1.17413e-13
2.47995e-12
1.34976e-11
2.45881e-11
2.79195e-11
2.55581e-11
1.816e-11
1.03662e-11
5.49822e-12
2.85936e-12
1.92329e-12
2.7526e-07
3.9031e-08
2.6884e-11
2.2572e-10
2.53189e-10
1.04292e-11
1.01863e-11
8.80453e-12
3.57379e-13
4.23349e-16
-1.78062e-13
-5.58802e-13
-5.46867e-13
1.264e-14
8.21613e-13
2.4962e-12
3.02561e-12
2.41949e-12
1.60731e-12
1.04009e-12
7.15825e-13
3.93018e-13
2.79232e-13
2.75894e-07
3.32323e-08
2.68808e-11
6.76844e-11
3.61767e-11
4.42029e-12
2.53899e-12
1.29804e-12
-3.86307e-13
-8.99329e-13
-1.07741e-12
-1.1411e-12
-1.01041e-12
-6.70112e-13
-2.80972e-13
1.20402e-14
2.6712e-14
1.61206e-14
7.91172e-15
5.00002e-15
4.2574e-15
2.29096e-15
1.1701e-15
2.76485e-07
2.08816e-07
2.68808e-11
2.7722e-11
2.61449e-11
4.04058e-12
1.11809e-13
7.49841e-16
-7.51214e-13
-1.14932e-12
-1.26473e-12
-1.2277e-12
-1.0685e-12
-8.25679e-13
-5.76275e-13
-3.73529e-13
-2.64235e-13
-2.01951e-13
-1.54871e-13
-1.14002e-13
-7.88377e-14
-5.1251e-14
-3.13705e-14
2.76485e-07
2.76482e-07
2.68808e-11
2.81849e-11
2.94012e-11
4.24386e-12
3.15126e-14
-1.90111e-13
-6.80831e-13
-9.59627e-13
-1.03614e-12
-9.84721e-13
-8.53365e-13
-6.83305e-13
-5.15043e-13
-3.7362e-13
-2.70249e-13
-1.95478e-13
-1.39068e-13
-9.67449e-14
-6.5637e-14
-4.30781e-14
-2.69239e-14
2.76485e-07
2.72135e-07
2.68808e-11
4.01873e-11
4.40962e-11
5.45647e-12
4.74725e-13
9.02382e-14
-2.43447e-13
-4.7942e-13
-5.92909e-13
-6.02093e-13
-5.41714e-13
-4.46325e-13
-3.45211e-13
-2.55231e-13
-1.8319e-13
-1.27608e-13
-8.62805e-14
-5.70542e-14
-3.73588e-14
-2.413e-14
-1.51095e-14
2.76485e-07
8.2566e-08
2.68816e-11
9.0087e-11
7.47093e-11
9.41193e-12
2.68988e-12
1.96594e-12
1.05171e-12
3.24953e-13
-6.62206e-14
-2.06285e-13
-2.53421e-13
-2.35483e-13
-1.90648e-13
-1.43021e-13
-1.02334e-13
-6.94867e-14
-4.50719e-14
-2.82636e-14
-1.75261e-14
-1.08449e-14
-6.68587e-15
6.8652e-08
6.75388e-11
6.74946e-11
1.89496e-10
1.15458e-10
1.78452e-11
8.65608e-12
7.46589e-12
5.43476e-12
3.14865e-12
1.35446e-12
3.30939e-13
-2.9774e-14
-9.20383e-14
-8.92508e-14
-6.92887e-14
-5.0209e-14
-3.35913e-14
-2.10261e-14
-1.24947e-14
-7.24467e-15
-4.17999e-15
-2.45321e-15
7.63548e-11
8.43312e-11
1.67689e-10
2.26973e-10
1.36674e-10
3.05751e-11
1.95925e-11
1.77018e-11
1.38491e-11
9.02953e-12
4.59416e-12
1.6469e-12
3.22504e-13
-1.16588e-14
-3.55766e-14
-2.98337e-14
-2.22961e-14
-1.48277e-14
-9.00935e-15
-5.09567e-15
-2.75843e-15
-1.46548e-15
-7.8763e-16
7.60041e-11
8.45027e-11
2.05382e-10
2.27877e-10
1.33783e-10
4.43846e-11
3.44577e-11
3.15476e-11
2.51455e-11
1.75421e-11
9.42153e-12
3.50981e-12
7.34877e-13
3.95825e-14
-1.14038e-14
-1.16972e-14
-9.16064e-15
-6.08812e-15
-3.59682e-15
-1.94056e-15
-9.85863e-16
-4.87132e-16
-2.42982e-16
7.60041e-11
7.96225e-11
1.83942e-10
1.93287e-10
1.08823e-10
5.23998e-11
4.80183e-11
4.56931e-11
3.70974e-11
2.67256e-11
1.48015e-11
5.30347e-12
9.04439e-13
4.70939e-14
-2.05157e-15
-4.2562e-15
-3.54285e-15
-2.35457e-15
-1.3514e-15
-6.95444e-16
-3.35528e-16
-1.59357e-16
-7.64556e-17
7.89274e-11
6.08143e-11
9.65193e-11
8.54135e-11
6.42469e-11
5.30054e-11
5.31266e-11
5.40192e-11
4.67639e-11
3.41962e-11
1.90434e-11
6.25943e-12
8.97187e-13
3.6119e-14
0
-1.4726e-15
-1.31117e-15
-8.66106e-16
-4.8037e-16
-2.36301e-16
-1.08818e-16
-4.93702e-17
-2.28256e-17
1.52526e-10
5.08049e-11
5.07978e-11
5.07977e-11
5.07976e-11
5.23398e-11
5.31992e-11
5.48724e-11
5.07073e-11
3.7815e-11
2.06514e-11
6.32658e-12
7.59209e-13
1.74122e-14
1.11503e-17
-5.05142e-16
-4.71205e-16
-3.0605e-16
-1.6295e-16
-7.62853e-17
-3.33531e-17
-1.44613e-17
-6.45309e-18
5.6379e-10
5.07978e-11
5.07977e-11
5.07977e-11
5.07977e-11
5.07976e-11
5.13485e-11
5.48259e-11
5.09111e-11
3.81722e-11
2.05423e-11
5.83266e-12
4.94263e-13
5.62962e-15
4.19772e-18
-1.75625e-16
-1.66415e-16
-1.0471e-16
-5.29538e-17
-2.33663e-17
-9.58215e-18
-3.94233e-18
-1.66479e-18
5.86975e-10
2.61495e-08
2.75316e-07
5.47445e-07
5.14443e-08
6.22692e-11
5.0674e-11
5.40622e-11
5.01819e-11
3.73053e-11
1.90005e-11
4.44195e-12
2.41915e-13
1.41574e-15
5.89158e-19
-6.26833e-17
-5.81614e-17
-3.47953e-17
-1.6464e-17
-6.72574e-18
-2.53476e-18
-9.74888e-19
-3.82893e-19
5.87232e-10
1.5759e-07
8.26927e-07
8.27122e-07
5.06261e-07
7.25104e-09
5.02624e-11
5.18718e-11
4.76984e-11
3.40086e-11
1.52365e-11
2.64019e-12
8.66223e-14
2.61371e-16
2.95628e-20
-2.31222e-17
-2.01344e-17
-1.11997e-17
-4.86242e-18
-1.79562e-18
-6.09148e-19
-2.14912e-19
-7.70596e-20
5.87655e-10
1.65344e-07
8.27122e-07
8.27122e-07
5.80566e-07
7.42491e-09
4.74162e-11
4.89758e-11
4.31948e-11
2.79854e-11
1.01491e-11
1.16884e-12
2.0641e-14
2.83291e-17
-1.04188e-18
-8.85286e-18
-6.87467e-18
-3.4694e-18
-1.35118e-18
-4.38967e-19
-1.30466e-19
-4.12675e-20
-1.32584e-20
5.88034e-10
5.59988e-08
6.58206e-07
7.89877e-07
2.42108e-07
1.34982e-09
4.64495e-11
4.59749e-11
3.65339e-11
2.00985e-11
5.32145e-12
3.50955e-13
2.78365e-15
1.54968e-18
-1.70312e-18
-3.43376e-18
-2.30065e-18
-1.02892e-18
-3.50596e-19
-9.72229e-20
-2.44706e-20
-6.74697e-21
-1.89859e-21
1.80769e-09
3.58192e-09
4.95891e-08
8.90442e-08
5.20541e-09
1.38996e-10
5.95941e-11
4.30506e-11
2.7644e-11
1.17786e-11
1.9633e-12
6.06121e-14
1.74779e-16
3.11343e-20
-1.07443e-18
-1.31758e-18
-7.53245e-19
-2.92188e-19
-8.48584e-20
-1.94343e-20
-3.9759e-21
-9.19031e-22
-2.19563e-22
2.46797e-09
1.57456e-09
5.59869e-10
2.121e-10
1.24115e-10
1.24083e-10
7.33135e-11
3.77577e-11
1.76701e-11
4.98079e-12
4.19592e-13
4.77803e-15
4.19215e-18
1.06606e-22
-5.4794e-19
-5.0003e-19
-2.42327e-19
-8.0006e-20
-1.93078e-20
-3.52848e-21
-5.56912e-22
-1.02085e-22
-1.9783e-23
1.8301e-09
1.6896e-09
9.37273e-10
4.03954e-10
2.32891e-10
1.48919e-10
7.11137e-11
2.77001e-11
8.39962e-12
1.23204e-12
3.94655e-14
1.32803e-16
3.41744e-20
-9.71079e-20
-2.63843e-19
-1.8867e-19
-7.72872e-20
-2.14433e-20
-4.21738e-21
-5.97369e-22
-6.85444e-23
-9.15063e-24
-1.33148e-24
2.11258e-10
9.83588e-10
9.84323e-10
7.00697e-10
3.98061e-10
1.77094e-10
6.17456e-11
1.56042e-11
2.41555e-12
1.31806e-13
1.19037e-15
1.09149e-18
6.45835e-23
-8.78692e-20
-1.22085e-19
-7.09972e-20
-2.46979e-20
-5.74067e-21
-9.1214e-22
-9.83698e-23
-7.74964e-24
-6.63338e-25
-6.29172e-26
-1.73892e-26
1.70742e-10
6.57174e-10
6.22514e-10
3.97635e-10
1.70816e-10
4.61236e-11
6.33013e-12
3.35107e-13
4.41685e-15
9.15212e-18
2.06899e-21
-1.53753e-20
-5.64684e-20
-5.47541e-20
-2.67113e-20
-7.98727e-21
-1.56801e-21
-2.02237e-22
-1.65253e-23
-8.52787e-25
-3.92857e-26
-1.85599e-27
-5.36978e-27
4.99213e-12
1.52614e-10
2.725e-10
2.1814e-10
9.87839e-11
1.93182e-11
1.15167e-12
1.40918e-14
3.06899e-17
1.53898e-20
8.64762e-25
-1.7037e-20
-3.1521e-20
-2.39621e-20
-1.0076e-20
-2.63854e-21
-4.47039e-22
-4.81336e-23
-3.07762e-24
-1.04917e-25
-1.96416e-27
-2.31778e-29
0.999999
0.999999
0.999999
0.999999
0.999999
0.999999
0.999999
0.999999
0.456522
0.455506
0.453041
0.449609
0.00177918
0.0016946
0.00162923
0.00146569
0.000520764
0.000501698
0.00051065
0.00055514
0.000522063
0.00048228
0.000363098
0.000481637
0.000187792
0.000155953
0.000179799
0.000206918
2.85947e-09
3.5421e-09
5.04072e-09
3.88225e-09
2.71725e-09
3.39659e-09
3.63825e-09
3.75387e-09
2.63141e-09
2.64994e-09
1.59151e-07
3.31498e-06
2.59457e-09
2.68873e-09
3.05822e-06
1.99297e-05
2.56744e-09
2.8369e-09
1.94318e-06
1.73319e-05
2.56198e-09
2.83415e-09
3.71365e-08
3.2034e-07
2.53423e-09
6.94002e-09
1.01736e-08
5.1729e-09
2.47571e-09
2.63014e-08
4.12247e-08
4.12288e-08
1.64612e-09
2.64213e-09
1.46028e-08
2.85904e-08
1.64723e-09
1.02402e-09
6.19282e-11
6.0763e-11
2.37294e-10
5.41035e-11
4.49841e-13
3.95864e-13
9.74746e-13
3.78621e-13
5.17197e-13
3.98781e-13
2.6923e-13
2.7415e-13
2.56484e-13
1.90097e-13
3.01519e-15
7.26877e-15
6.57184e-15
5.13353e-15
-1.78425e-14
-1.40554e-14
-1.11209e-14
-8.81491e-15
-1.59145e-14
-1.27042e-14
-1.02672e-14
-8.37171e-15
-8.92237e-15
-6.88695e-15
-5.39741e-15
-4.3198e-15
-3.99626e-15
-2.9903e-15
-2.23051e-15
-1.68388e-15
-1.51277e-15
-1.11804e-15
-8.14466e-16
-5.76383e-16
-5.13996e-16
-3.69807e-16
-2.67049e-16
-1.85809e-16
-1.65174e-16
-1.1473e-16
-7.97297e-17
-5.44773e-17
-5.11793e-17
-3.43814e-17
-2.29184e-17
-1.51036e-17
-1.48975e-17
-9.70643e-18
-6.24232e-18
-3.95411e-18
-4.06896e-18
-2.54954e-18
-1.57336e-18
-9.53996e-19
-1.00354e-18
-5.99502e-19
-3.52344e-19
-2.03237e-19
-2.18505e-19
-1.23241e-19
-6.82811e-20
-3.70817e-20
-4.11076e-20
-2.16173e-20
-1.11449e-20
-5.6225e-21
-6.5105e-21
-3.14275e-21
-1.48355e-21
-6.83756e-22
-8.41442e-22
-3.6544e-22
-1.54713e-22
-6.37664e-23
-8.54601e-23
-3.2489e-23
-1.19947e-23
-4.296e-24
-6.49255e-24
-2.07521e-24
-6.41574e-25
-1.91687e-25
-3.43699e-25
-8.64256e-26
-2.09717e-26
-4.9053e-27
-1.11682e-26
-1.94988e-27
-3.30234e-28
-5.41041e-29
-1.67792e-28
-1.52869e-29
-1.38766e-30
-1.24948e-31
-4.26055e-31
-7.6654e-33
-1.42902e-34
-2.85957e-36
0.999999
0.999999
0.999999
0.999999
0.998654
0.994951
0.994277
0.996747
0.997198
0.99206
0.971648
0.971643
0.971648
0.987974
0.997565
0.997595
0.989632
0.991722
0.998401
0.999999
0.999999
0.99561
0.990523
0.984725
0.978254
0.970677
0.96578
0.974211
0.982872
0.982462
0.980102
0.977035
0.971589
0.961455
0.954083
0.95469
0.947563
0.940676
0.442615
0.430363
0.419994
0.410494
0.402206
0.394354
0.384884
0.371451
0.353573
0.342349
0.338512
0.32852
0.315709
0.298832
0.28406
0.276839
0.274252
0.272237
0.273193
0.00120728
0.00101192
0.00116444
0.00132644
0.00108532
0.000717441
0.000517031
0.00037629
0.000326084
0.00032511
0.000323703
0.000322915
0.000322134
0.000322915
0.000323584
0.000324486
0.000325066
0.000325721
0.000326326
0.000552742
0.000489377
0.000858959
0.0012638
0.00120788
0.00114839
0.00119306
0.00119307
0.00119299
0.00119277
0.0011364
0.000750386
0.000321362
0.000717824
0.000903194
0.000903218
0.000903194
0.000903202
0.000814978
0.000520051
0.000451672
0.000542487
0.000464752
0.000533422
0.000475451
0.000398482
0.000352276
0.000314194
0.000215258
4.40138e-05
8.36834e-06
0.000176641
0.000203432
0.000233523
0.000303638
0.000295168
0.000347278
0.000413888
0.000187951
0.000186652
0.000133082
6.94401e-05
3.0797e-08
3.08757e-08
3.13517e-08
5.07958e-08
9.53215e-08
1.39533e-07
8.38564e-07
8.36018e-06
2.09248e-05
7.02191e-07
5.19798e-07
5.19801e-07
5.19801e-07
5.19801e-07
1.83181e-05
5.1671e-09
5.72973e-09
5.65313e-09
5.65257e-09
3.07165e-08
1.38853e-06
2.68731e-05
3.69071e-05
3.02674e-05
3.29323e-05
4.61518e-05
5.40044e-05
3.37703e-05
7.59789e-07
5.19798e-07
5.19798e-07
5.19801e-07
5.19801e-07
5.19801e-07
4.12659e-09
5.18846e-09
5.64864e-09
5.69237e-09
3.05338e-08
2.66182e-05
5.45236e-05
5.45302e-05
5.40188e-05
5.39697e-05
5.39902e-05
5.40108e-05
3.22801e-05
2.97682e-06
5.19804e-07
5.19801e-07
5.19801e-07
5.19801e-07
5.19801e-07
8.31913e-06
9.95867e-06
1.43545e-06
5.74641e-09
1.19321e-06
3.85311e-05
4.81817e-05
1.51537e-05
9.68166e-07
2.75004e-06
2.20097e-05
3.64155e-05
2.47955e-05
2.24988e-05
5.08297e-06
5.19802e-07
5.19801e-07
5.19801e-07
5.19804e-07
2.10243e-05
2.10243e-05
1.70503e-05
1.99123e-06
3.31166e-06
7.77571e-06
2.41042e-09
2.40874e-09
9.67433e-07
3.18386e-07
2.65892e-07
4.41248e-07
2.34429e-05
2.34409e-05
1.00513e-05
5.19801e-07
5.19801e-07
5.19916e-07
5.19916e-07
2.10243e-05
2.10209e-05
2.10167e-05
1.93814e-05
1.90121e-09
1.90121e-09
2.64628e-09
5.56229e-07
1.73068e-06
1.30097e-06
2.63447e-07
3.5439e-06
1.46868e-05
1.94798e-05
1.57991e-06
9.27803e-07
5.19801e-07
5.19801e-07
5.19802e-07
4.37629e-06
1.6247e-05
1.70308e-05
3.14506e-06
1.90121e-09
1.92365e-09
2.02146e-08
2.09486e-07
2.83704e-07
2.34434e-10
2.34417e-10
2.34473e-10
2.61613e-10
5.73342e-06
1.21721e-05
1.08256e-05
5.69296e-07
5.19802e-07
5.19802e-07
1.85301e-09
1.84843e-09
1.84463e-09
1.84553e-09
1.97025e-09
7.73533e-09
1.02065e-08
2.34458e-10
2.34438e-10
2.34415e-10
2.34438e-10
2.36237e-10
4.0639e-07
8.09519e-06
1.21721e-05
1.21659e-05
1.21585e-05
3.84501e-06
8.91535e-07
3.44545e-08
8.75784e-09
9.85208e-09
1.84471e-09
1.95006e-09
2.0808e-09
2.82772e-09
1.01204e-09
2.62448e-10
2.71206e-10
7.43373e-10
8.66358e-10
7.50266e-10
2.45264e-11
3.0153e-06
4.30139e-06
2.19784e-06
2.04796e-06
1.96736e-06
7.89647e-08
1.93605e-07
2.14412e-07
1.12648e-07
1.78889e-08
2.08509e-10
2.08511e-10
2.08522e-10
3.77563e-10
7.17499e-10
9.96916e-10
1.32031e-09
7.67642e-10
2.45264e-11
2.45264e-11
2.46386e-11
2.83513e-09
3.54713e-06
9.47451e-06
3.053e-08
2.42083e-07
2.50008e-07
2.50008e-07
2.06858e-07
8.14135e-09
2.08509e-10
8.87843e-09
2.57714e-08
1.2872e-08
6.19446e-11
6.19268e-11
4.81412e-11
4.80348e-11
2.46386e-11
3.27105e-11
2.52468e-06
1.32424e-05
1.32424e-05
3.76188e-14
3.39509e-08
2.11954e-07
2.49996e-07
2.49935e-07
8.54973e-08
2.14635e-10
3.64098e-08
6.88051e-08
6.38208e-08
7.73754e-09
4.7363e-11
7.96454e-11
9.5787e-11
5.21166e-11
5.88096e-11
3.80545e-06
1.32424e-05
1.32423e-05
3.75874e-14
2.71539e-15
6.61744e-27
6.73551e-08
9.62583e-08
1.23547e-08
3.70189e-09
5.05158e-08
6.88061e-08
6.87988e-08
4.15307e-08
4.72947e-11
4.72804e-11
7.3637e-11
3.61574e-11
3.74627e-12
6.59864e-07
4.51316e-06
6.22111e-06
8.76831e-14
5.41843e-15
-1.66949e-17
0
7.26208e-20
1.70866e-16
5.28028e-10
1.63723e-08
4.53299e-08
4.63894e-08
9.2791e-09
4.5982e-10
4.40047e-11
3.324e-11
1.19353e-11
3.7366e-12
1.11159e-12
1.11159e-12
1.11158e-12
2.1953e-15
3.61876e-17
-2.4549e-16
-1.62853e-16
3.26832e-16
3.27024e-16
3.3431e-16
3.56518e-16
3.96284e-16
4.68639e-16
5.73945e-16
1.2372e-11
1.04269e-10
1.36492e-11
3.64554e-12
1.69441e-12
1.11159e-12
1.11158e-12
1.11159e-12
-6.99935e-15
-3.64196e-15
-1.82775e-15
-4.58193e-16
1.60011e-15
1.85622e-14
4.28755e-14
7.01256e-14
1.23116e-13
1.55976e-13
1.85832e-13
6.05454e-13
1.34601e-12
1.31217e-12
8.72733e-13
1.10702e-12
1.13325e-12
1.11272e-12
1.11215e-12
-6.79287e-15
-4.00203e-15
-2.3024e-15
-1.25474e-15
-5.72305e-16
-5.67543e-18
1.01493e-15
3.48452e-14
1.69319e-13
2.4694e-13
2.78324e-13
7.04899e-13
1.0422e-12
3.83339e-13
1.90118e-13
7.4483e-13
1.44659e-12
1.11271e-12
1.11279e-12
-3.48226e-15
-2.11384e-15
-1.26741e-15
-7.49554e-16
-4.32806e-16
-2.37676e-16
-1.08934e-16
-4.69382e-18
1.1502e-15
1.19419e-14
2.44809e-14
5.43856e-14
1.90556e-13
6.75476e-14
5.44434e-14
6.14761e-13
2.1267e-12
1.11279e-12
5.1239e-07
-1.2952e-15
-7.70787e-16
-4.56936e-16
-2.6939e-16
-1.57731e-16
-9.31644e-17
-5.40261e-17
-2.79834e-17
-4.06268e-18
2.97233e-17
1.91927e-16
6.09706e-16
1.60485e-15
4.28737e-15
2.03793e-14
5.93841e-13
2.65624e-12
1.11426e-12
2.31841e-06
-3.91902e-16
-2.24994e-16
-1.28206e-16
-7.33034e-17
-4.24357e-17
-2.47842e-17
-1.43314e-17
-7.78286e-18
-3.03851e-18
1.54075e-18
1.75999e-17
8.8383e-17
4.50764e-16
2.23536e-15
1.63897e-14
6.15158e-13
2.86156e-12
1.1149e-12
2.31844e-06
-1.03994e-16
-5.63067e-17
-3.1005e-17
-1.73346e-17
-9.7447e-18
-5.40501e-18
-2.80202e-18
-1.27052e-18
-7.70372e-37
1.91339e-18
1.37122e-17
7.06231e-17
3.7383e-16
1.93976e-15
1.5749e-14
6.26365e-13
2.88946e-12
1.11526e-12
2.31838e-06
-2.65134e-17
-1.30612e-17
-6.61666e-18
-3.42437e-18
-1.76092e-18
-7.86866e-19
0
4.78704e-19
2.74974e-18
1.10641e-17
2.96823e-17
8.57891e-17
3.75846e-16
1.93052e-15
1.78904e-14
6.03234e-13
2.88862e-12
1.11583e-12
2.18341e-06
-6.57974e-18
-2.8788e-18
-1.29098e-18
-5.83257e-19
-1.83704e-19
1.77854e-19
2.08115e-18
1.26782e-17
4.94933e-17
1.43846e-16
3.13887e-16
5.82525e-16
1.43402e-15
6.06205e-15
5.10756e-14
6.02256e-13
2.97785e-12
1.11633e-12
1.9632e-07
-1.58785e-18
-6.2653e-19
-2.47565e-19
-8.33765e-20
1.57983e-19
2.96387e-18
1.93817e-17
9.4317e-17
3.58349e-16
1.06665e-15
2.45976e-15
5.64916e-15
1.73575e-14
7.07149e-14
2.83752e-13
1.0804e-12
3.70149e-12
1.13259e-12
1.13356e-12
-3.56111e-19
-1.28802e-19
-4.49762e-20
5.32774e-21
8.86428e-19
1.16299e-17
9.22999e-17
4.79343e-16
1.94943e-15
6.74555e-15
2.25237e-14
8.69325e-14
2.9206e-13
8.33908e-13
1.7409e-12
3.2166e-12
5.16108e-12
1.13356e-12
8.72825e-07
-7.02645e-20
-2.33781e-20
-6.70367e-21
5.38482e-20
1.81552e-18
3.31643e-17
3.58861e-16
2.19064e-15
1.12831e-14
5.60438e-14
3.11534e-13
1.437e-12
3.94991e-12
7.33694e-12
8.74514e-12
1.01622e-11
9.28117e-12
1.13974e-12
2.45862e-06
-1.17277e-20
-3.55112e-21
-3.463e-22
6.56476e-20
2.936e-18
7.05586e-17
1.07531e-15
9.58353e-15
7.24772e-14
4.7476e-13
2.78726e-12
1.07884e-11
2.39997e-11
3.36372e-11
3.11021e-11
2.91445e-11
2.69523e-11
1.1435e-12
2.45867e-06
-1.59948e-21
-4.31344e-22
4.11021e-22
6.86589e-20
3.71115e-18
1.09125e-16
2.29797e-15
3.371e-14
3.28957e-13
2.22627e-12
1.10099e-11
3.51037e-11
6.56525e-11
7.75653e-11
7.23762e-11
6.71e-11
7.98678e-11
1.14885e-12
2.44556e-06
-1.71457e-22
-3.9425e-23
3.03474e-22
5.77146e-20
3.94311e-18
1.29238e-16
3.45955e-15
7.77044e-14
8.24041e-13
5.25381e-12
2.18559e-11
6.09115e-11
9.99252e-11
1.06618e-10
1.14143e-10
1.38185e-10
1.9479e-10
1.16874e-12
2.44551e-06
-1.37516e-23
-2.28578e-24
1.26825e-22
2.93233e-20
3.39265e-18
1.30649e-16
3.93579e-15
1.16028e-13
1.23763e-12
7.4238e-12
2.74651e-11
7.09181e-11
1.09698e-10
1.10686e-10
1.37585e-10
4.96265e-10
5.72881e-10
1.22296e-12
2.43186e-06
-7.72046e-25
1.37487e-27
4.91804e-23
1.15973e-20
1.63396e-18
8.33064e-17
3.71147e-15
1.28791e-13
1.36254e-12
7.91047e-12
2.76083e-11
6.36715e-11
9.88766e-11
7.19607e-11
1.37729e-10
2.91609e-09
2.78946e-09
1.39701e-12
1.02228e-06
-2.74975e-26
3.56222e-26
1.31289e-23
3.85296e-21
5.625e-19
2.81666e-17
1.75896e-15
1.06427e-13
1.08406e-12
5.61313e-12
1.59252e-11
2.66447e-11
5.03757e-11
1.70122e-11
1.18342e-10
6.83765e-09
6.91481e-09
2.27695e-12
7.19132e-07
-5.26347e-28
6.26467e-27
2.08201e-24
8.60814e-22
1.47858e-19
6.89213e-18
4.13808e-16
3.73205e-14
3.59351e-13
1.65354e-12
3.98859e-12
6.14852e-12
1.08878e-11
2.58674e-16
1.64113e-10
7.75784e-09
7.75758e-09
4.2989e-10
1.0241e-06
-3.85046e-30
5.23329e-28
1.73008e-25
1.07029e-22
2.25326e-20
1.14132e-18
5.97759e-17
6.12817e-15
5.60735e-14
2.38785e-13
5.26418e-13
8.06735e-13
1.28073e-12
8.48276e-18
1.46788e-10
3.26431e-09
5.04395e-09
1.63078e-13
1.02398e-06
-4.88054e-33
3.13969e-32
3.11754e-27
6.24199e-24
1.40333e-21
8.20812e-20
4.49349e-18
4.5144e-16
3.90719e-15
1.54866e-14
3.23624e-14
4.96838e-14
6.7988e-14
1.47968e-19
2.82485e-11
1.70223e-10
4.83635e-10
6.88835e-25
1.01744e-06
-2.64884e-38
-2.58434e-40
6.87184e-35
1.42903e-29
3.81097e-26
1.33775e-23
3.43495e-21
3.66067e-19
2.41687e-18
9.1526e-18
1.9272e-17
2.84255e-17
1.26236e-17
1.4736e-19
1.06863e-13
-2.63049e-49
-3.31925e-48
0
9.17079e-07
)
;

boundaryField
{
    leftWall
    {
        type            zeroGradient;
    }
    rightWall
    {
        type            zeroGradient;
    }
    lowerWall
    {
        type            zeroGradient;
    }
    atmosphere
    {
        type            inletOutlet;
        inletValue      uniform 0;
        value           nonuniform List<scalar> 
46
(
0
4.99213e-12
1.52614e-10
2.725e-10
2.1814e-10
9.87839e-11
1.93182e-11
1.15167e-12
1.40918e-14
3.06899e-17
1.53898e-20
8.64762e-25
-1.7037e-20
-3.1521e-20
-2.39621e-20
-1.0076e-20
-2.63854e-21
-4.47039e-22
-4.81336e-23
-3.07762e-24
-1.04917e-25
0
0
0
0
0
0
0
0
0
0
0
0
0
0
0
0
0
0
0
0
0
0
0
0
9.17079e-07
)
;
    }
    defaultFaces
    {
        type            empty;
    }
}


// ************************************************************************* //
