/*--------------------------------*- C++ -*----------------------------------*\
  =========                 |
  \\      /  F ield         | OpenFOAM: The Open Source CFD Toolbox
   \\    /   O peration     | Website:  https://openfoam.org
    \\  /    A nd           | Version:  9
     \\/     M anipulation  |
\*---------------------------------------------------------------------------*/
FoamFile
{
    format      ascii;
    class       volScalarField;
    location    "7.47";
    object      epsilon;
}
// * * * * * * * * * * * * * * * * * * * * * * * * * * * * * * * * * * * * * //

dimensions      [0 2 -3 0 0 0 0];

internalField   nonuniform List<scalar> 
2268
(
0.000144546
0.000795272
0.00142237
0.0019892
0.00249938
0.00295818
0.00336895
0.00373363
0.0040531
0.00433165
0.00457769
0.00480248
0.00501068
0.00518427
0.00526477
0.00514073
0.00473305
0.00412177
0.00339928
0.00268416
0.00212851
0.00138018
0.000470811
0.000299774
0.000523653
0.000776774
0.0010145
0.00123098
0.0014261
0.00160094
0.00175678
0.00189485
0.00201701
0.00212573
0.00222326
0.00230904
0.00237576
0.00240558
0.00237112
0.00226588
0.00210674
0.00187375
0.00158663
0.00127926
0.000951932
0.000739566
0.000513695
0.000554856
0.000715945
0.000879472
0.00103189
0.00117035
0.00129473
0.00140585
0.00150482
0.00159304
0.00167193
0.00174229
0.00180291
0.00184885
0.00187018
0.00185447
0.00180133
0.00171668
0.00158291
0.00141335
0.00123777
0.0010917
0.00122923
0.000725421
0.000626529
0.000736232
0.000862991
0.000985146
0.00109744
0.0011988
0.00128959
0.00137074
0.00144344
0.00150875
0.00156702
0.00161708
0.00165516
0.00167458
0.00166816
0.00163662
0.0015832
0.00149769
0.00139593
0.00131469
0.00131368
0.00180062
0.000930172
0.000711412
0.000783202
0.000885111
0.000987582
0.00108321
0.00117009
0.00124822
0.00131832
0.00138145
0.0014385
0.00148973
0.0015341
0.00156866
0.00158851
0.0015888
0.00157044
0.00153656
0.0014846
0.00143445
0.00143199
0.00157603
0.00250694
0.00113039
0.000803196
0.000843619
0.000926068
0.00101344
0.00109644
0.00117247
0.00124118
0.00130315
0.00135933
0.00141054
0.00145705
0.00149801
0.00153105
0.00155239
0.0015584
0.00154995
0.00153105
0.001506
0.00149895
0.00156835
0.00187882
0.0034675
0.00133098
0.000900451
0.000913067
0.000978924
0.00105349
0.0011258
0.0011927
0.00125354
0.00130878
0.00135931
0.00140595
0.00144895
0.00148768
0.0015202
0.0015435
0.0015547
0.00155465
0.00154868
0.00154597
0.00157486
0.00170875
0.00220714
0.00490188
0.00154018
0.00100291
0.000989817
0.00104078
0.0011037
0.00116628
0.00122488
0.00127858
0.00132775
0.00137329
0.001416
0.00145615
0.00149326
0.00152572
0.00155108
0.001567
0.00157443
0.00158003
0.00159583
0.00165249
0.00183347
0.00249772
0.00794596
0.000672979
0.00221295
0.00339778
0.00401545
0.00439398
0.00457829
0.00471664
0.00478505
0.00455944
0.00387981
0.00307081
0.00233158
0.00194319
0.0020042
0.00213169
0.00199384
0.00138082
0.000825736
0.000167787
0.00068928
0.00121921
0.00164953
0.00190046
0.00205398
0.00214014
0.00219125
0.00219946
0.00211377
0.00191991
0.00167147
0.00137203
0.00116804
0.00108908
0.00102848
0.00092264
0.000696629
0.000482128
0.000244061
0.000924478
0.00116126
0.00140732
0.00155238
0.00164363
0.00169834
0.00172757
0.00172143
0.00165592
0.00153758
0.00138329
0.00118918
0.00103506
0.000946138
0.000871128
0.000779647
0.000628113
0.000489066
0.000400795
0.00119969
0.00126199
0.00138458
0.00146014
0.00151172
0.00154495
0.00156067
0.00154666
0.00148772
0.0013954
0.00127832
0.0011344
0.00100912
0.00092285
0.000848526
0.000767065
0.000649806
0.000555861
0.000588491
0.00163609
0.00144185
0.00143644
0.0014506
0.00146934
0.00148446
0.00148926
0.00146981
0.00141467
0.00133597
0.00124041
0.00112657
0.00102124
0.000939845
0.00086892
0.000794981
0.000700755
0.000645344
0.000804858
0.0022813
0.00166759
0.00151917
0.00147642
0.00146661
0.00146585
0.00146137
0.00143814
0.00138667
0.0013182
0.00123796
0.00114495
0.00105421
0.000977084
0.000908569
0.000839268
0.000761225
0.000739596
0.00104616
0.00337382
0.00191305
0.00160971
0.00151743
0.00148368
0.00146934
0.00145711
0.00143161
0.0013846
0.0013262
0.00125921
0.00118202
0.00110219
0.00102791
0.000957858
0.000889926
0.00082333
0.000829717
0.00130896
0.00605321
0.00213544
0.0016912
0.00156284
0.00151089
0.00148559
0.0014672
0.00144087
0.0013993
0.00135203
0.00129859
0.00123439
0.00116279
0.00108883
0.00101172
0.000942494
0.00088528
0.000917363
0.00160286
0.00184531
0.00116486
0.00111804
0.00114825
0.00119419
0.00124243
0.00128877
0.00133184
0.00137196
0.00141022
0.00144734
0.00148358
0.00151856
0.00155113
0.0015795
0.00160203
0.00161985
0.001641
0.00167983
0.00176496
0.00196498
0.00246186
0.00387005
0.00230464
0.00141706
0.00132626
0.00132787
0.00134942
0.00137782
0.00140725
0.00143497
0.00146176
0.00148965
0.00151931
0.00155046
0.00158252
0.00161446
0.00164505
0.00167323
0.00170027
0.00173343
0.00178489
0.00187352
0.00203743
0.00234451
0.00288009
0.00285086
0.00171652
0.00156973
0.00153672
0.00153033
0.00153938
0.00155151
0.0015612
0.00157132
0.00158723
0.00160929
0.00163575
0.00166501
0.00169583
0.00172715
0.00175796
0.00179006
0.00182919
0.00188189
0.0019579
0.00207503
0.0022552
0.0024869
0.0036584
0.00207592
0.00181836
0.00174734
0.00171585
0.00171292
0.00170808
0.00169784
0.00168712
0.0016905
0.00170662
0.00173078
0.00175965
0.0017909
0.00182323
0.00185438
0.00188822
0.00192912
0.00197665
0.00203487
0.00211069
0.00221433
0.00233082
0.00502148
0.00233755
0.00196278
0.00187128
0.00180896
0.00176781
0.00176265
0.00176901
0.00176371
0.00177046
0.0017925
0.00182284
0.00185774
0.001891
0.00191716
0.00193921
0.00196576
0.0020017
0.00205893
0.00211141
0.00214838
0.00220017
0.00226497
0.00467736
0.00238725
0.00202793
0.00199204
0.00186492
0.00178616
0.00177182
0.00177908
0.00178784
0.00180485
0.00183571
0.00187688
0.00192447
0.00196826
0.00200206
0.00201495
0.00203233
0.00205929
0.00210108
0.00215557
0.00218204
0.00219244
0.00221427
0.00176431
0.00217452
0.00194652
0.0018695
0.00181196
0.00178115
0.00178084
0.00179232
0.0018031
0.00182448
0.00185753
0.00189684
0.00193913
0.00197893
0.00200942
0.00202721
0.00204508
0.00206873
0.0020968
0.00213243
0.0021583
0.00216442
0.00217712
0.00176692
0.00221159
0.00190289
0.00180913
0.00177238
0.00176512
0.0017763
0.00179496
0.00181356
0.00183702
0.0018671
0.00190112
0.00193824
0.00197484
0.00200497
0.00202993
0.00205282
0.00207512
0.0020977
0.00212006
0.00213772
0.00214728
0.00215539
0.00176866
0.00210906
0.00184636
0.00176093
0.0017376
0.00174403
0.00176434
0.00178966
0.00181515
0.00184242
0.00187272
0.00190546
0.00194154
0.00197925
0.0020128
0.00204099
0.00206638
0.00208954
0.00210957
0.00212574
0.00213738
0.00214475
0.00215028
0.00176617
0.0020711
0.00180278
0.00172748
0.00171368
0.00172734
0.00175308
0.00178315
0.00181409
0.00184585
0.00187861
0.00191267
0.00194986
0.00198941
0.0020258
0.00205699
0.0020849
0.00210967
0.0021291
0.0021421
0.00215001
0.0021551
0.00215928
0.00176554
0.00205618
0.00178065
0.00170854
0.00169885
0.00171572
0.00174438
0.00177787
0.00181322
0.00184936
0.00188556
0.00192224
0.00196108
0.00200159
0.00203989
0.00207394
0.00210475
0.00213176
0.00215223
0.00216507
0.00217272
0.00217788
0.00218215
0.00176506
0.00206508
0.00177672
0.00170146
0.00169169
0.00170928
0.00173944
0.00177547
0.00181435
0.00185427
0.00189398
0.00193373
0.00197462
0.00201624
0.00205617
0.00209277
0.0021262
0.00215563
0.00217864
0.00219421
0.00220467
0.00221241
0.00221858
0.007476
0.0020927
0.0017846
0.00170353
0.00169149
0.00170851
0.0017394
0.00177731
0.00181886
0.00186181
0.00190475
0.00194769
0.00199105
0.00203443
0.00207636
0.00211568
0.00215192
0.00218424
0.00221091
0.00223107
0.00224632
0.00225846
0.00226826
0.00176657
0.00211168
0.00180045
0.00171272
0.00169762
0.00171358
0.00174484
0.00178417
0.00182775
0.00187322
0.00191923
0.00196546
0.00201182
0.00205782
0.00210254
0.00214514
0.00218493
0.00222104
0.00225232
0.00227813
0.00229933
0.00231705
0.0023318
0.00176461
0.00215568
0.00182164
0.00172749
0.00170936
0.0017242
0.00175571
0.00179624
0.00184168
0.00188964
0.00193885
0.00198868
0.00203868
0.00208829
0.00213682
0.00218359
0.0022279
0.00226894
0.00230583
0.00233809
0.00236607
0.00239038
0.00241126
0.00176751
0.00218599
0.00184676
0.00174682
0.00172597
0.00173989
0.00177174
0.00181358
0.00186111
0.00191197
0.0019648
0.00201876
0.0020732
0.00212751
0.00218104
0.00223314
0.00228317
0.00233037
0.00237402
0.00241369
0.0024494
0.00248136
0.00250958
0.00176613
0.00223456
0.00187583
0.00177014
0.00174689
0.00176024
0.00179277
0.0018363
0.00188648
0.00194086
0.00199798
0.00205685
0.00211672
0.0021769
0.00223673
0.00229557
0.00235274
0.00240756
0.00245936
0.00250769
0.00255235
0.00259323
0.00263011
0.00176739
0.00227447
0.00190813
0.00179694
0.00177175
0.00178503
0.00181879
0.00186467
0.00191822
0.00197692
0.00203921
0.002104
0.00217045
0.00223783
0.00230543
0.00237258
0.00243858
0.00250273
0.00256437
0.00262296
0.0026781
0.00272944
0.00277652
0.00176801
0.00232515
0.00194326
0.00182698
0.0018004
0.00181423
0.00184994
0.00189897
0.00195678
0.00202077
0.0020893
0.00216122
0.00223563
0.00231174
0.0023888
0.00246608
0.00254284
0.00261832
0.0026918
0.00276262
0.00283017
0.00289386
0.00295302
0.00176782
0.00237989
0.00198082
0.00186014
0.00183282
0.00184795
0.00188645
0.00193956
0.00200266
0.0020731
0.00214916
0.00222965
0.00231363
0.00240025
0.00248874
0.00257827
0.00266805
0.00275721
0.00284492
0.00293035
0.00301268
0.00309107
0.00316462
0.00176621
0.00243982
0.0020206
0.00189637
0.00186908
0.00188634
0.00192859
0.00198686
0.00205647
0.00213468
0.00221979
0.00231055
0.00240599
0.00250524
0.00260745
0.00271174
0.00281719
0.00292283
0.00302765
0.00313061
0.00323065
0.00332663
0.00341742
0.00176581
0.00249712
0.0020629
0.00193575
0.00190931
0.00192965
0.00197672
0.00204137
0.00211885
0.00220641
0.00230231
0.00240533
0.00251447
0.00262884
0.00274751
0.00286953
0.00299385
0.00311934
0.00324476
0.00336882
0.00349015
0.00360732
0.00371884
0.00176708
0.00254287
0.00210772
0.00197843
0.00195371
0.00197815
0.00203122
0.00210362
0.00219053
0.00228923
0.00239799
0.0025156
0.00264108
0.00277351
0.00291192
0.00305525
0.0032023
0.00335172
0.00350202
0.00365157
0.00379863
0.00394138
0.00407797
0.0017668
0.00260712
0.0021554
0.00202458
0.00200247
0.00203211
0.0020925
0.00217417
0.0022723
0.00238419
0.00250818
0.00264312
0.00278805
0.00294205
0.00310412
0.00327309
0.00344756
0.00362593
0.00380635
0.00398681
0.00416508
0.00433887
0.00450585
0.00746245
0.00269105
0.0022063
0.00207436
0.00205577
0.00209182
0.00216097
0.00225362
0.00236497
0.0024924
0.00263437
0.00278981
0.00295786
0.00313763
0.00332809
0.00352793
0.00373555
0.00394903
0.00416609
0.00438415
0.00460043
0.00481198
0.00501589
0.00176801
0.00273913
0.00225961
0.00212751
0.00211366
0.00215751
0.00223702
0.00234255
0.00246936
0.002615
0.00277808
0.00295774
0.00315323
0.00336377
0.00358829
0.00382539
0.00407321
0.00432941
0.00459115
0.00485517
0.00511789
0.00537553
0.00562438
0.00176889
0.00280479
0.00231423
0.00218388
0.00217623
0.00222938
0.002321
0.00244147
0.00258624
0.00275308
0.00294089
0.00314905
0.00337708
0.00362431
0.00388976
0.0041719
0.00446858
0.00477694
0.00509341
0.0054138
0.00573349
0.00604755
0.00635116
0.00748633
0.00287647
0.00237066
0.00224365
0.00224359
0.00230759
0.00241317
0.00255083
0.0027163
0.00290769
0.0031243
0.00336592
0.00363241
0.0039234
0.00423803
0.00457471
0.00493094
0.0053032
0.00568696
0.00607679
0.00646658
0.00684991
0.00722049
0.00747804
0.00294072
0.00242938
0.00230689
0.00231578
0.00239223
0.00251372
0.00267096
0.00286008
0.0030797
0.00332968
0.00361038
0.00392223
0.00426532
0.00463905
0.00504183
0.00547078
0.0059216
0.00638848
0.00686426
0.00734083
0.00780963
0.00826228
0.00749302
0.00300141
0.00249004
0.00237348
0.00239267
0.00248321
0.00262261
0.00280193
0.00301785
0.00326967
0.00355804
0.00388418
0.00424932
0.00465427
0.00509896
0.00558193
0.00609997
0.00664776
0.00721782
0.00780063
0.00838523
0.00896006
0.0095136
0.00176833
0.00305792
0.00255262
0.00244305
0.00247397
0.00258029
0.00273963
0.00294357
0.00318952
0.00347772
0.00380991
0.00418848
0.0046159
0.00509409
0.00562386
0.00620418
0.00683158
0.00749958
0.00819845
0.0089154
0.00963539
0.0103424
0.0110206
0.00748858
0.0031302
0.0026162
0.00251511
0.00255934
0.00268314
0.00286441
0.00309541
0.00337455
0.00370336
0.00408502
0.00452359
0.00502329
0.00558775
0.00621924
0.00691767
0.00767958
0.0084972
0.00935789
0.0102442
0.0111352
0.0120083
0.0128411
0.00749379
0.00319278
0.0026795
0.00258918
0.00264854
0.0027915
0.00299644
0.00325664
0.00357186
0.00394527
0.00438205
0.00488849
0.00547129
0.00613664
0.00688918
0.00773062
0.0086581
0.00966266
0.010728
0.0118301
0.0129393
0.0140228
0.0150488
0.00176772
0.00323564
0.00274204
0.00266546
0.00274195
0.00290544
0.00313528
0.00342616
0.00377965
0.00420108
0.0046982
0.00528028
0.00595742
0.00673956
0.00763507
0.00864887
0.00978
0.0110188
0.0123447
0.0137247
0.0151155
0.0164688
0.0177381
0.00749714
0.00328602
0.00280435
0.00274583
0.00284129
0.00302586
0.00328068
0.00360253
0.00399533
0.0044671
0.00502878
0.0056935
0.00647595
0.00739132
0.00845374
0.00967367
0.0110543
0.0125871
0.0142469
0.0159887
0.017749
0.0194536
0.021032
0.0074817
0.00332852
0.00287154
0.00283613
0.0029511
0.00315522
0.00343294
0.00378404
0.00421532
0.004738
0.00536677
0.0061195
0.00701678
0.00808108
0.00933499
0.0107981
0.012482
0.0143829
0.016473
0.0186924
0.0209464
0.0231175
0.0250931
0.00747868
0.00336141
0.00296052
0.00295133
0.00308129
0.00329845
0.00359298
0.00396847
0.00443484
0.00500656
0.00570242
0.00654574
0.00756439
0.00879038
0.0102584
0.0120022
0.0140487
0.016407
0.019053
0.0219112
0.0248411
0.0276489
0.0301419
0.00747757
0.00344353
0.00312424
0.00312644
0.00325082
0.00346356
0.00376197
0.00415264
0.00464746
0.00526338
0.00602303
0.00695546
0.00809696
0.0094914
0.0111896
0.0132465
0.0157149
0.0186311
0.0219912
0.0257139
0.0295976
0.0333095
0.036485
0.00748875
0.00390112
0.00352882
0.00343868
0.00349115
0.00366016
0.00393942
0.00433106
0.00484452
0.00549679
0.00631309
0.0073279
0.00858642
0.0101461
0.0120777
0.0144652
0.017401
0.0209728
0.0252319
0.0301294
0.035408
0.0404867
0.0445649
0.0147697
0.00662673
0.00469581
0.00404101
0.00384135
0.00389197
0.0041186
0.00449386
0.00501446
0.00569299
0.00655507
0.00763948
0.00899977
0.0107072
0.0128548
0.0155612
0.0189731
0.023261
0.028594
0.035059
0.0424501
0.0498212
0.0550453
0.149121
0.0242737
0.0082696
0.00516363
0.00431057
0.00413768
0.00427914
0.00462451
0.00514272
0.00583692
0.00673093
0.00786609
0.00930253
0.0111233
0.0134415
0.0164101
0.0202363
0.0251988
0.0316634
0.0400596
0.0506696
0.0625896
0.0689399
1.5375
0.125212
0.0177022
0.00676364
0.00476061
0.00432209
0.00438198
0.00470035
0.00521329
0.00591419
0.00682451
0.00798656
0.00946407
0.0113471
0.0137609
0.0168814
0.0209595
0.0263665
0.0336801
0.0438696
0.058734
0.0820163
0.0876794
0.00887805
0.00715162
0.00745655
0.00943
0.00343117
0.00347533
0.00345651
0.0033465
0.00261622
0.00264074
0.00261277
0.00253383
0.00237213
0.00237557
0.00235467
0.00231088
0.00228289
0.00227972
0.00226268
0.00222839
0.00221368
0.00220787
0.00219754
0.00217976
0.00217876
0.0021777
0.00217377
0.00216354
0.00215951
0.00216103
0.00215983
0.00215366
0.00215341
0.00215474
0.00215427
0.00215091
0.00216177
0.00216282
0.00216272
0.00216077
0.00218461
0.00218567
0.00218579
0.00218447
0.00222195
0.00222349
0.00222406
0.00222337
0.00227372
0.00227645
0.00227814
0.00227867
0.00234047
0.00234516
0.00234875
0.00235118
0.00242412
0.00243142
0.00243756
0.00244245
0.00252757
0.00253807
0.00254731
0.0025552
0.00265421
0.00266852
0.00268145
0.00269292
0.00280784
0.00282667
0.00284399
0.0028597
0.00299291
0.0030171
0.00303962
0.00306038
0.00321472
0.00324531
0.00327405
0.00330086
0.00347975
0.003518
0.00355422
0.00358827
0.00379589
0.00384338
0.00388858
0.00393135
0.00417278
0.0042314
0.00428744
0.00434072
0.00462213
0.00469421
0.00476333
0.00482927
0.00515817
0.00524652
0.00533144
0.00541265
0.00579821
0.00590626
0.00601027
0.00610988
0.00656327
0.00669519
0.00682223
0.006944
0.0074791
0.00763993
0.00779476
0.00794314
0.00857744
0.00877324
0.00896154
0.00914176
0.00989753
0.0101356
0.0103641
0.0105823
0.0114883
0.0117774
0.0120541
0.0123174
0.0134109
0.0137618
0.0140959
0.0144126
0.0157433
0.0161685
0.016571
0.0169499
0.0185849
0.0190993
0.0195824
0.0200334
0.0220647
0.0226856
0.0232623
0.0237949
0.0263519
0.027098
0.0277811
0.0284027
0.0316719
0.0325614
0.0333599
0.0340725
0.0383302
0.039374
0.0402859
0.0410784
0.0467456
0.0479311
0.0489283
0.0497645
0.0574927
0.0587468
0.0597464
0.060545
0.0713253
0.0724397
0.0732617
0.0738773
0.0890541
0.0895934
0.089943
0.0901813
0.00342984
0.00216274
0.0017813
0.0016315
0.00156114
0.00152328
0.00149802
0.00147256
0.00144118
0.00141207
0.00138209
0.00133651
0.00127377
0.00119237
0.00109841
0.00102305
0.000979418
0.00104434
0.00196281
0.00263266
0.00210036
0.00184158
0.00170919
0.00163692
0.0015954
0.00157034
0.00155296
0.00153913
0.0015316
0.00152857
0.00150363
0.0014395
0.00133596
0.00122095
0.0011344
0.00109667
0.0011907
0.00226813
0.00232354
0.00206247
0.00188824
0.00178132
0.00171833
0.00168284
0.00166582
0.00166132
0.00166501
0.00167616
0.00169459
0.0016795
0.00160143
0.00147819
0.00134679
0.00124922
0.00120913
0.00131149
0.00236898
0.00221115
0.00206806
0.00194081
0.0018547
0.00180327
0.00177666
0.0017709
0.00178207
0.00180335
0.00183145
0.00187055
0.00185485
0.00175227
0.00161935
0.00147481
0.0013693
0.00132863
0.00145696
0.0026889
0.00215951
0.00206698
0.00198121
0.00192502
0.00188457
0.00185968
0.00185948
0.00187846
0.00189592
0.00189649
0.00189836
0.00191344
0.00185962
0.00170213
0.00156631
0.00147285
0.0014499
0.00162434
0.00311455
0.00214124
0.00208765
0.00201999
0.00196592
0.00193049
0.00191258
0.00191366
0.00192513
0.00193183
0.00191251
0.00191184
0.00193146
0.0018697
0.00176702
0.00166169
0.00158391
0.00157293
0.00177205
0.00317216
0.00213872
0.0021016
0.0020431
0.0019986
0.00196942
0.00195267
0.00194863
0.00194142
0.00192839
0.00190977
0.00190502
0.00192305
0.00188184
0.001782
0.00170756
0.00166288
0.00167667
0.00183687
0.00110383
0.00213712
0.00210528
0.00206015
0.00202226
0.00199593
0.00197993
0.00196539
0.0019431
0.00191991
0.00190003
0.00189318
0.00189348
0.00184333
0.00175699
0.00168274
0.00164655
0.00168518
0.00198274
0.00489279
0.0021404
0.00211478
0.0020811
0.00205058
0.0020259
0.00200694
0.0019822
0.00195228
0.00192368
0.00189846
0.00187866
0.00185953
0.0018188
0.00175135
0.00167339
0.00162826
0.00166684
0.0019806
0.001159
0.00215397
0.00213577
0.00211205
0.00208705
0.00206276
0.00203935
0.00200891
0.00197394
0.00193919
0.00190627
0.00187272
0.00183359
0.00178716
0.00173173
0.00166311
0.00161467
0.00163817
0.00191876
0.0048965
0.00217962
0.00216681
0.00214994
0.00212927
0.00210581
0.00208021
0.00204667
0.00200627
0.00196484
0.00192396
0.00188004
0.00182716
0.00176571
0.00170344
0.00164437
0.00160037
0.00160485
0.00179729
0.00115931
0.00222005
0.00221042
0.00219678
0.00217867
0.00215638
0.00212925
0.00209327
0.00204977
0.00200334
0.00195534
0.0019032
0.00184245
0.0017712
0.00169537
0.00163144
0.00158867
0.00158174
0.00170348
0.00115945
0.00227754
0.00227066
0.0022588
0.00224181
0.00221966
0.00219107
0.00215392
0.00210911
0.00205929
0.00200559
0.00194699
0.00188111
0.00180562
0.00172084
0.00164266
0.00158833
0.00157317
0.0016518
0.00115831
0.00235316
0.00234997
0.00234051
0.00232465
0.00230241
0.00227298
0.0022353
0.00218971
0.00213756
0.00207978
0.00201631
0.00194627
0.00186826
0.00178136
0.00169308
0.00162085
0.0015897
0.00164346
0.0011559
0.0024484
0.00245003
0.00244426
0.00243077
0.00240955
0.0023803
0.00234259
0.00229652
0.00224284
0.00218235
0.00211554
0.00204261
0.00196356
0.00187859
0.00179056
0.0017108
0.00166806
0.00171898
0.00115225
0.00256596
0.00257357
0.00257284
0.00256319
0.00254451
0.00251671
0.00247972
0.0024337
0.00237924
0.00231714
0.00224836
0.00217395
0.00209526
0.0020143
0.0019346
0.00186641
0.00184493
0.00196714
0.00112963
0.00270942
0.00272429
0.00272989
0.00272548
0.00271076
0.00268569
0.00265039
0.00260514
0.0025506
0.00248773
0.00241791
0.00234299
0.00226562
0.00218981
0.00212231
0.00207871
0.00210945
0.00237884
0.00473092
0.00288303
0.0029066
0.00291991
0.00292208
0.00291266
0.00289154
0.00285891
0.00281519
0.00276116
0.00269804
0.00262761
0.00255247
0.00247648
0.00240564
0.0023503
0.0023326
0.00241669
0.00283994
0.00513442
0.00309187
0.00312585
0.00314843
0.00315862
0.00315581
0.00313982
0.00311081
0.00306931
0.00301622
0.00295302
0.00288188
0.00280609
0.00273055
0.00266307
0.00261726
0.00262098
0.00274696
0.00327052
0.00635421
0.00334211
0.00338857
0.00342228
0.00344211
0.00344733
0.00343765
0.00341318
0.00337447
0.00332257
0.00325915
0.00318673
0.00310916
0.00303226
0.00296542
0.00292515
0.00294542
0.00311328
0.00375223
0.00762082
0.00364127
0.00370272
0.00374977
0.00378116
0.003796
0.0037939
0.00377489
0.00373953
0.0036889
0.00362484
0.00355016
0.00346912
0.00338831
0.00331841
0.0032783
0.00330659
0.00349982
0.00421906
0.0085994
0.00399848
0.00407796
0.00414102
0.00418622
0.00421255
0.00421947
0.00420693
0.00417543
0.00412608
0.00406077
0.0039825
0.00389588
0.00380804
0.00373071
0.00368459
0.00371106
0.00391376
0.00468356
0.00944339
0.00442488
0.00452602
0.00460826
0.00466995
0.00470994
0.00472754
0.00472261
0.00469555
0.00464743
0.00458015
0.00449678
0.00440214
0.00430389
0.00421446
0.00415583
0.0041721
0.00437429
0.00518488
0.0103185
0.00493394
0.00506108
0.00516624
0.00524757
0.00530375
0.00533396
0.00533795
0.00531602
0.00526913
0.00519914
0.0051091
0.00500396
0.00489161
0.00478517
0.00470801
0.00470752
0.00490424
0.00575999
0.0113396
0.00554201
0.00570027
0.00583273
0.00593734
0.00601261
0.00605766
0.00607212
0.00605619
0.00601069
0.00593734
0.00583909
0.00572083
0.00559069
0.00546246
0.00536126
0.0053389
0.00552864
0.00644422
0.0126183
0.00626891
0.00646428
0.00662908
0.00676109
0.00685878
0.00692121
0.00694797
0.00693914
0.00689541
0.00681825
0.00671039
0.00657659
0.00642512
0.00627054
0.00614019
0.00609159
0.00627437
0.0072683
0.0142074
0.00713857
0.00737801
0.00758093
0.00774503
0.00786883
0.00795149
0.00799264
0.00799232
0.00795103
0.00786997
0.00775153
0.00760019
0.00742425
0.0072391
0.00707469
0.00699548
0.00717081
0.00825859
0.016105
0.00818018
0.00847171
0.00871921
0.00892051
0.00907442
0.0091804
0.0092383
0.00924821
0.0092105
0.00912604
0.00899675
0.00882665
0.00862388
0.00840457
0.00820147
0.00808694
0.00825301
0.00944686
0.0183345
0.00942938
0.00978204
0.0100812
0.0103251
0.0105133
0.0106458
0.010723
0.0107453
0.0107129
0.0106264
0.0104871
0.0102983
0.0100677
0.00981187
0.00956631
0.00941191
0.00956602
0.0108758
0.0209204
0.0109298
0.0113536
0.0117118
0.0120038
0.0122303
0.0123925
0.0124918
0.0125289
0.0125043
0.0124182
0.0122713
0.012066
0.0118089
0.0115167
0.0112271
0.0110301
0.0111714
0.012613
0.0239803
0.0127354
0.0132411
0.0136657
0.0140108
0.0142792
0.0144739
0.0145978
0.0146526
0.0146391
0.0145575
0.0144075
0.0141906
0.0139121
0.0135879
0.0132574
0.01302
0.013155
0.0147674
0.027814
0.0149127
0.0155111
0.016009
0.0164112
0.0167239
0.0169531
0.0171038
0.0171793
0.0171811
0.0171095
0.0169639
0.0167444
0.0164549
0.0161099
0.0157498
0.0154837
0.0156313
0.0174833
0.0327708
0.0175448
0.0182461
0.0188221
0.0192834
0.0196411
0.0199054
0.0200842
0.0201832
0.0202051
0.0201509
0.0200201
0.0198119
0.0195291
0.0191845
0.0188191
0.0185515
0.0187483
0.020935
0.0391433
0.0207355
0.0215472
0.022203
0.022722
0.0231225
0.0234202
0.0236271
0.0237515
0.0237986
0.0237706
0.0236679
0.0234905
0.023241
0.0229318
0.0226049
0.0223882
0.022701
0.0253532
0.0472794
0.0246148
0.0255395
0.0262712
0.0268414
0.0272784
0.0276046
0.0278371
0.0279877
0.0280643
0.0280717
0.0280127
0.0278903
0.0277102
0.0274884
0.0272714
0.0271998
0.0277511
0.0310788
0.0578304
0.029346
0.0303769
0.0311716
0.0317796
0.0322414
0.0325874
0.03284
0.033015
0.0331235
0.033174
0.0331742
0.0331333
0.0330662
0.0330012
0.033001
0.0332322
0.0342471
0.0386172
0.0718005
0.0351332
0.0362476
0.0370801
0.0377034
0.0381719
0.0385241
0.0387876
0.0389816
0.0391209
0.0392186
0.0392891
0.0393528
0.0394423
0.0396138
0.0399727
0.0407513
0.0426306
0.0487236
0.0907801
0.0422288
0.0433799
0.0442087
0.0448144
0.0452646
0.0456048
0.0458655
0.0460688
0.0462323
0.0463737
0.046516
0.0466945
0.0469689
0.047445
0.048317
0.049974
0.0533906
0.0625403
0.117713
0.0509387
0.0520461
0.0528111
0.0533563
0.0537579
0.0540633
0.0543038
0.0545015
0.0546754
0.0548467
0.0550457
0.0553234
0.0557718
0.0565645
0.0580411
0.0609048
0.0668269
0.0816425
0.158511
0.0616189
0.0625648
0.0631903
0.0636261
0.0639455
0.0641913
0.0643906
0.0645629
0.0647256
0.0649003
0.0651201
0.0654446
0.0659889
0.066988
0.068948
0.0730392
0.0823117
0.107228
0.226047
0.0746607
0.0753018
0.0757093
0.0759889
0.0761946
0.0763561
0.0764916
0.0766145
0.0767374
0.0768772
0.0770613
0.0773418
0.0778246
0.0787437
0.0806598
0.0850718
0.0966805
0.135206
0.350331
0.0904635
0.0906784
0.0908111
0.0909021
0.0909703
0.0910257
0.0910745
0.0911213
0.091171
0.0912304
0.0913112
0.091436
0.0916524
0.0920711
0.0929865
0.0953326
0.102908
0.139197
0.580219
)
;

boundaryField
{
    leftWall
    {
        type            epsilonWallFunction;
        value           nonuniform List<scalar> 
50
(
0.000144546
0.000299774
0.000513695
0.000725421
0.000930172
0.00113039
0.00133098
0.00154018
0.00184531
0.00230464
0.00285086
0.0036584
0.00502148
0.00467736
0.00176431
0.00176692
0.00176866
0.00176617
0.00176554
0.00176506
0.007476
0.00176657
0.00176461
0.00176751
0.00176613
0.00176739
0.00176801
0.00176782
0.00176621
0.00176581
0.00176708
0.0017668
0.00746245
0.00176801
0.00176889
0.00748633
0.00747804
0.00749302
0.00176833
0.00748858
0.00749379
0.00176772
0.00749714
0.0074817
0.00747868
0.00747757
0.00748875
0.0147697
0.149121
1.5375
)
;
    }
    rightWall
    {
        type            epsilonWallFunction;
        value           nonuniform List<scalar> 
50
(
0.000167787
0.000244061
0.000400795
0.000588491
0.000804858
0.00104616
0.00130896
0.00160286
0.00196281
0.00226813
0.00236898
0.0026889
0.00311455
0.00317216
0.00110383
0.00489279
0.001159
0.0048965
0.00115931
0.00115945
0.00115831
0.0011559
0.00115225
0.00112963
0.00473092
0.00513442
0.00635421
0.00762082
0.0085994
0.00944339
0.0103185
0.0113396
0.0126183
0.0142074
0.016105
0.0183345
0.0209204
0.0239803
0.027814
0.0327708
0.0391433
0.0472794
0.0578304
0.0718005
0.0907801
0.117713
0.158511
0.226047
0.350331
0.580219
)
;
    }
    lowerWall
    {
        type            epsilonWallFunction;
        value           nonuniform List<scalar> 
62
(
0.000144546
0.000795272
0.00142237
0.0019892
0.00249938
0.00295818
0.00336895
0.00373363
0.0040531
0.00433165
0.00457769
0.00480248
0.00501068
0.00518427
0.00526477
0.00514073
0.00473305
0.00412177
0.00339928
0.00268416
0.00212851
0.00138018
0.000470811
0.000470811
0.000739566
0.00122923
0.00180062
0.00250694
0.0034675
0.00490188
0.00794596
0.00887805
0.00715162
0.00745655
0.00943
0.000672979
0.00068928
0.000924478
0.00119969
0.00163609
0.0022813
0.00337382
0.00605321
0.000672979
0.00221295
0.00339778
0.00401545
0.00439398
0.00457829
0.00471664
0.00478505
0.00455944
0.00387981
0.00307081
0.00233158
0.00194319
0.0020042
0.00213169
0.00199384
0.00138082
0.000825736
0.000167787
)
;
    }
    atmosphere
    {
        type            inletOutlet;
        inletValue      uniform 0.1;
        value           nonuniform List<scalar> 
46
(
0.1
0.125212
0.0177022
0.00676364
0.00476061
0.00432209
0.00438198
0.00470035
0.00521329
0.00591419
0.00682451
0.00798656
0.00946407
0.0113471
0.0137609
0.0168814
0.0209595
0.0263665
0.0336801
0.0438696
0.058734
0.1
0.1
0.1
0.1
0.1
0.1
0.1
0.1
0.1
0.1
0.1
0.1
0.1
0.1
0.1
0.1
0.1
0.1
0.1
0.1
0.1
0.1
0.1
0.1
0.580219
)
;
    }
    defaultFaces
    {
        type            empty;
    }
}


// ************************************************************************* //
