/*--------------------------------*- C++ -*----------------------------------*\
  =========                 |
  \\      /  F ield         | OpenFOAM: The Open Source CFD Toolbox
   \\    /   O peration     | Website:  https://openfoam.org
    \\  /    A nd           | Version:  9
     \\/     M anipulation  |
\*---------------------------------------------------------------------------*/
FoamFile
{
    format      ascii;
    class       volScalarField;
    location    "4.69";
    object      p_rgh;
}
// * * * * * * * * * * * * * * * * * * * * * * * * * * * * * * * * * * * * * //

dimensions      [1 -1 -2 0 0 0 0];

internalField   nonuniform List<scalar> 
2268
(
767.855
767.654
767.432
767.201
766.97
766.747
766.535
766.339
766.157
765.987
765.823
765.655
765.471
765.247
764.945
764.505
763.927
763.2
762.845
762.752
762.969
763.284
763.211
767.906
767.721
767.505
767.282
767.053
766.828
766.61
766.401
766.2
766.006
765.812
765.611
765.388
765.121
764.776
764.313
763.782
763.238
762.729
762.982
763.137
763.337
763.285
767.965
767.792
767.582
767.368
767.142
766.915
766.69
766.468
766.249
766.03
765.807
765.572
765.315
765.017
764.656
764.219
763.661
761.58
760.745
761.441
762.748
763.24
763.303
768.034
767.858
767.649
767.441
767.217
766.989
766.757
766.525
766.291
766.052
765.805
765.547
765.268
764.956
764.609
764.241
763.584
760.305
760.352
759.865
761.256
763.202
763.237
768.11
767.921
767.707
767.498
767.276
767.045
766.808
766.567
766.322
766.069
765.807
765.533
765.243
764.932
764.611
764.321
764.172
761.704
759.832
759.398
762.214
763.193
763.194
768.189
767.982
767.758
767.545
767.321
767.086
766.844
766.597
766.344
766.083
765.811
765.527
765.232
764.925
764.632
764.402
764.425
764.708
760.961
761.158
763.716
763.203
763.178
768.268
768.042
767.805
767.586
767.358
767.118
766.869
766.617
766.36
766.093
765.816
765.527
765.23
764.925
764.648
764.452
764.471
765.016
765.382
765.001
763.898
763.209
763.205
768.348
768.109
767.861
767.634
767.4
767.151
766.894
766.635
766.375
766.106
765.825
765.533
765.231
764.921
764.642
764.449
764.436
764.774
765.004
764.614
763.728
763.111
763.186
757.376
758.52
759.114
759.213
759.064
758.825
758.536
758.222
757.927
757.353
756.243
755.688
753.895
754.136
756.584
757.385
756.819
756.33
757.89
757.212
758.702
759.182
759.395
759.389
759.209
758.901
758.601
758.049
757.274
756.3
756.026
752.899
753.997
756.689
756.796
756.25
756.099
758.173
757.914
758.579
758.958
759.181
759.254
759.215
759.094
758.792
758.168
757.344
755.51
752.141
752.558
755.656
756.82
756.555
756.007
755.675
758.062
757.98
758.498
758.808
759.044
759.155
759.165
759.078
758.513
758.086
757.64
750.61
751.148
751.92
756.208
757.201
756.677
756.013
755.26
755.983
757.644
758.317
758.704
758.963
759.086
759.121
758.878
758.415
758.398
758.501
752.05
750.656
751.17
756.733
757.774
757.072
756.262
755.109
747.656
757.305
758.155
758.644
758.915
759.033
759.085
759.02
758.812
758.996
759.257
759.084
752.218
756.269
759.672
758.426
757.68
751.742
754.89
746.506
756.779
758.119
758.631
758.909
758.958
758.985
759.101
759.289
759.46
759.552
760.857
761.846
762.173
760.161
759.1
758.423
749.354
751.052
746.201
756.147
758.384
758.748
758.97
759.021
758.981
759.059
759.262
759.161
758.199
759.582
762.052
761.901
760.495
759.789
759.628
751.188
743.792
746.155
768.501
768.233
767.965
767.72
767.474
767.206
766.927
766.657
766.396
766.13
765.85
765.554
765.244
764.906
764.594
764.363
764.267
764.332
764.309
763.939
763.265
762.641
762.23
763.173
762.265
761.366
760.584
760.238
759.962
759.743
759.71
759.746
759.911
760.104
759.833
759.381
757.467
755.805
754.661
754.194
754.259
754.141
753.294
751.665
749.76
747.998
327.563
324.106
321.309
319.11
316.608
314.341
312.043
310.566
309.365
307.774
306.104
305.389
305.303
306.359
308.029
309.961
312.607
314.875
315.512
313.488
308.599
302.542
296.769
2.49947
2.36056
2.37702
2.5004
3.08042
3.69008
4.07137
3.60014
3.18783
2.90987
2.74653
2.0869
1.57465
1.52526
1.46605
1.39074
1.21881
1.09978
1.0329
0.9686
0.945651
0.919731
0.840286
2.41721
2.36088
2.19415
2.16803
2.76227
3.45947
5.58664
6.86395
6.89085
6.90317
6.92327
6.92259
6.90716
6.88228
6.84666
6.76547
3.84898
2.86261
2.61415
2.64552
3.11756
3.09433
1.85722
1.95466
2.19674
2.06537
2.03683
2.33342
2.60709
3.03825
2.36519
2.61627
2.8259
2.94733
2.9753
2.71163
2.3633
1.86098
1.5933
2.93242
2.96117
2.95613
1.89344
1.19095
1.24933
0.571219
0.995492
1.04475
1.00963
1.01182
0.879657
0.584654
0.237904
0.153225
0.0288532
-0.000173781
-0.00256062
-0.00314438
-0.00106209
0.00265021
0.00849231
0.0122108
0.0102066
0.0390087
0.0497288
0.28848
0.254243
0.26358
0.505328
0.00282918
0.00194809
0.0030937
0.00257038
0.00179492
0.0127308
0.0264167
0.011175
0.00176113
0.000407476
-0.000211163
0.000149774
0.0031196
0.0066976
0.00668784
0.00849268
0.0103494
0.210833
0.345122
0.351527
0.245844
0.324339
0.70592
0.00211243
0.00194794
0.00261604
0.00260326
0.00212968
0.00172377
0.00135215
0.0016584
0.0015938
0.00109875
0.00075744
0.00351381
0.00863974
0.00989992
0.00504322
0.00585257
0.00617949
0.0248986
0.130982
0.199548
0.235606
0.288639
0.322895
0.00174259
0.00206942
0.00244991
0.00228116
0.00197863
0.00180937
0.00170999
0.00181331
0.00176078
0.00153569
0.00224426
0.00539231
0.00807075
0.00585241
0.0035939
0.00401318
0.00362642
0.001847
-5.2827e-05
-0.000550459
0.00999393
-0.00169625
-0.00359593
0.00152419
0.00191922
0.0021448
0.00194358
0.00177822
0.00172419
0.00170843
0.00176573
0.00308848
0.00543302
0.00539646
0.00389815
0.00179229
0.00215907
0.00264924
0.00278572
0.00239733
0.00147175
0.000693877
0.000769176
-0.000108264
-0.000824598
-0.00172983
0.00138383
0.00150639
0.00161823
0.0016
0.00156848
0.00155991
0.00156999
0.00251458
0.00587808
0.00579701
0.00475395
0.00160656
0.00167135
0.00190334
0.00210019
0.0021077
0.00181099
0.00129338
0.00670266
0.0125441
0.0123165
0.00664554
-0.000236005
0.00130276
0.00132581
0.00134521
0.00135287
0.00135963
0.00137499
0.00139633
0.0023796
0.00354157
0.00301391
0.00158344
0.00143146
0.0015418
0.00164811
0.00170362
0.00163104
0.0013671
0.00131261
0.0103044
0.0135237
0.0132789
0.013054
0.00225564
0.00138965
0.00148651
0.00118834
0.00115698
0.00116739
0.00119983
0.0012416
0.00132381
0.0012094
0.00121907
0.00126043
0.00131801
0.00137842
0.00141636
0.00140436
0.00129504
0.00105358
0.000665684
0.000530173
0.00821055
0.0129296
0.00498221
-0.000430498
0.001568
0.00167305
0.00108311
0.000992117
0.000997559
0.00102339
0.00105358
0.00106761
0.0010858
0.00110979
0.00114414
0.00118266
0.00121237
0.00121818
0.00117637
0.00106046
0.000854051
0.000554523
0.000181499
-0.000198056
-0.000428458
-0.00042922
-0.000215702
0.00168083
0.00163475
0.000986371
0.000854466
0.000847983
0.000864872
0.000892412
0.000922994
0.000952621
0.000982971
0.00101422
0.00104134
0.00105545
0.00104486
0.000994224
0.000888996
0.000722592
0.000499
0.000237967
-7.04541e-06
-0.000164013
-0.00020059
-0.000133663
0.00171907
0.00161533
0.000863326
0.000739956
0.000719148
0.000728998
0.000755286
0.00078865
0.000822894
0.000855659
0.000884494
0.000904998
0.00091088
0.000894089
0.0008452
0.000756656
0.000626877
0.00046237
0.000280083
0.000113083
5.33366e-07
-3.91216e-05
-2.03988e-05
0.00197619
0.00159999
0.000810283
0.000643032
0.000609099
0.000611697
0.000634676
0.000667588
0.00070307
0.000736428
0.000763849
0.000781281
0.000784139
0.000767188
0.000725014
0.000654069
0.000555258
0.000435274
0.000307352
0.000192007
0.000111717
7.76526e-05
8.37553e-05
0.00198661
0.00165763
0.000791233
0.000558491
0.000514701
0.000510867
0.000529956
0.000561008
0.000596015
0.000629276
0.000656348
0.000673391
0.000676888
0.000663495
0.000630335
0.000576196
0.000503026
0.000416681
0.000327
0.000247225
0.000190575
0.000163965
0.00016528
0.00197771
0.00164304
0.000723256
0.000484096
0.000434247
0.000425534
0.000440962
0.000469552
0.000503186
0.000535909
0.000563159
0.000581323
0.000587544
0.00057961
0.000556096
0.000517011
0.00046458
0.00040358
0.000341111
0.000285854
0.000245888
0.000225631
0.000224558
0.00178171
0.00160206
0.000546069
0.000420719
0.000367942
0.000355564
0.000367702
0.000393519
0.000425141
0.000456781
0.000484066
0.000503669
0.000513162
0.000510952
0.000496342
0.000469848
0.000433564
0.000391208
0.000347824
0.00030916
0.000280318
0.000264193
0.00026081
0.0011073
0.000981312
0.000493528
0.000370549
0.000316341
0.000301061
0.000310021
0.000332741
0.000361742
0.000391599
0.000418271
0.000438748
0.000450914
0.000453495
0.000446094
0.000429334
0.000404975
0.000375817
0.000345407
0.000317589
0.000295666
0.000281566
0.000275475
0.000968811
0.000663282
0.000452012
0.000333392
0.000279014
0.000261685
0.000267542
0.000286821
0.000312599
0.0003399
0.000365062
0.000385395
0.000399026
0.000404855
0.000402564
0.000392683
0.000376582
0.000356315
0.000334355
0.000313304
0.000295348
0.000281789
0.000272843
0.000884564
0.00060932
0.00041714
0.000307442
0.000255359
0.000236926
0.00023988
0.000255462
0.000277504
0.000301539
0.000324293
0.000343378
0.000357128
0.000364545
0.000365299
0.000359753
0.00034891
0.000334232
0.00031744
0.000300313
0.000284329
0.000270387
0.000258691
0.00079193
0.000553253
0.000387919
0.000292382
0.000244901
0.000226428
0.000226726
0.000238491
0.000256449
0.000276684
0.000296298
0.000313181
0.000325849
0.000333375
0.000335388
0.000332075
0.000324121
0.000312542
0.000298521
0.000283293
0.000267883
0.000252922
0.000238592
0.000694656
0.000497984
0.000365889
0.000288669
0.000247686
0.000229724
0.000227522
0.000235491
0.000249218
0.000265346
0.00028133
0.000295309
0.000305959
0.000312413
0.000314253
0.000311511
0.000304614
0.000294238
0.000281191
0.000266342
0.000250423
0.000233887
0.000216901
0.000596436
0.000445345
0.000354503
0.000298669
0.000263707
0.00024559
0.000240931
0.000245304
0.000254912
0.000266873
0.000278988
0.000289623
0.000297604
0.000302116
0.000302698
0.000299258
0.000292017
0.000281399
0.000267949
0.000252292
0.000234975
0.000216341
0.000196543
0.000501896
0.00043932
0.000654727
0.000364451
0.000290427
0.000270787
0.000264284
0.00026577
0.000271741
0.000279764
0.000288013
0.000295105
0.000300022
0.000302004
0.000300563
0.000295501
0.000286884
0.000274948
0.000260055
0.000242678
0.000223255
0.000202066
0.000179272
0.000410924
0.00107284
0.00363713
0.00330833
0.000575256
0.000299328
0.000293657
0.00029396
0.000297278
0.00030189
0.000306491
0.000310042
0.000311721
0.000310843
0.000306899
0.000299612
0.000288915
0.000274905
0.000257826
0.000238061
0.00021601
0.000191932
0.000166015
0.00032156
0.00144366
0.00381335
0.00382197
0.00146016
0.000327241
0.000326567
0.000327568
0.000329252
0.000331014
0.000332259
0.000332403
0.00033086
0.000327024
0.000320375
0.000310551
0.000297366
0.000280806
0.000261039
0.000238423
0.000213377
0.000186194
0.00015711
0.000244303
0.00105115
0.00390805
0.00392662
0.00145342
0.0003583
0.000363653
0.000365721
0.000366001
0.000365113
0.000363204
0.000360142
0.000355554
0.000348893
0.000339602
0.000327207
0.000311389
0.000292027
0.000269242
0.00024343
0.000215106
0.000184657
0.000152407
0.000183228
0.000393869
0.0030923
0.00255903
0.000714659
0.000398794
0.000406402
0.000407895
0.00040602
0.000402242
0.000397262
0.000391267
0.000383994
0.000374893
0.000363301
0.000348574
0.000330213
0.000307961
0.000281908
0.000252563
0.000220654
0.000186747
0.000151299
0.000143853
0.000280632
0.000475998
0.000427267
0.00043284
0.000449163
0.000454034
0.000452389
0.000447164
0.000440125
0.000432223
0.000423747
0.000414411
0.000403557
0.000390319
0.000373791
0.000353203
0.000328091
0.000298501
0.000265169
0.000229218
0.000191539
0.000152772
0.000127564
0.000307808
0.000422569
0.000472883
0.000494596
0.000502863
0.00050198
0.000495512
0.000486221
0.000475915
0.000465572
0.000455401
0.000444983
0.000433438
0.000419583
0.000402126
0.000379886
0.000352046
0.000318527
0.000280474
0.000239753
0.000197786
0.000155467
0.000136495
0.000352122
0.000486876
0.000537994
0.000551799
0.000551692
0.000544171
0.000532492
0.000519285
0.000506333
0.000494515
0.000483883
0.0004738
0.000463066
0.000450074
0.000432999
0.000410038
0.000379733
0.000341638
0.000297626
0.000250974
0.000203956
0.000157765
0.00017295
0.000412649
0.000552612
0.00059467
0.000597671
0.000588919
0.000574878
0.000558498
0.000542297
0.000527953
0.000516176
0.00050681
0.000498941
0.000491009
0.000480911
0.000466135
0.000443948
0.000411707
0.000367916
0.000315756
0.000261333
0.000208233
0.000157857
0.000255337
0.000496808
0.000615881
0.000636191
0.000625495
0.000608162
0.000588453
0.000568701
0.000551196
0.000537384
0.000527727
0.000521811
0.000518457
0.000515797
0.000511267
0.00050157
0.000482678
0.000449725
0.00039829
0.000334007
0.000268929
0.00020847
0.000153789
0.000399803
0.000612413
0.000666303
0.000650556
0.000625952
0.00060187
0.000578487
0.000557677
0.000541393
0.000530664
0.000525594
0.000525512
0.000529106
0.000534424
0.000538677
0.00053794
0.000526741
0.000496267
0.000434029
0.000350742
0.000270971
0.000201979
0.000143479
0.00061148
0.000742471
0.000675882
0.000620101
0.000587604
0.000561017
0.000537551
0.000519322
0.000507726
0.000503127
0.000505194
0.000513107
0.000525686
0.000541324
0.00055753
0.000570369
0.000573718
0.000553229
0.000474866
0.000360584
0.000261563
0.000184483
0.000124465
0.000775751
0.000765193
0.000593751
0.000525247
0.00050086
0.000481094
0.000465614
0.000457462
0.000457042
0.000463857
0.000477225
0.000496424
0.000520786
0.000549544
0.000581068
0.000612433
0.000639351
0.000642649
0.000536056
0.000355975
0.00022899
0.000148471
9.33125e-05
0.00103067
0.000699777
0.000458068
0.00038486
0.000378158
0.000381015
0.000391607
0.000410321
0.000435458
0.000465787
0.000500753
0.00054025
0.000584635
0.000634396
0.000689246
0.000750255
0.000825224
0.000890056
0.000731489
0.000352447
0.000167212
9.02023e-05
4.87301e-05
0.000780543
-0.000160611
3.77619e-05
0.000113775
0.000180783
0.000236255
0.000287079
0.000336962
0.000386803
0.000437236
0.000489151
0.000543838
0.000603293
0.000670284
0.000748945
0.000856664
0.00106201
0.00142429
0.00120747
0.000387563
0.000122753
4.29824e-05
1.0712e-05
762.251
761.93
761.594
761.209
747.131
746.659
745.967
744.456
293.118
291.191
289.065
285.669
0.870075
0.894342
0.895424
0.881329
1.66758
2.57132
2.56926
2.07983
0.836481
2.32782
1.85111
1.32855
0.621308
0.738996
0.809581
0.547181
0.852871
0.693452
0.407923
0.0968438
0.338074
0.00635937
0.0134507
0.00452016
-0.00281973
-0.00104833
0.000302446
0.00280163
-0.001231
-0.000465955
0.000208337
0.000485191
-0.000618654
-0.00034689
-1.69049e-05
0.000287859
-0.000362973
-0.000197875
-1.52259e-05
0.000222653
-0.000249862
-0.00012951
-6.6466e-06
0.000146184
8.71992e-06
5.05125e-05
-2.25848e-05
6.47259e-05
4.05137e-06
2.41298e-05
3.21318e-05
8.61088e-05
2.36941e-05
5.53166e-05
9.27367e-05
0.000127653
0.000113159
0.000132917
0.000150579
0.000167436
0.000185835
0.000197275
0.000204785
0.000210421
0.00023823
0.000243376
0.000243679
0.000241571
0.000268261
0.00026868
0.000264212
0.000257295
0.000277361
0.000274427
0.000267154
0.000257704
0.00027007
0.000264874
0.00025615
0.000245642
0.000252195
0.000245444
0.000235988
0.000225128
0.000229077
0.000221108
0.000211145
0.000200082
0.000204754
0.000195642
0.000185099
0.000173686
0.000181914
0.000171608
0.000160297
0.000148281
0.000162219
0.000150647
0.000138378
0.00012551
0.000146613
0.000133733
0.000120365
0.000106446
0.000135478
0.000121291
0.000106738
9.16301e-05
0.000128678
0.000113205
9.74296e-05
8.10628e-05
0.00012558
0.000108853
9.18581e-05
7.42317e-05
0.000125115
0.000107167
8.89954e-05
7.01842e-05
0.000125869
0.000106746
8.74927e-05
6.76597e-05
0.000126211
0.000106003
8.58392e-05
6.52558e-05
0.0001244
0.000103294
8.25143e-05
6.15916e-05
0.000118677
9.7041e-05
7.61282e-05
5.54612e-05
0.000107375
8.58726e-05
6.55836e-05
4.59997e-05
8.9053e-05
6.8833e-05
5.02894e-05
3.28812e-05
6.24333e-05
4.55658e-05
3.04376e-05
1.65712e-05
2.61303e-05
1.5191e-05
6.02478e-06
-2.17935e-06
-3.35195e-06
-9.54441e-06
-1.43746e-05
-1.83881e-05
758.492
759.118
759.067
759.158
756.134
752.181
750.975
752.047
754.819
758.53
761.02
761.763
761.74
761.014
760.83
761
752.955
745.206
753.585
738.592
737.969
736.123
734.334
733.975
732.789
728.106
721.193
718.836
723.665
731.744
737.397
735.585
726.169
720.155
727.259
749.553
753.552
753.453
277.404
278.72
284.759
292.886
301.973
311.854
322.329
330.713
331.213
325.466
318.995
314.984
314.427
316.859
318.254
317.284
316.843
325.674
324.938
0.842917
0.850904
0.837236
0.806673
0.873211
0.949051
0.927993
0.896791
0.898369
0.923461
1.19732
1.50528
1.51812
1.55486
2.01054
1.57491
1.09697
1.02382
1.05059
0.920449
0.977548
1.01636
0.927301
1.3616
2.18719
1.9742
1.70747
1.63332
1.54951
1.50198
1.49301
1.48789
1.48889
1.955
1.29339
1.06706
1.0518
1.05309
1.1848
1.47026
1.46919
0.952226
1.89109
2.31051
2.30576
2.30752
2.30733
2.30819
2.30645
2.19811
2.10216
2.1257
2.12568
2.08859
1.75632
1.42971
1.42164
1.36036
1.47581
1.47313
1.47646
1.23822
0.68954
0.475704
0.532843
0.51276
0.505991
0.489849
0.518442
0.543154
0.524249
0.576647
0.746152
0.967323
0.935413
1.03631
0.370814
0.457252
0.371003
0.475446
0.0963128
0.0109973
0.0129599
0.0138217
0.0168007
0.0197206
0.0218236
0.0229643
0.0234437
0.024207
0.0207093
0.127572
0.0287962
0.0477771
0.116553
0.00223525
-0.00087747
-0.000731937
0.000181805
0.00467642
0.00840595
0.0111688
0.0135438
0.0195617
0.0537108
0.0874008
0.087172
0.0619907
0.0258503
0.0167622
0.0140402
0.0138311
0.0133106
0.0118874
0.00121886
0.000342016
0.000705393
0.00216798
0.00491745
0.00757223
0.00954179
0.0122822
0.0722146
0.127853
0.127444
0.127726
0.0547571
0.0168483
0.0161217
0.0145877
0.0137117
0.0129401
0.0120547
0.00082702
0.000807868
0.00148284
0.00621024
0.0165303
0.015776
0.00888657
0.0324135
0.131013
0.130611
0.0811247
0.034013
0.0409393
0.0662259
0.0571497
0.0414207
0.0250303
0.0127997
0.0119536
0.00069698
0.000916758
0.00313643
0.0328031
0.045362
0.0361446
0.0126363
0.078287
0.133957
0.0649136
0.0152817
0.0445117
0.0928912
0.0933865
0.0933057
0.0934818
0.0938361
0.0610294
0.0194584
0.000553074
0.000736784
0.00965835
0.0455721
0.0461912
0.0467172
0.0423515
0.0246223
0.0207202
0.00148924
0.0153253
0.0936032
0.0941674
0.093002
0.0376995
0.0264113
0.0275398
0.0338539
0.0387471
0.00036503
0.000494254
0.0014128
0.0292231
0.0471292
0.0265121
0.00275422
0.000847995
0.000493831
0.00108882
0.00393698
0.0360067
0.0505999
0.0068242
0.00389721
0.00495173
0.00578154
0.0141724
0.0392699
0.000262316
0.000436983
0.000488011
0.000879218
0.00233875
0.00137693
0.000583116
0.000669757
0.00064547
0.00118117
0.00203079
0.00116181
0.00112159
0.00220243
0.00323865
0.00393404
0.00610294
0.0348714
0.042685
0.000243222
0.000364684
0.000296062
7.53083e-05
4.51882e-05
0.000207864
0.00048228
0.000599709
0.000662033
0.000858713
0.000989067
0.00094761
0.00123304
0.00187196
0.00245854
0.00272941
0.00370042
0.0290515
0.0425631
0.00017902
0.000192755
0.000325813
0.000838427
0.000879774
0.000481442
0.000447817
0.000548364
0.000623261
0.00074011
0.000842713
0.000917078
0.00112155
0.00146309
0.00170666
0.0016504
0.00113724
0.00194917
0.0428149
0.000195882
0.000204519
0.000283492
0.000885684
0.000993761
0.00109555
0.00100989
0.00052772
0.000562305
0.000645728
0.000725611
0.000794862
0.00091426
0.00106727
0.00110339
0.000878237
0.000299667
-0.000688911
0.0121482
0.000221132
0.000222873
0.000213106
0.000273283
0.000704236
0.00112274
0.00110568
0.000602132
0.000496662
0.000630842
0.000776552
0.000740906
0.000719171
0.000738423
0.000676389
0.000416283
-7.84553e-05
-0.000724521
-0.000945681
0.000239884
0.000235525
0.000227688
0.000220876
0.000239442
0.000324057
0.000393431
0.000394919
0.000513226
0.000684422
0.000711773
0.000732876
0.00058918
0.000485137
0.000397546
0.000182116
-0.000164588
-0.000526699
-0.000577962
0.000247734
0.000238101
0.000228652
0.000221698
0.000224447
0.00023964
0.000262702
0.000285757
0.000308209
0.000382154
0.000468389
0.000452897
0.000344334
0.000297445
0.000223576
8.49066e-05
-0.000106806
-0.000279901
-0.000267614
0.000243691
0.000229606
0.000216791
0.000206155
0.000200929
0.000202107
0.000206943
0.000210988
0.00021085
0.000206322
0.000198403
0.000188289
0.000175572
0.000154055
0.000116857
6.65402e-05
2.35285e-05
4.9751e-06
3.7511e-05
0.000229351
0.000211499
0.000194599
0.00017882
0.000165466
0.000154714
0.000144885
0.000133501
0.000118786
0.000100928
8.13739e-05
6.24528e-05
4.70019e-05
3.77456e-05
4.1953e-05
8.11339e-05
0.000188227
0.000313231
0.000410794
0.000207624
0.000186417
0.000165216
0.000143855
0.000122744
0.000101697
7.9635e-05
5.52132e-05
2.77003e-05
-2.22895e-06
-3.24631e-05
-5.92917e-05
-7.69744e-05
-7.64911e-05
-4.07405e-05
6.61911e-05
0.000295319
0.0008304
0.00422132
0.000181644
0.000157218
0.000131707
0.000104798
7.64734e-05
4.63828e-05
1.37738e-05
-2.20777e-05
-6.13076e-05
-0.000102908
-0.000144378
-0.00018127
-0.000206736
-0.000208987
-0.000168159
-4.97363e-05
0.000205502
0.00220861
0.0429287
0.000154166
0.000126485
9.67299e-05
6.45047e-05
2.95427e-05
-8.60896e-06
-5.05643e-05
-9.67679e-05
-0.000147119
-0.000200563
-0.000254684
-0.000305287
-0.000345826
-0.000366362
-0.000351233
-0.000273411
-9.73079e-05
0.00237103
0.0497174
0.000127373
9.63472e-05
6.24623e-05
2.52269e-05
-1.58115e-05
-6.12158e-05
-0.000111599
-0.000167359
-0.000228419
-0.000293924
-0.000361918
-0.000429018
-0.000490116
-0.000538097
-0.000562842
-0.00054967
-0.000490842
-9.50055e-05
0.0508769
0.000102895
6.84698e-05
3.06145e-05
-1.12845e-05
-5.78526e-05
-0.000109789
-0.000167803
-0.000232398
-0.000303688
-0.000381179
-0.000463522
-0.000548317
-0.000632002
-0.000709903
-0.000776543
-0.000827057
-0.00085885
-0.000871343
0.0521447
8.18519e-05
4.40552e-05
2.45036e-06
-4.37192e-05
-9.52537e-05
-0.000153013
-0.000217869
-0.000290519
-0.000371354
-0.000460293
-0.000556584
-0.000658666
-0.000764099
-0.000869653
-0.000972219
-0.00107051
-0.00115459
-0.00115764
0.0482281
6.48675e-05
2.38283e-05
-2.12233e-05
-7.11976e-05
-0.000127075
-0.000189894
-0.000260728
-0.000340513
-0.000429952
-0.000529358
-0.000638468
-0.000756269
-0.000880817
-0.00100909
-0.00113776
-0.00126378
-0.00136413
-0.00131981
0.0325467
5.20557e-05
8.0191e-06
-4.00669e-05
-9.32713e-05
-0.000152759
-0.000219764
-0.000295576
-0.000381401
-0.000478256
-0.000586815
-0.000707175
-0.00083859
-0.000979084
-0.00112498
-0.00127149
-0.00141288
-0.00151644
-0.00142292
0.0353524
4.30392e-05
-3.61519e-06
-5.41801e-05
-0.000109892
-0.000172108
-0.000242263
-0.000321886
-0.00041246
-0.000515329
-0.000631501
-0.00076134
-0.000904143
-0.00105748
-0.00121639
-0.0013739
-0.00152141
-0.00162157
-0.00151001
0.0362909
3.70266e-05
-1.1702e-05
-6.40157e-05
-0.000121332
-0.000185207
-0.000257291
-0.000339356
-0.000433188
-0.00054048
-0.00066259
-0.000800122
-0.00095226
-0.00111565
-0.00128291
-0.00144203
-0.0015744
-0.00162738
-0.00144379
0.00437662
3.29498e-05
-1.71126e-05
-7.02422e-05
-0.000128056
-0.000192321
-0.000264903
-0.000347828
-0.000443215
-0.00055316
-0.000679472
-0.000823133
-0.000983341
-0.00115578
-0.00132998
-0.00148615
-0.00158781
-0.00155217
-0.00122359
-0.000584065
2.96324e-05
-2.07922e-05
-7.35835e-05
-0.00013058
-0.000193758
-0.000265195
-0.000347173
-0.000442167
-0.00055277
-0.000681437
-0.000829915
-0.000998079
-0.0011817
-0.00136859
-0.0015329
-0.00162218
-0.0015257
-0.00109388
0.0113726
2.59584e-05
-2.35922e-05
-7.46657e-05
-0.000129333
-0.000189762
-0.000258211
-0.00033719
-0.000429537
-0.000538421
-0.00066719
-0.000818891
-0.000995246
-0.00119417
-0.00140496
-0.00160099
-0.00172223
-0.00163798
-0.0011759
0.0201103
2.10261e-05
-2.6128e-05
-7.39008e-05
-0.000124574
-0.000180458
-0.000243911
-0.000317596
-0.000404659
-0.00050885
-0.000634571
-0.000786697
-0.000970117
-0.00118741
-0.00143378
-0.00168875
-0.00189288
-0.00189791
-0.00145163
0.0203882
1.42849e-05
-2.86719e-05
-7.14206e-05
-0.00011637
-0.000165861
-0.000222221
-0.000288122
-0.000366853
-0.000462603
-0.000580768
-0.000728335
-0.000914299
-0.00114826
-0.00143687
-0.00177519
-0.00211897
-0.00230002
-0.00190077
0.0194304
5.67015e-06
-3.10458e-05
-6.69944e-05
-0.000104531
-0.000145838
-0.000193018
-0.000248525
-0.000315506
-0.000398211
-0.000502599
-0.000637369
-0.000815526
-0.00105497
-0.00137882
-0.0018129
-0.00236033
-0.00286006
-0.00255394
0.0170476
-4.22654e-06
-3.24489e-05
-5.98379e-05
-8.83828e-05
-0.000119839
-0.000155837
-0.000198311
-0.000249838
-0.00031409
-0.000396604
-0.000506317
-0.000658018
-0.000875397
-0.00119841
-0.00169409
-0.00244893
-0.00353499
-0.00350483
0.0162908
-1.41603e-05
-3.1836e-05
-4.93098e-05
-6.77092e-05
-8.80606e-05
-0.000111284
-0.000138494
-0.000171228
-0.000211783
-0.000263864
-0.000333969
-0.000434073
-0.000586155
-0.000833654
-0.00126232
-0.00218602
-0.00408132
-0.00484979
0.014472
-2.38636e-05
-3.24986e-05
-4.12653e-05
-5.05741e-05
-6.06781e-05
-7.17774e-05
-8.41288e-05
-9.81052e-05
-0.000114311
-0.000133865
-0.000159143
-0.000195712
-0.000256917
-0.000374665
-0.000621942
-0.00132413
-0.00356169
-0.00661337
0.00454162
)
;

boundaryField
{
    leftWall
    {
        type            fixedFluxPressure;
        gradient        uniform 0;
        value           nonuniform List<scalar> 
50
(
767.855
767.906
767.965
768.034
768.11
768.189
768.268
768.348
768.501
763.173
327.563
2.49947
2.41721
1.95466
0.995492
0.00282918
0.00211243
0.00174259
0.00152419
0.00138383
0.00130276
0.00138965
0.001568
0.00168083
0.00171907
0.00197619
0.00198661
0.00197771
0.00178171
0.0011073
0.000968811
0.000884564
0.00079193
0.000694656
0.000596436
0.000501896
0.000410924
0.00032156
0.000244303
0.000183228
0.000143853
0.000127564
0.000136495
0.00017295
0.000255337
0.000399803
0.00061148
0.000775751
0.00103067
0.000780543
)
;
    }
    rightWall
    {
        type            fixedFluxPressure;
        gradient        uniform 0;
        value           nonuniform List<scalar> 
50
(
757.89
758.173
758.062
755.983
747.656
746.506
746.201
746.155
753.585
753.453
324.938
1.05059
1.05309
1.42164
1.03631
0.116553
0.0118874
0.0120547
0.0119536
0.0194584
0.0387471
0.0392699
0.042685
0.0425631
0.0428149
0.0121482
-0.000945681
-0.000577962
-0.000267614
3.7511e-05
0.000410794
0.00422132
0.0429287
0.0497174
0.0508769
0.0521447
0.0482281
0.0325467
0.0353524
0.0362909
0.00437662
-0.000584065
0.0113726
0.0201103
0.0203882
0.0194304
0.0170476
0.0162908
0.014472
0.00454162
)
;
    }
    lowerWall
    {
        type            fixedFluxPressure;
        gradient        uniform 0;
        value           nonuniform List<scalar> 
62
(
767.855
767.654
767.432
767.201
766.97
766.747
766.535
766.339
766.157
765.987
765.823
765.655
765.471
765.247
764.945
764.505
763.927
763.2
762.845
762.752
762.969
763.284
763.211
763.211
763.285
763.303
763.237
763.194
763.178
763.205
763.186
762.251
761.93
761.594
761.209
757.376
757.212
757.914
757.98
757.644
757.305
756.779
756.147
757.376
758.52
759.114
759.213
759.064
758.825
758.536
758.222
757.927
757.353
756.243
755.688
753.895
754.136
756.584
757.385
756.819
756.33
757.89
)
;
    }
    atmosphere
    {
        type            totalPressure;
        rho             rho;
        psi             none;
        gamma           1;
        p0              uniform 0;
        value           nonuniform List<scalar> 
46
(
-0.00013921
0
0
0
0
0
0
0
0
0
0
0
0
0
0
0
0
0
-4.7605e-08
-1.08669e-06
-3.60077e-06
-7.31455e-06
-1.18636e-05
-1.55395e-05
-1.80392e-05
-2.06038e-05
-2.32203e-05
-2.77588e-05
-3.42321e-05
-4.08476e-05
-4.75628e-05
-5.43541e-05
-6.12036e-05
-6.80848e-05
-7.49446e-05
-8.16826e-05
-8.8125e-05
-9.39911e-05
-9.88448e-05
-0.000102004
-0.000102334
-9.77334e-05
-8.37323e-05
-5.13785e-05
-3.79406e-07
0
)
;
    }
    defaultFaces
    {
        type            empty;
    }
}


// ************************************************************************* //
