/*--------------------------------*- C++ -*----------------------------------*\
  =========                 |
  \\      /  F ield         | OpenFOAM: The Open Source CFD Toolbox
   \\    /   O peration     | Website:  https://openfoam.org
    \\  /    A nd           | Version:  9
     \\/     M anipulation  |
\*---------------------------------------------------------------------------*/
FoamFile
{
    format      ascii;
    class       volScalarField;
    location    "2.13";
    object      nut;
}
// * * * * * * * * * * * * * * * * * * * * * * * * * * * * * * * * * * * * * //

dimensions      [0 2 -1 0 0 0 0];

internalField   nonuniform List<scalar> 
2268
(
3.5919e-05
4.21585e-05
5.29769e-05
6.07844e-05
6.6912e-05
7.19624e-05
7.62467e-05
7.99583e-05
8.32306e-05
8.61415e-05
8.87263e-05
9.09894e-05
9.29184e-05
9.44995e-05
9.57134e-05
9.64596e-05
9.65632e-05
9.56121e-05
9.30909e-05
8.92351e-05
8.25596e-05
6.97627e-05
4.45915e-05
8.03751e-05
0.000374988
0.000529783
0.000632322
0.000707418
0.000765318
0.00081173
0.000850279
0.000883106
0.000911405
0.00093579
0.000956581
0.000973953
0.000987704
0.000996434
0.000999103
0.00099338
0.000971395
0.000923501
0.000868586
0.000792888
0.000602385
0.000146971
9.58116e-05
0.000660283
0.00101314
0.00124997
0.00142207
0.00155296
0.00165598
0.00173958
0.00180903
0.00186736
0.00191625
0.00195662
0.00198899
0.0020131
0.00202676
0.00202687
0.00200756
0.00195653
0.0018589
0.00171988
0.00149501
0.00102876
0.000176717
0.000108439
0.000870608
0.00140089
0.00176309
0.00202825
0.00223018
0.00238853
0.00251589
0.0026203
0.00270661
0.00277767
0.00283515
0.00287994
0.00291171
0.00292771
0.00292291
0.00288837
0.00280865
0.00266362
0.00243589
0.00205292
0.00134084
0.000201843
0.000119814
0.00103306
0.00171499
0.00218602
0.002533
0.00279825
0.00300636
0.00317311
0.00330876
0.00341974
0.00350998
0.00358194
0.00363687
0.0036744
0.00369122
0.00368077
0.00363175
0.00352614
0.00333831
0.00303056
0.00250697
0.00158165
0.000226345
0.000130241
0.00116583
0.00197569
0.00253965
0.0029568
0.00327667
0.00352785
0.00372872
0.00389126
0.00402319
0.00412948
0.00421332
0.00427637
0.00431818
0.00433496
0.00431899
0.00425739
0.00413035
0.00390761
0.00353652
0.002901
0.00179467
0.00025107
0.00014012
0.00127925
0.00219742
0.00284097
0.00331812
0.00368455
0.00397236
0.00420209
0.00438716
0.00453638
0.00465566
0.00474895
0.00481828
0.00486316
0.00487943
0.0048586
0.00478698
0.00464407
0.00439692
0.00398381
0.0032724
0.00201631
0.000281642
0.000149832
0.00137934
0.0023905
0.00310303
0.00363188
0.00403796
0.00435664
0.00461041
0.00481395
0.00497702
0.00510646
0.00520696
0.00528096
0.00532793
0.00534346
0.00531866
0.00523985
0.00508712
0.0048272
0.00439583
0.0036557
0.00230771
0.000334428
4.73318e-05
6.83067e-05
8.18659e-05
8.71108e-05
8.84954e-05
8.78162e-05
8.43867e-05
7.81346e-05
7.056e-05
6.74444e-05
6.71007e-05
6.61879e-05
6.40733e-05
6.21945e-05
6.21384e-05
6.11743e-05
5.6044e-05
4.64579e-05
5.14508e-05
0.000158666
0.000499388
0.000670982
0.000748206
0.000773902
0.000764062
0.000724719
0.000628205
0.000548181
0.000550614
0.000589505
0.000613697
0.000605102
0.000590409
0.000600676
0.000579415
0.000510175
0.000369338
0.000112509
0.000178699
0.000845123
0.00118685
0.00135609
0.0014214
0.00141391
0.00134644
0.00120067
0.00107723
0.00107907
0.00113743
0.00117107
0.00115979
0.00113798
0.00112241
0.0010547
0.000895651
0.000607907
0.000128342
0.000192426
0.00109656
0.00157624
0.00182658
0.00193372
0.00193971
0.00186637
0.00170881
0.00157227
0.00156138
0.00161159
0.00163531
0.00161126
0.00156799
0.00150982
0.00138583
0.00115018
0.000756556
0.000140755
0.000205012
0.00130004
0.00188896
0.00220484
0.00234999
0.00237497
0.00230757
0.00216033
0.00202874
0.00200092
0.00202794
0.00202996
0.00198362
0.00190874
0.00180216
0.00161977
0.00131867
0.000847293
0.000150711
0.00022125
0.00148449
0.00216018
0.00252492
0.00270113
0.00274697
0.00269228
0.00256567
0.00244732
0.00240363
0.00240126
0.0023749
0.0023002
0.00218834
0.00203114
0.00179007
0.00142906
0.000899335
0.000158655
0.000248934
0.00167168
0.00241417
0.00280983
0.00300838
0.00307244
0.0030352
0.0029332
0.00283054
0.00277376
0.00274139
0.00268386
0.00257773
0.00242664
0.00221846
0.00191876
0.00149852
0.000921532
0.000164727
0.00030464
0.00189066
0.00266918
0.00307497
0.00328651
0.00336483
0.0033468
0.00326948
0.00318177
0.00311476
0.00305501
0.00296664
0.00282827
0.00263788
0.00237954
0.00202124
0.00154045
0.000920684
0.000168942
0.000164867
0.00152346
0.00266128
0.00346789
0.0040665
0.00452518
0.00488409
0.00516868
0.00539532
0.00557521
0.00571664
0.00582549
0.00590475
0.00595385
0.00596808
0.00593865
0.00585309
0.00569428
0.0054317
0.00500726
0.0043178
0.00321902
0.00167679
0.000186397
0.00170067
0.00297546
0.00388525
0.00455697
0.0050668
0.00546224
0.00577321
0.0060179
0.00620923
0.00635761
0.00647041
0.00655124
0.00659961
0.00661162
0.00658021
0.00649616
0.0063494
0.00611597
0.00575228
0.00519223
0.00435806
0.00326166
0.000210639
0.00188306
0.00328091
0.00427887
0.00500489
0.00554621
0.00596129
0.00628586
0.00653831
0.00673248
0.00688094
0.00699189
0.00706867
0.00711129
0.00711958
0.00709131
0.00701896
0.00689605
0.00669886
0.00639396
0.00594237
0.00531258
0.00455297
0.000244758
0.00207424
0.0036136
0.00469094
0.00544977
0.00599712
0.00641178
0.00673929
0.00699311
0.00718389
0.00732772
0.00743177
0.00749652
0.00752345
0.00752396
0.00751273
0.00747327
0.00737593
0.00720441
0.00693276
0.00655055
0.00605634
0.00549817
0.000308794
0.00226911
0.00397258
0.00510529
0.00586513
0.00639525
0.00678451
0.00708901
0.00732197
0.00749369
0.0076292
0.00773306
0.00778435
0.0077876
0.00777012
0.00777858
0.00777372
0.00773442
0.00759649
0.00735396
0.00700222
0.00657443
0.00612802
0.000309379
0.00229689
0.00411772
0.00533327
0.00612281
0.00665485
0.0070263
0.00729954
0.00750991
0.00767491
0.00780226
0.00789677
0.00794768
0.00795572
0.00794404
0.00793339
0.00793565
0.00793134
0.00783484
0.00762709
0.00731436
0.00694548
0.0065868
0.000298108
0.00227191
0.00415863
0.00543732
0.00626434
0.00681653
0.00719115
0.00745428
0.00765001
0.00780671
0.00792955
0.00801741
0.00806899
0.00808741
0.00808431
0.00807018
0.00808944
0.00809853
0.00801992
0.00783252
0.00754836
0.00723469
0.00696428
0.000284796
0.00215114
0.00409589
0.00541453
0.00630395
0.00689056
0.00728155
0.00755007
0.00774297
0.00789009
0.00800583
0.00809549
0.00815582
0.00818655
0.00819076
0.00818354
0.00819644
0.00821824
0.00817714
0.00801751
0.00775741
0.00749879
0.00728205
0.000275018
0.00214298
0.00398692
0.00531404
0.00624823
0.00687723
0.00729951
0.00758722
0.00778861
0.00793569
0.00804801
0.00813637
0.00820388
0.00824397
0.0082556
0.0082541
0.00825865
0.00827019
0.00824818
0.00813565
0.00793422
0.00773059
0.00754499
0.000269486
0.00212193
0.00385876
0.00517345
0.00612588
0.00679172
0.00725105
0.0075675
0.00778792
0.00794529
0.00806186
0.00815135
0.0082197
0.00826559
0.00828783
0.00829458
0.00829902
0.00830004
0.00827332
0.00819172
0.00805542
0.00790332
0.00775424
0.000261161
0.00202746
0.00370391
0.00499965
0.00596126
0.00665477
0.00714749
0.00749534
0.00774128
0.00791707
0.00804543
0.00814154
0.00821386
0.00826525
0.00829709
0.0083144
0.00832396
0.00832341
0.00829811
0.00823345
0.00813227
0.00801893
0.00790266
0.000249673
0.00190581
0.00352141
0.0047957
0.00576266
0.00647856
0.00700104
0.00737955
0.00765321
0.00785173
0.00799705
0.00810474
0.00818496
0.00824364
0.00828474
0.00831248
0.00833006
0.00833439
0.00831584
0.0082664
0.00818944
0.00810103
0.00801112
0.000236305
0.00175969
0.00331527
0.00456822
0.0055382
0.00627255
0.00682127
0.00722842
0.00752961
0.00775239
0.00791756
0.00804047
0.0081322
0.00820058
0.00825139
0.00828912
0.00831581
0.00832877
0.00832136
0.00828879
0.00823418
0.00816866
0.00810084
0.000223656
0.00159932
0.00309506
0.00432766
0.00529736
0.00604579
0.00661675
0.00704962
0.00737682
0.00762382
0.00781013
0.00795062
0.00805666
0.00813706
0.00819868
0.00824654
0.0082829
0.0083062
0.00831217
0.00829778
0.00826526
0.00822215
0.00817424
0.000211996
0.00147699
0.0028919
0.00408625
0.00505037
0.00580713
0.00639552
0.00685041
0.00720127
0.0074715
0.00767924
0.00783868
0.00796106
0.00805548
0.00812933
0.00818808
0.00823466
0.00826893
0.0082886
0.00829186
0.00828004
0.0082578
0.00822723
0.000201669
0.0013921
0.00272626
0.00386976
0.00480896
0.00556431
0.006165
0.00663748
0.00700906
0.00730095
0.00752975
0.00770879
0.00784888
0.00795898
0.00804654
0.00811732
0.00817488
0.00822033
0.00825299
0.00827203
0.00827817
0.00827303
0.00825804
0.000192884
0.00133367
0.00259401
0.00368178
0.00458788
0.00533009
0.00593193
0.00641646
0.00680564
0.00711732
0.0073663
0.00756506
0.00772373
0.00785081
0.00795352
0.00803761
0.0081071
0.00816399
0.00820879
0.00824147
0.00826237
0.00827113
0.00826947
0.000185502
0.00128941
0.00248539
0.00351817
0.00438699
0.00510948
0.00570589
0.00619581
0.00659721
0.0069254
0.00719317
0.00741136
0.00758909
0.00773415
0.00785327
0.00795199
0.00803446
0.00810328
0.00815976
0.00820445
0.00823705
0.00825769
0.00826736
0.000179165
0.00125049
0.00239067
0.00337233
0.00420339
0.00490292
0.00548949
0.0059801
0.00638978
0.00673142
0.00701591
0.0072525
0.00744913
0.00761267
0.00774914
0.00786364
0.00796021
0.00804167
0.00810977
0.00816543
0.0082084
0.00823932
0.00825869
0.000173472
0.00121197
0.0023025
0.00323798
0.00403328
0.00470933
0.00528402
0.00577252
0.0061877
0.00654044
0.00683986
0.00709375
0.00730882
0.00749093
0.0076453
0.00777643
0.00788802
0.00798287
0.00806291
0.0081292
0.00818208
0.0082223
0.00825019
0.000168077
0.0011715
0.00221625
0.00311037
0.00387332
0.00452746
0.00509031
0.00557576
0.00599507
0.00635746
0.00667057
0.00694083
0.00717378
0.0073743
0.00754676
0.00769497
0.00782221
0.00793108
0.00802355
0.00810054
0.00816312
0.00821203
0.00824762
0.000162717
0.0011282
0.00212959
0.00298683
0.00372163
0.00435688
0.00490963
0.00539274
0.00581616
0.00618778
0.00651396
0.00679996
0.00705027
0.00726885
0.00745922
0.00762455
0.00776763
0.00789075
0.00799574
0.00808366
0.00815579
0.00821295
0.00825559
0.000157212
0.00108239
0.00204237
0.00286707
0.00357839
0.00419876
0.00474443
0.00522719
0.00565587
0.00603718
0.00637641
0.00667781
0.00694497
0.00718101
0.00738876
0.00757076
0.00772932
0.00786643
0.00798371
0.00808234
0.00816362
0.0082285
0.00827754
0.000151481
0.00103569
0.00195671
0.00275343
0.00344633
0.00405648
0.00459888
0.00508413
0.00551993
0.00591195
0.00626453
0.00658109
0.00686446
0.00711708
0.00734119
0.00753883
0.0077119
0.00786211
0.0079909
0.00809949
0.00818919
0.00826102
0.00831567
0.000145561
0.000991069
0.00187712
0.00265101
0.00333091
0.00393582
0.00447908
0.00496992
0.00541489
0.00581869
0.00618484
0.00651606
0.0068146
0.00708241
0.00732128
0.00753289
0.00771885
0.00788063
0.00801955
0.00813684
0.0082338
0.00831152
0.00837082
0.000139626
0.0009527
0.00181018
0.00256739
0.00324001
0.00384462
0.00439262
0.00489178
0.0053475
0.00576359
0.00614291
0.00648765
0.00679967
0.00708059
0.00733194
0.00755519
0.00775175
0.00792298
0.00807012
0.00819439
0.0082971
0.00837941
0.00844221
0.000133999
0.000925183
0.00176359
0.00251156
0.00318282
0.00379158
0.00434737
0.00485654
0.00532347
0.00575126
0.0061423
0.00649846
0.0068214
0.00711259
0.00737346
0.0076054
0.00780976
0.00798785
0.00814088
0.0082701
0.00837682
0.00846224
0.00852733
0.000129109
0.000912396
0.00174443
0.00249189
0.00316761
0.00378406
0.0043493
0.00486862
0.00534567
0.00578316
0.00618322
0.00654767
0.00687811
0.00717605
0.00744296
0.00768025
0.00788928
0.00807139
0.00822779
0.00835977
0.00846868
0.00855572
0.0086219
0.000125393
0.000916251
0.00175691
0.00251337
0.00319883
0.00382518
0.00439987
0.00492777
0.00541233
0.0058562
0.00626158
0.00663039
0.00696438
0.0072652
0.00753443
0.00777359
0.00798413
0.00816741
0.0083247
0.00845732
0.00856665
0.00865391
0.00872011
0.000123165
0.000936027
0.00180049
0.00257506
0.0032744
0.00391138
0.00449405
0.0050277
0.00551616
0.0059624
0.00636892
0.00673794
0.00707146
0.00737135
0.00763936
0.00787713
0.00808623
0.00826809
0.008424
0.00855536
0.00866357
0.00874982
0.00881516
0.000122547
0.000968738
0.00186945
0.00266915
0.00338487
0.00403201
0.00462039
0.00515655
0.00564518
0.00608989
0.00649369
0.00685918
0.00718867
0.0074843
0.00774803
0.00798165
0.00818683
0.00836508
0.00851772
0.00864624
0.00875203
0.00883631
0.00890009
0.000123479
0.00101027
0.00195428
0.00278267
0.00351542
0.00417154
0.00476345
0.00529941
0.00578526
0.00622543
0.00662351
0.00698256
0.00730528
0.00759408
0.00785115
0.00807846
0.0082778
0.00845072
0.00859864
0.0087231
0.0088255
0.00890704
0.00896873
0.000125805
0.00105647
0.0020444
0.00290112
0.00364998
0.00431385
0.00490786
0.00544202
0.00592337
0.00635718
0.00674766
0.00709838
0.00741245
0.00769262
0.00794135
0.00816082
0.00835291
0.00851929
0.00866145
0.00878098
0.00887925
0.00895745
0.00901663
0.000129325
0.00110361
0.00213064
0.00301229
0.00377543
0.00444617
0.00504179
0.00557375
0.00605008
0.00647681
0.0068588
0.00720015
0.00750445
0.00777486
0.00801415
0.00822474
0.00840869
0.00856772
0.00870349
0.00881752
0.00891113
0.00898554
0.00904183
0.000133814
0.00114848
0.0022066
0.0031083
0.00388373
0.00456096
0.00515854
0.00568877
0.00616041
0.00658014
0.00695344
0.00728502
0.00757899
0.00783899
0.00806817
0.00826926
0.00844457
0.0085959
0.00872499
0.00883325
0.0089219
0.00899216
0.00904519
0.000139
0.00118852
0.00226871
0.00318562
0.00397172
0.0046556
0.00525598
0.00578545
0.00625317
0.00666641
0.00703126
0.00735308
0.00763658
0.00788589
0.00810464
0.008296
0.00846257
0.00860634
0.00872896
0.00883156
0.00891517
0.00898101
0.00903041
0.000144552
0.00122187
0.00231572
0.00324381
0.00403957
0.00473058
0.00533481
0.00586463
0.00632941
0.0067369
0.00709384
0.00740624
0.00767944
0.00791813
0.00812652
0.00830836
0.00846672
0.0086038
0.00872082
0.00881834
0.00889707
0.00895829
0.00900365
0.000150083
0.00124735
0.00234784
0.00328418
0.00408906
0.00478778
0.00539686
0.00592807
0.00639088
0.00679349
0.00714328
0.00744692
0.00771036
0.00793889
0.00813748
0.00831083
0.00846267
0.00859503
0.00870822
0.00880168
0.00887576
0.00893207
0.00897286
0.000155169
0.0012642
0.00236611
0.0033088
0.00412252
0.00482934
0.00544392
0.00597733
0.00643904
0.00683772
0.00718136
0.00747724
0.00773184
0.00795116
0.00814131
0.00830854
0.00845751
0.00858916
0.00870145
0.00879192
0.00886107
0.00891161
0.00894693
0.000159396
0.0012719
0.00237228
0.0033204
0.00414255
0.00485731
0.00547745
0.00601341
0.00647472
0.00687046
0.00720916
0.00749861
0.00774578
0.00795748
0.00814159
0.008307
0.00846017
0.00859951
0.00871491
0.00880195
0.00886394
0.00890651
0.00893477
0.000162413
0.00127073
0.00236952
0.00332275
0.00415225
0.00487374
0.00549863
0.00603691
0.00649822
0.00689201
0.00722722
0.00751198
0.00775365
0.00796
0.00814123
0.00831049
0.00847974
0.00864897
0.00877008
0.0088471
0.00889529
0.00892545
0.00894422
0.00016389
0.00126761
0.00236498
0.00332139
0.00415536
0.00488087
0.00550857
0.00604828
0.00650972
0.00690254
0.00723592
0.00751815
0.00775684
0.00796048
0.00814121
0.00831703
0.00851436
0.00879487
0.00889946
0.00894206
0.00896292
0.0089744
0.00898107
0.000351162
0.000317716
0.000312385
0.00033009
0.00237969
0.00217059
0.00209616
0.0021463
0.00401668
0.00378986
0.00366932
0.00364663
0.00510577
0.00490869
0.00477243
0.00469138
0.00584603
0.00568888
0.005557
0.00545349
0.00635185
0.00622684
0.00611542
0.00601648
0.00676273
0.00665263
0.00655919
0.00647384
0.00713025
0.00703611
0.00693855
0.00684819
0.00740211
0.0073151
0.00723369
0.00716159
0.00763586
0.00756327
0.00749673
0.00743677
0.00781222
0.00775524
0.00770059
0.00765012
0.00794206
0.0078988
0.00785727
0.00781831
0.00804931
0.00801695
0.00798549
0.00795523
0.00813658
0.00811243
0.00808831
0.00806428
0.00820092
0.00818337
0.00816503
0.0081459
0.00824152
0.00822965
0.00821629
0.00820144
0.00826148
0.0082546
0.00824571
0.00823475
0.00826677
0.00826429
0.00825938
0.00825198
0.00826452
0.00826587
0.00826449
0.0082603
0.00826161
0.0082663
0.00826802
0.00826668
0.00826398
0.00827161
0.00827603
0.00827717
0.00827634
0.00828654
0.0082933
0.00829657
0.00830214
0.00831456
0.0083233
0.00832835
0.00834354
0.00835779
0.00836814
0.00837458
0.00840127
0.00841695
0.00842851
0.00843595
0.00847453
0.00849119
0.00850354
0.0085116
0.00856079
0.008578
0.00859075
0.00859907
0.00865581
0.00867319
0.00868602
0.00869433
0.0087539
0.00877116
0.00878383
0.00879194
0.0088484
0.00886533
0.00887771
0.00888557
0.00893249
0.00894898
0.00896102
0.00896863
0.00900008
0.00901606
0.00902776
0.00903519
0.00904677
0.00906219
0.00907353
0.00908084
0.00907057
0.00908533
0.00909628
0.00910346
0.00907229
0.00908626
0.0090967
0.00910367
0.00905558
0.00906857
0.00907835
0.00908496
0.00902655
0.00903835
0.00904723
0.0090533
0.00899308
0.00900343
0.00901119
0.0090165
0.00896395
0.00897254
0.00897893
0.00898327
0.00894786
0.00895435
0.00895911
0.0089623
0.00895252
0.00895656
0.00895947
0.00896138
0.0089839
0.00898526
0.00898622
0.00898684
0.00130247
0.00243264
0.00308976
0.00347408
0.00369099
0.00378844
0.00380069
0.00375856
0.00369041
0.0036105
0.0035136
0.00338012
0.00319219
0.00293889
0.00259959
0.00214979
0.00157762
0.000898612
0.000171858
0.00261734
0.00324344
0.00369063
0.00399281
0.00418483
0.00429033
0.00432867
0.00431686
0.00426527
0.00417809
0.00405416
0.00388096
0.00364255
0.00331837
0.00288428
0.00231436
0.00160499
0.000840867
0.000173872
0.00374517
0.00401844
0.0042793
0.00449252
0.0046519
0.00475837
0.00481081
0.00481482
0.00477278
0.00468467
0.00454755
0.00434709
0.00407069
0.0036985
0.0032015
0.00254485
0.00172528
0.000857853
0.000183287
0.00463209
0.00470083
0.00482945
0.00497099
0.00509964
0.00519797
0.00525316
0.00526303
0.00522525
0.00513358
0.00498905
0.0047768
0.00448188
0.00408599
0.00356059
0.00288339
0.00205737
0.00111848
0.000205633
0.00532947
0.00529232
0.00533949
0.00542673
0.00552335
0.0056057
0.00565545
0.00566307
0.00562135
0.00552878
0.00538723
0.00517514
0.00487423
0.00446371
0.00393205
0.00325481
0.00244226
0.00139834
0.000232569
0.00588705
0.00581117
0.00581086
0.00585375
0.00591619
0.00597451
0.00600597
0.0060002
0.00595576
0.00586763
0.00571917
0.00548649
0.00516395
0.00474253
0.00421894
0.00357181
0.00277014
0.00165454
0.000260662
0.00634767
0.00625523
0.00623403
0.00624722
0.00627351
0.00629787
0.00630285
0.00628011
0.00622609
0.00612331
0.00593186
0.00565775
0.00530168
0.0048596
0.00432622
0.00368236
0.00286795
0.00170267
0.000255052
0.00672573
0.00663669
0.00660661
0.00660561
0.00660485
0.006591
0.00656389
0.00651828
0.00644184
0.0063046
0.0060763
0.00576393
0.00537035
0.00489381
0.00432804
0.00365582
0.00282238
0.00166432
0.000237708
0.00705969
0.00697201
0.0069317
0.00691311
0.00689131
0.0068558
0.00680362
0.00672945
0.00661778
0.0064396
0.00617382
0.00582119
0.00537707
0.00484606
0.00424209
0.00354529
0.00268827
0.0015707
0.000226308
0.00734522
0.00725893
0.00720901
0.00717376
0.00713209
0.00707556
0.00700016
0.0068973
0.00674957
0.00653059
0.00622164
0.00582222
0.00533208
0.00476142
0.00412355
0.0033985
0.00253789
0.00146252
0.000215915
0.00757311
0.00749477
0.00743778
0.00738667
0.00732667
0.00724762
0.00714327
0.00700657
0.00682435
0.00657227
0.00623242
0.005801
0.0052804
0.00467823
0.004002
0.00323857
0.00235906
0.00133857
0.000204283
0.00775742
0.00768762
0.00762667
0.00756378
0.00748706
0.0073864
0.0072554
0.00708859
0.00687583
0.00659836
0.00623793
0.00578594
0.0052417
0.00460895
0.00388882
0.00307367
0.0021538
0.00115907
0.000189393
0.00790667
0.00784376
0.00778076
0.00770898
0.00761875
0.00750145
0.00735102
0.00716238
0.00692681
0.006629
0.00625199
0.00578392
0.00521994
0.00455893
0.00379708
0.00292838
0.00196002
0.000972956
0.000171834
0.00802452
0.00796675
0.00790239
0.00782425
0.00772444
0.00759576
0.00743259
0.00722952
0.00697824
0.00666552
0.00627581
0.00579594
0.00521766
0.00453556
0.00374385
0.00283871
0.00184218
0.000872812
0.00015364
0.00811285
0.00805932
0.00799467
0.00791278
0.00780714
0.00767165
0.00750099
0.00728933
0.00702839
0.0067062
0.00630865
0.00582244
0.00523733
0.00454538
0.00373999
0.00282054
0.00181676
0.000853258
0.000146436
0.00817421
0.00812496
0.00806133
0.00797822
0.00787011
0.00773159
0.00755758
0.00734194
0.0070764
0.00674997
0.00634984
0.00586342
0.00527986
0.00459012
0.00378692
0.002869
0.00186148
0.000876366
0.000149472
0.00821297
0.00816852
0.00810733
0.00802511
0.00791715
0.00777864
0.00760452
0.00738853
0.00712255
0.00679656
0.00639893
0.00591818
0.0053439
0.00466687
0.00387899
0.00297519
0.00196732
0.000940179
0.000156965
0.00823538
0.00819613
0.00813848
0.00805875
0.00795282
0.00781629
0.00764423
0.00743066
0.00716791
0.00684614
0.00645529
0.00598504
0.00542591
0.00476895
0.0040053
0.00312538
0.00212433
0.00104197
0.000166033
0.00824849
0.00821455
0.00816103
0.00808473
0.007982
0.00784871
0.00768014
0.00747057
0.00721293
0.00689867
0.00651802
0.00606137
0.00552068
0.00488693
0.0041503
0.00329676
0.00230624
0.00117027
0.000174926
0.00825919
0.0082303
0.00818101
0.0081085
0.00800945
0.00788002
0.00771569
0.00751105
0.00725959
0.00695369
0.00658484
0.00614416
0.0056224
0.00501079
0.0042978
0.00346443
0.00248009
0.0013108
0.000182784
0.00827347
0.00824913
0.00820378
0.0081349
0.00803949
0.00791396
0.00775403
0.00755463
0.0073097
0.00701233
0.00665478
0.00622868
0.00572484
0.00513231
0.0044358
0.00361078
0.00261927
0.00141957
0.000189357
0.0082961
0.00827564
0.00823364
0.0081679
0.00807567
0.00795364
0.00779779
0.00760333
0.00736466
0.00707529
0.00672792
0.00631427
0.00582447
0.00524555
0.00455839
0.00373285
0.0027236
0.00148131
0.000193643
0.00833052
0.00831313
0.00827373
0.00821038
0.00812061
0.00800135
0.00784885
0.00765861
0.00742533
0.00714283
0.00680395
0.00640016
0.00592062
0.00535034
0.0046668
0.00383531
0.00280531
0.0015247
0.000195994
0.00837878
0.00836361
0.00832595
0.00826412
0.00817591
0.00805849
0.00790834
0.00772123
0.00749206
0.00721483
0.00688232
0.00648555
0.00601264
0.00544675
0.00476267
0.00392241
0.00287214
0.00155843
0.000197907
0.00844154
0.00842771
0.00839091
0.00832971
0.00824211
0.0081255
0.00797658
0.00779129
0.00756471
0.00729087
0.00696237
0.00656973
0.00610009
0.00553505
0.00484743
0.00399703
0.00292793
0.00158578
0.000199426
0.00851796
0.00850467
0.00846794
0.00840655
0.00831868
0.00820191
0.00805309
0.00786831
0.00764273
0.00737032
0.00704348
0.00665221
0.00618281
0.00561571
0.00492234
0.00406111
0.0029748
0.00160837
0.00020035
0.00860567
0.00859225
0.00855499
0.00849281
0.00840402
0.00828631
0.00813668
0.00795127
0.00772524
0.00745248
0.00712514
0.00673278
0.00626102
0.00568947
0.00498869
0.00411629
0.00301428
0.00162695
0.00020078
0.00870077
0.00868681
0.0086487
0.00858544
0.00849543
0.00837642
0.00822543
0.00803862
0.0078111
0.00753662
0.00720706
0.0068116
0.00633538
0.00575749
0.005048
0.00416422
0.00304776
0.00164222
0.000200846
0.00879802
0.0087834
0.0087445
0.00868031
0.00858926
0.00846908
0.00831676
0.0081284
0.00789897
0.00762204
0.0072892
0.00688931
0.00640713
0.00582145
0.00510224
0.00420681
0.0030768
0.00165513
0.000200664
0.00889126
0.00887619
0.00883691
0.00877241
0.00868102
0.00856043
0.00840752
0.00821823
0.00798733
0.00770812
0.00737187
0.00696707
0.00647817
0.0058838
0.00515398
0.00424643
0.00310315
0.00166666
0.0002003
0.00897407
0.008959
0.00892011
0.00885628
0.00876578
0.00864616
0.00849413
0.00830541
0.0080745
0.00779431
0.0074557
0.00704667
0.0065513
0.00594798
0.00520686
0.00428622
0.00312888
0.0016775
0.000199789
0.00904058
0.00902612
0.00898854
0.00892666
0.00883863
0.00872186
0.00857287
0.00838711
0.0081587
0.00788011
0.0075416
0.00713055
0.00663033
0.00601884
0.00526609
0.00433085
0.00315715
0.00168877
0.000199036
0.00908637
0.0090731
0.00903777
0.00897917
0.00889537
0.00878363
0.0086403
0.00846055
0.00823814
0.00796499
0.00763068
0.00722162
0.00672012
0.00610293
0.00533923
0.00438771
0.00319366
0.0017036
0.000197811
0.00910922
0.00909755
0.00906527
0.00901115
0.00893322
0.00882871
0.0086938
0.00852351
0.00831126
0.00804849
0.00772397
0.00732299
0.00682624
0.00620846
0.00543666
0.00446793
0.00324776
0.00172635
0.000196861
0.0091096
0.00909973
0.009071
0.00902227
0.0089516
0.00885623
0.00873236
0.00857495
0.00837726
0.0081304
0.00782245
0.0074375
0.00695422
0.00634435
0.0055709
0.00458647
0.00333318
0.00176277
0.000197495
0.00909085
0.00908274
0.0090578
0.00901501
0.00895258
0.00886787
0.00875723
0.00861575
0.0084368
0.00821142
0.00792733
0.00756757
0.00710873
0.00651872
0.00575447
0.00476016
0.00346807
0.00182452
0.000200065
0.00905887
0.00905231
0.00903118
0.00899464
0.00894109
0.00886812
0.00877241
0.00864937
0.00849279
0.00829401
0.00804084
0.0077158
0.0072936
0.00673791
0.00599754
0.00500359
0.00367031
0.00192668
0.000205073
0.00902143
0.00901618
0.00899881
0.00896866
0.00892441
0.00886398
0.00878447
0.00868189
0.00855068
0.00838296
0.00816723
0.00788618
0.00751337
0.00700816
0.00630906
0.00532734
0.00394792
0.00207379
0.000213855
0.0089873
0.00898318
0.00896954
0.00894593
0.0089113
0.00886402
0.00880173
0.00872117
0.00861779
0.00848493
0.00831248
0.00808444
0.00777457
0.00733893
0.00670395
0.00575132
0.00431518
0.00225703
0.000229352
0.00896521
0.00896217
0.00895232
0.00893541
0.0089107
0.00887702
0.00883267
0.00877529
0.00870154
0.00860645
0.00848217
0.00831555
0.00808323
0.00774176
0.00720808
0.00632531
0.00483236
0.00248483
0.000250663
0.00896308
0.00896116
0.00895522
0.00894514
0.00893049
0.00891059
0.00888444
0.00885066
0.0088073
0.00875138
0.0086781
0.00857893
0.00843748
0.00821947
0.00784753
0.00713827
0.0056698
0.00278174
0.000276471
0.00898739
0.00898673
0.00898477
0.00898147
0.0089767
0.00897025
0.00896181
0.00895096
0.0089371
0.00891933
0.00889617
0.0088649
0.00881991
0.00874799
0.00861238
0.00828871
0.00726625
0.00313931
0.000301474
)
;

boundaryField
{
    leftWall
    {
        type            nutkWallFunction;
        Cmu             0.09;
        kappa           0.41;
        E               9.8;
        value           nonuniform List<scalar> 
50
(
6.79136e-06
9.63958e-06
1.13836e-05
1.27847e-05
1.40348e-05
1.51713e-05
1.62403e-05
1.72832e-05
1.88892e-05
2.1172e-05
2.38338e-05
2.62369e-05
3.55642e-05
3.63057e-05
3.61513e-05
3.4573e-05
3.33269e-05
3.04979e-05
2.83593e-05
2.67226e-05
2.48632e-05
2.30981e-05
2.14593e-05
2.00075e-05
1.87707e-05
1.77265e-05
1.68229e-05
1.60032e-05
1.52186e-05
1.44315e-05
1.36165e-05
1.27618e-05
1.18735e-05
1.09786e-05
1.01267e-05
9.38461e-06
8.82084e-06
8.48507e-06
8.39609e-06
8.545e-06
8.90704e-06
9.45097e-06
1.01413e-05
1.0936e-05
1.17841e-05
1.26262e-05
1.33987e-05
1.404e-05
1.44981e-05
1.47241e-05
)
;
    }
    rightWall
    {
        type            nutkWallFunction;
        Cmu             0.09;
        kappa           0.41;
        E               9.8;
        value           nonuniform List<scalar> 
50
(
1.03654e-05
1.3318e-05
1.50623e-05
1.64201e-05
1.75055e-05
1.83701e-05
1.90324e-05
1.94953e-05
1.98162e-05
1.99913e-05
2.09369e-05
2.34838e-05
2.69818e-05
3.0805e-05
3.05086e-05
2.79461e-05
2.42871e-05
2.24909e-05
2.07867e-05
1.85342e-05
1.58472e-05
1.31556e-05
1.20729e-05
1.25606e-05
1.40549e-05
1.53709e-05
1.66641e-05
1.78069e-05
1.86174e-05
1.89695e-05
1.95151e-05
1.98604e-05
2.00781e-05
2.02101e-05
2.02551e-05
2.02646e-05
2.02403e-05
2.01864e-05
2.01111e-05
1.99601e-05
1.96049e-05
1.95829e-05
1.97131e-05
2.00563e-05
2.07331e-05
2.18706e-05
2.40049e-05
2.6979e-05
3.05581e-05
3.39347e-05
)
;
    }
    lowerWall
    {
        type            nutkWallFunction;
        Cmu             0.09;
        kappa           0.41;
        E               9.8;
        value           nonuniform List<scalar> 
62
(
3.1099e-06
5.09431e-06
6.40913e-06
7.34093e-06
8.06439e-06
8.6558e-06
9.155e-06
9.58533e-06
9.96318e-06
1.02983e-05
1.05951e-05
1.08546e-05
1.10754e-05
1.12554e-05
1.13933e-05
1.14785e-05
1.14915e-05
1.13863e-05
1.11037e-05
1.06687e-05
9.90721e-06
8.42219e-06
5.40341e-06
5.40341e-06
1.70327e-05
2.02176e-05
2.2875e-05
2.54364e-05
2.79924e-05
3.1113e-05
3.64369e-05
3.8353e-05
3.49684e-05
3.42995e-05
3.59645e-05
5.7834e-06
1.83687e-05
2.04821e-05
2.19002e-05
2.31814e-05
2.48382e-05
2.76783e-05
3.33547e-05
5.7834e-06
8.28403e-06
9.86291e-06
1.04665e-05
1.06233e-05
1.05488e-05
1.01637e-05
9.45011e-06
8.56686e-06
8.17709e-06
8.12431e-06
8.01154e-06
7.7542e-06
7.51838e-06
7.49789e-06
7.38901e-06
6.7884e-06
5.63734e-06
4.44345e-06
)
;
    }
    atmosphere
    {
        type            calculated;
        value           nonuniform List<scalar> 
46
(
0.00016389
0.00126761
0.00236498
0.00332139
0.00415536
0.00488087
0.00550857
0.00604828
0.00650972
0.00690254
0.00723592
0.00751815
0.00775684
0.00796048
0.00814121
0.00831703
0.00851436
0.009
0.009
0.009
0.009
0.009
0.009
0.009
0.009
0.009
0.009
0.009
0.009
0.009
0.009
0.009
0.009
0.009
0.009
0.009
0.009
0.009
0.009
0.009
0.009
0.009
0.009
0.009
0.00313931
0.000301474
)
;
    }
    defaultFaces
    {
        type            empty;
    }
}


// ************************************************************************* //
