/*--------------------------------*- C++ -*----------------------------------*\
  =========                 |
  \\      /  F ield         | OpenFOAM: The Open Source CFD Toolbox
   \\    /   O peration     | Website:  https://openfoam.org
    \\  /    A nd           | Version:  9
     \\/     M anipulation  |
\*---------------------------------------------------------------------------*/
FoamFile
{
    format      ascii;
    class       volVectorField;
    location    "2.13";
    object      U;
}
// * * * * * * * * * * * * * * * * * * * * * * * * * * * * * * * * * * * * * //

dimensions      [0 1 -1 0 0 0 0];

internalField   nonuniform List<vector> 
2268
(
(-0.00699652 0.00240423 0)
(-0.00712891 -5.4271e-06 0)
(-0.00549682 -0.000856797 0)
(-0.00304257 -0.000925257 0)
(-0.000846159 -0.000732171 0)
(0.000833317 -0.000547041 0)
(0.00212011 -0.000428189 0)
(0.00320654 -0.000371009 0)
(0.00424009 -0.00035943 0)
(0.00527468 -0.000360765 0)
(0.00628354 -0.000341964 0)
(0.00715808 -0.000273655 0)
(0.00773365 -0.00013669 0)
(0.00782827 7.1654e-05 0)
(0.00727778 0.000344126 0)
(0.00590499 0.000690365 0)
(0.00335635 0.00106909 0)
(-4.71604e-05 0.00236927 0)
(-0.0106263 0.00619787 0)
(-0.0289391 0.00650978 0)
(-0.0415718 0.00226461 0)
(-0.0435974 -0.00409043 0)
(-0.0224204 -0.0109788 0)
(-0.00442991 0.004305 0)
(-0.00337543 -0.000251892 0)
(-0.00200224 -0.00145675 0)
(-0.000405367 -0.00157589 0)
(0.00103958 -0.00130235 0)
(0.00221958 -0.00101916 0)
(0.00321092 -0.000832467 0)
(0.0041246 -0.00075379 0)
(0.00503841 -0.000741909 0)
(0.00596653 -0.000736416 0)
(0.00685996 -0.000676348 0)
(0.00761482 -0.00051512 0)
(0.00810239 -0.000232055 0)
(0.00820373 0.000166706 0)
(0.00782291 0.000679076 0)
(0.0068124 0.00134507 0)
(0.00473642 0.00228226 0)
(0.00149955 0.00452251 0)
(-0.00427179 0.00956561 0)
(-0.0132015 0.0104997 0)
(-0.0205149 0.00473963 0)
(-0.0256102 -0.00521238 0)
(-0.0166768 -0.0228813 0)
(-0.00142666 0.00535044 0)
(-0.000866229 -0.000676844 0)
(0.000284665 -0.00206044 0)
(0.00139479 -0.00213904 0)
(0.00241104 -0.00179293 0)
(0.00328911 -0.00143986 0)
(0.00408555 -0.00121995 0)
(0.00486877 -0.00113758 0)
(0.00567816 -0.00113268 0)
(0.00650451 -0.00112109 0)
(0.00729017 -0.00101957 0)
(0.00794104 -0.000770151 0)
(0.00835745 -0.000354536 0)
(0.00846343 0.000213979 0)
(0.00820744 0.00093691 0)
(0.00749031 0.00190725 0)
(0.00595901 0.00335848 0)
(0.00346713 0.00612769 0)
(0.00059084 0.011383 0)
(-0.00297004 0.0127838 0)
(-0.00672433 0.00692504 0)
(-0.0119172 -0.00460058 0)
(-0.00801396 -0.0298996 0)
(0.000677273 0.00537358 0)
(0.00110044 -0.00100277 0)
(0.00207279 -0.00251503 0)
(0.00288841 -0.00256541 0)
(0.00361898 -0.00217258 0)
(0.00427828 -0.00178417 0)
(0.00492059 -0.00155548 0)
(0.00559077 -0.00148304 0)
(0.0063034 -0.00148965 0)
(0.00703407 -0.00147157 0)
(0.00772149 -0.00132866 0)
(0.00828168 -0.000997298 0)
(0.00863927 -0.000467056 0)
(0.00875505 0.000234965 0)
(0.00862381 0.00111472 0)
(0.00820561 0.00230784 0)
(0.00727176 0.00410881 0)
(0.00569724 0.00716697 0)
(0.00469864 0.0120824 0)
(0.00429564 0.0137209 0)
(0.00334802 0.00835582 0)
(-0.000597021 -0.00363309 0)
(0.000597734 -0.0322813 0)
(0.00193771 0.00455365 0)
(0.00264242 -0.00138684 0)
(0.00354973 -0.00288139 0)
(0.0042058 -0.00288536 0)
(0.00474454 -0.002457 0)
(0.00523975 -0.00205663 0)
(0.00575538 -0.00183875 0)
(0.00632417 -0.00178742 0)
(0.0069443 -0.00180929 0)
(0.00758184 -0.00178488 0)
(0.0081751 -0.00160199 0)
(0.00865 -0.00119674 0)
(0.00895206 -0.000572507 0)
(0.0090761 0.000223222 0)
(0.00906606 0.00119493 0)
(0.00894601 0.00251272 0)
(0.00860341 0.00450148 0)
(0.0079829 0.00762596 0)
(0.00823586 0.0119289 0)
(0.00965475 0.0135105 0)
(0.0106628 0.0089014 0)
(0.00822773 -0.00246308 0)
(0.00808164 -0.0300661 0)
(0.00265052 0.00323811 0)
(0.00383348 -0.00189771 0)
(0.00478546 -0.00321808 0)
(0.00538009 -0.00313618 0)
(0.00579949 -0.00266801 0)
(0.00617638 -0.0022669 0)
(0.00659074 -0.00207189 0)
(0.00706957 -0.00204822 0)
(0.00760037 -0.00208664 0)
(0.00814429 -0.00205543 0)
(0.00864239 -0.00183425 0)
(0.00903058 -0.00136349 0)
(0.00927236 -0.000666122 0)
(0.00939331 0.00018212 0)
(0.00948595 0.00117728 0)
(0.00963523 0.00251777 0)
(0.00981555 0.00454727 0)
(0.0100242 0.00756834 0)
(0.0111144 0.0112525 0)
(0.0134365 0.0125661 0)
(0.015504 0.00867868 0)
(0.014275 -0.00113744 0)
(0.0141664 -0.0254617 0)
(0.00308212 0.00159903 0)
(0.00474986 -0.00256147 0)
(0.00580974 -0.00357218 0)
(0.00641167 -0.00335588 0)
(0.00677241 -0.0028328 0)
(0.00707396 -0.00243165 0)
(0.00741307 -0.00226312 0)
(0.0078138 -0.00226729 0)
(0.00825689 -0.00231945 0)
(0.00870317 -0.00227887 0)
(0.0091002 -0.00202013 0)
(0.00939474 -0.00149099 0)
(0.00956533 -0.000738689 0)
(0.0096637 0.000124371 0)
(0.00982438 0.00108094 0)
(0.0101817 0.00235539 0)
(0.0107612 0.00431466 0)
(0.0115615 0.00714948 0)
(0.0131291 0.0103107 0)
(0.0156592 0.0113387 0)
(0.0179385 0.00797748 0)
(0.0172844 -0.00039433 0)
(0.0186904 -0.0197384 0)
(0.00340088 -0.000219839 0)
(0.00543775 -0.0033904 0)
(0.00661813 -0.00398105 0)
(0.00727735 -0.00358381 0)
(0.00763643 -0.00298542 0)
(0.00790718 -0.00257424 0)
(0.00819877 -0.00242367 0)
(0.00853288 -0.00244522 0)
(0.00888723 -0.00250144 0)
(0.00922761 -0.00244635 0)
(0.00951331 -0.00215163 0)
(0.00970458 -0.00157254 0)
(0.00979212 -0.000779243 0)
(0.00984707 7.39928e-05 0)
(0.0100307 0.000946574 0)
(0.0105062 0.00208727 0)
(0.0113201 0.00390304 0)
(0.0124327 0.00653985 0)
(0.0140904 0.00934352 0)
(0.0162176 0.0102857 0)
(0.0176849 0.00749742 0)
(0.0161428 0.000541086 0)
(0.0180882 -0.0108712 0)
(-0.0359603 0.0110069 0)
(-0.044728 0.00100408 0)
(-0.0303118 -0.00825805 0)
(-0.00510437 -0.0085091 0)
(0.015808 -0.00737088 0)
(0.0347029 -0.0070502 0)
(0.0492589 -0.00355632 0)
(0.0443458 0.00728693 0)
(0.00132658 0.0146084 0)
(-0.0510037 0.0111834 0)
(-0.0740384 0.0041161 0)
(-0.0768047 -0.000220676 0)
(-0.076615 0.000876164 0)
(-0.0835074 0.00325387 0)
(-0.083425 -0.00179904 0)
(-0.0634456 -0.00581075 0)
(-0.0400829 -0.00505695 0)
(-0.0282059 -0.00403317 0)
(-0.0139501 -0.00742252 0)
(-0.0367368 0.0232037 0)
(-0.0277613 0.000152787 0)
(-0.0209093 -0.012287 0)
(-0.00775861 -0.0136299 0)
(0.00353379 -0.0117966 0)
(0.0116284 -0.00958223 0)
(0.0144516 -0.00274177 0)
(0.00848934 0.0171317 0)
(-0.0226766 0.0298577 0)
(-0.0616949 0.0220311 0)
(-0.0785969 0.00856299 0)
(-0.0835084 0.0010851 0)
(-0.0859526 0.00137691 0)
(-0.0865684 0.00181902 0)
(-0.077369 -0.00748562 0)
(-0.0555071 -0.0149462 0)
(-0.03037 -0.0129268 0)
(-0.0160106 -0.00802764 0)
(-0.00669259 -0.0112323 0)
(-0.0267424 0.0330354 0)
(-0.0177425 -0.00183767 0)
(-0.0167052 -0.0150656 0)
(-0.0115346 -0.0166286 0)
(-0.0072281 -0.0139966 0)
(-0.00636276 -0.00984157 0)
(-0.010946 -0.000854166 0)
(-0.0194016 0.0236449 0)
(-0.0385878 0.0410616 0)
(-0.0636742 0.0309737 0)
(-0.0782412 0.0131871 0)
(-0.0853815 0.00325922 0)
(-0.0891925 0.00184767 0)
(-0.0874042 -0.00106768 0)
(-0.0755571 -0.0143049 0)
(-0.0532685 -0.0249274 0)
(-0.0278046 -0.021585 0)
(-0.0109937 -0.0135306 0)
(0.000167519 -0.0147104 0)
(-0.015896 0.0405885 0)
(-0.0119812 -0.00204285 0)
(-0.0160554 -0.0154497 0)
(-0.016989 -0.0173296 0)
(-0.0182077 -0.0139782 0)
(-0.0228213 -0.00788294 0)
(-0.0326168 0.00302288 0)
(-0.0425725 0.0286 0)
(-0.0521105 0.047603 0)
(-0.0648181 0.0378798 0)
(-0.076856 0.0177457 0)
(-0.0852815 0.00592665 0)
(-0.0903674 0.00246169 0)
(-0.0884047 -0.00432791 0)
(-0.0760449 -0.0214911 0)
(-0.0546933 -0.0350755 0)
(-0.0298025 -0.0304913 0)
(-0.0115296 -0.0194614 0)
(0.00123784 -0.0162393 0)
(-0.00663611 0.0450894 0)
(-0.0102019 -0.000200211 0)
(-0.0186408 -0.0135023 0)
(-0.0243402 -0.0158393 0)
(-0.0298295 -0.0118828 0)
(-0.0385821 -0.00397231 0)
(-0.051906 0.00810495 0)
(-0.0621989 0.0321676 0)
(-0.064809 0.0497879 0)
(-0.0673153 0.0419384 0)
(-0.0748326 0.0218773 0)
(-0.0834878 0.00898755 0)
(-0.0897933 0.00351358 0)
(-0.0888345 -0.00736235 0)
(-0.0779304 -0.0282645 0)
(-0.059339 -0.0446164 0)
(-0.0357815 -0.0398306 0)
(-0.0157448 -0.0258754 0)
(-0.00119743 -0.0186989 0)
(0.000318474 0.0476635 0)
(-0.0129619 0.00424964 0)
(-0.0245753 -0.00959778 0)
(-0.0336856 -0.0126644 0)
(-0.0421888 -0.00822598 0)
(-0.0538009 0.00136718 0)
(-0.0693883 0.0138468 0)
(-0.0792096 0.0343339 0)
(-0.0763411 0.0488039 0)
(-0.070838 0.042557 0)
(-0.0730155 0.0249045 0)
(-0.0806047 0.0122827 0)
(-0.0875847 0.00503597 0)
(-0.0878899 -0.00963493 0)
(-0.079554 -0.0338899 0)
(-0.0649536 -0.0528896 0)
(-0.0440541 -0.0498839 0)
(-0.022204 -0.0336121 0)
(-0.00301699 -0.0233563 0)
(0.00251439 0.0509891 0)
(-0.0211209 0.0110984 0)
(-0.0340844 -0.00443954 0)
(-0.0450577 -0.00844404 0)
(-0.0553285 -0.00362668 0)
(-0.0684044 0.00754312 0)
(-0.0846597 0.0198029 0)
(-0.0931618 0.0351245 0)
(-0.0861524 0.0452499 0)
(-0.074757 0.0402443 0)
(-0.0721702 0.026439 0)
(-0.0775064 0.0153023 0)
(-0.0837687 0.00676989 0)
(-0.084783 -0.0111019 0)
(-0.0789363 -0.0381998 0)
(-0.0681823 -0.0594708 0)
(-0.0515438 -0.0591147 0)
(-0.0305126 -0.0428289 0)
(-0.00587653 -0.0299198 0)
(-0.0143681 0.0589324 0)
(-0.0350434 0.0178858 0)
(-0.0471562 0.000814767 0)
(-0.058384 -0.0038063 0)
(-0.0693943 0.00139009 0)
(-0.0824552 0.0136697 0)
(-0.0972851 0.0251039 0)
(-0.103367 0.0348109 0)
(-0.093764 0.0402406 0)
(-0.0791923 0.0363883 0)
(-0.0727337 0.0265694 0)
(-0.0744357 0.0172753 0)
(-0.0779934 0.00823659 0)
(-0.0783872 -0.0120268 0)
(-0.0744782 -0.041152 0)
(-0.0675494 -0.0642809 0)
(-0.0559258 -0.0665117 0)
(-0.0378611 -0.0525028 0)
(-0.00977275 -0.0387091 0)
(0.0036972 -0.00391153 0)
(0.00604264 -0.00498916 0)
(0.00745748 -0.00475545 0)
(0.00829058 -0.00401363 0)
(0.0087512 -0.00326481 0)
(0.0090571 -0.00280547 0)
(0.00932229 -0.00264711 0)
(0.00956611 -0.00266133 0)
(0.00977182 -0.00270037 0)
(0.00992438 -0.00261643 0)
(0.0100141 -0.00227773 0)
(0.0100339 -0.00164371 0)
(0.00999161 -0.00079657 0)
(0.00996791 5.5735e-05 0)
(0.0101164 0.000757322 0)
(0.0105997 0.0016104 0)
(0.0114754 0.00312257 0)
(0.0126421 0.00548566 0)
(0.0139154 0.0080857 0)
(0.0146012 0.00957858 0)
(0.0129776 0.00877031 0)
(0.00625631 0.00616583 0)
(-0.00873437 0.00689417 0)
(0.00335048 -0.00701867 0)
(0.00529435 -0.00670603 0)
(0.00700848 -0.00568875 0)
(0.00833433 -0.00457775 0)
(0.00934545 -0.00365324 0)
(0.0100277 -0.00312746 0)
(0.0103943 -0.0029528 0)
(0.0104889 -0.00295746 0)
(0.0103782 -0.00299123 0)
(0.0101329 -0.00292583 0)
(0.00985096 -0.00261259 0)
(0.00966644 -0.00200436 0)
(0.00964505 -0.0011763 0)
(0.00966005 -0.000382518 0)
(0.00952456 0.000118322 0)
(0.00928449 0.000644021 0)
(0.00911933 0.00183065 0)
(0.00932275 0.00416558 0)
(0.00956609 0.00731129 0)
(0.00809986 0.0107939 0)
(0.00176378 0.01453 0)
(-0.0130486 0.0204044 0)
(-0.0377788 0.0321093 0)
(0.000271496 -0.0117758 0)
(0.00101776 -0.00916217 0)
(0.00365157 -0.0071384 0)
(0.0063798 -0.00550615 0)
(0.00910085 -0.00418706 0)
(0.010874 -0.0034336 0)
(0.0113252 -0.00311887 0)
(0.0106936 -0.0029538 0)
(0.00951035 -0.00273763 0)
(0.00814138 -0.00247644 0)
(0.00684593 -0.00201371 0)
(0.00622661 -0.00137406 0)
(0.0068161 -0.00047964 0)
(0.00800305 0.00043081 0)
(0.00743954 0.000854966 0)
(0.00400027 0.00118102 0)
(-0.000826411 0.00220516 0)
(-0.00320857 0.00520345 0)
(-0.00234083 0.00986668 0)
(-0.00234878 0.016615 0)
(-0.0106227 0.0254024 0)
(-0.0336358 0.0372774 0)
(-0.0710988 0.0523307 0)
(-0.0136471 -0.019917 0)
(-0.0143215 -0.00968395 0)
(-0.0117156 -0.00713487 0)
(-0.00600052 -0.00743525 0)
(0.00385011 -0.00663567 0)
(0.0108063 -0.00490044 0)
(0.0114671 -0.00340134 0)
(0.00642472 -0.00239689 0)
(-0.000696928 -0.00153659 0)
(-0.00639568 -0.00140156 0)
(-0.0108519 0.000775809 0)
(-0.0144645 0.00214663 0)
(-0.0115264 -0.00125146 0)
(0.000727563 -0.00118799 0)
(0.00332521 0.000431279 0)
(-0.0109941 0.00370747 0)
(-0.0352617 0.00833595 0)
(-0.0503395 0.0147431 0)
(-0.040619 0.011006 0)
(-0.0152396 0.0224734 0)
(-0.00373492 0.0422053 0)
(-0.0210424 0.0642476 0)
(-0.0820587 0.0718054 0)
(-0.133914 0.0489065 0)
(-0.175677 -0.0146791 0)
(-0.154664 -0.0285452 0)
(-0.142051 -0.0351563 0)
(-0.128378 -0.0284303 0)
(-0.115663 -0.0129624 0)
(-0.111168 0.00641038 0)
(-0.133053 0.0193986 0)
(-0.164876 0.0186891 0)
(-0.184321 0.00722313 0)
(-0.192237 0.00902026 0)
(-0.180071 -0.0123687 0)
(-0.157506 -0.0286532 0)
(-0.144431 -0.0158189 0)
(-0.146863 0.0192524 0)
(-0.188539 0.0771755 0)
(-0.283384 0.0662486 0)
(-0.244795 -0.0269123 0)
(-0.185942 -0.0504776 0)
(-0.130638 -0.0277858 0)
(-0.0845129 0.0253768 0)
(-0.0562236 0.131456 0)
(-0.0556253 0.230696 0)
(-0.107699 0.21014 0)
(-0.123878 0.0215463 0)
(-0.138223 -0.0139373 0)
(-0.161311 -0.028461 0)
(-0.172966 -0.0325581 0)
(-0.172145 -0.0213482 0)
(-0.167094 0.00496536 0)
(-0.162933 0.0395578 0)
(-0.170767 0.0453204 0)
(-0.182337 0.0166155 0)
(-0.192829 0.00426103 0)
(-0.198531 -0.0147464 0)
(-0.197656 -0.0313119 0)
(-0.196945 -0.0143515 0)
(-0.207605 0.0371481 0)
(-0.238475 0.105642 0)
(-0.26062 0.0502504 0)
(-0.255181 -0.0404288 0)
(-0.24171 -0.0841391 0)
(-0.218739 -0.0753438 0)
(-0.198713 -0.0159901 0)
(-0.186837 0.0897775 0)
(-0.168362 0.198564 0)
(-0.0333297 0.283596 0)
(-0.0438748 0.0470914 0)
(-0.0905572 0.0113431 0)
(-0.147654 -0.000434111 0)
(-0.175819 -0.0227465 0)
(-0.18482 -0.0199596 0)
(-0.184816 0.000700994 0)
(-0.17484 0.0287199 0)
(-0.163608 0.041228 0)
(-0.162825 0.0286746 0)
(-0.186216 0.0172236 0)
(-0.207507 -0.00921723 0)
(-0.217611 -0.0318467 0)
(-0.225573 -0.0116466 0)
(-0.237357 0.056421 0)
(-0.240874 0.132253 0)
(-0.235828 0.0696471 0)
(-0.252518 -0.0416763 0)
(-0.276578 -0.0961486 0)
(-0.292887 -0.0798339 0)
(-0.310123 -0.00406733 0)
(-0.340153 0.0739496 0)
(-0.297732 0.133171 0)
(0.0195075 0.290433 0)
(0.0206466 0.0887394 0)
(-0.0572998 0.076893 0)
(-0.106229 0.0565879 0)
(-0.146114 0.000127624 0)
(-0.177393 -0.0111834 0)
(-0.188905 -0.000565658 0)
(-0.185411 0.0197255 0)
(-0.176434 0.0347583 0)
(-0.176397 0.0465233 0)
(-0.18296 0.0427892 0)
(-0.193076 0.0170435 0)
(-0.214453 -0.019016 0)
(-0.249548 -0.00405482 0)
(-0.261555 0.0685451 0)
(-0.239249 0.120618 0)
(-0.211537 0.0777429 0)
(-0.225259 0.00150538 0)
(-0.27396 -0.0721556 0)
(-0.361719 -0.0541029 0)
(-0.389312 0.0271355 0)
(-0.373907 0.0498038 0)
(-0.345059 0.0724116 0)
(0.0215782 0.263145 0)
(0.00614666 0.142191 0)
(-0.0618831 0.132823 0)
(-0.0870754 0.0949464 0)
(-0.116394 0.0475424 0)
(-0.145914 0.0189451 0)
(-0.167795 0.00839876 0)
(-0.178787 0.015807 0)
(-0.181059 0.0306398 0)
(-0.18037 0.0439226 0)
(-0.179842 0.0432117 0)
(-0.185065 0.0305469 0)
(-0.20263 0.0187034 0)
(-0.226723 0.0291503 0)
(-0.236241 0.0615909 0)
(-0.223701 0.0841913 0)
(-0.209836 0.0689717 0)
(-0.22193 0.0396522 0)
(-0.262324 0.0229981 0)
(-0.31803 0.0372341 0)
(-0.349356 0.0437936 0)
(-0.332414 0.0351448 0)
(-0.30172 0.038946 0)
(-0.00655395 0.242138 0)
(-0.0307434 0.187668 0)
(-0.0605908 0.156703 0)
(-0.0757889 0.114027 0)
(-0.0969314 0.0717821 0)
(-0.120938 0.0430311 0)
(-0.142334 0.0289099 0)
(-0.157759 0.0280858 0)
(-0.166121 0.0351522 0)
(-0.168944 0.042461 0)
(-0.169734 0.0427716 0)
(-0.174064 0.0366136 0)
(-0.185826 0.0322504 0)
(-0.200336 0.0405967 0)
(-0.206221 0.0593336 0)
(-0.199895 0.0724674 0)
(-0.193064 0.0673622 0)
(-0.200038 0.0534324 0)
(-0.220994 0.046298 0)
(-0.242371 0.0505556 0)
(-0.25651 0.0426022 0)
(-0.271053 0.0127965 0)
(-0.253858 0.00901696 0)
(-0.0121864 0.268951 0)
(-0.0323598 0.212608 0)
(-0.0496106 0.171071 0)
(-0.0620221 0.129309 0)
(-0.0787777 0.0915701 0)
(-0.0984748 0.0638174 0)
(-0.117667 0.0475445 0)
(-0.133373 0.0417862 0)
(-0.143834 0.0428145 0)
(-0.149313 0.0455103 0)
(-0.15228 0.0456191 0)
(-0.156466 0.043065 0)
(-0.163891 0.0422224 0)
(-0.171759 0.0481698 0)
(-0.174357 0.0593254 0)
(-0.170104 0.0676493 0)
(-0.16476 0.0670523 0)
(-0.165075 0.0614852 0)
(-0.170489 0.0588105 0)
(-0.173354 0.0592634 0)
(-0.170036 0.0481943 0)
(-0.170071 0.013448 0)
(-0.171869 -0.0169565 0)
(-0.00682055 0.294039 0)
(-0.0202484 0.228999 0)
(-0.0335746 0.182976 0)
(-0.0450319 0.142988 0)
(-0.0595126 0.108535 0)
(-0.0762427 0.0819952 0)
(-0.0930421 0.0643687 0)
(-0.107633 0.0550517 0)
(-0.118442 0.0515995 0)
(-0.125318 0.050674 0)
(-0.129692 0.0496194 0)
(-0.133707 0.048103 0)
(-0.138362 0.0481106 0)
(-0.142147 0.0517687 0)
(-0.142279 0.058021 0)
(-0.138046 0.062828 0)
(-0.132099 0.0631519 0)
(-0.12742 0.0603701 0)
(-0.123475 0.057556 0)
(-0.116793 0.0538501 0)
(-0.106337 0.0423617 0)
(-0.0975769 0.0178303 0)
(-0.0935134 -0.0114113 0)
(0.00207789 0.302221 0)
(-0.00516722 0.241 0)
(-0.0166308 0.193822 0)
(-0.0269863 0.155437 0)
(-0.0397627 0.123241 0)
(-0.054182 0.0977303 0)
(-0.0687561 0.0792888 0)
(-0.0818252 0.0674553 0)
(-0.092151 0.0606462 0)
(-0.0994346 0.0567172 0)
(-0.104377 0.0539463 0)
(-0.108083 0.0518637 0)
(-0.111034 0.0511762 0)
(-0.112451 0.0525951 0)
(-0.110998 0.0553334 0)
(-0.106341 0.0572451 0)
(-0.0996986 0.0566428 0)
(-0.0924318 0.0537196 0)
(-0.0843503 0.0493221 0)
(-0.0741882 0.0424638 0)
(-0.0622199 0.029858 0)
(-0.0519179 0.00946842 0)
(-0.0460936 -0.0146554 0)
(0.00986927 0.296261 0)
(0.00770894 0.249637 0)
(-0.00117985 0.203182 0)
(-0.00997476 0.166448 0)
(-0.0209309 0.135962 0)
(-0.0331788 0.111248 0)
(-0.0455972 0.0922829 0)
(-0.0569679 0.0786506 0)
(-0.0663376 0.0693126 0)
(-0.0733452 0.0628897 0)
(-0.0782418 0.0582178 0)
(-0.0815331 0.0547799 0)
(-0.0834269 0.0526493 0)
(-0.0835339 0.051889 0)
(-0.0812253 0.0518611 0)
(-0.076365 0.0513023 0)
(-0.0695553 0.0491433 0)
(-0.0615192 0.0451216 0)
(-0.0523742 0.0392568 0)
(-0.0419138 0.0308022 0)
(-0.0308207 0.0182103 0)
(-0.0213201 0.000844221 0)
(-0.0154549 -0.0190287 0)
(0.0135989 0.282981 0)
(0.0159807 0.253274 0)
(0.0109766 0.210171 0)
(0.00441357 0.175497 0)
(-0.00429014 0.146566 0)
(-0.014215 0.122556 0)
(-0.024407 0.103274 0)
(-0.0339211 0.0883622 0)
(-0.0420007 0.077124 0)
(-0.0482618 0.0686542 0)
(-0.0527007 0.0621355 0)
(-0.0554918 0.0570677 0)
(-0.0566978 0.0532401 0)
(-0.0561227 0.0504365 0)
(-0.053486 0.0481166 0)
(-0.0487652 0.045452 0)
(-0.0423149 0.041697 0)
(-0.0346067 0.0364676 0)
(-0.025928 0.0295402 0)
(-0.0165251 0.020435 0)
(-0.00712887 0.00847449 0)
(0.000826374 -0.00641631 0)
(0.00599907 -0.0228649 0)
(0.0132961 0.267127 0)
(0.0196902 0.251732 0)
(0.0190954 0.213911 0)
(0.0154043 0.181964 0)
(0.00938453 0.154702 0)
(0.00202188 0.131483 0)
(-0.00580845 0.112128 0)
(-0.013312 0.0963687 0)
(-0.0198546 0.0837409 0)
(-0.0250481 0.0736395 0)
(-0.0287525 0.0654766 0)
(-0.0309655 0.0588057 0)
(-0.0316703 0.0533151 0)
(-0.0307617 0.0486894 0)
(-0.0281273 0.0444659 0)
(-0.0238079 0.0400529 0)
(-0.0180585 0.0349023 0)
(-0.0112416 0.0286448 0)
(-0.00370253 0.0210272 0)
(0.00416659 0.0117636 0)
(0.0117159 0.00060006 0)
(0.0179976 -0.0123191 0)
(0.0221552 -0.0261091 0)
(0.011106 0.251463 0)
(0.0203786 0.245989 0)
(0.0236412 0.214124 0)
(0.0230335 0.185408 0)
(0.0199181 0.16006 0)
(0.0152659 0.137848 0)
(0.00989482 0.11871 0)
(0.0045076 0.102501 0)
(-0.000336914 0.0889313 0)
(-0.0042577 0.0776009 0)
(-0.00704729 0.0680857 0)
(-0.00861132 0.0600104 0)
(-0.00888885 0.0530539 0)
(-0.00781339 0.04689 0)
(-0.00534897 0.0411265 0)
(-0.00156495 0.0353185 0)
(0.00333249 0.0290528 0)
(0.00904362 0.0220201 0)
(0.0152308 0.014006 0)
(0.0214964 0.00484879 0)
(0.027311 -0.00551106 0)
(0.0320327 -0.0168658 0)
(0.0351104 -0.0286082 0)
(0.00892612 0.237144 0)
(0.0196386 0.237512 0)
(0.0256865 0.211161 0)
(0.027914 0.185808 0)
(0.0276137 0.162568 0)
(0.0256307 0.141588 0)
(0.022703 0.12296 0)
(0.0194515 0.106667 0)
(0.0163732 0.0925602 0)
(0.0138307 0.0803897 0)
(0.0120593 0.0698578 0)
(0.0111985 0.0606651 0)
(0.0113342 0.0525239 0)
(0.0125201 0.0451383 0)
(0.0147627 0.0381833 0)
(0.0179875 0.0313167 0)
(0.0220238 0.024225 0)
(0.0266233 0.016665 0)
(0.031489 0.00847387 0)
(0.0362733 -0.000435186 0)
(0.0405648 -0.0100402 0)
(0.043921 -0.0201366 0)
(0.0459821 -0.0302916 0)
(0.00744077 0.22425 0)
(0.0185038 0.227635 0)
(0.0263067 0.205749 0)
(0.0308429 0.183521 0)
(0.0330216 0.162416 0)
(0.0334886 0.142814 0)
(0.032858 0.124937 0)
(0.0316563 0.108874 0)
(0.0303149 0.094588 0)
(0.0291662 0.0819415 0)
(0.0284476 0.0707359 0)
(0.0283167 0.060745 0)
(0.0288732 0.0517315 0)
(0.03017 0.0434466 0)
(0.0322086 0.0356279 0)
(0.034924 0.0280117 0)
(0.0381789 0.0203603 0)
(0.041774 0.0124896 0)
(0.045465 0.0042822 0)
(0.0489711 -0.00430524 0)
(0.0519822 -0.0132219 0)
(0.0541909 -0.02229 0)
(0.0553597 -0.0311956 0)
(0.00660472 0.212426 0)
(0.017498 0.217228 0)
(0.0262973 0.198646 0)
(0.0325539 0.179074 0)
(0.0367636 0.159963 0)
(0.039343 0.141779 0)
(0.0407549 0.124816 0)
(0.0414192 0.109232 0)
(0.0416947 0.0950681 0)
(0.0418729 0.0822694 0)
(0.0421769 0.0707139 0)
(0.0427662 0.0602398 0)
(0.0437464 0.0506629 0)
(0.0451747 0.0417852 0)
(0.0470588 0.0334008 0)
(0.0493513 0.0253083 0)
(0.0519479 0.0173295 0)
(0.0546958 0.00932839 0)
(0.0574049 0.00122311 0)
(0.0598602 -0.00700449 0)
(0.0618341 -0.0152982 0)
(0.0631137 -0.0235124 0)
(0.0635424 -0.0314167 0)
(0.00623149 0.201264 0)
(0.0168371 0.206715 0)
(0.0261668 0.190449 0)
(0.0336404 0.172995 0)
(0.0394221 0.155639 0)
(0.0437213 0.138826 0)
(0.0468511 0.122862 0)
(0.0491232 0.107937 0)
(0.0508213 0.0941358 0)
(0.05219 0.0814581 0)
(0.0534283 0.0698382 0)
(0.0546876 0.0591672 0)
(0.0560741 0.0493096 0)
(0.0576503 0.0401143 0)
(0.0594343 0.0314247 0)
(0.0613986 0.02309 0)
(0.063471 0.0149789 0)
(0.0655405 0.00699332 0)
(0.0674677 -0.000921688 0)
(0.0690948 -0.00877009 0)
(0.0702593 -0.0164989 0)
(0.0708165 -0.0239922 0)
(0.0706651 -0.0310795 0)
(0.00620211 0.190384 0)
(0.0165997 0.196229 0)
(0.0262201 0.181555 0)
(0.0345301 0.165734 0)
(0.0414699 0.14987 0)
(0.0470927 0.134333 0)
(0.0515853 0.119397 0)
(0.0551627 0.105248 0)
(0.058038 0.0919893 0)
(0.0604088 0.0796501 0)
(0.0624461 0.0682028 0)
(0.0642881 0.0575787 0)
(0.0660378 0.0476824 0)
(0.0677616 0.0384036 0)
(0.0694887 0.0296272 0)
(0.071211 0.0212431 0)
(0.0728845 0.0131573 0)
(0.0744348 0.00530156 0)
(0.0757653 -0.00235888 0)
(0.076766 -0.00981979 0)
(0.0773256 -0.0170336 0)
(0.0773483 -0.0239088 0)
(0.0767714 -0.0303181 0)
(0.00643942 0.179433 0)
(0.0167806 0.185743 0)
(0.0266044 0.172205 0)
(0.0354811 0.157647 0)
(0.0432314 0.143045 0)
(0.0498108 0.128677 0)
(0.0553141 0.114761 0)
(0.0598796 0.101458 0)
(0.0636617 0.0888668 0)
(0.066816 0.0770288 0)
(0.0694863 0.0659384 0)
(0.071796 0.0555552 0)
(0.0738427 0.0458151 0)
(0.0756951 0.036641 0)
(0.0773916 0.0279516 0)
(0.0789407 0.0196696 0)
(0.080322 0.0117305 0)
(0.0814913 0.00408964 0)
(0.0823866 -0.00327234 0)
(0.0829359 -0.0103453 0)
(0.083067 -0.0170873 0)
(0.0827195 -0.0234256 0)
(0.081858 -0.029264 0)
(0.00684013 0.16812 0)
(0.0172834 0.175143 0)
(0.0273189 0.162529 0)
(0.0365803 0.149004 0)
(0.0448635 0.135496 0)
(0.0520804 0.122204 0)
(0.05827 0.109285 0)
(0.0635187 0.096864 0)
(0.0679378 0.0850213 0)
(0.07165 0.0737973 0)
(0.0747759 0.0631969 0)
(0.0774251 0.0531981 0)
(0.0796888 0.0437603 0)
(0.0816364 0.0348322 0)
(0.083313 0.0263595 0)
(0.0847396 0.0182915 0)
(0.0859145 0.010587 0)
(0.0868169 0.00321982 0)
(0.0874116 -0.00381698 0)
(0.0876556 -0.0105088 0)
(0.0875056 -0.016818 0)
(0.0869268 -0.0226853 0)
(0.0859026 -0.0280369 0)
(0.00724462 0.156295 0)
(0.017915 0.164281 0)
(0.0282195 0.152589 0)
(0.0377499 0.139998 0)
(0.0463555 0.127491 0)
(0.053949 0.115214 0)
(0.0605469 0.10327 0)
(0.0662082 0.0917456 0)
(0.0710184 0.0806973 0)
(0.0750777 0.0701572 0)
(0.0784901 0.0601336 0)
(0.0813534 0.0506157 0)
(0.0837528 0.0415797 0)
(0.0857565 0.0329948 0)
(0.0874137 0.0248281 0)
(0.0887543 0.0170497 0)
(0.0897899 0.00963741 0)
(0.0905167 0.00257998 0)
(0.0909193 -0.00411977 0)
(0.0909761 -0.0104433 0)
(0.0906643 -0.0163558 0)
(0.0899674 -0.0218075 0)
(0.0888817 -0.0267398 0)
(0.00746098 0.144008 0)
(0.0184174 0.153036 0)
(0.0290501 0.142398 0)
(0.0387801 0.130762 0)
(0.0475585 0.119235 0)
(0.0553297 0.107948 0)
(0.0621152 0.0969675 0)
(0.0679689 0.0863421 0)
(0.072966 0.0761085 0)
(0.0771954 0.0662882 0)
(0.0807502 0.0568889 0)
(0.0837196 0.0479074 0)
(0.0861833 0.0393328 0)
(0.0882075 0.0311499 0)
(0.0898429 0.0233431 0)
(0.0911246 0.0158995 0)
(0.092073 0.00881181 0)
(0.092696 0.00208111 0)
(0.0929919 -0.00428177 0)
(0.092954 -0.0102548 0)
(0.092574 -0.0158047 0)
(0.0918478 -0.0208881 0)
(0.0907804 -0.0254566 0)
(0.00734381 0.131541 0)
(0.0185537 0.14137 0)
(0.0295229 0.131961 0)
(0.039402 0.121378 0)
(0.0482495 0.110872 0)
(0.0560564 0.100588 0)
(0.0628686 0.090568 0)
(0.0687518 0.0808401 0)
(0.0737836 0.0714238 0)
(0.0780501 0.0623329 0)
(0.0816387 0.0535751 0)
(0.084633 0.0451534 0)
(0.0871078 0.0370672 0)
(0.0891265 0.0293144 0)
(0.0907397 0.0218935 0)
(0.0919848 0.0148054 0)
(0.0928873 0.00805519 0)
(0.0934622 0.00165378 0)
(0.093717 -0.00438129 0)
(0.0936547 -0.0100249 0)
(0.093277 -0.0152444 0)
(0.092588 -0.0200005 0)
(0.0915983 -0.0242514 0)
(0.00689257 0.11931 0)
(0.0182196 0.129377 0)
(0.0294342 0.121312 0)
(0.0393907 0.111914 0)
(0.0482218 0.102506 0)
(0.0559624 0.0932566 0)
(0.0626912 0.0842057 0)
(0.0684944 0.0753696 0)
(0.0734598 0.066761 0)
(0.0776752 0.0583912 0)
(0.0812265 0.0502705 0)
(0.084193 0.0424086 0)
(0.0866456 0.0348144 0)
(0.0886447 0.0274974 0)
(0.0902393 0.0204679 0)
(0.0914674 0.0137385 0)
(0.0923565 0.00732459 0)
(0.0929258 0.00124505 0)
(0.0931881 -0.00447703 0)
(0.0931527 -0.00981388 0)
(0.0928276 -0.014733 0)
(0.0922223 -0.0191975 0)
(0.0913511 -0.0231701 0)
(0.0062762 0.107681 0)
(0.0174958 0.117287 0)
(0.0287478 0.110569 0)
(0.0386525 0.10246 0)
(0.0473673 0.0942241 0)
(0.0549547 0.0860457 0)
(0.0615217 0.0779692 0)
(0.0671749 0.0700135 0)
(0.072012 0.0621934 0)
(0.0761246 0.054524 0)
(0.0795973 0.0470218 0)
(0.0825066 0.0397044 0)
(0.08492 0.0325906 0)
(0.0868945 0.0257001 0)
(0.0884772 0.0190541 0)
(0.0897049 0.0126752 0)
(0.0906057 0.00658724 0)
(0.0912002 0.000816084 0)
(0.0915041 -0.00461079 0)
(0.0915301 -0.00966351 0)
(0.0912904 -0.0143096 0)
(0.0907979 -0.0185139 0)
(0.0900693 -0.0222416 0)
(0.00571935 0.0968049 0)
(0.016571 0.105398 0)
(0.027575 0.0999431 0)
(0.0372373 0.0931598 0)
(0.0457059 0.0861311 0)
(0.0530492 0.0790337 0)
(0.0593889 0.0719215 0)
(0.0648423 0.0648235 0)
(0.0695125 0.0577634 0)
(0.0734918 0.0507651 0)
(0.0768628 0.0438539 0)
(0.0796992 0.0370568 0)
(0.0820648 0.0304022 0)
(0.0840139 0.02392 0)
(0.0855908 0.0176411 0)
(0.0868305 0.0115972 0)
(0.0877601 0.00581983 0)
(0.0884 0.000340542 0)
(0.0887666 -0.00480972 0)
(0.0888742 -0.0095997 0)
(0.0887375 -0.0139971 0)
(0.0883719 -0.0179683 0)
(0.0877957 -0.02148 0)
(0.00534043 0.0866348 0)
(0.0155954 0.0940015 0)
(0.0260667 0.0896949 0)
(0.0352759 0.0841972 0)
(0.0433525 0.0783484 0)
(0.0503554 0.0723011 0)
(0.0564043 0.0661172 0)
(0.0616148 0.059838 0)
(0.0660872 0.0534992 0)
(0.0699101 0.0471354 0)
(0.0731623 0.0407817 0)
(0.0759135 0.0344747 0)
(0.0782242 0.0282526 0)
(0.0801452 0.0221548 0)
(0.0817183 0.0162216 0)
(0.0829761 0.0104931 0)
(0.0839434 0.00500828 0)
(0.0846387 -0.00019665 0)
(0.0850775 -0.00508815 0)
(0.0852743 -0.00963461 0)
(0.0852452 -0.0138047 0)
(0.0850077 -0.017566 0)
(0.0845816 -0.0208865 0)
(0.00510213 0.0770724 0)
(0.0146012 0.0833181 0)
(0.0243225 0.0800608 0)
(0.0329023 0.0757499 0)
(0.0404576 0.0709968 0)
(0.0470315 0.0659274 0)
(0.0527293 0.0606088 0)
(0.0576545 0.0550932 0)
(0.0618977 0.0494269 0)
(0.0655398 0.0436544 0)
(0.0686536 0.0378199 0)
(0.0713039 0.0319688 0)
(0.0735474 0.0261483 0)
(0.0754319 0.0204071 0)
(0.0769964 0.0147946 0)
(0.0782704 0.00935954 0)
(0.0792755 0.0041476 0)
(0.0800269 -0.000800264 0)
(0.080537 -0.00544911 0)
(0.0808196 -0.00976847 0)
(0.0808914 -0.0137291 0)
(0.0807719 -0.0173005 0)
(0.0804831 -0.0204516 0)
(0.00489256 0.0680884 0)
(0.0135399 0.0734914 0)
(0.0223832 0.0712025 0)
(0.0302232 0.0679484 0)
(0.0371683 0.0641719 0)
(0.0432455 0.0599806 0)
(0.0485408 0.0554455 0)
(0.05314 0.050626 0)
(0.0571203 0.0455758 0)
(0.0605525 0.0403463 0)
(0.0635021 0.0349888 0)
(0.0660287 0.0295561 0)
(0.068185 0.0241032 0)
(0.070016 0.0186876 0)
(0.071558 0.0133677 0)
(0.0728376 0.00820129 0)
(0.0738721 0.00324166 0)
(0.0746713 -0.00146559 0)
(0.0752425 -0.00588543 0)
(0.0755972 -0.00999089 0)
(0.075753 -0.0137568 0)
(0.075732 -0.0171555 0)
(0.0755588 -0.0201564 0)
(0.00462135 0.0597429 0)
(0.0123631 0.064605 0)
(0.0202764 0.0632009 0)
(0.0273307 0.0608632 0)
(0.0336208 0.0579325 0)
(0.0391599 0.0545099 0)
(0.0440139 0.0506692 0)
(0.0482507 0.046473 0)
(0.0519336 0.0419786 0)
(0.0551228 0.0372411 0)
(0.0578762 0.0323163 0)
(0.0602481 0.0272622 0)
(0.0622878 0.0221403 0)
(0.0640383 0.0170162 0)
(0.065534 0.0119576 0)
(0.0667989 0.0070323 0)
(0.0678455 0.00230294 0)
(0.0686759 -0.00217913 0)
(0.0692892 -0.00638049 0)
(0.0696928 -0.0102817 0)
(0.069906 -0.0138646 0)
(0.0699551 -0.0171056 0)
(0.0698683 -0.0199746 0)
(0.00425523 0.0521382 0)
(0.0110717 0.056697 0)
(0.0180572 0.0560758 0)
(0.0243263 0.0545153 0)
(0.0299513 0.0523047 0)
(0.0349332 0.0495455 0)
(0.0393202 0.0463124 0)
(0.0431645 0.0426682 0)
(0.0465168 0.0386701 0)
(0.0494276 0.0343741 0)
(0.0519478 0.0298376 0)
(0.0541266 0.0251218 0)
(0.0560108 0.0202932 0)
(0.0576424 0.015424 0)
(0.0590559 0.0105918 0)
(0.0602747 0.00587608 0)
(0.0613071 0.0013523 0)
(0.0621442 -0.00291902 0)
(0.0627715 -0.00690837 0)
(0.0631908 -0.0106109 0)
(0.0634252 -0.0140204 0)
(0.0635077 -0.0171181 0)
(0.0634719 -0.0198733 0)
(0.00380839 0.045362 0)
(0.00972149 0.0497645 0)
(0.0158201 0.0498058 0)
(0.021334 0.0488931 0)
(0.0263062 0.0472911 0)
(0.0307277 0.0451022 0)
(0.0346329 0.0423989 0)
(0.0380615 0.0392413 0)
(0.0410536 0.0356845 0)
(0.0436513 0.0317829 0)
(0.0458985 0.0275935 0)
(0.0478398 0.0231782 0)
(0.04952 0.0186062 0)
(0.0509818 0.0139548 0)
(0.0522628 0.00931072 0)
(0.0533901 0.0047674 0)
(0.0543711 0.000419617 0)
(0.0551818 -0.00365477 0)
(0.0557851 -0.00743301 0)
(0.0561751 -0.0109382 0)
(0.056384 -0.0141829 0)
(0.0564562 -0.0171531 0)
(0.0564318 -0.019815 0)
(0.00332584 0.0394465 0)
(0.00840953 0.0437597 0)
(0.0136921 0.04434 0)
(0.0184993 0.0439642 0)
(0.0228443 0.0428794 0)
(0.026713 0.0411832 0)
(0.0301309 0.0389433 0)
(0.0331285 0.0362157 0)
(0.0357374 0.0330522 0)
(0.0379914 0.0295047 0)
(0.0399269 0.0256279 0)
(0.0415832 0.021482 0)
(0.0430028 0.0171355 0)
(0.0442302 0.0126677 0)
(0.0453101 0.00817155 0)