/*--------------------------------*- C++ -*----------------------------------*\
  =========                 |
  \\      /  F ield         | OpenFOAM: The Open Source CFD Toolbox
   \\    /   O peration     | Website:  https://openfoam.org
    \\  /    A nd           | Version:  9
     \\/     M anipulation  |
\*---------------------------------------------------------------------------*/
FoamFile
{
    format      ascii;
    class       volVectorField;
    location    "3.57";
    object      U;
}
// * * * * * * * * * * * * * * * * * * * * * * * * * * * * * * * * * * * * * //

dimensions      [0 1 -1 0 0 0 0];

internalField   nonuniform List<vector> 
2268
(
(0.000706234 -0.000541043 0)
(0.00399507 -0.00122777 0)
(0.00862122 -0.00142452 0)
(0.013413 -0.0013891 0)
(0.0180016 -0.00128097 0)
(0.0221965 -0.00113907 0)
(0.025913 -0.00098485 0)
(0.0291047 -0.000820218 0)
(0.0317051 -0.000632692 0)
(0.0336352 -0.000430287 0)
(0.0348668 -0.000236797 0)
(0.0354536 -7.12255e-05 0)
(0.0354782 5.5348e-05 0)
(0.0350693 0.000118116 0)
(0.0344427 8.66832e-05 0)
(0.0336799 -5.55005e-05 0)
(0.0334345 -0.000160287 0)
(0.0308676 0.00201008 0)
(0.0189735 0.00598483 0)
(-0.000204605 0.00524703 0)
(-0.011444 0.00146402 0)
(-0.0120469 -0.00178993 0)
(-0.00515916 -0.00234098 0)
(0.00158893 -0.00166154 0)
(0.00511428 -0.00294454 0)
(0.00952332 -0.00341376 0)
(0.0142117 -0.00342093 0)
(0.0187913 -0.00321759 0)
(0.0230595 -0.00290741 0)
(0.0269006 -0.00254646 0)
(0.0302428 -0.00214333 0)
(0.0330073 -0.00168472 0)
(0.0351084 -0.00118389 0)
(0.0364964 -0.000685291 0)
(0.0371823 -0.00023088 0)
(0.0372176 0.000154851 0)
(0.036657 0.000441671 0)
(0.0355603 0.000603241 0)
(0.0338678 0.000659901 0)
(0.0315745 0.00112124 0)
(0.0275024 0.00507103 0)
(0.0197343 0.0105602 0)
(0.00834913 0.0103863 0)
(-0.000994365 0.0047129 0)
(-0.0059012 -0.00143442 0)
(-0.00545547 -0.00608534 0)
(0.00217114 -0.00338021 0)
(0.00593616 -0.00485408 0)
(0.0102812 -0.00545627 0)
(0.0148722 -0.00550754 0)
(0.0193846 -0.0052287 0)
(0.0236278 -0.00476348 0)
(0.0274801 -0.00420034 0)
(0.0308619 -0.00355728 0)
(0.033687 -0.00281935 0)
(0.0358611 -0.00200494 0)
(0.0373183 -0.00117702 0)
(0.0380441 -0.00039802 0)
(0.0380542 0.000299849 0)
(0.0373589 0.000893328 0)
(0.0359457 0.00137565 0)
(0.0336661 0.00183484 0)
(0.0302305 0.00291807 0)
(0.0256674 0.00764085 0)
(0.0202894 0.0135414 0)
(0.0136629 0.0140344 0)
(0.00668822 0.00804438 0)
(0.000387272 0.000462128 0)
(-0.00268314 -0.00773744 0)
(0.002467 -0.00534575 0)
(0.00653326 -0.00690096 0)
(0.0109468 -0.00755574 0)
(0.0155113 -0.00762394 0)
(0.0199809 -0.0072679 0)
(0.024192 -0.0066527 0)
(0.0280339 -0.00589363 0)
(0.0314306 -0.00501543 0)
(0.0342922 -0.00399902 0)
(0.0365141 -0.00286601 0)
(0.0380162 -0.00169627 0)
(0.0387665 -0.000569871 0)
(0.0387569 0.000476559 0)
(0.0379666 0.00142957 0)
(0.0363418 0.00230984 0)
(0.0337122 0.00326802 0)
(0.029724 0.0049937 0)
(0.0251842 0.0098031 0)
(0.0213417 0.0156289 0)
(0.0174799 0.0165299 0)
(0.012525 0.010974 0)
(0.00620195 0.0031178 0)
(0.00112155 -0.00721758 0)
(0.00261667 -0.00745209 0)
(0.00698235 -0.00905905 0)
(0.0115273 -0.00970339 0)
(0.0161159 -0.0097572 0)
(0.0205689 -0.00931578 0)
(0.0247524 -0.00855231 0)
(0.0285766 -0.00760428 0)
(0.0319782 -0.00649895 0)
(0.0348667 -0.00520846 0)
(0.0371268 -0.00375508 0)
(0.0386651 -0.00223525 0)
(0.0394384 -0.000745773 0)
(0.0394232 0.000674949 0)
(0.0385803 0.00202457 0)
(0.0368422 0.00334787 0)
(0.0340746 0.0048326 0)
(0.0300434 0.00710607 0)
(0.0256979 0.011676 0)
(0.022694 0.0170132 0)
(0.0204861 0.0181267 0)
(0.0169429 0.0134567 0)
(0.0110014 0.00626256 0)
(0.00457718 -0.00463567 0)
(0.0027289 -0.00967519 0)
(0.00735307 -0.0113095 0)
(0.0120298 -0.0118871 0)
(0.0166592 -0.0118925 0)
(0.0211088 -0.0113515 0)
(0.0252664 -0.0104377 0)
(0.0290674 -0.00930803 0)
(0.0324666 -0.00798671 0)
(0.0353756 -0.00643049 0)
(0.0376686 -0.0046593 0)
(0.039241 -0.00278701 0)
(0.0400429 -0.000927627 0)
(0.0400427 0.000880263 0)
(0.0391921 0.00264328 0)
(0.0374292 0.00441888 0)
(0.0346798 0.00639851 0)
(0.0308721 0.00908219 0)
(0.0268704 0.0133625 0)
(0.0242733 0.0179909 0)
(0.0227686 0.019151 0)
(0.020015 0.0155548 0)
(0.0146645 0.00957493 0)
(0.00760716 -0.00036456 0)
(0.00287516 -0.0119911 0)
(0.00768613 -0.0136348 0)
(0.0124496 -0.0141013 0)
(0.0171078 -0.0140315 0)
(0.0215526 -0.0133755 0)
(0.0256804 -0.0123061 0)
(0.0294506 -0.0110006 0)
(0.0328387 -0.00947494 0)
(0.0357606 -0.00766246 0)
(0.0380815 -0.00557731 0)
(0.0396881 -0.00335298 0)
(0.0405282 -0.00112243 0)
(0.0405663 0.00107669 0)
(0.039751 0.00325605 0)
(0.0380347 0.00547166 0)
(0.0354014 0.00789116 0)
(0.0319062 0.0108722 0)
(0.0283059 0.0148857 0)
(0.0258901 0.018843 0)
(0.0244597 0.019968 0)
(0.0220345 0.0173293 0)
(0.0174152 0.0127213 0)
(0.010702 0.00488114 0)
(0.00309835 -0.0144373 0)
(0.00798644 -0.0160445 0)
(0.0127619 -0.0163634 0)
(0.0174192 -0.0162014 0)
(0.0218475 -0.0154172 0)
(0.0259377 -0.0141851 0)
(0.0296676 -0.012706 0)
(0.0330332 -0.0109845 0)
(0.0359564 -0.00892352 0)
(0.0382973 -0.00652678 0)
(0.0399381 -0.00394976 0)
(0.0408276 -0.00134712 0)
(0.040928 0.00124585 0)
(0.0401858 0.00384102 0)
(0.0385696 0.00648006 0)
(0.0361076 0.00928881 0)
(0.0329308 0.0124993 0)
(0.0296722 0.0162979 0)
(0.0272965 0.0197452 0)
(0.0256464 0.0208398 0)
(0.0232121 0.0189456 0)
(0.0189829 0.0156843 0)
(0.014542 0.0134221 0)
(-0.014886 0.00412297 0)
(-0.0147925 -0.0015769 0)
(-0.00721819 -0.00236432 0)
(-0.00301996 -0.00140344 0)
(-0.00132726 -0.000478185 0)
(-0.0025984 0.000455949 0)
(-0.0064163 0.00139892 0)
(-0.0123336 0.00178306 0)
(-0.0184434 0.00132859 0)
(-0.0208782 -0.000717067 0)
(-0.0138393 -0.00191478 0)
(-0.0145631 0.00361559 0)
(-0.0337357 0.00521238 0)
(-0.0400838 -0.00175622 0)
(-0.0149223 -0.0114066 0)
(0.0229808 -0.0107631 0)
(0.0472234 1.3884e-06 0)
(0.030933 0.00732133 0)
(-0.000527258 0.00331071 0)
(-0.00999062 0.00875599 0)
(-0.00853314 -0.00185596 0)
(-0.0061427 -0.00310706 0)
(-0.00582541 -0.00147343 0)
(-0.00727882 0.000284693 0)
(-0.0103703 0.00183785 0)
(-0.0144593 0.00326164 0)
(-0.0196662 0.00382993 0)
(-0.0245108 0.00253477 0)
(-0.0263456 -0.00111099 0)
(-0.0245204 -0.00194907 0)
(-0.0258034 0.00600862 0)
(-0.0313982 0.00632686 0)
(-0.0266422 -0.00530288 0)
(-0.0101301 -0.0196995 0)
(0.0116459 -0.0194885 0)
(0.0303786 -0.00170157 0)
(0.0284761 0.0142636 0)
(0.00500144 0.00937855 0)
(-0.00478065 0.0111323 0)
(-0.00522013 -0.00199114 0)
(-0.00626206 -0.00292747 0)
(-0.00862519 -0.000728421 0)
(-0.0119247 0.00163963 0)
(-0.015921 0.00348861 0)
(-0.0201663 0.00513281 0)
(-0.0248459 0.00574355 0)
(-0.0287842 0.00378837 0)
(-0.0307396 -0.000843031 0)
(-0.0310181 -0.00172171 0)
(-0.0305423 0.0061725 0)
(-0.0284362 0.00455886 0)
(-0.020287 -0.00987758 0)
(-0.00894894 -0.0254534 0)
(0.00341637 -0.0263639 0)
(0.0192765 -0.00585394 0)
(0.0237444 0.0179035 0)
(0.00778638 0.0161472 0)
(-0.00213114 0.0126574 0)
(-0.00369562 -0.00115136 0)
(-0.00742828 -0.00169131 0)
(-0.0117651 0.000799973 0)
(-0.0162815 0.00340692 0)
(-0.0207424 0.00529527 0)
(-0.0249576 0.00697311 0)
(-0.0291453 0.00743396 0)
(-0.0323254 0.0049032 0)
(-0.0343172 -0.000267366 0)
(-0.0354485 -0.00160817 0)
(-0.0331172 0.00467273 0)
(-0.0265747 0.00179647 0)
(-0.0177958 -0.013862 0)
(-0.0104334 -0.029096 0)
(-0.00395496 -0.0313711 0)
(0.00995653 -0.0110198 0)
(0.0201039 0.0198486 0)
(0.00941549 0.0223685 0)
(-0.000263606 0.013597 0)
(-0.00353815 0.000458512 0)
(-0.00949327 0.000460053 0)
(-0.0152904 0.00294609 0)
(-0.0205982 0.00545809 0)
(-0.0251993 0.00714144 0)
(-0.0291567 0.00871264 0)
(-0.0328067 0.00888091 0)
(-0.0352358 0.00581954 0)
(-0.0368735 0.000407233 0)
(-0.0380076 -0.00170428 0)
(-0.0344545 0.00208157 0)
(-0.0257649 -0.00183164 0)
(-0.0175697 -0.0169355 0)
(-0.0133997 -0.0311655 0)
(-0.0106434 -0.0348031 0)
(0.000729108 -0.0171273 0)
(0.0158801 0.0194169 0)
(0.0131523 0.0283039 0)
(0.00212827 0.0141668 0)
(-0.00475275 0.00310536 0)
(-0.0124256 0.00334274 0)
(-0.0192053 0.00546883 0)
(-0.0249252 0.00764638 0)
(-0.0293787 0.00889494 0)
(-0.0328043 0.010257 0)
(-0.0357762 0.0100568 0)
(-0.0374592 0.00646032 0)
(-0.0384109 0.000899072 0)
(-0.0388511 -0.00210559 0)
(-0.0346937 -0.000875818 0)
(-0.0258499 -0.00561088 0)
(-0.0188708 -0.0190955 0)
(-0.0169802 -0.0320961 0)
(-0.0165814 -0.036961 0)
(-0.0083574 -0.0233056 0)
(0.00981104 0.0155651 0)
(0.0175639 0.0342641 0)
(0.00384182 0.0147064 0)
(-0.00763979 0.00690019 0)
(-0.0162449 0.00671717 0)
(-0.0234863 0.008184 0)
(-0.0292628 0.00984266 0)
(-0.0333109 0.0104287 0)
(-0.0359364 0.0114947 0)
(-0.0380284 0.0109277 0)
(-0.0389173 0.0067897 0)
(-0.0390293 0.00103557 0)
(-0.0384817 -0.00286255 0)
(-0.0341031 -0.00373074 0)
(-0.0262564 -0.00889383 0)
(-0.0208283 -0.0205311 0)
(-0.0205751 -0.0321782 0)
(-0.0220194 -0.0380648 0)
(-0.0174705 -0.028708 0)
(0.000641864 0.00804303 0)
(0.0202104 0.039694 0)
(-0.000835402 0.0162572 0)
(-0.0123979 0.0110484 0)
(-0.0209117 0.0102435 0)
(-0.0280677 0.0109239 0)
(-0.0335732 0.0119096 0)
(-0.0370288 0.0116259 0)
(-0.0386413 0.0122565 0)
(-0.039554 0.0113762 0)
(-0.0395139 0.00675253 0)
(-0.038739 0.000756321 0)
(-0.037225 -0.00395088 0)
(-0.0329201 -0.00628296 0)
(-0.0264998 -0.0115081 0)
(-0.0226444 -0.0213293 0)
(-0.0237321 -0.0315016 0)
(-0.0268649 -0.0381155 0)
(-0.025623 -0.032772 0)
(-0.0111167 -0.00149811 0)
(0.0163621 0.0437764 0)
(0.00349881 -0.0187028 0)
(0.00828569 -0.0200222 0)
(0.012988 -0.0200601 0)
(0.0175938 -0.01973 0)
(0.0219722 -0.0187263 0)
(0.0259965 -0.0172277 0)
(0.0296551 -0.0154695 0)
(0.0329633 -0.0134423 0)
(0.0358589 -0.0109979 0)
(0.0382114 -0.00811425 0)
(0.039907 -0.00497982 0)
(0.0408959 -0.00178641 0)
(0.0411306 0.00143705 0)
(0.0405521 0.00469045 0)
(0.039151 0.00797804 0)
(0.0370002 0.0113414 0)
(0.0342809 0.0148624 0)
(0.0314308 0.0184546 0)
(0.0289705 0.0214068 0)
(0.0267246 0.0225901 0)
(0.0237596 0.0216842 0)
(0.0194224 0.0199334 0)
(0.015935 0.0194434 0)
(0.00407087 -0.0246733 0)
(0.00790323 -0.0251013 0)
(0.0124553 -0.0247094 0)
(0.0167914 -0.024131 0)
(0.0209457 -0.0227741 0)
(0.0248943 -0.0208905 0)
(0.0284768 -0.0187675 0)
(0.0316044 -0.0163427 0)
(0.0342883 -0.0134386 0)
(0.0365437 -0.0100326 0)
(0.0383189 -0.00632473 0)
(0.0395279 -0.002499 0)
(0.040047 0.00143057 0)
(0.0397914 0.00541691 0)
(0.0387614 0.00939413 0)
(0.0370176 0.0133099 0)
(0.034735 0.0171609 0)
(0.0321983 0.0207579 0)
(0.0295623 0.023638 0)
(0.0264116 0.0253291 0)
(0.0218523 0.0256636 0)
(0.0152397 0.0252102 0)
(0.00755165 0.0249325 0)
(0.00354007 -0.0288257 0)
(0.00611997 -0.0277584 0)
(0.0115493 -0.0275435 0)
(0.0146174 -0.0271988 0)
(0.0176121 -0.025607 0)
(0.0217065 -0.0232801 0)
(0.0254598 -0.0209417 0)
(0.0281432 -0.0182506 0)
(0.0303746 -0.0150355 0)
(0.032667 -0.0112864 0)
(0.0347517 -0.00729286 0)
(0.0363562 -0.00311487 0)
(0.0372227 0.00131521 0)
(0.0373396 0.0058945 0)
(0.0368003 0.0103514 0)
(0.035324 0.0146382 0)
(0.0331292 0.0187878 0)
(0.0308969 0.022701 0)
(0.02884 0.0259603 0)
(0.0261424 0.0285099 0)
(0.021105 0.0300122 0)
(0.0118537 0.0306336 0)
(-0.000716436 0.0314782 0)
(-0.00216204 -0.0319792 0)
(0.00403361 -0.0291468 0)
(0.01656 -0.0287932 0)
(0.0122012 -0.0276926 0)
(0.00892365 -0.0279477 0)
(0.0154991 -0.0254809 0)
(0.020833 -0.0220189 0)
(0.0211053 -0.0184993 0)
(0.0220338 -0.0164593 0)
(0.0261639 -0.0126892 0)
(0.0296082 -0.0082984 0)
(0.0320173 -0.00378429 0)
(0.0331875 0.00137285 0)
(0.0336868 0.00639085 0)
(0.0351108 0.0109818 0)
(0.0337958 0.0164407 0)
(0.0302699 0.0205395 0)
(0.0282546 0.0243122 0)
(0.0290218 0.026883 0)
(0.0310626 0.030073 0)
(0.0302215 0.0336228 0)
(0.0176253 0.0358895 0)
(-0.00615342 0.0363558 0)
(-0.041704 -0.0212009 0)
(-0.0115719 -0.0704607 0)
(0.0240868 -0.0499577 0)
(0.00579615 -0.00376923 0)
(-0.0145483 -0.0377306 0)
(-0.0108233 -0.0469657 0)
(0.000490413 -0.0354542 0)
(0.00735351 -0.0215733 0)
(0.0139201 -0.0277325 0)
(0.0197672 -0.0241376 0)
(0.0258759 -0.0174638 0)
(0.03183 -0.0105242 0)
(0.0374861 -0.00180787 0)
(0.0439851 0.00273077 0)
(0.0508475 0.00657246 0)
(0.0573622 0.023346 0)
(0.0628034 0.0256982 0)
(0.0709367 0.0254779 0)
(0.0776494 0.025742 0)
(0.0804181 0.0331281 0)
(0.0774714 0.0514657 0)
(0.0550591 0.100516 0)
(-0.0188448 0.113823 0)
(0.0111752 0.0209303 0)
(0.00618764 -0.0799029 0)
(0.0124076 -0.0612057 0)
(0.0374751 0.0112438 0)
(0.0373116 -0.0106686 0)
(0.0268072 -0.0392621 0)
(0.0281382 -0.0387083 0)
(0.0367151 -0.0286958 0)
(0.0381155 -0.0273712 0)
(0.0316351 -0.0229761 0)
(0.0284861 -0.0184466 0)
(0.0288472 -0.0132239 0)
(0.0315598 -0.00742295 0)
(0.0354978 -0.00471296 0)
(0.0383143 -0.00108785 0)
(0.0435543 0.0107878 0)
(0.0516259 0.0116133 0)
(0.0588914 0.0132233 0)
(0.0641279 0.0194625 0)
(0.0608712 0.0346999 0)
(0.0409766 0.0600939 0)
(0.014069 0.137318 0)
(-0.00696868 0.127225 0)
(0.045097 -0.0359663 0)
(0.0302909 -0.0685266 0)
(-0.000498825 -0.0655819 0)
(0.0208984 -0.0272232 0)
(0.0569866 -0.0198511 0)
(0.0684425 -0.0385122 0)
(0.0582202 -0.0387445 0)
(0.0526852 -0.0319857 0)
(0.0487732 -0.0196689 0)
(0.038316 -0.0149691 0)
(0.0304248 -0.0156537 0)
(0.0264843 -0.0129428 0)
(0.0260144 -0.00926948 0)
(0.026654 -0.00606724 0)
(0.0240587 -0.000930023 0)
(0.024115 0.00786451 0)
(0.0237007 0.00865107 0)
(0.0147367 0.0118034 0)
(0.00718645 0.0164755 0)
(0.00832618 0.0457363 0)
(0.00106372 0.0809194 0)
(0.0031133 0.142548 0)
(0.0282719 0.112956 0)
(0.0161765 -0.0676106 0)
(0.0244429 -0.0447554 0)
(-0.00519624 -0.0531202 0)
(0.00347209 -0.0544285 0)
(0.0292386 -0.048918 0)
(0.0441306 -0.0425044 0)
(0.0461309 -0.0293577 0)
(0.0373266 -0.0240883 0)
(0.0279271 -0.00904105 0)
(0.0224661 -0.00475833 0)
(0.0173129 -0.00763135 0)
(0.0121024 -0.00908011 0)
(0.00781941 -0.00805874 0)
(0.00395798 -0.00410805 0)
(-0.00118415 0.0025342 0)
(-0.00689915 0.00921412 0)
(-0.0140475 0.0166244 0)
(-0.0227502 0.0242803 0)
(-0.0263675 0.0194774 0)
(-0.0211085 0.0404016 0)
(-0.00853669 0.0740917 0)
(0.0157376 0.116867 0)
(0.0430872 0.0927669 0)
(-0.0160316 -0.071645 0)
(-0.00509022 -0.0441383 0)
(0.00169867 -0.0470712 0)
(0.00607381 -0.0663401 0)
(0.0075914 -0.0621952 0)
(0.00667983 -0.04782 0)
(0.00531897 -0.0275005 0)
(0.00374216 -0.015321 0)
(0.00165315 -0.00624198 0)
(0.00039742 -0.0029646 0)
(-0.00191446 -0.00366127 0)
(-0.00562982 -0.00399049 0)
(-0.00982543 -0.00241412 0)
(-0.014163 0.00191034 0)
(-0.0184932 0.00891962 0)
(-0.0222855 0.0168881 0)
(-0.0254581 0.0242876 0)
(-0.027562 0.0288333 0)
(-0.0297393 0.020879 0)
(-0.0276721 0.0292924 0)
(-0.0162358 0.054255 0)
(0.00896634 0.0865513 0)
(0.0338883 0.0792572 0)
(-0.00798155 -0.0547447 0)
(-0.00604422 -0.0525568 0)
(-0.00270886 -0.0556993 0)
(-0.00494771 -0.0635075 0)
(-0.0109778 -0.0581313 0)
(-0.0163803 -0.0441065 0)
(-0.0191278 -0.0270644 0)
(-0.0197242 -0.0147642 0)
(-0.0196138 -0.00652855 0)
(-0.0192566 -0.00259888 0)
(-0.019982 -0.00153728 0)
(-0.0221076 -0.000629431 0)
(-0.0250402 0.0014518 0)
(-0.0280941 0.00554944 0)
(-0.0304313 0.0117536 0)
(-0.0313519 0.0186558 0)
(-0.030496 0.0245591 0)
(-0.0279331 0.0270588 0)
(-0.0270118 0.0220919 0)
(-0.0281508 0.0236369 0)
(-0.0238756 0.0400364 0)
(-0.00786193 0.0623016 0)
(0.00951514 0.0671729 0)
(-0.00184912 -0.0541272 0)
(-0.00442447 -0.0526265 0)
(-0.00751835 -0.0540183 0)
(-0.0141791 -0.0552222 0)
(-0.0227145 -0.049429 0)
(-0.029725 -0.0383469 0)
(-0.0336452 -0.0253861 0)
(-0.0348908 -0.0147095 0)
(-0.0347714 -0.00719967 0)
(-0.0342697 -0.00286215 0)
(-0.0344179 -0.000600524 0)
(-0.0354877 0.00123205 0)
(-0.0370554 0.00367883 0)
(-0.0384922 0.00734939 0)
(-0.0390649 0.0122592 0)
(-0.0381942 0.0174761 0)
(-0.0357062 0.021693 0)
(-0.0321819 0.023425 0)
(-0.0299816 0.0220271 0)
(-0.0298274 0.0232906 0)
(-0.0275805 0.0328962 0)
(-0.0186961 0.0472202 0)
(-0.00652363 0.0556916 0)
(-0.00146388 -0.0504323 0)
(-0.00624629 -0.048046 0)
(-0.0126015 -0.0476323 0)
(-0.0210684 -0.046259 0)
(-0.0301358 -0.0409373 0)
(-0.0375419 -0.0323246 0)
(-0.0421768 -0.0224879 0)
(-0.044281 -0.0138327 0)
(-0.0448393 -0.00735113 0)
(-0.0447814 -0.0030556 0)
(-0.044845 -0.000237665 0)
(-0.0452507 0.00204094 0)
(-0.0457786 0.00452896 0)
(-0.0460123 0.00766804 0)
(-0.045446 0.0114435 0)
(-0.0437188 0.0152852 0)
(-0.0408467 0.0183824 0)
(-0.0374596 0.0200357 0)
(-0.0349899 0.0205008 0)
(-0.0337301 0.0226372 0)
(-0.0313206 0.0291082 0)
(-0.0251218 0.0383319 0)
(-0.0159795 0.0454358 0)
(-0.00323633 -0.0458053 0)
(-0.0094604 -0.0413663 0)
(-0.0172868 -0.039493 0)
(-0.0261522 -0.0371615 0)
(-0.0349205 -0.0326479 0)
(-0.0421474 -0.0261387 0)
(-0.0470899 -0.0188255 0)
(-0.0498599 -0.0121291 0)
(-0.0511146 -0.00680705 0)
(-0.0515544 -0.00293279 0)
(-0.051697 -0.000113386 0)
(-0.0517538 0.00219101 0)
(-0.0516622 0.00448767 0)
(-0.0511837 0.00708076 0)
(-0.050023 0.00997086 0)
(-0.048003 0.0128447 0)
(-0.0452223 0.0152715 0)
(-0.0421531 0.0169831 0)
(-0.0395621 0.0183273 0)
(-0.0375632 0.0206856 0)
(-0.0348618 0.0254091 0)
(-0.0298932 0.0316884 0)
(-0.0227562 0.0370011 0)
(-0.00529879 -0.0382231 0)
(-0.012667 -0.033341 0)
(-0.021077 -0.030857 0)
(-0.0297668 -0.0283854 0)
(-0.0379628 -0.0248022 0)
(-0.0447741 -0.0200626 0)
(-0.0497297 -0.014804 0)
(-0.0528734 -0.00984909 0)
(-0.054611 -0.00571257 0)
(-0.0554272 -0.00250665 0)
(-0.055704 -3.82038e-05 0)
(-0.0556384 0.00201584 0)
(-0.0552487 0.00397663 0)
(-0.0544296 0.0060496 0)
(-0.0530401 0.00825867 0)
(-0.0510184 0.0104563 0)
(-0.0484733 0.0124453 0)
(-0.045707 0.0141544 0)
(-0.0431032 0.0158453 0)
(-0.0407084 0.0181792 0)
(-0.0378469 0.0217758 0)
(-0.0336261 0.0262272 0)
(-0.0279571 0.0302646 0)
(-0.0068318 -0.0285838 0)
(-0.015091 -0.0244687 0)
(-0.0237458 -0.0221797 0)
(-0.0321023 -0.0201078 0)
(-0.0397 -0.0175228 0)
(-0.0460252 -0.0142859 0)
(-0.0508089 -0.0107106 0)
(-0.0540744 -0.00726144 0)
(-0.0560747 -0.00427186 0)
(-0.0571383 -0.00185023 0)
(-0.0575478 8.87689e-05 0)
(-0.0574782 0.00173232 0)
(-0.0569916 0.00328019 0)
(-0.0560675 0.00487171 0)
(-0.0546611 0.00654504 0)
(-0.0527724 0.0082475 0)
(-0.0504948 0.00990639 0)
(-0.0480108 0.0115264 0)
(-0.045507 0.0132773 0)
(-0.042977 0.0154837 0)
(-0.0400883 0.0183716 0)
(-0.0363962 0.0217111 0)
(-0.0317764 0.0248545 0)
(-0.00775801 -0.0175536 0)
(-0.0165956 -0.01505 0)
(-0.0253088 -0.0136055 0)
(-0.0333037 -0.0123252 0)
(-0.0403508 -0.0108005 0)
(-0.0461911 -0.00888546 0)
(-0.0507043 -0.00672447 0)
(-0.0539232 -0.00457645 0)
(-0.0560173 -0.00265172 0)
(-0.0572144 -0.00103824 0)
(-0.057726 0.000295483 0)
(-0.0577032 0.00145391 0)
(-0.0572276 0.00256038 0)
(-0.0563265 0.00371019 0)
(-0.0550082 0.00494537 0)
(-0.0533016 0.00626069 0)
(-0.0512801 0.00764171 0)
(-0.0490519 0.0091144 0)
(-0.0467075 0.0107793 0)
(-0.0442278 0.0127868 0)
(-0.0414391 0.0152032 0)
(-0.0381207 0.0178607 0)
(-0.0341931 0.0203806 0)
(-0.00817889 -0.00574933 0)
(-0.0172574 -0.00537221 0)
(-0.0258735 -0.0052163 0)
(-0.0334937 -0.00499881 0)
(-0.0400387 -0.00458799 0)
(-0.0454173 -0.00387968 0)
(-0.0496153 -0.00294473 0)
(-0.0526871 -0.00193193 0)
(-0.054761 -0.000974932 0)
(-0.056004 -0.000141232 0)
(-0.0565786 0.000574588 0)
(-0.0566139 0.00122843 0)
(-0.0561958 0.00189544 0)
(-0.0553747 0.00264049 0)
(-0.0541846 0.00350202 0)
(-0.0526648 0.00449382 0)
(-0.050871 0.00562371 0)
(-0.0488681 0.00691648 0)
(-0.0466999 0.00842496 0)
(-0.0443486 0.0102084 0)
(-0.0417221 0.0122649 0)
(-0.0387092 0.0144646 0)
(-0.0352758 0.0165574 0)
(-0.00819645 0.00625884 0)
(-0.0172044 0.00428085 0)
(-0.0255749 0.00289976 0)
(-0.0327848 0.00188613 0)
(-0.0388504 0.0011516 0)
(-0.0437876 0.000733303 0)
(-0.0476529 0.000578208 0)
(-0.0505221 0.00058933 0)
(-0.0525048 0.000675511 0)
(-0.053732 0.000783301 0)
(-0.0543334 0.000904718 0)
(-0.0544186 0.00106679 0)
(-0.0540703 0.00131345 0)
(-0.0533463 0.0016874 0)
(-0.0522902 0.0022191 0)
(-0.0509422 0.00292586 0)
(-0.0493448 0.00381958 0)
(-0.0475377 0.00491604 0)
(-0.045543 0.00623652 0)
(-0.0433476 0.00779272 0)
(-0.0409033 0.00955318 0)
(-0.0381569 0.0114138 0)
(-0.0351017 0.0132041 0)
(-0.00787371 0.0180031 0)
(-0.0165554 0.0136552 0)
(-0.0245373 0.0106371 0)
(-0.0312772 0.00831236 0)
(-0.0368598 0.00643364 0)
(-0.0413654 0.00495811 0)
(-0.0448918 0.0038203 0)
(-0.0475299 0.00294065 0)
(-0.0493801 0.0022473 0)
(-0.0505517 0.00169338 0)
(-0.0511514 0.00126227 0)
(-0.0512725 0.000962459 0)
(-0.0509902 0.000816653 0)
(-0.0503616 0.0008504 0)
(-0.049431 0.00108424 0)
(-0.0482352 0.0015313 0)
(-0.0468068 0.0021994 0)
(-0.0451715 0.00309373 0)
(-0.0433412 0.00421521 0)
(-0.041308 0.00555096 0)
(-0.0390478 0.00705788 0)
(-0.0365379 0.00865102 0)
(-0.033785 0.0102098 0)
(-0.00731575 0.0291445 0)
(-0.0154305 0.0225286 0)
(-0.0228678 0.0178758 0)
(-0.0290615 0.0142399 0)
(-0.0341408 0.0112552 0)
(-0.0382147 0.00879613 0)
(-0.0414 0.00677065 0)
(-0.0437939 0.00509767 0)
(-0.0454902 0.0037101 0)
(-0.046583 0.00256143 0)
(-0.0471619 0.00162768 0)
(-0.0473065 0.000903974 0)
(-0.0470824 0.000397494 0)
(-0.0465419 0.000119894 0)
(-0.0457253 8.13997e-05 0)
(-0.0446649 0.000287819 0)
(-0.0433857 0.000739933 0)
(-0.0419052 0.00143323 0)
(-0.0402308 0.00235563 0)
(-0.0383588 0.0034817 0)
(-0.0362784 0.00476513 0)
(-0.0339823 0.0061351 0)
(-0.0314825 0.00750197 0)
(-0.00660238 0.0393743 0)
(-0.0139251 0.0306863 0)
(-0.0206631 0.0244899 0)
(-0.026231 0.0196167 0)
(-0.030777 0.0156011 0)
(-0.0344125 0.0122448 0)
(-0.0372554 0.00942482 0)
(-0.039401 0.00704963 0)
(-0.0409349 0.00504885 0)
(-0.0419382 0.00337219 0)
(-0.0424867 0.0019884 0)
(-0.042647 0.000881965 0)
(-0.0424754 4.79109e-05 0)
(-0.0420167 -0.00051367 0)
(-0.041306 -0.000802297 0)
(-0.04037 -0.000820191 0)
(-0.0392281 -0.00057402 0)
(-0.0378927 -7.6276e-05 0)
(-0.0363693 0.000652614 0)
(-0.0346568 0.00158103 0)
(-0.0327519 0.00266297 0)
(-0.0306546 0.0038379 0)
(-0.0283777 0.00503557 0)
(-0.00575414 0.0484583 0)
(-0.0121108 0.0379412 0)
(-0.0180219 0.0303644 0)
(-0.0228886 0.0243861 0)
(-0.0268661 0.0194498 0)
(-0.030053 0.015299 0)
(-0.0325538 0.0117821 0)
(-0.0344528 0.00879443 0)
(-0.0358242 0.00625908 0)
(-0.0367366 0.00412016 0)
(-0.0372526 0.00233931 0)
(-0.037427 0.000892076 0)
(-0.0373061 -0.000236393 0)
(-0.0369272 -0.00105567 0)
(-0.0363189 -0.00157392 0)
(-0.0355026 -0.00180085 0)
(-0.0344931 -0.00174984 0)
(-0.0332997 -0.00143957 0)
(-0.0319264 -0.000895793 0)
(-0.030374 -0.000153061 0)
(-0.0286426 0.000744236 0)
(-0.0267359 0.001743 0)
(-0.0246655 0.00278532 0)
(-0.00479021 0.056203 0)
(-0.0100506 0.04415 0)
(-0.0150363 0.0354025 0)
(-0.0191373 0.0284934 0)
(-0.0225161 0.0227796 0)
(-0.0252475 0.0179549 0)
(-0.0274097 0.0138454 0)
(-0.0290687 0.0103361 0)
(-0.030284 0.00734383 0)
(-0.0311105 0.00480729 0)
(-0.0315978 0.00268174 0)
(-0.0317896 0.000935292 0)
(-0.0317222 -0.00045495 0)
(-0.0314249 -0.00150649 0)
(-0.0309199 -0.00223475 0)
(-0.0302237 -0.00265583 0)
(-0.0293472 -0.00278858 0)
(-0.0282969 -0.0026563 0)
(-0.0270762 -0.00228805 0)
(-0.0256864 -0.00171958 0)
(-0.0241297 -0.000993376 0)
(-0.0224105 -0.000157145 0)
(-0.0205393 0.000739275 0)
(-0.00373507 0.0624523 0)
(-0.00779915 0.0492082 0)
(-0.0117894 0.0395261 0)
(-0.0150802 0.0318961 0)
(-0.017845 0.0255772 0)
(-0.0201234 0.0202143 0)
(-0.0219563 0.0156225 0)
(-0.0233863 0.0116835 0)
(-0.0244559 0.00831137 0)
(-0.0252055 0.00544066 0)
(-0.0256721 0.00302172 0)
(-0.0258878 0.00101675 0)
(-0.0258795 -0.000603459 0)
(-0.0256684 -0.00186263 0)
(-0.0252708 -0.00278194 0)
(-0.024698 -0.00338248 0)
(-0.0239577 -0.00368728 0)
(-0.0230543 -0.00372285 0)
(-0.0219903 -0.0035202 0)
(-0.0207672 -0.00311533 0)
(-0.0193876 -0.00254884 0)
(-0.0178562 -0.00186447 0)
(-0.0161821 -0.00110654 0)
(-0.00255197 0.0670806 0)
(-0.00537077 0.053056 0)
(-0.00835688 0.042697 0)
(-0.0108308 0.0345738 0)
(-0.0129865 0.0278452 0)
(-0.0148257 0.0220871 0)
(-0.0163437 0.0171256 0)
(-0.0175581 0.0128491 0)
(-0.0184943 0.00917296 0)
(-0.0191779 0.00603019 0)
(-0.0196331 0.0033678 0)
(-0.0198807 0.00114378 0)
(-0.0199381 -0.000675632 0)
(-0.019819 -0.00211869 0)
(-0.0195333 -0.00321069 0)
(-0.0190883 -0.00397629 0)
(-0.0184882 -0.00444139 0)
(-0.0177358 -0.00463449 0)
(-0.0168325 -0.0045876 0)
(-0.0157797 -0.0043364 0)
(-0.0145799 -0.00391973 0)
(-0.0132378 -0.00337825 0)
(-0.0117607 -0.00275236 0)
(-0.00111759 0.0699715 0)
(-0.0027281 0.0556952 0)
(-0.00479893 0.044954 0)
(-0.00651787 0.0365528 0)
(-0.00809989 0.0296001 0)
(-0.0095165 0.0235891 0)
(-0.0107339 0.018369 0)
(-0.011746 0.0138459 0)
(-0.0125607 0.00994046 0)
(-0.0131889 0.00658622 0)
(-0.0136415 0.0037288 0)
(-0.0139282 0.0013238 0)
(-0.0140571 -0.000665303 0)
(-0.0140344 -0.00226949 0)
(-0.0138644 -0.00351655 0)
(-0.0135501 -0.00443325 0)
(-0.013093 -0.00504706 0)
(-0.012494 -0.00538748 0)
(-0.0117538 -0.00548673 0)
(-0.0108734 -0.00537984 0)
(-0.00985503 -0.00510402 0)
(-0.00870265 -0.00469747 0)
(-0.00742269 -0.00419757 0)
(0.000531808 0.0707675 0)
(4.21423e-05 0.05721 0)
(-0.00122248 0.0464062 0)
(-0.00227412 0.0379133 0)
(-0.00334136 0.0308729 0)
(-0.00435911 0.0247376 0)
(-0.00528985 0.0193664 0)
(-0.00611158 0.0146861 0)
(-0.00681535 0.0106244 0)
(-0.00739678 0.00711766 0)
(-0.00785355 0.00411189 0)
(-0.0081843 0.00156235 0)
(-0.00838801 -0.000568295 0)
(-0.0084637 -0.00231196 0)
(-0.00841036 -0.00369726 0)
(-0.00822702 -0.00475158 0)
(-0.00791281 -0.00550281 0)
(-0.00746708 -0.00598049 0)
(-0.00688966 -0.00621649 0)
(-0.0061811 -0.00624494 0)
(-0.0053432 -0.00610154 0)
(-0.00437933 -0.00582244 0)
(-0.00329488 -0.00544262 0)
(0.00203193 0.0692675 0)
(0.00264827 0.0577406 0)
(0.00219679 0.0471418 0)
(0.00174332 0.0387305 0)
(0.0011455 0.031706 0)
(0.000497781 0.0255526 0)
(-0.000162558 0.0201317 0)
(-0.000806171 0.0153807 0)
(-0.0014082 0.0112336 0)
(-0.0019492 0.00763094 0)
(-0.00241398 0.00452142 0)
(-0.00279041 0.00186192 0)
(-0.00306879 -0.000383695 0)
(-0.00324134 -0.00224639 0)
(-0.00330206 -0.00375393 0)
(-0.00324649 -0.00493294 0)
(-0.00307154 -0.00581055 0)
(-0.0027753 -0.00641556 0)
(-0.00235692 -0.00677899 0)
(-0.00181654 -0.00693392 0)
(-0.00115543 -0.00691469 0)
(-0.000376312 -0.00675575 0)
(0.000516478 -0.00649007 0)
(0.00310831 0.066019 0)
(0.00479014 0.0571456 0)
(0.00521755 0.0471623 0)
(0.00535495 0.0390275 0)
(0.00521816 0.0321274 0)
(0.00492281 0.0260545 0)
(0.00451513 0.02068 0)
(0.00403716 0.0159401 0)
(0.00352918 0.0117747 0)
(0.00302476 0.00812967 0)
(0.00255123 0.00495834 0)
(0.00213085 0.00222132 0)
(0.00178149 -0.000114372 0)
(0.00151724 -0.00207688 0)
(0.00134871 -0.00369154 0)
(0.00128343 -0.00498281 0)
(0.00132638 -0.00597598 0)
(0.00148043 -0.00669837 0)
(0.00174689 -0.00717976 0)
(0.00212593 -0.00745214 0)
(0.0026168 -0.00754873 0)
(0.00321754 -0.00750257 0)
(0.00392496 -0.00734496 0)
(0.00364519 0.0615665 0)
(0.0062961 0.0554144 0)
(0.00765029 0.0464341 0)
(0.0084231 0.03878 0)
(0.00876032 0.0321419 0)
(0.00880455 0.0262603 0)
(0.00863345 0.0210252 0)
(0.00831028 0.0163735 0)
(0.00789068 0.0122522 0)
(0.00742133 0.00861464 0)
(0.00694086 0.00542053 0)
(0.00648094 0.00263614 0)
(0.00606711 0.000233508 0)
(0.00571923 -0.00181096 0)
(0.00545208 -0.00351854 0)
(0.00527594 -0.00491016 0)
(0.00519724 -0.00600824 0)
(0.00521947 -0.00683791 0)
(0.00534407 -0.00742745 0)
(0.00557134 -0.00780787 0)
(0.00590099 -0.00801153 0)
(0.00633202 -0.00807052 0)
(0.00686253 -0.00801475 0)
(0.00375868 0.0564282 0)
(0.00722642 0.0526833 0)
(0.0094634 0.0449297 0)
(0.010881 0.037957 0)
(0.0116903 0.0317495 0)
(0.0120625 0.0261819 0)
(0.0121159 0.0211779 0)
(0.0119387 0.0166874 0)
(0.0116028 0.0126686 0)
(0.0111679 0.00908467 0)
(0.0106832 0.00590382 0)
(0.0101892 0.00309983 0)
(0.00971853 0.000651534 0)
(0.00929643 -0.00145848 0)
(0.00894148 -0.00324582 0)
(0.00866627 -0.00472654 0)
(0.00847832 -0.00591911 0)
(0.00838126 -0.00684581 0)
(0.00837621 -0.00753323 0)
(0.00846329 -0.00801162 0)
(0.00864264 -0.00831307 0)
(0.00891435 -0.0084692 0)
(0.00927819 -0.00850892 0)
(0.00366438 0.0510037 0)
(0.00776873 0.049144 0)
(0.010754 0.042697 0)
(0.0127522 0.036578 0)
(0.0139963 0.0309651 0)
(0.0146736 0.0258327 0)
(0.0149341 0.0211494 0)
(0.0148901 0.0168892 0)
(0.0146303 0.013027 0)
(0.0142267 0.00953907 0)
(0.0137386 0.00640434 0)
(0.0132145 0.00360587 0)
(0.0126936 0.00113099 0)
(0.012206 -0.00102987 0)
(0.0117738 -0.00288517 0)
(0.0114116 -0.0044447 0)
(0.0111274 -0.00572186 0)
(0.0109247 -0.00673535 0)
(0.0108034 -0.0075099 0)
(0.0107631 -0.00807548 0)
(0.0108041 -0.00846479 0)
(0.0109281 -0.00870972 0)
(0.0111367 -0.00883858 0)
(0.00354862 0.0454777 0)
(0.00811 0.0449922 0)
(0.0116718 0.0398612 0)
(0.0141408 0.0347205 0)
(0.0157451 0.029834 0)
(0.0166775 0.0252427 0)
(0.0171104 0.0209608 0)
(0.0171756 0.0169928 0)
(0.0169761 0.0133356 0)
(0.0165946 0.00998117 0)
(0.016099 0.00692141 0)
(0.0155449 0.00415034 0)
(0.0149771 0.00166529 0)
(0.01443 -0.000533993 0)
(0.0139289 -0.00244739 0)
(0.0134901 -0.00407703 0)
(0.013122 -0.00542996 0)
(0.012827 -0.00652042 0)
(0.0126033 -0.00737101 0)
(0.0124487 -0.00801227 0)
(0.0123639 -0.00847888 0)
(0.0123521 -0.00880409 0)
(0.0124179 -0.00901603 0)
(0.00351791 0.039869 0)
(0.00839547 0.0403998 0)
(0.0123694 0.0365758 0)
(0.0151788 0.0324984 0)
(0.017041 0.0284347 0)
(0.0181534 0.0244664 0)
(0.0187042 0.0206503 0)
(0.01884 0.0170248 0)
(0.0186743 0.0136116 0)
(0.0182977 0.0104212 0)
(0.0177843 0.00745987 0)
(0.017195 0.00473394 0)
(0.0165787 0.00225184 0)
(0.0159738 2.37193e-05 0)
(0.0154082 -0.0019405 0)
(0.0149 -0.00363393 0)
(0.0144581 -0.00505583 0)
(0.0140832 -0.00621458 0)
(0.0137704 -0.00713013 0)
(0.0135145 -0.00783483 0)
(0.0133158 -0.00836764 0)
(0.0131803 -0.00876473 0)
(0.0131162 -0.00905443 0)
(0.00359259 0.0341228 0)
(0.00869454 0.03549 0)
(0.0129551 0.0329864 0)
(0.0159824 0.0300384 0)
(0.017991 0.0268667 0)
(0.019192 0.0235788 0)
(0.0197912 0.0202729 0)
(0.0199471 0.0170242 0)
(0.0197799 0.0138818 0)
(0.0193843 0.0108767 0)
(0.0188375 0.00803061 0)
(0.0182027 0.00536275 0)
(0.0175316 0.0028931 0)
(0.0168653 0.000642661 0)
(0.0162344 -0.00136819 0)
(0.0156592 -0.00312239 0)
(0.0151498 -0.00460965 0)
(0.0147053 -0.00583036 0)
(0.0143159 -0.00680023 0)
(0.0139705 -0.00755532 0)
(0.0136689 -0.00814286 0)
(0.0134211 -0.00860414 0)
(0.0132403 -0.0089677 0)
(0.00372119 0.0281876 0)
(0.00899369 0.0303332 0)
(0.0134755 0.0292034 0)
(0.0166299 0.0274563 0)