/*--------------------------------*- C++ -*----------------------------------*\
  =========                 |
  \\      /  F ield         | OpenFOAM: The Open Source CFD Toolbox
   \\    /   O peration     | Website:  https://openfoam.org
    \\  /    A nd           | Version:  9
     \\/     M anipulation  |
\*---------------------------------------------------------------------------*/
FoamFile
{
    format      ascii;
    class       volScalarField;
    location    "8.02";
    object      nut;
}
// * * * * * * * * * * * * * * * * * * * * * * * * * * * * * * * * * * * * * //

dimensions      [0 2 -1 0 0 0 0];

internalField   nonuniform List<scalar> 
2268
(
9.7386e-06
1.14449e-05
1.38787e-05
1.55308e-05
1.67732e-05
1.77531e-05
1.85453e-05
1.9194e-05
1.97276e-05
2.01729e-05
2.056e-05
2.09112e-05
2.12301e-05
2.14799e-05
2.15723e-05
2.13554e-05
2.07433e-05
1.98161e-05
1.8606e-05
1.722e-05
1.58635e-05
1.36114e-05
9.47564e-06
2.24752e-05
9.34012e-05
0.00012649
0.000147467
0.00016273
0.0001745
0.000183835
0.000191339
0.000197393
0.000202298
0.000206339
0.000209732
0.000212427
0.000214032
0.000213788
0.000210595
0.000202095
0.0001882
0.000172345
0.000157257
0.000144095
0.000106504
2.99587e-05
2.69262e-05
0.00015879
0.000234857
0.000284014
0.000319816
0.000347415
0.000369302
0.000386897
0.000401081
0.000412544
0.00042194
0.000429744
0.000435903
0.000439626
0.000439323
0.000432559
0.00041575
0.000389269
0.00035829
0.000323399
0.000278548
0.000183744
3.54789e-05
3.02287e-05
0.000205387
0.000321423
0.000398754
0.000455592
0.000499567
0.000534505
0.00056262
0.0005853
0.000603616
0.000618547
0.000630774
0.00064026
0.00064595
0.000645674
0.000636074
0.000612848
0.000576764
0.000532566
0.000476527
0.000394208
0.000246663
4.02936e-05
3.28526e-05
0.000240742
0.000391776
0.000495432
0.000572473
0.000632386
0.000680115
0.000718583
0.000749644
0.000774707
0.000795025
0.000811437
0.000823941
0.000831343
0.000831152
0.000819556
0.000791684
0.000748227
0.000692374
0.000615963
0.000497789
0.00030146
4.51443e-05
3.50624e-05
0.000268995
0.000450292
0.000577985
0.000673979
0.000749068
0.000809084
0.000857552
0.000896737
0.000928341
0.000953837
0.000974198
0.000989476
0.000998441
0.000998477
0.000985663
0.000954702
0.000905719
0.000840106
0.000745921
0.000596271
0.000352915
5.05136e-05
3.70127e-05
0.000292483
0.000500025
0.000649496
0.000763084
0.00085247
0.000924169
0.000982206
0.0010292
0.00106711
0.00109759
0.0011217
0.00113961
0.0011501
0.0011506
0.00113721
0.00110459
0.00105188
0.000978948
0.000871247
0.000697077
0.000409797
5.6964e-05
3.88505e-05
0.000312584
0.000543148
0.000712358
0.000842218
0.000945005
0.00102775
0.00109489
0.00114936
0.00119334
0.0012286
0.00125633
0.00127679
0.00128889
0.00129017
0.00127674
0.00124371
0.00118923
0.00111186
0.000996303
0.000808927
0.000488025
6.73704e-05
1.10804e-05
1.65349e-05
1.91256e-05
2.01195e-05
2.0638e-05
2.08707e-05
2.09367e-05
2.09249e-05
2.0557e-05
1.96982e-05
1.85244e-05
1.70906e-05
1.61037e-05
1.60208e-05
1.58612e-05
1.52085e-05
1.34049e-05
1.1162e-05
1.02639e-05
3.48219e-05
0.000128873
0.000172263
0.000192946
0.000202242
0.000206061
0.000206955
0.00020504
0.000198795
0.000186721
0.000170112
0.000153675
0.000146794
0.000151018
0.000152149
0.000142258
0.000119106
8.179e-05
2.41539e-05
3.8085e-05
0.000220237
0.000327718
0.000383674
0.00041029
0.000421392
0.000424147
0.000420161
0.000406621
0.000381778
0.000352269
0.000325396
0.000310553
0.000307587
0.000302132
0.000277188
0.000221868
0.000135139
2.91665e-05
4.13161e-05
0.000279808
0.00045309
0.000548968
0.000596525
0.00061728
0.000623213
0.000617997
0.000598976
0.000565195
0.000527374
0.000493516
0.000469506
0.000453796
0.000435259
0.000392714
0.00030717
0.000177381
3.33593e-05
4.57908e-05
0.000323541
0.000558242
0.0006928
0.000761332
0.000792353
0.000802107
0.000796489
0.00077399
0.00073467
0.000691426
0.00065177
0.000618349
0.000588783
0.00055492
0.000494337
0.000383382
0.000219007
3.70377e-05
5.15259e-05
0.000368486
0.000655521
0.000822726
0.000909597
0.000950013
0.000963449
0.000957885
0.000933377
0.000890984
0.000844
0.000798978
0.000756364
0.000713411
0.000664199
0.000586097
0.000454272
0.000261839
4.04105e-05
5.93384e-05
0.000425852
0.000754797
0.000945495
0.00104615
0.00109399
0.00111036
0.00110484
0.00107922
0.00103533
0.00098554
0.000935378
0.000884028
0.00082866
0.000764799
0.000669556
0.000519494
0.000303065
4.36298e-05
7.19054e-05
0.000509447
0.000863795
0.0010661
0.00117461
0.0012271
0.00124544
0.0012398
0.00121347
0.00116898
0.00111684
0.00106172
0.00100215
0.00093538
0.000857224
0.00074531
0.000577411
0.000336834
4.68766e-05
4.12951e-05
0.000339405
0.000601314
0.000798316
0.000951718
0.00107432
0.00117366
0.00125468
0.00132081
0.00137449
0.00141758
0.00145129
0.00147608
0.00149111
0.001494
0.00148135
0.00144921
0.00139488
0.00131526
0.00119735
0.00101694
0.000744049
0.000380968
4.43538e-05
0.000369782
0.00066634
0.00089477
0.00107534
0.00122117
0.00133993
0.00143722
0.00151726
0.00158289
0.00163587
0.00167732
0.00170788
0.00172686
0.00173283
0.00172346
0.00169606
0.00164816
0.00157672
0.00147412
0.00132753
0.00112235
0.000858762
4.76949e-05
0.000396163
0.000725845
0.000981086
0.00118522
0.00135176
0.00148727
0.00159833
0.00169058
0.0017673
0.00182982
0.00187893
0.00191515
0.00193862
0.0019487
0.00194432
0.0019243
0.00188708
0.00183043
0.00175027
0.00164141
0.00150118
0.00134117
5.24991e-05
0.000421033
0.00079123
0.00106698
0.00129084
0.00147599
0.00162493
0.00174638
0.00184857
0.00193527
0.00200687
0.00206363
0.00210567
0.002134
0.00214876
0.00214995
0.00213796
0.00211204
0.00207099
0.00201239
0.0019353
0.00184357
0.00175075
5.99562e-05
0.000476948
0.000855879
0.0011468
0.00138301
0.00157961
0.00174157
0.00187565
0.00198902
0.00208643
0.0021679
0.00223357
0.00228267
0.00231629
0.00233591
0.00234252
0.00233785
0.00232129
0.00229325
0.00225258
0.00219968
0.00214088
0.00208555
5.67238e-05
0.000466499
0.000873377
0.00117899
0.00142734
0.0016431
0.00182401
0.00197405
0.00210115
0.00221022
0.00230236
0.00237843
0.00243822
0.00248196
0.00250776
0.00251842
0.00251862
0.0025082
0.00248857
0.00246433
0.00243383
0.00240041
0.00237163
0.000276565
0.00056963
0.000911001
0.00121257
0.00147569
0.00170471
0.00189815
0.00206118
0.00219959
0.00231796
0.00241825
0.00250204
0.00257027
0.00262259
0.00265676
0.00267464
0.00268125
0.00267951
0.00267048
0.00265804
0.00264406
0.00262993
0.00261979
0.00029389
0.000594551
0.000943191
0.00125092
0.00152396
0.00176136
0.00196472
0.00213869
0.00228741
0.0024147
0.00252303
0.00261446
0.00269062
0.0027511
0.00279482
0.00282292
0.00283876
0.00284565
0.0028462
0.00284369
0.002841
0.00283952
0.00283983
0.000295206
0.000586386
0.000958759
0.00128317
0.00156649
0.00181275
0.00202545
0.00220907
0.00236739
0.00250366
0.00262041
0.00271995
0.00280425
0.00287335
0.00292652
0.0029647
0.00299031
0.00300612
0.00301525
0.00302095
0.00302591
0.00303137
0.0030374
0.000294709
0.000579988
0.000972617
0.00131151
0.0016052
0.00186039
0.00208199
0.0022746
0.00244193
0.00258698
0.00271214
0.00281979
0.00291194
0.00298906
0.00305101
0.00309867
0.00313367
0.00315826
0.00317529
0.0031878
0.00319829
0.00320795
0.00321679
6.94468e-05
0.00057775
0.000986392
0.00133763
0.00164135
0.00190548
0.00213575
0.00233687
0.00251266
0.00266603
0.00279925
0.00291457
0.00301396
0.00309832
0.00316806
0.00322409
0.00326759
0.00330035
0.00332466
0.00334323
0.00335825
0.0033708
0.0033809
6.94461e-05
0.000579478
0.000999547
0.00136211
0.00167578
0.00194876
0.00218742
0.00239675
0.00258057
0.00274167
0.0028823
0.00300468
0.0031107
0.00320159
0.00327817
0.00334132
0.00339218
0.00343212
0.00346297
0.00348696
0.00350593
0.00352078
0.00353151
0.000295096
0.000586971
0.0010116
0.00138498
0.00170862
0.00199056
0.00223752
0.00245468
0.00264594
0.00281411
0.00296148
0.00309028
0.00320237
0.00329912
0.0033816
0.00345087
0.00350795
0.00355403
0.00359054
0.00361926
0.00364167
0.00365847
0.00366966
0.000295337
0.000589176
0.00102261
0.0014064
0.00173998
0.00203097
0.00228615
0.00251083
0.00270897
0.00288352
0.00303696
0.00317151
0.00328902
0.00339099
0.00347865
0.00355314
0.00361545
0.00366665
0.00370791
0.00374063
0.00376596
0.00378444
0.00379608
0.000295368
0.000589759
0.00103267
0.00142683
0.00177023
0.00207014
0.00233334
0.00256518
0.0027697
0.00295007
0.00310897
0.00324864
0.00337096
0.00347751
0.00356962
0.00364847
0.0037151
0.00377048
0.00381564
0.00385166
0.00387943
0.0038994
0.00391158
6.94904e-05
0.000583467
0.00104247
0.00144685
0.00179982
0.00210836
0.0023792
0.00261773
0.00282814
0.00301383
0.0031776
0.00332178
0.00344829
0.00355878
0.00365464
0.00373711
0.00380723
0.00386598
0.00391426
0.00395297
0.0039828
0.00400413
0.004017
0.00029491
0.00058687
0.00105242
0.00146691
0.00182913
0.00214587
0.00242384
0.00266854
0.00288434
0.00307481
0.00324287
0.00339093
0.00352101
0.0036348
0.00373376
0.00381917
0.00389211
0.00395354
0.00400433
0.00404525
0.00407687
0.00409953
0.00411329
6.95142e-05
0.000583767
0.00106274
0.00148724
0.00185837
0.00218283
0.00246739
0.00271771
0.00293835
0.00313302
0.00330476
0.00345609
0.0035891
0.00370558
0.00380704
0.0038948
0.00396999
0.00403358
0.00408643
0.00412922
0.00416249
0.00418654
0.00420147
0.000295393
0.000588423
0.00107353
0.00150796
0.00188763
0.00221932
0.00250994
0.00276532
0.00299021
0.00318847
0.00336328
0.00351725
0.0036526
0.00377118
0.00387459
0.00396421
0.00404121
0.00410659
0.0041612
0.00420572
0.00424065
0.00426628
0.00428273
6.95193e-05
0.000582735
0.0010847
0.00152899
0.00191688
0.00225534
0.00255149
0.00281137
0.00303991
0.00324116
0.00341843
0.00357446
0.00371158
0.00383175
0.00393665
0.00402773
0.00410623
0.00417318
0.00422944
0.0042757
0.00431244
0.00433997
0.00435838
0.000294666
0.000585467
0.00109614
0.00155025
0.00194606
0.00229085
0.002592
0.00285582
0.00308744
0.00329109
0.00347025
0.0036278
0.00376619
0.00388752
0.00399356
0.00408584
0.00416566
0.00423412
0.0042921
0.00434028
0.00437915
0.00440901
0.00442993
0.000294864
0.000586262
0.00110802
0.00157171
0.0019751
0.00232576
0.00263141
0.00289861
0.00313276
0.00333826
0.00351879
0.00367739
0.00381667
0.00393883
0.00404578
0.00413913
0.00422028
0.00429035
0.00435027
0.00440072
0.0044422
0.00447496
0.00449907
6.96318e-05
0.000585739
0.00112036
0.00159333
0.00200392
0.00235998
0.00266961
0.00293968
0.00317583
0.00338271
0.00356416
0.00372345
0.00386331
0.00398612
0.0040939
0.00418837
0.00427099
0.00434295
0.00440521
0.00445846
0.00450315
0.00453952
0.00456759
6.96589e-05
0.00058733
0.00113286
0.00161499
0.00203237
0.00239337
0.0027065
0.00297895
0.00321664
0.00342448
0.00360653
0.00376624
0.00390654
0.00402995
0.00413863
0.00423441
0.00431883
0.00439314
0.00445831
0.00451502
0.0045637
0.00460451
0.00463739
0.000295578
0.000591759
0.00114574
0.00163657
0.00206028
0.00242577
0.00274194
0.00301634
0.00325521
0.0034637
0.00364611
0.00380612
0.00394684
0.00407095
0.00418077
0.00427823
0.00436496
0.00444224
0.00451105
0.00457205
0.0046256
0.00467178
0.00471043
6.96521e-05
0.000589541
0.00115882
0.00165792
0.00208748
0.00245699
0.0027758
0.00305181
0.00329157
0.0035005
0.00368318
0.00384349
0.00398476
0.00410985
0.00422121
0.00432089
0.00441059
0.00449162
0.00456495
0.00463119
0.00469062
0.00474321
0.00478865
0.000296492
0.000601239
0.00117292
0.00167894
0.00211375
0.00248687
0.00280797
0.00308531
0.00332577
0.00353506
0.00371804
0.00387881
0.00402092
0.00414741
0.00426087
0.00436347
0.00445696
0.00454267
0.00462154
0.00469411
0.00476052
0.00482062
0.00487392
6.97562e-05
0.000603595
0.00118743
0.00169946
0.0021389
0.0025152
0.00283829
0.00311678
0.00335787
0.00356758
0.00375103
0.00391257
0.00405595
0.00418441
0.00430069
0.00440705
0.00450529
0.00459675
0.00468231
0.00476239
0.004837
0.00490577
0.00496804
0.000295756
0.000609595
0.00119967
0.00171855
0.00216248
0.00254167
0.00286655
0.00314613
0.00338792
0.00359824
0.00378248
0.00394522
0.00409046
0.0042216
0.00434154
0.00445263
0.00455673
0.00465514
0.00474865
0.00483753
0.00492162
0.00500031
0.00507269
6.9799e-05
0.000610065
0.00121134
0.00173617
0.00218409
0.00256591
0.00289251
0.00317323
0.00341593
0.0036272
0.00381267
0.0039772
0.00412499
0.00425965
0.00438421
0.00450114
0.00461231
0.00471898
0.00482182
0.00492093
0.00501587
0.00510577
0.00518942
0.00029609
0.000616452
0.00122162
0.00175175
0.00220323
0.00258746
0.00291579
0.00319789
0.00344187
0.00365457
0.00384187
0.00400887
0.00416
0.00429909
0.00442934
0.0045533
0.00467288
0.00478926
0.00490295
0.00501381
0.00512109
0.00522359
0.00531973
6.98309e-05
0.000614978
0.00123026
0.00176475
0.00221915
0.00260564
0.00293589
0.00321979
0.00346561
0.00368038
0.00387022
0.00404046
0.00419581
0.00434032
0.00447737
0.00460965
0.00473907
0.00486674
0.00499296
0.00511728
0.00523857
0.00535516
0.00546507
6.98766e-05
0.000618236
0.00123684
0.00177396
0.00223062
0.00261938
0.00295202
0.00323842
0.00348687
0.00370454
0.00389772
0.00407205
0.00423251
0.00438345
0.00452848
0.00467043
0.00481124
0.00495194
0.00509259
0.00523233
0.00536953
0.00550194
0.00562699
0.000296121
0.00062179
0.00123892
0.0017772
0.00223573
0.00262717
0.00296311
0.0032531
0.00350528
0.00372682
0.00392425
0.00410352
0.00426997
0.00442832
0.00458248
0.00473549
0.00488938
0.00504507
0.00520233
0.00535983
0.00551522
0.00566548
0.00580727
6.9896e-05
0.000616375
0.00123374
0.00177136
0.00223162
0.00262686
0.00296773
0.00326299
0.00352032
0.0037469
0.00394952
0.00413453
0.00430779
0.00447444
0.00463882
0.00480428
0.00497301
0.0051459
0.00532239
0.00550053
0.00567703
0.00584771
0.00600813
6.99155e-05
0.000609125
0.00121746
0.0017515
0.00221399
0.00261543
0.00296407
0.00326706
0.00353144
0.00376439
0.00397311
0.00416457
0.00434524
0.0045209
0.00469644
0.00487566
0.00506107
0.00525364
0.00545256
0.00565507
0.00585658
0.00605116
0.00623257
0.00029589
0.000595463
0.00118189
0.00170884
0.0021763
0.00258891
0.00295006
0.00326436
0.00353813
0.00377885
0.00399449
0.00419288
0.00438133
0.00456641
0.00475374
0.0049478
0.00515167
0.00536668
0.00559193
0.00582385
0.00605594
0.00627941
0.00648498
6.97863e-05
0.000559462
0.00110835
0.00162796
0.00210923
0.00254276
0.00292389
0.00325428
0.00354013
0.00378998
0.0040131
0.00421856
0.00441476
0.00460923
0.00480852
0.00501803
0.00524181
0.00548206
0.00573837
0.00600661
0.00627777
0.006538
0.00677203
0.000297323
0.000464815
0.000957383
0.00148569
0.00200222
0.00247353
0.00288514
0.00323721
0.00353773
0.00379766
0.00402838
0.00424061
0.00444405
0.00464731
0.00485802
0.00508276
0.00532705
0.00559482
0.00588741
0.00620143
0.00652536
0.00683633
0.00710455
8.76858e-05
0.000260958
0.000692183
0.00126364
0.001851
0.00238306
0.00283677
0.00321538
0.00353208
0.00380215
0.00403992
0.00425807
0.00446766
0.00467842
0.00489907
0.00513756
0.00540132
0.00569712
0.00603029
0.00640194
0.00680171
0.0071928
0.00750075
0.000189748
0.000122777
0.00037622
0.000983596
0.00167332
0.00228538
0.00278774
0.00319362
0.0035254
0.00380413
0.00404749
0.00427008
0.00448419
0.00470046
0.00492853
0.00517764
0.00545721
0.00577763
0.00615096
0.00659035
0.00710276
0.00765128
0.00799145
0.000413178
0.000138354
0.000179786
0.000743896
0.00152875
0.00221335
0.00275415
0.00317919
0.00352067
0.0038046
0.00405113
0.00427613
0.00449264
0.00471183
0.00494389
0.00519881
0.0054874
0.00582291
0.00622427
0.00672318
0.007382
0.00834167
0.00862179
7.29077e-05
6.70346e-05
6.64289e-05
7.08782e-05
0.000643929
0.000612173
0.000611439
0.000640629
0.00124295
0.00121289
0.00121045
0.00123539
0.00170393
0.00168753
0.00168543
0.00169805
0.00206067
0.00205365
0.00205493
0.00206217
0.00235936
0.00235623
0.00235856
0.00236473
0.00261752
0.00261833
0.00262097
0.00262468
0.00284243
0.002845
0.00284785
0.00285018
0.00304225
0.00304527
0.00304773
0.00304913
0.00322227
0.00322512
0.0032269
0.00322722
0.00338602
0.00338825
0.00338904
0.00338814
0.00353587
0.00353729
0.00353702
0.00353486
0.00367328
0.00367396
0.00367274
0.00366949
0.00379919
0.00379934
0.00379743
0.00379335
0.00391446
0.00391432
0.00391199
0.00390741
0.00401995
0.00401977
0.00401731
0.00401254
0.00411662
0.00411663
0.00411432
0.00410966
0.00420551
0.00420596
0.00420408
0.00419983
0.00428784
0.00428899
0.00428782
0.0042843
0.00436498
0.00436713
0.00436698
0.00436449
0.00443849
0.00444196
0.00444316
0.00444208
0.00451012
0.00451526
0.00451818
0.00451886
0.00458173
0.00458893
0.00459397
0.0045968
0.00465528
0.00466495
0.00467252
0.00467791
0.00473275
0.00474534
0.00475587
0.00476425
0.00481612
0.00483209
0.00484601
0.0048578
0.00490729
0.00492709
0.00494484
0.00496046
0.00500807
0.00503215
0.00505417
0.00507401
0.00512012
0.00514893
0.00517562
0.00520007
0.00524499
0.00527896
0.00531072
0.00534013
0.00538416
0.00542371
0.00546089
0.00549555
0.00553909
0.0055846
0.00562752
0.00566768
0.00571132
0.00576314
0.00581207
0.00585789
0.00590262
0.00596109
0.00601619
0.00606773
0.00611522
0.00618058
0.00624193
0.00629906
0.00635211
0.00642449
0.00649191
0.00655423
0.00661749
0.00669673
0.00676965
0.00683626
0.0069175
0.00700282
0.00707987
0.00714898
0.00726124
0.00735037
0.00742858
0.00749689
0.007662
0.00774932
0.00782267
0.00788431
0.00813716
0.00820993
0.00826717
0.00831278
0.00870032
0.00873391
0.00875764
0.00877518
0.00036564
0.000754038
0.001061
0.00125678
0.00136824
0.00142394
0.00144351
0.00143729
0.00140969
0.00136452
0.00130881
0.00124591
0.00117396
0.00109035
0.000988883
0.000850712
0.000655611
0.000378629
5.00421e-05
0.000845912
0.00112914
0.00135873
0.00151729
0.00161366
0.00166316
0.00167913
0.00167
0.00164019
0.00159293
0.00153229
0.00145981
0.00137269
0.00126747
0.00113557
0.000964878
0.000735066
0.000416345
5.2265e-05
0.00133021
0.00150327
0.00165767
0.00177347
0.00184772
0.00188579
0.00189487
0.00188067
0.00184672
0.00179547
0.00172921
0.00164584
0.001542
0.00141548
0.00125655
0.00105539
0.000792989
0.000438958
5.26811e-05
0.0017432
0.00184241
0.00193904
0.00201742
0.00206909
0.00209386
0.00209434
0.00207368
0.00203411
0.00197744
0.00190397
0.00180909
0.00168686
0.00154139
0.00135943
0.00113071
0.00083737
0.000453807
5.52609e-05
0.00208425
0.00213814
0.00219738
0.00224494
0.00227477
0.00228502
0.00227552
0.00224696
0.0022
0.00213415
0.00204918
0.0019447
0.00181063
0.00164615
0.00144836
0.00119929
0.000880688
0.000474604
5.8513e-05
0.00237781
0.00240358
0.00243385
0.0024568
0.00246708
0.00246185
0.00243921
0.00239869
0.00234005
0.00226249
0.00216673
0.00205237
0.00191007
0.00174086
0.00153192
0.00126751
0.000930801
0.000500489
5.81942e-05
0.00263072
0.00263976
0.00264907
0.00265274
0.00264646
0.00262705
0.0025912
0.0025366
0.00246423
0.00237378
0.00226586
0.00214186
0.00199467
0.00181634
0.00160154
0.00133253
0.000993007
0.000569273
0.000292453
0.00285258
0.00285102
0.00284498
0.00283308
0.00281289
0.00278066
0.00273065
0.0026621
0.00257613
0.00247252
0.00235185
0.00221435
0.0020539
0.00186462
0.00164064
0.00136545
0.00101588
0.000563565
0.000295551
0.00304901
0.0030405
0.00302415
0.00300018
0.00296763
0.00292246
0.00285899
0.0027774
0.00267827
0.00256119
0.00242573
0.00227126
0.00209408
0.0018898
0.00165288
0.00136837
0.00101119
0.000550376
6.97746e-05
0.00322494
0.00321148
0.00318793
0.00315463
0.00311123
0.00305381
0.00297823
0.00288448
0.00277264
0.00264179
0.00249067
0.00231761
0.00212055
0.00189756
0.00164467
0.00134992
0.000990936
0.000543619
0.000295546
0.00338359
0.00336624
0.00333716
0.00329657
0.00324401
0.00317611
0.00309005
0.00298552
0.00286195
0.00271789
0.00255133
0.00235981
0.00214139
0.00189722
0.0016258
0.00131911
0.000961157
0.000534322
0.000294817
0.00352796
0.00350686
0.00347346
0.00342707
0.00336715
0.00329089
0.00319639
0.00308282
0.00294905
0.00279317
0.00261267
0.00240459
0.00216637
0.00189892
0.00160456
0.00128071
0.000920909
0.000522756
0.000295516
0.00366056
0.00363613
0.00359894
0.00354813
0.00348247
0.0034
0.00329905
0.00317837
0.00303637
0.0028708
0.0026788
0.002457
0.0022024
0.00191438
0.00159591
0.00125007
0.000882056
0.000503503
0.000294763
0.00378291
0.00375592
0.00371579
0.00366152
0.0035918
0.00350495
0.0033994
0.00327358
0.00312558
0.00295294
0.00275255
0.00252085
0.00225435
0.00195084
0.00161158
0.00124219
0.00085825
0.000490385
0.000295005
0.00389602
0.00386737
0.00382527
0.00376871
0.00369638
0.00360678
0.00349831
0.00336926
0.00321753
0.00304054
0.0028351
0.00259755
0.00232402
0.00201125
0.00165834
0.00126947
0.000862587
0.000475365
0.000293634
0.00400076
0.00397134
0.0039283
0.0038706
0.00379701
0.00370609
0.00359627
0.00346574
0.00331236
0.00313351
0.00292605
0.00268634
0.0024104
0.00209448
0.00173607
0.00133626
0.000906807
0.000475868
0.0002922
0.00409805
0.00406873
0.00402571
0.00396798
0.00389434
0.00380339
0.00369359
0.00356311
0.0034098
0.00323111
0.00302398
0.00278491
0.00250997
0.00219521
0.00183717
0.00143375
0.000986685
0.000504599
6.90806e-05
0.00418892
0.00416055
0.0041185
0.00406175
0.00398912
0.00389928
0.00379065
0.00366143
0.0035095
0.00333237
0.00312707
0.00289017
0.00261776
0.00230557
0.001949
0.00154279
0.00107959
0.000556075
0.000296232
0.00427463
0.00424804
0.00420784
0.004153
0.00408236
0.00399455
0.00388803
0.00376098
0.0036113
0.00343652
0.0032337
0.00299934
0.0027293
0.00241864
0.00206116
0.00164831
0.00116707
0.000606124
7.34543e-05
0.00435663
0.00433267
0.00429518
0.00424312
0.0041753
0.00409032
0.00398662
0.00386236
0.00371542
0.00354328
0.00334293
0.00311068
0.00284192
0.00253072
0.00216902
0.00174489
0.00124322
0.000648681
7.71149e-05
0.00443662
0.00441612
0.00438218
0.00433371
0.00426945
0.00418797
0.00408762
0.00396654
0.00382253
0.00365298
0.00345471
0.00322372
0.00295482
0.00264106
0.00227265
0.00183654
0.00131408
0.000687093
8.01866e-05
0.00451642
0.00450026
0.0044707
0.00442658
0.00436656
0.00428911
0.00419253
0.00407485
0.00393376
0.00376653
0.00356973
0.00333904
0.00306862
0.00275094
0.0023751
0.00192593
0.00138238
0.000723864
8.30866e-05
0.00459804
0.00458709
0.00456273
0.00452368
0.00446849
0.00439555
0.00430303
0.00418885
0.00405057
0.00388526
0.00368926
0.003458
0.00318525
0.00286259
0.00247816
0.00201513
0.00145016
0.000760349
8.61533e-05
0.00468351
0.00467865
0.00466028
0.00462698
0.00457718
0.00450915
0.00442092
0.00431028
0.00417463
0.00401089
0.0038152
0.0035826
0.00330649
0.0029778
0.00258373
0.00210599
0.00151906
0.000797491
8.96187e-05
0.00477488
0.00477699
0.00476537
0.00473846
0.00469456
0.00463178
0.00454805
0.00444099
0.00430787
0.00414536
0.00394938
0.00371468
0.00343424
0.00309844
0.00269365
0.00220023
0.00159052
0.000836239
9.3469e-05
0.00487415
0.00488407
0.00487992
0.00485998
0.00482243
0.00476526
0.00468623
0.00458281
0.00445207
0.00429048
0.0040937
0.00385614
0.00357043
0.00322643
0.00280972
0.00229945
0.00166582
0.000877501
9.75952e-05
0.00498319
0.00500172
0.0050057
0.00499329
0.00496251
0.00491123
0.00483708
0.00473736
0.00460893
0.00444802
0.00424998
0.00400891
0.00371701
0.00336366
0.00293372
0.00240515
0.0017461
0.000921909
0.000101975
0.00510374
0.00513162
0.00514432
0.00513987
0.00511621
0.00507109
0.00500201
0.0049061
0.00477999
0.00461963
0.00442002
0.00417488
0.00387596
0.00351209
0.00306745
0.00251887
0.00183247
0.00097006
0.000106561
0.00523739
0.00527524
0.00529712
0.005301
0.00528473
0.005246
0.00518219
0.00509027
0.00496661
0.00480684
0.00460556
0.00435597
0.00404931
0.0036738
0.00321286
0.00264224
0.00192603
0.00102246
0.000111451
0.00538553
0.00543385
0.00546526
0.00547768
0.00546898
0.00543681
0.0053785
0.00529083
0.00516994
0.00501104
0.00480824
0.00455412
0.00423924
0.00385104
0.00337213
0.00277709
0.00202803
0.00107943
0.000116956
0.00554945
0.00560857
0.00564964
0.00567066
0.00566958
0.0056441
0.00559152
0.0055085
0.00539088
0.00523345
0.00502967
0.00477135
0.0044481
0.0040464
0.00354781
0.00292567
0.00214008
0.00114167
0.000123336
0.00573037
0.00580039
0.00585102
0.00588047
0.00588688
0.00586811
0.00582151
0.00574365
0.00563009
0.00547509
0.00527138
0.00500973
0.00467853
0.0042629
0.00374302
0.00309081
0.00226434
0.00121052
0.000130633
0.00592949
0.0060102
0.00606998
0.00610739
0.00612094
0.00610878
0.00606839
0.00599632
0.00588787
0.00573674
0.00553477
0.00527146
0.00493354
0.00450422
0.00396173
0.00327617
0.00240364
0.00128769
0.000138808
0.00614813
0.0062389
0.00630697
0.00635149
0.00637153
0.00636567
0.00633168
0.00626614
0.00616414
0.00601884
0.00582107
0.00555878
0.00521654
0.00477487
0.00420908
0.00348667
0.00256167
0.00137499
0.000147998
0.00638779
0.0064874
0.00656231
0.00661261
0.00663812
0.00663803
0.00661049
0.00655227
0.00645833
0.00632136
0.00613114
0.00587385
0.00553135
0.00508042
0.00449198
0.00372934
0.0027438
0.00147493
0.000158429
0.00665026
0.00675663
0.00683622
0.00689035
0.00691987
0.00692469
0.0069035
0.00685336
0.00676928
0.00664363
0.00646526
0.00621853
0.00588209
0.00542777
0.00481985
0.00401453
0.0029584
0.00159141
0.000170401
0.00693767
0.00704755
0.00712868
0.00718402
0.0072156
0.00722415
0.00720896
0.00716752
0.00709512
0.00698408
0.00682273
0.00659383
0.00627268
0.00582501
0.00520547
0.0043581
0.00321952
0.0017311
0.000184367
0.00725238
0.00736088
0.00743933
0.00749258
0.00752381
0.00753457
0.00752473
0.00749235
0.00743322
0.00734011
0.00720143
0.00699919
0.00670594
0.00628086
0.00566581
0.00478464
0.003552
0.00190655
0.000201198
0.00759658
0.00769678
0.00776721
0.00781447
0.00784265
0.00785384
0.00784841
0.00782502
0.00778025
0.00770785
0.0075973
0.00743133
0.00718173
0.00680267
0.00622174
0.00533229
0.00400259
0.00214554
0.000222374
0.00797128
0.0080541
0.0081104
0.00814761
0.00817
0.00817977
0.00817755
0.00816257
0.00813238
0.00808229
0.00800399
0.00788308
0.00769422
0.00739197
0.00689436
0.00605802
0.00466395
0.00251962
0.000250393
0.00837433
0.0084295
0.00846573
0.00848932
0.00850361
0.00851028
0.00850992
0.0085022
0.00848573
0.00845775
0.00841313
0.00834258
0.00822853
0.00803611
0.00769196
0.00703545
0.00572646
0.00324513
0.000290055
0.00879759
0.00881657
0.00882872
0.00883657
0.00884136
0.00884373
0.0088439
0.00884181
0.00883707
0.00882884
0.00881553
0.0087942
0.008759
0.00869728
0.00857772
0.00830866
0.00757095
0.00520417
0.000343481
)
;

boundaryField
{
    leftWall
    {
        type            nutkWallFunction;
        Cmu             0.09;
        kappa           0.41;
        E               9.8;
        value           nonuniform List<scalar> 
50
(
1.57563e-06
2.57687e-06
3.16548e-06
3.59418e-06
3.93061e-06
4.21134e-06
4.45724e-06
4.6872e-06
4.99218e-06
5.36965e-06
5.77703e-06
6.7437e-08
2.57581e-06
1.14162e-06
0
0
0
0
0
0
0
0
0
0
0
0
0
0
0
0
0
0
3.44078e-09
0
1.325e-08
0
2.12634e-09
0
7.13277e-09
0
1.4514e-09
5.64989e-09
1.90361e-09
6.59969e-09
1.83805e-09
0
2.12783e-08
2.90624e-06
1.83431e-05
4.87343e-05
)
;
    }
    rightWall
    {
        type            nutkWallFunction;
        Cmu             0.09;
        kappa           0.41;
        E               9.8;
        value           nonuniform List<scalar> 
50
(
1.8589e-06
2.79864e-06
3.4545e-06
3.99232e-06
4.45738e-06
4.8791e-06
5.27814e-06
5.67776e-06
6.06505e-06
6.33618e-06
6.38648e-06
2.0667e-07
2.54248e-06
7.01211e-07
0
2.73871e-09
0
3.77171e-09
0
4.74963e-09
0
0
0
1.5428e-09
9.72686e-10
1.58459e-08
5.83196e-07
1.18798e-06
1.69124e-06
2.16323e-06
2.66967e-06
3.23968e-06
3.85555e-06
4.51161e-06
5.20237e-06
5.90369e-06
6.66433e-06
7.52058e-06
8.52034e-06
9.63286e-06
1.0869e-05
1.22463e-05
1.3795e-05
1.55508e-05
1.75712e-05
1.99925e-05
2.30021e-05
2.69226e-05
3.2374e-05
3.95659e-05
)
;
    }
    lowerWall
    {
        type            nutkWallFunction;
        Cmu             0.09;
        kappa           0.41;
        E               9.8;
        value           nonuniform List<scalar> 
62
(
3.94565e-07
1.04033e-06
1.39195e-06
1.62572e-06
1.79929e-06
1.93497e-06
2.04393e-06
2.13272e-06
2.20548e-06
2.26607e-06
2.31863e-06
2.36626e-06
2.40941e-06
2.44317e-06
2.45566e-06
2.42638e-06
2.3432e-06
2.21707e-06
2.05168e-06
1.86113e-06
1.67295e-06
1.3555e-06
7.4953e-07
7.4953e-07
3.56227e-06
4.26731e-06
4.87131e-06
5.47043e-06
6.1265e-06
6.90498e-06
8.13373e-06
8.77461e-06
8.09354e-06
8.02279e-06
8.53775e-06
9.85609e-07
4.17731e-06
4.5884e-06
4.99585e-06
5.55011e-06
6.25115e-06
7.19157e-06
8.66922e-06
9.85609e-07
1.76707e-06
2.12465e-06
2.26038e-06
2.331e-06
2.36251e-06
2.37154e-06
2.37e-06
2.32034e-06
2.20369e-06
2.04305e-06
1.84503e-06
1.70537e-06
1.6934e-06
1.6716e-06
1.58048e-06
1.32423e-06
9.99005e-07
4.17338e-07
)
;
    }
    atmosphere
    {
        type            calculated;
        value           nonuniform List<scalar> 
46
(
0.009
0.000138354
0.000179786
0.000743896
0.00152875
0.00221335
0.00275415
0.00317919
0.00352067
0.0038046
0.00405113
0.00427613
0.00449264
0.00471183
0.00494389
0.00519881
0.0054874
0.00582291
0.00622427
0.00672318
0.007382
0.009
0.009
0.009
0.009
0.009
0.009
0.009
0.009
0.009
0.009
0.009
0.009
0.009
0.009
0.009
0.009
0.009
0.009
0.009
0.009
0.009
0.009
0.009
0.009
0.000343481
)
;
    }
    defaultFaces
    {
        type            empty;
    }
}


// ************************************************************************* //
