/*--------------------------------*- C++ -*----------------------------------*\
  =========                 |
  \\      /  F ield         | OpenFOAM: The Open Source CFD Toolbox
   \\    /   O peration     | Website:  https://openfoam.org
    \\  /    A nd           | Version:  9
     \\/     M anipulation  |
\*---------------------------------------------------------------------------*/
FoamFile
{
    format      ascii;
    class       surfaceScalarField;
    location    "0.8";
    object      phi;
}
// * * * * * * * * * * * * * * * * * * * * * * * * * * * * * * * * * * * * * //

dimensions      [0 3 -1 0 0 0 0];

internalField   nonuniform List<scalar> 
17280
(
6.34771e-10
-6.39975e-10
-1.88693e-12
9.75706e-10
-3.38366e-10
-2.54375e-12
4.3445e-10
5.38723e-10
2.53928e-12
-1.10184e-09
1.52971e-09
6.59003e-12
-3.56669e-09
2.4549e-09
9.95101e-12
-6.81885e-09
3.23926e-09
1.28777e-11
-1.06916e-08
3.85749e-09
1.52474e-11
-1.50162e-08
4.30763e-09
1.7005e-11
-1.96321e-08
4.59766e-09
1.81573e-11
-2.43901e-08
4.73932e-09
1.87386e-11
-2.91542e-08
4.74531e-09
1.87882e-11
-3.38005e-08
4.62791e-09
1.83482e-11
-3.82165e-08
4.39851e-09
1.74627e-11
-4.23002e-08
4.06753e-09
1.61734e-11
-4.59593e-08
3.64464e-09
1.45165e-11
-4.9111e-08
3.13915e-09
1.2527e-11
-5.16818e-08
2.56049e-09
1.02432e-11
-5.36082e-08
1.91868e-09
7.70784e-12
-5.48379e-08
1.22481e-09
4.96635e-12
-5.53314e-08
4.91412e-10
2.0682e-12
-5.50633e-08
-2.67195e-10
-9.30352e-13
-5.40245e-08
-1.0348e-09
-3.96422e-12
-5.22243e-08
-1.79327e-09
-6.96013e-12
-4.96917e-08
-2.52275e-09
-9.83891e-12
-4.64771e-08
-3.20203e-09
-1.25173e-11
-4.26531e-08
-3.80904e-09
-1.49092e-11
-3.83146e-08
-4.32163e-09
-1.69279e-11
-3.35777e-08
-4.71834e-09
-1.84889e-11
-2.85789e-08
-4.97933e-09
-1.95139e-11
-2.34715e-08
-5.08739e-09
-1.9936e-11
-1.8423e-08
-5.02886e-09
-1.97039e-11
-1.36095e-08
-4.79462e-09
-1.87865e-11
-9.21122e-09
-4.38112e-09
-1.7178e-11
-5.40465e-09
-3.79167e-09
-1.49024e-11
-2.35387e-09
-3.03875e-09
-1.20211e-11
-1.96297e-10
-2.14889e-09
-8.68171e-12
9.82682e-10
-1.17382e-09
-5.15862e-12
1.1958e-09
-2.12079e-10
-1.04096e-12
6.51946e-10
5.4023e-10
3.61797e-12
6.51878e-10
6.54217e-14
3.52418e-10
-9.93911e-10
1.54894e-12
-4.93246e-10
5.07624e-10
-3.063e-13
-3.32372e-09
3.37141e-09
-2.19074e-12
-8.36014e-09
6.57134e-09
-5.23797e-12
-1.55138e-08
9.61714e-09
-8.63318e-12
-2.45205e-08
1.22577e-08
-1.17379e-11
-3.50293e-08
1.43805e-08
-1.42753e-11
-4.6656e-08
1.59505e-08
-1.61757e-11
-5.90136e-08
1.69727e-08
-1.74446e-11
-7.17284e-08
1.74722e-08
-1.81099e-11
-8.44482e-08
1.74833e-08
-1.82176e-11
-9.6846e-08
1.70435e-08
-1.78195e-11
-1.08621e-07
1.61901e-08
-1.69633e-11
-1.19497e-07
1.49598e-08
-1.56924e-11
-1.29227e-07
1.33883e-08
-1.4049e-11
-1.37587e-07
1.15111e-08
-1.20753e-11
-1.44381e-07
9.3649e-09
-9.81248e-12
-1.49444e-07
6.98895e-09
-7.30259e-12
-1.52641e-07
4.42631e-09
-4.59141e-12
-1.53873e-07
1.72509e-09
-1.73083e-12
-1.53081e-07
-1.0607e-09
1.22076e-12
-1.50249e-07
-3.87084e-09
4.19899e-12
-1.4541e-07
-6.63894e-09
7.13259e-12
-1.3865e-07
-9.29326e-09
9.94343e-12
-1.30106e-07
-1.1758e-08
1.25478e-11
-1.19975e-07
-1.39551e-08
1.48594e-11
-1.08506e-07
-1.58071e-08
1.6792e-11
-9.60033e-08
-1.72396e-08
1.82634e-11
-8.28168e-08
-1.8185e-08
1.91976e-11
-6.93381e-08
-1.85856e-08
1.95293e-11
-5.59884e-08
-1.83978e-08
1.92066e-11
-4.32058e-08
-1.75953e-08
1.81965e-11
-3.14291e-08
-1.61743e-08
1.64907e-11
-2.10768e-08
-1.41581e-08
1.41174e-11
-1.25204e-08
-1.16063e-08
1.11558e-11
-6.04791e-09
-8.62913e-09
7.74168e-12
-1.80997e-09
-5.41592e-09
4.15632e-12
2.59457e-10
-2.28284e-09
1.35265e-12
5.532e-10
2.46206e-10
3.68139e-13
1.20861e-09
-3.36126e-12
-5.07095e-10
-4.83996e-10
-2.80138e-12
-3.3469e-09
3.34545e-09
1.95837e-12
-9.12839e-09
9.1529e-09
-7.72659e-15
-1.80076e-08
1.54507e-08
-1.63139e-13
-2.98298e-08
2.14393e-08
-1.9272e-14
-4.42361e-08
2.66642e-08
-1.91825e-13
-6.07506e-08
3.08954e-08
-3.89913e-13
-7.88402e-08
3.40407e-08
-5.53121e-13
-9.79548e-08
3.6088e-08
-6.88175e-13
-1.17552e-07
3.70701e-08
-7.82301e-13
-1.37112e-07
3.70438e-08
-8.31786e-13
-1.56144e-07
3.6077e-08
-8.4177e-13
-1.74195e-07
3.42421e-08
-8.16492e-13
-1.90848e-07
3.16129e-08
-7.57796e-13
-2.05722e-07
2.82636e-08
-6.69212e-13
-2.18481e-07
2.42702e-08
-5.56882e-13
-2.28827e-07
1.97119e-08
-4.26917e-13
-2.36512e-07
1.4674e-08
-2.83741e-13
-2.41335e-07
9.24978e-09
-1.3108e-13
-2.43153e-07
3.54262e-09
2.66835e-14
-2.41882e-07
-2.33237e-09
1.8477e-13
-2.37505e-07
-8.24797e-09
3.38718e-13
-2.30079e-07
-1.40653e-08
4.84266e-13
-2.19738e-07
-1.96353e-08
6.16685e-13
-2.06695e-07
-2.48016e-08
7.30869e-13
-1.91246e-07
-2.94047e-08
8.22036e-13
-1.73767e-07
-3.32866e-08
8.86222e-13
-1.54711e-07
-3.62973e-08
9.20271e-13
-1.34595e-07
-3.83011e-08
9.2176e-13
-1.13998e-07
-3.91844e-08
8.89101e-13
-9.35328e-08
-3.88633e-08
8.21614e-13
-7.38369e-08
-3.7292e-08
7.20031e-13
-5.55401e-08
-3.44717e-08
5.89116e-13
-3.92365e-08
-3.04622e-08
4.38876e-13
-2.54454e-08
-2.53977e-08
2.74284e-13
-1.4564e-08
-1.95106e-08
1.25757e-13
-6.80673e-09
-1.31734e-08
1.55102e-13
-2.12902e-09
-6.96077e-09
1.58483e-13
-1.43539e-10
-1.73874e-09
-6.28249e-13
1.06409e-09
1.02165e-12
-1.51608e-09
1.0389e-09
-6.83412e-12
-6.67417e-09
8.49823e-09
5.33595e-12
-1.57283e-08
1.82067e-08
2.91376e-13
-2.86471e-08
2.83695e-08
8.99765e-14
-4.5146e-08
3.79372e-08
9.85378e-13
-6.47554e-08
4.62725e-08
1.23721e-12
-8.68885e-08
5.30271e-08
1.37042e-12
-1.10894e-07
5.80447e-08
1.47769e-12
-1.36096e-07
6.12886e-08
1.52657e-12
-1.61822e-07
6.27946e-08
1.5335e-12
-1.87421e-07
6.26411e-08
1.51035e-12
-2.12275e-07
6.09293e-08
1.45778e-12
-2.35806e-07
5.77717e-08
1.37794e-12
-2.57481e-07
5.32871e-08
1.27638e-12
-2.76817e-07
4.7598e-08
1.15628e-12
-2.93379e-07
4.08319e-08
1.01676e-12
-3.06792e-07
3.31234e-08
8.56536e-13
-3.16736e-07
2.46176e-08
6.76601e-13
-3.2296e-07
1.54732e-08
4.7939e-13
-3.25283e-07
5.86548e-09
2.67116e-13
-3.23603e-07
-4.0118e-09
4.21229e-14
-3.17905e-07
-1.39458e-08
-1.92069e-13
-3.08265e-07
-2.37055e-08
-4.30389e-13
-2.94855e-07
-3.30446e-08
-6.67043e-13
-2.7795e-07
-4.17057e-08
-8.9577e-13
-2.57926e-07
-4.94274e-08
-1.10952e-12
-2.35259e-07
-5.59521e-08
-1.30033e-12
-2.10519e-07
-6.10361e-08
-1.45966e-12
-1.84358e-07
-6.44607e-08
-1.57879e-12
-1.57496e-07
-6.60441e-08
-1.64928e-12
-1.30703e-07
-6.56548e-08
-1.66398e-12
-1.04769e-07
-6.32245e-08
-1.61733e-12
-8.04753e-08
-5.87641e-08
-1.50266e-12
-5.85565e-08
-5.23798e-08
-1.31623e-12
-3.9657e-08
-4.4296e-08
-1.08422e-12
-2.42807e-08
-3.48861e-08
-7.5801e-13
-1.27344e-08
-2.47197e-08
7.99363e-15
-5.06789e-09
-1.46273e-08
4.58727e-14
-1.02138e-09
-5.782e-09
-3.27433e-12
3.79008e-11
4.82374e-12
-2.52518e-09
3.57458e-09
-1.04991e-11
-1.00847e-08
1.60486e-08
9.23439e-12
-2.25209e-08
3.06426e-08
2.61561e-13
-3.95465e-08
4.53958e-08
-7.67596e-13
-6.06978e-08
5.90883e-08
1.45358e-13
-8.5369e-08
7.09436e-08
1.5058e-13
-1.12858e-07
8.05158e-08
7.22929e-14
-1.42405e-07
8.75918e-08
5.04274e-14
-1.73229e-07
9.21121e-08
2.16704e-14
-2.0455e-07
9.41163e-08
-4.12449e-15
-2.35614e-07
9.3705e-08
-1.85253e-14
-2.65699e-07
9.10147e-08
-2.57638e-14
-2.94131e-07
8.62028e-08
-2.70814e-14
-3.20282e-07
7.94384e-08
-1.91425e-14
-3.43584e-07
7.08997e-08
-1.30404e-15
-3.63526e-07
6.07747e-08
2.24333e-14
-3.79666e-07
4.92632e-08
4.76899e-14
-3.9163e-07
3.65811e-08
7.26641e-14
-3.99122e-07
2.29649e-08
9.66152e-14
-4.01931e-07
8.67459e-09
1.17605e-13
-3.99939e-07
-6.00344e-09
1.32898e-13
-3.93129e-07
-2.0756e-08
1.4065e-13
-3.8159e-07
-3.52445e-08
1.40359e-13
-3.65526e-07
-4.91092e-08
1.32004e-13
-3.45256e-07
-6.19758e-08
1.15551e-13
-3.21219e-07
-7.34645e-08
9.13191e-14
-2.93968e-07
-8.32026e-08
6.04898e-14
-2.64167e-07
-9.08377e-08
2.53634e-14
-2.32573e-07
-9.60548e-08
-1.06892e-14
-2.00024e-07
-9.8593e-08
-4.37095e-14
-1.67413e-07
-9.82651e-08
-7.02508e-14
-1.35661e-07
-9.49765e-08
-8.75405e-14
-1.05679e-07
-8.87462e-08
-8.94258e-14
-7.83285e-08
-7.97303e-08
-7.49929e-14
-5.43765e-08
-6.82479e-08
-9.17623e-14
-3.4447e-08
-5.48156e-08
-3.85526e-14
-1.89726e-08
-4.01948e-08
7.09763e-13
-8.15075e-09
-2.54491e-08
3.0183e-14
-1.91866e-09
-1.20074e-08
-6.70942e-12
-1.88877e-09
8.02033e-12
-3.48161e-09
7.07031e-09
-1.41058e-11
-1.34026e-08
2.59566e-08
1.31268e-11
-2.92015e-08
4.64409e-08
5.33464e-13
-5.03075e-08
6.65028e-08
-1.04159e-12
-7.60476e-08
8.48283e-08
1.5187e-13
-1.05657e-07
1.00553e-07
1.4499e-13
-1.38307e-07
1.13166e-07
4.62647e-14
-1.73131e-07
1.22416e-07
3.78602e-14
-2.09249e-07
1.2823e-07
2.51413e-14
-2.45791e-07
1.30658e-07
1.26843e-14
-2.81914e-07
1.29828e-07
8.72818e-15
-3.16814e-07
1.25915e-07
8.46517e-15
-3.49736e-07
1.19124e-07
1.10538e-14
-3.79979e-07
1.09682e-07
2.05017e-14
-4.06905e-07
9.78262e-08
3.76048e-14
-4.29944e-07
8.3813e-08
5.82609e-14
-4.48595e-07
6.79147e-08
7.83567e-14
-4.62441e-07
5.04265e-08
9.67504e-14
-4.71147e-07
3.16712e-08
1.13274e-13
-4.74477e-07
1.20037e-08
1.26171e-13
-4.72294e-07
-8.1866e-09
1.3271e-13
-4.64575e-07
-2.84749e-08
1.31289e-13
-4.51416e-07
-4.84032e-08
1.21964e-13
-4.3304e-07
-6.74858e-08
1.05361e-13
-4.09797e-07
-8.5218e-08
8.18619e-14
-3.82174e-07
-1.01088e-07
5.18876e-14
-3.50781e-07
-1.14595e-07
1.66923e-14
-3.16356e-07
-1.25263e-07
-2.10585e-14
-2.79742e-07
-1.32668e-07
-5.73221e-14
-2.41876e-07
-1.36459e-07
-8.75414e-14
-2.03758e-07
-1.36383e-07
-1.08188e-13
-1.66426e-07
-1.32309e-07
-1.16777e-13
-1.30913e-07
-1.24259e-07
-1.06616e-13
-9.82084e-08
-1.12435e-07
-8.12071e-14
-6.92119e-08
-9.72442e-08
-1.16878e-13
-4.46872e-08
-7.93403e-08
-7.45074e-14
-2.52225e-08
-5.96604e-08
9.32299e-13
-1.11981e-08
-3.94732e-08
-2.07797e-13
-2.77854e-09
-2.04168e-08
-1.01495e-11
-4.67864e-09
1.13299e-11
-4.37375e-09
1.14616e-08
-1.75688e-11
-1.65645e-08
3.81306e-08
1.6811e-11
-3.56394e-08
6.55149e-08
8.32809e-13
-6.07423e-08
9.16068e-08
-1.23808e-12
-9.09765e-08
1.15062e-07
2.35032e-13
-1.25403e-07
1.3498e-07
2.24315e-13
-1.63057e-07
1.5082e-07
1.11494e-13
-2.02959e-07
1.62317e-07
1.19533e-13
-2.44135e-07
1.69405e-07
1.23733e-13
-2.85631e-07
1.72154e-07
1.23478e-13
-3.26527e-07
1.70725e-07
1.27315e-13
-3.65951e-07
1.65338e-07
1.30453e-13
-4.03081e-07
1.56254e-07
1.32427e-13
-4.37158e-07
1.43758e-07
1.37531e-13
-4.67486e-07
1.28155e-07
1.46571e-13
-4.93446e-07
1.09772e-07
1.55498e-13
-5.14492e-07
8.89603e-08
1.60581e-13
-5.30165e-07
6.60994e-08
1.61305e-13
-5.40099e-07
4.16053e-08
1.58119e-13
-5.44029e-07
1.59339e-08
1.49756e-13
-5.41801e-07
-1.04149e-08
1.33924e-13
-5.3338e-07
-3.68965e-08
1.09605e-13
-5.18858e-07
-6.29247e-08
7.76202e-14
-4.98466e-07
-8.78779e-08
3.94307e-14
-4.72574e-07
-1.1111e-07
-3.88225e-15
-4.41697e-07
-1.31966e-07
-5.13916e-14
-4.06491e-07
-1.49801e-07
-1.01385e-13
-3.67749e-07
-1.64005e-07
-1.50593e-13
-3.26387e-07
-1.7403e-07
-1.94222e-13
-2.83428e-07
-1.79419e-07
-2.27041e-13
-2.39971e-07
-1.79839e-07
-2.45233e-13
-1.97166e-07
-1.75113e-07
-2.46321e-13
-1.56172e-07
-1.65253e-07
-2.22739e-13
-1.18115e-07
-1.50492e-07
-1.81534e-13
-8.40403e-08
-1.31318e-07
-2.26315e-13
-5.48745e-08
-1.08506e-07
-1.81651e-13
-3.13856e-08
-8.31504e-08
1.09131e-12
-1.41578e-08
-5.67005e-08
-4.7232e-13
-3.58966e-09
-3.09715e-08
-1.34612e-11
-8.28284e-09
1.45294e-11
-5.20634e-09
1.66888e-08
-2.08501e-11
-1.95616e-08
5.24656e-08
2.02616e-11
-4.17984e-08
8.77506e-08
1.10985e-12
-7.07854e-08
1.20595e-07
-1.4446e-12
-1.05399e-07
1.49676e-07
2.65875e-13
-1.44521e-07
1.74101e-07
2.25379e-13
-1.87039e-07
1.93338e-07
7.6502e-14
-2.31859e-07
2.07137e-07
8.19509e-14
-2.77912e-07
2.15459e-07
8.92751e-14
-3.24166e-07
2.18408e-07
9.29849e-14
-3.69633e-07
2.16191e-07
1.01771e-13
-4.13378e-07
2.09083e-07
1.10389e-13
-4.54527e-07
1.97403e-07
1.1793e-13
-4.9227e-07
1.81501e-07
1.2828e-13
-5.25868e-07
1.61753e-07
1.42e-13
-5.54658e-07
1.38562e-07
1.55037e-13
-5.78056e-07
1.12358e-07
1.63745e-13
-5.95569e-07
8.36124e-08
1.67672e-13
-6.06799e-07
5.28352e-08
1.67316e-13
-6.11454e-07
2.05878e-08
1.61438e-13
-6.09354e-07
-1.2515e-08
1.47742e-13
-6.00446e-07
-4.5804e-08
1.25139e-13
-5.84813e-07
-7.85583e-08
9.43745e-14
-5.62678e-07
-1.10012e-07
5.68905e-14
-5.34418e-07
-1.3937e-07
1.37909e-14
-5.00563e-07
-1.6582e-07
-3.39865e-14
-4.618e-07
-1.88564e-07
-8.47561e-14
-4.18964e-07
-2.06841e-07
-1.35336e-13
-3.73032e-07
-2.19961e-07
-1.81083e-13
-3.25105e-07
-2.27346e-07
-2.16899e-13
-2.7638e-07
-2.28564e-07
-2.39042e-13
-2.2812e-07
-2.23373e-07
-2.44979e-13
-1.81616e-07
-2.11757e-07
-2.26071e-13
-1.38142e-07
-1.93965e-07
-1.922e-13
-9.89132e-08
-1.70547e-07
-2.71556e-13
-6.50362e-08
-1.42383e-07
-2.5049e-13
-3.74799e-08
-1.10708e-07
1.25692e-12
-1.70456e-08
-7.71341e-08
-7.3012e-13
-4.36283e-09
-4.36376e-08
-1.66478e-11
-1.26633e-08
1.76236e-11
-5.98879e-09
2.27016e-08
-2.396e-11
-2.24075e-08
6.88608e-08
2.35009e-11
-4.76864e-08
1.13028e-07
1.37681e-12
-8.04338e-08
1.53344e-07
-1.62781e-12
-1.19304e-07
1.88547e-07
3.05002e-13
-1.62994e-07
2.1779e-07
2.33071e-13
-2.10245e-07
2.40589e-07
4.61083e-14
-2.59845e-07
2.56737e-07
4.49203e-14
-3.1063e-07
2.66244e-07
5.17878e-14
-3.6149e-07
2.69268e-07
5.69014e-14
-4.11376e-07
2.66076e-07
6.89755e-14
-4.59298e-07
2.57006e-07
8.19985e-14
-5.04338e-07
2.42443e-07
9.42752e-14
-5.45645e-07
2.22808e-07
1.09193e-13
-5.82442e-07
1.9855e-07
1.27322e-13
-6.14031e-07
1.70151e-07
1.44883e-13
-6.39797e-07
1.38124e-07
1.58347e-13
-6.59214e-07
1.03029e-07
1.67143e-13
-6.71853e-07
6.54734e-08
1.71624e-13
-6.7739e-07
2.61247e-08
1.70516e-13
-6.75618e-07
-1.42863e-08
1.61455e-13
-6.6646e-07
-5.4963e-08
1.43093e-13
-6.49972e-07
-9.5046e-08
1.15791e-13
-6.26364e-07
-1.33621e-07
8.06874e-14
-5.96002e-07
-1.69732e-07
3.87867e-14
-5.59419e-07
-2.02404e-07
-8.88076e-15
-5.17315e-07
-2.30668e-07
-6.04786e-14
-4.70561e-07
-2.53595e-07
-1.12852e-13
-4.20183e-07
-2.70339e-07
-1.61717e-13
-3.67354e-07
-2.80175e-07
-2.02488e-13
-3.13367e-07
-2.82551e-07
-2.31665e-13
-2.59605e-07
-2.77135e-07
-2.46376e-13
-2.07501e-07
-2.6386e-07
-2.36442e-13
-1.58495e-07
-2.4297e-07
-2.14191e-13
-1.13987e-07
-2.15055e-07
-3.31311e-13
-7.52884e-08
-1.81081e-07
-3.34776e-13
-4.35866e-08
-1.42411e-07
1.40598e-12
-1.99105e-08
-1.00809e-07
-9.8667e-13
-5.11738e-09
-5.84109e-08
-1.97545e-11
-1.78014e-08
2.06821e-11
-6.73074e-09
2.94593e-08
-2.69236e-11
-2.51226e-08
8.72261e-08
2.6558e-11
-5.33292e-08
1.41233e-07
1.62743e-12
-8.97133e-08
1.8973e-07
-1.79698e-12
-1.32714e-07
2.31547e-07
3.48959e-13
-1.80846e-07
2.65922e-07
2.48022e-13
-2.32702e-07
2.92445e-07
2.44396e-14
-2.86951e-07
3.10987e-07
1.55063e-14
-3.42336e-07
3.21629e-07
2.05094e-14
-3.97673e-07
3.24605e-07
2.5821e-14
-4.51853e-07
3.20256e-07
4.01136e-14
-5.03843e-07
3.08995e-07
5.65476e-14
-5.52682e-07
2.91282e-07
7.25751e-14
-5.97487e-07
2.67613e-07
9.10906e-14
-6.37453e-07
2.38516e-07
1.12803e-13
-6.71851e-07
2.04549e-07
1.3434e-13
-7.00038e-07
1.66312e-07
1.5229e-13
-7.21459e-07
1.24449e-07
1.65839e-13
-7.35652e-07
7.96667e-08
1.75113e-13
-7.42263e-07
3.27348e-08
1.78835e-13
-7.41049e-07
-1.55004e-08
1.74638e-13
-7.31896e-07
-6.41157e-08
1.6088e-13
-7.1483e-07
-1.12112e-07
1.37371e-13
-6.9003e-07
-1.58421e-07
1.04703e-13
-6.57839e-07
-2.01923e-07
6.3546e-14
-6.18776e-07
-2.41466e-07
1.49172e-14
-5.73545e-07
-2.75899e-07
-3.9092e-14
-5.23032e-07
-3.04107e-07
-9.51042e-14
-4.68309e-07
-3.25062e-07
-1.49056e-13
-4.10614e-07
-3.3787e-07
-1.96998e-13
-3.51336e-07
-3.41829e-07
-2.35888e-13
-2.91982e-07
-3.36488e-07
-2.62394e-13
-2.34143e-07
-3.217e-07
-2.64132e-13
-1.79439e-07
-2.97674e-07
-2.55105e-13
-1.29477e-07
-2.65017e-07
-4.10114e-13
-8.57952e-08
-2.24763e-07
-4.35618e-13
-4.98186e-08
-1.78389e-07
1.54666e-12
-2.28164e-08
-1.2781e-07
-1.24154e-12
-5.8754e-09
-7.53291e-08
-2.28577e-11
-2.37006e-08
2.37815e-11
-7.44043e-09
3.69295e-08
-2.97649e-11
-2.77276e-08
1.07484e-07
2.94651e-11
-5.87567e-08
1.7226e-07
1.85896e-12
-9.86581e-08
2.29633e-07
-1.96157e-12
-1.45663e-07
2.78551e-07
3.90068e-13
-1.98107e-07
3.18365e-07
2.62526e-13
-2.54437e-07
3.48775e-07
3.72581e-15
-3.13205e-07
3.69754e-07
-1.38932e-14
-3.7306e-07
3.81484e-07
-1.21212e-14
-4.3275e-07
3.84294e-07
-8.0055e-15
-4.9111e-07
3.78617e-07
7.20044e-15
-5.47065e-07
3.64951e-07
2.60861e-14
-5.99626e-07
3.43842e-07
4.53531e-14
-6.47881e-07
3.15868e-07
6.72963e-14
-6.91002e-07
2.81636e-07
9.26387e-14
-7.28238e-07
2.41785e-07
1.18375e-13
-7.58921e-07
1.96995e-07
1.41184e-13
-7.82468e-07
1.47996e-07
1.59946e-13
-7.98387e-07
9.55854e-08
1.74523e-13
-8.06286e-07
4.06334e-08
1.83698e-13
-8.05883e-07
-1.59033e-08
1.85212e-13
-7.97021e-07
-7.29777e-08
1.77214e-13
-7.79681e-07
-1.29452e-07
1.58921e-13
-7.53997e-07
-1.84105e-07
1.30154e-13
-7.20275e-07
-2.35645e-07
9.08639e-14
-6.79005e-07
-2.82736e-07
4.16495e-14
-6.30875e-07
-3.24029e-07
-1.53244e-14
-5.76779e-07
-3.58204e-07
-7.6294e-14
-5.17817e-07
-3.84024e-07
-1.3705e-13
-4.55288e-07
-4.00398e-07
-1.94094e-13
-3.90677e-07
-4.0644e-07
-2.44984e-13
-3.25623e-07
-4.01542e-07
-2.86071e-13
-2.61879e-07
-3.85443e-07
-3.02368e-13
-2.0127e-07
-3.58283e-07
-3.08727e-13
-1.45629e-07
-3.20657e-07
-5.0296e-13
-9.67443e-08
-2.73646e-07
-5.48943e-13
-5.63033e-08
-2.18832e-07
1.68862e-12
-2.5833e-08
-1.58279e-07
-1.49866e-12
-6.65941e-09
-9.44766e-08
-2.6047e-11
-3.0387e-08
2.70033e-11
-8.12429e-09
4.50863e-08
-3.25053e-11
-3.02399e-08
1.29567e-07
3.22522e-11
-6.39962e-08
2.06014e-07
2.07492e-12
-1.07301e-07
2.7294e-07
-2.12255e-12
-1.58183e-07
3.29433e-07
4.2923e-13
-2.14806e-07
3.74988e-07
2.77365e-13
-2.75472e-07
4.09441e-07
-1.52884e-14
-3.38618e-07
4.329e-07
-4.21933e-14
-4.02804e-07
4.4567e-07
-4.47853e-14
-4.6671e-07
4.482e-07
-4.33566e-14
-5.29125e-07
4.41031e-07
-2.88963e-14
-5.88939e-07
4.24765e-07
-8.95017e-15
-6.45135e-07
4.00039e-07
1.26282e-14
-6.96787e-07
3.6752e-07
3.73817e-14
-7.43047e-07
3.27897e-07
6.58565e-14
-7.8315e-07
2.81888e-07
9.5383e-14
-8.16407e-07
2.30251e-07
1.22788e-13
-8.4221e-07
1.73799e-07
1.46664e-13
-8.60037e-07
1.13412e-07
1.66566e-13
-8.69456e-07
5.00527e-08
1.81317e-13
-8.70141e-07
-1.52181e-08
1.88834e-13
-8.61883e-07
-8.12363e-08
1.87216e-13
-8.44605e-07
-1.4673e-07
1.75203e-13
-8.18385e-07
-2.10326e-07
1.51791e-13
-7.83472e-07
-2.70558e-07
1.15891e-13
-7.4031e-07
-3.25898e-07
6.71718e-14
-6.89555e-07
-3.74784e-07
7.41657e-15
-6.32089e-07
-4.1567e-07
-5.93008e-14
-5.69027e-07
-4.47086e-07
-1.28285e-13
-5.01723e-07
-4.67702e-07
-1.96027e-13
-4.31749e-07
-4.76413e-07
-2.60518e-13
-3.60879e-07
-4.72412e-07
-3.17953e-13
-2.91045e-07
-4.55277e-07
-3.50703e-13
-2.24287e-07
-4.2504e-07
-3.74123e-13
-1.62694e-07
-3.8225e-07
-6.09614e-13
-1.08331e-07
-3.28009e-07
-6.75089e-13
-6.3173e-08
-2.63992e-07
1.83775e-12
-2.90311e-08
-1.92419e-07
-1.7654e-12
-7.49149e-09
-1.15987e-07
-2.94144e-11
-3.7909e-08
3.04319e-11
-8.78709e-09
5.39086e-08
-3.5163e-11
-3.26732e-08
1.53418e-07
3.49436e-11
-6.90696e-08
2.42408e-07
2.27975e-12
-1.15668e-07
3.19541e-07
-2.27956e-12
-1.70302e-07
3.84067e-07
4.67143e-13
-2.30963e-07
4.35649e-07
2.92241e-13
-2.95813e-07
4.74292e-07
-3.33391e-14
-3.63177e-07
5.00264e-07
-6.98769e-14
-4.31532e-07
5.14025e-07
-7.75617e-14
-4.99495e-07
5.16163e-07
-8.00199e-14
-5.65813e-07
5.07349e-07
-6.78799e-14
-6.29348e-07
4.883e-07
-4.84049e-14
-6.8907e-07
4.5976e-07
-2.57873e-14
-7.44038e-07
4.22488e-07
6.7475e-16
-7.93399e-07
3.77258e-07
3.12504e-14
-8.36377e-07
3.24866e-07
6.36784e-14
-8.72271e-07
2.66145e-07
9.5091e-14
-9.00451e-07
2.0198e-07
1.23851e-13
-9.20366e-07
1.33327e-07
1.49128e-13
-9.31546e-07
6.12321e-08
1.69625e-13
-9.33613e-07
-1.31512e-08
1.8335e-13
-9.26298e-07
-8.85517e-08
1.88438e-13
-9.09456e-07
-1.63572e-07
1.83361e-13
-8.83094e-07
-2.36689e-07
1.66461e-13
-8.47386e-07
-3.06266e-07
1.35516e-13
-8.02711e-07
-3.70574e-07
8.8822e-14
-7.49669e-07
-4.27826e-07
2.71873e-14
-6.8911e-07
-4.76229e-07
-4.54148e-14
-6.22149e-07
-5.14046e-07
-1.23752e-13
-5.50175e-07
-5.39677e-07
-2.03843e-13
-4.74844e-07
-5.51744e-07
-2.83627e-13
-3.98063e-07
-5.49193e-07
-3.5897e-13
-3.2195e-07
-5.31389e-07
-4.09541e-13
-2.48782e-07
-4.98207e-07
-4.51295e-13
-1.80924e-07
-4.50107e-07
-7.30779e-13
-1.2075e-07
-3.88182e-07
-8.15424e-13
-7.05588e-08
-3.14185e-07
1.99878e-12
-3.24806e-08
-2.30495e-07
-2.05015e-12
-8.39298e-09
-1.40041e-07
-3.30508e-11
-4.63361e-08
3.41518e-11
-9.43225e-09
6.33786e-08
-3.77535e-11
-3.50379e-08
1.78987e-07
3.75579e-11
-7.39938e-08
2.81362e-07
2.47687e-12
-1.23779e-07
3.69328e-07
-2.43325e-12
-1.82033e-07
4.4232e-07
5.02744e-13
-2.4658e-07
5.00196e-07
3.04977e-13
-3.15444e-07
5.43156e-07
-5.31362e-14
-3.86842e-07
5.71662e-07
-9.96436e-14
-4.5917e-07
5.86353e-07
-1.1295e-13
-5.30991e-07
5.87984e-07
-1.2019e-13
-6.01017e-07
5.77375e-07
-1.11615e-13
-6.68093e-07
5.55376e-07
-9.39128e-14
-7.3118e-07
5.22847e-07
-7.14572e-14
-7.89338e-07
4.80646e-07
-4.44338e-14
-8.41716e-07
4.29636e-07
-1.28739e-14
-8.87538e-07
3.70688e-07
2.15041e-14
-9.26097e-07
3.04703e-07
5.63397e-14
-9.56749e-07
2.32632e-07
8.98955e-14
-9.78917e-07
1.55494e-07
1.20919e-13
-9.92091e-07
7.44058e-08
1.47785e-13
-9.95841e-07
-9.40119e-09
1.68338e-13
-9.89831e-07
-9.45617e-08
1.80692e-13
-9.73839e-07
-1.79564e-07
1.83142e-13
-9.4778e-07
-2.62748e-07
1.73688e-13
-9.1174e-07
-3.42306e-07
1.49163e-13
-8.66007e-07
-4.16307e-07
1.0629e-13
-8.11102e-07
-4.82731e-07
4.4316e-14
-7.47818e-07
-5.39513e-07
-3.35715e-14
-6.77245e-07
-5.8462e-07
-1.21975e-13
-6.00785e-07
-6.16136e-07
-2.1626e-13
-5.20167e-07
-6.32362e-07
-3.1377e-13
-4.37423e-07
-6.31937e-07
-4.095e-13
-3.54863e-07
-6.13949e-07
-4.79953e-13
-2.75015e-07
-5.78054e-07
-5.41757e-13
-2.0055e-07
-5.24571e-07
-8.6899e-13
-1.34186e-07
-4.54545e-07
-9.73098e-13
-7.85887e-08
-3.69785e-07
2.17479e-12
-3.62497e-08
-2.72832e-07
-2.36226e-12
-9.38457e-09
-1.66869e-07
-3.70446e-11
-5.5759e-08
3.82473e-11
-1.00624e-08
7.34813e-08
-4.03134e-11
-3.73422e-08
2.06226e-07
4.01069e-11
-7.87822e-08
3.22799e-07
2.66998e-12
-1.31648e-07
4.22196e-07
-2.58311e-12
-1.93385e-07
5.04057e-07
5.36504e-13
-2.61652e-07
5.68461e-07
3.15266e-13
-3.34335e-07
6.15839e-07
-7.57069e-14
-4.09546e-07
6.46873e-07
-1.33085e-13
-4.85607e-07
6.62415e-07
-1.53006e-13
-5.61034e-07
6.63411e-07
-1.66114e-13
-6.34513e-07
6.50855e-07
-1.62256e-13
-7.04882e-07
6.25746e-07
-1.47414e-13
-7.71108e-07
5.89072e-07
-1.26115e-13
-8.32262e-07
5.41801e-07
-9.95211e-14
-8.87507e-07
4.84881e-07
-6.80216e-14
-9.36079e-07
4.1926e-07
-3.27087e-14
-9.77274e-07
3.45899e-07
4.74829e-15
-1.01045e-06
2.65802e-07
4.27369e-14
-1.03499e-06
1.80042e-07
7.97253e-14
-1.05037e-06
8.97868e-08
1.13705e-13
-1.05611e-06
-3.67084e-09
1.42064e-13
-1.05178e-06
-9.88897e-08
1.62661e-13
-1.03708e-06
-1.94262e-07
1.73441e-13
-1.01183e-06
-2.88e-07
1.72325e-13
-9.75993e-07
-3.7814e-07
1.55579e-13
-9.2975e-07
-4.62551e-07
1.18479e-13
-8.73512e-07
-5.38968e-07
5.83193e-14
-8.07985e-07
-6.0504e-07
-2.33014e-14
-7.342e-07
-6.58405e-07
-1.21598e-13
-6.5355e-07
-6.96786e-07
-2.31589e-13
-5.67807e-07
-7.18105e-07
-3.49752e-13
-4.79121e-07
-7.20622e-07
-4.69558e-13
-3.89992e-07
-7.03077e-07
-5.63441e-13
-3.03213e-07
-6.64833e-07
-6.48408e-13
-2.21786e-07
-6.05996e-07
-1.02886e-12
-1.48816e-07
-5.27514e-07
-1.15358e-12
-8.73847e-08
-4.31218e-07
2.36667e-12
-4.04045e-08
-3.19809e-07
-2.71254e-12
-1.04865e-08
-1.96746e-07
-4.14834e-11
-6.62883e-08
4.28019e-11
-1.06799e-08
8.42037e-08
-4.24525e-11
-3.95943e-08
2.35098e-07
4.25959e-11
-8.34481e-08
3.6665e-07
2.86562e-12
-1.39289e-07
4.7804e-07
-2.72554e-12
-2.04366e-07
5.69133e-07
5.72049e-13
-2.76165e-07
6.4026e-07
3.25818e-13
-3.52439e-07
6.92113e-07
-9.95028e-14
-4.31198e-07
7.25632e-07
-1.6981e-13
-5.10695e-07
7.41912e-07
-1.98327e-13
-5.89407e-07
7.42123e-07
-2.18983e-13
-6.66008e-07
7.27455e-07
-2.21218e-13
-7.3934e-07
6.99078e-07
-2.10317e-13
-8.08388e-07
6.58121e-07
-1.91047e-13
-8.72252e-07
6.05665e-07
-1.65708e-13
-9.30123e-07
5.42753e-07
-1.35192e-13
-9.81264e-07
4.704e-07
-1.00028e-13
-1.02499e-06
3.89624e-07
-6.11115e-14
-1.06065e-06
3.01469e-07
-1.96897e-14
-1.08765e-06
2.07043e-07
2.2767e-14
-1.10542e-06
1.07547e-07
6.41456e-14
-1.1134e-06
4.31623e-09
1.01434e-13
-1.11114e-06
-1.01157e-07
1.31333e-13
-1.09821e-06
-2.0719e-07
1.51607e-13
-1.07432e-06
-3.11892e-07
1.59949e-13
-1.0393e-06
-4.13153e-07
1.52351e-13
-9.932e-07
-5.08654e-07
1.23024e-13
-9.36284e-07
-5.95884e-07
6.72666e-14
-8.69134e-07
-6.7219e-07
-1.55729e-14
-7.92684e-07
-7.34854e-07
-1.22336e-13
-7.08279e-07
-7.8119e-07
-2.48524e-13
-6.17707e-07
-8.08677e-07
-3.90004e-13
-5.23208e-07
-8.1512e-07
-5.38339e-13
-4.27465e-07
-7.9882e-07
-6.608e-13
-3.33546e-07
-7.58752e-07
-7.74091e-13
-2.44812e-07
-6.94729e-07
-1.21585e-12
-1.64798e-07
-6.07526e-07
-1.36398e-12
-9.70627e-08
-4.98956e-07
2.57331e-12
-4.50094e-08
-3.7186e-07
-3.11348e-12
-1.17188e-08
-2.2999e-07
-4.6455e-11
-7.8055e-08
4.78994e-11
-1.12876e-08
9.55366e-08
-4.52416e-11
-4.18042e-08
2.65569e-07
4.51135e-11
-8.80086e-08
4.12851e-07
3.07698e-12
-1.46721e-07
5.36755e-07
-2.85372e-12
-2.14983e-07
6.37394e-07
6.14865e-13
-2.90107e-07
7.15384e-07
3.40217e-13
-3.69706e-07
7.71713e-07
-1.2257e-13
-4.51694e-07
8.0762e-07
-2.09133e-13
-5.3426e-07
8.24479e-07
-2.49154e-13
-6.15853e-07
8.23717e-07
-2.79587e-13
-6.95147e-07
8.0675e-07
-2.89541e-13
-7.71005e-07
7.74937e-07
-2.83743e-13
-8.42449e-07
7.29564e-07
-2.6732e-13
-9.08622e-07
6.71838e-07
-2.43849e-13
-9.68763e-07
6.02894e-07
-2.14914e-13
-1.02218e-06
5.23815e-07
-1.80684e-13
-1.06822e-06
4.35663e-07
-1.41408e-13
-1.10626e-06
3.39512e-07
-9.78756e-14
-1.1357e-06
2.36485e-07
-5.11458e-14
-1.15595e-06
1.27797e-07
-2.95228e-15
-1.16643e-06
1.47952e-08
4.35614e-14
-1.16659e-06
-1.01001e-07
8.40837e-14
-1.15591e-06
-2.17863e-07
1.15491e-13
-1.13398e-06
-3.33822e-07
1.34904e-13
-1.10049e-06
-4.4665e-07
1.38079e-13
-1.05529e-06
-5.53853e-07
1.18541e-13
-9.98488e-07
-6.52684e-07
6.98637e-14
-9.30496e-07
-7.40182e-07
-1.11708e-14
-8.52106e-07
-8.13244e-07
-1.23969e-13
-7.64564e-07
-8.68732e-07
-2.65676e-13
-6.69627e-07
-9.03614e-07
-4.32407e-13
-5.69595e-07
-9.15151e-07
-6.13964e-13
-4.67312e-07
-9.01101e-07
-7.71526e-13
-3.66121e-07
-8.59942e-07
-9.20686e-13
-2.6977e-07
-7.91079e-07
-1.43534e-12
-1.82272e-07
-6.95023e-07
-1.6123e-12
-1.07731e-07
-5.73499e-07
2.79205e-12
-5.01267e-08
-4.2946e-07
-3.57957e-12
-1.31015e-08
-2.66963e-07
-5.20491e-11
-9.12101e-08
5.36251e-11
-1.18901e-08
1.07474e-07
-4.76475e-11
-4.39873e-08
2.97619e-07
4.76167e-11
-9.24902e-08
4.61351e-07
3.3051e-12
-1.53975e-07
5.98242e-07
-2.96713e-12
-2.25261e-07
7.0868e-07
6.67744e-13
-3.03476e-07
7.93598e-07
3.60277e-13
-3.86092e-07
8.54329e-07
-1.44586e-13
-4.70923e-07
8.92451e-07
-2.51664e-13
-5.56107e-07
9.09663e-07
-3.06586e-13
-6.40076e-07
9.07687e-07
-3.49196e-13
-7.21518e-07
8.88193e-07
-3.68509e-13
-7.99338e-07
8.52757e-07
-3.68938e-13
-8.72613e-07
8.02839e-07
-3.56074e-13
-9.40553e-07
7.39779e-07
-3.34796e-13
-1.00247e-06
6.64807e-07
-3.07495e-13
-1.05772e-06
5.79072e-07
-2.74235e-13
-1.10573e-06
4.8367e-07
-2.34945e-13
-1.14591e-06
3.79689e-07
-1.90173e-13
-1.17767e-06
2.6825e-07
-1.40448e-13
-1.20043e-06
1.50554e-07
-8.66356e-14
-1.21357e-06
2.79352e-08
-3.14097e-14
-1.21648e-06
-9.80949e-08
2.06179e-14
-1.20854e-06
-2.25796e-07
6.49106e-14
-1.18921e-06
-3.53157e-07
9.75406e-14
-1.158e-06
-4.77863e-07
1.13669e-13
-1.11457e-06
-5.97275e-07
1.06199e-13
-1.05883e-06
-7.08425e-07
6.7269e-14
-9.90966e-07
-8.08049e-07
-8.88775e-15
-9.11568e-07
-8.92643e-07
-1.24881e-13
-8.21725e-07
-9.58574e-07
-2.8069e-13
-7.23106e-07
-1.00223e-06
-4.73964e-13
-6.18019e-07
-1.02024e-06
-6.93503e-13
-5.09435e-07
-1.00968e-06
-8.93938e-13
-4.00963e-07
-9.68413e-07
-1.08912e-12
-2.96755e-07
-8.95286e-07
-1.69248e-12
-2.01354e-07
-7.90422e-07
-1.90734e-12
-1.1949e-07
-6.55366e-07
3.01875e-12
-5.58178e-08
-4.93129e-07
-4.12768e-12
-1.4655e-08
-3.08068e-07
-5.83595e-11
-1.05925e-07
6.00668e-11
-1.24947e-08
1.20019e-07
-5.01043e-11
-4.61681e-08
3.31242e-07
5.01582e-11
-9.69358e-08
5.12115e-07
3.55963e-12
-1.61103e-07
6.62413e-07
-3.06275e-12
-2.35247e-07
7.82823e-07
7.34194e-13
-3.16293e-07
8.74644e-07
3.87062e-13
-4.01563e-07
9.396e-07
-1.66511e-13
-4.88778e-07
9.79665e-07
-2.99256e-13
-5.76028e-07
9.96914e-07
-3.72704e-13
-6.61747e-07
9.93405e-07
-4.29727e-13
-7.44656e-07
9.71102e-07
-4.59672e-13
-8.23723e-07
9.31824e-07
-4.67058e-13
-8.98104e-07
8.77221e-07
-4.58103e-13
-9.67103e-07
8.08778e-07
-4.38955e-13
-1.03012e-06
7.27825e-07
-4.12788e-13
-1.08662e-06
6.35569e-07
-3.79713e-13
-1.13608e-06
5.33135e-07
-3.39692e-13
-1.178e-06
4.21607e-07
-2.93496e-13
-1.21183e-06
3.02081e-07
-2.41387e-13
-1.237e-06
1.7572e-07
-1.83138e-13
-1.25287e-06
4.38109e-08
-1.20194e-13
-1.25879e-06
-9.21772e-08
-5.67858e-14
-1.25405e-06
-2.30533e-07
1.62678e-15
-1.23796e-06
-3.69248e-07
4.97632e-14
-1.20986e-06
-5.05964e-07
8.16345e-14
-1.1692e-06
-6.37934e-07
8.91682e-14
-1.11562e-06
-7.62005e-07
6.30721e-14
-1.04905e-06
-8.74622e-07
-4.94322e-15
-9.69812e-07
-9.71879e-07
-1.21092e-13
-8.78768e-07
-1.04962e-06
-2.89228e-13
-7.77418e-07
-1.10358e-06
-5.10002e-13
-6.68008e-07
-1.12965e-06
-7.72518e-13
-5.53584e-07
-1.12411e-06
-1.025e-12
-4.37993e-07
-1.084e-06
-1.27939e-12
-3.25802e-07
-1.00748e-06
-1.99239e-12
-2.22133e-07
-8.94089e-07
-2.25899e-12
-1.32431e-07
-7.45071e-07
3.24736e-12
-6.2143e-08
-5.63411e-07
-4.77827e-12
-1.64005e-08
-3.53745e-07
-6.54867e-11
-1.22393e-07
6.7317e-11
-1.31126e-08
1.33184e-07
-5.26372e-11
-4.83845e-08
3.66461e-07
5.28061e-11
-1.01413e-07
5.65139e-07
3.8576e-12
-1.68193e-07
7.29197e-07
-3.13503e-12
-2.45026e-07
8.59655e-07
8.19651e-13
-3.28614e-07
9.58231e-07
4.22207e-13
-4.16119e-07
1.02711e-06
-1.89653e-13
-5.05166e-07
1.06871e-06
-3.54514e-13
-5.93815e-07
1.08556e-06
-4.50434e-13
-6.80514e-07
1.0801e-06
-5.23709e-13
-7.64046e-07
1.05464e-06
-5.64672e-13
-8.43467e-07
1.01125e-06
-5.78663e-13
-9.18044e-07
9.51799e-07
-5.72968e-13
-9.87199e-07
8.77934e-07
-5.55112e-13
-1.05046e-06
7.91084e-07
-5.28996e-13
-1.1074e-06
6.92513e-07
-4.94735e-13
-1.15762e-06
5.83359e-07
-4.52464e-13
-1.20071e-06
4.64689e-07
-4.03578e-13
-1.23618e-06
3.37552e-07
-3.48605e-13
-1.2635e-06
2.03044e-07
-2.86465e-13
-1.28206e-06
6.23713e-08
-2.16977e-13
-1.29116e-06
-8.30814e-08
-1.43128e-13
-1.29001e-06
-2.31678e-07
-7.03579e-14
-1.2778e-06
-3.81462e-07
-4.97151e-15
-1.25368e-06
-5.30086e-07
4.56246e-14
-1.21686e-06
-6.74751e-07