/*--------------------------------*- C++ -*----------------------------------*\
  =========                 |
  \\      /  F ield         | OpenFOAM: The Open Source CFD Toolbox
   \\    /   O peration     | Website:  https://openfoam.org
    \\  /    A nd           | Version:  9
     \\/     M anipulation  |
\*---------------------------------------------------------------------------*/
FoamFile
{
    format      ascii;
    class       volVectorField;
    location    "0.8";
    object      U;
}
// * * * * * * * * * * * * * * * * * * * * * * * * * * * * * * * * * * * * * //

dimensions      [0 1 -1 0 0 0 0];

internalField   nonuniform List<vector> 
6400
(
(6.05054e-05 -6.06978e-05 -5.28355e-07)
(0.000153193 -5.43236e-05 4.73177e-05)
(0.000144711 -4.52567e-06 0.000157138)
(-1.96564e-05 5.24603e-05 0.000301423)
(-0.000342889 0.000104301 0.000453897)
(-0.000805461 0.000146885 0.000595922)
(-0.00138131 0.000179471 0.000714375)
(-0.002043 0.000202619 0.000800386)
(-0.00276389 0.000217262 0.000848354)
(-0.00351909 0.000224369 0.00085512)
(-0.00428574 0.00022482 0.000819343)
(-0.00504303 0.000219371 0.000741059)
(-0.00577208 0.000208657 0.000621373)
(-0.00645574 0.00019321 0.000462256)
(-0.0070785 0.000173485 0.000266428)
(-0.00762633 0.000149893 3.72842e-05)
(-0.0080867 0.000122834 -0.000221131)
(-0.00844863 9.2729e-05 -0.000504137)
(-0.00870282 6.00519e-05 -0.000806429)
(-0.00884186 2.53521e-05 -0.0011221)
(-0.00886048 -1.07245e-05 -0.0014447)
(-0.00875587 -4.74245e-05 -0.00176729)
(-0.00852798 -8.38837e-05 -0.00208259)
(-0.00817981 -0.000119135 -0.00238316)
(-0.00771769 -0.000152125 -0.00266153)
(-0.00715145 -0.00018174 -0.00291055)
(-0.00649449 -0.000206845 -0.0031236)
(-0.00576374 -0.000226319 -0.00329494)
(-0.00497951 -0.000239107 -0.00342001)
(-0.00416508 -0.000244265 -0.00349576)
(-0.00334629 -0.000240999 -0.00352096)
(-0.00255083 -0.000228706 -0.00349652)
(-0.00180744 -0.000207009 -0.00342575)
(-0.00114498 -0.000175801 -0.00331467)
(-0.000591129 -0.000135352 -0.0031723)
(-0.000170665 -8.66062e-05 -0.00301105)
(9.7122e-05 -3.19986e-05 -0.00284694)
(0.00020365 2.27574e-05 -0.00270025)
(0.000167099 6.41123e-05 -0.00259664)
(5.88838e-05 5.86645e-05 -0.00221413)
(5.59428e-05 -0.000154719 -4.87381e-05)
(5.54852e-05 -5.27469e-05 -5.24852e-07)
(-0.000223546 0.00020473 0.000102655)
(-0.000850902 0.000497772 0.000232707)
(-0.00183311 0.000774861 0.000369642)
(-0.00313794 0.00101243 0.000497331)
(-0.00471344 0.00120141 0.000603544)
(-0.00649922 0.00134003 0.000679387)
(-0.00843274 0.00142992 0.000718786)
(-0.0104527 0.00147416 0.000717969)
(-0.0125007 0.00147632 0.000675008)
(-0.0145224 0.00144004 0.000589444)
(-0.0164674 0.00136874 0.000462006)
(-0.0182898 0.00126565 0.000294423)
(-0.0199475 0.00113379 8.92829e-05)
(-0.0214028 0.000976117 -0.000150039)
(-0.0226223 0.000795631 -0.000419432)
(-0.0235767 0.000595531 -0.000714079)
(-0.0242421 0.000379341 -0.00102849)
(-0.0245994 0.00015103 -0.00135653)
(-0.024636 -8.48995e-05 -0.00169151)
(-0.0243457 -0.000323376 -0.00202626)
(-0.0237298 -0.000558755 -0.00235331)
(-0.0227974 -0.000784883 -0.002665)
(-0.0215666 -0.000995208 -0.00295378)
(-0.0200639 -0.00118295 -0.00321243)
(-0.0183251 -0.0013413 -0.00343436)
(-0.0163946 -0.0014637 -0.00361394)
(-0.014325 -0.00154413 -0.00374681)
(-0.012176 -0.00157738 -0.00383024)
(-0.010013 -0.00155938 -0.00386339)
(-0.00790536 -0.0014875 -0.00384761)
(-0.00592399 -0.00136092 -0.00378671)
(-0.00413834 -0.00118107 -0.00368712)
(-0.00261281 -0.000952392 -0.00355808)
(-0.0014018 -0.000683809 -0.0034117)
(-0.000543073 -0.0003919 -0.00326285)
(-4.73276e-05 -0.000106696 -0.00312909)
(0.000120637 0.000116767 -0.00303105)
(6.53609e-05 0.000167052 -0.00252175)
(8.36348e-06 -0.000150525 -0.000159503)
(-0.000198735 0.00022438 -0.000102851)
(-0.000875874 0.000876874 2.01378e-06)
(-0.00205122 0.00160129 0.000119778)
(-0.00371783 0.00229298 0.000239215)
(-0.00583281 0.00289562 0.000348076)
(-0.00832657 0.00338239 0.000436946)
(-0.0111163 0.00374371 0.000498784)
(-0.0141143 0.00397943 0.000528555)
(-0.0172322 0.00409437 0.000522991)
(-0.0203847 0.0040958 0.000480317)
(-0.0234907 0.00399198 0.00039999)
(-0.0264747 0.00379139 0.000282507)
(-0.0292667 0.00350247 0.000129256)
(-0.031803 0.00313354 -5.75811e-05)
(-0.0340262 0.002693 -0.000275095)
(-0.0358854 0.00218955 -0.000519684)
(-0.0373367 0.00163249 -0.000787083)
(-0.0383442 0.00103204 -0.00107239)
(-0.0388799 0.000399561 -0.00137012)
(-0.0389256 -0.000252226 -0.00167424)
(-0.0384729 -0.000909199 -0.00197829)
(-0.0375249 -0.00155585 -0.00227553)
(-0.0360967 -0.00217548 -0.00255905)
(-0.0342158 -0.00275047 -0.00282203)
(-0.0319232 -0.00326279 -0.003058)
(-0.0292727 -0.00369452 -0.00326103)
(-0.0263307 -0.00402856 -0.00342612)
(-0.0231754 -0.00424939 -0.00354941)
(-0.0198948 -0.00434388 -0.00362855)
(-0.0165851 -0.00430219 -0.00366288)
(-0.0133473 -0.00411867 -0.00365371)
(-0.0102836 -0.0037929 -0.00360448)
(-0.00749351 -0.00333098 -0.00352084)
(-0.00506761 -0.00274752 -0.00341072)
(-0.00308142 -0.00206877 -0.00328415)
(-0.00158656 -0.00133847 -0.00315315)
(-0.00059878 -0.000627075 -0.00303155)
(-8.7351e-05 -4.63319e-05 -0.00293267)
(2.81255e-05 0.000209098 -0.00241864)
(-4.79524e-05 8.38426e-06 -0.00030817)
(-0.000499733 0.000856261 -0.000233743)
(-0.00163294 0.0020576 -0.000111492)
(-0.00340174 0.00334431 9.34997e-06)
(-0.00577034 0.00456527 0.00012544)
(-0.00868012 0.00563165 0.000227373)
(-0.0120444 0.00649665 0.000308254)
(-0.015762 0.00714031 0.00036297)
(-0.0197255 0.0075588 0.000387742)
(-0.023826 0.00775769 0.000380072)
(-0.0279572 0.00774778 0.000338598)
(-0.0320172 0.00754252 0.000262929)
(-0.03591 0.00715652 0.000153513)
(-0.0395467 0.00660491 1.15475e-05)
(-0.0428458 0.00590311 -0.000161078)
(-0.0457338 0.00506699 -0.000361825)
(-0.0481455 0.00411323 -0.000587519)
(-0.0500254 0.00305972 -0.000834366)
(-0.0513274 0.00192611 -0.00109796)
(-0.0520167 0.000734098 -0.00137334)
(-0.0520705 -0.000492236 -0.00165499)
(-0.0514792 -0.00172635 -0.001937)
(-0.0502471 -0.00293934 -0.00221313)
(-0.0483942 -0.00410029 -0.00247698)
(-0.0459561 -0.00517684 -0.00272221)
(-0.0429849 -0.00613601 -0.00294275)
(-0.0395489 -0.00694525 -0.00313306)
(-0.0357321 -0.00757369 -0.00328841)
(-0.0316327 -0.00799354 -0.00340518)
(-0.0273614 -0.00818162 -0.00348105)
(-0.0230381 -0.00812098 -0.00351533)
(-0.0187886 -0.00780261 -0.00350907)
(-0.0147402 -0.00722741 -0.0034652)
(-0.0110156 -0.00640842 -0.00338857)
(-0.00772699 -0.00537395 -0.00328587)
(-0.00496857 -0.00417212 -0.00316537)
(-0.00280739 -0.00287825 -0.00303684)
(-0.00127118 -0.00160547 -0.00291172)
(-0.000349963 -0.00051905 -0.0027968)
(-2.00203e-05 0.000120202 -0.00227048)
(-0.000102371 0.000333337 -0.000470777)
(-0.000805026 0.00187173 -0.000374599)
(-0.00241272 0.00377527 -0.000227494)
(-0.00479161 0.00573923 -9.57356e-05)
(-0.00786702 0.00757883 2.45299e-05)
(-0.0115588 0.0091789 0.000126138)
(-0.015761 0.0104748 0.000204452)
(-0.0203548 0.0114364 0.000256216)
(-0.0252157 0.0120557 0.000278945)
(-0.0302179 0.0123387 0.000271007)
(-0.0352382 0.0122994 0.000231566)
(-0.040158 0.0119568 0.000160486)
(-0.0448652 0.0113323 5.82663e-05)
(-0.0492556 0.0104488 -7.40064e-05)
(-0.0532333 0.00933009 -0.000234674)
(-0.0567119 0.008001 -0.000421514)
(-0.0596147 0.00648799 -0.000631735)
(-0.0618763 0.00481957 -0.000861962)
(-0.0634428 0.00302691 -0.00110824)
(-0.0642734 0.00114439 -0.00136604)
(-0.0643415 -0.00079007 -0.00163032)
(-0.0636359 -0.0027349 -0.00189558)
(-0.0621622 -0.00464508 -0.00215597)
(-0.0599435 -0.00647269 -0.00240544)
(-0.0570216 -0.00816778 -0.00263796)
(-0.0534573 -0.00967965 -0.00284768)
(-0.0493302 -0.0109584 -0.00302925)
(-0.0447378 -0.011957 -0.00317802)
(-0.0397943 -0.0126332 -0.00329036)
(-0.0346284 -0.0129521 -0.00336386)
(-0.0293795 -0.0128884 -0.0033976)
(-0.024194 -0.0124295 -0.00339224)
(-0.0192198 -0.0115778 -0.00335015)
(-0.0146005 -0.0103544 -0.00327537)
(-0.0104683 -0.00880283 -0.00317347)
(-0.00693659 -0.0069944 -0.00305117)
(-0.00409163 -0.00503609 -0.00291646)
(-0.00197984 -0.00308058 -0.00277911)
(-0.000622463 -0.00133813 -0.00264)
(-6.74075e-05 -0.000115649 -0.00209827)
(-0.00015198 0.000817532 -0.000629973)
(-0.00109778 0.00327092 -0.000509659)
(-0.00317606 0.00603623 -0.000333522)
(-0.00616256 0.00879214 -0.000185518)
(-0.00993863 0.0113332 -5.55472e-05)
(-0.0143981 0.0135259 5.08889e-05)
(-0.019413 0.0152925 0.000131066)
(-0.024846 0.0165947 0.000183413)
(-0.0305564 0.0174216 0.000206673)
(-0.0364035 0.0177798 0.000200084)
(-0.0422496 0.0176873 0.000163377)
(-0.0479626 0.017169 9.67319e-05)
(-0.0534174 0.0162536 7.5628e-07)
(-0.0584972 0.0149726 -0.000123514)
(-0.0630949 0.013359 -0.000274596)
(-0.0671135 0.0114482 -0.000450536)
(-0.0704669 0.00927758 -0.000648873)
(-0.0730817 0.00688785 -0.000866599)
(-0.0748972 0.00432343 -0.00110014)
(-0.0758674 0.00163317 -0.00134536)
(-0.0759623 -0.00112922 -0.00159755)
(-0.0751686 -0.00390509 -0.00185154)
(-0.0734921 -0.00663114 -0.00210175)
(-0.0709578 -0.00924017 -0.00234234)
(-0.0676117 -0.0116623 -0.0025674)
(-0.0635206 -0.0138269 -0.00277116)
(-0.0587724 -0.0156643 -0.00294823)
(-0.0534755 -0.0171091 -0.00309387)
(-0.0477569 -0.0181025 -0.00320426)
(-0.0417599 -0.0185962 -0.00327673)
(-0.0356405 -0.0185553 -0.00330997)
(-0.0295631 -0.0179623 -0.00330418)
(-0.0236949 -0.0168209 -0.00326112)
(-0.0181996 -0.0151598 -0.00318406)
(-0.01323 -0.0130379 -0.00307759)
(-0.00892144 -0.0105489 -0.00294721)
(-0.00538309 -0.00782951 -0.00279959)
(-0.00268559 -0.00506744 -0.00264354)
(-0.000887142 -0.00250958 -0.002475)
(-0.000110655 -0.000494119 -0.00191674)
(-0.000196714 0.00145044 -0.000772648)
(-0.00137317 0.00504117 -0.000625838)
(-0.00390748 0.00883007 -0.000418767)
(-0.00748828 0.0124931 -0.000251311)
(-0.0119514 0.0158154 -0.000108002)
(-0.0171618 0.0186539 6.85657e-06)
(-0.0229674 0.0209229 9.21284e-05)
(-0.029211 0.02258 0.000147718)
(-0.0357359 0.0236134 0.000173485)
(-0.0423871 0.0240321 0.000169484)
(-0.0490144 0.0238587 0.000136004)
(-0.0554739 0.0231247 7.35537e-05)
(-0.0616298 0.0218672 -1.71221e-05)
(-0.0673554 0.0201266 -0.000135006)
(-0.0725341 0.0179466 -0.000278754)
(-0.0770604 0.0153733 -0.000446643)
(-0.0808408 0.0124566 -0.000636497)
(-0.0837947 0.00925021 -0.000845631)
(-0.0858559 0.00581312 -0.0010708)
(-0.0869734 0.00220995 -0.00130817)
(-0.0871133 -0.0014884 -0.00155333)
(-0.0862601 -0.00520463 -0.00180132)
(-0.0844182 -0.00885553 -0.0020467)
(-0.0816132 -0.0123528 -0.00228374)
(-0.0778928 -0.0156049 -0.0025065)
(-0.0733279 -0.0185189 -0.00270912)
(-0.0680124 -0.0210036 -0.00288603)
(-0.0620625 -0.0229728 -0.00303221)
(-0.0556156 -0.0243493 -0.00314348)
(-0.0488275 -0.0250691 -0.00321676)
(-0.0418692 -0.0250858 -0.00325024)
(-0.0349221 -0.0243757 -0.00324355)
(-0.0281725 -0.0229418 -0.00319781)
(-0.0218047 -0.0208196 -0.00311559)
(-0.0159944 -0.0180814 -0.00300068)
(-0.0109017 -0.014842 -0.00285762)
(-0.00666258 -0.0112646 -0.00269221)
(-0.00337602 -0.00756752 -0.00251293)
(-0.00113968 -0.00402794 -0.0023117)
(-0.000149523 -0.0010068 -0.00173594)
(-0.000237406 0.00222173 -0.000888564)
(-0.00163162 0.00716577 -0.00071208)
(-0.00460365 0.0121395 -0.000473611)
(-0.00876035 0.0168253 -0.000285069)
(-0.0138925 0.0210081 -0.000126304)
(-0.0198353 0.0245428 -7.59364e-07)
(-0.0264107 0.0273421 9.17448e-05)
(-0.0334412 0.0293638 0.00015239)
(-0.0407532 0.0305983 0.000182025)
(-0.0481783 0.031059 0.000181439)
(-0.0555544 0.0307748 0.000151438)
(-0.0627276 0.0297851 9.2842e-05)
(-0.0695528 0.0281358 6.53086e-06)
(-0.0758951 0.0258775 -0.000106486)
(-0.0816305 0.0230648 -0.000244986)
(-0.0866464 0.0197556 -0.00040745)
(-0.0908428 0.0160126 -0.000591963)
(-0.0941335 0.0119036 -0.000796123)
(-0.0964467 0.0075027 -0.00101697)
(-0.0977268 0.00289115 -0.00125093)
(-0.0979357 -0.001842 -0.00149379)
(-0.0970545 -0.00659981 -0.00174075)
(-0.0950851 -0.0112779 -0.00198645)
(-0.0920517 -0.0157656 -0.00222509)
(-0.088002 -0.0199478 -0.00245063)
(-0.0830086 -0.0237077 -0.00265696)
(-0.0771687 -0.0269304 -0.00283817)
(-0.0706046 -0.0295067 -0.00298882)
(-0.0634618 -0.0313386 -0.00310423)
(-0.0559072 -0.0323437 -0.00318074)
(-0.0481259 -0.0324618 -0.00321592)
(-0.0403159 -0.0316601 -0.00320877)
(-0.0326834 -0.0299392 -0.00315974)
(-0.0254353 -0.0273386 -0.00307073)
(-0.0187724 -0.0239418 -0.00294487)
(-0.0128828 -0.0198819 -0.00278599)
(-0.00793323 -0.0153461 -0.00259943)
(-0.0040537 -0.0105796 -0.0023938)
(-0.00138246 -0.00588614 -0.00215774)
(-0.000185077 -0.00164629 -0.00156287)
(-0.000274986 0.00312249 -0.000969419)
(-0.00187532 0.00962779 -0.000758851)
(-0.00526656 0.0159451 -0.000489305)
(-0.00997924 0.0217692 -0.000279039)
(-0.0157608 0.0268919 -0.000103732)
(-0.022416 0.0311727 3.37975e-05)
(-0.0297409 0.0345288 0.000134836)
(-0.0375367 0.0369228 0.00020167)
(-0.045613 0.0383509 0.00023601)
(-0.0537879 0.0388337 0.000239298)
(-0.0618884 0.0384084 0.000212793)
(-0.0697512 0.0371236 0.00015759)
(-0.0772237 0.0350352 7.46841e-05)
(-0.0841639 0.0322048 -3.49304e-05)
(-0.0904417 0.0286983 -0.000170153)
(-0.0959388 0.0245863 -0.000329658)
(-0.10055 0.0199444 -0.000511772)
(-0.104184 0.0148547 -0.000714357)
(-0.106763 0.00940704 -0.000934704)
(-0.108228 0.00369954 -0.00116946)
(-0.108535 -0.00216014 -0.00141458)
(-0.10766 -0.00805478 -0.00166535)
(-0.105603 -0.013858 -0.00191638)
(-0.102384 -0.0194358 -0.00216177)
(-0.0980487 -0.024648 -0.00239523)
(-0.0926685 -0.0293524 -0.00261029)
(-0.0863422 -0.033408 -0.00280057)
(-0.0791958 -0.0366804 -0.00296005)
(-0.0713813 -0.0390475 -0.0030834)
(-0.0630756 -0.0404059 -0.00316624)
(-0.0544768 -0.0406781 -0.0032054)
(-0.0458005 -0.0398191 -0.00319914)
(-0.0372737 -0.0378233 -0.00314719)
(-0.029128 -0.0347312 -0.00305083)
(-0.0215923 -0.0306348 -0.00291262)
(-0.0148864 -0.0256825 -0.00273592)
(-0.00921061 -0.0200828 -0.00252585)
(-0.0047289 -0.0141059 -0.0022916)
(-0.00162072 -0.00808049 -0.00201908)
(-0.000218735 -0.00240783 -0.00140236)
(-0.000310248 0.00414542 -0.00100813)
(-0.00210681 0.0124118 -0.000757719)
(-0.00590013 0.020228 -0.000457813)
(-0.0111492 0.0273048 -0.000225811)
(-0.0175599 0.0334466 -3.35781e-05)
(-0.0249074 0.0385235 0.00011654)
(-0.0329614 0.0424626 0.000226779)
(-0.0415018 0.045236 0.000300393)
(-0.0503215 0.0468497 0.000339846)
(-0.0592252 0.0473346 0.000347146)
(-0.0680295 0.0467384 0.000323943)
(-0.076563 0.0451207 0.000271559)
(-0.0846661 0.0425488 0.000191073)
(-0.0921915 0.039096 8.34396e-05)
(-0.0990038 0.0348402 -5.03714e-05)
(-0.10498 0.0298645 -0.000209235)
(-0.110011 0.0242581 -0.000391717)
(-0.114 0.0181173 -0.000595935)
(-0.116865 0.0115473 -0.000819418)
(-0.118541 0.00466329 -0.00105901)
(-0.11898 -0.00240848 -0.00131081)
(-0.118152 -0.00953037 -0.00157011)
(-0.116051 -0.0165537 -0.0018315)
(-0.112691 -0.02332 -0.00208885)
(-0.108115 -0.0296634 -0.00233555)
(-0.10239 -0.0354142 -0.00256466)
(-0.0956148 -0.0404033 -0.00276919)
(-0.0879162 -0.0444681 -0.0029424)
(-0.0794513 -0.0474594 -0.00307816)
(-0.0704054 -0.049249 -0.00317119)
(-0.0609896 -0.0497377 -0.00321747)
(-0.0514372 -0.0488642 -0.00321438)
(-0.0419975 -0.0466126 -0.00316089)
(-0.0329293 -0.0430204 -0.00305762)
(-0.0244929 -0.0381844 -0.00290665)
(-0.0169428 -0.0322654 -0.00271097)
(-0.0105168 -0.025491 -0.00247579)
(-0.00541551 -0.0181555 -0.00221114)
(-0.00186083 -0.0106133 -0.00190053)
(-0.000251932 -0.00329011 -0.00125785)
(-0.000343801 0.00528472 -0.000998355)
(-0.00232839 0.0155045 -0.000700987)
(-0.00650856 0.0249704 -0.000371623)
(-0.0122756 0.0334126 -0.000118258)
(-0.0192957 0.040652 9.08125e-05)
(-0.0273149 0.0465748 0.000253625)
(-0.0360771 0.0511229 0.000373253)
(-0.0453411 0.0542828 0.000453816)
(-0.0548831 0.0560743 0.000498441)
(-0.0644951 0.0565418 0.00050963)
(-0.0739839 0.0557464 0.00048936)
(-0.0831706 0.0537604 0.00043913)
(-0.0918899 0.050664 0.000360062)
(-0.0999899 0.0465428 0.000253043)
(-0.107332 0.0414876 0.000118885)
(-0.113788 0.035594 -4.15036e-05)
(-0.119247 0.0289646 -0.000226944)
(-0.123607 0.0217096 -0.000435812)
(-0.126782 0.0139492 -0.000665881)
(-0.1287 0.00581511 -0.000914192)
(-0.129309 -0.00254834 -0.00117696)
(-0.128571 -0.0109833 -0.0014495)
(-0.126472 -0.0193188 -0.00172628)
(-0.123022 -0.0273716 -0.00200095)
(-0.118253 -0.034949 -0.00226646)
(-0.112231 -0.0418523 -0.00251532)
(-0.105047 -0.0478819 -0.0027398)
(-0.0968292 -0.0528442 -0.0029323)
(-0.0877367 -0.0565589 -0.00308569)
(-0.0779619 -0.0588684 -0.00319368)
(-0.0677284 -0.0596471 -0.00325117)
(-0.0572873 -0.0588121 -0.00325455)
(-0.0469119 -0.0563321 -0.00320191)
(-0.0368903 -0.0522365 -0.00309314)
(-0.0275175 -0.0466227 -0.00292987)
(-0.0190867 -0.0396608 -0.00271484)
(-0.0118771 -0.0315959 -0.00245346)
(-0.00612903 -0.0227462 -0.00215688)
(-0.00210946 -0.0134943 -0.00180638)
(-0.000286028 -0.0042955 -0.00113214)
(-0.000376087 0.00653577 -0.000934168)
(-0.00254191 0.0188942 -0.000581425)
(-0.00709551 0.0301565 -0.000223573)
(-0.0133633 0.0400738 5.05512e-05)
(-0.0209734 0.048488 0.00027606)
(-0.0296434 0.0553056 0.00045132)
(-0.039092 0.0604884 0.000580174)
(-0.0490572 0.0640418 0.000667531)
(-0.059299 0.0660037 0.000717118)
(-0.0695971 0.0664353 0.000731863)
(-0.0797493 0.0654138 0.00071402)
(-0.0895701 0.0630268 0.000665214)
(-0.0988898 0.0593684 0.000586569)
(-0.107553 0.0545379 0.000478864)
(-0.115418 0.048639 0.000342722)
(-0.122356 0.0417803 0.000178803)
(-0.128251 0.0340769 -1.19937e-05)
(-0.132998 0.0256525 -0.000228333)
(-0.136508 0.0166416 -0.000468252)
(-0.138702 0.00719114 -0.000729003)
(-0.139521 -0.00253708 -0.00100693)
(-0.138921 -0.0123659 -0.00129737)
(-0.136878 -0.0221023 -0.00159467)
(-0.133392 -0.0315385 -0.00189218)
(-0.128487 -0.0404542 -0.0021824)
(-0.122219 -0.0486204 -0.00245716)
(-0.114675 -0.0558046 -0.0027079)
(-0.105978 -0.0617787 -0.00292599)
(-0.0962865 -0.0663272 -0.00310314)
(-0.0857989 -0.0692579 -0.00323183)
(-0.0747498 -0.0704131 -0.0033057)
(-0.0634083 -0.0696817 -0.00331995)
(-0.0520724 -0.0670106 -0.00327163)
(-0.0410624 -0.0624156 -0.00315981)
(-0.030711 -0.0559897 -0.00298559)
(-0.0213545 -0.0479085 -0.0027515)
(-0.0133178 -0.0384329 -0.00246327)
(-0.00688534 -0.0279057 -0.00213337)
(-0.00237325 -0.0167407 -0.00174083)
(-0.000322288 -0.00542994 -0.00102789)
(-0.000407411 0.00789485 -0.000809862)
(-0.00274879 0.0225711 -0.000392079)
(-0.00766394 0.0357717 -6.71326e-06)
(-0.0144165 0.0472707 0.000287434)
(-0.0225974 0.0569343 0.000528775)
(-0.0318967 0.0646941 0.000715986)
(-0.0420082 0.0705361 0.00085364)
(-0.0526496 0.0744894 0.00094739)
(-0.0635654 0.076614 0.00100151)
(-0.0745236 0.0769919 0.00101932)
(-0.0853139 0.0757193 0.00100329)
(-0.0957456 0.0729009 0.000955139)
(-0.105646 0.0686471 0.000875945)
(-0.114857 0.0630715 0.00076634)
(-0.123235 0.056291 0.000626716)
(-0.130652 0.0484271 0.000457444)
(-0.136988 0.0396069 0.000259098)
(-0.142138 0.0299668 3.2687e-05)
(-0.146005 0.0196539 -0.000220135)
(-0.14851 0.00882953 -0.000496872)
(-0.149582 -0.00232881 -0.000794029)
(-0.149171 -0.0136258 -0.001107)
(-0.147241 -0.0248475 -0.00143)
(-0.143781 -0.0357619 -0.00175608)
(-0.138804 -0.0461208 -0.00207725)
(-0.132354 -0.0556637 -0.00238459)
(-0.124508 -0.0641233 -0.00266857)
(-0.115381 -0.0712333 -0.00291941)
(-0.105129 -0.0767383 -0.00312745)
(-0.093954 -0.0804057 -0.00328371)
(-0.0820985 -0.0820387 -0.00338035)
(-0.0698492 -0.0814906 -0.00341112)
(-0.0575298 -0.0786791 -0.00337179)
(-0.0454943 -0.0735989 -0.00326048)
(-0.0341171 -0.0663326 -0.00307761)
(-0.023782 -0.0570573 -0.00282548)
(-0.014865 -0.0460476 -0.00251016)
(-0.00770024 -0.0336715 -0.00214561)
(-0.00265868 -0.020378 -0.00170851)
(-0.000361907 -0.0067029 -0.000948091)
(-0.000437981 0.00935888 -0.00061983)
(-0.00295006 0.0265265 -0.000126135)
(-0.0082161 0.0418026 0.000285795)
(-0.0154383 0.054986 0.000599154)
(-0.0241709 0.0659706 0.000855577)
(-0.0340768 0.074717 0.00105406)
(-0.0448253 0.0812406 0.00119988)
(-0.0561143 0.0855984 0.00129942)
(-0.0676733 0.0878773 0.00135747)
(-0.0792598 0.0881835 0.0013777)
(-0.0906564 0.0866356 0.0013628)
(-0.101668 0.0833582 0.00131451)
(-0.112121 0.0784793 0.00123383)
(-0.121856 0.0721278 0.00112121)
(-0.130732 0.0644346 0.000976763)
(-0.138617 0.0555334 0.000800515)
(-0.145395 0.0455629 0.000592664)
(-0.150956 0.0346704 0.000353828)
(-0.155203 0.0230145 8.52924e-05)
(-0.158049 0.0107687 -0.000210764)
(-0.159418 -0.00187551 -0.000531071)
(-0.159248 -0.0147066 -0.000871116)
(-0.157494 -0.0274913 -0.00122505)
(-0.15413 -0.0399745 -0.00158563)
(-0.149155 -0.0518804 -0.00194434)
(-0.142597 -0.0629163 -0.00229148)
(-0.13452 -0.0727778 -0.00261644)
(-0.125027 -0.0811573 -0.00290811)
(-0.114269 -0.0877545 -0.00315529)
(-0.102444 -0.0922896 -0.00334728)
(-0.0898029 -0.0945189 -0.00347443)
(-0.0766473 -0.0942517 -0.00352877)
(-0.0633263 -0.0913669 -0.00350451)
(-0.0502296 -0.0858296 -0.00339851)
(-0.0377764 -0.0777044 -0.00321038)
(-0.0264034 -0.0671645 -0.002942)
(-0.0165442 -0.0544952 -0.00259983)
(-0.00858912 -0.0400908 -0.00219941)
(-0.00297205 -0.0244389 -0.00171484)
(-0.000406031 -0.0081272 -0.000896403)
(-0.000467944 0.0109253 -0.000358491)
(-0.00314653 0.0307528 0.000223173)
(-0.00875382 0.0482368 0.000660759)
(-0.0164311 0.0632027 0.000992473)
(-0.0256961 0.0755755 0.00126312)
(-0.0361842 0.0853491 0.00147203)
(-0.0475405 0.0925728 0.00162521)
(-0.0594436 0.0973368 0.00172974)
(-0.0716088 0.099759 0.00179095)
(-0.0837839 0.0999746 0.00181284)
(-0.0957459 0.0981275 0.00179827)
(-0.107298 0.0943652 0.00174901)
(-0.118264 0.0888348 0.00166596)
(-0.12849 0.0816821 0.00154932)
(-0.137834 0.073052 0.00139887)
(-0.146168 0.0630901 0.00121424)
(-0.153377 0.0519456 0.000995191)
(-0.159351 0.0397754 0.000741863)
(-0.163991 0.0267474 0.000455089)
(-0.167205 0.0130451 0.000136644)
(-0.168912 -0.00112875 -0.000210521)
(-0.169038 -0.0155489 -0.000582073)
(-0.167526 -0.029965 -0.000972157)
(-0.164334 -0.0441005 -0.00137331)
(-0.159445 -0.0576533 -0.00177649)
(-0.152867 -0.0702983 -0.00217118)
(-0.144646 -0.0816926 -0.00254563)
(-0.134871 -0.0914839 -0.00288723)
(-0.123678 -0.0993218 -0.00318301)
(-0.11126 -0.104872 -0.00342027)
(-0.0978705 -0.107837 -0.00358724)
(-0.0838235 -0.107969 -0.00367382)
(-0.0694926 -0.105098 -0.00367229)
(-0.0553039 -0.0991504 -0.00357791)
(-0.0417248 -0.0901617 -0.00338915)
(-0.0292505 -0.0782941 -0.0031073)
(-0.0183794 -0.0638403 -0.0027391)
(-0.00956689 -0.0472201 -0.00230176)
(-0.00331954 -0.0289638 -0.00176648)
(-0.000455791 -0.00971897 -0.000877572)
(-0.000497425 0.0125917 -2.02629e-05)
(-0.00333899 0.0352433 0.000662623)
(-0.0092789 0.0550626 0.00112502)
(-0.0173974 0.0719039 0.0014742)
(-0.0271748 0.0857265 0.00175812)
(-0.0382187 0.0965621 0.00197646)
(-0.0501498 0.104499 0.00213598)
(-0.0626274 0.109666 0.0022445)
(-0.0753534 0.112217 0.00230788)
(-0.0880673 0.11232 0.00233048)
(-0.100542 0.110149 0.00231534)
(-0.11258 0.105876 0.00226425)
(-0.124009 0.0996712 0.00217794)
(-0.134676 0.0916969 0.00205635)
(-0.144445 0.0821128 0.00189888)
(-0.153195 0.0710761 0.00170471)
(-0.16081 0.0587452 0.00147304)
(-0.167186 0.0452848 0.00120347)
(-0.172223 0.0308696 0.000896266)
(-0.175825 0.0156904 0.000552684)
(-0.177905 -4.19495e-05 0.000175237)
(-0.17838 -0.0160917 -0.000232047)
(-0.177179 -0.0321945 -0.00066342)
(-0.174242 -0.0480553 -0.00111128)
(-0.169532 -0.0633474 -0.00156612)
(-0.163037 -0.0777142 -0.00201662)
(-0.154779 -0.0907736 -0.00244981)
(-0.144824 -0.102126 -0.00285146)
(-0.133291 -0.111366 -0.00320662)
(-0.12036 -0.118097 -0.00350026)
(-0.106282 -0.121957 -0.00371808)
(-0.0913785 -0.122631 -0.00384743)
(-0.0760445 -0.119888 -0.00387816)
(-0.0607428 -0.113599 -0.00380344)
(-0.045992 -0.103761 -0.00362023)
(-0.0323516 -0.0905153 -0.00332888)
(-0.0203934 -0.074155 -0.00293622)
(-0.0106479 -0.0551246 -0.00246123)
(-0.00370723 -0.0340005 -0.00187173)
(-0.000512328 -0.0114976 -0.000897766)
(-0.000526557 0.0143565 0.000400465)
(-0.00352835 0.0399919 0.00119907)
(-0.00979362 0.0622692 0.00168551)
(-0.0183402 0.0810728 0.00205125)
(-0.0286098 0.0963998 0.00234736)
(-0.0401808 0.108325 0.00257394)
(-0.0526487 0.11698 0.00273852)
(-0.0656539 0.12254 0.00284975)
(-0.0788855 0.125198 0.00291405)
(-0.0920759 0.125162 0.00293618)
(-0.104996 0.122639 0.00291937)
(-0.117451 0.117831 0.00286543)
(-0.129271 0.11093 0.00277494)
(-0.140313 0.102118 0.00264752)
(-0.150447 0.0915704 0.00248216)
(-0.159558 0.0794544 0.00227747)
(-0.167539 0.065937 0.00203206)
(-0.17429 0.0511881 0.00174484)
(-0.179713 0.035387 0.0014154)
(-0.183711 0.0187281 0.00104432)
(-0.186192 0.00142669 0.000633532)
(-0.187063 -0.0162749 0.000186595)
(-0.18624 -0.0341024 -0.000291004)
(-0.183647 -0.051746 -0.000791659)
(-0.179222 -0.0688576 -0.00130552)
(-0.172927 -0.0850512 -0.00182048)
(-0.164757 -0.0999056 -0.00232237)
(-0.15475 -0.112972 -0.00279523)
(-0.142999 -0.123786 -0.00322189)
(-0.129665 -0.131882 -0.00358466)
(-0.114987 -0.13682 -0.0038663)
(-0.0992868 -0.138208 -0.00405104)
(-0.0829784 -0.135736 -0.0041257)
(-0.0665587 -0.129205 -0.00408079)
(-0.0505996 -0.118557 -0.00391115)
(-0.0357306 -0.103899 -0.00361574)
(-0.0226068 -0.0855176 -0.00320124)
(-0.0118461 -0.0638775 -0.00268836)
(-0.00414121 -0.0396034 -0.00204101)
(-0.000576823 -0.0134855 -0.000964976)
(-0.000555584 0.0162183 0.000909339)
(-0.00371609 0.0449943 0.00183951)
(-0.0103015 0.0698472 0.00234935)
(-0.0192647 0.0906929 0.0027307)
(-0.0300061 0.10757 0.00303776)
(-0.0420729 0.120602 0.00327109)
(-0.0550342 0.129971 0.00343912)
(-0.0685112 0.135902 0.00355136)
(-0.0821812 0.138638 0.00361492)
(-0.0957711 0.13843 0.00363501)
(-0.109052 0.135522 0.00361512)
(-0.121833 0.13015 0.00355709)
(-0.133955 0.122532 0.00346134)
(-0.145282 0.112872 0.00332719)
(-0.155696 0.101357 0.00315312)
(-0.165094 0.088168 0.00293714)
(-0.173378 0.073477 0.00267712)
(-0.180456 0.0574577 0.0023712)
(-0.186234 0.0402903 0.00201813)
(-0.19062 0.0221694 0.00161765)
(-0.193516 0.00331054 0.00117091)
(-0.194824 -0.0160424 0.000680815)
(-0.194444 -0.0356103 0.000152385)
(-0.192284 -0.0550734 -0.000406962)
(-0.188256 -0.0740668 -0.000987189)
(-0.182294 -0.0921783 -0.00157556)
(-0.17436 -0.10895 -0.00215669)
(-0.164456 -0.123883 -0.00271285)
(-0.152642 -0.13645 -0.00322446)
(-0.139048 -0.146111 -0.00367087)
(-0.123893 -0.152337 -0.00403136)
(-0.107492 -0.154641 -0.00428646)
(-0.0902672 -0.152619 -0.00441923)
(-0.0727477 -0.145981 -0.00441672)
(-0.0555589 -0.134594 -0.00427094)
(-0.0394062 -0.118515 -0.00397883)
(-0.0250383 -0.0980103 -0.00354645)
(-0.0131749 -0.0735585 -0.00299619)
(-0.0046276 -0.0458337 -0.00228735)
(-0.000650534 -0.0157087 -0.00108945)
(-0.000584878 0.0181767 0.00151208)
(-0.00390447 0.050248 0.00259118)
(-0.0108079 0.0777893 0.00312395)
(-0.0201791 0.100749 0.0035199)
(-0.0313726 0.119211 0.00383641)
(-0.0439015 0.133353 0.00407461)
(-0.0573066 0.143417 0.00424391)
(-0.0711895 0.149685 0.00435488)
(-0.0852163 0.152457 0.00441543)
(-0.0991108 0.152032 0.00443135)
(-0.112647 0.148701 0.00440646)
(-0.125643 0.142733 0.00434269)
(-0.137949 0.134377 0.00424035)
(-0.149445 0.123858 0.00409839)
(-0.160029 0.111381 0.00391476)
(-0.169611 0.0971354 0.0036868)
(-0.178108 0.081298 0.00341155)
(-0.18544 0.0640437 0.00308622)
(-0.191521 0.0455507 0.00270854)
(-0.196265 0.0260092 0.00227725)
(-0.199573 0.0056303 0.00179249)
(-0.201344 -0.015346 0.00125627)
(-0.201465 -0.036642 0.000672889)
(-0.199826 -0.0579341 4.93237e-05)
(-0.196314 -0.0788466 -0.000604439)
(-0.190832 -0.0989467 -0.0012752)
(-0.183302 -0.117743 -0.00194653)
(-0.173685 -0.13469 -0.0025989)
(-0.161997 -0.149193 -0.00321019)
(-0.148329 -0.160632 -0.00375647)
(-0.132864 -0.168378 -0.00421307)
(-0.115898 -0.171836 -0.00455608)
(-0.0978547 -0.170483 -0.00476395)
(-0.0792857 -0.163917 -0.00481935)
(-0.060869 -0.151904 -0.00471046)
(-0.0433905 -0.134428 -0.00443133)
(-0.027704 -0.111717 -0.00398681)
(-0.014647 -0.0842533 -0.00340073)
(-0.00517274 -0.0527589 -0.00262699)
(-0.00073483 -0.0181961 -0.00128419)
(-0.000615043 0.0202328 0.00221454)
(-0.00409707 0.055754 0.00346171)
(-0.0113215 0.0860921 0.00401719)
(-0.0210962 0.111228 0.00442663)
(-0.032724 0.131296 0.00475071)
(-0.0456789 0.146536 0.00499124)
(-0.0594712 0.157258 0.00515887)
(-0.073682 0.16381 0.00526541)
(-0.0879676 0.166558 0.0053198)
(-0.102051 0.165859 0.00532857)
(-0.115712 0.162053 0.005296)
(-0.128782 0.155451 0.00522422)
(-0.141128 0.146334 0.00511344)
(-0.152647 0.13495 0.00496226)
(-0.163258 0.121522 0.00476807)
(-0.17289 0.106246 0.00452744)
(-0.18148 0.0893043 0.00423647)
(-0.188962 0.0708697 0.00389129)
(-0.195266 0.0511146 0.00348846)
(-0.200312 0.0302208 0.00302547)
(-0.204008 0.00838912 0.00250122)
(-0.20625 -0.0141503 0.00191655)
(-0.206917 -0.037128 0.00127473)
(-0.205881 -0.0602242 0.000581984)
(-0.203007 -0.0830604 -0.000152059)
(-0.19816 -0.10519 -0.000914035)
(-0.191223 -0.126096 -0.00168665)
(-0.182108 -0.145187 -0.00244871)
(-0.170775 -0.161807 -0.00317552)
(-0.157262 -0.175245 -0.00383958)
(-0.141705 -0.184769 -0.00441179)
(-0.124365 -0.189653 -0.00486305)
(-0.105649 -0.189235 -0.00516623)
(-0.0861236 -0.18297 -0.00529839)
(-0.0665133 -0.170496 -0.00524273)
(-0.0476878 -0.151691 -0.00498921)
(-0.0306169 -0.126718 -0.00454057)
(-0.016275 -0.0960515 -0.00392172)
(-0.00578325 -0.0604529 -0.0030801)
(-0.000831239 -0.0209806 -0.00156555)
(-0.000647031 0.0223898 0.00302288)
(-0.00429931 0.0615186 0.0044594)
(-0.0118553 0.0947577 0.0050377)
(-0.0220357 0.12212 0.00545931)
(-0.034083 0.143798 0.00578847)
(-0.0474261 0.160101 0.00602788)
(-0.0615409 0.171419 0.00618975)
(-0.0759875 0.17818 0.00628744)
(-0.0904138 0.180824 0.00633123)
(-0.104545 0.179775 0.00632866)
(-0.118173 0.17543 0.00628467)
(-0.131146 0.168146 0.00620167)
(-0.143352 0.15824 0.00607985)
(-0.154713 0.145986 0.00591748)
(-0.165173 0.131623 0.00571136)
(-0.174687 0.115355 0.00545719)
(-0.183213 0.0973677 0.00515003)
(-0.190708 0.0778279 0.00478476)
(-0.19712 0.0568993 0.00435659)
(-0.202383 0.0347508 0.00386152)
(-0.206416 0.0115674 0.00329696)
(-0.209113 -0.0124375 0.00266224)
(-0.210353 -0.0370104 0.00195928)
(-0.209993 -0.0618444 0.00119317)
(-0.207872 -0.0865674 0.000372776)
(-0.203825 -0.11073 -0.000488742)
(-0.197687 -0.133796 -0.00137357)
(-0.189315 -0.155138 -0.00225909)