# vtk DataFile Version 2.0
track0
ASCII
DATASET POLYDATA
POINTS 12110 float
-0.0205 0.001 1e-05
-0.02052 0.000999985 1e-05
-0.02054 0.000999974 1e-05
-0.02056 0.000999965 1e-05
-0.02058 0.000999959 1e-05
-0.0206 0.000999956 1e-05
-0.0205 0.00367778 1e-05
-0.02052 0.00367778 1e-05
-0.02054 0.00367777 1e-05
-0.02056 0.00367777 1e-05
-0.02058 0.00367777 1e-05
-0.0206 0.00367777 1e-05
-0.0205 0.00635556 1e-05
-0.02052 0.00635555 1e-05
-0.02054 0.00635555 1e-05
-0.02056 0.00635555 1e-05
-0.02058 0.00635555 1e-05
-0.0206 0.00635555 1e-05
-0.0205 0.00903333 1e-05
-0.02052 0.00903333 1e-05
-0.02054 0.00903333 1e-05
-0.02056 0.00903333 1e-05
-0.02058 0.00903333 1e-05
-0.0206 0.00903333 1e-05
-0.0205 0.0117111 1e-05
-0.02052 0.0117111 1e-05
-0.02054 0.0117111 1e-05
-0.02056 0.0117111 1e-05
-0.02058 0.0117111 1e-05
-0.0206 0.0117111 1e-05
-0.0205 0.0143889 1e-05
-0.02052 0.0143889 1e-05
-0.02054 0.0143889 1e-05
-0.02056 0.0143889 1e-05
-0.02058 0.0143889 1e-05
-0.0206 0.0143889 1e-05
-0.0205 0.0170667 1e-05
-0.02052 0.0170667 1e-05
-0.02054 0.0170667 1e-05
-0.02056 0.0170667 1e-05
-0.02058 0.0170667 1e-05
-0.0206 0.0170667 1e-05
-0.0205 0.0197444 1e-05
-0.02052 0.0197444 1e-05
-0.02054 0.0197444 1e-05
-0.02056 0.0197444 1e-05
-0.02058 0.0197444 1e-05
-0.0206 0.0197444 1e-05
-0.0205 0.0224222 1e-05
-0.02052 0.0224222 1e-05
-0.02054 0.0224222 1e-05
-0.02056 0.0224222 1e-05
-0.02058 0.0224222 1e-05
-0.0206 0.0224222 1e-05
-0.0205 0.0251 1e-05
-0.02052 0.0250998 1e-05
-0.02054 0.0250997 1e-05
-0.02056 0.0250995 1e-05
-0.02058 0.0250995 1e-05
-0.0206 0.0250994 1e-05
-0.0205 0.001 1e-05
-0.0202034 0.00100022 1e-05
-0.0199069 0.00100067 1e-05
-0.0196103 0.00100134 1e-05
-0.0193137 0.00100221 1e-05
-0.0190172 0.00100329 1e-05
-0.0187132 0.00100471 1e-05
-0.0184093 0.00100594 1e-05
-0.0181054 0.00100718 1e-05
-0.0178015 0.00100842 1e-05
-0.0174976 0.00100966 1e-05
-0.0172058 0.00101099 1e-05
-0.016914 0.00101213 1e-05
-0.0166222 0.00101327 1e-05
-0.0163305 0.00101441 1e-05
-0.0160387 0.00101556 1e-05
-0.0157586 0.00101674 1e-05
-0.0154784 0.00101787 1e-05
-0.0151983 0.00101904 1e-05
-0.0149182 0.00102025 1e-05
-0.0146381 0.0010215 1e-05
-0.0144114 0.00102256 1e-05
-0.0141846 0.00102363 1e-05
-0.0139579 0.00102472 1e-05
-0.0137312 0.00102584 1e-05
-0.0135375 0.00102682 1e-05
-0.0134887 0.00102707 1e-05
-0.0134399 0.00102732 1e-05
-0.0133911 0.00102757 1e-05
-0.0133423 0.00102783 1e-05
-0.0132934 0.00102808 1e-05
-0.0130353 0.00102944 1e-05
-0.0127771 0.00103082 1e-05
-0.0125189 0.00103221 1e-05
-0.0122607 0.00103363 1e-05
-0.0120025 0.00103506 1e-05
-0.0117547 0.00103645 1e-05
-0.0115068 0.00103785 1e-05
-0.0112589 0.00103925 1e-05
-0.0110111 0.00104067 1e-05
-0.0107632 0.0010421 1e-05
-0.0105252 0.00104347 1e-05
-0.0102873 0.00104485 1e-05
-0.0100493 0.00104624 1e-05
-0.00981133 0.00104764 1e-05
-0.00957337 0.00104905 1e-05
-0.00934491 0.0010504 1e-05
-0.00911645 0.00105177 1e-05
-0.00888799 0.00105315 1e-05
-0.00865954 0.00105453 1e-05
-0.00843108 0.00105593 1e-05
-0.00821175 0.00105726 1e-05
-0.00799242 0.00105862 1e-05
-0.00777309 0.00105998 1e-05
-0.00755376 0.00106135 1e-05
-0.00733443 0.00106273 1e-05
-0.00712387 0.00106406 1e-05
-0.0069133 0.0010654 1e-05
-0.00670273 0.00106675 1e-05
-0.00649217 0.00106811 1e-05
-0.0062816 0.00106948 1e-05
-0.00607944 0.00107079 1e-05
-0.00587729 0.00107213 1e-05
-0.00567514 0.00107347 1e-05
-0.00547298 0.00107483 1e-05
-0.00527083 0.0010762 1e-05
-0.00507675 0.00107752 1e-05
-0.00488267 0.00107886 1e-05
-0.0046886 0.00108022 1e-05
-0.00449452 0.00108159 1e-05
-0.00430044 0.00108299 1e-05
-0.00411412 0.00108434 1e-05
-0.0039278 0.00108572 1e-05
-0.00374147 0.00108713 1e-05
-0.00355515 0.00108856 1e-05
-0.00336883 0.00109002 1e-05
-0.00318995 0.00109145 1e-05
-0.00301107 0.00109292 1e-05
-0.00283219 0.00109443 1e-05
-0.00265331 0.00109598 1e-05
-0.00247443 0.00109758 1e-05
-0.0023027 0.00109915 1e-05
-0.00213097 0.00110079 1e-05
-0.00195924 0.00110248 1e-05
-0.00178751 0.00110424 1e-05
-0.00161577 0.00110606 1e-05
-0.0014509 0.00110787 1e-05
-0.00128603 0.00110977 1e-05
-0.00112116 0.00111177 1e-05
-0.000956296 0.00111387 1e-05
-0.000791418 0.00111608 1e-05
-0.000633135 0.00111831 1e-05
-0.000474853 0.00112065 1e-05
-0.000316574 0.00112317 1e-05
-0.000158297 0.00112589 1e-05
0 0.00112879 1e-05
0.000105677 0.00113087 1e-05
0.000211353 0.00113304 1e-05
0.000317027 0.0011353 1e-05
0.000422699 0.00113765 1e-05
0.000528387 0.00114008 1e-05
0.000634886 0.00114259 1e-05
0.000741385 0.00114511 1e-05
0.000847884 0.00114763 1e-05
0.000954383 0.00115016 1e-05
0.00106088 0.0011527 1e-05
0.00116821 0.00115531 1e-05
0.00127554 0.00115791 1e-05
0.00138286 0.0011605 1e-05
0.00149019 0.0011631 1e-05
0.00159752 0.00116571 1e-05
0.00170568 0.00116838 1e-05
0.00181384 0.00117107 1e-05
0.001922 0.00117379 1e-05
0.00203016 0.00117652 1e-05
0.00213833 0.00117927 1e-05
0.00224733 0.00118206 1e-05
0.00235633 0.00118491 1e-05
0.00246533 0.0011878 1e-05
0.00257433 0.00119072 1e-05
0.00268334 0.00119365 1e-05
0.00279319 0.00119661 1e-05
0.00290304 0.00119964 1e-05
0.00301288 0.00120272 1e-05
0.00312273 0.00120584 1e-05
0.00323259 0.00120897 1e-05
0.00334329 0.00121211 1e-05
0.00345399 0.00121533 1e-05
0.00356469 0.00121863 1e-05
0.00367539 0.00122195 1e-05
0.00378611 0.00122528 1e-05
0.00389767 0.00122862 1e-05
0.00400923 0.00123204 1e-05
0.00412079 0.00123555 1e-05
0.00423235 0.00123909 1e-05
0.00434393 0.00124262 1e-05
0.00445636 0.00124616 1e-05
0.00456879 0.00124978 1e-05
0.00468122 0.0012535 1e-05
0.00479364 0.00125725 1e-05
0.00490609 0.00126098 1e-05
0.0050194 0.00126472 1e-05
0.0051327 0.00126856 1e-05
0.005246 0.00127249 1e-05
0.0053593 0.00127645 1e-05
0.00547262 0.00128039 1e-05
0.00558681 0.00128435 1e-05
0.00570099 0.0012884 1e-05
0.00581517 0.00129254 1e-05
0.00592935 0.00129671 1e-05
0.00604356 0.00130086 1e-05
0.00615863 0.00130502 1e-05
0.0062737 0.00130927 1e-05
0.00638877 0.00131361 1e-05
0.00650384 0.00131797 1e-05
0.00661893 0.00132231 1e-05
0.0067349 0.00132666 1e-05
0.00685087 0.00133108 1e-05
0.00696683 0.00133559 1e-05
0.00708279 0.00134012 1e-05
0.00719878 0.00134463 1e-05
0.00731565 0.00134915 1e-05
0.00743252 0.00135374 1e-05
0.00754938 0.0013584 1e-05
0.00766625 0.00136308 1e-05
0.00778313 0.00136775 1e-05
0.00790091 0.00137243 1e-05
0.00801869 0.00137718 1e-05
0.00813647 0.00138198 1e-05
0.00825424 0.00138681 1e-05
0.00837203 0.00139163 1e-05
0.00849073 0.00139648 1e-05
0.00860942 0.00140137 1e-05
0.00872811 0.00140632 1e-05
0.0088468 0.00141128 1e-05
0.00896551 0.00141625 1e-05
0.00908513 0.00142125 1e-05
0.00920475 0.00142629 1e-05
0.00932436 0.00143137 1e-05
0.00944398 0.00143646 1e-05
0.0095636 0.00144156 1e-05
0.00968415 0.0014467 1e-05
0.0098047 0.00145188 1e-05
0.00992524 0.00145707 1e-05
0.0100458 0.00146229 1e-05
0.0101663 0.00146751 1e-05
0.0102878 0.00147278 1e-05
0.0104093 0.00147807 1e-05
0.0105308 0.00148338 1e-05
0.0106523 0.00148869 1e-05
0.0107738 0.00149402 1e-05
0.0108962 0.0014994 1e-05
0.0110186 0.00150479 1e-05
0.0111411 0.00151018 1e-05
0.0112635 0.00151559 1e-05
0.0113859 0.001521 1e-05
0.0115093 0.00152646 1e-05
0.0116327 0.00153192 1e-05
0.0117561 0.00153738 1e-05
0.0118795 0.00154284 1e-05
0.0120028 0.0015483 1e-05
0.0121272 0.00155381 1e-05
0.0122515 0.0015593 1e-05
0.0123759 0.00156479 1e-05
0.0125002 0.00157027 1e-05
0.0126245 0.00157574 1e-05
0.0127498 0.00158126 1e-05
0.0128752 0.00158675 1e-05
0.0130005 0.00159222 1e-05
0.0131258 0.00159768 1e-05
0.0132511 0.00160312 1e-05
0.0133599 0.00160784 1e-05
0.0134688 0.00161253 1e-05
0.0135776 0.00161721 1e-05
0.0136865 0.00162186 1e-05
0.0138028 0.00162681 1e-05
0.0138187 0.00162749 1e-05
0.0138347 0.00162816 1e-05
0.0138506 0.00162884 1e-05
0.0138666 0.00162951 1e-05
0.0138825 0.00163019 1e-05
0.0140098 0.00163556 1e-05
0.014137 0.0016409 1e-05
0.0142643 0.0016462 1e-05
0.0143916 0.00165146 1e-05
0.0145188 0.00165668 1e-05
0.0146471 0.0016619 1e-05
0.0147753 0.00166707 1e-05
0.0149036 0.00167219 1e-05
0.0150318 0.00167725 1e-05
0.0151601 0.00168227 1e-05
0.0152893 0.00168727 1e-05
0.0154186 0.0016922 1e-05
0.0155478 0.00169706 1e-05
0.0156771 0.00170186 1e-05
0.0158063 0.0017066 1e-05
0.0159366 0.0017113 1e-05
0.0160668 0.0017159 1e-05
0.0161971 0.00172043 1e-05
0.0163274 0.00172487 1e-05
0.0164576 0.00172923 1e-05
0.0165889 0.00173353 1e-05
0.0167201 0.00173772 1e-05
0.0168514 0.0017418 1e-05
0.0169827 0.00174578 1e-05
0.0171139 0.00174965 1e-05
0.0172462 0.00175345 1e-05
0.0173785 0.0017571 1e-05
0.0175108 0.00176062 1e-05
0.0176431 0.00176401 1e-05
0.0177754 0.00176727 1e-05
0.0179087 0.00177043 1e-05
0.018042 0.00177341 1e-05
0.0181754 0.00177623 1e-05
0.0183087 0.0017789 1e-05
0.018442 0.0017814 1e-05
0.0185763 0.00178378 1e-05
0.0187107 0.00178593 1e-05
0.018845 0.0017879 1e-05
0.0189794 0.00178967 1e-05
0.0191137 0.00179125 1e-05
0.0192491 0.00179267 1e-05
0.0193845 0.00179383 1e-05
0.0195199 0.00179477 1e-05
0.0196554 0.00179547 1e-05
0.0197907 0.00179596 1e-05
0.0199272 0.00179623 1e-05
0.0200636 0.00179621 1e-05
0.0202001 0.00179593 1e-05
0.0203365 0.00179538 1e-05
0.020473 0.00179457 1e-05
0.0206105 0.0017935 1e-05
0.020748 0.00179211 1e-05
0.0208855 0.00179042 1e-05
0.021023 0.00178842 1e-05
0.0211606 0.00178612 1e-05
0.0212991 0.00178351 1e-05
0.0214377 0.00178055 1e-05
0.0215763 0.00177725 1e-05
0.0217148 0.00177361 1e-05
0.0218535 0.00176963 1e-05
0.021948 0.00176669 1e-05
0.0220425 0.00176357 1e-05
0.022137 0.00176029 1e-05
0.0222316 0.00175683 1e-05
0.022294 0.00175444 1e-05
0.0223456 0.0017524 1e-05
0.0223971 0.00175031 1e-05
0.0224487 0.00174817 1e-05
0.0225002 0.00174598 1e-05
0.0225517 0.00174375 1e-05
0.0226925 0.0017375 1e-05
0.0228332 0.00173085 1e-05
0.0229739 0.0017238 1e-05
0.0231146 0.00171636 1e-05
0.0232555 0.00170852 1e-05
0.0233973 0.00170023 1e-05
0.0235391 0.00169149 1e-05
0.0236809 0.00168235 1e-05
0.0238227 0.00167279 1e-05
0.0239647 0.0016628 1e-05
0.0241076 0.00165233 1e-05
0.0242505 0.00164141 1e-05
0.0243934 0.00163004 1e-05
0.0245362 0.00161824 1e-05
[...]
POINT_DATA 12110
 FIELD attributes 3
age 1 12110 float
0 -2e-05 -4e-05 -6e-05 -8e-05 -0.0001
0 -2e-05 -4e-05 -6e-05 -8e-05 -0.0001
0 -2e-05 -4e-05 -6e-05 -8e-05 -0.0001
0 -2e-05 -4e-05 -6e-05 -8e-05 -0.0001
0 -2e-05 -4e-05 -6e-05 -8e-05 -0.0001
0 -2e-05 -4e-05 -6e-05 -8e-05 -0.0001
0 -2e-05 -4e-05 -6e-05 -8e-05 -0.0001
0 -2e-05 -4e-05 -6e-05 -8e-05 -0.0001
0 -2e-05 -4e-05 -6e-05 -8e-05 -0.0001
0 -2.00009e-05 -4.00018e-05 -6.00027e-05 -8.00036e-05 -0.000100002
0 0.000296567 0.000593135 0.000889702 0.00118627 0.00148284 0.00178676 0.00209069 0.00239461 0.00269853 0.00300245 0.00329423 0.00358601 0.00387779 0.00416957 0.00446135 0.00474147 0.00502159 0.00530171 0.00558184 0.00586196 0.00608868 0.0063154 0.00654212 0.00676884 0.00696258 0.00701139 0.00706019 0.007109 0.00715781 0.00720661 0.0074648 0.00772299 0.00798117 0.00823936 0.00849755 0.00874542 0.00899329 0.00924116 0.00948903 0.00973691 0.00997488 0.0102128 0.0104508 0.0106888 0.0109268 0.0111552 0.0113837 0.0116121 0.0118406 0.0120691 0.0122884 0.0125077 0.0127271 0.0129464 0.0131657 0.0133763 0.0135869 0.0137974 0.014008 0.0142186 0.0144207 0.0146229 0.0148251 0.0150272 0.0152294 0.0154235 0.0156175 0.0158116 0.0160057 0.0161998 0.0163861 0.0165724 0.0167588 0.0169451 0.0171314 0.0173103 0.0174892 0.0176681 0.017847 0.0180259 0.0181976 0.0183693 0.0185411 0.0187128 0.0188846 0.0190494 0.0192143 0.0193792 0.0195441 0.019709 0.0198673 0.0200256 0.0201839 0.0203422 0.0205005 0.0206062 0.0207119 0.0208176 0.0209233 0.021029 0.0211355 0.0212421 0.0213486 0.0214551 0.0215616 0.021669 0.0217764 0.0218837 0.0219911 0.0220984 0.0222066 0.0223148 0.022423 0.0225312 0.0226394 0.0227485 0.0228575 0.0229665 0.0230756 0.0231846 0.0232945 0.0234044 0.0235143 0.0236242 0.0237341 0.0238448 0.0239556 0.0240663 0.0241771 0.0242878 0.0243995 0.0245111 0.0246227 0.0247343 0.0248459 0.0249584 0.0250709 0.0251834 0.0252959 0.0254084 0.0255218 0.0256351 0.0257485 0.0258619 0.0259753 0.0260895 0.0262038 0.026318 0.0264323 0.0265466 0.0266617 0.0267769 0.026892 0.0270072 0.0271223 0.0272384 0.0273544 0.0274705 0.0275865 0.0277026 0.0278196 0.0279365 0.0280535 0.0281704 0.0282874 0.0284053 0.0285232 0.028641 0.0287589 0.0288768 0.0289956 0.0291144 0.0292332 0.029352 0.0294708 0.0295905 0.0297102 0.02983 0.0299497 0.0300694 0.0301901 0.0303107 0.0304314 0.0305521 0.0306727 0.0307943 0.0309159 0.0310375 0.0311591 0.0312807 0.0314033 0.0315258 0.0316484 0.0317709 0.0318935 0.032017 0.0321405 0.032264 0.0323875 0.032511 0.0326354 0.0327599 0.0328844 0.0330088 0.0331333 0.0332587 0.0333842 0.0335096 0.033635 0.0337604 0.0338694 0.0339783 0.0340873 0.0341962 0.0343127 0.0343286 0.0343446 0.0343605 0.0343765 0.0343924 0.0345198 0.0346472 0.0347746 0.0349019 0.0350293 0.0351577 0.035286 0.0354144 0.0355427 0.0356711 0.0358004 0.0359298 0.0360591 0.0361885 0.0363178 0.0364481 0.0365785 0.0367088 0.0368391 0.0369695 0.0371008 0.0372321 0.0373635 0.0374948 0.0376261 0.0377585 0.0378908 0.0380231 0.0381555 0.0382878 0.0384211 0.0385545 0.0386879 0.0388212 0.0389545 0.0390889 0.0392233 0.0393577 0.039492 0.0396264 0.0397618 0.0398972 0.0400326 0.040168 0.0403034 0.0404398 0.0405763 0.0407127 0.0408492 0.0409856 0.0411232 0.0412607 0.0413982 0.0415357 0.0416733 0.0418119 0.0419505 0.0420891 0.0422277 0.0423664 0.0424609 0.0425555 0.0426501 0.0427447 0.0428072 0.0428588 0.0429104 0.042962 0.0430135 0.0430651 0.043206 0.0433469 0.0434878 0.0436287 0.0437697 0.0439118 0.0440539 0.044196 0.0443381 0.0444804 0.0446237 0.0447671 0.0449104 0.0450537 0.0451974 0.045342 0.0454866 0.0456312 0.0457758 0.0459209 0.0460668 0.0462128 0.0463587 0.0465047 0.0466511 0.0467985 0.0469458 0.0470931 0.0472405 0.0473883 0.0474327 0.0474771 0.0475215 0.0475658 0.0476078 0.0477127 0.0478176 0.0479226 0.0480275 0.0481327 0.0482829 0.0484331 0.0485833 0.0487335 0.0488844 0.0490361 0.0491877 0.0493394 0.0494911 0.0496434 0.0497966 0.0499498 0.050103 0.0502562 0.0503933 0.0503966 0.0504 0.0504033 0.0504067 0.05041 0.0505647 0.0507194 0.0508741 0.0510288 0.0511842 0.0513404 0.0514966 0.0516529 0.0518091 0.0519661 0.0521059 0.0522458 0.0523857 0.0525256 0.0526538 0.0526742 0.0526946 0.052715 0.0527354 0.0527558 0.0529151 0.0530745 0.0532339 0.0533932 0.0535533 0.0537143 0.0538753 0.0540362 0.0541972 0.0543589 0.0544141 0.0544693 0.0545245 0.0545797 0.0546334 0.0547412 0.054849 0.0549568 0.0550646 0.0551728 0.055337 0.0555012 0.0556655 0.0558297 0.0559947 0.0560972 0.0561996 0.0563021 0.0564046 0.0565026 0.0565671 0.0566316 0.056696 0.0567605 0.0568251 0.0569927 0.0571603 0.0573278 0.0574954 0.0576638 0.0578135 0.0579632 0.0581129 0.0582626 0.0584044 0.0584257 0.058447 0.0584683 0.0584896 0.058511 0.0586819 0.0588529 0.0590239 0.0591949 0.0593666 0.0595393 0.0597121 0.0598848 0.0600575 0.060231 0.0602561 0.0602812 0.0603063 0.0603314 0.0603563 0.0605058 0.0606552 0.0608046 0.0609541 0.061104 0.0612802 0.0614564 0.0616326 0.0618088 0.0619858 0.0620634 0.0621409 0.0622184 0.0622959 0.0623719 0.0624728 0.0625737 0.0626746 0.0627755 0.0628766 0.0630564 0.0632361 0.0634159 0.0635956 0.0637762 0.0639145 0.0640529 0.0641913 0.0643297 0.0644637 0.0645079 0.0645521 0.0645964 0.0646406 0.0646848 0.0648682 0.0650515 0.0652349 0.0654183 0.0656024 0.0657876 0.0659728 0.066158 0.0663431 0.0665291 0.0665521 0.0665751 0.0665981 0.0666211 0.066644 0.0668081 0.0669722 0.0671363 0.0673004 0.0674651 0.0676539 0.0678428 0.0680317 0.0682205 0.0684102 0.0685133 0.0686163 0.0687194 0.0688225 0.0689238 0.0690119 0.0691001 0.0691882 0.0692764 0.0693647 0.0695573 0.0697499 0.0699425 0.0701351 0.0703284 0.0705229 0.0707173 0.0709118 0.0711063 0.0713015 0.0713042 0.0713068 0.0713094 0.0713121 0.0713147 0.0715085 0.0717022 0.0718959 0.0720896 0.0722841 0.0724823 0.0726805 0.0728788 0.073077 0.073276 0.0733869 0.0734978 0.0736086 0.0737195 0.0738289 0.0739186 0.0740083 0.074098 0.0741877 0.0742775 0.0744796 0.0746816 0.0748837 0.0750857 0.0752884 0.0754923 0.0756963 0.0759002 0.0761041 0.0763087 0.076343 0.0763772 0.0764115 0.0764457 0.0764799 0.0766515 0.0768232 0.0769949 0.0771666 0.0773386 0.0775463 0.077754 0.0779618 0.0781695 0.0783778 0.0785599 0.0787419 0.078924 0.0791061 0.0792857 0.0793138 0.0793419 0.0793701 0.0793982 0.0794263 0.0796378 0.0798492 0.0800607 0.0802721 0.080484 0.0806972 0.0809105 0.0811237 0.081337 0.0815506 0.0816953 0.0818399 0.0819845 0.0821291 0.0822729 0.0823435 0.0824141 0.0824848 0.0825554 0.082626 0.0828428 0.0830596 0.0832764 0.0834932 0.0837101 0.0839286 0.0841471 0.0843655 0.084584 0.0848026 0.0848612 0.0849199 0.0849786 0.0850372 0.0850959 0.0852573 0.0854188 0.0855803 0.0857418 0.0859032 0.0861249 0.0863466 0.0865683 0.08679 0.0870115 0.087194 0.0873765 0.087559 0.0877415 0.0879255 0.0879658 0.0880062 0.0880465 0.0880869 0.0881272 0.0883519 0.0885766 0.0888013 0.089026 0.08925 0.089476 0.0897021 0.0899281 0.0901541 0.0903794 0.090464 0.0905485 0.0906331 0.0907176 0.0908029 0.0909454 0.0910879 0.0912304 0.0913729 0.0915149 0.0917435 0.091972 0.0922005 0.092429 0.0926564 0.0928796 0.0931028 0.093326 0.0935492 0.0937809 0.0937854 0.0937899 0.0937944 0.0937988 0.0938033 0.0940341 0.0942648 0.0944955 0.0947262 0.0949554 0.095187 0.0954187 0.0956504 0.0958821 0.0961122 0.0962754 0.0964387 0.096602 0.0967652 0.0969353 0.0970029 0.0970706 0.0971382 0.0972058 0.0972733 0.0975068 0.0977403 0.0979738 0.0982073 0.0984389 0.0986733 0.0989076 0.099142 0.0993763 0.0996088 0.0997621 0.0999154 0.100069 0.100222 0.100383 0.100463 0.100543 0.100623 0.100703 0.100783 0.101019 0.101255 0.101491 0.101727 0.101961 0.102198 0.102435 0.102672 0.102909 0.103144 0.103375 0.103605 0.103836 0.104067 0.104322 0.104324 0.104326 0.104327 0.104329 0.104331 0.10457 0.104808 0.105047 0.105286 0.105523 0.105762 0.106002 0.106242 0.106481 0.10672 0.10696 0.107201 0.107442 0.107683 0.107922 0.10816 0.108398 0.108636 0.108874 0.10913 0.109133 0.109136 0.109139 0.109141 0.109144 0.109384 0.109625 0.109865 0.110105 0.110343 0.110588 0.110832 0.111076 0.111321 0.111564 0.111809 0.112055 0.112301 0.112546 0.112791 0.113038 0.113285 0.113532 0.113779 0.114025 0.114273 0.114522 0.11477 0.115018 0.115266 0.115382 0.115497 0.115613 0.115729 0.115854 0.115986 0.116118 0.116251 0.116383 0.116515 0.116767 0.117018 0.11727 0.117521 0.117772 0.118025 0.118279 0.118532 0.118785 0.119038 0.119293 0.119547 0.119802 0.120057 0.120312 0.120568 0.120825 0.121082 0.121338 0.121595 0.121853 0.122112 0.12237 0.122629 0.122887 0.123147 0.123407 0.123668 0.123928 0.124188 0.124451 0.124713 0.124975 0.125237 0.125499 0.125763 0.126028 0.126292 0.126556 0.12682 0.127086 0.127352 0.127619 0.127885 0.128151 0.128181 0.128212 0.128243 0.128274 0.128305 0.128542 0.128779 0.129017 0.129254 0.129491 0.129762 0.130032 0.130302 0.130572 0.130842 0.131115 0.131387 0.131659 0.131931 0.132204 0.132478 0.132752 0.133027 0.133301 0.133575 0.133852 0.134128 0.134405 0.134681 0.134957 0.135236 0.135515 0.135793 0.136072 0.13635 0.136631 0.136912 0.137192 0.137473 0.137754 0.138037 0.138319 0.138602 0.138885 0.139168 0.139453 0.139738 0.140023 0.140308 0.140593 0.14088 0.141168 0.141455 0.141742 0.142029 0.142319 0.142608 0.142898 0.143187 0.143477 0.143768 0.14406 0.144352 0.144643 0.144935 0.145229 0.145523 0.145817 0.146111 0.146405 0.146701 0.146997 0.147293 0.147589 0.147886 0.148184 0.148483 0.148781 0.149079 0.149378 0.149679 0.14998 0.15028 0.150581 0.150882 0.151185 0.151488 0.151791 0.152094 0.152397 0.152703 0.153008 0.153314 0.153619 0.153925 0.154232 0.15454 0.154848 0.155156 0.155464 0.155662 0.155859 0.156057 0.156255 0.156466 0.156576 0.156686 0.156795 0.156905 0.157015 0.157327 0.15764 0.157953 0.158265 0.158578 0.158893 0.159208 0.159523 0.159838 0.160153 0.16047 0.160788 0.161105 0.161423 0.16174 0.16206 0.16238 0.1627 0.16302 0.16334 0.163662 0.163985 0.164307 0.16463 0.164952 0.165277 0.165602 0.165927 0.166252 0.166577 0.166904 0.167231 0.167559 0.167886 0.168214 0.168544 0.168874 0.169204 0.169534 0.169864 0.170196 0.170529 0.170861 0.171194 0.171526 0.171862 0.172197 0.172532 0.172867 0.173202 0.17354 0.173877 0.174215 0.174553 0.174891 0.175231 0.175571 0.175912 0.176252 0.176592 0.176935 0.177278 0.177621 0.177964 0.178307 0.178653 0.178999 0.179344 0.17969 0.180036 0.180384 0.180732 0.181081 0.181429 0.181777 0.182128 0.18248 0.182831 0.183182 0.183533 0.183886 0.18424 0.184594 0.184948 0.185302 0.185658 0.186015 0.186371 0.186728 0.187084 0.187444 0.187803 0.188162 0.188521 0.188881 0.189243 0.189605 0.189967 0.190329 0.190691 0.191056 0.191421 0.191786 0.192151 0.192516 0.192883 0.193251 0.193619 0.193987 0.194354 0.194725 0.195096 0.195466 0.195837 0.196207 0.196581 0.196954 0.197328 0.197701 0.198075 0.198451 0.198827 0.199204 0.19958 0.199957 0.200336 0.200715 0.201094 0.201474 0.201853 0.202235 0.202618 0.203 0.203382 0.203764 0.20415 0.204535 0.20492 0.205305 0.20569 0.206079 0.206467 0.206855 0.207243 0.207631 0.208023 0.208414 0.208805 0.209196 0.209588 0.209982 0.210376 0.21077 0.211165 0.211559 0.211956 0.212354 0.212751 0.213148 0.213546 0.213946 0.214346 0.214747 0.215147 0.215548 0.215951 0.216355 0.216758 0.217162 0.217565 0.217972 0.218379 0.218785 0.219192 0.219598 0.220008 0.220418 0.220828 0.221238 0.221648 0.222061 0.222474 0.222887 0.2233 0.223713 0.224129 0.224545 0.224961 0.225377 0.225794 0.226213 0.226633 0.227052 0.227472 0.227891 0.228314 0.228737 0.229159 0.229582 0.230005 0.230415 0.230824 0.231234 0.231644 0.232054 0.23248 0.232905 0.233331 0.233757 0.234184 0.234626 0.235069 0.235512 0.235954 0.236397 0.236857 0.237317 0.237777 0.238237 0.238698 0.239176 0.239654 0.240132 0.24061 0.241088 0.241567 0.242046 0.242524 0.243003 0.243572 0.243594 0.243617 0.243639 0.243662 0.243684 0.244178 0.244672 0.245166 0.245659 0.246154 0.24669 0.247226 0.247763 0.248299 0.248836 0.249393 0.249951 0.250508 0.251065 0.251623 0.252202 0.252781 0.25336 0.253939 0.254519 0.25512 0.255722 0.256324 0.256926 0.257527 0.258153 0.258778 0.259403 0.260028 0.260654 0.261303 0.261953 0.262602 0.263252 0.263902 0.264576 0.265251 0.265926 0.266601 0.267276 0.267977 0.268679 0.26938 0.270081 0.270782 0.271511 0.27224 0.272968 0.273697 0.274425 0.275182 0.275939 0.276696 0.277453 0.278211 0.278997 0.279784 0.28057 0.281357 0.282143 0.28296 0.283777 0.284595 0.285412 0.286229 0.287078 0.287927 0.288776 0.289625 0.290474 0.291356 0.292238 0.29312 0.294002 0.294884 0.295801 0.296717 0.297634 0.29855 0.299467 0.300419 0.301371 0.302323 0.303275 0.304227 0.305217 0.306206 0.307195 0.308184 0.309174 0.310201 0.311229 0.312257 0.313284 0.314311