/*--------------------------------*- C++ -*----------------------------------*\
  =========                 |
  \\      /  F ield         | OpenFOAM: The Open Source CFD Toolbox
   \\    /   O peration     | Website:  https://openfoam.org
    \\  /    A nd           | Version:  9
     \\/     M anipulation  |
\*---------------------------------------------------------------------------*/
FoamFile
{
    format      ascii;
    class       volScalarField;
    location    "9.03";
    object      k;
}
// * * * * * * * * * * * * * * * * * * * * * * * * * * * * * * * * * * * * * //

dimensions      [0 2 -2 0 0 0 0];

internalField   nonuniform List<scalar> 
2268
(
9.05598e-05
0.000234962
0.00034767
0.000436293
0.000509308
0.000570626
0.00062231
0.000665695
0.00070197
0.000732384
0.000758462
0.00078166
0.000802367
0.000818376
0.000823735
0.000808681
0.000769511
0.000713598
0.000635849
0.000546722
0.000461477
0.000324316
0.000152422
0.000200169
0.000546223
0.00077862
0.000963322
0.00111603
0.00124419
0.00135216
0.001443
0.00151934
0.0015837
0.00163847
0.00168537
0.00172414
0.00175082
0.00175688
0.00173045
0.00166349
0.00156011
0.00141704
0.00125123
0.00107206
0.000775882
0.000345285
0.000287864
0.000730501
0.001016
0.00124277
0.00143084
0.00158893
0.00172222
0.00183455
0.00192923
0.0020093
0.00207736
0.00213505
0.00218177
0.00221319
0.0022207
0.00219325
0.00212387
0.00201478
0.0018638
0.00167919
0.00145481
0.00109248
0.000490291
0.000362939
0.000879625
0.0012006
0.00145388
0.00166409
0.00184087
0.00198996
0.00211569
0.0022219
0.00231191
0.00238842
0.00245297
0.00250482
0.00253965
0.0025494
0.00252415
0.00245779
0.00235189
0.00220538
0.00201975
0.0017784
0.00138488
0.000636741
0.000428606
0.00101224
0.00136262
0.00163628
0.00186293
0.00205334
0.00221378
0.00234909
0.00246351
0.00256067
0.00264334
0.002713
0.00276887
0.00280687
0.00281959
0.00279831
0.00273746
0.00263872
0.00250221
0.00232511
0.00208359
0.00167792
0.000797751
0.000488032
0.0011348
0.00151218
0.00180343
0.00204361
0.00224482
0.00241397
0.00255648
0.00267709
0.00277968
0.00286712
0.00294089
0.00300026
0.00304144
0.00305778
0.00304163
0.00298808
0.00289899
0.00277583
0.0026137
0.00238533
0.00198703
0.000996614
0.000543645
0.00125063
0.00165402
0.00196166
0.00221379
0.00242402
0.00260008
0.0027481
0.0028734
0.0029802
0.00307146
0.00314866
0.0032112
0.00325564
0.00327609
0.00326589
0.00322106
0.00314354
0.00303581
0.00289317
0.00269026
0.00232772
0.00128763
0.000597499
0.00136154
0.00179092
0.00211467
0.00237791
0.00259594
0.00277749
0.00292963
0.00305842
0.00316846
0.0032628
0.00334293
0.00340838
0.00345612
0.00348103
0.00347736
0.00344218
0.00337785
0.0032868
0.00316631
0.00299817
0.0027102
0.00184244
0.00022951
0.000483174
0.000667503
0.00074056
0.000775664
0.000792349
0.000789119
0.000777831
0.000748026
0.000705371
0.00064338
0.000558412
0.000516614
0.000514286
0.000478186
0.0004083
0.000306316
0.000205783
0.000106243
0.000439349
0.00102488
0.00138401
0.00156189
0.00164934
0.00168973
0.00169465
0.00166997
0.00161193
0.00153129
0.00140852
0.00125061
0.00115944
0.00112964
0.00103951
0.000893334
0.000686775
0.000458697
0.00021958
0.000540817
0.00131844
0.00175336
0.00197366
0.00208434
0.00213499
0.00214272
0.00211254
0.00204424
0.0019472
0.00181529
0.00165823
0.00154326
0.00146662
0.00134569
0.00116777
0.000922063
0.000638117
0.000314335
0.000605605
0.00155586
0.00203775
0.00227798
0.0023985
0.00245268
0.00246029
0.00242622
0.0023523
0.00224874
0.00211617
0.00196607
0.00183727
0.00172651
0.00158208
0.00138644
0.00112228
0.000810045
0.000402818
0.00068587
0.00178554
0.00229754
0.00254258
0.00266338
0.0027162
0.00272163
0.00268441
0.00260739
0.0025017
0.0023716
0.0022272
0.00208879
0.00195373
0.00179083
0.00158316
0.00130886
0.000978954
0.000487019
0.000820716
0.00204213
0.00255533
0.00278949
0.00290293
0.00295073
0.00295255
0.00291278
0.00283452
0.00272911
0.00260257
0.00246174
0.00231555
0.00216275
0.00198531
0.00176781
0.0014857
0.00114117
0.000568868
0.00105998
0.0023482
0.0028178
0.00302683
0.0031273
0.00316754
0.00316487
0.00312316
0.00304524
0.00294169
0.00281888
0.00267976
0.00252685
0.0023602
0.0021706
0.00194308
0.0016519
0.00129224
0.000654139
0.0016034
0.00270455
0.00308284
0.00325717
0.00334125
0.00337245
0.00336492
0.00332182
0.00324568
0.00314535
0.00302589
0.00288707
0.00272822
0.00254995
0.00234846
0.00210915
0.00180765
0.00142907
0.00073678
0.000673736
0.00152863
0.00200048
0.00235001
0.00262987
0.00285845
0.00304653
0.00320303
0.00333553
0.00344932
0.00354751
0.00363144
0.00370083
0.00375337
0.00378529
0.00379257
0.00377395
0.0037317
0.0036682
0.00358332
0.00347115
0.0033045
0.00295347
0.000778118
0.0017561
0.00229002
0.00267672
0.0029771
0.00321507
0.00340541
0.00356114
0.00369336
0.00380862
0.00390981
0.00399768
0.0040717
0.00413059
0.00417231
0.00419478
0.00419771
0.00418336
0.00415363
0.00410907
0.00405243
0.00398011
0.00386281
0.000912502
0.00200365
0.00260446
0.0030304
0.0033438
0.00358163
0.00376398
0.00390985
0.0040361
0.00415033
0.00425432
0.00434729
0.00442767
0.00449423
0.00454629
0.00458405
0.00460878
0.00462025
0.00461679
0.00460018
0.00457722
0.00455758
0.0045389
0.00115864
0.00226009
0.00294463
0.00341692
0.00371637
0.0039427
0.00410851
0.00423608
0.00435338
0.00446785
0.00457876
0.00468267
0.00477499
0.00485304
0.00491734
0.0049721
0.00502136
0.00505349
0.0050632
0.0050602
0.00505422
0.00506412
0.00510448
0.00135221
0.00258291
0.00326279
0.00366741
0.0039152
0.00415807
0.00436301
0.00450062
0.00462145
0.00474764
0.00487344
0.00499398
0.00509905
0.00518023
0.00524298
0.00529341
0.0053414
0.00538446
0.00544575
0.00548267
0.00547902
0.00550427
0.0056038
0.0016568
0.00268155
0.00327129
0.00368575
0.00399528
0.00427751
0.00449472
0.00466614
0.00481123
0.00495463
0.00509922
0.00524193
0.0053714
0.00546938
0.00552714
0.00557699
0.00564452
0.0056906
0.00574596
0.00582613
0.00585553
0.00586101
0.00592263
0.00208127
0.00276078
0.00329278
0.00371625
0.00405366
0.0043494
0.00458906
0.00477974
0.00495127
0.0051164
0.00527679
0.00543041
0.0055668
0.00567278
0.00574555
0.00580914
0.00587862
0.0059315
0.00597526
0.00604105
0.00609879
0.00613653
0.00620085
0.00224162
0.0028222
0.00332544
0.00374698
0.00410255
0.00440655
0.00466333
0.00488028
0.00507408
0.00525582
0.00542876
0.0055916
0.00573352
0.00584745
0.00593734
0.00601258
0.00608045
0.00613979
0.00619187
0.0062528
0.00631447
0.00636632
0.00641773
0.00232548
0.00287381
0.00336476
0.00378605
0.004149
0.004464
0.00473692
0.00497427
0.00518729
0.00538491
0.00557122
0.00574591
0.00589979
0.00602466
0.00612617
0.00621225
0.00628672
0.00635152
0.00641038
0.00647039
0.00653055
0.00658503
0.00663216
0.00237461
0.0029151
0.00340334
0.00382702
0.00419708
0.00452258
0.00480991
0.00506522
0.0052962
0.00550957
0.0057092
0.00589527
0.00606096
0.00619956
0.00631576
0.00641606
0.00650175
0.00657425
0.00663826
0.00669893
0.00675773
0.00681238
0.00685899
0.00239679
0.0029457
0.0034394
0.00386886
0.00424713
0.00458338
0.00488419
0.00515562
0.00540343
0.00563206
0.00584442
0.00604109
0.00621813
0.00637136
0.00650366
0.00661958
0.00671893
0.00680204
0.00687356
0.00693858
0.00699937
0.00705514
0.00710248
0.00240573
0.00297048
0.00347521
0.00391311
0.00430039
0.0046474
0.004961
0.00524712
0.00551037
0.00575331
0.00597786
0.00618532
0.00637407
0.00654196
0.00669026
0.00682152
0.00693535
0.0070315
0.00711399
0.00718771
0.00725486
0.00731502
0.00736542
0.00240769
0.00299326
0.00351273
0.00396095
0.00435796
0.00471573
0.00504157
0.00534113
0.00561819
0.00587432
0.00611113
0.00633012
0.00653122
0.00671378
0.00687795
0.00702455
0.00715347
0.00726451
0.00736089
0.00744681
0.00752407
0.00759232
0.00764927
0.00239981
0.00301689
0.00355319
0.00401292
0.00442043
0.0047892
0.00512696
0.00543903
0.00572865
0.00599723
0.00624659
0.00647828
0.00669284
0.00689024
0.00707041
0.00723315
0.00737822
0.00750588
0.00761855
0.00771937
0.00780971
0.00788926
0.00795616
0.00240054
0.00304224
0.00359679
0.00406942
0.00448827
0.00486839
0.00521802
0.00554214
0.00584388
0.00612507
0.0063877
0.00663321
0.00686233
0.00707533
0.0072721
0.00745215
0.00761507
0.00776119
0.0078923
0.00801051
0.00811674
0.00821062
0.00829054
0.00240432
0.00306974
0.00364419
0.00413095
0.00456194
0.00495381
0.00531544
0.00565174
0.005966
0.00626063
0.00653762
0.00679832
0.00704347
0.00727339
0.00748799
0.00768683
0.00786946
0.00803609
0.00818786
0.008326
0.00845099
0.00856227
0.0086583
0.00240714
0.00310039
0.00369609
0.00419797
0.0046419
0.00504599
0.00541995
0.00576906
0.00609688
0.0064062
0.00669896
0.00697645
0.00723941
0.00748811
0.00772248
0.00794212
0.00814664
0.00833607
0.00851091
0.0086717
0.00881841
0.00895023
0.00906551
0.00240413
0.00313457
0.00375307
0.00427095
0.00472853
0.00514552
0.00553251
0.00589543
0.0062382
0.00656371
0.00687391
0.00717007
0.00745289
0.00772265
0.00797922
0.00822224
0.00845131
0.0086662
0.0088669
0.00905332
0.00922493
0.0093806
0.00951851
0.00240414
0.00317224
0.00381537
0.00435023
0.00482227
0.00525307
0.00565417
0.00603222
0.00639147
0.00673487
0.00706444
0.00738143
0.00768654
0.00797999
0.00826165
0.00853111
0.00878785
0.00903137
0.00926118
0.00947664
0.00967674
0.00985994
0.0100242
0.00240509
0.00321373
0.00388326
0.00443609
0.00492356
0.00536931
0.0057859
0.00618062
0.00655806
0.00692132
0.00727246
0.00761276
0.00794292
0.00826314
0.00857321
0.00887263
0.0091607
0.00943661
0.0096994
0.00994789
0.0101806
0.0103955
0.0105902
0.0024063
0.00325921
0.00395673
0.0045287
0.00503279
0.00549487
0.00592852
0.00634167
0.00673927
0.00712461
0.00749984
0.00786632
0.00822473
0.00857522
0.00891753
0.009251
0.00957469
0.00988741
0.0101877
0.010474
0.010744
0.0109955
0.0112255
0.00240304
0.00330894
0.00403572
0.00462819
0.0051503
0.00563026
0.00608274
0.0065163
0.0069363
0.00734627
0.0077485
0.00814442
0.00853474
0.00891958
0.00929855
0.00967082
0.0100351
0.0103899
0.0107332
0.0110627
0.0113757
0.0116693
0.01194
0.00240654
0.00336171
0.0041202
0.00473465
0.00527631
0.00577588
0.00624914
0.00670535
0.00715029
0.00758778
0.00802031
0.00844943
0.00887588
0.00929975
0.00972053
0.0101371
0.010548
0.0109509
0.0113435
0.0117228
0.0120854
0.0124275
0.0127453
0.00240597
0.00341858
0.00421017
0.00484811
0.00541096
0.00593198
0.00642818
0.0069095
0.00738223
0.00785053
0.00831714
0.00878375
0.00925118
0.00971951
0.0101881
0.0106555
0.0111197
0.0115781
0.0120276
0.0124642
0.012884
0.0132822
0.0136543
0.00240417
0.00347914
0.00430548
0.00496846
0.00555421
0.00609866
0.00662013
0.0071293
0.007633
0.0081358
0.00864075
0.00914975
0.00966375
0.0101828
0.010706
0.0112318
0.0117575
0.0122799
0.012795
0.013298
0.0137838
0.0142469
0.0146815
0.00240206
0.00354204
0.00440573
0.00509537
0.00570585
0.00627586
0.00682507
0.00736504
0.00790323
0.00844466
0.00899276
0.00954972
0.0101166
0.0106936
0.0112795
0.0118724
0.0124691
0.0130655
0.0136565
0.0142364
0.0147987
0.0153366
0.0158432
0.00240832
0.00360938
0.00451059
0.00522836
0.00586541
0.00646323
0.00704289
0.00761687
0.00819332
0.00877789
0.00937449
0.00998567
0.0106127
0.0112558
0.0119136
0.0125838
0.0132625
0.0139446
0.0146237
0.0152927
0.0159436
0.016568
0.0171576
0.00241103
0.0036787
0.00461916
0.00536658
0.00603212
0.0066601
0.00727307
0.00788451
0.00850339
0.00913602
0.00978695
0.0104592
0.0111545
0.0118729
0.0126133
0.0133725
0.0141459
0.0149273
0.0157087
0.0164812
0.0172349
0.0179595
0.0186449
0.00241205
0.00375027
0.00473044
0.00550894
0.00620488
0.00686544
0.00751471
0.00816724
0.00883293
0.00951894
0.0102306
0.0109715
0.0117438
0.0125481
0.0133827
0.0142443
0.0151273
0.0160238
0.0169242
0.0178172
0.0186906
0.0195314
0.0203271
0.00241247
0.00382239
0.00484328
0.00565405
0.00638223
0.0070778
0.0077664
0.00846377
0.00918082
0.00992575
0.0107048
0.0115225
0.0123817
0.0132831
0.0142253
0.0152045
0.0162137
0.0172438
0.0182827
0.0193164
0.0203293
0.0213055
0.0222292
0.00241087
0.00389497
0.00495586
0.00579999
0.00656222
0.00729524
0.00802623
0.00877216
0.00954515
0.0103546
0.011208
0.0121109
0.0130671
0.0140781
0.0151425
0.016256
0.0174108
0.0185957
0.0197961
0.0209944
0.0221712
0.0233059
0.0243787
0.00241391
0.00396514
0.00506587
0.00594428
0.0067424
0.0075153
0.00829165
0.00908974
0.00992305
0.0108025
0.0117369
0.0127335
0.0137973
0.0149306
0.0161328
0.0173992
0.0187213
0.0200857
0.0214748
0.0228669
0.0242371
0.0255591
0.026807
0.00241014
0.00403136
0.00516987
0.00608379
0.00691979
0.00773503
0.00855956
0.00941305
0.0103106
0.0112648
0.0122865
0.0133847
0.0145663
0.015835
0.0171911
0.0186305
0.0201439
0.0217163
0.0233267
0.0249482
0.0265491
0.0280947
0.0295505
0.00241111
0.00408693
0.00526372
0.00621471
0.00709096
0.00795106
0.00882628
0.0097378
0.0107026
0.0117354
0.0128495
0.0140563
0.0153648
0.0167812
0.0183074
0.0199405
0.0216716
0.0234845
0.0253552
0.0272506
0.0291299
0.0309465
0.0326529
0.00241385
0.00412601
0.0053414
0.00633244
0.00725226
0.00815989
0.00908777
0.0100589
0.0110926
0.0122063
0.013416
0.0147362
0.0161791
0.0177536
0.0194648
0.0213124
0.0232892
0.0253796
0.0275573
0.0297828
0.0320035
0.034155
0.0361692
0.0024127
0.00414241
0.00539626
0.00643253
0.00740037
0.00835816
0.00933973
0.0103705
0.0114728
0.0126673
0.0139734
0.0154092
0.0169906
0.0187308
0.0206392
0.0227201
0.0249709
0.0273794
0.0299198
0.0325476
0.0351951
0.0377712
0.0401721
0.0024116
0.00412649
0.00542207
0.00651186
0.00753321
0.00854318
0.0095778
0.0106661
0.0118341
0.0131064
0.0145063
0.0160559
0.0177757
0.0196842
0.0217969
0.0241257
0.0266764
0.0294456
0.0324142
0.0355378
0.0387334
0.0418668
0.0447671
0.00240865
0.00406563
0.00541404
0.0065699
0.00765083
0.00871319
0.00979757
0.0109383
0.0121661
0.0135098
0.0149968
0.0166537
0.0185061
0.0205787
0.0228952
0.0254782
0.0283475
0.0315172
0.0349884
0.0387332
0.0426611
0.0465657
0.0501269
0.00240723
0.00395042
0.00537062
0.00660975
0.00775541
0.00886696
0.00999411
0.0111787
0.0124571
0.0138622
0.0154255
0.0171778
0.0191499
0.0213735
0.0238821
0.0267122
0.0299045
0.033504
0.0375583
0.0421002
0.0470721
0.0521356
0.0565739
0.00361267
0.0039119
0.00529593
0.00663512
0.00784871
0.00900165
0.0101605
0.0113774
0.0126942
0.0141475
0.0157721
0.0176022
0.0196737
0.0220249
0.0246997
0.0277507
0.0312457
0.0352795
0.0399945
0.04559
0.0521816
0.0592174
0.0647336
0.0172646
0.00533804
0.00521184
0.0066408
0.00792643
0.00910902
0.0102862
0.0115224
0.0128641
0.0143502
0.0160175
0.0179029
0.0200459
0.0224904
0.0252892
0.0285105
0.0322522
0.0366758
0.0420863
0.0490493
0.0582682
0.0692587
0.0756683
0.0839846
0.0136625
0.00532269
0.00662902
0.00797546
0.00917281
0.0103563
0.0116005
0.0129538
0.0144564
0.0161456
0.0180598
0.0202403
0.0227343
0.0256
0.0289156
0.0328016
0.0374803
0.0434393
0.0517828
0.0646535
0.0852942
0.0905863
0.00203611
0.00176245
0.00178804
0.00205892
0.00371465
0.00364738
0.00363262
0.003667
0.00451297
0.00449283
0.004474
0.00445849
0.00513377
0.00512822
0.00510396
0.00506092
0.00571379
0.00572246
0.00563864
0.00554966
0.00599386
0.0060469
0.00599605
0.00591213
0.00627204
0.00628507
0.00624699
0.00618421
0.00645808
0.00646309
0.00644257
0.00640889
0.00665792
0.00666356
0.00665639
0.00664039
0.00688134
0.00688839
0.00688811
0.00688168
0.0071254
0.00713436
0.00713785
0.00713637
0.00739136
0.0074031
0.00740982
0.00741183
0.00768016
0.00769557
0.00770622
0.00771208
0.00799393
0.00801388
0.00802921
0.00803971
0.00833729
0.00836294
0.00838393
0.00839998
0.00871617
0.0087488
0.0087766
0.00879929
0.00913675
0.00917771
0.0092136
0.00924414
0.0096055
0.00965628
0.0097017
0.00974147
0.0101296
0.0101918
0.0102484
0.0102989
0.010717
0.0107926
0.0108622
0.0109253
0.011377
0.0114682
0.0115528
0.0116304
0.0121202
0.0122293
0.0123312
0.0124257
0.0129585
0.0130882
0.0132102
0.013324
0.0139055
0.0140589
0.0142038
0.0143398
0.0149763
0.0151569
0.0153282
0.0154895
0.0161882
0.0163999
0.0166011
0.0167913
0.01756
0.0178073
0.0180428
0.0182657
0.019113
0.019401
0.0196754
0.0199355
0.0208708
0.0212052
0.021524
0.0218262
0.0228596
0.0232473
0.0236165
0.0239664
0.0251093
0.025558
0.0259849
0.0263887
0.027654
0.0281732
0.028666
0.029131
0.0305339
0.0311349
0.0317034
0.0322379
0.0337979
0.0344946
0.0351504
0.0357637
0.0375077
0.0383173
0.0390741
0.0397765
0.0417456
0.0426889
0.043562
0.0443638
0.0466276
0.0477286
0.048733
0.0496412
0.0523325
0.053612
0.0547547
0.0557655
0.0591579
0.0606114
0.0618699
0.0629497
0.0676042
0.0691428
0.0704173
0.0714671
0.0783816
0.0797271
0.0807739
0.0815923
0.0920386
0.0926571
0.0930911
0.0934072
0.00283039
0.0032638
0.00348523
0.00360312
0.00366063
0.00367766
0.00366293
0.00361881
0.00354801
0.00345482
0.00333978
0.00319978
0.00303252
0.00283795
0.00261536
0.00235355
0.00203326
0.00161494
0.000817899
0.00376586
0.00389619
0.00398773
0.00404269
0.00406746
0.00406735
0.00404523
0.00400192
0.00393859
0.00385473
0.00374421
0.00360002
0.00342019
0.00320323
0.00294752
0.00264749
0.0022862
0.00180481
0.000876234
0.00443929
0.0044396
0.00444967
0.0044565
0.0044544
0.00444038
0.00441245
0.00436949
0.00431149
0.00423659
0.00412959
0.00397849
0.00378401
0.00354637
0.00326023
0.00292331
0.00251667
0.00197571
0.000958086
0.00498693
0.0049205
0.00487817
0.00484741
0.00482235
0.00479522
0.00476049
0.00471529
0.00465933
0.00459089
0.00448662
0.0043271
0.00412112
0.00386879
0.00355686
0.00318709
0.0027382
0.00215122
0.00127419
0.00542438
0.00532469
0.00526272
0.00521161
0.00517036
0.00513206
0.00508735
0.00503153
0.00496265
0.0048787
0.00476617
0.00462231
0.00443652
0.00415033
0.00382301
0.0034285
0.00294914
0.00230632
0.00114181
0.00579689
0.00567317
0.00559587
0.00553421
0.00548757
0.00544266
0.00538269
0.00530746
0.00522263
0.00512996
0.00501274
0.00487781
0.004694
0.00440876
0.00408419
0.0036791
0.00317763
0.00249762
0.0014038
0.00608877
0.00598262
0.005907
0.00583565
0.00577478
0.00571588
0.00563723
0.00554393
0.00544583
0.0053447
0.00523734
0.00513534
0.00495588
0.00460373
0.00424338
0.00384141
0.00335782
0.00273632
0.00194242
0.00634877
0.00626225
0.00618581
0.00611207
0.0060421
0.00596714
0.00587426
0.00576772
0.00565445
0.00553629
0.00540895
0.00526362
0.0050352
0.00469
0.00431039
0.0038986
0.00341927
0.00280596
0.00195118
0.00660559
0.00653711
0.00646192
0.00638523
0.00630792
0.00621846
0.00611168
0.00599045
0.00586011
0.00571906
0.00555816
0.00535697
0.00508184
0.00473794
0.00434862
0.0039165
0.00341896
0.00279378
0.00194603
0.00686276
0.00681162
0.00674147
0.00666434
0.00658065
0.00647874
0.00635656
0.00621838
0.00606766
0.00590129
0.00570609
0.00545793
0.00513698
0.00477147
0.00436715
0.00391109
0.00338661
0.00274381
0.00194729
0.00712641
0.00708841
0.00702697
0.00695168
0.00686223
0.00674976
0.00661378
0.00645907
0.00628654
0.00609224
0.00586398
0.00557994
0.00522407
0.0048217
0.0043854
0.0039011
0.00335324
0.00270078
0.00194559
0.00740765
0.00737756
0.00732385
0.00725028
0.00715586
0.00703595
0.00689012
0.00672094
0.00652792
0.006307
0.00604851
0.00573609
0.00535503
0.00491717
0.00444077
0.00392088
0.00334599
0.00267995
0.00195025
0.00771389
0.00769069
0.00764242
0.00757021
0.00747302
0.00734838
0.00719529
0.00701408
0.00680352
0.00655989
0.00627601
0.00594063
0.00554123
0.00507675
0.00456128
0.00400252
0.00339528
0.00270064
0.00194946
0.00804891
0.00803434
0.00799223
0.00792285
0.00782535
0.00769803
0.0075395
0.00734881
0.00712423
0.00686249
0.00655824
0.00620389
0.00579012
0.00530916
0.00476461
0.00416982
0.00352406
0.00277428
0.00194788
0.00841815
0.0084145
0.00838088
0.00831689
0.00822169
0.00809387
0.00793189
0.00773428
0.00749907
0.00722339
0.00690313
0.0065329
0.00610601
0.00561427
0.00505387
0.00443203
0.00374035
0.00290463
0.00191515
0.00882814
0.00883785
0.0088153
0.00875947
0.00866926
0.00854335
0.0083802
0.00817814
0.00793519
0.00764882
0.00731579
0.00693199
0.0064924
0.00599046
0.00541983
0.00477659
0.00403676
0.00310505
0.00191487
0.00928563
0.00931132
0.00930249
0.00925753
0.00917502
0.00905352
0.00889147
0.00868716
0.00843867
0.00814377
0.00779978
0.00740346
0.00695075
0.00643619
0.0058521
0.005185
0.0043964
0.00336783
0.00195448
0.00979781
0.0098424
0.00985007
0.0098187
0.0097465
0.00963178
0.0094729
0.0092681
0.0090155
0.00871307
0.00835847
0.00794891
0.00748079
0.00694885
0.00634404
0.00564715
0.00480876
0.00368279
0.00194916
0.0103727
0.0104394
0.0104666
0.0104516
0.0103922
0.0102865
0.0101325
0.00992851
0.0096725
0.00936249
0.00899625
0.00857114
0.00808354
0.0075278
0.00689351
0.00615819
0.00526652
0.00405383
0.00195402
0.0110193
0.0111119
0.0111618
0.011166
0.0111219
0.0110272
0.0108797
0.0106773
0.0104179
0.0100994
0.00971948
0.00927527
0.00876286
0.00817591
0.00750264
0.00671818
0.00576282
0.00445762
0.00208221
0.011748
0.0118704
0.0119467
0.0119732
0.011947
0.0118652
0.0117253
0.011525
0.0112618
0.0109333
0.0105368
0.0100692
0.00952593
0.0088998
0.00817769
0.00733261
0.00630026
0.00488545
0.00227675
0.0125705
0.0127273
0.0128338
0.0128859
0.01288
0.0128131
0.012682
0.012484
0.0122162
0.0118758
0.0114595
0.0109637
0.010383
0.00970949
0.00892846
0.00801138
0.00688954
0.00535338
0.00249161
0.0135
0.0136963
0.0138372
0.0139184
0.0139357
0.0138854
0.0137642
0.0135686
0.0132953
0.0129408
0.0125012
0.0119721
0.0113472
0.010618
0.00976841
0.00876732
0.00754121
0.00586354
0.00273484
0.0145516
0.0147928
0.0149728
0.0150867
0.01513
0.0150985
0.0149882
0.0147951
0.0145153
0.0141445
0.013678
0.0131106
0.0124351
0.0116414
0.0107123
0.0096141
0.00826784
0.00642751
0.00299715
0.015742
0.0160342
0.0162583
0.0164089
0.0164812
0.0164705
0.0163722
0.016182
0.0158948
0.0155058
0.0150092
0.0143983
0.013665
0.0127976
0.0117772
0.0105674
0.00908271
0.00705502
0.00328021
0.0170902
0.0174397
0.0177132
0.0179048
0.0180092
0.0180215
0.0179367
0.0177497
0.0174549
0.017046
0.0165161
0.015857
0.0150588
0.014108
0.0129835
0.0116456
0.0100012
0.00775643
0.00358261
0.018617
0.0190311
0.0193595
0.0195964
0.0197362
0.0197739
0.0197042
0.0195213
0.0192187
0.0187889
0.0182232
0.0175114
0.0166415
0.0155976
0.0143555
0.0128713
0.011043
0.00854674
0.00390906
0.020346
0.0208321
0.0212214
0.0215079
0.0216865
0.0217522
0.0216994
0.0215219
0.0212122
0.0207611
0.0201581
0.0193903
0.0184428
0.0172963
0.0159228
0.0142731
0.0122345
0.00944979
0.0042824
0.0223033
0.0228695
0.0233257
0.0236664
0.0238871
0.0239832
0.0239494
0.0237791
0.0234637
0.0229924
0.022352
0.0215264
0.0204968
0.0192394
0.0177211
0.0158859
0.013609
0.0104965
0.00473028
0.0245185
0.0251734
0.0257025
0.0261016
0.0263674
0.0264964
0.026484
0.0263233
0.0260048
0.0255157
0.0248397
0.0239569
0.0228431
0.0214684
0.0197929
0.0177519
0.0152063
0.0117206
0.00527151
0.0270251
0.0277777
0.0283856
0.0288467
0.02916
0.029324
0.0293353
0.0291872
0.0288694
0.0283669
0.0276601
0.0267237
0.025527
0.024032
0.0221889
0.0199214
0.0170726
0.0131579
0.00591206
0.029862
0.0307214
0.0314132
0.0319388
0.032301
0.0325013
0.0325384
0.0324064
0.0320944
0.0315854
0.0308555
0.0298735
0.0286002
0.0269865
0.0249693
0.0224557
0.0192647
0.0148515
0.00666165
0.0330748
0.0340498
0.0348289
0.0354197
0.0358304
0.0360671
0.0361314
0.0360194
0.0357197
0.0352134
0.0344722
0.0334579
0.0321209
0.0303978
0.0282067
0.0254307
0.0218554
0.0168605
0.00754605
0.0367187
0.0378164
0.0386835
0.0393369
0.0397928
0.0400637
0.0401558
0.0400673
0.0397876
0.0392958
0.0385595
0.0375328
0.0361539
0.0343414
0.0319879
0.028942
0.0249408
0.0192664
0.00860181
0.0408616
0.0420852
0.0430359
0.0437442
0.044238
0.0445383
0.0446567
0.0445947
0.044343
0.0438798
0.0431689
0.0421571
0.0407692
0.0389026
0.0364164
0.0331103
0.0286494
0.0221823
0.00987805
0.0455886
0.0469335
0.0479546
0.0487032
0.0492222
0.0495428
0.0496833
0.0496495
0.0494338
0.0490144
0.0483532
0.0473908
0.0460396
0.0441738
0.0416121
0.0380868
0.0331554
0.025771
0.0114406
0.051007
0.0524537
0.0535192
0.0542832
0.0548076
0.0551349
0.0552905
0.055284
0.0551107
0.0547505
0.0541651
0.0532922
0.0520356
0.0502487
0.0477068
0.0440568
0.0386981
0.0302815
0.013412
0.0572527
0.0587548
0.0598191
0.0605615
0.0610639
0.0613795
0.0615391
0.0615564
0.0614294
0.061141
0.0606561
0.0599145
0.0588188
0.057211
0.0548304
0.0512319
0.0456007
0.0361076
0.0160137
0.0644918
0.0659593
0.0669516
0.067622
0.0680681
0.0683493
0.0684992
0.0685331
0.068452
0.0682429
0.0678771
0.0673031
0.0664331
0.0651161
0.0630816
0.0598175
0.0542708
0.0438795
0.0196117
0.0729104
0.0741919
0.0750154
0.0755532
0.0759053
0.0761281
0.0762525
0.0762928
0.0762518
0.0761215
0.0758821
0.0754965
0.0748993
0.0739708
0.0724788
0.0699283
0.0651284
0.0546075
0.0249166
0.0826677
0.0835573
0.084102
0.0844476
0.0846711
0.0848137
0.0848969
0.0849311
0.084919
0.0848572
0.0847356
0.0845346
0.0842191
0.0837223
0.082905
0.0814318
0.0783181
0.0697006
0.0334292
0.0938013
0.0941082
0.0942899
0.0944033
0.0944765
0.0945239
0.094553
0.0945673
0.0945682
0.0945552
0.0945261
0.0944768
0.0944001
0.0942833
0.0940996
0.0937759
0.0930066
0.0896758
0.0470027
)
;

boundaryField
{
    leftWall
    {
        type            kqRWallFunction;
        value           nonuniform List<scalar> 
50
(
9.05598e-05
0.000200169
0.000287864
0.000362939
0.000428606
0.000488032
0.000543645
0.000597499
0.000673736
0.000778118
0.000912502
0.00115864
0.00135221
0.0016568
0.00208127
0.00224162
0.00232548
0.00237461
0.00239679
0.00240573
0.00240769
0.00239981
0.00240054
0.00240432
0.00240714
0.00240413
0.00240414
0.00240509
0.0024063
0.00240304
0.00240654
0.00240597
0.00240417
0.00240206
0.00240832
0.00241103
0.00241205
0.00241247
0.00241087
0.00241391
0.00241014
0.00241111
0.00241385
0.0024127
0.0024116
0.00240865
0.00240723
0.00361267
0.0172646
0.0839846
)
;
    }
    rightWall
    {
        type            kqRWallFunction;
        value           nonuniform List<scalar> 
50
(
0.000106243
0.00021958
0.000314335
0.000402818
0.000487019
0.000568868
0.000654139
0.00073678
0.000817899
0.000876234
0.000958086
0.00127419
0.00114181
0.0014038
0.00194242
0.00195118
0.00194603
0.00194729
0.00194559
0.00195025
0.00194946
0.00194788
0.00191515
0.00191487
0.00195448
0.00194916
0.00195402
0.00208221
0.00227675
0.00249161
0.00273484
0.00299715
0.00328021
0.00358261
0.00390906
0.0042824
0.00473028
0.00527151
0.00591206
0.00666165
0.00754605
0.00860181
0.00987805
0.0114406
0.013412
0.0160137
0.0196117
0.0249166
0.0334292
0.0470027
)
;
    }
    lowerWall
    {
        type            kqRWallFunction;
        value           nonuniform List<scalar> 
62
(
9.05598e-05
0.000234962
0.00034767
0.000436293
0.000509308
0.000570626
0.00062231
0.000665695
0.00070197
0.000732384
0.000758462
0.00078166
0.000802367
0.000818376
0.000823735
0.000808681
0.000769511
0.000713598
0.000635849
0.000546722
0.000461477
0.000324316
0.000152422
0.000152422
0.000345285
0.000490291
0.000636741
0.000797751
0.000996614
0.00128763
0.00184244
0.00203611
0.00176245
0.00178804
0.00205892
0.00022951
0.000439349
0.000540817
0.000605605
0.00068587
0.000820716
0.00105998
0.0016034
0.00022951
0.000483174
0.000667503
0.00074056
0.000775664
0.000792349
0.000789119
0.000777831
0.000748026
0.000705371
0.00064338
0.000558412
0.000516614
0.000514286
0.000478186
0.0004083
0.000306316
0.000205783
0.000106243
)
;
    }
    atmosphere
    {
        type            inletOutlet;
        inletValue      uniform 0.1;
        value           nonuniform List<scalar> 
46
(
0.1
0.0136625
0.00532269
0.00662902
0.00797546
0.00917281
0.0103563
0.0116005
0.0129538
0.0144564
0.0161456
0.0180598
0.0202403
0.0227343
0.0256
0.0289156
0.0328016
0.0374803
0.0434393
0.0517828
0.0646535
0.1
0.1
0.1
0.1
0.1
0.1
0.1
0.1
0.1
0.1
0.1
0.1
0.1
0.1
0.1
0.1
0.1
0.1
0.1
0.1
0.1
0.1
0.1
0.1
0.0470027
)
;
    }
    defaultFaces
    {
        type            empty;
    }
}


// ************************************************************************* //
