/*--------------------------------*- C++ -*----------------------------------*\
  =========                 |
  \\      /  F ield         | OpenFOAM: The Open Source CFD Toolbox
   \\    /   O peration     | Website:  https://openfoam.org
    \\  /    A nd           | Version:  9
     \\/     M anipulation  |
\*---------------------------------------------------------------------------*/
FoamFile
{
    format      ascii;
    class       volVectorField;
    location    "9.03";
    object      U;
}
// * * * * * * * * * * * * * * * * * * * * * * * * * * * * * * * * * * * * * //

dimensions      [0 1 -1 0 0 0 0];

internalField   nonuniform List<vector> 
2268
(
(-0.000482499 0.000197966 0)
(-0.00112287 0.000110467 0)
(-0.00146273 5.94087e-05 0)
(-0.00168125 2.55596e-05 0)
(-0.00176082 -7.50284e-06 0)
(-0.00172233 -4.54867e-05 0)
(-0.00157289 -7.59431e-05 0)
(-0.00133355 -9.48543e-05 0)
(-0.00103678 -0.000108839 0)
(-0.000713632 -0.000117887 0)
(-0.000336998 -0.000138016 0)
(0.000165655 -0.000194819 0)
(0.000918435 -0.000302048 0)
(0.00205606 -0.000438156 0)
(0.00354386 -0.000525033 0)
(0.00510464 -0.000396146 0)
(0.00570816 0.000106863 0)
(0.00452385 0.000611903 0)
(0.00167876 0.001597 0)
(-0.00475836 0.00212113 0)
(-0.0094197 0.000618551 0)
(-0.00934801 -0.000915854 0)
(-0.00464296 -0.00204804 0)
(-0.000394196 0.000565065 0)
(-0.00095535 0.000345949 0)
(-0.00128786 0.000209509 0)
(-0.0015014 0.000112429 0)
(-0.0015951 2.43181e-05 0)
(-0.00158117 -6.08515e-05 0)
(-0.00147152 -0.000132586 0)
(-0.00129753 -0.000179064 0)
(-0.00108413 -0.000212693 0)
(-0.000851131 -0.000241422 0)
(-0.000577482 -0.000293991 0)
(-0.000210591 -0.000420528 0)
(0.000326506 -0.000639472 0)
(0.00110652 -0.000895379 0)
(0.00208555 -0.00102525 0)
(0.00305061 -0.000717216 0)
(0.00335601 0.000273736 0)
(0.00227517 0.00142893 0)
(0.000295079 0.00293095 0)
(-0.00282953 0.00364194 0)
(-0.00507175 0.00141818 0)
(-0.00626546 -0.0012344 0)
(-0.00426542 -0.00483886 0)
(-0.000315932 0.000848629 0)
(-0.000831163 0.00053906 0)
(-0.00116213 0.000336692 0)
(-0.00139247 0.000179854 0)
(-0.00151393 4.02967e-05 0)
(-0.00153824 -8.44105e-05 0)
(-0.0014796 -0.000187816 0)
(-0.00136944 -0.000255778 0)
(-0.0012311 -0.000297957 0)
(-0.00107933 -0.000337919 0)
(-0.0009024 -0.000413942 0)
(-0.000664826 -0.000587072 0)
(-0.000312267 -0.000882188 0)
(0.000204471 -0.00122112 0)
(0.000858493 -0.00137889 0)
(0.00152273 -0.000936384 0)
(0.00170028 0.000453915 0)
(0.000730753 0.0020768 0)
(-0.000613578 0.00367525 0)
(-0.00175732 0.00434224 0)
(-0.00262566 0.00204611 0)
(-0.00410037 -0.00105681 0)
(-0.00319819 -0.00696074 0)
(-0.000266976 0.00110207 0)
(-0.000742671 0.000732338 0)
(-0.00107017 0.000477755 0)
(-0.00132027 0.000271 0)
(-0.00147546 8.58842e-05 0)
(-0.0015441 -7.96296e-05 0)
(-0.00154055 -0.000212111 0)
(-0.00149494 -0.000296844 0)
(-0.00143036 -0.000345792 0)
(-0.00136039 -0.000391934 0)
(-0.00127989 -0.000483937 0)
(-0.00116902 -0.000688505 0)
(-0.000988254 -0.00103671 0)
(-0.000695348 -0.00143794 0)
(-0.000289728 -0.00163109 0)
(0.000202283 -0.00111184 0)
(0.000400134 0.000605055 0)
(-0.000329921 0.00256176 0)
(-0.00121652 0.00403086 0)
(-0.00128096 0.00450731 0)
(-0.00125551 0.00245386 0)
(-0.00254025 -0.000754356 0)
(-0.00211888 -0.00841063 0)
(-0.000241046 0.00133017 0)
(-0.000683686 0.000914257 0)
(-0.00100672 0.00062021 0)
(-0.00127885 0.000372932 0)
(-0.00147341 0.000149379 0)
(-0.00159392 -5.15771e-05 0)
(-0.00165226 -0.000208847 0)
(-0.00167653 -0.000305893 0)
(-0.00168893 -0.000359158 0)
(-0.00170241 -0.000406215 0)
(-0.00171912 -0.000502471 0)
(-0.00173278 -0.000723067 0)
(-0.0017142 -0.00110528 0)
(-0.00162314 -0.00155472 0)
(-0.00143239 -0.00179975 0)
(-0.00106141 -0.00128286 0)
(-0.000745608 0.000675452 0)
(-0.00113949 0.00289752 0)
(-0.00166089 0.00412834 0)
(-0.00117219 0.00432604 0)
(-0.000648867 0.00264873 0)
(-0.00146818 -0.000487715 0)
(-0.000978897 -0.00925092 0)
(-0.000227248 0.00154342 0)
(-0.000644549 0.00109022 0)
(-0.000967367 0.000767575 0)
(-0.00126628 0.000490143 0)
(-0.00150882 0.000235677 0)
(-0.00169169 4.47148e-06 0)
(-0.00182164 -0.000173681 0)
(-0.00192388 -0.000280503 0)
(-0.00201818 -0.000335215 0)
(-0.00211644 -0.000378363 0)
(-0.00222812 -0.000470059 0)
(-0.00235956 -0.000692152 0)
(-0.00249002 -0.00109109 0)
(-0.00258319 -0.00157635 0)
(-0.00259649 -0.00188698 0)
(-0.00236586 -0.00146039 0)
(-0.0018931 0.00060558 0)
(-0.00185038 0.00307588 0)
(-0.00202188 0.00406787 0)
(-0.00132343 0.00397951 0)
(-0.000616239 0.00264489 0)
(-0.000675575 -0.000502478 0)
(0.000542458 -0.00957839 0)
(-0.000215319 0.00178261 0)
(-0.000612205 0.00126247 0)
(-0.000946423 0.000918747 0)
(-0.00128097 0.000624481 0)
(-0.00158249 0.000349351 0)
(-0.00184063 9.43364e-05 0)
(-0.00205527 -0.00010334 0)
(-0.0022459 -0.000217574 0)
(-0.00242758 -0.000272099 0)
(-0.00261098 -0.000308897 0)
(-0.00281161 -0.000389993 0)
(-0.00304698 -0.00060154 0)
(-0.00330595 -0.00100261 0)
(-0.00356084 -0.00150909 0)
(-0.00377066 -0.00188494 0)
(-0.00375073 -0.00161085 0)
(-0.00321987 0.000363204 0)
(-0.00259363 0.00301721 0)
(-0.00230088 0.00393513 0)
(-0.00169263 0.00361178 0)
(-0.000929828 0.0023938 0)
(7.72612e-05 -0.00111475 0)
(0.00219687 -0.00952598 0)
(-0.000209588 0.00182692 0)
(-0.000597843 0.00137308 0)
(-0.000941261 0.00105825 0)
(-0.00131759 0.000770461 0)
(-0.00168975 0.000486755 0)
(-0.00203929 0.000213526 0)
(-0.00235427 2.83369e-06 0)
(-0.00264465 -0.000109604 0)
(-0.00291996 -0.000162651 0)
(-0.0031876 -0.000195279 0)
(-0.00346658 -0.00026367 0)
(-0.00378423 -0.000456514 0)
(-0.00414085 -0.000849008 0)
(-0.00452265 -0.0013599 0)
(-0.00490482 -0.00178545 0)
(-0.00513779 -0.00167347 0)
(-0.00472433 1.36833e-06 0)
(-0.00359701 0.00261014 0)
(-0.00269568 0.00369003 0)
(-0.00207606 0.00323957 0)
(-0.00113283 0.00181771 0)
(0.000782708 -0.00213625 0)
(0.00252724 -0.00868654 0)
(-0.010954 0.00281482 0)
(-0.0108228 -0.000477013 0)
(-0.00436874 -0.00220059 0)
(0.00257578 -0.00165404 0)
(0.00684799 -0.00119637 0)
(0.010423 -0.000952854 0)
(0.0126334 -0.000395869 0)
(0.0138737 -0.000350527 0)
(0.0148807 -0.000258444 0)
(0.0150501 -0.000254625 0)
(0.01442 0.000773461 0)
(0.00912867 0.0028283 0)
(-0.00227852 0.00255153 0)
(-0.00636593 0.00011251 0)
(-0.00565442 -0.000278973 0)
(-0.00534144 -0.000213475 0)
(-0.00628968 -1.6996e-05 0)
(-0.00711802 -0.000810229 0)
(-0.00180643 -0.000803114 0)
(-0.0108767 0.00645724 0)
(-0.0061689 -0.00194969 0)
(-0.00188804 -0.00426438 0)
(0.0025704 -0.0033346 0)
(0.00535726 -0.00235723 0)
(0.00736321 -0.00172451 0)
(0.00881176 -0.00102277 0)
(0.010022 -0.000721416 0)
(0.0103998 -0.000173242 0)
(0.00923472 0.000271531 0)
(0.00773385 0.00169491 0)
(0.00562943 0.00479644 0)
(0.000869752 0.00453335 0)
(-0.00169599 0.00104225 0)
(-0.00309054 5.42854e-05 0)
(-0.00405544 0.000252893 0)
(-0.00639776 0.000915112 0)
(-0.00885065 -0.000986924 0)
(-0.00524705 -0.00323169 0)
(-0.00719406 0.00914127 0)
(-0.00248746 -0.00361847 0)
(0.000203046 -0.00577768 0)
(0.00274851 -0.0044528 0)
(0.00441082 -0.00312243 0)
(0.00561726 -0.00223201 0)
(0.0065655 -0.00150954 0)
(0.00744465 -0.000970459 0)
(0.00748893 0.000113579 0)
(0.00592456 0.00104179 0)
(0.0038324 0.00235116 0)
(0.00294399 0.00536079 0)
(0.00219005 0.005272 0)
(0.000764246 0.00190103 0)
(-0.00131284 0.000800309 0)
(-0.00290773 0.00108622 0)
(-0.00569624 0.00213906 0)
(-0.00866506 -0.00101154 0)
(-0.00586985 -0.00670291 0)
(-0.00244812 0.0105122 0)
(0.00108477 -0.00479358 0)
(0.00197794 -0.00655284 0)
(0.0028968 -0.00502527 0)
(0.00362324 -0.00356439 0)
(0.00422055 -0.00255398 0)
(0.00475738 -0.00182624 0)
(0.00535559 -0.00111296 0)
(0.00526456 0.000461596 0)
(0.00372948 0.00184209 0)
(0.00166946 0.00297566 0)
(0.00134867 0.00534263 0)
(0.00233586 0.00533873 0)
(0.00179697 0.00258248 0)
(-0.00014717 0.00161375 0)
(-0.0016901 0.00204011 0)
(-0.00427584 0.003352 0)
(-0.00690417 -0.000980815 0)
(-0.00422845 -0.00962486 0)
(0.00267747 0.00990667 0)
(0.00420189 -0.0052221 0)
(0.00325814 -0.0065887 0)
(0.0028848 -0.0051217 0)
(0.00286037 -0.00371443 0)
(0.00296554 -0.00269126 0)
(0.00314811 -0.00200917 0)
(0.00352501 -0.00119796 0)
(0.00344511 0.000794647 0)
(0.00213967 0.00254712 0)
(0.000486265 0.00343997 0)
(0.000514232 0.00506937 0)
(0.00198108 0.00506651 0)
(0.00186372 0.00305585 0)
(0.000435337 0.00223284 0)
(-0.000328709 0.00278329 0)
(-0.00208301 0.00437459 0)
(-0.00419562 -0.00102974 0)
(-0.00214799 -0.0115251 0)
(0.00690619 0.00737978 0)
(0.00616815 -0.00480584 0)
(0.00381972 -0.00599759 0)
(0.00261846 -0.00485451 0)
(0.00206938 -0.00363288 0)
(0.00179728 -0.00266664 0)
(0.00167228 -0.00207744 0)
(0.0018752 -0.00126646 0)
(0.00192168 0.0010527 0)
(0.000952078 0.00311096 0)
(-0.000212252 0.00371833 0)
(0.000117723 0.00470073 0)
(0.00159901 0.00471467 0)
(0.00150944 0.00338816 0)
(0.000541827 0.00252441 0)
(0.00089587 0.00300545 0)
(0.000657806 0.00502371 0)
(-0.000750388 -0.000938799 0)
(2.8607e-07 -0.0123422 0)
(0.00797584 0.00406652 0)
(0.00631297 -0.00384829 0)
(0.0035926 -0.00508482 0)
(0.00207121 -0.00438256 0)
(0.0012333 -0.00339948 0)
(0.000702219 -0.00251244 0)
(0.000309078 -0.00204032 0)
(0.00032567 -0.00133958 0)
(0.000569782 0.00118004 0)
(6.89004e-05 0.00350658 0)
(-0.000599269 0.00382336 0)
(-2.22015e-05 0.00429148 0)
(0.00135463 0.00439547 0)
(0.00122637 0.00364167 0)
(0.00073306 0.00249352 0)
(0.00186174 0.00265903 0)
(0.00299643 0.00508978 0)
(0.00276053 -0.000725977 0)
(0.00247259 -0.0118757 0)
(0.00475869 0.00137066 0)
(0.00496404 -0.00303596 0)
(0.00274147 -0.00421214 0)
(0.00129216 -0.00385593 0)
(0.000355059 -0.00308466 0)
(-0.000317441 -0.00226633 0)
(-0.000913018 -0.00189166 0)
(-0.00117364 -0.0013683 0)
(-0.000793746 0.00109982 0)
(-0.000611063 0.0036492 0)
(-0.000677051 0.00374869 0)
(7.63889e-05 0.00387475 0)
(0.00129835 0.00410049 0)
(0.00134606 0.00376241 0)
(0.00152719 0.00218575 0)
(0.00278797 0.00209367 0)
(0.00461713 0.00451 0)
(0.0057739 -0.000489928 0)
(0.0047401 -0.0100962 0)
(-0.000141563 0.00273549 0)
(-0.00053481 0.00201535 0)
(-0.000916334 0.00159374 0)
(-0.00138639 0.00125945 0)
(-0.00188985 0.00093521 0)
(-0.00240243 0.000615151 0)
(-0.0028951 0.000365251 0)
(-0.00336431 0.000222829 0)
(-0.00380276 0.000137802 0)
(-0.00420103 8.26143e-05 0)
(-0.00457993 1.82977e-05 0)
(-0.00497895 -0.000143615 0)
(-0.00542071 -0.000517404 0)
(-0.00592075 -0.00100898 0)
(-0.00647966 -0.0014767 0)
(-0.00695146 -0.0016103 0)
(-0.00682471 -0.000603812 0)
(-0.00567175 0.00150312 0)
(-0.00400145 0.00278113 0)
(-0.00242304 0.00233458 0)
(-0.000955868 0.000549909 0)
(0.000627777 -0.00289987 0)
(-0.00148389 -0.00566415 0)
(2.26862e-05 0.00160231 0)
(-0.000497009 0.00140317 0)
(-0.000962201 0.00134041 0)
(-0.001546 0.00122903 0)
(-0.00221291 0.00107008 0)
(-0.00299066 0.000858112 0)
(-0.00381678 0.000672608 0)
(-0.00459857 0.000552868 0)
(-0.00527016 0.000465559 0)
(-0.00580729 0.000402041 0)
(-0.0062139 0.000347631 0)
(-0.00651743 0.000237889 0)
(-0.0067907 -3.92123e-05 0)
(-0.00712887 -0.000403021 0)
(-0.00758696 -0.000785037 0)
(-0.00811174 -0.00106751 0)
(-0.00827408 -0.000837106 0)
(-0.00741658 0.000104904 0)
(-0.00548245 0.00079702 0)
(-0.00318056 0.000546929 0)
(-0.00134352 -0.000563281 0)
(-0.000568759 -0.00196578 0)
(-0.00195216 -0.00270221 0)
(-0.000240458 0.00291081 0)
(-0.00147613 0.0026644 0)
(-0.00213512 0.00233796 0)
(-0.00335207 0.00211234 0)
(-0.00444426 0.0020507 0)
(-0.00535455 0.00194104 0)
(-0.00624836 0.00170819 0)
(-0.00712808 0.00141168 0)
(-0.00791594 0.00111547 0)
(-0.00847898 0.00085586 0)
(-0.00873614 0.000622184 0)
(-0.00869931 0.000378563 0)
(-0.00858223 8.11672e-05 0)
(-0.00862881 -0.000233466 0)
(-0.00889073 -0.000510347 0)
(-0.00932599 -0.000753988 0)
(-0.00947996 -0.000989444 0)
(-0.00854691 -0.00110412 0)
(-0.00646764 -0.00123747 0)
(-0.00396858 -0.00134229 0)
(-0.00197966 -0.00155393 0)
(-0.00128039 -0.00194414 0)
(-0.00215033 -0.00222988 0)
(0.00317865 0.00500136 0)
(0.00157094 0.00309135 0)
(-0.000484962 0.00296986 0)
(-0.00574697 0.00294773 0)
(-0.00883334 0.00259715 0)
(-0.00845316 0.0025154 0)
(-0.0073623 0.00229394 0)
(-0.00702458 0.00202231 0)
(-0.00765163 0.00162031 0)
(-0.00816519 0.00117265 0)
(-0.00826935 0.00077684 0)
(-0.00805598 0.000323396 0)
(-0.00775304 8.33164e-06 0)
(-0.00804781 -0.000217227 0)
(-0.00862684 -0.000529358 0)
(-0.00856614 -0.000808733 0)
(-0.00717696 -0.00139119 0)
(-0.00547115 -0.00172663 0)
(-0.00486483 -0.00209752 0)
(-0.00389822 -0.00231345 0)
(-0.00216409 -0.00226467 0)
(-0.000860272 -0.00237078 0)
(-0.000823171 -0.00262289 0)
(-2.05165e-05 -0.00193851 0)
(-0.000282852 0.00565414 0)
(-0.00988624 0.0126708 0)
(-0.0231423 0.0176009 0)
(-0.0292383 0.00515359 0)
(-0.0274277 0.000269542 0)
(-0.0211515 -0.000430897 0)
(-0.0151762 0.00226686 0)
(-0.0116305 0.00293687 0)
(-0.00894258 0.00128473 0)
(-0.00598466 0.000221411 0)
(-0.00264413 -0.000813948 0)
(0.00100905 -0.000593344 0)
(0.0040413 0.00103573 0)
(0.0064338 0.000296371 0)
(0.00921809 -0.00215745 0)
(0.0119295 -0.00652882 0)
(0.0142007 -0.00656679 0)
(0.0115439 -0.00324276 0)
(0.00348794 -0.00654226 0)
(-0.000594814 -0.00685457 0)
(0.000619377 -0.00447679 0)
(-7.17877e-05 0.000131906 0)
(-0.00190374 0.0058324 0)
(-0.00666618 0.0118287 0)
(-0.00830449 0.019543 0)
(-0.000337075 0.0203185 0)
(0.00205226 0.00712776 0)
(-0.00484745 -0.0030325 0)
(-0.00844424 -0.00803107 0)
(-0.00930528 -0.00468745 0)
(-0.0079341 -0.00248759 0)
(-0.00675845 -0.00337021 0)
(-0.0062932 -0.00360497 0)
(-0.00547551 -0.00513282 0)
(-0.00311439 -0.0058758 0)
(0.00144429 -0.00420322 0)
(0.00571258 -0.00455115 0)
(0.00676704 -0.00498717 0)
(0.00310935 -0.00479102 0)
(-0.00152649 -0.00270508 0)
(-0.00251258 0.0080313 0)
(-0.00450004 0.00643379 0)
(-0.00886363 -0.000111144 0)
(-0.0110255 -0.00343213 0)
(-0.0110868 0.00621145 0)
(-0.00279669 0.00606949 0)
(-0.00520319 0.0129495 0)
(-0.00522297 0.0133425 0)
(-0.00198001 0.0113931 0)
(-6.3074e-05 0.00895445 0)
(-0.00160675 0.00470321 0)
(-0.00445861 -0.000917334 0)
(-0.006545 -0.00215943 0)
(-0.00688302 -0.00211229 0)
(-0.00694789 -0.00248949 0)
(-0.00727491 -0.00306709 0)
(-0.00708968 -0.00603999 0)
(-0.00532147 -0.00943128 0)
(-0.00227732 -0.00894691 0)
(0.000125563 -0.00658698 0)
(0.000846614 -0.00272662 0)
(-0.000808095 0.000718132 0)
(-0.00480389 0.000916709 0)
(-0.00742007 0.00520845 0)
(-0.00872577 0.00589216 0)
(-0.0116188 0.00229648 0)
(-0.0154495 -0.00171127 0)
(-0.0166325 0.00275313 0)
(-0.00268904 0.0124797 0)
(-0.00352887 0.0144533 0)
(-0.00341133 0.0132292 0)
(-0.00267226 0.0109293 0)
(-0.00202931 0.00812313 0)
(-0.00232483 0.00413795 0)
(-0.0038123 0.00056755 0)
(-0.00555548 -0.000894708 0)
(-0.00638206 -0.00159637 0)
(-0.00652534 -0.00206153 0)
(-0.0063241 -0.00286439 0)
(-0.00610191 -0.00614945 0)
(-0.00640309 -0.0100747 0)
(-0.00689124 -0.00980619 0)
(-0.00730443 -0.00678049 0)
(-0.00757418 -0.00271937 0)
(-0.00792903 0.00170638 0)
(-0.0094452 0.00428385 0)
(-0.010849 0.00711712 0)
(-0.0113821 0.00765207 0)
(-0.0126592 0.00511568 0)
(-0.0152569 0.00177838 0)
(-0.0167292 0.000981323 0)
(-0.00140763 0.0131114 0)
(-0.00185823 0.0144888 0)
(-0.00213107 0.0132408 0)
(-0.00232796 0.0109883 0)
(-0.00249426 0.0081156 0)
(-0.00294904 0.00492855 0)
(-0.00404042 0.00213011 0)
(-0.00534659 0.000312118 0)
(-0.00613949 -0.00116185 0)
(-0.00636444 -0.00210254 0)
(-0.00630776 -0.00316842 0)
(-0.00666179 -0.0057096 0)
(-0.00823643 -0.00847662 0)
(-0.0104092 -0.00834308 0)
(-0.0119528 -0.0057882 0)
(-0.0126615 -0.00243466 0)
(-0.0128384 0.0018425 0)
(-0.0131122 0.0052564 0)
(-0.0133472 0.00760367 0)
(-0.0133178 0.00804793 0)
(-0.0138219 0.00635562 0)
(-0.0152059 0.00359327 0)
(-0.0161759 0.00098185 0)
(-0.0010125 0.0148343 0)
(-0.00123235 0.0150143 0)
(-0.00150723 0.0135598 0)
(-0.00185133 0.0113484 0)
(-0.00232128 0.00859974 0)
(-0.00301912 0.00574032 0)
(-0.00403222 0.00328414 0)
(-0.00511357 0.00130807 0)
(-0.00592753 -0.00060427 0)
(-0.00649846 -0.00180287 0)
(-0.00706732 -0.00280366 0)
(-0.00808446 -0.00450785 0)
(-0.00996277 -0.00616051 0)
(-0.0121823 -0.00620411 0)
(-0.0138024 -0.00456073 0)
(-0.0146767 -0.00184105 0)
(-0.014963 0.00184818 0)
(-0.014839 0.00520527 0)
(-0.0144649 0.00734903 0)
(-0.0140021 0.00790414 0)
(-0.013884 0.0068028 0)
(-0.0143056 0.00444803 0)
(-0.0146257 0.000969843 0)
(-0.000764436 0.0156838 0)
(-0.000853964 0.0153457 0)
(-0.00111056 0.0138565 0)
(-0.00143273 0.0117719 0)
(-0.00196131 0.00925305 0)
(-0.00274819 0.00662516 0)
(-0.00371596 0.00431911 0)
(-0.00467755 0.00223643 0)
(-0.00557621 0.00019945 0)
(-0.00651447 -0.000972953 0)
(-0.00756797 -0.0017749 0)
(-0.00892523 -0.00294986 0)
(-0.0107916 -0.00401274 0)
(-0.0128076 -0.00428245 0)
(-0.0142873 -0.00342041 0)
(-0.0150334 -0.0012777 0)
(-0.0152043 0.00185497 0)
(-0.014933 0.00480813 0)
(-0.014333 0.00674179 0)
(-0.0135744 0.00734104 0)
(-0.012917 0.00655317 0)
(-0.0124997 0.00446811 0)
(-0.0122062 0.000801856 0)
(-0.000507883 0.0162497 0)
(-0.000565126 0.015576 0)
(-0.000807362 0.0141005 0)
(-0.00110638 0.0121758 0)
(-0.00161733 0.00990252 0)
(-0.00236504 0.00750233 0)
(-0.00323101 0.00525111 0)
(-0.00409485 0.00313615 0)
(-0.0050798 0.00123308 0)
(-0.00627579 0.000230519 0)
(-0.00755607 -0.000466391 0)
(-0.00896759 -0.00134251 0)
(-0.0106514 -0.00211843 0)
(-0.012407 -0.00258299 0)
(-0.013793 -0.00237012 0)
(-0.0145419 -0.000863585 0)
(-0.0146234 0.00171287 0)
(-0.014227 0.00430212 0)
(-0.0135281 0.0059603 0)
(-0.0125959 0.00645074 0)
(-0.0115876 0.00574101 0)
(-0.0106446 0.00383104 0)
(-0.00997493 0.000534569 0)
(-0.000307799 0.0166495 0)
(-0.000324737 0.0157777 0)
(-0.000549778 0.0143302 0)
(-0.000824755 0.0125596 0)
(-0.00129148 0.010498 0)
(-0.0019516 0.00828878 0)
(-0.0026993 0.00606864 0)
(-0.00351027 0.00402468 0)
(-0.00455902 0.00241248 0)
(-0.00582757 0.00156386 0)
(-0.00711234 0.000864097 0)
(-0.00841731 0.000128346 0)
(-0.00982443 -0.000526156 0)
(-0.0112879 -0.00107239 0)
(-0.0126333 -0.00125563 0)
(-0.0135247 -0.000400211 0)
(-0.0137035 0.00149544 0)
(-0.0133042 0.00373422 0)
(-0.0125575 0.00509333 0)
(-0.0115633 0.00539435 0)
(-0.0104567 0.00465959 0)
(-0.00940713 0.00290317 0)
(-0.0086614 0.00014767 0)
(-0.000131068 0.0168475 0)
(-0.000113168 0.0159309 0)
(-0.000306311 0.0145398 0)
(-0.00054586 0.0129075 0)
(-0.000951462 0.0110251 0)
(-0.00152388 0.00897284 0)
(-0.00219515 0.00680247 0)
(-0.00300723 0.00493826 0)
(-0.00407925 0.0036216 0)
(-0.00528602 0.00282825 0)
(-0.00645691 0.00209288 0)
(-0.00760382 0.0013897 0)
(-0.00876228 0.000762204 0)
(-0.00994684 0.000222782 0)
(-0.0111349 -9.16461e-05 0)
(-0.0120912 0.000237064 0)
(-0.0125168 0.00146454 0)
(-0.0123027 0.00318647 0)
(-0.0115946 0.00421887 0)
(-0.0106369 0.00433928 0)
(-0.00960854 0.00359795 0)
(-0.00869231 0.00204373 0)
(-0.00811925 -0.000199655 0)
(2.298e-05 0.0168681 0)
(6.86787e-05 0.0160224 0)
(-7.33409e-05 0.0147165 0)
(-0.000270565 0.0132048 0)
(-0.000610031 0.0114787 0)
(-0.00110705 0.00958096 0)
(-0.00176812 0.00753107 0)
(-0.00261682 0.00588052 0)
(-0.00365247 0.00476939 0)
(-0.00473568 0.0039508 0)
(-0.00576218 0.00317773 0)
(-0.00675725 0.00245949 0)
(-0.00773696 0.00181913 0)
(-0.00870958 0.00128513 0)
(-0.00967944 0.000942016 0)
(-0.0105648 0.000995251 0)
(-0.0111232 0.00169512 0)
(-0.0111018 0.00277799 0)
(-0.0105527 0.00344034 0)
(-0.00974486 0.00341096 0)
(-0.00889399 0.00270538 0)
(-0.0081783 0.00138759 0)
(-0.00778546 -0.000389912 0)
(0.000109423 0.0167505 0)
(0.000211943 0.0160485 0)
(0.000128841 0.0148524 0)
(-3.3359e-05 0.0134513 0)
(-0.000321426 0.0118679 0)
(-0.000763051 0.0101377 0)
(-0.00142472 0.00830217 0)
(-0.0022943 0.0068248 0)
(-0.00325272 0.00579847 0)
(-0.00419281 0.00492869 0)
(-0.00508522 0.00412215 0)
(-0.0059515 0.00338039 0)
(-0.00679876 0.0027196 0)
(-0.00763076 0.00216896 0)
(-0.00844583 0.00179301 0)
(-0.00918843 0.00170871 0)
(-0.00969263 0.00201988 0)
(-0.00976637 0.00255177 0)
(-0.00941397 0.00285265 0)
(-0.00882436 0.00268691 0)
(-0.00819034 0.00202496 0)
(-0.00767353 0.000921854 0)
(-0.00741928 -0.000484505 0)
(0.000149179 0.0165409 0)
(0.000314516 0.0160137 0)
(0.00027431 0.0149516 0)
(0.00013012 0.0136656 0)
(-0.000136364 0.0122187 0)
(-0.000551725 0.0106604 0)
(-0.0011784 0.00906933 0)
(-0.00198916 0.00772319 0)
(-0.00284038 0.00669188 0)
(-0.00365433 0.00578129 0)
(-0.00443618 0.00494732 0)
(-0.00519572 0.00418377 0)
(-0.00593544 0.0035021 0)
(-0.00665402 0.0029267 0)
(-0.00734077 0.00250236 0)
(-0.00794791 0.00229116 0)
(-0.00836552 0.00231863 0)
(-0.00847624 0.002462 0)
(-0.008278 0.00247122 0)
(-0.00788936 0.00218069 0)
(-0.007455 0.00154731 0)
(-0.00710573 0.000609557 0)
(-0.00694996 -0.000525054 0)
(0.000180385 0.0162743 0)
(0.000378687 0.0159339 0)
(0.000355494 0.0150333 0)
(0.000214176 0.0138697 0)
(-4.39171e-05 0.0125533 0)
(-0.000438748 0.0111537 0)
(-0.000998727 0.00975928 0)
(-0.00169258 0.00851449 0)
(-0.00242364 0.00746529 0)
(-0.00313416 0.00652911 0)
(-0.00382096 0.00567223 0)
(-0.00448725 0.00488766 0)
(-0.00513231 0.00418286 0)
(-0.00575068 0.00357526 0)
(-0.00632694 0.00309186 0)
(-0.00682204 0.00276038 0)
(-0.007166 0.00257584 0)
(-0.00729202 0.0024538 0)
(-0.00720029 0.00224971 0)
(-0.00696503 0.00185565 0)
(-0.00668764 0.00123483 0)
(-0.00646564 0.000412617 0)
(-0.00637717 -0.000533417 0)
(0.000199651 0.0159782 0)
(0.000384977 0.0158402 0)
(0.00036394 0.0151112 0)
(0.0002327 0.0140656 0)
(-6.01883e-06 0.0128685 0)
(-0.000362013 0.0116025 0)
(-0.000842693 0.0103445 0)
(-0.0014207 0.00917691 0)
(-0.00203607 0.00813203 0)
(-0.00264775 0.00718175 0)
(-0.00324509 0.00630662 0)
(-0.00382493 0.00550156 0)
(-0.00438311 0.00477113 0)
(-0.00491145 0.00412621 0)
(-0.00539384 0.00358081 0)
(-0.00580026 0.00314389 0)
(-0.00608711 0.0028008 0)
(-0.00621788 0.00249417 0)
(-0.00619541 0.00213762 0)
(-0.00606717 0.00166283 0)
(-0.00590219 0.00104359 0)
(-0.00576973 0.000296884 0)
(-0.00572467 -0.000523326 0)
(0.00018981 0.0156913 0)
(0.000333869 0.0157696 0)
(0.000310226 0.0151777 0)
(0.000207984 0.0142384 0)
(4.74654e-06 0.0131463 0)
(-0.000298094 0.0119889 0)
(-0.000697208 0.0108297 0)
(-0.00117083 0.00972358 0)
(-0.0016811 0.00869626 0)
(-0.00219871 0.00774253 0)
(-0.00271024 0.0068549 0)
(-0.00320835 0.00603132 0)
(-0.00368608 0.0052748 0)
(-0.00413388 0.00459139 0)
(-0.00453692 0.00398711 0)
(-0.00487306 0.00346188 0)
(-0.00511529 0.00299988 0)
(-0.00524409 0.00256228 0)
(-0.00526371 0.00209637 0)
(-0.00520534 0.0015596 0)
(-0.00511533 0.000934963 0)
(-0.00504149 0.000234343 0)
(-0.00502159 -0.000505264 0)
(0.00013963 0.015451 0)
(0.000260932 0.0157285 0)
(0.000241834 0.0152235 0)
(0.000171472 0.0143758 0)
(1.00109e-05 0.0133753 0)
(-0.000234788 0.0123066 0)
(-0.000556289 0.0112243 0)
(-0.000937789 0.0101696 0)
(-0.0013544 0.00916521 0)
(-0.00178474 0.00821581 0)
(-0.00221535 0.00732133 0)
(-0.00263687 0.00648246 0)
(-0.00304074 0.00570161 0)
(-0.00341702 0.004982 0)
(-0.00375286 0.00432531 0)
(-0.00403208 0.00372793 0)
(-0.00423783 0.0031761 0)
(-0.00435974 0.00264369 0)
(-0.00440226 0.00209811 0)
(-0.00438626 0.0015132 0)
(-0.00434274 0.000878718 0)
(-0.00430406 0.00020338 0)
(-0.00429579 -0.00048749 0)
(6.91979e-05 0.0152778 0)
(0.000193119 0.0156882 0)
(0.000192287 0.0152491 0)
(0.000144422 0.0144779 0)
(2.30239e-05 0.0135543 0)
(-0.000165754 0.0125581 0)
(-0.000416463 0.0115378 0)
(-0.000717164 0.0105276 0)
(-0.00105105 0.00954806 0)
(-0.00140218 0.00860806 0)
(-0.00175827 0.00771159 0)
(-0.00210942 0.00686123 0)
(-0.00244649 0.0060594 0)
(-0.0027598 0.0053079 0)
(-0.00303841 0.00460658 0)
(-0.00327039 0.00395112 0)
(-0.00344488 0.00333081 0)
(-0.00355626 0.00272822 0)
(-0.00360845 0.00212318 0)
(-0.0036155 0.00149989 0)
(-0.00359806 0.000852675 0)
(-0.00357775 0.000188196 0)
(-0.00357161 -0.000476094 0)
(-5.62309e-06 0.0151762 0)
(0.000135874 0.0156234 0)
(0.000157463 0.0152573 0)
(0.000129211 0.0145489 0)
(4.65693e-05 0.0136863 0)
(-8.93031e-05 0.0127484 0)
(-0.000276053 0.0117793 0)
(-0.00050578 0.0108085 0)
(-0.000766985 0.00985426 0)
(-0.00104755 0.00892701 0)
(-0.00133662 0.00803256 0)
(-0.00162456 0.00717465 0)
(-0.00190228 0.00635591 0)
(-0.00216068 0.00557775 0)
(-0.00239044 0.0048396 0)
(-0.00258246 0.00413779 0)
(-0.00272933 0.00346466 0)
(-0.0028278 0.00280889 0)
(-0.00288085 0.00215816 0)
(-0.00289793 0.00150322 0)
(-0.00289269 0.000841381 0)
(-0.0028794 0.000177904 0)
(-0.00286923 -0.000475035 0)
(-5.02066e-05 0.0151321 0)
(9.00931e-05 0.0155429 0)
(0.000118684 0.0152468 0)
(0.000120438 0.0145876 0)
(7.91514e-05 0.0137726 0)
(-5.39871e-06 0.0128819 0)
(-0.000133859 0.0119567 0)
(-0.000301064 0.0110216 0)
(-0.000498883 0.010093 0)
(-0.000717703 0.009181 0)
(-0.000947933 0.00829196 0)
(-0.00118045 0.00743028 0)
(-0.00140653 0.00659887 0)
(-0.00161773 0.00579931 0)
(-0.00180595 0.00503143 0)
(-0.00196392 0.00429278 0)
(-0.00208622 0.00357838 0)
(-0.00217059 0.00288129 0)
(-0.00221907 0.00219429 0)
(-0.00223786 0.00151235 0)
(-0.00223589 0.000834678 0)
(-0.00222245 0.000165573 0)
(-0.00220474 -0.00048634 0)
(-2.82413e-05 0.0151166 0)
(4.98554e-05 0.0154795 0)
(7.59637e-05 0.0152153 0)
(0.000120083 0.0145883 0)
(0.000122673 0.0138115 0)
(8.79833e-05 0.0129619 0)
(1.26694e-05 0.0120764 0)
(-0.000100084 0.0111757 0)
(-0.000243567 0.0102734 0)
(-0.000409682 0.00937871 0)
(-0.000589702 0.00849806 0)
(-0.000775014 0.00763604 0)
(-0.000957306 0.00679595 0)
(-0.00112873 0.00597983 0)
(-0.00128209 0.00518829 0)
(-0.00141129 0.00442028 0)
(-0.00151194 0.00367313 0)
(-0.00158219 0.00294307 0)
(-0.00162317 0.00222633 0)
(-0.00163882 0.00152063 0)
(-0.00163486 0.000826421 0)
(-0.00161723 0.000147323 0)
(-0.00159049 -0.000510425 0)
(-2.45479e-05 0.0151149 0)
(1.51221e-05 0.015443 0)
(4.61667e-05 0.0151587 0)
(0.000138206 0.0145464 0)
(0.000184948 0.0138027 0)
(0.000196144 0.0129924 0)
(0.000167305 0.0121456 0)
(0.000100714 0.0112793 0)
(2.20597e-06 0.0104045 0)
(-0.000120592 0.00952919 0)
(-0.000259394 0.00865949 0)
(-0.000405997 0.00780012 0)
(-0.000552433 0.00695481 0)
(-0.000691342 0.00612624 0)
(-0.000816184 0.00531597 0)
(-0.000921574 0.00452437 0)
(-0.00100372 0.00375072 0)
(-0.00106082 0.00299359 0)
(-0.00109326 0.00225165 0)
(-0.00110342 0.0015245 0)
(-0.00109485 0.000813409 0)
(-0.00107129 0.000121536 0)
(-0.00103554 -0.000546479 0)
(-7.05698e-05 0.0151359 0)
(-9.99928e-06 0.0154077 0)
(5.53262e-05 0.0150683 0)
(0.00018841 0.0144619 0)
(0.000275637 0.0137501 0)
(0.000325837 0.0129797 0)
(0.000334813 0.0121727 0)
(0.000304736 0.0113419 0)
(0.000241378 0.010496 0)
(0.000152248 0.00964189 0)
(4.53784e-05 0.0087852 0)
(-7.11756e-05 0.00793087 0)
(-0.000189691 0.0070831 0)
(-0.00030321 0.00624532 0)
(-0.00040566 0.00542012 0)
(-0.000492132 0.00460921 0)
(-0.000559152 0.00381353 0)
(-0.000604882 0.0030335 0)
(-0.000629159 0.00226954 0)
(-0.000633256 0.00152259 0)
(-0.000619334 0.000794518 0)
(-0.000589681 8.81902e-05 0)
(-0.000545985 -0.000592829 0)
(-9.01963e-05 0.0151742 0)
(1.3351e-05 0.0153409 0)
(0.000124523 0.0149395 0)
(0.000282555 0.014341 0)
(0.000402042 0.0136621 0)
(0.00048202 0.012933 0)
(0.000518802 0.0121674 0)
(0.000514878 0.0113736 0)
(0.000476322 0.0105581 0)
(0.00041083 0.00972652 0)
(0.000326534 0.00888431 0)
(0.000231437 0.00803666 0)
(0.000133023 0.00718836 0)
(3.79564e-05 0.00634367 0)
(-4.80536e-05 0.00550624 0)
(-0.000120442 0.00467905 0)
(-0.000175946 0.00386445 0)
(-0.000212689 0.00306437 0)
(-0.000230128 0.00228058 0)
(-0.000228839 0.00151503 0)
(-0.000210086 0.00077004 0)
(-0.000175268 4.83306e-05 0)
(-0.000125404 -0.000647257 0)
(-5.35352e-05 0.0151835 0)
(9.97916e-05 0.0152294 0)
(0.000243677 0.0147787 0)
(0.000421252 0.0141925 0)
(0.000565119 0.0135482 0)
(0.000666084 0.0128623 0)
(0.000720694 0.0121401 0)
(0.000732396 0.011385 0)
(0.000708181 0.010601 0)
(0.000656369 0.00979279 0)
(0.000585423 0.00896583 0)
(0.000503377 0.0081257 0)
(0.000417536 0.00727792 0)
(0.000334293 0.00642768 0)
(0.000259029 0.00557972 0)
(0.000196006 0.00473818 0)
(0.000148299 0.00390668 0)
(0.000117783 0.0030884 0)
(0.000105211 0.00228623 0)
(0.000110418 0.00150292 0)
(0.000132656 0.000741181 0)
(0.000171032 3.6743e-06 0)
(0.000224879 -0.000707249 0)
(2.28544e-07 0.0151154 0)
(0.000211406 0.0150741 0)
(0.000393002 0.0145904 0)
(0.000595249 0.0140202 0)
(0.000761159 0.0134147 0)
(0.000876664 0.0127765 0)
(0.000939876 0.012101 0)
(0.000956886 0.0113866 0)
(0.000936736 0.0106349 0)
(0.000888959 0.00985024 0)
(0.000822559 0.00903843 0)
(0.000745659 0.00820576 0)
(0.000665377 0.00735868 0)
(0.000587798 0.00650338 0)
(0.000517956 0.00564565 0)
(0.000459807 0.00479079 0)
(0.000416221 0.00394354 0)
(0.000389 0.00310816 0)
(0.000378971 0.00228848 0)
(0.000386161 0.00148796 0)
(0.000410072 0.000709682 0)
(0.000450018 -4.37074e-05 0)
(0.00050547 -0.00077018 0)
(5.64091e-05 0.0149591 0)
(0.000327225 0.0148686 0)
(0.000560921 0.0143664 0)
(0.000797743 0.0138206 0)
(0.000987175 0.0132641 0)
(0.00111193 0.0126828 0)
(0.00117449 0.0120599 0)
(0.00118642 0.0113885 0)
(0.00116032 0.0106696 0)
(0.0011075 0.00990788 0)
(0.00103759 0.00911019 0)
(0.000958736 0.00828403 0)
(0.000877765 0.00743695 0)
(0.000800362 0.00657625 0)
(0.000731155 0.00570878 0)
(0.00067376 0.00484088 0)
(0.000630802 0.00397832 0)
(0.000603954 0.00312633 0)
(0.000594013 0.00228959 0)
(0.00060104 0.00147218 0)
(0.000624586 0.00067756 0)
(0.000663979 -9.15774e-05 0)
(0.000718644 -0.000833443 0)
(0.000109707 0.0147197 0)
(0.000447361 0.0145994 0)
(0.000746327 0.0140934 0)
(0.00102855 0.0135861 0)
(0.0012433 0.0130978 0)
(0.00137043 0.012589 0)
(0.00142142 0.0120269 0)
(0.00141731 0.0114013 0)
(0.00137566 0.0107145 0)
(0.00130965 0.00997391 0)
(0.00122933 0.00918824 0)
(0.00114258 0.00836671 0)
(0.00105572 0.00751818 0)
(0.000973886 0.00665109 0)
(0.000901227 0.00577328 0)
(0.000840968 0.00489206 0)
(0.000795463 0.00401412 0)
(0.000766218 0.00314558 0)
(0.00075394 0.00229187 0)
(0.000758631 0.0014577 0)
(0.000779752 0.000646915 0)
(0.000816484 -0.000137686 0)
(0.000868065 -0.000894532 0)
(0.000176991 0.0143954 0)
(0.000584387 0.0142536 0)
(0.000959573 0.0137579 0)
(0.00129459 0.0133081 0)
(0.00153189 0.0129197 0)
(0.00164946 0.0125067 0)
(0.00167485 0.0120143 0)
(0.00164327 0.0114352 0)
(0.00157751 0.0107782 0)
(0.00149183 0.0100552 0)
(0.0013959 0.00927833 0)