/*--------------------------------*- C++ -*----------------------------------*\
  =========                 |
  \\      /  F ield         | OpenFOAM: The Open Source CFD Toolbox
   \\    /   O peration     | Website:  https://openfoam.org
    \\  /    A nd           | Version:  9
     \\/     M anipulation  |
\*---------------------------------------------------------------------------*/
FoamFile
{
    format      ascii;
    class       volScalarField;
    location    "12.85";
    object      p;
}
// * * * * * * * * * * * * * * * * * * * * * * * * * * * * * * * * * * * * * //

dimensions      [0 2 -2 0 0 0 0];

internalField   nonuniform List<scalar> 
918
(
23.4455
23.6384
0.993486
22.8625
0.994871
23.1549
3.34905
13.8216
19.2186
2.96165
2.65327
14.3843
20.6978
16.9392
13.0588
0.927678
14.0557
2.29192
18.4359
1.40827
13.0529
20.4242
21.5129
19.2605
14.1025
14.4297
18.6602
1.1961
0.115522
0.282188
0.966497
0.410162
0.156918
21.6918
22.3684
22.3067
15.4719
10.4417
3.66993
3.87186
3.05919
2.87791
13.8611
13.9584
5.912
13.8044
13.8025
16.6205
19.0866
19.2302
19.5236
19.3125
19.6989
5.96035
2.82006
2.639
2.91115
2.98043
2.97485
2.72916
2.70947
2.51442
2.36852
13.866
14.4574
14.5122
14.2444
14.1924
22.5144
21.7575
22.0922
21.1986
21.344
20.2739
19.8883
17.3149
17.6673
16.5411
16.1602
12.8479
12.8072
13.2805
13.5283
0.148728
1.07404
1.22242
14.0601
14.0933
14.1029
14.1203
8.30943
2.24248
2.24647
17.8763
17.4527
20.4578
20.725
20.172
19.9865
1.54825
1.54814
1.17748
1.19979
0.968234
13.3873
13.5393
19.2119
18.3789
14.1327
14.0347
14.1081
11.4834
13.8922
13.9673
15.3844
15.8393
15.0274
15.4648
18.2301
17.8121
19.0967
19.534
0.410055
0.161621
0.692315
0.323438
0.520668
15.3402
15.1351
15.5864
15.6385
15.8697
10.4447
10.3704
10.4225
10.3424
4.21531
4.52683
2.31669
2.6407
2.48483
9.91225
13.972
14.0144
4.86959
5.56451
5.23452
6.38216
6.75284
15.9863
16.4228
16.1616
17.7077
16.9127
17.2608
19.7895
19.2787
19.5792
6.35674
6.60074
5.59416
5.23815
2.28452
2.52382
2.46628
3.01267
2.99062
3.20536
3.33829
2.69244
2.54988
2.92485
2.80753
2.85936
2.19757
2.06515
13.5903
13.3765
14.1286
14.3071
15.0719
14.9237
14.6304
14.799
19.0834
19.4869
19.5204
19.1362
11.5933
10.1774
13.7834
14.0578
0.305491
0.267511
0.135987
0.377847
0.397985
0.143529
2.01368
1.82433
1.40436
1.67866
14.0524
14.0093
8.55241
8.77597
8.1427
7.88295
16.2902
16.4405
17.0747
16.6745
1.98854
1.70041
1.83059
13.6957
13.5718
13.6775
10.9203
10.3583
11.959
12.2279
13.9827
14.0217
14.0197
15.7437
16.0621
19.8848
20.1555
19.9823
20.3681
21.4309
21.0822
20.6974
14.5167
14.9248
14.7634
16.1038
15.7374
15.9569
15.1645
15.4694
15.3271
10.4004
10.4454
10.1642
10.2415
10.2876
10.2355
9.84844
9.72095
14.0907
14.0531
14.0728
7.27261
7.76639
4.85809
4.53
12.5234
13.1958
12.8721
18.7132
18.0355
18.7685
18.3976
17.9476
18.2712
10.4551
10.4132
10.448
14.9802
14.3193
14.6704
2.43436
2.07375
2.23821
8.97416
9.06786
6.97302
7.59955
7.25988
16.3637
16.7041
17.3842
16.496
16.9636
17.4709
17.249
9.98624
10.1187
10.0354
9.70536
9.59745
9.72916
8.34292
8.95143
3.60284
4.25561
3.95413
9.23727
9.47176
9.3173
18.6065
19.1413
0.786074
1.19368
19.571
19.2947
0.14568
0.242478
14.3162
12.6052
7.28888
17.1731
16.6067
18.9459
3.20631
6.10146
2.82939
3.38061
2.69012
14.5902
14.2285
13.321
0.464646
1.25683
1.7183
2.9321
18.387
17.7118
18.8277
19.1479
19.2022
0.694642
0.932699
0.587825
1.26659
1.04852
1.28888
15.5283
15.6244
4.38431
18.8346
19.1389
19.1566
17.6331
18.5859
17.6434
0.934737
0.640322
0.713238
10.0733
12.108
14.2768
13.8289
14.0265
14.0488
13.7999
14.9325
14.6035
14.567
15.051
13.9904
13.8582
7.74451
6.41449
8.08258
7.72286
17.0745
16.6623
16.4701
16.2159
18.0611
17.5871
18.4375
17.8258
18.2876
18.5745
2.9684
3.15373
3.03315
2.54997
6.14261
6.61268
5.48571
5.62679
4.2532
2.46369
2.55313
2.7718
2.61185
2.93907
2.68703
2.9457
2.58047
2.32752
2.32461
2.9339
2.7473
2.61008
14.5682
14.5073
14.3081
14.3464
14.3325
14.4474
13.5151
13.9185
13.5458
12.383
12.9594
12.4866
0.824764
0.657383
0.530813
1.32976
1.3572
1.12423
0.851593
1.19367
1.20687
0.842517
1.54586
1.46876
3.18948
2.6909
8.87493
7.99474
6.89911
16.7772
17.5789
16.7486
17.989
18.4059
18.5114
18.1319
17.6237
15.705
15.7002
15.3604
15.3134
4.80554
3.78742
5.00474
4.58388
10.5163
14.0546
11.8278
10.7927
11.0845
13.3994
13.993
13.6414
13.7893
13.3552
12.8788
13.5791
13.1081
13.2097
12.9819
15.7804
16.2554
15.8619
15.2823
15.3024
10.629
12.0241
5.50801
5.67046
7.25095
6.55222
13.5625
13.9519
13.9335
13.5934
13.7874
13.7707
13.6302
13.7996
13.8922
13.784
11.8128
10.1335
9.04357
9.03876
14.0808
12.3441
12.9351
12.3951
16.0959
16.6127
16.2272
15.6232
16.1079
15.5799
15.6061
15.8184
17.1776
16.9271
16.697
17.0839
3.08367
3.03006
3.66311
3.16154
3.06199
2.84885
3.50354
4.76324
4.42427
6.72415
7.26505
4.58729
3.40814
3.80873
4.81313
5.54074
5.52489
3.97617
4.49703
4.92331
4.44074
5.21868
4.72323
2.73555
3.0374
2.8818
2.85705
3.38456
3.87483
3.37497
2.4931
2.61218
2.28594
2.14846
3.54248
3.02055
3.05582
3.68908
1.11328
1.33461
1.45141
2.42128
1.92012
1.98067
15.1578
14.8016
14.9353
14.2141
14.2831
14.2247
13.8475
15.2172
14.9397
15.0388
13.6884
13.7749
13.5889
13.8832
14.2958
14.5953
15.4283
15.1489
14.3882
14.5401
14.1919
14.1198
13.4448
12.8789
12.8193
1.11253
0.819578
0.987763
0.923654
0.613364
0.808191
2.18431
1.57697
1.97954
1.72709
1.9596
1.42741
1.30681
4.26817
5.06137
3.99386
3.40052
3.1181
8.93097
9.04519
8.18258
7.87417
8.21796
8.45461
8.40378
7.14194
7.57871
7.38742
9.96203
9.62546
17.563
17.5072
17.1785
17.0195
17.2459
5.78348
7.65768
6.8146
7.93194
10.2402
10.5449
9.31985
8.72129
9.48477
9.55099
14.0379
14.1165
13.5502
14.0359
14.0631
11.815
12.8656
13.4777
13.2863
13.8127
13.8968
12.965
13.5493
13.4524
12.7306
12.7897
12.1092
12.4443
11.9702
11.773
14.0306
13.9263
14.1959
13.7458
14.1249
13.6934
14.0056
14.0069
14.2876
13.3866
12.8111
12.8331
13.2558
12.9504
13.299
13.4594
9.30437
9.95678
10.4149
10.9557
10.6668
10.4413
10.3066
10.6119
10.5928
10.8598
10.7797
10.6249
11.5641
13.4758
13.7573
13.8695
13.6438
13.6876
13.3817
13.6624
13.5869
13.9254
14.0217
14.0677
13.1509
13.32
13.5248
13.404
11.6751
10.0724
9.93821
9.5016
7.57741
8.05305
11.0072
9.89984
8.92051
8.9866
12.1551
10.7902
11.6006
12.023
10.6761
10.2917
12.9609
13.7577
13.9738
13.6889
12.046
12.1747
12.6258
13.0768
13.2718
13.7375
15.8371
16.4122
16.4902
16.2145
16.0763
16.1757
15.9255
16.0289
16.503
16.6294
16.4606
2.90704
3.01775
2.95295
2.87699
3.10733
2.89098
3.9689
3.96065
3.17697
3.35536
3.37392
3.48225
2.95544
2.99625
4.82212
5.05379
5.3303
4.83646
6.17429
6.82329
7.40344
7.08839
5.78832
5.86578
6.18166
3.5167
3.5337
3.25651
3.70702
3.76667
2.63013
2.26041
2.06019
2.58792
2.68529
2.06951
1.78909
1.84228
2.34289
2.07917
1.82884
14.9519
14.7106
14.7318
14.5118
14.5664
14.9604
15.1811
14.9905
15.1285
15.1793
14.7793
14.6673
14.8387
1.82439
1.48214
1.63846
1.59589
1.63623
1.55474
1.73878
7.61161
6.41208
6.79294
5.98744
4.14584
4.65621
9.57835
10.0034
10.0424
9.75277
9.53948
9.90316
9.75937
9.7525
8.27545
9.35691
8.88425
9.29787
9.32194
9.39073
9.09526
9.07499
10.5847
10.6129
9.47888
10.1279
9.33218
7.94113
8.10394
9.11091
10.0776
10.4395
10.2795
9.99397
9.76839
10.1514
10.2011
10.2691
10.2594
8.75665
8.70372
8.29259
13.9612
13.8718
14.0201
14.0223
14.1543
13.9583
13.7955
14.0751
14.1305
13.9125
11.1093
11.1728
11.4195
12.1802
12.2344
12.1064
11.3534
13.139
12.7827
13.4411
13.3811
13.4387
13.0199
12.8464
13.1286
10.0686
11.4399
10.9699
11.2361
10.0523
9.30317
13.2245
13.2729
13.3514
13.6286
13.5735
14.1644
15.8067
15.6764
15.7242
15.7673
15.3789
15.4158
4.18007
3.83941
4.55085
4.51221
4.0751
3.77935
2.29257
1.98084
1.79864
1.6717
1.89329
1.95432
8.16214
8.19446
6.33231
7.35899
5.89767
4.96081
4.81621
5.96332
7.14147
7.20753
8.52562
9.21861
8.77467
8.60184
7.93365
8.2675
10.1597
10.2512
10.1526
10.4726
10.0059
11.751
11.3323
11.6842
13.3109
13.0103
12.4063
12.2943
12.2668
12.8678
11.9436
11.1638
11.8819
12.5562
12.512
11.1511
10.9044
11.3316
11.3057
10.2148
10.7451
10.5054
10.8543
10.5578
)
;

boundaryField
{
    wall-4
    {
        type            zeroGradient;
    }
    velocity-inlet-5
    {
        type            zeroGradient;
    }
    velocity-inlet-6
    {
        type            zeroGradient;
    }
    pressure-outlet-7
    {
        type            fixedValue;
        value           uniform 0;
    }
    wall-8
    {
        type            zeroGradient;
    }
    frontAndBackPlanes
    {
        type            empty;
    }
}


// ************************************************************************* //
