/*--------------------------------*- C++ -*----------------------------------*\
  =========                 |
  \\      /  F ield         | OpenFOAM: The Open Source CFD Toolbox
   \\    /   O peration     | Website:  https://openfoam.org
    \\  /    A nd           | Version:  9
     \\/     M anipulation  |
\*---------------------------------------------------------------------------*/
FoamFile
{
    format      ascii;
    class       volScalarField;
    location    "230";
    object      nut;
}
// * * * * * * * * * * * * * * * * * * * * * * * * * * * * * * * * * * * * * //

dimensions      [0 2 -1 0 0 0 0];

internalField   nonuniform List<scalar> 
12225
(
4.14925e-05
3.93405e-05
3.74833e-05
3.54324e-05
3.37846e-05
3.242e-05
3.15106e-05
3.09111e-05
3.0918e-05
3.1092e-05
3.15753e-05
3.2089e-05
3.3154e-05
3.38323e-05
3.50625e-05
3.58154e-05
3.68978e-05
3.86196e-05
0.00033221
0.00021518
0.000179268
0.00015768
0.000146207
0.000138212
0.000132746
0.000131646
0.000129515
0.000130057
0.000129055
0.000129429
0.000128668
0.00012855
0.000128085
0.000127406
0.000127472
0.000125979
0.000668671
0.000450667
0.00035575
0.000309839
0.000275277
0.000251105
0.000231705
0.000217282
0.000202678
0.000192123
0.000182622
0.000175208
0.000169375
0.000163689
0.00016029
0.000155581
0.000153828
0.000149781
0.000801682
0.000691667
0.000572545
0.000500064
0.000449374
0.000411992
0.000380773
0.00035601
0.000334003
0.000314786
0.000298375
0.000281632
0.000270342
0.000256076
0.00024822
0.000236138
0.00023057
0.000220388
0.000839623
0.00081019
0.0007407
0.000676419
0.000623926
0.000581389
0.000545866
0.000514562
0.000489516
0.000464434
0.00044587
0.000424068
0.000409944
0.000390813
0.000379914
0.000363039
0.000354831
0.00033939
0.000850344
0.000843277
0.000819552
0.000786528
0.00075077
0.000715886
0.000685755
0.000656133
0.000632548
0.000607521
0.000589001
0.000567252
0.000552289
0.000533106
0.000520811
0.000503674
0.000493718
0.00047735
0.000851579
0.000851018
0.0008433
0.000833477
0.000817111
0.000796951
0.00077787
0.000756737
0.0007389
0.000719149
0.000703536
0.000685625
0.000672128
0.00065593
0.000644332
0.00062948
0.000619891
0.000605025
0.000851581
0.000851815
0.000850038
0.000847462
0.000841401
0.00083375
0.000824824
0.000813434
0.000802811
0.000790473
0.000779717
0.000767543
0.000757431
0.000745787
0.000736563
0.000725476
0.000717511
0.000705904
0.000851673
0.00085153
0.000851015
0.000850343
0.000848875
0.00084617
0.000843027
0.000838305
0.000833403
0.000827362
0.000821219
0.000814771
0.000808435
0.000801508
0.000795302
0.000788331
0.000782536
0.000774964
0.000851754
0.000851386
0.000851043
0.000850633
0.000850247
0.000849368
0.000848404
0.000846781
0.000844956
0.00084253
0.000839924
0.0008368
0.000833797
0.000830153
0.000826978
0.000822922
0.000819931
0.000815296
0.000851784
0.000851358
0.000851012
0.000850613
0.000850329
0.000849905
0.000849525
0.000848929
0.000848303
0.000847393
0.000846466
0.000845177
0.000843991
0.000842352
0.000840998
0.000839034
0.000837643
0.000835365
0.000851788
0.000851359
0.000850995
0.000850605
0.000850292
0.000849938
0.000849646
0.00084928
0.000848955
0.000848504
0.000848098
0.000847508
0.000846998
0.000846244
0.000845642
0.000844721
0.000844059
0.000842977
0.000851786
0.000851363
0.000850985
0.000850604
0.000850269
0.000849926
0.00084963
0.000849313
0.000849042
0.000848729
0.000848462
0.000848126
0.000847844
0.000847466
0.000847156
0.000846726
0.000846387
0.000845902
0.000851783
0.000851364
0.000850978
0.000850602
0.000850256
0.000849916
0.000849607
0.0008493
0.000849022
0.00084874
0.000848488
0.000848224
0.000847988
0.000847735
0.000847508
0.000847258
0.000847033
0.000846783
0.000851781
0.000851364
0.000850973
0.000850598
0.000850246
0.000849908
0.000849591
0.000849286
0.000849
0.000848723
0.000848463
0.000848211
0.000847975
0.000847744
0.000847527
0.000847316
0.000847114
0.000846919
0.00085178
0.000851363
0.000850969
0.000850594
0.000850239
0.000849901
0.00084958
0.000849275
0.000848984
0.000848707
0.000848443
0.000848191
0.000847951
0.000847721
0.000847502
0.000847292
0.000847092
0.000846901
0.000851779
0.000851362
0.000850967
0.000850591
0.000850234
0.000849895
0.000849572
0.000849265
0.000848973
0.000848694
0.000848428
0.000848174
0.000847932
0.000847701
0.00084748
0.000847269
0.000847067
0.000846873
0.000851779
0.000851362
0.000850965
0.000850588
0.000850231
0.00084989
0.000849567
0.000849259
0.000848965
0.000848685
0.000848418
0.000848163
0.000847919
0.000847687
0.000847464
0.000847251
0.000847048
0.000846853
0.000851779
0.000851362
0.000850965
0.000850588
0.00085023
0.000849889
0.000849565
0.000849256
0.000848962
0.000848681
0.000848413
0.000848158
0.000847913
0.00084768
0.000847456
0.000847243
0.000847038
0.000846843
0.000851779
0.000851362
0.000850966
0.000850589
0.000850231
0.000849891
0.000849567
0.000849259
0.000848965
0.000848685
0.000848417
0.000848161
0.000847917
0.000847683
0.000847459
0.000847245
0.00084704
0.000846844
0.000851779
0.000851363
0.000850967
0.000850592
0.000850235
0.000849897
0.000849573
0.000849267
0.000848972
0.000848693
0.000848424
0.000848168
0.000847919
0.000847683
0.00084745
0.00084723
0.000847012
0.000846805
0.000851778
0.000851366
0.000850968
0.000850599
0.00085024
0.000849907
0.00084958
0.000849274
0.000848964
0.000848671
0.000848364
0.000848071
0.000847756
0.000847455
0.000847122
0.00084681
0.000846456
0.000846135
0.000851773
0.000851376
0.000850971
0.000850615
0.000850241
0.000849889
0.000849478
0.000849054
0.000848529
0.000847978
0.0008473
0.000846604
0.000845766
0.000844938
0.000843954
0.000843028
0.000841917
0.000840938
0.000851767
0.000851415
0.000850964
0.000850548
0.000849861
0.000848966
0.00084761
0.000845976
0.000843904
0.000841636
0.000838954
0.000836213
0.000833115
0.000830112
0.000826761
0.000823678
0.000820182
0.000817175
0.000851859
0.00085138
0.000850195
0.000848243
0.00084447
0.000839354
0.000832765
0.000825658
0.000817961
0.00081001
0.000801616
0.000793626
0.000785329
0.000777704
0.00076974
0.000762697
0.000755119
0.00074879
0.000852108
0.000847667
0.000839902
0.000827146
0.000808707
0.000789645
0.000769974
0.000751412
0.000733303
0.000716893
0.000700931
0.000686777
0.000672826
0.000660667
0.000648374
0.000637936
0.000626948
0.000618015
0.000843241
0.000822507
0.000775184
0.000726458
0.000684895
0.00064985
0.00061846
0.000592018
0.000568379
0.000548309
0.000529685
0.000513987
0.000498748
0.000486012
0.000473197
0.000462703
0.000451617
0.0004428
0.000795685
0.000668241
0.000570625
0.000509904
0.000465604
0.000431182
0.000404145
0.000382479
0.000364198
0.000349067
0.000335939
0.000325059
0.000314504
0.000306233
0.000297957
0.000291364
0.000284278
0.000278928
0.000501314
0.000348357
0.000292673
0.00025918
0.000236322
0.000221177
0.00021162
0.000203854
0.000198563
0.000195075
0.000192221
0.000190367
0.000188582
0.000187438
0.000186165
0.000185471
0.000184555
0.000184142
7.27385e-05
7.02256e-05
6.79542e-05
6.56138e-05
6.33828e-05
6.12762e-05
5.94944e-05
5.79552e-05
5.67109e-05
5.57032e-05
5.49776e-05
5.44181e-05
5.41096e-05
5.38813e-05
5.38975e-05
5.39328e-05
5.40915e-05
5.43241e-05
2.87546e-07
7.03711e-06
1.28193e-05
1.81143e-05
2.36158e-05
2.968e-05
3.64766e-05
4.40915e-05
5.24798e-05
6.14881e-05
7.09382e-05
8.06492e-05
9.04771e-05
0.000100291
0.000109988
0.000119461
0.000128612
0.000137325
0.000145484
0.000152948
0.000159573
0.00016519
0.000169646
0.000172794
0.000174573
0.000175029
0.00017402
0.000172183
0.000169839
0.000170215
0.000176429
0.0001827
0.0001891
0.000188337
3.9572e-05
3.76427e-05
4.11133e-05
4.38442e-05
4.54931e-05
4.73223e-05
4.91128e-05
4.97772e-05
5.10299e-05
5.20736e-05
5.32146e-05
5.43183e-05
5.54383e-05
5.65476e-05
5.76587e-05
5.87646e-05
5.98688e-05
6.09694e-05
6.20674e-05
6.31623e-05
6.42543e-05
6.53431e-05
6.6429e-05
6.75115e-05
6.85907e-05
6.96662e-05
7.0738e-05
7.18057e-05
7.28691e-05
7.39277e-05
7.49813e-05
7.60294e-05
7.70717e-05
7.81077e-05
7.9137e-05
8.01591e-05
8.11734e-05
8.21796e-05
8.3177e-05
8.41652e-05
8.51434e-05
8.61114e-05
8.70683e-05
8.80138e-05
8.89471e-05
8.98678e-05
9.07753e-05
9.16689e-05
9.25481e-05
9.34124e-05
9.42609e-05
9.50933e-05
9.59088e-05
9.67069e-05
9.74865e-05
9.82471e-05
9.89874e-05
9.97066e-05
0.000100404
0.000101077
0.000101726
0.000102351
0.000102953
0.000103537
0.000104098
0.000104637
0.000105154
0.000105648
0.000106121
0.00010657
0.000106997
0.000107401
0.000107781
0.000108138
0.000108472
0.000108782
0.000109068
0.00010933
0.000109568
0.000109782
0.000109973
0.000110139
0.000110282
0.0001104
0.000110495
0.000110566
0.000110613
0.000110636
0.000110634
0.000110609
0.000110558
0.000110483
0.000110381
0.00011024
0.000110193
0.000109955
0.000109778
0.00010957
0.000109327
0.000109061
0.00010878
0.000108476
0.000108149
0.000107802
0.000107432
0.000107041
0.000106629
0.000106198
0.000105744
0.000105269
0.000104771
0.000104251
0.000103709
0.000103145
0.000102558
0.000101949
0.000101317
0.000100663
9.99857e-05
9.9286e-05
9.8564e-05
9.782e-05
9.70543e-05
9.62668e-05
9.54557e-05
9.45731e-05
9.38123e-05
9.3305e-05
9.28088e-05
9.22995e-05
9.17751e-05
9.1236e-05
9.06834e-05
9.01182e-05
8.95419e-05
8.89554e-05
8.83598e-05
8.7756e-05
8.71435e-05
8.65218e-05
8.58829e-05
8.52283e-05
8.45484e-05
8.38063e-05
8.30094e-05
8.07361e-05
1.37992e-06
3.1256e-05
6.79812e-05
9.31158e-05
0.000109346
0.00012113
0.000131232
0.000141105
0.000151358
0.000162126
0.00017332
0.000184769
0.00019629
0.000207721
0.000218919
0.000229748
0.000240072
0.000249735
0.00025856
0.00026634
0.000272845
0.00027784
0.000281116
0.000282544
0.000282006
0.000278356
0.000272057
0.000263424
0.000252987
0.000241706
0.000245036
0.000247879
0.000229814
0.000222501
0.000199652
0.00019921
0.000212061
0.000229103
0.000245952
0.000268539
0.000275076
0.000281359
0.000288099
0.000295518
0.000303138
0.000311024
0.000319019
0.000327142
0.000335353
0.000343653
0.000352034
0.000360494
0.000369032
0.000377649
0.000386346
0.000395122
0.000403981
0.000412922
0.000421948
0.000431058
0.000440253
0.000449534
0.000458901
0.000468352
0.000477887
0.000487504
0.000497201
0.000506976
0.000516827
0.000526749
0.00053674
0.000546795
0.000556911
0.00056708
0.000577301
0.000587565
0.000597867
0.000608202
0.000618563
0.000628943
0.000639336
0.000649735
0.000660133
0.000670524
0.000680902
0.00069126
0.000701593
0.000711894
0.000722159
0.00073238
0.000742551
0.000752661
0.000762695
0.000772624
0.000782403
0.000791944
0.000801096
0.000809587
0.000817794
0.000825883
0.000833827
0.000841631
0.000849288
0.000856794
0.000864145
0.000871335
0.000878361
0.000885219
0.000891906
0.000898418
0.000904755
0.000910912
0.000916889
0.000922682
0.00092829
0.000933711
0.000938945
0.000943987
0.00094884
0.0009535
0.000957969
0.000962246
0.000966328
0.000970216
0.000973911
0.00097742
0.000980754
0.00098392
0.000986728
0.000989198
0.000991845
0.000994181
0.000996129
0.000997749
0.000999252
0.00100057
0.00100168
0.00100256
0.00100321
0.00100363
0.00100381
0.00100375
0.00100346
0.00100292
0.00100214
0.00100112
0.000999838
0.000998301
0.000996503
0.000994441
0.00099211
0.000989507
0.000986631
0.000983479
0.00098005
0.000976344
0.000972359
0.000968073
0.000963394
0.000957821
0.000949837
0.000940733
0.000931135
0.000921253
0.00091117
0.000900931
0.000890565
0.000880099
0.000869553
0.00085895
0.000848311
0.000837642
0.000826948
0.000816189
0.000805331
0.000794489
0.000783412
0.000772033
0.000758977
0.000722411
2.85957e-06
5.06775e-05
0.000107102
0.000149814
0.000180706
0.000203212
0.000220519
0.000234969
0.000248075
0.000260679
0.000273167
0.00028565
0.000298099
0.000310423
0.000322512
0.000334245
0.000345491
0.000356102
0.000365906
0.000374704
0.000382282
0.000388429
0.000392969
0.000395789
0.000396965
0.000397763
0.000398473
0.000399933
0.000403143
0.000409108
0.000417371
0.000423982
0.00042702
0.000432022
0.00043698
0.000448711
0.000469075
0.000490665
0.000512684
0.000532601
0.000548232
0.000563658
0.000579167
0.000594982
0.000611006
0.000627245
0.000643654
0.000660227
0.000676947
0.000693813
0.000710821
0.000727971
0.000745264
0.000762702
0.000780287
0.000798019
0.000815902
0.000833936
0.00085212
0.000870457
0.000888945
0.000907582
0.000926367
0.000945297
0.000964369
0.000983578
0.00100292
0.00102239
0.00104198
0.00106168
0.00108148
0.00110138
0.00112137
0.00114143
0.00116156
0.00118175
0.00120198
0.00122224
0.00124252
0.0012628
0.00128308
0.00130334
0.00132356
0.00134373
0.00136385
0.00138389
0.00140384
0.00142368
0.00144341
0.00146299
0.00148242
0.00150165
0.00152067
0.00153941
0.00155783
0.00157583
0.00159335
0.00161037
0.00162707
0.0016435
0.00165964
0.00167547
0.00169099
0.00170619
0.00172106
0.00173558
0.00174975
0.00176357
0.00177702
0.00179009
0.00180279
0.0018151
0.00182703
0.00183856
0.0018497
0.00186044
0.00187077
0.0018807
0.00189023
0.00189935
0.00190805
0.00191635
0.00192423
0.0019317
0.00193875
0.00194539
0.0019516
0.00195738
0.00196262
0.00196741
0.0019721
0.00197625
0.00197966
0.00198247
0.00198492
0.00198698
0.0019886
0.00198976
0.00199044
0.00199065
0.00199037
0.0019896
0.00198834
0.00198659
0.00198432
0.00198154
0.00197824
0.0019744
0.00197003
0.0019651
0.00195963
0.00195359
0.001947
0.00193984
0.00193212
0.00192384
0.00191499
0.00190555
0.00189538
0.00188404
0.00187041
0.00185521
0.00183907
0.00182233
0.00180513
0.00178757
0.00176971
0.00175159
0.00173326
0.00171476
0.00169615
0.00167742
0.00165859
0.00163966
0.00162061
0.00160142
0.00158178
0.00156121
0.00153682
0.00148536
4.4767e-06
6.53638e-05
0.000136749
0.000192481
0.000233791
0.000264555
0.000288218
0.000307408
0.000323972
0.000339101
0.000353488
0.000367487
0.00038124
0.000394777
0.00040807
0.000421065
0.000433692
0.000445868
0.000457495
0.000468468
0.000478686
0.000488085
0.000496684
0.000504645
0.00051234
0.000520404
0.000529434
0.000540058
0.000552692
0.000567893
0.000584685
0.000601384
0.000617666
0.000634131
0.000651298
0.000671392
0.000694017
0.000717414
0.000740946
0.000763792
0.000786209
0.000808622
0.000831137
0.00085383
0.000876708
0.000899778
0.000923036
0.000946481
0.000970111
0.000993926
0.00101793
0.00104211
0.00106649
0.00109106
0.00111583
0.00114079
0.00116596
0.00119133
0.00121689
0.00124266
0.00126862
0.00129478
0.00132112
0.00134765
0.00137436
0.00140124
0.00142829
0.00145549
0.00148283
0.00151031
0.00153792
0.00156563
0.00159344
0.00162133
0.00164929
0.0016773
0.00170535
0.00173341
0.00176148
0.00178953
0.00181755
0.00184551
0.0018734
0.00190121
0.0019289
0.00195645
0.00198386
0.00201109
0.00203812
0.00206492
0.00209147
0.00211773
0.00214366
0.00216922
0.00219436
0.00221902
0.00224318
0.00226688
0.00229018
0.00231308
0.00233558
0.00235765
0.00237928
0.00240045
0.00242115
0.00244138
0.00246111
0.00248033
0.00249904
0.00251722
0.00253488
0.00255199
0.00256855
0.00258457
0.00260002
0.00261492
0.00262925
0.00264301
0.00265619
0.00266881
0.00268084
0.0026923
0.00270318
0.00271347
0.00272317
0.00273228
0.00274078
0.00274868
0.00275593
0.00276275
0.00276919
0.0027748
0.00277934
0.00278332
0.0027867
0.00278953
0.00279175
0.00279333
0.00279427
0.00279455
0.00279417
0.00279312
0.0027914
0.00278898
0.00278586
0.00278203
0.00277747
0.00277218
0.00276613
0.00275933
0.00275176
0.00274342
0.00273429
0.00272438
0.00271369
0.00270222
0.00268996
0.00267688
0.00266287
0.00264758
0.00263042
0.00261168
0.0025918
0.00257108
0.0025497
0.00252776
0.00250536
0.00248256
0.00245942
0.00243601
0.00241244
0.0023887
0.00236478
0.00234071
0.00231647
0.00229202
0.00226705
0.00224085
0.00220996
0.00215499
6.0642e-06
7.76552e-05
0.000161445
0.000227916
0.000278336
0.000316397
0.000345797
0.000369407
0.000389329
0.000407015
0.000423403
0.000439058
0.000454296
0.000469278
0.000484081
0.000498737
0.000513256
0.000527636
0.000541866
0.000555934
0.000569834
0.000583588
0.000597278
0.000611074
0.000625271
0.000640283
0.000656587
0.000674665
0.000694881
0.000716705
0.000739431
0.000762422
0.000785271
0.000808015
0.000831728
0.000856672
0.000882754
0.000909597
0.000936896
0.000964491
0.000991934
0.0010195
0.00104723
0.00107516
0.00110329
0.00113163
0.00116018
0.00118894
0.00121792
0.00124711
0.00127652
0.00130614
0.00133598
0.00136605
0.00139634
0.00142687
0.00145764
0.00148863
0.00151985
0.0015513
0.00158297
0.00161486
0.00164696
0.00167926
0.00171176
0.00174444
0.0017773
0.00181032
0.00184349
0.00187679
0.00191022
0.00194375
0.00197737
0.00201107
0.00204481
0.00207859
0.00211239
0.00214618
0.00217995
0.00221367
0.00224732
0.00228088
0.00231433
0.00234765
0.0023808
0.00241377
0.00244653
0.00247905
0.00251131
0.00254328
0.00257493
0.00260623
0.00263714
0.00266762
0.00269766
0.00272724
0.00275634
0.00278496
0.00281311
0.00284078
0.00286796
0.00289463
0.00292077
0.00294636
0.00297139
0.00299584
0.0030197
0.00304296
0.00306559
0.0030876
0.00310897
0.0031297
0.00314976
0.00316917
0.00318791
0.00320597
0.00322336
0.00324006
0.00325608
0.00327142
0.00328606
0.00330001
0.00331326
0.00332582
0.00333767
0.00334881
0.00335924
0.00336895
0.00337802
0.00338668
0.00339457
0.00340137
0.0034072
0.00341236
0.00341685
0.00342064
0.00342369
0.003426
0.00342756
0.00342834
0.00342835
0.00342757
0.00342599
0.0034236
0.00342038
0.00341631
0.00341138
0.00340557
0.00339888
0.00339127
0.00338275
0.00337329
0.0033629
0.00335156
0.00333928
0.00332606
0.00331188
0.00329673
0.00328051
0.00326301
0.00324393
0.00322338
0.00320161
0.00317885
0.00315527
0.00313098
0.00310608
0.00308063
0.00305473
0.00302843
0.00300188
0.00297499
0.00294787
0.00292054
0.00289302
0.00286527
0.00283703
0.00280751
0.00277333
0.00271938
7.56003e-06
8.79373e-05
0.000182115
0.000257847
0.000316404
0.000361168
0.000395983
0.000423898
0.00044721
0.000467575
0.000486137
0.000503649
0.000520588
0.000537246
0.000553804
0.000570378
0.000587051
0.000603885
0.000620933
0.00063824
0.000655851
0.000673819
0.00069222
0.000711165
0.000730813
0.000751371
0.000773068
0.000796111
0.000820597
0.000846345
0.000873018
0.000900263
0.000927834
0.000955719
0.000984126
0.00101319
0.00104293
0.00107326
0.00110404
0.00113517
0.0011665
0.00119806
0.00122985
0.00126184
0.00129406
0.0013265
0.00135916
0.00139205
0.00142516
0.00145851
0.0014921
0.00152593
0.00156001
0.00159432
0.00162888
0.00166367
0.00169869
0.00173395
0.00176943
0.00180513
0.00184105
0.00187719
0.00191353
0.00195006
0.00198678
0.00202368
0.00206074
0.00209795
0.00213529
0.00217276
0.00221034
0.00224801
0.00228574
0.00232354
0.00236137
0.00239922
0.00243706
0.00247488
0.00251265
0.00255035
0.00258796
0.00262546
0.00266282
0.00270002
0.00273703
0.00277383
0.00281039
0.00284668
0.00288268
0.00291836
0.00295369
0.00298864
0.00302318
0.00305729
0.00309094
0.00312411
0.00315679
0.00318896
0.00322062
0.00325175
0.00328233
0.00331235
0.00334178
0.0033706
0.00339881
0.00342637
0.00345327
0.00347951
0.00350506
0.00352991
0.00355405
0.00357747
0.00360017
0.00362213
0.00364334
0.00366381
0.00368353
0.00370248
0.00372068
0.00373811
0.00375478
0.00377068
0.0037858
0.00380016
0.00381373
0.00382653
0.00383855
0.0038498
0.00386052
0.0038705
0.00387967
0.0038876
0.00389471
0.00390103
0.0039066
0.0039114
0.00391539
0.00391858
0.00392095
0.00392249
0.00392319
0.00392303
0.00392201
0.0039201
0.00391728
0.00391354
0.00390887
0.00390323
0.00389661
0.00388899
0.00388035
0.00387068
0.00385998
0.00384822
0.00383541
0.00382154
0.00380661
0.00379059
0.00377343
0.00375501
0.00373516
0.00371394
0.00369147
0.00366793
0.00364345
0.00361813
0.00359207
0.00356536
0.00353807
0.00351028
0.00348209
0.00345353
0.00342467
0.00339556
0.00336625
0.00333672
0.00330678
0.00327568
0.00324044
0.00319014
8.91988e-06
9.64175e-05
0.000199253
0.000283035
0.00034892
0.000399927
0.000439953
0.000472151
0.000498954
0.000522177
0.000543128
0.000562718
0.000581566
0.000600084
0.000618549
0.000637149
0.000656023
0.000675276
0.000694996
0.000715254
0.00073611
0.000757619
0.000779835
0.000802815
0.000826627
0.000851348
0.00087706
0.000903823
0.000931654
0.000960476
0.000990139
0.00102047
0.00105133
0.00108265
0.00111445
0.00114674
0.00117954
0.0012128
0.00124647
0.00128049
0.0013148
0.00134936
0.00138417
0.00141921
0.00145447
0.00148996
0.00152567
0.00156161
0.00159778
0.00163417
0.0016708
0.00170767
0.00174477
0.00178211
0.00181967
0.00185746
0.00189548
0.00193372
0.00197217
0.00201085
0.00204973
0.00208881
0.00212808
0.00216754
0.00220718
0.00224698
0.00228693
0.00232702
0.00236723
0.00240756
0.00244799
0.00248849
0.00252906
0.00256967
0.0026103
0.00265095
0.00269158
0.00273217
0.00277271
0.00281317
0.00285354
0.00289377
0.00293386
0.00297378
0.0030135
0.003053
0.00309225
0.00313122
0.00316989
0.00320823
0.00324621
0.00328381
0.00332099
0.00335774
0.00339403
0.00342983
0.00346514
0.00349992
0.00353417
0.00356786
0.00360097
0.00363349
0.00366538
0.00369664
0.00372723
0.00375715
0.00378637
0.00381487
0.00384265
0.00386968
0.00389596
0.00392147
0.0039462
0.00397014
0.00399329
0.00401564
0.00403718
0.00405791
0.00407783
0.00409693
0.00411521
0.00413267
0.00414932
0.00416514
0.00418014
0.00419431
0.00420766
0.00422034
0.00423234
0.0042435
0.00425367
0.00426275
0.00427102
0.00427846
0.00428509
0.00429091
0.00429589
0.00430004
0.00430334
0.00430579
0.00430736
0.00430806
0.00430785
0.00430674
0.00430468
0.00430167
0.00429768
0.00429269
0.00428667
0.00427961
0.00427147
0.00426225
0.00425193
0.00424049
0.00422793
0.00421424
0.00419941
0.00418343
0.00416626
0.00414784
0.00412807
0.00410699
0.00408466
0.00406119
0.0040367
0.00401127
0.003985
0.00395797
0.00393026
0.00390195
0.00387313
0.00384388
0.00381426
0.00378436
0.00375425
0.00372394
0.00369332
0.00366173
0.00362673
0.0035812
1.01122e-05
0.000103247
0.00021318
0.00030394
0.000376362
0.000433206
0.000478251
0.000514707
0.000545093
0.000571334
0.000594862
0.000616716
0.000637633
0.000658128
0.000678558
0.000699174
0.000720158
0.000741647
0.000763748
0.000786537
0.000810073
0.000834399
0.00085955
0.00088555
0.000912417
0.000940166
0.000968806
0.000998334
0.00102873
0.00105995
0.0010919
0.00112453
0.00115775
0.00119146
0.00122562
0.00126024
0.00129528
0.00133072
0.00136653
0.00140268
0.00143912
0.00147583
0.00151277
0.00154995
0.00158734
0.00162495
0.00166277
0.0017008
0.00173905
0.00177751
0.00181619
0.00185508
0.0018942
0.00193352
0.00197306
0.00201281
0.00205277
0.00209294
0.00213331
0.00217388
0.00221464
0.00225559
0.00229672
0.00233802
0.00237949
0.00242111
0.00246287
0.00250477
0.00254679
0.00258891
0.00263113
0.00267342
0.00271578
0.00275819
0.00280062
0.00284306
0.00288549
0.00292789
0.00297025
0.00301253
0.00305473
0.00309681
0.00313875
0.00318052
0.00322211
0.00326349
0.00330463
0.00334551
0.00338609
0.00342636
0.00346628
0.00350583
0.00354497
0.0035837
0.00362197
0.00365977
0.00369707
0.00373385
0.00377009
0.00380576
0.00384084
0.00387531
0.00390914
0.00394232
0.00397481
0.00400661
0.00403768
0.00406801
0.00409758
0.00412638
0.00415439
0.00418159
0.00420799
0.00423356
0.00425829
0.00428219
0.00430524
0.00432743
0.00434878
0.00436927
0.0043889
0.00440768
0.0044256
0.00444266
0.00445887
0.00447421
0.00448877
0.00450268
0.00451571
0.00452791
0.00453905
0.00454925
0.00455858
0.00456707
0.00457473
0.00458155
0.00458754
0.00459269
0.00459699
0.00460044
0.00460301
0.00460471
0.00460552
0.00460541
0.00460437
0.00460237
0.00459938
0.00459539
0.00459036
0.00458427
0.0045771
0.00456882
0.0045594
0.00454884
0.00453712
0.00452422
0.00451015
0.00449488
0.0044784
0.00446066
0.00444162
0.00442129
0.00439971
0.00437695
0.0043531
0.00432823
0.00430243
0.00427577
0.00424833
0.00422021
0.00419148
0.00416223
0.00413257
0.00410257
0.00407235
0.00404195
0.00401132
0.00397994
0.00394583
0.00390445
1.1118e-05
0.000108563
0.000224174
0.000321054
0.000399139
0.00046135
0.000511173
0.000551804
0.000585799
0.000615149
0.000641375
0.000665609
0.000688681
0.000711191
0.000733563
0.000756097
0.000779005
0.000802447
0.000826594
0.00085149
0.000877175
0.000903683
0.000931031
0.000959229
0.000988272
0.00101815
0.00104883
0.00108031
0.00111253
0.00114546
0.00117903
0.00121327
0.00124808
0.00128333
0.00131901
0.0013551
0.00139157
0.00142841
0.00146558
0.00150307
0.00154087
0.00157893
0.00161721
0.00165569
0.00169436
0.00173322
0.00177227
0.00181151
0.00185093
0.00189055
0.00193036
0.00197036
0.00201055
0.00205093
0.00209151
0.00213227
0.00217323
0.00221438
0.00225571
0.00229723
0.00233893
0.00238081
0.00242286
0.00246508
0.00250746
0.00254999
0.00259268
0.00263549
0.00267844
0.00272151
0.00276467
0.00280794
0.00285128
0.00289468
0.00293814
0.00298162
0.00302513
0.00306863
0.00311211
0.00315554
0.00319891
0.0032422
0.00328538
0.00332843
0.00337132
0.00341403
0.00345653
0.0034988
0.00354081
0.00358253
0.00362393
0.00366499
0.00370567
0.00374595
0.00378581
0.00382521
0.00386412
0.00390253
0.0039404
0.00397771
0.00401443
0.00405054
0.004086
0.0041208
0.00415491
0.00418831
0.00422097
0.00425287
0.00428399
0.00431432
0.00434383
0.00437252
0.00440036
0.00442735
0.00445348
0.00447873
0.0045031
0.00452659
0.00454919
0.0045709
0.00459173
0.00461166
0.00463071
0.00464888
0.00466617
0.00468257
0.00469826
0.00471313
0.00472715
0.00474029
0.00475242
0.00476366
0.004774
0.00478349
0.00479214
0.00479997
0.00480697
0.00481314
0.00481849
0.004823
0.00482667
0.00482948
0.00483143
0.00483249
0.00483264
0.00483187
0.00483013
0.00482741
0.00482367
0.00481889
0.00481303
0.00480607
0.00479797
0.00478872
0.0047783
0.00476669
0.00475388
0.00473985
0.00472459
0.00470808
0.00469028
0.00467119
0.00465085
0.00462929
0.00460658
0.00458278
0.00455797
0.00453221
0.00450559
0.00447818
0.00445008
0.00442138
0.00439219
0.00436262
0.00433278
0.00430278
0.00427259
0.00424183
0.00420891
0.00417106
1.19286e-05
0.00011251
0.000232512
0.000334516
0.000417554
0.000484633
0.000538928
0.000583572
0.000621114
0.000653576
0.000682528
0.00070917
0.000734399
0.000758888
0.000783142
0.000807459
0.000832051
0.000857049
0.000882626
0.000908923
0.000936007
0.000963913
0.000992651
0.00102222
0.00105261
0.00108379
0.00111573
0.0011484
0.00118176
0.00121577
0.0012504
0.00128559
0.00132129
0.00135744
0.00139402
0.00143098
0.0014683
0.00150595
0.00154391
0.00158213
0.00162059
0.00165923
0.00169807
0.00173705
0.00177618
0.00181546
0.00185488
0.00189446
0.00193419
0.00197408
0.00201413
0.00205435
0.00209473
0.00213528
0.00217601
0.00221691
0.00225798
0.00229924
0.00234068
0.00238229
0.0024241
0.00246608
0.00250824
0.00255058
0.0025931
0.0026358
0.00267866
0.00272168
0.00276486
0.00280819
0.00285165
0.00289525
0.00293897
0.00298279
0.00302671
0.0030707
0.00311476
0.00315886
0.00320299
0.00324713
0.00329125
0.00333534
0.00337937
0.00342332
0.00346716
0.00351087
0.00355442
0.00359778
0.00364093
0.00368382
0.00372645
0.00376877
0.00381075
0.00385236
0.00389358
0.00393437
0.00397471
0.00401455
0.00405387
0.00409265
0.00413085
0.00416843
0.00420538
0.00424167
0.00427726
0.00431212
0.00434625
0.0043796
0.00441216
0.00444391
0.00447482
0.00450489
0.00453409
0.0045624
0.00458983
0.00461635
0.00464196
0.00466666
0.00469044
0.00471329
0.00473523
0.00475625
0.00477636
0.00479556
0.00481386
0.00483131
0.00484795
0.00486375
0.00487871
0.00489277
0.0049059
0.00491812
0.00492942
0.00493987
0.00494951
0.00495833
0.00496635
0.00497357
0.00498
0.00498563
0.00499046
0.00499448
0.00499768
0.00500003
0.00500153
0.00500215
0.00500186
0.00500062
0.00499842
0.00499521
0.00499095
0.00498563
0.00497919
0.00497161
0.00496287
0.00495294
0.0049418
0.00492944
0.00491584
0.00490099
0.00488485
0.00486743
0.00484873
0.00482879
0.00480764
0.00478533
0.00476194
0.00473751
0.00471214
0.00468588
0.00465884
0.00463111
0.00460281
0.00457406
0.004545
0.00451573
0.00448631
0.00445642
0.00442483
0.00438996
1.25441e-05
0.000115229
0.000238446
0.000344603
0.000431893
0.000503305
0.000561703
0.000610116
0.000651051
0.000686525
0.000718146
0.000747141
0.00077438
0.000800475
0.00082606
0.000851584
0.000877354
0.000903602
0.000930526
0.000958142
0.000986467
0.00101552
0.00104532
0.00107586
0.00110712
0.00113909
0.00117173
0.001205
0.00123888
0.00127331
0.00130826
0.00134368
0.00137952
0.00141575
0.00145234
0.00148924
0.00152643
0.00156388
0.00160158
0.00163952
0.00167772
0.00171623
0.00175488
0.00179358
0.00183235
0.00187118
0.00191011
0.00194915
0.0019883
0.00202758
0.002067
0.00210655
0.00214626
0.00218612
0.00222615
0.00226635
0.00230673
0.0023473
0.00238806
0.00242902
0.00247018
0.00251156
0.00255315
0.00259496
0.00263698
0.00267922
0.00272168
0.00276436
0.00280725
0.00285035
0.00289365
0.00293714
0.00298082
0.00302468
0.00306869
0.00311285
0.00315715
0.00320156
0.00324607
0.00329066
0.0033353
0.00337997
0.00342465
0.00346932
0.00351394
0.00355849
0.00360294
0.00364726
0.00369142
0.00373539
0.00377913
0.00382261
0.00386581
0.00390867
0.00395117
0.00399328
0.00403496
0.00407618
0.0041169
0.00415709
0.00419671
0.00423573
0.00427413
0.00431186
0.0043489
0.00438521
0.00442077
0.00445555
0.00448953
0.00452268
0.00455497
0.0045864
0.00461693
0.00464656
0.00467527
0.00470305
0.00472989
0.00475578
0.00478071
0.0048047
0.00482773
0.00484982
0.00487097
0.00489119
0.00491049
0.00492891
0.00494648
0.00496322
0.00497912
0.00499413
0.00500824
0.00502143
0.00503365
0.00504506
0.00505567
0.0050655
0.00507456
0.00508285
0.0050904
0.00509719
0.00510324
0.00510854
0.00511308
0.00511684
0.00511981
0.00512197
0.00512328
0.00512372
0.00512326
0.00512184
0.00511944
0.00511601
0.00511152
0.00510591
0.00509917
0.00509126
0.00508215
0.00507182
0.00506026
0.00504744
0.00503333
0.00501794
0.00500125
0.00498328
0.00496405
0.00494361
0.00492201
0.00489929
0.00487553
0.0048508
0.00482519
0.00479879
0.00477173
0.00474413
0.00471615
0.00468791
0.00465949
0.00463065
0.00460043
0.00456813
1.29755e-05
0.000116891
0.000242238
0.000351614
0.000442449
0.000517619
0.00057968
0.000631531
0.000675619
0.000713829
0.000747616
0.0007784
0.000807246
0.000835006
0.000862265
0.000889329
0.000916478
0.000943918
0.000971763
0.00100009
0.00102899
0.00105849
0.00108862
0.00111938
0.00115075
0.00118272
0.00121526
0.00124833
0.0012819
0.00131594
0.0013504
0.00138525
0.00142044
0.00145593
0.0014917
0.00152773
0.00156397
0.00160038
0.00163698
0.00167383
0.00171097
0.00174842
0.00178592
0.00182345
0.00186099
0.00189848
0.001936
0.00197359
0.00201126
0.00204903
0.00208693
0.00212496
0.00216314
0.0022015
0.00224003
0.00227876
0.00231771
0.00235688
0.00239629