/*--------------------------------*- C++ -*----------------------------------*\
  =========                 |
  \\      /  F ield         | OpenFOAM: The Open Source CFD Toolbox
   \\    /   O peration     | Website:  https://openfoam.org
    \\  /    A nd           | Version:  9
     \\/     M anipulation  |
\*---------------------------------------------------------------------------*/
FoamFile
{
    format      ascii;
    class       surfaceScalarField;
    location    "230";
    object      phi;
}
// * * * * * * * * * * * * * * * * * * * * * * * * * * * * * * * * * * * * * //

dimensions      [0 3 -1 0 0 0 0];

internalField   nonuniform List<scalar> 
24170
(
3.12901e-06
5.94006e-08
3.04663e-06
8.23785e-08
2.97353e-06
7.30913e-08
2.9049e-06
6.86311e-08
2.84058e-06
6.43255e-08
2.78326e-06
5.73179e-08
2.73394e-06
4.93178e-08
2.69199e-06
4.19436e-08
2.65633e-06
3.56629e-08
2.6259e-06
3.04305e-08
2.59972e-06
2.61784e-08
2.57696e-06
2.27604e-08
2.55695e-06
2.00112e-08
2.53913e-06
1.78196e-08
2.52312e-06
1.60095e-08
2.50791e-06
1.52017e-08
2.49403e-06
1.38863e-08
1.8749e-08
2.47528e-06
3.45306e-06
2.35854e-08
3.45701e-06
7.84368e-08
3.45055e-06
7.95511e-08
3.43909e-06
8.00862e-08
3.42431e-06
7.91015e-08
3.40706e-06
7.45663e-08
3.38785e-06
6.85322e-08
3.36733e-06
6.24646e-08
3.34618e-06
5.68036e-08
3.32501e-06
5.1605e-08
3.30429e-06
4.6901e-08
3.28429e-06
4.27563e-08
3.26522e-06
3.90814e-08
3.24711e-06
3.59295e-08
3.23004e-06
3.30737e-08
3.21399e-06
3.1253e-08
3.19925e-06
2.8627e-08
3.02649e-08
3.18773e-06
3.66816e-06
1.7942e-08
3.6792e-06
6.73951e-08
3.68543e-06
7.33226e-08
3.68946e-06
7.60504e-08
3.69106e-06
7.75015e-08
3.6901e-06
7.55296e-08
3.68697e-06
7.1665e-08
3.68213e-06
6.73007e-08
3.67598e-06
6.29486e-08
3.66885e-06
5.8736e-08
3.66102e-06
5.47376e-08
3.65272e-06
5.10517e-08
3.64415e-06
4.7648e-08
3.63547e-06
4.46108e-08
3.62675e-06
4.17974e-08
3.61835e-06
3.96476e-08
3.60973e-06
3.72498e-08
3.65939e-08
3.6034e-06
3.92585e-06
1.74812e-08
3.93592e-06
5.73238e-08
3.94257e-06
6.667e-08
3.94811e-06
7.05077e-08
3.95253e-06
7.30845e-08
3.95548e-06
7.25781e-08
3.95715e-06
6.99914e-08
3.95779e-06
6.66619e-08
3.95759e-06
6.31556e-08
3.95668e-06
5.96414e-08
3.95521e-06
5.6207e-08
3.9533e-06
5.29625e-08
3.95104e-06
4.9908e-08
3.94853e-06
4.71193e-08
3.94581e-06
4.45169e-08
3.94313e-06
4.23204e-08
3.94024e-06
4.01396e-08
3.85371e-08
3.9383e-06
4.2082e-06
1.64086e-08
4.21599e-06
4.95379e-08
4.22168e-06
6.09707e-08
4.22679e-06
6.54006e-08
4.23154e-06
6.83336e-08
4.23552e-06
6.86034e-08
4.23869e-06
6.68193e-08
4.24117e-06
6.41802e-08
4.24307e-06
6.12583e-08
4.24447e-06
5.82401e-08
4.24545e-06
5.52217e-08
4.2461e-06
5.23107e-08
4.24648e-06
4.95323e-08
4.24665e-06
4.69448e-08
4.24666e-06
4.451e-08
4.24665e-06
4.23261e-08
4.24657e-06
4.02166e-08
3.82685e-08
4.24684e-06
4.51071e-06
1.47856e-08
4.51688e-06
4.33638e-08
4.52213e-06
5.57206e-08
4.52695e-06
6.05817e-08
4.53167e-06
6.36183e-08
4.53592e-06
6.43511e-08
4.5396e-06
6.31415e-08
4.54276e-06
6.1014e-08
4.54549e-06
5.85297e-08
4.54784e-06
5.58873e-08
4.54987e-06
5.31926e-08
4.55163e-06
5.0546e-08
4.55318e-06
4.79898e-08
4.55455e-06
4.55664e-08
4.5558e-06
4.32616e-08
4.55702e-06
4.11099e-08
4.55821e-06
3.90214e-08
3.69486e-08
4.55953e-06
4.83433e-06
1.31752e-08
4.83963e-06
3.80652e-08
4.84475e-06
5.05944e-08
4.84946e-06
5.58759e-08
4.85409e-06
5.89825e-08
4.85842e-06
6.00302e-08
4.86229e-06
5.92651e-08
4.86576e-06
5.7544e-08
4.86888e-06
5.54088e-08
4.8717e-06
5.30692e-08
4.87425e-06
5.06392e-08
4.87659e-06
4.82127e-08
4.87873e-06
4.58414e-08
4.88074e-06
4.35581e-08
4.88264e-06
4.13603e-08
4.8845e-06
3.92528e-08
4.88634e-06
3.71824e-08
3.50822e-08
4.8882e-06
5.18105e-06
1.17086e-08
5.18575e-06
3.33581e-08
5.19076e-06
4.55909e-08
5.19541e-06
5.12225e-08
5.2e-06
5.43941e-08
5.20436e-06
5.56677e-08
5.20836e-06
5.5265e-08
5.21201e-06
5.38888e-08
5.21537e-06
5.20507e-08
5.21847e-06
4.99712e-08
5.22134e-06
4.77695e-08
5.22402e-06
4.55355e-08
5.22653e-06
4.33252e-08
5.22892e-06
4.11672e-08
5.23122e-06
3.9065e-08
5.23346e-06
3.70126e-08
5.23566e-06
3.49748e-08
3.29001e-08
5.23785e-06
5.55269e-06
1.03529e-08
5.55689e-06
2.9161e-08
5.5617e-06
4.07827e-08
5.56631e-06
4.66122e-08
5.57087e-06
4.98273e-08
5.57528e-06
5.12596e-08
5.57939e-06
5.11567e-08
5.58319e-06
5.00843e-08
5.58673e-06
4.85115e-08
5.59004e-06
4.66663e-08
5.59313e-06
4.46709e-08
5.59606e-06
4.26134e-08
5.59883e-06
4.05509e-08
5.60149e-06
3.85118e-08
5.60405e-06
3.6503e-08
5.60654e-06
3.45181e-08
5.60898e-06
3.25331e-08
3.05195e-08
5.61136e-06
5.95104e-06
9.08964e-09
5.95479e-06
2.54129e-08
5.95936e-06
3.62088e-08
5.96392e-06
4.20555e-08
5.96846e-06
4.52782e-08
5.97291e-06
4.68126e-08
5.97712e-06
4.69505e-08
5.98106e-06
4.61452e-08
5.98475e-06
4.48132e-08
5.98824e-06
4.31838e-08
5.99152e-06
4.13814e-08
5.99465e-06
3.94916e-08
5.99762e-06
3.75716e-08
6.00048e-06
3.56512e-08
6.00325e-06
3.37409e-08
6.00593e-06
3.18379e-08
6.00853e-06
2.99276e-08
2.80011e-08
6.01105e-06
6.37798e-06
7.91832e-09
6.38135e-06
2.20492e-08
6.38568e-06
3.18796e-08
6.39016e-06
3.75688e-08
6.39469e-06
4.07524e-08
6.39916e-06
4.23387e-08
6.40345e-06
4.26589e-08
6.40751e-06
4.20821e-08
6.41136e-06
4.0968e-08
6.415e-06
3.9539e-08
6.41846e-06
3.79197e-08
6.42176e-06
3.61928e-08
6.42492e-06
3.44148e-08
6.42795e-06
3.26175e-08
6.43088e-06
3.08151e-08
6.43371e-06
2.90098e-08
6.43644e-06
2.71952e-08
2.53772e-08
6.43906e-06
5.74176e-06
6.99201e-09
5.74434e-06
1.94658e-08
5.74781e-06
2.84097e-08
5.75154e-06
3.38401e-08
5.75534e-06
3.69489e-08
5.75914e-06
3.85453e-08
5.76282e-06
3.89752e-08
5.76634e-06
3.85596e-08
5.7697e-06
3.76118e-08
5.7729e-06
3.63411e-08
5.77594e-06
3.48698e-08
5.77886e-06
3.32785e-08
5.78165e-06
3.16224e-08
5.78433e-06
2.99347e-08
5.78692e-06
2.82322e-08
5.7894e-06
2.65222e-08
5.7918e-06
2.48032e-08
2.30913e-08
5.79408e-06
6.99914e-06
6.00827e-09
7.00187e-06
1.6732e-08
7.00564e-06
2.46447e-08
7.0098e-06
2.96723e-08
7.01412e-06
3.26276e-08
7.01848e-06
3.41899e-08
7.02275e-06
3.47003e-08
7.02688e-06
3.44336e-08
7.03084e-06
3.36536e-08
7.03463e-06
3.25506e-08
7.03825e-06
3.12419e-08
7.04173e-06
2.98041e-08
7.04506e-06
2.82906e-08
7.04826e-06
2.67355e-08
7.05133e-06
2.51585e-08
7.05428e-06
2.35712e-08
7.05711e-06
2.19771e-08
2.03996e-08
7.0598e-06
8.53188e-06
4.97478e-09
8.53474e-06
1.38751e-08
8.53877e-06
2.06123e-08
8.54337e-06
2.50726e-08
8.54822e-06
2.77703e-08
8.55318e-06
2.92352e-08
8.5581e-06
2.97803e-08
8.5629e-06
2.96363e-08
8.56753e-06
2.90168e-08
8.572e-06
2.80864e-08
8.57628e-06
2.69528e-08
8.5804e-06
2.56874e-08
8.58435e-06
2.43403e-08
8.58814e-06
2.29454e-08
8.59177e-06
2.15246e-08
8.59525e-06
2.00928e-08
8.59857e-06
1.86577e-08
1.72463e-08
8.60173e-06
1.04003e-05
3.9007e-09
1.04033e-05
1.09148e-08
1.04075e-05
1.63345e-08
1.04126e-05
2.00499e-08
1.0418e-05
2.2361e-08
1.04236e-05
2.36448e-08
1.04292e-05
2.41618e-08
1.04347e-05
2.40994e-08
1.04401e-05
2.36219e-08
1.04453e-05
2.28624e-08
1.04504e-05
2.19141e-08
1.04552e-05
2.08402e-08
1.04599e-05
1.96855e-08
1.04643e-05
1.84822e-08
1.04686e-05
1.72527e-08
1.04727e-05
1.60136e-08
1.04766e-05
1.47747e-08
1.35643e-08
1.04802e-05
1.26779e-05
2.79097e-09
1.2681e-05
7.84559e-09
1.26855e-05
1.18098e-08
1.26909e-05
1.45987e-08
1.26969e-05
1.63725e-08
1.27032e-05
1.73702e-08
1.27096e-05
1.77818e-08
1.27159e-05
1.77464e-08
1.27222e-05
1.73815e-08
1.27283e-05
1.67848e-08
1.27341e-05
1.60289e-08
1.27398e-05
1.51651e-08
1.27453e-05
1.42308e-08
1.27505e-05
1.32533e-08
1.27555e-05
1.22533e-08
1.27603e-05
1.12468e-08
1.27648e-05
1.02438e-08
9.27098e-09
1.27691e-05
1.54543e-05
1.63487e-09
1.54576e-05
4.62163e-09
1.54624e-05
6.98096e-09
1.54683e-05
8.65969e-09
1.5475e-05
9.7317e-09
1.5482e-05
1.03222e-08
1.54893e-05
1.05405e-08
1.54965e-05
1.04706e-08
1.55037e-05
1.0183e-08
1.55108e-05
9.73734e-09
1.55176e-05
9.18038e-09
1.55242e-05
8.54671e-09
1.55306e-05
7.86237e-09
1.55367e-05
7.14746e-09
1.55426e-05
6.41765e-09
1.55481e-05
5.68581e-09
1.55534e-05
4.9599e-09
4.26298e-09
1.55584e-05
1.88389e-05
3.92399e-10
1.88424e-05
1.11851e-09
1.88477e-05
1.67451e-09
1.88543e-05
2.04215e-09
1.88618e-05
2.24135e-09
1.88698e-05
2.29989e-09
1.88781e-05
2.23961e-09
1.88865e-05
2.08031e-09
1.88948e-05
1.84213e-09
1.8903e-05
1.54346e-09
1.8911e-05
1.19962e-09
1.89187e-05
8.23388e-10
1.89262e-05
4.25651e-10
1.89333e-05
1.57912e-11
1.89401e-05
-3.98212e-10
1.89466e-05
-8.09073e-10
1.89528e-05
-1.21257e-09
-1.59121e-09
1.89586e-05
2.29648e-05
-1.03762e-09
2.29688e-05
-2.95292e-09
2.2975e-05
-4.52893e-09
2.29828e-05
-5.72995e-09
2.29916e-05
-6.57625e-09
2.30011e-05
-7.1541e-09
2.30109e-05
-7.55087e-09
2.30208e-05
-7.8211e-09
2.30306e-05
-8.00152e-09
2.30403e-05
-8.12325e-09
2.30497e-05
-8.21008e-09
2.30588e-05
-8.27637e-09
2.30675e-05
-8.33013e-09
2.30759e-05
-8.37554e-09
2.3084e-05
-8.41475e-09
2.30916e-05
-8.44774e-09
2.30989e-05
-8.47526e-09
-8.48652e-09
2.31057e-05
1.68118e-05
-2.16017e-09
1.6815e-05
-6.12343e-09
1.68198e-05
-9.35809e-09
1.68258e-05
-1.17263e-08
1.68325e-05
-1.32866e-08
1.68396e-05
-1.42671e-08
1.68469e-05
-1.48551e-08
1.68543e-05
-1.51544e-08
1.68615e-05
-1.5244e-08
1.68686e-05
-1.51959e-08
1.68754e-05
-1.50627e-08
1.6882e-05
-1.48774e-08
1.68884e-05
-1.46607e-08
1.68944e-05
-1.44265e-08
1.69002e-05
-1.41833e-08
1.69057e-05
-1.39359e-08
1.69109e-05
-1.36876e-08
-1.34317e-08
1.69158e-05
1.46356e-05
-3.23829e-09
1.46387e-05
-9.21008e-09
1.46434e-05
-1.40717e-08
1.46492e-05
-1.7469e-08
1.46555e-05
-1.95723e-08
1.4662e-05
-2.08315e-08
1.46687e-05
-2.15167e-08
1.46753e-05
-2.17638e-08
1.46818e-05
-2.17037e-08
1.4688e-05
-2.14531e-08
1.4694e-05
-2.10875e-08
1.46998e-05
-2.06516e-08
1.47053e-05
-2.01756e-08
1.47106e-05
-1.96805e-08
1.47156e-05
-1.91798e-08
1.47203e-05
-1.86809e-08
1.47248e-05
-1.81887e-08
-1.7699e-08
1.47291e-05
1.27411e-05
-4.24789e-09
1.27443e-05
-1.23374e-08
1.27491e-05
-1.89017e-08
1.27547e-05
-2.31142e-08
1.27607e-05
-2.5552e-08
1.27669e-05
-2.69889e-08
1.2773e-05
-2.76879e-08
1.27791e-05
-2.77979e-08
1.27849e-05
-2.75264e-08
1.27905e-05
-2.70385e-08
1.27958e-05
-2.64239e-08
1.28009e-05
-2.57341e-08
1.28057e-05
-2.50061e-08
1.28103e-05
-2.42656e-08
1.28147e-05
-2.35281e-08
1.28188e-05
-2.28017e-08
1.28227e-05
-2.20915e-08
-2.13946e-08
1.28264e-05
1.10918e-05
-5.09144e-09
1.1095e-05
-1.55589e-08
1.11001e-05
-2.4027e-08
1.11057e-05
-2.87378e-08
1.11115e-05
-3.12863e-08
1.11173e-05
-3.28014e-08
1.1123e-05
-3.34145e-08
1.11285e-05
-3.33078e-08
1.11338e-05
-3.27837e-08
1.11388e-05
-3.20396e-08
1.11435e-05
-3.11672e-08
1.1148e-05
-3.02233e-08
1.11523e-05
-2.92509e-08
1.11563e-05
-2.82786e-08
1.11601e-05
-2.73217e-08
1.11636e-05
-2.63883e-08
1.1167e-05
-2.54823e-08
-2.46015e-08
1.11702e-05
9.65582e-06
-5.69831e-09
9.65924e-06
-1.89824e-08
9.66459e-06
-2.93715e-08
9.67008e-06
-3.42333e-08
9.67564e-06
-3.68429e-08
9.6812e-06
-3.83585e-08
9.68653e-06
-3.87448e-08
9.69155e-06
-3.83328e-08
9.69629e-06
-3.75253e-08
9.70077e-06
-3.65167e-08
9.70499e-06
-3.53856e-08
9.70895e-06
-3.41917e-08
9.71269e-06
-3.29824e-08
9.71619e-06
-3.17874e-08
9.71949e-06
-3.06217e-08
9.7226e-06
-2.94923e-08
9.72552e-06
-2.84015e-08
-2.73454e-08
9.72826e-06
8.40532e-06
-5.66855e-09
8.40964e-06
-2.32966e-08
8.41487e-06
-3.46054e-08
8.4199e-06
-3.92595e-08
8.42526e-06
-4.22068e-08
8.43066e-06
-4.3764e-08
8.43575e-06
-4.38275e-08
8.44045e-06
-4.30356e-08
8.44481e-06
-4.18911e-08
8.44887e-06
-4.057e-08
8.45262e-06
-3.91421e-08
8.4561e-06
-3.76696e-08
8.45932e-06
-3.62023e-08
8.4623e-06
-3.47677e-08
8.46506e-06
-3.33811e-08
8.46762e-06
-3.20487e-08
8.46999e-06
-3.07723e-08
-2.95485e-08
8.47219e-06
7.31455e-06
-2.93037e-09
7.32119e-06
-2.99391e-08
7.32674e-06
-4.01554e-08
7.33169e-06
-4.42094e-08
7.33708e-06
-4.76025e-08
7.3424e-06
-4.90824e-08
7.34728e-06
-4.87026e-08
7.35169e-06
-4.74454e-08
7.35566e-06
-4.58657e-08
7.35921e-06
-4.41222e-08
7.36236e-06
-4.22951e-08
7.36515e-06
-4.04572e-08
7.36761e-06
-3.8661e-08
7.36977e-06
-3.69309e-08
7.37167e-06
-3.52819e-08
7.37334e-06
-3.37168e-08
7.3748e-06
-3.22361e-08
-3.08302e-08
7.37609e-06
6.36245e-06
4.68592e-09
6.37189e-06
-3.93803e-08
6.37932e-06
-4.75816e-08
6.38596e-06
-5.08489e-08
6.39224e-06
-5.38827e-08
6.39755e-06
-5.43932e-08
6.40184e-06
-5.29948e-08
6.40532e-06
-5.09233e-08
6.40811e-06
-4.86626e-08
6.41029e-06
-4.6304e-08
6.41192e-06
-4.39245e-08
6.41307e-06
-4.16013e-08
6.41379e-06
-3.9385e-08
6.41415e-06
-3.72939e-08
6.41421e-06
-3.53419e-08
6.41402e-06
-3.3525e-08
6.41363e-06
-3.18441e-08
-3.02794e-08
6.41308e-06
5.5412e-06
8.94852e-09
5.55032e-06
-4.85028e-08
5.55834e-06
-5.55991e-08
5.56604e-06
-5.85497e-08
5.5725e-06
-6.03428e-08
5.57682e-06
-5.87162e-08
5.57906e-06
-5.52343e-08
5.57962e-06
-5.14805e-08
5.57886e-06
-4.79068e-08
5.57708e-06
-4.45165e-08
5.57448e-06
-4.13285e-08
5.57126e-06
-3.83853e-08
5.56757e-06
-3.56952e-08
5.56353e-06
-3.325e-08
5.55923e-06
-3.10466e-08
5.55478e-06
-2.90682e-08
5.55025e-06
-2.73163e-08
-2.57419e-08
5.54571e-06
4.86004e-06
-2.34876e-08
4.86538e-06
-5.38447e-08
4.86524e-06
-5.54531e-08
4.86217e-06
-5.54795e-08
4.857e-06
-5.51714e-08
4.84949e-06
-5.12144e-08
4.8398e-06
-4.55364e-08
4.8284e-06
-4.00852e-08
4.81582e-06
-3.53312e-08
4.80254e-06
-3.12357e-08
4.78894e-06
-2.77278e-08
4.7753e-06
-2.47448e-08
4.76182e-06
-2.22088e-08
4.74861e-06
-2.00486e-08
4.73578e-06
-1.8218e-08
4.7234e-06
-1.66839e-08
4.71157e-06
-1.54841e-08
-1.51382e-08
4.70096e-06
4.17919e-06
4.12534e-06
4.06989e-06
4.01441e-06
3.95924e-06
3.90803e-06
3.86249e-06
3.8224e-06
3.78707e-06
3.75584e-06
3.72811e-06
3.70336e-06
3.68115e-06
3.66111e-06
3.64289e-06
3.6262e-06
3.61072e-06
3.59558e-06
1.29187e-08
-1.29316e-08
2.64768e-08
-1.35733e-08
3.47314e-08
-8.27327e-09
3.67325e-08
-2.01201e-09
3.28939e-08
3.82092e-09
2.42969e-08
8.58746e-09
1.21084e-08
1.21694e-08
-2.64972e-09
1.47491e-08
-1.92981e-08
1.66298e-08
-3.7357e-08
1.80514e-08
-5.65457e-08
1.91715e-08
-7.66699e-08
2.01177e-08
-9.76475e-08
2.09614e-08
-1.19395e-07
2.17414e-08
-1.41887e-07
2.2476e-08
-1.6507e-07
2.31757e-08
-1.88932e-07
2.38462e-08
-2.13431e-07
2.44928e-08
-2.38566e-07
2.51183e-08
-2.64297e-07
2.57258e-08
-2.90627e-07
2.63126e-08
-3.17504e-07
2.68713e-08
-3.44912e-07
2.73884e-08
-3.72783e-07
2.78577e-08
-4.0108e-07
2.82737e-08
-4.29768e-07
2.86617e-08
-4.59067e-07
2.92682e-08
-4.89575e-07
3.04652e-08
-5.22674e-07
3.30625e-08
-5.61525e-07
3.87891e-08
-5.98673e-07
3.71073e-08
-6.30612e-07
3.18707e-08
-6.66998e-07
3.63634e-08
-7.0457e-07
3.75313e-08
-7.35115e-07
3.05453e-08
-7.73993e-07
3.88656e-08
-8.22461e-07
4.84764e-08
-8.69666e-07
4.72029e-08
-9.20178e-07
5.05227e-08
-9.64393e-07
4.42177e-08
-9.98051e-07
3.36684e-08
-1.0362e-06
3.81548e-08
-1.07694e-06
4.07463e-08
-1.11909e-06
4.21502e-08
-1.16189e-06
4.28017e-08
-1.20497e-06
4.3081e-08
-1.24814e-06
4.31627e-08
-1.29127e-06
4.31343e-08
-1.33431e-06
4.30369e-08
-1.37721e-06
4.28951e-08
-1.41993e-06
4.27213e-08
-1.46246e-06
4.25234e-08
-1.50477e-06
4.23052e-08
-1.54685e-06
4.20688e-08
-1.58867e-06
4.18145e-08
-1.63022e-06
4.15422e-08
-1.67148e-06
4.12505e-08
-1.71242e-06
4.09383e-08
-1.75304e-06
4.06037e-08
-1.79329e-06
4.02451e-08
-1.83316e-06
3.98603e-08
-1.87262e-06
3.94478e-08
-1.91163e-06
3.90056e-08
-1.95018e-06
3.85319e-08
-1.98821e-06
3.80249e-08
-2.02571e-06
3.74833e-08
-2.06262e-06
3.69056e-08
-2.09893e-06
3.62905e-08
-2.13457e-06
3.56372e-08
-2.16953e-06
3.49444e-08
-2.20375e-06
3.42118e-08
-2.2372e-06
3.34385e-08
-2.26983e-06
3.26241e-08
-2.30161e-06
3.17683e-08
-2.3325e-06
3.08712e-08
-2.36244e-06
2.99324e-08
-2.39141e-06
2.89526e-08
-2.41935e-06
2.79319e-08
-2.44624e-06
2.68711e-08
-2.47203e-06
2.57702e-08
-2.49667e-06
2.46303e-08
-2.52014e-06
2.34519e-08
-2.54239e-06
2.22363e-08
-2.56339e-06
2.09836e-08
-2.5831e-06
1.9695e-08
-2.60149e-06
1.837e-08
-2.61851e-06
1.70089e-08
-2.63413e-06
1.56095e-08
-2.64831e-06
1.41711e-08
-2.661e-06
1.26913e-08
-2.67218e-06
1.11663e-08
-2.68178e-06
9.59102e-09
-2.68975e-06
7.9579e-09
-2.69602e-06
6.25479e-09
-2.7005e-06
4.46483e-09
-2.70309e-06
2.57808e-09
-2.70374e-06
6.37237e-10
-2.70256e-06
-1.19754e-09
-2.69974e-06
-2.83989e-09
-2.69538e-06
-4.38442e-09
-2.68949e-06
-5.907e-09
-2.68209e-06
-7.42709e-09
-2.67317e-06
-8.951e-09
-2.66273e-06
-1.04805e-08
-2.65075e-06
-1.20131e-08
-2.63725e-06
-1.35493e-08
-2.6222e-06
-1.50854e-08
-2.60562e-06
-1.6623e-08
-2.5875e-06
-1.81585e-08
-2.56784e-06
-1.96945e-08
-2.54665e-06
-2.12268e-08
-2.52393e-06
-2.27586e-08
-2.49967e-06
-2.4285e-08
-2.47389e-06
-2.58096e-08
-2.44659e-06
-2.73271e-08
-2.41777e-06
-2.88411e-08
-2.38744e-06
-3.03456e-08
-2.35561e-06
-3.18443e-08
-2.32229e-06
-3.33318e-08
-2.28749e-06
-3.48131e-08
-2.25122e-06
-3.62846e-08
-2.21351e-06
-3.77494e-08
-2.17435e-06
-3.9199e-08
-2.13375e-06
-4.0636e-08
-2.09172e-06
-4.20502e-08
-2.0483e-06
-4.34485e-08
-2.00347e-06
-4.48223e-08
-1.95728e-06
-4.61779e-08
-1.90974e-06
-4.75114e-08
-1.86088e-06
-4.88212e-08
-1.81071e-06
-5.00999e-08
-1.75928e-06
-5.13612e-08
-1.70661e-06
-5.25778e-08
-1.65275e-06
-5.37624e-08
-1.59772e-06
-5.49141e-08
-1.54157e-06
-5.60359e-08
-1.48431e-06
-5.7123e-08
-1.426e-06
-5.81765e-08
-1.36668e-06
-5.9195e-08
-1.30639e-06
-6.0176e-08
-1.24517e-06
-6.11168e-08
-1.18308e-06
-6.20126e-08
-1.12014e-06
-6.28627e-08
-1.05643e-06
-6.36628e-08
-9.91972e-07
-6.44135e-08
-9.26838e-07
-6.51092e-08
-8.61079e-07
-6.57503e-08
-7.94754e-07
-6.63306e-08
-7.27925e-07
-6.68512e-08
-6.60657e-07
-6.7305e-08
-5.93018e-07
-6.76929e-08
-5.25082e-07
-6.8006e-08
-4.56923e-07
-6.82462e-08
-3.88619e-07
-6.84043e-08
-3.20251e-07
-6.84842e-08
-2.51899e-07
-6.84802e-08
-1.83634e-07
-6.84065e-08
-1.1551e-07
-6.82735e-08
-4.75971e-08
-6.80725e-08
2.01584e-08
-6.79165e-08
8.77625e-08
-6.77662e-08
1.54926e-07
-6.73204e-08
2.21386e-07
-6.66167e-08
2.87038e-07
-6.58027e-08
3.51803e-07
-6.49152e-08
4.15619e-07
-6.39623e-08
4.78428e-07
-6.29526e-08
5.40174e-07
-6.18859e-08
6.00799e-07
-6.07647e-08
6.60246e-07
-5.95826e-08
7.18442e-07
-5.83303e-08
7.75295e-07
-5.69867e-08
8.30674e-07
-5.55107e-08
8.84363e-07
-5.38203e-08
9.35991e-07
-5.17587e-08
9.8486e-07
-4.89979e-08
1.02944e-06
-4.47051e-08
1.0662e-06
-3.68869e-08
1.08433e-06
-1.8238e-08
3.19996e-08
1.05223e-06
8.41299e-09
-2.13574e-08
9.68059e-09
-1.48546e-08
6.17664e-09
-4.78044e-09
-5.04994e-10
4.66284e-09
-9.81993e-09
1.31272e-08
-2.16563e-08
2.04182e-08
-3.59484e-08
2.64531e-08
-5.25091e-08
3.13045e-08
-7.10512e-08
3.51635e-08
-9.12688e-08
3.82643e-08
-1.1293e-07
4.08242e-08
-1.35835e-07
4.30184e-08
-1.59855e-07
4.49729e-08
-1.84891e-07
4.67723e-08
-2.10896e-07
4.84722e-08
-2.37835e-07
5.01103e-08
-2.65712e-07
5.17136e-08
-2.94528e-07
5.33038e-08
-3.24318e-07
5.48988e-08
-3.55111e-07
5.65135e-08
-3.86968e-07
5.81608e-08
-4.19958e-07
5.98558e-08
-4.54204e-07
6.16231e-08
-4.89856e-07
6.34995e-08
-5.27115e-07
6.55184e-08
-5.66198e-07
6.77257e-08
-6.07173e-07
7.0222e-08
-6.49833e-07
7.3094e-08
-6.93042e-07
7.62444e-08
-7.33372e-07
7.90806e-08
-7.75924e-07
7.96317e-08
-8.22675e-07
7.85885e-08
-8.65282e-07
7.89536e-08
-9.06751e-07
7.89812e-08
-9.55001e-07
7.87904e-08
-9.98078e-07
8.19361e-08
-1.03654e-06
8.69387e-08
-1.0781e-06
8.87699e-08
-1.11694e-06
8.93665e-08
-1.15958e-06
8.68555e-08
-1.20914e-06
8.32375e-08
-1.25362e-06
8.2633e-08
-1.29556e-06
8.26875e-08
-1.33619e-06
8.27794e-08
-1.37612e-06
8.27333e-08
-1.41558e-06
8.25418e-08
-1.45466e-06
8.2241e-08
-1.49339e-06
8.18625e-08
-1.53178e-06
8.14279e-08
-1.56984e-06
8.0951e-08
-1.60756e-06
8.04395e-08
-1.64494e-06
7.98979e-08
-1.68196e-06
7.93275e-08
-1.71862e-06
7.8728e-08
-1.75491e-06
7.80979e-08
-1.79081e-06
7.74348e-08
-1.8263e-06
7.67357e-08
-1.86136e-06
7.59976e-08
-1.89598e-06
7.52168e-08
-1.93013e-06
7.43899e-08
-1.96379e-06
7.35137e-08
-1.99694e-06
7.25847e-08
-2.02954e-06
7.15997e-08
-2.06157e-06
7.0556e-08
-2.093e-06
6.94505e-08
-2.12381e-06
6.8281e-08
-2.15395e-06
6.70452e-08
-2.18341e-06
6.57413e-08
-2.21215e-06
6.43674e-08
-2.24013e-06
6.29225e-08
-2.26733e-06
6.14052e-08
-2.29372e-06
5.98149e-08
-2.31925e-06
5.8151e-08
-2.3439e-06
5.64132e-08
-2.36764e-06
5.46014e-08
-2.39043e-06
5.27158e-08
-2.41225e-06
5.07572e-08
-2.43305e-06
4.87262e-08
-2.45281e-06
4.66238e-08
-2.4715e-06
4.44509e-08
-2.48909e-06
4.2209e-08
-2.50555e-06
3.98992e-08
-2.52085e-06
3.7523e-08
-2.53496e-06
3.50816e-08
-2.54785e-06
3.25765e-08
-2.5595e-06
3.00087e-08
-2.56988e-06
2.73793e-08
-2.57896e-06
2.46892e-08
-2.58674e-06
2.19401e-08
-2.59318e-06
1.91322e-08
-2.59829e-06
1.62653e-08
-2.60204e-06
1.33396e-08
-2.60445e-06
1.03564e-08
-2.60552e-06
7.32075e-09
-2.60532e-06
4.24596e-09
-2.60391e-06
1.16374e-09
-2.60141e-06
-1.87995e-09
-2.59774e-06
-4.87415e-09
-2.59274e-06
-7.8538e-09
-2.5863e-06
-1.08412e-08
-2.57838e-06
-1.38399e-08
-2.56897e-06
-1.6851e-08
-2.55807e-06
-1.98757e-08
-2.54566e-06
-2.29119e-08
-2.53175e-06
-2.59571e-08
-2.51632e-06
-2.90083e-08
-2.49937e-06
-3.20631e-08
-2.4809e-06
-3.51196e-08
-2.46091e-06
-3.8176e-08
-2.43939e-06
-4.12311e-08
-2.41636e-06
-4.42832e-08
-2.39181e-06
-4.73313e-08
-2.36574e-06
-5.03734e-08
-2.33816e-06
-5.34087e-08
-2.30907e-06
-5.64347e-08
-2.27847e-06
-5.94505e-08
-2.24638e-06
-6.2453e-08
-2.21279e-06
-6.54404e-08
-2.17771e-06
-6.8411e-08
-2.14117e-06
-7.13657e-08
-2.10316e-06
-7.43029e-08
-2.06371e-06
-7.72216e-08
-2.02283e-06
-8.01148e-08
-1.98051e-06
-8.29786e-08
-1.93677e-06
-8.58058e-08
-1.89163e-06
-8.8597e-08
-1.84511e-06
-9.13475e-08
-1.79722e-06
-9.40591e-08
-1.74799e-06
-9.67248e-08
-1.69744e-06
-9.93463e-08
-1.64559e-06
-1.01919e-07
-1.59247e-06
-1.04436e-07
-1.53812e-06
-1.06878e-07
-1.48257e-06
-1.09254e-07
-1.42585e-06
-1.11566e-07
-1.36801e-06
-1.13813e-07
-1.30907e-06
-1.1599e-07
-1.24907e-06
-1.18096e-07
-1.18807e-06
-1.20128e-07
-1.1261e-06
-1.22082e-07
-1.06322e-06
-1.23952e-07
-9.99452e-07
-1.25733e-07
-9.34859e-07
-1.27418e-07
-8.6949e-07
-1.29005e-07
-8.03397e-07
-1.30486e-07
-7.36638e-07
-1.31859e-07
-6.69271e-07
-1.33113e-07
-6.01361e-07
-1.34247e-07
-5.32973e-07
-1.35251e-07
-4.64179e-07
-1.36122e-07
-3.95052e-07
-1.36848e-07
-3.25672e-07
-1.37426e-07
-2.56117e-07
-1.37845e-07
-1.86472e-07
-1.38103e-07
-1.16819e-07
-1.38195e-07
-4.72222e-08
-1.38143e-07
2.22657e-08
-1.37962e-07
9.15442e-08
-1.37626e-07
1.60494e-07
-1.37095e-07
2.28892e-07
-1.36391e-07
2.96504e-07
-1.35453e-07
3.63318e-07
-1.34212e-07
4.29347e-07
-1.32722e-07
4.94531e-07
-1.31064e-07
5.58807e-07
-1.29268e-07
6.22119e-07
-1.27353e-07
6.84416e-07
-1.25326e-07
7.4565e-07
-1.23197e-07
8.0577e-07
-1.20961e-07
8.64725e-07
-1.18615e-07
9.22452e-07
-1.16133e-07
9.78866e-07
-1.13479e-07
1.03384e-06
-1.10566e-07
1.08719e-06
-1.07242e-07
1.13855e-06
-1.03204e-07
1.18734e-06
-9.78674e-08
1.23241e-06
-8.98449e-08
1.27184e-06
-7.63956e-08
1.30305e-06
-4.9523e-08
1.01236e-08
1.32486e-06
-1.79171e-09
-1.95767e-08
-9.80036e-09
-6.8564e-09
-2.02273e-08
5.63902e-09
-3.21967e-08
1.66276e-08
-4.54778e-08
2.64029e-08
-6.01029e-08
3.50396e-08
-7.62009e-08
4.25459e-08
-9.38644e-08
4.89647e-08
-1.13113e-07
5.4407e-08
-1.33887e-07
5.90344e-08
-1.56092e-07
6.30246e-08
-1.7962e-07
6.65432e-08
-2.04381e-07
6.97278e-08
-2.30297e-07
7.26849e-08
-2.57324e-07
7.5493e-08
-2.85427e-07
7.82097e-08
-3.14597e-07
8.08775e-08
-3.44827e-07
8.35292e-08
-3.76125e-07
8.61909e-08
-4.085e-07
8.88843e-08
-4.41974e-07
9.16283e-08
-4.76564e-07
9.44413e-08
-5.12289e-07
9.73411e-08
-5.49137e-07
1.0034e-07
-5.87062e-07
1.03434e-07
-6.2595e-07
1.06601e-07
-6.65526e-07
1.09785e-07
-7.0532e-07
1.12869e-07
-7.44722e-07
1.1563e-07
-7.83387e-07
1.17723e-07
-8.2254e-07
1.18769e-07
-8.62902e-07
1.18932e-07
-9.0301e-07
1.19051e-07
-9.43271e-07
1.19229e-07
-9.84229e-07
1.19745e-07
-1.02347e-06
1.21168e-07
-1.05958e-06
1.23055e-07
-1.09472e-06
1.23908e-07
-1.1292e-06
1.23847e-07
-1.16506e-06
1.22716e-07
-1.20291e-06
1.21087e-07
-1.24022e-06
1.19947e-07
-1.27671e-06
1.19172e-07
-1.31249e-06
1.18564e-07
-1.34775e-06
1.17996e-07
-1.38262e-06
1.17412e-07
-1.41718e-06
1.16794e-07
-1.45145e-06
1.16138e-07
-1.48547e-06
1.15447e-07
-1.51924e-06
1.14721e-07
-1.55277e-06
1.13961e-07
-1.58604e-06
1.13165e-07
-1.61904e-06
1.12332e-07
-1.65178e-06
1.11459e-07
-1.68422e-06
1.10541e-07
-1.71637e-06
1.09575e-07
-1.74819e-06
1.08555e-07
-1.77967e-06
1.07477e-07
-1.81079e-06
1.06335e-07
-1.84153e-06
1.05124e-07
-1.87186e-06
1.03841e-07
-1.90176e-06
1.0248e-07
-1.93121e-06
1.01036e-07
-1.96016e-06
9.95069e-08
-1.9886e-06
9.78875e-08
-2.0165e-06
9.61747e-08
-2.04383e-06
9.43656e-08
-2.07055e-06
9.24576e-08
-2.09664e-06
9.04484e-08
-2.12205e-06
8.83362e-08
-2.14677e-06
8.61195e-08
-2.17076e-06
8.37972e-08
-2.19398e-06
8.13685e-08
-2.21641e-06
7.88331e-08
-2.238e-06
7.6191e-08
-2.25874e-06
7.34425e-08
-2.27857e-06
7.05885e-08
-2.29748e-06
6.76299e-08
-2.31543e-06
6.45682e-08
-2.33239e-06
6.14049e-08
-2.34833e-06
5.81419e-08
-2.36322e-06
5.47813e-08
-2.37703e-06
5.13251e-08
-2.38973e-06
4.77759e-08
-2.4013e-06
4.41359e-08
-2.41171e-06
4.04078e-08
-2.42093e-06
3.65945e-08
-2.42894e-06
3.26992e-08
-2.43573e-06
2.87256e-08
-2.44128e-06
2.46775e-08
-2.44558e-06
2.05586e-08
-2.44862e-06
1.63738e-08
-2.4504e-06
1.21301e-08
-2.45092e-06
7.83779e-09
-2.45019e-06
3.51315e-09
-2.44822e-06
-8.22513e-10
-2.44495e-06
-5.15329e-09
-2.44034e-06
-9.48933e-09
-2.43435e-06
-1.38527e-08
-2.42696e-06
-1.82503e-08
-2.41813e-06
-2.26783e-08
-2.40786e-06
-2.7133e-08
-2.39614e-06
-3.16111e-08
-2.38297e-06
-3.61079e-08
-2.36832e-06
-4.06199e-08
-2.35221e-06
-4.51421e-08
-2.33462e-06
-4.96716e-08
-2.31555e-06
-5.42047e-08
-2.29501e-06
-5.87397e-08
-2.27298e-06
-6.32733e-08
-2.24948e-06
-6.78046e-08
-2.22449e-06
-7.23301e-08
-2.19803e-06
-7.68489e-08
-2.1701e-06
-8.13575e-08
-2.14069e-06
-8.58549e-08
-2.10981e-06
-9.03371e-08
-2.07747e-06
-9.48019e-08
-2.04367e-06
-9.92452e-08
-2.00842e-06
-1.03666e-07
-1.97173e-06
-1.08062e-07
-1.93361e-06
-1.12434e-07
-1.89407e-06
-1.16775e-07
-1.85313e-06
-1.2108e-07
-1.81079e-06
-1.2534e-07
-1.76706e-06
-1.29552e-07
-1.72195e-06
-1.33709e-07
-1.67549e-06
-1.37811e-07
-1.62769e-06
-1.41853e-07
-1.57858e-06
-1.4583e-07
-1.52817e-06
-1.4974e-07
-1.47649e-06
-1.53578e-07
-1.42356e-06
-1.57329e-07
-1.36943e-06
-1.60979e-07
-1.31412e-06
-1.64529e-07
-1.25766e-06
-1.6798e-07
-1.2001e-06
-1.7133e-07
-1.14147e-06
-1.74573e-07
-1.08181e-06
-1.77707e-07
-1.02117e-06
-1.80725e-07
-9.59586e-07
-1.83623e-07
-8.97113e-07
-1.86392e-07
-8.33792e-07
-1.89025e-07
-7.69675e-07
-1.91513e-07
-7.04812e-07
-1.93849e-07
-6.39262e-07
-1.96023e-07
-5.73082e-07
-1.98029e-07
-5.06335e-07
-1.99855e-07
-4.39086e-07
-2.01494e-07
-3.71406e-07
-2.02934e-07
-3.03367e-07
-2.04165e-07
-2.35046e-07
-2.05178e-07
-1.66523e-07
-2.0596e-07
-9.78802e-08
-2.06503e-07
-2.91899e-08
-2.06809e-07
3.9467e-08
-2.06871e-07
1.07986e-07
-2.06682e-07
1.76244e-07
-2.06241e-07
2.44127e-07
-2.0553e-07
3.11541e-07
-2.04532e-07
3.78366e-07
-2.03239e-07
4.44494e-07
-2.01606e-07
5.09875e-07
-1.99616e-07
5.74459e-07
-1.97331e-07
6.38182e-07
-1.94811e-07
7.00983e-07
-1.92093e-07
7.62807e-07
-1.892e-07
8.23605e-07
-1.86149e-07
8.83334e-07
-1.8295e-07
9.4195e-07
-1.79602e-07
9.99408e-07
-1.76097e-07
1.05565e-06
-1.72402e-07
1.11061e-06
-1.68458e-07
1.16416e-06
-1.64146e-07
1.21614e-06
-1.5925e-07
1.26627e-06
-1.53358e-07
1.31408e-06
-1.45705e-07
1.35888e-06
-1.34675e-07
1.39973e-06
-1.1727e-07
1.43668e-06
-8.6506e-08
-2.75928e-08
1.47438e-06
-1.01712e-08
-9.41583e-09
-2.41463e-08
7.10975e-09
-3.92039e-08
2.06905e-08
-5.49088e-08
3.23286e-08
-7.12353e-08
4.2725e-08
-8.8288e-08
5.20894e-08
-1.0623e-07
6.0484e-08
-1.25216e-07
6.7948e-08
-1.45363e-07
7.45501e-08
-1.66727e-07
8.03954e-08
-1.89319e-07
8.5612e-08
-2.13111e-07
9.03323e-08
-2.38066e-07
9.46782e-08
-2.64136e-07
9.87528e-08
-2.91286e-07
1.02638e-07
-3.19474e-07
1.06395e-07
-3.48672e-07
1.1007e-07
-3.78843e-07
1.13696e-07
-4.09953e-07
1.17296e-07
-4.41955e-07
1.20883e-07
-4.748e-07
1.24468e-07
-5.08412e-07
1.2805e-07
-5.42702e-07
1.31625e-07
-5.77539e-07
1.35172e-07
-6.12762e-07
1.38651e-07
-6.48171e-07
1.42002e-07
-6.83533e-07
1.45138e-07
-7.18622e-07
1.47945e-07
-7.53284e-07
1.50282e-07
-7.87589e-07
1.52014e-07
-8.21905e-07
1.53076e-07
-8.56562e-07
1.53576e-07
-8.9135e-07
1.53832e-07
-9.26181e-07
1.54051e-07
-9.60828e-07
1.54388e-07
-9.94587e-07
1.54921e-07
-1.02698e-06
1.55444e-07
-1.05861e-06
1.55541e-07
-1.08993e-06
1.55162e-07
-1.12155e-06
1.54338e-07
-1.15372e-06
1.53261e-07
-1.18599e-06
1.52211e-07
-1.21808e-06
1.51264e-07
-1.24991e-06
1.50399e-07
-1.2815e-06
1.49577e-07
-1.31285e-06
1.48765e-07
-1.344e-06
1.47944e-07
-1.37497e-06
1.47103e-07
-1.40575e-06
1.46233e-07
-1.43636e-06
1.45331e-07
-1.4668e-06
1.44392e-07
-1.49704e-06
1.43409e-07
-1.52709e-06
1.42379e-07
-1.55693e-06
1.41296e-07
-1.58654e-06
1.40152e-07
-1.61591e-06
1.38943e-07
-1.64502e-06
1.37661e-07
-1.67385e-06
1.36301e-07
-1.70237e-06
1.34855e-07
-1.73057e-06
1.33318e-07
-1.75842e-06
1.31683e-07
-1.78588e-06
1.29945e-07
-1.81295e-06
1.28097e-07
-1.83958e-06
1.26136e-07
-1.86576e-06
1.24056e-07
-1.89144e-06
1.21853e-07
-1.9166e-06
1.19524e-07
-1.94121e-06
1.17065e-07
-1.96524e-06
1.14472e-07
-1.98865e-06
1.11745e-07
-2.01142e-06
1.08881e-07
-2.0335e-06
1.05879e-07
-2.05488e-06
1.02737e-07
-2.0755e-06
9.94559e-08
-2.09535e-06
9.60351e-08
-2.11439e-06
9.24754e-08
-2.13258e-06
8.87777e-08
-2.1499e-06
8.49433e-08
-2.16631e-06
8.09742e-08
-2.18178e-06
7.68724e-08
-2.19629e-06
7.26406e-08
-2.20979e-06
6.82815e-08
-2.22227e-06
6.37983e-08
-2.23369e-06
5.91944e-08
-2.24404e-06
5.44736e-08
-2.25327e-06
4.96399e-08
-2.26138e-06
4.46977e-08
-2.26834e-06
3.96522e-08
-2.27413e-06
3.45087e-08
-2.27872e-06
2.92731e-08
-2.28212e-06
2.39517e-08
-2.2843e-06
1.85518e-08
-2.28526e-06
1.30822e-08
-2.28498e-06
7.55363e-09
-2.28345e-06
1.97887e-09
-2.28065e-06
-3.63001e-09
-2.27654e-06
-9.26781e-09
-2.2711e-06
-1.49418e-08
-2.2643e-06
-2.06623e-08
-2.25613e-06
-2.64308e-08
-2.24657e-06
-3.22426e-08
-2.23563e-06
-3.80922e-08
-2.22328e-06
-4.39741e-08
-2.20952e-06
-4.98821e-08
-2.19435e-06
-5.58109e-08
-2.17775e-06
-6.17548e-08
-2.15973e-06
-6.77098e-08
-2.14028e-06
-7.3671e-08
-2.1194e-06
-7.96362e-08
-2.09708e-06
-8.5601e-08
-2.07334e-06
-9.15637e-08
-2.04816e-06
-9.75202e-08
-2.02155e-06
-1.03469e-07
-1.99351e-06
-1.09406e-07
-1.96405e-06
-1.15329e-07
-1.93316e-06
-1.21233e-07
-1.90085e-06
-1.27117e-07