/*--------------------------------*- C++ -*----------------------------------*\
  =========                 |
  \\      /  F ield         | OpenFOAM: The Open Source CFD Toolbox
   \\    /   O peration     | Website:  https://openfoam.org
    \\  /    A nd           | Version:  9
     \\/     M anipulation  |
\*---------------------------------------------------------------------------*/
FoamFile
{
    format      ascii;
    class       volScalarField;
    location    "34.45";
    object      p;
}
// * * * * * * * * * * * * * * * * * * * * * * * * * * * * * * * * * * * * * //

dimensions      [0 2 -2 0 0 0 0];

internalField   nonuniform List<scalar> 
918
(
23.4686
23.5754
0.953125
22.886
1.01747
23.0919
3.27186
13.7844
19.2419
2.93393
2.62539
14.408
20.6348
16.8762
12.9924
0.924783
14.0515
2.24588
18.4595
1.39838
12.9916
20.4473
21.5361
19.2836
14.1207
14.3714
18.5971
1.14539
0.107784
0.255038
0.979318
0.411056
0.147487
21.6287
22.3054
22.2437
15.4945
10.402
3.59707
3.80164
2.98233
2.80531
13.8271
13.927
5.86663
13.7633
13.759
16.6434
19.1099
19.2535
19.5467
19.3358
19.7221
5.97352
2.78509
2.60504
2.87601
2.95042
2.98284
2.69774
2.67925
2.48306
2.33714
13.8873
14.481
14.5362
14.2674
14.215
22.4514
21.6945
22.0292
21.1356
21.281
20.2109
19.8253
17.2519
17.6043
16.4781
16.0973
12.7828
12.744
13.2123
13.4622
0.145539
1.07578
1.22291
14.0584
14.0949
14.095
14.1094
8.28221
2.18773
2.19047
17.8999
17.4764
20.4813
20.7485
20.1955
20.01
1.53026
1.52625
1.15093
1.18161
0.950811
13.3329
13.4871
19.235
18.4019
14.1543
14.0543
14.1293
11.4994
13.9096
13.9829
15.3209
15.7765
14.9657
15.4022
18.1671
17.7491
19.0337
19.4709
0.393201
0.154559
0.687431
0.318185
0.516495
15.3628
15.1574
15.6104
15.6612
15.8924
10.4068
10.3375
10.3808
10.3007
4.14896
4.46357
2.25468
2.56924
2.42012
9.86537
13.9433
13.9901
4.81052
5.51489
5.1782
6.34937
6.72377
16.0091
16.4457
16.1844
17.7307
16.9356
17.2838
19.8129
19.3021
19.6026
6.36802
6.60242
5.60768
5.24898
2.23796
2.48755
2.42958
2.98181
2.95987
3.21751
3.34591
2.69828
2.55488
2.8933
2.77672
2.82881
2.16639
2.03656
13.6114
13.3974
14.1503
14.3289
15.0961
14.9478
14.6544
14.8232
19.0204
19.4239
19.4574
19.0732
11.5445
10.1551
13.7167
13.9922
0.30217
0.264659
0.138287
0.38076
0.400814
0.142782
2.01544
1.8269
1.40528
1.68061
14.056
14.0158
8.52281
8.74244
8.11868
7.86253
16.314
16.4643
17.0984
16.6982
1.96292
1.67668
1.80652
13.6502
13.5226
13.6295
10.9345
10.3679
11.9772
12.2469
13.991
14.0348
14.0308
15.6806
15.9991
19.8218
20.0924
19.9193
20.3051
21.3679
21.0192
20.6344
14.5386
14.947
14.7854
16.1277
15.7613
15.9808
15.1887
15.4934
15.3513
10.3691
10.4154
10.119
10.1968
10.2454
10.1925
9.80258
9.67561
14.0768
14.0318
14.0559
7.25185
7.74991
4.86879
4.53999
12.5432
13.2165
12.892
18.6502
17.9725
18.7055
18.3346
17.8846
18.2082
10.4262
10.3879
10.4212
14.9165
14.2544
14.6063
2.44098
2.07679
2.23992
8.93841
9.03182
6.97046
7.58705
7.25017
16.3007
16.641
17.3212
16.4329
16.9006
17.4079
17.186
9.93862
10.0714
9.98831
9.65902
9.55258
9.73465
8.33517
8.94849
3.61249
4.26887
3.96488
9.1998
9.42977
9.27703
18.6296
19.1644
0.76589
1.15332
19.5945
19.3182
0.138897
0.241723
14.2529
12.5505
7.2621
17.1969
16.6294
18.9693
3.19216
6.10227
2.81014
3.38056
2.6863
14.6151
14.249
13.3401
0.452954
1.25627
1.70973
2.89565
18.41
17.7349
18.851
19.1711
19.2255
0.687553
0.912897
0.584178
1.24283
1.03142
1.27641
15.5505
15.6486
4.32307
18.858
19.1623
19.18
17.6568
18.6094
17.6669
0.935311
0.642217
0.707225
10.0802
12.1211
14.2131
13.7657
13.9627
13.9848
13.7357
14.869
14.5385
14.5034
14.9883
13.9658
13.8205
7.73391
6.38279
8.06836
7.70872
17.0982
16.6861
16.493
16.2387
18.0844
17.6105
18.4609
17.8493
18.3111
18.598
2.94326
3.13295
3.01166
2.52027
6.14306
6.60563
5.48785
5.63327
4.2591
2.42921
2.52766
2.75364
2.58436
2.93126
2.67891
2.94283
2.57917
2.32352
2.32171
2.93103
2.73896
2.60448
14.5935
14.5319
14.3328
14.3708
14.3533
14.469
13.5346
13.9393
13.5671
12.3982
12.9793
12.5066
0.825404
0.662943
0.524866
1.32377
1.35082
1.11113
0.834793
1.17394
1.20207
0.814613
1.54567
1.44558
3.1551
2.64358
8.83968
7.96741
6.90082
16.8
17.6019
16.7715
18.0123
18.4292
18.5346
18.155
17.6468
15.7293
15.7244
15.3846
15.338
4.77048
3.73111
4.96653
4.53561
10.4773
14.0649
11.8421
10.8033
11.0997
13.4238
13.9283
13.5806
13.7176
13.2927
12.8208
13.5127
13.0465
13.1478
12.9268
15.7173
16.1924
15.7989
15.2194
15.2394
10.5983
12.015
5.46506
5.63905
7.24364
6.53746
13.5093
13.9323
13.917
13.5554
13.7432
13.7443
13.6051
13.7793
13.8592
13.7538
11.824
10.1434
9.04471
9.03829
14.0762
12.3456
12.9299
12.4133
16.12
16.6364
16.2512
15.6456
16.1306
15.6024
15.6297
15.8429
17.201
16.9506
16.7204
17.1072
3.05471
3.00347
3.64702
3.13297
3.03617
2.81916
3.4835
4.75802
4.41575
6.71804
7.26879
4.57976
3.3724
3.79264
4.8077
5.54105
5.51083
3.96915
4.50091
4.92993
4.44041
5.22397
4.72852
2.71786
3.0253
2.8634
2.83716
3.3818
3.88009
3.37566
2.48074
2.59286
2.25713
2.1194
3.53621
2.99624
3.03312
3.67875
1.10628
1.32858
1.44095
2.41405
1.91319
1.97895
15.1821
14.8262
14.9598
14.239
14.3065
14.2476
13.872
15.2395
14.9615
15.0609
13.7094
13.7962
13.6094
13.9048
14.3208
14.62
15.4518
15.173
14.412
14.563
14.2139
14.1422
13.4642
12.9012
12.8407
1.11235
0.824465
0.984088
0.911039
0.60623
0.798616
2.18315
1.57273
1.97058
1.72629
1.95961
1.40384
1.3024
4.25279
5.06374
3.96333
3.3648
3.06171
8.89812
9.00964
8.15831
7.85636
8.1979
8.42654
8.37626
7.13415
7.56114
7.37419
9.91503
9.57933
17.5862
17.5303
17.2015
17.0426
17.2691
5.76204
7.66487
6.79871
7.91486
10.2062
10.5018
9.31049
8.70465
9.45595
9.53389
14.0465
14.1227
13.5636
14.0494
14.0779
11.8346
12.8819
13.4967
13.3112
13.831
13.9119
12.9729
13.5616
13.477
12.7596
12.8126
12.1274
12.4659
11.994
11.793
14.0556
13.9503
14.2201
13.7709
14.1502
13.7145
14.0298
14.0277
14.3083
13.4103
12.8316
12.85
13.2763
12.9765
13.3224
13.4865
9.30809
9.94817
10.3869
10.9226
10.6299
10.4119
10.2791
10.5809
10.5577
10.829
10.7483
10.5992
11.5601
13.4154
13.7004
13.8018
13.599
13.6451
13.3377
13.6105
13.5398
13.9192
14.007
14.0567
13.1374
13.2934
13.4882
13.372
11.6747
10.0966
9.94879
9.5088
7.57641
8.0461
11.025
9.90185
8.91705
8.989
12.1681
10.8055
11.6189
12.042
10.6936
10.3056
12.9708
13.7588
13.9787
13.703
12.0598
12.1856
12.6353
13.0785
13.2677
13.7234
15.8598
16.4355
16.5133
16.2374
16.0994
16.1993
15.9494
16.0524
16.5265
16.6531
16.4843
2.88019
2.99387
2.92384
2.8492
3.0856
2.86118
3.95632
3.94725
3.15664
3.33688
3.35678
3.46222
2.93129
2.97438
4.82628
5.06191
5.33358
4.83205
6.17524
6.81609
7.39738
7.083
5.78962
5.8689
6.18416
3.50749
3.53333
3.25167
3.70925
3.76191
2.61176
2.23924
2.04433
2.56556
2.66665
2.05154
1.76865
1.81788
2.33222
2.0511
1.80506
14.9745
14.7329
14.7542
14.5341
14.5887
14.9835
15.2043
15.0144
15.1528
15.2038
14.803
14.6919
14.863
1.81872
1.49342
1.62281
1.58105
1.64342
1.5499
1.7381
7.60536
6.4155
6.80296
5.97835
4.12031
4.64123
9.53842
9.95984
9.99832
9.70946
9.49941
9.86518
9.71596
9.70869
8.263
9.33165
8.8676
9.26034
9.28175
9.34947
9.06414
9.08035
10.584
10.6176
9.48258
10.1222
9.33094
7.93174
8.09874
9.11241
10.086
10.4042
10.2493
9.97938
9.75078
10.1138
10.1685
10.2286
10.2178
8.75138
8.71128
8.31072
13.9682
13.8748
14.0213
14.0265
14.1533
13.9783
13.8154
14.0925
14.1468
13.9311
11.0771
11.136
11.3818
12.1285
12.1805
12.0914
11.3361
13.1002
12.7558
13.3937
13.3405
13.4129
13.0032
12.8264
13.0967
10.0804
11.4533
10.9862
11.2494
10.0628
9.30638
13.223
13.2771
13.3425
13.6155
13.5735
14.1569
15.8297
15.6997
15.747
15.79
15.4017
15.4389
4.1754
3.82929
4.55095
4.50643
4.06456
3.76464
2.28663
1.96875
1.78094
1.65617
1.88943
1.95053
8.16221
8.18924
6.33367
7.35517
5.87594
4.93416
4.78955
5.9553
7.13656
7.19541
8.513
9.18905
8.74821
8.57345
7.9178
8.24736
10.1156
10.21
10.1105
10.4294
9.96217
11.7119
11.294
11.6429
13.2568
12.9665
12.3684
12.255
12.2198
12.8129
11.9472
11.1789
11.8913
12.5467
12.505
11.1175
10.8725
11.2992
11.2833
10.1974
10.7175
10.4795
10.832
10.5474
)
;

boundaryField
{
    wall-4
    {
        type            zeroGradient;
    }
    velocity-inlet-5
    {
        type            zeroGradient;
    }
    velocity-inlet-6
    {
        type            zeroGradient;
    }
    pressure-outlet-7
    {
        type            fixedValue;
        value           uniform 0;
    }
    wall-8
    {
        type            zeroGradient;
    }
    frontAndBackPlanes
    {
        type            empty;
    }
}


// ************************************************************************* //
