/*--------------------------------*- C++ -*----------------------------------*\
  =========                 |
  \\      /  F ield         | OpenFOAM: The Open Source CFD Toolbox
   \\    /   O peration     | Website:  https://openfoam.org
    \\  /    A nd           | Version:  9
     \\/     M anipulation  |
\*---------------------------------------------------------------------------*/
FoamFile
{
    format      ascii;
    class       surfaceScalarField;
    location    "12";
    object      phi;
}
// * * * * * * * * * * * * * * * * * * * * * * * * * * * * * * * * * * * * * //

dimensions      [0 3 -1 0 0 0 0];

internalField   nonuniform List<scalar> 
1300
(
11.2529
1.87548
-4.42534
11.2529
-4.86944
1.87548
-4.1863
4.1863
-1.2198
1.2198
5.71235
5.54051
-2.41807
2.41807
-2.91119
2.91119
-2.8686
2.8686
-1.06194
1.06194
-1.0283
1.0283
0.70056
-0.70056
-3.32254
3.32254
-1.48171
1.48171
-2.92002
2.92002
6.12829
-6.12829
-3.39966
3.39966
-0.762605
0.762605
-4.26328
15.5161
6.98958
6.98958
-2.38596
2.38596
-1.2551
1.2551
1.41034
-1.41034
9.5187
-9.5187
-5.09336
-6.09167
1.86895
-13.6701
-3.00049
-3.00049
-2.7054
2.7054
-0.829928
1.04555
3.47467
-3.47467
-0.777202
0.777202
-4.25863
0.0723261
-4.25863
3.98728
0.199016
3.98728
-1.36279
0.142993
-1.36279
4.59715
-4.59715
1.10738
0.112416
1.10738
3.92744
-3.92744
-5.71001
11.4224
5.54285
-5.32059
20.8367
-5.93227
11.4728
-3.90698
3.90698
-2.3277
-0.0903761
-2.3277
2.43491
-0.0168313
2.43491
-3.94269
3.94269
-2.68963
-0.221567
-2.68963
3.02934
-0.118147
3.02934
3.65794
-3.65794
-2.92249
0.0538892
-2.92249
2.71836
0.150244
2.71836
0.771042
1.10443
-2.64652
3.69207
-1.10443
0.0424987
1.02614
0.0357985
1.02614
-1.01454
-0.0137563
-1.01454
1.04997
-0.0216724
1.04997
0.742468
-0.0419083
0.742468
-0.758384
0.0578243
-0.758384
-8.52274
-8.85307
-3.4499
0.127362
-3.4499
-1.49537
0.0136533
-1.49537
1.52225
-0.0405314
1.52225
-2.56762
2.56762
-3.24551
0.325494
-3.24551
4.80674
1.32155
4.80674
5.04616
6.2067
16.299
-16.299
10.1707
-3.11013
-0.289525
-3.11013
-3.5877
-5.93101
3.5877
-0.188037
-0.828486
0.0658803
-0.828486
5.62637
1.36321
5.62637
2.59882
0.119535
-2.59882
0.212864
4.59587
-4.59587
1.43305
0.952913
1.43305
-1.19116
1.19116
1.1238
-0.0738285
-1.1238
-0.131298
1.386
0.0243368
1.386
-1.40975
-0.000595085
-1.40975
7.49834
-13.59
-7.90337
3.13788
0.184658
-3.13788
0.13739
3.56036
-0.085688
3.56036
-3.31182
3.31182
-3.60941
0.134737
-3.60941
-0.699479
-0.0777236
-0.699479
0.864999
-0.0877966
0.864999
-4.49651
0.237886
-4.49651
-3.66893
0.423415
3.66893
0.318359
1.28462
-1.28462
-1.46931
0.10652
-1.46931
-4.57736
0.0808434
4.57736
0.0197964
-4.69568
0.098529
-4.69568
-3.71146
0.102057
3.71146
0.215978
4.58894
1.03744
-4.58894
0.661497
-5.36953
11.5762
-5.88333
11.4262
-3.54215
-0.364825
-3.54215
4.08158
-0.1746
4.08158
2.5974
0.322622
-2.5974
0.269698
2.57188
-0.136973
2.57188
-3.90173
-0.0409617
-3.90173
3.7415
0.201194
3.7415
2.62117
-0.0492881
-2.62117
-0.0684588
3.02049
0.00885071
3.02049
3.66136
-0.00341793
3.66136
-3.53344
-0.124498
-3.53344
3.1829
-3.1829
3.08577
0.0971345
-3.08577
0.163276
-5.07402
5.07343
-0.0079992
-5.06602
1.01814
1.01814
0.787563
-0.0450942
0.787563
-0.86237
0.103986
-0.86237
8.39211
-16.2955
8.76897
-17.2917
7.35718
-21.0273
7.94802
-16.8011
3.74072
-3.74072
3.66743
0.073293
-3.66742
0.217526
-1.47254
-0.0228293
-1.47254
-2.33083
-0.236782
-2.33083
2.90025
-0.332638
2.90025
-3.74319
3.74319
-4.12544
0.382253
4.12544
0.681297
3.08961
-0.0691245
-3.08961
-0.0205192
0.952246
0.155137
-0.952246
0.12376
4.82198
-0.226108
4.82198
-4.06343
-0.532442
-4.06343
-1.48726
0.0147211
1.48726
-0.054211
-1.25882
0.0676523
-1.25882
-5.0745
0.00847747
-5.0387
-1.40127
-1.40127
1.30414
4.9962
-3.58105
0.0476143
3.58105
-0.0206983
3.5286
0.214585
-3.5286
0.216788
-3.26628
0.0833773
3.26628
0.045536
-0.676371
-0.0231083
-0.676371
-1.06171
1.06171
-0.942349
-0.11936
0.942349
-0.0773498
1.4423
-0.157675
1.4423
1.50211
0.0201384
-1.50211
0.032796
-4.94094
0.245254
-4.94094
4.0808
0.000778005
4.0808
-3.93341
-0.130019
3.93341
-0.272052
-0.00372155
5.07715
-1.01442
-0.000126981
1.01442
-5.10149
5.10136
-0.681679
0.00530815
0.681679
0.105884
1.02927
0.161892
-1.02927
0.1669
3.77238
-0.0308789
-3.77238
0.0316581
-2.04776
-0.283077
-2.04776
-3.22058
-0.321572
3.22058
-0.320327
-5.11508
-0.0780376
5.19312
-5.13675
1.33685
0.0491507
-1.33685
5.15051
-1.1745
-0.110126
1.1745
-0.112789
1.64471
-0.202408
1.64471
5.06341
-0.241428
-5.06341
0.12247
-4.08173
0.179997
4.08173
-0.000926799
-1.81653
-0.231224
1.81653
-0.171825
-13.1279
14.4911
7.70886
-6.47882
-7.1112
-12.4098
4.44733
7.12891
14.6181
-11.4856
-9.54165
-11.3483
2.8608
-2.6939
-3.7778
3.73589
23.3169
-23.2184
-18.4003
19.0816
20.7754
-20.5594
5.70847
5.71389
15.9386
-16.029
-20.9566
20.5918
15.7274
-15.9489
21.8257
-21.8667
-25.4269
25.396
-16.1252
16.179
-20.2701
20.1456
-21.0124
20.7404
-8.29024
-9.00147
16.1053
-15.9779
20.6344
-20.9239
-19.2568
19.5823
10.0471
4.44395
11.0846
-6.24691
11.9554
-5.22587
12.9347
8.38064
-16.6709
7.91485
-15.026
9.44728
11.1871
-9.25925
-3.15058
-17.9625
17.8768
-17.265
17.3106
23.7706
-23.6983
-6.17265
11.8865
-5.25352
12.3824
-11.4092
-6.99111
10.0876
4.53043
8.73803
7.36729
-8.92268
-2.42557
-24.6517
24.4103
-25.5728
25.0403
0.0946218
2.42902
-2.52364
1.34972
-0.855888
3.28491
2.00491
2.1089
2.45225
-2.29036
0.241647
-2.76529
-2.89658
-5.47354
5.58006
5.30337
-5.19096
16.3121
7.00476
16.3319
-16.5744
-6.64399
-16.3291
11.3651
7.71644
11.7474
12.0592
8.71623
12.1612
10.3598
-10.3312
-0.0285759
-11.4771
21.8369
1.55535
-18.4682
-13.9378
8.96464
6.97393
8.94781
-9.91917
-6.10979
-9.64947
-11.102
-9.85461
-11.4236
12.3298
8.26198
12.1552
-15.2293
15.2284
9.55695
6.17042
9.4388
-9.16031
-6.78862
-9.22877
27.247
-6.53939
-20.7076
-13.0057
-12.4211
12.8045
9.02118
14.0661
11.33
14.0977
8.77259
18.4744
-17.7938
5.37262
-9.96165
-6.16351
-9.79837
9.28644
6.89261
9.43668
-11.7567
-8.51345
-11.709
-11.9674
-9.04499
11.9708
8.17477
-12.4986
-13.0742
12.6286
8.1118
7.70928
-17.2509
9.09181
-18.0933
-10.7006
-5.27734
-10.4831
10.8168
6.56212
-17.3789
-5.85408
24.0307
-12.8436
20.8801
-11.2808
-9.64316
-11.3013
-14.6444
-4.61241
-14.221
-8.13289
7.84981
-8.94564
8.613
26.9229
-16.1227
-10.8002
-12.3777
-8.18174
11.7162
-0.631624
-12.8363
12.8077
-0.880864
12.0539
16.4978
15.8662
-10.8836
-6.38145
-10.6668
10.2783
7.03222
10.3617
15.8786
7.892
16.0776
-16.552
-7.14628
-16.3141
4.97052
-5.04824
5.7707
-5.75598
15.5006
9.53975
-15.2745
-9.37722
23.0064
-10.7892
-12.2172
-5.14128
5.28949
-0.148206
-1.85638
-0.506655
0.255951
-1.94488
-1.83292
1.88706
0.221839
5.51133
3.67841
-2.41405
2.48171
2.77907
2.70524
-0.191347
2.56213
-2.55682
19.1347
-11.5595
-7.57517
13.7463
-13.6655
-2.56776
-19.1318
16.564
2.66643
3.10618
-3.0403
-4.03476
-1.43877
-4.00197
3.04571
2.25767
3.20084
2.14682
3.43323
-8.28456
1.61473
6.66983
-6.13774
-3.57623
-13.3572
-6.33267
19.6899
16.5358
7.87443
-16.6583
0.329196
5.38323
-5.42376
-1.54653
-11.8107
8.50874
-10.0553
-15.2791
-6.41249
21.6916
-9.58251
-1.08427
9.36792
2.37947
-10.8741
-7.08833
10.7394
1.42183
-12.0627
23.9731
-11.9104
-18.4442
8.51722
13.3196
16.2337
-17.863
9.31692
8.54606
-4.54334
7.55896
1.38885
7.42198
-19.8615
13.7517
11.3055
8.27676
-11.6282
1.97869
-17.8828
25.0919
-22.1198
-2.97212
12.8744
12.2176
13.5546
13.3683
-7.90962
21.4642
-3.47424
-18.6456
21.3571
-13.0803
15.5964
-28.6767
-28.9647
10.3192
-17.9788
21.9478
-3.96896
-5.13106
-10.0983
23.1099
-2.05772
-21.0522
10.0975
-13.9872
-11.8837
25.8708
-20.5266
18.6723
-6.3825
-12.2898
-12.5624
-9.30431
12.3824
2.846
-25.6185
30.9911
-7.14414
8.07137
1.36743
8.08022
10.6367
-15.8548
5.21808
9.88983
-16.2723
6.87527
-22.7301
-11.994
23.8404
-11.8463
-17.2714
-15.5714
-1.69997
4.76748
26.2237
-16.0974
11.8835
4.21396
8.47197
1.88974
-8.5691
-1.22927
0.985007
16.1254
-17.1104
10.4217
10.5412
11.7708
4.35461
10.7629
7.11387
-10.7422
-0.966851
-14.7767
5.73174
-6.60196
-14.542
20.2738
-16.2623
1.72024
-10.3
-14.0074
24.3074
-16.4635
11.4327
12.5404
18.465
-19.6159
5.60846
-9.75596
-9.85991
10.6538
-17.2558
7.47407
12.7997
15.5859
2.51163
12.6315
11.2089
-19.1936
1.10034
18.5762
-16.1506
3.85911
10.2386
-15.7426
0.171176
-10.3119
2.61125
-15.4548
-14.7677
16.3224
-20.9348
-12.3544
13.3959
2.68165
-13.7143
-0.506662
-5.05539
-3.0775
-5.28661
-3.30605
-5.63959
-11.2157
-1.97344
-9.24224
5.87637
-6.76939
-4.65418
7.08972
1.52328
-5.06427
4.95415
-5.71253
5.51013
-0.211038
13.0187
15.6552
7.47342
-8.47537
15.9488
-15.4876
23.3796
-29.5212
14.0337
15.8097
-22.9559
-13.7116
2.77465
2.19587
2.68685
13.6685
-14.6584
0.989926
-13.5078
17.8045
-4.2967
-19.9411
6.43331
-6.27266
5.25432
0.516385
5.23149
1.44186
6.8784
-8.32026
-4.31412
-4.36833
-9.11866
-13.8345
22.9532
4.81117
-13.1181
8.30698
-12.1454
16.9566
0.139904
-13.258
17.0947
-10.2163
17.6111
-12.0055
5.60561
12.7901
22.3767
-9.58662
16.2044
-6.66461
7.00739
-16.594
-6.82714
-11.3108
18.2034
-12.9967
14.7169
-1.09292
15.8098
-13.8286
3.03939
-2.0578
8.48343
8.69629
16.8092
-12.4546
12.002
-18.6666
-4.59201
-16.155
-3.35527
1.03455
-13.9114
12.8768
12.2315
-11.1969
-3.31705
9.19066
-5.87361
5.82627
-2.91307
-2.91321
-1.89499
-3.15325
1.9181
0.644028
6.4703
0.504428
-3.41749
-2.05239
-1.94651
10.4581
8.67655
-3.95512
3.80691
3.69917
-0.592989
0.986337
2.21451
4.72521
-3.73887
0.702034
4.02318
-2.33827
3.90505
1.47818
-3.92519
-0.0767786
-3.44855
11.9573
3.22128
-5.47895
1.74007
2.36213
-13.9216
19.6567
-11.3691
-8.28759
22.0188
3.01914
-14.3882
16.1126
-13.4462
8.03005
-14.3627
-6.35816
-19.8044
-12.7996
-10.7485
19.0555
-12.2047
20.0791
3.77637
-20.4083
24.1847
-12.8035
6.39097
-9.58009
11.0583
-4.15309
-5.427
11.325
10.3666
-11.0657
-0.744995
0.259322
8.53374
-8.27442
-1.52153
-7.65927
-16.406
17.8278
-8.25907
17.576
7.68973
-7.63077
25.2068
6.56828
-14.199
-11.8759
-12.9601
-5.65298
10.5807
-1.85206
-7.37671
-14.1419
7.426
-0.00401854
-19.0801
22.1541
-3.07393
-12.1062
-1.64553
14.5199
-18.1774
1.90507
-11.3021
10.8519
12.2408
12.2368
-20.8366
-0.215591
-12.5746
3.25113
-15.8257
15.4687
-6.88747
17.2066
-16.1
11.4458
-14.5767
14.2345
-1.5912
14.6122
-9.39407
6.09541
-15.3997
-12.5537
14.6503
-8.47992
16.0178
-10.2468
26.2646
-17.3909
14.7269
11.5376
-2.8235
-8.47778
-14.2603
11.4368
0.466681
8.5469
17.8281
-10.7142
16.8613
8.90796
-18.6639
-8.34781
-25.8619
7.19803
-13.3216
-7.35259
14.5506
11.1124
13.0021
4.69071
-11.7728
17.6587
-19.3587
-5.81236
-8.95532
14.8589
-3.42211
10.2391
-19.1944
-5.2157
13.1566
-0.253591
-12.903
2.96616
-15.3205
5.15823
-20.4788
15.7765
-16.2832
1.81549
-8.08815
-3.24878
-3.36157
-2.2161
-3.49643
-7.73335
5.51725
-1.30004
3.65411
-12.6691
12.4155
-5.13548
10.6527
-4.15086
-1.13575
4.32269
1.18744
11.8402
3.03148
-16.7431
-9.34192
14.7684
-5.42649
1.11619
-10.8799
3.88852
8.0367
13.9821
-24.6007
1.64477
-15.0983
-4.17217
6.36804
5.01849
17.25
2.59154
6.71929
-0.351251
9.31083
2.3356
2.25825
-11.269
12.2589
1.60783
15.6415
-1.89232
7.49794
3.33917
3.35282
2.07094
5.7538
2.94249
8.79319
0.472929
-3.8954
2.10678
-4.05328
-1.31072
-4.09838
-0.362488
3.79237
-4.15485
10.6645
-1.98796
5.23802
-1.96142
-5.07161
7.03303
-9.53659
-5.6646
-1.64142
-5.73623
7.4763
6.22106
-5.83488
-3.70171
2.42644
-15.226
11.9363
-12.6813
-2.31468
21.87
-9.57924
1.30483
-3.18827
-6.35445
-7.79322
7.87
24.1912
1.01554
12.2808
18.8433
11.755
1.04075
12.0816
-16.0506
-10.6485
-16.2662
-0.797454
13.7224
5.67837
20.5453
17.216
13.7939
-5.40057
-24.7592
20.7192
-8.46028
16.4225
-3.51952
-16.9592
14.5071
8.87249
-17.1887
0.905526
-16.0537
-24.514
-0.377048
12.7925
-11.4631
10.3274
7.24987
1.99237
-2.48929
-0.872283
2.60865
-0.350395
8.96043
-0.174198
-8.37554
8.54974
-3.61817
2.30745
-0.500481
4.3074
6.53255
4.54459
-3.83095
-7.9858
-8.88515
-5.03647
-17.1727
2.51713
-8.73818
5.81324
-3.50579
2.90003
5.04395
10.282
-1.62396
-9.57295
7.49757
-4.59754
5.68443
)
;

boundaryField
{
    wall-4
    {
        type            calculated;
        value           uniform 0;
    }
    velocity-inlet-5
    {
        type            calculated;
        value           uniform -11.2529;
    }
    velocity-inlet-6
    {
        type            calculated;
        value           uniform -1.87548;
    }
    pressure-outlet-7
    {
        type            calculated;
        value           nonuniform List<scalar> 8(4.42534 4.86944 11.185 11.8012 17.3758 15.4017 17.1611 15.3052);
    }
    wall-8
    {
        type            calculated;
        value           uniform 0;
    }
    frontAndBackPlanes
    {
        type            empty;
        value           nonuniform List<scalar> 0();
    }
}


// ************************************************************************* //
