/*--------------------------------*- C++ -*----------------------------------*\
  =========                 |
  \\      /  F ield         | OpenFOAM: The Open Source CFD Toolbox
   \\    /   O peration     | Website:  https://openfoam.org
    \\  /    A nd           | Version:  9
     \\/     M anipulation  |
\*---------------------------------------------------------------------------*/
FoamFile
{
    format      ascii;
    class       volScalarField;
    location    "24.4";
    object      p;
}
// * * * * * * * * * * * * * * * * * * * * * * * * * * * * * * * * * * * * * //

dimensions      [0 2 -2 0 0 0 0];

internalField   nonuniform List<scalar> 
918
(
23.4699
23.5778
0.955674
22.8873
1.01446
23.0942
3.27567
13.7863
19.2431
2.93419
2.62348
14.4092
20.6372
16.8786
12.9948
0.924678
14.0529
2.24968
18.4608
1.39837
12.9939
20.4486
21.5373
19.2848
14.122
14.3737
18.5995
1.14684
0.108597
0.256335
0.978281
0.409792
0.147676
21.6311
22.3078
22.2461
15.4957
10.4045
3.6004
3.80474
2.9861
2.80942
13.8289
13.9288
5.8689
13.7652
13.761
16.6446
19.1111
19.2547
19.548
19.337
19.7233
5.97663
2.78582
2.60648
2.87551
2.94945
2.98234
2.69589
2.67752
2.48124
2.33529
13.8886
14.4822
14.5374
14.2686
14.2162
22.4538
21.6969
22.0316
21.138
21.2834
20.2133
19.8277
17.2543
17.6067
16.4805
16.0997
12.7852
12.7464
13.2148
13.4646
0.145475
1.07533
1.22293
14.0599
14.0963
14.0964
14.1109
8.28722
2.19142
2.19452
17.9011
17.4776
20.4825
20.7497
20.1967
20.0112
1.53045
1.52585
1.15183
1.18177
0.950795
13.3351
13.4892
19.2362
18.4032
14.1555
14.0556
14.1305
11.5008
13.9109
13.9842
15.3233
15.7788
14.9681
15.4046
18.1695
17.7515
19.0361
19.4733
0.393654
0.155065
0.687256
0.317993
0.516502
15.364
15.1586
15.6116
15.6624
15.8936
10.4092
10.3397
10.3834
10.3033
4.1518
4.46635
2.2587
2.57348
2.42445
9.86887
13.945
13.9918
4.81314
5.51727
5.18075
6.35141
6.72572
16.0103
16.4469
16.1856
17.732
16.9369
17.285
19.8141
19.3034
19.6038
6.37186
6.6064
5.61086
5.25191
2.2411
2.48962
2.43217
2.98057
2.95835
3.21747
3.34635
2.69797
2.55479
2.89166
2.77502
2.82707
2.16496
2.03523
13.6126
13.3987
14.1516
14.3301
15.0973
14.949
14.6556
14.8244
19.0228
19.4263
19.4598
19.0756
11.5468
10.157
13.7191
13.9946
0.302111
0.264805
0.138179
0.380907
0.400316
0.142005
2.01503
1.82658
1.40523
1.68077
14.0574
14.0172
8.52781
8.74733
8.12387
7.86753
16.3153
16.4655
17.0996
16.6994
1.96203
1.67603
1.80574
13.6521
13.5246
13.6315
10.9358
10.3693
11.9785
12.2482
13.9924
14.0362
14.0321
15.683
16.0014
19.8242
20.0948
19.9217
20.3075
21.3703
21.0216
20.6368
14.5399
14.9483
14.7867
16.1289
15.7626
15.982
15.1899
15.4946
15.3525
10.3713
10.4176
10.122
10.1998
10.2481
10.1952
9.80624
9.67934
14.0783
14.0334
14.0574
7.25367
7.75167
4.87125
4.54222
12.5445
13.2177
12.8933
18.6525
17.9749
18.7079
18.337
17.887
18.2105
10.4283
10.3899
10.4233
14.9189
14.2568
14.6087
2.44006
2.07575
2.23861
8.94331
9.03644
6.97484
7.59186
7.25474
16.3031
16.6434
17.3236
16.4353
16.903
17.4103
17.1884
9.94203
10.0746
9.99158
9.66304
9.55668
9.73612
8.33682
8.95007
3.61304
4.27054
3.96593
9.20435
9.43399
9.28131
18.6309
19.1657
0.76645
1.15428
19.5957
19.3194
0.140037
0.242384
14.2553
12.5528
7.26401
17.1981
16.6307
18.9705
3.19282
6.10414
2.80744
3.38094
2.68659
14.6163
14.2503
13.3414
0.453421
1.25698
1.70825
2.89948
18.4113
17.7361
18.8522
19.1723
19.2267
0.687854
0.913268
0.584149
1.24172
1.03075
1.27534
15.5517
15.6499
4.32614
18.8592
19.1635
19.1812
17.658
18.6107
17.6682
0.935863
0.642912
0.707879
10.0816
12.1224
14.2155
13.7681
13.9651
13.9872
13.7381
14.8714
14.5409
14.5058
14.9906
13.9675
13.8223
7.73553
6.38473
8.07009
7.7104
17.0994
16.6873
16.4942
16.2399
18.0857
17.6117
18.4621
17.8505
18.3124
18.5992
2.94238
3.13231
3.01284
2.52201
6.14448
6.60911
5.48937
5.63601
4.26059
2.4263
2.52521
2.75173
2.58269
2.93113
2.67897
2.94311
2.57922
2.32398
2.32123
2.93048
2.7381
2.60397
14.5947
14.5331
14.334
14.3721
14.3545
14.4702
13.5359
13.9406
13.5683
12.3995
12.9806
12.5079
0.826293
0.663058
0.525235
1.32448
1.3517
1.11053
0.834617
1.17375
1.20166
0.813905
1.54453
1.44462
3.15804
2.64709
8.84411
7.97236
6.90152
16.8013
17.6031
16.7728
18.0135
18.4304
18.5358
18.1562
17.6481
15.7305
15.7256
15.3858
15.3392
4.77254
3.73434
4.96886
4.53797
10.4796
14.0662
11.8435
10.8047
11.101
13.425
13.9307
13.583
13.72
13.295
12.8232
13.5151
13.0489
13.1502
12.9291
15.7196
16.1948
15.8013
15.2218
15.2418
10.6004
12.0166
5.46725
5.6411
7.24496
6.53912
13.5114
13.9339
13.9186
13.5573
13.7451
13.746
13.6068
13.7809
13.861
13.7555
11.8252
10.1448
9.04622
9.03982
14.0777
12.347
12.9313
12.4144
16.1212
16.6377
16.2524
15.6468
16.1319
15.6037
15.6309
15.8441
17.2023
16.9519
16.7216
17.1085
3.05356
3.0021
3.64644
3.13492
3.03734
2.82166
3.48408
4.75837
4.41598
6.71944
7.26937
4.5799
3.37298
3.79273
4.80738
5.54184
5.51239
3.96964
4.5024
4.93025
4.44115
5.22658
4.73081
2.71737
3.02356
2.8617
2.83543
3.38215
3.88094
3.37623
2.47966
2.59072
2.25488
2.1175
3.53495
2.99341
3.03003
3.6777
1.10714
1.32928
1.44151
2.41335
1.91262
1.97889
15.1833
14.8274
14.961
14.2402
14.3077
14.2488
13.8732
15.2407
14.9628
15.0622
13.7107
13.7974
13.6107
13.906
14.322
14.6212
15.4531
15.1742
14.4133
14.5643
14.2152
14.1435
13.4655
12.9025
12.8419
1.11292
0.824285
0.984017
0.91101
0.606844
0.79898
2.1835
1.57283
1.96997
1.7274
1.96036
1.40309
1.30223
4.25371
5.06276
3.96595
3.3673
3.0657
8.90212
9.01374
8.16259
7.85943
8.20105
8.43071
8.38062
7.13776
7.56566
7.37854
9.91824
9.58305
17.5875
17.5316
17.2028
17.0439
17.2703
5.76265
7.66571
6.80009
7.91645
10.2084
10.5043
9.31199
8.70648
9.45836
9.53592
14.0479
14.124
13.5649
14.0508
14.0792
11.8358
12.8831
13.4979
13.3124
13.8323
13.9132
12.9743
13.563
13.4782
12.7608
12.8138
12.1287
12.4672
11.9952
11.7943
14.0568
13.9516
14.2213
13.7722
14.1514
13.7157
14.031
14.029
14.3096
13.4115
12.8329
12.8513
13.2776
12.9777
13.3236
13.4877
9.30917
9.9497
10.3889
10.9247
10.6321
10.414
10.2812
10.5829
10.5599
10.831
10.7504
10.6012
11.5616
13.4177
13.7027
13.8042
13.6009
13.6471
13.3397
13.6127
13.5419
13.9206
14.0086
14.0582
13.1389
13.2951
13.49
13.3737
11.676
10.0974
9.94981
9.50978
7.57773
8.04751
11.026
9.90305
8.9185
8.99035
12.1694
10.8068
11.6201
12.0432
10.6948
10.3069
12.972
13.7602
13.9801
13.7042
12.061
12.1868
12.6365
13.0798
13.2691
13.725
15.861
16.4367
16.5146
16.2387
16.1007
16.2005
15.9506
16.0537
16.5278
16.6543
16.4856
2.87843
2.99197
2.92218
2.8476
3.08483
2.86004
3.95475
3.94509
3.155
3.33562
3.35569
3.46142
2.92946
2.9727
4.82613
5.06203
5.33371
4.83229
6.17517
6.81874
7.40055
7.08448
5.78956
5.86985
6.18595
3.50609
3.53361
3.25161
3.70869
3.76128
2.60986
2.23747
2.04265
2.562
2.66453
2.04927
1.76739
1.81633
2.33039
2.04952
1.80396
14.9758
14.7341
14.7555
14.5353
14.5899
14.9847
15.2056
15.0157
15.154
15.2051
14.8042
14.6931
14.8642
1.81804
1.49338
1.62231
1.57991
1.64293
1.54905
1.73661
7.6073
6.41586
6.80329
5.97917
4.12167
4.64234
9.5412
9.9629
10.0013
9.71301
9.50265
9.86834
9.71919
9.71211
8.26451
9.33449
8.8695
9.26443
9.2854
9.35342
9.06722
9.08149
10.5853
10.6188
9.48366
10.1236
9.33212
7.93292
8.09996
9.11352
10.0872
10.4065
10.2513
9.981
9.75239
10.1162
10.1709
10.2311
10.2204
8.7525
8.71212
8.31173
13.9696
13.8761
14.0227
14.0278
14.1548
13.9796
13.8166
14.0938
14.1481
13.9324
11.0791
11.1381
11.3839
12.1308
12.1828
12.0931
11.3378
13.1022
12.7577
13.3958
13.3425
13.4147
13.0048
12.8281
13.0986
10.0816
11.4544
10.9872
11.2506
10.0641
9.30778
13.2244
13.2785
13.3439
13.617
13.5748
14.1583
15.831
15.7009
15.7482
15.7912
15.4029
15.4402
4.17499
3.82843
4.54932
4.50548
4.06387
3.76395
2.2866
1.96844
1.78064
1.65529
1.88897
1.9498
8.16264
8.19047
6.33414
7.35627
5.87724
4.93589
4.79167
5.95576
7.13707
7.19641
8.51503
9.19236
8.75108
8.57668
7.92021
8.25035
10.1186
10.2127
10.1133
10.4322
9.96489
11.714
11.2961
11.645
13.2592
12.9687
12.3705
12.2571
12.222
12.8152
11.9483
11.1799
11.8925
12.5482
12.5064
11.1195
10.8745
11.3012
11.2851
10.1991
10.7194
10.4814
10.8338
10.549
)
;

boundaryField
{
    wall-4
    {
        type            zeroGradient;
    }
    velocity-inlet-5
    {
        type            zeroGradient;
    }
    velocity-inlet-6
    {
        type            zeroGradient;
    }
    pressure-outlet-7
    {
        type            fixedValue;
        value           uniform 0;
    }
    wall-8
    {
        type            zeroGradient;
    }
    frontAndBackPlanes
    {
        type            empty;
    }
}


// ************************************************************************* //
