/*--------------------------------*- C++ -*----------------------------------*\
  =========                 |
  \\      /  F ield         | OpenFOAM: The Open Source CFD Toolbox
   \\    /   O peration     | Website:  https://openfoam.org
    \\  /    A nd           | Version:  9
     \\/     M anipulation  |
\*---------------------------------------------------------------------------*/
FoamFile
{
    format      ascii;
    class       surfaceScalarField;
    location    "1.47";
    object      phi;
}
// * * * * * * * * * * * * * * * * * * * * * * * * * * * * * * * * * * * * * //

dimensions      [0 3 -1 0 0 0 0];

internalField   nonuniform List<scalar> 
4432
(
-1.4025e-06
1.4025e-06
-9.91834e-07
-4.10661e-07
3.69732e-07
-1.36157e-06
2.07482e-06
-1.70508e-06
3.91572e-06
-1.84091e-06
5.7737e-06
-1.85797e-06
7.58038e-06
-1.80668e-06
9.27184e-06
-1.69146e-06
1.07661e-05
-1.49424e-06
1.19979e-05
-1.23181e-06
1.29589e-05
-9.61001e-07
1.36746e-05
-7.15711e-07
1.41619e-05
-4.87316e-07
1.44087e-05
-2.46779e-07
1.43782e-05
3.04462e-08
1.39533e-05
4.2497e-07
1.27227e-05
1.2306e-06
1.08037e-05
1.91901e-06
8.28079e-06
2.52287e-06
5.27898e-06
3.00181e-06
1.90859e-06
3.37039e-06
-4.19079e-07
2.32767e-06
-4.19082e-07
-4.68788e-07
1.87128e-06
2.19907e-07
-1.09935e-06
1.39215e-06
-2.53383e-06
2.7912e-06
-3.10413e-06
4.27875e-06
-3.32846e-06
5.79527e-06
-3.37449e-06
7.29383e-06
-3.30524e-06
8.72157e-06
-3.1192e-06
1.00113e-05
-2.78395e-06
1.11132e-05
-2.33376e-06
1.20273e-05
-1.87504e-06
1.27858e-05
-1.47424e-06
1.34204e-05
-1.12188e-06
1.39368e-05
-7.63224e-07
1.42838e-05
-3.16579e-07
1.43368e-05
3.72024e-07
1.39507e-05
1.61668e-06
1.28661e-05
3.00359e-06
1.09599e-05
4.42906e-06
8.12563e-06
5.83608e-06
4.55819e-06
6.93783e-06
1.41051e-06
5.47534e-06
9.91427e-07
2.07174e-07
1.6641e-06
9.48868e-07
-1.84103e-06
1.94071e-06
-3.52568e-06
3.07592e-06
-4.23933e-06
4.29234e-06
-4.54488e-06
5.55672e-06
-4.63887e-06
6.83608e-06
-4.58459e-06
8.08623e-06
-4.36935e-06
9.24582e-06
-3.94355e-06
1.02714e-05
-3.35933e-06
1.117e-05
-2.77365e-06
1.19788e-05
-2.28308e-06
1.27294e-05
-1.87244e-06
1.34178e-05
-1.45162e-06
1.39803e-05
-8.79073e-07
1.43008e-05
5.1447e-08
1.43062e-05
1.61135e-06
1.37356e-05
3.57415e-06
1.23359e-05
5.82872e-06
9.91424e-06
8.25778e-06
6.60035e-06
1.02517e-05
2.99677e-06
9.07892e-06
3.98819e-06
6.25544e-07
1.03854e-06
1.39129e-06
-2.60676e-06
2.2214e-06
-4.3558e-06
3.13425e-06
-5.15217e-06
4.12583e-06
-5.53646e-06
5.18609e-06
-5.69913e-06
6.29533e-06
-5.69383e-06
7.41721e-06
-5.49123e-06
8.49061e-06
-5.01695e-06
9.47254e-06
-4.34127e-06
1.03771e-05
-3.6782e-06
1.12472e-05
-3.15323e-06
1.21138e-05
-2.739e-06
1.29669e-05
-2.30477e-06
1.37405e-05
-1.65264e-06
1.43323e-05
-5.40337e-07
1.46619e-05
1.28174e-06
1.44978e-05
3.73829e-06
1.35541e-05
6.77238e-06
1.15937e-05
1.02182e-05
8.58327e-06
1.32621e-05
4.63504e-06
1.30272e-05
8.62323e-06
8.58256e-07
1.80282e-07
1.6042e-06
-3.3527e-06
2.28506e-06
-5.03666e-06
3.00673e-06
-5.87383e-06
3.80765e-06
-6.33739e-06
4.6983e-06
-6.58978e-06
5.67297e-06
-6.66851e-06
6.70363e-06
-6.52189e-06
7.72454e-06
-6.03787e-06
8.68811e-06
-5.30484e-06
9.61599e-06
-4.60608e-06
1.05591e-05
-4.09632e-06
1.15487e-05
-3.72866e-06
1.25718e-05
-3.32788e-06
1.35617e-05
-2.64248e-06
1.4423e-05
-1.40167e-06
1.50621e-05
6.42661e-07
1.52755e-05
3.52488e-06
1.47954e-05
7.25248e-06
1.33489e-05
1.16647e-05
1.07374e-05
1.58736e-05
6.56365e-06
1.72009e-05
1.51869e-05
9.52354e-07
-7.72075e-07
1.62567e-06
-4.02601e-06
2.16319e-06
-5.57419e-06
2.71901e-06
-6.42965e-06
3.35803e-06
-6.97641e-06
4.10784e-06
-7.33958e-06
4.97773e-06
-7.5384e-06
5.94926e-06
-7.49342e-06
6.94716e-06
-7.03577e-06
7.91382e-06
-6.27151e-06
8.87966e-06
-5.57191e-06
9.9059e-06
-5.12256e-06
1.10256e-05
-4.84833e-06
1.22231e-05
-4.52541e-06
1.34303e-05
-3.84973e-06
1.45544e-05
-2.52577e-06
1.54987e-05
-3.01599e-07
1.60906e-05
2.933e-06
1.60973e-05
7.24579e-06
1.52403e-05
1.25217e-05
1.3203e-05
1.79108e-05
9.00851e-06
2.13955e-05
2.41954e-05
9.3938e-07
-1.71146e-06
1.49309e-06
-4.57971e-06
1.89219e-06
-5.97329e-06
2.30386e-06
-6.84131e-06
2.80552e-06
-7.47807e-06
3.43865e-06
-7.97271e-06
4.2289e-06
-8.32865e-06
5.16936e-06
-8.43389e-06
6.17018e-06
-8.0366e-06
7.15785e-06
-7.25918e-06
8.173e-06
-6.58707e-06
9.28966e-06
-6.23921e-06
1.05429e-05
-6.10158e-06
1.19146e-05
-5.89715e-06
1.33337e-05
-5.2688e-06
1.47091e-05
-3.90114e-06
1.59499e-05
-1.54238e-06
1.69197e-05
1.96314e-06
1.74376e-05
6.72789e-06
1.72649e-05
1.26944e-05
1.60852e-05
1.90906e-05
1.21196e-05
2.53611e-05
3.63149e-05
8.3476e-07
-2.54622e-06
1.24689e-06
-4.99184e-06
1.51703e-06
-6.24342e-06
1.80381e-06
-7.12809e-06
2.18884e-06
-7.8631e-06
2.72476e-06
-8.50863e-06
3.45554e-06
-9.05944e-06
4.38881e-06
-9.36716e-06
5.41483e-06
-9.06263e-06
6.43718e-06
-8.28153e-06
7.50907e-06
-7.65895e-06
8.71956e-06
-7.44971e-06
1.01052e-05
-7.48725e-06
1.16448e-05
-7.43673e-06
1.32626e-05
-6.88655e-06
1.48696e-05
-5.5082e-06
1.63879e-05
-3.06061e-06
1.77207e-05
6.30299e-07
1.87563e-05
5.69226e-06
1.93557e-05
1.2095e-05
1.93387e-05
1.91075e-05
1.65861e-05
2.81137e-05
5.29011e-05
-3.16526e-06
3.16526e-06
1.58252e-06
-4.74778e-06
8.53261e-06
-6.95008e-06
1.5428e-05
-6.89539e-06
2.00335e-05
-4.60547e-06
2.12387e-05
-1.20522e-06
2.1548e-05
-3.09316e-07
2.21419e-05
-5.93932e-07
2.07115e-05
1.43037e-06
1.56752e-05
5.03638e-06
7.93212e-06
7.74305e-06
1.098e-06
6.83411e-06
-3.1324e-06
4.2304e-06
-7.03864e-06
3.90624e-06
-1.08151e-05
3.77648e-06
-1.48088e-05
3.99367e-06
-1.54135e-05
6.04695e-07
-8.99027e-06
-6.42319e-06
-8.99027e-06
-6.07514e-07
3.77279e-06
3.65702e-06
-9.01231e-06
9.32442e-06
-1.26175e-05
1.43404e-05
-1.19113e-05
1.72968e-05
-7.56188e-06
1.7557e-05
-1.46544e-06
1.72039e-05
4.38097e-08
1.75849e-05
-9.74916e-07
1.75266e-05
1.48863e-06
1.50941e-05
7.46891e-06
9.46616e-06
1.3371e-05
3.26247e-06
1.30378e-05
-1.16953e-06
8.66242e-06
-4.76971e-06
7.50643e-06
-8.02677e-06
7.03353e-06
-1.14902e-05
7.45705e-06
-1.2919e-05
2.03351e-06
-8.92015e-06
-1.0422e-05
-1.79104e-05
8.97771e-07
2.87503e-06
5.1629e-06
-1.32774e-05
9.8787e-06
-1.73333e-05
1.35588e-05
-1.55915e-05
1.54598e-05
-9.46282e-06
1.49838e-05
-9.89515e-07
1.39782e-05
1.04949e-06
1.3906e-05
-9.02716e-07
1.38068e-05
1.58783e-06
1.27102e-05
8.56554e-06
9.63502e-06
1.64461e-05
4.71823e-06
1.79546e-05
8.03264e-07
1.25774e-05
-2.30735e-06
1.0617e-05
-4.87115e-06
9.59733e-06
-7.8318e-06
1.04177e-05
-9.78761e-06
3.98931e-06
-7.35736e-06
-1.28523e-05
-2.52678e-05
1.90695e-06
9.68077e-07
6.63715e-06
-1.80076e-05
1.05571e-05
-2.12532e-05
1.30113e-05
-1.80457e-05
1.41272e-05
-1.05787e-05
1.29781e-05
1.59589e-07
1.12072e-05
2.82044e-06
1.03539e-05
-4.94437e-08
1.00005e-05
1.94119e-06
1.02618e-05
8.30428e-06
1.01307e-05
1.65772e-05
6.24388e-06
2.18413e-05
2.68657e-06
1.61347e-05
-8.13781e-08
1.3385e-05
-2.18247e-06
1.16984e-05
-4.50283e-06
1.27381e-05
-6.04769e-06
5.53417e-06
-4.8832e-06
-1.40167e-05
-3.0151e-05
3.24757e-06
-2.2795e-06
8.67221e-06
-2.34323e-05
1.16657e-05
-2.42466e-05
1.27054e-05
-1.90855e-05
1.31995e-05
-1.10728e-05
1.14831e-05
1.87596e-06
8.80337e-06
5.50015e-06
6.90701e-06
1.84692e-06
6.37206e-06
2.47614e-06
7.76073e-06
6.9156e-06
1.01946e-05
1.41434e-05
7.7303e-06
2.43057e-05
4.44671e-06
1.94183e-05
1.88127e-06
1.59504e-05
1.73999e-07
1.34057e-05
-1.25058e-06
1.41626e-05
-2.02293e-06
6.30651e-06
-1.78815e-06
-1.42515e-05
-3.19391e-05
6.06166e-06
-8.34116e-06
1.20362e-05
-2.94068e-05
1.358e-05
-2.57904e-05
1.27516e-05
-1.82571e-05
1.22447e-05
-1.05659e-05
1.04761e-05
3.64455e-06
6.95031e-06
9.02597e-06
4.19195e-06
4.60529e-06
3.8322e-06
2.83589e-06
5.35096e-06
5.39683e-06
8.71781e-06
1.07765e-05
8.84144e-06
2.4182e-05
6.28388e-06
2.19758e-05
3.78919e-06
1.84451e-05
2.38307e-06
1.48118e-05
1.83998e-06
1.47057e-05
1.93019e-06
6.21629e-06
1.45402e-06
-1.37754e-05
-3.04851e-05
1.18329e-05
-2.01741e-05
1.75056e-05
-3.50795e-05
1.69382e-05
-2.5223e-05
1.32488e-05
-1.45677e-05
1.09578e-05
-8.27486e-06
9.2331e-06
5.3692e-06
5.50032e-06
1.27588e-05
2.42675e-06
7.67887e-06
1.97011e-06
3.29255e-06
3.08031e-06
4.28663e-06
5.90136e-06
7.95548e-06
9.37465e-06
2.07087e-05
8.74817e-06
2.26023e-05
5.9487e-06
2.12446e-05
4.75299e-06
1.60075e-05
4.83933e-06
1.46194e-05
5.57505e-06
5.48057e-06
4.43557e-06
-1.26359e-05
-2.60495e-05
2.10483e-05
-4.12224e-05
2.38156e-05
-3.78468e-05
2.13492e-05
-2.27567e-05
1.44632e-05
-7.68155e-06
9.81196e-06
-3.62366e-06
7.639e-06
7.54216e-06
3.932e-06
1.64658e-05
1.30896e-06
1.03019e-05
5.77511e-07
4.02402e-06
1.0716e-06
3.79254e-06
2.56578e-06
6.46131e-06
7.67686e-06
1.55976e-05
1.04542e-05
1.98249e-05
8.56305e-06
2.31358e-05
7.47994e-06
1.70906e-05
8.40123e-06
1.36981e-05
9.07848e-06
4.80332e-06
7.20305e-06
-1.07605e-05
-1.88465e-05
1.1844e-06
-3.73061e-06
1.62377e-06
-5.43121e-06
1.81676e-06
-6.43641e-06
2.0689e-06
-7.38023e-06
2.56002e-06
-8.35422e-06
3.42442e-06
-9.37304e-06
4.82179e-06
-1.04568e-05
6.85679e-06
-1.14022e-05
9.19439e-06
-1.14002e-05
1.15057e-05
-1.05929e-05
1.39827e-05
-1.0136e-05
1.68702e-05
-1.03371e-05
2.02347e-05
-1.08518e-05
2.4023e-05
-1.1225e-05
2.80495e-05
-1.0913e-05
3.21355e-05
-9.59425e-06
3.61755e-05
-7.10063e-06
4.00901e-05
-3.28426e-06
4.38846e-05
1.89776e-06
4.77748e-05
8.2048e-06
5.24521e-05
1.44303e-05
6.09198e-05
1.96459e-05
2.49814e-05
8.88395e-05
4.32501e-07
-4.16311e-06
3.57502e-07
-5.35621e-06
1.57893e-07
-6.2368e-06
6.57052e-08
-7.28804e-06
2.34737e-07
-8.52326e-06
8.12569e-07
-9.95088e-06
2.0109e-06
-1.16551e-05
4.24747e-06
-1.36387e-05
6.93296e-06
-1.40857e-05
9.45326e-06
-1.31131e-05
1.22041e-05
-1.28868e-05
1.54681e-05
-1.36011e-05
1.92446e-05
-1.46282e-05
2.34943e-05
-1.54748e-05
2.79854e-05
-1.5404e-05
3.25601e-05
-1.41689e-05
3.72138e-05
-1.17543e-05
4.19651e-05
-8.03556e-06
4.68673e-05
-3.00452e-06
5.23109e-05
2.76124e-06
5.88346e-05
7.9066e-06
6.72436e-05
1.12369e-05
1.19208e-05
8.03042e-05
1.28547e-07
-4.29166e-06
-1.44456e-07
-5.0832e-06
-5.59699e-07
-5.82155e-06
-8.49606e-07
-6.99814e-06
-8.6453e-07
-8.50833e-06
-5.40368e-07
-1.0275e-05
4.52456e-07
-1.2648e-05
2.74951e-06
-1.59358e-05
5.74021e-06
-1.70764e-05
8.51618e-06
-1.58891e-05
1.1665e-05
-1.60356e-05
1.52748e-05
-1.7211e-05
1.91837e-05
-1.85371e-05
2.34969e-05
-1.97879e-05
2.79072e-05
-1.98143e-05
3.23546e-05
-1.86163e-05
3.69991e-05
-1.63988e-05
4.19755e-05
-1.3012e-05
4.72729e-05
-8.30191e-06
5.31907e-05
-3.15656e-06
6.00606e-05
1.03672e-06
6.81769e-05
3.12058e-06
2.13519e-06
7.79625e-05
1.31884e-06
-5.61049e-06
4.09003e-07
-4.17335e-06
-3.76099e-07
-5.03645e-06
-8.14993e-07
-6.55924e-06
-7.20366e-07
-8.60296e-06
-4.30713e-07
-1.05647e-05
2.68923e-07
-1.33476e-05
1.96416e-06
-1.7631e-05
4.65162e-06
-1.97639e-05
7.88368e-06
-1.91212e-05
1.19493e-05
-2.01012e-05
1.62119e-05
-2.14736e-05
2.01173e-05
-2.24425e-05
2.39408e-05
-2.36114e-05
2.75488e-05
-2.34224e-05
3.12064e-05
-2.2274e-05
3.5214e-05
-2.04064e-05
3.98115e-05
-1.76095e-05
4.51427e-05
-1.36331e-05
5.15706e-05
-9.58446e-06
5.9212e-05
-6.60472e-06
6.77672e-05
-5.43457e-06
-6.51789e-06
7.64203e-05
2.44086e-06
-8.05134e-06
-3.28343e-09
-1.72918e-06
-1.93737e-06
-3.10232e-06
-2.49424e-06
-6.00236e-06
-5.97021e-07
-1.05002e-05
2.4438e-06
-1.36055e-05
3.46934e-06
-1.43731e-05
1.75062e-06
-1.59123e-05
1.25957e-06
-1.92728e-05
5.02684e-06
-2.28884e-05
1.11249e-05
-2.61992e-05
1.79048e-05
-2.82536e-05
2.19975e-05
-2.65353e-05
2.41275e-05
-2.57413e-05
2.60007e-05
-2.52955e-05
2.82456e-05
-2.45189e-05
3.09689e-05
-2.31296e-05
3.47731e-05
-2.14137e-05
3.97321e-05
-1.85921e-05
4.69252e-05
-1.67775e-05
5.65227e-05
-1.62022e-05
6.91907e-05
-1.81026e-05
-1.85827e-05
8.12556e-05
-1.55555e-05
7.5042e-06
-2.47877e-05
7.50307e-06
-2.72867e-05
-6.03321e-07
-1.85797e-05
-1.47092e-05
-8.59221e-06
-2.04876e-05
-1.89323e-06
-2.03045e-05
2.91655e-06
-1.91829e-05
-7.52595e-07
-1.22431e-05
-5.2127e-06
-1.48127e-05
-1.93197e-06
-2.61691e-05
1.68509e-06
-2.98163e-05
1.0762e-05
-3.73304e-05
1.80694e-05
-3.38427e-05
1.4858e-05
-2.25298e-05
8.33371e-06
-1.87712e-05
5.64695e-06
-2.18321e-05
8.62953e-06
-2.61122e-05
1.00778e-05
-2.2862e-05
9.33548e-06
-1.78498e-05
1.00211e-05
-1.74632e-05
2.0607e-05
-2.67882e-05
3.36327e-05
-3.11283e-05
-2.788e-05
4.293e-05
-1.48448e-05
2.2349e-05
-1.93242e-05
1.19826e-05
-1.65652e-05
-3.36225e-06
-1.14045e-05
-1.987e-05
-7.01182e-06
-2.48802e-05
-4.81183e-06
-2.25045e-05
-6.18507e-06
-1.78096e-05
-3.5196e-06
-1.49085e-05
-6.29964e-07
-1.77022e-05
-1.27434e-06
-2.55247e-05
-2.25612e-06
-2.88345e-05
9.63511e-07
-4.055e-05
3.7131e-06
-3.65922e-05
2.8389e-06
-2.16555e-05
-9.48285e-07
-1.49839e-05
-1.09868e-08
-2.27694e-05
3.80371e-06
-2.9927e-05
8.19597e-06
-2.72543e-05
1.22258e-05
-2.18795e-05
1.55728e-05
-2.081e-05
1.63515e-05
-2.75668e-05
1.81975e-05
-3.29744e-05
-2.67723e-05
1.70899e-05
-5.99844e-06
2.83475e-05
-6.91067e-06
1.28948e-05
-5.49785e-06
-4.77508e-06
-6.26712e-06
-1.91006e-05
-8.97851e-06
-2.21688e-05
-1.0502e-05
-2.09809e-05
-9.51554e-06
-1.8796e-05
-6.68238e-06
-1.77415e-05
-4.01812e-06
-2.03663e-05
-3.743e-06
-2.57997e-05
-1.61151e-06
-3.09659e-05
-5.23004e-06
-3.69315e-05
-5.67838e-06
-3.61439e-05
-3.04815e-06
-2.42857e-05
-1.12435e-06
-1.69077e-05
1.91058e-06
-2.58043e-05
4.39797e-06
-3.24144e-05
8.09152e-06
-3.09479e-05
1.23812e-05
-2.61693e-05
1.5376e-05
-2.38048e-05
9.3592e-06
-2.15499e-05
-7.16318e-07
-2.28989e-05
-1.73126e-05
-1.01761e-05
1.95317e-06
2.63944e-05
2.77641e-06
1.20717e-05
8.46747e-07
-2.84538e-06
-4.46408e-06
-1.37897e-05
-8.55783e-06
-1.8075e-05
-1.0566e-05
-1.89725e-05
-1.03632e-05
-1.89987e-05
-8.35077e-06
-1.97538e-05
-6.17442e-06
-2.25425e-05
-5.00529e-06
-2.69687e-05
-4.79252e-06
-3.11786e-05
-6.90393e-06
-3.482e-05
-9.39261e-06
-3.36551e-05
-5.62931e-06
-2.80489e-05
6.37979e-07
-2.31749e-05
3.23607e-06
-2.84023e-05
3.47178e-06
-3.26501e-05
4.80448e-06
-3.22806e-05
6.34812e-06
-2.77129e-05
7.75221e-07
-1.8232e-05
-1.17049e-05
-9.06974e-06
-2.45168e-05
-1.0087e-05
-5.13915e-06
-3.66902e-05
4.55038e-06
2.1844e-05
5.07969e-06
1.15425e-05
2.18099e-06
5.34043e-08
-2.86083e-06
-8.74766e-06
-7.15908e-06
-1.37767e-05
-9.64083e-06
-1.64907e-05
-1.02478e-05
-1.83915e-05
-9.42155e-06
-2.058e-05
-8.22875e-06
-2.37353e-05
-7.58385e-06
-2.76136e-05
-7.62789e-06
-3.11345e-05
-8.80963e-06
-3.36381e-05
-9.1623e-06
-3.33024e-05
-6.77823e-06
-3.04329e-05
-1.31619e-06
-2.86369e-05
5.30024e-07
-3.02485e-05
-6.74703e-07
-3.14453e-05
-3.78002e-06
-2.91752e-05
-8.90834e-06
-2.25846e-05
-1.52953e-05
-1.1845e-05
-2.37098e-05
-6.5517e-07
-3.60988e-05
2.30199e-06
7.30369e-06
-4.85417e-05
3.79914e-06
1.80449e-05
4.142e-06
1.11997e-05
1.52354e-06
2.67187e-06
-2.58696e-06
-4.63709e-06
-6.39092e-06
-9.97262e-06
-9.0192e-06
-1.38623e-05
-1.03237e-05
-1.7087e-05
-1.06153e-05
-2.02883e-05
-1.05489e-05
-2.38016e-05
-1.07172e-05
-2.74452e-05
-1.12575e-05
-3.05942e-05
-1.22283e-05
-3.26673e-05
-1.26243e-05
-3.29063e-05
-1.13772e-05
-3.16801e-05
-9.5131e-06
-3.05009e-05
-9.53238e-06
-3.02291e-05
-1.20045e-05
-2.8973e-05
-1.62177e-05
-2.4962e-05
-2.1411e-05
-1.73912e-05
-2.68369e-05
-6.41899e-06
-3.26673e-05
5.17535e-06
-4.1595e-05
1.12297e-05
1.57532e-05
-5.00446e-05
2.0058e-06
1.60391e-05
1.97503e-06
1.12305e-05
-1.27154e-07
4.77414e-06
-3.28483e-06
-1.47933e-06
-6.46677e-06
-6.79058e-06
-9.03403e-06
-1.1295e-05
-1.08072e-05
-1.53138e-05
-1.19461e-05
-1.91493e-05
-1.28201e-05
-2.29276e-05
-1.37752e-05
-2.649e-05
-1.49234e-05
-2.94459e-05
-1.62033e-05
-3.13874e-05
-1.71394e-05
-3.19702e-05
-1.74135e-05
-3.1406e-05
-1.76518e-05
-3.02625e-05
-1.91131e-05
-2.87678e-05
-2.21683e-05
-2.59178e-05
-2.6396e-05
-2.07343e-05
-3.10995e-05
-1.26876e-05
-3.55092e-05
-2.0094e-06
-3.96485e-05
9.31469e-06
-4.56165e-05
1.71978e-05
2.10421e-05
-5.09053e-05
3.72368e-07
1.56668e-05
-1.21951e-07
1.17248e-05
-1.81844e-06
6.47071e-06
-4.3157e-06
1.01798e-06
-6.97651e-06
-4.12966e-06
-9.39919e-06
-8.87221e-06
-1.14307e-05
-1.32822e-05
-1.31318e-05
-1.74481e-05
-1.46937e-05
-2.13657e-05
-1.63024e-05
-2.48812e-05
-1.80252e-05
-2.77231e-05
-1.98021e-05
-2.96104e-05
-2.14283e-05
-3.03439e-05
-2.28519e-05
-2.99824e-05
-2.44144e-05
-2.87e-05
-2.67235e-05
-2.64585e-05
-2.99352e-05
-2.2706e-05
-3.37867e-05
-1.68829e-05
-3.77711e-05
-8.70323e-06
-4.13519e-05
1.57138e-06
-4.46366e-05
1.25993e-05
-4.90561e-05
2.16173e-05
2.64261e-05
-5.444e-05
-7.61077e-07
1.64279e-05
-1.65421e-06
1.26179e-05
-3.16532e-06
7.98189e-06
-5.1914e-06
3.04409e-06
-7.44448e-06
-1.87647e-06
-9.69261e-06
-6.62397e-06
-1.18253e-05
-1.11494e-05
-1.38545e-05
-1.54188e-05
-1.58675e-05
-1.93525e-05
-1.79535e-05
-2.27951e-05
-2.01408e-05
-2.55357e-05
-2.23856e-05
-2.73656e-05
-2.45952e-05
-2.81343e-05
-2.67671e-05
-2.78105e-05
-2.90674e-05
-2.63998e-05
-3.17377e-05
-2.37883e-05
-3.47924e-05
-1.96513e-05
-3.80073e-05
-1.36681e-05
-4.10023e-05
-5.70814e-06
-4.34083e-05
3.97753e-06
-4.52983e-05
1.44893e-05
-4.77891e-05
2.41081e-05
3.07126e-05
-5.20755e-05
-1.38952e-06
1.78174e-05
-2.51345e-06
1.37419e-05
-3.8805e-06
9.34898e-06
-5.57639e-06
4.74002e-06
-7.50816e-06
5.53609e-08
-9.56976e-06
-4.5623e-06
-1.16929e-05
-9.02616e-06
-1.38715e-05
-1.32402e-05
-1.6137e-05
-1.7087e-05
-1.85206e-05
-2.04115e-05
-2.10207e-05
-2.30355e-05
-2.35965e-05
-2.47898e-05
-2.61869e-05
-2.5544e-05
-2.87712e-05
-2.52263e-05
-3.13924e-05
-2.37786e-05
-3.4094e-05
-2.10866e-05
-3.67887e-05
-1.69564e-05
-3.92372e-05
-1.12196e-05
-4.10904e-05
-3.85499e-06
-4.19897e-05
4.87697e-06
-4.17819e-05
1.42815e-05
-4.07742e-05
2.31005e-05
2.9562e-05
-3.96237e-05
-1.54286e-06
1.93603e-05
-2.68115e-06
1.48802e-05
-3.88215e-06
1.055e-05
-5.30511e-06
6.16305e-06
-6.96702e-06
1.71729e-06
-8.82875e-06
-2.70055e-06
-1.08626e-05
-6.99232e-06
-1.30572e-05
-1.10456e-05
-1.54149e-05
-1.47292e-05
-1.79331e-05
-1.78932e-05
-2.05877e-05
-2.03808e-05
-2.33303e-05
-2.20472e-05
-2.60984e-05
-2.27759e-05
-2.88401e-05
-2.24845e-05
-3.15173e-05
-2.11014e-05
-3.40674e-05
-1.85366e-05
-3.6342e-05
-1.46817e-05
-3.80915e-05
-9.47001e-06
-3.89899e-05
-2.9567e-06
-3.86994e-05
4.58654e-06
-3.69942e-05
1.25763e-05
-3.39382e-05
2.00447e-05
2.56995e-05
-3.00758e-05
-1.27234e-06
2.06326e-05
-2.22374e-06
1.58316e-05
-3.19721e-06
1.15235e-05
-4.35826e-06
7.32415e-06
-5.76136e-06
3.12038e-06
-7.41023e-06
-1.0517e-06
-9.29598e-06
-5.10657e-06
-1.1408e-05
-8.93354e-06
-1.37336e-05
-1.24035e-05
-1.62505e-05
-1.53764e-05
-1.89185e-05
-1.77128e-05
-2.16788e-05
-1.92869e-05
-2.44585e-05
-1.99963e-05
-2.71801e-05
-1.9763e-05
-2.97582e-05
-1.85234e-05
-3.20782e-05
-1.62167e-05
-3.39676e-05
-1.27924e-05
-3.51888e-05
-8.24873e-06
-3.54607e-05
-2.68489e-06
-3.45105e-05
3.63632e-06
-3.21676e-05
1.02333e-05
-2.851e-05
1.63872e-05
2.12305e-05
-2.40409e-05
-6.38649e-07
2.12712e-05
-1.24351e-06
1.64364e-05
-1.92566e-06
1.22056e-05
-2.81362e-06
8.21209e-06
-3.95875e-06
4.26543e-06
-5.37844e-06
3.67935e-07
-7.07232e-06
-3.41268e-06
-9.02975e-06
-6.97606e-06
-1.12302e-05
-1.0203e-05
-1.36398e-05
-1.29668e-05
-1.62082e-05
-1.51444e-05
-1.8868e-05
-1.66272e-05
-2.15374e-05
-1.7327e-05
-2.41232e-05
-1.71773e-05
-2.65178e-05
-1.61289e-05
-2.85877e-05
-1.41469e-05
-3.01611e-05
-1.12192e-05
-3.10288e-05
-7.38102e-06
-3.09642e-05
-2.74946e-06
-2.97677e-05
2.43982e-06
-2.7339e-05
7.80466e-06
-2.37775e-05
1.28257e-05
1.69269e-05
-1.9474e-05
2.98511e-07
2.09727e-05
1.349e-07
1.66e-05
-2.29308e-07
1.25699e-05
-8.32584e-07
8.8153e-06
-1.71517e-06
5.14792e-06
-2.89159e-06
1.54431e-06
-4.36166e-06
-1.94258e-06
-6.11318e-06
-5.22447e-06
-8.12119e-06
-8.19498e-06
-1.03457e-05
-1.07422e-05
-1.27307e-05
-1.27594e-05
-1.52042e-05
-1.41537e-05
-1.76798e-05
-1.48513e-05
-2.00586e-05
-1.47985e-05
-2.22269e-05
-1.39606e-05
-2.40514e-05
-1.23225e-05
-2.53754e-05
-9.89529e-06
-2.60239e-05
-6.73253e-06
-2.58222e-05
-2.95115e-06
-2.4631e-05
1.24852e-06
-2.23988e-05
5.57253e-06
-1.92237e-05
9.65056e-06
1.30972e-05
-1.5394e-05
1.34717e-06
1.96256e-05
1.67161e-06
1.62756e-05
1.67115e-06
1.25703e-05
1.36251e-06
9.12387e-06
7.48258e-07
5.76211e-06
-1.72563e-07
2.46512e-06
-1.39503e-06
-7.20074e-07
-2.9043e-06
-3.71514e-06
-4.67274e-06
-6.4265e-06
-6.65769e-06
-8.75721e-06
-8.80098e-06
-1.06161e-05
-1.10297e-05
-1.19249e-05
-1.3258e-05
-1.2623e-05
-1.53878e-05
-1.26686e-05
-1.73094e-05
-1.20391e-05
-1.88995e-05
-1.07324e-05
-2.00225e-05
-8.77225e-06
-2.0537e-05
-6.21811e-06
-2.03112e-05
-3.17689e-06
-1.92498e-05
1.87101e-07
-1.73289e-05
3.65165e-06
-1.46318e-05
6.9535e-06
9.83007e-06
-1.13647e-05
2.23864e-06
1.73869e-05
3.1413e-06
1.53729e-05
3.51396e-06
1.21976e-05
3.51096e-06
9.12681e-06
3.17571e-06
6.09731e-06
2.52425e-06
3.11655e-06
1.5688e-06
2.35367e-07
3.28058e-07
-2.4744e-06
-1.16841e-06
-4.93005e-06
-2.87713e-06
-7.04851e-06
-4.74044e-06
-8.75279e-06
-6.68746e-06
-9.97797e-06
-8.6359e-06
-1.06747e-05
-1.04936e-05
-1.08109e-05
-1.21596e-05
-1.03731e-05
-1.35251e-05
-9.3668e-06
-1.44764e-05
-7.82101e-06
-1.4901e-05
-5.7935e-06
-1.47008e-05
-3.37703e-06
-1.38106e-05
-7.03105e-07
-1.22205e-05
2.0615e-06
-9.99602e-06
4.72899e-06
7.11705e-06
-7.28306e-06
2.81979e-06
1.45671e-05
4.26799e-06
1.39246e-05
5.03214e-06
1.14333e-05
5.35426e-06
8.80462e-06
5.31551e-06
6.136e-06
4.94994e-06
3.48207e-06
4.27932e-06
9.05935e-07
3.32664e-06
-1.52177e-06
2.12382e-06
-3.72726e-06
7.14291e-07
-5.63901e-06
-8.46084e-07
-7.19245e-06
-2.49023e-06
-8.33388e-06
-4.14167e-06
-9.02334e-06
-5.71629e-06
-9.2364e-06
-7.12428e-06
-8.96509e-06
-8.27215e-06
-8.21893e-06
-9.066e-06
-7.02718e-06
-9.41753e-06
-5.44198e-06
-9.25361e-06
-3.54093e-06
-8.52919e-06
-1.42755e-06
-7.24112e-06
7.73395e-07
-5.43939e-06
2.92721e-06
4.9057e-06
-3.22808e-06
2.99479e-06
1.15723e-05
4.88497e-06
1.20343e-05
6.0367e-06
1.02815e-05
6.69859e-06
8.14266e-06
6.97223e-06
5.86228e-06
6.90663e-06
3.54761e-06
6.53312e-06
1.2794e-06
5.88051e-06
-8.69198e-07
4.98313e-06
-2.8299e-06
3.88431e-06
-4.54019e-06
2.63733e-06
-5.94546e-06
1.30455e-06
-7.00112e-06
-4.42395e-08
-7.6746e-06
-1.33388e-06
-7.94682e-06
-2.48601e-06
-7.81299e-06
-3.42144e-06
-7.28349e-06
-4.06352e-06
-6.38513e-06
-4.34301e-06
-5.16252e-06
-4.20513e-06
-3.67879e-06
-3.61834e-06
-2.01433e-06
-2.58265e-06
-2.62296e-07
-1.13585e-06
1.4804e-06
3.12319e-06
6.4664e-07
2.84251e-06
8.72967e-06
5.00144e-06
9.87528e-06
6.48431e-06
8.79855e-06
7.46913e-06
7.15776e-06
8.05113e-06
5.28021e-06
8.28498e-06
3.3137e-06
8.2086e-06
1.35575e-06
7.8558e-06
-5.16404e-07
7.26327e-06
-2.23737e-06
6.47411e-06
-3.75101e-06
5.53874e-06
-5.01007e-06
4.51446e-06
-5.97683e-06
3.46398e-06
-6.62412e-06
2.45348e-06
-6.93635e-06
1.55053e-06
-6.91004e-06
8.21644e-07
-6.55457e-06
3.29246e-07
-5.89273e-06
1.27767e-07
-4.96106e-06
2.58564e-07
-3.80959e-06
7.44194e-07
-2.49997e-06
1.5832e-06
-1.10132e-06
2.74704e-06
3.16518e-07
1.69012e-06
4.18006e-06
2.52729e-06
6.20232e-06
4.76547e-06
7.63707e-06
6.46972e-06
7.09424e-06
7.71578e-06
5.91162e-06
8.56897e-06
4.42694e-06
9.07708e-06
2.80555e-06
9.2784e-06
1.15442e-06
9.20866e-06
-4.4666e-07
8.9055e-06
-1.93423e-06
8.41105e-06
-3.25659e-06
7.7726e-06
-4.37164e-06
7.04222e-06
-5.24648e-06
6.27565e-06
-5.85758e-06
5.53058e-06
-6.19128e-06
4.86473e-06
-6.24419e-06
4.33376e-06
-6.02355e-06
3.98849e-06
-5.54744e-06
3.87201e-06
-4.84459e-06
4.01596e-06
-3.95357e-06
4.4368e-06
-2.92086e-06
5.13267e-06
-1.79724e-06
6.08175e-06
-6.32619e-07
5.29283e-07
7.24254e-06
2.18411e-06
4.0182e-06
4.35334e-06
5.46785e-06
6.15112e-06
5.29641e-06
7.56591e-06
4.49675e-06
8.62389e-06
3.3689e-06
9.35649e-06
2.07291e-06
9.79578e-06
7.15112e-07
9.97518e-06
-6.26083e-07
9.93088e-06
-1.88999e-06
9.70267e-06
-3.02847e-06
9.33408e-06
-4.00315e-06
8.87192e-06
-4.78439e-06
8.36521e-06
-5.35094e-06
7.86385e-06
-5.68995e-06
7.41688e-06
-5.79723e-06
7.0707e-06
-5.67735e-06
6.86683e-06
-5.34356e-06
6.8396e-06
-4.81737e-06
7.01358e-06
-4.12758e-06
7.40109e-06
-3.3084e-06
8.00031e-06
-2.39649e-06
8.79453e-06
-1.42687e-06
-4.28779e-07
9.75257e-06
1.87628e-06
2.14193e-06
3.89042e-06
3.45374e-06
5.6738e-06
3.51297e-06
7.16154e-06
3.00896e-06
8.34563e-06
2.18476e-06
9.23846e-06
1.18005e-06
9.86192e-06
9.16427e-08
1.02437e-05
-1.00789e-06
1.04161e-05
-2.06246e-06
1.0415e-05
-3.02753e-06
1.02795e-05
-3.86782e-06
1.00511e-05
-4.55605e-06
9.77235e-06
-5.07228e-06
9.48617e-06
-5.4038e-06
9.23403e-06
-5.5451e-06
9.05456e-06
-5.49786e-06
8.98177e-06
-5.27074e-06
9.04325e-06
-4.87884e-06
9.25837e-06
-4.34269e-06
9.63658e-06
-3.68661e-06
1.01764e-05
-2.93627e-06
1.08649e-05
-2.11542e-06
-1.24263e-06
1.16788e-05
1.61724e-06
5.24726e-07
3.44021e-06
1.63079e-06
5.13671e-06
1.81646e-06
6.61853e-06
1.52713e-06
7.85491e-06
9.48354e-07
8.84212e-06
1.9284e-07
9.59124e-06
-6.57493e-07
1.01229e-05
-1.5396e-06
1.04638e-05
-2.40343e-06
1.06448e-05
-3.20875e-06
1.07002e-05
-3.9233e-06
1.06657e-05
-4.52171e-06
1.05783e-05
-4.98488e-06
1.04743e-05
-5.29982e-06
1.03888e-05
-5.45953e-06
1.03538e-05
-5.46286e-06
1.03974e-05
-5.31429e-06
1.05419e-05
-5.02334e-06
1.08029e-05
-4.60363e-06
1.11877e-05
-4.07147e-06
1.16954e-05
-3.4439e-06
1.2316e-05
-2.73608e-06
-1.95867e-06
1.30321e-05
1.40064e-06
-8.75879e-07
3.02595e-06
5.51759e-09
4.59504e-06
2.47429e-07
6.01533e-06
1.06889e-07
7.2444e-06
-2.80688e-07
8.26774e-06
-8.30491e-07
9.08775e-06
-1.47749e-06
9.71783e-06
-2.16971e-06
1.01787e-05
-2.86441e-06
1.04961e-05
-3.52623e-06
1.06987e-05
-4.12604e-06
1.08172e-05
-4.64026e-06
1.08828e-05
-5.05049e-06
1.09264e-05
-5.34333e-06
1.09772e-05
-5.51031e-06
1.10621e-05
-5.54771e-06
1.12041e-05
-5.45633e-06
1.14217e-05
-5.24091e-06
1.17274e-05
-4.90934e-06
1.21274e-05
-4.47144e-06
1.26209e-05
-3.93741e-06
1.32007e-05
-3.31579e-06
-2.61137e-06
1.38534e-05
1.21666e-06
-2.0925e-06
2.65219e-06
-1.42993e-06
4.0754e-06
-1.17563e-06
5.39863e-06
-1.21624e-06
6.57706e-06
-1.45907e-06
7.59022e-06
-1.84361e-06
8.43438e-06
-2.32164e-06
9.11711e-06
-2.85245e-06
9.65365e-06
-3.401e-06
1.00644e-05
-3.93707e-06
1.03731e-05
-4.43478e-06
1.06052e-05
-4.8724e-06
1.0787e-05
-5.23221e-06
1.09442e-05
-5.50047e-06
1.11013e-05
-5.66743e-06
1.12808e-05
-5.72715e-06
1.15018e-05
-5.67728e-06
1.17794e-05
-5.51858e-06
1.21243e-05
-5.25421e-06
1.25416e-05
-4.88873e-06
1.30311e-05
-4.42688e-06
1.35874e-05
-3.87201e-06
-3.22446e-06
1.42005e-05
1.05735e-06
-3.1498e-06
2.31623e-06
-2.68867e-06
3.58783e-06
-2.44704e-06
4.79424e-06
-2.42253e-06
5.8926e-06
-2.55736e-06
6.86102e-06
-2.812e-06
7.69231e-06
-3.15291e-06
8.38971e-06
-3.54985e-06
8.96387e-06
-3.97517e-06
9.43048e-06
-4.4037e-06
9.80852e-06
-4.81282e-06
1.01188e-05
-5.18268e-06
1.0383e-05
-5.49634e-06
1.06225e-05
-5.73992e-06
1.08577e-05
-5.90263e-06
1.11073e-05
-5.97673e-06
1.13874e-05
-5.95728e-06
1.17106e-05
-5.84178e-06
1.20859e-05
-5.62952e-06
1.2518e-05
-5.32082e-06
1.30072e-05
-4.91606e-06
1.35497e-05
-4.41442e-06
-3.81274e-06
1.4138e-05
9.18788e-07
-4.06851e-06
2.01492e-06
-3.78461e-06
3.13558e-06
-3.56754e-06
4.21456e-06
-3.50143e-06
5.21422e-06
-3.55696e-06
6.11379e-06
-3.71154e-06
6.90457e-06
-3.9437e-06
7.58691e-06
-4.23221e-06
8.1678e-06
-4.55607e-06
8.65891e-06
-4.8948e-06
9.07505e-06
-5.22893e-06
9.43289e-06
-5.54049e-06
9.75001e-06
-5.81342e-06
1.0044e-05
-6.03388e-06
1.03318e-05
-6.1904e-06
1.06289e-05
-6.27383e-06
1.09489e-05
-6.27721e-06
1.13025e-05
-6.19543e-06
1.16977e-05
-6.02469e-06
1.21388e-05
-5.76191e-06
1.26267e-05
-5.40393e-06
1.31589e-05
-4.94659e-06
-4.38387e-06
1.37301e-05
7.99016e-07
-4.86744e-06
1.74488e-06
-4.73031e-06
2.71772e-06
-4.5403e-06
3.66476e-06
-4.44843e-06
4.55502e-06
-4.44719e-06
5.37006e-06
-4.52658e-06
6.10089e-06
-4.67456e-06
6.74598e-06
-4.87735e-06
7.30957e-06
-5.11969e-06
7.80004e-06
-5.38527e-06
8.22863e-06
-5.6575e-06
8.60841e-06
-5.92025e-06
8.95342e-06
-6.15841e-06
9.27795e-06
-6.35839e-06
9.59588e-06
-6.50834e-06
9.92016e-06
-6.59812e-06
1.02622e-05
-6.61929e-06
1.06315e-05
-6.5647e-06
1.1035e-05
-6.42818e-06
1.1477e-05
-6.20395e-06
1.19591e-05
-5.88604e-06
1.24801e-05
-5.46756e-06
-4.94003e-06
1.30363e-05
6.95564e-07
-5.56291e-06
1.50085e-06
-5.53552e-06
2.3304e-06
-5.36988e-06
3.14552e-06
-5.26356e-06
3.92182e-06
-5.22349e-06
4.64339e-06
-5.24818e-06
5.30156e-06
-5.33278e-06
5.89373e-06
-5.46958e-06
6.42211e-06
-5.6481e-06
6.89247e-06
-5.85564e-06
7.3131e-06
-6.07813e-06
7.69398e-06
-6.30112e-06
8.04611e-06
-6.51054e-06
8.38091e-06
-6.69322e-06
8.70972e-06
-6.83717e-06
9.04328e-06
-6.93173e-06
9.39131e-06
-6.96736e-06
9.76208e-06
-6.93551e-06
1.01621e-05
-6.82819e-06
1.05957e-05
-6.6376e-06
1.10652e-05
-6.35556e-06
1.15707e-05
-5.97298e-06
-5.47928e-06
1.21099e-05
6.03079e-07
-6.16593e-06
1.27489e-06
-6.20738e-06
1.9673e-06
-6.06239e-06
2.6545e-06
-5.95082e-06
3.31731e-06
-5.88635e-06
3.94196e-06
-5.87288e-06
4.52034e-06
-5.91121e-06
5.04936e-06
-5.99865e-06
5.52987e-06
-6.12864e-06
5.96562e-06
-6.2914e-06
6.36251e-06
-6.47501e-06
6.72793e-06
-6.66654e-06
7.0703e-06
-6.85293e-06
7.3986e-06
-7.02155e-06
7.72198e-06
-7.16059e-06
8.04932e-06
-7.25911e-06
8.38891e-06
-7.30699e-06
8.74808e-06
-7.29472e-06
9.13293e-06
-7.21307e-06
9.54808e-06
-7.05276e-06
9.99653e-06
-6.80401e-06
1.04796e-05
-6.45603e-06
-5.9965e-06
1.09968e-05
5.13013e-07
-6.67894e-06
1.05623e-06
-6.75076e-06
1.61982e-06
-6.62612e-06
2.18711e-06
-6.51821e-06
2.74147e-06
-6.44078e-06
3.27039e-06
-6.40186e-06
3.76651e-06
-6.40739e-06
4.22675e-06
-6.45892e-06
4.65114e-06
-6.55304e-06
5.04201e-06
-6.68225e-06
5.40333e-06
-6.83632e-06
5.74042e-06
-7.00362e-06
6.05954e-06
-7.17205e-06
6.36761e-06
-7.32964e-06
6.67192e-06
-7.46492e-06
6.97977e-06
-7.56699e-06
7.29822e-06
-7.62548e-06
7.63382e-06
-7.63034e-06
7.99234e-06
-7.57161e-06
8.37863e-06
-7.43907e-06
8.79646e-06
-7.22186e-06
9.24843e-06
-6.90802e-06
-6.48396e-06
9.73586e-06
4.13368e-07
-7.09238e-06
8.3099e-07
-7.16861e-06
1.27775e-06
-7.07303e-06
1.73784e-06
-6.97841e-06
2.1932e-06
-6.89623e-06
2.63167e-06
-6.8404e-06
3.04692e-06
-6.82268e-06
3.43644e-06
-6.84845e-06
3.80004e-06
-6.91662e-06
4.13911e-06
-7.02128e-06
4.45628e-06
-7.15345e-06
4.75521e-06
-7.30252e-06
5.04043e-06
-7.45727e-06
5.31718e-06
-7.6064e-06
5.59116e-06
-7.73892e-06
5.86831e-06
-7.84417e-06
6.15462e-06
-7.9118e-06
6.45587e-06
-7.93161e-06
6.77754e-06
-7.89329e-06
7.12462e-06
-7.78617e-06
7.50158e-06
-7.59884e-06
7.91226e-06
-7.31874e-06
-6.93158e-06
8.35982e-06
2.86226e-07
-7.37874e-06
5.84061e-07
-7.46667e-06
9.3266e-07
-7.42176e-06