/*--------------------------------*- C++ -*----------------------------------*\
  =========                 |
  \\      /  F ield         | OpenFOAM: The Open Source CFD Toolbox
   \\    /   O peration     | Website:  https://openfoam.org
    \\  /    A nd           | Version:  9
     \\/     M anipulation  |
\*---------------------------------------------------------------------------*/
FoamFile
{
    format      ascii;
    class       volVectorField;
    location    "11.6";
    object      U;
}
// * * * * * * * * * * * * * * * * * * * * * * * * * * * * * * * * * * * * * //

dimensions      [0 1 -1 0 0 0 0];

internalField   nonuniform List<vector> 
918
(
(2.47629 -0.138942 0)
(0.108704 0.722546 0)
(0.176361 1.12469 0)
(2.31834 0.153729 0)
(-0.0564781 1.23566 -1.20487e-19)
(-0.0924034 0.643931 -5.3351e-18)
(0.521677 0.839331 -3.04934e-19)
(0.282783 0.157436 -3.00176e-20)
(3.00616 -0.0195708 0)
(-0.00986712 0.487358 0)
(-0.0189526 0.611374 0)
(0.607215 0.00650053 0)
(0.0107054 0.439105 0)
(-0.0028948 0.421711 0)
(0.0145257 0.344937 -1.31476e-18)
(-0.00500426 0.745899 -9.20721e-20)
(0.318985 0.0754132 2.15606e-18)
(0.0781923 0.647444 -2.2906e-19)
(1.5289 0.128608 0)
(-0.0291843 0.72051 0)
(0.20079 0.162176 -1.27414e-18)
(3.08302 -0.397388 0)
(2.92444 -0.505997 0)
(1.86114 -0.181111 0)
(0.515097 0.039967 0)
(-0.0252666 0.521507 0)
(-0.00135352 0.494037 1.8712e-18)
(-0.0230212 1.47934 0)
(0.0806941 3.00256 0)
(0.173561 1.83263 0)
(-0.0354218 3.07199 0)
(0.0280418 1.59208 9.26361e-20)
(0.0226111 0.666784 0)
(-0.147425 0.775094 -2.03941e-22)
(-0.193914 1.0291 4.43894e-18)
(-0.0415772 1.04471 0)
(0.744032 -0.00607372 0)
(0.165747 0.253272 6.68901e-19)
(0.976915 1.4922 6.69656e-19)
(0.638442 0.772329 -5.29697e-19)
(0.78768 1.55801 6.41693e-20)
(0.411524 0.844797 -3.31247e-19)
(0.569737 0.315947 2.95219e-20)
(0.305766 0.157773 0)
(0.94477 0.556111 0)
(0.550295 0.313819 1.32676e-19)
(0.266608 0.167918 -1.36145e-19)
(0.871423 -0.05551 0)
(3.02784 -0.00172567 0)
(3.00685 0.017855 0)
(3.20085 -0.417756 0)
(3.04288 -0.0742346 0)
(3.03116 -0.0388556 0)
(0.0168908 0.904438 -1.14294e-18)
(-0.053651 0.991789 0)
(0.00265364 0.464186 0)
(-0.030806 1.00436 0)
(-0.0128011 0.495738 0)
(-0.00252922 0.856055 0)
(-0.0530517 1.14972 0)
(-0.0127414 0.561486 0)
(-0.0285359 1.20928 0)
(-0.00778597 0.648064 0)
(0.78837 0.0113304 0)
(1.17298 -0.00186941 0)
(0.619787 0.0122406 0)
(1.13031 0.0174868 0)
(0.572107 0.00845981 0)
(0.225406 0.921982 1.96797e-18)
(0.0985379 1.2081 0)
(0.176302 1.06604 0)
(0.0331901 0.755774 2.20883e-23)
(0.0372233 0.498055 -2.94326e-18)
(0.0194616 0.747943 0)
(0.00595418 0.422033 0)
(-0.000707721 0.734563 4.54121e-24)
(0.000699345 0.41483 0)
(-0.0169678 0.743235 0)
(-0.012978 0.42805 0)
(0.0521138 0.66007 0)
(0.0506219 0.46691 0)
(0.00967689 0.627474 1.24308e-18)
(0.00161094 0.346572 0)
(-0.0648975 4.63044 0)
(0.00812434 1.41588 9.14084e-20)
(-0.0100296 0.763563 -1.17551e-19)
(0.649116 0.154473 -7.52158e-19)
(0.327236 0.0662015 -7.29529e-19)
(0.659844 0.173158 -2.259e-18)
(0.32518 0.097549 -1.45516e-18)
(0.0792998 0.629085 0)
(0.177406 1.31681 1.91132e-19)
(0.178223 0.731316 -3.04988e-19)
(2.06044 0.260888 0)
(1.10714 0.11842 0)
(3.03313 0.103877 0)
(3.10393 0.446048 0)
(2.83922 0.377429 -1.01164e-17)
(2.57811 0.361302 7.76251e-18)
(-0.0710715 1.32714 0)
(-0.0110271 0.658044 0)
(-0.0155757 2.00629 0)
(-0.0551654 1.42137 0)
(-0.050584 0.716526 0)
(0.452901 0.305963 4.03295e-19)
(0.23204 0.168699 0)
(2.29603 -0.266432 0)
(1.32367 -0.119297 0)
(1.0819 0.0121842 0)
(1.01912 0.0182986 0)
(0.543842 0.0103708 0)
(1.01243 0.0555103 0)
(0.828097 0.0707197 0)
(0.346327 0.0287474 3.36179e-18)
(-0.00547709 0.451424 1.78424e-18)
(-0.027167 0.784818 0)
(-0.0477941 0.848123 0)
(-0.0153658 0.460738 0)
(0.000130693 0.839724 1.82493e-18)
(7.07878e-05 0.487528 0)
(-0.00547919 0.845554 -5.61706e-18)
(-0.0048864 0.496761 1.89522e-18)
(0.0560237 3.68578 0)
(0.0461465 4.11478 0)
(-0.0155772 1.36844 -2.06827e-21)
(-0.0136119 1.32309 0)
(-0.00932871 0.719965 0)
(1.40897 0.0346934 0)
(0.759745 0.0152919 0)
(0.710054 0.014208 0)
(1.41531 -0.0329636 0)
(0.773112 -0.00881917 0)
(0.331661 0.49403 -8.39858e-19)
(0.161136 0.239049 0)
(0.33484 0.524344 9.41446e-20)
(0.168232 0.276367 0)
(1.2194 1.36297 1.70711e-19)
(0.764246 0.727996 -4.00986e-19)
(0.408516 1.41829 0)
(0.600765 1.5231 0)
(0.300547 0.812004 0)
(0.14963 0.363988 -4.45416e-19)
(0.625035 0.288415 0)
(0.321776 0.137932 4.00167e-19)
(1.40142 1.28278 0)
(1.55804 1.14685 0)
(0.858549 0.651791 4.6978e-19)
(1.70357 0.936218 0)
(1.04994 0.431069 2.27272e-20)
(1.47237 0.00801354 0)
(1.50061 -0.0293171 0)
(0.801624 -0.00446981 0)
(1.95028 -0.199827 0)
(1.65057 -0.148237 0)
(1.05205 -0.0889989 0)
(3.06126 0.164834 0)
(3.03105 0.0687646 0)
(3.01022 0.0531448 0)
(0.0320256 1.61093 6.06494e-19)
(0.0161016 0.833847 0)
(0.015412 1.6941 1.07669e-18)
(0.0016147 0.935855 -9.68309e-19)
(0.0632819 1.16237 1.92956e-19)
(0.0469861 1.004 0)
(0.0387142 0.537258 0)
(-0.0304865 1.03428 0)
(-0.0080275 0.533883 0)
(0.0161037 1.59247 -4.43097e-21)
(-0.0185445 0.855428 0)
(-0.0535821 1.55647 -2.25898e-19)
(-0.0161239 0.806193 4.3736e-19)
(-0.00330414 1.06285 0)
(0.00991957 1.07992 0)
(-0.000687585 0.550303 0)
(0.00737824 1.22499 0)
(-0.000429913 0.643322 0)
(1.46379 -0.00440882 0)
(0.786492 0.00768927 0)
(1.43726 0.0327838 0)
(0.760286 -0.000712467 0)
(0.676363 0.0052122 0)
(1.26412 0.0164512 0)
(1.20514 0.0471823 0)
(0.660967 0.0154088 0)
(-0.00580106 1.42077 -1.71019e-20)
(0.000184149 1.37708 0)
(0.00482002 0.732923 0)
(0.00172878 0.417221 0)
(0.293059 0.847587 0)
(0.260811 0.410071 -2.88081e-19)
(-0.000993656 0.637197 0)
(-0.00850653 0.367856 0)
(0.00925783 4.39111 0)
(-0.0465668 4.63033 0)
(-0.01847 4.57458 0)
(-0.0689925 3.27314 2.05864e-20)
(-0.0589469 4.5194 0)
(-0.0493537 4.08207 0)
(0.00371155 0.799471 1.09104e-20)
(0.0126605 1.52167 1.65273e-19)
(-0.0348546 1.46108 1.20783e-19)
(-0.00801411 0.804125 0)
(0.675376 0.106884 1.15418e-18)
(0.330108 0.0442159 -1.13118e-18)
(0.151267 1.1538 0)
(0.102441 0.584509 -2.70298e-19)
(0.119386 1.25281 -8.76463e-19)
(0.0518908 0.697837 8.7198e-19)
(0.809485 0.0239996 0)
(1.55717 0.0475747 0)
(1.70994 0.127597 0)
(0.920017 0.0444844 0)
(0.00644799 1.2409 0)
(0.0240204 1.25255 0)
(0.00352707 0.660432 0)
(0.499024 0.326107 1.20989e-18)
(0.451528 0.320487 -1.39428e-18)
(0.242667 0.169833 0)
(1.91911 0.149744 1.15166e-19)
(1.1256 0.0914468 0)
(1.71265 0.117051 0)
(0.878412 0.0220349 0)
(0.686865 0.0858939 0)
(0.706623 0.0462865 -5.40609e-18)
(0.349943 0.0325193 1.99892e-18)
(0.0090401 0.80711 1.70338e-18)
(0.00218977 0.462445 4.08094e-20)
(-0.0108778 1.40842 -3.59637e-20)
(0.00613613 1.38675 1.37195e-18)
(-0.0149832 0.848955 6.32308e-20)
(-0.0119261 0.524486 -2.54036e-22)
(-0.107514 1.00068 -1.16986e-18)
(-0.0529602 1.3532 8.37556e-19)
(-0.0175323 1.35275 -1.36381e-18)
(1.42027 -0.0173314 0)
(1.44055 0.0200158 0)
(0.768709 -0.000367041 0)
(1.4528 0.0252825 0)
(1.36405 0.0461506 0)
(0.761933 0.0202414 0)
(1.30226 -0.00231639 0)
(1.31985 -0.00602712 0)
(0.695808 -0.00111251 0)
(0.31331 0.48683 -9.18852e-19)
(0.165807 0.249379 0)
(0.161549 0.317116 1.37744e-19)
(0.318186 0.603067 1.1284e-18)
(0.316539 0.565129 -6.68035e-19)
(0.161284 0.29026 1.30538e-18)
(0.285969 0.738704 2.19397e-18)
(0.152162 0.391666 3.95843e-19)
(0.652261 0.218461 1.5415e-18)
(0.642711 0.260416 4.00376e-19)
(0.324557 0.117754 7.51522e-19)
(1.89057 0.701491 -6.04182e-19)
(1.14993 0.329831 -7.05508e-19)
(-0.0367088 1.69516 4.6306e-19)
(-0.0125774 0.919613 0)
(1.59517 0.0224803 0)
(1.51583 0.0645038 0)
(0.849146 0.026211 0)
(-0.00355988 1.38473 0)
(0.00507124 0.729577 2.50758e-18)
(0.00464973 0.731252 0)
(0.00207004 0.415098 -2.45436e-18)
(-0.0102805 1.38627 5.98712e-19)
(-0.00947559 1.4225 0)
(0.34592 0.501746 2.58927e-19)
(0.369908 0.561471 -8.66126e-19)
(0.176571 0.264922 7.83855e-19)
(-0.0257151 0.767147 -1.67266e-18)
(-0.0258731 0.689765 0)
(-0.0153666 0.412728 0)
(0.0287227 1.51737 -1.26285e-20)
(0.0294822 1.5436 -3.64992e-19)
(0.0164583 0.805583 -1.55046e-20)
(0.21676 1.06488 8.93731e-19)
(0.121522 0.519891 -5.94729e-19)
(0.00981724 1.49727 7.30771e-19)
(0.0541396 1.36799 -8.16206e-19)
(0.0255571 0.769327 3.58727e-20)
(0.00744364 1.36613 -3.8285e-18)
(-0.000276416 1.39327 4.43362e-18)
(0.00376398 0.829767 1.74209e-18)
(-0.0138663 0.805051 -1.73504e-18)
(-0.00431819 0.481383 -1.74776e-18)
(-0.0106659 1.41685 -4.52331e-18)
(-0.01524 1.40031 4.61302e-18)
(0.295114 0.694701 0)
(0.308623 0.652884 -2.30122e-18)
(0.156478 0.341306 9.96271e-19)
(0.288794 0.817841 1.19158e-18)
(0.14238 0.439273 -1.83854e-18)
(2.03474 0.316442 4.1611e-19)
(2.02385 0.537484 0)
(1.20376 0.21718 -4.02671e-19)
(-0.0735343 1.61663 -4.80356e-21)
(-0.0164223 1.6767 0)
(-0.0168146 0.912791 0)
(0.230602 0.965932 -3.24185e-19)
(0.253648 0.889063 -7.10233e-19)
(0.131286 0.475104 1.33131e-18)
(3.16438 -0.442924 0)
(3.34726 -0.414741 1.81074e-18)
(0.0617894 3.59027 0)
(0.0461459 2.93788 0)
(3.15926 0.24986 1.41838e-20)
(3.12357 0.50624 3.70785e-18)
(0.0248326 3.33845 -2.7632e-20)
(0.0102771 2.58409 0)
(-0.0405493 1.19661 1.56505e-18)
(0.198956 1.33465 0)
(3.42493 1.59882 -3.26704e-19)
(3.1745 0.272419 -2.96138e-20)
(3.14798 -0.11893 0)
(3.10047 -0.000473266 3.6651e-22)
(0.0372409 2.61031 0)
(0.145623 3.31012 0)
(-0.0633368 2.59924 0)
(-0.0316242 3.44554 3.16607e-19)
(-0.0327727 3.50874 1.99948e-19)
(2.63974 0.0473304 -1.35911e-20)
(3.04292 0.0295834 0)
(3.14928 0.0840526 0)
(-0.0551737 4.58935 0)
(-0.047876 2.99802 0)
(-0.0782902 3.04295 0)
(0.639239 3.0869 2.70064e-19)
(3.33879 -0.422555 0)
(3.01126 -0.345882 0)
(3.1699 -0.0531232 2.27456e-18)
(3.29269 -0.328767 -2.73889e-18)
(3.10381 -0.125824 0)
(-0.0636709 4.52208 0)
(0.00975012 4.02144 0)
(0.0032603 4.31575 0)
(-0.0342292 3.20824 0)
(-0.0171858 2.97228 0)
(-0.0383958 2.55778 0)
(2.97274 -0.0037177 0)
(2.85198 0.0481308 -1.804e-20)
(2.2056 3.0024 -3.29906e-19)
(3.15694 0.0443723 -2.27561e-18)
(3.19038 0.278113 2.76617e-18)
(3.0828 0.117288 0)
(3.39552 0.328729 2.08458e-18)
(3.35702 0.484286 -2.70335e-18)
(3.07123 0.418366 0)
(-0.0537151 3.25574 0)
(0.00773454 3.18191 8.52989e-20)
(-0.029415 2.49554 -6.04129e-20)
(3.68177 0.544435 2.26689e-18)
(3.45582 0.20269 0)
(-0.149214 1.27162 -2.1799e-18)
(-0.0589973 0.881612 -1.35945e-19)
(-0.0791226 1.3396 3.00508e-18)
(-0.0318232 1.27254 -9.05339e-19)
(0.00262439 1.09162 0)
(-0.0266764 1.2393 6.99201e-19)
(-0.113882 1.38786 2.16034e-18)
(-0.0580751 1.34067 -1.32233e-18)
(-0.07704 1.32054 0)
(1.32746 0.611745 0)
(1.2172 0.702877 0)
(3.51217 1.99975 9.59805e-19)
(2.99907 1.90466 -1.19927e-18)
(3.80116 1.68081 0)
(3.33873 1.13812 0)
(3.34958 0.280254 -3.9116e-18)
(2.89925 0.172943 4.83321e-18)
(3.35104 -0.155805 0)
(2.85407 -0.0763634 0)
(3.43642 0.0427544 0)
(3.59383 0.14477 0)
(3.28683 0.119732 0)
(3.5504 0.298343 0)
(3.40845 0.292917 0)
(3.32757 0.21792 0)
(0.085776 2.82103 0)
(0.0287363 2.11563 0)
(0.113981 3.06867 0)
(0.0899221 2.22231 0)
(0.199102 3.60568 0)
(0.134586 2.69417 -5.58992e-19)
(0.0399786 3.614 0)
(0.00378504 3.0183 4.05067e-19)
(-0.0318311 3.18311 -5.16906e-19)
(-0.067624 2.87647 0)
(-0.0306292 2.28169 0)
(-0.0827201 2.97353 0)
(-0.057677 2.10736 0)
(-0.128535 4.71332 -2.46717e-19)
(-0.0901471 3.8811 2.79055e-19)
(-0.0830586 3.75364 3.10631e-19)
(-0.0553521 2.96637 0)
(-0.11397 3.73903 -4.60351e-19)
(-0.0430025 3.1434 -2.9575e-19)
(-0.102989 4.74274 1.9317e-19)
(-0.111586 4.40791 -3.52707e-19)
(-0.0846571 4.28637 -3.80877e-19)
(3.03726 0.0862015 3.3529e-18)
(2.29411 0.0316011 -4.22273e-18)
(2.89869 0.13062 -3.32193e-18)
(2.21797 0.0724754 4.14944e-18)
(3.36516 0.0256746 0)
(2.63958 -0.00323452 0)
(3.4477 0.0877905 0)
(3.31548 0.0171755 0)
(2.70017 0.00805891 0)
(3.66953 0.232788 0)
(3.43032 0.0918804 0)
(2.85101 0.0541912 0)
(-0.0228005 4.23083 -1.20448e-20)
(-0.0586268 4.60247 0)
(-0.0623129 4.46446 0)
(-0.0779698 3.41385 8.81765e-20)
(-0.0391135 2.70035 -3.47292e-21)
(-0.0918639 4.64191 1.1571e-19)
(-0.102575 4.47099 -1.16923e-19)
(-0.0880444 4.01983 0)
(-0.0645195 3.95377 0)
(-0.0339926 4.06546 0)
(-0.0791287 3.363 0)
(-0.0462387 2.40472 0)
(0.926404 3.63585 -6.16909e-19)
(0.90558 2.82816 -1.79934e-19)
(0.436085 2.09284 -2.29129e-19)
(0.252504 2.33405 6.98726e-19)
(1.00388 4.21401 2.64046e-19)
(3.43284 -0.167716 0)
(3.322 -0.256716 0)
(2.88298 -0.189612 0)
(3.47031 -0.0646041 0)
(3.34581 -0.148004 0)
(3.44892 -0.261172 0)
(3.51947 -0.283757 0)
(3.57942 -0.281355 0)
(3.22549 0.0927011 3.61345e-18)
(2.5564 0.064223 -4.56923e-18)
(3.09831 0.105787 -3.55686e-18)
(2.51149 0.0561839 4.42563e-18)
(2.20085 3.37153 0)
(1.70613 2.90528 -4.53334e-19)
(2.52838 3.30636 -4.09412e-19)
(2.32263 2.4864 5.44004e-19)
(0.797956 1.24869 2.73552e-18)
(1.46602 0.216182 1.34304e-18)
(3.70769 0.296779 0)
(3.87418 0.561554 -1.84723e-18)
(3.27828 0.238809 -8.22949e-20)
(3.7334 0.430145 0)
(0.258315 1.32272 1.80822e-18)
(-0.00537088 1.20675 -2.89562e-18)
(0.0712347 0.773335 1.62629e-18)
(0.291924 0.473777 -7.53053e-19)
(0.197827 1.4004 8.7665e-19)
(0.0574187 1.24472 0)
(0.0624107 1.09623 -1.13963e-18)
(0.207783 1.45528 -4.11977e-18)
(0.348837 1.57552 0)
(0.00851456 1.29009 1.20275e-19)
(-0.00986373 1.45728 -1.3478e-18)
(-0.0412003 1.30291 1.95941e-18)
(-0.0577194 1.41764 0)
(-0.020681 1.38212 0)
(0.700487 1.07916 0)
(2.49282 2.48288 -1.06887e-18)
(2.59485 2.1352 3.99046e-19)
(2.7462 2.84065 0)
(3.17248 3.02792 -3.95809e-19)
(3.11909 2.3754 2.80152e-20)
(0.834143 0.61267 -1.8332e-18)
(1.59899 0.705564 -1.64945e-20)
(1.26588 0.461972 8.74548e-19)
(1.31923 0.869025 5.97975e-20)
(0.9735 0.655707 -2.38172e-18)
(1.50794 0.732801 0)
(2.04451 1.12169 1.46107e-18)
(2.08447 1.03541 0)
(1.45734 0.812581 0)
(1.09656 0.566205 0)
(3.38578 2.17059 1.00736e-18)
(3.92294 0.746875 -1.86359e-18)
(3.81597 1.19715 0)
(3.49754 0.744676 0)
(1.42151 0.369937 1.33517e-18)
(3.28439 1.84377 -8.5291e-19)
(2.87782 1.66482 1.54834e-18)
(3.76672 1.36526 -1.83481e-18)
(3.09878 0.114216 2.46028e-18)
(3.16903 0.180492 -2.57533e-18)
(2.6626 0.0914461 0)
(3.3061 -0.0402176 0)
(3.20064 -0.0846748 -2.36333e-18)
(2.63126 -0.0323326 2.34251e-18)
(3.95673 0.0917793 0)
(3.76071 0.144593 0)
(3.69375 0.154998 0)
(3.58849 0.204382 0)
(3.83266 0.0584391 0)
(3.7261 0.0518044 0)
(-0.0468593 2.55374 0)
(-0.0425589 2.05579 0)
(0.331832 3.98334 -4.14814e-19)
(0.645104 3.32292 -1.62405e-19)
(0.249433 3.03464 -3.63273e-19)
(0.335478 2.54956 5.81928e-19)
(0.43477 4.00088 0)
(0.437912 4.65027 -5.11823e-19)
(0.352239 4.70741 0)
(0.888197 4.38017 -3.79828e-19)
(0.659615 3.84217 9.69972e-19)
(0.56573 4.63042 4.48666e-19)
(0.713247 4.17378 -1.90061e-19)
(0.573028 4.3042 1.52893e-19)
(0.883954 4.62514 -6.66476e-19)
(0.718411 4.6414 0)
(0.828075 4.56953 5.06689e-19)
(-0.0165107 4.54227 -1.81775e-19)
(-0.0298867 3.6271 0)
(0.0788561 4.27041 5.49576e-19)
(-0.0230683 4.36584 0)
(-0.0141729 3.45325 -4.50447e-19)
(-0.0211983 2.90363 0)
(-0.120936 4.32482 -2.92114e-19)
(-0.127706 4.66194 0)
(-0.0707787 3.83767 0)
(-0.05938 3.77965 3.28532e-19)
(-0.0588031 3.84486 1.04137e-20)
(-0.044486 3.67987 6.25936e-19)
(-0.044621 2.91948 4.07064e-21)
(-0.134445 4.67685 1.81579e-19)
(-0.125182 4.71433 1.03924e-19)
(-0.0252857 2.71182 0)
(-0.00449221 2.22087 0)
(-0.0660873 4.75965 4.89513e-19)
(-0.0731043 4.31895 4.29594e-19)
(-0.105725 4.57746 -5.60568e-19)
(-0.00995407 4.73531 0)
(-0.0902973 4.46202 -3.12642e-19)
(-0.125686 4.07757 1.29121e-19)
(-0.0953543 4.17723 -4.16306e-20)
(-0.091354 4.6927 -2.20559e-19)
(-0.10037 4.20609 -6.89453e-20)
(-0.0968206 4.15754 3.0776e-19)
(2.87444 0.060124 -2.35984e-18)
(2.86318 0.0484082 2.26927e-18)
(2.34184 0.0339831 0)
(3.51925 0.187189 3.04125e-18)
(2.71441 0.124326 -3.29964e-18)
(2.26499 0.0628646 3.60438e-18)
(3.69328 0.328018 -4.00976e-19)
(3.20826 -0.0493366 0)
(3.16974 -0.0147656 2.23405e-18)
(2.68861 -0.0128938 -2.21644e-18)
(3.87325 0.117621 -1.25069e-19)
(3.76786 0.0986168 1.07685e-18)
(4.15621 0.167365 0)
(4.22634 0.175025 -3.7456e-19)
(4.01641 0.140933 0)
(3.69955 0.152107 0)
(4.03274 0.0932869 0)
(3.71318 0.08581 0)
(4.18457 0.109684 7.84214e-19)
(4.13788 0.0758211 -1.74528e-18)
(4.13847 0.10997 -8.46841e-19)
(4.18468 0.112336 -9.23075e-19)
(4.21199 0.222141 1.77156e-18)
(3.84869 0.183823 0)
(4.05313 0.292778 0)
(-0.0852333 4.50594 -1.36626e-19)
(-0.0373683 4.58326 -1.17247e-20)
(-0.0752715 4.61136 0)
(-0.0617959 4.10683 1.39085e-19)
(-0.0560245 4.13191 2.25561e-20)
(-0.0604487 3.99055 -2.18818e-20)
(-0.0861484 3.45221 2.61616e-19)
(-0.152128 3.92706 -1.45396e-20)
(-0.11524 4.06387 7.50454e-20)
(-0.0788979 3.32161 -1.3227e-19)
(-0.0279196 2.8507 1.58434e-19)
(-0.0888384 4.45837 5.22131e-21)
(-0.104662 4.62653 1.72072e-19)
(1.21076 4.32243 3.51345e-19)
(1.12604 4.49749 7.27439e-19)
(1.70288 3.42268 4.38321e-19)
(1.28169 3.52272 1.72969e-19)
(1.2632 2.85409 0)
(0.554642 2.36366 2.75962e-19)
(0.469867 1.77865 3.32111e-19)
(0.344485 2.60614 1.53477e-20)
(0.489265 3.21804 -1.16232e-18)
(0.631331 3.17822 8.78759e-19)
(0.435771 2.44625 0)
(0.296266 2.00652 -5.58978e-19)
(0.250312 3.10157 1.39592e-18)
(0.267953 2.75155 -3.22244e-20)
(0.154394 2.30366 -1.75028e-18)
(0.608447 1.45125 1.47179e-18)
(0.590118 1.65905 0)
(3.58361 -0.0754396 8.63257e-20)
(3.61854 -0.254352 -7.25063e-20)
(3.72122 -0.218087 -1.26495e-18)
(3.75919 -0.12645 1.2808e-18)
(3.67613 -0.0492803 0)
(2.41334 3.83604 0)
(2.59139 3.88206 0)
(2.86168 3.58772 0)
(2.71156 3.61688 0)
(0.879205 1.43499 -3.63038e-21)
(0.630399 1.07025 0)
(1.73509 3.43905 1.50558e-20)
(1.42873 3.50634 0)
(1.35066 3.01387 -1.2891e-18)
(1.4316 2.9484 8.27596e-19)
(1.81572 0.310781 0)
(1.45266 0.263427 3.52346e-19)
(2.43459 0.356235 2.19095e-18)
(1.80738 0.283203 -7.85682e-19)
(1.44169 0.111639 -2.49389e-18)
(4.25771 0.773526 -2.56283e-18)
(3.86877 0.981126 -3.60443e-20)
(3.3267 0.836025 2.06647e-18)
(3.89154 0.733069 1.8116e-18)
(3.14549 0.45966 -3.04228e-18)
(2.93447 0.447399 3.74739e-19)
(3.22218 0.67689 -8.18208e-19)
(3.00451 0.675212 0)
(3.77601 0.553261 1.53572e-18)
(4.10428 0.616576 0)
(4.10005 0.760497 0)
(4.03347 0.406135 8.22805e-19)
(4.28979 0.628335 -3.04799e-20)
(4.23211 0.699823 -4.52094e-19)
(4.16048 0.627764 0)
(3.62186 0.12661 1.71521e-18)
(4.19059 0.177318 2.14037e-18)
(4.09333 0.14673 -1.67652e-18)
(4.14011 0.233644 -1.44029e-18)
(3.75266 0.232292 -2.15263e-18)
(3.32158 0.370328 0)
(3.41554 0.296198 0)
(2.57254 0.18825 -1.26432e-18)
(2.12358 0.117769 4.76246e-19)
(4.04243 0.344256 1.93676e-18)
(4.28239 0.421546 -2.34403e-18)
(4.28634 0.477227 2.06634e-18)
(4.1618 0.480346 0)
(4.25279 0.326854 0)
(4.26228 0.315423 -9.77504e-19)
(4.21438 0.307668 -1.59357e-18)
(2.24364 3.5132 6.20358e-19)
(1.96596 3.27728 -6.84649e-19)
(1.48346 2.41309 -1.03609e-18)
(1.22173 2.04847 2.67967e-19)
(0.910553 1.41849 -2.64161e-18)
(0.816825 1.24968 9.257e-19)
(0.618295 0.929959 -1.89252e-21)
(1.14738 1.83312 -1.1428e-18)
(1.17549 1.93386 1.70594e-18)
(1.00327 1.74415 5.08124e-19)
(0.808514 1.32346 -5.14779e-19)
(0.653094 1.10281 0)
(2.48222 2.6359 -1.15483e-19)
(0.743365 1.16816 8.62806e-19)
(0.965728 0.921736 1.16282e-18)
(0.789352 0.838398 1.34682e-18)
(1.12232 0.773102 1.3481e-18)
(1.51685 1.07809 -2.28119e-18)
(1.43176 1.10702 1.84851e-18)
(1.03961 0.794307 -6.80691e-19)
(0.847002 0.589436 1.50281e-18)
(1.65091 0.498649 -7.79323e-19)
(1.59677 0.519762 0)
(1.26995 0.415908 4.90164e-21)
(2.55838 1.53696 7.77956e-19)
(2.13526 1.29654 -2.81779e-18)
(1.73974 1.21812 1.00082e-20)
(1.71269 1.12104 0)
(2.88579 2.60428 8.74161e-19)
(3.42993 2.73042 1.03647e-18)
(3.24323 2.91621 -1.19474e-18)
(3.52706 2.73694 -4.28272e-19)
(3.44659 2.56726 -1.35266e-19)
(3.47798 2.76093 1.39084e-19)
(3.671 2.24564 -1.67806e-18)
(3.68134 2.47088 4.01889e-19)
(3.75218 2.4046 0)
(3.75178 2.1634 -5.79976e-19)
(4.05163 1.05819 5.80318e-19)
(4.26101 0.975256 1.00194e-18)
(4.28957 0.947833 1.0109e-18)
(4.05248 1.31087 -1.149e-18)
(4.08256 1.32786 0)
(4.13035 1.21218 0)
(3.36077 1.23038 -1.47182e-20)
(2.45826 0.671002 0)
(2.75977 0.744016 9.31353e-19)
(3.27013 0.87848 -2.57765e-20)
(3.78373 1.52148 5.10482e-18)
(3.58405 1.75158 1.31079e-18)
(3.50242 1.53469 -1.3412e-18)
(3.07608 1.37301 1.43802e-18)
(2.80663 1.37897 8.25212e-19)
(2.35968 1.17231 -7.99227e-19)
(3.67164 -0.0862278 1.98205e-18)
(3.8946 -0.0296631 0)
(3.85883 -0.0672397 1.34029e-18)
(3.74268 -0.0600665 -2.98387e-18)
(3.98054 0.0363749 1.45994e-18)
(3.90468 0.112462 -3.07867e-18)
(3.74025 0.127007 0)
(3.55689 0.172872 -6.27662e-19)
(3.81212 0.122378 1.60307e-18)
(3.69218 0.190841 -8.21429e-19)
(3.60063 0.170559 5.89879e-19)
(-0.0868095 2.65092 0)
(-0.0582948 3.44493 0)
(-0.0393624 2.51351 0)
(-0.0259516 2.02252 0)
(0.0258618 3.95046 6.79611e-19)
(0.120482 3.73393 -1.7635e-19)
(0.28742 4.62542 -2.31268e-19)
(0.225111 4.44851 2.43869e-19)
(-0.0462861 4.29874 -5.02779e-19)
(-0.011195 4.32832 3.77507e-19)
(0.0745005 3.88468 2.18724e-20)
(-0.0054965 3.58268 -4.71408e-19)
(-0.0241825 3.34711 -6.29893e-20)
(-0.0542023 3.701 -5.73951e-20)
(0.128696 4.45808 -5.86981e-19)
(0.155578 4.27876 0)
(0.247518 4.6191 2.96128e-19)
(0.238607 4.68742 2.53393e-19)
(0.568294 4.43839 -2.26213e-19)
(0.393633 3.80342 0)
(0.443342 3.65336 -1.1156e-18)
(0.545163 4.02093 7.90534e-19)
(0.452096 4.55153 -6.14997e-19)
(0.342965 4.42623 3.30978e-19)
(0.277679 4.16186 0)
(-0.0573571 4.7297 -5.56537e-19)
(-0.0929774 4.48174 -6.43121e-19)
(-0.0974134 4.69799 0)
(-0.0464325 4.32552 -6.11881e-21)
(-0.0412126 4.60873 2.75643e-19)
(-0.13531 3.9244 4.52862e-20)
(-0.0675406 3.55225 -6.63387e-19)
(-0.114545 3.97533 1.76883e-19)
(-0.16189 4.52749 2.35657e-19)
(-0.0985037 4.34561 0)
(-0.0812623 3.94816 0)
(-0.0903709 3.00359 2.05144e-19)
(-0.0619367 3.72209 -6.40049e-20)
(-0.0875049 3.70242 0)
(-0.0926763 2.78367 1.6168e-19)
(-0.0493934 2.28543 -3.13113e-19)
(3.75949 0.0306316 0)
(3.73017 0.00598209 -2.03004e-19)
(4.17891 0.0649452 -1.4379e-18)
(4.08749 0.0433627 0)
(3.87363 0.0151115 0)
(4.14955 0.0347942 -1.23994e-20)
(4.10015 0.032993 2.37553e-18)
(4.00096 0.0778761 2.84131e-18)
(3.75763 0.116734 0)
(3.56033 0.108286 0)
(4.01472 0.0907598 1.41538e-18)
(3.70594 0.113636 0)
(3.47543 0.126993 0)
(-0.100157 4.64479 0)
(-0.119518 4.63352 1.06954e-20)
(-0.0956253 4.6746 6.44979e-20)
(-0.0748985 3.90643 0)
(-0.126627 4.53292 1.11982e-19)
(-0.0838901 4.28555 -6.44237e-20)
(-0.0703585 4.01665 0)
(1.39703 4.20201 0)
(1.17814 4.55335 -1.30038e-18)
(1.19713 4.47581 0)
(1.54285 4.45615 1.48937e-18)
(1.55995 4.07751 0)
(1.46787 4.33373 -6.09393e-19)
(1.03594 2.29976 -3.41348e-20)
(0.729788 1.69123 -1.75475e-18)
(0.608242 1.26246 2.14084e-18)
(0.7245 1.88299 3.9898e-19)
(0.993294 2.48223 0)
(1.05865 2.43696 0)
(0.735828 1.73384 0)
(0.545935 1.36766 -1.403e-18)
(1.20965 3.81214 -9.85424e-19)
(1.14121 3.04599 -2.36197e-19)
(1.33714 3.45369 1.93176e-19)
(0.606753 2.08565 0)
(0.631911 1.98947 0)
(0.471227 1.61017 -3.9471e-19)
(0.969309 2.77545 0)
(2.67656 3.55869 0)
(2.40656 3.03651 -1.45619e-18)
(2.56471 3.04418 -8.58979e-20)
(2.43351 3.42107 0)
(2.31396 3.18309 2.22365e-18)
(3.26322 3.06668 -3.90284e-19)
(3.10194 3.28971 0)
(3.08701 3.11633 6.31858e-19)
(2.85292 3.39665 0)
(2.87418 3.19564 0)
(1.2426 2.06259 -9.34758e-19)
(1.45064 2.46477 -7.01964e-19)
(1.78429 3.0366 1.20924e-18)
(1.72616 3.01752 -3.63625e-19)
(1.09184 1.87399 0)
(1.23493 2.26557 4.72847e-19)
(0.739744 1.32653 -7.19095e-19)
(0.598673 1.07489 -5.96454e-22)
(1.94687 3.72766 0)
(2.20266 3.75736 -5.42514e-19)
(2.32488 3.97335 0)
(2.31564 0.527169 0)
(1.6444 0.343671 0)
(1.2334 0.279654 0)
(2.24473 0.554839 -1.4663e-18)
(1.66774 0.4061 8.18476e-19)
(2.16176 0.127602 -9.8406e-19)
(2.64609 0.294198 0)
(2.48586 0.298902 4.13207e-19)
(1.78701 0.134632 1.63194e-18)
(1.54386 0.0808194 -1.03622e-18)
(0.767287 1.59283 8.61868e-19)
(0.989208 1.86399 0)
(0.554104 1.47193 1.56925e-18)
(0.544129 1.64325 -1.43249e-18)
(0.786206 1.84909 -9.94707e-19)
(2.1176 2.50438 1.34183e-18)
(2.13922 2.75505 0)
(1.63747 1.7243 -2.77696e-19)
(2.06289 2.03249 1.74943e-18)
(1.41129 1.33443 -4.25664e-19)
(1.64255 1.35348 4.52904e-19)
(2.1654 1.54516 1.02699e-18)
(2.49684 1.69692 0)
(2.3279 1.89007 0)
(2.06575 1.64373 0)
(3.93638 2.05425 3.85488e-19)
(3.76279 1.87367 -1.26322e-18)
(3.81298 2.00898 1.04618e-18)
(3.89858 1.75208 -1.00792e-18)
(4.13628 1.65149 0)
(4.09038 1.81532 -2.98024e-19)
(2.88523 1.16848 -1.90015e-18)
(3.01063 1.16392 -2.41402e-18)
(2.3822 1.05532 1.45881e-18)
(2.18735 0.946648 -1.42366e-18)
(2.50826 0.851262 -1.1799e-18)
(2.22411 0.786526 1.45094e-18)
(4.00835 0.0323723 -1.52675e-18)
(4.05265 0.0393432 3.12573e-18)
(3.76735 -0.0668522 1.89835e-18)
(3.79049 -0.0748044 -2.28369e-18)
(3.9587 0.0088823 0)
(4.05559 0.0211222 -3.72446e-18)
(0.0691045 4.73469 1.07023e-19)
(0.0402359 4.70834 0)
(0.159941 4.70793 9.56344e-19)
(0.180825 4.72576 -8.70134e-19)
(0.200531 4.69646 4.31199e-19)
(0.0936513 4.64125 0)
(-0.122898 4.73512 0)
(-0.127548 4.41095 -6.25707e-20)
(-0.126234 4.3584 5.61009e-20)
(-0.13415 4.48504 7.59632e-21)
(-0.125337 4.6751 -1.02164e-19)
(-0.103782 4.66426 5.54044e-20)
(1.8695 4.01603 -1.64449e-18)
(1.80612 4.02635 1.74235e-18)
(1.65538 4.38036 -8.56138e-19)
(1.68062 4.27989 7.62467e-20)
(2.22534 4.04171 0)
(1.82205 4.17559 -6.41376e-19)
(1.94948 3.91541 6.21984e-19)
(1.7905 4.3421 8.36274e-19)
(2.0462 4.19405 0)
(2.20283 4.07415 0)
(1.13944 3.67149 1.49808e-18)
(0.834443 2.86388 2.03099e-18)
(0.961786 3.04303 -1.39472e-18)
(0.752763 3.02396 -2.32827e-19)
(0.899761 3.77305 4.67523e-19)
(0.721901 3.41113 -1.13699e-18)
(0.767308 1.5069 -1.22162e-18)
(0.76621 1.35532 0)
(0.619177 1.14659 -1.34259e-18)
(1.1379 2.11879 0)
(1.11577 2.20575 0)
(1.40267 2.23643 -1.09575e-18)
(1.09784 2.05996 -1.04073e-18)
(1.05062 2.07788 1.10426e-18)
(1.07849 1.55649 0)
(1.4641 1.80748 -6.03997e-19)
(1.67621 2.16837 -8.57147e-19)
(1.45704 2.12744 0)
(0.903584 1.8521 7.16921e-19)
(0.816191 1.70816 0)
(2.93721 2.30275 -1.84675e-18)
(3.32541 2.46534 2.60741e-18)
(3.29465 2.19124 -2.59149e-18)
(2.65459 2.0447 -2.31424e-19)
(2.76703 1.95848 -9.74944e-19)
(1.29994 2.24009 7.99841e-19)
(1.35434 2.29851 -1.36527e-18)
(1.49731 2.37999 1.79953e-18)
(1.8328 2.60832 -1.16943e-18)
(1.92493 2.98368 -1.5705e-18)
(1.60316 2.5436 -1.18874e-19)
(1.67212 2.68571 1.37618e-18)
(1.8518 2.74548 9.69531e-20)
(2.05242 3.04406 6.51856e-19)
)
;

boundaryField
{
    wall-4
    {
        type            noSlip;
    }
    velocity-inlet-5
    {
        type            fixedValue;
        value           uniform (3 0 0);
    }
    velocity-inlet-6
    {
        type            fixedValue;
        value           uniform (0 1 0);
    }
    pressure-outlet-7
    {
        type            zeroGradient;
    }
    wall-8
    {
        type            noSlip;
    }
    frontAndBackPlanes
    {
        type            empty;
    }
}


// ************************************************************************* //
