/*--------------------------------*- C++ -*----------------------------------*\
  =========                 |
  \\      /  F ield         | OpenFOAM: The Open Source CFD Toolbox
   \\    /   O peration     | Website:  https://openfoam.org
    \\  /    A nd           | Version:  9
     \\/     M anipulation  |
\*---------------------------------------------------------------------------*/
FoamFile
{
    format      ascii;
    class       volScalarField;
    location    "7.01";
    object      k;
}
// * * * * * * * * * * * * * * * * * * * * * * * * * * * * * * * * * * * * * //

dimensions      [0 2 -2 0 0 0 0];

internalField   nonuniform List<scalar> 
2268
(
0.000149299
0.000371193
0.000544816
0.000680132
0.000790813
0.000883742
0.000962974
0.00103102
0.00108938
0.00113947
0.00118521
0.0012264
0.00126279
0.00129069
0.0013006
0.00127523
0.00118749
0.00106102
0.000936124
0.000823064
0.0007131
0.000562735
0.000274299
0.000321712
0.000856646
0.00121469
0.00149725
0.00172917
0.00192383
0.00208969
0.00223233
0.00235536
0.00246166
0.00255389
0.00263527
0.00270472
0.00275576
0.00277319
0.00273102
0.00259754
0.00237247
0.00212367
0.00187853
0.00163546
0.00126013
0.000604816
0.000457157
0.00114619
0.00158836
0.00193772
0.00222542
0.0024669
0.00267214
0.00284802
0.00299936
0.00312992
0.00324283
0.00334116
0.00342317
0.00348128
0.00349955
0.00345328
0.00331653
0.00309097
0.00282923
0.00254959
0.0022325
0.00175218
0.000849327
0.000573169
0.00137891
0.00187769
0.00226979
0.00259307
0.00286447
0.00309483
0.00329189
0.00346125
0.00360726
0.00373328
0.00384216
0.00393176
0.0039942
0.00401438
0.00397108
0.00384442
0.00363493
0.00338379
0.00310124
0.00275735
0.00222681
0.00109677
0.000675152
0.00158527
0.00213079
0.00255568
0.00290546
0.00319884
0.00344758
0.00366006
0.00384255
0.00399983
0.00413543
0.00425201
0.00434736
0.00441374
0.00443753
0.00440155
0.00429153
0.00410582
0.00387619
0.00360845
0.00326807
0.00272147
0.00137348
0.000767882
0.00177603
0.00236412
0.00281683
0.00318798
0.00349861
0.00376153
0.00398585
0.00417838
0.00434431
0.00448736
0.00460999
0.00471029
0.00478091
0.00481004
0.00478432
0.00469481
0.00453933
0.00433835
0.00409701
0.00378262
0.00324796
0.00172518
0.000854765
0.00195684
0.00258552
0.00306314
0.00345226
0.00377681
0.0040509
0.00428443
0.00448475
0.00465745
0.00480653
0.00493415
0.0050391
0.0051146
0.00515068
0.00513743
0.0050705
0.00494991
0.00478304
0.00457523
0.00430241
0.00380629
0.00225098
0.00093821
0.00213159
0.00279966
0.00330006
0.00370447
0.00404027
0.00432315
0.00456381
0.00477016
0.00494818
0.0051021
0.00523416
0.00534383
0.005425
0.00546956
0.00547057
0.00542716
0.00534235
0.00521298
0.00504093
0.00481045
0.00440044
0.00313807
0.000287784
0.000717966
0.000981254
0.00110509
0.00117637
0.00120959
0.00123496
0.00125223
0.00123126
0.00112476
0.000974703
0.000810219
0.000660753
0.00063474
0.000703858
0.000696267
0.000531001
0.000374467
0.000195122
0.000521172
0.0014995
0.0020205
0.00229553
0.00244758
0.00252831
0.00257222
0.00257987
0.00251135
0.00232612
0.00204666
0.00176221
0.00151197
0.00144182
0.00151011
0.00142973
0.00113265
0.000798398
0.000309407
0.000675167
0.00190287
0.0025536
0.00290253
0.00309173
0.00319133
0.00323986
0.00323795
0.00314759
0.00294098
0.00265104
0.00234186
0.00206735
0.00195266
0.00194803
0.00181435
0.00145659
0.00100831
0.00039039
0.000866812
0.00225469
0.00297903
0.00335968
0.00356225
0.00366625
0.00371186
0.00370002
0.00359668
0.00338299
0.00309657
0.00278714
0.00250883
0.00235786
0.00229082
0.00211617
0.00172348
0.0011828
0.000480461
0.00111455
0.00264254
0.00338486
0.00376418
0.00396284
0.00406154
0.00409945
0.00407778
0.00396661
0.00375257
0.00347381
0.00317268
0.00289583
0.00271366
0.00259642
0.00238929
0.0019763
0.00137052
0.000579468
0.00144124
0.00308747
0.00379534
0.00414653
0.00432806
0.00441446
0.00444139
0.00441017
0.00429474
0.00408519
0.00381666
0.00352784
0.00325352
0.0030437
0.00288493
0.00264678
0.00221547
0.00157892
0.000681359
0.00196292
0.00359471
0.0042145
0.00451733
0.00467251
0.00474185
0.00475559
0.00471512
0.00459799
0.00439694
0.00414195
0.00386707
0.00359543
0.00336268
0.00316396
0.00289241
0.00243509
0.00179888
0.000790939
0.00288762
0.00415644
0.00463653
0.00487919
0.00500283
0.00505233
0.00505161
0.00500219
0.00488524
0.00469562
0.00445936
0.00419846
0.00392993
0.00367661
0.00343432
0.0031259
0.00263794
0.00200062
0.000924682
0.00106662
0.00240003
0.00312851
0.00366122
0.00408553
0.00443514
0.00472855
0.00497761
0.00519112
0.00537564
0.00553573
0.00567355
0.00578965
0.00587954
0.00593807
0.00596256
0.00595658
0.00592588
0.00585703
0.00573691
0.00554945
0.00525066
0.00467461
0.00123049
0.00274689
0.00356141
0.004128
0.00456792
0.00492766
0.0052294
0.005485
0.00570462
0.00589581
0.00606379
0.00621152
0.00633947
0.00644573
0.00652749
0.00658433
0.00662025
0.00663888
0.00662587
0.00655715
0.00642384
0.0062388
0.00600574
0.00141225
0.00311364
0.0040488
0.00461316
0.0050416
0.00539808
0.00570187
0.00595683
0.0061767
0.00637118
0.00654587
0.00670438
0.00684719
0.00697246
0.00707817
0.00716375
0.00723154
0.00728338
0.00730355
0.00727574
0.00718955
0.00706714
0.00694318
0.00160049
0.00350695
0.00471987
0.00514985
0.00552649
0.00586386
0.0061659
0.00640814
0.00661797
0.00680911
0.00698714
0.00715554
0.00731353
0.00745764
0.00758552
0.00769522
0.00778621
0.007861
0.00789754
0.00790608
0.0078607
0.00776589
0.00767812
0.0017264
0.00387901
0.00533766
0.00551942
0.00589807
0.00622993
0.00650645
0.00677195
0.00699931
0.00719575
0.00738209
0.00756547
0.00773487
0.00788615
0.00801915
0.00812867
0.00821669
0.00829443
0.0083569
0.00839403
0.00837544
0.00832539
0.00827736
0.00195912
0.00399822
0.00513662
0.00562383
0.00621827
0.00657294
0.00678561
0.00704343
0.00729805
0.00750854
0.00770276
0.00789374
0.00807386
0.00824207
0.00839512
0.00850515
0.0085873
0.00867057
0.00873424
0.00880632
0.00882973
0.00877614
0.00873462
0.00239618
0.00404231
0.00519484
0.00567582
0.00621426
0.00659974
0.00691712
0.0072368
0.00751271
0.00774664
0.00796333
0.00817188
0.0083598
0.00852458
0.00867801
0.00879765
0.00888324
0.00895668
0.00902511
0.00908714
0.00913244
0.00910944
0.0090785
0.00240519
0.00393833
0.00500754
0.00563127
0.00617249
0.00662022
0.00700445
0.0073529
0.00765999
0.00792954
0.00817418
0.00839989
0.00859657
0.00876937
0.00892597
0.00905309
0.00914812
0.00922356
0.00928988
0.00934596
0.00938505
0.0093971
0.00939248
0.00240581
0.00387446
0.00490891
0.00561707
0.00619098
0.00667474
0.00709235
0.00746124
0.0077884
0.00808013
0.00834375
0.00858334
0.00879744
0.00899141
0.00916325
0.009298
0.00939621
0.00947445
0.00954099
0.00959462
0.0096357
0.00966681
0.00967945
0.0024102
0.00387411
0.00490271
0.00564163
0.00623807
0.00674357
0.00718185
0.00756765
0.00791077
0.00821876
0.0084979
0.00875234
0.00898497
0.00919829
0.00938395
0.00952632
0.00963118
0.00971537
0.00978518
0.00984015
0.00988379
0.00991931
0.0099374
0.00240361
0.00389817
0.00493155
0.00568464
0.00629565
0.0068162
0.00727006
0.00767102
0.00802905
0.0083518
0.00864516
0.00891394
0.00916121
0.0093866
0.00958141
0.0097349
0.00985244
0.00994722
0.0100244
0.0100849
0.0101323
0.0101694
0.0101902
0.00240732
0.00393139
0.00497239
0.00573564
0.00635772
0.00689018
0.00735701
0.00777158
0.00814337
0.00847981
0.00878642
0.00906765
0.00932587
0.0095598
0.00976331
0.00993066
0.0100647
0.0101737
0.0102623
0.0103322
0.0103864
0.0104274
0.0104524
0.00240888
0.00396626
0.005019
0.00579184
0.00642364
0.00696642
0.00744454
0.00787125
0.00825562
0.00860469
0.0089236
0.00921615
0.00948415
0.0097268
0.00994048
0.0101229
0.0102752
0.010401
0.0105039
0.0105862
0.0106508
0.0106996
0.0107318
0.00240595
0.00400318
0.0050706
0.00585317
0.00649419
0.00704652
0.00753489
0.00797273
0.00836883
0.00872987
0.0090607
0.00936449
0.00964297
0.00989603
0.0101221
0.01032
0.0104906
0.0106346
0.0107543
0.0108518
0.0109298
0.0109901
0.0110327
0.0024105
0.00404599
0.00512739
0.00592
0.00657018
0.00713176
0.00762996
0.00807845
0.00848597
0.00885893
0.0092019
0.00951774
0.00980824
0.0100739
0.0103141
0.0105283
0.0107169
0.01088
0.0110183
0.0111335
0.0112278
0.0113028
0.0113585
0.00240598
0.00409076
0.00518905
0.00599238
0.00665201
0.00722297
0.00773104
0.00819026
0.00860943
0.00899483
0.00935072
0.00967991
0.00998425
0.0102645
0.0105207
0.0107526
0.0109598
0.0111426
0.0113011
0.0114362
0.0115495
0.0116418
0.0117131
0.00240411
0.00413983
0.00525584
0.00607031
0.00673979
0.00732056
0.007839
0.00830951
0.00874107
0.00913984
0.00950989
0.00985405
0.0101742
0.0104711
0.0107452
0.0109963
0.011224
0.0114279
0.0116082
0.0117653
0.0118998
0.012012
0.0121015
0.00240484
0.00419258
0.00532655
0.00615319
0.00683334
0.00742474
0.00795444
0.00843726
0.00888233
0.00929575
0.00968156
0.0100425
0.0103805
0.0106965
0.0109908
0.0112632
0.0115133
0.0117407
0.0119449
0.0121262
0.0122844
0.0124191
0.0125296
0.00241017
0.00424869
0.00540082
0.00624058
0.00693244
0.00753561
0.00807782
0.00857429
0.00903434
0.00946408
0.00986756
0.0102475
0.0106058
0.0109433
0.0112604
0.0115568
0.0118321
0.0120856
0.0123165
0.0125246
0.0127093
0.0128695
0.013004
0.00240962
0.00430585
0.00547796
0.00633195
0.00703684
0.00765321
0.00820949
0.00872127
0.00919811
0.00964618
0.0100696
0.010471
0.0108523
0.0112143
0.0115572
0.0118809
0.0121846
0.0124675
0.0127286
0.0129668
0.0131812
0.0133704
0.0135326
0.00240301
0.00436399
0.00555786
0.0064272
0.00714644
0.0077776
0.00834974
0.00887881
0.00937457
0.00984333
0.0102893
0.0107151
0.0111225
0.0115123
0.0118848
0.0122395
0.0125755
0.0128918
0.0131869
0.0134594
0.0137078
0.0139302
0.0141243
0.00240761
0.00442374
0.00564014
0.00652615
0.00726128
0.00790897
0.00849892
0.0090475
0.00956463
0.0100568
0.0105283
0.0109818
0.011419
0.0118407
0.0122469
0.012637
0.01301
0.0133645
0.0136986
0.0140104
0.0142977
0.0145582
0.0147891
0.0024042
0.0044867
0.0057246
0.00662865
0.00738136
0.00804748
0.00865744
0.00922798
0.00976926
0.0102879
0.0107884
0.0112733
0.0117446
0.0122026
0.0126475
0.0130784
0.013494
0.0138924
0.0142714
0.0146283
0.0149605
0.015265
0.0155385
0.00240648
0.00454905
0.00581105
0.00673462
0.00750667
0.00819332
0.00882567
0.00942085
0.00998935
0.010538
0.0110713
0.0115922
0.0121022
0.012602
0.0130914
0.0135692
0.0140339
0.014483
0.0149139
0.0153231
0.0157073
0.0160628
0.0163855
0.00240696
0.00461254
0.00589926
0.00684393
0.00763721
0.00834662
0.00900393
0.00962667
0.0102258
0.0108084
0.011379
0.0119407
0.0124951
0.0130428
0.0135833
0.0141154
0.0146368
0.0151448
0.0156359
0.0161058
0.0165504
0.0169651
0.017345
0.00240884
0.00467591
0.00598905
0.00695649
0.00777299
0.00850749
0.00919237
0.00984592
0.0104794
0.0111002
0.0117131
0.0123213
0.0129264
0.0135291
0.0141286
0.0147234
0.0153108
0.0158872
0.0164483
0.0169891
0.017504
0.0179876
0.0184337
0.00241442
0.00473872
0.00608037
0.0070722
0.00791392
0.0086757
0.00939109
0.0100789
0.0107508
0.0114145
0.0120752
0.0127362
0.0133993
0.0140651
0.0147327
0.0154002
0.0160642
0.0167205
0.0173634
0.0179869
0.018584
0.0191477
0.0196707
0.00241276
0.00480378
0.00617319
0.00719082
0.00805937
0.00885096
0.00959993
0.0103257
0.0110403
0.0117521
0.0124666
0.0131874
0.0139165
0.0146547
0.0154009
0.0161527
0.0169061
0.0176556
0.0183945
0.0191149
0.0198081
0.0204654
0.0210777
0.00241433
0.00487092
0.00626704
0.00731128
0.00820867
0.00903266
0.0098184
0.0105859
0.011348
0.0121133
0.0128881
0.0136764
0.0144806
0.0153016
0.0161383
0.0169879
0.0178455
0.0187044
0.019556
0.0203904
0.0211966
0.0219633
0.0226793
0.00241394
0.0049332
0.00636008
0.00743246
0.00836071
0.00921975
0.0100456
0.0108589
0.0116731
0.0124978
0.0133397
0.0142038
0.015093
0.0160085
0.0169494
0.0179123
0.0188917
0.019879
0.0208635
0.0218325
0.0227719
0.0236671
0.0245039
0.0024144
0.00499427
0.0064506
0.0075525
0.0085138
0.00941071
0.01028
0.0111431
0.0120143
0.0129041
0.0138204
0.014769
0.0157539
0.0167768
0.0178372
0.0189316
0.0200532
0.0211918
0.0223338
0.0234626
0.0245598
0.0256065
0.0265844
0.00241508
0.00504867
0.00653526
0.00766875
0.0086657
0.00960344
0.0105196
0.0114364
0.0123693
0.0133301
0.0143278
0.0153699
0.0164616
0.017606
0.0188031
0.0200496
0.0213377
0.022655
0.0239843
0.0253041
0.0265899
0.0278163
0.0289596
0.00241156
0.00509224
0.00660997
0.00777788
0.00881362
0.00979539
0.0107617
0.0117359
0.0127348
0.0137716
0.0148576
0.016002
0.017212
0.0184926
0.0198452
0.0212671
0.0227501
0.0242794
0.0258331
0.0273831
0.0288962
0.0303379
0.0316761
0.00241597
0.00511727
0.00667027
0.00787628
0.00895446
0.00998359
0.0110031
0.0120377
0.013106
0.0142234
0.0154034
0.016658
0.0179974
0.0194291
0.0209573
0.0225809
0.0242919
0.0260732
0.0278979
0.0297283
0.031519
0.0332214
0.0347912
0.00241131
0.00512435
0.00671218
0.00796045
0.00908519
0.010165
0.0112402
0.0123373
0.0134771
0.0146779
0.0159562
0.0173275
0.0188059
0.0204032
0.0221274
0.0239811
0.025958
0.0280401
0.0301943
0.032371
0.0345061
0.0365293
0.0383769
0.00241626
0.00510641
0.00673127
0.00802728
0.0092034
0.0103369
0.0114692
0.0126293
0.0138409
0.0151256
0.016504
0.0179959
0.0196206
0.0213955
0.0233352
0.0254483
0.0277337
0.0301746
0.0327328
0.0353432
0.0379149
0.0403414
0.042526
0.00241799
0.00504952
0.00672196
0.00807466
0.00930807
0.0104976
0.0116868
0.0129079
0.0141887
0.015555
0.0170318
0.0186445
0.0204185
0.0223791
0.0245501
0.0269503
0.0295885
0.0324554
0.0355113
0.0386746
0.0418144
0.0447628
0.0473623
0.00241227
0.00494933
0.0066795
0.0081031
0.00940058
0.0106467
0.0118894
0.0131665
0.0145106
0.0159523
0.0175218
0.0192503
0.0211707
0.023318
0.0257285
0.0284366
0.0314691
0.0348342
0.0385027
0.0423816
0.0462863
0.0499402
0.0530572
0.00241061
0.0048005
0.00660495
0.00811789
0.00948499
0.0107842
0.012073
0.013397
0.0147949
0.016302
0.0179535
0.0197868
0.0218427
0.0241675
0.0268128
0.0298347
0.0332886
0.0372178
0.0416284
0.0464419
0.0514204
0.0560945
0.0598592
0.00378088
0.0047518
0.00651151
0.0081269
0.00956527
0.0109084
0.0122311
0.0135896
0.0150285
0.0165872
0.0183054
0.0202255
0.0223965
0.0248758
0.0277323
0.0310479
0.0349178
0.0394438
0.0447121
0.0507316
0.0572822
0.0636084
0.0681456
0.0176607
0.00606302
0.00641755
0.00812657
0.00963771
0.0110111
0.0123528
0.0137317
0.015197
0.0167911
0.0185561
0.0205389
0.0227943
0.0253895
0.0284089
0.0319604
0.0361833
0.0412568
0.047405
0.0548713
0.0637588
0.073295
0.0785008
0.0840174
0.0139823
0.00651631
0.00811611
0.00968662
0.0110739
0.0124217
0.0138088
0.0152866
0.0168984
0.0186877
0.0207033
0.0230036
0.0256615
0.0287708
0.0324567
0.0368904
0.0423177
0.0491126
0.0578965
0.0698249
0.0873338
0.0917367
0.00332699
0.00288713
0.00284163
0.00315781
0.00578313
0.00567643
0.00563763
0.00566728
0.00686366
0.00681917
0.00678614
0.00676503
0.00762633
0.00759377
0.00756138
0.00752905
0.00824106
0.00821018
0.0081704
0.00812414
0.00869206
0.00865601
0.00862203
0.00858754
0.00904297
0.00901568
0.00898871
0.00896303
0.00936138
0.00933604
0.00931085
0.00928579
0.00965519
0.00963322
0.00960913
0.00958353
0.00992481
0.00991021
0.00989086
0.00986766
0.0101865
0.0101784
0.0101651
0.0101471
0.0104555
0.0104527
0.0104451
0.010433
0.0107417
0.0107436
0.0107411
0.010734
0.0110503
0.0110571
0.0110593
0.0110567
0.0113849
0.0113972
0.0114044
0.0114064
0.0117499
0.0117683
0.0117813
0.0117886
0.0121503
0.012176
0.0121959
0.0122096
0.0125924
0.0126267
0.0126547
0.0126761
0.0130833
0.0131277
0.0131654
0.013196
0.013631
0.0136873
0.0137363
0.0137779
0.0142449
0.0143149
0.0143774
0.0144318
0.0149354
0.0150215
0.0150995
0.0151689
0.0157146
0.0158193
0.0159153
0.0160022
0.0165961
0.0167224
0.0168393
0.0169463
0.0175955
0.0177467
0.0178877
0.018018
0.0187304
0.0189103
0.019079
0.019236
0.0200207
0.0202338
0.0204344
0.0206219
0.0214892
0.0217403
0.0219774
0.0221999
0.0231617
0.0234565
0.0237353
0.0239974
0.0250679
0.0254127
0.025739
0.0260459
0.0272423
0.0276443
0.0280243
0.0283815
0.0297257
0.0301928
0.0306334
0.0310466
0.0325669
0.033108
0.0336165
0.0340915
0.0358255
0.0364503
0.037034
0.0375762
0.039576
0.0402947
0.0409606
0.0415739
0.0439136
0.0447356
0.0454885
0.0461737
0.0489617
0.0498939
0.0507335
0.0514852
0.0548852
0.0559255
0.0568406
0.0576415
0.061907
0.0630317
0.0639882
0.0647994
0.0703283
0.0714638
0.0723835
0.0731302
0.0805295
0.0814976
0.0822276
0.0827866
0.0928569
0.0933103
0.093614
0.0938279
0.00441596
0.00497982
0.00526154
0.0054168
0.00549261
0.00551224
0.00548998
0.00542763
0.00531405
0.00514811
0.00494746
0.00471198
0.00444505
0.0041521
0.00384085
0.00346948
0.00293704
0.00228133
0.00111397
0.00579489
0.00594692
0.00605125
0.00610821
0.00612317
0.00610383
0.00605603
0.00598013
0.00587261
0.00573158
0.00556322
0.0053551
0.00506805
0.00471256
0.0043278
0.00387833
0.00329333
0.00257776
0.00127666
0.00674451
0.00675284
0.00676287
0.00675253
0.00671986
0.00666939
0.00660446
0.00652192
0.00641771
0.00629139
0.00614613
0.00595514
0.00563226
0.00521725
0.00476521
0.00425091
0.00361721
0.00282018
0.00133571
0.0074759
0.00743738
0.00740047
0.00734642
0.00728089
0.00720847
0.00713495
0.00705458
0.00695777
0.00684241
0.00672206
0.00655064
0.00615662
0.00567579
0.00515336
0.00459216
0.0039057
0.00301704
0.00147586
0.00805305
0.00799302
0.00793485
0.00787583
0.00780245
0.00771063
0.00762964
0.00755497
0.00745442
0.0072967
0.0070984
0.00690082
0.00661827
0.00603309
0.00542788
0.00480954
0.00408745
0.00310716
0.00144947
0.00853647
0.00850063
0.00842627
0.00831805
0.00822511
0.00813831
0.00806163
0.00797527
0.00786003
0.00766747
0.00741216
0.0072197
0.00683235
0.00628435
0.00568348
0.00503904
0.00427517
0.00323102
0.00150792
0.00892425
0.00889322
0.00881796
0.00870912
0.00861
0.00851231
0.00841407
0.00828393
0.00811735
0.00789974
0.00763042
0.00736075
0.00698899
0.00645813
0.00590588
0.00528267
0.00453848
0.00350227
0.00177446
0.00924354
0.00918746
0.00910633
0.0090012
0.00889078
0.00877805
0.00864504
0.00846389
0.00825374
0.00801984
0.00776564
0.00750085
0.00711559
0.00658573
0.00601087
0.00538718
0.00466387
0.00371321
0.00195158
0.00953812
0.00946624
0.00937684
0.00926511
0.00913538
0.00899811
0.00882913
0.00861348
0.00837059
0.00810686
0.00782626
0.0075336
0.00718066
0.00668768
0.0060881
0.00543057
0.00469628
0.00376146
0.00198097
0.0098241
0.00974967
0.00965823
0.00953963
0.00939099
0.00922526
0.00902594
0.00878554
0.00850946
0.00820415
0.00787166
0.00751897
0.00715339
0.00669825
0.00610751
0.00542088
0.00465021
0.00367631
0.00195404
0.0101104
0.0100386
0.00994513
0.00981968
0.00965686
0.00947067
0.00925191
0.00898694
0.00867789
0.00833256
0.00795024
0.00753089
0.00709131
0.00660352
0.00602754
0.00534856
0.00454625
0.00351807
0.00195162
0.0104048
0.0103375
0.010241
0.0101087
0.00993741
0.00973783
0.00950247
0.0092171
0.00888286
0.00850421
0.00807938
0.00760445
0.00708438
0.00651964
0.0059091
0.00522589
0.0044056
0.0033571
0.00194802
0.0107138
0.0106533
0.0105564
0.0104194
0.0102424
0.0100318
0.00978229
0.00948281
0.00913107
0.00872747
0.00826952
0.00775292
0.00717583
0.00653771
0.00585199
0.00511405
0.00427189
0.00323155
0.00194831
0.0110435
0.0109911
0.0108981
0.010761
0.0105812
0.0103627
0.0101027
0.00979287
0.00942866
0.00900776
0.00852671
0.00798083
0.00736552
0.00667581
0.00591615
0.00509243
0.00419061
0.00314734
0.00193612
0.0114003
0.0113563
0.01127
0.0111375
0.0109592
0.0107377
0.0104714
0.0101542
0.0097815
0.00934946
0.00885392
0.00828968
0.00765052
0.00692873
0.00611887
0.00521825
0.00422798
0.00313237
0.00193643
0.0117907
0.0117564
0.011679
0.0115542
0.0113813
0.0111614
0.010893
0.0105721
0.0101945
0.00975624
0.00925291
0.00867915
0.00802799
0.0072901
0.00645362
0.00550324
0.00443051
0.00323854
0.00195147
0.0122215
0.0121994
0.012133
0.0120184
0.0118539
0.011639
0.0113724
0.0110512
0.010672
0.0102313
0.00972492
0.00914799
0.00849383
0.00775271
0.00690979
0.00594165
0.00481963
0.00351067
0.00191285
0.0127002
0.0126931
0.0126405
0.0125384
0.0123845
0.0121774
0.0119156
0.0115969
0.0112187
0.0107778
0.0102711
0.00969436
0.00904204
0.00830555
0.00747052
0.00651192
0.00538943
0.00402078
0.00199301
0.0132348
0.0132461
0.0132101
0.0131229
0.0129818
0.0127848
0.0125302
0.012216
0.0118402
0.0114002
0.0108935
0.0103171
0.00966653
0.00893513
0.00811072
0.00717014
0.00606661
0.00466476
0.00231999
0.0138343
0.0138677
0.0138515
0.0137819
0.0136558
0.0134709
0.0132252
0.0129168
0.0125438
0.0121043
0.0115963
0.0110172
0.0103639
0.00963089
0.00880758
0.00787178
0.00676958
0.00532891
0.00265944
0.0145088
0.0145685
0.0145757
0.0145265
0.0144178
0.0142468
0.0140114
0.0137095
0.0133392
0.0128987
0.0123862
0.0117996
0.0111357
0.0103895
0.00954977
0.00859128
0.00745096
0.00592861
0.00300054
0.0152702
0.0153606
0.015395
0.0153696
0.0152807
0.0151256
0.0149016
0.0146064
0.014238
0.0137944
0.0132734
0.0126728
0.0119891
0.0112158
0.0103397
0.00933262
0.00812431
0.0064725
0.00324525
0.0161316
0.0162577
0.0163237
0.0163255
0.0162593
0.0161219
0.0159104
0.015622
0.0152544
0.014805
0.0142712
0.0136497
0.012936
0.0121218
0.0111924
0.0101154
0.00880643
0.0069901
0.00343124
0.0171083
0.0172755
0.0173778
0.0174106
0.01737
0.0172525
0.0170545
0.0167731
0.016405
0.0159471
0.0153956
0.0147464
0.0139928
0.0131261
0.012128
0.01096
0.00952601
0.00752341
0.0036183
0.0182175
0.0184318
0.0185754
0.0186434
0.0186316
0.018536
0.0183529
0.0180785
0.0177089
0.0172397
0.0166661
0.0159825
0.0151811
0.01425
0.0131679
0.0118905
0.0103122
0.00810622
0.00383594
0.0194785
0.0197465
0.0199368
0.0200444
0.0200647
0.0199936
0.0198267
0.0195596
0.0191875
0.018705
0.0181056
0.0173819
0.0165239
0.015517
0.0143364
0.012933
0.0111926
0.00876565
0.00410604
0.0209134
0.0212422
0.0214849
0.0216365
0.0216924
0.0216482
0.0214992
0.0212402
0.0208654
0.0203679
0.0197395
0.0189703
0.0180478
0.0169543
0.0156612
0.0141152
0.0121939
0.00952346
0.00443631
0.0225471
0.022944
0.023245
0.0234453
0.0235402
0.0235255
0.0233962
0.0231465
0.0227693
0.0222561
0.0215964
0.0207774
0.0197834
0.018593
0.0171737
0.0154671
0.0133423
0.0103974
0.00482121
0.0244074
0.0248803
0.0252456
0.0254988
0.0256361
0.0256534
0.0255459
0.0253071
0.0249287
0.0244001
0.0237082
0.0228367
0.0217657
0.0204692
0.0189098
0.0170229
0.0146669
0.0114063
0.00525887
0.0265263
0.027083
0.027518
0.0278281
0.0280106
0.0280624
0.0279788
0.0277531
0.0273757
0.0268337
0.0261107
0.0251862
0.024035
0.022625
0.020912
0.0188231
0.0162029
0.0125748
0.00574973
0.0289404
0.0295884
0.0300978
0.0304677
0.0306974
0.0307854
0.0307279
0.030518
0.030145
0.0295935
0.0288433
0.0278687
0.0266376
0.0251098
0.0232314
0.0209183
0.017997
0.0139408
0.00631595
0.031692
0.0324376
0.0330246
0.0334555
0.033733
0.0338582
0.0338286
0.0336379
0.033274
0.0327193
0.0319492
0.0309316
0.029626
0.0279812
0.0259301
0.0233723
0.0201107
0.0155599
0.00700617
0.0348307
0.0356783
0.0363433
0.0368339
0.0371578
0.0373196
0.0373193
0.0371513
0.0368029
0.036254
0.0354753
0.0344276
0.0330598
0.0313066
0.0290826
0.0262642
0.0226223
0.0175002
0.00785697
0.0384151
0.0393652
0.0401047
0.0406501
0.0410159
0.0412118
0.041241
0.0410993
0.040774
0.0402425
0.0394713
0.038413
0.0370047
0.035163
0.0327778
0.029692
0.0256307
0.0198444
0.0088938
0.0425148
0.043562
0.0443663
0.0449565
0.045356
0.0455807
0.045638
0.0455259
0.0452319
0.0447321
0.0439889
0.0429474
0.0415315
0.0396367
0.0371202
0.0337775
0.0292647
0.0227039
0.0101568
0.047213
0.0483418
0.049193
0.0498114
0.0502315
0.0504766
0.0505586
0.0504779
0.0502236
0.0497712
0.0490806
0.0480907
0.0467131
0.0448204
0.0422301
0.0386721
0.0336978
0.0262406
0.0117199
0.0526075
0.053788
0.0546568
0.055279
0.0557015
0.0559548
0.0560553
0.0560064
0.0557989
0.0554097
0.0547982
0.0539007
0.0526197
0.0508078
0.0482391
0.0445598
0.0391665
0.0306979
0.0136947
0.0588117
0.059993
0.0608365
0.0614298
0.0618311
0.0620771
0.0621873
0.0621677
0.0620117
0.0616989
0.0611919
0.0604291
0.0593118
0.0576812
0.0552761
0.0516508
0.0459901
0.0364589
0.0162751
0.0659507
0.0670548
0.067816
0.0683404
0.0686933
0.0689136
0.0690222
0.0690263
0.0689223
0.068694
0.0683107
0.0677194
0.0668313
0.0654946
0.0634382
0.0601496
0.0545757
0.044152
0.0198345
0.0741501
0.0750708
0.0756817
0.076094
0.0763704
0.0765461
0.0766397
0.0766587
0.0766016
0.0764578
0.0762058
0.0758075
0.0751964
0.0742523
0.0727422
0.0701709
0.065347
0.0547997
0.0251638
0.0835134
0.0841281
0.0845214
0.0847826
0.0849577
0.0850714
0.0851365
0.0851585
0.0851372
0.0850677
0.0849387
0.0847299
0.0844055
0.0838983
0.0830684
0.0815801
0.0784493
0.0698135
0.033656
0.0940891
0.0942969
0.0944265
0.094512
0.0945698
0.0946083
0.0946319
0.0946426
0.0946408
0.0946254
0.094594
0.0945421
0.0944623
0.0943415
0.0941528
0.0938227
0.0930458
0.0897091
0.0470695
)
;

boundaryField
{
    leftWall
    {
        type            kqRWallFunction;
        value           nonuniform List<scalar> 
50
(
0.000149299
0.000321712
0.000457157
0.000573169
0.000675152
0.000767882
0.000854765
0.00093821
0.00106662
0.00123049
0.00141225
0.00160049
0.0017264
0.00195912
0.00239618
0.00240519
0.00240581
0.0024102
0.00240361
0.00240732
0.00240888
0.00240595
0.0024105
0.00240598
0.00240411
0.00240484
0.00241017
0.00240962
0.00240301
0.00240761
0.0024042
0.00240648
0.00240696
0.00240884
0.00241442
0.00241276
0.00241433
0.00241394
0.0024144
0.00241508
0.00241156
0.00241597
0.00241131
0.00241626
0.00241799
0.00241227
0.00241061
0.00378088
0.0176607
0.0840174
)
;
    }
    rightWall
    {
        type            kqRWallFunction;
        value           nonuniform List<scalar> 
50
(
0.000195122
0.000309407
0.00039039
0.000480461
0.000579468
0.000681359
0.000790939
0.000924682
0.00111397
0.00127666
0.00133571
0.00147586
0.00144947
0.00150792
0.00177446
0.00195158
0.00198097
0.00195404
0.00195162
0.00194802
0.00194831
0.00193612
0.00193643
0.00195147
0.00191285
0.00199301
0.00231999
0.00265944
0.00300054
0.00324525
0.00343124
0.0036183
0.00383594
0.00410604
0.00443631
0.00482121
0.00525887
0.00574973
0.00631595
0.00700617
0.00785697
0.0088938
0.0101568
0.0117199
0.0136947
0.0162751
0.0198345
0.0251638
0.033656
0.0470695
)
;
    }
    lowerWall
    {
        type            kqRWallFunction;
        value           nonuniform List<scalar> 
62
(
0.000149299
0.000371193
0.000544816
0.000680132
0.000790813
0.000883742
0.000962974
0.00103102
0.00108938
0.00113947
0.00118521
0.0012264
0.00126279
0.00129069
0.0013006
0.00127523
0.00118749
0.00106102
0.000936124
0.000823064
0.0007131
0.000562735
0.000274299
0.000274299
0.000604816
0.000849327
0.00109677
0.00137348
0.00172518
0.00225098
0.00313807
0.00332699
0.00288713
0.00284163
0.00315781
0.000287784
0.000521172
0.000675167
0.000866812
0.00111455
0.00144124
0.00196292
0.00288762
0.000287784
0.000717966
0.000981254
0.00110509
0.00117637
0.00120959
0.00123496
0.00125223
0.00123126
0.00112476
0.000974703
0.000810219
0.000660753
0.00063474
0.000703858
0.000696267
0.000531001
0.000374467
0.000195122
)
;
    }
    atmosphere
    {
        type            inletOutlet;
        inletValue      uniform 0.1;
        value           nonuniform List<scalar> 
46
(
0.1
0.0139823
0.00651631
0.00811611
0.00968662
0.0110739
0.0124217
0.0138088
0.0152866
0.0168984
0.0186877
0.0207033
0.0230036
0.0256615
0.0287708
0.0324567
0.0368904
0.0423177
0.0491126
0.0578965
0.0698249
0.1
0.1
0.1
0.1
0.1
0.1
0.1
0.1
0.1
0.1
0.1
0.1
0.1
0.1
0.1
0.1
0.1
0.1
0.1
0.1
0.1
0.1
0.1
0.1
0.0470695
)
;
    }
    defaultFaces
    {
        type            empty;
    }
}


// ************************************************************************* //
