/*--------------------------------*- C++ -*----------------------------------*\
  =========                 |
  \\      /  F ield         | OpenFOAM: The Open Source CFD Toolbox
   \\    /   O peration     | Website:  https://openfoam.org
    \\  /    A nd           | Version:  9
     \\/     M anipulation  |
\*---------------------------------------------------------------------------*/
FoamFile
{
    format      ascii;
    class       volScalarField;
    location    "3.9";
    object      p_rgh;
}
// * * * * * * * * * * * * * * * * * * * * * * * * * * * * * * * * * * * * * //

dimensions      [1 -1 -2 0 0 0 0];

internalField   nonuniform List<scalar> 
2268
(
754.483
754.269
754.227
754.377
754.71
755.217
755.88
756.675
757.579
758.567
759.609
760.673
761.723
762.716
763.589
764.259
764.635
764.638
764.468
765.11
765.77
766.069
765.644
754.546
754.362
754.328
754.492
754.832
755.34
755.998
756.784
757.675
758.644
759.662
760.694
761.703
762.644
763.46
764.088
764.508
764.475
763.629
764.857
765.778
765.983
765.573
754.571
754.418
754.4
754.586
754.94
755.455
756.114
756.895
757.775
758.728
759.723
760.725
761.696
762.595
763.38
764.018
764.403
762.868
763.301
763.15
764.89
765.76
765.533
754.56
754.414
754.405
754.614
754.986
755.516
756.184
756.968
757.846
758.791
759.772
760.755
761.706
762.589
763.377
764.066
764.724
763.611
762.841
762.709
763.811
765.62
765.305
754.506
754.349
754.342
754.569
754.962
755.512
756.196
756.994
757.879
758.826
759.805
760.783
761.73
762.617
763.429
764.179
765.017
765.77
762.839
762.358
765.761
765.571
765.127
754.403
754.227
754.216
754.456
754.872
755.446
756.155
756.974
757.876
758.836
759.823
760.808
761.764
762.669
763.511
764.312
765.183
766.442
767.26
766.886
766.699
765.644
765.002
754.242
754.047
754.034
754.287
754.726
755.329
756.07
756.918
757.845
758.824
759.828
760.829
761.804
762.734
763.607
764.442
765.319
766.44
767.473
767.626
766.88
765.966
764.832
754.021
753.824
753.814
754.08
754.545
755.181
755.959
756.843
757.798
758.8
759.824
760.844
761.844
762.802
763.702
764.554
765.417
766.409
767.29
767.544
767.196
766.644
764.748
768.615
769.183
769.257
768.823
768.128
767.265
766.32
765.397
764.477
762.985
761.073
758.939
756.693
756.8
758.609
757.986
755.191
752.779
753.701
768.54
769.391
769.452
769.085
768.502
767.717
766.789
765.783
764.546
763
760.955
757.732
756.74
756.416
758.998
757.81
756.147
752.63
753.663
769.351
769.609
769.407
769.031
768.437
767.77
767.002
765.865
764.385
763.219
759.537
756.819
756.434
759.113
758.989
757.594
754.632
754.301
753.096
769.679
769.643
769.39
768.981
768.414
767.792
767.035
765.386
764.355
763.628
759.034
756.334
755.764
760.756
759.287
757.918
754.607
754.522
755.82
769.573
769.63
769.412
768.985
768.427
767.806
767.079
765.505
764.479
764.446
762.723
756.887
757.459
761.34
759.772
758.529
758.001
749.052
755.455
769.501
769.688
769.442
769.014
768.422
767.792
767.102
766.37
765.587
765.054
765.361
765.207
764.73
762.078
760.315
759.275
758.684
741.416
754.917
769.532
769.671
769.465
769.063
768.353
767.687
767.061
766.455
765.883
765.179
764.642
765.229
764.498
762.298
760.859
760.121
758.746
740.232
746.873
769.486
769.751
769.485
769.112
768.443
767.782
766.966
766.315
765.721
762.049
761.942
764.213
764.295
762.537
761.401
761.011
759.511
739.239
748.414
753.64
753.417
753.401
753.671
754.176
754.873
755.726
756.68
757.691
758.739
759.802
760.861
761.908
762.925
763.866
764.717
765.526
766.355
767.083
767.501
767.712
767.912
767.655
726.018
725.551
724.234
723.864
725.934
728.786
731.763
735.54
739.691
743.094
745.691
748.212
751.289
755.172
757.776
758.396
758.419
758.984
759.457
759.276
758.502
757.771
758.041
240.589
235.193
234.161
235.68
236.409
239.536
244.624
250.228
255.296
263.464
272.516
281.427
290.038
297.582
304.849
314.254
323.287
330.893
335.591
336.54
334.554
332.762
334.176
2.90162
2.87062
2.40897
2.46031
3.74861
4.1671
3.98019
4.06717
4.67411
4.26223
3.9526
3.74337
2.98501
1.80004
1.70299
1.47459
1.3747
1.31694
1.26267
1.21384
1.13371
0.930246
0.757998
2.87447
2.85297
2.27418
2.22401
3.7231
4.13587
3.92071
3.96985
7.66264
8.31263
8.34176
8.35087
8.34787
8.33193
8.28597
4.14023
3.80494
3.479
3.6819
6.02595
5.92873
3.46285
0.731563
3.09423
3.1541
3.16895
2.17855
2.63644
3.79403
4.50183
4.74603
4.98464
5.18848
5.48566
5.67443
5.61298
5.4099
5.02207
6.05655
6.06279
6.05562
5.70304
2.04736
1.49333
0.995832
0.602476
2.19109
2.44995
2.5819
2.00014
2.04194
1.72457
1.22322
1.4332
0.963002
0.240366
0.0693373
0.00316842
-0.000288314
0.000904573
0.00404086
0.399855
0.283491
0.227048
0.257538
0.572097
0.492272
0.506
0.534672
0.126433
0.120958
0.162166
0.597739
0.544975
0.592339
0.46882
0.129556
0.0121199
0.00915672
0.00634274
0.00329286
0.00177035
0.00491436
0.00336428
0.0012328
0.0204175
0.231424
0.727752
0.74835
0.486869
0.489365
0.975507
0.0150568
0.0151454
0.0148048
0.012887
0.0106212
0.00808547
0.00748066
0.00819004
0.00766227
0.00725853
0.00582345
0.00389478
0.0104461
0.0124772
0.00508039
0.000965521
0.00998814
0.0500857
0.274688
0.762951
0.773605
0.47682
0.856255
0.0129222
0.0136342
0.0134518
0.0122872
0.0103581
0.00848977
0.00755789
0.00713114
0.00677337
0.00673509
0.00889942
0.00750036
0.00409202
0.00337053
0.00112936
-0.000625999
-0.00177428
-0.00432609
-0.00903979
0.0231616
0.244687
0.174842
-0.0121361
0.0109786
0.0118241
0.0116135
0.0104262
0.00906899
0.00774137
0.00688968
0.00636615
0.00838802
0.0102941
0.00934676
0.00581582
0.00220233
0.00114815
0.000143178
-0.00105916
-0.00250398
-0.00474852
-0.00783882
-0.0106713
-0.0127625
-0.0107474
-0.00897826
0.00935301
0.00955992
0.00934116
0.00867715
0.00773598
0.00678698
0.00606711
0.00603643
0.00831911
0.00787896
0.00542653
0.00288024
0.00194232
0.000980723
-4.51239e-05
-0.00118558
-0.00253411
-0.00429823
-0.00602711
-0.00308286
-0.000112219
0.000767867
-0.000739325
0.00808166
0.00797785
0.00769245
0.00717139
0.00649791
0.00581813
0.0052438
0.00486187
0.00457485
0.00373073
0.00306291
0.00236838
0.00159856
0.000742313
-0.000183656
-0.00121378
-0.00238969
-0.00377283
-0.00300523
0.00719179
0.00656948
0.00683919
0.00746971
0.00721858
0.00708318
0.00646559
0.00592069
0.00540523
0.00488746
0.00441378
0.00396867
0.00352603
0.0030584
0.00253194
0.00193127
0.00125553
0.000511259
-0.000303578
-0.00120592
-0.00220667
-0.00331537
-0.00437466
-0.000969697
0.00827085
0.00857603
0.00703128
0.00665087
0.00654989
0.00553321
0.00489861
0.0044723
0.00405723
0.00366529
0.00328979
0.00290797
0.00250079
0.00204549
0.00152897
0.000947806
0.000304429
-0.000400787
-0.00117178
-0.00200628
-0.00289279
-0.00379389
-0.00461795
-0.00346639
-0.0014183
-0.00461454
0.00618623
0.00585139
0.00478307
0.00406829
0.00368901
0.00333904
0.00300851
0.00268693
0.00235804
0.00200623
0.00161494
0.0011735
0.000677866
0.000129231
-0.000469792
-0.00111597
-0.00179992
-0.00250205
-0.00318444
-0.00377754
-0.00417199
-0.00426659
-0.0040628
0.00574346
0.00528124
0.00420728
0.0033883
0.00303367
0.00272512
0.00243903
0.00216106
0.00187706
0.00157398
0.00123949
0.000864877
0.000446168
-1.58985e-05
-0.000517399
-0.0010516
-0.00160611
-0.00215991
-0.00267978
-0.00311619
-0.00340257
-0.00348632
-0.00337463
0.005355
0.00479048
0.00377901
0.0028232
0.00248458
0.00220396
0.00195079
0.00170777
0.00146132
0.00120019
0.000914777
0.000598043
0.000246487
-0.000139305
-0.000554982
-0.000992611
-0.00143942
-0.00187625
-0.00227606
-0.00260371
-0.00281907
-0.00289288
-0.00282858
0.00486777
0.00434855
0.00327557
0.00234695
0.00202351
0.00176473
0.00153746
0.00132316
0.0011083
0.000882787
0.000638827
0.00037088
7.61797e-05
-0.000244625
-0.000587259
-0.000943891
-0.00130274
-0.00164754
-0.00195722
-0.00220688
-0.00237131
-0.00243335
-0.00239448
0.00420904
0.00393678
0.00257012
0.00194275
0.00163754
0.00139863
0.0011936
0.00100395
0.000816238
0.00062116
0.000412195
0.000185077
-6.21257e-05
-0.000328554
-0.000610216
-0.000899992
-0.00118766
-0.00145992
-0.00170071
-0.00189233
-0.00201832
-0.00206804
-0.00204219
0.00344125
0.00280762
0.00201339
0.00160068
0.0013177
0.00109891
0.000914658
0.000747118
0.000583323
0.000414727
0.000235766
4.31769e-05
-0.000164212
-0.000385293
-0.000616423
-0.000851421
-0.00108176
-0.00129685
-0.00148453
-0.00163223
-0.00172891
-0.00176764
-0.00174884
0.00292476
0.00221598
0.00168061
0.00131281
0.0010569
0.000860522
0.000696791
0.00054963
0.000407214
0.000261898
0.000108939
-5.41601e-05
-0.000227993
-0.000411284
-0.000600769
-0.000791255
-0.00097583
-0.00114623
-0.00129335
-0.00140822
-0.00148333
-0.00151409
-0.00150085
0.00245916
0.00184673
0.0013911
0.00107481
0.000851887
0.000679683
0.000536456
0.000408083
0.000284616
0.000159539
2.89014e-05
-0.000109202
-0.00025499
-0.00040714
-0.000562815
-0.000717764
-0.000866528
-0.00100276
-0.00111973
-0.00121103
-0.00127154
-0.00129818
-0.00129134
0.0020114
0.00150732
0.00114467
0.000887616
0.00070088
0.000553745
0.000429978
0.000318377
0.000211138
0.000103042
-9.07389e-06
-0.000126636
-0.000249643
-0.000376844
-0.000505855
-0.000633285
-0.000754921
-0.000865977
-0.000961498
-0.00103696
-0.00108882
-0.00111505
-0.00111604
0.00159886
0.00120866
0.0009501
0.000755256
0.000603613
0.000479657
0.000373068
0.000275674
0.000181607
8.69663e-05
-1.06173e-05
-0.000112162
-0.000217534
-0.000325625
-0.000434496
-0.000541514
-0.000643494
-0.000736881
-0.00081806
-0.000883823
-0.000931721
-0.000960421
-0.000970298
0.00123937
0.00107104
0.00128824
0.000682205
0.000557034
0.000452074
0.000360163
0.000274373
0.000190441
0.000105754
1.87563e-05
-7.11637e-05
-0.000163762
-0.000258082
-0.000352591
-0.000445299
-0.000533851
-0.000615638
-0.000688037
-0.000748764
-0.000796105
-0.000829181
-0.000848317
0.000934843
0.00164032
0.00389996
0.00322824
0.000684784
0.000462359
0.000384092
0.000308097
0.000231806
0.000153998
7.40383e-05
-8.20084e-06
-9.23205e-05
-0.000177483
-0.000262505
-0.000345919
-0.000426029
-0.000500953
-0.000568789
-0.000627895
-0.000677034
-0.000715622
-0.000743907
0.000688857
0.00163639
0.00395406
0.0039256
0.00143148
0.000501888
0.000437755
0.000370354
0.00029973
0.000226302
0.000150461
7.26617e-05
-6.47886e-06
-8.61954e-05
-0.000165586
-0.000243612
-0.000319101
-0.000390731
-0.000457129
-0.000517081
-0.000569642
-0.000614404
-0.000651502
0.000508815
0.0010963
0.00403792
0.00404095
0.00158813
0.000566419
0.000515288
0.000454798
0.000387981
0.000316894
0.000242939
0.000167168
9.04365e-05
1.34628e-05
-6.30853e-05
-0.000138534
-0.000212151
-0.000283056
-0.000350263
-0.000412827
-0.00046995
-0.000521282
-0.000566814
0.000377258
0.000553509
0.00326188
0.00284872
0.00104723
0.000652993
0.000610525
0.000554458
0.000489616
0.000419287
0.000345704
0.000270435
0.000194527
0.000118643
4.32245e-05
-3.14019e-05
-0.000104901
-0.000176771
-0.000246314
-0.000312722
-0.000375198
-0.000433333
-0.000486925
0.000284135
0.000534306
0.000799603
0.000779116
0.000769616
0.000753185
0.000714979
0.00066097
0.000596737
0.000526253
0.000452354
0.00037699
0.000301324
0.000225933
0.000150996
7.64577e-05
2.24582e-06
-7.15008e-05
-0.000144309
-0.000215376
-0.000283743
-0.000348797
-0.000410069
0.000220128
0.000544788
0.000750775
0.000839059
0.000863694
0.000852877
0.000817351
0.000764715
0.000700857
0.000630268
0.000556293
0.000481183
0.000406185
0.000331734
0.000257665
0.000183461
0.000108565
3.27097e-05
-4.38316e-05
-0.000120109
-0.000194772
-0.000266808
-0.000335375
0.000173155
0.000551391
0.000797146
0.00090943
0.000944233
0.00093867
0.000906821
0.000856506
0.000793947
0.000724245
0.000651301
0.000577704
0.000504773
0.000432723
0.000360922
0.000288244
0.000213495
0.000135868
5.53981e-05
-2.6609e-05
-0.000108035
-0.000187182
-0.00026271
0.000137009
0.000552167
0.000826528
0.000956341
0.00100065
0.00100188
0.000975372
0.000928926
0.00086918
0.000801977
0.000731883
0.00066189
0.000593352
0.000526151
0.000459022
0.000390011
0.000317024
0.000238435
0.00015386
6.52899e-05
-2.3718e-05
-0.000110351
-0.000192634
0.000119754
0.000555809
0.000841466
0.000978627
0.00102923
0.00103726
0.00101716
0.000975999
0.000920741
0.000858052
0.000793259
0.000729754
0.000668841
0.000609925
0.000550909
0.000488723
0.000419981
0.000341695
0.000252522
0.000155696
5.75303e-05
-3.74036e-05
-0.00012642
0.000124778
0.000570661
0.000847443
0.000976559
0.00102729
0.0010405
0.00102698
0.000992192
0.000943228
0.00088756
0.000831236
0.000777941
0.000728804
0.000682627
0.000636294
0.000585315
0.000524473
0.000448423
0.000353359
0.000244744
0.000134472
2.97885e-05
-6.60816e-05
0.000154155
0.000593995
0.000844183
0.000949318
0.000991552
0.00100643
0.000998838
0.000971531
0.000931208
0.000885881
0.000842083
0.000803593
0.000771258
0.00074325
0.000715416
0.000681671
0.00063437
0.000563961
0.000460184
0.000332649
0.000205068
8.84274e-05
-1.43739e-05
0.00021634
0.0006243
0.000827277
0.000891999
0.000916138
0.000928133
0.000925639
0.000907444
0.000878977
0.000848192
0.000821666
0.000803016
0.000792795
0.000788802
0.00078625
0.00077783
0.000753196
0.000695424
0.000577691
0.000418158
0.000265422
0.000134338
2.52019e-05
0.000322694
0.000658158
0.000784374
0.000793668
0.000792378
0.000798216
0.000800848
0.000794266
0.000781663
0.00077011
0.000765599
0.000771276
0.000787549
0.000812458
0.000841494
0.000867285
0.000878656
0.000848926
0.000708189
0.00049282
0.000305275
0.000159705
4.77629e-05
0.000460333
0.000661997
0.000679642
0.000630153
0.000605235
0.000607931
0.000620917
0.000633571
0.000645849
0.000662792
0.000688879
0.000726353
0.000775651
0.000835677
0.000902684
0.000969668
0.00103159
0.0010695
0.000888546
0.000545135
0.000302435
0.000149244
4.53522e-05
0.000869989
0.000631705
0.000465386
0.000357136
0.000320367
0.000338034
0.000384916
0.000444069
0.000509617
0.00058266
0.000665017
0.000757772
0.000861818
0.000977552
0.0011025
0.00123352
0.00138968
0.00161053
0.00135833
0.000611117
0.000245163
9.36784e-05
1.29004e-05
0.000791998
-0.000521303
-0.000198208
-0.000124627
-7.37233e-05
6.5251e-06
0.000108289
0.000221065
0.000340774
0.000466115
0.000597312
0.000736103
0.00088637
0.00105446
0.00125185
0.00152264
0.002011
0.00277462
0.00237591
0.000759667
0.000224543
6.10307e-05
-4.82646e-06
771.084
771.505
771.724
772.143
761.666
762.805
763.083
762.663
343.52
347.276
348.3
347.207
0.895763
0.950847
0.958422
0.925961
3.65228
4.60055
3.8679
2.06603
1.61353
4.86214
1.62262
1.99878
1.07423
1.56053
0.574202
0.534833
1.25646
1.18727
0.511302
0.0456592
0.664649
0.0986541
0.0190626
0.0114681
-0.00900083
-0.00539298
-0.000221144
0.00401866
-0.00720302
-0.00587342
-0.00447995
-0.00235494
-0.00477336
-0.00539217
-0.00465551
-0.00400955
0.00738458
-0.00439185
-0.00447309
-0.00398031
-0.00161355
-0.00317135
-0.00416792
-0.00376541
-0.00444695
-0.00373312
-0.00341518
-0.0033708
-0.00377352
-0.00355202
-0.00330063
-0.00307471
-0.0031854
-0.00304647
-0.00289614
-0.00273328
-0.00270058
-0.00260458
-0.00249936
-0.00238258
-0.00230383
-0.00223474
-0.00215918
-0.00207431
-0.00197461
-0.00192335
-0.00186822
-0.00180627
-0.00169693
-0.00165892
-0.0016192
-0.00157486
-0.00146158
-0.00143459
-0.00140744
-0.00137735
-0.00126388
-0.0012465
-0.00122983
-0.00121133
-0.00110006
-0.00109099
-0.00108291
-0.00107364
-0.000965194
-0.000963161
-0.000961935
-0.000959857
-0.000853151
-0.000856981
-0.000861193
-0.000864735
-0.000757582
-0.000766341
-0.000774978
-0.000783062
-0.000672998
-0.000686017
-0.000698424
-0.000710374
-0.000595295
-0.000612112
-0.000627879
-0.000643265
-0.000521693
-0.000541967
-0.000560822
-0.000579339
-0.000450493
-0.000473938
-0.000495666
-0.000517062
-0.000380854
-0.000407203
-0.000431599
-0.000455635
-0.000312676
-0.000341665
-0.000368517
-0.000394933
-0.000246581
-0.000277948
-0.000307009
-0.00033549
-0.000183916
-0.000217372
-0.000248323
-0.000278448
-0.000126717
-0.000161885
-0.000194264
-0.000225434
-7.76289e-05
-0.000113921
-0.000147004
-0.000178345
-3.97073e-05
-7.61348e-05
-0.000108781
-0.000139034
-1.62076e-05
-5.09705e-05
-8.14063e-05
-0.000108842
-1.0895e-05
-4.03432e-05
-6.57206e-05
-8.81586e-05
-2.98411e-05
-4.95757e-05
-6.52472e-05
-7.8525e-05
-3.24207e-05
-4.41488e-05
-5.28317e-05
-5.94745e-05
769.645
769.926
769.519
768.014
760.786
756.124
750.247
749.337
753.588
759.223
764.811
765.086
764.193
762.922
762.142
762.206
761.793
754.101
755.367
760.212
749.88
741.18
737.465
737.628
737.322
730.204
720.634
715.969
720.342
725.45
729.437
728.452
721.004
713.658
717.981
734.821
755.073
755.366
346.325
362.995
377.74
388.563
397.097
403.051
411.374
414.627
406.678
387.139
365.306
348.913
337.108
329.787
326.964
324.665
324.543
330.46
334.223
0.84664
0.77357
0.74825
0.742155
0.762295
0.869697
0.869399
0.853857
0.848159
0.875587
1.83964
1.95242
1.50158
1.42269
1.41423
1.41796
1.34562
1.20514
1.20099
1.57473
1.15751
1.14838
1.1513
1.22279
2.22365
2.09056
1.98083
1.76226
1.70926
1.67878
1.37405
1.31988
1.29935
1.26159
1.23214
1.22609
1.201
1.20847
1.56522
1.35467
1.36794
1.30807
1.57101
2.62866
2.62882
2.63175
2.63661
2.6396
2.64067
2.64465
2.64953
2.64675
1.92017
1.30846
1.815
1.80918
1.81128
1.80637
1.90128
1.89761
1.89012
1.86446
1.02773
1.03108
1.06719
1.10665
1.07916
1.06683
1.01871
1.12523
1.38495
1.25347
1.1062
1.30471
1.04022
1.1356
0.552927
0.96641
0.784841
0.764924
0.350323
0.0129678
0.0114281
0.0108432
0.0121304
0.0152645
0.0186845
0.0227358
0.0239697
0.028532
0.112056
0.15428
0.0817915
0.341022
0.265085
0.000972063
-0.00679566
-0.0062011
-0.00519355
0.000776313
0.00723292
0.00993582
0.0110642
0.0149629
0.0185934
0.0261
0.0577263
0.0803754
0.0658536
0.0230393
0.0250873
0.0247132
0.0214641
0.021816
-0.00155205
-0.00424042
-0.00398341
-0.00234572
0.00149816
0.00598667
0.00861997
0.00995517
0.0126055
0.0310385
0.1188
0.136928
0.136623
0.0824044
0.0221923
0.0237911
0.0234607
0.0218635
0.0214047
-0.00269237
-0.00330316
-0.00271934
-0.00108739
0.00566743
0.0281549
0.0359323
0.0112501
0.0268876
0.129752
0.139923
0.138294
0.0473663
0.0256377
0.0287709
0.0431677
0.0392125
0.024015
0.022461
-0.0030521
-0.00287154
-0.00213442
0.000854391
0.0351804
0.0460827
0.0459395
0.0253367
0.074079
0.141121
0.132375
0.0270348
0.0295589
0.0540242
0.101967
0.10263
0.102545
0.100832
0.0732498
-0.00312485
-0.00269619
-0.00199623
0.00154099
0.0401042
0.0467064
0.0460362
0.0211873
0.0365746
0.0634879
0.0226499
0.00541201
0.0679633
0.101709
0.102427
0.09967
0.05771
0.0567749
0.0721329
-0.00308863
-0.00258
-0.00199454
-0.00087967
0.0167021
0.0329959
0.0139134
0.000871224
0.00115737
0.000696499
0.00174707
0.00330503
0.0413193
0.102858
0.0806442
0.00713119
0.00763751
0.00822403
0.0255212
-0.00294066
-0.0023431
-0.00168733
-0.00132731
-0.00144346
-0.00109852
-0.000316272
0.000416189
0.000683686
0.000869861
0.00153483
0.00300698
0.0123571
0.0155263
0.00597268
0.00501863
0.00605748
0.00813719
0.00783487
-0.00269147
-0.00220035
-0.00174633
-0.00137358
-0.00102053
-0.000663201
-0.000316389
0.000214191
0.000530527
0.000796823
0.0012549
0.0018856
0.00210914
0.00204663
0.00285016
0.00378654
0.00428578
0.00771117
0.0214016
-0.00243824
-0.00207359
-0.00172754
-0.00111072
-0.000329326
2.03554e-05
3.14037e-05
7.70915e-05
0.000370864
0.000630413
0.000952787
0.00125715
0.00142136
0.00162864
0.00209956
0.00260615
0.002827
0.00598516
0.0458909
-0.00216546
-0.00187166
-0.0015762
-0.00119054
-0.000306711
9.85049e-05
0.00043916
0.000568204
0.000201411
0.000423438
0.000649893
0.000842413
0.000964503
0.00110085
0.00131999
0.0015103
0.00149853
0.00405553
0.0464188
-0.00191246
-0.0016761
-0.00143102
-0.00118932
-0.000872484
-0.000235031
0.000242777
0.000307924
0.000149171
0.000253509
0.000511355
0.000576061
0.00054758
0.000566722
0.000602564
0.000573323
0.000396403
0.000484683
0.0473533
-0.00168601
-0.00149797
-0.00129817
-0.00109712
-0.000898524
-0.000692719
-0.000474483
-0.00028683
-8.83594e-05
0.00019947
0.000347432
0.000397244
0.000279983
8.2257e-05
-7.67533e-06
-0.000181687
-0.000473143
-0.00091559
0.0486016
-0.00148731
-0.00134069
-0.00118174
-0.00101949
-0.000858432
-0.000699077
-0.000545157
-0.00040684
-0.000295607
-0.000164381
-1.41637e-05
2.40533e-05
-0.000153769
-0.000322165
-0.000491329
-0.000755332
-0.00113773
-0.00150064
0.0500342
-0.00131629
-0.00120568
-0.00108345
-0.000957421
-0.000832553
-0.000712005
-0.000600492
-0.000505777
-0.000436404
-0.000398541
-0.000395149
-0.000430213
-0.000509313
-0.000639627
-0.000836033
-0.00113021
-0.00153595
-0.00184387
0.0403316
-0.00117178
-0.0010925
-0.00100288
-0.000909771
-0.000818171
-0.000732277
-0.00065687
-0.000598036
-0.000561983
-0.000553398
-0.000575116
-0.000629967
-0.000721391
-0.000853507
-0.00103541
-0.00128716
-0.00160466
-0.00176324
-0.000305092
-0.00105132
-0.000999035
-0.000937996
-0.00087413
-0.000812203
-0.000756551
-0.000711569
-0.000682003
-0.000672244
-0.000685341
-0.00072275
-0.000784908
-0.00087123
-0.000979817
-0.00110895
-0.00125829
-0.00139773
-0.00133611
-0.000990495
-0.000951207
-0.000921968
-0.000885656
-0.000847334
-0.000811328
-0.00078167
-0.000762131
-0.000756283
-0.000766975
-0.00079557
-0.000841571
-0.000902414
-0.000972776
-0.00104358
-0.00110096
-0.00112256
-0.00105901
-0.000818154
-0.000368546
-0.000867031
-0.000857365
-0.000842262
-0.000825965
-0.000812267
-0.000804703
-0.000806353
-0.000819776
-0.00084651
-0.000886379
-0.000936896
-0.000992531
-0.00104346
-0.00107383
-0.00105819
-0.000952968
-0.000694579
-0.000301193
0.000216693
-0.000794367
-0.00080133
-0.000804306
-0.000806799
-0.000812087
-0.000823166
-0.000842484
-0.000871791
-0.000911608
-0.000960541
-0.00101452
-0.00106573
-0.00110097
-0.00109934
-0.00102662
-0.000822894
-0.000414021
0.000117134
0.00398189
-0.000729345
-0.000750474
-0.000768772
-0.000787138
-0.000808417
-0.000835145
-0.000869271
-0.000911976
-0.000963127
-0.00102059
-0.00107941
-0.00113065
-0.00115968
-0.0011439
-0.00104698
-0.000806923
-0.000355371
0.000251661
0.0467845
-0.000668927
-0.000702123
-0.000733302
-0.000764918
-0.000799505
-0.000839272
-0.000885851
-0.000940116
-0.00100165
-0.00106811
-0.00113444
-0.0011918
-0.00122613
-0.00121643
-0.00113084
-0.000919113
-0.000533623
-9.09927e-05
0.0564779
-0.000610929
-0.000654336
-0.000696196
-0.000738677
-0.000784143
-0.000834621
-0.000891614
-0.000955945
-0.00102726
-0.00110344
-0.00117997
-0.001249
-0.00129821
-0.00130971
-0.001258
-0.00110646
-0.000819935
-0.000453733
0.0577693
-0.000553923
-0.000605833
-0.000656342
-0.000707479
-0.000761566
-0.000820589
-0.000886096
-0.000959066
-0.00103947
-0.00112579
-0.00121445
-0.00129904
-0.00136944
-0.0014109
-0.0014032
-0.00131883
-0.00112193
-0.000795317
0.0574205
-0.000497143
-0.000555924
-0.000613148
-0.00067084
-0.000731382
-0.00079684
-0.000868942
-0.000948984
-0.00103746
-0.00113368
-0.00123525
-0.00133746
-0.00143236
-0.00150801
-0.0015482
-0.00153147
-0.00141701
-0.0011186
0.0582271
-0.000440427
-0.000504462
-0.000566507
-0.000628689
-0.000693537
-0.000763284
-0.000839932
-0.000925201
-0.00102024
-0.00112531
-0.00123936
-0.00135939
-0.00147956
-0.0015902
-0.00167805
-0.00172587
-0.00168878
-0.00142747
0.0591622
-0.00038419
-0.00045181
-0.000516747
-0.000581331
-0.000648297
-0.000720095
-0.00079905
-0.000887356
-0.000986879
-0.00109891
-0.0012238
-0.00136026
-0.00150424
-0.0016475
-0.00177731
-0.0018747
-0.00188308
-0.00162941
0.0393804
-0.000329346
-0.00039875
-0.000464561
-0.000529393
-0.000596222
-0.000667724
-0.000746544
-0.000835349
-0.000936731
-0.00105306
-0.00118613
-0.00133643
-0.00150164
-0.00167412
-0.00183845
-0.00196428
-0.00196559
-0.00163557
0.0146184
-0.000277178
-0.000346341
-0.000410869
-0.000473716
-0.000538094
-0.00060687
-0.000682948
-0.000769409
-0.00086953
-0.000986768
-0.00112453
-0.00128553
-0.00146985
-0.00167145
-0.00187266
-0.00202905
-0.00201677
-0.00159266
0.018616
-0.000229119
-0.000295705
-0.000356633
-0.000415208
-0.000474817
-0.000538416
-0.000609052
-0.000690088
-0.000785376
-0.000899415
-0.0010374
-0.00120509
-0.00140676
-0.00164149
-0.0018958
-0.00211993
-0.00216416
-0.00173317
0.0285764
-0.000186474
-0.00024777
-0.000302656
-0.000354686
-0.000407287
-0.00046334
-0.000525842
-0.000598229
-0.000684688
-0.000790548
-0.000922813
-0.00109096
-0.00130553
-0.00157581
-0.00190249
-0.00224794
-0.00245596
-0.00210821
0.0288921
-0.000150143
-0.000203054
-0.000249383
-0.000292716
-0.00033626
-0.000382597
-0.000434421
-0.000494929
-0.000568241
-0.000660015
-0.00077861
-0.000936828
-0.00115241
-0.00144958
-0.00185522
-0.00239657
-0.00291534
-0.00272359
0.0282116
-0.000120498
-0.000161529
-0.000196785
-0.000229473
-0.000262205
-0.000296981
-0.000335893
-0.000381504
-0.000437279
-0.000508294
-0.00060282
-0.00073485
-0.000926771
-0.0012168
-0.00167808
-0.00244734
-0.00352969
-0.00363413
0.0276288
-9.66127e-05
-0.000122007
-0.000144111
-0.000164717
-0.000185395
-0.000207291
-0.000231623
-0.000259932
-0.000294382
-0.000338325
-0.000397625
-0.000483105
-0.000614751
-0.00083317
-0.00122149
-0.00200051
-0.00389808
-0.0048912
0.0259629
-6.73702e-05
-7.89917e-05
-8.91102e-05
-9.84567e-05
-0.000107464
-0.000116413
-0.000125641
-0.00013561
-0.000146996
-0.000160933
-0.000179651
-0.000208211
-0.000258705
-0.000360227
-0.000522782
-0.00110526
-0.00324637
-0.00682671
0.00446032
)
;

boundaryField
{
    leftWall
    {
        type            fixedFluxPressure;
        gradient        uniform 0;
        value           nonuniform List<scalar> 
50
(
754.483
754.546
754.571
754.56
754.506
754.403
754.242
754.021
753.64
726.018
240.589
2.90162
2.87447
3.09423
2.19109
0.126433
0.0150568
0.0129222
0.0109786
0.00935301
0.00808166
0.00721858
0.00665087
0.00618623
0.00574346
0.005355
0.00486777
0.00420904
0.00344125
0.00292476
0.00245916
0.0020114
0.00159886
0.00123937
0.000934843
0.000688857
0.000508815
0.000377258
0.000284135
0.000220128
0.000173155
0.000137009
0.000119754
0.000124778
0.000154155
0.00021634
0.000322694
0.000460333
0.000869989
0.000791998
)
;
    }
    rightWall
    {
        type            fixedFluxPressure;
        gradient        uniform 0;
        value           nonuniform List<scalar> 
50
(
753.701
753.663
753.096
755.82
755.455
754.917
746.873
748.414
755.367
755.366
334.223
1.20099
1.20847
1.81128
1.1356
0.265085
0.021816
0.0214047
0.022461
0.0732498
0.0721329
0.0255212
0.00783487
0.0214016
0.0458909
0.0464188
0.0473533
0.0486016
0.0500342
0.0403316
-0.000305092
-0.000990495
-0.000368546
0.000216693
0.00398189
0.0467845
0.0564779
0.0577693
0.0574205
0.0582271
0.0591622
0.0393804
0.0146184
0.018616
0.0285764
0.0288921
0.0282116
0.0276288
0.0259629
0.00446032
)
;
    }
    lowerWall
    {
        type            fixedFluxPressure;
        gradient        uniform 0;
        value           nonuniform List<scalar> 
62
(
754.483
754.269
754.227
754.377
754.71
755.217
755.88
756.675
757.579
758.567
759.609
760.673
761.723
762.716
763.589
764.259
764.635
764.638
764.468
765.11
765.77
766.069
765.644
765.644
765.573
765.533
765.305
765.127
765.002
764.832
764.748
771.084
771.505
771.724
772.143
768.615
768.54
769.351
769.679
769.573
769.501
769.532
769.486
768.615
769.183
769.257
768.823
768.128
767.265
766.32
765.397
764.477
762.985
761.073
758.939
756.693
756.8
758.609
757.986
755.191
752.779
753.701
)
;
    }
    atmosphere
    {
        type            totalPressure;
        rho             rho;
        psi             none;
        gamma           1;
        p0              uniform 0;
        value           nonuniform List<scalar> 
46
(
-6.25211e-05
0
0
0
0
0
0
0
0
0
0
0
0
0
0
0
0
0
-5.6057e-07
-2.96245e-06
-7.84653e-06
-1.45408e-05
-2.22007e-05
-2.79729e-05
-3.17369e-05
-3.54435e-05
-3.90629e-05
-4.50293e-05
-5.25625e-05
-5.91602e-05
-6.47003e-05
-6.91333e-05
-7.24669e-05
-7.47541e-05
-7.6083e-05
-7.65681e-05
-7.63417e-05
-7.55445e-05
-7.4306e-05
-7.26947e-05
-7.05758e-05
-6.72026e-05
-5.99121e-05
-4.12672e-05
-1.81146e-06
0
)
;
    }
    defaultFaces
    {
        type            empty;
    }
}


// ************************************************************************* //
