/*--------------------------------*- C++ -*----------------------------------*\
  =========                 |
  \\      /  F ield         | OpenFOAM: The Open Source CFD Toolbox
   \\    /   O peration     | Website:  https://openfoam.org
    \\  /    A nd           | Version:  9
     \\/     M anipulation  |
\*---------------------------------------------------------------------------*/
FoamFile
{
    format      ascii;
    class       volScalarField;
    location    "8.91";
    object      k;
}
// * * * * * * * * * * * * * * * * * * * * * * * * * * * * * * * * * * * * * //

dimensions      [0 2 -2 0 0 0 0];

internalField   nonuniform List<scalar> 
2268
(
9.35606e-05
0.000241408
0.000356642
0.00044771
0.000522973
0.000586371
0.000640054
0.000685355
0.000723335
0.000755168
0.000782414
0.000806566
0.000828006
0.000844412
0.000849491
0.000832964
0.000793585
0.000733729
0.000651879
0.000558516
0.000469863
0.000330281
0.000156519
0.000206295
0.000559399
0.000796194
0.000984476
0.00114028
0.00127125
0.00138185
0.00147518
0.00155381
0.00162019
0.00167677
0.00172532
0.00176547
0.00179305
0.0017991
0.00177133
0.00170123
0.0015932
0.0014454
0.0012775
0.00109389
0.000791489
0.000353956
0.000296621
0.000748446
0.00103963
0.00127083
0.00146268
0.00162411
0.00176049
0.00187571
0.00197302
0.00205542
0.00212554
0.00218503
0.00223323
0.00226559
0.0022732
0.00224486
0.00217278
0.00205962
0.00190364
0.0017151
0.00148812
0.0011174
0.000501276
0.000374
0.000901494
0.00122915
0.00148747
0.00170186
0.00188231
0.00203475
0.00216358
0.00227258
0.00236504
0.00244369
0.00251008
0.00256342
0.00259929
0.00260938
0.00258381
0.00251544
0.00240636
0.0022549
0.00206434
0.00182035
0.00142046
0.000650721
0.00044171
0.00103748
0.00139537
0.00167446
0.00190551
0.00209975
0.00226368
0.00240219
0.00251951
0.00261921
0.00270406
0.0027756
0.0028331
0.00287242
0.00288598
0.00286488
0.0028028
0.0027017
0.00256066
0.00237854
0.00213401
0.00172254
0.000817955
0.000503016
0.00116318
0.00154871
0.00184557
0.00209017
0.00229521
0.00246788
0.00261364
0.0027372
0.00284239
0.0029321
0.00300788
0.00306915
0.00311218
0.00313008
0.0031147
0.00306042
0.00296956
0.00284272
0.00267611
0.00244426
0.00203823
0.00102558
0.0005605
0.00128238
0.00169431
0.00200745
0.00226379
0.0024777
0.00265719
0.00280843
0.0029367
0.00304617
0.0031398
0.00321922
0.0032841
0.00333111
0.00335403
0.00334526
0.00329995
0.00322083
0.0031105
0.00296429
0.00275733
0.00238624
0.00131433
0.000617422
0.00139765
0.0018353
0.00216406
0.0024311
0.00265252
0.00283732
0.00299257
0.0031243
0.00323705
0.00333388
0.0034165
0.00348482
0.00353595
0.00356422
0.00356271
0.00352737
0.00346127
0.00336833
0.00324536
0.00307339
0.00277663
0.00185593
0.000238381
0.000498664
0.000685912
0.000759156
0.000791205
0.000804901
0.000801286
0.000790753
0.000760605
0.000714759
0.000650786
0.000565072
0.000526707
0.000522653
0.000490121
0.000421934
0.000317323
0.000212676
0.000106027
0.000448696
0.00104652
0.00141247
0.00159462
0.00168552
0.00172759
0.00173373
0.00170992
0.00164991
0.00156315
0.00143571
0.00127426
0.00117775
0.00114571
0.00105826
0.00091367
0.000703932
0.000470478
0.000220937
0.000547671
0.00133869
0.00178605
0.00201383
0.00212949
0.00218289
0.00219235
0.00216295
0.00209214
0.00198899
0.001852
0.00169135
0.00157013
0.00148992
0.00136935
0.00119191
0.000943302
0.000652917
0.000318097
0.000611389
0.00157684
0.0020769
0.00232502
0.00245042
0.00250759
0.00251702
0.00248345
0.0024069
0.00229743
0.0021598
0.0020061
0.0018718
0.00175647
0.00161124
0.00141495
0.00114739
0.000828325
0.000409391
0.000690196
0.00181714
0.0023475
0.0025973
0.00272184
0.00277732
0.00278425
0.00274698
0.00266711
0.00255586
0.00242084
0.00227278
0.00212973
0.00198996
0.00182614
0.00161724
0.00133842
0.00100099
0.00049706
0.000832722
0.00209152
0.00261736
0.00285249
0.00296808
0.0030178
0.00302047
0.00297991
0.00289849
0.00278792
0.00265674
0.00251221
0.00236192
0.00220471
0.00202714
0.00180888
0.00152114
0.0011674
0.000582816
0.00108183
0.00241726
0.00289047
0.00309794
0.00319907
0.00324028
0.00323762
0.0031943
0.00311296
0.00300475
0.00287767
0.00273488
0.00257816
0.0024076
0.00221888
0.00199145
0.00169509
0.00132364
0.000668576
0.00162271
0.0027825
0.00316239
0.00333534
0.00341916
0.0034504
0.00344193
0.00339648
0.00331684
0.00321256
0.00308936
0.00294693
0.0027845
0.0026029
0.00240274
0.00216321
0.00185744
0.00146542
0.000755086
0.000695792
0.00156679
0.00204659
0.00240059
0.00268405
0.00291603
0.00310752
0.00326742
0.00340329
0.00352036
0.00362173
0.00370905
0.00378272
0.00384002
0.00387664
0.00388725
0.00386868
0.00382449
0.00375917
0.0036734
0.00356087
0.00339638
0.00305374
0.000804633
0.00179953
0.00233931
0.00272951
0.00303444
0.0032767
0.00347093
0.00363029
0.00376614
0.00388506
0.00398974
0.00408102
0.00415905
0.00422235
0.00426838
0.00429406
0.00429738
0.0042809
0.00424909
0.00420445
0.00415032
0.00408262
0.00396541
0.000946853
0.00205586
0.00265939
0.00309031
0.00341692
0.00366402
0.00385098
0.00399877
0.004127
0.00424373
0.00434956
0.00444291
0.00452327
0.00459055
0.00464325
0.00468099
0.00470426
0.00471445
0.00471246
0.00469807
0.00467957
0.00466528
0.00464947
0.00118734
0.00233582
0.00301422
0.00349605
0.0038376
0.00408274
0.00424942
0.00436956
0.00448242
0.00459564
0.00470369
0.00480006
0.00488234
0.00495334
0.00501108
0.00505834
0.00509877
0.00513238
0.00515698
0.00516024
0.00515888
0.00517669
0.00523186
0.00148389
0.00267128
0.00332065
0.00373326
0.00402175
0.00428308
0.0044949
0.00463829
0.0047674
0.00490075
0.00503083
0.00514528
0.00523498
0.00530569
0.00536045
0.00540362
0.00544608
0.00549186
0.00556595
0.00560151
0.00558894
0.00561042
0.00570239
0.00160228
0.00274253
0.0033447
0.00375904
0.00408592
0.00437558
0.00459377
0.00476847
0.00492957
0.0050914
0.00525149
0.00540187
0.00553567
0.00563254
0.00568305
0.00571925
0.00577212
0.00581115
0.00586294
0.00592515
0.00594888
0.00596878
0.00604038
0.00204917
0.00279459
0.00335587
0.00378813
0.00414395
0.0044485
0.00469202
0.0048856
0.00506298
0.00523662
0.00540553
0.00556566
0.00570887
0.00581657
0.00588472
0.00593902
0.00599499
0.00604042
0.00608599
0.00614482
0.00619713
0.00624616
0.00633136
0.00224173
0.00285392
0.00339148
0.00383353
0.00419655
0.00450401
0.00476733
0.00498845
0.00518472
0.00536894
0.00554349
0.00570779
0.0058541
0.00597221
0.00606315
0.00613656
0.00619961
0.00625413
0.00630661
0.00636325
0.00642023
0.00647833
0.00655033
0.00234201
0.00290905
0.00342538
0.00386428
0.00423692
0.00455689
0.00483621
0.00507927
0.00529587
0.00549527
0.00568109
0.00585539
0.00601359
0.00614552
0.00625293
0.00634273
0.0064177
0.00647982
0.00653598
0.00659105
0.00664629
0.00670276
0.00676174
0.00239265
0.00295119
0.00345978
0.00389881
0.00427909
0.00461113
0.00490489
0.0051663
0.00540229
0.00561881
0.00581907
0.00600577
0.00617622
0.00632268
0.00644651
0.0065526
0.00664073
0.00671171
0.0067718
0.00682715
0.00688104
0.00693465
0.00698597
0.00240518
0.00297914
0.00349292
0.00393615
0.00432449
0.00466832
0.00497582
0.00525351
0.0055073
0.00574064
0.00595554
0.00615435
0.0063359
0.00649571
0.00663487
0.00675657
0.0068589
0.00694142
0.00700963
0.00707027
0.00712699
0.00718044
0.00722785
0.00240619
0.0030022
0.00352805
0.00397891
0.00437576
0.00473043
0.00505074
0.00534319
0.00561265
0.00586103
0.00608937
0.00629995
0.00649267
0.00666542
0.00681899
0.00695506
0.00707186
0.00716831
0.00724882
0.00731967
0.007384
0.00744181
0.00749031
0.00239798
0.00302572
0.00356562
0.00402661
0.00443299
0.0047983
0.00513074
0.00543662
0.00571982
0.00598129
0.00622219
0.00644467
0.00664927
0.00683537
0.00700334
0.00715357
0.00728526
0.00739742
0.00749313
0.00757754
0.00765308
0.00771946
0.00777426
0.00240665
0.00304853
0.00360603
0.00407886
0.00449582
0.00487212
0.00521643
0.00553468
0.00583011
0.00610372
0.00635711
0.00659215
0.00680966
0.0070098
0.0071928
0.00735837
0.00750603
0.00763533
0.00774833
0.00784864
0.00793804
0.00801623
0.00808131
0.00239989
0.00307443
0.00364968
0.00413566
0.00456417
0.00495193
0.00530815
0.00563828
0.00594546
0.00623131
0.0064978
0.00674653
0.00697835
0.00719368
0.0073927
0.00757511
0.00774035
0.00788828
0.00802028
0.00813858
0.00824436
0.0083373
0.00841586
0.00240684
0.00310165
0.00369726
0.00419751
0.00463832
0.00503796
0.00540622
0.0057484
0.00606781
0.00636685
0.00664758
0.00691142
0.00715918
0.00739132
0.00760795
0.00780881
0.00799346
0.00816178
0.00831459
0.00845312
0.00857794
0.00868858
0.0087836
0.00240054
0.00313312
0.00374949
0.00426492
0.00471871
0.00513066
0.00551124
0.0058661
0.00619891
0.00651251
0.00680893
0.00708953
0.00735508
0.00760598
0.00784229
0.00806376
0.00827002
0.0084609
0.00863673
0.00879796
0.00894462
0.00907593
0.00919041
0.00240964
0.0031669
0.00380684
0.00433834
0.00480576
0.0052306
0.00562415
0.00599272
0.00634037
0.00667007
0.00698387
0.00728311
0.00756853
0.00784047
0.00809893
0.00834364
0.0085742
0.00879031
0.00899183
0.00917862
0.00935016
0.00950534
0.00964248
0.00239868
0.00320496
0.0038697
0.00441807
0.00489988
0.00533847
0.00574606
0.00612964
0.00649365
0.00684117
0.00717427
0.00749428
0.00780195
0.00809756
0.00838104
0.00865204
0.00891007
0.00915458
0.00938502
0.00960071
0.00980062
0.00998325
0.0101466
0.00240856
0.00324732
0.00393819
0.00450437
0.00500151
0.00545496
0.00587792
0.00627805
0.00666014
0.0070274
0.00738198
0.00772522
0.00805786
0.00838015
0.00869192
0.00899274
0.0092819
0.00955857
0.00982178
0.0100703
0.0103027
0.0105169
0.0107106
0.00240755
0.0032937
0.00401225
0.00459738
0.00511104
0.00558069
0.00602059
0.00643901
0.00684111
0.00723032
0.00760886
0.00797814
0.0083389
0.00869133
0.0090352
0.00936987
0.00969444
0.0100077
0.0103082
0.0105943
0.0108638
0.0111144
0.0113433
0.00240052
0.00334459
0.00409176
0.00469724
0.00522879
0.00571617
0.00617475
0.00661343
0.00703777
0.00745144
0.00785681
0.00825536
0.00864785
0.00903444
0.00941478
0.00978804
0.010153
0.0105081
0.0108513
0.0111805
0.0114927
0.0117852
0.0120547
0.00240044
0.00339714
0.00417673
0.00480403
0.00535497
0.00586178
0.00634098
0.00680213
0.00725123
0.00769223
0.0081277
0.00855924
0.00898765
0.00941305
0.00983496
0.0102523
0.0106636
0.0110666
0.0114589
0.0118376
0.0121992
0.0125401
0.0128564
0.00240501
0.00345525
0.0042672
0.00491771
0.00548965
0.00601775
0.0065197
0.00700578
0.00748248
0.00795408
0.0084234
0.00889219
0.00936134
0.00983094
0.0103004
0.0107683
0.0112327
0.011691
0.0121399
0.0125757
0.0129943
0.0133911
0.0137614
0.00240825
0.00351599
0.00436283
0.00503812
0.00563279
0.00618416
0.00671119
0.00722492
0.00773238
0.00823824
0.00874566
0.0092566
0.00977205
0.0102921
0.0108159
0.011342
0.0118677
0.0123897
0.0129041
0.0134061
0.0138906
0.014352
0.0147847
0.00240939
0.00358021
0.00446331
0.00516492
0.00578411
0.00636089
0.00691551
0.00745986
0.00800157
0.00854582
0.00909613
0.00965476
0.0102229
0.0108006
0.0113869
0.0119799
0.0125764
0.0131723
0.0137626
0.0143414
0.0149023
0.0154384
0.015943
0.00240811
0.00364775
0.00456807
0.00529758
0.00594315
0.00654756
0.00713247
0.00771066
0.00829046
0.00887762
0.00947617
0.0100888
0.0107168
0.0113604
0.0120186
0.0126888
0.0133674
0.0140491
0.0147276
0.0153957
0.0160452
0.0166678
0.0172553
0.00240433
0.00371651
0.00467637
0.00543533
0.00610918
0.00674354
0.00736156
0.00797702
0.00859904
0.00923408
0.00988678
0.0105603
0.0112564
0.0119755
0.0127162
0.0134758
0.0142495
0.015031
0.0158124
0.0165844
0.0173371
0.01806
0.018743
0.00240745
0.00378908
0.00478756
0.00557718
0.00628112
0.00694783
0.00760192
0.00825824
0.00892686
0.00961508
0.0103284
0.0110706
0.0118439
0.0126491
0.0134848
0.0143476
0.0152319
0.0161297
0.0170312
0.0179248
0.0187977
0.019637
0.0204302
0.00241026
0.00386153
0.00489994
0.00572154
0.00645747
0.00715898
0.00785221
0.00855316
0.00927297
0.01002
0.0108007
0.0116198
0.0124805
0.0133838
0.0143284
0.0153105
0.0163233
0.0173571
0.0183992
0.019435
0.0204485
0.0214232
0.0223437
0.00241131
0.00393382
0.00501192
0.00586654
0.0066363
0.00737507
0.0081105
0.00885987
0.00963551
0.0104471
0.0113023
0.0122073
0.0131661
0.0141807
0.01525
0.0163697
0.0175318
0.0187241
0.0199311
0.0211342
0.0223128
0.0234461
0.0245143
0.00240706
0.00400322
0.00512094
0.00600969
0.00681516
0.00759365
0.00837431
0.00917574
0.0100117
0.0108935
0.0118304
0.0128302
0.0138987
0.0150387
0.01625
0.0175278
0.0188629
0.0202405
0.0216413
0.0230416
0.0244152
0.0257351
0.0269761
0.00240787
0.00406795
0.00522414
0.00614796
0.00699111
0.00781181
0.00864057
0.0094974
0.0103978
0.0113549
0.0123802
0.0134838
0.0146734
0.0159537
0.0173253
0.0187838
0.0203185
0.0219121
0.0235409
0.025175
0.0267807
0.0283225
0.0297673
0.00240631
0.00412364
0.00531663
0.00627735
0.0071607
0.00802622
0.00890566
0.00982064
0.0107887
0.0118254
0.012945
0.0141603
0.0154819
0.0169168
0.0184676
0.0201305
0.0218942
0.023739
0.0256362
0.0275489
0.0294335
0.0312427
0.0329314
0.0024114
0.0041633
0.0053931
0.00639353
0.00732039
0.00823343
0.0091656
0.0101405
0.0111781
0.0122971
0.0135152
0.0148485
0.0163112
0.0179139
0.0196618
0.0215529
0.0235765
0.0257114
0.0279246
0.0301714
0.0323956
0.034533
0.0365194
0.00241085
0.00417807
0.00544644
0.00649207
0.00746693
0.00843017
0.00941617
0.0104511
0.0115584
0.0127603
0.0140783
0.0155331
0.0171432
0.0189235
0.0208834
0.0230245
0.0253386
0.0278054
0.03039
0.0330402
0.035685
0.0382353
0.040595
0.0024115
0.00416006
0.00547055
0.00656988
0.00759829
0.00861376
0.00965305
0.0107461
0.0119205
0.0132027
0.014619
0.0161947
0.0179536
0.0199162
0.0220975
0.0245051
0.0271367
0.0299774
0.0329957
0.0361364
0.0393124
0.042399
0.0452438
0.00241109
0.00409755
0.00546104
0.00662653
0.00771454
0.00878249
0.00987186
0.0110181
0.0122538
0.0136104
0.0151188
0.0168098
0.0187126
0.0208544
0.0232575
0.0259383
0.0289055
0.032157
0.0356749
0.0394125
0.0432733
0.0470843
0.0505918
0.00240758
0.00398189
0.00541654
0.00666519
0.00781792
0.00893518
0.0100677
0.0112586
0.0125465
0.0139675
0.0155573
0.0173516
0.0193857
0.0216933
0.0243059
0.0272517
0.0305557
0.0342393
0.0383154
0.0427708
0.0475258
0.0523615
0.0568425
0.00363537
0.00394447
0.0053413
0.00668967
0.00791028
0.00906903
0.0102336
0.0114576
0.0127855
0.0142575
0.0159131
0.0177925
0.0199361
0.0223844
0.0251782
0.0283592
0.031974
0.0360783
0.0407391
0.046021
0.0519333
0.058283
0.0643667
0.0173373
0.00536998
0.00525709
0.00669482
0.00798738
0.00917586
0.010359
0.0116029
0.0129568
0.0144637
0.0161657
0.0181058
0.0203286
0.02288
0.0258087
0.0291694
0.0330308
0.0374883
0.0426821
0.0488109
0.0561166
0.0647323
0.0739605
0.0839885
0.0136754
0.00536743
0.00668271
0.0080361
0.00923938
0.010429
0.0116812
0.0130474
0.0145719
0.0162978
0.0182697
0.0205341
0.0231402
0.0261415
0.0296006
0.033601
0.0382681
0.0438051
0.0505566
0.0591345
0.0707043
0.0877191
0.0021024
0.00182596
0.00186348
0.00216598
0.00380287
0.00373126
0.00371529
0.00374818
0.00462068
0.00459508
0.00456953
0.00454989
0.00526896
0.00524578
0.00519627
0.00514741
0.00580523
0.00580872
0.00572436
0.00563399
0.00610143
0.00613165
0.00608938
0.00601477
0.00641466
0.00642347
0.00637832
0.00630958
0.00660691
0.00661645
0.00659247
0.00655183
0.00679825
0.00680859
0.00680203
0.0067833
0.00701372
0.00702342
0.00702401
0.0070168
0.00725203
0.00726174
0.00726552
0.00726383
0.00751524
0.00752651
0.00753274
0.00753424
0.00780353
0.007818
0.00782769
0.00783273
0.00811774
0.00813685
0.00815123
0.0081608
0.00846168
0.00848673
0.00850693
0.00852209
0.00884085
0.00887305
0.00890019
0.00892204
0.00926117
0.00930179
0.00933709
0.00936683
0.00972903
0.00977949
0.00982433
0.0098633
0.0102515
0.0103135
0.0103694
0.0104192
0.0108368
0.010912
0.010981
0.0110432
0.0114941
0.0115848
0.0116687
0.0117455
0.012234
0.0123426
0.0124438
0.0125374
0.0130687
0.0131978
0.0133189
0.0134318
0.0140117
0.0141644
0.0143085
0.0144435
0.0150786
0.0152584
0.0154287
0.015589
0.0162868
0.0164977
0.016698
0.016887
0.0176563
0.0179027
0.018137
0.0183586
0.0192095
0.0194963
0.0197693
0.0200277
0.0209715
0.0213043
0.0216211
0.0219211
0.0229708
0.0233561
0.0237225
0.0240692
0.0252399
0.025685
0.0261076
0.0265067
0.0278153
0.0283287
0.028815
0.0292728
0.0307385
0.0313307
0.0318892
0.032413
0.0340577
0.0347413
0.0353825
0.0359804
0.0378309
0.0386217
0.0393581
0.0400391
0.0421314
0.0430496
0.0438958
0.0446697
0.0470591
0.0481299
0.0491021
0.0499772
0.0527597
0.0540127
0.0551251
0.0561032
0.0594605
0.0609237
0.0621771
0.0632402
0.0675421
0.069213
0.0705616
0.0716427
0.077679
0.0794172
0.0806813
0.0816078
0.0910529
0.0922269
0.0929164
0.0933464
0.00287451
0.00334409
0.00357404
0.00369234
0.00374858
0.00376391
0.00374697
0.00369893
0.00362427
0.0035286
0.00341098
0.00326774
0.00309735
0.00290016
0.00267499
0.00241084
0.00208655
0.00165323
0.000837593
0.00383945
0.00398151
0.00408051
0.0041384
0.00416311
0.00416141
0.00413736
0.00409141
0.00402539
0.00394178
0.00383112
0.00368379
0.00349922
0.00327695
0.00301103
0.00270502
0.00233957
0.00184469
0.000897588
0.00452762
0.00452989
0.00454583
0.00455866
0.00455992
0.00454729
0.00452032
0.00447803
0.00441994
0.00434717
0.00424177
0.00408599
0.0038799
0.00363181
0.00332924
0.00297995
0.0025655
0.0020057
0.000972544
0.00508173
0.00500883
0.00497505
0.00495777
0.00494243
0.0049226
0.00489491
0.00485657
0.00480476
0.00474288
0.00464753
0.00448099
0.00424439
0.00397565
0.00364198
0.00325044
0.00278681
0.00216345
0.00130781
0.00552251
0.00542299
0.00536953
0.00532811
0.00529373
0.00526348
0.00522866
0.00518091
0.00511088
0.00502606
0.00492427
0.00478529
0.00457696
0.00427123
0.00393394
0.00351686
0.00302192
0.00235595
0.00117867
0.00591534
0.00578749
0.00571155
0.00565427
0.00561031
0.0055688
0.00551195
0.00543768
0.00534881
0.00525232
0.00514208
0.0050143
0.00481916
0.00452741
0.00419591
0.0037709
0.00325481
0.00254798
0.00138641
0.00621113
0.00609922
0.00601931
0.00595241
0.00589724
0.00584354
0.00576564
0.00567067
0.00556985
0.00546482
0.00535345
0.00524665
0.0050644
0.00470437
0.00434498
0.00393592
0.00343841
0.00278196
0.0019469
0.00648204
0.00638422
0.0063016
0.00623092
0.00616701
0.00609469
0.00599969
0.00589142
0.0057777
0.00565913
0.00552834
0.00537672
0.00513896
0.00478516
0.00440652
0.00399204
0.00349901
0.00285432
0.00194705
0.00674101
0.00666232
0.00658234
0.00650759
0.00643329
0.00634179
0.00623171
0.00611029
0.00598191
0.00584374
0.00568252
0.00547629
0.00518858
0.00483051
0.00443555
0.00399779
0.00348801
0.00283814
0.00195089
0.00699462
0.00693812
0.00686606
0.00679
0.00670601
0.00659935
0.006473
0.00633415
0.00618525
0.0060217
0.00582709
0.00557447
0.00523971
0.00485844
0.00444407
0.00397929
0.00344509
0.00278396
0.00194705
0.00725282
0.00721344
0.00715214
0.0070777
0.00698626
0.00686783
0.00672664
0.00656946
0.00639653
0.00620297
0.00597439
0.00568578
0.00531687
0.00489962
0.00445398
0.00396207
0.00340323
0.0027322
0.00194443
0.00752932
0.00749942
0.00744654
0.00737351
0.00727656
0.0071506
0.00699892
0.00682557
0.00662978
0.00640699
0.00614622
0.00582899
0.00543729
0.00498612
0.00449999
0.00397184
0.00338509
0.00270155
0.00194357
0.00783343
0.00781017
0.00776251
0.00768993
0.00758983
0.00745961
0.00730057
0.0071141
0.00689899
0.00665132
0.00636328
0.00602247
0.00561436
0.00513823
0.00461161
0.00404206
0.00342199
0.00271343
0.00194944
0.00816856
0.00815322
0.00811078
0.00804006
0.0079392
0.00780671
0.00764236
0.00744592
0.00721577
0.00694862
0.00663887
0.00627839
0.00585674
0.00536543
0.00480881
0.00420025
0.00354098
0.0027812
0.00194706
0.00853868
0.00853364
0.00849874
0.00843257
0.00833372
0.00820098
0.00803341
0.00782993
0.00758873
0.00730697
0.0069805
0.00660364
0.00616907
0.00566778
0.00509564
0.00445965
0.00375595
0.00291108
0.00191854
0.00894928
0.00895719
0.00893271
0.00887416
0.00878016
0.00864951
0.008481
0.00827319
0.00802421
0.00773161
0.00739212
0.00700153
0.00655441
0.0060437
0.00546279
0.00480812
0.00405864
0.00311809
0.00191241
0.00940668
0.00943033
0.00941919
0.00937124
0.0092849
0.00915884
0.00899168
0.00878185
0.00852754
0.00822656
0.00787627
0.00747336
0.00701362
0.00649139
0.00589911
0.00522382
0.00442747
0.00338818
0.00194884
0.00991799
0.00996037
0.00996553
0.00993105
0.00985507
0.00973599
0.00957227
0.00936226
0.00910418
0.00879603
0.00843553
0.00801989
0.00754552
0.00700719
0.00639608
0.00569336
0.00484921
0.00371395
0.00195139
0.0104912
0.0105556
0.0105802
0.010562
0.010499
0.0103891
0.0102306
0.0100217
0.00976063
0.00944536
0.00907375
0.0086432
0.00815017
0.00758914
0.00694989
0.00621017
0.00531422
0.00409596
0.00195386
0.0111355
0.0112257
0.0112729
0.011274
0.0112264
0.0111277
0.010976
0.010769
0.010505
0.0101817
0.00979695
0.00934793
0.0088308
0.00823933
0.00756181
0.00677354
0.0058143
0.00450342
0.00210436
0.0118612
0.0119812
0.0120547
0.0120782
0.0120485
0.011963
0.0118192
0.0116147
0.0113473
0.0110144
0.0106137
0.0101417
0.00959428
0.00896412
0.00823791
0.00738912
0.00635292
0.00493136
0.00229845
0.0126802
0.0128345
0.0129383
0.0129874
0.0129783
0.0129078
0.012773
0.0125712
0.0122995
0.0119552
0.011535
0.0110353
0.0104508
0.0097737
0.00898929
0.00806824
0.00694109
0.00539584
0.00251247
0.0136058
0.0137995
0.0139378
0.014016
0.0140302
0.0139766
0.0138519
0.0136528
0.013376
0.0130179
0.0125748
0.0120423
0.0114144
0.0106819
0.0098289
0.00882357
0.0075915
0.00590394
0.00275418
0.0146532
0.0148918
0.0150691
0.0151802
0.0152205
0.0151858
0.0150723
0.014876
0.0145929
0.014219
0.0137496
0.0131793
0.012501
0.0117043
0.0107718
0.00966934
0.00831699
0.0064669
0.0030166
0.0158394
0.0161288
0.0163502
0.016498
0.0165674
0.0165536
0.0164524
0.0162592
0.0159693
0.0155776
0.0150784
0.014465
0.0137292
0.0128591
0.0118354
0.0106215
0.00913101
0.00709419
0.0033009
0.0171836
0.0175302
0.0178009
0.0179896
0.0180911
0.0181005
0.0180129
0.0178233
0.017526
0.0171147
0.0165826
0.0159213
0.0151208
0.0141676
0.0130402
0.0116986
0.0100489
0.00779617
0.0036067
0.0187074
0.0191182
0.0194434
0.0196771
0.019814
0.0198488
0.0197765
0.0195911
0.0192863
0.0188544
0.0182867
0.017573
0.0167012
0.0156551
0.0144105
0.012923
0.01109
0.0085868
0.00393556
0.0204352
0.0209172
0.0213026
0.0215855
0.0217607
0.0218233
0.0217679
0.021588
0.0212761
0.0208232
0.0202184
0.019449
0.0184999
0.0173514
0.0159757
0.014323
0.0122801
0.00948864
0.00430697
0.0223943
0.022955
0.0234061
0.0237421
0.0239586
0.0240512
0.0240145
0.0238417
0.0235242
0.0230511
0.0224091
0.0215821
0.020551
0.0192919
0.0177715
0.0159334
0.0136523
0.0105325
0.00475018
0.0246157
0.0252628
0.0257847
0.0261773
0.0264376
0.0265622
0.0265462
0.0263826
0.0260619
0.025571
0.0248935
0.0240094
0.0228942
0.021518
0.0198405
0.0177966
0.0152466
0.0117534
0.00528734
0.0271346
0.0278757
0.028473
0.0289249
0.0292306
0.0293886
0.0293953
0.0292437
0.0289233
0.028419
0.0277106
0.0267729
0.0255749
0.0240784
0.0222334
0.0199632
0.0171101
0.013188
0.00592673
0.0299911
0.0308334
0.0315098
0.0320223
0.0323738
0.032566
0.0325969
0.0324606
0.0321456
0.0316343
0.0309028
0.0299195
0.0286449
0.0270298
0.0250109
0.0224946
0.0192996
0.0148796
0.00667588
0.0332312
0.0341813
0.0349385
0.0355109
0.0359071
0.0361328
0.0361892
0.0360717
0.0357683
0.0352593
0.0345164
0.0335007
0.0321625
0.0304381
0.0282453
0.025467
0.0218881
0.0168872
0.00756017
0.0369086
0.0379715
0.0388087
0.0394375
0.0398743
0.0401312
0.0402133
0.0401179
0.0398337
0.0393388
0.0386006
0.0375725
0.0361925
0.0343788
0.0320239
0.028976
0.0249718
0.0192921
0.00861611
0.0410878
0.0422652
0.0431771
0.0438542
0.0443243
0.0446073
0.0447136
0.0446435
0.0443866
0.0439199
0.0432069
0.0421937
0.0408048
0.0389372
0.0364499
0.0331423
0.0286791
0.0222076
0.00989327
0.0458476
0.047135
0.0481088
0.0488202
0.0493114
0.049612
0.0497389
0.049696
0.0494744
0.0490515
0.0483881
0.0474243
0.0460722
0.0442057
0.0416433
0.0381171
0.0331841
0.0257965
0.0114579
0.0512875
0.0526675
0.0536793
0.0544021
0.0548961
0.055202
0.055343
0.0553271
0.0551479
0.0547841
0.0541966
0.0533224
0.0520652
0.0502778
0.0477355
0.0440851
0.0387257
0.0303072
0.0134307
0.0575333
0.0589656
0.0599743
0.0606747
0.0611467
0.061441
0.0615865
0.0615947
0.0614621
0.0611705
0.0606837
0.0599411
0.0588449
0.057237
0.0548564
0.0512579
0.0456268
0.0361327
0.016032
0.0647413
0.066147
0.0670884
0.0677204
0.0681391
0.0684015
0.068539
0.0685651
0.0684792
0.0682674
0.0679002
0.0673255
0.0664553
0.0651383
0.063104
0.0598404
0.0542943
0.0439029
0.0196293
0.0730919
0.0743357
0.0751206
0.0756284
0.075959
0.0761673
0.0762823
0.0763168
0.0762723
0.0761402
0.0758999
0.075514
0.0749167
0.0739884
0.0724966
0.0699467
0.0651476
0.0546275
0.0249329
0.0827565
0.0836418
0.0841658
0.0844933
0.0847037
0.0848374
0.084915
0.0849458
0.0849318
0.0848691
0.084747
0.084546
0.0842306
0.0837339
0.0829169
0.0814439
0.0783308
0.0697143
0.0334439
0.0938154
0.0941328
0.0943097
0.0944176
0.0944867
0.0945314
0.0945588
0.0945721
0.0945724
0.0945592
0.09453
0.0944807
0.0944041
0.0942873
0.0941036
0.0937798
0.0930105
0.0896796
0.0470103
)
;

boundaryField
{
    leftWall
    {
        type            kqRWallFunction;
        value           nonuniform List<scalar> 
50
(
9.35606e-05
0.000206295
0.000296621
0.000374
0.00044171
0.000503016
0.0005605
0.000617422
0.000695792
0.000804633
0.000946853
0.00118734
0.00148389
0.00160228
0.00204917
0.00224173
0.00234201
0.00239265
0.00240518
0.00240619
0.00239798
0.00240665
0.00239989
0.00240684
0.00240054
0.00240964
0.00239868
0.00240856
0.00240755
0.00240052
0.00240044
0.00240501
0.00240825
0.00240939
0.00240811
0.00240433
0.00240745
0.00241026
0.00241131
0.00240706
0.00240787
0.00240631
0.0024114
0.00241085
0.0024115
0.00241109
0.00240758
0.00363537
0.0173373
0.0839885
)
;
    }
    rightWall
    {
        type            kqRWallFunction;
        value           nonuniform List<scalar> 
50
(
0.000106027
0.000220937
0.000318097
0.000409391
0.00049706
0.000582816
0.000668576
0.000755086
0.000837593
0.000897588
0.000972544
0.00130781
0.00117867
0.00138641
0.0019469
0.00194705
0.00195089
0.00194705
0.00194443
0.00194357
0.00194944
0.00194706
0.00191854
0.00191241
0.00194884
0.00195139
0.00195386
0.00210436
0.00229845
0.00251247
0.00275418
0.0030166
0.0033009
0.0036067
0.00393556
0.00430697
0.00475018
0.00528734
0.00592673
0.00667588
0.00756017
0.00861611
0.00989327
0.0114579
0.0134307
0.016032
0.0196293
0.0249329
0.0334439
0.0470103
)
;
    }
    lowerWall
    {
        type            kqRWallFunction;
        value           nonuniform List<scalar> 
62
(
9.35606e-05
0.000241408
0.000356642
0.00044771
0.000522973
0.000586371
0.000640054
0.000685355
0.000723335
0.000755168
0.000782414
0.000806566
0.000828006
0.000844412
0.000849491
0.000832964
0.000793585
0.000733729
0.000651879
0.000558516
0.000469863
0.000330281
0.000156519
0.000156519
0.000353956
0.000501276
0.000650721
0.000817955
0.00102558
0.00131433
0.00185593
0.0021024
0.00182596
0.00186348
0.00216598
0.000238381
0.000448696
0.000547671
0.000611389
0.000690196
0.000832722
0.00108183
0.00162271
0.000238381
0.000498664
0.000685912
0.000759156
0.000791205
0.000804901
0.000801286
0.000790753
0.000760605
0.000714759
0.000650786
0.000565072
0.000526707
0.000522653
0.000490121
0.000421934
0.000317323
0.000212676
0.000106027
)
;
    }
    atmosphere
    {
        type            inletOutlet;
        inletValue      uniform 0.1;
        value           nonuniform List<scalar> 
46
(
0.1
0.0136754
0.00536743
0.00668271
0.0080361
0.00923938
0.010429
0.0116812
0.0130474
0.0145719
0.0162978
0.0182697
0.0205341
0.0231402
0.0261415
0.0296006
0.033601
0.0382681
0.0438051
0.0505566
0.0591345
0.0707043
0.1
0.1
0.1
0.1
0.1
0.1
0.1
0.1
0.1
0.1
0.1
0.1
0.1
0.1
0.1
0.1
0.1
0.1
0.1
0.1
0.1
0.1
0.1
0.0470103
)
;
    }
    defaultFaces
    {
        type            empty;
    }
}


// ************************************************************************* //
