/*--------------------------------*- C++ -*----------------------------------*\
  =========                 |
  \\      /  F ield         | OpenFOAM: The Open Source CFD Toolbox
   \\    /   O peration     | Website:  https://openfoam.org
    \\  /    A nd           | Version:  9
     \\/     M anipulation  |
\*---------------------------------------------------------------------------*/
FoamFile
{
    format      ascii;
    class       volScalarField;
    location    "8.91";
    object      p_rgh;
}
// * * * * * * * * * * * * * * * * * * * * * * * * * * * * * * * * * * * * * //

dimensions      [1 -1 -2 0 0 0 0];

internalField   nonuniform List<scalar> 
2268
(
755.236
755.391
755.651
756.017
756.477
757.022
757.641
758.321
759.052
759.82
760.613
761.415
762.21
762.979
763.704
764.375
764.991
765.562
766.042
766.429
766.897
767.21
767.39
755.201
755.351
755.609
755.973
756.433
756.979
757.6
758.284
759.02
759.794
760.593
761.4
762.197
762.968
763.697
764.385
765.034
765.648
766.119
766.531
767.002
767.235
767.407
755.139
755.288
755.545
755.907
756.369
756.918
757.544
758.235
758.979
759.763
760.572
761.388
762.194
762.973
763.715
764.423
765.102
765.751
766.237
766.598
767.11
767.285
767.46
755.05
755.201
755.459
755.823
756.288
756.843
757.477
758.177
758.933
759.729
760.551
761.381
762.203
762.999
763.761
764.477
765.165
765.842
766.448
766.634
767.204
767.354
767.538
754.934
755.089
755.351
755.72
756.191
756.754
757.398
758.111
758.881
759.693
760.531
761.38
762.222
763.043
763.83
764.543
765.134
765.899
766.606
767.028
767.321
767.174
767.655
754.79
754.95
755.219
755.595
756.075
756.65
757.308
758.037
758.823
759.653
760.511
761.382
762.251
763.101
763.924
764.643
764.813
765.994
766.691
767.24
767.448
766.672
767.832
754.619
754.786
755.063
755.448
755.94
756.53
757.205
757.952
758.758
759.608
760.489
761.385
762.285
763.172
764.038
764.89
764.247
762.616
766.387
767.374
765.378
765.62
768.047
754.421
754.594
754.88
755.277
755.782
756.391
757.086
757.855
758.683
759.558
760.465
761.39
762.325
763.254
764.173
765.098
764.168
761.462
762.645
764.95
763.709
766.671
768.402
766.618
766.322
766.098
765.614
764.947
764.109
763.067
762.049
761.008
759.937
758.806
757.762
757.087
756.689
756.12
755.638
755.206
754.929
754.84
766.664
766.277
766.072
765.597
764.939
764.127
763.261
762.277
761.256
760.256
759.069
757.793
756.947
756.702
756.102
755.613
755.16
754.757
754.684
766.254
766.164
766.131
765.624
764.956
764.142
763.259
762.284
761.27
760.31
759.454
757.818
756.9
756.469
756.088
755.587
754.897
754.532
754.478
765.629
766.137
766.299
765.719
765.019
764.18
763.256
762.274
761.214
760.248
759.521
758.779
757.495
756.646
755.979
755.541
754.883
754.463
754.869
765.715
766.743
766.539
765.863
765.114
764.228
763.308
762.33
761.188
760.223
759.427
758.875
758.107
757.006
755.593
755.203
754.884
754.854
754.765
765.884
767.444
766.797
766.03
765.23
764.355
763.423
762.394
761.211
760.287
759.479
758.78
757.993
757.042
755.294
752.928
752.446
754.675
754.644
768.384
767.976
767.044
766.206
765.369
764.457
763.516
762.361
760.562
759.988
759.417
758.686
757.881
756.692
754.13
754.211
751.974
753.922
754.518
768.99
768.149
767.245
766.389
765.518
764.565
763.616
762.486
757.926
755.688
757.924
758.595
757.553
753.795
752.932
755.042
751.591
753.232
754.395
754.065
754.246
754.545
754.961
755.493
756.135
756.87
757.679
758.55
759.468
760.42
761.397
762.398
763.408
764.419
765.453
766.545
765.934
762.917
763.255
766.98
769.231
769.166
735.451
735.836
736.593
737.704
739.511
741.753
743.828
745.42
746.878
748.249
749.477
750.68
752.631
754.931
757.769
761.388
765.528
766.589
767.586
768.26
768.671
768.942
766.698
243.761
245.109
246.936
249.187
251.437
254.208
257.939
262.917
268.762
275.213
282.097
289.004
295.332
301.043
306.102
310.788
316.042
325.782
333.13
336.967
338.115
337.411
340.352
0.593492
0.591508
0.577517
0.574631
0.623112
0.670965
0.705147
0.716512
0.721392
0.727041
0.730783
0.753554
0.752842
0.847023
1.03642
1.29932
1.58976
1.12536
0.621362
0.612975
0.692111
0.70577
0.610579
0.786419
0.783342
0.664868
0.575147
1.1882
1.67121
1.97687
2.04508
2.08651
2.15409
2.1911
2.19638
2.07902
1.93426
1.9076
1.8396
1.61061
1.12869
0.581967
0.625706
0.693397
0.659136
0.523023
0.306463
0.242779
0.276294
0.316081
0.110807
0.00792316
0.00447209
0.00329635
0.00288715
0.00242899
0.00242303
0.00483623
0.0124405
0.0440839
0.0461059
0.056029
0.0946437
0.261534
0.334782
0.311872
0.31785
0.391799
0.340071
0.008864
0.00782634
0.00796699
0.00749837
0.00679162
0.00597491
0.0046004
0.00377115
0.00319899
0.00272162
0.00246983
0.0215862
0.0732176
0.0729992
0.0718791
0.0354473
0.00281437
0.00115772
0.00385566
0.00156962
0.0210365
0.0519217
0.101103
0.00595403
0.00623249
0.00596801
0.00592054
0.00684262
0.00669839
0.00449714
0.00363459
0.00377771
0.00307513
0.00194061
0.01593
0.0465121
0.0469835
0.0218425
0.016324
0.00424297
-0.000416483
-0.00127634
-0.00130832
-0.00171849
-0.00216048
0.000420495
0.00574952
0.00565
0.00542938
0.00529137
0.00673966
0.00695965
0.00616481
0.00413345
0.00620116
0.00566175
0.00346717
-0.00023099
-0.00148637
-0.00202116
0.000527415
0.0103662
0.00892647
-0.00124942
-0.00129698
-0.00132729
-0.00151854
-0.00166529
-0.00134149
0.00504962
0.00493348
0.00474015
0.00445737
0.00527088
0.00656119
0.00562765
0.00380105
0.0062419
0.00564139
0.00277578
-0.000118023
-0.000878221
-0.00126508
-0.0013231
-0.000417686
0.00052663
-0.0011976
-0.00128607
-0.00132121
-0.00143249
-0.00150266
-0.000908991
0.00451837
0.00435644
0.00416953
0.00390064
0.00374734
0.00446498
0.00323262
0.00266935
0.00594853
0.00567224
0.000811105
-2.41636e-05
-0.000557562
0.000283761
0.00113612
-0.000109765
-0.00114315
-0.00119267
-0.00123079
-0.00130816
-0.00145018
-0.00160123
0.0060639
0.00402991
0.00395596
0.00381019
0.00344282
0.0031234
0.00274837
0.00236177
0.00227859
0.00555708
0.00376497
0.000483827
3.35231e-05
-0.000395124
0.00185064
0.0100261
0.00985318
0.00151283
-0.00107967
-0.00121261
-0.00132407
-0.00150022
-0.00175677
-0.00158975
0.00356114
0.00362469
0.00346834
0.00306503
0.00277236
0.00245706
0.0023158
0.00427903
0.00474166
0.00111752
0.000444239
5.87024e-05
-0.000322859
0.00129712
0.0106087
0.0105319
0.0105263
0.00157995
-0.00122524
-0.00135612
-0.00152936
-0.00178095
-0.00214212
0.0031426
0.00325852
0.00311469
0.00272813
0.00246048
0.00222813
0.00382967
0.00476334
0.00360661
0.000751019
0.000414806
7.18909e-05
-0.000275882
-0.000620937
0.000975308
0.00987737
0.0110002
0.0029172
-0.00124151
-0.00133911
-0.00148401
-0.00168118
-0.00194609
0.00278841
0.00278945
0.00275424
0.0024142
0.00218296
0.00209374
0.00507425
0.00474692
0.00239838
0.000682995
0.000388825
8.56974e-05
-0.000221779
-0.000534866
-0.000785534
-0.000240985
0.000551011
-0.000299701
-0.00121111
-0.00128246
-0.00138714
-0.00154482
-0.00172426
0.00247118
0.00239627
0.00230403
0.0021376
0.00194056
0.00179001
0.00346635
0.00380354
0.000870319
0.000626001
0.000368562
0.000102789
-0.000165051
-0.00043086
-0.00068941
-0.0009097
-0.0010447
-0.0010921
-0.00111823
-0.00117437
-0.00127468
-0.00140359
-0.00154992
0.0022015
0.00214168
0.00204496
0.00190731
0.00173625
0.00156628
0.00129813
0.00113458
0.000804107
0.000583748
0.000354727
0.000120876
-0.000111781
-0.000338294
-0.0005523
-0.000735744
-0.000867499
-0.000950484
-0.00101622
-0.00108861
-0.00117637
-0.00127663
-0.00137025
0.00197016
0.0019445
0.00183227
0.00170775
0.00156154
0.00139692
0.00116126
0.000951152
0.000750496
0.000549589
0.00034468
0.000138367
-6.46671e-05
-0.000260304
-0.000442925
-0.000602609
-0.000729194
-0.000824798
-0.000906118
-0.000985344
-0.00106464
-0.00114121
-0.00120893
0.00232714
0.00232622
0.00164156
0.00152938
0.00140296
0.00124647
0.0010619
0.000880719
0.00070051
0.000519222
0.000336386
0.000154221
-2.41333e-05
-0.000195161
-0.000354417
-0.000496107
-0.000615263
-0.000713043
-0.000797243
-0.000874259
-0.000945793
-0.00101022
-0.00106332
0.00237368
0.00223389
0.00146101
0.00136825
0.00125837
0.00111897
0.000969057
0.000812242
0.000652666
0.000491124
0.000328781
0.000167654
1.02599e-05
-0.000140468
-0.000281154
-0.00040815
-0.000518766
-0.000613443
-0.000695717
-0.0007688
-0.000833674
-0.000889218
-0.000932618
0.00224773
0.00155195
0.00129868
0.00122455
0.00112817
0.00101142
0.000883778
0.000747889
0.000607563
0.000464711
0.00032102
0.000178457
3.92383e-05
-9.4212e-05
-0.000219323
-0.000333601
-0.00043532
-0.000524429
-0.000602409
-0.000670729
-0.000729789
-0.000778735
-0.000815686
0.00211227
0.00120738
0.00116498
0.00109901
0.00101473
0.000916013
0.000806234
0.000688432
0.00056559
0.000439814
0.000312952
0.000186897
6.36241e-05
-5.48254e-05
-0.00016642
-0.000269314
-0.000362214
-0.00044476
-0.000517405
-0.000580685
-0.000634625
-0.000678532
-0.000711132
0.0019986
0.00121494
0.0010476
0.000987727
0.000915056
0.000830528
0.000736087
0.000634087
0.000526888
0.000416492
0.000304724
0.000193364
8.41857e-05
-2.10588e-05
-0.0001207
-0.000213267
-0.000297682
-0.000373418
-0.000440414
-0.000498715
-0.000548135
-0.0005881
-0.000617723
0.00192735
0.00184893
0.000934894
0.000886
0.00082525
0.000753618
0.000672829
0.000584788
0.000491502
0.000394839
0.000296535
0.000198249
0.000101579
8.05476e-06
-8.09057e-05
-0.00016407
-0.000240488
-0.000309562
-0.000370984
-0.000424554
-0.000469988
-0.0005068
-0.000534367
0.00185579
0.00183094
0.000834105
0.000793703
0.000744411
0.000684723
0.000616159
0.00054045
0.000459459
0.000374957
0.000288591
0.000201903
0.000116342
3.32583e-05
-4.61196e-05
-0.000120728
-0.000189718
-0.000252477
-0.0003086
-0.000357778
-0.000399695
-0.000433944
-0.000460077
0.00179281
0.00168208
0.000739905
0.000711611
0.000672902
0.000623881
0.000566035
0.00050106
0.000430787
0.000356932
0.000281065
0.000204618
0.000128906
5.51267e-05
-1.56486e-05
-8.24932e-05
-0.000144649
-0.000201537
-0.000252726
-0.00029788
-0.000336692
-0.000368823
-0.00039395
0.00171563
0.000860357
0.000660044
0.00064098
0.000611449
0.000571368
0.000522515
0.000466609
0.000405483
0.000340809
0.000274076
0.000206613
0.000139604
7.41037e-05
1.10438e-05
-4.87747e-05
-0.000104689
-0.000156173
-0.000202824
-0.000244319
-0.000280381
-0.000310735
-0.000335145
0.000817138
0.000585062
0.00059331
0.000582954
0.00056055
0.000527313
0.000485537
0.000436969
0.000383433
0.000326533
0.000267658
0.000208019
0.00014867
9.05239e-05
3.43758e-05
-1.90963e-05
-6.93295e-05
-0.000115872
-0.000158371
-0.000196545
-0.00023016
-0.000258999
-0.000282898
0.000583571
0.000533821
0.000544666
0.000538337
0.00052
0.000491364
0.000454713
0.0004118
0.000364367
0.000313922
0.00026173
0.000208865
0.000156239
0.000104623
5.46675e-05
6.92777e-06
-3.81389e-05
-8.01661e-05
-0.000118868
-0.000154019
-0.000185437
-0.000212955
-0.000236459
0.000510159
0.00050564
0.000511068
0.000505024
0.000488524
0.000462555
0.000429283
0.000390483
0.000347804
0.000302634
0.000256085
0.000209072
0.000162352
0.000116543
7.21512e-05
2.96044e-05
-1.07495e-05
-4.86372e-05
-8.38503e-05
-0.000116231
-0.000145651
-0.000171993
-0.00019518
0.00044126
0.000482736
0.000484116
0.00047928
0.000464254
0.000439618
0.000408233
0.000372187
0.000333095
0.000292188
0.000250398
0.000208456
0.000166953
0.000126341
8.69799e-05
4.91689e-05
1.31452e-05
-2.09155e-05
-5.2891e-05
-8.26977e-05
-0.000110269
-0.000135538
-0.00015845
0.000399141
0.000449972
0.000457716
0.000459154
0.000446198
0.000421479
0.000390421
0.000355888
0.000319407
0.000281956
0.000244229
0.000206745
0.000169909
0.000134001
9.92374e-05
6.57933e-05
3.37966e-05
3.32267e-06
-2.5599e-05
-5.2969e-05
-7.87923e-05
-0.000103051
-0.000125709
0.000386003
0.000407686
0.000434658
0.000447713
0.000434884
0.000407103
0.000374432
0.000340309
0.000305716
0.000271176
0.000237048
0.000203597
0.000171024
0.000139449
0.000108952
7.95971e-05
5.14077e-05
2.43593e-05
-1.61826e-06
-2.66225e-05
-5.07444e-05
-7.40272e-05
-9.6444e-05
0.000379504
0.000390456
0.000425213
0.000914493
0.00043117
0.00039397
0.000357702
0.000323545
0.000290718
0.000258965
0.000228264
0.000198625
0.000170071
0.000142576
0.000116114
9.06567e-05
6.61371e-05
4.24338e-05
1.93704e-05
-3.26437e-06
-2.56725e-05
-4.79817e-05
-7.01789e-05
0.000361032
0.000553331
0.00259744
0.00435707
0.0021282
0.000478489
0.000335615
0.000303035
0.000272915
0.000244417
0.000217311
0.00019148
0.000166839
0.000143273
0.000120696
9.90177e-05
7.8101e-05
5.77383e-05
3.76429e-05
1.74688e-05
-3.13706e-06
-2.44403e-05
-4.64627e-05
0.000332518
0.000749155
0.00445039
0.00444099
0.00442001
0.000811003
0.000305207
0.000277418
0.000251511
0.000227046
0.000203891
0.000181979
0.00016122
0.000141488
0.00012269
0.000104712
8.73772e-05
7.04115e-05
5.3423e-05
3.59109e-05
1.73104e-05
-2.88765e-06
-2.48356e-05
0.000334956
0.000515534
0.00404738
0.00450049
0.00382676
0.000568537
0.000269779
0.000248144
0.000227143
0.000207117
0.000188112
0.000170167
0.000153233
0.000137231
0.0001221
0.000107739
9.39705e-05
8.04894e-05
6.68259e-05
5.23211e-05
3.61258e-05
1.72802e-05
-4.77847e-06
0.000351979
0.000446509
0.000966277
0.0029598
0.000878209
0.000282516
0.000234765
0.000217451
0.000200835
0.00018505
0.000170101
0.000156019
0.000142773
0.000130342
0.000118711
0.000107828
9.75577e-05
8.76262e-05
7.75543e-05
6.65815e-05
5.35503e-05
3.67123e-05
1.42581e-05
0.000455215
0.000480743
0.00037397
0.000317917
0.000244489
0.000217676
0.000199798
0.000185263
0.000172453
0.000160646
0.00014959
0.000139201
0.000129451
0.000120366
0.000111991
0.000104346
9.73883e-05
9.09594e-05
8.47005e-05
7.79285e-05
6.93057e-05
5.58783e-05
3.26758e-05
0.000580741
0.000495953
0.000360061
0.000265037
0.000208005
0.000178763
0.000163169
0.000152754
0.000144301
0.000136666
0.000129476
0.000122624
0.000116132
0.00011009
0.000104609
9.98045e-05
9.57751e-05
9.25668e-05
9.01193e-05
8.81779e-05
8.5475e-05
7.67547e-05
5.26586e-05
0.000692991
0.00047052
0.000308203
0.000218002
0.000165213
0.000143861
0.000136785
0.000133257
0.000130079
0.000126734
0.000123175
0.000119468
0.000115745
0.000112168
0.000108929
0.000106258
0.000104439
0.000103795
0.00010469
0.000107912
0.000113724
0.000110633
8.70591e-05
0.000552082
6.45841e-05
0.000135233
0.00012106
0.000109846
0.000108741
0.000111157
0.000112482
0.00011248
0.000111681
0.000110394
0.000108773
0.000106935
0.000105019
0.000103215
0.000101789
0.000101128
0.000101738
0.000104281
0.000111093
0.000132513
0.000183305
0.000145676
769.547
769.524
769.381
769.109
767.411
767.363
767.658
768.202
341.433
341.032
339.908
338.536
0.484426
0.553867
0.637578
0.637325
0.273122
0.440943
0.641503
0.639222
0.114481
0.181849
0.453208
0.582614
0.103115
0.0692364
0.0839004
0.0392942
0.0124225
-0.000132715
-0.000706902
-0.00067389
-0.000289766
0.00656696
0.0106663
0.00891151
0.0256655
0.0343055
0.0344417
0.0346133
0.035785
0.0358202
0.035928
0.0360549
0.000451927
0.0246262
0.0374136
0.0374202
-0.00254624
-0.00272769
-0.00297847
-0.00261293
-0.00217848
-0.00233102
-0.00244623
-0.00250494
-0.001815
-0.00189173
-0.00194118
-0.00192186
-0.00163522
-0.00167976
-0.0016833
-0.00136172
-0.00142752
-0.00145481
-0.00147091
-0.00145495
-0.00124714
-0.00126413
-0.00127263
-0.00127394
-0.00109057
-0.0011017
-0.00110587
-0.00110404
-0.000953508
-0.000961398
-0.000963438
-0.000960428
-0.000832789
-0.000839018
-0.000840347
-0.00083744
-0.00072604
-0.00073158
-0.000733062
-0.000731026
-0.000631449
-0.000636894
-0.000639022
-0.000638261
-0.000547562
-0.000553264
-0.00055629
-0.00055697
-0.000473166
-0.000479317
-0.000483338
-0.00048547
-0.000407197
-0.000413889
-0.000418903
-0.00042241
-0.000348708
-0.000355967
-0.000361915
-0.000366672
-0.000296848
-0.000304656
-0.000311449
-0.000317312
-0.000250832
-0.000259153
-0.000266694
-0.000273517
-0.000209965
-0.000218749
-0.00022694
-0.000234588
-0.000173618
-0.000182813
-0.000191563
-0.000199914
-0.000141226
-0.000150784
-0.000160015
-0.000168967
-0.000112286
-0.000122169
-0.000131821
-0.000141293
-8.6348e-05
-9.65424e-05
-0.000106578
-0.000116512
-6.30146e-05
-7.35411e-05
-8.39568e-05
-9.43221e-05
-4.19313e-05
-5.28731e-05
-6.37121e-05
-7.45081e-05
-2.27814e-05
-3.43362e-05
-4.57146e-05
-5.69688e-05
-5.32826e-06
-1.78817e-05
-3.00192e-05
-4.17683e-05
1.02513e-05
-3.91671e-06
-1.70677e-05
-2.92491e-05
2.29204e-05
5.91877e-06
-8.12486e-06
-2.02031e-05
3.12978e-05
6.60162e-06
-7.42488e-06
-1.67773e-05
5.71103e-05
2.39318e-05
6.85091e-06
-3.40547e-06
769.151
768.264
767.519
766.694
765.499
763.337
762.237
761.835
759.076
752.537
751.546
750.917
749.938
749.635
755.541
754.785
753.656
752.746
753.847
769.349
766.174
762.607
759.073
756.029
753.509
750.889
749.675
752.441
751.889
750.586
749.143
747.326
745.075
742.248
739.47
738.044
734.582
732.473
336.596
332.421
329.016
325.86
322.588
319.062
314.503
308.365
301.819
297.936
291.878
285.511
279.896
273.846
266.325
262.216
260.177
258.896
258.697
0.547439
0.861107
1.02119
1.01226
0.897426
0.629915
0.465708
0.393887
0.361605
0.346795
0.332749
0.309502
0.285033
0.311595
0.331999
0.338283
0.33887
0.343023
0.33646
0.401537
0.828094
0.999762
0.967556
0.967138
0.985626
0.995928
0.99855
0.996227
0.961274
0.84954
0.625756
0.299953
0.595165
0.693762
0.696225
0.697394
0.698027
0.62707
0.397244
0.322643
0.283472
0.289511
0.239567
0.194996
0.163165
0.141076
0.0958444
0.0194904
0.0208806
0.0231031
0.134805
0.126735
0.139055
0.17368
0.182443
0.20759
0.255432
0.0409502
0.0195165
0.000650891
0.00159793
0.00402101
0.00850932
0.0112275
0.0112758
0.0124647
0.0190836
0.0365164
0.0431362
0.0486611
0.0225653
0.010296
0.00949313
0.00932498
0.009163
0.00931629
-0.000196025
-1.83895e-05
0.000569597
0.00150235
0.0176039
0.0532323
0.0563553
0.0386625
0.0325268
0.0782088
0.0790822
0.0801955
0.0802061
0.0376242
0.00875589
0.0084127
0.00833798
0.00837579
0.00841818
0.0029371
0.000250613
0.000377404
0.003272
0.0547258
0.0606094
0.0608137
0.0614626
0.0600892
0.0375163
0.0551296
0.0779408
0.0804583
0.0193389
0.00736487
0.00747293
0.00756713
0.00768686
0.0079049
0.0323962
0.00286254
2.41396e-06
0.0017347
0.0240877
0.0296404
-0.000370618
-7.88625e-05
0.000660308
0.00138123
0.00171031
0.00573089
0.0189798
0.0190604
0.00723698
0.00675615
0.00696163
0.00709956
0.00726181
0.0363365
0.0364663
0.00771247
-0.000894288
-0.00142757
-0.00142536
-0.000629022
0.000910081
0.00141062
0.00116971
0.00167005
0.00335007
0.016087
0.0206203
0.00770451
0.00625131
0.00650846
0.00664942
0.00668032
0.0375383
0.0360667
0.00873933
-0.00122238
-0.00122962
-0.000992792
0.000460215
0.00115119
0.00137375
0.00101453
0.00153672
0.00526247
0.0202189
0.0211804
0.00591494
0.00586986
0.00615956
0.00630087
0.00616756
-0.000674534
0.000244675
-0.00184656
-0.00136117
-0.00112824
-0.000828568
-0.000442313
2.10379e-05
0.000405568
0.000862284
0.00127957
0.00206323
0.0160283
0.0217183
0.0183634
0.00550899
0.00586553
0.00602545
0.00574938
-0.00253686
-0.00224237
-0.00172706
-0.00131134
-0.00103164
-0.000753751
-0.000414327
-4.48749e-05
0.000337935
0.000716593
0.00106973
0.00145321
0.00866383
0.0185231
0.0193434
0.0104067
0.0057389
0.00768916
0.00608361
-0.00187087
-0.00163835
-0.00144781
-0.00120251
-0.000937724
-0.000669431
-0.000370663
-5.51541e-05
0.000266539
0.000581954
0.000876613
0.00113266
0.00133385
0.00168142
0.00305961
0.00958381
0.0255509
0.0281877
0.0241129
-0.00114064
-0.000988847
-0.000756932
-0.000972498
-0.000840821
-0.000604731
-0.000341851
-6.53912e-05
0.000202588
0.000457171
0.000701859
0.000921722
0.00112364
0.00138718
0.00172064
0.0160275
0.0279688
0.0279655
0.0276887
-0.0011457
-0.00074343
-0.000562468
-0.000356983
-0.000608021
-0.000555612
-0.000290103
2.67455e-05
0.000222684
0.000350082
0.000540195
0.000719327
0.000876898
0.00103474
0.00115309
0.00514488
0.0166029
0.0126221
0.00157839
-0.00126598
-0.00103449
-0.000483885
-0.000243492
-0.000514622
-0.000517952
-0.000247135
3.4074e-05
0.000223117
0.000337509
0.000393794
0.000534144
0.0006485
0.000737408
0.000771781
0.000669502
0.000508284
0.000565226
0.000515108
-0.00109257
-0.00102767
-0.000926532
-0.00078462
-0.000638148
-0.000482643
-0.000262452
9.09482e-06
0.000165099
0.000266774
0.00026666
0.000373025
0.00045554
0.000507443
0.000513321
0.000457154
0.000393475
0.000426954
0.000401972
-0.000948495
-0.000895951
-0.000814651
-0.000710009
-0.000588872
-0.000459555
-0.000326189
-0.00017154
-1.03247e-05
5.95184e-05
0.000152995
0.000236255
0.000296208
0.000329228
0.000330548
0.000301956
0.000281142
0.000300807
0.000366793
-0.000826825
-0.000784967
-0.000720283
-0.000636612
-0.000539173
-0.000434093
-0.000326362
-0.000219768
-0.000117512
-2.3307e-05
5.77018e-05
0.000121238
0.000164778
0.000187027
0.000188873
0.000179084
0.000189053
0.000220893
0.00241666
-0.000722799
-0.000690391
-0.000639652
-0.000573461
-0.000495856
-0.000411532
-0.000324724
-0.00023903
-0.00015771
-8.42337e-05
-2.23433e-05
2.48187e-05
5.55772e-05
7.00049e-05
7.10503e-05
6.92249e-05
8.69289e-05
0.000119556
0.00690403
-0.000632943
-0.000608954
-0.000570105
-0.000518678
-0.000457876
-0.000391387
-0.000322784
-0.00025532
-0.000192019
-0.000135858
-8.97214e-05
-5.58658e-05
-3.53346e-05
-2.75755e-05
-2.94864e-05
-3.28826e-05
-2.25463e-05
6.87438e-06
0.00702825
-0.000554706
-0.000538219
-0.000509621
-0.000470791
-0.000424317
-0.000373165
-0.000320326
-0.000268636
-0.000220749
-0.000179148
-0.000146045
-0.000123038
-0.00011074
-0.000108478
-0.000113883
-0.000122006
-0.000123
-9.92336e-05
0.00717942
-0.00048618
-0.000476347
-0.000456633
-0.000428613
-0.000394414
-0.000356449
-0.000317214
-0.000279115
-0.000244388
-0.000215032
-0.000192687
-0.000178406
-0.000172412
-0.000173955
-0.000181392
-0.000192512
-0.000201715
-0.000184478
0.00733699
-0.000425883
-0.000421923
-0.000409915
-0.000391195
-0.000367536
-0.000340914
-0.000313392
-0.000286969
-0.000263464
-0.000244412
-0.000230922
-0.000223498
-0.000221859
-0.000224857
-0.000230754
-0.000237881
-0.000241813
-0.000219501
0.00285712
-0.000372639
-0.000373825
-0.000368493
-0.000357787
-0.000343177
-0.000326297
-0.000308843
-0.000292445
-0.000278532
-0.000268203
-0.000262061
-0.000260021
-0.000261104
-0.000263283
-0.000263449
-0.000257245
-0.000236725
-0.000186563
-9.04643e-05
-0.000325482
-0.000331153
-0.000331587
-0.000327765
-0.000320913
-0.000312384
-0.000303574
-0.000295794
-0.000290139
-0.000287324
-0.000287501
-0.000290013
-0.000293127
-0.00029371
-0.000286639
-0.000263245
-0.000210165
-0.000124516
1.98204e-05
-0.000283611
-0.00029316
-0.000298551
-0.000300614
-0.000300382
-0.000298986
-0.000297581
-0.000297231
-0.000298766
-0.000302612
-0.000308574
-0.000315564
-0.000321261
-0.000321694
-0.000310263
-0.000275398
-0.000200995
-9.44165e-05
0.00440218
-0.000246345
-0.000259223
-0.000268839
-0.000275893
-0.000281265
-0.000285914
-0.000290823
-0.000296884
-0.000304755
-0.000314685
-0.000326288
-0.000338256
-0.00034801
-0.000351277
-0.000341178
-0.000306144
-0.000231263
-0.000126477
0.0093325
-0.000213105
-0.000228811
-0.000241984
-0.000253213
-0.000263257
-0.00027296
-0.000283198
-0.000294766
-0.000308248
-0.00032384
-0.000341129
-0.000358801
-0.000374308
-0.000383499
-0.000380002
-0.000353782
-0.000291958
-0.000198379
0.00952215
-0.000183392
-0.000201469
-0.00021758
-0.000232218
-0.00024606
-0.000259886
-0.000274522
-0.000290748
-0.000309163
-0.000330029
-0.000353045
-0.000377062
-0.000399755
-0.000417288
-0.000423845
-0.000410526
-0.00036411
-0.000275825
0.00965946
-0.000156786
-0.00017681
-0.000195267
-0.000212577
-0.000229371
-0.000246412
-0.000264534
-0.000284565
-0.000307205
-0.000332883
-0.000361535
-0.000392321
-0.000423305
-0.000451087
-0.000470154
-0.000472142
-0.000441555
-0.000354405
0.00958275
-0.000132941
-0.000154508
-0.000174727
-0.000193973
-0.000212873
-0.000232215
-0.00025289
-0.000275826
-0.000301889
-0.000331759
-0.000365732
-0.000403432
-0.000443478
-0.000482987
-0.000516667
-0.000536284
-0.000523936
-0.000439189
0.00978447
-0.000111585
-0.000134292
-0.000155667
-0.000176088
-0.000196223
-0.000216925
-0.000239174
-0.00026403
-0.000292567
-0.000325784
-0.00036444
-0.000408778
-0.000458125
-0.00051022
-0.000560025
-0.00059709
-0.000602914
-0.000524576
0.00977513
-9.25201e-05
-0.00011593
-0.000137798
-0.000158579
-0.000179037
-0.000200121
-0.000222911
-0.000248601
-0.000278485
-0.000313911
-0.000356181
-0.000406324
-0.00046455
-0.00052947
-0.000596091
-0.000642189
-0.000657524
-0.000579542
0.00182962
-7.56234e-05
-9.92082e-05
-0.000120798
-0.000141049
-0.000160877
-0.000181336
-0.000203589
-0.000228934
-0.000258848
-0.000295022
-0.000339361
-0.000393851
-0.000459926
-0.000537535
-0.000622398
-0.000677755
-0.00070223
-0.000610432
0.000298643
-6.08368e-05
-8.38767e-05
-0.000104259
-0.000123006
-0.000141233
-0.000160071
-0.000180706
-0.000204464
-0.00023292
-0.000268032
-0.000312276
-0.000368705
-0.000440619
-0.000530579
-0.000637869
-0.000725186
-0.000783684
-0.000683219
0.00283325
-4.81537e-05
-6.95492e-05
-8.75654e-05
-0.000103768
-0.000119453
-0.000135741
-0.000153731
-0.000174648
-0.000200015
-0.00023187
-0.000273073
-0.000327684
-0.00040119
-0.000500407
-0.00063315
-0.000791694
-0.00091874
-0.000820176
0.00333567
-3.74928e-05
-5.54325e-05
-6.96609e-05
-8.22708e-05
-9.45779e-05
-0.000107516
-0.000121937
-0.000138794
-0.000159331
-0.000185345
-0.000219619
-0.000266608
-0.000333334
-0.000430989
-0.000580986
-0.000819183
-0.00111
-0.00107209
0.00312733
-2.7907e-05
-3.98861e-05
-4.90849e-05
-5.74069e-05
-6.58543e-05
-7.49624e-05
-8.51742e-05
-9.70007e-05
-0.000111159
-0.000128782
-0.000151828
-0.000183854
-0.0002313
-0.000306587
-0.000442998
-0.000733845
-0.00126452
-0.001441
0.00245925
-1.32219e-05
-2.06325e-05
-2.58564e-05
-3.09459e-05
-3.6443e-05
-4.24757e-05
-4.90821e-05
-5.63021e-05
-6.42365e-05
-7.31416e-05
-8.36472e-05
-9.73057e-05
-0.000117852
-0.000154151
-0.000232108
-0.000445486
-0.00103705
-0.00168347
0.0013281
)
;

boundaryField
{
    leftWall
    {
        type            fixedFluxPressure;
        gradient        uniform 0;
        value           nonuniform List<scalar> 
50
(
755.236
755.201
755.139
755.05
754.934
754.79
754.619
754.421
754.065
735.451
243.761
0.593492
0.786419
0.306463
0.008864
0.00595403
0.00574952
0.00504962
0.00451837
0.00402991
0.00356114
0.0031426
0.00278841
0.00247118
0.0022015
0.00197016
0.00232714
0.00237368
0.00224773
0.00211227
0.0019986
0.00192735
0.00185579
0.00179281
0.00171563
0.000817138
0.000583571
0.000510159
0.00044126
0.000399141
0.000386003
0.000379504
0.000361032
0.000332518
0.000334956
0.000351979
0.000455215
0.000580741
0.000692991
0.000552082
)
;
    }
    rightWall
    {
        type            fixedFluxPressure;
        gradient        uniform 0;
        value           nonuniform List<scalar> 
50
(
754.84
754.684
754.478
754.869
754.765
754.644
754.518
754.395
753.847
732.473
258.697
0.33646
0.62707
0.255432
0.00931629
0.00841818
0.0079049
0.00726181
0.00668032
0.00616756
0.00574938
0.00608361
0.0241129
0.0276887
0.00157839
0.000515108
0.000401972
0.000366793
0.00241666
0.00690403
0.00702825
0.00717942
0.00733699
0.00285712
-9.04643e-05
1.98204e-05
0.00440218
0.0093325
0.00952215
0.00965946
0.00958275
0.00978447
0.00977513
0.00182962
0.000298643
0.00283325
0.00333567
0.00312733
0.00245925
0.0013281
)
;
    }
    lowerWall
    {
        type            fixedFluxPressure;
        gradient        uniform 0;
        value           nonuniform List<scalar> 
62
(
755.236
755.391
755.651
756.017
756.477
757.022
757.641
758.321
759.052
759.82
760.613
761.415
762.21
762.979
763.704
764.375
764.991
765.562
766.042
766.429
766.897
767.21
767.39
767.39
767.407
767.46
767.538
767.655
767.832
768.047
768.402
769.547
769.524
769.381
769.109
766.618
766.664
766.254
765.629
765.715
765.884
768.384
768.99
766.618
766.322
766.098
765.614
764.947
764.109
763.067
762.049
761.008
759.937
758.806
757.762
757.087
756.689
756.12
755.638
755.206
754.929
754.84
)
;
    }
    atmosphere
    {
        type            totalPressure;
        rho             rho;
        psi             none;
        gamma           1;
        p0              uniform 0;
        value           nonuniform List<scalar> 
46
(
-5.62878e-05
0
0
0
0
0
0
0
0
0
0
0
0
0
0
0
0
0
0
0
0
0
-3.40371e-07
-1.05522e-06
-1.72531e-06
-2.55671e-06
-3.54337e-06
-5.53402e-06
-8.96493e-06
-1.30776e-05
-1.77877e-05
-2.30009e-05
-2.86098e-05
-3.44923e-05
-4.05095e-05
-4.6503e-05
-5.22922e-05
-5.76683e-05
-6.23849e-05
-6.6136e-05
-6.85036e-05
-6.88193e-05
-6.57615e-05
-5.62438e-05
-3.02522e-05
0
)
;
    }
    defaultFaces
    {
        type            empty;
    }
}


// ************************************************************************* //
