/*--------------------------------*- C++ -*----------------------------------*\
  =========                 |
  \\      /  F ield         | OpenFOAM: The Open Source CFD Toolbox
   \\    /   O peration     | Website:  https://openfoam.org
    \\  /    A nd           | Version:  9
     \\/     M anipulation  |
\*---------------------------------------------------------------------------*/
FoamFile
{
    format      ascii;
    class       surfaceScalarField;
    location    "8.04";
    object      alphaPhi0.water;
}
// * * * * * * * * * * * * * * * * * * * * * * * * * * * * * * * * * * * * * //

dimensions      [0 3 -1 0 0 0 0];

internalField   nonuniform List<scalar> 
4432
(
1.6285e-07
-1.6285e-07
3.25788e-07
-1.6294e-07
4.81114e-07
-1.55326e-07
6.29937e-07
-1.48822e-07
7.731e-07
-1.43166e-07
9.1019e-07
-1.3709e-07
1.0401e-06
-1.29915e-07
1.16104e-06
-1.20943e-07
1.26902e-06
-1.07977e-07
1.3616e-06
-9.25785e-08
1.44328e-06
-8.16817e-08
1.5259e-06
-8.26245e-08
1.62561e-06
-9.97047e-08
1.74996e-06
-1.24356e-07
1.87929e-06
-1.29331e-07
1.93768e-06
-5.83859e-08
1.78263e-06
1.5505e-07
1.37173e-06
4.10899e-07
6.87215e-07
6.82782e-07
-1.29465e-07
8.15984e-07
-5.6494e-07
4.35051e-07
-4.85813e-07
-7.912e-08
-4.85947e-07
1.61841e-07
-3.2469e-07
3.22946e-07
-3.24047e-07
4.8027e-07
-3.12652e-07
6.31762e-07
-3.00313e-07
7.76316e-07
-2.87725e-07
9.12733e-07
-2.73509e-07
1.03985e-06
-2.57038e-07
1.15591e-06
-2.37003e-07
1.25779e-06
-2.09859e-07
1.34318e-06
-1.77967e-07
1.41451e-06
-1.53012e-07
1.47969e-06
-1.47804e-07
1.54802e-06
-1.68035e-07
1.62216e-06
-1.98495e-07
1.68597e-06
-1.93138e-07
1.6886e-06
-6.10217e-08
1.54072e-06
3.02929e-07
1.19782e-06
7.53794e-07
7.33295e-07
1.14623e-06
2.17173e-07
1.33141e-06
-1.83709e-07
8.36808e-07
-3.55227e-07
9.24034e-08
-8.41174e-07
1.64088e-07
-4.88777e-07
3.25558e-07
-4.85517e-07
4.82983e-07
-4.70078e-07
6.34782e-07
-4.52111e-07
7.78958e-07
-4.31903e-07
9.13871e-07
-4.08422e-07
1.03832e-06
-3.81491e-07
1.15068e-06
-3.49356e-07
1.24777e-06
-3.06954e-07
1.32653e-06
-2.56727e-07
1.38779e-06
-2.14266e-07
1.43656e-06
-1.9657e-07
1.47903e-06
-2.10504e-07
1.51692e-06
-2.36394e-07
1.54034e-06
-2.16558e-07
1.51434e-06
-3.50491e-08
1.36864e-06
4.48634e-07
1.07729e-06
1.04514e-06
7.45945e-07
1.47747e-06
4.25611e-07
1.65104e-06
5.93773e-08
1.20395e-06
-1.91605e-07
3.43392e-07
-1.03278e-06
1.66307e-07
-6.55083e-07
3.29985e-07
-6.49197e-07
4.88502e-07
-6.28597e-07
6.40944e-07
-6.04552e-07
7.85144e-07
-5.76104e-07
9.19115e-07
-5.4239e-07
1.0417e-06
-5.04069e-07
1.15144e-06
-4.59097e-07
1.24478e-06
-4.00297e-07
1.3175e-06
-3.29444e-07
1.36879e-06
-2.65548e-07
1.40157e-06
-2.2935e-07
1.42041e-06
-2.29338e-07
1.42761e-06
-2.43595e-07
1.42054e-06
-2.09491e-07
1.383e-06
2.26829e-09
1.25466e-06
5.76277e-07
1.01511e-06
1.28478e-06
7.66625e-07
1.72608e-06
5.48171e-07
1.87266e-06
2.37255e-07
1.51523e-06
-2.36714e-08
6.03466e-07
-1.05645e-06
1.6886e-07
-8.23944e-07
3.35659e-07
-8.15995e-07
4.96309e-07
-7.89248e-07
6.50203e-07
-7.58442e-07
7.9511e-07
-7.21011e-07
9.28766e-07
-6.76043e-07
1.05013e-06
-6.25429e-07
1.158e-06
-5.66965e-07
1.24829e-06
-4.9058e-07
1.31535e-06
-3.96496e-07
1.35682e-06
-3.07018e-07
1.37403e-06
-2.46552e-07
1.37053e-06
-2.25838e-07
1.34941e-06
-2.22479e-07
1.31446e-06
-1.74543e-07
1.26872e-06
4.75049e-08
1.16989e-06
6.7218e-07
9.77786e-07
1.4769e-06
7.89455e-07
1.91443e-06
6.28836e-07
2.03329e-06
3.67482e-07
1.7766e-06
1.4014e-07
8.29436e-07
-9.15885e-07
1.72423e-07
-9.96367e-07
3.43058e-07
-9.86629e-07
5.06727e-07
-9.52919e-07
6.62908e-07
-9.1462e-07
8.09216e-07
-8.67319e-07
9.43052e-07
-8.09876e-07
1.06356e-06
-7.4593e-07
1.16992e-06
-6.73324e-07
1.25754e-06
-5.78198e-07
1.31929e-06
-4.58241e-07
1.35144e-06
-3.3916e-07
1.35395e-06
-2.49058e-07
1.32959e-06
-2.01477e-07
1.28149e-06
-1.74376e-07
1.21717e-06
-1.10226e-07
1.15474e-06
1.09931e-07
1.09364e-06
7.29108e-07
9.50319e-07
1.60256e-06
8.13826e-07
2.05094e-06
6.99515e-07
2.14762e-06
4.83682e-07
1.97715e-06
3.28879e-07
9.8155e-07
-5.85941e-07
1.77256e-07
-1.17362e-06
3.52835e-07
-1.16221e-06
5.20147e-07
-1.12023e-06
6.79315e-07
-1.07379e-06
8.27578e-07
-1.01558e-06
9.6184e-07
-9.44138e-07
1.08145e-06
-8.65541e-07
1.18617e-06
-7.78045e-07
1.2711e-06
-6.63127e-07
1.32782e-06
-5.14957e-07
1.35146e-06
-3.62804e-07
1.34086e-06
-2.38455e-07
1.29801e-06
-1.5862e-07
1.22495e-06
-1.01319e-07
1.13038e-06
-1.5657e-08
1.03598e-06
2.04329e-07
9.82948e-07
7.69395e-07
9.17888e-07
1.65905e-06
8.44142e-07
2.1096e-06
7.56712e-07
2.19458e-06
6.48214e-07
2.064e-06
5.49509e-07
1.08761e-06
-3.64512e-08
1.83548e-07
-1.35717e-06
3.6485e-07
-1.34351e-06
5.36418e-07
-1.2918e-06
6.99143e-07
-1.23651e-06
8.49754e-07
-1.1662e-06
9.84384e-07
-1.07877e-06
1.10257e-06
-9.83728e-07
1.20487e-06
-8.80354e-07
1.28651e-06
-7.4477e-07
1.33827e-06
-5.66725e-07
1.35458e-06
-3.79118e-07
1.33324e-06
-2.17114e-07
1.2757e-06
-1.01082e-07
1.18202e-06
-7.64439e-09
1.06131e-06
1.05055e-07
9.34417e-07
3.31219e-07
8.65506e-07
8.37168e-07
8.78039e-07
1.63502e-06
8.68141e-07
2.108e-06
8.25696e-07
2.22516e-06
8.56337e-07
2.02156e-06
7.14909e-07
1.24323e-06
6.78419e-07
-1.44493e-06
1.43789e-06
-1.0712e-06
-3.73503e-07
-4.74639e-07
-5.96792e-07
-9.0075e-08
-3.84906e-07
1.6315e-07
-2.53516e-07
3.14159e-07
-1.52091e-07
3.96839e-07
-8.34733e-08
5.27243e-07
-1.3119e-07
6.30565e-07
-1.04119e-07
5.1318e-07
1.17259e-07
1.38371e-07
3.74726e-07
-6.05302e-07
7.43594e-07
-1.42142e-06
8.08625e-07
-1.6997e-06
2.78264e-07
-1.60404e-06
-9.56633e-08
-1.23357e-06
-3.70471e-07
-8.5787e-07
-3.75697e-07
-2.69452e-07
-5.88443e-07
-2.69829e-07
-9.50573e-07
2.37785e-06
-6.58399e-07
-6.66369e-07
-3.71606e-07
-8.83668e-07
-1.8381e-07
-5.72694e-07
-8.18047e-08
-3.55529e-07
-1.77435e-08
-2.16155e-07
5.3805e-08
-1.55025e-07
1.2598e-07
-2.03365e-07
1.20059e-07
-9.81983e-08
-4.3613e-08
2.81318e-07
-3.11852e-07
6.47883e-07
-6.60968e-07
1.09263e-06
-1.01489e-06
1.16247e-06
-1.28383e-06
5.4264e-07
-1.32416e-06
-5.53463e-08
-1.18554e-06
-5.0909e-07
-1.03507e-06
-5.26191e-07
-6.53936e-07
-9.65856e-07
-9.2101e-07
-3.86662e-07
2.76448e-06
-3.29e-07
-7.25052e-07
-2.86939e-07
-9.25815e-07
-2.53599e-07
-6.06044e-07
-2.4297e-07
-3.66166e-07
-2.4041e-07
-2.18715e-07
-2.13943e-07
-1.81486e-07
-1.86445e-07
-2.30849e-07
-2.31768e-07
-5.28822e-08
-4.15666e-07
4.65317e-07
-6.17335e-07
8.50128e-07
-7.3706e-07
1.2238e-06
-8.33962e-07
1.26368e-06
-1.02685e-06
7.33186e-07
-1.11594e-06
3.37235e-08
-1.08518e-06
-5.3986e-07
-1.11653e-06
-4.91279e-07
-8.98261e-07
-1.18446e-06
-1.81962e-06
7.88203e-08
2.68563e-06
-8.92822e-08
-5.56859e-07
-2.44069e-07
-7.71115e-07
-3.31348e-07
-5.18786e-07
-3.93005e-07
-3.04496e-07
-4.40527e-07
-1.71116e-07
-4.57956e-07
-1.64064e-07
-4.6161e-07
-2.27102e-07
-5.12743e-07
-1.52746e-09
-6.71214e-07
6.23273e-07
-8.09818e-07
9.88397e-07
-8.24852e-07
1.23857e-06
-7.95815e-07
1.2362e-06
-8.91792e-07
8.29766e-07
-9.50142e-07
9.2458e-08
-9.39988e-07
-5.50017e-07
-1.06218e-06
-3.67116e-07
-9.02882e-07
-1.3441e-06
-2.72966e-06
3.77399e-07
2.32099e-06
2.89884e-08
-2.07455e-07
-2.58011e-07
-4.84122e-07
-4.30536e-07
-3.46268e-07
-5.48434e-07
-1.86591e-07
-6.39309e-07
-8.00965e-08
-6.95922e-07
-1.0755e-07
-7.2266e-07
-2.0049e-07
-7.61458e-07
3.81512e-08
-8.7509e-07
7.35197e-07
-9.47731e-07
1.06102e-06
-8.98443e-07
1.18902e-06
-8.13786e-07
1.15128e-06
-8.42575e-07
8.60709e-07
-8.02941e-07
5.2069e-08
-7.38579e-07
-6.12224e-07
-8.39546e-07
-2.65415e-07
-7.17872e-07
-1.47028e-06
-3.44753e-06
4.10329e-07
1.91674e-06
9.73086e-09
1.93287e-07
-3.32454e-07
-1.41941e-07
-5.54815e-07
-1.23916e-07
-7.12434e-07
-2.89644e-08
-8.39533e-07
4.70196e-08
-9.31875e-07
-1.52702e-08
-9.77532e-07
-1.54307e-07
-9.91847e-07
5.27039e-08
-1.05204e-06
7.91837e-07
-1.06222e-06
1.07097e-06
-9.67864e-07
1.09441e-06
-8.40482e-07
1.0237e-06
-8.19772e-07
8.39798e-07
-6.89162e-07
-7.93396e-08
-5.03926e-07
-7.91604e-07
-4.90944e-07
-2.80703e-07
-4.28636e-07
-1.53258e-06
-3.87616e-06
2.64734e-07
1.65199e-06
-1.12226e-07
5.70237e-07
-4.55673e-07
2.01505e-07
-7.00254e-07
1.20658e-07
-8.83102e-07
1.53875e-07
-1.03829e-06
2.02204e-07
-1.16317e-06
1.09605e-07
-1.23421e-06
-8.32668e-08
-1.21449e-06
4.33645e-08
-1.19974e-06
7.64642e-07
-1.16169e-06
1.03266e-06
-1.02956e-06
9.62021e-07
-8.67531e-07
8.65213e-07
-7.71592e-07
7.36123e-07
-5.54194e-07
-2.98959e-07
-3.15991e-07
-1.02825e-06
-1.5989e-07
-4.3824e-07
-9.19375e-08
-1.60162e-06
-3.9681e-06
4.75376e-08
1.60445e-06
-2.87897e-07
9.0567e-07
-6.07952e-07
5.2156e-07
-8.59267e-07
3.71976e-07
-1.05554e-06
3.50148e-07
-1.22964e-06
3.76305e-07
-1.37969e-06
2.59222e-07
-1.48672e-06
2.37942e-08
-1.44621e-06
2.96167e-08
-1.31941e-06
6.19257e-07
-1.2332e-06
9.24274e-07
-1.06982e-06
7.91851e-07
-8.85141e-07
6.89852e-07
-6.77886e-07
5.19715e-07
-3.844e-07
-6.01912e-07
-1.75152e-07
-1.23594e-06
1.11261e-07
-7.2609e-07
2.08636e-07
-1.70085e-06
-3.75946e-06
4.13099e-07
-1.77027e-06
8.18285e-07
-1.7487e-06
1.20035e-06
-1.67387e-06
1.56064e-06
-1.59679e-06
1.89012e-06
-1.49568e-06
2.17647e-06
-1.36511e-06
2.41852e-06
-1.22577e-06
2.62268e-06
-1.0845e-06
2.78187e-06
-9.03953e-07
2.87416e-06
-6.5902e-07
2.89001e-06
-3.94953e-07
2.81869e-06
-1.45796e-07
2.66333e-06
5.42764e-08
2.42279e-06
2.32895e-07
2.11045e-06
4.174e-07
1.77859e-06
6.63073e-07
1.5854e-06
1.03036e-06
1.69404e-06
1.53176e-06
1.86107e-06
1.93879e-06
2.0307e-06
2.09189e-06
2.19071e-06
1.88396e-06
1.85854e-06
1.57538e-06
1.40951e-06
1.12746e-06
4.21596e-07
-1.78757e-06
8.58511e-07
-1.78471e-06
1.25987e-06
-1.69444e-06
1.63717e-06
-1.61118e-06
1.97913e-06
-1.49675e-06
2.26258e-06
-1.33644e-06
2.48119e-06
-1.16467e-06
2.63459e-06
-9.93754e-07
2.73077e-06
-8.00329e-07
2.77563e-06
-5.68583e-07
2.77807e-06
-3.22951e-07
2.723e-06
-7.68638e-08
2.59186e-06
1.36792e-07
2.37381e-06
3.35251e-07
2.08295e-06
5.26965e-07
1.77989e-06
7.21134e-07
1.57337e-06
9.26916e-07
1.59826e-06
1.14623e-06
1.80499e-06
1.33902e-06
2.00949e-06
1.45802e-06
1.93741e-06
1.46427e-06
1.52988e-06
1.45371e-06
1.46793e-06
9.25977e-07
1.61399e-07
-2.85995e-09
3.03843e-07
-2.55655e-09
4.70883e-07
-5.73122e-09
6.1241e-07
-4.58622e-09
7.20625e-07
-3.07292e-09
8.18628e-07
-6.20576e-09
8.96933e-07
-7.21526e-09
9.34228e-07
-5.7912e-09
9.39184e-07
-3.75358e-09
9.43657e-07
-2.66071e-09
9.4921e-07
-1.44469e-09
9.48373e-07
-1.78499e-10
9.12485e-07
7.05007e-10
8.39096e-07
4.6435e-10
7.37979e-07
8.8637e-10
6.35349e-07
2.26754e-09
5.69505e-07
4.49894e-09
5.64769e-07
5.84524e-09
6.10716e-07
0
6.48424e-07
2.29852e-10
5.93151e-07
8.18517e-11
4.54884e-07
0
0
2.66471e-07
2.12505e-10
-3.6148e-09
6.9414e-11
-2.94846e-09
3.89688e-10
-6.59575e-09
5.11303e-10
-5.25669e-09
4.13186e-10
-3.52228e-09
5.62305e-10
-6.90387e-09
7.43051e-10
-7.9471e-09
8.39628e-10
-6.43648e-09
8.54275e-10
-4.31557e-09
8.70016e-10
-3.2231e-09
8.87573e-10
-2.00847e-09
9.1172e-10
-7.5011e-10
1.06926e-09
0
1.38662e-09
0
1.7898e-09
0
2.34528e-09
0
2.84017e-09
0
2.63942e-09
0
1.59701e-09
0
1.61751e-09
2.95882e-13
1.73728e-09
7.08125e-14
1.6148e-09
0
0
8.97099e-10
0
1.03402e-11
-2.33423e-09
-1.09701e-09
-1.85151e-09
-2.59382e-09
-5.31101e-10
-2.05039e-09
-6.84174e-10
-1.22382e-09
-1.18503e-09
-2.98311e-09
-2.40468e-09
-2.18416e-13
-3.80025e-09
-1.13158e-13
-3.58982e-09
-9.62998e-14
-2.72658e-09
-7.91128e-14
-1.58005e-09
-7.01544e-14
6.17148e-10
-3.11312e-14
1.03793e-09
-6.01063e-11
1.71962e-09
3.5758e-10
2.54547e-09
7.92142e-10
2.58324e-09
9.49536e-10
1.55685e-09
1.16341e-09
6.4115e-10
6.98537e-10
2.98877e-10
2.80054e-10
-1.38186e-10
2.47879e-10
-2.94563e-10
2.18574e-10
-3.25484e-10
2.67347e-10
1.46599e-10
-2.20914e-10
1.02546e-10
-5.04681e-11
1.50009e-10
-2.89581e-10
-2.41376e-10
-1.7592e-10
-5.89846e-10
-1.03798e-10
-2.09049e-10
-2.40165e-10
-5.98112e-14
-3.91286e-12
-8.61758e-14
-1.92647e-13
-9.6442e-14
-1.03508e-13
-9.04791e-14
-1.0286e-13
-8.63465e-14
-8.38625e-14
-9.81037e-14
-5.90167e-14
-2.61867e-13
-1.07632e-13
-4.58201e-11
-1.47886e-11
-4.25083e-11
-7.93034e-11
-2.63831e-11
-1.17538e-11
-3.54501e-11
0
-2.70983e-10
8.35407e-11
-6.65502e-10
0
-7.17197e-10
0
-1.02184e-09
0
-1.01543e-09
0
-1.29581e-09
0
1.35199e-10
-1.84852e-09
6.24123e-12
-1.44311e-15
-2.63471e-12
-2.25471e-15
-2.02255e-12
-5.07784e-13
-1.49822e-12
-7.77821e-13
-1.57911e-13
-3.1402e-12
-2.08915e-13
-3.68687e-12
-1.06808e-13
-1.16697e-13
-1.25442e-13
-8.54704e-14
-1.30937e-13
-9.79815e-14
-1.28164e-13
-8.72551e-14
-1.32959e-13
-5.51079e-14
-1.35121e-13
-1.12924e-13
-3.23393e-10
-3.51228e-11
-2.837e-10
-1.054e-10
-2.30794e-10
-5.13112e-11
-9.90001e-11
2.22824e-11
-5.16399e-11
8.86999e-12
-4.46224e-11
0
-1.75427e-11
0
-3.66156e-11
4.76641e-12
-3.17469e-10
0
-3.60963e-10
0
0
-4.22267e-10
-1.40699e-15
0
-3.24221e-15
-4.19632e-16
-5.0997e-13
-1.06215e-15
-8.47911e-13
-2.91312e-14
-2.31529e-12
-7.14064e-13
-6.10998e-12
-1.7959e-12
-1.56132e-12
-1.91229e-12
-1.00547e-12
-8.59377e-13
-3.94507e-12
-2.09175e-13
-1.73162e-12
-1.81502e-12
0
-1.73353e-13
-9.54901e-12
-9.8872e-13
-1.49087e-10
-2.00385e-11
-3.82259e-10
-1.90884e-13
-3.35321e-10
-1.97965e-11
-1.93518e-10
0
-1.16628e-10
1.25584e-11
-5.42802e-11
9.66454e-12
-5.06649e-12
5.15658e-12
-2.93101e-13
2.01525e-14
-4.19878e-13
0
-4.43427e-13
0
2.13516e-14
-4.91889e-13
-5.32208e-16
6.80864e-16
-1.73291e-15
7.80819e-16
-3.51846e-15
7.23265e-16
0
1.5249e-16
-4.28244e-12
-2.29989e-14
-4.82154e-12
-7.03395e-13
-4.98887e-12
-1.1923e-12
-2.00788e-12
-6.25174e-13
-9.66614e-12
-9.21891e-13
-9.21429e-12
-2.04692e-12
-8.82429e-12
-1.00028e-12
-1.25328e-11
-6.32037e-13
-5.30541e-15
-2.36154e-15
-1.95526e-13
-1.54706e-15
-1.99804e-11
-1.34506e-14
-9.17174e-11
0
-1.96935e-11
1.93394e-11
-5.26329e-12
7.09222e-13
-6.91067e-14
1.20418e-15
-4.20923e-14
3.15288e-14
-2.17465e-14
2.10953e-14
-1.53004e-14
1.12e-14
8.4261e-15
-1.42877e-14
-1.07604e-15
2.09945e-15
-2.0307e-15
1.73529e-15
-3.08321e-15
1.77537e-15
-4.73496e-15
1.80185e-15
-1.31887e-12
1.15075e-15
-4.0999e-12
3.05546e-14
-2.23497e-12
-2.26779e-13
-6.4217e-13
-6.48805e-14
-1.06685e-11
-5.90799e-13
-1.1161e-11
-1.33445e-12
-7.8564e-12
-1.41555e-12
-2.94482e-15
-2.74707e-16
-3.30816e-15
-6.09596e-16
-3.55783e-15
-2.09055e-15
-1.50304e-14
0
-2.6148e-12
0
-3.78497e-12
0
-8.98185e-13
6.61767e-13
-1.02702e-13
8.30831e-14
-6.75256e-14
3.39775e-14
-6.68699e-14
4.11425e-14
-1.29812e-14
7.18942e-14
7.07117e-15
-2.15291e-14
-2.99338e-15
4.37896e-15
-4.44779e-14
1.06458e-13
-2.30893e-14
1.40057e-13
-1.39264e-15
5.19482e-15
-5.96875e-14
1.476e-15
-6.31635e-13
4.13758e-16
0
1.56173e-14
-9.76432e-14
1.66635e-15
-7.13236e-12
-1.7259e-13
-7.5608e-12
-6.8607e-13
-5.30254e-15
-1.77762e-16
-4.04481e-15
-1.17969e-16
-3.09638e-15
-1.42895e-16
-2.21634e-13
-5.62971e-16
-3.12043e-12
-2.89929e-14
-3.42525e-12
1.17271e-12
-2.15654e-13
2.59917e-12
-1.20495e-13
5.75957e-13
-7.42175e-14
4.64744e-14
-1.19121e-13
4.86745e-14
-1.02291e-13
7.24192e-14
0
5.05147e-14
1.19908e-14
0
-2.12136e-14
8.97945e-15
-6.57666e-14
1.51704e-13
-7.07174e-14
1.47637e-13
-1.56608e-15
2.44356e-14
-8.69776e-16
4.91838e-16
-9.51569e-16
1.94903e-16
-2.17133e-15
1.71392e-14
-3.23732e-13
1.7253e-13
-4.37561e-12
2.41253e-13
-4.3784e-15
8.8968e-14
-3.19452e-15
5.4823e-17
-1.94332e-15
4.66553e-17
-6.9898e-16
3.24278e-17
-2.48723e-16
1.86187e-16
-1.24994e-11
2.18797e-13
-2.37732e-11
2.00844e-12
-2.52581e-11
4.11724e-12
-6.72361e-14
6.42998e-12
-6.86079e-14
2.1329e-14
-6.66178e-14
2.02448e-14
-7.89992e-14
2.5808e-14
-1.1509e-14
1.68735e-14
5.9766e-15
-2.16217e-14
-2.88715e-14
8.75749e-15
-5.46898e-14
1.79182e-13
-3.85051e-14
1.33102e-13
-5.13401e-16
2.73845e-14
-9.24876e-16
6.15825e-16
-1.75458e-15
7.37104e-16
-1.3358e-12
4.59757e-13
-3.24475e-12
8.29526e-13
-1.72773e-12
6.79083e-13
-4.25334e-15
2.33396e-13
-2.97991e-15
2.00642e-16
-1.70382e-15
1.90301e-16
-1.57046e-16
1.73685e-16
0
7.15258e-16
-2.26505e-11
4.02498e-13
-2.33278e-11
2.71821e-12
-2.31253e-11
3.9467e-12
-2.17013e-11
5.03923e-12
-3.58414e-14
2.57088e-12
-3.08525e-14
9.03721e-15
-1.91111e-14
7.82222e-15
-1.43174e-14
1.16104e-14
7.07904e-15
-8.73191e-15
-1.17858e-15
2.56126e-15
-3.29602e-14
3.97019e-15
-3.40818e-14
6.91388e-14
-2.5132e-15
9.27157e-15
-2.91518e-15
7.30078e-16
-1.34371e-13
7.21001e-15
-2.52625e-12
1.04159e-12
-2.76435e-12
1.33835e-12
-2.35056e-13
6.09493e-13
-2.63681e-15
3.28863e-16
-2.02156e-15
4.43054e-16
-1.93467e-15
4.46573e-16
-3.49453e-16
2.85753e-16
0
5.77451e-17
0
3.16093e-17
-9.90339e-12
0
-2.00502e-11
1.69227e-12
-1.42203e-11
2.68928e-12
-2.84395e-14
2.41475e-13
-3.32125e-14
7.5655e-15
-3.18005e-14
1.54839e-14
-2.02258e-14
1.74768e-14
7.98493e-15
-1.19187e-14
-6.19912e-17
1.4597e-15
-3.58566e-15
1.06813e-15
-1.81814e-15
8.64243e-16
-4.4697e-16
1.06324e-15
-1.00059e-15
8.66796e-16
-1.19465e-13
7.2952e-15
-1.85146e-12
7.41631e-13
-1.64645e-12
1.40406e-12
-1.82422e-15
9.30089e-14
-2.38572e-15
2.40409e-16
-1.97305e-15
6.46229e-16
-1.30934e-15
6.63567e-16
-2.91235e-16
3.76751e-16
-1.43456e-16
4.84813e-17
-1.86527e-16
4.35938e-17
-3.73703e-13
0
-1.26427e-12
0
-4.13223e-13
0
-6.43346e-14
0
-4.77846e-14
6.61478e-15
-3.71828e-14
1.69194e-14
-1.73044e-14
1.63491e-14
5.90184e-15
-7.66678e-15
-3.54842e-17
1.04763e-15
-8.27265e-17
6.67766e-16
-1.31195e-16
4.65169e-16
-1.70995e-16
6.1907e-16
0
1.87203e-15
-6.06512e-14
2.21644e-14
-5.8316e-13
0
-1.44431e-13
2.90778e-16
-8.57842e-16
0
-1.5601e-15
2.92744e-16
-1.62309e-15
7.9273e-16
-9.94002e-16
7.03549e-16
-1.76546e-16
1.5452e-16
-1.51601e-16
4.70337e-17
-1.68104e-16
4.91847e-17
-2.78631e-16
3.38816e-17
-4.64472e-16
1.64397e-18
-6.1255e-16
7.98127e-19
-8.96869e-15
0
-3.71622e-14
7.50177e-15
-3.0722e-14
1.56303e-14
-9.49527e-15
8.64631e-15
6.09983e-16
-2.65482e-15
-1.28739e-15
1.89363e-15
-3.01725e-16
2.98624e-13
-1.32829e-16
1.59418e-15
-6.63277e-16
6.84023e-16
-7.29808e-15
6.56354e-15
-6.00959e-16
1.73444e-14
-3.11643e-16
0
-2.6204e-17
1.51969e-17
-1.87771e-16
1.77139e-17
-8.83586e-16
3.3797e-16
-9.21806e-16
4.776e-16
-2.67647e-16
2.58051e-16
-9.78374e-17
3.8528e-17
-1.26739e-16
3.55502e-17
-1.41524e-16
5.489e-17
-1.38912e-16
5.37508e-17
-1.29435e-16
5.05754e-17
-1.56177e-16
4.7725e-17
-1.67667e-15
8.0713e-17
-4.58927e-15
8.68948e-17
-3.79063e-15
0
-2.25035e-15
0
3.99592e-16
-1.90074e-15
-2.15813e-14
6.57586e-13
-1.62183e-14
6.41239e-13
-2.30756e-16
1.13838e-15
-4.83132e-16
1.03534e-15
-4.04578e-15
6.59187e-15
-5.63575e-16
6.48701e-15
-1.51547e-17
3.19925e-17
-1.48962e-17
2.22548e-17
-9.55296e-17
1.82439e-17
-2.38186e-16
7.69894e-17
-1.83068e-16
7.69462e-17
-2.57727e-17
2.07968e-17
-3.33918e-17
3.32842e-18
-7.94157e-17
1.70491e-17
-1.10682e-16
4.01582e-17
-1.17242e-16
4.99862e-17
-1.07587e-16
5.28544e-17
-9.94849e-17
4.5292e-17
-6.17576e-17
1.70487e-17
-1.04674e-17
6.61396e-18
-1.99217e-17
2.95763e-18
-2.23697e-16
1.29283e-18
7.37482e-18
-1.9562e-16
-1.75685e-14
6.85e-13
-1.59541e-15
3.76725e-13
-1.20751e-16
1.09849e-16
-8.16975e-16
1.14185e-15
-7.80872e-16
3.50478e-15
-3.43994e-17
1.17617e-16
-1.24256e-17
2.78624e-17
-6.82598e-18
2.39797e-17
-1.60694e-17
6.55563e-18
-1.79519e-17
3.47285e-18
-6.70965e-18
1.81775e-18
-9.43014e-19
3.91042e-19
-3.8325e-18
8.20288e-19
-2.51526e-17
2.21904e-18
-4.8041e-17
1.0498e-17
-5.36086e-17
1.64299e-17
-5.11389e-17
1.64572e-17
-3.48889e-17
1.19795e-17
-1.8473e-17
5.52356e-18
-8.93441e-18
2.6725e-18
-4.31635e-18
2.16316e-18
-2.6206e-18
2.2353e-19
8.60795e-20
-6.67975e-19
-5.90006e-15
7.00693e-13
-5.35125e-16
4.87971e-14
-8.8685e-17
1.09984e-16
-2.75922e-16
7.84503e-16
-2.32996e-17
7.83802e-16
-7.81227e-18
1.19135e-17
-8.34232e-18
2.09459e-17
-1.82456e-18
1.90251e-17
-4.53739e-19
6.7272e-19
-2.40479e-19
5.79754e-19
-1.01811e-19
2.45426e-19
2.84789e-19
4.41074e-21
-4.20925e-19
-3.05216e-19
-1.87883e-18
3.88863e-19
-6.65787e-18
3.35618e-19
-6.98684e-18
8.35108e-19
-5.96877e-18
7.54626e-19
-3.46235e-18
3.97579e-19
-1.8893e-18
1.82922e-19
-1.18385e-18
1.00246e-19
-4.97657e-19
6.58434e-20
-2.87479e-19
2.03656e-20
1.19065e-20
-2.55648e-19
-9.67019e-15
7.20099e-13
-4.87672e-16
4.55267e-14
-4.43262e-17
1.13323e-16
-5.08843e-17
2.76171e-16
-2.22329e-18
9.85033e-17
-3.18853e-18
9.39588e-18
-3.57693e-18
8.33441e-18
-2.79666e-19
4.73115e-18
3.8983e-19
3.19929e-21
5.85648e-19
-8.83352e-19
7.82655e-19
-1.09499e-18
7.8918e-19
-1.22647e-18
4.4167e-19
-1.05036e-18
-2.02524e-20
-5.05139e-19
-1.17491e-19
2.01213e-20
-1.19772e-19
1.04115e-19
-8.00016e-20
9.25972e-20
-3.42671e-20
4.1254e-20
-1.6317e-20
1.58194e-20
-7.84915e-21
6.68057e-21
-1.14597e-21
2.47787e-21
-2.10261e-22
2.76226e-22
5.66051e-23
-9.62063e-22
-1.52999e-14
7.39651e-13
-5.00188e-17
4.75772e-13
-1.45731e-17
7.76358e-17
-1.06645e-17
8.44712e-17
-2.14588e-18
6.77756e-17
-8.33265e-19
9.53657e-18
-4.55584e-19
7.30948e-19
2.86972e-19
9.84463e-19
6.13569e-19
-9.86423e-19
7.82687e-19
-1.72024e-18
8.69295e-19
-1.81786e-18
8.17506e-19
-1.69505e-18
6.32848e-19
-1.35361e-18
4.11936e-19
-8.98591e-19
2.66082e-19
-5.05951e-19
1.9829e-19
-2.84819e-19
1.60521e-19
-1.86052e-19
1.26684e-19
-1.32323e-19
9.34604e-20
-9.13151e-20
6.29749e-20
-5.78621e-20
3.91301e-20
-3.21277e-20
2.25852e-20
-1.50842e-20
-5.39413e-21
1.21083e-20
-1.97552e-14
7.59423e-13
-7.76611e-18
7.77007e-13
-9.40728e-18
7.90777e-17
-6.56111e-18
7.63389e-17
-2.15319e-18
6.94682e-17
-6.50219e-20
9.89466e-18
1.4398e-20
1.75004e-19
3.07105e-19
-7.55093e-20
5.19e-19
-1.30466e-18
6.25136e-19
-1.81147e-18
6.51252e-19
-1.8155e-18
5.99407e-19
-1.59137e-18
4.92325e-19
-1.24428e-18
3.71973e-19
-8.75358e-19
2.70113e-19
-5.70358e-19
1.98376e-19
-3.59056e-19
1.44791e-19
-2.29262e-19
1.02004e-19
-1.45296e-19
6.87003e-20
-8.80893e-20
4.41522e-20
-4.99085e-20
2.69596e-20
-2.57051e-20
1.55225e-20
-1.13565e-20
-3.66234e-21
8.46151e-21
-1.8448e-14
7.77888e-13
-7.54093e-18
7.58596e-13
-9.00513e-18
8.03003e-17
-6.57855e-18
8.96606e-17
-2.05353e-18
9.48086e-17
-1.06973e-19
1.2224e-17
1.14267e-20
5.98129e-19
1.61638e-19
-7.43817e-20
2.8542e-19
-8.61615e-19
3.53548e-19
-1.25891e-18
3.6978e-19
-1.30311e-18
3.42089e-19
-1.14932e-18
2.86419e-19
-9.03854e-19
2.22605e-19
-6.47741e-19
1.64218e-19
-4.33256e-19
1.17222e-19
-2.76062e-19
8.03807e-20
-1.70335e-19
5.25526e-20
-1.00561e-19
3.2902e-20
-5.5912e-20
2.00023e-20
-2.8962e-20
1.18036e-20
-1.37627e-20
6.67523e-21
-5.60892e-21
-1.53743e-21
3.54814e-21
-1.57488e-14
7.93654e-13
-1.09983e-17
3.80917e-13
-1.20988e-17
8.12017e-17
-8.73056e-18
1.80065e-16
-2.3285e-18
1.64045e-16
-3.53546e-19
2.01275e-17
-2.43229e-19
4.35477e-18
-1.04335e-19
2.78771e-18
4.52162e-20
1.30705e-18
1.06056e-19
-2.59196e-19
1.4185e-19
-5.09657e-19
1.48175e-19
-5.75617e-19
1.31457e-19
-5.11228e-19
1.04503e-19
-3.87944e-19
7.70614e-20
-2.65029e-19
5.37519e-20
-1.68408e-19
3.51831e-20
-1.01181e-19
2.16152e-20
-5.67256e-20
1.25682e-20
-2.94126e-20
7.07191e-21
-1.39844e-20
3.90667e-21
-6.02318e-21
2.11751e-21
-2.18558e-21
-4.55746e-22
1.10129e-21
-1.16676e-14
3.42366e-13
-1.80887e-17
4.49716e-16
-1.88701e-17
8.17846e-17
-1.47859e-17
4.25713e-16
-2.95653e-18
2.74497e-16
-8.96001e-19
3.871e-17
-8.27638e-19
1.60708e-17
-7.18279e-19
1.32047e-17
-4.74288e-19
9.1996e-18
-2.20921e-19
4.88501e-18
-3.1983e-20
1.93994e-18
3.49572e-20
4.5657e-19
4.54852e-20
-1.64326e-19
3.97088e-20
-1.82577e-19
2.95849e-20
-1.36779e-19
2.0427e-20
-8.77126e-20
1.28894e-20
-5.21134e-20
7.46816e-21
-2.81349e-20
4.00744e-21
-1.37332e-20
2.03981e-21
-6.00012e-21
1.01101e-21
-2.30758e-21
4.96813e-22
-7.14044e-22
-8.54921e-23
2.49901e-22
-2.14235e-16
2.27213e-16
-1.07828e-17
2.43318e-16
-1.8902e-17
3.59964e-16
-1.68549e-17
5.67282e-16
-3.37078e-18
3.53552e-16
-1.52818e-18
7.00547e-17
-1.53428e-18
3.99457e-17
-1.47401e-18
3.46872e-17
-1.17426e-18
2.6074e-17
-7.27374e-19
1.62326e-17
-3.20661e-19
7.83589e-18
-6.37362e-20
2.69309e-18
8.28e-21
4.60133e-19
1.1987e-20
-4.85249e-20
9.32898e-21
-6.01217e-20
6.46655e-21
-4.02673e-20
3.95297e-21
-2.40814e-20
2.15549e-21
-1.26661e-20
1.05703e-21
-5.87017e-21
4.7432e-22
-2.37093e-21
1.99771e-22
-8.1102e-22
7.94905e-23
-2.06431e-22
-1.45603e-24
3.42111e-23
-3.26034e-18
2.3141e-16
-8.44623e-18
2.46582e-16
-1.22707e-17
5.55373e-16
-7.27487e-18
6.15657e-16
-2.50098e-18
3.59193e-16
-1.50116e-18
1.07508e-16
-1.55852e-18
7.51777e-17
-1.58299e-18
6.59129e-17
-1.39931e-18
5.04059e-17
-9.7678e-19
3.33089e-17
-4.78883e-19
1.70217e-17
-1.34167e-19
6.02405e-18
-7.71011e-21
1.17898e-18
2.5454e-21
5.34429e-20
2.31435e-21
-2.12476e-20
1.62951e-21
-1.66364e-20
9.5778e-22
-1.02084e-20
4.79639e-22
-5.27642e-21
2.0498e-22
-2.33262e-21
7.393e-23
-8.74062e-22
2.1359e-23
-2.66497e-22
2.97546e-24
-5.44471e-23
2.41153e-24
-4.99985e-24
-1.61157e-18
2.34886e-16
-3.78797e-18
2.46626e-16
-2.95816e-18
5.57363e-16
-6.12028e-19
5.87742e-16
2.76681e-19
3.25405e-16
1.96527e-19
1.31175e-16
5.42226e-20
1.1039e-16
-2.04371e-19
9.95441e-17
-4.25511e-19
7.71351e-17
-4.56897e-19
5.24786e-17
-2.80047e-19
2.75491e-17
-7.85456e-20
9.35475e-18
-5.57484e-21
1.47592e-18
2.11766e-22
6.71338e-20
3.65939e-22
-4.20109e-21
2.60164e-22
-6.25441e-21
1.36379e-22
-4.0388e-21
5.21125e-23
-2.06175e-21
1.09366e-23
-8.70809e-22
-6.92961e-24
-3.0295e-22
-1.26142e-23
-8.29153e-23
-1.05304e-23
-1.32634e-23
1.47639e-24
-7.35386e-24
-2.7471e-19
2.37025e-16
7.98807e-19
2.09454e-16
4.94914e-18
3.90756e-16
8.03497e-18
3.37837e-16
4.47602e-18
2.06953e-16
3.4974e-18
1.33234e-16
3.40029e-18
1.25447e-16
3.05685e-18
1.20164e-16
1.98164e-18
9.90924e-17
1.05247e-18
6.85681e-17
3.67378e-19
3.60903e-17
6.00512e-20
1.12084e-17
2.90547e-21
1.50334e-18
5.25661e-22
5.90673e-20
-8.15705e-25
-8.75269e-23
-3.21898e-23
-2.18826e-21
-4.15516e-23
-1.51552e-21
-4.0281e-23
-7.64046e-22
-3.13458e-23
-3.07644e-22
-2.04058e-23
-9.95641e-23
-1.17394e-23
-2.44569e-23
-6.49577e-24
-2.7446e-24
6.24993e-25
-3.61755e-24
1.2686e-18
3.3089e-16
2.37253e-18
1.63702e-16
5.62664e-18
1.89583e-16
6.10852e-18
2.10797e-16
7.24649e-18
1.47192e-16
7.1011e-18
1.316e-16
7.12379e-18
1.2639e-16
6.89715e-18
1.22774e-16
5.39381e-18
1.0803e-16
3.19565e-18
7.66053e-17
1.27124e-18
3.94726e-17
2.26105e-19
1.14931e-17
1.16862e-20
1.36352e-18
7.58094e-23
3.07025e-20
3.04991e-24
5.02855e-23
-5.38842e-23
-7.47542e-22
-5.20733e-23
-5.48567e-22
-3.6774e-23
-2.71488e-22
-2.18187e-23
-1.03725e-22
-1.14052e-23
-3.1115e-23
-5.49405e-24
-6.78685e-24
-2.65203e-24
-4.21903e-25
2.12564e-25
-1.33395e-24
9.02786e-18
1.17581e-15
3.99936e-18
1.65967e-16
6.63181e-18
1.84405e-16
8.78644e-18
2.0629e-16
9.98396e-18
1.4373e-16
1.03421e-17
1.28996e-16
1.03876e-17
1.24116e-16
1.0338e-17
1.23564e-16
8.59574e-18
1.09241e-16
5.22111e-18
7.79346e-17
2.04323e-18
3.99272e-17
3.39292e-19
1.1155e-17
1.18194e-20
9.4218e-19
3.2777e-23
1.02115e-20
2.46089e-24
1.25105e-23
-3.03439e-23
-2.56427e-22
-2.89639e-23
-1.94453e-22
-1.8833e-23
-9.34033e-23
-1.00146e-23
-3.35835e-23
-4.65922e-24
-9.2598e-24
-1.99544e-24
-1.76336e-24
-8.73502e-25
-1.80747e-26
6.00163e-26
-4.01829e-25
2.85116e-17
1.50832e-15
3.08594e-17
2.59359e-14
9.72894e-18
2.02693e-16
9.08207e-15
1.22951e-12
1.56889e-17
9.20785e-15
1.38211e-17
1.28598e-16
1.34085e-17
1.22282e-16
1.34857e-17
1.23037e-16
1.12585e-17
1.09318e-16
6.84094e-18
7.80086e-17
2.57028e-18
3.84901e-17
3.43491e-19
8.97413e-18
6.50936e-21
4.81184e-19
7.44735e-24
2.60541e-21
6.21899e-25
1.12697e-24
-1.38546e-23
-9.00014e-23
-1.29587e-23
-6.82632e-23
-7.86678e-24
-3.13201e-23
-3.81164e-24
-1.04656e-23
-1.59348e-24
-2.61199e-24
-6.06625e-25
-4.24033e-25
-2.40705e-25
3.8533e-27
1.41519e-26
-1.00715e-25
4.16459e-16
1.45238e-15
5.66179e-14
2.63086e-13
2.20381e-13
2.14933e-12
1.65346e-13
2.07926e-12
0
1.41706e-12
2.04219e-17
1.74962e-14
1.52904e-17
1.25074e-16
1.59631e-17
1.18635e-16
1.33381e-17
1.05815e-16
7.81629e-18
7.34273e-17
2.55049e-18
3.22802e-17
2.31797e-19
5.56393e-18
2.24475e-21
1.76113e-19
1.14755e-24
4.87407e-22
9.35446e-26
8.47206e-26
-5.86269e-24
-3.26559e-23
-5.20792e-24
-2.38718e-23
-2.9155e-24
-1.02522e-23
-1.27608e-24
-3.13003e-24
-4.72997e-25
-6.92608e-25
-1.5767e-25
-9.37007e-26
-5.59821e-26
1.56052e-27
2.75726e-27
-2.10034e-26
4.54089e-16
1.35805e-15
1.38767e-13
3.60153e-13
3.12176e-13
1.98856e-12
3.25679e-13
2.07766e-12
1.33663e-13
1.72423e-12
1.90515e-17
7.27289e-14
1.02326e-17
1.32987e-16
1.69569e-17
1.11129e-16
1.43908e-17
9.77609e-17
7.60971e-18
6.266e-17
1.918e-18
2.24452e-17
1.02886e-19
2.54589e-18
4.70268e-22
4.19939e-20
1.04711e-25
5.25254e-23
9.66212e-27
5.5954e-26
-2.41811e-24
-1.2338e-23
-1.95452e-24
-8.32171e-24
-9.86967e-25
-3.26736e-24
-3.8299e-25
-8.93104e-25
-1.23017e-25
-1.71152e-25
-3.49875e-26
-1.88413e-26
-1.0864e-26
3.69053e-28
4.35495e-28
-3.59084e-27
5.10999e-16
1.20569e-15
1.2197e-13
1.28829e-13
4.07049e-13
1.71542e-12
4.08865e-13
2.08793e-12
8.24894e-14
6.56046e-13
0
2.61747e-14
1.34762e-17
1.2034e-16
1.78841e-17
1.07586e-16
1.3726e-17
8.60008e-17
6.09494e-18
4.70475e-17
1.04701e-18
1.23529e-17
2.81657e-20
7.87054e-19
5.15673e-23
5.5039e-21
3.91814e-24
2.68469e-24
-1.55222e-25
-8.4972e-25
-9.97196e-25
-4.87686e-24
-6.95687e-25
-2.88321e-24
-3.08819e-25
-1.01026e-24
-1.03724e-25
-2.41847e-25
-2.80632e-26
-3.9149e-26
-6.57823e-27
-3.42366e-27
-1.73047e-27
6.28773e-29
5.44119e-29
-4.91744e-28
3.18027e-15
2.39763e-15
8.22343e-14
5.08443e-15
3.47973e-13
0
2.51848e-13
3.40552e-13
0
0
0
5.39443e-16
2.02317e-17
1.24606e-16
1.83153e-17
1.05842e-16
1.11507e-17
6.90585e-17
3.805e-18
2.92544e-17
3.77865e-19
4.83123e-18
4.10527e-21
1.3768e-19
2.46434e-24
3.2293e-22
2.19668e-25
6.7661e-26
-2.34376e-25
-1.25085e-24
-4.05203e-25
-1.96298e-24
-2.36543e-25
-9.89061e-25
-9.00557e-26
-3.02916e-25
-2.54878e-26
-6.21256e-26
-5.6254e-27
-8.28118e-27
-1.04252e-27
-5.62109e-28
-2.2213e-28
8.06712e-30
5.2157e-30
-5.23521e-29
1.13391e-15
2.70793e-15
1.05392e-15
2.42171e-15
9.70166e-16
6.21387e-18
1.09098e-14
0
6.99643e-17
0
4.2431e-17
3.3484e-16
2.58932e-17
1.9473e-16
1.53742e-17
1.03074e-16
7.21696e-18
4.75433e-17
1.64754e-18
1.33679e-17
7.45356e-20
1.08636e-18
2.549e-22
1.04429e-20
4.48776e-26
7.23897e-24
6.36292e-27
3.5432e-26
-1.51628e-25
-8.06189e-25
-1.60141e-25
-7.86963e-25
-7.7507e-26
-3.36119e-25
-2.47476e-26
-8.85069e-26
-5.73878e-27
-1.52409e-26
-9.9815e-28
-1.63262e-27
-1.39146e-28
-8.38947e-29
-2.25216e-29
7.95975e-31
3.70933e-31
-4.1671e-30
1.54835e-15
1.1913e-15
1.12663e-15
3.03413e-15
3.27393e-16
1.72055e-15
1.27269e-16
4.04148e-16
9.19546e-17
3.81189e-16
7.98153e-17
3.70098e-16
3.10673e-17
2.11363e-16
1.15514e-17
8.68962e-17