/*--------------------------------*- C++ -*----------------------------------*\
  =========                 |
  \\      /  F ield         | OpenFOAM: The Open Source CFD Toolbox
   \\    /   O peration     | Website:  https://openfoam.org
    \\  /    A nd           | Version:  9
     \\/     M anipulation  |
\*---------------------------------------------------------------------------*/
FoamFile
{
    format      ascii;
    class       volScalarField;
    location    "8.04";
    object      p_rgh;
}
// * * * * * * * * * * * * * * * * * * * * * * * * * * * * * * * * * * * * * //

dimensions      [1 -1 -2 0 0 0 0];

internalField   nonuniform List<scalar> 
2268
(
764.142
764.172
764.167
764.118
764.02
763.874
763.68
763.439
763.156
762.835
762.483
762.107
761.712
761.301
760.88
760.46
760.072
759.762
759.486
759.286
759.306
759.364
759.427
764.131
764.154
764.146
764.093
763.994
763.846
763.652
763.412
763.131
762.812
762.462
762.084
761.685
761.269
760.847
760.441
760.097
759.849
759.594
759.391
759.434
759.355
759.423
764.122
764.141
764.13
764.073
763.971
763.822
763.628
763.389
763.109
762.793
762.444
762.067
761.667
761.251
760.833
760.445
760.133
759.919
759.72
759.408
759.505
759.346
759.423
764.117
764.137
764.126
764.067
763.962
763.812
763.617
763.378
763.099
762.784
762.436
762.059
761.661
761.249
760.842
760.451
760.105
759.924
759.849
759.62
759.498
759.298
759.432
764.117
764.143
764.133
764.073
763.968
763.816
763.621
763.382
763.103
762.787
762.438
762.061
761.666
761.262
760.868
760.469
759.873
759.893
759.802
759.728
759.45
758.705
759.444
764.123
764.156
764.151
764.092
763.986
763.835
763.638
763.4
763.12
762.8
762.448
762.07
761.679
761.284
760.908
760.575
759.186
759.19
759.701
759.629
759.265
758.249
759.434
764.136
764.176
764.177
764.121
764.016
763.864
763.668
763.429
763.147
762.823
762.465
762.084
761.696
761.311
760.958
760.665
758.98
753.995
755.466
757.786
754.165
758.174
759.497
764.155
764.201
764.208
764.157
764.053
763.9
763.705
763.467
763.185
762.854
762.488
762.103
761.718
761.341
761.016
760.77
759.954
753.485
753.105
752.707
752.751
758.724
759.566
759.34
759.605
759.898
760.099
760.259
760.333
760.357
760.475
760.584
760.655
760.756
760.852
761.079
761.618
761.82
762.023
762.105
762.117
762.126
759.008
759.487
759.839
760.063
760.247
760.419
760.608
760.729
760.851
761.036
761.092
760.935
761.114
761.663
761.82
761.989
762.065
762.042
762.062
758.727
759.308
759.853
760.036
760.223
760.402
760.586
760.726
760.863
761.104
761.487
761.503
761.36
761.541
761.851
761.995
761.985
761.667
761.763
758.617
759.528
759.946
760.054
760.225
760.393
760.544
760.708
760.813
761.021
761.546
762.019
762.259
761.931
761.734
762.028
761.832
761.621
761.988
758.664
759.995
760.053
760.087
760.236
760.371
760.548
760.734
760.86
760.912
761.527
762.018
762.295
762.198
761.127
761.613
761.461
762.219
762.467
760.446
760.278
760.109
760.104
760.235
760.405
760.617
760.85
760.81
760.957
761.575
762.022
762.295
762.239
761.113
760.164
759.244
762.312
762.462
760.49
760.261
760.102
760.102
760.24
760.417
760.657
760.934
760.328
757.856
761.576
762.036
762.211
759.439
759.701
762.239
758.952
761.993
762.475
760.347
760.146
760.053
760.096
760.242
760.403
760.664
761.036
758.984
754.104
756.715
761.114
761.635
755.778
758.972
762.37
758.727
761.205
762.523
764.194
764.25
764.267
764.223
764.123
763.971
763.778
763.547
763.264
762.919
762.534
762.135
761.758
761.414
761.115
760.916
760.929
760.305
757.26
756.347
759.704
759.775
759.486
755.994
756.325
756.887
757.211
757.398
757.741
758.152
758.482
758.126
756.46
754.317
752.066
750.682
749.792
749.586
750.105
751.431
753.573
754.337
753.588
751.075
747.227
744.863
307.936
308.841
309.165
308.958
307.931
305.787
303.096
300.156
297.636
296.033
294.775
293.287
290.913
288.021
284.861
282.043
280.33
280.31
280.917
279.849
277.646
277.08
278.506
0.497489
0.506883
0.527861
0.530279
0.537586
0.596036
0.644473
0.66939
0.679089
0.686487
0.689596
0.691211
0.687309
0.744042
0.906891
1.15704
1.45269
1.30275
0.826857
0.81668
0.862097
0.866264
0.724385
0.738289
0.881833
1.30959
1.31085
1.24954
2.02607
2.53093
2.73262
2.77048
2.8543
2.87442
2.87734
2.80928
2.54057
2.36147
2.20071
1.84579
1.32676
0.802609
0.823497
0.857539
0.84944
0.659278
0.536851
0.458256
0.200554
0.210829
0.306283
0.0767158
-0.00224367
-0.00395999
-0.00340529
-0.00261947
-0.00122606
0.00101351
0.00513999
0.0296384
0.0453102
0.0530774
0.100822
0.296829
0.421073
0.428334
0.44078
0.384487
0.507262
0.0208954
0.0220424
0.0138873
0.000662291
-0.00082594
-0.00158616
-0.00194207
-0.00229216
-0.00197308
-0.00128043
-0.000229409
0.00140616
0.0264955
0.0922428
0.0935625
0.0824044
0.0264683
0.0252396
0.0213526
0.0143026
0.0497448
0.140185
0.153402
-0.00407518
-0.00330643
-0.00208922
-0.00114795
0.000123376
0.000440515
-0.000557339
-0.00178092
-0.000990673
0.00013124
-0.000208972
0.000637689
0.0516374
0.0941737
0.087689
0.043714
0.0278358
0.0196996
0.0126338
0.00643422
0.0062007
0.00548894
0.00557911
-0.00142134
-0.00173979
-0.00157457
-0.00155779
-0.00112085
0.00117628
0.00119327
7.84298e-05
6.39015e-05
0.00321031
0.00193124
0.00171144
0.00278441
-0.00143512
-0.00057114
0.01218
0.0276978
0.00957236
0.00464305
0.00516493
0.00524546
0.00515097
0.00530865
-0.00209528
-0.00196764
-0.00171445
-0.00159046
-0.00150493
0.0009208
0.00145584
-0.00100984
0.00168576
0.00359874
0.00373452
-0.00035935
-0.000800292
-0.00065801
-8.81587e-06
0.000991993
0.00290715
0.00414023
0.0037853
0.0042246
0.00444203
0.00452396
0.00467861
-0.00138571
-0.00143309
-0.00135017
-0.00142627
-0.00143
-0.00123149
-0.000858061
-0.00116009
0.00147139
0.00400758
0.00188251
-0.000655944
-0.000516937
-0.000253968
0.000911074
0.00235381
0.0028558
0.00260099
0.0031249
0.00351009
0.00372293
0.0038122
0.00384418
-0.00113819
-0.00104567
-0.00105735
-0.00122399
-0.00124831
-0.00123051
-0.00116937
-0.00106526
0.00176121
0.00403562
-0.00076934
-0.00054932
-0.000346348
-6.55981e-05
0.00224735
0.0121362
0.0128764
0.00619169
0.00260054
0.00285974
0.00304607
0.00309296
0.00300148
-0.000972887
-0.000833788
-0.0008653
-0.00104548
-0.00107911
-0.00105249
-0.000653697
0.00199751
0.00228927
0.000661203
-0.00064994
-0.000451802
-0.000251039
-1.26191e-05
0.00279256
0.0125925
0.0131077
0.0136404
0.0059056
0.00228817
0.00243787
0.00247208
0.00235856
-0.000825459
-0.000787088
-0.000715322
-0.000906162
-0.000929122
-0.000900604
0.00118131
0.00270279
0.00255351
-0.000704952
-0.000544098
-0.000371349
-0.000193609
-3.46109e-06
0.000203793
0.0028807
0.0123588
0.0136214
0.00321557
0.00179362
0.0019567
0.00200872
0.00190966
-0.000676225
-0.000729991
-0.00074182
-0.000784595
-0.000794996
-0.000784615
0.00142304
0.00296782
0.0010128
-0.000595683
-0.000453084
-0.000303831
-0.000149645
9.94e-06
0.000163547
0.000334069
0.000995585
0.00170489
0.00127223
0.00141544
0.0015848
0.00163166
0.00156371
-0.000549991
-0.000599903
-0.000633296
-0.000658912
-0.00067177
-0.000650879
2.55707e-05
0.000650275
-0.000597556
-0.000498155
-0.000374051
-0.00024537
-0.000112083
2.64847e-05
0.00016424
0.000298343
0.000454316
0.000668496
0.000925114
0.00114683
0.00128608
0.00132618
0.00126813
-0.000427755
-0.000456638
-0.000517878
-0.00054465
-0.000554369
-0.000538218
-0.000578181
-0.000560726
-0.000494985
-0.000405095
-0.000303247
-0.000194404
-7.95392e-05
4.0896e-05
0.000163662
0.000288686
0.000427681
0.000593074
0.000771371
0.000920336
0.00101687
0.00105535
0.00104332
0.000232932
0.000207363
-0.000420002
-0.000446002
-0.000453953
-0.000448618
-0.000466035
-0.000443744
-0.00039377
-0.000323222
-0.000240426
-0.000149068
-5.08072e-05
5.27207e-05
0.000159733
0.000270117
0.000387967
0.000516601
0.000646487
0.000754536
0.000827884
0.000863303
0.000862349
0.000462683
0.000320724
-0.000341792
-0.000364017
-0.000371851
-0.000378555
-0.000373696
-0.000351145
-0.000309784
-0.000252917
-0.000184831
-0.000108205
-2.50119e-05
6.30701e-05
0.000154675
0.000249178
0.000347267
0.000448456
0.000546122
0.000627922
0.000685549
0.000715904
0.000719595
0.00057354
-6.92294e-06
-0.000282078
-0.000297562
-0.00030478
-0.000306885
-0.000297091
-0.000275427
-0.000240247
-0.000193112
-0.000136415
-7.21576e-05
-2.0541e-06
7.23935e-05
0.000149873
0.000229379
0.000310169
0.000390494
0.000465682
0.000528673
0.000574109
0.000599559
0.000605202
0.000678448
-0.000201867
-0.000232248
-0.000241928
-0.00024672
-0.000244314
-0.000233337
-0.000212985
-0.000182515
-0.000142727
-9.50866e-05
-4.10734e-05
1.79146e-05
8.05582e-05
0.000145598
0.000211839
0.000278021
0.000342192
0.000400993
0.000450079
0.000485933
0.00050675
0.000512496
0.000751772
-3.58109e-05
-0.000185798
-0.000193623
-0.000195944
-0.000191558
-0.000180111
-0.000161151
-0.00013442
-0.00010042
-6.01065e-05
-1.45783e-05
3.50311e-05
8.75786e-05
0.000141899
0.000196781
0.000250864
0.00030236
0.000348804
0.000387338
0.000415578
0.000432185
0.000437023
0.000785069
0.000732403
-0.000143039
-0.000152272
-0.000152998
-0.00014723
-0.000135465
-0.000117742
-9.4044e-05
-6.47091e-05
-3.03868e-05
8.10138e-06
4.98409e-05
9.38532e-05
0.000139093
0.000184431
0.000228592
0.000270047
0.000306944
0.000337296
0.000359415
0.000372285
0.000375709
0.000853912
0.000832613
-0.000116502
-0.000120156
-0.000117559
-0.000109892
-9.76327e-05
-8.08952e-05
-5.96676e-05
-3.41433e-05
-4.75315e-06
2.78956e-05
6.30704e-05
9.99425e-05
0.000137595
0.000175019
0.000211089
0.000244528
0.000273914
0.000297792
0.000314915
0.000324475
0.00032624
0.00090559
0.00077683
-9.59051e-05
-9.35721e-05
-8.72106e-05
-7.75854e-05
-6.48286e-05
-4.89477e-05
-2.98137e-05
-7.4727e-06
1.78152e-05
4.56102e-05
7.5329e-05
0.000106273
0.000137646
0.000168563
0.000198049
0.000225043
0.000248422
0.000267074
0.00028003
0.000286624
0.000286599
0.000879564
8.21153e-05
-7.50597e-05
-6.83464e-05
-5.92048e-05
-4.82779e-05
-3.53962e-05
-2.04839e-05
-3.28838e-06
1.62707e-05
3.80658e-05
6.17831e-05
8.69541e-05
0.000112984
0.000139179
0.00016476
0.000188882
0.00021065
0.000229148
0.00024349
0.000252892
0.000256778
0.000254883
8.87539e-05
-5.98339e-05
-5.13703e-05
-4.20302e-05
-3.15623e-05
-2.03615e-05
-8.01501e-06
5.59088e-06
2.07948e-05
3.77686e-05
5.64758e-05
7.66899e-05
9.80223e-05
0.000119954
0.000141864
0.000163056
0.000182783
0.000200268
0.000214739
0.000225457
0.000231761
0.000233143
0.000229342
-1.4636e-05
-3.56206e-05
-2.45281e-05
-1.421e-05
-3.51794e-06
7.08265e-06
1.81695e-05
3.00085e-05
4.30219e-05
5.74489e-05
7.33066e-05
9.042e-05
0.000108448
0.000126916
0.000145248
0.000162803
0.000178896
0.000192833
0.000203932
0.000211553
0.000215119
0.000214175
0.000208487
1.5629e-05
-2.09877e-05
2.16693e-06
1.48203e-05
2.52167e-05
3.44835e-05
4.36115e-05
5.31725e-05
6.37168e-05
7.55367e-05
8.86699e-05
0.00010296
0.000118083
0.000133579
0.00014889
0.0001634
0.000176463
0.000187429
0.000195675
0.000200621
0.000201751
0.000198651
0.000191113
-2.48322e-06
2.60474e-05
3.6666e-05
4.63091e-05
5.50833e-05
6.20748e-05
6.84658e-05
7.52121e-05
8.29767e-05
9.20864e-05
0.000102567
0.00011424
0.000126773
0.000139692
0.000152431
0.000164378
0.0001749
0.000183368
0.000189185
0.000191808
0.000190761
0.000185671
0.000176361
1.2116e-05
4.78265e-05
6.29372e-05
7.73892e-05
8.59571e-05
8.98466e-05
9.25942e-05
9.59493e-05
0.00010066
0.000106987
0.000114895
0.000124149
0.000134376
0.00014506
0.000155612
0.000165408
0.000173808
0.00018018
0.000183933
0.000184537
0.000181543
0.00017461
0.000163615
6.38292e-05
4.21265e-05
8.52642e-05
0.000111724
0.000119171
0.000117712
0.000115519
0.000114908
0.000116374
0.000119953
0.00012545
0.000132527
0.000140737
0.000149516
0.00015824
0.000166263
0.000172923
0.000177568
0.000179591
0.000178454
0.000173715
0.000165066
0.00015245
8.26901e-05
6.50218e-05
0.00012395
0.000323512
0.000156104
0.000144237
0.000135707
0.000131008
0.00012942
0.000130531
0.000133932
0.000139154
0.00014568
0.000152897
0.00016015
0.000166769
0.000172062
0.000175342
0.000175964
0.000173354
0.000167053
0.00015678
0.000142571
7.53172e-05
0.000336541
0.00238193
0.00388464
0.000930786
0.000178798
0.000149868
0.000142456
0.000138813
0.000138156
0.000139982
0.000143783
0.000149009
0.000155025
0.000161169
0.000166756
0.000171063
0.000173357
0.000172926
0.000169126
0.000161436
0.000149581
0.000133738
8.38426e-05
0.000811585
0.00413079
0.00414093
0.00381473
0.00030673
0.000155556
0.000148173
0.000143956
0.000142469
0.000143359
0.000146217
0.000150535
0.000155708
0.0001611
0.000166026
0.000169746
0.000171467
0.000170384
0.000165723
0.000156826
0.000143359
0.000125727
0.000109686
0.000623935
0.00424899
0.00424196
0.00315712
0.000247522
0.000155549
0.000149438
0.000145396
0.000143665
0.000144085
0.000146385
0.000150124
0.000154764
0.000159724
0.000164347
0.000167889
0.000169504
0.00016826
0.000163173
0.0001533
0.00013808
0.000118299
0.000165508
0.000312872
0.00178762
0.0031779
0.000785977
0.00017168
0.000154911
0.000148436
0.000144161
0.000142187
0.000142319
0.000144281
0.000147662
0.000151997
0.000156774
0.000161401
0.000165165
0.000167194
0.000166415
0.00016154
0.000151074
0.000133804
0.000111165
0.000264719
0.000337151
0.000286746
0.00030141
0.000188335
0.000166993
0.000153734
0.000145165
0.000140142
0.000137871
0.000137828
0.000139589
0.000142742
0.000146892
0.000151623
0.000156453
0.000160773
0.000163751
0.000164219
0.000160529
0.000150255
0.000130501
0.000103814
0.000424111
0.000438843
0.000332546
0.000247294
0.000194185
0.000164162
0.000146826
0.000137028
0.000131872
0.00012976
0.000129833
0.000131551
0.000134542
0.000138508
0.00014317
0.000148222
0.000153251
0.000157602
0.000160208
0.000159292
0.000151049
0.000127948
9.504e-05
0.000557998
0.00050322
0.000343703
0.00024078
0.000180309
0.000148533
0.000132852
0.000125275
0.00012188
0.000120926
0.000121588
0.000123448
0.000126279
0.000129944
0.000134348
0.000139421
0.000145053
0.000150956
0.000156702
0.000161692
0.000160419
0.000129654
8.32567e-05
0.000702923
0.000478854
0.00030354
0.00020962
0.00015591
0.000133989
0.000127877
0.000126667
0.000126916
0.000127843
0.000129274
0.000131191
0.000133631
0.000136664
0.000140411
0.000145073
0.000150909
0.000158197
0.00016809
0.000184537
0.000203055
0.000153837
7.01133e-05
0.000589416
3.53376e-05
0.000131853
0.000123127
0.00011508
0.000116593
0.00012124
0.000124516
0.000126276
0.000127279
0.000128029
0.000128793
0.000129747
0.000131057
0.000132937
0.000135717
0.00013986
0.000146087
0.000156941
0.000181585
0.000227857
0.000199925
6.05543e-05
759.42
759.434
759.466
759.482
744.339
744.06
744.192
744.35
278.739
278.787
278.908
279.511
0.545654
0.531478
0.632315
0.633345
0.465368
0.459783
0.585558
0.608756
0.490797
0.346824
0.275755
0.584197
0.168202
0.173428
0.169507
0.145679
0.00636633
0.00723263
0.00943817
0.00735306
0.0058142
0.00618216
0.00685266
0.00773807
0.00504337
0.00595858
0.0218768
0.038506
0.00425704
0.0286195
0.0414917
0.0415219
0.00278486
0.00325782
0.0249546
0.0423375
0.00210029
0.00187514
0.00160913
0.00154524
0.00172469
0.00159052
0.00140863
0.00121143
0.0014696
0.0014207
0.00131968
0.00120952
0.0011926
0.0011433
0.00110122
0.00107666
0.000996957
0.000962015
0.00092634
0.000887092
0.000834337
0.000814413
0.00079346
0.000769779
0.000702699
0.000690775
0.000678242
0.000663898
0.000594716
0.000587196
0.000579364
0.000570237
0.000505511
0.000500402
0.000495056
0.000488683
0.000431788
0.000427899
0.000423743
0.000418672
0.000371177
0.000367763
0.000364003
0.000359348
0.00032175
0.00031831
0.000314418
0.000309605
0.000281699
0.000277885
0.000273503
0.00026815
0.000249261
0.000244846
0.000239743
0.000233618
0.000222781
0.000217639
0.000211703
0.000204702
0.000200851
0.000194936
0.000188148
0.000180268
0.000182362
0.000175686
0.00016808
0.000159378
0.000166495
0.000159099
0.000150747
0.000141313
0.000152656
0.000144592
0.000135577
0.000125514
0.000140434
0.000131748
0.000122145
0.000111543
0.000129516
0.000120237
0.000110099
9.90328e-05
0.000119629
0.000109759
9.91188e-05
8.76428e-05
0.000110492
0.000100006
8.88699e-05
7.70285e-05
0.000101781
9.0613e-05
7.89734e-05
6.68167e-05
9.3075e-05
8.11244e-05
6.89726e-05
5.659e-05
8.37714e-05
7.0931e-05
5.83061e-05
4.5887e-05
7.27907e-05
5.91471e-05
4.62969e-05
3.426e-05
5.82173e-05
4.44933e-05
3.23214e-05
2.15751e-05
3.78596e-05
2.50478e-05
1.56328e-05
8.22048e-06
2.64904e-05
1.4726e-05
6.40331e-06
5.7865e-07
760.037
759.891
759.948
760.085
759.758
758.289
758.322
759.71
760.513
756.839
751.147
751.368
751.627
755.404
762.866
762.575
760.617
760.079
762.364
745.19
743.959
742.947
742.116
741.747
741.843
741.283
741.66
749.327
758.172
759.31
759.642
759.749
759.559
758.25
755.999
755.795
751.865
748.43
281.441
281.644
282.08
284.52
288.387
293.595
298.672
301.724
301.916
304.466
311.756
315.156
316.693
315.482
310.984
310.032
312.338
312.68
314.014
0.61538
0.722132
1.21778
1.23775
1.19203
0.916458
0.682199
0.546266
0.494108
0.461378
0.430994
0.394595
0.359503
0.398985
0.432201
0.442664
0.441663
0.444659
0.433051
0.584279
0.645694
1.19409
1.19179
1.17219
1.18139
1.18767
1.18695
1.1843
1.17972
1.16065
0.876037
0.390202
0.7842
0.918666
0.921861
0.922593
0.921306
0.808426
0.589114
0.501291
0.417825
0.434998
0.404302
0.318752
0.262863
0.239541
0.230677
0.179493
0.0212074
0.0256035
0.197953
0.257027
0.299617
0.346742
0.358304
0.34598
0.395546
0.126055
0.11452
0.0294355
0.00948591
0.0104104
0.012604
0.0142312
0.013904
0.0132463
0.0135302
0.0199154
0.0240699
0.0382486
0.0124954
0.00409271
0.00278287
0.00252798
0.00293034
0.0142194
0.00697258
0.00733172
0.00783582
0.00822858
0.0096031
0.0388365
0.0627869
0.0536748
0.0414023
0.0569072
0.0817286
0.0815211
0.0679235
0.010776
0.00382979
0.00281359
0.00245098
0.00251207
0.00245658
0.00836609
0.00707436
0.00695336
0.00683241
0.0249349
0.0815544
0.0804913
0.079309
0.0790685
0.0774887
0.0826557
0.0828653
0.0625576
0.00956407
0.00352732
0.00278246
0.00246843
0.00249047
0.00274318
0.0407859
0.0202738
0.0061643
0.00536261
0.0236487
0.05755
0.0284453
0.0018658
0.00166311
0.00142818
0.0214466
0.0433519
0.0581169
0.0281896
0.0074487
0.00273853
0.00252949
0.00250449
0.00272534
0.0416075
0.0420193
0.0299226
0.00718092
0.00473652
0.00145763
0.00124282
0.00184401
0.00263952
0.00123332
0.00071622
0.00500547
0.0312298
0.0351837
0.00800637
0.0027915
0.00267442
0.002624
0.00269801
0.0422518
0.0425132
0.0423706
0.0115139
0.00214031
0.0015111
0.0015899
0.00297496
0.00283511
0.00155993
0.000758511
0.00743187
0.0148115
0.0256305
0.00299927
0.00300716
0.00291283
0.00284367
0.00275433
0.0103422
0.0226245
0.00799463
0.00163378
0.00163223
0.00135158
0.0012806
0.0012058
0.0010488
0.000741656
0.000559716
0.00036943
0.00287209
0.0208279
0.021624
0.0139304
0.00316554
0.00312175
0.00290824
0.000892366
0.000744191
0.000994946
0.00128283
0.0013119
0.00117186
0.00102648
0.000908632
0.000786656
0.000658119
0.000517106
0.000391974
0.00711728
0.0212724
0.0222134
0.0227529
0.0141396
0.00335528
0.00304496
0.00103477
0.000978138
0.00103369
0.00108112
0.00108735
0.00100043
0.000897713
0.000794039
0.000683247
0.000566937
0.000445981
0.000326764
0.000198842
0.000843231
0.00643436
0.00624364
0.00643528
0.00987716
0.0138247
0.00125328
0.00142964
0.00146036
0.00117793
0.000940043
0.000851399
0.000769299
0.000679842
0.000581326
0.000471356
0.000360277
0.000254249
0.000168275
0.000164491
0.000317435
0.000611884
0.0125253
0.0315962
0.0310896
0.000998373
0.0013872
0.00138999
0.00140521
0.00118315
0.000717329
0.000653058
0.000634015
0.000569245
0.000391916
0.000261363
0.000155374
6.06381e-05
7.91041e-07
-6.52971e-06
0.00102291
0.0250428
0.0316709
0.0308705
0.000724368
0.000781409
0.00121774
0.00130697
0.0012055
0.000619018
0.000544606
0.000619995
0.000539653
0.000414373
0.000159853
4.24444e-05
-7.76987e-05
-0.00020196
-0.000346725
-0.00055602
0.00604988
0.0145742
0.00235794
0.000635104
0.000601756
0.000574914
0.000660077
0.000601128
0.00049427
0.000454391
0.000522473
0.000445696
0.00034759
0.000105153
-6.64646e-05
-0.000204809
-0.000365684
-0.000568614
-0.00084814
-0.00129024
-0.0016363
-0.00148516
0.000550826
0.000523268
0.000495914
0.000467165
0.00043315
0.000389049
0.000332384
0.00029668
0.000278979
0.000143452
-2.96922e-05
-0.000160199
-0.000304585
-0.000474103
-0.000680444
-0.000936917
-0.00122865
-0.00143162
-0.00130599
0.00047439
0.000450073
0.000422431
0.000391043
0.000353428
0.00030654
0.000247387
0.0001753
9.12409e-05
-4.19528e-06
-0.000112422
-0.000236107
-0.000377139
-0.000538591
-0.000722723
-0.000925366
-0.00111439
-0.00121474
-0.00109205
0.000406891
0.000384094
0.000356101
0.000322873
0.000282962
0.000234368
0.000175122
0.000104459
2.24773e-05
-7.09229e-05
-0.000176505
-0.000295417
-0.000428013
-0.000573554
-0.000728307
-0.000878595
-0.000987734
-0.00101382
-0.000866151
0.000348461
0.000326023
0.000297464
0.000262861
0.000221354
0.000171626
0.000112364
4.28527e-05
-3.71087e-05
-0.000127661
-0.000229023
-0.000341172
-0.000462944
-0.000591205
-0.000718594
-0.000827596
-0.000883203
-0.000863269
0.00288362
0.000298581
0.000275719
0.00024636
0.000210602
0.000167914
0.000117425
5.82608e-05
-1.01409e-05
-8.79913e-05
-0.000175278
-0.000271738
-0.000376518
-0.000487461
-0.000600259
-0.000706586
-0.000789855
-0.000821259
-0.000785833
0.00689411
0.000256339
0.000232537
0.000202197
0.000165398
0.000121793
7.08079e-05
1.18701e-05
-5.53932e-05
-0.000131072
-0.000214942
-0.000306353
-0.000403912
-0.00050497
-0.000604968
-0.000696327
-0.000766132
-0.000793158
-0.000759183
0.00717197
0.000220649
0.000195605
0.000164185
0.000126429
8.21005e-05
3.08185e-05
-2.77685e-05
-9.38493e-05
-0.000167346
-0.000247814
-0.00033429
-0.000425035
-0.000517174
-0.00060631
-0.000686164
-0.000747949
-0.000777168
-0.000747925
0.00744781
0.000190422
0.000164015
0.0001315
9.28853e-05
4.79977e-05
-3.41209e-06
-6.15327e-05
-0.000126391
-0.000197737
-0.000274916
-0.000356692
-0.000441041
-0.000524889
-0.000603934
-0.000672806
-0.000725483
-0.000752085
-0.000725958
0.00708871
0.000164673
0.000136924
0.000103385
6.40406e-05
1.87612e-05
-3.26145e-05
-9.01581e-05
-0.000153765
-0.000223036
-0.000297123
-0.000374537
-0.000452933
-0.000528873
-0.000597679
-0.000653574
-0.000689884
-0.000696185
-0.000651923
7.96531e-05
0.000142575
0.000113603
7.91813e-05
3.92801e-05
-6.20199e-06
-5.73711e-05
-0.000114224
-0.000176567
-0.000243892
-0.000315198
-0.000388774
-0.000461933
-0.000530715
-0.00058959
-0.000631086
-0.000644621
-0.00061434
-0.000529501
-0.000374529
0.000123451
9.34421e-05
5.83344e-05
1.8095e-05
-2.7365e-05
-7.81285e-05
-0.000134162
-0.000195238
-0.000260799
-0.000329772
-0.00040031
-0.000469471
-0.000532839
-0.000584051
-0.000613877
-0.000607798
-0.000545067
-0.000425392
0.00167229
0.000106752
7.59281e-05
4.0378e-05
6.65973e-08
-4.50998e-05
-9.52157e-05
-0.000150268
-0.000210055
-0.000274061
-0.000341248
-0.000409781
-0.000476675
-0.000537351
-0.000585103
-0.000610049
-0.000596555
-0.000523379
-0.000394931
0.00988692
9.20291e-05
6.06289e-05
2.49186e-05
-1.51472e-05
-5.9691e-05
-0.000108857
-0.000162704
-0.00022113
-0.00028375
-0.000349691
-0.000417314
-0.000483831
-0.000544851
-0.000593856
-0.00062135
-0.000612807
-0.000548614
-0.000429149
0.0101221
7.88929e-05
4.71712e-05
1.16256e-05
-2.78177e-05
-7.13405e-05
-0.000119176
-0.000171505
-0.000228395
-0.000289681
-0.000354786
-0.000422434
-0.000490262
-0.00055436
-0.000608715
-0.000644397
-0.000647944
-0.000599124
-0.000483891
0.010354
6.69905e-05
3.52296e-05
2.30191e-07
-3.81418e-05
-8.01633e-05
-0.000126193
-0.000176579
-0.000231608
-0.000291422
-0.000355847
-0.000424136
-0.00049458
-0.00056404
-0.000627242
-0.000675675
-0.000696364
-0.000665953
-0.000551486
0.0105984
5.59873e-05
2.45255e-05
-9.46542e-06
-4.62292e-05
-8.61768e-05
-0.000129821
-0.000177704
-0.000230369
-0.000288311
-0.000351859
-0.000420954
-0.000494786
-0.000571306
-0.000646216
-0.000711542
-0.00075404
-0.000746249
-0.000633974
0.0108253
4.55649e-05
1.48423e-05
-1.75654e-05
-5.20811e-05
-8.92878e-05
-0.000129865
-0.000174548
-0.000224138
-0.000279503
-0.000341525
-0.000410965
-0.000488155
-0.000572489
-0.000661101
-0.000746859
-0.000811534
-0.000828435
-0.000719558
0.0084837
3.54352e-05
6.05694e-06
-2.40486e-05
-5.55706e-05
-8.929e-05
-0.000126036
-0.000166704
-0.000212307
-0.000264048
-0.00032336
-0.000391901
-0.000471417
-0.000563044
-0.000666352
-0.000775788
-0.000855734
-0.000897097
-0.000790147
0.00199837
2.53858e-05
-1.79993e-06
-2.8724e-05
-5.6425e-05
-8.58736e-05
-0.000117993
-0.000153754
-0.000194292
-0.000241041
-0.000295892
-0.00036137
-0.000440734
-0.000537577
-0.000654913
-0.000792001
-0.000902465
-0.000987225
-0.000877253
0.00232719
1.54141e-05
-8.38243e-06
-3.1095e-05
-5.41245e-05
-7.85529e-05
-0.000105286
-0.000135245
-0.000169534
-0.000209633
-0.000257664
-0.000316765
-0.000391563
-0.000488488
-0.000615752
-0.000782996
-0.000964235
-0.00113698
-0.00103482
0.00399145
6.08422e-06
-1.2679e-05
-3.00659e-05
-4.76465e-05
-6.64233e-05
-8.71171e-05
-0.000110435
-0.000137255
-0.00016883
-0.000207105
-0.000255242
-0.000318475
-0.000405207
-0.000529032
-0.000716141
-0.00100722
-0.00136107
-0.00132423
0.00374908
-1.22056e-06
-1.32629e-05
-2.45255e-05
-3.62383e-05
-4.90507e-05
-6.33243e-05
-7.93989e-05
-9.773e-05
-0.000119038
-0.000144563
-0.000176558
-0.000219247
-0.000280398
-0.000375111
-0.000544064
-0.00090167
-0.00155115
-0.00175795
0.00308289
-5.45853e-06
-1.19987e-05
-1.81998e-05
-2.50168e-05
-3.26607e-05
-4.11359e-05
-5.04128e-05
-6.04854e-05
-7.14282e-05
-8.35076e-05
-9.745e-05
-0.00011512
-0.000141074
-0.000186184
-0.000282252
-0.000544383
-0.0012727
-0.00208652
0.00158941
)
;

boundaryField
{
    leftWall
    {
        type            fixedFluxPressure;
        gradient        uniform 0;
        value           nonuniform List<scalar> 
50
(
764.142
764.131
764.122
764.117
764.117
764.123
764.136
764.155
764.194
755.994
307.936
0.497489
0.738289
0.536851
0.0208954
-0.00407518
-0.00142134
-0.00209528
-0.00138571
-0.00113819
-0.000972887
-0.000825459
-0.000676225
-0.000549991
-0.000427755
0.000232932
0.000462683
0.00057354
0.000678448
0.000751772
0.000785069
0.000853912
0.00090559
0.000879564
8.87539e-05
-1.4636e-05
1.5629e-05
-2.48322e-06
1.2116e-05
6.38292e-05
8.26901e-05
7.53172e-05
8.38426e-05
0.000109686
0.000165508
0.000264719
0.000424111
0.000557998
0.000702923
0.000589416
)
;
    }
    rightWall
    {
        type            fixedFluxPressure;
        gradient        uniform 0;
        value           nonuniform List<scalar> 
50
(
762.126
762.062
761.763
761.988
762.467
762.462
762.475
762.523
762.364
748.43
314.014
0.433051
0.808426
0.395546
0.0142194
0.00245658
0.00274318
0.00272534
0.00269801
0.00275433
0.00290824
0.00304496
0.0138247
0.0310896
0.0308705
0.00235794
-0.00148516
-0.00130599
-0.00109205
-0.000866151
0.00288362
0.00689411
0.00717197
0.00744781
0.00708871
7.96531e-05
-0.000374529
0.00167229
0.00988692
0.0101221
0.010354
0.0105984
0.0108253
0.0084837
0.00199837
0.00232719
0.00399145
0.00374908
0.00308289
0.00158941
)
;
    }
    lowerWall
    {
        type            fixedFluxPressure;
        gradient        uniform 0;
        value           nonuniform List<scalar> 
62
(
764.142
764.172
764.167
764.118
764.02
763.874
763.68
763.439
763.156
762.835
762.483
762.107
761.712
761.301
760.88
760.46
760.072
759.762
759.486
759.286
759.306
759.364
759.427
759.427
759.423
759.423
759.432
759.444
759.434
759.497
759.566
759.42
759.434
759.466
759.482
759.34
759.008
758.727
758.617
758.664
760.446
760.49
760.347
759.34
759.605
759.898
760.099
760.259
760.333
760.357
760.475
760.584
760.655
760.756
760.852
761.079
761.618
761.82
762.023
762.105
762.117
762.126
)
;
    }
    atmosphere
    {
        type            totalPressure;
        rho             rho;
        psi             none;
        gamma           1;
        p0              uniform 0;
        value           nonuniform List<scalar> 
46
(
-7.36006e-05
0
0
0
0
0
0
0
0
0
0
0
0
0
0
0
0
0
0
0
0
-1.11183e-08
-5.9922e-07
-1.59925e-06
-2.48737e-06
-3.55736e-06
-4.80017e-06
-7.26074e-06
-1.14266e-05
-1.63552e-05
-2.19452e-05
-2.80827e-05
-3.46378e-05
-4.14628e-05
-4.83893e-05
-5.52255e-05
-6.17524e-05
-6.7718e-05
-7.28256e-05
-7.67067e-05
-7.88534e-05
-7.84401e-05
-7.38089e-05
-6.11089e-05
-2.86466e-05
0
)
;
    }
    defaultFaces
    {
        type            empty;
    }
}


// ************************************************************************* //
