/*--------------------------------*- C++ -*----------------------------------*\
  =========                 |
  \\      /  F ield         | OpenFOAM: The Open Source CFD Toolbox
   \\    /   O peration     | Website:  https://openfoam.org
    \\  /    A nd           | Version:  9
     \\/     M anipulation  |
\*---------------------------------------------------------------------------*/
FoamFile
{
    format      ascii;
    class       volScalarField;
    location    "450";
    object      p;
}
// * * * * * * * * * * * * * * * * * * * * * * * * * * * * * * * * * * * * * //

dimensions      [0 2 -2 0 0 0 0];

internalField   nonuniform List<scalar> 
10720
(
-1220.42
-1291.82
-1294.23
-1269.72
-1194.29
-1051.99
-875.28
-679.11
-472.64
-270.545
-79.1237
96.8589
254.575
393.008
511.893
611.213
691.808
754.607
801.358
833.125
850.301
855.608
851.698
839.571
821.045
797.073
768.132
734.998
698.168
657.933
614.475
567.722
517.337
462.355
401.405
331.926
249.625
144.396
-7.71955
-1155.06
-1058.28
-975.297
-913.214
-888.913
-899.116
-911.774
-909.845
-905.705
-904.791
-905.628
-907.906
-911.144
-915.062
-919.461
-924.055
-928.717
-933.3
-937.766
-942.013
-946.058
-949.853
-953.183
-955.318
-955.712
-954.353
-951.001
-945.24
-936.436
-923.913
-906.738
-883.601
-853.058
-813.714
-768.19
-707.839
-666.429
-562.763
-599.344
-797.903
-825.726
-826.204
-788.496
-729.234
-646.643
-538.651
-410.214
-267.227
-117.793
31.2008
174.29
307.332
427.614
533.445
623.759
698.297
757.305
801.742
832.254
849.159
854.621
850.892
839.15
821.027
797.438
768.877
736.062
699.487
659.439
616.1
569.407
519.036
464.042
403.081
333.63
251.455
146.504
-2.65553
-767.92
-741.508
-738.279
-772.662
-841.398
-894.591
-894.174
-896.167
-898.322
-899.052
-901.406
-904.602
-908.501
-912.859
-917.522
-922.303
-927.074
-931.723
-936.192
-940.4
-944.332
-947.946
-951.051
-953.096
-953.576
-952.346
-949.156
-943.574
-934.974
-922.663
-905.695
-882.752
-852.428
-813.208
-767.902
-707.586
-667.708
-568.783
-604.519
-770.114
-758.257
-733.891
-689.017
-620.954
-532.934
-427.992
-309.131
-180.63
-47.2909
86.0218
215.11
336.426
447.327
545.901
630.899
701.684
758.24
801.101
830.665
847.298
852.933
849.543
838.247
820.509
797.253
769.004
736.439
700.06
660.163
616.932
570.312
519.987
465.033
404.12
334.758
252.779
148.236
2.59345
-773.4
-773.81
-772.407
-778.391
-800.516
-837.514
-870.169
-892.673
-892.582
-893.669
-897.771
-902.048
-906.643
-911.477
-916.416
-921.359
-926.216
-930.913
-935.393
-939.597
-943.479
-946.977
-949.899
-951.825
-952.321
-951.154
-948.054
-942.576
-934.095
-921.92
-905.096
-882.289
-852.158
-813.008
-767.943
-707.245
-668.097
-573.239
-610.786
-606.145
-580.422
-548.289
-504.822
-448.147
-376.189
-289.663
-191.127
-83.4029
29.9969
145.103
258.458
366.765
467.345
558.05
637.31
704.14
758.16
799.494
828.265
844.738
850.611
847.623
836.825
819.554
796.721
768.868
736.635
700.528
660.845
617.77
571.257
520.998
466.098
405.235
335.965
254.192
150.175
7.867
-628.427
-651.355
-674.898
-699.979
-728.698
-765.428
-817.993
-869.992
-888.986
-891.173
-894.783
-900.452
-905.662
-910.805
-915.901
-920.908
-925.769
-930.444
-934.884
-939.041
-942.858
-946.258
-949.044
-950.872
-951.36
-950.233
-947.201
-941.807
-933.428
-921.372
-904.685
-882.006
-852.07
-812.988
-768.235
-707.183
-668.416
-575.631
-615.971
-536.363
-503.236
-461.575
-410.328
-350.012
-279.035
-197.917
-108.308
-11.7497
89.3518
192.136
293.985
392.144
484.224
568.163
642.316
705.508
757.124
796.993
825.038
841.414
847.592
845.087
834.872
818.159
795.828
768.436
736.594
700.806
661.374
618.488
572.109
521.941
467.117
406.332
337.18
255.664
152.281
13.2973
-563.699
-589.105
-614.967
-643.857
-676.784
-714.25
-761.967
-820.792
-868.08
-889.188
-893.917
-899.26
-905.456
-910.869
-916.01
-920.989
-925.783
-930.373
-934.718
-938.778
-942.488
-945.766
-948.416
-950.145
-950.601
-949.484
-946.494
-941.165
-932.874
-920.932
-904.381
-881.827
-852.083
-813.072
-768.671
-707.375
-669.003
-576.799
-619.415
-451.331
-413.739
-369.879
-318.372
-260.173
-193.313
-118.447
-37.0865
49.897
140.642
232.997
324.963
414.248
498.732
576.512
645.934
705.706
755.046
793.54
820.934
837.277
843.825
841.875
832.319
816.252
794.51
767.654
736.275
700.867
661.743
619.092
572.888
522.845
468.127
407.446
338.445
257.23
154.595
18.9383
-485.561
-519.081
-554.306
-591.875
-631.548
-673.502
-718.026
-771.958
-831.299
-876.425
-894.27
-899.037
-905.488
-911.523
-916.683
-921.556
-926.223
-930.677
-934.885
-938.81
-942.384
-945.516
-948.02
-949.635
-950.035
-948.902
-945.928
-940.645
-932.428
-920.592
-904.173
-881.741
-852.189
-813.255
-769.22
-707.75
-669.881
-577.474
-620.845
-391.093
-350.013
-302.792
-249.338
-191.214
-126.315
-55.38
20.3021
100.284
183.135
267.254
351.143
432.931
510.814
583.095
648.183
704.773
751.953
789.145
815.945
832.309
839.277
837.948
829.124
813.787
792.719
766.479
735.634
700.674
661.913
619.549
573.561
523.681
469.102
408.556
339.74
258.878
157.1
24.775
-428.651
-465.207
-503.895
-545.429
-588.862
-635.288
-682.631
-733.277
-792.235
-851.027
-888.183
-900.163
-905.536
-912.338
-917.781
-922.527
-927.027
-931.308
-935.347
-939.11
-942.525
-945.497
-947.848
-949.338
-949.659
-948.486
-945.508
-940.253
-932.097
-920.357
-904.064
-881.753
-852.396
-813.557
-769.902
-708.309
-670.974
-578.059
-620.343
-335.752
-292.897
-244.412
-190.487
-133.227
-70.3729
-2.84056
68.1455
142.424
218.837
296.132
373.214
448.563
520.657
588.004
649.131
702.747
747.878
783.835
810.087
826.505
833.935
833.278
825.249
810.719
790.408
764.864
734.631
700.188
661.854
619.83
574.108
524.432
470.028
409.655
341.063
260.61
159.802
30.7929
-375.736
-415.111
-457.267
-502.39
-549.042
-598.834
-650.52
-701.915
-757.371
-819.427
-871.827
-898.157
-906.449
-912.698
-919.015
-923.811
-928.143
-932.233
-936.08
-939.66
-942.898
-945.695
-947.88
-949.232
-949.453
-948.22
-945.218
-939.974
-931.867
-920.214
-904.043
-881.855
-852.702
-813.977
-770.708
-709.035
-672.216
-578.644
-618.249
-289.753
-245.583
-195.99
-141.764
-85.2097
-24.0731
40.6957
107.893
177.529
248.65
320.272
391.606
461.404
528.408
591.333
648.835
699.675
742.869
777.65
803.384
819.873
827.795
827.849
820.669
807.015
787.542
762.772
733.228
699.374
661.533
619.909
574.504
525.077
470.891
410.729
342.406
262.42
162.688
36.9828
-331.31
-372.299
-416.515
-464.103
-513.211
-565.252
-619.897
-674.087
-727.778
-787.566
-847.613
-888.892
-906.496
-913.198
-919.804
-925.219
-929.512
-933.421
-937.069
-940.453
-943.501
-946.113
-948.122
-949.321
-949.423
-948.108
-945.061
-939.814
-931.742
-920.165
-904.113
-882.053
-853.114
-814.526
-771.658
-709.952
-673.562
-579.27
-615.045
-249.544
-204.646
-154.564
-100.403
-44.7203
14.8413
77.1915
141.147
206.885
273.545
340.358
406.759
471.728
534.243
593.198
647.376
695.632
736.993
770.645
795.869
812.436
820.861
821.656
815.364
802.646
784.083
760.163
731.384
698.195
660.915
619.755
574.724
525.597
471.673
411.768
343.762
264.306
165.757
43.3355
-292.1
-334.227
-380.062
-429.54
-480.617
-534.554
-590.993
-647.671
-702.232
-758.715
-819.844
-871.961
-902.197
-913.818
-920.132
-926.389
-931.014
-934.824
-938.288
-941.478
-944.331
-946.748
-948.569
-949.596
-949.557
-948.139
-945.028
-939.76
-931.71
-920.2
-904.263
-882.34
-853.625
-815.198
-772.726
-711.033
-674.986
-579.95
-611.075
-214.787
-169.46
-119.145
-65.2415
-10.441
47.6303
107.836
169.013
231.396
294.236
356.919
419.056
479.803
538.327
593.696
644.831
690.677
730.298
762.858
787.58
804.22
813.148
814.7
809.323
797.591
780.001
757.005
729.066
696.617
659.97
619.339
574.742
525.971
472.359
412.758
345.122
266.261
168.996
49.8371
-257.965
-300.785
-347.622
-398.435
-450.904
-506.382
-564.174
-622.312
-678.698
-733.621
-792.2
-849.471
-891.614
-912.341
-920.519
-926.971
-932.399
-936.353
-939.697
-942.716
-945.384
-947.606
-949.232
-950.074
-949.874
-948.329
-945.133
-939.826
-931.783
-920.331
-904.509
-882.731
-854.25
-816.008
-773.941
-712.316
-676.476
-580.755
-606.719
-184.423
-138.917
-88.6292
-35.1362
18.719
75.3989
133.655
192.356
251.816
311.335
370.42
428.822
485.841
540.812
592.941
641.278
684.873
722.846
754.344
778.564
795.264
804.682
806.988
802.544
791.831
775.272
753.264
726.239
694.604
658.663
618.631
574.532
526.174
472.928
413.686
346.476
268.281
172.401
56.4799
-227.947
-271.111
-318.62
-370.353
-423.822
-480.462
-539.381
-598.363
-656.035
-711.28
-766.935
-824.455
-874.865
-906.461
-920.044
-927.197
-933.269
-937.825
-941.22
-944.131
-946.642
-948.681
-950.108
-950.751
-950.367
-948.673
-945.369
-940.003
-931.955
-920.551
-904.844
-883.221
-854.983
-816.951
-775.275
-713.769
-678.026
-581.701
-602.176
-157.851
-112.364
-62.2597
-9.29753
43.6145
98.9324
155.404
211.892
268.746
325.339
381.255
436.359
490.064
541.842
591.029
636.794
678.286
714.689
745.145
768.863
785.61
795.49
798.538
795.028
785.357
769.873
748.913
722.87
692.122
656.962
617.598
574.065
526.184
473.362
414.535
347.814
270.354
175.955
63.242
-201.491
-244.809
-292.658
-344.995
-399.135
-456.571
-516.385
-575.99
-634.217
-690.343
-744.468
-799.639
-853.633
-895.027
-916.945
-926.915
-933.563
-938.914
-942.723
-945.662
-948.075
-949.962
-951.203
-951.643
-951.06
-949.192
-945.758
-940.315
-932.248
-920.884
-905.293
-883.831
-855.846
-818.048
-776.768
-715.443
-679.64
-582.874
-597.719
-134.506
-89.1861
-39.4107
12.9437
64.8696
118.902
173.711
228.166
282.688
336.667
389.76
441.919
492.66
541.557
588.067
631.461
670.985
705.889
735.316
758.531
775.304
785.606
789.369
786.783
778.167
763.79
743.928
718.93
689.139
654.831
616.21
573.312
525.975
473.64
415.29
349.124
272.477
179.648
70.1218
-178.125
-221.413
-269.398
-322.035
-376.598
-434.559
-494.974
-555.083
-613.517
-670.177
-724.052
-776.721
-830.357
-878.245
-909.625
-925.132
-933.313
-939.408
-943.968
-947.2
-949.628
-951.418
-952.499
-952.74
-951.945
-949.884
-946.296
-940.758
-932.658
-921.326
-905.848
-884.559
-856.834
-819.297
-778.387
-717.301
-681.325
-584.271
-593.452
-113.967
-68.94
-19.582
32.0873
83.0435
135.808
189.051
241.652
294.039
345.653
396.209
445.722
493.791
540.081
584.137
625.335
663.017
696.487
724.903
747.617
764.388
775.068
779.51
777.825
770.26
757.011
738.29
714.392
685.624
652.24
614.433
572.244
525.52
473.739
415.933
350.392
274.633
183.46
77.0843
-157.449
-200.585
-248.49
-301.232
-355.982
-414.232
-475.021
-535.471
-594.006
-650.764
-704.77
-755.954
-807.306
-857.576
-897.233
-920.512
-932.081
-939.31
-944.718
-948.567
-951.211
-953
-953.972
-954.041
-953.038
-950.77
-947.011
-941.359
-933.214
-921.905
-906.539
-885.431
-857.972
-820.724
-780.181
-719.407
-683.096
-585.984
-589.575
-95.8724
-51.2175
-2.36923
48.569
98.5302
150.086
201.842
252.704
303.141
352.601
400.855
447.971
493.611
537.521
579.324
618.489
654.444
686.539
713.959
736.171
752.909
763.918
768.992
768.175
761.645
749.534
731.982
709.232
681.548
649.157
612.238
570.83
524.792
473.636
416.444
351.604
276.816
187.382
84.1293
-139.111
-181.989
-229.702
-282.336
-337.087
-395.458
-456.405
-517.02
-575.581
-632.212
-686.177
-736.746
-785.813
-835.294
-880.088
-911.784
-928.993
-938.376
-944.861
-949.536
-952.672
-954.622
-955.567
-955.506
-954.314
-951.838
-947.893
-942.11
-933.908
-922.614
-907.357
-886.44
-859.255
-822.322
-782.114
-721.716
-684.961
-587.995
-586.117
-79.918
-35.7158
12.5678
62.7255
111.717
162.066
212.412
261.658
310.277
357.758
403.907
448.83
492.256
533.982
573.709
610.984
645.315
676.081
702.532
724.243
740.91
752.195
757.849
757.856
752.337
741.359
724.996
703.433
676.887
645.552
609.592
569.04
523.763
473.305
416.803
352.741
279.005
191.382
91.2177
-122.817
-165.384
-212.783
-265.178
-319.756
-378.065
-439.022
-499.637
-558.127
-614.533
-668.237
-718.459
-766.063
-813.38
-859.684
-898.33
-922.87
-936.095
-944.212
-949.94
-953.802
-956.15
-957.206
-957.091
-955.755
-953.09
-948.959
-943.038
-934.769
-923.481
-908.334
-887.616
-860.712
-824.123
-784.242
-724.3
-686.945
-590.395
-583.219
-65.8493
-22.145
25.505
74.8676
122.86
172.06
221.046
268.754
315.684
361.333
405.542
448.458
489.847
529.564
567.367
602.882
635.681
665.158
690.674
711.885
728.439
739.945
746.122
746.902
742.357
732.495
717.328
696.98
671.618
641.401
606.467
566.845
522.405
472.722
416.988
353.787
281.189
195.45
98.3472
-108.341
-150.532
-197.545
-249.552
-303.828
-361.943
-422.756
-483.224
-541.542
-597.657
-650.978
-700.78
-747.573
-792.886
-838.1
-880.619
-912.676
-931.62
-942.44
-949.594
-954.418
-957.388
-958.758
-958.708
-957.294
-954.479
-950.181
-944.122
-935.781
-924.496
-909.456
-888.95
-862.331
-826.117
-786.524
-727.11
-689.052
-593.152
-580.83
-53.4415
-10.2966
36.6938
85.221
132.244
180.288
227.973
274.233
319.569
363.511
405.922
446.981
486.489
524.343
560.36
594.233
625.575
653.812
678.431
699.141
715.539
727.21
733.847
735.344
731.725
722.954
708.979
689.865
665.723
636.676
602.833
564.213
520.687
471.86
416.975
354.719
283.342
199.552
105.468
-95.4698
-137.241
-183.777
-235.311
-289.16
-346.946
-407.502
-467.712
-525.749
-581.511
-634.377
-683.67
-729.858
-773.836
-817.042
-860.154
-897.944
-923.861
-938.958
-948.211
-954.326
-958.143
-960.042
-960.241
-958.862
-955.967
-951.544
-945.371
-936.968
-925.687
-910.756
-890.474
-864.147
-828.336
-789.02
-730.22
-691.316
-596.351
-579.044
-42.5075
0.049424
46.3326
94.0141
140.044
186.984
233.403
278.269
322.111
364.451
405.184
444.517
482.276
518.398
552.753
585.089
615.042
642.091
665.851
686.052
702.255
714.036
721.07
723.221
720.475
712.758
699.958
682.084
659.191
631.36
598.669
561.12
518.584
470.692
416.741
355.517
285.452
203.671
112.58
-84.0235
-125.316
-171.336
-222.297
-275.625
-332.976
-393.159
-453.012
-510.676
-566.026
-618.389
-667.112
-712.686
-755.772
-797.258
-838.903
-879.342
-911.91
-932.866
-945.355
-953.24
-958.219
-960.853
-961.505
-960.33
-957.46
-952.982
-946.737
-938.297
-927.031
-912.215
-892.169
-866.142
-830.762
-791.69
-733.57
-693.739
-599.944
-577.793
-32.8777
9.04565
54.6011
101.412
146.479
192.304
237.502
281.05
323.461
364.292
403.456
441.174
477.304
511.809
544.61
575.497
604.117
630.033
652.972
672.656
688.627
700.463
707.832
710.568
708.638
701.927
690.278
673.638
652.013
625.435
593.948
557.536
516.067
469.191
416.259
356.157
287.485
207.767
119.628
-73.8408
-114.604
-160.059
-210.42
-263.121
-319.924
-379.648
-439.061
-496.271
-551.148
-602.968
-651.076
-696.006
-738.327
-778.626
-818.319
-858.503
-895.582
-923.14
-940.317
-950.769
-957.322
-960.994
-962.305
-961.541
-958.861
-954.435
-948.195
-939.768
-928.548
-913.859
-894.069
-868.353
-833.432
-794.595
-737.234
-696.359
-604.004
-577.16
-24.4111
16.8595
61.6522
107.586
151.669
196.426
240.432
282.695
323.75
363.154
400.84
437.046
471.645
504.637
535.985
565.497
592.842
617.688
639.837
658.993
674.697
686.536
694.176
697.432
696.252
690.493
679.957
664.538
644.187
618.891
588.655
553.441
513.11
467.332
415.507
356.615
289.427
211.821
126.604
-64.7869
-104.971
-149.852
-199.552
-251.554
-307.726
-366.889
-425.781
-482.47
-536.817
-588.061
-635.518
-679.772
-721.341
-760.725
-798.886
-837.309
-875.831
-909.096
-932.201
-946.379
-955.084
-960.172
-962.424
-962.283
-960.004
-955.787
-949.657
-941.317
-930.191
-915.654
-896.144
-870.753
-836.317
-797.688
-741.147
-699.175
-608.47
-577.074
-16.9797
23.605
67.6228
112.661
155.79
199.463
242.313
283.353
323.101
361.146
397.434
432.213
465.373
496.944
526.924
555.129
581.256
605.094
626.478
645.095
660.5
672.293
680.142
683.852
683.353
678.487
669.019
654.796
635.715
611.719
582.772
548.813
509.689
465.088
414.454
356.862
291.24
215.791
133.452
-56.737
-96.322
-140.588
-189.599
-240.83
-296.283
-354.815
-413.111
-469.213
-522.98
-573.616
-620.396
-663.935
-704.758
-743.282
-780.353
-816.943
-854.424
-890.868
-920.074
-939.294
-951.048
-958.038
-961.604
-962.362
-960.71
-956.917
-951.051
-942.907
-931.954
-917.611
-898.416
-873.377
-839.454
-801.031
-745.374
-702.227
-613.399
-577.613
-10.4734
29.415
72.6293
116.77
158.924
201.557
243.273
283.113
321.617
358.368
393.329
426.754
458.554
488.786
517.472
544.427
569.403
592.286
612.926
630.995
646.073
657.775
665.774
669.871
669.984
665.947
657.495
644.432
626.609
603.92
576.294
543.636
505.785
462.436
413.079
356.877
292.904
219.654
140.162
-49.59
-88.5422
-132.179
-180.445
-230.865
-285.54
-343.356
-400.985
-456.453
-509.583
-559.579
-605.668
-648.457
-688.523
-726.208
-762.341
-797.598
-833.113
-869.778
-903.583
-928.661
-944.603
-954.184
-959.507
-961.533
-960.779
-957.639
-952.241
-944.437
-933.756
-919.667
-900.833
-876.179
-842.803
-804.571
-749.843
-705.513
-618.712
-578.708
-4.79043
34.373
76.7788
120.007
161.213
202.792
243.402
282.095
319.389
354.9
388.595
420.735
451.248
480.217
507.673
533.429
557.319
579.3
599.211
616.724
631.451
643.019
651.113
655.529
656.186
652.909
645.416
633.469
616.881
595.499
569.211
537.896
501.375
459.351
411.354
356.626
294.381
223.363
146.675
-43.2417
-81.548
-124.513
-172.017
-221.575
-275.405
-332.453
-389.365
-444.141
-496.591
-545.906
-591.293
-633.317
-672.59
-709.458
-744.676
-778.919
-812.762
-847.726
-883.35
-913.855
-935.065
-948.17
-955.798
-959.506
-960.019
-957.796
-953.094
-945.822
-935.555
-921.806
-903.394
-879.179
-846.395
-808.366
-754.608
-709.071
-624.446
-580.421
0.157616
38.5903
80.1631
122.481
162.72
203.285
242.807
280.365
316.503
350.823
383.309
414.222
443.512
471.283
497.563
522.177
545.044
566.164
585.358
602.314
616.666
628.063
636.198
640.873
642.004
639.418
632.819
621.939
606.551
586.465
561.528
531.587
496.448
455.818
409.257
356.088
295.646
226.893
152.979
-37.611
-75.2439
-117.518
-164.217
-212.899
-265.834
-322.043
-378.186
-432.226
-483.955
-532.554
-577.223
-618.487
-656.943
-692.993
-727.31
-760.598
-793.293
-826.238
-861.003
-894.922
-921.759
-939.459
-950.124
-955.962
-958.158
-957.202
-953.44
-946.91
-937.229
-923.934
-906.019
-882.307
-850.162
-812.363
-759.593
-712.894
-630.511
-582.684
4.45176
42.1311
82.8693
124.265
163.563
203.097
241.555
278.026
313.031
346.203
377.529
407.271
435.399
462.028
487.18
510.707
532.611
552.904
571.394
587.789
601.748
612.939
621.067
625.94
627.478
625.515
619.744
609.873
595.646
576.834
553.248
524.706
490.991
451.813
406.765
355.231
296.662
230.202
159.015
-32.6137
-69.5611
-111.097
-157
-204.788
-256.763
-312.081
-367.405
-420.665
-471.636
-519.491
-563.419
-603.924
-641.57
-676.766
-710.229
-742.55
-774.302
-805.814
-838.461
-872.952
-904.436
-927.536
-942.125
-950.62
-954.919
-955.65
-953.142
-947.579
-938.682
-925.993
-908.674
-885.554
-854.115
-816.596
-764.838
-717.014
-636.928
-585.547
8.16441
45.0866
84.9711
125.445
163.785
202.326
239.732
275.127
309.044
341.107
371.318
399.94
426.956
452.495
476.559
499.055
520.05
539.546
557.344
573.177
586.727
597.68
605.76
610.774
612.655
611.245
606.233
597.312
584.197
566.63
544.386
517.254
485
447.328
403.858
354.033
297.404
233.26
164.769
-28.1841
-64.4258
-105.211
-150.294
-197.19
-248.162
-302.521
-356.978
-409.417
-459.594
-506.679
-549.85
-589.593
-626.429
-660.779
-693.383
-724.795
-755.574
-786.141
-816.912
-849.764
-883.586
-912.061
-931.49
-943.253
-950.036
-952.879
-952.009
-947.674
-939.756
-927.845
-911.236
-888.814
-858.166
-820.99
-770.269
-721.414
-643.587
-588.935
11.3595
47.5066
86.538
126.08
163.489
201.019
237.395
271.753
304.599
335.591
364.724
392.27
418.225
442.717
465.74
487.26
507.389
526.114
543.234
558.503
571.631
582.32
590.307
595.414
597.576
596.651
592.33
584.294
572.239
555.878
534.958
509.24
478.47
442.35
400.516
352.466
297.831
236.024
170.187
-24.2567
-59.7839
-99.7866
-144.058
-190.036
-239.963
-293.327
-346.87
-398.448
-447.797
-494.087
-536.487
-575.458
-611.51
-645.017
-676.759
-707.306
-737.118
-766.807
-796.466
-827.099
-860.538
-893.057
-917.896
-933.648
-943.304
-948.649
-949.836
-947.063
-940.342
-929.386
-913.621
-892.032
-862.283
-825.555
-775.903
-726.11
-650.496
-592.875
14.0975
49.4701
87.6286
126.245
162.704
199.258
234.615
267.939
299.754
329.704
357.798
384.308
409.245
432.73
454.757
475.353
494.655
512.629
529.084
543.793
556.487
566.887
574.747
579.897
582.284
581.78
578.081
570.864
559.809
544.611
524.989
500.679
471.409
436.874
396.729
350.511
297.923
238.467
175.251
-20.7775
-55.5733
-94.7912
-138.221
-183.271
-232.136
-284.452
-337.038
-387.721
-436.211
-481.685
-523.299
-561.496
-596.762
-629.464
-660.353
-690.046
-718.956
-747.686
-776.624
-805.732
-837.087
-871.195
-901.19
-921.636
-934.565
-942.733
-946.381
-945.538
-940.286
-930.466
-915.668
-895.047
-866.332
-830.187
-781.641
-731.077
-657.543
-597.288
16.4319
51.0119
88.3044
125.986
161.52
197.08
231.436
263.763
294.56
323.499
350.585
376.097
400.055
422.566
443.642
463.365
481.872
499.115
514.915
529.067
541.319
551.41
559.11
564.261
566.82
566.673
563.531
557.065
546.951
532.863
514.505
491.587
463.823
430.9
392.483
348.144
297.644
240.549
179.913
-17.6908
-51.7505
-90.1575
-132.746
-176.844
-224.623
-275.866
-327.458
-377.211
-424.813
-469.444
-510.261
-547.675
-582.165
-614.078
-644.144
-672.986
-701.054
-728.847
-756.984
-785.38
-814.63
-847.776
-881.465
-907.033
-923.715
-934.963
-941.421
-942.894
-939.426
-930.972
-917.274
-897.743
-870.216
-834.831
-787.452
-736.312
-664.717
-602.181
18.4117
52.2026
88.6115
125.362
159.956
194.558
227.92
259.255
289.068
317.021
343.131
367.68
390.693
412.26
432.427
451.322
469.064
485.594
500.752
514.35
526.153
535.919
543.43
548.543
551.224
551.378
548.727
542.947
533.708
520.678
503.541
481.991
455.728
424.431
387.773
345.353
296.974
242.246
184.161
-14.9518
-48.2622
-85.8587
-127.571
-170.715
-217.396
-267.528
-318.091
-366.883
-413.571
-457.341
-497.345
-533.975
-567.683
-598.823
-628.097
-656.108
-683.353
-710.292
-737.499
-765.384
-793.528
-824.359
-859.293
-889.707
-910.667
-925.213
-934.734
-938.882
-937.533
-930.714
-918.283
-899.934
-873.739
-839.318
-793.21
-741.742
-671.906
-607.456
20.0804
53.0679
88.6001
124.414
158.092
191.716
224.103
254.476
283.315
310.308
335.474
359.093
381.192
401.848
421.145
439.246
456.248
472.086
486.615
499.662
511.013
520.438
527.736
532.777
535.537
535.936
533.715
528.554
520.127
508.095
492.132
471.919
447.142
417.475
382.595
342.12
295.886
243.523
187.95
-12.5137
-45.0701
-81.8328
-122.672
-164.84
-210.412
-259.412
-308.908
-356.713
-402.464
-445.35
-484.527
-520.365
-553.301
-583.668
-612.171
-639.383
-665.807
-691.951
-718.253
-745.4
-773.203
-802.033
-835.77
-869.679
-895.26
-913.387
-926.134
-933.256
-934.373
-929.488
-918.55
-901.488
-876.752
-843.509
-798.815
-747.294
-679.084
-613.09
21.4808
53.669
88.3087
123.193
155.939
188.619
220.038
249.451
277.345
303.404
327.652
350.371
371.584
391.36
409.823
427.159
443.446
458.611
472.523
485.026
495.921
504.994
512.058
516.995
519.794
520.392
518.541
513.937
506.257
495.163
480.321
461.405
438.09
410.047
376.953
338.44
294.363
244.361
191.268
-10.3406
-42.1311
-78.0615
-117.986
-159.191
-203.665
-251.484
-299.88
-346.67
-391.46
-433.439
-471.774
-506.818
-538.978
-568.584
-596.327
-622.768
-648.387
-673.745
-699.239
-725.451
-752.935
-780.901
-812.193
-847.345
-877.371
-899.386
-915.455
-925.75
-929.655
-927.023
-917.848
-902.21
-879.048
-847.185
-804.061
-752.827
-686.132
-618.973
22.6474
54.0238
87.7809
121.73
153.569
185.288
215.756
244.237
271.198
296.341
319.697
341.543
361.896
380.824
398.488
415.088
430.679
445.189
458.497
470.462
480.899
489.611
496.425
501.232
504.034
504.783
503.251
499.143
492.147
481.927
468.151
450.486
428.601
402.164
370.852
334.306
292.389
244.735
194.085
-8.39302
-39.4145
-74.4926
-113.501
-153.738
-197.113
-243.73
-290.989
-336.735
-380.536
-421.588
-459.067
-493.305
-524.691
-553.544
-580.528
-606.219
-631.057
-655.622
-680.356
-705.668
-732.428
-760.268
-789.508
-823.563
-856.924
-883.055
-902.545
-916.118
-923.082
-923.032
-915.926
-901.92
-880.455
-850.177
-808.775
-758.199
-692.972
-625.046
23.617
54.1866
87.0483
120.069
150.986
181.778
211.299
238.852
264.906
289.155
311.64
332.637
352.153
370.266
387.169
403.057
417.969
431.839
444.556
455.989
465.97
474.313
480.861
485.516
488.291
489.152
487.888
484.22
477.845
468.438
455.669
439.203
418.709
393.849
364.305
329.719
289.955
244.631
196.39
-6.64165
-36.8855
-71.1144
-109.177
-148.457
-190.738
-236.119
-282.207
-326.882
-369.671
-409.773
-446.381
-479.799
-510.415
-538.508
-564.754
-589.687
-613.778
-637.542
-661.521
-686.024
-711.803
-739.432
-767.797
-799.491
-834.148
-864.215
-887.259
-904.122
-914.33
-917.175
-912.466
-900.356
-880.711
-852.241
-812.727
-763.185
-699.427
-631.171
24.4158
54.1695
86.147
118.236
148.257
178.104
206.696
233.348
258.5
281.875
303.51
323.68
342.382
359.712
375.889
391.087
405.337
418.581
430.718
441.629
451.153
459.123
465.394
469.878
472.599
473.536
472.495
469.213
463.401
454.745
442.921
427.6
408.449
385.131
357.327
324.682
287.053
244.035
198.164
-5.05389
-34.5198
-67.8827
-105.008
-143.317
-184.49
-228.631
-273.522
-317.097
-358.848
-397.977
-433.691
-466.287
-496.112
-523.459
-548.959
-573.152
-596.489
-619.481
-642.665
-666.427
-691.24
-718.162
-746.383
-776.008
-809.74
-842.754
-869.426
-889.555
-903.085
-909.093
-907.122
-897.234
-879.555
-853.132
-815.712
-767.567
-705.356
-637.248
25.0754
54.0207
85.102
116.269
145.381
174.317
201.986
227.735
252.011
274.531
295.338
314.704
332.615
349.191
364.668
379.198
392.803
405.436
417.005
427.399
436.471
444.065
450.049
454.345
456.988
457.971
457.112
454.167
448.863
440.898
429.959
415.722
397.861
376.04
349.941
319.208
283.685
242.94
199.401
-3.6059
-32.2882
-64.79
-100.954
-138.295
-178.359
-221.238
-264.909
-307.357
-348.045
-386.178
-420.982
-452.732
-481.769
-508.36
-533.118
-556.568
-579.156
-601.389
-623.768
-646.774
-670.736
-696.637
-724.628
-753.231
-784.721
-818.836
-848.886
-872.257
-889.07
-898.418
-899.506
-892.197
-876.683
-852.52
-817.443
-771.063
-710.565
-643.074
25.6181
53.7468
83.9452
114.189
142.416
170.423
197.187
222.061
245.469
267.149
287.15
305.734
322.878
338.725
353.522
367.405
380.383
392.42
403.434
413.319
421.943
429.159
434.848
438.945
441.491
442.491
441.778
439.126
434.277
426.945
416.83
403.618
386.989
366.612
342.171
313.308
279.853
241.342
200.093
-2.27107
-30.1698
-61.7968
-97.0099
-133.366
-172.307
-213.926
-256.355
-297.65
-337.248
-374.362
-408.231
-439.125
-467.356
-493.18
-517.194
-539.902
-561.743
-583.219
-604.803
-627.001
-650.2
-675.049
-702.327
-730.579
-759.942
-793.084
-825.58
-852.115
-872.075
-884.813
-889.228
-884.863
-871.81
-850.08
-817.617
-773.391
-714.85
-648.451
26.0701
53.3906
82.6972
112.026
139.358
166.472
192.334
216.333
238.897
259.758
278.973
296.796
313.195
328.334
342.472
355.725
368.095
379.552
390.022
399.409
407.589
414.428
419.818
423.704
426.136
427.128
426.53
424.129
419.688
412.935
403.584
391.335
375.877
356.886
334.049
307.006
275.57
239.247
200.242
-1.02966
-28.1416
-58.9007
-93.1405
-128.514
-166.329
-206.672
-247.84
-287.956
-326.439
-362.509
-395.426
-425.439
-452.851
-477.899
-501.16
-523.126
-544.217
-564.932
-585.728
-607.09
-629.501
-653.42
-679.624
-707.487
-735.594
-766.452
-799.721
-829.081
-852.001
-868.017
-875.912
-874.821
-864.587
-845.434
-815.847
-774.181
-717.911
-653.094
26.4472
52.9543
81.3835
109.798
136.262
162.466
187.444
210.596
232.32
252.38
270.83
287.91
303.585
318.038
331.534
344.176
355.955
366.847
376.786
385.685
393.428
399.891
404.98
408.647
410.952
411.916
411.404
409.218
405.138
398.912
390.268
378.92
364.569
346.901
325.606
300.325
270.852
236.662
199.85
0.140332
-26.187
-56.0662
-89.3452
-123.719
-160.396
-199.467
-239.357
-278.268
-315.611
-350.61
-382.547
-411.664
-438.237
-462.496
-484.995
-506.212
-526.55
-546.497
-566.507
-587.021
-608.585
-631.648
-656.715
-683.752
-711.231
-739.794
-771.935
-803.229
-828.854
-847.889
-859.253
-861.681
-854.633
-838.251
-811.754
-773.048
-719.42
-656.709
26.7726
52.4763
80.0199
107.533
133.118
158.448
182.548
204.852
225.765
245.039
262.741
279.095
294.066
307.857
320.73
332.776
343.979
354.321
363.743
372.164
379.477
385.569
390.355
393.798
395.965
396.884
396.432
394.427
390.668
384.919
376.926
366.419
353.112
336.7
316.881
293.295
265.72
233.602
198.928
1.25367
-24.287
-53.2938
-85.5918
-118.968
-154.508
-192.294
-230.89
-268.573
-304.748
-338.652
-369.587
-397.78
-423.498
-446.952
-468.678
-489.136
-508.718
-527.89
-547.103
-566.775
-587.438
-609.633
-633.634
-659.511
-686.37
-713.383
-743.131
-774.866
-802.749
-824.442
-839.058
-845.1
-841.545
-828.223
-804.933
-769.554
-718.976
-658.898
27.0584
51.9542
78.6291
105.243
129.975
154.417
177.658
199.142
219.247
237.752
254.724
270.367
284.658
297.811
310.078
321.542
332.186
341.992
350.909
358.862
365.753
371.48
375.963
379.18
381.199
382.06
381.647
379.794
376.317
370.999
363.605
353.878
341.549
326.326
307.912
285.949
260.201
230.09
197.494
2.32879
-22.4291
-50.5528
-81.8838
-114.246
-148.644
-185.15
-222.434
-258.865
-293.848
-326.628
-356.533
-383.782
-408.622
-431.256
-452.196
-471.885
-490.701
-509.091
-527.497
-546.324
-566.062
-587.319
-610.324
-634.93
-660.816
-686.892
-714.146
-744.608
-773.904
-797.833
-815.297
-824.838
-824.966
-815.031
-795.003
-763.249
-716.152
-659.238
27.3232
51.4227
77.2234
102.95
126.823
150.413
172.801
193.465
212.788
230.541
246.797
261.746
275.377
287.916
299.595
310.492
320.59
329.874
338.299
345.795
352.273
357.639
361.825
364.813
366.681
367.469
367.077
365.35
362.121
357.192
350.344
341.34
329.925
315.82
298.737
278.323
254.325
226.148
195.564
3.37615
-20.598
-47.849
-78.1928
-109.541
-142.806
-178.029
-213.982
-249.135
-282.9
-314.532
-343.382
-369.659
-393.601
-415.397
-435.537
-454.446
-472.485
-490.087
-507.673
-525.647
-544.458
-564.714
-586.701
-610.086
-634.677
-659.9
-685.304
-713.306
-742.709
-768.331
-788.114
-800.807
-804.613
-798.323
-781.648
-753.704
-710.492
-657.23
27.5743
50.8757
75.8212
100.665
123.706
146.431
167.985
187.858
206.402
223.418
238.977
253.249
266.242
278.187
289.295
299.639
309.207
317.984
325.928
332.979
339.053
344.065
347.957
350.716
352.43
353.138
352.751
351.127
348.116
343.535
337.186
328.848
318.283
305.226
289.399
270.454
248.127
221.807
193.168
4.41054
-18.7856
-45.1539
-74.5278
-104.841
-136.978
-170.936
-205.538
-239.387
-271.908
-302.364
-330.131