/*--------------------------------*- C++ -*----------------------------------*\
  =========                 |
  \\      /  F ield         | OpenFOAM: The Open Source CFD Toolbox
   \\    /   O peration     | Website:  https://openfoam.org
    \\  /    A nd           | Version:  9
     \\/     M anipulation  |
\*---------------------------------------------------------------------------*/
FoamFile
{
    format      ascii;
    class       volScalarField;
    location    "3.72";
    object      k;
}
// * * * * * * * * * * * * * * * * * * * * * * * * * * * * * * * * * * * * * //

dimensions      [0 2 -2 0 0 0 0];

internalField   nonuniform List<scalar> 
2268
(
0.00063829
0.00164187
0.00241317
0.00299089
0.00344394
0.00380449
0.0040932
0.0043236
0.00450527
0.00464676
0.00475684
0.00484466
0.00491731
0.0049731
0.00500804
0.00501047
0.00493301
0.00467061
0.00421884
0.00381849
0.0033597
0.00251596
0.00090568
0.00139746
0.003796
0.00537049
0.00657794
0.00753438
0.00830197
0.00892045
0.00941791
0.00981584
0.0101329
0.0103861
0.0105899
0.0107545
0.0108807
0.0109563
0.0109471
0.0107792
0.0102912
0.00945878
0.00864571
0.00765479
0.00580105
0.0023307
0.00198667
0.00503296
0.00696017
0.00844387
0.00962862
0.0105844
0.0113574
0.0119813
0.0124831
0.0128859
0.0132102
0.0134731
0.013685
0.0138458
0.0139404
0.0139306
0.0137408
0.0132379
0.012409
0.011444
0.0101596
0.00789892
0.00337474
0.0024859
0.0060211
0.00818396
0.00984346
0.0111728
0.0122484
0.01312
0.0138251
0.0143941
0.0148528
0.0152242
0.0155269
0.0157715
0.0159571
0.0160677
0.0160649
0.0158781
0.0154037
0.0146217
0.0136149
0.0122032
0.00973955
0.00435693
0.00291703
0.0068925
0.00925169
0.0110464
0.0124832
0.0136463
0.0145893
0.0153528
0.01597
0.0164693
0.0168753
0.0172077
0.0174778
0.0176845
0.0178116
0.0178225
0.0176544
0.0172259
0.0165089
0.0155234
0.0140815
0.0115074
0.00536637
0.00330306
0.00769204
0.0102315
0.0121421
0.0136661
0.0148976
0.015895
0.0167025
0.0173557
0.0178854
0.0183177
0.0186738
0.0189652
0.0191916
0.0193372
0.0193682
0.0192303
0.0188588
0.018222
0.0173046
0.0159103
0.0133168
0.00646552
0.0036612
0.00844203
0.0111539
0.01317
0.0147686
0.0160558
0.0170958
0.0179366
0.018617
0.0191697
0.0196226
0.0199981
0.0203086
0.0205543
0.0207211
0.0207785
0.0206803
0.0203748
0.0198312
0.0190182
0.0177458
0.0152928
0.00799353
0.00400332
0.00915559
0.0120353
0.0141507
0.0158152
0.0171486
0.0182222
0.0190883
0.019789
0.0203591
0.0208282
0.0212203
0.0215485
0.0218143
0.0220053
0.022095
0.0220445
0.0218132
0.0213736
0.0206912
0.0196038
0.0175258
0.0111927
0.000823003
0.00210857
0.00289112
0.00326243
0.00341865
0.0034459
0.00338617
0.00332721
0.00332376
0.00336484
0.00320367
0.00292293
0.00296291
0.00333499
0.0036419
0.00342757
0.00259714
0.0016971
0.000833012
0.00178983
0.00475011
0.00636194
0.00720444
0.00758927
0.00765454
0.00755175
0.00743491
0.00739075
0.00732808
0.00705041
0.00655734
0.00649287
0.00692965
0.00703965
0.0065037
0.00519029
0.00340341
0.00153483
0.00240172
0.00631006
0.00828321
0.0093037
0.00975806
0.00984917
0.00974767
0.00960196
0.00949085
0.00934061
0.0090225
0.00858861
0.00847735
0.008659
0.00850945
0.00779207
0.00639185
0.00440026
0.00200474
0.00300181
0.00767036
0.00984192
0.0109192
0.0113793
0.0114681
0.0113594
0.0111882
0.0110227
0.010808
0.0104724
0.0100855
0.00990917
0.00985316
0.00948222
0.00861062
0.00719447
0.00511278
0.00236997
0.00365687
0.00904042
0.0112889
0.0123433
0.0127683
0.0128355
0.0127099
0.0125121
0.0123004
0.012037
0.0116872
0.0113145
0.0110594
0.0108006
0.0102464
0.00923321
0.00779196
0.00566874
0.00267668
0.00448476
0.0105102
0.0127046
0.01367
0.0140343
0.0140658
0.0139156
0.0136892
0.0134359
0.0131322
0.0127618
0.0123697
0.0120194
0.0115979
0.0108915
0.00974757
0.00824389
0.00612987
0.00293459
0.00583096
0.0121443
0.0141188
0.0149433
0.0152273
0.0152135
0.0150334
0.0147765
0.0144832
0.0141404
0.0137402
0.0133031
0.0128494
0.012295
0.0114616
0.0101925
0.00857521
0.00650933
0.00311887
0.00877701
0.0139626
0.0155407
0.0161835
0.0163737
0.0163092
0.0160961
0.0158067
0.0154734
0.0150889
0.0146476
0.0141492
0.0135964
0.0129286
0.0119873
0.0106003
0.0088116
0.00673785
0.00315166
0.00447911
0.0102123
0.0133536
0.0156179
0.0173763
0.0187717
0.0198876
0.0207846
0.0215099
0.0221018
0.0225926
0.0230076
0.0233625
0.0236614
0.0238957
0.0240446
0.0240801
0.0239757
0.0237117
0.0232579
0.0225017
0.0211192
0.0182333
0.00514259
0.0116415
0.0150944
0.0175264
0.019378
0.0208256
0.0219703
0.0228843
0.0236218
0.0242254
0.0247312
0.0251679
0.0255565
0.0259062
0.0262129
0.0264624
0.0266371
0.026727
0.0267246
0.026612
0.0263098
0.0256045
0.024134
0.00591825
0.0131732
0.0168427
0.0193991
0.021293
0.0227596
0.0239096
0.0248228
0.0255546
0.0261548
0.0266627
0.0271168
0.0275437
0.0279575
0.0283564
0.028727
0.0290599
0.0293649
0.0296462
0.0299028
0.0300665
0.0299136
0.0290012
0.00709921
0.0147496
0.0185532
0.0212807
0.0230758
0.024548
0.0257018
0.0266032
0.0273088
0.0279016
0.0284001
0.0288673
0.0293389
0.029837
0.0303549
0.0308631
0.0313554
0.0318856
0.0324607
0.0331269
0.0338328
0.0343419
0.0336728
0.00822887
0.0158028
0.0200198
0.0228494
0.0245937
0.0261454
0.0274006
0.0282408
0.0289098
0.0294857
0.029943
0.0303962
0.0308848
0.0314323
0.0320252
0.0325674
0.0331571
0.0338653
0.0346424
0.0356153
0.0369372
0.038704
0.0384932
0.00700844
0.0152751
0.0204776
0.023868
0.0256087
0.027238
0.0285582
0.0294779
0.0301988
0.0307977
0.0311858
0.0315943
0.0320618
0.0325987
0.0332021
0.0338803
0.0346202
0.0353825
0.0361535
0.0370803
0.038596
0.0401594
0.0398233
0.00661418
0.0148253
0.0205033
0.0246072
0.0264053
0.0276196
0.0288421
0.0298886
0.0307948
0.0315206
0.0320435
0.0325097
0.03299
0.0335296
0.0341203
0.0347882
0.0355924
0.0364383
0.037157
0.0379845
0.0392621
0.0401015
0.0403191
0.00697047
0.0152304
0.02039
0.0240956
0.0263199
0.027845
0.0290986
0.0302119
0.0311522
0.031949
0.0326141
0.0331685
0.0336758
0.0342057
0.0347723
0.0353803
0.0360761
0.0367905
0.0374777
0.0384239
0.0397178
0.0406087
0.0405648
0.00735059
0.0157769
0.0204106
0.0237201
0.0260957
0.0278578
0.0292702
0.0304513
0.0314472
0.0323024
0.0330114
0.0335875
0.034085
0.034563
0.0350577
0.0355919
0.036164
0.0367674
0.0374502
0.0383927
0.0395969
0.0403125
0.0399875
0.0074002
0.0159989
0.0205465
0.0237459
0.0261114
0.0279047
0.0293415
0.0305498
0.0315799
0.0324581
0.0331794
0.033757
0.0342358
0.0346675
0.0350935
0.03554
0.036017
0.0365382
0.0371291
0.0378282
0.0386398
0.039125
0.0388072
0.0074811
0.016203
0.0207238
0.0238576
0.0261695
0.0279296
0.0293408
0.0305298
0.0315497
0.032419
0.0331367
0.0337148
0.0341885
0.0346013
0.0349923
0.0353865
0.0357954
0.0362228
0.0366651
0.0371195
0.0375656
0.0378145
0.0375921
0.00769337
0.0164724
0.0209138
0.0239432
0.0261813
0.0278953
0.0292687
0.0304199
0.0314058
0.0322475
0.0329506
0.0335274
0.0340044
0.0344155
0.0347916
0.0351524
0.0355049
0.0358449
0.0361596
0.0364423
0.0366745
0.0367712
0.036602
0.00792532
0.0167083
0.0210516
0.0239736
0.0261332
0.0277956
0.0291278
0.0302381
0.0311849
0.0319946
0.0326792
0.0332515
0.0337318
0.0341445
0.0345112
0.0348454
0.0351506
0.0354214
0.0356483
0.0358262
0.0359447
0.0359608
0.0358092
0.00808883
0.0168628
0.0211086
0.0239302
0.0260145
0.0276261
0.0289196
0.0299939
0.0309068
0.0316886
0.0323556
0.0329217
0.0334024
0.0338149
0.0341737
0.0344875
0.034758
0.0349823
0.0351554
0.0352747
0.035333
0.0353061
0.0351573
0.00816387
0.0169134
0.021068
0.023801
0.0258182
0.0273843
0.0286448
0.0296915
0.0305796
0.0313411
0.0319952
0.032556
0.0330364
0.0334486
0.0338024
0.0341037
0.034354
0.0345524
0.0346971
0.0347864
0.0348145
0.0347659
0.0346179
0.00815731
0.0168559
0.0209248
0.023581
0.0255409
0.0270691
0.0283049
0.0293329
0.0302059
0.0309562
0.0316041
0.0321638
0.0326465
0.0330615
0.033416
0.0337141
0.0339578
0.0341472
0.0342818
0.0343601
0.0343771
0.0343219
0.034179
0.00809404
0.016693
0.0206797
0.0232707
0.0251846
0.0266839
0.0279026
0.0289205
0.0297876
0.0305357
0.0311853
0.0317502
0.0322407
0.0326645
0.0330271
0.0333321
0.0335813
0.0337752
0.0339138
0.0339952
0.034015
0.0339651
0.0338345
0.00800707
0.0164409
0.0203449
0.0228787
0.0247551
0.026233
0.0274419
0.0284574
0.0293272
0.0300817
0.030741
0.0313187
0.0318241
0.0322642
0.0326436
0.0329652
0.0332306
0.0334404
0.0335942
0.0336901
0.0337242
0.0336899
0.0335795
0.00788557
0.0161116
0.01993
0.0224124
0.0242585
0.0257219
0.0269277
0.0279482
0.0288282
0.0295972
0.0302743
0.0308726
0.0314009
0.0318655
0.0322701
0.0326175
0.0329087
0.0331441
0.0333229
0.0334431
0.0335009
0.0334914
0.0334087
0.00772027
0.0157117
0.0194429
0.0218788
0.0237011
0.0251565
0.0263658
0.0273978
0.0282954
0.0290864
0.029789
0.0304158
0.0309749
0.0314719
0.0319102
0.0322918
0.0326175
0.0328871
0.0330994
0.0332522
0.0333423
0.0333654
0.0333173
0.00751285
0.0152481
0.018891
0.0212848
0.0230894
0.0245432
0.0257623
0.0268125
0.0277345
0.0285546
0.0292903
0.0299531
0.0305507
0.0310879
0.0315676
0.0319913
0.0323593
0.0326708
0.0329243
0.0331173
0.0332468
0.0333093
0.0333014
0.00726642
0.0147282
0.0182821
0.0206381
0.0224308
0.0238892
0.0251245
0.0261993
0.0271524
0.0280086
0.0287844
0.0294905
0.0301339
0.0307188
0.0312474
0.0317206
0.0321382
0.0324987
0.0328001
0.0330399
0.0332152
0.0333229
0.0333601
0.00698437
0.0141598
0.0176245
0.0199472
0.0217337
0.023203
0.0244608
0.0255667
0.0265575
0.0274566
0.0282795
0.029036
0.0297323
0.030372
0.0309567
0.0314865
0.0319604
0.0323764
0.0327322
0.0330249
0.0332517
0.0334097
0.0334962
0.0066704
0.0135507
0.0169275
0.0192215
0.021008
0.0224945
0.0237812
0.0249248
0.0259598
0.0269086
0.0277854
0.0285992
0.0293556
0.0300572
0.0307049
0.0312981
0.031835
0.0323131
0.0327294
0.0330809
0.0333644
0.0335772
0.0337168
0.00632723
0.0129087
0.0162011
0.0184723
0.0202652
0.0217754
0.0230976
0.0242853
0.0253713
0.0263764
0.027314
0.0281922
0.0290157
0.0297863
0.0305042
0.0311679
0.0317746
0.0323213
0.0328044
0.0332203
0.0335658
0.0338379
0.0340341
0.00595493
0.0122412
0.0154567
0.0177125
0.0195188
0.0210594
0.0224236
0.023662
0.0248055
0.0258738
0.0268791
0.0278288
0.0287267
0.0295738
0.0303693
0.0311108
0.0317947
0.0324171
0.0329736
0.0334601
0.0338729
0.0342088
0.0344652
0.00555757
0.0115577
0.014708
0.0169575
0.0187845
0.0203622
0.021775
0.0230705
0.0242781
0.0254162
0.0264962
0.0275246
0.0285044
0.029436
0.0303173
0.0311449
0.0319142
0.0326201
0.0332573
0.0338211
0.034307
0.0347116
0.0350323
0.00518497
0.0108673
0.0139712
0.0162249
0.0180802
0.0197015
0.0211692
0.0225278
0.0238056
0.02502
0.0261817
0.0272965
0.0283664
0.0293909
0.0303672
0.0312903
0.0321544
0.032953
0.0336797
0.0343285
0.0348943
0.0353731
0.0357621
0.00483971
0.0102213
0.0132796
0.0155417
0.0174294
0.0190984
0.0206248
0.0220516
0.0234052
0.0247023
0.0259527
0.0271616
0.0283305
0.0294578
0.0305395
0.0315693
0.0325395
0.033442
0.0342685
0.0350116
0.0356651
0.0362244
0.0366864
0.00452761
0.00964916
0.0126615
0.0149325
0.0168546
0.018574
0.0201626
0.0216613
0.0230954
0.0244806
0.0258264
0.0271376
0.0284151
0.0296564
0.030856
0.0320059
0.0330961
0.0341161
0.0350553
0.0359042
0.036655
0.0373023
0.0378429
0.00426025
0.00917248
0.0121399
0.0144194
0.0163763
0.0181475
0.0198003
0.0213736
0.0228917
0.02437
0.025818
0.0272404
0.0286375
0.0300059
0.0313386
0.0326254
0.0338533
0.0350083
0.0360766
0.0370457
0.0379056
0.0386499
0.0392752
0.00404573
0.0088016
0.0117303
0.0140196
0.016012
0.0178354
0.0195532
0.0212024
0.0228069
0.0243827
0.0259396
0.0274827
0.0290122
0.0305236
0.0320084
0.0334534
0.0348417
0.0361547
0.0373734
0.038481
0.0394648
0.0403166
0.0410335
0.00388613
0.00853854
0.0114423
0.0137468
0.0157766
0.0176523
0.0194342
0.0211586
0.0228504
0.0245267
0.0261989
0.027873
0.0295495
0.0312235
0.032884
0.0345149
0.0360937
0.0375949
0.0389922
0.0402623
0.0413881
0.0423598
0.043175
0.0037792
0.00838432
0.0112868
0.0136169
0.015687
0.017613
0.0194547
0.0212504
0.0230272
0.024805
0.0265977
0.0284134
0.0302537
0.0321135
0.0339799
0.0358327
0.0376421
0.0393726
0.0409866
0.0424505
0.0437408
0.0448461
0.0457661
0.00372396
0.00835339
0.0112907
0.0136606
0.0157701
0.0177375
0.0196276
0.0214837
0.0233379
0.0252144
0.0271306
0.0290979
0.0311203
0.0331936
0.0353036
0.0374254
0.0395199
0.0415365
0.0434194
0.0451187
0.0466011
0.0478543
0.0488831
0.0037326
0.00850697
0.0115312
0.0139472
0.0160773
0.0180579
0.0199684
0.021862
0.0237772
0.0257433
0.0277821
0.0299091
0.0321324
0.0344511
0.0368515
0.0393039
0.0417583
0.0441417
0.046368
0.0483582
0.0500653
0.0514787
0.0526146
0.00386318
0.00904614
0.012215
0.0146339
0.0167067
0.0186253
0.0204964
0.0223841
0.0243312
0.0263695
0.0285241
0.0308152
0.033257
0.0358552
0.0386015
0.041465
0.0443838
0.0472524
0.0499318
0.0522886
0.0542556
0.0558336
0.0570637
0.0043344
0.010592
0.0138742
0.0160552
0.0178306
0.0195112
0.0212281
0.0230382
0.0249729
0.0270567
0.0293134
0.0317669
0.0344399
0.0373505
0.0405045
0.0438806
0.0474102
0.0509447
0.0542497
0.0570751
0.0593316
0.0610586
0.0623485
0.00590506
0.0149049
0.0177321
0.0188359
0.0197021
0.0207871
0.0221585
0.0237896
0.0256558
0.027752
0.0300906
0.0326963
0.0356028
0.0388489
0.0424697
0.046477
0.0508177
0.055305
0.0595343
0.062961
0.0655051
0.0673212
0.0686007
0.0107919
0.0258238
0.0258142
0.0237787
0.0225366
0.0224493
0.0232229
0.0245647
0.0263089
0.0283857
0.0307819
0.0335189
0.0366432
0.0402228
0.0443433
0.0490906
0.0544973
0.0604056
0.0661595
0.0703228
0.0730524
0.0748097
0.0759553
0.0263012
0.0490245
0.0394836
0.0309337
0.0260906
0.0242573
0.0242435
0.0252379
0.0268377
0.0288769
0.0313067
0.0341417
0.0374407
0.0413057
0.0458898
0.0514065
0.0581126
0.0661642
0.0749223
0.0797567
0.0822989
0.0837023
0.0845302
0.0851083
0.0873402
0.0554797
0.0377922
0.0290354
0.0255768
0.0249127
0.0256448
0.02714
0.0291482
0.0315919
0.0344794
0.0378777
0.0419138
0.0467995
0.0528864
0.0607863
0.0716578
0.0879499
0.0921137
0.0935001
0.0940893
0.0943932
0.0120893
0.00997162
0.00974795
0.0110406
0.0223673
0.0213717
0.0207379
0.0204715
0.027767
0.02694
0.0261692
0.0255007
0.0322695
0.0313318
0.0303867
0.0294553
0.0364072
0.0352682
0.0341538
0.0329693
0.0387162
0.0374986
0.036412
0.0353017
0.039558
0.0387768
0.0381762
0.0371063
0.0397355
0.0391542
0.0386072
0.037572
0.0391863
0.038576
0.0378704
0.0370663
0.038155
0.0376509
0.037109
0.0365665
0.0371367
0.0367908
0.0364138
0.0360158
0.0362832
0.036035
0.0357511
0.0354358
0.0355595
0.035362
0.0351294
0.0348634
0.0349411
0.0347705
0.0345678
0.0343337
0.0344207
0.0342665
0.034084
0.0338732
0.0339971
0.0338562
0.0336902
0.0334991
0.0336695
0.033542
0.0333921
0.0332199
0.033435
0.0333226
0.0331898
0.0330368
0.0332888
0.0331935
0.0330793
0.0329463
0.0332255
0.0331492
0.033055
0.032943
0.033241
0.0331853
0.0331122
0.0330218
0.0333336
0.0332999
0.0332489
0.0331808
0.0335058
0.0334952
0.0334672
0.033422
0.0337645
0.0337779
0.0337737
0.0337519
0.0341217
0.0341602
0.0341805
0.0341825
0.0345946
0.0346591
0.0347046
0.0347312
0.0352053
0.0352969
0.0353686
0.0354204
0.035981
0.0361009
0.0361998
0.0362775
0.0369538
0.0371034
0.0372305
0.0373351
0.0381614
0.0383423
0.0384988
0.038631
0.0396477
0.0398611
0.0400479
0.0402083
0.0414625
0.0417095
0.0419272
0.0421161
0.0436626
0.0439439
0.0441924
0.0444092
0.046313
0.0466279
0.0469061
0.0471492
0.0494872
0.0498335
0.0501384
0.0504042
0.0532691
0.0536413
0.053967
0.0542495
0.0577538
0.0581418
0.058478
0.0587674
0.0630471
0.0634339
0.0637649
0.0640468
0.0692633
0.0696234
0.0699268
0.0701818
0.0765175
0.0768164
0.0770639
0.0772691
0.0849126
0.0851114
0.0852733
0.0854056
0.094525
0.0945922
0.0946461
0.0946899
0.0151088
0.0169132
0.0177493
0.0180815
0.0181154
0.0179683
0.0177024
0.0173603
0.0169608
0.0165037
0.0159804
0.015374
0.014674
0.0138392
0.0127399
0.0111816
0.00909447
0.00670227
0.00304253
0.0204274
0.0205518
0.0206027
0.0205362
0.0203646
0.0201083
0.0197698
0.0193528
0.0188566
0.0182887
0.0176422
0.0169083
0.0160673
0.0150767
0.0138282
0.0121122
0.00965611
0.00658959
0.0030037
0.0245907
0.0238061
0.0232861
0.0228942
0.0225502
0.0221977
0.0217761
0.021264
0.0206586
0.019968
0.0192129
0.0183909
0.0174774
0.0164165
0.0151064
0.0133601
0.0107779
0.0073759
0.00370607
0.0280686
0.0267065
0.0257697
0.0251286
0.0246587
0.0242437
0.0237179
0.0230648
0.0223313
0.0215319
0.0206929
0.0198267
0.0189244
0.0179264
0.0166766
0.0150058
0.0125403
0.00919459
0.00490499
0.0310157
0.0292249
0.0279917
0.027158
0.026593
0.0261165
0.0254187
0.0245707
0.0236894
0.0227903
0.0218575
0.0208867
0.0198966
0.0188786
0.0175956
0.0158576
0.0137399
0.0110889
0.00639039
0.0332741
0.0312094
0.029845
0.0289266
0.0281759
0.0274234
0.0265415
0.025549
0.024551
0.0235448
0.022505
0.0213981
0.0201928
0.0189294
0.0175647
0.0160256
0.0141288
0.0115221
0.00640768
0.034878
0.0327875
0.0313556
0.030301
0.0292685
0.0283096
0.0273343
0.0262994
0.0252482
0.0241547
0.0229932
0.0217254
0.0203272
0.0189153
0.0174552
0.0158744
0.0139961
0.0110182
0.00522689
0.0356075
0.0336664
0.0322705
0.0311454
0.0300334
0.0290033
0.0279762
0.0268757
0.0257439
0.0245283
0.0232194
0.0217961
0.0202653
0.0187254
0.017112
0.0153117
0.0131267
0.0100268
0.00480403
0.0357537
0.0341582
0.0328456
0.0316882
0.030499
0.0293341
0.0282198
0.0270671
0.0258641
0.0245538
0.023141
0.0216271
0.0200155
0.0183449
0.0165908
0.0146282
0.012262
0.00908556
0.00404798
0.0356427
0.0343534
0.0331312
0.0319414
0.0306826
0.0294207
0.0282266
0.0270284
0.0257785
0.0244253
0.0229658
0.0213931
0.0197021
0.0178967
0.0159974
0.0138961
0.0113805
0.00805437
0.00337616
0.0353099
0.0342247
0.0330926
0.0319172
0.0306683
0.0294044
0.0281786
0.0269495
0.0256724
0.0243086
0.0228342
0.0212313
0.0194711
0.0175451
0.0155049
0.0132451
0.0105821
0.00728653
0.00306661
0.0348584
0.0339076
0.0328607
0.0317393
0.0305483
0.0293304
0.0281166
0.0268843
0.0256045
0.0242512
0.0227863
0.0211762
0.0193754
0.0174108
0.0153183
0.0129816
0.010274
0.00708032
0.00319913
0.0343675
0.0335178
0.0325537
0.0315052
0.0303908
0.0292369
0.0280601
0.026849
0.0255882
0.0242589
0.0228189
0.0212244
0.0194526
0.0175466
0.0155023
0.0132242
0.0106173
0.00755224
0.00365494
0.0338948
0.0331293
0.0322471
0.031278
0.0302427
0.0291577
0.0280314
0.0268588
0.0256312
0.0243338
0.0229321
0.0213919
0.0197074
0.0179017
0.0159615
0.0138265
0.0114183
0.00852017
0.00421811
0.0334787
0.0327874
0.031984
0.0310936
0.0301345
0.0291188
0.0280511
0.0269288
0.0257454
0.0244901
0.0231413
0.0216785
0.0200972
0.0184031
0.0165823
0.0145957
0.0123589
0.00955374
0.00474131
0.0331428
0.0325185
0.0317891
0.0309737
0.0300874
0.0291398
0.0281341
0.0270685
0.0259375
0.024734
0.0234465
0.0220629
0.0205776
0.0189859
0.0172716
0.0153943
0.013245
0.0104249
0.00517006
0.0328992
0.032337
0.0316763
0.0309316
0.0301144
0.0292323
0.0282882
0.0272803
0.0262047
0.0250568
0.0238303
0.0225178
0.0211123
0.0196024
0.0179667
0.0161548
0.0140332
0.0111496
0.00551389
0.0327512
0.0322477
0.0316512
0.0309723
0.0302197
0.0293994
0.0285135
0.0275609
0.0265387
0.0254439
0.0242725
0.0230186
0.0216741
0.020223
0.0186378
0.0168575
0.0147307
0.0117755
0.00580571
0.032696
0.0322489
0.0317126
0.0310948
0.0304019
0.0296384
0.0288059
0.0279036
0.0269297
0.0258817
0.0247564
0.0235482
0.0222466
0.0208332
0.0192753
0.0175042
0.0153582
0.0123505
0.00608629
0.0327285
0.0323359
0.0318563
0.0312951
0.0306568
0.0299448
0.0291601
0.0283025
0.0273703
0.0263613
0.0252722
0.0240971
0.0228232
0.0214298
0.0198811
0.0181027
0.0159269
0.0128622
0.00638497
0.0328438
0.0325043
0.0320783
0.0315695
0.0309811
0.0303155
0.0295734
0.0287543
0.0278571
0.0268793
0.0258174
0.0246632
0.0234051
0.0220204
0.0204685
0.0186707
0.0164531
0.0133091
0.00666103
0.0330397
0.0327521
0.0323772
0.0319173
0.0313748
0.030751
0.0300464
0.0292606
0.0283921
0.0274383
0.0263954
0.0252548
0.0240029
0.0226156
0.0210494
0.0192219
0.0169518
0.0137129
0.0069046
0.0333183
0.033082
0.0327561
0.0323424
0.0318422
0.0312565
0.0305853
0.029828
0.028983
0.0280479
0.0270171
0.0258818
0.024627
0.0232272
0.021637
0.0197699
0.017437
0.014088
0.00711308
0.0336864
0.033501
0.0332231
0.0328535
0.0323931
0.0318425
0.0312012
0.0304689
0.0296433
0.0287209
0.0276957
0.0265579
0.0252916
0.0238699
0.0222453
0.0203277
0.0179188
0.0144409
0.00725745
0.0341559
0.0340215
0.0337905
0.0334636
0.0330411
0.0325234
0.0319099
0.0311992
0.0303888
0.029474
0.0284483
0.0273007
0.0260143
0.0245607
0.0228903
0.0209088
0.0184072
0.0147771
0.00731889
0.0347442
0.0346609
0.0344764
0.034191
0.0338053
0.033319
0.032731
0.0320392
0.0312402
0.0303286
0.0292965
0.028132
0.0268166
0.0253204
0.0235915
0.0215308
0.0189189
0.0151178
0.00734031
0.035474
0.0354421
0.0353038
0.0350596
0.0347096
0.0342532
0.0336888
0.0330135
0.0322228
0.0313101
0.0302662
0.0290777
0.0277244
0.0261745
0.0243734
0.022218
0.0194799
0.0154966
0.00737916
0.0363727
0.0363927
0.0363007
0.036097
0.0357819
0.0353544
0.0348121
0.0341513
0.0333662
0.0324489
0.0313883
0.030169
0.0287689
0.0271539
0.0252668
0.0230009
0.0201222
0.01595
0.00748808
0.0374729
0.0375455
0.0374994
0.0373359
0.0370549
0.0366552
0.036134
0.0354863
0.0347051
0.0337803
0.0326989
0.031443
0.0299878
0.0282965
0.0263095
0.0239175
0.0208831
0.0165158
0.00772968
0.0388123
0.0389375
0.0389371
0.0388129
0.0385654
0.0381931
0.0376924
0.0370574
0.0362792
0.0353456
0.0342409
0.0329439
0.0314266
0.0296488
0.0275481
0.025013
0.0218045
0.0172251
0.00809943
0.0404338
0.0406111
0.0406554
0.0405697
0.0403549
0.0400097
0.03953
0.0389084
0.0381341
0.0371925
0.0360643
0.0347244
0.0331403
0.0312674
0.0290392
0.0263414
0.0229321
0.0180998
0.00854419
0.0423854
0.0426135
0.0427009
0.0426522
0.0424695
0.0421518
0.0416943
0.0410885
0.0403215
0.0393755
0.0382272
0.0368466
0.0351951
0.0332215
0.0308529
0.0279691
0.0243211
0.019171
0.0090582
0.044721
0.044997
0.0451246
0.0451109
0.0449596
0.0446701
0.0442375
0.0436519
0.0428983
0.0419557
0.0407959
0.0393826
0.0376692
0.0355949
0.033076
0.0299812
0.0260467
0.0204936
0.00966668
0.0475
0.0478189
0.0479822
0.0480007
0.0478797
0.0476198
0.047216
0.0466574
0.0459269
0.0450001
0.0438436
0.0424136
0.0406531
0.0384876
0.0358163
0.0324877
0.0282116
0.0221497
0.0103983
0.0507879
0.0511414
0.051334
0.0513804
0.0512884
0.0510598
0.05069
0.0501674
0.0494733
0.0485799
0.047449
0.0460284
0.0442484
0.042016
0.0392049
0.0356294
0.0309542
0.0242519
0.0112749
0.054656
0.0550319
0.0552446
0.0553132
0.0552482
0.0550528
0.0547229
0.0542472
0.0536057
0.0527687
0.0516933
0.0503195
0.0485638
0.0463104
0.0433972
0.0395853
0.0344625
0.0269657
0.0123803
0.0591812
0.0595626
0.0597835
0.0598668
0.0598259
0.0596651
0.0593815
0.0589643
0.0583937
0.0576393
0.056656
0.0553777
0.0537086
0.051509
0.0485719
0.0445814
0.0389988
0.030541
0.0138844
0.0644463
0.0648115
0.0650256
0.0651148
0.0650938
0.0649684
0.0647366
0.0643889
0.0639073
0.0632628
0.0624112
0.0612855
0.059783
0.0577451
0.0549202
0.0508955
0.0449355
0.0353656
0.0159681
0.0705394
0.0708625
0.0710531
0.071138
0.0711321
0.0710413
0.0708649
0.0705954
0.0702178
0.0697074
0.0690253
0.0681102
0.0668641
0.0651256
0.0626182
0.0588417
0.0528072
0.042158
0.0189783
0.0775534
0.0778072
0.0779575
0.0780278
0.078031
0.0779726
0.0778524
0.0776655
0.0774012
0.0770413
0.0765565
0.0758997
0.0749922
0.0736977
0.0717639
0.0686816
0.0632769
0.0522232
0.0235433
0.0855872
0.0857478
0.0858433
0.0858899
0.0858961
0.0858658
0.0857992
0.0856939
0.0855437
0.0853385
0.0850616
0.0846857
0.0841648
0.0834164
0.0822801
0.0803952
0.0767569
0.0675194
0.0312457
0.0947495
0.0948021
0.0948336
0.0948496
0.0948528
0.0948447
0.0948255
0.0947946
0.0947503
0.0946899
0.0946091
0.0945008
0.0943538
0.0941491
0.0938518
0.0933779
0.0924085
0.0887646
0.0445965
)
;

boundaryField
{
    leftWall
    {
        type            kqRWallFunction;
        value           nonuniform List<scalar> 
50
(
0.00063829
0.00139746
0.00198667
0.0024859
0.00291703
0.00330306
0.0036612
0.00400332
0.00447911
0.00514259
0.00591825
0.00709921
0.00822887
0.00700844
0.00661418
0.00697047
0.00735059
0.0074002
0.0074811
0.00769337
0.00792532
0.00808883
0.00816387
0.00815731
0.00809404
0.00800707
0.00788557
0.00772027
0.00751285
0.00726642
0.00698437
0.0066704
0.00632723
0.00595493
0.00555757
0.00518497
0.00483971
0.00452761
0.00426025
0.00404573
0.00388613
0.0037792
0.00372396
0.0037326
0.00386318
0.0043344
0.00590506
0.0107919
0.0263012
0.0851083
)
;
    }
    rightWall
    {
        type            kqRWallFunction;
        value           nonuniform List<scalar> 
50
(
0.000833012
0.00153483
0.00200474
0.00236997
0.00267668
0.00293459
0.00311887
0.00315166
0.00304253
0.0030037
0.00370607
0.00490499
0.00639039
0.00640768
0.00522689
0.00480403
0.00404798
0.00337616
0.00306661
0.00319913
0.00365494
0.00421811
0.00474131
0.00517006
0.00551389
0.00580571
0.00608629
0.00638497
0.00666103
0.0069046
0.00711308
0.00725745
0.00731889
0.00734031
0.00737916
0.00748808
0.00772968
0.00809943
0.00854419
0.0090582
0.00966668
0.0103983
0.0112749
0.0123803
0.0138844
0.0159681
0.0189783
0.0235433
0.0312457
0.0445965
)
;
    }
    lowerWall
    {
        type            kqRWallFunction;
        value           nonuniform List<scalar> 
62
(
0.00063829
0.00164187
0.00241317
0.00299089
0.00344394
0.00380449
0.0040932
0.0043236
0.00450527
0.00464676
0.00475684
0.00484466
0.00491731
0.0049731
0.00500804
0.00501047
0.00493301
0.00467061
0.00421884
0.00381849
0.0033597
0.00251596
0.00090568
0.00090568
0.0023307
0.00337474
0.00435693
0.00536637
0.00646552
0.00799353
0.0111927
0.0120893
0.00997162
0.00974795
0.0110406
0.000823003
0.00178983
0.00240172
0.00300181
0.00365687
0.00448476
0.00583096
0.00877701
0.000823003
0.00210857
0.00289112
0.00326243
0.00341865
0.0034459
0.00338617
0.00332721
0.00332376
0.00336484
0.00320367
0.00292293
0.00296291
0.00333499
0.0036419
0.00342757
0.00259714
0.0016971
0.000833012
)
;
    }
    atmosphere
    {
        type            inletOutlet;
        inletValue      uniform 0.1;
        value           nonuniform List<scalar> 
46
(
0.1
0.1
0.0554797
0.0377922
0.0290354
0.0255768
0.0249127
0.0256448
0.02714
0.0291482
0.0315919
0.0344794
0.0378777
0.0419138
0.0467995
0.0528864
0.0607863
0.0716578
0.1
0.1
0.1
0.1
0.1
0.1
0.1
0.1
0.1
0.1
0.1
0.1
0.1
0.1
0.1
0.1
0.1
0.1
0.1
0.1
0.1
0.1
0.1
0.1
0.1
0.1
0.1
0.0445965
)
;
    }
    defaultFaces
    {
        type            empty;
    }
}


// ************************************************************************* //
