/*--------------------------------*- C++ -*----------------------------------*\
  =========                 |
  \\      /  F ield         | OpenFOAM: The Open Source CFD Toolbox
   \\    /   O peration     | Website:  https://openfoam.org
    \\  /    A nd           | Version:  9
     \\/     M anipulation  |
\*---------------------------------------------------------------------------*/
FoamFile
{
    format      ascii;
    class       volVectorField;
    location    "3.72";
    object      U;
}
// * * * * * * * * * * * * * * * * * * * * * * * * * * * * * * * * * * * * * //

dimensions      [0 1 -1 0 0 0 0];

internalField   nonuniform List<vector> 
2268
(
(-0.00233985 0.000861371 0)
(-0.0035996 -7.64889e-05 0)
(-0.00251797 -0.000482411 0)
(-0.00111049 -0.000550771 0)
(0.000498141 -0.000534875 0)
(0.00197713 -0.000472052 0)
(0.00326902 -0.000397411 0)
(0.00434615 -0.000318152 0)
(0.00517521 -0.000226199 0)
(0.00570612 -0.000121331 0)
(0.0059125 -1.90986e-05 0)
(0.00583519 5.49573e-05 0)
(0.00557528 8.14689e-05 0)
(0.00531223 2.69032e-05 0)
(0.00531643 -0.000132979 0)
(0.00573639 -0.000407102 0)
(0.00703673 -0.000613099 0)
(0.00760194 0.00101486 0)
(-0.00104125 0.00517043 0)
(-0.0178089 0.00463613 0)
(-0.0256185 0.000363279 0)
(-0.0216502 -0.00338393 0)
(-0.00900494 -0.0042011 0)
(-0.00110876 0.0019909 0)
(-0.00173927 3.82514e-05 0)
(-0.000858742 -0.000803613 0)
(0.000298114 -0.00105441 0)
(0.00165575 -0.00107882 0)
(0.00295683 -0.000985311 0)
(0.00413007 -0.000847456 0)
(0.00513143 -0.000685023 0)
(0.00591857 -0.000491212 0)
(0.00644229 -0.000268637 0)
(0.00666967 -4.70693e-05 0)
(0.00661702 0.000125885 0)
(0.00635031 0.000206293 0)
(0.00596885 0.000146637 0)
(0.00560222 -7.6853e-05 0)
(0.00526239 -0.000438548 0)
(0.00489387 -0.00043873 0)
(0.00340728 0.002727 0)
(-0.00136782 0.00838599 0)
(-0.00954557 0.00817977 0)
(-0.0145495 0.00169025 0)
(-0.0147885 -0.0054035 0)
(-0.00875294 -0.0107575 0)
(-0.000226684 0.00230226 0)
(-0.000513542 -0.000135839 0)
(0.000281025 -0.00122382 0)
(0.00122607 -0.00159131 0)
(0.00234054 -0.00163703 0)
(0.00343138 -0.0015131 0)
(0.00443297 -0.00131606 0)
(0.00530021 -0.00107314 0)
(0.00598773 -0.000777442 0)
(0.00644462 -0.000433886 0)
(0.00663213 -8.38675e-05 0)
(0.00654839 0.000207983 0)
(0.00623097 0.000378286 0)
(0.00573496 0.000378736 0)
(0.00510596 0.0002001 0)
(0.00425788 -5.29462e-05 0)
(0.00294484 0.000270752 0)
(0.000870242 0.00398665 0)
(-0.0013369 0.00994105 0)
(-0.00416058 0.0100059 0)
(-0.00670428 0.00293544 0)
(-0.00820581 -0.00584604 0)
(-0.00548005 -0.0150722 0)
(0.000287468 0.00231178 0)
(0.000367212 -0.000324762 0)
(0.00112373 -0.00158093 0)
(0.00191441 -0.00203529 0)
(0.00281167 -0.00209793 0)
(0.00369369 -0.00195355 0)
(0.00451222 -0.00171159 0)
(0.00522858 -0.00140293 0)
(0.00579776 -0.00101893 0)
(0.00616642 -0.000565521 0)
(0.0062893 -9.32642e-05 0)
(0.00615108 0.000316971 0)
(0.00576872 0.000590228 0)
(0.00516857 0.000680937 0)
(0.00435087 0.000608091 0)
(0.00319577 0.0005493 0)
(0.00138185 0.00121837 0)
(-0.000686805 0.00481043 0)
(-0.00129061 0.0103922 0)
(-0.0010856 0.010551 0)
(-0.00130744 0.00355968 0)
(-0.00244077 -0.00575065 0)
(-0.001452 -0.0172103 0)
(0.000586034 0.00205615 0)
(0.000992113 -0.000618294 0)
(0.0017363 -0.00190796 0)
(0.00240191 -0.00240276 0)
(0.00310366 -0.00247154 0)
(0.00378196 -0.0023105 0)
(0.00441261 -0.00203454 0)
(0.00496839 -0.00167343 0)
(0.00540745 -0.00121392 0)
(0.00567455 -0.000661038 0)
(0.00571797 -7.2276e-05 0)
(0.00551231 0.00045637 0)
(0.00506147 0.00084149 0)
(0.00437647 0.0010424 0)
(0.00344324 0.00110493 0)
(0.00216414 0.00125855 0)
(0.000302805 0.00218078 0)
(-0.00156331 0.00535013 0)
(-0.00132685 0.0100319 0)
(0.000687834 0.0100539 0)
(0.00218467 0.0035238 0)
(0.00169789 -0.00542692 0)
(0.00183538 -0.0171082 0)
(0.000778007 0.0016451 0)
(0.00141762 -0.000987393 0)
(0.00214694 -0.00221405 0)
(0.00269621 -0.00269729 0)
(0.00321503 -0.00275494 0)
(0.00369406 -0.00257675 0)
(0.0041343 -0.0022757 0)
(0.00452264 -0.00187514 0)
(0.00482259 -0.00135366 0)
(0.00497865 -0.000713133 0)
(0.00493339 -1.53382e-05 0)
(0.00465437 0.000627793 0)
(0.00413896 0.00112574 0)
(0.00339339 0.00144047 0)
(0.00241087 0.00163574 0)
(0.00114511 0.00196546 0)
(-0.000509182 0.00302068 0)
(-0.00200579 0.00569416 0)
(-0.00138145 0.00925357 0)
(0.00133137 0.00891898 0)
(0.00363197 0.00302998 0)
(0.0037324 -0.0051639 0)
(0.00400766 -0.015807 0)
(0.000927212 0.00116002 0)
(0.0016882 -0.00140577 0)
(0.00237754 -0.00249036 0)
(0.00280348 -0.00291634 0)
(0.00314359 -0.0029446 0)
(0.00342627 -0.00274665 0)
(0.00367474 -0.00242762 0)
(0.00389017 -0.00199987 0)
(0.00404315 -0.00143047 0)
(0.00408107 -0.000716071 0)
(0.00394225 8.08342e-05 0)
(0.0035895 0.000831717 0)
(0.00301851 0.00143639 0)
(0.00223699 0.0018548 0)
(0.00125641 0.00215735 0)
(8.58045e-05 0.00260149 0)
(-0.0012784 0.00368318 0)
(-0.00234187 0.00587183 0)
(-0.00158145 0.00837666 0)
(0.00101913 0.00761745 0)
(0.00334024 0.00230661 0)
(0.00379728 -0.00519353 0)
(0.00486616 -0.0143915 0)
(0.0010593 0.000210509 0)
(0.00181899 -0.001809 0)
(0.00245397 -0.00267867 0)
(0.0027372 -0.00302627 0)
(0.00289693 -0.00301853 0)
(0.00298678 -0.0028028 0)
(0.00304446 -0.00247333 0)
(0.00308303 -0.00203079 0)
(0.00308174 -0.00142928 0)
(0.00299634 -0.0006583 0)
(0.00276428 0.000222026 0)
(0.00234365 0.00107125 0)
(0.00173018 0.00176979 0)
(0.000935597 0.00227342 0)
(-9.08401e-06 0.0026468 0)
(-0.00105044 0.00313677 0)
(-0.00213192 0.00417084 0)
(-0.00284137 0.00592145 0)
(-0.00210858 0.00758878 0)
(1.10713e-06 0.00649479 0)
(0.00180647 0.00166889 0)
(0.0020396 -0.00517385 0)
(0.00256779 -0.0126659 0)
(-0.00923844 0.00199503 0)
(-0.00215304 -0.00255571 0)
(0.00673994 -0.00252285 0)
(0.0117181 -0.00126859 0)
(0.0134215 -0.000302528 0)
(0.0121511 0.000603425 0)
(0.0084046 0.00137457 0)
(0.00307334 0.00134608 0)
(-0.000381036 0.000151573 0)
(0.00147595 -0.00156757 0)
(0.00765413 -0.00062922 0)
(0.00164114 0.00481794 0)
(-0.0199311 0.0051338 0)
(-0.023755 -0.00259959 0)
(0.00171648 -0.0114167 0)
(0.0385399 -0.0115883 0)
(0.0662908 -0.00108925 0)
(0.0478716 0.00960869 0)
(0.00399692 0.00592354 0)
(-0.00410715 0.00294109 0)
(0.0024876 -0.00461718 0)
(0.0061668 -0.00394893 0)
(0.0079047 -0.00175895 0)
(0.00744798 0.000139292 0)
(0.00519801 0.00173149 0)
(0.001781 0.00289356 0)
(-0.00247244 0.00278744 0)
(-0.0056336 0.0005828 0)
(-0.00560173 -0.00221706 0)
(-0.00457419 0.000390726 0)
(-0.00813388 0.00786719 0)
(-0.014953 0.00650684 0)
(-0.00942945 -0.00663678 0)
(0.00653866 -0.0190985 0)
(0.0262732 -0.0196367 0)
(0.0441148 -0.00246451 0)
(0.0420947 0.0197122 0)
(0.00907494 0.0156174 0)
(0.000959056 0.00217376 0)
(0.00446759 -0.00591699 0)
(0.00509048 -0.00442588 0)
(0.0048317 -0.00159883 0)
(0.00329637 0.000953672 0)
(0.00066564 0.00295928 0)
(-0.00257271 0.00434516 0)
(-0.00624128 0.00424297 0)
(-0.00921406 0.00141651 0)
(-0.0105749 -0.00203108 0)
(-0.0111844 0.00102322 0)
(-0.0117152 0.00832602 0)
(-0.0105282 0.00508491 0)
(-0.00310166 -0.0109612 0)
(0.00693837 -0.0243387 0)
(0.0173603 -0.0257193 0)
(0.0305598 -0.00589726 0)
(0.0326076 0.0250138 0)
(0.011141 0.0252974 0)
(0.0034752 0.000514663 0)
(0.00471268 -0.00623412 0)
(0.00340247 -0.00415238 0)
(0.00188467 -0.00100849 0)
(-0.000204349 0.00193123 0)
(-0.0028649 0.00419346 0)
(-0.00587789 0.00572277 0)
(-0.00910556 0.00557154 0)
(-0.0118541 0.00238385 0)
(-0.0140762 -0.00139539 0)
(-0.0152187 0.00120733 0)
(-0.0131685 0.00718156 0)
(-0.00762675 0.00268517 0)
(-0.000658494 -0.0140964 0)
(0.00469019 -0.0274001 0)
(0.00939762 -0.0297139 0)
(0.020048 -0.00958658 0)
(0.0258395 0.0286645 0)
(0.0105526 0.0334886 0)
(0.00438295 -0.00146546 0)
(0.00365213 -0.00576396 0)
(0.00115293 -0.00330111 0)
(-0.00107111 -0.000125557 0)
(-0.00334444 0.00297098 0)
(-0.00579602 0.00535435 0)
(-0.00845646 0.0069918 0)
(-0.0112361 0.00674829 0)
(-0.0135969 0.00337999 0)
(-0.0160013 -0.000509618 0)
(-0.0171765 0.000957057 0)
(-0.0136202 0.00494082 0)
(-0.00613961 -0.000303317 0)
(-0.000444512 -0.0160579 0)
(0.00125234 -0.0287448 0)
(0.00220479 -0.0320629 0)
(0.00996841 -0.0137989 0)
(0.0193441 0.0306147 0)
(0.0108844 0.040127 0)
(0.00440071 -0.00304056 0)
(0.00153226 -0.0046346 0)
(-0.00159333 -0.00212753 0)
(-0.00407255 0.00085999 0)
(-0.00622973 0.00395788 0)
(-0.00825226 0.00634676 0)
(-0.0103419 0.00808027 0)
(-0.0125752 0.00773493 0)
(-0.0144334 0.00424927 0)
(-0.0164257 0.00031254 0)
(-0.0171736 0.000446786 0)
(-0.0131795 0.00232739 0)
(-0.00585019 -0.00316762 0)
(-0.00173944 -0.0170044 0)
(-0.002591 -0.0288029 0)
(-0.00424951 -0.0331161 0)
(0.000140286 -0.0178559 0)
(0.0121584 0.0298497 0)
(0.0130529 0.0456591 0)
(0.00244705 -0.00454018 0)
(-0.00162893 -0.00316422 0)
(-0.00477602 -0.000866997 0)
(-0.00712637 0.00178872 0)
(-0.00892958 0.00478682 0)
(-0.010327 0.00707041 0)
(-0.0116156 0.00889381 0)
(-0.0131167 0.00849297 0)
(-0.0143609 0.00488777 0)
(-0.0156381 0.0008562 0)
(-0.0157424 -0.000236892 0)
(-0.0119749 -7.81916e-05 0)
(-0.00596186 -0.00543352 0)
(-0.00359558 -0.0171458 0)
(-0.00635299 -0.0278507 0)
(-0.0102803 -0.0330297 0)
(-0.00968855 -0.0211845 0)
(0.00353499 0.0254641 0)
(0.0163898 0.0503357 0)
(-0.00345006 -0.00248059 0)
(-0.00541252 -0.00171198 0)
(-0.00824034 0.000268249 0)
(-0.0102266 0.00255416 0)
(-0.0115198 0.00535957 0)
(-0.0121508 0.00740551 0)
(-0.0124309 0.00928401 0)
(-0.012929 0.00890281 0)
(-0.0133923 0.00522527 0)
(-0.013866 0.00105244 0)
(-0.0133727 -0.00100685 0)
(-0.010197 -0.00199839 0)
(-0.00590113 -0.00692392 0)
(-0.0052422 -0.0165381 0)
(-0.00961888 -0.0259334 0)
(-0.0157119 -0.0317236 0)
(-0.0185321 -0.0233037 0)
(-0.00704091 0.0181694 0)
(0.0158624 0.0543272 0)
(0.00172722 0.000638458 0)
(0.0021862 -0.0016987 0)
(0.00241531 -0.0025571 0)
(0.00239712 -0.00290177 0)
(0.00226906 -0.00288871 0)
(0.00207401 -0.0026739 0)
(0.00184561 -0.00234701 0)
(0.00160663 -0.00190215 0)
(0.00135397 -0.00127601 0)
(0.00107007 -0.000441234 0)
(0.000704544 0.000547018 0)
(0.000201013 0.00150742 0)
(-0.000449554 0.00232194 0)
(-0.00122845 0.00293335 0)
(-0.0020894 0.00336665 0)
(-0.00293523 0.00382689 0)
(-0.00365538 0.00471075 0)
(-0.00397789 0.00588344 0)
(-0.00343677 0.0066321 0)
(-0.00229067 0.0053019 0)
(-0.00176246 0.001268 0)
(-0.00301508 -0.00418573 0)
(-0.00791506 -0.00785391 0)
(0.00163909 -0.00533075 0)
(0.000948292 -0.00471296 0)
(0.00120496 -0.00440355 0)
(0.000997956 -0.00423004 0)
(0.000681125 -0.00384678 0)
(0.000316816 -0.00336767 0)
(-0.000158126 -0.00284374 0)
(-0.000726761 -0.00221631 0)
(-0.00131791 -0.00140005 0)
(-0.00184217 -0.000369917 0)
(-0.00234126 0.00076796 0)
(-0.00283242 0.00187971 0)
(-0.00332496 0.00288712 0)
(-0.00392208 0.00372758 0)
(-0.00468304 0.00435222 0)
(-0.00554232 0.00483833 0)
(-0.00619077 0.00550113 0)
(-0.00632167 0.00620114 0)
(-0.00593509 0.00646811 0)
(-0.0054953 0.00545695 0)
(-0.00591755 0.00279409 0)
(-0.00798975 -0.000598543 0)
(-0.011807 -0.00252897 0)
(-0.00288928 -0.00178271 0)
(-0.00355683 -0.00184577 0)
(-0.00213008 -0.00246669 0)
(-0.00324068 -0.00281059 0)
(-0.00443208 -0.00252169 0)
(-0.00469217 -0.00198659 0)
(-0.00521597 -0.00162377 0)
(-0.00629874 -0.00109376 0)
(-0.00727598 -0.000372616 0)
(-0.00774085 0.000513652 0)
(-0.0079153 0.0013381 0)
(-0.00784341 0.00224456 0)
(-0.00764713 0.00322638 0)
(-0.00747445 0.00422934 0)
(-0.00754391 0.00495117 0)
(-0.00830676 0.0053508 0)
(-0.0090875 0.00572164 0)
(-0.00905957 0.00627304 0)
(-0.00829374 0.00662818 0)
(-0.00727638 0.00620435 0)
(-0.00740354 0.00454116 0)
(-0.0100778 0.00200621 0)
(-0.0144766 0.000494335 0)
(-0.0160691 0.00460583 0)
(-0.00533661 -0.00297966 0)
(0.00442484 -0.00197805 0)
(-0.00535702 -0.000207787 0)
(-0.013273 -0.00244924 0)
(-0.00981409 -0.00139189 0)
(-0.0086299 -0.000247167 0)
(-0.0120685 0.000946161 0)
(-0.0137606 9.3581e-05 0)
(-0.0115931 0.000567168 0)
(-0.0100895 0.00170495 0)
(-0.00931796 0.00250849 0)
(-0.00872925 0.00339204 0)
(-0.00754557 0.00423355 0)
(-0.00495559 0.00490987 0)
(-0.00605048 0.00606605 0)
(-0.00920287 0.00559127 0)
(-0.0103907 0.00561358 0)
(-0.00978602 0.00516639 0)
(-0.00590114 0.00389699 0)
(-0.00219507 0.00390729 0)
(-0.00616395 0.0033969 0)
(-0.0174396 0.00160374 0)
(-0.0292404 0.0205012 0)
(-0.0066855 -0.0320828 0)
(0.015891 -0.0112709 0)
(7.80837e-06 0.0338161 0)
(-0.0175419 -0.00238544 0)
(-0.0160056 -0.00855186 0)
(-0.0111058 -0.00113272 0)
(-0.00914588 0.00920534 0)
(-0.00675924 -0.00261827 0)
(-0.00560919 -0.00356213 0)
(-0.00411715 -0.00126327 0)
(-0.0011069 -0.000354103 0)
(0.0033366 0.00028502 0)
(0.0099461 -0.0011582 0)
(0.0181936 -0.0018102 0)
(0.0252169 0.0125799 0)
(0.0269755 0.00837791 0)
(0.0302146 0.00376445 0)
(0.0346911 0.00180354 0)
(0.0392005 -0.00504077 0)
(0.0431402 0.00169713 0)
(0.0303188 0.0229223 0)
(-0.021801 0.0245529 0)
(0.00842129 0.0408968 0)
(0.00809221 -0.0358237 0)
(0.000495845 -0.0187716 0)
(0.0198116 0.0341603 0)
(0.032936 0.00786687 0)
(0.0271661 -0.00525872 0)
(0.0250513 -0.00615995 0)
(0.0290341 0.000282314 0)
(0.027322 -0.0027448 0)
(0.0167158 -0.000869843 0)
(0.00916937 -0.0012581 0)
(0.00737353 -0.00333013 0)
(0.0081332 -0.00422132 0)
(0.0095213 -0.00753404 0)
(0.0103289 -0.00866881 0)
(0.0156502 0.00260617 0)
(0.0246361 0.00085769 0)
(0.0333569 -0.00217857 0)
(0.0427011 -0.00341235 0)
(0.046464 -0.00369962 0)
(0.0342437 0.00868989 0)
(0.0113328 0.0711875 0)
(-0.0229103 0.0786041 0)
(0.0324763 0.00351356 0)
(0.0179928 -0.0228475 0)
(-0.00477378 -0.020999 0)
(0.0180335 -7.90816e-06 0)
(0.0473427 -0.00563719 0)
(0.058878 -0.0033302 0)
(0.054272 -0.00216637 0)
(0.0493253 4.53065e-05 0)
(0.045129 0.00778695 0)
(0.0354841 0.0127384 0)
(0.0263874 0.00538001 0)
(0.020055 -0.0011755 0)
(0.0164816 -0.00306838 0)
(0.0137102 -0.00639118 0)
(0.00665753 -0.00791434 0)
(0.00582761 -0.00327072 0)
(0.00901111 -0.0060059 0)
(0.00771632 -0.00853105 0)
(0.00828586 -0.0140493 0)
(0.0101825 0.00492901 0)
(-0.000605874 0.0287168 0)
(-0.00965969 0.0862102 0)
(0.00542782 0.0661326 0)
(0.00989401 -0.0120445 0)
(0.0145205 -0.00364446 0)
(0.00566079 -0.0150546 0)
(0.0167294 -0.0229111 0)
(0.0312893 -0.0239713 0)
(0.0398301 -0.011329 0)
(0.0454938 0.00293909 0)
(0.0428371 0.00630378 0)
(0.0375792 0.0158218 0)
(0.0344315 0.0208275 0)
(0.0314533 0.0141481 0)
(0.0266566 0.00643062 0)
(0.0213189 0.00212107 0)
(0.0157423 0.000187509 0)
(0.00854129 0.000113912 0)
(0.00109221 -0.00188331 0)
(-0.00677091 -0.00257908 0)
(-0.014929 -0.00355769 0)
(-0.0174125 -0.0143209 0)
(-0.0144612 0.00145346 0)
(-0.00841476 0.0326445 0)
(0.00572288 0.0688309 0)
(0.0327723 0.0411303 0)
(0.000350756 -0.0216367 0)
(0.0123201 -0.0142841 0)
(0.0177331 -0.0193979 0)
(0.0200909 -0.0318867 0)
(0.0199654 -0.0286789 0)
(0.019264 -0.0181087 0)
(0.0203103 -0.00149084 0)
(0.0214021 0.00910796 0)
(0.0218357 0.0159782 0)
(0.0229655 0.0186295 0)
(0.0232065 0.0152759 0)
(0.0209206 0.0105578 0)
(0.0169597 0.0073831 0)
(0.0122596 0.00644869 0)
(0.00700048 0.00746497 0)
(0.00140178 0.00828979 0)
(-0.00447144 0.00819578 0)
(-0.0101368 0.0040128 0)
(-0.0155691 -0.0105974 0)
(-0.0165596 -0.00520686 0)
(-0.00799321 0.0176185 0)
(0.0130981 0.04353 0)
(0.0354565 0.0261915 0)
(0.00140261 -0.0242919 0)
(0.00775058 -0.0227021 0)
(0.0114408 -0.0243522 0)
(0.0105842 -0.028241 0)
(0.00672 -0.0245954 0)
(0.00341918 -0.0152215 0)
(0.00276504 -0.00238935 0)
(0.00411443 0.00738467 0)
(0.00622748 0.0137182 0)
(0.00883989 0.0163315 0)
(0.0104885 0.0151621 0)
(0.0100919 0.0127415 0)
(0.00806492 0.0108749 0)
(0.00526976 0.0104303 0)
(0.00249065 0.0113116 0)
(0.000167612 0.0120756 0)
(-0.00137487 0.0114775 0)
(-0.00213658 0.00680283 0)
(-0.00585016 -0.00541917 0)
(-0.0107564 -0.00745268 0)
(-0.00856824 0.00536444 0)
(0.00525784 0.0235123 0)
(0.0190547 0.0182172 0)
(0.00107768 -0.0285425 0)
(0.00266068 -0.0256247 0)
(0.00270936 -0.0246633 0)
(-0.00015056 -0.0242186 0)
(-0.00480612 -0.0200012 0)
(-0.00860305 -0.0121568 0)
(-0.0100181 -0.00250708 0)
(-0.00920232 0.00558228 0)
(-0.00711135 0.0111214 0)
(-0.00450597 0.0138722 0)
(-0.00253058 0.0140867 0)
(-0.00186522 0.0132093 0)
(-0.00228166 0.0123552 0)
(-0.0031734 0.0121494 0)
(-0.0038813 0.0125278 0)
(-0.00397369 0.0125659 0)
(-0.00330491 0.011203 0)
(-0.00238208 0.00697542 0)
(-0.00388886 -0.000665334 0)
(-0.00796621 -0.00452068 0)
(-0.00971788 0.00102349 0)
(-0.00464965 0.0117952 0)
(0.00166193 0.0148363 0)
(-0.00070284 -0.028478 0)
(-0.00233424 -0.0245618 0)
(-0.00503783 -0.0221526 0)
(-0.00912331 -0.0199006 0)
(-0.0138613 -0.0156239 0)
(-0.0176424 -0.00927597 0)
(-0.0194528 -0.00199181 0)
(-0.0192867 0.00439075 0)
(-0.0178225 0.00898754 0)
(-0.0157858 0.0116472 0)
(-0.0139427 0.0125864 0)
(-0.0127305 0.0125706 0)
(-0.0120806 0.0122903 0)
(-0.0116593 0.0121579 0)
(-0.0110434 0.0121087 0)
(-0.00998001 0.0115781 0)
(-0.00854056 0.00987419 0)
(-0.00737758 0.00637154 0)
(-0.00809112 0.00149238 0)
(-0.0107956 -0.00100597 0)
(-0.01274 0.00174113 0)
(-0.0112509 0.00799289 0)
(-0.0081729 0.0124137 0)
(-0.00271527 -0.0255278 0)
(-0.00650395 -0.021009 0)
(-0.0109693 -0.0180009 0)
(-0.0158062 -0.0151695 0)
(-0.0205452 -0.0113238 0)
(-0.0242601 -0.00636635 0)
(-0.0263433 -0.000949075 0)
(-0.0267792 0.00389919 0)
(-0.0260178 0.00755892 0)
(-0.0245999 0.00988815 0)
(-0.023031 0.0110223 0)
(-0.0216283 0.0113601 0)
(-0.0204313 0.0113245 0)
(-0.0192842 0.0111658 0)
(-0.0179754 0.0108441 0)
(-0.016421 0.0100493 0)
(-0.0147926 0.00842279 0)
(-0.0136271 0.00579356 0)
(-0.0137965 0.00269684 0)
(-0.0153375 0.00104519 0)
(-0.0167163 0.00259642 0)
(-0.0163325 0.00656943 0)
(-0.0146082 0.0104107 0)
(-0.00436125 -0.0198829 0)
(-0.00962764 -0.0157251 0)
(-0.0151611 -0.0128348 0)
(-0.0204474 -0.0101777 0)
(-0.0251919 -0.00706183 0)
(-0.0288752 -0.00338004 0)
(-0.0311698 0.000507184 0)
(-0.0320817 0.00402279 0)
(-0.0319017 0.00676529 0)
(-0.03101 0.00860002 0)
(-0.0297636 0.00959254 0)
(-0.0284058 0.00996096 0)
(-0.02702 0.00994977 0)
(-0.0255696 0.00970923 0)
(-0.0239883 0.00922972 0)
(-0.0222957 0.00836806 0)
(-0.0206746 0.00698377 0)
(-0.0194963 0.00510703 0)
(-0.0192204 0.00317199 0)
(-0.0198732 0.00216894 0)
(-0.020613 0.00310624 0)
(-0.0204231 0.00575471 0)
(-0.0192542 0.00883125 0)
(-0.00547839 -0.0124402 0)
(-0.0117241 -0.00931381 0)
(-0.0178966 -0.00706852 0)
(-0.0234294 -0.00504122 0)
(-0.0281639 -0.0028256 0)
(-0.0318257 -0.000326191 0)
(-0.0342648 0.00226212 0)
(-0.0355132 0.00461235 0)
(-0.0357703 0.00646907 0)
(-0.0353046 0.0077223 0)
(-0.0343764 0.00839341 0)
(-0.0331805 0.00859896 0)
(-0.0318199 0.00847795 0)
(-0.0303275 0.00812367 0)
(-0.0287211 0.007549 0)
(-0.0270695 0.00670828 0)
(-0.0255323 0.00557833 0)
(-0.024352 0.004258 0)
(-0.0237649 0.00306938 0)
(-0.0237636 0.00256438 0)
(-0.0239151 0.00324556 0)
(-0.0236114 0.00510814 0)
(-0.0226261 0.00752229 0)
(-0.00614618 -0.00387458 0)
(-0.0129685 -0.00221295 0)
(-0.0194732 -0.000979025 0)
(-0.0250964 0.000149775 0)
(-0.0297792 0.00137251 0)
(-0.0333966 0.00276129 0)
(-0.0359097 0.00420891 0)
(-0.0373734 0.00552498 0)
(-0.0379373 0.00654617 0)
(-0.0377986 0.0071883 0)
(-0.0371542 0.00744918 0)
(-0.0361648 0.00738755 0)
(-0.0349389 0.00708239 0)
(-0.0335448 0.00659477 0)
(-0.0320412 0.0059501 0)
(-0.0305134 0.00515312 0)
(-0.0290899 0.00423377 0)
(-0.0279271 0.00330055 0)
(-0.0271473 0.00258053 0)
(-0.0267249 0.00239689 0)
(-0.0264156 0.0030082 0)
(-0.0258675 0.00441549 0)
(-0.0248555 0.00629637 0)
(-0.00645235 0.00534889 0)
(-0.013516 0.00524907 0)
(-0.0201286 0.00523588 0)
(-0.025716 0.00530915 0)
(-0.03029 0.00549522 0)
(-0.033821 0.00583315 0)
(-0.0363393 0.00625524 0)
(-0.0379183 0.00664335 0)
(-0.038681 0.00688895 0)
(-0.0387803 0.00692749 0)
(-0.0383715 0.00674533 0)
(-0.0375896 0.00636904 0)
(-0.0365403 0.00584328 0)
(-0.035305 0.00520975 0)
(-0.0339577 0.00449799 0)
(-0.0325825 0.00373435 0)
(-0.0312789 0.00296633 0)
(-0.030148 0.00228875 0)
(-0.0292533 0.00185628 0)
(-0.0285662 0.00185839 0)
(-0.0279374 0.00243238 0)
(-0.0271521 0.00356362 0)
(-0.0260509 0.00505152 0)
(-0.00648785 0.0148017 0)
(-0.0135376 0.0127878 0)
(-0.0200643 0.0114082 0)
(-0.0254958 0.0103459 0)
(-0.0298917 0.00948824 0)
(-0.0332837 0.0088328 0)
(-0.0357436 0.00832233 0)
(-0.0373569 0.0078732 0)
(-0.0382321 0.00740704 0)
(-0.038494 0.00687177 0)
(-0.0382693 0.00624801 0)
(-0.037673 0.0055441 0)
(-0.0368027 0.00478431 0)
(-0.0357406 0.00399719 0)
(-0.0345612 0.00321051 0)
(-0.0333396 0.0024558 0)
(-0.0321517 0.00178017 0)
(-0.0310634 0.00125755 0)
(-0.0301079 0.000989718 0)
(-0.0292594 0.00108597 0)
(-0.0284234 0.0016153 0)
(-0.0274683 0.00255434 0)
(-0.0262907 0.0037707 0)
(-0.00628522 0.0240857 0)
(-0.0131196 0.0201616 0)
(-0.0194084 0.0173863 0)
(-0.0245775 0.0151676 0)
(-0.0287269 0.0132907 0)
(-0.0319273 0.0117043 0)
(-0.0342738 0.0103444 0)
(-0.035858 0.00914016 0)
(-0.0367786 0.00802758 0)
(-0.0371417 0.00696082 0)
(-0.0370532 0.00591672 0)
(-0.0366115 0.00489245 0)
(-0.0359036 0.00389904 0)
(-0.0350055 0.00295486 0)
(-0.0339854 0.00208232 0)
(-0.0329069 0.00130955 0)
(-0.0318274 0.00067528 0)
(-0.0307907 0.000232445 0)
(-0.0298145 4.50409e-05 0)
(-0.0288783 0.000173461 0)
(-0.0279217 0.000647699 0)
(-0.0268636 0.00144122 0)
(-0.0256392 0.00246313 0)
(-0.00590308 0.0329651 0)
(-0.0123441 0.0271973 0)
(-0.0182553 0.0230433 0)
(-0.0230636 0.0196914 0)
(-0.0269036 0.0168451 0)
(-0.0298654 0.0143976 0)
(-0.0320535 0.0122685 0)
(-0.0335602 0.0103872 0)
(-0.0344761 0.00869406 0)
(-0.0348928 0.00714471 0)
(-0.0349 0.00571242 0)
(-0.0345816 0.00438646 0)
(-0.0340131 0.0031683 0)
(-0.0332613 0.00206752 0)
(-0.0323851 0.0010994 0)
(-0.0314365 0.00028484 0)
(-0.0304589 -0.000348435 0)
(-0.0294822 -0.000765866 0)
(-0.0285163 -0.000930091 0)
(-0.027546 -0.000810941 0)
(-0.0265327 -0.000400509 0)
(-0.025426 0.000273934 0)
(-0.0241856 0.00114648 0)
(-0.00540086 0.0412098 0)
(-0.0112729 0.033726 0)
(-0.0166737 0.0282593 0)
(-0.0210359 0.0238432 0)
(-0.0245119 0.0201003 0)
(-0.0271953 0.016871 0)
(-0.0291901 0.0140542 0)
(-0.0305844 0.0115725 0)
(-0.0314598 0.00936463 0)
(-0.0318954 0.00738474 0)
(-0.0319671 0.00560204 0)
(-0.0317456 0.00399939 0)
(-0.0312947 0.00257051 0)
(-0.030671 0.00131716 0)
(-0.0299234 0.000246962 0)
(-0.0290937 -0.000627574 0)
(-0.0282143 -0.0012897 0)
(-0.0273061 -0.00171984 0)
(-0.0263749 -0.0018993 0)
(-0.0254102 -0.00181692 0)
(-0.0243872 -0.00147741 0)
(-0.0232741 -0.000907915 0)
(-0.0220457 -0.000159282 0)
(-0.00479777 0.0486347 0)
(-0.00995318 0.039591 0)
(-0.0147311 0.0329312 0)
(-0.0185731 0.0275569 0)
(-0.0216364 0.0230122 0)
(-0.0240089 0.0190914 0)
(-0.0257851 0.0156719 0)
(-0.0270435 0.0126667 0)
(-0.027855 0.0100103 0)
(-0.0282864 0.00765325 0)
(-0.0284008 0.00556059 0)
(-0.0282566 0.00370952 0)
(-0.0279063 0.0020872 0)
(-0.0273962 0.000688353 0)
(-0.0267658 -0.000486711 0)
(-0.0260475 -0.00143363 0)
(-0.0252656 -0.00214536 0)
(-0.0244347 -0.00261407 0)
(-0.0235586 -0.00283416 0)
(-0.0226298 -0.00280664 0)
(-0.0216324 -0.00254376 0)
(-0.020546 -0.00207219 0)
(-0.0193542 -0.00143364 0)
(-0.00409616 0.0550845 0)
(-0.00842633 0.0446686 0)
(-0.0124932 0.0369721 0)
(-0.0157501 0.030774 0)
(-0.0183604 0.0255441 0)
(-0.0203987 0.0210344 0)
(-0.0219407 0.0171022 0)
(-0.0230501 0.0136519 0)
(-0.0237847 0.0106131 0)
(-0.0241986 0.00793262 0)
(-0.0243425 0.00557141 0)
(-0.0242632 0.00350175 0)
(-0.0240023 0.00170519 0)
(-0.0235964 0.000170353 0)
(-0.0230761 -0.00110899 0)
(-0.0224659 -0.00213563 0)
(-0.0217835 -0.00291056 0)
(-0.0210391 -0.00343487 0)
(-0.0202351 -0.00371215 0)
(-0.0193661 -0.00375131 0)
(-0.0184216 -0.00356922 0)
(-0.0173883 -0.00319218 0)
(-0.016255 -0.0026564 0)
(-0.00331425 0.0604233 0)
(-0.00673081 0.048865 0)
(-0.0100167 0.0403076 0)
(-0.0126382 0.0334466 0)
(-0.0147693 0.0276709 0)
(-0.0164623 0.0226861 0)
(-0.0177648 0.0183359 0)
(-0.0187211 0.0145198 0)
(-0.0193742 0.0111644 0)
(-0.0197651 0.00821375 0)
(-0.0199326 0.00562533 0)
(-0.0199119 0.00336738 0)
(-0.0197346 0.00141681 0)
(-0.0194279 -0.000242815 0)
(-0.0190146 -0.00162314 0)
(-0.0185122 -0.00273281 0)
(-0.0179333 -0.0035791 0)
(-0.0172844 -0.00416975 0)
(-0.0165669 -0.00451473 0)
(-0.0157768 -0.00462815 0)
(-0.0149069 -0.00452975 0)
(-0.0139481 -0.00424558 0)
(-0.0128925 -0.00380852 0)
(-0.0024563 0.064542 0)
(-0.00489319 0.0521124 0)
(-0.00735464 0.04288 0)
(-0.009312 0.0355437 0)
(-0.0109569 0.0293827 0)
(-0.0123074 0.0240442 0)
(-0.013374 0.0193726 0)
(-0.01418 0.0152698 0)
(-0.0147531 0.0116627 0)
(-0.0151213 0.00849405 0)
(-0.0153113 0.00571902 0)
(-0.0153475 0.0033028 0)
(-0.0152518 0.00121877 0)
(-0.0150427 -0.000553364 0)
(-0.0147359 -0.00202941 0)
(-0.0143429 -0.00322243 0)
(-0.0138718 -0.00414438 0)
(-0.0133266 -0.00480769 0)
(-0.0127075 -0.00522671 0)
(-0.0120114 -0.00541896 0)
(-0.0112331 -0.00540599 0)
(-0.0103659 -0.00521368 0)
(-0.00940433 -0.00487272 0)
(-0.00143625 0.0673288 0)
(-0.00287363 0.0543795 0)
(-0.00454594 0.0446867 0)
(-0.00586619 0.037064 0)
(-0.00703853 0.0306847 0)
(-0.00805579 0.0251155 0)
(-0.00889458 0.0202181 0)
(-0.00955657 0.0159063 0)
(-0.0100545 0.0121109 0)
(-0.0104033 0.00877511 0)
(-0.0106177 0.00585292 0)
(-0.0107116 0.0033077 0)
(-0.0106975 0.00111057 0)
(-0.0105861 -0.00076132 0)
(-0.0103863 -0.00232657 0)
(-0.0101046 -0.00360122 0)
(-0.00974532 -0.00460039 0)
(-0.0093102 -0.00533962 0)
(-0.0087986 -0.00583613 0)
(-0.00820782 -0.00610962 0)
(-0.00753381 -0.00618276 0)
(-0.0067717 -0.00608125 0)
(-0.00591734 -0.00583425 0)
(-0.000142217 0.0686671 0)
(-0.000639555 0.0556741 0)
(-0.00163571 0.045801 0)
(-0.00239445 0.0380556 0)
(-0.00313752 0.0315948 0)
(-0.00383652 0.025911 0)
(-0.00445659 0.0208804 0)
(-0.00498213 0.0164358 0)
(-0.00541109 0.0125141 0)
(-0.00574504 0.00906049 0)
(-0.00598686 0.00602921 0)
(-0.00614003 0.00338319 0)
(-0.00620808 0.00109273 0)
(-0.00619436 -0.000866167 0)
(-0.00610171 -0.00251343 0)
(-0.00593222 -0.00386667 0)
(-0.00568701 -0.00494274 0)
(-0.00536597 -0.00575902 0)
(-0.00496777 -0.0063344 0)
(-0.00448993 -0.00668988 0)
(-0.00392918 -0.00684879 0)
(-0.00328173 -0.00683663 0)
(-0.00254441 -0.0066814 0)
(0.00121648 0.0680348 0)
(0.00163737 0.0561847 0)
(0.0012738 0.0463271 0)
(0.00100215 0.0385981 0)
(0.000634395 0.0321473 0)
(0.000229233 0.0264454 0)
(-0.000183989 0.0213692 0)
(-0.000582306 0.016866 0)
(-0.000949376 0.0128782 0)
(-0.00127339 0.00935424 0)
(-0.00154545 0.00625022 0)
(-0.00175891 0.00353023 0)
(-0.00190886 0.00116527 0)
(-0.00199172 -0.000868236 0)
(-0.00200495 -0.0025901 0)
(-0.00194669 -0.00401809 0)
(-0.00181542 -0.00516951 0)
(-0.00160959 -0.0060624 0)
(-0.00132737 -0.00671643 0)
(-0.000966457 -0.00715329 0)
(-0.000524117 -0.00739664 0)
(2.68991e-06 -0.00747179 0)
(0.000616546 -0.00740582 0)
(0.00237908 0.06568 0)
(0.00369692 0.0558176 0)
(0.00400435 0.0462981 0)
(0.0041842 0.0387413 0)
(0.00416787 0.0323769 0)
(0.00403451 0.0267368 0)
(0.00381181 0.0216975 0)
(0.00352895 0.0172061 0)
(0.0032157 0.0132095 0)
(0.00289688 0.0096601 0)
(0.00259258 0.00651751 0)
(0.00231898 0.00374863 0)
(0.0020889 0.00132679 0)
(0.00191227 -0.000769597 0)
(0.00179647 -0.00255875 0)
(0.0017468 -0.00405725 0)
(0.00176693 -0.00528159 0)
(0.00185944 -0.00624949 0)
(0.00202641 -0.00698067 0)
(0.00226985 -0.00749704 0)
(0.00259206 -0.00782248 0)
(0.00299561 -0.00798218 0)
(0.00348282 -0.00800247 0)
(0.00312869 0.0620331 0)
(0.00530611 0.0544945 0)
(0.00635733 0.0456932 0)
(0.00702021 0.0384791 0)
(0.00736217 0.0322979 0)
(0.0074849 0.0268048 0)
(0.00743374 0.0218806 0)
(0.00725293 0.0174668 0)
(0.00698536 0.0135144 0)
(0.00666765 0.00998102 0)
(0.0063302 0.00683135 0)
(0.00599796 0.00403663 0)
(0.00569106 0.00157411 0)
(0.0054252 -0.000574336 0)
(0.00521212 -0.00242386 0)
(0.00506008 -0.00398849 0)
(0.00497442 -0.00528278 0)
(0.00495834 -0.00632317 0)
(0.00501375 -0.00712881 0)
(0.00514222 -0.00772164 0)
(0.0053456 -0.00812575 0)
(0.00562624 -0.00836643 0)
(0.0059865 -0.00846951 0)
(0.00346109 0.0575206 0)
(0.00641258 0.0522642 0)
(0.00823046 0.0444616 0)
(0.00942077 0.0377722 0)
(0.0101316 0.0319119 0)
(0.0104969 0.0266658 0)
(0.0106014 0.0219331 0)
(0.0105107 0.0176581 0)
(0.0102816 0.0137984 0)
(0.00996166 0.010319 0)
(0.00959092 0.00719083 0)
(0.00920242 0.00439115 0)
(0.00882297 0.00190253 0)
(0.00847359 -0.00028824 0)
(0.00816994 -0.00219185 0)
(0.00792279 -0.00381842 0)
(0.00773874 -0.00517939 0)
(0.00762109 -0.00628903 0)
(0.00757116 -0.0071654 0)
(0.00758966 -0.00783038 0)
(0.00767797 -0.00830864 0)
(0.00783842 -0.00862589 0)
(0.00807387 -0.00880779 0)
(0.00353313 0.0525217 0)
(0.0071434 0.0492508 0)
(0.00966127 0.0425944 0)
(0.0113558 0.0366074 0)
(0.01242 0.0312239 0)
(0.013015 0.0263321 0)
(0.0132618 0.0218669 0)
(0.0132503 0.0177885 0)
(0.0130521 0.0140665 0)
(0.0127262 0.0106755 0)
(0.0123216 0.00759466 0)
(0.0118789 0.00480864 0)
(0.0114311 0.00230673 0)
(0.011004 8.204e-05 0)
(0.0106169 -0.0018703 0)
(0.0102828 -0.00355517 0)
(0.010009 -0.00497963 0)
(0.00979849 -0.00615479 0)
(0.00965125 -0.00709716 0)
(0.00956665 -0.00782878 0)
(0.00954543 -0.00837546 0)
(0.00959026 -0.00876407 0)
(0.00970497 -0.00902046 0)
(0.00351462 0.0472693 0)
(0.00764505 0.0455973 0)
(0.0107417 0.0401627 0)
(0.0128689 0.0350269 0)
(0.0142402 0.0302579 0)
(0.0150342 0.0258218 0)
(0.0154009 0.0216968 0)
(0.0154519 0.017869 0)
(0.0152733 0.0143255 0)
(0.0149348 0.0110535 0)
(0.0144937 0.0080427 0)
(0.0139972 0.00528643 0)
(0.0134839 0.00278203 0)
(0.0129839 0.000530163 0)
(0.0125197 -0.00146691 0)
(0.0121064 -0.00320746 0)
(0.0117518 -0.00469275 0)
(0.011458 -0.0059296 0)
(0.0112227 -0.00693239 0)
(0.011043 -0.00772379 0)
(0.0109189 -0.00833203 0)
(0.0108538 -0.00878609 0)
(0.0108533 -0.00911255 0)
(0.00351966 0.0418434 0)
(0.0080378 0.0414476 0)
(0.0115798 0.0372804 0)
(0.0140429 0.0331101 0)
(0.0156486 0.0290654 0)
(0.0165897 0.0251701 0)
(0.0170387 0.0214482 0)
(0.0171254 0.0179174 0)
(0.0169484 0.0145868 0)
(0.0165862 0.0114596 0)
(0.0161026 0.00853749 0)
(0.0155502 0.00582401 0)
(0.0149719 0.00332556 0)
(0.0144016 0.0010513 0)
(0.0138648 -0.000988262 0)
(0.0133785 -0.00278345 0)
(0.0129514 -0.00432817 0)
(0.0125838 -0.00562327 0)
(0.0122701 -0.00668018 0)
(0.0120038 -0.00752315 0)
(0.0117836 -0.0081849 0)
(0.0116149 -0.00869811 0)
(0.0115059 -0.00909058 0)
(0.00358832 0.0362399 0)
(0.00838634 0.0369215 0)