/*--------------------------------*- C++ -*----------------------------------*\
  =========                 |
  \\      /  F ield         | OpenFOAM: The Open Source CFD Toolbox
   \\    /   O peration     | Website:  https://openfoam.org
    \\  /    A nd           | Version:  9
     \\/     M anipulation  |
\*---------------------------------------------------------------------------*/
FoamFile
{
    format      ascii;
    class       volScalarField;
    location    "55";
    object      epsilon;
}
// * * * * * * * * * * * * * * * * * * * * * * * * * * * * * * * * * * * * * //

dimensions      [0 2 -3 0 0 0 0];

internalField   nonuniform List<scalar> 
12225
(
285.469
270.775
257.864
243.89
232.44
223.194
216.84
212.888
212.985
214.36
217.871
221.81
229.473
234.268
244.005
248.669
261.802
269.438
52.5047
91.8652
107.077
114.807
125.15
137.074
153.449
170.792
192.786
212.963
238.495
259.484
287.01
306.343
335.037
350.904
383.67
393.92
20.3333
34.8268
44.7255
50.4458
55.5145
59.6373
64.9074
69.8165
76.8584
83.7837
92.5525
100.654
110.211
119.61
129.152
140.39
149.082
164.135
15.3548
19.6826
24.1419
27.5488
30.5529
32.8697
35.256
37.3455
39.6822
42.0969
44.6716
47.6216
50.2897
53.8881
56.5171
60.8361
63.5522
68.8492
14.653
15.8623
17.3786
19.0608
20.6634
22.0251
23.2878
24.458
25.5132
26.6755
27.6468
28.9319
29.8574
31.3177
32.2261
33.8658
34.8567
36.7863
14.7073
14.8773
15.205
15.8608
16.5776
17.2873
17.9404
18.5997
19.1483
19.7751
20.2477
20.8819
21.3094
21.9743
22.3833
23.0918
23.5149
24.3346
14.7424
14.6202
14.6253
14.7371
14.9325
15.2193
15.497
15.8167
16.083
16.4031
16.6434
16.9613
17.1802
17.5017
17.7069
18.0426
18.2421
18.6306
14.7628
14.5864
14.464
14.3805
14.3671
14.3903
14.439
14.5365
14.6223
14.7452
14.8415
14.9752
15.0707
15.212
15.3054
15.4567
15.5481
15.7312
14.7668
14.5907
14.4347
14.2959
14.1844
14.1039
14.0389
14.0067
13.9811
13.9806
13.9839
13.9974
14.0125
14.0438
14.0661
14.1089
14.1376
14.2041
14.7664
14.594
14.432
14.2818
14.1423
14.0211
13.9101
13.818
13.7352
13.6683
13.609
13.5628
13.5189
13.4897
13.4574
13.4427
13.4179
13.4219
14.7659
14.5946
14.4322
14.2802
14.1357
14.0025
13.8769
13.7627
13.656
13.5602
13.4706
13.3921
13.3169
13.2534
13.19
13.1405
13.0858
13.0505
14.7657
14.5944
14.4322
14.2798
14.135
13.9992
13.8704
13.7503
13.6364
13.531
13.431
13.3394
13.2518
13.1729
13.0962
13.0293
12.9618
12.906
14.7657
14.5942
14.4321
14.2794
14.1347
13.9984
13.869
13.7473
13.6314
13.5228
13.4192
13.3225
13.23
13.1442
13.0618
12.9862
12.9129
12.8467
14.7657
14.594
14.4319
14.2791
14.1345
13.998
13.8686
13.7463
13.6303
13.5206
13.4163
13.3178
13.2241
13.1356
13.0515
12.9722
12.8967
12.8258
14.7657
14.5939
14.4318
14.2788
14.1343
13.9976
13.8683
13.7459
13.6299
13.52
13.4157
13.3168
13.223
13.1339
13.0494
12.9693
12.8933
12.8212
14.7657
14.5938
14.4316
14.2786
14.1339
13.9974
13.8679
13.7456
13.6296
13.5198
13.4154
13.3168
13.2228
13.134
13.0494
12.9694
12.8932
12.8211
14.7657
14.5937
14.4315
14.2784
14.1338
13.9971
13.8678
13.7454
13.6295
13.5196
13.4156
13.3168
13.2232
13.1343
13.05
12.9699
12.894
12.8218
14.7657
14.5937
14.4315
14.2783
14.1337
13.9969
13.8677
13.7453
13.6295
13.5197
13.4158
13.3171
13.2237
13.1349
13.0508
12.9707
12.8949
12.8228
14.7657
14.5936
14.4314
14.2782
14.1336
13.9969
13.8677
13.7454
13.6297
13.52
13.4162
13.3177
13.2244
13.1358
13.0518
12.9719
12.8962
12.8242
14.7657
14.5936
14.4314
14.2783
14.1338
13.9971
13.868
13.7458
13.6303
13.5207
13.417
13.3186
13.2254
13.1369
13.0531
12.9733
12.8977
12.8258
14.7657
14.5937
14.4315
14.2784
14.1339
13.9975
13.8684
13.7464
13.6309
13.5216
13.418
13.3199
13.2269
13.1387
13.0551
12.9757
12.9005
12.8289
14.7657
14.5937
14.4316
14.2786
14.1343
13.9979
13.8693
13.7476
13.6329
13.5243
13.4219
13.325
13.2336
13.147
13.0655
12.988
12.9152
12.8457
14.7658
14.5936
14.4318
14.2789
14.1356
14.0008
13.8751
13.7573
13.6481
13.5457
13.4512
13.3624
13.2807
13.2035
13.133
13.0654
13.0045
12.9449
14.7655
14.5928
14.4328
14.2845
14.1518
14.0326
13.9296
13.8383
13.7602
13.6904
13.6316
13.5777
13.5333
13.4906
13.457
13.422
13.397
13.3667
14.7593
14.5931
14.4603
14.3602
14.303
14.2764
14.28
14.2911
14.3191
14.3501
14.3915
14.4285
14.4743
14.5113
14.5589
14.593
14.6424
14.6712
14.7214
14.6909
14.7536
14.9171
15.1811
15.459
15.7432
16.0062
16.2631
16.4918
16.7195
16.9176
17.1238
17.2979
17.4906
17.6456
17.8319
17.9697
14.7483
15.5121
16.5463
17.6821
18.6986
19.5606
20.3231
20.9796
21.5919
22.1325
22.6718
23.1533
23.6654
24.1145
24.6221
25.0515
25.5673
25.9824
15.9874
20.9918
25.0214
27.7565
29.7718
31.3412
32.7388
34.0102
35.2803
36.5183
37.8338
39.1239
40.5293
41.8701
43.3641
44.7467
46.3569
47.7421
29.9015
47.2072
54.8455
58.6398
61.5466
64.3395
67.4178
70.7634
74.4165
78.2964
82.4142
86.624
90.9817
95.3244
99.7331
104.024
108.305
112.441
165.792
160.085
154.889
149.576
144.467
139.694
135.591
132.113
129.232
126.938
125.24
123.948
123.182
122.645
122.557
122.637
122.92
123.38
22.6325
7.25239
8.63868
8.53237
37.1595
39.0094
39.3264
38.7659
37.4563
8.64602
8.66618
8.26531
8.61632
8.34866
8.22851
8.3586
8.71201
38.3185
40.5253
43.2645
46.3709
51.628
61.9836
79.1668
101.549
127.986
158.345
190.648
223.514
256.841
290.036
323.111
355.674
388.036
419.733
451.283
482.093
512.856
542.855
572.917
602.21
631.67
660.358
689.296
717.453
745.933
773.604
801.644
828.836
856.419
883.059
910.085
936.059
962.412
987.613
1013.18
1037.4
1061.98
1085.16
1108.68
1130.51
1152.58
1172.89
1193.84
1213.13
1232.86
1251.03
1269.15
1287.33
1306.34
1320.52
1336.18
1351.25
1359.23
1365.81
1368.15
1368.4
1363.74
1354.89
1347.42
1314.2
1317.7
1274.8
1273.69
1211.92
1203.39
1178.31
1155.28
1129.86
1103.05
1074.61
1045.27
1015.54
985.721
955.922
926.248
896.635
867.406
838.507
810.206
782.403
755.284
728.796
703.09
678.244
653.967
629.442
606.213
584.034
562.793
542.544
523.141
504.631
486.903
470.002
453.889
438.845
426.237
416.562
407.718
399.241
391.007
383.075
375.375
367.935
360.665
353.622
346.721
340.02
333.44
327.053
320.699
314.672
308.313
301.94
295.573
289.32
283.208
277.3
271.537
265.875
260.218
254.6
249.052
243.629
238.362
233.247
228.27
223.46
218.83
214.402
210.16
206.078
202.136
198.297
194.496
190.668
186.755
182.556
178.069
172.923
166.992
160.174
151.742
142.574
131.758
120.839
109.942
100.894
93.3805
88.6393
83.1005
80.1989
78.7542
79.7247
75.8348
77.2957
77.1732
77.4604
17.6605
44.5553
35.6849
31.3109
28.9639
27.7943
26.872
26.1898
25.723
25.1557
23.9547
23.2362
23.2242
24.3969
27.5791
33.0451
40.8924
51.1141
65.3192
79.3246
94.7009
111.502
129.264
147.413
165.219
181.122
194.984
207.858
219.751
231.036
242.147
251.5
260.205
268.714
277.168
285.566
294.038
302.514
311.102
319.696
328.396
337.076
345.84
354.552
363.318
372
380.706
389.295
397.877
406.306
414.698
422.901
431.035
438.949
446.776
454.358
461.827
469.022
476.105
482.909
489.589
495.991
502.321
508.464
514.666
520.798
527.12
533.594
539.935
546.174
552.316
557.818
563.919
569.177
572.21
574.169
575.002
574.458
569.396
571.479
562.976
559.04
555.611
548.736
543.527
534.348
528.919
521.022
512.867
503.892
494.234
483.96
473.166
462.033
450.634
438.994
427.024
414.739
402.528
390.423
378.494
366.791
355.348
344.164
333.297
322.733
312.459
302.382
292.719
283.426
274.507
265.937
257.713
249.809
242.223
234.935
227.965
221.373
215.36
209.994
204.993
200.208
195.59
191.128
186.815
182.642
178.596
174.667
170.846
167.128
163.501
159.971
156.507
153.11
149.648
146.184
142.747
139.358
136.032
132.76
129.554
126.408
123.293
120.202
117.147
114.142
111.199
108.324
105.516
102.781
100.127
97.5578
95.0721
92.6619
90.3123
88.0178
85.7508
83.481
81.1848
78.7987
76.307
73.6062
70.6463
67.3854
63.6649
59.6436
55.1807
50.6386
46.0171
41.9328
38.0609
35.4853
33.3758
30.8581
29.2575
28.839
26.9371
23.6435
29.0497
26.8472
21.285
73.4513
51.0611
42.2173
37.665
34.9722
33.4279
32.7836
32.9522
33.9113
35.932
39.415
44.9432
53.1295
64.3039
78.2058
93.7711
109.503
124.21
136.791
147.201
155.241
162.341
169.071
175.645
182.263
188.941
194.545
200.023
205.324
210.345
216.304
223.11
230.11
237.298
244.596
251.961
259.327
266.671
273.941
281.13
288.201
295.16
301.979
308.672
315.217
321.633
327.902
334.045
340.045
345.926
351.675
357.316
362.838
368.272
373.607
378.876
384.069
389.226
394.337
399.442
404.536
409.663
414.818
420.033
425.286
430.589
435.888
441.105
446.203
451.131
455.811
460.277
464.278
467.63
470.331
472.283
473.25
473.52
474.436
473.123
471.92
469.902
466.729
463.011
458.213
453.255
447.178
440.405
432.907
424.771
416.058
406.862
397.291
387.414
377.304
367.006
356.605
346.208
335.869
325.611
315.584
305.789
296.233
286.945
277.925
269.184
260.709
252.55
244.698
237.156
229.904
222.94
216.243
209.811
203.63
197.71
192.066
186.753
181.782
177.081
172.578
168.242
164.055
160.01
156.097
152.307
148.632
145.065
141.597
138.225
134.943
131.741
128.611
125.517
122.46
119.448
116.486
113.576
110.669
107.804
104.989
102.211
99.452
96.7194
94.0255
91.3738
88.7694
86.2123
83.7052
81.2526
78.8591
76.5235
74.2433
72.0072
69.8126
67.6446
65.4849
63.3132
61.0968
58.8137
56.4131
53.8569
51.1107
48.1201
44.915
41.4849
37.9739
34.4255
31.0998
28.024
25.3744
23.2326
21.1927
19.5002
18.6068
17.2715
15.7669
16.181
15.9455
16.2971
99.1353
64.245
53.1721
48.197
45.6375
44.5358
44.687
46.1858
49.2669
54.2687
61.5461
71.3235
83.4283
97.0718
110.895
123.285
133.03
139.877
144.914
149.149
153.593
157.654
161.63
165.836
170.196
174.92
180.591
186.653
193.061
199.818
206.992
214.437
221.994
229.565
237.105
244.575
251.934
259.159
266.225
273.123
279.838
286.374
292.724
298.896
304.89
310.72
316.386
321.906
327.284
332.54
337.68
342.725
347.686
352.585
357.434
362.256
367.065
371.885
376.726
381.613
386.553
391.565
396.65
401.815
407.052
412.353
417.682
422.992
428.25
433.414
438.439
443.282
447.843
452.032
455.783
458.992
461.584
463.588
464.704
465.496
465.849
464.998
463.111
460.3
456.545
451.981
446.443
440.047
432.852
424.929
416.368
407.26
397.699
387.778
377.585
367.206
356.723
346.22
335.752
325.349
315.186
305.249
295.561
286.14
277.003
268.157
259.61
251.374
243.449
235.831
228.51
221.478
214.723
208.239
202.018
196.057
190.359
184.936
179.783
174.869
170.155
165.619
161.243
157.019
152.935
148.984
145.156
141.445
137.843
134.345
130.945
127.635
124.408
121.248
118.149
115.112
112.135
109.217
106.345
103.524
100.755
98.0326
95.3137
92.6165
89.9552
87.3243
84.7294
82.1697
79.6479
77.1673
74.7309
72.3382
69.9891
67.6715
65.3896
63.1356
60.8961
58.6554
56.3917
54.0834
51.6967
49.2001
46.5628
43.7554
40.7791
37.6451
34.432
31.1989
28.093
25.2087
22.5999
20.3779
18.424
16.7588
15.5927
14.4708
13.4496
13.6638
13.7492
13.9146
124.469
80.1697
67.5911
62.4081
60.1375
59.5582
60.4711
63.1013
67.6182
74.1247
82.4945
92.2603
102.593
112.445
120.848
127.408
132.62
136.534
139.443
142.173
145.057
148.742
153.248
158.343
163.978
170.161
176.883
183.959
191.325
198.932
206.719
214.595
222.469
230.32
238.113
245.813
253.384
260.804
268.051
275.115
281.985
288.66
295.136
301.421
307.514
313.429
319.171
324.755
330.191
335.498
340.688
345.784
350.799
355.758
360.679
365.587
370.499
375.441
380.429
385.488
390.63
395.874
401.227
406.7
412.29
417.992
423.789
429.657
435.571
441.498
447.393
453.206
458.861
464.277
469.363
474.015
478.139
481.641
484.365
486.433
487.392
487.893
487.115
485.158
482.07
477.882
472.607
466.304
459.04
450.912
442.004
432.433
422.3
411.721
400.799
389.644
378.35
367.011
355.704
344.503
333.483
322.688
312.161
301.922
292
282.4
273.136
264.209
255.625
247.375
239.458
231.861
224.578
217.596
210.906
204.499
198.37
192.512
186.917
181.561
176.423
171.479
166.717
162.123
157.689
153.403
149.257
145.243
141.353
137.58
133.918
130.359
126.897
123.521
120.227
117.008
113.863
110.788
107.778
104.83
101.944
99.113
96.3229
93.5734
90.8657
88.1697
85.5015
82.8589
80.2438
77.658
75.1036
72.582
70.095
67.6349
65.2111
62.8158
60.4386
58.0674
55.6856
53.2736
50.805
48.2525
45.589
42.7925
39.8568
36.7949
33.6603
30.5138
27.4613
24.601
21.9848
19.6945
17.7134
16.0288
14.7551
13.607
12.8726
12.5479
12.7773
12.6795
148.142
97.285
83.6435
78.4669
76.4304
76.0247
77.0208
79.5875
83.6909
89.158
95.5809
102.363
108.864
114.526
119.533
123.323
126.156
128.843
131.955
135.563
139.789
144.713
150.278
156.397
162.966
169.927
177.202
184.731
192.523
200.538
208.715
216.986
225.3
233.602
241.846
249.999
258.03
265.916
273.636
281.178
288.527
295.679
302.629
309.379
315.93
322.289
328.462
334.463
340.301
345.995
351.557
357.009
362.369
367.661
372.905
378.129
383.354
388.609
393.917
399.304
404.793
410.409
416.169
422.092
428.188
434.463
440.916
447.539
454.313
461.207
468.18
475.174
482.113
488.909
495.456
501.635
507.321
512.383
516.689
520.12
522.473
523.665
524.151
523.094
520.675
516.927
511.881
505.592
498.146
489.632
480.174
469.889
458.909
447.364
435.388
423.104
410.633
398.083
385.55
373.121
360.871
348.862
337.141
325.744
314.695
304.013
293.709
283.79
274.259
265.113
256.345
247.946
239.903
232.205
224.837
217.787
211.043
204.592
198.419
192.506
186.832
181.38
176.132
171.078
166.204
161.5
156.955
152.56
148.307
144.188
140.195
136.322
132.559
128.9
125.337
121.866
118.482
115.181
111.957
108.807
105.729
102.716
99.7621
96.863
94.0158
91.2087
88.4394
85.6811
82.9379
80.2099
77.5004
74.8142
72.1558
69.5252
66.9257
64.3544
61.8042
59.2655
56.7248
54.1649
51.5635
48.8965
46.1402
43.2752
40.2937
37.2071
34.0565
30.9009
27.8277
24.9276
22.2627
19.8976
17.8479
16.1117
14.7477
13.5563
12.8279
12.4076
12.4696
12.3161
164.008
111.738
98.1446
93.1129
91.0958
90.4844
90.7933
92.1862
94.5677
97.7504
101.421
105.228
108.898
112.265
115.094
117.974
120.994
124.412
128.389
132.96
138.129
143.875
150.091
156.7
163.671
171.043
178.768
186.794
195.061
203.519
212.118
220.824
229.591
238.378
247.144
255.855
264.477
272.985
281.353
289.562
297.593
305.437
313.082
320.524
327.758
334.788
341.615
348.248
354.693
360.966
367.079
373.051
378.899
384.649
390.323
395.95
401.556
407.175
412.834
418.57
424.414
430.4
436.561
442.926
449.522
456.37
463.481
470.859
478.493
486.361
494.422
502.619
510.876
519.094
527.155
534.923
542.247
548.966
554.914
559.926
563.849
566.2
567.764
567.724
566.101
562.9
558.153
551.918
544.281
535.357
525.272
514.173
502.216
489.555
476.35
462.75
448.898
434.924
420.943
407.061
393.36
379.919
366.788
354.021
341.644
329.688
318.163
307.083
296.445
286.25
276.486
267.145
258.211
249.67
241.504
233.699
226.235
219.098
212.269
205.729
199.456
193.435
187.647
182.079
176.716
171.547
166.56
161.744
157.089
152.586
148.227
144.004
139.908
135.932
132.067
128.309
124.651
121.089
117.616
114.228
110.921
107.69
104.529
101.435
98.402
95.4237
92.4936
89.5972
86.7139
83.8269
80.9435
78.0736
75.2254
72.4032
69.6102
66.8457
64.105
61.3802
58.6597
55.9283
53.1664
50.353
47.4669
44.4911
41.4175
38.2558
35.041
31.8288
28.6975
25.7299
22.994
20.5474
18.4145
16.6076
15.1504
13.9165
13.0598
12.7055
12.4648
12.5348
175.382
122.019
108.458
103.552
101.385
100.267
99.7915
99.795
100.34
101.494
103.111
105.065
107.175
109.516
112.132
115.148
118.641
122.675
127.274
132.425
138.103
144.205
150.748
157.719
165.087
172.803
180.846
189.185
197.781
206.598
215.595
224.738
233.986
243.301
252.643
261.978
271.269
280.486
289.598
298.581
307.41
316.069
324.538
332.807
340.865
348.709
356.333
363.74
370.934
377.923
384.717
391.332
397.784
404.097
410.292
416.4
422.452
428.482
434.527
440.628
446.826
453.167
459.692
466.449
473.476
480.812
488.482
496.506
504.886
513.613
522.655
531.96
541.454
551.036
560.579
569.93
578.916
587.347
595.017
601.72
607.249
611.411
613.807
614.996
614.344
611.842
607.523
601.444
593.7
584.409
573.724
561.812
548.853
535.033
520.537
505.543
490.219
474.72
459.183
443.727
428.459
413.465
398.819
384.575
370.776
357.451
344.618
332.287
320.461
309.134
298.298
287.94
278.044
268.592
259.564
250.942
242.704
234.832
227.303
220.098
213.195
206.575
200.22
194.113
188.239
182.584
177.135
171.879
166.806
161.906
157.167
152.581
148.139
143.833
139.654
135.596
131.651
127.813
124.077
120.436
116.886
113.42
110.035
106.725
103.484
100.308
97.1876
94.1125
91.0648
88.0104
84.9429
81.8801
78.8341
75.812
72.8182
69.8533
66.9142
63.9944
61.0836
58.1682
55.2312
52.254
49.218
46.1081
42.9172
39.6538
36.3493
33.0568
29.8486
26.8018
23.9854
21.4545
19.2353
17.3491
15.7969
14.5082
13.5621
12.9705
12.8433
12.826
181.394
129.122
114.38
108.908
106.418
104.835
103.623
102.735
102.32
102.334
102.928
104.01
105.652
107.836
110.57
113.864
117.721
122.131
127.077
132.529
138.452
144.797
151.573
158.758
166.33
174.266
182.544
191.14
200.026
209.171
218.543
228.111
237.835
247.68
257.608
267.581
277.561
287.515
297.408
307.209
316.888
326.421
335.782
344.954
353.919
362.665
371.18
379.462
387.504
395.313
402.889
410.247
417.397
424.361
431.158
437.82
444.375
450.861
457.32
463.796
470.337
476.999
483.834
490.9
498.253
505.947
514.026
522.527
531.472
540.867
550.696
560.923
571.48
582.269
593.162
603.996
614.578
624.69
634.094
642.542
649.789
655.606
659.543
661.744
662.255
660.607
656.862
651.079
643.347
633.807
622.614
609.969
596.072
581.139
565.384
549.015
532.225
515.197
498.094
481.058
464.216
447.667
431.499
415.772
400.541
385.833
371.676
358.075
345.04
332.56
320.63
309.232
298.352
287.966
278.056
268.597
259.568
250.945
242.706
234.827
227.286
220.061
213.134
206.485
200.098
193.956
188.046
182.352
176.862
171.565
166.45
161.505
156.72
152.087
147.597
143.241
139.011
134.9
130.901
127.008
123.214
119.513
115.899
112.368
108.913
105.528
102.205
98.9339
95.6965
92.4605
89.2014
85.9423
82.6973
79.4753
76.2813
73.1168
69.9797
66.8642
63.7616
60.6592
57.5423
54.3942
51.199
47.944
44.6235
41.2457
37.8399
34.457
31.165
28.0364
25.139
22.5261
20.2241
18.2575
16.6143
15.2671
14.2178
13.5678
13.2122
13.2075
181.678
128.949
114.377
109.163
106.518
104.858
103.533
102.477
101.805
101.584
101.79
102.714
104.33
106.611
109.526
113.04
117.121
121.736
126.854
132.454
138.488
144.948
151.846
159.155
166.862
174.953
183.41
192.214
201.341
210.762
220.461
230.409
240.569
250.907
261.382
271.959
282.598
293.264
303.917
314.524
325.048
335.46
345.728
355.827
365.732
375.424
384.883
394.099
403.06
411.763
420.203
428.387
436.322
444.021
451.503
458.793
465.92
472.922
479.836
486.714
493.606
500.572
507.674
514.981
522.561
530.485
538.815
547.609
556.909
566.742
577.116
588.011
599.377
611.128
623.14
635.247
647.246
658.894
669.922
680.042
688.959
696.388
702.028
705.488
707.115
706.412
703.365
698.01
690.44
680.784
669.233
655.989
641.286
625.365
608.473
590.848
572.714
554.28
535.732
517.234
498.925
480.922
463.319
446.192
429.596
413.57
398.14
383.32
369.113
355.518
342.523
330.113
318.271
306.974
296.198
285.921
276.116
266.758
257.823
249.286
241.123
233.312
225.829
218.655
211.771
205.16
198.804
192.689
186.8
181.124
175.649
170.361
165.251
160.308
155.521
150.882
146.381
142.01
137.762
133.628
129.6
125.673
121.84
118.094
114.429
110.837
107.311
103.838
100.401
96.9667
93.512
90.0583
86.6192
83.2033
79.8159
76.4588
73.1303
69.8255
66.5362
63.2514
59.9576
56.6404
53.2861
49.8841
46.4309
42.9355
39.4263
35.9523
32.578
29.3721
26.3994
23.7114
21.3347
19.2922
17.569
16.1543
15.0191
14.2731
13.81
13.617
180.298
125.822
111.236
106.039
103.784
102.384
101.242
100.298
99.6864
99.518
99.9229
101.018
102.804
105.255
108.334
111.998
116.209
120.935
126.152
131.824
137.927
144.451
151.383
158.726
166.476
174.622
183.155
192.061
201.327
210.945
220.901
231.156
241.676
252.427
263.371
274.471
285.687
296.988
308.331
319.68
330.994
342.239
353.376
364.376
375.207
385.845
396.261
406.437
416.354
425.999
435.363
444.444
453.239
461.758
470.01
478.018
485.802
493.399
500.843
508.184
515.471
522.769
530.141
537.664
545.415
553.481
561.939
570.866
580.327
590.372
601.032
612.312
624.184
636.581
649.391
662.456
675.568
688.472
700.872
712.443
722.852
731.77
738.888
743.76
746.436
746.705
744.412
739.571
732.265
722.644
710.891
697.236
681.933
665.253
647.466
628.837
609.612
590.022
570.267
550.532
530.966
511.704
492.85
474.491
456.685
439.481
422.906
406.98
391.707
377.089
363.113
349.768
337.032
324.886
313.303
302.259
291.726
281.68
272.093
262.94
254.194
245.833
237.832
230.169
222.823
215.776
209.008
202.504
196.246
190.222
184.415
178.814
173.406
168.18
163.123
158.227
153.48
148.873
144.396
140.042
135.802
131.667
127.63
123.684
119.821
116.033
112.31
108.639
105.001
101.363
97.7154
94.0749
90.4519
86.8538
83.2852
79.7477
76.2398
72.7571
69.2923
65.8353
62.3741
58.8963
55.3901
51.8474
48.2664
44.6578
41.0505
37.4921
34.0436
30.77
27.7328
24.9809
22.5406
20.4308
18.6404
17.1555
15.949
15.0624
14.4807
14.3952
176.937
119.86
105.372
100.287
98.2424
97.2415
96.6141
96.2331
96.1527
96.4655
97.3041
98.7316
100.771
103.411
106.627
110.384
114.653
119.405
124.622
130.287
136.384
142.902
149.835
157.181
164.94
173.109
181.68
190.649
200.003
209.721
219.79
230.189
240.893
251.873
263.102
274.564
286.23
298.045
309.963
321.945
333.948
345.932
357.853
369.682
381.382
392.922
404.269
415.394
426.272
436.882
447.208
457.238
466.961
476.379
485.493
494.315
502.863
511.162
519.243
527.15
534.929
542.64
550.347
558.129
566.067
574.255
582.786
591.751
601.233
611.304
622.019
633.407
645.466
658.151
671.373
684.986
698.793
712.533
725.89
738.513
750.038
760.109
768.361
774.421
778.101
779.154
777.55
773.21
766.231
756.773
745.021
731.209
715.605
698.493
680.159
660.881
640.922
620.524
599.905
579.257
558.748
538.517
518.69
499.356
480.583
462.422
444.906
428.059
411.89
396.401
381.586
367.431
353.919
341.028
328.734
317.012
305.834
295.175
285.006
275.303
266.038
257.188
248.725
240.628
232.872
225.438
218.307
211.459
204.878
198.547
192.452
186.578
180.911
175.438
170.148
165.028
160.068
155.256
150.583
146.038
141.611
137.294
133.077
128.952
124.911
120.943
117.036
113.177
109.342
105.509
101.682
97.8693
94.0785
90.3148
86.5818
82.8806
79.2097
75.5652
71.9403
68.3261
64.7122
61.0875
57.4426
53.7712
50.0739
46.3634
42.67
39.0396
35.5304
32.2036
29.1165
26.3151
23.825
21.6607
19.8135
18.2692
16.9894
16.01
15.2804
15.2147
169.736
113.847
98.636
93.4406
91.5944
91.0209
90.9684
91.216
91.7608
92.6591
93.9868
95.7967
98.116
100.946
104.276
108.086
112.359
117.076
122.227
127.801
133.793
140.2
147.023
154.263
161.923
170.008
178.519
187.453
196.796
206.537
216.661
227.153
237.989
249.141
260.581
272.271
284.182
296.288
308.549
320.931
333.398
345.932
358.501
371.047
383.521
395.886
408.104
420.14
431.952
443.523
454.826
465.842
476.55
486.941
497.007
506.752
516.182
525.316
534.174
542.791
551.207
559.473
567.648
575.806
584.025
592.403
601.036
610.027
619.47
629.454
640.049
651.309
663.253
675.861
689.066
702.746
716.722
730.752
744.492
757.568
769.607
780.214
789.018
795.697
799.982
801.53
800.477
796.612
790.049
780.896
769.355
755.666
740.096
722.931
704.461
684.963
664.711
643.948
622.901
601.763
580.716
559.894
539.463
519.503
500.09
481.274
463.098
445.586
428.756
412.612
397.153
382.368
368.243
354.757
341.89
329.615
317.909
306.743
296.091
285.93
276.234
266.975
258.13
249.671
241.576
233.822
226.39
219.259
212.411
205.83
199.499
193.401
187.524
181.852
176.372
171.072
165.94
160.963
156.13
151.429
146.85
142.382
138.014
133.737
129.541
125.413
121.341
117.306
113.289
109.287
105.303
101.341
97.4034
93.4954
89.6189
85.7745
81.9609
78.1743
74.4087
70.6564
66.9082
63.1549
59.3889
55.6061
51.8094
48.0142
44.2519
40.5673
37.0153
33.6532
30.5342
27.7005
25.176
22.972
21.0793
19.487
18.1454
17.082
16.2692
16.1357
163.032
106.997
91.5547
86.2986
84.634
84.4196
84.8807
85.7308
86.8844
88.3459
90.152
92.337
94.9269
97.931
101.351
105.181
109.416
114.049
119.076
124.497
130.315
136.532
143.155
150.19
157.642
165.519
173.824
182.559
191.718
201.297
211.285
221.675
232.45
243.599
255.091
266.893
278.977
291.315
303.871
316.609
329.478
342.434
355.448
368.49
381.522
394.509
407.417
420.234
432.923
445.428
457.712
469.743
481.49
492.927
504.042
514.828
525.277
535.398
545.203
554.714
563.959
572.979
581.819
590.542
599.219
607.937
616.793
625.89
635.324
645.192
655.575
666.535
678.108
690.289
703.028
716.227
729.746
743.268
756.348
768.75
780.194
790.333
798.824
805.358
809.655
811.248
810.394
806.776
800.561
791.841
780.781
767.589
752.51
735.814
717.772
698.653
678.72
658.209
637.33
616.312
595.315
574.436
553.859
533.707
514.057
494.967
476.48
458.629
441.435
424.91
409.057
393.873
379.345
365.459
352.195
339.532
327.446
315.912
304.903
294.402
284.385
274.825
265.694
256.968
248.621
240.63
232.976
225.636
218.593
211.828
205.325
199.065
193.035
187.219
181.603
176.173
170.916
165.82
160.87
156.055
151.362
146.778
142.293
137.895
133.571
129.307
125.087
120.898
116.738
112.602
108.491
104.406
100.348
96.3206
92.3249
88.3611
84.428
80.5221
76.6384
72.7702
68.9097
65.0496
61.184
57.3111
53.4367
49.5789
45.7696
42.0524
38.4791
35.1028
31.9722
29.1254
26.5837
24.3558
22.4307
20.7994
19.4121
18.2797
17.3364
17.1418
151.732
99.0263
84.3348
79.3202
77.8714
77.9709
78.8598
80.2022
81.8661
83.8107
86.0377
88.5595
91.3925
94.5469
98.0319
101.851
106.009
110.509
115.359
120.564
126.134
132.08
138.411
145.139
152.275
159.828
167.805
176.213
185.054
194.327
204.029
214.154
224.692
235.633
246.955
258.639
270.66
282.993
295.611
308.486
321.589
334.873
348.302
361.84
375.448
389.088
402.709
416.245
429.676
442.981
456.126
469.088
481.868
494.415
506.681
518.636
530.254
541.535
552.482
563.102
573.409
583.426
593.183
602.723
612.101
621.386
630.663
640.023
649.559
659.356
669.493
680.031
691.006
702.413
714.21
726.3
738.551
750.443
761.952
773.04
783.293
792.359
799.923
805.716
809.5
810.744
809.733
806.094
800.05
791.661
781.047
768.388
753.901
737.831
720.425
701.938
682.611
662.672
642.312
621.761
601.165
580.581
560.361
540.541
521.157
502.266
483.909
466.131
448.953
432.399
416.477
401.19
386.533
372.496
359.065
346.225
333.951
322.228
311.02
300.325
290.124
280.391
271.097
262.216
253.722
245.595
237.812
230.352
223.197
216.328
209.726
203.376
197.26
191.364
185.67
180.166
174.84
169.676
164.659
159.774
155.009
150.35
145.783
141.295
136.872
132.496
128.164
123.871
119.61
115.378
111.173
106.996
102.847
98.728
94.6401
90.5833
86.5563
82.5566
78.5799
74.6208
70.673
66.7307
62.7903
58.8525
54.9259
51.0313
47.2006
43.4759
39.9054
36.5382
33.4182
30.5786
28.038
25.802
23.8588
22.1976
20.7759
19.5892
18.5526
18.2092
139.237
90.8768
77.2772
72.6687
71.4709
71.8561
73.0813
74.8131
76.8872
79.2296
81.8125
84.626
87.6737
90.9597
94.4941
98.2842
102.343
106.68
111.311
116.249
121.511
127.113
133.071
139.402
146.121
153.243
160.779
168.742
177.137
185.973
195.248
204.965
215.118
225.703
236.705
248.115
259.912
272.08
284.596
297.436
310.574
323.979
337.616
351.454
365.456
379.587
393.807
408.084
422.373
436.633
450.821
464.89
478.768
492.439
505.878
519.104
532.057
544.699
557.015
569.001
580.645
591.952
602.923
613.581
623.948
634.071
644.004
653.818
663.579
673.359
683.211
693.184
703.294
713.534
723.849
734.142
743.941
753.666
762.959
771.509
779.169
785.704
790.925
794.65
796.746
796.839
794.925
790.862
784.822
776.803
766.872
755.143
741.77
726.937
710.848
693.706
675.719
657.079
637.961
618.552
599.003
579.349
559.896
540.713
521.881
503.461
485.51
468.069
451.173
434.846
419.103
403.952
389.396
375.427
362.04
349.222
336.951
325.216
313.959
303.241
293.029
283.284
273.977
265.082
256.575
248.434
240.64
233.171
226.008
219.132
212.526
206.172
200.053
194.154
188.453
182.943
177.607
172.43
167.397
162.492
157.698
153.004
148.392
143.843
139.357
134.922
130.532
126.18
121.861
117.57
113.307
109.069
104.86
100.678
96.526
92.4032
88.3092
84.2421
80.1988
76.1751
72.1664
68.1687
64.1805
60.2055
56.2555
52.3525
48.5284
44.8233
41.282
37.9488
34.8623
32.051
29.5299
27.3013
25.3534
23.6723
22.2233
20.9951
19.9048
19.2186
126.631
83.4524
71.0231
66.916
66.0122
66.6353
68.1276
70.1611
72.556
75.2184
78.0991
81.1696
84.4195
87.8428
91.4441
95.23
99.2146
103.412
107.844
112.527
117.485
122.74
128.314
134.228
140.504
147.161
154.217
161.687
169.585
177.924
186.709
195.947
205.639
215.785
226.381
237.42
248.892
260.787
273.088
285.78
298.841
312.25
325.98
340.006
354.295
368.818
383.538
398.423
413.43
428.523
443.652
458.773
473.832
488.8
503.632
518.254
532.621
546.742
560.588
574.127
587.317
600.136
612.552
624.555
636.135
647.29
658.05
668.428
678.475
688.201
697.65
706.806
715.683
724.228
732.395
739.682
746.753
753.121
758.67
763.309
767.034
769.732
771.318
771.78
771.142
769.093
765.522
760.59
754.238
746.432
737.175
726.5
714.486
701.235
686.883
671.571
655.454
638.677
621.391
603.736
585.852
567.85
549.865
532.002
514.353
496.99
479.978
463.368
447.204
431.518
416.335
401.671
387.538
373.936
360.867
348.324
336.293
324.769
313.688
303.129
293.051
283.425
274.227
265.432
257.02
248.97
241.263
233.878
226.796
219.997
213.466
207.186
201.137
195.303
189.661
184.214
178.94
173.817
168.832
163.966
159.196
154.515
149.912
145.372
140.889
136.454
132.059
127.698
123.365
119.058
114.773
110.512
106.276
102.065
97.8807
93.7236
89.5936
85.4901
81.4112
77.3539
73.3154
69.2938
65.2902
61.3112
57.3709
53.4925
49.7073
46.0533
42.5711
39.3
36.273
33.5131
31.0316
28.8277
26.8897
25.2003
23.7334
22.4665
21.359
20.4359
115.167
76.8964
65.7942
62.2821
61.7328
62.6114
64.3915
66.7268
69.4443
72.4365
75.6374
79.0061
82.5267
86.1696
89.9295
93.8095
97.8232
101.987
106.324
110.857
115.614
120.621
125.905
131.494
137.414
143.688
150.339
157.388
164.847
172.749
181.1
189.908
199.18
208.921
219.133
229.816
240.969
252.585
264.657
277.176
290.129
303.503
317.278
331.436
345.951
360.8
375.949
391.37
407.026
422.885
438.896
455.006
471.167
487.327
503.427
519.367
535.171
550.793
566.184
581.289
596.048
610.391
624.263
637.61
650.368
662.516
673.994
684.814
694.923
704.338
712.991
720.878
727.919
734.112
738.963
743.029
746.147
748.122
748.948
748.6
747.565
745.578
742.81
739.412
735.411
730.794
725.512
719.537
712.801
705.212
696.697
687.205
676.72
665.263
652.891
639.68
625.721
611.114
595.968
580.393
564.503
548.404
532.201
515.991
499.861
483.888
468.142
452.68
437.554
422.804
408.463
394.557
381.103
368.114
355.595
343.55
331.973
320.861
310.199
299.99
290.222
280.878