/*--------------------------------*- C++ -*----------------------------------*\
  =========                 |
  \\      /  F ield         | OpenFOAM: The Open Source CFD Toolbox
   \\    /   O peration     | Website:  https://openfoam.org
    \\  /    A nd           | Version:  9
     \\/     M anipulation  |
\*---------------------------------------------------------------------------*/
FoamFile
{
    format      ascii;
    class       volScalarField;
    location    "55";
    object      k;
}
// * * * * * * * * * * * * * * * * * * * * * * * * * * * * * * * * * * * * * //

dimensions      [0 2 -2 0 0 0 0];

internalField   nonuniform List<scalar> 
12225
(
0.362771
0.344085
0.327682
0.309915
0.295371
0.283613
0.275545
0.270516
0.270654
0.272323
0.276871
0.28176
0.291544
0.297935
0.309565
0.317182
0.330923
0.336383
0.44025
0.468799
0.46165
0.448599
0.450636
0.458807
0.475321
0.499832
0.5264
0.554846
0.58462
0.611124
0.640441
0.662035
0.69047
0.705793
0.73807
0.745056
0.390381
0.417869
0.420229
0.416861
0.411649
0.407934
0.408189
0.410333
0.415226
0.421915
0.432211
0.440934
0.454
0.463739
0.477751
0.488634
0.502192
0.517017
0.377031
0.387176
0.391457
0.391346
0.390268
0.387913
0.385721
0.384129
0.383059
0.383089
0.383686
0.384759
0.387137
0.389193
0.392367
0.39611
0.39924
0.40519
0.374431
0.3761
0.378419
0.378665
0.378271
0.377193
0.375502
0.373721
0.372054
0.370464
0.369371
0.368151
0.36764
0.367026
0.366896
0.366967
0.367326
0.368164
0.373778
0.372708
0.372657
0.372359
0.371762
0.370796
0.369545
0.368045
0.366564
0.36493
0.363534
0.362024
0.360778
0.359559
0.358476
0.357603
0.356708
0.356263
0.373775
0.371741
0.370386
0.369276
0.368225
0.367089
0.365895
0.364543
0.363205
0.361746
0.360373
0.358953
0.357612
0.356319
0.355062
0.35394
0.352801
0.351887
0.373819
0.37156
0.369634
0.367968
0.36649
0.365084
0.36375
0.362385
0.361061
0.3597
0.358378
0.357056
0.355764
0.354516
0.353286
0.35214
0.350995
0.349976
0.373832
0.371554
0.369449
0.367519
0.365767
0.364132
0.362617
0.361158
0.359767
0.358407
0.357091
0.355809
0.354558
0.353353
0.352173
0.351055
0.349955
0.348936
0.373832
0.371561
0.369418
0.3674
0.36552
0.363755
0.362107
0.360547
0.359073
0.357665
0.356317
0.355026
0.353781
0.352589
0.351435
0.350338
0.34927
0.348271
0.37383
0.371562
0.369414
0.367376
0.365451
0.363631
0.361915
0.360291
0.358754
0.357296
0.355909
0.354588
0.353326
0.352124
0.350971
0.349876
0.348822
0.347829
0.373829
0.37156
0.36941
0.367369
0.365434
0.363598
0.361857
0.360206
0.35864
0.357153
0.35574
0.354395
0.353115
0.351897
0.350735
0.349633
0.348576
0.347581
0.373828
0.371558
0.369407
0.367365
0.365427
0.363586
0.361837
0.360175
0.358595
0.357095
0.355665
0.354308
0.353013
0.351785
0.350612
0.349501
0.348439
0.347437
0.373827
0.371556
0.369403
0.367361
0.365421
0.363579
0.361827
0.360162
0.358579
0.357071
0.355637
0.354271
0.352972
0.351734
0.350558
0.349438
0.348374
0.347362
0.373827
0.371555
0.369401
0.367356
0.365416
0.363572
0.361821
0.360155
0.358571
0.357062
0.355628
0.35426
0.35296
0.351721
0.350543
0.349422
0.348356
0.347342
0.373826
0.371554
0.369398
0.367353
0.365411
0.363568
0.361815
0.360151
0.358565
0.35706
0.355623
0.35426
0.352958
0.351723
0.350544
0.349427
0.348359
0.347348
0.373826
0.371552
0.369396
0.36735
0.365408
0.363564
0.361812
0.360147
0.358564
0.357057
0.355625
0.354261
0.352964
0.351729
0.350555
0.349436
0.348373
0.347361
0.373826
0.371551
0.369394
0.367347
0.365406
0.363561
0.36181
0.360145
0.358564
0.357059
0.355629
0.354266
0.352973
0.351739
0.350568
0.349451
0.34839
0.347379
0.373825
0.37155
0.369394
0.367346
0.365405
0.363561
0.361811
0.360148
0.358568
0.357065
0.355637
0.354277
0.352986
0.351755
0.350586
0.349471
0.348412
0.347402
0.373825
0.37155
0.369394
0.367347
0.365407
0.363564
0.361816
0.360154
0.358577
0.357075
0.35565
0.354292
0.353004
0.351775
0.350608
0.349495
0.348438
0.34743
0.373825
0.371551
0.369395
0.36735
0.36541
0.36357
0.361823
0.360164
0.358588
0.357091
0.355666
0.354314
0.353026
0.351803
0.350637
0.349529
0.348474
0.34747
0.373826
0.371552
0.369396
0.367354
0.365416
0.363579
0.361837
0.360183
0.358614
0.357123
0.355708
0.354364
0.353086
0.351871
0.350715
0.349615
0.348568
0.347571
0.373826
0.371553
0.369399
0.367361
0.365434
0.363613
0.361892
0.360264
0.358724
0.357264
0.355879
0.354563
0.353311
0.352118
0.350982
0.349898
0.348865
0.347876
0.373828
0.37155
0.369412
0.36742
0.365562
0.363831
0.362207
0.360676
0.359223
0.357838
0.356513
0.355241
0.354019
0.352844
0.351715
0.350627
0.349586
0.348579
0.373822
0.371554
0.369604
0.367897
0.366346
0.364905
0.363513
0.362148
0.360795
0.359456
0.358134
0.356834
0.355564
0.354326
0.35313
0.351971
0.350863
0.349789
0.37378
0.371989
0.371111
0.370268
0.369364
0.368325
0.367065
0.365655
0.364151
0.362612
0.361073
0.35957
0.358126
0.356739
0.355441
0.354206
0.353073
0.351991
0.374298
0.375567
0.377782
0.37786
0.377294
0.375897
0.373834
0.371652
0.369503
0.367482
0.365652
0.364055
0.362671
0.361472
0.36052
0.359704
0.359131
0.358618
0.378734
0.394406
0.39832
0.396594
0.392593
0.387639
0.383625
0.380439
0.378174
0.376742
0.376261
0.376463
0.377028
0.378174
0.379803
0.381627
0.383859
0.386016
0.408341
0.427508
0.422392
0.410987
0.402177
0.397705
0.398283
0.400657
0.40534
0.412112
0.419806
0.428217
0.436913
0.445762
0.454493
0.463201
0.471482
0.479809
0.366022
0.35343
0.341968
0.33023
0.318959
0.308412
0.299365
0.291675
0.285329
0.280251
0.276514
0.273656
0.271968
0.270783
0.270594
0.27083
0.271317
0.272421
0.0791645
0.121305
0.145451
0.15621
0.149761
0.147638
0.146842
0.146162
0.13917
0.150166
0.153477
0.154433
0.154895
0.14757
0.158232
0.160622
0.169872
0.160158
0.156638
0.15716
0.160931
0.169689
0.187403
0.21791
0.256983
0.300464
0.346966
0.395212
0.441441
0.486208
0.529153
0.570209
0.609351
0.646987
0.68285
0.717558
0.750673
0.782934
0.813775
0.844013
0.872982
0.901546
0.928964
0.956132
0.982247
1.00824
1.03323
1.05818
1.08216
1.10615
1.12916
1.1522
1.17423
1.1963
1.21732
1.23839
1.25832
1.27831
1.29709
1.31588
1.33329
1.35069
1.36673
1.38292
1.39773
1.41278
1.42697
1.44128
1.45492
1.46808
1.47902
1.49088
1.50066
1.50835
1.51546
1.519
1.51094
1.51088
1.50655
1.50342
1.50408
1.49552
1.48091
1.44824
1.44624
1.39909
1.39147
1.3709
1.35214
1.33096
1.30847
1.28472
1.26002
1.23492
1.20943
1.18384
1.1579
1.13194
1.10592
1.08006
1.0543
1.0288
1.00356
0.978775
0.954509
0.930623
0.90647
0.882784
0.859971
0.837854
0.81652
0.795857
0.77593
0.756638
0.738035
0.720095
0.702992
0.687796
0.676036
0.665572
0.655561
0.645811
0.636366
0.627156
0.618208
0.609436
0.600901
0.592504
0.584322
0.576249
0.56839
0.560523
0.553005
0.545338
0.537501
0.529618
0.521806
0.514094
0.506582
0.499193
0.491945
0.484709
0.477467
0.470237
0.463083
0.456052
0.449175
0.442423
0.435812
0.429348
0.423089
0.417041
0.411196
0.405537
0.400034
0.394631
0.389274
0.383893
0.378346
0.372535
0.36629
0.35924
0.351456
0.341957
0.331158
0.318145
0.303124
0.286603
0.269901
0.253244
0.240029
0.226789
0.217306
0.211051
0.207957
0.209556
0.21197
0.21262
0.212552
0.203722
0.14932
0.202921
0.245521
0.273522
0.288099
0.294719
0.296719
0.296369
0.294815
0.293766
0.292859
0.2938
0.298595
0.312717
0.340745
0.375321
0.409708
0.438546
0.466684
0.497481
0.533446
0.575534
0.622552
0.672943
0.724705
0.77543
0.824918
0.873508
0.921494
0.969472
1.01764
1.06555
1.11335
1.16098
1.20825
1.25521
1.3016
1.34752
1.39273
1.4374
1.48132
1.5247
1.5674
1.60963
1.65126
1.69254
1.73333
1.77388
1.81405
1.85407
1.89379
1.93342
1.9728
2.01216
2.0513
2.09042
2.12928
2.1681
2.2066
2.24496
2.28283
2.32039
2.35728
2.39364
2.42907
2.46365
2.49704
2.52974
2.56147
2.59227
2.62168
2.64964
2.67599
2.70078
2.7237
2.74414
2.76037
2.7735
2.78485
2.78913
2.7888
2.78705
2.78201
2.7718
2.76049
2.74186
2.72348
2.70019
2.67387
2.64394
2.61072
2.57401
2.53358
2.49125
2.44743
2.40249
2.35675
2.31045
2.26385
2.21723
2.17076
2.12462
2.07896
2.03404
1.98993
1.94682
1.9047
1.86372
1.82387
1.78522
1.74767
1.71127
1.67592
1.64163
1.60833
1.57603
1.54476
1.51475
1.48597
1.45805
1.4308
1.40419
1.37821
1.35288
1.32815
1.30401
1.28041
1.25732
1.23472
1.21256
1.19082
1.16946
1.14846
1.1274
1.10629
1.08536
1.06468
1.04433
1.02437
1.00479
0.985534
0.966379
0.947248
0.928268
0.909547
0.891175
0.873192
0.855543
0.838241
0.821355
0.80495
0.789043
0.773579
0.758507
0.743777
0.729252
0.714799
0.700243
0.685367
0.669956
0.65366
0.636104
0.616933
0.595334
0.571216
0.543881
0.513011
0.479891
0.445055
0.408942
0.376843
0.345862
0.32075
0.29823
0.281602
0.275416
0.273158
0.267898
0.266123
0.263174
0.248801
0.30856
0.350397
0.375389
0.390425
0.399633
0.405872
0.411516
0.418796
0.430001
0.447467
0.473579
0.509951
0.556378
0.609865
0.66432
0.714434
0.758242
0.797341
0.834193
0.87117
0.909929
0.951765
0.997447
1.04714
1.10062
1.15719
1.21638
1.27774
1.34072
1.40468
1.46931
1.53392
1.59809
1.66136
1.72348
1.78418
1.84336
1.90091
1.95686
2.01119
2.06401
2.11534
2.16534
2.21405
2.26164
2.30817
2.35379
2.39855
2.44262
2.48602
2.52889
2.57128
2.61332
2.65504
2.69655
2.73788
2.77913
2.8203
2.86148
2.90265
2.94387
2.98509
3.02633
3.06746
3.10844
3.14902
3.18913
3.22855
3.26707
3.30422
3.33979
3.37356
3.40512
3.43419
3.45997
3.48248
3.50111
3.51492
3.52489
3.52927
3.53301
3.52914
3.51935
3.50488
3.48463
3.4599
3.43011
3.39572
3.35697
3.31415
3.26762
3.21782
3.16539
3.11086
3.05466
2.99729
2.93912
2.88053
2.82185
2.76335
2.70527
2.64784
2.59131
2.5358
2.48149
2.42845
2.37679
2.32653
2.2777
2.23025
2.18418
2.13942
2.09596
2.05372
2.01272
1.97295
1.93451
1.89732
1.86121
1.82598
1.79158
1.75797
1.72515
1.69307
1.66171
1.63101
1.60096
1.57151
1.54264
1.5143
1.48646
1.45905
1.43198
1.40521
1.37876
1.35266
1.32694
1.30164
1.27678
1.2523
1.22794
1.2035
1.17926
1.15535
1.13186
1.10885
1.08619
1.06387
1.04203
1.02077
1.00009
0.979923
0.96021
0.940895
0.921864
0.902956
0.883973
0.864694
0.844876
0.82414
0.802052
0.778111
0.751614
0.721993
0.688685
0.651335
0.610379
0.567091
0.522194
0.479153
0.438423
0.402416
0.37081
0.346555
0.326787
0.314714
0.30998
0.308389
0.302924
0.337027
0.407463
0.455692
0.485699
0.504553
0.517272
0.527758
0.539411
0.555336
0.578321
0.610483
0.652695
0.703731
0.759973
0.816267
0.867457
0.910812
0.947376
0.981083
1.01628
1.0561
1.10214
1.15458
1.21302
1.27662
1.34436
1.41534
1.48877
1.56381
1.63974
1.71595
1.79184
1.86685
1.9406
2.01272
2.08303
2.15135
2.21761
2.28177
2.34387
2.40393
2.46206
2.51833
2.57286
2.62575
2.67716
2.72718
2.77596
2.82361
2.87028
2.91607
2.96113
3.00556
3.0495
3.09306
3.13638
3.17954
3.22266
3.26582
3.30913
3.35262
3.39636
3.44036
3.48463
3.5291
3.5737
3.61828
3.66271
3.70675
3.75014
3.79252
3.83359
3.87299
3.91028
3.945
3.9766
4.00471
4.02874
4.04807
4.06235
4.07021
4.07658
4.07538
4.06721
4.05267
4.03172
4.00474
3.97184
3.93338
3.8897
3.84126
3.78853
3.73201
3.67232
3.61001
3.54563
3.47972
3.41277
3.34522
3.27748
3.20987
3.14274
3.07635
3.01094
2.94671
2.88379
2.82232
2.76238
2.70401
2.64723
2.59202
2.53836
2.48622
2.43558
2.3864
2.33865
2.29231
2.24737
2.20376
2.16134
2.11998
2.07961
2.04017
2.00164
1.96397
1.92712
1.89104
1.85572
1.82109
1.78714
1.75381
1.72108
1.68889
1.65718
1.62592
1.59511
1.56473
1.5348
1.50532
1.47631
1.44773
1.4195
1.39152
1.36387
1.33662
1.30983
1.28354
1.25756
1.23182
1.20658
1.18197
1.15797
1.13444
1.11136
1.0887
1.06637
1.04418
1.02193
0.999421
0.976404
0.952496
0.927241
0.900083
0.870328
0.837236
0.800139
0.758591
0.712719
0.663641
0.612592
0.561961
0.513611
0.469788
0.430605
0.399101
0.372674
0.352918
0.341797
0.341707
0.33719
0.424116
0.511231
0.570843
0.608896
0.63321
0.649902
0.663885
0.679361
0.699823
0.727673
0.763689
0.806713
0.853854
0.901409
0.946234
0.986978
1.02477
1.06272
1.10409
1.15118
1.20491
1.26525
1.33162
1.40308
1.47862
1.55733
1.63834
1.72088
1.80425
1.88787
1.9712
2.05377
2.13516
2.21505
2.29316
2.36932
2.44337
2.51525
2.5849
2.65233
2.71755
2.78063
2.84162
2.90063
2.95773
3.01307
3.06673
3.11887
3.1696
3.21906
3.26739
3.31475
3.36125
3.40707
3.45234
3.49723
3.54185
3.58638
3.63092
3.67562
3.72056
3.76587
3.81159
3.85778
3.90443
3.95154
3.999
4.04669
4.09441
4.14192
4.18888
4.23495
4.27969
4.32263
4.36321
4.40085
4.43496
4.46491
4.49007
4.50978
4.52354
4.53067
4.53421
4.52899
4.51618
4.49601
4.4687
4.43452
4.3938
4.34702
4.29463
4.23723
4.1754
4.10979
4.04103
3.96976
3.89658
3.82207
3.74676
3.6711
3.59553
3.52041
3.44609
3.37279
3.30078
3.23018
3.16116
3.09377
3.02811
2.96417
2.90201
2.84158
2.78289
2.72588
2.67053
2.61677
2.56458
2.5139
2.46465
2.41672
2.37001
2.32441
2.27989
2.23637
2.19384
2.15223
2.1115
2.07161
2.03251
1.99417
1.95656
1.91963
1.88333
1.84761
1.81246
1.77785
1.74376
1.71019
1.67713
1.64458
1.61252
1.58089
1.54967
1.51886
1.4885
1.45863
1.4293
1.40047
1.37213
1.34435
1.31722
1.29071
1.26453
1.23875
1.21338
1.18836
1.16345
1.13847
1.11324
1.08753
1.06094
1.03303
1.00323
0.970842
0.935047
0.895059
0.850309
0.800759
0.747313
0.69139
0.635077
0.580627
0.530427
0.485094
0.447162
0.415229
0.389575
0.374572
0.369691
0.368048
0.504998
0.611781
0.686495
0.734793
0.765452
0.785533
0.800671
0.815511
0.83366
0.857284
0.886794
0.921067
0.9582
0.996557
1.03555
1.07591
1.11911
1.16678
1.22026
1.28008
1.34603
1.41749
1.49363
1.57357
1.65651
1.74173
1.82856
1.91643
2.00481
2.09325
2.18133
2.26866
2.3549
2.43976
2.52298
2.60437
2.68375
2.76103
2.83609
2.90892
2.97946
3.04775
3.11379
3.17765
3.23937
3.29907
3.35681
3.41272
3.46691
3.51951
3.57066
3.6205
3.6692
3.71691
3.7638
3.81006
3.85585
3.90136
3.94676
3.99223
4.03792
4.08401
4.13062
4.17787
4.22584
4.27457
4.32405
4.37421
4.42489
4.47588
4.52689
4.57754
4.62739
4.67589
4.72243
4.76635
4.80692
4.8434
4.87502
4.90103
4.92078
4.93243
4.94009
4.93899
4.9293
4.91123
4.88498
4.85083
4.80917
4.76043
4.70524
4.64417
4.57794
4.50724
4.43282
4.35538
4.27563
4.19422
4.11176
4.0288
3.94582
3.86325
3.78147
3.70077
3.62139
3.54353
3.46735
3.39295
3.32043
3.24983
3.18118
3.11446
3.04966
2.98674
2.92564
2.86631
2.8087
2.75272
2.6983
2.64532
2.59369
2.54333
2.49416
2.44612
2.39917
2.35325
2.3083
2.26429
2.22117
2.1789
2.13743
2.09673
2.05675
2.01745
1.9788
1.94078
1.90336
1.86653
1.83027
1.79457
1.75942
1.72478
1.69063
1.65697
1.62381
1.59117
1.55907
1.52754
1.4966
1.46628
1.43663
1.40763
1.37915
1.35113
1.32354
1.29629
1.26906
1.24168
1.21406
1.18596
1.15698
1.12667
1.0945
1.05981
1.02169
0.979291
0.9319
0.879362
0.822415
0.762504
0.701669
0.64227
0.586773
0.536285
0.492959
0.45616
0.425639
0.409028
0.400469
0.393461
0.574391
0.700204
0.789019
0.847329
0.884118
0.906805
0.921451
0.933121
0.945861
0.962382
0.983955
1.01069
1.04218
1.07813
1.11863
1.16409
1.2151
1.27204
1.33493
1.40346
1.47705
1.55501
1.63663
1.72125
1.80825
1.8971
1.98735
2.07858
2.17038
2.26238
2.35422
2.44557
2.53609
2.6255
2.71355
2.8
2.88464
2.96734
3.04793
3.12633
3.20245
3.27625
3.3477
3.41682
3.48359
3.54809
3.61036
3.67049
3.72855
3.78467
3.83896
3.89158
3.94266
3.99239
4.04093
4.08849
4.13526
4.18148
4.22734
4.27309
4.31893
4.36511
4.41184
4.45931
4.50769
4.55711
4.60765
4.65931
4.71202
4.76562
4.81987
4.87441
4.9288
4.98246
5.03474
5.08488
5.13206
5.1754
5.21399
5.24692
5.27333
5.29218
5.30285
5.30751
5.30215
5.28737
5.26338
5.23043
5.18889
5.13928
5.08219
5.01833
4.94847
4.87341
4.79397
4.71097
4.6252
4.53742
4.44831
4.35849
4.26852
4.1789
4.09002
4.00225
3.91586
3.83112
3.74817
3.66719
3.58823
3.5114
3.43667
3.36407
3.29356
3.22511
3.15864
3.09411
3.03142
2.97053
2.9113
2.85367
2.79752
2.74276
2.68932
2.63713
2.58614
2.53628
2.4875
2.43975
2.39298
2.34714
2.3022
2.25811
2.21481
2.17229
2.13049
2.0894
2.04898
2.00922
1.97009
1.93157
1.89366
1.85632
1.81953
1.7833
1.74762
1.71249
1.67792
1.64394
1.61057
1.57786
1.54582
1.51444
1.48364
1.45333
1.42346
1.39391
1.36447
1.33497
1.30521
1.27497
1.24379
1.21124
1.17689
1.14009
1.0999
1.05539
1.00573
0.95064
0.890769
0.827537
0.762989
0.699525
0.639633
0.58481
0.536967
0.495867
0.461948
0.436208
0.423239
0.420135
0.630479
0.766875
0.865766
0.932422
0.974889
1.00039
1.01526
1.02508
1.03446
1.04688
1.06459
1.0887
1.11961
1.15728
1.2016
1.25242
1.3095
1.37249
1.44091
1.5142
1.59177
1.67302
1.75738
1.84439
1.9336
2.02464
2.11715
2.2108
2.30525
2.4002
2.49529
2.59023
2.6847
2.7784
2.87107
2.96243
3.05226
3.14036
3.22651
3.31059
3.39245
3.47199
3.54913
3.62381
3.69599
3.76568
3.83288
3.89764
3.96
4.02004
4.07786
4.13358
4.18734
4.23931
4.28965
4.33859
4.38632
4.43311
4.4792
4.52486
4.57038
4.61606
4.66218
4.70903
4.75687
4.80594
4.85641
4.9084
4.96194
5.01695
5.07327
5.13061
5.18854
5.24651
5.30383
5.3597
5.41319
5.46331
5.50899
5.54917
5.58281
5.60897
5.6254
5.63545
5.63529
5.62486
5.6042
5.57351
5.53316
5.48365
5.42564
5.35988
5.28722
5.20857
5.12483
5.03695
4.94579
4.85222
4.757
4.66083
4.56436
4.46813
4.37265
4.27831
4.18545
4.09432
4.00515
3.91808
3.8332
3.75059
3.67027
3.59224
3.51647
3.44291
3.3715
3.30216
3.23483
3.16941
3.1058
3.0439
2.98361
2.92485
2.86752
2.81157
2.75691
2.7035
2.65126
2.60014
2.5501
2.50108
2.45303
2.40591
2.35967
2.31428
2.26969
2.22588
2.1828
2.14045
2.09878
2.05778
2.01743
1.9777
1.93858
1.90006
1.86212
1.82478
1.78803
1.75187
1.71632
1.68142
1.64718
1.61359
1.58057
1.54806
1.51596
1.48416
1.45249
1.42077
1.38877
1.35626
1.32288
1.28821
1.25181
1.2131
1.17102
1.12466
1.07298
1.01566
0.953274
0.887242
0.819614
0.752808
0.689303
0.630869
0.579262
0.534514
0.497381
0.467238
0.447869
0.444492
0.670033
0.803972
0.908739
0.982609
1.0309
1.06067
1.07844
1.09002
1.10034
1.11332
1.13173
1.15714
1.19016
1.23079
1.27867
1.33327
1.39401
1.46026
1.53144
1.60696
1.68631
1.76901
1.85464
1.94285
2.0333
2.12572
2.21981
2.31529
2.41189
2.50931
2.60724
2.7054
2.80346
2.90114
2.99814
3.09418
3.18898
3.28231
3.37392
3.46363
3.55123
3.63657
3.7195
3.79994
3.87777
3.95294
4.02541
4.09517
4.16222
4.22661
4.28838
4.34763
4.40447
4.45904
4.5115
4.56206
4.61093
4.65838
4.70466
4.7501
4.79502
4.83976
4.88469
4.93018
4.97658
5.02425
5.07348
5.12449
5.17745
5.23242
5.28932
5.34796
5.40801
5.46896
5.53012
5.59067
5.64963
5.70589
5.75827
5.80552
5.8464
5.87974
5.90411
5.91874
5.92475
5.91956
5.90317
5.87575
5.8376
5.78925
5.73133
5.66468
5.59019
5.50886
5.42172
5.32977
5.23401
5.13539
5.0348
4.93302
4.83082
4.72878
4.62748
4.52732
4.42872
4.33192
4.2372
4.14469
4.05452
3.96674
3.88141
3.7985
3.71801
3.63986
3.56402
3.49038
3.41887
3.3494
3.28186
3.21615
3.15218
3.08984
3.02907
2.96976
2.91186
2.8553
2.80002
2.74594
2.69303
2.64122
2.59046
2.54071
2.49192
2.44405
2.39704
2.35088
2.30552
2.26093
2.21708
2.17394
2.1315
2.08972
2.04858
2.00808
1.9682
1.92893
1.89027
1.8522
1.81474
1.77791
1.7417
1.70609
1.67104
1.63646
1.60226
1.56833
1.5345
1.50059
1.46637
1.4316
1.39595
1.35903
1.32041
1.27958
1.23575
1.18781
1.13435
1.07501
1.01043
0.942021
0.871847
0.802321
0.735903
0.674525
0.619835
0.572127
0.532133
0.499171
0.474095
0.468664
0.679649
0.814146
0.921773
1.00009
1.05386
1.0895
1.11287
1.12972
1.1448
1.16202
1.18419
1.21298
1.24913
1.29265
1.34316
1.40006
1.46269
1.53043
1.60272
1.67903
1.75895
1.8421
1.92815
2.01684
2.10791
2.20114
2.29629
2.39312
2.49138
2.5908
2.69111
2.79201
2.89321
2.99441
3.09529
3.19558
3.29496
3.39317
3.48993
3.58501
3.67815
3.76916
3.85785
3.94405
4.02761
4.10843
4.18639
4.26145
4.33354
4.40267
4.46884
4.53209
4.59249
4.65015
4.7052
4.75783
4.80823
4.85665
4.90337
4.94871
4.99301
5.03666
5.08007
5.12369
5.16796
5.21333
5.26022
5.30899
5.35993
5.41326
5.46905
5.52724
5.58761
5.64975
5.71305
5.77669
5.83967
5.90082
5.95885
6.01237
6.05996
6.10023
6.13191
6.15303
6.16451
6.1652
6.15378
6.13045
6.09552
6.04935
5.99263
5.92618
5.85097
5.76806
5.67858
5.58367
5.48443
5.38192
5.27711
5.17091
5.0641
4.95735
4.85126
4.74631
4.64291
4.54137
4.44196
4.34484
4.25015
4.15798
4.06835
3.98127
3.89672
3.81464
3.73497
3.65763
3.58252
3.50955
3.43862
3.36964
3.30249
3.23708
3.17333
3.11116
3.05048
2.99123
2.93334
2.87676
2.82142
2.76726
2.71423
2.66228
2.61135
2.56141
2.5124
2.46429
2.41704
2.37061
2.32497
2.28008
2.23591
2.19244
2.14965
2.10751
2.066
2.02512
1.98485
1.94518
1.90609
1.86758
1.82966
1.79228
1.7554
1.71894
1.68281
1.64689
1.61103
1.57503
1.53868
1.50172
1.46384
1.42467
1.38381
1.34078
1.29493
1.2453
1.19024
1.12905
1.06251
0.992097
0.919853
0.848176
0.779489
0.715799
0.658686
0.608665
0.566261
0.531234
0.502397
0.492591
0.667948
0.805979
0.913282
0.992677
1.04994
1.09096
1.12165
1.14628
1.16869
1.19232
1.21986
1.25298
1.29251
1.3386
1.39099
1.44918
1.51263
1.5808
1.65321
1.72946
1.8092
1.89214
1.97803
2.06666
2.15784
2.25137
2.34704
2.44467
2.54401
2.64485
2.74691
2.84994
2.95363
3.05771
3.16185
3.26575
3.36911
3.47163
3.57301
3.67297
3.77124
3.86759
3.96176
4.05355
4.14275
4.22921
4.31276
4.39329
4.47069
4.54491
4.61588
4.68361
4.74811
4.80944
4.86768
4.92298
4.9755
5.02546
5.07311
5.11877
5.16277
5.20553
5.24745
5.28905
5.33082
5.37331
5.41704
5.4625
5.51014
5.56032
5.61328
5.66912
5.72779
5.789
5.85229
5.91693
5.98188
6.04599
6.10791
6.16616
6.21915
6.26534
6.30323
6.33123
6.34851
6.35469
6.34846
6.32977
6.29881
6.25584
6.20142
6.1364
6.0618
5.97876
5.88849
5.79219
5.69106
5.58623
5.47874
5.3696
5.25963
5.14958
5.04005
4.93158
4.82459
4.71947
4.61645
4.51576
4.41754
4.32189
4.22885
4.13844
4.05063
3.96539
3.88263
3.80229
3.72426
3.64846
3.57478
3.50312
3.43338
3.36547
3.29929
3.23478
3.17184
3.11041
3.05043
2.99182
2.93453
2.8785
2.82366
2.76998
2.71737
2.66581
2.61525
2.56563
2.51691
2.46907
2.42204
2.37581
2.33033
2.28556
2.24149
2.19808
2.15532
2.11317
2.07162
2.03065
1.99023
1.95034
1.91097
1.87208
1.83361
1.79549
1.75763
1.71991
1.68217
1.64422
1.60586
1.56683
1.52682
1.48549
1.44244
1.39723
1.34927
1.29769
1.24094
1.17796
1.10968
1.0376
0.963729
0.890438
0.820095
0.754704
0.695809
0.64404
0.599783
0.563025
0.531812
0.514099
0.644296
0.780442
0.886935
0.967626
1.02909
1.07617
1.1128
1.14372
1.17303
1.20372
1.23741
1.27526
1.31825
1.36669
1.42051
1.47943
1.54306
1.61101
1.68292
1.75849
1.83747
1.91962
2.00479
2.09279
2.18348
2.27673
2.37227
2.46999
2.5697
2.6712
2.77424
2.87859
2.98396
3.09006
3.19659
3.30328
3.40979
3.51582
3.62106
3.72522
3.82799
3.9291
4.02827
4.12526
4.21983
4.31176
4.40082
4.48686
4.56971
4.64926
4.72539
4.79805
4.86719
4.9328
4.99492
5.05362
5.10902
5.16129
5.21064
5.25734
5.3017
5.34411
5.38499
5.42483
5.46418
5.50363
5.54379
5.58528
5.62865
5.67441
5.72298
5.77467
5.82955
5.8875
5.94814
6.01079
6.07456
6.13851
6.20139
6.26168
6.31776
6.36793
6.41054
6.44406
6.46722
6.47889
6.47833
6.46519
6.43907
6.40027
6.34943
6.28736
6.21508
6.13375
6.04458
5.94883
5.84773
5.74246
5.6341
5.52381
5.41249
5.30083
5.18951
5.07907
4.97
4.86267
4.75739
4.65438
4.55381
4.4558
4.3604
4.26765
4.17754
4.09004
4.00507
3.92255
3.8424
3.76451
3.68879
3.61515
3.54349
3.47371
3.40573
3.33947
3.27485
3.2118
3.15026
3.09017
3.03145
2.97406
2.91793
2.863
2.80921
2.75652
2.70486
2.6542
2.60448
2.55567
2.50772
2.46058
2.41421
2.36857
2.32363
2.27935
2.23571
2.19266
2.15019
2.10826
2.06683
2.02587
1.98534
1.94521
1.90541
1.86588
1.82651
1.78719
1.74776
1.70804
1.66783
1.62686
1.58485
1.54146
1.49632
1.449
1.39893
1.34529
1.28658
1.22183
1.152
1.07857
1.00352
0.929146
0.857735
0.791246
0.731175
0.678192
0.632603
0.594372
0.561688
0.537983
0.610402
0.742518
0.845885
0.926447
0.990876
1.04353
1.08801
1.12711
1.16341
1.19949
1.23773
1.2798
1.32609
1.37676
1.43183
1.49116
1.55457
1.62182
1.69272
1.76705
1.84467
1.92543
2.00921
2.09589
2.18537
2.27754
2.37225
2.46931
2.56855
2.66978
2.77279
2.87738
2.98329
3.09033
3.19823
3.30668
3.41535
3.52394
3.63211
3.73957
3.84601
3.95112
4.05462
4.15625
4.25572
4.35281
4.44714
4.53856
4.62686
4.71187
4.79343
4.8714
4.94569
5.01623
5.08293
5.14584
5.20499
5.26049
5.31249
5.36121
5.40689
5.44986
5.49051
5.5293
5.56675
5.60349
5.64016
5.67746
5.71603
5.7565
5.7994
5.84507
5.89366
5.94539
6.00014
6.05756
6.11713
6.17805
6.23891
6.29819
6.35427
6.40543
6.44995
6.48621
6.51277
6.52836
6.53167
6.52385
6.50336
6.47023
6.42485
6.36793
6.30038
6.22332
6.13792
6.04534
5.94703
5.84406
5.73733
5.62821
5.51763
5.40639
5.29521
5.18465
5.07524
4.96738
4.86141
4.75755
4.65603
4.55695
4.46044
4.36647
4.27516
4.18644
4.10026
4.01651
3.93513
3.85602
3.77909
3.70424
3.6314
3.56047
3.49137
3.42402
3.35835
3.29429
3.23179
3.17078
3.11121
3.05302
2.99613
2.94049
2.88603
2.83271
2.78047
2.72925
2.67902
2.62973
2.58131
2.53372
2.48692
2.44086
2.39548
2.35076
2.30664
2.26309
2.22007
2.17754
2.13543
2.09372
2.05235
2.01128
1.97043
1.92974
1.8891
1.8484
1.80748
1.76618
1.72428
1.68154
1.63768
1.59237
1.54525
1.49589
1.44375
1.38797
1.32708
1.26061
1.18945
1.11503
1.03925
0.964315
0.892414
0.825421
0.764751
0.711085
0.664645
0.625373
0.591612
0.565322
0.574172
0.698284
0.797601
0.877356
0.943745
1.00057
1.05067
1.0964
1.13996
1.18298
1.22683
1.27249
1.32108
1.37314
1.42885
1.4882
1.55113
1.6175
1.6872
1.76008
1.83607
1.91506
1.99698
2.08176
2.1693
2.25952
2.35233
2.44762
2.54528
2.64517
2.74709
2.85087
2.95628
3.06306
3.17096
3.27974
3.38908
3.49873
3.60836
3.71767
3.82637
3.93414
4.04069
4.14572
4.24897
4.35021
4.44929
4.54579
4.63942
4.72992
4.81707
4.90068
4.9806
5.05672
5.12875
5.19669
5.26054
5.32032
5.3761
5.428
5.4762
5.52095
5.56253
5.60134
5.63785
5.67265
5.70638
5.73974
5.77336
5.80793
5.84411
5.88248
5.92387
5.96836
6.01595
6.06645
6.11936
6.17382
6.22891
6.28343
6.33593
6.38485
6.42855
6.46544
6.49405
6.513
6.52075
6.51743
6.50181
6.47376
6.43361
6.38191
6.31947
6.24732
6.16655
6.07828
5.98394
5.88457
5.78082
5.67513
5.56783
5.45956
5.35097
5.24266
5.13516
5.02891
4.92424
4.82145
4.72069
4.62225
4.52619
4.43245
4.34121
4.25248
4.16621
4.08231
4.0007
3.92132
3.84408
3.76891
3.69571
3.62442
3.55495
3.48723
3.42121
3.3568
3.29397
3.23267
3.17285
3.11444
3.05737
3.00158
2.94701
2.8936
2.8413
2.79005
2.73981
2.69052
2.64214
2.59459
2.54783
2.50179
2.45644
2.41171
2.36754
2.3239
2.28072
2.23796
2.19554
2.15342
2.11153
2.06981
2.02821
1.98662
1.94496
1.90311
1.86092
1.81823
1.77483
1.73048
1.68492
1.63783
1.58883
1.53752
1.48331
1.42527
1.3622
1.29418
1.22197
1.14694
1.0709
0.995939
0.924121
0.857204
0.796494
0.74265
0.69583
0.655915
0.621758
0.592449
0.533213
0.651037
0.746399
0.824937
0.892406
0.952168
1.00654
1.05734
1.10616
1.15428
1.20281
1.25262
1.3042
1.358
1.41433
1.47336
1.53517
1.59979
1.66723
1.73748
1.81055
1.88641
1.96506
2.0465
2.1307
2.21763
2.30727
2.39953
2.49435
2.59161
2.69117
2.79288
2.89653
3.00192
3.10883
3.21702
3.32624
3.43621
3.54666
3.6573
3.76781
3.87791
3.98727
4.09557
4.20246
4.3076
4.41065
4.51141
4.60961
4.70497
4.79722
4.88614
4.9715
5.05317
5.13104
5.20483
5.27434
5.3395
5.40026
5.45665
5.50875
5.55671
5.60065
5.64086
5.67773
5.71173
5.74342
5.77345
5.80262
5.83172
5.86152
5.89276
5.92568
5.96076
5.99826
6.03817
6.08029
6.12413
6.16905
6.21419
6.25848
6.30066
6.33934
6.37309
6.4005
6.42011
6.43065
6.43108
6.42112
6.39961
6.3667
6.32269
6.26815
6.20389
6.13085
6.05007
5.96271
5.86989
5.77229
5.67169
5.56889
5.46473
5.35989
5.25501
5.15062
5.04719
4.94507
4.84455
4.7458
4.64917
4.55471
4.46222
4.37241
4.28507
4.20004
4.11725
4.03663
3.95814
3.88168
3.80722
3.73465
3.66394
3.595
3.52779
3.46222
3.39827
3.33581
3.27489
3.21547
3.15748
3.10084
3.0455
2.99139
2.93845
2.88664
2.83588
2.78616
2.7374
2.68955
2.64254
2.5963
2.55078
2.50591
2.46162
2.41785
2.37453
2.3316
2.28899
2.24662
2.20443
2.16235
2.12031
2.07823
2.03603
1.9936
1.95083
1.90758
1.8637
1.81897
1.77318
1.72607
1.6773
1.62652
1.5733
1.51697
1.45655
1.39162
1.32234
1.24945
1.17424
1.09844
1.024
0.952827
0.88655
0.826341
0.772796
0.726036
0.685819
0.651569
0.620471
0.488324
0.601093
0.693184
0.770518
0.838521
0.900281
0.957761
1.01238
1.06528
1.11735
1.16936
1.22188
1.27537
1.33018
1.38659
1.44482
1.50505
1.5674
1.63199
1.69892
1.76829
1.84017
1.91464
1.99176
2.07156
2.15409
2.23935
2.32733
2.41797
2.51124
2.60702
2.7052
2.80564
2.90817
3.0126
3.11873
3.22634
3.33518
3.445
3.55554
3.66651
3.77764
3.8886
3.99912
4.10888
4.21758
4.32482
4.43031
4.53372
4.63474
4.73303
4.8283
4.92019
5.00839
5.09254
5.17256
5.24825
5.31946
5.38604
5.44794
5.5051
5.55761
5.60537
5.64849
5.68715
5.72171
5.75257
5.78034
5.80578
5.82957
5.85245
5.87514
5.89808
5.9218
5.94667
5.97288
6.00049
6.02932
6.05924
6.08996
6.12101
6.15146
6.18046
6.20687
6.22953
6.24704
6.25814
6.26101
6.25595
6.24078
6.21557
6.18027
6.13512
6.08064
6.01755
5.94668
5.86902
5.78555
5.69728
5.60525
5.51043
5.41366
5.31568
5.21715
5.11861
5.02056
4.92336
4.82734
4.73271
4.63977
4.54865
4.45911
4.37188
4.28682
4.20387
4.12299
4.04414
3.96727
3.89234
3.8193
3.74807
3.67862
3.61088
3.54481
3.48034
3.41746
3.35601
3.29623
3.23799
3.18117
3.1257
3.07151
3.01855
2.96676
2.91609
2.86644
2.81781
2.77013
2.72335
2.67739
2.63217
2.58764
2.54373
2.50035
2.45741
2.41484
2.37256
2.33048
2.28853
2.24662
2.20466
2.16259
2.12031
2.07773
2.03476
1.99129
1.94717
1.90225
1.85636
1.80925
1.76067
1.7103
1.65775
1.60257
1.54393
1.4815
1.4151
1.34496
1.27181
1.19691
1.12186
1.04849
0.978531
0.913435
0.854236
0.801437
0.755131
0.714956
0.680804
0.648988
0.443868
0.552149
0.642039
0.718487
0.786756
0.849774
0.909297
0.966481
1.02216
1.07694
1.1313
1.18562
1.24022
1.29535
1.35127
1.4082
1.46635
1.52593
1.58714
1.65016
1.71517
1.78234
1.85183
1.92376
1.99826
2.07541
2.15528
2.23791
2.32332
2.41149
2.50238
2.59591
2.69198
2.79047
2.89124
2.99412
3.09891
3.20542
3.31342
3.42267
3.53292
3.64392
3.75538
3.86701
3.97851
4.08956
4.19981
4.30894
4.4166
4.52244
4.62609
4.72722
4.82544
4.92044
5.01182
5.09924
5.18237
5.26094
5.33468
5.40336
5.46676
5.52475
5.57719
5.62408
5.66546
5.70142
5.73232
5.75849
5.78059
5.79917
5.8151
5.82891
5.84094
5.85173
5.86209
5.87203
5.88176
5.89172
5.90208
5.91389
5.92704
5.94123
5.95604
5.97117
5.98552
5.99788
6.00687
6.01112
6.00959
6.00038
5.98277
5.95662
5.92178
5.87837
5.82681
5.76766
5.70169
5.62971
5.55266
5.47142
5.3869
5.2999
5.21116
5.12131
5.03094
4.9405
4.85041
4.76099
4.67253
4.58528
4.49941
4.41501
4.33229
4.25131
4.17212
4.09469
4.01906
3.94519
3.87306
3.80264
3.7339
3.6668
3.60129
3.53735
3.47493
3.414
3.3544
3.29638
3.23982
3.18464
3.1308
3.07822
3.02685
2.97664
2.92755
2.87947
2.83251
2.78653
2.74142
2.69711
2.65349
2.6105
2.56805
2.52605
2.48441
2.44303
2.40182
2.36069
2.31953
2.27825
2.23676
2.19496
2.15277
2.1101
2.06684
2.02288
1.97811
1.93235
1.88544
1.83714
1.78719