/*--------------------------------*- C++ -*----------------------------------*\
  =========                 |
  \\      /  F ield         | OpenFOAM: The Open Source CFD Toolbox
   \\    /   O peration     | Website:  https://openfoam.org
    \\  /    A nd           | Version:  9
     \\/     M anipulation  |
\*---------------------------------------------------------------------------*/
FoamFile
{
    format      ascii;
    class       volScalarField::Internal;
    location    "55";
    object      tmp<kEpsilon:G>;
}
// * * * * * * * * * * * * * * * * * * * * * * * * * * * * * * * * * * * * * //

dimensions      [0 2 -3 0 0 0 0];

value           nonuniform List<scalar> 
12225
(
0
0
0
0
0
0
0
0
0
0
0
0
0
0
0
0
0
0
947.58
499.924
263.075
279.168
381.871
499.323
610.083
724.083
813.391
904.294
969.25
1034.62
1080
1127.19
1165.91
1205.43
1289.28
1285.1
85.3598
122.922
55.229
17.0697
5.0167
4.2454
8.6403
16.6096
26.5406
38.3979
51.0767
64.4793
78.5625
91.7614
107.169
119.081
140.332
145.863
5.01277
1.70019
0.638296
0.725973
0.49082
0.208192
0.0481903
0.215804
0.831742
1.96044
3.59716
5.71638
8.3801
11.32
15.1414
19.0236
24.7965
29.4067
0.2281
0.130895
0.133047
0.276013
0.371761
0.345578
0.228228
0.0994645
0.0163142
0.00745441
0.0969942
0.302252
0.652759
1.14787
1.89855
2.84051
4.21685
5.57374
0.185249
0.178729
0.224109
0.264744
0.256874
0.239978
0.204534
0.151804
0.0959985
0.0462393
0.0122226
0.00395142
0.0333017
0.113911
0.273741
0.518704
0.879007
1.26567
0.13353
0.199358
0.195571
0.165171
0.150599
0.152012
0.145956
0.125433
0.0974251
0.0665345
0.0372238
0.014104
0.00343231
0.0135323
0.0560931
0.138756
0.264858
0.415851
0.10441
0.141126
0.132379
0.115126
0.110577
0.113493
0.109473
0.0957421
0.0768773
0.0556117
0.0342083
0.0152891
0.0027135
0.00174001
0.0191586
0.0606134
0.126262
0.214848
0.0816477
0.100807
0.100687
0.0939045
0.0912185
0.0905099
0.084788
0.073077
0.0581544
0.0417182
0.0253875
0.0113099
0.00236751
0.00228747
0.0156604
0.0463816
0.0938621
0.159906
0.0641296
0.0765482
0.0811647
0.078689
0.0760518
0.0735494
0.0677934
0.0581044
0.0460586
0.0330004
0.0205428
0.0107426
0.00600724
0.0091461
0.0234133
0.0512796
0.0916961
0.146953
0.050529
0.0592645
0.0655164
0.0654072
0.063841
0.0614743
0.0565451
0.0488826
0.0394698
0.0294859
0.0205292
0.0145169
0.0135693
0.019839
0.0356756
0.0624935
0.0989188
0.148095
0.0406023
0.0474873
0.0544196
0.0560267
0.055737
0.0541429
0.0502473
0.0443534
0.0372486
0.0300133
0.0241929
0.0215483
0.0238246
0.0326038
0.049539
0.0756309
0.109565
0.154908
0.0325248
0.0383191
0.0457439
0.0490197
0.0500108
0.04963
0.0470826
0.0428098
0.0378237
0.0333076
0.0305585
0.0311125
0.036092
0.0467877
0.0641924
0.0893032
0.120627
0.163378
0.0251647
0.0300373
0.0375777
0.0424303
0.044815
0.0459206
0.0453567
0.0432208
0.0405486
0.0386827
0.038958
0.0424333
0.0499283
0.0622084
0.0799586
0.103764
0.13231
0.171858
0.0186298
0.0229565
0.0305546
0.0367616
0.0407946
0.0435687
0.0452851
0.0457885
0.0458252
0.04675
0.0499301
0.0560182
0.0656857
0.0793095
0.0973281
0.120163
0.146208
0.182568
0.0129265
0.016938
0.0246562
0.0319834
0.0378308
0.0425708
0.0466351
0.0499198
0.0528451
0.056819
0.0628595
0.0713897
0.0826069
0.0971066
0.114949
0.136794
0.160718
0.194213
0.00805056
0.0119517
0.019887
0.0282836
0.0359052
0.0428109
0.0494199
0.0554582
0.0611265
0.0678882
0.0767233
0.0876369
0.10028
0.115032
0.132251
0.152788
0.175102
0.205033
0.00411659
0.00814978
0.0164873
0.0260813
0.0354433
0.044532
0.0537873
0.0625881
0.0707405
0.079818
0.0911084
0.104196
0.118163
0.132999
0.149335
0.168226
0.18872
0.214857
0.00143002
0.00592647
0.0150809
0.0262997
0.0376452
0.0489429
0.0606843
0.0720238
0.0824206
0.0933434
0.106359
0.120928
0.135773
0.150506
0.165938
0.183363
0.202051
0.224889
0.00094032
0.00632983
0.0170504
0.0303653
0.0437066
0.0568551
0.0703532
0.0832259
0.0950341
0.107278
0.121327
0.136293
0.150855
0.164854
0.179399
0.195747
0.212709
0.233356
0.00239779
0.00905393
0.0220866
0.0377201
0.0526044
0.0669353
0.0812237
0.094725
0.1072
0.120295
0.134672
0.149406
0.163171
0.176633
0.190605
0.206547
0.222175
0.241864
0.00559125
0.0142448
0.0303092
0.0481575
0.0644364
0.0798495
0.0945599
0.107748
0.119963
0.132974
0.146909
0.160661
0.173488
0.186413
0.200244
0.21579
0.23035
0.249005
0.0104351
0.02359
0.0430613
0.0602184
0.0761304
0.093169
0.10953
0.123047
0.134982
0.147172
0.159636
0.17124
0.182348
0.193981
0.207046
0.221545
0.234456
0.25179
0.0175756
0.0431635
0.070256
0.0809791
0.0886133
0.10243
0.119111
0.134243
0.14803
0.161446
0.173442
0.18334
0.192099
0.201378
0.211409
0.222354
0.230675
0.243769
0.0381604
0.075442
0.108383
0.133554
0.13628
0.137709
0.141952
0.147904
0.156132
0.165378
0.172481
0.176529
0.178871
0.181382
0.183749
0.186522
0.186533
0.19116
0.0741934
0.202478
0.0715191
0.102354
0.213049
0.279801
0.288203
0.266832
0.239109
0.211727
0.183894
0.157605
0.13619
0.122187
0.11538
0.116353
0.123124
0.140025
0.667345
0.132016
0.297711
0.47613
0.347824
0.278638
0.222099
0.141812
0.0677054
0.0246756
0.0273108
0.0876467
0.211844
0.400391
0.646741
0.949416
1.29378
1.68041
31.9368
71.262
43.4669
18.5134
7.24931
2.8004
1.21974
1.11236
1.9297
3.40428
5.38133
7.7646
10.4245
13.3146
16.2989
19.3892
22.3987
25.4269
455.308
257.395
100.784
70.0757
90.7881
126.681
166.104
203.29
237.856
269.558
297.729
323.167
345.579
365.705
383.319
399.416
413.751
427.542
0
0
0
0
0
0
0
0
0
0
0
0
0
0
0
0
0
0
0
0
0
0
7.54332
9.0219
10.0809
10.7203
10.9155
0
0
0
0
0
0
0
0
6.02897
5.32136
4.44147
3.29654
1.87969
1.51873
4.29482
9.22847
16.0942
25.0056
35.8285
48.32
62.3067
77.5202
93.74
110.705
128.284
146.224
164.497
182.861
201.387
219.838
238.366
256.726
275.131
293.316
311.542
329.516
347.539
365.28
383.067
400.535
418.034
435.148
452.253
468.882
485.437
501.406
517.219
532.291
547.099
561.02
574.54
586.93
598.715
609.171
618.968
627.319
634.815
640.937
646.155
650.473
654.092
655.217
655.751
655.034
651.152
645.817
638.219
629.044
617.538
603.963
589.95
568.354
555.647
530.48
515.362
485.035
467.412
445.661
424.344
402.555
380.64
358.634
336.785
315.291
294.279
273.829
254.005
234.842
216.422
198.758
181.901
165.837
150.578
136.105
122.421
109.522
97.3622
85.8596
75.1231
65.0933
55.7253
46.985
38.8307
31.2359
24.1772
17.6535
11.7251
6.76348
4.57266
7.25043
11.5292
15.9622
20.2904
24.4548
28.4341
32.2203
35.8137
39.2342
42.4829
45.5771
48.5251
51.3344
53.9943
56.5522
58.9382
61.1844
63.2927
65.283
67.1687
68.958
70.6389
72.2169
73.6889
75.0618
76.3371
77.5312
78.6535
79.703
80.6826
81.5962
82.4517
83.264
84.0318
84.7582
85.4428
86.0717
86.642
87.1397
87.5372
87.7724
87.8274
87.5762
86.9462
85.885
84.1202
81.8922
78.887
75.5886
72.028
68.9766
66.3761
64.8205
62.8052
62.0877
62.1778
63.3731
62.4398
63.8725
64.2267
64.341
0
0
15.8505
15.4988
10.3577
5.96221
2.99324
2.1303
3.17748
5.51515
8.38801
11.7025
15.1216
19.2287
26.8036
35.8176
47.9607
62.3598
79.4283
99.1962
120.532
142.687
164.771
187.124
206.891
221.717
230.554
232.499
228.03
218.014
203.587
188.13
170.668
152.727
134.929
117.942
102.159
87.8314
75.0605
63.8557
54.1491
45.8397
38.8028
32.9141
28.0483
24.0943
20.9504
18.5309
16.7607
15.579
14.9355
14.7845
15.0853
15.8023
16.9069
18.3679
20.1581
22.2376
24.5709
27.1056
29.7999
32.5747
35.3524
38.0464
40.5841
42.9403
45.0496
47.2218
49.6223
52.3536
55.393
58.9065
63.0374
67.6335
73.0548
78.6079
85.4634
91.9957
98.5762
105.589
112.266
118.051
124.749
130.398
136.585
140.69
143.962
146.637
148.351
149.129
149.06
148.134
146.268
143.595
140.231
136.347
132.136
127.597
122.821
117.909
112.942
108.018
103.17
98.4388
93.8378
89.4001
85.1908
81.2221
77.5166
74.0703
70.8962
67.9672
65.3034
62.8626
60.6267
58.5436
56.6111
54.921
53.367
51.7747
50.2491
48.824
47.5052
46.2843
45.166
44.1637
43.2717
42.4566
41.7227
41.0461
40.4016
39.8099
39.256
38.7316
38.2062
37.7024
37.2299
36.7677
36.3038
35.8535
35.4435
35.0479
34.6348
34.2193
33.8218
33.4284
33.0411
32.6711
32.3008
31.9596
31.6463
31.3441
31.0701
30.8077
30.5598
30.3414
30.1051
29.8383
29.573
29.2963
29.0166
28.7587
28.5286
28.3333
28.1252
27.9455
27.5721
26.8567
26.1984
24.7923
23.3275
21.4528
19.9214
19.0148
16.1685
15.7717
20.8935
23.1634
22.6317
23.751
36.1635
0
7.60502
6.13819
2.65565
0.655925
0.898616
3.30374
7.53317
13.344
20.7839
30.3073
42.8526
59.8009
81.9343
107.838
135.244
161.475
185.117
204.274
216.59
220.827
216.517
205.066
188.689
169.283
149.34
129.772
111.434
95.1841
81.7896
70.8467
63.0338
58.1958
56.0476
56.1669
58.1081
61.4292
65.7384
70.6925
76.017
81.4899
86.9455
92.2551
97.3249
102.085
106.487
110.492
114.07
117.197
119.859
122.05
123.759
124.972
125.681
125.907
125.679
125.028
124.001
122.684
121.19
119.654
118.233
117.126
116.568
116.75
117.961
119.98
122.763
126.311
130.688
136.091
142.566
150.092
158.72
168.223
178.812
189.933
201.192
213.004
224.326
235.884
247.044
256.989
266
272.977
278.618
282.444
284.294
284.259
282.503
279.196
274.349
268.069
260.541
252.036
242.775
232.98
222.83
212.517
202.202
192.049
182.131
172.508
163.232
154.325
145.866
137.881
130.436
123.52
117.16
111.288
105.852
100.774
96.0372
91.5469
87.3295
83.3619
79.6937
76.4517
73.5582
70.8518
68.2915
65.8594
63.5739
61.4196
59.3978
57.5072
55.7296
54.0507
52.4746
50.9706
49.5239
48.1394
46.8231
45.5683
44.3529
43.1602
42.022
40.9464
39.9197
38.9294
37.9523
36.9988
36.0689
35.1759
34.3137
33.4921
32.7126
31.9464
31.2081
30.5253
29.8908
29.2941
28.7207
28.1503
27.5948
27.0437
26.5008
25.9868
25.5114
25.0947
24.7219
24.4226
24.1559
23.8546
23.4793
22.8773
22.0156
20.792
19.3419
17.7727
15.9993
14.7959
13.717
13.1925
14.5155
15.7234
16.9254
18.7302
23.0626
0
1.18919
2.32749
2.0134
2.77585
5.52064
10.3836
17.3478
26.4631
37.8642
52.0046
69.691
91.4059
116.414
142.364
165.095
180.335
184.584
178.457
164.557
146.284
126.784
107.571
90.2185
75.7571
64.307
56.0787
51.0361
48.9415
49.4763
52.2501
56.8967
63.0193
70.2688
78.303
86.8266
95.5808
104.356
112.983
121.33
129.295
136.804
143.801
150.25
156.12
161.396
166.068
170.135
173.595
176.459
178.742
180.46
181.623
182.252
182.385
182.075
181.372
180.343
179.071
177.66
176.217
174.858
173.707
172.906
172.574
172.854
173.895
175.878
178.958
183.266
188.955
196.133
204.848
215.125
226.837
239.943
254.072
269.202
284.507
299.916
315.469
330.41
344.184
356.51
366.744
374.883
380.63
383.793
384.423
382.716
378.814
372.807
364.847
355.211
344.183
332.097
319.211
305.811
292.13
278.414
264.863
251.569
238.646
226.144
214.132
202.678
191.876
181.75
172.31
163.475
155.185
147.375
140.031
133.176
126.818
120.927
115.446
110.326
105.589
101.204
97.0845
93.1852
89.4865
85.9882
82.6935
79.5893
76.6579
73.8915
71.2714
68.7854
66.4297
64.1836
62.0317
59.9663
57.9894
56.0953
54.2683
52.5021
50.8095
49.1985
47.6552
46.1608
44.7205
43.3362
42.0031
40.7261
39.5051
38.3153
37.1798
36.1145
35.115
34.1597
33.2305
32.3415
31.5014
30.6898
29.8978
29.1459
28.452
27.8188
27.2489
26.7383
26.2684
25.7962
25.2855
24.6598
23.7957
22.688
21.2726
19.6206
17.9164
16.1352
14.7515
13.8065
13.3873
13.5257
14.12
15.8119
18.3042
21.8164
0
6.85494
14.7891
18.7925
22.1123
26.7189
33.0784
41.2987
51.3964
63.3752
77.1628
92.3426
107.746
121.264
130.423
132.62
126.885
115.402
100.61
85.1627
70.7677
58.4113
48.8104
42.1188
38.2313
36.8923
37.8192
40.7561
45.4789
51.7727
59.4173
68.2219
77.9795
88.4786
99.4985
110.836
122.301
133.726
144.965
155.894
166.409
176.424
185.87
194.692
202.847
210.3
217.026
223.012
228.248
232.732
236.468
239.466
241.733
243.284
244.15
244.369
243.984
243.054
241.649
239.854
237.762
235.485
233.156
230.945
229.054
227.712
227.175
227.7
229.527
232.871
237.921
244.836
253.732
264.645
277.506
292.195
308.47
326.111
344.621
363.75
382.404
400.989
418.252
433.878
447.283
458.155
466.132
471.059
472.887
471.805
467.983
461.571
452.729
441.8
429.089
414.976
399.784
383.858
367.513
351.027
334.648
318.508
302.77
287.486
272.805
258.76
245.422
232.727
220.712
209.32
198.605
188.572
179.222
170.5
162.387
154.82
147.769
141.185
135.056
129.32
123.917
118.788
113.925
109.317
104.965
100.844
96.9442
93.2441
89.7384
86.4081
83.2464
80.2261
77.3326
74.5578
71.9058
69.3627
66.914
64.552
62.2894
60.1312
58.0616
56.058
54.1227
52.2602
50.4742
48.7658
47.1405
45.5873
44.1097
42.7145
41.3909
40.1173
38.8843
37.7141
36.611
35.5595
34.5498
33.605
32.7405
31.9566
31.2415
30.5799
29.9467
29.2868
28.5526
27.6794
26.5636
25.1886
23.5737
21.7576
19.8911
18.0346
16.5306
15.4701
14.8492
14.5771
14.4519
15.8184
18.457
21.5767
0
22.8641
43.0719
53.9085
60.3784
66.274
72.4065
78.7147
85.1596
91.4755
97.1047
101.168
102.642
100.53
94.4199
85.2309
74.1773
62.5499
51.8915
43.1998
36.8749
32.8909
31.0305
31.0394
32.7155
35.9119
40.5539
46.6038
54.0136
62.7229
72.6376
83.6494
95.6177
108.38
121.758
135.566
149.62
163.746
177.783
191.585
205.024
217.984
230.369
242.092
253.081
263.275
272.623
281.084
288.624
295.219
300.852
305.507
309.178
311.866
313.582
314.348
314.198
313.177
311.352
308.802
305.634
301.978
298.005
293.935
290.045
286.626
284.004
282.504
282.441
284.113
287.787
293.7
302.029
312.868
326.208
341.945
359.864
379.673
400.872
423.002
445.214
467.051
487.787
506.738
523.315
537.001
547.403
554.25
557.494
557.308
553.824
547.205
537.737
525.714
511.556
495.64
478.398
460.192
441.425
422.413
403.442
384.721
366.375
348.507
331.169
314.392
298.258
282.861
268.267
254.525
241.625
229.548
218.252
207.704
197.853
188.654
180.059
172.028
164.518
157.469
150.81
144.491
138.491
132.804
127.417
122.311
117.467
112.866
108.496
104.342
100.387
96.61
92.9942
89.5312
86.2158
83.0367
79.9797
77.0404
74.2229
71.5288
68.9417
66.4458
64.0393
61.7237
59.498
57.3635
55.3344
53.4056
51.5756
49.8433
48.1974
46.6242
45.1173
43.6879
42.3425
41.0688
39.8561
38.7281
37.697
36.7578
35.8907
35.0723
34.2676
33.4146
32.4593
31.3424
29.9869
28.3746
26.5545
24.5779
22.5551
20.5889
18.9514
17.7197
16.8806
16.3373
15.8571
16.5999
19.0079
21.5025
0
44.7965
78.0676
95.9657
105.496
111.449
115.056
116.362
115.532
112.613
107.546
100.483
91.3513
80.921
69.9474
59.3127
49.9732
42.5
37.1055
33.7256
32.1557
32.1558
33.544
36.2061
40.1006
45.2214
51.6065
59.2948
68.3118
78.6461
90.249
103.037
116.893
131.677
147.223
163.354
179.886
196.64
213.44
230.123
246.533
262.531
277.986
292.785
306.821
320.001
332.243
343.473
353.628
362.652
370.496
377.122
382.495
386.591
389.401
390.927
391.186
390.212
388.063
384.819
380.594
375.538
369.849
363.785
357.69
351.91
346.849
342.9
340.46
339.921
341.65
345.977
353.17
363.402
376.734
393.102
412.303
433.995
457.665
482.631
508.361
533.384
557.796
580.187
600.022
616.63
629.506
638.328
643.039
643.682
640.489
633.635
623.405
610.188
594.448
576.638
557.248
536.737
515.575
494.09
472.536
451.115
429.808
408.873
388.45
368.755
349.905
332.007
315.061
299.103
284.089
270.016
256.823
244.482
232.924
222.112
211.985
202.512
193.628
185.277
177.376
169.884
162.767
156.021
149.62
143.55
137.782
132.303
127.09
122.13
117.402
112.89
108.572
104.44
100.48
96.6845
93.0399
89.542
86.1892
82.9785
79.8936
76.9211
74.0573
71.303
68.6578
66.1207
63.6983
61.3952
59.2198
57.1644
55.215
53.3587
51.589
49.9118
48.3328
46.846
45.4455
44.1444
42.9492
41.8509
40.8195
39.8283
38.8371
37.7828
36.6086
35.2584
33.675
31.8483
29.8361
27.6976
25.5191
23.4218
21.6292
20.2002
19.1384
18.3562
17.773
18.0692
19.7902
21.9994
0
64.1277
106.2
128.728
139.742
144.218
143.849
139.41
131.772
121.49
109.517
96.5661
83.7769
71.8241
61.4554
53.0759
46.816
42.5792
40.1569
39.3057
39.8138
41.5425
44.413
48.4124
53.5762
59.9657
67.6443
76.6675
87.0697
98.8536
111.986
126.4
141.997
158.649
176.205
194.5
213.355
232.589
252.017
271.463
290.755
309.727
328.226
346.108
363.236
379.487
394.744
408.903
421.864
433.541
443.852
452.725
460.097
465.918
470.149
472.77
473.775
473.181
471.033
467.403
462.402
456.187
448.969
441.025
432.752
424.547
416.895
410.263
405.134
402.003
401.352
403.629
409.211
418.378
431.277
447.903
468.076
491.43
517.408
545.258
574.119
602.96
630.899
656.862
680.017
699.563
714.888
725.593
731.554
732.872
729.702
722.267
710.932
696.213
678.626
658.767
637.052
614.061
590.158
565.565
540.658
515.729
491.057
466.951
443.633
421.242
399.878
379.578
360.375
342.256
325.21
309.195
294.174
280.085
266.878
254.494
242.887
232.004
221.786
212.159
203.053
194.416
186.222
178.448
171.072
164.069
157.415
151.088
145.067
139.334
133.869
128.653
123.667
118.894
114.322
109.941
105.74
101.713
97.8548
94.1564
90.6031
87.1815
83.8878
80.7212
77.6807
74.764
71.9761
69.3211
66.8111
64.4489
62.2141
60.0935
58.08
56.1755
54.3832
52.6993
51.1175
49.645
48.2812
47.0126
45.8092
44.6369
43.4545
42.199
40.8135
39.2437
37.4449
35.4183
33.2223
30.9205
28.5893
26.3508
24.3935
22.7669
21.494
20.5055
19.7661
19.6642
20.8577
22.6558
0
75.7515
119.513
141.575
151.021
153.071
149.7
142.04
131.127
118.212
104.531
91.2808
79.3325
69.2993
61.4175
55.6668
51.8758
49.8011
49.2055
49.8974
51.7473
54.6937
58.7283
63.8908
70.2384
77.8456
86.7837
97.1101
108.861
122.045
136.639
152.589
169.808
188.185
207.585
227.854
248.823
270.314
292.143
314.127
336.083
357.832
379.201
400.023
420.139
439.396
457.651
474.768
490.619
505.083
518.048
529.41
539.074
546.961
553.002
557.148
559.366
559.649
558.019
554.53
549.277
542.407
534.124
524.702
514.573
504.177
494.07
484.799
476.929
471.064
467.811
467.75
471.396
479.156
491.29
507.871
528.764
553.605
581.788
612.471
644.619
677.189
708.775
738.377
764.862
787.278
804.878
817.221
824.116
825.676
822.092
813.773
801.047
784.412
764.528
741.853
716.841
690.157
662.356
633.92
605.386
577.054
549.267
522.226
496.161
471.167
447.359
424.745
403.364
383.178
364.183
346.318
329.548
313.795
299.016
285.14
272.124
259.899
248.408
237.565
227.31
217.586
208.367
199.619
191.32
183.436
175.945
168.819
162.039
155.58
149.425
143.55
137.939
132.569
127.428
122.504
117.79
113.274
108.949
104.802
100.818
96.985
93.2976
89.754
86.352
83.0897
79.9693
76.9955
74.1792
71.5327
69.0329
66.6669
64.4275
62.3137
60.326
58.4603
56.7103
55.0761
53.55
52.1127
50.7311
49.3682
47.9842
46.5305
44.9571
43.1861
41.1858
38.9709
36.5993
34.136
31.6558
29.2744
27.1529
25.3421
23.8851
22.7095
21.9085
21.3499
21.7862
23.4913
0
70.1438
111.781
131.363
138.883
139.912
136.082
128.495
118.301
106.761
95.2341
84.6144
75.6328
68.5897
63.5172
60.2779
58.6619
58.4546
59.4802
61.6178
64.8038
69.0308
74.3246
80.7434
88.3593
97.251
107.489
119.13
132.211
146.747
162.719
180.085
198.773
218.685
239.704
261.69
284.486
307.923
331.823
356.005
380.285
404.479
428.403
451.877
474.723
496.772
517.858
537.821
556.508
573.772
589.471
603.471
615.651
625.899
634.116
640.224
644.159
645.885
645.392
642.707
637.899
631.087
622.453
612.247
600.89
588.88
576.806
565.297
554.99
546.591
540.832
538.439
540.079
546.31
557.527
573.909
595.391
621.636
651.997
685.535
721.055
757.226
792.611
825.692
855.442
880.51
900.147
913.891
921.48
922.886
918.37
908.276
892.93
872.895
849.037
822.035
792.74
761.914
730.237
698.211
666.25
634.696
603.847
573.961
545.206
517.715
491.543
466.733
443.27
421.143
400.303
380.711
362.296
344.999
328.75
313.492
299.161
285.691
273.008
261.035
249.707
238.975
228.801
219.15
209.992
201.295
193.029
185.168
177.687
170.564
163.775
157.3
151.116
145.203
139.544
134.132
128.954
124
119.255
114.707
110.338
106.138
102.101
98.2221
94.5
90.9321
87.5197
84.267
81.184
78.2826
75.5425
72.953
70.5078
68.2034
66.038
64.0057
62.0991
60.3113
58.629
57.0278
55.4736
53.9273
52.3509
50.7036
48.9463
47.0015
44.8162
42.427
39.8907
37.274
34.6525
32.1339
29.8598
27.8841
26.265
24.9446
24.032
23.2557
23.1654
24.4342
0
53.9513
89.8536
105.986
112.699
114.054
111.693
106.545
99.5317
91.6484
83.9358
77.1242
71.7084
67.8696
65.6
64.7803
65.2539
66.8748
69.5364
73.1776
77.7871
83.3884
90.0315
97.7886
106.736
116.948
128.493
141.421
155.766
171.537
188.721
207.292
227.193
248.344
270.644
293.975
318.195
343.149
368.67
394.587
420.722
446.892
472.913
498.598
523.763
548.229
571.816
594.353
615.666
635.586
653.949
670.6
685.387
698.175
708.838
717.266
723.368
727.075
728.346
727.173
723.588
717.676
709.581
699.518
687.85
675.132
661.946
649.004
636.988
626.69
618.957
614.661
614.627
619.587
630.079
646.395
668.566
696.297
728.905
765.32
804.182
843.922
883.001
919.686
952.528
979.993
1001.2
1015.5
1022.57
1022.24
1014.92
1001.04
981.325
956.788
928.385
897.079
863.679
828.941
793.479
757.864
722.486
687.745
653.917
621.273
589.947
560.073
531.678
504.805
479.412
455.485
432.956
411.78
391.871
373.168
355.59
339.08
323.557
308.957
295.191
282.192
269.891
258.244
247.202
236.733
226.796
217.363
208.397
199.874
191.763
184.044
176.689
169.678
162.983
156.587
150.473
144.631
139.048
133.711
128.602
123.704
119.003
114.487
110.149
105.983
101.988
98.1596
94.5002
91.0129
87.7076
84.5868
81.637
78.8506
76.2231
73.7494
71.4253
69.243
67.1924
65.2614
63.4318
61.6761
59.9592
58.2421
56.4878
54.6632
52.7335
50.6264
48.275
45.729
43.0446
40.2886
37.5383
34.8947
32.4856
30.3681
28.6069
27.1743
26.1252
25.4031
24.6889
25.6623
0
37.1051
63.5454
76.2026
82.5429
85.0086
84.7494
82.6267
79.3855
75.7852
72.3762
69.6427
67.8822
67.2225
67.6753
69.1856
71.6766
75.0809
79.3591
84.5041
90.5367
97.5018
105.463
114.498
124.678
136.078
148.763
162.781
178.165
194.935
213.086
232.592
253.404
275.45
298.642
322.855
347.984
373.897
400.449
427.487
454.846
482.368
509.869
537.171
564.088
590.44
616.043
640.717
664.276
686.54
707.329
726.469
743.792
759.14
772.363
783.328
791.916
798.031
801.601
802.584
800.977
796.826
790.23
781.355
770.497
758.211
745.08
731.87
719.293
708.196
699.533
694.287
693.44
697.847
708.191
724.879
748.051
777.463
812.435
851.801
894.035
937.323
979.693
1019.27
1054.34
1083
1104.22
1117.13
1121.56
1117.81
1106.44
1088.24
1064.13
1035.14
1002.28
966.575
928.941
890.172
850.906
811.696
772.988
735.15
698.495
663.233
629.522
597.433
567.016
538.259
511.14
485.597
461.579
439
417.785
397.846
379.112
361.503
344.943
329.346
314.633
300.729
287.577
275.121
263.317
252.124
241.503
231.42
221.842
212.737
204.077
195.837
187.991
180.512
173.377
166.564
160.062
153.855
147.931
142.27
136.854
131.665
126.689
121.912
117.326
112.926
108.708
104.669
100.811
97.1368
93.6537
90.3537
87.23
84.2793
81.4973
78.8791
76.4178
74.1043
71.9249
69.8643
67.9002
66.0037
64.1389
62.2679
60.3551
58.3701
56.2806
54.016
51.5176
48.8356
46.0242
43.148
40.2869
37.5365
35.0136
32.7807
30.9003
29.3646
28.2363
27.3757
26.6046
26.5553
0
23.4773
39.7602
48.5497
54.1475
57.6639
59.7653
60.9158
61.5138
61.931
62.5298
63.5639
65.1908
67.4812
70.4638
74.1381
78.4966
83.5448
89.3042
95.812
103.121
111.295
120.404
130.521
141.723
154.07
167.619
182.411
198.481
215.84
234.49
254.419
275.595
297.98
321.498
346.074
371.597
397.95
425.003
452.611
480.62
508.854
537.177
565.425
593.432
621.028
648.017
674.241
699.506
723.624
746.403
767.662
787.221
804.908
820.556
834.015
845.145
853.829
859.97
863.499
864.383
862.63
858.301
851.511
842.479
831.722
819.831
807.597
795.738
785.123
776.732
771.66
771.019
775.816
786.876
804.66
829.282
860.615
898.017
940.129
985.154
1031.04
1075.58
1116.39
1151.74
1179.7
1199.54
1210.37
1212.15
1205.24
1190.19
1167.9
1139.45
1106
1068.74
1028.68
986.904
944.149
901.19
858.505
816.615
775.872
736.591
698.947
663.081
629.033
596.832
566.444
537.825
510.913
485.637
461.891
439.589
418.629
398.936
380.416
362.991
346.562
331.056
316.396
302.527
289.39
276.941
265.135
253.935
243.301
233.204
223.608
214.486
205.807
197.548
189.678
182.176
175.02
168.199
161.696
155.495
149.574
143.912
138.493
133.301
128.321
123.545
118.965
114.578
110.38
106.374
102.566
98.9465
95.5107
92.2543
89.1761
86.2723
83.5379
80.9646
78.541
76.252
74.0786
71.9971
69.9769
67.9831
65.9781
63.9278
61.8
59.5623
57.1445
54.5165
51.7203
48.8038
45.8302
42.8795
40.0445
37.4323
35.1113
33.138
31.5237
30.3265
29.4473
28.3033
28.1765
0
13.8651
22.2098
27.9003
32.6967
36.9244
40.8284
44.599
48.3748
52.2511
56.299
60.5692
65.1086
69.958
75.1484
80.7186
86.7142
93.1797
100.168
107.759
116.034
125.073
134.957
145.76
157.552
170.398
184.352
199.458
215.744
233.229
251.915
271.792
292.832
314.991
338.226
362.471
387.65
413.67
440.428
467.819
495.722
524.01
552.532
581.141
609.679
638.007
665.918
693.211
719.724
745.269
769.66
792.713
814.255
834.094
852.03
867.909
881.571
892.887
901.738
908.042
911.739
912.809
911.28
907.217
900.781
892.414
882.736
872.539
862.549
853.649
846.887
843.461
844.51
851.132
864.163
884.14
911.256
945.299
985.287
1029.77
1076.83
1124.27
1169.72
1210.85
1246.1
1272.91
1290.88
1298.92
1297.11
1285.9
1266.11
1238.74
1205.1
1166.52
1124.32
1079.49
1033.54
987.034
940.727
895.075
850.542
807.476
766.119
726.652
689.146
653.644
620.109
588.529
558.795
530.882
504.66
480.041
456.911
435.18
414.753
395.539
377.445
360.374
344.244
328.992
314.553
300.876
287.91
275.614
263.945
252.873
242.36
232.373
222.881
213.855
205.265
197.085
189.292
181.87
174.802
168.074
161.662
155.546
149.702
144.115
138.768
133.645
128.736
124.033
119.532
115.233
111.137
107.238
103.529
100.003
96.659
93.4937
90.5045
87.6853
85.028
82.5192
80.1424
77.877
75.698
73.5747
71.4725
69.3549
67.1869
64.9326
62.5575
59.9963
57.2556
54.3646
51.3644
48.3166
45.3005
42.4061
39.732
37.3487
35.3112
33.6325
32.3772
31.459
30.4708
29.5422
0
8.26087
11.6984
15.4576
19.6999
24.399
29.578
35.2419
41.3424
47.8001
54.5072
61.3645
68.2911
75.2523
82.2463
89.3108
96.5132
103.938
111.68
119.848
128.547
137.88
147.94
158.816
170.583
183.307
197.045
211.84
227.726
244.721
262.834
282.06
302.391
323.799
346.25
369.699
394.087
419.342
445.383
472.113
499.44
527.253
555.434
583.846
612.356
640.803
669.083
697.029
724.451
751.153
776.944
801.605
824.944
846.829
867.056
885.457
901.852
916.074
927.997
937.506
944.52
949.015
950.944
950.369
947.402
942.372
935.97
928.998
922.199
916.448
912.798
912.336
916.304
925.725
941.409
963.932
993.455
1029.48
1070.91
1116.4
1164.05
1211.52
1256.53
1296.5
1330.09
1354.73
1369.74
1374.4
1368.6
1352.97
1328.45
1296.3
1257.87
1214.7
1168.15
1119.43
1069.68
1019.76
970.491
922.094
875.141
829.995
786.86
745.875
707.073
670.455
635.951
603.52
572.977
544.426
517.651
492.526
468.924
446.752
425.898
406.269
387.78
370.321
353.811
338.187
323.386
309.36
296.053
283.429
271.435
260.051
249.239
238.968
229.205
219.923
211.09
202.683
194.682
187.068
179.828
172.943
166.389
160.142
154.181
148.489
143.046
137.839
132.856
128.088
123.537
119.194
115.055
111.114
107.364
103.796
100.408
97.1975
94.1602
91.2903
88.5788
86.012
83.5722
81.2384
78.9845
76.7807
74.5918
72.3827
70.1145
67.7494
65.2368
62.5586
59.7226
56.7537
53.6897
50.5903
47.5337
44.6064
41.8989
39.4793
37.4022
35.6755
34.3525
33.391
32.4175
31.2694
0
6.27853
7.12981
10.1793
14.3081
19.4739
25.6573
32.7554
40.6049
49.001
57.7172
66.5324
75.2743
83.8328
92.1665
100.294
108.283
116.239
124.285
132.551
141.168
150.262
159.946
170.321
181.475
193.484
206.41
220.303
235.201
251.128
268.101
286.127
305.202
325.315
346.443
368.554
391.606
415.552
440.335
465.891
492.149
519.03
546.441
574.283
602.443
630.79
659.185
687.48
715.519
743.129
770.121
796.325
821.522
845.487
868.009
888.893
908.021
925.21
940.322
953.217
963.837
972.084
977.9
981.378
982.422
981.358
978.889
975.811
972.829
970.858
970.897
974.131
981.727
994.604
1013.63
1039.34
1071.36
1109.29
1152.25
1198.74
1246.7
1293.72
1337.46
1375.43
1406.16
1427.47
1438.39
1438.58
1427.71
1406.79
1376.87
1339.37
1295.87
1248.01
1197.25
1144.86
1091.9
1039.23
987.619
937.384
888.978
842.649
798.57
756.803
717.374
680.23
645.302
612.5
581.664
552.795
525.73
500.333
476.486
454.08
433.006
413.157
394.473
376.791
360.054
344.202
329.18
314.934
301.413
288.579
276.373
264.805
253.822
243.386
233.466
224.032
215.057
206.516
198.4
190.681
183.346
176.375
169.743
163.428
157.407
151.667
146.187
140.955
135.96
131.189
126.636
122.295
118.162
114.227
110.481
106.915
103.524
100.306
97.256
94.3679
91.6319
89.0345
86.5579
84.1809
81.8769
79.6169
77.3645
75.0836
72.7322
70.2522
67.6258
64.8447
61.9246
58.889
55.7769
52.6461
49.5729
46.6387
43.9252
41.4947
39.3974
37.64
36.2491
35.2117
34.3356
33.0869
0
7.07263
6.61324
9.97207
14.5154
20.3524
27.4842
35.7652
44.973
54.8215
64.9957
75.1959
85.1803
94.7803
103.915
112.584
120.853
128.833
136.667
144.506
152.507
160.82
169.578
178.909
188.916
199.691
211.31
223.832
237.303
251.757
267.219
283.703
301.217
319.757
339.312
359.856
381.366
403.807
427.141
451.329
476.323
502.073
528.512
555.568
583.152
611.165
639.489
668.002
696.56
724.999
753.148
780.843
807.839
833.904
858.857
882.544
904.717
925.196
943.775
960.35
974.785
986.954
996.986
1004.6
1009.97
1013.08
1014.84
1015.86
1016.92
1018.94
1022.96
1030.14
1041.42
1057.66
1079.69
1107.22
1140.55
1179.08
1221.84
1267.28
1313.25
1357.44
1397.51
1431.42
1457.08
1473.66
1479.65
1474.59
1458.87
1433.03
1398.49
1356.73
1309.48
1258.38
1204.92
1150.31
1095.57
1041.48
988.695
937.661
888.735
842.122
797.929
756.18
716.855
679.881
645.169
612.612
582.078
553.461
526.623
501.435
477.777
455.539
434.609
414.878
396.305
378.7
362.028
346.224
331.233
317.001
303.48
290.634
278.407
266.801
255.773
245.292
235.326
225.847
216.831
208.255
200.117
192.373
185.032
178.061
171.437
165.137
159.136
153.428
147.989
142.805
137.862
133.149
128.66
124.388
120.321
116.45
112.762
109.249
105.905
102.725
99.706
96.8392
94.1164
91.5227
89.0416
86.6517
84.3261
82.0359
79.7428
77.4049
74.9661
72.3942
69.6713
66.8025
63.8097
60.7208
57.577
54.4362
51.37
48.4545
45.7605
43.3436
41.2452
39.4733
38.0251
36.9086
35.9755
34.9883
0
8.64265
8.03411
11.9758
17.2018
23.8913
32.0075
41.3844
51.7432
62.7225
73.9273
84.994
95.6327
105.668
115.013
123.663
131.693
139.231
146.435
153.477
160.531
167.768
175.347
183.412
192.087
201.479
211.678
222.735
234.72
247.673
261.627
276.604
292.616
309.667
327.748
346.85
366.953
388.038
410.079
433.057
456.958
481.754
507.408
533.871
561.079
588.956
617.409
646.329
675.591
705.034
734.558
763.927
792.925
821.316
848.957
875.625
901.086
925.113
947.53
968.161
986.835
1003.51
1017.99
1030.23
1040.06
1047.63
1053.76
1058.93
1063.91
1069.7
1077.19
1087.44
1100.93
1118.63
1140.57
1167.3
1198.47
1233.88
1272.49
1312.71
1352.72
1390.07
1423.34
1450.22
1469.36
1479.28
1479.36
1469.27