/*--------------------------------*- C++ -*----------------------------------*\
  =========                 |
  \\      /  F ield         | OpenFOAM: The Open Source CFD Toolbox
   \\    /   O peration     | Website:  https://openfoam.org
    \\  /    A nd           | Version:  9
     \\/     M anipulation  |
\*---------------------------------------------------------------------------*/
FoamFile
{
    format      ascii;
    class       volVectorField;
    location    "55";
    object      U;
}
// * * * * * * * * * * * * * * * * * * * * * * * * * * * * * * * * * * * * * //

dimensions      [0 1 -1 0 0 0 0];

internalField   nonuniform List<vector> 
12225
(
(9.85687 -0.886659 0)
(9.6656 -0.740521 0)
(9.45376 -0.429341 0)
(9.22059 -0.221734 0)
(8.99986 -0.105747 0)
(8.80456 -0.0450518 0)
(8.63341 -0.014297 0)
(8.48633 0.00152064 0)
(8.35891 0.00973222 0)
(8.24956 0.0139241 0)
(8.15304 0.0159751 0)
(8.06716 0.017444 0)
(7.98846 0.0184156 0)
(7.91491 0.0197023 0)
(7.84248 0.0209688 0)
(7.77191 0.0248599 0)
(7.67301 0.031174 0)
(7.64057 0.0428599 0)
(10.0545 0.227815 0)
(10.1211 0.327157 0)
(10.119 0.262061 0)
(10.0841 0.18723 0)
(10.0407 0.135629 0)
(9.99233 0.102257 0)
(9.93736 0.0806786 0)
(9.87563 0.0663675 0)
(9.81087 0.0566134 0)
(9.74419 0.0496185 0)
(9.67768 0.0445185 0)
(9.6116 0.0408374 0)
(9.54696 0.0384148 0)
(9.48387 0.0373201 0)
(9.42115 0.0375276 0)
(9.36223 0.0410904 0)
(9.29484 0.0452153 0)
(9.25654 0.0756304 0)
(10.0035 0.0582794 0)
(10.0302 0.0562985 0)
(10.0551 0.0344921 0)
(10.0683 0.0338516 0)
(10.0736 0.0419109 0)
(10.0728 0.0482254 0)
(10.0653 0.0515403 0)
(10.0514 0.0531471 0)
(10.033 0.0537925 0)
(10.0107 0.0538773 0)
(9.98547 0.0538049 0)
(9.95753 0.0539657 0)
(9.92752 0.0545924 0)
(9.89575 0.0561038 0)
(9.86173 0.0585462 0)
(9.82677 0.064242 0)
(9.78828 0.0715907 0)
(9.75457 0.0929863 0)
(9.99769 0.0111056 0)
(10.0107 0.0271203 0)
(10.0339 0.0379315 0)
(10.0503 0.0492496 0)
(10.0607 0.0571678 0)
(10.068 0.0604912 0)
(10.0718 0.0613303 0)
(10.0719 0.0613981 0)
(10.0692 0.061287 0)
(10.0639 0.061169 0)
(10.0563 0.0612731 0)
(10.0466 0.0618799 0)
(10.0348 0.0631335 0)
(10.0214 0.0654043 0)
(10.0059 0.0689001 0)
(9.98907 0.0752427 0)
(9.97075 0.0841597 0)
(9.95461 0.100677 0)
(9.99929 0.00731569 0)
(10.0086 0.032315 0)
(10.0263 0.0449769 0)
(10.0395 0.0515744 0)
(10.0491 0.0559131 0)
(10.0573 0.0582188 0)
(10.0637 0.0592973 0)
(10.0677 0.0599871 0)
(10.0697 0.0606104 0)
(10.0699 0.0612952 0)
(10.0683 0.0622319 0)
(10.0651 0.0636718 0)
(10.0603 0.0657876 0)
(10.0543 0.0689195 0)
(10.0467 0.0733758 0)
(10.0384 0.0802232 0)
(10.0296 0.0896299 0)
(10.0229 0.103143 0)
(10.0003 0.00943117 0)
(10.0079 0.0320016 0)
(10.0215 0.0423524 0)
(10.0327 0.0474763 0)
(10.0413 0.0518318 0)
(10.0492 0.054999 0)
(10.0559 0.0569772 0)
(10.0609 0.0584014 0)
(10.0643 0.0596837 0)
(10.0663 0.0610116 0)
(10.0669 0.0625785 0)
(10.0662 0.0646271 0)
(10.0643 0.0673597 0)
(10.0613 0.0710927 0)
(10.0574 0.0761388 0)
(10.053 0.0831842 0)
(10.0488 0.0923926 0)
(10.0464 0.104054 0)
(10.0004 0.00927395 0)
(10.0067 0.0280916 0)
(10.0179 0.0381209 0)
(10.0279 0.0438613 0)
(10.0359 0.0487492 0)
(10.0432 0.0524453 0)
(10.0495 0.0549119 0)
(10.0546 0.0567741 0)
(10.0584 0.0584933 0)
(10.061 0.0602851 0)
(10.0625 0.0623319 0)
(10.063 0.064859 0)
(10.0625 0.068079 0)
(10.0612 0.0722658 0)
(10.0592 0.0776869 0)
(10.0571 0.0847512 0)
(10.0553 0.0935386 0)
(10.055 0.103818 0)
(10.0004 0.0083204 0)
(10.0056 0.0245507 0)
(10.015 0.0347388 0)
(10.0241 0.0410175 0)
(10.0315 0.0460585 0)
(10.0383 0.0499376 0)
(10.0442 0.0527198 0)
(10.0492 0.054945 0)
(10.0531 0.0570443 0)
(10.056 0.0592367 0)
(10.0579 0.0616997 0)
(10.059 0.064641 0)
(10.0593 0.0682652 0)
(10.0591 0.0727937 0)
(10.0584 0.0784314 0)
(10.0577 0.085402 0)
(10.0573 0.0937147 0)
(10.0582 0.102987 0)
(10.0003 0.0074422 0)
(10.0047 0.0217775 0)
(10.0126 0.0317793 0)
(10.0208 0.038261 0)
(10.0278 0.0433205 0)
(10.0341 0.0473243 0)
(10.0397 0.0504006 0)
(10.0445 0.0529802 0)
(10.0484 0.0554378 0)
(10.0515 0.0579895 0)
(10.0537 0.060816 0)
(10.0552 0.0641097 0)
(10.0561 0.0680545 0)
(10.0566 0.0728189 0)
(10.0569 0.0785494 0)
(10.0572 0.0853579 0)
(10.0579 0.0932108 0)
(10.0596 0.101714 0)
(10.0003 0.00668858 0)
(10.0039 0.0193988 0)
(10.0106 0.028933 0)
(10.0179 0.0354541 0)
(10.0244 0.0405476 0)
(10.0303 0.0446834 0)
(10.0357 0.0480196 0)
(10.0404 0.050914 0)
(10.0443 0.0536895 0)
(10.0475 0.0565581 0)
(10.05 0.059696 0)
(10.0519 0.063281 0)
(10.0533 0.0674658 0)
(10.0545 0.0723769 0)
(10.0555 0.0781129 0)
(10.0566 0.0847201 0)
(10.0581 0.0921419 0)
(10.0603 0.100022 0)
(10.0003 0.00600447 0)
(10.0033 0.0172774 0)
(10.009 0.0262179 0)
(10.0154 0.0326764 0)
(10.0215 0.0377882 0)
(10.0271 0.0420282 0)
(10.0322 0.0455707 0)
(10.0367 0.0487209 0)
(10.0407 0.0517623 0)
(10.044 0.0548969 0)
(10.0468 0.0582937 0)
(10.049 0.0621065 0)
(10.051 0.0664604 0)
(10.0527 0.0714435 0)
(10.0544 0.0771193 0)
(10.0562 0.0834957 0)
(10.0583 0.0905133 0)
(10.0609 0.097868 0)
(10.0003 0.00540851 0)
(10.0029 0.0155225 0)
(10.0077 0.0238787 0)
(10.0135 0.0302146 0)
(10.0192 0.0352934 0)
(10.0245 0.0395776 0)
(10.0294 0.0432712 0)
(10.0339 0.0466164 0)
(10.0378 0.0498537 0)
(10.0413 0.0531811 0)
(10.0443 0.0567662 0)
(10.0469 0.0607488 0)
(10.0492 0.065211 0)
(10.0515 0.0702171 0)
(10.0537 0.0757915 0)
(10.056 0.0819389 0)
(10.0587 0.0886014 0)
(10.0617 0.0955443 0)
(10.0002 0.0048622 0)
(10.0025 0.013914 0)
(10.0067 0.021658 0)
(10.0119 0.0277909 0)
(10.0172 0.0327885 0)
(10.0223 0.0370663 0)
(10.027 0.0408597 0)
(10.0314 0.0443645 0)
(10.0354 0.0477624 0)
(10.0391 0.0512294 0)
(10.0423 0.0549394 0)
(10.0453 0.0590235 0)
(10.048 0.0635429 0)
(10.0507 0.0685284 0)
(10.0534 0.073982 0)
(10.0562 0.0798909 0)
(10.0593 0.0862142 0)
(10.0627 0.092751 0)
(10.0002 0.00429992 0)
(10.0021 0.0122507 0)
(10.0058 0.019274 0)
(10.0104 0.0250846 0)
(10.0153 0.0299426 0)
(10.0201 0.0341558 0)
(10.0247 0.0379878 0)
(10.0291 0.041617 0)
(10.0332 0.0451612 0)
(10.037 0.0487451 0)
(10.0405 0.05254 0)
(10.0439 0.0566629 0)
(10.0471 0.0611849 0)
(10.0502 0.0660979 0)
(10.0534 0.0713951 0)
(10.0567 0.0770362 0)
(10.0603 0.0829915 0)
(10.0641 0.0890891 0)
(10.0002 0.00371696 0)
(10.0018 0.0105135 0)
(10.005 0.0167305 0)
(10.0091 0.0220761 0)
(10.0136 0.0266967 0)
(10.0182 0.0307796 0)
(10.0227 0.0345526 0)
(10.0271 0.038209 0)
(10.0313 0.0418369 0)
(10.0353 0.0455104 0)
(10.0391 0.0493324 0)
(10.0429 0.0534245 0)
(10.0466 0.0578431 0)
(10.0502 0.0626008 0)
(10.0539 0.0676565 0)
(10.0577 0.072977 0)
(10.0618 0.0785159 0)
(10.066 0.0841404 0)
(10.0002 0.00310438 0)
(10.0016 0.00869113 0)
(10.0043 0.0140016 0)
(10.0081 0.0187236 0)
(10.0122 0.0229604 0)
(10.0166 0.0268168 0)
(10.0211 0.0304288 0)
(10.0256 0.0339785 0)
(10.0299 0.0375681 0)
(10.0341 0.0412337 0)
(10.0383 0.0450138 0)
(10.0425 0.0489857 0)
(10.0467 0.0532041 0)
(10.0509 0.0576908 0)
(10.0551 0.0624133 0)
(10.0594 0.0673276 0)
(10.0639 0.0723947 0)
(10.0686 0.0774894 0)
(10.0001 0.00244496 0)
(10.0014 0.00674479 0)
(10.0039 0.0110097 0)
(10.0073 0.0149421 0)
(10.0113 0.0186116 0)
(10.0155 0.0220809 0)
(10.02 0.0254074 0)
(10.0246 0.0287073 0)
(10.0292 0.0320883 0)
(10.0337 0.0355745 0)
(10.0383 0.0391782 0)
(10.0429 0.0429149 0)
(10.0476 0.0468309 0)
(10.0523 0.0509318 0)
(10.0571 0.055213 0)
(10.0619 0.0596231 0)
(10.0668 0.0641408 0)
(10.0719 0.0686465 0)
(10.0001 0.0017054 0)
(10.0013 0.00457924 0)
(10.0037 0.00761763 0)
(10.007 0.0105629 0)
(10.0109 0.0134331 0)
(10.0152 0.0162803 0)
(10.0198 0.0191244 0)
(10.0246 0.0220058 0)
(10.0295 0.0249889 0)
(10.0344 0.0281017 0)
(10.0393 0.0313419 0)
(10.0444 0.034703 0)
(10.0496 0.0381913 0)
(10.0548 0.0418037 0)
(10.0601 0.0455303 0)
(10.0653 0.0493427 0)
(10.0707 0.0532175 0)
(10.0761 0.0570719 0)
(10.0002 0.000812422 0)
(10.0014 0.00199814 0)
(10.0038 0.00351642 0)
(10.0072 0.00518405 0)
(10.0113 0.00698596 0)
(10.0158 0.00894069 0)
(10.0207 0.0110525 0)
(10.0258 0.0132986 0)
(10.0311 0.0156856 0)
(10.0365 0.0182153 0)
(10.0418 0.0208911 0)
(10.0474 0.0236884 0)
(10.053 0.0265953 0)
(10.0587 0.0295848 0)
(10.0644 0.0326445 0)
(10.0701 0.0357502 0)
(10.0759 0.0388913 0)
(10.0816 0.042014 0)
(10.0002 -9.78093e-05 0)
(10.0015 -0.000605064 0)
(10.0042 -0.000653921 0)
(10.008 -0.000311061 0)
(10.0125 0.000391553 0)
(10.0174 0.00141811 0)
(10.0227 0.00273602 0)
(10.0283 0.00430208 0)
(10.034 0.00605653 0)
(10.0398 0.00799294 0)
(10.0456 0.0100884 0)
(10.0515 0.0123305 0)
(10.0575 0.0146665 0)
(10.0636 0.0170766 0)
(10.0696 0.0195226 0)
(10.0755 0.0220082 0)
(10.0816 0.0245062 0)
(10.0875 0.0270057 0)
(10.0002 -0.000909359 0)
(10.0017 -0.00294771 0)
(10.0047 -0.00440691 0)
(10.009 -0.00519534 0)
(10.014 -0.00538425 0)
(10.0195 -0.00509762 0)
(10.0252 -0.00440994 0)
(10.0312 -0.00339212 0)
(10.0373 -0.00212998 0)
(10.0433 -0.000651278 0)
(10.0495 0.00101707 0)
(10.0557 0.00284377 0)
(10.062 0.00476115 0)
(10.0683 0.00673835 0)
(10.0745 0.00874125 0)
(10.0806 0.0107754 0)
(10.0868 0.0128194 0)
(10.093 0.0148654 0)
(10.0002 -0.00168937 0)
(10.0019 -0.00527686 0)
(10.0054 -0.00817225 0)
(10.0104 -0.0100164 0)
(10.016 -0.0109568 0)
(10.022 -0.0112627 0)
(10.0282 -0.0110569 0)
(10.0346 -0.0104689 0)
(10.041 -0.00960055 0)
(10.0474 -0.0085039 0)
(10.0538 -0.00719328 0)
(10.0603 -0.00573325 0)
(10.0668 -0.00417449 0)
(10.0732 -0.00257827 0)
(10.0795 -0.00094138 0)
(10.0858 0.000711594 0)
(10.0922 0.00239345 0)
(10.0984 0.00406399 0)
(10.0002 -0.00242299 0)
(10.002 -0.0076225 0)
(10.0062 -0.0119394 0)
(10.0121 -0.0147201 0)
(10.0184 -0.0163539 0)
(10.0249 -0.0172053 0)
(10.0316 -0.0173925 0)
(10.0383 -0.0170895 0)
(10.045 -0.0164737 0)
(10.0517 -0.0156214 0)
(10.0584 -0.0145743 0)
(10.0651 -0.0133934 0)
(10.0717 -0.0121413 0)
(10.0782 -0.0108522 0)
(10.0847 -0.00953361 0)
(10.0911 -0.00818421 0)
(10.0975 -0.00681507 0)
(10.1038 -0.00544562 0)
(10.0002 -0.00307574 0)
(10.0021 -0.0103531 0)
(10.0071 -0.0158511 0)
(10.0139 -0.0190266 0)
(10.021 -0.0211634 0)
(10.0281 -0.022619 0)
(10.0352 -0.0232656 0)
(10.0423 -0.0232549 0)
(10.0493 -0.0228353 0)
(10.0562 -0.0221423 0)
(10.0631 -0.0212563 0)
(10.07 -0.0202533 0)
(10.0767 -0.0192048 0)
(10.0832 -0.0181282 0)
(10.0898 -0.017037 0)
(10.0962 -0.0159201 0)
(10.1027 -0.0148009 0)
(10.109 -0.0136888 0)
(9.99995 -0.00301835 0)
(10.0019 -0.0140372 0)
(10.0082 -0.0211386 0)
(10.016 -0.0239555 0)
(10.0234 -0.0257758 0)
(10.031 -0.0273102 0)
(10.0388 -0.0282075 0)
(10.0465 -0.0285005 0)
(10.0539 -0.0283815 0)
(10.0611 -0.0279539 0)
(10.0682 -0.0272934 0)
(10.0751 -0.0264945 0)
(10.0818 -0.025628 0)
(10.0883 -0.0247239 0)
(10.0948 -0.0237885 0)
(10.1011 -0.0228337 0)
(10.1074 -0.0218717 0)
(10.1134 -0.0209356 0)
(9.99863 -0.000110647 0)
(9.99935 -0.0150789 0)
(10.0085 -0.0261742 0)
(10.0184 -0.0307456 0)
(10.0267 -0.0326123 0)
(10.0349 -0.0333378 0)
(10.0434 -0.0333907 0)
(10.0516 -0.0331781 0)
(10.0594 -0.0328612 0)
(10.0667 -0.0324096 0)
(10.0738 -0.0318174 0)
(10.0804 -0.0311347 0)
(10.0867 -0.0304169 0)
(10.0927 -0.0296706 0)
(10.0985 -0.0288929 0)
(10.1042 -0.0280894 0)
(10.1097 -0.027273 0)
(10.1148 -0.0264781 0)
(9.99493 0.00159602 0)
(9.99321 -0.00763177 0)
(10.0069 -0.0194287 0)
(10.0219 -0.0308907 0)
(10.0335 -0.0387339 0)
(10.0435 -0.0420469 0)
(10.0525 -0.0424989 0)
(10.0603 -0.0418484 0)
(10.0671 -0.0408552 0)
(10.0732 -0.0396933 0)
(10.0786 -0.0384466 0)
(10.0834 -0.0372087 0)
(10.0875 -0.0360459 0)
(10.0912 -0.0349608 0)
(10.0945 -0.0339287 0)
(10.0976 -0.0329252 0)
(10.1005 -0.0319586 0)
(10.103 -0.0310025 0)
(9.99475 -0.030464 0)
(9.99972 -0.0224502 0)
(10.0155 -0.00206378 0)
(10.032 -0.000961139 0)
(10.0459 -0.0103111 0)
(10.0571 -0.0192646 0)
(10.0647 -0.0253353 0)
(10.0688 -0.0292805 0)
(10.0703 -0.0317531 0)
(10.07 -0.0330827 0)
(10.0684 -0.0335785 0)
(10.0656 -0.033554 0)
(10.062 -0.0332426 0)
(10.0578 -0.0327942 0)
(10.0533 -0.0322663 0)
(10.0486 -0.031685 0)
(10.0439 -0.0311137 0)
(10.039 -0.0304925 0)
(10.0273 -0.182922 0)
(10.0767 -0.288134 0)
(10.0875 -0.247426 0)
(10.0788 -0.186105 0)
(10.0682 -0.139662 0)
(10.0567 -0.107267 0)
(10.0408 -0.0846199 0)
(10.0203 -0.0689404 0)
(9.99694 -0.0580112 0)
(9.97209 -0.0500586 0)
(9.94656 -0.0440027 0)
(9.92083 -0.0392309 0)
(9.89535 -0.0353969 0)
(9.87055 -0.0322779 0)
(9.84671 -0.0296998 0)
(9.82392 -0.027573 0)
(9.80243 -0.0258482 0)
(9.78199 -0.0248244 0)
(9.93586 0.689583 0)
(9.86885 0.609722 0)
(9.76615 0.381073 0)
(9.62955 0.217853 0)
(9.49066 0.119649 0)
(9.36431 0.0637139 0)
(9.25244 0.032297 0)
(9.15371 0.0144881 0)
(9.06726 0.00422227 0)
(8.99194 -0.00176215 0)
(8.92603 -0.00521563 0)
(8.86798 -0.00719442 0)
(8.81655 -0.00829421 0)
(8.77085 -0.00889583 0)
(8.73009 -0.00924364 0)
(8.69357 -0.00944347 0)
(8.66041 -0.00955758 0)
(8.62994 -0.0100717 0)
(0.071493 -0.0384017 -2.43953e-19)
(0.148797 -0.0987651 1.06575e-19)
(0.226254 -0.144722 0)
(0.329805 -0.166792 0)
(0.453774 -0.154191 0)
(0.53972 -0.136349 -1.00245e-19)
(0.608113 -0.114807 0)
(0.657607 -0.0888345 0)
(0.687137 -0.0565072 0)
(0.692859 -0.0257819 0)
(0.679426 -0.00366812 9.51517e-20)
(0.647562 0.0258704 0)
(0.601001 0.0490679 0)
(0.554469 0.0421363 0)
(0.508775 0.032481 0)
(0.464561 0.0288461 1.28669e-19)
(0.421885 0.0221982 0)
(0.374287 0.0174465 0)
(0.319389 0.0153601 0)
(0.25603 0.0170029 0)
(0.180787 0.0261608 0)
(0.0868376 0.0446768 0)
(-0.016204 0.0688285 0)
(-0.142646 0.0972565 1.569e-19)
(-0.293163 0.126736 -1.18851e-19)
(-0.46006 0.152 9.42619e-20)
(-0.639406 0.171634 7.76303e-20)
(-0.827289 0.185691 0)
(-1.02013 0.194389 0)
(-1.21477 0.198301 -5.13623e-20)
(-1.40854 0.198268 -4.67145e-20)
(-1.59889 0.194922 0)
(-1.78421 0.189259 0)
(-1.96324 0.182079 -3.83448e-20)
(-2.13516 0.174036 0)
(-2.29962 0.165626 0)
(-2.45649 0.157236 3.42957e-20)
(-2.6059 0.149112 0)
(-2.7481 0.141437 3.27298e-20)
(-2.88349 0.134278 6.42964e-20)
(-3.01248 0.127689 0)
(-3.1355 0.121637 0)
(-3.25299 0.1161 0)
(-3.36536 0.110991 0)
(-3.47298 0.106255 0)
(-3.57621 0.101798 6.04787e-20)
(-3.67531 0.0975628 6.01646e-20)
(-3.77052 0.0934538 5.99009e-20)
(-3.86201 0.0894182 0)
(-3.94993 0.0853817 -5.95108e-20)
(-4.03434 0.0813199 0)
(-4.11529 0.0771838 5.92636e-20)
(-4.19268 0.0729822 5.91889e-20)
(-4.26645 0.0686854 0)
(-4.33642 0.0643052 0)
(-4.40251 0.059815 0)
(-4.46443 0.0552572 5.92159e-20)
(-4.52194 0.0506065 0)
(-4.57468 0.0458864 0)
(-4.62236 0.0410338 0)
(-4.66447 0.0360947 0)
(-4.70057 0.0309998 0)
(-4.73013 0.0257955 0)
(-4.75274 0.0204455 0)
(-4.76811 0.0150762 0)
(-4.77591 0.00980033 -6.14505e-20)
(-4.77717 0.00476886 0)
(-4.77202 -0.000124599 0)
(-4.76043 -0.00488509 6.18751e-20)
(-4.74229 -0.0102092 6.18668e-20)
(-4.71726 -0.0160359 0)
(-4.68522 -0.0216722 -6.14389e-20)
(-4.64615 -0.0271291 6.09921e-20)
(-4.60001 -0.0323343 0)
(-4.54685 -0.0375239 -5.96012e-20)
(-4.48661 -0.0427483 0)
(-4.41959 -0.0474934 0)
(-4.34573 -0.0532535 5.60312e-20)
(-4.26508 -0.0582828 0)
(-4.17818 -0.0626592 -5.24791e-20)
(-4.08495 -0.0696549 0)
(-3.98514 -0.074589 4.77658e-20)
(-3.88024 -0.078747 4.5001e-20)
(-3.76972 -0.0827269 4.18163e-20)
(-3.65514 -0.0860747 7.70343e-20)
(-3.53561 -0.0910489 -6.96265e-20)
(-3.4128 -0.0934699 0)
(-3.28707 -0.0960275 0)
(-3.15909 -0.0979911 0)
(-3.0294 -0.0995786 -3.42053e-20)
(-2.89836 -0.100604 -2.39819e-20)
(-2.76645 -0.101192 1.32254e-20)
(-2.63423 -0.101324 0)
(-2.50218 -0.101134 9.89394e-21)
(-2.37075 -0.100593 2.22636e-20)
(-2.24032 -0.0997702 3.51746e-20)
(-2.1113 -0.0986295 0)
(-1.98401 -0.0972514 0)
(-1.85876 -0.0956419 0)
(-1.73579 -0.0938748 9.26945e-20)
(-1.61528 -0.0919576 0)
(-1.49731 -0.0899132 0)
(-1.38199 -0.0877782 -1.43225e-19)
(-1.2694 -0.0855753 0)
(-1.15969 -0.0834136 0)
(-1.05297 -0.0812475 -2.02455e-19)
(-0.94932 -0.079238 0)
(-0.848707 -0.0773322 0)
(-0.751079 -0.0755739 2.73805e-19)
(-0.656367 -0.0738871 3.01244e-19)
(-0.564454 -0.0723638 0)
(-0.475246 -0.0709185 -3.63445e-19)
(-0.388619 -0.0696353 0)
(-0.304494 -0.0684097 4.38523e-19)
(-0.222701 -0.0673229 0)
(-0.143112 -0.0662949 5.32061e-19)
(-0.0660123 -0.0652163 5.88579e-19)
(0.00922625 -0.0631406 0)
(0.0831177 -0.0600255 0)
(0.155021 -0.0566591 0)
(0.225007 -0.0534898 0)
(0.293187 -0.050556 0)
(0.359617 -0.0479149 0)
(0.424311 -0.0454796 0)
(0.487194 -0.0432131 4.53192e-19)
(0.548323 -0.0410594 -4.39586e-19)
(0.607898 -0.0391602 0)
(0.66596 -0.0374411 0)
(0.722658 -0.0359028 0)
(0.778151 -0.0345463 0)
(0.832405 -0.0332422 -7.74975e-19)
(0.885435 -0.0318022 0)
(0.937455 -0.0304782 7.43696e-19)
(0.988445 -0.0293971 -7.29692e-19)
(1.03839 -0.0284903 0)
(1.08728 -0.0274949 0)
(1.13519 -0.0263801 0)
(1.18222 -0.0253611 6.82176e-19)
(1.22828 -0.0246121 6.72006e-19)
(1.27325 -0.0239208 0)
(1.31727 -0.0231883 6.53478e-19)
(1.36055 -0.0225162 6.45052e-19)
(1.40308 -0.021901 -6.37078e-19)
(1.44478 -0.0211836 0)
(1.48571 -0.0203782 0)
(1.52588 -0.0196781 -6.15516e-19)
(1.56521 -0.0190642 0)
(1.60375 -0.0187097 0)
(1.64137 -0.0183482 0)
(1.67811 -0.0175131 0)
(1.71407 -0.0164809 5.85986e-19)
(1.74919 -0.0156126 5.80829e-19)
(1.78359 -0.0152012 0)
(1.8173 -0.015251 5.71081e-19)
(1.85014 -0.0152568 0)
(1.88239 -0.0150159 0)
(1.91411 -0.0148676 5.57628e-19)
(1.94504 -0.0145274 0)
(1.97515 -0.0139952 5.49645e-19)
(2.00415 -0.0132311 0)
(2.03188 -0.0123363 0)
(2.05789 -0.0113 5.40276e-19)
(2.08213 -0.0102583 0)
(2.10441 -0.00983808 5.36969e-19)
(2.12445 -0.0095736 0)
(2.1433 -0.00966373 0)
(2.16058 -0.0101421 0)
(2.17623 -0.0106887 -5.46943e-19)
(2.19144 -0.0131809 0)
(2.20616 -0.0152122 5.6187e-19)
(2.22003 -0.0164674 0)
(2.23289 -0.019652 0)
(2.25199 -0.0277878 0)
(2.2772 -0.0248128 0)
(2.30111 0.0404934 0)
(2.33236 0.0706959 0)
(2.35671 0.0427713 0)
(2.36929 0.0310645 -9.41289e-19)
(2.36531 0.0311306 0)
(2.26892 0.0383211 0)
(0.0699603 -0.295903 5.60554e-19)
(0.17628 -0.359002 -2.92011e-19)
(0.268189 -0.332284 0)
(0.338967 -0.303811 1.16021e-19)
(0.390713 -0.260371 0)
(0.425148 -0.208334 4.86759e-20)
(0.445237 -0.151514 -9.64901e-20)
(0.452992 -0.0926339 -9.79449e-20)
(0.449943 -0.0340741 0)
(0.438952 0.0211565 -1.06659e-19)
(0.420591 0.0698319 -5.67081e-20)
(0.392467 0.10742 0)
(0.351719 0.127834 0)
(0.297515 0.13544 0)
(0.228456 0.135959 0)
(0.143962 0.136063 -7.45678e-20)
(0.0480002 0.14852 0)
(-0.0624887 0.175403 1.40851e-19)
(-0.19433 0.213323 0)
(-0.34958 0.259076 0)
(-0.525459 0.309828 -1.00169e-19)
(-0.717159 0.361186 0)
(-0.918814 0.408718 7.85892e-20)
(-1.12562 0.448989 -3.55069e-20)
(-1.33214 0.479487 3.19428e-20)
(-1.53531 0.499157 -2.90754e-20)
(-1.73246 0.508334 -2.67952e-20)
(-1.92141 0.508266 0)
(-2.10059 0.500553 0)
(-2.26915 0.48678 2.24654e-20)
(-2.4265 0.468725 -2.17e-20)
(-2.57314 0.447985 0)
(-2.70967 0.425588 0)
(-2.83686 0.402551 1.99895e-20)
(-2.95553 0.379633 0)
(-3.06656 0.357374 0)
(-3.17075 0.336167 -1.93194e-20)
(-3.26885 0.316219 0)
(-3.36153 0.297666 1.91876e-20)
(-3.44936 0.280514 -3.81533e-20)
(-3.53285 0.264751 0)
(-3.61237 0.25028 0)
(-3.68827 0.237015 -7.59418e-20)
(-3.76079 0.224808 -7.59248e-20)
(-3.83014 0.213545 -7.59519e-20)
(-3.89644 0.203068 3.78039e-20)
(-3.95983 0.193261 -3.8291e-20)
(-4.02033 0.183966 -1.14626e-19)
(-4.07799 0.175067 7.64011e-20)
(-4.13281 0.166416 3.85669e-20)
(-4.18477 0.157926 0)
(-4.23383 0.149475 -3.87682e-20)
(-4.2799 0.141 3.83293e-20)
(-4.32287 0.132398 0)
(-4.36268 0.123619 0)
(-4.39922 0.114564 0)
(-4.43241 0.105219 -3.9324e-20)
(-4.46214 0.0955073 0)
(-4.48836 0.0854425 7.8891e-20)
(-4.51102 0.0749615 0)
(-4.53012 0.0641379 7.95722e-20)
(-4.54565 0.0529454 0)
(-4.55766 0.0415075 -8.024e-20)
(-4.56618 0.0298544 0)
(-4.57113 0.0181989 8.08084e-20)
(-4.57246 0.00661651 -4.0306e-20)
(-4.56883 -0.00481826 0)
(-4.55952 -0.0163505 -8.08838e-20)
(-4.54405 -0.027964 -4.04354e-20)
(-4.52213 -0.0397279 -4.02693e-20)
(-4.49365 -0.0515527 0)
(-4.45848 -0.0635559 -3.97619e-20)
(-4.4164 -0.0755105 -3.90817e-20)
(-4.36736 -0.0874732 0)
(-4.31122 -0.0992042 3.76971e-20)
(-4.24812 -0.110808 -7.42174e-20)
(-4.178 -0.122069 0)
(-4.10087 -0.132804 -3.47251e-20)
(-4.01707 -0.143027 0)
(-3.92655 -0.152803 9.77256e-20)
(-3.82974 -0.161857 0)
(-3.72745 -0.170228 -8.82471e-20)
(-3.61959 -0.177829 -2.704e-20)
(-3.50673 -0.184585 2.68298e-20)
(-3.38927 -0.190476 4.97001e-20)
(-3.26788 -0.195257 -4.53934e-20)
(-3.14331 -0.199165 0)
(-3.01587 -0.202194 0)
(-2.8864 -0.204394 0)
(-2.75544 -0.205718 6.75595e-20)
(-2.62346 -0.206127 1.544e-20)
(-2.49092 -0.205623 -9.78039e-21)
(-2.35828 -0.204241 0)
(-2.22606 -0.202125 -2.90608e-21)
(-2.0947 -0.199328 -7.90071e-21)
(-1.96463 -0.195989 -1.39669e-20)
(-1.83622 -0.192138 0)
(-1.70975 -0.187873 0)
(-1.58549 -0.183238 0)
(-1.46367 -0.178354 -3.86678e-20)
(-1.34442 -0.173262 0)
(-1.22786 -0.168011 9.79791e-20)
(-1.11404 -0.162633 1.67985e-19)
(-1.00302 -0.157181 -1.23206e-19)
(-0.894893 -0.151768 0)
(-0.789726 -0.146444 -7.22568e-20)
(-0.687551 -0.141337 0)
(-0.588348 -0.136423 -1.73567e-19)
(-0.492056 -0.131755 9.12738e-20)
(-0.398579 -0.127288 9.76241e-20)
(-0.307812 -0.123067 0)
(-0.219632 -0.119024 3.37864e-19)
(-0.133916 -0.115215 -2.36949e-19)
(-0.0505155 -0.11162 -1.25915e-19)
(0.0308188 -0.108321 0)
(0.110092 -0.105195 -1.30365e-19)
(0.187356 -0.102133 -3.91779e-19)
(0.262608 -0.0988097 0)
(0.335596 -0.095115 -2.64927e-19)
(0.406501 -0.0913121 -2.67165e-19)
(0.475738 -0.0876505 -2.69266e-19)
(0.543463 -0.0841814 0)
(0.609707 -0.0809383 0)
(0.674447 -0.0778797 0)
(0.737717 -0.0750184 1.37181e-19)
(0.799554 -0.072329 1.39601e-19)
(0.859985 -0.0698438 0)
(0.919099 -0.0675092 2.8004e-19)
(0.976953 -0.0653199 2.81177e-19)
(1.03358 -0.0632359 0)
(1.08907 -0.0612525 2.84616e-19)
(1.14347 -0.0593242 5.68527e-19)
(1.1968 -0.057528 -2.86365e-19)
(1.24906 -0.0558339 -2.848e-19)
(1.30027 -0.0542047 0)
(1.35051 -0.0525939 0)
(1.39981 -0.0510439 0)
(1.44813 -0.0495832 -2.90072e-19)
(1.49543 -0.048213 2.88707e-19)
(1.54175 -0.0468442 5.80516e-19)
(1.58716 -0.045478 -2.9172e-19)
(1.63172 -0.0441584 2.90546e-19)
(1.67548 -0.042887 2.9286e-19)
(1.71846 -0.0416272 0)
(1.76063 -0.0403715 0)
(1.80201 -0.0391832 -2.92859e-19)
(1.84256 -0.0379871 0)
(1.88225 -0.0367903 0)
(1.92119 -0.035617 5.89581e-19)
(1.95936 -0.0344357 0)
(1.99667 -0.0333482 2.94708e-19)
(2.03317 -0.0323639 -2.96063e-19)
(2.06891 -0.0314557 0)
(2.10397 -0.030599 2.94953e-19)
(2.13837 -0.0296839 0)
(2.17205 -0.028681 0)
(2.20498 -0.0277661 -2.95824e-19)
(2.23709 -0.0267819 5.90287e-19)
(2.26818 -0.0256851 -2.95517e-19)
(2.29807 -0.0244196 0)
(2.32659 -0.0229637 0)
(2.35363 -0.0213817 2.94631e-19)
(2.379 -0.0196588 0)
(2.40282 -0.0180416 2.95967e-19)
(2.42534 -0.0165178 0)
(2.44684 -0.0150869 0)
(2.46777 -0.0140571 0)
(2.4888 -0.0133435 3.14821e-19)
(2.51027 -0.0124553 0)
(2.53168 -0.012153 -3.37708e-19)
(2.55351 -0.012143 0)
(2.57566 -0.0112016 0)
(2.59577 -0.0115738 7.37632e-19)
(2.61144 -0.018712 -7.59e-19)
(2.62383 -0.0333952 0)
(2.62578 -0.0318615 0)
(2.62696 -0.0197974 0)
(2.62253 -0.00598594 1.9331e-18)
(2.62334 0.0169096 0)
(2.60192 0.0517097 -1.28162e-18)
(0.0506845 -0.531123 1.24569e-21)
(0.117041 -0.551227 2.96353e-19)
(0.162145 -0.476677 0)
(0.192487 -0.395099 -1.83264e-19)
(0.209315 -0.313011 0)
(0.213423 -0.231595 0)
(0.206057 -0.151837 -2.09923e-22)
(0.188497 -0.0747414 7.95203e-20)
(0.161482 -0.00142251 8.16688e-20)
(0.12531 0.0673455 8.3717e-20)
(0.0800456 0.130716 0)
(0.0248795 0.187279 0)
(-0.0426045 0.236032 -8.83998e-20)
(-0.125746 0.278613 -1.68949e-19)
(-0.228002 0.318881 1.59942e-19)
(-0.351835 0.362111 0)
(-0.496579 0.414065 1.39021e-19)
(-0.658965 0.476297 -6.4581e-20)
(-0.834845 0.544201 0)
(-1.01886 0.610949 1.07893e-19)
(-1.20503 0.67118 5.03475e-20)
(-1.38807 0.721262 -9.2047e-20)
(-1.5639 0.759185 -4.33412e-20)
(-1.72945 0.783979 0)
(-1.88315 0.795349 7.5854e-20)
(-2.0246 0.79422 7.19389e-20)
(-2.15425 0.782339 0)
(-2.27323 0.761726 6.5746e-20)
(-2.38282 0.734509 0)
(-2.48433 0.702736 6.13453e-20)
(-2.57927 0.668191 2.94192e-20)
(-2.6688 0.632469 0)
(-2.75376 0.596783 0)
(-2.83498 0.562007 0)
(-2.91305 0.528748 0)
(-2.98844 0.497377 0)
(-3.06149 0.468094 0)
(-3.13244 0.440951 5.50337e-20)
(-3.20146 0.415909 -8.21018e-20)
(-3.26868 0.39285 0)
(-3.33416 0.371628 0)
(-3.39794 0.352056 0)
(-3.46006 0.333953 2.9656e-24)
(-3.5205 0.317122 5.46108e-20)
(-3.57927 0.301381 1.09311e-19)
(-3.63633 0.286544 -1.09505e-19)
(-3.69166 0.272449 -5.47695e-20)
(-3.74523 0.258931 5.51178e-20)
(-3.79699 0.245847 -2.65546e-22)
(-3.84687 0.233052 5.51581e-20)
(-3.89483 0.220433 0)
(-3.94077 0.207875 5.5485e-20)
(-3.98461 0.195294 -3.31502e-22)
(-4.02622 0.182592 0)
(-4.06551 0.169698 0)
(-4.10234 0.156535 -5.62724e-20)
(-4.13659 0.143066 0)
(-4.1681 0.129229 0)
(-4.1967 0.115002 5.66984e-20)
(-4.22221 0.100344 1.14409e-19)
(-4.24441 0.0852629 -5.76677e-20)
(-4.26305 0.0697244 0)
(-4.27784 0.0537317 5.8063e-20)
(-4.28844 0.0372364 0)
(-4.29448 0.0202342 5.80712e-20)
(-4.2956 0.00266136 5.8255e-20)
(-4.29138 -0.0154438 -1.16234e-19)
(-4.2815 -0.0340241 -5.80071e-20)
(-4.26564 -0.0529602 0)
(-4.24353 -0.0722135 1.14992e-19)
(-4.21499 -0.0916705 0)
(-4.17984 -0.111248 1.69271e-19)
(-4.13787 -0.130778 1.11649e-19)
(-4.08902 -0.150142 1.09953e-19)
(-4.03312 -0.169182 -1.0797e-19)
(-3.97028 -0.187796 1.57738e-19)
(-3.9004 -0.205884 0)
(-3.82358 -0.223223 0)
(-3.74007 -0.2396 -9.66789e-20)
(-3.65004 -0.255014 -1.38358e-19)
(-3.55393 -0.269403 0)
(-3.45227 -0.282496 4.07779e-20)
(-3.34521 -0.294175 0)
(-3.23334 -0.304356 -1.08634e-19)
(-3.11706 -0.313085 2.68998e-21)
(-2.99705 -0.320217 -2.77799e-21)
(-2.87386 -0.325754 5.48646e-20)
(-2.74807 -0.329771 0)
(-2.62035 -0.332319 -4.10957e-20)
(-2.49129 -0.333418 2.98544e-21)
(-2.36139 -0.333078 0)
(-2.2311 -0.331337 0)
(-2.10091 -0.328309 0)
(-1.97132 -0.324111 6.47698e-22)
(-1.84275 -0.318884 0)
(-1.7156 -0.312756 0)
(-1.59021 -0.305875 0)
(-1.46685 -0.298361 0)
(-1.34575 -0.29034 0)
(-1.22713 -0.281939 -4.27501e-20)
(-1.11109 -0.273259 0)
(-0.997755 -0.264388 -6.02235e-20)
(-0.887145 -0.255378 -6.7485e-20)
(-0.779322 -0.246349 7.46347e-20)
(-0.674336 -0.237385 0)
(-0.572228 -0.228614 8.85759e-20)
(-0.473001 -0.220106 0)
(-0.376617 -0.211928 1.0202e-19)
(-0.283005 -0.204074 -1.08569e-19)
(-0.192061 -0.196564 -3.40904e-19)
(-0.103687 -0.189398 0)
(-0.017687 -0.182609 -3.76008e-19)
(0.0660261 -0.176188 -1.26591e-19)
(0.14746 -0.170077 0)
(0.226676 -0.164197 -2.68935e-19)
(0.303769 -0.15852 -2.74361e-19)
(0.378858 -0.153037 4.20802e-19)
(0.452025 -0.147792 0)
(0.523301 -0.142741 1.46017e-19)
(0.592832 -0.137821 1.48255e-19)
(0.660817 -0.133087 4.48635e-19)
(0.727362 -0.12856 0)
(0.792499 -0.124256 0)
(0.856238 -0.120167 0)
(0.918591 -0.116276 1.55952e-19)
(0.979598 -0.112594 0)
(1.03931 -0.109112 0)
(1.09777 -0.105797 -1.63138e-19)
(1.15502 -0.102655 -1.64704e-19)
(1.2111 -0.0996508 0)
(1.26606 -0.0967544 0)
(1.31993 -0.093966 -3.38331e-19)
(1.37274 -0.0913008 0)
(1.42451 -0.0887517 3.43871e-19)
(1.47527 -0.0862814 3.45073e-19)
(1.52502 -0.0838627 0)
(1.57378 -0.0815254 0)
(1.62158 -0.0792845 -3.52773e-19)
(1.66838 -0.0771134 -1.26628e-21)
(1.71419 -0.0749749 -1.22005e-21)
(1.75907 -0.0728912 0)
(1.80312 -0.0708769 -7.24544e-19)
(1.84636 -0.068913 0)
(1.88878 -0.0669768 0)
(1.93039 -0.0650806 0)
(1.97121 -0.0632101 3.70621e-19)
(2.01122 -0.0613788 0)
(2.05043 -0.0595503 -7.45821e-19)
(2.08885 -0.05773 -3.7528e-19)
(2.12644 -0.0559843 0)
(2.16325 -0.0543143 -3.77691e-19)
(2.19932 -0.0527233 0)
(2.2347 -0.0512174 0)
(2.26937 -0.049747 -1.13844e-18)
(2.30325 -0.0482651 7.59412e-19)
(2.33637 -0.0467887 0)
(2.3687 -0.045269 7.60622e-19)
(2.40012 -0.0436558 -3.81136e-19)
(2.43049 -0.0418546 0)
(2.45973 -0.0398036 0)
(2.48777 -0.037502 0)
(2.51453 -0.0350025 -1.14294e-18)
(2.54003 -0.0324959 0)
(2.56442 -0.0300973 -3.82995e-19)
(2.58788 -0.0280141 0)
(2.61071 -0.0264911 0)
(2.6334 -0.025406 0)
(2.65603 -0.024802 0)
(2.67883 -0.0247771 0)
(2.70164 -0.0244412 0)
(2.72412 -0.023937 -9.3329e-19)
(2.74585 -0.0235781 0)
(2.76502 -0.0236423 -5.07929e-19)
(2.78007 -0.0231382 1.58331e-18)
(2.79139 -0.0192406 0)
(2.79779 -0.0154104 0)
(2.79915 -0.0113831 -1.0395e-18)
(2.7944 -0.000675663 -1.0362e-18)
(2.78984 0.0210938 1.02192e-18)
(2.77452 0.0597835 1.02704e-18)
(0.0107939 -0.64401 -6.48257e-19)
(0.0359367 -0.59967 -3.72689e-19)
(0.036597 -0.504801 -1.87021e-19)
(0.0293994 -0.403781 -7.97616e-20)
(0.0150424 -0.302139 0)
(-0.00779905 -0.201529 1.39938e-19)
(-0.0396117 -0.102861 -6.84885e-20)
(-0.0805299 -0.00700564 0)
(-0.131052 0.0855783 -6.6593e-20)
(-0.191833 0.174538 0)
(-0.263697 0.259636 1.2682e-19)
(-0.347884 0.340897 0)
(-0.446053 0.418956 5.91344e-20)
(-0.559365 0.49532 1.12074e-19)
(-0.688225 0.571779 -1.05454e-19)
(-0.831286 0.648983 0)
(-0.984563 0.726231 -9.21206e-20)
(-1.14239 0.800751 0)
(-1.29907 0.868046 0)
(-1.44985 0.92393 -7.51247e-20)
(-1.59124 0.965925 0)
(-1.72102 0.99336 1.22979e-22)
(-1.83849 1.00666 0)
(-1.94404 1.00683 0)
(-2.03876 0.995322 4.11591e-22)
(-2.1243 0.973946 -5.41195e-20)
(-2.2025 0.944788 -5.27102e-20)
(-2.27505 0.909951 -5.02506e-20)
(-2.34347 0.871357 0)
(-2.40903 0.83071 -9.59715e-20)
(-2.4727 0.789428 0)
(-2.53518 0.748523 -4.66154e-20)
(-2.59688 0.708767 0)
(-2.65807 0.670703 0)
(-2.7189 0.634666 4.50012e-20)
(-2.77941 0.600831 0)
(-2.83956 0.569252 -4.44046e-20)
(-2.89931 0.539885 3.1805e-22)
(-2.95856 0.512628 8.78801e-20)
(-3.01723 0.48733 -8.79497e-20)
(-3.07523 0.463818 0)
(-3.13245 0.441901 0)
(-3.18881 0.421386 -4.39797e-20)
(-3.24424 0.402078 0)
(-3.29863 0.383789 -4.40123e-20)
(-3.35192 0.366336 4.41234e-20)
(-3.40402 0.349548 4.42495e-20)
(-3.45486 0.333259 0)
(-3.50436 0.317318 -4.45431e-20)
(-3.55242 0.301581 -4.47078e-20)
(-3.59895 0.285919 8.95323e-20)
(-3.64386 0.270214 -4.50668e-20)
(-3.68701 0.254361 -4.52599e-20)
(-3.72828 0.238256 0)
(-3.76753 0.221809 0)
(-3.80459 0.204933 4.58928e-20)
(-3.83928 0.187559 0)
(-3.87141 0.169615 0)
(-3.90076 0.151044 -9.31805e-20)
(-3.92707 0.131792 -9.3657e-20)
(-3.95007 0.11182 0)
(-3.96945 0.0910829 0)
(-3.98488 0.0695517 0)
(-3.99602 0.0471929 0)
(-4.00254 0.0240027 -9.55159e-20)
(-4.00411 -2.29249e-05 9.56789e-20)
(-4.00041 -0.0248455 9.53667e-20)
(-3.99114 -0.0503886 1.90639e-19)
(-3.97602 -0.0765296 0)
(-3.95478 -0.103141 5.83232e-22)
(-3.92718 -0.130082 0)
(-3.893 -0.157214 -9.25353e-20)
(-3.85208 -0.184343 9.56792e-22)