/*--------------------------------*- C++ -*----------------------------------*\
  =========                 |
  \\      /  F ield         | OpenFOAM: The Open Source CFD Toolbox
   \\    /   O peration     | Website:  https://openfoam.org
    \\  /    A nd           | Version:  9
     \\/     M anipulation  |
\*---------------------------------------------------------------------------*/
FoamFile
{
    format      ascii;
    class       volScalarField;
    location    "2.19";
    object      nut;
}
// * * * * * * * * * * * * * * * * * * * * * * * * * * * * * * * * * * * * * //

dimensions      [0 2 -1 0 0 0 0];

internalField   nonuniform List<scalar> 
2268
(
3.51156e-05
4.2518e-05
5.35228e-05
6.12129e-05
6.71065e-05
7.18857e-05
7.58776e-05
7.93015e-05
8.22872e-05
8.49224e-05
8.72398e-05
8.92572e-05
9.09842e-05
9.24238e-05
9.35253e-05
9.41798e-05
9.41788e-05
9.30561e-05
9.03504e-05
8.64169e-05
7.98904e-05
6.79157e-05
4.371e-05
7.99526e-05
0.000388056
0.00053931
0.00063498
0.000703433
0.000755721
0.000797637
0.000832323
0.000861628
0.000886538
0.000907568
0.000925174
0.000939662
0.00095105
0.000958598
0.000960577
0.000953892
0.000930536
0.000882131
0.000830085
0.000756872
0.000571538
0.000143195
9.62218e-05
0.000680586
0.00102932
0.00125257
0.00141045
0.00152875
0.00162115
0.00169554
0.0017566
0.00180699
0.00184835
0.00188188
0.00190831
0.00192753
0.00193774
0.00193492
0.00191233
0.00185806
0.00176002
0.00162581
0.00140883
0.000964764
0.000171004
0.000109582
0.000888431
0.00141435
0.00176083
0.00200816
0.00219346
0.00233711
0.00245126
0.00254339
0.00261796
0.00267791
0.00272528
0.00276126
0.00278547
0.00279504
0.00278396
0.00274278
0.00265726
0.00251076
0.00228878
0.00192037
0.00124733
0.000193845
0.000121274
0.00104327
0.0017187
0.00217413
0.00250305
0.00275074
0.00294258
0.00309408
0.00321508
0.0033117
0.00338817
0.0034474
0.00349091
0.00351809
0.00352511
0.00350448
0.00344492
0.00333029
0.00313856
0.00283579
0.00233223
0.00146649
0.000214974
0.0001318
0.00116554
0.0019652
0.00251469
0.0029156
0.00321918
0.00345455
0.0036398
0.00378664
0.0039027
0.00399344
0.00406254
0.00411186
0.00414052
0.00414395
0.00411369
0.00403742
0.00389747
0.0036666
0.00329581
0.00267878
0.00164625
0.00023723
0.000141656
0.00126697
0.0021703
0.00280081
0.00326461
0.00361737
0.00389114
0.00410603
0.00427529
0.00440795
0.00451058
0.00458763
0.00464121
0.00467021
0.00466956
0.00463032
0.00453989
0.0043796
0.00411799
0.0036953
0.00298953
0.00180832
0.000266475
0.000151299
0.00135467
0.00234586
0.00304667
0.00356541
0.00396111
0.00426825
0.00450861
0.00469678
0.00484311
0.00495527
0.0050384
0.00509487
0.00512334
0.00511845
0.00507132
0.00496978
0.00479482
0.00451229
0.00405663
0.0032966
0.00199786
0.000313961
4.31063e-05
6.47519e-05
7.7063e-05
8.20006e-05
8.32167e-05
8.23757e-05
7.87017e-05
7.23641e-05
6.55438e-05
6.39933e-05
6.43743e-05
6.38252e-05
6.22797e-05
6.13915e-05
6.20179e-05
6.06282e-05
5.49168e-05
4.50443e-05
4.75561e-05
0.000147724
0.000501047
0.000646694
0.000708673
0.000724629
0.000711097
0.000670543
0.000562259
0.000508245
0.000531253
0.000572616
0.000591504
0.000579429
0.000577671
0.000578216
0.000551431
0.000483097
0.000358954
0.000105798
0.00016795
0.000840605
0.0011495
0.00128986
0.00133532
0.00131823
0.00124846
0.00108881
0.00100337
0.0010395
0.00110351
0.00113117
0.00111596
0.00110154
0.00107506
0.000996354
0.000839783
0.000581076
0.00012135
0.000183038
0.00108767
0.00153156
0.00174384
0.00182298
0.00181398
0.00173427
0.00157068
0.00147333
0.00150171
0.001562
0.0015824
0.00155521
0.00151306
0.00144276
0.00130391
0.00106903
0.000709887
0.000132383
0.000197789
0.00128755
0.00184076
0.00211253
0.00222354
0.00222972
0.00215542
0.00200953
0.00191391
0.00192416
0.00196531
0.00196735
0.00191911
0.00184151
0.00172046
0.00151941
0.00121517
0.000779227
0.000140858
0.00021623
0.0014668
0.00211006
0.00242751
0.00256562
0.0025907
0.00253059
0.00241138
0.00232486
0.00231518
0.00232957
0.0023068
0.00223209
0.00211617
0.00194299
0.00167968
0.00130949
0.000812727
0.000147433
0.000244747
0.00164618
0.00236251
0.00271026
0.00286878
0.0029118
0.00287181
0.00278183
0.00270713
0.0026802
0.00266595
0.00261573
0.00251245
0.00235861
0.00213527
0.00181157
0.00137552
0.000823592
0.000152187
0.000297072
0.00185895
0.00261673
0.00297547
0.00314661
0.00320556
0.00318756
0.00312532
0.00306274
0.00302254
0.00298186
0.00290459
0.00277297
0.00258376
0.00231439
0.00193406
0.00143294
0.000826473
0.000155377
0.000165749
0.00148077
0.00258967
0.00338567
0.00397913
0.00443308
0.00478519
0.00505933
0.00527176
0.00543503
0.00555852
0.00564844
0.00570745
0.00573394
0.00572249
0.00566506
0.00555131
0.00536256
0.00506316
0.00458849
0.00383259
0.00267893
0.00124804
0.000186006
0.00163698
0.00287033
0.00376861
0.0044406
0.00495319
0.00534844
0.0056523
0.00588326
0.00605732
0.00618639
0.00627795
0.00633517
0.00635673
0.00633798
0.00627322
0.00615676
0.00597169
0.00568652
0.00525375
0.00462047
0.00377889
0.00285122
0.000209401
0.0017985
0.003144
0.00412714
0.00485754
0.0054093
0.00583211
0.00615241
0.0063898
0.00656457
0.00669114
0.00677749
0.00682773
0.00684282
0.00682106
0.0067573
0.0066493
0.00647976
0.00622307
0.00584933
0.00533715
0.00471696
0.00410219
0.000246503
0.0019635
0.00343403
0.00449626
0.00526462
0.00583187
0.00626809
0.00659705
0.00683026
0.00699639
0.00711336
0.00718645
0.00722173
0.00722862
0.00721826
0.00717006
0.00707366
0.00691942
0.00668756
0.00636604
0.0059525
0.00548203
0.00503855
0.000300258
0.00213997
0.00375981
0.00487999
0.00565481
0.00620919
0.00662813
0.00693698
0.00714663
0.00729769
0.00740941
0.00747141
0.00748595
0.00747775
0.00748113
0.00745961
0.0074027
0.0072805
0.00707561
0.0067894
0.00643898
0.00606576
0.00575063
0.000298526
0.00218225
0.0039297
0.00512113
0.00592198
0.00646847
0.00685178
0.00712915
0.00733578
0.00748401
0.00758804
0.00764725
0.00766406
0.00765741
0.00764463
0.00763879
0.00761881
0.00753194
0.00735829
0.00710474
0.00680614
0.00649694
0.00625726
0.000286119
0.00213464
0.0039813
0.00523772
0.00607717
0.00663794
0.00701365
0.00727714
0.00747555
0.00762296
0.00772324
0.00778115
0.00780506
0.00780468
0.00778918
0.0077969
0.00779072
0.00771754
0.00755762
0.0073295
0.00707844
0.00684362
0.00662666
0.000271981
0.00179141
0.00386286
0.00523239
0.00613686
0.00672374
0.00711058
0.00737537
0.00756694
0.00770784
0.00780976
0.00787902
0.00791358
0.00791975
0.0079084
0.00791086
0.0079155
0.00786647
0.00771436
0.0075049
0.007307
0.00713525
0.00696287
0.000261032
0.0017868
0.00378911
0.00516441
0.0061082
0.00673035
0.00714279
0.00742146
0.00761561
0.00775478
0.00785728
0.00793306
0.0079788
0.00799305
0.00798698
0.00798098
0.00797728
0.00793818
0.00781624
0.00765914
0.00751187
0.00736594
0.00721525
0.000257327
0.00200628
0.00375174
0.00507328
0.00601903
0.00667145
0.00711495
0.00741676
0.00762502
0.00777198
0.00787876
0.00795719
0.00800946
0.00803484
0.00803815
0.00803154
0.00801512
0.00796989
0.00788249
0.0077801
0.00767386
0.0075596
0.00743613
0.000261211
0.00201744
0.00367907
0.00495288
0.00589076
0.00656214
0.00703416
0.0073635
0.00759385
0.00775681
0.0078742
0.00795959
0.00801907
0.00805469
0.00806921
0.00806778
0.00804932
0.00800575
0.00793692
0.00786277
0.00778319
0.00769295
0.00759456
0.00025505
0.0019516
0.00355784
0.00479658
0.00572797
0.00641407
0.00691141
0.00726851
0.00752421
0.00770793
0.00784099
0.00793782
0.00800696
0.00805295
0.0080786
0.00808585
0.00807303
0.00803684
0.00798122
0.00792044
0.00785872
0.00778908
0.00771374
0.000244177
0.00185096
0.00339813
0.00460825
0.00553545
0.00623463
0.00675482
0.00713837
0.0074199
0.00762645
0.00777831
0.00789006
0.00797156
0.00802904
0.0080661
0.00808406
0.00808166
0.0080577
0.00801667
0.00796938
0.00792193
0.00787047
0.0078168
0.000230914
0.0017315
0.0032127
0.00439543
0.00531906
0.00602993
0.00657073
0.00697887
0.00728548
0.00751534
0.00768758
0.00781657
0.00791272
0.0079833
0.00803278
0.00806307
0.00807396
0.00806546
0.00804157
0.00801044
0.00797816
0.00794304
0.00790714
0.000217501
0.00158867
0.00301076
0.00416708
0.00508624
0.00580651
0.00636524
0.00679572
0.00712598
0.00737876
0.00757201
0.00771963
0.00783219
0.00791747
0.00798072
0.00802477
0.00805061
0.00805917
0.00805381
0.00804054
0.00802421
0.00800412
0.00798254
0.000205911
0.00145342
0.00280575
0.00393305
0.00484572
0.00557158
0.00614473
0.00659478
0.00694677
0.00722153
0.0074358
0.00760284
0.00773305
0.00783444
0.00791279
0.00797175
0.00801337
0.00803936
0.00805261
0.0080573
0.00805652
0.00805045
0.00804104
0.000195685
0.00135372
0.00262949
0.00371392
0.00460716
0.00533199
0.0059154
0.00638193
0.00675324
0.0070486
0.00728347
0.00747029
0.00761904
0.00773767
0.00783227
0.007907
0.00796479
0.00800789
0.00803882
0.00806062
0.00807423
0.00808117
0.00808269
0.000186838
0.00128304
0.00248581
0.00352059
0.00438579
0.00510029
0.00568574
0.00616293
0.00655045
0.00686471
0.00711947
0.00732611
0.00749398
0.00763074
0.00774246
0.00783373
0.00790789
0.00796753
0.00801491
0.00805205
0.0080793
0.00809827
0.00810987
0.000179275
0.00123047
0.00236837
0.00335221
0.00418424
0.00488178
0.00546314
0.00594575
0.00634532
0.00667574
0.00694888
0.00717482
0.00736201
0.00751754
0.00764722
0.00775564
0.00784633
0.00792197
0.00798467
0.00803576
0.00807575
0.00810593
0.00812693
0.00017272
0.00118683
0.00226842
0.00320385
0.00400127
0.00467824
0.00525126
0.00573524
0.00614342
0.00648744
0.00677735
0.00702179
0.00722816
0.00740276
0.0075509
0.00767693
0.0077843
0.00787566
0.00795302
0.00801708
0.00806897
0.00810958
0.00813938
0.000166822
0.00114628
0.00217846
0.00306985
0.003834
0.0044896
0.00505228
0.0055352
0.00594965
0.00630533
0.00661062
0.00687273
0.00709793
0.00729163
0.00745848
0.00760239
0.00772655
0.00783344
0.00792485
0.00800151
0.00806463
0.00811499
0.00815298
0.00016126
0.0011058
0.00209346
0.00294566
0.00367972
0.00431541
0.00486788
0.00534908
0.00576875
0.00613501
0.00645474
0.00673384
0.00697745
0.00719005
0.00737556
0.00753735
0.00767822
0.00780039
0.00790545
0.00799428
0.00806804
0.00812749
0.00817302
0.00015579
0.00106427
0.00201099
0.00282887
0.00353717
0.00415605
0.00470023
0.00518064
0.00560578
0.00598243
0.00631619
0.00661179
0.0068733
0.00710435
0.00730811
0.00748738
0.00764452
0.00778148
0.00789964
0.008
0.00808368
0.00815146
0.00820381
0.000150258
0.00102213
0.00193112
0.00271969
0.00340728
0.00401365
0.00455276
0.00503456
0.00546642
0.00585398
0.00620174
0.0065134
0.00679216
0.00704082
0.00726192
0.00745771
0.00763017
0.00778094
0.00791127
0.0080222
0.00811484
0.00819001
0.00824828
0.00014462
0.000981205
0.00185646
0.00262116
0.00329366
0.00389251
0.00443054
0.00491658
0.00535693
0.0057562
0.00611795
0.00644507
0.00674
0.00700493
0.00724184
0.00745256
0.00763873
0.00780178
0.00794282
0.00806294
0.00816325
0.00824464
0.00830777
0.000138964
0.000944703
0.00179199
0.00253906
0.00320249
0.00379907
0.00434012
0.00483325
0.00528369
0.00569517
0.00607049
0.00641189
0.00672128
0.00700041
0.00725088
0.00747422
0.00767185
0.00784506
0.00799486
0.0081224
0.00822879
0.00831501
0.00838181
0.000133521
0.000916715
0.00174439
0.00248111
0.00314171
0.00374094
0.00428853
0.00479084
0.00525213
0.00567541
0.00606295
0.00641657
0.00673788
0.00702836
0.00728942
0.00752245
0.00772874
0.00790949
0.00806571
0.00819859
0.00830928
0.00839882
0.00846804
0.000128651
0.000901264
0.0017206
0.00245533
0.00311914
0.00372505
0.00428141
0.00479352
0.00526499
0.00569836
0.00609561
0.00645841
0.00678826
0.00708657
0.00735472
0.00759405
0.00780584
0.00799128
0.00815137
0.0082874
0.00840054
0.00849187
0.00856231
0.000124772
0.000901017
0.00172566
0.00246737
0.00313971
0.00375487
0.00432046
0.00484129
0.00532069
0.00576112
0.00616455
0.0065327
0.00686716
0.00716941
0.0074409
0.00768302
0.00789709
0.00808434
0.00824582
0.00838286
0.00849668
0.00858841
0.00865898
0.000122236
0.0009162
0.00176038
0.00251762
0.00320252
0.00382782
0.00440142
0.00492843
0.0054124
0.00585605
0.00626161
0.00663104
0.0069661
0.00726846
0.0075397
0.00778131
0.00799468
0.00818111
0.00834171
0.00847786
0.00859083
0.00868174
0.00875156
0.000121231
0.000944383
0.00182019
0.00259963
0.00329941
0.00393433
0.00451375
0.00504377
0.00552869
0.00597178
0.00637567
0.00674265
0.00707477
0.0073739
0.00764179
0.00788006
0.00809022
0.0082736
0.00843143
0.00856513
0.00867598
0.00876512
0.00883351
0.000121747
0.000981384
0.00189599
0.00270119
0.00341644
0.00405975
0.00464276
0.00517308
0.00565603
0.00609556
0.00649483
0.0068565
0.00718293
0.00747624
0.00773837
0.00797111
0.00817607
0.00835468
0.00850828
0.00863831
0.00874608
0.00883271
0.00889918
0.000123628
0.00102266
0.00197703
0.00280797
0.0035379
0.00418838
0.00477351
0.00530253
0.00578179
0.00621599
0.00660882
0.00696334
0.00728225
0.00756794
0.00782261
0.00804823
0.00824657
0.00841914
0.00856744
0.00869294
0.00879693
0.00888052
0.00894467
0.000126643
0.00106431
0.00205403
0.00290774
0.00365075
0.00430758
0.00489436
0.00542167
0.00589677
0.00632502
0.00671062
0.00705706
0.0073674
0.00764439
0.0078905
0.00810796
0.00829872
0.00846442
0.00860673
0.00872713
0.00882686
0.00890701
0.00896855
0.000130522
0.00110343
0.00212092
0.00299285
0.00374707
0.00440987
0.00499862
0.00552472
0.00599608
0.00641857
0.00679689
0.00713497
0.00743632
0.00770407
0.00794105
0.00814979
0.00833246
0.00849086
0.00862684
0.00874184
0.00883704
0.00891347
0.00897212
0.00013497
0.00113808
0.0021749
0.00306029
0.00382397
0.00449274
0.0050842
0.00561003
0.00607849
0.00649587
0.0068673
0.00719721
0.00748959
0.00774805
0.00797585
0.00817584
0.00835042
0.00850158
0.00863128
0.0087409
0.00883149
0.00890399
0.00895944
0.000139659
0.00116702
0.00221546
0.00311023
0.00388203
0.00455692
0.00515192
0.00567852
0.00614505
0.00655813
0.00692332
0.00724559
0.00752946
0.00777912
0.00799831
0.00819023
0.0083574
0.00850203
0.00862607
0.0087307
0.00881674
0.00888511
0.00893697
0.000144245
0.00118939
0.00224326
0.00314437
0.00392337
0.0046046
0.00520388
0.00573212
0.00619764
0.00660727
0.00696705
0.00728248
0.00755876
0.00780074
0.00801274
0.00819826
0.00835986
0.00849966
0.00861949
0.00871994
0.00880151
0.00886529
0.00891289
0.000148377
0.00120445
0.00225933
0.00316492
0.00395059
0.00463826
0.00524223
0.00577274
0.00623797
0.00664501
0.00700033
0.00731006
0.00758013
0.00781619
0.00802329
0.00820535
0.00836497
0.00850364
0.00862218
0.00871951
0.00879617
0.00885422
0.00889632
0.000151724
0.0012114
0.00226495
0.00317433
0.00396629
0.00466019
0.00526882
0.00580181
0.00626726
0.00667249
0.00702442
0.0073298
0.00759536
0.00782768
0.00803277
0.00821566
0.00837998
0.00852629
0.00864867
0.00874292
0.00881226
0.00886182
0.00889618
0.000154025
0.00120994
0.00226254
0.00317582
0.0039734
0.00467258
0.00528515
0.00582032
0.0062862
0.00669032
0.00703999
0.0073425
0.00760528
0.00783583
0.00804149
0.00822988
0.00841059
0.00859022
0.00872171
0.0088066
0.0088612
0.00889682
0.00892005
0.000155031
0.00120722
0.00225866
0.00317436
0.00397536
0.0046777
0.0052926
0.0058291
0.00629531
0.00669892
0.00704747
0.00734855
0.00761004
0.00784001
0.00804688
0.00824201
0.00845199
0.00876135
0.00887889
0.00892683
0.00895079
0.00896452
0.00897289
0.000311072
0.000291043
0.000295355
0.000315957
0.00226571
0.00213397
0.00211374
0.00220232
0.00376726
0.0036435
0.003598
0.00362004
0.00479892
0.00468859
0.00461859
0.00458501
0.00555459
0.00545101
0.0053686
0.00530937
0.00609732
0.00600298
0.00592567
0.00586923
0.00649294
0.00642366
0.00636186
0.00630817
0.0068338
0.00676205
0.00670101
0.00665047
0.00710918
0.00704822
0.00699449
0.00694749
0.00734851
0.00729517
0.00724383
0.00719848
0.00752199
0.00747786
0.00743714
0.00740175
0.00765991
0.00762784
0.00759847
0.0075721
0.00777923
0.00775678
0.00773571
0.00771599
0.00788163
0.00786607
0.0078509
0.00783597
0.007966
0.00795554
0.00794472
0.00793334
0.00803175
0.00802542
0.00801811
0.00800962
0.00807979
0.00807704
0.00807279
0.00806687
0.00811288
0.00811345
0.00811206
0.00810855
0.00813552
0.00813924
0.0081406
0.00813946
0.00815324
0.00815995
0.00816395
0.00816511
0.00817176
0.00818127
0.00818775
0.0081911
0.0081963
0.00820837
0.00821711
0.00822244
0.00823107
0.0082454
0.0082561
0.00826313
0.00827892
0.00829513
0.00830745
0.00831585
0.0083411
0.00835876
0.0083723
0.0083817
0.00841708
0.00843576
0.0084501
0.00846012
0.00850451
0.00852376
0.00853853
0.00854883
0.00859929
0.00861874
0.00863361
0.00864392
0.0086959
0.00871525
0.00872999
0.00874014
0.00878799
0.00880704
0.0088215
0.00883141
0.00886915
0.00888777
0.0089019
0.00891157
0.00893383
0.00895194
0.00896572
0.0089752
0.00897819
0.00899574
0.00900917
0.00901849
0.00900077
0.0090177
0.00903073
0.0090399
0.00900286
0.00901906
0.00903161
0.00904055
0.00898847
0.00900378
0.0090157
0.00902429
0.00896394
0.00897815
0.00898923
0.00899728
0.00893732
0.00895012
0.00896008
0.00896734
0.00891742
0.00892837
0.00893684
0.008943
0.00891284
0.00892136
0.00892788
0.00893259
0.00893086
0.0089363
0.00894041
0.00894334
0.00897665
0.00897851
0.0089799
0.00898088
0.00131077
0.00242099
0.00303806
0.00337541
0.00355783
0.00363906
0.00365458
0.00362973
0.00358417
0.0035286
0.00345275
0.00333643
0.00316255
0.00291939
0.00258066
0.00211981
0.0015268
0.000837645
0.000158304
0.00265608
0.00323909
0.00364238
0.00390721
0.00407452
0.00416968
0.00421376
0.00421958
0.00419009
0.00412798
0.00402818
0.00387841
0.00366272
0.00336549
0.00296446
0.0024312
0.00174082
0.000924893
0.000164128
0.00373897
0.00399761
0.00423687
0.00443043
0.00457433
0.00467279
0.00473007
0.00475055
0.0047304
0.00466755
0.00455552
0.00438103
0.00412999
0.00379414
0.00335649
0.00279122
0.00206726
0.00116652
0.000183734
0.00457619
0.0046691
0.00480083
0.0049356
0.00505448
0.00514641
0.00520253
0.00522009
0.00519716
0.00513206
0.00501256
0.0048212
0.00454747
0.0041885
0.00373252
0.0031548
0.00241434
0.00144098
0.000203466
0.00524946
0.00526096
0.00532136
0.00540608
0.00549679
0.00557355
0.00561749
0.00562407
0.00559357
0.00552707
0.00540346
0.00519877
0.00490614
0.0045267
0.00405528
0.00346733
0.00269556
0.00159889
0.000229916
0.00579921
0.00576992
0.00578618
0.00583093
0.00589154
0.00594264
0.00596375
0.0059548
0.00591611
0.005841
0.00569633
0.00546832
0.00515352
0.00475428
0.00426832
0.00366669
0.00286062
0.00167832
0.000252001
0.00623185
0.00618637
0.00618444
0.00620315
0.00623134
0.00625025
0.00624803
0.0062225
0.00616621
0.00606001
0.00588022
0.00561944
0.00527719
0.00485412
0.00433611
0.00369203
0.00285293
0.00166002
0.000246481
0.00658145
0.00653217
0.00651984
0.00652387
0.00652596
0.00651498
0.00648582
0.00644022
0.00636147
0.00622136
0.00600437
0.00570423
0.00531867
0.00484954
0.00427643
0.00358092
0.00271121
0.00149413
0.000230964
0.00688146
0.00682903
0.0068068
0.00679519
0.00677573
0.00674304
0.00669304
0.00662373
0.00651419
0.00633633
0.00607402
0.00572022
0.00527234
0.00473807
0.00411245
0.00339284
0.00252889
0.00140395
0.000218474
0.00713533
0.00708252
0.00705117
0.00702379
0.00698453
0.00692878
0.00685478
0.00675473
0.00660737
0.00638795
0.00607887
0.00567514
0.0051776
0.0045951
0.00393523
0.00319806
0.00235694
0.00133385
0.000207855
0.00734963
0.00729847
0.00725866
0.007217
0.00716103
0.00708297
0.00697859
0.00684064
0.00665399
0.00639764
0.00605485
0.00561816
0.00508822
0.00447307
0.00378158
0.00301625
0.00216794
0.00122063
0.000197019
0.0075313
0.00748365
0.00743889
0.00738677
0.00731606
0.00721792
0.00708692
0.00691713
0.00669737
0.00641129
0.0060431
0.00558336
0.00503035
0.00438819
0.00366046
0.00285022
0.00196587
0.00105072
0.000183481
0.0076843
0.00764085
0.00759331
0.00753306
0.00745037
0.00733696
0.00718698
0.00699466
0.00675091
0.00644251
0.00605541
0.00557912
0.00500893
0.00434357
0.00358101
0.00272283
0.00179253
0.000885342
0.0001668
0.00781107
0.00777136
0.00772216
0.007656
0.00756464
0.00744074
0.00727841
0.00707176
0.00681257
0.00648959
0.00609032
0.00560399
0.00502312
0.00434231
0.00355657
0.00266738
0.00171069
0.000812273
0.000149259
0.00791346
0.00787674
0.00782666
0.00775672
0.00765984
0.00752958
0.00736018
0.00714562
0.00687808
0.00654756
0.00614285
0.00565334
0.00507005
0.00438506
0.00359146
0.00269042
0.00172002
0.000810658
0.000141413
0.00799346
0.00795914
0.00790907
0.00783732
0.0077377
0.00760447
0.00743207
0.00721445
0.0069441
0.00661194
0.00620789
0.00572192
0.00514467
0.00446704
0.00368039
0.00278181
0.00179845
0.000847973
0.000146679
0.00805404
0.00802215
0.00797283
0.00790088
0.00780076
0.00766724
0.00749489
0.0072778
0.00700882
0.00667966
0.00628126
0.00580443
0.00524017
0.00457919
0.00381155
0.00292877
0.0019398
0.000927634
0.000155678
0.00809898
0.00806993
0.00802219
0.0079513
0.0078524
0.0077205
0.00755037
0.00733638
0.00707173
0.00674889
0.00635967
0.00589579
0.00534882
0.00470969
0.00396752
0.00310893
0.00212328
0.001042
0.000165221
0.00813319
0.00810739
0.00806194
0.00799297
0.00789623
0.0077672
0.00760091
0.00739169
0.00713322
0.00681875
0.00644071
0.00599155
0.00546322
0.00484647
0.00412918
0.00329369
0.00231516
0.00118239
0.000173874
0.00816214
0.00813983
0.00809708
0.00803054
0.00793646
0.00781073
0.00764872
0.00744521
0.00719423
0.00688907
0.00652271
0.00608831
0.00557747
0.00498001
0.00428167
0.00346033
0.00248339
0.00132093
0.000180968
0.0081913
0.00817245
0.00813247
0.00806848
0.00797715
0.00785473
0.00769695
0.00749893
0.00725512
0.00695931
0.00660471
0.0061839
0.00568771
0.00510455
0.00441717
0.00359781
0.00260651
0.00140763
0.000186376
0.00822552
0.00820983
0.00817238
0.00811071
0.00802186
0.00790242
0.00774843
0.00755532
0.00731786
0.00703012
0.00668536
0.00627569
0.00579107
0.0052176
0.00453444
0.0037097
0.00269884
0.0014602
0.000189544
0.00826866
0.0082556
0.0082202
0.00816034
0.00807342
0.00795632
0.00780539
0.0076163
0.00738405
0.00710284
0.00676582
0.00636456
0.00588791
0.00532001
0.00463717
0.00380414
0.00277265
0.00149887
0.00019186
0.0083233
0.00831218
0.00827816
0.00821944
0.00813373
0.00801817
0.00786935
0.00768316
0.00745475
0.00717833
0.00684684
0.00645126
0.00597936
0.00541364
0.00472825
0.00388549
0.00283455
0.00153006
0.000193903
0.00839049
0.00838056
0.00834722
0.00828893
0.00820364
0.00808876
0.00794104
0.00775655
0.0075305
0.00725705
0.00692886
0.00653633
0.0060663
0.00549994
0.00480984
0.00395661
0.00288766
0.00155633
0.000195377
0.00846968
0.00846024
0.00842692
0.00836841
0.00828287
0.00816787
0.00802034
0.00783641
0.00761131
0.0073391
0.00701212
0.00662026
0.00614956
0.0055802
0.00488366
0.00401948
0.00293378
0.00157875
0.00019629
0.00855866
0.00854913
0.00851536
0.0084562
0.00836994
0.0082543
0.00810626
0.00792201
0.00769674
0.00742431
0.00709679
0.00670356
0.00623006
0.00565573
0.00495136
0.00407578
0.00297429
0.00159795
0.000196756
0.00865365
0.00864369
0.00860926
0.00854931
0.00846224
0.0083458
0.008197
0.00801201
0.00778588
0.00751229
0.00718298
0.00678691
0.00630898
0.00572815
0.00501478
0.00412735
0.00301064
0.00161465
0.000196921
0.00874955
0.0087391
0.00870413
0.00864365
0.00855609
0.0084392
0.00828995
0.0081044
0.00787744
0.00760248
0.0072709
0.00687124
0.00638794
0.00579957
0.00507626
0.00417641
0.00304459
0.00162992
0.0001969
0.00884049
0.00882973
0.00879466
0.0087343
0.00864704
0.00853059
0.00838184
0.00819666
0.00796973
0.00769412
0.00736079
0.00695779
0.00646907
0.00587279
0.00513888
0.00422581
0.00307825
0.00164483
0.000196739
0.00892041
0.00890976
0.00887528
0.00881598
0.00873022
0.00861563
0.00846894
0.00828586
0.00806075
0.00778629
0.00745292
0.00704808
0.00655506
0.00595143
0.00520675
0.00427944
0.00311441
0.00166037
0.000196463
0.00898397
0.00897394
0.00894087
0.00888376
0.00880096
0.00868999
0.00854747
0.00836887
0.00814825
0.00787784
0.00754746
0.00714376
0.0066491
0.00604006
0.0052853
0.00434272
0.00315733
0.00167866
0.000195917
0.00902733
0.00901839
0.00898753
0.00893376
0.00885543
0.00875002
0.00861404
0.00844279
0.00823002
0.0079675
0.0076444
0.00724639
0.00675456
0.0061439
0.00538133
0.00442318
0.00321371
0.0017038
0.000195051
0.00904888
0.00904137
0.00901334
0.00896391
0.00889144
0.00879344
0.00866639
0.00850549
0.00830428
0.00805415
0.00774359
0.00735722
0.00687454
0.00626827
0.00550242
0.00453
0.00329232
0.00174007
0.000195052
0.00904962
0.00904368
0.0090189
0.00897453
0.00890905
0.00882005
0.00870408
0.00855638
0.00837042
0.00813735
0.00784512
0.00747732
0.00701159
0.00641777
0.00565561
0.00467244
0.00340279
0.00179245
0.00019704
0.00903326
0.00902884
0.00900749
0.00896864
0.00891095
0.00883219
0.00872909
0.00859706
0.00842973
0.00821822
0.00795017
0.00760826
0.00716822
0.00659634
0.00584661
0.00485788
0.00355352
0.00186822
0.000201158
0.00900588
0.00900277
0.00898485
0.00895177
0.00890241
0.00883481
0.00874599
0.00863171
0.00848595
0.00830014
0.00806193
0.00775342
0.00734844
0.00680908
0.00608153
0.0050924
0.00374951
0.00197216
0.000207935
0.00897519
0.00897311
0.00895856
0.00893139
0.00889074
0.00883498
0.00876155
0.00866673
0.0085451
0.00838878
0.00818596
0.00791871
0.00755939
0.0070654
0.00637236
0.00538814
0.00399574
0.00210088
0.000218418
0.00894969
0.00894835
0.00893708
0.00891593
0.0088843
0.00884091
0.00878372
0.00870971
0.00861437
0.00849095
0.00832894
0.00811147
0.00781073
0.00738021
0.00674273
0.0057769
0.00431998
0.002255
0.000234446
0.00893769
0.00893684
0.00892882
0.00891378
0.00889136
0.00886066
0.00882025
0.00876792
0.00870037
0.00861248
0.00849598
0.00833679
0.0081099
0.007769
0.00722684
0.00632324
0.00480258
0.00246028
0.000255039
0.00894649
0.00894599
0.00894121
0.00893231
0.00891911
0.00890111
0.00887748
0.00884694
0.00880754
0.00875622
0.00868782
0.00859315
0.00845451
0.00823526
0.00785423
0.00712364
0.00562524
0.00274782
0.000279454
0.00898193
0.00898176
0.00898019
0.0089773
0.00897303
0.00896724
0.00895968
0.00894995
0.00893747
0.00892129
0.00889981
0.00887005
0.00882593
0.00875333
0.00861372
0.00827947
0.00723411
0.00310472
0.000303186
)
;

boundaryField
{
    leftWall
    {
        type            nutkWallFunction;
        Cmu             0.09;
        kappa           0.41;
        E               9.8;
        value           nonuniform List<scalar> 
50
(
6.63714e-06
9.58459e-06
1.14244e-05
1.29105e-05
1.41984e-05
1.53486e-05
1.6418e-05
1.74581e-05
1.90072e-05
2.11623e-05
2.37499e-05
2.64875e-05
3.40028e-05
3.5993e-05
3.43548e-05
3.29846e-05
3.17432e-05
3.11043e-05
2.86793e-05
2.75054e-05
2.59496e-05
2.40756e-05
2.22185e-05
2.05912e-05
1.91476e-05
1.78944e-05
1.68178e-05
1.58774e-05
1.50233e-05
1.42098e-05
1.34021e-05
1.25784e-05
1.1733e-05
1.08799e-05
1.00551e-05
9.31507e-06
8.72518e-06
8.34138e-06
8.19304e-06
8.27868e-06
8.57404e-06
9.04271e-06
9.64248e-06
1.0327e-05
1.10461e-05
1.1747e-05
1.23769e-05
1.28866e-05
1.32373e-05
1.33924e-05
)
;
    }
    rightWall
    {
        type            nutkWallFunction;
        Cmu             0.09;
        kappa           0.41;
        E               9.8;
        value           nonuniform List<scalar> 
50
(
9.62817e-06
1.25731e-05
1.42883e-05
1.55131e-05
1.64536e-05
1.71747e-05
1.76935e-05
1.80397e-05
1.83457e-05
1.89274e-05
2.09976e-05
2.32293e-05
2.68193e-05
2.98263e-05
2.98334e-05
2.72289e-05
2.3333e-05
2.12318e-05
1.96011e-05
1.7601e-05
1.5084e-05
1.24643e-05
1.13096e-05
1.23591e-05
1.38795e-05
1.52725e-05
1.65346e-05
1.75229e-05
1.79589e-05
1.84726e-05
1.89957e-05
1.92864e-05
1.94971e-05
1.96183e-05
1.96632e-05
1.96963e-05
1.96907e-05
1.96643e-05
1.9621e-05
1.94424e-05
1.91818e-05
1.93459e-05
1.96221e-05
2.01897e-05
2.11248e-05
2.25211e-05
2.47547e-05
2.76283e-05
3.09977e-05
3.4194e-05
)
;
    }
    lowerWall
    {
        type            nutkWallFunction;
        Cmu             0.09;
        kappa           0.41;
        E               9.8;
        value           nonuniform List<scalar> 
62
(
3.03007e-06
5.13541e-06
6.47556e-06
7.39537e-06
8.09274e-06
8.6539e-06
9.1199e-06
9.51782e-06
9.86364e-06
1.01675e-05
1.04343e-05
1.06661e-05
1.0864e-05
1.10279e-05
1.11531e-05
1.1228e-05
1.12296e-05
1.11055e-05
1.0802e-05
1.03557e-05
9.60766e-06
8.2098e-06
5.30104e-06
5.30104e-06
1.66416e-05
1.96296e-05
2.20522e-05
2.4277e-05
2.65868e-05
2.95587e-05
3.43772e-05
3.42257e-05
3.2085e-05
3.24521e-05
3.45017e-05
5.26474e-06
1.72016e-05
1.93596e-05
2.09404e-05
2.24641e-05
2.43554e-05
2.72666e-05
3.25625e-05
5.26474e-06
7.85254e-06
9.29951e-06
9.87101e-06
1.00127e-05
9.91756e-06
9.49736e-06
8.76552e-06
7.96053e-06
7.76541e-06
7.80364e-06
7.73557e-06
7.54815e-06
7.43334e-06
7.50239e-06
7.34251e-06
6.66742e-06
5.47268e-06
4.09693e-06
)
;
    }
    atmosphere
    {
        type            calculated;
        value           nonuniform List<scalar> 
46
(
0.000155031
0.00120722
0.00225866
0.00317436
0.00397536
0.0046777
0.0052926
0.0058291
0.00629531
0.00669892
0.00704747
0.00734855
0.00761004
0.00784001
0.00804688
0.00824201
0.00845199
0.009
0.009
0.009
0.009
0.009
0.009
0.009
0.009
0.009
0.009
0.009
0.009
0.009
0.009
0.009
0.009
0.009
0.009
0.009
0.009
0.009
0.009
0.009
0.009
0.009
0.009
0.009
0.00310472
0.000303186
)
;
    }
    defaultFaces
    {
        type            empty;
    }
}


// ************************************************************************* //
