/*--------------------------------*- C++ -*----------------------------------*\
  =========                 |
  \\      /  F ield         | OpenFOAM: The Open Source CFD Toolbox
   \\    /   O peration     | Website:  https://openfoam.org
    \\  /    A nd           | Version:  9
     \\/     M anipulation  |
\*---------------------------------------------------------------------------*/
FoamFile
{
    format      ascii;
    class       volScalarField;
    location    "8";
    object      epsilon;
}
// * * * * * * * * * * * * * * * * * * * * * * * * * * * * * * * * * * * * * //

dimensions      [0 2 -3 0 0 0 0];

internalField   nonuniform List<scalar> 
2268
(
0.000119505
0.000659461
0.00117539
0.00164613
0.00207262
0.00245662
0.00279973
0.00310363
0.00336998
0.00360447
0.00381789
0.00401937
0.00420856
0.00436092
0.00441833
0.00428507
0.00391575
0.00340672
0.00281795
0.00224054
0.00176028
0.00112258
0.000379626
0.000249376
0.000438045
0.000652079
0.00085243
0.00103393
0.00119635
0.00134053
0.0014677
0.00157947
0.00167835
0.00176741
0.00184814
0.00191879
0.00197119
0.00198866
0.00194773
0.00184443
0.00169971
0.00150948
0.0012884
0.0010414
0.000774593
0.000596736
0.000428748
0.000461826
0.00060053
0.000740369
0.000869403
0.000985318
0.00108815
0.00117876
0.00125851
0.00132911
0.00139223
0.00144827
0.00149555
0.00152907
0.00153991
0.00151764
0.00146242
0.00138252
0.00127173
0.00114106
0.00100487
0.000887705
0.000990774
0.000606601
0.000517856
0.000613624
0.000723146
0.000827359
0.000921941
0.00100616
0.00108054
0.00114616
0.00120437
0.00125629
0.00130205
0.0013402
0.00136713
0.00137712
0.00136458
0.00133093
0.00128043
0.00120988
0.00113221
0.00107162
0.0010723
0.00145132
0.000778621
0.000584802
0.000648499
0.000737387
0.000825462
0.000906528
0.000979148
0.00104353
0.00110055
0.0011513
0.00119668
0.00123673
0.00127026
0.00129454
0.00130564
0.00130038
0.00128062
0.00124961
0.00120795
0.00117152
0.0011745
0.00129459
0.00203779
0.000946462
0.000657406
0.00069438
0.000767078
0.000842868
0.0009138
0.000977799
0.00103482
0.00108556
0.00113097
0.00117182
0.00120819
0.0012391
0.00126249
0.00127561
0.0012766
0.00126751
0.00125177
0.00123361
0.00123184
0.00129266
0.00155292
0.00286208
0.00111303
0.000734268
0.000747394
0.000806256
0.000871765
0.000934266
0.000991095
0.001042
0.00108759
0.00112871
0.00116608
0.00119982
0.00122918
0.0012526
0.00126817
0.00127486
0.00127474
0.00127189
0.00127318
0.0012999
0.00141111
0.00183158
0.0041245
0.0012857
0.000815917
0.000806091
0.000852283
0.000908589
0.000963559
0.00101393
0.00105933
0.00110031
0.00113769
0.00117216
0.00120388
0.00123229
0.00125626
0.00127444
0.00128637
0.00129409
0.00130246
0.00131936
0.00136701
0.00151196
0.00206672
0.00678862
0.000592093
0.0019965
0.00309143
0.0036053
0.00389728
0.00403158
0.00407266
0.0040667
0.00385809
0.00339476
0.00282186
0.00221526
0.00182836
0.00179528
0.00174792
0.00154654
0.00105905
0.000612789
0.000123119
0.000601526
0.00107472
0.00144952
0.0016546
0.00177782
0.0018479
0.00187945
0.0018727
0.00179861
0.00166028
0.00147343
0.00124692
0.00105381
0.000957656
0.000867153
0.000747858
0.000556007
0.000373442
0.000201518
0.000787988
0.00100577
0.00121108
0.00132417
0.00139582
0.00144058
0.00146187
0.00145359
0.00140344
0.0013188
0.00119872
0.00104937
0.000913275
0.000825523
0.000742448
0.000647721
0.000518571
0.000399242
0.000354366
0.00101989
0.00109037
0.00118299
0.00123408
0.00127167
0.00129808
0.0013101
0.00129912
0.00125716
0.00119143
0.0010989
0.000984867
0.00087763
0.000797308
0.000721772
0.000642382
0.000545127
0.000467175
0.00052999
0.00139704
0.00126048
0.00122915
0.00122252
0.00123091
0.00124157
0.00124527
0.00123144
0.0011933
0.00113712
0.00106076
0.000968432
0.000878679
0.000804114
0.000734679
0.000666461
0.000590488
0.000547312
0.000725336
0.00200352
0.00149067
0.0013075
0.0012448
0.00122714
0.00122395
0.00122026
0.00120391
0.0011683
0.00111852
0.00105364
0.000976389
0.000898348
0.000828314
0.000763916
0.000703627
0.00064185
0.000628257
0.000942666
0.00308145
0.00174686
0.00139251
0.00128132
0.00124185
0.00122683
0.00121677
0.0011985
0.00116529
0.00112126
0.00106557
0.000999471
0.000929845
0.000863575
0.000802876
0.000747369
0.000695751
0.000708038
0.00118849
0.0054718
0.00195132
0.00146455
0.00132137
0.00126584
0.00124129
0.00122599
0.00120644
0.00117596
0.00113817
0.0010908
0.00103336
0.000970079
0.000906987
0.000847743
0.000794301
0.000751955
0.000792119
0.00147899
0.00154671
0.000943976
0.000901903
0.000930522
0.000974105
0.00101852
0.00105962
0.00109695
0.00113127
0.0011634
0.00119395
0.00122311
0.0012506
0.00127578
0.00129794
0.00131716
0.00133564
0.00135897
0.0013947
0.00146169
0.00161107
0.00199249
0.0031416
0.00191481
0.00113621
0.00105135
0.00105687
0.00108452
0.00111557
0.00114402
0.00116972
0.0011947
0.00121997
0.00124575
0.00127199
0.00129857
0.00132504
0.00135093
0.0013765
0.00140381
0.0014374
0.00148258
0.00154878
0.00166119
0.00187411
0.00228058
0.00237677
0.00137344
0.00123256
0.00120881
0.00121996
0.001238
0.00125152
0.00126186
0.00127528
0.00129287
0.00131347
0.00133627
0.00136089
0.0013871
0.00141404
0.00144209
0.00147365
0.00151147
0.00155736
0.00161423
0.00169117
0.00180639
0.00197132
0.00315238
0.0016964
0.00146366
0.00139548
0.00139257
0.00139983
0.00139311
0.00137912
0.00137687
0.00138571
0.00140038
0.00141844
0.00143889
0.00146262
0.0014869
0.0015124
0.00154466
0.00158417
0.00162968
0.00167856
0.00172932
0.00179074
0.00187069
0.00470329
0.00191233
0.00155486
0.00146787
0.00144179
0.00144299
0.00144134
0.001436
0.00144326
0.00146145
0.00148451
0.00150984
0.00153276
0.00155487
0.00157251
0.00158933
0.00162087
0.00166395
0.00171394
0.00175122
0.00177154
0.00179529
0.00182381
0.00402729
0.00185246
0.00161295
0.00156338
0.00147668
0.00145032
0.00144939
0.00144092
0.00144964
0.00147343
0.00150686
0.00154669
0.00158852
0.001629
0.00164439
0.00164511
0.00166942
0.00170183
0.00173457
0.00176925
0.00178426
0.00179308
0.00181313
0.00159874
0.0015743
0.00155962
0.00151649
0.00146915
0.00146061
0.00145861
0.00145423
0.00146148
0.00148141
0.00151012
0.00154459
0.00158251
0.00161919
0.00163938
0.00165099
0.00167149
0.00169665
0.00172188
0.00174706
0.00176321
0.00177341
0.00179148
0.001765
0.00157495
0.00151598
0.00147368
0.00145247
0.00145047
0.00145146
0.00145832
0.0014724
0.00149293
0.00151878
0.00154815
0.00158081
0.00161315
0.00163963
0.00166194
0.00168434
0.00170366
0.00172292
0.00174147
0.00175592
0.00176685
0.00177954
0.00176657
0.00164312
0.0014952
0.00144334
0.00142872
0.00143279
0.00144254
0.0014578
0.00147812
0.00150253
0.00153004
0.0015598
0.00159297
0.00162725
0.00165681
0.00168144
0.00170348
0.00172126
0.00173709
0.0017517
0.00176391
0.00177388
0.0017832
0.00746831
0.00169161
0.00148437
0.00142506
0.00141213
0.00141957
0.00143531
0.00145643
0.00148184
0.00151059
0.00154154
0.00157439
0.00161009
0.00164601
0.00167724
0.00170341
0.00172615
0.00174475
0.00175963
0.00177229
0.00178332
0.00179307
0.00180177
0.00176637
0.00169269
0.00147933
0.00141546
0.00140288
0.00141236
0.00143188
0.00145725
0.00148694
0.00151975
0.0015544
0.00159048
0.00162813
0.00166493
0.0016975
0.00172572
0.00175077
0.0017717
0.00178806
0.00180148
0.00181342
0.00182434
0.00183409
0.00176512
0.00170784
0.0014798
0.00141295
0.00140026
0.00141102
0.00143312
0.00146179
0.00149502
0.00153127
0.00156904
0.00160779
0.00164713
0.00168518
0.00171974
0.00175067
0.00177865
0.00180287
0.00182258
0.00183902
0.00185383
0.00186747
0.00187966
0.00746694
0.0017341
0.00148584
0.0014165
0.00140339
0.00141501
0.00143909
0.00147041
0.00150651
0.00154551
0.00158592
0.00162714
0.00166852
0.00170864
0.00174608
0.00178055
0.00181217
0.00184044
0.00186467
0.00188565
0.00190474
0.00192235
0.00193819
0.00747234
0.00175164
0.00149768
0.00142557
0.00141169
0.00142387
0.00144956
0.00148312
0.00152161
0.00156303
0.00160606
0.00165
0.00169406
0.00173716
0.00177834
0.00181719
0.0018534
0.00188655
0.0019162
0.00194279
0.00196722
0.00198983
0.00201038
0.00746631
0.00178024
0.00151516
0.00143965
0.0014247
0.00143723
0.00146432
0.00149988
0.00154065
0.00158464
0.00163065
0.00167786
0.00172544
0.0017725
0.00181828
0.00186228
0.00190404
0.00194309
0.00197907
0.00201221
0.00204303
0.00207172
0.00209803
0.00747497
0.00180944
0.00153745
0.00145824
0.00144206
0.00145486
0.00148326
0.00152083
0.00156412
0.00161116
0.00166075
0.00171198
0.00176401
0.00181606
0.00186742
0.00191752
0.00196584
0.00201187
0.00205527
0.00209606
0.00213446
0.00217046
0.00220374
0.00176535
0.00184209
0.00156409
0.00148091
0.0014635
0.00147662
0.00150644
0.00154629
0.0015926
0.00164335
0.00169728
0.00175342
0.00181094
0.00186908
0.00192715
0.00198453
0.00204064
0.00209495
0.00214707
0.00219684
0.00224419
0.00228891
0.00233056
0.00176792
0.00187322
0.00159489
0.00150737
0.00148882
0.00150251
0.0015341
0.00157672
0.00162671
0.00168196
0.00174112
0.0018032
0.00186736
0.00193285
0.00199896
0.00206504
0.00213044
0.0021946
0.00225702
0.00231736
0.00237529
0.0024304
0.00248206
0.00176342
0.00193817
0.00162938
0.00153738
0.00151797
0.00153266
0.00156656
0.00161261
0.00166706
0.00172771
0.00179316
0.00186237
0.0019345
0.00200879
0.00208452
0.00216099
0.00223749
0.00231336
0.00238801
0.00246086
0.00253135
0.00259884
0.00266251
0.00176398
0.00199037
0.00166736
0.00157094
0.00155103
0.00156726
0.00160415
0.00165445
0.00171428
0.00178139
0.00185434
0.00193206
0.00201372
0.00209854
0.00218576
0.00227463
0.00236438
0.00245424
0.00254342
0.00263116
0.00271664
0.00279895
0.00287705
0.00176445
0.00204804
0.00170871
0.00160804
0.0015881
0.00160654
0.00164724
0.00170272
0.00176901
0.00184383
0.00192569
0.00201356
0.00210657
0.00220394
0.00230489
0.00240859
0.00251419
0.00262075
0.00272731
0.00283286
0.00293629
0.00303642
0.00313193
0.00747592
0.00211418
0.00175328
0.00164871
0.00162933
0.00165075
0.00169619
0.00175793
0.00183194
0.0019159
0.00200835
0.00210826
0.00221478
0.00232713
0.00244448
0.00256594
0.00269052
0.00281713
0.00294456
0.0030715
0.00319655
0.00331816
0.00343471
0.00176807
0.0021639
0.00180075
0.00169293
0.00167485
0.00170014
0.00175137
0.00182061
0.00190377
0.00199856
0.00210354
0.00221774
0.00234033
0.00247053
0.0026075
0.00275026
0.00289766
0.0030484
0.003201
0.00335378
0.00350496
0.00365257
0.0037946
0.00176699
0.00223879
0.00185153
0.00174076
0.0017248
0.00175498
0.00181319
0.00189132
0.00198528
0.00209283
0.00221261
0.00234372
0.00248541
0.00263693
0.0027974
0.00296575
0.00314067
0.00332059
0.00350365
0.00368776
0.00387064
0.00404982
0.00422276
0.00176649
0.00230643
0.00190514
0.00179224
0.00177936
0.00181551
0.00188202
0.00197061
0.00207724
0.00219976
0.00233697
0.00248809
0.00265248
0.00282945
0.00301812
0.00321732
0.00342552
0.00364082
0.00386092
0.00408318
0.00430467
0.00452227
0.00473277
0.00176791
0.00238057
0.00196099
0.00184738
0.00183865
0.00188199
0.00195822
0.00205901
0.00218042
0.00232046
0.00247814
0.00265288
0.00284423
0.00305161
0.00327416
0.00351062
0.00375921
0.0040176
0.00428291
0.00455179
0.00482046
0.00508495
0.00534117
0.00749071
0.00245239
0.0020186
0.00190612
0.00190274
0.00195455
0.00204208
0.00215701
0.00229555
0.002456
0.00263765
0.00284024
0.00306358
0.0033073
0.00357062
0.00385218
0.00414991
0.00446095
0.00478168
0.00510775
0.00543429
0.00575615
0.00606816
0.0074844
0.00250644
0.00207679
0.00196811
0.00197154
0.00203329
0.00213383
0.002265
0.0024233
0.00260738
0.002817
0.00305232
0.00331358
0.00360072
0.00391313
0.00424939
0.00460709
0.00498272
0.00537164
0.00576818
0.00616597
0.00655825
0.00693833
0.00176574
0.00258744
0.00214141
0.00203414
0.00204512
0.00211819
0.00223355
0.00238324
0.00256414
0.00277546
0.00301755
0.00329123
0.00359732
0.00393629
0.00430782
0.00471053
0.00514163
0.00559676
0.00606996
0.00655377
0.00703966
0.00751865
0.00798192
0.00176875
0.00265557
0.00220697
0.0021034
0.00212319
0.0022091
0.00234119
0.0025118
0.00271838
0.00296086
0.00324042
0.00355881
0.00391773
0.00431843
0.00476115
0.00524466
0.0057658
0.00631916
0.00689698
0.00748935
0.00808478
0.0086711
0.00923652
0.00747216
0.00274971
0.00227493
0.00217544
0.00220534
0.00230571
0.0024565
0.00265051
0.00288595
0.00316374
0.00348623
0.0038564
0.00427726
0.00475126
0.00527953
0.0058613
0.0064931
0.00716828
0.00787671
0.00860506
0.00933759
0.0100576
0.0107488
0.00746795
0.00282224
0.00234266
0.00224936
0.00229111
0.00240765
0.00257908
0.0027989
0.00306635
0.0033837
0.00375483
0.00418447
0.00467748
0.00523804
0.00586885
0.00657002
0.00733806
0.00816489
0.00903734
0.00993726
0.0108428
0.0117303
0.0125775
0.00747503
0.00288781
0.00240852
0.0023247
0.00238029
0.00251466
0.00270847
0.00295622
0.00325859
0.00361956
0.00404508
0.00454223
0.00511844
0.00578052
0.00653357
0.00737949
0.00831533
0.00933164
0.0104114
0.0115296
0.0126554
0.0137551
0.0147965
0.00747204
0.00294205
0.00247325
0.00240192
0.00247328
0.00262683
0.00284423
0.00312143
0.00346098
0.00386909
0.00435437
0.00492702
0.00559795
0.00637782
0.00727548
0.00829604
0.00943828
0.010692
0.0120353
0.0134343
0.0148442
0.0162154
0.0175008
0.00176888
0.00297781
0.00253789
0.00248291
0.00257174
0.002745
0.00298611
0.00329314
0.00367102
0.00412874
0.00467822
0.00533362
0.00611055
0.00702505
0.00809173
0.00932121
0.0107163
0.0122676
0.0139487
0.0157128
0.0174946
0.0192186
0.0208136
0.0074753
0.00303489
0.00260724
0.00257316
0.0026799
0.00287141
0.00313431
0.00346962
0.00388522
0.00439333
0.00500978
0.00575356
0.00664636
0.00771155
0.0089723
0.0104483
0.0121506
0.0140743
0.0161899
0.0184353
0.0207136
0.0229055
0.0248979
0.0074869
0.00306622
0.00269645
0.00268653
0.00280691
0.00301054
0.00328952
0.00364863
0.00409884
0.00465576
0.00533943
0.00617445
0.00718993
0.00841892
0.0098967
0.0116572
0.0137267
0.0161126
0.0187888
0.0216771
0.0246343
0.0274641
0.0299736
0.00176775
0.00313364
0.00285477
0.00285572
0.00297038
0.00316969
0.00345264
0.00382691
0.00430554
0.00490676
0.00565459
0.0065796
0.00771946
0.00911921
0.0108304
0.0129082
0.0154043
0.0183535
0.0217492
0.0255066
0.0294208
0.0331559
0.0363468
0.00749271
0.0035948
0.00324312
0.00315383
0.00319965
0.00335762
0.00362293
0.00399903
0.0044968
0.0051348
0.0059399
0.00694828
0.00820674
0.00977406
0.0117219
0.0141344
0.017103
0.0207135
0.025014
0.0299516
0.0352644
0.0403675
0.0444595
0.0146611
0.00627727
0.00436191
0.00372537
0.00353114
0.00357753
0.00379383
0.00415543
0.00466138
0.00532633
0.00617794
0.00725691
0.00861862
0.0103359
0.0125027
0.0152378
0.0186873
0.0230195
0.0284001
0.0349113
0.0423415
0.0497387
0.0549737
0.148857
0.0236002
0.00778458
0.00478686
0.00397292
0.00380921
0.0039461
0.00428044
0.00478529
0.00546669
0.00635089
0.00748143
0.00892044
0.0107527
0.0130924
0.0160928
0.0199605
0.0249723
0.0314905
0.0399396
0.0505952
0.0625452
0.0689018
1.53738
0.124108
0.0169045
0.0063047
0.00439605
0.00398246
0.00404324
0.00435276
0.00485333
0.00554196
0.00644288
0.00760078
0.00908151
0.0109769
0.0134135
0.0165675
0.0206895
0.0261489
0.0335204
0.0437691
0.0586875
0.0820096
0.0876717
0.00834733
0.00653735
0.0063668
0.00766174
0.00280737
0.00284701
0.00282617
0.00275254
0.00209647
0.00213199
0.00212417
0.00207561
0.00193638
0.00195799
0.00194623
0.00190996
0.00185707
0.00187483
0.00187413
0.00184516
0.00184133
0.00185168
0.00185074
0.00183432
0.00181626
0.00182953
0.00183191
0.00181784
0.00179369
0.00180172
0.00180431
0.001798
0.00179082
0.00179496
0.00179668
0.0017946
0.00180758
0.00181063
0.00181219
0.00181175
0.00184017
0.00184336
0.00184532
0.00184593
0.00188719
0.00189127
0.00189427
0.0018961
0.00194819
0.00195381
0.0019584
0.00196187
0.00202367
0.00203137
0.00203802
0.00204352
0.00211539
0.00212564
0.00213478
0.00214271
0.00222598
0.00223928
0.0022514
0.00226221
0.00235866
0.00237562
0.00239128
0.00240554
0.0025172
0.00253856
0.00255849
0.0025769
0.00270612
0.00273278
0.00275788
0.00278128
0.00293088
0.00296395
0.00299529
0.00302475
0.00319811
0.00323892
0.00327781
0.00331459
0.00351582
0.00356603
0.00361403
0.00365967
0.00389379
0.00395533
0.00401437
0.00407072
0.00434386
0.00441911
0.00449148
0.00456074
0.00488039
0.00497223
0.0050607
0.00514553
0.00552092
0.0056328
0.0057407
0.00584425
0.00628681
0.00642291
0.0065542
0.00668025
0.00720415
0.00736954
0.00752898
0.00768197
0.00830498
0.00850574
0.00869901
0.00888417
0.00962906
0.0098725
0.0101063
0.0103297
0.0112258
0.0115207
0.0118028
0.0120716
0.0131571
0.0135138
0.0138537
0.0141758
0.0155011
0.0159323
0.0163405
0.0167248
0.0183579
0.0188782
0.0193667
0.0198227
0.0218564
0.0224829
0.0230646
0.0236017
0.026166
0.0269172
0.0276046
0.0282299
0.0315119
0.0324056
0.0332074
0.0339226
0.0381988
0.0392456
0.0401597
0.0409536
0.0466448
0.047832
0.0488299
0.0496662
0.0574233
0.0586776
0.0596766
0.0604743
0.0712868
0.0724002
0.0732208
0.0738348
0.0890447
0.0895828
0.0899314
0.0901687
0.00300046
0.00190855
0.00153322
0.00138009
0.00130981
0.00127432
0.00125279
0.00123251
0.0012071
0.00117943
0.00114518
0.00109928
0.00104385
0.000983735
0.000921713
0.000868087
0.00083924
0.000913789
0.00180807
0.00222459
0.0017969
0.00156603
0.00144184
0.00137336
0.0013344
0.00131108
0.00129417
0.0012781
0.00126231
0.00124349
0.00121051
0.00116019
0.00109677
0.00102674
0.000971635
0.000951527
0.00105329
0.00207029
0.00192973
0.00173178
0.00158708
0.00149455
0.00143803
0.00140426
0.00138576
0.00137653
0.00137138
0.00136722
0.00136114
0.00133586
0.00128185
0.00121121
0.00113289
0.00107459
0.00105743
0.00116664
0.00211831
0.00183121
0.00171875
0.00161429
0.00154953
0.00151019
0.00148677
0.00147743
0.00148012
0.00148878
0.00149858
0.00150616
0.00148454
0.00141105
0.00133117
0.00124055
0.00117471
0.0011622
0.00129745
0.00244483
0.00178505
0.00171022
0.00164372
0.00160032
0.0015682
0.00154993
0.0015479
0.00155899
0.00156839
0.00156443
0.00155901
0.00156662
0.00153337
0.0014179
0.00133751
0.00127123
0.00126037
0.00141269
0.00285474
0.00179401
0.00173599
0.00167161
0.00163411
0.00161147
0.00159839
0.00159144
0.00158994
0.00158972
0.00158047
0.00158246
0.00159826
0.00155981
0.00148704
0.00141663
0.00135208
0.00133714
0.00147867
0.0028115
0.00178281
0.00174054
0.00169738
0.0016693
0.00165233
0.00164435
0.00163474
0.00162169
0.00161169
0.00160242
0.00160512
0.00162058
0.00160205
0.00151856
0.00146564
0.00142357
0.0014217
0.00152173
0.00476916
0.00177838
0.00174832
0.00171852
0.001696
0.00168247
0.00167304
0.00165639
0.00163782
0.00162468
0.00161654
0.00162166
0.00163227
0.00160353
0.00152822
0.00146751
0.00143237
0.00145428
0.00165643
0.00115898
0.00178564
0.0017673
0.00174645
0.00172632
0.00171138
0.00169534
0.00167277
0.00165144
0.00163536
0.00162472
0.00162168
0.00161997
0.00159428
0.00153426
0.00146905
0.00142838
0.0014544
0.00169972
0.00115916
0.00180823
0.00179887
0.00178457
0.00176584
0.00174802
0.00172671
0.00170011
0.00167417
0.00165177
0.00163326
0.00161721
0.00159741
0.00156463
0.00151995
0.00146549
0.00142496
0.00144171
0.00166923
0.00489676
0.0018452
0.00184057
0.00183041
0.00181362
0.00179442
0.00177042
0.00174051
0.00170939
0.00167964
0.0016515
0.00162315
0.00158886
0.00154388
0.00149732
0.00145315
0.00141746
0.00142037
0.00158177
0.00489723
0.00189743
0.0018948
0.00188646
0.00187159
0.00185197
0.00182641
0.00179482
0.00176005
0.00172404
0.00168723
0.00164857
0.00160419
0.00154998
0.00149206
0.00144427
0.00140974
0.00140522
0.0015098
0.00115755
0.00196571
0.0019653
0.0019584
0.00194481
0.00192507
0.00189896
0.00186671
0.00182961
0.00178888
0.00174515
0.00169826
0.0016463
0.00158612
0.0015191
0.00145816
0.00141466
0.00140436
0.00147692
0.00115753
0.00205059
0.00205374
0.00204937
0.00203744
0.00201839
0.00199248
0.00195994
0.00192131
0.00187729
0.0018286
0.0017756
0.00171788
0.00165408
0.00158379
0.00151266
0.00145575
0.00143776
0.00150466
0.00489475
0.00215366
0.00216159
0.00216115
0.00215217
0.00213503
0.00211017
0.00207784
0.00203836
0.00199227
0.00194029
0.0018832
0.00182164
0.001756
0.00168658
0.00161539
0.00155486
0.0015375
0.00162119
0.00114361
0.00227779
0.00229164
0.00229642
0.00229174
0.00227779
0.00225497
0.00222362
0.00218407
0.00213689
0.00208292
0.00202329
0.00195941
0.001893
0.00182617
0.00176221
0.00171307
0.00171757
0.00186598
0.00473505
0.00242667
0.00244768
0.00245892
0.00245978
0.00245023
0.00243052
0.00240103
0.00236221
0.00231473
0.00225963
0.00219839
0.00213304
0.00206639
0.00200242
0.00194754
0.00191687
0.00195521
0.00218613
0.00111958
0.00260471
0.00263435
0.0026534
0.00266107
0.00265708
0.00264156
0.00261484
0.00257747
0.00253027
0.00247447
0.00241191
0.00234517
0.00227799
0.00221603
0.00216874
0.00215581
0.00222997
0.00256878
0.00115259
0.00281718
0.00285724
0.00288569
0.00290156
0.0029044
0.00289414
0.00287107
0.00283577
0.0027892
0.00273277
0.00266862
0.00259982
0.0025309
0.00246887
0.00242571
0.00242546
0.00252946
0.00296669
0.00569247
0.00307044
0.00312309
0.00316284
0.00318857
0.00319962
0.00319577
0.00317722
0.00314454
0.00309876
0.00304146
0.00297499
0.00290284
0.00283019
0.00276518
0.00272186
0.00272847
0.00285584
0.00336948
0.00659212
0.00337216
0.00344002
0.00349337
0.00353091
0.00355179
0.00355562
0.0035425
0.00351295
0.003468
0.00340933
0.00333947
0.00326222
0.0031833
0.00311182
0.00306358
0.00307036
0.00321087
0.00378311
0.00741111
0.0037316
0.00381783
0.00388754
0.00393921
0.0039718
0.00398478
0.00397808
0.00395216
0.003908
0.00384732
0.00377275
0.00368833
0.00360021
0.00351846
0.00346045
0.00346087
0.00360658
0.0042283
0.00824018
0.00416001
0.00426836
0.00435767
0.0044262
0.00447272
0.00449652
0.00449739
0.00447566
0.00443225
0.00436883
0.00428805
0.0041942
0.00409387
0.00399785
0.00392509
0.00391367
0.00405996
0.00473261
0.00917842
0.00467096
0.00480586
0.0049186
0.00500718
0.00507018
0.00510673
0.00511648
0.00509962
0.00505694
0.00499006
0.00490164
0.00479603
0.0046802
0.00456577
0.00447349
0.00444571
0.00459065
0.00532467
0.0103221
0.00528092
0.00544759
0.00558817
0.00570045
0.00578285
0.00583436
0.00585451
0.00584336
0.0058016
0.00573066
0.00563314
0.0055134
0.00537873
0.00524168
0.0051252
0.0050769
0.00521961
0.00602808
0.0117053
0.00600985
0.00621433
0.00638784
0.00652796
0.00663301
0.00670196
0.00673429
0.00672996
0.00668948
0.00661409
0.0065062
0.00637008
0.00621332
0.00604942
0.00590391
0.00583063
0.00596956
0.00686261
0.0133225
0.00688198
0.00713124
0.00734337
0.0075159
0.00764722
0.00773639
0.00778294
0.00778679
0.00774828
0.00766841
0.00754926
0.00739493
0.00721309
0.00701825
0.00683869
0.00673534
0.00686762
0.00785308
0.0151974
0.00792672
0.00822867
0.00848578
0.00869573
0.00885721
0.00896959
0.00903263
0.00904633
0.00901093
0.00892711
0.00879653
0.00862286
0.00841369
0.00818429
0.00796579
0.0078268
0.00794834
0.00903151
0.0173431
0.00917997
0.00954353
0.00985252
0.0101051
0.0103008
0.0104394
0.0105214
0.010547
0.0105165
0.0104301
0.0102889
0.0100961
0.00985872
0.00959244
0.00933108
0.00915142
0.00925873
0.0104484
0.0198397
0.0106858
0.0111207
0.0114888
0.0117893
0.0120229
0.0121909
0.0122944
0.0123343
0.012311
0.0122246
0.0120754
0.0118656
0.0116014
0.0112985
0.0109929
0.0107703
0.0108643
0.0121866
0.0229177
0.0124983
0.0130151
0.0134494
0.0138026
0.0140775
0.0142773
0.0144047
0.0144617
0.0144489
0.0143664
0.0142138
0.0139922
0.0137065
0.0133716
0.0130252
0.0127627
0.0128525
0.0143568
0.0268651
0.0146847
0.0152938
0.0158007
0.0162102
0.0165286
0.016762
0.0169154
0.0169922
0.0169941
0.0169211
0.0167725
0.0165482
0.0162515
0.015896
0.0155206
0.0152303
0.0153352
0.0170893
0.0319117
0.0173281
0.0180393
0.0186233
0.0190907
0.0194529
0.0197202
0.0199008
0.0200002
0.0200214
0.0199653
0.0198311
0.0196181
0.0193283
0.0189737
0.0185935
0.0183023
0.0184575
0.0205471
0.0382804
0.0205326
0.021353
0.0220153
0.0225389
0.0229424
0.0232418
0.0234492
0.023573
0.0236186
0.023588
0.0234818
0.0232995
0.0230433
0.0227246
0.0223833
0.0221434
0.0224139
0.024965
0.0463933
0.0244282
0.0253599
0.0260962
0.0266692
0.0271076
0.027434
0.0276656
0.0278145
0.0278887
0.0278929
0.0278301
0.0277028
0.0275164
0.0272856
0.0270547
0.0269598
0.0274671
0.0306868
0.0569052
0.0291783
0.0302139
0.0310111
0.0316199
0.0320812
0.0324257
0.0326761
0.0328482
0.0329535
0.0330004
0.0329965
0.0329509
0.0328778
0.0328043
0.0327908
0.0329985
0.0339668
0.0382183
0.0708019
0.0349866
0.0361032
0.0369359
0.0375579
0.0380241
0.0383733
0.0386332
0.0388234
0.0389587
0.0390522
0.0391185
0.0391778
0.0392619
0.0394257
0.0397721
0.0405274
0.0423576
0.0483186
0.0896724
0.0421053
0.0432559
0.0440826
0.0446852
0.0451316
0.0454674
0.0457236
0.0459222
0.0460811
0.0462182
0.0463564
0.0465308
0.0468006
0.0472703
0.0481313
0.0497663
0.0531335
0.0621428
0.116532
0.0508397
0.0519444
0.0527055
0.0532462
0.0536428
0.0539432
0.0541785
0.0543712
0.0545404
0.0547074
0.0549027
0.055177
0.055622
0.05641
0.057878
0.0607229
0.0665985
0.0812728
0.157321
0.0615458
0.0624875
0.0631082
0.063539
0.0638532
0.0640939
0.0642883
0.0644558
0.0646143
0.0647853
0.065002
0.0653241
0.0658664
0.0668629
0.0688178
0.0728953
0.0821268
0.10689
0.2246
0.0746153
0.0752522
0.0756554
0.0759307
0.0761322
0.0762896
0.0764213
0.0765407
0.0766605
0.0767976
0.0769798
0.0772589
0.077741
0.0786596
0.0805741
0.0849798
0.0965628
0.134966
0.349096
0.0904493
0.0906621
0.0907929
0.090882
0.0909484
0.0910021
0.0910494
0.0910948
0.0911433
0.0912018
0.0912819
0.0914064
0.0916227
0.0920417
0.0929574
0.0953029
0.102873
0.139125
0.57966
)
;

boundaryField
{
    leftWall
    {
        type            epsilonWallFunction;
        value           nonuniform List<scalar> 
50
(
0.000119505
0.000249376
0.000428748
0.000606601
0.000778621
0.000946462
0.00111303
0.0012857
0.00154671
0.00191481
0.00237677
0.00315238
0.00470329
0.00402729
0.00159874
0.001765
0.00176657
0.00746831
0.00176637
0.00176512
0.00746694
0.00747234
0.00746631
0.00747497
0.00176535
0.00176792
0.00176342
0.00176398
0.00176445
0.00747592
0.00176807
0.00176699
0.00176649
0.00176791
0.00749071
0.0074844
0.00176574
0.00176875
0.00747216
0.00746795
0.00747503
0.00747204
0.00176888
0.0074753
0.0074869
0.00176775
0.00749271
0.0146611
0.148857
1.53738
)
;
    }
    rightWall
    {
        type            epsilonWallFunction;
        value           nonuniform List<scalar> 
50
(
0.000123119
0.000201518
0.000354366
0.00052999
0.000725336
0.000942666
0.00118849
0.00147899
0.00180807
0.00207029
0.00211831
0.00244483
0.00285474
0.0028115
0.00476916
0.00115898
0.00115916
0.00489676
0.00489723
0.00115755
0.00115753
0.00489475
0.00114361
0.00473505
0.00111958
0.00115259
0.00569247
0.00659212
0.00741111
0.00824018
0.00917842
0.0103221
0.0117053
0.0133225
0.0151974
0.0173431
0.0198397
0.0229177
0.0268651
0.0319117
0.0382804
0.0463933
0.0569052
0.0708019
0.0896724
0.116532
0.157321
0.2246
0.349096
0.57966
)
;
    }
    lowerWall
    {
        type            epsilonWallFunction;
        value           nonuniform List<scalar> 
62
(
0.000119505
0.000659461
0.00117539
0.00164613
0.00207262
0.00245662
0.00279973
0.00310363
0.00336998
0.00360447
0.00381789
0.00401937
0.00420856
0.00436092
0.00441833
0.00428507
0.00391575
0.00340672
0.00281795
0.00224054
0.00176028
0.00112258
0.000379626
0.000379626
0.000596736
0.000990774
0.00145132
0.00203779
0.00286208
0.0041245
0.00678862
0.00834733
0.00653735
0.0063668
0.00766174
0.000592093
0.000601526
0.000787988
0.00101989
0.00139704
0.00200352
0.00308145
0.0054718
0.000592093
0.0019965
0.00309143
0.0036053
0.00389728
0.00403158
0.00407266
0.0040667
0.00385809
0.00339476
0.00282186
0.00221526
0.00182836
0.00179528
0.00174792
0.00154654
0.00105905
0.000612789
0.000123119
)
;
    }
    atmosphere
    {
        type            inletOutlet;
        inletValue      uniform 0.1;
        value           nonuniform List<scalar> 
46
(
0.1
0.124108
0.0169045
0.0063047
0.00439605
0.00398246
0.00404324
0.00435276
0.00485333
0.00554196
0.00644288
0.00760078
0.00908151
0.0109769
0.0134135
0.0165675
0.0206895
0.0261489
0.0335204
0.0437691
0.0586875
0.1
0.1
0.1
0.1
0.1
0.1
0.1
0.1
0.1
0.1
0.1
0.1
0.1
0.1
0.1
0.1
0.1
0.1
0.1
0.1
0.1
0.1
0.1
0.1
0.57966
)
;
    }
    defaultFaces
    {
        type            empty;
    }
}


// ************************************************************************* //
