/*--------------------------------*- C++ -*----------------------------------*\
  =========                 |
  \\      /  F ield         | OpenFOAM: The Open Source CFD Toolbox
   \\    /   O peration     | Website:  https://openfoam.org
    \\  /    A nd           | Version:  9
     \\/     M anipulation  |
\*---------------------------------------------------------------------------*/
FoamFile
{
    format      ascii;
    class       volScalarField;
    location    "2.62";
    object      p_rgh;
}
// * * * * * * * * * * * * * * * * * * * * * * * * * * * * * * * * * * * * * //

dimensions      [1 -1 -2 0 0 0 0];

internalField   nonuniform List<scalar> 
2268
(
830.936
829.694
827.566
824.49
820.733
816.388
811.567
806.367
800.884
795.209
789.429
783.629
777.884
772.251
766.753
761.383
755.821
750.357
746.485
744.388
742.274
740.637
740.46
831.139
829.98
827.991
824.958
821.201
816.812
811.921
806.634
801.052
795.27
789.377
783.46
777.596
771.843
766.237
760.828
754.855
749.751
745.876
743.341
741.832
740.739
740.756
831.58
830.384
828.498
825.518
821.757
817.319
812.343
806.948
801.241
795.324
789.293
783.239
777.246
771.385
765.714
760.357
754.267
748.963
745.107
741.674
741.584
740.576
740.752
832.3
830.993
829.104
826.148
822.365
817.863
812.791
807.275
801.432
795.372
789.197
783.005
776.891
770.943
765.248
759.968
755.151
749.401
745.294
744.229
741.46
740.292
740.264
833.263
831.824
829.847
826.868
823.034
818.451
813.269
807.623
801.636
795.427
789.105
782.773
776.54
770.511
764.791
759.527
755.172
751.573
747.86
744.091
741.267
739.937
739.635
834.47
832.873
830.763
827.718
823.803
819.114
813.803
808.011
801.868
795.501
789.024
782.542
776.179
770.058
764.291
759.013
754.514
750.7
747.024
743.547
740.989
739.619
738.875
835.92
834.147
831.875
828.726
824.698
819.874
814.409
808.451
802.136
795.596
788.95
782.302
775.794
769.564
763.726
758.398
753.781
749.825
746.189
742.927
740.595
739.316
737.905
837.621
835.655
833.2
829.91
825.733
820.741
815.092
808.942
802.433
795.701
788.867
782.034
775.36
769.007
763.082
757.692
752.978
748.932
745.341
742.227
739.985
738.656
736.533
719.891
720.698
721.404
721.714
722.489
723.895
726.076
728.63
732.911
737.757
742.254
745.757
747.248
750.592
753.984
756.094
756.113
755.579
755.661
719.653
720.02
721.058
721.594
722.692
724.257
726.282
729.295
734.141
739.117
743.025
745.886
747.552
750.508
753.232
755.009
756.902
756.336
756.966
719.337
719.979
720.574
721.212
722.588
724.353
726.654
729.801
735.204
740.537
743.922
746.884
747.627
750.436
754.338
757.144
756.527
756.858
756.977
720.182
720.366
720.023
720.795
722.4
724.433
726.987
729.889
736.318
740.875
744.682
748.71
747.49
751.205
759.608
758.018
744.412
751.732
757.005
720.129
719.695
719.715
720.233
722.058
724.473
727.268
730.459
735.542
740.721
745.21
750.616
753.824
758.026
760.64
759.314
739.442
734.094
743.435
719.192
718.44
718.708
719.42
721.498
724.529
723.39
701.195
702.926
726.684
743.355
751.511
757.06
759.735
761.747
765.398
770.463
733.881
730.855
718.55
717.164
717.534
718.333
720.644
724.554
717.953
692.148
697.567
700.967
709.432
752.644
757.461
760.144
762.744
767.044
772.144
764.708
730.829
718.656
716.232
716.488
716.993
718.982
721.848
727.836
701.721
695.703
699.633
736.353
754.463
758.002
760.472
763.463
768.612
773.727
777.608
755.852
840.704
838.423
835.668
832.105
827.634
822.312
816.311
809.806
802.951
795.885
788.726
781.557
774.574
767.992
761.9
756.378
751.52
747.388
743.897
740.957
738.61
736.73
734.14
845.83
843.554
840.469
836.432
831.368
825.371
818.699
811.548
804.1
796.486
788.022
777.82
765.977
752.978
739.062
724.675
710.687
697.872
686.046
674.85
666.71
665.512
663.859
779.541
766.492
746.371
724.429
698.729
668.395
632.822
591.142
544.242
496.946
452.032
397.676
348.423
305.283
267.817
236.726
211.045
192.555
180.877
176.957
176.502
170.175
152.286
193.224
173.45
153.613
130.061
105.163
81.03
59.3342
42.8793
29.2055
17.15
3.70847
3.66867
3.61015
3.37999
3.08416
3.05741
3.00832
2.80153
2.40219
1.67981
1.04569
1.60098
2.59256
4.5417
5.1803
4.18578
2.15969
2.35482
3.30025
3.89608
4.59668
9.70035
12.4045
9.18548
9.89728
10.494
9.4605
6.83879
14.0139
13.9724
13.7492
13.375
4.35099
0.941607
2.1203
8.51911
3.92591
6.47968
2.17444
2.15637
2.22084
5.54065
10.4662
10.3715
8.88334
10.7563
15.8016
15.7716
15.6428
15.4537
14.1547
4.58521
5.96346
4.41098
1.4655
2.04393
0.745705
2.43355
8.89313
3.86858
6.99793
3.40298
2.09658
2.11577
9.09838
10.7494
10.6217
10.5263
8.58461
5.07536
6.92299
6.27535
1.96686
2.1176
2.49611
1.77906
1.01381
0.635538
0.571056
0.572333
0.907986
2.52257
3.80923
7.2056
7.2973
6.86062
7.3236
9.34702
7.44506
3.85364
3.88627
2.92891
0.431752
0.0398741
0.0639067
0.292721
2.45818
2.95066
2.99414
3.02343
1.63274
0.527665
0.494098
0.389364
0.0957096
5.31004
6.77144
6.8402
5.26372
6.14324
5.48627
0.902812
-0.017712
-0.0256362
-0.016904
0.00513891
0.0127937
0.0215466
0.102618
0.299542
0.652869
1.49883
2.87042
3.27481
3.29319
2.78322
0.0986896
0.0744797
2.49664
2.8614
2.31404
0.913286
0.951286
0.271376
-0.0554934
-0.0411743
-0.0344982
-0.0231015
-0.00670628
0.00953411
0.01825
0.0207984
0.0137668
0.0126095
0.0079858
0.00231793
0.0717904
0.177708
0.149451
0.0767394
0.0667054
0.298895
0.439875
0.090592
-0.0955861
-0.0947748
-0.0850621
-0.0651696
-0.049356
-0.0383856
-0.0270907
-0.0147041
-0.00387199
0.00735334
0.0129071
0.0123207
0.00891574
0.00863137
0.00955351
0.0143418
0.0236384
0.0384525
0.0544892
0.0677457
-0.10779
-0.114449
-0.106774
-0.0974517
-0.0901551
-0.0800307
-0.0653843
-0.0518259
-0.0407991
-0.0303972
-0.0202666
-0.0118395
-0.00488929
0.000267165
0.00325366
0.00604873
0.00807583
0.010413
0.0150044
0.0225877
0.0322884
0.0412922
0.052139
-0.0961359
-0.100813
-0.0971447
-0.0904034
-0.0832278
-0.0740732
-0.0628303
-0.0519299
-0.0421165
-0.0328767
-0.0241995
-0.0166335
-0.0101685
-0.00492891
-0.000932499
0.0025372
0.00574218
0.0093644
0.0142156
0.0204706
0.0276939
0.0343636
0.0385777
-0.0809806
-0.0871664
-0.0864059
-0.0816835
-0.07511
-0.0683914
-0.059648
-0.0508068
-0.0423633
-0.0343055
-0.0267412
-0.0199244
-0.013887
-0.00866718
-0.00421004
-0.000136824
0.00379644
0.00795762
0.0127107
0.0181082
0.0238286
0.0290357
0.032887
-0.0702384
-0.0760423
-0.0767146
-0.0729543
-0.06811
-0.0625033
-0.0562002
-0.0489408
-0.0417556
-0.034784
-0.028156
-0.0220179
-0.016412
-0.0113409
-0.00673467
-0.00240338
0.00182134
0.00613901
0.0107021
0.0154909
0.0202747
0.0246042
0.0280806
-0.0618431
-0.0671517
-0.0684516
-0.0655763
-0.0619288
-0.0572876
-0.0526235
-0.0466177
-0.0405213
-0.0344989
-0.028676
-0.0231544
-0.0179749
-0.0131376
-0.00859512
-0.00424796
2.91361e-06
0.00425483
0.00856159
0.0128783
0.0170459
0.0208143
0.0239748
-0.0556094
-0.0601113
-0.0615113
-0.0598361
-0.056552
-0.0532975
-0.0489862
-0.0440118
-0.0388282
-0.0336176
-0.0284918
-0.0235317
-0.0187774
-0.0142356
-0.00988303
-0.00567106
-0.00155058
0.00251738
0.0065393
0.0104657
0.0141868
0.0175541
0.0204483
-0.0509214
-0.0544617
-0.0555754
-0.0546634
-0.0523669
-0.049232
-0.0453951
-0.0412271
-0.0368
-0.0322799
-0.0277626
-0.0233165
-0.0189808
-0.0147705
-0.0106809
-0.0066944
-0.00279394
0.00102727
0.00475371
0.00833861
0.0117037
0.0147535
0.0174141
-0.0471604
-0.0496921
-0.0503777
-0.0495684
-0.0477009
-0.0450713
-0.041884
-0.0383281
-0.0345298
-0.0305993
-0.0266174
-0.0226432
-0.0187147
-0.0148528
-0.0110657
-0.00735483
-0.00372265
-0.000179544
0.00324962
0.00652277
0.00958156
0.0123593
0.014806
-0.0438602
-0.0451262
-0.0444937
-0.0448715
-0.0432933
-0.0410839
-0.038394
-0.0353592
-0.0320882
-0.0286658
-0.0251582
-0.0216181
-0.0180809
-0.0145711
-0.0111048
-0.00769461
-0.00435407
-0.00110228
0.00203268
0.0050136
0.00779491
0.0103262
0.0125709
-0.0406003
-0.0411166
-0.0385436
-0.0381563
-0.0389356
-0.0372412
-0.0349516
-0.0323548
-0.0295328
-0.0265539
-0.0234682
-0.0203285
-0.0171638
-0.0140007
-0.0108596
-0.00775895
-0.00471818
-0.00176007
0.00108695
0.0037901
0.00631228
0.00861296
0.0106631
-0.0372496
-0.0373686
-0.0342477
-0.0335042
-0.0345577
-0.0335289
-0.0315727
-0.0293475
-0.0269139
-0.0243245
-0.0216238
-0.0188515
-0.0160382
-0.0132099
-0.0103889
-0.00759606
-0.00485317
-0.00218413
0.000384041
0.00282215
0.00509899
0.0071804
0.00904225
-0.0340067
-0.0337751
-0.0301916
-0.0294635
-0.0308604
-0.0299537
-0.0282799
-0.0263746
-0.0242809
-0.0220393
-0.0196859
-0.0172533
-0.0147699
-0.0122607
-0.00974827
-0.00725415
-0.00480042
-0.00241054
-0.000109625
0.00207626
0.00412024
0.00599262
0.00767266
-0.0309265
-0.0302524
-0.0273041
-0.0277121
-0.0276668
-0.0265439
-0.0251086
-0.0234786
-0.0216831
-0.0197516
-0.0177124
-0.0155923
-0.0134163
-0.0112075
-0.00898783
-0.00677819
-0.00460009
-0.00247573
-0.000428093
0.00151945
0.00334336
0.00501741
0.00652346
-0.0280094
-0.0269967
-0.0260567
-0.0253171
-0.0244106
-0.0233389
-0.0221004
-0.0207048
-0.0191687
-0.0175119
-0.0157551
-0.0139196
-0.0120267
-0.010097
-0.008151
-0.00620808
-0.00428881
-0.00241366
-0.0006035
0.00112071
0.00273813
0.00422536
0.00556637
-0.0252458
-0.0240563
-0.0230744
-0.0222129
-0.0213386
-0.0203746
-0.0192951
-0.018096
-0.0167826
-0.015366
-0.0138598
-0.0122801
-0.0106441
-0.00896953
-0.00727474
-0.00557873
-0.00389923
-0.00225516
-0.000665373
0.000851319
0.0022764
0.00358884
0.0047744
-0.0226501
-0.0213939
-0.0203338
-0.0194169
-0.0185591
-0.0176748
-0.0167226
-0.0156864
-0.0145621
-0.0133525
-0.0120654
-0.0107117
-0.00930475
-0.00785977
-0.00639291
-0.0049209
-0.00346023
-0.00202786
-0.000640574
0.000684842
0.00193193
0.00308184
0.00412186
-0.020236
-0.0189742
-0.017864
-0.0169132
-0.0160702
-0.0152493
-0.0144005
-0.0134992
-0.0125336
-0.0115001
-0.0104012
-0.00924367
-0.00803758
-0.0067954
-0.00553128
-0.00426002
-0.00299652
-0.00175587
-0.000552916
0.000597523
0.00168096
0.00268058
0.00358517
-0.0180114
-0.0167676
-0.0156437
-0.0146838
-0.0138621
-0.013097
-0.0123347
-0.0115454
-0.0107119
-0.00982596
-0.00888619
-0.00789607
-0.00686286
-0.00579681
-0.00471021
-0.00361615
-0.00252798
-0.00145905
-0.000422373
0.000569175
0.00150306
0.00236458
0.00314399
-0.015985
-0.014771
-0.0136586
-0.0127115
-0.0119204
-0.0112084
-0.0105205
-0.00982437
-0.00909999
-0.00833617
-0.00752885
-0.00667919
-0.00579236
-0.00487679
-0.00394323
-0.00300337
-0.00206912
-0.00115237
-0.000264372
0.000583873
0.00138189
0.00211717
0.00278162
-0.0141561
-0.0129788
-0.011894
-0.010977
-0.0102259
-0.0095661
-0.00894356
-0.00832547
-0.00769072
-0.00702683
-0.00632828
-0.00559476
-0.00482996
-0.00404099
-0.0032374
-0.00242978
-0.001629
-0.000845708
-8.96973e-05
0.000629938
0.00130493
0.00192518
0.00248445
-0.0125127
-0.0113753
-0.0103309
-0.00945799
-0.00875427
-0.00814649
-0.00758229
-0.00703002
-0.00646893
-0.00588638
-0.00527632
-0.00463764
-0.00397313
-0.00328901
-0.00259403
-0.00189815
-0.00121162
-0.000544369
9.4965e-05
0.000699196
0.0012626
0.00177783
0.00224074
-0.0110352
-0.0099403
-0.00894721
-0.00812896
-0.00747799
-0.00692181
-0.0064106
-0.00591473
-0.00541471
-0.00489847
-0.00436004
-0.00379801
-0.00321471
-0.00261589
-0.00200998
-0.00140683
-0.00081678
-0.00024972
0.000286253
0.000786006
0.00124707
0.00166542
0.00203934
-0.00969864
-0.00865163
-0.00771925
-0.00696341
-0.00636861
-0.00586352
-0.0054014
-0.00495506
-0.00450659
-0.00404487
-0.00356432
-0.00306358
-0.00254482
-0.0020137
-0.00147886
-0.000950755
-0.00044069
4.03139e-05
0.000483626
0.000886555
0.00125144
0.00157858
0.00186906
-0.00847342
-0.00748516
-0.00662214
-0.00593462
-0.00539852
-0.0049444
-0.004529
-0.00412753
-0.00372375
-0.00330752
-0.00287377
-0.00242132
-0.00195242
-0.00147297
-0.000992291
-0.000522251
-7.63624e-05
0.000331416
0.00068952
0.000998617
0.00126928
0.00150786
0.00171848
-0.00732305
-0.00641104
-0.00562743
-0.00501501
-0.00454114
-0.00413926
-0.00376996
-0.00341082
-0.00304708
-0.00266958
-0.00227372
-0.00185853
-0.0014264
-0.000983614
-0.000540572
-0.000111344
0.00028692
0.00063436
0.000910636
0.00112174
0.00129434
0.00144353
0.0015761
-0.00620026
-0.0053908
-0.0047021
-0.00417602
-0.00377094
-0.00342482
-0.00310305
-0.00278564
-0.00245928
-0.00211568
-0.0017507
-0.00136349
-0.000956445
-0.000536042
-0.000113685
0.000293992
0.000664628
0.000967573
0.00116001
0.0012572
0.00131973
0.0013749
0.00143005
-0.00503999
-0.00437849
-0.00381257
-0.00339074
-0.00306379
-0.00277894
-0.00250805
-0.0022337
-0.00194404
-0.00163174
-0.00129311
-0.000927278
-0.000536165
-0.000125595
0.000293296
0.000702392
0.00107236
0.00135414
0.00145337
0.00140293
0.0013343
0.00128846
0.00126744
-0.00374569
-0.00331967
-0.00293203
-0.00263803
-0.0023976
-0.00218017
-0.00196518
-0.00173717
-0.0014858
-0.00120504
-0.000891822
-0.000545057
-0.000165452
0.000243441
0.000672808
0.00110551
0.00150889
0.00181843
0.00180242
0.00153742
0.00130959
0.0011609
0.00107166
-0.00227716
-0.00216582
-0.00205101
-0.00191291
-0.00176962
-0.00162975
-0.00147713
-0.00129708
-0.00108182
-0.000827525
-0.000532331
-0.000195334
0.000184417
0.000606301
0.00106065
0.00152197
0.00199757
0.00252814
0.00233479
0.00163772
0.00118667
0.000948895
0.000817443
-0.000144155
-0.000785562
-0.00114939
-0.0012485
-0.00125264
-0.00121366
-0.00112309
-0.000974544
-0.000767627
-0.000502746
-0.000180084
0.000200205
0.000640696
0.00114271
0.00169149
0.00224217
0.00286413
0.0042556
0.00373822
0.00181916
0.000936013
0.000621756
0.00048468
0.00101442
-0.00146019
-0.000967214
-0.000873687
-0.000888232
-0.00088001
-0.000809934
-0.000672721
-0.000471662
-0.000209747
0.000113294
0.000503552
0.000972621
0.00153995
0.00224921
0.00326218
0.00496456
0.00704371
0.00641826
0.00219192
0.000748792
0.000316085
0.000151755
728.771
726.395
724.589
722.833
658.259
645.974
629.551
608.379
135.978
127.625
121.913
119.031
2.97051
3.21951
3.41617
2.8922
8.56924
8.51838
6.99207
3.61483
8.94792
7.88068
4.67176
4.67359
5.3369
0.431584
0.195764
0.8463
0.088371
0.0956004
0.103975
0.150685
0.0724991
0.0774068
0.0803074
0.0783793
0.0789272
0.0798862
0.0795248
0.0691637
0.0695633
0.0702437
0.0704921
0.0702761
0.0613514
0.0622682
0.0624329
0.0631493
0.0405786
0.0415833
0.0427188
0.0488657
0.0348448
0.0358871
0.0367318
0.0373944
0.0299681
0.0310266
0.0319376
0.0327123
0.025787
0.0268356
0.0277676
0.028584
0.0221788
0.0231991
0.0241237
0.0249462
0.0190556
0.0200349
0.0209331
0.021739
0.016351
0.0172805
0.0181401
0.0189156
0.014013
0.0148862
0.0156993
0.0164356
0.011998
0.0128107
0.013572
0.0142633
0.0102675
0.0110175
0.0117239
0.0123667
0.00878789
0.00947443
0.0101244
0.010717
0.00753055
0.00815388
0.00874688
0.00928812
0.00646886
0.00703007
0.00756617
0.00805594
0.00557666
0.00607749
0.00655768
0.00699659
0.00482883
0.00527177
0.00569792
0.00608752
0.00420236
0.00459064
0.00496544
0.00530803
0.0036775
0.00401475
0.00434136
0.00463973
0.0032379
0.0035278
0.00380945
0.00406645
0.00286989
0.0031159
0.00335558
0.00357385
0.00256124
0.00276643
0.00296682
0.00314872
0.00229997
0.00246709
0.00263061
0.00277836
0.00207386
0.00220534
0.00233431
0.00245015
0.00187052
0.00196857
0.0020653
0.00215168
0.00167764
0.00174436
0.00181132
0.00187097
0.00148307
0.00152075
0.00156075
0.00159685
0.00127458
0.00128619
0.00130278
0.00131911
0.00103922
0.00102951
0.00102752
0.00102878
0.000761563
0.000739761
0.000726832
0.000719282
0.000423003
0.00040202
0.000390952
0.00038491
9.01099e-05
6.57358e-05
4.91134e-05
3.75753e-05
717.833
715.277
708.224
673.603
648.415
654.575
701.979
715.619
721.589
732.701
743.139
746.531
749.005
738.12
739.102
771.095
775.63
779.42
780.976
571.038
532.309
522.57
541.638
580.72
618.482
637.421
649.744
630.196
617.645
606.174
591.257
591.018
614.169
665.536
706.868
743.003
772.085
775.828
118.54
147.963
200.573
247.465
270.811
278.18
294.827
350.799
422.093
472.94
499.617
511.986
513.335
525.337
508.597
457.781
426.398
415.277
421.94
1.73674
1.42954
1.37989
1.33862
1.257
1.13368
0.913062
0.814871
0.729435
1.92602
20.8947
47.8005
69.2328
63.4467
45.4697
32.5226
20.5663
11.2315
15.3724
1.37178
1.28881
1.41958
2.06351
2.15792
1.84308
1.46267
1.67827
1.69126
1.6539
1.47362
1.42198
1.42142
1.52644
1.64612
1.68334
1.67801
1.67603
1.67072
2.63842
1.62593
3.02562
3.15156
3.10817
3.06356
2.99641
2.93669
2.91009
2.67045
2.31304
3.20571
3.74883
3.82347
3.88148
2.87948
1.69704
1.7201
1.6682
2.48992
3.09726
3.03301
2.65062
2.18008
1.26722
0.503887
0.514396
0.337354
0.993408
0.808625
0.665904
1.21912
2.40672
3.28716
3.53799
3.60157
3.61793
3.61558
0.856015
1.42865
0.625273
0.0669634
0.0646234
0.0685928
0.29014
0.141993
0.105026
0.0585181
0.054823
0.0501409
0.0444445
0.040527
0.229274
1.9557
2.84908
2.71178
2.54915
0.0684078
0.0597633
0.0608082
0.0617032
0.0597283
0.0603329
0.0611041
0.061281
0.0588881
0.0613419
0.0511673
0.0440975
0.0382362
0.034824
0.0689317
0.0193366
0.00974178
0.23025
0.405408
0.0645539
0.0600221
0.0571773
0.0565027
0.0553698
0.0550697
0.0566295
0.0868322
0.100206
0.0955595
0.0888978
0.047318
0.0714674
0.11541
0.146347
0.0989151
0.0120078
-0.00564005
-0.00662562
0.069289
0.0596662
0.0526921
0.0519706
0.0510411
0.050224
0.0628514
0.100334
0.0971116
0.0732318
0.0471556
0.141616
0.190672
0.184524
0.177467
0.170234
0.0882572
-0.00114051
-0.00155945
0.0632312
0.0623353
0.0504457
0.0475863
0.0467535
0.0461294
0.0468375
0.0474221
0.0459152
0.0353702
0.0310872
0.0283169
0.0826551
0.15137
0.150193
0.143844
0.0970291
0.00434567
0.00337638
0.0552084
0.0552354
0.0450386
0.0432941
0.0428711
0.042213
0.0403682
0.0375857
0.0349422
0.0319953
0.0284142
0.0238261
0.018478
0.0136389
0.0104685
0.00860826
0.011657
0.0115279
0.00811875
0.0382495
0.0388718
0.0394988
0.0396311
0.0387686
0.0380271
0.0367951
0.0344544
0.0321333
0.0294487
0.0263113
0.0226149
0.0187039
0.0153596
0.0134837
0.0160302
0.0295729
0.0342216
0.0189362
0.0337946
0.034714
0.0352158
0.0353379
0.0350388
0.0342199
0.0331255
0.032059
0.0298457
0.0270002
0.0242635
0.0211834
0.0180178
0.0152929
0.0172373
0.0909717
0.131832
0.13091
0.120686
0.0297656
0.0308523
0.0314889
0.0317024
0.0315007
0.0308884
0.0302848
0.0292377
0.0274715
0.0248506
0.0221686
0.0194752
0.0166556
0.0139134
0.019854
0.118825
0.133649
0.132621
0.131981
0.0261556
0.0273242
0.0280456
0.028349
0.0282523
0.0277664
0.0271777
0.0264873
0.0249281
0.0227484
0.0200764
0.0176557
0.0150494
0.0123139
0.00929042
0.0118375
0.0446251
0.0506908
0.100588
0.0229337
0.0241281
0.024897
0.0252655
0.0252511
0.0248676
0.0241249
0.0232204
0.022287
0.0202648
0.0180839
0.0159045
0.0135168
0.0109763
0.00824429
0.00537921
0.00324629
0.0018088
0.00280968
0.0200691
0.0212514
0.0220374
0.0224462
0.0224938
0.0221954
0.0215653
0.020623
0.0193953
0.0180151
0.0164968
0.0144746
0.0121381
0.00987874
0.00755694
0.00520818
0.00374703
0.00579418
0.0872044
0.0175318
0.0186762
0.0194565
0.0198862
0.019979
0.0197506
0.0192166
0.0183968
0.017315
0.0160395
0.0147842
0.013068
0.0109674
0.0089224
0.00693773
0.00508214
0.00378619
0.00612488
0.103273
0.015292
0.0163813
0.0171393
0.0175748
0.0176996
0.0175284
0.0170774
0.016366
0.0154168
0.0142553
0.0130353
0.0116579
0.00985676
0.00809825
0.00642628
0.00490132
0.00375769
0.00323663
0.107598
0.013322
0.0143445
0.0150678
0.0154978
0.0156438
0.0155195
0.0151406
0.0145266
0.0136992
0.0126828
0.0115046
0.0102004
0.00881774
0.00739815
0.00601555
0.00477929
0.00385304
0.00344144
0.112152
0.0115957
0.0125439
0.0132238
0.0136394
0.0137977
0.0137113
0.0133953
0.0128686
0.0121529
0.0112729
0.0102574
0.00914234
0.00797171
0.00680073
0.00569906
0.00476018
0.00413371
0.00406724
0.100651
0.0100891
0.0109583
0.0115887
0.011983
0.0121462
0.0120897
0.011828
0.0113793
0.010765
0.0100098
0.00914344
0.00820256
0.00723287
0.00629278
0.00545822
0.00483316
0.00458939
0.00497153
0.0409533
0.00877907
0.00956704
0.0101441
0.0105116
0.0106734
0.0106396
0.010424
0.0100439
0.00952021
0.00887744
0.00814545
0.00736121
0.00657168
0.00583805
0.0052421
0.00490181
0.00501116
0.00580632
0.0713825
0.00764307
0.00834961
0.00887114
0.00920816
0.00936325
0.00934569
0.00916823
0.00884744
0.00840325
0.0078596
0.00724578
0.00659825
0.00596351
0.00540225
0.00499544
0.00486026
0.00518714
0.00736089
0.0973608
0.00665984
0.00728647
0.00775184
0.00805571
0.00819987
0.0081927
0.00804597
0.00777519
0.0073992
0.00694095
0.00642864
0.00589733
0.00539155
0.00496852
0.00470215
0.0046952
0.00511782
0.0101997
0.100411
0.00580974
0.00635923
0.00676893
0.00703815
0.00716806
0.00716614
0.00704312
0.00681331
0.00649435
0.00610796
0.00568095
0.00524665
0.00484708
0.00453506
0.00437527
0.00444997
0.00489971
0.0102191
0.10328
0.00507492
0.00555084
0.00590628
0.00614027
0.00625342
0.00625228
0.0061465
0.00594909
0.00567642
0.00534888
0.00499194
0.00463751
0.00432588
0.00410697
0.00403894
0.00418897
0.00467491
0.00576674
0.105861
0.00443927
0.00484566
0.00514891
0.00534781
0.00544243
0.00543833
0.005344
0.00517109
0.00493456
0.00465352
0.00435229
0.00406216
0.0038235
0.00368743
0.00371499
0.00398129
0.00461718
0.00581409
0.0483114
0.00388817
0.0042293
0.0044829
0.00464748
0.00472252
0.00471252
0.00462468
0.00446915
0.00425937
0.004013
0.00375332
0.00351146
0.00332953
0.00326386
0.003389
0.00381318
0.00471859
0.00625025
0.00816292
0.00340817
0.00368839
0.00389525
0.00402686
0.00408202
0.00406405
0.00397873
0.00383451
0.00364301
0.00342006
0.00318737
0.0029754
0.00282741
0.00280453
0.00299444
0.00353618
0.00465161
0.00642035
0.0609329
0.0029865
0.00321031
0.00337373
0.0034743
0.0035101
0.00348312
0.00339757
0.00325995
0.00307965
0.00286997
0.00265004
0.00244797
0.00230551
0.00228407
0.00247474
0.00302395
0.00415654
0.00591636
0.100877
0.00261084
0.00278296
0.0029067
0.00297887
0.00299671
0.00296085
0.00287378
0.00273983
0.00256569
0.00236138
0.00214209
0.00193149
0.00176666
0.00170466
0.00183199
0.00228753
0.00329094
0.00494129
0.102333
0.00226929
0.00239483
0.0024832
0.00253035
0.0025326
0.00248923
0.00240097
0.00226985
0.00209953
0.00189602
0.0016693
0.00143649
0.00122699
0.00108983
0.00110346
0.00139857
0.00220899
0.00376483
0.103668
0.0019506
0.00203521
0.00209313
0.00211933
0.00210926
0.00206092
0.00197341
0.00184651
0.00168074
0.00147764
0.00124091
0.000979115
0.000710809
0.000472854
0.000331847
0.000412777
0.000985692
0.00245115
0.0968319
0.00164438
0.00169433
0.00172728
0.00173719
0.00171872
0.00166888
0.00158544
0.00146623
0.00130882
0.00111029
0.000867427
0.000578534
0.000247831
-0.000105816
-0.000434923
-0.000619468
-0.000339388
0.00104975
0.0691835
0.00134127
0.00136357
0.00137744
0.001376
0.00135342
0.00130612
0.001231
0.00112454
0.000982
0.000796639
0.000558451
0.000254617
-0.000128387
-0.000597162
-0.00113726
-0.00165254
-0.00178209
-0.00052553
0.0642295
0.00103325
0.00103593
0.00103699
0.00102921
0.0010068
0.00096618
0.000904062
0.000816357
0.000697185
0.00053743
0.000321992
2.8011e-05
-0.000376747
-0.000932457
-0.00168146
-0.00264296
-0.00339597
-0.00245476
0.0439734
0.000714836
0.000707457
0.000702445
0.000693357
0.000675302
0.00064541
0.000600956
0.00053835
0.000452144
0.000333302
0.000165528
-7.85549e-05
-0.000443613
-0.0010021
-0.00189166
-0.00334827
-0.005168
-0.00493339
0.03417
0.000382312
0.000374451
0.000369331
0.000363042
0.00035268
0.000336729
0.000313709
0.000281522
0.000236797
0.000173509
7.96313e-05
-6.74894e-05
-0.000310092
-0.000732091
-0.00148424
-0.00321042
-0.00738817
-0.00867343
0.0294202
2.59797e-05
1.215e-05
2.884e-06
-3.91751e-06
-9.03201e-06
-1.27608e-05
-1.55179e-05
-1.80008e-05
-2.14274e-05
-2.81698e-05
-4.36741e-05
-8.16293e-05
-0.000176309
-0.000406895
-0.000840851
-0.0028609
-0.0108656
-0.012779
0.0119752
)
;

boundaryField
{
    leftWall
    {
        type            fixedFluxPressure;
        gradient        uniform 0;
        value           nonuniform List<scalar> 
50
(
830.936
831.139
831.58
832.3
833.263
834.47
835.92
837.621
840.704
845.83
779.541
193.224
4.5417
3.92591
3.86858
3.80923
5.31004
2.49664
0.298895
-0.10779
-0.0961359
-0.0809806
-0.0702384
-0.0618431
-0.0556094
-0.0509214
-0.0471604
-0.0438602
-0.0406003
-0.0372496
-0.0340067
-0.0309265
-0.0280094
-0.0252458
-0.0226501
-0.020236
-0.0180114
-0.015985
-0.0141561
-0.0125127
-0.0110352
-0.00969864
-0.00847342
-0.00732305
-0.00620026
-0.00503999
-0.00374569
-0.00227716
-0.000144155
0.00101442
)
;
    }
    rightWall
    {
        type            fixedFluxPressure;
        gradient        uniform 0;
        value           nonuniform List<scalar> 
50
(
755.661
756.966
756.977
757.005
743.435
730.855
730.829
755.852
780.976
775.828
421.94
15.3724
1.67072
1.6682
3.61558
2.54915
0.405408
-0.00662562
-0.00155945
0.00337638
0.00811875
0.0189362
0.120686
0.131981
0.100588
0.00280968
0.0872044
0.103273
0.107598
0.112152
0.100651
0.0409533
0.0713825
0.0973608
0.100411
0.10328
0.105861
0.0483114
0.00816292
0.0609329
0.100877
0.102333
0.103668
0.0968319
0.0691835
0.0642295
0.0439734
0.03417
0.0294202
0.0119752
)
;
    }
    lowerWall
    {
        type            fixedFluxPressure;
        gradient        uniform 0;
        value           nonuniform List<scalar> 
62
(
830.936
829.694
827.566
824.49
820.733
816.388
811.567
806.367
800.884
795.209
789.429
783.629
777.884
772.251
766.753
761.383
755.821
750.357
746.485
744.388
742.274
740.637
740.46
740.46
740.756
740.752
740.264
739.635
738.875
737.905
736.533
728.771
726.395
724.589
722.833
719.891
719.653
719.337
720.182
720.129
719.192
718.55
718.656
719.891
720.698
721.404
721.714
722.489
723.895
726.076
728.63
732.911
737.757
742.254
745.757
747.248
750.592
753.984
756.094
756.113
755.579
755.661
)
;
    }
    atmosphere
    {
        type            totalPressure;
        rho             rho;
        psi             none;
        gamma           1;
        p0              uniform 0;
        value           nonuniform List<scalar> 
46
(
-0.000134976
0
0
0
0
0
0
0
0
0
0
0
0
0
0
0
0
0
-5.57033e-06
-1.49634e-05
-3.43097e-05
-6.06356e-05
-9.04039e-05
-0.000112422
-0.000126434
-0.000139778
-0.000152284
-0.000172026
-0.000195071
-0.000212987
-0.000225309
-0.000231911
-0.000232949
-0.000228801
-0.000219997
-0.000207138
-0.000190823
-0.000171598
-0.000149906
-0.00012601
-9.97813e-05
-7.02047e-05
-3.49776e-05
-2.14114e-06
0
0
)
;
    }
    defaultFaces
    {
        type            empty;
    }
}


// ************************************************************************* //
