/*--------------------------------*- C++ -*----------------------------------*\
  =========                 |
  \\      /  F ield         | OpenFOAM: The Open Source CFD Toolbox
   \\    /   O peration     | Website:  https://openfoam.org
    \\  /    A nd           | Version:  9
     \\/     M anipulation  |
\*---------------------------------------------------------------------------*/
FoamFile
{
    format      ascii;
    class       volScalarField;
    location    "6.73";
    object      epsilon;
}
// * * * * * * * * * * * * * * * * * * * * * * * * * * * * * * * * * * * * * //

dimensions      [0 2 -3 0 0 0 0];

internalField   nonuniform List<scalar> 
2268
(
0.000197662
0.00106185
0.00189164
0.00263588
0.003301
0.0038973
0.004435
0.00492057
0.00535566
0.00574046
0.0060818
0.00639327
0.00668181
0.00692801
0.00706546
0.00695289
0.00641901
0.00557727
0.00460043
0.0036682
0.00293413
0.00194854
0.000612161
0.000404396
0.000701439
0.00103493
0.001347
0.00163085
0.00188722
0.00211861
0.00232729
0.00251474
0.00268238
0.00283271
0.00296855
0.00308942
0.0031868
0.00323963
0.003212
0.00308038
0.00288951
0.00259397
0.00221461
0.00178533
0.00132103
0.000987713
0.000687501
0.000744458
0.000956258
0.00117098
0.00137152
0.00155451
0.00172018
0.00186971
0.00200436
0.00212551
0.00223479
0.00233332
0.00241983
0.0024885
0.00252721
0.00251889
0.00245741
0.00236177
0.00219868
0.00197231
0.00171516
0.00149049
0.00164677
0.000966066
0.000841408
0.000985832
0.00115262
0.00131394
0.00146302
0.00159861
0.00172123
0.00183195
0.00193197
0.0020226
0.00210448
0.00217641
0.00223399
0.0022689
0.00227078
0.00223729
0.00217811
0.00207418
0.00193396
0.00180125
0.00176896
0.00241339
0.00123463
0.000955432
0.0010507
0.00118549
0.00132156
0.00144913
0.00156578
0.00167159
0.00176746
0.00185448
0.00193376
0.00200588
0.00206985
0.00212225
0.00215687
0.00216648
0.00214956
0.00211212
0.00204716
0.001971
0.0019409
0.00210036
0.00337773
0.00149704
0.00107795
0.00113301
0.0012432
0.00136024
0.00147163
0.00157405
0.00166731
0.00175221
0.00182977
0.00190104
0.00196659
0.0020257
0.00207564
0.00211156
0.00212796
0.00212349
0.00210325
0.00206908
0.00204599
0.00210838
0.00248306
0.00465256
0.00176023
0.00120691
0.00122671
0.00131644
0.00141773
0.00151558
0.00160598
0.00168868
0.00176447
0.00183435
0.00189933
0.00196002
0.00201591
0.00206479
0.00210274
0.00212538
0.00213165
0.00212725
0.00211973
0.00214129
0.00228613
0.00290018
0.00651793
0.00203355
0.00134146
0.00132926
0.00140124
0.00148868
0.00157433
0.00165376
0.0017268
0.00179437
0.00185749
0.00191712
0.00197389
0.00202745
0.00207597
0.0021162
0.00214457
0.00216053
0.00217083
0.00218706
0.00224409
0.00244853
0.00327722
0.010554
0.000746945
0.00274698
0.00427476
0.00510764
0.00559335
0.00582292
0.00604984
0.0062595
0.00618141
0.00536301
0.00422547
0.00314686
0.00236853
0.00256977
0.00316965
0.00305453
0.00202211
0.00116324
0.000319542
0.000789439
0.00155027
0.00211262
0.00243822
0.00263306
0.00274112
0.0028196
0.00286802
0.00281679
0.00258605
0.00229901
0.00190679
0.00158266
0.00152445
0.00150918
0.00139216
0.00103694
0.000711748
0.000378755
0.00111524
0.0015087
0.00182664
0.00201196
0.00212488
0.00219284
0.00223847
0.00225422
0.00220026
0.00205707
0.00189084
0.00165106
0.0014338
0.00133422
0.00125729
0.00114413
0.000909117
0.000689872
0.000530953
0.00159573
0.00166314
0.00181401
0.00190654
0.0019669
0.00200675
0.00203301
0.00203252
0.00197495
0.00185931
0.00173137
0.00155687
0.00139263
0.00129158
0.00120414
0.00109433
0.000906544
0.00073447
0.000697723
0.00223214
0.00191149
0.00189364
0.00190436
0.00192085
0.00193624
0.0019464
0.00193425
0.00187408
0.00177159
0.00166196
0.00152575
0.00139524
0.00130148
0.00121181
0.00110573
0.000947046
0.00081036
0.000883821
0.00309174
0.00221388
0.00201163
0.00194655
0.00192432
0.00191738
0.00191279
0.00189106
0.0018296
0.00173692
0.00164106
0.00153152
0.00142524
0.00133999
0.0012451
0.00114165
0.00100397
0.000903118
0.00110378
0.00451662
0.00254692
0.00214037
0.00200837
0.00195277
0.00192569
0.00190748
0.00187768
0.00181634
0.00173349
0.00165286
0.00156415
0.00147683
0.00139661
0.00129071
0.00118791
0.00106494
0.00100001
0.00136295
0.00804736
0.00285478
0.00225883
0.0020768
0.00199429
0.00194968
0.00191927
0.0018829
0.0018233
0.0017511
0.00168858
0.00161909
0.00154583
0.00146059
0.00134298
0.00123829
0.00112689
0.00109405
0.00166273
0.00242497
0.0015515
0.00149878
0.00154725
0.00161531
0.00168316
0.00174622
0.00180481
0.00186021
0.00191356
0.00196574
0.00201724
0.00206788
0.00211631
0.00216007
0.00219657
0.00222611
0.00225669
0.00230379
0.00239853
0.00262675
0.00323056
0.00503471
0.00300857
0.00187036
0.00176795
0.00178639
0.00182852
0.00187152
0.00191136
0.0019496
0.0019882
0.00202868
0.00207156
0.00211675
0.00216397
0.00221233
0.00225974
0.00230415
0.00234605
0.00239292
0.00245805
0.00256163
0.00275158
0.00312386
0.00382161
0.00366994
0.00224087
0.00207945
0.00205802
0.00207028
0.00208586
0.0021007
0.00211771
0.00213899
0.00216683
0.00220128
0.0022413
0.00228621
0.00233517
0.00238582
0.00243616
0.0024866
0.00254279
0.00261117
0.0027043
0.00284272
0.00306197
0.00336921
0.00462977
0.00270264
0.00243794
0.00232732
0.00230616
0.00229575
0.00228708
0.00228523
0.00229138
0.00230946
0.00233914
0.00237768
0.00242392
0.00247711
0.00253343
0.00258895
0.00264489
0.00270592
0.00276706
0.00284458
0.00293786
0.00306285
0.00321273
0.00603769
0.00300917
0.00264807
0.00246619
0.00242719
0.00239746
0.00237562
0.00237482
0.002388
0.00241483
0.00245518
0.00250518
0.00256248
0.00262644
0.00268455
0.00272697
0.00277587
0.00282672
0.00290383
0.00298092
0.0030309
0.00310167
0.00317549
0.00638883
0.00310494
0.00279801
0.00255201
0.00254733
0.00249864
0.00244065
0.0024236
0.00243698
0.00246951
0.00251841
0.00258042
0.00265101
0.00272735
0.00278864
0.00283642
0.00288036
0.00291415
0.00296571
0.00304859
0.00309546
0.00312091
0.00313514
0.00749699
0.00297146
0.00265035
0.00248715
0.00245756
0.00244714
0.00243586
0.00244143
0.00246426
0.00250257
0.00255536
0.00261858
0.00268474
0.00274877
0.00279977
0.00284036
0.00287408
0.00290552
0.00294249
0.0029895
0.00303648
0.00305887
0.00306332
0.00747833
0.00286932
0.00252466
0.00241793
0.00239091
0.00239822
0.00241516
0.00244228
0.00247753
0.00252095
0.00257296
0.00263031
0.00268541
0.00273569
0.00277992
0.00281741
0.00285149
0.00288291
0.00291455
0.00294452
0.00297172
0.0029875
0.00299161
0.00176922
0.00275992
0.00244463
0.00236032
0.00234104
0.00235766
0.00239089
0.00243206
0.00247711
0.00252501
0.00257531
0.00262565
0.00267313
0.00271925
0.00276363
0.00280193
0.0028356
0.00286687
0.00289535
0.0029188
0.00293637
0.00294603
0.00294493
0.0017653
0.00271725
0.00238982
0.00231447
0.00230541
0.00232935
0.00237058
0.00241925
0.00247035
0.00252174
0.00257188
0.00261919
0.00266367
0.00270833
0.00275345
0.00279293
0.00282666
0.00285771
0.00288526
0.00290621
0.00291826
0.00292072
0.00291409
0.00747155
0.00271669
0.00236179
0.0022855
0.00228205
0.00231052
0.00235532
0.00240738
0.00246174
0.00251558
0.00256666
0.00261373
0.00265792
0.00270203
0.00274643
0.00278686
0.00282224
0.00285443
0.00288219
0.00290178
0.00291069
0.00291004
0.00290227
0.00176807
0.00273134
0.00235818
0.00227318
0.00226942
0.00229892
0.00234463
0.00239785
0.00245374
0.00250914
0.00256154
0.00260996
0.00265556
0.00270032
0.00274458
0.002786
0.00282333
0.00285696
0.00288545
0.00290544
0.00291494
0.00291566
0.00291015
0.00176608
0.00276569
0.00237069
0.00227434
0.0022662
0.00229394
0.00233884
0.00239197
0.00244835
0.00250464
0.00255849
0.00260914
0.00265725
0.00270392
0.00274936
0.00279237
0.0028319
0.00286742
0.00289755
0.00291977
0.00293269
0.00293764
0.00293661
0.00748491
0.00282012
0.00239368
0.00228534
0.00227102
0.00229548
0.00233858
0.00239095
0.00244727
0.00250423
0.00255978
0.00261314
0.00266443
0.00271405
0.00276199
0.00280758
0.00285001
0.0028884
0.00292148
0.00294747
0.00296546
0.00297619
0.00298096
0.00747514
0.00287763
0.00242319
0.0023031
0.00228242
0.00230316
0.00234415
0.00239552
0.00245178
0.00250968
0.00256735
0.00262386
0.00267889
0.00273236
0.00278404
0.0028334
0.00287977
0.00292227
0.00295973
0.00299086
0.00301502
0.0030325
0.00304405
0.0017658
0.00291603
0.00245438
0.00232524
0.00229903
0.00231638
0.00235545
0.00240609
0.00246275
0.00252222
0.00258261
0.00264283
0.00270227
0.0027605
0.00281712
0.00287158
0.0029232
0.00297117
0.00301448
0.00305212
0.00308354
0.00310874
0.00312805
0.00747202
0.00297514
0.00248739
0.00235064
0.00231983
0.00233448
0.00237227
0.00242287
0.00248071
0.00254257
0.00260648
0.0026712
0.0027359
0.00279995
0.00286278
0.00292375
0.00298215
0.00303719
0.00308796
0.00313362
0.0031736
0.00320769
0.00323589
0.00176526
0.00301098
0.00252201
0.00237866
0.00234414
0.00235696
0.00239438
0.00244591
0.00250595
0.0025712
0.00263964
0.00270989
0.00278097
0.0028521
0.00292257
0.00299164
0.00305856
0.00312248
0.00318256
0.00323797
0.00328811
0.00333255
0.00337103
0.0074833
0.00306663
0.00255794
0.00240889
0.00237159
0.00238356
0.00242167
0.00247527
0.00253866
0.00260852
0.00268272
0.0027598
0.00283866
0.00291841
0.00299821
0.00307724
0.00315464
0.00322954
0.00330103
0.00336826
0.00343048
0.00348709
0.00353758
0.00748137
0.00311656
0.00259528
0.00244115
0.002402
0.00241418
0.00245415
0.00251107
0.00257916
0.00265502
0.00273646
0.00282194
0.0029103
0.00300052
0.00309167
0.00318283
0.00327306
0.00336135
0.00344673
0.0035282
0.00360487
0.00367591
0.00374056
0.00176612
0.00315976
0.00263374
0.00247537
0.00243535
0.00244888
0.00249197
0.00255359
0.00262786
0.00271133
0.00280175
0.00289753
0.00299742
0.00310035
0.00320528
0.00331119
0.003417
0.00352158
0.00362378
0.00372244
0.00381644
0.0039047
0.00398619
0.0074729
0.00322396
0.00267347
0.00251165
0.00247177
0.00248784
0.00253542
0.00260325
0.00268537
0.00277828
0.0028797
0.00298799
0.00310188
0.0032202
0.00334184
0.00346563
0.00359034
0.00371468
0.00383727
0.0039567
0.00407156
0.00418049
0.00428217
0.00176691
0.00326204
0.00271452
0.00255008
0.00251143
0.00253134
0.00258487
0.00266059
0.00275243
0.00285688
0.00297163
0.00309506
0.00322585
0.00336278
0.00350463
0.0036501
0.00379778
0.00394611
0.00409344
0.00423803
0.00437814
0.004512
0.00463796
0.00176762
0.00331408
0.00275709
0.00259083
0.00255455
0.00257969
0.0026408
0.00272624
0.00282991
0.00294828
0.00307909
0.00322073
0.00337188
0.00353127
0.00369759
0.00386937
0.00404494
0.00422247
0.00439991
0.0045751
0.00474584
0.00490991
0.0050652
0.00746478
0.00338609
0.00280114
0.002634
0.00260137
0.00263326
0.00270372
0.00280092
0.00291877
0.00305379
0.0032038
0.00336727
0.00354289
0.00372939
0.00392533
0.00412906
0.00433861
0.00455175
0.00476595
0.00497849
0.00518655
0.00538733
0.00557814
0.00749442
0.00343354
0.00284649
0.00267971
0.00265212
0.00269241
0.00277415
0.00288538
0.00302006
0.00317484
0.0033477
0.00353723
0.00374221
0.00396139
0.00419322
0.00443582
0.00468686
0.00494357
0.00520279
0.00546105
0.00571474
0.00596026
0.00619419
0.0074841
0.00349184
0.00289351
0.00272807
0.00270701
0.00275751
0.00285262
0.00298037
0.00313484
0.00331291
0.00351282
0.00373338
0.00397355
0.00423211
0.00450745
0.00479742
0.00509921
0.0054094
0.00572394
0.00603839
0.00634804
0.00664823
0.00693456
0.00750984
0.00354415
0.00294215
0.0027791
0.00276622
0.00282885
0.00293962
0.0030866
0.00326415
0.00346951
0.00370129
0.00395868
0.00424091
0.00454691
0.00487503
0.00522279
0.00558684
0.00596283
0.00634559
0.00672931
0.00710783
0.00747504
0.00782502
0.00750337
0.00360775
0.0029921
0.00283273
0.00282986
0.0029067
0.00303555
0.00320471
0.00340895
0.00364605
0.0039152
0.00421613
0.00454852
0.00491158
0.00530368
0.00572203
0.00616255
0.00661973
0.00708686
0.00755624
0.00801974
0.00846929
0.0088969
0.00752968
0.00367169
0.00304169
0.00288872
0.00289802
0.00299125
0.00314072
0.00333517
0.00356999
0.00384374
0.00415642
0.00450856
0.00490055
0.00533207
0.00580163
0.00630613
0.00684061
0.00739813
0.00796989
0.00854569
0.00911456
0.00966567
0.0101883
0.00761359
0.00371966
0.00309064
0.00294726
0.00297083
0.00308263
0.00325531
0.00347824
0.00374774
0.0040634
0.00442636
0.00483831
0.00530068
0.00581394
0.00637697
0.00698645
0.00763646
0.00831822
0.00902025
0.00972885
0.0104291
0.0111062
0.0117456
0.00767871
0.00376363
0.00314002
0.00300838
0.00304825
0.0031808
0.00337924
0.00363384
0.00394214
0.00430515
0.00472559
0.00520675
0.00575157
0.00636179
0.00703704
0.00777405
0.00856594
0.00940178
0.0102666
0.0111419
0.0120072
0.0128417
0.0136256
0.00771779
0.00380557
0.00318965
0.00307201
0.00313035
0.00328578
0.0035123
0.00380148
0.00415247
0.00456818
0.00505341
0.00561365
0.00625402
0.00697815
0.00778711
0.00867822
0.00964393
0.010671
0.0117402
0.0128265
0.0139011
0.0149344
0.0158983
0.00771136
0.00384029
0.00323845
0.00313842
0.00321768
0.00339786
0.00365425
0.00398025
0.00437715
0.00485032
0.00540728
0.00605641
0.00680583
0.00766205
0.0086286
0.00970443
0.0108822
0.0121468
0.0134739
0.0148299
0.0161736
0.0174612
0.0186519
0.00764862
0.00386294
0.00328664
0.00320957
0.00331223
0.00351818
0.00380503
0.00416878
0.00461353
0.0051477
0.00578219
0.0065291
0.00740054
0.0084072
0.00955667
0.0108514
0.0122863
0.0138457
0.0155003
0.0172051
0.0189007
0.0205197
0.022
0.0075169
0.0038699
0.00333862
0.00329169
0.00341908
0.00364958
0.00396508
0.00436525
0.00485766
0.0054543
0.00617003
0.00702149
0.00802593
0.00919989
0.0105573
0.0121074
0.0138507
0.015775
0.0178479
0.0200109
0.0221765
0.0242377
0.0260934
0.007486
0.00385747
0.00341122
0.00340114
0.0035493
0.0037977
0.00413551
0.00456715
0.00510392
0.00576153
0.00655907
0.0075183
0.00866284
0.010017
0.0116042
0.013445
0.0155525
0.0179252
0.0205347
0.0233091
0.0261198
0.0287886
0.0311388
0.00749743
0.00390681
0.00356814
0.00357781
0.00372437
0.00397162
0.00431763
0.00477068
0.00534462
0.00605797
0.00693368
0.00799886
0.00928436
0.0108243
0.0126555
0.014816
0.0173418
0.0202566
0.0235525
0.0271548
0.03088
0.0344193
0.0374299
0.00749118
0.00438058
0.00399164
0.00390752
0.00397953
0.00418222
0.00451081
0.00496933
0.00556927
0.00632925
0.00727469
0.00843754
0.00985627
0.0115764
0.0136517
0.0161455
0.0191299
0.0226778
0.0268362
0.0315664
0.036637
0.0415038
0.0453989
0.0158648
0.00727757
0.00524592
0.00455756
0.00435798
0.00443363
0.00470734
0.0051515
0.00576393
0.00655839
0.00756036
0.00880541
0.0103391
0.0122187
0.0145171
0.0173288
0.0207767
0.0250133
0.0302024
0.0364432
0.0435634
0.0506721
0.0557038
0.152469
0.0254435
0.0090457
0.00577148
0.00486849
0.00470193
0.00488423
0.00529811
0.00591124
0.00672699
0.00776849
0.00907324
0.0106923
0.012693
0.0151659
0.0182369
0.0220858
0.0269702
0.033247
0.0413559
0.0516138
0.0631904
0.0693609
1.53784
0.126321
0.0188695
0.00748734
0.0053578
0.0049037
0.00499771
0.00538329
0.00599237
0.00681762
0.00787935
0.00921562
0.0108805
0.0129472
0.0155172
0.0187375
0.0228294
0.0281402
0.0352343
0.0450829
0.0595009
0.0822616
0.0878162
0.0128791
0.00970957
0.00922734
0.0112632
0.00465078
0.00469157
0.00461144
0.00445143
0.00357328
0.00362226
0.00359442
0.00349772
0.0032947
0.003314
0.00329278
0.00323705
0.00322726
0.00323918
0.00320462
0.00314458
0.00314966
0.00314475
0.00311861
0.00307617
0.00307376
0.00306382
0.00304095
0.00301436
0.00298815
0.00298232
0.00296966
0.00295391
0.00293544
0.00292681
0.00291666
0.00290512
0.00290363
0.00289547
0.00288626
0.00287615
0.00289288
0.00288589
0.00287788
0.00286894
0.00290288
0.00289731
0.00289068
0.00288303
0.00293246
0.00292879
0.00292391
0.00291788
0.00298083
0.0029796
0.00297703
0.00297315
0.0030487
0.00305042
0.0030507
0.00304952
0.00313823
0.00314342
0.00314703
0.00314906
0.00325245
0.00326164
0.00326911
0.00327486
0.00339496
0.00340875
0.0034207
0.00343077
0.00357008
0.00358924
0.00360641
0.00362155
0.00378314
0.00380862
0.00383193
0.00385301
0.00404072
0.00407367
0.00410426
0.00413239
0.00435094
0.00439282
0.00443207
0.00446859
0.00472381
0.00477637
0.004826
0.00487254
0.00517161
0.005237
0.00529905
0.0053576
0.00570934
0.00579016
0.00586713
0.00594004
0.0063553
0.00645471
0.00654959
0.0066397
0.0071318
0.00725358
0.00736996
0.00748062
0.00806586
0.00821458
0.00835671
0.00849189
0.00919045
0.00937157
0.00954449
0.00970882
0.0105456
0.0107657
0.0109754
0.0111743
0.0121803
0.0124472
0.0127007
0.0129404
0.0141542
0.0144775
0.0147833
0.015071
0.0165416
0.0169329
0.0173008
0.0176448
0.0194359
0.0199093
0.0203508
0.0207603
0.0229572
0.0235294
0.0240575
0.0245421
0.0272637
0.0279539
0.0285819
0.02915
0.032569
0.0333967
0.0341354
0.0347908
0.0391675
0.0401464
0.0409971
0.0417323
0.0474705
0.0485927
0.049532
0.0503152
0.0580512
0.0592501
0.0602011
0.0609568
0.0716709
0.0727465
0.0735362
0.0741244
0.089161
0.0896867
0.0900259
0.0902557
0.00443489
0.00290244
0.00239837
0.00218202
0.00206932
0.00200231
0.00195573
0.00191163
0.0018577
0.00180386
0.0017701
0.00173098
0.00166824
0.00156114
0.00142767
0.00131723
0.00122698
0.00123586
0.00208987
0.00356779
0.002876
0.00251276
0.00230682
0.00218113
0.00209954
0.00204269
0.00199759
0.00195698
0.00192474
0.00191174
0.00189466
0.00182303
0.00168829
0.00154554
0.00143472
0.00137273
0.00143789
0.00258821
0.00322444
0.00286377
0.00260516
0.00242158
0.00229807
0.00221589
0.00216062
0.00212271
0.00209656
0.00208095
0.00208145
0.00207151
0.00197934
0.00182436
0.00167271
0.0015621
0.00151737
0.0016172
0.00281782
0.00310324
0.00289653
0.00270877
0.00253687
0.0024201
0.00234415
0.00229661
0.00227127
0.00226224
0.00226305
0.00227963
0.0022727
0.00214175
0.00196771
0.0018037
0.00169306
0.00166495
0.0018139
0.00309996
0.00303942
0.00289849
0.00275634
0.00262561
0.00253871
0.00247022
0.0024221
0.00240034
0.00239183
0.00236981
0.00233162
0.00231481
0.00225569
0.00208052
0.00191538
0.00181208
0.0018102
0.00202198
0.00362533
0.00300354
0.00291215
0.00281369
0.00269856
0.00261032
0.00254271
0.00249702
0.0024742
0.00245944
0.0024185
0.00235172
0.00233571
0.00225393
0.00212394
0.00199861
0.00192855
0.00194937
0.00221821
0.0042548
0.00297006
0.00291522
0.00284188
0.00273666
0.00265812
0.00260303
0.0025599
0.00252824
0.00249191
0.00243554
0.00236739
0.002321
0.00224104
0.00212599
0.00203758
0.00199367
0.00202512
0.0023664
0.00489514
0.0029251
0.00288382
0.002824
0.0027439
0.00267685
0.00262917
0.00259048
0.00254501
0.0024888
0.00242729
0.0023653
0.00231109
0.00222192
0.0021188
0.00203014
0.00198854
0.00204094
0.00243808
0.0052204
0.00288376
0.00284704
0.00279498
0.00273394
0.00268094
0.00264056
0.00260215
0.00254547
0.00248219
0.00241937
0.00235274
0.00228627
0.00221716
0.00213466
0.00203982
0.00198367
0.00203136
0.00241186
0.00509427
0.00285801
0.00282644
0.002785
0.00273826
0.00269406
0.00265475
0.00260963
0.00254895
0.00248485
0.00241897
0.00234465
0.00226367
0.00219487
0.00212856
0.00204254
0.00197605
0.00199612
0.00230469
0.00489842
0.0028528
0.00282538
0.00279248
0.00275557
0.00271561
0.00267431
0.00262522
0.00256371
0.00249622
0.00242541
0.0023463
0.00225647
0.00217075
0.00209667
0.00202294
0.00196241
0.00195511
0.00215322
0.00115907
0.00286879
0.0028442
0.00281564
0.00278333
0.00274559
0.00270329
0.00265272
0.00258957
0.00251897
0.00244377
0.00236078
0.00226754
0.00217077
0.00208004
0.00200235
0.00195226
0.00194154
0.00208383
0.00115881
0.00290603
0.00288434
0.00285789
0.00282666
0.00278961
0.00274646
0.00269451
0.00263122
0.00255972
0.00248182
0.002396
0.00230148
0.00220198
0.00210213
0.00201274
0.00195668
0.0019464
0.00204427
0.00115915
0.00296459
0.00294678
0.00292289
0.00289259
0.00285551
0.00281133
0.00275855
0.00269581
0.00262436
0.00254522
0.00245795
0.00236286
0.00226254
0.00216032
0.00206503
0.00199612
0.00197863
0.00206055
0.0011365
0.00304518
0.0030324
0.00301234
0.00298437
0.00294826
0.002904
0.00285109
0.00278885
0.00271769
0.00263819
0.00255057
0.00245566
0.00235575
0.0022545
0.00215962
0.00208518
0.00205825
0.00212785
0.00115003
0.00314977
0.00314316
0.00312822
0.00310415
0.00307064
0.00302783
0.00297573
0.0029142
0.00284349
0.00276414
0.00267682
0.00258284
0.00248477
0.00238701
0.00229764
0.00223043
0.00221484
0.00232868
0.00490484
0.0032815
0.00328226
0.00327367
0.00325488
0.00322547
0.00318553
0.00313529
0.00307497
0.00300498
0.00292607
0.00283935
0.0027467
0.00265139
0.002559
0.00247954
0.00243212
0.0024627
0.00270375
0.00115074
0.00344434
0.00345381
0.00345287
0.00344062
0.00341657
0.00338069
0.00333328
0.00327476
0.0032058
0.00312744
0.00304128
0.00294985
0.00285735
0.00277081
0.00270298
0.00268027
0.00277285
0.00321958
0.00524122
0.00364324
0.00366298
0.0036711
0.00366669
0.00364917
0.00361841
0.00357466
0.0035185
0.00345081
0.00337295
0.00328699
0.00319618
0.00310567
0.00302401
0.00296653
0.00296532
0.00310637
0.00369716
0.00650621
0.00388429
0.00391617
0.00393504
0.00393991
0.00393013
0.00390549
0.00386619
0.00381288
0.00374659
0.00366899
0.00358262
0.00349137
0.00340141
0.00332282
0.00327355
0.00329089
0.00347332
0.00419263
0.00796501
0.00417505
0.00422134
0.00425294
0.00426877
0.00426812
0.00425068
0.00421661
0.00416657
0.00410174
0.00402401
0.00393633
0.00384325
0.00375189
0.00367398
0.00363047
0.00366506
0.00389275
0.00474669
0.00962506
0.0045248
0.00458824
0.00463495
0.00466376
0.00467384
0.00466484
0.00463686
0.00459054
0.00452713
0.00444874
0.00435862
0.0042619
0.00416663
0.00408626
0.00404503
0.00409384
0.00436422
0.00535511
0.0112425
0.00494493
0.00502881
0.00509347
0.00513761
0.00516035
0.00516123
0.0051403
0.00509819
0.00503617
0.00495644
0.00486252
0.00475998
0.00465766
0.00457063
0.00452594
0.0045795
0.00487473
0.00595436
0.0124684
0.00544935
0.00555755
0.00564351
0.00570577
0.00574338
0.00575582
0.0057431
0.00570577
0.0056451
0.0055633
0.00546401
0.00535315
0.00524023
0.00514132
0.00508547
0.00513216
0.00543258
0.00655833
0.0134652
0.00605493
0.00619206
0.00630319
0.00638678
0.00644181
0.00646776
0.00646458
0.00643275
0.00637347
0.00628891
0.00618269
0.00606082
0.00593316
0.00581655
0.00574156
0.00577086
0.00606356
0.00722423
0.0145414
0.0067822
0.00695359
0.00709434
0.00720287
0.00727821
0.00731986
0.00732777
0.00730238
0.00724473
0.00715683
0.00704211
0.00690647
0.0067599
0.00661979
0.00651827
0.00652186
0.00680094
0.0080076
0.0158796
0.00765598
0.00786772
0.00804308
0.0081806
0.00827943
0.00833924
0.00836005
0.00834225
0.00828672
0.00819517
0.00807069
0.00791884
0.0077495
0.00758057
0.00744601
0.00741766
0.00768201
0.00895897
0.0176198
0.00870622
0.00896526
0.00918079
0.00935165
0.0094774
0.00955801
0.00959374
0.00958499
0.00953247
0.00943749
0.00930261
0.00913282
0.00893768
0.00873547
0.00856241
0.00849726
0.00874782
0.0101225
0.0198159
0.00996918
0.0102833
0.010545
0.0107538
0.0109099
0.0110141
0.011067
0.0110691
0.0110211
0.0109237
0.0107788
0.0105906
0.0103681
0.0101296
0.00991384
0.00980788
0.0100454
0.0115405
0.0224684
0.0114888
0.0118665
0.0121806
0.0124319
0.0126219
0.0127523
0.0128247
0.0128399
0.0127985
0.0127009
0.0125481
0.012343
0.0120937
0.0118184
0.011558
0.0114086
0.0116335
0.0132684
0.0256142
0.0133182
0.0137687
0.0141415
0.0144395
0.0146663
0.0148255
0.0149197
0.0149507
0.0149191
0.014825
0.0146683
0.0144509
0.0141792
0.0138706
0.0135676
0.0133758
0.0135915
0.0153901
0.0293665
0.0155225
0.0160552
0.0164925
0.0168406
0.0171065
0.0172962
0.0174145
0.0174642
0.0174465
0.0173612
0.0172077
0.0169864
0.0167019
0.0163701
0.0160346
0.0158099
0.0160305
0.0180442
0.0340788
0.0181814
0.0188054
0.0193116
0.0197118
0.0200175
0.0202387
0.0203826
0.020454
0.020455
0.020386
0.0202458
0.020034
0.0197538
0.0194192
0.0190739
0.0188416
0.0191019
0.0214266
0.0402451
0.0213937
0.0221167
0.0226939
0.0231454
0.0234895
0.0237411
0.0239111
0.0240068
0.024032
0.0239881
0.0238747
0.0236917
0.0234417
0.0231384
0.022826
0.0226374
0.0230044
0.0257827
0.048301
0.0252834
0.0261091
0.0267549
0.027253
0.0276306
0.0279092
0.028104
0.0282255
0.0282798
0.0282707
0.0281999
0.0280699
0.0278862
0.0276656
0.0274566
0.0274047
0.0280006
0.0314455
0.0587884
0.0300065
0.0309312
0.0316361
0.0321699
0.0325718
0.0328704
0.033086
0.0332326
0.0333194
0.0333536
0.0333414
0.0332912
0.0332176
0.033149
0.0331499
0.0333914
0.0344391
0.0389165
0.0727093
0.0357605
0.0367667
0.0375099
0.0380609
0.0384719
0.0387794
0.0390083
0.039176
0.0392953
0.0393775
0.0394358
0.0394895
0.0395702
0.0397341
0.0400874
0.0408663
0.0427646
0.0489523
0.0916866
0.042793
0.0438409
0.0445865
0.0451263
0.0455251
0.0458256
0.0460562
0.0462367
0.0463828
0.0465107
0.0466418
0.0468103
0.0470749
0.0475408
0.0484023
0.0500507
0.0534712
0.0626943
0.118607
0.0514084
0.052426
0.0531203
0.0536105
0.0539698
0.0542431
0.0544595
0.0546392
0.0547994
0.0549599
0.0551497
0.0554185
0.0558575
0.0566393
0.0581034
0.060954
0.0668704
0.0817382
0.159339
0.0619666
0.0628439
0.0634168
0.0638123
0.0641011
0.0643241
0.0645066
0.0646664
0.0648197
0.0649869
0.0652
0.0655178
0.0660545
0.0670443
0.0689933
0.0730737
0.0823487
0.107375
0.22775
0.0748678
0.0754677
0.0758441
0.0761003
0.0762884
0.0764371
0.0765633
0.0766794
0.0767973
0.0769329
0.0771133
0.0773897
0.0778677
0.0787807
0.0806896
0.0850958
0.096713
0.135339
0.351557
0.0905258
0.0907283
0.0908518
0.0909359
0.090999
0.0910508
0.0910971
0.0911421
0.0911905
0.0912489
0.0913287
0.0914523
0.0916672
0.0920839
0.0929971
0.0953418
0.102922
0.139248
0.580518
)
;

boundaryField
{
    leftWall
    {
        type            epsilonWallFunction;
        value           nonuniform List<scalar> 
50
(
0.000197662
0.000404396
0.000687501
0.000966066
0.00123463
0.00149704
0.00176023
0.00203355
0.00242497
0.00300857
0.00366994
0.00462977
0.00603769
0.00638883
0.00749699
0.00747833
0.00176922
0.0017653
0.00747155
0.00176807
0.00176608
0.00748491
0.00747514
0.0017658
0.00747202
0.00176526
0.0074833
0.00748137
0.00176612
0.0074729
0.00176691
0.00176762
0.00746478
0.00749442
0.0074841
0.00750984
0.00750337
0.00752968
0.00761359
0.00767871
0.00771779
0.00771136
0.00764862
0.0075169
0.007486
0.00749743
0.00749118
0.0158648
0.152469
1.53784
)
;
    }
    rightWall
    {
        type            epsilonWallFunction;
        value           nonuniform List<scalar> 
50
(
0.000319542
0.000378755
0.000530953
0.000697723
0.000883821
0.00110378
0.00136295
0.00166273
0.00208987
0.00258821
0.00281782
0.00309996
0.00362533
0.0042548
0.00489514
0.0052204
0.00509427
0.00489842
0.00115907
0.00115881
0.00115915
0.0011365
0.00115003
0.00490484
0.00115074
0.00524122
0.00650621
0.00796501
0.00962506
0.0112425
0.0124684
0.0134652
0.0145414
0.0158796
0.0176198
0.0198159
0.0224684
0.0256142
0.0293665
0.0340788
0.0402451
0.048301
0.0587884
0.0727093
0.0916866
0.118607
0.159339
0.22775
0.351557
0.580518
)
;
    }
    lowerWall
    {
        type            epsilonWallFunction;
        value           nonuniform List<scalar> 
62
(
0.000197662
0.00106185
0.00189164
0.00263588
0.003301
0.0038973
0.004435
0.00492057
0.00535566
0.00574046
0.0060818
0.00639327
0.00668181
0.00692801
0.00706546
0.00695289
0.00641901
0.00557727
0.00460043
0.0036682
0.00293413
0.00194854
0.000612161
0.000612161
0.000987713
0.00164677
0.00241339
0.00337773
0.00465256
0.00651793
0.010554
0.0128791
0.00970957
0.00922734
0.0112632
0.000746945
0.000789439
0.00111524
0.00159573
0.00223214
0.00309174
0.00451662
0.00804736
0.000746945
0.00274698
0.00427476
0.00510764
0.00559335
0.00582292
0.00604984
0.0062595
0.00618141
0.00536301
0.00422547
0.00314686
0.00236853
0.00256977
0.00316965
0.00305453
0.00202211
0.00116324
0.000319542
)
;
    }
    atmosphere
    {
        type            inletOutlet;
        inletValue      uniform 0.1;
        value           nonuniform List<scalar> 
46
(
0.1
0.126321
0.0188695
0.00748734
0.0053578
0.0049037
0.00499771
0.00538329
0.00599237
0.00681762
0.00787935
0.00921562
0.0108805
0.0129472
0.0155172
0.0187375
0.0228294
0.0281402
0.0352343
0.0450829
0.0595009
0.1
0.1
0.1
0.1
0.1
0.1
0.1
0.1
0.1
0.1
0.1
0.1
0.1
0.1
0.1
0.1
0.1
0.1
0.1
0.1
0.1
0.1
0.1
0.1
0.580518
)
;
    }
    defaultFaces
    {
        type            empty;
    }
}


// ************************************************************************* //
