/*--------------------------------*- C++ -*----------------------------------*\
  =========                 |
  \\      /  F ield         | OpenFOAM: The Open Source CFD Toolbox
   \\    /   O peration     | Website:  https://openfoam.org
    \\  /    A nd           | Version:  9
     \\/     M anipulation  |
\*---------------------------------------------------------------------------*/
FoamFile
{
    format      ascii;
    class       volVectorField;
    location    "18.65";
    object      U;
}
// * * * * * * * * * * * * * * * * * * * * * * * * * * * * * * * * * * * * * //

dimensions      [0 1 -1 0 0 0 0];

internalField   nonuniform List<vector> 
918
(
(2.47629 -0.138943 0)
(0.108704 0.722546 0)
(0.172529 1.06936 0)
(2.31834 0.153728 0)
(-0.0595795 1.25656 -1.21203e-19)
(-0.0924034 0.643931 -5.31575e-18)
(0.527248 0.845024 -2.96661e-19)
(0.274607 0.153004 -2.98881e-20)
(3.00615 -0.0195614 0)
(-0.00834664 0.475725 0)
(-0.0175389 0.590407 0)
(0.605339 0.00675128 0)
(0.0107054 0.439105 0)
(-0.00288339 0.42169 0)
(0.0135314 0.341062 -1.30603e-18)
(-0.00521535 0.763213 -9.18287e-20)
(0.312611 0.0743091 2.15184e-18)
(0.0791646 0.639195 -2.24181e-19)
(1.52885 0.128627 0)
(-0.0274605 0.690841 0)
(0.194854 0.157869 -1.26619e-18)
(3.08302 -0.397374 0)
(2.92445 -0.505981 0)
(1.86116 -0.1811 0)
(0.511589 0.0400898 0)
(-0.0253678 0.521562 0)
(-0.00135316 0.494038 1.86319e-18)
(-0.0236933 1.4159 0)
(0.0726698 2.91128 0)
(0.168328 1.75659 0)
(-0.0410036 3.13814 0)
(0.0261783 1.62336 9.31907e-20)
(0.0225804 0.680197 0)
(-0.147424 0.775093 -2.03163e-22)
(-0.193914 1.0291 4.42284e-18)
(-0.0415772 1.04471 0)
(0.744543 -0.00600959 0)
(0.16158 0.247132 6.66137e-19)
(0.988597 1.50554 6.54664e-19)
(0.646784 0.78038 -5.17321e-19)
(0.7946 1.56636 6.23187e-20)
(0.414411 0.846341 -3.21865e-19)
(0.553001 0.306941 2.93945e-20)
(0.297251 0.153776 0)
(0.960582 0.564904 0)
(0.533393 0.304338 1.32041e-19)
(0.258309 0.162971 -1.35493e-19)
(0.871585 -0.0554807 0)
(3.02784 -0.00170613 0)
(3.00685 0.017865 0)
(3.20086 -0.417735 0)
(3.04288 -0.0742132 0)
(3.03116 -0.0388415 0)
(0.0184682 0.908191 -1.14682e-18)
(-0.0541841 0.970852 0)
(0.00266783 0.453345 0)
(-0.0289461 0.978364 0)
(-0.011512 0.480206 0)
(-0.00171444 0.870528 0)
(-0.0523771 1.11199 0)
(-0.0127887 0.542 0)
(-0.0258012 1.16503 0)
(-0.00628479 0.623557 0)
(0.79034 0.0116037 0)
(1.16964 -0.00158065 0)
(0.618346 0.0123619 0)
(1.12606 0.0175943 0)
(0.569905 0.00866911 0)
(0.225406 0.921982 1.96051e-18)
(0.0985378 1.2081 0)
(0.176302 1.06604 0)
(0.0331901 0.755774 2.20015e-23)
(0.0372233 0.498055 -2.9321e-18)
(0.0194616 0.747943 0)
(0.0059542 0.422033 0)
(-0.000696214 0.734549 4.51951e-24)
(0.000702254 0.414825 0)
(-0.016924 0.743184 0)
(-0.0129404 0.427985 0)
(0.0496945 0.65068 0)
(0.0486736 0.458884 0)
(0.00812383 0.622261 1.23483e-18)
(0.000802985 0.344969 0)
(-0.0761441 4.68316 0)
(0.0081257 1.44901 9.11668e-20)
(-0.0106678 0.781208 -1.174e-19)
(0.636574 0.152257 -7.50833e-19)
(0.321813 0.0657113 -7.2858e-19)
(0.645345 0.169867 -2.25436e-18)
(0.317768 0.0956404 -1.45143e-18)
(0.0791232 0.622623 0)
(0.177159 1.30673 1.86074e-19)
(0.178536 0.726102 -2.96899e-19)
(2.06032 0.260942 0)
(1.10705 0.118448 0)
(3.03313 0.103886 0)
(3.10392 0.446058 0)
(2.83919 0.377457 -1.01257e-17)
(2.57811 0.361309 7.76966e-18)
(-0.0714554 1.27231 0)
(-0.0116356 0.627547 0)
(-0.0157824 1.9204 0)
(-0.0517687 1.35893 0)
(-0.0488598 0.685474 0)
(0.440935 0.29612 4.00854e-19)
(0.225733 0.163571 0)
(2.29609 -0.266396 0)
(1.32372 -0.119275 0)
(1.07666 0.0126449 0)
(1.01239 0.0187505 0)
(0.541098 0.0108295 0)
(1.01933 0.056316 0)
(0.821576 0.0703602 0)
(0.343759 0.0287048 3.36218e-18)
(-0.00544032 0.451585 1.77444e-18)
(-0.0270414 0.784642 0)
(-0.0473518 0.847555 0)
(-0.0152813 0.460458 0)
(0.000132345 0.839725 1.81676e-18)
(7.2825e-05 0.48753 0)
(-0.00547892 0.845554 -5.59265e-18)
(-0.00488634 0.496761 1.88711e-18)
(0.0501076 3.59226 0)
(0.0374586 4.04729 0)
(-0.0166269 1.39983 -2.05204e-21)
(-0.0139084 1.35142 0)
(-0.0100155 0.735448 0)
(1.4101 0.0348717 0)
(0.760497 0.0154289 0)
(0.709549 0.0142608 0)
(1.41613 -0.0328559 0)
(0.773489 -0.00874492 0)
(0.323245 0.482016 -8.36368e-19)
(0.157308 0.233418 0)
(0.32625 0.511124 9.37393e-20)
(0.164005 0.269434 0)
(1.23575 1.38001 1.66844e-19)
(0.775764 0.737539 -3.93146e-19)
(0.409499 1.41398 0)
(0.603467 1.52528 0)
(0.301698 0.810231 0)
(0.146169 0.355273 -4.43575e-19)
(0.608006 0.281019 0)
(0.31377 0.134732 3.98818e-19)
(1.42265 1.30125 0)
(1.58253 1.16462 0)
(0.872317 0.661492 4.62318e-19)
(1.7302 0.950571 0)
(1.06651 0.437711 2.31736e-20)
(1.47294 0.00813038 0)
(1.50097 -0.0292441 0)
(0.801878 -0.00441967 0)
(1.95041 -0.199782 0)
(1.6508 -0.148184 0)
(1.05215 -0.0889715 0)
(3.06126 0.164852 0)
(3.03105 0.068786 0)
(3.01022 0.0531584 0)
(0.0351271 1.6153 6.08556e-19)
(0.017693 0.832605 0)
(0.0177163 1.70568 1.08017e-18)
(0.00283008 0.943747 -9.71034e-19)
(0.0643302 1.1465 1.88827e-19)
(0.0475378 0.984679 0)
(0.0398382 0.526403 0)
(-0.0288809 1.00314 0)
(-0.00717998 0.516599 0)
(0.0172555 1.61791 -4.42658e-21)
(-0.0186241 0.867867 0)
(-0.054222 1.58478 -2.25336e-19)
(-0.0165074 0.820785 4.36334e-19)
(-0.0021661 1.02848 0)
(0.00987847 1.04376 0)
(-0.000218299 0.531143 0)
(0.00997511 1.17529 0)
(0.000478044 0.615091 0)
(1.46801 -0.00375488 0)
(0.789032 0.0080334 0)
(1.44033 0.0331406 0)
(0.761693 -0.000568051 0)
(0.675445 0.00533627 0)
(1.26209 0.0166676 0)
(1.20256 0.0473 0)
(0.659772 0.0155468 0)
(-0.00580055 1.42077 -1.70278e-20)
(0.000184309 1.37708 0)
(0.00482011 0.732923 0)
(0.00172892 0.417221 0)
(0.28529 0.830399 0)
(0.254314 0.400668 -2.87272e-19)
(-0.00216275 0.635468 0)
(-0.00887753 0.367597 0)
(0.00392267 4.35202 0)
(-0.0566072 4.66183 0)
(-0.0267479 4.57306 0)
(-0.0756956 3.34382 2.04786e-20)
(-0.0669373 4.58868 0)
(-0.0585977 4.15858 0)
(0.00430137 0.81636 1.07283e-20)
(0.0136412 1.55652 1.65025e-19)
(-0.0360009 1.49562 1.20622e-19)
(-0.0078333 0.822277 0)
(0.664871 0.105773 1.15307e-18)
(0.325862 0.0441734 -1.13003e-18)
(0.150702 1.14124 0)
(0.101713 0.577204 -2.69782e-19)
(0.119278 1.24197 -8.75982e-19)
(0.0523251 0.692075 8.71477e-19)
(0.80922 0.0240595 0)
(1.5568 0.0476729 0)
(1.70971 0.127649 0)
(0.919856 0.0445204 0)
(0.00720537 1.18819 0)
(0.0252085 1.19776 0)
(0.00408768 0.631419 0)
(0.482896 0.315587 1.2039e-18)
(0.437548 0.309615 -1.38711e-18)
(0.235085 0.164396 0)
(1.93426 0.152691 1.15206e-19)
(1.13558 0.0930736 0)
(1.72352 0.118323 0)
(0.883353 0.0226394 0)
(0.678556 0.0857644 0)
(0.70005 0.0460796 -5.40627e-18)
(0.346877 0.0326013 1.99857e-18)
(0.00913735 0.807269 1.69452e-18)
(0.00221966 0.462504 4.08163e-20)
(-0.0108777 1.40842 -3.58146e-20)
(0.00613615 1.38675 1.3664e-18)
(-0.0149832 0.848955 6.29687e-20)
(-0.0119261 0.524486 -2.53004e-22)
(-0.107514 1.00068 -1.16531e-18)
(-0.0529602 1.3532 8.34303e-19)
(-0.0175323 1.35275 -1.35829e-18)
(1.42257 -0.0171016 0)
(1.44224 0.0202983 0)
(0.769796 -0.00019039 0)
(1.45222 0.0253769 0)
(1.36325 0.0462247 0)
(0.761566 0.0203029 0)
(1.30072 -0.00216394 0)
(1.31875 -0.00586 0)
(0.695103 -0.000994382 0)
(0.30584 0.474923 -9.15818e-19)
(0.161843 0.243378 0)
(0.157898 0.309743 1.37129e-19)
(0.311038 0.588477 1.12356e-18)
(0.30871 0.550845 -6.6513e-19)
(0.157478 0.283002 1.29969e-18)
(0.280115 0.721836 2.18517e-18)
(0.149158 0.382971 3.94349e-19)
(0.636665 0.213314 1.53735e-18)
(0.626612 0.253865 3.99292e-19)
(0.316851 0.115124 7.49237e-19)
(1.91813 0.712899 -5.99801e-19)
(1.16604 0.335391 -7.0194e-19)
(-0.0356963 1.71164 4.64228e-19)
(-0.0118731 0.929274 0)
(1.60329 0.0238344 0)
(1.52149 0.0653109 0)
(0.852676 0.0268098 0)
(-0.00355887 1.38473 0)
(0.00507403 0.729574 2.4962e-18)
(0.00465031 0.731252 0)
(0.00207075 0.415097 -2.44322e-18)
(-0.0102755 1.38627 5.9592e-19)
(-0.00947285 1.4225 0)
(0.337573 0.489572 2.58104e-19)
(0.361045 0.547861 -8.63463e-19)
(0.172325 0.258508 7.81541e-19)
(-0.0256798 0.767433 -1.66349e-18)
(-0.026147 0.689702 0)
(-0.0154349 0.41291 0)
(0.0294812 1.54638 -1.27655e-20)
(0.0306214 1.57673 -3.63898e-19)
(0.0174617 0.821156 -1.55539e-20)
(0.214911 1.05094 8.91757e-19)
(0.120441 0.51219 -5.93421e-19)
(0.011766 1.4948 7.316e-19)
(0.0560854 1.36037 -8.16679e-19)
(0.0268911 0.765645 3.54848e-20)
(0.00750745 1.36614 -3.80937e-18)
(-0.000219757 1.39326 4.41147e-18)
(0.00377266 0.829775 1.73371e-18)
(-0.0138323 0.805091 -1.72622e-18)
(-0.00430987 0.481398 -1.73935e-18)
(-0.0106522 1.41685 -4.50182e-18)
(-0.0152195 1.40032 4.59105e-18)
(0.288013 0.678394 0)
(0.301342 0.637697 -2.29094e-18)
(0.152745 0.333312 9.91792e-19)
(0.283089 0.80076 1.18722e-18)
(0.139729 0.430112 -1.83184e-18)
(2.05517 0.321986 4.15744e-19)
(2.04906 0.546615 0)
(1.2174 0.220598 -4.01737e-19)
(-0.0744941 1.63988 -4.79716e-21)
(-0.0150376 1.69716 0)
(-0.0161576 0.925232 0)
(0.228498 0.950552 -3.23371e-19)
(0.249833 0.872018 -7.08211e-19)
(0.129623 0.466173 1.3272e-18)
(3.16442 -0.442875 0)
(3.34728 -0.414688 1.81244e-18)
(0.057567 3.50573 0)
(0.0459553 2.83132 0)
(3.15926 0.249912 1.41915e-20)
(3.12355 0.506292 3.71138e-18)
(0.019646 3.41023 -2.7484e-20)
(0.00805861 2.64412 0)
(-0.0416011 1.19605 1.55587e-18)
(0.190892 1.3177 0)
(3.46833 1.62176 -3.24776e-19)
(3.17428 0.272563 -2.96101e-20)
(3.14836 -0.118711 0)
(3.10047 -0.000408459 3.72691e-22)
(0.042406 2.57834 0)
(0.157153 3.31844 0)
(-0.057169 2.53334 0)
(-0.0263257 3.49474 3.15635e-19)
(-0.028745 3.56874 1.99181e-19)
(2.63382 0.0487405 -1.36459e-20)
(3.04721 0.0310473 0)
(3.15736 0.0866579 0)
(-0.059274 4.61618 0)
(-0.0488321 3.06872 0)
(-0.0751497 2.95025 0)
(0.648681 3.08891 2.66438e-19)
(3.33884 -0.422465 0)
(3.01139 -0.345814 0)
(3.1699 -0.0530423 2.27674e-18)
(3.2927 -0.328704 -2.74146e-18)
(3.1038 -0.12578 0)
(-0.0657655 4.52059 0)
(0.00968661 3.95321 0)
(0.000770555 4.27824 0)
(-0.0305241 3.1123 0)
(-0.0161889 2.87189 0)
(-0.0330854 2.44491 0)
(2.97413 -0.0032051 0)
(2.85052 0.0485972 -1.80495e-20)
(2.23972 3.03782 -3.22465e-19)
(3.15695 0.0444499 -2.27781e-18)
(3.19037 0.278175 2.7688e-18)
(3.0828 0.117335 0)
(3.3954 0.328913 2.08683e-18)
(3.35696 0.484361 -2.706e-18)
(3.07112 0.418425 0)
(-0.0576214 3.33048 0)
(0.00352223 3.25607 8.52665e-20)
(-0.0317264 2.55763 -6.0377e-20)
(3.70605 0.554392 2.26502e-18)
(3.46998 0.208083 0)
(-0.151842 1.2713 -2.16712e-18)
(-0.0622537 0.882164 -1.35111e-19)
(-0.0845067 1.3369 2.98725e-18)
(-0.0350494 1.27056 -9.00114e-19)
(-0.000306585 1.08856 0)
(-0.0266785 1.23952 6.9523e-19)
(-0.11501 1.38787 2.14772e-18)
(-0.0590168 1.34056 -1.31484e-18)
(-0.0767677 1.32063 0)
(1.29124 0.597931 0)
(1.17957 0.683444 0)
(3.55307 2.02549 9.53629e-19)
(3.04429 1.93123 -1.19076e-18)
(3.83535 1.70358 0)
(3.3802 1.15472 0)
(3.34936 0.28048 -3.91593e-18)
(2.89886 0.173109 4.83865e-18)
(3.35142 -0.155499 0)
(2.85474 -0.0761504 0)
(3.43642 0.043009 0)
(3.59381 0.145039 0)
(3.28683 0.119866 0)
(3.55033 0.298566 0)
(3.40841 0.29305 0)
(3.32755 0.218064 0)
(0.0955581 2.78021 0)
(0.0337484 2.07118 0)
(0.123948 3.03871 0)
(0.0913604 2.1941 0)
(0.214001 3.6113 0)
(0.140394 2.69074 -5.59234e-19)
(0.0517279 3.62725 0)
(0.0106429 3.03186 4.05793e-19)
(-0.0265462 3.21529 -5.16835e-19)
(-0.0620692 2.80004 0)
(-0.0246402 2.20437 0)
(-0.0752636 2.90468 0)
(-0.0565727 2.0478 0)
(-0.114008 4.75008 -2.45353e-19)
(-0.0843814 3.94111 2.77129e-19)
(-0.0781805 3.80646 3.08826e-19)
(-0.0542819 3.01995 0)
(-0.108802 3.80134 -4.58399e-19)
(-0.0397921 3.21097 -2.94783e-19)
(-0.0886105 4.78198 1.92422e-19)
(-0.10069 4.46443 -3.50284e-19)
(-0.0747048 4.33656 -3.78633e-19)
(3.0317 0.088257 3.35766e-18)
(2.28988 0.0321453 -4.2286e-18)
(2.89177 0.132719 -3.32659e-18)
(2.21008 0.0734332 4.15511e-18)
(3.36836 0.0275915 0)
(2.64284 -0.00268965 0)
(3.45375 0.0911244 0)
(3.31994 0.0191482 0)
(2.70622 0.00914453 0)
(3.67963 0.239161 0)
(3.4383 0.0957203 0)
(2.86284 0.0563452 0)
(-0.0286341 4.31593 -1.20595e-20)
(-0.0629383 4.64776 0)
(-0.0685122 4.53491 0)
(-0.0790267 3.49068 8.77063e-20)
(-0.0389528 2.76667 -3.46212e-21)
(-0.0883012 4.66758 1.13766e-19)
(-0.101391 4.46273 -1.14963e-19)
(-0.0839724 3.96679 0)
(-0.0619195 3.89037 0)
(-0.026801 4.00708 0)
(-0.0752026 3.27022 0)
(-0.0441713 2.31325 0)
(0.944082 3.64386 -6.09686e-19)
(0.915788 2.83709 -1.76764e-19)
(0.433406 2.06582 -2.28619e-19)
(0.253962 2.31421 6.9818e-19)
(1.026 4.20979 2.63794e-19)
(3.43307 -0.16744 0)
(3.32213 -0.256557 0)
(2.88326 -0.189521 0)
(3.47032 -0.0643622 0)
(3.34581 -0.147873 0)
(3.44893 -0.261032 0)
(3.5195 -0.283611 0)
(3.57949 -0.281144 0)
(3.22422 0.0933449 3.61797e-18)
(2.55527 0.0644999 -4.57488e-18)
(3.09661 0.106529 -3.56142e-18)
(2.50924 0.0566444 4.43139e-18)
(2.23511 3.40532 0)
(1.73207 2.934 -4.4644e-19)
(2.56328 3.34029 -4.03619e-19)
(2.36158 2.51989 5.36393e-19)
(0.777735 1.21747 2.72422e-18)
(1.44767 0.21652 1.34285e-18)
(3.72164 0.303671 0)
(3.89198 0.571894 -1.8456e-18)
(3.29753 0.243518 -8.23162e-20)
(3.72169 0.439602 0)
(0.238126 1.31303 1.7971e-18)
(-0.0159694 1.20226 -2.87789e-18)
(0.0594728 0.770159 1.61543e-18)
(0.276853 0.465351 -7.48246e-19)
(0.188133 1.38491 8.71487e-19)
(0.0510989 1.23763 0)
(0.0580746 1.0868 -1.13292e-18)
(0.192875 1.44382 -4.09442e-18)
(0.330675 1.5583 0)
(0.00865799 1.29019 1.19643e-19)
(-0.00973121 1.45729 -1.34085e-18)
(-0.0410301 1.30283 1.94931e-18)
(-0.0574727 1.41766 0)
(-0.0205011 1.38226 0)
(0.683355 1.05299 0)
(2.46329 2.45806 -1.0663e-18)
(2.63724 2.16657 3.95324e-19)
(2.78783 2.87515 0)
(3.21124 3.06092 -3.94407e-19)
(3.16164 2.40611 2.84073e-20)
(0.805543 0.590667 -1.82308e-18)
(1.55812 0.692158 -1.62364e-20)
(1.23441 0.451461 8.72078e-19)
(1.27764 0.845008 5.95146e-20)
(0.940681 0.63495 -2.36995e-18)
(1.46656 0.715047 0)
(1.99355 1.10092 1.45593e-18)
(2.03546 1.01679 0)
(1.41441 0.791777 0)
(1.06361 0.550401 0)
(3.3789 2.1792 1.00798e-18)
(3.94604 0.759623 -1.86281e-18)
(3.84579 1.21415 0)
(3.53099 0.756479 0)
(1.39269 0.365012 1.33227e-18)
(3.26191 1.84234 -8.51363e-19)
(2.83894 1.65514 1.54649e-18)
(3.75717 1.37617 -1.83516e-18)
(3.09799 0.114727 2.46329e-18)
(3.16859 0.180797 -2.57825e-18)
(2.66188 0.0916303 0)
(3.30723 -0.0395423 0)
(3.20136 -0.084283 -2.36587e-18)
(2.63236 -0.032124 2.34503e-18)
(3.95632 0.0931168 0)
(3.75975 0.145588 0)
(3.6937 0.15535 0)
(3.58831 0.204725 0)
(3.83261 0.0589948 0)
(3.7261 0.052225 0)
(-0.0419099 2.50499 0)
(-0.0388213 2.00654 0)
(0.353017 3.97516 -4.10729e-19)
(0.658496 3.31655 -1.60239e-19)
(0.256537 3.01292 -3.58402e-19)
(0.341148 2.53394 5.7414e-19)
(0.454211 4.00102 0)
(0.467157 4.66851 -5.09504e-19)
(0.381199 4.72611 0)
(0.912793 4.38298 -3.79463e-19)
(0.676386 3.83091 9.69326e-19)
(0.595268 4.6472 4.46526e-19)
(0.73738 4.18803 -1.87463e-19)
(0.598654 4.3138 1.50812e-19)
(0.914449 4.65 -6.6331e-19)
(0.746648 4.66051 0)
(0.858075 4.58693 5.04357e-19)
(0.0018776 4.57795 -1.81049e-19)
(-0.0215516 3.65898 0)
(0.0975594 4.29666 5.49198e-19)
(-0.00678441 4.39933 0)
(-0.00585751 3.47348 -4.5124e-19)
(-0.0167021 2.92627 0)
(-0.106687 4.30396 -2.89113e-19)
(-0.112988 4.67878 0)
(-0.0574287 3.80016 0)
(-0.0448697 3.72378 3.25134e-19)
(-0.0513881 3.894 1.03553e-20)
(-0.0383298 3.71884 6.25607e-19)
(-0.0429874 2.95776 4.0649e-21)
(-0.121739 4.7089 1.80081e-19)
(-0.110956 4.74075 1.03128e-19)
(-0.0192836 2.62857 0)
(-0.000384153 2.14174 0)
(-0.0478456 4.78794 4.85686e-19)
(-0.0539883 4.30247 4.23289e-19)
(-0.0893717 4.58069 -5.53391e-19)
(0.0108173 4.75475 0)
(-0.0855813 4.52656 -3.08671e-19)
(-0.123779 4.15648 1.27426e-19)
(-0.0905093 4.24135 -4.1274e-20)
(-0.078533 4.72691 -2.18758e-19)
(-0.091951 4.26508 -6.84774e-20)
(-0.0896521 4.21178 3.0638e-19)
(2.87161 0.0609682 -2.3629e-18)
(2.85914 0.0496266 2.27237e-18)
(2.3388 0.0345224 0)
(3.51068 0.191766 3.04562e-18)
(2.70432 0.126433 -3.30382e-18)
(2.25512 0.0644053 3.60857e-18)
(3.68319 0.334958 -4.01519e-19)
(3.20979 -0.0485737 0)
(3.17197 -0.0136279 2.23643e-18)
(2.69076 -0.0124085 -2.2188e-18)
(3.87842 0.121954 -1.25204e-19)
(3.77152 0.101647 1.07804e-18)
(4.15955 0.173099 0)
(4.22835 0.180752 -3.75026e-19)
(4.01388 0.144971 0)
(3.69519 0.155214 0)
(4.03233 0.0949777 0)
(3.71188 0.08724 0)
(4.18472 0.113625 7.85276e-19)
(4.13725 0.0789348 -1.74743e-18)
(4.14054 0.113639 -8.47778e-19)
(4.1863 0.116267 -9.2423e-19)
(4.21549 0.228557 1.77356e-18)
(3.85439 0.188325 0)
(4.0608 0.30131 0)
(-0.080328 4.57101 -1.35929e-19)
(-0.0378017 4.63617 -1.16973e-20)
(-0.0731857 4.65557 0)
(-0.0613002 4.18375 1.3835e-19)
(-0.0592504 4.20832 2.25548e-20)
(-0.0629141 4.07393 -2.18866e-20)
(-0.0834815 3.5216 2.60908e-19)
(-0.148898 3.99817 -1.45051e-20)
(-0.108275 4.12849 7.46981e-20)
(-0.0773915 3.39343 -1.32209e-19)
(-0.0264381 2.91756 1.58325e-19)
(-0.0829233 4.43478 5.19285e-21)
(-0.0968291 4.64183 1.71911e-19)
(1.24107 4.34637 3.47641e-19)
(1.15783 4.52071 7.25148e-19)
(1.73065 3.45192 4.31696e-19)
(1.30259 3.54308 1.69923e-19)
(1.2793 2.87413 0)
(0.552235 2.33291 2.753e-19)
(0.46644 1.75232 3.31281e-19)
(0.347086 2.58366 1.52461e-20)
(0.494917 3.19233 -1.16173e-18)
(0.636327 3.14978 8.77584e-19)
(0.435756 2.41935 0)
(0.295775 1.98501 -5.58198e-19)
(0.260292 3.0947 1.3964e-18)
(0.274234 2.73564 -3.16285e-20)
(0.15852 2.29102 -1.75049e-18)
(0.595003 1.4185 1.46536e-18)
(0.580205 1.62634 0)
(3.58364 -0.075168 8.64142e-20)
(3.61861 -0.254117 -7.25806e-20)
(3.72134 -0.217736 -1.26626e-18)
(3.75926 -0.126046 1.28214e-18)
(3.67616 -0.0488825 0)
(2.4454 3.86413 0)
(2.6191 3.90959 0)
(2.8898 3.61931 0)
(2.73844 3.63879 0)
(0.857952 1.39966 -3.32552e-21)
(0.61415 1.04314 0)
(1.71805 3.39485 1.50263e-20)
(1.42793 3.47429 0)
(1.3344 2.96349 -1.28498e-18)
(1.4151 2.90419 8.25171e-19)
(1.79246 0.310502 0)
(1.43147 0.262133 3.51999e-19)
(2.4129 0.358814 2.19123e-18)
(1.78713 0.284842 -7.85259e-19)
(1.42709 0.112199 -2.49438e-18)
(4.26614 0.788947 -2.56459e-18)
(3.85367 0.994345 -3.66925e-20)
(3.29922 0.844189 2.06722e-18)
(3.87719 0.744759 1.81272e-18)
(3.1245 0.465459 -3.04418e-18)
(2.91172 0.452015 3.74889e-19)
(3.19443 0.682172 -8.18486e-19)
(2.97787 0.683111 0)
(3.75993 0.563446 1.53719e-18)
(4.09651 0.628613 0)
(4.09211 0.7755 0)
(4.0451 0.415262 8.23435e-19)
(4.29646 0.641659 -3.02698e-20)
(4.24861 0.714695 -4.52733e-19)
(4.17572 0.642117 0)
(3.61606 0.130186 1.71767e-18)
(4.19007 0.183193 2.14354e-18)
(4.09087 0.151358 -1.67892e-18)
(4.1368 0.240431 -1.44241e-18)
(3.74619 0.237878 -2.15574e-18)
(3.30404 0.375757 0)
(3.40421 0.302106 0)
(2.55896 0.190555 -1.2657e-18)
(2.10933 0.119067 4.76639e-19)
(4.0376 0.352178 1.93972e-18)
(4.28751 0.432106 -2.34583e-18)
(4.28512 0.488705 2.0683e-18)
(4.15756 0.492743 0)
(4.25647 0.336619 0)
(4.26628 0.322031 -9.81427e-19)
(4.21437 0.315648 -1.596e-18)
(2.23446 3.49195 6.2032e-19)
(1.94608 3.23832 -6.83537e-19)
(1.45243 2.36292 -1.03249e-18)
(1.19136 2.00204 2.66989e-19)
(0.887555 1.38308 -2.63067e-18)
(0.796593 1.21928 9.22671e-19)
(0.602967 0.906952 -1.92184e-21)
(1.11916 1.79024 -1.13854e-18)
(1.14693 1.88812 1.69964e-18)
(0.978044 1.70466 5.06339e-19)
(0.788634 1.29223 -5.1296e-19)
(0.637326 1.07716 0)
(2.45265 2.61004 -1.15421e-19)
(0.708115 1.14578 8.57702e-19)
(0.930502 0.891856 1.15663e-18)
(0.757673 0.815252 1.33846e-18)
(1.08553 0.747998 1.34148e-18)
(1.47059 1.04645 -2.27082e-18)
(1.38662 1.07357 1.83991e-18)
(1.00427 0.76727 -6.77004e-19)
(0.81877 0.569157 1.4951e-18)
(1.61723 0.491161 -7.77995e-19)
(1.56089 0.508852 0)
(1.24089 0.407725 4.6262e-21)
(2.51403 1.51733 7.75572e-19)
(2.08415 1.27183 -2.80868e-18)
(1.69075 1.18657 9.16662e-21)
(1.66443 1.09408 0)
(2.86799 2.59627 8.73558e-19)
(3.44843 2.75004 1.03682e-18)
(3.25798 2.92906 -1.19521e-18)
(3.55427 2.7601 -4.28118e-19)
(3.48237 2.59809 -1.34838e-19)
(3.51145 2.79 1.38713e-19)
(3.67692 2.26468 -1.67868e-18)
(3.70524 2.48959 4.007e-19)
(3.78266 2.43194 0)
(3.78299 2.18777 -5.79486e-19)
(4.0498 1.07233 5.8035e-19)
(4.27548 0.991751 1.00185e-18)
(4.30022 0.965453 1.01133e-18)
(4.05586 1.32793 -1.14924e-18)
(4.10221 1.34765 0)
(4.15161 1.23166 0)
(3.33064 1.23547 -1.5552e-20)
(2.4202 0.666749 0)
(2.72433 0.744117 9.30476e-19)
(3.24068 0.885548 -2.64103e-20)
(3.77499 1.53369 5.10559e-18)
(3.57263 1.76109 1.31064e-18)
(3.48398 1.54008 -1.34031e-18)
(3.04112 1.37 1.43706e-18)
(2.76473 1.37028 8.23672e-19)
(2.31039 1.15693 -7.97711e-19)
(3.67217 -0.085587 1.98414e-18)
(3.89469 -0.0289793 0)
(3.85894 -0.0665931 1.34174e-18)
(3.7429 -0.0594507 -2.98702e-18)
(3.98056 0.0373138 1.4616e-18)
(3.90446 0.113366 -3.08217e-18)
(3.73988 0.127971 0)
(3.55629 0.173433 -6.28388e-19)
(3.81198 0.122943 1.60488e-18)
(3.69197 0.19135 -8.22355e-19)
(3.60032 0.171046 5.90567e-19)
(-0.0823027 2.58821 0)
(-0.0505119 3.39245 0)
(-0.0335403 2.45703 0)
(-0.0226546 1.96786 0)
(0.0422908 3.9305 6.70137e-19)
(0.136915 3.71032 -1.72948e-19)
(0.313564 4.6373 -2.29487e-19)
(0.248693 4.44895 2.42283e-19)
(-0.0302217 4.28655 -4.97119e-19)
(0.00698 4.31849 3.73314e-19)
(0.0916321 3.85894 2.23724e-20)
(0.00629212 3.54667 -4.66849e-19)
(-0.0154642 3.30087 -6.22337e-20)
(-0.0433598 3.66348 -5.66913e-20)
(0.149879 4.48357 -5.86533e-19)
(0.175848 4.29996 0)
(0.272453 4.64035 2.96257e-19)
(0.26468 4.70949 2.52938e-19)
(0.594854 4.45109 -2.25877e-19)
(0.409505 3.79891 0)
(0.458807 3.64529 -1.11575e-18)
(0.562751 4.01421 7.9057e-19)
(0.478859 4.56737 -6.14631e-19)
(0.368618 4.44263 3.30668e-19)
(0.299027 4.17084 0)
(-0.040991 4.76266 -5.5262e-19)
(-0.079898 4.53227 -6.41125e-19)
(-0.0817774 4.74187 0)
(-0.0334931 4.36748 -6.24351e-21)
(-0.02396 4.64665 2.73983e-19)
(-0.123719 3.88037 4.47089e-20)
(-0.0594998 3.48867 -6.53851e-19)
(-0.101097 3.92631 1.74414e-19)
(-0.142875 4.5149 2.3215e-19)
(-0.0821831 4.32424 0)
(-0.0659015 3.8891 0)
(-0.0851171 2.90997 2.01202e-19)
(-0.0523013 3.63999 -6.27771e-20)
(-0.0775565 3.62582 0)
(-0.0903941 2.69591 1.58428e-19)
(-0.0478105 2.20326 -3.0696e-19)
(3.76094 0.0322377 0)
(3.73179 0.00763598 -2.03225e-19)
(4.17947 0.0677757 -1.43958e-18)
(4.08901 0.0461279 0)
(3.87617 0.0176535 0)
(4.14972 0.0369224 -1.25167e-20)
(4.10029 0.0348341 2.37833e-18)
(4.00015 0.0800737 2.84492e-18)
(3.75597 0.118555 0)
(3.55816 0.109951 0)
(4.01341 0.0937731 1.4171e-18)
(3.70341 0.115992 0)
(3.47231 0.128767 0)
(-0.089438 4.69506 0)
(-0.114882 4.66354 1.0697e-20)
(-0.0859136 4.71442 6.29782e-20)
(-0.0668438 3.83999 0)
(-0.12017 4.53672 1.11179e-19)
(-0.0758393 4.24857 -6.34293e-20)
(-0.060895 3.94107 0)
(1.41565 4.19422 0)
(1.20874 4.57615 -1.29711e-18)
(1.22533 4.48901 0)
(1.5741 4.48085 1.48397e-18)
(1.58998 4.10672 0)
(1.49893 4.36136 -6.06413e-19)
(1.01734 2.25292 -3.39918e-20)
(0.713621 1.65378 -1.74709e-18)
(0.594038 1.23353 2.13146e-18)
(0.713342 1.84553 3.9743e-19)
(0.981123 2.43703 0)
(1.04287 2.39145 0)
(0.722712 1.69651 0)
(0.535589 1.3377 -1.39744e-18)
(1.21577 3.78704 -9.84071e-19)
(1.1353 3.0032 -2.35717e-19)
(1.33421 3.41781 1.92778e-19)
(0.602929 2.05333 0)
(0.624199 1.95408 0)
(0.46524 1.58086 -3.93427e-19)
(0.963356 2.73467 0)
(2.69117 3.56992 0)
(2.38849 3.01223 -1.45454e-18)
(2.5525 3.02936 -8.58604e-20)
(2.42678 3.40718 0)
(2.29365 3.15428 2.2211e-18)
(3.28051 3.08424 -3.8958e-19)
(3.13381 3.3195 0)
(3.11617 3.14562 6.30232e-19)
(2.87291 3.41075 0)
(2.8862 3.20047 0)
(1.2151 2.01414 -9.31172e-19)
(1.42078 2.41179 -6.99903e-19)
(1.76156 2.99042 1.20635e-18)
(1.70394 2.96922 -3.62466e-19)
(1.0676 1.82965 0)
(1.2128 2.21739 4.71433e-19)
(0.721748 1.29396 -7.15937e-19)
(0.584288 1.04789 -6.08172e-22)
(1.94538 3.70324 0)
(2.20629 3.74625 -5.42479e-19)
(2.34323 3.98616 0)
(2.28581 0.529018 0)
(1.61863 0.342049 0)
(1.21008 0.276749 0)
(2.21106 0.554375 -1.46497e-18)
(1.63684 0.402423 8.17123e-19)
(2.14653 0.129077 -9.84894e-19)
(2.62773 0.297432 0)
(2.46682 0.301588 4.13383e-19)
(1.77079 0.135706 1.63258e-18)
(1.53099 0.0812686 -1.03677e-18)
(0.74798 1.55934 8.58471e-19)
(0.963381 1.82462 0)
(0.539321 1.44285 1.56174e-18)
(0.525946 1.61714 -1.42599e-18)
(0.76028 1.81738 -9.88952e-19)
(2.08077 2.46703 1.33809e-18)
(2.1046 2.71713 0)
(1.58922 1.68195 -2.76444e-19)
(2.01615 1.99327 1.74529e-18)
(1.36425 1.29563 -4.23696e-19)
(1.59329 1.3163 4.50849e-19)
(2.11476 1.51549 1.02332e-18)
(2.44816 1.6729 0)
(2.28199 1.85891 0)
(2.01534 1.6089 0)
(3.95701 2.07682 3.84424e-19)
(3.76196 1.8883 -1.26308e-18)
(3.81935 2.02605 1.04621e-18)
(3.9025 1.76952 -1.00794e-18)
(4.15745 1.67156 0)
(4.11615 1.83825 -2.97739e-19)
(2.84408 1.16366 -1.89698e-18)
(2.9741 1.16353 -2.41243e-18)
(2.33539 1.04424 1.4562e-18)
(2.1413 0.935156 -1.41974e-18)
(2.46636 0.846499 -1.17795e-18)
(2.18133 0.777513 1.44863e-18)
(4.00844 0.0334069 -1.5285e-18)
(4.05275 0.0406057 3.12939e-18)
(3.76793 -0.0659421 1.90042e-18)
(3.79114 -0.0738369 -2.28619e-18)
(3.9595 0.0104676 0)
(4.05601 0.0227683 -3.72883e-18)
(0.0910778 4.7605 1.06588e-19)
(0.0619888 4.72848 0)
(0.185146 4.73106 9.52337e-19)
(0.206619 4.74751 -8.66396e-19)
(0.226427 4.71218 4.27956e-19)
(0.117284 4.65154 0)
(-0.10979 4.76892 0)
(-0.115125 4.40392 -6.19177e-20)
(-0.114207 4.33566 5.55002e-20)
(-0.123019 4.48299 7.2981e-21)
(-0.113749 4.71775 -1.01191e-19)
(-0.0906677 4.70588 5.50232e-20)
(1.88172 4.01349 -1.64288e-18)
(1.82195 4.02139 1.74007e-18)
(1.68473 4.40201 -8.53612e-19)
(1.69803 4.28127 7.61351e-20)
(2.25213 4.07873 0)
(1.85238 4.20911 -6.35805e-19)
(1.97905 3.94822 6.16646e-19)
(1.8235 4.37221 8.33817e-19)
(2.07764 4.21559 0)
(2.23049 4.0958 0)
(1.14498 3.64441 1.49596e-18)
(0.832129 2.82673 2.02604e-18)
(0.960162 3.00486 -1.3914e-18)
(0.751799 2.98797 -2.32263e-19)
(0.90783 3.74682 4.66801e-19)
(0.72703 3.38075 -1.13533e-18)
(0.749895 1.47257 -1.21632e-18)
(0.749834 1.32273 0)
(0.605534 1.11949 -1.33684e-18)
(1.11657 2.07284 0)
(1.09381 2.16005 0)
(1.36434 2.19509 -1.09111e-18)
(1.06859 2.01855 -1.03651e-18)
(1.0209 2.03893 1.09924e-18)
(1.03561 1.52202 0)
(1.4159 1.76555 -6.01465e-19)
(1.63362 2.1236 -8.55594e-19)
(1.41668 2.08666 0)
(0.871508 1.82112 7.12863e-19)
(0.783219 1.68167 0)
(2.91211 2.29032 -1.84639e-18)
(3.32277 2.47006 2.60813e-18)
(3.28203 2.19277 -2.59231e-18)
(2.61621 2.02296 -2.31134e-19)
(2.73042 1.9417 -9.73948e-19)
(1.26706 2.19482 7.96562e-19)
(1.32156 2.25041 -1.36054e-18)
(1.46027 2.33462 1.79345e-18)
(1.79752 2.56493 -1.16564e-18)
(1.89697 2.9393 -1.56753e-18)
(1.56989 2.49499 -1.18822e-19)
(1.64016 2.63548 1.37187e-18)
(1.81765 2.69923 9.66548e-20)
(2.02595 3.00489 6.50229e-19)
)
;

boundaryField
{
    wall-4
    {
        type            noSlip;
    }
    velocity-inlet-5
    {
        type            fixedValue;
        value           uniform (3 0 0);
    }
    velocity-inlet-6
    {
        type            fixedValue;
        value           uniform (0 1 0);
    }
    pressure-outlet-7
    {
        type            zeroGradient;
    }
    wall-8
    {
        type            noSlip;
    }
    frontAndBackPlanes
    {
        type            empty;
    }
}


// ************************************************************************* //
