/*--------------------------------*- C++ -*----------------------------------*\
  =========                 |
  \\      /  F ield         | OpenFOAM: The Open Source CFD Toolbox
   \\    /   O peration     | Website:  https://openfoam.org
    \\  /    A nd           | Version:  9
     \\/     M anipulation  |
\*---------------------------------------------------------------------------*/
FoamFile
{
    format      ascii;
    class       surfaceScalarField;
    location    "7.92";
    object      alphaPhi0.water;
}
// * * * * * * * * * * * * * * * * * * * * * * * * * * * * * * * * * * * * * //

dimensions      [0 3 -1 0 0 0 0];

internalField   nonuniform List<scalar> 
4432
(
1.00541e-07
-1.00541e-07
1.7237e-07
-7.18235e-08
2.28028e-07
-5.56607e-08
2.79525e-07
-5.14916e-08
3.31162e-07
-5.16365e-08
3.84713e-07
-5.35473e-08
4.40589e-07
-5.5874e-08
4.98319e-07
-5.77261e-08
5.55441e-07
-5.71172e-08
6.11907e-07
-5.64621e-08
6.74734e-07
-6.28233e-08
7.56881e-07
-8.2143e-08
8.75169e-07
-1.18287e-07
1.03567e-06
-1.60501e-07
1.2153e-06
-1.79628e-07
1.33292e-06
-1.17615e-07
1.23859e-06
9.43225e-08
8.81207e-07
3.57386e-07
2.60734e-07
6.19375e-07
-4.62858e-07
7.23097e-07
-7.81499e-07
3.17743e-07
-5.5841e-07
-2.23093e-07
-5.58581e-07
8.39485e-08
-1.84492e-07
1.53218e-07
-1.41083e-07
2.12322e-07
-1.14766e-07
2.66051e-07
-1.05212e-07
3.18029e-07
-1.03612e-07
3.69378e-07
-1.04889e-07
4.20647e-07
-1.07139e-07
4.71514e-07
-1.08586e-07
5.20666e-07
-1.06262e-07
5.68275e-07
-1.04065e-07
6.18553e-07
-1.13097e-07
6.81181e-07
-1.44767e-07
7.66013e-07
-2.03117e-07
8.74825e-07
-2.69311e-07
9.87637e-07
-2.9244e-07
1.04537e-06
-1.75347e-07
9.51911e-07
1.87776e-07
6.70273e-07
6.39024e-07
2.9097e-07
9.98219e-07
-1.13369e-07
1.12693e-06
-4.06241e-07
6.10862e-07
-4.57634e-07
-1.71704e-07
-1.01621e-06
7.50925e-08
-2.59586e-07
1.43317e-07
-2.09299e-07
2.04318e-07
-1.75768e-07
2.59691e-07
-1.6058e-07
3.11487e-07
-1.55406e-07
3.61016e-07
-1.54414e-07
4.08875e-07
-1.54995e-07
4.54998e-07
-1.54706e-07
4.98091e-07
-1.49351e-07
5.3735e-07
-1.4332e-07
5.75963e-07
-1.51707e-07
6.20817e-07
-1.89619e-07
6.785e-07
-2.60798e-07
7.50027e-07
-3.40837e-07
8.22883e-07
-3.65299e-07
8.55575e-07
-2.0805e-07
7.71406e-07
2.71919e-07
5.50293e-07
8.60137e-07
3.10547e-07
1.23829e-06
8.51401e-08
1.35184e-06
-1.73897e-07
8.70107e-07
-3.07666e-07
-3.79381e-08
-1.32388e-06
7.0178e-08
-3.29767e-07
1.3741e-07
-2.76523e-07
1.99285e-07
-2.37645e-07
2.5548e-07
-2.16773e-07
3.07302e-07
-2.07228e-07
3.55344e-07
-2.02454e-07
4.00253e-07
-1.99903e-07
4.42678e-07
-1.9713e-07
4.80771e-07
-1.87443e-07
5.12661e-07
-1.7521e-07
5.40107e-07
-1.79151e-07
5.67676e-07
-2.17187e-07
6.00621e-07
-2.93742e-07
6.40719e-07
-3.80933e-07
6.83381e-07
-4.07961e-07
7.07427e-07
-2.32189e-07
6.46077e-07
3.3279e-07
4.81264e-07
1.02503e-06
3.25434e-07
1.39421e-06
1.9887e-07
1.48155e-06
-1.44685e-08
1.08349e-06
-1.50741e-07
9.81717e-08
-1.47461e-06
6.80468e-08
-3.97817e-07
1.34442e-07
-3.42913e-07
1.96482e-07
-2.99688e-07
2.52961e-07
-2.73251e-07
3.04745e-07
-2.59015e-07
3.5167e-07
-2.49379e-07
3.94421e-07
-2.42655e-07
4.34071e-07
-2.36781e-07
4.6817e-07
-2.21543e-07
4.93342e-07
-2.00382e-07
5.09858e-07
-1.95667e-07
5.20826e-07
-2.28154e-07
5.3041e-07
-3.03325e-07
5.41336e-07
-3.91858e-07
5.55681e-07
-4.22302e-07
5.73952e-07
-2.50784e-07
5.47349e-07
3.57693e-07
4.32146e-07
1.14025e-06
3.36755e-07
1.48961e-06
2.6441e-07
1.55391e-06
1.0409e-07
1.24382e-06
2.45582e-08
1.77375e-07
-1.44991e-06
6.81329e-08
-4.65953e-07
1.33983e-07
-4.0876e-07
1.96086e-07
-3.61795e-07
2.52941e-07
-3.30108e-07
3.04903e-07
-3.1098e-07
3.51128e-07
-2.95607e-07
3.92268e-07
-2.83798e-07
4.29983e-07
-2.74498e-07
4.61003e-07
-2.52565e-07
4.80202e-07
-2.19583e-07
4.86598e-07
-2.02064e-07
4.82056e-07
-2.23612e-07
4.69847e-07
-2.91114e-07
4.52778e-07
-3.74787e-07
4.3687e-07
-4.06394e-07
4.37897e-07
-2.52458e-07
4.51718e-07
3.42453e-07
3.94385e-07
1.17754e-06
3.46663e-07
1.53735e-06
3.16669e-07
1.58391e-06
2.14951e-07
1.32787e-06
2.11803e-07
1.79932e-07
-1.23734e-06
6.97146e-08
-5.35672e-07
1.36203e-07
-4.75248e-07
1.98695e-07
-4.2429e-07
2.56204e-07
-3.87618e-07
3.08982e-07
-3.63761e-07
3.55098e-07
-3.41724e-07
3.95041e-07
-3.23743e-07
4.31308e-07
-3.10766e-07
4.59962e-07
-2.81219e-07
4.74086e-07
-2.33708e-07
4.71673e-07
-1.99652e-07
4.53495e-07
-2.05434e-07
4.21844e-07
-2.59462e-07
3.78698e-07
-3.31638e-07
3.30975e-07
-3.58668e-07
2.99024e-07
-2.20509e-07
3.27466e-07
3.09251e-07
3.55428e-07
1.1425e-06
3.60861e-07
1.51416e-06
3.68332e-07
1.53945e-06
3.81342e-07
1.30959e-06
4.00403e-07
1.6502e-07
-8.36924e-07
7.14334e-08
-6.07108e-07
1.41123e-07
-5.44938e-07
2.05028e-07
-4.88197e-07
2.63878e-07
-4.46466e-07
3.18183e-07
-4.18064e-07
3.64695e-07
-3.88232e-07
4.0357e-07
-3.62614e-07
4.38488e-07
-3.4568e-07
4.65098e-07
-3.07825e-07
4.74959e-07
-2.43566e-07
4.65496e-07
-1.90185e-07
4.36503e-07
-1.76439e-07
3.89139e-07
-2.12096e-07
3.23998e-07
-2.66497e-07
2.47792e-07
-2.82463e-07
1.81478e-07
-1.54197e-07
1.89527e-07
2.99841e-07
2.99683e-07
1.04617e-06
3.74883e-07
1.43361e-06
4.35687e-07
1.47322e-06
5.77726e-07
1.16205e-06
5.03649e-07
2.4927e-07
-3.3327e-07
-1.37575e-06
1.36679e-06
-8.51045e-07
-5.24041e-07
-1.25953e-07
-7.25673e-07
3.69357e-07
-4.95838e-07
7.10698e-07
-3.42149e-07
9.22671e-07
-2.15407e-07
1.05503e-06
-1.33464e-07
1.2247e-06
-1.70786e-07
1.35549e-06
-1.31935e-07
1.22747e-06
1.26997e-07
7.91604e-07
4.35875e-07
-1.57421e-08
8.07353e-07
-9.17232e-07
8.98591e-07
-1.34006e-06
4.22828e-07
-1.33339e-06
-6.67333e-09
-1.01245e-06
-3.20932e-07
-6.9626e-07
-3.16191e-07
-1.66518e-07
-5.29738e-07
-1.66752e-07
-8.03211e-07
2.16418e-06
-3.97376e-07
-9.30439e-07
2.45458e-09
-1.12555e-06
2.97036e-07
-7.90407e-07
4.84127e-07
-5.2925e-07
6.13177e-07
-3.44466e-07
7.37935e-07
-2.5824e-07
8.47737e-07
-2.80633e-07
8.71869e-07
-1.56111e-07
7.00271e-07
2.98697e-07
3.82415e-07
7.5523e-07
-3.70918e-08
1.22687e-06
-4.96614e-07
1.35817e-06
-8.89523e-07
8.11898e-07
-1.02754e-06
1.3134e-07
-9.53818e-07
-3.94655e-07
-8.64619e-07
-4.05391e-07
-5.42364e-07
-8.4878e-07
-7.06691e-07
-2.02747e-07
2.36662e-06
-3.23462e-08
-1.10054e-06
1.12012e-07
-1.26996e-06
2.43004e-07
-9.21401e-07
3.37616e-07
-6.23871e-07
4.07219e-07
-4.14083e-07
4.7895e-07
-3.29953e-07
5.40388e-07
-3.42058e-07
5.22097e-07
-1.37858e-07
3.30813e-07
4.90014e-07
7.4319e-08
1.01168e-06
-1.32215e-07
1.44214e-06
-3.28512e-07
1.56058e-06
-6.18355e-07
1.10265e-06
-8.02127e-07
3.15111e-07
-8.4316e-07
-3.53621e-07
-9.48171e-07
-2.97273e-07
-8.06271e-07
-9.91051e-07
-1.51333e-06
2.85918e-07
2.0804e-06
2.14097e-07
-1.02733e-06
1.73855e-07
-1.22974e-06
1.83016e-07
-9.30579e-07
2.02984e-07
-6.43832e-07
2.19233e-07
-4.30318e-07
2.43565e-07
-3.54264e-07
2.69115e-07
-3.6759e-07
2.41037e-07
-1.09866e-07
7.30907e-08
6.5763e-07
-1.19046e-07
1.20321e-06
-2.22013e-07
1.54485e-06
-2.84947e-07
1.62458e-06
-4.72372e-07
1.29138e-06
-6.21707e-07
4.63e-07
-6.90507e-07
-2.84821e-07
-9.03719e-07
-8.16491e-08
-8.46751e-07
-1.04839e-06
-2.36683e-06
5.56009e-07
1.53571e-06
3.4656e-07
-8.16952e-07
1.78807e-07
-1.06199e-06
1.01927e-07
-8.53695e-07
6.31537e-08
-6.05043e-07
3.28158e-08
-3.99959e-07
1.48751e-08
-3.36386e-07
1.24546e-08
-3.65232e-07
-1.03765e-08
-8.70252e-08
-1.29631e-07
7.75343e-07
-2.59589e-07
1.33335e-06
-2.90874e-07
1.57588e-06
-2.89508e-07
1.62296e-06
-4.10536e-07
1.41264e-06
-4.60363e-07
5.10689e-07
-4.84876e-07
-2.59117e-07
-6.92148e-07
1.24705e-07
-6.78709e-07
-1.06558e-06
-3.04554e-06
5.62449e-07
9.75403e-07
3.42058e-07
-5.96554e-07
1.23567e-07
-8.435e-07
-4.56421e-09
-7.25555e-07
-8.67122e-08
-5.22882e-07
-1.55968e-07
-3.30752e-07
-2.12427e-07
-2.79951e-07
-2.39764e-07
-3.37793e-07
-2.41938e-07
-8.46541e-08
-3.0831e-07
8.37701e-07
-3.71794e-07
1.39643e-06
-3.51741e-07
1.55557e-06
-3.01969e-07
1.57293e-06
-3.6799e-07
1.47839e-06
-3.25388e-07
4.6594e-07
-2.45913e-07
-3.3579e-07
-3.46041e-07
2.21951e-07
-3.85847e-07
-1.02578e-06
-3.43139e-06
4.31069e-07
5.44324e-07
2.45995e-07
-4.11473e-07
1.98062e-08
-6.17317e-07
-1.36392e-07
-5.69364e-07
-2.47133e-07
-4.12154e-07
-3.46837e-07
-2.31048e-07
-4.37578e-07
-1.89209e-07
-4.95255e-07
-2.80113e-07
-4.77634e-07
-9.75396e-08
-4.59364e-07
8.12583e-07
-4.6904e-07
1.40584e-06
-4.05258e-07
1.49152e-06
-3.206e-07
1.48921e-06
-3.01275e-07
1.42253e-06
-1.69446e-07
3.3258e-07
-4.01053e-08
-4.65071e-07
-1.27195e-08
1.94437e-07
-3.7462e-08
-1.00178e-06
-3.46885e-06
3.02439e-07
2.41875e-07
1.0909e-07
-2.18129e-07
-1.14052e-07
-3.94184e-07
-2.8666e-07
-3.96765e-07
-4.15786e-07
-2.83031e-07
-5.35959e-07
-1.10861e-07
-6.52907e-07
-7.22907e-08
-7.44915e-07
-1.88109e-07
-7.33278e-07
-9.46556e-08
-5.97827e-07
6.66512e-07
-5.43871e-07
1.31842e-06
-4.38868e-07
1.3729e-06
-3.32632e-07
1.37174e-06
-1.87782e-07
1.27199e-06
5.976e-09
1.38191e-07
1.25927e-07
-5.84964e-07
2.95918e-07
2.43211e-08
2.67841e-07
-9.71665e-07
-3.20101e-06
1.73656e-07
-7.80765e-07
3.28682e-07
-6.99966e-07
4.70168e-07
-6.29684e-07
6.02216e-07
-5.78511e-07
7.26566e-07
-5.4241e-07
8.28669e-07
-4.90329e-07
9.06139e-07
-4.40076e-07
9.73917e-07
-4.1345e-07
1.02296e-06
-3.56857e-07
1.03111e-06
-2.51713e-07
9.94956e-07
-1.54024e-07
9.08784e-07
-9.0267e-08
7.73799e-07
-7.71113e-08
5.84162e-07
-7.68598e-08
3.57083e-07
-5.53834e-08
1.6026e-07
4.20534e-08
1.40735e-07
3.18904e-07
4.38125e-07
7.44709e-07
8.05964e-07
1.06265e-06
1.17827e-06
1.11933e-06
1.50809e-06
8.41568e-07
1.26227e-06
4.95096e-07
3.47669e-07
5.8134e-07
1.83862e-07
-8.62741e-07
3.75995e-07
-7.96575e-07
5.43981e-07
-7.09317e-07
6.97933e-07
-6.47321e-07
8.47282e-07
-6.0636e-07
9.61587e-07
-5.24067e-07
1.02772e-06
-4.32755e-07
1.06077e-06
-3.76236e-07
1.06188e-06
-2.99533e-07
1.04206e-06
-1.94506e-07
1.00443e-06
-9.79145e-08
9.38844e-07
-2.25371e-08
8.23414e-07
2.76617e-08
6.4553e-07
7.49438e-08
4.25344e-07
1.22161e-07
2.23441e-07
1.78809e-07
1.73294e-07
2.64972e-07
3.88324e-07
3.83451e-07
8.0141e-07
4.77809e-07
1.21206e-06
5.13602e-07
1.36557e-06
4.78662e-07
1.18473e-06
4.59829e-07
4.67889e-07
8.50833e-07
1.01029e-07
-2.2111e-09
1.7891e-07
-9.96593e-10
2.77453e-07
-3.44009e-09
3.60379e-07
-2.9535e-09
4.10652e-07
-1.24028e-09
4.60086e-07
-2.7408e-09
5.02639e-07
-1.06221e-07
5.04722e-07
-5.23991e-08
4.76679e-07
-5.08039e-08
4.60633e-07
-3.50966e-08
4.53552e-07
-2.09182e-08
4.39236e-07
-2.00079e-11
3.98757e-07
7.30285e-10
3.3393e-07
2.85033e-09
2.51373e-07
6.6793e-09
1.74986e-07
1.29281e-08
1.44866e-07
3.2689e-08
1.92027e-07
5.32135e-08
2.92743e-07
6.47005e-08
3.86281e-07
6.88063e-08
4.05738e-07
7.86478e-08
3.52833e-07
5.06175e-08
1.09886e-10
2.58317e-07
2.68596e-10
-2.47774e-09
-2.97664e-10
-4.40046e-10
2.08855e-10
-3.94486e-09
4.7971e-10
-3.22286e-09
1.66864e-10
-9.0869e-10
2.39082e-10
-2.75067e-09
1.03099e-09
-5.48676e-09
1.16434e-09
-2.92995e-09
1.12447e-09
-1.52597e-09
1.01797e-09
-1.41986e-09
1.13122e-09
-1.35929e-09
4.47069e-10
-5.62926e-11
4.56916e-10
0
4.56472e-10
0
4.74813e-10
0
5.47219e-10
0
6.12204e-10
0
6.97051e-10
0
6.74355e-10
2.92802e-16
8.08503e-10
3.10188e-15
9.91515e-10
0
1.07567e-09
1.2553e-13
6.61979e-14
6.97518e-10
-1.31463e-09
1.86084e-09
-2.28193e-09
4.70452e-10
-7.09219e-09
-3.97829e-09
-3.17148e-09
-3.69519e-10
-1.01436e-09
3.86672e-10
-3.87978e-09
-2.44591e-09
-6.82896e-09
-6.70372e-11
-7.48903e-09
-1.9586e-09
-6.97043e-09
-1.28348e-09
-5.31495e-09
-3.67737e-10
-3.95917e-09
-3.14136e-14
-1.3308e-09
-7.32597e-14
1.29051e-10
-5.80409e-12
5.70785e-10
-4.94114e-11
1.01163e-09
-1.70655e-11
9.13731e-10
6.96933e-11
4.13512e-10
5.15115e-10
1.33744e-10
4.52062e-10
-8.44596e-11
2.75093e-10
-6.10344e-10
1.85701e-10
-8.3068e-10
8.14159e-11
-1.06235e-09
1.55241e-10
9.20464e-11
-6.90049e-10
-2.72106e-10
6.12028e-13
-5.1445e-11
7.61141e-12
-2.88939e-10
-4.66723e-10
-6.86209e-10
-3.71465e-11
-6.0045e-10
0
-8.85485e-13
-1.3894e-12
-6.74879e-11
-1.8829e-13
-2.34434e-10
-2.88896e-14
-8.85623e-11
-2.88843e-13
-9.17724e-14
-6.72586e-13
-9.3091e-14
-3.78374e-14
-1.12731e-13
-6.12783e-14
-3.06278e-13
-5.61857e-12
-3.03676e-13
-8.42825e-11
-2.71715e-13
-8.25951e-11
-1.34143e-12
-1.10947e-11
-1.78789e-10
0
-6.95926e-10
0
-7.41647e-10
0
-1.12248e-09
0
-1.04352e-09
0
-1.28563e-09
0
2.57259e-11
-1.40005e-09
1.05914e-11
2.059e-15
2.17683e-11
0
-4.49516e-12
-2.78249e-13
-1.29918e-11
0
-1.34629e-13
0
-2.27956e-13
-1.04956e-12
-9.57182e-14
-5.59824e-14
-1.08203e-13
-7.54997e-14
-1.21239e-13
-3.116e-13
-1.26388e-13
-6.77513e-13
-1.03287e-13
-6.85985e-14
-1.30298e-13
-4.22936e-14
-1.22998e-10
-2.24308e-11
-2.96614e-10
-1.09826e-10
-2.23428e-10
-9.73686e-11
-1.87728e-10
-2.61896e-11
-6.01868e-11
2.05651e-11
-4.28267e-11
0
-1.53172e-11
0
-1.6362e-11
5.0686e-12
-3.1687e-10
0
-3.64854e-10
1.84046e-14
2.27781e-15
-3.71739e-10
8.3329e-15
0
1.17818e-14
4.25693e-15
-2.61521e-13
1.37646e-22
-1.83319e-12
0
-2.33991e-12
0
-5.12983e-12
4.71946e-13
-1.48765e-12
1.73772e-13
-6.27362e-13
-1.06996e-13
-3.17923e-12
-5.09821e-14
-2.5274e-12
-7.93445e-13
0
-1.17463e-13
0
-4.39936e-13
-2.20428e-10
-1.53229e-11
-2.71018e-10
-2.10574e-11
-3.14177e-10
-1.52312e-11
-1.94898e-10
-1.50752e-11
-1.27385e-10
3.23739e-12
-7.24461e-11
9.15926e-12
-5.20868e-12
6.49839e-12
-1.16832e-13
1.05753e-14
-1.42827e-13
0
-1.0334e-13
0
3.03228e-14
-1.46981e-13
6.05182e-17
3.47531e-15
-3.51828e-16
4.60671e-15
-6.30627e-16
5.18056e-15
0
1.97454e-15
-2.88168e-12
0
-3.51625e-12
1.47098e-12
-3.91369e-12
9.31214e-13
-1.32616e-12
2.53827e-13
-7.34448e-12
2.73317e-14
-7.68242e-12
-4.40819e-13
-3.00517e-12
-3.69905e-13
-1.45367e-11
-5.99833e-13
-4.47364e-12
-1.44767e-15
-5.38719e-14
-1.36546e-14
-1.52625e-11
-1.81177e-14
-6.32269e-11
-3.64078e-13
-6.36911e-11
1.03782e-12
-6.61139e-12
2.85579e-13
-7.58053e-14
0
-4.79361e-14
2.0288e-14
-2.99584e-14
2.20481e-14
-1.06627e-14
7.20204e-15
9.40672e-16
-1.09946e-14
-4.68836e-16
5.54553e-15
-9.3339e-16
5.00905e-15
-1.92534e-15
6.10942e-15
-4.94183e-15
4.92366e-15
-5.80455e-13
6.31974e-16
-2.53329e-12
4.99848e-13
-1.90227e-12
7.23433e-13
0
0
-7.27145e-12
4.30893e-13
-7.86418e-12
1.66593e-13
-8.00295e-12
-2.16451e-13
-2.26251e-15
-1.69936e-16
-2.19346e-15
-5.27581e-16
-1.34476e-14
-1.41295e-15
-1.43114e-14
-1.29985e-14
-1.69071e-13
-2.04891e-13
-3.65532e-12
0
-8.52344e-13
0
-1.1229e-13
9.07726e-14
-7.25032e-14
1.77383e-14
-7.89141e-14
2.272e-14
-2.884e-14
4.21515e-14
3.12804e-15
-1.47516e-16
-1.91229e-15
8.26786e-15
-2.92178e-14
1.82204e-13
-2.12159e-14
2.11724e-13
-4.38921e-16
1.75486e-14
-1.10083e-14
1.17534e-15
-4.08668e-13
5.33982e-16
-2.1012e-17
3.72566e-14
0
2.51641e-14
-4.94712e-12
6.55215e-13
-5.38584e-12
6.19995e-13
-3.37777e-15
1.05772e-13
-2.53458e-15
6.82611e-20
-1.88142e-15
-1.44577e-16
-1.7614e-15
-5.43822e-16
-1.96508e-12
-1.48876e-13
-3.03764e-12
-7.60237e-13
-4.47361e-13
8.69741e-14
-9.5843e-14
7.16539e-13
-7.05353e-14
1.89049e-14
-1.11589e-13
2.46375e-14
-1.03551e-13
4.21364e-14
-4.61293e-14
2.61797e-14
5.55977e-15
0
-1.54477e-14
1.29751e-14
-4.06455e-14
2.47595e-13
-2.75119e-14
2.38974e-13
-7.23143e-16
4.73045e-14
-5.40226e-16
9.06628e-16
-6.48937e-16
5.5275e-16
-3.70621e-16
3.70228e-14
-3.88391e-13
4.16343e-13
-2.20367e-12
1.01003e-12
-2.35461e-12
5.41899e-13
-3.22914e-15
4.47094e-14
-2.34616e-15
1.53248e-16
-1.43612e-15
4.4381e-17
-9.23091e-16
-7.50995e-17
-7.37511e-12
-7.19201e-14
-1.80395e-11
-6.90648e-13
-1.83016e-11
3.7616e-13
-5.11231e-14
2.35457e-12
-5.29642e-14
1.00333e-14
-4.89498e-14
9.96078e-15
-6.53615e-14
1.43115e-14
-1.04094e-14
8.60249e-15
2.24314e-15
-1.02122e-14
-9.29373e-15
9.19481e-15
-3.37247e-14
1.58944e-13
-1.04345e-14
2.56068e-13
-2.94855e-16
4.45656e-14
-4.45361e-16
9.73726e-16
-9.33096e-16
9.56768e-16
-6.51232e-13
7.22972e-13
-1.92197e-12
1.60414e-12
-1.44033e-12
1.45476e-12
-4.7956e-14
3.67531e-13
-2.38307e-15
3.42541e-16
-1.3251e-15
3.07001e-16
-3.12401e-16
2.03752e-16
0
1.77307e-16
-6.89832e-12
6.78032e-14
-1.82848e-11
2.31659e-13
-1.87236e-11
8.42078e-13
-1.80533e-11
1.71132e-12
-2.30816e-14
1.92259e-12
-2.25034e-14
4.64956e-15
-1.73376e-14
4.38197e-15
-1.52357e-14
5.73881e-15
3.1321e-15
-8.4101e-15
-2.13328e-16
3.26622e-15
-1.68516e-14
0
-1.7371e-14
8.25063e-14
-7.003e-16
1.19751e-14
-8.46161e-16
1.03618e-15
-3.9151e-14
2.91404e-15
-1.47692e-12
1.45039e-12
-1.74341e-12
2.18149e-12
-3.70062e-13
1.02483e-12
-2.06823e-15
7.64122e-16
-1.3608e-15
6.38282e-16
-1.4411e-15
5.54284e-16
-3.92836e-16
3.31344e-16
0
4.89e-17
0
1.2158e-17
-5.88837e-12
0
-1.43745e-11
4.69627e-13
-1.36911e-11
1.23554e-12
-2.57686e-14
1.60185e-13
-2.97172e-14
3.83448e-15
-3.0243e-14
8.8609e-15
-2.55969e-14
8.60371e-15
2.78297e-15
-9.89772e-15
-2.17288e-17
2.5043e-15
-1.17583e-15
1.06883e-15
-6.6313e-16
9.44183e-16
-2.01265e-16
1.2701e-15
-3.86236e-16
1.11735e-15
-2.75116e-14
2.55958e-15
-1.15265e-12
9.66065e-13
-8.83305e-13
2.22302e-12
-3.28131e-15
1.13604e-13
-1.57864e-15
3.13748e-16
-1.37572e-15
8.19979e-16
-9.84505e-16
7.95309e-16
-2.4797e-16
4.02876e-16
-1.18979e-16
4.44779e-17
-1.58022e-16
3.58589e-17
-1.20942e-13
0
-8.50531e-13
0
-3.3932e-13
0
-3.89246e-14
0
-4.4171e-14
3.70065e-15
-3.60067e-14
8.86914e-15
-1.8577e-14
7.49873e-15
1.66073e-15
-5.88622e-15
-1.26073e-17
2.22404e-15
-3.38514e-17
7.97147e-16
-5.69988e-17
6.74461e-16
-9.61087e-17
7.3801e-16
0
2.7209e-15
-2.15546e-14
2.62434e-14
-2.92166e-13
0
-6.78598e-14
2.8594e-16
-2.22494e-15
0
-9.93445e-16
3.5365e-16
-1.12661e-15
9.39916e-16
-7.45469e-16
7.97672e-16
-1.31651e-16
1.68602e-16
-1.09954e-16
4.23276e-17
-1.2233e-16
3.91067e-17
-1.62505e-16
2.99295e-17
-2.27656e-16
3.2431e-18
-2.71556e-16
1.30176e-18
-5.09787e-15
1.37378e-17
-3.33874e-14
3.32445e-15
-2.94584e-14
7.7124e-15
-1.05793e-14
3.54396e-15
1.19743e-16
-2.39717e-15
-8.51031e-16
3.73334e-13
-2.83693e-16
4.90398e-13
-4.3489e-17
2.74358e-15
-6.48375e-16
7.58095e-16
-4.39511e-15
7.78076e-15
-2.47574e-16
3.02546e-14
-2.03467e-16
0
-1.48245e-17
6.63043e-17
-9.99916e-17
1.73522e-17
-5.57937e-16
3.3173e-16
-6.11236e-16
5.08627e-16
-1.91101e-16
2.75373e-16
-6.73559e-17
3.68529e-17
-9.13085e-17
3.08209e-17
-1.08939e-16
4.6411e-17
-1.10017e-16
4.26244e-17
-1.06334e-16
3.54581e-17
-1.2159e-16
3.03057e-17
-9.82599e-16
5.22694e-17
-3.04077e-15
3.12861e-17
-2.69829e-15
0
-1.89084e-15
0
4.65809e-17
-1.97514e-15
-5.72486e-15
7.84376e-13
-6.61129e-15
7.17299e-13
-1.34741e-16
3.13872e-15
-2.45683e-16
1.23331e-15
-1.84994e-15
7.53204e-15
-2.6931e-16
5.7648e-15
-9.46121e-18
4.66346e-17
-8.34658e-18
2.66091e-17
-4.736e-17
1.7985e-17
-1.39305e-16
6.92869e-17
-1.13996e-16
7.11473e-17
-1.55581e-17
1.89943e-17
-2.0713e-17
2.50802e-18
-5.44226e-17
1.36274e-17
-8.20949e-17
3.3023e-17
-9.20755e-17
3.94071e-17
-9.34869e-17
3.82956e-17
-8.18693e-17
3.06124e-17
-5.19432e-17
1.12294e-17
-8.04281e-18
3.86671e-18
-1.24743e-17
1.4867e-18
-1.9311e-16
4.51408e-19
4.13797e-19
-1.87151e-16
-4.06159e-15
7.94129e-13
-5.73921e-15
3.40093e-13
-9.95237e-17
8.00923e-16
-3.66894e-16
1.26901e-15
-3.04326e-16
3.69319e-15
-1.44973e-17
8.07214e-17
-7.28218e-18
2.98095e-17
-3.62977e-18
2.87057e-17
-7.77106e-18
6.94465e-18
-9.00641e-18
2.75556e-18
-3.56061e-18
1.34474e-18
-4.41731e-19
3.46207e-18
-1.88649e-18
5.68267e-19
-1.55842e-17
1.46006e-18
-3.37692e-17
7.91039e-18
-3.96616e-17
1.25226e-17
-3.92685e-17
1.16775e-17
-2.87604e-17
8.03099e-18
-1.6065e-17
3.69848e-18
-8.14841e-18
1.62773e-18
-4.06166e-18
1.24905e-18
-2.32289e-18
8.02668e-20
3.40276e-22
-4.64817e-19
-1.83364e-15
8.01658e-13
-1.86583e-15
4.89149e-14
-3.68542e-17
1.81476e-16
-1.13973e-16
8.14202e-16
-9.74958e-18
6.96915e-16
-4.01815e-18
1.35267e-17
-4.64981e-18
2.23742e-17
-9.25417e-19
2.09363e-17
-1.87961e-19
4.65863e-19
-1.0408e-19
4.16475e-19
4.21201e-20
1.6058e-19
2.60504e-19
-8.43218e-20
-1.80656e-19
-4.16235e-19
-8.9849e-19
2.31858e-19
-4.17209e-18
1.44267e-18
-4.68171e-18
5.64799e-19
-4.15317e-18
4.9011e-19
-2.55822e-18
2.41415e-19
-1.47459e-18
1.02491e-19
-9.31027e-19
5.0152e-20
-4.44714e-19
2.57806e-20
-2.65048e-19
4.46865e-20
1.57677e-23
-2.44751e-19
-4.80639e-15
8.11594e-13
-2.64951e-16
7.69778e-14
-1.89461e-17
1.55495e-16
-2.08265e-17
2.52237e-16
-1.08816e-18
9.53641e-17
-1.55591e-18
1.06726e-17
-1.7981e-18
7.75439e-18
-1.94053e-19
4.03274e-18
2.68399e-19
3.39679e-21
4.02398e-19
-1.08352e-18
5.49451e-19
-1.2744e-18
5.6537e-19
-1.38264e-18
3.52692e-19
-1.14038e-18
-3.06687e-22
-5.73499e-19
-6.02674e-20
4.0345e-22
-6.59794e-20
6.50275e-20
-4.63181e-20
5.78431e-20
-1.99818e-20
2.39681e-20
-9.54045e-21
8.11379e-21
-4.17427e-21
2.87329e-21
1.39587e-22
7.15293e-22
8.269e-22
-1.77398e-23
8.892e-22
-9.25409e-22
-1.11074e-14
8.22996e-13
-1.76715e-15
6.9338e-13
-6.85292e-18
9.6288e-17
-5.03965e-18
8.76662e-17
-1.19513e-18
7.57917e-17
-3.4758e-19
1.07171e-17
-1.91604e-19
5.1495e-19
1.78378e-19
7.44644e-19
3.7935e-19
-1.15734e-18
4.96847e-19
-1.92002e-18
5.65627e-19
-1.98757e-18
5.49038e-19
-1.807e-18
4.45284e-19
-1.41121e-18
3.08551e-19
-9.2528e-19
2.06068e-19
-5.19592e-19
1.57364e-19
-2.81191e-19
1.2951e-19
-1.73336e-19
1.04377e-19
-1.13913e-19
7.89594e-20
-7.14682e-20
5.46346e-20
-3.97573e-20
3.49298e-20
-1.77047e-20
2.08228e-20
-4.80662e-21
1.05882e-21
1.1605e-20
-1.27832e-14
8.35788e-13
-1.55963e-17
8.59602e-13
-5.08036e-18
8.64461e-17
-3.44055e-18
8.30764e-17
-1.16017e-18
7.6775e-17
-3.39124e-20
1.12029e-17
1.61e-20
1.41146e-19
1.72841e-19
-1.69052e-19
2.98194e-19
-1.4194e-18
3.70608e-19
-1.93198e-18
3.98185e-19
-1.91121e-18
3.79241e-19
-1.64712e-18
3.23743e-19
-1.26585e-18
2.54746e-19
-8.75321e-19
1.91663e-19
-5.58767e-19
1.44953e-19
-3.40551e-19
1.08723e-19
-2.07382e-19
7.87746e-20
-1.23483e-19
5.47017e-20
-6.89277e-20
3.63901e-20
-3.46188e-20
2.30973e-20
-1.44047e-20
1.38836e-20
-3.55423e-21
7.66101e-22
7.93897e-21
-1.22228e-14
8.4802e-13
-5.57112e-16
8.47945e-13
-7.6721e-18
2.67865e-16
-3.68644e-18
1.03434e-16
-1.10317e-18
1.10233e-16
-6.2725e-20
1.39961e-17
4.41853e-21
8.39305e-19
7.92062e-20
-6.00312e-20
1.47345e-19
-8.56506e-19
1.9095e-19
-1.26987e-18
2.08147e-19
-1.31695e-18
2.00543e-19
-1.15453e-18
1.74862e-19
-8.9863e-19
1.41401e-19
-6.35001e-19
1.08279e-19
-4.1657e-19
7.99691e-20
-2.58229e-19
5.66502e-20
-1.53273e-19
3.82821e-20
-8.58618e-20
2.48252e-20
-4.43903e-20
1.56976e-20
-2.05694e-20
9.68737e-21
-7.93496e-21
5.76439e-21
-1.71375e-21
4.24312e-22
3.24269e-21
-1.02104e-14
8.58239e-13
-1.48974e-16
3.28227e-13
-7.99814e-18
1.19141e-16
-4.99518e-18
2.18802e-16
-1.21283e-18
1.91676e-16
-1.94284e-19
2.35569e-17
-1.37514e-19
5.53971e-18
-7.25285e-20
3.65466e-18
1.32052e-20
1.82934e-18
4.60188e-20
-1.62704e-19
6.88561e-20
-4.54041e-19
7.71509e-20
-5.45239e-19
7.2279e-20
-4.92088e-19
6.0219e-20
-3.72556e-19
4.63376e-20
-2.51228e-19
3.36332e-20
-1.56211e-19
2.28648e-20
-9.09732e-20
1.45877e-20
-4.88045e-20
8.82192e-21
-2.37365e-20
5.18327e-21
-1.01798e-20
3.00967e-21
-3.57122e-21
1.72933e-21
-6.32586e-22
1.91601e-22
9.61187e-22
-6.42604e-15
2.7328e-13
-3.80948e-18
3.1163e-16
-1.12482e-17
1.18804e-16
-7.7568e-18
4.98848e-16
-1.34392e-18
3.11474e-16
-3.96206e-19
4.50737e-17
-3.59249e-19
1.93971e-17
-3.19086e-19
1.59454e-17
-2.26119e-19
1.11038e-17
-1.15242e-19
6.02186e-18
-2.54475e-20
2.40145e-18
1.38072e-20
5.99823e-19
2.09084e-20
-1.40402e-19
1.95969e-20
-1.69819e-19
1.54068e-20
-1.27752e-19
1.1165e-20
-8.0746e-20
7.36158e-21
-4.68497e-20
4.44717e-21
-2.4384e-20
2.48812e-21
-1.12503e-20
1.32446e-21
-4.46708e-21
6.91389e-22
-1.40171e-21
3.61778e-22
-1.84238e-22
7.48565e-23
1.96056e-22
-5.81168e-17
2.42784e-16
-6.42813e-18
2.59062e-16
-9.44135e-18
4.26901e-16
-6.20442e-18
6.23732e-16
-9.28265e-19
3.8005e-16
-3.38797e-19
7.96069e-17
-3.08442e-19
4.63228e-17
-3.12546e-19
3.99884e-17
-2.84736e-19
2.98925e-17
-2.05151e-19
1.8548e-17
-1.04096e-19
8.91801e-18
-2.47898e-20
3.04353e-18
2.41653e-21
5.33183e-19
4.31741e-21
-3.96882e-20
3.64497e-21
-5.51541e-20
2.69239e-21
-3.67805e-20
1.72981e-21
-2.1637e-20
9.80834e-22
-1.10448e-20
4.95717e-22
-4.8719e-21
2.27394e-22
-1.80067e-21
9.7102e-23
-5.02374e-22
3.86183e-23
-4.16051e-23
2.7852e-23
1.58955e-23
-2.19638e-18
2.46311e-16
-4.3812e-18
2.61437e-16
-2.94381e-18
5.93771e-16
5.76684e-19
6.58615e-16
1.42161e-18
3.80597e-16
6.86421e-19
1.18179e-16
7.14749e-19
8.42171e-17
6.52468e-19
7.34566e-17
4.14706e-19
5.58038e-17
1.86111e-19
3.67077e-17
4.33077e-20
1.86353e-17
9.90487e-23
6.51383e-18
-5.33866e-22
1.24726e-18
2.42027e-22
5.78479e-20
2.96831e-22
-1.88662e-20
2.37753e-22
-1.5077e-20
1.40385e-22
-9.16514e-21
5.9581e-23
-4.62436e-21
1.31095e-23
-1.95743e-21
-1.15857e-23
-6.75229e-22
-2.06621e-23
-1.67425e-22
-1.83482e-23
-5.54928e-24
1.03861e-23
-1.3645e-23
-7.1807e-19
2.49154e-16
2.73223e-19
2.60319e-16
5.0251e-18
5.88022e-16
9.84763e-18
6.03528e-16
5.48669e-18
3.31857e-16
3.26382e-18
1.38955e-16
3.31454e-18
1.19282e-16
3.15868e-18
1.07714e-16
2.3051e-18
8.32432e-17
1.42215e-18
5.63476e-17
6.01232e-19
2.93622e-17
1.42217e-19
9.80727e-18
1.20359e-20
1.49963e-18
2.60837e-21
6.84544e-20
-1.33534e-22
-3.2393e-21
-2.70732e-22
-5.62317e-21
-2.23629e-22
-3.62374e-21
-1.58652e-22
-1.81465e-21
-1.01755e-22
-7.37644e-22
-5.96879e-23
-2.37445e-22
-3.27941e-23
-5.25114e-23
-1.79431e-23
3.35398e-25
3.60933e-24
-9.97744e-24
5.76512e-19
2.50702e-16
2.3054e-18
2.10577e-16
9.58127e-18
3.68479e-16
1.3383e-17
3.07186e-16
7.93044e-18
1.98113e-16
6.80962e-18
1.39665e-16
7.15078e-18
1.31694e-16
7.18405e-18
1.26328e-16
5.36698e-18
1.04572e-16
3.41399e-18
7.20645e-17
1.49897e-18
3.75793e-17
3.22019e-19
1.14498e-17
2.11911e-20
1.51834e-18
3.2589e-21
5.69383e-20
1.53556e-25
1.94554e-23
-2.08493e-22
-1.96064e-21
-1.81228e-22
-1.3602e-21
-1.2116e-22
-6.74808e-22
-6.98327e-23
-2.62467e-22
-3.61605e-23
-7.88945e-23
-1.75626e-23
-1.55045e-23
-8.59993e-24
3.70937e-25
1.16545e-24
-4.35858e-24
2.2396e-18
3.85209e-16
3.25894e-18
1.67477e-16
6.67094e-18
1.80525e-16
7.65273e-18
2.54311e-16
9.49611e-18
1.47733e-16
1.00346e-17
1.37293e-16
1.05251e-17
1.31883e-16
1.07156e-17
1.27938e-16
8.96163e-18
1.12129e-16
5.64995e-18
7.91138e-17
2.38769e-18
4.03657e-17
4.47208e-19
1.16566e-17
2.37655e-20
1.33351e-18
1.47411e-22
2.75804e-20
6.72143e-24
4.94304e-23
-1.03274e-22
-6.72191e-22
-9.41679e-23
-4.93113e-22
-6.10731e-23
-2.40497e-22
-3.30176e-23
-8.90116e-23
-1.58072e-23
-2.48814e-23
-7.06078e-24
-4.28511e-24
-3.21191e-24
1.74865e-25
3.37923e-25
-1.52891e-24
1.28971e-17
1.3944e-15
4.82223e-18
1.72309e-16
7.91723e-18
1.74398e-16
1.05412e-17
2.48771e-16
1.21263e-17
1.43283e-16
1.28373e-17
1.33715e-16
1.32741e-17
1.29261e-16
1.36962e-17
1.28272e-16
1.17887e-17
1.12909e-16
7.4223e-18
8.0069e-17
3.00169e-18
4.06807e-17
5.06347e-19
1.10976e-17
1.69761e-20
8.83219e-19
4.32e-23
8.68842e-21
3.37532e-24
9.12332e-24
-4.41747e-23
-2.31969e-22
-4.12236e-23
-1.75221e-22
-2.57813e-23
-8.29685e-23
-1.30839e-23
-2.89595e-23
-5.80737e-24
-7.46145e-24
-2.38483e-24
-1.1042e-24
-1.01089e-24
6.07379e-26
8.60302e-26
-4.47938e-25
3.39765e-17
1.63031e-15
2.96605e-16
4.45023e-14
1.14041e-17
4.56355e-16
3.11043e-14
1.79158e-12
2.34508e-17
3.12214e-14
1.60146e-17
1.38282e-16
1.58767e-17
1.2653e-16
1.64075e-17
1.27174e-16
1.40217e-17
1.12412e-16
8.70981e-18
7.95438e-17
3.31324e-18
3.86213e-17
4.33987e-19
8.64235e-18
7.71474e-21
4.3076e-19
8.11265e-24
2.12758e-21
7.13042e-25
8.54846e-25
-1.78051e-23
-8.19902e-23
-1.64413e-23
-6.16761e-23
-9.76232e-24
-2.78809e-23
-4.60091e-24
-9.05702e-24
-1.86931e-24
-2.11724e-24
-6.94078e-25
-2.62513e-25
-2.70882e-25
1.69649e-26
1.88936e-26
-1.10282e-25
3.31714e-16
1.56834e-15
8.11773e-14
3.35632e-13
2.71466e-13
2.22589e-12
1.72149e-13
2.20773e-12
0
1.72267e-12
2.33843e-17
2.16109e-14
1.69775e-17
1.30031e-16
1.84046e-17
1.21953e-16
1.56119e-17
1.07992e-16
9.22958e-18
7.38927e-17
2.98516e-18
3.15821e-17
2.59124e-19
5.14798e-18
2.32368e-21
1.49702e-19
1.10043e-24
3.76869e-22
9.96874e-26
6.55362e-26
-7.02509e-24
-2.99661e-23
-6.17201e-24
-2.16138e-23
-3.40495e-24
-9.13523e-24
-1.46374e-24
-2.71378e-24
-5.3267e-25
-5.63668e-25
-1.75063e-25
-5.73072e-26
-6.17573e-26
3.87059e-27
3.49897e-27
-2.2709e-26
3.73145e-16
1.46401e-15
1.18832e-13
3.98203e-13
3.27161e-13
2.02029e-12
3.52947e-13
2.18439e-12
1.3772e-13
1.61623e-12
2.1689e-17
6.3892e-14
1.21524e-17
1.38907e-16
1.89283e-17
1.14596e-16
1.6037e-17
9.89822e-17
8.44907e-18
6.19322e-17
2.06951e-18
2.12961e-17
1.03691e-19
2.24608e-18
4.31687e-22
3.33936e-20
8.88667e-26
3.75631e-23
9.89986e-27
4.66489e-26
-2.77278e-24
-1.14046e-23
-2.21112e-24
-7.5402e-24
-1.10423e-24
-2.90916e-24
-4.23195e-25
-7.74142e-25
-1.34289e-25
-1.39557e-25
-3.79514e-26
-1.14103e-26
-1.18057e-26
7.18429e-28
5.3243e-28
-3.8455e-27
4.31981e-16
1.29956e-15
1.34742e-13
1.04773e-13
4.25214e-13
1.73233e-12
4.31175e-13
2.18097e-12
5.60761e-14
4.86881e-13
1.8458e-18
1.40714e-14
1.6452e-17
1.23469e-16
1.96558e-17
1.10578e-16
1.4693e-17
8.60012e-17
6.39825e-18
4.54169e-17
1.04479e-18
1.12566e-17
2.5563e-20
6.50503e-19
4.1718e-23
3.99485e-21
3.32064e-24
1.78965e-24
-2.48693e-25
-1.15116e-24
-1.10703e-24
-4.52904e-24
-7.59413e-25
-2.60897e-24
-3.34051e-25
-8.97076e-25
-1.11187e-25
-2.0911e-25
-2.98385e-26
-3.19125e-26
-6.99264e-27
-2.06551e-27
-1.85748e-27
1.07346e-28
6.46785e-29
-5.22628e-28
2.85403e-15
2.1886e-15
5.98597e-14
4.97619e-15
2.74661e-13
0
2.30517e-13
1.47001e-13
0
0
0
3.66721e-16
2.20687e-17
1.33003e-16
1.9269e-17
1.07782e-16
1.14375e-17
6.74842e-17
3.76537e-18
2.72427e-17
3.44641e-19
4.1371e-18
3.29612e-21
1.03352e-19
1.73747e-24
2.08697e-22
1.72687e-25
4.30652e-26
-2.80253e-25
-1.30225e-24
-4.36066e-25
-1.81811e-24
-2.5062e-25
-8.92054e-25
-9.46771e-26
-2.67804e-25
-2.66083e-26
-5.34745e-26
-5.83939e-27
-6.73405e-27
-1.08697e-27
-3.4095e-28
-2.35802e-28
1.27416e-29
6.06425e-30
-5.52818e-29
1.24854e-15
3.0367e-15
9.32969e-16
2.36549e-15
8.49042e-16
7.39743e-17
2.75995e-15
0
8.25931e-17
5.95579e-17
5.32009e-17
3.34649e-16
2.84812e-17
2.02402e-16
1.56047e-17
1.02988e-16
7.04803e-18
4.49589e-17
1.50768e-18
1.17306e-17
6.0366e-20
8.41816e-19
1.762e-22
6.84872e-21
2.79e-26
4.15317e-24
4.74556e-27
2.38282e-26
-1.66845e-25
-7.9036e-25
-1.67615e-25
-7.25146e-25
-8.00301e-26
-3.01828e-25
-2.53747e-26
-7.78225e-26
-5.84929e-27
-1.30408e-26
-1.01272e-27
-1.32208e-27
-1.42177e-28
-5.16676e-29
-2.36373e-29
1.19952e-30
4.23066e-31
-4.37361e-30
1.51726e-15
1.18194e-15
1.18616e-15
3.219e-15
3.5955e-16
1.91736e-15
1.38758e-16
6.5903e-16
9.903e-17
4.51081e-16
7.74704e-17
4.06699e-16
3.12591e-17
2.12767e-16
1.12922e-17
8.28598e-17