/*--------------------------------*- C++ -*----------------------------------*\
  =========                 |
  \\      /  F ield         | OpenFOAM: The Open Source CFD Toolbox
   \\    /   O peration     | Website:  https://openfoam.org
    \\  /    A nd           | Version:  9
     \\/     M anipulation  |
\*---------------------------------------------------------------------------*/
FoamFile
{
    format      ascii;
    class       volScalarField;
    location    "9.66";
    object      alpha.water;
}
// * * * * * * * * * * * * * * * * * * * * * * * * * * * * * * * * * * * * * //

dimensions      [0 0 0 0 0 0 0];

internalField   nonuniform List<scalar> 
2268
(
1
0.999999
0.999999
0.999998
0.999999
0.999999
0.999999
0.999998
0.999996
0.999997
0.999999
0.999999
0.999999
0.999999
0.999999
0.999999
1
1
0.999542
0.99828
0.99948
0.999997
0.999939
0.999999
0.999998
0.999997
0.999997
0.999999
0.999999
0.999997
0.999996
0.999996
0.999997
0.999999
0.999999
0.999999
0.999999
0.999999
0.999998
0.999999
1
0.998862
0.99828
0.999623
0.999997
0.999996
0.999997
0.999996
0.999997
0.999998
0.999999
0.999999
0.999999
0.999998
0.999999
0.999999
0.999999
0.999999
0.999999
1
0.999998
0.99999
0.999998
1
0.998641
0.99828
0.999684
0.999997
0.999996
0.999999
0.999998
0.999999
0.999999
0.999999
1
1
0.999999
0.999999
0.999999
1
1
1
1
0.999996
0.999945
0.999967
1
0.999308
0.99828
0.999656
0.999997
0.999838
1
0.999999
1
1
1
1
1
1
1
1
1
1
1
1
1
0.999804
0.999702
0.999892
0.99993
0.998838
0.999769
0.999616
0.999619
1
1
1
1
1
1
1
1
1
1
1
1
1
1
1
0.999664
0.999025
0.99997
0.99997
0.999961
0.999961
0.996465
0.999525
1
1
1
1
1
1
1
1
1
1
1
1
1
1
1
1
0.995923
0.994045
0.99997
0.99997
0.995885
0.994598
0.999322
1
1
1
1
1
1
1
1
1
0.999999
0.999999
0.999999
1
0.999999
1
1
0.993681
0.990653
0.994026
0.997922
0.993201
0.995084
0.999824
0.999816
0.999657
0.999604
0.999604
0.999765
0.999975
0.997758
0.995815
0.995804
0.995561
0.992423
0.992423
0.997366
0.998686
0.998686
0.998686
0.998686
0.998686
0.998686
0.999827
0.999827
0.999992
0.999991
0.999998
0.999997
0.999997
0.999997
0.999997
0.999997
0.997544
0.992413
0.992999
0.998686
0.998686
0.998686
0.998308
0.996583
0.997668
0.999827
0.998138
0.999999
0.999999
0.999998
0.999993
0.999963
0.999955
0.999941
0.999985
0.999388
0.992413
0.992413
0.996017
0.998686
0.998416
0.995851
0.995851
0.995857
0.997346
0.996338
0.999999
0.999999
0.999998
0.999947
0.999816
0.999753
0.999578
0.999563
0.999556
0.996475
0.992926
0.996797
0.998686
0.998686
0.997463
0.996659
0.998557
0.992404
0.997536
0.999999
0.999997
0.999993
0.999883
0.999882
0.999851
0.99938
0.999379
0.999406
0.999687
0.999199
0.999434
0.997613
0.998564
0.998562
0.99856
0.998558
0.992404
0.99792
0.999996
0.99999
0.999987
0.999997
0.999997
0.999814
0.999579
0.999672
0.999689
0.999689
0.999689
0.999689
0.996769
0.992201
0.992821
0.998496
0.998446
0.993734
0.999359
0.999996
0.999997
0.999997
0.999997
0.999992
0.999338
0.998654
0.999689
0.999689
0.999689
0.999689
0.99956
0.994163
0.990941
0.990941
0.99599
0.998446
0.999717
0.999992
0.999996
0.999997
0.999997
0.999997
0.999997
0.998498
0.992653
0.994618
0.99944
0.999689
0.999604
0.996028
0.992945
0.996534
0.990941
0.995181
0.998446
1
1
1
1
1
1
1
0.999999
0.999999
0.999999
0.999999
0.999999
1
1
1
1
0.999999
0.995757
0.991144
0.991579
0.996584
0.999987
0.999998
0.971919
0.971643
0.972108
0.973567
0.975812
0.977841
0.97973
0.981661
0.982576
0.983155
0.983466
0.983462
0.984463
0.986314
0.989069
0.992963
0.997512
0.998325
0.998632
0.998945
0.999264
0.999564
0.9967
0.295668
0.297359
0.299559
0.301522
0.303711
0.306777
0.310597
0.315182
0.321061
0.32788
0.335245
0.342821
0.349677
0.355731
0.360931
0.365653
0.371091
0.379833
0.386959
0.390531
0.391746
0.391735
0.394023
0.000322216
0.000321502
0.000320353
0.000321502
0.000322296
0.000323983
0.000325563
0.000326845
0.000328109
0.000329451
0.000330706
0.000331845
0.000375944
0.000424879
0.000566372
0.000785169
0.00107172
0.000823049
0.000427769
0.000422957
0.000498692
0.000499084
0.000402283
0.000566389
0.00056626
0.00031913
0.000698624
0.00122627
0.00128579
0.00128524
0.00143362
0.00156865
0.00158207
0.00158805
0.00158885
0.00155013
0.00147332
0.00146011
0.0014603
0.0013173
0.000917866
0.000381364
0.000418017
0.000498547
0.000486445
0.000331583
0.000195664
0.00021504
0.000260593
0.000194993
6.69106e-08
6.69105e-08
6.69105e-08
6.69104e-08
6.69105e-08
6.6911e-08
6.69159e-08
5.84611e-07
5.65152e-07
1.59486e-05
2.01116e-05
2.09376e-05
4.01367e-05
0.000167011
0.000238919
0.00021452
0.000233375
0.000249267
0.000132917
2.02723e-09
2.02038e-09
2.64035e-06
6.75555e-08
6.73239e-08
6.69106e-08
6.69104e-08
6.69105e-08
6.6911e-08
6.69159e-08
2.13263e-06
3.40451e-05
4.19043e-05
4.19034e-05
4.19041e-05
9.38375e-06
6.10955e-09
1.06855e-06
6.61781e-06
9.53327e-08
3.41951e-06
3.51183e-05
5.77148e-05
2.0345e-09
2.01533e-09
1.51656e-08
2.62938e-07
7.49741e-07
9.23113e-07
1.66654e-07
4.73971e-07
9.51157e-07
5.44995e-07
1.42068e-06
1.17169e-05
1.82911e-05
1.14987e-05
6.76434e-06
8.06485e-06
6.07269e-09
6.01816e-09
6.02557e-09
6.01651e-09
6.07382e-09
4.78888e-08
6.75941e-07
2.06205e-09
2.0081e-09
1.94108e-09
2.2051e-07
1.72531e-06
1.72541e-06
1.42007e-06
1.54529e-06
2.57336e-06
2.57336e-06
4.29267e-07
4.2818e-10
4.2809e-10
4.53912e-10
2.79204e-06
7.00598e-06
5.08112e-07
6.01384e-09
6.01385e-09
6.0151e-09
6.01678e-09
6.02382e-09
1.64181e-07
2.21282e-09
2.03962e-09
1.88548e-09
6.76347e-08
1.36233e-06
1.72527e-06
1.53705e-06
1.4682e-06
2.57336e-06
2.5277e-06
1.29521e-07
4.14991e-10
3.0309e-08
1.78453e-08
2.0137e-07
6.41991e-07
6.41715e-07
6.01385e-09
6.01384e-09
6.01385e-09
6.0151e-09
3.31607e-07
1.51832e-05
2.14404e-09
1.76814e-09
1.76814e-09
2.1486e-09
4.08653e-07
1.19601e-06
3.33679e-07
9.02134e-07
2.57332e-06
1.54223e-06
3.99193e-10
4.00977e-10
4.6452e-07
1.79083e-06
1.4382e-06
2.23483e-08
1.87778e-08
1.21889e-08
1.46314e-08
1.03938e-08
7.27064e-09
5.68703e-07
1.70469e-05
2.93593e-09
1.76814e-09
4.01554e-09
1.69798e-09
3.83743e-09
3.48738e-08
3.49601e-08
4.94036e-07
2.57235e-06
5.85448e-07
3.97899e-10
3.99193e-10
4.26242e-07
4.91405e-06
5.49979e-06
2.78308e-06
8.70392e-09
8.69031e-09
1.63061e-08
1.63986e-08
1.0393e-08
4.15899e-08
7.65253e-07
7.45024e-09
7.86622e-08
8.71954e-08
2.83494e-09
7.48795e-10
7.48782e-10
3.6358e-08
1.15012e-06
1.6053e-06
3.97473e-10
3.97473e-10
3.97895e-10
2.05073e-07
4.21076e-06
5.49979e-06
5.49979e-06
2.41868e-06
5.49515e-09
5.74695e-09
1.06279e-08
9.01375e-09
4.13858e-09
3.34073e-09
1.05938e-08
1.00547e-07
1.00537e-07
1.1603e-08
7.48788e-10
1.88815e-08
8.48937e-07
1.39864e-06
9.17048e-07
3.97473e-10
3.97473e-10
4.36794e-10
2.5341e-10
2.04709e-07
3.78252e-06
5.49578e-06
3.99019e-06
5.49526e-09
5.49515e-09
5.50829e-09
7.90199e-09
9.3212e-09
1.10796e-08
8.69076e-09
1.00543e-07
1.00545e-07
1.16505e-08
7.55718e-10
1.86404e-07
1.3988e-06
1.39888e-06
4.84103e-07
3.97473e-10
4.88502e-10
5.17269e-10
1.88342e-10
5.05956e-09
2.69783e-07
8.91041e-07
8.96549e-07
1.11877e-07
5.49528e-09
5.61119e-09
1.15499e-08
1.09886e-08
1.7855e-08
3.65226e-09
3.17105e-08
6.4491e-08
5.90933e-09
8.4244e-10
1.15426e-07
1.35647e-06
1.29319e-06
8.54307e-11
4.2747e-10
6.70584e-10
5.28679e-10
1.2832e-10
6.40246e-11
7.00273e-11
1.07189e-10
2.47902e-09
1.69181e-08
9.52598e-09
1.2344e-08
1.23442e-08
5.96321e-09
1.08328e-09
5.22945e-10
3.80485e-10
2.35356e-09
9.39192e-10
9.21195e-10
4.25872e-08
1.82073e-07
2.06174e-07
8.52976e-11
4.51656e-10
6.52809e-10
3.39737e-10
8.01622e-11
5.88005e-11
5.88027e-11
5.88213e-11
7.32675e-11
8.40977e-10
4.03269e-09
5.75736e-09
4.49365e-09
1.28743e-09
2.97366e-10
3.80349e-10
3.80447e-10
3.80484e-10
4.31883e-10
2.73783e-09
1.21721e-08
1.28216e-10
1.16414e-11
8.53004e-11
3.47604e-10
3.91569e-10
1.26979e-10
4.08842e-11
5.21992e-11
5.985e-11
6.03222e-11
5.99373e-11
7.32212e-11
1.61106e-10
1.79897e-10
1.19765e-10
1.0741e-10
1.01517e-10
3.80418e-10
4.27323e-08
2.09251e-09
4.62049e-10
3.41918e-09
4.41116e-09
3.88521e-11
1.14529e-11
5.14584e-11
1.3729e-10
1.01292e-10
2.10509e-11
1.16835e-11
3.20131e-11
4.36518e-11
4.53149e-11
3.98217e-11
2.3892e-11
1.15385e-11
5.2233e-12
2.7323e-12
2.1897e-12
2.12625e-12
2.36213e-07
2.39017e-07
4.7034e-09
4.93226e-10
2.94396e-09
1.02291e-09
2.0946e-11
1.14522e-11
1.41992e-11
1.92504e-11
7.44288e-12
8.182e-13
1.18055e-12
8.4383e-12
1.45389e-11
1.54293e-11
1.17826e-11
5.50284e-12
2.22923e-12
1.10918e-12
5.43702e-13
2.58513e-13
2.01342e-13
2.76385e-07
2.2392e-07
2.55626e-09
4.65657e-10
1.6661e-09
9.89869e-11
1.38389e-11
9.7868e-12
1.35375e-12
4.71578e-13
3.28523e-14
-2.11221e-13
-9.88475e-14
4.09719e-13
1.0834e-12
1.20752e-12
7.17013e-13
2.65085e-13
9.32962e-14
4.09107e-14
1.32219e-14
9.19718e-16
4.09032e-16
2.76385e-07
3.86769e-08
3.46146e-10
3.53417e-10
4.77144e-10
1.00328e-11
8.58879e-12
6.03267e-12
-2.01948e-31
-3.44211e-13
-5.69269e-13
-7.47576e-13
-6.21074e-13
-2.90586e-13
-3.07636e-14
2.44699e-15
-7.27242e-15
-6.70934e-14
-7.81024e-14
-6.78141e-14
-5.16663e-14
-3.55039e-14
-2.21464e-14
2.76269e-07
1.29788e-10
1.29788e-10
1.71839e-10
6.70345e-11
4.20564e-12
3.40238e-12
1.64792e-12
-3.63132e-13
-7.59125e-13
-9.15992e-13
-9.51189e-13
-8.00067e-13
-5.51059e-13
-3.523e-13
-2.42251e-13
-1.88573e-13
-1.51528e-13
-1.14649e-13
-8.16926e-14
-5.49284e-14
-3.47467e-14
-2.07006e-14
2.76479e-07
7.13458e-08
2.09867e-10
5.01511e-11
2.78917e-11
4.15987e-12
5.45733e-13
7.53075e-14
-5.03211e-13
-8.30742e-13
-9.25279e-13
-8.87438e-13
-7.37998e-13
-5.44612e-13
-3.80844e-13
-2.66659e-13
-1.89979e-13
-1.33121e-13
-8.93287e-14
-5.73591e-14
-3.55726e-14
-2.13453e-14
-1.2297e-14
2.76482e-07
2.73455e-07
1.13457e-09
2.88793e-11
2.88786e-11
4.51197e-12
2.98866e-13
5.03308e-14
-3.56831e-13
-6.0648e-13
-6.84649e-13
-6.54386e-13
-5.48437e-13
-4.14344e-13
-2.94271e-13
-2.02707e-13
-1.36795e-13
-8.86967e-14
-5.46399e-14
-3.2075e-14
-1.82455e-14
-1.02586e-14
-5.70692e-15
2.76482e-07
2.76482e-07
1.60051e-09
3.28028e-11
3.6216e-11
5.86499e-12
7.06034e-13
4.64912e-13
2.88547e-14
-1.68207e-13
-2.90897e-13
-3.40758e-13
-3.22277e-13
-2.59911e-13
-1.8775e-13
-1.27108e-13
-8.25727e-14
-5.05608e-14
-2.90208e-14
-1.56627e-14
-8.09381e-15
-4.15703e-15
-2.17732e-15
2.76482e-07
2.30242e-07
4.60739e-10
6.17199e-11
5.76691e-11
9.50312e-12
2.62142e-12
2.38963e-12
1.78134e-12
9.95621e-13
3.78079e-13
-4.58093e-15
-1.09714e-13
-1.29971e-13
-1.03098e-13
-6.94636e-14
-4.40619e-14
-2.58184e-14
-1.39528e-14
-6.97416e-15
-3.27365e-15
-1.51449e-15
-7.20543e-16
2.44431e-07
3.1259e-08
1.32042e-10
1.36829e-10
9.73977e-11
1.71258e-11
7.67046e-12
7.4932e-12
6.43143e-12
4.5452e-12
2.50454e-12
9.48972e-13
1.39203e-13
-3.91356e-14
-4.85566e-14
-3.39147e-14
-2.13444e-14
-1.20997e-14
-6.20293e-15
-2.88886e-15
-1.23997e-15
-5.21657e-16
-2.27637e-16
2.64489e-08
7.68129e-11
1.3136e-10
1.99872e-10
1.32068e-10
2.99084e-11
1.74006e-11
1.70303e-11
1.48988e-11
1.11477e-11
6.56787e-12
2.72921e-12
6.24752e-13
1.53934e-14
-1.7782e-14
-1.49193e-14
-9.52861e-15
-5.27715e-15
-2.58249e-15
-1.1269e-15
-4.47875e-16
-1.77404e-16
-7.45815e-17
7.68018e-11
7.67482e-11
1.60933e-10
2.06519e-10
1.36419e-10
4.61209e-11
3.16793e-11
3.07658e-11
2.66924e-11
2.02973e-11
1.22647e-11
5.04744e-12
1.05721e-12
5.52254e-14
-3.1798e-15
-5.90488e-15
-3.96465e-15
-2.16254e-15
-1.01413e-15
-4.17373e-16
-1.55778e-16
-5.80793e-17
-2.34681e-17
7.67482e-11
7.6748e-11
1.64874e-10
1.92072e-10
1.257e-10
5.4523e-11
4.60678e-11
4.54906e-11
3.96536e-11
3.02639e-11
1.84094e-11
7.18757e-12
1.24531e-12
5.82486e-14
-1.65326e-16
-2.16172e-15
-1.55592e-15
-8.40453e-16
-3.78233e-16
-1.47013e-16
-5.1369e-17
-1.79357e-17
-6.96254e-18
8.48798e-11
6.71513e-11
1.25463e-10
1.10939e-10
8.38133e-11
5.37602e-11
5.20091e-11
5.30399e-11
4.89744e-11
3.82751e-11
2.30156e-11
8.30361e-12
1.24778e-12
4.88439e-14
9.96739e-17
-7.53538e-16
-5.83969e-16
-3.12507e-16
-1.34657e-16
-4.92282e-17
-1.59486e-17
-5.15769e-18
-1.88444e-18
1.60702e-10
5.16106e-11
5.53742e-11
5.14881e-11
5.14959e-11
5.149e-11
5.19991e-11
5.39065e-11
5.18847e-11
4.1679e-11
2.4606e-11
8.40413e-12
1.12186e-12
2.93933e-14
6.90553e-17
-2.58328e-16
-2.12715e-16
-1.12068e-16
-4.59172e-17
-1.5616e-17
-4.60127e-18
-1.34779e-18
-4.54794e-19
3.33994e-10
5.14918e-11
5.14881e-11
5.1488e-11
5.1488e-11
5.1488e-11
5.5243e-11
5.4395e-11
5.18913e-11
4.1901e-11
2.45378e-11
7.95487e-12
8.25859e-13
1.27721e-14
1.857e-17
-8.98373e-17
-7.62285e-17
-3.90058e-17
-1.50065e-17
-4.66549e-18
-1.22123e-18
-3.16196e-19
-9.63384e-20
3.36529e-10
9.65165e-09
1.88323e-09
3.54575e-07
1.18821e-08
1.10597e-09
5.24626e-11
5.23585e-11
5.09962e-11
4.13258e-11
2.329e-11
6.48647e-12
4.67839e-13
4.03478e-15
2.41052e-18
-3.2151e-17
-2.71262e-17
-1.32258e-17
-4.69542e-18
-1.30535e-18
-2.95064e-19
-6.53421e-20
-1.75191e-20
3.3657e-10
2.15965e-08
6.28685e-07
8.19864e-07
7.18543e-07
9.26431e-08
4.37108e-11
4.3686e-11
4.81718e-11
3.8865e-11
1.98472e-11
4.25879e-12
1.91619e-13
8.51444e-16
1.99926e-19
-1.19124e-17
-9.63426e-18
-4.37349e-18
-1.40332e-18
-3.40337e-19
-6.43464e-20
-1.17041e-20
-2.67054e-21
3.36636e-10
5.0946e-09
8.19864e-07
8.19864e-07
8.19864e-07
1.72538e-07
4.21188e-11
4.16293e-11
4.43301e-11
3.37833e-11
1.4453e-11
2.13242e-12
5.2095e-14
1.02676e-16
6.5532e-21
-4.6025e-18
-3.42192e-18
-1.41065e-18
-4.00175e-19
-8.25545e-20
-1.26331e-20
-1.79869e-21
-3.33247e-22
7.38851e-10
7.38978e-10
3.82986e-07
8.19864e-07
6.44987e-07
7.83514e-08
5.30023e-11
4.16019e-11
3.96656e-11
2.61603e-11
8.51162e-12
7.51333e-13
8.29523e-15
5.90781e-18
-2.10083e-19
-1.8662e-18
-1.21527e-18
-4.44401e-19
-1.09147e-19
-1.87025e-20
-2.24412e-21
-2.3605e-22
-3.32338e-23
1.54477e-09
1.27481e-09
2.4076e-09
2.45454e-07
5.64643e-08
4.23507e-09
6.22383e-11
4.58968e-11
3.38067e-11
1.71133e-11
3.69257e-12
1.61379e-13
6.50808e-16
1.53319e-19
-3.83351e-19
-7.78438e-19
-4.3105e-19
-1.3735e-19
-2.87032e-20
-4.00497e-21
-3.67161e-22
-2.69067e-23
-2.61226e-24
7.52738e-10
1.26356e-09
6.66011e-10
2.71805e-10
1.04954e-10
7.86091e-11
7.86025e-11
5.04741e-11
2.58345e-11
8.68322e-12
1.00248e-12
1.68875e-14
2.04442e-17
1.10488e-21
-2.74965e-19
-3.26258e-19
-1.52893e-19
-4.20112e-20
-7.38649e-21
-8.28312e-22
-5.69912e-23
-2.7663e-24
-1.61937e-25
-5.99975e-27
7.3447e-10
6.99312e-10
3.5289e-10
1.84449e-10
1.38646e-10
1.0067e-10
4.77955e-11
1.64867e-11
2.97664e-12
1.33605e-13
6.48253e-16
2.12947e-19
-2.14691e-20
-1.59729e-19
-1.36619e-19
-5.44861e-20
-1.28822e-20
-1.902e-21
-1.71039e-22
-8.74708e-24
-2.69152e-25
-7.99064e-27
-8.06764e-28
1.45862e-10
5.81748e-10
5.3068e-10
3.96935e-10
2.36996e-10
1.02021e-10
3.14562e-11
5.49891e-12
3.78191e-13
4.78451e-15
5.5002e-18
6.57664e-22
-3.80865e-20
-8.54951e-20
-5.72212e-20
-1.96378e-20
-4.025e-21
-5.0549e-22
-3.72761e-23
-1.46443e-24
-2.70032e-26
-2.88753e-28
0.999998
0.999998
0.999998
0.999998
0.996274
0.99618
0.996425
0.996014
0.394366
0.393555
0.392364
0.391015
0.000326286
0.000534834
0.000591096
0.000485287
0.000255091
0.00053517
0.000591868
0.0003957
8.26188e-05
0.000256349
0.000385861
0.000339322
1.56624e-05
6.68864e-06
3.88947e-06
1.24489e-05
1.41102e-06
6.43949e-08
6.187e-08
5.12958e-08
1.31426e-05
2.11622e-05
6.54409e-06
1.31286e-06
2.11631e-05
2.11631e-05
2.11631e-05
2.1163e-05
2.11631e-05
2.11631e-05
2.11631e-05
2.11631e-05
6.90327e-06
2.11504e-05
2.11629e-05
2.11619e-05
2.37619e-09
2.1866e-09
2.1865e-09
2.1866e-09
1.115e-08
5.62751e-09
4.51108e-09
2.67977e-09
2.26055e-08
2.3692e-08
7.44715e-08
1.40993e-07
8.35352e-10
1.35911e-09
1.36366e-07
2.39188e-07
1.53759e-11
3.73086e-13
6.42565e-10
4.52405e-08
5.82539e-12
3.66444e-13
1.08048e-13
2.12574e-14
3.71746e-13
2.32992e-13
1.05284e-13
2.12444e-14
1.77752e-13
1.26289e-13
7.02945e-14
3.82527e-14
1.3054e-15
2.12614e-16
-7.3478e-16
-1.3399e-15
-1.27944e-14
-1.02095e-14
-8.1323e-15
-6.45127e-15
-1.17425e-14
-9.21444e-15
-7.2729e-15
-5.76007e-15
-6.71289e-15
-5.04683e-15
-3.85718e-15
-2.99044e-15
-3.08772e-15
-2.22715e-15
-1.6138e-15
-1.18036e-15
-1.21406e-15
-8.63116e-16
-6.04584e-16
-4.10684e-16
-4.30304e-16
-2.98099e-16
-2.0683e-16
-1.3711e-16
-1.44204e-16
-9.64364e-17
-6.46266e-17
-4.25086e-17
-4.70561e-17
-3.04265e-17
-1.95999e-17
-1.25013e-17
-1.44132e-17
-9.0236e-18
-5.61812e-18
-3.45528e-18
-4.13049e-18
-2.4852e-18
-1.48529e-18
-8.75706e-19
-1.06724e-18
-6.11641e-19
-3.4802e-19
-1.95251e-19
-2.43228e-19
-1.3148e-19
-7.05015e-20
-3.72431e-20
-4.79445e-20
-2.41275e-20
-1.20345e-20
-5.90648e-21
-7.97115e-21
-3.67453e-21
-1.67756e-21
-7.52381e-22
-1.08521e-21
-4.48673e-22
-1.83603e-22
-7.36598e-23
-1.16899e-22
-4.20729e-23
-1.49925e-23
-5.22626e-24
-9.54926e-24
-2.85934e-24
-8.50021e-25
-2.46798e-25
-5.61494e-25
-1.29352e-25
-2.98686e-26
-6.74789e-27
-2.20335e-26
-3.35041e-27
-5.2422e-28
-8.13454e-29
-5.05809e-28
-3.60573e-29
-2.77126e-30
-2.21369e-31
-4.12384e-30
-5.50179e-32
-7.31816e-34
-1.03588e-35
0.999998
0.999998
0.999998
0.999998
0.999673
0.997722
0.997465
0.997791
0.990979
0.985568
0.985566
0.987996
0.987655
0.988189
0.996529
0.996535
0.996206
0.996536
0.997756
0.99742
0.994227
0.989809
0.985653
0.982582
0.980698
0.978998
0.979795
0.984807
0.985594
0.985582
0.983531
0.981796
0.980252
0.978337
0.976171
0.974313
0.96867
0.966183
0.388603
0.383453
0.380001
0.37669
0.373072
0.369196
0.364279
0.357951
0.351335
0.345877
0.338616
0.332439
0.32712
0.321225
0.314819
0.310845
0.308904
0.30848
0.30829
0.000349184
0.000751424
0.000773377
0.000762706
0.000733296
0.000466453
0.000286344
0.000194819
0.00019099
0.000188913
0.000188564
0.000188373
0.000188174
0.000188373
0.000188603
0.000188977
0.000189298
0.00018964
0.000189961
0.000278261
0.000738552
0.000740648
0.000716753
0.000729569
0.000750812
0.000759408
0.000766573
0.000766602
0.000736981
0.000625462
0.000429479
0.000187957
0.000427141
0.000512533
0.000512525
0.000512533
0.00051251
0.00044135
0.00016959
0.000152328
0.00016846
0.000149031
0.00011725
9.18996e-05
7.19962e-05
5.63833e-05
2.21749e-05
1.01707e-05
1.01669e-05
1.14237e-05
7.5529e-05
6.69076e-05
6.32378e-05
9.0863e-05
0.000104382
0.000110667
0.000146224
2.26334e-05
1.46652e-08
2.24232e-08
2.16468e-07
4.3123e-07
5.57947e-06
6.85163e-06
6.15675e-06
6.15572e-06
1.49397e-05
2.57263e-05
3.59495e-05
3.52965e-05
2.00392e-05
1.1677e-06
5.15082e-07
5.1508e-07
5.1508e-07
5.1508e-07
1.4798e-08
1.45246e-08
1.47844e-08
1.97277e-06
2.42059e-05
3.34188e-05
3.34189e-05
1.90382e-05
2.85512e-05
4.32846e-05
4.32894e-05
4.32894e-05
4.32894e-05
3.07885e-05
1.67992e-06
5.15082e-07
5.1508e-07
5.1508e-07
5.1508e-07
3.17491e-07
1.45246e-08
1.45246e-08
1.36516e-05
3.35162e-05
3.35168e-05
2.38151e-05
2.7631e-05
2.38471e-05
1.00752e-05
1.86648e-05
2.82264e-05
2.74451e-05
5.69331e-06
5.1508e-07
5.1508e-07
5.1508e-07
5.1508e-07
5.1508e-07
1.43446e-05
1.45246e-08
2.28044e-08
4.95831e-06
1.14045e-05
5.89119e-06
7.80447e-08
1.66271e-07
3.36995e-10
3.37078e-10
3.36995e-10
4.57938e-10
1.46965e-06
4.98045e-06
5.1508e-07
5.1508e-07
5.1508e-07
5.1508e-07
5.17542e-07
2.1163e-05
1.54502e-05
2.21525e-09
2.21588e-09
2.21738e-09
2.21819e-09
2.67417e-07
4.5624e-07
1.72219e-07
3.03221e-10
1.34655e-07
4.45546e-06
7.54101e-06
3.41894e-06
5.1508e-07
5.1508e-07
5.15096e-07
5.18497e-07
5.18498e-07
1.50611e-05
6.53756e-06
2.21547e-09
2.21525e-09
2.32397e-09
2.39705e-07
4.65397e-07
4.56341e-07
1.17089e-07
2.69068e-10
7.53756e-07
7.67596e-06
7.67596e-06
5.87017e-06
5.15081e-07
5.1508e-07
5.15081e-07
5.15083e-07
5.15086e-07
2.1865e-09
2.56002e-09
3.03685e-09
2.80212e-09
9.72162e-09
1.15592e-08
7.74335e-09
2.64183e-10
2.64183e-10
2.64185e-10
2.66818e-10
2.88418e-06
7.67596e-06
7.67389e-06
2.29362e-06
5.15081e-07
5.15081e-07
5.15084e-07
5.15088e-07
3.14161e-09
2.23681e-09
2.23675e-09
2.23719e-09
1.79903e-09
2.64186e-10
2.64183e-10
2.64182e-10
2.64183e-10
3.09497e-10
3.08539e-10
6.81053e-11
3.42216e-06
6.18967e-06
2.85045e-06
1.70725e-06
4.11211e-06
3.7599e-06
1.72039e-06
1.61152e-07
1.04822e-07
1.73498e-08
6.18803e-10
6.18744e-10
5.17519e-10
2.84146e-10
2.68425e-10
4.57336e-10
5.28571e-10
3.46542e-10
6.81053e-11
6.81053e-11
7.04901e-11
1.44945e-06
1.04567e-05
1.04567e-05
1.04567e-05
1.04528e-05
2.39188e-07
2.39188e-07
2.08584e-07
1.02198e-08
1.01032e-09
1.0117e-09
5.94337e-09
1.0152e-08
2.86354e-09
2.73376e-10
1.79279e-10
7.2312e-11
6.92206e-11
7.02421e-11
9.85003e-07
7.93307e-06
1.02692e-05
6.05135e-06
3.11922e-06
1.74653e-07
2.39173e-07
2.39161e-07
2.20237e-07
1.01209e-09
1.28487e-09
3.70205e-08
6.39072e-08
2.97175e-08
2.42526e-09
2.86736e-11
4.43229e-11
6.91892e-11
3.62473e-10
7.07493e-09
1.00782e-12
2.08711e-07
1.23229e-12
1.28275e-12
4.7272e-10
8.05998e-08
2.1393e-07
1.65596e-07
9.54207e-09
2.46843e-09
5.17139e-08
6.39072e-08
6.39072e-08
2.28787e-08
2.86704e-11
3.56245e-11
1.3975e-10
5.06256e-10
1.00784e-12
1.00725e-12
1.00782e-12
1.11784e-12
1.37197e-12
2.34197e-19
4.93038e-35
5.73304e-50
3.80562e-20
8.51124e-10
2.35151e-09
2.9549e-08
6.39072e-08
6.12397e-08
2.10891e-08
2.86613e-11
2.86586e-11
4.66581e-11
4.83061e-11
4.92786e-11
1.00667e-12
7.0483e-11
7.67757e-09
3.21622e-08
1.30236e-14
-2.53625e-16
-1.48706e-16
-6.3734e-32
3.80546e-20
7.09062e-19
6.10836e-16
3.69839e-09
6.77069e-09
7.12867e-11
8.39659e-11
2.68396e-11
3.6777e-11
4.62096e-12
6.66997e-13
1.00439e-12
1.004e-12
4.02685e-08
1.44288e-06
-1.48197e-15
-1.08665e-15
-4.78588e-16
2.96424e-16
1.69602e-15
3.06867e-15
3.06864e-15
3.07271e-15
3.09065e-15
3.13408e-15
3.61448e-13
8.15477e-12
1.9203e-11
1.39258e-12
6.0401e-13
6.78772e-13
4.46486e-13
4.19702e-08
2.09199e-06
-5.11658e-15
-2.67066e-15
-1.17085e-15
5.08149e-18
3.5261e-15
1.41945e-14
2.94184e-14
6.7636e-14
1.21643e-13
1.61638e-13
2.10979e-13
3.82871e-13
5.07674e-13
1.91709e-13
8.5088e-14
4.4315e-13
4.43175e-13
1.67869e-09
2.09202e-06
-4.57336e-15
-2.56681e-15
-1.41557e-15
-7.39567e-16
-3.12799e-16
0
1.25354e-15
1.83817e-14
5.92826e-14
7.38329e-14
7.52444e-14
1.31259e-13
1.47177e-13
4.71003e-14
2.44167e-14
3.79196e-13
1.81108e-12
6.87562e-13
2.09196e-06
-2.34105e-15
-1.32878e-15
-7.51251e-16
-4.2243e-16
-2.34064e-16
-1.24717e-16
-5.61772e-17
-3.99559e-19
2.08517e-16
1.30512e-15
2.17938e-15
3.60232e-15
1.00235e-14
5.31458e-15
1.10615e-14
3.39229e-13
1.78508e-12
6.8754e-13
1.93189e-06
-8.79132e-16
-4.85682e-16
-2.688e-16
-1.4913e-16
-8.30064e-17
-4.66338e-17
-2.57972e-17
-1.27966e-17
-2.74856e-18
2.7712e-18
2.18415e-17
7.66909e-17
2.86e-16
1.22297e-15
8.49264e-15
3.11242e-13
1.77989e-12
6.87562e-13
1.77095e-07
-2.70191e-16
-1.43049e-16
-7.57812e-17
-4.05635e-17
-2.21235e-17
-1.21214e-17
-6.4879e-18
-3.01863e-18
-7.60322e-19
8.08494e-19
1.05409e-17
4.81817e-17
2.24602e-16
1.10675e-15
8.28563e-15
3.03125e-13
1.95697e-12
9.18792e-13
9.18799e-13
-7.3387e-17
-3.64391e-17
-1.85228e-17
-9.60097e-18
-5.00224e-18
-2.44751e-18
-9.38065e-19
9.08475e-20
1.6075e-18
1.0095e-17
2.15917e-17
5.12085e-17
2.20685e-16
1.11032e-15
1.12675e-14
3.12497e-13
2.29666e-12
1.17498e-12
4.73098e-09
-1.94673e-17
-8.80348e-18
-4.08868e-18
-1.94792e-18
-8.5717e-19
4.07967e-23
7.53827e-19
6.75765e-18
3.20022e-17
9.33684e-17
1.82735e-16
3.33406e-16
1.10254e-15
8.07326e-15
7.77715e-14
5.88119e-13
2.84778e-12
1.17545e-12
1.22395e-06
-5.13615e-18
-2.08279e-18
-8.61213e-19
-3.52815e-19
2.92576e-21
1.28495e-18
1.24386e-17
6.10604e-17
2.22201e-16
6.71877e-16
2.09413e-15
1.0784e-14
6.24742e-14
3.24984e-13
9.30991e-13
2.49323e-12
4.40317e-12
1.1791e-12
2.16788e-06
-1.32172e-18
-4.89175e-19
-1.80164e-19
-5.04198e-20
4.01968e-19
7.91644e-18
6.91288e-17
3.4546e-16
1.52478e-15
7.42822e-15
5.30322e-14
3.64536e-13
1.61479e-12
5.00718e-12
7.46854e-12
9.6233e-12
9.31264e-12
1.18097e-12
2.16792e-06
-3.12987e-19
-1.07076e-19
-3.53405e-20
9.34999e-21
1.10149e-18
2.15818e-17
2.72606e-16
1.92766e-15
1.38837e-14
1.04125e-13
7.81337e-13
4.09912e-12
1.30573e-11
2.69785e-11
3.09857e-11
2.61867e-11
2.17293e-11
1.18237e-12
2.15042e-06
-6.4778e-20
-2.0468e-20
-5.74409e-21
3.54798e-20
1.65942e-18
4.22123e-17
7.48334e-16
8.92812e-15
9.03778e-14
7.03871e-13
4.16762e-12
1.67084e-11
4.18335e-11
6.45778e-11
6.99224e-11
5.22022e-11
4.44182e-11
1.18606e-12
2.07057e-06
-1.13164e-20
-3.26252e-21
-5.264e-22
3.7712e-20
2.02142e-18
6.01074e-17
1.38686e-15
2.63862e-14
2.9557e-13
2.10184e-12
9.9943e-12
3.31643e-11
7.15546e-11
9.11637e-11
9.87213e-11
9.05712e-11
8.99658e-11
1.19903e-12
2.0707e-06
-1.61592e-21
-4.16905e-22
7.34862e-23
3.36123e-20
2.11193e-18
6.73543e-17
1.84108e-15
4.8076e-14
5.35364e-13
3.46299e-12
1.42283e-11
4.19704e-11
8.42203e-11
9.80486e-11
1.04184e-10
2.36711e-10
3.23543e-10
1.21343e-12
2.07063e-06
-1.81639e-22
-4.06584e-23
1.04066e-22
1.86423e-20
1.83712e-18
6.63223e-17
1.97264e-15
6.06737e-14
6.5583e-13
3.9819e-12
1.53625e-11
4.27197e-11
8.42152e-11
8.59962e-11
6.46306e-11
1.15359e-09
1.78199e-09
1.27726e-12
8.10333e-07
-1.53104e-23
-2.74798e-24
3.60791e-23
7.63041e-21
9.41782e-19
4.13714e-17
1.70134e-15
6.26348e-14
6.62552e-13
3.82437e-12
1.31459e-11
2.84111e-11
5.48466e-11
4.29134e-11
1.2618e-12
3.08446e-09
4.42451e-09
2.72461e-10
2.72518e-10
-9.05892e-25
-8.45795e-26
1.20775e-23
2.68159e-21
3.34385e-19
1.45909e-17
7.56519e-16
4.34982e-14
4.18143e-13
2.04409e-12
5.73882e-12
9.52132e-12
1.86516e-11
1.11926e-11
1.26168e-12
4.08062e-09
5.03626e-09
2.72518e-10
2.26761e-07
-3.4127e-26
8.95943e-27
2.62867e-24
7.30226e-22
9.56115e-20
3.79442e-18
1.92863e-16
1.43154e-14
1.26187e-13
5.50584e-13
1.35412e-12
2.04072e-12
3.66942e-12
1.55212e-12
1.26168e-12
2.62731e-09
4.73627e-09
4.68403e-10
6.47383e-07
-6.9542e-28
1.31379e-27
3.52752e-25
1.3035e-22
1.94231e-20
7.48235e-19
3.35894e-17
2.74281e-15
2.25736e-14
9.05895e-14
1.99499e-13
2.9257e-13
4.73655e-13
1.06226e-13
3.75667e-12
3.80922e-10
1.60127e-09
4.79666e-10
6.47393e-07
-5.53181e-30
9.80556e-29
2.52836e-26
1.35808e-23
2.27403e-21
9.37253e-20
3.83336e-18
3.17827e-16
2.43837e-15
8.98359e-15
1.7972e-14
2.54855e-14
3.71926e-14
3.97379e-15
1.19531e-11
1.53828e-11
9.13855e-11
2.81211e-23
6.33603e-07
-7.77179e-33
5.62988e-33
4.37064e-28
6.75092e-25
1.14713e-22
5.17224e-21
2.19681e-19
1.73573e-17
1.23757e-16
4.17843e-16
7.71644e-16
1.06405e-15
1.35499e-15
2.76117e-16
4.80335e-13
1.73572e-20
2.81211e-23
1.40606e-23
5.86663e-07
-6.87978e-38
-5.04402e-40
3.91457e-36
5.22468e-31
9.10842e-28
2.13363e-25
3.7442e-23
2.80514e-21
1.35192e-20
3.85144e-20
6.35877e-20
7.69809e-20
3.07363e-20
1.12575e-21
3.7021e-17
1.00909e-17
1.26105e-19
3.00927e-39
5.48155e-07
)
;

boundaryField
{
    leftWall
    {
        type            zeroGradient;
    }
    rightWall
    {
        type            zeroGradient;
    }
    lowerWall
    {
        type            zeroGradient;
    }
    atmosphere
    {
        type            inletOutlet;
        inletValue      uniform 0;
        value           nonuniform List<scalar> 
46
(
0
1.45862e-10
5.81748e-10
5.3068e-10
3.96935e-10
2.36996e-10
1.02021e-10
3.14562e-11
5.49891e-12
3.78191e-13
4.78451e-15
5.5002e-18
6.57664e-22
-3.80865e-20
-8.54951e-20
-5.72212e-20
-1.96378e-20
-4.025e-21
-5.0549e-22
-3.72761e-23
-1.46443e-24
-2.70032e-26
0
0
0
0
0
0
0
0
0
0
0
0
0
0
0
0
0
0
0
0
0
0
0
5.48155e-07
)
;
    }
    defaultFaces
    {
        type            empty;
    }
}


// ************************************************************************* //
