/*--------------------------------*- C++ -*----------------------------------*\
  =========                 |
  \\      /  F ield         | OpenFOAM: The Open Source CFD Toolbox
   \\    /   O peration     | Website:  https://openfoam.org
    \\  /    A nd           | Version:  9
     \\/     M anipulation  |
\*---------------------------------------------------------------------------*/
FoamFile
{
    format      ascii;
    class       volScalarField;
    location    "5.46";
    object      epsilon;
}
// * * * * * * * * * * * * * * * * * * * * * * * * * * * * * * * * * * * * * //

dimensions      [0 2 -3 0 0 0 0];

internalField   nonuniform List<scalar> 
2268
(
0.000411154
0.00207959
0.00363526
0.00501935
0.00624917
0.00734484
0.00832532
0.00920434
0.00999072
0.0106894
0.0113106
0.011903
0.0124295
0.0128656
0.0131278
0.013014
0.01203
0.0100596
0.00840141
0.00728791
0.00610824
0.00440511
0.00127372
0.000810413
0.00142121
0.00209454
0.00270549
0.00324826
0.00372822
0.00415182
0.00452517
0.00485342
0.00514107
0.00539439
0.00562709
0.00582698
0.00598448
0.00607267
0.00603215
0.00575733
0.00527044
0.00472325
0.00413934
0.00346078
0.00278738
0.0021023
0.00134552
0.00147429
0.00192206
0.00235576
0.0027491
0.0030998
0.00341023
0.00368415
0.00392549
0.00413803
0.00432582
0.00449432
0.00463815
0.00475024
0.00481363
0.00479658
0.00465934
0.00441804
0.00410593
0.00373963
0.0033634
0.0031222
0.00350485
0.00186188
0.00162952
0.001952
0.00229779
0.00262095
0.00291292
0.00317316
0.00340384
0.00360811
0.00378924
0.00395035
0.00409427
0.00421794
0.0043153
0.00437378
0.0043739
0.00429927
0.00416296
0.00397524
0.00376215
0.00360772
0.00370658
0.00505915
0.00235166
0.00181614
0.00204841
0.00233606
0.00261469
0.00287032
0.00309998
0.00330465
0.0034869
0.00364971
0.00379574
0.00392683
0.00404096
0.00413284
0.00419283
0.00420885
0.00417638
0.0041103
0.00401677
0.00393086
0.00396739
0.00440427
0.00691442
0.00282005
0.00201456
0.00217487
0.00241895
0.00266507
0.00289452
0.00310228
0.0032884
0.00345507
0.00360515
0.0037411
0.00386436
0.00397359
0.00406424
0.00412906
0.00416111
0.00416295
0.00415284
0.00413955
0.00416492
0.00437651
0.00521416
0.00947277
0.00327376
0.00221749
0.00231728
0.00252659
0.0027471
0.00295591
0.00314634
0.00331772
0.00347208
0.00361227
0.00374075
0.00385883
0.00396574
0.00405778
0.00412971
0.00417835
0.00421042
0.00424618
0.00429983
0.00441837
0.00478416
0.00612445
0.0138036
0.00371836
0.00242233
0.00246924
0.00264975
0.00284904
0.00304054
0.00321624
0.00337496
0.00351877
0.00365067
0.0037732
0.00388776
0.00399413
0.00408948
0.00417031
0.00423605
0.00429528
0.00436787
0.00447203
0.0046555
0.00512499
0.00693032
0.022821
0.00091822
0.00467421
0.00748273
0.00903232
0.00983471
0.0101875
0.0103502
0.0105641
0.010802
0.0104344
0.00876289
0.00693775
0.00523237
0.00604546
0.00851193
0.00789434
0.00555278
0.00333234
0.00126958
0.00119496
0.00265931
0.00362997
0.00421305
0.00453517
0.00468937
0.00475853
0.00480834
0.00482445
0.00466713
0.00427856
0.00385466
0.00344237
0.00354194
0.00382824
0.00351135
0.00282204
0.00211009
0.0015036
0.00209325
0.00267365
0.00319343
0.00351187
0.00368581
0.00376483
0.00379334
0.0038011
0.00377308
0.00364495
0.00343264
0.00321042
0.00298428
0.00296244
0.00297585
0.00273978
0.00232798
0.00188574
0.00195612
0.00319125
0.0030459
0.00324174
0.00338226
0.00345668
0.0034805
0.00347592
0.00345642
0.00340643
0.00328696
0.0031265
0.00296566
0.00281212
0.0027746
0.00270913
0.00248975
0.00216919
0.00182888
0.00222362
0.00451606
0.00358957
0.00345232
0.00343163
0.00342073
0.0033959
0.00336043
0.00331735
0.0032517
0.00313612
0.00299705
0.00286915
0.00276559
0.00272653
0.00263387
0.00240938
0.0021147
0.00181925
0.00234829
0.00647593
0.00426995
0.00373377
0.00355698
0.00346927
0.0034001
0.00333525
0.00327024
0.0031915
0.00307812
0.00295323
0.00285118
0.00278045
0.0027376
0.00264138
0.00240299
0.00209676
0.00182124
0.00237146
0.0101375
0.00505314
0.00403347
0.00371458
0.00356044
0.00345174
0.00335936
0.00327366
0.00318302
0.00307149
0.00295873
0.00287642
0.00282081
0.0027742
0.00268471
0.00243176
0.00209325
0.00182551
0.00235248
0.0181005
0.00574812
0.00429862
0.00387959
0.00367385
0.00353152
0.00341398
0.00330881
0.00320666
0.00309624
0.00299245
0.00292009
0.00286648
0.00281869
0.00273837
0.00247735
0.00210256
0.0018294
0.00230882
0.00441666
0.00274513
0.00271702
0.00285927
0.00302987
0.00319747
0.00335242
0.00349309
0.00362189
0.00374229
0.00385711
0.00396794
0.00407529
0.00417782
0.00427422
0.00436636
0.00446306
0.0045804
0.00473525
0.00496792
0.00543333
0.00663561
0.0103569
0.00528517
0.0031597
0.00305733
0.00316868
0.00330924
0.00344946
0.00357975
0.00369802
0.00380834
0.00391558
0.00402324
0.00413348
0.00424728
0.0043648
0.00448607
0.00461287
0.00474929
0.00489947
0.00507021
0.00528971
0.00562956
0.00623957
0.00732355
0.00629241
0.00359422
0.00343522
0.00353992
0.00363519
0.00373833
0.00383986
0.00393126
0.00401949
0.00411189
0.0042127
0.00432472
0.00444878
0.0045846
0.00473221
0.0048924
0.00506407
0.0052332
0.00539411
0.00558342
0.00582041
0.00614225
0.00655173
0.00730454
0.00403504
0.00389762
0.00407
0.00401984
0.00406928
0.00413869
0.0041908
0.00424651
0.00431804
0.00440917
0.00452365
0.00465994
0.00481492
0.00498671
0.00517622
0.00538406
0.00556445
0.00569626
0.00586629
0.00603877
0.00621933
0.00642622
0.0076869
0.00441975
0.00433435
0.00444513
0.00430828
0.0044182
0.00447812
0.00446719
0.00447293
0.0045146
0.00459611
0.0047139
0.00485463
0.0050083
0.00517341
0.00536465
0.00557716
0.00573573
0.00590166
0.00608004
0.00620884
0.00634937
0.00652264
0.00782317
0.00467033
0.00445816
0.00454569
0.00451299
0.00472742
0.00483473
0.00474111
0.00468456
0.00468947
0.00475062
0.00485643
0.00498721
0.00513472
0.00531235
0.00554607
0.00579435
0.00588153
0.00601898
0.00620714
0.00633734
0.00640274
0.00648154
0.00764134
0.00482017
0.00447332
0.00456829
0.00450825
0.00467039
0.00475178
0.00475649
0.00475655
0.00477814
0.00484054
0.00494368
0.00507693
0.00523295
0.00540121
0.0055726
0.0057369
0.00585338
0.00598361
0.00610777
0.00620395
0.00629302
0.00628741
0.00798661
0.00480263
0.00440573
0.00439416
0.00440967
0.00451409
0.00460996
0.00467998
0.00473928
0.00480295
0.00488992
0.00500457
0.0051421
0.00528941
0.00542684
0.00554607
0.00566946
0.00579283
0.00591091
0.00599707
0.00606294
0.0060933
0.00610683
0.00850122
0.00484297
0.00436142
0.00429153
0.00433072
0.00442801
0.00453884
0.00463683
0.00472282
0.00480853
0.0049055
0.00501709
0.00513978
0.00526424
0.00537859
0.00548307
0.00559331
0.00570271
0.00579205
0.00585324
0.00589528
0.00591545
0.00590987
0.00893329
0.0049254
0.00435853
0.00425799
0.00429356
0.00438679
0.00450019
0.00460921
0.00470762
0.00480143
0.0048979
0.00499941
0.00510372
0.00520692
0.00530633
0.00540414
0.00550377
0.00559285
0.00565872
0.00570628
0.00574156
0.00575887
0.00573042
0.00937799
0.00504028
0.00439482
0.00426208
0.00428172
0.00436383
0.00447088
0.00458049
0.00468309
0.00477951
0.00487356
0.00496679
0.00505866
0.00514907
0.00523879
0.00532854
0.00541529
0.00548827
0.00554208
0.00558245
0.00561058
0.00561648
0.0055834
0.00977592
0.00516762
0.00445115
0.00428439
0.00428282
0.00434915
0.00444487
0.00454891
0.00465043
0.00474685
0.00483904
0.00492768
0.00501325
0.00509688
0.00517957
0.00526067
0.00533609
0.00539865
0.00544546
0.005479
0.00549848
0.00549673
0.00546601
0.0101244
0.00528804
0.00451261
0.00431393
0.00429063
0.00434023
0.00442305
0.00451868
0.00461606
0.00471068
0.00480133
0.00488781
0.00497058
0.00505051
0.00512802
0.00520194
0.00526902
0.00532485
0.00536696
0.00539523
0.00540866
0.00540339
0.0053764
0.010418
0.0053945
0.00457068
0.0043447
0.00430187
0.00433597
0.0044065
0.00449324
0.0045852
0.00467693
0.00476595
0.00485127
0.00493277
0.00501068
0.00508483
0.00515399
0.00521583
0.00526758
0.00530695
0.00533268
0.00534375
0.00533844
0.00531604
0.0106759
0.00548812
0.00462279
0.0043736
0.00431414
0.00433501
0.00439477
0.00447342
0.00456003
0.00464862
0.00473604
0.00482067
0.00490176
0.00497895
0.00505161
0.00511857
0.00517808
0.00522819
0.00526698
0.00529301
0.00530528
0.00530312
0.00528664
0.0109097
0.00557013
0.00466801
0.00439897
0.00432557
0.00433557
0.00438659
0.00445858
0.00454066
0.00462665
0.00471298
0.00479758
0.00487923
0.00495706
0.00503018
0.00509742
0.00515734
0.00520841
0.00524912
0.00527817
0.00529468
0.00529829
0.00528914
0.0111223
0.00564094
0.00470584
0.00441976
0.0043348
0.00433613
0.00438048
0.0044476
0.00452658
0.00461112
0.00469743
0.00478312
0.00486663
0.00494676
0.00502242
0.00509242
0.00515547
0.00521025
0.00525555
0.00529023
0.00531349
0.00532493
0.00532449
0.0113131
0.00570046
0.00473588
0.00443533
0.00434104
0.00433579
0.00437552
0.0044397
0.00451734
0.00460206
0.00468991
0.00477829
0.0048654
0.00494982
0.00503031
0.00510564
0.00517457
0.00523589
0.00528847
0.0053313
0.00536355
0.00538468
0.00539442
0.0114777
0.00574789
0.00475775
0.00444535
0.00434396
0.00433424
0.00437142
0.00443469
0.00451299
0.00459983
0.00469115
0.00478422
0.00487706
0.0049681
0.00505596
0.00513934
0.005217
0.0052877
0.00535032
0.00540386
0.00544738
0.00548017
0.00550175
0.0116104
0.00578216
0.00477118
0.00444975
0.0043436
0.00433158
0.00436835
0.00443288
0.004514
0.00460517
0.00470222
0.00480233
0.00490338
0.00500366
0.0051017
0.00519609
0.0052855
0.00536862
0.00544421
0.0055112
0.00556849
0.0056152
0.00565059
0.0117089
0.00580279
0.00477616
0.00444874
0.00434026
0.00432823
0.00436684
0.00443492
0.00452123
0.00461915
0.00472449
0.0048343
0.00494638
0.00505891
0.00517027
0.00527894
0.00538342
0.00548229
0.00557411
0.00565766
0.00573163
0.0057949
0.00584655
0.0117724
0.00580975
0.00477297
0.00444275
0.00433451
0.00432484
0.00436768
0.00444174
0.00453578
0.00464315
0.00475961
0.00488215
0.00500848
0.00513665
0.0052649
0.00539154
0.0055149
0.00563331
0.00574515
0.00584885
0.00594294
0.00602601
0.00609685
0.011797
0.00580329
0.0047622
0.00443243
0.00432707
0.00432224
0.0043718
0.00445447
0.004559
0.00467878
0.00480953
0.00494822
0.00509245
0.00524017
0.00538943
0.00553833
0.00568497
0.00582739
0.00596366
0.00609188
0.00621025
0.00631701
0.00641067
0.0117835
0.00578438
0.0047447
0.00441864
0.00431882
0.0043214
0.00438031
0.00447437
0.00459242
0.00472788
0.0048765
0.00503522
0.00520156
0.00537334
0.00554843
0.00572466
0.00589981
0.00607158
0.00623762
0.00639561
0.00654332
0.00667857
0.00679949
0.0117389
0.00575471
0.00472156
0.00440233
0.00431074
0.00432337
0.00439442
0.00450288
0.00463773
0.00479251
0.00496302
0.0051462
0.00533954
0.00554068
0.00574729
0.00595689
0.00616687
0.00637445
0.00657677
0.00677098
0.00695424
0.00712386
0.00727747
0.011669
0.00571602
0.00469392
0.00438451
0.00430385
0.0043293
0.00441543
0.00454153
0.00469679
0.00487492
0.00507187
0.00528462
0.00551061
0.00574738
0.00599231
0.00624258
0.00649506
0.00674638
0.00699302
0.00723141
0.00745791
0.00766913
0.00786211
0.0115781
0.00566981
0.00466286
0.0043662
0.00429924
0.00434036
0.00444469
0.0045919
0.0047715
0.00497751
0.00520604
0.00545422
0.00571952
0.00599932
0.00629077
0.00659056
0.00689497
0.00719986
0.00750079
0.00779325
0.00807254
0.00833434
0.00857489
0.0114689
0.0056171
0.00462933
0.00434841
0.00429798
0.00435775
0.00448356
0.00465561
0.00486387
0.00510274
0.00536869
0.00565906
0.00597142
0.00630309
0.00665092
0.00701108
0.00737908
0.00774976
0.0081175
0.00847644
0.00882046
0.00914398
0.00944219
0.01134
0.00555803
0.00459407
0.0043321
0.00430117
0.00438269
0.00453341
0.00473425
0.00497582
0.00525308
0.00556299
0.00590329
0.00627181
0.00666585
0.00708199
0.00751585
0.00796193
0.00841377
0.00886408
0.0093052
0.00972901
0.0101282
0.0104964
0.0111772
0.00549202
0.00455798
0.00431844
0.00431002
0.00441641
0.00459556
0.00482932
0.00510914
0.00543078
0.00579194
0.00619098
0.00662615
0.00709499
0.0075939
0.00811788
0.00866025
0.00921277
0.00976587
0.0103092
0.010832
0.0113242
0.0117778
0.0109798
0.00542285
0.00452332
0.00430903
0.00432583
0.00446006
0.00467111
0.00494197
0.00526518
0.00563759
0.00605795
0.0065256
0.00703958
0.00759795
0.0081972
0.00883172
0.00949344
0.0101717
0.0108538
0.0115254
0.0121716
0.0127789
0.0133365
0.010777
0.0053585
0.00449234
0.00430496
0.00434948
0.00451449
0.00476084
0.00507293
0.00544471
0.00587451
0.00636258
0.00690973
0.00751638
0.00818166
0.00890259
0.00967323
0.0104839
0.0113208
0.0121662
0.0130002
0.0138016
0.0145517
0.0152361
0.0105473
0.00529144
0.00446389
0.00430667
0.00438181
0.00458046
0.00486528
0.00522242
0.0056477
0.00614143
0.00670597
0.00734436
0.00805922
0.00885174
0.00972041
0.0106596
0.0116578
0.0126969
0.0137521
0.0147941
0.0157922
0.0167198
0.0175579
0.0102852
0.00521728
0.00443727
0.00431507
0.00442413
0.00465901
0.00498482
0.00539006
0.00587301
0.00643661
0.00708617
0.00782795
0.00866813
0.00961154
0.0106598
0.011809
0.0130462
0.0143471
0.0156757
0.0169877
0.018237
0.0193855
0.0204084
0.00997706
0.0051342
0.00441398
0.00433309
0.00447927
0.00475202
0.00511997
0.00557483
0.00611811
0.00675623
0.0074984
0.00835552
0.00933926
0.0104607
0.0117276
0.0131404
0.0146857
0.0163312
0.0180227
0.019691
0.0212639
0.022686
0.0239268
0.00959302
0.00504265
0.00440062
0.00436845
0.00455355
0.00486325
0.00527164
0.00577495
0.00637876
0.00709377
0.00793422
0.00891741
0.0100633
0.011393
0.0129257
0.014671
0.0166186
0.0187255
0.020909
0.0230558
0.0250486
0.0268063
0.0282961
0.00908405
0.00495169
0.00441769
0.00443999
0.00465998
0.00499953
0.00544141
0.00598765
0.0066485
0.00743942
0.00838068
0.00949796
0.010823
0.0123929
0.0142459
0.0164105
0.0188869
0.0216214
0.0244868
0.0272905
0.0298328
0.0319946
0.0337538
0.00838759
0.00492057
0.00452808
0.00459151
0.00482335
0.00517175
0.00563096
0.00620842
0.00691805
0.00777953
0.00881959
0.0100742
0.011591
0.0134303
0.0156612
0.0183471
0.0215158
0.0251113
0.028942
0.0326737
0.0359453
0.0385784
0.0406004
0.00784751
0.00528707
0.00492724
0.00492007
0.00508526
0.00539325
0.00583971
0.0064293
0.00717441
0.00809628
0.00922729
0.0106148
0.0123262
0.0144533
0.0171107
0.0204214
0.0244743
0.0292415
0.0344561
0.0395414
0.0438179
0.046978
0.0492039
0.0156279
0.00811163
0.00623616
0.00562068
0.00549901
0.00567034
0.00605881
0.00663604
0.00740002
0.00836788
0.00957531
0.0110807
0.0129732
0.0153818
0.0184816
0.022485
0.0275963
0.0338858
0.0410441
0.0481529
0.053982
0.0577076
0.0599905
0.151077
0.0267664
0.0103679
0.00698758
0.00608115
0.00597662
0.00626098
0.00680515
0.00757279
0.00857008
0.00983285
0.0114282
0.0134648
0.0161082
0.0195982
0.0242571
0.0304585
0.0384745
0.0480874
0.0581684
0.0671101
0.0713803
0.0734206
1.53808
0.129473
0.0211843
0.00897082
0.00665553
0.00621284
0.00639303
0.00690446
0.00766862
0.00867953
0.00997138
0.011616
0.0137339
0.0165145
0.0202434
0.0253292
0.0322998
0.041662
0.0534848
0.0672595
0.0848837
0.0888251
0.0899567
0.0246528
0.0200376
0.0195996
0.0231209
0.00851762
0.0085496
0.00842606
0.00816746
0.00678557
0.00681211
0.00672926
0.0065492
0.0065104
0.00649004
0.00638732
0.00623929
0.00652053
0.00642157
0.0062953
0.00616914
0.00640782
0.00635234
0.00624486
0.00613082
0.00629421
0.00622686
0.00611567
0.0060303
0.00607062
0.00599902
0.00592332
0.00584499
0.00584841
0.00579772
0.00574433
0.00568827
0.00567139
0.00562919
0.00558625
0.00554193
0.0055333
0.00549753
0.00545997
0.00542058
0.00542452
0.00539424
0.00536122
0.00532568
0.00534197
0.00531636
0.00528767
0.00525613
0.00528769
0.00526626
0.00524177
0.00521442
0.00526424
0.00524688
0.0052266
0.00520355
0.00527306
0.00525993
0.005244
0.00522535
0.00531535
0.00530676
0.00529541
0.00528135
0.00539301
0.00538939
0.005383
0.00537385
0.00550906
0.005511
0.0055101
0.00550634
0.00566791
0.00567616
0.00568146
0.00568375
0.00587544
0.00589098
0.00590338
0.0059126
0.00613929
0.00616331
0.00618396
0.00620116
0.00646909
0.00650306
0.00653335
0.00655987
0.00687682
0.00692256
0.0069642
0.00700164
0.00737734
0.00743704
0.00749212
0.00754243
0.00798894
0.00806527
0.0081363
0.00820184
0.00873405
0.00883027
0.00892029
0.0090039
0.00964019
0.00976025
0.00987291
0.00997797
0.0107412
0.0108898
0.0110294
0.0111599
0.0120788
0.0122615
0.0124331
0.0125935
0.0137049
0.0139282
0.0141375
0.0143328
0.0156848
0.0159558
0.0162091
0.0164446
0.0181013
0.0184277
0.0187313
0.0190121
0.0210609
0.0214501
0.0218094
0.0221395
0.0247013
0.0251586
0.0255767
0.0259573
0.0291994
0.0297257
0.0302008
0.0306284
0.0347799
0.0353675
0.0358897
0.0363528
0.0417207
0.0423482
0.0428949
0.0433713
0.0503541
0.0509801
0.0515121
0.051966
0.0610577
0.0616164
0.0620766
0.0624594
0.0742352
0.0746381
0.0749565
0.0752136
0.0902923
0.0904423
0.0905536
0.0906401
0.00882081
0.00562315
0.00457088
0.00411945
0.00386381
0.00368115
0.00352987
0.00339691
0.00327704
0.00316537
0.00306805
0.00299567
0.00293464
0.00288522
0.00281522
0.00255758
0.00214773
0.00185328
0.00221087
0.00667426
0.00547825
0.00481032
0.00441305
0.00414088
0.00392765
0.003742
0.00357698
0.0034321
0.003307
0.0031999
0.00311087
0.00303756
0.00298006
0.00290468
0.0026932
0.00235309
0.0020801
0.00235035
0.00608748
0.00547608
0.00501828
0.00468941
0.00442456
0.00419673
0.00398106
0.00378674
0.00361685
0.00347154
0.00335146
0.00325372
0.00317703
0.00311518
0.00304015
0.00290425
0.00273304
0.00263023
0.00334379
0.00595457
0.00555216
0.00521434
0.00496074
0.00470829
0.00447944
0.00422713
0.00400144
0.00380784
0.0036438
0.00351254
0.00341153
0.00334094
0.00329343
0.0032449
0.00320838
0.00329048
0.00357109
0.00563461
0.00595689
0.00563761
0.0053733
0.00516441
0.00492318
0.00472364
0.00444289
0.00418903
0.00397994
0.00380679
0.00366282
0.00354927
0.00347297
0.00342366
0.00338292
0.00344422
0.00361952
0.00411158
0.00989309
0.00597558
0.00570647
0.00550889
0.00533952
0.00507242
0.00486868
0.00458678
0.00433155
0.00411663
0.00393868
0.00378705
0.0036494
0.00354904
0.00348885
0.00348267
0.00355745
0.00374764
0.00417079
0.00873528
0.0059018
0.0056588
0.00551426
0.00544078
0.00515896
0.00496961
0.00470551
0.00444694
0.00422225
0.0040314
0.00386137
0.00370676
0.00359326
0.00352037
0.00348254
0.00361522
0.00402604
0.00443812
0.00707056
0.00571606
0.00553674
0.00540186
0.00529269
0.00510749
0.00492367
0.00471099
0.00448254
0.0042665
0.00407575
0.00390484
0.00374523
0.00359994
0.00348821
0.00341219
0.00346121
0.00372268
0.00427486
0.00663532
0.00558468
0.00542301
0.00528261
0.00514661
0.00498181
0.00480429
0.0046227
0.00443204
0.00423707
0.00405392
0.00389
0.00373609
0.00358235
0.00344878
0.0033453
0.00332802
0.00346047
0.00395671
0.00700577
0.00546135
0.005319
0.00518063
0.00504531
0.00489369
0.00472313
0.00454859
0.00437382
0.0041897
0.00401216
0.00384736
0.00369289
0.00354717
0.00341016
0.003296
0.00324676
0.0033152
0.0037361
0.00702812
0.00535073
0.00522851
0.00510008
0.00497342
0.00483624
0.00467542
0.00450431
0.00433454
0.00416215
0.003991
0.00382185
0.00366036
0.00350797
0.00336268
0.00324258
0.00317415
0.00319992
0.00351746
0.0062017
0.00526269
0.00515631
0.00504102
0.00492369
0.00479573
0.00464507
0.00448216
0.0043221
0.00416132
0.00399385
0.00382521
0.00366081
0.00349864
0.00333909
0.0031981
0.00309937
0.00309068
0.00333218
0.00512082
0.00519978
0.00510667
0.00500426
0.00489479
0.00477288
0.00463203
0.00448128
0.00433228
0.00417974
0.00401984
0.00385938
0.00370017
0.0035386
0.00337402
0.0032176
0.00308992
0.00303742
0.00316821
0.00472196
0.005165
0.00508343
0.0049924
0.0048909
0.00477549
0.00464441
0.00450497
0.00436433
0.00421973
0.00407004
0.00392103
0.0037728
0.00362094
0.0034673
0.00332255
0.00320689
0.00317285
0.00333407
0.00469188
0.00516121
0.00508998
0.00500869
0.00491567
0.00480822
0.00468678
0.00455689
0.00442346
0.00428615
0.00414546
0.00400582
0.0038681
0.00373067
0.00359787
0.00348165
0.00340558
0.00343313
0.00377003
0.00569929
0.00519025
0.00512882
0.00505633
0.00497155
0.00487275
0.00476073
0.00463955
0.00451295
0.0043821
0.00424846
0.0041155
0.00398547
0.0038603
0.00374696
0.00366017
0.00362736
0.00371885
0.00418475
0.00694674
0.00525374
0.00520216
0.00513847
0.00506196
0.00497178
0.00486876
0.00475576
0.00463574
0.00451062
0.00438244
0.00425437
0.00412973
0.00401297
0.00391337
0.00384839
0.00385051
0.00399704
0.0045778
0.00800029
0.0053542
0.005313
0.00525868
0.00519089
0.00510935
0.00501486
0.00490949
0.00479568
0.00467564
0.00455175
0.00442724
0.00430617
0.00419462
0.00410358
0.00405285
0.0040797
0.00427159
0.00494959
0.00883177
0.00549542
0.00546556
0.00542149
0.0053631
0.0052904
0.00520415
0.00510596
0.00499792
0.00488229
0.00476168
0.00463948
0.00452035
0.00441143
0.00432499
0.00428292
0.00432715
0.00455611
0.0053219
0.00953485
0.00568264
0.00566541
0.00563275
0.00558461
0.00552115
0.00544308
0.00535175
0.00524901
0.0051371
0.00501875
0.00489758
0.0047787
0.00467004
0.00458499
0.00454741
0.00460417
0.00486703
0.00572833
0.0102236
0.00592265
0.00591972
0.00589987
0.00586304
0.00580944
0.00573973
0.0056551
0.00555724
0.00544832
0.00533117
0.00520961
0.00508915
0.00497842
0.00489181
0.00485528
0.0049211
0.00521774
0.00619554
0.0110392
0.00622409
0.00623753
0.0062322
0.006208
0.00616513
0.00610419
0.00602627
0.00593293
0.00582631
0.00570926
0.00558579
0.0054618
0.00534654
0.00525548
0.00521673
0.00528813
0.00561604
0.00672217
0.0121433
0.00659777
0.00663009
0.00664136
0.00663141
0.00660041
0.00654891
0.00647792
0.00638891
0.00628395
0.00616592
0.00603899
0.00590941
0.00578708
0.00568864
0.00564449
0.00571798
0.00607241
0.00730665
0.0136144
0.00705707
0.00711131
0.00714169
0.00714799
0.00713033
0.00708923
0.00702564
0.00694094
0.00683714
0.00671714
0.00658521
0.00644795
0.00631595
0.00620724
0.00615493
0.00622849
0.00660877
0.00797601
0.0154109
0.00761849
0.0076983
0.0077508
0.00777574
0.00777323
0.00774381
0.00768837
0.00760823
0.00750531
0.00738249
0.00724411
0.0070971
0.00695281
0.00683102
0.00676829
0.00684209
0.00725545
0.00878246
0.0175653
0.00830224
0.00841197
0.00849014
0.00853654
0.00855139
0.00853526
0.00848906
0.00841401
0.00831198
0.00818573
0.00803964
0.00788092
0.00772176
0.00758371
0.00750749
0.00758024
0.00803177
0.00974762
0.020008
0.00913305
0.00927778
0.00938572
0.00945686
0.00949163
0.00949076
0.00945523
0.00938626
0.00928554
0.00915569
0.00900098
0.00882873
0.00865179
0.00849351
0.00839882
0.00846463
0.00894666
0.0108317
0.0224651
0.0101411
0.0103266
0.0104689
0.0105685
0.0106261
0.0106428
0.0106198
0.0105583
0.0104599
0.0103268
0.010163
0.00997579
0.00977828
0.00959527
0.00947543
0.00952463
0.0100218
0.0120404
0.0248147
0.0113629
0.0115958
0.0117776
0.0119096
0.0119932
0.0120302
0.0120219
0.0119697
0.0118751
0.0117399
0.0115675
0.0113648
0.0111446
0.0109326
0.0107805
0.0108022
0.0112982
0.0134244
0.0272234
0.0128432
0.0131306
0.0133573
0.0135257
0.0136385
0.0136984
0.0137073
0.013667
0.0135785
0.0134434
0.0132644
0.0130471
0.012804
0.0125605
0.0123706
0.012356
0.0128422
0.0150902
0.0302034
0.0146366
0.0149857
0.0152623
0.0154709
0.0156159
0.0157014
0.0157303
0.0157047
0.0156258
0.0154945
0.0153126
0.0150845
0.0148211
0.0145471
0.014318
0.0142636
0.01474
0.0171473
0.0339776
0.0168099
0.0172275
0.0175584
0.01781
0.0179894
0.0181026
0.0181541
0.0181467
0.0180817
0.0179597
0.0177815
0.01755
0.0172741
0.016977
0.0167143
0.0166242
0.0170987
0.0197056
0.0385849
0.0194456
0.0199368
0.0203243
0.02062
0.0208347
0.0209771
0.0210534
0.0210678
0.0210221
0.0209168
0.0207521
0.0205295
0.0202561
0.0199526
0.0196743
0.0195669
0.0200621
0.0229261
0.0442548
0.0226456
0.0232119
0.0236551
0.0239934
0.0242421
0.0244133
0.0245159
0.0245555
0.024535
0.0244555
0.0243175
0.024122
0.0238752
0.0235964
0.0233401
0.0232595
0.0238319
0.0270752
0.0516752
0.026536
0.0271727
0.0276658
0.0280409
0.0283193
0.028517
0.0286456
0.0287128
0.0287234
0.0286798
0.0285842
0.0284396
0.0282539
0.0280487
0.0278812
0.0279148
0.0286818
0.0325307
0.0617377
0.0312715
0.031965
0.0324947
0.0328959
0.0331958
0.0334145
0.0335667
0.0336622
0.0337081
0.0337098
0.0336729
0.0336062
0.0335251
0.0334615
0.033487
0.0337881
0.03497
0.0398018
0.0753963
0.0370403
0.0377644
0.0383091
0.0387193
0.0390281
0.039259
0.0394291
0.0395505
0.0396329
0.0396855
0.0397204
0.0397561
0.0398247
0.0399839
0.040345
0.0411566
0.0431494
0.0496406
0.0941742
0.0440673
0.0447814
0.0453102
0.0457064
0.046007
0.0462375
0.0464162
0.0465567
0.0466713
0.0467738
0.0468839
0.0470346
0.0472843
0.0477385
0.0485941
0.0502522
0.0537304
0.0632105
0.121015
0.0526172
0.053267
0.0537411
0.0540956
0.0543673
0.0545812
0.0547551
0.0549028
0.0550381
0.0551784
0.0553509
0.0556041
0.056028
0.0567951
0.0582461
0.0610928
0.0670466
0.0821812
0.162486
0.0629975
0.0635205
0.0638979
0.0641807
0.0644009
0.0645793
0.064731
0.0648682
0.0650041
0.065157
0.0653577
0.0656635
0.0661878
0.0671641
0.0690997
0.073174
0.082483
0.107783
0.23128
0.0755674
0.0759039
0.076146
0.0763293
0.0764752
0.0765974
0.0767059
0.0768093
0.0769175
0.0770452
0.0772185
0.0774878
0.0779579
0.0788619
0.080762
0.0851668
0.096825
0.135743
0.354872
0.0907566
0.0908661
0.0909455
0.091007
0.0910576
0.0911018
0.0911431
0.0911847
0.0912306
0.0912869
0.0913647
0.0914863
0.0916988
0.0921128
0.0930234
0.0953686
0.102964
0.139398
0.581533
)
;

boundaryField
{
    leftWall
    {
        type            epsilonWallFunction;
        value           nonuniform List<scalar> 
50
(
0.000411154
0.000810413
0.00134552
0.00186188
0.00235166
0.00282005
0.00327376
0.00371836
0.00441666
0.00528517
0.00629241
0.00730454
0.0076869
0.00782317
0.00764134
0.00798661
0.00850122
0.00893329
0.00937799
0.00977592
0.0101244
0.010418
0.0106759
0.0109097
0.0111223
0.0113131
0.0114777
0.0116104
0.0117089
0.0117724
0.011797
0.0117835
0.0117389
0.011669
0.0115781
0.0114689
0.01134
0.0111772
0.0109798
0.010777
0.0105473
0.0102852
0.00997706
0.00959302
0.00908405
0.00838759
0.00784751
0.0156279
0.151077
1.53808
)
;
    }
    rightWall
    {
        type            epsilonWallFunction;
        value           nonuniform List<scalar> 
50
(
0.00126958
0.0015036
0.00195612
0.00222362
0.00234829
0.00237146
0.00235248
0.00230882
0.00221087
0.00235035
0.00334379
0.00563461
0.00989309
0.00873528
0.00707056
0.00663532
0.00700577
0.00702812
0.0062017
0.00512082
0.00472196
0.00469188
0.00569929
0.00694674
0.00800029
0.00883177
0.00953485
0.0102236
0.0110392
0.0121433
0.0136144
0.0154109
0.0175653
0.020008
0.0224651
0.0248147
0.0272234
0.0302034
0.0339776
0.0385849
0.0442548
0.0516752
0.0617377
0.0753963
0.0941742
0.121015
0.162486
0.23128
0.354872
0.581533
)
;
    }
    lowerWall
    {
        type            epsilonWallFunction;
        value           nonuniform List<scalar> 
62
(
0.000411154
0.00207959
0.00363526
0.00501935
0.00624917
0.00734484
0.00832532
0.00920434
0.00999072
0.0106894
0.0113106
0.011903
0.0124295
0.0128656
0.0131278
0.013014
0.01203
0.0100596
0.00840141
0.00728791
0.00610824
0.00440511
0.00127372
0.00127372
0.0021023
0.00350485
0.00505915
0.00691442
0.00947277
0.0138036
0.022821
0.0246528
0.0200376
0.0195996
0.0231209
0.00091822
0.00119496
0.00209325
0.00319125
0.00451606
0.00647593
0.0101375
0.0181005
0.00091822
0.00467421
0.00748273
0.00903232
0.00983471
0.0101875
0.0103502
0.0105641
0.010802
0.0104344
0.00876289
0.00693775
0.00523237
0.00604546
0.00851193
0.00789434
0.00555278
0.00333234
0.00126958
)
;
    }
    atmosphere
    {
        type            inletOutlet;
        inletValue      uniform 0.1;
        value           nonuniform List<scalar> 
46
(
0.1
0.129473
0.0211843
0.00897082
0.00665553
0.00621284
0.00639303
0.00690446
0.00766862
0.00867953
0.00997138
0.011616
0.0137339
0.0165145
0.0202434
0.0253292
0.0322998
0.041662
0.0534848
0.0672595
0.1
0.1
0.1
0.1
0.1
0.1
0.1
0.1
0.1
0.1
0.1
0.1
0.1
0.1
0.1
0.1
0.1
0.1
0.1
0.1
0.1
0.1
0.1
0.1
0.1
0.581533
)
;
    }
    defaultFaces
    {
        type            empty;
    }
}


// ************************************************************************* //
