/*--------------------------------*- C++ -*----------------------------------*\
  =========                 |
  \\      /  F ield         | OpenFOAM: The Open Source CFD Toolbox
   \\    /   O peration     | Website:  https://openfoam.org
    \\  /    A nd           | Version:  9
     \\/     M anipulation  |
\*---------------------------------------------------------------------------*/
FoamFile
{
    format      ascii;
    class       volVectorField;
    location    "1.2";
    object      U;
}
// * * * * * * * * * * * * * * * * * * * * * * * * * * * * * * * * * * * * * //

dimensions      [0 1 -1 0 0 0 0];

internalField   nonuniform List<vector> 
2268
(
(0.0205024 -0.0110715 0)
(0.0476523 -0.00670716 0)
(0.061325 -0.00314982 0)
(0.0731765 -0.00247061 0)
(0.0861873 -0.00305099 0)
(0.101091 -0.0039309 0)
(0.117475 -0.00456941 0)
(0.133403 -0.00444999 0)
(0.145712 -0.00311319 0)
(0.150662 -0.000245623 0)
(0.143656 0.0038407 0)
(0.123478 0.00804475 0)
(0.090834 0.0113765 0)
(0.0483567 0.0147115 0)
(-0.00295942 0.0165788 0)
(-0.054165 0.0146677 0)
(-0.0900273 0.0072237 0)
(-0.0967025 -0.00419904 0)
(-0.0707209 -0.0159076 0)
(-0.0202854 -0.0236693 0)
(0.0425874 -0.0247685 0)
(0.093645 -0.00237528 0)
(0.0769229 0.0223718 0)
(0.0142676 -0.0225213 0)
(0.0358839 -0.0144579 0)
(0.050536 -0.0103833 0)
(0.0672587 -0.0100206 0)
(0.0851321 -0.0110958 0)
(0.1037 -0.0121746 0)
(0.121767 -0.0122055 0)
(0.137059 -0.0102927 0)
(0.146587 -0.00580826 0)
(0.147387 0.00140155 0)
(0.13741 0.0105796 0)
(0.114669 0.020066 0)
(0.0790806 0.0281625 0)
(0.0336682 0.0346339 0)
(-0.016664 0.0368288 0)
(-0.0626477 0.0307861 0)
(-0.0933518 0.0157447 0)
(-0.102817 -0.00465054 0)
(-0.0908131 -0.0253571 0)
(-0.0586982 -0.0401104 0)
(-0.0128412 -0.0410021 0)
(0.0304048 -0.00943976 0)
(0.0608678 0.0522639 0)
(0.00961269 -0.0325389 0)
(0.0295879 -0.0223527 0)
(0.0460625 -0.0184324 0)
(0.0654815 -0.0185839 0)
(0.0856737 -0.0199134 0)
(0.105661 -0.0207032 0)
(0.123883 -0.0195666 0)
(0.137963 -0.015317 0)
(0.145091 -0.0072404 0)
(0.142688 0.00454511 0)
(0.129139 0.0189283 0)
(0.103774 0.0338059 0)
(0.0674166 0.0466009 0)
(0.0234383 0.0554716 0)
(-0.0223472 0.0569226 0)
(-0.0627944 0.0467292 0)
(-0.091975 0.0251664 0)
(-0.106394 -0.00299702 0)
(-0.104475 -0.0317558 0)
(-0.0862004 -0.0539298 0)
(-0.0539893 -0.0592854 0)
(-0.0162302 -0.0268903 0)
(0.0244572 0.0636668 0)
(0.00660277 -0.0406991 0)
(0.0256951 -0.0308374 0)
(0.0439931 -0.027623 0)
(0.0652262 -0.0282505 0)
(0.086883 -0.0295854 0)
(0.107671 -0.0297063 0)
(0.125759 -0.0269301 0)
(0.138682 -0.0198458 0)
(0.143761 -0.00773487 0)
(0.138771 0.00896758 0)
(0.122618 0.0286163 0)
(0.0955208 0.0484685 0)
(0.0591584 0.0651763 0)
(0.0172052 0.0757045 0)
(-0.0248935 0.0760049 0)
(-0.0620094 0.0624247 0)
(-0.0909658 0.0359366 0)
(-0.109474 0.00158085 0)
(-0.115807 -0.0340155 0)
(-0.109419 -0.0630459 0)
(-0.0896688 -0.0746785 0)
(-0.0566499 -0.0440909 0)
(-0.00741585 0.0563951 0)
(0.00493151 -0.0475676 0)
(0.0235613 -0.0396885 0)
(0.0433686 -0.0375906 0)
(0.0658741 -0.0386803 0)
(0.0885644 -0.0398366 0)
(0.109893 -0.0389685 0)
(0.127789 -0.0341307 0)
(0.139685 -0.0237673 0)
(0.142992 -0.00725936 0)
(0.135791 0.0145257 0)
(0.11752 0.0393002 0)
(0.0891492 0.0636199 0)
(0.0530913 0.0834386 0)
(0.0132064 0.0949527 0)
(-0.025815 0.0939981 0)
(-0.0605057 0.07773 0)
(-0.0893799 0.0476645 0)
(-0.111008 0.00879914 0)
(-0.123946 -0.0319822 0)
(-0.127729 -0.0667091 0)
(-0.119989 -0.0859631 0)
(-0.0930024 -0.0642759 0)
(-0.032335 0.0330103 0)
(0.00422247 -0.0538593 0)
(0.0228025 -0.04888 0)
(0.0437972 -0.0480786 0)
(0.0672125 -0.0495836 0)
(0.0906598 -0.0504096 0)
(0.112369 -0.0482929 0)
(0.130052 -0.0410534 0)
(0.141042 -0.027062 0)
(0.1428 -0.00589237 0)
(0.133674 0.0210434 0)
(0.11361 0.0507186 0)
(0.0842576 0.0789582 0)
(0.0486773 0.101125 0)
(0.0108463 0.113029 0)
(-0.0253403 0.110786 0)
(-0.0577447 0.0924354 0)
(-0.0860657 0.0599432 0)
(-0.109564 0.0180244 0)
(-0.127189 -0.0263871 0)
(-0.138874 -0.0651814 0)
(-0.142504 -0.0920365 0)
(-0.125883 -0.0855132 0)
(-0.0613707 0.000461076 0)
(0.00420161 -0.0600092 0)
(0.0230968 -0.0584335 0)
(0.0450217 -0.0589553 0)
(0.0690863 -0.060819 0)
(0.0930736 -0.0611956 0)
(0.115019 -0.0576217 0)
(0.132452 -0.0477039 0)
(0.142623 -0.0297992 0)
(0.143025 -0.00375134 0)
(0.132231 0.0283755 0)
(0.110656 0.0627206 0)
(0.08058 0.0943572 0)
(0.0456556 0.118174 0)
(0.00995632 0.129936 0)
(-0.0233402 0.126338 0)
(-0.0531511 0.106327 0)
(-0.0800449 0.0722461 0)
(-0.103952 0.0283561 0)
(-0.124113 -0.0184106 0)
(-0.140794 -0.0593474 0)
(-0.153591 -0.0918226 0)
(-0.152028 -0.105213 0)
(-0.1029 -0.0556294 0)
(0.00469363 -0.066286 0)
(0.0241757 -0.0683459 0)
(0.0468077 -0.0701374 0)
(0.0712956 -0.0722937 0)
(0.0956095 -0.0721248 0)
(0.117625 -0.0669263 0)
(0.134733 -0.0541031 0)
(0.144137 -0.0320486 0)
(0.143358 -0.000930113 0)
(0.131158 0.0364202 0)
(0.108367 0.0752026 0)
(0.077851 0.109717 0)
(0.043821 0.134492 0)
(0.0104539 0.145571 0)
(-0.0196979 0.140465 0)
(-0.0463996 0.119033 0)
(-0.0708123 0.0840301 0)
(-0.0934861 0.0388861 0)
(-0.113958 -0.00929369 0)
(-0.132821 -0.050584 0)
(-0.150804 -0.0857341 0)
(-0.163545 -0.118175 0)
(-0.149415 -0.129694 0)
(0.039527 -0.0278535 0)
(0.145417 -0.0294028 0)
(0.2216 -0.00525337 0)
(0.207506 0.0176491 0)
(0.125516 0.0278152 0)
(0.0219924 0.0232616 0)
(-0.0318984 -0.00219926 0)
(0.00270098 -0.0215785 0)
(0.064019 -0.0203945 0)
(0.0954549 -0.00457476 0)
(0.0927239 0.00232316 0)
(0.0835451 0.000845289 0)
(0.0797369 0.00168197 0)
(0.057093 0.0106861 0)
(0.0179642 0.0101244 0)
(-0.0109901 0.00718892 0)
(-0.0300665 0.00570442 0)
(-0.0454222 -0.00241978 0)
(-0.0166288 -0.00814725 0)
(0.0324063 -0.0551506 0)
(0.118228 -0.0585361 0)
(0.189406 -0.0209998 0)
(0.218881 0.0232245 0)
(0.177178 0.0544789 0)
(0.0870619 0.0553116 0)
(0.03354 0.0118375 0)
(0.0518808 -0.0275539 0)
(0.0954444 -0.0286232 0)
(0.121563 -0.00903754 0)
(0.121096 0.00395937 0)
(0.109076 0.00526658 0)
(0.0972874 0.00819992 0)
(0.0768249 0.0208669 0)
(0.0435077 0.0228163 0)
(0.0156131 0.0158978 0)
(-0.00146681 0.0112885 0)
(-0.0163162 -0.00141119 0)
(-0.0122801 -0.0204582 0)
(0.0249719 -0.0838381 0)
(0.104542 -0.0903908 0)
(0.173987 -0.044154 0)
(0.216763 0.0182006 0)
(0.200821 0.0714452 0)
(0.133958 0.0847451 0)
(0.0721198 0.021176 0)
(0.0871639 -0.0437908 0)
(0.127122 -0.0408677 0)
(0.148177 -0.0103536 0)
(0.144328 0.0077416 0)
(0.127115 0.0112918 0)
(0.109833 0.0157884 0)
(0.0886468 0.0304054 0)
(0.0584484 0.0347199 0)
(0.0349236 0.0237972 0)
(0.0231389 0.0167918 0)
(0.00971887 0.00279594 0)
(0.000151252 -0.0227022 0)
(0.0225475 -0.10781 0)
(0.0998004 -0.122266 0)
(0.168404 -0.0675739 0)
(0.217384 0.00841057 0)
(0.212368 0.0831002 0)
(0.160126 0.116169 0)
(0.100014 0.0293021 0)
(0.108635 -0.0534889 0)
(0.140756 -0.062225 0)
(0.17391 -0.0124397 0)
(0.169076 0.0144712 0)
(0.144646 0.0184672 0)
(0.122376 0.0237597 0)
(0.0996628 0.0399643 0)
(0.0719435 0.0456066 0)
(0.0564645 0.0286604 0)
(0.0517744 0.0212553 0)
(0.0381961 0.00974619 0)
(0.0192423 -0.0165914 0)
(0.0317738 -0.130051 0)
(0.100289 -0.155558 0)
(0.165633 -0.0905532 0)
(0.214593 -0.00306053 0)
(0.217718 0.0927444 0)
(0.174584 0.142627 0)
(0.130869 0.0349583 0)
(0.13013 -0.0552593 0)
(0.141985 -0.0737677 0)
(0.177213 -0.0309547 0)
(0.194317 0.0229992 0)
(0.165859 0.0300615 0)
(0.139138 0.0340802 0)
(0.113935 0.049593 0)
(0.0913359 0.0544714 0)
(0.0849051 0.0303046 0)
(0.0833967 0.0248023 0)
(0.0656866 0.0202278 0)
(0.0379784 -0.000326302 0)
(0.0579161 -0.161187 0)
(0.10183 -0.185352 0)
(0.159249 -0.115987 0)
(0.20906 -0.0175891 0)
(0.221258 0.105877 0)
(0.193247 0.15825 0)
(0.163484 0.0422732 0)
(0.151735 -0.0524774 0)
(0.145863 -0.0779957 0)
(0.163173 -0.0432172 0)
(0.184411 0.0230032 0)
(0.181035 0.0429914 0)
(0.164877 0.0447378 0)
(0.140693 0.0637654 0)
(0.1206 0.0620404 0)
(0.11514 0.0312439 0)
(0.108172 0.0289929 0)
(0.0844843 0.0340549 0)
(0.0504433 0.0241472 0)
(0.0964476 -0.207863 0)
(0.102744 -0.205902 0)
(0.143113 -0.135054 0)
(0.18818 -0.0364376 0)
(0.215233 0.108806 0)
(0.213577 0.163718 0)
(0.193162 0.0515846 0)
(0.172862 -0.0448708 0)
(0.153337 -0.0760967 0)
(0.150187 -0.0462804 0)
(0.154915 0.0164201 0)
(0.161454 0.0433845 0)
(0.169513 0.0452395 0)
(0.179163 0.07397 0)
(0.157818 0.0706447 0)
(0.142465 0.0356821 0)
(0.125368 0.0370144 0)
(0.0932853 0.0514336 0)
(0.0558301 0.0527861 0)
(0.135093 -0.245178 0)
(0.0972961 -0.214281 0)
(0.122023 -0.14731 0)
(0.159214 -0.0507077 0)
(0.19787 0.0939788 0)
(0.222288 0.157982 0)
(0.217691 0.0610247 0)
(0.193751 -0.033925 0)
(0.163384 -0.067589 0)
(0.141597 -0.0419482 0)
(0.133448 0.0148169 0)
(0.136552 0.0378382 0)
(0.15092 0.0377292 0)
(0.177829 0.0638791 0)
(0.185326 0.0754366 0)
(0.163696 0.0438483 0)
(0.135555 0.0470154 0)
(0.0921348 0.0688652 0)
(0.056756 0.0835992 0)
(0.00617679 -0.0769542 0)
(0.0267141 -0.0844579 0)
(0.0500403 -0.0880359 0)
(0.0747635 -0.090498 0)
(0.0991471 -0.089338 0)
(0.120903 -0.0813824 0)
(0.137298 -0.0637196 0)
(0.145557 -0.0348759 0)
(0.143237 0.00445302 0)
(0.129278 0.0500202 0)
(0.105103 0.0953518 0)
(0.0744244 0.133506 0)
(0.0422869 0.158631 0)
(0.0130438 0.167728 0)
(-0.0116596 0.159949 0)
(-0.0327242 0.136587 0)
(-0.0517561 0.100752 0)
(-0.069849 0.0542741 0)
(-0.0875747 0.00561277 0)
(-0.106399 -0.0349535 0)
(-0.12699 -0.0722945 0)
(-0.148805 -0.116974 0)
(-0.165935 -0.174765 0)
(0.00909716 -0.0935319 0)
(0.0306742 -0.1075 0)
(0.053771 -0.112665 0)
(0.0775065 -0.11513 0)
(0.100503 -0.112344 0)
(0.120534 -0.100255 0)
(0.134959 -0.0755558 0)
(0.141458 -0.0371483 0)
(0.137698 0.0138885 0)
(0.122643 0.0705717 0)
(0.0982131 0.123717 0)
(0.0689777 0.164608 0)
(0.0410949 0.18709 0)
(0.0193363 0.190893 0)
(0.00416707 0.178219 0)
(-0.00694213 0.152025 0)
(-0.0154386 0.114676 0)
(-0.0222353 0.0669185 0)
(-0.0314054 0.0208522 0)
(-0.046079 -0.018925 0)
(-0.0655528 -0.059763 0)
(-0.0886825 -0.110127 0)
(-0.107806 -0.17593 0)
(0.0121982 -0.113903 0)
(0.0332516 -0.131108 0)
(0.0542064 -0.136193 0)
(0.0750279 -0.137971 0)
(0.0945522 -0.13318 0)
(0.110727 -0.116642 0)
(0.121254 -0.0849184 0)
(0.125201 -0.0379105 0)
(0.120618 0.0237548 0)
(0.106638 0.0897908 0)
(0.08516 0.148876 0)
(0.0605824 0.190802 0)
(0.0397249 0.207848 0)
(0.0278705 0.203801 0)
(0.0242408 0.185013 0)
(0.0243012 0.156374 0)
(0.0258866 0.117975 0)
(0.0284093 0.068494 0)
(0.0302939 0.0264293 0)
(0.0256618 -0.00565882 0)
(0.0119918 -0.0381909 0)
(-0.00423575 -0.0793347 0)
(-0.0531424 -0.154946 0)
(0.0130424 -0.139235 0)
(0.0322327 -0.153962 0)
(0.0493861 -0.156443 0)
(0.0651671 -0.155873 0)
(0.0783988 -0.147836 0)
(0.0871148 -0.126407 0)
(0.0898419 -0.0887015 0)
(0.0883008 -0.0366769 0)
(0.086104 0.0305514 0)
(0.0806047 0.105493 0)
(0.0690658 0.169074 0)
(0.053503 0.209944 0)
(0.0418914 0.219867 0)
(0.0401169 0.207612 0)
(0.0464612 0.183869 0)
(0.0556755 0.154314 0)
(0.0659627 0.115503 0)
(0.072975 0.0630576 0)
(0.0809815 0.0295679 0)
(0.0692729 0.0108187 0)
(0.0742685 -0.0169804 0)
(0.114615 -0.0117268 0)
(0.0850475 -0.0793196 0)
(0.0129532 -0.155 0)
(0.0294631 -0.168427 0)
(0.041683 -0.167807 0)
(0.0501702 -0.163506 0)
(0.0524143 -0.151255 0)
(0.0456705 -0.12474 0)
(0.0332636 -0.0818843 0)
(0.022509 -0.030097 0)
(0.0236318 0.0286651 0)
(0.0422994 0.104074 0)
(0.0613891 0.175062 0)
(0.0618015 0.223053 0)
(0.0592254 0.224881 0)
(0.0633027 0.203462 0)
(0.0734578 0.174281 0)
(0.0871082 0.143578 0)
(0.102762 0.111151 0)
(0.0972513 0.0564343 0)
(-0.00168921 0.0715459 0)
(0.0052859 0.0051546 0)
(0.0569921 -0.0833165 0)
(0.114757 -0.0728879 0)
(0.156104 -0.0226759 0)
(0.0354958 -0.160088 0)
(0.0315226 -0.172796 0)
(0.0368128 -0.17084 0)
(0.0355745 -0.164052 0)
(0.0197725 -0.147119 0)
(-0.0202259 -0.110183 0)
(-0.0638077 -0.060653 0)
(-0.0830176 -0.0293619 0)
(-0.06867 0.00896141 0)
(-0.0382564 0.0658594 0)
(0.0110386 0.127643 0)
(0.0811451 0.219215 0)
(0.110251 0.227012 0)
(0.104697 0.194319 0)
(0.102199 0.161835 0)
(0.0888815 0.132382 0)
(0.00385457 0.125279 0)
(-0.07892 0.138617 0)
(-0.0698402 0.0752892 0)
(-0.0127271 -0.0701542 0)
(0.0206365 -0.122123 0)
(0.0372974 -0.112761 0)
(0.0718124 -0.0718977 0)
(0.147911 -0.204573 0)
(0.0369831 -0.175557 0)
(0.0340782 -0.173414 0)
(0.0202411 -0.163318 0)
(-0.0285367 -0.135551 0)
(-0.150071 -0.0714093 0)
(-0.184062 -0.0401815 0)
(-0.170673 -0.0351622 0)
(-0.155222 -0.00754227 0)
(-0.132683 0.0312915 0)
(-0.103146 0.0714189 0)
(-0.0521519 0.122122 0)
(0.093176 0.160892 0)
(0.154867 0.193916 0)
(0.065053 0.190372 0)
(-0.0332198 0.21604 0)
(-0.103365 0.216988 0)
(-0.10321 0.159048 0)
(-0.0462806 0.0014447 0)
(-0.0100999 -0.0969159 0)
(0.00848115 -0.133722 0)
(0.00965184 -0.127101 0)
(0.02843 -0.10271 0)
(-0.00580423 -0.352925 0)
(-0.000875066 -0.131108 0)
(-0.0191301 -0.152782 0)
(-0.0919061 -0.0838861 0)
(-0.197044 0.0693441 0)
(-0.234526 0.0830027 0)
(-0.222089 -0.0217476 0)
(-0.215367 -0.0458774 0)
(-0.216067 -0.0212082 0)
(-0.205594 0.00926375 0)
(-0.187321 0.0315632 0)
(-0.161549 0.0540234 0)
(-0.118829 0.0983891 0)
(-0.0651013 0.22021 0)
(-0.0449337 0.282814 0)
(-0.0993238 0.303451 0)
(-0.125162 0.221461 0)
(-0.0727378 0.0802052 0)
(-0.0290193 -0.0355274 0)
(-0.00393759 -0.110294 0)
(0.00440951 -0.140071 0)
(0.00131678 -0.125423 0)
(0.00583065 -0.118692 0)
(-0.0344877 -0.252847 0)
(-0.0490395 -0.133975 0)
(-0.0778771 -0.0883881 0)
(-0.128096 -0.0182176 0)
(-0.160948 0.0480563 0)
(-0.169874 0.0371835 0)
(-0.167902 -0.048577 0)
(-0.2208 -0.0500583 0)
(-0.256077 -0.0224168 0)
(-0.259962 -0.00102189 0)
(-0.250639 0.00975681 0)
(-0.239361 0.0290985 0)
(-0.224996 0.0718719 0)
(-0.197949 0.154607 0)
(-0.128935 0.269578 0)
(-0.0999497 0.295754 0)
(-0.0754435 0.1755 0)
(-0.046431 0.0539575 0)
(-0.0163693 -0.0425345 0)
(-0.00180749 -0.115396 0)
(-0.00624586 -0.14079 0)
(-0.0491135 -0.112129 0)
(-0.0401582 -0.113605 0)
(-0.0405731 -0.198288 0)
(-0.0755879 -0.108539 0)
(-0.110977 -0.0467519 0)
(-0.14586 0.015216 0)
(-0.163667 0.054049 0)
(-0.173638 0.0389004 0)
(-0.204 0.00028623 0)
(-0.250863 0.00690374 0)
(-0.288276 0.017122 0)
(-0.303335 0.0127913 0)
(-0.292908 -0.00168536 0)
(-0.292456 0.0135777 0)
(-0.289021 0.0546801 0)
(-0.268411 0.12446 0)
(-0.219232 0.200463 0)
(-0.122253 0.238302 0)
(-0.0561616 0.150101 0)
(-0.0208295 0.0381838 0)
(0.00457924 -0.0544366 0)
(-0.0235771 -0.12212 0)
(-0.0977552 -0.103281 0)
(-0.116472 -0.102132 0)
(-0.127539 -0.121689 0)
(-0.0490557 -0.140136 0)
(-0.0902899 -0.0668743 0)
(-0.128302 -0.0102782 0)
(-0.159038 0.0399496 0)
(-0.177659 0.0694252 0)
(-0.195591 0.0652902 0)
(-0.227462 0.0468907 0)
(-0.265488 0.0417259 0)
(-0.295016 0.0380634 0)
(-0.314768 0.0275351 0)
(-0.321974 0.00297132 0)
(-0.330494 0.00427757 0)
(-0.337717 0.0393645 0)
(-0.319641 0.0962155 0)
(-0.278162 0.145818 0)
(-0.208966 0.171224 0)
(-0.0788946 0.105773 0)
(-0.0271808 -0.00163317 0)
(-0.106194 -0.0540759 0)
(-0.134278 -0.0597158 0)
(-0.163128 -0.0636542 0)
(-0.173486 -0.085477 0)
(-0.180201 -0.11064 0)
(-0.0515563 -0.0728597 0)
(-0.095027 -0.0194629 0)
(-0.133481 0.0256703 0)
(-0.163776 0.0651803 0)
(-0.185281 0.0892058 0)
(-0.20676 0.0914301 0)
(-0.235932 0.0816681 0)
(-0.26791 0.0724978 0)
(-0.295444 0.0604244 0)
(-0.319633 0.042554 0)
(-0.341848 0.024402 0)
(-0.358332 0.0177208 0)
(-0.367352 0.0244571 0)
(-0.35986 0.0613095 0)
(-0.323019 0.093954 0)
(-0.281079 0.0582166 0)
(-0.233087 -0.000962422 0)
(-0.205422 -0.00411681 0)
(-0.208302 -0.00852288 0)
(-0.207702 -0.0316405 0)
(-0.207124 -0.0554892 0)
(-0.203588 -0.0829645 0)
(-0.201323 -0.108081 0)
(-0.0488511 -0.00747627 0)
(-0.0909922 0.0280296 0)
(-0.128056 0.0610355 0)
(-0.15757 0.091202 0)
(-0.179998 0.110998 0)
(-0.201401 0.116015 0)
(-0.226377 0.110545 0)
(-0.252874 0.100635 0)
(-0.277677 0.0859515 0)
(-0.301401 0.0668026 0)
(-0.324866 0.0485461 0)
(-0.345247 0.0371515 0)
(-0.35781 0.0303637 0)
(-0.354013 0.0282351 0)
(-0.327198 0.0311791 0)
(-0.293843 0.0206244 0)
(-0.270345 0.000823936 0)
(-0.254715 -0.00941827 0)
(-0.240878 -0.0221803 0)
(-0.226473 -0.0426135 0)
(-0.214109 -0.0657511 0)
(-0.203928 -0.0904016 0)
(-0.197207 -0.112822 0)
(-0.0426145 0.0527377 0)
(-0.080421 0.0723028 0)
(-0.113908 0.0941734 0)
(-0.14077 0.116234 0)
(-0.161497 0.132046 0)
(-0.180168 0.137553 0)
(-0.199903 0.133933 0)
(-0.220329 0.124037 0)
(-0.2402 0.108636 0)
(-0.259615 0.089082 0)
(-0.278424 0.0691344 0)
(-0.294406 0.0528773 0)
(-0.304063 0.0411001 0)
(-0.3029 0.033243 0)
(-0.288335 0.0247335 0)
(-0.268247 0.00791149 0)
(-0.252147 -0.0132667 0)
(-0.238024 -0.0277302 0)
(-0.222099 -0.0417833 0)
(-0.205874 -0.0595329 0)
(-0.191931 -0.0794509 0)
(-0.181286 -0.100165 0)
(-0.174461 -0.119215 0)
(-0.0338091 0.10394 0)
(-0.0650141 0.110546 0)
(-0.093166 0.123026 0)
(-0.115558 0.138079 0)
(-0.132512 0.14988 0)
(-0.146732 0.154403 0)
(-0.160529 0.151121 0)
(-0.174351 0.14118 0)
(-0.18793 0.125489 0)
(-0.201268 0.105501 0)
(-0.213943 0.0837893 0)
(-0.224397 0.0630646 0)
(-0.230506 0.0445974 0)
(-0.230166 0.0284382 0)
(-0.222502 0.012374 0)
(-0.210743 -0.00683214 0)
(-0.199319 -0.0266314 0)
(-0.187899 -0.0426912 0)
(-0.175063 -0.0576183 0)
(-0.162269 -0.0738104 0)
(-0.151461 -0.0909442 0)
(-0.143699 -0.108122 0)
(-0.139382 -0.123869 0)
(-0.023381 0.143319 0)
(-0.0465714 0.14082 0)
(-0.0682534 0.146006 0)
(-0.0850067 0.155128 0)
(-0.0969903 0.162957 0)
(-0.105928 0.165633 0)
(-0.113596 0.161775 0)
(-0.120805 0.151571 0)
(-0.127817 0.135706 0)
(-0.134772 0.115425 0)
(-0.141412 0.0926019 0)
(-0.146821 0.0691791 0)
(-0.149788 0.046437 0)
(-0.149277 0.0249747 0)
(-0.144976 0.00436758 0)
(-0.138264 -0.016276 0)
(-0.131108 -0.0359099 0)
(-0.123661 -0.0528543 0)
(-0.115597 -0.0682252 0)
(-0.107886 -0.0833055 0)
(-0.101804 -0.0981785 0)
(-0.0982102 -0.112421 0)
(-0.0974789 -0.125241 0)
(-0.0119637 0.16899 0)
(-0.0268287 0.162194 0)
(-0.0417218 0.162351 0)
(-0.0524491 0.166619 0)
(-0.059106 0.170664 0)
(-0.0626924 0.171063 0)
(-0.0645882 0.166122 0)
(-0.0657491 0.155493 0)
(-0.066746 0.139565 0)
(-0.0679241 0.119305 0)
(-0.0693005 0.0961432 0)
(-0.0704785 0.0716195 0)
(-0.0708505 0.046982 0)
(-0.0698888 0.0230997 0)
(-0.0674471 0.000341464 0)
(-0.0640982 -0.0212204 0)
(-0.0606719 -0.0409789 0)
(-0.0573146 -0.0582662 0)
(-0.0539929 -0.0735898 0)
(-0.0512597 -0.0876617 0)
(-0.049877 -0.100705 0)
(-0.0504515 -0.112609 0)
(-0.0533094 -0.122998 0)
(-0.000348665 0.180244 0)
(-0.00759902 0.174667 0)
(-0.016152 0.172071 0)
(-0.0210877 0.172535 0)
(-0.0226798 0.173125 0)
(-0.0214051 0.171125 0)
(-0.0183273 0.164881 0)
(-0.0144304 0.153779 0)
(-0.0104631 0.137955 0)
(-0.00695364 0.11811 0)
(-0.00416246 0.0953534 0)
(-0.00205587 0.0709568 0)
(-0.000413587 0.0460978 0)
(0.00100914 0.0217414 0)
(0.00231788 -0.00144261 0)
(0.00334722 -0.0230093 0)
(0.0038367 -0.0424823 0)
(0.00377823 -0.0595281 0)
(0.00321234 -0.0743867 0)
(0.00189224 -0.0874793 0)
(-0.000581194 -0.099045 0)
(-0.00459115 -0.109127 0)
(-0.0103922 -0.117578 0)
(0.0087498 0.175945 0)
(0.00867702 0.179857 0)
(0.00607731 0.175826 0)
(0.00635646 0.17335 0)
(0.00922676 0.170938 0)
(0.0145551 0.166666 0)
(0.021552 0.15912 0)
(0.0292927 0.147611 0)
(0.0369565 0.132096 0)
(0.043897 0.113051 0)
(0.0496873 0.0913313 0)
(0.0541357 0.0679829 0)
(0.0572353 0.0440627 0)
(0.0590784 0.0205143 0)
(0.0597695 -0.00191353 0)
(0.0593545 -0.0226651 0)
(0.0578682 -0.0413223 0)
(0.0554408 -0.057657 0)
(0.0521925 -0.0717679 0)
(0.0480827 -0.0839009 0)
(0.042951 -0.0942517 0)
(0.036582 -0.102913 0)
(0.028797 -0.109842 0)
(0.0132587 0.161768 0)
(0.0197725 0.177781 0)
(0.0230361 0.17407 0)
(0.0279407 0.169643 0)
(0.0345978 0.164885 0)
(0.0430926 0.158705 0)
(0.0529066 0.150048 0)
(0.0632571 0.138286 0)
(0.0733528 0.123282 0)
(0.0825133 0.105341 0)
(0.0902331 0.0851058 0)
(0.0962077 0.063418 0)
(0.100317 0.0411778 0)
(0.10258 0.0192313 0)
(0.103107 -0.00170908 0)
(0.102047 -0.0210973 0)
(0.0995732 -0.0385511 0)
(0.095903 -0.0538685 0)
(0.0912221 -0.0670573 0)
(0.0856127 -0.0782417 0)
(0.0790595 -0.0875508 0)
(0.0714644 -0.0950682 0)
(0.062715 -0.100791 0)
(0.0134099 0.143491 0)
(0.025233 0.169049 0)
(0.0339288 0.167169 0)
(0.0428556 0.161971 0)
(0.0526254 0.155738 0)
(0.0634729 0.148226 0)
(0.0751317 0.13881 0)
(0.0870209 0.127021 0)
(0.0984656 0.112708 0)
(0.108837 0.0960618 0)
(0.117632 0.0775528 0)
(0.124517 0.0578366 0)
(0.129331 0.0376447 0)
(0.132064 0.0176903 0)
(0.132821 -0.00140344 0)
(0.131784 -0.0191435 0)
(0.129177 -0.0351801 0)
(0.125244 -0.0493111 0)
(0.1202 -0.0614789 0)
(0.114188 -0.0717176 0)
(0.107275 -0.0800877 0)
(0.0994376 -0.0866398 0)
(0.0906185 -0.0913747 0)
(0.0113911 0.124799 0)
(0.0264127 0.155432 0)
(0.0393328 0.155908 0)
(0.0514874 0.150982 0)
(0.0636707 0.144204 0)
(0.0761737 0.136055 0)
(0.088924 0.126334 0)
(0.101553 0.114785 0)
(0.113553 0.10131 0)
(0.124408 0.086038 0)
(0.133679 0.0693124 0)
(0.141057 0.0516306 0)
(0.146382 0.0335665 0)
(0.149631 0.0156973 0)
(0.150896 -0.00145511 0)
(0.150351 -0.0174633 0)
(0.148213 -0.0320082 0)
(0.144717 -0.0448832 0)
(0.140078 -0.0559844 0)
(0.134457 -0.0652793 0)
(0.12796 -0.0727693 0)
(0.120614 -0.0784658 0)
(0.1124 -0.0823582 0)
(0.00914618 0.107569 0)
(0.0252253 0.139088 0)
(0.0407145 0.141548 0)
(0.0550779 0.137519 0)
(0.0689251 0.130966 0)
(0.0824836 0.122833 0)
(0.0957855 0.11327 0)
(0.108635 0.102232 0)
(0.120692 0.0897053 0)
(0.131578 0.075807 0)
(0.14095 0.0607966 0)
(0.148554 0.0450504 0)
(0.154251 0.0290118 0)
(0.158013 0.0131387 0)
(0.159914 -0.00214119 0)
(0.160099 -0.0164628 0)
(0.158759 -0.0295377 0)
(0.156099 -0.0411585 0)
(0.152311 -0.0511909 0)
(0.147558 -0.0595553 0)
(0.141958 -0.066207 0)
(0.135566 -0.0711219 0)
(0.128391 -0.0742727 0)
(0.00744677 0.0922785 0)
(0.0231528 0.121873 0)
(0.0396535 0.125521 0)
(0.0551498 0.12255 0)
(0.0699026 0.11669 0)
(0.0839889 0.109062 0)
(0.0974551 0.100038 0)
(0.110211 0.0897375 0)
(0.122053 0.0782384 0)
(0.132726 0.0656701 0)
(0.141986 0.0522468 0)
(0.149644 0.0382618 0)
(0.155591 0.0240602 0)
(0.159804 0.010005 0)
(0.162336 -0.00355463 0)
(0.163306 -0.0163076 0)
(0.162866 -0.0279957 0)
(0.161188 -0.038415 0)
(0.158441 -0.0474136 0)
(0.15477 -0.0548811 0)
(0.150297 -0.0607387 0)
(0.145088 -0.0649338 0)
(0.139171 -0.0674227 0)
(0.00631823 0.0787338 0)
(0.0209834 0.105001 0)
(0.0373551 0.109054 0)
(0.0530518 0.106994 0)
(0.0680223 0.102001 0)
(0.082173 0.0951543 0)
(0.0955049 0.0869161 0)
(0.107971 0.0775091 0)
(0.119453 0.0670795 0)
(0.12979 0.055779 0)
(0.138823 0.0438009 0)
(0.146422 0.0313858 0)
(0.152511 0.0188104 0)
(0.157072 0.00636739 0)
(0.16015 -0.00565524 0)
(0.161836 -0.0169921 0)
(0.162254 -0.0274111 0)
(0.161543 -0.0367159 0)
(0.159846 -0.0447459 0)
(0.157292 -0.0513714 0)
(0.153996 -0.0564906 0)
(0.150027 -0.0600288 0)
(0.145426 -0.0619281 0)
(0.00557328 0.066622 0)
(0.0189929 0.0891063 0)
(0.0345515 0.0930041 0)
(0.0497685 0.0915913 0)
(0.0644031 0.087435 0)
(0.0782273 0.0814581 0)
(0.0911776 0.0741173 0)
(0.103207 0.0656752 0)
(0.11424 0.0563171 0)
(0.124175 0.0462118 0)
(0.132913 0.0355427 0)
(0.140372 0.0245182 0)
(0.146502 0.0133688 0)
(0.1513 0.00233729 0)
(0.154801 -0.00833418 0)
(0.157081 -0.0184162 0)
(0.158238 -0.027699 0)
(0.158389 -0.0359956 0)
(0.157651 -0.0431424 0)
(0.15614 -0.0489986 0)
(0.153959 -0.0534469 0)
(0.151177 -0.0563968 0)
(0.147839 -0.0577779 0)
(0.0050438 0.0556941 0)
(0.0172112 0.0744491 0)
(0.0316163 0.0778771 0)
(0.0459279 0.0768568 0)
(0.0598315 0.073407 0)
(0.0730235 0.0682621 0)
(0.0853856 0.0618201 0)
(0.0968529 0.0543391 0)
(0.107361 0.0460146 0)
(0.116843 0.0370211 0)
(0.125235 0.0275339 0)
(0.132485 0.0177398 0)
(0.13857 0.00783802 0)
(0.143494 -0.00196371 0)
(0.147291 -0.0114573 0)
(0.150024 -0.0204408 0)
(0.151777 -0.0287228 0)
(0.152645 -0.0361252 0)
(0.15273 -0.0424851 0)
(0.152131 -0.0476557 0)
(0.150943 -0.0515096 0)
(0.149232 -0.0539444 0)
(0.147044 -0.0548789 0)
(0.00462481 0.0457821 0)
(0.0155957 0.061103 0)
(0.0287154 0.0639281 0)
(0.041894 0.063107 0)
(0.0548182 0.0602072 0)
(0.0671613 0.05579 0)
(0.0787724 0.0501771 0)
(0.089567 0.0435965 0)
(0.0994795 0.0362339 0)
(0.108455 0.0282569 0)
(0.116448 0.0198306 0)
(0.123429 0.0111241 0)
(0.129387 0.0023137 0)
(0.134334 -0.00641898 0)
(0.138304 -0.0148906 0)
(0.141354 -0.0229201 0)
(0.143555 -0.0303307 0)
(0.14499 -0.0369528 0)
(0.145745 -0.0426254 0)
(0.145909 -0.0471988 0)
(0.145567 -0.0505391 0)
(0.14478 -0.0525346 0)
(0.143596 -0.0530945 0)
(0.00425986 0.0367804 0)
(0.0141022 0.0490566 0)
(0.0259148 0.0512573 0)
(0.0378651 0.0505072 0)
(0.049677 0.0480145 0)
(0.0610359 0.0441988 0)
(0.0717802 0.039309 0)
(0.0818122 0.0335343 0)
(0.0910609 0.0270383 0)
(0.0994739 0.0199738 0)
(0.107015 0.0124909 0)
(0.113663 0.0047421 0)
(0.119417 -0.00311539 0)
(0.124293 -0.0109204 0)
(0.128326 -0.0185086 0)
(0.131566 -0.0257149 0)
(0.134077 -0.0323746 0)
(0.135931 -0.0383251 0)
(0.137205 -0.0434082 0)
(0.137979 -0.047473 0)
(0.138329 -0.0503809 0)
(0.138313 -0.0520129 0)
(0.137976 -0.0522691 0)
(0.00392173 0.0286208 0)
(0.0127022 0.0382633 0)
(0.0232394 0.0398782 0)
(0.0339463 0.0391224 0)
(0.044595 0.0369205 0)
(0.0549016 0.033584 0)
(0.0647086 0.0293014 0)
(0.0739134 0.0242237 0)
(0.082441 0.0184884 0)
(0.0902382 0.0122279 0)
(0.0972717 0.00557464 0)
(0.103526 -0.00133638 0)
(0.109003 -0.00836557 0)
(0.113721 -0.0153685 0)
(0.117714 -0.0221967 0)
(0.121029 -0.0286977 0)
(0.123724 -0.0347165 0)
(0.125862 -0.0400968 0)
(0.127514 -0.0446833 0)
(0.128751 -0.0483249 0)
(0.129643 -0.0508795 0)
(0.130244 -0.052222 0)
(0.130599 -0.0522436 0)
(0.00359876 0.0212537 0)
(0.0113803 0.0286625 0)
(0.0206995 0.0297579 0)
(0.0301945 0.028954 0)
(0.0396841 0.026954 0)
(0.0489208 0.0239901 0)
(0.0577595 0.0202048 0)
(0.0660988 0.0157161 0)
(0.0738628 0.0106352 0)
(0.0809983 0.00507231 0)
(0.0874733 -0.000859901 0)
(0.0932747 -0.00704445 0)
(0.0984063 -0.0133585 0)
(0.102887 -0.0196728 0)
(0.10675 -0.0258516 0)
(0.110038 -0.0317534 0)
(0.112803 -0.0372313 0)
(0.115103 -0.0421346 0)
(0.117002 -0.046311 0)
(0.118565 -0.0496095 0)
(0.119858 -0.0518859 0)
(0.120931 -0.0530094 0)
(0.121827 -0.052863 0)
(0.00328587 0.0146381 0)
(0.0101291 0.0201876 0)
(0.0183008 0.0208381 0)
(0.0266431 0.0199646 0)
(0.0350135 0.0181003 0)
(0.0431991 0.0154221 0)
(0.0510693 0.0120389 0)
(0.058528 0.00804162 0)
(0.0655019 0.00351672 0)
(0.0719403 -0.00144808 0)
(0.0778138 -0.00676053 0)
(0.0831113 -0.0123216 0)
(0.0878378 -0.0180241 0)
(0.0920123 -0.0237522 0)
(0.0956647 -0.0293816 0)
(0.0988349 -0.0347797 0)
(0.10157 -0.0398069 0)
(0.103923 -0.0443178 0)
(0.105952 -0.0481629 0)
(0.107717 -0.0511923 0)
(0.109278 -0.0532601 0)
(0.110685 -0.0542307 0)
(0.11198 -0.0539794 0)
(0.00297894 0.00873735 0)
(0.00894412 0.0127688 0)
(0.0160484 0.0130451 0)
(0.0233153 0.0120915 0)
(0.0306293 0.0103155 0)
(0.0378063 0.00785663 0)
(0.0447288 0.00479977 0)
(0.0513089 0.00121235 0)
(0.0574801 -0.00284253 0)
(0.0631977 -0.00729911 0)
(0.0684371 -0.0120846 0)
(0.0731901 -0.0171168 0)
(0.077463 -0.0223025 0)
(0.0812735 -0.0275376 0)
(0.084649 -0.0327074 0)
(0.0876253 -0.0376876 0)
(0.0902447 -0.042345 0)
(0.0925554 -0.0465389 0)
(0.0946095 -0.0501235 0)
(0.096463 -0.0529501 0)
(0.0981725 -0.0548722 0)
(0.0997866 -0.0557505 0)
(0.101348 -0.0554533 0)
(0.00267286 0.00351989 0)
(0.00782337 0.00633161 0)
(0.0139503 0.00629318 0)
(0.0202317 0.00525552 0)
(0.0265651 0.00353758 0)
(0.0327869 0.00125395 0)
(0.0387924 -0.00153113 0)
(0.0445055 -0.00477274 0)
(0.0498717 -0.00843034 0)
(0.0548563 -0.0124584 0)
(0.0594416 -0.0168015 0)
(0.063623 -0.0213914 0)
(0.0674074 -0.0261468 0)
(0.0708109 -0.0309732 0)
(0.0738576 -0.0357644 0)
(0.0765786 -0.0404029 0)
(0.0790114 -0.0447615 0)
(0.0811985 -0.0487046 0)
(0.0831877 -0.0520902 0)
(0.0850304 -0.0547719 0)
(0.0867803 -0.0566035 0)
(0.0884851 -0.0574433 0)
(0.0901886 -0.0571537 0)
(0.00236316 -0.00103796 0)
(0.00677103 0.000796356 0)
(0.0120221 0.000487223 0)
(0.0174144 -0.000631665 0)
(0.0228432 -0.00230138 0)
(0.02816 -0.00443006 0)
(0.0332773 -0.00697726 0)
(0.0381381 -0.00992195 0)
(0.0427051 -0.0132444 0)
(0.0469566 -0.016916 0)
(0.050882 -0.0208943 0)
(0.0544802 -0.0251217 0)
(0.0577575 -0.0295257 0)
(0.0607273 -0.0340194 0)
(0.0634094 -0.0385034 0)
(0.06583 -0.0428667 0)
(0.0680208 -0.0469878 0)
(0.0700194 -0.0507364 0)
(0.0718682 -0.0539747 0)
(0.0736148 -0.0565598 0)
(0.07531 -0.0583471 0)
(0.0770012 -0.0591941 0)
(0.0787339 -0.0589589 0)
(0.0020498 -0.00497148 0)
(0.00580428 -0.00393218 0)
(0.0102906 -0.00447795 0)
(0.014883 -0.00565684 0)
(0.0194643 -0.00726038 0)
(0.0239081 -0.00923066 0)
(0.0281566 -0.0115588 0)
(0.0321808 -0.0142475 0)
(0.0359641 -0.0172927 0)
(0.0394966 -0.0206759 0)
(0.0427734 -0.0243625 0)
(0.0457941 -0.028301 0)
(0.0485629 -0.0324248 0)
(0.0510892 -0.0366531 0)
(0.0533877 -0.0408922 0)
(0.0554789 -0.0450369 0)
(0.0573889 -0.0489716 0)
(0.0591496 -0.0525714 0)
(0.0607986 -0.0557038 0)
(0.0623792 -0.0582303 0)
(0.0639393 -0.0600094 0)
(0.0655259 -0.0608996 0)
(0.0671864 -0.0607573 0)
(0.00175441 -0.00834176 0)
(0.0049716 -0.00796284 0)
(0.00879485 -0.0087027 0)
(0.0126365 -0.00988333 0)
(0.0163833 -0.0113702 0)
(0.019959 -0.0131643 0)
(0.0233522 -0.0152915 0)
(0.0265645 -0.017769 0)
(0.0295956 -0.0205973 0)
(0.0324423 -0.0237599 0)
(0.0351005 -0.0272237 0)
(0.0375672 -0.0309404 0)
(0.0398426 -0.0348473 0)
(0.0419312 -0.0388681 0)
(0.0438423 -0.0429148 0)
(0.0455906 -0.0468875 0)
(0.0471963 -0.0506767 0)
(0.048686 -0.0541632 0)
(0.050092 -0.0572205 0)
(0.051453 -0.0597156 0)
(0.0528137 -0.0615116 0)
(0.05422 -0.0624701 0)
(0.0557205 -0.0624482 0)
(0.00153628 -0.0112448 0)
(0.00435052 -0.0114143 0)
(0.0075402 -0.0122503 0)
(0.0105953 -0.0133162 0)
(0.0134736 -0.01462 0)
(0.0161798 -0.016234 0)
(0.0187477 -0.0181984 0)
(0.0211974 -0.0205235 0)
(0.0235325 -0.023201 0)
(0.0257475 -0.0262091 0)
(0.027834 -0.0295134 0)
(0.0297845 -0.0330671 0)
(0.0315945 -0.0368107 0)
(0.0332634 -0.0406726 0)
(0.0347954 -0.0445695 0)
(0.0361999 -0.0484074 0)
(0.037492 -0.0520824 0)
(0.0386923 -0.0554817 0)
(0.0398282 -0.0584848 0)
(0.0409333 -0.0609653 0)
(0.0420478 -0.0627921 0)
(0.0432155 -0.0638319 0)
(0.0444845 -0.0639451 0)
(0.00149176 -0.0137387 0)
(0.00399777 -0.0143268 0)
(0.00639086 -0.0150465 0)
(0.0085547 -0.0158741 0)
(0.0105446 -0.0169803 0)
(0.0124238 -0.0184623 0)
(0.014241 -0.0203336 0)