/*--------------------------------*- C++ -*----------------------------------*\
  =========                 |
  \\      /  F ield         | OpenFOAM: The Open Source CFD Toolbox
   \\    /   O peration     | Website:  https://openfoam.org
    \\  /    A nd           | Version:  9
     \\/     M anipulation  |
\*---------------------------------------------------------------------------*/
FoamFile
{
    format      ascii;
    class       volScalarField;
    location    "7.41";
    object      epsilon;
}
// * * * * * * * * * * * * * * * * * * * * * * * * * * * * * * * * * * * * * //

dimensions      [0 2 -3 0 0 0 0];

internalField   nonuniform List<scalar> 
2268
(
0.000149451
0.00081507
0.00145469
0.00203484
0.00255785
0.00302889
0.00345151
0.00382799
0.00415924
0.00444934
0.00470645
0.00494181
0.00515969
0.00534082
0.00542376
0.00529243
0.00487539
0.00423365
0.00348153
0.00274707
0.00217897
0.00142043
0.000483584
0.00030849
0.000535518
0.000793106
0.0010355
0.00125633
0.00145547
0.00163411
0.00179369
0.00193558
0.00206166
0.00217438
0.00227591
0.00236545
0.00243519
0.00246645
0.00243054
0.00232278
0.0021558
0.00191433
0.00162412
0.00131071
0.000980139
0.00076049
0.000528062
0.000568409
0.000732643
0.000899872
0.0010557
0.00119718
0.00132428
0.00143789
0.00153924
0.0016298
0.00171102
0.00178362
0.00184622
0.00189361
0.00191545
0.00189868
0.00184347
0.00175494
0.00161692
0.00144526
0.00126926
0.00112309
0.00126312
0.000745532
0.00064187
0.000753694
0.000883672
0.00100889
0.00112389
0.00122763
0.00132055
0.00140364
0.00147815
0.00154516
0.001605
0.00165636
0.00169534
0.00171504
0.00170793
0.00167512
0.00161966
0.00153177
0.00142905
0.00134981
0.00135368
0.0018515
0.000955948
0.000728478
0.000801395
0.000906089
0.00101136
0.00110952
0.00119864
0.00127873
0.0013506
0.00141533
0.00147384
0.00152635
0.00157177
0.00160709
0.00162731
0.00162742
0.00160851
0.00157372
0.00152069
0.00147085
0.00147228
0.00162635
0.00259024
0.00116171
0.000822024
0.000862606
0.000947402
0.00103732
0.00112268
0.00120084
0.00127144
0.0013351
0.0013928
0.00144537
0.00149306
0.00153502
0.0015689
0.0015909
0.00159729
0.00158887
0.00156971
0.00154461
0.00153895
0.00161371
0.00194007
0.00358918
0.00136785
0.000921317
0.000933089
0.0010008
0.00107759
0.00115205
0.00122095
0.00128361
0.00134051
0.00139253
0.0014405
0.0014847
0.00152451
0.00155808
0.00158244
0.00159462
0.00159506
0.00158911
0.001587
0.00161797
0.00175817
0.00227736
0.00504436
0.00158507
0.00102676
0.00101144
0.0010636
0.0011283
0.00119271
0.00125309
0.00130852
0.00135929
0.00140632
0.00145039
0.0014918
0.00153014
0.00156392
0.00159078
0.00160825
0.00161663
0.00162238
0.00163898
0.00169796
0.0018857
0.00257363
0.00807946
0.00068634
0.00225213
0.00347198
0.0041005
0.00446883
0.00464578
0.00478265
0.00485996
0.00465221
0.00396186
0.00313774
0.0023819
0.00197616
0.00202806
0.00218374
0.00205724
0.00142237
0.000849283
0.000176146
0.000696532
0.00124504
0.001689
0.00194583
0.00210117
0.00218704
0.00223835
0.00224847
0.00216539
0.00196743
0.00171654
0.00141224
0.00119499
0.00110989
0.00105086
0.000946073
0.000714197
0.000494274
0.000250194
0.000935457
0.00118468
0.00143933
0.00158739
0.00167986
0.00173496
0.00176484
0.0017602
0.00169582
0.00157503
0.00142123
0.0012254
0.00106253
0.000968395
0.000891933
0.000799669
0.000643886
0.000499872
0.000404814
0.00121092
0.00128993
0.00141682
0.00149248
0.00154401
0.00157736
0.00159365
0.00158081
0.00152237
0.00142852
0.00131212
0.00116653
0.00103567
0.000945359
0.000869317
0.000786212
0.000664775
0.000565741
0.000591461
0.00166005
0.00147764
0.00147168
0.00148341
0.00150082
0.00151553
0.00152069
0.00150201
0.00144674
0.00136658
0.00127082
0.00115539
0.00104633
0.000962085
0.000889927
0.000813833
0.000715511
0.000655282
0.000808423
0.00232525
0.00171268
0.00155877
0.00151119
0.00149879
0.001497
0.00149248
0.00146956
0.00141726
0.00134695
0.00126579
0.00117119
0.00107789
0.00099903
0.00092972
0.000858077
0.000776516
0.00075087
0.00105317
0.00345454
0.00196433
0.00165367
0.0015546
0.00151722
0.00150118
0.00148837
0.00146256
0.00141401
0.00135343
0.0012852
0.00120639
0.00112482
0.00104994
0.000979029
0.000908724
0.000839761
0.000843313
0.00132294
0.00617684
0.00219656
0.00173796
0.001602
0.00154583
0.00151824
0.00149861
0.00147124
0.00142747
0.00137782
0.00132334
0.00125774
0.00118503
0.00111141
0.00103289
0.00096134
0.000902965
0.000932542
0.00161958
0.001898
0.00119101
0.00114119
0.00117214
0.0012193
0.00126889
0.00131673
0.0013614
0.00140315
0.00144295
0.00148154
0.0015192
0.00155575
0.0015901
0.00162052
0.00164523
0.00166474
0.0016864
0.00172596
0.00181333
0.00202043
0.00254132
0.00401084
0.00236799
0.00144874
0.00135568
0.00135732
0.00137812
0.00140617
0.00143616
0.00146498
0.00149316
0.00152256
0.00155371
0.00158632
0.00162006
0.00165399
0.00168685
0.00171746
0.00174672
0.00178087
0.001833
0.00192336
0.00209277
0.00241398
0.0029842
0.00293018
0.0017622
0.00161663
0.00158221
0.00156991
0.00157517
0.00158682
0.00159657
0.00160698
0.0016237
0.00164672
0.00167403
0.00170426
0.00173651
0.00176961
0.00180243
0.00183662
0.00187708
0.0019316
0.00200987
0.00213071
0.00231823
0.00256393
0.00378463
0.00214909
0.00189955
0.00182202
0.00177435
0.00176462
0.00176127
0.00174901
0.00173507
0.00173738
0.00175326
0.0017767
0.00180434
0.00183493
0.00186747
0.0018994
0.00193374
0.0019754
0.0020287
0.00209127
0.00216964
0.00227917
0.00240673
0.00518128
0.00241514
0.0020452
0.00192358
0.00184817
0.0018127
0.00181492
0.00182029
0.00181402
0.0018232
0.00184789
0.00187957
0.0019135
0.0019451
0.00197223
0.00199628
0.00202411
0.00206076
0.00212153
0.00217569
0.0022087
0.00225927
0.00232447
0.00481051
0.00243615
0.00208893
0.0020355
0.00190634
0.00182627
0.00181266
0.00181786
0.00182775
0.00185145
0.00188903
0.001935
0.00198525
0.00203004
0.00206343
0.00207729
0.0020941
0.00211694
0.00215416
0.0022033
0.00223015
0.00224574
0.00227424
0.0017634
0.00228305
0.00201409
0.00192224
0.00185572
0.00182167
0.00182119
0.0018324
0.00184353
0.00186766
0.00190398
0.00194611
0.00199035
0.00203184
0.00206315
0.00208117
0.00209834
0.00211989
0.00214658
0.00217868
0.00220449
0.00221547
0.00223447
0.00176827
0.00225883
0.00195425
0.00185462
0.00181407
0.00180604
0.00181741
0.0018368
0.00185584
0.00188022
0.00191145
0.00194607
0.00198281
0.00201999
0.00205209
0.00207932
0.0021038
0.00212622
0.00214859
0.00216934
0.0021857
0.00219644
0.00220759
0.00176568
0.00215026
0.00188769
0.00180396
0.00178029
0.00178625
0.00180653
0.00183242
0.0018587
0.00188694
0.00191797
0.00195022
0.00198459
0.00202181
0.00205727
0.00208867
0.00211673
0.00214128
0.0021618
0.0021774
0.00218746
0.00219336
0.00219905
0.00176514
0.00210666
0.00183992
0.00176799
0.00175518
0.00176899
0.00179497
0.00182568
0.00185758
0.00189051
0.00192399
0.00195738
0.00199284
0.00203176
0.00206967
0.00210359
0.00213391
0.00216034
0.00218065
0.00219338
0.00219977
0.00220297
0.00220619
0.00176482
0.00209198
0.00181711
0.00174702
0.0017382
0.0017555
0.00178469
0.00181896
0.00185542
0.00189286
0.0019299
0.00196629
0.0020041
0.00204425
0.00208351
0.00211927
0.00215175
0.00218013
0.00220147
0.0022142
0.00222079
0.00222455
0.00222777
0.00747054
0.00211049
0.00181385
0.00173891
0.00172946
0.00174742
0.00177814
0.00181499
0.00185499
0.00189619
0.00193681
0.00197672
0.00201728
0.00205882
0.00209925
0.00213673
0.00217111
0.00220148
0.00222521
0.00224086
0.0022508
0.00225774
0.00226319
0.00176653
0.00212344
0.00182273
0.00174071
0.00172854
0.00174577
0.00177714
0.00181579
0.00185834
0.00190239
0.00194621
0.00198959
0.00203309
0.00207658
0.00211877
0.00215845
0.00219516
0.00222808
0.00225531
0.00227569
0.0022908
0.00230259
0.00231196
0.00176699
0.00215551
0.00183917
0.00174998
0.0017345
0.00175054
0.00178218
0.00182215
0.00186656
0.00191292
0.00195971
0.0020065
0.0020532
0.00209944
0.00214434
0.00218709
0.00222709
0.00226356
0.00229526
0.00232135
0.0023426
0.0023602
0.0023747
0.001769
0.00218683
0.00186077
0.00176495
0.00174629
0.00176114
0.00179296
0.00183403
0.00188015
0.00192883
0.00197872
0.00202911
0.00207953
0.00212944
0.00217817
0.00222504
0.00226947
0.00231073
0.00234791
0.00238042
0.0024085
0.00243275
0.00245346
0.00176945
0.00222802
0.00188613
0.00178442
0.00176298
0.00177687
0.00180899
0.00185128
0.00189939
0.00195085
0.00200428
0.00205877
0.00211365
0.00216829
0.00222205
0.00227429
0.00232443
0.00237178
0.00241563
0.00245546
0.00249124
0.00252316
0.00255121
0.00747149
0.00229197
0.00191561
0.00180778
0.00178394
0.00179723
0.00182999
0.00187393
0.0019246
0.00197952
0.00203717
0.00209655
0.00215685
0.00221738
0.00227748
0.0023365
0.00239381
0.00244875
0.00250069
0.00254912
0.00259379
0.00263459
0.00267128
0.00176753
0.00232284
0.00194785
0.00183457
0.00180878
0.00182198
0.00185595
0.00190218
0.00195618
0.00201537
0.00207815
0.00214342
0.0022103
0.00227805
0.00234595
0.00241332
0.00247949
0.00254377
0.0026055
0.00266414
0.00271925
0.00277046
0.00281732
0.00747935
0.00238941
0.00198286
0.00186457
0.00183737
0.00185111
0.00188699
0.00193634
0.00199456
0.00205902
0.00212802
0.0022004
0.00227524
0.00235174
0.00242912
0.00250666
0.00258362
0.00265924
0.0027328
0.00280362
0.0028711
0.00293463
0.00299352
0.00176609
0.00243519
0.00202031
0.00189768
0.00186971
0.00188471
0.00192335
0.00197677
0.00204027
0.00211115
0.00218768
0.00226863
0.00235305
0.00244008
0.00252891
0.00261874
0.00270873
0.00279804
0.00288583
0.00297125
0.00305348
0.00313166
0.00320489
0.00176476
0.00248942
0.00206038
0.00193391
0.00190586
0.00192296
0.00196534
0.00202391
0.00209391
0.00217258
0.00225815
0.00234939
0.00244529
0.00254497
0.00264756
0.00275216
0.00285786
0.00296366
0.00306856
0.00317149
0.0032714
0.00336714
0.00345754
0.00176601
0.00254367
0.00210225
0.00197311
0.00194593
0.0019661
0.0020133
0.00207826
0.00215615
0.00224418
0.00234058
0.00244411
0.00255375
0.00266858
0.00278767
0.00291004
0.00303463
0.00316029
0.00328579
0.00340981
0.00353098
0.00364785
0.00375893
0.00745937
0.00260507
0.00214668
0.0020156
0.00199013
0.00201441
0.00206764
0.00214037
0.00222773
0.00232694
0.00243625
0.00255442
0.00268045
0.00281339
0.00295227
0.00309599
0.00324334
0.00339295
0.00354332
0.00369281
0.00383967
0.00398207
0.00411814
0.00746814
0.0026687
0.00219448
0.00206152
0.00203865
0.00206818
0.00212877
0.00221082
0.00230946
0.00242193
0.00254654
0.00268211
0.00282766
0.00298225
0.00314484
0.00331425
0.00348905
0.00366762
0.00384812
0.00402848
0.0042065
0.00437987
0.00454623
0.00747614
0.00273796
0.00224569
0.00211097
0.00209167
0.00212768
0.0021971
0.00229022
0.00240216
0.00253026
0.00267294
0.00282911
0.00299788
0.00317833
0.00336938
0.00356972
0.00377772
0.00399141
0.00420852
0.00442646
0.00464242
0.00485346
0.00505661
0.00747549
0.00279927
0.00229772
0.00216358
0.00214925
0.00219317
0.00227306
0.00237915
0.00250666
0.00265309
0.00281702
0.00299753
0.00319386
0.00340517
0.00363039
0.00386805
0.00411628
0.00437271
0.00463448
0.00489832
0.00516063
0.00541765
0.00566559
0.00748557
0.00285759
0.00235135
0.00221953
0.00221154
0.00226487
0.00235698
0.00247815
0.00262376
0.00279154
0.00298035
0.00318952
0.00341852
0.00366666
0.0039329
0.00421568
0.0045128
0.00482139
0.00513786
0.005458
0.00577718
0.0060905
0.0063931
0.00748272
0.00292176
0.00240739
0.00227898
0.00227867
0.00234296
0.00244917
0.00258768
0.00275416
0.00294667
0.00316446
0.00340726
0.00367489
0.00396694
0.00428247
0.00461985
0.00497654
0.00534903
0.00573276
0.00612224
0.00651139
0.00689382
0.00726324
0.00748041
0.0029851
0.0024657
0.0023419
0.00235063
0.00242751
0.00254978
0.00270806
0.00289839
0.00311934
0.00337071
0.00365281
0.003966
0.0043103
0.00468505
0.00508861
0.00551806
0.00596906
0.00643578
0.00691107
0.00738683
0.00785451
0.00830583
0.00748986
0.00304291
0.00252603
0.00240817
0.00242734
0.00251847
0.00265884
0.00283941
0.00305676
0.00331016
0.00360016
0.00392792
0.00429459
0.00470092
0.00514675
0.00563055
0.00614907
0.00669696
0.00726671
0.00784883
0.00843237
0.00900576
0.00955782
0.0017693
0.00309574
0.00258823
0.00247748
0.00250852
0.0026156
0.00277613
0.00298155
0.00322919
0.00351923
0.00385331
0.00423375
0.0046629
0.00514262
0.00567361
0.00625478
0.0068826
0.00755055
0.00824892
0.00896492
0.00968355
0.0103888
0.0110652
0.00176849
0.00316052
0.00265129
0.00254925
0.00259379
0.00271857
0.00290126
0.00313401
0.00341514
0.00374606
0.00412989
0.00457057
0.0050722
0.00563832
0.00627109
0.00697033
0.00773253
0.00854989
0.00940979
0.0102949
0.0111842
0.0120552
0.012886
0.00747294
0.00323653
0.00271422
0.00262306
0.00268294
0.00282711
0.00303375
0.00329599
0.00361348
0.0039893
0.00442853
0.00493732
0.00552223
0.00618934
0.00694316
0.0077853
0.00871287
0.00971687
0.010781
0.0118815
0.0129886
0.0140697
0.0150933
0.00747472
0.00328963
0.00277621
0.00269908
0.00277633
0.00294131
0.00317313
0.00346635
0.00382243
0.00424657
0.0047464
0.00533104
0.00601045
0.00679439
0.00769111
0.00870543
0.00983633
0.0110742
0.0123984
0.0137762
0.0151645
0.0165151
0.0177816
0.00747064
0.00333397
0.00283815
0.00277921
0.00287571
0.00306207
0.00331918
0.00364367
0.00403935
0.00451413
0.00507876
0.00574624
0.00653104
0.0074482
0.00851168
0.00973183
0.0111118
0.0126431
0.0143007
0.0160397
0.0177969
0.0194982
0.0210735
0.00747078
0.00336758
0.0029047
0.00286933
0.00298567
0.00319187
0.00347217
0.0038262
0.00426066
0.00478659
0.00541854
0.00617416
0.00707383
0.00813983
0.00939456
0.0108575
0.0125401
0.0144389
0.016526
0.0187419
0.0209921
0.0231594
0.0251316
0.00747163
0.00339899
0.00299312
0.00298451
0.00311617
0.00333569
0.00363305
0.00401173
0.0044815
0.00505669
0.00575589
0.00660219
0.00762321
0.00885073
0.0103192
0.0120624
0.014107
0.0164623
0.0191043
0.021958
0.0248833
0.0276867
0.030176
0.00748331
0.00347606
0.00315674
0.00315999
0.00328633
0.00350161
0.00380301
0.00419703
0.00469543
0.00531498
0.00607807
0.0070135
0.00815729
0.00955303
0.0112513
0.013307
0.0157726
0.0186848
0.0220399
0.025757
0.0296352
0.033342
0.0365135
0.00748717
0.00393855
0.00356226
0.0034735
0.00352787
0.00369932
0.00398156
0.0043766
0.00489372
0.0055497
0.00636949
0.00738729
0.00864796
0.0102086
0.0121399
0.0145255
0.0174577
0.0210244
0.0252773
0.0301678
0.0354396
0.0405125
0.0445867
0.014796
0.00666273
0.00473401
0.00407921
0.00388026
0.00393266
0.00416195
0.00454049
0.00506474
0.00574699
0.00661257
0.00769991
0.0090622
0.0107704
0.0129172
0.015621
0.0190285
0.0233102
0.0286356
0.0350922
0.042475
0.0498391
0.0550594
0.149531
0.0243703
0.00832799
0.00520959
0.00435294
0.00418019
0.00432366
0.00467206
0.00519383
0.00589172
0.00678921
0.00792723
0.00936555
0.0111869
0.0135039
0.0164694
0.0202904
0.0252459
0.0317016
0.0400877
0.0506876
0.0625991
0.0689465
1.53756
0.125336
0.0178033
0.00682084
0.00480654
0.00436607
0.00442729
0.00474845
0.00526486
0.00596943
0.00688319
0.00804806
0.00952738
0.0114108
0.0138233
0.0169403
0.0210129
0.0264122
0.033716
0.0438942
0.0587465
0.0820183
0.0876804
0.00920683
0.00746104
0.00781356
0.00992018
0.00358572
0.00362534
0.00360327
0.00348702
0.0027046
0.00272961
0.00269762
0.00261053
0.00245258
0.00245513
0.00242932
0.00237779
0.00234101
0.00233678
0.00231788
0.00228233
0.0022754
0.00226901
0.00225703
0.00223798
0.00223781
0.00223677
0.00223219
0.00222093
0.00221382
0.00221622
0.00221504
0.00220832
0.0022033
0.00220524
0.00220502
0.00220159
0.00220876
0.00220993
0.00220991
0.00220793
0.00222986
0.00223075
0.00223072
0.00222919
0.00226611
0.00226735
0.0022676
0.00226653
0.00231704
0.00231948
0.00232081
0.00232089
0.00238306
0.0023875
0.00239076
0.00239277
0.00246606
0.00247314
0.00247897
0.00248352
0.00256896
0.00257924
0.00258821
0.0025958
0.00269513
0.00270923
0.00272191
0.00273311
0.00284837
0.00286698
0.00288405
0.0028995
0.0030331
0.00305706
0.00307933
0.00309983
0.00325464
0.00328498
0.00331348
0.00333999
0.00351948
0.00355747
0.00359341
0.00362714
0.00383554
0.00388274
0.00392763
0.00397005
0.00421246
0.00427077
0.00432646
0.00437933
0.00466199
0.0047337
0.00480242
0.0048679
0.00519834
0.00528628
0.00537073
0.00545142
0.0058388
0.00594639
0.00604986
0.00614889
0.00660442
0.00673579
0.00686222
0.00698332
0.00752089
0.00768107
0.00783519
0.0079828
0.00861986
0.00881491
0.00900239
0.00918174
0.00994047
0.0101777
0.0104053
0.0106225
0.0115315
0.0118197
0.0120953
0.0123576
0.0134542
0.0138039
0.014137
0.0144524
0.015786
0.01621
0.0166113
0.016989
0.0186264
0.0191396
0.0196213
0.0200711
0.0221041
0.0227236
0.023299
0.0238303
0.0263881
0.0271329
0.0278147
0.0284351
0.0317039
0.0325921
0.0333894
0.0341008
0.0383567
0.0393993
0.0403101
0.0411017
0.0467655
0.0479501
0.0489465
0.0497819
0.0575055
0.058759
0.059758
0.0605563
0.0713313
0.0724454
0.0732672
0.0738827
0.0890551
0.0895944
0.0899441
0.0901824
0.0035755
0.00222664
0.00182979
0.00167284
0.00159795
0.00155695
0.00152947
0.00150175
0.0014673
0.00143556
0.00140522
0.00135959
0.00129675
0.0012162
0.00111846
0.00104101
0.000997592
0.00106211
0.00198743
0.00271351
0.00215472
0.00188796
0.00175093
0.00167483
0.00162985
0.00160175
0.00158145
0.00156425
0.00155424
0.00155194
0.00152964
0.00146644
0.00136053
0.00123905
0.00115142
0.0011163
0.00121279
0.00230501
0.00238311
0.00211099
0.00193311
0.00182369
0.00175846
0.00172051
0.00170098
0.0016943
0.00169587
0.00170533
0.00172497
0.00171363
0.00163423
0.00150434
0.00136368
0.00126431
0.00122825
0.00133366
0.00240107
0.00226599
0.00211413
0.00198493
0.00189903
0.00184933
0.00182343
0.00181741
0.00182936
0.00185185
0.00188094
0.00192502
0.00191545
0.00180016
0.00165403
0.00149249
0.00138103
0.00134502
0.00147624
0.00271339
0.00221054
0.00211573
0.00202909
0.00197418
0.00193588
0.00191061
0.00191053
0.0019324
0.00195102
0.00194883
0.001949
0.00196611
0.00190402
0.0017374
0.00159519
0.00149091
0.00146595
0.00164022
0.00327853
0.00219832
0.0021433
0.00207362
0.0020165
0.00197917
0.00195799
0.00195647
0.00196651
0.00197271
0.00195251
0.00194951
0.00198066
0.00191405
0.00180323
0.0016894
0.00160005
0.00158517
0.00176898
0.00317557
0.00219447
0.00215471
0.00209279
0.00204396
0.00201291
0.00199497
0.00199015
0.0019818
0.00196715
0.00194566
0.00193479
0.00194917
0.00190462
0.00180572
0.00173038
0.00168107
0.00170078
0.00187121
0.0045543
0.00219059
0.00215609
0.00210756
0.00206703
0.00204036
0.00202526
0.00201037
0.00198572
0.00196037
0.00193758
0.00192372
0.0019187
0.00186514
0.00177963
0.00170733
0.00167241
0.00171373
0.0020011
0.00490907
0.00219048
0.00216272
0.00212663
0.00209461
0.00207055
0.00205286
0.00202677
0.00199401
0.0019642
0.00193781
0.00191347
0.00188866
0.00184492
0.00177548
0.00169802
0.00165365
0.00169169
0.00200166
0.00115882
0.00220068
0.00218101
0.00215589
0.00213023
0.00210664
0.00208367
0.0020512
0.00201382
0.00197832
0.00194511
0.0019092
0.00186589
0.00181674
0.00175849
0.00168885
0.00164012
0.00166296
0.00194051
0.00490651
0.00222378
0.00220999
0.00219239
0.00217148
0.00214832
0.00212224
0.00208642
0.0020437
0.00200127
0.00196002
0.00191474
0.00185897
0.00179518
0.00173133
0.00167114
0.00162667
0.00163148
0.00182878
0.00115909
0.00226251
0.00225196
0.00223769
0.00221933
0.00219692
0.00216883
0.00213059
0.0020848
0.00203697
0.0019881
0.00193474
0.00187206
0.00179914
0.00172242
0.00165809
0.00161561
0.00160903
0.00173397
0.00115864
0.00231898
0.00231107
0.00229836
0.00228083
0.00225821
0.00222844
0.00218928
0.00214238
0.0020909
0.00203587
0.00197591
0.0019086
0.00183196
0.00174635
0.00166812
0.00161475
0.00160053
0.001678
0.00115881
0.00239403
0.00238973
0.00237925
0.00236258
0.00233952
0.00230882
0.00226938
0.00222191
0.00216804
0.00210869
0.00204371
0.00197225
0.00189309
0.00180529
0.00171683
0.00164538
0.00161501
0.001674
0.00488916
0.00248885
0.00248943
0.00248261
0.00246812
0.00244585
0.00241529
0.00237598
0.00232821
0.00227285
0.00221072
0.0021423
0.00206784
0.00198743
0.00190131
0.00181253
0.00173247
0.00168884
0.00173928
0.00115236
0.00260602
0.0026127
0.00261095
0.00260024
0.0025804
0.00255128
0.0025128
0.0024652
0.00240912
0.0023454
0.00227499
0.00219898
0.00211879
0.0020364
0.00195536
0.00188555
0.00186067
0.00196998
0.0011338
0.00274911
0.00276312
0.00276774
0.00276226
0.00274636
0.00271999
0.00268326
0.00263652
0.00258042
0.00251598
0.00244457
0.00236808
0.00228917
0.00221184
0.00214279
0.00209732
0.00212502
0.0023896
0.00473186
0.00292235
0.00294508
0.00295743
0.00295853
0.00294793
0.00292553
0.00289152
0.00284637
0.00279085
0.00272622
0.00265427
0.00257764
0.00250019
0.00242793
0.00237119
0.00235208
0.00243514
0.0028598
0.00512755
0.00313082
0.00316395
0.00318556
0.00319467
0.00319068
0.00317341
0.00314305
0.00310014
0.00304562
0.00298097
0.00290842
0.00283125
0.00275442
0.00268577
0.00263892
0.00264184
0.00276775
0.00329267
0.00636419
0.00338071
0.00342628
0.00345898
0.00347769
0.00348171
0.00347073
0.00344491
0.00340483
0.00335153
0.00328673
0.003213
0.0031342
0.00305623
0.00298855
0.0029478
0.00296827
0.00313794
0.00378412
0.00769506
0.00367956
0.00374005
0.00378603
0.00381624
0.00382983
0.00382641
0.00380604
0.00376929
0.0037173
0.00365192
0.00357602
0.00349391
0.00341227
0.00334193
0.00330201
0.00333166
0.00352903
0.00426168
0.00872589
0.00403653
0.00411495
0.00417685
0.0042208
0.00424581
0.00425135
0.00423742
0.00420453
0.00415382
0.00408725
0.00400786
0.00392032
0.00383188
0.00375454
0.00370918
0.00373787
0.00394604
0.0047312
0.00958147
0.00446276
0.00456273
0.0046437
0.00470405
0.00474262
0.00475879
0.00475241
0.00472393
0.00467446
0.00460594
0.00452153
0.00442617
0.00432757
0.0042384
0.00418093
0.00419989
0.00440787
0.00523321
0.0104521
0.00497175
0.0050976
0.00520136
0.00528121
0.00533587
0.00536456
0.00536704
0.00534365
0.00529542
0.00522424
0.00513326
0.0050275
0.00491498
0.004809
0.00473322
0.00473556
0.00493775
0.00580641
0.0114597
0.00557985
0.00573667
0.00586758
0.00597056
0.0060442
0.00608762
0.0061005
0.00608308
0.00603624
0.00596174
0.0058626
0.00574382
0.00561362
0.00548598
0.00538623
0.00536659
0.00556117
0.00648732
0.0127196
0.00630686
0.00650059
0.00666367
0.00679393
0.00688986
0.00695057
0.00697567
0.00696532
0.00692022
0.00684192
0.00673322
0.00659897
0.00644751
0.00629358
0.00616467
0.00611857
0.00630556
0.00730838
0.0142964
0.00717669
0.0074143
0.00761532
0.00777751
0.00789943
0.00798026
0.00801968
0.00801778
0.00797511
0.00789292
0.00777366
0.0076219
0.00744603
0.00726153
0.0070985
0.00702159
0.00720077
0.00829702
0.0161928
0.0082185
0.00850798
0.0087534
0.00895264
0.00910454
0.00920859
0.00926469
0.00927297
0.00923385
0.00914826
0.00901816
0.00884766
0.00864496
0.00842628
0.0082245
0.00811216
0.00828198
0.00948476
0.0184265
0.00946784
0.00981826
0.0101151
0.0103569
0.0105429
0.0106734
0.0107487
0.0107693
0.0107355
0.0106478
0.0105077
0.0103185
0.010088
0.00983277
0.00958846
0.0094362
0.00959418
0.010914
0.0210238
0.0109684
0.0113897
0.0117455
0.0120351
0.0122594
0.0124195
0.0125168
0.0125522
0.0125262
0.012439
0.0122912
0.0120854
0.0118284
0.0115366
0.0112483
0.0110533
0.0111985
0.0126507
0.0240879
0.0127738
0.0132768
0.0136989
0.0140416
0.0143076
0.0145002
0.0146221
0.0146752
0.0146603
0.0145774
0.0144266
0.0142092
0.0139306
0.0136067
0.0132773
0.0130418
0.0131803
0.0148022
0.0279081
0.0149506
0.0155463
0.0160415
0.0164412
0.0167516
0.0169787
0.0171274
0.0172011
0.0172015
0.0171287
0.0169822
0.0167621
0.0164724
0.0161275
0.0157683
0.0155037
0.0156542
0.0175139
0.0328494
0.0175819
0.0182802
0.0188536
0.0193124
0.0196678
0.01993
0.020107
0.0202042
0.0202247
0.0201693
0.0200375
0.0198286
0.0195454
0.0192009
0.018836
0.0185694
0.0187687
0.0209622
0.0392156
0.020771
0.0215799
0.0222331
0.0227497
0.023148
0.0234437
0.0236488
0.0237717
0.0238174
0.0237882
0.0236845
0.0235063
0.0232563
0.0229469
0.0226201
0.0224042
0.0227191
0.025378
0.0473518
0.0246482
0.0255702
0.0262993
0.0268674
0.0273024
0.0276268
0.0278577
0.0280069
0.0280822
0.0280884
0.0280285
0.0279052
0.0277245
0.0275023
0.0272852
0.027214
0.0277673
0.0311022
0.0579056
0.0293764
0.0304048
0.0311973
0.0318034
0.0322634
0.0326079
0.0328592
0.0330329
0.0331404
0.0331899
0.0331892
0.0331475
0.0330797
0.0330141
0.0330136
0.033245
0.0342618
0.0386401
0.0718824
0.0351597
0.036272
0.0371027
0.0377245
0.0381916
0.0385427
0.0388051
0.0389982
0.0391367
0.0392335
0.0393034
0.0393664
0.0394552
0.0396259
0.0399844
0.0407631
0.0426445
0.0487473
0.0908766
0.0422507
0.0434001
0.0442275
0.0448322
0.0452815
0.0456209
0.045881
0.0460837
0.0462466
0.0463876
0.0465293
0.0467072
0.0469811
0.0474566
0.0483281
0.0499852
0.0534043
0.0625657
0.117827
0.0509551
0.0520615
0.0528257
0.0533703
0.0537714
0.0540765
0.0543167
0.0545142
0.0546879
0.054859
0.0550578
0.0553352
0.0557831
0.0565753
0.0580515
0.0609154
0.0668404
0.0816698
0.15864
0.0616296
0.062575
0.0632003
0.0636359
0.0639552
0.0642011
0.0644005
0.0645729
0.0647358
0.0649105
0.0651303
0.0654547
0.0659988
0.0669975
0.0689572
0.0730486
0.0823242
0.107258
0.226213
0.0746659
0.0753071
0.0757146
0.0759944
0.0762003
0.076362
0.0764979
0.0766211
0.0767443
0.0768843
0.0770687
0.0773492
0.0778319
0.0787508
0.0806666
0.0850785
0.0966894
0.13523
0.3505
0.0904647
0.0906797
0.0908125
0.0909036
0.090972
0.0910276
0.0910765
0.0911235
0.0911734
0.091233
0.0913139
0.0914388
0.0916552
0.0920738
0.0929891
0.095335
0.102911
0.139205
0.580315
)
;

boundaryField
{
    leftWall
    {
        type            epsilonWallFunction;
        value           nonuniform List<scalar> 
50
(
0.000149451
0.00030849
0.000528062
0.000745532
0.000955948
0.00116171
0.00136785
0.00158507
0.001898
0.00236799
0.00293018
0.00378463
0.00518128
0.00481051
0.0017634
0.00176827
0.00176568
0.00176514
0.00176482
0.00747054
0.00176653
0.00176699
0.001769
0.00176945
0.00747149
0.00176753
0.00747935
0.00176609
0.00176476
0.00176601
0.00745937
0.00746814
0.00747614
0.00747549
0.00748557
0.00748272
0.00748041
0.00748986
0.0017693
0.00176849
0.00747294
0.00747472
0.00747064
0.00747078
0.00747163
0.00748331
0.00748717
0.014796
0.149531
1.53756
)
;
    }
    rightWall
    {
        type            epsilonWallFunction;
        value           nonuniform List<scalar> 
50
(
0.000176146
0.000250194
0.000404814
0.000591461
0.000808423
0.00105317
0.00132294
0.00161958
0.00198743
0.00230501
0.00240107
0.00271339
0.00327853
0.00317557
0.0045543
0.00490907
0.00115882
0.00490651
0.00115909
0.00115864
0.00115881
0.00488916
0.00115236
0.0011338
0.00473186
0.00512755
0.00636419
0.00769506
0.00872589
0.00958147
0.0104521
0.0114597
0.0127196
0.0142964
0.0161928
0.0184265
0.0210238
0.0240879
0.0279081
0.0328494
0.0392156
0.0473518
0.0579056
0.0718824
0.0908766
0.117827
0.15864
0.226213
0.3505
0.580315
)
;
    }
    lowerWall
    {
        type            epsilonWallFunction;
        value           nonuniform List<scalar> 
62
(
0.000149451
0.00081507
0.00145469
0.00203484
0.00255785
0.00302889
0.00345151
0.00382799
0.00415924
0.00444934
0.00470645
0.00494181
0.00515969
0.00534082
0.00542376
0.00529243
0.00487539
0.00423365
0.00348153
0.00274707
0.00217897
0.00142043
0.000483584
0.000483584
0.00076049
0.00126312
0.0018515
0.00259024
0.00358918
0.00504436
0.00807946
0.00920683
0.00746104
0.00781356
0.00992018
0.00068634
0.000696532
0.000935457
0.00121092
0.00166005
0.00232525
0.00345454
0.00617684
0.00068634
0.00225213
0.00347198
0.0041005
0.00446883
0.00464578
0.00478265
0.00485996
0.00465221
0.00396186
0.00313774
0.0023819
0.00197616
0.00202806
0.00218374
0.00205724
0.00142237
0.000849283
0.000176146
)
;
    }
    atmosphere
    {
        type            inletOutlet;
        inletValue      uniform 0.1;
        value           nonuniform List<scalar> 
46
(
0.1
0.125336
0.0178033
0.00682084
0.00480654
0.00436607
0.00442729
0.00474845
0.00526486
0.00596943
0.00688319
0.00804806
0.00952738
0.0114108
0.0138233
0.0169403
0.0210129
0.0264122
0.033716
0.0438942
0.0587465
0.1
0.1
0.1
0.1
0.1
0.1
0.1
0.1
0.1
0.1
0.1
0.1
0.1
0.1
0.1
0.1
0.1
0.1
0.1
0.1
0.1
0.1
0.1
0.1
0.580315
)
;
    }
    defaultFaces
    {
        type            empty;
    }
}


// ************************************************************************* //
