/*--------------------------------*- C++ -*----------------------------------*\
  =========                 |
  \\      /  F ield         | OpenFOAM: The Open Source CFD Toolbox
   \\    /   O peration     | Website:  https://openfoam.org
    \\  /    A nd           | Version:  9
     \\/     M anipulation  |
\*---------------------------------------------------------------------------*/
FoamFile
{
    format      ascii;
    class       volScalarField;
    location    "36.1";
    object      p;
}
// * * * * * * * * * * * * * * * * * * * * * * * * * * * * * * * * * * * * * //

dimensions      [0 2 -2 0 0 0 0];

internalField   nonuniform List<scalar> 
918
(
23.4685
23.5753
0.953215
22.8859
1.01743
23.0917
3.2717
13.7843
19.2417
2.93382
2.6254
14.4078
20.6347
16.8761
12.9923
0.924751
14.0513
2.24571
18.4594
1.39842
12.9915
20.4472
21.5359
19.2835
14.1206
14.3713
18.597
1.14555
0.107796
0.255098
0.979288
0.411067
0.14749
21.6286
22.3052
22.2436
15.4943
10.4018
3.59692
3.80149
2.98217
2.80515
13.827
13.9269
5.86649
13.7632
13.7589
16.6433
19.1098
19.2534
19.5466
19.3356
19.722
5.97339
2.78499
2.60491
2.87593
2.95034
2.98279
2.69775
2.67924
2.48309
2.33718
13.8872
14.4809
14.5361
14.2673
14.2149
22.4513
21.6943
22.0291
21.1354
21.2809
20.2108
19.8252
17.2517
17.6042
16.478
16.0971
12.7826
12.7438
13.2122
13.462
0.14557
1.07573
1.22285
14.0583
14.0948
14.0948
14.1093
8.28205
2.18757
2.1903
17.8998
17.4762
20.4812
20.7484
20.1954
20.0099
1.53031
1.5263
1.15102
1.18168
0.950876
13.3328
13.487
19.2349
18.4018
14.1542
14.0542
14.1292
11.4993
13.9095
13.9828
15.3208
15.7763
14.9656
15.402
18.167
17.749
19.0336
19.4708
0.393252
0.154572
0.687406
0.318169
0.516462
15.3627
15.1572
15.6103
15.6611
15.8923
10.4067
10.3373
10.3807
10.3006
4.14882
4.46342
2.25451
2.56908
2.41995
9.86522
13.9432
13.99
4.81038
5.51475
5.17806
6.34924
6.72364
16.0089
16.4455
16.1843
17.7306
16.9355
17.2837
19.8128
19.302
19.6025
6.36788
6.60228
5.60755
5.24886
2.2378
2.48741
2.42943
2.98175
2.95982
3.21744
3.34584
2.69822
2.55481
2.89326
2.7767
2.82878
2.16643
2.0366
13.6112
13.3973
14.1502
14.3288
15.096
14.9477
14.6543
14.823
19.0203
19.4238
19.4572
19.0731
11.5444
10.1549
13.7165
13.992
0.30218
0.264686
0.13828
0.380724
0.400826
0.142793
2.01539
1.82684
1.40522
1.68054
14.0559
14.0157
8.52265
8.74228
8.11852
7.86236
16.3139
16.4642
17.0983
16.6981
1.96296
1.67673
1.80657
13.65
13.5224
13.6293
10.9344
10.3678
11.977
12.2468
13.9909
14.0347
14.0307
15.6805
15.9989
19.8217
20.0923
19.9192
20.305
21.3678
21.0191
20.6343
14.5385
14.9469
14.7853
16.1276
15.7612
15.9807
15.1886
15.4933
15.3512
10.369
10.4153
10.1188
10.1967
10.2453
10.1923
9.80243
9.67546
14.0766
14.0316
14.0557
7.25172
7.74978
4.86867
4.53989
12.5431
13.2163
12.8919
18.65
17.9724
18.7053
18.3345
17.8845
18.208
10.4261
10.3878
10.4211
14.9164
14.2542
14.6062
2.44092
2.07674
2.23989
8.93824
9.03166
6.97031
7.58689
7.25002
16.3005
16.6409
17.3211
16.4328
16.9004
17.4078
17.1859
9.93847
10.0713
9.98817
9.65887
9.55242
9.73453
8.33504
8.94836
3.61242
4.26877
3.9648
9.19965
9.42961
9.27687
18.6295
19.1643
0.765956
1.15345
19.5944
19.3181
0.138857
0.241648
14.2527
12.5504
7.26197
17.1967
16.6293
18.9691
3.19204
6.10217
2.81013
3.38052
2.68627
14.615
14.2489
13.34
0.452998
1.25623
1.70978
2.89548
18.4099
17.7347
18.8509
19.171
19.2254
0.687575
0.912974
0.584197
1.24292
1.0315
1.27648
15.5504
15.6485
4.32292
18.8579
19.1622
19.1799
17.6567
18.6093
17.6668
0.935269
0.642148
0.707198
10.08
12.121
14.213
13.7656
13.9626
13.9847
13.7356
14.8689
14.5384
14.5033
14.9881
13.9657
13.8204
7.73378
6.38266
8.06823
7.7086
17.0981
16.686
16.4929
16.2385
18.0843
17.6104
18.4607
17.8492
18.311
18.5978
2.94317
3.13286
3.01152
2.52013
6.14298
6.6055
5.48776
5.63316
4.25902
2.42925
2.52768
2.7536
2.58432
2.9312
2.67889
2.94279
2.57912
2.32348
2.32169
2.93098
2.73896
2.60444
14.5933
14.5318
14.3327
14.3707
14.3531
14.4689
13.5345
13.9392
13.567
12.3981
12.9792
12.5065
0.825353
0.662832
0.524868
1.32374
1.35077
1.11117
0.834845
1.174
1.2021
0.814717
1.54567
1.44562
3.15495
2.64341
8.83953
7.96725
6.90072
16.7999
17.6017
16.7714
18.0121
18.4291
18.5345
18.1549
17.6467
15.7292
15.7243
15.3845
15.3379
4.77034
3.73096
4.9664
4.53548
10.4772
14.0647
11.842
10.8032
11.0995
13.4236
13.9281
13.5805
13.7174
13.2925
12.8207
13.5126
13.0463
13.1477
12.9267
15.7171
16.1923
15.7987
15.2193
15.2392
10.5982
12.0149
5.46492
5.63892
7.24352
6.53733
13.5091
13.9321
13.9169
13.5553
13.7431
13.7442
13.605
13.7792
13.859
13.7536
11.8239
10.1433
9.04458
9.03817
14.0761
12.3455
12.9298
12.4132
16.1199
16.6363
16.251
15.6455
16.1305
15.6023
15.6296
15.8428
17.2009
16.9505
16.7203
17.1071
3.05464
3.0034
3.64693
3.13283
3.03604
2.81901
3.48339
4.75791
4.41565
6.71793
7.2687
4.57966
3.37229
3.79254
4.80761
5.54094
5.51071
3.96907
4.50083
4.92986
4.44033
5.22386
4.72842
2.71779
3.02527
2.86334
2.83712
3.38176
3.88002
3.3756
2.48073
2.59288
2.25716
2.11943
3.53618
2.99623
3.03314
3.67869
1.10617
1.32852
1.44091
2.41404
1.91317
1.97889
15.1819
14.826
14.9597
14.2389
14.3063
14.2475
13.8719
15.2394
14.9614
15.0608
13.7093
13.7961
13.6093
13.9046
14.3207
14.6199
15.4517
15.1728
14.4119
14.5629
14.2138
14.1421
13.4641
12.9011
12.8406
1.11229
0.824375
0.984063
0.911092
0.606261
0.798668
2.18311
1.57268
1.97058
1.72622
1.95955
1.40391
1.30238
4.25267
5.06365
3.96319
3.36465
3.06155
8.89797
9.00949
8.15816
7.85623
8.19777
8.42639
8.37611
7.13401
7.56099
7.37404
9.91489
9.57918
17.5861
17.5302
17.2014
17.0425
17.269
5.76193
7.66476
6.79859
7.91473
10.206
10.5017
9.31037
8.70453
9.45582
9.53377
14.0464
14.1225
13.5635
14.0493
14.0778
11.8345
12.8817
13.4966
13.3111
13.8309
13.9118
12.9728
13.5615
13.4768
12.7595
12.8124
12.1273
12.4658
11.9939
11.7929
14.0555
13.9502
14.22
13.7708
14.1501
13.7144
14.0297
14.0276
14.3082
13.4102
12.8315
12.8499
13.2762
12.9763
13.3222
13.4864
9.30798
9.94805
10.3867
10.9224
10.6297
10.4118
10.279
10.5807
10.5576
10.8289
10.7482
10.5991
11.56
13.4153
13.7003
13.8017
13.5988
13.645
13.3376
13.6104
13.5397
13.919
14.0069
14.0566
13.1373
13.2933
13.488
13.3718
11.6746
10.0965
9.94867
9.50868
7.57628
8.04598
11.0249
9.90173
8.91693
8.98888
12.168
10.8054
11.6187
12.0419
10.6935
10.3055
12.9706
13.7587
13.9786
13.7028
12.0597
12.1854
12.6351
13.0784
13.2676
13.7233
15.8597
16.4353
16.5132
16.2373
16.0993
16.1992
15.9493
16.0523
16.5264
16.653
16.4842
2.88015
2.99382
2.92379
2.84915
3.08551
2.86111
3.95625
3.9472
3.15658
3.33682
3.3567
3.46214
2.93124
2.97432
4.82622
5.06184
5.3335
4.83197
6.17517
6.81597
7.39725
7.0829
5.78955
5.86881
6.18405
3.50747
3.53328
3.25161
3.70921
3.76187
2.61175
2.23923
2.04431
2.56561
2.66665
2.05156
1.76869
1.81794
2.33223
2.05114
1.80509
14.9744
14.7328
14.7541
14.5339
14.5885
14.9834
15.2042
15.0143
15.1527
15.2037
14.8028
14.6917
14.8628
1.81874
1.49332
1.62282
1.58106
1.64335
1.54988
1.73809
7.60524
6.41539
6.80286
5.97824
4.12019
4.64111
9.53828
9.95971
9.99818
9.70932
9.49927
9.86504
9.71582
9.70855
8.26288
9.33152
8.86748
9.26019
9.28161
9.34932
9.064
9.08023
10.5839
10.6175
9.48246
10.1221
9.33082
7.93162
8.09862
9.11229
10.0859
10.404
10.2491
9.97926
9.75066
10.1137
10.1684
10.2285
10.2177
8.75126
8.71117
8.3106
13.9681
13.8746
14.0212
14.0263
14.1532
13.9782
13.8152
14.0924
14.1467
13.931
11.077
11.1359
11.3817
12.1283
12.1804
12.0913
11.336
13.1001
12.7557
13.3936
13.3404
13.4128
13.0031
12.8263
13.0966
10.0802
11.4532
10.9861
11.2493
10.0627
9.30626
13.2229
13.277
13.3423
13.6153
13.5733
14.1567
15.8296
15.6995
15.7468
15.7899
15.4016
15.4388
4.17533
3.82922
4.55091
4.50637
4.06448
3.76456
2.2866
1.96872
1.78095
1.65619
1.88941
1.95049
8.1621
8.18913
6.33356
7.35506
5.87581
4.93403
4.78941
5.95519
7.13645
7.1953
8.51288
9.18891
8.74807
8.57331
7.91768
8.24723
10.1155
10.2098
10.1104
10.4293
9.96204
11.7117
11.2939
11.6428
13.2567
12.9664
12.3683
12.2549
12.2197
12.8127
11.947
11.1788
11.8912
12.5466
12.5049
11.1174
10.8724
11.2991
11.2831
10.1973
10.7174
10.4794
10.8319
10.5472
)
;

boundaryField
{
    wall-4
    {
        type            zeroGradient;
    }
    velocity-inlet-5
    {
        type            zeroGradient;
    }
    velocity-inlet-6
    {
        type            zeroGradient;
    }
    pressure-outlet-7
    {
        type            fixedValue;
        value           uniform 0;
    }
    wall-8
    {
        type            zeroGradient;
    }
    frontAndBackPlanes
    {
        type            empty;
    }
}


// ************************************************************************* //
