/*--------------------------------*- C++ -*----------------------------------*\
  =========                 |
  \\      /  F ield         | OpenFOAM: The Open Source CFD Toolbox
   \\    /   O peration     | Website:  https://openfoam.org
    \\  /    A nd           | Version:  9
     \\/     M anipulation  |
\*---------------------------------------------------------------------------*/
FoamFile
{
    format      ascii;
    class       surfaceScalarField;
    location    "7.5";
    object      alphaPhi0.water;
}
// * * * * * * * * * * * * * * * * * * * * * * * * * * * * * * * * * * * * * //

dimensions      [0 3 -1 0 0 0 0];

internalField   nonuniform List<scalar> 
4432
(
-4.73703e-08
4.73703e-08
-5.45573e-08
7.18611e-09
-4.77503e-08
-6.81413e-09
-3.62762e-08
-1.14761e-08
-1.93207e-08
-1.69564e-08
4.1125e-09
-2.34326e-08
3.5973e-08
-3.18587e-08
7.59249e-08
-3.99484e-08
1.21559e-07
-4.5631e-08
1.71834e-07
-5.02715e-08
2.30157e-07
-5.83211e-08
3.07172e-07
-7.70169e-08
4.18994e-07
-1.11827e-07
5.7699e-07
-1.58004e-07
7.68123e-07
-1.91144e-07
9.21468e-07
-1.53359e-07
8.77787e-07
4.36688e-08
5.21939e-07
3.55838e-07
-1.10061e-07
6.31762e-07
-8.62442e-07
7.51941e-07
-1.17638e-06
3.12881e-07
-8.15008e-07
-3.62065e-07
-8.15431e-07
-2.84506e-08
7.58133e-08
-3.60434e-08
1.4777e-08
-3.13096e-08
-1.15542e-08
-1.90813e-08
-2.37072e-08
-9.23377e-10
-3.51143e-08
2.45252e-08
-4.88781e-08
5.67115e-08
-6.40408e-08
9.42415e-08
-7.74737e-08
1.34871e-07
-8.62569e-08
1.7742e-07
-9.28212e-08
2.2426e-07
-1.05165e-07
2.82429e-07
-1.35197e-07
3.61529e-07
-1.90943e-07
4.66225e-07
-2.6272e-07
5.84549e-07
-3.0949e-07
6.69398e-07
-2.38229e-07
6.2305e-07
8.99988e-08
3.56816e-07
6.22063e-07
-3.99999e-08
1.02865e-06
-4.55008e-07
1.16651e-06
-7.28868e-07
5.86838e-07
-6.71515e-07
-4.19403e-07
-1.48695e-06
-1.51159e-08
9.09224e-08
-2.1149e-08
2.08053e-08
-1.8929e-08
-1.37812e-08
-8.08059e-09
-3.4561e-08
9.50485e-09
-5.2703e-08
3.36656e-08
-7.30392e-08
6.33403e-08
-9.37151e-08
9.67473e-08
-1.10879e-07
1.3141e-07
-1.20919e-07
1.65714e-07
-1.27128e-07
2.00778e-07
-1.40236e-07
2.41159e-07
-1.75588e-07
2.93235e-07
-2.43033e-07
3.59827e-07
-3.29329e-07
4.33757e-07
-3.83439e-07
4.85496e-07
-2.8998e-07
4.43202e-07
1.3229e-07
2.42735e-07
8.22523e-07
3.55867e-09
1.26834e-06
-2.08356e-07
1.38018e-06
-4.37701e-07
8.1608e-07
-4.81988e-07
-3.75102e-07
-1.96892e-06
-6.0382e-09
9.69541e-08
-1.00999e-08
2.48583e-08
-7.84325e-09
-1.60466e-08
8.62248e-10
-4.32753e-08
1.68441e-08
-6.86921e-08
3.83973e-08
-9.45969e-08
6.4311e-08
-1.19632e-07
9.26764e-08
-1.39248e-07
1.20737e-07
-1.48983e-07
1.46298e-07
-1.52694e-07
1.69217e-07
-1.63162e-07
1.9216e-07
-1.98542e-07
2.19729e-07
-2.70616e-07
2.54599e-07
-3.64214e-07
2.95252e-07
-4.24106e-07
3.31681e-07
-3.26479e-07
3.10779e-07
1.52862e-07
1.70286e-07
9.63014e-07
2.98253e-08
1.40881e-06
-6.96468e-08
1.48061e-06
-2.33561e-07
9.80024e-07
-2.88464e-07
-3.20242e-07
-2.25735e-06
-2.6413e-10
9.72109e-08
-1.29323e-09
2.58747e-08
7.95632e-11
-1.74305e-08
7.90353e-09
-5.11116e-08
2.13765e-08
-8.2177e-08
3.92432e-08
-1.12473e-07
6.02817e-08
-1.40679e-07
8.26746e-08
-1.61648e-07
1.03439e-07
-1.69756e-07
1.19768e-07
-1.69033e-07
1.3031e-07
-1.73715e-07
1.36194e-07
-2.04437e-07
1.40956e-07
-2.7539e-07
1.47473e-07
-3.70744e-07
1.58988e-07
-4.35631e-07
1.81372e-07
-3.4887e-07
1.97237e-07
1.36508e-07
1.09583e-07
1.05068e-06
4.31845e-08
1.47522e-06
1.20565e-08
1.51175e-06
-8.72401e-08
1.07934e-06
-9.2221e-08
-3.14935e-07
-2.34958e-06
3.90007e-09
9.33027e-08
5.15128e-09
2.46071e-08
6.41945e-09
-1.87129e-08
1.23971e-08
-5.71059e-08
2.25708e-08
-9.23687e-08
3.5609e-08
-1.25529e-07
5.05628e-08
-1.5565e-07
6.59572e-08
-1.77057e-07
7.87122e-08
-1.82526e-07
8.55148e-08
-1.7585e-07
8.39043e-08
-1.72118e-07
7.36674e-08
-1.94214e-07
5.75986e-08
-2.59333e-07
3.83398e-08
-3.51495e-07
2.1667e-08
-4.18963e-07
2.35202e-08
-3.50724e-07
6.65418e-08
9.33853e-08
5.19081e-08
1.05688e-06
4.02817e-08
1.47171e-06
5.88362e-08
1.4932e-06
3.8463e-08
1.07869e-06
1.0809e-07
-3.83269e-07
-2.24137e-06
7.97917e-09
8.53147e-08
9.92099e-09
2.26475e-08
1.03577e-08
-1.91652e-08
1.39611e-08
-6.0727e-08
1.98802e-08
-9.83077e-08
2.68087e-08
-1.32477e-07
3.43379e-08
-1.632e-07
4.15772e-08
-1.84316e-07
4.55904e-08
-1.86558e-07
4.28049e-08
-1.73082e-07
2.98112e-08
-1.59141e-07
5.18951e-09
-1.69607e-07
-2.88692e-08
-2.25286e-07
-7.06522e-08
-3.0972e-07
-1.14538e-07
-3.75081e-07
-1.42749e-07
-3.2251e-07
-1.05348e-07
5.80736e-08
-3.07521e-08
9.71656e-07
2.08504e-08
1.40893e-06
8.2049e-08
1.40797e-06
1.87032e-07
9.73807e-07
2.97889e-07
-4.93059e-07
-1.94348e-06
1.10767e-08
7.42283e-08
1.10503e-08
2.26584e-08
1.21731e-08
-2.0301e-08
1.27088e-08
-6.12753e-08
1.3177e-08
-9.87888e-08
1.25644e-08
-1.31877e-07
1.12136e-08
-1.61862e-07
8.99422e-09
-1.82108e-07
3.47869e-09
-1.81055e-07
-8.71486e-09
-1.609e-07
-3.17244e-08
-1.36142e-07
-6.80416e-08
-1.333e-07
-1.16176e-07
-1.7716e-07
-1.75523e-07
-2.50379e-07
-2.40772e-07
-3.09835e-07
-2.94704e-07
-2.68568e-07
-2.91228e-07
5.60069e-08
-1.4719e-07
8.44936e-07
-2.41641e-08
1.28502e-06
1.04111e-07
1.27882e-06
3.07087e-07
7.84341e-07
3.4235e-07
-5.26554e-07
-1.60113e-06
-1.12142e-06
1.11144e-06
-4.70972e-07
-6.50472e-07
2.05998e-07
-6.77895e-07
6.52851e-07
-4.4778e-07
9.82751e-07
-3.31491e-07
1.1872e-06
-2.08098e-07
1.39023e-06
-2.04767e-07
1.65801e-06
-2.69527e-07
1.87124e-06
-2.1468e-07
1.68574e-06
1.84414e-07
1.05377e-06
6.3197e-07
1.66776e-07
8.86995e-07
-8.64453e-07
1.03181e-06
-1.39243e-06
5.27917e-07
-1.29729e-06
-9.52137e-08
-8.20853e-07
-4.76504e-07
-4.37056e-07
-3.83832e-07
9.51062e-08
-5.32907e-07
9.50534e-08
-5.93533e-07
1.70407e-06
-1.2106e-07
-1.12298e-06
2.40076e-07
-1.03905e-06
4.96784e-07
-7.04518e-07
6.7212e-07
-5.0684e-07
8.33039e-07
-3.69026e-07
1.00639e-06
-3.78384e-07
1.19039e-06
-4.53706e-07
1.26539e-06
-2.89857e-07
1.04751e-06
4.02137e-07
5.98076e-07
1.08249e-06
5.42584e-08
1.43853e-06
-5.1077e-07
1.59729e-06
-9.49496e-07
9.63023e-07
-1.02653e-06
-1.82489e-08
-8.47255e-07
-6.55814e-07
-7.0157e-07
-5.2954e-07
-3.25969e-07
-9.08389e-07
-2.30242e-07
-6.93141e-08
1.77318e-06
1.34816e-07
-1.32716e-06
2.68986e-07
-1.17324e-06
3.88251e-07
-8.23782e-07
4.84826e-07
-6.03422e-07
5.86255e-07
-4.70476e-07
7.04197e-07
-4.96332e-07
8.26192e-07
-5.75705e-07
8.49069e-07
-3.12826e-07
6.26988e-07
6.24126e-07
2.88613e-07
1.42079e-06
-3.25837e-08
1.76232e-06
-3.29021e-07
1.89918e-06
-6.63545e-07
1.29664e-06
-7.99605e-07
1.17486e-07
-7.71849e-07
-6.83643e-07
-8.62128e-07
-4.39307e-07
-6.86997e-07
-1.07743e-06
-9.17893e-07
3.70311e-07
1.40266e-06
2.97761e-07
-1.25287e-06
2.6416e-07
-1.13967e-06
2.83755e-07
-8.43406e-07
3.189e-07
-6.38571e-07
3.67135e-07
-5.18703e-07
4.32455e-07
-5.61588e-07
5.09323e-07
-6.52585e-07
5.22635e-07
-3.26491e-07
3.41964e-07
8.02611e-07
9.02357e-08
1.67221e-06
-1.03097e-07
1.95562e-06
-2.6323e-07
2.05929e-06
-4.97693e-07
1.53505e-06
-5.95678e-07
2.13548e-07
-6.27513e-07
-6.51854e-07
-8.81351e-07
-1.82306e-07
-8.44743e-07
-1.11468e-06
-1.76329e-06
5.77213e-07
8.34045e-07
3.5027e-07
-1.02445e-06
2.13559e-07
-1.00297e-06
1.68348e-07
-7.98185e-07
1.56802e-07
-6.27017e-07
1.5815e-07
-5.20023e-07
1.75204e-07
-5.7874e-07
2.16153e-07
-6.93635e-07
2.38465e-07
-3.48837e-07
1.2255e-07
9.16445e-07
-5.57189e-08
1.85046e-06
-1.53641e-07
2.05352e-06
-2.32003e-07
2.13763e-06
-3.97954e-07
1.70047e-06
-3.87638e-07
2.02843e-07
-4.10003e-07
-6.27755e-07
-7.07937e-07
1.1491e-07
-7.37451e-07
-1.08914e-06
-2.50573e-06
5.31573e-07
3.02685e-07
2.86945e-07
-7.79811e-07
1.18692e-07
-8.3471e-07
4.03543e-08
-7.19813e-07
-3.17158e-09
-5.83466e-07
-4.07598e-08
-4.82497e-07
-6.90664e-08
-5.50517e-07
-6.44253e-08
-6.984e-07
-2.27098e-08
-3.90236e-07
-6.10278e-08
9.47385e-07
-1.6499e-07
1.9544e-06
-1.87826e-07
2.07633e-06
-1.94498e-07
2.14428e-06
-2.84715e-07
1.79066e-06
-1.79359e-07
9.72235e-08
-1.44396e-07
-6.60724e-07
-3.59958e-07
3.26964e-07
-4.68049e-07
-9.81055e-07
-2.97378e-06
3.38506e-07
-3.58281e-08
1.43746e-07
-5.8503e-07
-7.47768e-09
-6.8348e-07
-9.61506e-08
-6.31132e-07
-1.58554e-07
-5.21065e-07
-2.26111e-07
-4.1495e-07
-2.96553e-07
-4.80084e-07
-3.36123e-07
-6.58832e-07
-2.80781e-07
-4.41755e-07
-2.18793e-07
8.85929e-07
-2.35202e-07
1.91333e-06
-1.99206e-07
2.04031e-06
-1.54515e-07
2.08209e-06
-9.46853e-08
1.6908e-06
5.05742e-08
-4.86493e-08
1.00306e-07
-7.10189e-07
1.60608e-08
4.1003e-07
-1.04127e-07
-8.61292e-07
-3.07791e-06
5.72238e-08
-9.30533e-08
-2.66588e-08
-5.01137e-07
-1.47151e-07
-5.62985e-07
-2.35665e-07
-5.4261e-07
-3.06238e-07
-4.5048e-07
-3.92622e-07
-3.28531e-07
-4.96075e-07
-3.76619e-07
-5.83048e-07
-5.71872e-07
-5.53529e-07
-4.56861e-07
-3.694e-07
6.87174e-07
-2.73856e-07
1.79996e-06
-1.7503e-07
1.88061e-06
-6.96508e-08
1.92557e-06
1.73214e-07
1.43843e-06
3.10675e-07
-1.82682e-07
2.99044e-07
-6.98288e-07
3.81887e-07
3.23513e-07
2.5734e-07
-7.35976e-07
-2.82057e-06
4.08226e-08
3.33229e-08
5.33794e-08
9.95691e-09
3.91207e-08
-6.04947e-09
1.8834e-08
-4.09918e-08
-4.63676e-09
-7.53183e-08
-3.49358e-08
-1.01575e-07
-7.3229e-08
-1.23565e-07
-1.14906e-07
-1.40427e-07
-1.61529e-07
-1.34428e-07
-2.1739e-07
-1.05035e-07
-2.92534e-07
-6.09972e-08
-3.97979e-07
-2.78554e-08
-5.29976e-07
-4.5164e-08
-6.92748e-07
-8.76109e-08
-8.75029e-07
-1.27526e-07
-1.03139e-06
-1.1219e-07
-1.05879e-06
8.33977e-08
-7.22999e-07
5.14377e-07
-2.66327e-07
8.46356e-07
1.99182e-07
8.27266e-07
5.75473e-07
4.14525e-07
2.90668e-07
-2.41733e-07
-5.87053e-07
-7.23428e-07
2.30667e-08
6.24553e-09
3.12956e-08
9.85598e-10
1.04126e-08
1.07393e-08
-2.80139e-08
-6.87848e-10
-8.06473e-08
-1.4641e-08
-1.47448e-07
-2.33806e-08
-2.36629e-07
-2.34086e-08
-3.41808e-07
-2.44879e-08
-4.45048e-07
-2.22083e-08
-5.35324e-07
-1.05015e-08
-6.13923e-07
1.34312e-08
-7.02776e-07
4.50942e-08
-8.18213e-07
5.20386e-08
-9.70468e-07
4.78131e-08
-1.15586e-06
4.00512e-08
-1.32496e-06
4.28525e-08
-1.34872e-06
1.0717e-07
-1.0779e-06
2.43564e-07
-5.82512e-07
3.50962e-07
-1.00752e-07
3.45498e-07
1.20114e-07
1.93674e-07
-1.22919e-07
1.31605e-09
-7.9772e-08
-6.21697e-07
-5.25621e-08
3.22711e-10
-8.07041e-08
0
-9.23049e-08
7.55227e-09
-1.0849e-07
1.27654e-08
-1.40732e-07
1.34776e-08
-1.82343e-07
1.3311e-08
-2.22169e-07
1.45869e-08
-2.66409e-07
1.69578e-08
-3.15069e-07
1.99822e-08
-3.59251e-07
2.06282e-08
-3.90444e-07
1.97583e-08
-4.07964e-07
0
-4.35306e-07
0
-4.85221e-07
0
-5.57984e-07
0
-6.55706e-07
0
-6.72688e-07
5.16715e-10
-5.69932e-07
-1.1261e-08
-3.69825e-07
-2.33993e-08
-1.64717e-07
-1.99848e-08
-6.98155e-08
-2.66994e-09
-1.40282e-07
5.08553e-09
5.47747e-09
-2.56491e-07
-1.3277e-10
0
-5.66592e-10
0
-6.52113e-10
0
-4.06945e-10
-8.0296e-10
-5.65902e-10
0
-1.02735e-09
0
-9.5748e-10
-8.34484e-11
-7.80361e-10
-7.57739e-10
-8.03049e-10
0
-8.69891e-10
0
-1.03339e-09
0
-1.12765e-09
0
-1.24621e-09
0
-1.51683e-09
0
-2.28453e-09
0
-2.83661e-09
0
-2.17473e-09
-6.58157e-10
-1.12961e-09
-1.26344e-09
-1.10871e-09
-3.85088e-10
-8.88939e-10
-8.51046e-10
-4.44035e-10
-8.7394e-10
-2.85949e-10
0
0
-5.68641e-10
-5.66206e-10
1.92511e-10
-8.93644e-11
1.29293e-10
-2.57291e-09
1.18116e-10
-2.85481e-09
8.16127e-10
-2.63984e-09
1.11055e-09
-2.17395e-09
1.34739e-09
-3.45398e-09
-1.91123e-14
-5.46537e-09
-6.40119e-14
-5.62667e-09
-4.43347e-14
-6.26673e-09
-4.47887e-14
-4.48809e-09
-1.15545e-11
-2.71453e-09
-3.16891e-12
-8.94292e-10
-1.03241e-10
9.90792e-10
-1.0629e-09
1.76156e-09
-2.79709e-10
2.18207e-09
-1.44209e-10
1.69697e-09
-7.47255e-10
9.3619e-10
-7.26687e-10
4.54962e-10
2.23628e-11
-3.07301e-11
0
-4.09051e-11
-5.0696e-10
-1.32367e-10
0
0
-6.30352e-10
3.31839e-10
8.04136e-11
7.47191e-10
-2.05988e-11
5.8169e-10
0
-5.85904e-12
0
-2.2473e-10
0
-2.93291e-14
0
-4.56088e-14
-3.74251e-15
-6.03538e-14
-4.97748e-14
-5.68111e-14
-4.87874e-14
-6.8219e-14
-3.43571e-14
-1.1591e-11
-3.28086e-14
-3.22952e-13
-3.09584e-13
-1.06028e-10
-1.39883e-13
-2.19265e-10
-6.69294e-11
-1.13462e-10
-2.40717e-10
-5.12922e-11
-1.22498e-10
-2.24164e-10
-1.5259e-11
-4.84148e-10
0
-6.01954e-10
2.26364e-12
-1.21512e-09
3.11466e-11
-1.57819e-09
1.92423e-11
-1.3535e-09
0
0
-1.43115e-09
0
3.68756e-15
-2.06001e-11
3.88105e-23
-5.71032e-12
0
-7.19232e-12
0
-2.07858e-13
0
-3.848e-14
0
-2.7007e-14
3.0915e-13
-5.15128e-14
-2.57769e-14
-5.16418e-14
-5.9806e-14
-5.88212e-14
-2.83021e-14
-6.72199e-14
-8.81288e-15
-3.50354e-13
-6.94012e-15
0
-3.40076e-12
-7.70303e-11
-9.80193e-11
-1.51981e-10
-3.05381e-10
-7.16098e-11
-1.57205e-10
-5.61769e-11
0
-9.98717e-11
0
-1.06294e-10
0
-1.2073e-10
0
-4.15575e-10
0
-8.12798e-10
0
1.09163e-11
-9.11553e-10
-1.22022e-15
4.77128e-15
-4.061e-15
2.71031e-15
-7.65796e-14
1.10885e-14
-1.11134e-12
0
-1.82777e-12
0
-1.20734e-12
3.46321e-12
-1.06748e-12
1.129e-12
-5.31145e-13
1.09726e-13
-1.736e-12
-7.4415e-15
-2.36699e-12
-1.99599e-13
0
1.2422e-13
0
3.56926e-14
-5.40926e-11
-2.97327e-12
-9.77571e-11
-8.078e-11
-3.01705e-10
-1.29774e-10
-1.97973e-10
-7.30272e-11
-1.06183e-10
-4.73211e-12
-7.84716e-11
1.48332e-12
-2.38526e-11
0
-8.56898e-13
5.81519e-13
-1.39003e-12
5.14228e-14
-1.9434e-11
0
0
-4.64854e-13
-7.7764e-16
5.53966e-15
-2.55581e-15
4.46081e-15
-4.83796e-15
1.33342e-14
0
1.83124e-15
-8.19391e-13
0
-2.15695e-12
9.17381e-13
-1.85978e-12
1.96764e-12
-1.24423e-12
5.43322e-13
-5.40099e-12
2.0004e-13
-5.79293e-12
5.6072e-13
-3.05137e-13
6.18404e-13
-4.28892e-13
2.27046e-13
-2.72262e-11
-9.24847e-16
-3.65186e-11
-3.07333e-15
-4.24533e-11
-9.86919e-14
-6.96231e-11
-3.07822e-12
-9.74524e-11
-2.33803e-12
-2.50976e-11
3.57918e-12
-5.87071e-13
0
-5.45192e-14
3.16369e-14
-4.69312e-14
2.48515e-14
-2.25233e-14
0
0
-1.03464e-14
-7.29111e-16
6.25952e-15
-1.88945e-14
2.26169e-14
-1.07841e-14
2.0225e-13
0
1.45552e-14
-3.70219e-14
1.06359e-15
-1.42879e-12
0
-5.96253e-13
4.46513e-13
0
5.76884e-14
-5.18928e-12
7.38676e-13
-5.41354e-12
1.14994e-12
-5.23441e-12
8.06288e-13
-2.61038e-15
2.8072e-13
-1.90653e-15
-1.34327e-16
-2.42455e-15
-1.05222e-15
-1.56755e-14
-8.39321e-14
-2.95459e-12
-1.38456e-13
-8.49136e-12
-1.13492e-13
-2.98217e-12
5.57485e-13
-6.20437e-14
1.89708e-13
-6.99029e-14
2.24744e-14
-8.46324e-14
2.28912e-14
-8.48154e-14
3.87242e-14
1.83962e-14
-1.07211e-14
-6.74216e-15
1.05461e-14
-4.66203e-14
2.1619e-13
-5.32301e-14
2.55304e-13
-4.31264e-15
4.82612e-14
-3.9643e-15
1.07405e-15
-6.3822e-14
8.47415e-16
-4.24164e-14
3.55274e-14
-4.95223e-13
1.05931e-13
-4.67771e-12
9.5236e-13
-4.73288e-12
1.57256e-12
-2.84472e-13
4.43635e-13
-2.64707e-15
3.86418e-16
-1.39077e-15
9.0719e-17
-7.92776e-16
-1.52147e-16
-8.22568e-13
-4.04282e-15
-1.21356e-12
-3.45886e-13
-9.77872e-14
-1.25868e-13
-7.47518e-14
4.79464e-13
-5.12737e-14
1.05897e-13
-1.16922e-13
2.80324e-14
-1.09633e-13
5.00055e-14
-7.90654e-14
4.2545e-14
1.89832e-14
-1.48304e-14
-1.48744e-14
1.38401e-14
-3.76248e-14
2.77793e-13
-1.54505e-14
2.71948e-13
-8.74708e-16
6.01267e-14
-5.57644e-16
1.11496e-15
-3.12288e-16
9.62342e-16
-5.87829e-14
9.4164e-14
-2.50725e-13
1.1294e-12
-1.9141e-12
1.76135e-12
-2.22532e-12
6.27e-13
-4.21955e-15
1.10531e-13
-2.78828e-15
4.36505e-16
-1.49645e-15
2.76777e-16
0
1.02433e-16
-6.25797e-13
2.10028e-16
-1.93623e-11
-1.20409e-13
-1.96295e-11
4.97203e-13
-8.40856e-12
2.09481e-12
-7.20288e-14
1.85986e-12
-8.36054e-14
1.64689e-14
-7.22859e-14
1.53596e-14
-5.82427e-14
1.31088e-14
4.47981e-15
-6.34725e-15
-2.05191e-15
4.04376e-15
-2.80836e-14
5.48583e-14
-7.25213e-15
2.8995e-13
-7.32489e-16
2.44411e-14
-4.45158e-16
1.18182e-15
-6.50167e-16
1.52658e-15
-9.12273e-13
1.40344e-12
-1.87596e-12
2.50931e-12
-1.61967e-12
1.92112e-12
-1.13928e-13
4.161e-13
-2.71087e-15
6.75725e-16
-1.51209e-15
5.90165e-16
-2.07724e-16
4.45344e-16
0
1.62314e-16
-2.20206e-12
2.1872e-14
-1.81065e-11
5.66788e-13
-1.85088e-11
1.25923e-12
-1.8246e-11
2.18929e-12
-8.46159e-12
3.19506e-12
-3.92974e-14
6.83425e-14
-2.72855e-14
6.5961e-15
-1.72528e-14
5.88515e-15
4.76409e-15
-5.73711e-15
-6.46309e-17
3.03354e-15
-5.33325e-15
7.62391e-15
-3.21182e-15
0
-5.27231e-16
1.48707e-15
-2.65388e-16
1.26478e-15
-3.1858e-14
5.58805e-15
-1.4328e-12
1.53378e-12
-1.61702e-12
2.8337e-12
-4.15779e-13
1.16854e-12
-1.45852e-15
1.26713e-15
-1.3508e-15
9.26604e-16
-1.50409e-15
8.17739e-16
-4.82308e-16
5.86815e-16
0
9.92145e-17
0
4.29075e-17
-2.58791e-12
0
-1.44513e-11
2.60346e-13
-1.39361e-11
2.03417e-12
-9.14163e-14
5.00068e-13
-2.84398e-14
3.66235e-15
-2.69998e-14
8.35785e-15
-3.28224e-14
9.37854e-15
5.36054e-15
-7.61627e-15
-1.73012e-17
5.72127e-15
-4.32499e-17
7.72405e-15
-6.69146e-17
2.829e-16
-8.81002e-17
6.41865e-16
0
1.46955e-15
0
1.99872e-14
-6.8231e-13
4.63248e-13
-1.19522e-12
9.4779e-13
-1.86328e-15
2.75875e-15
-1.51674e-15
4.09327e-16
-1.41798e-15
1.07807e-15
-1.06108e-15
1.14399e-15
-2.93451e-16
5.89033e-16
-1.22357e-16
6.45667e-17
-1.25892e-16
4.04648e-17
-3.13085e-14
0
-1.14616e-12
0
-6.84452e-13
0
-4.65288e-14
0
-4.7539e-14
2.98263e-15
-4.01455e-14
9.24714e-15
-2.39374e-14
9.78893e-15
2.95399e-15
0
-7.91722e-16
9.17461e-15
-1.08629e-16
3.38801e-13
-5.00233e-17
5.55036e-16
-1.77181e-17
7.35827e-16
0
6.49553e-15
-2.75017e-14
4.02905e-14
-5.12529e-14
2.78669e-16
-2.98369e-15
2.86345e-17
-2.6123e-16
3.03322e-19
-8.10666e-16
4.47472e-16
-1.07045e-15
1.15317e-15
-7.14671e-16
9.69811e-16
-1.25407e-16
2.02317e-16
-1.04666e-16
5.11401e-17
-1.12292e-16
5.02027e-17
-1.59661e-16
4.19807e-17
-3.30726e-16
3.48489e-18
-2.98694e-16
1.1844e-18
-1.61816e-15
0
-1.84018e-14
1.44181e-15
-3.20743e-14
5.94404e-15
-1.78432e-14
4.71228e-15
1.96782e-16
-3.05344e-15
-7.23727e-15
8.17729e-13
-5.26402e-16
7.98947e-13
-5.22935e-17
8.34665e-17
-1.91509e-16
1.12989e-15
-3.21276e-15
9.72393e-15
-2.92374e-16
1.20857e-14
-5.55581e-17
6.07037e-17
-1.01906e-17
4.73296e-18
-6.65501e-17
2.40702e-17
-4.04385e-16
2.32046e-16
-4.45596e-16
3.95173e-16
-1.45088e-16
2.2146e-16
-5.48764e-17
3.13107e-17
-7.92364e-17
3.08668e-17
-1.02087e-16
5.42381e-17
-1.07058e-16
5.2701e-17
-1.01329e-16
4.20582e-17
-1.03486e-16
3.53432e-17
-3.57691e-16
2.90716e-17
-2.53e-15
3.94809e-17
-2.78554e-15
0
-1.81441e-15
0
2.73044e-17
-2.33758e-15
-1.08088e-14
8.3242e-13
-7.77149e-17
4.77671e-13
-7.6923e-17
8.38053e-17
-5.48111e-16
1.52168e-15
-8.3076e-16
5.79254e-15
-5.51337e-17
1.19557e-15
-7.20898e-18
3.53847e-17
-6.29405e-18
3.18632e-17
-2.23254e-17
1.68573e-17
-6.59953e-17
2.8518e-17
-5.40125e-17
2.89166e-17
-7.87748e-18
7.7273e-18
-1.18275e-17
1.11553e-18
-4.03353e-17
1.01128e-17
-6.96642e-17
3.21191e-17
-8.36665e-17
4.31998e-17
-8.63727e-17
4.26056e-17
-7.7042e-17
3.5906e-17
-5.5485e-17
1.74541e-17
-1.52494e-17
4.93084e-18
-1.48154e-17
1.78625e-18
-1.0515e-16
5.07644e-19
3.10422e-19
-2.85748e-16
-5.21094e-15
8.41615e-13
-6.20963e-17
1.79545e-13
-6.31733e-17
8.5107e-17
-2.49996e-16
1.12886e-15
-8.67142e-17
1.69984e-15
-6.20706e-18
3.63126e-17
-6.35072e-18
3.88546e-17
-2.57992e-18
3.53683e-17
-1.93711e-18
3.78406e-18
-2.08297e-18
3.8103e-19
-8.82157e-19
5.20483e-18
-1.1622e-19
1.1657e-18
-5.60759e-19
2.01647e-19
-8.36433e-18
5.15598e-19
-2.39866e-17
5.29664e-18
-3.18424e-17
1.07928e-17
-3.2507e-17
1.09217e-17
-2.65018e-17
8.15665e-18
-1.59878e-17
4.30698e-18
-8.40128e-18
1.77485e-18
-4.00395e-18
9.02633e-19
-2.68936e-18
1.19598e-19
-8.22923e-21
-1.30932e-18
-1.02854e-14
8.55912e-13
-3.73886e-17
1.13122e-13
-3.86499e-17
8.625e-17
-5.19803e-17
4.42283e-16
-3.16323e-18
2.27487e-16
-3.24268e-18
1.29274e-17
-3.6991e-18
1.92645e-17
-3.26817e-19
1.35493e-17
-4.82136e-20
8.71132e-19
6.51067e-20
1.55187e-20
3.3701e-19
-2.11239e-19
3.68704e-19
-8.78375e-19
-1.85736e-20
-7.75083e-19
-2.60291e-19
3.1527e-20
-1.9691e-18
1.01839e-18
-2.92233e-18
2.81981e-19
-2.76929e-18
3.09577e-19
-1.96785e-18
1.77782e-19
-1.25009e-18
8.7514e-20
-8.58581e-19
4.77305e-20
-4.4717e-19
2.78331e-20
-2.64388e-19
7.08153e-21
-1.15217e-21
-2.37814e-19
-1.09326e-14
8.72124e-13
-1.18928e-17
3.14032e-13
-1.31237e-17
8.73107e-17
-9.94201e-18
1.15881e-16
-1.35631e-18
7.91324e-17
-9.27551e-19
1.14031e-17
-6.91537e-19
2.10673e-18
1.34081e-19
5.77122e-19
3.65473e-19
-8.33283e-19
4.95639e-19
-1.81911e-18
5.87921e-19
-1.99018e-18
5.71616e-19
-1.91401e-18
4.07199e-19
-1.51242e-18
1.74655e-19
-8.75763e-19
-1.23712e-20
-3.04858e-19
-2.32605e-20
1.74727e-20
-1.863e-20
2.72649e-20
-9.31653e-21
1.35802e-20
-5.19078e-21
5.34864e-21
-4.20717e-21
2.43634e-21
-2.42572e-21
1.24611e-21
-8.67951e-22
2.58783e-22
1.66846e-21
-1.52724e-21
-1.75876e-14
8.89755e-13
-5.87278e-18
8.80102e-13
-6.99939e-18
8.82681e-17
-4.72511e-18
8.87787e-17
-1.4723e-18
7.88448e-17
-6.21328e-20
1.14636e-17
-3.13684e-20
9.26059e-20
2.25968e-19
1.51889e-20
3.91806e-19
-1.70878e-18
4.81163e-19
-2.41415e-18
5.15689e-19
-2.42253e-18
4.89617e-19
-2.1256e-18
4.07524e-19
-1.65298e-18
3.0254e-19
-1.12563e-18
2.0624e-19
-6.81823e-19
1.52592e-19
-3.77464e-19
1.20374e-19
-2.25013e-19
9.38083e-20
-1.40948e-19
6.90743e-20
-8.47234e-20
4.71406e-20
-4.52228e-20
2.99743e-20
-1.93033e-20
1.78944e-20
-4.64193e-21
1.76257e-21
9.95859e-21
-1.76083e-14
9.07407e-13
-5.9061e-18
8.62521e-13
-6.85832e-18
8.90503e-17
-4.54608e-18
9.01361e-17
-1.38379e-18
9.62791e-17
-4.72566e-20
1.25703e-17
4.12078e-20
8.21565e-20
1.68728e-19
-4.67251e-19
2.63785e-19
-1.59168e-18
3.13489e-19
-2.06429e-18
3.25513e-19
-2.03154e-18
3.05485e-19
-1.7444e-18
2.62268e-19
-1.35144e-18
2.09756e-19
-9.55381e-19
1.59681e-19
-6.2676e-19
1.19893e-19
-3.8905e-19
8.88338e-20
-2.35847e-19
6.37704e-20
-1.3864e-19
4.40824e-20
-7.63613e-20
2.93187e-20
-3.78116e-20
1.86873e-20
-1.53289e-20
1.13033e-20
-3.32327e-21
1.1696e-21
6.48744e-21
-1.70758e-14
9.24526e-13
-7.48882e-18
5.59231e-13
-8.22401e-18
8.96165e-17
-6.02096e-18
1.56094e-16
-1.47064e-18
1.61535e-16
-1.29349e-19
1.80548e-17
-4.35188e-20
2.15611e-18
4.88698e-20
7.57814e-19
1.02013e-19
-6.02215e-19
1.35935e-19
-1.06297e-18
1.48818e-19
-1.18929e-18
1.43678e-19
-1.08761e-18
1.2607e-19
-8.73542e-19
1.02851e-19
-6.35134e-19
7.93086e-20
-4.27365e-19
5.8614e-20
-2.69999e-19
4.14366e-20
-1.61742e-19
2.79821e-20
-9.09304e-20
1.81822e-20
-4.71033e-20
1.15257e-20
-2.18109e-20
7.12521e-21
-8.2676e-21
4.2446e-21
-1.52835e-21
6.05997e-22
2.38648e-21
-6.21195e-15
9.30773e-13
-1.38503e-17
1.02938e-15
-1.43223e-17
8.99359e-17
-9.90733e-18
3.85877e-16
-1.82914e-18
2.7695e-16
-3.9354e-19
3.41047e-17
-2.87311e-19
1.12201e-17
-1.84082e-19
8.16218e-18
-7.50332e-20
4.58176e-18
1.22052e-20
1.93534e-18
3.54099e-20
-1.57838e-19
4.55753e-20
-3.86182e-19
4.46168e-20
-4.16339e-19
3.77891e-20
-3.39693e-19
2.92988e-20
-2.38675e-19
2.13361e-20
-1.52599e-19
1.44868e-20
-9.07448e-20
9.21288e-21
-4.94093e-20
5.54738e-21
-2.43144e-20
3.23523e-21
-1.0505e-20
1.8475e-21
-3.6411e-21
1.03544e-21
-5.23007e-22
2.59957e-22
5.5721e-22
-9.67845e-16
2.80088e-16
-1.31166e-17
2.92069e-16
-1.6877e-17
3.10963e-16
-1.3562e-17
6.90432e-16
-2.14965e-18
3.91923e-16
-7.37788e-19
6.47498e-17
-6.07337e-19
3.30014e-17
-4.84794e-19
2.72224e-17
-3.20611e-19
1.90232e-17
-1.62555e-19
1.06525e-17
-5.0915e-20
4.47962e-18
3.3125e-21
1.22965e-18
9.61684e-21
-5.55338e-20
9.61608e-21
-1.34835e-19
7.60073e-21
-1.12567e-19
5.47812e-21
-7.42204e-20
3.54293e-21
-4.44948e-20
2.07093e-21
-2.37172e-20
1.10202e-21
-1.1152e-20
5.43075e-22
-4.48764e-21
2.48485e-22
-1.39549e-21
1.04281e-22
-1.31308e-22
9.73854e-23
3.76125e-23
-3.99893e-18
2.72826e-16
-8.67689e-18
2.93428e-16
-1.35867e-17
6.47005e-16
-9.3134e-18
7.23353e-16
-1.58394e-18
4.13838e-16
-6.17285e-19
1.05501e-16
-4.28393e-19
6.87508e-17
-3.0308e-19
5.86515e-17
-2.01365e-19
4.31799e-17
-1.17107e-19
2.66709e-17
-5.16416e-20
1.27429e-17
-1.30392e-20
4.27256e-18
3.24312e-22
8.07109e-19
9.25544e-22
-1.87367e-20
7.40512e-22
-4.51121e-20
4.76e-22
-3.1978e-20
2.25013e-22
-1.96761e-20
5.48228e-23
-1.03567e-20
-5.31382e-23
-4.67826e-21
-1.04489e-22
-1.75773e-21
-1.02793e-22
-4.85359e-22
-8.15426e-23
-1.89647e-23
3.4878e-23
-5.93006e-23
-2.58853e-18
2.72882e-16
-6.53287e-18
2.93475e-16
-5.3583e-18
6.81525e-16
-9.19584e-19
7.2391e-16
8.25133e-19
3.97544e-16
7.9688e-19
1.40737e-16
1.03597e-18
1.1082e-16
1.1363e-18
9.63113e-17
9.09441e-19
7.2002e-17
5.914e-19
4.71566e-17
2.62761e-19
2.35256e-17
7.10823e-20
7.89633e-18
7.91565e-21
1.37557e-18
1.77578e-21
6.55249e-20
-5.77582e-22
-1.45418e-20
-6.48417e-22
-1.25148e-20
-5.77543e-22
-8.02981e-21
-4.47079e-22
-4.19547e-21
-3.11199e-22
-1.82277e-21
-1.98086e-22
-6.39678e-22
-1.18062e-22
-1.55954e-22
-6.77934e-23
1.09256e-24
1.26248e-23
-3.8965e-23
-1.15424e-18
2.71504e-16
-7.30819e-19
2.64737e-16
3.27341e-18
5.58905e-16
8.0249e-18
5.35827e-16
4.72748e-18
2.83536e-16
3.79814e-18
1.50667e-16
4.18219e-18
1.3849e-16
4.25716e-18
1.27745e-16
3.27823e-18
9.90539e-17
2.18615e-18
6.65418e-17
9.91534e-19
3.39521e-17
2.41905e-19
1.06576e-17
2.00525e-20
1.46024e-18
5.14181e-21
6.72013e-20
-2.41286e-22
-2.63891e-21
-5.16519e-22
-4.5362e-21
-4.58478e-22
-3.08001e-21
-3.30309e-22
-1.59852e-21
-2.07871e-22
-6.67042e-22
-1.18078e-22
-2.1815e-22
-6.30363e-23
-4.68865e-23
-3.31077e-23
1.35557e-24
4.28563e-24
-1.7581e-23
1.06496e-19
2.94951e-16
1.59168e-18
2.01972e-16
6.01164e-18
2.60096e-16
7.65328e-18
2.32947e-16
6.90861e-18
1.81937e-16
7.37086e-18
1.49813e-16
8.00358e-18
1.4224e-16
8.47091e-18
1.35466e-16
6.71611e-18
1.16023e-16
4.3846e-18
7.93449e-17
1.94659e-18
4.01667e-17
4.00837e-19
1.14316e-17
2.5291e-20
1.44765e-18
2.65166e-21
4.26246e-20
4.72214e-25
1.22861e-23
-2.59792e-22
-1.56141e-21
-2.41464e-22
-1.12995e-21
-1.68712e-22
-5.79067e-22
-9.99748e-23
-2.30774e-22
-5.29025e-23
-7.03467e-23
-2.63082e-23
-1.31909e-23
-1.29123e-23
6.97402e-25
1.35953e-24
-6.48263e-24
2.49384e-18
7.54459e-16
2.88954e-18
2.01412e-16
5.43827e-18
2.57353e-16
7.73036e-18
2.30462e-16
9.31955e-18
1.80156e-16
1.06888e-17
1.46699e-16
1.1268e-17
1.41698e-16
1.18386e-17
1.37588e-16
1.0275e-17
1.19362e-16
6.53574e-18
8.28846e-17
2.7333e-18
4.1155e-17
4.90443e-19
1.14575e-17
2.23778e-20
1.0992e-18
9.1482e-23
1.5242e-20
3.21917e-24
1.6764e-23
-1.1158e-22
-5.3295e-22
-1.0727e-22
-4.02806e-22
-7.2643e-23
-2.01687e-22
-4.07072e-23
-7.62471e-23
-2.01952e-23
-2.15406e-23
-9.39871e-24
-3.44542e-24
-4.35098e-24
2.69916e-25
3.88164e-25
-2.08289e-24
1.96076e-17
2.04268e-15
4.72289e-18
2.16103e-16
8.11685e-18
2.53767e-16
1.10427e-17
2.27344e-16
1.27419e-17
1.78264e-16
1.35729e-17
1.45676e-16
1.41848e-17
1.35959e-16
1.49646e-17
1.37471e-16
1.29185e-17
1.19549e-16
8.14558e-18
8.31542e-17
3.25231e-18
4.09596e-17
4.92794e-19
1.00131e-17
1.21108e-20
6.09762e-19
1.8604e-23
3.87148e-21
1.43527e-24
2.83393e-24
-4.4814e-23
-1.84609e-22
-4.33259e-23
-1.41367e-22
-2.81124e-23
-6.81613e-23
-1.47972e-23
-2.41928e-23
-6.84411e-24
-6.27094e-24
-2.95624e-24
-8.30189e-25
-1.28615e-24
8.52969e-26
9.74291e-26
-5.7745e-25
6.6586e-16
1.99834e-15
1.78133e-14
2.12937e-13
9.82488e-14
2.508e-12
1.11442e-13
2.34371e-12
0
7.04499e-13
1.53332e-17
4.92689e-16
1.68699e-17
1.34519e-16
1.77183e-17
1.34587e-16
1.50875e-17
1.17075e-16
9.2379e-18
8.03166e-17
3.29704e-18
3.62466e-17
3.53016e-19
6.80086e-18
4.33164e-21
2.48223e-19
2.83182e-24
8.07895e-22
2.79456e-25
2.30082e-25
-1.75426e-23
-6.58078e-23
-1.64523e-23
-4.92424e-23
-1.00493e-23
-2.2452e-23
-4.90095e-24
-7.37554e-24
-2.07919e-24
-1.72439e-24
-8.17974e-25
-1.82147e-25
-3.29936e-25
2.24937e-26
2.11035e-26
-1.36727e-25
6.97598e-16
1.92121e-15
1.65452e-13
5.34609e-13
2.93248e-13
2.55497e-12
2.36128e-13
2.40316e-12
2.80512e-14
1.92356e-12
4.12901e-17
2.27921e-14
1.677e-17
1.37627e-16
1.95001e-17
1.27956e-16
1.62911e-17
1.09594e-16
9.2028e-18
7.06757e-17
2.63007e-18
2.68505e-17
1.73322e-19
3.46979e-18
1.03551e-21
7.04448e-20
3.07336e-25
1.14182e-22
3.29905e-26
1.3876e-25
-6.83667e-24
-2.43239e-23
-5.95986e-24
-1.70586e-23
-3.35048e-24
-7.198e-24
-1.4849e-24
-2.14893e-24
-5.64407e-25
-4.43518e-25
-1.98137e-25
-3.62513e-26
-7.27348e-26
4.9273e-27
3.85455e-27
-2.73178e-26
7.51174e-16
1.78992e-15
8.38835e-14
4.47799e-13
3.51501e-13
2.28968e-12
3.7707e-13
2.37992e-12
6.37589e-14
1.15473e-12
0
2.28251e-14
1.76096e-17
1.27908e-16
2.06328e-17
1.20933e-16
1.59473e-17
9.73527e-17
7.73147e-18
5.52626e-17
1.57268e-18
1.60617e-17
5.55078e-20
1.25133e-18
1.44948e-22
1.19788e-20
1.19007e-23
8.38657e-24
-2.68921e-25
-1.09613e-24
-2.68764e-24
-9.37174e-24
-2.06709e-24
-5.85762e-24
-1.04243e-24
-2.23418e-24
-4.1011e-25
-5.93674e-25
-1.35847e-25
-1.05677e-25
-4.13993e-26
-6.53288e-27
-1.35118e-26
8.85215e-28
5.78112e-28
-4.51208e-27
8.17498e-16
1.59581e-15
2.08127e-13
4.04157e-14
5.22084e-13
7.03036e-13
2.50981e-13
1.05536e-12
0
7.9054e-14
0
1.13785e-15
2.19657e-17
1.25905e-16
2.14264e-17
1.14606e-16
1.36934e-17
7.99129e-17
5.24237e-18
3.68177e-17
6.54598e-19
7.18199e-18
1.02145e-20
2.76044e-19
9.70168e-24
9.87383e-22
8.83644e-25
3.07425e-25
-5.21295e-25
-2.11241e-24
-1.0477e-24
-3.68081e-24
-6.85524e-25
-1.98252e-24
-3.02285e-25
-6.68443e-25
-1.02783e-25
-1.54554e-25
-2.87497e-26
-2.31482e-26
-7.34336e-27
-1.0753e-27
-2.0692e-27
1.28365e-28
6.90941e-29
-5.99806e-28
1.52184e-15
3.97606e-15
8.18057e-15
7.50557e-16
5.86001e-14
0
6.27876e-14
0
0
1.75371e-16
2.57243e-17
3.40462e-16
2.48184e-17
1.79981e-16
1.80875e-17
1.07879e-16
9.60843e-18
5.72422e-17
2.61697e-18
1.89572e-17
1.62541e-19
2.02309e-18
8.81328e-22
2.94363e-20
2.60501e-25
3.27568e-23
3.53083e-26
5.50074e-27
-3.3634e-25
-1.38368e-24
-3.96696e-25
-1.43749e-24
-2.1774e-25
-6.60246e-25
-8.19181e-26
-1.92925e-25
-2.33808e-26
-3.79218e-26
-5.33003e-27
-4.65545e-27
-1.09303e-27
-1.64806e-28
-2.55182e-28
1.47527e-29
6.34892e-30
-6.20909e-29
1.53594e-15
3.99983e-15
8.78807e-16
3.60949e-15
3.35029e-16
4.91626e-16
2.22295e-16
1.24884e-16
8.7157e-17
3.17105e-16
7.54184e-17
3.60019e-16
3.10848e-17
2.05351e-16
1.37594e-17
9.23964e-17
5.11628e-18
3.30777e-17
7.9619e-19
6.29644e-18
1.86286e-20
2.70606e-19
2.80176e-23
1.14456e-21
2.86259e-27
4.23075e-25
8.02602e-28
3.67016e-27
-1.70571e-25
-7.24257e-25
-1.46362e-25
-5.57582e-25
-6.67587e-26
-2.173e-25
-2.09361e-26
-5.41092e-26
-4.86566e-27
-8.84581e-27
-8.69545e-28
-8.6688e-28
-1.3545e-28
-2.39098e-29
-2.46874e-29
1.33148e-30
4.30011e-31
-4.79654e-30
1.50266e-15
1.05066e-15
1.51211e-15
3.75539e-15
5.54707e-16
2.83659e-15
2.23613e-16
1.40094e-15
1.31741e-16
8.88352e-16
7.4816e-17
4.8174e-16
2.73505e-17
2.00697e-16
8.39396e-18
6.19789e-17
1.74034e-18
1.27904e-17
1.0985e-19
9.93326e-19
7.15585e-22
1.20502e-20
2.79116e-25
1.33035e-23
4.03136e-26
2.78988e-27
-3.11803e-26
-1.4647e-25
-8.07358e-26
-3.57903e-25