/*--------------------------------*- C++ -*----------------------------------*\
  =========                 |
  \\      /  F ield         | OpenFOAM: The Open Source CFD Toolbox
   \\    /   O peration     | Website:  https://openfoam.org
    \\  /    A nd           | Version:  9
     \\/     M anipulation  |
\*---------------------------------------------------------------------------*/
FoamFile
{
    format      ascii;
    class       volScalarField;
    location    "22";
    object      p;
}
// * * * * * * * * * * * * * * * * * * * * * * * * * * * * * * * * * * * * * //

dimensions      [0 2 -2 0 0 0 0];

internalField   nonuniform List<scalar> 
918
(
23.4693
23.5789
0.958589
22.8867
1.01197
23.0953
3.2784
13.7865
19.2425
2.9342
2.62374
14.4086
20.6383
16.8797
12.9961
0.924345
14.0526
2.25226
18.4602
1.39904
12.9948
20.448
21.5367
19.2843
14.1214
14.3748
18.6006
1.14986
0.109282
0.258033
0.977264
0.409143
0.148015
21.6322
22.3088
22.2472
15.4951
10.406
3.60251
3.80661
2.98875
2.81242
13.8291
13.9289
5.86972
13.7656
13.7614
16.6441
19.1106
19.2542
19.5474
19.3364
19.7228
5.97766
2.78638
2.60723
2.87532
2.94889
2.9805
2.69625
2.67762
2.48181
2.33584
13.888
14.4816
14.5368
14.268
14.2156
22.4549
21.6979
22.0327
21.139
21.2845
20.2144
19.8288
17.2553
17.6078
16.4816
16.1007
12.7865
12.7477
13.216
13.4658
0.145825
1.07443
1.22226
14.0595
14.096
14.0962
14.1107
8.29163
2.19398
2.19732
17.9006
17.477
20.4819
20.7491
20.1962
20.0106
1.53155
1.52678
1.1536
1.18282
0.95169
13.3359
13.4899
19.2357
18.4026
14.1549
14.055
14.1299
11.5003
13.9104
13.9837
15.3244
15.7799
14.9692
15.4056
18.1706
17.7526
19.0371
19.4744
0.394606
0.155564
0.68702
0.317887
0.516315
15.3635
15.158
15.611
15.6618
15.8931
10.4107
10.3409
10.3851
10.3051
4.15334
4.46781
2.26151
2.57659
2.42761
9.87199
13.9451
13.9918
4.81439
5.51823
5.18193
6.3519
6.72611
16.0097
16.4463
16.1851
17.7314
16.9363
17.2845
19.8136
19.3028
19.6032
6.37355
6.60872
5.61175
5.25264
2.24324
2.4908
2.43363
2.9801
2.95785
3.21558
3.34506
2.69627
2.55327
2.89132
2.77503
2.82678
2.16575
2.03596
13.6121
13.3981
14.151
14.3296
15.0967
14.9484
14.655
14.8238
19.0239
19.4273
19.4608
19.0766
11.548
10.1576
13.7203
13.9957
0.302191
0.265237
0.138025
0.380685
0.400145
0.141672
2.01386
1.82544
1.40444
1.67998
14.057
14.0167
8.53229
8.75184
8.1283
7.87168
16.3147
16.4649
17.0991
16.6988
1.96292
1.67694
1.80658
13.6526
13.5253
13.632
10.9354
10.3689
11.9779
12.2477
13.9919
14.0357
14.0317
15.6841
16.0025
19.8252
20.0959
19.9228
20.3086
21.3714
21.0226
20.6379
14.5393
14.9477
14.7861
16.1283
15.762
15.9815
15.1893
15.494
15.3519
10.3724
10.4186
10.1244
10.2022
10.2501
10.1973
9.80957
9.68278
14.0781
14.0333
14.0573
7.25387
7.7518
4.87154
4.54226
12.5439
13.2172
12.8927
18.6536
17.976
18.7089
18.3381
17.8881
18.2116
10.4293
10.3906
10.4241
14.92
14.2579
14.6098
2.43808
2.07405
2.23683
8.94788
9.04075
6.97771
7.59554
7.25807
16.3041
16.6445
17.3246
16.4364
16.904
17.4113
17.1894
9.94503
10.0773
9.99437
9.66684
9.56056
9.73582
8.33677
8.94993
3.6118
4.26993
3.96504
9.20862
9.43798
9.28535
18.6303
19.1651
0.767645
1.15661
19.5952
19.3188
0.140502
0.242146
14.2564
12.5539
7.26433
17.1975
16.6301
18.9699
3.19225
6.10509
2.80666
3.38031
2.68611
14.6157
14.2497
13.3409
0.454328
1.25698
1.70823
2.90173
18.4107
17.7355
18.8517
19.1718
19.2261
0.688378
0.914488
0.584369
1.24243
1.03136
1.27561
15.5512
15.6493
4.32794
18.8587
19.1629
19.1807
17.6574
18.6101
17.6676
0.935843
0.642732
0.708128
10.0812
12.122
14.2166
13.7692
13.9662
13.9884
13.7393
14.8725
14.542
14.5069
14.9917
13.9675
13.8227
7.73543
6.38508
8.07013
7.7104
17.0988
16.6867
16.4936
16.2393
18.0851
17.6112
18.4615
17.85
18.3118
18.5986
2.94117
3.13139
3.01272
2.52252
6.14517
6.61157
5.48985
5.63705
4.26024
2.42619
2.52502
2.7511
2.58238
2.93053
2.67855
2.9425
2.5782
2.32361
2.32035
2.92952
2.73729
2.60292
14.594
14.5325
14.3334
14.3714
14.354
14.4697
13.5353
13.94
13.5678
12.399
12.9801
12.5073
0.826353
0.661854
0.525571
1.32462
1.35174
1.11074
0.835325
1.17461
1.20184
0.814928
1.54415
1.44526
3.15932
2.64915
8.84825
7.9767
6.90122
16.8007
17.6025
16.7722
18.0129
18.4299
18.5353
18.1557
17.6475
15.7299
15.725
15.3852
15.3386
4.77295
3.7363
4.96965
4.53886
10.4809
14.0657
11.843
10.8043
11.1005
13.4243
13.9319
13.5841
13.7212
13.2961
12.8243
13.5164
13.05
13.1513
12.9302
15.7207
16.1959
15.8024
15.2229
15.2428
10.6013
12.0165
5.46793
5.64155
7.24445
6.53906
13.5122
13.9338
13.9184
13.5576
13.7456
13.7461
13.6069
13.7809
13.8612
13.7556
11.8246
10.1444
9.04598
9.0396
14.0774
12.3465
12.9309
12.4137
16.1206
16.6371
16.2518
15.6463
16.1313
15.6031
15.6303
15.8435
17.2017
16.9513
16.721
17.1079
3.05277
3.00118
3.64515
3.13532
3.03721
2.82266
3.48347
4.75743
4.41508
6.71995
7.26933
4.57874
3.37241
3.79156
4.8057
5.54129
5.51282
3.96943
4.5024
4.92953
4.4409
5.2275
4.7314
2.71727
3.02246
2.86068
2.83474
3.38165
3.88031
3.37558
2.47913
2.59001
2.25504
2.11789
3.53362
2.99191
3.02843
3.67659
1.10652
1.32896
1.44148
2.41301
1.91177
1.97793
15.1827
14.8268
14.9604
14.2396
14.3071
14.2482
13.8726
15.2402
14.9622
15.0616
13.7101
13.7969
13.6101
13.9054
14.3213
14.6206
15.4525
15.1736
14.4127
14.5637
14.2146
14.1429
13.4649
12.9019
12.8414
1.11274
0.823234
0.983845
0.911832
0.607801
0.800018
2.18297
1.57229
1.96934
1.72719
1.95994
1.40378
1.30205
4.25293
5.06024
3.96701
3.36816
3.06845
8.90578
9.01756
8.16633
7.86201
8.20376
8.43447
8.38453
7.14044
7.56934
7.38191
9.92098
9.58651
17.5869
17.531
17.2022
17.0433
17.2698
5.76132
7.66475
6.79966
7.91645
10.2096
10.506
9.31227
8.70738
9.46002
9.53697
14.0474
14.1236
13.5644
14.0503
14.0787
11.8352
12.8825
13.4973
13.3117
13.8317
13.9127
12.9738
13.5624
13.4775
12.76
12.8131
12.1281
12.4666
11.9946
11.7937
14.0562
13.9509
14.2207
13.7715
14.1508
13.7151
14.0303
14.0284
14.309
13.4109
12.8323
12.8508
13.277
12.977
13.323
13.487
9.30864
9.94985
10.3897
10.9256
10.6334
10.4149
10.2821
10.5838
10.5609
10.8318
10.7513
10.6019
11.5614
13.4187
13.7036
13.8054
13.6014
13.6476
13.3402
13.6134
13.5425
13.9203
14.0084
14.058
13.1387
13.2952
13.4904
13.374
11.6756
10.0962
9.94892
9.50885
7.5772
8.04712
11.025
9.90239
8.91814
8.98986
12.1688
10.8062
11.6195
12.0425
10.6941
10.3063
12.9715
13.7598
13.9796
13.7036
12.0603
12.1861
12.6358
13.0794
13.2688
13.7249
15.8605
16.4361
16.514
16.2381
16.1001
16.1999
15.95
16.0531
16.5272
16.6537
16.485
2.87793
2.99115
2.92136
2.84697
3.08367
2.85876
3.9527
3.94273
3.15387
3.33453
3.35439
3.46071
2.9283
2.97163
4.82511
5.06108
5.33299
4.83176
6.17446
6.82053
7.40282
7.08541
5.78887
5.86995
6.18659
3.50485
3.53291
3.25087
3.70734
3.76027
2.60969
2.23742
2.04229
2.56077
2.66383
2.0489
1.76786
1.8168
2.33021
2.05012
1.80458
14.9752
14.7335
14.7549
14.5347
14.5893
14.9841
15.205
15.0151
15.1534
15.2044
14.8036
14.6925
14.8636
1.81799
1.4925
1.6225
1.58003
1.64201
1.54866
1.73597
7.60815
6.41489
6.80218
5.97868
4.12132
4.64174
9.5433
9.96538
10.0037
9.71619
9.50546
9.871
9.72195
9.71513
8.26518
9.33669
8.87058
9.26825
9.28873
9.35714
9.0698
9.08089
10.585
10.6184
9.48305
10.1234
9.33148
7.93226
8.09935
9.11284
10.0865
10.4079
10.2523
9.98137
9.75283
10.1176
10.1724
10.2327
10.2222
8.7523
8.71131
8.31106
13.9692
13.8758
14.0223
14.0274
14.1544
13.979
13.816
14.0933
14.1476
13.9318
11.0799
11.139
11.3847
12.1319
12.1839
12.0934
11.3381
13.1029
12.7581
13.3966
13.343
13.4149
13.0047
12.8282
13.0989
10.0809
11.4536
10.9862
11.2499
10.0635
9.30738
13.224
13.278
13.3437
13.6168
13.5745
14.1581
15.8304
15.7003
15.7476
15.7907
15.4023
15.4396
4.17407
3.82726
4.54742
4.50416
4.06259
3.76291
2.28686
1.96868
1.78122
1.65544
1.88878
1.94915
8.16168
8.19056
6.33307
7.35613
5.87681
4.93599
4.79217
5.95451
7.13596
7.19586
8.51638
9.19523
8.75337
8.57944
7.92198
8.25283
10.1209
10.2147
10.1155
10.4342
9.96691
11.7148
11.297
11.6459
13.2603
12.9695
12.3713
12.258
12.2229
12.8162
11.9476
11.179
11.8918
12.5479
12.5061
11.1203
10.8754
11.3019
11.2855
10.1994
10.7201
10.4821
10.8343
10.5491
)
;

boundaryField
{
    wall-4
    {
        type            zeroGradient;
    }
    velocity-inlet-5
    {
        type            zeroGradient;
    }
    velocity-inlet-6
    {
        type            zeroGradient;
    }
    pressure-outlet-7
    {
        type            fixedValue;
        value           uniform 0;
    }
    wall-8
    {
        type            zeroGradient;
    }
    frontAndBackPlanes
    {
        type            empty;
    }
}


// ************************************************************************* //
