/*--------------------------------*- C++ -*----------------------------------*\
  =========                 |
  \\      /  F ield         | OpenFOAM: The Open Source CFD Toolbox
   \\    /   O peration     | Website:  https://openfoam.org
    \\  /    A nd           | Version:  9
     \\/     M anipulation  |
\*---------------------------------------------------------------------------*/
FoamFile
{
    format      ascii;
    class       surfaceScalarField;
    location    "22";
    object      phi;
}
// * * * * * * * * * * * * * * * * * * * * * * * * * * * * * * * * * * * * * //

dimensions      [0 3 -1 0 0 0 0];

internalField   nonuniform List<scalar> 
1300
(
11.2529
1.87548
-4.19134
11.2529
-4.9834
1.87548
-4.23485
4.23485
-1.18791
1.18791
5.7123
5.54056
-2.3711
2.3711
-2.81554
2.81554
-2.86033
2.86033
-1.06194
1.06194
-1.02826
1.02826
0.693247
-0.693247
-3.41232
3.41232
-1.45651
1.45651
-2.90087
2.90087
6.1281
-6.1281
-3.25388
3.25388
-0.744028
0.744028
-4.26321
15.5161
6.98965
6.98965
-2.37138
2.37138
-1.25397
1.25397
1.41034
-1.41034
9.08984
-9.08984
-4.8985
-5.91145
1.90454
-14.0089
-3.07885
-3.07885
-2.7054
2.7054
-0.829928
1.04555
3.47677
-3.47677
-0.757852
0.757852
-4.32118
0.086334
-4.32118
4.01806
0.216787
4.01806
-1.3292
0.141295
-1.3292
4.67475
-4.67475
1.07617
0.111734
1.07617
3.92809
-3.92809
-5.71006
11.4224
5.5428
-5.32064
20.8367
-5.93222
11.4728
-3.91285
3.91285
-2.28798
-0.0831186
-2.28798
2.37218
-0.00107809
2.37218
-4.00959
4.00959
-2.60458
-0.210962
-2.60458
2.91702
-0.101472
2.91702
3.66624
-3.66624
-2.91635
0.0560165
-2.91635
2.70865
0.151677
2.70865
0.771042
1.10443
-2.64652
3.69207
-1.10443
0.0424987
1.02614
0.0357986
1.02614
-1.01453
-0.0137258
-1.01453
1.04984
-0.0215811
1.04984
0.730401
-0.0371543
0.730401
-0.75491
0.0616631
-0.75491
-8.58583
-8.98479
-3.53936
0.127037
-3.53936
-1.47449
0.0179832
-1.47449
1.49271
-0.0361987
1.49271
-2.53302
2.53302
-3.24216
0.341288
-3.24216
4.80635
1.32175
4.80635
5.04612
6.20674
16.299
-16.299
10.1709
-2.97082
-0.283061
-2.97082
-3.42259
-5.66725
3.42259
-0.168706
-0.805821
0.0617937
-0.805821
5.62659
1.36306
5.62659
2.58647
0.122179
-2.58647
0.215095
4.62547
-4.62547
1.42345
0.947926
1.42345
-1.19154
1.19154
1.12337
-0.0735297
-1.12337
-0.130597
1.38601
0.0243319
1.38601
-1.40975
-0.000595746
-1.40975
7.31573
-13.2272
-7.79603
3.2208
0.191519
-3.2208
0.14195
3.5635
-0.0867285
3.5635
-3.30973
3.30973
-3.61096
0.134191
-3.61096
-0.682791
-0.0750611
-0.682791
0.84289
-0.0850376
0.84289
-4.57032
0.249131
-4.57032
-3.68204
0.439883
3.68204
0.336025
1.25213
-1.25213
-1.43698
0.107783
-1.43698
-4.65474
0.084422
4.65474
0.0200105
-4.76948
0.094728
-4.76948
-3.71251
0.101544
3.71251
0.215584
4.58934
1.03725
-4.58934
0.661253
-5.36948
11.5762
-5.88338
11.4262
-3.52825
-0.384601
-3.52825
4.10479
-0.191938
4.10479
2.56307
0.337801
-2.56307
0.275087
2.49875
-0.126574
2.49875
-3.9551
-0.0544947
-3.9551
3.81091
0.198683
3.81091
2.53908
-0.0403298
-2.53908
-0.0655038
2.89385
0.023166
2.89385
3.67217
-0.00592245
3.67217
-3.53931
-0.126932
-3.53931
3.17904
-3.17904
3.08069
0.0983458
-3.08069
0.164347
-5.07402
5.07343
-0.00799943
-5.06602
1.01814
1.01814
0.769443
-0.0390415
0.769443
-0.86179
0.10688
-0.86179
8.33413
-16.1302
8.80067
-17.3865
7.53148
-21.5404
8.08705
-17.0718
3.82751
-3.82751
3.75924
0.0682695
-3.75924
0.219878
-1.45629
-0.0182036
-1.45629
-2.29461
-0.238412
-2.29461
2.86708
-0.334058
2.86708
-3.74211
3.74211
-4.12479
0.382677
4.12479
0.681565
2.95722
-0.0633693
-2.95722
-0.0136037
0.924439
0.151734
-0.924439
0.118618
4.86247
-0.237006
4.86247
-4.08472
-0.540744
-4.08472
-1.47514
0.0188524
1.47514
-0.0516907
-1.25894
0.0674088
-1.25894
-5.0745
0.00847757
-5.0387
-1.40127
-1.40127
1.30414
4.9962
-3.58558
0.0462635
3.58558
-0.0220762
3.52708
0.215033
-3.52708
0.217349
-3.26333
0.0842926
3.26333
0.0464002
-0.660258
-0.0225335
-0.660258
-1.03605
1.03605
-0.91865
-0.117398
0.91865
-0.0757599
1.40804
-0.155909
1.40804
1.47091
0.0218042
-1.47091
0.0339206
-5.00921
0.239733
-5.00921
4.11479
-0.0100019
4.11479
-3.94873
-0.135992
3.94873
-0.276566
-0.00372291
5.07715
-1.01441
-0.00012026
1.01441
-5.10148
5.10136
-0.66561
0.00535257
0.66561
0.103832
1.02966
0.161877
-1.02966
0.167868
3.85099
-0.0400785
-3.85099
0.0234837
-2.01222
-0.282389
-2.01222
-3.196
-0.332248
3.196
-0.328922
-5.11518
-0.0779386
5.19312
-5.13676
1.33688
0.0491261
-1.33688
5.15049
-1.14528
-0.106849
1.14528
-0.109234
1.6071
-0.199059
1.6071
5.11933
-0.256857
-5.11933
0.110122
-4.13085
0.175747
4.13085
-0.0160582
-1.77907
-0.233151
1.77907
-0.171968
-13.1281
14.4911
7.70865
-6.28321
-6.94397
-11.9505
4.4471
7.12912
14.618
-11.7883
-9.75211
-11.6464
2.86006
-2.6922
-3.72836
3.69121
23.5842
-23.4895
-18.3992
19.0808
20.777
-20.5614
5.70885
5.71352
15.8061
-15.8892
-20.957
20.5724
15.3616
-15.5726
22.0944
-22.1489
-25.8404
25.8003
-16.0935
16.1495
-20.2939
20.167
-21.0568
20.7802
-8.32385
-9.06265
16.5027
-16.3756
20.0155
-20.2986
-19.3361
19.6774
10.0475
4.44359
11.0848
-6.24673
11.9556
-5.22604
12.9347
8.31847
-16.6423
7.81169
-14.7557
9.06455
10.951
-8.89584
-3.05462
-17.9698
17.8831
-17.2571
17.3035
24.1015
-24.0152
-6.17283
11.8863
-5.25335
12.3825
-11.409
-6.99021
10.0873
4.53073
8.97419
7.52847
-9.16571
-2.48064
-24.7956
24.5387
-25.6581
25.1174
0.100094
2.42599
-2.52608
1.35406
-0.86258
3.28857
1.99748
2.10436
2.45271
-2.29083
0.23949
-2.76557
-2.89617
-5.34265
5.45043
5.1597
-5.04797
16.5381
7.04617
16.5581
-16.7452
-6.74427
-16.5055
11.3637
7.71705
11.7464
12.0616
8.71536
12.1632
10.359
-10.3317
-0.0273332
-11.4776
21.8367
1.55466
-18.4679
-13.9371
8.81911
6.98695
8.81803
-9.8616
-6.02757
-9.58651
-11.0478
-9.90929
-11.38
12.358
8.21441
12.1661
-15.3553
15.3392
9.264
6.09764
9.16253
-8.94426
-6.62834
-9.00976
27.4883
-6.66436
-20.8239
-13.2063
-12.6341
13.0076
9.08676
14.3509
11.4494
14.3743
8.91109
18.5772
-17.9978
5.36379
-9.94733
-6.14615
-9.78298
9.25861
6.89089
9.41028
-11.7666
-8.52733
-11.7203
-11.9866
-9.07023
11.9925
8.1745
-12.5337
-13.1244
12.6697
8.11056
7.85203
-17.6041
9.21981
-18.2825
-10.9621
-5.41348
-10.7423
10.8043
6.65431
-17.4586
-5.83806
23.6483
-12.6974
20.5937
-10.9038
-9.39475
-10.9174
-14.7712
-4.56494
-14.3313
-8.0102
7.72781
-8.8477
8.51364
26.9015
-16.237
-10.6645
-12.3784
-8.18307
11.7171
-0.632329
-12.8358
12.8084
-0.880196
12.0545
16.4981
15.8658
-10.8803
-6.37684
-10.6629
10.2703
7.0332
10.3546
16.0816
8.01988
16.2984
-16.8038
-7.21136
-16.5547
4.84611
-4.92117
5.71456
-5.69571
15.5777
9.53963
-15.3407
-9.45484
22.9322
-10.7754
-12.1568
-5.12002
5.21566
-0.0956401
-1.83145
-0.477386
0.266641
-1.93121
-1.79715
1.86954
0.234821
5.45048
3.65333
-2.41436
2.48177
2.77876
2.70523
-0.190944
2.50079
-2.49544
18.9133
-11.441
-7.47224
13.961
-13.8765
-2.59371
-19.322
16.7283
2.68153
3.00525
-2.94345
-3.94977
-1.39288
-3.91585
2.95361
2.20609
3.10534
2.10783
3.3426
-8.10715
1.56407
6.54307
-5.99931
-3.48389
-13.3472
-6.27142
19.6186
16.6754
7.86333
-16.7855
0.279999
5.29446
-5.33066
-1.59615
-11.751
8.35316
-9.94931
-15.2197
-6.45992
21.6797
-9.58081
-1.08213
9.36578
2.38063
-10.8772
-7.09256
10.743
1.42015
-12.0645
23.9708
-11.9063
-18.4413
8.5158
13.3209
16.2328
-17.8628
9.31884
8.54393
-4.54191
7.41004
1.40799
7.28347
-19.8901
13.8625
11.2904
8.38703
-11.6282
2.0417
-17.8484
25.1607
-22.2793
-2.88147
12.8122
12.3486
13.5746
13.3269
-7.80219
21.3768
-3.61896
-18.6603
21.4673
-13.0803
15.7817
-28.8621
-29.1087
10.4484
-17.9856
22.0996
-4.11395
-5.21318
-10.1421
23.1988
-2.01402
-21.1848
10.1521
-13.9262
-11.8291
25.7553
-20.5906
18.4574
-6.26521
-12.1922
-12.6964
-9.45242
12.5207
2.81851
-25.8568
31.2206
-7.27959
7.8013
1.36123
7.82447
10.613
-15.9713
5.35829
9.97759
-16.2428
6.76448
-22.7358
-12.168
24.1845
-12.0165
-17.5815
-15.8078
-1.77369
4.86369
26.3569
-16.3131
12.1074
4.20566
8.46194
1.89268
-8.56028
-1.2227
0.968372
16.0872
-17.0556
10.3787
10.5008
11.7057
4.38158
10.7701
7.11297
-10.748
-0.9723
-14.7924
5.72222
-6.61794
-14.5735
20.2957
-16.2678
1.69424
-10.3032
-13.9909
24.2941
-16.4493
11.4256
12.5452
18.4588
-19.615
5.62406
-9.74653
-9.86847
10.6437
-17.2616
7.49782
12.7979
15.6084
2.48396
12.7575
11.4269
-19.4119
1.12941
18.9554
-16.4747
3.90025
10.4741
-16.0077
0.199893
-10.5424
2.6466
-15.344
-14.812
16.5217
-21.0866
-12.3404
13.5419
2.7565
-13.8779
-0.453403
-4.96577
-3.04444
-5.19892
-3.28764
-5.56006
-11.0898
-1.92934
-9.1605
5.79848
-6.70712
-4.67288
7.03604
1.4776
-4.94379
4.83694
-5.59158
5.39252
-0.210183
13.0186
15.6556
7.47252
-8.47672
15.9492
-15.5973
23.6172
-29.7222
14.1249
15.9513
-23.1627
-13.7709
2.70417
2.14193
2.61913
13.4689
-14.4286
0.959692
-13.2946
17.6262
-4.33161
-19.6082
6.31359
-6.13926
5.18773
0.526831
5.16953
1.41675
6.84667
-8.26342
-4.27896
-4.33065
-9.16247
-13.8592
23.0217
4.73715
-13.1057
8.36859
-12.0644
16.8015
0.0796567
-13.1854
16.9869
-10.1403
17.5138
-11.9847
5.52904
12.792
22.3479
-9.5559
16.2474
-6.70776
7.06663
-16.6225
-6.79255
-11.2888
18.1796
-13.0054
14.6996
-1.12403
15.8236
-13.7783
3.00284
-2.07262
8.42822
8.64331
16.8089
-12.4273
11.9704
-18.6782
-4.65209
-16.1943
-3.39634
1.02579
-13.835
12.8092
12.0592
-11.0334
-3.24446
8.9938
-5.74933
5.68737
-2.85018
-2.8372
-1.84811
-3.07305
1.87065
0.630141
6.31752
0.489863
-3.34004
-2.00557
-1.90174
10.378
8.53528
-3.83441
3.73877
3.56776
-0.562518
0.959173
2.14617
4.59016
-3.63099
0.678668
3.91149
-2.26479
3.8289
1.46556
-3.8507
-0.0651507
-3.40874
11.7619
3.13433
-5.34043
1.70944
2.37944
-13.8205
19.7432
-11.4189
-8.32434
22.1226
3.05971
-14.4786
16.2623
-13.5808
8.10087
-14.3723
-6.3777
-19.9585
-12.9123
-10.7108
19.0794
-12.3108
20.1741
3.85969
-20.4541
24.3138
-12.7416
6.28169
-9.44583
10.9114
-4.05994
-5.38589
11.2682
10.4115
-11.0546
-0.696436
0.213565
8.4225
-8.20893
-1.52681
-7.52612
-16.4088
17.829
-8.25576
17.5746
7.69348
-7.63396
25.2086
6.56502
-14.199
-11.8763
-12.9584
-5.65505
10.5778
-1.79601
-7.21375
-13.9882
7.25408
0.0293894
-19.0375
22.0292
-2.99171
-12.0505
-1.81198
14.6241
-18.0808
1.83797
-11.3163
10.7129
12.1209
12.1503
-20.8751
-0.3097
-12.6607
3.17843
-15.8391
15.527
-6.80919
17.2576
-16.0452
11.3723
-14.5676
14.3761
-1.46301
14.7531
-9.39486
6.0708
-15.5232
-12.7047
14.4555
-8.35787
15.8167
-10.1179
25.9346
-17.3975
14.404
11.5306
-2.71962
-8.19781
-13.9673
11.2477
0.436715
8.26118
17.8371
-10.7242
16.8648
8.92414
-18.6707
-8.33751
-25.8597
7.189
-13.3145
-7.3565
14.5455
11.1023
12.995
4.67703
-11.7723
17.7959
-19.5696
-5.77945
-9.03253
14.5795
-3.33184
10.1592
-19.1917
-5.18477
13.1132
-0.181489
-12.9317
3.1238
-15.4642
5.12042
-20.5846
15.9662
-16.4196
1.7731
-7.91236
-3.17069
-3.27992
-2.17703
-3.41454
-7.58008
5.40304
-1.26649
3.57045
-12.5374
12.3559
-5.08882
10.4919
-4.06638
-1.13254
4.23835
1.15417
11.646
3.03162
-16.8025
-9.26372
14.6339
-5.37018
1.11426
-10.8034
3.83051
8.09572
14.0269
-24.8241
1.66134
-15.1412
-4.07537
6.2173
4.91843
16.9776
2.54901
6.55982
-0.342519
9.10883
2.27661
2.20085
-11.23
12.1897
1.57926
15.7042
-1.88316
7.4122
3.28637
3.30435
2.02631
5.72308
2.92023
8.72592
0.462498
-3.86815
2.06874
-3.97048
-1.2713
-4.00952
-0.318316
3.72688
-4.0452
10.5032
-1.96794
5.13304
-1.88516
-4.93671
6.82187
-9.35741
-5.49923
-1.58773
-5.61005
7.31949
6.15185
-5.73176
-3.62565
2.39366
-15.306
11.9786
-12.6751
-2.26356
22.0503
-9.46438
1.25545
-3.18269
-6.27068
-7.66355
7.7287
24.1899
1.01862
12.2836
18.8476
11.755
1.03087
11.9931
-16.1071
-10.7426
-16.4168
-0.88978
13.7344
5.6296
20.7273
17.1602
13.8284
-5.36336
-24.933
20.7385
-8.54887
16.4069
-3.47518
-17.1094
14.6342
8.983
-17.3907
0.971103
-16.1383
-24.6872
-0.340021
12.6959
-11.306
10.1735
7.12904
2.03146
-2.42875
-0.851166
2.54615
-0.345297
8.76353
-0.187909
-8.20083
8.38874
-3.53897
2.26767
-0.431771
4.17054
6.3901
4.42216
-3.77866
-7.82386
-8.82166
-4.9988
-17.146
2.4726
-8.62445
5.68572
-3.41805
2.84853
4.97069
10.1037
-1.60101
-9.43242
7.35034
-4.50182
5.60191
)
;

boundaryField
{
    wall-4
    {
        type            calculated;
        value           uniform 0;
    }
    velocity-inlet-5
    {
        type            calculated;
        value           uniform -11.2529;
    }
    velocity-inlet-6
    {
        type            calculated;
        value           uniform -1.87548;
    }
    pressure-outlet-7
    {
        type            calculated;
        value           nonuniform List<scalar> 8(4.19134 4.9834 10.8099 12.1044 17.5706 15.1118 17.1348 15.6185);
    }
    wall-8
    {
        type            calculated;
        value           uniform 0;
    }
    frontAndBackPlanes
    {
        type            empty;
        value           nonuniform List<scalar> 0();
    }
}


// ************************************************************************* //
