/*--------------------------------*- C++ -*----------------------------------*\
  =========                 |
  \\      /  F ield         | OpenFOAM: The Open Source CFD Toolbox
   \\    /   O peration     | Website:  https://openfoam.org
    \\  /    A nd           | Version:  9
     \\/     M anipulation  |
\*---------------------------------------------------------------------------*/
FoamFile
{
    format      ascii;
    class       volVectorField;
    location    "22";
    object      U;
}
// * * * * * * * * * * * * * * * * * * * * * * * * * * * * * * * * * * * * * //

dimensions      [0 1 -1 0 0 0 0];

internalField   nonuniform List<vector> 
918
(
(2.47629 -0.138943 0)
(0.108704 0.722546 0)
(0.171962 1.06004 0)
(2.31834 0.153728 0)
(-0.0599059 1.26422 -1.21687e-19)
(-0.0924034 0.643931 -5.31454e-18)
(0.529131 0.84798 -2.95905e-19)
(0.274399 0.152909 -2.98879e-20)
(3.00615 -0.0195609 0)
(-0.0082059 0.475814 0)
(-0.017303 0.588854 0)
(0.605246 0.00676218 0)
(0.0107054 0.439105 0)
(-0.00288265 0.421689 0)
(0.0134612 0.340879 -1.30546e-18)
(-0.00500472 0.767136 -9.19663e-20)
(0.312459 0.0742801 2.15223e-18)
(0.0795434 0.640651 -2.23492e-19)
(1.52884 0.128628 0)
(-0.0270557 0.68688 0)
(0.194656 0.157759 -1.26581e-18)
(3.08302 -0.397373 0)
(2.92445 -0.50598 0)
(1.86116 -0.1811 0)
(0.511439 0.0400867 0)
(-0.0253679 0.521551 0)
(-0.00135314 0.494038 1.86269e-18)
(-0.0232915 1.40593 0)
(0.0729414 2.89458 0)
(0.167922 1.74415 0)
(-0.0403642 3.15445 0)
(0.0263992 1.63298 9.35645e-20)
(0.0228616 0.684114 0)
(-0.147424 0.775093 -2.03114e-22)
(-0.193914 1.0291 4.42183e-18)
(-0.0415772 1.04471 0)
(0.744569 -0.00600624 0)
(0.161149 0.246517 6.65759e-19)
(0.99195 1.51045 6.53648e-19)
(0.648957 0.783038 -5.16591e-19)
(0.797262 1.57185 6.21324e-20)
(0.41597 0.849393 -3.20843e-19)
(0.552501 0.306664 2.93943e-20)
(0.297045 0.153681 0)
(0.962321 0.566093 0)
(0.532807 0.30405 1.32032e-19)
(0.258062 0.162839 -1.35484e-19)
(0.871593 -0.0554793 0)
(3.02784 -0.00170516 0)
(3.00685 0.0178655 0)
(3.20086 -0.417733 0)
(3.04288 -0.0742121 0)
(3.03116 -0.0388408 0)
(0.01865 0.906162 -1.14706e-18)
(-0.0541837 0.971655 0)
(0.0027788 0.453851 0)
(-0.028933 0.978624 0)
(-0.0113795 0.480048 0)
(-0.00147263 0.871513 0)
(-0.0521576 1.10944 0)
(-0.0126625 0.540915 0)
(-0.0254528 1.16134 0)
(-0.00605335 0.621399 0)
(0.790441 0.0116187 0)
(1.16948 -0.00156696 0)
(0.618275 0.0123676 0)
(1.12586 0.0175973 0)
(0.569799 0.00867654 0)
(0.225406 0.921982 1.96004e-18)
(0.0985378 1.2081 0)
(0.176302 1.06604 0)
(0.0331901 0.755774 2.19961e-23)
(0.0372233 0.498055 -2.9314e-18)
(0.0194616 0.747943 0)
(0.0059542 0.422033 0)
(-0.00069553 0.734548 4.51814e-24)
(0.000702422 0.414825 0)
(-0.0169212 0.74318 0)
(-0.012938 0.427981 0)
(0.0495009 0.650156 0)
(0.0484979 0.458391 0)
(0.00803506 0.622031 1.23429e-18)
(0.000759216 0.344922 0)
(-0.0737344 4.68912 0)
(0.00844712 1.45582 9.13034e-20)
(-0.0106321 0.784592 -1.17578e-19)
(0.636222 0.152177 -7.50976e-19)
(0.32167 0.065692 -7.28732e-19)
(0.644946 0.169762 -2.25475e-18)
(0.3176 0.0955906 -1.45164e-18)
(0.0788511 0.620223 0)
(0.177952 1.31015 1.85391e-19)
(0.179232 0.728214 -2.95808e-19)
(2.06031 0.260945 0)
(1.10704 0.118449 0)
(3.03313 0.103887 0)
(3.10392 0.446059 0)
(2.83919 0.377459 -1.01279e-17)
(2.57811 0.361309 7.77131e-18)
(-0.0711123 1.26522 0)
(-0.0115369 0.624002 0)
(-0.0151446 1.90719 0)
(-0.0511346 1.35016 0)
(-0.0484193 0.681023 0)
(0.440475 0.295757 4.00747e-19)
(0.225536 0.163417 0)
(2.29609 -0.266394 0)
(1.32372 -0.119274 0)
(1.07641 0.0126622 0)
(1.01209 0.0187608 0)
(0.540971 0.0108452 0)
(1.01972 0.0563762 0)
(0.821314 0.0703349 0)
(0.343661 0.028698 3.36305e-18)
(-0.00543609 0.451598 1.77383e-18)
(-0.0270336 0.784631 0)
(-0.0473255 0.847518 0)
(-0.0152756 0.46044 0)
(0.000132429 0.839725 1.81624e-18)
(7.29635e-05 0.48753 0)
(-0.00547891 0.845554 -5.59112e-18)
(-0.00488634 0.496761 1.8866e-18)
(0.0513207 3.57537 0)
(0.0389151 4.03349 0)
(-0.0165643 1.4073 -2.05223e-21)
(-0.0135757 1.35892 0)
(-0.00999732 0.739429 0)
(1.41016 0.0348809 0)
(0.760535 0.015436 0)
(0.709523 0.0142634 0)
(1.41617 -0.0328503 0)
(0.773508 -0.00874114 0)
(0.322366 0.48079 -8.35887e-19)
(0.156935 0.2329 0)
(0.325296 0.509683 9.36807e-20)
(0.163527 0.268691 0)
(1.23924 1.3846 1.66631e-19)
(0.777805 0.739801 -3.92775e-19)
(0.410724 1.41833 0)
(0.605753 1.53032 0)
(0.302819 0.812734 0)
(0.145574 0.353911 -4.43125e-19)
(0.607503 0.280804 0)
(0.313587 0.134667 3.98853e-19)
(1.42593 1.30502 0)
(1.58548 1.16736 0)
(0.874148 0.663178 4.62029e-19)
(1.73286 0.952363 0)
(1.06801 0.43847 2.32079e-20)
(1.47297 0.00813628 0)
(1.50099 -0.0292405 0)
(0.801891 -0.00441714 0)
(1.95042 -0.19978 0)
(1.65081 -0.148181 0)
(1.05215 -0.0889702 0)
(3.06126 0.164853 0)
(3.03105 0.0687871 0)
(3.01022 0.0531591 0)
(0.0355928 1.61129 6.08654e-19)
(0.0178805 0.830036 0)
(0.0180276 1.70239 1.08047e-18)
(0.00303729 0.942203 -9.71341e-19)
(0.0645566 1.1489 1.88249e-19)
(0.0476247 0.986208 0)
(0.0400782 0.527161 0)
(-0.0286626 1.0027 0)
(-0.00702897 0.516178 0)
(0.017718 1.61913 -4.43102e-21)
(-0.0183797 0.867981 0)
(-0.0540997 1.58708 -2.25625e-19)
(-0.0163793 0.822165 4.3693e-19)
(-0.00190775 1.02727 0)
(0.0100672 1.04189 0)
(-5.65893e-05 0.530354 0)
(0.0103807 1.17055 0)
(0.000697496 0.612326 0)
(1.46823 -0.00371764 0)
(0.789167 0.00805256 0)
(1.44049 0.0331591 0)
(0.761765 -0.000560421 0)
(0.675399 0.0053423 0)
(1.26199 0.0166782 0)
(1.20243 0.0473059 0)
(0.659713 0.0155535 0)
(-0.00580053 1.42077 -1.70232e-20)
(0.000184312 1.37708 0)
(0.00482011 0.732923 0)
(0.00172892 0.417221 0)
(0.284656 0.829177 0)
(0.253796 0.399973 -2.87193e-19)
(-0.00221484 0.635427 0)
(-0.00889202 0.36761 0)
(0.00623269 4.34282 0)
(-0.054478 4.66384 0)
(-0.0241805 4.56898 0)
(-0.074768 3.35909 2.04864e-20)
(-0.0638362 4.59844 0)
(-0.0565696 4.17244 0)
(0.0045735 0.819082 1.07568e-20)
(0.0139632 1.56212 1.65248e-19)
(-0.0360114 1.50181 1.20802e-19)
(-0.00764972 0.825464 0)
(0.664552 0.105726 1.15333e-18)
(0.325735 0.0441662 -1.13028e-18)
(0.150201 1.13674 0)
(0.101312 0.574927 -2.6951e-19)
(0.118786 1.23723 -8.75269e-19)
(0.0521631 0.689435 8.70764e-19)
(0.809206 0.0240624 0)
(1.55678 0.0476777 0)
(1.7097 0.127651 0)
(0.919848 0.0445221 0)
(0.00751954 1.18258 0)
(0.0255296 1.19139 0)
(0.00428603 0.628256 0)
(0.482319 0.315218 1.20377e-18)
(0.43703 0.309223 -1.3869e-18)
(0.234852 0.164235 0)
(1.93516 0.152915 1.15243e-19)
(1.13619 0.0932021 0)
(1.72413 0.11841 0)
(0.883626 0.0226797 0)
(0.678279 0.0857457 0)
(0.699807 0.046065 -5.40766e-18)
(0.34677 0.0325977 1.99907e-18)
(0.00914523 0.807281 1.69396e-18)
(0.00222214 0.462508 4.08157e-20)
(-0.0108777 1.40842 -3.58053e-20)
(0.00613615 1.38675 1.36605e-18)
(-0.0149832 0.848955 6.29523e-20)
(-0.0119261 0.524486 -2.5294e-22)
(-0.107514 1.00068 -1.16503e-18)
(-0.0529602 1.3532 8.34099e-19)
(-0.0175323 1.35275 -1.35794e-18)
(1.42269 -0.0170893 0)
(1.44233 0.020313 0)
(0.769851 -0.000181085 0)
(1.45219 0.0253816 0)
(1.36321 0.0462284 0)
(0.761548 0.0203059 0)
(1.30064 -0.00215643 0)
(1.31869 -0.00585178 0)
(0.695068 -0.000988596 0)
(0.305109 0.473799 -9.15455e-19)
(0.161482 0.242859 0)
(0.15736 0.308781 1.37007e-19)
(0.309995 0.586595 1.12266e-18)
(0.307748 0.549177 -6.64615e-19)
(0.156994 0.28218 1.29873e-18)
(0.278984 0.71893 2.18295e-18)
(0.148545 0.381467 3.93922e-19)
(0.636252 0.213154 1.53756e-18)
(0.626168 0.253676 3.99345e-19)
(0.316688 0.115068 7.49323e-19)
(1.92042 0.714139 -5.99825e-19)
(1.16723 0.335904 -7.0203e-19)
(-0.0352922 1.70928 4.64387e-19)
(-0.0115887 0.928141 0)
(1.60373 0.0239203 0)
(1.52179 0.0653556 0)
(0.852863 0.0268453 0)
(-0.00355883 1.38473 0)
(0.00507417 0.729574 2.49549e-18)
(0.00465034 0.731252 0)
(0.00207078 0.415097 -2.44252e-18)
(-0.0102752 1.38626 5.95745e-19)
(-0.0094727 1.4225 0)
(0.336812 0.488508 2.58017e-19)
(0.360295 0.546773 -8.63192e-19)
(0.17196 0.257993 7.81312e-19)
(-0.0256713 0.767461 -1.66292e-18)
(-0.0261498 0.689729 0)
(-0.0154341 0.412932 0)
(0.0298002 1.54971 -1.27692e-20)
(0.0310179 1.58137 -3.64432e-19)
(0.0177139 0.823222 -1.55829e-20)
(0.214059 1.04676 8.90837e-19)
(0.11999 0.510168 -5.92806e-19)
(0.0119487 1.49015 7.31286e-19)
(0.0561336 1.35553 -8.16225e-19)
(0.0269539 0.763028 3.53717e-20)
(0.00751227 1.36614 -3.80817e-18)
(-0.000215912 1.39326 4.41008e-18)
(0.00377323 0.829776 1.73318e-18)
(-0.0138295 0.805093 -1.72567e-18)
(-0.00430922 0.481399 -1.73882e-18)
(-0.0106513 1.41685 -4.50047e-18)
(-0.0152181 1.40032 4.58967e-18)
(0.286833 0.675819 0)
(0.300209 0.635483 -2.28886e-18)
(0.15216 0.33215 9.90866e-19)
(0.281829 0.797452 1.18592e-18)
(0.139115 0.42831 -1.82984e-18)
(2.05649 0.322418 4.15864e-19)
(2.05086 0.547417 0)
(1.21831 0.220876 -4.01832e-19)
(-0.0742424 1.63986 -4.8007e-21)
(-0.0145101 1.69599 0)
(-0.0158932 0.924821 0)
(0.22767 0.946659 -3.23045e-19)
(0.248809 0.868313 -7.07462e-19)
(0.129116 0.464215 1.32579e-18)
(3.16442 -0.442873 0)
(3.34728 -0.414686 1.81284e-18)
(0.0589566 3.49117 0)
(0.0469116 2.81525 0)
(3.15926 0.249914 1.41918e-20)
(3.12355 0.506295 3.7122e-18)
(0.0206046 3.42478 -2.74938e-20)
(0.0081575 2.65754 0)
(-0.0416337 1.19605 1.5553e-18)
(0.190272 1.31671 0)
(3.47143 1.62415 -3.24811e-19)
(3.17427 0.272571 -2.96101e-20)
(3.14838 -0.118701 0)
(3.10047 -0.00040522 3.7301e-22)
(0.0436205 2.58257 0)
(0.158186 3.31088 0)
(-0.0557145 2.52959 0)
(-0.0243268 3.49582 3.15737e-19)
(-0.0267113 3.57374 1.99232e-19)
(2.63354 0.0488067 -1.36487e-20)
(3.04743 0.0311241 0)
(3.15777 0.0867907 0)
(-0.0567085 4.61743 0)
(-0.0475019 3.0808 0)
(-0.0736798 2.9381 0)
(0.651349 3.09809 2.66071e-19)
(3.33884 -0.42246 0)
(3.0114 -0.345811 0)
(3.1699 -0.0530383 2.27725e-18)
(3.2927 -0.328701 -2.74206e-18)
(3.1038 -0.125777 0)
(-0.0626077 4.51733 0)
(0.0121636 3.94068 0)
(0.00332132 4.27 0)
(-0.0288357 3.09933 0)
(-0.0149529 2.85722 0)
(-0.0317886 2.42963 0)
(2.9742 -0.00317912 0)
(2.85045 0.0486201 -1.80502e-20)
(2.24482 3.04565 -3.21943e-19)
(3.15695 0.0444538 -2.27832e-18)
(3.19037 0.278178 2.76941e-18)
(3.0828 0.117337 0)
(3.3954 0.328922 2.08734e-18)
(3.35695 0.484365 -2.70662e-18)
(3.07111 0.418428 0)
(-0.0568058 3.34338 0)
(0.0037384 3.27064 8.52782e-20)
(-0.0313442 2.57082 -6.04185e-20)
(3.7074 0.555062 2.26564e-18)
(3.47071 0.208385 0)
(-0.151945 1.27127 -2.16633e-18)
(-0.0623854 0.882157 -1.35061e-19)
(-0.0847522 1.33676 2.98617e-18)
(-0.0351873 1.27048 -8.99786e-19)
(-0.000447677 1.08845 0)
(-0.026667 1.23955 6.94983e-19)
(-0.11504 1.38786 2.14695e-18)
(-0.0590395 1.34056 -1.31438e-18)
(-0.0767434 1.32063 0)
(1.28983 0.597414 0)
(1.17788 0.682674 0)
(3.55567 2.02836 9.53731e-19)
(3.04832 1.9346 -1.19087e-18)
(3.83709 1.70575 0)
(3.38314 1.15626 0)
(3.34935 0.280491 -3.91692e-18)
(2.89884 0.173117 4.83988e-18)
(3.35144 -0.155484 0)
(2.85478 -0.0761396 0)
(3.43642 0.0430216 0)
(3.59381 0.145052 0)
(3.28683 0.119872 0)
(3.55033 0.298577 0)
(3.40841 0.293057 0)
(3.32755 0.218071 0)
(0.0971259 2.78371 0)
(0.0343989 2.0734 0)
(0.126077 3.044 0)
(0.0922319 2.19913 0)
(0.215515 3.60344 0)
(0.140663 2.68287 -5.59026e-19)
(0.0534454 3.62025 0)
(0.0115622 3.02475 4.05852e-19)
(-0.0250855 3.21222 -5.17079e-19)
(-0.0603449 2.79472 0)
(-0.0234976 2.1984 0)
(-0.0731808 2.90113 0)
(-0.0559288 2.04508 0)
(-0.109386 4.75166 -2.4544e-19)
(-0.0815022 3.94535 2.77156e-19)
(-0.0759312 3.80822 3.08954e-19)
(-0.0533998 3.02261 0)
(-0.1064 3.80679 -4.58586e-19)
(-0.0383442 3.21795 -2.94948e-19)
(-0.0838516 4.78391 1.92513e-19)
(-0.0964836 4.46835 -3.5032e-19)
(-0.0710402 4.33907 -3.78785e-19)
(3.03143 0.0883524 3.35866e-18)
(2.28967 0.0321725 -4.22986e-18)
(2.89144 0.132812 -3.32759e-18)
(2.20971 0.0734743 4.15635e-18)
(3.36852 0.0276911 0)
(2.643 -0.00266114 0)
(3.45405 0.091295 0)
(3.32016 0.0192525 0)
(2.70654 0.00920558 0)
(3.68012 0.239515 0)
(3.43869 0.0959281 0)
(2.86346 0.056472 0)
(-0.0261305 4.32927 -1.20474e-20)
(-0.0597575 4.65207 0)
(-0.0651883 4.5448 0)
(-0.0771581 3.50252 8.77546e-20)
(-0.0382718 2.77707 -3.46513e-21)
(-0.0845755 4.66948 1.13487e-19)
(-0.098423 4.45978 -1.14683e-19)
(-0.0812694 3.95814 0)
(-0.0593446 3.87981 0)
(-0.0235603 3.99683 0)
(-0.0732601 3.25825 0)
(-0.0433367 2.30259 0)
(0.947677 3.65407 -6.09261e-19)
(0.919385 2.84673 -1.76542e-19)
(0.431718 2.05779 -2.28385e-19)
(0.253302 2.30576 6.97621e-19)
(1.02603 4.2041 2.63831e-19)
(3.43308 -0.167427 0)
(3.32213 -0.256549 0)
(2.88327 -0.189517 0)
(3.47032 -0.0643501 0)
(3.34581 -0.147867 0)
(3.44893 -0.261025 0)
(3.5195 -0.283603 0)
(3.57949 -0.281133 0)
(3.22415 0.0933766 3.61896e-18)
(2.55521 0.0645135 -4.57613e-18)
(3.09652 0.106565 -3.56242e-18)
(2.50913 0.056667 4.43264e-18)
(2.23891 3.41324 0)
(1.73748 2.94352 -4.45991e-19)
(2.56616 3.34633 -4.03406e-19)
(2.36732 2.52666 5.36149e-19)
(0.775332 1.21415 2.72288e-18)
(1.44701 0.216488 1.34319e-18)
(3.72232 0.304098 0)
(3.89283 0.572575 -1.8461e-18)
(3.29861 0.243841 -8.23423e-20)
(3.72104 0.440004 0)
(0.236971 1.31251 1.7964e-18)
(-0.0164864 1.20205 -2.87683e-18)
(0.0589702 0.770007 1.61481e-18)
(0.276162 0.465012 -7.47969e-19)
(0.187456 1.38404 8.71149e-19)
(0.0507511 1.23728 0)
(0.0578153 1.08632 -1.13248e-18)
(0.191988 1.44318 -4.09284e-18)
(0.329402 1.55729 0)
(0.00866997 1.2902 1.19603e-19)
(-0.00972039 1.45729 -1.34042e-18)
(-0.0410179 1.30282 1.94868e-18)
(-0.0574495 1.41766 0)
(-0.020481 1.38227 0)
(0.681651 1.05065 0)
(2.45858 2.45596 -1.06628e-18)
(2.6422 2.17169 3.95321e-19)
(2.79138 2.88043 0)
(3.21272 3.06575 -3.94559e-19)
(3.16486 2.41021 2.84457e-20)
(0.804127 0.589659 -1.82263e-18)
(1.55643 0.691628 -1.62231e-20)
(1.23327 0.451113 8.72175e-19)
(1.27565 0.843965 5.95102e-20)
(0.939244 0.634093 -2.3697e-18)
(1.46479 0.714366 0)
(1.99073 1.10001 1.456e-18)
(2.03283 1.01594 0)
(1.41241 0.790948 0)
(1.06234 0.549846 0)
(3.37639 2.17998 1.00843e-18)
(3.94716 0.76058 -1.86339e-18)
(3.84735 1.21558 0)
(3.53309 0.75745 0)
(1.39169 0.364821 1.3325e-18)
(3.25902 1.84228 -8.51514e-19)
(2.83552 1.6546 1.54684e-18)
(3.75576 1.37684 -1.83582e-18)
(3.09795 0.114752 2.46395e-18)
(3.16857 0.180812 -2.57891e-18)
(2.66185 0.0916394 0)
(3.30729 -0.0395081 0)
(3.2014 -0.0842632 -2.3665e-18)
(2.63242 -0.0321133 2.34565e-18)
(3.9563 0.0931828 0)
(3.7597 0.145637 0)
(3.69369 0.155367 0)
(3.5883 0.204742 0)
(3.83261 0.0590223 0)
(3.72611 0.0522459 0)
(-0.0405612 2.50657 0)
(-0.0379676 2.0069 0)
(0.356563 3.98172 -4.10966e-19)
(0.661678 3.32611 -1.60119e-19)
(0.258757 3.02029 -3.58175e-19)
(0.342926 2.54146 5.73754e-19)
(0.457619 4.00818 0)
(0.470589 4.67051 -5.09759e-19)
(0.384293 4.72849 0)
(0.913486 4.37865 -3.79522e-19)
(0.675888 3.82165 9.69142e-19)
(0.59829 4.65056 4.46783e-19)
(0.740686 4.19562 -1.87468e-19)
(0.602397 4.32079 1.50825e-19)
(0.91737 4.65464 -6.63621e-19)
(0.750118 4.66165 0)
(0.860269 4.5887 5.04502e-19)
(0.00584736 4.57703 -1.81104e-19)
(-0.0194128 3.65531 0)
(0.100928 4.29342 5.49516e-19)
(-0.00355037 4.39669 0)
(-0.00409612 3.46771 -4.51302e-19)
(-0.0156187 2.92128 0)
(-0.102363 4.30432 -2.88955e-19)
(-0.10834 4.68055 0)
(-0.0542596 3.80055 0)
(-0.0414906 3.72231 3.24999e-19)
(-0.0486169 3.89443 1.03715e-20)
(-0.036044 3.71684 6.25918e-19)
(-0.0419322 2.95673 4.06791e-21)
(-0.117034 4.71094 1.80074e-19)
(-0.105994 4.74228 1.03148e-19)
(-0.0177912 2.62141 0)
(0.000550751 2.13456 0)
(-0.0432627 4.78977 4.85849e-19)
(-0.0497435 4.30416 4.23313e-19)
(-0.0848838 4.58237 -5.53465e-19)
(0.0152494 4.75697 0)
(-0.0820535 4.53353 -3.08976e-19)
(-0.120694 4.16669 1.2768e-19)
(-0.0876995 4.24883 -4.12967e-20)
(-0.0736457 4.72948 -2.18754e-19)
(-0.0882762 4.27111 -6.85091e-20)
(-0.0863098 4.21672 3.06565e-19)
(2.87147 0.0610095 -2.36357e-18)
(2.85894 0.0496857 2.27304e-18)
(2.33865 0.0345487 0)
(3.51025 0.191964 3.04655e-18)
(2.70385 0.126515 -3.3048e-18)
(2.25466 0.064465 3.60962e-18)
(3.68267 0.335239 -4.01645e-19)
(3.20987 -0.0485344 0)
(3.17208 -0.0135689 2.23705e-18)
(2.69087 -0.0123834 -2.21941e-18)
(3.87868 0.122172 -1.25241e-19)
(3.7717 0.101806 1.07835e-18)
(4.15971 0.173393 0)
(4.22843 0.181051 -3.75138e-19)
(4.01374 0.145171 0)
(3.69497 0.155359 0)
(4.03231 0.0950608 0)
(3.71181 0.0873103 0)
(4.18472 0.113823 7.85512e-19)
(4.13721 0.0790884 -1.74794e-18)
(4.14064 0.113828 -8.48025e-19)
(4.18638 0.116466 -9.24503e-19)
(4.21564 0.228901 1.7741e-18)
(3.85465 0.188555 0)
(4.06115 0.301766 0)
(-0.0763222 4.57856 -1.35793e-19)
(-0.0362909 4.64244 -1.16841e-20)
(-0.0696816 4.65984 0)
(-0.0583044 4.19385 1.38183e-19)
(-0.0567517 4.2199 2.25484e-20)
(-0.0610068 4.08737 -2.18623e-20)
(-0.0816998 3.52924 2.61068e-19)
(-0.145996 4.00693 -1.45158e-20)
(-0.104929 4.13538 7.47299e-20)
(-0.0757082 3.40302 -1.32301e-19)
(-0.0255221 2.92636 1.58438e-19)
(-0.0794133 4.42952 5.19006e-21)
(-0.0926109 4.64235 1.72137e-19)
(1.24389 4.35439 3.47577e-19)
(1.16049 4.52556 7.25739e-19)
(1.73531 3.46125 4.31265e-19)
(1.30712 3.55378 1.69709e-19)
(1.28417 2.88384 0)
(0.550249 2.32404 2.75069e-19)
(0.464784 1.74541 3.30947e-19)
(0.346369 2.57431 1.5161e-20)
(0.494 3.1813 -1.1616e-18)
(0.6344 3.13923 8.77036e-19)
(0.434323 2.41036 0)
(0.294716 1.97734 -5.57735e-19)
(0.26073 3.08593 1.3958e-18)
(0.274248 2.72677 -3.14626e-20)
(0.158535 2.2832 -1.74953e-18)
(0.592482 1.41319 1.46405e-18)
(0.577684 1.61981 0)
(3.58364 -0.0751545 8.6435e-20)
(3.61861 -0.254106 -7.25981e-20)
(3.72135 -0.217718 -1.26657e-18)
(3.75927 -0.126026 1.28245e-18)
(3.67616 -0.0488628 0)
(2.44664 3.86904 0)
(2.61877 3.91311 0)
(2.88994 3.62368 0)
(2.73728 3.64156 0)
(0.855181 1.39576 -3.33344e-21)
(0.612173 1.04011 0)
(1.71212 3.38742 1.50232e-20)
(1.42395 3.46691 0)
(1.32927 2.95442 -1.28417e-18)
(1.40979 2.89648 8.24688e-19)
(1.79159 0.310424 0)
(1.43072 0.262048 3.52076e-19)
(2.41198 0.358822 2.19183e-18)
(1.78635 0.284836 -7.85449e-19)
(1.42652 0.112198 -2.49503e-18)
(4.26627 0.789784 -2.56551e-18)
(3.85243 0.994973 -3.67131e-20)
(3.29753 0.844512 2.06785e-18)
(3.87616 0.745275 1.81329e-18)
(3.12345 0.465624 -3.04508e-18)
(2.91063 0.45212 3.74994e-19)
(3.19301 0.682275 -8.1873e-19)
(2.97657 0.683322 0)
(3.75901 0.563843 1.53766e-18)
(4.09589 0.629188 0)
(4.09143 0.776212 0)
(4.04559 0.415745 8.23691e-19)
(4.2966 0.642337 -3.0253e-20)
(4.24923 0.715579 -4.52884e-19)
(4.17636 0.642973 0)
(3.61578 0.130356 1.7182e-18)
(4.19002 0.183493 2.14422e-18)
(4.09074 0.151581 -1.67943e-18)
(4.13659 0.24076 -1.44287e-18)
(3.74586 0.238126 -2.1564e-18)
(3.3032 0.37591 0)
(3.40364 0.302329 0)
(2.55835 0.190624 -1.26607e-18)
(2.1087 0.119102 4.76774e-19)
(4.03732 0.352508 1.94036e-18)
(4.28768 0.432651 -2.34654e-18)
(4.28495 0.489272 2.06894e-18)
(4.15725 0.493324 0)
(4.25659 0.337123 0)
(4.26645 0.3223 -9.81895e-19)
(4.21432 0.316027 -1.59653e-18)
(2.22936 3.48866 6.20468e-19)
(1.9403 3.23304 -6.83448e-19)
(1.44761 2.35745 -1.03212e-18)
(1.18769 1.99775 2.669e-19)
(0.884767 1.37942 -2.62939e-18)
(0.794419 1.21641 9.22337e-19)
(0.601331 0.904701 -1.95642e-21)
(1.11577 1.78614 -1.13811e-18)
(1.14323 1.88346 1.69899e-18)
(0.975313 1.70126 5.06178e-19)
(0.78663 1.28953 -5.12795e-19)
(0.635891 1.07508 0)
(2.44761 2.60773 -1.1544e-19)
(0.705903 1.1446 8.57406e-19)
(0.928434 0.890258 1.15638e-18)
(0.75587 0.814025 1.33801e-18)
(1.08371 0.746907 1.34134e-18)
(1.46786 1.04488 -2.27058e-18)
(1.38388 1.07183 1.83968e-18)
(1.00242 0.765966 -6.76865e-19)
(0.817473 0.568305 1.49487e-18)
(1.61596 0.490862 -7.78146e-19)
(1.55948 0.508468 0)
(1.23991 0.40744 4.61112e-21)
(2.51048 1.51629 7.75626e-19)
(2.08095 1.2706 -2.80884e-18)
(1.68771 1.18498 9.1076e-21)
(1.66167 1.09281 0)
(2.86379 2.59546 8.73806e-19)
(3.44732 2.7521 1.0374e-18)
(3.25654 2.93033 -1.19588e-18)
(3.55437 2.76247 -4.28371e-19)
(3.48389 2.60206 -1.34897e-19)
(3.51228 2.79371 1.38791e-19)
(3.67503 2.26642 -1.67938e-18)
(3.70523 2.49144 4.00772e-19)
(3.78345 2.43476 0)
(3.78408 2.19054 -5.79718e-19)
(4.04919 1.07306 5.80563e-19)
(4.27584 0.992789 1.00219e-18)
(4.30036 0.966495 1.01168e-18)
(4.05526 1.32897 -1.14963e-18)
(4.1027 1.34919 0)
(4.15228 1.23316 0)
(3.32848 1.23566 -1.55927e-20)
(2.41839 0.666559 0)
(2.72252 0.744062 9.30683e-19)
(3.23891 0.88584 -2.64445e-20)
(3.77346 1.53441 5.10744e-18)
(3.57058 1.76169 1.31112e-18)
(3.48176 1.54037 -1.34069e-18)
(3.03836 1.36984 1.43746e-18)
(2.76174 1.36983 8.23807e-19)
(2.30758 1.15617 -7.9784e-19)
(3.6722 -0.0855548 1.98465e-18)
(3.8947 -0.0289451 0)
(3.85894 -0.0665608 1.34208e-18)
(3.74291 -0.0594199 -2.98779e-18)
(3.98056 0.0373603 1.46199e-18)
(3.90445 0.11341 -3.08298e-18)
(3.73987 0.128019 0)
(3.55626 0.17346 -6.28554e-19)
(3.81198 0.122971 1.60529e-18)
(3.69196 0.191375 -8.22567e-19)
(3.6003 0.17107 5.90722e-19)
(-0.0808943 2.58627 0)
(-0.0480348 3.39217 0)
(-0.032281 2.45667 0)
(-0.0218731 1.96662 0)
(0.0456277 3.93435 6.70194e-19)
(0.139772 3.71496 -1.72869e-19)
(0.31735 4.64081 -2.29597e-19)
(0.25265 4.45469 2.42463e-19)
(-0.0262493 4.28902 -4.97156e-19)
(0.0110285 4.32116 3.73338e-19)
(0.0950434 3.86261 2.23026e-20)
(0.00907859 3.54966 -4.66845e-19)
(-0.0131704 3.30209 -6.22236e-20)
(-0.040353 3.66484 -5.66903e-20)
(0.153189 4.48057 -5.86874e-19)
(0.178693 4.29537 0)
(0.275953 4.63844 2.96409e-19)
(0.268744 4.71015 2.53011e-19)
(0.597253 4.44798 -2.25983e-19)
(0.409984 3.78941 0)
(0.45918 3.63621 -1.11548e-18)
(0.562667 4.00501 7.90384e-19)
(0.481477 4.565 -6.14853e-19)
(0.371458 4.43818 3.30783e-19)
(0.300898 4.163 0)
(-0.0364161 4.76386 -5.52839e-19)
(-0.0759715 4.53286 -6.41375e-19)
(-0.077327 4.74329 0)
(-0.030004 4.36644 -6.25594e-21)
(-0.0199284 4.6462 2.74096e-19)
(-0.120346 3.87796 4.46775e-20)
(-0.0569727 3.48366 -6.53319e-19)
(-0.097526 3.92211 1.74179e-19)
(-0.137846 4.51461 2.32066e-19)
(-0.0778973 4.32408 0)
(-0.0620313 3.88384 0)
(-0.0834072 2.89928 2.00824e-19)
(-0.0495403 3.631 -6.26596e-20)
(-0.0746906 3.61789 0)
(-0.0891901 2.68703 1.58123e-19)
(-0.0470368 2.19459 -3.06377e-19)
(3.76101 0.0323186 0)
(3.73187 0.0077197 -2.03282e-19)
(4.17949 0.0679181 -1.43998e-18)
(4.08908 0.0462689 0)
(3.87629 0.0177836 0)
(4.14973 0.0370272 -1.25228e-20)
(4.1003 0.0349256 2.37898e-18)
(4.00011 0.0801819 2.84573e-18)
(3.75589 0.118644 0)
(3.55806 0.110032 0)
(4.01335 0.0939193 1.41751e-18)
(3.70329 0.116107 0)
(3.47215 0.128854 0)
(-0.0850696 4.69959 0)
(-0.111136 4.66739 1.0668e-20)
(-0.0815097 4.71912 6.30009e-20)
(-0.0635846 3.83202 0)
(-0.116362 4.53586 1.11192e-19)
(-0.0719969 4.24193 -6.33544e-20)
(-0.057457 3.93084 0)
(1.41366 4.18898 0)
(1.21073 4.57888 -1.29781e-18)
(1.22652 4.48868 0)
(1.57547 4.48489 1.48445e-18)
(1.59308 4.1157 0)
(1.50188 4.36777 -6.06584e-19)
(1.01332 2.24561 -3.39636e-20)
(0.710518 1.64782 -1.74553e-18)
(0.59164 1.22918 2.12963e-18)
(0.71035 1.83828 3.97045e-19)
(0.97726 2.42821 0)
(1.03861 2.38301 0)
(0.719776 1.69006 0)
(0.533368 1.33238 -1.39606e-18)
(1.21243 3.77927 -9.83746e-19)
(1.13151 2.99368 -2.35589e-19)
(1.33007 3.40932 1.92672e-19)
(0.600863 2.04529 0)
(0.621733 1.94642 0)
(0.463382 1.57438 -3.93013e-19)
(0.960038 2.72528 0)
(2.6887 3.57074 0)
(2.38345 3.0096 -1.45468e-18)
(2.54792 3.02764 -8.58783e-20)
(2.42211 3.40517 0)
(2.28811 3.15079 2.22129e-18)
(3.27888 3.08614 -3.89716e-19)
(3.13424 3.32342 0)
(3.11659 3.14971 6.30475e-19)
(2.8714 3.41219 0)
(2.88339 3.20075 0)
(1.21088 2.00837 -9.307e-19)
(1.41595 2.40556 -6.99676e-19)
(1.75606 2.98419 1.20615e-18)
(1.69834 2.96244 -3.62326e-19)
(1.06385 1.82419 0)
(1.2086 2.21092 4.71232e-19)
(0.719303 1.29006 -7.15465e-19)
(0.582327 1.0446 -5.77765e-22)
(1.94038 3.6981 0)
(2.20186 3.74401 -5.42607e-19)
(2.3405 3.98642 0)
(2.28455 0.529019 0)
(1.6177 0.341948 0)
(1.20931 0.276632 0)
(2.20966 0.554297 -1.46529e-18)
(1.63571 0.402259 8.17276e-19)
(2.14586 0.129111 -9.85175e-19)
(2.62691 0.297504 0)
(2.46598 0.301631 4.13494e-19)
(1.77012 0.135716 1.63302e-18)
(1.53046 0.0812681 -1.03705e-18)
(0.746151 1.55674 8.58216e-19)
(0.960698 1.82142 0)
(0.538059 1.44071 1.5612e-18)
(0.524362 1.61538 -1.42553e-18)
(0.757945 1.81518 -9.88566e-19)
(2.07541 2.46383 1.3379e-18)
(2.09895 2.71344 0)
(1.58495 1.6791 -2.76391e-19)
(2.01138 1.99047 1.74526e-18)
(1.36095 1.29337 -4.23639e-19)
(1.58983 1.31418 4.5076e-19)
(2.11093 1.51384 1.02329e-18)
(2.44415 1.6715 0)
(2.2776 1.85687 0)
(2.01132 1.6068 0)
(3.95691 2.07903 3.84544e-19)
(3.76042 1.88939 -1.26355e-18)
(3.81785 2.02754 1.04673e-18)
(3.90148 1.77095 -1.00832e-18)
(4.15778 1.67326 0)
(4.11676 1.84032 -2.97846e-19)
(2.84143 1.16342 -1.89737e-18)
(2.97171 1.16347 -2.41306e-18)
(2.33288 1.04375 1.45649e-18)
(2.13907 0.934634 -1.41992e-18)
(2.46427 0.846265 -1.17817e-18)
(2.17931 0.777102 1.4489e-18)
(4.00845 0.0334582 -1.52891e-18)
(4.05275 0.0406683 3.13024e-18)
(3.76796 -0.0658964 1.90092e-18)
(3.79118 -0.0737882 -2.2868e-18)
(3.95954 0.0105467 0)
(4.05603 0.0228502 -3.72985e-18)
(0.0954715 4.76194 1.06581e-19)
(0.0663374 4.73074 0)
(0.189215 4.73202 9.52939e-19)
(0.210757 4.74894 -8.66945e-19)
(0.23061 4.7156 4.28173e-19)
(0.121438 4.65492 0)
(-0.104903 4.77136 0)
(-0.11059 4.40283 -6.18545e-20)
(-0.109682 4.33226 5.54418e-20)
(-0.11848 4.48179 7.20855e-21)
(-0.109156 4.72147 -1.01126e-19)
(-0.0860003 4.70933 5.50481e-20)
(1.8785 4.01113 -1.64317e-18)
(1.81935 4.01816 1.7402e-18)
(1.68557 4.405 -8.54114e-19)
(1.69583 4.27884 7.61338e-20)
(2.25327 4.084 0)
(1.85471 4.21626 -6.35732e-19)
(1.98163 3.95578 6.16574e-19)
(1.82497 4.37792 8.34309e-19)
(2.07802 4.21829 0)
(2.22974 4.09899 0)
(1.14181 3.63588 1.49546e-18)
(0.829184 2.81693 2.02448e-18)
(0.957048 2.9951 -1.39037e-18)
(0.749144 2.97761 -2.32063e-19)
(0.905648 3.73694 4.66552e-19)
(0.72498 3.37009 -1.13467e-18)
(0.746927 1.46758 -1.21531e-18)
(0.747215 1.31844 0)
(0.603369 1.1158 -1.33577e-18)
(1.11256 2.0664 0)
(1.08964 2.15344 0)
(1.36002 2.19187 -1.09077e-18)
(1.06547 2.01522 -1.03618e-18)
(1.01782 2.03598 1.09888e-18)
(1.03217 1.51985 0)
(1.41169 1.76269 -6.01316e-19)
(1.62887 2.12014 -8.55525e-19)
(1.41227 2.08358 0)
(0.868681 1.81903 7.12591e-19)
(0.780537 1.67998 0)
(2.90766 2.28927 -1.84704e-18)
(3.31995 2.47045 2.60923e-18)
(3.27877 2.19301 -2.59335e-18)
(2.61183 2.02142 -2.31185e-19)
(2.72632 1.94068 -9.74183e-19)
(1.26317 2.19097 7.96304e-19)
(1.31742 2.246 -1.36014e-18)
(1.45564 2.33077 1.79304e-18)
(1.7922 2.56089 -1.16539e-18)
(1.89121 2.93414 -1.56737e-18)
(1.56492 2.49022 -1.18811e-19)
(1.63487 2.63005 1.37148e-18)
(1.81206 2.69461 9.66311e-20)
(2.0202 3.00038 6.50086e-19)
)
;

boundaryField
{
    wall-4
    {
        type            noSlip;
    }
    velocity-inlet-5
    {
        type            fixedValue;
        value           uniform (3 0 0);
    }
    velocity-inlet-6
    {
        type            fixedValue;
        value           uniform (0 1 0);
    }
    pressure-outlet-7
    {
        type            zeroGradient;
    }
    wall-8
    {
        type            noSlip;
    }
    frontAndBackPlanes
    {
        type            empty;
    }
}


// ************************************************************************* //
