/*--------------------------------*- C++ -*----------------------------------*\
  =========                 |
  \\      /  F ield         | OpenFOAM: The Open Source CFD Toolbox
   \\    /   O peration     | Website:  https://openfoam.org
    \\  /    A nd           | Version:  9
     \\/     M anipulation  |
\*---------------------------------------------------------------------------*/
FoamFile
{
    format      ascii;
    class       volScalarField;
    location    "16.8";
    object      p;
}
// * * * * * * * * * * * * * * * * * * * * * * * * * * * * * * * * * * * * * //

dimensions      [0 2 -2 0 0 0 0];

internalField   nonuniform List<scalar> 
918
(
23.4603
23.5928
0.971569
22.8776
1.00357
23.1092
3.29709
13.7891
19.2334
2.93979
2.63213
14.3994
20.6522
16.8936
13.0115
0.924202
14.0476
2.26608
18.4511
1.40304
13.0062
20.439
21.5277
19.2753
14.1132
14.3877
18.6145
1.16587
0.111539
0.266162
0.973754
0.408809
0.151128
21.6461
22.3227
22.2611
15.4862
10.4191
3.61773
3.82077
3.00775
2.83195
13.8307
13.9297
5.87531
13.7694
13.7662
16.6351
19.1015
19.2451
19.5383
19.3274
19.7137
5.97411
2.79465
2.61513
2.88241
2.95417
2.97403
2.70543
2.68556
2.4917
2.34579
13.8793
14.4725
14.5276
14.259
14.2067
22.4688
21.7118
22.0466
21.1529
21.2984
20.2283
19.8427
17.2692
17.6217
16.4955
16.1146
12.8019
12.7629
13.2315
13.4807
0.147548
1.07182
1.2197
14.0541
14.0901
14.0918
14.1068
8.30321
2.20982
2.21301
17.8914
17.4679
20.4728
20.74
20.187
20.0015
1.53805
1.53432
1.16225
1.18892
0.957303
13.3454
13.4984
19.2266
18.3936
14.1462
14.0465
14.1212
11.4926
13.9022
13.9758
15.3384
15.7938
14.9828
15.4194
18.1845
17.7665
19.051
19.4883
0.399443
0.157319
0.687858
0.319441
0.516994
15.3545
15.1492
15.6018
15.6529
15.8841
10.423
10.3514
10.399
10.3192
4.16539
4.47894
2.27855
2.59646
2.44579
9.88939
13.9451
13.9907
4.82362
5.52486
5.19069
6.35421
6.7275
16.0008
16.4373
16.1761
17.7224
16.9273
17.2755
19.8045
19.2937
19.5941
6.37126
6.60976
5.60788
5.24932
2.25657
2.49995
2.44313
2.98597
2.96384
3.20788
3.33963
2.69024
2.54751
2.89803
2.78269
2.83353
2.176
2.0454
13.6034
13.3895
14.1423
14.3208
15.0875
14.9392
14.6458
14.8146
19.0378
19.4412
19.4747
19.0906
11.5605
10.164
13.7351
14.0103
0.302771
0.26698
0.13717
0.379969
0.399887
0.141994
2.00976
1.82113
1.40135
1.67641
14.0508
14.0101
8.54477
8.76566
8.13888
7.88089
16.3055
16.4558
17.0899
16.6897
1.97187
1.68524
1.81488
13.6583
13.5327
13.6387
10.9281
10.3625
11.9699
12.2394
13.9851
14.0282
14.0244
15.698
16.0164
19.8391
20.1098
19.9367
20.3225
21.3853
21.0365
20.6518
14.5305
14.9388
14.7773
16.1192
15.7528
15.9723
15.1801
15.4848
15.3427
10.3823
10.4277
10.1407
10.2181
10.2646
10.2123
9.82688
9.69991
14.0748
14.0316
14.0546
7.25338
7.75054
4.86768
4.53823
12.5356
13.2086
12.8843
18.6675
17.9899
18.7228
18.352
17.902
18.2255
10.4379
10.398
10.4319
14.934
14.2722
14.6239
2.43127
2.06872
2.23199
8.96254
9.05535
6.98056
7.60197
7.26329
16.318
16.6584
17.3385
16.4503
16.9179
17.4252
17.2033
9.96258
10.0945
10.0115
9.68457
9.57783
9.73019
8.33376
8.94597
3.60602
4.26433
3.95965
9.22374
9.45437
9.30114
18.6213
19.1561
0.773599
1.16917
19.586
19.3097
0.142696
0.24127
14.2704
12.5667
7.26519
17.1884
16.6211
18.9608
3.1932
6.10491
2.81084
3.37845
2.68502
14.6063
14.2412
13.3326
0.4585
1.25612
1.71213
2.91147
18.4017
17.7265
18.8426
19.1627
19.2171
0.690783
0.921007
0.585699
1.2505
1.0368
1.28
15.5423
15.64
4.34226
18.8496
19.1538
19.1716
17.6483
18.601
17.6585
0.935184
0.641582
0.709599
10.0752
12.1148
14.2305
13.783
13.9802
14.0025
13.7535
14.8865
14.5562
14.521
15.0055
13.9667
13.8257
7.73219
6.3868
8.06816
7.70796
17.0897
16.6776
16.4847
16.2304
18.076
17.6021
18.4524
17.8408
18.3027
18.5895
2.9436
3.13357
3.01589
2.52823
6.14431
6.61494
5.48838
5.6353
4.25753
2.43554
2.53213
2.7547
2.58835
2.93054
2.67891
2.94119
2.57529
2.32257
2.3184
2.92801
2.73761
2.60161
14.5846
14.5232
14.3241
14.3622
14.3454
14.4609
13.527
13.9314
13.5591
12.3915
12.9716
12.4989
0.825855
0.657109
0.527306
1.32485
1.35141
1.11514
0.840918
1.18134
1.20398
0.824009
1.54509
1.45296
3.16589
2.66009
8.86226
7.98811
6.89781
16.7917
17.5935
16.7632
18.0039
18.4208
18.5262
18.1466
17.6385
15.7207
15.7158
15.376
15.3293
4.77792
3.74748
4.97569
4.54618
10.4928
14.0587
11.8356
10.7977
11.093
13.4149
13.9464
13.5972
13.7362
13.3089
12.8376
13.5312
13.064
13.1649
12.9427
15.7346
16.2098
15.8162
15.2367
15.2568
10.61
12.0161
5.47253
5.64374
7.23972
6.53664
13.5212
13.932
13.9158
13.5609
13.7508
13.7457
13.6069
13.7797
13.8631
13.7564
11.8166
10.1378
9.04099
9.03487
14.0725
12.3407
12.9263
12.4041
16.1114
16.6279
16.2426
15.6374
16.1223
15.5942
15.6212
15.8342
17.1926
16.9422
16.712
17.0988
3.0573
3.00503
3.64507
3.13955
3.0407
2.82892
3.48548
4.75491
4.41361
6.72019
7.26607
4.57625
3.37693
3.79117
4.80134
5.53765
5.51418
3.96944
4.50037
4.92537
4.43923
5.22589
4.72912
2.72132
3.02328
2.86302
2.83862
3.38081
3.87709
3.37312
2.48129
2.59399
2.26383
2.12702
3.5324
2.99493
3.03111
3.67646
1.10341
1.3272
1.44193
2.41443
1.91059
1.97493
15.1735
14.8175
14.9511
14.2302
14.298
14.2392
13.8633
15.2313
14.9534
15.0528
13.7015
13.7882
13.6016
13.8967
14.312
14.6113
15.4434
15.1644
14.4035
14.5547
14.2058
14.134
13.4565
12.893
12.8327
1.11125
0.819837
0.984685
0.917457
0.611794
0.80574
2.18083
1.57059
1.96925
1.72474
1.95722
1.41166
1.30262
4.25122
5.05161
3.96765
3.37286
3.08301
8.91868
9.03156
8.17629
7.8684
8.21137
8.4457
8.39573
7.14438
7.57717
7.38805
9.93797
9.60378
17.5778
17.522
17.1932
17.0343
17.2607
5.7618
7.6562
6.79625
7.91538
10.2203
10.5198
9.31485
8.71287
9.47021
9.54349
14.0406
14.1171
13.5568
14.0427
14.071
11.8262
12.8742
13.4881
13.302
13.8232
13.9047
12.9669
13.5548
13.468
12.7496
12.8037
12.1198
12.4577
11.9852
11.7851
14.0468
13.9418
14.2115
13.7622
14.1414
13.7064
14.0211
14.0197
14.3004
13.4017
12.8235
12.8427
13.2683
12.9676
13.3139
13.4773
9.30653
9.95222
10.3982
10.935
10.6447
10.4235
10.2906
10.5926
10.5714
10.8402
10.76
10.6089
11.5601
13.431
13.7145
13.8188
13.6073
13.6532
13.3463
13.6218
13.5492
13.9156
14.0053
14.0541
13.1363
13.2957
13.4943
13.376
11.6712
10.0829
9.94016
9.5008
7.57007
8.04267
11.0149
9.89601
8.91274
8.98298
12.1607
10.7981
11.6106
12.033
10.6851
10.2981
12.9639
13.7538
13.9732
13.6953
12.0513
12.1777
12.6277
13.0731
13.2638
13.7223
15.8515
16.4271
16.505
16.2291
16.0911
16.1908
15.9409
16.044
16.5181
16.6446
16.4758
2.88331
2.99529
2.92617
2.85203
3.08553
2.8623
3.95058
3.94039
3.15596
3.33603
3.35531
3.46363
2.93147
2.97435
4.82095
5.05581
5.32918
4.82999
6.17047
6.82313
7.40594
7.08613
5.785
5.86677
6.18448
3.50448
3.53101
3.24988
3.70395
3.7589
2.61459
2.24358
2.04641
2.56527
2.66704
2.05425
1.77518
1.82513
2.33445
2.05951
1.8126
14.9663
14.7247
14.746
14.5259
14.5805
14.9751
15.1959
15.0059
15.1442
15.1952
14.7945
14.6832
14.8543
1.82021
1.48757
1.62683
1.58508
1.63793
1.54953
1.73642
7.60948
6.40989
6.79509
5.97732
4.12162
4.64008
9.55734
9.9812
10.0195
9.73251
9.52026
9.88545
9.73796
9.73143
8.26872
9.34652
8.87636
9.28303
9.30396
9.37299
9.08153
9.07555
10.583
10.6146
9.47942
10.123
9.32563
7.92677
8.09378
9.1068
10.0806
10.4196
10.2616
9.98572
9.75798
10.1298
10.1837
10.2461
10.2362
8.75284
8.70796
8.30206
13.9625
13.8697
14.0165
14.0211
14.149
13.9704
13.8075
14.0851
14.1396
13.9235
11.0881
11.1487
11.3938
12.1447
12.1968
12.0961
11.3412
13.1101
12.7621
13.4049
13.349
13.4167
13.0036
12.8291
13.1024
10.0724
11.4441
10.9756
11.241
10.0558
9.30131
13.2182
13.2713
13.3394
13.6134
13.5687
14.154
15.8214
15.6913
15.7387
15.7817
15.3934
15.4306
4.17254
3.82663
4.54308
4.50188
4.06153
3.76354
2.28946
1.97239
1.78704
1.66005
1.88988
1.94881
8.15872
8.19077
6.32807
7.35489
5.88002
4.94082
4.79463
5.9536
7.1357
7.19874
8.52089
9.20668
8.76312
8.58984
7.92704
8.26023
10.1366
10.2291
10.1304
10.4492
9.98182
11.7242
11.3069
11.6562
13.2727
12.9786
12.38
12.2674
12.2336
12.8287
11.9412
11.1693
11.8841
12.5454
12.5026
11.1289
10.884
11.31
11.2908
10.204
10.7277
10.4895
10.8401
10.5516
)
;

boundaryField
{
    wall-4
    {
        type            zeroGradient;
    }
    velocity-inlet-5
    {
        type            zeroGradient;
    }
    velocity-inlet-6
    {
        type            zeroGradient;
    }
    pressure-outlet-7
    {
        type            fixedValue;
        value           uniform 0;
    }
    wall-8
    {
        type            zeroGradient;
    }
    frontAndBackPlanes
    {
        type            empty;
    }
}


// ************************************************************************* //
