/*--------------------------------*- C++ -*----------------------------------*\
  =========                 |
  \\      /  F ield         | OpenFOAM: The Open Source CFD Toolbox
   \\    /   O peration     | Website:  https://openfoam.org
    \\  /    A nd           | Version:  9
     \\/     M anipulation  |
\*---------------------------------------------------------------------------*/
FoamFile
{
    format      ascii;
    class       volScalarField;
    location    "9.26";
    object      epsilon;
}
// * * * * * * * * * * * * * * * * * * * * * * * * * * * * * * * * * * * * * //

dimensions      [0 2 -3 0 0 0 0];

internalField   nonuniform List<scalar> 
2268
(
8.11179e-05
0.000457429
0.000821307
0.00115327
0.00145315
0.0017211
0.00195725
0.00216262
0.00233997
0.00249352
0.00263315
0.00276033
0.0028714
0.00295027
0.00296388
0.00286436
0.00262663
0.00234036
0.00198515
0.00162649
0.00126517
0.000766512
0.000241214
0.000170292
0.000303131
0.000454786
0.000595904
0.000723144
0.000836138
0.000935265
0.00102137
0.00109572
0.00115994
0.00121705
0.00126699
0.00130849
0.00133666
0.00134201
0.00131235
0.00124253
0.00115
0.00102936
0.000882057
0.000707358
0.000514136
0.000388276
0.000292849
0.000314235
0.00041189
0.0005092
0.000598667
0.000678696
0.000749211
0.000810776
0.000864276
0.000910783
0.000951662
0.000986948
0.00101564
0.00103478
0.00103935
0.00102386
0.000986901
0.000933845
0.000862738
0.000775301
0.000677521
0.000589912
0.000659207
0.000414077
0.000349681
0.000417335
0.000492979
0.000564622
0.000629447
0.000686911
0.000737358
0.000781494
0.000820139
0.0008541
0.000883406
0.000907159
0.000923218
0.000928364
0.000919643
0.0008969
0.000862976
0.000818647
0.000768362
0.000723159
0.000716936
0.000977751
0.000531278
0.000393393
0.000439222
0.000500484
0.00056072
0.000615959
0.000665239
0.000708731
0.000747038
0.000780847
0.00081072
0.000836673
0.000857901
0.00087275
0.00087903
0.000875112
0.000861478
0.000840666
0.00081598
0.000795193
0.000796466
0.000875354
0.00137889
0.000645493
0.000441163
0.0004693
0.000519627
0.000571364
0.000619487
0.000662679
0.000700993
0.000734979
0.00076525
0.000792244
0.000815969
0.000835722
0.000850202
0.000857914
0.000858101
0.000851753
0.000841502
0.000832761
0.000837156
0.000883246
0.00106383
0.00195639
0.000758415
0.000491656
0.000504611
0.00054595
0.000590715
0.000632949
0.000671066
0.000705054
0.000735449
0.00076283
0.000787564
0.000809635
0.000828463
0.00084302
0.000852323
0.000856279
0.000856456
0.000855447
0.000859871
0.000885165
0.000971615
0.00127352
0.00296344
0.000871694
0.000544672
0.000544037
0.000577536
0.000616116
0.000653038
0.000686536
0.000716593
0.000743761
0.000768598
0.000791422
0.000812191
0.000830434
0.000845336
0.000856313
0.000863775
0.000869898
0.000877286
0.000892421
0.000932959
0.0010462
0.00145401
0.00513125
0.00040307
0.00133326
0.0022233
0.00264765
0.00283874
0.00293113
0.00290892
0.00283224
0.00267422
0.00248015
0.00218445
0.00177794
0.00150364
0.00145796
0.00129959
0.0010165
0.000655848
0.000348458
0.000101476
0.000472172
0.000748563
0.00103273
0.0011771
0.00125157
0.0012909
0.00129576
0.00127343
0.00122232
0.00114911
0.00105478
0.000938347
0.000825109
0.000743379
0.00065053
0.000529845
0.000378613
0.000241975
0.000175367
0.000654506
0.000716079
0.000859925
0.000935428
0.000976361
0.000997843
0.00100061
0.000985187
0.000951991
0.00090372
0.000838144
0.000761267
0.000684023
0.00061754
0.000547782
0.000463371
0.000361491
0.000278056
0.000295342
0.000791747
0.000767616
0.000831997
0.000866912
0.000886588
0.000896339
0.000894858
0.000880422
0.00085332
0.00081482
0.000761629
0.000700007
0.000638318
0.000581576
0.000523209
0.000456924
0.000381309
0.000331294
0.000423612
0.000986995
0.000865859
0.000855111
0.000853586
0.00085505
0.000855022
0.000849179
0.000834275
0.00080993
0.000776593
0.000731317
0.000679139
0.000626289
0.000575805
0.000524
0.000469005
0.000411824
0.000387079
0.000559746
0.00131149
0.00101137
0.000903814
0.000864624
0.000849262
0.000840599
0.000830684
0.000814935
0.000792123
0.000762156
0.000722731
0.000677445
0.000630469
0.000584383
0.000537069
0.000489805
0.000446031
0.000443464
0.000712514
0.00208096
0.00120308
0.000962566
0.000886728
0.000856578
0.00084049
0.000827009
0.000810442
0.000788756
0.0007614
0.000726632
0.000686662
0.000644032
0.000601201
0.000557556
0.000516211
0.000482385
0.000501235
0.000890821
0.00414898
0.00138752
0.00101418
0.000912067
0.000870748
0.000848724
0.00083233
0.00081516
0.000794591
0.000769586
0.000738655
0.000702878
0.000663704
0.000623384
0.000582934
0.000546168
0.000520276
0.000557599
0.00106698
0.00105338
0.000632234
0.000611654
0.000633822
0.000663143
0.000691972
0.000718423
0.000742548
0.000764938
0.000786114
0.000806319
0.000825447
0.000843144
0.000858854
0.000872472
0.000884984
0.000899182
0.00091811
0.000946733
0.00100051
0.00111637
0.00139915
0.00226774
0.00130074
0.000761984
0.000717712
0.000726101
0.000741808
0.000758488
0.000774656
0.000790594
0.000806808
0.000823685
0.000841343
0.000859514
0.000877665
0.000895359
0.000912772
0.000931022
0.000952498
0.000980245
0.00101683
0.0010696
0.00115677
0.00131368
0.00159985
0.00162806
0.000921496
0.000848987
0.000842364
0.000835055
0.000834053
0.000837154
0.000844089
0.000854097
0.000867215
0.000883516
0.00090236
0.000922521
0.000943185
0.00096461
0.000987739
0.00101397
0.00104507
0.00108113
0.00112642
0.00118828
0.001278
0.00139931
0.00214283
0.00112262
0.00102261
0.00100348
0.000943075
0.000918687
0.000902967
0.000899112
0.00090231
0.000911758
0.000927773
0.000949002
0.000972443
0.000996749
0.00102236
0.00105009
0.00107978
0.00111158
0.00114202
0.00117996
0.00122583
0.00128091
0.00135045
0.00255178
0.00130061
0.00118937
0.00109454
0.000992606
0.000974124
0.000954633
0.000942312
0.000942594
0.000952057
0.000969143
0.000992593
0.00101772
0.00104094
0.00106366
0.0010848
0.00110751
0.00113767
0.00117554
0.00121492
0.00124876
0.00129143
0.00135642
0.000949806
0.00130744
0.00113402
0.00105602
0.00100404
0.00100796
0.000988928
0.000973723
0.000970926
0.000978516
0.000995213
0.00101998
0.00104965
0.00107231
0.00108862
0.00110717
0.00113724
0.00116999
0.00120269
0.0012463
0.00127879
0.00130066
0.00134044
0.00146594
0.00117258
0.00107419
0.00103319
0.00100187
0.000995439
0.000982505
0.000978075
0.000983084
0.0009956
0.00101432
0.00103846
0.00106492
0.00108695
0.00110464
0.00112473
0.00115105
0.00118067
0.00120964
0.00124359
0.00127615
0.00129842
0.00132594
0.00159551
0.00114021
0.00103001
0.000996196
0.000978401
0.000972574
0.000973144
0.000979491
0.000991549
0.00100896
0.00103088
0.00105615
0.00108123
0.00110312
0.00112273
0.00114279
0.0011659
0.0011925
0.00122017
0.00124855
0.00127581
0.00129516
0.00130896
0.00165977
0.00113967
0.00101114
0.00097432
0.000963617
0.000963989
0.000971465
0.000984099
0.00100121
0.00102261
0.00104799
0.00107588
0.00110228
0.00112432
0.00114393
0.00116357
0.00118463
0.00120781
0.00123228
0.00125712
0.00128061
0.00129841
0.00130916
0.00169776
0.00114902
0.00100787
0.000966718
0.000958093
0.000962688
0.000974726
0.000991786
0.00101277
0.00103739
0.00106546
0.00109527
0.00112299
0.00114626
0.001167
0.0011875
0.00120825
0.00122964
0.00125178
0.00127407
0.00129522
0.00131282
0.00132507
0.00172276
0.00116031
0.00101205
0.000967481
0.000959058
0.000966032
0.00098119
0.00100156
0.00102566
0.00105295
0.00108296
0.00111409
0.00114343
0.00116913
0.00119238
0.00121492
0.00123701
0.00125864
0.00128019
0.00130161
0.0013222
0.00134077
0.00135594
0.00173987
0.00117174
0.00101988
0.000973108
0.00096449
0.000972904
0.000990323
0.00101329
0.00104005
0.00106972
0.00110149
0.00113407
0.00116557
0.00119456
0.0012213
0.00124683
0.0012714
0.00129491
0.00131777
0.00134028
0.00136215
0.00138275
0.00140106
0.00175177
0.00118377
0.00103044
0.000982254
0.000973423
0.000982872
0.00100212
0.00102731
0.00105652
0.00108849
0.0011223
0.00115694
0.00119115
0.00122393
0.00125486
0.00128421
0.00131226
0.00133897
0.00136476
0.00139006
0.00141477
0.00143842
0.00146013
0.00175982
0.00119819
0.00104412
0.000994646
0.00098555
0.000995857
0.00101675
0.00104406
0.00107569
0.00111015
0.00114651
0.00118392
0.00122146
0.00125834
0.00129395
0.00132801
0.00136057
0.00139171
0.00142184
0.00145135
0.00148019
0.00150788
0.00153365
0.00176453
0.00121805
0.00106159
0.0010103
0.00100082
0.00101193
0.00103445
0.00106396
0.00109815
0.00113547
0.00117499
0.00121592
0.00125749
0.00129899
0.00133976
0.00137936
0.00141754
0.00145436
0.00149017
0.00152524
0.00155947
0.00159236
0.00162314
0.00176308
0.00125598
0.00108371
0.00102915
0.00101924
0.0010312
0.00105549
0.0010874
0.00112449
0.0011652
0.00120856
0.0012538
0.00130019
0.00134708
0.0013938
0.0014398
0.00148474
0.00152857
0.00157145
0.00161351
0.00165453
0.00169398
0.00173108
0.00176286
0.00129337
0.00110849
0.00105114
0.00104088
0.00105385
0.00108013
0.0011148
0.0011553
0.00120004
0.00124802
0.00129843
0.00135059
0.00140383
0.00145753
0.00151109
0.0015641
0.00161635
0.00166783
0.00171845
0.00176788
0.0018155
0.00186048
0.00176712
0.00131929
0.0011365
0.00107635
0.00106585
0.00108011
0.00110873
0.00114665
0.00119121
0.00124075
0.00129421
0.0013508
0.00140983
0.00147065
0.00153262
0.00159515
0.00165774
0.00172006
0.00178186
0.00184283
0.00190253
0.0019602
0.00201491
0.00176697
0.00136204
0.00116799
0.0011048
0.00109435
0.00111026
0.00114171
0.0011835
0.00123286
0.00128807
0.00134805
0.001412
0.00147922
0.00154906
0.0016209
0.0016941
0.00176809
0.00184239
0.00191653
0.00198997
0.0020621
0.00213202
0.00219864
0.00176126
0.00142689
0.0012029
0.00113669
0.0011266
0.00114464
0.00117954
0.00122591
0.00128092
0.00134283
0.00141053
0.0014832
0.00156017
0.00164079
0.00172439
0.00181031
0.00189789
0.00198647
0.00207537
0.00216382
0.00225095
0.00233571
0.00241682
0.00176344
0.00146927
0.00124113
0.00117218
0.00116287
0.0011836
0.00122264
0.00127444
0.00133611
0.00140592
0.00148273
0.00156576
0.00165431
0.00174775
0.00184539
0.0019465
0.00205031
0.00215596
0.00226255
0.00236905
0.0024743
0.00257704
0.00267574
0.00176494
0.00152044
0.00128296
0.00121149
0.00120341
0.00122749
0.00127148
0.0013297
0.0013992
0.00147829
0.00156586
0.00166113
0.00176345
0.00187216
0.00198656
0.00210583
0.00222905
0.00235518
0.00248303
0.00261128
0.00273844
0.00286295
0.00298298
0.00176473
0.00158052
0.00132861
0.00125483
0.00124849
0.00127663
0.00132651
0.00139228
0.00147097
0.00156096
0.0016612
0.00177096
0.00188961
0.00201652
0.00215093
0.00229194
0.00243847
0.00258922
0.00274271
0.00289724
0.00305092
0.00320182
0.0033477
0.0017629
0.00165354
0.00137798
0.0013023
0.00129832
0.00133136
0.00138818
0.0014628
0.00155227
0.00165503
0.00177018
0.00189705
0.00203508
0.00218366
0.002342
0.00250908
0.00268364
0.00286409
0.00304857
0.00323492
0.00342076
0.00360367
0.00378088
0.00746522
0.00172591
0.00143133
0.00135402
0.00135307
0.00139196
0.00145691
0.00154187
0.00164394
0.00176166
0.00189428
0.00204133
0.00220234
0.00237673
0.00256369
0.0027621
0.00297043
0.00318677
0.00340878
0.00363377
0.00385872
0.00408048
0.00429568
0.00176721
0.00177884
0.00148848
0.00141
0.00141288
0.00145866
0.00153309
0.00163007
0.00174679
0.00188199
0.00203513
0.00220592
0.0023941
0.00259921
0.0028204
0.00305644
0.00330553
0.00356532
0.00383292
0.00410489
0.00437743
0.00464649
0.00490786
0.00176604
0.0018581
0.00154943
0.00147023
0.00147779
0.00153163
0.00161704
0.0017279
0.0018616
0.00201713
0.00219424
0.00239295
0.00261324
0.00285481
0.0031169
0.00339817
0.00369648
0.00400898
0.00433204
0.00466133
0.00499196
0.00531874
0.00563631
0.00747058
0.00195328
0.00161356
0.00153454
0.00154777
0.00161094
0.00170896
0.00183577
0.00198902
0.00216807
0.00237308
0.00260448
0.00286261
0.00314744
0.00345835
0.0037939
0.00415167
0.0045282
0.00491897
0.00531839
0.00572019
0.00611764
0.00650382
0.00176659
0.0020258
0.00168094
0.00160273
0.00162266
0.00169655
0.00180893
0.00195391
0.00212951
0.00233559
0.00257286
0.00284233
0.00314485
0.00348083
0.00384991
0.00425065
0.00468035
0.00513485
0.00560848
0.00609413
0.00658357
0.00706794
0.00753818
0.00176864
0.00210171
0.00175069
0.00167434
0.00170216
0.00178823
0.00191685
0.00208235
0.00228327
0.00252015
0.00279443
0.00310791
0.0034622
0.00385838
0.00429656
0.00477552
0.00529236
0.00584215
0.0064178
0.00701013
0.00760821
0.00820018
0.00877388
0.00747198
0.00220498
0.00182247
0.00174879
0.00178582
0.00188566
0.00203242
0.00222083
0.00245013
0.00272171
0.00303803
0.00340195
0.00381617
0.00428279
0.00480281
0.00537555
0.00599814
0.00666492
0.00736706
0.00809251
0.0088265
0.00955272
0.0102546
0.00176712
0.00227661
0.00189438
0.00182532
0.00187315
0.00198839
0.00215515
0.00236877
0.0026294
0.00293956
0.00330304
0.00372413
0.0042071
0.00475562
0.00537218
0.00605731
0.00680865
0.00761999
0.00848036
0.00937371
0.0102796
0.011175
0.0120367
0.00748845
0.00235796
0.00196491
0.00190331
0.0019638
0.00209601
0.00228442
0.00252524
0.00281982
0.00317215
0.00358772
0.00407276
0.00463373
0.00527672
0.0060067
0.00682646
0.00773516
0.0087265
0.00978696
0.0108948
0.0120209
0.0131319
0.0141944
0.00746804
0.00242275
0.00203335
0.00198286
0.00205791
0.00220837
0.00241957
0.00268896
0.00301944
0.00341686
0.00388886
0.00444427
0.0050926
0.00584351
0.006706
0.00768693
0.00878869
0.010006
0.0113225
0.0127082
0.0141208
0.0155099
0.0168262
0.00176832
0.00246729
0.00210213
0.00206562
0.00215672
0.00232595
0.00256006
0.00285827
0.00322548
0.00366978
0.00420152
0.00483282
0.00557737
0.00645007
0.00746621
0.00863952
0.0099786
0.0114814
0.0131291
0.0148802
0.0166713
0.0184246
0.0200644
0.00176777
0.00251842
0.00217395
0.00215601
0.00226373
0.00245045
0.0027057
0.00303119
0.00343423
0.00392555
0.00451866
0.00522978
0.00607812
0.00708596
0.00827805
0.0096792
0.0113091
0.0131736
0.0152531
0.0174914
0.019792
0.0220304
0.0240856
0.00176593
0.00256989
0.00226306
0.00226634
0.00238686
0.00258556
0.00285672
0.00320521
0.00364089
0.00417717
0.00483098
0.00562339
0.00658057
0.00773473
0.00912414
0.0107907
0.0127729
0.0150929
0.0177369
0.0206325
0.023634
0.0265344
0.0291283
0.0074751
0.00266111
0.00241486
0.00242606
0.00254157
0.00273737
0.00301342
0.00337692
0.00383924
0.00441582
0.00512683
0.00599857
0.00706546
0.00837228
0.0099755
0.0119416
0.0143395
0.0172227
0.0205996
0.0243902
0.0283816
0.0322189
0.0355174
0.00176601
0.00307669
0.002774
0.00269983
0.00275333
0.00291308
0.00317463
0.00354096
0.00402126
0.00463093
0.00539241
0.0063371
0.00750838
0.00896567
0.010788
0.0130747
0.0159396
0.0194922
0.0237983
0.0288079
0.0342436
0.0394891
0.0437102
0.0134206
0.00557549
0.00378657
0.0032139
0.0030532
0.00311481
0.00333398
0.00368843
0.00417663
0.0048103
0.00561242
0.00661858
0.00788082
0.00947364
0.0115008
0.0141007
0.0174468
0.0217367
0.0271569
0.0337915
0.0414053
0.048997
0.0543757
0.142241
0.0219527
0.00689303
0.00416154
0.00344773
0.0033242
0.00347409
0.00380514
0.00429278
0.00494098
0.00577139
0.00682234
0.00815282
0.00985024
0.0120407
0.0149008
0.0186693
0.0236574
0.0302527
0.0388841
0.0498008
0.0620245
0.0685204
1.53659
0.122384
0.0154533
0.00553132
0.00382468
0.00347948
0.00356264
0.00387217
0.00435623
0.00501077
0.00585563
0.0069303
0.00829768
0.0100528
0.0123355
0.0153473
0.0193741
0.0248234
0.0323001
0.0427809
0.0580475
0.0818012
0.0875491
0.00595029
0.00486444
0.00482863
0.00573409
0.00193568
0.00196843
0.00195772
0.00190435
0.00147886
0.00150001
0.00149264
0.0014575
0.00139475
0.00140588
0.00139732
0.00136868
0.00141017
0.00141824
0.00138853
0.0013505
0.00137696
0.00139271
0.00136613
0.00133311
0.00134818
0.00134885
0.00133443
0.0013126
0.00131665
0.00131594
0.00130895
0.00129828
0.00131277
0.00131265
0.00130995
0.00130539
0.00132979
0.00133121
0.00133119
0.00132994
0.00136343
0.00136676
0.00136876
0.00136959
0.0014117
0.00141717
0.00142123
0.00142395
0.0014738
0.00148143
0.00148768
0.00149249
0.00155043
0.00156016
0.00156861
0.00157569
0.00164359
0.0016557
0.00166662
0.00167623
0.00175607
0.0017711
0.00178495
0.0017975
0.00189111
0.00190971
0.00192711
0.00194317
0.00205247
0.00207545
0.00209714
0.00211742
0.00224467
0.00227298
0.00229989
0.00232527
0.00247316
0.00250795
0.00254119
0.00257273
0.00274458
0.00278723
0.00282813
0.00286712
0.00306697
0.00311913
0.00316929
0.00321728
0.00345002
0.00351367
0.00357503
0.00363387
0.00390537
0.00398292
0.00405778
0.0041297
0.00444701
0.00454135
0.0046325
0.00472017
0.00509169
0.00520631
0.00531712
0.00542374
0.00585953
0.00599871
0.00613323
0.00626265
0.0067749
0.00694381
0.00710697
0.00726381
0.00786753
0.00807254
0.00827031
0.00846017
0.00917438
0.00942327
0.00966287
0.00989241
0.0107422
0.0110444
0.0113346
0.0116116
0.0126312
0.0129982
0.0133492
0.0136829
0.01492
0.0153657
0.0157894
0.0161899
0.0177127
0.0182531
0.0187629
0.0192409
0.0211471
0.0218004
0.0224102
0.0229757
0.0254059
0.0261913
0.0269137
0.027574
0.030731
0.0316657
0.0325085
0.033264
0.0374438
0.0385364
0.0394948
0.0403313
0.0459746
0.0472084
0.0482498
0.0491266
0.0569
0.0581957
0.0592317
0.0600625
0.0709623
0.0721048
0.0729497
0.0735847
0.0889446
0.0894926
0.0898489
0.0900925
0.00212629
0.00132462
0.00105644
0.000948734
0.000897756
0.000869288
0.000849602
0.000832037
0.000813541
0.000792286
0.000766332
0.000735751
0.000701065
0.000663991
0.000627517
0.000595839
0.000580346
0.000639727
0.00127342
0.0015365
0.00124154
0.00107916
0.000990242
0.000939711
0.000908982
0.000888015
0.000871353
0.000855993
0.000839434
0.000818445
0.000792355
0.000761652
0.000727363
0.000693405
0.000664742
0.000655938
0.000729108
0.00142801
0.00135243
0.00120743
0.00110043
0.0010294
0.000983881
0.000954452
0.000934173
0.000919036
0.000906718
0.000894505
0.000877776
0.000855213
0.000827918
0.000795743
0.000762913
0.000736636
0.000733104
0.000819095
0.00156625
0.00130259
0.00120716
0.001128
0.0010698
0.00102996
0.00100325
0.000984445
0.000971122
0.000962134
0.000955116
0.000942121
0.000922141
0.000898657
0.000867472
0.000834566
0.000811709
0.000818047
0.000943397
0.00207412
0.00128587
0.00121154
0.00115415
0.0011093
0.00107682
0.00105387
0.00103622
0.00102398
0.00101657
0.00101022
0.000997766
0.000986411
0.000975944
0.000933781
0.000898246
0.000874799
0.00089126
0.0010322
0.00204099
0.00128241
0.00121973
0.00117372
0.0011402
0.00111745
0.00109893
0.00108221
0.00107079
0.00106587
0.00106175
0.00105161
0.00104381
0.00103265
0.000992883
0.000963074
0.000938337
0.00095085
0.00108452
0.000718101
0.00127645
0.00123184
0.00119741
0.00116887
0.00114885
0.0011319
0.00111504
0.00110268
0.0010967
0.00109391
0.001095
0.00110775
0.00110481
0.00104237
0.00100076
0.00097731
0.000983183
0.00104801
0.00111742
0.00127839
0.00124778
0.00122119
0.0011975
0.00117844
0.00116169
0.00114562
0.00113237
0.00112378
0.00111985
0.0011217
0.00112866
0.00111753
0.00106682
0.00102166
0.000996824
0.00101077
0.00113552
0.00115681
0.00129562
0.00127537
0.00125372
0.00123383
0.00121679
0.00120059
0.00118423
0.00116886
0.00115659
0.00114771
0.00114142
0.00113292
0.00111223
0.00107779
0.00104177
0.0010171
0.00103062
0.00116975
0.0011564
0.00132592
0.00131337
0.00129612
0.0012796
0.00126479
0.00124889
0.00123109
0.00121297
0.00119636
0.00118149
0.00116644
0.00114581
0.00111656
0.00108661
0.00105678
0.00103307
0.00103942
0.00114614
0.00115664
0.00136901
0.00136172
0.00134892
0.0013353
0.0013218
0.00130591
0.00128696
0.00126651
0.00124575
0.00122486
0.00120233
0.00117392
0.00113826
0.00110371
0.00107262
0.0010491
0.00105177
0.00113087
0.0011588
0.00142625
0.00142279
0.00141384
0.00140244
0.00138957
0.00137379
0.00135436
0.00133211
0.00130784
0.00128176
0.00125311
0.00121941
0.00117924
0.00113821
0.00110213
0.00107689
0.00107904
0.00115926
0.00489226
0.00149803
0.00149859
0.00149321
0.00148402
0.001472
0.00145644
0.00143667
0.00141296
0.00138583
0.00135557
0.00132209
0.00128447
0.00124161
0.00119595
0.0011545
0.00112774
0.00113202
0.00120051
0.00115789
0.00158499
0.00159051
0.00158936
0.0015831
0.00157258
0.00155755
0.00153756
0.00151267
0.00148321
0.0014496
0.00141217
0.00137116
0.00132655
0.00127915
0.00123484
0.00120866
0.00121839
0.00130132
0.00488797
0.00168979
0.00170112
0.0017051
0.00170269
0.00169452
0.00168062
0.00166078
0.00163506
0.00160376
0.00156738
0.00152657
0.00148221
0.00143539
0.00138739
0.00134318
0.00131868
0.00133675
0.00145301
0.00112654
0.00181597
0.00183397
0.00184393
0.00184628
0.00184141
0.00182943
0.00181033
0.00178425
0.00175154
0.00171279
0.00166891
0.00162116
0.00157134
0.00152188
0.00147813
0.00145446
0.00147723
0.0016203
0.00113809
0.00196742
0.00199312
0.00201004
0.00201814
0.00201756
0.00200839
0.00199074
0.00196483
0.00193107
0.00189021
0.00184332
0.00179202
0.00173862
0.00168657
0.00164222
0.00161968
0.00165054
0.00183982
0.00115944
0.00214856
0.00218333
0.0022084
0.00222338
0.00222817
0.00222278
0.00220734
0.0021821
0.0021476
0.00210467
0.0020546
0.0019993
0.00194159
0.00188582
0.00183971
0.00181911
0.00186198
0.00209088
0.00116107
0.00236469
0.00241022
0.00244494
0.00246816
0.00247954
0.00247895
0.00246648
0.00244242
0.00240736
0.00236223
0.00230852
0.00224843
0.00218527
0.0021243
0.00207474
0.00205526
0.00211208
0.00241122
0.00491581
0.00262215
0.00268058
0.0027268
0.00275987
0.00277921
0.00278454
0.00277586
0.00275345
0.0027179
0.00267026
0.00261218
0.00254613
0.00247593
0.00240771
0.00235225
0.00233148
0.00240112
0.00277272
0.00518726
0.00292862
0.00300253
0.00306251
0.00310736
0.00313626
0.00314876
0.00314475
0.00312443
0.00308841
0.00303779
0.00297434
0.00290083
0.00282157
0.00274354
0.00267915
0.00265357
0.0027309
0.0031546
0.00595095
0.00329336
0.00338588
0.00346233
0.00352124
0.00356157
0.00358268
0.0035843
0.00356656
0.00353002
0.00347581
0.00340581
0.00332305
0.00323232
0.00314156
0.00306489
0.00303109
0.00311325
0.00358929
0.00684029
0.00372753
0.00384239
0.00393854
0.00401421
0.00406814
0.0040995
0.00410786
0.00409326
0.00405616
0.00399769
0.00391981
0.00382576
0.00372087
0.00361409
0.00352155
0.00347639
0.00356276
0.00410221
0.00789154
0.00424452
0.00438616
0.00450581
0.00460142
0.00467148
0.004715
0.00473142
0.00472062
0.004683
0.0046196
0.00453242
0.00442489
0.00430285
0.00417641
0.004064
0.00400351
0.00409185
0.00469998
0.00907978
0.00486042
0.00503409
0.0051817
0.00530092
0.00539006
0.00544797
0.00547398
0.00546786
0.00542989
0.005361
0.00526313
0.00513989
0.00499762
0.00484754
0.00471046
0.00462967
0.00471603
0.005394
0.0104085
0.00559453
0.00580641
0.00598718
0.00613426
0.00624585
0.00632072
0.00635817
0.00635786
0.00631996
0.00624524
0.00613559
0.00599459
0.00582893
0.0056509
0.00548387
0.00537694
0.00545609
0.0062026
0.0118767
0.00647007
0.00672743
0.00694737
0.00712717
0.00726503
0.00735981
0.00741085
0.00741784
0.00738084
0.00730046
0.00717831
0.00701786
0.00682595
0.00661582
0.00641344
0.0062743
0.00634129
0.00715899
0.0135543
0.00751514
0.00782647
0.00809246
0.00831044
0.0084788
0.00859676
0.00866393
0.00868015
0.00864543
0.00856016
0.00842558
0.00824481
0.00802461
0.00777894
0.00753645
0.00735985
0.00741233
0.00831664
0.015603
0.00876404
0.00913913
0.00945888
0.00972095
0.0099244
0.0100691
0.0101553
0.0101831
0.0101527
0.0100643
0.00991851
0.00971794
0.00946894
0.00918589
0.0089001
0.00868265
0.00872208
0.00974277
0.0182017
0.010259
0.010709
0.0110909
0.0114033
0.0116465
0.0118216
0.0119299
0.0119722
0.011949
0.0118602
0.0117062
0.0114884
0.0112126
0.0108931
0.0105636
0.0103047
0.0103362
0.0115125
0.0214898
0.0120527
0.0125898
0.0130425
0.0134114
0.0136987
0.0139077
0.0140411
0.0141011
0.0140887
0.0140041
0.0138468
0.0136175
0.0133206
0.0129698
0.0126008
0.0123043
0.0123369
0.0137119
0.025567
0.0142118
0.0148487
0.0153805
0.0158109
0.0161456
0.0163909
0.0165521
0.0166332
0.0166362
0.0165616
0.0164088
0.0161776
0.0158706
0.0155004
0.0151038
0.0147814
0.0148316
0.0164587
0.0306207
0.0168208
0.0175696
0.0181868
0.0186816
0.0190651
0.0193477
0.0195383
0.0196434
0.0196668
0.0196099
0.0194725
0.0192535
0.0189547
0.0185869
0.0181869
0.0178649
0.0179649
0.0199215
0.0369564
0.0199878
0.0208575
0.0215625
0.0221209
0.0225509
0.0228692
0.023089
0.0232202
0.0232691
0.0232388
0.0231302
0.0229432
0.0226795
0.0223492
0.0219897
0.0217194
0.0219324
0.0243398
0.045017
0.0238501
0.0248433
0.0256318
0.0262466
0.0267163
0.027065
0.0273112
0.0274688
0.0275472
0.0275526
0.0274885
0.0273578
0.0271654
0.0269248
0.0266772
0.0265519
0.0269977
0.0300568
0.0554287
0.0285804
0.0296883
0.0305456
0.0312015
0.0316977
0.0320666
0.0323328
0.0325144
0.0326245
0.032673
0.0326686
0.0326208
0.0325434
0.032462
0.0324335
0.0326112
0.0335127
0.0375765
0.0691144
0.0343935
0.0355892
0.0364859
0.0371572
0.0376593
0.0380331
0.0383087
0.0385081
0.038648
0.0387434
0.0388097
0.0388677
0.038949
0.039107
0.0394408
0.0401678
0.041929
0.04768
0.0877977
0.041551
0.0427807
0.0436698
0.0443194
0.0447994
0.0451577
0.0454278
0.0456342
0.0457969
0.0459353
0.0460736
0.0462475
0.046516
0.0469823
0.0478341
0.0494454
0.0527487
0.0615514
0.11467
0.0503633
0.0515386
0.052354
0.0529346
0.053359
0.0536773
0.0539233
0.0541214
0.0542928
0.0544603
0.0546555
0.0549297
0.0553746
0.0561617
0.0576248
0.0604527
0.0662757
0.0807653
0.155575
0.0611845
0.06218
0.062841
0.0633005
0.063634
0.0638866
0.0640873
0.0642574
0.0644163
0.0645867
0.0648029
0.065125
0.0656682
0.0666659
0.0686199
0.0726878
0.0818786
0.106476
0.223018
0.074396
0.0750645
0.0754905
0.0757815
0.075993
0.0761559
0.0762899
0.0764094
0.0765282
0.0766641
0.0768454
0.0771245
0.0776078
0.0785286
0.0804453
0.0848476
0.0963991
0.134605
0.346853
0.0903821
0.0906038
0.0907409
0.0908341
0.0909028
0.0909575
0.0910047
0.0910496
0.0910973
0.0911549
0.0912346
0.091359
0.0915759
0.0919962
0.0929136
0.0952602
0.102825
0.139021
0.578816
)
;

boundaryField
{
    leftWall
    {
        type            epsilonWallFunction;
        value           nonuniform List<scalar> 
50
(
8.11179e-05
0.000170292
0.000292849
0.000414077
0.000531278
0.000645493
0.000758415
0.000871694
0.00105338
0.00130074
0.00162806
0.00214283
0.00255178
0.000949806
0.00146594
0.00159551
0.00165977
0.00169776
0.00172276
0.00173987
0.00175177
0.00175982
0.00176453
0.00176308
0.00176286
0.00176712
0.00176697
0.00176126
0.00176344
0.00176494
0.00176473
0.0017629
0.00746522
0.00176721
0.00176604
0.00747058
0.00176659
0.00176864
0.00747198
0.00176712
0.00748845
0.00746804
0.00176832
0.00176777
0.00176593
0.0074751
0.00176601
0.0134206
0.142241
1.53659
)
;
    }
    rightWall
    {
        type            epsilonWallFunction;
        value           nonuniform List<scalar> 
50
(
0.000101476
0.000175367
0.000295342
0.000423612
0.000559746
0.000712514
0.000890821
0.00106698
0.00127342
0.00142801
0.00156625
0.00207412
0.00204099
0.000718101
0.00111742
0.00115681
0.0011564
0.00115664
0.0011588
0.00489226
0.00115789
0.00488797
0.00112654
0.00113809
0.00115944
0.00116107
0.00491581
0.00518726
0.00595095
0.00684029
0.00789154
0.00907978
0.0104085
0.0118767
0.0135543
0.015603
0.0182017
0.0214898
0.025567
0.0306207
0.0369564
0.045017
0.0554287
0.0691144
0.0877977
0.11467
0.155575
0.223018
0.346853
0.578816
)
;
    }
    lowerWall
    {
        type            epsilonWallFunction;
        value           nonuniform List<scalar> 
62
(
8.11179e-05
0.000457429
0.000821307
0.00115327
0.00145315
0.0017211
0.00195725
0.00216262
0.00233997
0.00249352
0.00263315
0.00276033
0.0028714
0.00295027
0.00296388
0.00286436
0.00262663
0.00234036
0.00198515
0.00162649
0.00126517
0.000766512
0.000241214
0.000241214
0.000388276
0.000659207
0.000977751
0.00137889
0.00195639
0.00296344
0.00513125
0.00595029
0.00486444
0.00482863
0.00573409
0.00040307
0.000472172
0.000654506
0.000791747
0.000986995
0.00131149
0.00208096
0.00414898
0.00040307
0.00133326
0.0022233
0.00264765
0.00283874
0.00293113
0.00290892
0.00283224
0.00267422
0.00248015
0.00218445
0.00177794
0.00150364
0.00145796
0.00129959
0.0010165
0.000655848
0.000348458
0.000101476
)
;
    }
    atmosphere
    {
        type            inletOutlet;
        inletValue      uniform 0.1;
        value           nonuniform List<scalar> 
46
(
0.1
0.122384
0.0154533
0.00553132
0.00382468
0.00347948
0.00356264
0.00387217
0.00435623
0.00501077
0.00585563
0.0069303
0.00829768
0.0100528
0.0123355
0.0153473
0.0193741
0.0248234
0.0323001
0.0427809
0.0580475
0.1
0.1
0.1
0.1
0.1
0.1
0.1
0.1
0.1
0.1
0.1
0.1
0.1
0.1
0.1
0.1
0.1
0.1
0.1
0.1
0.1
0.1
0.1
0.1
0.578816
)
;
    }
    defaultFaces
    {
        type            empty;
    }
}


// ************************************************************************* //
