/*--------------------------------*- C++ -*----------------------------------*\
  =========                 |
  \\      /  F ield         | OpenFOAM: The Open Source CFD Toolbox
   \\    /   O peration     | Website:  https://openfoam.org
    \\  /    A nd           | Version:  9
     \\/     M anipulation  |
\*---------------------------------------------------------------------------*/
FoamFile
{
    format      ascii;
    class       volScalarField;
    location    "6.79";
    object      alpha.water;
}
// * * * * * * * * * * * * * * * * * * * * * * * * * * * * * * * * * * * * * //

dimensions      [0 0 0 0 0 0 0];

internalField   nonuniform List<scalar> 
2268
(
1
1
0.999999
0.999999
1
0.999999
0.999999
0.999999
0.999998
0.999998
1
1
1
1
1
1
1
1
0.998853
0.997008
0.997097
0.999222
0.999213
0.999999
1
0.999998
0.999998
1
1
0.999998
0.999998
0.999998
0.999999
1
1
1
1
1
0.999998
0.999995
1
0.999298
0.997008
0.999548
0.999993
0.999992
0.999998
0.999998
0.999998
0.999999
1
1
1
0.999999
1
1
1
1
1
1
1
0.999986
0.999978
0.999989
0.999953
0.999207
0.999982
0.999993
0.999991
0.999999
0.999999
1
1
1
1
1
1
1
1
1
1
1
1
1
1
0.999182
0.999992
0.999992
0.999992
0.999991
0.999744
0.999991
1
1
1
1
1
1
1
1
1
1
1
1
1
1
1
1
0.998486
0.994954
0.999992
0.999992
0.99917
0.998968
0.999996
1
1
1
1
1
1
1
1
1
1
1
1
1
1
1
1
0.999414
0.982565
0.983269
0.988888
0.985422
0.996543
0.999997
1
1
1
1
1
1
1
0.999999
0.999999
1
1
1
1
1
1
1
0.999946
0.985241
0.980706
0.980706
0.980715
0.997752
0.999999
1
1
1
0.999999
0.999999
0.999999
0.999999
0.999999
0.999999
0.999999
0.999999
0.999999
1
1
1
1
1
0.998209
0.980706
0.980706
0.990407
0.999907
0.999999
0.991824
0.997481
0.998155
0.997988
0.997335
0.993294
0.99277
0.99277
0.993157
0.992209
0.992109
0.993446
0.993507
0.997168
0.998644
0.998644
0.998641
0.998408
0.998314
0.991822
0.999739
0.999982
0.999982
0.999982
0.999982
0.999781
0.999741
0.999789
0.999789
0.997476
0.998054
0.994994
0.996266
0.998644
0.998644
0.998644
0.998644
0.998644
0.991823
0.998499
0.999975
0.999976
0.999982
0.999959
0.999959
0.999959
0.999777
0.99968
0.999623
0.999633
0.9991
0.998744
0.997658
0.998644
0.998644
0.998644
0.994651
0.994363
0.999664
0.999948
0.999948
0.99999
0.99996
0.999765
0.999661
0.999017
0.997587
0.999623
0.999633
0.999633
0.999632
0.995775
0.998644
0.998644
0.996299
0.994496
0.999914
0.999997
0.999997
0.999993
0.999991
0.999856
0.9994
0.9994
0.999681
0.99608
0.999633
0.999633
0.999633
0.997064
0.992497
0.997844
0.994467
0.994465
0.994495
0.999994
0.999996
0.999997
0.999992
0.999962
0.999888
0.999825
0.999892
0.999889
0.991372
0.992266
0.999633
0.999633
0.965157
0.995289
0.995487
0.985708
0.998007
0.998155
0.999996
0.999996
0.999997
0.999971
0.999956
0.99997
0.999978
0.999978
0.999929
0.984631
0.960318
0.971994
0.964034
0.961429
0.997764
0.997657
0.983838
0.998437
0.998437
0.999998
0.999998
0.999997
0.999997
0.999997
0.999995
0.999964
0.999576
0.999108
0.983012
0.960264
0.960264
0.960285
0.977126
0.998171
0.998201
0.98384
0.997481
0.998437
1
1
1
1
1
1
1
1
1
0.999999
0.999999
0.999999
1
1
1
1
0.999999
0.999985
0.997779
0.996219
0.999697
0.999998
0.999999
0.941968
0.940746
0.941976
0.944931
0.948885
0.952985
0.957312
0.962124
0.967585
0.972082
0.975243
0.977846
0.981418
0.98617
0.990941
0.996057
0.999156
0.999529
0.99936
0.999265
0.999428
0.999107
0.998942
0.237733
0.239616
0.242724
0.245611
0.249892
0.255921
0.263613
0.272532
0.282778
0.295152
0.309802
0.325652
0.341317
0.356481
0.371833
0.388098
0.406675
0.427688
0.447118
0.458565
0.462083
0.462982
0.46637
0.000900726
0.000724426
0.000526307
0.000724631
0.000880765
0.000878398
0.000784752
0.000693953
0.000608402
0.000541436
0.00050617
0.00050614
0.000506138
0.000506335
0.000506801
0.000507725
0.000534858
0.000579935
0.000623299
0.000668717
0.000711952
0.000756769
0.000974758
0.00100714
0.00100639
0.000487561
0.00126468
0.00197447
0.00233349
0.00261768
0.0030227
0.00340204
0.00362225
0.00362233
0.00362238
0.00362206
0.00362021
0.00361817
0.00303779
0.00245391
0.00198295
0.000951388
0.0010922
0.00111194
0.00109118
0.000904919
0.000445671
0.000451572
0.000466752
0.000384499
2.59206e-05
8.60179e-06
8.11314e-06
1.2057e-06
1.83943e-08
1.83943e-08
1.01431e-05
0.000109196
0.000155281
0.000128722
0.000137129
0.000248717
0.000290518
0.00048956
0.00061006
0.000538155
0.000697416
0.000725667
0.000493305
6.27541e-09
1.2127e-06
6.63039e-05
1.39725e-05
2.00059e-05
4.47587e-06
5.90357e-08
5.74636e-08
1.83943e-08
1.83943e-08
1.83943e-08
1.84097e-08
1.84847e-08
1.85995e-08
2.49096e-05
8.08026e-05
8.44877e-05
4.74613e-05
9.95849e-05
0.000130376
0.000133034
0.000116374
0.000390092
2.58716e-09
2.58998e-09
4.65935e-09
1.10167e-08
1.59752e-06
2.55732e-06
2.58703e-06
1.25339e-06
1.83943e-08
6.99395e-07
1.59132e-06
4.85121e-07
1.86441e-08
1.46891e-05
8.15355e-05
8.15476e-05
6.82645e-05
3.25517e-05
5.1414e-05
4.8467e-05
1.46548e-07
3.52782e-06
5.25535e-05
2.58578e-09
2.58579e-09
1.22073e-08
7.0324e-09
3.23084e-09
1.22583e-06
2.63397e-06
1.6395e-06
1.87298e-08
2.03837e-06
3.05465e-06
1.99239e-06
4.99418e-08
7.99805e-06
3.3289e-05
3.54376e-05
2.43994e-05
3.25837e-05
2.92973e-05
2.55043e-06
1.77118e-08
1.75325e-08
3.9037e-09
2.70555e-09
4.51279e-08
9.35963e-08
1.1781e-08
6.78624e-10
2.25632e-07
7.47303e-07
1.48973e-07
8.37383e-08
2.3074e-06
3.05465e-06
2.69738e-06
4.30333e-08
3.822e-07
1.34675e-08
1.35039e-08
1.12933e-06
4.68123e-06
4.41228e-06
1.00584e-07
1.78634e-08
1.91801e-08
5.36262e-08
4.22237e-09
1.14658e-07
1.14675e-07
3.26999e-08
5.50521e-10
5.55115e-10
9.81233e-10
1.23669e-09
6.74347e-08
2.2457e-06
3.05465e-06
1.8343e-07
9.80651e-10
3.4394e-09
1.3422e-08
5.67164e-08
1.86783e-07
2.04788e-07
2.15929e-08
2.15929e-08
2.21193e-08
5.00897e-08
4.73814e-08
2.52137e-09
8.60386e-08
1.14671e-07
2.62212e-08
5.50306e-10
5.50521e-10
5.51291e-10
6.66613e-07
1.73077e-06
1.71571e-06
3.95819e-07
8.91573e-10
9.80028e-10
1.41221e-09
7.34933e-10
6.50847e-08
3.8619e-06
6.15429e-06
5.06508e-06
2.448e-07
9.45304e-09
1.77084e-08
2.13771e-08
1.24977e-09
8.50703e-09
4.87339e-08
7.45041e-09
5.49987e-10
5.50365e-10
5.23582e-07
1.73149e-06
1.73118e-06
1.13798e-06
8.56356e-10
8.90926e-10
9.67737e-10
6.21751e-10
7.83095e-11
3.34362e-07
5.25113e-06
6.15429e-06
6.15429e-06
4.77425e-06
9.44893e-09
9.44567e-09
9.45003e-09
1.39779e-09
9.08252e-11
7.37207e-11
2.74117e-10
5.49778e-10
5.49987e-10
5.27321e-07
1.73146e-06
1.59171e-06
6.11892e-08
8.56093e-10
9.92183e-10
9.94218e-10
3.94826e-10
6.46115e-11
6.11292e-09
7.83861e-07
4.70998e-06
6.14585e-06
1.32985e-06
9.45304e-09
1.31749e-08
1.90332e-08
1.8611e-08
5.1344e-08
2.70071e-11
1.62993e-10
8.14458e-10
1.54431e-08
2.08668e-07
4.2984e-07
2.35429e-07
1.47293e-10
8.55998e-10
1.20037e-09
8.51153e-10
1.40165e-10
6.42012e-11
6.42181e-11
5.13406e-09
1.20776e-07
2.95599e-07
6.56863e-09
1.26856e-08
2.44634e-08
2.07919e-08
9.78789e-08
1.56234e-07
2.69688e-11
2.36562e-10
3.37167e-09
1.26381e-08
5.69164e-09
1.92152e-11
1.29012e-11
1.4718e-10
6.55756e-10
8.03737e-10
3.18512e-10
6.76557e-11
6.3451e-11
6.565e-11
6.59831e-11
7.5449e-11
6.65524e-11
5.13685e-10
9.20944e-09
1.96611e-08
1.04028e-08
2.76401e-07
1.64035e-07
2.69096e-11
4.30395e-10
2.8683e-09
4.69772e-09
1.91058e-11
1.7622e-11
1.21262e-11
6.54239e-11
1.9066e-10
1.69101e-10
4.46999e-11
2.77138e-11
5.35716e-11
6.62895e-11
7.27248e-11
6.91504e-11
6.08523e-11
1.03259e-10
5.65088e-10
8.99492e-10
1.02322e-09
2.7641e-07
1.41506e-07
2.68586e-11
4.06319e-10
1.36807e-09
5.0814e-10
1.99913e-11
2.08688e-11
6.86037e-12
7.0533e-12
1.25764e-11
5.63231e-12
1.24237e-12
6.53464e-12
2.71273e-11
4.79655e-11
5.89954e-11
5.92369e-11
4.98357e-11
3.47226e-11
1.70268e-11
1.06572e-11
8.16875e-11
2.76419e-07
8.0647e-08
2.68347e-11
2.23994e-10
3.35855e-10
2.84983e-11
1.27986e-11
1.28527e-11
1.15002e-12
8.25252e-14
6.22634e-14
3.89957e-16
-2.23526e-13
2.79071e-13
4.21886e-12
1.35562e-11
1.91827e-11
1.93636e-11
1.63924e-11
1.16564e-11
6.86707e-12
3.49407e-12
2.14561e-12
2.76435e-07
6.0329e-08
2.68305e-11
6.39553e-11
4.89549e-11
6.78578e-12
3.12092e-12
1.99633e-12
-1.51639e-13
-8.22221e-13
-1.00193e-12
-1.07578e-12
-9.71585e-13
-5.48536e-13
4.7469e-14
6.1386e-13
1.0676e-12
1.03883e-12
8.6968e-13
7.17193e-13
5.72714e-13
4.15559e-13
3.21391e-13
2.7649e-07
1.80831e-07
2.68305e-11
2.71374e-11
2.59054e-11
4.55065e-12
9.43735e-14
3.81828e-15
-8.02296e-13
-1.26805e-12
-1.42151e-12
-1.39511e-12
-1.22349e-12
-9.3356e-13
-5.98857e-13
-3.17296e-13
-1.428e-13
-8.37245e-14
-5.92196e-14
-3.28001e-14
-8.16173e-15
1.02488e-15
1.42312e-15
2.7649e-07
2.76483e-07
2.68305e-11
2.72395e-11
2.84625e-11
4.61442e-12
-4.05077e-14
-3.60567e-13
-8.8359e-13
-1.19121e-12
-1.28235e-12
-1.22559e-12
-1.0755e-12
-8.73718e-13
-6.62933e-13
-4.77115e-13
-3.4244e-13
-2.51535e-13
-1.84858e-13
-1.3204e-13
-9.00172e-14
-5.77466e-14
-3.49033e-14
2.7649e-07
2.75847e-07
2.68305e-11
3.69728e-11
4.32903e-11
5.50159e-12
1.80327e-13
-1.55673e-13
-5.08195e-13
-7.49191e-13
-8.42114e-13
-8.23864e-13
-7.36875e-13
-6.15155e-13
-4.85816e-13
-3.67432e-13
-2.70897e-13
-1.96208e-13
-1.39678e-13
-9.79602e-14
-6.75119e-14
-4.52567e-14
-2.88839e-14
2.7649e-07
9.98935e-08
2.68315e-11
8.17265e-11
7.58485e-11
9.01288e-12
1.84991e-12
1.0471e-12
3.29329e-13
-1.0446e-13
-2.96512e-13
-3.83953e-13
-3.89609e-13
-3.46382e-13
-2.83718e-13
-2.19505e-13
-1.6282e-13
-1.16136e-13
-8.03169e-14
-5.4535e-14
-3.67599e-14
-2.45233e-14
-1.58854e-14
6.30644e-08
9.7553e-11
6.8166e-11
1.86609e-10
1.16522e-10
1.70789e-11
7.0659e-12
5.60799e-12
3.68213e-12
1.80773e-12
5.816e-13
1.29624e-14
-1.20021e-13
-1.51736e-13
-1.37911e-13
-1.10768e-13
-8.35864e-14
-5.91525e-14
-3.9835e-14
-2.59632e-14
-1.6752e-14
-1.07849e-14
-6.93291e-15
7.51729e-11
8.53727e-11
1.74198e-10
2.37176e-10
1.42034e-10
2.94179e-11
1.72769e-11
1.49703e-11
1.10886e-11
6.6645e-12
3.08733e-12
1.00519e-12
1.33438e-13
-3.91045e-14
-5.66405e-14
-4.8873e-14
-3.82781e-14
-2.70913e-14
-1.7803e-14
-1.1108e-14
-6.77139e-15
-4.09219e-15
-2.52231e-15
7.47824e-11
8.55517e-11
2.1787e-10
2.38531e-10
1.40328e-10
4.27817e-11
3.16217e-11
2.82241e-11
2.18608e-11
1.44574e-11
7.34404e-12
2.62726e-12
5.50219e-13
2.29221e-14
-1.98733e-14
-1.93979e-14
-1.6055e-14
-1.14333e-14
-7.3616e-15
-4.4088e-15
-2.53275e-15
-1.41585e-15
-8.00771e-16
7.47824e-11
8.09599e-11
1.96456e-10
2.09017e-10
1.14804e-10
5.17512e-11
4.59887e-11
4.24566e-11
3.35128e-11
2.35107e-11
1.24936e-11
4.42534e-12
8.16791e-13
4.83283e-14
-5.88718e-15
-7.16769e-15
-6.3154e-15
-4.5283e-15
-2.85157e-15
-1.63651e-15
-8.86608e-16
-4.62029e-16
-2.42677e-16
7.77296e-11
6.18904e-11
1.03511e-10
9.94115e-11
6.69294e-11
5.33978e-11
5.30545e-11
5.27568e-11
4.38608e-11
3.14222e-11
1.70724e-11
5.64052e-12
8.44401e-13
4.08153e-14
-1.22286e-15
-2.5394e-15
-2.36982e-15
-1.69889e-15
-1.03949e-15
-5.7105e-16
-2.96166e-16
-1.49166e-16
-7.49288e-17
1.11623e-10
5.11405e-11
5.11406e-11
5.11405e-11
5.11404e-11
5.25656e-11
5.35268e-11
5.51966e-11
4.97362e-11
3.61309e-11
1.94524e-11
5.88284e-12
7.50687e-13
2.10396e-14
-9.69608e-17
-8.82833e-16
-8.61073e-16
-6.08855e-16
-3.59616e-16
-1.89726e-16
-9.45063e-17
-4.5594e-17
-2.19809e-17
5.24828e-10
5.11406e-11
5.11405e-11
5.11405e-11
5.11405e-11
5.18413e-11
5.2669e-11
5.52565e-11
5.05956e-11
3.71511e-11
1.9646e-11
5.56209e-12
5.04678e-13
6.5374e-15
0
-3.09271e-16
-3.06359e-16
-2.10643e-16
-1.19127e-16
-5.99631e-17
-2.85183e-17
-1.32162e-17
-6.12693e-18
9.27821e-10
2.40073e-08
2.73241e-07
4.35301e-07
3.28284e-08
4.96404e-11
4.96378e-11
5.47888e-11
5.00757e-11
3.6609e-11
1.85533e-11
4.38696e-12
2.5094e-13
1.54052e-15
2.45311e-19
-1.10822e-16
-1.07563e-16
-7.06729e-17
-3.77951e-17
-1.79721e-17
-8.06051e-18
-3.56999e-18
-1.55605e-18
9.27329e-10
1.8118e-07
8.28585e-07
8.28659e-07
3.53107e-07
2.81693e-10
4.8033e-11
5.31638e-11
4.78634e-11
3.37935e-11
1.52348e-11
2.70547e-12
9.31348e-14
2.88294e-16
4.26832e-20
-4.08809e-17
-3.73109e-17
-2.29691e-17
-1.14294e-17
-5.03626e-18
-2.09026e-18
-8.70637e-19
-3.51988e-19
9.27771e-10
2.12961e-07
8.28659e-07
8.28659e-07
4.63612e-07
7.35583e-10
4.74017e-11
5.03121e-11
4.35171e-11
2.81607e-11
1.04236e-11
1.25773e-12
2.39822e-14
3.56482e-17
-2.97918e-18
-1.55067e-17
-1.27141e-17
-7.17588e-18
-3.25653e-18
-1.29837e-18
-4.90894e-19
-1.88512e-19
-6.95581e-20
9.28433e-10
9.48217e-08
8.00349e-07
8.27014e-07
2.34751e-07
2.19394e-10
4.68452e-11
4.66876e-11
3.69408e-11
2.05962e-11
5.6726e-12
4.04594e-13
3.63803e-15
2.33563e-18
-3.178e-18
-5.88844e-18
-4.21739e-18
-2.13402e-18
-8.63418e-19
-3.03259e-19
-1.02155e-19
-3.54571e-20
-1.17294e-20
1.87181e-09
8.30378e-09
1.29129e-07
1.25372e-07
1.24228e-08
1.32689e-10
5.65192e-11
4.2546e-11
2.81452e-11
1.24393e-11
2.21423e-12
7.69648e-14
2.65266e-16
5.646e-20
-1.81381e-18
-2.19647e-18
-1.35513e-18
-6.00759e-19
-2.11e-19
-6.33044e-20
-1.84583e-20
-5.65682e-21
-1.64228e-21
2.66325e-09
1.3917e-09
5.62766e-10
2.16662e-10
1.1508e-10
1.15042e-10
6.54713e-11
3.60099e-11
1.8137e-11
5.51111e-12
5.17283e-13
6.9694e-15
7.57578e-18
2.37917e-22
-8.73796e-19
-8.05932e-19
-4.22976e-19
-1.60482e-19
-4.74875e-20
-1.17308e-20
-2.85369e-21
-7.46975e-22
-1.84983e-22
2.65553e-09
1.93023e-09
8.21249e-10
3.62466e-10
2.09462e-10
1.29233e-10
6.1094e-11
2.54303e-11
8.69656e-12
1.46454e-12
5.59197e-14
2.35574e-16
7.55037e-20
-1.54362e-19
-4.02492e-19
-2.92587e-19
-1.29319e-19
-4.1107e-20
-9.93787e-21
-1.93716e-21
-3.72638e-22
-7.95429e-23
-1.61249e-23
1.10064e-09
1.52483e-09
1.10224e-09
6.65011e-10
3.54896e-10
1.46614e-10
4.97678e-11
1.35545e-11
2.51424e-12
1.7386e-13
2.06019e-15
2.46295e-18
1.84896e-22
-1.33196e-19
-1.78405e-19
-1.05509e-19
-3.92413e-20
-1.03225e-20
-1.99187e-21
-2.94042e-22
-4.14182e-23
-6.68178e-24
-1.03423e-24
4.45811e-11
4.49108e-10
7.90027e-10
6.18163e-10
3.50991e-10
1.38149e-10
3.40609e-11
4.86703e-12
3.35845e-13
6.57869e-15
2.00857e-17
6.88087e-21
-2.24053e-20
-8.13161e-20
-7.66042e-20
-3.79226e-20
-1.19766e-20
-2.60745e-21
-3.97795e-22
-4.31772e-23
-4.04352e-24
-4.32295e-25
-4.48509e-26
-2.3244e-26
2.7565e-11
2.43705e-10
3.33466e-10
2.33842e-10
9.34899e-11
1.68151e-11
1.04775e-12
1.71934e-14
6.47249e-17
5.64954e-20
3.34446e-24
-2.44122e-20
-4.3234e-20
-3.20802e-20
-1.36308e-20
-3.7143e-21
-6.77562e-22
-8.21426e-23
-6.44501e-24
-3.62182e-25
-2.05941e-26
-1.09457e-27
-1.05733e-26
1.9664e-13
1.85205e-11
5.59419e-11
5.21977e-11
2.36277e-11
3.25912e-12
8.44328e-14
2.72324e-16
1.68916e-19
6.72888e-23
-4.38437e-21
-1.72968e-20
-2.12419e-20
-1.31795e-20
-4.91896e-21
-1.18199e-21
-1.85802e-22
-1.85225e-23
-1.07814e-24
-3.30227e-26
-6.30922e-28
-7.71133e-30
0.999998
0.999998
0.999998
0.999998
0.999237
0.999312
0.999337
0.999296
0.471529
0.472658
0.471897
0.469303
0.000717999
0.00068107
0.000755466
0.000868734
0.000472539
0.00050934
0.000560428
0.000577454
0.000463496
0.000503272
0.000642633
0.000642696
0.000464235
0.000375772
0.000288345
0.000392055
7.80977e-05
8.52355e-06
4.30296e-09
3.645e-06
3.8916e-09
3.88309e-09
4.29479e-09
3.95948e-09
1.69509e-08
3.87847e-09
3.88309e-09
3.916e-09
3.87318e-09
3.86329e-09
3.87847e-09
7.18967e-08
3.86065e-09
3.84548e-09
3.92787e-09
2.22003e-06
5.66589e-09
3.83773e-09
3.84669e-09
3.86351e-08
6.50019e-09
3.83262e-09
4.31847e-09
5.21578e-09
1.53402e-09
1.53712e-09
2.43448e-08
4.9653e-08
1.53402e-09
1.53402e-09
1.26043e-08
3.70882e-08
2.05272e-09
2.04829e-09
1.32205e-09
1.48462e-10
2.64421e-10
1.92549e-10
1.76271e-11
6.78068e-13
1.51872e-12
6.57302e-13
5.66754e-13
7.03115e-13
3.07971e-13
3.12671e-13
3.18362e-13
2.9449e-13
2.91819e-15
9.68272e-15
1.16387e-14
1.09882e-14
-1.96591e-14
-1.5383e-14
-1.20725e-14
-9.53986e-15
-1.73174e-14
-1.3928e-14
-1.13653e-14
-9.3777e-15
-9.63251e-15
-7.53255e-15
-5.9679e-15
-4.84034e-15
-4.27774e-15
-3.24555e-15
-2.45072e-15
-1.87554e-15
-1.60147e-15
-1.2002e-15
-8.85159e-16
-6.33955e-16
-5.30528e-16
-3.89905e-16
-2.85356e-16
-2.00259e-16
-1.67731e-16
-1.1843e-16
-8.338e-17
-5.75135e-17
-5.1089e-17
-3.47731e-17
-2.3427e-17
-1.55891e-17
-1.46251e-17
-9.64134e-18
-6.25375e-18
-3.99245e-18
-3.92957e-18
-2.48853e-18
-1.54723e-18
-9.44096e-19
-9.52738e-19
-5.74894e-19
-3.4024e-19
-1.97346e-19
-2.03815e-19
-1.16038e-19
-6.47052e-20
-3.53134e-20
-3.76262e-20
-1.99599e-20
-1.03504e-20
-5.24409e-21
-5.83799e-21
-2.84088e-21
-1.34791e-21
-6.23425e-22
-7.37608e-22
-3.22715e-22
-1.37214e-22
-5.67045e-23
-7.30055e-23
-2.79465e-23
-1.03547e-23
-3.71557e-24
-5.37683e-24
-1.73099e-24
-5.36974e-25
-1.60683e-25
-2.72867e-25
-6.93006e-26
-1.69023e-26
-3.96467e-27
-8.26666e-27
-1.47278e-27
-2.52628e-28
-4.17618e-29
-1.0648e-28
-1.02262e-29
-9.6596e-31
-8.97155e-32
-1.58006e-31
-3.27197e-33
-7.00434e-35
-1.59241e-36
0.999998
0.999998
0.999997
0.999997
0.998509
0.994147
0.993154
0.995769
0.997423
0.997193
0.986291
0.976328
0.980319
0.9982
0.998203
0.997938
0.984009
0.990678
0.998405
0.999015
0.998996
0.995285
0.991688
0.987384
0.981265
0.972569
0.966364
0.969267
0.98518
0.989301
0.989306
0.989299
0.980794
0.964132
0.956872
0.962127
0.953641
0.94388
0.461479
0.451133
0.442066
0.431891
0.422758
0.415107
0.406539
0.393983
0.376777
0.359578
0.354249
0.346965
0.330758
0.311852
0.298593
0.291958
0.289186
0.285834
0.288747
0.00125198
0.00155976
0.00161732
0.00172739
0.00162188
0.00124625
0.000864865
0.000705207
0.000626945
0.000500206
0.000444942
0.000444281
0.00044382
0.000453244
0.000533155
0.00074321
0.000973725
0.0010771
0.0010785
0.000583362
0.000590095
0.000632377
0.00125015
0.00143418
0.0013185
0.00133094
0.00135913
0.00135916
0.00135912
0.00135892
0.00112757
0.00044317
0.000926908
0.00108855
0.00108842
0.00108947
0.00108261
0.00107066
0.000612919
0.000548796
0.000578538
0.000623931
0.000720216
0.000817117
0.000733421
0.000642281
0.000565133
0.000494832
0.000317754
0.000160922
0.000376294
0.000390013
0.000432166
0.000484749
0.000458594
0.000506712
0.000493865
0.000392358
0.000362106
0.000353432
0.000276354
0.000110196
4.94203e-08
5.00326e-08
5.12468e-08
8.4068e-08
1.67835e-07
2.74249e-07
2.51233e-06
6.82325e-06
8.44598e-07
5.21568e-07
5.20708e-07
2.13483e-06
2.69461e-05
5.24438e-05
4.51907e-06
6.2993e-06
2.04858e-06
6.90401e-09
6.90327e-09
4.87791e-08
1.14756e-06
2.43913e-05
3.70788e-05
3.91175e-05
4.73933e-05
4.7235e-05
1.34437e-05
5.21577e-07
5.20713e-07
5.20005e-07
5.19998e-07
5.20054e-07
5.20103e-07
3.98162e-09
4.41267e-09
5.87763e-09
6.90333e-09
6.90739e-09
8.47924e-07
3.74643e-05
5.99103e-05
5.99211e-05
5.98797e-05
5.9812e-05
5.97844e-05
2.31842e-05
1.50307e-06
5.20005e-07
5.2e-07
5.19993e-07
5.19993e-07
5.19992e-07
7.33528e-07
2.45828e-06
1.76833e-06
6.90739e-09
8.2555e-09
1.53424e-05
5.80786e-05
5.79882e-05
2.05734e-05
1.72769e-05
4.39389e-05
5.52525e-05
2.3186e-05
2.32456e-05
4.16305e-06
5.19993e-07
5.19992e-07
5.19993e-07
5.19992e-07
9.77557e-06
2.12644e-05
1.85584e-05
1.2101e-06
1.5297e-07
1.74305e-05
3.47679e-05
4.57456e-06
2.11232e-06
2.11023e-06
2.11232e-06
5.1944e-06
2.90973e-05
2.90973e-05
2.00423e-05
5.19992e-07
5.19992e-07
5.20017e-07
5.19992e-07
1.55634e-05
2.12663e-05
2.12663e-05
2.12663e-05
8.18099e-06
1.3312e-06
1.89033e-09
1.88893e-09
2.17511e-06
4.89849e-06
3.2992e-06
1.32435e-06
1.80109e-05
2.90973e-05
1.55878e-05
5.19992e-07
5.19992e-07
5.19992e-07
5.19992e-07
4.26396e-06
1.88147e-05
2.12663e-05
2.07612e-05
6.20146e-06
1.47976e-09
2.51369e-09
8.82924e-08
9.89259e-07
1.21785e-06
2.03117e-10
2.03045e-10
2.04712e-10
1.94691e-07
1.13e-05
1.35666e-05
7.92156e-06
5.19992e-07
5.19992e-07
5.22821e-09
1.17881e-06
4.73023e-06
1.40244e-06
1.31168e-09
1.77565e-09
1.75305e-08
2.52459e-08
2.03106e-10
2.03187e-10
2.03045e-10
2.03187e-10
2.13111e-10
1.34443e-06
1.17512e-05
1.35674e-05
1.35674e-05
1.32804e-05
6.58021e-06
4.96561e-08
1.51268e-09
1.38459e-09
1.31985e-09
1.31099e-09
1.93425e-09
6.46099e-09
7.27216e-09
1.32081e-09
2.03106e-10
3.98102e-10
4.76124e-10
8.79959e-10
8.89641e-10
1.2076e-06
6.62272e-06
7.05514e-06
3.38542e-06
3.33262e-06
6.12051e-08
1.08688e-07
1.41579e-07
8.4793e-08
1.40939e-08
2.0276e-10
2.02761e-10
2.0276e-10
2.56652e-10
6.22148e-10
7.53977e-10
1.32374e-09
3.0378e-09
2.33376e-09
1.44705e-11
1.44666e-11
1.44737e-11
1.80744e-11
6.19303e-10
4.36301e-09
1.79561e-07
2.65802e-07
2.65803e-07
2.117e-07
2.35249e-08
2.0276e-10
6.51659e-10
5.08624e-09
7.95058e-09
6.02335e-10
1.83439e-10
5.36871e-11
4.41168e-11
4.40973e-11
2.55334e-11
3.80066e-10
5.42629e-07
5.03202e-06
3.65171e-13
3.43829e-08
2.19381e-07
2.65783e-07
2.65702e-07
2.01044e-07
2.03243e-10
7.43226e-09
5.31408e-08
6.529e-08
1.98334e-08
6.0114e-11
6.00909e-11
1.30784e-10
1.09541e-10
6.42117e-11
2.48173e-08
6.07943e-06
1.34824e-05
3.64599e-13
1.17956e-14
5.60442e-19
8.71656e-08
1.90265e-07
7.71305e-08
7.28824e-09
2.22575e-08
7.30807e-08
7.30807e-08
7.11155e-08
1.49045e-09
4.81281e-11
9.35687e-11
7.67514e-11
7.04293e-11
2.78398e-07
1.08433e-05
1.34824e-05
1.51899e-13
2.35311e-14
4.31733e-19
-1.08317e-38
2.16185e-19
4.22665e-17
3.32251e-10
1.9319e-08
5.23206e-08
6.91561e-08
3.93938e-08
5.13663e-09
4.80471e-11
4.80494e-11
2.34729e-11
2.28544e-12
1.04355e-07
7.47785e-06
1.34824e-05
7.34659e-15
2.23574e-15
3.06904e-16
-1.46683e-16
6.62317e-17
6.64615e-17
7.52925e-17
1.05225e-16
1.50064e-16
2.02697e-16
2.61163e-16
5.18132e-16
1.77931e-10
2.55656e-11
6.7971e-12
2.28254e-12
1.10957e-12
4.47997e-07
1.24538e-05
-7.57223e-15
-3.83556e-15
-1.91549e-15
-5.52232e-16
8.29687e-16
1.90876e-14
5.38554e-14
7.24522e-14
8.70795e-14
9.51631e-14
9.91415e-14
4.60367e-13
1.25365e-12
2.34986e-12
1.77963e-12
1.48802e-12
1.10947e-12
1.1095e-12
6.88669e-07
-7.72221e-15
-4.64024e-15
-2.71402e-15
-1.49779e-15
-6.94332e-16
-5.88708e-17
8.89375e-16
3.89776e-14
2.26059e-13
3.44279e-13
3.60484e-13
9.90443e-13
1.49412e-12
6.79615e-13
3.91669e-13
1.09662e-12
1.12135e-12
1.10947e-12
1.1095e-12
-3.97595e-15
-2.48118e-15
-1.52454e-15
-9.20621e-16
-5.40487e-16
-2.99698e-16
-1.36816e-16
-9.86076e-35
1.94029e-15
2.57272e-14
5.44709e-14
1.33777e-13
4.36822e-13
1.41069e-13
1.16551e-13
8.85523e-13
1.43034e-12
1.12493e-12
1.11726e-12
-1.47562e-15
-9.05485e-16
-5.51662e-16
-3.32984e-16
-1.98539e-16
-1.1911e-16
-6.99195e-17
-3.63529e-17
-3.67042e-18
7.39118e-17
4.83725e-16
1.58581e-15
4.09281e-15
9.35765e-15
3.66695e-14
8.17077e-13
2.55405e-12
1.12497e-12
8.51607e-09
-4.45117e-16
-2.6266e-16
-1.53613e-16
-8.98516e-17
-5.31165e-17
-3.16504e-17
-1.86691e-17
-1.03116e-17
-4.10276e-18
2.61851e-18
2.80579e-17
1.43168e-16
7.28775e-16
3.58064e-15
2.48164e-14
8.3024e-13
3.37674e-12
1.12537e-12
1.47072e-06
-1.16107e-16
-6.4716e-17
-3.67305e-17
-2.1113e-17
-1.21685e-17
-6.92802e-18
-3.80835e-18
-1.85384e-18
-3.34948e-19
2.26608e-18
1.72287e-17
9.10972e-17
5.12508e-16
2.73618e-15
2.24391e-14
8.84295e-13
3.62181e-12
1.1281e-12
2.53954e-06
-2.88004e-17
-1.46595e-17
-7.68058e-18
-4.10287e-18
-2.18977e-18
-1.06138e-18
-2.14367e-19
7.57113e-20
9.78587e-19
4.83409e-18
1.88209e-17
8.68161e-17
4.74703e-16
2.55042e-15
2.25195e-14
9.09936e-13
3.63151e-12
1.12924e-12
2.53955e-06
-6.91924e-18
-3.12025e-18
-1.44691e-18
-6.77532e-19
-2.62074e-19
4.59486e-20
1.01474e-18
6.2744e-18
2.37713e-17
6.67605e-17
1.50519e-16
3.05764e-16
8.451e-16
3.59917e-15
3.72445e-14
8.08827e-13
3.63064e-12
1.12981e-12
2.5348e-06
-1.62317e-18
-6.55578e-19
-2.66149e-19
-9.38902e-20
1.05904e-19
2.01729e-18
1.25936e-17
5.89205e-17
2.17691e-16
6.30944e-16
1.41717e-15
2.90756e-15
7.75734e-15
2.86146e-14
1.31435e-13
8.98153e-13
3.64228e-12
1.13066e-12
6.15688e-07
-3.5565e-19
-1.30917e-19
-4.64863e-20
4.66833e-21
8.10722e-19
9.2132e-18
6.48688e-17
3.28751e-16
1.29349e-15
4.05903e-15
1.03705e-14
2.72328e-14
8.39757e-14
2.68716e-13
7.10331e-13
1.85424e-12
4.58183e-12
1.13171e-12
1.13242e-12
-6.87475e-20
-2.32044e-20
-6.56266e-21
6.40943e-20
1.84752e-18
2.88846e-17
2.65187e-16
1.48837e-15
6.5943e-15
2.56165e-14
9.87624e-14
3.78048e-13
1.02886e-12
2.18701e-12
3.45173e-12
4.94127e-12
6.42938e-12
1.13242e-12
9.51771e-07
-1.12432e-20
-3.44523e-21
-1.91093e-22
8.38287e-20
3.32813e-18
7.02998e-17
8.82403e-16
6.23304e-15
3.65996e-14
1.9789e-13
1.07787e-12
4.25406e-12
9.12968e-12
1.33353e-11
1.37454e-11
1.48531e-11
1.26417e-11
1.13997e-12
2.63969e-06
-1.50056e-21
-4.07657e-22
6.75541e-22
9.08996e-20
4.64777e-18
1.255e-16
2.22127e-15
2.41139e-14
1.98177e-13
1.27376e-12
6.72419e-12
2.20733e-11
4.01322e-11
4.75333e-11
4.21028e-11
4.35386e-11
4.6072e-11
1.14475e-12
2.63973e-06
-1.57102e-22
-3.57972e-23
4.88651e-22
8.56641e-20
5.2036e-18
1.66205e-16
3.98012e-15
7.02197e-14
6.95503e-13
4.46071e-12
1.98169e-11
5.47648e-11
8.76944e-11
9.38205e-11
8.92773e-11
1.0613e-10
1.52133e-10
1.15528e-12
2.63959e-06
-1.22774e-23
-1.81488e-24
2.10029e-22
4.98044e-20
5.06323e-18
1.78528e-16
5.16245e-15
1.32593e-13
1.38814e-12
8.41473e-12
3.20003e-11
8.04746e-11
1.13832e-10
1.15552e-10
1.34679e-10
2.53227e-10
3.75076e-10
1.20063e-12
2.63914e-06
-6.69829e-25
1.47113e-25
8.53097e-23
2.05003e-20
2.93635e-18
1.45993e-16
5.40646e-15
1.68841e-13
1.77064e-12
1.02138e-11
3.59617e-11
8.75394e-11
1.138e-10
1.07721e-10
1.75686e-10
1.34726e-09
1.20819e-09
1.33075e-12
1.96808e-06
-2.31125e-26
6.01639e-26
2.47257e-23
7.2618e-21
1.0888e-18
5.89201e-17
3.62247e-15
1.70289e-13
1.77286e-12
9.77284e-12
3.02351e-11
5.58986e-11
9.50887e-11
4.16237e-11
2.75669e-10
6.00219e-09
5.27551e-09
1.7867e-12
1.15099e-06
-4.26672e-28
1.15451e-26
4.19723e-24
1.7783e-21
3.14923e-19
1.56499e-17
1.03883e-15
8.91554e-14
8.96581e-13
4.336e-12
1.08402e-11
1.6976e-11
3.05495e-11
1.07376e-15
5.51832e-10
9.24347e-09
9.24159e-09
3.93032e-12
1.26891e-06
-2.96305e-30
1.02614e-27
3.70084e-25
2.37739e-22
5.37341e-20
2.90082e-18
1.65991e-16
1.8054e-14
1.74547e-13
7.76484e-13
1.75163e-12
2.72439e-12
4.44049e-12
4.10464e-17
5.36405e-10
8.22889e-09
8.55283e-09
5.30282e-09
1.28518e-06
-3.60377e-33
6.15105e-32
6.74296e-27
1.47547e-23
3.65759e-21
2.33908e-19
1.398e-17
1.52552e-15
1.40896e-14
5.8771e-14
1.27258e-13
2.01227e-13
2.80253e-13
5.9818e-20
1.31454e-10
1.69953e-09
2.52096e-09
1.8194e-23
1.28493e-06
-1.65744e-38
-1.76091e-40
2.08616e-34
5.07666e-29
1.5735e-25
6.36932e-23
1.8675e-20
2.25048e-18
1.6575e-17
6.92844e-17
1.58531e-16
2.49189e-16
1.17706e-16
5.47977e-20
1.52733e-12
-2.26996e-46
6.16298e-36
0
1.13917e-06
)
;

boundaryField
{
    leftWall
    {
        type            zeroGradient;
    }
    rightWall
    {
        type            zeroGradient;
    }
    lowerWall
    {
        type            zeroGradient;
    }
    atmosphere
    {
        type            inletOutlet;
        inletValue      uniform 0;
        value           nonuniform List<scalar> 
46
(
0
1.9664e-13
1.85205e-11
5.59419e-11
5.21977e-11
2.36277e-11
3.25912e-12
8.44328e-14
2.72324e-16
1.68916e-19
6.72888e-23
-4.38437e-21
-1.72968e-20
-2.12419e-20
-1.31795e-20
-4.91896e-21
-1.18199e-21
-1.85802e-22
-1.85225e-23
-1.07814e-24
-3.30227e-26
0
0
0
0
0
0
0
0
0
0
0
0
0
0
0
0
0
0
0
0
0
0
0
0
1.13917e-06
)
;
    }
    defaultFaces
    {
        type            empty;
    }
}


// ************************************************************************* //
