/*--------------------------------*- C++ -*----------------------------------*\
  =========                 |
  \\      /  F ield         | OpenFOAM: The Open Source CFD Toolbox
   \\    /   O peration     | Website:  https://openfoam.org
    \\  /    A nd           | Version:  9
     \\/     M anipulation  |
\*---------------------------------------------------------------------------*/
FoamFile
{
    format      ascii;
    class       volScalarField;
    location    "8.12";
    object      k;
}
// * * * * * * * * * * * * * * * * * * * * * * * * * * * * * * * * * * * * * //

dimensions      [0 2 -2 0 0 0 0];

internalField   nonuniform List<scalar> 
2268
(
0.000111219
0.000284247
0.000418713
0.000524785
0.000612448
0.000686291
0.000748932
0.000802094
0.000846901
0.000884771
0.000917798
0.000947849
0.000975312
0.000997069
0.00100513
0.000985849
0.000934568
0.000856815
0.000757099
0.00064619
0.000543703
0.000393028
0.000189485
0.000244095
0.000657449
0.000933889
0.00115301
0.00133409
0.00148616
0.00161469
0.00172348
0.0018154
0.00189338
0.00196062
0.00201937
0.00206901
0.00210401
0.00211283
0.00207884
0.00198956
0.00185125
0.00167395
0.00147639
0.00126931
0.000932454
0.000425308
0.000350419
0.000879884
0.00122014
0.00148937
0.00171235
0.00189979
0.00205826
0.00219243
0.00230593
0.00240225
0.00248486
0.00255592
0.00261442
0.00265443
0.00266443
0.00262915
0.00253827
0.00239593
0.00220841
0.00198638
0.00172948
0.00131499
0.000597443
0.000441649
0.00106027
0.00144335
0.00174423
0.00199343
0.00220297
0.00238008
0.00253003
0.00265692
0.00276455
0.00285649
0.00293485
0.00299855
0.00304188
0.00305417
0.00302205
0.00293635
0.00280029
0.00261769
0.00239306
0.00211547
0.00166905
0.00077112
0.000521652
0.0012206
0.0016391
0.00196413
0.00223266
0.00245821
0.00264868
0.00280984
0.00294618
0.00306175
0.00316023
0.00324375
0.00331141
0.00335795
0.00337379
0.00334727
0.00326949
0.00314361
0.00297284
0.0027575
0.00247777
0.00201625
0.000969978
0.000594258
0.0013688
0.00181951
0.00216504
0.00244917
0.00268724
0.0028879
0.00305745
0.00320081
0.00332229
0.0034257
0.00351329
0.00358445
0.00363453
0.00365502
0.00363548
0.00356747
0.00345398
0.00329944
0.00310137
0.00283399
0.0023781
0.00120786
0.000662614
0.00150942
0.00199059
0.00235459
0.0026521
0.00290043
0.00310908
0.003285
0.00343363
0.00355961
0.00366691
0.00375792
0.00383241
0.0038864
0.0039124
0.00390082
0.00384395
0.00374446
0.00360891
0.0034336
0.00319192
0.00277387
0.00152647
0.000731043
0.00164576
0.00215608
0.00253732
0.00284679
0.00310383
0.00331881
0.00349946
0.00365196
0.00378136
0.00389179
0.00398578
0.00406347
0.00412161
0.00415367
0.00415058
0.00410589
0.00402218
0.00390692
0.00375727
0.00355288
0.00321394
0.00215273
0.000270624
0.000587379
0.000785781
0.000867874
0.000911336
0.000932124
0.000937176
0.000935456
0.000901302
0.000827699
0.000732869
0.000625713
0.000568897
0.000565166
0.00054984
0.000501431
0.000389268
0.000269015
0.000115582
0.000485802
0.00120967
0.00162331
0.0018345
0.0019469
0.00200358
0.00202326
0.00200781
0.00193448
0.00180071
0.00161944
0.00142033
0.00129052
0.00125083
0.00118612
0.0010593
0.00083388
0.000567495
0.000232671
0.000580765
0.00153591
0.00205423
0.00232128
0.00246349
0.00253527
0.0025597
0.00253651
0.00244791
0.00229799
0.00210604
0.00190001
0.00174264
0.00165033
0.00154388
0.00137585
0.00109928
0.000758413
0.000339957
0.000667675
0.00180676
0.0023925
0.0026846
0.0028386
0.00291568
0.00293997
0.00291047
0.00281456
0.00266038
0.00247057
0.00226975
0.00209848
0.00196725
0.00182821
0.00163312
0.00132873
0.000943931
0.000444742
0.000808987
0.0020854
0.00270852
0.00300347
0.00315673
0.00323227
0.00325323
0.00321833
0.00311884
0.00296572
0.00278243
0.00258873
0.00240896
0.00224987
0.00208512
0.00187001
0.00154912
0.00113735
0.000547702
0.00101196
0.00241559
0.0030244
0.00330266
0.00344575
0.00351473
0.0035302
0.00349074
0.00339044
0.00324165
0.0030667
0.0028797
0.00269384
0.00251425
0.00232931
0.0020963
0.00176298
0.0013329
0.000650418
0.00132778
0.00280162
0.00334396
0.00359066
0.00371704
0.00377582
0.00378463
0.00374147
0.00364288
0.00350128
0.00333538
0.00315404
0.00296338
0.00276796
0.0025645
0.00231227
0.00196718
0.00152194
0.000754744
0.00196059
0.00322558
0.0036618
0.00386888
0.00397482
0.00402151
0.00402333
0.00397765
0.00388297
0.00375143
0.0035952
0.00341845
0.0032236
0.00301496
0.00279057
0.00251609
0.00215786
0.00169461
0.000866144
0.00082364
0.00184355
0.00240134
0.0028099
0.00313764
0.0034074
0.00363084
0.00381722
0.00397448
0.00410862
0.00422384
0.00432258
0.00440547
0.00447057
0.00451189
0.00452257
0.00449797
0.00444109
0.00435872
0.00425023
0.00410906
0.00390846
0.0035163
0.000952029
0.00211566
0.00273843
0.0031818
0.00353233
0.00381677
0.00404666
0.00423418
0.00439218
0.00452905
0.00464839
0.00475164
0.00483944
0.00491028
0.00496092
0.00498713
0.00498658
0.00496176
0.00491758
0.00485422
0.00477313
0.0046709
0.00451752
0.00110508
0.00241482
0.00310514
0.00357701
0.00394982
0.00425001
0.00448153
0.00466057
0.00481126
0.00494671
0.00506813
0.0051743
0.00526397
0.00533736
0.00539343
0.00543053
0.00544995
0.00545331
0.00544135
0.00541178
0.00536778
0.00531858
0.00526783
0.00134068
0.00275895
0.0035065
0.00399595
0.00439633
0.00471955
0.00494954
0.00510539
0.0052377
0.00536903
0.0054929
0.00560328
0.00569388
0.00576643
0.00582402
0.00586589
0.00589986
0.0059251
0.00593915
0.00593261
0.00590682
0.00588366
0.00588272
0.00171431
0.00305345
0.00376035
0.00424855
0.00461689
0.00493696
0.00520125
0.00539796
0.00556053
0.00572416
0.0058795
0.00602189
0.00613249
0.0062013
0.00624725
0.00628153
0.00632287
0.00636752
0.00642239
0.00642967
0.00639193
0.00636694
0.00636353
0.00156387
0.00301802
0.00390478
0.0043847
0.00472567
0.00505251
0.00532308
0.00553502
0.00572945
0.00592492
0.00611723
0.00630411
0.00646153
0.00657973
0.00663551
0.00665097
0.00669186
0.00672805
0.00676646
0.0068025
0.00678564
0.00676313
0.00676426
0.00226457
0.00313908
0.00387485
0.00439563
0.00480101
0.0051476
0.0054422
0.00567591
0.00588049
0.00608069
0.00627524
0.00646118
0.00662484
0.00675402
0.00683154
0.00687273
0.00691715
0.00695659
0.00699017
0.00702494
0.00703757
0.00704478
0.0070785
0.00240871
0.00322668
0.00389532
0.00442242
0.00485898
0.00521953
0.00552948
0.00578921
0.00601313
0.00621976
0.00641365
0.00659526
0.0067611
0.00689806
0.00700029
0.00707509
0.00713516
0.00718009
0.00721763
0.00725136
0.00727813
0.00730483
0.00734586
0.00240891
0.00324508
0.0039187
0.00445054
0.00489794
0.00527536
0.00560047
0.00588101
0.0061264
0.00634844
0.00655237
0.00674174
0.00691914
0.00707373
0.00719558
0.0072905
0.0073658
0.00742088
0.00746325
0.00749851
0.00752968
0.00756183
0.00760061
0.00240424
0.00326063
0.00394005
0.00447887
0.00493434
0.00532555
0.00566596
0.00596484
0.00623064
0.00647116
0.00669065
0.00689386
0.00708473
0.00725463
0.00739449
0.00750784
0.00759896
0.00766715
0.00771659
0.00775515
0.00778932
0.00782376
0.00786047
0.00240049
0.00327315
0.00396218
0.00450931
0.00497314
0.00537633
0.00573107
0.00604677
0.00633155
0.00659067
0.00682712
0.00704504
0.00724767
0.00742959
0.00758468
0.00771519
0.00782336
0.00790713
0.00796839
0.00801567
0.00805662
0.00809518
0.00813182
0.00240357
0.00328862
0.00398878
0.00454517
0.00501792
0.00543191
0.0057999
0.00613116
0.0064329
0.00670885
0.00696098
0.00719276
0.00740666
0.00759986
0.00776893
0.00791495
0.00803934
0.00814
0.00821722
0.00827837
0.0083306
0.00837696
0.0084171
0.00240294
0.00330644
0.00402014
0.0045872
0.00506984
0.00549456
0.00587505
0.00622051
0.00653714
0.0068277
0.00709387
0.00733881
0.00756437
0.00776942
0.00795233
0.00811363
0.00825389
0.00837193
0.00846737
0.00854552
0.00861218
0.00866957
0.00871714
0.00240882
0.00332706
0.00405672
0.00463571
0.00512914
0.00556499
0.00595769
0.00631617
0.00664579
0.00694922
0.00722863
0.00748669
0.00772485
0.00794294
0.00814052
0.00831777
0.00847465
0.00861056
0.00872528
0.00882214
0.0089052
0.00897613
0.00903445
0.00240226
0.00335285
0.00409902
0.00469094
0.00519588
0.0056432
0.00604797
0.00641873
0.00676053
0.00707646
0.00736921
0.00764102
0.00789311
0.0081258
0.00833915
0.00853325
0.00870792
0.00886265
0.00899739
0.00911407
0.00921528
0.00930214
0.00937416
0.00240196
0.00338105
0.00414748
0.00475317
0.00527011
0.00572911
0.0061458
0.00652867
0.00688284
0.00721193
0.00751882
0.00780548
0.00807307
0.00832209
0.00855275
0.0087651
0.00895892
0.00913376
0.00928959
0.00942744
0.00954872
0.00965395
0.00974252
0.00240158
0.00341633
0.00420234
0.00482243
0.00535181
0.00582273
0.00625142
0.00664675
0.00701416
0.00735755
0.00767979
0.00798275
0.00826758
0.00853483
0.00878472
0.00901723
0.00923208
0.00942888
0.0096075
0.00976831
0.00991183
0.010038
0.0101459
0.00240737
0.00345454
0.00426347
0.0048986
0.0054409
0.00592419
0.00636543
0.00677406
0.00715587
0.00751492
0.00785401
0.00817501
0.00847903
0.00876664
0.00903801
0.00929304
0.00953138
0.00975258
0.00995631
0.0101424
0.0103108
0.0104607
0.010591
0.00240175
0.00349884
0.00433061
0.00498149
0.00553734
0.00603376
0.00648853
0.00691163
0.00730924
0.0076855
0.00804323
0.00838427
0.00870972
0.00902013
0.00931561
0.00959597
0.00986074
0.0101093
0.0103411
0.0105555
0.0107517
0.0109287
0.0110847
0.00240583
0.00354617
0.00440336
0.00507091
0.00564121
0.00615181
0.00662136
0.00706039
0.00747542
0.00787071
0.00824913
0.00861252
0.00896198
0.00929803
0.0096207
0.00992968
0.0102243
0.0105039
0.0107673
0.0110137
0.0112415
0.0114493
0.0116349
0.00240126
0.00359678
0.00448138
0.00516672
0.0057526
0.00627865
0.00676447
0.00722114
0.00765547
0.00807191
0.0084734
0.00886183
0.0092383
0.00960329
0.00995674
0.0102982
0.0106268
0.0109415
0.011241
0.0115236
0.0117875
0.0120307
0.0122505
0.00240341
0.00365311
0.00456447
0.00526878
0.00587154
0.00641454
0.00691834
0.00739457
0.00785038
0.00829042
0.00871775
0.00913434
0.0095413
0.00993906
0.0103275
0.0107059
0.0110733
0.0114282
0.0117688
0.012093
0.0123984
0.0126822
0.0129414
0.00240588
0.00371148
0.00465241
0.00537699
0.00599806
0.00655967
0.00708336
0.00758132
0.00806108
0.00852752
0.00898389
0.00943223
0.00987371
0.0103087
0.010737
0.0111578
0.0115696
0.0119706
0.0123585
0.0127306
0.0130837
0.0134145
0.0137193
0.00241112
0.00377275
0.00474492
0.00549112
0.00613209
0.00671412
0.00725981
0.00778193
0.00828842
0.00878446
0.0092735
0.00975775
0.0102384
0.0107159
0.0111898
0.0116591
0.0121221
0.0125762
0.0130187
0.0134461
0.0138545
0.0142397
0.0145973
0.00240829
0.0038383
0.00484172
0.0056109
0.00627342
0.00687786
0.00744786
0.00799682
0.00853315
0.00906238
0.00958823
0.0101131
0.0106384
0.0111644
0.0116907
0.0122159
0.0127378
0.0132535
0.0137593
0.0142509
0.0147233
0.0151715
0.0155901
0.00240611
0.00390646
0.0049423
0.00573587
0.00642174
0.00705071
0.0076475
0.00822624
0.00879583
0.00936226
0.0099296
0.0105005
0.0110766
0.0116581
0.0122446
0.0128344
0.0134247
0.0140118
0.0145912
0.0151574
0.0157043
0.0162256
0.0167147
0.00241367
0.00397592
0.00504588
0.00586539
0.00657652
0.00723228
0.00785855
0.00847021
0.00907682
0.00968488
0.0102989
0.010922
0.0115558
0.012201
0.0128568
0.0135213
0.014191
0.0148614
0.0155266
0.0161798
0.0168135
0.0174197
0.0179905
0.0024122
0.00404816
0.00515191
0.00599885
0.00673713
0.00742198
0.0080805
0.00872847
0.00937614
0.0100307
0.0106971
0.0113792
0.0120788
0.0127969
0.0135326
0.0142836
0.0150458
0.0158133
0.016579
0.0173341
0.0180691
0.0187742
0.0194394
0.00240937
0.00412089
0.00525989
0.00613547
0.00690265
0.00761889
0.00831255
0.00900035
0.00969337
0.0103995
0.0111248
0.0118732
0.0126477
0.0134492
0.0142771
0.0151284
0.0159984
0.0168798
0.0177634
0.0186381
0.0194919
0.0203121
0.0210865
0.00241148
0.00419389
0.00536819
0.00627384
0.0070717
0.00782167
0.00855342
0.00928469
0.0100275
0.0107908
0.0115815
0.0124046
0.0132638
0.0141606
0.0150946
0.0160625
0.0170585
0.0180736
0.0190961
0.0201118
0.0211051
0.0220599
0.0229608
0.00241136
0.0042656
0.00547525
0.00641197
0.00724233
0.00802847
0.00880136
0.0095798
0.010377
0.011203
0.0120661
0.0129727
0.0139273
0.0149327
0.0159886
0.0170918
0.0182352
0.0194078
0.0205946
0.0217774
0.0229358
0.0240487
0.0250965
0.00240922
0.00433374
0.00557849
0.00654734
0.00741213
0.00823695
0.00905399
0.00988324
0.0107392
0.0116335
0.0125761
0.013575
0.0146367
0.015765
0.0169607
0.0182207
0.0195368
0.0208956
0.022278
0.0236601
0.025015
0.0263148
0.0275341
0.00240388
0.00439354
0.00567408
0.00667659
0.00757813
0.0084443
0.00930842
0.0101918
0.0111106
0.0120783
0.0131071
0.0142073
0.0153877
0.0166544
0.0180097
0.019451
0.0209697
0.0225493
0.0241658
0.0257877
0.0273788
0.0289016
0.0303217
0.00240621
0.00444147
0.00575707
0.00679581
0.00773709
0.0086474
0.00956128
0.0105016
0.0114864
0.0125319
0.0136527
0.0148625
0.0161732
0.017594
0.01913
0.0207803
0.0225362
0.0243787
0.0262774
0.0281909
0.0300696
0.0318612
0.0335186
0.00240626
0.00447043
0.00582218
0.00690093
0.00788566
0.00884304
0.00980882
0.0108078
0.0118608
0.0129868
0.0142041
0.0155303
0.0169816
0.0185718
0.0203102
0.0221996
0.0242326
0.0263886
0.0286302
0.0309027
0.0331369
0.0352577
0.0371982
0.00241296
0.00447497
0.00586412
0.00698832
0.00802099
0.00902821
0.0100471
0.0111052
0.0122264
0.0134337
0.0147495
0.0161965
0.0177964
0.0195691
0.0215308
0.0236902
0.0260448
0.0285745
0.0312357
0.0339569
0.0366398
0.0391726
0.0414548
0.00241063
0.00444398
0.00587751
0.00705537
0.00814149
0.00920062
0.0102722
0.0113875
0.0125747
0.0138611
0.0152743
0.0168427
0.0185949
0.0205592
0.022761
0.0252198
0.0279425
0.0309154
0.0340924
0.0373835
0.0406486
0.0437126
0.0464135
0.00241481
0.00437207
0.00585788
0.00710191
0.00824763
0.00935905
0.0104803
0.0116481
0.0128957
0.0142555
0.0157608
0.0174461
0.0193483
0.0215058
0.0239571
0.0267372
0.0298709
0.0333615
0.0371718
0.0411984
0.0452453
0.049025
0.0522461
0.00240695
0.00425116
0.00580449
0.00713175
0.00834227
0.00950295
0.010667
0.011879
0.013178
0.0146018
0.0161889
0.0179805
0.020022
0.0223637
0.02506
0.0281678
0.0317406
0.0358163
0.040392
0.045377
0.0505185
0.0553315
0.0592017
0.00380053
0.00422386
0.00572494
0.00714982
0.00842804
0.0096301
0.010826
0.0120705
0.013409
0.0148836
0.0165373
0.0184175
0.0205777
0.0230802
0.025997
0.0294117
0.0334176
0.0381113
0.0435699
0.0497892
0.0565311
0.0630167
0.0676581
0.0176908
0.00563299
0.00563727
0.00715065
0.00850086
0.00973254
0.0109467
0.0122108
0.013575
0.0150845
0.0167854
0.0187295
0.0209771
0.0236004
0.0266877
0.0303488
0.0347219
0.039982
0.0463452
0.0540431
0.0631622
0.0728991
0.0782002
0.0840069
0.0137837
0.0057428
0.00713627
0.00854745
0.00979393
0.0110144
0.0122865
0.0136629
0.01519
0.0169154
0.0188932
0.0211873
0.023876
0.0270575
0.0308589
0.0354514
0.0410773
0.0481049
0.057149
0.0693607
0.087177
0.0916391
0.0025218
0.00210969
0.00207107
0.00239104
0.00434003
0.00425407
0.00423489
0.00428384
0.00523581
0.00521646
0.00520211
0.00519615
0.00591616
0.00592421
0.00590335
0.00587098
0.0064215
0.00645866
0.00644546
0.00638448
0.00680253
0.00682064
0.00682996
0.00680174
0.00714374
0.00717892
0.00718596
0.00715486
0.00739707
0.00742698
0.00743784
0.00742217
0.00763609
0.00765616
0.00766663
0.0076629
0.00788798
0.00790289
0.00791151
0.00791177
0.00815536
0.0081674
0.00817435
0.00817561
0.00844004
0.00845138
0.00845816
0.00846013
0.00874321
0.00875621
0.00876473
0.00876853
0.00906681
0.00908353
0.00909556
0.00910265
0.0094153
0.00943734
0.00945438
0.00946616
0.00979463
0.00982336
0.00984673
0.00986451
0.0102111
0.0102479
0.010279
0.0103041
0.0106715
0.0107178
0.010758
0.0107918
0.0111831
0.0112404
0.0112913
0.0113355
0.011754
0.0118242
0.0118876
0.0119439
0.0123935
0.0124787
0.0125567
0.0126271
0.0131122
0.0132148
0.0133097
0.0133964
0.0139222
0.0140449
0.0141593
0.0142649
0.0148372
0.0149831
0.0151199
0.0152472
0.0158728
0.0160453
0.016208
0.0163602
0.0170467
0.0172498
0.0174421
0.0176228
0.018379
0.0186172
0.0188433
0.0190564
0.0198928
0.0201711
0.0204357
0.0206856
0.0216142
0.0219384
0.0222466
0.022538
0.0235737
0.0239501
0.0243077
0.0246457
0.0258071
0.0262426
0.0266558
0.0270457
0.0283562
0.0288588
0.0293342
0.0297815
0.0312716
0.0318498
0.0323944
0.0329045
0.0346145
0.0352776
0.0358982
0.0364759
0.0384608
0.0392183
0.0399212
0.0405696
0.0429067
0.0437674
0.0445565
0.0452758
0.0480766
0.0490463
0.0499205
0.0507041
0.0541355
0.0552111
0.0561579
0.0569874
0.0613064
0.0624627
0.0634467
0.0642819
0.06989
0.0710513
0.0719924
0.0727574
0.080265
0.0812506
0.0819943
0.0825643
0.0927737
0.0932332
0.0935412
0.0937583
0.00335505
0.00387689
0.00414412
0.00428748
0.00436043
0.00438752
0.00437857
0.00433126
0.00424506
0.00413197
0.00399272
0.0038225
0.00362131
0.00339158
0.00312389
0.00280868
0.00242682
0.00192285
0.000978491
0.00442634
0.00460861
0.00473255
0.00480692
0.00484279
0.00484927
0.00483193
0.00478952
0.00472034
0.00462921
0.00451211
0.00434967
0.00413314
0.00386103
0.00353038
0.00315839
0.00272636
0.00215252
0.00105638
0.00519844
0.00523375
0.00526431
0.00528917
0.00530074
0.00529719
0.00527992
0.00524709
0.00519489
0.0051219
0.00502068
0.00485287
0.00460305
0.00428828
0.00390414
0.00347625
0.0029836
0.00232225
0.0010779
0.00582319
0.00578764
0.0057495
0.00574373
0.00574254
0.00573603
0.00572384
0.00570372
0.00566815
0.00561404
0.0055297
0.00534796
0.0050424
0.00469233
0.00426038
0.00377771
0.00322836
0.00249819
0.00122792
0.00629443
0.00622367
0.00617697
0.00615468
0.00613491
0.0061187
0.00610477
0.00608534
0.00603895
0.00595043
0.00583402
0.0056964
0.00543223
0.00500814
0.00457516
0.0040697
0.00347851
0.00270787
0.00135815
0.00673733
0.00664754
0.00656244
0.00651579
0.00648291
0.0064531
0.00641393
0.00636009
0.00628298
0.00616891
0.00605237
0.0059152
0.0056457
0.00528262
0.00485607
0.00433057
0.00370523
0.00286762
0.00136637
0.00707774
0.00698679
0.00690447
0.00684632
0.00680011
0.00675759
0.00669506
0.00660364
0.00649472
0.00636542
0.00623453
0.00610676
0.00586979
0.00545767
0.00503875
0.00454412
0.0039388
0.00310368
0.0019341
0.00737009
0.00728949
0.00720943
0.00714214
0.00708549
0.00702358
0.00692978
0.00681035
0.00667884
0.00653409
0.00638617
0.00622085
0.00593956
0.00553076
0.00509298
0.00460562
0.00401653
0.00320988
0.00194873
0.0076369
0.00757704
0.00750504
0.00742985
0.00735744
0.00726809
0.00714581
0.0070047
0.00685188
0.00668532
0.00650175
0.00628337
0.00597408
0.00556734
0.00510332
0.00459038
0.00399047
0.00319558
0.00194766
0.00789998
0.00785971
0.00779749
0.00771708
0.00762819
0.00751462
0.00736894
0.00720382
0.0070242
0.00682675
0.00660082
0.0063241
0.00596927
0.00555242
0.00507495
0.00453806
0.00391538
0.00311677
0.00194838
0.00816953
0.00813932
0.00808363
0.00800176
0.00790092
0.00776986
0.00760434
0.00741553
0.00720717
0.00697502
0.00670758
0.00638263
0.00598001
0.00552391
0.00502641
0.00446792
0.0038196
0.00300793
0.00194728
0.00845599
0.00842773
0.00837326
0.00829056
0.00818105
0.0080373
0.00785802
0.00765017
0.0074158
0.00715095
0.00684594
0.00648279
0.00604282
0.00553665
0.00499319
0.00439873
0.00372178
0.00290874
0.00194638
0.00876691
0.00873957
0.00868453
0.00859974
0.00848347
0.00833122
0.00814261
0.00792025
0.00766441
0.00737174
0.00703476
0.00664025
0.00617199
0.00562657
0.00502476
0.00437336
0.00365759
0.00284084
0.00194639
0.00910587
0.00908258
0.00902899
0.00894308
0.00882263
0.00866522
0.00846991
0.00823668
0.0079645
0.00765028
0.00728824
0.00686889
0.00637969
0.00581023
0.00516166
0.00444643
0.00367567
0.00283568
0.00194655
0.00947654
0.00946091
0.00941234
0.00932861
0.00920783
0.00904834
0.00884882
0.00860808
0.00832436
0.00799479
0.00761478
0.00717751
0.00667361
0.0060916
0.005421
0.00466295
0.00383469
0.00292531
0.0019256
0.00988427
0.00987967
0.00983977
0.0097621
0.00964485
0.0094865
0.00928563
0.00904064
0.00874957
0.00840981
0.00801777
0.0075684
0.00705481
0.00646749
0.00579418
0.00502575
0.00416293
0.00314549
0.00190716
0.0103354
0.0103451
0.0103172
0.0102492
0.010139
0.00998496
0.00978564
0.00953938
0.00924426
0.00889805
0.00849795
0.00804031
0.00752021
0.00693069
0.00626169
0.00549969
0.00462133
0.00350851
0.00191111
0.0108372
0.0108643
0.0108518
0.0107966
0.0106965
0.0105497
0.0103546
0.0101095
0.00981259
0.00946206
0.00905569
0.00859083
0.00806395
0.00746991
0.00680029
0.0060388
0.00514353
0.00396319
0.00195438
0.0113975
0.0114456
0.0114517
0.0114124
0.0113253
0.0111883
0.0109995
0.0107573
0.0104599
0.0101056
0.00969266
0.00921887
0.00868134
0.00807544
0.00739245
0.00661251
0.00568266
0.00443233
0.00212982
0.0120254
0.0120984
0.0121265
0.0121062
0.0120348
0.0119098
0.0117291
0.0114908
0.0111932
0.0108346
0.0104131
0.00992656
0.009372
0.00874419
0.00803268
0.00721281
0.00622627
0.00487941
0.0023444
0.0127313
0.0128333
0.0128872
0.0128892
0.0128362
0.0127252
0.012554
0.0123203
0.0120221
0.0116575
0.0112243
0.01072
0.0101408
0.00948025
0.00872585
0.00785078
0.00678694
0.00532039
0.00253576
0.0135271
0.0136627
0.0137465
0.0137742
0.0137422
0.0136473
0.0134868
0.0132579
0.0129583
0.0125855
0.0121369
0.011609
0.0109973
0.0102943
0.00948524
0.00853918
0.00738058
0.00577676
0.0027261
0.0144261
0.0146006
0.0147185
0.0147755
0.0147675
0.0146907
0.0145419
0.014318
0.014016
0.0136325
0.0131644
0.0126074
0.011956
0.0112008
0.010325
0.00929404
0.00802591
0.00626998
0.00293721
0.0154436
0.0156625
0.0158195
0.0159097
0.0159286
0.015872
0.0157361
0.0155171
0.0152115
0.0148151
0.0143238
0.0137322
0.0130334
0.0122163
0.0112622
0.0101333
0.00874163
0.00681851
0.00318407
0.0165968
0.0168663
0.0170675
0.017195
0.0172439
0.0172096
0.0170878
0.0168741
0.016564
0.0161526
0.0156344
0.0150026
0.0142488
0.0133604
0.0123163
0.0110759
0.0095453
0.0074359
0.00346642
0.0179052
0.0182319
0.0184827
0.0186518
0.018734
0.0187243
0.018618
0.0184101
0.0180949
0.0176666
0.017118
0.0164409
0.0156248
0.0146553
0.013509
0.0121421
0.0104541
0.0081332
0.00378054
0.0193909
0.0197819
0.0200878
0.0203029
0.0204216
0.020439
0.0203498
0.0201482
0.0198278
0.0193811
0.0187994
0.0180723
0.0171871
0.0161267
0.0148651
0.0133547
0.011487
0.00892281
0.00412752
0.0210787
0.0215413
0.0219081
0.0221734
0.022332
0.0223788
0.0223083
0.0221142
0.0217889
0.0213234
0.0207067
0.0199259
0.0189653
0.0178045
0.0164138
0.0147407
0.0126667
0.00982023
0.0045061
0.0229969
0.0235386
0.0239719
0.0242915
0.0244928
0.0245712
0.0245213
0.0243362
0.0240072
0.0235234
0.0228713
0.0220346
0.0209938
0.0197239
0.0181902
0.0163335
0.0140231
0.0108497
0.00493062
0.0251777
0.025806
0.0263108
0.026688
0.0269344
0.0270464
0.0270189
0.0268448
0.0265143
0.0260143
0.0253283
0.0244359
0.0233123
0.0219265
0.0202367
0.018175
0.015596
0.0120471
0.00543502
0.0276586
0.0283803
0.0289605
0.0293976
0.0296904
0.0298371
0.0298338
0.0296732
0.0293446
0.0288326
0.0281169
0.027172
0.0259664
0.0244611
0.0226044
0.0203168
0.0174346
0.0134563
0.00605008
0.0304828
0.0313034
0.0319612
0.0324584
0.0327975
0.0329792
0.0330014
0.0328573
0.0325353
0.0320175
0.0312796
0.0302899
0.0290083
0.0273849
0.0253548
0.0228218
0.0195987
0.0151258
0.0067909
0.0337006
0.0346233
0.0353581
0.0359131
0.036296
0.0365115
0.0365599
0.0364355
0.0361261
0.0356115
0.0348629
0.0338415
0.0324966
0.0307643
0.0285609
0.0257669
0.0221623
0.0171137
0.00766961
0.0373718
0.0383957
0.0392025
0.0398091
0.0402303
0.0404763
0.0405504
0.040449
0.0401594
0.0396596
0.0389163
0.0378827
0.0364964
0.0346751
0.0323102
0.0292482
0.0252214
0.0195002
0.00872088
0.0415666
0.0426845
0.0435522
0.0441991
0.0446494
0.0449196
0.0450176
0.0449416
0.0446798
0.0442088
0.0434911
0.0424727
0.0410779
0.039203
0.0367065
0.0333864
0.0289042
0.0223983
0.00999535
0.0463686
0.0475632
0.0484722
0.0491414
0.0496067
0.0498919
0.0500096
0.0499607
0.0497347
0.0493078
0.0486401
0.0476715
0.0463136
0.0444402
0.0418693
0.0383324
0.0333846
0.025971
0.0115642
0.0518758
0.0531152
0.0540345
0.0547006
0.0551616
0.055449
0.0555796
0.0555576
0.0553743
0.0550069
0.0544155
0.0535369
0.0522741
0.0504803
0.0479301
0.0442705
0.0388996
0.0304631
0.0135387
0.0582012
0.0594324
0.0603179
0.060947
0.0613796
0.0616529
0.0617874
0.0617895
0.0616531
0.0613584
0.0608682
0.0601216
0.0590204
0.0574063
0.0550184
0.0514114
0.0457704
0.0362629
0.0161264
0.0654689
0.0666124
0.0674058
0.0679574
0.0683338
0.0685747
0.0687014
0.068722
0.0686329
0.0684186
0.0680486
0.0674705
0.0665958
0.0652733
0.0632322
0.0599603
0.0544046
0.0440008
0.0197034
0.0738034
0.0747517
0.0753846
0.0758152
0.0761073
0.0762968
0.0764028
0.0764329
0.0763861
0.0762521
0.0760097
0.0756212
0.0750203
0.0740874
0.0725897
0.0700324
0.0652238
0.0546908
0.0249835
0.0833064
0.0839364
0.0843417
0.0846128
0.0847965
0.0849177
0.0849896
0.0850177
0.0850024
0.0849385
0.0848153
0.0846125
0.0842947
0.0837948
0.0829735
0.081495
0.0783753
0.0697518
0.0335296
0.0940238
0.0942358
0.0943686
0.0944569
0.094517
0.0945577
0.0945832
0.0945958
0.0945958
0.0945822
0.0945526
0.0945027
0.0944252
0.0943072
0.0941218
0.0937957
0.0930235
0.0896902
0.0470301
)
;

boundaryField
{
    leftWall
    {
        type            kqRWallFunction;
        value           nonuniform List<scalar> 
50
(
0.000111219
0.000244095
0.000350419
0.000441649
0.000521652
0.000594258
0.000662614
0.000731043
0.00082364
0.000952029
0.00110508
0.00134068
0.00171431
0.00156387
0.00226457
0.00240871
0.00240891
0.00240424
0.00240049
0.00240357
0.00240294
0.00240882
0.00240226
0.00240196
0.00240158
0.00240737
0.00240175
0.00240583
0.00240126
0.00240341
0.00240588
0.00241112
0.00240829
0.00240611
0.00241367
0.0024122
0.00240937
0.00241148
0.00241136
0.00240922
0.00240388
0.00240621
0.00240626
0.00241296
0.00241063
0.00241481
0.00240695
0.00380053
0.0176908
0.0840069
)
;
    }
    rightWall
    {
        type            kqRWallFunction;
        value           nonuniform List<scalar> 
50
(
0.000115582
0.000232671
0.000339957
0.000444742
0.000547702
0.000650418
0.000754744
0.000866144
0.000978491
0.00105638
0.0010779
0.00122792
0.00135815
0.00136637
0.0019341
0.00194873
0.00194766
0.00194838
0.00194728
0.00194638
0.00194639
0.00194655
0.0019256
0.00190716
0.00191111
0.00195438
0.00212982
0.0023444
0.00253576
0.0027261
0.00293721
0.00318407
0.00346642
0.00378054
0.00412752
0.0045061
0.00493062
0.00543502
0.00605008
0.0067909
0.00766961
0.00872088
0.00999535
0.0115642
0.0135387
0.0161264
0.0197034
0.0249835
0.0335296
0.0470301
)
;
    }
    lowerWall
    {
        type            kqRWallFunction;
        value           nonuniform List<scalar> 
62
(
0.000111219
0.000284247
0.000418713
0.000524785
0.000612448
0.000686291
0.000748932
0.000802094
0.000846901
0.000884771
0.000917798
0.000947849
0.000975312
0.000997069
0.00100513
0.000985849
0.000934568
0.000856815
0.000757099
0.00064619
0.000543703
0.000393028
0.000189485
0.000189485
0.000425308
0.000597443
0.00077112
0.000969978
0.00120786
0.00152647
0.00215273
0.0025218
0.00210969
0.00207107
0.00239104
0.000270624
0.000485802
0.000580765
0.000667675
0.000808987
0.00101196
0.00132778
0.00196059
0.000270624
0.000587379
0.000785781
0.000867874
0.000911336
0.000932124
0.000937176
0.000935456
0.000901302
0.000827699
0.000732869
0.000625713
0.000568897
0.000565166
0.00054984
0.000501431
0.000389268
0.000269015
0.000115582
)
;
    }
    atmosphere
    {
        type            inletOutlet;
        inletValue      uniform 0.1;
        value           nonuniform List<scalar> 
46
(
0.1
0.0137837
0.0057428
0.00713627
0.00854745
0.00979393
0.0110144
0.0122865
0.0136629
0.01519
0.0169154
0.0188932
0.0211873
0.023876
0.0270575
0.0308589
0.0354514
0.0410773
0.0481049
0.057149
0.0693607
0.1
0.1
0.1
0.1
0.1
0.1
0.1
0.1
0.1
0.1
0.1
0.1
0.1
0.1
0.1
0.1
0.1
0.1
0.1
0.1
0.1
0.1
0.1
0.1
0.0470301
)
;
    }
    defaultFaces
    {
        type            empty;
    }
}


// ************************************************************************* //
