/*--------------------------------*- C++ -*----------------------------------*\
  =========                 |
  \\      /  F ield         | OpenFOAM: The Open Source CFD Toolbox
   \\    /   O peration     | Website:  https://openfoam.org
    \\  /    A nd           | Version:  9
     \\/     M anipulation  |
\*---------------------------------------------------------------------------*/
FoamFile
{
    format      ascii;
    class       volScalarField;
    location    "270";
    object      epsilon;
}
// * * * * * * * * * * * * * * * * * * * * * * * * * * * * * * * * * * * * * //

dimensions      [0 2 -3 0 0 0 0];

internalField   nonuniform List<scalar> 
12225
(
285.524
270.701
257.922
243.803
232.471
223.073
216.825
212.694
212.74
213.959
217.232
220.908
228.092
232.646
241.421
246.064
256.313
254.714
52.4934
91.8805
106.975
114.745
124.843
136.778
152.685
169.897
191.089
210.922
235.181
255.466
280.96
299.3
324.531
339.425
363.229
378.39
20.5288
34.8721
44.6755
50.4689
55.3949
59.6071
64.6617
69.643
76.3103
83.1822
91.4211
99.3115
108.145
116.914
125.493
135.233
142.414
153.751
16.0023
19.4864
24.0814
27.5638
30.496
32.8697
35.1538
37.2938
39.5001
41.9175
44.3321
47.1998
49.6734
53.0323
55.396
59.2274
61.3477
65.6358
15.0385
15.7124
17.399
19.0786
20.6389
22.0261
23.2455
24.4311
25.4431
26.5943
27.522
28.7567
29.6297
30.9821
31.8071
33.2645
34.0334
35.6495
14.7897
14.8256
15.2495
15.8677
16.5675
17.2871
17.9235
18.5841
19.1188
19.7336
20.1927
20.7981
21.2074
21.821
22.1954
22.8258
23.1567
23.8616
14.7657
14.6146
14.6409
14.7258
14.935
15.22
15.4915
15.8088
16.0708
16.3824
16.6179
16.9198
17.1304
17.4263
17.6145
17.9127
18.0691
18.4087
14.7687
14.5866
14.466
14.3801
14.3677
14.3896
14.4394
14.5334
14.6185
14.7365
14.8307
14.9563
15.0474
15.1759
15.2602
15.3925
15.4617
15.6221
14.768
14.591
14.4349
14.2963
14.185
14.1044
14.0399
14.0066
13.9814
13.9785
13.9808
13.9917
14.0036
14.0298
14.046
14.0808
14.0964
14.1507
14.7665
14.594
14.432
14.282
14.143
14.0219
13.9115
13.8194
13.737
13.6698
13.6102
13.5633
13.5181
13.4872
13.4515
13.4342
13.4016
13.4008
14.7659
14.5945
14.4322
14.2803
14.1362
14.0032
13.8782
13.7644
13.6582
13.5629
13.4736
13.3952
13.3198
13.2561
13.1916
13.1408
13.0838
13.0451
14.7657
14.5943
14.4321
14.2798
14.1353
13.9998
13.8715
13.7518
13.6385
13.5337
13.4341
13.343
13.2557
13.1771
13.1003
13.0328
12.9647
12.9074
14.7657
14.5941
14.432
14.2794
14.1349
13.9989
13.8699
13.7485
13.6332
13.525
13.422
13.3257
13.2338
13.1484
13.0663
12.9906
12.9172
12.8502
14.7657
14.5939
14.4318
14.279
14.1346
13.9983
13.8691
13.7472
13.6315
13.5223
13.4184
13.3204
13.227
13.139
13.055
12.9759
12.9002
12.8291
14.7657
14.5938
14.4317
14.2787
14.1342
13.9977
13.8686
13.7464
13.6307
13.5211
13.4171
13.3185
13.2248
13.136
13.0516
12.9714
12.8951
12.8227
14.7657
14.5937
14.4315
14.2785
14.1339
13.9973
13.8681
13.7458
13.63
13.5202
13.4161
13.3174
13.2236
13.1346
13.05
12.9696
12.8931
12.8204
14.7657
14.5937
14.4315
14.2783
14.1337
13.997
13.8677
13.7453
13.6294
13.5195
13.4154
13.3165
13.2227
13.1336
13.0489
12.9684
12.8918
12.819
14.7657
14.5937
14.4314
14.2782
14.1335
13.9968
13.8674
13.7449
13.629
13.5191
13.4148
13.3159
13.222
13.1328
13.0481
12.9675
12.8908
12.8179
14.7657
14.5937
14.4314
14.2782
14.1335
13.9967
13.8673
13.7448
13.6288
13.5189
13.4146
13.3156
13.2217
13.1325
13.0477
12.967
12.8904
12.8174
14.7657
14.5937
14.4314
14.2782
14.1336
13.9968
13.8674
13.745
13.629
13.519
13.4148
13.3158
13.2219
13.1327
13.0479
12.9673
12.8906
12.8177
14.7657
14.5937
14.4315
14.2784
14.1337
13.997
13.8677
13.7453
13.6294
13.5195
13.4154
13.3166
13.2229
13.1338
13.0493
12.9689
12.8926
12.8199
14.7657
14.5937
14.4316
14.2785
14.1341
13.9974
13.8685
13.7464
13.6312
13.522
13.419
13.3213
13.2293
13.1418
13.0594
12.981
12.9073
12.8368
14.7659
14.5937
14.4318
14.2788
14.1353
14.0002
13.8742
13.756
13.6463
13.5435
13.4485
13.3591
13.277
13.1992
13.1282
13.0601
12.9988
12.9386
14.7661
14.5928
14.4329
14.2844
14.1515
14.0321
13.9289
13.8375
13.7593
13.6893
13.6306
13.5769
13.5328
13.4905
13.4574
13.423
13.3989
13.3693
14.7641
14.5936
14.461
14.3603
14.3029
14.2767
14.2796
14.294
14.3202
14.3529
14.3959
14.4345
14.4825
14.5217
14.572
14.609
14.6617
14.6939
14.757
14.6921
14.7579
14.9172
15.1828
15.4611
15.7475
16.0121
16.2723
16.5038
16.7361
16.9387
17.1508
17.331
17.5311
17.6938
17.889
18.0362
14.9575
15.4344
16.5693
17.6884
18.7053
19.5678
20.3373
20.9969
21.6196
22.1662
22.7191
23.2111
23.7403
24.2047
24.7332
25.1832
25.7256
26.1666
16.2579
20.9389
25.015
27.7588
29.7845
31.3586
32.7769
34.0586
35.3596
36.6168
37.9761
39.298
40.7626
42.147
43.7193
45.1755
46.8858
48.3608
29.9428
47.2251
54.8706
58.6738
61.6142
64.4327
67.5804
70.9803
74.7397
78.7163
82.9881
87.348
91.9096
96.4555
101.106
105.629
110.183
114.585
165.79
160.073
154.899
149.564
144.479
139.678
135.613
132.11
129.27
126.973
125.32
124.045
123.34
122.83
122.826
122.983
123.27
123.828
0.172752
0.21804
0.406563
0.574258
0.738226
0.923327
1.13828
1.39293
1.69105
2.02959
2.40056
2.79458
3.20216
3.61519
4.02653
4.43059
4.82296
5.20093
5.56341
5.91134
6.24731
6.5755
6.9003
7.22558
7.55316
7.8906
8.23611
8.57053
8.88738
9.17587
40.1518
41.3494
42.1818
42.5981
42.719
42.4919
41.9398
40.0207
9.02201
9.22518
9.44903
40.1143
44.6741
47.0272
50.7711
54.1104
57.9057
61.7279
65.7917
69.9896
74.3799
78.9369
83.6781
88.5995
93.7078
99.0048
104.494
110.178
116.06
122.142
128.426
134.915
141.608
148.509
155.616
162.932
170.453
178.181
186.112
194.247
202.58
211.111
219.833
228.745
237.837
247.109
256.55
266.155
275.915
285.824
295.869
306.045
316.336
326.736
337.227
347.802
358.441
369.135
379.861
390.606
401.347
412.059
422.719
433.3
443.777
454.13
464.357
474.5
484.572
494.479
504.251
513.86
523.297
532.543
541.582
550.4
558.979
567.305
575.363
583.138
590.615
597.781
604.62
611.122
617.272
623.06
628.472
633.499
638.131
642.358
646.172
649.566
652.533
655.067
657.164
658.821
660.033
660.811
661.186
661.053
660.407
659.292
657.853
656.057
653.737
651.021
647.892
644.366
640.456
636.171
631.523
626.522
621.189
615.537
609.585
603.349
596.846
590.093
583.109
575.913
568.522
560.956
553.234
545.375
537.399
529.325
521.173
512.963
504.715
496.458
488.232
480.169
473.359
469.505
466.27
463.097
459.948
456.823
453.731
450.676
447.666
444.698
441.77
438.861
435.939
432.919
429.644
425.673
419.984
396.17
0.880594
0.545696
0.552988
0.626008
0.738357
0.884184
1.06517
1.28288
1.53653
1.82265
2.13591
2.47031
2.82008
3.18022
3.54663
3.91638
4.28784
4.66099
5.03777
5.42237
5.82171
6.24601
6.70986
7.23418
7.84983
8.605
9.57705
10.8928
12.7711
15.5891
19.9802
20.7387
21.059
21.1558
21.0219
20.5984
20.1489
19.5488
18.6072
21.4501
23.5164
26.9396
28.3898
30.0085
31.7548
33.5117
35.3607
37.2575
39.2278
41.2609
43.3646
45.5372
47.7816
50.0981
52.4883
54.953
57.4929
60.109
62.8016
65.5713
68.4184
71.3431
74.3452
77.4248
80.5814
83.8146
87.1235
90.5076
93.9655
97.4963
101.098
104.77
108.509
112.314
116.183
120.112
124.1
128.143
132.238
136.381
140.569
144.799
149.064
153.363
157.688
162.035
166.398
170.772
175.149
179.523
183.886
188.231
192.55
196.838
201.091
205.315
209.524
213.753
218.013
222.208
226.351
230.432
234.447
238.387
242.248
246.023
249.707
253.293
256.775
260.147
263.404
266.54
269.55
272.429
275.171
277.771
280.225
282.529
284.678
286.668
288.497
290.159
291.654
292.977
294.127
295.102
295.901
296.523
296.967
297.213
297.267
297.146
296.872
296.438
295.805
295.004
294.032
292.893
291.592
290.133
288.518
286.754
284.845
282.799
280.62
278.315
275.889
273.351
270.706
267.962
265.125
262.204
259.205
256.136
253.005
249.82
246.588
243.319
240.02
236.703
233.386
230.12
227.133
224.727
222.521
220.366
218.236
216.126
214.04
211.979
209.947
207.946
205.977
204.042
202.139
200.269
198.416
196.636
194.825
191.853
1.87719
0.967792
0.872776
0.909551
1.00253
1.13787
1.31233
1.52442
1.77177
2.05048
2.3556
2.68197
3.02485
3.38032
3.74546
4.11847
4.49874
4.88708
5.28594
5.69971
6.13506
6.60144
7.11165
7.68263
8.33629
9.09983
10.0042
11.0778
12.3293
13.7056
15.0293
15.746
16.3045
16.8093
17.2968
17.8106
18.4299
19.2133
20.2715
21.8092
23.2835
24.7943
26.1239
27.5117
28.9572
30.4514
32.001
33.6021
35.2577
36.9674
38.7325
40.5534
42.4309
44.3656
46.358
48.4086
50.518
52.6865
54.9144
57.202
59.5494
61.9568
64.4242
66.9511
69.5374
72.1825
74.886
77.6472
80.4654
83.3396
86.2687
89.2516
92.2868
95.3728
98.5079
101.69
104.918
108.188
111.499
114.848
118.232
121.649
125.094
128.565
132.058
135.569
139.094
142.63
146.171
149.714
153.254
156.788
160.313
163.826
167.327
170.818
174.301
177.781
181.24
184.658
188.033
191.36
194.632
197.845
200.995
204.075
207.081
210.008
212.851
215.605
218.266
220.83
223.29
225.644
227.888
230.016
232.026
233.914
235.676
237.31
238.811
240.179
241.409
242.5
243.451
244.259
244.923
245.442
245.814
246.023
246.084
246.013
245.802
245.451
244.952
244.312
243.533
242.619
241.572
240.396
239.094
237.67
236.129
234.475
232.714
230.849
228.886
226.831
224.689
222.465
220.166
217.797
215.364
212.874
210.333
207.747
205.123
202.467
199.786
197.09
194.391
191.72
189.165
186.825
184.598
182.42
180.271
178.146
176.047
173.975
171.934
169.926
167.955
166.025
164.142
162.32
160.574
158.992
157.585
156.324
3.0169
1.44316
1.23488
1.23607
1.31892
1.453
1.62913
1.84328
2.09217
2.37204
2.67861
3.00752
3.35487
3.7175
4.09316
4.48059
4.87954
5.29078
5.71621
6.15885
6.62296
7.11404
7.63888
8.20559
8.82338
9.50194
10.2493
11.0678
11.9458
12.8501
13.7254
14.5195
15.2974
16.0904
16.9157
17.7921
18.7425
19.7889
20.9537
22.2007
23.4702
24.7707
26.0746
27.4188
28.8099
30.2488
31.7372
33.2752
34.8641
36.5042
38.1966
39.9418
41.7406
43.5936
45.5013
47.4643
49.4831
51.5582
53.6899
55.8786
58.1246
60.4281
62.7892
65.208
67.6842
70.2178
72.8084
75.4556
78.1589
80.9175
83.7306
86.5972
89.5163
92.4864
95.5061
98.5738
101.688
104.845
108.045
111.285
114.561
117.872
121.214
124.584
127.978
131.395
134.829
138.277
141.736
145.201
148.67
152.138
155.603
159.063
162.515
165.957
169.389
172.801
176.186
179.532
182.836
186.092
189.294
192.438
195.519
198.53
201.468
204.327
207.102
209.788
212.382
214.877
217.27
219.557
221.733
223.795
225.738
227.56
229.257
230.826
232.264
233.568
234.736
235.766
236.657
237.406
238.012
238.475
238.79
238.941
238.966
238.848
238.59
238.192
237.652
236.973
236.159
235.211
234.135
232.932
231.607
230.163
228.606
226.939
225.168
223.297
221.332
219.278
217.14
214.924
212.636
210.281
207.866
205.397
202.879
200.319
197.724
195.099
192.452
189.791
187.127
184.48
181.896
179.418
177.015
174.657
172.33
170.032
167.764
165.527
163.325
161.161
159.039
156.967
154.953
153.015
151.178
149.527
148.095
146.952
4.15938
1.92873
1.6032
1.56886
1.63836
1.7684
1.94398
2.15857
2.40796
2.68837
2.99603
3.32724
3.6787
4.04777
4.43257
4.83208
5.24604
5.675
6.12017
6.58343
7.06721
7.57438
8.10823
8.67236
9.27069
9.90728
10.5858
11.3079
12.0714
12.8676
13.6852
14.5194
15.381
16.2766
17.2097
18.1832
19.2025
20.2746
21.4015
22.5913
23.8227
25.0905
26.3942
27.741
29.134
30.5748
32.0649
33.6051
35.1966
36.8402
38.537
40.2877
42.0934
43.9552
45.8738
47.8496
49.8834
51.9758
54.1276
56.3393
58.6114
60.9445
63.3389
65.795
68.3128
70.8925
73.534
76.2372
79.0018
81.8272
84.7129
87.6581
90.6617
93.7227
96.8397
100.011
103.235
106.51
109.833
113.203
116.616
120.07
123.561
127.087
130.644
134.229
137.837
141.466
145.11
148.766
152.431
156.1
159.769
163.434
167.09
170.734
174.358
177.956
181.522
185.049
188.53
191.96
195.333
198.643
201.884
205.052
208.139
211.141
214.053
216.869
219.584
222.193
224.692
227.075
229.339
231.479
233.492
235.374
237.121
238.73
240.198
241.523
242.702
243.733
244.614
245.345
245.923
246.348
246.607
246.707
246.671
246.48
246.139
245.648
245.009
244.224
243.297
242.23
241.028
239.693
238.231
236.645
234.942
233.125
231.199
229.171
227.046
224.83
222.527
220.146
217.691
215.168
212.585
209.947
207.262
204.535
201.772
198.982
196.171
193.345
190.517
187.7
184.922
182.205
179.542
176.921
174.333
171.778
169.257
166.773
164.33
161.931
159.583
157.294
155.075
152.95
150.947
149.141
147.561
146.21
5.2484
2.39941
1.9583
1.88807
1.94222
2.06576
2.2382
2.45061
2.69783
2.97598
3.28155
3.61134
3.96254
4.33289
4.72077
5.12527
5.54612
5.98368
6.43881
6.91281
7.40733
7.92426
8.46566
9.03371
9.63071
10.259
10.9211
11.6189
12.3534
13.124
13.9296
14.7705
15.6491
16.5672
17.5252
18.5237
19.5642
20.6496
21.7828
22.9648
24.1926
25.4649
26.7823
28.1465
29.5593
31.0223
32.5369
34.1044
35.726
37.4029
39.1363
40.9275
42.7774
44.6871
46.6577
48.6905
50.7868
52.9477
55.174
57.4669
59.8271
62.2556
64.753
67.3199
69.9569
72.6643
75.4424
78.2912
81.2106
84.2005
87.2603
90.3893
93.5867
96.8513
100.182
103.577
107.034
110.552
114.128
117.759
121.443
125.176
128.956
132.778
136.639
140.534
144.46
148.412
152.385
156.375
160.377
164.386
168.396
172.403
176.4
180.38
184.338
188.267
192.158
196.006
199.804
203.544
207.221
210.828
214.358
217.805
221.162
224.424
227.584
230.637
233.577
236.397
239.094
241.662
244.096
246.391
248.545
250.551
252.408
254.111
255.657
257.044
258.269
259.331
260.226
260.955
261.516
261.907
262.111
262.157
262.042
261.759
261.31
260.699
259.926
258.995
257.909
256.672
255.288
253.762
252.098
250.302
248.38
246.336
244.177
241.909
239.537
237.069
234.511
231.87
229.151
226.363
223.511
220.604
217.647
214.648
211.614
208.552
205.47
202.374
199.275
196.185
193.121
190.098
187.118
184.177
181.273
178.405
175.577
172.791
170.053
167.367
164.74
162.183
159.708
157.339
155.108
153.077
151.262
149.594
6.24548
2.83763
2.28632
2.18017
2.21743
2.33229
2.49911
2.70668
2.9489
3.22161
3.5215
3.84568
4.19174
4.55772
4.94224
5.34448
5.76422
6.20173
6.65771
7.13327
7.62976
8.14875
8.69197
9.26121
9.85831
10.4852
11.1439
11.8362
12.5639
13.3282
14.13
14.9706
15.8513
16.7731
17.7368
18.743
19.7927
20.8875
22.0293
23.2193
24.4578
25.7453
27.0827
28.4712
29.9122
31.4073
32.9579
34.5658
36.2324
37.9593
39.748
41.6
43.517
45.5004
47.5517
49.6727
51.8648
54.1296
56.4684
58.8827
61.3737
63.9427
66.5907
69.3188
72.1279
75.0185
77.9913
81.0466
84.1845
87.4049
90.7076
94.0919
97.5571
101.102
104.725
108.425
112.2
116.047
119.963
123.947
127.994
132.101
136.264
140.479
144.742
149.048
153.391
157.767
162.17
166.595
171.035
175.484
179.936
184.384
188.821
193.239
197.631
201.988
206.303
210.569
214.777
218.921
222.992
226.983
230.886
234.694
238.4
241.997
245.477
248.835
252.064
255.157
258.109
260.914
263.567
266.062
268.396
270.564
272.562
274.387
276.034
277.503
278.789
279.891
280.807
281.537
282.079
282.425
282.572
282.546
282.334
281.936
281.356
280.595
279.656
278.543
277.26
275.811
274.202
272.438
270.523
268.465
266.27
263.943
261.492
258.923
256.244
253.461
250.582
247.615
244.566
241.443
238.255
235.007
231.709
228.368
224.991
221.586
218.161
214.724
211.283
207.85
204.437
201.056
197.712
194.407
191.141
187.916
184.736
181.606
178.53
175.514
172.568
169.701
166.929
164.275
161.769
159.464
157.358
155.332
7.1237
3.23009
2.57704
2.43567
2.45495
2.55926
2.71824
2.91859
3.15325
3.41777
3.70888
4.02398
4.36091
4.71804
5.09418
5.4887
5.9014
6.33257
6.78294
7.25353
7.74565
8.26081
8.80065
9.36693
9.96086
10.5845
11.2399
11.9287
12.6527
13.4135
14.2126
15.0514
15.9313
16.8534
17.8191
18.8292
19.8852
20.9884
22.1405
23.3429
24.5966
25.9032
27.2641
28.6806
30.1544
31.6871
33.2809
34.9375
36.6589
38.4471
40.3039
42.2315
44.2318
46.3069
48.4588
50.6895
53.0011
55.3955
57.8748
60.4406
63.0949
65.8392
68.6752
71.6042
74.6274
77.7459
80.9606
84.2721
87.6806
91.1864
94.7893
98.4886
102.284
106.173
110.156
114.229
118.392
122.641
126.973
131.385
135.873
140.432
145.06
149.749
154.496
159.294
164.138
169.021
173.936
178.878
183.838
188.809
193.784
198.753
203.709
208.643
213.545
218.408
223.222
227.978
232.668
237.282
241.813
246.251
250.587
254.814
258.923
262.906
266.756
270.464
274.023
277.427
280.669
283.742
286.642
289.362
291.897
294.244
296.397
298.353
300.109
301.661
303.008
304.147
305.078
305.798
306.308
306.593
306.671
306.546
306.213
305.674
304.933
303.991
302.852
301.522
300.004
298.304
296.428
294.382
292.173
289.806
287.291
284.633
281.841
278.922
275.883
272.734
269.482
266.136
262.704
259.193
255.613
251.973
248.279
244.541
240.766
236.964
233.142
229.309
225.472
221.644
217.833
214.051
210.304
206.596
202.931
199.313
195.745
192.233
188.784
185.405
182.104
178.894
175.79
172.814
169.995
167.377
164.94
162.537
7.86674
3.56831
2.82417
2.64902
2.64969
2.74185
2.8911
3.08221
3.30723
3.5614
3.84144
4.14493
4.46997
4.81517
5.17961
5.56282
5.96468
6.38526
6.8256
7.28683
7.77026
8.27742
8.81
9.36993
9.95857
10.5774
11.2281
11.9124
12.6321
13.3888
14.1843
15.0202
15.8978
16.8188
17.7847
18.7968
19.8569
20.9666
22.1279
23.3427
24.6138
25.9426
27.3303
28.7783
30.2887
31.8641
33.5071
35.22
37.0051
38.8649
40.802
42.8187
44.9177
47.1015
49.3728
51.7341
54.188
56.7371
59.3837
62.1305
64.9795
67.933
70.993
74.1614
77.4398
80.8295
84.3318
87.9475
91.6772
95.521
99.4789
103.55
107.734
112.03
116.435
120.947
125.564
130.282
135.099
140.009
145.009
150.093
155.257
160.493
165.797
171.161
176.577
182.04
187.539
193.069
198.618
204.18
209.744
215.301
220.841
226.353
231.828
237.256
242.626
247.927
253.151
258.286
263.323
268.252
273.063
277.747
282.294
286.696
290.942
295.026
298.938
302.672
306.22
309.575
312.731
315.681
318.422
320.947
323.253
325.335
327.19
328.816
330.209
331.369
332.294
332.984
333.436
333.641
333.619
333.364
332.878
332.166
331.228
330.069
328.694
327.107
325.315
323.323
321.139
318.769
316.222
313.504
310.625
307.592
304.414
301.099
297.657
294.097
290.427
286.658
282.797
278.854
274.838
270.759
266.626
262.447
258.231
253.988
249.725
245.453
241.179
236.914
232.667
228.448
224.265
220.123
216.028
211.985
207.999
204.077
200.226
196.454
192.77
189.187
185.722
182.394
179.231
176.267
173.471
170.68
8.46634
3.84796
3.02514
2.81666
2.79982
2.87869
3.01669
3.19694
3.41073
3.65296
3.92034
4.21057
4.52195
4.85311
5.20366
5.57363
5.96359
6.37429
6.80553
7.25808
7.73311
8.232
8.75626
9.30733
9.88687
10.4967
11.1386
11.8146
12.5266
13.2763
14.0656
14.8963
15.7701
16.6889
17.6546
18.6691
19.7345
20.8527
22.0261
23.2565
24.5458
25.8966
27.3116
28.794
30.3463
31.9709
33.6711
35.4498
37.3099
39.2543
41.2862
43.4085
45.6246
47.9376
50.3507
52.8671
55.4901
58.2228
61.0683
64.0296
67.1094
70.3106
73.6356
77.0866
80.6658
84.3748
88.215
92.1875
96.293
100.532
104.903
109.407
114.043
118.808
123.7
128.717
133.856
139.112
144.481
149.96
155.541
161.219
166.988
172.84
178.768
184.764
190.819
196.925
203.071
209.249
215.448
221.657
227.866
234.063
240.238
246.377
252.471
258.506
264.471
270.356
276.147
281.834
287.406
292.851
298.158
303.317
308.317
313.148
317.801
322.266
326.534
330.597
334.447
338.077
341.479
344.649
347.579
350.266
352.704
354.89
356.82
358.492
359.904
361.054
361.941
362.567
362.924
363.018
362.853
362.43
361.752
360.824
359.65
358.232
356.577
354.692
352.582
350.256
347.72
344.984
342.056
338.945
335.66
332.21
328.606
324.855
320.97
316.958
312.832
308.599
304.272
299.859
295.37
290.817
286.207
281.551
276.859
272.14
267.403
262.658
257.914
253.18
248.467
243.783
239.137
234.536
229.986
225.495
221.067
216.711
212.434
208.246
204.156
200.177
196.326
192.623
189.09
185.756
182.581
179.395
8.92177
4.06751
3.17931
2.94037
2.9063
2.9712
3.09685
3.26503
3.4664
3.6956
3.94913
4.22526
4.52301
4.84239
5.1817
5.54039
5.91828
6.3153
6.73244
7.17105
7.63246
8.11804
8.62927
9.16772
9.73528
10.3339
10.9656
11.632
12.3351
13.0769
13.8595
14.6849
15.5553
16.4728
17.4398
18.4585
19.5314
20.6611
21.8501
23.1012
24.4172
25.8011
27.256
28.7845
30.3878
32.072
33.8422
35.7016
37.6537
39.702
41.8501
44.1017
46.4609
48.9313
51.5171
54.222
57.05
60.0048
63.0902
66.3097
69.6668
73.1646
76.806
80.5938
84.5301
88.617
92.856
97.2482
101.794
106.494
111.348
116.353
121.51
126.816
132.267
137.861
143.593
149.459
155.453
161.569
167.801
174.141
180.581
187.114
193.729
200.418
207.169
213.974
220.82
227.697
234.591
241.492
248.386
255.261
262.104
268.901
275.639
282.305
288.886
295.369
301.741
307.988
314.1
320.062
325.863
331.492
336.936
342.186
347.229
352.057
356.66
361.028
365.154
369.03
372.648
376.003
379.088
381.898
384.43
386.678
388.641
390.316
391.7
392.794
393.597
394.109
394.329
394.26
393.903
393.262
392.343
391.151
389.691
387.966
385.985
383.753
381.28
378.574
375.643
372.498
369.147
365.601
361.869
357.964
353.894
349.67
345.305
340.808
336.19
331.462
326.636
321.722
316.73
311.672
306.558
301.398
296.202
290.981
285.744
280.502
275.263
270.037
264.835
259.666
254.538
249.459
244.438
239.48
234.593
229.787
225.068
220.446
215.933
211.542
207.288
203.19
199.268
195.546
191.979
188.396
9.23945
4.22897
3.28889
3.02304
2.97229
3.02294
3.13548
3.29064
3.47893
3.69543
3.93783
4.20269
4.48821
4.79268
5.11592
5.45826
5.82002
6.20184
6.60492
7.03008
7.47846
7.95141
8.45045
8.97727
9.53371
10.1217
10.7433
11.4006
12.0958
12.8311
13.6089
14.4316
15.3017
16.222
17.195
18.2238
19.3113
20.4605
21.6746
22.957
24.3117
25.7416
27.2492
28.8361
30.5096
32.2756
34.138
36.103
38.1751
40.358
42.656
45.0736
47.6154
50.2861
53.0904
56.0327
59.1178
62.3499
65.7335
69.2725
72.9709
76.8323
80.8597
85.0562
89.424
93.9651
98.681
103.572
108.64
113.883
119.3
124.89
130.651
136.579
142.67
148.921
155.325
161.877
168.569
175.395
182.347
189.415
196.59
203.861
211.219
218.651
226.147
233.693
241.277
248.885
256.504
264.121
271.72
279.288
286.809
294.269
301.654
308.948
316.137
323.206
330.142
336.93
343.556
350.008
356.272
362.336
368.186
373.812
379.203
384.347
389.235
393.857
398.206
402.272
406.048
409.529
412.709
415.582
418.145
420.394
422.327
423.94
425.235
426.209
426.864
427.201
427.22
426.929
426.316
425.397
424.179
422.667
420.864
418.779
416.417
413.789
410.903
407.769
404.398
400.798
396.983
392.961
388.745
384.347
379.777
375.048
370.171
365.158
360.021
354.771
349.421
343.981
338.464
332.881
327.242
321.558
315.841
310.1
304.347
298.591
292.842
287.111
281.407
275.74
270.119
264.552
259.048
253.615
248.26
242.993
237.822
232.758
227.812
222.997
218.329
213.825
209.502
205.383
201.417
197.439
9.4322
4.33735
3.35796
3.06895
3.00248
3.03884
3.13862
3.2829
3.46068
3.66564
3.8934
4.14241
4.41165
4.70059
5.00925
5.33749
5.68559
6.05419
6.4442
6.85665
7.29281
7.7541
8.24215
8.75877
9.30591
9.88568
10.5003
11.1522
11.8438
12.5779
13.3573
14.1848
15.0634
15.9962
16.9866
18.0382
19.1554
20.3411
21.5987
22.9314
24.3415
25.8331
27.4137
29.0908
30.8694
32.7547
34.7521
36.8675
39.1071
41.4756
43.9784
46.6207
49.4081
52.3461
55.4398
58.6946
62.1155
65.7075
69.4753
73.4233
77.5555
81.8755
86.3866
91.0914
95.992
101.09
106.386
111.88
117.572
123.461
129.543
135.818
142.28
148.925
155.748
162.743
169.904
177.221
184.687
192.292
200.027
207.881
215.843
223.9
232.04
240.249
248.515
256.823
265.158
273.506
281.851
290.178
298.471
306.714
314.891
322.985
330.981
338.863
346.615
354.221
361.667
368.936
376.016
382.891
389.548
395.973
402.154
408.079
413.736
419.114
424.204
428.995
433.479
437.648
441.496
445.015
448.202
451.05
453.557
455.72
457.536
459.004
460.124
460.896
461.323
461.405
461.154
460.554
459.614
458.349
456.764
454.865
452.658
450.151
447.353
444.273
440.923
437.313
433.454
429.358
425.036
420.502
415.766
410.842
405.743
400.479
395.066
389.514
383.836
378.045
372.154
366.174
360.117
353.995
347.821
341.604
335.356
329.089
322.812
316.537
310.273
304.032
297.822
291.655
285.539
279.482
273.495
267.585
261.761
256.032
250.408
244.9
239.518
234.277
229.191
224.277
219.549
215.029
210.663
206.299
9.49278
4.39178
3.38898
3.08189
3.00231
3.02826
3.11747
3.24872
3.41198
3.60199
3.81571
4.05131
4.30748
4.5836
4.87952
5.19536
5.53157
5.88884
6.26812
6.67059
7.09765
7.5509
8.0322
8.5436
9.08737
9.66587
10.2816
10.9374
11.6362
12.3813
13.1765
14.0253
14.9309
15.897
16.9272
18.0248
19.1918
20.4335
21.7565
23.167
24.6717
26.2767
27.9878
29.812
31.7556
33.825
36.0269
38.3688
40.8562
43.4958
46.2941
49.2577
52.393
55.7058
59.2019
62.887
66.7661
70.8445
75.1266
79.6167
84.3184
89.2348
94.3684
99.7209
105.294
111.087
117.099
123.331
129.779
136.44
143.311
150.386
157.661
165.128
172.781
180.611
188.609
196.766
205.07
213.511
222.077
230.755
239.531
248.392
257.323
266.31
275.337
284.389
293.449
302.501
311.528
320.514
329.441
338.293
347.052
355.701
364.223
372.601
380.819
388.861
396.711
404.353
411.773
418.955
425.886
432.553
438.943
445.042
450.841
456.328
461.493
466.328
470.823
474.971
478.767
482.203
485.276
487.982
490.317
492.279
493.868
495.083
495.923
496.39
496.491
496.236
495.605
494.609
493.261
491.57
489.541
487.184
484.503
481.51
478.215
474.628
470.761
466.626
462.235
457.602
452.738
447.656
442.371
436.895
431.242
425.424
419.456
413.35
407.12
400.779
394.338
387.812
381.212
374.551
367.84
361.091
354.316
347.525
340.729
333.94
327.168
320.423
313.716
307.056
300.453
293.916
287.454
281.076
274.791
268.609
262.539
256.593
250.783
245.121
239.622
234.301
229.172
224.255
219.497
214.761
9.47311
4.40171
3.3888
3.072
2.98248
2.99522
3.07066
3.18904
3.34029
3.51868
3.721
3.94538
4.19074
4.45661
4.74293
5.05002
5.37851
5.72929
6.10348
6.50245
6.92785
7.3816
7.86593
8.38348
8.93765
9.53071
10.1655
10.8454
11.5739
12.3541
13.1886
14.0801
15.0352
16.0598
17.1593
18.3396
19.6077
20.9692
22.4304
23.9984
25.6811
27.4859
29.4202
31.4917
33.7081
36.0769
38.606
41.3035
44.1765
47.2329
50.4806
53.9275
57.5804
61.445
65.5266
69.83
74.3598
79.1201
84.1143
89.3453
94.8152
100.525
106.477
112.668
119.1
125.768
132.672
139.806
147.166
154.747
162.542
170.543
178.743
187.132
195.701
204.439
213.334
222.376
231.55
240.844
250.244
259.735
269.303
278.932
288.606
298.309
308.025
317.736
327.426
337.078
346.673
356.195
365.626
374.948
384.144
393.195
402.086
410.799
419.318
427.625
435.706
443.545
451.127
458.438
465.464
472.192
478.61
484.706
490.469
495.888
500.955
505.661
509.998
513.96
517.541
520.736
523.541
525.953
527.971
529.592
530.817
531.647
532.082
532.12
531.798
531.068
529.955
528.47
526.62
524.413
521.86
518.966
515.741
512.197
508.344
504.194
499.761
495.057
490.094
484.888
479.451
473.797
467.94
461.895
455.674
449.292
442.763
436.099
429.316
422.426
415.441
408.376
401.242
394.052
386.818
379.551
372.263
364.965
357.669
350.384
343.122
335.893
328.707
321.575
314.505
307.507
300.591
293.764
287.038
280.421
273.924
267.557
261.334
255.266
249.368
243.654
238.136
232.835
227.698
222.611
9.40903
4.39064
3.37158
3.04191
2.9399
2.94174
3.00691
3.11537
3.25707
3.42658
3.62083
3.83812
4.07756
4.33887
4.62226
4.92841
5.2586
5.61428
5.99659
6.40727
6.84845
7.3225
7.83188
8.37882
8.9644
9.59351
10.2713
11.0026
11.7923
12.6459
13.5696
14.5697
15.652
16.8233
18.091
19.4632
20.9484
22.5547
24.2909
26.1658
28.1886
30.3686
32.7148
35.2364
37.9422
40.8407
43.9398
47.2457
50.7674
54.5145
58.4962
62.7228
67.202
71.9347
76.9226
82.168
87.6723
93.4366
99.4612
105.746
112.288
119.087
126.138
133.438
140.982
148.764
156.777
165.014
173.467
182.126
190.983
200.026
209.244
218.626
228.16
237.833
247.631
257.541
267.549
277.639
287.797
298.007
308.254
318.521
328.793
339.052
349.282
359.467
369.588
379.629
389.573
399.403
409.101
418.649
428.032
437.233
446.234
455.02
463.574
471.881
479.926
487.695
495.172
502.346
509.204
515.732
521.921
527.757
533.233
538.339
543.066
547.407
551.355
554.905
558.053
560.793
563.125
565.046
566.554
567.652
568.333
568.611
568.48
567.961
567.021
565.69
563.971
561.873
559.405
556.577
553.398
549.875
546.021
541.847
537.366
532.59
527.533
522.208
516.63
510.812
504.768
498.514
492.063
485.43
478.629
471.674
464.58
457.359
450.025
442.592
435.073
427.48
419.827
412.125
404.386
396.622
388.843
381.062
373.288
365.533
357.806
350.119
342.482
334.904
327.394
319.962
312.618
305.369
298.227
291.2
284.299
277.535
270.92
264.467
258.19
252.102
246.213
240.547
235.05
229.639
9.27781
4.35356
3.33263
2.99622
2.88784
2.88387
2.94374
3.04803
3.18701
3.35566
3.55163
3.77331
4.01996
4.29164
4.58889
4.91245
5.26285
5.64045
6.04903
6.49181
6.97215
7.49375
8.06076
8.678
9.35185
10.0871
10.8897
11.7666
12.7255
13.7746
14.9227
16.1792
17.5532
19.0548
20.6944
22.4829
24.4317
26.5521
28.8553
31.3526
34.0548
36.9725
40.1158
43.4941
47.1166
50.9909
55.1237
59.5209
64.1892
69.1347
74.3635
79.8825
85.6909
91.7835
98.1564
104.805
111.726
118.912
126.359
134.059
142.006
150.191
158.606
167.242
176.089
185.137
194.376
203.794
213.381
223.125
233.013
243.034
253.174
263.422
273.764
284.185
294.674
305.216
315.797
326.402
337.018
347.63
358.222
368.781
379.29
389.736
400.101
410.372
420.532
430.565
440.456
450.19
459.751
469.123
478.291
487.24
495.954
504.42
512.622
520.546
528.179
535.508
542.52
549.203
555.547
561.54
567.172
572.434
577.316
581.812
585.914
589.616
592.912
595.798
598.273
600.329
601.971
603.195
603.995
604.391
604.349
603.941
603.079
601.824
600.168
598.121
595.689
592.881
589.709
586.182
582.31
578.101
573.568
568.724
563.582
558.156
552.458
546.503
540.306
533.88
527.24
520.401
513.377
506.182
498.831
491.338
483.716
475.979
468.14
460.212
452.208
444.141
436.022
427.863
419.675
411.471
403.26
395.053
386.86
378.693
370.56
362.473
354.441
346.474
338.58
330.769
323.05
315.432
307.923
300.535
293.278
286.162
279.2
272.403
265.785
259.361
253.138
247.142
241.318
235.625
9.14448
4.29605
3.28501
2.95116
2.84437
2.84304
2.90822
3.02015
3.16932
3.35061
3.5606
3.79846
4.06521
4.36201
4.69053
5.05306
5.45277
5.89365
6.37935
6.91481
7.50579
8.15886
8.88156
9.68237
10.5708
11.5561
12.6486
13.8602
15.2033
16.6911
18.3375
20.1566
22.1626
24.3701
26.7941
29.4487
32.3476
35.5035
38.9287
42.6344
46.6303
50.9238
55.5208
60.4264
65.6453
71.1785
77.0243
83.1813
89.6509
96.4294
103.518
110.907
118.569
126.494
134.671
143.087
151.731
160.59
169.65
178.901
188.329
197.922
207.668
217.556
227.573
237.709
247.95
258.287
268.707
279.199
289.753
300.357
311
321.672
332.359
343.053
353.74
364.41
375.052
385.653
396.203
406.688
417.098
427.42
437.641
447.749
457.732
467.576
477.268
486.796
496.145
505.304
514.258
522.994
531.498
539.758
547.761
555.494
562.944
570.099
576.946
583.476
589.675
595.535
601.046
606.2
610.985
615.394
619.42
623.056
626.299
629.14
631.573
633.602
635.223
636.424
637.22