/*--------------------------------*- C++ -*----------------------------------*\
  =========                 |
  \\      /  F ield         | OpenFOAM: The Open Source CFD Toolbox
   \\    /   O peration     | Website:  https://openfoam.org
    \\  /    A nd           | Version:  9
     \\/     M anipulation  |
\*---------------------------------------------------------------------------*/
FoamFile
{
    format      ascii;
    class       volScalarField;
    location    "270";
    object      k;
}
// * * * * * * * * * * * * * * * * * * * * * * * * * * * * * * * * * * * * * //

dimensions      [0 2 -2 0 0 0 0];

internalField   nonuniform List<scalar> 
12225
(
0.362816
0.343987
0.327751
0.30981
0.295411
0.283468
0.275529
0.270279
0.27034
0.271865
0.276077
0.280633
0.289959
0.295506
0.307039
0.312274
0.327005
0.335216
0.440186
0.468698
0.461606
0.448368
0.450347
0.458308
0.474579
0.498487
0.524418
0.552061
0.580743
0.6061
0.633807
0.653784
0.679676
0.693068
0.717244
0.728626
0.39054
0.417874
0.420232
0.416827
0.411628
0.407802
0.408021
0.410034
0.414567
0.42138
0.430724
0.439699
0.451155
0.461136
0.472794
0.483514
0.493397
0.505958
0.377546
0.386982
0.391406
0.391343
0.390221
0.387895
0.385664
0.384079
0.382884
0.382895
0.383385
0.38432
0.38629
0.388463
0.390896
0.394233
0.396478
0.400959
0.374562
0.37609
0.378412
0.378666
0.378263
0.377205
0.375489
0.373737
0.37201
0.370455
0.369259
0.368105
0.36738
0.366803
0.36644
0.366329
0.366337
0.36669
0.373814
0.372709
0.372645
0.372384
0.371761
0.370816
0.369554
0.368082
0.366572
0.364977
0.363529
0.362063
0.360755
0.359529
0.358397
0.357426
0.356437
0.355779
0.373782
0.371742
0.370386
0.369287
0.368234
0.367114
0.365915
0.364587
0.363239
0.361808
0.360423
0.359024
0.357679
0.356383
0.355122
0.353967
0.352795
0.351803
0.37382
0.37156
0.369634
0.367976
0.366501
0.365108
0.363775
0.362429
0.361108
0.359767
0.358451
0.357145
0.355864
0.354624
0.353403
0.352252
0.351101
0.350054
0.373832
0.371553
0.369449
0.367525
0.365777
0.364154
0.362645
0.361199
0.359818
0.358474
0.35717
0.355904
0.354668
0.353476
0.352309
0.351198
0.350099
0.349075
0.373831
0.37156
0.369418
0.367405
0.365529
0.363773
0.362133
0.360585
0.359122
0.357728
0.356395
0.355119
0.353889
0.352711
0.351571
0.350483
0.349421
0.348422
0.373829
0.37156
0.369413
0.367378
0.365458
0.363645
0.361937
0.360324
0.358799
0.357353
0.355979
0.354673
0.353425
0.352236
0.351095
0.35001
0.34896
0.34797
0.373828
0.371558
0.369409
0.36737
0.365439
0.363609
0.361876
0.360234
0.358678
0.357202
0.3558
0.354469
0.353201
0.351995
0.350843
0.349748
0.348696
0.347701
0.373827
0.371556
0.369405
0.367365
0.36543
0.363593
0.361851
0.360197
0.358626
0.357134
0.355716
0.354368
0.353085
0.351865
0.350701
0.349595
0.348536
0.347532
0.373826
0.371555
0.369401
0.367359
0.365422
0.363583
0.361837
0.360178
0.3586
0.357101
0.355674
0.354317
0.353025
0.351795
0.350622
0.349506
0.34844
0.347427
0.373826
0.371553
0.369398
0.367355
0.365416
0.363575
0.361826
0.360164
0.358584
0.357081
0.355651
0.35429
0.352993
0.351758
0.35058
0.349458
0.348388
0.347368
0.373826
0.371552
0.369396
0.367351
0.36541
0.363567
0.361817
0.360153
0.358571
0.357067
0.355634
0.35427
0.352971
0.351734
0.350554
0.349429
0.348356
0.347333
0.373825
0.371551
0.369394
0.367348
0.365406
0.363562
0.36181
0.360145
0.358561
0.357055
0.355621
0.354256
0.352955
0.351716
0.350534
0.349408
0.348333
0.347308
0.373825
0.371551
0.369393
0.367346
0.365403
0.363558
0.361805
0.360139
0.358554
0.357047
0.355612
0.354245
0.352943
0.351703
0.35052
0.349392
0.348316
0.347289
0.373825
0.37155
0.369393
0.367345
0.365402
0.363557
0.361804
0.360137
0.358552
0.357043
0.355608
0.35424
0.352938
0.351696
0.350513
0.349384
0.348307
0.34728
0.373825
0.371551
0.369393
0.367347
0.365404
0.363559
0.361806
0.360139
0.358555
0.357046
0.355611
0.354244
0.352941
0.3517
0.350517
0.349388
0.348311
0.347284
0.373825
0.371551
0.369395
0.367349
0.365407
0.363563
0.361811
0.360145
0.358562
0.357055
0.355621
0.354255
0.352954
0.351715
0.350533
0.349407
0.348332
0.347307
0.373826
0.371552
0.369397
0.367352
0.365412
0.363571
0.361822
0.360161
0.358583
0.357083
0.355656
0.354298
0.353006
0.351774
0.350602
0.349483
0.348417
0.347397
0.373826
0.371554
0.369399
0.367359
0.365428
0.363602
0.361875
0.36024
0.35869
0.35722
0.355823
0.354493
0.353227
0.352018
0.350865
0.349762
0.34871
0.3477
0.373828
0.371551
0.369412
0.367417
0.365556
0.363819
0.362189
0.360651
0.359189
0.357793
0.356456
0.355171
0.353935
0.352745
0.3516
0.350495
0.349436
0.348409
0.373823
0.371554
0.369604
0.367893
0.366339
0.364892
0.363495
0.362122
0.360761
0.359413
0.35808
0.356769
0.355488
0.354237
0.353029
0.351855
0.350734
0.349645
0.373788
0.371991
0.371113
0.370266
0.36936
0.368311
0.367048
0.36563
0.36412
0.362575
0.36103
0.359522
0.358073
0.356682
0.355381
0.354141
0.353009
0.351923
0.374355
0.375572
0.377775
0.377857
0.377288
0.375886
0.373835
0.371641
0.369505
0.367482
0.365664
0.364084
0.36271
0.361535
0.36061
0.359818
0.359289
0.358801
0.379125
0.394296
0.398249
0.396573
0.392538
0.387603
0.383646
0.380448
0.378268
0.376853
0.376498
0.376741
0.377416
0.378692
0.380443
0.382424
0.384829
0.38714
0.408394
0.427541
0.422416
0.411056
0.402226
0.397925
0.398627
0.400965
0.406072
0.413058
0.421004
0.429834
0.438842
0.448198
0.457316
0.466561
0.475332
0.484192
0.36605
0.353416
0.341988
0.33021
0.318982
0.308382
0.299411
0.291671
0.285404
0.280334
0.276682
0.273867
0.272313
0.271176
0.271213
0.271475
0.272191
0.273392
0.000598482
0.00345332
0.00643127
0.00907739
0.0116616
0.0145711
0.0179422
0.0219262
0.02658
0.0318514
0.0376154
0.0437262
0.0500447
0.0564568
0.0628725
0.0692284
0.075482
0.0816094
0.0875988
0.0934404
0.0991169
0.104588
0.109781
0.11458
0.118811
0.122235
0.124541
0.125342
0.124119
0.120147
0.112273
0.115022
0.11916
0.122585
0.12492
0.128819
0.133641
0.139669
0.1457
0.147166
0.149237
0.143982
0.155841
0.1609
0.169416
0.176657
0.184774
0.192738
0.201031
0.209411
0.217992
0.226715
0.235609
0.244657
0.253866
0.263233
0.272758
0.28244
0.292276
0.302266
0.312407
0.322697
0.333131
0.343709
0.354424
0.365274
0.376251
0.387353
0.398571
0.409901
0.421333
0.432864
0.444482
0.456182
0.467953
0.479788
0.491674
0.503606
0.515568
0.527555
0.539552
0.551551
0.563536
0.575499
0.587423
0.5993
0.61111
0.622845
0.634483
0.646012
0.657411
0.668658
0.679731
0.690607
0.701265
0.711689
0.721883
0.731891
0.741741
0.751332
0.760705
0.769833
0.778716
0.787336
0.795686
0.803755
0.811531
0.819006
0.82617
0.833013
0.839525
0.845701
0.851529
0.857003
0.862115
0.866859
0.871227
0.875215
0.878816
0.882025
0.884839
0.887253
0.889264
0.89087
0.892069
0.892861
0.893242
0.893212
0.892841
0.891989
0.890685
0.888938
0.88689
0.884528
0.88169
0.87849
0.874912
0.870972
0.866678
0.862037
0.85706
0.851752
0.846129
0.840205
0.833992
0.827503
0.820751
0.813751
0.806516
0.799063
0.791404
0.783557
0.775536
0.767358
0.759039
0.750594
0.742042
0.733399
0.724685
0.715924
0.707157
0.698516
0.691116
0.686558
0.682563
0.678616
0.674681
0.67076
0.66686
0.662988
0.659149
0.655346
0.651572
0.647811
0.64403
0.640146
0.636006
0.631168
0.624631
0.599869
0.00305279
0.0124651
0.018845
0.0236028
0.0278085
0.0319427
0.0363611
0.0412561
0.0466923
0.0526358
0.0589941
0.0656537
0.0725024
0.0794442
0.0864031
0.0933242
0.100172
0.106929
0.113588
0.120146
0.126598
0.132916
0.139048
0.1449
0.150335
0.155185
0.159292
0.162539
0.16495
0.166895
0.169543
0.175532
0.182565
0.190085
0.198249
0.207436
0.21758
0.229442
0.243811
0.254815
0.266374
0.278403
0.290708
0.302418
0.315211
0.328212
0.341622
0.355337
0.36939
0.383756
0.398441
0.41344
0.428755
0.444386
0.460334
0.4766
0.493184
0.510088
0.527312
0.544856
0.562717
0.580897
0.599391
0.618199
0.637315
0.656736
0.676457
0.696471
0.716772
0.737352
0.758202
0.779313
0.800674
0.822274
0.8441
0.86614
0.888379
0.910803
0.933396
0.956141
0.979021
1.00202
1.02511
1.04828
1.07151
1.09478
1.11806
1.14133
1.16456
1.18773
1.21081
1.23378
1.25658
1.27919
1.30157
1.32365
1.34539
1.36671
1.38761
1.40823
1.42854
1.44851
1.46813
1.48737
1.50621
1.52464
1.54262
1.56014
1.57717
1.5937
1.6097
1.62515
1.64004
1.65435
1.66806
1.68115
1.6936
1.7054
1.71653
1.72699
1.73674
1.74579
1.75412
1.76173
1.76859
1.77471
1.78007
1.78469
1.78855
1.79165
1.79388
1.79518
1.79581
1.79591
1.79512
1.79356
1.79124
1.78819
1.7844
1.77989
1.77468
1.76878
1.76221
1.75499
1.74714
1.73868
1.72963
1.72002
1.70987
1.6992
1.68805
1.67644
1.66439
1.65195
1.63913
1.62597
1.6125
1.59876
1.58477
1.57057
1.55621
1.54175
1.52747
1.51365
1.49994
1.48623
1.47253
1.45887
1.44527
1.43176
1.41834
1.40504
1.39185
1.37877
1.36577
1.35282
1.33973
1.32648
1.31146
1.27688
0.00650824
0.0214617
0.0299553
0.0362679
0.0418602
0.0473001
0.0528976
0.0588258
0.0651554
0.0718796
0.0789408
0.0862582
0.0937474
0.101334
0.108958
0.116579
0.124173
0.131734
0.13927
0.146797
0.154332
0.161885
0.169449
0.176994
0.184472
0.191833
0.199056
0.20619
0.213413
0.221073
0.229664
0.239592
0.250472
0.262173
0.274725
0.288146
0.302405
0.317461
0.332895
0.347686
0.362784
0.37823
0.394095
0.410226
0.426847
0.443877
0.461315
0.479144
0.497364
0.515971
0.534963
0.554339
0.574101
0.594247
0.614778
0.635695
0.656997
0.678685
0.700757
0.723213
0.746049
0.769265
0.792855
0.816817
0.841144
0.865832
0.890872
0.916257
0.941978
0.968026
0.994388
1.02105
1.04801
1.07524
1.10273
1.13047
1.15843
1.18661
1.21497
1.2435
1.27218
1.30099
1.3299
1.35888
1.38792
1.41699
1.44606
1.47509
1.50407
1.53297
1.56174
1.59036
1.6188
1.64702
1.67499
1.70268
1.73006
1.75711
1.78381
1.81015
1.8361
1.86163
1.8867
1.91129
1.93537
1.95891
1.98188
2.00426
2.02601
2.04711
2.06753
2.08725
2.10625
2.12449
2.14196
2.15864
2.17449
2.18951
2.20368
2.21697
2.22936
2.24085
2.25141
2.26104
2.26972
2.27745
2.2842
2.28999
2.2948
2.29862
2.30141
2.30305
2.30375
2.30369
2.30256
2.30044
2.29736
2.29333
2.28836
2.28248
2.2757
2.26804
2.25953
2.25019
2.24004
2.22911
2.21743
2.20504
2.19195
2.17821
2.16385
2.1489
2.1334
2.11738
2.10089
2.08397
2.06665
2.04898
2.031
2.01275
1.99429
1.97569
1.95712
1.93874
1.92043
1.90213
1.88385
1.86561
1.84745
1.8294
1.81148
1.79372
1.77614
1.75875
1.74156
1.72458
1.70776
1.69117
1.67345
1.64383
0.0104636
0.0299537
0.0404369
0.0480852
0.0547476
0.0611099
0.0675187
0.0741633
0.0811322
0.0884418
0.0960603
0.10393
0.111987
0.120172
0.128437
0.136751
0.145103
0.153496
0.161949
0.170495
0.179169
0.188008
0.197039
0.206274
0.215715
0.22536
0.235224
0.245361
0.255877
0.266932
0.278695
0.291264
0.3046
0.318682
0.333506
0.349049
0.365255
0.382035
0.399243
0.416707
0.434552
0.4528
0.471441
0.490456
0.509898
0.529773
0.550083
0.570827
0.592006
0.613621
0.635673
0.658163
0.681092
0.704462
0.728272
0.752526
0.777222
0.802361
0.827942
0.853965
0.880427
0.907326
0.934659
0.96242
0.990605
1.01921
1.04822
1.07763
1.10743
1.13762
1.16817
1.19908
1.23032
1.26189
1.29377
1.32593
1.35836
1.39104
1.42394
1.45705
1.49033
1.52376
1.55732
1.59097
1.62469
1.65845
1.69221
1.72595
1.75963
1.79321
1.82667
1.85997
1.89308
1.92595
1.95857
1.99089
2.02289
2.05452
2.08576
2.11658
2.14693
2.17679
2.2061
2.23485
2.26299
2.29049
2.31731
2.34343
2.36881
2.39341
2.41721
2.44017
2.46228
2.48349
2.50379
2.52315
2.54154
2.55894
2.57532
2.59067
2.60497
2.6182
2.63034
2.64137
2.65129
2.66009
2.66774
2.67425
2.67962
2.68381
2.68682
2.68851
2.68912
2.68872
2.68712
2.68437
2.68049
2.6755
2.66942
2.66227
2.65407
2.64485
2.63463
2.62344
2.61132
2.59828
2.58438
2.56963
2.55408
2.53777
2.52074
2.50302
2.48466
2.4657
2.44619
2.42618
2.40571
2.38482
2.36358
2.34203
2.32022
2.29825
2.27622
2.25426
2.23232
2.21039
2.18849
2.16663
2.14488
2.12325
2.10179
2.08053
2.05951
2.03876
2.01834
1.99831
1.97872
1.95971
1.94012
1.91321
0.0144312
0.0379065
0.0502118
0.0590859
0.0666968
0.073833
0.0808892
0.0880831
0.0955288
0.10327
0.111302
0.119593
0.128098
0.136774
0.145585
0.154509
0.16354
0.172689
0.18198
0.19145
0.201143
0.211106
0.22138
0.231998
0.242983
0.254352
0.266123
0.278328
0.291013
0.304245
0.318085
0.332576
0.347732
0.36356
0.380059
0.397213
0.41499
0.433344
0.452223
0.471578
0.491406
0.511694
0.532424
0.553594
0.575222
0.597317
0.619887
0.642936
0.666468
0.690487
0.714996
0.739997
0.765494
0.791489
0.817985
0.844984
0.872486
0.900494
0.929007
0.958025
0.987547
1.01757
1.04809
1.07911
1.11062
1.14261
1.17507
1.208
1.24139
1.27522
1.30949
1.34417
1.37925
1.41471
1.45053
1.4867
1.52319
1.55997
1.59703
1.63433
1.67184
1.70954
1.7474
1.78538
1.82346
1.86159
1.89974
1.93787
1.97596
2.01395
2.05182
2.08952
2.12701
2.16426
2.20123
2.23787
2.27415
2.31002
2.34545
2.38038
2.41478
2.44861
2.48183
2.51438
2.54624
2.57736
2.6077
2.63723
2.66591
2.69369
2.72056
2.74646
2.77138
2.79527
2.81811
2.83986
2.86051
2.88003
2.89838
2.91555
2.93152
2.94627
2.95977
2.97201
2.98298
2.99267
3.00106
3.00815
3.01394
3.01839
3.02152
3.02317
3.02362
3.02283
3.02073
3.01732
3.01264
3.0067
2.99954
2.99116
2.9816
2.97089
2.95906
2.94613
2.93215
2.91714
2.90115
2.88422
2.86638
2.84768
2.82817
2.80789
2.78689
2.76522
2.74292
2.72006
2.69668
2.67284
2.64859
2.62399
2.59911
2.57402
2.54881
2.52359
2.49835
2.47311
2.44789
2.42274
2.39768
2.37278
2.34808
2.32363
2.29947
2.27568
2.25234
2.22955
2.20745
2.1862
2.16482
2.13866
0.0182146
0.0451271
0.0590686
0.0690594
0.0775259
0.0853432
0.092951
0.100595
0.108416
0.116484
0.124822
0.133422
0.142261
0.151311
0.160551
0.169966
0.179555
0.189331
0.199321
0.209559
0.220091
0.230963
0.242221
0.253904
0.266043
0.278661
0.291779
0.305413
0.319586
0.334325
0.349654
0.365595
0.382163
0.399367
0.417208
0.435681
0.454773
0.474463
0.494727
0.515543
0.536895
0.558767
0.58115
0.604037
0.627435
0.651351
0.675791
0.700762
0.72627
0.75232
0.778918
0.806069
0.833776
0.862046
0.89088
0.920284
0.95026
0.980809
1.01193
1.04364
1.07592
1.10877
1.1422
1.1762
1.21076
1.24588
1.28155
1.31777
1.35452
1.39178
1.42955
1.46781
1.50654
1.54572
1.58533
1.62535
1.66575
1.7065
1.74758
1.78896
1.8306
1.87247
1.91454
1.95676
1.99911
2.04154
2.08401
2.12648
2.1689
2.21125
2.25346
2.2955
2.33732
2.37887
2.42011
2.46099
2.50146
2.54147
2.58098
2.61992
2.65827
2.69597
2.73298
2.76923
2.8047
2.83933
2.87309
2.90591
2.93778
2.96863
2.99845
3.02717
3.05478
3.08123
3.1065
3.13054
3.15333
3.17485
3.19506
3.21394
3.23146
3.24762
3.26238
3.27573
3.28765
3.29814
3.30718
3.31477
3.3209
3.32556
3.32873
3.33029
3.33052
3.32932
3.32667
3.32258
3.31708
3.31019
3.30193
3.29233
3.28143
3.26925
3.25582
3.24119
3.22539
3.20847
3.19045
3.17139
3.15134
3.13033
3.10843
3.08567
3.06212
3.03782
3.01284
2.98723
2.96105
2.93435
2.9072
2.87967
2.8518
2.82369
2.79542
2.76706
2.73866
2.71024
2.68183
2.65349
2.62526
2.59721
2.56938
2.54184
2.51467
2.48794
2.46177
2.43632
2.41175
2.38824
2.36492
2.33823
0.0216791
0.0514963
0.0668627
0.0778399
0.0870642
0.0954809
0.103566
0.11159
0.119715
0.128034
0.136596
0.145414
0.154489
0.163808
0.173362
0.183145
0.193162
0.203428
0.213967
0.224813
0.236006
0.247589
0.259606
0.272095
0.28509
0.298615
0.31269
0.327331
0.34255
0.358359
0.374772
0.391797
0.409445
0.42772
0.446626
0.466163
0.486326
0.507107
0.528496
0.550482
0.573055
0.596207
0.61993
0.644222
0.669085
0.694524
0.720545
0.747157
0.774365
0.802178
0.830602
0.859645
0.889313
0.919613
0.95055
0.98213
1.01436
1.04724
1.08077
1.11496
1.14981
1.18532
1.22148
1.25831
1.29578
1.33389
1.37265
1.41203
1.45202
1.49263
1.53381
1.57557
1.61788
1.66072
1.70407
1.74789
1.79216
1.83686
1.88194
1.92738
1.97313
2.01917
2.06544
2.11191
2.15854
2.20528
2.25207
2.29889
2.34567
2.39237
2.43894
2.48532
2.53146
2.57732
2.62282
2.66793
2.71257
2.75671
2.80027
2.84322
2.88548
2.92702
2.96778
3.00771
3.04674
3.08484
3.12196
3.15803
3.19303
3.2269
3.2596
3.29108
3.32131
3.35026
3.37787
3.40413
3.42899
3.45243
3.47441
3.49492
3.51393
3.53141
3.54735
3.56173
3.57453
3.58575
3.59537
3.60339
3.60979
3.61459
3.61774
3.61917
3.61912
3.61748
3.61424
3.60944
3.60308
3.59521
3.58584
3.57502
3.56276
3.54911
3.53411
3.51778
3.50019
3.48136
3.46135
3.4402
3.41796
3.39469
3.37043
3.34525
3.3192
3.29233
3.26472
3.23641
3.20748
3.17799
3.148
3.11757
3.08678
3.0557
3.02442
2.993
2.9615
2.92996
2.89843
2.86696
2.83562
2.80447
2.77357
2.74299
2.71284
2.68322
2.65425
2.62614
2.59905
2.57317
2.5477
2.51962
0.0247307
0.0569409
0.0735067
0.0853237
0.0951973
0.104128
0.11262
0.120962
0.129333
0.137847
0.146569
0.155537
0.164767
0.174264
0.184032
0.194074
0.204399
0.215024
0.225973
0.237275
0.248967
0.261085
0.27367
0.286755
0.300374
0.31455
0.329303
0.344649
0.360599
0.377162
0.394346
0.412156
0.430599
0.44968
0.469401
0.489765
0.510773
0.532423
0.554713
0.577641
0.601202
0.625396
0.65022
0.675674
0.701762
0.72849
0.755865
0.783895
0.812589
0.841956
0.872006
0.902747
0.934189
0.96634
0.999208
1.0328
1.06712
1.10219
1.13799
1.17454
1.21184
1.24989
1.28869
1.32825
1.36854
1.40958
1.45135
1.49384
1.53704
1.58093
1.62551
1.67075
1.71662
1.76311
1.81018
1.85781
1.90597
1.95462
2.00372
2.05324
2.10313
2.15336
2.20387
2.25461
2.30555
2.35662
2.40777
2.45896
2.51012
2.5612
2.61214
2.66288
2.71335
2.76351
2.81328
2.86261
2.91142
2.95967
3.00728
3.05419
3.10036
3.14571
3.19019
3.23373
3.2763
3.31781
3.35823
3.3975
3.43557
3.47238
3.5079
3.54207
3.57485
3.6062
3.63609
3.66447
3.69131
3.71659
3.74026
3.76231
3.7827
3.80143
3.81846
3.83378
3.84737
3.85923
3.86935
3.87771
3.88432
3.88918
3.89224
3.8935
3.89311
3.89097
3.8871
3.88154
3.8743
3.86541
3.85492
3.84284
3.82923
3.81411
3.79752
3.77952
3.76014
3.73943
3.71744
3.69423
3.66985
3.64434
3.61778
3.59022
3.56171
3.53233
3.50214
3.47119
3.43957
3.40733
3.37454
3.34128
3.30761
3.27361
3.23936
3.20493
3.17039
3.1358
3.1012
3.06665
3.03224
2.99803
2.96409
2.93052
2.89741
2.86491
2.83315
2.80234
2.77267
2.74431
2.7165
2.68656
0.0273126
0.0614359
0.0789709
0.091472
0.101878
0.111233
0.120059
0.128659
0.137225
0.145883
0.154716
0.163777
0.1731
0.182703
0.192601
0.202806
0.213333
0.2242
0.235431
0.247052
0.259095
0.271592
0.284576
0.29808
0.312131
0.326754
0.34197
0.357792
0.374234
0.391306
0.409014
0.427366
0.446368
0.466025
0.486341
0.507323
0.528973
0.551296
0.574294
0.59797
0.622328
0.64737
0.673101
0.699525
0.726648
0.754478
0.783024
0.812296
0.842306
0.873065
0.904585
0.936877
0.969952
1.00382
1.0385
1.07399
1.1103
1.14744
1.18543
1.22426
1.26394
1.30447
1.34585
1.38808
1.43116
1.47509
1.51985
1.56543
1.61183
1.65901
1.70698
1.7557
1.80515
1.8553
1.90612
1.95759
2.00965
2.06228
2.11543
2.16906
2.22312
2.27755
2.33232
2.38737
2.44263
2.49805
2.55358
2.60914
2.66468
2.72013
2.77543
2.83051
2.8853
2.93973
2.99374
3.04724
3.10018
3.15249
3.20409
3.25491
3.30491
3.35399
3.40212
3.44921
3.4952
3.54005
3.58368
3.62603
3.66706
3.70671
3.74493
3.78167
3.81688
3.85053
3.88256
3.91295
3.94165
3.96863
3.99387
4.01733
4.039
4.05884
4.07684
4.09298
4.10726
4.11965
4.13016
4.13877
4.14549
4.15032
4.15323
4.15424
4.15342
4.15072
4.14617
4.1398
4.13163
4.12171
4.11006
4.09673
4.08174
4.06515
4.04699
4.02732
4.00618
3.98363
3.9597
3.93447
3.90799
3.88031
3.8515
3.82161
3.79072
3.75889
3.72618
3.69266
3.65841
3.6235
3.58799
3.55196
3.51548
3.47862
3.44148
3.40412
3.36662
3.32903
3.29142
3.25387
3.21644
3.17922
3.1423
3.10577
3.06975
3.03438
2.99983
2.9663
2.93399
2.90306
2.87277
2.84095
0.0293962
0.0649936
0.0832758
0.0963043
0.107122
0.116806
0.125892
0.134689
0.143398
0.152156
0.161056
0.170165
0.179528
0.189176
0.199133
0.20942
0.220055
0.231061
0.242459
0.254277
0.266539
0.279275
0.292514
0.306283
0.320608
0.33551
0.351011
0.367127
0.383872
0.401257
0.419294
0.437991
0.457356
0.477398
0.498124
0.519542
0.541661
0.564487
0.588028
0.612293
0.63729
0.663026
0.689511
0.716752
0.744761
0.773548
0.803125
0.833507
0.864707
0.896739
0.929618
0.963357
0.997971
1.03347
1.06988
1.10719
1.14544
1.18461
1.22473
1.2658
1.30783
1.35082
1.39477
1.43968
1.48554
1.53236
1.58012
1.62882
1.67842
1.72893
1.78031
1.83254
1.88559
1.93944
1.99404
2.04936
2.10536
2.16199
2.2192
2.27695
2.33518
2.39384
2.45286
2.51219
2.57177
2.63152
2.69138
2.75128
2.81115
2.87092
2.93051
2.98986
3.04888
3.10749
3.16563
3.22322
3.28017
3.33641
3.39187
3.44648
3.50016
3.55284
3.60445
3.65493
3.7042
3.7522
3.79887
3.84414
3.88796
3.93027
3.97101
4.01014
4.0476
4.08335
4.11735
4.14956
4.17994
4.20846
4.23509
4.2598
4.28256
4.30336
4.32217
4.33899
4.3538
4.36658
4.37734
4.38608
4.39279
4.39748
4.40014
4.40079
4.39948
4.39615
4.39085
4.38362
4.37449
4.36349
4.35067
4.33606
4.31971
4.30165
4.28195
4.26064
4.23778
4.21342
4.18762
4.16043
4.13192
4.10214
4.07116
4.03905
4.00586
3.97167
3.93655
3.90057
3.86379
3.8263
3.78817
3.74947
3.71028
3.67068
3.63075
3.59056
3.55019
3.50971
3.4692
3.42872
3.38837
3.34822
3.30839
3.26897
3.23009
3.1919
3.15458
3.11834
3.08336
3.04979
3.01695
2.98298
0.0309791
0.0676562
0.0864765
0.0998836
0.110996
0.120916
0.130183
0.139115
0.147916
0.156728
0.165654
0.174768
0.184125
0.193767
0.203726
0.214029
0.224699
0.235759
0.247231
0.259138
0.271504
0.284357
0.29772
0.311618
0.326075
0.341112
0.356751
0.373009
0.389902
0.407447
0.425655
0.44454
0.464113
0.484388
0.505375
0.527087
0.549534
0.57273
0.596686
0.621415
0.646928
0.673241
0.700366
0.728317
0.75711
0.786757
0.817276
0.848684
0.880998
0.914236
0.948415
0.983553
1.01966
1.05677
1.09488
1.13401
1.17417
1.21538
1.25764
1.30097
1.34537
1.39084
1.43739
1.48502
1.53371
1.58347
1.63428
1.68613
1.73899
1.79286
1.8477
1.90348
1.96018
2.01774
2.07615
2.13534
2.19528
2.25592
2.31719
2.37904
2.44142
2.50425
2.56748
2.63103
2.69484
2.75883
2.82292
2.88705
2.95112
3.01507
3.07881
3.14226
3.20534
3.26796
3.33004
3.39149
3.45225
3.51221
3.57131
3.62946
3.68659
3.74262
3.79747
3.85108
3.90336
3.95426
4.0037
4.05163
4.09797
4.14267
4.18567
4.22692
4.26637
4.30397
4.33968
4.37347
4.40528
4.43509
4.46287
4.4886
4.51224
4.53378
4.5532
4.57049
4.58564
4.59864
4.60949
4.61819
4.62474
4.62916
4.63145
4.63164
4.62976
4.6257
4.61958
4.61143
4.60129
4.58919
4.57518
4.5593
4.54159
4.5221
4.50089
4.47799
4.45347
4.42739
4.39979
4.37074
4.3403
4.30853
4.2755
4.24127
4.20592
4.16951
4.13211
4.0938
4.05464
4.01473
3.97412
3.9329
3.89115
3.84894
3.80636
3.76348
3.7204
3.67717
3.63388
3.59062
3.54747
3.50452
3.46189
3.41968
3.37803
3.33709
3.29706
3.25814
3.22051
3.1843
3.14887
3.11266
0.0320839
0.0694975
0.0886606
0.102308
0.113604
0.123667
0.13304
0.142042
0.15088
0.1597
0.168612
0.177697
0.187015
0.196614
0.20653
0.216793
0.227429
0.238464
0.249919
0.26182
0.274187
0.287046
0.300419
0.314329
0.328799
0.343852
0.359508
0.375788
0.392711
0.410298
0.42856
0.447516
0.467182
0.48758
0.508723
0.53063
0.553314
0.576793
0.601083
0.6262
0.65216
0.678984
0.706692
0.735301
0.764832
0.795303
0.826736
0.859151
0.892571
0.927017
0.962508
0.999065
1.03671
1.07545
1.11531
1.15631
1.19846
1.24177
1.28625
1.33192
1.37878
1.42683
1.47607
1.5265
1.57812
1.6309
1.68485
1.73993
1.79613
1.85342
1.91178
1.97116
2.03153
2.09284
2.15506
2.21812
2.28198
2.34657
2.41185
2.47773
2.54416
2.61106
2.67836
2.74599
2.81386
2.8819
2.95003
3.01816
3.0862
3.15408
3.22169
3.28897
3.3558
3.42212
3.48782
3.55283
3.61704
3.68038
3.74276
3.80409
3.8643
3.9233
3.98102
4.03738
4.09231
4.14572
4.19756
4.24776
4.29624
4.34296
4.38786
4.43087
4.47196
4.51106
4.54814
4.58316
4.61609
4.64688
4.67551
4.70196
4.72619
4.74821
4.76798
4.7855
4.80076
4.81376
4.82449
4.83297
4.8392
4.8432
4.84498
4.84458
4.84201
4.83714
4.83012
4.821
4.80981
4.7966
4.7814
4.76425
4.74522
4.72434
4.70168
4.67727
4.65118
4.62347
4.59419
4.5634
4.53117
4.49756
4.46264
4.42647
4.38912
4.35066
4.31117
4.27072
4.22938
4.18722
4.14434
4.10079
4.05667
4.01206
3.96702
3.92166
3.87605
3.83026
3.78439
3.73852
3.69274
3.64716
3.60188
3.55702
3.51274
3.46918
3.42654
3.38501
3.34478
3.30598
3.26801
3.22955
0.0327549
0.0705989
0.089931
0.103693
0.11507
0.125188
0.134592
0.143602
0.152428
0.16122
0.170086
0.17911
0.188354
0.197866
0.207688
0.217856
0.228398
0.239339
0.250705
0.262517
0.2748
0.287574
0.300864
0.314693
0.329083
0.344059
0.359643
0.375858
0.392728
0.410278
0.428521
0.447479
0.467175
0.487641
0.508895
0.530957
0.553849
0.577592
0.602206
0.627709
0.654118
0.681458
0.70976
0.739049
0.769352
0.800695
0.833102
0.866599
0.901212
0.936964
0.973878
1.01198
1.05128
1.0918
1.13357
1.17659
1.22088
1.26646
1.31334
1.36152
1.411
1.4618
1.51389
1.56729
1.62197
1.67792
1.73512
1.79355
1.85318
1.91398
1.9759
2.03892
2.10298
2.16802
2.23401
2.30088
2.36857
2.43702
2.50615
2.57589
2.64617
2.71692
2.78805
2.85948
2.93112
3.00289
3.0747
3.14647
3.21809
3.28949
3.36056
3.43121
3.50136
3.5709
3.63974
3.7078
3.77498
3.84118
3.90633
3.97032
4.03309
4.09455
4.15461
4.2132
4.27024
4.32566
4.37938
4.43134
4.48148
4.52973
4.57604
4.62034
4.6626
4.70276
4.74078
4.77662
4.81025
4.84163
4.87073
4.89755
4.92204
4.9442
4.96401
4.98147
4.99658
5.00932
5.01971
5.02775
5.03347
5.03687
5.03798
5.0369
5.03349
5.02771
5.01974
5.00961
4.99734
4.983
4.96662
4.94826
4.92795
4.90576
4.88173
4.85592
4.82838
4.79918
4.76837
4.73601
4.70217
4.66691
4.6303
4.5924
4.55328
4.51301
4.47166
4.42931
4.38602
4.34189
4.29697
4.25136
4.20512
4.15835
4.11112
4.06351
4.01562
3.96752
3.91931
3.87106
3.82288
3.77487
3.72716
3.67986
3.63312
3.5871
3.542
3.498
3.45529
3.414
3.37357
3.33297
0.0329673
0.070982
0.0903612
0.104139
0.115513
0.125614
0.134988
0.143954
0.152721
0.161438
0.170217
0.179147
0.188298
0.197716
0.20744
0.217505
0.227939
0.23877
0.250021
0.261718
0.273882
0.286537
0.299707
0.313416
0.327689
0.342551
0.358029
0.374148
0.390933
0.408411
0.426607
0.445552
0.465275
0.485802
0.507163
0.529384
0.552494
0.576518
0.601481
0.627408
0.654331
0.682283
0.7113
0.74141
0.772645
0.805034
0.838608
0.873398
0.909431
0.946733
0.985326
1.02523
1.06647
1.10906
1.15302
1.19836
1.2451
1.29325
1.3428
1.39378
1.44616
1.49996
1.55515
1.61174
1.66969
1.72898
1.7896
1.8515
1.91465
1.979
2.04452
2.11116
2.17885
2.24755
2.31718
2.38769
2.45901
2.53105
2.60376
2.67704
2.75082
2.82502
2.89955
2.97432
3.04924
3.12422
3.19918
3.27401
3.34862
3.42292
3.49681
3.5702
3.64299
3.71508
3.78638
3.85679
3.92623
3.9946
4.0618
4.12776
4.19238
4.25559
4.3173
4.37743
4.4359
4.49265
4.5476
4.60068
4.65183
4.701
4.74811
4.79312
4.83599
4.87665
4.91508
4.95123
4.98507
5.01658
5.04572
5.07247
5.09682
5.11875
5.13825
5.15532
5.16996
5.18217
5.19196
5.19934
5.20433
5.20695
5.20725
5.20538
5.20098
5.19423
5.18525
5.17407
5.16073
5.14528
5.12777
5.10824
5.08674
5.06334
5.03807
5.011
4.98218
4.95168
4.91954
4.88583
4.85062
4.81395
4.7759
4.73654
4.69592
4.65413
4.61122
4.56727
4.52235
4.47653
4.4299
4.38253
4.33449
4.28587
4.23676
4.18723
4.13737
4.08726
4.03699
3.98666
3.93637
3.88622
3.83632
3.78683
3.73787
3.68962
3.64226
3.59598
3.55095
3.50732
3.4646
3.42201
0.0328996
0.0708953
0.0902121
0.103938
0.115259
0.125299
0.134604
0.143491
0.152171
0.160794
0.169469
0.178282
0.187296
0.196561
0.206121
0.21601
0.226261
0.236903
0.247964
0.259467
0.271439
0.283905
0.29689
0.310422
0.324531
0.339245
0.354595
0.370615
0.387336
0.404796
0.423027
0.442063
0.461934
0.482675
0.504317
0.526898
0.550455
0.575024
0.600627
0.62729
0.655024
0.683894
0.713943
0.74521
0.777733
0.811547
0.846687
0.883196
0.921098
0.960414
1.00117
1.04337
1.08704
1.1322
1.17884
1.22699
1.27665
1.32781
1.38049
1.43467
1.49034
1.5475
1.60611
1.66615
1.7276
1.79043
1.85458
1.92003
1.98673
2.05462
2.12364
2.19376
2.26488
2.33697
2.40994
2.48372
2.55823
2.63341
2.70917
2.78542
2.86209
2.93908
3.01631
3.09369
3.17113
3.24853
3.3258
3.40285
3.47958
3.55589
3.6317
3.7069
3.78141
3.85512
3.92793
3.99977
4.07053
4.14012
4.20846
4.27545
4.34102
4.40508
4.46754
4.52834
4.5874
4.64465
4.7
4.75341
4.8048
4.85412
4.90132
4.94634
4.98913
5.02966
5.06787
5.10374
5.13724
5.16833
5.19699
5.22321
5.24697
5.26826
5.28706
5.30339
5.31724
5.32861
5.33753
5.34401
5.34807
5.34975
5.34916
5.34629
5.34081
5.33304
5.32303
5.3108
5.29641
5.27991
5.26134
5.24075
5.2182
5.19374
5.16741
5.13928
5.10941
5.07783
5.04463
5.00984
4.97354
4.93577
4.89661
4.85611
4.81435
4.77137
4.72726
4.68208
4.63589
4.58878
4.54081
4.49205
4.4426
4.39252
4.3419
4.29082
4.23936
4.18761
4.13566
4.0836
4.03154
3.97957
3.92783
3.87644
3.82556
3.77536
3.726
3.67768
3.63056
3.58483
3.54002
3.49567
0.0326787
0.0705427
0.0896691
0.103239
0.114406
0.12429
0.133433
0.142154
0.150663
0.159108
0.1676
0.176223
0.18504
0.194106
0.203468
0.213163
0.223222
0.233674
0.244549
0.255873
0.267677
0.279991
0.292847
0.306279
0.32032
0.335007
0.350376
0.366466
0.383315
0.400968
0.419467
0.438868
0.459203
0.480506
0.502816
0.526167
0.550583
0.576064
0.602701
0.630558
0.659707
0.690182
0.722016
0.755246
0.789907
0.826031
0.863646
0.902768
0.943423
0.985637
1.02944
1.07485
1.12185
1.17044
1.22062
1.27239
1.32574
1.38065
1.43712
1.49512
1.55462
1.6156
1.67802
1.74184
1.80701
1.87351
1.94126
2.01022
2.08034
2.15155
2.22379
2.297
2.37111
2.44604
2.52172
2.59809
2.67506
2.75255
2.83048
2.90877
2.98734
3.0661
3.14496
3.22384
3.30265
3.3813
3.4597
3.53775
3.61537
3.69246
3.76894
3.84471
3.91967
3.99375
4.06683
4.13885
4.2097
4.27931
4.34758
4.41443
4.47977
4.54354
4.60565
4.66603
4.72461
4.78131
4.83607
4.88882
4.93951
4.98808
5.03449
5.07867
5.12059
5.1602
5.19747
5.23236
5.26484
5.29489
5.32249
5.34763
5.37028
5.39044
5.40811
5.42328
5.43597
5.44618
5.45393
5.45924
5.46214
5.46268
5.46111
5.457
5.45042
5.44157
5.4305
5.41724
5.40184
5.38436
5.36483
5.34332
5.31986
5.29452
5.26734
5.23837
5.20768
5.17532
5.14133
5.10578
5.06871
5.03019
4.99028
4.94902
4.90648
4.86272
4.8178
4.77179
4.72475
4.67675
4.62786
4.57815
4.5277
4.47658
4.42487
4.37265
4.32001
4.26702
4.21378
4.16038
4.10692
4.05351
4.00028
3.94735
3.89487
3.84302
3.79196
3.74188
3.69295
3.64535
3.59868
3.55285
0.032227
0.0698024
0.088631
0.101966
0.112911
0.122579
0.131511
0.140027
0.148336
0.156586
0.164887
0.173323
0.18196
0.190853
0.200047
0.209584
0.219499
0.229827
0.240599
0.251851
0.26362
0.275945
0.288864
0.302418
0.316654
0.331626
0.347386
0.363969
0.381424
0.399796
0.419123
0.439416
0.460728
0.483148
0.506741
0.531568
0.557696
0.585199
0.61411
0.644484
0.676375
0.709819
0.744849
0.781491
0.819771
0.859705
0.901303
0.94457
0.989511
1.03612
1.08441
1.1343
1.18582
1.23893
1.29363
1.34989
1.40767
1.46695
1.52768
1.58984
1.65336
1.71822
1.78435
1.85171
1.92024
1.9899
2.06062
2.13234
2.205
2.27855
2.35291
2.42803
2.50383
2.58026
2.65723