/*--------------------------------*- C++ -*----------------------------------*\
  =========                 |
  \\      /  F ield         | OpenFOAM: The Open Source CFD Toolbox
   \\    /   O peration     | Website:  https://openfoam.org
    \\  /    A nd           | Version:  9
     \\/     M anipulation  |
\*---------------------------------------------------------------------------*/
FoamFile
{
    format      ascii;
    class       volScalarField;
    location    "270";
    object      p;
}
// * * * * * * * * * * * * * * * * * * * * * * * * * * * * * * * * * * * * * //

dimensions      [0 2 -2 0 0 0 0];

internalField   nonuniform List<scalar> 
12225
(
-1.54118
-3.72979
-4.82989
-5.15067
-5.33213
-5.50142
-5.63326
-5.72885
-5.80602
-5.87413
-5.93504
-5.99108
-6.04243
-6.09094
-6.13714
-6.17721
-6.22715
-6.20956
-4.70461
-5.47311
-5.63363
-5.54153
-5.52918
-5.59728
-5.67515
-5.74132
-5.80149
-5.85962
-5.91513
-5.96719
-6.01658
-6.06369
-6.10959
-6.15141
-6.19959
-6.23663
-5.10575
-5.09078
-5.21821
-5.2967
-5.39178
-5.51218
-5.61973
-5.70499
-5.77735
-5.84337
-5.90435
-5.96038
-6.01296
-6.06255
-6.11072
-6.15559
-6.20621
-6.25103
-4.9838
-4.92693
-5.16861
-5.32705
-5.42896
-5.53538
-5.63339
-5.71383
-5.78309
-5.84682
-5.90621
-5.96127
-6.0132
-6.06244
-6.1104
-6.1564
-6.20573
-6.25383
-4.97345
-4.99792
-5.22606
-5.36774
-5.45152
-5.54379
-5.63531
-5.7134
-5.78143
-5.84426
-5.90314
-5.95807
-6.01004
-6.05956
-6.10783
-6.15484
-6.20362
-6.25316
-5.03139
-5.08037
-5.25472
-5.37874
-5.46041
-5.54844
-5.63676
-5.71362
-5.78104
-5.84331
-5.90178
-5.95656
-6.00845
-6.05805
-6.10637
-6.15371
-6.20186
-6.2509
-5.0917
-5.13598
-5.27123
-5.38766
-5.47155
-5.55588
-5.64005
-5.71501
-5.78151
-5.84302
-5.90089
-5.95534
-6.007
-6.0565
-6.10464
-6.15186
-6.19922
-6.24691
-5.1452
-5.18287
-5.2929
-5.40129
-5.48441
-5.56419
-5.64383
-5.7166
-5.78201
-5.84266
-5.89984
-5.95386
-6.0052
-6.05446
-6.10227
-6.14905
-6.19545
-6.2415
-5.19488
-5.22804
-5.31902
-5.41706
-5.49725
-5.57277
-5.64813
-5.7185
-5.78261
-5.84227
-5.89865
-5.95209
-6.00298
-6.05183
-6.09912
-6.14522
-6.19049
-6.23484
-5.24187
-5.27114
-5.34671
-5.43399
-5.51029
-5.58196
-5.65324
-5.72094
-5.78349
-5.84198
-5.89741
-5.95011
-6.00039
-6.04863
-6.09523
-6.14044
-6.18448
-6.22714
-5.2861
-5.31161
-5.37485
-5.45207
-5.52383
-5.59175
-5.65911
-5.72396
-5.78471
-5.84187
-5.89619
-5.94799
-5.99748
-6.04495
-6.0907
-6.13488
-6.17762
-6.21867
-5.32403
-5.34639
-5.40062
-5.46949
-5.53666
-5.60113
-5.66505
-5.7272
-5.78615
-5.84195
-5.89513
-5.94596
-5.99459
-6.04123
-6.08606
-6.12921
-6.17075
-6.2104
-5.35904
-5.37877
-5.42562
-5.48703
-5.54956
-5.61061
-5.67127
-5.73076
-5.7878
-5.84216
-5.89412
-5.94389
-5.99157
-6.03728
-6.08115
-6.12323
-6.16358
-6.20194
-5.39571
-5.4129
-5.45293
-5.50696
-5.5643
-5.62148
-5.67863
-5.73514
-5.78992
-5.84252
-5.893
-5.94146
-5.98795
-6.03251
-6.0752
-6.11605
-6.15507
-6.19206
-5.43275
-5.44754
-5.48154
-5.52863
-5.5805
-5.63348
-5.68692
-5.74022
-5.79242
-5.84296
-5.89169
-5.93858
-5.98363
-6.02682
-6.06814
-6.1076
-6.14519
-6.18077
-5.46822
-5.48085
-5.50977
-5.55071
-5.59725
-5.64592
-5.69561
-5.7456
-5.79504
-5.84327
-5.89001
-5.93512
-5.97852
-6.02013
-6.05994
-6.09789
-6.13401
-6.16817
-5.49919
-5.51006
-5.535
-5.57091
-5.61275
-5.65741
-5.70358
-5.75041
-5.79709
-5.84295
-5.88759
-5.93079
-5.97242
-6.01236
-6.05057
-6.087
-6.12164
-6.15443
-5.52131
-5.53095
-5.55318
-5.58561
-5.62399
-5.66555
-5.70889
-5.75312
-5.79743
-5.84115
-5.88384
-5.92523
-5.96516
-6.00349
-6.04016
-6.07513
-6.10839
-6.13991
-5.52768
-5.53683
-5.55801
-5.58911
-5.62613
-5.66631
-5.70824
-5.75104
-5.79394
-5.83627
-5.87759
-5.91763
-5.95622
-5.99325
-6.02866
-6.06243
-6.09456
-6.12506
-5.51123
-5.52099
-5.54355
-5.57657
-5.61549
-5.65708
-5.69992
-5.74329
-5.78649
-5.82887
-5.87001
-5.9097
-5.94783
-5.98431
-6.01913
-6.05227
-6.08375
-6.11365
-5.48416
-5.49494
-5.52017
-5.55713
-5.59982
-5.64423
-5.68919
-5.73427
-5.77874
-5.82191
-5.86349
-5.90338
-5.94154
-5.97794
-6.01256
-6.04546
-6.07667
-6.10628
-5.44879
-5.46059
-5.48991
-5.53343
-5.58162
-5.6295
-5.67718
-5.72476
-5.77115
-5.81557
-5.85791
-5.89828
-5.93671
-5.97319
-6.00779
-6.04058
-6.07164
-6.10108
-5.40813
-5.42001
-5.45443
-5.50764
-5.5631
-5.61494
-5.66571
-5.71601
-5.76437
-5.81008
-5.85334
-5.89435
-5.93317
-5.96985
-6.00452
-6.0373
-6.06831
-6.09768
-5.36435
-5.37532
-5.41705
-5.48141
-5.5435
-5.60007
-5.65557
-5.70929
-5.7594
-5.80607
-5.85002
-5.89154
-5.93064
-5.96743
-6.00211
-6.03486
-6.0658
-6.09506
-5.31738
-5.32286
-5.38549
-5.46363
-5.52548
-5.58363
-5.64465
-5.70287
-5.75525
-5.80315
-5.84801
-5.89011
-5.9295
-5.96638
-6.00105
-6.03373
-6.06459
-6.09382
-5.27403
-5.23769
-5.34719
-5.4581
-5.52026
-5.57544
-5.63753
-5.69713
-5.75022
-5.79879
-5.84435
-5.887
-5.92672
-5.9638
-5.99858
-6.03132
-6.06222
-6.09146
-5.28824
-5.12927
-5.25815
-5.41217
-5.50219
-5.57345
-5.64226
-5.70304
-5.75569
-5.80383
-5.84896
-5.89108
-5.93021
-5.96673
-6.00097
-6.03322
-6.06371
-6.09268
-5.41142
-5.23102
-5.24515
-5.31722
-5.40551
-5.50463
-5.5952
-5.66884
-5.73041
-5.7854
-5.83557
-5.88119
-5.92285
-5.9612
-5.99675
-6.02996
-6.06128
-6.09134
-5.11879
-5.70987
-5.79866
-5.67434
-5.61992
-5.64698
-5.69384
-5.73695
-5.77837
-5.82041
-5.86176
-5.90095
-5.93776
-5.97235
-6.00478
-6.0352
-6.06384
-6.09247
-2.12946
-3.89275
-4.89741
-5.19649
-5.34558
-5.4891
-5.60301
-5.68385
-5.74794
-5.80466
-5.85578
-5.90167
-5.94321
-5.9813
-6.01646
-6.04848
-6.07722
-6.10092
-6.96114
-6.96116
-6.96154
-6.9623
-6.96331
-6.96447
-6.96583
-6.96739
-6.96919
-6.97129
-6.97372
-6.97653
-6.97974
-6.98342
-6.98759
-6.9923
-6.9976
-7.00353
-7.01016
-7.01753
-7.02572
-7.03478
-7.04479
-7.05583
-7.06797
-7.08126
-7.09573
-7.11129
-7.12774
-7.14519
-7.16433
-7.18516
-7.20698
-7.22974
-7.25348
-7.27718
-7.30021
-7.32483
-7.35164
-7.37919
-7.40439
-7.42472
-7.44699
-7.4735
-7.5008
-7.52912
-7.55806
-7.58749
-7.61724
-7.64719
-7.67723
-7.70726
-7.73717
-7.76687
-7.79626
-7.82525
-7.85372
-7.88158
-7.9087
-7.93499
-7.96032
-7.98455
-8.00756
-8.02921
-8.04935
-8.06783
-8.08449
-8.09918
-8.11171
-8.12193
-8.12964
-8.13468
-8.13683
-8.13594
-8.13178
-8.12418
-8.11292
-8.09782
-8.07867
-8.05528
-8.02744
-7.99496
-7.95764
-7.9153
-7.86775
-7.81481
-7.75629
-7.69203
-7.62184
-7.54558
-7.46312
-7.37431
-7.27901
-7.17713
-7.06867
-6.95374
-6.83233
-6.70397
-6.56826
-6.42524
-6.27509
-6.11784
-5.95352
-5.78215
-5.60376
-5.41839
-5.2261
-5.02697
-4.8211
-4.6086
-4.38958
-4.1642
-3.93262
-3.69501
-3.45156
-3.20247
-2.94797
-2.68829
-2.4237
-2.15444
-1.88081
-1.60308
-1.32157
-1.03659
-0.748465
-0.457531
-0.164133
0.13139
0.428699
0.727441
1.02722
1.32765
1.62839
1.92911
2.22943
2.52901
2.82749
3.12454
3.41983
3.71305
4.0039
4.29211
4.57738
4.85945
5.13809
5.41306
5.68414
5.95114
6.21388
6.4722
6.72595
6.97501
7.21927
7.45862
7.693
7.92235
8.14663
8.36581
8.57987
8.78884
8.99272
9.19157
9.38552
9.57463
9.7587
9.93763
10.1115
10.2806
10.4447
10.6042
10.759
10.9092
11.0549
11.1962
11.3333
11.4668
11.5977
11.7274
11.8671
12.0126
-6.95999
-6.96028
-6.9608
-6.96148
-6.96213
-6.96271
-6.96334
-6.96417
-6.96531
-6.96681
-6.96869
-6.97098
-6.97371
-6.9769
-6.98057
-6.98476
-6.98952
-6.9949
-7.00095
-7.00776
-7.01537
-7.02385
-7.03325
-7.0436
-7.05489
-7.06709
-7.08012
-7.09395
-7.10874
-7.12501
-7.14236
-7.15991
-7.17772
-7.19612
-7.21482
-7.23369
-7.25445
-7.2764
-7.29847
-7.32236
-7.34959
-7.38398
-7.41911
-7.44929
-7.4788
-7.50821
-7.53772
-7.56737
-7.59715
-7.62702
-7.65691
-7.68676
-7.71648
-7.74598
-7.77518
-7.80398
-7.8323
-7.86002
-7.88704
-7.91324
-7.93852
-7.96273
-7.98576
-8.00747
-8.0277
-8.04632
-8.06316
-8.07806
-8.09086
-8.10139
-8.10946
-8.1149
-8.11751
-8.11711
-8.1135
-8.1065
-8.0959
-8.08151
-8.06312
-8.04053
-8.01356
-7.982
-7.94565
-7.90434
-7.85788
-7.80608
-7.74876
-7.68576
-7.61691
-7.54206
-7.46108
-7.37383
-7.28017
-7.17997
-7.07311
-6.95942
-6.83867
-6.71091
-6.57632
-6.43484
-6.28636
-6.13083
-5.96826
-5.79866
-5.62205
-5.43846
-5.24797
-5.05063
-4.84655
-4.63582
-4.41858
-4.19496
-3.96511
-3.72921
-3.48744
-3.24001
-2.98712
-2.72903
-2.46596
-2.19819
-1.92599
-1.64964
-1.36944
-1.08571
-0.798767
-0.508945
-0.216585
0.0779729
0.374396
0.672338
0.971407
1.27121
1.57141
1.87167
2.17162
2.47092
2.76922
3.06616
3.36143
3.65472
3.94573
4.23416
4.51973
4.80219
5.08128
5.35677
5.62844
5.89609
6.15954
6.41863
6.6732
6.92313
7.16829
7.4086
7.64397
7.87434
8.09967
8.31993
8.5351
8.74521
8.95028
9.15035
9.3453
9.53493
9.71927
9.89852
10.0728
10.2422
10.4067
10.5666
10.7218
10.8724
11.0186
11.1605
11.2984
11.4328
11.5652
11.6966
11.8391
11.9794
-6.95613
-6.95709
-6.95845
-6.9596
-6.96031
-6.96075
-6.96116
-6.96173
-6.96259
-6.96382
-6.96547
-6.96754
-6.97009
-6.97311
-6.97665
-6.98073
-6.98541
-6.99074
-6.99676
-7.00354
-7.01113
-7.01958
-7.02892
-7.03918
-7.05035
-7.06243
-7.07541
-7.08929
-7.10411
-7.11992
-7.13654
-7.15374
-7.17166
-7.19055
-7.21045
-7.23133
-7.25354
-7.27692
-7.30076
-7.32486
-7.3499
-7.37734
-7.40608
-7.43452
-7.46316
-7.49202
-7.52105
-7.55023
-7.57952
-7.60887
-7.63824
-7.66755
-7.69674
-7.72574
-7.75445
-7.78279
-7.81067
-7.83798
-7.86464
-7.89051
-7.9155
-7.93947
-7.96229
-7.98383
-8.00396
-8.02251
-8.03934
-8.05429
-8.06718
-8.07786
-8.08613
-8.09183
-8.09477
-8.09476
-8.0916
-8.08511
-8.07509
-8.06134
-8.04366
-8.02185
-7.99572
-7.96508
-7.92972
-7.88946
-7.84411
-7.79349
-7.73743
-7.67574
-7.60827
-7.53486
-7.45537
-7.36967
-7.27762
-7.17911
-7.07403
-6.96221
-6.84344
-6.7177
-6.58505
-6.44551
-6.29902
-6.14553
-5.98504
-5.81754
-5.64305
-5.46161
-5.27328
-5.07812
-4.87621
-4.66767
-4.45261
-4.23116
-4.00347
-3.76972
-3.53008
-3.28475
-3.03394
-2.77789
-2.51682
-2.25101
-1.98071
-1.70622
-1.42782
-1.14583
-0.860548
-0.572322
-0.281484
0.0116264
0.306683
0.603338
0.901211
1.19992
1.49912
1.79846
2.0976
2.39618
2.69384
2.99026
3.28509
3.57804
3.86879
4.15705
4.44255
4.72501
5.00419
5.27984
5.55175
5.81972
6.08355
6.34307
6.59815
6.84863
7.0944
7.33535
7.57141
7.80251
8.02859
8.24961
8.46554
8.67638
8.88212
9.08278
9.2784
9.46898
9.65455
9.83511
10.0107
10.1813
10.3471
10.5081
10.6644
10.8162
10.9635
11.1066
11.2459
11.3818
11.5163
11.6492
11.7941
11.9226
-6.94984
-6.95159
-6.95426
-6.95641
-6.95775
-6.95863
-6.95935
-6.96011
-6.96105
-6.9623
-6.96392
-6.96596
-6.96847
-6.97147
-6.975
-6.97908
-6.98377
-6.98911
-6.99513
-7.0019
-7.00944
-7.0178
-7.02702
-7.03709
-7.04804
-7.05986
-7.07255
-7.08612
-7.1006
-7.11601
-7.13227
-7.14927
-7.16704
-7.18571
-7.20539
-7.22621
-7.2483
-7.27164
-7.296
-7.32107
-7.34668
-7.37304
-7.40002
-7.42742
-7.45523
-7.48338
-7.5118
-7.54042
-7.56919
-7.59806
-7.62696
-7.65582
-7.68459
-7.71318
-7.74152
-7.76952
-7.79709
-7.82413
-7.85054
-7.87621
-7.90103
-7.92487
-7.9476
-7.9691
-7.98922
-8.0078
-8.02471
-8.03978
-8.05284
-8.06373
-8.07226
-8.07826
-8.08155
-8.08193
-8.07922
-8.07322
-8.06373
-8.05057
-8.03352
-8.0124
-7.987
-7.95714
-7.9226
-7.88322
-7.83879
-7.78914
-7.73409
-7.67346
-7.60708
-7.5348
-7.45647
-7.37196
-7.28112
-7.18383
-7.07998
-6.96943
-6.85207
-6.72782
-6.59671
-6.4587
-6.31375
-6.16183
-6.00292
-5.83703
-5.66417
-5.48437
-5.29768
-5.10418
-4.90393
-4.69705
-4.48365
-4.26385
-4.03781
-3.80569
-3.56767
-3.32393
-3.0747
-2.82019
-2.56065
-2.29632
-2.02747
-1.75438
-1.47734
-1.19666
-0.912644
-0.625626
-0.335941
-0.0439226
0.250107
0.545788
0.842744
1.14062
1.43906
1.73773
2.03625
2.33428
2.63147
2.92748
3.22199
3.51468
3.80525
4.09339
4.37884
4.66131
4.94057
5.21635
5.48846
5.75668
6.02081
6.2807
6.53617
6.7871
7.03336
7.27485
7.51146
7.74313
7.9698
8.19144
8.40803
8.61953
8.82594
9.02726
9.22353
9.41485
9.60125
9.78267
9.9591
10.1306
10.2972
10.459
10.6161
10.7687
10.9168
11.0607
11.2008
11.3376
11.4729
11.6055
11.7486
11.8633
-6.94262
-6.94522
-6.9494
-6.9528
-6.95502
-6.95658
-6.95784
-6.95903
-6.96031
-6.96182
-6.96366
-6.96589
-6.96857
-6.97174
-6.97543
-6.97969
-6.98455
-6.99005
-6.99623
-7.00314
-7.01082
-7.0193
-7.0286
-7.03876
-7.04978
-7.06167
-7.07444
-7.08809
-7.10264
-7.11809
-7.13442
-7.15159
-7.16957
-7.18843
-7.20821
-7.22897
-7.25077
-7.2736
-7.29741
-7.32208
-7.34746
-7.37347
-7.39997
-7.42688
-7.45417
-7.48179
-7.5097
-7.53785
-7.56617
-7.59461
-7.62311
-7.65161
-7.68003
-7.7083
-7.73634
-7.76408
-7.79141
-7.81824
-7.84448
-7.87001
-7.89471
-7.91848
-7.94117
-7.96265
-7.98279
-8.00143
-8.01843
-8.03361
-8.04683
-8.05791
-8.06666
-8.07292
-8.0765
-8.0772
-8.07485
-8.06924
-8.06017
-8.04746
-8.03091
-8.0103
-7.98546
-7.95618
-7.92226
-7.88352
-7.83977
-7.79082
-7.7365
-7.67663
-7.61104
-7.53957
-7.46209
-7.37843
-7.28847
-7.19208
-7.08915
-6.97955
-6.86319
-6.74001
-6.60997
-6.47303
-6.32916
-6.17833
-6.02053
-5.85574
-5.68399
-5.50531
-5.31975
-5.12737
-4.92826
-4.7225
-4.51022
-4.29155
-4.06662
-3.8356
-3.59866
-3.356
-3.10782
-2.85434
-2.59581
-2.33246
-2.06457
-1.79241
-1.51627
-1.23644
-0.95325
-0.667016
-0.378078
-0.0867564
0.206619
0.501679
0.798047
1.0954
1.39338
1.69164
1.98979
2.2875
2.58442
2.88021
3.17455
3.46712
3.75761
4.04573
4.33119
4.61373
4.89309
5.16903
5.44132
5.70977
5.97417
6.23436
6.49017
6.74147
6.98813
7.23003
7.46709
7.69925
7.92642
8.14858
8.36568
8.5777
8.78463
8.98647
9.18322
9.37497
9.56177
9.74359
9.92043
10.0923
10.2593
10.4216
10.5791
10.732
10.8805
11.0248
11.1653
11.3022
11.4373
11.5682
11.7079
11.8097
-6.93596
-6.93936
-6.94495
-6.94957
-6.95273
-6.95505
-6.95695
-6.95869
-6.96045
-6.96238
-6.96459
-6.96717
-6.97017
-6.97365
-6.97766
-6.98222
-6.98738
-6.99318
-6.99966
-7.00686
-7.01482
-7.02357
-7.03314
-7.04356
-7.05484
-7.06698
-7.08001
-7.09392
-7.1087
-7.12436
-7.14086
-7.15821
-7.17639
-7.19543
-7.21533
-7.23612
-7.25781
-7.28037
-7.30375
-7.32791
-7.35276
-7.37823
-7.40422
-7.43066
-7.45749
-7.48468
-7.51217
-7.53992
-7.56787
-7.59596
-7.62414
-7.65234
-7.6805
-7.70853
-7.73636
-7.76391
-7.79108
-7.81779
-7.84392
-7.86938
-7.89404
-7.91778
-7.94049
-7.96201
-7.98222
-8.00095
-8.01807
-8.0334
-8.04679
-8.05806
-8.06703
-8.07353
-8.07737
-8.07836
-8.07632
-8.07103
-8.06232
-8.04998
-8.03381
-8.01361
-7.98919
-7.96036
-7.9269
-7.88864
-7.84539
-7.79695
-7.74316
-7.68384
-7.61881
-7.54792
-7.47103
-7.38798
-7.29864
-7.20289
-7.1006
-6.99168
-6.87602
-6.75357
-6.62426
-6.48806
-6.34493
-6.19484
-6.03778
-5.87374
-5.70274
-5.52482
-5.34001
-5.14839
-4.95004
-4.74504
-4.53352
-4.31559
-4.09141
-3.86113
-3.62492
-3.38298
-3.1355
-2.88272
-2.62486
-2.36218
-2.09492
-1.82338
-1.54782
-1.26857
-0.985918
-0.700202
-0.411751
-0.120881
0.172065
0.466711
0.762701
1.05972
1.35741
1.6554
1.95332
2.25083
2.54758
2.84324
3.13748
3.42998
3.72044
4.00855
4.29404
4.57663
4.85607
5.13212
5.40455
5.67316
5.93776
6.19816
6.45421
6.70576
6.9527
7.19491
7.43229
7.66477
7.89228
8.11478
8.33222
8.54458
8.75185
8.95401
9.15107
9.34308
9.5301
9.71213
9.88919
10.0613
10.2286
10.391
10.5488
10.7019
10.8506
10.995
11.1354
11.2721
11.4063
11.5352
11.6714
11.7618
-6.93094
-6.93507
-6.9418
-6.94747
-6.95149
-6.95456
-6.95713
-6.95946
-6.96175
-6.96417
-6.96683
-6.96983
-6.97323
-6.97711
-6.9815
-6.98644
-6.99199
-6.99817
-7.00502
-7.01259
-7.02091
-7.03
-7.03991
-7.05065
-7.06223
-7.07467
-7.08796
-7.10212
-7.11712
-7.13297
-7.14964
-7.16714
-7.18544
-7.20455
-7.22449
-7.24525
-7.26682
-7.28919
-7.3123
-7.33613
-7.3606
-7.38567
-7.41126
-7.43732
-7.4638
-7.49065
-7.51782
-7.54527
-7.57294
-7.60078
-7.62873
-7.65673
-7.6847
-7.71258
-7.74028
-7.76773
-7.79483
-7.82149
-7.84761
-7.87307
-7.89776
-7.92155
-7.94433
-7.96595
-7.98627
-8.00514
-8.02241
-8.03791
-8.05148
-8.06295
-8.07214
-8.07887
-8.08295
-8.08419
-8.0824
-8.07739
-8.06896
-8.05691
-8.04104
-8.02116
-7.99705
-7.96854
-7.93541
-7.89749
-7.85458
-7.8065
-7.75306
-7.6941
-7.62945
-7.55894
-7.48243
-7.39978
-7.31084
-7.2155
-7.11363
-7.00514
-6.88994
-6.76794
-6.63911
-6.50337
-6.36071
-6.21109
-6.0545
-5.89093
-5.72041
-5.54296
-5.35863
-5.1675
-4.96962
-4.76511
-4.55407
-4.33663
-4.11292
-3.88312
-3.64738
-3.4059
-3.15889
-2.90656
-2.64914
-2.38688
-2.12004
-1.8489
-1.57373
-1.29485
-1.01255
-0.727169
-0.439031
-0.148454
0.144206
0.438575
0.734321
1.03112
1.32862
1.62644
1.92421
2.22158
2.51822
2.81379
3.10796
3.40041
3.69084
3.97894
4.26443
4.54705
4.82653
5.10264
5.37515
5.64386
5.90856
6.16909
6.42529
6.67701
6.92412
7.16652
7.40409
7.63677
7.86449
8.08718
8.30483
8.51739
8.72484
8.92719
9.12442
9.31658
9.50373
9.68589
9.86307
10.0353
10.2027
10.3653
10.5231
10.6763
10.825
10.9694
11.1096
11.2457
11.3788
11.5053
11.6384
11.7189
-6.9283
-6.93298
-6.94052
-6.94699
-6.95175
-6.95548
-6.95867
-6.96156
-6.96438
-6.96728
-6.97041
-6.97385
-6.97768
-6.98198
-6.98677
-6.99213
-6.99807
-7.00465
-7.01189
-7.01984
-7.02852
-7.03797
-7.04821
-7.05926
-7.07113
-7.08383
-7.09736
-7.11173
-7.12692
-7.14292
-7.15973
-7.17733
-7.19571
-7.21488
-7.23482
-7.25552
-7.27699
-7.2992
-7.32211
-7.34569
-7.3699
-7.39469
-7.42001
-7.44581
-7.47203
-7.49865
-7.52561
-7.55286
-7.58036
-7.60804
-7.63586
-7.66375
-7.69164
-7.71946
-7.74712
-7.77456
-7.80167
-7.82836
-7.85453
-7.88006
-7.90484
-7.92875
-7.95165
-7.97341
-7.99388
-8.01292
-8.03036
-8.04605
-8.05981
-8.07148
-8.08087
-8.08781
-8.0921
-8.09356
-8.09198
-8.08719
-8.07897
-8.06714
-8.05148
-8.03181
-8.00792
-7.97962
-7.9467
-7.90899
-7.86629
-7.81841
-7.76518
-7.70643
-7.64198
-7.57168
-7.49538
-7.41294
-7.32422
-7.2291
-7.12746
-7.0192
-6.90424
-6.78249
-6.6539
-6.51842
-6.37601
-6.22663
-6.07029
-5.90698
-5.73671
-5.55952
-5.37546
-5.18459
-4.98699
-4.78275
-4.57198
-4.35481
-4.13139
-3.90186
-3.6664
-3.4252
-3.17846
-2.9264
-2.66924
-2.40724
-2.14065
-1.86975
-1.59482
-1.31616
-1.03408
-0.748902
-0.460951
-0.170557
0.121916
0.416112
0.711704
1.00837
1.30575
1.60346
1.90113
2.19841
2.49497
2.79047
3.08458
3.37699
3.66738
3.95546
4.24094
4.52355
4.80304
5.07916
5.35171
5.62046
5.88522
6.14582
6.40209
6.65389
6.9011
7.14359
7.38126
7.61405
7.84187
8.06467
8.28242
8.49508
8.70263
8.90505
9.10237
9.29461
9.48181
9.66402
9.84125
10.0136
10.181
10.3436
10.5014
10.6546
10.8032
10.9473
11.0871
11.2225
11.3543
11.4784
11.6086
11.6805
-6.92835
-6.93337
-6.94139
-6.9484
-6.9537
-6.95798
-6.96169
-6.96508
-6.96837
-6.97172
-6.97527
-6.97913
-6.98336
-6.98804
-6.99322
-6.99895
-7.00526
-7.0122
-7.0198
-7.02809
-7.0371
-7.04686
-7.05738
-7.0687
-7.0808
-7.09372
-7.10744
-7.12197
-7.13729
-7.15341
-7.17031
-7.18798
-7.20641
-7.22559
-7.24553
-7.2662
-7.28759
-7.30969
-7.33246
-7.35589
-7.37992
-7.40453
-7.42968
-7.45531
-7.48139
-7.50787
-7.53471
-7.56186
-7.58928
-7.61691
-7.64469
-7.67256
-7.70045
-7.7283
-7.75601
-7.78351
-7.81071
-7.8375
-7.86379
-7.88945
-7.91437
-7.93844
-7.9615
-7.98343
-8.00408
-8.0233
-8.04093
-8.0568
-8.07075
-8.0826
-8.09217
-8.09928
-8.10375
-8.10537
-8.10395
-8.09931
-8.09124
-8.07954
-8.06401
-8.04445
-8.02067
-7.99247
-7.95965
-7.92203
-7.8794
-7.8316
-7.77845
-7.71976
-7.65537
-7.58513
-7.50889
-7.4265
-7.33784
-7.24277
-7.14119
-7.033
-6.9181
-6.79643
-6.66791
-6.53251
-6.39017
-6.24088
-6.08461
-5.92139
-5.75121
-5.57412
-5.39015
-5.19939
-5.00189
-4.79777
-4.58712
-4.37008
-4.14678
-3.91738
-3.68206
-3.441
-3.1944
-2.94247
-2.68546
-2.42359
-2.15714
-1.88637
-1.61157
-1.33303
-1.05107
-0.766011
-0.478168
-0.187888
0.104467
0.398559
0.694054
0.990635
1.28794
1.58557
1.88316
2.18037
2.47686
2.7723
3.06635
3.35871
3.64905
3.93708
4.22252
4.5051
4.78457
5.06068
5.33321
5.60195
5.8667
6.12731
6.38358
6.6354
6.88262
7.12513
7.36283
7.59564
7.82348
8.04632
8.26408
8.47677
8.68433
8.88678
9.08411
9.27636
9.46356
9.64575
9.82297
9.99525
10.1626
10.3252
10.483
10.636
10.7844
10.9282
11.0675
11.202
11.3323
11.454
11.5817
11.6462
-6.93109
-6.93625
-6.94444
-6.95172
-6.95738
-6.96205
-6.96615
-6.96994
-6.97362
-6.97734
-6.98125
-6.98545
-6.99002
-6.99503
-7.00053
-7.00657
-7.01319
-7.02042
-7.0283
-7.03686
-7.04612
-7.05612
-7.06686
-7.07836
-7.09064
-7.1037
-7.11754
-7.13217
-7.14757
-7.16376
-7.1807
-7.19841
-7.21687
-7.23606
-7.25599
-7.27664
-7.29799
-7.32002
-7.34272
-7.36606
-7.39001
-7.41454
-7.4396
-7.46517
-7.49119
-7.51763
-7.54445
-7.5716
-7.59902
-7.62668
-7.65451
-7.68244
-7.71042
-7.73837
-7.7662
-7.79383
-7.82117
-7.84812
-7.87457
-7.9004
-7.92551
-7.94975
-7.973
-7.99512
-8.01595
-8.03534
-8.05314
-8.06918
-8.08329
-8.09528
-8.10499
-8.11223
-8.1168
-8.11852
-8.11719
-8.11262
-8.10461
-8.09295
-8.07745
-8.05791
-8.03413
-8.00592
-7.97308
-7.93543
-7.89276
-7.84491
-7.7917
-7.73294
-7.66848
-7.59817
-7.52185
-7.43939
-7.35065
-7.2555
-7.15385
-7.04558
-6.93061
-6.80887
-6.68029
-6.54483
-6.40243
-6.25309
-6.09678
-5.93351
-5.7633
-5.58617
-5.40219
-5.21141
-5.01392
-4.8098
-4.59916
-4.38214
-4.15887
-3.92951
-3.69423
-3.45321
-3.20666
-2.9548
-2.69784
-2.43604
-2.16965
-1.89895
-1.62421
-1.34574
-1.06385
-0.77885
-0.491075
-0.200876
0.0914026
0.385422
0.680847
0.977357
1.27459
1.57215
1.86966
2.1668
2.46322
2.75858
3.05257
3.34485
3.63512
3.92308
4.20845
4.49096
4.77035
5.04639
5.31885
5.58752
5.85222
6.11276
6.36898
6.62074
6.86791
7.11037
7.34803
7.58079
7.8086
8.03138
8.24911
8.46174
8.66927
8.87167
9.06896
9.26116
9.44831
9.63045
9.8076
9.97982
10.1471
10.3096
10.4672
10.6201
10.7682
10.9116
11.0503
11.1837
11.3126
11.432
11.5573
11.6155
-6.9363
-6.94142
-6.94951
-6.95682
-6.96265
-6.96754
-6.97191
-6.97597
-6.97992
-6.98392
-6.9881
-6.99255
-6.99737
-7.00262
-7.00835
-7.0146
-7.02143
-7.02886
-7.03692
-7.04565
-7.05507
-7.0652
-7.07606
-7.08767
-7.10003
-7.11316
-7.12707
-7.14174
-7.15719
-7.1734
-7.19037
-7.2081
-7.22657
-7.24577
-7.2657
-7.28635
-7.30769
-7.32972
-7.3524
-7.37573
-7.39966
-7.42418
-7.44925
-7.47484
-7.50089
-7.52738
-7.55425
-7.58147
-7.60899
-7.63675
-7.6647
-7.69277
-7.72089
-7.749
-7.777
-7.8048
-7.83232
-7.85946
-7.88609
-7.91212
-7.93741
-7.96183
-7.98526
-8.00754
-8.02853
-8.04807
-8.066
-8.08215
-8.09636
-8.10844
-8.11821
-8.12549
-8.1301
-8.13183
-8.13049
-8.12589
-8.11783
-8.10611
-8.09054
-8.0709
-8.04702
-8.01868
-7.98571
-7.9479
-7.90508
-7.85706
-7.80367
-7.74473
-7.68009
-7.60958
-7.53308
-7.45042
-7.36149
-7.26615
-7.16431
-7.05586
-6.94072
-6.81881
-6.69007
-6.55444
-6.41189
-6.2624
-6.10596
-5.94256
-5.77223
-5.595
-5.41092
-5.22006
-5.02249
-4.81831
-4.60762
-4.39056
-4.16726
-3.93788
-3.70259
-3.46157
-3.21503
-2.96318
-2.70625
-2.44447
-2.17812
-1.90745
-1.63276
-1.35434
-1.0725
-0.787559
-0.499854
-0.209734
0.0824723
0.376416
0.671764
0.968198
1.26535
1.56282
1.86024
2.15729
2.45361
2.74887
3.04275
3.33492
3.62507
3.91291
4.19816
4.48054
4.75981
5.03572
5.30805
5.5766
5.84116
6.10158
6.35768
6.60932
6.85637
7.09871
7.33626
7.56891
7.79661
8.01929
8.23691
8.44944
8.65686
8.85916
9.05636
9.24847
9.43552
9.61756
9.79462
9.96672
10.1339
10.2962
10.4537
10.6063
10.7541
10.897
11.035
11.1674
11.2948
11.412
11.5351
11.5881
-6.94363
-6.94857
-6.95632
-6.96345
-6.96926
-6.97423
-6.97871
-6.98291
-6.98702
-6.99117
-6.9955
-7.0001
-7.00505
-7.01042
-7.01626
-7.02261
-7.02953
-7.03703
-7.04517
-7.05396
-7.06343
-7.0736
-7.0845
-7.09614
-7.10853
-7.12167
-7.13559
-7.15027
-7.16572
-7.18194
-7.19891
-7.21665
-7.23513
-7.25435
-7.27431
-7.29498
-7.31635
-7.33841
-7.36114
-7.38451
-7.4085
-7.43307
-7.4582
-7.48386
-7.51
-7.5366
-7.5636
-7.59097
-7.61864
-7.64656
-7.67468
-7.70293
-7.73123
-7.75952
-7.7877
-7.8157
-7.8434
-7.87072
-7.89753
-7.92372
-7.94916
-7.97373
-7.99728
-8.01967
-8.04075
-8.06036
-8.07834
-8.09452
-8.10874
-8.12081
-8.13055
-8.13777
-8.1423
-8.14393
-8.14247
-8.13773
-8.12951
-8.11761
-8.10184
-8.08199
-8.05788
-8.02931
-7.99608
-7.95801
-7.91492
-7.86663
-7.81296
-7.75374
-7.68881
-7.61802
-7.54123
-7.45829
-7.36908
-7.27348
-7.17137
-7.06266
-6.94727
-6.82512
-6.69614
-6.5603
-6.41754
-6.26785
-6.11121
-5.94764
-5.77715
-5.59977
-5.41556
-5.22458
-5.02691
-4.82263
-4.61188
-4.39475
-4.17141
-3.942
-3.70669
-3.46567
-3.21914
-2.96731
-2.7104
-2.44866
-2.18236
-1.91174
-1.63711
-1.35876
-1.07699
-0.792135
-0.504528
-0.214501
0.0776122
0.371453
0.666694
0.963023
1.26006
1.55739
1.85467
2.15157
2.44775
2.74286
3.03657
3.32858
3.61856
3.90622
4.19128
4.47348
4.75255
5.02827
5.30041
5.56876
5.83313
6.09335
6.34926
6.60071
6.84758
7.08974
7.32711
7.55959
7.78712
8.00963
8.22709
8.43946
8.64673
8.84889
9.04595
9.23793
9.42485
9.60676
9.78368
9.95565
10.1227
10.2848
10.4421
10.5944
10.7419
10.8842
11.0214
11.1528
11.2787
11.3939
11.5149
11.5635
-6.95265
-6.95729
-6.96455
-6.97133
-6.97696
-6.98184
-6.98629
-6.99049
-6.9946
-6.99877
-7.00312
-7.00772
-7.01267
-7.01802
-7.02384
-7.03017
-7.03706
-7.04453
-7.05264
-7.06139
-7.07083
-7.08097
-7.09183
-7.10344
-7.11579
-7.1289
-7.14278
-7.15744
-7.17286
-7.18906
-7.20603
-7.22377
-7.24227
-7.26152
-7.28151
-7.30223
-7.32366
-7.34579
-7.36858
-7.39203
-7.4161
-7.44077
-7.46601
-7.49179
-7.51808
-7.54484
-7.57201
-7.59956
-7.62741
-7.65552
-7.68381
-7.71223
-7.74071
-7.76916
-7.7975
-7.82565
-7.8535
-7.88094
-7.90786
-7.93414
-7.95965
-7.98427
-8.00785
-8.03024
-8.0513
-8.07086
-8.08878
-8.10487
-8.11896
-8.13088
-8.14046
-8.14749
-8.1518
-8.1532
-8.15149
-8.14648
-8.13797
-8.12577
-8.10969
-8.08951
-8.06506
-8.03614
-8.00256
-7.96413
-7.92068
-7.87202
-7.81798
-7.7584
-7.69311
-7.62197
-7.54483
-7.46156
-7.37201
-7.27609
-7.17367
-7.06466
-6.94898
-6.82656
-6.69732
-6.56123
-6.41824
-6.26835
-6.11152
-5.94777
-5.77712
-5.59961
-5.41527
-5.22419
-5.02642
-4.82209
-4.61128
-4.39412
-4.17076
-3.94135
-3.70606
-3.46507
-3.21857
-2.9668
-2.70996
-2.4483
-2.18208
-1.91156
-1.63704
-1.3588
-1.07716
-0.792446
-0.504987
-0.215098
0.0768592
0.370534
0.665612
0.961779
1.25862
1.55574
1.85281
2.1495
2.44546
2.74034
3.03383
3.32559
3.61532
3.90273
4.18754
4.46947
4.74828
5.02373
5.29559
5.56368
5.82778
6.08773
6.34338
6.59458
6.84119
7.08311
7.32024
7.55249
7.77979
8.00208
8.21932
8.43149
8.63856
8.84053
9.03741
9.22922
9.41598
9.59773
9.77449
9.94629
10.1132
10.2751
10.4321
10.5842
10.7312
10.873
11.0094
11.1397
11.2642
11.3774
11.4964
11.5416
-6.96295
-6.96721
-6.97386
-6.98016
-6.98546
-6.9901
-6.99436
-6.99839
-7.00235
-7.00638
-7.01057
-7.01502
-7.01982
-7.02503
-7.03071
-7.0369
-7.04365
-7.051
-7.05897
-7.06761
-7.07694
-7.08697
-7.09773
-7.10924
-7.1215
-7.13454
-7.14836
-7.16296
-7.17835
-7.19453
-7.21149
-7.22924
-7.24775
-7.26702
-7.28705
-7.30781
-7.3293
-7.35149
-7.37436
-7.3979
-7.42207
-7.44687
-7.47226
-7.4982
-7.52464
-7.55156
-7.5789
-7.60659
-7.63459
-7.66284
-7.69125
-7.71978
-7.74835
-7.77689
-7.8053
-7.83349
-7.86136
-7.88881
-7.91571
-7.94194
-7.96738
-7.9919
-8.01534
-8.03758
-8.05846
-8.07782
-8.0955
-8.11133
-8.12514
-8.13676
-8.14601
-8.15271
-8.15666
-8.15769
-8.15559
-8.15018
-8.14127
-8.12865
-8.11214
-8.09154
-8.06666
-8.03731
-8.0033
-7.96444
-7.92057
-7.87149
-7.81704
-7.75705
-7.69137
-7.61985
-7.54235
-7.45872
-7.36883
-7.27258
-7.16985
-7.06055
-6.9446
-6.82192
-6.69244
-6.55613
-6.41294
-6.26286
-6.10587
-5.94198
-5.77122
-5.5936
-5.40919
-5.21805
-5.02026
-4.81591
-4.6051
-4.38798
-4.16466
-3.93532
-3.70011
-3.45921
-3.21284
-2.96119
-2.70449
-2.44299
-2.17693
-1.90659
-1.63226
-1.35422
-1.0728
-0.788318
-0.501074
-0.211415
0.0802929
0.373711
0.668553
0.964464
1.261
1.55782
1.8546
2.15099
2.44663
2.7412
3.03436
3.3258
3.61519
3.90226
4.18672
4.46831
4.74677
5.02186
5.29338
5.56111
5.82487
6.08448
6.33979
6.59066
6.83695
7.07856
7.31539
7.54734
7.77436
7.99637
8.21335
8.42527
8.6321
8.83385
9.03052
9.22213
9.40871
9.59028
9.76686
9.93849
10.1052
10.2669
10.4237
10.5754
10.722
10.8632
10.9988
11.128
11.2511
11.3626
11.4797
11.5222
-6.97415
-6.978
-6.98398
-6.98969
-6.99452
-6.99875
-7.00264
-7.00632
-7.00994
-7.01364
-7.01752
-7.02168
-7.02619
-7.03112
-7.03653
-7.04247
-7.04899
-7.05611
-7.06388
-7.07232
-7.08146
-7.09133
-7.10194
-7.11331
-7.12546
-7.13839
-7.15211
-7.16662
-7.18194
-7.19806
-7.21498
-7.23269
-7.25119
-7.27047
-7.2905
-7.31129
-7.33281
-7.35505
-7.37801
-7.40165
-7.42594
-7.45084
-7.47633
-7.50237
-7.5289
-7.55589
-7.58327
-7.61101
-7.63902
-7.66726
-7.69565
-7.72413
-7.75263
-7.78108
-7.80939
-7.83744
-7.86515
-7.89241
-7.91909
-7.94508
-7.97025
-7.99446
-8.01759
-8.03948
-8.05998
-8.07895
-8.09622
-8.11162
-8.12499
-8.13616
-8.14494
-8.15116
-8.15463
-8.15517
-8.15258
-8.14667
-8.13726
-8.12414
-8.10714
-8.08605
-8.06068
-8.03085
-7.99638
-7.95707
-7.91274
-7.86323
-7.80836
-7.74797
-7.68191
-7.61003
-7.53218
-7.44822
-7.35802
-7.26148
-7.15848
-7.04894
-6.93276
-6.80987
-6.68022
-6.54375
-6.40044
-6.25025
-6.09318
-5.92923
-5.75844
-5.58081
-5.39642
-5.20532
-5.00759
-4.80332
-4.59263
-4.37563
-4.15247
-3.92329
-3.68828
-3.44759
-3.20144
-2.95003
-2.69358
-2.43235
-2.16658
-1.89653
-1.6225
-1.34479
-1.06371
-0.779547
-0.492636
-0.203339
0.0879982
0.381052
0.675552
0.971075
1.26719
1.56359
1.85996
2.15593
2.45116
2.7453
3.03803
3.32903
3.61799
3.90462
4.18864
4.46977
4.74779
5.02244
5.29352
5.56081
5.82414
6.08333
6.33823
6.58869
6.8346
7.07583
7.31229
7.54389
7.77057
7.99227
8.20894
8.42057
8.62713
8.82862
9.02506
9.21646
9.40283
9.58421
9.76061
9.93205
10.0985
10.26
10.4165
10.5679
10.7141
10.8547
10.9895
11.1177
11.2395
11.3494
11.4645
11.505
-6.98644
-6.98989
-6.99519
-7.00022
-7.00442
-7.00805
-7.01132
-7.01442
-7.01748
-7.02064
-7.024
-7.02768
-7.03173
-7.03624
-7.04125
-7.04683
-7.053
-7.0598
-7.06727
-7.07543
-7.0843
-7.09392
-7.1043
-7.11545
-7.12739
-7.14013
-7.15368
-7.16804
-7.18321
-7.19919
-7.21597
-7.23356
-7.25196
-7.27115
-7.29113
-7.31188
-7.33338
-7.35561
-7.37854
-7.40214
-7.42639
-7.45124
-7.47665
-7.50259
-7.52899
-7.55583
-7.58305
-7.61058
-7.63837
-7.66637
-7.6945
-7.72271
-7.75092
-7.77905
-7.80701
-7.83469
-7.862
-7.88881
-7.91503
-7.94054
-7.9652
-7.98889
-8.01148
-8.03281
-8.05275
-8.07114
-8.08783
-8.10265
-8.11543
-8.12601
-8.1342
-8.13984
-8.14273
-8.14269
-8.13953
-8.13306
-8.1231
-8.10945
-8.09193
-8.07033
-8.04448
-8.01418
-7.97925
-7.9395
-7.89476
-7.84486
-7.78963
-7.72891
-7.66253
-7.59035
-7.51222
-7.42801
-7.33759
-7.24084
-7.13767
-7.02798
-6.91168
-6.7887
-6.65898
-6.52248
-6.37915
-6.22898
-6.07196
-5.90809
-5.73739
-5.5599
-5.37566
-5.18474
-4.98721
-4.78318
-4.57274
-4.35603
-4.13317
-3.90431
-3.66964
-3.42932
-3.18354
-2.93253
-2.6765
-2.4157
-2.15037
-1.88078
-1.60723
-1.33
-1.04939
-0.765711
-0.479313
-0.19054
0.100268
0.392827
0.686823
0.981781